/*--------------------------------*- C++ -*----------------------------------*\
| =========                 |                                                 |
| \\      /  F ield         | OpenFOAM: The Open Source CFD Toolbox           |
|  \\    /   O peration     | Version:  2.3.0                                 |
|   \\  /    A nd           | Web:      www.OpenFOAM.org                      |
|    \\/     M anipulation  |                                                 |
\*---------------------------------------------------------------------------*/
FoamFile
{
    version     2.0;
    format      ascii;
    class       volScalarField;
    location    "0.8";
    object      p;
}
// * * * * * * * * * * * * * * * * * * * * * * * * * * * * * * * * * * * * * //

dimensions      [0 2 -2 0 0 0 0];

internalField   nonuniform List<scalar> 
3375
(
0.00523153
0.00461315
0.00412504
0.00376452
0.00345829
0.00317972
0.00293006
0.00271379
0.00253231
0.00238461
0.0022682
0.0021793
0.00211328
0.00206519
0.00203027
0.00200439
0.0019842
0.00196717
0.00195153
0.00193613
0.00192028
0.00190364
0.00188605
0.00186753
0.00184813
0.00182795
0.00180709
0.00178567
0.00176375
0.00174143
0.00171875
0.00169577
0.00167254
0.00164907
0.0016254
0.00160156
0.00157756
0.00155342
0.00152915
0.00150477
0.0014803
0.00145573
0.00143109
0.00140638
0.00138161
0.0013568
0.00133193
0.00130703
0.0012821
0.00125714
0.00123216
0.00120717
0.00118216
0.00115714
0.00113211
0.00110708
0.00108204
0.00105701
0.00103198
0.00100694
0.000981916
0.000956892
0.000931872
0.000906858
0.000881849
0.000856845
0.000831846
0.000806852
0.000781863
0.000756878
0.000731898
0.000706921
0.000681947
0.000656974
0.000632003
0.000607033
0.000582063
0.000557092
0.000532119
0.000507144
0.000482166
0.000457184
0.000432197
0.000407206
0.000382208
0.000357204
0.000332193
0.000307175
0.000282151
0.000257118
0.000232077
0.000207028
0.000181972
0.000156908
0.000131837
0.000106762
8.16851e-05
5.66218e-05
3.16951e-05
4.90113e-06
0.00496027
0.00451389
0.00410579
0.00377495
0.00348249
0.00321097
0.00296426
0.00274851
0.00256612
0.00241667
0.00229795
0.00220644
0.0021377
0.00208692
0.00204945
0.00202121
0.00199889
0.00197999
0.00196272
0.00194592
0.00192889
0.00191125
0.00189282
0.00187358
0.00185358
0.00183289
0.0018116
0.00178979
0.00176755
0.00174494
0.00172201
0.00169881
0.00167538
0.00165173
0.0016279
0.00160391
0.00157978
0.00155552
0.00153114
0.00150666
0.00148209
0.00145744
0.00143272
0.00140794
0.0013831
0.00135822
0.0013333
0.00130834
0.00128336
0.00125835
0.00123332
0.00120828
0.00118323
0.00115817
0.00113311
0.00110804
0.00108298
0.00105791
0.00103285
0.00100779
0.000982733
0.000957683
0.000932639
0.000907601
0.00088257
0.000857544
0.000832525
0.000807512
0.000782504
0.000757501
0.000732504
0.00070751
0.00068252
0.000657532
0.000632546
0.000607562
0.000582578
0.000557594
0.000532608
0.000507621
0.000482631
0.000457637
0.000432639
0.000407637
0.000382629
0.000357615
0.000332594
0.000307567
0.000282533
0.000257492
0.000232443
0.000207385
0.000182321
0.000157249
0.000132171
0.000107089
8.20062e-05
5.69419e-05
3.21098e-05
4.82347e-06
0.0047652
0.00442364
0.00407084
0.00376336
0.00348689
0.00322949
0.00299379
0.00278528
0.0026066
0.0024578
0.00233733
0.00224238
0.00216926
0.00211376
0.00207174
0.00203941
0.00201362
0.0019919
0.00197244
0.00195396
0.00193567
0.00191708
0.00189794
0.00187816
0.00185773
0.00183669
0.00181511
0.00179305
0.00177059
0.00174777
0.00172466
0.00170129
0.0016777
0.00165391
0.00162995
0.00160584
0.0015816
0.00155723
0.00153276
0.00150819
0.00148354
0.00145882
0.00143403
0.00140918
0.00138428
0.00135935
0.00133437
0.00130937
0.00128434
0.00125929
0.00123423
0.00120915
0.00118407
0.00115897
0.00113388
0.00110879
0.00108369
0.0010586
0.00103351
0.00100843
0.000983354
0.000958284
0.000933221
0.000908165
0.000883115
0.000858073
0.000833038
0.000808009
0.000782987
0.000757971
0.000732959
0.000707953
0.00068295
0.000657951
0.000632954
0.000607959
0.000582964
0.00055797
0.000532975
0.000507978
0.000482979
0.000457977
0.00043297
0.00040796
0.000382944
0.000357922
0.000332894
0.00030786
0.000282819
0.000257771
0.000232715
0.000207652
0.000182581
0.000157503
0.000132419
0.00010733
8.22382e-05
5.71604e-05
3.22032e-05
3.80991e-06
0.00458796
0.00431827
0.00401709
0.00373898
0.0034841
0.00324544
0.00302474
0.0028268
0.00265449
0.00250845
0.00238774
0.00229032
0.00221322
0.00215297
0.00210596
0.00206882
0.00203866
0.00201311
0.00199039
0.0019692
0.00194867
0.00192826
0.00190764
0.00188664
0.00186521
0.00184335
0.00182107
0.00179843
0.00177546
0.00175222
0.00172873
0.00170503
0.00168114
0.00165709
0.0016329
0.00160858
0.00158415
0.00155962
0.00153499
0.00151029
0.00148551
0.00146067
0.00143577
0.00141083
0.00138584
0.00136082
0.00133577
0.0013107
0.0012856
0.00126049
0.00123537
0.00121024
0.00118511
0.00115997
0.00113484
0.0011097
0.00108457
0.00105944
0.00103432
0.00100921
0.000984103
0.000959005
0.000933915
0.000908834
0.000883761
0.000858697
0.00083364
0.000808592
0.00078355
0.000758515
0.000733487
0.000708464
0.000683445
0.000658431
0.000633419
0.00060841
0.000583403
0.000558396
0.000533388
0.00050838
0.000483369
0.000458356
0.00043334
0.000408319
0.000383293
0.000358262
0.000333225
0.000308182
0.000283133
0.000258077
0.000233013
0.000207942
0.000182864
0.000157778
0.000132686
0.000107585
8.24737e-05
5.73392e-05
3.20316e-05
2.19984e-06
0.00442903
0.00421265
0.00395897
0.00371173
0.00347897
0.00325878
0.00305313
0.00286632
0.00270136
0.00255927
0.00243962
0.00234091
0.00226082
0.00219649
0.00214489
0.00210308
0.00206846
0.00203887
0.00201261
0.00198839
0.00196532
0.00194279
0.00192041
0.00189796
0.00187532
0.00185243
0.00182929
0.0018059
0.00178228
0.00175846
0.00173446
0.00171031
0.00168602
0.0016616
0.00163708
0.00161246
0.00158775
0.00156297
0.00153812
0.00151321
0.00148824
0.00146323
0.00143817
0.00141308
0.00138797
0.00136282
0.00133766
0.00131248
0.00128729
0.0012621
0.00123689
0.00121169
0.00118648
0.00116128
0.00113608
0.00111089
0.00108571
0.00106053
0.00103536
0.00101021
0.00098506
0.000959923
0.000934797
0.000909682
0.000884576
0.000859481
0.000834396
0.00080932
0.000784252
0.000759193
0.000734141
0.000709096
0.000684056
0.000659021
0.000633991
0.000608963
0.000583938
0.000558914
0.000533891
0.000508867
0.000483842
0.000458814
0.000433784
0.00040875
0.000383712
0.000358669
0.00033362
0.000308566
0.000283506
0.000258439
0.000233365
0.000208284
0.000183196
0.000158101
0.000132997
0.000107879
8.27298e-05
5.7478e-05
3.16585e-05
4.81916e-07
0.00429168
0.00411375
0.00389953
0.00368095
0.00346934
0.00326678
0.00307589
0.00290051
0.00274359
0.00260641
0.00248889
0.00239002
0.00230799
0.00224052
0.00218507
0.00213916
0.00210048
0.00206709
0.0020374
0.00201018
0.00198452
0.00195978
0.00193554
0.00191152
0.00188753
0.0018635
0.00183937
0.00181511
0.00179074
0.00176625
0.00174165
0.00171696
0.00169218
0.00166733
0.0016424
0.00161742
0.00159238
0.00156729
0.00154216
0.00151699
0.00149179
0.00146656
0.0014413
0.00141603
0.00139074
0.00136544
0.00134013
0.00131482
0.0012895
0.00126419
0.00123888
0.00121357
0.00118827
0.00116299
0.00113771
0.00111244
0.00108718
0.00106194
0.00103671
0.00101149
0.000986291
0.000961102
0.000935927
0.000910766
0.000885618
0.000860482
0.000835357
0.000810245
0.000785142
0.00076005
0.000734967
0.000709892
0.000684824
0.000659763
0.000634707
0.000609655
0.000584606
0.00055956
0.000534516
0.000509472
0.000484427
0.000459381
0.000434333
0.000409282
0.000384227
0.000359168
0.000334104
0.000309035
0.000283961
0.00025888
0.000233793
0.0002087
0.000183599
0.00015849
0.00013337
0.000108227
8.30235e-05
5.76098e-05
3.12609e-05
-7.28441e-07
0.00417253
0.00402205
0.00383946
0.00364679
0.00345542
0.00326984
0.00309333
0.00292939
0.00278082
0.00264906
0.0025344
0.00243618
0.00235308
0.0022833
0.00222476
0.00217535
0.0021331
0.00209626
0.00206337
0.00203328
0.0020051
0.00197819
0.00195206
0.00192642
0.00190105
0.00187581
0.00185064
0.00182547
0.00180029
0.00177509
0.00174985
0.00172458
0.00169927
0.00167394
0.00164858
0.0016232
0.00159779
0.00157236
0.00154692
0.00152147
0.001496
0.00147052
0.00144504
0.00141956
0.00139408
0.0013686
0.00134312
0.00131765
0.00129219
0.00126674
0.0012413
0.00121588
0.00119047
0.00116508
0.0011397
0.00111434
0.001089
0.00106368
0.00103837
0.00101309
0.000987818
0.000962566
0.000937332
0.000912114
0.000886913
0.000861726
0.000836554
0.000811396
0.000786251
0.000761118
0.000735997
0.000710885
0.000685782
0.000660687
0.000635599
0.000610517
0.000585439
0.000560365
0.000535294
0.000510224
0.000485155
0.000460086
0.000435015
0.000409942
0.000384867
0.000359787
0.000334704
0.000309617
0.000284524
0.000259426
0.000234323
0.000209213
0.000184096
0.000158971
0.00013383
0.000108656
8.33886e-05
5.78119e-05
3.10766e-05
-9.07353e-07
0.00406826
0.0039379
0.00378055
0.00361077
0.00343837
0.00326889
0.00310608
0.00295325
0.00281304
0.00268701
0.00257569
0.00247878
0.00239534
0.00232398
0.00226303
0.00221073
0.00216539
0.00212549
0.00208969
0.00205694
0.00202637
0.00199734
0.00196938
0.00194213
0.00191536
0.00188891
0.00186267
0.00183657
0.00181056
0.00178461
0.0017587
0.00173283
0.00170698
0.00168115
0.00165533
0.00162953
0.00160373
0.00157795
0.00155218
0.00152642
0.00150068
0.00147494
0.00144922
0.00142351
0.00139782
0.00137215
0.00134649
0.00132086
0.00129524
0.00126964
0.00124407
0.00121852
0.00119299
0.00116748
0.001142
0.00111654
0.00109111
0.0010657
0.00104031
0.00101494
0.000989598
0.000964276
0.000938976
0.000913695
0.000888434
0.000863191
0.000837965
0.000812756
0.000787563
0.000762384
0.000737218
0.000712064
0.000686921
0.000661788
0.000636663
0.000611545
0.000586434
0.000561328
0.000536226
0.000511127
0.000486029
0.000460932
0.000435835
0.000410737
0.000385637
0.000360534
0.000335428
0.000310318
0.000285205
0.000260086
0.000234963
0.000209834
0.000184698
0.000159552
0.000134389
0.000109183
8.38568e-05
5.81649e-05
3.12948e-05
1.64355e-07
0.00397631
0.00386122
0.00372404
0.00357403
0.00341898
0.00326451
0.00311461
0.00297245
0.0028405
0.00272037
0.00261279
0.00251773
0.00243457
0.00236228
0.00229953
0.00224491
0.00219696
0.00215437
0.00211597
0.00208076
0.00204795
0.00201691
0.00198716
0.00195834
0.00193019
0.00190253
0.00187521
0.00184816
0.0018213
0.00179459
0.001768
0.0017415
0.00171509
0.00168874
0.00166245
0.00163622
0.00161003
0.00158388
0.00155777
0.0015317
0.00150566
0.00147966
0.00145369
0.00142775
0.00140184
0.00137597
0.00135012
0.00132431
0.00129853
0.00127278
0.00124707
0.00122138
0.00119573
0.0011701
0.00114451
0.00111895
0.00109341
0.00106791
0.00104243
0.00101699
0.000991564
0.000966169
0.000940798
0.000915452
0.000890127
0.000864825
0.000839542
0.000814279
0.000789034
0.000763805
0.000738592
0.000713394
0.000688208
0.000663033
0.000637869
0.000612714
0.000587566
0.000562425
0.00053729
0.000512158
0.00048703
0.000461903
0.000436777
0.000411651
0.000386524
0.000361395
0.000336264
0.00031113
0.000285993
0.000260851
0.000235706
0.000210555
0.000185398
0.000160232
0.000135045
0.000109811
8.44462e-05
5.87192e-05
3.19859e-05
2.33454e-06
0.00389467
0.00379154
0.00367055
0.00353742
0.00339794
0.00325731
0.00311948
0.00298746
0.00286358
0.00274943
0.00264587
0.00255308
0.00247073
0.00239808
0.00233411
0.00227766
0.00222756
0.00218267
0.00214195
0.00210452
0.00206964
0.0020367
0.00200524
0.00197489
0.00194538
0.0019165
0.00188811
0.0018601
0.00183238
0.00180489
0.00177761
0.00175048
0.00172349
0.00169661
0.00166984
0.00164316
0.00161656
0.00159004
0.00156358
0.00153719
0.00151085
0.00148457
0.00145835
0.00143217
0.00140604
0.00137996
0.00135392
0.00132793
0.00130198
0.00127608
0.00125021
0.00122439
0.00119861
0.00117286
0.00114716
0.00112149
0.00109585
0.00107025
0.00104469
0.00101916
0.000993655
0.000968184
0.000942741
0.000917326
0.000891937
0.000866573
0.000841232
0.000815913
0.000790615
0.000765336
0.000740075
0.00071483
0.0006896
0.000664383
0.000639178
0.000613984
0.000588799
0.000563622
0.000538452
0.000513287
0.000488126
0.000462968
0.000437812
0.000412657
0.000387502
0.000362346
0.000337188
0.000312028
0.000286866
0.0002617
0.000236531
0.000211358
0.00018618
0.000160992
0.000135785
0.00011053
8.51557e-05
5.94777e-05
3.30913e-05
5.1759e-06
0.00382173
0.00372825
0.00362039
0.00350156
0.00337589
0.00324788
0.00312123
0.00299878
0.00288268
0.00277449
0.00267513
0.00258496
0.00250386
0.00243134
0.00236664
0.00230887
0.00225704
0.0022102
0.00216747
0.00212805
0.00209126
0.00205655
0.00202347
0.00199165
0.00196081
0.00193074
0.00190129
0.00187231
0.00184373
0.00181546
0.00178746
0.00175969
0.00173211
0.0017047
0.00167744
0.0016503
0.00162329
0.00159638
0.00156956
0.00154284
0.0015162
0.00148963
0.00146314
0.00143672
0.00141036
0.00138407
0.00135784
0.00133166
0.00130554
0.00127948
0.00125346
0.0012275
0.00120158
0.00117571
0.00114989
0.00112411
0.00109838
0.00107268
0.00104702
0.00102141
0.000995823
0.000970275
0.000944759
0.000919275
0.000893821
0.000868394
0.000842994
0.000817619
0.000792267
0.000766937
0.000741627
0.000716335
0.00069106
0.0006658
0.000640554
0.00061532
0.000590098
0.000564884
0.000539679
0.00051448
0.000489287
0.000464097
0.000438911
0.000413726
0.000388542
0.000363358
0.000338173
0.000312987
0.000287799
0.000262609
0.000237416
0.00021222
0.00018702
0.000161812
0.000136587
0.000111324
8.59664e-05
6.0402e-05
3.4467e-05
8.18266e-06
0.00375623
0.00367071
0.00357365
0.00346692
0.00335338
0.00323675
0.00312037
0.00300686
0.0028982
0.00279586
0.00270081
0.00261352
0.00253403
0.00246207
0.00239709
0.00233842
0.00228526
0.00223683
0.00219237
0.0021512
0.0021127
0.00207636
0.00204176
0.00200853
0.00197642
0.00194519
0.00191468
0.00188475
0.0018553
0.00182625
0.00179753
0.00176911
0.00174093
0.00171297
0.0016852
0.00165761
0.00163016
0.00160286
0.00157568
0.00154861
0.00152166
0.00149481
0.00146805
0.00144137
0.00141478
0.00138827
0.00136184
0.00133547
0.00130918
0.00128295
0.00125678
0.00123067
0.00120462
0.00117863
0.00115269
0.0011268
0.00110095
0.00107516
0.00104941
0.0010237
0.000998039
0.000972413
0.000946824
0.00092127
0.000895749
0.000870259
0.000844799
0.000819367
0.000793961
0.000768579
0.00074322
0.000717881
0.000692561
0.000667258
0.00064197
0.000616697
0.000591436
0.000566186
0.000540945
0.000515713
0.000490486
0.000465265
0.000440048
0.000414834
0.000389621
0.000364409
0.000339197
0.000313984
0.000288771
0.000263556
0.000238339
0.00021312
0.000187898
0.000162671
0.000137433
0.000112169
8.68491e-05
6.1431e-05
3.59479e-05
1.09445e-05
0.00369715
0.00361834
0.00353025
0.00343378
0.00333083
0.00322438
0.00311738
0.00301215
0.00291053
0.00281388
0.00272316
0.00263891
0.00256133
0.00249028
0.00242542
0.00236624
0.00231212
0.00226244
0.00221655
0.00217386
0.00213384
0.00209602
0.00206
0.00202546
0.00199212
0.00195976
0.00192822
0.00189735
0.00186704
0.00183721
0.00180777
0.00177869
0.00174991
0.00172139
0.00169312
0.00166505
0.00163717
0.00160946
0.00158191
0.0015545
0.00152722
0.00150007
0.00147304
0.00144611
0.00141928
0.00139255
0.0013659
0.00133935
0.00131287
0.00128647
0.00126015
0.00123389
0.00120771
0.00118158
0.00115552
0.00112952
0.00110357
0.00107768
0.00105183
0.00102604
0.00100029
0.000974581
0.000948917
0.000923292
0.000897704
0.00087215
0.00084663
0.00082114
0.000795679
0.000770245
0.000744836
0.00071945
0.000694085
0.000668738
0.000643409
0.000618096
0.000592797
0.00056751
0.000542234
0.000516967
0.000491708
0.000466455
0.000441207
0.000415963
0.000390721
0.000365481
0.000340242
0.000315002
0.000289763
0.000264523
0.000239282
0.000214039
0.000188797
0.000163552
0.000138303
0.000113045
8.77721e-05
6.25016e-05
3.73965e-05
1.32303e-05
0.0036437
0.0035706
0.00349006
0.00340233
0.00330858
0.00321119
0.00311266
0.00301508
0.00292005
0.00282886
0.00274243
0.00266134
0.00258588
0.00251604
0.00245163
0.00239229
0.00233755
0.00228692
0.00223987
0.0021959
0.00215455
0.0021154
0.00207809
0.00204232
0.00200783
0.0019744
0.00194186
0.00191007
0.00187891
0.0018483
0.00181815
0.00178841
0.00175902
0.00172995
0.00170115
0.0016726
0.00164428
0.00161617
0.00158823
0.00156048
0.00153287
0.00150542
0.0014781
0.00145091
0.00142384
0.00139688
0.00137003
0.00134327
0.00131661
0.00129004
0.00126356
0.00123715
0.00121083
0.00118457
0.00115839
0.00113227
0.00110621
0.00108021
0.00105427
0.00102839
0.00100255
0.000976768
0.000951028
0.000925331
0.000899675
0.000874057
0.000848476
0.000822928
0.000797412
0.000771925
0.000746466
0.000721032
0.000695621
0.000670231
0.00064486
0.000619506
0.000594169
0.000568845
0.000543533
0.000518232
0.00049294
0.000467655
0.000442377
0.000417102
0.000391832
0.000366563
0.000341296
0.00031603
0.000290765
0.000265499
0.000240234
0.000214968
0.000189705
0.000164443
0.000139185
0.000113935
8.8707e-05
6.35616e-05
3.87238e-05
1.49813e-05
0.00359519
0.00352704
0.00345292
0.00337265
0.00328689
0.00319751
0.00310662
0.00301601
0.00292713
0.00284114
0.00275889
0.00268101
0.00260782
0.00253942
0.00247574
0.00241654
0.00236148
0.00231019
0.00226224
0.00221721
0.00217472
0.0021344
0.00209594
0.00205904
0.00202346
0.00198902
0.00195552
0.00192284
0.00189086
0.00185948
0.00182863
0.00179823
0.00176823
0.0017386
0.00170928
0.00168025
0.00165149
0.00162295
0.00159464
0.00156652
0.00153859
0.00151083
0.00148323
0.00145577
0.00142845
0.00140126
0.00137419
0.00134724
0.00132039
0.00129364
0.001267
0.00124044
0.00121397
0.00118758
0.00116127
0.00113504
0.00110887
0.00108277
0.00105673
0.00103075
0.00100483
0.000978966
0.000953149
0.00092738
0.000901655
0.000875972
0.000850328
0.000824722
0.00079915
0.000773611
0.000748101
0.000722618
0.000697161
0.000671727
0.000646315
0.000620921
0.000595545
0.000570184
0.000544837
0.000519501
0.000494176
0.000468859
0.000443549
0.000418245
0.000392945
0.000367648
0.000342353
0.00031706
0.000291769
0.000266478
0.000241187
0.000215899
0.000190614
0.000165335
0.000140067
0.000114822
8.96304e-05
6.4574e-05
3.98881e-05
1.62535e-05
0.0035511
0.00348726
0.00341864
0.00334477
0.00326594
0.00318362
0.00309957
0.00301531
0.00293211
0.00285101
0.00277281
0.00269812
0.00262729
0.00256051
0.00249779
0.00243898
0.00238387
0.00233218
0.00228356
0.0022377
0.00219426
0.00215293
0.00211343
0.00207551
0.00203894
0.00200354
0.00196914
0.00193561
0.00190283
0.0018707
0.00183915
0.00180811
0.00177751
0.00174732
0.00171748
0.00168797
0.00165875
0.00162981
0.0016011
0.00157263
0.00154436
0.00151629
0.00148839
0.00146067
0.0014331
0.00140567
0.00137838
0.00135123
0.00132419
0.00129727
0.00127046
0.00124374
0.00121713
0.00119061
0.00116417
0.00113781
0.00111154
0.00108533
0.0010592
0.00103313
0.00100712
0.000981168
0.000955273
0.00092943
0.000903636
0.000877887
0.000852182
0.000826516
0.000800888
0.000775295
0.000749735
0.000724204
0.000698701
0.000673222
0.000647767
0.000622333
0.000596918
0.00057152
0.000546137
0.000520768
0.000495409
0.00047006
0.000444719
0.000419385
0.000394055
0.00036873
0.000343407
0.000318087
0.000292769
0.000267452
0.000242136
0.000216824
0.000191517
0.000166219
0.00014094
0.000115695
9.05247e-05
6.55162e-05
4.08821e-05
1.71518e-05
0.00351095
0.0034509
0.00338702
0.00331868
0.00324588
0.00316977
0.00309181
0.00301329
0.00293531
0.00285878
0.00278445
0.00271288
0.00264446
0.00257942
0.00251783
0.00245963
0.0024047
0.00235283
0.00230378
0.00225728
0.00221307
0.00217088
0.00213048
0.00209165
0.00205417
0.00201789
0.00198264
0.0019483
0.00191475
0.0018819
0.00184967
0.00181799
0.0017868
0.00175606
0.00172571
0.00169571
0.00166605
0.00163669
0.0016076
0.00157876
0.00155015
0.00152177
0.00149358
0.00146558
0.00143776
0.0014101
0.00138259
0.00135523
0.001328
0.0013009
0.00127392
0.00124705
0.00122029
0.00119363
0.00116707
0.00114059
0.0011142
0.00108789
0.00106166
0.00103549
0.0010094
0.000983365
0.000957392
0.000931476
0.000905612
0.000879797
0.000854029
0.000828304
0.00080262
0.000776974
0.000751362
0.000725783
0.000700233
0.000674711
0.000649214
0.000623739
0.000598286
0.00057285
0.000547432
0.000522027
0.000496636
0.000471254
0.000445882
0.000420518
0.000395159
0.000369805
0.000344454
0.000319107
0.000293761
0.000268418
0.000243077
0.00021774
0.00019241
0.000167092
0.000141797
0.000116545
9.1378e-05
6.63782e-05
4.17191e-05
1.77838e-05
0.00347439
0.00341768
0.00335792
0.00329435
0.0032268
0.00315614
0.00308358
0.00301023
0.00293702
0.00286473
0.00279406
0.00272552
0.00265951
0.00259628
0.00253594
0.00247853
0.00242396
0.00237212
0.00232283
0.00227588
0.00223107
0.00218818
0.00214701
0.00210737
0.00206908
0.00203198
0.00199595
0.00196084
0.00192657
0.00189303
0.00186014
0.00182785
0.00179608
0.00176479
0.00173393
0.00170346
0.00167335
0.00164357
0.00161409
0.00158489
0.00155595
0.00152725
0.00149877
0.0014705
0.00144242
0.00141452
0.0013868
0.00135923
0.00133181
0.00130453
0.00127738
0.00125035
0.00122345
0.00119665
0.00116995
0.00114336
0.00111686
0.00109044
0.00106411
0.00103785
0.00101166
0.000985549
0.000959497
0.000933507
0.000907573
0.000881692
0.000855862
0.000830078
0.000804337
0.000778637
0.000752975
0.000727347
0.000701752
0.000676185
0.000650646
0.000625131
0.000599639
0.000574167
0.000548712
0.000523274
0.000497849
0.000472436
0.000447033
0.000421638
0.00039625
0.000370867
0.000345489
0.000320113
0.000294741
0.000269371
0.000244003
0.00021864
0.000193286
0.000167945
0.00014263
0.000117362
9.21806e-05
6.7156e-05
4.24195e-05
1.82342e-05
0.0034411
0.00338735
0.00333117
0.00327175
0.00320876
0.00314288
0.00307512
0.00300639
0.0029375
0.00286912
0.00280187
0.00273623
0.00267258
0.00261118
0.0025522
0.00249569
0.00244165
0.00239
0.00234064
0.00229341
0.00224815
0.0022047
0.00216289
0.00212255
0.00208354
0.00204572
0.00200896
0.00197315
0.00193819
0.00190399
0.00187048
0.00183759
0.00180526
0.00177344
0.00174208
0.00171115
0.0016806
0.00165041
0.00162055
0.001591
0.00156172
0.00153271
0.00150394
0.00147539
0.00144706
0.00141893
0.00139098
0.0013632
0.00133559
0.00130813
0.00128081
0.00125363
0.00122658
0.00119964
0.00117282
0.0011461
0.00111949
0.00109297
0.00106653
0.00104018
0.00101391
0.000987712
0.000961582
0.000935518
0.000909515
0.000883568
0.000857676
0.000831833
0.000806036
0.000780283
0.00075457
0.000728895
0.000703253
0.000677643
0.000652062
0.000626507
0.000600977
0.000575467
0.000549978
0.000524505
0.000499047
0.000473602
0.000448168
0.000422744
0.000397326
0.000371915
0.000346508
0.000321105
0.000295706
0.000270308
0.000244914
0.000219524
0.000194143
0.000168776
0.000143436
0.000118143
9.29303e-05
6.78547e-05
4.30085e-05
1.85639e-05
0.0034108
0.00335968
0.00330664
0.00325082
0.00319181
0.00313012
0.0030666
0.00300201
0.00293702
0.00287223
0.00280816
0.00274527
0.00268391
0.00262435
0.00256676
0.00251126
0.00245786
0.00240655
0.00235725
0.00230988
0.00226432
0.00222044
0.0021781
0.00213717
0.00209753
0.00205906
0.00202164
0.00198517
0.00194958
0.00191476
0.00188066
0.0018472
0.00181433
0.00178199
0.00175015
0.00171876
0.00168778
0.00165719
0.00162695
0.00159704
0.00156743
0.00153811
0.00150905
0.00148024
0.00145165
0.00142328
0.00139511
0.00136713
0.00133933
0.00131169
0.0012842
0.00125686
0.00122966
0.00120259
0.00117564
0.00114881
0.00112208
0.00109545
0.00106892
0.00104248
0.00101612
0.000989835
0.000963629
0.000937491
0.000911419
0.000885408
0.000859453
0.000833552
0.0008077
0.000781895
0.000756132
0.000730408
0.000704722
0.000679068
0.000653446
0.000627852
0.000602284
0.000576738
0.000551214
0.000525707
0.000500217
0.000474741
0.000449276
0.000423822
0.000398376
0.000372937
0.000347502
0.000322071
0.000296644
0.000271219
0.000245797
0.00022038
0.00019497
0.000169575
0.000144204
0.000118876
9.36186e-05
6.84732e-05
4.35018e-05
1.88022e-05
0.00337814
0.00332978
0.00327999
0.00322788
0.00317297
0.00311563
0.00305652
0.00299628
0.00293544
0.00287451
0.00281392
0.00275408
0.00269532
0.00263789
0.00258199
0.00252774
0.00247522
0.00242444
0.00237539
0.00232802
0.00228225
0.002238
0.00219518
0.00215368
0.0021134
0.00207425
0.00203614
0.00199898
0.00196269
0.00192719
0.00189243
0.00185833
0.00182485
0.00179193
0.00175954
0.00172762
0.00169615
0.0016651
0.00163442
0.0016041
0.00157411
0.00154443
0.00151503
0.0014859
0.00145702
0.00142838
0.00139995
0.00137173
0.0013437
0.00131585
0.00128817
0.00126065
0.00123328
0.00120605
0.00117895
0.00115197
0.00112511
0.00109836
0.00107171
0.00104516
0.0010187
0.000992321
0.000966024
0.000939801
0.000913648
0.00088756
0.000861534
0.000835564
0.000809648
0.000783781
0.000757959
0.00073218
0.000706441
0.000680737
0.000655066
0.000629426
0.000603813
0.000578226
0.00055266
0.000527114
0.000501586
0.000476073
0.000450573
0.000425084
0.000399604
0.000374131
0.000348663
0.0003232
0.000297739
0.000272282
0.000246826
0.000221374
0.000195928
0.000170493
0.000145079
0.0001197
9.43763e-05
6.91325e-05
4.40063e-05
1.90121e-05
0.00334444
0.00329884
0.00325225
0.00320377
0.00315285
0.00309975
0.003045
0.00298909
0.00293244
0.00287545
0.00281849
0.00276189
0.00270596
0.00265092
0.00259697
0.00254426
0.00249288
0.00244289
0.0023943
0.00234712
0.00230132
0.00225685
0.00221365
0.00217165
0.00213079
0.002091
0.0020522
0.00201433
0.00197732
0.00194111
0.00190564
0.00187086
0.00183671
0.00180316
0.00177015
0.00173766
0.00170563
0.00167405
0.00164289
0.0016121
0.00158167
0.00155158
0.0015218
0.00149231
0.00146309
0.00143413
0.00140541
0.00137691
0.00134863
0.00132054
0.00129263
0.0012649
0.00123733
0.00120992
0.00118265
0.00115551
0.0011285
0.00110161
0.00107482
0.00104815
0.00102157
0.000995083
0.000968683
0.000942363
0.000916118
0.000889944
0.000863836
0.000837789
0.000811799
0.000785863
0.000759975
0.000734134
0.000708334
0.000682574
0.000656849
0.000631157
0.000605495
0.000579859
0.000554248
0.000528658
0.000503087
0.000477533
0.000451993
0.000426465
0.000400946
0.000375436
0.000349931
0.00032443
0.000298931
0.000273435
0.000247939
0.000222444
0.000196952
0.000171466
0.000145993
0.000120541
9.51231e-05
6.97502e-05
4.44426e-05
1.91783e-05
0.00331394
0.0032708
0.00322701
0.00318169
0.00313425
0.00308486
0.00303392
0.00298184
0.00292893
0.0028755
0.00282186
0.00276829
0.00271503
0.00266231
0.00261032
0.00255919
0.00250904
0.00245995
0.00241198
0.00236515
0.00231947
0.00227492
0.00223149
0.00218913
0.00214782
0.00210749
0.0020681
0.0020296
0.00199194
0.00195507
0.00191894
0.0018835
0.00184872
0.00181455
0.00178095
0.00174788
0.00171531
0.00168322
0.00165156
0.00162031
0.00158944
0.00155894
0.00152877
0.00149891
0.00146936
0.00144007
0.00141105
0.00138228
0.00135373
0.00132539
0.00129726
0.00126931
0.00124154
0.00121394
0.00118649
0.00115919
0.00113203
0.00110499
0.00107807
0.00105127
0.00102457
0.000997971
0.000971465
0.000945045
0.000918705
0.000892442
0.000866249
0.000840123
0.000814057
0.000788049
0.000762093
0.000736187
0.000710326
0.000684506
0.000658725
0.000632979
0.000607265
0.00058158
0.000555921
0.000530286
0.00050467
0.000479073
0.000453491
0.000427922
0.000402363
0.000376812
0.000351267
0.000325726
0.000300187
0.000274648
0.000249107
0.000223564
0.000198018
0.000172471
0.000146925
0.000121385
9.58542e-05
7.03382e-05
4.48496e-05
1.93495e-05
0.00328709
0.00324605
0.00320463
0.00316195
0.00311741
0.00307111
0.00302337
0.00297451
0.00292479
0.00287443
0.00282369
0.00277279
0.00272194
0.00267135
0.00262118
0.00257158
0.00252267
0.00247454
0.00242726
0.00238089
0.00233546
0.00229098
0.00224746
0.00220488
0.00216324
0.0021225
0.00208264
0.00204362
0.00200541
0.00196797
0.00193126
0.00189524
0.00185989
0.00182515
0.001791
0.00175741
0.00172434
0.00169176
0.00165964
0.00162795
0.00159667
0.00156578
0.00153524
0.00150504
0.00147516
0.00144557
0.00141627
0.00138722
0.00135843
0.00132986
0.00130151
0.00127336
0.0012454
0.00121761
0.00119
0.00116254
0.00113523
0.00110806
0.00108101
0.00105409
0.00102728
0.00100057
0.000973966
0.000947452
0.000921025
0.000894678
0.000868407
0.000842206
0.000816071
0.000789996
0.000763978
0.000738011
0.000712093
0.00068622
0.000660387
0.000634592
0.000608831
0.000583101
0.000557398
0.000531721
0.000506065
0.000480428
0.000454808
0.000429201
0.000403605
0.000378018
0.000352436
0.000326857
0.000301279
0.000275698
0.000250113
0.00022452
0.000198918
0.000173304
0.000147678
0.000122037
9.63838e-05
7.07188e-05
4.50612e-05
1.93894e-05
0.00326513
0.00322582
0.00318632
0.00314577
0.00310356
0.00305974
0.00301458
0.00296834
0.00292121
0.00287338
0.00282504
0.00277639
0.0027276
0.00267886
0.00263031
0.00258209
0.00253432
0.00248711
0.00244054
0.00239467
0.00234956
0.00230524
0.00226173
0.00221905
0.0021772
0.00213617
0.00209595
0.00205652
0.00201786
0.00197995
0.00194275
0.00190624
0.00187039
0.00183516
0.00180053
0.00176647
0.00173294
0.00169992
0.00166738
0.0016353
0.00160364
0.00157239
0.00154151
0.00151099
0.00148081
0.00145094
0.00142137
0.00139207
0.00136304
0.00133425
0.00130569
0.00127735
0.00124921
0.00122126
0.00119349
0.00116588
0.00113843
0.00111112
0.00108396
0.00105692
0.00103
0.00100319
0.000976486
0.000949882
0.000923369
0.000896942
0.000870594
0.000844321
0.000818117
0.000791977
0.000765897
0.000739872
0.000713898
0.000687971
0.000662087
0.000636243
0.000610435
0.00058466
0.000558914
0.000533194
0.000507498
0.000481822
0.000456163
0.000430518
0.000404885
0.00037926
0.000353641
0.000328024
0.000302405
0.000276782
0.00025115
0.000225504
0.000199841
0.000174153
0.000148437
0.000122684
9.68913e-05
7.10577e-05
4.52121e-05
1.93585e-05
0.00324851
0.00321045
0.00317234
0.00313332
0.00309277
0.00305073
0.00300742
0.00296306
0.00291781
0.00287182
0.00282525
0.00277826
0.00273102
0.00268368
0.00263637
0.00258923
0.00254238
0.00249592
0.00244994
0.00240451
0.00235971
0.00231557
0.00227213
0.00222942
0.00218746
0.00214625
0.0021058
0.00206609
0.00202712
0.00198887
0.00195131
0.00191444
0.00187822
0.00184262
0.00180763
0.00177321
0.00173934
0.00170599
0.00167313
0.00164074
0.00160879
0.00157726
0.00154613
0.00151536
0.00148494
0.00145486
0.00142508
0.00139559
0.00136638
0.00133743
0.00130871
0.00128022
0.00125194
0.00122386
0.00119597
0.00116825
0.00114069
0.00111329
0.00108603
0.0010589
0.0010319
0.00100502
0.000978242
0.000951571
0.000924995
0.000898508
0.000872104
0.000845778
0.000819524
0.000793336
0.000767211
0.000741144
0.000715129
0.000689164
0.000663244
0.000637364
0.000611523
0.000585716
0.000559939
0.000534189
0.000508464
0.00048276