/*--------------------------------*- C++ -*----------------------------------*\
| =========                 |                                                 |
| \\      /  F ield         | OpenFOAM: The Open Source CFD Toolbox           |
|  \\    /   O peration     | Version:  2.3.0                                 |
|   \\  /    A nd           | Web:      www.OpenFOAM.org                      |
|    \\/     M anipulation  |                                                 |
\*---------------------------------------------------------------------------*/
FoamFile
{
    version     2.0;
    format      ascii;
    class       volVectorField;
    location    "0.8";
    object      U;
}
// * * * * * * * * * * * * * * * * * * * * * * * * * * * * * * * * * * * * * //

dimensions      [0 1 -1 0 0 0 0];

internalField   nonuniform List<vector> 
3375
(
(0.175651 0.00438968 0)
(0.155161 0.00597596 0)
(0.136584 0.00611693 0)
(0.118463 0.00551685 0)
(0.100944 0.00472092 0)
(0.0848902 0.00383689 0)
(0.0713706 0.00286953 0)
(0.0607885 0.00184849 0)
(0.052945 0.000961782 0)
(0.0472955 0.000363289 0)
(0.0432697 4.60342e-05 0)
(0.0403952 -8.21719e-05 0)
(0.0382932 -0.000105397 0)
(0.0366812 -7.94399e-05 0)
(0.0353585 -3.58079e-05 0)
(0.0341988 6.8358e-06 0)
(0.033133 3.94586e-05 0)
(0.0321299 6.0217e-05 0)
(0.0311792 7.098e-05 0)
(0.0302793 7.46889e-05 0)
(0.0294312 7.40405e-05 0)
(0.0286353 7.10506e-05 0)
(0.0278902 6.70341e-05 0)
(0.0271935 6.27604e-05 0)
(0.0265418 5.86291e-05 0)
(0.025931 5.48116e-05 0)
(0.0253576 5.13501e-05 0)
(0.0248177 4.82315e-05 0)
(0.0243081 4.54163e-05 0)
(0.0238258 4.28658e-05 0)
(0.0233684 4.05388e-05 0)
(0.0229337 3.84064e-05 0)
(0.0225198 3.64382e-05 0)
(0.022125 3.46171e-05 0)
(0.0217479 3.29214e-05 0)
(0.0213872 3.13426e-05 0)
(0.0210419 2.98635e-05 0)
(0.0207107 2.84819e-05 0)
(0.0203931 2.7182e-05 0)
(0.0200878 2.59664e-05 0)
(0.0197945 2.48187e-05 0)
(0.019512 2.37458e-05 0)
(0.0192402 2.27291e-05 0)
(0.018978 2.17798e-05 0)
(0.0187253 2.08764e-05 0)
(0.0184811 2.00348e-05 0)
(0.0182455 1.92294e-05 0)
(0.0180174 1.84815e-05 0)
(0.0177971 1.77606e-05 0)
(0.0175834 1.70946e-05 0)
(0.0173769 1.64466e-05 0)
(0.0171762 1.58527e-05 0)
(0.0169821 1.52673e-05 0)
(0.0167931 1.4737e-05 0)
(0.0166104 1.42054e-05 0)
(0.016432 1.37315e-05 0)
(0.0162596 1.32463e-05 0)
(0.0160909 1.28228e-05 0)
(0.0159279 1.23773e-05 0)
(0.0157679 1.19997e-05 0)
(0.0156136 1.15875e-05 0)
(0.0154617 1.12522e-05 0)
(0.0153154 1.08677e-05 0)
(0.0151707 1.05718e-05 0)
(0.0150318 1.02102e-05 0)
(0.0148937 9.95122e-06 0)
(0.0147618 9.60778e-06 0)
(0.0146297 9.38447e-06 0)
(0.0145043 9.05432e-06 0)
(0.0143777 8.86657e-06 0)
(0.0142585 8.54472e-06 0)
(0.0141368 8.3928e-06 0)
(0.0140234 8.07495e-06 0)
(0.0139062 7.95941e-06 0)
(0.0137983 7.64077e-06 0)
(0.0136851 7.56394e-06 0)
(0.0135827 7.2385e-06 0)
(0.0134728 7.20413e-06 0)
(0.0133757 6.86621e-06 0)
(0.0132687 6.87802e-06 0)
(0.0131769 6.52151e-06 0)
(0.0130722 6.58511e-06 0)
(0.0129856 6.20174e-06 0)
(0.0128826 6.32588e-06 0)
(0.0128014 5.90591e-06 0)
(0.0126992 6.10086e-06 0)
(0.0126238 5.63388e-06 0)
(0.0125216 5.91179e-06 0)
(0.0124521 5.38369e-06 0)
(0.0123488 5.76408e-06 0)
(0.0122858 5.15527e-06 0)
(0.0121801 5.66248e-06 0)
(0.0121243 4.95086e-06 0)
(0.0120144 5.61849e-06 0)
(0.011967 4.76728e-06 0)
(0.0118503 5.65328e-06 0)
(0.0118131 4.60273e-06 0)
(0.0116855 5.80438e-06 0)
(0.011663 4.52767e-06 0)
(0.0115111 7.6214e-06 0)
(0.190873 0.00776591 0)
(0.189124 0.0108483 0)
(0.186656 0.0118906 0)
(0.182824 0.0117133 0)
(0.177356 0.0110792 0)
(0.17047 0.0101892 0)
(0.162812 0.00903315 0)
(0.154879 0.00761036 0)
(0.147051 0.00608169 0)
(0.139553 0.00466974 0)
(0.132518 0.00351434 0)
(0.126042 0.00264177 0)
(0.120171 0.00201579 0)
(0.11491 0.00158853 0)
(0.110212 0.00130774 0)
(0.106007 0.00112451 0)
(0.102221 0.00100017 0)
(0.0987899 0.000908775 0)
(0.0956601 0.000835119 0)
(0.0927883 0.000771282 0)
(0.09014 0.000713623 0)
(0.0876872 0.000660748 0)
(0.0854072 0.000612251 0)
(0.0832807 0.000568041 0)
(0.0812915 0.000528017 0)
(0.0794252 0.000491972 0)
(0.0776698 0.000459579 0)
(0.0760142 0.00043046 0)
(0.0744494 0.000404213 0)
(0.0729668 0.000380469 0)
(0.0715597 0.000358883 0)
(0.0702213 0.000339174 0)
(0.0689466 0.000321088 0)
(0.0677303 0.000304433 0)
(0.0665685 0.000289028 0)
(0.0654567 0.000274748 0)
(0.0643923 0.00026146 0)
(0.0633713 0.000249086 0)
(0.0623917 0.00023752 0)
(0.0614501 0.000226714 0)
(0.060545 0.000216578 0)
(0.0596732 0.000207087 0)
(0.0588341 0.000198157 0)
(0.0580242 0.000189782 0)
(0.0572437 0.000181876 0)
(0.056489 0.000174455 0)
(0.0557608 0.000167425 0)
(0.0550555 0.000160822 0)
(0.0543743 0.000154545 0)
(0.0537133 0.000148649 0)
(0.0530745 0.000143019 0)
(0.0524535 0.000137738 0)
(0.0518532 0.000132669 0)
(0.0512682 0.000127925 0)
(0.0507029 0.000123341 0)
(0.0501507 0.000119068 0)
(0.0496173 0.000114907 0)
(0.0490949 0.000111049 0)
(0.0485908 0.000107257 0)
(0.0480956 0.000103768 0)
(0.0476185 0.000100296 0)
(0.047148 9.71385e-05 0)
(0.0466958 9.39449e-05 0)
(0.0462479 9.10863e-05 0)
(0.045819 8.81352e-05 0)
(0.0453918 8.55471e-05 0)
(0.0449846 8.28059e-05 0)
(0.0445761 8.04664e-05 0)
(0.0441893 7.79044e-05 0)
(0.043798 7.57976e-05 0)
(0.0434306 7.33864e-05 0)
(0.0430548 7.1499e-05 0)
(0.0427059 6.92142e-05 0)
(0.042344 6.75355e-05 0)
(0.0420129 6.53534e-05 0)
(0.0416634 6.38795e-05 0)
(0.0413497 6.17742e-05 0)
(0.041011 6.05066e-05 0)
(0.0407143 5.84553e-05 0)
(0.0403848 5.73963e-05 0)
(0.0401051 5.53767e-05 0)
(0.039783 5.45352e-05 0)
(0.0395205 5.25206e-05 0)
(0.0392038 5.19156e-05 0)
(0.0389591 4.9877e-05 0)
(0.0386455 4.95324e-05 0)
(0.0384193 4.74419e-05 0)
(0.0381064 4.73869e-05 0)
(0.0378999 4.52097e-05 0)
(0.0375843 4.54952e-05 0)
(0.0373994 4.31862e-05 0)
(0.0370771 4.38743e-05 0)
(0.0369163 4.13931e-05 0)
(0.0365821 4.2564e-05 0)
(0.0364491 3.98532e-05 0)
(0.0360957 4.163e-05 0)
(0.0359966 3.86409e-05 0)
(0.0356124 4.12273e-05 0)
(0.0355585 3.79726e-05 0)
(0.0351207 4.52172e-05 0)
(0.19197 0.00748311 0)
(0.192391 0.0101048 0)
(0.193459 0.0116601 0)
(0.194527 0.0121434 0)
(0.194947 0.0120336 0)
(0.194416 0.0115952 0)
(0.192956 0.0108575 0)
(0.190694 0.00984068 0)
(0.187791 0.00865576 0)
(0.184406 0.00747143 0)
(0.180686 0.00642015 0)
(0.176779 0.00555289 0)
(0.172807 0.00485741 0)
(0.168867 0.00430425 0)
(0.16501 0.00386008 0)
(0.161256 0.00349537 0)
(0.157614 0.00318736 0)
(0.154087 0.0029204 0)
(0.150677 0.00268444 0)
(0.147385 0.00247326 0)
(0.14421 0.00228298 0)
(0.141154 0.00211106 0)
(0.138214 0.00195569 0)
(0.135391 0.00181542 0)
(0.132681 0.00168891 0)
(0.130082 0.00157485 0)
(0.12759 0.00147195 0)
(0.1252 0.00137898 0)
(0.122909 0.00129479 0)
(0.120712 0.00121833 0)
(0.118604 0.00114867 0)
(0.11658 0.001085 0)
(0.114636 0.00102659 0)
(0.112768 0.000972839 0)
(0.110971 0.000923225 0)
(0.109242 0.000877306 0)
(0.107577 0.000834686 0)
(0.105972 0.00079505 0)
(0.104425 0.000758095 0)
(0.102931 0.000723593 0)
(0.10149 0.000691303 0)
(0.100096 0.000661061 0)
(0.0987501 0.000632663 0)
(0.0974463 0.000605998 0)
(0.0961863 0.000580885 0)
(0.0949639 0.000557252 0)
(0.0937818 0.000534931 0)
(0.0926332 0.000513888 0)
(0.091522 0.000493958 0)
(0.0904405 0.000475143 0)
(0.089394 0.000457272 0)
(0.0883736 0.000440386 0)
(0.0873864 0.000424296 0)
(0.0864216 0.00040909 0)
(0.0854889 0.000394551 0)
(0.0845751 0.000380813 0)
(0.0836925 0.000367628 0)
(0.0828254 0.00035518 0)
(0.0819891 0.000343182 0)
(0.0811648 0.000331876 0)
(0.0803717 0.000320919 0)
(0.0795866 0.000310628 0)
(0.0788336 0.000300585 0)
(0.0780845 0.0002912 0)
(0.0773692 0.000281966 0)
(0.076653 0.000273391 0)
(0.0759731 0.000264869 0)
(0.0752871 0.000257026 0)
(0.0746409 0.000249131 0)
(0.0739823 0.000241955 0)
(0.0733682 0.000234611 0)
(0.0727346 0.000228046 0)
(0.0721512 0.000221187 0)
(0.07154 0.000215184 0)
(0.0709867 0.000208752 0)
(0.0703954 0.000203277 0)
(0.0698715 0.000197213 0)
(0.0692975 0.000192242 0)
(0.0688027 0.000186498 0)
(0.0682433 0.00018201 0)
(0.0677779 0.000176543 0)
(0.0672302 0.000172529 0)
(0.0667947 0.000167293 0)
(0.0662553 0.000163761 0)
(0.0658509 0.000158715 0)
(0.0653162 0.00015568 0)
(0.0649444 0.000150791 0)
(0.0644101 0.000148274 0)
(0.0640733 0.000143509 0)
(0.063534 0.000141561 0)
(0.0632356 0.000136888 0)
(0.0626849 0.000135568 0)
(0.0624294 0.000130991 0)
(0.0618588 0.000130365 0)
(0.0616526 0.000125906 0)
(0.061051 0.000126081 0)
(0.0609031 0.000121829 0)
(0.0602549 0.000123144 0)
(0.0601785 0.000119215 0)
(0.0594623 0.000126657 0)
(0.193006 0.00705856 0)
(0.193381 0.00895664 0)
(0.194454 0.0104396 0)
(0.196026 0.011165 0)
(0.19761 0.0113017 0)
(0.198845 0.0110837 0)
(0.199588 0.0106091 0)
(0.199817 0.00991841 0)
(0.19955 0.00907893 0)
(0.198826 0.0081981 0)
(0.197709 0.00737913 0)
(0.196284 0.00667916 0)
(0.194641 0.00610553 0)
(0.192857 0.00563613 0)
(0.190977 0.00524475 0)
(0.189029 0.00490991 0)
(0.187025 0.0046158 0)
(0.184974 0.00435136 0)
(0.182882 0.00410916 0)
(0.180755 0.00388441 0)
(0.178603 0.00367421 0)
(0.17643 0.00347684 0)
(0.174248 0.00329134 0)
(0.172061 0.00311708 0)
(0.169879 0.0029536 0)
(0.167707 0.00280041 0)
(0.165551 0.00265697 0)
(0.163415 0.00252271 0)
(0.161305 0.00239706 0)
(0.159223 0.00227941 0)
(0.157173 0.00216921 0)
(0.155157 0.0020659 0)
(0.153177 0.00196902 0)
(0.151233 0.00187806 0)
(0.149329 0.00179263 0)
(0.147462 0.00171231 0)
(0.145637 0.00163675 0)
(0.143849 0.00156559 0)
(0.142103 0.00149856 0)
(0.140394 0.00143535 0)
(0.138727 0.0013757 0)
(0.137095 0.00131937 0)
(0.135505 0.00126614 0)
(0.133948 0.0012158 0)
(0.132432 0.00116815 0)
(0.130947 0.00112302 0)
(0.129502 0.00108024 0)
(0.128085 0.00103966 0)
(0.126708 0.00100114 0)
(0.125356 0.00096454 0)
(0.124043 0.000929751 0)
(0.122753 0.000896652 0)
(0.121501 0.00086514 0)
(0.120268 0.000835124 0)
(0.119074 0.000806501 0)
(0.117895 0.000779207 0)
(0.116756 0.000753139 0)
(0.115628 0.000728255 0)
(0.11454 0.000704452 0)
(0.113459 0.000681711 0)
(0.112421 0.000659917 0)
(0.111384 0.000639088 0)
(0.110393 0.000619081 0)
(0.109397 0.000599959 0)
(0.10845 0.000581549 0)
(0.107493 0.000563954 0)
(0.106589 0.000546973 0)
(0.105666 0.000530751 0)
(0.104804 0.000515047 0)
(0.103913 0.000500065 0)
(0.103091 0.000485506 0)
(0.10223 0.000471647 0)
(0.101448 0.00045812 0)
(0.100613 0.000445279 0)
(0.0998687 0.000432686 0)
(0.0990571 0.000420776 0)
(0.0983519 0.000409024 0)
(0.0975604 0.000397979 0)
(0.0968942 0.000386994 0)
(0.0961193 0.000376746 0)
(0.0954928 0.00036647 0)
(0.0947307 0.00035697 0)
(0.0941453 0.000347347 0)
(0.0933918 0.000338568 0)
(0.0928494 0.000329554 0)
(0.0920995 0.000321474 0)
(0.0916028 0.000313052 0)
(0.0908508 0.000305651 0)
(0.0904036 0.000297816 0)
(0.0896426 0.000291114 0)
(0.0892497 0.000283874 0)
(0.0884713 0.000277893 0)
(0.0881388 0.000271326 0)
(0.0873328 0.000266102 0)
(0.0870688 0.0002603 0)
(0.086222 0.000256001 0)
(0.0860366 0.000251045 0)
(0.0851332 0.000248369 0)
(0.0850382 0.000244306 0)
(0.08406 0.000248155 0)
(0.19387 0.00676201 0)
(0.194217 0.00820762 0)
(0.19506 0.00948923 0)
(0.196376 0.0102699 0)
(0.197883 0.010523 0)
(0.199283 0.0104048 0)
(0.200418 0.0100468 0)
(0.201245 0.00952009 0)
(0.201764 0.00887806 0)
(0.201984 0.00818929 0)
(0.201929 0.00752816 0)
(0.201644 0.00694695 0)
(0.201187 0.00646273 0)
(0.200608 0.0060647 0)
(0.199945 0.0057331 0)
(0.199215 0.00545008 0)
(0.198426 0.00520221 0)
(0.197579 0.00497982 0)
(0.196674 0.00477608 0)
(0.195709 0.00458626 0)
(0.194688 0.00440728 0)
(0.193611 0.00423717 0)
(0.192482 0.00407483 0)
(0.191303 0.00391958 0)
(0.190081 0.00377105 0)
(0.188818 0.0036289 0)
(0.187519 0.00349291 0)
(0.186187 0.00336272 0)
(0.184829 0.00323813 0)
(0.183444 0.00311877 0)
(0.182041 0.00300445 0)
(0.180618 0.00289483 0)
(0.179184 0.00278977 0)
(0.177737 0.00268896 0)
(0.176285 0.00259231 0)
(0.174826 0.00249952 0)
(0.173367 0.00241054 0)
(0.171905 0.00232511 0)
(0.170449 0.00224321 0)
(0.168993 0.00216455 0)
(0.167548 0.00208917 0)
(0.166105 0.00201678 0)
(0.164678 0.00194742 0)
(0.163255 0.0018808 0)
(0.161851 0.001817 0)
(0.160452 0.00175569 0)
(0.159076 0.001697 0)
(0.157704 0.00164057 0)
(0.156359 0.00158657 0)
(0.155018 0.00153462 0)
(0.153706 0.00148492 0)
(0.152397 0.00143706 0)
(0.15112 0.0013913 0)
(0.149844 0.00134716 0)
(0.148603 0.00130499 0)
(0.147361 0.00126426 0)
(0.146158 0.00122537 0)
(0.144949 0.00118773 0)
(0.143784 0.00115183 0)
(0.142608 0.00111699 0)
(0.14148 0.00108381 0)
(0.140337 0.00105154 0)
(0.139248 0.00102084 0)
(0.138135 0.000990874 0)
(0.137084 0.000962445 0)
(0.136 0.000934575 0)
(0.134988 0.000908219 0)
(0.133932 0.000882247 0)
(0.132959 0.000857785 0)
(0.131929 0.000833537 0)
(0.130994 0.000810811 0)
(0.129988 0.000788123 0)
(0.129093 0.000766999 0)
(0.128108 0.000745717 0)
(0.127253 0.000726078 0)
(0.126287 0.000706073 0)
(0.125473 0.000687809 0)
(0.124523 0.000668967 0)
(0.123751 0.000651999 0)
(0.122813 0.000634206 0)
(0.122086 0.000618475 0)
(0.121157 0.000601634 0)
(0.120476 0.000587087 0)
(0.119551 0.000571128 0)
(0.11892 0.000557737 0)
(0.117993 0.000542592 0)
(0.117417 0.000530366 0)
(0.116481 0.000515969 0)
(0.115964 0.000504937 0)
(0.115013 0.000491276 0)
(0.114561 0.000481481 0)
(0.113586 0.000468563 0)
(0.113206 0.000460118 0)
(0.112195 0.000448019 0)
(0.111896 0.000440995 0)
(0.110838 0.000430049 0)
(0.110629 0.000424447 0)
(0.109508 0.000415659 0)
(0.109401 0.000411623 0)
(0.108201 0.000409023 0)
(0.194591 0.00652764 0)
(0.194926 0.0076953 0)
(0.195622 0.00877553 0)
(0.196685 0.00952964 0)
(0.197957 0.00985276 0)
(0.199218 0.00981664 0)
(0.200312 0.00954236 0)
(0.201184 0.00911758 0)
(0.201831 0.00859749 0)
(0.202266 0.0080313 0)
(0.202507 0.00747256 0)
(0.202585 0.00696585 0)
(0.20254 0.00653296 0)
(0.202412 0.00617276 0)
(0.202233 0.00587243 0)
(0.202018 0.00561734 0)
(0.201775 0.00539559 0)
(0.201503 0.00519834 0)
(0.201201 0.0050194 0)
(0.200864 0.00485425 0)
(0.200492 0.00469987 0)
(0.20008 0.00455405 0)
(0.199632 0.00441552 0)
(0.199144 0.00428324 0)
(0.198619 0.00415671 0)
(0.198055 0.00403535 0)
(0.197457 0.00391889 0)
(0.196821 0.00380683 0)
(0.196153 0.00369899 0)
(0.195448 0.00359488 0)
(0.194715 0.00349439 0)
(0.193948 0.00339706 0)
(0.193155 0.0033029 0)
(0.192331 0.00321146 0)
(0.191485 0.00312287 0)
(0.190609 0.00303667 0)
(0.189716 0.00295309 0)
(0.188795 0.00287166 0)
(0.187862 0.00279269 0)
(0.186903 0.0027157 0)
(0.185935 0.00264106 0)
(0.184944 0.00256825 0)
(0.183949 0.00249772 0)
(0.182931 0.00242889 0)
(0.181914 0.0023623 0)
(0.180876 0.00229726 0)
(0.179844 0.00223444 0)
(0.17879 0.00217303 0)
(0.177747 0.00211381 0)
(0.176682 0.00205587 0)
(0.175635 0.00200011 0)
(0.174563 0.00194547 0)
(0.173515 0.00189301 0)
(0.172441 0.0018415 0)
(0.171396 0.00179219 0)
(0.170322 0.00174364 0)
(0.169284 0.00169732 0)
(0.168213 0.00165157 0)
(0.167186 0.00160809 0)
(0.16612 0.00156496 0)
(0.165106 0.00152416 0)
(0.164047 0.00148349 0)
(0.16305 0.00144523 0)
(0.161998 0.00140684 0)
(0.161021 0.00137097 0)
(0.159977 0.00133469 0)
(0.159021 0.00130109 0)
(0.157986 0.00126676 0)
(0.157055 0.0012353 0)
(0.156028 0.00120277 0)
(0.155123 0.00117333 0)
(0.154104 0.00114243 0)
(0.153228 0.00111492 0)
(0.152215 0.00108551 0)
(0.151371 0.00105983 0)
(0.150363 0.00103177 0)
(0.149553 0.00100785 0)
(0.148549 0.000981012 0)
(0.147776 0.000958795 0)
(0.146772 0.000933044 0)
(0.146039 0.000912501 0)
(0.145032 0.000887718 0)
(0.144345 0.000868824 0)
(0.143331 0.000844918 0)
(0.142692 0.000827673 0)
(0.141666 0.000804555 0)
(0.141082 0.000789001 0)
(0.140038 0.000766588 0)
(0.139514 0.000752778 0)
(0.138445 0.000731067 0)
(0.137988 0.000719056 0)
(0.136887 0.000698092 0)
(0.136503 0.00068799 0)
(0.13536 0.000667931 0)
(0.135059 0.000659776 0)
(0.133863 0.000641121 0)
(0.133654 0.000634913 0)
(0.132392 0.000618776 0)
(0.132284 0.000614896 0)
(0.130943 0.000604229 0)
(0.195211 0.00631904 0)
(0.195532 0.00728981 0)
(0.196126 0.00819421 0)
(0.196996 0.00887642 0)
(0.198054 0.00922946 0)
(0.199145 0.00926561 0)
(0.200134 0.00907098 0)
(0.200952 0.00873051 0)
(0.201586 0.00830299 0)
(0.202044 0.00783094 0)
(0.20235 0.00735419 0)
(0.202525 0.00690816 0)
(0.202603 0.00651534 0)
(0.202613 0.00618115 0)
(0.202586 0.00589921 0)
(0.202537 0.00565854 0)
(0.202477 0.00544906 0)
(0.202405 0.00526286 0)
(0.202323 0.00509458 0)
(0.202224 0.00494018 0)
(0.202113 0.00479708 0)
(0.201981 0.00466309 0)
(0.201835 0.004537 0)
(0.201666 0.00441755 0)
(0.20148 0.00430423 0)
(0.201271 0.00419616 0)
(0.201045 0.00409316 0)
(0.200794 0.00399444 0)
(0.200526 0.00389995 0)
(0.200231 0.0038089 0)
(0.199921 0.00372138 0)
(0.199582 0.00363658 0)
(0.199229 0.00355476 0)
(0.198846 0.00347511 0)
(0.198449 0.00339802 0)
(0.198022 0.00332266 0)
(0.197583 0.0032496 0)
(0.197113 0.00317793 0)
(0.196633 0.00310839 0)
(0.19612 0.00303997 0)
(0.195602 0.00297356 0)
(0.195048 0.00290808 0)
(0.194492 0.00284457 0)
(0.193901 0.0027818 0)
(0.19331 0.002721 0)
(0.192682 0.00266076 0)
(0.19206 0.00260255 0)
(0.191399 0.0025447 0)
(0.190748 0.00248897 0)
(0.190055 0.00243342 0)
(0.18938 0.00238007 0)
(0.188658 0.00232672 0)
(0.187961 0.0022757 0)
(0.187214 0.00222448 0)
(0.186498 0.00217572 0)
(0.185727 0.00212653 0)
(0.184997 0.00207999 0)
(0.184205 0.00203275 0)
(0.183463 0.00198838 0)
(0.182652 0.001943 0)
(0.181903 0.00190074 0)
(0.181074 0.00185715 0)
(0.180321 0.00181695 0)
(0.179477 0.00177505 0)
(0.178723 0.00173687 0)
(0.177864 0.00169655 0)
(0.177113 0.00166035 0)
(0.176241 0.0016215 0)
(0.175496 0.00158724 0)
(0.174612 0.00154978 0)
(0.173877 0.0015174 0)
(0.17298 0.00148121 0)
(0.172258 0.00145069 0)
(0.17135 0.00141566 0)
(0.170645 0.00138698 0)
(0.169723 0.001353 0)
(0.169039 0.00132613 0)
(0.168103 0.0012931 0)
(0.167444 0.00126805 0)
(0.166493 0.00123585 0)
(0.165864 0.00121264 0)
(0.164894 0.00118116 0)
(0.164299 0.00115981 0)
(0.163309 0.00112899 0)
(0.162754 0.00110953 0)
(0.161739 0.0010793 0)
(0.161229 0.00106181 0)
(0.160185 0.00103211 0)
(0.159726 0.00101666 0)
(0.158648 0.00098755 0)
(0.158247 0.000974199 0)
(0.157129 0.000945788 0)
(0.156793 0.000934652 0)
(0.155627 0.000907186 0)
(0.155363 0.000898309 0)
(0.154142 0.000872403 0)
(0.153959 0.000865879 0)
(0.152671 0.000842617 0)
(0.152577 0.000839073 0)
(0.151214 0.000820446 0)
(0.195751 0.00612219 0)
(0.196055 0.00693935 0)
(0.196569 0.00769756 0)
(0.197292 0.00829551 0)
(0.198174 0.00864802 0)
(0.199106 0.00873865 0)
(0.199985 0.00861701 0)
(0.200735 0.00835269 0)
(0.201334 0.00800329 0)
(0.201783 0.00760961 0)
(0.202102 0.00720417 0)
(0.202308 0.00681454 0)
(0.20243 0.00646105 0)
(0.202489 0.00615227 0)
(0.202514 0.00588688 0)
(0.202516 0.00565753 0)
(0.202511 0.00545642 0)
(0.202497 0.0052766 0)
(0.202481 0.00511367 0)
(0.202455 0.00496402 0)
(0.202426 0.00482572 0)
(0.202385 0.00469663 0)
(0.20234 0.00457587 0)
(0.202283 0.00446195 0)
(0.202222 0.00435458 0)
(0.202147 0.00425257 0)
(0.20207 0.00415599 0)
(0.201976 0.00406373 0)
(0.201881 0.00397605 0)
(0.201767 0.00389179 0)
(0.201652 0.00381141 0)
(0.201517 0.00373369 0)
(0.201381 0.0036593 0)
(0.201223 0.00358692 0)
(0.201065 0.00351746 0)
(0.200882 0.00344948 0)
(0.200701 0.00338414 0)
(0.200491 0.00331985 0)
(0.200286 0.00325801 0)
(0.200049 0.00319686 0)
(0.199819 0.00313805 0)
(0.199554 0.00307959 0)
(0.199298 0.00302346 0)
(0.199003 0.00296738 0)
(0.198722 0.00291366 0)
(0.198398 0.0028597 0)
(0.198091 0.00280817 0)
(0.197737 0.00275612 0)
(0.197406 0.00270663 0)
(0.197022 0.00265632 0)
(0.196666 0.00260873 0)
(0.196252 0.00256002 0)
(0.195874 0.00251424 0)
(0.19543 0.00246702 0)
(0.195031 0.00242298 0)
(0.194558 0.00237713 0)
(0.194139 0.00233479 0)
(0.193637 0.00229022 0)
(0.1932 0.00224952 0)
(0.19267 0.00220614 0)
(0.192217 0.00216705 0)
(0.19166 0.0021248 0)
(0.191194 0.0020873 0)
(0.190609 0.00204609 0)
(0.190132 0.00201016 0)
(0.18952 0.00196991 0)
(0.189035 0.00193556 0)
(0.188397 0.00189618 0)
(0.187907 0.00186338 0)
(0.187243 0.00182481 0)
(0.18675 0.00179358 0)
(0.18606 0.00175574 0)
(0.185569 0.00172609 0)
(0.184853 0.00168887 0)
(0.184366 0.00166083 0)
(0.183623 0.00162416 0)
(0.183145 0.00159774 0)
(0.182374 0.00156156 0)
(0.181908 0.0015368 0)
(0.181109 0.00150102 0)
(0.180659 0.00147799 0)
(0.17983 0.00144253 0)
(0.179401 0.00142127 0)
(0.17854 0.00138611 0)
(0.178137 0.00136669 0)
(0.177241 0.00133183 0)
(0.176869 0.00131432 0)
(0.175937 0.00127974 0)
(0.175601 0.00126425 0)
(0.174627 0.00123008 0)
(0.174333 0.00121665 0)
(0.173315 0.0011831 0)
(0.173068 0.00117188 0)
(0.172 0.00113924 0)
(0.171807 0.00113032 0)
(0.170685 0.0010993 0)
(0.170551 0.00109289 0)
(0.169369 0.00106449 0)
(0.1693 0.0010614 0)
(0.168052 0.00103691 0)
(0.196225 0.00593237 0)
(0.196509 0.0066252 0)
(0.196958 0.00726495 0)
(0.197568 0.00778379 0)
(0.198306 0.00811901 0)
(0.1991 0.00824535 0)
(0.199872 0.00818576 0)
(0.200552 0.00799018 0)
(0.201113 0.00770964 0)
(0.201545 0.00738325 0)
(0.201865 0.00704022 0)
(0.202085 0.00670283 0)
(0.202231 0.00638843 0)
(0.202317 0.00610626 0)
(0.202369 0.00585842 0)
(0.202395 0.00564075 0)
(0.202412 0.00544789 0)
(0.202418 0.00527402 0)
(0.202423 0.00511567 0)
(0.202418 0.00496951 0)
(0.202414 0.0048343 0)
(0.202398 0.0047079 0)
(0.202384 0.0045899 0)
(0.202359 0.00447854 0)
(0.202337 0.00437392 0)
(0.202303 0.00427445 0)
(0.202274 0.00418064 0)
(0.202231 0.00409093 0)
(0.202195 0.0040061 0)
(0.202143 0.00392449 0)
(0.2021 0.00384714 0)
(0.20204 0.00377225 0)
(0.201989 0.00370113 0)
(0.201919 0.00363181 0)
(0.20186 0.00356591 0)
(0.201779 0.00350124 0)
(0.201712 0.00343977 0)
(0.201618 0.00337903 0)
(0.201541 0.00332134 0)
(0.201434 0.00326394 0)
(0.201346 0.00320955 0)
(0.201224 0.00315503 0)
(0.201125 0.00310353 0)
(0.200987 0.00305152 0)
(0.200876 0.0030026 0)
(0.20072 0.00295277 0)
(0.200596 0.00290618 0)
(0.200421 0.00285827 0)
(0.200284 0.00281379 0)
(0.200089 0.00276757 0)
(0.199938 0.00272503 0)
(0.199722 0.00268031 0)
(0.199557 0.00263955 0)
(0.199319 0.00259616 0)
(0.199141 0.00255708 0)
(0.198879 0.00251486 0)
(0.198687 0.00247738 0)
(0.198402 0.00243618 0)
(0.198197 0.00240021 0)
(0.197886 0.00235993 0)
(0.197669 0.00232538 0)
(0.197333 0.00228591 0)
(0.197104 0.00225276 0)
(0.196741 0.00221397 0)
(0.196502 0.0021822 0)
(0.196112 0.00214399 0)
(0.195864 0.00211358 0)
(0.195446 0.00207585 0)
(0.19519 0.00204676 0)
(0.194745 0.00200944 0)
(0.194483 0.00198167 0)
(0.194008 0.00194468 0)
(0.193743 0.00191827 0)
(0.193238 0.00188148 0)
(0.192971 0.00185645 0)
(0.192436 0.00181981 0)
(0.19217 0.00179614 0)
(0.191603 0.00175963 0)
(0.191341 0.00173738 0)
(0.190742 0.00170091 0)
(0.190486 0.00168015 0)
(0.189852 0.00164367 0)
(0.189607 0.00162442 0)
(0.188938 0.00158796 0)
(0.188706 0.00157028 0)
(0.188 0.00153389 0)
(0.187784 0.00151788 0)
(0.187039 0.00148156 0)
(0.186844 0.00146729 0)
(0.186059 0.00143127 0)
(0.185887 0.00141877 0)
(0.18506 0.00138332 0)
(0.184916 0.00137279 0)
(0.184043 0.00133823 0)
(0.18393 0.00132979 0)
(0.18301 0.00129688 0)
(0.182932 0.00129086 0)
(0.181961 0.0012605 0)
(0.181922 0.00125779 0)
(0.180898 0.00123086 0)
(0.196644 0.00574926 0)
(0.196907 0.00634046 0)
(0.197301 0.00688522 0)
(0.19782 0.0073355 0)
(0.198444 0.00764624 0)
(0.19912 0.00779254 0)
(0.199793 0.00778177 0)
(0.200404 0.00764612 0)
(0.200923 0.00742678 0)
(0.201335 0.00715921 0)
(0.201652 0.00687078 0)
(0.201879 0.00658069 0)
(0.202041 0.00630384 0)
(0.202145 0.00604884 0)
(0.202217 0.00581978 0)
(0.202259 0.00561485 0)
(0.202292 0.00543116 0)
(0.202309 0.00526394 0)
(0.202325 0.00511079 0)
(0.202329 0.00496853 0)
(0.202335 0.00483658 0)
(0.202328 0.00471268 0)
(0.202325 0.00459701 0)
(0.202309 0.0044875 0)
(0.2023 0.00438475 0)
(0.202277 0.00428673 0)
(0.202263 0.00419448 0)
(0.202234 0.00410591 0)
(0.202216 0.00402241 0)
(0.202183 0.00394175 0)
(0.202163 0.00386565 0)
(0.202125 0.00379163 0)
(0.202102 0.00372178 0)
(0.20206 0.00365335 0)
(0.202036 0.00358883 0)
(0.201988 0.00352514 0)
(0.201962 0.00346519 0)
(0.20191 0.00340554 0)
(0.201881 0.00334957 0)
(0.201823 0.00329342 0)
(0.201792 0.00324096 0)
(0.201727 0.00318784 0)
(0.201694 0.0031385 0)
(0.201621 0.00308805 0)
(0.201584 0.00304152 0)
(0.201503 0.0029934 0)
(0.201463 0.00294942 0)
(0.201371 0.00290337 0)
(0.201327 0.00286171 0)
(0.201225 0.00281748 0)
(0.201177 0.00277794 0)
(0.201062 0.00273532 0)
(0.201009 0.00269775 0)
(0.200882 0.00265653 0)
(0.200823 0.00262081 0)
(0.200682 0.0025808 0)
(0.200618 0.00254681 0)
(0.20046 0.00250785 0)
(0.200391 0.00247547 0)
(0.200217 0.00243743 0)
(0.200142 0.00240654 0)
(0.19995 0.00236928 0)
(0.19987 0.00233983 0)
(0.199658 0.0023032 0)
(0.199573 0.00227516 0)
(0.19934 0.00223902 0)
(0.19925 0.00221232 0)
(0.198996 0.00217657 0)
(0.198902 0.00215114 0)
(0.198625 0.00211569 0)
(0.198527 0.0020915 0)
(0.198226 0.00205624 0)
(0.198125 0.00203332 0)
(0.197799 0.00199813 0)
(0.197696 0.00197645 0)
(0.197344 0.00194129 0)
(0.19724 0.00192077 0)
(0.196861 0.00188561 0)
(0.196757 0.00186633 0)
(0.196349 0.00183108 0)
(0.196248 0.00181309 0)
(0.19581 0.00177771 0)
(0.195712 0.00176095 0)
(0.195244 0.00172553 0)
(0.19515 0.00171002 0)
(0.194651 0.00167464 0)
(0.194563 0.00166052 0)
(0.194031 0.00162515 0)
(0.193952 0.00161243 0)
(0.193386 0.00157741 0)
(0.193317 0.00156606 0)
(0.192716 0.00153166 0)
(0.192658 0.00152201 0)
(0.192021 0.00148853 0)
(0.191977 0.00148065 0)
(0.191303 0.00144892 0)
(0.191273 0.00144325 0)
(0.190561 0.001414 0)
(0.190547 0.00141146 0)
(0.189797 0.00138542 0)
(0.197015 0.00557358 0)
(0.197257 0.00608169 0)
(0.197605 0.00654972 0)
(0.198051 0.0069422 0)
(0.198582 0.00722654 0)
(0.199159 0.00738132 0)
(0.199744 0.00740634 0)
(0.200287 0.00732053 0)
(0.200763 0.00715477 0)
(0.201152 0.00693903 0)
(0.201461 0.00669863 0)
(0.20169 0.00645087 0)
(0.201862 0.00620915 0)
(0.20198 0.00598102 0)
(0.202067 0.00577158 0)
(0.202123 0.00558052 0)
(0.202168 0.00540706 0)
(0.202195 0.00524746 0)
(0.20222 0.00510044 0)
(0.20223 0.00496286 0)
(0.202243 0.00483481 0)
(0.202242 0.00471387 0)
(0.202245 0.00460083 0)
(0.202234 0.00449329 0)
(0.20223 0.00439244 0)
(0.202212 0.00429577 0)
(0.202204 0.0042049 0)
(0.20218 0.00411721 0)
(0.202169 0.00403471 0)
(0.202141 0.00395459 0)
(0.202128 0.00387924 0)
(0.202097 0.00380553 0)
(0.202083 0.00373631 0)
(0.202049 0.00366805 0)
(0.202035 0.00360409 0)
(0.201998 0.0035405 0)
(0.201984 0.00348111 0)
(0.201945 0.00342156 0)
(0.201932 0.00336619 0)
(0.201889 0.00331015 0)
(0.201877 0.00325836 0)
(0.201832 0.00320541 0)
(0.20182 0.00315685 0)
(0.201771 0.00310662 0)
(0.201761 0.00306101 0)
(0.201708 0.00301319 0)
(0.201698 0.00297027 0)
(0.20164 0.00292462 0)
(0.201631 0.00288416 0)
(0.201568 0.00284045 0)
(0.20156 0.00280226 0)
(0.201491 0.00276027 0)
(0.201483 0.00272421 0)
(0.201407 0.00268373 0)
(0.201399 0.00264967 0)
(0.201315 0.00261052 0)
(0.201307 0.00257834 0)
(0.201215 0.00254036 0)
(0.201207 0.00250991 0)
(0.201105 0.00247297 0)
(0.201097 0.00244413 0)
(0.200984 0.00240807 0)
(0.200975 0.00238079 0)
(0.200851 0.00234544 0)
(0.200842 0.00231967 0)
(0.200705 0.0022849 0)
(0.200695 0.00226053 0)
(0.200544 0.00222626 0)
(0.200534 0.00220317 0)
(0.200368 0.00216931 0)
(0.200357 0.00214746 0)
(0.200176 0.00211384 0)
(0.200164 0.00209329 0)
(0.199966 0.00205981 0)
(0.199954 0.00204043 0)
(0.199737 0.00200711 0)
(0.199725 0.00198877 0)
(0.19949 0.00195553 0)
(0.199478 0.00193832 0)
(0.199223 0.00190506 0)
(0.199211 0.00188902 0)
(0.198935 0.00185576 0)
(0.198923 0.00184073 0)
(0.198626 0.00180756 0)
(0.198615 0.00179352 0)
(0.198295 0.00176051 0)
(0.198286 0.00174769 0)
(0.197943 0.00171481 0)
(0.197935 0.00170307 0)
(0.197568 0.00167076 0)
(0.197561 0.00166008 0)
(0.19717 0.00162847 0)
(0.197165 0.00161934 0)
(0.19675 0.0015888 0)
(0.196746 0.00158114 0)
(0.196306 0.00155248 0)
(0.196304 0.00154689 0)
(0.195838 0.00152065 0)
(0.195839 0.00151799 0)
(0.195348 0.00149495 0)
(0.197346 0.00540608 0)
(0.197568 0.005846 0)
(0.197876 0.00625132 0)
(0.198262 0.00659526 0)
(0.198717 0.00685389 0)
(0.199211 0.00700965 0)
(0.199718 0.00705938 0)
(0.200198 0.00701325 0)
(0.200631 0.00689327 0)
(0.200994 0.00672307 0)
(0.201291 0.00652521 0)
(0.201519 0.00631533 0)
(0.201697 0.00610597 0)
(0.201824 0.00590377 0)
(0.201923 0.00571429 0)
(0.20199 0.00553799 0)
(0.202045 0.00537576 0)
(0.20208 0.00522471 0)
(0.202112 0.00508464 0)
(0.20213 0.00495253 0)
(0.202148 0.00482907 0)
(0.202152 0.00471168 0)
(0.20216 0.00460172 0)
(0.202153 0.00449652 0)
(0.202153 0.0043978 0)
(0.202139 0.00430271 0)
(0.202134 0.00421335 0)
(0.202113 0.00412668 0)
(0.202105 0.00404524 0)
(0.202081 0.0039657 0)
(0.20207 0.00389108 0)
(0.202043 0.00381766 0)
(0.202032 0.00374892 0)
(0.202001 0.00368075 0)
(0.20199 0.00361713 0)
(0.201958 0.00355349 0)
(0.201947 0.00349434 0)
(0.201913 0.00343465 0)
(0.201904 0.00337947 0)
(0.201868 0.00332324 0)
(0.20186 0.00327162 0)
(0.201822 0.00321845 0)
(0.201816 0.00317008 0)
(0.201776 0.00311962 0)
(0.201772 0.00307422 0)
(0.20173 0.00302621 0)
(0.201728 0.00298353 0)
(0.201684 0.00293774 0)
(0.201684 0.00289757 0)
(0.201637 0.00285377 0)
(0.201639 0.00281594 0)
(0.20159 0.00277394 0)
(0.201594 0.00273831 0)
(0.201542 0.00269789 0)
(0.201548 0.00266436 0)
(0.201492 0.00262534 0)
(0.2015 0.00259376 0)
(0.20144 0.00255604 0)
(0.20145 0.00252624 0)
(0.201385 0.00248971 0)
(0.201397 0.00246159 0)
(0.201327 0.00242605 0)
(0.201341 0.00239957 0)
(0.201264 0.00236485 0)
(0.20128 0.00233994 0)
(0.201197 0.00230596 0)
(0.201215 0.00228248 0)
(0.201123 0.00224918 0)
(0.201143 0.00222698 0)
(0.201043 0.00219425 0)
(0.201064 0.00217333 0)
(0.200956 0.00214096 0)
(0.200978 0.00212136 0)
(0.20086 0.00208932 0)
(0.200883 0.00207082 0)
(0.200755 0.00203919 0)
(0.200778 0.00202166 0)
(0.20064 0.00199026 0)
(0.200663 0.00197384 0)
(0.200513 0.00194259 0)
(0.200537 0.00192726 0)
(0.200375 0.00189626 0)
(0.200398 0.00188176 0)
(0.200223 0.00185109 0)
(0.200246 0.00183745 0)
(0.200058 0.00180708 0)
(0.20008 0.00179464 0)
(0.199878 0.00176461 0)
(0.199899 0.001753 0)
(0.199683 0.00172384 0)
(0.199702 0.00171315 0)
(0.199471 0.00168473 0)
(0.199488 0.00167559 0)
(0.199243 0.00164847 0)
(0.199256 0.00164061 0)
(0.198996 0.00161546 0)
(0.199006 0.00160969 0)
(0.19873 0.00158691 0)
(0.198736 0.00158396 0)