/*--------------------------------*- C++ -*----------------------------------*\
| =========                 |                                                 |
| \\      /  F ield         | OpenFOAM: The Open Source CFD Toolbox           |
|  \\    /   O peration     | Version:  2.3.0                                 |
|   \\  /    A nd           | Web:      www.OpenFOAM.org                      |
|    \\/     M anipulation  |                                                 |
\*---------------------------------------------------------------------------*/
FoamFile
{
    version     2.0;
    format      ascii;
    class       surfaceScalarField;
    location    "0.4";
    object      phi_0;
}
// * * * * * * * * * * * * * * * * * * * * * * * * * * * * * * * * * * * * * //

dimensions      [0 3 -1 0 0 0 0];

internalField   nonuniform List<scalar> 
6598
(
2.81584e-08
2.89752e-09
-3.10559e-08
2.52822e-08
2.87625e-09
2.25844e-08
2.69778e-09
2.00988e-08
2.48557e-09
1.78419e-08
2.25694e-09
1.58243e-08
2.01755e-09
1.40486e-08
1.77575e-09
1.25091e-08
1.53948e-09
1.11936e-08
1.31544e-09
1.00845e-08
1.10913e-09
9.15996e-09
9.24548e-10
8.39595e-09
7.64009e-10
7.76785e-09
6.28097e-10
7.25197e-09
5.15883e-10
6.82668e-09
4.25286e-10
6.47318e-09
3.53509e-10
6.17572e-09
2.9746e-10
5.92163e-09
2.54084e-10
5.70102e-09
2.20609e-10
5.50636e-09
1.94664e-10
5.33203e-09
1.74327e-10
5.17393e-09
1.58103e-10
5.02906e-09
1.44872e-10
4.89524e-09
1.3382e-10
4.77087e-09
1.24371e-10
4.65474e-09
1.16125e-10
4.54594e-09
1.08806e-10
4.44371e-09
1.02228e-10
4.34745e-09
9.62612e-11
4.25663e-09
9.08123e-11
4.17082e-09
8.58138e-11
4.08961e-09
8.12132e-11
4.01264e-09
7.69676e-11
3.9396e-09
7.3041e-11
3.8702e-09
6.94018e-11
3.80417e-09
6.6022e-11
3.7413e-09
6.28766e-11
3.68135e-09
5.9943e-11
3.62415e-09
5.7201e-11
3.56952e-09
5.46323e-11
3.5173e-09
5.22206e-11
3.46735e-09
4.99512e-11
3.41954e-09
4.78109e-11
3.37375e-09
4.5788e-11
3.32988e-09
4.38719e-11
3.28783e-09
4.20531e-11
3.2475e-09
4.03231e-11
3.20883e-09
3.8674e-11
3.17173e-09
3.70988e-11
3.13614e-09
3.55912e-11
3.10199e-09
3.41454e-11
3.06924e-09
3.2756e-11
3.03782e-09
3.14181e-11
3.00769e-09
3.01273e-11
2.97881e-09
2.88792e-11
2.95114e-09
2.76701e-11
2.92465e-09
2.64963e-11
2.89929e-09
2.53546e-11
2.87505e-09
2.42417e-11
2.8519e-09
2.31547e-11
2.8298e-09
2.20909e-11
2.80876e-09
2.10477e-11
2.78873e-09
2.00225e-11
2.76972e-09
1.90132e-11
2.7517e-09
1.80175e-11
2.73467e-09
1.70336e-11
2.71861e-09
1.60599e-11
2.70351e-09
1.50952e-11
2.68938e-09
1.41386e-11
2.67619e-09
1.31899e-11
2.66394e-09
1.22483e-11
2.65263e-09
1.13125e-11
2.64225e-09
1.03791e-11
2.63281e-09
9.44034e-12
2.62432e-09
8.48282e-12
2.61684e-09
7.48501e-12
2.61042e-09
6.41666e-12
2.60518e-09
5.24118e-12
2.60126e-09
3.92116e-12
2.59884e-09
2.41534e-12
2.5981e-09
7.47943e-13
2.5988e-09
-7.05038e-13
2.60064e-09
-1.84101e-12
2.60339e-09
-2.75095e-12
2.60686e-09
-3.46276e-12
2.61084e-09
-3.98043e-12
2.61515e-09
-4.3171e-12
2.61965e-09
-4.49427e-12
2.62418e-09
-4.53442e-12
2.62865e-09
-4.46734e-12
2.63296e-09
-4.31381e-12
2.63706e-09
-4.09903e-12
2.6409e-09
-3.84191e-12
2.64446e-09
-3.55714e-12
2.64772e-09
-3.25769e-12
2.65067e-09
-2.95114e-12
2.65331e-09
-2.64356e-12
2.65568e-09
-2.36281e-12
2.65798e-09
-2.30133e-12
-3.82905e-12
3.38308e-08
3.1819e-09
-3.41152e-08
3.32302e-08
3.47687e-09
3.2395e-08
3.53295e-09
3.14023e-08
3.47835e-09
3.03078e-08
3.35139e-09
2.91577e-08
3.16763e-09
2.79894e-08
2.9441e-09
2.68314e-08
2.69742e-09
2.57051e-08
2.44179e-09
2.46253e-08
2.18895e-09
2.36017e-08
1.94816e-09
2.26396e-08
1.72605e-09
2.17412e-08
1.52654e-09
2.09059e-08
1.35116e-09
2.01316e-08
1.19954e-09
1.94152e-08
1.07e-09
1.87525e-08
9.60076e-10
1.81396e-08
8.6702e-10
1.75721e-08
7.88101e-10
1.7046e-08
7.20823e-10
1.65572e-08
6.63033e-10
1.61024e-08
6.12941e-10
1.56782e-08
5.69103e-10
1.52816e-08
5.30382e-10
1.49101e-08
4.95885e-10
1.45613e-08
4.64923e-10
1.42332e-08
4.36956e-10
1.39238e-08
4.11558e-10
1.36317e-08
3.8839e-10
1.33553e-08
3.67177e-10
1.30935e-08
3.4769e-10
1.28449e-08
3.29736e-10
1.26087e-08
3.1315e-10
1.2384e-08
2.97789e-10
1.21699e-08
2.83526e-10
1.19656e-08
2.70252e-10
1.17707e-08
2.5787e-10
1.15843e-08
2.46292e-10
1.14061e-08
2.35441e-10
1.12354e-08
2.25248e-10
1.1072e-08
2.15653e-10
1.09154e-08
2.066e-10
1.07651e-08
1.98041e-10
1.0621e-08
1.89932e-10
1.04826e-08
1.82232e-10
1.03498e-08
1.74906e-10
1.02222e-08
1.67922e-10
1.00996e-08
1.6125e-10
9.98184e-09
1.54863e-10
9.86869e-09
1.48738e-10
9.75999e-09
1.42851e-10
9.65556e-09
1.37181e-10
9.55527e-09
1.31711e-10
9.45898e-09
1.26421e-10
9.36656e-09
1.21296e-10
9.27791e-09
1.1632e-10
9.19293e-09
1.11479e-10
9.11152e-09
1.06759e-10
9.03362e-09
1.02148e-10
8.95914e-09
9.7634e-11
8.88802e-09
9.32053e-11
8.82022e-09
8.88517e-11
8.75568e-09
8.45629e-11
8.69436e-09
8.03297e-11
8.63624e-09
7.61431e-11
8.58127e-09
7.19952e-11
8.52946e-09
6.78788e-11
8.48076e-09
6.37876e-11
8.43519e-09
5.97161e-11
8.39272e-09
5.56588e-11
8.35336e-09
5.16089e-11
8.31711e-09
4.75564e-11
8.28401e-09
4.34846e-11
8.25408e-09
3.9367e-11
8.2274e-09
3.51639e-11
8.20406e-09
3.08216e-11
8.1842e-09
2.62751e-11
8.16799e-09
2.14583e-11
8.15559e-09
1.63196e-11
8.14718e-09
1.08252e-11
8.14297e-09
4.95201e-12
8.14288e-09
-6.14466e-13
8.14614e-09
-5.09654e-12
8.15186e-09
-8.47588e-12
8.15944e-09
-1.1038e-11
8.16835e-09
-1.28867e-11
8.17813e-09
-1.41049e-11
8.18842e-09
-1.47824e-11
8.19889e-09
-1.50039e-11
8.20929e-09
-1.48667e-11
8.21942e-09
-1.44442e-11
8.22914e-09
-1.3816e-11
8.23834e-09
-1.30438e-11
8.24696e-09
-1.21762e-11
8.25496e-09
-1.12547e-11
8.26231e-09
-1.03069e-11
8.26903e-09
-9.35986e-12
8.27516e-09
-8.49619e-12
8.28099e-09
-8.12798e-12
-9.48247e-12
3.59136e-08
3.03176e-09
-3.57635e-08
3.59754e-08
3.41511e-09
3.59102e-08
3.59815e-09
3.57227e-08
3.6659e-09
3.54228e-08
3.6513e-09
3.50244e-08
3.56595e-09
3.4545e-08
3.42355e-09
3.40023e-08
3.24011e-09
3.34132e-08
3.03084e-09
3.2793e-08
2.80921e-09
3.21545e-08
2.5866e-09
3.15087e-08
2.37194e-09
3.08637e-08
2.17145e-09
3.02262e-08
1.98874e-09
2.96004e-08
1.82525e-09
2.89897e-08
1.68077e-09
2.83958e-08
1.55396e-09
2.78199e-08
1.44293e-09
2.72625e-08
1.34552e-09
2.67236e-08
1.25965e-09
2.62032e-08
1.18343e-09
2.57009e-08
1.11524e-09
2.52163e-08
1.05372e-09
2.47489e-08
9.97803e-10
2.42982e-08
9.46628e-10
2.38636e-08
8.99519e-10
2.34446e-08
8.55943e-10
2.30407e-08
8.15476e-10
2.26513e-08
7.77777e-10
2.22759e-08
7.42563e-10
2.1914e-08
7.09597e-10
2.1565e-08
6.78677e-10
2.12286e-08
6.49625e-10
2.09041e-08
6.22284e-10
2.05911e-08
5.96513e-10
2.02891e-08
5.72185e-10
1.99978e-08
5.49185e-10
1.97167e-08
5.27408e-10
1.94454e-08
5.06758e-10
1.91835e-08
4.87146e-10
1.89307e-08
4.68494e-10
1.86865e-08
4.50726e-10
1.84508e-08
4.33774e-10
1.82232e-08
4.17577e-10
1.80033e-08
4.02075e-10
1.7791e-08
3.87217e-10
1.7586e-08
3.72952e-10
1.7388e-08
3.59233e-10
1.71968e-08
3.46019e-10
1.70123e-08
3.33269e-10
1.68342e-08
3.20946e-10
1.66624e-08
3.09014e-10
1.64966e-08
2.97441e-10
1.63369e-08
2.86195e-10
1.61829e-08
2.75247e-10
1.60347e-08
2.64568e-10
1.5892e-08
2.54133e-10
1.57549e-08
2.43916e-10
1.56231e-08
2.33893e-10
1.54967e-08
2.24042e-10
1.53756e-08
2.1434e-10
1.52597e-08
2.04766e-10
1.51489e-08
1.95301e-10
1.50433e-08
1.85926e-10
1.49428e-08
1.76622e-10
1.48475e-08
1.67374e-10
1.47572e-08
1.58165e-10
1.4672e-08
1.48982e-10
1.45919e-08
1.3981e-10
1.45169e-08
1.30635e-10
1.44471e-08
1.21441e-10
1.43824e-08
1.12205e-10
1.4323e-08
1.02896e-10
1.42689e-08
9.34674e-11
1.42202e-08
8.38617e-11
1.4177e-08
7.40086e-11
1.41395e-08
6.38379e-11
1.41076e-08
5.33032e-11
1.40815e-08
4.24205e-11
1.4061e-08
3.13159e-11
1.40458e-08
2.02082e-11
1.4036e-08
9.1715e-12
1.4032e-08
-1.1471e-12
1.40331e-08
-9.50662e-12
1.40378e-08
-1.579e-11
1.40454e-08
-2.0424e-11
1.40549e-08
-2.36706e-11
1.40659e-08
-2.57512e-11
1.40777e-08
-2.68538e-11
1.40901e-08
-2.71793e-11
1.41025e-08
-2.68797e-11
1.41148e-08
-2.6114e-11
1.41268e-08
-2.50067e-11
1.41382e-08
-2.36587e-11
1.41491e-08
-2.21557e-11
1.41594e-08
-2.05582e-11
1.4169e-08
-1.89201e-11
1.41778e-08
-1.73451e-11
1.41859e-08
-1.61897e-11
-1.57377e-11
3.74713e-08
2.84129e-09
-3.72809e-08
3.76674e-08
3.21906e-09
3.78234e-08
3.44216e-09
3.7926e-08
3.56325e-09
3.7968e-08
3.60931e-09
3.79448e-08
3.58921e-09
3.78562e-08
3.51211e-09
3.7706e-08
3.39027e-09
3.75003e-08
3.23654e-09
3.72466e-08
3.06299e-09
3.69528e-08
2.88039e-09
3.6627e-08
2.69773e-09
3.62766e-08
2.52181e-09
3.59081e-08
2.3572e-09
3.5527e-08
2.2064e-09
3.51375e-08
2.07026e-09
3.4743e-08
1.94844e-09
3.43461e-08
1.83984e-09
3.39487e-08
1.74297e-09
3.35521e-08
1.65623e-09
3.31574e-08
1.57809e-09
3.27655e-08
1.50717e-09
3.23769e-08
1.4423e-09
3.19922e-08
1.3825e-09
3.16118e-08
1.32701e-09
3.12361e-08
1.27521e-09
3.08655e-08
1.22662e-09
3.05001e-08
1.18084e-09
3.01403e-08
1.13758e-09
2.97863e-08
1.09658e-09
2.94382e-08
1.05764e-09
2.90963e-08
1.02058e-09
2.87607e-08
9.85263e-10
2.84314e-08
9.51547e-10
2.81086e-08
9.19319e-10
2.77923e-08
8.88472e-10
2.74826e-08
8.58911e-10
2.71795e-08
8.30549e-10
2.68829e-08
8.03303e-10
2.6593e-08
7.771e-10
2.63096e-08
7.51869e-10
2.60328e-08
7.27547e-10
2.57625e-08
7.04073e-10
2.54987e-08
6.81391e-10
2.52413e-08
6.59446e-10
2.49903e-08
6.3819e-10
2.47457e-08
6.17574e-10
2.45074e-08
5.97553e-10
2.42753e-08
5.78084e-10
2.40495e-08
5.59127e-10
2.38298e-08
5.40641e-10
2.36162e-08
5.22589e-10
2.34087e-08
5.04935e-10
2.32072e-08
4.87643e-10
2.30118e-08
4.7068e-10
2.28224e-08
4.54012e-10
2.26389e-08
4.37608e-10
2.24614e-08
4.21435e-10
2.22898e-08
4.05465e-10
2.21242e-08
3.89668e-10
2.19645e-08
3.74014e-10
2.18108e-08
3.58477e-10
2.16631e-08
3.43029e-10
2.15213e-08
3.27645e-10
2.13857e-08
3.12298e-10
2.12561e-08
2.96966e-10
2.11326e-08
2.81625e-10
2.10153e-08
2.66255e-10
2.09043e-08
2.50833e-10
2.07996e-08
2.35337e-10
2.07013e-08
2.1974e-10
2.06095e-08
2.04009e-10
2.05243e-08
1.88102e-10
2.04458e-08
1.71964e-10
2.03741e-08
1.55532e-10
2.03094e-08
1.38744e-10
2.02517e-08
1.21555e-10
2.0201e-08
1.03976e-10
2.01573e-08
8.61172e-11
2.01204e-08
6.82418e-11
2.00898e-08
5.07841e-11
2.00647e-08
3.42649e-11
2.00447e-08
1.88402e-11
2.00309e-08
4.35904e-12
2.00232e-08
-8.16524e-12
2.00206e-08
-1.7755e-11
2.00218e-08
-2.48968e-11
2.00261e-08
-2.99987e-11
2.00326e-08
-3.33837e-11
2.00408e-08
-3.53849e-11
2.00502e-08
-3.62485e-11
2.00603e-08
-3.62342e-11
2.00708e-08
-3.55445e-11
2.00815e-08
-3.43472e-11
2.00921e-08
-3.27873e-11
2.01025e-08
-3.09694e-11
2.01126e-08
-2.89754e-11
2.01221e-08
-2.68893e-11
2.01308e-08
-2.4807e-11
-2.18123e-11
3.89886e-08
2.67503e-09
-3.88223e-08
3.91872e-08
3.02043e-09
3.93813e-08
3.24808e-09
3.95573e-08
3.38722e-09
3.97072e-08
3.45938e-09
3.98234e-08
3.47307e-09
3.99002e-08
3.43523e-09
3.99353e-08
3.35526e-09
3.99283e-08
3.24353e-09
3.98811e-08
3.11018e-09
3.9797e-08
2.96446e-09
3.96803e-08
2.81442e-09
3.95357e-08
2.66648e-09
3.93676e-08
2.52526e-09
3.91804e-08
2.39365e-09
3.89776e-08
2.27306e-09
3.87622e-08
2.16379e-09
3.85367e-08
2.06531e-09
3.8303e-08
1.97668e-09
3.80625e-08
1.89672e-09
3.78164e-08
1.82421e-09
3.75656e-08
1.75802e-09
3.73107e-08
1.69713e-09
3.70525e-08
1.64071e-09
3.67915e-08
1.58804e-09
3.65282e-08
1.53857e-09
3.62629e-08
1.49184e-09
3.59963e-08
1.4475e-09
3.57286e-08
1.40527e-09
3.54603e-08
1.36491e-09
3.51917e-08
1.32623e-09
3.49232e-08
1.28908e-09
3.46551e-08
1.25334e-09
3.43878e-08
1.21888e-09
3.41215e-08
1.18561e-09
3.38565e-08
1.15344e-09
3.35931e-08
1.12229e-09
3.33316e-08
1.09208e-09
3.30721e-08
1.06276e-09
3.2815e-08
1.03427e-09
3.25603e-08
1.00654e-09
3.23083e-08
9.79521e-10
3.20592e-08
9.53173e-10
3.18132e-08
9.27446e-10
3.15703e-08
9.02296e-10
3.13308e-08
8.77683e-10
3.10948e-08
8.53567e-10
3.08625e-08
8.2991e-10
3.06339e-08
8.06675e-10
3.04092e-08
7.83827e-10
3.01885e-08
7.61331e-10
2.99719e-08
7.39153e-10
2.97596e-08
7.1726e-10
2.95516e-08
6.95618e-10
2.93481e-08
6.74196e-10
2.91492e-08
6.5296e-10
2.89549e-08
6.3188e-10
2.87654e-08
6.10923e-10
2.85808e-08
5.90058e-10
2.84012e-08
5.69254e-10
2.82268e-08
5.4848e-10
2.80575e-08
5.27707e-10
2.78937e-08
5.06903e-10
2.77353e-08
4.8604e-10
2.75825e-08
4.6509e-10
2.74354e-08
4.44024e-10
2.72942e-08
4.22815e-10
2.7159e-08
4.01439e-10
2.703e-08
3.79867e-10
2.69073e-08
3.58073e-10
2.6791e-08
3.36023e-10
2.66813e-08
3.13679e-10
2.65784e-08
2.90995e-10
2.64825e-08
2.6792e-10
2.63936e-08
2.44399e-10
2.63119e-08
2.20395e-10
2.62376e-08
1.95909e-10
2.61705e-08
1.71023e-10
2.61107e-08
1.45945e-10
2.60579e-08
1.21048e-10
2.60118e-08
9.68718e-11
2.59721e-08
7.40377e-11
2.59379e-08
5.30232e-11
2.59081e-08
3.41119e-11
2.58828e-08
1.7128e-11
2.58632e-08
1.86521e-12
2.58492e-08
-1.09117e-11
2.58399e-08
-2.06565e-11
2.58344e-08
-2.78857e-11
2.5832e-08
-3.3044e-11
2.58322e-08
-3.64495e-11
2.58345e-08
-3.84591e-11
2.58383e-08
-3.93465e-11
2.58433e-08
-3.93476e-11
2.58492e-08
-3.86709e-11
2.58556e-08
-3.74677e-11
2.58625e-08
-3.58473e-11
2.58695e-08
-3.38582e-11
2.5876e-08
-3.13023e-11
-2.61952e-11
4.05442e-08
2.53556e-09
-4.04047e-08
4.07215e-08
2.84318e-09
4.09074e-08
3.06216e-09
4.1089e-08
3.20562e-09
4.12593e-08
3.28905e-09
4.14119e-08
3.32045e-09
4.15413e-08
3.30582e-09
4.16439e-08
3.2527e-09
4.17177e-08
3.16971e-09
4.17625e-08
3.06537e-09
4.17793e-08
2.94765e-09
4.17702e-08
2.82355e-09
4.17378e-08
2.69886e-09
4.16851e-08
2.57793e-09
4.16151e-08
2.46369e-09
4.15303e-08
2.35782e-09
4.14332e-08
2.26096e-09
4.13255e-08
2.17301e-09
4.12087e-08
2.09341e-09
4.10842e-08
2.02131e-09
4.09526e-08
1.95577e-09
4.08147e-08
1.89586e-09
4.06712e-08
1.84072e-09
4.05223e-08
1.78961e-09
4.03684e-08
1.74188e-09
4.021e-08
1.69702e-09
4.00472e-08
1.6546e-09
3.98804e-08
1.61427e-09
3.97099e-08
1.57576e-09
3.9536e-08
1.53884e-09
3.93589e-08
1.50334e-09
3.91789e-08
1.46908e-09
3.89963e-08
1.43595e-09
3.88113e-08
1.40384e-09
3.86243e-08
1.37266e-09
3.84354e-08
1.34231e-09
3.82449e-08
1.31273e-09
3.80532e-08
1.28384e-09
3.78604e-08
1.2556e-09
3.76667e-08
1.22793e-09
3.74724e-08
1.2008e-09
3.72778e-08
1.17416e-09
3.7083e-08
1.14796e-09
3.68883e-08
1.12216e-09
3.66939e-08
1.09672e-09
3.64999e-08
1.0716e-09
3.63067e-08
1.04678e-09
3.61144e-08
1.02221e-09
3.59232e-08
9.97871e-10
3.57333e-08
9.73716e-10
3.5545e-08
9.4972e-10
3.53583e-08
9.25849e-10
3.51734e-08
9.02072e-10
3.49907e-08
8.78357e-10
3.48102e-08
8.54674e-10
3.46322e-08
8.3099e-10
3.44568e-08
8.07273e-10
3.42842e-08
7.83493e-10
3.41147e-08
7.59616e-10
3.39483e-08
7.35611e-10
3.37854e-08
7.11446e-10
3.3626e-08
6.87088e-10
3.34704e-08
6.62507e-10
3.33187e-08
6.37671e-10
3.31713e-08
6.12548e-10
3.30282e-08
5.8711e-10
3.28897e-08
5.61327e-10
3.2756e-08
5.35169e-10
3.26272e-08
5.08607e-10
3.25037e-08
4.81611e-10
3.23855e-08
4.54146e-10
3.22731e-08
4.26173e-10
3.21664e-08
3.97651e-10
3.20658e-08
3.68535e-10
3.19714e-08
3.38793e-10
3.18834e-08
3.08422e-10
3.18018e-08
2.77475e-10
3.17267e-08
2.46102e-10
3.16581e-08
2.14593e-10
3.15957e-08
1.83399e-10
3.15395e-08
1.5312e-10
3.14891e-08
1.24418e-10
3.14443e-08
9.78544e-11
3.14046e-08
7.38127e-11
3.13692e-08
5.24488e-11
3.13373e-08
3.37897e-11
3.13088e-08
1.7583e-11
3.12847e-08
3.4435e-12
3.12652e-08
-8.35337e-12
3.12496e-08
-1.74963e-11
3.12375e-08
-2.43513e-11
3.12284e-08
-2.93472e-11
3.12219e-08
-3.27864e-11
3.12175e-08
-3.4948e-11
3.12149e-08
-3.60865e-11
3.12138e-08
-3.63868e-11
3.12139e-08
-3.5979e-11
3.1215e-08
-3.48863e-11
3.12164e-08
-3.27279e-11
-2.70847e-11
4.21513e-08
2.41681e-09
-4.20325e-08
4.23064e-08
2.68807e-09
4.24755e-08
2.89306e-09
4.2646e-08
3.03507e-09
4.28113e-08
3.12377e-09
4.29658e-08
3.16592e-09
4.31049e-08
3.16677e-09
4.32251e-08
3.1325e-09
4.33245e-08
3.07032e-09
4.34023e-08
2.98753e-09
4.3459e-08
2.891e-09
4.34956e-08
2.78689e-09
4.35141e-08
2.68039e-09
4.35165e-08
2.57553e-09
4.3505e-08
2.47519e-09
4.34817e-08
2.38116e-09
4.34483e-08
2.29431e-09
4.34064e-08
2.21487e-09
4.33573e-08
2.14256e-09
4.33018e-08
2.07681e-09
4.32406e-08
2.01693e-09
4.31743e-08
1.96217e-09
4.31032e-08
1.91182e-09
4.30276e-08
1.86521e-09
4.29477e-08
1.82179e-09
4.28637e-08
1.78107e-09
4.27756e-08
1.74265e-09
4.26837e-08
1.7062e-09
4.2588e-08
1.67144e-09
4.24887e-08
1.63814e-09
4.23859e-08
1.60612e-09
4.22798e-08
1.57523e-09
4.21704e-08
1.54533e-09
4.20579e-08
1.5163e-09
4.19426e-08
1.48805e-09
4.18244e-08
1.46049e-09
4.17036e-08
1.43355e-09
4.15803e-08
1.40714e-09
4.14546e-08
1.38122e-09
4.13268e-08
1.35572e-09
4.11971e-08
1.33059e-09
4.10654e-08
1.30578e-09
4.09321e-08
1.28126e-09
4.07973e-08
1.25696e-09
4.06612e-08
1.23286e-09
4.05239e-08
1.20891e-09
4.03856e-08
1.18508e-09
4.02465e-08
1.16133e-09
4.01067e-08
1.13763e-09
3.99665e-08
1.11395e-09
3.9826e-08
1.09024e-09
3.96853e-08
1.06647e-09
3.95448e-08
1.04262e-09
3.94045e-08
1.01864e-09
3.92647e-08
9.94509e-10
3.91255e-08
9.70185e-10
3.89871e-08
9.45636e-10
3.88498e-08
9.20827e-10
3.87137e-08
8.95724e-10
3.8579e-08
8.70292e-10
3.84459e-08
8.44495e-10
3.83147e-08
8.18298e-10
3.81856e-08
7.91668e-10
3.80587e-08
7.64569e-10
3.79342e-08
7.36967e-10
3.78125e-08
7.0883e-10
3.76937e-08
6.80124e-10
3.75781e-08
6.5082e-10
3.74658e-08
6.20883e-10
3.73571e-08
5.90283e-10
3.72523e-08
5.58984e-10
3.71515e-08
5.2695e-10
3.7055e-08
4.94147e-10
3.6963e-08
4.60546e-10
3.68757e-08
4.26137e-10
3.67931e-08
3.90951e-10
3.67155e-08
3.55091e-10
3.66429e-08
3.18763e-10
3.65751e-08
2.82315e-10
3.65123e-08
2.46246e-10
3.64542e-08
2.11184e-10
3.64008e-08
1.77801e-10
3.6352e-08
1.46681e-10
3.63076e-08
1.18255e-10
3.62673e-08
9.27636e-11
3.62308e-08
7.02973e-11
3.61976e-08
5.07744e-11
3.6167e-08
3.40476e-11
3.61388e-08
1.98481e-11
3.61135e-08
7.7514e-12
3.60915e-08
-2.3905e-12
3.60727e-08
-1.05008e-11
3.60566e-08
-1.67235e-11
3.60431e-08
-2.13803e-11
3.60317e-08
-2.47471e-11
3.60224e-08
-2.70159e-11
3.60147e-08
-2.83268e-11
3.60085e-08
-2.87017e-11
3.60036e-08
-2.77561e-11
-2.35068e-11
4.38127e-08
2.31353e-09
-4.37094e-08
4.39486e-08
2.5521e-09
4.41007e-08
2.74104e-09
4.42573e-08
2.87843e-09
4.44118e-08
2.96932e-09
4.45589e-08
3.01874e-09
4.46946e-08
3.03111e-09
4.48156e-08
3.0115e-09
4.49201e-08
2.96587e-09
4.50072e-08
2.90042e-09
4.50771e-08
2.82111e-09
4.51306e-08
2.73335e-09
4.51692e-08
2.64179e-09
4.51946e-08
2.55016e-09
4.52085e-08
2.46121e-09
4.52129e-08
2.3768e-09
4.52092e-08
2.29799e-09
4.51989e-08
2.22523e-09
4.51829e-08
2.15849e-09
4.51623e-08
2.09747e-09
4.51375e-08
2.04167e-09
4.51092e-08
1.99053e-09
4.50775e-08
1.94346e-09
4.50428e-08
1.89992e-09
4.50052e-08
1.85942e-09
4.49647e-08
1.82153e-09
4.49215e-08
1.78586e-09
4.48756e-08
1.75212e-09
4.4827e-08
1.72003e-09
4.47758e-08
1.68938e-09
4.47219e-08
1.65997e-09
4.46655e-08
1.63165e-09
4.46066e-08
1.60429e-09
4.45451e-08
1.57776e-09
4.44812e-08
1.55196e-09
4.44149e-08
1.5268e-09
4.43462e-08
1.5022e-09
4.42753e-08
1.47808e-09
4.42021e-08
1.45438e-09
4.41268e-08
1.43103e-09
4.40494e-08
1.40799e-09
4.397e-08
1.38518e-09
4.38887e-08
1.36257e-09
4.38056e-08
1.3401e-09
4.37207e-08
1.31774e-09
4.36342e-08
1.29543e-09
4.35461e-08
1.27314e-09
4.34566e-08
1.25083e-09
4.33658e-08
1.22845e-09
4.32738e-08
1.20597e-09
4.31807e-08
1.18335e-09
4.30866e-08
1.16055e-09
4.29917e-08
1.13753e-09
4.2896e-08
1.11426e-09
4.27999e-08
1.09069e-09
4.27033e-08
1.06678e-09
4.26064e-08
1.0425e-09
4.25094e-08
1.01781e-09
4.24125e-08
9.9267e-10
4.23157e-08
9.67035e-10
4.22193e-08
9.40867e-10
4.21235e-08
9.14128e-10
4.20284e-08
8.86777e-10
4.19342e-08
8.58776e-10
4.18411e-08
8.30087e-10
4.17492e-08
8.00672e-10
4.16589e-08
7.70496e-10
4.15702e-08
7.39523e-10
4.14833e-08
7.07719e-10
4.13986e-08
6.7505e-10
4.13161e-08
6.41482e-10
4.1236e-08
6.06984e-10
4.11586e-08
5.71528e-10
4.10841e-08
5.35101e-10
4.10125e-08
4.97717e-10
4.0944e-08
4.59437e-10
4.08787e-08
4.204e-10
4.08166e-08
3.80852e-10
4.07578e-08
3.41176e-10
4.07021e-08
3.01891e-10
4.06497e-08
2.63625e-10
4.06004e-08
2.27039e-10
4.05544e-08
1.92718e-10
4.05116e-08
1.61108e-10
4.04718e-08
1.32486e-10
4.04351e-08
1.0698e-10
4.04013e-08
8.45756e-11
4.03702e-08
6.51642e-11
4.03415e-08
4.85304e-11
4.03149e-08
3.44154e-11
4.02899e-08
2.25549e-11
4.02668e-08
1.26242e-11
4.02458e-08
4.30951e-12
4.02269e-08
-2.52777e-12
4.02101e-08
-7.93472e-12
4.01952e-08
-1.20672e-11
4.01819e-08
-1.50838e-11
4.01703e-08
-1.70324e-11
4.01602e-08
-1.76745e-11
-1.60417e-11
4.55303e-08
2.22207e-09
-4.54388e-08
4.56503e-08
2.4321e-09
4.57867e-08
2.60463e-09
4.59296e-08
2.73548e-09
4.60725e-08
2.82644e-09
4.62104e-08
2.88083e-09
4.63394e-08
2.90215e-09
4.64564e-08
2.8945e-09
4.65595e-08
2.86274e-09
4.66479e-08
2.81206e-09
4.67214e-08
2.74759e-09
4.67807e-08
2.67404e-09
4.6827e-08
2.59555e-09
4.68616e-08
2.51553e-09
4.68862e-08
2.43661e-09
4.69023e-08
2.36066e-09
4.69115e-08
2.28885e-09
4.69149e-08
2.2218e-09
4.69137e-08
2.15971e-09
4.69087e-08
2.10248e-09
4.69005e-08
2.04981e-09
4.68898e-08
2.0013e-09
4.68767e-08
1.9565e-09
4.68617e-08
1.91498e-09
4.68448e-08
1.87632e-09
4.68261e-08
1.84015e-09
4.68059e-08
1.80614e-09
4.6784e-08
1.77401e-09
4.67605e-08
1.7435e-09
4.67354e-08
1.71442e-09
4.67088e-08
1.68658e-09
4.66807e-08
1.65982e-09
4.6651e-08
1.63401e-09
4.66197e-08
1.60904e-09
4.65868e-08
1.5848e-09
4.65524e-08
1.5612e-09
4.65165e-08
1.53815e-09
4.6479e-08
1.51558e-09
4.644e-08
1.49341e-09
4.63994e-08
1.47159e-09
4.63573e-08
1.45005e-09
4.63138e-08
1.42873e-09
4.62688e-08
1.40758e-09
4.62223e-08
1.38656e-09
4.61744e-08
1.3656e-09
4.61252e-08
1.34467e-09
4.60746e-08
1.32372e-09
4.60228e-08
1.3027e-09
4.59697e-08
1.28156e-09
4.59154e-08
1.26027e-09
4.58599e-08
1.23879e-09
4.58034e-08
1.21706e-09
4.57459e-08
1.19504e-09
4.56875e-08
1.17269e-09
4.56282e-08
1.14997e-09
4.55681e-08
1.12684e-09
4.55074e-08
1.10324e-09
4.54461e-08
1.07913e-09
4.53843e-08
1.05448e-09
4.53221e-08
1.02922e-09
4.52596e-08
1.00333e-09
4.5197e-08
9.76748e-10
4.51343e-08
9.49437e-10
4.50718e-08
9.21351e-10
4.50094e-08
8.92448e-10
4.49474e-08
8.62687e-10
4.48859e-08
8.32026e-10
4.4825e-08
8.00429e-10
4.47648e-08
7.67858e-10
4.47056e-08
7.34278e-10
4.46474e-08
6.99658e-10
4.45904e-08
6.63968e-10
4.45348e-08
6.27192e-10
4.44805e-08
5.8933e-10
4.44278e-08
5.50415e-10
4.43767e-08
5.10531e-10
4.43273e-08
4.69842e-10
4.42795e-08
4.28618e-10
4.42335e-08
3.87251e-10
4.41891e-08
3.46259e-10
4.41465e-08
3.0625e-10
4.41057e-08
2.67857e-10
4.40667e-08
2.3165e-10
4.40298e-08
1.98074e-10
4.39948e-08
1.67422e-10
4.39619e-08
1.39849e-10
4.39312e-08
1.15374e-10
4.39024e-08
9.39223e-11
4.38756e-08
7.53236e-11
4.38507e-08
5.93583e-11
4.38274e-08
4.57797e-11
4.38058e-08
3.43043e-11
4.37854e-08
2.46809e-11
4.37662e-08
1.66652e-11
4.37482e-08
1.00214e-11
4.37316e-08
4.55933e-12
4.37163e-08
1.78393e-13
4.37024e-08
-3.11829e-12
4.369e-08
-5.26927e-12
-6.33873e-12
4.73063e-08
2.1399e-09
-4.72241e-08
4.7413e-08
2.32536e-09
4.75355e-08
2.4821e-09
4.76657e-08
2.60531e-09
4.77974e-08
2.69478e-09
4.79258e-08
2.75235e-09
4.80474e-08
2.78061e-09
4.81591e-08
2.7828e-09
4.8259e-08
2.76282e-09
4.83461e-08
2.72497e-09
4.84201e-08
2.67358e-09
4.84814e-08
2.61273e-09
4.85309e-08
2.54607e-09
4.85697e-08
2.4767e-09
4.85993e-08
2.40707e-09
4.86209e-08
2.33901e-09
4.8636e-08
2.27376e-09
4.86457e-08
2.21208e-09
4.86511e-08
2.15433e-09
4.8653e-08
2.10057e-09
4.86521e-08
2.05068e-09
4.8649e-08
2.00442e-09
4.86441e-08
1.96146e-09
4.86376e-08
1.92147e-09
4.86298e-08
1.88412e-09
4.86208e-08
1.84909e-09
4.86109e-08
1.81611e-09
4.85999e-08
1.78493e-09
4.85881e-08
1.75532e-09
4.85755e-08
1.72709e-09
4.8562e-08
1.70008e-09
4.85476e-08
1.67414e-09
4.85325e-08
1.64914e-09
4.85166e-08
1.62498e-09
4.84998e-08
1.60155e-09
4.84823e-08
1.57875e-09
4.84639e-08
1.55652e-09
4.84447e-08
1.53477e-09
4.84247e-08
1.51343e-09
4.84038e-08
1.49244e-09
4.83821e-08
1.47174e-09
4.83596e-08
1.45127e-09
4.83362e-08
1.43097e-09
4.8312e-08
1.41079e-09
4.82869e-08
1.39069e-09
4.8261e-08
1.37061e-09
4.82342e-08
1.3505e-09
4.82066e-08
1.33032e-09
4.81781e-08
1.31001e-09
4.81488e-08
1.28954e-09
4.81188e-08
1.26885e-09
4.80879e-08
1.2479e-09
4.80563e-08
1.22664e-09
4.8024e-08
1.20503e-09
4.7991e-08
1.18301e-09
4.79573e-08
1.16054e-09
4.79229e-08
1.13758e-09
4.7888e-08
1.11406e-09
4.78525e-08
1.08995e-09
4.78166e-08
1.06519e-09
4.77802e-08
1.03973e-09
4.77434e-08
1.01353e-09
4.77063e-08
9.86537e-10
4.76689e-08
9.58704e-10
4.76314e-08
9.29985e-10
4.75937e-08
9.00334e-10
4.75561e-08
8.69709e-10
4.75184e-08
8.38069e-10
4.74809e-08
8.05376e-10
4.74436e-08
7.71596e-10
4.74065e-08
7.36697e-10
4.73699e-08
7.00658e-10
4.73336e-08
6.63468e-10
4.72978e-08
6.25141e-10
4.72625e-08
5.85723e-10
4.72277e-08
5.45316e-10
4.71934e-08
5.04099e-10
4.71597e-08
4.62347e-10
4.71265e-08
4.20451e-10
4.70938e-08
3.78905e-10
4.70618e-08
3.38286e-10
4.70305e-08
2.99186e-10
4.7e-08
2.62148e-10
4.69704e-08
2.27605e-10
4.6942e-08
1.95856e-10
4.69148e-08
1.67071e-10
4.68889e-08
1.41299e-10
4.68643e-08
1.1849e-10
4.68411e-08
9.85089e-11
4.68193e-08
8.1168e-11
4.67988e-08
6.62478e-11
4.67796e-08
5.34999e-11
4.67616e-08
4.26885e-11
4.67447e-08
3.35814e-11
4.67288e-08
2.59553e-11
4.67137e-08
1.96297e-11
4.66994e-08
1.44545e-11
4.6686e-08
1.03059e-11
4.66737e-08
7.03987e-12
3.96615e-12
4.9143e-08
2.06529e-09
-4.90684e-08
4.92387e-08
2.2297e-09
4.9349e-08
2.37178e-09
4.94674e-08
2.4869e-09
4.95885e-08
2.57374e-09
4.97078e-08
2.63304e-09
4.98218e-08
2.66656e-09
4.99279e-08
2.67677e-09
5.00239e-08
2.66676e-09
5.01088e-08
2.64004e-09
5.01822e-08
2.60022e-09
5.02441e-08
2.5508e-09
5.02952e-08
2.49496e-09
5.03365e-08
2.43547e-09
5.03689e-08
2.37459e-09
5.03939e-08
2.31409e-09
5.04124e-08
2.25521e-09
5.04257e-08
2.19881e-09
5.04346e-08
2.14536e-09
5.04401e-08
2.09508e-09
5.04428e-08
2.04797e-09
5.04433e-08
2.00393e-09
5.04421e-08
1.96274e-09
5.04393e-08
1.92418e-09
5.04355e-08
1.88799e-09
5.04306e-08
1.85392e-09
5.0425e-08
1.82174e-09
5.04187e-08
1.79123e-09
5.04118e-08
1.76221e-09
5.04044e-08
1.7345e-09
5.03965e-08
1.70796e-09
5.03882e-08
1.68244e-09
5.03795e-08
1.65785e-09
5.03705e-08
1.63406e-09
5.0361e-08
1.61099e-09
5.03512e-08
1.58855e-09
5.03411e-08
1.56666e-09
5.03306e-08
1.54525e-09
5.03198e-08
1.52425e-09
5.03086e-08
1.5036e-09
5.02971e-08
1.48325e-09
5.02853e-08
1.46312e-09
5.0273e-08
1.44318e-09
5.02605e-08
1.42337e-09
5.02475e-08
1.40364e-09
5.02342e-08
1.38393e-09
5.02205e-08
1.36421e-09
5.02064e-08
1.34441e-09
5.01919e-08
1.3245e-09
5.0177e-08
1.30443e-09
5.01617e-08
1.28415e-09
5.0146e-08
1.26361e-09
5.01299e-08
1.24275e-09
5.01134e-08
1.22155e-09
5.00965e-08
1.19993e-09
5.00791e-08
1.17787e-09
5.00614e-08
1.15529e-09
5.00433e-08
1.13216e-09
5.00248e-08
1.10842e-09
5.0006e-08
1.08402e-09
4.99868e-08
1.05891e-09
4.99673e-08
1.03304e-09
4.99475e-08
1.00636e-09
4.99274e-08
9.78818e-10
4.9907e-08
9.50366e-10
4.98864e-08
9.20959e-10
4.98655e-08
8.90553e-10
4.98445e-08
8.59105e-10
4.98233e-08
8.2658e-10
4.98019e-08
7.92942e-10
4.97805e-08
7.58167e-10
4.97589e-08
7.22235e-10
4.97372e-08
6.85147e-10
4.97154e-08
6.46923e-10
4.96935e-08
6.07624e-10
4.96715e-08
5.67361e-10
4.96493e-08
5.26319e-10
4.96268e-08
4.84773e-10
4.96042e-08
4.43094e-10
4.95813e-08
4.0175e-10
4.95584e-08
3.61273e-10
4.95353e-08
3.22211e-10
4.95124e-08
2.8507e-10
4.94898e-08
2.50263e-10
4.94675e-08
2.18088e-10
4.94459e-08
1.88725e-10
4.94249e-08
1.62243e-10
4.94048e-08
1.38616e-10
4.93856e-08
1.17741e-10
4.93673e-08
9.94588e-11
4.93499e-08
8.35762e-11
4.93336e-08
6.98747e-11
4.93181e-08
5.81378e-11
4.93036e-08
4.8152e-11
4.92898e-08
3.97112e-11
4.92768e-08
3.26371e-11
4.92645e-08
2.67686e-11
4.92528e-08
2.19411e-11
4.9242e-08
1.78959e-11
1.37548e-11
5.10432e-08
1.99701e-09
-5.09749e-08
5.11295e-08
2.1434e-09
5.12291e-08
2.27218e-09
5.13368e-08
2.3792e-09
5.14479e-08
2.46266e-09
5.15584e-08
2.52253e-09
5.16651e-08
2.55988e-09
5.17653e-08
2.57653e-09
5.18572e-08
2.57489e-09
5.19395e-08
2.55776e-09
5.20116e-08
2.52813e-09
5.20734e-08
2.48895e-09
5.21254e-08
2.44297e-09
5.21683e-08
2.39264e-09
5.22028e-08
2.34002e-09
5.22301e-08
2.28677e-09
5.22512e-08
2.23412e-09
5.22671e-08
2.18296e-09
5.22786e-08
2.13387e-09
5.22865e-08
2.08715e-09
5.22915e-08
2.04293e-09
5.22942e-08
2.00122e-09
5.22951e-08
1.96191e-09
5.22944e-08
1.92485e-09
5.22925e-08
1.88987e-09
5.22897e-08
1.85677e-09
5.2286e-08
1.82537e-09
5.22818e-08
1.7955e-09
5.2277e-08
1.767e-09
5.22718e-08
1.73971e-09
5.22662e-08
1.71352e-09
5.22603e-08
1.68829e-09
5.22543e-08
1.66393e-09
5.2248e-08
1.64034e-09
5.22415e-08
1.61743e-09
5.2235e-08
1.59513e-09
5.22283e-08
1.57335e-09
5.22215e-08
1.55204e-09
5.22146e-08
1.53112e-09
5.22077e-08
1.51055e-09
5.22006e-08
1.49026e-09
5.21936e-08
1.47021e-09
5.21864e-08
1.45033e-09
5.21792e-08
1.43058e-09
5.21719e-08
1.41092e-09
5.21646e-08
1.39128e-09
5.21571e-08
1.37163e-09
5.21496e-08
1.35192e-09
5.2142e-08
1.3321e-09
5.21343e-08
1.31212e-09
5.21265e-08
1.29194e-09
5.21186e-08
1.27151e-09
5.21106e-08
1.25078e-09
5.21025e-08
1.2297e-09
5.20942e-08
1.20822e-09
5.20857e-08
1.1863e-09
5.20772e-08
1.16387e-09
5.20684e-08
1.1409e-09
5.20595e-08
1.11733e-09
5.20504e-08
1.0931e-09
5.20412e-08
1.06818e-09
5.20317e-08
1.0425e-09
5.20221e-08
1.01601e-09
5.20122e-08
9.88669e-10
5.20021e-08
9.60427e-10
5.19919e-08
9.31236e-10
5.19814e-08
9.01055e-10
5.19706e-08
8.69842e-10
5.19596e-08
8.37563e-10
5.19484e-08
8.04186e-10
5.19369e-08
7.6969e-10
5.1925e-08
7.34065e-10
5.19129e-08
6.97315e-10
5.19003e-08
6.59472e-10
5.18873e-08
6.20605e-10
5.18739e-08
5.80832e-10
5.18599e-08
5.40338e-10
5.18452e-08
4.99389e-10
5.183e-08
4.58337e-10
5.18141e-08
4.17613e-10
5.17977e-08
3.77704e-10
5.17808e-08
3.39111e-10
5.17636e-08
3.023e-10
5.17462e-08
2.6766e-10
5.17288e-08
2.35481e-10
5.17116e-08
2.05948e-10
5.16947e-08
1.79143e-10
5.16782e-08
1.55065e-10
5.16623e-08
1.33636e-10
5.16471e-08
1.14725e-10
5.16325e-08
9.81657e-11
5.16186e-08
8.37662e-11
5.16054e-08
7.13304e-11
5.15929e-08
6.0663e-11
5.1581e-08
5.15744e-11
5.15697e-08
4.38923e-11
5.15591e-08
3.74528e-11
5.15489e-08
3.20724e-11
5.15394e-08
2.74575e-11
2.28536e-11
5.30095e-08
1.93417e-09
-5.29466e-08
5.30877e-08
2.06512e-09
5.31779e-08
2.18197e-09
5.3276e-08
2.28119e-09
5.33778e-08
2.36083e-09
5.34799e-08
2.42037e-09
5.35794e-08
2.46038e-09
5.36739e-08
2.48211e-09
5.37613e-08
2.4874e-09
5.38406e-08
2.47847e-09
5.3911e-08
2.45774e-09
5.39723e-08
2.42767e-09
5.40246e-08
2.39063e-09
5.40685e-08
2.34875e-09
5.41047e-08
2.30387e-09
5.41339e-08
2.25754e-09
5.41571e-08
2.21094e-09
5.41751e-08
2.16497e-09
5.41887e-08
2.12026e-09