/*--------------------------------*- C++ -*----------------------------------*\
| =========                 |                                                 |
| \\      /  F ield         | OpenFOAM: The Open Source CFD Toolbox           |
|  \\    /   O peration     | Version:  2.3.0                                 |
|   \\  /    A nd           | Web:      www.OpenFOAM.org                      |
|    \\/     M anipulation  |                                                 |
\*---------------------------------------------------------------------------*/
FoamFile
{
    version     2.0;
    format      ascii;
    class       surfaceScalarField;
    location    "0.75";
    object      phi_0;
}
// * * * * * * * * * * * * * * * * * * * * * * * * * * * * * * * * * * * * * //

dimensions      [0 3 -1 0 0 0 0];

internalField   nonuniform List<scalar> 
13570
(
2.82866e-08
2.88653e-09
-3.11731e-08
2.54184e-08
2.8681e-09
2.27274e-08
2.691e-09
2.02472e-08
2.48027e-09
1.79937e-08
2.25342e-09
1.59778e-08
2.01599e-09
1.42016e-08
1.77617e-09
1.26598e-08
1.54175e-09
1.13405e-08
1.31932e-09
1.02262e-08
1.11426e-09
9.29576e-09
9.30493e-10
8.52543e-09
7.70327e-10
7.89105e-09
6.34378e-10
7.36926e-09
5.2179e-10
6.93868e-09
4.30579e-10
6.58063e-09
3.5805e-10
6.27943e-09
3.01202e-10
6.02237e-09
2.57054e-10
5.79949e-09
2.22885e-10
5.60313e-09
1.96355e-10
5.42758e-09
1.75554e-10
5.26859e-09
1.58989e-10
5.12306e-09
1.45529e-10
4.98872e-09
1.34346e-10
4.86387e-09
1.2485e-10
4.74724e-09
1.16623e-10
4.63787e-09
1.09376e-10
4.53496e-09
1.02909e-10
4.43788e-09
9.70817e-11
4.34608e-09
9.17935e-11
4.25911e-09
8.697e-11
4.17656e-09
8.25538e-11
4.09806e-09
7.84989e-11
4.02329e-09
7.47665e-11
3.95197e-09
7.13236e-11
3.88383e-09
6.81411e-11
3.81864e-09
6.51935e-11
3.75618e-09
6.24578e-11
3.69626e-09
5.99136e-11
3.63872e-09
5.75428e-11
3.58339e-09
5.53292e-11
3.53013e-09
5.32584e-11
3.47882e-09
5.13174e-11
3.42932e-09
4.94948e-11
3.38154e-09
4.77805e-11
3.33538e-09
4.61652e-11
3.29074e-09
4.46409e-11
3.24754e-09
4.32002e-11
3.2057e-09
4.18366e-11
3.16515e-09
4.05442e-11
3.12584e-09
3.93177e-11
3.08768e-09
3.81522e-11
3.05064e-09
3.70435e-11
3.01465e-09
3.59875e-11
2.97967e-09
3.49807e-11
2.94565e-09
3.40197e-11
2.91255e-09
3.31017e-11
2.88033e-09
3.22239e-11
2.84894e-09
3.13836e-11
2.81837e-09
3.05788e-11
2.78856e-09
2.98072e-11
2.75949e-09
2.90669e-11
2.73114e-09
2.8356e-11
2.70346e-09
2.7673e-11
2.67645e-09
2.70163e-11
2.65006e-09
2.63846e-11
2.62429e-09
2.57764e-11
2.59909e-09
2.51905e-11
2.57447e-09
2.4626e-11
2.55039e-09
2.40817e-11
2.52683e-09
2.35567e-11
2.50378e-09
2.30501e-11
2.48122e-09
2.25611e-11
2.45913e-09
2.2089e-11
2.4375e-09
2.16331e-11
2.4163e-09
2.11927e-11
2.39554e-09
2.07674e-11
2.37518e-09
2.03565e-11
2.35522e-09
1.99598e-11
2.33564e-09
1.95767e-11
2.31644e-09
1.92069e-11
2.29759e-09
1.88503e-11
2.27908e-09
1.85066e-11
2.2609e-09
1.81757e-11
2.24305e-09
1.78576e-11
2.22549e-09
1.75523e-11
2.20823e-09
1.726e-11
2.19125e-09
1.69811e-11
2.17454e-09
1.6716e-11
2.15807e-09
1.64655e-11
2.14184e-09
1.62308e-11
2.12583e-09
1.60138e-11
2.11001e-09
1.58177e-11
2.09436e-09
1.5648e-11
2.07885e-09
1.55161e-11
2.0634e-09
1.54476e-11
2.04789e-09
1.55123e-11
2.032e-09
1.58842e-11
2.01536e-09
1.66414e-11
4.9626e-11
3.3319e-08
3.16539e-09
-3.35979e-08
3.27264e-08
3.46074e-09
3.19018e-08
3.51562e-09
3.09219e-08
3.46019e-09
2.98421e-08
3.33314e-09
2.87082e-08
3.1499e-09
2.75571e-08
2.92734e-09
2.6417e-08
2.68186e-09
2.53088e-08
2.42747e-09
2.42474e-08
2.17572e-09
2.32421e-08
1.93577e-09
2.22982e-08
1.71417e-09
2.14178e-08
1.51486e-09
2.06001e-08
1.33942e-09
1.98431e-08
1.18757e-09
1.91435e-08
1.05773e-09
1.84972e-08
9.47524e-10
1.78999e-08
8.54272e-10
1.73475e-08
7.7529e-10
1.68358e-08
7.08108e-10
1.63607e-08
6.50579e-10
1.59188e-08
6.00906e-10
1.55067e-08
5.57632e-10
1.51215e-08
5.19595e-10
1.47604e-08
4.85883e-10
1.44213e-08
4.55784e-10
1.41019e-08
4.28737e-10
1.38005e-08
4.04302e-10
1.35155e-08
3.82124e-10
1.32454e-08
3.61917e-10
1.29889e-08
3.43443e-10
1.27449e-08
3.26504e-10
1.25125e-08
3.10931e-10
1.22907e-08
2.96577e-10
1.20787e-08
2.83315e-10
1.18758e-08
2.71035e-10
1.16814e-08
2.59639e-10
1.14948e-08
2.4904e-10
1.13155e-08
2.39163e-10
1.11431e-08
2.2994e-10
1.09772e-08
2.21312e-10
1.08172e-08
2.13224e-10
1.06629e-08
2.0563e-10
1.05139e-08
1.98486e-10
1.03699e-08
1.91757e-10
1.02307e-08
1.85406e-10
1.00959e-08
1.79405e-10
9.96538e-09
1.73726e-10
9.83887e-09
1.68344e-10
9.71618e-09
1.63237e-10
9.59711e-09
1.58385e-10
9.4815e-09
1.5377e-10
9.36916e-09
1.49374e-10
9.25997e-09
1.45184e-10
9.15376e-09
1.41185e-10
9.05042e-09
1.37365e-10
8.94981e-09
1.33712e-10
8.85181e-09
1.30216e-10
8.75633e-09
1.26867e-10
8.66326e-09
1.23655e-10
8.57249e-09
1.20573e-10
8.48394e-09
1.17614e-10
8.39753e-09
1.14769e-10
8.31317e-09
1.12034e-10
8.23078e-09
1.09401e-10
8.1503e-09
1.06865e-10
8.07166e-09
1.04421e-10
7.99479e-09
1.02064e-10
7.91962e-09
9.97904e-11
7.84611e-09
9.75952e-11
7.77419e-09
9.5475e-11
7.70381e-09
9.34262e-11
7.63493e-09
9.14455e-11
7.56749e-09
8.95299e-11
7.50144e-09
8.76767e-11
7.43675e-09
8.58833e-11
7.37337e-09
8.41473e-11
7.31126e-09
8.24667e-11
7.25038e-09
8.08396e-11
7.1907e-09
7.92643e-11
7.13216e-09
7.77392e-11
7.07475e-09
7.62633e-11
7.01842e-09
7.48355e-11
6.96314e-09
7.34551e-11
6.90888e-09
7.21215e-11
6.8556e-09
7.08348e-11
6.80326e-09
6.95952e-11
6.75184e-09
6.84036e-11
6.70129e-09
6.72612e-11
6.65159e-09
6.61704e-11
6.60269e-09
6.51348e-11
6.55454e-09
6.41603e-11
6.5071e-09
6.32567e-11
6.46031e-09
6.24417e-11
6.41407e-09
6.17515e-11
6.36825e-09
6.12696e-11
6.32255e-09
6.12157e-11
6.27627e-09
6.21588e-11
6.22385e-09
6.90633e-11
1.25411e-10
3.47139e-08
3.0177e-09
-3.45662e-08
3.47724e-08
3.40229e-09
3.47043e-08
3.58366e-09
3.45153e-08
3.64924e-09
3.42158e-08
3.63259e-09
3.38203e-08
3.54543e-09
3.33461e-08
3.40153e-09
3.28111e-08
3.21686e-09
3.2232e-08
3.00654e-09
3.16238e-08
2.78393e-09
3.09993e-08
2.56034e-09
3.03688e-08
2.34464e-09
2.97406e-08
2.14303e-09
2.91209e-08
1.95918e-09
2.85138e-08
1.79458e-09
2.79225e-08
1.64908e-09
2.73486e-08
1.52144e-09
2.6793e-08
1.4098e-09
2.62563e-08
1.31205e-09
2.57383e-08
1.22612e-09
2.52387e-08
1.15013e-09
2.47572e-08
1.08245e-09
2.42931e-08
1.0217e-09
2.38459e-08
9.66784e-10
2.3415e-08
9.16815e-10
2.29997e-08
8.71088e-10
2.25994e-08
8.29045e-10
2.22134e-08
7.90236e-10
2.18413e-08
7.54298e-10
2.14822e-08
7.2093e-10
2.11358e-08
6.8988e-10
2.08014e-08
6.60932e-10
2.04784e-08
6.33896e-10
2.01664e-08
6.08609e-10
1.98648e-08
5.84921e-10
1.95731e-08
5.627e-10
1.92909e-08
5.41829e-10
1.90178e-08
5.22198e-10
1.87532e-08
5.0371e-10
1.84969e-08
4.86276e-10
1.82484e-08
4.69817e-10
1.80073e-08
4.54257e-10
1.77734e-08
4.39531e-10
1.75464e-08
4.25578e-10
1.73258e-08
4.12342e-10
1.71114e-08
3.99771e-10
1.6903e-08
3.87821e-10
1.67003e-08
3.76448e-10
1.6503e-08
3.65613e-10
1.6311e-08
3.55281e-10
1.61239e-08
3.45419e-10
1.59417e-08
3.35997e-10
1.57641e-08
3.26986e-10
1.55909e-08
3.18362e-10
1.5422e-08
3.101e-10
1.52572e-08
3.0218e-10
1.50963e-08
2.94579e-10
1.49392e-08
2.87281e-10
1.47858e-08
2.80268e-10
1.4636e-08
2.73523e-10
1.44895e-08
2.67032e-10
1.43463e-08
2.60781e-10
1.42064e-08
2.54757e-10
1.40694e-08
2.48948e-10
1.39355e-08
2.43342e-10
1.38044e-08
2.3793e-10
1.36762e-08
2.32702e-10
1.35506e-08
2.27648e-10
1.34276e-08
2.2276e-10
1.33072e-08
2.18031e-10
1.31892e-08
2.13452e-10
1.30736e-08
2.09017e-10
1.29603e-08
2.0472e-10
1.28493e-08
2.00555e-10
1.27405e-08
1.96516e-10
1.26337e-08
1.92597e-10
1.25291e-08
1.88796e-10
1.24265e-08
1.85106e-10
1.23258e-08
1.81525e-10
1.2227e-08
1.78048e-10
1.21301e-08
1.74673e-10
1.20349e-08
1.71398e-10
1.19415e-08
1.68219e-10
1.18499e-08
1.65135e-10
1.17598e-08
1.62146e-10
1.16714e-08
1.5925e-10
1.15846e-08
1.56448e-10
1.14992e-08
1.53742e-10
1.14154e-08
1.51133e-10
1.13329e-08
1.48626e-10
1.12518e-08
1.46227e-10
1.1172e-08
1.43948e-10
1.10935e-08
1.41807e-10
1.10161e-08
1.39836e-10
1.09397e-08
1.38106e-10
1.08642e-08
1.36774e-10
1.07892e-08
1.36265e-10
1.07134e-08
1.37916e-10
1.06315e-08
1.50931e-10
2.13682e-10
3.55477e-08
2.83068e-09
-3.53607e-08
3.57377e-08
3.21224e-09
3.58864e-08
3.43497e-09
3.59813e-08
3.55437e-09
3.60157e-08
3.5982e-09
3.59857e-08
3.57546e-09
3.58918e-08
3.49544e-09
3.5738e-08
3.37056e-09
3.55308e-08
3.21376e-09
3.52776e-08
3.03713e-09
3.49865e-08
2.85149e-09
3.46653e-08
2.66583e-09
3.43213e-08
2.48704e-09
3.39608e-08
2.3197e-09
3.3589e-08
2.16639e-09
3.321e-08
2.02801e-09
3.28272e-08
1.90427e-09
3.24429e-08
1.7941e-09
3.20589e-08
1.69604e-09
3.16765e-08
1.6085e-09
3.12967e-08
1.52994e-09
3.09202e-08
1.45897e-09
3.05475e-08
1.3944e-09
3.0179e-08
1.33523e-09
2.98152e-08
1.28068e-09
2.94562e-08
1.23008e-09
2.91023e-08
1.18294e-09
2.87537e-08
1.13884e-09
2.84105e-08
1.09745e-09
2.8073e-08
1.05851e-09
2.77411e-08
1.02178e-09
2.74149e-08
9.87092e-10
2.70945e-08
9.54269e-10
2.678e-08
9.23171e-10
2.64712e-08
8.93671e-10
2.61683e-08
8.65656e-10
2.58711e-08
8.39022e-10
2.55796e-08
8.13676e-10
2.52938e-08
7.89533e-10
2.50135e-08
7.66514e-10
2.47388e-08
7.44547e-10
2.44695e-08
7.23567e-10
2.42055e-08
7.03513e-10
2.39467e-08
6.84328e-10
2.36931e-08
6.6596e-10
2.34445e-08
6.48362e-10
2.32009e-08
6.31489e-10
2.2962e-08
6.15299e-10
2.27279e-08
5.99754e-10
2.24983e-08
5.84819e-10
2.22733e-08
5.70459e-10
2.20527e-08
5.56644e-10
2.18363e-08
5.43344e-10
2.16241e-08
5.30534e-10
2.1416e-08
5.18186e-10
2.12119e-08
5.06278e-10
2.10117e-08
4.94787e-10
2.08153e-08
4.83692e-10
2.06226e-08
4.72974e-10
2.04335e-08
4.62614e-10
2.0248e-08
4.52595e-10
2.00658e-08
4.42901e-10
1.98871e-08
4.33516e-10
1.97116e-08
4.24426e-10
1.95393e-08
4.15618e-10
1.93702e-08
4.07078e-10
1.92041e-08
3.98795e-10
1.9041e-08
3.90757e-10
1.88808e-08
3.82953e-10
1.87234e-08
3.75375e-10
1.85689e-08
3.68011e-10
1.8417e-08
3.60854e-10
1.82679e-08
3.53894e-10
1.81213e-08
3.47125e-10
1.79773e-08
3.40539e-10
1.78357e-08
3.34129e-10
1.76967e-08
3.27888e-10
1.75599e-08
3.21812e-10
1.74256e-08
3.15895e-10
1.72935e-08
3.10131e-10
1.71637e-08
3.04518e-10
1.7036e-08
2.99051e-10
1.69105e-08
2.93727e-10
1.67871e-08
2.88544e-10
1.66657e-08
2.83502e-10
1.65464e-08
2.78598e-10
1.6429e-08
2.73835e-10
1.63135e-08
2.69213e-10
1.61999e-08
2.64738e-10
1.60881e-08
2.60414e-10
1.59781e-08
2.56254e-10
1.58698e-08
2.52273e-10
1.57631e-08
2.48499e-10
1.56579e-08
2.44983e-10
1.55542e-08
2.41829e-10
1.54517e-08
2.39276e-10
1.535e-08
2.37967e-10
1.52479e-08
2.40033e-10
1.51429e-08
2.55938e-10
3.13389e-10
3.62977e-08
2.66718e-09
-3.61342e-08
3.64906e-08
3.01927e-09
3.66774e-08
3.24825e-09
3.68451e-08
3.38663e-09
3.69862e-08
3.45707e-09
3.70935e-08
3.46815e-09
3.7162e-08
3.42697e-09
3.71894e-08
3.34314e-09
3.7176e-08
3.22724e-09
3.71236e-08
3.0895e-09
3.70357e-08
2.93935e-09
3.69166e-08
2.78495e-09
3.67708e-08
2.63282e-09
3.66029e-08
2.48766e-09
3.64168e-08
2.35245e-09
3.62162e-08
2.22864e-09
3.60039e-08
2.11654e-09
3.57823e-08
2.01569e-09
3.55532e-08
1.92513e-09
3.53181e-08
1.84367e-09
3.50779e-08
1.77009e-09
3.48336e-08
1.70325e-09
3.45859e-08
1.64211e-09
3.43354e-08
1.58581e-09
3.40824e-08
1.53361e-09
3.38276e-08
1.48494e-09
3.35712e-08
1.43932e-09
3.33137e-08
1.39637e-09
3.30553e-08
1.35578e-09
3.27965e-08
1.31732e-09
3.25375e-08
1.28078e-09
3.22786e-08
1.24599e-09
3.20201e-08
1.2128e-09
3.17622e-08
1.1811e-09
3.15051e-08
1.15076e-09
3.1249e-08
1.12171e-09
3.09942e-08
1.09384e-09
3.07408e-08
1.0671e-09
3.04889e-08
1.04139e-09
3.02388e-08
1.01667e-09
2.99904e-08
9.92873e-10
2.9744e-08
9.69946e-10
2.94997e-08
9.47842e-10
2.92575e-08
9.26515e-10
2.90176e-08
9.05925e-10
2.87799e-08
8.86033e-10
2.85446e-08
8.66804e-10
2.83117e-08
8.48205e-10
2.80812e-08
8.30205e-10
2.78533e-08
8.12777e-10
2.76278e-08
7.95892e-10
2.7405e-08
7.79527e-10
2.71846e-08
7.63658e-10
2.69669e-08
7.48263e-10
2.67518e-08
7.33321e-10
2.65392e-08
7.18812e-10
2.63293e-08
7.04719e-10
2.6122e-08
6.91023e-10
2.59172e-08
6.77708e-10
2.57151e-08
6.64758e-10
2.55155e-08
6.5216e-10
2.53185e-08
6.39897e-10
2.51241e-08
6.27958e-10
2.49322e-08
6.1633e-10
2.47428e-08
6.05e-10
2.45559e-08
5.93956e-10
2.43715e-08
5.83189e-10
2.41896e-08
5.72688e-10
2.40101e-08
5.62443e-10
2.3833e-08
5.52444e-10
2.36584e-08
5.42683e-10
2.34861e-08
5.33151e-10
2.33161e-08
5.2384e-10
2.31485e-08
5.14744e-10
2.29832e-08
5.05854e-10
2.28202e-08
4.97165e-10
2.26594e-08
4.8867e-10
2.25008e-08
4.80363e-10
2.23445e-08
4.7224e-10
2.21903e-08
4.64297e-10
2.20383e-08
4.56528e-10
2.18884e-08
4.48931e-10
2.17407e-08
4.41503e-10
2.1595e-08
4.34244e-10
2.14513e-08
4.27151e-10
2.13097e-08
4.20225e-10
2.117e-08
4.13469e-10
2.10324e-08
4.06886e-10
2.08966e-08
4.00482e-10
2.07628e-08
3.94266e-10
2.06308e-08
3.88254e-10
2.05006e-08
3.82468e-10
2.03721e-08
3.76947e-10
2.02454e-08
3.71758e-10
2.01201e-08
3.67038e-10
1.99963e-08
3.63099e-10
1.98735e-08
3.60755e-10
1.9751e-08
3.62552e-10
1.96291e-08
3.77861e-10
4.22503e-10
3.7041e-08
2.52977e-09
-3.69035e-08
3.72134e-08
2.84686e-09
3.73925e-08
3.06908e-09
3.75664e-08
3.21273e-09
3.77287e-08
3.29484e-09
3.78731e-08
3.32368e-09
3.79947e-08
3.30542e-09
3.80899e-08
3.2479e-09
3.81572e-08
3.15998e-09
3.81963e-08
3.05043e-09
3.82082e-08
2.9274e-09
3.81951e-08
2.79808e-09
3.81595e-08
2.6684e-09
3.81044e-08
2.54282e-09
3.80324e-08
2.42437e-09
3.79463e-08
2.31475e-09
3.78482e-08
2.21464e-09
3.774e-08
2.12394e-09
3.7623e-08
2.04207e-09
3.74985e-08
1.96818e-09
3.73673e-08
1.9013e-09
3.72301e-08
1.84048e-09
3.70874e-08
1.78483e-09
3.69396e-08
1.7336e-09
3.67871e-08
1.68612e-09
3.66302e-08
1.64184e-09
3.64692e-08
1.60032e-09
3.63043e-08
1.56121e-09
3.61359e-08
1.52421e-09
3.59641e-08
1.48908e-09
3.57893e-08
1.45562e-09
3.56116e-08
1.42368e-09
3.54313e-08
1.39311e-09
3.52486e-08
1.3638e-09
3.50637e-08
1.33564e-09
3.48769e-08
1.30855e-09
3.46883e-08
1.28245e-09
3.44981e-08
1.25726e-09
3.43066e-08
1.23294e-09
3.41138e-08
1.20941e-09
3.39201e-08
1.18664e-09
3.37254e-08
1.16457e-09
3.35301e-08
1.14316e-09
3.33342e-08
1.12239e-09
3.3138e-08
1.1022e-09
3.29414e-08
1.08258e-09
3.27447e-08
1.06349e-09
3.2548e-08
1.04491e-09
3.23514e-08
1.02681e-09
3.2155e-08
1.00917e-09
3.19589e-08
9.91971e-10
3.17633e-08
9.75192e-10
3.15681e-08
9.58815e-10
3.13736e-08
9.42826e-10
3.11797e-08
9.27206e-10
3.09865e-08
9.11943e-10
3.07942e-08
8.97022e-10
3.06028e-08
8.82431e-10
3.04124e-08
8.68158e-10
3.02229e-08
8.5419e-10
3.00346e-08
8.40517e-10
2.98474e-08
8.2713e-10
2.96613e-08
8.14017e-10
2.94765e-08
8.0117e-10
2.92929e-08
7.8858e-10
2.91106e-08
7.76239e-10
2.89296e-08
7.64138e-10
2.87501e-08
7.5227e-10
2.85719e-08
7.40627e-10
2.83951e-08
7.29203e-10
2.82198e-08
7.17992e-10
2.8046e-08
7.06986e-10
2.78736e-08
6.9618e-10
2.77028e-08
6.85568e-10
2.75335e-08
6.75146e-10
2.73658e-08
6.64908e-10
2.71996e-08
6.5485e-10
2.7035e-08
6.44968e-10
2.6872e-08
6.35258e-10
2.67106e-08
6.25718e-10
2.65507e-08
6.16344e-10
2.63925e-08
6.07136e-10
2.62359e-08
5.98092e-10
2.6081e-08
5.89212e-10
2.59276e-08
5.80498e-10
2.57759e-08
5.71951e-10
2.56258e-08
5.63577e-10
2.54773e-08
5.5538e-10
2.53304e-08
5.4737e-10
2.51851e-08
5.39561e-10
2.50414e-08
5.31972e-10
2.48992e-08
5.24632e-10
2.47586e-08
5.1759e-10
2.46194e-08
5.1093e-10
2.44816e-08
5.04813e-10
2.43451e-08
4.99598e-10
2.42097e-08
4.96172e-10
2.40753e-08
4.97003e-10
2.39441e-08
5.0903e-10
5.37041e-10
3.77895e-08
2.41267e-09
-3.76724e-08
3.79406e-08
2.69581e-09
3.81036e-08
2.90605e-09
3.82671e-08
3.04929e-09
3.84249e-08
3.13703e-09
3.8572e-08
3.17655e-09
3.87041e-08
3.17335e-09
3.88179e-08
3.13402e-09
3.89118e-08
3.06612e-09
3.8985e-08
2.97726e-09
3.90378e-08
2.87458e-09
3.90714e-08
2.76448e-09
3.90875e-08
2.65231e-09
3.9088e-08
2.54227e-09
3.90751e-08
2.43729e-09
3.90506e-08
2.33922e-09
3.90163e-08
2.24893e-09
3.89736e-08
2.16664e-09
3.89237e-08
2.09203e-09
3.88673e-08
2.02452e-09
3.88053e-08
1.96336e-09
3.8738e-08
1.90777e-09
3.86658e-08
1.85701e-09
3.8589e-08
1.81038e-09
3.85078e-08
1.76731e-09
3.84224e-08
1.72729e-09
3.83328e-08
1.68989e-09
3.82393e-08
1.65476e-09
3.81418e-08
1.62163e-09
3.80407e-08
1.59026e-09
3.79359e-08
1.56044e-09
3.78275e-08
1.53201e-09
3.77158e-08
1.50484e-09
3.76008e-08
1.4788e-09
3.74826e-08
1.4538e-09
3.73614e-08
1.42974e-09
3.72373e-08
1.40654e-09
3.71105e-08
1.38414e-09
3.69809e-08
1.36247e-09
3.68489e-08
1.34147e-09
3.67144e-08
1.32111e-09
3.65776e-08
1.30133e-09
3.64387e-08
1.28209e-09
3.62977e-08
1.26335e-09
3.61549e-08
1.2451e-09
3.60102e-08
1.22728e-09
3.58638e-08
1.20989e-09
3.57158e-08
1.19289e-09
3.55663e-08
1.17626e-09
3.54155e-08
1.15999e-09
3.52634e-08
1.14405e-09
3.51102e-08
1.12842e-09
3.49559e-08
1.1131e-09
3.48007e-08
1.09807e-09
3.46446e-08
1.08331e-09
3.44877e-08
1.06881e-09
3.43301e-08
1.05457e-09
3.4172e-08
1.04057e-09
3.40134e-08
1.0268e-09
3.38543e-08
1.01325e-09
3.36949e-08
9.99915e-10
3.35353e-08
9.8679e-10
3.33754e-08
9.73864e-10
3.32154e-08
9.61132e-10
3.30554e-08
9.48587e-10
3.28955e-08
9.36222e-10
3.27356e-08
9.24033e-10
3.25758e-08
9.12014e-10
3.24163e-08
9.0016e-10
3.2257e-08
8.88466e-10
3.20981e-08
8.76928e-10
3.19395e-08
8.65542e-10
3.17814e-08
8.54304e-10
3.16238e-08
8.4321e-10
3.14666e-08
8.32258e-10
3.13101e-08
8.21444e-10
3.11542e-08
8.10766e-10
3.09989e-08
8.00221e-10
3.08444e-08
7.89809e-10
3.06906e-08
7.79528e-10
3.05375e-08
7.69377e-10
3.03853e-08
7.59357e-10
3.02339e-08
7.49468e-10
3.00834e-08
7.39713e-10
2.99338e-08
7.30095e-10
2.97852e-08
7.20619e-10
2.96375e-08
7.11291e-10
2.94907e-08
7.0212e-10
2.9345e-08
6.9312e-10
2.92002e-08
6.84306e-10
2.90565e-08
6.75705e-10
2.89138e-08
6.6735e-10
2.87721e-08
6.59299e-10
2.86314e-08
6.51647e-10
2.84916e-08
6.44571e-10
2.83528e-08
6.38439e-10
2.82148e-08
6.34091e-10
2.80783e-08
6.33519e-10
2.79466e-08
6.4076e-10
6.51628e-10
3.85451e-08
2.31077e-09
-3.84432e-08
3.86778e-08
2.56311e-09
3.88246e-08
2.75926e-09
3.89748e-08
2.89912e-09
3.91223e-08
2.98952e-09
3.92625e-08
3.03628e-09
3.93917e-08
3.04421e-09
3.95069e-08
3.01884e-09
3.96064e-08
2.96661e-09
3.96895e-08
2.89413e-09
3.97564e-08
2.80771e-09
3.98078e-08
2.71305e-09
3.98451e-08
2.61503e-09
3.98698e-08
2.51753e-09
3.98837e-08
2.42343e-09
3.98883e-08
2.3346e-09
3.98851e-08
2.25212e-09
3.98754e-08
2.1764e-09
3.986e-08
2.10736e-09
3.98399e-08
2.04465e-09
3.98155e-08
1.98772e-09
3.97874e-08
1.93595e-09
3.97556e-08
1.88872e-09
3.97206e-08
1.84544e-09
3.96823e-08
1.80558e-09
3.96409e-08
1.76869e-09
3.95964e-08
1.73438e-09
3.95489e-08
1.7023e-09
3.94983e-08
1.67219e-09
3.94448e-08
1.64381e-09
3.93882e-08
1.61697e-09
3.93288e-08
1.59149e-09
3.92664e-08
1.56724e-09
3.92011e-08
1.54409e-09
3.91329e-08
1.52194e-09
3.9062e-08
1.5007e-09
3.89882e-08
1.48028e-09
3.89118e-08
1.46062e-09
3.88326e-08
1.44163e-09
3.87508e-08
1.42328e-09
3.86664e-08
1.4055e-09
3.85795e-08
1.38825e-09
3.84901e-08
1.37148e-09
3.83983e-08
1.35517e-09
3.83041e-08
1.33927e-09
3.82076e-08
1.32375e-09
3.81089e-08
1.30858e-09
3.80081e-08
1.29375e-09
3.79051e-08
1.27922e-09
3.78001e-08
1.26498e-09
3.76932e-08
1.251e-09
3.75843e-08
1.23727e-09
3.74737e-08
1.22377e-09
3.73612e-08
1.21049e-09
3.72471e-08
1.19742e-09
3.71314e-08
1.18454e-09
3.70141e-08
1.17184e-09
3.68954e-08
1.15931e-09
3.67752e-08
1.14694e-09
3.66538e-08
1.13473e-09
3.6531e-08
1.12266e-09
3.64071e-08
1.11074e-09
3.6282e-08
1.09894e-09
3.61559e-08
1.08727e-09
3.60287e-08
1.07572e-09
3.59006e-08
1.06429e-09
3.57717e-08
1.05296e-09
3.5642e-08
1.04175e-09
3.55115e-08
1.03063e-09
3.53804e-08
1.01961e-09
3.52486e-08
1.00869e-09
3.51163e-08
9.97857e-10
3.49835e-08
9.87114e-10
3.48502e-08
9.76457e-10
3.47166e-08
9.65884e-10
3.45827e-08
9.55394e-10
3.44484e-08
9.44986e-10
3.4314e-08
9.34657e-10
3.41794e-08
9.24409e-10
3.40447e-08
9.1424e-10
3.39099e-08
9.04153e-10
3.37751e-08
8.94148e-10
3.36404e-08
8.84228e-10
3.35057e-08
8.74397e-10
3.33711e-08
8.64659e-10
3.32367e-08
8.55022e-10
3.31025e-08
8.45495e-10
3.29685e-08
8.36088e-10
3.28348e-08
8.26818e-10
3.27014e-08
8.17705e-10
3.25684e-08
8.08778e-10
3.24356e-08
8.00076e-10
3.23033e-08
7.91663e-10
3.21713e-08
7.83637e-10
3.20397e-08
7.76178e-10
3.19085e-08
7.69628e-10
3.17779e-08
7.64673e-10
3.16488e-08
7.62611e-10
3.15248e-08
7.64745e-10
7.60639e-10
3.93082e-08
2.22046e-09
-3.92179e-08
3.94256e-08
2.44565e-09
3.95577e-08
2.62716e-09
3.96951e-08
2.76181e-09
3.98316e-08
2.85294e-09
3.99631e-08
2.90482e-09
4.00859e-08
2.92145e-09
4.01972e-08
2.90747e-09
4.02955e-08
2.86829e-09
4.038e-08
2.80963e-09
4.04507e-08
2.73703e-09
4.05082e-08
2.65558e-09
4.05535e-08
2.56969e-09
4.05881e-08
2.48298e-09
4.06133e-08
2.3982e-09
4.06306e-08
2.31726e-09
4.06414e-08
2.24135e-09
4.06468e-08
2.17105e-09
4.06476e-08
2.1065e-09
4.06448e-08
2.04752e-09
4.06387e-08
1.99376e-09
4.06299e-08
1.94474e-09
4.06187e-08
1.89996e-09
4.06052e-08
1.85894e-09
4.05896e-08
1.82121e-09
4.05719e-08
1.78637e-09
4.05522e-08
1.75407e-09
4.05305e-08
1.72399e-09
4.05068e-08
1.69587e-09
4.04811e-08
1.66949e-09
4.04535e-08
1.64466e-09
4.04237e-08
1.62121e-09
4.0392e-08
1.599e-09
4.03582e-08
1.57791e-09
4.03223e-08
1.55783e-09
4.02843e-08
1.53867e-09
4.02443e-08
1.52034e-09
4.02021e-08
1.50277e-09
4.01578e-08
1.48589e-09
4.01115e-08
1.46964e-09
4.0063e-08
1.45397e-09
4.00124e-08
1.43882e-09
3.99597e-08
1.42416e-09
3.9905e-08
1.40993e-09
3.98481e-08
1.39611e-09
3.97892e-08
1.38266e-09
3.97283e-08
1.36955e-09
3.96653e-08
1.35675e-09
3.96002e-08
1.34423e-09
3.95332e-08
1.33198e-09
3.94643e-08
1.31997e-09
3.93933e-08
1.30819e-09
3.93205e-08
1.2966e-09
3.92458e-08
1.28521e-09
3.91692e-08
1.27398e-09
3.90909e-08
1.26292e-09
3.90107e-08
1.252e-09
3.89288e-08
1.24122e-09
3.88452e-08
1.23056e-09
3.87599e-08
1.22002e-09
3.8673e-08
1.20958e-09
3.85845e-08
1.19924e-09
3.84944e-08
1.18899e-09
3.84029e-08
1.17882e-09
3.83099e-08
1.16873e-09
3.82155e-08
1.15871e-09
3.81197e-08
1.14875e-09
3.80226e-08
1.13885e-09
3.79242e-08
1.12901e-09
3.78246e-08
1.11922e-09
3.77238e-08
1.10948e-09
3.76219e-08
1.09978e-09
3.75189e-08
1.09012e-09
3.74148e-08
1.08051e-09
3.73098e-08
1.07093e-09
3.72038e-08
1.06138e-09
3.70969e-08
1.05187e-09
3.69892e-08
1.04239e-09
3.68806e-08
1.03294e-09
3.67713e-08
1.02353e-09
3.66613e-08
1.01415e-09
3.65507e-08
1.00481e-09
3.64394e-08
9.95511e-10
3.63275e-08
9.86255e-10
3.62151e-08
9.77049e-10
3.61023e-08
9.67902e-10
3.59889e-08
9.58824e-10
3.58752e-08
9.49827e-10
3.57611e-08
9.4093e-10
3.56466e-08
9.32156e-10
3.55319e-08
9.23535e-10
3.54168e-08
9.1511e-10
3.53016e-08
9.06947e-10
3.51861e-08
8.99144e-10
3.50704e-08
8.91866e-10
3.49546e-08
8.85398e-10
3.48391e-08
8.80214e-10
3.47248e-08
8.76875e-10
3.4615e-08
8.74517e-10
8.59325e-10
4.00792e-08
2.13922e-09
-3.9998e-08
4.01841e-08
2.34077e-09
4.03033e-08
2.50797e-09
4.04288e-08
2.6363e-09
4.0555e-08
2.72676e-09
4.06777e-08
2.78215e-09
4.07934e-08
2.80568e-09
4.08997e-08
2.80117e-09
4.09949e-08
2.77314e-09
4.1078e-08
2.72648e-09
4.1149e-08
2.66603e-09
4.12083e-08
2.59629e-09
4.12567e-08
2.52127e-09
4.12954e-08
2.44428e-09
4.13257e-08
2.36796e-09
4.13487e-08
2.29419e-09
4.13658e-08
2.22424e-09
4.13781e-08
2.15883e-09
4.13863e-08
2.09826e-09
4.13913e-08
2.04252e-09
4.13937e-08
1.9914e-09
4.13938e-08
1.94458e-09
4.13921e-08
1.90167e-09
4.13888e-08
1.86228e-09
4.1384e-08
1.82603e-09
4.13778e-08
1.79256e-09
4.13703e-08
1.76155e-09
4.13616e-08
1.73272e-09
4.13516e-08
1.70584e-09
4.13404e-08
1.68069e-09
4.1328e-08
1.65709e-09
4.13143e-08
1.63489e-09
4.12993e-08
1.61394e-09
4.12831e-08
1.59414e-09
4.12656e-08
1.57537e-09
4.12467e-08
1.55754e-09
4.12265e-08
1.54056e-09
4.12049e-08
1.52437e-09
4.11819e-08
1.50889e-09
4.11575e-08
1.49407e-09
4.11316e-08
1.47984e-09
4.11043e-08
1.46616e-09
4.10754e-08
1.45298e-09
4.10451e-08
1.44026e-09
4.10133e-08
1.42796e-09
4.09799e-08
1.41604e-09
4.0945e-08
1.40448e-09
4.09085e-08
1.39324e-09
4.08704e-08
1.3823e-09
4.08308e-08
1.37163e-09
4.07895e-08
1.36121e-09
4.07467e-08
1.35101e-09
4.07023e-08
1.34102e-09
4.06563e-08
1.33122e-09
4.06086e-08
1.32159e-09
4.05594e-08
1.31212e-09
4.05087e-08
1.30279e-09
4.04563e-08
1.29359e-09
4.04023e-08
1.28451e-09
4.03468e-08
1.27553e-09
4.02898e-08
1.26664e-09
4.02312e-08
1.25784e-09
4.0171e-08
1.24912e-09
4.01094e-08
1.24046e-09
4.00463e-08
1.23186e-09
3.99817e-08
1.22331e-09
3.99156e-08
1.21481e-09
3.98481e-08
1.20634e-09
3.97792e-08
1.19791e-09
3.97089e-08
1.18951e-09
3.96373e-08
1.18113e-09
3.95643e-08
1.17276e-09
3.949e-08
1.16442e-09
3.94144e-08
1.15608e-09
3.93376e-08
1.14775e-09
3.92596e-08
1.13943e-09
3.91803e-08
1.13111e-09
3.90999e-08
1.1228e-09
3.90184e-08
1.11448e-09
3.89357e-08
1.10617e-09
3.8852e-08
1.09786e-09
3.87673e-08
1.08956e-09
3.86815e-08
1.08126e-09
3.85948e-08
1.07298e-09
3.85071e-08
1.06471e-09
3.84186e-08
1.05647e-09
3.83291e-08
1.04827e-09
3.82388e-08
1.04012e-09
3.81477e-08
1.03204e-09
3.80558e-08
1.02406e-09
3.79631e-08
1.0162e-09
3.78698e-08
1.0085e-09
3.77757e-08
1.00105e-09
3.76809e-08
9.93917e-10
3.75855e-08
9.87254e-10
3.74896e-08
9.81265e-10
3.73936e-08
9.76197e-10
3.72985e-08
9.71973e-10
3.72068e-08
9.66301e-10
9.44545e-10
4.08588e-08
2.06527e-09
-4.07849e-08
4.09533e-08
2.24634e-09
4.10612e-08
2.40002e-09
4.11761e-08
2.52147e-09
4.12926e-08
2.61021e-09
4.14069e-08
2.66783e-09
4.15158e-08
2.69678e-09
4.16169e-08
2.70014e-09
4.17083e-08
2.68168e-09
4.17893e-08
2.64552e-09
4.18595e-08
2.59586e-09
4.19191e-08
2.53668e-09
4.19688e-08
2.47155e-09
4.20095e-08
2.40354e-09
4.20424e-08
2.3351e-09
4.20685e-08
2.26809e-09
4.20889e-08
2.20381e-09
4.21047e-08
2.14307e-09
4.21166e-08
2.08631e-09
4.21255e-08
2.03365e-09
4.21319e-08
1.98502e-09
4.21362e-08
1.94022e-09
4.21389e-08
1.89897e-09
4.21403e-08
1.86097e-09
4.21404e-08
1.82591e-09
4.21395e-08
1.79348e-09
4.21376e-08
1.76341e-09
4.21349e-08
1.73545e-09
4.21313e-08
1.70938e-09
4.2127e-08
1.68502e-09
4.21219e-08
1.66219e-09
4.2116e-08
1.64075e-09
4.21094e-08
1.62057e-09
4.2102e-08
1.60153e-09
4.20938e-08
1.58354e-09
4.20849e-08
1.5665e-09
4.20751e-08
1.55033e-09
4.20645e-08
1.53495e-09
4.20531e-08
1.52032e-09
4.20408e-08
1.50635e-09
4.20276e-08
1.49301e-09
4.20136e-08
1.48023e-09
4.19986e-08
1.46798e-09
4.19826e-08
1.45621e-09
4.19657e-08
1.44488e-09
4.19478e-08
1.43396e-09
4.19288e-08
1.42342e-09
4.19088e-08
1.41322e-09
4.18878e-08
1.40334e-09
4.18657e-08
1.39375e-09
4.18425e-08
1.38443e-09
4.18181e-08
1.37536e-09
4.17926e-08
1.3665e-09
4.1766e-08
1.35786e-09
4.17382e-08
1.3494e-09
4.17092e-08
1.34111e-09
4.1679e-08
1.33298e-09
4.16476e-08
1.32499e-09
4.1615e-08
1.31713e-09
4.15811e-08
1.30938e-09
4.15461e-08
1.30173e-09
4.15097e-08
1.29418e-09
4.14721e-08
1.2867e-09
4.14333e-08
1.2793e-09
4.13932e-08
1.27196e-09
4.13518e-08
1.26467e-09
4.13092e-08
1.25743e-09
4.12653e-08
1.25023e-09
4.12202e-08
1.24306e-09
4.11737e-08
1.23592e-09
4.11261e-08
1.22879e-09
4.10772e-08
1.22167e-09
4.1027e-08
1.21457e-09
4.09756e-08
1.20747e-09
4.0923e-08
1.20036e-09
4.08692e-08
1.19326e-09
4.08142e-08
1.18614e-09
4.07579e-08
1.17902e-09
4.07005e-08
1.17189e-09
4.06419e-08
1.16475e-09
4.05822e-08
1.15759e-09
4.05213e-08
1.15043e-09
4.04594e-08
1.14325e-09
4.03963e-08
1.13608e-09
4.03321e-08
1.1289e-09
4.02668e-08
1.12174e-09
4.02005e-08
1.1146e-09
4.01331e-08
1.10749e-09
4.00647e-08
1.10044e-09
3.99953e-08
1.09346e-09
3.99249e-08
1.08659e-09
3.98535e-08
1.07988e-09
3.97812e-08
1.07338e-09
3.97079e-08
1.06717e-09
3.96338e-08
1.06137e-09
3.9559e-08
1.0561e-09
3.94838e-08
1.0514e-09
3.9409e-08
1.04674e-09
3.93362e-08
1.03911e-09
1.015e-09
4.16477e-08
1.99732e-09
-4.15797e-08
4.17334e-08
2.16066e-09
4.18315e-08
2.30184e-09
4.19368e-08
2.41625e-09
4.20445e-08
2.50251e-09
4.2151e-08
2.56132e-09
4.22533e-08
2.59444e-09
4.23492e-08
2.60431e-09
4.24368e-08
2.59402e-09
4.25153e-08
2.56704e-09
4.25842e-08
2.52698e-09
4.26435e-08
2.47732e-09
4.26938e-08
2.42126e-09
4.27358e-08
2.36157e-09
4.27703e-08
2.30056e-09
4.27984e-08
2.24e-09
4.2821e-08
2.1812e-09
4.28391e-08
2.12504e-09
4.28533e-08
2.07204e-09
4.28645e-08
2.02246e-09
4.28732e-08
1.97633e-09
4.28799e-08
1.93356e-09
4.28849e-08
1.89396e-09
4.28885e-08
1.85732e-09
4.28911e-08
1.82338e-09
4.28927e-08
1.7919e-09
4.28934e-08
1.76265e-09
4.28934e-08
1.73542e-09
4.28928e-08
1.71e-09
4.28916e-08
1.68623e-09
4.28898e-08
1.66396e-09
4.28876e-08
1.64304e-09
4.28848e-08
1.62337e-09
4.28815e-08
1.60482e-09
4.28777e-08
1.58731e-09
4.28735e-08
1.57074e-09
4.28687e-08
1.55505e-09
4.28635e-08
1.54017e-09
4.28578e-08
1.52602e-09
4.28516e-08
1.51256e-09
4.28449e-08
1.49972e-09
4.28377e-08
1.48747e-09
4.28299e-08
1.47576e-09
4.28216e-08
1.46454e-09
4.28127e-08
1.45378e-09
4.28032e-08
1.44345e-09
4.27931e-08
1.43351e-09
4.27824e-08
1.42394e-09
4.2771e-08
1.4147e-09
4.2759e-08
1.40577e-09
4.27463e-08
1.39713e-09
4.27329e-08
1.38876e-09
4.27188e-08
1.38062e-09
4.27039e-08
1.37272e-09
4.26883e-08
1.36502e-09
4.26719e-08
1.35751e-09
4.26547e-08
1.35017e-09
4.26367e-08
1.34299e-09
4.26179e-08
1.33596e-09
4.25982e-08
1.32906e-09
4.25776e-08
1.32228e-09
4.25562e-08
1.31561e-09
4.25339e-08
1.30903e-09
4.25107e-08
1.30254e-09
4.24865e-08
1.29612e-09
4.24614e-08
1.28978e-09
4.24353e-08
1.28349e-09
4.24083e-08
1.27725e-09
4.23803e-08
1.27105e-09
4.23514e-08
1.26489e-09
4.23214e-08
1.25876e-09
4.22904e-08
1.25265e-09
4.22584e-08
1.24655e-09
4.22254e-08
1.24046e-09
4.21914e-08
1.23438e-09
4.21564e-08
1.22831e-09
4.21203e-08
1.22222e-09
4.20832e-08
1.21614e-09
4.2045e-08
1.21004e-09
4.20058e-08
1.20394e-09
4.19656e-08
1.19783e-09
4.19243e-08
1.1917e-09
4.1882e-08
1.18557e-09
4.18386e-08
1.17944e-09
4.17942e-08
1.17331e-09
4.17488e-08
1.16718e-09
4.17023e-08
1.16108e-09
4.16548e-08
1.15501e-09
4.16062e-08
1.14899e-09
4.15566e-08
1.14304e-09
4.1506e-08
1.13721e-09
4.14544e-08
1.13151e-09
4.14018e-08
1.12602e-09
4.13481e-08
1.1208e-09
4.12936e-08
1.11593e-09
4.12382e-08
1.11146e-09
4.11823e-08
1.10727e-09
4.11265e-08
1.10256e-09
4.10714e-08
1.09421e-09
1.07105e-09
4.24464e-08
1.93443e-09
-4.23835e-08
4.25247e-08
2.08237e-09
4.26143e-08
2.21217e-09
4.2711e-08
2.31961e-09
4.28106e-08
2.4029e-09
4.29098e-08
2.46208e-09
4.30059e-08
2.49832e-09
4.30967e-08
2.51351e-09
4.31806e-08
2.51017e-09
4.32564e-08
2.49118e-09
4.33238e-08
2.45964e-09
4.33825e-08
2.41856e-09
4.3433e-08
2.37078e-09
4.34758e-08
2.31881e-09
4.35115e-08
2.26478e-09
4.35412e-08
2.21037e-09
4.35655e-08
2.15689e-09
4.35853e-08
2.10524e-09
4.36013e-08
2.05601e-09
4.36142e-08
2.00954e-09
4.36246e-08
1.96596e-09
4.36329e-08
1.92529e-09
4.36394e-08
1.88741e-09