/*--------------------------------*- C++ -*----------------------------------*\
| =========                 |                                                 |
| \\      /  F ield         | OpenFOAM: The Open Source CFD Toolbox           |
|  \\    /   O peration     | Version:  2.3.0                                 |
|   \\  /    A nd           | Web:      www.OpenFOAM.org                      |
|    \\/     M anipulation  |                                                 |
\*---------------------------------------------------------------------------*/
FoamFile
{
    version     2.0;
    format      ascii;
    class       volVectorField;
    location    "0.75";
    object      U;
}
// * * * * * * * * * * * * * * * * * * * * * * * * * * * * * * * * * * * * * //

dimensions      [0 1 -1 0 0 0 0];

internalField   nonuniform List<vector> 
6875
(
(0.171143 0.00596358 0)
(0.154685 0.00603354 0)
(0.138863 0.00561491 0)
(0.123865 0.00501636 0)
(0.110102 0.00435519 0)
(0.0977425 0.00368472 0)
(0.0867991 0.00304169 0)
(0.0772375 0.00245148 0)
(0.0690018 0.00192956 0)
(0.062007 0.00148375 0)
(0.0561392 0.0011157 0)
(0.0512656 0.000821917 0)
(0.0472451 0.000594986 0)
(0.0439385 0.000425163 0)
(0.0412158 0.000301906 0)
(0.0389611 0.000215075 0)
(0.0370756 0.000155678 0)
(0.0354778 0.000116209 0)
(0.0341028 9.07046e-05 0)
(0.0329004 7.46231e-05 0)
(0.0318326 6.46428e-05 0)
(0.0308712 5.84342e-05 0)
(0.0299953 5.44345e-05 0)
(0.0291897 5.16458e-05 0)
(0.0284432 4.94662e-05 0)
(0.0277474 4.75577e-05 0)
(0.027096 4.57489e-05 0)
(0.026484 4.39665e-05 0)
(0.0259073 4.21906e-05 0)
(0.0253625 4.04275e-05 0)
(0.0248469 3.86928e-05 0)
(0.0243579 3.70034e-05 0)
(0.0238933 3.53732e-05 0)
(0.0234511 3.38119e-05 0)
(0.0230295 3.23254e-05 0)
(0.0226271 3.09159e-05 0)
(0.0222423 2.95833e-05 0)
(0.021874 2.83256e-05 0)
(0.0215208 2.71397e-05 0)
(0.0211818 2.60217e-05 0)
(0.020856 2.49677e-05 0)
(0.0205426 2.39735e-05 0)
(0.0202407 2.30349e-05 0)
(0.0199497 2.21483e-05 0)
(0.0196689 2.13098e-05 0)
(0.0193977 2.05163e-05 0)
(0.0191356 1.97644e-05 0)
(0.018882 1.90514e-05 0)
(0.0186365 1.83746e-05 0)
(0.0183987 1.77315e-05 0)
(0.0181681 1.712e-05 0)
(0.0179444 1.6538e-05 0)
(0.0177273 1.59836e-05 0)
(0.0175164 1.5455e-05 0)
(0.0173115 1.49508e-05 0)
(0.0171123 1.44694e-05 0)
(0.0169185 1.40094e-05 0)
(0.0167298 1.35697e-05 0)
(0.0165462 1.3149e-05 0)
(0.0163672 1.27463e-05 0)
(0.0161929 1.23606e-05 0)
(0.0160229 1.1991e-05 0)
(0.015857 1.16367e-05 0)
(0.0156952 1.12968e-05 0)
(0.0155373 1.09707e-05 0)
(0.0153831 1.06575e-05 0)
(0.0152324 1.03568e-05 0)
(0.0150852 1.0068e-05 0)
(0.0149414 9.79036e-06 0)
(0.0148007 9.52355e-06 0)
(0.0146631 9.26704e-06 0)
(0.0145285 9.02042e-06 0)
(0.0143967 8.78326e-06 0)
(0.0142678 8.55522e-06 0)
(0.0141415 8.33595e-06 0)
(0.0140178 8.12513e-06 0)
(0.0138966 7.92249e-06 0)
(0.0137778 7.72775e-06 0)
(0.0136613 7.54072e-06 0)
(0.0135471 7.36121e-06 0)
(0.0134351 7.18897e-06 0)
(0.0133251 7.02393e-06 0)
(0.0132172 6.86596e-06 0)
(0.0131112 6.71498e-06 0)
(0.0130071 6.57095e-06 0)
(0.0129048 6.43387e-06 0)
(0.0128043 6.3038e-06 0)
(0.0127053 6.18087e-06 0)
(0.012608 6.06528e-06 0)
(0.0125121 5.95738e-06 0)
(0.0124176 5.85771e-06 0)
(0.0123245 5.76717e-06 0)
(0.0122325 5.6873e-06 0)
(0.0121416 5.62093e-06 0)
(0.0120516 5.57372e-06 0)
(0.0119622 5.55828e-06 0)
(0.0118729 5.61105e-06 0)
(0.0117816 5.79378e-06 0)
(0.0117054 5.00297e-06 0)
(0.0114562 3.48257e-05 0)
(0.189977 0.00940821 0)
(0.187633 0.00991306 0)
(0.183676 0.00968741 0)
(0.178469 0.00918928 0)
(0.172513 0.00855648 0)
(0.166161 0.00783519 0)
(0.159635 0.00706338 0)
(0.153104 0.00627592 0)
(0.146703 0.00550207 0)
(0.140532 0.00476579 0)
(0.13466 0.00408586 0)
(0.129127 0.00347519 0)
(0.123951 0.00294058 0)
(0.119135 0.00248322 0)
(0.114671 0.00209968 0)
(0.110542 0.0017833 0)
(0.106728 0.00152551 0)
(0.103205 0.00131711 0)
(0.0999484 0.00114913 0)
(0.0969343 0.00101349 0)
(0.0941396 0.00090324 0)
(0.0915428 0.00081273 0)
(0.0891241 0.000737469 0)
(0.0868657 0.000674006 0)
(0.0847519 0.000619732 0)
(0.0827685 0.000572703 0)
(0.0809029 0.000531478 0)
(0.0791442 0.000494986 0)
(0.0774826 0.000462422 0)
(0.0759094 0.000433173 0)
(0.074417 0.000406761 0)
(0.0729987 0.000382805 0)
(0.0716485 0.000360995 0)
(0.0703609 0.000341073 0)
(0.0691312 0.00032282 0)
(0.067955 0.00030605 0)
(0.0668285 0.0002906 0)
(0.0657482 0.000276332 0)
(0.0647109 0.000263122 0)
(0.0637139 0.000250864 0)
(0.0627544 0.000239464 0)
(0.0618301 0.000228838 0)
(0.0609389 0.000218915 0)
(0.0600787 0.00020963 0)
(0.0592479 0.000200927 0)
(0.0584447 0.000192755 0)
(0.0576676 0.000185068 0)
(0.0569152 0.000177828 0)
(0.0561862 0.000170998 0)
(0.0554794 0.000164547 0)
(0.0547937 0.000158445 0)
(0.054128 0.000152666 0)
(0.0534814 0.000147187 0)
(0.0528531 0.000141987 0)
(0.0522421 0.000137046 0)
(0.0516476 0.000132346 0)
(0.0510691 0.000127872 0)
(0.0505057 0.000123608 0)
(0.0499569 0.000119541 0)
(0.049422 0.00011566 0)
(0.0489004 0.000111951 0)
(0.0483917 0.000108406 0)
(0.0478954 0.000105014 0)
(0.0474109 0.000101767 0)
(0.0469378 9.86554e-05 0)
(0.0464758 9.5673e-05 0)
(0.0460243 9.28122e-05 0)
(0.0455831 9.00667e-05 0)
(0.0451517 8.74303e-05 0)
(0.0447299 8.48975e-05 0)
(0.0443172 8.24631e-05 0)
(0.0439135 8.01223e-05 0)
(0.0435183 7.78706e-05 0)
(0.0431315 7.57039e-05 0)
(0.0427527 7.36184e-05 0)
(0.0423818 7.16106e-05 0)
(0.0420184 6.96771e-05 0)
(0.0416622 6.7815e-05 0)
(0.0413132 6.60216e-05 0)
(0.0409711 6.42943e-05 0)
(0.0406356 6.2631e-05 0)
(0.0403065 6.10296e-05 0)
(0.0399837 5.94883e-05 0)
(0.0396669 5.80058e-05 0)
(0.039356 5.65808e-05 0)
(0.0390508 5.52125e-05 0)
(0.038751 5.39003e-05 0)
(0.0384565 5.26441e-05 0)
(0.0381671 5.14444e-05 0)
(0.0378825 5.03025e-05 0)
(0.0376026 4.92208e-05 0)
(0.0373271 4.82036e-05 0)
(0.0370558 4.7259e-05 0)
(0.0367883 4.64018e-05 0)
(0.0365242 4.56636e-05 0)
(0.0362631 4.51184e-05 0)
(0.0360037 4.49644e-05 0)
(0.0357421 4.5704e-05 0)
(0.0354989 5.04099e-05 0)
(0.0349973 0.000120214 0)
(0.192963 0.00904968 0)
(0.193734 0.0100024 0)
(0.193839 0.0103316 0)
(0.193132 0.0103329 0)
(0.191731 0.0101061 0)
(0.18976 0.00968962 0)
(0.187312 0.0091285 0)
(0.184477 0.00847245 0)
(0.181352 0.00776673 0)
(0.178024 0.00704969 0)
(0.174572 0.00635212 0)
(0.171062 0.00569665 0)
(0.167544 0.00509772 0)
(0.164058 0.00456233 0)
(0.160633 0.00409152 0)
(0.157289 0.00368205 0)
(0.154038 0.00332813 0)
(0.150888 0.00302276 0)
(0.147843 0.0027588 0)
(0.144903 0.00252963 0)
(0.142066 0.00232942 0)
(0.139332 0.0021533 0)
(0.136697 0.00199728 0)
(0.134158 0.00185813 0)
(0.131711 0.0017333 0)
(0.129354 0.00162074 0)
(0.127081 0.00151878 0)
(0.12489 0.0014261 0)
(0.122778 0.00134158 0)
(0.120741 0.0012643 0)
(0.118775 0.00119344 0)
(0.116878 0.00112835 0)
(0.115047 0.00106842 0)
(0.113278 0.00101313 0)
(0.111568 0.000962027 0)
(0.109915 0.0009147 0)
(0.108316 0.000870789 0)
(0.106769 0.000829974 0)
(0.105271 0.000791969 0)
(0.103819 0.000756517 0)
(0.102413 0.000723392 0)
(0.101048 0.00069239 0)
(0.0997251 0.000663328 0)
(0.0984406 0.000636043 0)
(0.0971932 0.000610388 0)
(0.0959812 0.000586232 0)
(0.0948031 0.000563455 0)
(0.0936574 0.000541951 0)
(0.0925428 0.000521623 0)
(0.0914579 0.000502383 0)
(0.0904015 0.000484152 0)
(0.0893725 0.000466857 0)
(0.0883697 0.000450434 0)
(0.0873921 0.000434821 0)
(0.0864388 0.000419965 0)
(0.0855087 0.000405816 0)
(0.0846011 0.000392327 0)
(0.0837151 0.000379457 0)
(0.0828498 0.000367166 0)
(0.0820046 0.00035542 0)
(0.0811787 0.000344186 0)
(0.0803715 0.000333433 0)
(0.0795823 0.000323133 0)
(0.0788106 0.000313261 0)
(0.0780556 0.000303792 0)
(0.077317 0.000294705 0)
(0.0765942 0.000285979 0)
(0.0758866 0.000277594 0)
(0.0751938 0.000269533 0)
(0.0745153 0.00026178 0)
(0.0738507 0.000254318 0)
(0.0731997 0.000247135 0)
(0.0725617 0.000240215 0)
(0.0719365 0.000233548 0)
(0.0713236 0.000227122 0)
(0.0707227 0.000220925 0)
(0.0701335 0.000214948 0)
(0.0695556 0.000209182 0)
(0.0689887 0.000203618 0)
(0.0684326 0.00019825 0)
(0.067887 0.000193068 0)
(0.0673515 0.000188069 0)
(0.0668259 0.000183245 0)
(0.0663099 0.000178591 0)
(0.0658032 0.000174105 0)
(0.0653057 0.000169781 0)
(0.064817 0.000165619 0)
(0.0643368 0.000161617 0)
(0.063865 0.000157775 0)
(0.0634011 0.000154094 0)
(0.062945 0.000150582 0)
(0.0624964 0.000147246 0)
(0.0620548 0.000144105 0)
(0.0616199 0.000141195 0)
(0.0611912 0.000138591 0)
(0.0607679 0.00013647 0)
(0.0603485 0.000135309 0)
(0.0599293 0.000136563 0)
(0.0595235 0.000151038 0)
(0.0588738 0.000238521 0)
(0.193987 0.00841718 0)
(0.195145 0.00946975 0)
(0.196186 0.0100234 0)
(0.196892 0.0102623 0)
(0.197244 0.0102692 0)
(0.19725 0.0100761 0)
(0.196907 0.00971918 0)
(0.196224 0.00924126 0)
(0.195227 0.00868435 0)
(0.193956 0.00808583 0)
(0.192455 0.0074775 0)
(0.190768 0.00688453 0)
(0.188938 0.00632492 0)
(0.187 0.00580972 0)
(0.184988 0.00534402 0)
(0.182926 0.00492832 0)
(0.180836 0.00456002 0)
(0.178732 0.00423467 0)
(0.176625 0.00394706 0)
(0.174525 0.00369189 0)
(0.172436 0.00346426 0)
(0.170364 0.00325985 0)
(0.168311 0.00307501 0)
(0.166281 0.00290677 0)
(0.164276 0.0027527 0)
(0.162296 0.00261088 0)
(0.160343 0.00247976 0)
(0.158419 0.0023581 0)
(0.156525 0.00224489 0)
(0.154661 0.00213929 0)
(0.152828 0.00204061 0)
(0.151026 0.00194824 0)
(0.149255 0.00186166 0)
(0.147516 0.00178039 0)
(0.14581 0.00170403 0)
(0.144135 0.0016322 0)
(0.142491 0.00156456 0)
(0.140879 0.00150081 0)
(0.139299 0.00144065 0)
(0.137749 0.00138384 0)
(0.136229 0.00133014 0)
(0.134739 0.00127933 0)
(0.133279 0.0012312 0)
(0.131848 0.00118559 0)
(0.130445 0.00114231 0)
(0.12907 0.00110121 0)
(0.127722 0.00106215 0)
(0.126401 0.001025 0)
(0.125106 0.000989634 0)
(0.123836 0.000955941 0)
(0.122592 0.000923816 0)
(0.121371 0.000893163 0)
(0.120175 0.000863893 0)
(0.119001 0.000835924 0)
(0.117851 0.000809178 0)
(0.116722 0.000783585 0)
(0.115615 0.000759078 0)
(0.114529 0.000735596 0)
(0.113464 0.000713081 0)
(0.112418 0.000691482 0)
(0.111392 0.000670747 0)
(0.110386 0.000650831 0)
(0.109397 0.00063169 0)
(0.108427 0.000613284 0)
(0.107475 0.000595576 0)
(0.10654 0.00057853 0)
(0.105622 0.000562113 0)
(0.104721 0.000546295 0)
(0.103835 0.000531046 0)
(0.102966 0.00051634 0)
(0.102112 0.000502151 0)
(0.101273 0.000488455 0)
(0.100448 0.000475231 0)
(0.0996385 0.000462457 0)
(0.0988426 0.000450113 0)
(0.0980606 0.000438183 0)
(0.0972921 0.000426649 0)
(0.0965367 0.000415494 0)
(0.0957943 0.000404705 0)
(0.0950645 0.000394268 0)
(0.0943471 0.000384171 0)
(0.0936418 0.000374403 0)
(0.0929484 0.000364953 0)
(0.0922666 0.000355812 0)
(0.0915961 0.000346974 0)
(0.0909368 0.000338432 0)
(0.0902883 0.000330181 0)
(0.0896504 0.000322219 0)
(0.0890228 0.000314546 0)
(0.0884053 0.000307165 0)
(0.0877976 0.000300083 0)
(0.0871994 0.000293317 0)
(0.0866103 0.000286896 0)
(0.0860299 0.000280878 0)
(0.0854577 0.000275386 0)
(0.0848929 0.000270712 0)
(0.084334 0.000267647 0)
(0.0837779 0.000268794 0)
(0.0832339 0.000288739 0)
(0.0824819 0.000374447 0)
(0.194697 0.00791914 0)
(0.195731 0.00891407 0)
(0.19683 0.00950884 0)
(0.19782 0.00982313 0)
(0.198659 0.0099301 0)
(0.19933 0.0098595 0)
(0.199808 0.00963766 0)
(0.200069 0.00929714 0)
(0.200106 0.00887179 0)
(0.199926 0.0083933 0)
(0.199544 0.0078899 0)
(0.198982 0.00738518 0)
(0.198263 0.00689725 0)
(0.197413 0.00643844 0)
(0.196455 0.0060158 0)
(0.19541 0.00563206 0)
(0.194295 0.00528678 0)
(0.193124 0.00497744 0)
(0.191909 0.00470041 0)
(0.190658 0.00445165 0)
(0.189378 0.00422718 0)
(0.188073 0.0040234 0)
(0.186749 0.00383717 0)
(0.185408 0.00366588 0)
(0.184052 0.00350738 0)
(0.182686 0.00335995 0)
(0.18131 0.00322219 0)
(0.179927 0.003093 0)
(0.178539 0.00297148 0)
(0.177147 0.00285688 0)
(0.175754 0.00274858 0)
(0.17436 0.00264607 0)
(0.172968 0.00254889 0)
(0.171578 0.00245665 0)
(0.170192 0.00236899 0)
(0.168812 0.0022856 0)
(0.167437 0.0022062 0)
(0.16607 0.00213053 0)
(0.16471 0.00205835 0)
(0.16336 0.00198946 0)
(0.162018 0.00192364 0)
(0.160687 0.00186072 0)
(0.159367 0.00180053 0)
(0.158058 0.00174292 0)
(0.156761 0.00168773 0)
(0.155476 0.00163485 0)
(0.154204 0.00158414 0)
(0.152944 0.00153548 0)
(0.151697 0.00148878 0)
(0.150464 0.00144392 0)
(0.149244 0.00140082 0)
(0.148038 0.00135938 0)
(0.146846 0.00131952 0)
(0.145668 0.00128116 0)
(0.144503 0.00124424 0)
(0.143353 0.00120867 0)
(0.142216 0.00117441 0)
(0.141093 0.00114137 0)
(0.139985 0.00110952 0)
(0.13889 0.00107878 0)
(0.13781 0.00104912 0)
(0.136743 0.00102048 0)
(0.13569 0.00099282 0)
(0.13465 0.00096609 0)
(0.133625 0.000940253 0)
(0.132612 0.00091527 0)
(0.131613 0.000891104 0)
(0.130628 0.000867719 0)
(0.129656 0.000845085 0)
(0.128696 0.000823168 0)
(0.12775 0.000801941 0)
(0.126816 0.000781374 0)
(0.125896 0.000761443 0)
(0.124987 0.000742122 0)
(0.124092 0.000723387 0)
(0.123208 0.000705217 0)
(0.122337 0.000687592 0)
(0.121478 0.000670491 0)
(0.12063 0.000653897 0)
(0.119795 0.000637793 0)
(0.118971 0.000622163 0)
(0.118159 0.000606994 0)
(0.117358 0.000592274 0)
(0.116568 0.00057799 0)
(0.115789 0.000564134 0)
(0.115022 0.000550698 0)
(0.114265 0.000537677 0)
(0.113518 0.000525068 0)
(0.112783 0.000512871 0)
(0.112057 0.000501092 0)
(0.111341 0.000489742 0)
(0.110636 0.000478845 0)
(0.10994 0.000468441 0)
(0.109253 0.000458614 0)
(0.108574 0.000449534 0)
(0.107904 0.0004416 0)
(0.107241 0.000435886 0)
(0.106583 0.000435843 0)
(0.105939 0.000455898 0)
(0.10512 0.000526465 0)
(0.195297 0.00749193 0)
(0.196164 0.00839054 0)
(0.197144 0.00897558 0)
(0.198107 0.00931666 0)
(0.199005 0.00947169 0)
(0.19982 0.00946823 0)
(0.200529 0.00932789 0)
(0.201107 0.00907689 0)
(0.201539 0.0087435 0)
(0.20182 0.00835483 0)
(0.201953 0.00793545 0)
(0.201947 0.00750644 0)
(0.201815 0.00708457 0)
(0.201571 0.00668189 0)
(0.201232 0.00630599 0)
(0.20081 0.00596062 0)
(0.20032 0.00564662 0)
(0.199772 0.00536275 0)
(0.199175 0.00510656 0)
(0.198535 0.00487502 0)
(0.197858 0.00466495 0)
(0.197148 0.00447335 0)
(0.196407 0.00429753 0)
(0.195638 0.00413518 0)
(0.194844 0.00398436 0)
(0.194026 0.00384349 0)
(0.193186 0.0037113 0)
(0.192324 0.00358673 0)
(0.191443 0.00346895 0)
(0.190543 0.00335726 0)
(0.189627 0.00325109 0)
(0.188695 0.00314997 0)
(0.187749 0.00305347 0)
(0.186789 0.00296125 0)
(0.185817 0.00287299 0)
(0.184835 0.00278844 0)
(0.183842 0.00270733 0)
(0.182841 0.00262945 0)
(0.181832 0.00255461 0)
(0.180816 0.00248263 0)
(0.179794 0.00241334 0)
(0.178768 0.0023466 0)
(0.177737 0.00228226 0)
(0.176703 0.0022202 0)
(0.175666 0.00216031 0)
(0.174628 0.00210248 0)
(0.173588 0.00204661 0)
(0.172549 0.00199261 0)
(0.171509 0.00194038 0)
(0.17047 0.00188986 0)
(0.169433 0.00184097 0)
(0.168397 0.00179364 0)
(0.167364 0.00174779 0)
(0.166334 0.00170337 0)
(0.165308 0.00166033 0)
(0.164285 0.00161859 0)
(0.163266 0.00157812 0)
(0.162252 0.00153886 0)
(0.161242 0.00150076 0)
(0.160238 0.00146379 0)
(0.15924 0.00142789 0)
(0.158247 0.00139303 0)
(0.15726 0.00135917 0)
(0.15628 0.00132627 0)
(0.155306 0.0012943 0)
(0.154339 0.00126322 0)
(0.153379 0.00123301 0)
(0.152426 0.00120362 0)
(0.151481 0.00117504 0)
(0.150542 0.00114723 0)
(0.149612 0.00112018 0)
(0.148689 0.00109384 0)
(0.147774 0.0010682 0)
(0.146867 0.00104324 0)
(0.145968 0.00101894 0)
(0.145077 0.000995267 0)
(0.144194 0.000972211 0)
(0.14332 0.000949751 0)
(0.142454 0.000927871 0)
(0.141596 0.000906554 0)
(0.140747 0.000885787 0)
(0.139906 0.000865556 0)
(0.139074 0.000845849 0)
(0.13825 0.000826657 0)
(0.137435 0.000807971 0)
(0.136629 0.000789785 0)
(0.135831 0.000772095 0)
(0.135041 0.000754901 0)
(0.13426 0.000738207 0)
(0.133488 0.000722022 0)
(0.132723 0.000706363 0)
(0.131967 0.000691261 0)
(0.13122 0.000676773 0)
(0.13048 0.000663002 0)
(0.129747 0.000650162 0)
(0.129022 0.000638736 0)
(0.128304 0.000629968 0)
(0.127591 0.000627521 0)
(0.126897 0.000643111 0)
(0.126052 0.000690673 0)
(0.19582 0.0071267 0)
(0.19655 0.00792889 0)
(0.1974 0.00848765 0)
(0.198271 0.00883624 0)
(0.199115 0.00901607 0)
(0.199913 0.00905184 0)
(0.200642 0.00896284 0)
(0.201285 0.00877137 0)
(0.201827 0.00850179 0)
(0.202262 0.00817781 0)
(0.202589 0.00782104 0)
(0.202812 0.00745024 0)
(0.202938 0.00708066 0)
(0.202979 0.00672367 0)
(0.202944 0.00638688 0)
(0.202844 0.00607455 0)
(0.202689 0.00578829 0)
(0.202487 0.00552778 0)
(0.202245 0.00529145 0)
(0.201967 0.00507704 0)
(0.201659 0.00488201 0)
(0.201322 0.00470386 0)
(0.20096 0.00454025 0)
(0.200572 0.00438911 0)
(0.200162 0.0042487 0)
(0.199729 0.00411754 0)
(0.199274 0.00399441 0)
(0.198799 0.00387831 0)
(0.198303 0.00376843 0)
(0.197787 0.00366409 0)
(0.197252 0.00356473 0)
(0.196698 0.00346987 0)
(0.196127 0.00337914 0)
(0.195538 0.00329217 0)
(0.194933 0.00320868 0)
(0.194311 0.00312841 0)
(0.193674 0.00305112 0)
(0.193022 0.00297662 0)
(0.192356 0.00290472 0)
(0.191677 0.00283525 0)
(0.190985 0.00276808 0)
(0.19028 0.00270306 0)
(0.189564 0.00264007 0)
(0.188838 0.00257902 0)
(0.1881 0.00251979 0)
(0.187354 0.00246229 0)
(0.186598 0.00240644 0)
(0.185833 0.00235217 0)
(0.185061 0.0022994 0)
(0.184281 0.00224807 0)
(0.183495 0.00219812 0)
(0.182702 0.00214948 0)
(0.181903 0.00210212 0)
(0.181099 0.00205597 0)
(0.180291 0.00201099 0)
(0.179478 0.00196715 0)
(0.178662 0.00192439 0)
(0.177842 0.00188269 0)
(0.177019 0.001842 0)
(0.176194 0.00180229 0)
(0.175367 0.00176353 0)
(0.174539 0.00172569 0)
(0.173709 0.00168874 0)
(0.172879 0.00165265 0)
(0.172048 0.0016174 0)
(0.171217 0.00158296 0)
(0.170386 0.0015493 0)
(0.169556 0.00151641 0)
(0.168727 0.00148425 0)
(0.167899 0.00145282 0)
(0.167073 0.00142209 0)
(0.166248 0.00139203 0)
(0.165426 0.00136264 0)
(0.164606 0.0013339 0)
(0.163789 0.00130578 0)
(0.162974 0.00127827 0)
(0.162163 0.00125137 0)
(0.161355 0.00122504 0)
(0.16055 0.00119929 0)
(0.159749 0.00117409 0)
(0.158952 0.00114945 0)
(0.158159 0.00112534 0)
(0.157371 0.00110176 0)
(0.156587 0.00107871 0)
(0.155807 0.00105617 0)
(0.155033 0.00103416 0)
(0.154263 0.00101266 0)
(0.153498 0.000991689 0)
(0.152738 0.000971246 0)
(0.151984 0.000951349 0)
(0.151234 0.000932024 0)
(0.15049 0.000913312 0)
(0.149751 0.00089528 0)
(0.149018 0.000878053 0)
(0.148289 0.000861873 0)
(0.147565 0.000847263 0)
(0.146846 0.000835478 0)
(0.146134 0.000829748 0)
(0.145441 0.00083786 0)
(0.144616 0.000859477 0)
(0.196281 0.00681216 0)
(0.196905 0.00752535 0)
(0.197642 0.00804916 0)
(0.198417 0.00839406 0)
(0.199186 0.0085872 0)
(0.199926 0.00864933 0)
(0.200618 0.00859754 0)
(0.201245 0.00845091 0)
(0.201795 0.00823039 0)
(0.202262 0.00795676 0)
(0.202644 0.00764916 0)
(0.202945 0.00732443 0)
(0.20317 0.0069965 0)
(0.203326 0.00667606 0)
(0.203422 0.00637062 0)
(0.203467 0.00608474 0)
(0.203468 0.00582063 0)
(0.203433 0.00557868 0)
(0.203368 0.00535803 0)
(0.203276 0.00515707 0)
(0.203162 0.00497384 0)
(0.203027 0.00480627 0)
(0.202874 0.00465235 0)
(0.202704 0.00451027 0)
(0.202516 0.00437844 0)
(0.202313 0.00425549 0)
(0.202094 0.00414028 0)
(0.201859 0.00403184 0)
(0.201609 0.00392937 0)
(0.201343 0.0038322 0)
(0.201062 0.00373978 0)
(0.200766 0.00365164 0)
(0.200455 0.00356736 0)
(0.20013 0.00348661 0)
(0.199789 0.00340908 0)
(0.199434 0.00333451 0)
(0.199065 0.00326267 0)
(0.198682 0.00319335 0)
(0.198285 0.00312637 0)
(0.197874 0.00306156 0)
(0.19745 0.00299878 0)
(0.197013 0.00293789 0)
(0.196564 0.00287878 0)
(0.196101 0.00282134 0)
(0.195627 0.00276547 0)
(0.19514 0.00271109 0)
(0.194643 0.0026581 0)
(0.194133 0.00260645 0)
(0.193614 0.00255606 0)
(0.193083 0.00250687 0)
(0.192542 0.00245883 0)
(0.191992 0.00241189 0)
(0.191432 0.002366 0)
(0.190863 0.00232111 0)
(0.190285 0.00227719 0)
(0.189698 0.0022342 0)
(0.189104 0.0021921 0)
(0.188502 0.00215087 0)
(0.187893 0.00211047 0)
(0.187276 0.00207088 0)
(0.186653 0.00203206 0)
(0.186024 0.001994 0)
(0.185388 0.00195668 0)
(0.184747 0.00192007 0)
(0.184101 0.00188414 0)
(0.18345 0.00184889 0)
(0.182795 0.0018143 0)
(0.182135 0.00178034 0)
(0.181471 0.001747 0)
(0.180803 0.00171426 0)
(0.180133 0.00168212 0)
(0.179459 0.00165055 0)
(0.178783 0.00161954 0)
(0.178104 0.00158909 0)
(0.177423 0.00155917 0)
(0.17674 0.00152979 0)
(0.176056 0.00150092 0)
(0.175371 0.00147257 0)
(0.174684 0.00144471 0)
(0.173997 0.00141735 0)
(0.173309 0.00139048 0)
(0.172622 0.00136409 0)
(0.171934 0.00133818 0)
(0.171246 0.00131274 0)
(0.170559 0.00128779 0)
(0.169873 0.00126332 0)
(0.169187 0.00123933 0)
(0.168503 0.00121584 0)
(0.16782 0.00119286 0)
(0.167138 0.00117042 0)
(0.166458 0.00114853 0)
(0.16578 0.00112727 0)
(0.165103 0.0011067 0)
(0.164429 0.00108696 0)
(0.163756 0.0010683 0)
(0.163085 0.00105124 0)
(0.162417 0.00103688 0)
(0.161754 0.00102757 0)
(0.16111 0.00102701 0)
(0.160348 0.00102404 0)
(0.196689 0.00653582 0)
(0.19723 0.00716929 0)
(0.197872 0.00765444 0)
(0.19856 0.00798906 0)
(0.199256 0.00818906 0)
(0.199934 0.00827059 0)
(0.200575 0.00824827 0)
(0.201165 0.00813822 0)
(0.201693 0.00795836 0)
(0.202152 0.00772679 0)
(0.202541 0.00746049 0)
(0.202862 0.00717458 0)
(0.203118 0.0068818 0)
(0.203316 0.00659222 0)
(0.203464 0.00631313 0)
(0.203569 0.00604933 0)
(0.203637 0.00580347 0)
(0.203676 0.0055765 0)
(0.20369 0.00536819 0)
(0.203684 0.00517752 0)
(0.203661 0.00500304 0)
(0.203623 0.00484307 0)
(0.203573 0.00469598 0)
(0.20351 0.00456019 0)
(0.203437 0.00443427 0)
(0.203354 0.00431701 0)
(0.20326 0.00420731 0)
(0.203156 0.00410428 0)
(0.203042 0.00400714 0)
(0.202919 0.00391525 0)
(0.202785 0.00382804 0)
(0.202641 0.00374506 0)
(0.202487 0.00366588 0)
(0.202323 0.00359016 0)
(0.202148 0.00351759 0)
(0.201963 0.00344791 0)
(0.201768 0.00338086 0)
(0.201562 0.00331625 0)
(0.201345 0.00325388 0)
(0.201118 0.00319358 0)
(0.20088 0.0031352 0)
(0.200632 0.00307861 0)
(0.200373 0.00302367 0)
(0.200104 0.00297027 0)
(0.199824 0.00291832 0)
(0.199534 0.00286772 0)
(0.199234 0.00281839 0)
(0.198923 0.00277026 0)
(0.198602 0.00272324 0)
(0.198272 0.00267729 0)
(0.197931 0.00263235 0)
(0.19758 0.00258835 0)
(0.19722 0.00254526 0)
(0.19685 0.00250303 0)
(0.196471 0.00246162 0)
(0.196083 0.00242099 0)
(0.195685 0.00238112 0)
(0.195279 0.00234196 0)
(0.194864 0.00230349 0)
(0.194441 0.00226568 0)
(0.19401 0.00222852 0)
(0.19357 0.00219196 0)
(0.193122 0.00215601 0)
(0.192667 0.00212063 0)
(0.192205 0.0020858 0)
(0.191735 0.00205152 0)
(0.191258 0.00201776 0)
(0.190775 0.00198452 0)
(0.190285 0.00195176 0)
(0.189789 0.0019195 0)
(0.189286 0.0018877 0)
(0.188778 0.00185637 0)
(0.188265 0.00182549 0)
(0.187746 0.00179505 0)
(0.187222 0.00176504 0)
(0.186693 0.00173546 0)
(0.186159 0.00170629 0)
(0.185621 0.00167754 0)
(0.185079 0.0016492 0)
(0.184533 0.00162126 0)
(0.183983 0.00159373 0)
(0.18343 0.00156659 0)
(0.182874 0.00153985 0)
(0.182315 0.00151352 0)
(0.181752 0.00148759 0)
(0.181188 0.00146208 0)
(0.180621 0.00143699 0)
(0.180051 0.00141234 0)
(0.17948 0.00138814 0)
(0.178907 0.00136443 0)
(0.178332 0.00134124 0)
(0.177756 0.00131864 0)
(0.177179 0.0012967 0)
(0.1766 0.00127557 0)
(0.17602 0.00125549 0)
(0.17544 0.00123691 0)
(0.17486 0.00122067 0)
(0.174283 0.00120805 0)
(0.173721 0.00119922 0)
(0.173055 0.00117624 0)
(0.197051 0.00628889 0)
(0.197527 0.00685239 0)
(0.19809 0.00729858 0)
(0.198702 0.00761891 0)
(0.19933 0.00782116 0)
(0.199948 0.00791698 0)
(0.20054 0.00791843 0)
(0.20109 0.00783902 0)
(0.201588 0.00769395 0)
(0.202028 0.00749886 0)
(0.202408 0.00726874 0)
(0.202728 0.00701711 0)
(0.202992 0.0067556 0)
(0.203205 0.00649359 0)
(0.203373 0.00623814 0)
(0.203503 0.00599412 0)
(0.2036 0.0057645 0)
(0.203671 0.00555072 0)
(0.20372 0.00535305 0)
(0.203751 0.00517099 0)
(0.203769 0.00500354 0)
(0.203774 0.00484945 0)
(0.20377 0.00470737 0)
(0.203757 0.00457599 0)
(0.203737 0.00445408 0)
(0.203709 0.00434054 0)
(0.203676 0.0042344 0)
(0.203636 0.00413482 0)
(0.20359 0.00404107 0)
(0.203538 0.00395254 0)
(0.203479 0.00386868 0)
(0.203415 0.00378904 0)
(0.203345 0.00371321 0)
(0.203268 0.00364085 0)
(0.203185 0.00357165 0)
(0.203095 0.00350534 0)
(0.202999 0.00344167 0)
(0.202896 0.00338045 0)
(0.202786 0.00332146 0)
(0.20267 0.00326453 0)
(0.202546 0.00320952 0)
(0.202415 0.00315627 0)
(0.202277 0.00310466 0)
(0.202131 0.00305457 0)
(0.201978 0.0030059 0)
(0.201817 0.00295854 0)
(0.201649 0.00291242 0)
(0.201474 0.00286744 0)
(0.20129 0.00282354 0)
(0.201099 0.00278066 0)
(0.2009 0.00273872 0)
(0.200693 0.00269767 0)
(0.200478 0.00265746 0)
(0.200255 0.00261805 0)
(0.200025 0.00257938 0)
(0.199786 0.00254143 0)
(0.19954 0.00250415 0)
(0.199286 0.00246751 0)
(0.199024 0.00243148 0)
(0.198755 0.00239602 0)
(0.198478 0.00236113 0)
(0.198193 0.00232676 0)
(0.197901 0.0022929 0)
(0.197601 0.00225953 0)
(0.197294 0.00222662 0)
(0.196979 0.00219417 0)
(0.196658 0.00216215 0)
(0.196329 0.00213055 0)
(0.195993 0.00209935 0)
(0.19565 0.00206854 0)
(0.195301 0.00203812 0)
(0.194945 0.00200806 0)
(0.194582 0.00197837 0)
(0.194213 0.00194903 0)
(0.193838 0.00192003 0)
(0.193456 0.00189136 0)
(0.193069 0.00186303 0)
(0.192676 0.00183502 0)
(0.192277 0.00180734 0)
(0.191873 0.00177998 0)
(0.191463 0.00175293 0)
(0.191048 0.00172621 0)
(0.190628 0.0016998 0)
(0.190204 0.00167372 0)
(0.189774 0.00164797 0)
(0.18934 0.00162257 0)
(0.188902 0.00159751 0)
(0.188459 0.00157283 0)
(0.188012 0.00154855 0)
(0.187561 0.00152469 0)
(0.187107 0.0015013 0)
(0.186649 0.00147844 0)
(0.186187 0.00145619 0)
(0.185721 0.00143471 0)
(0.185253 0.00141419 0)
(0.184782 0.00139499 0)
(0.184309 0.00137762 0)
(0.183837 0.00136237 0)
(0.183377 0.0013468 0)
(0.182824 0.0013101 0)
(0.197375 0.00606534 0)
(0.197797 0.00656803 0)
(0.198295 0.00697678 0)
(0.198841 0.00728047 0)
(0.199407 0.0074814 0)
(0.199971 0.00758736 0)
(0.200515 0.00760793 0)
(0.201026 0.00755432 0)
(0.201494 0.00743928 0)
(0.201912 0.00727628 0)
(0.202278 0.0070784 0)
(0.202592 0.00685771 0)
(0.202855 0.00662472 0)
(0.203073 0.00638813 0)
(0.20325 0.00615466 0)
(0.203391 0.00592921 0)
(0.203502 0.00571493 0)
(0.203588 0.00551362 0)
(0.203654 0.00532598 0)
(0.203703 0.00515195 0)
(0.203739 0.00499092 0)
(0.203764 0.00484201 0)
(0.203781 0.00470418 0)
(0.20379 0.00457636 0)
(0.203794 0.00445751 0)
(0.203791 0.00434667 0)
(0.203785 0.00424299 0)
(0.203773 0.00414569 0)
(0.203758 0.00405412 0)
(0.203739 0.00396768 0)
(0.203716 0.00388588 0)
(0.20369 0.00380828 0)
(0.203659 0.00373448 0)
(0.203625 0.00366416 0)
(0.203588 0.00359701 0)
(0.203546 0.00353276 0)
(0.203501 0.00347119 0)
(0.203452 0.00341207 0)
(0.203399 0.00335521 0)
(0.203341 0.00330044 0)
(0.20328 0.00324761 0)
(0.203214 0.00319657 0)
(0.203144 0.00314719 0)
(0.203069 0.00309935 0)
(0.202989 0.00305294 0)
(0.202905 0.00300787 0)
(0.202816 0.00296404 0)
(0.202722 0.00292137 0)
(0.202623 0.00287978 0)
(0.202518 0.00283921 0)
(0.202409 0.00279959 0)
(0.202294 0.00276085 0)
(0.202173 0.00272295 0)
(0.202047 0.00268583 0)
(0.201915 0.00264945 0)
(0.201778 0.00261377 0)
(0.201635 0.00257874 0)
(0.201486 0.00254432 0)
(0.201331 0.00251049 0)
(0.20117 0.00247722 0)
(0.201004 0.00244446 0)
(0.200831 0.00241221 0)
(0.200652 0.00238042 0)
(0.200467 0.00234908 0)
(0.200276 0.00231817 0)
(0.200079 0.00228767 0)
(0.199876 0.00225755 0)
(0.199667 0.00222781 0)
(0.199452 0.00219842 0)
(0.19923 0.00216938 0)
(0.199003 0.00214066 0)
(0.198769 0.00211226 0)
(0.198529 0.00208416 0)
(0.198284 0.00205636 0)
(0.198032 0.00202885 0)
(0.197775 0.00200161 0)
(0.197511 0.00197465 0)
(0.197242 0.00194796 0)
(0.196967 0.00192153 0)
(0.196687 0.00189535 0)
(0.1964 0.00186944 0)
(0.196109 0.00184379 0)
(0.195811 0.0018184 0)
(0.195509 0.00179327 0)
(0.195201 0.00176842 0)
(0.194888 0.00174386 0)
(0.194569 0.00171959 0)
(0.194246 0.00169564 0)
(0.193917 0.00167203 0)
(0.193584 0.00164879 0)
(0.193246 0.00162598 0)
(0.192902 0.00160364 0)
(0.192555 0.00158188 0)
(0.192202 0.0015608 0)
(0.191846 0.00154059 0)
(0.191485 0.00152148 0)
(0.191122 0.00150365 0)
(0.190758 0.00148661 0)
(0.190402 0.00146638 0)
(0.189963 0.00142251 0)
(0.197666 0.00586086 0)
(0.198044 0.00631086 0)
(0.198487 0.00668462 0)
(0.198975 0.00697055 0)
(0.199487 0.00716752 0)
(0.200001 0.00728024 0)
(0.200501 0.00731603 0)
(0.200974 0.00728406 0)
(0.201413 0.00719496 0)
(0.201809 0.00706019 0)
(0.202159 0.00689116 0)
(0.202464 0.00669851 0)
(0.202724 0.00649172 0)
(0.202942 0.00627878 0)
(0.203123 0.00606607 0)
(0.20327 0.00585835 0)
(0.20339 0.00565892 0)
(0.203485 0.00546982 0)
(0.203561 0.0052921 0)
(0.20362 0.00512603 0)
(0.203667 0.00497139 0)
(0.203702 0.00482759 0)
(0.20373 0.00469389 0)
(0.20375 0.00456943 0)
(0.203764 0.00445336 0)
(0.203774 0.00434488 0)
(0.203779 0.00424322 0)
(0.203781 0.00414771 0)
(0.203779 0.00405775 0)
(0.203775 0.00397281 0)
(0.203768 0.0038924 0)
(0.203758 0.00381613 0)
(0.203746 0.00374362 0)
(0.203731 0.00367455 0)
(0.203715 0.00360863 0)
(0.203696 0.00354562 0)
(0.203674 0.00348528 0)
(0.203651 0.00342739 0)
(0.203625 0.00337179 0)
(0.203596 0.00331829 0)
(0.203566 0.00326674 0)
(0.203533 0.00321701 0)
(0.203497 0.00316895 0)
(0.203459 0.00312247 0)
(0.203418 0.00307744 0)
(0.203374 0.00303377 0)
(0.203328 0.00299137 0)
(0.203278 0.00295016 0)
(0.203226 0.00291005 0)
(0.20317 0.00287098 0)
(0.203112 0.00283288 0)
(0.20305 0.00279569 0)
(0.202984 0.00275936 0)
(0.202915 0.00272382 0)
(0.202843 0.00268904 0)
(0.202767 0.00265497 0)
(0.202687 0.00262156 0)
(0.202604 0.00258878 0)
(0.202516 0.0025566 0)
(0.202425 0.00252497 0)
(0.202329 0.00249387 0)
(0.202229 0.00246327 0)
(0.202125 0.00243313 0)
(0.202017 0.00240345 0)
(0.201904 0.00237418 0)
(0.201787 0.00234532 0)
(0.201666 0.00231683 0)
(0.20154 0.00228871 0)
(0.201409 0.00226093 0)
(0.201274 0.00223348 0)
(0.201134 0.00220633 0)
(0.200989 0.00217949 0)
(0.200839 0.00215293 0)
(0.200685 0.00212665 0)
(0.200526 0.00210062 0)
(0.200361 0.00207486 0)
(0.200192 0.00204933 0)
(0.200018 0.00202405 0)
(0.19984 0.001999 0)
(0.199656 0.00197418 0)
(0.199467 0.00194959 0)
(0.199273 0.00192523 0)
(0.199075 0.0019011 0)
(0.198871 0.0018772 0)
(0.198662 0.00185354 0)
(0.198449 0.00183013 0)
(0.19823 0.00180699 0)
(0.198007 0.00178413 0)
(0.197779 0.00176158 0)
(0.197545 0.00173937 0)
(0.197307 0.00171755 0)
(0.197064 0.00169617 0)
(0.196816 0.00167532 0)
(0.196563 0.0016551 0)
(0.196306 0.00163564 0)
(0.196045 0.00161706 0)
(0.19578 0.00159928 0)
(0.195514 0.00158125 0)
(0.195251 0.00155849 0)