/*--------------------------------*- C++ -*----------------------------------*\
| =========                 |                                                 |
| \\      /  F ield         | OpenFOAM: The Open Source CFD Toolbox           |
|  \\    /   O peration     | Version:  2.3.0                                 |
|   \\  /    A nd           | Web:      www.OpenFOAM.org                      |
|    \\/     M anipulation  |                                                 |
\*---------------------------------------------------------------------------*/
FoamFile
{
    version     2.0;
    format      ascii;
    class       volVectorField;
    location    "0.05";
    object      U_0;
}
// * * * * * * * * * * * * * * * * * * * * * * * * * * * * * * * * * * * * * //

dimensions      [0 1 -1 0 0 0 0];

internalField   nonuniform List<vector> 
1500
(
(0.176535 0.00443943 0)
(0.155922 0.0059738 0)
(0.137518 0.00611614 0)
(0.119457 0.00549339 0)
(0.102064 0.00466362 0)
(0.0863194 0.00372472 0)
(0.0732131 0.00272868 0)
(0.063053 0.00171433 0)
(0.0556875 0.000804485 0)
(0.0506184 0.000176705 0)
(0.047238 -0.000170375 0)
(0.0450654 -0.000341525 0)
(0.0438015 -0.000391682 0)
(0.0432188 -0.000340109 0)
(0.0430775 -0.000238164 0)
(0.0431842 -0.000154156 0)
(0.0434248 -9.76587e-05 0)
(0.043743 -6.59281e-05 0)
(0.044088 -4.85135e-05 0)
(0.0444179 -3.79408e-05 0)
(0.044706 -3.05363e-05 0)
(0.0449412 -2.44206e-05 0)
(0.0451237 -1.93366e-05 0)
(0.0452605 -1.53155e-05 0)
(0.0453619 -1.2246e-05 0)
(0.0454374 -9.90501e-06 0)
(0.0454951 -8.08635e-06 0)
(0.0455404 -6.65772e-06 0)
(0.0455769 -5.52486e-06 0)
(0.0456069 -4.61319e-06 0)
(0.0456321 -3.86195e-06 0)
(0.0456533 -3.23453e-06 0)
(0.0456712 -2.70765e-06 0)
(0.0456863 -2.26287e-06 0)
(0.0456991 -1.89089e-06 0)
(0.0457099 -1.57814e-06 0)
(0.045719 -1.314e-06 0)
(0.0457267 -1.09123e-06 0)
(0.0457331 -9.04512e-07 0)
(0.0457385 -7.48859e-07 0)
(0.045743 -6.19166e-07 0)
(0.0457467 -5.10782e-07 0)
(0.0457499 -4.20485e-07 0)
(0.0457525 -3.45983e-07 0)
(0.0457547 -2.84081e-07 0)
(0.0457565 -2.32744e-07 0)
(0.045758 -1.90308e-07 0)
(0.0457592 -1.55431e-07 0)
(0.0457602 -1.26735e-07 0)
(0.0457611 -1.03108e-07 0)
(0.0457618 -8.3737e-08 0)
(0.0457623 -6.78558e-08 0)
(0.0457628 -5.49067e-08 0)
(0.0457632 -4.43714e-08 0)
(0.0457635 -3.57919e-08 0)
(0.0457637 -2.88075e-08 0)
(0.0457639 -2.31562e-08 0)
(0.0457641 -1.85922e-08 0)
(0.0457642 -1.48993e-08 0)
(0.0457644 -1.19213e-08 0)
(0.0457644 -9.52312e-09 0)
(0.0457645 -7.59232e-09 0)
(0.0457646 -6.04005e-09 0)
(0.0457646 -4.79426e-09 0)
(0.0457647 -3.79636e-09 0)
(0.0457647 -2.99855e-09 0)
(0.0457647 -2.36251e-09 0)
(0.0457647 -1.85692e-09 0)
(0.0457648 -1.45617e-09 0)
(0.0457648 -1.13945e-09 0)
(0.0457648 -8.89767e-10 0)
(0.0457648 -6.93342e-10 0)
(0.0457648 -5.39043e-10 0)
(0.0457648 -4.17969e-10 0)
(0.0457648 -3.23028e-10 0)
(0.0457648 -2.48651e-10 0)
(0.0457648 -1.90442e-10 0)
(0.0457648 -1.44962e-10 0)
(0.0457648 -1.09527e-10 0)
(0.0457648 -8.19536e-11 0)
(0.0457648 -6.0705e-11 0)
(0.0457648 -4.40885e-11 0)
(0.0457648 -3.20177e-11 0)
(0.0457648 -2.12244e-11 0)
(0.0457648 -1.67336e-11 0)
(0.0457648 -6.00302e-12 0)
(0.0457648 -1.10644e-11 0)
(0.0457648 4.41882e-12 0)
(0.0457648 -6.30078e-12 0)
(0.0457648 -9.60112e-13 0)
(0.0457648 1.74766e-11 0)
(0.0457648 -3.05977e-11 0)
(0.0457648 4.04268e-11 0)
(0.0457648 -1.81574e-11 0)
(0.0457648 -1.87004e-11 0)
(0.0457648 4.18734e-11 0)
(0.0457648 -2.09072e-11 0)
(0.0457648 -5.93156e-11 0)
(0.0457648 6.61844e-11 0)
(0.0457648 1.24495e-10 0)
(0.192063 0.00797763 0)
(0.190325 0.0108591 0)
(0.18819 0.0118159 0)
(0.184923 0.0117649 0)
(0.180123 0.0111211 0)
(0.173849 0.0101003 0)
(0.166938 0.00889714 0)
(0.160019 0.00744771 0)
(0.15324 0.00580839 0)
(0.146795 0.00429402 0)
(0.141057 0.00308624 0)
(0.136144 0.00212114 0)
(0.132009 0.00131484 0)
(0.128693 0.000681707 0)
(0.126248 0.000237903 0)
(0.124647 -5.64548e-05 0)
(0.123772 -0.000233393 0)
(0.123467 -0.000314421 0)
(0.123548 -0.000322141 0)
(0.123841 -0.000286007 0)
(0.124211 -0.000231285 0)
(0.12457 -0.000174762 0)
(0.124874 -0.000126526 0)
(0.125111 -9.00365e-05 0)
(0.125287 -6.46341e-05 0)
(0.125414 -4.77607e-05 0)
(0.125507 -3.66461e-05 0)
(0.125575 -2.91407e-05 0)
(0.125628 -2.38133e-05 0)
(0.125669 -1.98043e-05 0)
(0.125702 -1.66238e-05 0)
(0.12573 -1.40034e-05 0)
(0.125754 -1.17996e-05 0)
(0.125773 -9.92937e-06 0)
(0.12579 -8.34246e-06 0)
(0.125804 -6.99342e-06 0)
(0.125816 -5.85064e-06 0)
(0.125827 -4.88771e-06 0)
(0.125835 -4.07593e-06 0)
(0.125843 -3.39239e-06 0)
(0.125849 -2.81913e-06 0)
(0.125854 -2.33898e-06 0)
(0.125858 -1.93703e-06 0)
(0.125862 -1.60211e-06 0)
(0.125865 -1.32271e-06 0)
(0.125868 -1.09002e-06 0)
(0.12587 -8.97073e-07 0)
(0.125872 -7.37373e-07 0)
(0.125873 -6.04774e-07 0)
(0.125874 -4.94985e-07 0)
(0.125875 -4.04617e-07 0)
(0.125876 -3.30188e-07 0)
(0.125877 -2.68937e-07 0)
(0.125877 -2.18691e-07 0)
(0.125878 -1.77604e-07 0)
(0.125878 -1.43975e-07 0)
(0.125879 -1.16532e-07 0)
(0.125879 -9.41863e-08 0)
(0.125879 -7.59819e-08 0)
(0.125879 -6.11877e-08 0)
(0.125879 -4.91883e-08 0)
(0.12588 -3.94687e-08 0)
(0.12588 -3.16076e-08 0)
(0.12588 -2.52607e-08 0)
(0.12588 -2.01454e-08 0)
(0.12588 -1.60296e-08 0)
(0.12588 -1.27251e-08 0)
(0.12588 -1.00778e-08 0)
(0.12588 -7.96184e-09 0)
(0.12588 -6.27505e-09 0)
(0.12588 -4.93375e-09 0)
(0.12588 -3.86974e-09 0)
(0.12588 -3.02747e-09 0)
(0.12588 -2.36203e-09 0)
(0.12588 -1.83719e-09 0)
(0.12588 -1.42395e-09 0)
(0.12588 -1.09915e-09 0)
(0.12588 -8.44307e-10 0)
(0.12588 -6.44904e-10 0)
(0.12588 -4.89072e-10 0)
(0.12588 -3.68009e-10 0)
(0.12588 -2.73602e-10 0)
(0.12588 -2.01825e-10 0)
(0.12588 -1.43666e-10 0)
(0.12588 -1.06385e-10 0)
(0.12588 -6.15806e-11 0)
(0.12588 -6.17011e-11 0)
(0.12588 1.21561e-12 0)
(0.12588 -5.50977e-11 0)
(0.12588 4.63882e-11 0)
(0.12588 -3.56543e-11 0)
(0.12588 4.60941e-12 0)
(0.12588 9.11644e-11 0)
(0.12588 -1.38581e-10 0)
(0.12588 1.80248e-10 0)
(0.12588 -8.02e-11 0)
(0.12588 1.25367e-11 0)
(0.12588 -3.93672e-11 0)
(0.12588 -1.05409e-10 0)
(0.12588 1.93433e-10 0)
(0.193361 0.00774997 0)
(0.193768 0.0099453 0)
(0.194782 0.0112252 0)
(0.196076 0.011805 0)
(0.197005 0.0117242 0)
(0.196947 0.0112285 0)
(0.196013 0.010422 0)
(0.194575 0.00923671 0)
(0.192653 0.00788705 0)
(0.190268 0.00663085 0)
(0.187695 0.00546959 0)
(0.185155 0.00436485 0)
(0.182743 0.00338014 0)
(0.180546 0.00255157 0)
(0.178641 0.00182762 0)
(0.177055 0.0011739 0)
(0.175793 0.00059812 0)
(0.174876 0.000148749 0)
(0.174297 -0.000145164 0)
(0.174004 -0.000300242 0)
(0.173921 -0.000348295 0)
(0.173966 -0.000326652 0)
(0.174072 -0.000272045 0)
(0.174191 -0.000210269 0)
(0.174298 -0.00015561 0)
(0.174384 -0.000113141 0)
(0.174448 -8.25911e-05 0)
(0.174493 -6.15475e-05 0)
(0.174525 -4.72418e-05 0)
(0.174548 -3.7371e-05 0)
(0.174565 -3.0294e-05 0)
(0.174578 -2.49889e-05 0)
(0.174588 -2.08322e-05 0)
(0.174596 -1.74641e-05 0)
(0.174603 -1.46877e-05 0)
(0.174609 -1.23578e-05 0)
(0.174614 -1.03894e-05 0)
(0.174619 -8.72639e-06 0)
(0.174623 -7.32191e-06 0)
(0.174627 -6.13439e-06 0)
(0.17463 -5.13196e-06 0)
(0.174632 -4.28632e-06 0)
(0.174634 -3.57479e-06 0)
(0.174636 -2.97749e-06 0)
(0.174638 -2.47556e-06 0)
(0.17464 -2.05472e-06 0)
(0.174641 -1.70193e-06 0)
(0.174642 -1.40833e-06 0)
(0.174643 -1.16332e-06 0)
(0.174644 -9.58884e-07 0)
(0.174644 -7.89142e-07 0)
(0.174645 -6.48268e-07 0)
(0.174645 -5.31643e-07 0)
(0.174646 -4.35233e-07 0)
(0.174646 -3.55799e-07 0)
(0.174646 -2.90358e-07 0)
(0.174647 -2.36597e-07 0)
(0.174647 -1.92487e-07 0)
(0.174647 -1.56303e-07 0)
(0.174647 -1.26691e-07 0)
(0.174647 -1.02494e-07 0)
(0.174647 -8.27535e-08 0)
(0.174647 -6.66779e-08 0)
(0.174647 -5.36128e-08 0)
(0.174647 -4.30157e-08 0)
(0.174647 -3.44356e-08 0)
(0.174648 -2.75035e-08 0)
(0.174648 -2.19148e-08 0)
(0.174648 -1.74186e-08 0)
(0.174648 -1.38098e-08 0)
(0.174648 -1.09202e-08 0)
(0.174648 -8.61205e-09 0)
(0.174648 -6.77271e-09 0)
(0.174648 -5.31026e-09 0)
(0.174648 -4.15002e-09 0)
(0.174648 -3.23148e-09 0)
(0.174648 -2.50582e-09 0)
(0.174648 -1.93377e-09 0)
(0.174648 -1.48364e-09 0)
(0.174648 -1.13101e-09 0)
(0.174648 -8.53688e-10 0)
(0.174648 -6.40272e-10 0)
(0.174648 -4.69488e-10 0)
(0.174648 -3.43184e-10 0)
(0.174648 -2.44886e-10 0)
(0.174648 -1.48031e-10 0)
(0.174648 -1.56264e-10 0)
(0.174648 4.41578e-11 0)
(0.174648 -2.13505e-10 0)
(0.174648 2.41233e-10 0)
(0.174648 -2.11102e-10 0)
(0.174648 6.96007e-11 0)
(0.174648 3.19137e-10 0)
(0.174648 -5.48686e-10 0)
(0.174648 6.53878e-10 0)
(0.174648 -2.07621e-10 0)
(0.174648 -9.54294e-11 0)
(0.174648 1.63141e-10 0)
(0.174648 -6.77433e-12 0)
(0.174648 1.57212e-10 0)
(0.194407 0.00718881 0)
(0.195013 0.00871517 0)
(0.195964 0.00979657 0)
(0.197285 0.0104887 0)
(0.198978 0.0106711 0)
(0.200472 0.0104354 0)
(0.201426 0.00985855 0)
(0.201987 0.00891605 0)
(0.202194 0.00783778 0)
(0.201981 0.0068597 0)
(0.201461 0.00591732 0)
(0.200774 0.00491875 0)
(0.199973 0.00395062 0)
(0.199117 0.00310821 0)
(0.19827 0.00236785 0)
(0.197458 0.00167626 0)
(0.19669 0.00104683 0)
(0.195995 0.000529081 0)
(0.1954 0.000149914 0)
(0.194925 -9.33246e-05 0)
(0.194578 -0.000219496 0)
(0.194347 -0.000259532 0)
(0.194205 -0.000246411 0)
(0.194124 -0.000207879 0)
(0.19408 -0.00016336 0)
(0.194056 -0.000123174 0)
(0.19404 -9.11324e-05 0)
(0.194028 -6.7443e-05 0)
(0.194018 -5.06784e-05 0)
(0.194008 -3.90245e-05 0)
(0.193998 -3.08572e-05 0)
(0.19399 -2.49908e-05 0)
(0.193982 -2.06224e-05 0)
(0.193976 -1.7231e-05 0)
(0.193971 -1.45284e-05 0)
(0.193967 -1.23038e-05 0)
(0.193964 -1.04392e-05 0)
(0.193961 -8.86459e-06 0)
(0.193959 -7.5239e-06 0)
(0.193958 -6.38018e-06 0)
(0.193957 -5.40412e-06 0)
(0.193956 -4.56855e-06 0)
(0.193956 -3.85659e-06 0)
(0.193956 -3.25152e-06 0)
(0.193955 -2.73358e-06 0)
(0.193955 -2.29537e-06 0)
(0.193955 -1.92325e-06 0)
(0.193956 -1.60845e-06 0)
(0.193956 -1.3424e-06 0)
(0.193956 -1.11765e-06 0)
(0.193956 -9.29176e-07 0)
(0.193956 -7.70701e-07 0)
(0.193956 -6.37985e-07 0)
(0.193956 -5.27147e-07 0)
(0.193956 -4.34805e-07 0)
(0.193957 -3.57853e-07 0)
(0.193957 -2.94122e-07 0)
(0.193957 -2.41333e-07 0)
(0.193957 -1.97598e-07 0)
(0.193957 -1.61478e-07 0)
(0.193957 -1.31677e-07 0)
(0.193957 -1.0713e-07 0)
(0.193957 -8.69568e-08 0)
(0.193957 -7.04159e-08 0)
(0.193957 -5.68867e-08 0)
(0.193957 -4.58464e-08 0)
(0.193957 -3.68592e-08 0)
(0.193957 -2.95605e-08 0)
(0.193957 -2.36463e-08 0)
(0.193957 -1.88653e-08 0)
(0.193957 -1.50095e-08 0)
(0.193957 -1.19074e-08 0)
(0.193957 -9.41765e-09 0)
(0.193957 -7.42423e-09 0)
(0.193957 -5.83214e-09 0)
(0.193957 -4.56355e-09 0)
(0.193957 -3.55505e-09 0)
(0.193957 -2.75551e-09 0)
(0.193957 -2.12205e-09 0)
(0.193957 -1.62426e-09 0)
(0.193957 -1.228e-09 0)
(0.193957 -9.25736e-10 0)
(0.193957 -6.75325e-10 0)
(0.193957 -4.98798e-10 0)
(0.193957 -3.49518e-10 0)
(0.193957 -2.10491e-10 0)
(0.193957 -2.29439e-10 0)
(0.193957 8.88125e-11 0)
(0.193957 -3.30941e-10 0)
(0.193957 3.88859e-10 0)
(0.193957 -3.15238e-10 0)
(0.193957 1.10082e-10 0)
(0.193957 4.83646e-10 0)
(0.193957 -7.75278e-10 0)
(0.193957 9.24674e-10 0)
(0.193957 -2.48859e-10 0)
(0.193957 -1.07707e-10 0)
(0.193957 3.4621e-10 0)
(0.193957 3.53057e-10 0)
(0.193957 3.36259e-11 0)
(0.195318 0.00673391 0)
(0.195893 0.00789083 0)
(0.196722 0.00870681 0)
(0.197663 0.00941264 0)
(0.199013 0.00973595 0)
(0.200528 0.00955113 0)
(0.201744 0.00907456 0)
(0.202633 0.00835739 0)
(0.20328 0.00746841 0)
(0.20365 0.00661474 0)
(0.20376 0.00581325 0)
(0.203697 0.0049485 0)
(0.203519 0.00405882 0)
(0.203251 0.00326534 0)
(0.202911 0.00258515 0)
(0.202521 0.00196141 0)
(0.202093 0.00138434 0)
(0.201636 0.000884491 0)
(0.201167 0.000486741 0)
(0.200722 0.000200886 0)
(0.200331 1.82079e-05 0)
(0.200011 -8.14329e-05 0)
(0.199764 -0.000119616 0)
(0.199579 -0.000120791 0)
(0.199444 -0.000104387 0)
(0.199346 -8.26686e-05 0)
(0.199274 -6.21623e-05 0)
(0.199219 -4.55707e-05 0)
(0.199176 -3.33317e-05 0)
(0.199142 -2.47972e-05 0)
(0.199114 -1.90198e-05 0)
(0.199091 -1.5123e-05 0)
(0.199072 -1.24411e-05 0)
(0.199057 -1.0528e-05 0)
(0.199044 -9.06345e-06 0)
(0.199034 -7.8904e-06 0)
(0.199026 -6.91153e-06 0)
(0.199019 -6.06548e-06 0)
(0.199014 -5.3214e-06 0)
(0.19901 -4.65776e-06 0)
(0.199006 -4.0691e-06 0)
(0.199004 -3.54033e-06 0)
(0.199002 -3.07358e-06 0)
(0.199 -2.65975e-06 0)
(0.198999 -2.2909e-06 0)
(0.198998 -1.96735e-06 0)
(0.198998 -1.68549e-06 0)
(0.198997 -1.43912e-06 0)
(0.198997 -1.22461e-06 0)
(0.198996 -1.03798e-06 0)
(0.198996 -8.7769e-07 0)
(0.198996 -7.39908e-07 0)
(0.198996 -6.21663e-07 0)
(0.198996 -5.21283e-07 0)
(0.198996 -4.36146e-07 0)
(0.198996 -3.63782e-07 0)
(0.198996 -3.02851e-07 0)
(0.198996 -2.51544e-07 0)
(0.198996 -2.08401e-07 0)
(0.198996 -1.7227e-07 0)
(0.198996 -1.42026e-07 0)
(0.198996 -1.1676e-07 0)
(0.198996 -9.57196e-08 0)
(0.198996 -7.82502e-08 0)
(0.198996 -6.37871e-08 0)
(0.198996 -5.18537e-08 0)
(0.198996 -4.20385e-08 0)
(0.198996 -3.39872e-08 0)
(0.198996 -2.7401e-08 0)
(0.198996 -2.20276e-08 0)
(0.198996 -1.76547e-08 0)
(0.198996 -1.41057e-08 0)
(0.198996 -1.12332e-08 0)
(0.198996 -8.91446e-09 0)
(0.198996 -7.04817e-09 0)
(0.198996 -5.55013e-09 0)
(0.198996 -4.35075e-09 0)
(0.198996 -3.3937e-09 0)
(0.198996 -2.63013e-09 0)
(0.198996 -2.02673e-09 0)
(0.198996 -1.54282e-09 0)
(0.198996 -1.17151e-09 0)
(0.198996 -8.62679e-10 0)
(0.198996 -6.41481e-10 0)
(0.198996 -4.55324e-10 0)
(0.198996 -2.86177e-10 0)
(0.198996 -2.81254e-10 0)
(0.198996 4.48612e-11 0)
(0.198996 -3.25956e-10 0)
(0.198996 3.29815e-10 0)
(0.198996 -2.4979e-10 0)
(0.198996 6.13285e-11 0)
(0.198996 4.90649e-10 0)
(0.198996 -6.74997e-10 0)
(0.198996 8.06335e-10 0)
(0.198996 -1.21819e-10 0)
(0.198996 -9.39834e-11 0)
(0.198996 4.46108e-10 0)
(0.198996 4.7569e-10 0)
(0.198996 -1.32173e-10 0)
(0.196155 0.00632017 0)
(0.196565 0.00726282 0)
(0.197346 0.00792199 0)
(0.1981 0.00855106 0)
(0.199021 0.00890903 0)
(0.200271 0.00878937 0)
(0.201453 0.00842345 0)
(0.202284 0.00788717 0)
(0.202878 0.00714051 0)
(0.203318 0.00635633 0)
(0.203561 0.00565076 0)
(0.203635 0.00493503 0)
(0.203624 0.00416539 0)
(0.203543 0.00342933 0)
(0.203364 0.00278243 0)
(0.203099 0.00219575 0)
(0.202787 0.00164423 0)
(0.20245 0.00115171 0)
(0.202091 0.000751532 0)
(0.201725 0.000451237 0)
(0.201379 0.000241215 0)
(0.201075 0.000107773 0)
(0.200822 3.40119e-05 0)
(0.200617 -2.71133e-07 0)
(0.200457 -1.19305e-05 0)
(0.200333 -1.2517e-05 0)
(0.200238 -8.9551e-06 0)
(0.200165 -4.8689e-06 0)
(0.200108 -1.77414e-06 0)
(0.200064 1.84818e-08 0)
(0.200028 7.26498e-07 0)
(0.2 7.19874e-07 0)
(0.199977 3.29419e-07 0)
(0.199958 -2.1688e-07 0)
(0.199943 -7.42521e-07 0)
(0.19993 -1.1957e-06 0)
(0.19992 -1.54619e-06 0)
(0.199912 -1.78022e-06 0)
(0.199906 -1.915e-06 0)
(0.199901 -1.96539e-06 0)
(0.199897 -1.94811e-06 0)
(0.199893 -1.88451e-06 0)
(0.199891 -1.78165e-06 0)
(0.199889 -1.65426e-06 0)
(0.199887 -1.52097e-06 0)
(0.199886 -1.37773e-06 0)
(0.199885 -1.23395e-06 0)
(0.199884 -1.09918e-06 0)
(0.199884 -9.69655e-07 0)
(0.199884 -8.51019e-07 0)
(0.199883 -7.40839e-07 0)
(0.199883 -6.42008e-07 0)
(0.199883 -5.52103e-07 0)
(0.199883 -4.73323e-07 0)
(0.199883 -4.04049e-07 0)
(0.199883 -3.4348e-07 0)
(0.199883 -2.91166e-07 0)
(0.199883 -2.45803e-07 0)
(0.199883 -2.0678e-07 0)
(0.199883 -1.734e-07 0)
(0.199883 -1.44874e-07 0)
(0.199883 -1.20602e-07 0)
(0.199883 -1.00037e-07 0)
(0.199883 -8.2689e-08 0)
(0.199883 -6.81078e-08 0)
(0.199883 -5.59091e-08 0)
(0.199883 -4.5748e-08 0)
(0.199883 -3.73137e-08 0)
(0.199883 -3.03375e-08 0)
(0.199883 -2.45862e-08 0)
(0.199883 -1.98594e-08 0)
(0.199883 -1.59868e-08 0)
(0.199883 -1.28244e-08 0)
(0.199883 -1.025e-08 0)
(0.199883 -8.16142e-09 0)
(0.199883 -6.47228e-09 0)
(0.199883 -5.11012e-09 0)
(0.199883 -4.01582e-09 0)
(0.199883 -3.13687e-09 0)
(0.199883 -2.43759e-09 0)
(0.199883 -1.87401e-09 0)
(0.199883 -1.43636e-09 0)
(0.199883 -1.07517e-09 0)
(0.199883 -8.06182e-10 0)
(0.199883 -5.89238e-10 0)
(0.199883 -3.86999e-10 0)
(0.199883 -3.51772e-10 0)
(0.199883 -4.32439e-11 0)
(0.199883 -3.05367e-10 0)
(0.199883 1.87907e-10 0)
(0.199883 -1.3414e-10 0)
(0.199883 -6.9596e-11 0)
(0.199883 4.99246e-10 0)
(0.199883 -5.56812e-10 0)
(0.199883 5.88193e-10 0)
(0.199883 7.50379e-11 0)
(0.199883 -1.61913e-10 0)
(0.199883 4.53477e-10 0)
(0.199883 3.76123e-10 0)
(0.199883 -1.85091e-10 0)
(0.196939 0.0059496 0)
(0.197199 0.00676235 0)
(0.19784 0.0073108 0)
(0.198477 0.00776824 0)
(0.199142 0.00812637 0)
(0.200125 0.00813425 0)
(0.201141 0.00782463 0)
(0.20182 0.00736674 0)
(0.20231 0.00679124 0)
(0.20278 0.00614564 0)
(0.203091 0.00551509 0)
(0.203164 0.00487662 0)
(0.203134 0.00418206 0)
(0.203089 0.0034841 0)
(0.202982 0.00285861 0)
(0.202784 0.00231008 0)
(0.202542 0.00181104 0)
(0.202287 0.00136384 0)
(0.202011 0.0009884 0)
(0.201715 0.00069261 0)
(0.201423 0.000470698 0)
(0.201157 0.000312715 0)
(0.200928 0.000206063 0)
(0.200736 0.000138115 0)
(0.20058 9.64429e-05 0)
(0.200456 7.10336e-05 0)
(0.200359 5.50636e-05 0)
(0.200284 4.4301e-05 0)
(0.200224 3.63103e-05 0)
(0.200178 2.98333e-05 0)
(0.20014 2.43116e-05 0)
(0.200111 1.95324e-05 0)
(0.200087 1.54153e-05 0)
(0.200067 1.19304e-05 0)
(0.200052 9.01994e-06 0)
(0.200039 6.64062e-06 0)
(0.200029 4.73592e-06 0)
(0.200021 3.23781e-06 0)
(0.200014 2.08178e-06 0)
(0.200009 1.20381e-06 0)
(0.200005 5.55939e-07 0)
(0.200001 8.46644e-08 0)
(0.199999 -2.3876e-07 0)
(0.199997 -4.53593e-07 0)
(0.199995 -5.90992e-07 0)
(0.199994 -6.63739e-07 0)
(0.199993 -6.91238e-07 0)
(0.199992 -6.84371e-07 0)
(0.199992 -6.54622e-07 0)
(0.199991 -6.15652e-07 0)
(0.199991 -5.66607e-07 0)
(0.199991 -5.13457e-07 0)
(0.199991 -4.59875e-07 0)
(0.19999 -4.07525e-07 0)
(0.19999 -3.57851e-07 0)
(0.19999 -3.1218e-07 0)
(0.19999 -2.70732e-07 0)
(0.19999 -2.3328e-07 0)
(0.19999 -2.00042e-07 0)
(0.19999 -1.70682e-07 0)
(0.19999 -1.44803e-07 0)
(0.19999 -1.22221e-07 0)
(0.19999 -1.02681e-07 0)
(0.19999 -8.5868e-08 0)
(0.19999 -7.14901e-08 0)
(0.19999 -5.92775e-08 0)
(0.19999 -4.89556e-08 0)
(0.19999 -4.02776e-08 0)
(0.19999 -3.30152e-08 0)
(0.19999 -2.69626e-08 0)
(0.19999 -2.19386e-08 0)
(0.19999 -1.77845e-08 0)
(0.19999 -1.43629e-08 0)
(0.19999 -1.15551e-08 0)
(0.19999 -9.2601e-09 0)
(0.19999 -7.39097e-09 0)
(0.19999 -5.87365e-09 0)
(0.19999 -4.64703e-09 0)
(0.19999 -3.65612e-09 0)
(0.19999 -2.86246e-09 0)
(0.19999 -2.22092e-09 0)
(0.19999 -1.71642e-09 0)
(0.19999 -1.30385e-09 0)
(0.19999 -9.86535e-10 0)
(0.19999 -7.36338e-10 0)
(0.19999 -5.06998e-10 0)
(0.19999 -4.27839e-10 0)
(0.19999 -1.53993e-10 0)
(0.19999 -2.94316e-10 0)
(0.19999 5.17318e-11 0)
(0.19999 -8.13399e-11 0)
(0.19999 -1.27796e-10 0)
(0.19999 4.16313e-10 0)
(0.19999 -4.26213e-10 0)
(0.19999 4.33108e-10 0)
(0.19999 1.29281e-10 0)
(0.19999 -1.54513e-10 0)
(0.19999 3.9749e-10 0)
(0.19999 2.50669e-10 0)
(0.19999 -1.54362e-10 0)
(0.197632 0.0056412 0)
(0.197779 0.0063025 0)
(0.198248 0.00677788 0)
(0.198828 0.00712187 0)
(0.199338 0.00742803 0)
(0.200006 0.00749042 0)
(0.200807 0.00724152 0)
(0.201429 0.00688565 0)
(0.201866 0.00647971 0)
(0.202261 0.005942 0)
(0.20253 0.00531787 0)
(0.202584 0.00470238 0)
(0.202556 0.00410421 0)
(0.202558 0.00351284 0)
(0.202526 0.00295813 0)
(0.20239 0.00246052 0)
(0.202189 0.00200661 0)
(0.201977 0.00158797 0)
(0.201755 0.00121917 0)
(0.201518 0.000915486 0)
(0.201278 0.000677462 0)
(0.201057 0.000496931 0)
(0.200863 0.000364159 0)
(0.200697 0.000269578 0)
(0.200559 0.000203259 0)
(0.200446 0.000156432 0)
(0.200355 0.000122633 0)
(0.200283 9.75031e-05 0)
(0.200226 7.81934e-05 0)
(0.200181 6.28999e-05 0)
(0.200144 5.05236e-05 0)
(0.200115 4.03929e-05 0)
(0.200092 3.20717e-05 0)
(0.200073 2.52501e-05 0)
(0.200058 1.96837e-05 0)
(0.200046 1.51781e-05 0)
(0.200037 1.15616e-05 0)
(0.200029 8.68403e-06 0)
(0.200022 6.41621e-06 0)
(0.200017 4.64651e-06 0)
(0.200013 3.27837e-06 0)
(0.20001 2.23564e-06 0)
(0.200008 1.4473e-06 0)
(0.200006 8.61162e-07 0)
(0.200004 4.35914e-07 0)
(0.200003 1.30286e-07 0)
(0.200002 -8.27607e-08 0)
(0.200001 -2.19361e-07 0)
(0.200001 -3.06102e-07 0)
(0.2 -3.50765e-07 0)
(0.2 -3.67841e-07 0)
(0.2 -3.65991e-07 0)
(0.2 -3.5319e-07 0)
(0.2 -3.30212e-07 0)
(0.2 -3.0208e-07 0)
(0.199999 -2.74094e-07 0)
(0.199999 -2.45355e-07 0)
(0.199999 -2.16677e-07 0)
(0.199999 -1.89961e-07 0)
(0.199999 -1.65304e-07 0)
(0.199999 -1.42689e-07 0)
(0.199999 -1.22294e-07 0)
(0.199999 -1.04134e-07 0)
(0.199999 -8.81327e-08 0)
(0.199999 -7.41721e-08 0)
(0.199999 -6.2112e-08 0)
(0.199999 -5.17573e-08 0)
(0.199999 -4.2936e-08 0)
(0.199999 -3.54637e-08 0)
(0.199999 -2.91678e-08 0)
(0.199999 -2.38908e-08 0)
(0.199999 -1.94885e-08 0)
(0.199999 -1.5833e-08 0)
(0.199999 -1.2811e-08 0)
(0.199999 -1.03238e-08 0)
(0.199999 -8.28532e-09 0)
(0.199999 -6.6207e-09 0)
(0.199999 -5.26732e-09 0)
(0.199999 -4.16866e-09 0)
(0.199999 -3.28335e-09 0)
(0.199999 -2.56614e-09 0)
(0.199999 -1.99606e-09 0)
(0.199999 -1.53303e-09 0)
(0.199999 -1.16873e-09 0)
(0.199999 -8.84253e-10 0)
(0.199999 -6.30252e-10 0)
(0.199999 -5.05791e-10 0)
(0.199999 -2.644e-10 0)
(0.199999 -2.94278e-10 0)
(0.199999 -6.92164e-11 0)
(0.199999 -5.84707e-11 0)
(0.199999 -1.5155e-10 0)
(0.199999 2.88224e-10 0)
(0.199999 -2.57999e-10 0)
(0.199999 2.56696e-10 0)
(0.199999 1.47896e-10 0)
(0.199999 -7.68182e-11 0)
(0.199999 2.66291e-10 0)
(0.199999 1.76962e-10 0)
(0.199999 -9.1236e-11 0)
(0.198178 0.00539478 0)
(0.198293 0.00591583 0)
(0.198622 0.00634838 0)
(0.199093 0.00661855 0)
(0.199491 0.00682683 0)
(0.199958 0.00692252 0)
(0.20059 0.00678958 0)
(0.201124 0.00650066 0)
(0.201447 0.00613444 0)
(0.201725 0.00566147 0)
(0.20198 0.00511713 0)
(0.202091 0.00459789 0)
(0.202092 0.00411124 0)
(0.20209 0.00360478 0)
(0.20207 0.00308276 0)
(0.201969 0.00259162 0)
(0.201805 0.00214879 0)
(0.201634 0.00174726 0)
(0.201465 0.00139042 0)
(0.201285 0.00108935 0)
(0.201098 0.000846008 0)
(0.200921 0.000653482 0)
(0.200762 0.000503522 0)
(0.200623 0.000388887 0)
(0.200505 0.000302362 0)
(0.200406 0.000237035 0)
(0.200326 0.000187266 0)
(0.200261 0.000148892 0)
(0.200209 0.000118905 0)
(0.200167 9.51484e-05 0)
(0.200134 7.61133e-05 0)
(0.200107 6.07463e-05 0)
(0.200085 4.82948e-05 0)
(0.200068 3.81997e-05 0)
(0.200054 3.00293e-05 0)
(0.200043 2.34403e-05 0)
(0.200034 1.8152e-05 0)
(0.200027 1.39317e-05 0)
(0.200021 1.0585e-05 0)
(0.200017 7.94891e-06 0)
(0.200013 5.88715e-06 0)
(0.20001 4.28778e-06 0)
(0.200008 3.05669e-06 0)
(0.200006 2.11945e-06 0)
(0.200005 1.41439e-06 0)
(0.200003 8.8949e-07 0)
(0.200003 5.06603e-07 0)
(0.200002 2.29522e-07 0)
(0.200001 3.39224e-08 0)
(0.200001 -9.50392e-08 0)
(0.200001 -1.78695e-07 0)
(0.2 -2.2701e-07 0)
(0.2 -2.49863e-07 0)
(0.2 -2.55252e-07 0)
(0.2 -2.50393e-07 0)
(0.2 -2.38176e-07 0)
(0.2 -2.20708e-07 0)
(0.2 -2.01299e-07 0)
(0.2 -1.80847e-07 0)
(0.2 -1.60373e-07 0)
(0.2 -1.40701e-07 0)
(0.2 -1.22321e-07 0)
(0.2 -1.05481e-07 0)
(0.2 -9.02289e-08 0)
(0.2 -7.66676e-08 0)
(0.2 -6.47545e-08 0)
(0.2 -5.43741e-08 0)
(0.2 -4.54237e-08 0)
(0.2 -3.7754e-08 0)
(0.2 -3.12299e-08 0)
(0.2 -2.57151e-08 0)
(0.2 -2.10799e-08 0)
(0.2 -1.72049e-08 0)
(0.2 -1.3982e-08 0)
(0.2 -1.13148e-08 0)
(0.2 -9.11761e-09 0)
(0.2 -7.31519e-09 0)
(0.2 -5.84325e-09 0)
(0.2 -4.64388e-09 0)
(0.2 -3.67287e-09 0)
(0.2 -2.88495e-09 0)
(0.2 -2.25396e-09 0)
(0.2 -1.74311e-09 0)
(0.2 -1.3365e-09 0)
(0.2 -1.01788e-09 0)
(0.2 -7.42972e-10 0)
(0.2 -5.7756e-10 0)
(0.2 -3.56241e-10 0)
(0.2 -3.10408e-10 0)
(0.2 -1.49692e-10 0)
(0.2 -6.74655e-11 0)
(0.2 -1.55121e-10 0)
(0.2 1.88836e-10 0)
(0.2 -1.49966e-10 0)
(0.2 1.36868e-10 0)
(0.2 1.64604e-10 0)
(0.2 -3.6985e-11 0)
(0.2 1.57899e-10 0)
(0.2 1.60083e-10 0)
(0.2 -3.60945e-11 0)
(0.198668 0.00521111 0)
(0.198772 0.00561422 0)
(0.198974 0.00597801 0)
(0.199316 0.0062098 0)
(0.199651 0.00636104 0)
(0.199977 0.00644743 0)
(0.200387 0.00636313 0)
(0.200772 0.0061108 0)
(0.201032 0.00579662 0)
(0.201266 0.0054375 0)
(0.2015 0.00500578 0)
(0.201615 0.00453935 0)
(0.2016 0.00407657 0)
(0.201571 0.00360461 0)
(0.20156 0.00312255 0)
(0.201508 0.00266436 0)
(0.201401 0.00225186 0)
(0.201276 0.00188005 0)
(0.201153 0.00154412 0)
(0.201024 0.00125 0)
(0.200886 0.00100242 0)
(0.200751 0.000798866 0)
(0.200628 0.000633728 0)
(0.20052 0.000501653 0)
(0.200426 0.000397386 0)
(0.200346 0.000315537 0)
(0.200279 0.000251222 0)
(0.200225 0.00020049 0)
(0.20018 0.000160276 0)
(0.200144 0.000128217 0)
(0.200116 0.000102518 0)
(0.200092 8.18331e-05 0)
(0.200074 6.51441e-05 0)
(0.200059 5.16704e-05 0)
(0.200047 4.08012e-05 0)
(0.200037 3.20513e-05 0)
(0.200029 2.50297e-05 0)
(0.200023 1.94173e-05 0)
(0.200018 1.49518e-05 0)
(0.200014 1.14169e-05 0)
(0.200011 8.63413e-06 0)
(0.200009 6.45688e-06 0)
(0.200007 4.76464e-06 0)
(0.200005 3.45931e-06 0)
(0.200004 2.461e-06 0)
(0.200003 1.70441e-06 0)
(0.200002 1.13722e-06 0)
(0.200002 7.16714e-07 0)
(0.200001 4.11317e-07 0)
(0.200001 1.91542e-07 0)
(0.200001 3.75599e-08 0)
(0.2 -6.44106e-08 0)
(0.2 -1.28123e-07 0)
(0.2 -1.64369e-07 0)
(0.2 -1.84403e-07 0)
(0.2 -1.90267e-07 0)
(0.2 -1.86651e-07 0)
(0.2 -1.77995e-07 0)
(0.2 -1.65119e-07 0)
(0.2 -1.50231e-07 0)
(0.2 -1.34601e-07 0)
(0.2 -1.18909e-07 0)
(0.2 -1.04085e-07 0)
(0.2 -9.00982e-08 0)
(0.2 -7.73403e-08 0)
(0.2 -6.59076e-08 0)
(0.2 -5.5781e-08 0)
(0.2 -4.69338e-08 0)
(0.2 -3.9261e-08 0)
(0.2 -3.26718e-08 0)
(0.2 -2.70482e-08 0)
(0.2 -2.22847e-08 0)
(0.2 -1.82743e-08 0)
(0.2 -1.4917e-08 0)
(0.2 -1.21226e-08 0)
(0.2 -9.80836e-09 0)
(0.2 -7.90059e-09 0)
(0.2 -6.33558e-09 0)
(0.2 -5.05555e-09 0)
(0.2 -4.01448e-09 0)
(0.2 -3.1679e-09 0)
(0.2 -2.48581e-09 0)
(0.2 -1.93391e-09 0)
(0.2 -1.49176e-09 0)
(0.2 -1.14222e-09 0)
(0.2 -8.50285e-10 0)
(0.2 -6.48683e-10 0)
(0.2 -4.40748e-10 0)
(0.2 -3.40106e-10 0)
(0.2 -2.10918e-10 0)
(0.2 -1.03094e-10 0)
(0.2 -1.43079e-10 0)
(0.2 9.14359e-11 0)
(0.2 -8.366e-11 0)
(0.2 7.94248e-11 0)
(0.2 1.28265e-10 0)
(0.2 4.7191e-13 0)
(0.2 1.0895e-10 0)
(0.2 1.3791e-10 0)
(0.2 -2.42798e-12 0)
(0.19916 0.00506077 0)
(0.19924 0.00537295 0)
(0.199356 0.00566315 0)
(0.199562 0.00587191 0)
(0.199777 0.00598283 0)
(0.199959 0.00602138 0)
(0.20019 0.00596179 0)
(0.200458 0.00578627 0)
(0.200661 0.00553944 0)
(0.200803 0.00523734 0)
(0.200931 0.00485549 0)
(0.201008 0.00441783 0)
(0.201011 0.0039824 0)
(0.201001 0.00356462 0)
(0.201007 0.00314861 0)
(0.200991 0.00273823 0)
(0.20093 0.00235289 0)
(0.20085 0.00200065 0)
(0.20077 0.00167997 0)
(0.20069 0.00139272 0)
(0.200605 0.00114331 0)
(0.20052 0.000932242 0)
(0.20044 0.000756088 0)
(0.200369 0.000610516 0)
(0.200306 0.000491481 0)
(0.200251 0.000394972 0)
(0.200205 0.000317075 0)
(0.200166 0.000254313 0)
(0.200134 0.000203783 0)
(0.200108 0.000163104 0)
(0.200086 0.000130342 0)
(0.200069 0.000103945 0)
(0.200055 8.26749e-05 0)
(0.200044 6.55475e-05 0)
(0.200035 5.17734e-05 0)
(0.200028 4.07177e-05 0)
(0.200022 3.18669e-05 0)
(0.200017 2.48036e-05 0)
(0.200014 1.91877e-05 0)
(0.200011 1.47408e-05 0)
(0.200008 1.12358e-05 0)
(0.200007 8.48719e-06 0)
(0.200005 6.34363e-06 0)
(0.200004 4.6823e-06 0)
(0.200003 3.40369e-06 0)
(0.200002 2.42713e-06 0)
(0.200002 1.68774e-06 0)
(0.200001 1.13354e-06 0)
(0.200001 7.23283e-07 0)
(0.200001 4.23527e-07 0)
(0.200001 2.09105e-07 0)
(0.2 5.80391e-08 0)
(0.2 -4.51817e-08 0)
(0.2 -1.12544e-07 0)
(0.2 -1.51199e-07 0)
(0.2 -1.7041e-07 0)
(0.2 -1.76725e-07 0)
(0.2 -1.73566e-07 0)
(0.2 -1.64625e-07 0)
(0.2 -1.52165e-07 0)
(0.2 -1.38029e-07 0)
(0.2 -1.233e-07 0)
(0.2 -1.08616e-07 0)
(0.2 -9.47082e-08 0)
(0.2 -8.1786e-08 0)
(0.2 -7.00273e-08 0)
(0.2 -5.95222e-08 0)
(0.2 -5.02452e-08 0)
(0.2 -4.21599e-08 0)
(0.2 -3.51736e-08 0)
(0.2 -2.91906e-08 0)
(0.2 -2.41025e-08 0)
(0.2 -1.98053e-08 0)
(0.2 -1.61988e-08 0)
(0.2 -1.31888e-08 0)
(0.2 -1.06904e-08 0)
(0.2 -8.62639e-09 0)
(0.2 -6.92941e-09 0)
(0.2 -5.53942e-09 0)
(0.2 -4.40655e-09 0)
(0.2 -3.48492e-09 0)
(0.2 -2.74019e-09 0)
(0.2 -2.13815e-09 0)
(0.2 -1.65494e-09 0)
(0.2 -1.27014e-09 0)
(0.2 -9.56855e-10 0)
(0.2 -7.2217e-10 0)
(0.2 -5.15406e-10 0)
(0.2 -3.77768e-10 0)
(0.2 -2.56066e-10 0)
(0.2 -1.42984e-10 0)
(0.2 -1.31266e-10 0)
(0.2 1.58323e-11 0)
(0.2 -4.09358e-11 0)
(0.2 4.74201e-11 0)
(0.2 8.24581e-11 0)
(0.2 4.47676e-11 0)
(0.2 7.6537e-11 0)
(0.2 1.02365e-10 0)
(0.2 1.80849e-11 0)
(0.199678 0.00496571 0)
(0.199709 0.00522996 0)
(0.199745 0.00546955 0)
(0.199805 0.00565122 0)
(0.199878 0.00574438 0)
(0.19995 0.00576919 0)
(0.200041 0.00572472 0)
(0.200138 0.00557603 0)
(0.200203 0.00533527 0)
(0.200243 0.00504341 0)
(0.20029 0.00470477 0)
(0.200336 0.00432008 0)
(0.200356 0.00392252 0)
(0.200361 0.0035353 0)
(0.200367 0.00314944 0)
(0.200367 0.00276132 0)
(0.200352 0.00238922 0)
(0.200329 0.00204895 0)
(0.200305 0.00174149 0)
(0.200281 0.00146461 0)
(0.200254 0.00122016 0)
(0.200225 0.00100967 0)
(0.200197 0.000831191 0)
(0.200171 0.000681039 0)
(0.200147 0.000555751 0)
(0.200125 0.000452138 0)
(0.200106 0.000366994 0)
(0.200089 0.00029727 0)
(0.200074 0.000240305 0)
(0.200062 0.000193852 0)
(0.200051 0.000156029 0)
(0.200042 0.000125269 0)
(0.200035 0.000100286 0)
(0.200028 8.00283e-05 0)
(0.200023 6.36358e-05 0)
(0.200019 5.04034e-05 0)
(0.200015 3.97519e-05 0)
(0.200012 3.12053e-05 0)
(0.20001 2.43717e-05 0)
(0.200008 1.89287e-05 0)
(0.200007 1.4611e-05 0)
(0.200005 1.12012e-05 0)
(0.200004 8.52116e-06 0)
(0.200003 6.42551e-06 0)
(0.200003 4.79602e-06 0)
(0.200002 3.53669e-06 0)
(0.200002 2.56995e-06 0)
(0.200001 1.83341e-06 0)
(0.200001 1.27706e-06 0)
(0.200001 8.60885e-07 0)
(0.200001 5.53202e-07 0)
(0.200001 3.28609e-07 0)
(0.2 1.67679e-07 0)
(0.2 5.45831e-08 0)
(0.2 -2.1283e-08 0)
(0.2 -6.96153e-08 0)
(0.2 -9.83008e-08 0)
(0.2 -1.12932e-07 0)
(0.2 -1.1792e-07 0)
(0.2 -1.16332e-07 0)
(0.2 -1.10534e-07 0)
(0.2 -1.02284e-07 0)
(0.2 -9.26576e-08 0)
(0.2 -8.26273e-08 0)
(0.2 -7.27052e-08 0)
(0.2 -6.32401e-08 0)
(0.2 -5.4479e-08 0)
(0.2 -4.65285e-08 0)
(0.2 -3.94389e-08 0)
(0.2 -3.31997e-08 0)
(0.2 -2.77716e-08 0)
(0.2 -2.30941e-08 0)
(0.2 -1.90978e-08 0)
(0.2 -1.57099e-08 0)
(0.2 -1.28574e-08 0)
(0.2 -1.04711e-08 0)
(0.2 -8.48598e-09 0)
(0.2 -6.84375e-09 0)
(0.2 -5.49122e-09 0)
(0.2 -4.38308e-09 0)
(0.2 -3.47788e-09 0)
(0.2 -2.743e-09 0)
(0.2 -2.14702e-09 0)
(0.2 -1.66728e-09 0)
(0.2 -1.28242e-09 0)
(0.2 -9.72484e-10 0)
(0.2 -7.31378e-10 0)
(0.2 -5.3192e-10 0)
(0.2 -3.84454e-10 0)
(0.2 -2.65136e-10 0)
(0.2 -1.60068e-10 0)
(0.2 -1.1834e-10 0)