/*--------------------------------*- C++ -*----------------------------------*\
| =========                 |                                                 |
| \\      /  F ield         | OpenFOAM: The Open Source CFD Toolbox           |
|  \\    /   O peration     | Version:  2.3.0                                 |
|   \\  /    A nd           | Web:      www.OpenFOAM.org                      |
|    \\/     M anipulation  |                                                 |
\*---------------------------------------------------------------------------*/
FoamFile
{
    version     2.0;
    format      ascii;
    class       surfaceScalarField;
    location    "0.9";
    object      phi;
}
// * * * * * * * * * * * * * * * * * * * * * * * * * * * * * * * * * * * * * //

dimensions      [0 3 -1 0 0 0 0];

internalField   nonuniform List<scalar> 
13570
(
2.82861e-08
2.88658e-09
-3.11727e-08
2.5418e-08
2.86814e-09
2.27269e-08
2.69103e-09
2.02466e-08
2.4803e-09
1.79932e-08
2.25345e-09
1.59772e-08
2.01602e-09
1.4201e-08
1.77619e-09
1.26592e-08
1.54177e-09
1.13399e-08
1.31934e-09
1.02256e-08
1.11427e-09
9.29508e-09
9.30508e-10
8.52474e-09
7.70342e-10
7.89034e-09
6.34395e-10
7.36853e-09
5.21808e-10
6.93793e-09
4.306e-10
6.57986e-09
3.58075e-10
6.27863e-09
3.0123e-10
6.02154e-09
2.57086e-10
5.79862e-09
2.22921e-10
5.60223e-09
1.96394e-10
5.42663e-09
1.75597e-10
5.2676e-09
1.59034e-10
5.12202e-09
1.45577e-10
4.98762e-09
1.34398e-10
4.86272e-09
1.24904e-10
4.74604e-09
1.1668e-10
4.6366e-09
1.09436e-10
4.53363e-09
1.02972e-10
4.43648e-09
9.71478e-11
4.34462e-09
9.18626e-11
4.25757e-09
8.70423e-11
4.17495e-09
8.26295e-11
4.09637e-09
7.8578e-11
4.02152e-09
7.48493e-11
3.95011e-09
7.14102e-11
3.88188e-09
6.82318e-11
3.81659e-09
6.52883e-11
3.75403e-09
6.2557e-11
3.69401e-09
6.00174e-11
3.63636e-09
5.76514e-11
3.58092e-09
5.54428e-11
3.52754e-09
5.33772e-11
3.4761e-09
5.14417e-11
3.42648e-09
4.96249e-11
3.37856e-09
4.79165e-11
3.33225e-09
4.63075e-11
3.28746e-09
4.47897e-11
3.24411e-09
4.33559e-11
3.20211e-09
4.19994e-11
3.16139e-09
4.07145e-11
3.1219e-09
3.94957e-11
3.08356e-09
3.83384e-11
3.04632e-09
3.72381e-11
3.01013e-09
3.6191e-11
2.97493e-09
3.51935e-11
2.94069e-09
3.42422e-11
2.90736e-09
3.33343e-11
2.87489e-09
3.2467e-11
2.84325e-09
3.16377e-11
2.81241e-09
3.08443e-11
2.78232e-09
3.00847e-11
2.75297e-09
2.93568e-11
2.72431e-09
2.86589e-11
2.69632e-09
2.79894e-11
2.66897e-09
2.73468e-11
2.64224e-09
2.67296e-11
2.61611e-09
2.61366e-11
2.59054e-09
2.55666e-11
2.56552e-09
2.50184e-11
2.54103e-09
2.44912e-11
2.51705e-09
2.39838e-11
2.49355e-09
2.34956e-11
2.47053e-09
2.30255e-11
2.44795e-09
2.2573e-11
2.42582e-09
2.21374e-11
2.4041e-09
2.17179e-11
2.38278e-09
2.13141e-11
2.36186e-09
2.09255e-11
2.34131e-09
2.05515e-11
2.32111e-09
2.01917e-11
2.30127e-09
1.98459e-11
2.28175e-09
1.95136e-11
2.26256e-09
1.91946e-11
2.24367e-09
1.88888e-11
2.22508e-09
1.85959e-11
2.20676e-09
1.83159e-11
2.18871e-09
1.80489e-11
2.17092e-09
1.77949e-11
2.15336e-09
1.75541e-11
2.13603e-09
1.73272e-11
2.11892e-09
1.7115e-11
2.102e-09
1.69189e-11
2.08526e-09
1.67417e-11
2.06867e-09
1.65886e-11
2.0522e-09
1.64707e-11
2.03579e-09
1.64142e-11
2.01929e-09
1.64921e-11
2.00241e-09
1.68873e-11
1.98472e-09
1.76853e-11
5.37342e-11
3.33186e-08
3.16549e-09
-3.35975e-08
3.27259e-08
3.46083e-09
3.19012e-08
3.51571e-09
3.09212e-08
3.46027e-09
2.98414e-08
3.33322e-09
2.87075e-08
3.14998e-09
2.75562e-08
2.92742e-09
2.64161e-08
2.68195e-09
2.53079e-08
2.42755e-09
2.42463e-08
2.17581e-09
2.3241e-08
1.93586e-09
2.2297e-08
1.71427e-09
2.14165e-08
1.51496e-09
2.05988e-08
1.33952e-09
1.98417e-08
1.18768e-09
1.91419e-08
1.05784e-09
1.84955e-08
9.4765e-10
1.78982e-08
8.54407e-10
1.73457e-08
7.75433e-10
1.68338e-08
7.0826e-10
1.63587e-08
6.5074e-10
1.59166e-08
6.01076e-10
1.55044e-08
5.5781e-10
1.5119e-08
5.19783e-10
1.47578e-08
4.86081e-10
1.44185e-08
4.55992e-10
1.4099e-08
4.28955e-10
1.37974e-08
4.0453e-10
1.35122e-08
3.82364e-10
1.32419e-08
3.62168e-10
1.29852e-08
3.43707e-10
1.27411e-08
3.26781e-10
1.25085e-08
3.11221e-10
1.22864e-08
2.96881e-10
1.20742e-08
2.83634e-10
1.18711e-08
2.71369e-10
1.16764e-08
2.59989e-10
1.14895e-08
2.49408e-10
1.131e-08
2.39549e-10
1.11373e-08
2.30344e-10
1.0971e-08
2.21735e-10
1.08107e-08
2.13668e-10
1.0656e-08
2.06095e-10
1.05067e-08
1.98974e-10
1.03623e-08
1.92268e-10
1.02227e-08
1.85942e-10
1.00875e-08
1.79967e-10
9.95658e-09
1.74315e-10
9.82961e-09
1.68961e-10
9.70645e-09
1.63884e-10
9.58688e-09
1.59063e-10
9.47074e-09
1.5448e-10
9.35786e-09
1.50119e-10
9.24808e-09
1.45964e-10
9.14128e-09
1.42002e-10
9.0373e-09
1.38221e-10
8.93602e-09
1.34609e-10
8.83733e-09
1.31155e-10
8.74112e-09
1.2785e-10
8.64728e-09
1.24685e-10
8.55571e-09
1.21652e-10
8.46633e-09
1.18744e-10
8.37903e-09
1.15953e-10
8.29375e-09
1.13272e-10
8.2104e-09
1.10697e-10
8.12891e-09
1.08222e-10
8.0492e-09
1.05841e-10
7.97122e-09
1.03551e-10
7.89489e-09
1.01345e-10
7.82016e-09
9.92219e-11
7.74697e-09
9.71763e-11
7.67526e-09
9.52051e-11
7.60498e-09
9.33052e-11
7.53608e-09
9.14736e-11
7.46851e-09
8.97076e-11
7.40222e-09
8.80047e-11
7.33717e-09
8.63626e-11
7.27332e-09
8.47792e-11
7.21062e-09
8.32526e-11
7.14903e-09
8.17811e-11
7.08851e-09
8.03631e-11
7.02903e-09
7.89973e-11
6.97054e-09
7.76826e-11
6.91301e-09
7.6418e-11
6.8564e-09
7.52027e-11
6.80068e-09
7.40363e-11
6.74581e-09
7.29187e-11
6.69176e-09
7.18499e-11
6.63848e-09
7.08308e-11
6.58595e-09
6.98626e-11
6.53411e-09
6.8948e-11
6.48294e-09
6.80915e-11
6.43238e-09
6.73016e-11
6.38237e-09
6.65949e-11
6.33284e-09
6.60066e-11
6.28363e-09
6.56227e-11
6.23445e-09
6.56745e-11
6.18457e-09
6.67615e-11
6.12793e-09
7.43303e-11
1.36312e-10
3.47135e-08
3.01784e-09
-3.45658e-08
3.47719e-08
3.40242e-09
3.47038e-08
3.5838e-09
3.45147e-08
3.64938e-09
3.42152e-08
3.63274e-09
3.38196e-08
3.54558e-09
3.33453e-08
3.40168e-09
3.28102e-08
3.21702e-09
3.22311e-08
3.00671e-09
3.16228e-08
2.78411e-09
3.09981e-08
2.56053e-09
3.03675e-08
2.34483e-09
2.97393e-08
2.14324e-09
2.91194e-08
1.9594e-09
2.85122e-08
1.79481e-09
2.79208e-08
1.64933e-09
2.73467e-08
1.5217e-09
2.6791e-08
1.41007e-09
2.62541e-08
1.31234e-09
2.5736e-08
1.22643e-09
2.52363e-08
1.15046e-09
2.47545e-08
1.08279e-09
2.42903e-08
1.02206e-09
2.38429e-08
9.67164e-10
2.34118e-08
9.17215e-10
2.29963e-08
8.71508e-10
2.25957e-08
8.29486e-10
2.22096e-08
7.907e-10
2.18371e-08
7.54785e-10
2.14779e-08
7.21442e-10
2.11312e-08
6.90418e-10
2.07964e-08
6.61496e-10
2.04732e-08
6.34489e-10
2.01608e-08
6.09231e-10
1.98589e-08
5.85574e-10
1.95669e-08
5.63386e-10
1.92843e-08
5.42549e-10
1.90108e-08
5.22954e-10
1.87458e-08
5.04504e-10
1.8489e-08
4.8711e-10
1.82401e-08
4.70692e-10
1.79986e-08
4.55177e-10
1.77642e-08
4.40497e-10
1.75365e-08
4.26591e-10
1.73154e-08
4.13406e-10
1.71005e-08
4.00889e-10
1.68914e-08
3.88994e-10
1.66881e-08
3.77679e-10
1.64901e-08
3.66906e-10
1.62974e-08
3.56638e-10
1.61096e-08
3.46843e-10
1.59266e-08
3.37491e-10
1.57481e-08
3.28555e-10
1.55741e-08
3.20008e-10
1.54043e-08
3.11828e-10
1.52385e-08
3.03993e-10
1.50766e-08
2.96482e-10
1.49185e-08
2.89278e-10
1.4764e-08
2.82363e-10
1.4613e-08
2.75721e-10
1.44653e-08
2.69337e-10
1.43208e-08
2.63199e-10
1.41795e-08
2.57293e-10
1.40411e-08
2.51607e-10
1.39057e-08
2.46131e-10
1.37731e-08
2.40854e-10
1.36432e-08
2.35767e-10
1.35158e-08
2.30861e-10
1.33911e-08
2.26128e-10
1.32687e-08
2.21559e-10
1.31488e-08
2.17149e-10
1.30311e-08
2.12891e-10
1.29156e-08
2.08777e-10
1.28023e-08
2.04803e-10
1.2691e-08
2.00963e-10
1.25818e-08
1.97253e-10
1.24745e-08
1.93667e-10
1.2369e-08
1.90202e-10
1.22654e-08
1.86854e-10
1.21636e-08
1.83619e-10
1.20635e-08
1.80495e-10
1.1965e-08
1.77478e-10
1.18681e-08
1.74566e-10
1.17728e-08
1.71758e-10
1.16789e-08
1.69052e-10
1.15865e-08
1.66447e-10
1.14955e-08
1.63941e-10
1.14058e-08
1.61537e-10
1.13174e-08
1.59234e-10
1.12302e-08
1.57036e-10
1.11442e-08
1.54946e-10
1.10593e-08
1.52974e-10
1.09755e-08
1.51136e-10
1.08926e-08
1.49463e-10
1.08106e-08
1.48021e-10
1.07293e-08
1.46976e-10
1.06482e-08
1.46775e-10
1.05661e-08
1.4885e-10
1.04771e-08
1.63339e-10
2.32666e-10
3.55472e-08
2.83085e-09
-3.53602e-08
3.57372e-08
3.21241e-09
3.58859e-08
3.43515e-09
3.59807e-08
3.55455e-09
3.6015e-08
3.5984e-09
3.5985e-08
3.57566e-09
3.5891e-08
3.49566e-09
3.57372e-08
3.37079e-09
3.55299e-08
3.214e-09
3.52766e-08
3.03739e-09
3.49854e-08
2.85176e-09
3.46641e-08
2.66612e-09
3.432e-08
2.48734e-09
3.39594e-08
2.32003e-09
3.35875e-08
2.16674e-09
3.32084e-08
2.02838e-09
3.28254e-08
1.90466e-09
3.2441e-08
1.79452e-09
3.20569e-08
1.69648e-09
3.16743e-08
1.60897e-09
3.12943e-08
1.53044e-09
3.09176e-08
1.4595e-09
3.05447e-08
1.39495e-09
3.01761e-08
1.33582e-09
2.9812e-08
1.28129e-09
2.94528e-08
1.23073e-09
2.90986e-08
1.18362e-09
2.87498e-08
1.13956e-09
2.84064e-08
1.09821e-09
2.80685e-08
1.05931e-09
2.77363e-08
1.02263e-09
2.74098e-08
9.8798e-10
2.70891e-08
9.55204e-10
2.67742e-08
9.24155e-10
2.6465e-08
8.94707e-10
2.61617e-08
8.66746e-10
2.5864e-08
8.40168e-10
2.55721e-08
8.14882e-10
2.52858e-08
7.90802e-10
2.50051e-08
7.67848e-10
2.47298e-08
7.45951e-10
2.446e-08
7.25044e-10
2.41954e-08
7.05066e-10
2.3936e-08
6.85961e-10
2.36817e-08
6.67678e-10
2.34325e-08
6.50168e-10
2.31881e-08
6.33388e-10
2.29485e-08
6.17296e-10
2.27135e-08
6.01854e-10
2.24831e-08
5.87026e-10
2.22572e-08
5.72779e-10
2.20356e-08
5.59083e-10
2.18182e-08
5.45908e-10
2.1605e-08
5.33229e-10
2.13958e-08
5.21019e-10
2.11906e-08
5.09255e-10
2.09891e-08
4.97915e-10
2.07914e-08
4.86979e-10
2.05974e-08
4.76428e-10
2.04068e-08
4.66243e-10
2.02198e-08
4.56408e-10
2.00361e-08
4.46906e-10
1.98556e-08
4.37722e-10
1.96784e-08
4.28844e-10
1.95043e-08
4.20257e-10
1.93332e-08
4.11949e-10
1.9165e-08
4.03909e-10
1.89998e-08
3.96126e-10
1.88373e-08
3.8859e-10
1.86776e-08
3.8129e-10
1.85205e-08
3.74219e-10
1.8366e-08
3.67367e-10
1.82141e-08
3.60727e-10
1.80646e-08
3.54292e-10
1.79175e-08
3.48054e-10
1.77727e-08
3.42008e-10
1.76303e-08
3.36147e-10
1.749e-08
3.30466e-10
1.73519e-08
3.2496e-10
1.72159e-08
3.19625e-10
1.70819e-08
3.14457e-10
1.695e-08
3.09452e-10
1.68199e-08
3.04607e-10
1.66917e-08
2.9992e-10
1.65654e-08
2.95388e-10
1.64408e-08
2.91011e-10
1.6318e-08
2.86789e-10
1.61968e-08
2.82722e-10
1.60772e-08
2.78813e-10
1.59592e-08
2.75064e-10
1.58427e-08
2.71486e-10
1.57276e-08
2.68089e-10
1.56138e-08
2.64899e-10
1.55013e-08
2.61964e-10
1.53899e-08
2.59386e-10
1.52795e-08
2.57411e-10
1.51695e-08
2.56723e-10
1.50588e-08
2.59626e-10
1.49444e-08
2.77669e-10
3.41483e-10
3.62972e-08
2.66738e-09
-3.61337e-08
3.64901e-08
3.01947e-09
3.66768e-08
3.24846e-09
3.68445e-08
3.38685e-09
3.69856e-08
3.45731e-09
3.70929e-08
3.4684e-09
3.71613e-08
3.42724e-09
3.71886e-08
3.34343e-09
3.71751e-08
3.22754e-09
3.71227e-08
3.08983e-09
3.70347e-08
2.9397e-09
3.69155e-08
2.78532e-09
3.67697e-08
2.63321e-09
3.66016e-08
2.48808e-09
3.64155e-08
2.35289e-09
3.62147e-08
2.22911e-09
3.60023e-08
2.11705e-09
3.57806e-08
2.01623e-09
3.55514e-08
1.9257e-09
3.53161e-08
1.84428e-09
3.50758e-08
1.77074e-09
3.48314e-08
1.70394e-09
3.45835e-08
1.64284e-09
3.43327e-08
1.58658e-09
3.40796e-08
1.53443e-09
3.38245e-08
1.4858e-09
3.35679e-08
1.44023e-09
3.33101e-08
1.39733e-09
3.30515e-08
1.35681e-09
3.27924e-08
1.3184e-09
3.25331e-08
1.28192e-09
3.22739e-08
1.24719e-09
3.20151e-08
1.21407e-09
3.17568e-08
1.18243e-09
3.14993e-08
1.15218e-09
3.12429e-08
1.1232e-09
3.09876e-08
1.09542e-09
3.07337e-08
1.06875e-09
3.04814e-08
1.04314e-09
3.02307e-08
1.01851e-09
2.99819e-08
9.94814e-10
2.97349e-08
9.71992e-10
2.949e-08
9.49997e-10
2.92472e-08
9.28786e-10
2.90065e-08
9.08317e-10
2.87682e-08
8.88553e-10
2.85321e-08
8.69458e-10
2.82984e-08
8.51001e-10
2.80671e-08
8.3315e-10
2.78382e-08
8.15878e-10
2.76119e-08
7.99158e-10
2.7388e-08
7.82965e-10
2.71666e-08
7.67278e-10
2.69478e-08
7.52073e-10
2.67314e-08
7.37332e-10
2.65177e-08
7.23034e-10
2.63064e-08
7.09161e-10
2.60977e-08
6.95698e-10
2.58915e-08
6.82627e-10
2.56878e-08
6.69935e-10
2.54866e-08
6.57605e-10
2.52879e-08
6.45626e-10
2.50916e-08
6.33984e-10
2.48978e-08
6.22667e-10
2.47064e-08
6.11664e-10
2.45174e-08
6.00964e-10
2.43307e-08
5.90558e-10
2.41464e-08
5.80434e-10
2.39644e-08
5.70585e-10
2.37847e-08
5.61001e-10
2.36073e-08
5.51675e-10
2.3432e-08
5.426e-10
2.3259e-08
5.33766e-10
2.30881e-08
5.2517e-10
2.29194e-08
5.16803e-10
2.27527e-08
5.0866e-10
2.25881e-08
5.00737e-10
2.24256e-08
4.93027e-10
2.2265e-08
4.85527e-10
2.21064e-08
4.78232e-10
2.19497e-08
4.71139e-10
2.17949e-08
4.64246e-10
2.1642e-08
4.5755e-10
2.14908e-08
4.51048e-10
2.13415e-08
4.44741e-10
2.11939e-08
4.38628e-10
2.1048e-08
4.3271e-10
2.09037e-08
4.26988e-10
2.0761e-08
4.21468e-10
2.06199e-08
4.16156e-10
2.04804e-08
4.11063e-10
2.03422e-08
4.06209e-10
2.02055e-08
4.01625e-10
2.00701e-08
3.97377e-10
1.99359e-08
3.936e-10
1.98027e-08
3.90616e-10
1.96701e-08
3.89291e-10
1.95373e-08
3.92395e-10
1.94047e-08
4.10276e-10
4.60386e-10
3.70405e-08
2.53e-09
-3.69031e-08
3.72128e-08
2.8471e-09
3.7392e-08
3.06932e-09
3.75658e-08
3.21299e-09
3.7728e-08
3.29511e-09
3.78724e-08
3.32397e-09
3.7994e-08
3.30573e-09
3.80892e-08
3.24823e-09
3.81564e-08
3.16033e-09
3.81954e-08
3.05081e-09
3.82073e-08
2.9278e-09
3.81941e-08
2.79851e-09
3.81584e-08
2.66885e-09
3.81032e-08
2.54331e-09
3.80312e-08
2.42489e-09
3.7945e-08
2.31531e-09
3.78468e-08
2.21524e-09
3.77385e-08
2.12458e-09
3.76214e-08
2.04275e-09
3.74968e-08
1.9689e-09
3.73655e-08
1.90207e-09
3.72281e-08
1.8413e-09
3.70852e-08
1.78571e-09
3.69373e-08
1.73453e-09
3.67846e-08
1.6871e-09
3.66275e-08
1.64289e-09
3.64663e-08
1.60143e-09
3.63012e-08
1.56239e-09
3.61326e-08
1.52546e-09
3.59606e-08
1.4904e-09
3.57855e-08
1.45702e-09
3.56075e-08
1.42516e-09
3.54269e-08
1.39467e-09
3.52439e-08
1.36545e-09
3.50587e-08
1.33739e-09
3.48715e-08
1.3104e-09
3.46825e-08
1.2844e-09
3.4492e-08
1.25933e-09
3.43e-08
1.23512e-09
3.41068e-08
1.21171e-09
3.39125e-08
1.18907e-09
3.37174e-08
1.16714e-09
3.35215e-08
1.14588e-09
3.3325e-08
1.12525e-09
3.31281e-08
1.10523e-09
3.29309e-08
1.08577e-09
3.27335e-08
1.06686e-09
3.2536e-08
1.04846e-09
3.23386e-08
1.03056e-09
3.21414e-08
1.01312e-09
3.19444e-08
9.9614e-10
3.17478e-08
9.79588e-10
3.15516e-08
9.63452e-10
3.1356e-08
9.47714e-10
3.11609e-08
9.3236e-10
3.09666e-08
9.17376e-10
3.0773e-08
9.02749e-10
3.05802e-08
8.88466e-10
3.03883e-08
8.74517e-10
3.01974e-08
8.60891e-10
3.00074e-08
8.47577e-10
2.98185e-08
8.34567e-10
2.96306e-08
8.21851e-10
2.94439e-08
8.0942e-10
2.92583e-08
7.97268e-10
2.90738e-08
7.85387e-10
2.88906e-08
7.7377e-10
2.87086e-08
7.62409e-10
2.85279e-08
7.513e-10
2.83485e-08
7.40435e-10
2.81704e-08
7.2981e-10
2.79935e-08
7.1942e-10
2.7818e-08
7.0926e-10
2.76439e-08
6.99325e-10
2.74711e-08
6.89612e-10
2.72996e-08
6.80116e-10
2.71295e-08
6.70836e-10
2.69608e-08
6.61767e-10
2.67934e-08
6.52907e-10
2.66274e-08
6.44254e-10
2.64627e-08
6.35807e-10
2.62994e-08
6.27564e-10
2.61374e-08
6.19526e-10
2.59768e-08
6.11692e-10
2.58175e-08
6.04064e-10
2.56594e-08
5.96642e-10
2.55027e-08
5.89432e-10
2.53473e-08
5.82436e-10
2.51931e-08
5.75663e-10
2.50401e-08
5.69123e-10
2.48883e-08
5.6283e-10
2.47377e-08
5.56811e-10
2.45883e-08
5.51106e-10
2.44398e-08
5.45796e-10
2.42924e-08
5.41039e-10
2.41458e-08
5.37208e-10
2.39999e-08
5.35246e-10
2.38544e-08
5.37841e-10
2.3712e-08
5.52663e-10
5.84955e-10
3.7789e-08
2.41293e-09
-3.76719e-08
3.794e-08
2.69608e-09
3.8103e-08
2.90633e-09
3.82664e-08
3.04959e-09
3.84242e-08
3.13734e-09
3.85713e-08
3.17688e-09
3.87033e-08
3.1737e-09
3.88172e-08
3.1344e-09
3.8911e-08
3.06652e-09
3.89841e-08
2.97768e-09
3.90369e-08
2.87503e-09
3.90704e-08
2.76496e-09
3.90864e-08
2.65283e-09
3.90869e-08
2.54282e-09
3.90739e-08
2.43788e-09
3.90494e-08
2.33985e-09
3.9015e-08
2.24961e-09
3.89722e-08
2.16736e-09
3.89222e-08
2.0928e-09
3.88658e-08
2.02534e-09
3.88036e-08
1.96424e-09
3.87362e-08
1.9087e-09
3.86639e-08
1.858e-09
3.8587e-08
1.81144e-09
3.85057e-08
1.76844e-09
3.84201e-08
1.72848e-09
3.83303e-08
1.69115e-09
3.82366e-08
1.65611e-09
3.8139e-08
1.62306e-09
3.80376e-08
1.59177e-09
3.79326e-08
1.56205e-09
3.78241e-08
1.53372e-09
3.77121e-08
1.50665e-09
3.75968e-08
1.48072e-09
3.74784e-08
1.45583e-09
3.73569e-08
1.43189e-09
3.72325e-08
1.40881e-09
3.71053e-08
1.38654e-09
3.69754e-08
1.36501e-09
3.68429e-08
1.34417e-09
3.6708e-08
1.32396e-09
3.65708e-08
1.30434e-09
3.64314e-08
1.28528e-09
3.62899e-08
1.26673e-09
3.61465e-08
1.24866e-09
3.60012e-08
1.23105e-09
3.58542e-08
1.21388e-09
3.57056e-08
1.1971e-09
3.55554e-08
1.18071e-09
3.54038e-08
1.16469e-09
3.5251e-08
1.14902e-09
3.50969e-08
1.13367e-09
3.49417e-08
1.11864e-09
3.47855e-08
1.10392e-09
3.46283e-08
1.08949e-09
3.44704e-08
1.07534e-09
3.43117e-08
1.06145e-09
3.41523e-08
1.04783e-09
3.39924e-08
1.03446e-09
3.38319e-08
1.02134e-09
3.3671e-08
1.00845e-09
3.35098e-08
9.95797e-10
3.33483e-08
9.83364e-10
3.31866e-08
9.71151e-10
3.30247e-08
9.59152e-10
3.28627e-08
9.47362e-10
3.27007e-08
9.35777e-10
3.25387e-08
9.24393e-10
3.23768e-08
9.13206e-10
3.2215e-08
9.02214e-10
3.20534e-08
8.91412e-10
3.1892e-08
8.808e-10
3.17309e-08
8.70375e-10
3.15701e-08
8.60134e-10
3.14097e-08
8.50076e-10
3.12496e-08
8.402e-10
3.10899e-08
8.30505e-10
3.09307e-08
8.20991e-10
3.07719e-08
8.11657e-10
3.06137e-08
8.02503e-10
3.0456e-08
7.93531e-10
3.02988e-08
7.84741e-10
3.01422e-08
7.76136e-10
2.99861e-08
7.67719e-10
2.98307e-08
7.59492e-10
2.96759e-08
7.5146e-10
2.95217e-08
7.4363e-10
2.93681e-08
7.36009e-10
2.92152e-08
7.28607e-10
2.90629e-08
7.21439e-10
2.89112e-08
7.14524e-10
2.87601e-08
7.07893e-10
2.86096e-08
7.01595e-10
2.84597e-08
6.9572e-10
2.83103e-08
6.90442e-10
2.81613e-08
6.8614e-10
2.80129e-08
6.83705e-10
2.78654e-08
6.85304e-10
2.77227e-08
6.95401e-10
7.09351e-10
3.85446e-08
2.31106e-09
-3.84427e-08
3.86773e-08
2.56341e-09
3.8824e-08
2.75958e-09
3.89741e-08
2.89945e-09
3.91216e-08
2.98987e-09
3.92618e-08
3.03665e-09
3.93909e-08
3.0446e-09
3.95061e-08
3.01926e-09
3.96056e-08
2.96705e-09
3.96886e-08
2.8946e-09
3.97555e-08
2.80821e-09
3.98068e-08
2.71359e-09
3.98441e-08
2.6156e-09
3.98687e-08
2.51814e-09
3.98825e-08
2.42408e-09
3.98871e-08
2.3353e-09
3.98838e-08
2.25286e-09
3.9874e-08
2.17719e-09
3.98586e-08
2.10821e-09
3.98384e-08
2.04555e-09
3.9814e-08
1.98868e-09
3.97857e-08
1.93697e-09
3.97539e-08
1.88981e-09
3.97187e-08
1.8466e-09
3.96803e-08
1.80682e-09
3.96388e-08
1.77001e-09
3.95942e-08
1.73577e-09
3.95465e-08
1.70378e-09
3.94958e-08
1.67377e-09
3.94421e-08
1.64548e-09
3.93854e-08
1.61874e-09
3.93258e-08
1.59337e-09
3.92632e-08
1.56924e-09
3.91977e-08
1.54621e-09
3.91293e-08
1.52419e-09
3.90581e-08
1.50309e-09
3.89841e-08
1.48281e-09
3.89074e-08
1.46329e-09
3.88279e-08
1.44447e-09
3.87458e-08
1.42629e-09
3.86611e-08
1.40869e-09
3.85738e-08
1.39163e-09
3.8484e-08
1.37506e-09
3.83918e-08
1.35896e-09
3.82971e-08
1.34328e-09
3.82002e-08
1.32799e-09
3.8101e-08
1.31308e-09
3.79996e-08
1.2985e-09
3.78961e-08
1.28425e-09
3.77905e-08
1.2703e-09
3.76828e-08
1.25663e-09
3.75733e-08
1.24323e-09
3.74619e-08
1.23007e-09
3.73486e-08
1.21715e-09
3.72337e-08
1.20446e-09
3.7117e-08
1.19198e-09
3.69988e-08
1.17971e-09
3.6879e-08
1.16762e-09
3.67577e-08
1.15573e-09
3.6635e-08
1.14401e-09
3.6511e-08
1.13247e-09
3.63857e-08
1.12109e-09
3.62592e-08
1.10988e-09
3.61315e-08
1.09882e-09
3.60028e-08
1.08792e-09
3.5873e-08
1.07716e-09
3.57422e-08
1.06655e-09
3.56105e-08
1.05609e-09
3.54779e-08
1.04576e-09
3.53446e-08
1.03558e-09
3.52105e-08
1.02553e-09
3.50756e-08
1.01562e-09
3.49402e-08
1.00584e-09
3.48041e-08
9.96204e-10
3.46675e-08
9.867e-10
3.45303e-08
9.77332e-10
3.43927e-08
9.681e-10
3.42547e-08
9.59005e-10
3.41163e-08
9.5005e-10
3.39776e-08
9.41236e-10
3.38386e-08
9.32566e-10
3.36993e-08
9.24044e-10
3.35597e-08
9.15672e-10
3.342e-08
9.07456e-10
3.32801e-08
8.99402e-10
3.314e-08
8.91516e-10
3.29998e-08
8.83807e-10
3.28596e-08
8.76285e-10
3.27192e-08
8.68963e-10
3.25788e-08
8.61859e-10
3.24383e-08
8.54997e-10
3.22978e-08
8.48411e-10
3.21572e-08
8.42157e-10
3.20166e-08
8.36326e-10
3.1876e-08
8.31092e-10
3.17353e-08
8.26804e-10
3.15948e-08
8.24185e-10
3.14555e-08
8.24633e-10
3.13213e-08
8.29588e-10
8.27538e-10
3.93077e-08
2.22079e-09
-3.92174e-08
3.94251e-08
2.44598e-09
3.95571e-08
2.62751e-09
3.96944e-08
2.76217e-09
3.9831e-08
2.85333e-09
3.99624e-08
2.90523e-09
4.00851e-08
2.92188e-09
4.01964e-08
2.90793e-09
4.02947e-08
2.86878e-09
4.03792e-08
2.81015e-09
4.04498e-08
2.73758e-09
4.05072e-08
2.65616e-09
4.05525e-08
2.57031e-09
4.0587e-08
2.48364e-09
4.06122e-08
2.3989e-09
4.06295e-08
2.31801e-09
4.06402e-08
2.24215e-09
4.06454e-08
2.17191e-09
4.06462e-08
2.10741e-09
4.06433e-08
2.04849e-09
4.06372e-08
1.99479e-09
4.06283e-08
1.94584e-09
4.0617e-08
1.90113e-09
4.06034e-08
1.86019e-09
4.05877e-08
1.82254e-09
4.05699e-08
1.78779e-09
4.05501e-08
1.75557e-09
4.05283e-08
1.72558e-09
4.05045e-08
1.69757e-09
4.04787e-08
1.67129e-09
4.04509e-08
1.64657e-09
4.0421e-08
1.62324e-09
4.03891e-08
1.60115e-09
4.03551e-08
1.58019e-09
4.03191e-08
1.56026e-09
4.02809e-08
1.54124e-09
4.02406e-08
1.52307e-09
4.01983e-08
1.50567e-09
4.01538e-08
1.48896e-09
4.01072e-08
1.4729e-09
4.00584e-08
1.45742e-09
4.00076e-08
1.44249e-09
3.99546e-08
1.42804e-09
3.98995e-08
1.41405e-09
3.98423e-08
1.40047e-09
3.9783e-08
1.38728e-09
3.97216e-08
1.37444e-09
3.96582e-08
1.36193e-09
3.95927e-08
1.34973e-09
3.95252e-08
1.3378e-09
3.94557e-08
1.32613e-09
3.93843e-08
1.31471e-09
3.93108e-08
1.3035e-09
3.92355e-08
1.29251e-09
3.91582e-08
1.28171e-09
3.90791e-08
1.2711e-09
3.89981e-08
1.26066e-09
3.89154e-08
1.25038e-09
3.88309e-08
1.24025e-09
3.87446e-08
1.23026e-09
3.86567e-08
1.22041e-09
3.85671e-08
1.2107e-09
3.84759e-08
1.2011e-09
3.83831e-08
1.19162e-09
3.82887e-08
1.18226e-09
3.81929e-08
1.17301e-09
3.80956e-08
1.16386e-09
3.79968e-08
1.15482e-09
3.78967e-08
1.14587e-09
3.77953e-08
1.13703e-09
3.76925e-08
1.12829e-09
3.75885e-08
1.11964e-09
3.74833e-08
1.11109e-09
3.73768e-08
1.10263e-09
3.72693e-08
1.09427e-09
3.71606e-08
1.08601e-09
3.70508e-08
1.07784e-09
3.69401e-08
1.06978e-09
3.68283e-08
1.06182e-09
3.67156e-08
1.05396e-09
3.66019e-08
1.04622e-09
3.64874e-08
1.03858e-09
3.6372e-08
1.03107e-09
3.62558e-08
1.02368e-09
3.61388e-08
1.01642e-09
3.6021e-08
1.0093e-09
3.59025e-08
1.00233e-09
3.57832e-08
9.9552e-10
3.56633e-08
9.8889e-10
3.55427e-08
9.82457e-10
3.54214e-08
9.76247e-10
3.52996e-08
9.70298e-10
3.5177e-08
9.64665e-10
3.50539e-08
9.59441e-10
3.49302e-08
9.54781e-10
3.48061e-08
9.50968e-10
3.46818e-08
9.48489e-10
3.45585e-08
9.4793e-10
3.44397e-08
9.48327e-10
9.34443e-10
4.00787e-08
2.13957e-09
-3.99975e-08
4.01835e-08
2.34114e-09
4.03027e-08
2.50835e-09
4.04282e-08
2.6367e-09
4.05543e-08
2.72718e-09
4.06769e-08
2.7826e-09
4.07927e-08
2.80615e-09
4.08989e-08
2.80167e-09
4.0994e-08
2.77367e-09
4.10771e-08
2.72704e-09
4.11481e-08
2.66662e-09
4.12073e-08
2.59693e-09
4.12557e-08
2.52194e-09
4.12943e-08
2.445e-09
4.13245e-08
2.36872e-09
4.13475e-08
2.295e-09
4.13646e-08
2.2251e-09
4.13767e-08
2.15975e-09
4.13849e-08
2.09923e-09
4.13899e-08
2.04355e-09
4.13922e-08
1.9925e-09
4.13922e-08
1.94575e-09
4.13905e-08
1.90292e-09
4.1387e-08
1.86361e-09
4.13821e-08
1.82744e-09
4.13758e-08
1.79406e-09
4.13683e-08
1.76314e-09
4.13594e-08
1.73441e-09
4.13494e-08
1.70764e-09
4.13381e-08
1.6826e-09
4.13255e-08
1.65912e-09
4.13117e-08
1.63704e-09
4.12966e-08
1.61623e-09
4.12803e-08
1.59656e-09
4.12626e-08
1.57794e-09
4.12436e-08
1.56027e-09
4.12232e-08
1.54346e-09
4.12014e-08
1.52744e-09
4.11782e-08
1.51215e-09
4.11536e-08
1.49752e-09
4.11275e-08
1.4835e-09
4.11e-08
1.47004e-09
4.10709e-08
1.4571e-09
4.10403e-08
1.44463e-09
4.10082e-08
1.43259e-09
4.09745e-08
1.42095e-09
4.09393e-08
1.40969e-09
4.09024e-08
1.39876e-09
4.0864e-08
1.38815e-09
4.0824e-08
1.37783e-09
4.07823e-08
1.36778e-09
4.07391e-08
1.35797e-09
4.06942e-08
1.34839e-09
4.06477e-08
1.33903e-09
4.05995e-08
1.32986e-09
4.05498e-08
1.32088e-09
4.04983e-08
1.31206e-09
4.04453e-08
1.30341e-09
4.03907e-08
1.2949e-09
4.03344e-08
1.28652e-09
4.02765e-08
1.27828e-09
4.02171e-08
1.27016e-09
4.0156e-08
1.26215e-09
4.00934e-08
1.25424e-09
4.00292e-08
1.24644e-09
3.99635e-08
1.23873e-09
3.98963e-08
1.23111e-09
3.98275e-08
1.22359e-09
3.97572e-08
1.21614e-09
3.96855e-08
1.20878e-09
3.96123e-08
1.20149e-09
3.95376e-08
1.19428e-09
3.94616e-08
1.18715e-09
3.93841e-08
1.1801e-09
3.93052e-08
1.17312e-09
3.9225e-08
1.16621e-09
3.91435e-08
1.15938e-09
3.90606e-08
1.15264e-09
3.89765e-08
1.14597e-09
3.88911e-08
1.13938e-09
3.88044e-08
1.13288e-09
3.87165e-08
1.12648e-09
3.86274e-08
1.12017e-09
3.85371e-08
1.11396e-09
3.84457e-08
1.10787e-09
3.83531e-08
1.10189e-09
3.82594e-08
1.09604e-09
3.81645e-08
1.09034e-09
3.80686e-08
1.0848e-09
3.79717e-08
1.07944e-09
3.78736e-08
1.07429e-09
3.77745e-08
1.06939e-09
3.76744e-08
1.06478e-09
3.75733e-08
1.06056e-09
3.74712e-08
1.05685e-09
3.73683e-08
1.05386e-09
3.7265e-08
1.0518e-09
3.71624e-08
1.05056e-09
3.70631e-08
1.04759e-09
1.02671e-09
4.08583e-08
2.06565e-09
-4.07844e-08
4.09527e-08
2.24674e-09
4.10606e-08
2.40043e-09
4.11754e-08
2.52191e-09
4.12919e-08
2.61067e-09
4.14062e-08
2.66832e-09
4.15151e-08
2.69729e-09
4.1616e-08
2.70068e-09
4.17075e-08
2.68225e-09
4.17884e-08
2.64612e-09
4.18585e-08
2.5965e-09
4.19181e-08
2.53736e-09
4.19678e-08
2.47227e-09
4.20084e-08
2.40431e-09
4.20412e-08
2.33592e-09
4.20673e-08
2.26896e-09
4.20877e-08
2.20473e-09
4.21034e-08
2.14405e-09
4.21152e-08
2.08735e-09
4.21241e-08
2.03475e-09
4.21304e-08
1.98619e-09
4.21347e-08
1.94146e-09
4.21373e-08
1.9003e-09
4.21385e-08
1.86238e-09
4.21386e-08
1.8274e-09
4.21375e-08
1.79506e-09
4.21356e-08
1.76509e-09
4.21328e-08
1.73723e-09
4.21291e-08
1.71128e-09
4.21247e-08
1.68703e-09
4.21195e-08
1.66433e-09
4.21135e-08
1.64302e-09
4.21068e-08
1.62297e-09
4.20993e-08
1.60408e-09
4.2091e-08
1.58624e-09
4.20819e-08
1.56936e-09
4.2072e-08
1.55336e-09
4.20612e-08
1.53818e-09
4.20496e-08
1.52373e-09
4.20372e-08
1.50998e-09
4.20238e-08
1.49685e-09
4.20096e-08
1.48431e-09
4.19944e-08
1.4723e-09
4.19782e-08
1.46079e-09
4.19611e-08
1.44974e-09
4.19429e-08
1.43911e-09
4.19237e-08
1.42888e-09
4.19035e-08
1.41901e-09
4.18821e-08
1.40948e-09
4.18597e-08
1.40025e-09
4.18362e-08
1.39132e-09
4.18115e-08
1.38266e-09
4.17856e-08
1.37424e-09
4.17586e-08
1.36605e-09
4.17304e-08
1.35808e-09
4.1701e-08
1.35031e-09
4.16703e-08
1.34272e-09
4.16384e-08
1.33531e-09
4.16052e-08
1.32805e-09
4.15708e-08
1.32095e-09
4.15351e-08
1.31398e-09
4.14981e-08
1.30715e-09
4.14598e-08
1.30043e-09
4.14203e-08
1.29383e-09
4.13794e-08
1.28734e-09
4.13371e-08
1.28095e-09
4.12936e-08
1.27465e-09
4.12487e-08
1.26845e-09
4.12025e-08
1.26233e-09
4.1155e-08
1.2563e-09
4.11062e-08
1.25034e-09
4.1056e-08
1.24446e-09
4.10045e-08
1.23866e-09
4.09517e-08
1.23293e-09
4.08975e-08
1.22727e-09
4.0842e-08
1.22169e-09
4.07852e-08
1.21618e-09
4.07271e-08
1.21074e-09
4.06677e-08
1.20538e-09
4.0607e-08
1.2001e-09
4.0545e-08
1.19489e-09
4.04817e-08
1.18978e-09
4.04171e-08
1.18475e-09
4.03512e-08
1.17982e-09
4.02841e-08
1.17499e-09
4.02157e-08
1.17028e-09
4.01461e-08
1.16569e-09
4.00752e-08
1.16124e-09
4.0003e-08
1.15695e-09
3.99296e-08
1.15283e-09
3.9855e-08
1.14891e-09
3.97792e-08
1.14523e-09
3.97021e-08
1.14185e-09
3.96239e-08
1.13882e-09
3.95445e-08
1.13624e-09
3.94641e-08
1.13423e-09
3.93831e-08
1.13278e-09
3.93024e-08
1.13126e-09
3.92237e-08
1.1263e-09
1.10294e-09
4.16471e-08
1.99773e-09
-4.15792e-08
4.17328e-08
2.16109e-09
4.18309e-08
2.30229e-09
4.19361e-08
2.41672e-09
4.20438e-08
2.50301e-09
4.21502e-08
2.56185e-09
4.22525e-08
2.59499e-09
4.23483e-08
2.60489e-09
4.2436e-08
2.59463e-09
4.25144e-08
2.56769e-09
4.25832e-08
2.52767e-09
4.26425e-08
2.47805e-09
4.26928e-08
2.42203e-09
4.27347e-08
2.36239e-09
4.27692e-08
2.30142e-09
4.27972e-08
2.24092e-09
4.28198e-08
2.18218e-09
4.28377e-08
2.12608e-09
4.28519e-08
2.07315e-09
4.28631e-08
2.02363e-09
4.28717e-08
1.97757e-09
4.28783e-08
1.93487e-09
4.28832e-08
1.89536e-09
4.28868e-08
1.8588e-09
4.28893e-08
1.82495e-09
4.28907e-08
1.79357e-09
4.28914e-08
1.76442e-09
4.28914e-08
1.73729e-09
4.28906e-08
1.71199e-09
4.28893e-08
1.68834e-09
4.28875e-08
1.66619e-09
4.28851e-08
1.64541e-09
4.28822e-08
1.62588e-09
4.28788e-08
1.60748e-09
4.28749e-08
1.59013e-09
4.28705e-08
1.57373e-09
4.28657e-08
1.55822e-09
4.28603e-08
1.54353e-09
4.28545e-08
1.52958e-09
4.28481e-08
1.51633e-09
4.28412e-08
1.50372e-09
4.28338e-08
1.49171e-09
4.28259e-08
1.48025e-09
4.28174e-08
1.4693e-09
4.28083e-08
1.45883e-09
4.27986e-08
1.4488e-09
4.27883e-08
1.43918e-09
4.27773e-08
1.42995e-09
4.27658e-08
1.42107e-09
4.27535e-08
1.41252e-09
4.27405e-08
1.40428e-09
4.27268e-08
1.39633e-09
4.27124e-08
1.38865e-09
4.26973e-08
1.38122e-09
4.26813e-08
1.37403e-09
4.26646e-08
1.36705e-09
4.2647e-08
1.36028e-09
4.26286e-08
1.3537e-09
4.26094e-08
1.3473e-09
4.25892e-08
1.34107e-09
4.25682e-08
1.335e-09
4.25463e-08
1.32908e-09
4.25234e-08
1.32329e-09
4.24996e-08
1.31764e-09
4.24749e-08
1.31211e-09
4.24491e-08
1.30669e-09
4.24224e-08
1.30139e-09
4.23946e-08
1.2962e-09
4.23659e-08
1.2911e-09
4.23361e-08
1.2861e-09
4.23052e-08
1.28119e-09
4.22733e-08
1.27638e-09
4.22403e-08
1.27165e-09
4.22062e-08
1.267e-09
4.21711e-08
1.26244e-09
4.21348e-08
1.25796e-09
4.20974e-08
1.25356e-09
4.20589e-08
1.24924e-09
4.20193e-08
1.24501e-09
4.19785e-08
1.24087e-09
4.19366e-08
1.23681e-09
4.18935e-08
1.23285e-09
4.18493e-08
1.22898e-09
4.18039e-08
1.22522e-09
4.17573e-08
1.22156e-09
4.17096e-08
1.21803e-09
4.16607e-08
1.21463e-09
4.16105e-08
1.21137e-09
4.15592e-08
1.20827e-09
4.15067e-08
1.20535e-09
4.1453e-08
1.20265e-09
4.1398e-08
1.20018e-09
4.13419e-08
1.198e-09
4.12845e-08
1.19616e-09
4.1226e-08
1.19471e-09
4.11666e-08
1.1937e-09
4.11064e-08
1.19293e-09
4.10462e-08
1.19146e-09
4.09867e-08
1.18582e-09
1.1635e-09
4.24458e-08
1.93488e-09
-4.2383e-08
4.25241e-08
2.08284e-09
4.26137e-08
2.21266e-09
4.27103e-08
2.32012e-09
4.28099e-08
2.40344e-09
4.29091e-08
2.46264e-09
4.30051e-08
2.49891e-09
4.30959e-08
2.51414e-09
4.31797e-08
2.51083e-09
4.32555e-08
2.49188e-09
4.33228e-08
2.46037e-09
4.33815e-08
2.41934e-09
4.34319e-08
2.3716e-09
4.34747e-08
2.31968e-09
4.35104e-08
2.2657e-09
4.35399e-08
2.21135e-09
4.35642e-08
2.15793e-09
4.35839e-08
2.10634e-09
4.35999e-08
2.05717e-09
4.36128e-08
2.01077e-09
4.36231e-08
1.96727e-09
4.36313e-08
1.92667e-09
4.36377e-08
1.88888e-09
4.36428e-08
1.85373e-09
4.36467e-08
1.82106e-09