/*--------------------------------*- C++ -*----------------------------------*\
| =========                 |                                                 |
| \\      /  F ield         | OpenFOAM: The Open Source CFD Toolbox           |
|  \\    /   O peration     | Version:  2.3.0                                 |
|   \\  /    A nd           | Web:      www.OpenFOAM.org                      |
|    \\/     M anipulation  |                                                 |
\*---------------------------------------------------------------------------*/
FoamFile
{
    version     2.0;
    format      ascii;
    class       surfaceScalarField;
    location    "0.9";
    object      phi_0;
}
// * * * * * * * * * * * * * * * * * * * * * * * * * * * * * * * * * * * * * //

dimensions      [0 3 -1 0 0 0 0];

internalField   nonuniform List<scalar> 
13570
(
2.82861e-08
2.88658e-09
-3.11727e-08
2.5418e-08
2.86814e-09
2.27269e-08
2.69103e-09
2.02466e-08
2.4803e-09
1.79932e-08
2.25345e-09
1.59772e-08
2.01602e-09
1.4201e-08
1.77619e-09
1.26592e-08
1.54177e-09
1.13399e-08
1.31934e-09
1.02256e-08
1.11427e-09
9.29508e-09
9.30508e-10
8.52474e-09
7.70342e-10
7.89034e-09
6.34395e-10
7.36854e-09
5.21808e-10
6.93794e-09
4.306e-10
6.57986e-09
3.58075e-10
6.27863e-09
3.0123e-10
6.02154e-09
2.57086e-10
5.79862e-09
2.22921e-10
5.60223e-09
1.96394e-10
5.42663e-09
1.75597e-10
5.2676e-09
1.59034e-10
5.12202e-09
1.45577e-10
4.98762e-09
1.34398e-10
4.86272e-09
1.24904e-10
4.74604e-09
1.1668e-10
4.6366e-09
1.09436e-10
4.53363e-09
1.02972e-10
4.43648e-09
9.71475e-11
4.34462e-09
9.18624e-11
4.25758e-09
8.70421e-11
4.17495e-09
8.26292e-11
4.09637e-09
7.85777e-11
4.02152e-09
7.4849e-11
3.95011e-09
7.14099e-11
3.88188e-09
6.82315e-11
3.8166e-09
6.5288e-11
3.75404e-09
6.25566e-11
3.69402e-09
6.0017e-11
3.63637e-09
5.7651e-11
3.58093e-09
5.54424e-11
3.52755e-09
5.33768e-11
3.47611e-09
5.14412e-11
3.42649e-09
4.96244e-11
3.37857e-09
4.7916e-11
3.33226e-09
4.6307e-11
3.28747e-09
4.47892e-11
3.24412e-09
4.33553e-11
3.20212e-09
4.19988e-11
3.16141e-09
4.07138e-11
3.12191e-09
3.94951e-11
3.08357e-09
3.83377e-11
3.04634e-09
3.72374e-11
3.01015e-09
3.61903e-11
2.97495e-09
3.51927e-11
2.94071e-09
3.42414e-11
2.90738e-09
3.33334e-11
2.87491e-09
3.24661e-11
2.84327e-09
3.16368e-11
2.81243e-09
3.08433e-11
2.78235e-09
3.00836e-11
2.75299e-09
2.93557e-11
2.72433e-09
2.86578e-11
2.69635e-09
2.79882e-11
2.669e-09
2.73455e-11
2.64227e-09
2.67283e-11
2.61614e-09
2.61352e-11
2.59057e-09
2.55652e-11
2.56556e-09
2.5017e-11
2.54107e-09
2.44896e-11
2.51708e-09
2.39822e-11
2.49359e-09
2.34939e-11
2.47057e-09
2.30238e-11
2.44799e-09
2.25712e-11
2.42586e-09
2.21355e-11
2.40414e-09
2.1716e-11
2.38283e-09
2.13121e-11
2.36191e-09
2.09233e-11
2.34136e-09
2.05493e-11
2.32117e-09
2.01894e-11
2.30133e-09
1.98435e-11
2.28181e-09
1.95111e-11
2.26262e-09
1.91921e-11
2.24374e-09
1.88861e-11
2.22514e-09
1.85932e-11
2.20683e-09
1.83131e-11
2.18878e-09
1.8046e-11
2.17099e-09
1.77919e-11
2.15344e-09
1.75511e-11
2.13612e-09
1.73241e-11
2.119e-09
1.71118e-11
2.10209e-09
1.69156e-11
2.08535e-09
1.67384e-11
2.06877e-09
1.65852e-11
2.0523e-09
1.64673e-11
2.03589e-09
1.64107e-11
2.0194e-09
1.64886e-11
2.00252e-09
1.68836e-11
1.98483e-09
1.76815e-11
5.37193e-11
3.33186e-08
3.16549e-09
-3.35975e-08
3.27259e-08
3.46083e-09
3.19012e-08
3.51571e-09
3.09212e-08
3.46027e-09
2.98414e-08
3.33322e-09
2.87075e-08
3.14998e-09
2.75563e-08
2.92742e-09
2.64161e-08
2.68195e-09
2.53079e-08
2.42755e-09
2.42463e-08
2.17581e-09
2.3241e-08
1.93586e-09
2.2297e-08
1.71427e-09
2.14165e-08
1.51495e-09
2.05988e-08
1.33952e-09
1.98417e-08
1.18768e-09
1.91419e-08
1.05784e-09
1.84955e-08
9.47649e-10
1.78982e-08
8.54406e-10
1.73457e-08
7.75432e-10
1.68338e-08
7.0826e-10
1.63587e-08
6.50739e-10
1.59166e-08
6.01075e-10
1.55044e-08
5.5781e-10
1.5119e-08
5.19782e-10
1.47578e-08
4.8608e-10
1.44185e-08
4.55991e-10
1.4099e-08
4.28954e-10
1.37974e-08
4.0453e-10
1.35122e-08
3.82363e-10
1.32419e-08
3.62167e-10
1.29853e-08
3.43706e-10
1.27411e-08
3.2678e-10
1.25085e-08
3.1122e-10
1.22864e-08
2.9688e-10
1.20742e-08
2.83633e-10
1.18711e-08
2.71368e-10
1.16764e-08
2.59988e-10
1.14895e-08
2.49406e-10
1.131e-08
2.39547e-10
1.11373e-08
2.30343e-10
1.0971e-08
2.21734e-10
1.08107e-08
2.13666e-10
1.06561e-08
2.06093e-10
1.05067e-08
1.98972e-10
1.03624e-08
1.92266e-10
1.02227e-08
1.8594e-10
1.00876e-08
1.79965e-10
9.95661e-09
1.74312e-10
9.82965e-09
1.68959e-10
9.70648e-09
1.63881e-10
9.58692e-09
1.5906e-10
9.47078e-09
1.54477e-10
9.3579e-09
1.50116e-10
9.24813e-09
1.45961e-10
9.14132e-09
1.41999e-10
9.03735e-09
1.38218e-10
8.93607e-09
1.34606e-10
8.83739e-09
1.31152e-10
8.74118e-09
1.27847e-10
8.64734e-09
1.24682e-10
8.55578e-09
1.21648e-10
8.46639e-09
1.18739e-10
8.3791e-09
1.15948e-10
8.29382e-09
1.13268e-10
8.21047e-09
1.10692e-10
8.12899e-09
1.08217e-10
8.04929e-09
1.05836e-10
7.97131e-09
1.03545e-10
7.89498e-09
1.0134e-10
7.82026e-09
9.92158e-11
7.74707e-09
9.71699e-11
7.67536e-09
9.51984e-11
7.60509e-09
9.32982e-11
7.5362e-09
9.14663e-11
7.46863e-09
8.97e-11
7.40235e-09
8.79968e-11
7.33731e-09
8.63543e-11
7.27346e-09
8.47706e-11
7.21077e-09
8.32436e-11
7.14918e-09
8.17717e-11
7.08867e-09
8.03534e-11
7.0292e-09
7.89872e-11
6.97072e-09
7.7672e-11
6.9132e-09
7.6407e-11
6.8566e-09
7.51913e-11
6.80089e-09
7.40245e-11
6.74603e-09
7.29064e-11
6.69198e-09
7.18372e-11
6.63872e-09
7.08176e-11
6.58619e-09
6.9849e-11
6.53437e-09
6.8934e-11
6.48321e-09
6.80771e-11
6.43266e-09
6.72869e-11
6.38266e-09
6.65797e-11
6.33314e-09
6.59911e-11
6.28394e-09
6.56069e-11
6.23477e-09
6.56584e-11
6.18491e-09
6.67449e-11
6.12828e-09
7.43114e-11
1.36272e-10
3.47135e-08
3.01784e-09
-3.45658e-08
3.47719e-08
3.40242e-09
3.47038e-08
3.5838e-09
3.45147e-08
3.64938e-09
3.42152e-08
3.63273e-09
3.38196e-08
3.54558e-09
3.33453e-08
3.40168e-09
3.28102e-08
3.21702e-09
3.22311e-08
3.00671e-09
3.16228e-08
2.78411e-09
3.09981e-08
2.56053e-09
3.03675e-08
2.34483e-09
2.97393e-08
2.14324e-09
2.91194e-08
1.9594e-09
2.85123e-08
1.79481e-09
2.79208e-08
1.64933e-09
2.73467e-08
1.5217e-09
2.67911e-08
1.41007e-09
2.62542e-08
1.31234e-09
2.5736e-08
1.22643e-09
2.52363e-08
1.15046e-09
2.47546e-08
1.08279e-09
2.42903e-08
1.02206e-09
2.38429e-08
9.67163e-10
2.34118e-08
9.17213e-10
2.29963e-08
8.71507e-10
2.25957e-08
8.29485e-10
2.22096e-08
7.90698e-10
2.18372e-08
7.54783e-10
2.14779e-08
7.2144e-10
2.11312e-08
6.90416e-10
2.07965e-08
6.61494e-10
2.04732e-08
6.34487e-10
2.01608e-08
6.09228e-10
1.98589e-08
5.85571e-10
1.95669e-08
5.63384e-10
1.92843e-08
5.42546e-10
1.90108e-08
5.22951e-10
1.87458e-08
5.04501e-10
1.84891e-08
4.87107e-10
1.82401e-08
4.70689e-10
1.79986e-08
4.55173e-10
1.77642e-08
4.40493e-10
1.75366e-08
4.26588e-10
1.73155e-08
4.13402e-10
1.71005e-08
4.00884e-10
1.68915e-08
3.8899e-10
1.66881e-08
3.77675e-10
1.64902e-08
3.66901e-10
1.62974e-08
3.56633e-10
1.61096e-08
3.46838e-10
1.59266e-08
3.37486e-10
1.57482e-08
3.28549e-10
1.55742e-08
3.20002e-10
1.54043e-08
3.11822e-10
1.52386e-08
3.03986e-10
1.50767e-08
2.96475e-10
1.49186e-08
2.8927e-10
1.47641e-08
2.82355e-10
1.4613e-08
2.75712e-10
1.44654e-08
2.69329e-10
1.43209e-08
2.6319e-10
1.41796e-08
2.57283e-10
1.40413e-08
2.51597e-10
1.39058e-08
2.4612e-10
1.37732e-08
2.40843e-10
1.36433e-08
2.35755e-10
1.3516e-08
2.30849e-10
1.33912e-08
2.26115e-10
1.32689e-08
2.21546e-10
1.31489e-08
2.17135e-10
1.30312e-08
2.12876e-10
1.29158e-08
2.08762e-10
1.28024e-08
2.04787e-10
1.26912e-08
2.00947e-10
1.2582e-08
1.97235e-10
1.24747e-08
1.93649e-10
1.23693e-08
1.90183e-10
1.22657e-08
1.86834e-10
1.21638e-08
1.83598e-10
1.20637e-08
1.80473e-10
1.19652e-08
1.77455e-10
1.18684e-08
1.74543e-10
1.1773e-08
1.71734e-10
1.16792e-08
1.69026e-10
1.15868e-08
1.6642e-10
1.14958e-08
1.63914e-10
1.14061e-08
1.61508e-10
1.13178e-08
1.59204e-10
1.12306e-08
1.57005e-10
1.11446e-08
1.54914e-10
1.10598e-08
1.52941e-10
1.09759e-08
1.51102e-10
1.08931e-08
1.49427e-10
1.08111e-08
1.47985e-10
1.07298e-08
1.46939e-10
1.06487e-08
1.46737e-10
1.05666e-08
1.4881e-10
1.04776e-08
1.63294e-10
2.32597e-10
3.55472e-08
2.83085e-09
-3.53602e-08
3.57372e-08
3.21241e-09
3.58859e-08
3.43515e-09
3.59807e-08
3.55455e-09
3.6015e-08
3.5984e-09
3.5985e-08
3.57566e-09
3.5891e-08
3.49566e-09
3.57372e-08
3.37079e-09
3.55299e-08
3.214e-09
3.52766e-08
3.03739e-09
3.49854e-08
2.85175e-09
3.46641e-08
2.66612e-09
3.432e-08
2.48734e-09
3.39594e-08
2.32002e-09
3.35875e-08
2.16673e-09
3.32084e-08
2.02838e-09
3.28255e-08
1.90466e-09
3.2441e-08
1.79451e-09
3.20569e-08
1.69648e-09
3.16743e-08
1.60897e-09
3.12943e-08
1.53044e-09
3.09176e-08
1.4595e-09
3.05447e-08
1.39495e-09
3.01761e-08
1.33582e-09
2.9812e-08
1.28129e-09
2.94528e-08
1.23073e-09
2.90987e-08
1.18362e-09
2.87498e-08
1.13956e-09
2.84064e-08
1.09821e-09
2.80685e-08
1.0593e-09
2.77363e-08
1.02262e-09
2.74098e-08
9.87977e-10
2.70891e-08
9.552e-10
2.67742e-08
9.24151e-10
2.6465e-08
8.94703e-10
2.61617e-08
8.66741e-10
2.58641e-08
8.40164e-10
2.55721e-08
8.14878e-10
2.52858e-08
7.90797e-10
2.50051e-08
7.67843e-10
2.47299e-08
7.45946e-10
2.446e-08
7.25038e-10
2.41954e-08
7.0506e-10
2.39361e-08
6.85955e-10
2.36818e-08
6.67671e-10
2.34325e-08
6.50162e-10
2.31881e-08
6.33381e-10
2.29485e-08
6.17288e-10
2.27136e-08
6.01846e-10
2.24832e-08
5.87018e-10
2.22572e-08
5.7277e-10
2.20357e-08
5.59074e-10
2.18183e-08
5.45899e-10
2.16051e-08
5.33219e-10
2.13959e-08
5.21008e-10
2.11906e-08
5.09244e-10
2.09892e-08
4.97903e-10
2.07915e-08
4.86967e-10
2.05975e-08
4.76415e-10
2.04069e-08
4.66229e-10
2.02199e-08
4.56393e-10
2.00362e-08
4.46891e-10
1.98558e-08
4.37707e-10
1.96785e-08
4.28827e-10
1.95044e-08
4.2024e-10
1.93333e-08
4.11931e-10
1.91652e-08
4.0389e-10
1.89999e-08
3.96106e-10
1.88375e-08
3.88568e-10
1.86777e-08
3.81268e-10
1.85207e-08
3.74195e-10
1.83662e-08
3.67342e-10
1.82143e-08
3.60701e-10
1.80648e-08
3.54265e-10
1.79177e-08
3.48026e-10
1.7773e-08
3.41978e-10
1.76305e-08
3.36116e-10
1.74903e-08
3.30433e-10
1.73522e-08
3.24926e-10
1.72162e-08
3.1959e-10
1.70822e-08
3.1442e-10
1.69503e-08
3.09413e-10
1.68203e-08
3.04566e-10
1.66921e-08
2.99877e-10
1.65658e-08
2.95344e-10
1.64412e-08
2.90965e-10
1.63184e-08
2.86741e-10
1.61973e-08
2.82672e-10
1.60777e-08
2.7876e-10
1.59597e-08
2.7501e-10
1.58432e-08
2.71429e-10
1.57281e-08
2.68031e-10
1.56144e-08
2.64839e-10
1.55019e-08
2.61902e-10
1.53905e-08
2.59321e-10
1.52801e-08
2.57345e-10
1.51702e-08
2.56655e-10
1.50595e-08
2.59555e-10
1.49452e-08
2.7759e-10
3.4138e-10
3.62972e-08
2.66738e-09
-3.61337e-08
3.64901e-08
3.01947e-09
3.66768e-08
3.24846e-09
3.68445e-08
3.38685e-09
3.69856e-08
3.45731e-09
3.70929e-08
3.4684e-09
3.71613e-08
3.42724e-09
3.71886e-08
3.34343e-09
3.71751e-08
3.22754e-09
3.71227e-08
3.08982e-09
3.70347e-08
2.9397e-09
3.69155e-08
2.78531e-09
3.67697e-08
2.6332e-09
3.66016e-08
2.48808e-09
3.64155e-08
2.35289e-09
3.62147e-08
2.22911e-09
3.60023e-08
2.11705e-09
3.57806e-08
2.01623e-09
3.55514e-08
1.9257e-09
3.53161e-08
1.84428e-09
3.50758e-08
1.77074e-09
3.48314e-08
1.70393e-09
3.45835e-08
1.64284e-09
3.43327e-08
1.58658e-09
3.40796e-08
1.53443e-09
3.38245e-08
1.4858e-09
3.35679e-08
1.44023e-09
3.33101e-08
1.39733e-09
3.30515e-08
1.3568e-09
3.27925e-08
1.3184e-09
3.25332e-08
1.28192e-09
3.22739e-08
1.24719e-09
3.20151e-08
1.21407e-09
3.17568e-08
1.18243e-09
3.14993e-08
1.15217e-09
3.12429e-08
1.12319e-09
3.09876e-08
1.09541e-09
3.07338e-08
1.06875e-09
3.04814e-08
1.04313e-09
3.02308e-08
1.01851e-09
2.99819e-08
9.94807e-10
2.9735e-08
9.71984e-10
2.949e-08
9.49989e-10
2.92472e-08
9.28777e-10
2.90066e-08
9.08308e-10
2.87682e-08
8.88544e-10
2.85321e-08
8.69448e-10
2.82984e-08
8.5099e-10
2.80671e-08
8.33139e-10
2.78383e-08
8.15866e-10
2.76119e-08
7.99145e-10
2.7388e-08
7.82952e-10
2.71667e-08
7.67264e-10
2.69478e-08
7.52059e-10
2.67315e-08
7.37317e-10
2.65177e-08
7.23018e-10
2.63065e-08
7.09145e-10
2.60978e-08
6.9568e-10
2.58916e-08
6.82609e-10
2.56879e-08
6.69915e-10
2.54867e-08
6.57585e-10
2.5288e-08
6.45604e-10
2.50918e-08
6.33961e-10
2.48979e-08
6.22643e-10
2.47065e-08
6.11639e-10
2.45175e-08
6.00938e-10
2.43309e-08
5.9053e-10
2.41466e-08
5.80405e-10
2.39646e-08
5.70554e-10
2.37849e-08
5.60969e-10
2.36075e-08
5.51641e-10
2.34322e-08
5.42564e-10
2.32592e-08
5.33729e-10
2.30883e-08
5.2513e-10
2.29196e-08
5.16762e-10
2.2753e-08
5.08617e-10
2.25884e-08
5.00691e-10
2.24258e-08
4.92979e-10
2.22653e-08
4.85477e-10
2.21067e-08
4.78179e-10
2.195e-08
4.71084e-10
2.17953e-08
4.64189e-10
2.16423e-08
4.5749e-10
2.14912e-08
4.50985e-10
2.13419e-08
4.44675e-10
2.11943e-08
4.38559e-10
2.10484e-08
4.32638e-10
2.09042e-08
4.26913e-10
2.07615e-08
4.2139e-10
2.06205e-08
4.16075e-10
2.04809e-08
4.10979e-10
2.03428e-08
4.06121e-10
2.02061e-08
4.01534e-10
2.00708e-08
3.97283e-10
1.99366e-08
3.93503e-10
1.98034e-08
3.90515e-10
1.96709e-08
3.89187e-10
1.95381e-08
3.92286e-10
1.94056e-08
4.10158e-10
4.60248e-10
3.70405e-08
2.53e-09
-3.69031e-08
3.72128e-08
2.8471e-09
3.7392e-08
3.06932e-09
3.75658e-08
3.21299e-09
3.7728e-08
3.29511e-09
3.78724e-08
3.32397e-09
3.7994e-08
3.30573e-09
3.80892e-08
3.24823e-09
3.81564e-08
3.16033e-09
3.81954e-08
3.05081e-09
3.82073e-08
2.9278e-09
3.81941e-08
2.7985e-09
3.81584e-08
2.66885e-09
3.81032e-08
2.54331e-09
3.80312e-08
2.42489e-09
3.7945e-08
2.31531e-09
3.78468e-08
2.21523e-09
3.77385e-08
2.12458e-09
3.76214e-08
2.04275e-09
3.74968e-08
1.9689e-09
3.73655e-08
1.90207e-09
3.72281e-08
1.8413e-09
3.70852e-08
1.78571e-09
3.69373e-08
1.73453e-09
3.67846e-08
1.6871e-09
3.66275e-08
1.64288e-09
3.64663e-08
1.60143e-09
3.63013e-08
1.56239e-09
3.61326e-08
1.52545e-09
3.59606e-08
1.49039e-09
3.57855e-08
1.45702e-09
3.56076e-08
1.42515e-09
3.54269e-08
1.39467e-09
3.52439e-08
1.36544e-09
3.50587e-08
1.33738e-09
3.48715e-08
1.31039e-09
3.46825e-08
1.28439e-09
3.4492e-08
1.25932e-09
3.43e-08
1.23511e-09
3.41068e-08
1.21171e-09
3.39125e-08
1.18906e-09
3.37174e-08
1.16713e-09
3.35215e-08
1.14587e-09
3.33251e-08
1.12524e-09
3.31282e-08
1.10522e-09
3.29309e-08
1.08576e-09
3.27335e-08
1.06685e-09
3.25361e-08
1.04845e-09
3.23387e-08
1.03054e-09
3.21414e-08
1.01311e-09
3.19445e-08
9.96124e-10
3.17478e-08
9.79572e-10
3.15517e-08
9.63434e-10
3.1356e-08
9.47696e-10
3.1161e-08
9.3234e-10
3.09667e-08
9.17355e-10
3.07731e-08
9.02727e-10
3.05803e-08
8.88443e-10
3.03884e-08
8.74493e-10
3.01975e-08
8.60865e-10
3.00075e-08
8.4755e-10
2.98186e-08
8.34539e-10
2.96307e-08
8.21821e-10
2.9444e-08
8.09389e-10
2.92584e-08
7.97236e-10
2.9074e-08
7.85353e-10
2.88908e-08
7.73733e-10
2.87088e-08
7.62371e-10
2.85281e-08
7.51259e-10
2.83487e-08
7.40393e-10
2.81705e-08
7.29766e-10
2.79937e-08
7.19373e-10
2.78183e-08
7.0921e-10
2.76441e-08
6.99273e-10
2.74713e-08
6.89557e-10
2.72999e-08
6.80059e-10
2.71298e-08
6.70775e-10
2.69611e-08
6.61703e-10
2.67937e-08
6.5284e-10
2.66277e-08
6.44184e-10
2.64631e-08
6.35734e-10
2.62998e-08
6.27488e-10
2.61378e-08
6.19446e-10
2.59772e-08
6.11608e-10
2.58179e-08
6.03975e-10
2.56599e-08
5.9655e-10
2.55032e-08
5.89335e-10
2.53478e-08
5.82335e-10
2.51936e-08
5.75558e-10
2.50407e-08
5.69013e-10
2.48889e-08
5.62716e-10
2.47384e-08
5.56692e-10
2.45889e-08
5.50982e-10
2.44405e-08
5.45667e-10
2.42931e-08
5.40906e-10
2.41466e-08
5.37069e-10
2.40006e-08
5.35103e-10
2.38552e-08
5.37692e-10
2.37129e-08
5.52503e-10
5.8478e-10
3.7789e-08
2.41293e-09
-3.76719e-08
3.794e-08
2.69608e-09
3.8103e-08
2.90632e-09
3.82664e-08
3.04959e-09
3.84242e-08
3.13734e-09
3.85713e-08
3.17687e-09
3.87033e-08
3.1737e-09
3.88172e-08
3.1344e-09
3.8911e-08
3.06652e-09
3.89841e-08
2.97768e-09
3.90369e-08
2.87503e-09
3.90704e-08
2.76496e-09
3.90864e-08
2.65283e-09
3.90869e-08
2.54282e-09
3.90739e-08
2.43788e-09
3.90494e-08
2.33984e-09
3.9015e-08
2.24961e-09
3.89723e-08
2.16736e-09
3.89222e-08
2.0928e-09
3.88658e-08
2.02534e-09
3.88036e-08
1.96423e-09
3.87362e-08
1.9087e-09
3.86639e-08
1.858e-09
3.8587e-08
1.81144e-09
3.85057e-08
1.76843e-09
3.84201e-08
1.72848e-09
3.83303e-08
1.69115e-09
3.82366e-08
1.65611e-09
3.8139e-08
1.62306e-09
3.80377e-08
1.59177e-09
3.79326e-08
1.56204e-09
3.78241e-08
1.53371e-09
3.77121e-08
1.50664e-09
3.75968e-08
1.48071e-09
3.74784e-08
1.45582e-09
3.73569e-08
1.43188e-09
3.72325e-08
1.40881e-09
3.71053e-08
1.38653e-09
3.69754e-08
1.365e-09
3.68429e-08
1.34416e-09
3.6708e-08
1.32395e-09
3.65708e-08
1.30433e-09
3.64314e-08
1.28526e-09
3.629e-08
1.26671e-09
3.61465e-08
1.24865e-09
3.60013e-08
1.23104e-09
3.58542e-08
1.21386e-09
3.57056e-08
1.19709e-09
3.55554e-08
1.1807e-09
3.54039e-08
1.16467e-09
3.5251e-08
1.149e-09
3.50969e-08
1.13365e-09
3.49417e-08
1.11862e-09
3.47855e-08
1.1039e-09
3.46284e-08
1.08947e-09
3.44704e-08
1.07531e-09
3.43117e-08
1.06143e-09
3.41524e-08
1.04781e-09
3.39924e-08
1.03444e-09
3.3832e-08
1.02131e-09
3.36711e-08
1.00842e-09
3.35099e-08
9.95763e-10
3.33484e-08
9.83329e-10
3.31867e-08
9.71113e-10
3.30248e-08
9.59112e-10
3.28628e-08
9.4732e-10
3.27008e-08
9.35732e-10
3.25389e-08
9.24346e-10
3.2377e-08
9.13157e-10
3.22152e-08
9.02161e-10
3.20536e-08
8.91358e-10
3.18922e-08
8.80743e-10
3.17311e-08
8.70314e-10
3.15703e-08
8.6007e-10
3.14099e-08
8.50009e-10
3.12498e-08
8.40129e-10
3.10901e-08
8.30431e-10
3.09309e-08
8.20912e-10
3.07722e-08
8.11574e-10
3.0614e-08
8.02416e-10
3.04563e-08
7.9344e-10
3.02991e-08
7.84646e-10
3.01425e-08
7.76036e-10
2.99865e-08
7.67613e-10
2.98311e-08
7.59381e-10
2.96763e-08
7.51344e-10
2.95221e-08
7.43509e-10
2.93686e-08
7.35882e-10
2.92157e-08
7.28475e-10
2.90634e-08
7.213e-10
2.89117e-08
7.14379e-10
2.87607e-08
7.07742e-10
2.86102e-08
7.01438e-10
2.84603e-08
6.95557e-10
2.8311e-08
6.90272e-10
2.81621e-08
6.85964e-10
2.80136e-08
6.83523e-10
2.78662e-08
6.85114e-10
2.77235e-08
6.95201e-10
7.09139e-10
3.85446e-08
2.31106e-09
-3.84427e-08
3.86773e-08
2.56341e-09
3.8824e-08
2.75958e-09
3.89741e-08
2.89945e-09
3.91216e-08
2.98987e-09
3.92618e-08
3.03665e-09
3.93909e-08
3.0446e-09
3.95061e-08
3.01926e-09
3.96056e-08
2.96705e-09
3.96886e-08
2.8946e-09
3.97555e-08
2.80821e-09
3.98068e-08
2.71358e-09
3.98441e-08
2.6156e-09
3.98687e-08
2.51814e-09
3.98826e-08
2.42407e-09
3.98871e-08
2.33529e-09
3.98839e-08
2.25286e-09
3.9874e-08
2.17718e-09
3.98586e-08
2.1082e-09
3.98384e-08
2.04555e-09
3.9814e-08
1.98868e-09
3.97857e-08
1.93697e-09
3.97539e-08
1.8898e-09
3.97187e-08
1.84659e-09
3.96803e-08
1.80681e-09
3.96388e-08
1.77e-09
3.95942e-08
1.73577e-09
3.95465e-08
1.70378e-09
3.94958e-08
1.67376e-09
3.94421e-08
1.64548e-09
3.93854e-08
1.61873e-09
3.93258e-08
1.59336e-09
3.92632e-08
1.56923e-09
3.91977e-08
1.5462e-09
3.91293e-08
1.52418e-09
3.90581e-08
1.50308e-09
3.89841e-08
1.4828e-09
3.89074e-08
1.46328e-09
3.88279e-08
1.44446e-09
3.87458e-08
1.42628e-09
3.86611e-08
1.40867e-09
3.85738e-08
1.39161e-09
3.8484e-08
1.37505e-09
3.83918e-08
1.35894e-09
3.82972e-08
1.34326e-09
3.82002e-08
1.32798e-09
3.8101e-08
1.31306e-09
3.79996e-08
1.29849e-09
3.78961e-08
1.28423e-09
3.77905e-08
1.27028e-09
3.76829e-08
1.25661e-09
3.75733e-08
1.2432e-09
3.74619e-08
1.23005e-09
3.73487e-08
1.21713e-09
3.72337e-08
1.20443e-09
3.71171e-08
1.19195e-09
3.69988e-08
1.17968e-09
3.6879e-08
1.16759e-09
3.67578e-08
1.1557e-09
3.66351e-08
1.14398e-09
3.65111e-08
1.13243e-09
3.63858e-08
1.12106e-09
3.62593e-08
1.10984e-09
3.61316e-08
1.09878e-09
3.60029e-08
1.08787e-09
3.58731e-08
1.07711e-09
3.57423e-08
1.0665e-09
3.56106e-08
1.05603e-09
3.54781e-08
1.04571e-09
3.53447e-08
1.03552e-09
3.52106e-08
1.02547e-09
3.50758e-08
1.01555e-09
3.49403e-08
1.00577e-09
3.48043e-08
9.96129e-10
3.46677e-08
9.86621e-10
3.45305e-08
9.77248e-10
3.4393e-08
9.68012e-10
3.4255e-08
9.58913e-10
3.41166e-08
9.49953e-10
3.39779e-08
9.41134e-10
3.38388e-08
9.32459e-10
3.36996e-08
9.23931e-10
3.356e-08
9.15554e-10
3.34203e-08
9.07332e-10
3.32804e-08
8.99271e-10
3.31404e-08
8.91379e-10
3.30002e-08
8.83663e-10
3.286e-08
8.76134e-10
3.27197e-08
8.68805e-10
3.25793e-08
8.61694e-10
3.24388e-08
8.54825e-10
3.22983e-08
8.48231e-10
3.21578e-08
8.41969e-10
3.20172e-08
8.3613e-10
3.18766e-08
8.30889e-10
3.1736e-08
8.26593e-10
3.15955e-08
8.23965e-10
3.14562e-08
8.24404e-10
3.13221e-08
8.2935e-10
8.27292e-10
3.93077e-08
2.22078e-09
-3.92174e-08
3.94251e-08
2.44598e-09
3.95571e-08
2.62751e-09
3.96944e-08
2.76217e-09
3.9831e-08
2.85333e-09
3.99624e-08
2.90522e-09
4.00851e-08
2.92188e-09
4.01964e-08
2.90793e-09
4.02947e-08
2.86878e-09
4.03792e-08
2.81015e-09
4.04498e-08
2.73758e-09
4.05072e-08
2.65616e-09
4.05525e-08
2.57031e-09
4.0587e-08
2.48364e-09
4.06122e-08
2.3989e-09
4.06295e-08
2.31801e-09
4.06402e-08
2.24215e-09
4.06455e-08
2.1719e-09
4.06463e-08
2.10741e-09
4.06433e-08
2.04849e-09
4.06372e-08
1.99479e-09
4.06283e-08
1.94583e-09
4.0617e-08
1.90113e-09
4.06034e-08
1.86018e-09
4.05877e-08
1.82253e-09
4.05699e-08
1.78778e-09
4.05501e-08
1.75557e-09
4.05283e-08
1.72558e-09
4.05045e-08
1.69756e-09
4.04787e-08
1.67128e-09
4.04509e-08
1.64656e-09
4.0421e-08
1.62323e-09
4.03891e-08
1.60114e-09
4.03551e-08
1.58019e-09
4.03191e-08
1.56025e-09
4.02809e-08
1.54123e-09
4.02407e-08
1.52306e-09
4.01983e-08
1.50566e-09
4.01538e-08
1.48895e-09
4.01072e-08
1.47289e-09
4.00584e-08
1.45741e-09
4.00076e-08
1.44247e-09
3.99546e-08
1.42802e-09
3.98995e-08
1.41403e-09
3.98423e-08
1.40045e-09
3.9783e-08
1.38726e-09
3.97217e-08
1.37442e-09
3.96582e-08
1.36191e-09
3.95928e-08
1.34971e-09
3.95253e-08
1.33778e-09
3.94558e-08
1.32611e-09
3.93843e-08
1.31468e-09
3.93109e-08
1.30348e-09
3.92355e-08
1.29248e-09
3.91583e-08
1.28169e-09
3.90791e-08
1.27107e-09
3.89982e-08
1.26063e-09
3.89154e-08
1.25034e-09
3.88309e-08
1.24021e-09
3.87447e-08
1.23022e-09
3.86567e-08
1.22037e-09
3.85671e-08
1.21065e-09
3.84759e-08
1.20105e-09
3.83831e-08
1.19157e-09
3.82888e-08
1.18221e-09
3.8193e-08
1.17295e-09
3.80957e-08
1.1638e-09
3.79969e-08
1.15476e-09
3.78968e-08
1.14581e-09
3.77954e-08
1.13696e-09
3.76926e-08
1.12821e-09
3.75886e-08
1.11956e-09
3.74834e-08
1.11101e-09
3.7377e-08
1.10255e-09
3.72694e-08
1.09418e-09
3.71608e-08
1.08591e-09
3.7051e-08
1.07774e-09
3.69403e-08
1.06968e-09
3.68285e-08
1.06171e-09
3.67158e-08
1.05385e-09
3.66022e-08
1.04609e-09
3.64876e-08
1.03845e-09
3.63722e-08
1.03093e-09
3.6256e-08
1.02354e-09
3.6139e-08
1.01627e-09
3.60213e-08
1.00914e-09
3.59028e-08
1.00216e-09
3.57836e-08
9.95349e-10
3.56637e-08
9.8871e-10
3.55431e-08
9.82268e-10
3.54219e-08
9.7605e-10
3.53e-08
9.70092e-10
3.51775e-08
9.6445e-10
3.50544e-08
9.59216e-10
3.49308e-08
9.54547e-10
3.48066e-08
9.50725e-10
3.46824e-08
9.48237e-10
3.45591e-08
9.47668e-10
3.44404e-08
9.48055e-10
9.34166e-10
4.00787e-08
2.13957e-09
-3.99975e-08
4.01835e-08
2.34114e-09
4.03027e-08
2.50835e-09
4.04282e-08
2.6367e-09
4.05543e-08
2.72718e-09
4.06769e-08
2.7826e-09
4.07927e-08
2.80615e-09
4.08989e-08
2.80167e-09
4.0994e-08
2.77367e-09
4.10771e-08
2.72704e-09
4.11481e-08
2.66662e-09
4.12073e-08
2.59692e-09
4.12557e-08
2.52194e-09
4.12944e-08
2.445e-09
4.13245e-08
2.36872e-09
4.13475e-08
2.295e-09
4.13646e-08
2.2251e-09
4.13768e-08
2.15975e-09
4.13849e-08
2.09923e-09
4.13899e-08
2.04355e-09
4.13922e-08
1.9925e-09
4.13922e-08
1.94575e-09
4.13905e-08
1.90292e-09
4.1387e-08
1.86361e-09
4.13821e-08
1.82744e-09
4.13759e-08
1.79405e-09
4.13683e-08
1.76313e-09
4.13595e-08
1.73441e-09
4.13494e-08
1.70763e-09
4.13381e-08
1.68259e-09
4.13255e-08
1.65911e-09
4.13117e-08
1.63703e-09
4.12967e-08
1.61622e-09
4.12803e-08
1.59656e-09
4.12626e-08
1.57793e-09
4.12436e-08
1.56026e-09
4.12232e-08
1.54345e-09
4.12014e-08
1.52743e-09
4.11782e-08
1.51214e-09
4.11536e-08
1.49751e-09
4.11275e-08
1.48349e-09
4.11e-08
1.47003e-09
4.10709e-08
1.45708e-09
4.10403e-08
1.44461e-09
4.10082e-08
1.43257e-09
4.09745e-08
1.42094e-09
4.09393e-08
1.40967e-09
4.09025e-08
1.39874e-09
4.0864e-08
1.38813e-09
4.0824e-08
1.37781e-09
4.07824e-08
1.36775e-09
4.07391e-08
1.35794e-09
4.06942e-08
1.34837e-09
4.06477e-08
1.339e-09
4.05996e-08
1.32983e-09
4.05498e-08
1.32084e-09
4.04984e-08
1.31203e-09
4.04454e-08
1.30337e-09
4.03907e-08
1.29486e-09
4.03345e-08
1.28648e-09
4.02766e-08
1.27824e-09
4.02171e-08
1.27011e-09
4.01561e-08
1.2621e-09
4.00935e-08
1.25419e-09
4.00293e-08
1.24638e-09
3.99636e-08
1.23867e-09
3.98963e-08
1.23105e-09
3.98276e-08
1.22352e-09
3.97573e-08
1.21607e-09
3.96856e-08
1.2087e-09
3.96124e-08
1.20141e-09
3.95377e-08
1.1942e-09
3.94617e-08
1.18707e-09
3.93842e-08
1.18001e-09
3.93054e-08
1.17302e-09
3.92252e-08
1.16611e-09
3.91436e-08
1.15928e-09
3.90608e-08
1.15252e-09
3.89767e-08
1.14585e-09
3.88912e-08
1.13926e-09
3.88046e-08
1.13275e-09
3.87167e-08
1.12634e-09
3.86276e-08
1.12002e-09
3.85373e-08
1.11381e-09
3.84459e-08
1.1077e-09
3.83533e-08
1.10172e-09
3.82596e-08
1.09586e-09
3.81648e-08
1.09015e-09
3.80689e-08
1.0846e-09
3.7972e-08
1.07923e-09
3.78739e-08
1.07407e-09
3.77749e-08
1.06916e-09
3.76748e-08
1.06454e-09
3.75737e-08
1.06031e-09
3.74716e-08
1.0566e-09
3.73688e-08
1.05359e-09
3.72655e-08
1.05152e-09
3.71629e-08
1.05027e-09
3.70637e-08
1.04729e-09
1.0264e-09
4.08583e-08
2.06565e-09
-4.07844e-08
4.09527e-08
2.24674e-09
4.10606e-08
2.40043e-09
4.11754e-08
2.52191e-09
4.12919e-08
2.61067e-09
4.14062e-08
2.66831e-09
4.15151e-08
2.69729e-09
4.16161e-08
2.70068e-09
4.17075e-08
2.68225e-09
4.17884e-08
2.64612e-09
4.18585e-08
2.5965e-09
4.19181e-08
2.53735e-09
4.19678e-08
2.47227e-09
4.20085e-08
2.4043e-09
4.20413e-08
2.33591e-09
4.20673e-08
2.26895e-09
4.20877e-08
2.20473e-09
4.21034e-08
2.14405e-09
4.21153e-08
2.08734e-09
4.21241e-08
2.03475e-09
4.21304e-08
1.98619e-09
4.21347e-08
1.94146e-09
4.21373e-08
1.90029e-09
4.21385e-08
1.86238e-09
4.21386e-08
1.8274e-09
4.21376e-08
1.79506e-09
4.21356e-08
1.76508e-09
4.21328e-08
1.73723e-09
4.21292e-08
1.71127e-09
4.21247e-08
1.68702e-09
4.21195e-08
1.66432e-09
4.21135e-08
1.64301e-09
4.21068e-08
1.62296e-09
4.20993e-08
1.60407e-09
4.2091e-08
1.58623e-09
4.20819e-08
1.56935e-09
4.2072e-08
1.55335e-09
4.20612e-08
1.53817e-09
4.20497e-08
1.52372e-09
4.20372e-08
1.50996e-09
4.20239e-08
1.49684e-09
4.20096e-08
1.48429e-09
4.19944e-08
1.47229e-09
4.19782e-08
1.46077e-09
4.19611e-08
1.44972e-09
4.19429e-08
1.43909e-09
4.19237e-08
1.42886e-09
4.19035e-08
1.41899e-09
4.18822e-08
1.40945e-09
4.18597e-08
1.40023e-09
4.18362e-08
1.39129e-09
4.18115e-08
1.38263e-09
4.17857e-08
1.37421e-09
4.17586e-08
1.36602e-09
4.17304e-08
1.35805e-09
4.1701e-08
1.35027e-09
4.16703e-08
1.34269e-09
4.16384e-08
1.33527e-09
4.16053e-08
1.32801e-09
4.15709e-08
1.3209e-09
4.15352e-08
1.31393e-09
4.14982e-08
1.3071e-09
4.14599e-08
1.30038e-09
4.14203e-08
1.29378e-09
4.13794e-08
1.28728e-09
4.13372e-08
1.28089e-09
4.12937e-08
1.27459e-09
4.12488e-08
1.26838e-09
4.12026e-08
1.26226e-09
4.11551e-08
1.25622e-09
4.11062e-08
1.25026e-09
4.10561e-08
1.24438e-09
4.10046e-08
1.23857e-09
4.09517e-08
1.23283e-09
4.08976e-08
1.22717e-09
4.08421e-08
1.22158e-09
4.07853e-08
1.21607e-09
4.07272e-08
1.21062e-09
4.06678e-08
1.20525e-09
4.06071e-08
1.19996e-09
4.05451e-08
1.19475e-09
4.04818e-08
1.18963e-09
4.04173e-08
1.18459e-09
4.03514e-08
1.17965e-09
4.02843e-08
1.17482e-09
4.02159e-08
1.1701e-09
4.01463e-08
1.1655e-09
4.00754e-08
1.16104e-09
4.00033e-08
1.15673e-09
3.99299e-08
1.1526e-09
3.98553e-08
1.14868e-09
3.97795e-08
1.14499e-09
3.97024e-08
1.14159e-09
3.96242e-08
1.13855e-09
3.95448e-08
1.13596e-09
3.94645e-08
1.13394e-09
3.93835e-08
1.13248e-09
3.93028e-08
1.13094e-09
3.92241e-08
1.12598e-09
1.10261e-09
4.16471e-08
1.99773e-09
-4.15792e-08
4.17328e-08
2.16108e-09
4.18309e-08
2.30229e-09
4.19361e-08
2.41672e-09
4.20438e-08
2.503e-09
4.21502e-08
2.56185e-09
4.22525e-08
2.59499e-09
4.23483e-08
2.60489e-09
4.2436e-08
2.59463e-09
4.25144e-08
2.56769e-09
4.25832e-08
2.52766e-09
4.26425e-08
2.47805e-09
4.26928e-08
2.42203e-09
4.27347e-08
2.36239e-09
4.27692e-08
2.30142e-09
4.27972e-08
2.24091e-09
4.28198e-08
2.18217e-09
4.28377e-08
2.12607e-09
4.28519e-08
2.07314e-09
4.28631e-08
2.02362e-09
4.28717e-08
1.97756e-09
4.28783e-08
1.93487e-09
4.28832e-08
1.89535e-09
4.28868e-08
1.85879e-09
4.28893e-08
1.82494e-09
4.28908e-08
1.79356e-09
4.28914e-08
1.76441e-09
4.28914e-08
1.73728e-09
4.28907e-08
1.71198e-09
4.28893e-08
1.68833e-09
4.28875e-08
1.66619e-09
4.28851e-08
1.6454e-09
4.28822e-08
1.62587e-09
4.28788e-08
1.60747e-09
4.28749e-08
1.59012e-09
4.28705e-08
1.57372e-09
4.28657e-08
1.55821e-09
4.28603e-08
1.54351e-09
4.28545e-08
1.52957e-09
4.28481e-08
1.51632e-09
4.28412e-08
1.50371e-09
4.28338e-08
1.4917e-09
4.28259e-08
1.48023e-09
4.28174e-08
1.46929e-09
4.28083e-08
1.45881e-09
4.27986e-08
1.44878e-09
4.27883e-08
1.43916e-09
4.27774e-08
1.42993e-09
4.27658e-08
1.42104e-09
4.27535e-08
1.4125e-09
4.27405e-08
1.40426e-09
4.27269e-08
1.3963e-09
4.27125e-08
1.38862e-09
4.26973e-08
1.38119e-09
4.26813e-08
1.37399e-09
4.26646e-08
1.36702e-09
4.2647e-08
1.36024e-09
4.26287e-08
1.35366e-09
4.26094e-08
1.34726e-09
4.25893e-08
1.34103e-09
4.25683e-08
1.33495e-09
4.25463e-08
1.32902e-09
4.25235e-08
1.32324e-09
4.24997e-08
1.31758e-09
4.24749e-08
1.31205e-09
4.24492e-08
1.30663e-09
4.24224e-08
1.30132e-09
4.23947e-08
1.29612e-09
4.23659e-08
1.29102e-09
4.23361e-08
1.28602e-09
4.23053e-08
1.28111e-09
4.22734e-08
1.27629e-09
4.22404e-08
1.27155e-09
4.22063e-08
1.2669e-09
4.21712e-08
1.26233e-09
4.21349e-08
1.25784e-09
4.20975e-08
1.25344e-09
4.2059e-08
1.24912e-09
4.20194e-08
1.24488e-09
4.19786e-08
1.24073e-09
4.19367e-08
1.23666e-09
4.18937e-08
1.23269e-09
4.18494e-08
1.22881e-09
4.18041e-08
1.22504e-09
4.17575e-08
1.22138e-09
4.17097e-08
1.21784e-09
4.16608e-08
1.21442e-09
4.16107e-08
1.21116e-09
4.15594e-08
1.20805e-09
4.15069e-08
1.20512e-09
4.14532e-08
1.2024e-09
4.13982e-08
1.19992e-09
4.13421e-08
1.19773e-09
4.12848e-08
1.19587e-09
4.12263e-08
1.19442e-09
4.11669e-08
1.19339e-09
4.11067e-08
1.19261e-09
4.10465e-08
1.19113e-09
4.0987e-08
1.18548e-09
1.16316e-09
4.24458e-08
1.93487e-09
-4.2383e-08
4.25241e-08
2.08284e-09
4.26137e-08
2.21265e-09
4.27103e-08
2.32012e-09
4.28099e-08
2.40343e-09
4.29091e-08
2.46264e-09
4.30051e-08
2.49891e-09
4.30959e-08
2.51413e-09
4.31797e-08
2.51082e-09
4.32555e-08
2.49188e-09
4.33228e-08
2.46037e-09
4.33815e-08
2.41933e-09
4.3432e-08
2.3716e-09
4.34747e-08
2.31968e-09
4.35104e-08
2.2657e-09
4.354e-08
2.21135e-09
4.35642e-08
2.15792e-09
4.35839e-08
2.10633e-09
4.35999e-08
2.05717e-09
4.36128e-08
2.01077e-09
4.36231e-08
1.96727e-09
4.36313e-08
1.92667e-09
4.36378e-08
1.88887e-09
4.36428e-08
1.85373e-09
4.36467e-08