/*--------------------------------*- C++ -*----------------------------------*\
| =========                 |                                                 |
| \\      /  F ield         | OpenFOAM: The Open Source CFD Toolbox           |
|  \\    /   O peration     | Version:  2.3.0                                 |
|   \\  /    A nd           | Web:      www.OpenFOAM.org                      |
|    \\/     M anipulation  |                                                 |
\*---------------------------------------------------------------------------*/
FoamFile
{
    version     2.0;
    format      ascii;
    class       volVectorField;
    location    "0.9";
    object      U_0;
}
// * * * * * * * * * * * * * * * * * * * * * * * * * * * * * * * * * * * * * //

dimensions      [0 1 -1 0 0 0 0];

internalField   nonuniform List<vector> 
6875
(
(0.17114 0.00596376 0)
(0.154682 0.00603365 0)
(0.13886 0.00561498 0)
(0.123862 0.00501641 0)
(0.110099 0.00435522 0)
(0.0977392 0.00368474 0)
(0.0867957 0.0030417 0)
(0.077234 0.00245148 0)
(0.0689982 0.00192956 0)
(0.0620032 0.00148374 0)
(0.0561354 0.00111569 0)
(0.0512617 0.000821911 0)
(0.0472411 0.000594983 0)
(0.0439344 0.000425164 0)
(0.0412116 0.000301912 0)
(0.0389568 0.000215086 0)
(0.0370711 0.000155693 0)
(0.0354731 0.000116228 0)
(0.0340979 9.07276e-05 0)
(0.0328953 7.46495e-05 0)
(0.0318273 6.4672e-05 0)
(0.0308657 5.84658e-05 0)
(0.0299895 5.4468e-05 0)
(0.0291836 5.16809e-05 0)
(0.0284368 4.95027e-05 0)
(0.0277407 4.75956e-05 0)
(0.0270889 4.5788e-05 0)
(0.0264766 4.40067e-05 0)
(0.0258995 4.22321e-05 0)
(0.0253544 4.04702e-05 0)
(0.0248384 3.87369e-05 0)
(0.0243489 3.70489e-05 0)
(0.0238838 3.54202e-05 0)
(0.0234412 3.38605e-05 0)
(0.0230192 3.23755e-05 0)
(0.0226162 3.09678e-05 0)
(0.022231 2.96369e-05 0)
(0.021862 2.83811e-05 0)
(0.0215083 2.71971e-05 0)
(0.0211687 2.60811e-05 0)
(0.0208423 2.50292e-05 0)
(0.0205282 2.40371e-05 0)
(0.0202256 2.31008e-05 0)
(0.0199339 2.22164e-05 0)
(0.0196524 2.13804e-05 0)
(0.0193804 2.05893e-05 0)
(0.0191174 1.98399e-05 0)
(0.0188629 1.91296e-05 0)
(0.0186165 1.84555e-05 0)
(0.0183777 1.78152e-05 0)
(0.0181462 1.72066e-05 0)
(0.0179215 1.66276e-05 0)
(0.0177033 1.60762e-05 0)
(0.0174913 1.55509e-05 0)
(0.0172852 1.50499e-05 0)
(0.0170847 1.45719e-05 0)
(0.0168896 1.41154e-05 0)
(0.0166996 1.36793e-05 0)
(0.0165145 1.32623e-05 0)
(0.0163341 1.28634e-05 0)
(0.0161582 1.24816e-05 0)
(0.0159866 1.2116e-05 0)
(0.015819 1.17658e-05 0)
(0.0156555 1.14301e-05 0)
(0.0154957 1.11083e-05 0)
(0.0153396 1.07996e-05 0)
(0.0151869 1.05034e-05 0)
(0.0150376 1.02191e-05 0)
(0.0148916 9.9462e-06 0)
(0.0147486 9.68416e-06 0)
(0.0146086 9.43249e-06 0)
(0.0144715 9.19077e-06 0)
(0.0143372 8.95858e-06 0)
(0.0142055 8.73554e-06 0)
(0.0140764 8.52129e-06 0)
(0.0139498 8.31551e-06 0)
(0.0138256 8.1179e-06 0)
(0.0137036 7.92816e-06 0)
(0.0135838 7.74605e-06 0)
(0.0134662 7.57136e-06 0)
(0.0133506 7.40386e-06 0)
(0.0132369 7.24334e-06 0)
(0.0131252 7.08968e-06 0)
(0.0130152 6.94275e-06 0)
(0.012907 6.80243e-06 0)
(0.0128004 6.66863e-06 0)
(0.0126954 6.54133e-06 0)
(0.0125919 6.42058e-06 0)
(0.0124898 6.30644e-06 0)
(0.0123891 6.19912e-06 0)
(0.0122897 6.09904e-06 0)
(0.0121914 6.00691e-06 0)
(0.0120943 5.92406e-06 0)
(0.011998 5.85318e-06 0)
(0.0119026 5.79985e-06 0)
(0.0118078 5.77681e-06 0)
(0.011713 5.82178e-06 0)
(0.0116159 5.99746e-06 0)
(0.0115361 5.08473e-06 0)
(0.0112661 3.75504e-05 0)
(0.189975 0.0094084 0)
(0.18763 0.0099132 0)
(0.183673 0.00968755 0)
(0.178465 0.00918941 0)
(0.172509 0.00855661 0)
(0.166156 0.00783532 0)
(0.15963 0.0070635 0)
(0.153099 0.00627604 0)
(0.146698 0.00550218 0)
(0.140527 0.00476591 0)
(0.134654 0.00408598 0)
(0.12912 0.0034753 0)
(0.123944 0.0029407 0)
(0.119127 0.00248334 0)
(0.114663 0.00209982 0)
(0.110533 0.00178344 0)
(0.106719 0.00152567 0)
(0.103195 0.00131728 0)
(0.0999383 0.00114932 0)
(0.0969236 0.00101368 0)
(0.0941283 0.000903452 0)
(0.0915307 0.000812954 0)
(0.0891113 0.000737706 0)
(0.0868523 0.000674254 0)
(0.0847377 0.000619992 0)
(0.0827534 0.000572974 0)
(0.080887 0.000531761 0)
(0.0791273 0.000495281 0)
(0.0774648 0.000462729 0)
(0.0758906 0.000433492 0)
(0.0743972 0.000407092 0)
(0.0729778 0.000383149 0)
(0.0716264 0.000361353 0)
(0.0703376 0.000341445 0)
(0.0691066 0.000323206 0)
(0.0679291 0.000306451 0)
(0.0668012 0.000291017 0)
(0.0657194 0.000276765 0)
(0.0646807 0.000263572 0)
(0.063682 0.000251332 0)
(0.0627208 0.000239949 0)
(0.0617947 0.000229343 0)
(0.0609016 0.000219439 0)
(0.0600396 0.000210175 0)
(0.0592067 0.000201493 0)
(0.0584013 0.000193342 0)
(0.057622 0.000185679 0)
(0.0568672 0.000178463 0)
(0.0561357 0.000171657 0)
(0.0554263 0.000165232 0)
(0.0547379 0.000159156 0)
(0.0540693 0.000153405 0)
(0.0534198 0.000147955 0)
(0.0527883 0.000142784 0)
(0.0521739 0.000137873 0)
(0.0515761 0.000133205 0)
(0.0509939 0.000128764 0)
(0.0504267 0.000124534 0)
(0.0498739 0.000120503 0)
(0.0493348 0.000116658 0)
(0.0488089 0.000112988 0)
(0.0482956 0.000109482 0)
(0.0477944 0.000106131 0)
(0.0473049 0.000102925 0)
(0.0468266 9.98576e-05 0)
(0.046359 9.69201e-05 0)
(0.0459017 9.41058e-05 0)
(0.0454544 9.14082e-05 0)
(0.0450167 8.88213e-05 0)
(0.0445882 8.63395e-05 0)
(0.0441686 8.39577e-05 0)
(0.0437576 8.16709e-05 0)
(0.0433548 7.94748e-05 0)
(0.04296 7.73653e-05 0)
(0.0425729 7.53384e-05 0)
(0.0421932 7.33906e-05 0)
(0.0418206 7.15185e-05 0)
(0.041455 6.97191e-05 0)
(0.041096 6.79896e-05 0)
(0.0407434 6.63274e-05 0)
(0.0403971 6.47301e-05 0)
(0.0400567 6.31953e-05 0)
(0.0397221 6.17213e-05 0)
(0.039393 6.03063e-05 0)
(0.0390692 5.89488e-05 0)
(0.0387506 5.76474e-05 0)
(0.0384369 5.64011e-05 0)
(0.038128 5.52094e-05 0)
(0.0378235 5.4072e-05 0)
(0.0375234 5.29894e-05 0)
(0.0372274 5.19632e-05 0)
(0.0369353 5.09965e-05 0)
(0.0366467 5.00963e-05 0)
(0.0363615 4.92767e-05 0)
(0.0360793 4.85687e-05 0)
(0.0357994 4.80483e-05 0)
(0.0355208 4.79241e-05 0)
(0.0352393 4.87237e-05 0)
(0.0349785 5.38055e-05 0)
(0.0344324 0.000130253 0)
(0.19296 0.00905002 0)
(0.193731 0.0100027 0)
(0.193836 0.010332 0)
(0.193129 0.0103332 0)
(0.191728 0.0101064 0)
(0.189756 0.00968995 0)
(0.187308 0.00912884 0)
(0.184473 0.00847279 0)
(0.181346 0.00776708 0)
(0.178018 0.00705005 0)
(0.174566 0.00635248 0)
(0.171055 0.00569702 0)
(0.167537 0.00509811 0)
(0.16405 0.00456274 0)
(0.160625 0.00409195 0)
(0.15728 0.00368251 0)
(0.154028 0.00332861 0)
(0.150878 0.00302326 0)
(0.147831 0.00275933 0)
(0.14489 0.00253019 0)
(0.142053 0.00233001 0)
(0.139318 0.00215392 0)
(0.136682 0.00199792 0)
(0.134142 0.0018588 0)
(0.131694 0.001734 0)
(0.129335 0.00162146 0)
(0.127062 0.00151954 0)
(0.12487 0.0014269 0)
(0.122756 0.00134241 0)
(0.120718 0.00126515 0)
(0.118751 0.00119434 0)
(0.116852 0.00112928 0)
(0.115019 0.00106939 0)
(0.113248 0.00101414 0)
(0.111536 0.000963082 0)
(0.109882 0.000915799 0)
(0.108281 0.000871935 0)
(0.106731 0.000831168 0)
(0.105231 0.000793212 0)
(0.103777 0.000757812 0)
(0.102368 0.000724741 0)
(0.101002 0.000693795 0)
(0.0996756 0.000664792 0)
(0.0983882 0.000637567 0)
(0.0971378 0.000611976 0)
(0.0959227 0.000587885 0)
(0.0947413 0.000565177 0)
(0.0935922 0.000543744 0)
(0.092474 0.00052349 0)
(0.0913853 0.000504327 0)
(0.0903249 0.000486176 0)
(0.0892917 0.000468965 0)
(0.0882845 0.000452628 0)
(0.0873023 0.000437106 0)
(0.0863441 0.000422343 0)
(0.0854089 0.000408291 0)
(0.0844958 0.000394903 0)
(0.0836041 0.000382138 0)
(0.0827329 0.000369957 0)
(0.0818814 0.000358324 0)
(0.081049 0.000347207 0)
(0.0802349 0.000336576 0)
(0.0794385 0.000326403 0)
(0.0786591 0.000316663 0)
(0.0778962 0.00030733 0)
(0.0771491 0.000298384 0)
(0.0764175 0.000289805 0)
(0.0757006 0.000281572 0)
(0.0749981 0.000273668 0)
(0.0743094 0.000266077 0)
(0.0736342 0.000258784 0)
(0.0729719 0.000251775 0)
(0.0723221 0.000245035 0)
(0.0716845 0.000238554 0)
(0.0710587 0.000232319 0)
(0.0704442 0.000226319 0)
(0.0698407 0.000220545 0)
(0.0692479 0.000214988 0)
(0.0686654 0.000209639 0)
(0.0680929 0.00020449 0)
(0.0675301 0.000199534 0)
(0.0669766 0.000194764 0)
(0.0664322 0.000190174 0)
(0.0658966 0.000185758 0)
(0.0653694 0.000181513 0)
(0.0648503 0.000177432 0)
(0.0643392 0.000173514 0)
(0.0638356 0.000169756 0)
(0.0633394 0.000166155 0)
(0.0628502 0.000162713 0)
(0.0623677 0.000159432 0)
(0.0618915 0.00015632 0)
(0.0614214 0.000153392 0)
(0.060957 0.00015068 0)
(0.0604977 0.000148259 0)
(0.0600428 0.000146313 0)
(0.0595908 0.000145346 0)
(0.0591376 0.000146909 0)
(0.0586986 0.00016288 0)
(0.0579897 0.000259198 0)
(0.193985 0.00841762 0)
(0.195142 0.00947018 0)
(0.196183 0.0100239 0)
(0.196889 0.0102628 0)
(0.197241 0.0102696 0)
(0.197246 0.0100766 0)
(0.196903 0.0097197 0)
(0.196219 0.0092418 0)
(0.195222 0.00868491 0)
(0.193951 0.00808642 0)
(0.19245 0.00747811 0)
(0.190762 0.00688517 0)
(0.188931 0.00632559 0)
(0.186993 0.00581043 0)
(0.18498 0.00534477 0)
(0.182918 0.00492911 0)
(0.180827 0.00456085 0)
(0.178722 0.00423554 0)
(0.176614 0.00394798 0)
(0.174513 0.00369286 0)
(0.172424 0.00346528 0)
(0.170351 0.00326092 0)
(0.168297 0.00307613 0)
(0.166266 0.00290794 0)
(0.164259 0.00275393 0)
(0.162278 0.00261216 0)
(0.160324 0.00248109 0)
(0.158399 0.00235949 0)
(0.156503 0.00224635 0)
(0.154638 0.00214082 0)
(0.152803 0.0020422 0)
(0.150999 0.0019499 0)
(0.149227 0.00186339 0)
(0.147486 0.0017822 0)
(0.145777 0.00170592 0)
(0.1441 0.00163417 0)
(0.142455 0.00156662 0)
(0.14084 0.00150295 0)
(0.139257 0.00144289 0)
(0.137705 0.00138618 0)
(0.136182 0.00133258 0)
(0.13469 0.00128187 0)
(0.133226 0.00123386 0)
(0.131792 0.00118835 0)
(0.130385 0.00114519 0)
(0.129007 0.00110422 0)
(0.127655 0.00106529 0)
(0.12633 0.00102828 0)
(0.125031 0.000993053 0)
(0.123757 0.000959507 0)
(0.122507 0.000927536 0)
(0.121282 0.000897043 0)
(0.12008 0.000867939 0)
(0.118901 0.000840143 0)
(0.117745 0.000813578 0)
(0.11661 0.000788173 0)
(0.115497 0.000763862 0)
(0.114404 0.000740583 0)
(0.113331 0.000718281 0)
(0.112278 0.000696902 0)
(0.111244 0.000676397 0)
(0.110229 0.000656719 0)
(0.109232 0.000637826 0)
(0.108253 0.000619679 0)
(0.107291 0.000602239 0)
(0.106346 0.000585472 0)
(0.105417 0.000569344 0)
(0.104504 0.000553827 0)
(0.103607 0.00053889 0)
(0.102725 0.000524508 0)
(0.101858 0.000510655 0)
(0.101005 0.000497307 0)
(0.100166 0.000484444 0)
(0.0993404 0.000472043 0)
(0.0985285 0.000460087 0)
(0.0977295 0.000448556 0)
(0.0969431 0.000437435 0)
(0.096169 0.000426707 0)
(0.0954069 0.000416357 0)
(0.0946564 0.000406373 0)
(0.0939174 0.000396742 0)
(0.0931893 0.000387451 0)
(0.092472 0.000378491 0)
(0.0917651 0.000369851 0)
(0.0910684 0.000361524 0)
(0.0903816 0.000353501 0)
(0.0897043 0.000345777 0)
(0.0890362 0.000338346 0)
(0.0883771 0.000331207 0)
(0.0877267 0.000324359 0)
(0.0870846 0.000317806 0)
(0.0864505 0.000311559 0)
(0.085824 0.000305645 0)
(0.0852047 0.000300116 0)
(0.084592 0.000295095 0)
(0.0839852 0.000290883 0)
(0.0833827 0.00028832 0)
(0.0827811 0.000290212 0)
(0.0821913 0.000312626 0)
(0.0813707 0.000407426 0)
(0.194695 0.00791967 0)
(0.195728 0.00891459 0)
(0.196827 0.00950939 0)
(0.197817 0.0098237 0)
(0.198656 0.0099307 0)
(0.199327 0.00986013 0)
(0.199804 0.00963833 0)
(0.200065 0.00929784 0)
(0.200102 0.00887253 0)
(0.199921 0.00839408 0)
(0.199539 0.00789072 0)
(0.198976 0.00738605 0)
(0.198257 0.00689817 0)
(0.197406 0.00643941 0)
(0.196448 0.00601683 0)
(0.195402 0.00563315 0)
(0.194287 0.00528793 0)
(0.193116 0.00497866 0)
(0.1919 0.0047017 0)
(0.190648 0.004453 0)
(0.189367 0.00422861 0)
(0.188062 0.0040249 0)
(0.186736 0.00383875 0)
(0.185394 0.00366754 0)
(0.184038 0.00350912 0)
(0.18267 0.00336177 0)
(0.181293 0.00322411 0)
(0.179909 0.00309501 0)
(0.178519 0.00297358 0)
(0.177126 0.00285908 0)
(0.175731 0.00275089 0)
(0.174336 0.00264848 0)
(0.172942 0.00255142 0)
(0.171551 0.00245929 0)
(0.170163 0.00237175 0)
(0.16878 0.00228849 0)
(0.167404 0.00220922 0)
(0.166034 0.00213369 0)
(0.164672 0.00206166 0)
(0.163318 0.00199291 0)
(0.161975 0.00192725 0)
(0.160641 0.00186449 0)
(0.159317 0.00180447 0)
(0.158005 0.00174704 0)
(0.156705 0.00169204 0)
(0.155416 0.00163935 0)
(0.154139 0.00158884 0)
(0.152876 0.0015404 0)
(0.151625 0.00149391 0)
(0.150387 0.00144929 0)
(0.149162 0.00140642 0)
(0.147951 0.00136523 0)
(0.146753 0.00132564 0)
(0.145569 0.00128755 0)
(0.144399 0.00125091 0)
(0.143242 0.00121564 0)
(0.142098 0.00118168 0)
(0.140969 0.00114897 0)
(0.139852 0.00111745 0)
(0.13875 0.00108707 0)
(0.137661 0.00105777 0)
(0.136585 0.00102951 0)
(0.135523 0.00100224 0)
(0.134473 0.00097592 0)
(0.133437 0.00095051 0)
(0.132414 0.000925972 0)
(0.131403 0.000902269 0)
(0.130405 0.000879367 0)
(0.12942 0.000857233 0)
(0.128447 0.000835837 0)
(0.127487 0.000815151 0)
(0.126538 0.000795147 0)
(0.125601 0.0007758 0)
(0.124676 0.000757084 0)
(0.123763 0.000738978 0)
(0.12286 0.00072146 0)
(0.121969 0.000704509 0)
(0.12109 0.000688106 0)
(0.12022 0.000672234 0)
(0.119362 0.000656876 0)
(0.118514 0.000642016 0)
(0.117676 0.00062764 0)
(0.116849 0.000613735 0)
(0.116031 0.000600289 0)
(0.115223 0.000587291 0)
(0.114424 0.000574732 0)
(0.113634 0.000562605 0)
(0.112854 0.000550904 0)
(0.112082 0.000539626 0)
(0.111319 0.000528772 0)
(0.110564 0.00051835 0)
(0.109818 0.000508375 0)
(0.109079 0.000498884 0)
(0.108347 0.000489952 0)
(0.107622 0.000481749 0)
(0.106903 0.00047469 0)
(0.106189 0.000469915 0)
(0.105478 0.000471169 0)
(0.104781 0.00049436 0)
(0.103888 0.000573034 0)
(0.195294 0.00749254 0)
(0.196161 0.00839116 0)
(0.197141 0.00897622 0)
(0.198103 0.00931733 0)
(0.199002 0.0094724 0)
(0.199817 0.00946898 0)
(0.200525 0.00932869 0)
(0.201103 0.00907773 0)
(0.201535 0.00874438 0)
(0.201816 0.00835576 0)
(0.201949 0.00793644 0)
(0.201942 0.00750749 0)
(0.20181 0.00708568 0)
(0.201566 0.00668307 0)
(0.201225 0.00630724 0)
(0.200804 0.00596196 0)
(0.200313 0.00564803 0)
(0.199765 0.00536425 0)
(0.199167 0.00510815 0)
(0.198526 0.0048767 0)
(0.197849 0.00466673 0)
(0.197137 0.00447523 0)
(0.196396 0.00429951 0)
(0.195627 0.00413726 0)
(0.194832 0.00398655 0)
(0.194013 0.0038458 0)
(0.193171 0.00371372 0)
(0.192309 0.00358928 0)
(0.191426 0.00347162 0)
(0.190526 0.00336007 0)
(0.189608 0.00325404 0)
(0.188675 0.00315306 0)
(0.187727 0.00305672 0)
(0.186766 0.00296465 0)
(0.185792 0.00287657 0)
(0.184808 0.00279218 0)
(0.183813 0.00271126 0)
(0.18281 0.00263357 0)
(0.181799 0.00255893 0)
(0.180781 0.00248715 0)
(0.179756 0.00241808 0)
(0.178727 0.00235156 0)
(0.177694 0.00228745 0)
(0.176656 0.00222564 0)
(0.175617 0.00216601 0)
(0.174575 0.00210845 0)
(0.173532 0.00205286 0)
(0.172488 0.00199914 0)
(0.171445 0.00194723 0)
(0.170402 0.00189703 0)
(0.16936 0.00184847 0)
(0.168319 0.00180148 0)
(0.167281 0.00175599 0)
(0.166246 0.00171196 0)
(0.165213 0.0016693 0)
(0.164184 0.00162798 0)
(0.163159 0.00158794 0)
(0.162138 0.00154913 0)
(0.161121 0.0015115 0)
(0.160109 0.00147502 0)
(0.159103 0.00143963 0)
(0.158101 0.0014053 0)
(0.157105 0.00137199 0)
(0.156115 0.00133967 0)
(0.155131 0.0013083 0)
(0.154153 0.00127785 0)
(0.153182 0.00124829 0)
(0.152217 0.00121959 0)
(0.151258 0.00119172 0)
(0.150307 0.00116465 0)
(0.149362 0.00113836 0)
(0.148424 0.00111283 0)
(0.147493 0.00108802 0)
(0.146569 0.00106393 0)
(0.145652 0.00104052 0)
(0.144742 0.00101778 0)
(0.14384 0.000995695 0)
(0.142944 0.00097424 0)
(0.142056 0.000953401 0)
(0.141175 0.000933162 0)
(0.140301 0.00091351 0)
(0.139435 0.00089443 0)
(0.138575 0.000875911 0)
(0.137723 0.000857941 0)
(0.136877 0.000840512 0)
(0.136039 0.000823615 0)
(0.135207 0.000807245 0)
(0.134382 0.000791397 0)
(0.133564 0.000776072 0)
(0.132753 0.000761273 0)
(0.131948 0.000747012 0)
(0.131149 0.000733313 0)
(0.130356 0.000720223 0)
(0.129569 0.000707839 0)
(0.128787 0.000696372 0)
(0.128011 0.000686323 0)
(0.127238 0.000679018 0)
(0.12647 0.00067844 0)
(0.125719 0.000697519 0)
(0.1248 0.000751569 0)
(0.195817 0.0071274 0)
(0.196548 0.0079296 0)
(0.197397 0.00848839 0)
(0.198268 0.00883701 0)
(0.199112 0.00901688 0)
(0.199909 0.00905269 0)
(0.200639 0.00896374 0)
(0.201281 0.00877232 0)
(0.201823 0.00850281 0)
(0.202258 0.00817888 0)
(0.202584 0.00782218 0)
(0.202807 0.00745144 0)
(0.202933 0.00708194 0)
(0.202973 0.00672503 0)
(0.202938 0.00638832 0)
(0.202838 0.00607608 0)
(0.202682 0.00578991 0)
(0.20248 0.0055295 0)
(0.202237 0.00529328 0)
(0.201959 0.00507897 0)
(0.201651 0.00488406 0)
(0.201313 0.00470603 0)
(0.20095 0.00454254 0)
(0.200562 0.00439154 0)
(0.200151 0.00425126 0)
(0.199718 0.00412024 0)
(0.199262 0.00399725 0)
(0.198786 0.00388131 0)
(0.198289 0.00377158 0)
(0.197772 0.0036674 0)
(0.197236 0.00356821 0)
(0.196681 0.00347355 0)
(0.196109 0.003383 0)
(0.195519 0.00329623 0)
(0.194912 0.00321295 0)
(0.194289 0.00313289 0)
(0.19365 0.00305583 0)
(0.192996 0.00298157 0)
(0.192329 0.00290991 0)
(0.191647 0.0028407 0)
(0.190953 0.0027738 0)
(0.190247 0.00270906 0)
(0.189528 0.00264638 0)
(0.188799 0.00258563 0)
(0.188059 0.00252673 0)
(0.187309 0.00246957 0)
(0.18655 0.00241408 0)
(0.185783 0.00236018 0)
(0.185007 0.0023078 0)
(0.184223 0.00225687 0)
(0.183433 0.00220734 0)
(0.182636 0.00215915 0)
(0.181833 0.00211224 0)
(0.181024 0.00206658 0)
(0.180211 0.00202211 0)
(0.179392 0.00197879 0)
(0.17857 0.00193659 0)
(0.177744 0.00189546 0)
(0.176915 0.00185538 0)
(0.176083 0.0018163 0)
(0.175249 0.0017782 0)
(0.174413 0.00174104 0)
(0.173575 0.00170481 0)
(0.172736 0.00166947 0)
(0.171895 0.001635 0)
(0.171055 0.00160137 0)
(0.170213 0.00156856 0)
(0.169372 0.00153655 0)
(0.168531 0.00150532 0)
(0.167691 0.00147485 0)
(0.166851 0.00144512 0)
(0.166013 0.00141612 0)
(0.165176 0.00138782 0)
(0.16434 0.0013602 0)
(0.163506 0.00133327 0)
(0.162674 0.00130699 0)
(0.161844 0.00128135 0)
(0.161016 0.00125635 0)
(0.16019 0.00123197 0)
(0.159367 0.0012082 0)
(0.158547 0.00118503 0)
(0.15773 0.00116245 0)
(0.156915 0.00114045 0)
(0.156103 0.00111903 0)
(0.155295 0.00109818 0)
(0.15449 0.00107789 0)
(0.153687 0.00105816 0)
(0.152889 0.001039 0)
(0.152093 0.00102041 0)
(0.151301 0.0010024 0)
(0.150511 0.000984979 0)
(0.149726 0.000968189 0)
(0.148943 0.000952084 0)
(0.148163 0.000936782 0)
(0.147386 0.000922519 0)
(0.146612 0.000909837 0)
(0.145841 0.000900071 0)
(0.145073 0.000896734 0)
(0.144324 0.000908425 0)
(0.143429 0.000934724 0)
(0.196278 0.00681295 0)
(0.196902 0.00752616 0)
(0.197639 0.00804999 0)
(0.198414 0.00839493 0)
(0.199183 0.00858811 0)
(0.199923 0.00865029 0)
(0.200614 0.00859856 0)
(0.201241 0.00845198 0)
(0.201791 0.00823152 0)
(0.202258 0.00795795 0)
(0.20264 0.00765043 0)
(0.20294 0.00732578 0)
(0.203165 0.00699792 0)
(0.20332 0.00667757 0)
(0.203416 0.00637222 0)
(0.203461 0.00608644 0)
(0.203462 0.00582244 0)
(0.203427 0.0055806 0)
(0.203361 0.00536006 0)
(0.203269 0.00515923 0)
(0.203154 0.00497612 0)
(0.203019 0.00480868 0)
(0.202866 0.0046549 0)
(0.202694 0.00451296 0)
(0.202507 0.00438128 0)
(0.202303 0.0042585 0)
(0.202083 0.00414345 0)
(0.201847 0.00403518 0)
(0.201597 0.00393289 0)
(0.20133 0.00383592 0)
(0.201049 0.0037437 0)
(0.200752 0.00365577 0)
(0.20044 0.00357171 0)
(0.200113 0.00349119 0)
(0.199772 0.0034139 0)
(0.199416 0.00333959 0)
(0.199045 0.00326801 0)
(0.198661 0.00319897 0)
(0.198262 0.00313228 0)
(0.19785 0.00306777 0)
(0.197424 0.00300531 0)
(0.196986 0.00294476 0)
(0.196534 0.002886 0)
(0.19607 0.00282893 0)
(0.195593 0.00277345 0)
(0.195104 0.00271946 0)
(0.194604 0.0026669 0)
(0.194092 0.00261569 0)
(0.19357 0.00256576 0)
(0.193036 0.00251706 0)
(0.192492 0.00246953 0)
(0.191938 0.00242312 0)
(0.191374 0.00237778 0)
(0.190801 0.00233347 0)
(0.190219 0.00229016 0)
(0.189628 0.00224781 0)
(0.189029 0.00220637 0)
(0.188422 0.00216584 0)
(0.187807 0.00212617 0)
(0.187185 0.00208733 0)
(0.186556 0.00204932 0)
(0.18592 0.00201209 0)
(0.185278 0.00197564 0)
(0.184629 0.00193993 0)
(0.183975 0.00190496 0)
(0.183316 0.0018707 0)
(0.182651 0.00183714 0)
(0.181982 0.00180426 0)
(0.181308 0.00177205 0)
(0.180629 0.00174049 0)
(0.179947 0.00170957 0)
(0.179261 0.00167929 0)
(0.178572 0.00164962 0)
(0.177879 0.00162056 0)
(0.177184 0.0015921 0)
(0.176485 0.00156422 0)
(0.175785 0.00153693 0)
(0.175082 0.00151021 0)
(0.174377 0.00148405 0)
(0.17367 0.00145846 0)
(0.172962 0.00143342 0)
(0.172252 0.00140892 0)
(0.171541 0.00138498 0)
(0.170829 0.00136158 0)
(0.170115 0.00133872 0)
(0.169401 0.00131641 0)
(0.168687 0.00129465 0)
(0.167972 0.00127344 0)
(0.167256 0.00125279 0)
(0.16654 0.00123273 0)
(0.165824 0.00121326 0)
(0.165107 0.00119444 0)
(0.16439 0.00117634 0)
(0.163674 0.00115907 0)
(0.162956 0.00114288 0)
(0.162239 0.00112831 0)
(0.161522 0.0011165 0)
(0.160808 0.00111003 0)
(0.160113 0.00111296 0)
(0.159288 0.001113 0)
(0.196686 0.00653669 0)
(0.197227 0.00717019 0)
(0.197869 0.00765537 0)
(0.198557 0.00799003 0)
(0.199253 0.00819007 0)
(0.19993 0.00827165 0)
(0.200571 0.00824939 0)
(0.201161 0.00813941 0)
(0.201689 0.00795961 0)
(0.202148 0.00772811 0)
(0.202537 0.00746188 0)
(0.202857 0.00717605 0)
(0.203113 0.00688336 0)
(0.203311 0.00659387 0)
(0.203459 0.00631488 0)
(0.203563 0.00605119 0)
(0.203631 0.00580543 0)
(0.20367 0.00557858 0)
(0.203684 0.0053704 0)
(0.203677 0.00517986 0)
(0.203654 0.00500551 0)
(0.203616 0.00484569 0)
(0.203565 0.00469874 0)
(0.203502 0.00456311 0)
(0.203428 0.00443736 0)
(0.203344 0.00432026 0)
(0.20325 0.00421075 0)
(0.203146 0.00410791 0)
(0.203031 0.00401098 0)
(0.202907 0.00391929 0)
(0.202773 0.00383231 0)
(0.202628 0.00374955 0)
(0.202473 0.00367062 0)
(0.202308 0.00359515 0)
(0.202133 0.00352285 0)
(0.201947 0.00345345 0)
(0.20175 0.0033867 0)
(0.201543 0.0033224 0)
(0.201326 0.00326036 0)
(0.201097 0.0032004 0)
(0.200858 0.00314238 0)
(0.200609 0.00308616 0)
(0.200349 0.00303161 0)
(0.200078 0.00297863 0)
(0.199796 0.00292711 0)
(0.199505 0.00287697 0)
(0.199202 0.00282812 0)
(0.19889 0.00278048 0)
(0.198567 0.002734 0)
(0.198233 0.0026886 0)
(0.19789 0.00264423 0)
(0.197537 0.00260084 0)
(0.197174 0.00255838 0)
(0.196801 0.00251681 0)
(0.196418 0.0024761 0)
(0.196027 0.0024362 0)
(0.195625 0.00239709 0)
(0.195215 0.00235873 0)
(0.194796 0.0023211 0)
(0.194368 0.00228417 0)
(0.193932 0.00224792 0)
(0.193487 0.00221233 0)
(0.193034 0.00217737 0)
(0.192573 0.00214304 0)
(0.192104 0.00210932 0)
(0.191627 0.00207619 0)
(0.191143 0.00204363 0)
(0.190652 0.00201164 0)
(0.190154 0.0019802 0)
(0.189649 0.00194931 0)
(0.189137 0.00191895 0)
(0.188619 0.00188911 0)
(0.188095 0.00185979 0)
(0.187564 0.00183098 0)
(0.187028 0.00180267 0)
(0.186486 0.00177486 0)
(0.185939 0.00174754 0)
(0.185387 0.00172071 0)
(0.184829 0.00169437 0)
(0.184266 0.00166851 0)
(0.183699 0.00164314 0)
(0.183128 0.00161824 0)
(0.182552 0.00159383 0)
(0.181971 0.0015699 0)
(0.181387 0.00154646 0)
(0.180799 0.00152352 0)
(0.180207 0.00150107 0)
(0.179611 0.00147914 0)
(0.179012 0.00145773 0)
(0.178409 0.00143687 0)
(0.177803 0.00141659 0)
(0.177194 0.00139692 0)
(0.176582 0.00137796 0)
(0.175967 0.00135982 0)
(0.175349 0.00134274 0)
(0.174728 0.00132717 0)
(0.174105 0.00131397 0)
(0.173484 0.00130454 0)
(0.172879 0.00129903 0)
(0.172158 0.00127771 0)
(0.197049 0.00628985 0)
(0.197524 0.00685338 0)
(0.198087 0.0072996 0)
(0.198699 0.00761998 0)
(0.199327 0.00782227 0)
(0.199945 0.00791815 0)
(0.200536 0.00791966 0)
(0.201086 0.00784032 0)
(0.201584 0.00769531 0)
(0.202024 0.00750029 0)
(0.202403 0.00727025 0)
(0.202723 0.00701872 0)
(0.202987 0.0067573 0)
(0.2032 0.00649538 0)
(0.203368 0.00624003 0)
(0.203497 0.00599612 0)
(0.203594 0.00576662 0)
(0.203664 0.00555296 0)
(0.203713 0.00535542 0)
(0.203744 0.0051735 0)
(0.203761 0.00500619 0)
(0.203767 0.00485225 0)
(0.203762 0.00471033 0)
(0.203749 0.00457911 0)
(0.203728 0.00445738 0)
(0.2037 0.00434402 0)
(0.203666 0.00423808 0)
(0.203626 0.0041387 0)
(0.203579 0.00404516 0)
(0.203527 0.00395685 0)
(0.203468 0.00387323 0)
(0.203403 0.00379383 0)
(0.203332 0.00371826 0)
(0.203255 0.00364618 0)
(0.203171 0.00357726 0)
(0.20308 0.00351126 0)
(0.202983 0.00344791 0)
(0.20288 0.00338702 0)
(0.202769 0.00332838 0)
(0.202651 0.00327182 0)
(0.202527 0.0032172 0)
(0.202395 0.00316435 0)
(0.202255 0.00311317 0)
(0.202108 0.00306353 0)
(0.201954 0.00301533 0)
(0.201792 0.00296847 0)
(0.201623 0.00292287 0)
(0.201445 0.00287844 0)
(0.20126 0.00283512 0)
(0.201067 0.00279283 0)
(0.200866 0.00275152 0)
(0.200657 0.00271114 0)
(0.20044 0.00267162 0)
(0.200215 0.00263294 0)
(0.199982 0.00259504 0)
(0.199741 0.00255789 0)
(0.199492 0.00252145 0)
(0.199235 0.00248569 0)
(0.19897 0.00245059 0)
(0.198697 0.00241611 0)
(0.198416 0.00238223 0)
(0.198127 0.00234893 0)
(0.19783 0.00231618 0)
(0.197526 0.00228398 0)
(0.197214 0.0022523 0)
(0.196894 0.00222112 0)
(0.196567 0.00219044 0)
(0.196232 0.00216024 0)
(0.19589 0.00213051 0)
(0.19554 0.00210124 0)
(0.195183 0.00207242 0)
(0.194819 0.00204405 0)
(0.194448 0.00201611 0)
(0.194071 0.0019886 0)
(0.193686 0.00196151 0)
(0.193294 0.00193484 0)
(0.192896 0.00190859 0)
(0.192492 0.00188275 0)
(0.19208 0.00185733 0)
(0.191663 0.00183232 0)
(0.19124 0.00180772 0)
(0.19081 0.00178353 0)
(0.190374 0.00175977 0)
(0.189933 0.00173642 0)
(0.189486 0.0017135 0)
(0.189033 0.00169102 0)
(0.188574 0.00166899 0)
(0.18811 0.00164742 0)
(0.187641 0.00162632 0)
(0.187166 0.00160573 0)
(0.186686 0.00158567 0)
(0.186201 0.0015662 0)
(0.185711 0.00154739 0)
(0.185215 0.00152936 0)
(0.184715 0.00151231 0)
(0.184211 0.00149658 0)
(0.183703 0.00148268 0)
(0.183195 0.00147087 0)
(0.182699 0.00145846 0)
(0.1821 0.0014225 0)
(0.197373 0.00606638 0)
(0.197794 0.00656911 0)
(0.198292 0.0069779 0)
(0.198838 0.00728163 0)
(0.199404 0.00748262 0)
(0.199968 0.00758864 0)
(0.200512 0.00760927 0)
(0.201022 0.00755572 0)
(0.20149 0.00744076 0)
(0.201908 0.00727783 0)
(0.202274 0.00708004 0)
(0.202587 0.00685944 0)
(0.202851 0.00662655 0)
(0.203068 0.00639005 0)
(0.203244 0.0061567 0)
(0.203385 0.00593135 0)
(0.203496 0.00571719 0)
(0.203582 0.00551601 0)
(0.203647 0.00532851 0)
(0.203696 0.00515461 0)
(0.203732 0.00499374 0)
(0.203757 0.00484499 0)
(0.203773 0.00470732 0)
(0.203782 0.00457967 0)
(0.203785 0.004461 0)
(0.203783 0.00435036 0)
(0.203775 0.00424688 0)
(0.203764 0.00414979 0)
(0.203748 0.00405844 0)
(0.203728 0.00397224 0)
(0.203705 0.00389068 0)
(0.203678 0.00381334 0)
(0.203647 0.00373981 0)
(0.203613 0.00366978 0)
(0.203574 0.00360293 0)
(0.203532 0.003539 0)
(0.203486 0.00347776 0)
(0.203437 0.00341899 0)
(0.203383 0.0033625 0)
(0.203325 0.00330812 0)
(0.203262 0.0032557 0)
(0.203195 0.00320509 0)
(0.203124 0.00315616 0)
(0.203048 0.00310879 0)
(0.202968 0.00306289 0)
(0.202882 0.00301834 0)
(0.202792 0.00297506 0)
(0.202697 0.00293297 0)
(0.202596 0.00289199 0)
(0.202491 0.00285206 0)
(0.202379 0.00281311 0)
(0.202263 0.00277508 0)
(0.202141 0.00273792 0)
(0.202013 0.00270158 0)
(0.201879 0.00266602 0)
(0.20174 0.00263119 0)
(0.201595 0.00259706 0)
(0.201443 0.0025636 0)
(0.201286 0.00253076 0)
(0.201123 0.00249852 0)
(0.200953 0.00246686 0)
(0.200777 0.00243575 0)
(0.200595 0.00240517 0)
(0.200407 0.00237509 0)
(0.200212 0.0023455 0)
(0.200011 0.00231638 0)
(0.199804 0.00228771 0)
(0.19959 0.00225949 0)
(0.19937 0.00223169 0)
(0.199144 0.00220431 0)
(0.198911 0.00217733 0)
(0.198671 0.00215075 0)
(0.198425 0.00212457 0)
(0.198173 0.00209876 0)
(0.197914 0.00207333 0)
(0.197649 0.00204827 0)
(0.197378 0.00202358 0)
(0.1971 0.00199925 0)
(0.196816 0.00197529 0)
(0.196525 0.00195169 0)
(0.196229 0.00192846 0)
(0.195926 0.0019056 0)
(0.195616 0.0018831 0)
(0.195301 0.00186098 0)
(0.19498 0.00183924 0)
(0.194652 0.0018179 0)
(0.194318 0.00179696 0)
(0.193978 0.00177644 0)
(0.193633 0.00175635 0)
(0.193281 0.00173673 0)
(0.192923 0.00171762 0)
(0.192559 0.00169904 0)
(0.192189 0.00168109 0)
(0.191814 0.00166386 0)
(0.191433 0.00164751 0)
(0.191046 0.00163225 0)
(0.190656 0.00161823 0)
(0.190264 0.00160482 0)
(0.18988 0.00158764 0)
(0.189405 0.00154404 0)
(0.197663 0.00586198 0)
(0.198041 0.00631203 0)
(0.198484 0.00668583 0)
(0.198972 0.00697181 0)
(0.199484 0.00716885 0)
(0.199997 0.00728162 0)
(0.200497 0.00731748 0)
(0.200971 0.00728558 0)
(0.201409 0.00719655 0)
(0.201804 0.00706187 0)
(0.202155 0.00689292 0)
(0.202459 0.00670036 0)
(0.202719 0.00649367 0)
(0.202937 0.00628084 0)
(0.203117 0.00606824 0)
(0.203265 0.00586064 0)
(0.203384 0.00566133 0)
(0.203479 0.00547237 0)
(0.203554 0.00529478 0)
(0.203613 0.00512886 0)
(0.20366 0.00497437 0)
(0.203695 0.00483074 0)
(0.203722 0.0046972 0)
(0.203742 0.00457292 0)
(0.203756 0.00445704 0)
(0.203765 0.00434876 0)
(0.20377 0.00424731 0)
(0.203771 0.00415202 0)
(0.203769 0.00406229 0)
(0.203764 0.00397759 0)
(0.203757 0.00389744 0)
(0.203747 0.00382143 0)
(0.203734 0.0037492 0)
(0.203719 0.00368043 0)
(0.203702 0.00361483 0)
(0.203682 0.00355214 0)
(0.20366 0.00349214 0)
(0.203636 0.00343463 0)
(0.203609 0.0033794 0)
(0.20358 0.00332631 0)
(0.203549 0.00327518 0)
(0.203515 0.00322589 0)
(0.203479 0.00317831 0)
(0.20344 0.00313232 0)
(0.203398 0.00308781 0)
(0.203353 0.00304469 0)
(0.203306 0.00300286 0)
(0.203255 0.00296225 0)
(0.203202 0.00292278 0)
(0.203145 0.00288437 0)
(0.203085 0.00284698 0)
(0.203022 0.00281052 0)
(0.202955 0.00277496 0)
(0.202885 0.00274024 0)
(0.202811 0.00270632 0)
(0.202734 0.00267314 0)
(0.202652 0.00264068 0)
(0.202567 0.00260889 0)
(0.202477 0.00257775 0)
(0.202384 0.00254721 0)
(0.202286 0.00251726 0)
(0.202184 0.00248786 0)
(0.202078 0.00245899 0)
(0.201967 0.00243063 0)
(0.201851 0.00240275 0)
(0.201732 0.00237535 0)
(0.201607 0.00234839 0)
(0.201477 0.00232187 0)
(0.201343 0.00229577 0)
(0.201204 0.00227008 0)
(0.20106 0.00224478 0)
(0.200911 0.00221986 0)
(0.200757 0.00219532 0)
(0.200598 0.00217115 0)
(0.200433 0.00214734 0)
(0.200264 0.00212388 0)
(0.200089 0.00210078 0)
(0.199908 0.00207801 0)
(0.199723 0.0020556 0)
(0.199532 0.00203352 0)
(0.199335 0.00201179 0)
(0.199134 0.0019904 0)
(0.198926 0.00196936 0)
(0.198713 0.00194867 0)
(0.198495 0.00192834 0)
(0.198271 0.00190839 0)
(0.198041 0.00188881 0)
(0.197806 0.00186963 0)
(0.197565 0.00185087 0)
(0.197318 0.00183255 0)
(0.197066 0.0018147 0)
(0.196808 0.00179738 0)
(0.196544 0.00178064 0)
(0.196275 0.00176458 0)
(0.196 0.00174928 0)
(0.195719 0.00173484 0)
(0.195435 0.00172111 0)
(0.195148 0.00170686 0)
(0.194865 0.00168708 0)