/*--------------------------------*- C++ -*----------------------------------*\
| =========                 |                                                 |
| \\      /  F ield         | OpenFOAM: The Open Source CFD Toolbox           |
|  \\    /   O peration     | Version:  2.3.0                                 |
|   \\  /    A nd           | Web:      www.OpenFOAM.org                      |
|    \\/     M anipulation  |                                                 |
\*---------------------------------------------------------------------------*/
FoamFile
{
    version     2.0;
    format      ascii;
    class       volVectorField;
    location    "0.3";
    object      U_0;
}
// * * * * * * * * * * * * * * * * * * * * * * * * * * * * * * * * * * * * * //

dimensions      [0 1 -1 0 0 0 0];

internalField   nonuniform List<vector> 
3375
(
(0.173032 0.00585765 0)
(0.156681 0.00597821 0)
(0.140943 0.00558451 0)
(0.125997 0.00500149 0)
(0.112269 0.00435122 0)
(0.0999382 0.00368806 0)
(0.0890171 0.00304955 0)
(0.0794713 0.0024618 0)
(0.0712459 0.0019407 0)
(0.0642576 0.00149436 0)
(0.0583949 0.00112474 0)
(0.053527 0.000828688 0)
(0.0495148 0.000599143 0)
(0.0462208 0.000426668 0)
(0.0435159 0.000300958 0)
(0.0412848 0.000212023 0)
(0.0394284 0.000150948 0)
(0.0378647 0.00011025 0)
(0.0365281 8.39436e-05 0)
(0.0353674 6.74371e-05 0)
(0.0343437 5.73418e-05 0)
(0.0334277 5.12529e-05 0)
(0.032598 4.75343e-05 0)
(0.0318387 4.51234e-05 0)
(0.0311382 4.33663e-05 0)
(0.0304878 4.1887e-05 0)
(0.0298811 4.04886e-05 0)
(0.0293128 3.9083e-05 0)
(0.028779 3.76441e-05 0)
(0.0282764 3.61766e-05 0)
(0.027802 3.46984e-05 0)
(0.0273534 3.32302e-05 0)
(0.0269286 3.17907e-05 0)
(0.0265255 3.03941e-05 0)
(0.0261425 2.90504e-05 0)
(0.0257781 2.77653e-05 0)
(0.0254309 2.65415e-05 0)
(0.0250997 2.5379e-05 0)
(0.0247833 2.42765e-05 0)
(0.0244809 2.32312e-05 0)
(0.0241915 2.224e-05 0)
(0.0239143 2.12993e-05 0)
(0.0236487 2.04054e-05 0)
(0.023394 1.95548e-05 0)
(0.0231497 1.87438e-05 0)
(0.0229153 1.79694e-05 0)
(0.0226903 1.72282e-05 0)
(0.0224744 1.65176e-05 0)
(0.0222673 1.58348e-05 0)
(0.0220686 1.51773e-05 0)
(0.0218781 1.45428e-05 0)
(0.0216956 1.39293e-05 0)
(0.021521 1.33349e-05 0)
(0.0213541 1.2758e-05 0)
(0.0211947 1.21978e-05 0)
(0.0210428 1.16535e-05 0)
(0.0208983 1.11246e-05 0)
(0.0207612 1.06107e-05 0)
(0.0206314 1.01105e-05 0)
(0.020509 9.62094e-06 0)
(0.0203939 9.13597e-06 0)
(0.0202864 8.64547e-06 0)
(0.0201865 8.13449e-06 0)
(0.0200947 7.58353e-06 0)
(0.0200111 6.9697e-06 0)
(0.0199365 6.26985e-06 0)
(0.0198713 5.465e-06 0)
(0.019816 4.54837e-06 0)
(0.0197714 3.53963e-06 0)
(0.0197376 2.50471e-06 0)
(0.0197147 1.54369e-06 0)
(0.0197027 7.57934e-07 0)
(0.0197006 7.37471e-08 0)
(0.0197052 -4.97201e-07 0)
(0.0197142 -8.9798e-07 0)
(0.0197261 -1.15584e-06 0)
(0.0197398 -1.28844e-06 0)
(0.0197543 -1.32446e-06 0)
(0.019769 -1.29512e-06 0)
(0.0197833 -1.22824e-06 0)
(0.019797 -1.13841e-06 0)
(0.0198098 -1.03869e-06 0)
(0.0198216 -9.36494e-07 0)
(0.0198325 -8.3714e-07 0)
(0.0198424 -7.44264e-07 0)
(0.0198513 -6.59627e-07 0)
(0.0198595 -5.84013e-07 0)
(0.0198668 -5.1737e-07 0)
(0.0198734 -4.5925e-07 0)
(0.0198794 -4.09154e-07 0)
(0.0198849 -3.66375e-07 0)
(0.0198898 -3.30274e-07 0)
(0.0198943 -3.00325e-07 0)
(0.0198985 -2.76178e-07 0)
(0.0199023 -2.57774e-07 0)
(0.0199058 -2.45715e-07 0)
(0.0199092 -2.42982e-07 0)
(0.0199125 -2.65687e-07 0)
(0.0199156 -4.13615e-07 0)
(0.0199272 -1.65502e-06 0)
(0.192062 0.00930836 0)
(0.189956 0.00986226 0)
(0.18626 0.00965312 0)
(0.181313 0.00916329 0)
(0.175616 0.0085375 0)
(0.16952 0.00782225 0)
(0.163246 0.00705545 0)
(0.156958 0.00627206 0)
(0.15079 0.00550121 0)
(0.144842 0.00476666 0)
(0.13918 0.00408701 0)
(0.133846 0.0034752 0)
(0.128859 0.0029382 0)
(0.124222 0.00247748 0)
(0.119929 0.00209 0)
(0.115963 0.00176944 0)
(0.112305 0.00150758 0)
(0.108932 0.00129546 0)
(0.105821 0.0011243 0)
(0.102948 0.000986073 0)
(0.100291 0.000873865 0)
(0.0978283 0.000781964 0)
(0.0955413 0.000705809 0)
(0.0934126 0.000641857 0)
(0.0914265 0.000587412 0)
(0.0895691 0.000540448 0)
(0.0878281 0.000499455 0)
(0.0861926 0.000463309 0)
(0.0846529 0.000431163 0)
(0.0832004 0.000402374 0)
(0.0818276 0.000376443 0)
(0.0805278 0.000352973 0)
(0.079295 0.000331642 0)
(0.0781239 0.000312185 0)
(0.0770097 0.000294375 0)
(0.0759483 0.000278021 0)
(0.0749358 0.000262956 0)
(0.073969 0.000249033 0)
(0.0730447 0.000236126 0)
(0.0721603 0.000224121 0)
(0.0713134 0.000212919 0)
(0.0705019 0.000202433 0)
(0.0697237 0.000192585 0)
(0.0689773 0.000183305 0)
(0.068261 0.000174531 0)
(0.0675736 0.000166208 0)
(0.0669139 0.000158287 0)
(0.0662809 0.000150723 0)
(0.0656736 0.000143475 0)
(0.0650914 0.000136508 0)
(0.0645335 0.000129787 0)
(0.0639994 0.000123284 0)
(0.0634888 0.00011697 0)
(0.0630013 0.000110822 0)
(0.0625366 0.000104818 0)
(0.0620947 9.89388e-05 0)
(0.0616754 9.31662e-05 0)
(0.0612788 8.74823e-05 0)
(0.060905 8.18672e-05 0)
(0.0605542 7.62965e-05 0)
(0.0602266 7.07386e-05 0)
(0.0599228 6.51533e-05 0)
(0.0596433 5.94926e-05 0)
(0.0593888 5.37041e-05 0)
(0.05916 4.77384e-05 0)
(0.0589577 4.15606e-05 0)
(0.0587827 3.51627e-05 0)
(0.0586355 2.8578e-05 0)
(0.0585163 2.18966e-05 0)
(0.0584245 1.52853e-05 0)
(0.0583592 8.97677e-06 0)
(0.0583184 3.24936e-06 0)
(0.0583004 -1.49844e-06 0)
(0.0583023 -4.73167e-06 0)
(0.0583168 -6.52605e-06 0)
(0.0583397 -7.51361e-06 0)
(0.0583678 -8.00804e-06 0)
(0.0583987 -8.13157e-06 0)
(0.0584309 -7.96767e-06 0)
(0.0584632 -7.60797e-06 0)
(0.0584946 -7.12036e-06 0)
(0.0585247 -6.57211e-06 0)
(0.0585532 -6.00635e-06 0)
(0.0585799 -5.4518e-06 0)
(0.0586047 -4.92625e-06 0)
(0.0586277 -4.43888e-06 0)
(0.0586489 -3.99368e-06 0)
(0.0586685 -3.59114e-06 0)
(0.0586865 -3.2298e-06 0)
(0.0587031 -2.90756e-06 0)
(0.0587183 -2.62169e-06 0)
(0.0587323 -2.36972e-06 0)
(0.0587451 -2.14969e-06 0)
(0.058757 -1.9607e-06 0)
(0.0587679 -1.80395e-06 0)
(0.0587781 -1.68553e-06 0)
(0.0587876 -1.62657e-06 0)
(0.0587968 -1.70559e-06 0)
(0.058806 -2.26407e-06 0)
(0.0588246 -4.99402e-06 0)
(0.195051 0.00881774 0)
(0.195996 0.00980045 0)
(0.196321 0.010146 0)
(0.195867 0.0101608 0)
(0.194744 0.00994897 0)
(0.193073 0.00954781 0)
(0.190942 0.00900111 0)
(0.188436 0.00835805 0)
(0.185643 0.00766357 0)
(0.182651 0.00695572 0)
(0.179533 0.00626516 0)
(0.176353 0.0056146 0)
(0.17316 0.0050187 0)
(0.169993 0.00448486 0)
(0.166881 0.00401452 0)
(0.163843 0.00360486 0)
(0.160891 0.00325042 0)
(0.158034 0.00294445 0)
(0.155275 0.00267999 0)
(0.152614 0.00245048 0)
(0.150051 0.00225013 0)
(0.147584 0.00207403 0)
(0.145209 0.00191818 0)
(0.142924 0.00177931 0)
(0.140727 0.00165484 0)
(0.138612 0.00154269 0)
(0.136578 0.00144118 0)
(0.13462 0.00134897 0)
(0.132736 0.00126492 0)
(0.130923 0.00118811 0)
(0.129177 0.00111774 0)
(0.127496 0.00105312 0)
(0.125876 0.000993656 0)
(0.124316 0.000938809 0)
(0.122812 0.000888116 0)
(0.121362 0.000841157 0)
(0.119964 0.000797559 0)
(0.118615 0.000756984 0)
(0.117314 0.000719131 0)
(0.116058 0.000683726 0)
(0.114847 0.000650526 0)
(0.113677 0.000619306 0)
(0.112547 0.000589867 0)
(0.111457 0.000562027 0)
(0.110405 0.000535619 0)
(0.109389 0.000510494 0)
(0.108409 0.000486513 0)
(0.107465 0.000463551 0)
(0.106554 0.000441493 0)
(0.105677 0.000420231 0)
(0.104833 0.00039967 0)
(0.104022 0.000379718 0)
(0.103244 0.000360295 0)
(0.102497 0.000341323 0)
(0.101784 0.000322735 0)
(0.101103 0.000304464 0)
(0.100454 0.000286452 0)
(0.0998386 0.000268637 0)
(0.0992567 0.000250958 0)
(0.0987088 0.000233347 0)
(0.0981956 0.000215729 0)
(0.097718 0.000198023 0)
(0.0972768 0.000180148 0)
(0.0968729 0.000162033 0)
(0.0965073 0.000143636 0)
(0.0961808 0.00012497 0)
(0.095894 0.000106126 0)
(0.0956469 8.72913e-05 0)
(0.095439 6.87596e-05 0)
(0.0952691 5.09151e-05 0)
(0.0951349 3.4193e-05 0)
(0.0950328 1.89987e-05 0)
(0.0949582 5.7679e-06 0)
(0.0949096 -4.89948e-06 0)
(0.0948892 -1.23571e-05 0)
(0.0948889 -1.67135e-05 0)
(0.0949024 -1.89284e-05 0)
(0.0949254 -1.9834e-05 0)
(0.0949547 -1.99233e-05 0)
(0.0949879 -1.94799e-05 0)
(0.0950233 -1.8658e-05 0)
(0.0950595 -1.76014e-05 0)
(0.0950956 -1.64181e-05 0)
(0.0951311 -1.51922e-05 0)
(0.0951655 -1.39816e-05 0)
(0.0951986 -1.28209e-05 0)
(0.0952303 -1.17288e-05 0)
(0.0952603 -1.07134e-05 0)
(0.0952888 -9.77674e-06 0)
(0.0953157 -8.91763e-06 0)
(0.0953411 -8.13319e-06 0)
(0.0953649 -7.42028e-06 0)
(0.0953873 -6.7766e-06 0)
(0.0954082 -6.20187e-06 0)
(0.0954279 -5.7008e-06 0)
(0.0954462 -5.28922e-06 0)
(0.0954635 -5.01499e-06 0)
(0.09548 -5.0302e-06 0)
(0.0954958 -5.87639e-06 0)
(0.0955187 -9.15469e-06 0)
(0.196101 0.00809294 0)
(0.197374 0.00915838 0)
(0.198562 0.00972116 0)
(0.199447 0.00996675 0)
(0.200005 0.00998181 0)
(0.200245 0.00979916 0)
(0.200164 0.00945378 0)
(0.199768 0.00898794 0)
(0.199078 0.00844292 0)
(0.198131 0.00785543 0)
(0.196965 0.00725668 0)
(0.195622 0.00667157 0)
(0.194141 0.00611804 0)
(0.192557 0.00560735 0)
(0.190901 0.00514491 0)
(0.189197 0.00473161 0)
(0.187464 0.00436522 0)
(0.185717 0.00404161 0)
(0.183967 0.00375579 0)
(0.182222 0.0035026 0)
(0.180488 0.0032772 0)
(0.178768 0.00307527 0)
(0.177065 0.00289314 0)
(0.175382 0.00272777 0)
(0.17372 0.00257668 0)
(0.172082 0.00243788 0)
(0.170467 0.00230978 0)
(0.168876 0.00219109 0)
(0.167312 0.00208076 0)
(0.165774 0.00197793 0)
(0.164262 0.00188187 0)
(0.162778 0.00179197 0)
(0.161322 0.00170769 0)
(0.159893 0.00162854 0)
(0.158492 0.0015541 0)
(0.15712 0.00148398 0)
(0.155776 0.00141782 0)
(0.15446 0.0013553 0)
(0.153172 0.00129612 0)
(0.151913 0.00123999 0)
(0.150682 0.00118666 0)
(0.149479 0.00113588 0)
(0.148304 0.00108744 0)
(0.147158 0.00104111 0)
(0.146039 0.000996698 0)
(0.144949 0.000954022 0)
(0.143887 0.000912905 0)
(0.142853 0.000873181 0)
(0.141848 0.000834696 0)
(0.140871 0.000797301 0)
(0.139924 0.000760859 0)
(0.139006 0.000725237 0)
(0.138119 0.000690314 0)
(0.137262 0.000655971 0)
(0.136436 0.000622099 0)
(0.135642 0.000588594 0)
(0.13488 0.000555354 0)
(0.134153 0.000522281 0)
(0.133459 0.000489272 0)
(0.132802 0.000456224 0)
(0.132181 0.00042303 0)
(0.131599 0.000389586 0)
(0.131056 0.000355803 0)
(0.130553 0.000321627 0)
(0.130093 0.000287067 0)
(0.129675 0.000252228 0)
(0.1293 0.000217342 0)
(0.128968 0.000182794 0)
(0.128678 0.00014913 0)
(0.12843 0.000117039 0)
(0.128221 8.73054e-05 0)
(0.128047 6.06763e-05 0)
(0.127905 3.75465e-05 0)
(0.127791 1.78329e-05 0)
(0.127698 1.62005e-06 0)
(0.127631 -1.09414e-05 0)
(0.12759 -1.9798e-05 0)
(0.12757 -2.52176e-05 0)
(0.127565 -2.81238e-05 0)
(0.127572 -2.93741e-05 0)
(0.127587 -2.9546e-05 0)
(0.127609 -2.90291e-05 0)
(0.127635 -2.80578e-05 0)
(0.127664 -2.68006e-05 0)
(0.127695 -2.53827e-05 0)
(0.127728 -2.38941e-05 0)
(0.127762 -2.23955e-05 0)
(0.127795 -2.09243e-05 0)
(0.127829 -1.95029e-05 0)
(0.127862 -1.81439e-05 0)
(0.127895 -1.68542e-05 0)
(0.127926 -1.56377e-05 0)
(0.127957 -1.44976e-05 0)
(0.127987 -1.3439e-05 0)
(0.128015 -1.24734e-05 0)
(0.128043 -1.16273e-05 0)
(0.128069 -1.0968e-05 0)
(0.128094 -1.06808e-05 0)
(0.128118 -1.13256e-05 0)
(0.128147 -1.42177e-05 0)
(0.196853 0.00751261 0)
(0.197973 0.00850498 0)
(0.199175 0.00910078 0)
(0.200287 0.00941479 0)
(0.201267 0.00952259 0)
(0.202099 0.00945564 0)
(0.20276 0.00924006 0)
(0.203229 0.0089077 0)
(0.203496 0.00849166 0)
(0.203567 0.00802281 0)
(0.203455 0.00752856 0)
(0.203177 0.00703194 0)
(0.202757 0.00655077 0)
(0.202218 0.00609735 0)
(0.20158 0.00567892 0)
(0.200863 0.00529851 0)
(0.200083 0.004956 0)
(0.199254 0.00464919 0)
(0.198387 0.0043747 0)
(0.197488 0.00412867 0)
(0.196565 0.00390722 0)
(0.195621 0.00370677 0)
(0.194661 0.0035242 0)
(0.193687 0.00335684 0)
(0.192702 0.00320249 0)
(0.191707 0.00305938 0)
(0.190704 0.00292605 0)
(0.189695 0.00280134 0)
(0.188682 0.0026843 0)
(0.187665 0.00257414 0)
(0.186647 0.00247021 0)
(0.185627 0.00237194 0)
(0.184609 0.00227885 0)
(0.183592 0.0021905 0)
(0.182577 0.00210652 0)
(0.181567 0.00202655 0)
(0.180561 0.00195027 0)
(0.179561 0.00187738 0)
(0.178568 0.00180761 0)
(0.177582 0.00174071 0)
(0.176604 0.00167643 0)
(0.175636 0.00161454 0)
(0.174677 0.00155483 0)
(0.17373 0.0014971 0)
(0.172794 0.00144116 0)
(0.171871 0.00138682 0)
(0.170961 0.0013339 0)
(0.170066 0.00128223 0)
(0.169185 0.00123166 0)
(0.168321 0.00118202 0)
(0.167474 0.00113316 0)
(0.166645 0.00108494 0)
(0.165836 0.00103721 0)
(0.165046 0.000989852 0)
(0.164278 0.000942723 0)
(0.163533 0.000895702 0)
(0.162812 0.000848664 0)
(0.162116 0.00080149 0)
(0.161448 0.000754055 0)
(0.160808 0.00070624 0)
(0.160197 0.000657928 0)
(0.159619 0.00060902 0)
(0.159073 0.000559451 0)
(0.158562 0.000509217 0)
(0.158087 0.00045841 0)
(0.157649 0.000407259 0)
(0.157249 0.000356158 0)
(0.156886 0.000305692 0)
(0.156561 0.000256631 0)
(0.156271 0.000209896 0)
(0.156017 0.000166477 0)
(0.155796 0.000127309 0)
(0.155605 9.30872e-05 0)
(0.155442 6.40469e-05 0)
(0.155303 3.96809e-05 0)
(0.155186 1.92826e-05 0)
(0.155084 2.70975e-06 0)
(0.155002 -1.02321e-05 0)
(0.154942 -1.98328e-05 0)
(0.154901 -2.63477e-05 0)
(0.154874 -3.04254e-05 0)
(0.15486 -3.27691e-05 0)
(0.154856 -3.39114e-05 0)
(0.15486 -3.42265e-05 0)
(0.154871 -3.39638e-05 0)
(0.154887 -3.32983e-05 0)
(0.154907 -3.23576e-05 0)
(0.154931 -3.12341e-05 0)
(0.154958 -2.99933e-05 0)
(0.154987 -2.86817e-05 0)
(0.155017 -2.73322e-05 0)
(0.155049 -2.59689e-05 0)
(0.155081 -2.46117e-05 0)
(0.155114 -2.32791e-05 0)
(0.155147 -2.19951e-05 0)
(0.15518 -2.07981e-05 0)
(0.155212 -1.97651e-05 0)
(0.155244 -1.90726e-05 0)
(0.155275 -1.91568e-05 0)
(0.155309 -2.07722e-05 0)
(0.197495 0.00700337 0)
(0.198436 0.0078854 0)
(0.199497 0.00846411 0)
(0.200553 0.0088011 0)
(0.201556 0.00895367 0)
(0.202487 0.00895062 0)
(0.203326 0.00881353 0)
(0.20405 0.00856791 0)
(0.204645 0.00824129 0)
(0.205107 0.00786003 0)
(0.205438 0.00744795 0)
(0.205645 0.00702551 0)
(0.20574 0.00660909 0)
(0.205736 0.00621063 0)
(0.205649 0.00583781 0)
(0.205491 0.00549463 0)
(0.205274 0.00518222 0)
(0.205009 0.00489966 0)
(0.204703 0.0046448 0)
(0.204363 0.00441478 0)
(0.203994 0.00420661 0)
(0.203599 0.00401733 0)
(0.203182 0.00384429 0)
(0.202744 0.00368517 0)
(0.202286 0.00353799 0)
(0.201811 0.00340113 0)
(0.201319 0.00327324 0)
(0.200812 0.00315322 0)
(0.200289 0.00304016 0)
(0.199753 0.00293332 0)
(0.199204 0.00283205 0)
(0.198643 0.00273583 0)
(0.198071 0.0026442 0)
(0.197489 0.00255674 0)
(0.196897 0.00247309 0)
(0.196297 0.00239292 0)
(0.195689 0.00231594 0)
(0.195074 0.00224187 0)
(0.194454 0.00217044 0)
(0.193828 0.00210142 0)
(0.193198 0.00203458 0)
(0.192564 0.00196971 0)
(0.191928 0.0019066 0)
(0.19129 0.00184505 0)
(0.190652 0.00178487 0)
(0.190014 0.00172589 0)
(0.189377 0.00166793 0)
(0.188742 0.00161082 0)
(0.18811 0.00155438 0)
(0.187483 0.00149847 0)
(0.186861 0.00144291 0)
(0.186245 0.00138756 0)
(0.185637 0.00133226 0)
(0.185038 0.00127688 0)
(0.184449 0.00122126 0)
(0.183871 0.00116528 0)
(0.183307 0.00110879 0)
(0.182757 0.00105166 0)
(0.182223 0.000993756 0)
(0.181706 0.000934961 0)
(0.181208 0.000875164 0)
(0.180732 0.000814287 0)
(0.180277 0.000752304 0)
(0.179846 0.000689277 0)
(0.179439 0.000625392 0)
(0.179058 0.000560996 0)
(0.178704 0.000496632 0)
(0.178377 0.000433049 0)
(0.178076 0.000371189 0)
(0.177802 0.000312133 0)
(0.177554 0.000256996 0)
(0.177331 0.000206796 0)
(0.177131 0.000162277 0)
(0.176954 0.000123749 0)
(0.176798 9.10578e-05 0)
(0.176662 6.38103e-05 0)
(0.176542 4.12374e-05 0)
(0.176438 2.24044e-05 0)
(0.176345 6.90319e-06 0)
(0.176264 -5.53505e-06 0)
(0.1762 -1.5255e-05 0)
(0.176149 -2.25169e-05 0)
(0.176111 -2.77227e-05 0)
(0.176083 -3.1362e-05 0)
(0.176065 -3.3837e-05 0)
(0.176055 -3.54382e-05 0)
(0.176053 -3.63707e-05 0)
(0.176056 -3.67858e-05 0)
(0.176065 -3.6798e-05 0)
(0.176079 -3.6495e-05 0)
(0.176096 -3.59441e-05 0)
(0.176117 -3.51974e-05 0)
(0.176141 -3.42976e-05 0)
(0.176167 -3.32826e-05 0)
(0.176196 -3.21916e-05 0)
(0.176226 -3.10745e-05 0)
(0.176257 -3.00088e-05 0)
(0.176288 -2.91302e-05 0)
(0.17632 -2.86667e-05 0)
(0.176355 -2.85723e-05 0)
(0.198059 0.00655662 0)
(0.198857 0.00733042 0)
(0.199776 0.00787543 0)
(0.200724 0.00821659 0)
(0.201656 0.00839227 0)
(0.202547 0.00842727 0)
(0.203379 0.00834068 0)
(0.204135 0.00815394 0)
(0.204802 0.00789053 0)
(0.205374 0.0075733 0)
(0.205849 0.00722312 0)
(0.206232 0.00685811 0)
(0.206531 0.0064931 0)
(0.206753 0.00613931 0)
(0.206911 0.00580438 0)
(0.207013 0.00549281 0)
(0.207068 0.00520651 0)
(0.207086 0.00494551 0)
(0.207071 0.00470854 0)
(0.20703 0.00449361 0)
(0.206966 0.00429839 0)
(0.206882 0.00412047 0)
(0.20678 0.00395761 0)
(0.206662 0.00380777 0)
(0.206528 0.00366919 0)
(0.206379 0.00354035 0)
(0.206216 0.00342 0)
(0.20604 0.00330708 0)
(0.20585 0.00320071 0)
(0.205647 0.00310016 0)
(0.205431 0.00300481 0)
(0.205203 0.00291413 0)
(0.204963 0.00282765 0)
(0.204711 0.00274498 0)
(0.204448 0.00266574 0)
(0.204175 0.00258961 0)
(0.20389 0.00251629 0)
(0.203596 0.0024455 0)
(0.203293 0.00237699 0)
(0.20298 0.00231052 0)
(0.202659 0.00224585 0)
(0.202329 0.00218277 0)
(0.201992 0.00212107 0)
(0.201649 0.00206055 0)
(0.201299 0.00200101 0)
(0.200943 0.00194228 0)
(0.200582 0.00188416 0)
(0.200217 0.00182647 0)
(0.199848 0.00176905 0)
(0.199477 0.00171171 0)
(0.199104 0.0016543 0)
(0.198729 0.00159664 0)
(0.198355 0.00153857 0)
(0.197981 0.00147994 0)
(0.197609 0.0014206 0)
(0.19724 0.00136038 0)
(0.196874 0.00129914 0)
(0.196515 0.00123675 0)
(0.196161 0.00117306 0)
(0.195815 0.00110795 0)
(0.195478 0.00104134 0)
(0.195151 0.000973164 0)
(0.194835 0.000903441 0)
(0.194532 0.000832294 0)
(0.194241 0.000759985 0)
(0.193965 0.000686957 0)
(0.193704 0.000613857 0)
(0.193457 0.000541542 0)
(0.193226 0.000471057 0)
(0.19301 0.000403564 0)
(0.192809 0.000340238 0)
(0.192624 0.000282122 0)
(0.192453 0.000229973 0)
(0.192298 0.000184148 0)
(0.192157 0.000144592 0)
(0.19203 0.000110951 0)
(0.191917 8.26536e-05 0)
(0.191816 5.91001e-05 0)
(0.191726 3.95679e-05 0)
(0.191646 2.31994e-05 0)
(0.191573 9.46853e-06 0)
(0.191508 -1.90955e-06 0)
(0.191453 -1.11854e-05 0)
(0.191407 -1.85755e-05 0)
(0.19137 -2.43668e-05 0)
(0.191341 -2.88835e-05 0)
(0.191319 -3.23863e-05 0)
(0.191303 -3.50678e-05 0)
(0.191294 -3.7074e-05 0)
(0.19129 -3.852e-05 0)
(0.191291 -3.94969e-05 0)
(0.191297 -4.00771e-05 0)
(0.191307 -4.03202e-05 0)
(0.19132 -4.0278e-05 0)
(0.191337 -4.00002e-05 0)
(0.191357 -3.95413e-05 0)
(0.191379 -3.89682e-05 0)
(0.191403 -3.83591e-05 0)
(0.191428 -3.77204e-05 0)
(0.191458 -3.62452e-05 0)
(0.198558 0.00615959 0)
(0.199246 0.00683454 0)
(0.200044 0.00733676 0)
(0.200887 0.00767002 0)
(0.201733 0.00785719 0)
(0.202555 0.00791793 0)
(0.203336 0.00786878 0)
(0.204061 0.00772768 0)
(0.204717 0.00751442 0)
(0.205299 0.00724871 0)
(0.205805 0.0069488 0)
(0.206239 0.00663078 0)
(0.206603 0.00630809 0)
(0.206907 0.00599121 0)
(0.207159 0.00568763 0)
(0.207365 0.00540215 0)
(0.207534 0.00513727 0)
(0.207673 0.00489374 0)
(0.207788 0.00467105 0)
(0.207882 0.00446793 0)
(0.20796 0.00428264 0)
(0.208024 0.0041133 0)
(0.208076 0.00395805 0)
(0.208117 0.00381513 0)
(0.208147 0.00368299 0)
(0.208169 0.00356026 0)
(0.208182 0.00344577 0)
(0.208185 0.00333853 0)
(0.20818 0.00323768 0)
(0.208166 0.00314252 0)
(0.208144 0.00305242 0)
(0.208113 0.00296685 0)
(0.208074 0.00288535 0)
(0.208026 0.0028075 0)
(0.20797 0.00273294 0)
(0.207906 0.00266132 0)
(0.207833 0.00259235 0)
(0.207752 0.00252574 0)
(0.207663 0.00246122 0)
(0.207566 0.00239853 0)
(0.207462 0.00233745 0)
(0.20735 0.00227775 0)
(0.20723 0.0022192 0)
(0.207104 0.00216161 0)
(0.20697 0.00210475 0)
(0.20683 0.00204844 0)
(0.206684 0.00199248 0)
(0.206532 0.00193668 0)
(0.206374 0.00188085 0)
(0.206211 0.00182481 0)
(0.206044 0.00176837 0)
(0.205872 0.00171136 0)
(0.205697 0.0016536 0)
(0.205518 0.00159492 0)
(0.205337 0.00153516 0)
(0.205154 0.00147414 0)
(0.20497 0.00141171 0)
(0.204785 0.00134773 0)
(0.204601 0.00128205 0)
(0.204417 0.00121456 0)
(0.204236 0.00114518 0)
(0.204056 0.00107388 0)
(0.20388 0.0010007 0)
(0.203707 0.00092581 0)
(0.203539 0.000849532 0)
(0.203375 0.000772359 0)
(0.203216 0.000694994 0)
(0.203063 0.000618342 0)
(0.202915 0.000543478 0)
(0.202773 0.000471579 0)
(0.202638 0.000403815 0)
(0.202509 0.000341215 0)
(0.202387 0.000284535 0)
(0.202272 0.000234159 0)
(0.202166 0.000190092 0)
(0.202068 0.000152055 0)
(0.201979 0.000119581 0)
(0.201897 9.21007e-05 0)
(0.201823 6.89654e-05 0)
(0.201757 4.95555e-05 0)
(0.201697 3.32694e-05 0)
(0.201642 1.94633e-05 0)
(0.201593 7.67683e-06 0)
(0.201548 -2.32937e-06 0)
(0.201509 -1.07227e-05 0)
(0.201475 -1.76938e-05 0)
(0.201447 -2.34705e-05 0)
(0.201424 -2.82546e-05 0)
(0.201405 -3.2203e-05 0)
(0.201391 -3.54396e-05 0)
(0.201381 -3.80639e-05 0)
(0.201376 -4.01556e-05 0)
(0.201374 -4.17796e-05 0)
(0.201376 -4.29915e-05 0)
(0.201381 -4.38419e-05 0)
(0.201389 -4.43801e-05 0)
(0.2014 -4.4654e-05 0)
(0.201414 -4.46832e-05 0)
(0.201429 -4.4306e-05 0)
(0.201449 -4.23062e-05 0)
(0.199 0.00579897 0)
(0.199604 0.00638623 0)
(0.200302 0.00684222 0)
(0.201051 0.00716024 0)
(0.201815 0.00735176 0)
(0.202567 0.00743098 0)
(0.203291 0.00741145 0)
(0.20397 0.00730796 0)
(0.204595 0.00713695 0)
(0.205159 0.00691522 0)
(0.205661 0.00665865 0)
(0.206101 0.00638147 0)
(0.206483 0.00609581 0)
(0.206813 0.0058114 0)
(0.207098 0.0055355 0)
(0.207344 0.00527303 0)
(0.207558 0.00502694 0)
(0.207746 0.00479855 0)
(0.207912 0.00458799 0)
(0.208063 0.00439459 0)
(0.208199 0.0042172 0)
(0.208326 0.00405439 0)
(0.208443 0.00390467 0)
(0.208553 0.00376661 0)
(0.208657 0.00363885 0)
(0.208754 0.00352018 0)
(0.208847 0.00340955 0)
(0.208934 0.00330603 0)
(0.209017 0.00320883 0)
(0.209094 0.00311726 0)
(0.209167 0.00303071 0)
(0.209235 0.00294866 0)
(0.209298 0.00287065 0)
(0.209356 0.00279628 0)
(0.209409 0.00272516 0)
(0.209457 0.00265695 0)
(0.209499 0.00259136 0)
(0.209537 0.00252807 0)
(0.20957 0.00246683 0)
(0.209598 0.00240738 0)
(0.20962 0.00234946 0)
(0.209637 0.00229285 0)
(0.209649 0.00223731 0)
(0.209656 0.00218264 0)
(0.209657 0.00212861 0)
(0.209654 0.00207502 0)
(0.209645 0.00202167 0)
(0.209632 0.00196835 0)
(0.209613 0.00191486 0)
(0.20959 0.00186101 0)
(0.209563 0.0018066 0)
(0.20953 0.00175146 0)
(0.209494 0.00169538 0)
(0.209453 0.00163819 0)
(0.209409 0.00157971 0)
(0.209361 0.00151977 0)
(0.20931 0.0014582 0)
(0.209255 0.00139485 0)
(0.209198 0.00132959 0)
(0.209139 0.0012623 0)
(0.209077 0.00119291 0)
(0.209013 0.00112141 0)
(0.208947 0.00104787 0)
(0.20888 0.000972489 0)
(0.208811 0.000895605 0)
(0.208741 0.000817737 0)
(0.208669 0.000739596 0)
(0.208596 0.000662081 0)
(0.208523 0.000586246 0)
(0.208448 0.000513225 0)
(0.208374 0.000444139 0)
(0.208299 0.000379971 0)
(0.208227 0.000321455 0)
(0.208156 0.000268988 0)
(0.208088 0.000222634 0)
(0.208024 0.000182184 0)
(0.207963 0.000147242 0)
(0.207907 0.0001173 0)
(0.207856 9.17938e-05 0)
(0.207809 7.01507e-05 0)
(0.207766 5.18057e-05 0)
(0.207726 3.62337e-05 0)
(0.207691 2.29562e-05 0)
(0.207658 1.1526e-05 0)
(0.207628 1.64539e-06 0)
(0.207601 -6.8504e-06 0)
(0.207577 -1.4123e-05 0)
(0.207556 -2.03473e-05 0)
(0.207537 -2.56773e-05 0)
(0.207522 -3.02371e-05 0)
(0.207509 -3.41268e-05 0)
(0.207499 -3.74263e-05 0)
(0.207492 -4.02004e-05 0)
(0.207488 -4.25024e-05 0)
(0.207486 -4.43784e-05 0)
(0.207486 -4.58683e-05 0)
(0.207489 -4.69988e-05 0)
(0.207493 -4.77452e-05 0)
(0.2075 -4.78663e-05 0)
(0.207511 -4.61783e-05 0)
(0.199394 0.00546567 0)
(0.199931 0.00597667 0)
(0.200548 0.00638685 0)
(0.201215 0.00668527 0)
(0.201904 0.0068758 0)
(0.202591 0.00696768 0)
(0.203258 0.00697148 0)
(0.203892 0.00689916 0)
(0.204481 0.00676425 0)
(0.205021 0.00658085 0)
(0.205508 0.00636264 0)
(0.205942 0.00612212 0)
(0.206326 0.00587013 0)
(0.206664 0.00561562 0)
(0.206961 0.00536547 0)
(0.207224 0.00512464 0)
(0.207457 0.00489634 0)
(0.207666 0.00468232 0)
(0.207855 0.00448325 0)
(0.208029 0.00429898 0)
(0.208191 0.00412884 0)
(0.208343 0.00397185 0)
(0.208487 0.00382687 0)
(0.208626 0.00369274 0)
(0.208759 0.00356836 0)
(0.208888 0.00345267 0)
(0.209013 0.00334474 0)
(0.209135 0.00324374 0)
(0.209254 0.00314893 0)
(0.20937 0.00305966 0)
(0.209483 0.00297538 0)
(0.209594 0.00289557 0)
(0.209702 0.00281978 0)
(0.209807 0.00274762 0)
(0.20991 0.00267872 0)
(0.21001 0.00261274 0)
(0.210107 0.00254936 0)
(0.210202 0.00248831 0)
(0.210293 0.00242931 0)
(0.210382 0.00237209 0)
(0.210467 0.00231642 0)
(0.21055 0.00226205 0)
(0.210629 0.00220876 0)
(0.210706 0.00215632 0)
(0.210779 0.00210451 0)
(0.210848 0.00205313 0)
(0.210915 0.00200196 0)
(0.210978 0.0019508 0)
(0.211038 0.00189945 0)
(0.211094 0.0018477 0)
(0.211146 0.00179536 0)
(0.211195 0.00174223 0)
(0.211241 0.00168812 0)
(0.211283 0.00163284 0)
(0.211321 0.00157621 0)
(0.211356 0.00151805 0)
(0.211387 0.00145821 0)
(0.211414 0.00139652 0)
(0.211437 0.00133286 0)
(0.211457 0.00126711 0)
(0.211473 0.00119923 0)
(0.211485 0.00112922 0)
(0.211492 0.00105716 0)
(0.211496 0.000983259 0)
(0.211495 0.000907866 0)
(0.211489 0.000831493 0)
(0.211479 0.00075483 0)
(0.211463 0.000678735 0)
(0.211443 0.000604199 0)
(0.211419 0.000532283 0)
(0.211391 0.000464028 0)
(0.211359 0.000400351 0)
(0.211325 0.000341945 0)
(0.21129 0.000289212 0)
(0.211254 0.000242257 0)
(0.211219 0.000200935 0)
(0.211184 0.000164922 0)
(0.211151 0.000133779 0)
(0.21112 0.000107004 0)
(0.211091 8.40745e-05 0)
(0.211065 6.44801e-05 0)
(0.21104 4.77402e-05 0)
(0.211017 3.3411e-05 0)
(0.210997 2.109e-05 0)
(0.210978 1.04215e-05 0)
(0.21096 1.13714e-06 0)
(0.210944 -6.93898e-06 0)
(0.210929 -1.39613e-05 0)
(0.210915 -2.00771e-05 0)
(0.210904 -2.54102e-05 0)
(0.210893 -3.0061e-05 0)
(0.210884 -3.41093e-05 0)
(0.210877 -3.76195e-05 0)
(0.210871 -4.06429e-05 0)
(0.210866 -4.32214e-05 0)
(0.210863 -4.53865e-05 0)
(0.210861 -4.71498e-05 0)
(0.210861 -4.84637e-05 0)
(0.210862 -4.90899e-05 0)
(0.210866 -4.81629e-05 0)
(0.199746 0.00515347 0)
(0.200229 0.00559876 0)
(0.200779 0.00596555 0)
(0.201376 0.00624201 0)
(0.201999 0.00642745 0)
(0.202626 0.00652716 0)
(0.20324 0.00654894 0)
(0.203829 0.00650227 0)
(0.204384 0.0063981 0)
(0.204898 0.00624818 0)
(0.205367 0.00606411 0)
(0.205791 0.00585674 0)
(0.206171 0.0056357 0)
(0.206511 0.00540908 0)
(0.206814 0.00518336 0)
(0.207085 0.00496338 0)
(0.207328 0.00475249 0)
(0.207549 0.00455276 0)
(0.207751 0.00436525 0)
(0.207937 0.00419025 0)
(0.208112 0.00402751 0)
(0.208277 0.00387643 0)
(0.208434 0.00373621 0)
(0.208585 0.00360597 0)
(0.208731 0.0034848 0)
(0.208874 0.00337184 0)
(0.209013 0.00326628 0)
(0.209149 0.00316739 0)
(0.209283 0.0030745 0)
(0.209414 0.00298702 0)
(0.209544 0.00290442 0)
(0.209671 0.00282622 0)
(0.209798 0.00275201 0)
(0.209922 0.00268139 0)
(0.210045 0.002614 0)
(0.210166 0.00254953 0)
(0.210285 0.00248766 0)
(0.210403 0.00242812 0)
(0.21052 0.00237062 0)
(0.210634 0.00231493 0)
(0.210747 0.0022608 0)
(0.210859 0.00220798 0)
(0.210968 0.00215626 0)
(0.211076 0.00210541 0)
(0.211181 0.00205522 0)
(0.211285 0.00200547 0)
(0.211386 0.00195596 0)
(0.211486 0.00190648 0)
(0.211583 0.00185683 0)
(0.211678 0.00180681 0)
(0.21177 0.00175622 0)
(0.211859 0.00170486 0)
(0.211946 0.00165256 0)
(0.21203 0.00159911 0)
(0.212111 0.00154434 0)
(0.212189 0.00148809 0)
(0.212263 0.00143018 0)
(0.212334 0.00137047 0)
(0.212401 0.00130884 0)
(0.212464 0.0012452 0)
(0.212523 0.00117949 0)
(0.212577 0.00111175 0)
(0.212627 0.00104205 0)
(0.212671 0.000970627 0)
(0.212709 0.000897806 0)
(0.212741 0.000824085 0)
(0.212768 0.000750113 0)
(0.212788 0.000676687 0)
(0.212801 0.000604719 0)
(0.212808 0.000535178 0)
(0.21281 0.000469012 0)
(0.212806 0.00040706 0)
(0.212799 0.000349965 0)
(0.212788 0.000298122 0)
(0.212774 0.000251666 0)
(0.212759 0.000210505 0)
(0.212744 0.00017438 0)
(0.212728 0.000142918 0)
(0.212712 0.000115676 0)
(0.212697 9.21885e-05 0)
(0.212682 7.19903e-05 0)
(0.212669 5.46379e-05 0)
(0.212657 3.97218e-05 0)
(0.212645 2.68706e-05 0)
(0.212635 1.57515e-05 0)
(0.212625 6.07565e-06 0)
(0.212615 -2.37718e-06 0)
(0.212607 -9.77401e-06 0)
(0.212599 -1.62609e-05 0)
(0.212591 -2.19629e-05 0)
(0.212584 -2.69823e-05 0)
(0.212578 -3.14008e-05 0)
(0.212572 -3.52839e-05 0)
(0.212567 -3.86832e-05 0)
(0.212563 -4.16388e-05 0)
(0.212559 -4.41776e-05 0)
(0.212556 -4.63043e-05 0)
(0.212554 -4.79691e-05 0)
(0.212552 -4.89869e-05 0)
(0.212552 -4.88728e-05 0)
(0.200062 0.00485795 0)
(0.200501 0.00524673 0)
(0.200995 0.00557351 0)
(0.201532 0.00582717 0)
(0.202096 0.00600462 0)
(0.202668 0.00610823 0)
(0.203234 0.00614344 0)
(0.203782 0.00611757 0)
(0.204303 0.00603936 0)
(0.20479 0.00591845 0)
(0.205241 0.00576459 0)
(0.205653 0.00558709 0)
(0.206027 0.0053944 0)
(0.206366 0.0051938 0)
(0.206671 0.00499125 0)
(0.206947 0.0047914 0)
(0.207197 0.00459763 0)
(0.207426 0.00441222 0)
(0.207637 0.00423652 0)
(0.207832 0.00407116 0)
(0.208016 0.00391624 0)
(0.208189 0.0037715 0)
(0.208355 0.00363643 0)
(0.208514 0.0035104 0)
(0.208667 0.00339272 0)
(0.208817 0.00328269 0)
(0.208963 0.00317963 0)
(0.209106 0.00308291 0)
(0.209247 0.00299194 0)
(0.209386 0.0029062 0)
(0.209522 0.00282519 0)
(0.209657 0.00274848 0)
(0.209791 0.00267566 0)
(0.209923 0.00260637 0)
(0.210054 0.00254027 0)
(0.210183 0.00247704 0)
(0.210311 0.00241639 0)
(0.210438 0.00235805 0)
(0.210564 0.00230176 0)
(0.210689 0.00224726 0)
(0.210813 0.00219432 0)
(0.210935 0.00214271 0)
(0.211057 0.00209221 0)
(0.211177 0.00204259 0)
(0.211295 0.00199366 0)
(0.211412 0.0019452 0)
(0.211528 0.001897 0)
(0.211642 0.00184888 0)
(0.211755 0.00180062 0)
(0.211866 0.00175204 0)
(0.211975 0.00170294 0)
(0.212082 0.00165313 0)
(0.212186 0.00160243 0)
(0.212289 0.00155065 0)
(0.212388 0.00149764 0)
(0.212486 0.00144321 0)
(0.21258 0.00138722 0)
(0.21267 0.00132953 0)
(0.212758 0.00127004 0)
(0.212841 0.00120866 0)
(0.21292 0.00114536 0)
(0.212995 0.00108017 0)
(0.213064 0.0010132 0)
(0.213128 0.000944652 0)
(0.213187 0.000874862 0)
(0.213238 0.000804291 0)
(0.213284 0.000733543 0)
(0.213322 0.000663348 0)
(0.213354 0.000594531 0)
(0.213379 0.000527966 0)
(0.213397 0.000464506 0)
(0.21341 0.00040491 0)
(0.213418 0.000349767 0)
(0.213422 0.000299456 0)
(0.213422 0.00025413 0)
(0.21342 0.000213743 0)
(0.213416 0.000178091 0)
(0.213411 0.000146858 0)
(0.213405 0.000119664 0)
(0.213399 9.60917e-05 0)
(0.213393 7.57214e-05 0)