/*--------------------------------*- C++ -*----------------------------------*\
| =========                 |                                                 |
| \\      /  F ield         | OpenFOAM: The Open Source CFD Toolbox           |
|  \\    /   O peration     | Version:  2.3.0                                 |
|   \\  /    A nd           | Web:      www.OpenFOAM.org                      |
|    \\/     M anipulation  |                                                 |
\*---------------------------------------------------------------------------*/
FoamFile
{
    version     2.0;
    format      ascii;
    class       volVectorField;
    location    "0.35";
    object      U;
}
// * * * * * * * * * * * * * * * * * * * * * * * * * * * * * * * * * * * * * //

dimensions      [0 1 -1 0 0 0 0];

internalField   nonuniform List<vector> 
3105
(
(0.176817 0.00434427 0)
(0.156108 0.00594949 0)
(0.137413 0.00612085 0)
(0.119282 0.00552894 0)
(0.101799 0.00472983 0)
(0.0857592 0.00384756 0)
(0.0722014 0.00288916 0)
(0.0615438 0.00187675 0)
(0.053616 0.00098858 0)
(0.0478942 0.000380521 0)
(0.043813 5.34664e-05 0)
(0.0408987 -8.12148e-05 0)
(0.0387696 -0.000107694 0)
(0.0371408 -8.31563e-05 0)
(0.0358091 -3.98546e-05 0)
(0.0346454 3.21952e-06 0)
(0.0335785 3.66596e-05 0)
(0.0325752 5.82703e-05 0)
(0.0316242 6.97201e-05 0)
(0.0307239 7.38971e-05 0)
(0.0298754 7.35275e-05 0)
(0.0290792 7.06803e-05 0)
(0.0283343 6.67203e-05 0)
(0.0276382 6.24478e-05 0)
(0.0269877 5.82813e-05 0)
(0.026379 5.43998e-05 0)
(0.0258083 5.08521e-05 0)
(0.0252721 4.76327e-05 0)
(0.0247673 4.47208e-05 0)
(0.0242908 4.20854e-05 0)
(0.0238402 3.968e-05 0)
(0.0234132 3.74591e-05 0)
(0.023008 3.53937e-05 0)
(0.022623 3.34738e-05 0)
(0.0222568 3.16948e-05 0)
(0.0219081 3.00411e-05 0)
(0.0215757 2.84852e-05 0)
(0.0212587 2.70077e-05 0)
(0.0209563 2.56025e-05 0)
(0.0206678 2.42754e-05 0)
(0.0203924 2.30291e-05 0)
(0.0201294 2.18565e-05 0)
(0.0198782 2.07414e-05 0)
(0.0196384 1.96723e-05 0)
(0.0194094 1.86468e-05 0)
(0.0191908 1.76777e-05 0)
(0.0189823 1.67688e-05 0)
(0.0187833 1.59111e-05 0)
(0.0185934 1.50865e-05 0)
(0.0184125 1.42835e-05 0)
(0.0182403 1.34955e-05 0)
(0.0180766 1.27354e-05 0)
(0.0179213 1.20092e-05 0)
(0.017774 1.13181e-05 0)
(0.0176345 1.06582e-05 0)
(0.0175027 1.00351e-05 0)
(0.0173782 9.43649e-06 0)
(0.017261 8.85573e-06 0)
(0.017151 8.27884e-06 0)
(0.017048 7.70337e-06 0)
(0.0169523 7.11397e-06 0)
(0.0168637 6.51922e-06 0)
(0.0167824 5.92232e-06 0)
(0.0167082 5.35537e-06 0)
(0.016641 4.82396e-06 0)
(0.0165802 4.33851e-06 0)
(0.0165259 3.85773e-06 0)
(0.0164779 3.36392e-06 0)
(0.0164363 2.81041e-06 0)
(0.0164013 2.2166e-06 0)
(0.0163731 1.59145e-06 0)
(0.0163514 1.02622e-06 0)
(0.0163362 5.34251e-07 0)
(0.0163266 1.42212e-07 0)
(0.0163227 -1.85325e-07 0)
(0.0163235 -7.02264e-07 0)
(0.0163288 -1.05335e-06 0)
(0.0163374 -1.3677e-06 0)
(0.016349 -1.60833e-06 0)
(0.0163621 -1.73652e-06 0)
(0.0163765 -1.78992e-06 0)
(0.0163907 -1.73684e-06 0)
(0.0164048 -1.63701e-06 0)
(0.0164175 -1.46913e-06 0)
(0.0164294 -1.31239e-06 0)
(0.0164395 -1.11628e-06 0)
(0.0164488 -9.85064e-07 0)
(0.0164565 -8.17166e-07 0)
(0.0164637 -7.49487e-07 0)
(0.0164697 -6.22872e-07 0)
(0.0164757 -6.06228e-07 0)
(0.0164805 -4.99256e-07 0)
(0.0164856 -4.96065e-07 0)
(0.0164896 -3.82498e-07 0)
(0.0164936 -3.70347e-07 0)
(0.0164965 -2.4782e-07 0)
(0.0164992 -2.36477e-07 0)
(0.0165011 -1.2978e-07 0)
(0.0165026 -1.33412e-07 0)
(0.0165041 -8.12305e-08 0)
(0.192294 0.00771087 0)
(0.190419 0.0107965 0)
(0.187844 0.0118817 0)
(0.183988 0.0117239 0)
(0.178557 0.0110894 0)
(0.171725 0.0102003 0)
(0.164109 0.00905472 0)
(0.156199 0.00764809 0)
(0.14838 0.00613035 0)
(0.140882 0.00471894 0)
(0.133839 0.00355649 0)
(0.127353 0.00267486 0)
(0.121467 0.00204007 0)
(0.116189 0.00160503 0)
(0.111474 0.00131812 0)
(0.107254 0.00113072 0)
(0.103454 0.00100395 0)
(0.100012 0.000911255 0)
(0.0968727 0.000836834 0)
(0.0939932 0.00077238 0)
(0.0913391 0.000714123 0)
(0.0888828 0.000660661 0)
(0.0866013 0.000611591 0)
(0.0844754 0.000566802 0)
(0.082489 0.000526167 0)
(0.0806278 0.000489441 0)
(0.0788796 0.000456287 0)
(0.0772338 0.000426352 0)
(0.0756811 0.000399305 0)
(0.0742134 0.000374804 0)
(0.0728234 0.00035248 0)
(0.071505 0.000331998 0)
(0.0702528 0.00031311 0)
(0.069062 0.000295649 0)
(0.0679285 0.000279477 0)
(0.0668483 0.000264442 0)
(0.0658181 0.000250376 0)
(0.0648351 0.000237146 0)
(0.0638965 0.000224669 0)
(0.0630001 0.000212916 0)
(0.0621436 0.000201853 0)
(0.0613249 0.000191415 0)
(0.0605424 0.00018151 0)
(0.0597943 0.000172072 0)
(0.0590794 0.000163067 0)
(0.0583962 0.000154508 0)
(0.0577435 0.00014638 0)
(0.0571201 0.000138635 0)
(0.0565251 0.000131199 0)
(0.0559575 0.000124022 0)
(0.0554168 0.000117067 0)
(0.0549022 0.00011036 0)
(0.054413 0.000103906 0)
(0.0539486 9.76953e-05 0)
(0.0535084 9.17026e-05 0)
(0.0530919 8.5936e-05 0)
(0.0526987 8.03495e-05 0)
(0.0523282 7.4917e-05 0)
(0.0519805 6.95898e-05 0)
(0.0516551 6.43588e-05 0)
(0.0513521 5.91742e-05 0)
(0.0510711 5.40645e-05 0)
(0.0508123 4.904e-05 0)
(0.050575 4.42051e-05 0)
(0.050359 3.95793e-05 0)
(0.0501635 3.52011e-05 0)
(0.0499884 3.09438e-05 0)
(0.0498329 2.67648e-05 0)
(0.0496976 2.25304e-05 0)
(0.0495816 1.83212e-05 0)
(0.0494854 1.41597e-05 0)
(0.0494073 1.02958e-05 0)
(0.0493472 6.75137e-06 0)
(0.0493027 3.66819e-06 0)
(0.0492734 9.45784e-07 0)
(0.0492565 -1.56782e-06 0)
(0.0492515 -3.86747e-06 0)
(0.0492546 -5.53623e-06 0)
(0.0492655 -6.67496e-06 0)
(0.0492801 -7.22058e-06 0)
(0.0492985 -7.41194e-06 0)
(0.0493169 -7.18076e-06 0)
(0.0493362 -6.75415e-06 0)
(0.0493531 -6.07925e-06 0)
(0.0493697 -5.44608e-06 0)
(0.0493831 -4.69137e-06 0)
(0.0493963 -4.17418e-06 0)
(0.0494063 -3.54689e-06 0)
(0.049417 -3.27019e-06 0)
(0.0494249 -2.7958e-06 0)
(0.0494341 -2.70039e-06 0)
(0.0494406 -2.28638e-06 0)
(0.0494487 -2.23852e-06 0)
(0.0494539 -1.79132e-06 0)
(0.0494607 -1.71802e-06 0)
(0.0494643 -1.23256e-06 0)
(0.0494693 -1.16461e-06 0)
(0.0494714 -7.17322e-07 0)
(0.0494744 -7.1396e-07 0)
(0.0494761 -4.01233e-07 0)
(0.193264 0.00742672 0)
(0.193623 0.010025 0)
(0.194616 0.0116137 0)
(0.195662 0.0121254 0)
(0.196109 0.0120244 0)
(0.195625 0.0115881 0)
(0.194215 0.0108573 0)
(0.191999 0.00985278 0)
(0.189136 0.0086789 0)
(0.185787 0.00749948 0)
(0.182098 0.0064468 0)
(0.178219 0.00557539 0)
(0.17427 0.00487512 0)
(0.17035 0.00431752 0)
(0.16651 0.00386985 0)
(0.162772 0.00350278 0)
(0.159146 0.00319346 0)
(0.155636 0.00292581 0)
(0.152242 0.0026893 0)
(0.148966 0.00247736 0)
(0.145806 0.00228597 0)
(0.142764 0.00211266 0)
(0.139839 0.0019557 0)
(0.13703 0.0018137 0)
(0.134336 0.00168536 0)
(0.131753 0.00156937 0)
(0.12928 0.00146443 0)
(0.126911 0.00136933 0)
(0.124643 0.00128298 0)
(0.12247 0.00120441 0)
(0.12039 0.00113263 0)
(0.118397 0.00106675 0)
(0.116487 0.00100601 0)
(0.114656 0.000949868 0)
(0.112901 0.000897885 0)
(0.111217 0.000849612 0)
(0.109601 0.000804567 0)
(0.10805 0.000762345 0)
(0.106561 0.00072265 0)
(0.105131 0.000685298 0)
(0.103759 0.000650132 0)
(0.102441 0.000616954 0)
(0.101175 0.000585509 0)
(0.0999595 0.000555589 0)
(0.0987929 0.000527073 0)
(0.0976733 0.000499938 0)
(0.0965993 0.000474114 0)
(0.0955694 0.000449454 0)
(0.0945824 0.000425772 0)
(0.0936371 0.000402939 0)
(0.0927327 0.000380872 0)
(0.0918682 0.000359589 0)
(0.091043 0.000339072 0)
(0.0902561 0.000319278 0)
(0.089507 0.000300134 0)
(0.0887948 0.000281622 0)
(0.0881193 0.000263639 0)
(0.0874796 0.000246127 0)
(0.0868759 0.000228994 0)
(0.0863074 0.000212219 0)
(0.0857743 0.000195716 0)
(0.085276 0.000179537 0)
(0.0848128 0.000163701 0)
(0.0843836 0.000148389 0)
(0.0839888 0.000133637 0)
(0.0836265 0.000119515 0)
(0.0832975 0.00010581 0)
(0.0829998 9.24668e-05 0)
(0.0827345 7.92834e-05 0)
(0.0824997 6.64457e-05 0)
(0.0822963 5.40226e-05 0)
(0.0821213 4.24303e-05 0)
(0.0819752 3.16845e-05 0)
(0.0818537 2.20612e-05 0)
(0.0817572 1.34542e-05 0)
(0.0816804 6.19954e-06 0)
(0.0816239 -1.28772e-07 0)
(0.0815815 -4.85986e-06 0)
(0.0815537 -8.47198e-06 0)
(0.0815338 -1.07334e-05 0)
(0.081523 -1.1842e-05 0)
(0.0815147 -1.1882e-05 0)
(0.0815116 -1.1377e-05 0)
(0.0815074 -1.03026e-05 0)
(0.0815063 -9.24454e-06 0)
(0.0815021 -7.93978e-06 0)
(0.0815011 -7.06816e-06 0)
(0.0814963 -5.99888e-06 0)
(0.0814954 -5.5797e-06 0)
(0.0814905 -4.79003e-06 0)
(0.0814906 -4.699e-06 0)
(0.0814858 -3.99412e-06 0)
(0.0814871 -3.96848e-06 0)
(0.0814823 -3.16951e-06 0)
(0.0814842 -3.06793e-06 0)
(0.0814785 -2.17669e-06 0)
(0.0814805 -2.05875e-06 0)
(0.0814738 -1.1926e-06 0)
(0.0814752 -1.20891e-06 0)
(0.0814682 -4.97669e-07 0)
(0.194264 0.00700657 0)
(0.194594 0.00887294 0)
(0.195602 0.0103729 0)
(0.197143 0.0111267 0)
(0.198737 0.0112789 0)
(0.200004 0.0110657 0)
(0.200784 0.0105947 0)
(0.201047 0.00991056 0)
(0.200812 0.00907859 0)
(0.200121 0.00820266 0)
(0.199034 0.00738448 0)
(0.19764 0.00668221 0)
(0.196025 0.00610534 0)
(0.194266 0.00563297 0)
(0.192411 0.00523921 0)
(0.190488 0.00490261 0)
(0.188509 0.00460734 0)
(0.186485 0.00434222 0)
(0.184421 0.00409961 0)
(0.182325 0.00387454 0)
(0.180202 0.00366394 0)
(0.178061 0.00346601 0)
(0.175909 0.00327964 0)
(0.173753 0.00310414 0)
(0.171601 0.00293895 0)
(0.16946 0.00278361 0)
(0.167335 0.00263764 0)
(0.165234 0.0025006 0)
(0.163159 0.00237202 0)
(0.161115 0.00225141 0)
(0.159105 0.00213818 0)
(0.157132 0.0020317 0)
(0.155198 0.00193138 0)
(0.153303 0.00183675 0)
(0.15145 0.00174745 0)
(0.149639 0.00166313 0)
(0.147872 0.00158334 0)
(0.146149 0.00150766 0)
(0.14447 0.00143576 0)
(0.142836 0.00136745 0)
(0.141247 0.00130254 0)
(0.139703 0.00124081 0)
(0.138204 0.00118194 0)
(0.136749 0.00112562 0)
(0.135338 0.0010716 0)
(0.13397 0.00101984 0)
(0.132646 0.000970265 0)
(0.131365 0.000922726 0)
(0.130128 0.00087695 0)
(0.128932 0.000832697 0)
(0.127779 0.0007898 0)
(0.126669 0.000748253 0)
(0.1256 0.000708012 0)
(0.124573 0.000669021 0)
(0.123587 0.000631193 0)
(0.122642 0.00059449 0)
(0.121739 0.000558751 0)
(0.120876 0.000523881 0)
(0.120055 0.000489732 0)
(0.119275 0.00045625 0)
(0.118536 0.000423302 0)
(0.117838 0.000390957 0)
(0.117182 0.000359259 0)
(0.116565 0.000328492 0)
(0.115991 0.000298736 0)
(0.115455 0.000270106 0)
(0.11496 0.000242299 0)
(0.114503 0.000215227 0)
(0.114087 0.000188622 0)
(0.113708 0.000162773 0)
(0.113368 0.000137833 0)
(0.113062 0.000114454 0)
(0.112794 9.27331e-05 0)
(0.112556 7.30825e-05 0)
(0.112351 5.5301e-05 0)
(0.112173 3.98485e-05 0)
(0.112022 2.67294e-05 0)
(0.111892 1.62549e-05 0)
(0.111784 7.87104e-06 0)
(0.11169 1.84619e-06 0)
(0.111613 -2.10174e-06 0)
(0.111543 -4.10911e-06 0)
(0.111485 -4.95485e-06 0)
(0.11143 -4.70653e-06 0)
(0.111384 -4.22972e-06 0)
(0.111337 -3.24954e-06 0)
(0.1113 -2.73848e-06 0)
(0.111258 -1.88982e-06 0)
(0.111228 -1.87335e-06 0)
(0.11119 -1.32699e-06 0)
(0.111166 -1.67995e-06 0)
(0.111132 -1.19329e-06 0)
(0.111114 -1.53163e-06 0)
(0.111082 -8.58494e-07 0)
(0.11107 -9.61983e-07 0)
(0.111039 -9.85927e-08 0)
(0.111032 -8.65913e-08 0)
(0.111 8.43002e-07 0)
(0.110997 7.04456e-07 0)
(0.110965 1.49182e-06 0)
(0.195094 0.00670855 0)
(0.19541 0.00812786 0)
(0.196204 0.00941493 0)
(0.19749 0.0102192 0)
(0.198999 0.0104909 0)
(0.200422 0.0103808 0)
(0.201585 0.0100257 0)
(0.202439 0.00950177 0)
(0.20298 0.00886382 0)
(0.203222 0.00817867 0)
(0.203189 0.00751891 0)
(0.202926 0.00693658 0)
(0.202489 0.00645002 0)
(0.201931 0.00604947 0)
(0.201286 0.00571551 0)
(0.200575 0.00543031 0)
(0.199805 0.00518046 0)
(0.198979 0.00495633 0)
(0.198096 0.0047511 0)
(0.197158 0.00456004 0)
(0.196164 0.00438003 0)
(0.195116 0.00420907 0)
(0.194017 0.00404587 0)
(0.19287 0.00388953 0)
(0.191679 0.00373944 0)
(0.190447 0.00359513 0)
(0.189181 0.0034563 0)
(0.187883 0.00332275 0)
(0.186559 0.00319436 0)
(0.185213 0.00307103 0)
(0.18385 0.00295259 0)
(0.182473 0.00283879 0)
(0.181086 0.00272934 0)
(0.17969 0.00262393 0)
(0.17829 0.00252238 0)
(0.176888 0.00242445 0)
(0.175488 0.00232987 0)
(0.174091 0.00223837 0)
(0.1727 0.00214974 0)
(0.171319 0.00206396 0)
(0.169949 0.00198102 0)
(0.168593 0.00190083 0)
(0.167253 0.00182324 0)
(0.165931 0.00174805 0)
(0.164627 0.00167507 0)
(0.163345 0.00160423 0)
(0.162084 0.00153546 0)
(0.160846 0.00146864 0)
(0.159633 0.00140356 0)
(0.158445 0.00134003 0)
(0.157285 0.00127795 0)
(0.156154 0.00121738 0)
(0.155053 0.0011583 0)
(0.153982 0.00110061 0)
(0.152942 0.0010442 0)
(0.151933 0.000988994 0)
(0.150957 0.000934802 0)
(0.150013 0.000881552 0)
(0.149104 0.000829167 0)
(0.14823 0.000777644 0)
(0.147394 0.000726846 0)
(0.146594 0.00067682 0)
(0.145832 0.000627574 0)
(0.145106 0.000579427 0)
(0.144418 0.000532533 0)
(0.143766 0.000487102 0)
(0.143153 0.000442831 0)
(0.142577 0.000399622 0)
(0.142042 0.000357171 0)
(0.141544 0.000315865 0)
(0.141086 0.000275957 0)
(0.140662 0.000238287 0)
(0.140277 0.000203013 0)
(0.139922 0.000170659 0)
(0.139602 0.000141059 0)
(0.13931 0.000114744 0)
(0.139051 9.16321e-05 0)
(0.138814 7.21475e-05 0)
(0.138607 5.6196e-05 0)
(0.138417 4.39273e-05 0)
(0.138251 3.46626e-05 0)
(0.138096 2.82093e-05 0)
(0.137963 2.37526e-05 0)
(0.137833 2.10117e-05 0)
(0.137723 1.90772e-05 0)
(0.137611 1.79735e-05 0)
(0.13752 1.67497e-05 0)
(0.137422 1.59694e-05 0)
(0.137347 1.45941e-05 0)
(0.137258 1.37242e-05 0)
(0.137199 1.22242e-05 0)
(0.137116 1.14412e-05 0)
(0.137071 1.02358e-05 0)
(0.136993 9.79569e-06 0)
(0.13696 9.11098e-06 0)
(0.136884 9.04661e-06 0)
(0.136863 8.64964e-06 0)
(0.136788 8.85642e-06 0)
(0.136778 8.42557e-06 0)
(0.136703 8.55989e-06 0)
(0.195776 0.00646907 0)
(0.196091 0.00761744 0)
(0.196751 0.00869798 0)
(0.19779 0.0094693 0)
(0.199062 0.00981078 0)
(0.20034 0.00978512 0)
(0.201459 0.0095147 0)
(0.202354 0.00909159 0)
(0.203021 0.00857363 0)
(0.203473 0.00801 0)
(0.20373 0.00745289 0)
(0.203824 0.00694614 0)
(0.203795 0.00651184 0)
(0.203682 0.00614965 0)
(0.203516 0.00584707 0)
(0.203314 0.00558962 0)
(0.203084 0.00536539 0)
(0.202827 0.00516563 0)
(0.202539 0.00498416 0)
(0.202219 0.00481665 0)
(0.201865 0.00466014 0)
(0.201475 0.00451258 0)
(0.201048 0.0043725 0)
(0.200584 0.00423879 0)
(0.200083 0.00411048 0)
(0.199545 0.00398681 0)
(0.19897 0.0038672 0)
(0.198361 0.00375123 0)
(0.197718 0.00363867 0)
(0.197044 0.00352942 0)
(0.196341 0.00342338 0)
(0.19561 0.00332046 0)
(0.194853 0.00322051 0)
(0.194071 0.0031233 0)
(0.193266 0.00302862 0)
(0.192439 0.00293618 0)
(0.191592 0.0028457 0)
(0.190727 0.00275691 0)
(0.189845 0.00266964 0)
(0.188949 0.00258383 0)
(0.188041 0.00249955 0)
(0.187122 0.00241677 0)
(0.186196 0.00233542 0)
(0.185263 0.00225542 0)
(0.184327 0.00217679 0)
(0.183389 0.00209962 0)
(0.18245 0.00202388 0)
(0.181511 0.00194937 0)
(0.180575 0.00187577 0)
(0.179643 0.00180279 0)
(0.178716 0.00173031 0)
(0.177798 0.00165859 0)
(0.176891 0.00158791 0)
(0.175997 0.00151842 0)
(0.175118 0.00145017 0)
(0.174252 0.00138299 0)
(0.173402 0.00131641 0)
(0.172565 0.00125009 0)
(0.171747 0.00118386 0)
(0.170948 0.00111784 0)
(0.170173 0.00105221 0)
(0.169422 0.000987363 0)
(0.168699 0.00092358 0)
(0.168002 0.0008612 0)
(0.167331 0.000800195 0)
(0.166682 0.000740461 0)
(0.16606 0.000681472 0)
(0.165461 0.000623126 0)
(0.164895 0.000565385 0)
(0.164359 0.000509038 0)
(0.163859 0.000454702 0)
(0.163386 0.000403349 0)
(0.162947 0.000355087 0)
(0.16253 0.000310278 0)
(0.162144 0.000268663 0)
(0.161777 0.000230706 0)
(0.161442 0.000196553 0)
(0.161125 0.000166789 0)
(0.160842 0.000141493 0)
(0.160572 0.000120649 0)
(0.160334 0.000103974 0)
(0.160103 9.08596e-05 0)
(0.159903 8.08757e-05 0)
(0.159702 7.29874e-05 0)
(0.159533 6.692e-05 0)
(0.159354 6.1653e-05 0)
(0.159212 5.72399e-05 0)
(0.159049 5.29036e-05 0)
(0.158933 4.90341e-05 0)
(0.158784 4.50625e-05 0)
(0.158692 4.16854e-05 0)
(0.158552 3.82229e-05 0)
(0.158482 3.56684e-05 0)
(0.158346 3.29313e-05 0)
(0.158294 3.12145e-05 0)
(0.158162 2.9175e-05 0)
(0.158127 2.78671e-05 0)
(0.157997 2.63352e-05 0)
(0.157978 2.52768e-05 0)
(0.157849 2.37449e-05 0)
(0.196361 0.0062529 0)
(0.196667 0.00720989 0)
(0.197235 0.00811332 0)
(0.198087 0.00880769 0)
(0.199144 0.00917682 0)
(0.200249 0.00922446 0)
(0.20126 0.00903523 0)
(0.2021 0.0086968 0)
(0.202751 0.0082706 0)
(0.203227 0.00780028 0)
(0.203546 0.00732517 0)
(0.203735 0.0068799 0)
(0.203826 0.00648659 0)
(0.20385 0.00615111 0)
(0.203834 0.00586737 0)
(0.203797 0.00562462 0)
(0.203746 0.00541268 0)
(0.203685 0.00522378 0)
(0.203613 0.00505248 0)
(0.203527 0.00489507 0)
(0.203427 0.00474902 0)
(0.203311 0.00461252 0)
(0.203178 0.00448417 0)
(0.203027 0.00436283 0)
(0.202857 0.00424741 0)
(0.202667 0.00413692 0)
(0.202457 0.00403057 0)
(0.202226 0.00392772 0)
(0.201974 0.00382795 0)
(0.201702 0.003731 0)
(0.201409 0.00363674 0)
(0.201097 0.00354512 0)
(0.200765 0.00345606 0)
(0.200413 0.00336943 0)
(0.200043 0.00328499 0)
(0.199653 0.00320238 0)
(0.199243 0.00312122 0)
(0.198815 0.00304118 0)
(0.198368 0.00296197 0)
(0.197903 0.00288345 0)
(0.197422 0.00280562 0)
(0.196924 0.0027285 0)
(0.196412 0.00265197 0)
(0.195885 0.00257589 0)
(0.195346 0.0025003 0)
(0.194795 0.00242543 0)
(0.194234 0.00235144 0)
(0.193663 0.00227827 0)
(0.193084 0.00220559 0)
(0.192494 0.00213282 0)
(0.191897 0.00205946 0)
(0.191294 0.00198552 0)
(0.190688 0.00191132 0)
(0.190082 0.00183747 0)
(0.189478 0.00176461 0)
(0.188876 0.00169305 0)
(0.188276 0.00162233 0)
(0.187675 0.00155161 0)
(0.187076 0.00148008 0)
(0.186477 0.00140725 0)
(0.185886 0.00133314 0)
(0.185303 0.00125849 0)
(0.184737 0.00118451 0)
(0.184186 0.00111261 0)
(0.183654 0.00104342 0)
(0.183129 0.000976368 0)
(0.182615 0.000909747 0)
(0.182104 0.000842136 0)
(0.181608 0.000773237 0)
(0.181128 0.000704516 0)
(0.180676 0.000637997 0)
(0.180244 0.000575522 0)
(0.179839 0.000517553 0)
(0.179445 0.000463837 0)
(0.179074 0.000413701 0)
(0.178708 0.000366908 0)
(0.178367 0.000323811 0)
(0.178032 0.000284671 0)
(0.177729 0.000250447 0)
(0.177429 0.000220745 0)
(0.177167 0.000196486 0)
(0.176901 0.000175914 0)
(0.176676 0.000160093 0)
(0.176437 0.00014605 0)
(0.176245 0.000135573 0)
(0.176024 0.000124931 0)
(0.175861 0.000116967 0)
(0.175652 0.000107597 0)
(0.175519 0.000100718 0)
(0.175321 9.21237e-05 0)
(0.175217 8.63609e-05 0)
(0.175028 7.90736e-05 0)
(0.174949 7.47966e-05 0)
(0.174766 6.91511e-05 0)
(0.174706 6.60247e-05 0)
(0.174526 6.15917e-05 0)
(0.174481 5.88462e-05 0)
(0.174303 5.47975e-05 0)
(0.174277 5.26786e-05 0)
(0.1741 4.82646e-05 0)
(0.196871 0.00604794 0)
(0.197164 0.00685538 0)
(0.197659 0.00761282 0)
(0.19837 0.0082198 0)
(0.19925 0.00858575 0)
(0.200195 0.00868774 0)
(0.201091 0.0085726 0)
(0.201862 0.00831112 0)
(0.202478 0.00796293 0)
(0.202943 0.00757046 0)
(0.203274 0.00716644 0)
(0.203493 0.00677798 0)
(0.203626 0.00642465 0)
(0.203699 0.00611527 0)
(0.203734 0.00584862 0)
(0.203749 0.00561765 0)
(0.203752 0.00541429 0)
(0.203749 0.00523194 0)
(0.203741 0.00506591 0)
(0.203726 0.00491309 0)
(0.203705 0.00477144 0)
(0.203677 0.00463942 0)
(0.203641 0.00451583 0)
(0.203599 0.00439964 0)
(0.203548 0.00428983 0)
(0.20349 0.00418535 0)
(0.203423 0.00408531 0)
(0.203346 0.00398899 0)
(0.20326 0.0038958 0)
(0.203165 0.0038054 0)
(0.20306 0.00371762 0)
(0.202945 0.00363238 0)
(0.20282 0.00354966 0)
(0.202686 0.00346944 0)
(0.202542 0.00339159 0)
(0.202387 0.00331569 0)
(0.202221 0.00324128 0)
(0.202044 0.00316799 0)
(0.201856 0.00309543 0)
(0.201655 0.00302336 0)
(0.201444 0.00295177 0)
(0.201221 0.00288067 0)
(0.200987 0.00280995 0)
(0.200741 0.00273932 0)
(0.200485 0.00266868 0)
(0.200217 0.00259825 0)
(0.199941 0.00252836 0)
(0.199654 0.00245915 0)
(0.199359 0.00239055 0)
(0.199053 0.00232191 0)
(0.198737 0.00225234 0)
(0.198411 0.00218124 0)
(0.198076 0.00210859 0)
(0.197734 0.00203496 0)
(0.197391 0.00196162 0)
(0.197044 0.00188967 0)
(0.196695 0.0018193 0)
(0.19634 0.00174962 0)
(0.19598 0.0016793 0)
(0.19561 0.00160694 0)
(0.195236 0.00153169 0)
(0.194857 0.00145349 0)
(0.194483 0.00137379 0)
(0.194116 0.00129526 0)
(0.193764 0.00122087 0)
(0.193415 0.00115136 0)
(0.193069 0.00108454 0)
(0.192711 0.00101635 0)
(0.192352 0.000944204 0)
(0.191987 0.000868585 0)
(0.191641 0.00079316 0)
(0.191304 0.000721691 0)
(0.190994 0.000656657 0)
(0.190685 0.000597623 0)
(0.190395 0.000543711 0)
(0.190095 0.000492835 0)
(0.189815 0.000445402 0)
(0.189522 0.000400308 0)
(0.18926 0.000360132 0)
(0.188984 0.000323128 0)
(0.188751 0.000292802 0)
(0.188497 0.000265091 0)
(0.188298 0.000244423 0)
(0.188062 0.000224228 0)
(0.187894 0.000210462 0)
(0.187669 0.000194568 0)
(0.187527 0.00018421 0)
(0.187306 0.000169829 0)
(0.18719 0.000160517 0)
(0.186974 0.000147024 0)
(0.186884 0.000138711 0)
(0.186676 0.000127483 0)
(0.186609 0.000121066 0)
(0.186408 0.000113074 0)
(0.186354 0.000108334 0)
(0.186155 0.000102375 0)
(0.18611 9.82038e-05 0)
(0.18591 9.17026e-05 0)
(0.18588 8.85511e-05 0)
(0.185676 8.02066e-05 0)
(0.197319 0.00585018 0)
(0.197595 0.00653622 0)
(0.19803 0.00717601 0)
(0.198632 0.00770212 0)
(0.19937 0.00804845 0)
(0.200175 0.0081853 0)
(0.200962 0.00813264 0)
(0.201661 0.00794071 0)
(0.202237 0.00766175 0)
(0.202684 0.00733648 0)
(0.203016 0.00699457 0)
(0.203249 0.00665844 0)
(0.203405 0.00634454 0)
(0.203504 0.0060623 0)
(0.203565 0.00581361 0)
(0.203604 0.00559475 0)
(0.203629 0.00539991 0)
(0.203647 0.00522379 0)
(0.203659 0.00506246 0)
(0.203665 0.00491328 0)
(0.203667 0.00477461 0)
(0.203664 0.00464516 0)
(0.203656 0.00452391 0)
(0.203645 0.00441001 0)
(0.203629 0.00430256 0)
(0.203611 0.00420055 0)
(0.203589 0.00410311 0)
(0.203563 0.00400951 0)
(0.203533 0.0039191 0)
(0.203499 0.00383144 0)
(0.203461 0.00374639 0)
(0.20342 0.00366385 0)
(0.203374 0.00358376 0)
(0.203325 0.0035062 0)
(0.203272 0.00343116 0)
(0.203215 0.00335825 0)
(0.203153 0.00328697 0)
(0.203087 0.00321694 0)
(0.203016 0.00314775 0)
(0.20294 0.00307907 0)
(0.202859 0.0030109 0)
(0.202772 0.00294331 0)
(0.20268 0.00287618 0)
(0.202581 0.00280917 0)
(0.202477 0.00274208 0)
(0.202366 0.00267497 0)
(0.202249 0.00260811 0)
(0.202127 0.00254182 0)
(0.202 0.00247636 0)
(0.201866 0.00241129 0)
(0.201726 0.00234564 0)
(0.201577 0.00227825 0)
(0.201421 0.00220859 0)
(0.201258 0.00213682 0)
(0.201092 0.00206439 0)
(0.200923 0.00199297 0)
(0.200752 0.00192377 0)
(0.200576 0.0018563 0)
(0.200395 0.0017892 0)
(0.200204 0.00172037 0)
(0.200006 0.00164825 0)
(0.199796 0.00157141 0)
(0.199585 0.00149037 0)
(0.199372 0.00140775 0)
(0.199171 0.0013289 0)
(0.198973 0.00125734 0)
(0.198782 0.00119281 0)
(0.198573 0.00112939 0)
(0.198357 0.00106135 0)
(0.198119 0.000985669 0)
(0.197889 0.000906194 0)
(0.197656 0.000828104 0)
(0.197449 0.000757424 0)
(0.197237 0.000694445 0)
(0.197047 0.000639439 0)
(0.196836 0.000587843 0)
(0.196647 0.000540531 0)
(0.196427 0.000493444 0)
(0.196241 0.000451419 0)
(0.19602 0.000409752 0)
(0.195849 0.000376039 0)
(0.195635 0.000342319 0)
(0.195491 0.000318387 0)
(0.195286 0.000292419 0)
(0.19517 0.000276649 0)
(0.19497 0.000256154 0)
(0.194877 0.000244891 0)
(0.194675 0.000226725 0)
(0.194602 0.000216107 0)
(0.194399 0.000198964 0)
(0.194343 0.00018814 0)
(0.194147 0.000174104 0)
(0.194107 0.000164923 0)
(0.19392 0.000156085 0)
(0.193885 0.000149584 0)
(0.193701 0.000143879 0)
(0.193664 0.00013909 0)
(0.193473 0.000131101 0)
(0.193444 0.000127859 0)
(0.193243 0.000115245 0)
(0.197713 0.00565921 0)
(0.197971 0.00624593 0)
(0.198355 0.00679153 0)
(0.19887 0.0072481 0)
(0.199495 0.00756813 0)
(0.200181 0.00772387 0)
(0.200867 0.00772004 0)
(0.201495 0.00758871 0)
(0.202028 0.00737148 0)
(0.202455 0.00710524 0)
(0.202782 0.00681772 0)
(0.203022 0.00652883 0)
(0.203193 0.0062526 0)
(0.20331 0.00599788 0)
(0.203391 0.00576824 0)
(0.203446 0.00556252 0)
(0.203486 0.00537707 0)
(0.203516 0.00520799 0)
(0.203538 0.00505205 0)
(0.203555 0.00490704 0)
(0.203565 0.00477163 0)
(0.203571 0.00464479 0)
(0.203572 0.0045256 0)
(0.20357 0.00441338 0)
(0.203565 0.00430739 0)
(0.203558 0.00420669 0)
(0.203549 0.00411051 0)
(0.203538 0.00401818 0)
(0.203524 0.00392901 0)
(0.203509 0.00384253 0)
(0.203492 0.00375861 0)
(0.203473 0.00367717 0)
(0.203453 0.00359808 0)
(0.203431 0.00352138 0)
(0.203408 0.00344718 0)
(0.203383 0.00337516 0)
(0.203357 0.00330482 0)
(0.203331 0.00323581 0)
(0.203303 0.00316774 0)
(0.203273 0.00310017 0)
(0.203242 0.00303314 0)
(0.203209 0.00296687 0)
(0.203175 0.00290126 0)
(0.203138 0.00283588 0)
(0.203099 0.00277055 0)
(0.203056 0.00270519 0)
(0.203011 0.00263989 0)
(0.202963 0.00257489 0)
(0.202914 0.00251077 0)
(0.202862 0.0024474 0)
(0.202808 0.00238397 0)
(0.202749 0.00231904 0)
(0.202687 0.00225177 0)
(0.202619 0.00218182 0)
(0.20255 0.00211046 0)
(0.202476 0.00203948 0)
(0.202404 0.00197095 0)
(0.202327 0.00190486 0)
(0.202249 0.00184022 0)
(0.202163 0.00177451 0)
(0.202074 0.0017061 0)
(0.201973 0.00163248 0)
(0.20187 0.00155306 0)
(0.201758 0.00146897 0)
(0.201656 0.00138671 0)
(0.201553 0.00131219 0)
(0.201463 0.00124869 0)
(0.201358 0.00119028 0)
(0.201249 0.00112933 0)
(0.201112 0.00105826 0)
(0.200978 0.000979586 0)
(0.200828 0.000898017 0)
(0.200702 0.000823288 0)
(0.200564 0.000756536 0)
(0.200454 0.000700917 0)
(0.200317 0.000649349 0)
(0.200209 0.000604306 0)
(0.200059 0.000557491 0)
(0.199949 0.000516827 0)
(0.199786 0.00047298 0)
(0.199682 0.000438753 0)
(0.199515 0.000400675 0)
(0.199429 0.000375244 0)
(0.199261 0.000344179 0)
(0.1992 0.000327208 0)
(0.199034 0.000302689 0)
(0.198994 0.000291192 0)
(0.198824 0.000270674 0)
(0.198798 0.000259406 0)
(0.198625 0.000240614 0)
(0.198607 0.000227163 0)
(0.198442 0.000212162 0)
(0.19843 0.000199402 0)
(0.198278 0.000191419 0)
(0.198264 0.000182954 0)
(0.198117 0.000179238 0)
(0.198093 0.000175094 0)
(0.197933 0.000166925 0)
(0.19791 0.000165182 0)
(0.197731 0.000148829 0)
(0.19806 0.00547569 0)
(0.1983 0.00598121 0)
(0.19864 0.00645073 0)
(0.199085 0.0068489 0)
(0.199618 0.00714123 0)
(0.200205 0.00730448 0)
(0.200801 0.0073362 0)
(0.20136 0.00725512 0)
(0.201849 0.00709193 0)
(0.202253 0.00687785 0)
(0.202571 0.00663833 0)
(0.202813 0.00639176 0)
(0.202993 0.00615066 0)
(0.203124 0.00592308 0)
(0.203219 0.00571323 0)
(0.203288 0.0055217 0)
(0.20334 0.0053467 0)
(0.203379 0.00518559 0)
(0.20341 0.00503594 0)
(0.203434 0.00489595 0)
(0.203451 0.00476453 0)
(0.203462 0.00464085 0)
(0.203469 0.00452414 0)
(0.203472 0.00441383 0)
(0.203472 0.00430934 0)
(0.203469 0.00420984 0)
(0.203464 0.00411463 0)
(0.203458 0.0040232 0)
(0.20345 0.0039349 0)
(0.203441 0.0038492 0)
(0.20343 0.003766 0)
(0.203418 0.00368521 0)
(0.203405 0.00360667 0)
(0.203391 0.00353036 0)
(0.203377 0.0034564 0)
(0.203362 0.00338448 0)
(0.203347 0.0033142 0)
(0.203331 0.00324523 0)
(0.203317 0.00317726 0)
(0.203302 0.00310975 0)
(0.203287 0.00304275 0)
(0.203272 0.00297666 0)
(0.203257 0.00291148 0)
(0.203241 0.00284662 0)
(0.203225 0.00278193 0)
(0.203207 0.00271731 0)
(0.203188 0.00265273 0)
(0.203168 0.00258811 0)
(0.203148 0.00252418 0)
(0.203127 0.00246106 0)
(0.203107 0.00239825 0)
(0.203085 0.00233425 0)
(0.203063 0.00226827 0)
(0.203037 0.00219959 0)
(0.203011 0.00212928 0)
(0.20298 0.00205875 0)
(0.202951 0.00199054 0)
(0.202918 0.00192492 0)
(0.202887 0.00186138 0)
(0.202851 0.00179721 0)
(0.202816 0.00173118 0)
(0.202771 0.00166031 0)
(0.202727 0.00158351 0)
(0.202671 0.00150004 0)
(0.202622 0.00141631 0)
(0.202567 0.00133902 0)
(0.202526 0.00127484 0)
(0.202474 0.00121897 0)
(0.202427 0.00116404 0)
(0.202353 0.00109867 0)
(0.202284 0.00102387 0)
(0.202188 0.000941933 0)
(0.202115 0.000865457 0)
(0.20202 0.000795442 0)
(0.201959 0.000739001 0)
(0.201867 0.000686568 0)
(0.201813 0.000643692 0)
(0.20171 0.000597318 0)
(0.201657 0.000559404 0)
(0.201539 0.000514835 0)
(0.201488 0.000482216 0)
(0.201358 0.000441436 0)
(0.201318 0.000416083 0)
(0.201181 0.000380901 0)
(0.201161 0.000363138 0)
(0.201023 0.000335092 0)
(0.201023 0.000323137 0)
(0.200883 0.000301317 0)
(0.200892 0.000289216 0)
(0.200751 0.000270593 0)
(0.200762 0.000254073 0)
(0.200631 0.000239877 0)
(0.200641 0.000222703 0)
(0.200527 0.000216859 0)
(0.200529 0.000206208 0)
(0.200422 0.000205544 0)
(0.200409 0.000203239 0)
(0.200286 0.000195962 0)
(0.20027 0.000197282 0)
(0.200122 0.000178193 0)
(0.198365 0.00530032 0)
(0.198588 0.00573919 0)
(0.198891 0.00614653 0)
(0.199277 0.00649583 0)
(0.199735 0.00676151 0)
(0.200239 0.00692496 0)
(0.200756 0.00698098 0)
(0.201251 0.00693977 0)
(0.201696 0.00682267 0)
(0.202073 0.00665455 0)
(0.20238 0.00645772 0)
(0.202621 0.00624912 0)
(0.202806 0.00604034 0)
(0.202946 0.00583888 0)
(0.203051 0.00564908 0)
(0.203131 0.00547256 0)
(0.203193 0.00530894 0)
(0.203241 0.00515671 0)
(0.203279 0.00501418 0)
(0.203309 0.00488 0)
(0.203332 0.00475332 0)
(0.203349 0.00463343 0)
(0.20336 0.00451973 0)
(0.203367 0.00441176 0)
(0.20337 0.00430908 0)
(0.20337 0.00421099 0)
(0.203369 0.00411688 0)
(0.203365 0.00402636 0)
(0.20336 0.00393894 0)
(0.203354 0.00385404 0)
(0.203346 0.00377156 0)
(0.203337 0.0036914 0)
(0.203327 0.00361339 0)
(0.203316 0.00353747 0)
(0.203304 0.00346371 0)
(0.203292 0.00339178 0)
(0.203281 0.0033213 0)
(0.203269 0.00325203 0)
(0.203258 0.0031838 0)
(0.203247 0.00311605 0)
(0.203237 0.00304878 0)
(0.203227 0.00298243 0)
(0.203218 0.00291722 0)
(0.203208 0.00285248 0)
(0.203199 0.002788 0)
(0.203188 0.00272364 0)
(0.203178 0.00265941 0)
(0.203166 0.00259489 0)
(0.203156 0.00253073 0)
(0.203144 0.00246713 0)
(0.203136 0.00240403 0)
(0.203126 0.00233996 0)
(0.203119 0.00227439 0)
(0.203108 0.0022065 0)
(0.203098 0.00213722 0)
(0.203083 0.00206737 0)
(0.20307 0.00199958 0)
(0.203052 0.00193402 0)
(0.203039 0.00187072 0)
(0.203021 0.00180675 0)
(0.203007 0.00174158 0)
(0.202987 0.0016721 0)
(0.202971 0.00159764 0)
(0.202942 0.00151592 0)
(0.202917 0.00143284 0)
(0.202882 0.00135415 0)
(0.202859 0.00128878 0)
(0.202827 0.00123288 0)
(0.202808 0.00118123 0)
(0.202766 0.00112014 0)
(0.202734 0.00105018 0)
(0.20267 0.000970126 0)
(0.202626 0.000894415 0)
(0.202554 0.000822341 0)
(0.202516 0.00076515 0)
(0.202444 0.00071071 0)
(0.202418 0.0006689 0)
(0.202341 0.000621974 0)
(0.202321 0.000586732 0)
(0.202231 0.000541849 0)
(0.202214 0.000511892 0)
(0.202108 0.000469657 0)
(0.202098 0.000445507 0)
(0.201982 0.000407289 0)
(0.201987 0.000388986 0)
(0.201868 0.000357963 0)
(0.20189 0.000344986 0)
(0.201771 0.000322511 0)