/*--------------------------------*- C++ -*----------------------------------*\
| =========                 |                                                 |
| \\      /  F ield         | OpenFOAM: The Open Source CFD Toolbox           |
|  \\    /   O peration     | Version:  2.3.0                                 |
|   \\  /    A nd           | Web:      www.OpenFOAM.org                      |
|    \\/     M anipulation  |                                                 |
\*---------------------------------------------------------------------------*/
FoamFile
{
    version     2.0;
    format      ascii;
    class       volVectorField;
    location    "0.15";
    object      U;
}
// * * * * * * * * * * * * * * * * * * * * * * * * * * * * * * * * * * * * * //

dimensions      [0 1 -1 0 0 0 0];

internalField   nonuniform List<vector> 
2945
(
(0.149896 0.00849114 0)
(0.105805 0.00731801 0)
(0.0745733 0.00405162 0)
(0.0558592 0.00136057 0)
(0.0455649 0.000141383 0)
(0.0400641 -0.000135529 0)
(0.0369 -7.93663e-05 0)
(0.0346779 1.61467e-05 0)
(0.032812 6.80011e-05 0)
(0.0311511 8.08257e-05 0)
(0.0296802 7.60534e-05 0)
(0.0283908 6.72048e-05 0)
(0.027261 5.90492e-05 0)
(0.0262656 5.22939e-05 0)
(0.0253833 4.66258e-05 0)
(0.0245977 4.17122e-05 0)
(0.0238965 3.73424e-05 0)
(0.0232703 3.3391e-05 0)
(0.0227119 2.97801e-05 0)
(0.0222157 2.64542e-05 0)
(0.0217769 2.33631e-05 0)
(0.0213921 2.04458e-05 0)
(0.0210586 1.7619e-05 0)
(0.0207744 1.47833e-05 0)
(0.0205386 1.18582e-05 0)
(0.0203503 8.83832e-06 0)
(0.0202078 5.83858e-06 0)
(0.0201077 3.09663e-06 0)
(0.0200443 8.99261e-07 0)
(0.0200097 -6.0803e-07 0)
(0.0199955 -1.42155e-06 0)
(0.0199938 -1.85417e-06 0)
(0.0199984 -1.95705e-06 0)
(0.0200059 -1.83962e-06 0)
(0.0200147 -1.69452e-06 0)
(0.0200246 -1.59009e-06 0)
(0.0200359 -1.52104e-06 0)
(0.020049 -1.51461e-06 0)
(0.0200638 -1.52927e-06 0)
(0.0200802 -1.52289e-06 0)
(0.0200976 -1.49333e-06 0)
(0.0201153 -1.43002e-06 0)
(0.020133 -1.34743e-06 0)
(0.0201502 -1.26029e-06 0)
(0.0201667 -1.17923e-06 0)
(0.0201825 -1.10781e-06 0)
(0.0201975 -1.04075e-06 0)
(0.0202116 -9.70225e-07 0)
(0.0202247 -8.90939e-07 0)
(0.0202366 -8.02701e-07 0)
(0.0202473 -7.09752e-07 0)
(0.0202567 -6.182e-07 0)
(0.020265 -5.33389e-07 0)
(0.0202722 -4.58487e-07 0)
(0.0202784 -3.94315e-07 0)
(0.0202839 -3.40115e-07 0)
(0.0202886 -2.94357e-07 0)
(0.0202928 -2.55442e-07 0)
(0.0202965 -2.22009e-07 0)
(0.0202997 -1.93011e-07 0)
(0.0203025 -1.6769e-07 0)
(0.020305 -1.45474e-07 0)
(0.0203072 -1.25926e-07 0)
(0.0203091 -1.08695e-07 0)
(0.0203107 -9.34789e-08 0)
(0.0203121 -8.00304e-08 0)
(0.0203134 -6.81215e-08 0)
(0.0203144 -5.7587e-08 0)
(0.0203153 -4.82064e-08 0)
(0.0203161 -4.00828e-08 0)
(0.0203167 -3.24878e-08 0)
(0.0203173 -2.7459e-08 0)
(0.0203177 -1.96707e-08 0)
(0.020318 -2.17057e-08 0)
(0.0203183 -8.93776e-09 0)
(0.195497 0.0141169 0)
(0.189116 0.0150506 0)
(0.173747 0.0120782 0)
(0.155737 0.00803791 0)
(0.139127 0.00478786 0)
(0.125506 0.00277834 0)
(0.11491 0.00174142 0)
(0.106689 0.00125925 0)
(0.100128 0.00102081 0)
(0.0947071 0.000869691 0)
(0.0901058 0.000750784 0)
(0.0861291 0.000650816 0)
(0.0826511 0.000566784 0)
(0.0795836 0.000496279 0)
(0.0768622 0.000436554 0)
(0.0744382 0.000385141 0)
(0.0722746 0.000340118 0)
(0.0703426 0.000300075 0)
(0.06862 0.000263994 0)
(0.0670891 0.000231127 0)
(0.0657361 0.000200889 0)
(0.06455 0.000172788 0)
(0.0635219 0.000146376 0)
(0.0626452 0.000121284 0)
(0.0619136 9.73342e-05 0)
(0.0613204 7.46874e-05 0)
(0.0608562 5.39126e-05 0)
(0.0605074 3.58777e-05 0)
(0.0602564 2.14404e-05 0)
(0.0600825 1.09996e-05 0)
(0.0599647 4.34061e-06 0)
(0.0598847 5.26907e-07 0)
(0.0598288 -1.42438e-06 0)
(0.0597888 -2.34853e-06 0)
(0.0597606 -2.95333e-06 0)
(0.0597427 -3.55814e-06 0)
(0.0597348 -4.44275e-06 0)
(0.0597364 -5.26604e-06 0)
(0.0597468 -5.98007e-06 0)
(0.0597646 -6.44948e-06 0)
(0.059788 -6.6881e-06 0)
(0.0598154 -6.69744e-06 0)
(0.0598454 -6.53661e-06 0)
(0.0598769 -6.27577e-06 0)
(0.0599087 -5.96064e-06 0)
(0.0599402 -5.61772e-06 0)
(0.0599707 -5.24697e-06 0)
(0.0599995 -4.83981e-06 0)
(0.0600262 -4.39466e-06 0)
(0.0600504 -3.92393e-06 0)
(0.060072 -3.45083e-06 0)
(0.060091 -3.0005e-06 0)
(0.0601076 -2.59201e-06 0)
(0.060122 -2.23472e-06 0)
(0.0601346 -1.92906e-06 0)
(0.0601456 -1.66983e-06 0)
(0.0601553 -1.44959e-06 0)
(0.0601638 -1.26104e-06 0)
(0.0601712 -1.09814e-06 0)
(0.0601778 -9.56275e-07 0)
(0.0601836 -8.32013e-07 0)
(0.0601887 -7.22745e-07 0)
(0.0601931 -6.26423e-07 0)
(0.060197 -5.41374e-07 0)
(0.0602004 -4.66162e-07 0)
(0.0602034 -3.99574e-07 0)
(0.0602059 -3.4053e-07 0)
(0.0602081 -2.88153e-07 0)
(0.06021 -2.41555e-07 0)
(0.0602116 -2.0056e-07 0)
(0.0602129 -1.63443e-07 0)
(0.060214 -1.34823e-07 0)
(0.0602148 -1.01468e-07 0)
(0.0602155 -1.01974e-07 0)
(0.0602162 -4.67835e-08 0)
(0.194036 0.012274 0)
(0.199918 0.0145699 0)
(0.201991 0.0138155 0)
(0.198521 0.0113809 0)
(0.191252 0.00875823 0)
(0.182475 0.00665348 0)
(0.173653 0.00515834 0)
(0.165404 0.00412598 0)
(0.157887 0.00339154 0)
(0.151092 0.00284323 0)
(0.144964 0.00241793 0)
(0.139438 0.00207991 0)
(0.134448 0.00180618 0)
(0.129937 0.00158027 0)
(0.125855 0.00139015 0)
(0.122157 0.00122708 0)
(0.118808 0.00108474 0)
(0.115778 0.000958519 0)
(0.113041 0.000845032 0)
(0.11058 0.000741757 0)
(0.108376 0.000646775 0)
(0.106419 0.000558575 0)
(0.104696 0.000475965 0)
(0.103199 0.000398132 0)
(0.10192 0.000324839 0)
(0.100846 0.000256657 0)
(0.0999662 0.000194987 0)
(0.0992608 0.000141703 0)
(0.0987071 9.8444e-05 0)
(0.0982786 6.58813e-05 0)
(0.0979481 4.33008e-05 0)
(0.0976909 2.87813e-05 0)
(0.097487 1.97476e-05 0)
(0.0973226 1.37346e-05 0)
(0.0971893 9.02138e-06 0)
(0.0970824 4.74162e-06 0)
(0.0969993 4.40968e-07 0)
(0.0969383 -3.4691e-06 0)
(0.0968971 -6.78796e-06 0)
(0.0968732 -9.60383e-06 0)
(0.0968639 -1.15544e-05 0)
(0.0968666 -1.27676e-05 0)
(0.0968789 -1.33783e-05 0)
(0.0968987 -1.35424e-05 0)
(0.0969242 -1.33659e-05 0)
(0.0969535 -1.29178e-05 0)
(0.0969848 -1.22352e-05 0)
(0.0970163 -1.13518e-05 0)
(0.0970468 -1.03172e-05 0)
(0.097075 -9.20011e-06 0)
(0.0971005 -8.07738e-06 0)
(0.0971229 -7.01592e-06 0)
(0.0971426 -6.06009e-06 0)
(0.0971597 -5.22834e-06 0)
(0.0971746 -4.5185e-06 0)
(0.0971876 -3.9165e-06 0)
(0.097199 -3.40434e-06 0)
(0.097209 -2.96505e-06 0)
(0.0972178 -2.58483e-06 0)
(0.0972255 -2.2532e-06 0)
(0.0972324 -1.96235e-06 0)
(0.0972384 -1.70632e-06 0)
(0.0972436 -1.4804e-06 0)
(0.0972483 -1.28072e-06 0)
(0.0972523 -1.10396e-06 0)
(0.0972558 -9.473e-07 0)
(0.0972588 -8.08239e-07 0)
(0.0972614 -6.84667e-07 0)
(0.0972637 -5.74682e-07 0)
(0.0972655 -4.77233e-07 0)
(0.0972671 -3.8995e-07 0)
(0.0972684 -3.18539e-07 0)
(0.0972694 -2.44036e-07 0)
(0.0972702 -2.35031e-07 0)
(0.097271 -1.11901e-07 0)
(0.193014 0.0104758 0)
(0.197249 0.0125288 0)
(0.202094 0.0125413 0)
(0.204904 0.0112404 0)
(0.204995 0.0096003 0)
(0.203004 0.00813881 0)
(0.199749 0.0069727 0)
(0.195784 0.00605428 0)
(0.191434 0.00530966 0)
(0.186904 0.00468488 0)
(0.182334 0.00414931 0)
(0.177824 0.003686 0)
(0.173441 0.0032833 0)
(0.169229 0.00293134 0)
(0.165217 0.00262143 0)
(0.161422 0.00234611 0)
(0.157854 0.00209915 0)
(0.154518 0.00187543 0)
(0.151416 0.00167081 0)
(0.148549 0.00148195 0)
(0.145917 0.00130619 0)
(0.143518 0.00114139 0)
(0.141352 0.000985926 0)
(0.139416 0.000838799 0)
(0.137708 0.000699922 0)
(0.13622 0.000570401 0)
(0.134943 0.000452529 0)
(0.133864 0.00034926 0)
(0.132962 0.000263204 0)
(0.132215 0.000195548 0)
(0.1316 0.000145399 0)
(0.131091 0.000109906 0)
(0.130668 8.50917e-05 0)
(0.130313 6.6973e-05 0)
(0.130015 5.24758e-05 0)
(0.129763 3.97661e-05 0)
(0.129553 2.81922e-05 0)
(0.129381 1.77202e-05 0)
(0.129242 8.60013e-06 0)
(0.129132 7.92558e-07 0)
(0.129049 -5.36687e-06 0)
(0.128988 -1.00936e-05 0)
(0.128947 -1.36363e-05 0)
(0.128922 -1.61284e-05 0)
(0.128913 -1.77077e-05 0)
(0.128917 -1.84495e-05 0)
(0.128929 -1.84112e-05 0)
(0.128949 -1.76836e-05 0)
(0.128972 -1.64184e-05 0)
(0.128996 -1.48148e-05 0)
(0.129019 -1.3078e-05 0)
(0.12904 -1.13774e-05 0)
(0.129058 -9.82334e-06 0)
(0.129074 -8.46543e-06 0)
(0.129088 -7.30795e-06 0)
(0.1291 -6.32955e-06 0)
(0.129111 -5.50002e-06 0)
(0.12912 -4.79045e-06 0)
(0.129128 -4.17738e-06 0)
(0.129135 -3.64315e-06 0)
(0.129141 -3.17477e-06 0)
(0.129147 -2.76244e-06 0)
(0.129152 -2.39846e-06 0)
(0.129156 -2.07656e-06 0)
(0.12916 -1.79139e-06 0)
(0.129163 -1.53838e-06 0)
(0.129166 -1.31355e-06 0)
(0.129168 -1.11347e-06 0)
(0.12917 -9.35146e-07 0)
(0.129172 -7.76589e-07 0)
(0.129173 -6.34756e-07 0)
(0.129175 -5.16102e-07 0)
(0.129175 -3.96776e-07 0)
(0.129176 -3.74627e-07 0)
(0.129177 -1.78272e-07 0)
(0.193741 0.00971027 0)
(0.196418 0.0114315 0)
(0.199813 0.0114639 0)
(0.202618 0.0104496 0)
(0.204291 0.009205 0)
(0.204954 0.00813028 0)
(0.20487 0.00728807 0)
(0.204201 0.00662132 0)
(0.203036 0.00606432 0)
(0.201446 0.00557286 0)
(0.199507 0.00512461 0)
(0.197294 0.00471053 0)
(0.194879 0.0043267 0)
(0.192325 0.00397027 0)
(0.189688 0.0036384 0)
(0.187016 0.00332829 0)
(0.184348 0.0030373 0)
(0.181719 0.00276303 0)
(0.179156 0.00250334 0)
(0.176684 0.00225635 0)
(0.174322 0.00202043 0)
(0.172088 0.00179424 0)
(0.169994 0.00157683 0)
(0.168054 0.00136789 0)
(0.166275 0.00116812 0)
(0.164662 0.000979592 0)
(0.163216 0.000805661 0)
(0.161934 0.000650386 0)
(0.160808 0.000517367 0)
(0.159828 0.000408489 0)
(0.158979 0.000323146 0)
(0.158247 0.0002583 0)
(0.157615 0.000209379 0)
(0.15707 0.000171517 0)
(0.156599 0.000140651 0)
(0.156192 0.000114057 0)
(0.15584 9.03758e-05 0)
(0.155539 6.91519e-05 0)
(0.155282 5.04545e-05 0)
(0.155066 3.451e-05 0)
(0.154887 2.1219e-05 0)
(0.154739 1.02676e-05 0)
(0.154619 1.22702e-06 0)
(0.154526 -6.16516e-06 0)
(0.154456 -1.2071e-05 0)
(0.154409 -1.64565e-05 0)
(0.154381 -1.92349e-05 0)
(0.15437 -2.04251e-05 0)
(0.154372 -2.02242e-05 0)
(0.154381 -1.89891e-05 0)
(0.154393 -1.71443e-05 0)
(0.154407 -1.50748e-05 0)
(0.15442 -1.30567e-05 0)
(0.154431 -1.12416e-05 0)
(0.154442 -9.68049e-06 0)
(0.15445 -8.36334e-06 0)
(0.154458 -7.25368e-06 0)
(0.154464 -6.31094e-06 0)
(0.15447 -5.5008e-06 0)
(0.154475 -4.79733e-06 0)
(0.154479 -4.18175e-06 0)
(0.154483 -3.64029e-06 0)
(0.154486 -3.16236e-06 0)
(0.154489 -2.73946e-06 0)
(0.154492 -2.36449e-06 0)
(0.154494 -2.0314e-06 0)
(0.154496 -1.73493e-06 0)
(0.154498 -1.47057e-06 0)
(0.154499 -1.23444e-06 0)
(0.1545 -1.02382e-06 0)
(0.154501 -8.35025e-07 0)
(0.154502 -6.75321e-07 0)
(0.154503 -5.16677e-07 0)
(0.154503 -4.82194e-07 0)
(0.154503 -2.21133e-07 0)
(0.194524 0.00910612 0)
(0.196667 0.010621 0)
(0.199205 0.0107176 0)
(0.20125 0.00987992 0)
(0.202555 0.00880769 0)
(0.203334 0.00787298 0)
(0.203827 0.00714756 0)
(0.204132 0.00658769 0)
(0.20425 0.00613559 0)
(0.20416 0.00574768 0)
(0.203851 0.00539758 0)
(0.203322 0.00507154 0)
(0.202583 0.00476251 0)
(0.20165 0.00446629 0)
(0.200548 0.00417999 0)
(0.1993 0.00390159 0)
(0.197935 0.00362967 0)
(0.196479 0.00336322 0)
(0.19496 0.00310152 0)
(0.1934 0.00284403 0)
(0.191825 0.00259037 0)
(0.190255 0.00234031 0)
(0.18871 0.00209394 0)
(0.187209 0.00185196 0)
(0.185767 0.00161613 0)
(0.184397 0.00138957 0)
(0.183111 0.00117672 0)
(0.181915 0.000982728 0)
(0.180816 0.000812174 0)
(0.179816 0.000667827 0)
(0.178912 0.000549767 0)
(0.178102 0.000455401 0)
(0.177379 0.000380333 0)
(0.176738 0.000319627 0)
(0.176168 0.000268935 0)
(0.175664 0.000225088 0)
(0.175218 0.000186209 0)
(0.174824 0.000151439 0)
(0.174479 0.000120613 0)
(0.174178 9.38473e-05 0)
(0.173918 7.10197e-05 0)
(0.173694 5.17415e-05 0)
(0.173502 3.53393e-05 0)
(0.173339 2.11291e-05 0)
(0.173204 8.74663e-06 0)
(0.173097 -1.71711e-06 0)
(0.173017 -9.90408e-06 0)
(0.172963 -1.55191e-05 0)
(0.17293 -1.85634e-05 0)
(0.172913 -1.93991e-05 0)
(0.172907 -1.86402e-05 0)
(0.172908 -1.69607e-05 0)
(0.172911 -1.49264e-05 0)
(0.172915 -1.29119e-05 0)
(0.172918 -1.11054e-05 0)
(0.172921 -9.56233e-06 0)
(0.172924 -8.26627e-06 0)
(0.172926 -7.17504e-06 0)
(0.172928 -6.24583e-06 0)
(0.17293 -5.44444e-06 0)
(0.172931 -4.74604e-06 0)
(0.172932 -4.1329e-06 0)
(0.172933 -3.59194e-06 0)
(0.172934 -3.11298e-06 0)
(0.172935 -2.68772e-06 0)
(0.172936 -2.30917e-06 0)
(0.172936 -1.97137e-06 0)
(0.172937 -1.6692e-06 0)
(0.172937 -1.39829e-06 0)
(0.172938 -1.1556e-06 0)
(0.172938 -9.37072e-07 0)
(0.172938 -7.50795e-07 0)
(0.172938 -5.65936e-07 0)
(0.172938 -5.22801e-07 0)
(0.172938 -2.16763e-07 0)
(0.19516 0.00852713 0)
(0.196977 0.00985606 0)
(0.199128 0.0100486 0)
(0.200851 0.00941821 0)
(0.201907 0.00851918 0)
(0.202486 0.00768738 0)
(0.202849 0.00701335 0)
(0.203132 0.00648041 0)
(0.203375 0.00605093 0)
(0.203574 0.0056916 0)
(0.203716 0.00537822 0)
(0.203787 0.0050951 0)
(0.203771 0.00483222 0)
(0.203658 0.00458265 0)
(0.203442 0.00434124 0)
(0.203121 0.00410426 0)
(0.202698 0.00386903 0)
(0.202178 0.00363376 0)
(0.201569 0.00339733 0)
(0.200881 0.00315909 0)
(0.200124 0.00291875 0)
(0.199311 0.00267634 0)
(0.198454 0.00243227 0)
(0.197565 0.00218764 0)
(0.196657 0.00194467 0)
(0.195742 0.00170697 0)
(0.194834 0.00147951 0)
(0.193945 0.00126799 0)
(0.193086 0.00107769 0)
(0.192267 0.000912149 0)
(0.191498 0.000772289 0)
(0.190782 0.000656322 0)
(0.190123 0.000560521 0)
(0.189521 0.000480445 0)
(0.188972 0.000412038 0)
(0.188474 0.000352199 0)
(0.188023 0.000298882 0)
(0.187615 0.000250941 0)
(0.187247 0.000207956 0)
(0.186918 0.000169985 0)
(0.186626 0.000137072 0)
(0.186368 0.000108915 0)
(0.186139 8.46671e-05 0)
(0.185938 6.32371e-05 0)
(0.185762 4.38408e-05 0)
(0.185612 2.63492e-05 0)
(0.185489 1.12591e-05 0)
(0.185394 -7.02828e-07 0)
(0.185326 -9.06694e-06 0)
(0.18528 -1.39141e-05 0)
(0.185251 -1.58475e-05 0)
(0.185233 -1.57507e-05 0)
(0.185223 -1.45082e-05 0)
(0.185217 -1.28093e-05 0)
(0.185212 -1.10824e-05 0)
(0.185208 -9.53015e-06 0)
(0.185205 -8.20848e-06 0)
(0.185202 -7.10089e-06 0)
(0.185199 -6.16797e-06 0)
(0.185197 -5.37152e-06 0)
(0.185195 -4.68212e-06 0)
(0.185193 -4.0789e-06 0)
(0.185191 -3.547e-06 0)
(0.18519 -3.07548e-06 0)
(0.185189 -2.65571e-06 0)
(0.185187 -2.28061e-06 0)
(0.185186 -1.94427e-06 0)
(0.185186 -1.64168e-06 0)
(0.185185 -1.36859e-06 0)
(0.185184 -1.12217e-06 0)
(0.185184 -8.98491e-07 0)
(0.185183 -7.0633e-07 0)
(0.185182 -5.143e-07 0)
(0.185182 -4.68254e-07 0)
(0.185181 -1.45492e-07 0)
(0.195707 0.00802151 0)
(0.197243 0.00918388 0)
(0.199095 0.00944303 0)
(0.200644 0.00899034 0)
(0.201637 0.00825588 0)
(0.202185 0.00753249 0)
(0.202496 0.00691682 0)
(0.202706 0.00640979 0)
(0.202872 0.00598981 0)
(0.203017 0.00563476 0)
(0.203149 0.00532632 0)
(0.203269 0.00505112 0)
(0.203375 0.00479983 0)
(0.203458 0.00456546 0)
(0.203511 0.00434236 0)
(0.203527 0.00412598 0)
(0.203499 0.00391274 0)
(0.203423 0.00369996 0)
(0.203295 0.00348571 0)
(0.203111 0.00326867 0)
(0.202873 0.00304804 0)
(0.202579 0.00282343 0)
(0.202231 0.00259491 0)
(0.201832 0.00236329 0)
(0.201386 0.00213046 0)
(0.200899 0.00189974 0)
(0.200378 0.00167581 0)
(0.199833 0.0014642 0)
(0.199276 0.00127021 0)
(0.198719 0.00109776 0)
(0.198172 0.000948407 0)
(0.197645 0.000821185 0)
(0.197145 0.00071319 0)
(0.196674 0.000620698 0)
(0.196235 0.000540208 0)
(0.195826 0.000468976 0)
(0.195448 0.000405056 0)
(0.195097 0.000347169 0)
(0.194773 0.000294686 0)
(0.194477 0.000247586 0)
(0.194207 0.000206085 0)
(0.193963 0.000170137 0)
(0.193743 0.000139012 0)
(0.193543 0.000111405 0)
(0.193363 8.60514e-05 0)
(0.193202 6.23721e-05 0)
(0.193062 4.07461e-05 0)
(0.192947 2.2188e-05 0)
(0.192855 7.69295e-06 0)
(0.192787 -2.31797e-06 0)
(0.192738 -8.1744e-06 0)
(0.192704 -1.07711e-05 0)
(0.19268 -1.12086e-05 0)
(0.192663 -1.04751e-05 0)
(0.19265 -9.2784e-06 0)
(0.192639 -8.0274e-06 0)
(0.192629 -6.90286e-06 0)
(0.192621 -5.95025e-06 0)
(0.192614 -5.1545e-06 0)
(0.192608 -4.48385e-06 0)
(0.192602 -3.90913e-06 0)
(0.192597 -3.40871e-06 0)
(0.192593 -2.96755e-06 0)
(0.192589 -2.57511e-06 0)
(0.192586 -2.22359e-06 0)
(0.192583 -1.90689e-06 0)
(0.19258 -1.62003e-06 0)
(0.192578 -1.35892e-06 0)
(0.192576 -1.12018e-06 0)
(0.192575 -9.01784e-07 0)
(0.192573 -7.00549e-07 0)
(0.192572 -5.25698e-07 0)
(0.19257 -3.48011e-07 0)
(0.19257 -3.06006e-07 0)
(0.192568 1.41106e-09 0)
(0.196187 0.0075848 0)
(0.197491 0.00859892 0)
(0.199076 0.00889424 0)
(0.200462 0.00858054 0)
(0.201412 0.00798839 0)
(0.201979 0.00736879 0)
(0.202316 0.00681781 0)
(0.202534 0.00634693 0)
(0.202688 0.0059451 0)
(0.202804 0.0055984 0)
(0.202897 0.00529365 0)
(0.202979 0.0050202 0)
(0.203055 0.00477023 0)
(0.203127 0.00453777 0)
(0.203193 0.00431787 0)
(0.203253 0.00410632 0)
(0.203302 0.00389968 0)
(0.203338 0.00369524 0)
(0.203355 0.00349091 0)
(0.20335 0.00328519 0)
(0.203317 0.00307705 0)
(0.203252 0.00286581 0)
(0.203151 0.00265121 0)
(0.203011 0.00243363 0)
(0.20283 0.00221438 0)
(0.202606 0.00199607 0)
(0.202343 0.00178262 0)
(0.202046 0.00157885 0)
(0.201722 0.00138957 0)
(0.201381 0.00121859 0)
(0.201033 0.00106779 0)
(0.200687 0.000936784 0)
(0.200348 0.000823409 0)
(0.200023 0.000724622 0)
(0.199712 0.000637488 0)
(0.199418 0.000559673 0)
(0.19914 0.000489439 0)
(0.198877 0.000425491 0)
(0.198629 0.000367032 0)
(0.198397 0.000313906 0)
(0.198181 0.000266411 0)
(0.197982 0.00022478 0)
(0.197799 0.000188551 0)
(0.19763 0.000156427 0)
(0.197474 0.000126831 0)
(0.197329 9.87379e-05 0)
(0.197199 7.22262e-05 0)
(0.197085 4.83384e-05 0)
(0.196989 2.84207e-05 0)
(0.196912 1.33904e-05 0)
(0.196852 3.32737e-06 0)
(0.196807 -2.47862e-06 0)
(0.196773 -5.17093e-06 0)
(0.196747 -5.92594e-06 0)
(0.196726 -5.68395e-06 0)
(0.196709 -5.05769e-06 0)
(0.196694 -4.3723e-06 0)
(0.196682 -3.75925e-06 0)
(0.196671 -3.24716e-06 0)
(0.196661 -2.82343e-06 0)
(0.196653 -2.4665e-06 0)
(0.196645 -2.15806e-06 0)
(0.196639 -1.88527e-06 0)
(0.196633 -1.63968e-06 0)
(0.196628 -1.41558e-06 0)
(0.196624 -1.20888e-06 0)
(0.19662 -1.01653e-06 0)
(0.196617 -8.36158e-07 0)
(0.196614 -6.65934e-07 0)
(0.196611 -5.05198e-07 0)
(0.196609 -3.52143e-07 0)
(0.196607 -2.1619e-07 0)
(0.196605 -7.28332e-08 0)
(0.196604 -4.25642e-08 0)
(0.196602 2.21118e-07 0)
(0.196608 0.0072007 0)
(0.197723 0.00808302 0)
(0.199081 0.00839404 0)
(0.200312 0.00818979 0)
(0.201206 0.00771934 0)
(0.20178 0.00719375 0)
(0.202144 0.00670551 0)
(0.20239 0.00627371 0)
(0.202564 0.00589515 0)
(0.20269 0.00556216 0)
(0.202784 0.00526567 0)
(0.202858 0.00499724 0)
(0.202919 0.00475023 0)
(0.202972 0.00451947 0)
(0.203019 0.00430067 0)
(0.203063 0.00409017 0)
(0.203102 0.00388494 0)
(0.203137 0.0036826 0)
(0.203166 0.00348136 0)
(0.203187 0.00327994 0)
(0.203196 0.00307747 0)
(0.203189 0.00287336 0)
(0.203161 0.00266731 0)
(0.203109 0.00245948 0)
(0.203028 0.00225077 0)
(0.202916 0.00204313 0)
(0.202773 0.0018397 0)
(0.2026 0.00164444 0)
(0.202402 0.00146153 0)
(0.202187 0.00129441 0)
(0.201961 0.00114502 0)
(0.201732 0.00101338 0)
(0.201505 0.000897886 0)
(0.201284 0.000796057 0)
(0.201072 0.000705437 0)
(0.200868 0.000624036 0)
(0.200674 0.000550313 0)
(0.200487 0.000483007 0)
(0.20031 0.000421205 0)
(0.20014 0.000364596 0)
(0.19998 0.00031345 0)
(0.19983 0.00026816 0)
(0.19969 0.000228513 0)
(0.199559 0.000193362 0)
(0.199436 0.000161035 0)
(0.19932 0.000130209 0)
(0.199213 0.000100633 0)
(0.199114 7.32048e-05 0)
(0.199027 4.93914e-05 0)
(0.198953 3.04247e-05 0)
(0.198891 1.67425e-05 0)
(0.198841 7.89897e-06 0)
(0.198802 2.84986e-06 0)
(0.19877 3.6998e-07 0)
(0.198744 -6.12008e-07 0)
(0.198722 -8.57139e-07 0)
(0.198704 -8.15137e-07 0)
(0.198688 -7.04084e-07 0)
(0.198674 -6.04684e-07 0)
(0.198662 -5.32492e-07 0)
(0.198652 -4.804e-07 0)
(0.198643 -4.37889e-07 0)
(0.198635 -3.97115e-07 0)
(0.198628 -3.53506e-07 0)
(0.198622 -3.04725e-07 0)
(0.198616 -2.49722e-07 0)
(0.198612 -1.88142e-07 0)
(0.198608 -1.20041e-07 0)
(0.198604 -4.57378e-08 0)
(0.198601 3.35873e-08 0)
(0.198598 1.17842e-07 0)
(0.198596 1.97604e-07 0)
(0.198594 2.90943e-07 0)
(0.198592 3.01749e-07 0)
(0.19859 5.02214e-07 0)
(0.196978 0.00685895 0)
(0.197938 0.00762676 0)
(0.199106 0.00794044 0)
(0.200196 0.00782188 0)
(0.201029 0.00745459 0)
(0.201596 0.00701267 0)
(0.201976 0.00658292 0)
(0.202243 0.00618984 0)
(0.202436 0.00583619 0)
(0.202578 0.00551922 0)
(0.202685 0.0052334 0)
(0.202767 0.00497235 0)
(0.202833 0.0047305 0)
(0.202885 0.00450335 0)
(0.202929 0.0042871 0)
(0.202965 0.00407849 0)
(0.202996 0.00387483 0)
(0.203021 0.00367405 0)
(0.203041 0.00347464 0)
(0.203055 0.00327563 0)
(0.20306 0.00307642 0)
(0.203055 0.00287663 0)
(0.203035 0.00267611 0)
(0.202997 0.00247494 0)
(0.202939 0.00227377 0)
(0.202857 0.0020741 0)
(0.202751 0.0018784 0)
(0.202622 0.00168993 0)
(0.202475 0.00151226 0)
(0.202313 0.00134848 0)
(0.202143 0.00120048 0)
(0.201971 0.00106858 0)
(0.201801 0.000951645 0)
(0.201637 0.000847679 0)
(0.201479 0.000754614 0)
(0.201328 0.000670729 0)
(0.201184 0.000594637 0)
(0.201046 0.000525124 0)
(0.200914 0.000461218 0)
(0.200788 0.000402475 0)
(0.200668 0.000349069 0)
(0.200554 0.000301407 0)
(0.200447 0.000259429 0)
(0.200346 0.000222166 0)
(0.200252 0.000188004 0)
(0.200162 0.000155496 0)
(0.200077 0.000124156 0)
(0.199997 9.46688e-05 0)
(0.199922 6.84395e-05 0)
(0.199856 4.68114e-05 0)
(0.199798 3.04454e-05 0)
(0.199748 1.91245e-05 0)
(0.199707 1.19587e-05 0)
(0.199672 7.77683e-06 0)
(0.199644 5.47777e-06 0)
(0.19962 4.22601e-06 0)
(0.199599 3.48935e-06 0)
(0.199581 2.9807e-06 0)
(0.199566 2.57057e-06 0)
(0.199552 2.21247e-06 0)
(0.199541 1.89497e-06 0)
(0.19953 1.61733e-06 0)
(0.199522 1.37996e-06 0)
(0.199514 1.18195e-06 0)
(0.199507 1.02114e-06 0)
(0.199501 8.94752e-07 0)
(0.199496 7.99792e-07 0)
(0.199491 7.33267e-07 0)
(0.199488 6.92268e-07 0)
(0.199484 6.73434e-07 0)
(0.199481 6.74398e-07 0)
(0.199479 6.85797e-07 0)
(0.199476 7.18565e-07 0)
(0.199474 7.02846e-07 0)
(0.199471 8.29133e-07 0)
(0.197303 0.00655259 0)
(0.198137 0.0072224 0)
(0.199144 0.00753002 0)
(0.200109 0.00747709 0)
(0.20088 0.00719615 0)
(0.201432 0.00682828 0)
(0.201819 0.00645285 0)
(0.202098 0.00609759 0)
(0.202306 0.00576961 0)
(0.202461 0.00546989 0)
(0.202579 0.00519593 0)
(0.202671 0.00494336 0)
(0.202744 0.00470773 0)
(0.202803 0.00448525 0)
(0.20285 0.00427259 0)
(0.202888 0.00406686 0)
(0.202918 0.00386564 0)
(0.202942 0.0036671 0)
(0.202959 0.00347001 0)
(0.202968 0.00327362 0)
(0.202969 0.00307758 0)
(0.202959 0.00288174 0)
(0.202936 0.00268602 0)
(0.202897 0.00249051 0)
(0.202839 0.00229566 0)
(0.202761 0.00210256 0)
(0.202664 0.00191315 0)
(0.202547 0.00173012 0)
(0.202415 0.00155653 0)
(0.202272 0.00139516 0)
(0.202123 0.00124792 0)
(0.201973 0.00111536 0)
(0.201826 0.000996764 0)
(0.201685 0.000890593 0)
(0.201551 0.000795128 0)
(0.201424 0.000708869 0)
(0.201304 0.000630552 0)
(0.20119 0.00055902 0)
(0.201081 0.000493292 0)
(0.200978 0.000432835 0)
(0.20088 0.000377701 0)
(0.200787 0.000328229 0)
(0.2007 0.000284406 0)
(0.200618 0.000245407 0)
(0.200541 0.000209749 0)
(0.200468 0.000176 0)
(0.200399 0.000143545 0)
(0.200332 0.00011287 0)
(0.200269 8.52209e-05 0)
(0.200211 6.19044e-05 0)
(0.200157 4.36675e-05 0)
(0.20011 3.04467e-05 0)
(0.200069 2.15037e-05 0)
(0.200034 1.57672e-05 0)
(0.200004 1.21718e-05 0)
(0.199979 9.86743e-06 0)
(0.199957 8.28156e-06 0)
(0.199939 7.08141e-06 0)
(0.199922 6.09834e-06 0)
(0.199908 5.25695e-06 0)
(0.199896 4.52611e-06 0)
(0.199885 3.89193e-06 0)
(0.199876 3.34575e-06 0)
(0.199867 2.87995e-06 0)
(0.19986 2.48706e-06 0)
(0.199854 2.15987e-06 0)
(0.199849 1.89158e-06 0)
(0.199844 1.67591e-06 0)
(0.19984 1.50706e-06 0)
(0.199836 1.37928e-06 0)
(0.199833 1.28773e-06 0)
(0.19983 1.223e-06 0)
(0.199828 1.18894e-06 0)
(0.199826 1.14032e-06 0)
(0.199823 1.18838e-06 0)
(0.197592 0.00627601 0)
(0.198319 0.00686243 0)
(0.199192 0.00715838 0)
(0.200046 0.00715466 0)
(0.200755 0.00694529 0)
(0.201287 0.00664257 0)
(0.201674 0.00631728 0)
(0.201961 0.00599858 0)
(0.202179 0.00569658 0)
(0.202345 0.005415 0)
(0.202472 0.00515383 0)
(0.202572 0.00491055 0)
(0.202651 0.00468186 0)
(0.202715 0.00446467 0)
(0.202766 0.00425617 0)
(0.202808 0.00405385 0)
(0.202841 0.00385559 0)
(0.202865 0.0036598 0)
(0.202883 0.00346547 0)
(0.202892 0.00327211 0)
(0.202892 0.00307957 0)
(0.20288 0.00288788 0)
(0.202856 0.00269704 0)
(0.202816 0.0025071 0)
(0.202758 0.00231829 0)
(0.202681 0.00213133 0)
(0.202586 0.00194768 0)
(0.202474 0.00176951 0)
(0.202347 0.00159945 0)
(0.202212 0.00144006 0)
(0.202071 0.00129322 0)
(0.20193 0.00115974 0)
(0.201793 0.0010393 0)
(0.201661 0.000930774 0)
(0.201536 0.000832788 0)
(0.201419 0.000744041 0)
(0.201308 0.000663382 0)
(0.201204 0.000589718 0)
(0.201106 0.000522091 0)
(0.201013 0.000459919 0)
(0.200925 0.000403147 0)
(0.200842 0.000352008 0)
(0.200764 0.000306474 0)
(0.200691 0.00026582 0)
(0.200623 0.000228713 0)
(0.20056 0.000193808 0)
(0.200499 0.000160441 0)
(0.200441 0.00012894 0)
(0.200385 0.000100368 0)
(0.200332 7.59158e-05 0)
(0.200283 5.63237e-05 0)
(0.200238 4.16138e-05 0)
(0.200198 3.11706e-05 0)
(0.200164 2.40316e-05 0)
(0.200134 1.91979e-05 0)
(0.200108 1.58407e-05 0)
(0.200086 1.33765e-05 0)
(0.200067 1.14461e-05 0)
(0.20005 9.85206e-06 0)
(0.200036 8.49388e-06 0)
(0.200023 7.32144e-06 0)
(0.200012 6.3071e-06 0)
(0.200002 5.43224e-06 0)
(0.199994 4.68178e-06 0)
(0.199987 4.04236e-06 0)
(0.19998 3.50194e-06 0)
(0.199975 3.04962e-06 0)
(0.19997 2.67558e-06 0)
(0.199966 2.37096e-06 0)
(0.199962 2.12745e-06 0)
(0.199959 1.93764e-06 0)
(0.199956 1.79189e-06 0)
(0.199954 1.68747e-06 0)
(0.199952 1.60046e-06 0)
(0.199949 1.57035e-06 0)
(0.197848 0.00602477 0)
(0.198487 0.00654042 0)
(0.199246 0.00682149 0)
(0.200002 0.00685396 0)
(0.200651 0.00670332 0)
(0.201159 0.00645746 0)
(0.201541 0.00617802 0)
(0.201832 0.00589416 0)
(0.202056 0.00561796 0)
(0.20223 0.0053551 0)
(0.202365 0.00510749 0)
(0.202471 0.00487423 0)
(0.202556 0.00465313 0)
(0.202625 0.0044418 0)
(0.20268 0.00423795 0)
(0.202724 0.00403945 0)
(0.202759 0.0038445 0)
(0.202785 0.00365177 0)
(0.202804 0.00346049 0)
(0.202814 0.0032704 0)
(0.202814 0.00308159 0)
(0.202803 0.00289421 0)
(0.202778 0.00270837 0)
(0.202739 0.00252403 0)
(0.202682 0.00234121 0)
(0.202607 0.00216026 0)
(0.202515 0.00198217 0)
(0.202407 0.00180865 0)
(0.202285 0.00164194 0)
(0.202155 0.00148438 0)
(0.20202 0.00133789 0)
(0.201885 0.00120349 0)
(0.201753 0.00108122 0)
(0.201626 0.000970355 0)
(0.201506 0.000869835 0)
(0.201393 0.000778559 0)
(0.201287 0.000695487 0)
(0.201187 0.000619597 0)
(0.201093 0.000549967 0)
(0.201005 0.000485997 0)
(0.200921 0.000427544 0)
(0.200843 0.000374735 0)
(0.200769 0.000327501 0)
(0.2007 0.000285185 0)
(0.200637 0.000246592 0)
(0.200578 0.000210488 0)
(0.200521 0.00017621 0)
(0.200468 0.000143965 0)
(0.200416 0.000114643 0)
(0.200366 8.92925e-05 0)
(0.20032 6.86031e-05 0)
(0.200277 5.26351e-05 0)
(0.200239 4.08663e-05 0)
(0.200205 3.24348e-05 0)
(0.200175 2.64164e-05 0)
(0.200149 2.20198e-05 0)
(0.200127 1.86675e-05 0)
(0.200108 1.59867e-05 0)
(0.200091 1.37587e-05 0)
(0.200076 1.18622e-05 0)
(0.200064 1.02292e-05 0)
(0.200053 8.8186e-06 0)
(0.200043 7.60141e-06 0)
(0.200035 6.55468e-06 0)
(0.200027 5.65882e-06 0)
(0.200021 4.89665e-06 0)
(0.200015 4.25297e-06 0)
(0.200011 3.71428e-06 0)
(0.200006 3.26851e-06 0)
(0.200003 2.90469e-06 0)
(0.2 2.6128e-06 0)
(0.199997 2.38274e-06 0)
(0.199994 2.20589e-06 0)
(0.199992 2.07588e-06 0)
(0.199989 1.96924e-06 0)
(0.198078 0.00579538 0)
(0.19864 0.00625099 0)
(0.199304 0.00651573 0)
(0.199973 0.00657419 0)
(0.200566 0.00647122 0)
(0.201046 0.00627451 0)
(0.201419 0.00603661 0)
(0.20171 0.00578557 0)
(0.201938 0.0055346 0)
(0.202117 0.0052907 0)
(0.202258 0.00505721 0)
(0.20237 0.0048346 0)
(0.20246 0.00462167 0)
(0.202533 0.00441674 0)
(0.202591 0.004218 0)
(0.202638 0.00402373 0)
(0.202675 0.00383242 0)
(0.202703 0.00364303 0)
(0.202722 0.00345503 0)
(0.202732 0.00326842 0)
(0.202733 0.00308347 0)
(0.202723 0.00290052 0)
(0.202699 0.00271972 0)
(0.202661 0.00254098 0)
(0.202606 0.00236407 0)
(0.202534 0.00218901 0)
(0.202445 0.00201635 0)
(0.202341 0.00184734 0)
(0.202224 0.00168389 0)
(0.202099 0.00152816 0)
(0.20197 0.00138207 0)
(0.20184 0.00124684 0)
(0.201713 0.00112287 0)
(0.201591 0.00100978 0)
(0.201474 0.000906803 0)
(0.201364 0.000813045 0)
(0.201261 0.000727571 0)
(0.201164 0.000649434 0)
(0.201073 0.000577757 0)
(0.200987 0.000511934 0)
(0.200906 0.000451756 0)
(0.20083 0.000397256 0)
(0.200759 0.000348318 0)
(0.200692 0.000304334 0)
(0.200631 0.000264227 0)
(0.200574 0.000226872 0)
(0.20052 0.000191626 0)
(0.200468 0.000158608 0)
(0.200419 0.000128556 0)
(0.200371 0.000102378 0)
(0.200327 8.0696e-05 0)
(0.200286 6.35821e-05 0)
(0.200248 5.0585e-05 0)
(0.200215 4.09302e-05 0)
(0.200186 3.3766e-05 0)
(0.20016 2.83443e-05 0)
(0.200138 2.41012e-05 0)
(0.200119 2.06583e-05 0)
(0.200102 1.77815e-05 0)
(0.200088 1.53313e-05 0)
(0.200075 1.32239e-05 0)
(0.200064 1.14048e-05 0)
(0.200055 9.8348e-06 0)
(0.200046 8.4828e-06 0)
(0.200039 7.32278e-06 0)
(0.200033 6.33225e-06 0)
(0.200027 5.49154e-06 0)
(0.200022 4.78333e-06 0)
(0.200018 4.19225e-06 0)
(0.200014 3.7046e-06 0)
(0.200011 3.30775e-06 0)
(0.200008 2.99083e-06 0)
(0.200006 2.74005e-06 0)
(0.200004 2.56325e-06 0)
(0.200001 2.38175e-06 0)
(0.198283 0.00558508 0)
(0.19878 0.00598966 0)
(0.199363 0.00623771 0)
(0.199957 0.00631431 0)
(0.200496 0.00624961 0)
(0.200947 0.006095 0)
(0.201308 0.00589441 0)
(0.201595 0.00567398 0)
(0.201824 0.00544738 0)
(0.202007 0.00522238 0)
(0.202153 0.00500336 0)
(0.202269 0.00479186 0)
(0.202363 0.00458761 0)
(0.202439 0.00438955 0)
(0.202501 0.00419636 0)
(0.20255 0.00400669 0)
(0.202588 0.00381937 0)
(0.202618 0.00363359 0)
(0.202638 0.00344911 0)
(0.202649 0.00326615 0)
(0.20265 0.0030852 0)
(0.20264 0.00290675 0)
(0.202618 0.00273103 0)
(0.20258 0.00255785 0)
(0.202527 0.00238678 0)
(0.202458 0.00221749 0)
(0.202373 0.0020501 0)
(0.202273 0.00188548 0)
(0.202162 0.00172522 0)
(0.202042 0.0015713 0)
(0.201919 0.00142566 0)
(0.201794 0.00128974 0)
(0.201672 0.0011642 0)
(0.201554 0.00104902 0)
(0.201441 0.000943709 0)
(0.201335 0.000847551 0)
(0.201234 0.00075973 0)
(0.20114 0.000679372 0)
(0.201051 0.000605647 0)
(0.200967 0.000537952 0)
(0.200888 0.000476026 0)
(0.200814 0.000419825 0)
(0.200745 0.00036919 0)
(0.20068 0.000323548 0)
(0.20062 0.00028192 0)
(0.200564 0.000243281 0)
(0.200511 0.000207013 0)
(0.200461 0.000173168 0)