/*--------------------------------*- C++ -*----------------------------------*\
| =========                 |                                                 |
| \\      /  F ield         | OpenFOAM: The Open Source CFD Toolbox           |
|  \\    /   O peration     | Version:  2.3.0                                 |
|   \\  /    A nd           | Web:      www.OpenFOAM.org                      |
|    \\/     M anipulation  |                                                 |
\*---------------------------------------------------------------------------*/
FoamFile
{
    version     2.0;
    format      ascii;
    class       volScalarField;
    location    "0.35";
    object      p;
}
// * * * * * * * * * * * * * * * * * * * * * * * * * * * * * * * * * * * * * //

dimensions      [0 2 -2 0 0 0 0];

internalField   nonuniform List<scalar> 
8750
(
0.00314664
0.00255324
0.00206859
0.00171888
0.00142956
0.00116918
0.00093761
0.000739434
0.000576146
0.000446729
0.000348609
0.000277996
0.00023024
0.000200386
0.000183707
0.000176087
0.000174214
0.000175603
0.000178515
0.000181822
0.000184853
0.000187259
0.000188898
0.000189757
0.000189886
0.000189365
0.00018828
0.00018671
0.000184727
0.000182387
0.000179736
0.000176809
0.000173635
0.000170236
0.000166628
0.000162828
0.000158845
0.000154691
0.000150374
0.000145902
0.000141284
0.000136527
0.000131638
0.000126623
0.000121491
0.000116248
0.000110902
0.00010546
9.99319e-05
9.43253e-05
8.86502e-05
8.29166e-05
7.7136e-05
7.13203e-05
6.5483e-05
5.96387e-05
5.38035e-05
4.7995e-05
4.22326e-05
3.65373e-05
3.09323e-05
2.54427e-05
2.00958e-05
1.49216e-05
9.95283e-06
5.22629e-06
7.83259e-07
-3.32853e-06
-7.05445e-06
-1.03317e-05
-1.30902e-05
-1.52551e-05
-1.67519e-05
-1.75167e-05
-1.75081e-05
-1.67157e-05
-1.5176e-05
-1.30186e-05
-1.03758e-05
-7.44191e-06
-4.39182e-06
-1.38276e-06
1.45484e-06
4.02761e-06
6.26636e-06
8.13301e-06
9.60823e-06
1.06896e-05
1.13892e-05
1.17254e-05
1.17221e-05
1.14073e-05
1.08092e-05
9.95575e-06
8.87466e-06
7.59261e-06
6.13571e-06
4.53159e-06
2.81716e-06
1.15745e-06
0.00286618
0.00244279
0.00204476
0.00172731
0.00145224
0.0011991
0.000970672
0.000773133
0.000609026
0.000477906
0.000377539
0.000304374
0.000253955
0.00022147
0.000202294
0.00019238
0.00018845
0.000188032
0.000189383
0.000191355
0.000193256
0.000194709
0.000195547
0.00019573
0.000195286
0.000194275
0.00019277
0.000190837
0.000188535
0.000185915
0.000183015
0.000179867
0.000176493
0.000172914
0.000169144
0.000165194
0.000161075
0.000156795
0.000152363
0.000147784
0.000143067
0.000138217
0.000133241
0.000128145
0.000122937
0.000117622
0.000112208
0.000106702
0.000101112
9.54471e-05
8.97161e-05
8.39291e-05
7.80971e-05
7.22319e-05
6.63468e-05
6.04562e-05
5.45761e-05
4.87238e-05
4.29187e-05
3.71817e-05
3.15358e-05
2.60061e-05
2.06196e-05
1.54064e-05
1.0399e-05
5.63395e-06
1.15232e-06
-2.99851e-06
-6.76428e-06
-1.00826e-05
-1.28835e-05
-1.50922e-05
-1.66337e-05
-1.74422e-05
-1.74727e-05
-1.6716e-05
-1.52233e-05
-1.30818e-05
-1.04514e-05
-7.52023e-06
-4.46878e-06
-1.45731e-06
1.38276e-06
3.95919e-06
6.20185e-06
8.07289e-06
9.55251e-06
1.06381e-05
1.13417e-05
1.16817e-05
1.16819e-05
1.13705e-05
1.07756e-05
9.92507e-06
8.84678e-06
7.5674e-06
6.11295e-06
4.51086e-06
2.79786e-06
1.16217e-06
0.00266192
0.00234525
0.00200755
0.0017148
0.00145533
0.00121583
0.000998073
0.000807553
0.000647026
0.000516559
0.000414544
0.000338144
0.000283605
0.000246715
0.000223299
0.000209595
0.000202461
0.000199451
0.000198774
0.000199196
0.000199927
0.000200499
0.000200669
0.000200333
0.000199477
0.000198129
0.000196337
0.000194155
0.000191633
0.000188813
0.000185732
0.000182417
0.000178891
0.00017517
0.000171269
0.000167199
0.000162968
0.000158585
0.000154056
0.000149388
0.000144588
0.00013966
0.000134612
0.000129448
0.000124175
0.0001188
0.000113329
0.000107769
0.000102128
9.64144e-05
9.06368e-05
8.48051e-05
7.89301e-05
7.30235e-05
6.70984e-05
6.11689e-05
5.52509e-05
4.93617e-05
4.35203e-05
3.77477e-05
3.20667e-05
2.65023e-05
2.10814e-05
1.58339e-05
1.07922e-05
5.99277e-06
1.47634e-06
-2.70983e-06
-6.51158e-06
-9.8665e-06
-1.27045e-05
-1.49501e-05
-1.65278e-05
-1.73705e-05
-1.74313e-05
-1.66971e-05
-1.5197e-05
-1.30418e-05
-1.0425e-05
-7.52259e-06
-4.48548e-06
-1.47818e-06
1.35989e-06
3.93596e-06
6.17738e-06
8.0479e-06
9.5272e-06
1.06126e-05
1.13166e-05
1.1657e-05
1.16576e-05
1.13468e-05
1.07525e-05
9.90248e-06
8.82463e-06
7.54557e-06
6.09133e-06
4.49028e-06
2.78569e-06
1.18707e-06
0.0024892
0.00224142
0.00195508
0.0016908
0.0014515
0.00122953
0.00102593
0.000845384
0.000690853
0.00056294
0.000460669
0.000381904
0.00032362
0.000282271
0.000254214
0.000236062
0.000224902
0.000218393
0.000214764
0.000212747
0.000211489
0.00021045
0.000209316
0.000207922
0.000206201
0.000204139
0.000201751
0.000199066
0.000196114
0.000192923
0.000189518
0.000185919
0.000182141
0.000178196
0.000174094
0.000169843
0.000165449
0.000160917
0.000156253
0.000151462
0.000146548
0.000141516
0.000136371
0.000131118
0.000125762
0.00012031
0.000114767
0.000109139
0.000103434
9.76607e-05
9.18264e-05
8.5941e-05
8.00147e-05
7.40592e-05
6.80871e-05
6.21126e-05
5.6151e-05
5.02196e-05
4.43372e-05
3.85245e-05
3.28043e-05
2.72011e-05
2.17421e-05
1.64566e-05
1.1377e-05
6.53967e-06
1.98525e-06
-2.23905e-06
-6.07901e-06
-9.47203e-06
-1.23476e-05
-1.46299e-05
-1.62424e-05
-1.71173e-05
-1.72072e-05
-1.65e-05
-1.50309e-05
-1.28898e-05
-1.02516e-05
-7.36141e-06
-4.37672e-06
-1.41437e-06
1.39358e-06
3.95249e-06
6.18069e-06
8.04199e-06
9.51344e-06
1.05925e-05
1.12922e-05
1.16294e-05
1.16277e-05
1.13154e-05
1.07201e-05
9.86919e-06
8.79043e-06
7.51029e-06
6.0548e-06
4.45375e-06
2.7586e-06
1.18717e-06
0.00233656
0.00213828
0.00189785
0.0016634
0.00144503
0.00124044
0.00105102
0.000880965
0.000733317
0.00060908
0.000507746
0.000427728
0.000366611
0.000321451
0.000289131
0.000266672
0.000251443
0.00024127
0.000234451
0.000229725
0.000226206
0.000223297
0.000220621
0.000217955
0.000215176
0.000212227
0.000209087
0.000205757
0.000202246
0.000198565
0.000194728
0.000190744
0.000186622
0.000182368
0.000177988
0.000173486
0.000168864
0.000164125
0.000159273
0.00015431
0.00014924
0.000144065
0.000138788
0.000133415
0.000127948
0.000122393
0.000116755
0.00011104
0.000105254
9.94041e-05
9.3499e-05
8.75472e-05
8.15588e-05
7.55447e-05
6.95173e-05
6.34903e-05
5.74789e-05
5.14998e-05
4.55716e-05
3.97147e-05
3.39516e-05
2.83067e-05
2.28067e-05
1.74809e-05
1.23614e-05
7.4845e-06
2.89085e-06
-1.37238e-06
-5.25091e-06
-8.68216e-06
-1.15957e-05
-1.39158e-05
-1.55666e-05
-1.64809e-05
-1.66123e-05
-1.59509e-05
-1.45357e-05
-1.24657e-05
-9.91162e-06
-7.04452e-06
-4.06128e-06
-1.16293e-06
1.56817e-06
4.06378e-06
6.24438e-06
8.07437e-06
9.52261e-06
1.05842e-05
1.12714e-05
1.15987e-05
1.15896e-05
1.12721e-05
1.06728e-05
9.81856e-06
8.73686e-06
7.45367e-06
5.99464e-06
4.39017e-06
2.69505e-06
1.1051e-06
0.00220536
0.00204288
0.00184039
0.00163345
0.00143495
0.00124675
0.00107103
0.000911563
0.000771316
0.000651539
0.000552092
0.000471827
0.00040884
0.000360718
0.000324827
0.000298585
0.000279651
0.000266037
0.000256143
0.000248742
0.000242938
0.000238098
0.0002338
0.00022977
0.00022584
0.000221913
0.000217934
0.000213877
0.00020973
0.00020549
0.000201155
0.000196727
0.000192205
0.000187591
0.000182885
0.000178086
0.000173195
0.000168211
0.000163135
0.000157968
0.00015271
0.000147363
0.000141929
0.00013641
0.00013081
0.000125133
0.000119382
0.000113563
0.000107681
0.000101742
9.57553e-05
8.97275e-05
8.36686e-05
7.75891e-05
7.15008e-05
6.54169e-05
5.93522e-05
5.33231e-05
4.73477e-05
4.1446e-05
3.56401e-05
2.99541e-05
2.44144e-05
1.905e-05
1.38928e-05
8.97898e-06
4.34901e-06
4.99004e-08
-3.86432e-06
-7.33164e-06
-1.02826e-05
-1.26429e-05
-1.43388e-05
-1.53057e-05
-1.55005e-05
-1.49159e-05
-1.35938e-05
-1.16352e-05
-9.1995e-06
-6.46028e-06
-3.60279e-06
-7.64176e-07
1.92925e-06
4.34595e-06
6.44329e-06
8.20382e-06
9.5975e-06
1.06192e-05
1.12787e-05
1.15848e-05
1.15596e-05
1.12301e-05
1.06211e-05
9.75888e-06
8.67016e-06
7.3801e-06
5.91323e-06
4.29839e-06
2.58435e-06
9.00696e-07
0.00209229
0.00195557
0.00178338
0.00160101
0.00142132
0.00124873
0.0010862
0.000937193
0.000804535
0.000689648
0.000592701
0.000512927
0.000448858
0.000398537
0.000359762
0.000330312
0.000308126
0.000291405
0.000278665
0.000268734
0.000260724
0.000253988
0.000248071
0.000242662
0.000237556
0.000232619
0.000227768
0.000222953
0.00021814
0.000213311
0.000208452
0.000203553
0.000198608
0.000193611
0.000188557
0.000183442
0.000178262
0.000173014
0.000167697
0.000162308
0.000156848
0.000151315
0.00014571
0.000140035
0.000134291
0.000128481
0.000122609
0.000116678
0.000110693
0.00010466
9.85868e-05
9.24797e-05
8.63479e-05
8.02015e-05
7.40518e-05
6.79115e-05
6.17949e-05
5.57179e-05
4.96983e-05
4.37555e-05
3.79112e-05
3.2189e-05
2.6615e-05
2.12178e-05
1.60291e-05
1.10846e-05
6.42466e-06
2.09564e-06
-1.84918e-06
-5.34912e-06
-8.33674e-06
-1.07407e-05
-1.24908e-05
-1.35269e-05
-1.38102e-05
-1.3337e-05
-1.21506e-05
-1.0349e-05
-8.08111e-06
-5.51414e-06
-2.81791e-06
-1.32495e-07
2.41511e-06
4.73613e-06
6.77365e-06
8.46576e-06
9.78563e-06
1.07422e-05
1.13506e-05
1.16167e-05
1.15614e-05
1.12097e-05
1.05831e-05
9.70611e-06
8.6045e-06
7.30201e-06
5.82122e-06
4.18679e-06
2.43158e-06
5.79003e-07
0.00199379
0.00187603
0.00172802
0.00156725
0.0014051
0.00124724
0.0010972
0.000958277
0.000833149
0.000723354
0.000629315
0.000550588
0.000486073
0.000434207
0.000393163
0.000361049
0.000336061
0.00031659
0.000301272
0.000289001
0.000278917
0.00027037
0.000262885
0.000256125
0.000249854
0.000243911
0.000238187
0.000232607
0.000227121
0.000221695
0.000216302
0.000210925
0.000205549
0.000200161
0.000194752
0.000189313
0.000183838
0.000178321
0.000172756
0.000167142
0.000161473
0.00015575
0.000149971
0.000144136
0.000138246
0.000132301
0.000126306
0.000120263
0.000114175
0.000108049
0.00010189
9.57056e-05
8.95036e-05
8.32937e-05
7.70866e-05
7.08947e-05
6.47316e-05
5.86128e-05
5.25555e-05
4.65788e-05
4.07037e-05
3.49535e-05
2.93536e-05
2.39324e-05
1.8721e-05
1.37547e-05
9.07323e-06
4.72202e-06
7.52975e-07
-2.77536e-06
-5.79854e-06
-8.24926e-06
-1.00623e-05
-1.11829e-05
-1.15775e-05
-1.12455e-05
-1.02305e-05
-8.62552e-06
-6.5678e-06
-4.21371e-06
-1.72141e-06
7.72416e-07
3.14969e-06
5.32189e-06
7.22312e-06
8.80313e-06
1.00511e-05
1.09546e-05
1.15065e-05
1.17202e-05
1.16201e-05
1.12325e-05
1.05769e-05
9.67615e-06
8.55439e-06
7.2331e-06
5.73181e-06
4.06895e-06
2.2557e-06
1.971e-07
0.00190716
0.00180384
0.0016752
0.00153314
0.00138704
0.00124287
0.00110455
0.00097524
0.000857489
0.000752886
0.000662053
0.000584814
0.000520382
0.00046753
0.00042476
0.000390473
0.000363106
0.000341229
0.000323602
0.000309195
0.000297183
0.000286926
0.000277943
0.000269875
0.000262467
0.000255533
0.000248942
0.000242601
0.000236443
0.000230418
0.000224492
0.000218635
0.000212825
0.000207045
0.000201279
0.000195516
0.000189745
0.000183956
0.000178144
0.000172303
0.000166427
0.000160514
0.000154561
0.000148566
0.00014253
0.000136453
0.000130337
0.000124183
0.000117996
0.000111779
0.000105538
9.92802e-05
9.30125e-05
8.67441e-05
8.04852e-05
7.42476e-05
6.80446e-05
6.18909e-05
5.58035e-05
4.98007e-05
4.39031e-05
3.81334e-05
3.25165e-05
2.70802e-05
2.18551e-05
1.68758e-05
1.2181e-05
7.81489e-06
3.82749e-06
2.74551e-07
-2.78324e-06
-5.2834e-06
-7.1664e-06
-8.38337e-06
-8.90586e-06
-8.73646e-06
-7.91776e-06
-6.53677e-06
-4.71874e-06
-2.60818e-06
-3.51234e-07
1.92223e-06
4.10006e-06
6.09442e-06
7.84078e-06
9.29237e-06
1.0429e-05
1.12358e-05
1.17108e-05
1.18722e-05
1.17327e-05
1.13059e-05
1.06146e-05
9.68176e-06
8.53149e-06
7.184e-06
5.65553e-06
3.95749e-06
2.07984e-06
-1.67021e-07
0.0018303
0.00173834
0.00162535
0.00149932
0.00136769
0.00123616
0.00110876
0.000988564
0.000877972
0.000778586
0.00069117
0.000615767
0.000551856
0.000498495
0.000454475
0.000418458
0.0003891
0.000365143
0.000345469
0.000329128
0.000315338
0.000303481
0.000293074
0.000283752
0.00027524
0.000267337
0.000259893
0.000252799
0.000245973
0.000239354
0.000232894
0.000226558
0.000220315
0.000214142
0.00020802
0.000201932
0.000195865
0.000189806
0.000183747
0.000177679
0.000171596
0.000165494
0.000159367
0.000153215
0.000147035
0.000140826
0.000134591
0.000128329
0.000122044
0.00011574
0.000109421
0.000103093
9.67635e-05
9.04409e-05
8.41349e-05
7.78567e-05
7.1619e-05
6.54363e-05
5.93248e-05
5.33022e-05
4.73888e-05
4.16064e-05
3.59795e-05
3.05352e-05
2.53033e-05
2.03176e-05
1.56155e-05
1.12397e-05
7.23786e-06
3.66253e-06
5.70181e-07
-1.98188e-06
-3.94006e-06
-5.26143e-06
-5.9225e-06
-5.92835e-06
-5.3201e-06
-4.17815e-06
-2.61629e-06
-7.66792e-07
1.23589e-06
3.2695e-06
5.2279e-06
7.02619e-06
8.60077e-06
9.90516e-06
1.0915e-05
1.1616e-05
1.20048e-05
1.20925e-05
1.18897e-05
1.14111e-05
1.06798e-05
9.71593e-06
8.53668e-06
7.15942e-06
5.59938e-06
3.86251e-06
1.92377e-06
-4.54803e-07
0.0017616
0.00167882
0.0015786
0.00146627
0.00134754
0.00122759
0.00111033
0.000998714
0.00089501
0.000800797
0.000716934
0.000643641
0.000580612
0.000527154
0.000482303
0.000444954
0.000413963
0.000388233
0.000366763
0.000348686
0.000333273
0.000319929
0.000308181
0.000297662
0.000288088
0.000279243
0.000270964
0.000263128
0.000255642
0.000248432
0.000241442
0.000234627
0.000227952
0.000221388
0.000214909
0.000208497
0.000202133
0.000195803
0.000189497
0.000183202
0.000176913
0.000170621
0.000164322
0.000158012
0.000151689
0.00014535
0.000138996
0.000132627
0.000126247
0.000119856
0.00011346
0.000107065
0.000100676
9.43018e-05
8.79514e-05
8.16356e-05
7.53666e-05
6.91583e-05
6.30262e-05
5.69878e-05
5.10625e-05
4.52716e-05
3.96389e-05
3.41906e-05
2.8956e-05
2.39674e-05
1.92612e-05
1.48781e-05
1.08631e-05
7.26548e-06
4.13731e-06
1.53065e-06
-5.06734e-07
-1.93761e-06
-2.74299e-06
-2.92994e-06
-2.53777e-06
-1.64033e-06
-3.40727e-07
1.24065e-06
2.98049e-06
4.76453e-06
6.49279e-06
8.08367e-06
9.47472e-06
1.06201e-05
1.14931e-05
1.20781e-05
1.23697e-05
1.23748e-05
1.21032e-05
1.15679e-05
1.07878e-05
9.78077e-06
8.5632e-06
7.15142e-06
5.55778e-06
3.78376e-06
1.79661e-06
-6.44228e-07
0.00169976
0.00162457
0.00153491
0.00143429
0.00132701
0.00121758
0.00110968
0.00100611
0.000908983
0.000819845
0.000739613
0.000668635
0.000606788
0.000553582
0.00050827
0.000469947
0.000437653
0.000410435
0.000387411
0.000367795
0.000350911
0.000336198
0.000323198
0.000311545
0.000300954
0.000291199
0.000282108
0.000273546
0.000265408
0.000257614
0.000250098
0.000242808
0.000235703
0.000228747
0.000221912
0.000215175
0.000208514
0.000201913
0.000195359
0.000188838
0.000182341
0.000175859
0.000169387
0.000162919
0.000156452
0.000149982
0.00014351
0.000137035
0.000130558
0.000124082
0.00011761
0.000111147
0.000104699
9.82744e-05
9.18805e-05
8.55281e-05
7.92289e-05
7.29962e-05
6.6845e-05
6.07922e-05
5.48564e-05
4.90585e-05
4.34214e-05
3.79706e-05
3.27342e-05
2.77436e-05
2.30336e-05
1.86429e-05
1.46138e-05
1.09921e-05
7.82554e-06
5.16114e-06
3.04114e-06
1.49755e-06
5.4535e-07
1.75901e-07
3.51913e-07
1.00571e-06
2.04397e-06
3.35737e-06
4.83307e-06
6.36484e-06
7.85873e-06
9.23673e-06
1.0438e-05
1.14174e-05
1.21463e-05
1.26078e-05
1.2795e-05
1.27113e-05
1.23645e-05
1.17659e-05
1.09314e-05
9.87713e-06
8.61828e-06
7.16889e-06
5.53882e-06
3.72719e-06
1.70136e-06
-7.50307e-07
0.00164377
0.001575
0.00149418
0.00140358
0.0013064
0.00120649
0.00110719
0.00101111
0.000920241
0.000836042
0.000759463
0.000690951
0.000630526
0.00057787
0.000532417
0.000493442
0.000460143
0.000431707
0.000407359
0.000386393
0.000368192
0.00035223
0.000338069
0.000325353
0.000313795
0.000303167
0.00029329
0.00028402
0.000275245
0.000266876
0.00025884
0.000251079
0.000243545
0.0002362
0.00022901
0.000221948
0.00021499
0.000208118
0.000201315
0.000194566
0.000187861
0.000181189
0.000174543
0.000167916
0.000161304
0.000154703
0.000148111
0.000141528
0.000134955
0.000128392
0.000121843
0.000115313
0.000108805
0.000102329
9.5891e-05
8.95016e-05
8.31717e-05
7.69142e-05
7.07435e-05
6.46758e-05
5.87291e-05
5.29237e-05
4.72816e-05
4.18274e-05
3.65883e-05
3.15944e-05
2.68789e-05
2.24782e-05
1.84322e-05
1.47833e-05
1.15748e-05
8.84913e-06
6.6434e-06
4.9849e-06
3.88517e-06
3.33436e-06
3.29724e-06
3.71185e-06
4.49366e-06
5.54352e-06
6.75824e-06
8.03939e-06
9.29892e-06
1.04625e-05
1.14713e-05
1.22807e-05
1.28612e-05
1.31944e-05
1.32718e-05
1.30942e-05
1.26673e-05
1.20004e-05
1.11071e-05
1.00017e-05
8.69777e-06
7.20759e-06
5.53946e-06
3.69191e-06
1.63707e-06
-7.96758e-07
0.00159281
0.00152953
0.0014562
0.00137423
0.00128596
0.00119462
0.0011032
0.00101408
0.000929107
0.000849677
0.000776732
0.000710786
0.000651973
0.000600113
0.000554797
0.000515453
0.000481422
0.000452016
0.000426561
0.00040443
0.000385064
0.000367973
0.000352747
0.00033904
0.000326571
0.000315113
0.00030448
0.000294525
0.00028513
0.000276197
0.000267649
0.000259423
0.000251465
0.000243733
0.00023619
0.000228804
0.00022155
0.000214407
0.000207355
0.000200378
0.000193463
0.0001866
0.000179778
0.000172992
0.000166233
0.0001595
0.000152788
0.000146096
0.000139425
0.000132774
0.000126147
0.000119547
0.000112979
0.00010645
9.99667e-05
9.35388e-05
8.71769e-05
8.08931e-05
7.47013e-05
6.86171e-05
6.26579e-05
5.68431e-05
5.1194e-05
4.57343e-05
4.04901e-05
3.54901e-05
3.07659e-05
2.63519e-05
2.22852e-05
1.86048e-05
1.53504e-05
1.25596e-05
1.02652e-05
8.49011e-06
7.24304e-06
6.51324e-06
6.26747e-06
6.449e-06
6.98118e-06
7.77408e-06
8.73336e-06
9.768e-06
1.07956e-05
1.17457e-05
1.25614e-05
1.3199e-05
1.36283e-05
1.38299e-05
1.37937e-05
1.35182e-05
1.3007e-05
1.22679e-05
1.13121e-05
1.01521e-05
8.79988e-06
7.26653e-06
5.55922e-06
3.67711e-06
1.5994e-06
-8.07427e-07
0.0015462
0.00148771
0.00142079
0.00134627
0.00126585
0.00118221
0.00109797
0.00101529
0.000935875
0.000861019
0.000791652
0.00072833
0.000671272
0.000620413
0.000575471
0.000536007
0.00050149
0.000471342
0.000444984
0.000421865
0.00040148
0.000383383
0.000367188
0.000352567
0.000339247
0.000327003
0.00031565
0.000305037
0.00029504
0.000285558
0.00027651
0.000267827
0.000259451
0.000251336
0.000243442
0.000235735
0.000228186
0.000220772
0.000213471
0.000206266
0.000199142
0.000192086
0.000185089
0.000178141
0.000171236
0.000164368
0.000157534
0.000150732
0.000143961
0.000137221
0.000130514
0.000123844
0.000117213
0.00011063
0.000104099
9.7631e-05
9.1235e-05
8.49229e-05
7.87079e-05
7.2605e-05
6.66308e-05
6.08041e-05
5.51453e-05
4.96772e-05
4.44246e-05
3.9415e-05
3.46783e-05
3.02468e-05
2.6155e-05
2.24387e-05
1.91339e-05
1.62743e-05
1.38883e-05
1.19954e-05
1.06016e-05
9.69561e-06
9.24619e-06
9.2013e-06
9.49137e-06
1.00347e-05
1.07451e-05
1.15385e-05
1.23379e-05
1.30766e-05
1.36999e-05
1.41651e-05
1.44417e-05
1.45093e-05
1.43565e-05
1.39798e-05
1.33811e-05
1.25662e-05
1.15445e-05
1.03268e-05
8.92366e-06
7.34501e-06
5.59744e-06
3.68156e-06
1.58405e-06
-7.97929e-07
0.0015034
0.00144911
0.00138775
0.00131971
0.00124621
0.00116946
0.00109176
0.00101503
0.00094081
0.000870317
0.000804444
0.000743767
0.000688568
0.000638872
0.000594505
0.00055514
0.000520355
0.000489674
0.000462603
0.000438662
0.000417402
0.000398418
0.000381352
0.000365896
0.000351788
0.000338808
0.000326772
0.00031553
0.000304954
0.000294942
0.000285406
0.000276276
0.00026749
0.000258998
0.000250758
0.000242732
0.000234891
0.000227207
0.000219658
0.000212225
0.000204891
0.000197643
0.000190469
0.000183359
0.000176306
0.000169303
0.000162347
0.000155433
0.000148561
0.00014173
0.000134942
0.000128199
0.000121504
0.000114864
0.000108284
0.000101774
9.53415e-05
8.89987e-05
8.2758e-05
7.66338e-05
7.0642e-05
6.48004e-05
5.91288e-05
5.36489e-05
4.83844e-05
4.33613e-05
3.86079e-05
3.41544e-05
3.00329e-05
2.62762e-05
2.29167e-05
1.99845e-05
1.75043e-05
1.54924e-05
1.39527e-05
1.28736e-05
1.22256e-05
1.19609e-05
1.20164e-05
1.23178e-05
1.27862e-05
1.3344e-05
1.39195e-05
1.44496e-05
1.48819e-05
1.51748e-05
1.52976e-05
1.52295e-05
1.49577e-05
1.4477e-05
1.37877e-05
1.2894e-05
1.18035e-05
1.05252e-05
9.06861e-06
7.44264e-06
5.65368e-06
3.70409e-06
1.58726e-06
-7.77364e-07
0.00146394
0.00141338
0.00135686
0.00129448
0.00122711
0.00115654
0.00108478
0.00101352
0.00094415
0.000877798
0.000815312
0.000757272
0.000704001
0.000655597
0.000611971
0.000572892
0.000538034
0.000507007
0.000479399
0.000454793
0.000432796
0.000413042
0.000395203
0.000378992
0.00036416
0.000350496
0.000337819
0.00032598
0.000314852
0.000304328
0.000294321
0.000284756
0.000275569
0.000266708
0.000258127
0.000249787
0.000241656
0.000233705
0.00022591
0.00021825
0.000210707
0.000203267
0.000195916
0.000188644
0.000181442
0.000174303
0.000167222
0.000160196
0.000153221
0.000146298
0.000139427
0.000132609
0.000125849
0.00011915
0.00011252
0.000105964
9.94936e-05
9.31177e-05
8.68488e-05
8.07005e-05
7.46881e-05
6.88286e-05
6.31409e-05
5.76457e-05
5.23654e-05
4.73249e-05
4.25506e-05
3.80707e-05
3.39149e-05
3.01132e-05
2.66949e-05
2.36866e-05
2.11099e-05
1.89781e-05
1.72934e-05
1.6044e-05
1.52023e-05
1.47243e-05
1.45524e-05
1.46192e-05
1.48524e-05
1.51805e-05
1.55365e-05
1.58611e-05
1.61041e-05
1.62252e-05
1.61938e-05
1.59885e-05
1.55957e-05
1.50087e-05
1.42262e-05
1.32508e-05
1.20885e-05
1.0747e-05
9.23455e-06
7.5593e-06
5.72761e-06
3.74363e-06
1.60612e-06
-7.50228e-07
0.00142743
0.00138021
0.00132794
0.00127055
0.0012086
0.00114358
0.00107719
0.00101096
0.000946107
0.00088367
0.000824447
0.00076901
0.000717708
0.000670692
0.000627943
0.000589311
0.000554549
0.000523347
0.000495361
0.000470239
0.000447635
0.000427224
0.000408709
0.000391823
0.000376334
0.000362039
0.000348765
0.000336364
0.000324711
0.000313699
0.000303238
0.000293252
0.000283676
0.000274454
0.000265539
0.000256891
0.000248474
0.000240259
0.00023222
0.000224335
0.000216584
0.000208952
0.000201425
0.00019399
0.000186639
0.000179364
0.000172158
0.000165018
0.00015794
0.000150923
0.000143967
0.000137074
0.000130246
0.000123487
0.000116803
0.000110201
0.000103689
9.7278e-05
9.09782e-05
8.48031e-05
7.87672e-05
7.28867e-05
6.71795e-05
6.16653e-05
5.63656e-05
5.13036e-05
4.65041e-05
4.19934e-05
3.77989e-05
3.3948e-05
3.04669e-05
2.73794e-05
2.47039e-05
2.24514e-05
2.06228e-05
1.92061e-05
1.81752e-05
1.74899e-05
1.70976e-05
1.69368e-05
1.69414e-05
1.70455e-05
1.71866e-05
1.73089e-05
1.73646e-05
1.73146e-05
1.71288e-05
1.67853e-05
1.62697e-05
1.55741e-05
1.46958e-05
1.36361e-05
1.23994e-05
1.09921e-05
9.42147e-06
7.69492e-06
5.81892e-06
3.79922e-06
1.63855e-06
-7.18327e-07
0.00139355
0.00134933
0.00130083
0.00124784
0.0011907
0.00113065
0.00106916
0.00100752
0.00094687
0.000888122
0.000832026
0.000779137
0.00072982
0.000684262
0.000642499
0.000604447
0.000569929
0.000538702
0.000510487
0.000484985
0.000461897
0.000440938
0.00042184
0.000404359
0.00038828
0.00037341
0.000359585
0.00034666
0.000334512
0.000323036
0.000312141
0.00030175
0.000291797
0.000282224
0.000272984
0.000264034
0.000255337
0.000246862
0.000238582
0.000230474
0.000222518
0.000214695
0.000206992
0.000199395
0.000191895
0.000184483
0.000177152
0.000169897
0.000162714
0.000155603
0.000148561
0.00014159
0.000134693
0.000127872
0.000121133
0.000114482
0.000107927
0.000101478
9.51446e-05
8.89399e-05
8.28775e-05
7.69728e-05
7.12429e-05
6.57063e-05
6.03833e-05
5.52958e-05
5.0467e-05
4.59214e-05
4.1684e-05
3.77797e-05
3.42322e-05
3.10624e-05
2.82863e-05
2.59126e-05
2.39411e-05
2.23597e-05
2.11441e-05
2.02572e-05
1.9651e-05
1.92693e-05
1.90517e-05
1.89372e-05
1.8868e-05
1.87913e-05
1.86618e-05
1.84417e-05
1.81013e-05
1.76187e-05
1.69789e-05
1.61727e-05
1.51963e-05
1.40498e-05
1.27361e-05
1.12605e-05
9.62936e-06
7.84944e-06
5.92734e-06
3.87006e-06
1.68307e-06
-6.82151e-07
0.00136202
0.00132051
0.00127537
0.00122629
0.00117344
0.00111785
0.00106078
0.00100337
0.000946606
0.000891322
0.000838211
0.000787802
0.000740463
0.000696408
0.000655716
0.000618357
0.000584209
0.000553091
0.000524777
0.00049902
0.000475565
0.000454162
0.000434572
0.000416575
0.000399972
0.000384584
0.000370254
0.000356844
0.000344234
0.00033232
0.000321012
0.000310234
0.000299919
0.000290008
0.000280452
0.000271207
0.000262236
0.000253506
0.00024499
0.000236662
0.000228501
0.00022049
0.000212612
0.000204854
0.000197205
0.000189656
0.000182199
0.000174829
0.000167542
0.000160334
0.000153206
0.000146156
0.000139188
0.000132303
0.000125507
0.000118805
0.000112205
0.000105715
9.93463e-05
9.31093e-05
8.70175e-05
8.10856e-05
7.53296e-05
6.97671e-05
6.44172e-05
5.93003e-05
5.44383e-05
4.98535e-05
4.55692e-05
4.16078e-05
3.79905e-05
3.47358e-05
3.18573e-05
2.93621e-05
2.72487e-05
2.55054e-05
2.41092e-05
2.30261e-05
2.22121e-05
2.16159e-05
2.1182e-05
2.08544e-05
2.05792e-05
2.03068e-05
1.99943e-05
1.96051e-05
1.91104e-05
1.8488e-05
1.77225e-05
1.6804e-05
1.57274e-05
1.44916e-05
1.30985e-05
1.15522e-05
9.85822e-06
8.02278e-06
6.05255e-06
3.95545e-06
1.73866e-06
-6.41679e-07
0.00133259
0.00129354
0.00125141
0.00120581
0.0011568
0.00110523
0.00105218
0.00099863
0.000945462
0.000893424
0.000843149
0.000795139
0.000749755
0.00070723
0.000667673
0.000631096
0.000597427
0.000566534
0.00053824
0.000512342
0.000488627
0.000466877
0.000446883
0.000428447
0.000411387
0.000395538
0.000380751
0.000366895
0.000353856
0.000341533
0.000329836
0.00031869
0.000308028
0.000297792
0.00028793
0.0002784
0.000269162
0.000260184
0.000251435
0.000242891
0.00023453
0.000226332
0.000218281
0.000210363
0.000202566
0.00019488
0.000187298
0.000179813
0.000172419
0.000165115
0.000157899
0.000150769
0.000143728
0.000136778
0.000129924
0.000123169
0.000116521
0.000109989
0.000103582
9.73097e-05
9.11857e-05
8.52234e-05
7.94381e-05
7.38463e-05
6.84658e-05
6.33159e-05
5.84167e-05
5.3789e-05
4.94539e-05
4.54318e-05
4.17417e-05
3.83997e-05
3.54173e-05
3.28002e-05
3.05461e-05
2.86435e-05
2.70707e-05
2.57965e-05
2.47804e-05
2.39757e-05
2.33314e-05
2.27958e-05
2.23188e-05
2.18541e-05
2.13607e-05
2.08038e-05
2.01549e-05
1.93923e-05
1.85e-05
1.74674e-05
1.62886e-05
1.49614e-05
1.34865e-05
1.18672e-05
1.0108e-05
8.21481e-06
6.19424e-06
4.0548e-06
1.80457e-06
-5.96774e-07
0.00130505
0.00126825
0.00122883
0.00118635
0.00114078
0.00109283
0.00104342
0.000993409
0.000943568
0.000894565
0.000846978
0.000801276
0.000757811
0.000716823
0.000678446
0.000642723
0.000609623
0.000579055
0.000550886
0.000524952
0.000501075
0.000479071
0.000458756
0.000439955
0.000422503
0.000406248
0.000391053
0.000376794
0.000363361
0.000350657
0.000338596
0.000327103
0.000316111
0.000305564
0.000295409
0.000285603
0.000276107
0.000266886
0.000257911
0.000249155
0.000240597
0.000232215
0.000223994
0.000215917
0.000207973
0.000200152
0.000192444
0.000184844
0.000177344
0.000169943
0.000162638
0.000155427
0.000148313
0.000141296
0.000134381
0.000127571
0.000120874
0.000114297
0.000107849
0.000101539
9.53803e-05
8.93848e-05
8.3567e-05
7.79425e-05
7.2528e-05
6.73415e-05
6.24014e-05
5.7727e-05
5.33376e-05
4.92515e-05
4.54856e-05
4.20541e-05
3.89667e-05
3.62276e-05
3.38339e-05
3.17744e-05
3.00289e-05
2.85682e-05
2.73556e-05
2.6348e-05
2.54988e-05
2.47601e-05
2.40856e-05
2.34318e-05
2.27599e-05
2.20364e-05
2.1234e-05
2.03308e-05
1.93107e-05
1.81626e-05
1.68797e-05
1.54588e-05
1.38999e-05
1.22052e-05
1.03786e-05
8.42535e-06
6.35209e-06
4.16757e-06
1.88025e-06
-5.47342e-07
0.00127923
0.00124448
0.0012075
0.00116783
0.00112536
0.00108068
0.00103457
0.000987803
0.000941035
0.000894866
0.000849819
0.00080633
0.000764737
0.000725281
0.000688112
0.000653299
0.000620841
0.000590685
0.000562732
0.000536854
0.000512907
0.000490734
0.000470177
0.000451082
0.000433301
0.000416697
0.000401142
0.00038652
0.000372729
0.000359675
0.000347276
0.000335457
0.000324155
0.000313311
0.000302877
0.000292806
0.00028306
0.000273605
0.00026441
0.000255448
0.000246696
0.000238134
0.000229744
0.000221512
0.000213423
0.000205467
0.000197634
0.000189918
0.000182313
0.000174814
0.00016742
0.000160127
0.000152938
0.000145853
0.000138876
0.00013201
0.000125262
0.000118638
0.000112146
0.000105796
9.95997e-05
9.3568e-05
8.77147e-05
8.20543e-05
7.66024e-05
7.13757e-05
6.63913e-05
6.16667e-05
5.72196e-05
5.30664e-05
4.92221e-05
4.56991e-05
4.25056e-05
3.96445e-05
3.71125e-05
3.48986e-05
3.29838e-05
3.13413e-05
2.99372e-05
2.87321e-05
2.76831e-05
2.67463e-05
2.58784e-05
2.50387e-05
2.41905e-05
2.3302e-05
2.23465e-05
2.13025e-05
2.01538e-05
1.88888e-05
1.75001e-05
1.59837e-05
1.43386e-05
1.25662e-05
1.06698e-05
8.65419e-06
6.52576e-06
4.29331e-06
1.96527e-06
-4.93368e-07
0.00125495
0.00122209
0.00118733
0.00115019
0.00111052
0.00106879
0.0010257
0.000981894
0.000937964
0.000894436
0.000851784
0.000810409
0.000770632
0.000732691
0.000696744
0.000662881
0.000631126
0.000601454
0.000573797
0.000548059
0.000524123
0.00050186
0.000481136
0.000461814
0.000443766
0.000426866
0.000410999
0.000396057
0.000381944
0.000368571
0.000355859
0.000343738
0.000332145
0.000321022
0.000310321
0.000299998
0.000290013
0.000280331
0.000270923
0.00026176
0.000252821
0.000244083
0.000235528
0.000227141
0.000218909
0.00021082
0.000202864
0.000195034
0.000187323
0.000179726
0.000172242
0.000164867
0.000157602
0.000150448
0.000143407
0.000136483
0.000129682
0.000123008
0.000116471
0.000110079
0.000103842
9.77713e-05
9.18795e-05
8.61801e-05
8.06876e-05
7.54174e-05
7.03852e-05
6.56072e-05
6.10992e-05
5.68761e-05
5.29511e-05
4.93349e-05
4.60343e-05
4.30513e-05
4.03822e-05
3.80162e-05
3.59356e-05
3.41155e-05
3.25248e-05
3.11273e-05
2.98836e-05
2.87532e-05
2.76957e-05
2.66733e-05
2.56513e-05
2.45992e-05
2.34913e-05
2.23065e-05
2.10285e-05
1.96455e-05
1.81493e-05
1.65355e-05
1.48021e-05
1.29499e-05
1.09814e-05
8.90106e-06
6.7149e-06
4.43159e-06
2.05924e-06
-4.34901e-07
0.00123209
0.00120095
0.00116822
0.00113338
0.00109623
0.00105718
0.00101683
0.000975748
0.000934439
0.000893372
0.000852973
0.000813612
0.000775588
0.000739135
0.000704415
0.000671529
0.000640523
0.000611395
0.000584103
0.000558578
0.000534728
0.000512447
0.000491624
0.00047214
0.000453883
0.00043674
0.000420608
0.000405388
0.000390989
0.000377329
0.000364333
0.000351933
0.000340068
0.000328684
0.000317732
0.000307169
0.000296955
0.000287056
0.000277442
0.000268086
0.000258964
0.000250054
0.000241338
0.000232801
0.000224428
0.000216207
0.000208129
0.000200185
0.000192369
0.000184675
0.0001771
0.000169643