/*--------------------------------*- C++ -*----------------------------------*\
| =========                 |                                                 |
| \\      /  F ield         | OpenFOAM: The Open Source CFD Toolbox           |
|  \\    /   O peration     | Version:  2.3.0                                 |
|   \\  /    A nd           | Web:      www.OpenFOAM.org                      |
|    \\/     M anipulation  |                                                 |
\*---------------------------------------------------------------------------*/
FoamFile
{
    version     2.0;
    format      ascii;
    class       volVectorField;
    location    "0.35";
    object      U_0;
}
// * * * * * * * * * * * * * * * * * * * * * * * * * * * * * * * * * * * * * //

dimensions      [0 1 -1 0 0 0 0];

internalField   nonuniform List<vector> 
8750
(
(0.17163 0.00593425 0)
(0.155208 0.00601674 0)
(0.139416 0.00560472 0)
(0.124438 0.00501072 0)
(0.110689 0.0043531 0)
(0.0983406 0.00368538 0)
(0.0874046 0.00304437 0)
(0.0778467 0.00245555 0)
(0.0696115 0.00193445 0)
(0.0626149 0.00148891 0)
(0.056744 0.00112068 0)
(0.0518668 0.000826362 0)
(0.0478434 0.000598655 0)
(0.0445352 0.000427938 0)
(0.0418128 0.000303766 0)
(0.0395608 0.00021607 0)
(0.0376803 0.000155902 0)
(0.0360898 0.000115782 0)
(0.0347243 8.97543e-05 0)
(0.0335332 7.32724e-05 0)
(0.0324784 6.30025e-05 0)
(0.0315311 5.65973e-05 0)
(0.0306704 5.24744e-05 0)
(0.0298808 4.96166e-05 0)
(0.0291509 4.74054e-05 0)
(0.0284722 4.54889e-05 0)
(0.0278383 4.36854e-05 0)
(0.0272442 4.19142e-05 0)
(0.0266856 4.01508e-05 0)
(0.0261594 3.83985e-05 0)
(0.0256626 3.66713e-05 0)
(0.0251926 3.49854e-05 0)
(0.0247475 3.33546e-05 0)
(0.0243251 3.17887e-05 0)
(0.0239237 3.02939e-05 0)
(0.0235419 2.88727e-05 0)
(0.0231781 2.75253e-05 0)
(0.0228312 2.62498e-05 0)
(0.0225 2.50433e-05 0)
(0.0221835 2.39022e-05 0)
(0.0218808 2.28223e-05 0)
(0.021591 2.17996e-05 0)
(0.0213134 2.083e-05 0)
(0.0210474 1.99096e-05 0)
(0.0207923 1.90347e-05 0)
(0.0205476 1.82019e-05 0)
(0.0203128 1.74079e-05 0)
(0.0200875 1.66498e-05 0)
(0.0198712 1.59249e-05 0)
(0.0196636 1.52306e-05 0)
(0.0194644 1.45647e-05 0)
(0.0192733 1.39251e-05 0)
(0.01909 1.33097e-05 0)
(0.0189143 1.27168e-05 0)
(0.0187459 1.21446e-05 0)
(0.0185848 1.15916e-05 0)
(0.0184308 1.10563e-05 0)
(0.0182836 1.05373e-05 0)
(0.0181433 1.00333e-05 0)
(0.0180096 9.54343e-06 0)
(0.0178826 9.06689e-06 0)
(0.0177622 8.60339e-06 0)
(0.0176482 8.15294e-06 0)
(0.0175408 7.7157e-06 0)
(0.0174397 7.29157e-06 0)
(0.0173451 6.87927e-06 0)
(0.0172569 6.47532e-06 0)
(0.0171752 6.07253e-06 0)
(0.0171002 5.65864e-06 0)
(0.0170319 5.21523e-06 0)
(0.0169708 4.71724e-06 0)
(0.0169174 4.13433e-06 0)
(0.0168722 3.4363e-06 0)
(0.016836 2.61278e-06 0)
(0.0168094 1.71878e-06 0)
(0.0167934 8.75107e-07 0)
(0.0167884 2.06835e-07 0)
(0.0167926 -5.38228e-07 0)
(0.016803 -1.10631e-06 0)
(0.0168183 -1.5481e-06 0)
(0.016837 -1.84328e-06 0)
(0.0168581 -2.00673e-06 0)
(0.0168803 -2.07014e-06 0)
(0.016903 -2.05767e-06 0)
(0.0169255 -1.99248e-06 0)
(0.0169473 -1.89239e-06 0)
(0.016968 -1.76836e-06 0)
(0.0169876 -1.63293e-06 0)
(0.0170058 -1.49342e-06 0)
(0.0170226 -1.3547e-06 0)
(0.0170381 -1.22108e-06 0)
(0.0170523 -1.09436e-06 0)
(0.0170652 -9.74754e-07 0)
(0.0170769 -8.62184e-07 0)
(0.0170874 -7.55515e-07 0)
(0.0170967 -6.52325e-07 0)
(0.017105 -5.4989e-07 0)
(0.0171121 -4.55218e-07 0)
(0.0171175 -4.58347e-07 0)
(0.01713 -1.51584e-06 0)
(0.19049 0.00937774 0)
(0.188192 0.00989275 0)
(0.184284 0.00966985 0)
(0.179123 0.00917315 0)
(0.173213 0.00854204 0)
(0.166907 0.00782265 0)
(0.160428 0.0070528 0)
(0.153943 0.00626725 0)
(0.147587 0.0054951 0)
(0.141461 0.00476019 0)
(0.135633 0.00408115 0)
(0.130143 0.00347084 0)
(0.12501 0.00293611 0)
(0.120236 0.00247819 0)
(0.115815 0.00209377 0)
(0.111729 0.00177631 0)
(0.107958 0.00151736 0)
(0.104478 0.0013078 0)
(0.101265 0.00113875 0)
(0.0982952 0.00100216 0)
(0.095545 0.000891109 0)
(0.0929932 0.00079994 0)
(0.0906202 0.000724152 0)
(0.0884083 0.000660271 0)
(0.0863415 0.000605666 0)
(0.0844058 0.000558374 0)
(0.0825888 0.000516931 0)
(0.0808793 0.00048025 0)
(0.0792678 0.000447514 0)
(0.0777456 0.0004181 0)
(0.0763052 0.000391524 0)
(0.0749397 0.000367398 0)
(0.0736433 0.000345408 0)
(0.0724107 0.000325295 0)
(0.0712371 0.000306836 0)
(0.0701182 0.000289844 0)
(0.0690503 0.000274155 0)
(0.06803 0.000259629 0)
(0.0670542 0.00024614 0)
(0.0661201 0.00023358 0)
(0.0652253 0.000221853 0)
(0.0643676 0.000210876 0)
(0.0635448 0.000200574 0)
(0.0627553 0.000190879 0)
(0.0619972 0.000181735 0)
(0.0612693 0.000173088 0)
(0.06057 0.000164892 0)
(0.0598982 0.000157103 0)
(0.0592528 0.000149686 0)
(0.0586328 0.000142604 0)
(0.0580374 0.000135828 0)
(0.0574658 0.000129329 0)
(0.0569172 0.000123081 0)
(0.0563911 0.00011706 0)
(0.0558869 0.000111246 0)
(0.0554043 0.000105618 0)
(0.0549427 0.000100157 0)
(0.0545019 9.48467e-05 0)
(0.0540817 8.96718e-05 0)
(0.0536818 8.46181e-05 0)
(0.053302 7.96734e-05 0)
(0.0529424 7.48268e-05 0)
(0.0526028 7.00684e-05 0)
(0.0522832 6.53883e-05 0)
(0.0519837 6.07753e-05 0)
(0.0517044 5.62138e-05 0)
(0.0514456 5.16815e-05 0)
(0.0512074 4.71462e-05 0)
(0.0509904 4.25642e-05 0)
(0.050795 3.78807e-05 0)
(0.050622 3.30331e-05 0)
(0.050472 2.79583e-05 0)
(0.0503461 2.26048e-05 0)
(0.0502447 1.6957e-05 0)
(0.0501684 1.1085e-05 0)
(0.050117 5.17371e-06 0)
(0.0500901 -3.19171e-07 0)
(0.0500878 -4.83743e-06 0)
(0.0501034 -7.75642e-06 0)
(0.0501316 -9.67929e-06 0)
(0.0501687 -1.09442e-05 0)
(0.0502117 -1.16693e-05 0)
(0.0502582 -1.19421e-05 0)
(0.0503064 -1.18434e-05 0)
(0.0503548 -1.14735e-05 0)
(0.0504023 -1.09243e-05 0)
(0.0504482 -1.02587e-05 0)
(0.050492 -9.53604e-06 0)
(0.0505333 -8.79329e-06 0)
(0.050572 -8.05426e-06 0)
(0.0506081 -7.33785e-06 0)
(0.0506415 -6.65303e-06 0)
(0.0506723 -6.00204e-06 0)
(0.0507006 -5.38465e-06 0)
(0.0507264 -4.79677e-06 0)
(0.0507498 -4.23089e-06 0)
(0.0507709 -3.68283e-06 0)
(0.0507897 -3.18941e-06 0)
(0.0508057 -3.04561e-06 0)
(0.0508282 -4.83453e-06 0)
(0.193476 0.00899582 0)
(0.194284 0.00995509 0)
(0.19443 0.0102862 0)
(0.193765 0.0102885 0)
(0.19241 0.0100633 0)
(0.190487 0.00964883 0)
(0.188089 0.00908978 0)
(0.185308 0.00843572 0)
(0.182238 0.00773177 0)
(0.178967 0.00701611 0)
(0.175574 0.00631941 0)
(0.172123 0.00566428 0)
(0.168666 0.0050652 0)
(0.165242 0.00452927 0)
(0.16188 0.00405762 0)
(0.1586 0.00364716 0)
(0.155415 0.0032922 0)
(0.152331 0.00298582 0)
(0.149353 0.00272094 0)
(0.146482 0.00249095 0)
(0.143715 0.00229005 0)
(0.141052 0.00211333 0)
(0.138488 0.00195679 0)
(0.136022 0.0018172 0)
(0.133649 0.00169196 0)
(0.131366 0.00157901 0)
(0.129169 0.00147669 0)
(0.127056 0.00138363 0)
(0.125021 0.00129871 0)
(0.123063 0.001221 0)
(0.121178 0.0011497 0)
(0.119363 0.00108412 0)
(0.117615 0.00102366 0)
(0.11593 0.000967805 0)
(0.114307 0.000916083 0)
(0.112742 0.000868085 0)
(0.111233 0.000823448 0)
(0.109778 0.000781844 0)
(0.108373 0.000742985 0)
(0.107018 0.000706608 0)
(0.105711 0.000672482 0)
(0.104448 0.000640396 0)
(0.103229 0.000610163 0)
(0.102053 0.000581612 0)
(0.100916 0.000554591 0)
(0.0998188 0.00052896 0)
(0.0987593 0.000504594 0)
(0.0977365 0.000481379 0)
(0.0967493 0.000459211 0)
(0.0957968 0.000437993 0)
(0.0948781 0.000417639 0)
(0.0939924 0.000398068 0)
(0.0931392 0.000379207 0)
(0.0923179 0.000360988 0)
(0.0915278 0.000343346 0)
(0.0907688 0.000326224 0)
(0.0900404 0.000309566 0)
(0.0893424 0.000293324 0)
(0.0886746 0.000277449 0)
(0.088037 0.0002619 0)
(0.0874296 0.000246638 0)
(0.0868524 0.000231625 0)
(0.0863055 0.000216829 0)
(0.0857892 0.000202214 0)
(0.0853038 0.000187744 0)
(0.0848495 0.000173374 0)
(0.084427 0.000159051 0)
(0.0840366 0.000144706 0)
(0.083679 0.000130262 0)
(0.083355 0.000115637 0)
(0.0830653 0.000100757 0)
(0.0828106 8.55828e-05 0)
(0.0825914 7.01334e-05 0)
(0.0824076 5.45198e-05 0)
(0.0822589 3.89597e-05 0)
(0.0821435 2.37567e-05 0)
(0.0820579 9.29893e-06 0)
(0.0819996 -3.57408e-06 0)
(0.0819741 -1.35533e-05 0)
(0.081974 -2.02223e-05 0)
(0.0819922 -2.43435e-05 0)
(0.0820237 -2.67512e-05 0)
(0.0820645 -2.79595e-05 0)
(0.0821114 -2.82371e-05 0)
(0.082162 -2.7804e-05 0)
(0.0822145 -2.68596e-05 0)
(0.0822674 -2.55586e-05 0)
(0.0823196 -2.40499e-05 0)
(0.0823704 -2.24357e-05 0)
(0.0824193 -2.07853e-05 0)
(0.082466 -1.91509e-05 0)
(0.0825103 -1.7561e-05 0)
(0.082552 -1.60274e-05 0)
(0.0825911 -1.45545e-05 0)
(0.0826275 -1.31375e-05 0)
(0.0826613 -1.17653e-05 0)
(0.0826924 -1.04332e-05 0)
(0.0827207 -9.2008e-06 0)
(0.0827457 -8.46713e-06 0)
(0.0827737 -9.3745e-06 0)
(0.194503 0.00834762 0)
(0.19569 0.00940467 0)
(0.196764 0.0099594 0)
(0.197506 0.0101982 0)
(0.197895 0.0102049 0)
(0.19794 0.0100122 0)
(0.197641 0.00965567 0)
(0.197004 0.00917826 0)
(0.196057 0.0086218 0)
(0.194839 0.00802354 0)
(0.193393 0.00741513 0)
(0.191764 0.00682169 0)
(0.189993 0.00626122 0)
(0.188118 0.00574484 0)
(0.18617 0.0052777 0)
(0.184174 0.00486044 0)
(0.182152 0.00449053 0)
(0.180118 0.00416362 0)
(0.178084 0.00387455 0)
(0.176057 0.00361805 0)
(0.174045 0.00338923 0)
(0.172051 0.00318375 0)
(0.170079 0.00299797 0)
(0.168132 0.00282888 0)
(0.16621 0.00267403 0)
(0.164317 0.00253147 0)
(0.162453 0.00239963 0)
(0.160619 0.00227725 0)
(0.158817 0.0021633 0)
(0.157047 0.00205693 0)
(0.15531 0.00195743 0)
(0.153606 0.00186418 0)
(0.151936 0.00177664 0)
(0.150301 0.00169434 0)
(0.148699 0.00161686 0)
(0.147131 0.00154381 0)
(0.145598 0.00147485 0)
(0.144098 0.00140966 0)
(0.142633 0.00134794 0)
(0.141201 0.00128942 0)
(0.139803 0.00123387 0)
(0.138439 0.00118104 0)
(0.137107 0.00113074 0)
(0.135808 0.00108276 0)
(0.134542 0.00103692 0)
(0.133308 0.000993052 0)
(0.132106 0.000950999 0)
(0.130936 0.000910615 0)
(0.129798 0.000871762 0)
(0.128691 0.000834311 0)
(0.127615 0.000798141 0)
(0.126571 0.00076314 0)
(0.125558 0.000729201 0)
(0.124576 0.000696222 0)
(0.123626 0.00066411 0)
(0.122707 0.000632774 0)
(0.12182 0.000602131 0)
(0.120964 0.0005721 0)
(0.120141 0.000542607 0)
(0.11935 0.000513581 0)
(0.118593 0.000484959 0)
(0.117868 0.000456676 0)
(0.117177 0.000428674 0)
(0.116521 0.000400893 0)
(0.1159 0.00037327 0)
(0.115315 0.000345735 0)
(0.114766 0.000318208 0)
(0.114255 0.000290603 0)
(0.113783 0.00026283 0)
(0.11335 0.000234811 0)
(0.112956 0.000206504 0)
(0.112604 0.000177939 0)
(0.112292 0.000149259 0)
(0.112021 0.000120768 0)
(0.111789 9.29749e-05 0)
(0.111596 6.65825e-05 0)
(0.111437 4.22572e-05 0)
(0.111308 2.03155e-05 0)
(0.111203 1.13412e-06 0)
(0.111127 -1.45394e-05 0)
(0.111083 -2.60883e-05 0)
(0.111063 -3.36881e-05 0)
(0.111061 -3.82927e-05 0)
(0.111073 -4.07351e-05 0)
(0.111096 -4.16484e-05 0)
(0.111126 -4.14682e-05 0)
(0.111161 -4.04802e-05 0)
(0.1112 -3.89442e-05 0)
(0.111241 -3.70484e-05 0)
(0.111284 -3.4934e-05 0)
(0.111326 -3.27145e-05 0)
(0.111369 -3.04613e-05 0)
(0.11141 -2.82152e-05 0)
(0.11145 -2.59999e-05 0)
(0.111489 -2.38215e-05 0)
(0.111526 -2.16722e-05 0)
(0.111562 -1.95454e-05 0)
(0.111595 -1.74831e-05 0)
(0.111625 -1.57558e-05 0)
(0.111655 -1.46252e-05 0)
(0.195215 0.00783577 0)
(0.196277 0.00883376 0)
(0.197404 0.00942905 0)
(0.198425 0.00974241 0)
(0.199295 0.00984815 0)
(0.2 0.00977642 0)
(0.200513 0.00955355 0)
(0.200812 0.00921206 0)
(0.20089 0.00878573 0)
(0.200754 0.00830617 0)
(0.200418 0.00780146 0)
(0.199905 0.00729515 0)
(0.199238 0.00680533 0)
(0.198441 0.00634437 0)
(0.197539 0.00591938 0)
(0.196553 0.00553318 0)
(0.195499 0.0051854 0)
(0.194391 0.00487361 0)
(0.193242 0.00459423 0)
(0.192059 0.00434324 0)
(0.190849 0.0041167 0)
(0.189618 0.00391098 0)
(0.188369 0.00372295 0)
(0.187106 0.00354996 0)
(0.185832 0.00338984 0)
(0.184549 0.00324085 0)
(0.18326 0.00310158 0)
(0.181966 0.00297088 0)
(0.180669 0.00284783 0)
(0.179372 0.00273168 0)
(0.178076 0.00262179 0)
(0.176782 0.00251762 0)
(0.175493 0.0024187 0)
(0.174209 0.00232463 0)
(0.172932 0.00223503 0)
(0.171663 0.00214957 0)
(0.170404 0.00206796 0)
(0.169154 0.00198993 0)
(0.167917 0.00191521 0)
(0.166691 0.00184358 0)
(0.165479 0.00177482 0)
(0.164281 0.00170873 0)
(0.163098 0.00164513 0)
(0.161931 0.00158383 0)
(0.160781 0.00152467 0)
(0.159647 0.00146749 0)
(0.158532 0.00141214 0)
(0.157435 0.0013585 0)
(0.156357 0.00130641 0)
(0.155299 0.00125575 0)
(0.154261 0.0012064 0)
(0.153245 0.00115825 0)
(0.152251 0.00111118 0)
(0.151279 0.00106508 0)
(0.150331 0.00101985 0)
(0.149406 0.000975387 0)
(0.148506 0.000931599 0)
(0.147632 0.000888392 0)
(0.146784 0.000845678 0)
(0.145964 0.000803374 0)
(0.145172 0.000761399 0)
(0.144408 0.000719677 0)
(0.143675 0.000678133 0)
(0.142973 0.000636691 0)
(0.142303 0.000595273 0)
(0.141667 0.000553797 0)
(0.141065 0.000512174 0)
(0.140499 0.000470318 0)
(0.139969 0.000428155 0)
(0.139477 0.000385643 0)
(0.139024 0.000342808 0)
(0.138611 0.000299785 0)
(0.138237 0.000256868 0)
(0.137902 0.000214554 0)
(0.137606 0.000173567 0)
(0.137346 0.000134836 0)
(0.137121 9.9349e-05 0)
(0.136928 6.78781e-05 0)
(0.136764 4.03746e-05 0)
(0.136622 1.65881e-05 0)
(0.1365 -3.2646e-06 0)
(0.136404 -1.90324e-05 0)
(0.136334 -3.06815e-05 0)
(0.136284 -3.85284e-05 0)
(0.136253 -4.34149e-05 0)
(0.136235 -4.61207e-05 0)
(0.136229 -4.72266e-05 0)
(0.136232 -4.72043e-05 0)
(0.136242 -4.63704e-05 0)
(0.136258 -4.4955e-05 0)
(0.136279 -4.31469e-05 0)
(0.136302 -4.1077e-05 0)
(0.136328 -3.8834e-05 0)
(0.136356 -3.64805e-05 0)
(0.136384 -3.4051e-05 0)
(0.136414 -3.15541e-05 0)
(0.136443 -2.89841e-05 0)
(0.136472 -2.63373e-05 0)
(0.136499 -2.36236e-05 0)
(0.136526 -1.99788e-05 0)
(0.195817 0.00739502 0)
(0.196711 0.00829552 0)
(0.197718 0.00888068 0)
(0.198709 0.00922054 0)
(0.199636 0.00937385 0)
(0.200481 0.00936854 0)
(0.201221 0.00922631 0)
(0.201831 0.00897335 0)
(0.202298 0.00863792 0)
(0.202615 0.00824707 0)
(0.202787 0.0078253 0)
(0.202822 0.00739366 0)
(0.202732 0.00696889 0)
(0.202533 0.00656308 0)
(0.20224 0.00618386 0)
(0.201868 0.00583508 0)
(0.201428 0.00551762 0)
(0.200933 0.00523033 0)
(0.200391 0.0049708 0)
(0.199809 0.00473602 0)
(0.199192 0.00452285 0)
(0.198544 0.00432827 0)
(0.197869 0.00414959 0)
(0.197168 0.00398449 0)
(0.196444 0.003831 0)
(0.1957 0.00368753 0)
(0.194935 0.00355276 0)
(0.194153 0.00342564 0)
(0.193353 0.0033053 0)
(0.192539 0.00319102 0)
(0.19171 0.00308221 0)
(0.19087 0.00297838 0)
(0.190017 0.00287908 0)
(0.189155 0.00278395 0)
(0.188284 0.00269266 0)
(0.187405 0.00260492 0)
(0.186521 0.00252046 0)
(0.185631 0.00243905 0)
(0.184737 0.00236045 0)
(0.18384 0.00228447 0)
(0.182941 0.00221092 0)
(0.182042 0.00213963 0)
(0.181143 0.00207042 0)
(0.180245 0.00200315 0)
(0.17935 0.00193767 0)
(0.178458 0.00187384 0)
(0.177571 0.00181152 0)
(0.176689 0.0017506 0)
(0.175813 0.00169094 0)
(0.174945 0.00163243 0)
(0.174086 0.00157495 0)
(0.173236 0.0015184 0)
(0.172396 0.00146266 0)
(0.171568 0.00140764 0)
(0.170753 0.00135322 0)
(0.169951 0.00129931 0)
(0.169164 0.00124581 0)
(0.168393 0.00119263 0)
(0.167639 0.00113968 0)
(0.166903 0.00108686 0)
(0.166186 0.0010341 0)
(0.16549 0.000981312 0)
(0.164816 0.000928414 0)
(0.164165 0.000875328 0)
(0.163538 0.000821971 0)
(0.162938 0.000768261 0)
(0.162364 0.000714118 0)
(0.161819 0.000659472 0)
(0.161304 0.000604285 0)
(0.16082 0.000548572 0)
(0.160368 0.000492444 0)
(0.159949 0.000436151 0)
(0.159562 0.000380133 0)
(0.159208 0.000325051 0)
(0.158887 0.000271792 0)
(0.158596 0.000221418 0)
(0.158335 0.000175011 0)
(0.158103 0.000133441 0)
(0.157898 9.70979e-05 0)
(0.157717 6.60019e-05 0)
(0.157557 3.95932e-05 0)
(0.157415 1.73073e-05 0)
(0.157287 -9.25748e-07 0)
(0.157177 -1.53845e-05 0)
(0.157088 -2.63887e-05 0)
(0.157017 -3.42226e-05 0)
(0.15696 -3.94683e-05 0)
(0.156917 -4.2751e-05 0)
(0.156884 -4.45609e-05 0)
(0.156861 -4.52699e-05 0)
(0.156846 -4.51718e-05 0)
(0.156838 -4.44677e-05 0)
(0.156835 -4.32971e-05 0)
(0.156837 -4.17667e-05 0)
(0.156844 -3.99467e-05 0)
(0.156853 -3.78705e-05 0)
(0.156865 -3.5539e-05 0)
(0.156879 -3.28985e-05 0)
(0.156894 -2.96865e-05 0)
(0.156908 -2.39878e-05 0)
(0.196342 0.00701638 0)
(0.197099 0.0078195 0)
(0.197975 0.00837801 0)
(0.198873 0.00872523 0)
(0.199745 0.00890312 0)
(0.20057 0.00893668 0)
(0.201329 0.0088453 0)
(0.202002 0.0086513 0)
(0.202575 0.00837902 0)
(0.203043 0.00805215 0)
(0.203403 0.00769225 0)
(0.203661 0.00731807 0)
(0.203824 0.00694485 0)
(0.203903 0.006584 0)
(0.203907 0.00624316 0)
(0.203849 0.00592665 0)
(0.203736 0.00563615 0)
(0.203578 0.00537139 0)
(0.203382 0.00513086 0)
(0.203153 0.00491232 0)
(0.202894 0.00471326 0)
(0.202609 0.00453117 0)
(0.202301 0.00436371 0)
(0.20197 0.00420881 0)
(0.201618 0.0040647 0)
(0.201246 0.00392988 0)
(0.200856 0.00380311 0)
(0.200446 0.00368338 0)
(0.200019 0.00356985 0)
(0.199575 0.00346181 0)
(0.199115 0.00335868 0)
(0.198639 0.00325999 0)
(0.198148 0.0031653 0)
(0.197643 0.00307426 0)
(0.197124 0.00298655 0)
(0.196592 0.00290187 0)
(0.196049 0.00281998 0)
(0.195494 0.00274066 0)
(0.194928 0.00266368 0)
(0.194353 0.00258885 0)
(0.19377 0.002516 0)
(0.193178 0.00244497 0)
(0.192578 0.00237559 0)
(0.191973 0.00230773 0)
(0.191361 0.00224123 0)
(0.190745 0.00217598 0)
(0.190126 0.00211184 0)
(0.189503 0.00204869 0)
(0.188878 0.00198643 0)
(0.188251 0.00192492 0)
(0.187625 0.00186406 0)
(0.186999 0.00180375 0)
(0.186375 0.00174388 0)
(0.185754 0.00168434 0)
(0.185136 0.00162503 0)
(0.184523 0.00156586 0)
(0.183916 0.00150672 0)
(0.183316 0.00144752 0)
(0.182724 0.00138816 0)
(0.182141 0.00132856 0)
(0.181569 0.00126863 0)
(0.181008 0.00120828 0)
(0.18046 0.00114744 0)
(0.179927 0.00108602 0)
(0.179409 0.00102394 0)
(0.178908 0.000961135 0)
(0.178425 0.000897534 0)
(0.177961 0.000833097 0)
(0.177518 0.000767828 0)
(0.177097 0.000701804 0)
(0.176699 0.00063522 0)
(0.176324 0.00056843 0)
(0.175972 0.000501993 0)
(0.175644 0.000436691 0)
(0.17534 0.000373523 0)
(0.175058 0.000313623 0)
(0.174799 0.000258105 0)
(0.174562 0.000207868 0)
(0.174346 0.000163403 0)
(0.174151 0.000124803 0)
(0.173974 9.18512e-05 0)
(0.173815 6.41788e-05 0)
(0.173671 4.11017e-05 0)
(0.17354 2.1828e-05 0)
(0.17342 6.01398e-06 0)
(0.173311 -6.64233e-06 0)
(0.173216 -1.66128e-05 0)
(0.173135 -2.42121e-05 0)
(0.173065 -2.97598e-05 0)
(0.173007 -3.36516e-05 0)
(0.172957 -3.62558e-05 0)
(0.172916 -3.78551e-05 0)
(0.172883 -3.86539e-05 0)
(0.172856 -3.88078e-05 0)
(0.172835 -3.84216e-05 0)
(0.172819 -3.75502e-05 0)
(0.172808 -3.62005e-05 0)
(0.1728 -3.42805e-05 0)
(0.172795 -3.13377e-05 0)
(0.172791 -2.48729e-05 0)
(0.196805 0.00668839 0)
(0.197455 0.00740172 0)
(0.198217 0.00792485 0)
(0.199019 0.00826821 0)
(0.199815 0.00845923 0)
(0.200583 0.00851892 0)
(0.201303 0.00846447 0)
(0.201959 0.00831496 0)
(0.202539 0.00809135 0)
(0.203036 0.0078144 0)
(0.20345 0.00750325 0)
(0.203784 0.00717469 0)
(0.204041 0.00684266 0)
(0.204232 0.0065179 0)
(0.204363 0.00620793 0)
(0.204444 0.00591738 0)
(0.204483 0.0056485 0)
(0.204487 0.00540173 0)
(0.204461 0.00517627 0)
(0.204411 0.00497053 0)
(0.204339 0.00478256 0)
(0.204248 0.0046103 0)
(0.20414 0.00445175 0)
(0.204017 0.00430509 0)
(0.203879 0.0041687 0)
(0.203726 0.00404121 0)
(0.20356 0.00392146 0)
(0.203381 0.00380845 0)
(0.203188 0.00370136 0)
(0.202982 0.00359952 0)
(0.202763 0.00350234 0)
(0.202531 0.00340932 0)
(0.202287 0.00332004 0)
(0.202031 0.00323413 0)
(0.201762 0.00315126 0)
(0.201482 0.00307115 0)
(0.201191 0.00299354 0)
(0.200889 0.00291819 0)
(0.200576 0.00284489 0)
(0.200252 0.00277343 0)
(0.199919 0.00270365 0)
(0.199576 0.00263537 0)
(0.199225 0.00256843 0)
(0.198864 0.00250268 0)
(0.198496 0.00243798 0)
(0.19812 0.0023742 0)
(0.197737 0.00231121 0)
(0.197347 0.00224888 0)
(0.196952 0.0021871 0)
(0.196551 0.00212574 0)
(0.196146 0.00206469 0)
(0.195737 0.00200384 0)
(0.195325 0.00194308 0)
(0.19491 0.00188231 0)
(0.194494 0.00182141 0)
(0.194077 0.00176027 0)
(0.193659 0.00169881 0)
(0.193243 0.00163692 0)
(0.192829 0.00157449 0)
(0.192417 0.00151145 0)
(0.192009 0.00144769 0)
(0.191605 0.00138313 0)
(0.191207 0.00131769 0)
(0.190816 0.00125128 0)
(0.190433 0.00118384 0)
(0.190059 0.0011153 0)
(0.189695 0.0010456 0)
(0.189342 0.000974752 0)
(0.189 0.000902784 0)
(0.188672 0.000829835 0)
(0.188357 0.000756168 0)
(0.188056 0.000682215 0)
(0.187769 0.000608619 0)
(0.187497 0.000536239 0)
(0.18724 0.000466128 0)
(0.186997 0.000399445 0)
(0.186769 0.000337308 0)
(0.186555 0.000280614 0)
(0.186356 0.00022989 0)
(0.186171 0.000185297 0)
(0.186 0.000146713 0)
(0.185843 0.000113785 0)
(0.185699 8.59759e-05 0)
(0.185566 6.27557e-05 0)
(0.185445 4.35122e-05 0)
(0.185333 2.75045e-05 0)
(0.185229 1.41949e-05 0)
(0.185132 3.29172e-06 0)
(0.185044 -5.53111e-06 0)
(0.184964 -1.26139e-05 0)
(0.184893 -1.81773e-05 0)
(0.184831 -2.24221e-05 0)
(0.184775 -2.55618e-05 0)
(0.184726 -2.7784e-05 0)
(0.184683 -2.92295e-05 0)
(0.184645 -2.99807e-05 0)
(0.184612 -3.00561e-05 0)
(0.184584 -2.93498e-05 0)
(0.18456 -2.73526e-05 0)
(0.184536 -2.16623e-05 0)
(0.197214 0.00639849 0)
(0.197781 0.00703142 0)
(0.198448 0.00751545 0)
(0.199163 0.00784827 0)
(0.199885 0.00804597 0)
(0.20059 0.00812485 0)
(0.20126 0.00809964 0)
(0.201878 0.00798648 0)
(0.202436 0.00780327 0)
(0.202925 0.00756811 0)
(0.203344 0.00729797 0)
(0.203696 0.00700795 0)
(0.203984 0.00671082 0)
(0.204215 0.00641663 0)
(0.204396 0.00613273 0)
(0.204534 0.00586397 0)
(0.204638 0.00561301 0)
(0.204712 0.00538088 0)
(0.204762 0.00516738 0)
(0.204793 0.0049715 0)
(0.204808 0.00479181 0)
(0.204809 0.00462666 0)
(0.204799 0.00447439 0)
(0.204778 0.00433343 0)
(0.204748 0.00420236 0)
(0.204708 0.0040799 0)
(0.20466 0.00396499 0)
(0.204603 0.00385669 0)
(0.204538 0.00375421 0)
(0.204465 0.00365687 0)
(0.204384 0.00356412 0)
(0.204294 0.00347544 0)
(0.204196 0.00339041 0)
(0.204089 0.00330866 0)
(0.203975 0.00322985 0)
(0.203852 0.00315369 0)
(0.203721 0.00307991 0)
(0.203582 0.00300827 0)
(0.203435 0.00293854 0)
(0.203279 0.00287052 0)
(0.203116 0.00280402 0)
(0.202946 0.00273886 0)
(0.202767 0.00267488 0)
(0.202582 0.00261192 0)
(0.202389 0.00254982 0)
(0.202189 0.00248845 0)
(0.201982 0.00242767 0)
(0.201769 0.00236735 0)
(0.20155 0.00230736 0)
(0.201325 0.00224756 0)
(0.201094 0.00218785 0)
(0.200858 0.0021281 0)
(0.200618 0.00206819 0)
(0.200373 0.00200801 0)
(0.200125 0.00194744 0)
(0.199873 0.00188638 0)
(0.199618 0.0018247 0)
(0.199362 0.00176231 0)
(0.199103 0.00169909 0)
(0.198844 0.00163496 0)
(0.198584 0.0015698 0)
(0.198325 0.00150355 0)
(0.198066 0.00143609 0)
(0.197809 0.00136736 0)
(0.197555 0.00129729 0)
(0.197304 0.00122583 0)
(0.197057 0.00115293 0)
(0.196814 0.00107862 0)
(0.196577 0.00100297 0)
(0.196345 0.000926163 0)
(0.19612 0.00084851 0)
(0.195901 0.000770494 0)
(0.195688 0.000692803 0)
(0.195483 0.000616327 0)
(0.195284 0.000542127 0)
(0.195093 0.000471351 0)
(0.19491 0.000405091 0)
(0.194734 0.000344227 0)
(0.194567 0.000289309 0)
(0.194409 0.000240542 0)
(0.194261 0.000197851 0)
(0.194121 0.000160941 0)
(0.19399 0.000129364 0)
(0.193869 0.000102603 0)
(0.193756 8.0057e-05 0)
(0.19365 6.11483e-05 0)
(0.193552 4.53835e-05 0)
(0.193461 3.22384e-05 0)
(0.193376 2.12108e-05 0)
(0.193295 1.19473e-05 0)
(0.19322 4.24163e-06 0)
(0.19315 -2.10393e-06 0)
(0.193085 -7.29246e-06 0)
(0.193025 -1.1454e-05 0)
(0.192971 -1.46775e-05 0)
(0.192921 -1.70432e-05 0)
(0.192875 -1.8582e-05 0)
(0.192833 -1.92055e-05 0)
(0.192796 -1.84811e-05 0)
(0.192756 -1.46733e-05 0)
(0.197578 0.00613785 0)
(0.198079 0.0067002 0)
(0.198667 0.00714483 0)
(0.199305 0.00746308 0)
(0.19996 0.0076628 0)
(0.200605 0.00775577 0)
(0.201224 0.00775411 0)
(0.201803 0.00767137 0)
(0.20233 0.00752272 0)
(0.2028 0.00732383 0)
(0.20321 0.00708965 0)
(0.203561 0.00683372 0)
(0.203856 0.00656767 0)
(0.204101 0.00630087 0)
(0.204301 0.00604043 0)
(0.204463 0.00579127 0)
(0.204594 0.00555637 0)
(0.204699 0.00533722 0)
(0.204782 0.00513412 0)
(0.204849 0.00494659 0)
(0.204902 0.00477364 0)
(0.204944 0.00461404 0)
(0.204977 0.00446644 0)
(0.205003 0.00432951 0)
(0.205022 0.00420203 0)
(0.205035 0.00408287 0)
(0.205042 0.00397106 0)
(0.205044 0.00386572 0)
(0.205042 0.00376612 0)
(0.205034 0.00367161 0)
(0.205022 0.00358164 0)
(0.205005 0.00349573 0)
(0.204983 0.00341345 0)
(0.204957 0.00333443 0)
(0.204925 0.00325833 0)
(0.204889 0.00318486 0)
(0.204848 0.00311374 0)
(0.204801 0.00304474 0)
(0.20475 0.00297761 0)
(0.204694 0.00291216 0)
(0.204632 0.00284818 0)
(0.204566 0.00278549 0)
(0.204494 0.00272392 0)
(0.204417 0.00266331 0)
(0.204335 0.00260349 0)
(0.204249 0.00254432 0)
(0.204157 0.00248564 0)
(0.20406 0.00242733 0)
(0.203959 0.00236925 0)
(0.203853 0.00231125 0)
(0.203742 0.00225322 0)
(0.203627 0.00219502 0)
(0.203507 0.00213652 0)
(0.203384 0.00207761 0)
(0.203256 0.00201816 0)
(0.203125 0.00195804 0)
(0.202991 0.00189715 0)
(0.202854 0.00183537 0)
(0.202713 0.00177258 0)
(0.20257 0.00170869 0)
(0.202426 0.00164358 0)
(0.202279 0.00157716 0)
(0.202131 0.00150935 0)
(0.201981 0.00144007 0)
(0.201832 0.00136924 0)
(0.201681 0.00129683 0)
(0.201531 0.00122281 0)
(0.201382 0.00114722 0)
(0.201233 0.00107016 0)
(0.201085 0.000991846 0)
(0.200938 0.000912611 0)
(0.200792 0.000832967 0)
(0.200648 0.000753613 0)
(0.200504 0.000675436 0)
(0.200363 0.000599473 0)
(0.200223 0.000526826 0)
(0.200086 0.00045854 0)
(0.199952 0.000395468 0)
(0.199821 0.000338163 0)
(0.199696 0.000286865 0)
(0.199575 0.000241548 0)
(0.199459 0.00020197 0)
(0.199349 0.000167738 0)
(0.199246 0.000138373 0)
(0.199148 0.000113335 0)
(0.199055 9.20936e-05 0)
(0.198969 7.41376e-05 0)
(0.198887 5.8965e-05 0)
(0.19881 4.61588e-05 0)
(0.198738 3.53716e-05 0)
(0.198669 2.62705e-05 0)
(0.198604 1.85648e-05 0)
(0.198542 1.20411e-05 0)
(0.198483 6.57454e-06 0)
(0.198427 2.08022e-06 0)
(0.198374 -1.52048e-06 0)
(0.198324 -4.25647e-06 0)
(0.198277 -6.05023e-06 0)
(0.198233 -6.6007e-06 0)
(0.198184 -5.0547e-06 0)
(0.197904 0.00590042 0)
(0.19835 0.00640142 0)
(0.198873 0.00680817 0)
(0.199445 0.00710946 0)
(0.200038 0.00730762 0)
(0.200628 0.00741049 0)
(0.2012 0.00742774 0)
(0.201739 0.00737056 0)
(0.202236 0.00725175 0)
(0.202683 0.00708473 0)
(0.203079 0.00688261 0)
(0.203423 0.00665744 0)
(0.203718 0.00641975 0)
(0.203967 0.00617822 0)
(0.204176 0.00593965 0)
(0.204349 0.00570891 0)
(0.204493 0.00548921 0)
(0.204613 0.00528239 0)
(0.204712 0.00508916 0)
(0.204796 0.00490948 0)
(0.204867 0.00474277 0)
(0.204928 0.00458814 0)
(0.20498 0.00444455 0)
(0.205026 0.00431093 0)
(0.205067 0.00418624 0)
(0.205103 0.0040695 0)
(0.205135 0.00395983 0)
(0.205164 0.00385645 0)
(0.205189 0.00375869 0)
(0.205212 0.00366592 0)
(0.205232 0.00357764 0)
(0.205248 0.00349338 0)
(0.205263 0.00341272 0)
(0.205274 0.00333531 0)
(0.205283 0.00326081 0)
(0.20529 0.00318894 0)
(0.205293 0.00311943 0)
(0.205294 0.00305203 0)
(0.205292 0.00298651 0)
(0.205288 0.00292266 0)
(0.20528 0.00286029 0)
(0.20527 0.0027992 0)
(0.205257 0.00273923 0)
(0.205241 0.00268021 0)
(0.205221 0.00262196 0)
(0.205199 0.00256435 0)
(0.205174 0.00250722 0)
(0.205146 0.00245043 0)
(0.205114 0.00239383 0)
(0.20508 0.00233728 0)
(0.205042 0.00228066 0)
(0.205001 0.00222382 0)
(0.204958 0.00216664 0)
(0.204911 0.00210898 0)
(0.204861 0.00205071 0)
(0.204808 0.00199172 0)
(0.204752 0.00193188 0)
(0.204694 0.00187106 0)
(0.204633 0.00180916 0)
(0.204569 0.00174605 0)
(0.204502 0.00168165 0)
(0.204433 0.00161584 0)
(0.204362 0.00154853 0)
(0.204289 0.00147966 0)
(0.204213 0.00140915 0)
(0.204136 0.00133697 0)
(0.204057 0.00126312 0)
(0.203975 0.00118764 0)
(0.203892 0.00111065 0)
(0.203807 0.00103238 0)
(0.203721 0.000953186 0)
(0.203632 0.000873577 0)
(0.203541 0.000794246 0)
(0.203447 0.000716048 0)
(0.203352 0.000639971 0)
(0.203256 0.000567055 0)
(0.203158 0.000498285 0)
(0.20306 0.00043447 0)
(0.202963 0.000376159 0)
(0.202866 0.000323615 0)
(0.202772 0.000276852 0)
(0.202681 0.00023568 0)
(0.202592 0.000199761 0)
(0.202508 0.000168663 0)
(0.202427 0.000141899 0)
(0.202349 0.000118966 0)
(0.202276 9.93841e-05 0)
(0.202206 8.26909e-05 0)
(0.20214 6.84817e-05 0)
(0.202076 5.63961e-05 0)
(0.202016 4.61083e-05 0)
(0.201959 3.73572e-05 0)
(0.201903 2.99388e-05 0)
(0.20185 2.36735e-05 0)
(0.201799 1.84124e-05 0)
(0.201749 1.40568e-05 0)
(0.201701 1.0566e-05 0)
(0.201655 7.97621e-06 0)
(0.20161 6.42099e-06 0)
(0.201559 5.97725e-06 0)
(0.198195 0.00568185 0)
(0.198598 0.00612967 0)
(0.199066 0.00650101 0)
(0.19958 0.00678421 0)
(0.200117 0.00697814 0)
(0.200658 0.00708753 0)
(0.201186 0.00711976 0)
(0.201688 0.007084 0)
(0.202154 0.0069909 0)
(0.20258 0.00685192 0)
(0.20296 0.00667845 0)
(0.203295 0.00648115 0)
(0.203586 0.0062695 0)
(0.203835 0.0060515 0)
(0.204048 0.00583355 0)
(0.204228 0.00562043 0)
(0.204379 0.00541547 0)
(0.204508 0.00522073 0)
(0.204617 0.00503729 0)
(0.204711 0.00486544 0)
(0.204792 0.00470496 0)
(0.204863 0.00455528 0)
(0.204925 0.00441565 0)
(0.204982 0.0042852 0)
(0.205033 0.0041631 0)
(0.20508 0.0040485 0)
(0.205123 0.00394064 0)
(0.205164 0.00383884 0)
(0.205202 0.00374245 0)
(0.205237 0.00365093 0)
(0.205271 0.00356379 0)
(0.205303 0.00348059 0)
(0.205333 0.00340095 0)
(0.205361 0.00332451 0)
(0.205389 0.00325096 0)
(0.205414 0.00318002 0)
(0.205438 0.00311142 0)
(0.205461 0.00304493 0)
(0.205483 0.00298031 0)
(0.205503 0.00291738 0)
(0.205521 0.00285592 0)
(0.205539 0.00279576 0)
(0.205554 0.00273672 0)
(0.205568 0.00267864 0)
(0.205581 0.00262134 0)
(0.205592 0.00256469 0)
(0.205601 0.00250852 0)
(0.205609 0.0024527 0)
(0.205615 0.00239707 0)
(0.205619 0.0023415 0)
(0.205622 0.00228586 0)
(0.205622 0.00223 0)
(0.205621 0.00217379 0)
(0.205617 0.0021171 0)
(0.205612 0.0020598 0)
(0.205605 0.00200176 0)
(0.205595 0.00194286 0)
(0.205583 0.00188297 0)
(0.20557 0.00182198 0)
(0.205554 0.00175978 0)
(0.205535 0.00169625 0)
(0.205515 0.0016313 0)
(0.205492 0.00156485 0)
(0.205466 0.00149681 0)
(0.205438 0.00142713 0)
(0.205408 0.00135578 0)
(0.205374 0.00128276 0)
(0.205338 0.00120814 0)
(0.205299 0.00113205 0)
(0.205256 0.00105473 0)
(0.20521 0.000976523 0)
(0.205161 0.000897945 0)
(0.205107 0.000819655 0)
(0.20505 0.000742467 0)
(0.204988 0.000667307 0)
(0.204923 0.000595141 0)
(0.204855 0.000526885 0)
(0.204785 0.000463301 0)
(0.204713 0.000404921 0)
(0.204641 0.000352021 0)
(0.204568 0.000304651 0)
(0.204497 0.000262667 0)
(0.204427 0.000225781 0)
(0.204358 0.000193612 0)
(0.204292 0.000165717 0)