/*--------------------------------*- C++ -*----------------------------------*\
| =========                 |                                                 |
| \\      /  F ield         | OpenFOAM: The Open Source CFD Toolbox           |
|  \\    /   O peration     | Version:  2.3.0                                 |
|   \\  /    A nd           | Web:      www.OpenFOAM.org                      |
|    \\/     M anipulation  |                                                 |
\*---------------------------------------------------------------------------*/
FoamFile
{
    version     2.0;
    format      ascii;
    class       surfaceScalarField;
    location    "0.9";
    object      phi;
}
// * * * * * * * * * * * * * * * * * * * * * * * * * * * * * * * * * * * * * //

dimensions      [0 3 -1 0 0 0 0];

internalField   nonuniform List<scalar> 
1660
(
6.3476e-08
2.7166e-09
-6.61926e-08
5.9793e-08
3.68295e-09
5.58155e-08
3.97748e-09
5.18679e-08
3.94767e-09
4.79693e-08
3.89855e-09
4.40807e-08
3.88857e-09
4.02046e-08
3.87618e-09
3.63787e-08
3.82592e-09
3.26662e-08
3.71245e-09
2.91458e-08
3.52042e-09
2.59034e-08
3.24235e-09
2.30045e-08
2.8989e-09
2.05102e-08
2.49437e-09
1.84567e-08
2.05344e-09
1.68387e-08
1.61804e-09
1.56109e-08
1.22778e-09
1.47016e-08
9.09261e-10
1.40354e-08
6.66229e-10
1.35426e-08
4.92809e-10
1.3166e-08
3.76636e-10
1.28645e-08
3.01424e-10
1.26067e-08
2.57862e-10
1.23696e-08
2.37024e-10
1.21399e-08
2.29755e-10
1.19106e-08
2.29289e-10
1.16805e-08
2.30095e-10
1.14488e-08
2.31741e-10
1.12185e-08
2.30302e-10
1.09911e-08
2.27382e-10
1.07681e-08
2.22937e-10
1.05531e-08
2.1506e-10
1.03444e-08
2.0873e-10
1.01452e-08
1.99183e-10
9.95468e-09
1.90493e-10
9.77162e-09
1.83058e-10
9.59913e-09
1.7249e-10
9.43231e-09
1.6682e-10
9.27451e-09
1.578e-10
9.12399e-09
1.50523e-10
8.9784e-09
1.45595e-10
8.84077e-09
1.37625e-10
8.70674e-09
1.34034e-10
8.5775e-09
1.29237e-10
8.45314e-09
1.24364e-10
8.33113e-09
1.2201e-10
8.21225e-09
1.18879e-10
8.09688e-09
1.15368e-10
7.98116e-09
1.1572e-10
7.86836e-09
1.12798e-10
1.25617e-10
7.274e-08
2.50641e-09
-7.25299e-08
7.28647e-08
3.55832e-09
7.25297e-08
4.31251e-09
7.18509e-08
4.62641e-09
7.09822e-08
4.76726e-09
6.9968e-08
4.90275e-09
6.87745e-08
5.06966e-09
6.73829e-08
5.21757e-09
6.58094e-08
5.28593e-09
6.4086e-08
5.24387e-09
6.22412e-08
5.0871e-09
6.0316e-08
4.82413e-09
5.83517e-08
4.45866e-09
5.63935e-08
4.01158e-09
5.44843e-08
3.52728e-09
5.26604e-08
3.05173e-09
5.09398e-08
2.62982e-09
4.93298e-08
2.27624e-09
4.7824e-08
1.99865e-09
4.6411e-08
1.7896e-09
4.50912e-08
1.62125e-09
4.3857e-08
1.49207e-09
4.2697e-08
1.397e-09
4.16049e-08
1.32184e-09
4.05717e-08
1.26252e-09
3.95947e-08
1.20706e-09
3.8666e-08
1.16044e-09
3.77859e-08
1.11038e-09
3.69479e-08
1.06543e-09
3.61527e-08
1.01813e-09
3.53958e-08
9.71959e-10
3.46771e-08
9.27429e-10
3.39923e-08
8.8393e-10
3.33431e-08
8.39666e-10
3.27217e-08
8.04541e-10
3.21341e-08
7.60063e-10
3.15687e-08
7.32225e-10
3.1034e-08
6.92532e-10
3.05188e-08
6.65628e-10
3.00292e-08
6.35218e-10
2.95565e-08
6.10335e-10
2.91063e-08
5.84292e-10
2.86676e-08
5.67919e-10
2.8251e-08
5.40932e-10
2.78409e-08
5.32069e-10
2.74511e-08
5.08716e-10
2.70654e-08
5.01026e-10
2.66952e-08
4.85979e-10
2.63255e-08
4.82457e-10
4.84824e-10
7.87696e-08
2.47669e-09
-7.87399e-08
7.90856e-08
3.24232e-09
7.93627e-08
4.03543e-09
7.94898e-08
4.49927e-09
7.95101e-08
4.747e-09
7.94918e-08
4.92099e-09
7.94511e-08
5.11035e-09
7.93578e-08
5.31086e-09
7.91795e-08
5.46431e-09
7.88954e-08
5.52792e-09
7.84982e-08
5.48428e-09
7.79865e-08
5.33588e-09
7.73603e-08
5.08486e-09
7.66304e-08
4.74143e-09
7.58143e-08
4.34344e-09
7.4939e-08
3.92695e-09
7.40259e-08
3.54295e-09
7.30954e-08
3.20674e-09
7.21534e-08
2.94067e-09
7.1214e-08
2.72898e-09
7.027e-08
2.5653e-09
6.93308e-08
2.43122e-09
6.83935e-08
2.33428e-09
6.74639e-08
2.25146e-09
6.65367e-08
2.18976e-09
6.56179e-08
2.12589e-09
6.47012e-08
2.07711e-09
6.37955e-08
2.01609e-09
6.28925e-08
1.96846e-09
6.20033e-08
1.90727e-09
6.11191e-08
1.85616e-09
6.02512e-08
1.79539e-09
5.93911e-08
1.74395e-09
5.85498e-08
1.68098e-09
5.7718e-08
1.63635e-09
5.69085e-08
1.56956e-09
5.61076e-08
1.53311e-09
5.53333e-08
1.46687e-09
5.45664e-08
1.43254e-09
5.38277e-08
1.37387e-09
5.30965e-08
1.34153e-09
5.23926e-08
1.28819e-09
5.1696e-08
1.26452e-09
5.1027e-08
1.20996e-09
5.03616e-08
1.1975e-09
4.97259e-08
1.14434e-09
4.90897e-08
1.13723e-09
4.84817e-08
1.09406e-09
4.78692e-08
1.0949e-09
1.06725e-09
8.53459e-08
2.48106e-09
-8.53503e-08
8.55133e-08
3.07492e-09
8.58065e-08
3.74217e-09
8.60603e-08
4.24549e-09
8.62334e-08
4.57392e-09
8.63772e-08
4.77724e-09
8.65464e-08
4.94112e-09
8.67439e-08
5.11337e-09
8.69378e-08
5.27037e-09
8.71052e-08
5.36054e-09
8.72207e-08
5.36876e-09
8.72761e-08
5.28049e-09
8.72564e-08
5.10455e-09
8.71572e-08
4.84067e-09
8.69753e-08
4.52529e-09
8.67254e-08
4.17685e-09
8.64173e-08
3.85108e-09
8.60724e-08
3.55168e-09
8.56963e-08
3.31674e-09
8.53043e-08
3.12096e-09
8.48893e-08
2.98028e-09
8.44618e-08
2.85881e-09
8.40181e-08
2.7779e-09
8.35669e-08
2.70264e-09
8.31006e-08
2.65614e-09
8.26272e-08
2.59927e-09
8.21355e-08
2.56885e-09
8.16385e-08
2.51308e-09
8.11214e-08
2.48552e-09
8.05989e-08
2.4298e-09
8.00576e-08
2.39746e-09
7.95088e-08
2.34417e-09
7.89456e-08
2.30717e-09
7.83753e-08
2.25128e-09
7.77914e-08
2.22021e-09
7.72058e-08
2.15514e-09
7.66032e-08
2.13574e-09
7.60061e-08
2.06401e-09
7.53919e-08
2.04668e-09
7.47841e-08
1.98171e-09
7.41652e-08
1.96039e-09
7.35497e-08
1.90369e-09
7.29271e-08
1.88715e-09
7.23104e-08
1.82669e-09
7.16834e-08
1.82444e-09
7.10671e-08
1.7607e-09
7.04393e-08
1.76505e-09
6.98208e-08
1.7125e-09
6.91928e-08
1.72297e-09
1.68453e-09
9.24394e-08
2.4787e-09
-9.2437e-08
9.2546e-08
2.96831e-09
9.27799e-08
3.50826e-09
9.30341e-08
3.99133e-09
9.32479e-08
4.36013e-09
9.34284e-08
4.59668e-09
9.36124e-08
4.7571e-09
9.38259e-08
4.89987e-09
9.40619e-08
5.03442e-09
9.43012e-08
5.12118e-09
9.45166e-08
5.15344e-09
9.46984e-08
5.09865e-09
9.4833e-08
4.96998e-09
9.49153e-08
4.7584e-09
9.49361e-08
4.50442e-09
9.49048e-08
4.20817e-09
9.48261e-08
3.92975e-09
9.47189e-08
3.65889e-09
9.45883e-08
3.44737e-09
9.44473e-08
3.26192e-09
9.42926e-08
3.135e-09
9.41318e-08
3.01967e-09
9.39623e-08
2.94734e-09
9.37913e-08
2.87361e-09
9.36125e-08
2.83498e-09
9.34331e-08
2.77869e-09
9.32419e-08
2.76005e-09
9.3049e-08
2.706e-09
9.28432e-08
2.69129e-09
9.26317e-08
2.64127e-09
9.24082e-08
2.62098e-09
9.21733e-08
2.57912e-09
9.19274e-08
2.553e-09
9.16698e-08
2.50888e-09
9.13991e-08
2.49097e-09
9.11202e-08
2.43396e-09
9.08236e-08
2.43241e-09
9.05209e-08
2.36669e-09
9.0202e-08
2.36558e-09
8.98737e-08
2.30998e-09
8.95357e-08
2.29839e-09
8.91842e-08
2.25524e-09
8.88251e-08
2.2462e-09
8.84543e-08
2.19753e-09
8.80734e-08
2.20527e-09
8.76826e-08
2.15152e-09
8.72823e-08
2.16536e-09
8.68688e-08
2.12603e-09
8.6449e-08
2.1428e-09
2.11942e-09
1.00079e-07
2.46606e-09
-1.00067e-07
1.00163e-07
2.88479e-09
1.00342e-07
3.32868e-09
1.00571e-07
3.76265e-09
1.00796e-07
4.1352e-09
1.00999e-07
4.39374e-09
1.01186e-07
4.57039e-09
1.01386e-07
4.69911e-09
1.01606e-07
4.81491e-09
1.01837e-07
4.89028e-09
1.02056e-07
4.93419e-09
1.02251e-07
4.90373e-09
1.0241e-07
4.81125e-09
1.02526e-07
4.64205e-09
1.02593e-07
4.43718e-09
1.02615e-07
4.1861e-09
1.02598e-07
3.94711e-09
1.02555e-07
3.70137e-09
1.02496e-07
3.50694e-09
1.02429e-07
3.32894e-09
1.02356e-07
3.20746e-09
1.02281e-07
3.09465e-09
1.02206e-07
3.02265e-09
1.02133e-07
2.94723e-09
1.0206e-07
2.90792e-09
1.0199e-07
2.84783e-09
1.0192e-07
2.83034e-09
1.01851e-07
2.77527e-09
1.01781e-07
2.76075e-09
1.01708e-07
2.71455e-09
1.01636e-07
2.69356e-09
1.01555e-07
2.66003e-09
1.01473e-07
2.63515e-09
1.01383e-07
2.5989e-09
1.01288e-07
2.58504e-09
1.01188e-07
2.53468e-09
1.01081e-07
2.53919e-09
1.00965e-07
2.48246e-09
1.00845e-07
2.4857e-09
1.00712e-07
2.44259e-09
1.00579e-07
2.43178e-09
1.00431e-07
2.40374e-09
1.00282e-07
2.39518e-09
1.00118e-07
2.36126e-09
9.99516e-08
2.37146e-09
9.97708e-08
2.33231e-09
9.95882e-08
2.34802e-09
9.93875e-08
2.32671e-09
9.91853e-08
2.34495e-09
2.33997e-09
1.08315e-07
2.44652e-09
-1.08296e-07
1.08389e-07
2.81059e-09
1.08527e-07
3.19122e-09
1.08727e-07
3.56246e-09
1.08944e-07
3.918e-09
1.09156e-07
4.18191e-09
1.09348e-07
4.37862e-09
1.09541e-07
4.5057e-09
1.09743e-07
4.61288e-09
1.09953e-07
4.68089e-09
1.10158e-07
4.72858e-09
1.10347e-07
4.71492e-09
1.10506e-07
4.65208e-09
1.10627e-07
4.52119e-09
1.10706e-07
4.35813e-09
1.10743e-07
4.14951e-09
1.10744e-07
3.94606e-09
1.10719e-07
3.72639e-09
1.10678e-07
3.54736e-09
1.1063e-07
3.37783e-09
1.10579e-07
3.25802e-09
1.10525e-07
3.14839e-09
1.10475e-07
3.073e-09
1.10426e-07
2.99632e-09
1.1038e-07
2.95324e-09
1.10339e-07
2.88897e-09
1.10302e-07
2.86724e-09
1.10266e-07
2.81149e-09
1.10237e-07
2.79037e-09
1.10203e-07
2.74766e-09
1.10177e-07
2.72e-09
1.10146e-07
2.69098e-09
1.10118e-07
2.66315e-09
1.10087e-07
2.6304e-09
1.10056e-07
2.61548e-09
1.10021e-07
2.56955e-09
1.09988e-07
2.57211e-09
1.09948e-07
2.52299e-09
1.0991e-07
2.52374e-09
1.09863e-07
2.48959e-09
1.09819e-07
2.47548e-09
1.09766e-07
2.45703e-09
1.09715e-07
2.44574e-09
1.09655e-07
2.42124e-09
1.09597e-07
2.43009e-09
1.09528e-07
2.40093e-09
1.09462e-07
2.41445e-09
1.09383e-07
2.40523e-09
1.09305e-07
2.42288e-09
2.42856e-09
1.17199e-07
2.42274e-09
-1.17176e-07
1.17267e-07
2.74338e-09
1.17382e-07
3.07567e-09
1.17548e-07
3.39638e-09
1.1775e-07
3.71625e-09
1.17956e-07
3.97578e-09
1.18153e-07
4.1815e-09
1.18341e-07
4.31829e-09
1.1853e-07
4.42397e-09
1.18718e-07
4.49223e-09
1.18907e-07
4.53962e-09
1.19084e-07
4.5382e-09
1.19237e-07
4.49879e-09
1.19357e-07
4.40127e-09
1.19441e-07
4.27426e-09
1.19486e-07
4.10466e-09
1.19497e-07
3.93452e-09
1.19482e-07
3.74191e-09
1.19451e-07
3.57865e-09
1.19409e-07
3.41944e-09
1.19366e-07
3.30062e-09
1.1932e-07
3.19471e-09
1.19277e-07
3.11595e-09
1.19235e-07
3.03819e-09
1.19197e-07
2.99164e-09
1.19162e-07
2.92391e-09
1.19132e-07
2.89681e-09
1.19103e-07
2.84084e-09
1.19081e-07
2.81204e-09
1.19057e-07
2.77176e-09
1.19039e-07
2.73775e-09
1.19021e-07
2.70971e-09
1.19005e-07
2.67929e-09
1.18988e-07
2.64689e-09
1.18973e-07
2.63025e-09
1.18956e-07
2.58695e-09
1.18942e-07
2.58574e-09
1.18924e-07
2.54162e-09
1.18909e-07
2.53879e-09
1.18889e-07
2.50961e-09
1.18871e-07
2.49283e-09
1.1885e-07
2.47822e-09
1.1883e-07
2.46556e-09
1.18807e-07
2.44478e-09
1.18785e-07
2.45212e-09
1.18757e-07
2.42829e-09
1.18732e-07
2.43954e-09
1.18702e-07
2.4359e-09
1.18672e-07
2.45284e-09
2.46308e-09
1.26786e-07
2.39418e-09
-1.26757e-07
1.26847e-07
2.68187e-09
1.26947e-07
2.97576e-09
1.27087e-07
3.25625e-09
1.27267e-07
3.53684e-09
1.27461e-07
3.78199e-09
1.27654e-07
3.98812e-09
1.27838e-07
4.13473e-09
1.28014e-07
4.24735e-09
1.28186e-07
4.3202e-09
1.28358e-07
4.36824e-09
1.28519e-07
4.3767e-09
1.28662e-07
4.35577e-09
1.28778e-07
4.28542e-09
1.28863e-07
4.18912e-09
1.28914e-07
4.05366e-09
1.28934e-07
3.91427e-09
1.28928e-07
3.74867e-09
1.28904e-07
3.60243e-09
1.28869e-07
3.45469e-09
1.28831e-07
3.33811e-09
1.28791e-07
3.2352e-09
1.28752e-07
3.15472e-09
1.28714e-07
3.0755e-09
1.2868e-07
3.02626e-09
1.28648e-07
2.95614e-09
1.2862e-07
2.92402e-09
1.28594e-07
2.8677e-09
1.28573e-07
2.83286e-09
1.28551e-07
2.79305e-09
1.28534e-07
2.75518e-09
1.28518e-07
2.72551e-09
1.28504e-07
2.69393e-09
1.2849e-07
2.66003e-09
1.28478e-07
2.6424e-09
1.28465e-07
2.60044e-09
1.28455e-07
2.59591e-09
1.28441e-07
2.55529e-09
1.28431e-07
2.54906e-09
1.28418e-07
2.52259e-09
1.28405e-07
2.5052e-09
1.28393e-07
2.49026e-09
1.2838e-07
2.47883e-09
1.28366e-07
2.45865e-09
1.28353e-07
2.46486e-09
1.28337e-07
2.44427e-09
1.28323e-07
2.45419e-09
1.28306e-07
2.45244e-09
1.2829e-07
2.46926e-09
2.48145e-09
1.37137e-07
2.37719e-09
-1.3712e-07
1.37186e-07
2.633e-09
1.37273e-07
2.88844e-09
1.37396e-07
3.13376e-09
1.37551e-07
3.38161e-09
1.37728e-07
3.6044e-09
1.3791e-07
3.8066e-09
1.38085e-07
3.96009e-09
1.3825e-07
4.08146e-09
1.38409e-07
4.16193e-09
1.38562e-07
4.21471e-09
1.38707e-07
4.23172e-09
1.38837e-07
4.22594e-09
1.38946e-07
4.17683e-09
1.39029e-07
4.10615e-09
1.39083e-07
3.99923e-09
1.3911e-07
3.88678e-09
1.39112e-07
3.7469e-09
1.39096e-07
3.61853e-09
1.39067e-07
3.48365e-09
1.39034e-07
3.37095e-09
1.38999e-07
3.27008e-09
1.38965e-07
3.18939e-09
1.38932e-07
3.10866e-09
1.38901e-07
3.05696e-09
1.38872e-07
2.98556e-09
1.38847e-07
2.94902e-09
1.38822e-07
2.89206e-09
1.38802e-07
2.85336e-09
1.38782e-07
2.8123e-09
1.38765e-07
2.77277e-09
1.3875e-07
2.73998e-09
1.38736e-07
2.70845e-09
1.38724e-07
2.67201e-09
1.38712e-07
2.65402e-09
1.387e-07
2.61295e-09
1.38691e-07
2.60497e-09
1.38678e-07
2.56807e-09
1.38669e-07
2.5582e-09
1.38658e-07
2.53317e-09
1.38646e-07
2.51727e-09
1.38637e-07
2.49929e-09
1.38625e-07
2.49089e-09
1.38613e-07
2.47023e-09
1.38603e-07
2.47516e-09
1.3859e-07
2.45763e-09
1.38578e-07
2.46639e-09
1.38565e-07
2.46517e-09
1.38552e-07
2.48255e-09
2.49565e-09
1.70113e-07
2.33319e-09
-1.70069e-07
1.70183e-07
2.56347e-09
1.70282e-07
2.78934e-09
1.7041e-07
3.00563e-09
1.70566e-07
3.2254e-09
1.70742e-07
3.4282e-09
1.7093e-07
3.61911e-09
1.7111e-07
3.7801e-09
1.71281e-07
3.91077e-09
1.71442e-07
4.00042e-09
1.71594e-07
4.06241e-09
1.71738e-07
4.08835e-09
1.71867e-07
4.09652e-09
1.71978e-07
4.06554e-09
1.72066e-07
4.01824e-09
1.72128e-07
3.93734e-09
1.72165e-07
3.8501e-09
1.72175e-07
3.73655e-09
1.72166e-07
3.62755e-09
1.72141e-07
3.50879e-09
1.72109e-07
3.40273e-09
1.72077e-07
3.30288e-09
1.72043e-07
3.22264e-09
1.72012e-07
3.14038e-09
1.71983e-07
3.08601e-09
1.71954e-07
3.01425e-09
1.71929e-07
2.97358e-09
1.71905e-07
2.91617e-09
1.71883e-07
2.87516e-09
1.71864e-07
2.83174e-09
1.71845e-07
2.79217e-09
1.7183e-07
2.75481e-09
1.71814e-07
2.72451e-09
1.71801e-07
2.68459e-09
1.71789e-07
2.66614e-09
1.71775e-07
2.62661e-09
1.71767e-07
2.61365e-09
1.71753e-07
2.58196e-09
1.71743e-07
2.56769e-09
1.71733e-07
2.54322e-09
1.71719e-07
2.53095e-09
1.71711e-07
2.50751e-09
1.71699e-07
2.50366e-09
1.71686e-07
2.48247e-09
1.71676e-07
2.48511e-09
1.71662e-07
2.47159e-09
1.7165e-07
2.47891e-09
1.71637e-07
2.47776e-09
1.71624e-07
2.4962e-09
2.50985e-09
2.14576e-07
2.27702e-09
-2.14519e-07
2.14662e-07
2.47675e-09
2.14777e-07
2.67441e-09
2.14914e-07
2.86869e-09
2.1507e-07
3.06952e-09
2.15238e-07
3.26047e-09
2.15412e-07
3.44462e-09
2.15584e-07
3.60864e-09
2.15748e-07
3.74698e-09
2.15903e-07
3.84523e-09
2.16046e-07
3.91892e-09
2.1618e-07
3.95448e-09
2.16301e-07
3.97537e-09
2.16408e-07
3.95919e-09
2.16494e-07
3.93135e-09
2.1656e-07
3.87219e-09
2.16603e-07
3.80633e-09
2.16623e-07
3.7172e-09
2.16623e-07
3.62733e-09
2.16606e-07
3.52551e-09
2.16579e-07
3.4303e-09
2.16548e-07
3.33335e-09
2.16519e-07
3.25229e-09
2.16491e-07
3.16834e-09
2.16466e-07
3.11099e-09
2.1644e-07
3.03941e-09
2.16419e-07
2.99483e-09
2.16398e-07
2.93782e-09
2.16377e-07
2.89583e-09
2.16359e-07
2.84982e-09
2.16339e-07
2.81202e-09
2.16325e-07
2.76863e-09
2.16309e-07
2.74099e-09
2.16296e-07
2.69711e-09
2.16285e-07
2.6773e-09
2.16271e-07
2.64092e-09
2.16264e-07
2.62067e-09
2.1625e-07
2.59571e-09
2.1624e-07
2.57726e-09
2.16232e-07
2.55163e-09
2.16218e-07
2.54524e-09
2.1621e-07
2.51485e-09
2.16198e-07
2.51576e-09
2.16186e-07
2.49486e-09
2.16177e-07
2.49423e-09
2.16163e-07
2.48535e-09
2.16151e-07
2.49102e-09
2.16139e-07
2.48994e-09
2.16126e-07
2.50909e-09
2.5238e-09
2.70686e-07
2.20313e-09
-2.70612e-07
2.70789e-07
2.37363e-09
2.70912e-07
2.55146e-09
2.71045e-07
2.73577e-09
2.71183e-07
2.9318e-09
2.71319e-07
3.1241e-09
2.71451e-07
3.31305e-09
2.71584e-07
3.4755e-09
2.71715e-07
3.61514e-09
2.71842e-07
3.7189e-09
2.71958e-07
3.80255e-09
2.72066e-07
3.84651e-09
2.72164e-07
3.87756e-09
2.72251e-07
3.87217e-09
2.72324e-07
3.85826e-09
2.72382e-07
3.81433e-09
2.72425e-07
3.76353e-09
2.72449e-07
3.69295e-09
2.72458e-07
3.61809e-09
2.72453e-07
3.53094e-09
2.72437e-07
3.44636e-09
2.72415e-07
3.35495e-09
2.72391e-07
3.27631e-09
2.72371e-07
3.18897e-09
2.72354e-07
3.12734e-09
2.72337e-07
3.05638e-09
2.72324e-07
3.00842e-09
2.72309e-07
2.95292e-09
2.72293e-07
2.91095e-09
2.7228e-07
2.86275e-09
2.72264e-07
2.82811e-09
2.72254e-07
2.77855e-09
2.72241e-07
2.75425e-09
2.72231e-07
2.70708e-09
2.72224e-07
2.68481e-09
2.72212e-07
2.65281e-09
2.72208e-07
2.62434e-09
2.72198e-07
2.60623e-09
2.7219e-07
2.58476e-09
2.72185e-07
2.55693e-09
2.72173e-07
2.55689e-09
2.72168e-07
2.51992e-09
2.72159e-07
2.52468e-09
2.72149e-07
2.50512e-09
2.72143e-07
2.50039e-09
2.72132e-07
2.49628e-09
2.72122e-07
2.50043e-09
2.72114e-07
2.49886e-09
2.72102e-07
2.52015e-09
2.53337e-09
3.41634e-07
-3.41576e-07
3.41706e-07
3.41782e-07
3.41854e-07
3.41918e-07
3.41969e-07
3.42023e-07
3.4208e-07
3.42138e-07
3.42195e-07
3.42249e-07
3.42299e-07
3.42344e-07
3.42385e-07
3.4242e-07
3.42449e-07
3.42472e-07
3.42487e-07
3.42496e-07
3.42498e-07
3.42496e-07
3.4249e-07
3.42482e-07
3.42474e-07
3.42469e-07
3.42464e-07
3.42461e-07
3.42457e-07
3.42452e-07
3.42449e-07
3.42444e-07
3.42441e-07
3.42437e-07
3.42435e-07
3.42433e-07
3.4243e-07
3.4243e-07
3.42427e-07
3.42426e-07
3.42425e-07
3.42422e-07
3.42421e-07
3.42419e-07
3.42416e-07
3.42415e-07
3.42413e-07
3.4241e-07
3.42408e-07
3.42404e-07
6.90599e-08
-1.31952e-10
6.90358e-08
-4.90569e-11
6.89687e-08
8.9793e-11
6.89062e-08
9.39027e-11
6.8824e-08
2.18623e-10
6.87413e-08
1.57243e-10
6.86308e-08
3.11795e-10
6.84993e-08
2.54635e-10
6.82677e-08
5.07225e-10
6.79369e-08
5.63881e-10
6.72746e-08
1.17085e-09
1.78225e-09
7.44598e-08
-5.69492e-11
7.44842e-08
-7.34064e-11
7.44042e-08
1.69715e-10
7.43723e-08
1.25849e-10
7.42602e-08
3.30739e-10
7.41833e-08
2.34135e-10
7.40264e-08
4.68703e-10
7.3866e-08
4.15005e-10
7.36043e-08
7.68946e-10
7.32368e-08
9.31328e-10
7.28134e-08
1.59426e-09
2.06584e-09
8.04318e-08
1.32799e-11
8.04089e-08
-5.04309e-11
8.03735e-08
2.05065e-10
8.02941e-08
2.05295e-10
8.02267e-08
3.9814e-10
8.00786e-08
3.8216e-10
7.99711e-08
5.76239e-10
7.97115e-08
6.7457e-10
7.95121e-08
9.68384e-10
7.91509e-08
1.29248e-09
7.89731e-08
1.77213e-09
2.29903e-09
8.69148e-08
4.55621e-11
8.68443e-08
2.00409e-11
8.68325e-08
2.1689e-10
8.67366e-08
3.01127e-10
8.66708e-08
4.63954e-10
8.65119e-08
5.4111e-10
8.63718e-08
7.16316e-10
8.61392e-08
9.07163e-10
8.5919e-08
1.18854e-09
8.56638e-08
1.54771e-09
8.54927e-08
1.94325e-09
2.44146e-09
9.38908e-08
6.27407e-11
9.38137e-08
9.71517e-11
9.37861e-08
2.44494e-10
9.37003e-08
3.86878e-10
9.36137e-08
5.50634e-10
9.34637e-08
6.91108e-10
9.32977e-08
8.823e-10
9.30928e-08
1.11201e-09
9.28812e-08
1.40016e-09
9.26868e-08
1.7421e-09
9.25225e-08
2.10759e-09
2.52693e-09
1.01411e-07
7.74833e-11
1.01346e-07
1.62809e-10
1.0129e-07
2.99926e-10
1.01211e-07
4.65971e-10
1.01107e-07
6.5446e-10
1.00966e-07
8.32661e-10
1.00795e-07
1.05311e-09
1.00608e-07
1.29886e-09
1.00417e-07
1.59141e-09
1.00256e-07
1.90285e-09
1.00124e-07
2.24025e-09
2.58395e-09
1.09531e-07
9.26267e-11
1.09475e-07
2.18906e-10
1.09402e-07
3.72638e-10
1.09317e-07
5.51637e-10
1.09205e-07
7.66677e-10
1.09067e-07
9.70126e-10
1.08905e-07
1.21549e-09
1.08735e-07
1.46892e-09
1.08568e-07
1.75813e-09
1.08433e-07
2.03799e-09
1.08334e-07
2.33948e-09
2.62182e-09
1.18301e-07
1.0851e-10
1.1825e-07
2.6993e-10
1.18168e-07
4.54181e-10
1.18074e-07
6.46197e-10
1.17958e-07
8.82454e-10
1.17823e-07
1.1049e-09
1.17674e-07
1.36489e-09
1.17523e-07
1.61986e-09
1.17383e-07
1.89824e-09
1.17271e-07
2.14988e-09
1.17197e-07
2.41276e-09
2.64368e-09
1.27772e-07
1.25291e-10
1.27722e-07
3.2035e-10
1.27639e-07
5.37353e-10
1.27539e-07
7.46371e-10
1.27422e-07
9.99046e-10
1.27291e-07
1.23549e-09
1.27156e-07
1.5007e-09
1.27025e-07
1.75083e-09
1.26912e-07
2.01032e-09
1.26824e-07
2.2386e-09
1.26768e-07
2.46879e-09
2.65412e-09
1.38002e-07
1.43342e-10
1.3795e-07
3.71748e-10
1.37868e-07
6.19577e-10
1.37766e-07
8.48179e-10
1.37652e-07
1.11365e-09
1.37528e-07
1.35937e-09
1.37406e-07
1.62288e-09
1.37293e-07
1.86381e-09
1.37208e-07
2.09457e-09
1.37147e-07
2.30022e-09
1.3712e-07
2.49592e-09
2.65394e-09
1.70996e-07
1.66163e-10
1.70931e-07
4.3623e-10
1.70832e-07
7.18876e-10
1.70712e-07
9.68314e-10
1.70582e-07
1.24366e-09
1.70448e-07
1.49309e-09
1.70324e-07
1.74727e-09
1.70218e-07
1.96893e-09
1.7014e-07
2.17282e-09
1.70084e-07
2.35603e-09
1.70057e-07
2.52333e-09
2.6417e-09
2.15441e-07
1.95012e-10
2.15361e-07
5.16493e-10
2.15242e-07
8.37705e-10
2.15105e-07
1.10517e-09
2.14963e-07
1.38518e-09
2.14826e-07
1.63052e-09
2.14704e-07
1.86955e-09
2.14614e-07
2.0589e-09
2.14538e-07
2.24812e-09
2.14496e-07
2.39832e-09
2.14488e-07
2.53121e-09
2.61054e-09
2.71443e-07
2.26713e-10
2.71359e-07
6.00434e-10
2.71235e-07
9.61651e-10
2.71095e-07
1.24503e-09
2.70954e-07
1.52658e-09
2.7083e-07
1.7542e-09
2.70736e-07
1.96435e-09
2.7065e-07
2.14471e-09
2.70588e-07
2.30966e-09
2.7056e-07
2.4269e-09
2.70565e-07
2.52599e-09
2.56342e-09
3.42016e-07
3.41961e-07
3.41879e-07
3.41788e-07
3.41698e-07
3.41637e-07
3.41584e-07
3.41544e-07
3.4152e-07
3.41516e-07
3.41532e-07
)
;

boundaryField
{
    top
    {
        type            calculated;
        value           nonuniform List<scalar> 
62
(
2.14572e-09
2.30173e-09
2.47542e-09
2.66373e-09
2.86769e-09
3.07249e-09
3.25944e-09
3.41813e-09
3.55725e-09
3.6619e-09
3.74904e-09
3.79642e-09
3.83199e-09
3.83133e-09
3.82341e-09
3.78554e-09
3.74067e-09
3.67782e-09
3.60909e-09
3.52851e-09
3.44896e-09
3.36078e-09
3.28406e-09
3.19736e-09
3.13237e-09
3.06101e-09
3.01151e-09
2.95704e-09
2.91532e-09
2.86623e-09
2.83347e-09
2.78083e-09
2.75837e-09
2.70975e-09
2.68591e-09
2.65656e-09
2.62378e-09
2.60918e-09
2.58641e-09
2.55726e-09
2.56043e-09
2.52039e-09
2.52667e-09
2.50829e-09
2.50108e-09
2.49915e-09
2.50282e-09
2.50145e-09
2.52394e-09
2.53488e-09
2.47636e-10
6.55673e-10
1.04318e-09
1.33651e-09
1.61645e-09
1.81473e-09
2.01767e-09
2.18428e-09
2.33372e-09
2.43146e-09
2.50948e-09
2.51955e-09
)
;
    }
    inlet
    {
        type            calculated;
        value           nonuniform List<scalar> 
14
(
-1.71018e-07
-2.1547e-07
-2.71475e-07
-3.42037e-07
-6.90099e-08
-7.45348e-08
-8.05021e-08
-8.6947e-08
-9.3908e-08
-1.01426e-07
-1.09546e-07
-1.18317e-07
-1.27789e-07
-1.3802e-07
)
;
    }
    outlet
    {
        type            calculated;
        value           nonuniform List<scalar> 
14
(
1.71609e-07
2.16112e-07
2.72093e-07
3.42402e-07
7.74274e-09
2.59663e-08
4.72868e-08
6.85755e-08
8.60141e-08
9.89648e-08
1.09217e-07
1.18637e-07
1.28271e-07
1.38537e-07
)
;
    }
    plate
    {
        type            calculated;
        value           uniform 0;
    }
    symmBound
    {
        type            calculated;
        value           nonuniform List<scalar> 
12
(
8.19256e-11
7.31831e-11
-2.26909e-11
-3.13739e-11
-1.36421e-10
-7.46164e-11
-2.01216e-10
-1.23215e-10
-2.75599e-10
-2.33095e-10
-5.08483e-10
-7.00257e-10
)
;
    }
    frontAndBack
    {
        type            empty;
        value           nonuniform 0();
    }
}


// ************************************************************************* //
