/*--------------------------------*- C++ -*----------------------------------*\
| =========                 |                                                 |
| \\      /  F ield         | OpenFOAM: The Open Source CFD Toolbox           |
|  \\    /   O peration     | Version:  2.3.0                                 |
|   \\  /    A nd           | Web:      www.OpenFOAM.org                      |
|    \\/     M anipulation  |                                                 |
\*---------------------------------------------------------------------------*/
FoamFile
{
    version     2.0;
    format      ascii;
    class       volVectorField;
    location    "0.9";
    object      U;
}
// * * * * * * * * * * * * * * * * * * * * * * * * * * * * * * * * * * * * * //

dimensions      [0 1 -1 0 0 0 0];

internalField   nonuniform List<vector> 
868
(
(0.188546 0.00228949 0)
(0.17735 0.00334704 0)
(0.166732 0.00374408 0)
(0.15596 0.00370665 0)
(0.144872 0.00353341 0)
(0.133548 0.00337231 0)
(0.122167 0.00323357 0)
(0.110882 0.00307278 0)
(0.0998674 0.00285656 0)
(0.0892901 0.0025664 0)
(0.0794108 0.00221112 0)
(0.0704538 0.00179132 0)
(0.0626313 0.00132031 0)
(0.0560885 0.000843972 0)
(0.0508634 0.000422884 0)
(0.0468374 0.000104678 0)
(0.0438183 -9.82062e-05 0)
(0.0415749 -0.000206136 0)
(0.0399239 -0.000247686 0)
(0.038669 -0.000242139 0)
(0.0376989 -0.000212735 0)
(0.0368857 -0.000172192 0)
(0.0361788 -0.000128819 0)
(0.0354946 -8.82399e-05 0)
(0.0348421 -5.38028e-05 0)
(0.0341654 -2.65242e-05 0)
(0.0335111 -5.60455e-06 0)
(0.0328265 8.97652e-06 0)
(0.0321817 1.88108e-05 0)
(0.0315087 2.5393e-05 0)
(0.030899 2.81395e-05 0)
(0.0302563 3.06129e-05 0)
(0.0296995 3.0186e-05 0)
(0.0290964 3.01833e-05 0)
(0.0285995 2.94473e-05 0)
(0.0280357 2.78576e-05 0)
(0.027599 2.73151e-05 0)
(0.0270682 2.57944e-05 0)
(0.0266907 2.42181e-05 0)
(0.0261835 2.4119e-05 0)
(0.0258636 2.16991e-05 0)
(0.0253673 2.21516e-05 0)
(0.0251032 2.04506e-05 0)
(0.0246039 2.02945e-05 0)
(0.0243963 1.93071e-05 0)
(0.0238793 1.96384e-05 0)
(0.0237314 1.8024e-05 0)
(0.0231782 1.91568e-05 0)
(0.0231021 1.83634e-05 0)
(0.0224666 2.47502e-05 0)
(0.195823 0.00408505 0)
(0.195244 0.00577125 0)
(0.194499 0.00663665 0)
(0.193404 0.00685614 0)
(0.191742 0.00683022 0)
(0.189401 0.00678955 0)
(0.186419 0.00677851 0)
(0.182842 0.00674803 0)
(0.178768 0.00664433 0)
(0.174242 0.006433 0)
(0.169399 0.0060993 0)
(0.164299 0.0056361 0)
(0.159091 0.0050501 0)
(0.153853 0.00437457 0)
(0.148742 0.00366703 0)
(0.143779 0.00298802 0)
(0.139069 0.00239074 0)
(0.13457 0.00189455 0)
(0.13038 0.00150297 0)
(0.126403 0.00120138 0)
(0.122739 0.000978426 0)
(0.119262 0.000821605 0)
(0.116077 0.00071589 0)
(0.113012 0.000644573 0)
(0.11021 0.000595011 0)
(0.107466 0.000556058 0)
(0.104973 0.000525836 0)
(0.102488 0.000496116 0)
(0.10026 0.000469439 0)
(0.0979901 0.000443278 0)
(0.0960083 0.000415865 0)
(0.0939191 0.000392323 0)
(0.0921688 0.000366593 0)
(0.0902342 0.000343427 0)
(0.0886955 0.000323573 0)
(0.0868948 0.000300197 0)
(0.085547 0.000285186 0)
(0.0838546 0.000265288 0)
(0.0826912 0.000250343 0)
(0.0810686 0.000237107 0)
(0.0800926 0.00022262 0)
(0.0784992 0.000212446 0)
(0.0777087 0.000202811 0)
(0.0761139 0.000191791 0)
(0.0755054 0.000186372 0)
(0.0738753 0.000177548 0)
(0.0734615 0.000171867 0)
(0.0717459 0.000168226 0)
(0.0715486 0.000162754 0)
(0.0696912 0.000172497 0)
(0.196312 0.00383542 0)
(0.196255 0.00494393 0)
(0.196468 0.00582755 0)
(0.196866 0.00631366 0)
(0.197293 0.00654607 0)
(0.197546 0.00669926 0)
(0.197604 0.00685436 0)
(0.197396 0.00700117 0)
(0.197001 0.007091 0)
(0.19633 0.00707861 0)
(0.195474 0.00693314 0)
(0.194305 0.00664016 0)
(0.192949 0.00620965 0)
(0.191268 0.00566844 0)
(0.189451 0.00507074 0)
(0.187355 0.00446963 0)
(0.185217 0.00392384 0)
(0.182863 0.00345362 0)
(0.180575 0.00307396 0)
(0.178119 0.00276811 0)
(0.175819 0.00252892 0)
(0.173363 0.00233848 0)
(0.171119 0.00219128 0)
(0.16868 0.0020662 0)
(0.166491 0.00196214 0)
(0.164065 0.00186132 0)
(0.16193 0.00177341 0)
(0.159513 0.0016808 0)
(0.157441 0.00159716 0)
(0.155023 0.00151012 0)
(0.153041 0.00142838 0)
(0.150616 0.00134683 0)
(0.148751 0.00127171 0)
(0.146327 0.00119333 0)
(0.144585 0.00113018 0)
(0.142186 0.00105527 0)
(0.140571 0.00100271 0)
(0.138196 0.000935932 0)
(0.136742 0.000888057 0)
(0.134357 0.000833097 0)
(0.133109 0.000791348 0)
(0.130683 0.000743392 0)
(0.129653 0.000712986 0)
(0.127182 0.00066746 0)
(0.126369 0.00064627 0)
(0.123829 0.000606912 0)
(0.123266 0.000589299 0)
(0.120604 0.000559641 0)
(0.120322 0.00054746 0)
(0.117491 0.000533135 0)
(0.196843 0.00370245 0)
(0.196765 0.00452706 0)
(0.196929 0.00530785 0)
(0.19727 0.00588502 0)
(0.197839 0.00624567 0)
(0.198368 0.00646895 0)
(0.198942 0.00664346 0)
(0.199355 0.00679192 0)
(0.199822 0.00690086 0)
(0.20011 0.00692581 0)
(0.200469 0.00684313 0)
(0.20058 0.00663179 0)
(0.200729 0.00630258 0)
(0.200544 0.00587157 0)
(0.200376 0.00538623 0)
(0.199825 0.00488124 0)
(0.199337 0.00441458 0)
(0.198465 0.00399623 0)
(0.197756 0.00365847 0)
(0.196682 0.00338038 0)
(0.195879 0.00316888 0)
(0.194702 0.00298911 0)
(0.193875 0.00285347 0)
(0.19263 0.00272968 0)
(0.191791 0.00263332 0)
(0.190472 0.00253318 0)
(0.189617 0.00245573 0)
(0.188208 0.00236241 0)
(0.187343 0.00229173 0)
(0.185823 0.00220187 0)
(0.184961 0.00213108 0)
(0.183315 0.00204528 0)
(0.182461 0.00197493 0)
(0.180705 0.00189035 0)
(0.179855 0.00182781 0)
(0.178008 0.0017407 0)
(0.177172 0.00168855 0)
(0.175222 0.00160174 0)
(0.174446 0.00155407 0)
(0.172366 0.00147529 0)
(0.171689 0.00143009 0)
(0.169475 0.00135961 0)
(0.1689 0.00132167 0)
(0.16657 0.00125281 0)
(0.166102 0.00122648 0)
(0.163643 0.00115948 0)
(0.163316 0.00113941 0)
(0.160699 0.0010819 0)
(0.160536 0.00106867 0)
(0.15775 0.0010234 0)
(0.197322 0.0036598 0)
(0.197227 0.00433647 0)
(0.197376 0.00501768 0)
(0.197581 0.00559316 0)
(0.198087 0.00601468 0)
(0.19853 0.00627755 0)
(0.19915 0.00645821 0)
(0.199572 0.00657915 0)
(0.200159 0.0066637 0)
(0.200516 0.00667456 0)
(0.201076 0.00660489 0)
(0.201359 0.00642441 0)
(0.201841 0.00615117 0)
(0.201964 0.00578405 0)
(0.202271 0.00537426 0)
(0.20215 0.00493257 0)
(0.202242 0.00452581 0)
(0.201878 0.00414401 0)
(0.201808 0.00383938 0)
(0.201284 0.00357637 0)
(0.201152 0.00338261 0)
(0.200554 0.00320928 0)
(0.200427 0.00308528 0)
(0.199795 0.00296427 0)
(0.199689 0.00287985 0)
(0.199018 0.00278194 0)
(0.198929 0.00272069 0)
(0.198199 0.00262896 0)
(0.198122 0.00257546 0)
(0.197314 0.00248999 0)
(0.197244 0.00243449 0)
(0.196344 0.00235784 0)
(0.196268 0.00229925 0)
(0.195279 0.00222316 0)
(0.195188 0.00217314 0)
(0.194114 0.00208944 0)
(0.194011 0.00205419 0)
(0.192838 0.00196547 0)
(0.192741 0.00193302 0)
(0.191452 0.00185438 0)
(0.191376 0.0018167 0)
(0.189975 0.00174967 0)
(0.189912 0.00171616 0)
(0.188415 0.00164743 0)
(0.188361 0.00162765 0)
(0.186762 0.00155733 0)
(0.186731 0.00154346 0)
(0.18502 0.00148428 0)
(0.185012 0.00147445 0)
(0.183194 0.00142572 0)
(0.197742 0.00363437 0)
(0.197643 0.00420511 0)
(0.197784 0.00479503 0)
(0.197901 0.00531557 0)
(0.19833 0.00574018 0)
(0.198673 0.00602005 0)
(0.199256 0.00621139 0)
(0.199631 0.00631725 0)
(0.200205 0.00638379 0)
(0.200523 0.00638026 0)
(0.201064 0.00631941 0)
(0.201321 0.00616426 0)
(0.201807 0.00593892 0)
(0.201955 0.0056265 0)
(0.202322 0.00528055 0)
(0.202297 0.00489335 0)
(0.202502 0.00453554 0)
(0.202292 0.00418465 0)
(0.20237 0.00390396 0)
(0.202037 0.00365035 0)
(0.202067 0.00346507 0)
(0.201688 0.00329341 0)
(0.201729 0.00317227 0)
(0.201348 0.00305011 0)
(0.201425 0.00296848 0)
(0.201043 0.00286776 0)
(0.201156 0.00281117 0)
(0.20076 0.00271792 0)
(0.200897 0.00266826 0)
(0.200478 0.00258531 0)
(0.200628 0.0025323 0)
(0.200178 0.0024633 0)
(0.200329 0.00240732 0)
(0.19984 0.0023391 0)
(0.199988 0.00229403 0)
(0.199462 0.00221558 0)
(0.199599 0.00218881 0)
(0.19903 0.00210576 0)
(0.199157 0.00207977 0)
(0.198536 0.00201032 0)
(0.198658 0.00197433 0)
(0.197985 0.0019192 0)
(0.198094 0.00188628 0)
(0.197379 0.00182813 0)
(0.197465 0.00181108 0)
(0.196705 0.00175011 0)
(0.196773 0.00173799 0)
(0.195963 0.00169136 0)
(0.196004 0.00168163 0)
(0.195149 0.00164552 0)
(0.198106 0.00360682 0)
(0.198027 0.00409393 0)
(0.198141 0.00460139 0)
(0.198218 0.00505786 0)
(0.198557 0.0054564 0)
(0.198836 0.00573593 0)
(0.199336 0.00593508 0)
(0.199683 0.00603984 0)
(0.200195 0.00610027 0)
(0.200501 0.00609243 0)
(0.20097 0.00604042 0)
(0.201216 0.00591075 0)
(0.201627 0.00572739 0)
(0.201788 0.00546704 0)
(0.2021 0.00517759 0)
(0.202133 0.00484365 0)
(0.202312 0.00452965 0)
(0.202196 0.00420983 0)
(0.202264 0.00394879 0)
(0.202046 0.00370483 0)
(0.202061 0.0035223 0)
(0.201809 0.00335268 0)
(0.201823 0.00322787 0)
(0.201581 0.00310386 0)
(0.201623 0.00301864 0)
(0.201398 0.00291349 0)
(0.201474 0.00285334 0)
(0.201257 0.00275853 0)
(0.201353 0.00270287 0)
(0.201143 0.00262243 0)
(0.201248 0.00256275 0)
(0.201038 0.00249861 0)
(0.20115 0.00243934 0)
(0.200929 0.00237497 0)
(0.201042 0.00232906 0)
(0.200814 0.00225466 0)
(0.200921 0.00222688 0)
(0.200686 0.00215115 0)
(0.200785 0.00212323 0)
(0.200532 0.0020624 0)
(0.200627 0.00202335 0)
(0.20036 0.00197772 0)
(0.200442 0.00194192 0)
(0.200167 0.00189283 0)
(0.200232 0.00187407 0)
(0.199941 0.00182255 0)
(0.199995 0.00180813 0)
(0.199688 0.00177259 0)
(0.199718 0.0017607 0)
(0.199399 0.0017366 0)
(0.198429 0.00357308 0)
(0.198379 0.00399238 0)
(0.198455 0.00442895 0)
(0.198519 0.0048253 0)
(0.19877 0.00518733 0)
(0.199008 0.00545529 0)
(0.199409 0.00565629 0)
(0.199737 0.00576709 0)
(0.20017 0.00583074 0)
(0.200475 0.00582917 0)
(0.200863 0.00578723 0)
(0.201112 0.0056821 0)
(0.201439 0.00553393 0)
(0.201615 0.00531966 0)
(0.201857 0.00507832 0)
(0.201935 0.00479404 0)
(0.202069 0.00452078 0)
(0.202024 0.00423247 0)
(0.202061 0.00398987 0)
(0.20193 0.00375744 0)
(0.201909 0.00357551 0)
(0.201747 0.00340933 0)
(0.201714 0.00327894 0)
(0.20156 0.00315263 0)
(0.201547 0.00306239 0)
(0.201411 0.00295257 0)
(0.201425 0.00288651 0)
(0.201305 0.00279051 0)
(0.201334 0.00272609 0)
(0.201229 0.00264804 0)
(0.201265 0.00258033 0)
(0.201166 0.00251785 0)
(0.201209 0.00245492 0)
(0.201111 0.00239121 0)
(0.201156 0.00234325 0)
(0.201061 0.00227132 0)
(0.201102 0.00223986 0)
(0.201007 0.00216912 0)
(0.201049 0.00213759 0)
(0.200946 0.00208201 0)
(0.200988 0.00203974 0)
(0.200884 0.00199858 0)
(0.200916 0.00196065 0)
(0.200816 0.00191594 0)
(0.200842 0.001895 0)
(0.200733 0.00184851 0)
(0.200758 0.00183184 0)
(0.200644 0.00180187 0)
(0.200658 0.00178852 0)
(0.200543 0.00177045 0)
(0.198722 0.00353435 0)
(0.198694 0.0038986 0)
(0.198737 0.0042773 0)
(0.198792 0.00462091 0)
(0.198972 0.00494416 0)
(0.199173 0.0051944 0)
(0.199488 0.00539082 0)
(0.199786 0.005508 0)
(0.200146 0.00557905 0)
(0.200438 0.005589 0)
(0.200762 0.00555897 0)
(0.201003 0.00547558 0)
(0.201265 0.00535646 0)
(0.201441 0.00518019 0)
(0.20163 0.00497883 0)
(0.201727 0.00473801 0)
(0.20183 0.00450197 0)
(0.201827 0.00424461 0)
(0.201849 0.0040208 0)
(0.201773 0.0038016 0)
(0.201738 0.0036216 0)
(0.201631 0.00345887 0)
(0.201579 0.00332467 0)
(0.201473 0.00319556 0)
(0.201434 0.00310109 0)
(0.201345 0.00298728 0)
(0.201326 0.00291541 0)
(0.201252 0.00281866 0)
(0.201247 0.00274683 0)
(0.201186 0.00266963 0)
(0.201188 0.00259665 0)
(0.201133 0.00253296 0)
(0.201141 0.00246789 0)
(0.201092 0.00240302 0)
(0.201099 0.00235363 0)
(0.201054 0.00228295 0)
(0.201063 0.00224829 0)
(0.201013 0.0021805 0)
(0.20103 0.00214623 0)
(0.200974 0.00209309 0)
(0.20099 0.00204942 0)
(0.20094 0.00200935 0)
(0.200946 0.00197106 0)
(0.200901 0.00192742 0)
(0.200907 0.00190575 0)
(0.200853 0.00186164 0)
(0.200865 0.00184331 0)
(0.200806 0.00181543 0)
(0.200812 0.00180204 0)
(0.200756 0.00178612 0)
(0.198992 0.00349048 0)
(0.198975 0.00381296 0)
(0.198994 0.00414491 0)
(0.199033 0.00444502 0)
(0.19916 0.00473129 0)
(0.199324 0.00496174 0)
(0.199571 0.0051492 0)
(0.199829 0.0052699 0)
(0.200128 0.0053488 0)
(0.200392 0.0053713 0)
(0.200666 0.0053541 0)
(0.200886 0.00528883 0)
(0.201102 0.00519339 0)
(0.201264 0.0050472 0)
(0.201416 0.0048791 0)
(0.201512 0.00467433 0)
(0.201597 0.0044712 0)
(0.201613 0.0042435 0)
(0.201634 0.00403916 0)
(0.20159 0.00383455 0)
(0.201559 0.00365941 0)
(0.201482 0.00349997 0)
(0.201434 0.00336488 0)
(0.201353 0.00323326 0)
(0.201309 0.00313524 0)
(0.201243 0.00301882 0)
(0.201214 0.00294176 0)
(0.20116 0.00284432 0)
(0.201147 0.00276747 0)
(0.2011 0.00268926 0)
(0.201096 0.00261367 0)
(0.201056 0.00254717 0)
(0.201051 0.00248139 0)
(0.201022 0.00241407 0)
(0.201015 0.00236389 0)
(0.200987 0.00229383 0)
(0.200987 0.00225636 0)
(0.200948 0.00219109 0)
(0.200961 0.00215378 0)
(0.200917 0.00210232 0)
(0.200927 0.00205873 0)
(0.200892 0.00201688 0)
(0.200889 0.00198055 0)
(0.200862 0.00193648 0)
(0.200861 0.00191369 0)
(0.200822 0.00187191 0)
(0.200831 0.00185269 0)
(0.200787 0.00182524 0)
(0.200791 0.00181215 0)
(0.200751 0.00179709 0)
(0.199261 0.0034383 0)
(0.199245 0.00372372 0)
(0.199242 0.0040152 0)
(0.19926 0.00427845 0)
(0.199343 0.00453135 0)
(0.199468 0.00474211 0)
(0.199659 0.00491959 0)
(0.199869 0.00504195 0)
(0.200112 0.00512824 0)
(0.200335 0.00516305 0)
(0.200563 0.00515974 0)
(0.200753 0.00510994 0)
(0.20093 0.00503552 0)
(0.201068 0.00491406 0)
(0.201192 0.00477504 0)
(0.201277 0.00460121 0)
(0.201348 0.00442732 0)
(0.201371 0.00422892 0)
(0.201395 0.00404502 0)
(0.20137 0.003857 0)
(0.201351 0.00369018 0)
(0.201295 0.00353439 0)
(0.201258 0.00340072 0)
(0.201195 0.00326765 0)
(0.201157 0.00316655 0)
(0.201106 0.00304892 0)
(0.201077 0.00296711 0)
(0.201034 0.00286886 0)
(0.201022 0.00278913 0)
(0.200982 0.00270899 0)
(0.200979 0.00263255 0)
(0.200947 0.00256222 0)
(0.200938 0.00249688 0)
(0.20092 0.00242639 0)
(0.200907 0.00237562 0)
(0.200889 0.00230612 0)
(0.200887 0.00226477 0)
(0.200852 0.00220328 0)
(0.200867 0.00216177 0)
(0.200827 0.00211119 0)
(0.200836 0.00206961 0)
(0.20081 0.00202368 0)
(0.200802 0.00199041 0)
(0.200785 0.00194582 0)
(0.20078 0.00192137 0)
(0.200749 0.00188214 0)
(0.200759 0.00186172 0)
(0.20072 0.00183481 0)
(0.200724 0.00182213 0)
(0.200692 0.00180731 0)
(0.199532 0.00336915 0)
(0.199513 0.00361345 0)
(0.19949 0.00386525 0)
(0.199483 0.00409656 0)
(0.199528 0.00432195 0)
(0.19961 0.00451701 0)
(0.199749 0.00468774 0)
(0.199906 0.00481336 0)
(0.200091 0.00490802 0)
(0.200263 0.00495448 0)
(0.200441 0.00496749 0)
(0.200591 0.00493278 0)
(0.200727 0.00487838 0)
(0.200835 0.00477909 0)
(0.20093 0.00466656 0)
(0.200999 0.00452078 0)
(0.201056 0.00437299 0)
(0.201078 0.00420283 0)
(0.201104 0.00404016 0)
(0.201091 0.00387024 0)
(0.201086 0.00371457 0)
(0.201049 0.00356343 0)
(0.201025 0.00343242 0)
(0.20098 0.00329908 0)
(0.200951 0.00319555 0)
(0.200914 0.00307766 0)
(0.200891 0.00299143 0)
(0.200857 0.0028926 0)
(0.200849 0.00281134 0)
(0.200817 0.00272865 0)
(0.200816 0.00265301 0)
(0.200792 0.00257773 0)
(0.200783 0.00251411 0)
(0.200773 0.00243996 0)
(0.200759 0.00238831 0)
(0.200748 0.00232034 0)
(0.200747 0.00227305 0)
(0.200717 0.0022167 0)
(0.200733 0.00217089 0)
(0.200698 0.0021196 0)
(0.200706 0.00208182 0)
(0.200689 0.0020304 0)
(0.200679 0.00200084 0)
(0.20067 0.00195542 0)
(0.200664 0.00192883 0)
(0.200639 0.00189319 0)
(0.200649 0.00187086 0)
(0.200618 0.00184401 0)
(0.200621 0.0018326 0)
(0.200597 0.00181747 0)
(0.199777 0.00328285 0)
(0.199757 0.00348138 0)
(0.199722 0.00369384 0)
(0.199697 0.00389887 0)
(0.199711 0.00410596 0)
(0.199755 0.00429372 0)
(0.19984 0.00446415 0)
(0.19994 0.00459651 0)
(0.20006 0.00470119 0)
(0.200172 0.00475902 0)
(0.200288 0.00478916 0)
(0.200389 0.00476975 0)
(0.200479 0.00473346 0)
(0.200551 0.00465365 0)
(0.200614 0.00456411 0)
(0.200662 0.0044418 0)
(0.200701 0.00431566 0)
(0.200719 0.00417004 0)
(0.200742 0.00402626 0)
(0.200738 0.00387363 0)
(0.200742 0.00372997 0)
(0.200722 0.0035847 0)
(0.200712 0.0034575 0)
(0.200686 0.00332467 0)
(0.200668 0.00321953 0)
(0.200646 0.00310264 0)
(0.200632 0.00301209 0)
(0.20061 0.00291384 0)
(0.200607 0.0028315 0)
(0.200585 0.0027462 0)
(0.200587 0.00267345 0)
(0.200573 0.0025919 0)
(0.200565 0.00253196 0)
(0.200563 0.00245437 0)
(0.200551 0.00240077 0)
(0.200547 0.00233663 0)
(0.200547 0.00228141 0)
(0.200525 0.00223103 0)
(0.20054 0.0021818 0)
(0.200515 0.00212829 0)
(0.200522 0.00209578 0)
(0.200513 0.00203773 0)
(0.200503 0.00201162 0)
(0.200502 0.00196677 0)
(0.200497 0.00193639 0)
(0.20048 0.0019046 0)
(0.200488 0.00188128 0)
(0.200468 0.00185388 0)
(0.20047 0.00184366 0)
(0.200456 0.00182831 0)
(0.199952 0.00320923 0)
(0.19994 0.00336529 0)
(0.199918 0.0035449 0)
(0.1999 0.00373165 0)
(0.199899 0.00392934 0)
(0.199911 0.00411678 0)
(0.19994 0.00429011 0)
(0.199974 0.00443016 0)
(0.200017 0.00454336 0)
(0.200057 0.00460993 0)
(0.200099 0.00465256 0)
(0.200136 0.0046442 0)
(0.200169 0.00462067 0)
(0.200196 0.00455362 0)
(0.200219 0.00447945 0)
(0.200238 0.00437209 0)
(0.200254 0.00425937 0)
(0.200262 0.00412992 0)
(0.200273 0.00399789 0)
(0.200273 0.00385723 0)
(0.200277 0.00372235 0)
(0.200273 0.00358228 0)
(0.200272 0.00345831 0)
(0.200265 0.00332712 0)
(0.20026 0.0032209 0)
(0.200254 0.00310594 0)
(0.20025 0.00301234 0)
(0.200243 0.00291527 0)
(0.200244 0.00283287 0)
(0.200237 0.0027457 0)
(0.200239 0.0026768 0)
(0.200236 0.0025905 0)
(0.200232 0.00253419 0)
(0.200235 0.00245502 0)
(0.20023 0.00239911 0)
(0.200231 0.00233965 0)
(0.200232 0.00227734 0)
(0.200224 0.00223243 0)
(0.200232 0.00218126 0)
(0.200224 0.00212527 0)
(0.200226 0.00209774 0)
(0.200226 0.002035 0)
(0.200222 0.00201075 0)
(0.200224 0.00196797 0)
(0.200222 0.00193405 0)
(0.200218 0.00190544 0)
(0.200222 0.00188164 0)
(0.200216 0.00185404 0)
(0.200216 0.00184448 0)
(0.200214 0.00182973 0)
(0.192461 -5.91961e-05 0)
(0.207652 -3.20413e-05 0)
(0.1923 2.05099e-05 0)
(0.207157 3.10257e-05 0)
(0.192063 0.000111396 0)
(0.206551 7.37955e-05 0)
(0.191585 0.000189236 0)
(0.205661 0.000138325 0)
(0.190736 0.000313976 0)
(0.204367 0.000316909 0)
(0.189329 0.000725502 0)
(0.202565 0.00112491 0)
(0.196646 -6.79736e-05 0)
(0.202883 -4.55492e-05 0)
(0.196984 8.89262e-05 0)
(0.201979 7.74381e-05 0)
(0.197205 0.00022942 0)
(0.200951 0.000147379 0)
(0.197193 0.000359949 0)
(0.199655 0.000279917 0)
(0.196833 0.000627555 0)
(0.198028 0.000697472 0)
(0.196138 0.00149755 0)
(0.196195 0.00225456 0)
(0.199187 -3.46943e-06 0)
(0.200479 -4.40081e-05 0)
(0.199199 0.00012622 0)
(0.199924 0.000117056 0)
(0.19902 0.000267737 0)
(0.1993 0.000252752 0)
(0.198597 0.000421094 0)
(0.198477 0.000497842 0)
(0.197861 0.000784315 0)
(0.19746 0.00113173 0)
(0.196927 0.00179126 0)
(0.196523 0.00272494 0)
(0.19989 2.11539e-05 0)
(0.199967 -1.14884e-05 0)
(0.199714 0.000132958 0)
(0.199604 0.000177332 0)
(0.199359 0.000315649 0)
(0.19913 0.000370554 0)
(0.198829 0.000533943 0)
(0.19846 0.000701831 0)
(0.198091 0.00100901 0)
(0.197656 0.00143888 0)
(0.197304 0.0020573 0)
(0.196978 0.00286698 0)
(0.200017 3.03701e-05 0)
(0.199901 4.1063e-05 0)
(0.19982 0.000148078 0)
(0.199588 0.000240705 0)
(0.199446 0.000371442 0)
(0.19915 0.000486753 0)
(0.198933 0.000663624 0)
(0.198553 0.000895508 0)
(0.198284 0.00122633 0)
(0.197887 0.00167649 0)
(0.197658 0.00225288 0)
(0.197376 0.00295311 0)
(0.200043 3.91878e-05 0)
(0.19989 8.56471e-05 0)
(0.199857 0.000180576 0)
(0.199599 0.000296055 0)
(0.199498 0.000442225 0)
(0.199189 0.000596293 0)
(0.199026 0.000806984 0)
(0.198662 0.00107355 0)
(0.198471 0.0014256 0)
(0.198115 0.00186809 0)
(0.197978 0.00240564 0)
(0.197737 0.00302008 0)
(0.200045 4.831e-05 0)
(0.199895 0.000120392 0)
(0.199873 0.000224104 0)
(0.199626 0.000352924 0)
(0.199537 0.000522611 0)
(0.199251 0.000705295 0)
(0.199114 0.000948223 0)
(0.198794 0.00123561 0)
(0.198646 0.00160014 0)
(0.198353 0.00202653 0)
(0.198265 0.0025262 0)
(0.198082 0.00307108 0)
(0.200034 5.78281e-05 0)
(0.199912 0.000150715 0)
(0.199877 0.000272874 0)
(0.199669 0.00041549 0)
(0.199573 0.000607399 0)
(0.199333 0.000813577 0)
(0.199201 0.00108006 0)
(0.198945 0.00138079 0)
(0.198816 0.00174848 0)
(0.198595 0.00215711 0)
(0.198527 0.00261865 0)
(0.198408 0.00310446 0)
(0.200021 6.75765e-05 0)
(0.19993 0.0001806 0)
(0.199882 0.000323918 0)
(0.199716 0.000482476 0)
(0.199614 0.000693857 0)
(0.199425 0.000919363 0)
(0.199297 0.00120131 0)
(0.199102 0.001509 0)
(0.198986 0.00187231 0)
(0.19883 0.00226117 0)
(0.198775 0.00268629 0)
(0.198708 0.00312086 0)
(0.200012 7.76963e-05 0)
(0.199945 0.000211866 0)
(0.199892 0.000376571 0)
(0.199763 0.000552168 0)
(0.199665 0.000779474 0)
(0.199518 0.00102084 0)
(0.199403 0.0013109 0)
(0.199257 0.00161991 0)
(0.199158 0.00197344 0)
(0.199049 0.00234081 0)
(0.199012 0.00273138 0)
(0.19898 0.0031211 0)
(0.200008 8.9388e-05 0)
(0.199955 0.000247474 0)
(0.199909 0.00043564 0)
(0.19981 0.000629008 0)
(0.199728 0.000869857 0)
(0.199616 0.00112303 0)
(0.199523 0.00141635 0)
(0.199416 0.00172132 0)
(0.199342 0.00206047 0)
(0.199268 0.00240368 0)
(0.199249 0.00276136 0)
(0.199245 0.00310918 0)
(0.200006 0.000103731 0)
(0.199965 0.000290898 0)
(0.199931 0.000506827 0)
(0.199862 0.000719413 0)
(0.199804 0.00097229 0)
(0.199725 0.00123324 0)
(0.199659 0.00152491 0)
(0.199587 0.00182171 0)
(0.19954 0.00214192 0)
(0.199494 0.00245654 0)
(0.199495 0.00278095 0)
(0.199511 0.00308501 0)
(0.200004 0.000120323 0)
(0.199975 0.000340344 0)
(0.199957 0.000587529 0)
(0.199917 0.000819661 0)
(0.199885 0.0010837 0)
(0.19984 0.0013483 0)
(0.199802 0.00163506 0)
(0.199762 0.00191947 0)
(0.199739 0.00221891 0)
(0.199717 0.00250207 0)
(0.199728 0.0027918 0)
(0.199754 0.00304893 0)
(0.200002 0.000134462 0)
(0.19999 0.000383644 0)
(0.199984 0.00065956 0)
(0.199972 0.000909512 0)
(0.199964 0.00118416 0)
(0.19995 0.00145034 0)
(0.199939 0.00173192 0)
(0.199926 0.00200439 0)
(0.19992 0.00228668 0)
(0.199915 0.00254391 0)
(0.199923 0.00280488 0)
(0.19994 0.0030213 0)
)
;

boundaryField
{
    top
    {
        type            zeroGradient;
    }
    inlet
    {
        type            fixedValue;
        value           uniform (0.2 0 0);
    }
    outlet
    {
        type            zeroGradient;
    }
    plate
    {
        type            fixedValue;
        value           uniform (0 0 0);
    }
    symmBound
    {
        type            zeroGradient;
    }
    frontAndBack
    {
        type            empty;
    }
}


// ************************************************************************* //
