/*--------------------------------*- C++ -*----------------------------------*\
| =========                 |                                                 |
| \\      /  F ield         | OpenFOAM: The Open Source CFD Toolbox           |
|  \\    /   O peration     | Version:  2.3.0                                 |
|   \\  /    A nd           | Web:      www.OpenFOAM.org                      |
|    \\/     M anipulation  |                                                 |
\*---------------------------------------------------------------------------*/
FoamFile
{
    version     2.0;
    format      ascii;
    class       volVectorField;
    location    "0.9";
    object      U_0;
}
// * * * * * * * * * * * * * * * * * * * * * * * * * * * * * * * * * * * * * //

dimensions      [0 1 -1 0 0 0 0];

internalField   nonuniform List<vector> 
868
(
(0.188545 0.00228943 0)
(0.17735 0.00334698 0)
(0.166732 0.00374401 0)
(0.15596 0.00370652 0)
(0.144872 0.00353327 0)
(0.133548 0.00337221 0)
(0.122167 0.00323357 0)
(0.110883 0.00307281 0)
(0.0998677 0.00285659 0)
(0.0892904 0.00256647 0)
(0.079411 0.00221118 0)
(0.0704539 0.00179133 0)
(0.0626313 0.00132028 0)
(0.0560885 0.000843942 0)
(0.0508635 0.000422852 0)
(0.0468375 0.000104675 0)
(0.0438184 -9.81852e-05 0)
(0.041575 -0.000206129 0)
(0.039924 -0.000247664 0)
(0.0386691 -0.000242135 0)
(0.0376989 -0.00021275 0)
(0.0368859 -0.000172203 0)
(0.036179 -0.000128829 0)
(0.0354949 -8.82406e-05 0)
(0.0348423 -5.38203e-05 0)
(0.0341657 -2.6519e-05 0)
(0.0335113 -5.59927e-06 0)
(0.0328269 8.95619e-06 0)
(0.032182 1.88361e-05 0)
(0.0315092 2.53639e-05 0)
(0.0308993 2.81455e-05 0)
(0.0302569 3.06178e-05 0)
(0.0297 3.01478e-05 0)
(0.0290971 3.02212e-05 0)
(0.0286001 2.94114e-05 0)
(0.0280365 2.78647e-05 0)
(0.0275997 2.73322e-05 0)
(0.0270691 2.57433e-05 0)
(0.0266916 2.42507e-05 0)
(0.0261847 2.40911e-05 0)
(0.0258647 2.16839e-05 0)
(0.0253688 2.218e-05 0)
(0.0251046 2.04146e-05 0)
(0.0246056 2.03033e-05 0)
(0.0243979 1.9312e-05 0)
(0.0238812 1.96114e-05 0)
(0.0237333 1.80315e-05 0)
(0.0231806 1.91567e-05 0)
(0.0231044 1.83562e-05 0)
(0.0224693 2.47435e-05 0)
(0.195823 0.00408514 0)
(0.195244 0.00577131 0)
(0.194499 0.00663669 0)
(0.193404 0.00685604 0)
(0.191742 0.00683008 0)
(0.189401 0.00678929 0)
(0.186419 0.00677839 0)
(0.182843 0.00674806 0)
(0.178768 0.00664438 0)
(0.174243 0.00643304 0)
(0.169399 0.00609932 0)
(0.1643 0.00563619 0)
(0.159091 0.00505013 0)
(0.153853 0.00437458 0)
(0.148742 0.00366701 0)
(0.143779 0.00298801 0)
(0.139069 0.00239073 0)
(0.13457 0.00189448 0)
(0.13038 0.00150299 0)
(0.126404 0.0012014 0)
(0.122739 0.000978394 0)
(0.119263 0.000821569 0)
(0.116077 0.000715858 0)
(0.113012 0.000644583 0)
(0.11021 0.000594963 0)
(0.107466 0.000556081 0)
(0.104974 0.000525849 0)
(0.102488 0.000496036 0)
(0.100261 0.000469493 0)
(0.0979912 0.000443159 0)
(0.0960086 0.000415858 0)
(0.0939205 0.000392317 0)
(0.0921695 0.000366445 0)
(0.0902355 0.000343527 0)
(0.0886968 0.000323438 0)
(0.0868962 0.000300181 0)
(0.0855487 0.00028521 0)
(0.0838567 0.000265088 0)
(0.082693 0.000250397 0)
(0.0810716 0.00023698 0)
(0.0800949 0.000222516 0)
(0.0785027 0.000212474 0)
(0.0777118 0.00020264 0)
(0.0761178 0.000191745 0)
(0.0755093 0.000186316 0)
(0.0738802 0.000177386 0)
(0.0734662 0.000171812 0)
(0.0717518 0.000168141 0)
(0.0715544 0.000162644 0)
(0.0696982 0.000172398 0)
(0.196312 0.00383552 0)
(0.196255 0.00494394 0)
(0.196467 0.00582749 0)
(0.196865 0.0063134 0)
(0.197293 0.00654577 0)
(0.197546 0.00669878 0)
(0.197603 0.00685408 0)
(0.197397 0.0070011 0)
(0.197001 0.00709102 0)
(0.196331 0.00707872 0)
(0.195475 0.00693329 0)
(0.194305 0.0066403 0)
(0.192949 0.00620968 0)
(0.191268 0.00566843 0)
(0.189451 0.00507071 0)
(0.187356 0.00446973 0)
(0.185217 0.00392393 0)
(0.182863 0.00345358 0)
(0.180575 0.00307401 0)
(0.178119 0.00276811 0)
(0.175818 0.00252881 0)
(0.173363 0.00233839 0)
(0.171118 0.00219121 0)
(0.16868 0.00206615 0)
(0.166492 0.00196204 0)
(0.164066 0.00186131 0)
(0.16193 0.00177344 0)
(0.159514 0.00168069 0)
(0.157441 0.00159723 0)
(0.155024 0.00150995 0)
(0.153041 0.00142832 0)
(0.150617 0.00134681 0)
(0.148751 0.00127147 0)
(0.146328 0.0011934 0)
(0.144586 0.00112997 0)
(0.142187 0.00105517 0)
(0.140573 0.00100269 0)
(0.138198 0.000935593 0)
(0.136744 0.000888036 0)
(0.134361 0.00083286 0)
(0.133111 0.000791117 0)
(0.130686 0.00074333 0)
(0.129656 0.000712683 0)
(0.127186 0.000667263 0)
(0.126373 0.000646059 0)
(0.123835 0.000606559 0)
(0.123271 0.000589054 0)
(0.12061 0.000559357 0)
(0.120329 0.000547154 0)
(0.117498 0.000532825 0)
(0.196842 0.00370258 0)
(0.196764 0.00452714 0)
(0.196929 0.00530779 0)
(0.197269 0.00588479 0)
(0.197838 0.00624533 0)
(0.198368 0.00646842 0)
(0.198942 0.00664311 0)
(0.199356 0.00679172 0)
(0.199822 0.00690087 0)
(0.200111 0.00692592 0)
(0.200469 0.00684337 0)
(0.200581 0.00663196 0)
(0.200729 0.0063026 0)
(0.200544 0.00587156 0)
(0.200377 0.00538609 0)
(0.199826 0.00488134 0)
(0.199337 0.00441467 0)
(0.198466 0.00399628 0)
(0.197756 0.00365862 0)
(0.196682 0.00338042 0)
(0.195878 0.00316879 0)
(0.194702 0.00298894 0)
(0.193875 0.00285341 0)
(0.19263 0.00272961 0)
(0.19179 0.00263316 0)
(0.190473 0.00253317 0)
(0.189617 0.00245558 0)
(0.188209 0.00236229 0)
(0.187343 0.00229177 0)
(0.185825 0.00220163 0)
(0.184961 0.00213114 0)
(0.183316 0.0020451 0)
(0.182462 0.00197475 0)
(0.180706 0.00189042 0)
(0.179857 0.00182749 0)
(0.178008 0.0017407 0)
(0.177173 0.00168834 0)
(0.175224 0.00160136 0)
(0.174446 0.00155398 0)
(0.172368 0.00147482 0)
(0.17169 0.00142989 0)
(0.169477 0.00135935 0)
(0.168902 0.00132122 0)
(0.166573 0.00125259 0)
(0.166104 0.00122606 0)
(0.163647 0.00115898 0)
(0.16332 0.00113904 0)
(0.160704 0.00108138 0)
(0.16054 0.00106816 0)
(0.157755 0.00102288 0)
(0.197322 0.00365997 0)
(0.197227 0.00433662 0)
(0.197376 0.00501762 0)
(0.197581 0.00559294 0)
(0.198086 0.00601429 0)
(0.19853 0.00627695 0)
(0.19915 0.00645778 0)
(0.199572 0.00657881 0)
(0.200159 0.00666368 0)
(0.200516 0.00667459 0)
(0.201077 0.00660513 0)
(0.20136 0.00642462 0)
(0.201841 0.00615121 0)
(0.201964 0.00578409 0)
(0.202271 0.00537405 0)
(0.202151 0.00493263 0)
(0.202242 0.00452588 0)
(0.201878 0.00414408 0)
(0.201808 0.00383967 0)
(0.201284 0.00357649 0)
(0.201152 0.00338263 0)
(0.200554 0.00320911 0)
(0.200427 0.00308519 0)
(0.199795 0.00296422 0)
(0.199688 0.0028796 0)
(0.199018 0.00278202 0)
(0.198929 0.00272044 0)
(0.198199 0.00262867 0)
(0.198122 0.0025755 0)
(0.197315 0.00248955 0)
(0.197244 0.00243474 0)
(0.196345 0.0023576 0)
(0.196268 0.00229901 0)
(0.195279 0.00222331 0)
(0.195189 0.00217261 0)
(0.194115 0.00208966 0)
(0.194011 0.0020539 0)
(0.192839 0.001965 0)
(0.19274 0.00193305 0)
(0.191453 0.00185364 0)
(0.191376 0.00181651 0)
(0.189976 0.00174933 0)
(0.189913 0.00171548 0)
(0.188416 0.00164719 0)
(0.188362 0.00162704 0)
(0.186765 0.00155669 0)
(0.186733 0.00154305 0)
(0.185023 0.00148359 0)
(0.185014 0.00147381 0)
(0.183197 0.00142506 0)
(0.197741 0.00363455 0)
(0.197643 0.00420527 0)
(0.197784 0.00479497 0)
(0.197902 0.00531535 0)
(0.198329 0.00573979 0)
(0.198673 0.00601939 0)
(0.199256 0.00621094 0)
(0.199631 0.00631682 0)
(0.200205 0.00638374 0)
(0.200523 0.00638022 0)
(0.201064 0.00631963 0)
(0.201321 0.00616452 0)
(0.201807 0.00593899 0)
(0.201955 0.00562659 0)
(0.202322 0.00528039 0)
(0.202297 0.00489339 0)
(0.202502 0.00453555 0)
(0.202292 0.00418471 0)
(0.20237 0.00390428 0)
(0.202037 0.00365052 0)
(0.202067 0.00346524 0)
(0.201688 0.00329326 0)
(0.201729 0.00317213 0)
(0.201348 0.00305014 0)
(0.201424 0.00296814 0)
(0.201043 0.00286788 0)
(0.201155 0.00281094 0)
(0.20076 0.00271745 0)
(0.200896 0.00266831 0)
(0.200479 0.00258466 0)
(0.200628 0.00253264 0)
(0.200179 0.00246309 0)
(0.200329 0.00240701 0)
(0.199841 0.00233935 0)
(0.199988 0.00229331 0)
(0.199462 0.0022159 0)
(0.199599 0.00218861 0)
(0.199031 0.00210525 0)
(0.199157 0.00207993 0)
(0.198536 0.00200944 0)
(0.198658 0.00197413 0)
(0.197985 0.00191882 0)
(0.198094 0.00188545 0)
(0.197379 0.00182789 0)
(0.197466 0.00181034 0)
(0.196706 0.00174933 0)
(0.196774 0.00173756 0)
(0.195964 0.00169058 0)
(0.196005 0.00168094 0)
(0.195151 0.0016448 0)
(0.198106 0.003607 0)
(0.198027 0.00409409 0)
(0.198141 0.00460132 0)
(0.198219 0.0050577 0)
(0.198557 0.00545608 0)
(0.198836 0.00573527 0)
(0.199336 0.00593463 0)
(0.199683 0.00603936 0)
(0.200195 0.00610021 0)
(0.200501 0.00609234 0)
(0.20097 0.0060406 0)
(0.201216 0.00591099 0)
(0.201627 0.00572741 0)
(0.201788 0.00546711 0)
(0.2021 0.00517749 0)
(0.202133 0.00484375 0)
(0.202311 0.0045296 0)
(0.202196 0.00420986 0)
(0.202263 0.00394911 0)
(0.202046 0.00370496 0)
(0.202061 0.00352263 0)
(0.201809 0.0033526 0)
(0.201823 0.00322767 0)
(0.201581 0.00310402 0)
(0.201623 0.0030182 0)
(0.201398 0.00291356 0)
(0.201474 0.00285323 0)
(0.201257 0.00275788 0)
(0.201353 0.00270295 0)
(0.201143 0.00262164 0)
(0.201249 0.002563 0)
(0.201039 0.00249852 0)
(0.20115 0.00243892 0)
(0.200929 0.00237526 0)
(0.201042 0.00232831 0)
(0.200814 0.00225492 0)
(0.200921 0.00222678 0)
(0.200686 0.00215069 0)
(0.200784 0.00212345 0)
(0.200532 0.0020615 0)
(0.200627 0.00202314 0)
(0.20036 0.00197732 0)
(0.200442 0.00194101 0)
(0.200167 0.00189257 0)
(0.200232 0.00187326 0)
(0.199942 0.00182165 0)
(0.199995 0.00180766 0)
(0.199689 0.00177175 0)
(0.199719 0.00176 0)
(0.1994 0.00173589 0)
(0.198429 0.00357324 0)
(0.198379 0.00399251 0)
(0.198455 0.00442884 0)
(0.19852 0.00482521 0)
(0.19877 0.00518716 0)
(0.199008 0.00545461 0)
(0.199409 0.0056558 0)
(0.199737 0.00576657 0)
(0.20017 0.00583075 0)
(0.200475 0.00582906 0)
(0.200863 0.00578731 0)
(0.201112 0.00568233 0)
(0.201439 0.00553387 0)
(0.201615 0.0053196 0)
(0.201858 0.00507824 0)
(0.201936 0.00479433 0)
(0.202068 0.00452078 0)
(0.202024 0.00423246 0)
(0.202061 0.0039902 0)
(0.20193 0.00375744 0)
(0.201909 0.00357597 0)
(0.201747 0.0034094 0)
(0.201714 0.00327863 0)
(0.20156 0.00315291 0)
(0.201546 0.00306189 0)
(0.201412 0.00295253 0)
(0.201425 0.00288657 0)
(0.201305 0.00278969 0)
(0.201334 0.0027262 0)
(0.201229 0.00264726 0)
(0.201265 0.00258038 0)
(0.201167 0.00251788 0)
(0.201209 0.00245442 0)
(0.201111 0.00239149 0)
(0.201156 0.00234258 0)
(0.201061 0.0022715 0)
(0.201102 0.00223982 0)
(0.201007 0.00216873 0)
(0.201049 0.00213785 0)
(0.200946 0.00208113 0)
(0.200988 0.0020395 0)
(0.200884 0.00199817 0)
(0.200916 0.00195971 0)
(0.200816 0.00191565 0)
(0.200842 0.00189416 0)
(0.200733 0.00184753 0)
(0.200758 0.00183132 0)
(0.200644 0.001801 0)
(0.200658 0.00178781 0)
(0.200543 0.00176977 0)
(0.198722 0.00353449 0)
(0.198694 0.00389866 0)
(0.198738 0.00427713 0)
(0.198793 0.0046208 0)
(0.198972 0.0049442 0)
(0.199173 0.00519376 0)
(0.199488 0.0053902 0)
(0.199786 0.00550748 0)
(0.200146 0.00557917 0)
(0.200438 0.00558891 0)
(0.200762 0.00555895 0)
(0.201003 0.00547584 0)
(0.201265 0.00535639 0)
(0.201441 0.00517998 0)
(0.20163 0.0049787 0)
(0.201728 0.00473846 0)
(0.201829 0.00450209 0)
(0.201827 0.00424456 0)
(0.201849 0.00402112 0)
(0.201773 0.00380146 0)
(0.201738 0.00362207 0)
(0.20163 0.00345909 0)
(0.201579 0.00332426 0)
(0.201473 0.00319591 0)
(0.201434 0.00310058 0)
(0.201345 0.0029871 0)
(0.201326 0.00291561 0)
(0.201252 0.00281778 0)
(0.201247 0.00274694 0)
(0.201185 0.00266894 0)
(0.201188 0.00259651 0)
(0.201133 0.00253299 0)
(0.201141 0.00246736 0)
(0.201092 0.00240324 0)
(0.2011 0.00235306 0)
(0.201055 0.00228307 0)
(0.201063 0.00224828 0)
(0.201013 0.00218015 0)
(0.20103 0.00214648 0)
(0.200974 0.00209228 0)
(0.200991 0.00204915 0)
(0.20094 0.00200896 0)
(0.200946 0.00197011 0)
(0.200901 0.00192708 0)
(0.200906 0.00190494 0)
(0.200853 0.00186059 0)
(0.200865 0.00184272 0)
(0.200806 0.00181457 0)
(0.200813 0.00180134 0)
(0.200756 0.00178546 0)
(0.198992 0.0034906 0)
(0.198975 0.00381297 0)
(0.198994 0.00414468 0)
(0.199033 0.00444485 0)
(0.19916 0.00473148 0)
(0.199324 0.00496123 0)
(0.199571 0.00514847 0)
(0.199829 0.00526936 0)
(0.200128 0.005349 0)
(0.200392 0.00537127 0)
(0.200666 0.00535397 0)
(0.200886 0.00528909 0)
(0.201102 0.00519335 0)
(0.201264 0.00504693 0)
(0.201416 0.00487891 0)
(0.201513 0.00467479 0)
(0.201597 0.00447143 0)
(0.201613 0.00424346 0)
(0.201634 0.00403948 0)
(0.201589 0.00383437 0)
(0.201559 0.00365981 0)
(0.201482 0.00350031 0)
(0.201434 0.00336447 0)
(0.201352 0.00323358 0)
(0.201309 0.00313478 0)
(0.201243 0.00301854 0)
(0.201214 0.00294201 0)
(0.20116 0.00284346 0)
(0.201147 0.00276754 0)
(0.2011 0.00268867 0)
(0.201096 0.00261341 0)
(0.201056 0.00254718 0)
(0.201052 0.00248083 0)
(0.201022 0.00241421 0)
(0.201015 0.00236345 0)
(0.200988 0.00229389 0)
(0.200986 0.00225641 0)
(0.200949 0.00219076 0)
(0.200961 0.00215398 0)
(0.200917 0.00210164 0)
(0.200927 0.00205836 0)
(0.200892 0.00201649 0)
(0.200889 0.00197968 0)
(0.200863 0.00193599 0)
(0.20086 0.00191291 0)
(0.200822 0.00187087 0)
(0.200831 0.00185201 0)
(0.200787 0.00182436 0)
(0.200791 0.00181146 0)
(0.200751 0.00179644 0)
(0.199261 0.00343839 0)
(0.199245 0.00372368 0)
(0.199243 0.00401498 0)
(0.19926 0.00427816 0)
(0.199343 0.00453153 0)
(0.199468 0.00474173 0)
(0.199659 0.00491887 0)
(0.199869 0.00504142 0)
(0.200111 0.00512844 0)
(0.200335 0.00516307 0)
(0.200564 0.00515949 0)
(0.200753 0.00511015 0)
(0.20093 0.00503554 0)
(0.201068 0.00491381 0)
(0.201192 0.00477489 0)
(0.201277 0.00460152 0)
(0.201348 0.00442762 0)
(0.201371 0.00422892 0)
(0.201395 0.00404532 0)
(0.201369 0.00385688 0)
(0.201351 0.00369047 0)
(0.201295 0.00353476 0)
(0.201258 0.00340037 0)
(0.201195 0.00326789 0)
(0.201157 0.00316616 0)
(0.201106 0.00304859 0)
(0.201077 0.00296731 0)
(0.201034 0.00286809 0)
(0.201021 0.00278916 0)
(0.200982 0.00270849 0)
(0.200979 0.00263221 0)
(0.200947 0.0025622 0)
(0.200939 0.00249633 0)
(0.20092 0.00242644 0)
(0.200907 0.00237534 0)
(0.20089 0.00230606 0)
(0.200886 0.00226491 0)
(0.200853 0.00220298 0)
(0.200867 0.00216179 0)
(0.200827 0.00211075 0)
(0.200836 0.00206912 0)
(0.200809 0.00202324 0)
(0.200803 0.00198969 0)
(0.200786 0.00194517 0)
(0.20078 0.00192062 0)
(0.20075 0.00188114 0)
(0.200759 0.00186096 0)
(0.20072 0.00183393 0)
(0.200725 0.00182144 0)
(0.200692 0.00180667 0)
(0.199532 0.00336926 0)
(0.199513 0.00361337 0)
(0.19949 0.00386511 0)
(0.199483 0.00409621 0)
(0.199528 0.00432197 0)
(0.199611 0.00451673 0)
(0.19975 0.00468718 0)
(0.199906 0.00481297 0)
(0.200091 0.00490807 0)
(0.200263 0.00495453 0)
(0.200441 0.00496721 0)
(0.200591 0.00493287 0)
(0.200727 0.00487843 0)
(0.200835 0.00477889 0)
(0.20093 0.00466653 0)
(0.200999 0.00452091 0)
(0.201055 0.00437327 0)
(0.201078 0.00420288 0)
(0.201104 0.00404044 0)
(0.201091 0.00387024 0)
(0.201086 0.00371473 0)
(0.201049 0.00356374 0)
(0.201026 0.00343214 0)
(0.20098 0.00329922 0)
(0.200951 0.00319525 0)
(0.200914 0.00307731 0)
(0.200891 0.00299154 0)
(0.200857 0.00289197 0)
(0.200849 0.00281131 0)
(0.200817 0.00272826 0)
(0.200816 0.00265259 0)
(0.200792 0.00257767 0)
(0.200783 0.0025136 0)
(0.200773 0.00243986 0)
(0.200759 0.00238824 0)
(0.200749 0.00232009 0)
(0.200746 0.00227325 0)
(0.200717 0.00221653 0)
(0.200733 0.00217064 0)
(0.200698 0.00211944 0)
(0.200707 0.00208124 0)
(0.200688 0.00202987 0)
(0.200679 0.00200032 0)
(0.200671 0.00195456 0)
(0.200664 0.00192814 0)
(0.20064 0.00189224 0)
(0.200649 0.00186996 0)
(0.200618 0.00184317 0)
(0.200621 0.00183192 0)
(0.200597 0.00181682 0)
(0.199777 0.00328302 0)
(0.199756 0.00348133 0)
(0.199722 0.00369385 0)
(0.199697 0.00389859 0)
(0.199711 0.0041059 0)
(0.199755 0.00429354 0)
(0.199841 0.00446379 0)
(0.19994 0.0045963 0)
(0.20006 0.00470106 0)
(0.200172 0.0047591 0)
(0.200289 0.00478895 0)
(0.200389 0.00476973 0)
(0.200479 0.00473349 0)
(0.200551 0.00465352 0)
(0.200614 0.00456422 0)
(0.200662 0.00444173 0)
(0.200701 0.00431591 0)
(0.200719 0.0041701 0)
(0.200742 0.00402646 0)
(0.200738 0.00387373 0)
(0.200742 0.00373002 0)
(0.200722 0.00358495 0)
(0.200712 0.00345726 0)
(0.200686 0.00332471 0)
(0.200668 0.00321935 0)
(0.200646 0.00310225 0)
(0.200632 0.00301211 0)
(0.20061 0.00291335 0)
(0.200607 0.00283131 0)
(0.200585 0.00274596 0)
(0.200587 0.00267292 0)
(0.200573 0.00259178 0)
(0.200565 0.0025316 0)
(0.200563 0.00245401 0)
(0.200551 0.00240097 0)
(0.200547 0.00233619 0)
(0.200546 0.00228158 0)
(0.200525 0.00223109 0)
(0.200541 0.00218121 0)
(0.200515 0.00212841 0)
(0.200522 0.00209511 0)
(0.200513 0.00203702 0)
(0.200503 0.00201136 0)
(0.200502 0.00196569 0)
(0.200496 0.00193568 0)
(0.200481 0.00190376 0)
(0.200489 0.00188026 0)
(0.200468 0.00185305 0)
(0.20047 0.00184299 0)
(0.200456 0.00182763 0)
(0.199951 0.0032095 0)
(0.19994 0.00336532 0)
(0.199918 0.00354517 0)
(0.1999 0.00373156 0)
(0.199899 0.0039294 0)
(0.199911 0.00411676 0)
(0.19994 0.00428995 0)
(0.199974 0.00443021 0)
(0.200017 0.00454317 0)
(0.200057 0.00461011 0)
(0.200099 0.0046525 0)
(0.200136 0.00464423 0)
(0.200169 0.00462077 0)
(0.200196 0.00455361 0)
(0.200219 0.00447975 0)
(0.200238 0.00437193 0)
(0.200254 0.00425967 0)
(0.200262 0.00413 0)
(0.200273 0.00399802 0)
(0.200273 0.00385742 0)
(0.200277 0.00372236 0)
(0.200273 0.00358251 0)
(0.200272 0.00345814 0)
(0.200265 0.00332711 0)
(0.20026 0.00322083 0)
(0.200254 0.00310556 0)
(0.20025 0.00301227 0)
(0.200243 0.00291494 0)
(0.200244 0.00283254 0)
(0.200237 0.00274564 0)
(0.200239 0.00267624 0)
(0.200236 0.00259034 0)
(0.200233 0.00253403 0)
(0.200235 0.0024544 0)
(0.20023 0.00239955 0)
(0.200231 0.00233907 0)
(0.200232 0.00227745 0)
(0.200225 0.00223275 0)
(0.200232 0.00218037 0)
(0.200224 0.00212559 0)
(0.200227 0.00209707 0)
(0.200226 0.00203411 0)
(0.200222 0.00201073 0)
(0.200224 0.00196675 0)
(0.200222 0.00193331 0)
(0.200218 0.00190471 0)
(0.200222 0.00188053 0)
(0.200216 0.00185322 0)
(0.200216 0.00184383 0)
(0.200214 0.00182904 0)
(0.192462 -5.93123e-05 0)
(0.207652 -3.26171e-05 0)
(0.1923 2.09827e-05 0)
(0.207157 3.15974e-05 0)
(0.192064 0.000112014 0)
(0.206552 7.42576e-05 0)
(0.191586 0.000189741 0)
(0.205661 0.000138567 0)
(0.190736 0.000314065 0)
(0.204368 0.00031686 0)
(0.189328 0.000725446 0)
(0.202565 0.00112486 0)
(0.196647 -6.80742e-05 0)
(0.202883 -4.62634e-05 0)
(0.196984 8.93246e-05 0)
(0.201979 7.79327e-05 0)
(0.197206 0.000229922 0)
(0.200951 0.000147796 0)
(0.197193 0.000360507 0)
(0.199655 0.000280188 0)
(0.196833 0.000627689 0)
(0.198029 0.000697547 0)
(0.196138 0.0014976 0)
(0.196194 0.00225473 0)
(0.199187 -3.58762e-06 0)
(0.200479 -4.46255e-05 0)
(0.199199 0.000126378 0)
(0.199924 0.000117604 0)
(0.19902 0.000268122 0)
(0.199301 0.000253186 0)
(0.198597 0.000421694 0)
(0.198477 0.000498109 0)
(0.197861 0.000784496 0)
(0.19746 0.00113187 0)
(0.196927 0.00179133 0)
(0.196523 0.00272521 0)
(0.19989 2.10362e-05 0)
(0.199967 -1.2205e-05 0)
(0.199714 0.000133251 0)
(0.199604 0.000178081 0)
(0.199359 0.000316043 0)
(0.199131 0.000370973 0)
(0.198828 0.000534523 0)
(0.19846 0.00070205 0)
(0.198092 0.00100923 0)
(0.197656 0.00143904 0)
(0.197304 0.00205745 0)
(0.196977 0.00286734 0)
(0.200017 3.02897e-05 0)
(0.199902 4.038e-05 0)
(0.199819 0.000148307 0)
(0.199588 0.000241461 0)
(0.199446 0.000371727 0)
(0.19915 0.00048708 0)
(0.198932 0.000664159 0)
(0.198554 0.000895714 0)
(0.198284 0.00122661 0)
(0.197887 0.00167671 0)
(0.197658 0.00225312 0)
(0.197375 0.00295357 0)
(0.200042 3.91304e-05 0)
(0.199891 8.49868e-05 0)
(0.199856 0.000180664 0)
(0.199599 0.000296806 0)
(0.199498 0.00044253 0)
(0.199189 0.000596611 0)
(0.199026 0.00080752 0)
(0.198662 0.00107379 0)
(0.198471 0.00142594 0)
(0.198115 0.0018683 0)
(0.197978 0.00240588 0)
(0.197737 0.0030206 0)
(0.200045 4.8266e-05 0)
(0.199895 0.000119804 0)
(0.199872 0.000224098 0)
(0.199627 0.000353641 0)
(0.199538 0.000522966 0)
(0.199251 0.000705589 0)
(0.199113 0.000948708 0)
(0.198794 0.0012359 0)
(0.198646 0.00160055 0)
(0.198353 0.0020267 0)
(0.198265 0.00252642 0)
(0.198082 0.00307161 0)
(0.200034 5.77889e-05 0)
(0.199912 0.000150235 0)
(0.199877 0.000272798 0)
(0.199669 0.000416084 0)
(0.199573 0.000607759 0)
(0.199334 0.00081386 0)
(0.199201 0.00108051 0)
(0.198945 0.00138114 0)
(0.198815 0.00174903 0)
(0.198595 0.0021573 0)
(0.198527 0.00261879 0)
(0.198408 0.00310496 0)
(0.200021 6.75265e-05 0)
(0.19993 0.000180237 0)
(0.199881 0.000323806 0)
(0.199716 0.000482921 0)
(0.199614 0.000694215 0)
(0.199425 0.000919647 0)
(0.199297 0.00120174 0)
(0.199102 0.0015094 0)
(0.198986 0.00187297 0)
(0.19883 0.00226143 0)
(0.198775 0.00268633 0)
(0.198708 0.00312128 0)
(0.200013 7.76195e-05 0)
(0.199945 0.000211623 0)
(0.199892 0.000376455 0)
(0.199762 0.000552453 0)
(0.199665 0.000779845 0)
(0.199518 0.00102114 0)
(0.199403 0.0013113 0)
(0.199257 0.00162035 0)
(0.199158 0.00197416 0)
(0.199049 0.00234116 0)
(0.199012 0.0027314 0)
(0.19898 0.00312142 0)
(0.200008 8.92692e-05 0)
(0.199955 0.000247348 0)
(0.199908 0.000435559 0)
(0.19981 0.000629122 0)
(0.199728 0.00087021 0)
(0.199616 0.00112334 0)
(0.199523 0.00141673 0)
(0.199416 0.0017218 0)
(0.199342 0.00206116 0)
(0.199267 0.00240416 0)
(0.19925 0.00276146 0)
(0.199244 0.0031094 0)
(0.200006 0.000103567 0)
(0.199965 0.000290862 0)
(0.199931 0.000506785 0)
(0.199862 0.000719354 0)
(0.199804 0.000972615 0)
(0.199725 0.00123355 0)
(0.199659 0.00152531 0)
(0.199587 0.00182227 0)
(0.19954 0.00214249 0)
(0.199494 0.00245712 0)
(0.199495 0.00278118 0)
(0.19951 0.00308513 0)
(0.200004 0.000120124 0)
(0.199975 0.000340346 0)
(0.199957 0.000587494 0)
(0.199917 0.00081944 0)
(0.199885 0.00108398 0)
(0.19984 0.00134859 0)
(0.199802 0.00163544 0)
(0.199762 0.0019201 0)
(0.199739 0.00221934 0)
(0.199716 0.0025027 0)
(0.199728 0.00279216 0)
(0.199754 0.003049 0)
(0.200002 0.000134247 0)
(0.19999 0.000383619 0)
(0.199984 0.000659464 0)
(0.199972 0.000909136 0)
(0.199964 0.00118437 0)
(0.19995 0.00145054 0)
(0.199939 0.00173222 0)
(0.199926 0.002005 0)
(0.19992 0.00228693 0)
(0.199915 0.00254447 0)
(0.199923 0.00280523 0)
(0.199939 0.00302134 0)
)
;

boundaryField
{
    top
    {
        type            zeroGradient;
    }
    inlet
    {
        type            fixedValue;
        value           uniform (0.2 0 0);
    }
    outlet
    {
        type            zeroGradient;
    }
    plate
    {
        type            fixedValue;
        value           uniform (0 0 0);
    }
    symmBound
    {
        type            zeroGradient;
    }
    frontAndBack
    {
        type            empty;
    }
}


// ************************************************************************* //
