/*--------------------------------*- C++ -*----------------------------------*\
| =========                 |                                                 |
| \\      /  F ield         | OpenFOAM: The Open Source CFD Toolbox           |
|  \\    /   O peration     | Version:  2.3.0                                 |
|   \\  /    A nd           | Web:      www.OpenFOAM.org                      |
|    \\/     M anipulation  |                                                 |
\*---------------------------------------------------------------------------*/
FoamFile
{
    version     2.0;
    format      ascii;
    class       surfaceScalarField;
    location    "0.1";
    object      phi;
}
// * * * * * * * * * * * * * * * * * * * * * * * * * * * * * * * * * * * * * //

dimensions      [0 3 -1 0 0 0 0];

internalField   nonuniform List<scalar> 
6598
(
2.90576e-08
2.7268e-09
-3.17844e-08
2.56233e-08
3.43434e-09
2.22091e-08
3.41423e-09
1.90511e-08
3.158e-09
1.61808e-08
2.87029e-09
1.3668e-08
2.51279e-09
1.15991e-08
2.06892e-09
9.99136e-09
1.60772e-09
8.81268e-09
1.17867e-09
7.98277e-09
8.29912e-10
7.40649e-09
5.76284e-10
7.00152e-09
4.04968e-10
6.70657e-09
2.94948e-10
6.47945e-09
2.2712e-10
6.29255e-09
1.86902e-10
6.12976e-09
1.62786e-10
5.98322e-09
1.4654e-10
5.85007e-09
1.33159e-10
5.72945e-09
1.20613e-10
5.62123e-09
1.08225e-10
5.52584e-09
9.53873e-11
5.44375e-09
8.20923e-11
5.37504e-09
6.87117e-11
5.31945e-09
5.5584e-11
5.2766e-09
4.28533e-11
5.24601e-09
3.05915e-11
5.22717e-09
1.88367e-11
5.21999e-09
7.18308e-12
5.22275e-09
-2.76378e-12
5.23344e-09
-1.06908e-11
5.24961e-09
-1.61656e-11
5.26865e-09
-1.90419e-11
5.28845e-09
-1.9801e-11
5.30747e-09
-1.90196e-11
5.32477e-09
-1.72962e-11
5.33994e-09
-1.51777e-11
5.35298e-09
-1.30355e-11
5.36404e-09
-1.10656e-11
5.37339e-09
-9.34501e-12
5.38127e-09
-7.88168e-12
5.38792e-09
-6.65182e-12
5.39355e-09
-5.62258e-12
5.39831e-09
-4.76596e-12
5.40237e-09
-4.0592e-12
5.40585e-09
-3.48179e-12
5.40887e-09
-3.0149e-12
5.41151e-09
-2.64003e-12
5.41385e-09
-2.33963e-12
5.41594e-09
-2.09688e-12
5.41784e-09
-1.89756e-12
5.41957e-09
-1.73025e-12
5.42116e-09
-1.58682e-12
5.42262e-09
-1.46145e-12
5.42397e-09
-1.34968e-12
5.42522e-09
-1.24782e-12
5.42637e-09
-1.15475e-12
5.42744e-09
-1.06924e-12
5.42843e-09
-9.90085e-13
5.42935e-09
-9.16717e-13
5.4302e-09
-8.48646e-13
5.43098e-09
-7.85476e-13
5.43171e-09
-7.26681e-13
5.43238e-09
-6.72054e-13
5.433e-09
-6.21337e-13
5.43358e-09
-5.7416e-13
5.43411e-09
-5.30325e-13
5.4346e-09
-4.8957e-13
5.43505e-09
-4.51727e-13
5.43547e-09
-4.1651e-13
5.43585e-09
-3.83875e-13
5.4362e-09
-3.53458e-13
5.43653e-09
-3.25401e-13
5.43683e-09
-2.99121e-13
5.4371e-09
-2.75048e-13
5.43735e-09
-2.52342e-13
5.43759e-09
-2.31729e-13
5.4378e-09
-2.12129e-13
5.43799e-09
-1.94497e-13
5.43817e-09
-1.77638e-13
5.43833e-09
-1.62498e-13
5.43848e-09
-1.48063e-13
5.43862e-09
-1.34996e-13
5.43874e-09
-1.22705e-13
5.43885e-09
-1.11366e-13
5.43895e-09
-1.00919e-13
5.43904e-09
-9.10176e-14
5.43912e-09
-8.21332e-14
5.4392e-09
-7.34284e-14
5.43926e-09
-6.5852e-14
5.43932e-09
-5.81148e-14
5.43937e-09
-5.16647e-14
5.43942e-09
-4.46048e-14
5.43946e-09
-3.92009e-14
5.43949e-09
-3.25485e-14
5.43952e-09
-2.80458e-14
5.43954e-09
-2.17379e-14
5.43956e-09
-1.8517e-14
5.43957e-09
-1.01543e-14
5.43958e-09
-1.13907e-14
-7.75777e-15
3.42437e-08
2.43531e-09
-3.39522e-08
3.40769e-08
3.60116e-09
3.33936e-08
4.09752e-09
3.24314e-08
4.12013e-09
3.13106e-08
3.99118e-09
3.00572e-08
3.76616e-09
2.86926e-08
3.43348e-09
2.72868e-08
3.01354e-09
2.59173e-08
2.54817e-09
2.46409e-08
2.10631e-09
2.34798e-08
1.7374e-09
2.24359e-08
1.44891e-09
2.15045e-08
1.22631e-09
2.06804e-08
1.05119e-09
1.99545e-08
9.12829e-10
1.93164e-08
8.00874e-10
1.87556e-08
7.07345e-10
1.82625e-08
6.26218e-10
1.78299e-08
5.53295e-10
1.74518e-08
4.86302e-10
1.71235e-08
4.2369e-10
1.68412e-08
3.64356e-10
1.66022e-08
3.07748e-10
1.6404e-08
2.53806e-10
1.62442e-08
2.02653e-10
1.61204e-08
1.54323e-10
1.60303e-08
1.08919e-10
1.59709e-08
6.66688e-11
1.59393e-08
2.88094e-11
1.59301e-08
-1.50458e-12
1.59379e-08
-2.39998e-11
1.59571e-08
-3.81775e-11
1.59827e-08
-4.54288e-11
1.60109e-08
-4.72524e-11
1.6039e-08
-4.54054e-11
1.60654e-08
-4.15102e-11
1.60891e-08
-3.6752e-11
1.61099e-08
-3.18609e-11
1.61278e-08
-2.72329e-11
1.61429e-08
-2.30512e-11
1.61557e-08
-1.93751e-11
1.61663e-08
-1.62081e-11
1.6175e-08
-1.35324e-11
1.61823e-08
-1.13171e-11
1.61883e-08
-9.51639e-12
1.61934e-08
-8.07791e-12
1.61977e-08
-6.94208e-12
1.62014e-08
-6.05046e-12
1.62046e-08
-5.34741e-12
1.62075e-08
-4.78448e-12
1.62101e-08
-4.32406e-12
1.62125e-08
-3.93901e-12
1.62146e-08
-3.60953e-12
1.62166e-08
-3.32086e-12
1.62184e-08
-3.06167e-12
1.62201e-08
-2.82777e-12
1.62216e-08
-2.61473e-12
1.6223e-08
-2.4189e-12
1.62244e-08
-2.23845e-12
1.62256e-08
-2.07181e-12
1.62267e-08
-1.91771e-12
1.62278e-08
-1.77458e-12
1.62287e-08
-1.64195e-12
1.62296e-08
-1.51903e-12
1.62305e-08
-1.40471e-12
1.62312e-08
-1.29859e-12
1.6232e-08
-1.19997e-12
1.62326e-08
-1.10838e-12
1.62332e-08
-1.02313e-12
1.62338e-08
-9.44047e-13
1.62343e-08
-8.70347e-13
1.62348e-08
-8.0224e-13
1.62352e-08
-7.38438e-13
1.62356e-08
-6.79847e-13
1.6236e-08
-6.24588e-13
1.62363e-08
-5.7428e-13
1.62366e-08
-5.26405e-13
1.62369e-08
-4.833e-13
1.62372e-08
-4.41879e-13
1.62374e-08
-4.0487e-13
1.62377e-08
-3.69099e-13
1.62379e-08
-3.37218e-13
1.6238e-08
-3.06403e-13
1.62382e-08
-2.78829e-13
1.62384e-08
-2.52273e-13
1.62385e-08
-2.28293e-13
1.62386e-08
-2.05367e-13
1.62387e-08
-1.84308e-13
1.62388e-08
-1.64522e-13
1.62389e-08
-1.45703e-13
1.6239e-08
-1.28686e-13
1.62391e-08
-1.11344e-13
1.62391e-08
-9.69413e-14
1.62392e-08
-8.03071e-14
1.62392e-08
-6.83436e-14
1.62392e-08
-5.19283e-14
1.62393e-08
-4.31911e-14
1.62393e-08
-2.07563e-14
1.62393e-08
-2.33541e-14
-1.10386e-14
3.57369e-08
2.29334e-09
-3.55949e-08
3.61315e-08
3.20651e-09
3.6361e-08
3.86801e-09
3.64035e-08
4.07767e-09
3.63326e-08
4.06211e-09
3.61552e-08
3.94357e-09
3.584e-08
3.7486e-09
3.53805e-08
3.47307e-09
3.48028e-08
3.12588e-09
3.4156e-08
2.75314e-09
3.34831e-08
2.41029e-09
3.28071e-08
2.1249e-09
3.21379e-08
1.89551e-09
3.14813e-08
1.70781e-09
3.08456e-08
1.54847e-09
3.02388e-08
1.40769e-09
2.96653e-08
1.28089e-09
2.91262e-08
1.16532e-09
2.8622e-08
1.05744e-09
2.81544e-08
9.53894e-10
2.77252e-08
8.52887e-10
2.73356e-08
7.53989e-10
2.69862e-08
6.57109e-10
2.66777e-08
5.62365e-10
2.64099e-08
4.70441e-10
2.61823e-08
3.81958e-10
2.59937e-08
2.97436e-10
2.58425e-08
2.17875e-10
2.57258e-08
1.45498e-10
2.56407e-08
8.36333e-11
2.55829e-08
3.37654e-11
2.55473e-08
-2.54891e-12
2.55292e-08
-2.73068e-11
2.5524e-08
-4.20889e-11
2.5528e-08
-4.93459e-11
2.55379e-08
-5.14492e-11
2.55514e-08
-5.02839e-11
2.55667e-08
-4.7157e-11
2.55824e-08
-4.29161e-11
2.55975e-08
-3.81135e-11
2.56112e-08
-3.31281e-11
2.56233e-08
-2.82487e-11
2.56335e-08
-2.37087e-11
2.56418e-08
-1.96731e-11
2.56485e-08
-1.62294e-11
2.56538e-08
-1.33971e-11
2.5658e-08
-1.11358e-11
2.56614e-08
-9.37041e-12
2.5664e-08
-8.00868e-12
2.56662e-08
-6.95749e-12
2.5668e-08
-6.13616e-12
2.56695e-08
-5.48391e-12
2.56709e-08
-4.95357e-12
2.56721e-08
-4.50976e-12
2.56731e-08
-4.12564e-12
2.56741e-08
-3.79008e-12
2.5675e-08
-3.49134e-12
2.56758e-08
-3.22151e-12
2.56765e-08
-2.97626e-12
2.56772e-08
-2.75218e-12
2.56778e-08
-2.54671e-12
2.56784e-08
-2.35687e-12
2.5679e-08
-2.18185e-12
2.56795e-08
-2.02027e-12
2.56799e-08
-1.87025e-12
2.56804e-08
-1.7313e-12
2.56808e-08
-1.60227e-12
2.56811e-08
-1.48248e-12
2.56815e-08
-1.37093e-12
2.56818e-08
-1.26739e-12
2.56821e-08
-1.17075e-12
2.56824e-08
-1.08141e-12
2.56826e-08
-9.97381e-13
2.56829e-08
-9.20318e-13
2.56831e-08
-8.47095e-13
2.56833e-08
-7.80747e-13
2.56835e-08
-7.16764e-13
2.56837e-08
-6.59822e-13
2.56838e-08
-6.03856e-13
2.5684e-08
-5.54922e-13
2.56841e-08
-5.05967e-13
2.56842e-08
-4.63769e-13
2.56844e-08
-4.20979e-13
2.56845e-08
-3.84424e-13
2.56846e-08
-3.46962e-13
2.56847e-08
-3.15047e-13
2.56847e-08
-2.82232e-13
2.56848e-08
-2.53897e-13
2.56849e-08
-2.25276e-13
2.56849e-08
-1.99463e-13
2.5685e-08
-1.74637e-13
2.5685e-08
-1.50243e-13
2.5685e-08
-1.29103e-13
2.56851e-08
-1.04888e-13
2.56851e-08
-8.74448e-14
2.56851e-08
-6.25201e-14
2.56851e-08
-4.96759e-14
2.56851e-08
-1.76433e-14
2.56851e-08
-1.74172e-14
6.57273e-15
3.72526e-08
2.23753e-09
-3.71968e-08
3.75563e-08
2.90283e-09
3.79118e-08
3.51251e-09
3.81806e-08
3.8088e-09
3.83839e-08
3.85886e-09
3.85464e-08
3.78107e-09
3.86527e-08
3.64234e-09
3.8671e-08
3.45472e-09
3.85846e-08
3.21226e-09
3.84094e-08
2.92837e-09
3.81785e-08
2.64116e-09
3.79175e-08
2.38585e-09
3.76352e-08
2.17785e-09
3.73319e-08
2.01111e-09
3.70119e-08
1.86852e-09
3.66839e-08
1.73563e-09
3.63562e-08
1.60857e-09
3.60322e-08
1.48935e-09
3.57124e-08
1.37729e-09
3.53983e-08
1.26793e-09
3.50935e-08
1.15768e-09
3.48014e-08
1.04608e-09
3.45247e-08
9.33817e-10
3.42656e-08
8.21454e-10
3.40262e-08
7.09868e-10
3.3808e-08
6.00181e-10
3.3612e-08
4.93456e-10
3.34386e-08
3.91292e-10
3.32878e-08
2.96292e-10
3.31595e-08
2.11914e-10
3.30526e-08
1.40603e-10
3.29663e-08
8.37742e-11
3.28984e-08
4.0608e-11
3.28466e-08
9.74498e-12
3.28083e-08
-1.11232e-11
3.27815e-08
-2.45998e-11
3.27641e-08
-3.28657e-11
3.27544e-08
-3.74512e-11
3.27508e-08
-3.93007e-11
3.27516e-08
-3.89974e-11
3.27555e-08
-3.69776e-11
3.27609e-08
-3.36817e-11
3.27668e-08
-2.95972e-11
3.27723e-08
-2.52079e-11
3.2777e-08
-2.09288e-11
3.27807e-08
-1.70569e-11
3.27833e-08
-1.37568e-11
3.2785e-08
-1.10766e-11
3.2786e-08
-8.97716e-12
3.27864e-08
-7.37516e-12
3.27864e-08
-6.1642e-12
3.27862e-08
-5.25471e-12
3.27858e-08
-4.56617e-12
3.27854e-08
-4.03425e-12
3.27848e-08
-3.60659e-12
3.27843e-08
-3.26004e-12
3.27838e-08
-2.96913e-12
3.27833e-08
-2.71851e-12
3.27828e-08
-2.49943e-12
3.27824e-08
-2.30518e-12
3.27819e-08
-2.13131e-12
3.27816e-08
-1.9731e-12
3.27812e-08
-1.82939e-12
3.27809e-08
-1.69797e-12
3.27806e-08
-1.57681e-12
3.27803e-08
-1.46506e-12
3.27801e-08
-1.3615e-12
3.27799e-08
-1.2655e-12
3.27797e-08
-1.17588e-12
3.27795e-08
-1.09265e-12
3.27793e-08
-1.01441e-12
3.27792e-08
-9.42235e-13
3.27791e-08
-8.73255e-13
3.2779e-08
-8.10622e-13
3.27789e-08
-7.49291e-13
3.27788e-08
-6.95086e-13
3.27787e-08
-6.40128e-13
3.27786e-08
-5.93423e-13
3.27786e-08
-5.43977e-13
3.27785e-08
-5.03593e-13
3.27785e-08
-4.59101e-13
3.27784e-08
-4.23906e-13
3.27784e-08
-3.83908e-13
3.27784e-08
-3.52947e-13
3.27783e-08
-3.16927e-13
3.27783e-08
-2.89272e-13
3.27783e-08
-2.56916e-13
3.27783e-08
-2.3142e-13
3.27782e-08
-2.02628e-13
3.27782e-08
-1.78228e-13
3.27782e-08
-1.52748e-13
3.27782e-08
-1.28381e-13
3.27782e-08
-1.06295e-13
3.27781e-08
-8.05283e-14
3.27781e-08
-6.21394e-14
3.27781e-08
-3.41808e-14
3.27781e-08
-1.97723e-14
3.2778e-08
1.05614e-14
3.2778e-08
1.91263e-14
5.66715e-14
3.88328e-08
2.1878e-09
-3.87831e-08
3.90418e-08
2.6938e-09
3.93607e-08
3.19365e-09
3.96577e-08
3.51173e-09
3.99008e-08
3.61585e-09
4.0111e-08
3.57085e-09
4.02992e-08
3.45417e-09
4.04484e-08
3.30548e-09
4.05347e-08
3.12598e-09
4.05534e-08
2.90969e-09
4.05232e-08
2.67131e-09
4.04664e-08
2.44267e-09
4.03928e-08
2.25147e-09
4.03018e-08
2.10214e-09
4.01925e-08
1.97776e-09
4.00695e-08
1.85866e-09
3.99393e-08
1.73877e-09
3.98052e-08
1.62341e-09
3.96667e-08
1.51579e-09
3.9523e-08
1.41167e-09
3.93753e-08
1.30537e-09
3.9226e-08
1.19535e-09
3.9077e-08
1.08279e-09
3.89297e-08
9.68781e-10
3.87854e-08
8.54165e-10
3.86455e-08
7.40065e-10
3.85113e-08
6.27646e-10
3.83839e-08
5.18739e-10
3.8264e-08
4.1621e-10
3.81526e-08
3.23292e-10
3.8051e-08
2.42209e-10
3.79605e-08
1.74322e-10
3.78814e-08
1.19667e-10
3.78136e-08
7.75097e-11
3.77564e-08
4.61034e-11
3.77087e-08
2.30557e-11
3.76698e-08
6.08478e-12
3.76388e-08
-6.49145e-12
3.76152e-08
-1.56631e-11
3.75981e-08
-2.18913e-11
3.75865e-08
-2.53989e-11
3.75793e-08
-2.64408e-11
3.75751e-08
-2.54399e-11
3.75729e-08
-2.29703e-11
3.75716e-08
-1.96568e-11
3.75706e-08
-1.60701e-11
3.75695e-08
-1.26397e-11
3.75681e-08
-9.63611e-12
3.75663e-08
-7.1759e-12
3.75641e-08
-5.26177e-12
3.75618e-08
-3.83412e-12
3.75594e-08
-2.80171e-12
3.75569e-08
-2.07749e-12
3.75544e-08
-1.57719e-12
3.7552e-08
-1.22665e-12
3.75498e-08
-9.88121e-13
3.75476e-08
-8.22653e-13
3.75456e-08
-7.05246e-13
3.75437e-08
-6.21786e-13
3.7542e-08
-5.61176e-13
3.75404e-08
-5.16368e-13
3.75389e-08
-4.81906e-13
3.75375e-08
-4.55162e-13
3.75362e-08
-4.33774e-13
3.75351e-08
-4.15881e-13
3.7534e-08
-4.00504e-13
3.7533e-08
-3.86546e-13
3.75321e-08
-3.73846e-13
3.75313e-08
-3.61204e-13
3.75306e-08
-3.49466e-13
3.75299e-08
-3.36658e-13
3.75293e-08
-3.25462e-13
3.75287e-08
-3.11583e-13
3.75282e-08
-3.009e-13
3.75278e-08
-2.85355e-13
3.75273e-08
-2.75395e-13
3.7527e-08
-2.58052e-13
3.75266e-08
-2.48904e-13
3.75263e-08
-2.30115e-13
3.7526e-08
-2.21357e-13
3.75258e-08
-2.01756e-13
3.75255e-08
-1.92918e-13
3.75253e-08
-1.72976e-13
3.75251e-08
-1.63831e-13
3.7525e-08
-1.43761e-13
3.75248e-08
-1.33951e-13
3.75247e-08
-1.14208e-13
3.75245e-08
-1.0293e-13
3.75244e-08
-8.40206e-14
3.75243e-08
-7.07003e-14
3.75242e-08
-5.27009e-14
3.75241e-08
-3.67131e-14
3.7524e-08
-2.00972e-14
3.75239e-08
-1.75739e-16
3.75239e-08
1.4417e-14
3.75238e-08
3.85257e-14
3.75237e-08
5.16137e-14
3.75237e-08
7.32713e-14
3.75236e-08
8.96022e-14
1.35054e-13
4.04491e-08
2.12915e-09
-4.03905e-08
4.06076e-08
2.53531e-09
4.08684e-08
2.93291e-09
4.11474e-08
3.23276e-09
4.1391e-08
3.37216e-09
4.15966e-08
3.36527e-09
4.17793e-08
3.27153e-09
4.19392e-08
3.14552e-09
4.20629e-08
3.00235e-09
4.21407e-08
2.83187e-09
4.21785e-08
2.63352e-09
4.21911e-08
2.43002e-09
4.21905e-08
2.25208e-09
4.21802e-08
2.11245e-09
4.21596e-08
1.99835e-09
4.21296e-08
1.88862e-09
4.20936e-08
1.77483e-09
4.2054e-08
1.66303e-09
4.20107e-08
1.55908e-09
4.19625e-08
1.45988e-09
4.1909e-08
1.35883e-09
4.18509e-08
1.25341e-09
4.17889e-08
1.14483e-09
4.17232e-08
1.03451e-09
4.1654e-08
9.2334e-10
4.15819e-08
8.12177e-10
4.15075e-08
7.02034e-10
4.14315e-08
5.94711e-10
4.13547e-08
4.93041e-10
4.12781e-08
3.99879e-10
4.12033e-08
3.17037e-10
4.1132e-08
2.45604e-10
4.10657e-08
1.85956e-10
4.10053e-08
1.37893e-10
4.09511e-08
1.00321e-10
4.09029e-08
7.13039e-11
4.08603e-08
4.86811e-11
4.08231e-08
3.068e-11
4.07912e-08
1.62047e-11
4.07646e-08
4.78019e-12
4.07428e-08
-3.66381e-12
4.07256e-08
-9.17488e-12
4.07121e-08
-1.19566e-11
4.07016e-08
-1.24587e-11
4.06932e-08
-1.13138e-11
4.06863e-08
-9.18134e-12
4.06803e-08
-6.65577e-12
4.06749e-08
-4.17698e-12
4.06697e-08
-2.01345e-12
4.06647e-08
-2.86196e-13
4.06599e-08
9.8898e-13
4.06553e-08
1.86166e-12
4.06508e-08
2.40393e-12
4.06465e-08
2.69761e-12
4.06425e-08
2.81809e-12
4.06387e-08
2.81686e-12
4.06351e-08
2.7377e-12
4.06318e-08
2.61168e-12
4.06287e-08
2.45833e-12
4.06258e-08
2.29156e-12
4.06232e-08
2.12029e-12
4.06208e-08
1.95041e-12
4.06185e-08
1.7855e-12
4.06165e-08
1.62762e-12
4.06146e-08
1.47824e-12
4.06128e-08
1.33799e-12
4.06112e-08
1.20758e-12
4.06098e-08
1.08629e-12
4.06084e-08
9.75211e-13
4.06072e-08
8.72119e-13
4.06061e-08
7.7969e-13
4.06051e-08
6.92857e-13
4.06042e-08
6.17885e-13
4.06033e-08
5.44978e-13
4.06025e-08
4.86189e-13
4.06018e-08
4.24935e-13
4.06012e-08
3.80542e-13
4.06006e-08
3.29292e-13
4.06001e-08
2.96978e-13
4.05996e-08
2.54926e-13
4.05992e-08
2.32271e-13
4.05988e-08
1.98711e-13
4.05984e-08
1.83923e-13
4.05981e-08
1.57792e-13
4.05978e-08
1.49634e-13
4.05976e-08
1.30259e-13
4.05973e-08
1.27203e-13
4.05971e-08
1.14667e-13
4.05969e-08
1.1536e-13
4.05967e-08
1.0935e-13
4.05966e-08
1.13265e-13
4.05964e-08
1.1361e-13
4.05963e-08
1.19729e-13
4.05961e-08
1.2727e-13
4.0596e-08
1.34419e-13
4.05959e-08
1.4884e-13
4.05958e-08
1.57637e-13
4.05957e-08
1.69588e-13
4.05956e-08
1.88088e-13
2.31522e-13
4.21012e-08
2.06393e-09
-4.2036e-08
4.22347e-08
2.40178e-09
4.24455e-08
2.72212e-09
4.26923e-08
2.98595e-09
4.29253e-08
3.13922e-09
4.31238e-08
3.16674e-09
4.32937e-08
3.10164e-09
4.34422e-08
2.99703e-09
4.35664e-08
2.87811e-09
4.36597e-08
2.73856e-09
4.37204e-08
2.57282e-09
4.3755e-08
2.39545e-09
4.37744e-08
2.23263e-09
4.37869e-08
2.1e-09
4.37946e-08
1.99062e-09
4.37971e-08
1.88615e-09
4.37946e-08
1.77728e-09
4.37886e-08
1.66902e-09
4.378e-08
1.56774e-09
4.37685e-08
1.47134e-09
4.37537e-08
1.37367e-09
4.3735e-08
1.27213e-09
4.37121e-08
1.16773e-09
4.36848e-08
1.06182e-09
4.36529e-08
9.55211e-10
4.36164e-08
8.48687e-10
4.35753e-08
7.43104e-10
4.353e-08
6.40025e-10
4.3481e-08
5.42026e-10
4.34292e-08
4.51663e-10
4.33758e-08
3.70408e-10
4.33224e-08
2.99007e-10
4.32705e-08
2.37888e-10
4.32212e-08
1.87168e-10
4.31753e-08
1.46246e-10
4.3133e-08
1.13661e-10
4.30941e-08
8.75272e-11
4.30587e-08
6.61301e-11
4.30266e-08
4.83069e-11
4.29978e-08
3.35115e-11
4.29725e-08
2.16549e-11
4.29506e-08
1.27791e-11
4.29318e-08
6.82328e-12
4.29158e-08
3.48068e-12
4.29023e-08
2.2202e-12
4.28907e-08
2.41188e-12
4.28806e-08
3.43438e-12
4.28717e-08
4.77788e-12
4.28636e-08
6.0862e-12
4.28561e-08
7.15294e-12
4.28492e-08
7.89307e-12
4.28428e-08
8.30583e-12
4.28367e-08
8.43329e-12
4.28311e-08
8.33719e-12
4.28258e-08
8.08273e-12
4.28209e-08
7.72214e-12
4.28164e-08
7.29753e-12
4.28121e-08
6.84083e-12
4.28082e-08
6.37338e-12
4.28046e-08
5.90981e-12
4.28013e-08
5.45936e-12
4.27982e-08
5.02772e-12
4.27954e-08
4.61841e-12
4.27928e-08
4.23282e-12
4.27904e-08
3.8717e-12
4.27882e-08
3.53479e-12
4.27862e-08
3.22226e-12
4.27843e-08
2.93214e-12
4.27826e-08
2.6653e-12
4.27811e-08
2.41775e-12
4.27797e-08
2.1929e-12
4.27784e-08
1.9828e-12
4.27772e-08
1.79601e-12
4.27761e-08
1.61803e-12
4.27751e-08
1.46548e-12
4.27742e-08
1.31479e-12
4.27734e-08
1.19222e-12
4.27727e-08
1.06522e-12
4.2772e-08
9.6785e-13
4.27714e-08
8.62137e-13
4.27709e-08
7.85386e-13
4.27704e-08
6.98679e-13
4.27699e-08
6.392e-13
4.27695e-08
5.68742e-13
4.27691e-08
5.24086e-13
4.27688e-08
4.6785e-13
4.27685e-08
4.35211e-13
4.27682e-08
3.92303e-13
4.2768e-08
3.69316e-13
4.27677e-08
3.38289e-13
4.27675e-08
3.23843e-13
4.27673e-08
3.03557e-13
4.27671e-08
2.95905e-13
4.2767e-08
2.86642e-13
4.27668e-08
2.84025e-13
4.27667e-08
2.84842e-13
4.27666e-08
2.87391e-13
4.27665e-08
2.89757e-13
4.27663e-08
3.05293e-13
3.3925e-13
4.3795e-08
1.99639e-09
-4.37275e-08
4.39142e-08
2.28252e-09
4.40884e-08
2.54796e-09
4.43012e-08
2.77314e-09
4.45159e-08
2.92455e-09
4.47061e-08
2.97657e-09
4.48672e-08
2.94046e-09
4.50057e-08
2.85861e-09
4.51239e-08
2.75984e-09
4.52198e-08
2.64269e-09
4.52898e-08
2.50279e-09
4.53344e-08
2.35089e-09
4.53613e-08
2.20573e-09
4.53807e-08
2.08064e-09
4.53971e-08
1.97414e-09
4.54101e-08
1.87323e-09
4.54183e-08
1.76905e-09
4.54224e-08
1.66494e-09
4.54236e-08
1.56651e-09
4.54229e-08
1.47205e-09
4.54201e-08
1.37648e-09
4.54142e-08
1.27801e-09
4.54044e-08
1.17754e-09
4.53904e-08
1.07584e-09
4.53721e-08
9.735e-10
4.53493e-08
8.71455e-10
4.53218e-08
7.70584e-10
4.52897e-08
6.72136e-10
4.52535e-08
5.78294e-10
4.52138e-08
4.91323e-10
4.51717e-08
4.12472e-10
4.51285e-08
3.42262e-10
4.50853e-08
2.81092e-10
4.50432e-08
2.29227e-10
4.50031e-08
1.86361e-10
4.49654e-08
1.51397e-10
4.49301e-08
1.22764e-10
4.48973e-08
9.89214e-11
4.48669e-08
7.87421e-11
4.48388e-08
6.16323e-11
4.4813e-08
4.74255e-11
4.47896e-08
3.61446e-11
4.47687e-08
2.7763e-11
4.47501e-08
2.20559e-11
4.47338e-08
1.85891e-11
4.47194e-08
1.68055e-11
4.47067e-08
1.61272e-11
4.46954e-08
1.60472e-11
4.46853e-08
1.61828e-11
4.46762e-08
1.62856e-11
4.46678e-08
1.62246e-11
4.46602e-08
1.59567e-11
4.46531e-08
1.54913e-11
4.46466e-08
1.48651e-11
4.46406e-08
1.41259e-11
4.4635e-08
1.33175e-11
4.46298e-08
1.24756e-11
4.4625e-08
1.16283e-11
4.46206e-08
1.07954e-11
4.46165e-08
9.99011e-12
4.46127e-08
9.22055e-12
4.46093e-08
8.49139e-12
4.46061e-08
7.80517e-12
4.46032e-08
7.16225e-12
4.46005e-08
6.56236e-12
4.4598e-08
6.00399e-12
4.45957e-08
5.48656e-12
4.45937e-08
5.00666e-12
4.45918e-08
4.56485e-12
4.459e-08
4.15513e-12
4.45884e-08
3.78162e-12
4.4587e-08
3.43323e-12
4.45857e-08
3.1209e-12
4.45844e-08
2.82512e-12
4.45833e-08
2.56721e-12
4.45823e-08
2.31636e-12
4.45814e-08
2.10579e-12
4.45806e-08
1.89402e-12
4.45798e-08
1.72327e-12
4.45792e-08
1.54636e-12
4.45785e-08
1.40849e-12
4.4578e-08
1.26231e-12
4.45775e-08
1.15228e-12
4.4577e-08
1.03214e-12
4.45766e-08
9.46173e-13
4.45762e-08
8.48493e-13
4.45758e-08
7.82397e-13
4.45755e-08
7.05159e-13
4.45752e-08
6.55428e-13
4.4575e-08
5.95946e-13
4.45748e-08
5.60757e-13
4.45745e-08
5.16862e-13
4.45743e-08
4.93615e-13
4.45742e-08
4.64969e-13
4.4574e-08
4.51275e-13
4.45738e-08
4.36281e-13
4.45737e-08
4.31585e-13
4.45736e-08
4.23715e-13
4.45734e-08
4.33845e-13
4.5502e-13
4.55364e-08
1.92944e-09
-4.54695e-08
4.56447e-08
2.17423e-09
4.57935e-08
2.39915e-09
4.59762e-08
2.59044e-09
4.61696e-08
2.73117e-09
4.63484e-08
2.79778e-09
4.65022e-08
2.78667e-09
4.66338e-08
2.72698e-09
4.67466e-08
2.64702e-09
4.68409e-08
2.54844e-09
4.69145e-08
2.42917e-09
4.69655e-08
2.29985e-09
4.69982e-08
2.17306e-09
4.70219e-08
2.05691e-09
4.70425e-08
1.95356e-09
4.70596e-08
1.85616e-09
4.70717e-08
1.7569e-09
4.70794e-08
1.65729e-09
4.70838e-08
1.5621e-09
4.7086e-08
1.46981e-09
4.70863e-08
1.37617e-09
4.70839e-08
1.28045e-09
4.70777e-08
1.18378e-09
4.70673e-08
1.08618e-09
4.7053e-08
9.87783e-10
4.70347e-08
8.89813e-10
4.70119e-08
7.93392e-10
4.69846e-08
6.99437e-10
4.69533e-08
6.09603e-10
4.69187e-08
5.25878e-10
4.68818e-08
4.49433e-10
4.68433e-08
3.80692e-10
4.68044e-08
3.19988e-10
4.6766e-08
2.67636e-10
4.67289e-08
2.23497e-10
4.66935e-08
1.86732e-10
4.66603e-08
1.56052e-10
4.6629e-08
1.30142e-10
4.65998e-08
1.07984e-10
4.65724e-08
8.89882e-11
4.65469e-08
7.29236e-11
4.65233e-08
5.97487e-11
4.65017e-08
4.94094e-11
4.6482e-08
4.17074e-11
4.64644e-08
3.62721e-11
4.64485e-08
3.26183e-11
4.64344e-08
3.02302e-11
4.64219e-08
2.86371e-11
4.64106e-08
2.74649e-11
4.64004e-08
2.64529e-11
4.63912e-08
2.5444e-11
4.63828e-08
2.43644e-11
4.63751e-08
2.3195e-11
4.6368e-08
2.19479e-11
4.63615e-08
2.06516e-11
4.63554e-08
1.93367e-11
4.63499e-08
1.803e-11
4.63448e-08
1.67532e-11
4.634e-08
1.5522e-11
4.63357e-08
1.43466e-11
4.63317e-08
1.32332e-11
4.6328e-08
1.21845e-11
4.63246e-08
1.12016e-11
4.63215e-08
1.02835e-11
4.63186e-08
9.42854e-12
4.6316e-08
8.63386e-12
4.63136e-08
7.89793e-12
4.63113e-08
7.21577e-12
4.63093e-08
6.58755e-12
4.63075e-08
6.00514e-12
4.63058e-08
5.47332e-12
4.63042e-08
4.97776e-12
4.63028e-08
4.53174e-12
4.63015e-08
4.11067e-12
4.63004e-08
3.7405e-12
4.62993e-08
3.3832e-12
4.62983e-08
3.0788e-12
4.62974e-08
2.777e-12
4.62966e-08
2.52796e-12
4.62959e-08
2.27544e-12
4.62952e-08
2.07234e-12
4.62946e-08
1.86296e-12
4.62941e-08
1.69899e-12
4.62936e-08
1.52598e-12
4.62932e-08
1.39599e-12
4.62927e-08
1.25412e-12
4.62924e-08
1.15241e-12
4.6292e-08
1.03846e-12
4.62917e-08
9.60304e-13
4.62915e-08
8.70317e-13
4.62912e-08
8.13073e-13
4.6291e-08
7.43842e-13
4.62908e-08
7.03982e-13
4.62906e-08
6.54515e-13
4.62904e-08
6.28989e-13
4.62902e-08
5.9701e-13
4.62901e-08
5.84595e-13
4.629e-08
5.65344e-13
4.62898e-08
5.69573e-13
5.77251e-13
4.73301e-08
1.86436e-09
-4.7265e-08
4.74292e-08
2.07511e-09
4.75598e-08
2.26854e-09
4.77176e-08
2.43263e-09
4.78897e-08
2.55909e-09
4.80551e-08
2.63245e-09
4.82008e-08
2.64092e-09
4.8327e-08
2.60075e-09
4.84358e-08
2.53822e-09
4.85273e-08
2.45702e-09
4.86012e-08
2.35523e-09
4.86565e-08
2.24451e-09
4.86946e-08
2.13498e-09
4.87224e-08
2.0291e-09
4.87461e-08
1.92991e-09
4.87658e-08
1.8365e-09
4.878e-08
1.74262e-09
4.87897e-08
1.64761e-09
4.87961e-08
1.55573e-09
4.87997e-08
1.46617e-09
4.88009e-08
1.37495e-09
4.87994e-08
1.28196e-09
4.87943e-08
1.18892e-09
4.87851e-08
1.0954e-09
4.8772e-08
1.00086e-09
4.87551e-08
9.06674e-10
4.87341e-08
8.1441e-10
4.87088e-08
7.24736e-10
4.86797e-08
6.38707e-10
4.86476e-08
5.58016e-10
4.86131e-08
4.83854e-10
4.85772e-08
4.16627e-10
4.85406e-08
3.56591e-10
4.85042e-08
3.04065e-10
4.84687e-08
2.59017e-10
4.84346e-08
2.20798e-10
4.84023e-08
1.88355e-10
4.83718e-08
1.6059e-10
4.83432e-08
1.36627e-10
4.83163e-08
1.15916e-10
4.8291e-08
9.81901e-11
4.82674e-08
8.33437e-11
4.82455e-08
7.12776e-11
4.82255e-08
6.17919e-11
4.82072e-08
5.45544e-11
4.81907e-08
4.91382e-11
4.81758e-08
4.50874e-11
4.81625e-08
4.19767e-11
4.81505e-08
3.94553e-11
4.81397e-08
3.72649e-11
4.81299e-08
3.52359e-11
4.8121e-08
3.32732e-11
4.81128e-08
3.13342e-11
4.81054e-08
2.94095e-11
4.80985e-08
2.75085e-11
4.80922e-08
2.56476e-11
4.80864e-08
2.38433e-11
4.8081e-08
2.21097e-11
4.80761e-08
2.04571e-11
4.80715e-08
1.88919e-11
4.80673e-08
1.74173e-11
4.80635e-08
1.6034e-11
4.806e-08
1.47407e-11
4.80567e-08
1.3535e-11
4.80537e-08
1.24139e-11
4.8051e-08
1.13727e-11
4.80485e-08
1.04089e-11
4.80462e-08
9.51598e-12
4.80441e-08
8.69352e-12
4.80421e-08
7.93126e-12
4.80404e-08
7.23453e-12
4.80388e-08
6.58577e-12
4.80373e-08
6.00048e-12
4.8036e-08
5.44907e-12
4.80347e-08
4.96193e-12
4.80336e-08
4.49395e-12
4.80326e-08
4.09175e-12
4.80317e-08
3.69637e-12
4.80309e-08
3.36571e-12
4.80301e-08
3.03457e-12
4.80294e-08
2.7635e-12
4.80288e-08
2.48837e-12
4.80282e-08
2.26824e-12
4.80277e-08
2.04017e-12
4.80272e-08
1.86437e-12
4.80268e-08
1.67641e-12
4.80264e-08
1.53772e-12
4.80261e-08
1.3854e-12
4.80258e-08
1.27776e-12
4.80255e-08
1.15589e-12
4.80252e-08
1.07573e-12
4.8025e-08
9.80051e-13
4.80248e-08
9.22892e-13
4.80246e-08
8.51716e-13
4.80244e-08
8.13833e-13
4.80242e-08
7.64175e-13
4.80241e-08
7.43767e-13
4.80239e-08
7.11981e-13
4.80238e-08
7.10593e-13
7.05018e-13
4.91804e-08
1.80152e-09
-4.91176e-08
4.92715e-08
1.98402e-09
4.9388e-08
2.15208e-09
4.95257e-08
2.29491e-09
4.96781e-08
2.40663e-09
4.98296e-08
2.481e-09
4.99663e-08
2.50417e-09
5.00867e-08
2.48035e-09
5.01921e-08
2.43284e-09
5.02809e-08
2.36826e-09
5.03535e-08
2.28255e-09
5.04113e-08
2.18676e-09
5.04541e-08
2.09221e-09
5.04856e-08
1.99757e-09
5.05117e-08
1.90378e-09
5.05336e-08
1.81465e-09
5.05496e-08
1.72655e-09
5.05609e-08
1.63635e-09
5.0569e-08
1.54765e-09
5.05739e-08
1.46122e-09
5.05757e-08
1.3732e-09
5.05746e-08
1.28309e-09
5.05701e-08
1.19338e-09
5.05616e-08
1.10389e-09
5.05492e-08
1.0133e-09
5.05331e-08
9.22779e-10
5.05131e-08
8.34369e-10
5.04891e-08
7.48744e-10
5.04615e-08
6.66348e-10
5.0431e-08
5.88507e-10
5.03983e-08
5.16487e-10
5.03642e-08
4.50767e-10
5.03293e-08
3.9153e-10
5.02943e-08
3.39043e-10
5.026e-08
2.93348e-10
5.02268e-08
2.53952e-10
5.01952e-08
2.19991e-10
5.01652e-08
1.9056e-10
5.01369e-08
1.64927e-10
5.01102e-08
1.42602e-10
5.00851e-08
1.2331e-10
5.00615e-08
1.06897e-10
5.00396e-08
9.32211e-11
5.00193e-08
8.20726e-11
5.00007e-08
7.31434e-11
4.99838e-08
6.60527e-11
4.99685e-08
6.03964e-11
4.99547e-08
5.57935e-11
4.99422e-08
5.1921e-11
4.9931e-08
4.853e-11
4.99207e-08
4.54464e-11
4.99115e-08
4.25605e-11
4.9903e-08
3.98113e-11
4.98952e-08
3.71707e-11
4.98881e-08
3.46308e-11
4.98816e-08
3.21943e-11
4.98755e-08
2.98671e-11
4.987e-08
2.7655e-11
4.98649e-08
2.55623e-11
4.98602e-08
2.35911e-11
4.98559e-08
2.17413e-11
4.98519e-08
2.00106e-11
4.98482e-08
1.83959e-11
4.98449e-08
1.68925e-11
4.98418e-08
1.5496e-11
4.9839e-08
1.42e-11
4.98364e-08
1.30008e-11
4.9834e-08
1.18901e-11
4.98318e-08
1.0867e-11
4.98298e-08
9.91904e-12
4.9828e-08
9.05201e-12
4.98264e-08
8.24516e-12
4.98248e-08
7.51604e-12
4.98235e-08
6.83019e-12
4.98222e-08
6.22224e-12
4.9821e-08
5.64014e-12
4.982e-08
5.13691e-12
4.98191e-08
4.64505e-12
4.98182e-08
4.2301e-12
4.98174e-08
3.8179e-12
4.98167e-08
3.47667e-12
4.9816e-08
3.13368e-12
4.98155e-08
2.85563e-12
4.98149e-08
2.57069e-12
4.98144e-08
2.3477e-12
4.9814e-08
2.11209e-12
4.98136e-08
1.93534e-12
4.98133e-08
1.74334e-12
4.98129e-08
1.60534e-12
4.98126e-08
1.4505e-12
4.98124e-08
1.34672e-12
4.98121e-08
1.22373e-12
4.98119e-08
1.14871e-12
4.98117e-08
1.05515e-12
4.98115e-08
1.00448e-12
4.98113e-08
9.36615e-13
4.98112e-08
9.08005e-13
4.9811e-08
8.62714e-13
4.98109e-08
8.56125e-13
8.37685e-13
5.10909e-08
1.74123e-09
-5.10306e-08
5.11748e-08
1.90014e-09
5.12798e-08
2.04706e-09
5.14015e-08
2.17321e-09
5.15363e-08
2.2718e-09
5.1674e-08
2.34328e-09
5.18015e-08
2.37671e-09
5.19153e-08
2.36658e-09
5.20168e-08
2.33132e-09
5.21034e-08
2.28168e-09
5.21744e-08
2.21152e-09
5.22329e-08
2.12827e-09
5.22791e-08
2.046e-09
5.23139e-08
1.96278e-09
5.2342e-08
1.87566e-09
5.23658e-08
1.79087e-09
5.23838e-08
1.70857e-09
5.23964e-08
1.6237e-09
5.24058e-08
1.53822e-09
5.24121e-08
1.45495e-09
5.24146e-08
1.37071e-09
5.24138e-08
1.28385e-09
5.241e-08
1.19723e-09
5.24022e-08
1.11164e-09
5.23903e-08
1.02519e-09
5.23748e-08
9.38283e-10
5.23558e-08
8.53365e-10
5.23331e-08
7.7147e-10
5.23069e-08
6.92565e-10
5.22779e-08
6.17482e-10
5.22469e-08
5.47528e-10
5.22143e-08
4.83326e-10
5.21809e-08
4.24999e-10
5.21472e-08
3.72719e-10
5.21139e-08
3.26576e-10
5.20817e-08
2.86225e-10
5.20507e-08
2.50968e-10
5.20212e-08
2.20061e-10
5.19932e-08
1.929e-10
5.19668e-08
1.69065e-10
5.19418e-08
1.48286e-10
5.19183e-08
1.30379e-10
5.18964e-08
1.15172e-10
5.1876e-08
1.02445e-10
5.18572e-08
9.19073e-11
5.18401e-08
8.32163e-11
5.18244e-08
7.6012e-11
5.18103e-08
6.99534e-11
5.17975e-08
6.47449e-11
5.17858e-08
6.01508e-11
5.17753e-08
5.59969e-11
5.17657e-08
5.2164e-11
5.17569e-08
4.85771e-11
5.17489e-08
4.51925e-11
5.17415e-08
4.19872e-11
5.17348e-08
3.89509e-11
5.17286e-08
3.60792e-11
5.17229e-08
3.33697e-11
5.17176e-08
3.08206e-11
5.17128e-08
2.8429e-11
5.17083e-08
2.61912e-11
5.17042e-08
2.41019e-11
5.17005e-08
2.21555e-11
5.1697e-08
2.03453e-11
5.16938e-08
1.86651e-11
5.16909e-08
1.71067e-11
5.16883e-08
1.56652e-11
5.16858e-08
1.43305e-11
5.16836e-08
1.3101e-11
5.16815e-08
1.19621e-11
5.16797e-08
1.09199e-11
5.1678e-08
9.95058e-12
5.16764e-08
9.07355e-12
5.1675e-08
8.24956e-12
5.16737e-08
7.51735e-12
5.16725e-08
6.81803e-12
5.16714e-08
6.21089e-12
5.16705e-08
5.61995e-12
5.16696e-08
5.11833e-12
5.16688e-08
4.62284e-12
5.1668e-08
4.20951e-12
5.16674e-08
3.79676e-12
5.16668e-08
3.45923e-12
5.16662e-08
3.11579e-12
5.16657e-08
2.84438e-12
5.16653e-08
2.55973e-12
5.16649e-08
2.34394e-12
5.16645e-08
2.11108e-12
5.16642e-08
1.94192e-12
5.16639e-08
1.75319e-12
5.16636e-08
1.62513e-12
5.16633e-08
1.47409e-12
5.16631e-08
1.38069e-12
5.16629e-08
1.26415e-12
5.16627e-08
1.20033e-12
5.16625e-08
1.11378e-12
5.16624e-08
1.07679e-12
5.16622e-08
1.01721e-12
5.16621e-08
1.00577e-12
9.74736e-13
5.30651e-08
1.68363e-09
-5.30075e-08
5.31424e-08
1.82277e-09
5.32377e-08
1.95175e-09
5.33464e-08
2.06452e-09
5.34658e-08
2.15245e-09
5.35903e-08
2.21872e-09
5.37088e-08
2.25829e-09
5.38154e-08
2.25995e-09
5.39121e-08
2.23466e-09
5.39966e-08
2.19713e-09