/*--------------------------------*- C++ -*----------------------------------*\
| =========                 |                                                 |
| \\      /  F ield         | OpenFOAM: The Open Source CFD Toolbox           |
|  \\    /   O peration     | Version:  2.3.0                                 |
|   \\  /    A nd           | Web:      www.OpenFOAM.org                      |
|    \\/     M anipulation  |                                                 |
\*---------------------------------------------------------------------------*/
FoamFile
{
    version     2.0;
    format      ascii;
    class       surfaceScalarField;
    location    "0.1";
    object      phi_0;
}
// * * * * * * * * * * * * * * * * * * * * * * * * * * * * * * * * * * * * * //

dimensions      [0 3 -1 0 0 0 0];

internalField   nonuniform List<scalar> 
6598
(
2.90586e-08
2.73318e-09
-3.17918e-08
2.56193e-08
3.43931e-09
2.22063e-08
3.41299e-09
1.90517e-08
3.15458e-09
1.61832e-08
2.86856e-09
1.36705e-08
2.51263e-09
1.16012e-08
2.06933e-09
9.99351e-09
1.6077e-09
8.81557e-09
1.17794e-09
7.98649e-09
8.29081e-10
7.41078e-09
5.75706e-10
7.00628e-09
4.04501e-10
6.71179e-09
2.94488e-10
6.48523e-09
2.26562e-10
6.29908e-09
1.86155e-10
6.13717e-09
1.61906e-10
5.9916e-09
1.45567e-10
5.85951e-09
1.32088e-10
5.74002e-09
1.19495e-10
5.633e-09
1.07015e-10
5.539e-09
9.4002e-11
5.45849e-09
8.05135e-11
5.39152e-09
6.69709e-11
5.33781e-09
5.37074e-11
5.29696e-09
4.08487e-11
5.26851e-09
2.84556e-11
5.25194e-09
1.65696e-11
5.24723e-09
4.70961e-12
5.25202e-09
-4.79678e-12
5.26438e-09
-1.23531e-11
5.28173e-09
-1.73542e-11
5.30141e-09
-1.96768e-11
5.32141e-09
-2.00037e-11
5.34032e-09
-1.89051e-11
5.35731e-09
-1.69938e-11
5.3721e-09
-1.4792e-11
5.38474e-09
-1.26331e-11
5.39542e-09
-1.06809e-11
5.40441e-09
-8.9917e-12
5.41197e-09
-7.56274e-12
5.41834e-09
-6.3665e-12
5.42371e-09
-5.37001e-12
5.42825e-09
-4.54593e-12
5.43212e-09
-3.87127e-12
5.43545e-09
-3.32445e-12
5.43833e-09
-2.88538e-12
5.44087e-09
-2.53451e-12
5.44312e-09
-2.25381e-12
5.44515e-09
-2.0265e-12
5.44699e-09
-1.8389e-12
5.44867e-09
-1.68031e-12
5.45021e-09
-1.54339e-12
5.45164e-09
-1.42295e-12
5.45295e-09
-1.31501e-12
5.45417e-09
-1.21623e-12
5.45529e-09
-1.12581e-12
5.45633e-09
-1.04261e-12
5.4573e-09
-9.65536e-13
5.45819e-09
-8.94067e-13
5.45902e-09
-8.27747e-13
5.45979e-09
-7.66198e-13
5.4605e-09
-7.08897e-13
5.46115e-09
-6.55664e-13
5.46176e-09
-6.06241e-13
5.46232e-09
-5.6026e-13
5.46284e-09
-5.1753e-13
5.46331e-09
-4.77804e-13
5.46376e-09
-4.4091e-13
5.46416e-09
-4.06578e-13
5.46454e-09
-3.74749e-13
5.46488e-09
-3.45094e-13
5.4652e-09
-3.17724e-13
5.46549e-09
-2.92096e-13
5.46576e-09
-2.68608e-13
5.46601e-09
-2.46456e-13
5.46623e-09
-2.26342e-13
5.46644e-09
-2.07212e-13
5.46663e-09
-1.90015e-13
5.4668e-09
-1.73545e-13
5.46696e-09
-1.58782e-13
5.46711e-09
-1.44669e-13
5.46724e-09
-1.31926e-13
5.46736e-09
-1.19906e-13
5.46747e-09
-1.08838e-13
5.46757e-09
-9.86281e-14
5.46766e-09
-8.89528e-14
5.46774e-09
-8.02715e-14
5.46781e-09
-7.1754e-14
5.46787e-09
-6.43503e-14
5.46793e-09
-5.67803e-14
5.46798e-09
-5.04603e-14
5.46802e-09
-4.35596e-14
5.46806e-09
-3.82506e-14
5.46809e-09
-3.17436e-14
5.46812e-09
-2.73133e-14
5.46814e-09
-2.11698e-14
5.46816e-09
-1.78277e-14
5.46817e-09
-9.94012e-15
5.46818e-09
-1.0978e-14
-6.84851e-15
3.42468e-08
2.44383e-09
-3.39575e-08
3.40749e-08
3.61123e-09
3.33894e-08
4.09845e-09
3.24298e-08
4.11424e-09
3.13132e-08
3.98514e-09
3.00616e-08
3.76419e-09
2.86957e-08
3.4353e-09
2.72886e-08
3.01475e-09
2.59201e-08
2.54641e-09
2.46458e-08
2.10341e-09
2.34865e-08
1.73508e-09
2.24439e-08
1.44705e-09
2.15139e-08
1.22446e-09
2.06915e-08
1.049e-09
1.99677e-08
9.09968e-10
1.93321e-08
7.97527e-10
1.87738e-08
7.03789e-10
1.82835e-08
6.22387e-10
1.7854e-08
5.49068e-10
1.74794e-08
4.81623e-10
1.71549e-08
4.18483e-10
1.68768e-08
3.58565e-10
1.66424e-08
3.01391e-10
1.64492e-08
2.46963e-10
1.62946e-08
1.95406e-10
1.61763e-08
1.46734e-10
1.60918e-08
1.01083e-10
1.60377e-08
5.87898e-11
1.60113e-08
2.15995e-11
1.60063e-08
-7.29407e-12
1.60173e-08
-2.84226e-11
1.60386e-08
-4.09675e-11
1.60655e-08
-4.68752e-11
1.60942e-08
-4.76482e-11
1.61223e-08
-4.50987e-11
1.61484e-08
-4.0795e-11
1.61716e-08
-3.58338e-11
1.61917e-08
-3.08657e-11
1.6209e-08
-2.62334e-11
1.62235e-08
-2.20888e-11
1.62356e-08
-1.8476e-11
1.62456e-08
-1.53912e-11
1.62539e-08
-1.2811e-11
1.62607e-08
-1.06974e-11
1.62664e-08
-8.99656e-12
1.62712e-08
-7.64998e-12
1.62752e-08
-6.59353e-12
1.62787e-08
-5.76696e-12
1.62818e-08
-5.1149e-12
1.62846e-08
-4.5907e-12
1.62871e-08
-4.15924e-12
1.62893e-08
-3.79588e-12
1.62914e-08
-3.4829e-12
1.62933e-08
-3.20709e-12
1.6295e-08
-2.95833e-12
1.62966e-08
-2.73331e-12
1.62981e-08
-2.52799e-12
1.62995e-08
-2.33907e-12
1.63007e-08
-2.16489e-12
1.63019e-08
-2.00399e-12
1.6303e-08
-1.85519e-12
1.6304e-08
-1.71692e-12
1.63049e-08
-1.58881e-12
1.63058e-08
-1.47008e-12
1.63066e-08
-1.35961e-12
1.63073e-08
-1.25707e-12
1.6308e-08
-1.16176e-12
1.63087e-08
-1.07322e-12
1.63092e-08
-9.90814e-13
1.63098e-08
-9.14339e-13
1.63103e-08
-8.4308e-13
1.63107e-08
-7.77194e-13
1.63112e-08
-7.15485e-13
1.63116e-08
-6.58784e-13
1.63119e-08
-6.05316e-13
1.63122e-08
-5.56621e-13
1.63126e-08
-5.10273e-13
1.63128e-08
-4.68557e-13
1.63131e-08
-4.28415e-13
1.63133e-08
-3.92607e-13
1.63135e-08
-3.57902e-13
1.63137e-08
-3.27057e-13
1.63139e-08
-2.97135e-13
1.63141e-08
-2.70449e-13
1.63142e-08
-2.44649e-13
1.63143e-08
-2.21431e-13
1.63145e-08
-1.99134e-13
1.63146e-08
-1.78735e-13
1.63147e-08
-1.59469e-13
1.63148e-08
-1.41234e-13
1.63148e-08
-1.24628e-13
1.63149e-08
-1.0782e-13
1.63149e-08
-9.37349e-14
1.6315e-08
-7.75765e-14
1.6315e-08
-6.58697e-14
1.63151e-08
-4.99299e-14
1.63151e-08
-4.10738e-14
1.63151e-08
-1.98647e-14
1.63151e-08
-2.19572e-14
-8.84219e-15
3.574e-08
2.30037e-09
-3.55966e-08
3.61326e-08
3.21867e-09
3.63583e-08
3.87277e-09
3.63999e-08
4.07256e-09
3.6333e-08
4.05213e-09
3.616e-08
3.93714e-09
3.58451e-08
3.75016e-09
3.53824e-08
3.47749e-09
3.48026e-08
3.1262e-09
3.41573e-08
2.7487e-09
3.34878e-08
2.40464e-09
3.28141e-08
2.12075e-09
3.21456e-08
1.89293e-09
3.14896e-08
1.70499e-09
3.08557e-08
1.54384e-09
3.02517e-08
1.40153e-09
2.96812e-08
1.27427e-09
2.91451e-08
1.15857e-09
2.8644e-08
1.05011e-09
2.81801e-08
9.45554e-10
2.77551e-08
8.43441e-10
2.73702e-08
7.43504e-10
2.70259e-08
6.45645e-10
2.67229e-08
5.50032e-10
2.64609e-08
4.57393e-10
2.62393e-08
3.68318e-10
2.6057e-08
2.83394e-10
2.59119e-08
2.03884e-10
2.58011e-08
1.32387e-10
2.57215e-08
7.22943e-11
2.56685e-08
2.4547e-11
2.56368e-08
-9.27645e-12
2.56218e-08
-3.18701e-11
2.5619e-08
-4.48296e-11
2.56247e-08
-5.073e-11
2.56358e-08
-5.18885e-11
2.565e-08
-5.00788e-11
2.56656e-08
-4.65018e-11
2.56813e-08
-4.19395e-11
2.56962e-08
-3.69155e-11
2.57095e-08
-3.18018e-11
2.5721e-08
-2.68866e-11
2.57306e-08
-2.23943e-11
2.57383e-08
-1.847e-11
2.57445e-08
-1.51754e-11
2.57494e-08
-1.25054e-11
2.57532e-08
-1.03993e-11
2.57562e-08
-8.77008e-12
2.57586e-08
-7.52013e-12
2.57606e-08
-6.55636e-12
2.57622e-08
-5.80136e-12
2.57636e-08
-5.19886e-12
2.57648e-08
-4.70585e-12
2.57659e-08
-4.29062e-12
2.57669e-08
-3.92896e-12
2.57678e-08
-3.61188e-12
2.57686e-08
-3.32877e-12
2.57693e-08
-3.07259e-12
2.577e-08
-2.8395e-12
2.57706e-08
-2.62641e-12
2.57712e-08
-2.43095e-12
2.57717e-08
-2.25024e-12
2.57722e-08
-2.08365e-12
2.57727e-08
-1.92985e-12
2.57731e-08
-1.78697e-12
2.57735e-08
-1.65462e-12
2.57738e-08
-1.53169e-12
2.57742e-08
-1.41752e-12
2.57745e-08
-1.3112e-12
2.57748e-08
-1.21245e-12
2.57751e-08
-1.12028e-12
2.57753e-08
-1.03503e-12
2.57756e-08
-9.54836e-13
2.57758e-08
-8.81241e-13
2.5776e-08
-8.11315e-13
2.57762e-08
-7.47921e-13
2.57764e-08
-6.86758e-13
2.57765e-08
-6.32352e-13
2.57767e-08
-5.7876e-13
2.57768e-08
-5.32016e-13
2.5777e-08
-4.85047e-13
2.57771e-08
-4.44745e-13
2.57772e-08
-4.03619e-13
2.57773e-08
-3.68699e-13
2.57774e-08
-3.32635e-13
2.57775e-08
-3.02137e-13
2.57775e-08
-2.70475e-13
2.57776e-08
-2.43386e-13
2.57776e-08
-2.1571e-13
2.57777e-08
-1.90999e-13
2.57777e-08
-1.66936e-13
2.57778e-08
-1.43535e-13
2.57778e-08
-1.22991e-13
2.57778e-08
-9.96733e-14
2.57778e-08
-8.27097e-14
2.57778e-08
-5.86145e-14
2.57779e-08
-4.58873e-14
2.57778e-08
-1.53386e-14
2.57778e-08
-1.45968e-14
9.61491e-15
3.72535e-08
2.24209e-09
-3.71952e-08
3.75591e-08
2.91308e-09
3.79129e-08
3.51901e-09
3.81788e-08
3.80663e-09
3.83824e-08
3.84849e-09
3.85489e-08
3.7707e-09
3.86578e-08
3.64121e-09
3.86741e-08
3.46115e-09
3.85838e-08
3.21652e-09
3.84078e-08
2.92472e-09
3.81801e-08
2.63235e-09
3.79226e-08
2.3782e-09
3.76413e-08
2.17432e-09
3.73371e-08
2.00912e-09
3.7017e-08
1.86399e-09
3.66909e-08
1.72763e-09
3.6366e-08
1.59916e-09
3.60444e-08
1.48019e-09
3.57264e-08
1.36804e-09
3.54146e-08
1.25743e-09
3.51126e-08
1.14544e-09
3.48238e-08
1.03229e-09
3.45507e-08
9.18742e-10
3.42954e-08
8.05256e-10
3.40601e-08
6.92696e-10
3.38462e-08
5.82228e-10
3.36546e-08
4.75021e-10
3.34856e-08
3.72893e-10
3.33392e-08
2.78749e-10
3.32154e-08
1.96135e-10
3.31128e-08
1.27124e-10
3.30306e-08
7.29927e-11
3.29662e-08
3.24336e-11
3.29175e-08
3.86956e-12
3.2882e-08
-1.51985e-11
3.28575e-08
-2.7367e-11
3.28421e-08
-3.46782e-11
3.28341e-08
-3.85032e-11
3.28318e-08
-3.96802e-11
3.28337e-08
-3.87601e-11
3.28381e-08
-3.62029e-11
3.28437e-08
-3.24955e-11
3.28495e-08
-2.81579e-11
3.28547e-08
-2.36757e-11
3.28589e-08
-1.94372e-11
3.28621e-08
-1.56976e-11
3.28643e-08
-1.25767e-11
3.28656e-08
-1.00861e-11
3.28663e-08
-8.16225e-12
3.28664e-08
-6.70945e-12
3.28662e-08
-5.61788e-12
3.28658e-08
-4.80072e-12
3.28653e-08
-4.18194e-12
3.28647e-08
-3.70283e-12
3.28641e-08
-3.31547e-12
3.28635e-08
-3.00065e-12
3.28629e-08
-2.73548e-12
3.28623e-08
-2.50645e-12
3.28618e-08
-2.30596e-12
3.28613e-08
-2.12807e-12
3.28608e-08
-1.96884e-12
3.28604e-08
-1.8238e-12
3.286e-08
-1.69211e-12
3.28597e-08
-1.57168e-12
3.28593e-08
-1.46059e-12
3.2859e-08
-1.35808e-12
3.28588e-08
-1.26304e-12
3.28585e-08
-1.17487e-12
3.28583e-08
-1.09252e-12
3.28581e-08
-1.01593e-12
3.28579e-08
-9.43907e-13
3.28578e-08
-8.7737e-13
3.28576e-08
-8.13731e-13
3.28575e-08
-7.55881e-13
3.28574e-08
-6.99145e-13
3.28573e-08
-6.49007e-13
3.28572e-08
-5.97984e-13
3.28571e-08
-5.54777e-13
3.28571e-08
-5.08642e-13
3.2857e-08
-4.71297e-13
3.28569e-08
-4.29569e-13
3.28569e-08
-3.97019e-13
3.28569e-08
-3.59338e-13
3.28568e-08
-3.30668e-13
3.28568e-08
-2.9659e-13
3.28567e-08
-2.70938e-13
3.28567e-08
-2.40175e-13
3.28567e-08
-2.16456e-13
3.28567e-08
-1.88971e-13
3.28566e-08
-1.66135e-13
3.28566e-08
-1.4173e-13
3.28566e-08
-1.18771e-13
3.28566e-08
-9.75161e-14
3.28565e-08
-7.30446e-14
3.28565e-08
-5.53329e-14
3.28565e-08
-2.84472e-14
3.28564e-08
-1.47705e-14
3.28564e-08
1.48224e-14
3.28564e-08
2.37384e-14
5.97042e-14
3.88321e-08
2.19044e-09
-3.87804e-08
3.90445e-08
2.70066e-09
3.93643e-08
3.19917e-09
3.96589e-08
3.51208e-09
3.98993e-08
3.60811e-09
4.01105e-08
3.55946e-09
4.03019e-08
3.44983e-09
4.04518e-08
3.31125e-09
4.05354e-08
3.13294e-09
4.0552e-08
2.90812e-09
4.05232e-08
2.66113e-09
4.04694e-08
2.43196e-09
4.03973e-08
2.24648e-09
4.03054e-08
2.10101e-09
4.0195e-08
1.97434e-09
4.00726e-08
1.85011e-09
3.99443e-08
1.72744e-09
3.9812e-08
1.61248e-09
3.96745e-08
1.50557e-09
3.95314e-08
1.40045e-09
3.93849e-08
1.29199e-09
3.92372e-08
1.17997e-09
3.909e-08
1.06597e-09
3.89444e-08
9.50784e-10
3.8802e-08
8.35107e-10
3.86641e-08
7.20114e-10
3.8532e-08
6.07149e-10
3.84066e-08
4.98292e-10
3.82888e-08
3.96598e-10
3.81797e-08
3.05238e-10
3.80806e-08
2.26217e-10
3.79927e-08
1.60819e-10
3.79164e-08
1.08772e-10
3.78512e-08
6.90787e-11
3.77963e-08
3.97073e-11
3.77508e-08
1.81672e-11
3.77138e-08
2.2747e-12
3.76848e-08
-9.45787e-12
3.76629e-08
-1.78442e-11
3.76474e-08
-2.32569e-11
3.76371e-08
-2.59293e-11
3.76308e-08
-2.61953e-11
3.76273e-08
-2.45658e-11
3.76253e-08
-2.1671e-11
3.7624e-08
-1.81442e-11
3.76228e-08
-1.45256e-11
3.76214e-08
-1.11914e-11
3.76197e-08
-8.35588e-12
3.76176e-08
-6.08897e-12
3.76152e-08
-4.3614e-12
3.76127e-08
-3.09619e-12
3.76101e-08
-2.19633e-12
3.76075e-08
-1.57579e-12
3.7605e-08
-1.15496e-12
3.76025e-08
-8.64565e-13
3.76002e-08
-6.72181e-13
3.7598e-08
-5.42918e-13
3.75959e-08
-4.54677e-13
3.7594e-08
-3.95359e-13
3.75923e-08
-3.55343e-13
3.75906e-08
-3.28462e-13
3.75891e-08
-3.09825e-13
3.75877e-08
-2.97289e-13
3.75864e-08
-2.88755e-13
3.75853e-08
-2.82544e-13
3.75842e-08
-2.77815e-13
3.75832e-08
-2.73639e-13
3.75823e-08
-2.69883e-13
3.75814e-08
-2.65534e-13
3.75807e-08
-2.61341e-13
3.758e-08
-2.55626e-13
3.75794e-08
-2.50805e-13
3.75788e-08
-2.43035e-13
3.75783e-08
-2.37735e-13
3.75778e-08
-2.27461e-13
3.75774e-08
-2.22082e-13
3.7577e-08
-2.09248e-13
3.75767e-08
-2.04067e-13
3.75763e-08
-1.89055e-13
3.7576e-08
-1.83784e-13
3.75758e-08
-1.67321e-13
3.75755e-08
-1.6154e-13
3.75753e-08
-1.44239e-13
3.75751e-08
-1.3775e-13
3.7575e-08
-1.19898e-13
3.75748e-08
-1.1243e-13
3.75747e-08
-9.44972e-14
3.75745e-08
-8.53186e-14
3.75744e-08
-6.79031e-14
3.75743e-08
-5.64268e-14
3.75742e-08
-3.96774e-14
3.75741e-08
-2.53604e-14
3.7574e-08
-9.69247e-15
3.75739e-08
8.65997e-15
3.75739e-08
2.24677e-14
3.75738e-08
4.5389e-14
3.75737e-08
5.71594e-14
3.75736e-08
7.90333e-14
3.75736e-08
9.54744e-14
1.37471e-13
4.0448e-08
2.13077e-09
-4.03884e-08
4.06093e-08
2.5394e-09
4.08723e-08
2.9362e-09
4.11505e-08
3.23389e-09
4.1391e-08
3.36759e-09
4.15949e-08
3.35555e-09
4.17792e-08
3.2655e-09
4.19414e-08
3.14903e-09
4.2065e-08
3.00933e-09
4.21414e-08
2.83179e-09
4.21786e-08
2.62386e-09
4.21924e-08
2.4182e-09
4.2193e-08
2.24583e-09
4.21828e-08
2.11122e-09
4.21616e-08
1.99556e-09
4.21316e-08
1.88016e-09
4.20963e-08
1.76269e-09
4.20577e-08
1.65113e-09
4.20149e-08
1.54839e-09
4.19668e-08
1.44854e-09
4.19135e-08
1.34525e-09
4.18559e-08
1.23762e-09
4.17943e-08
1.12755e-09
4.17289e-08
1.01615e-09
4.16601e-08
9.03975e-10
4.15883e-08
7.91906e-10
4.15142e-08
6.81205e-10
4.14385e-08
5.73957e-10
4.1362e-08
4.73088e-10
4.1286e-08
3.81287e-10
4.1212e-08
3.00195e-10
4.1142e-08
2.30879e-10
4.10771e-08
1.7359e-10
4.10183e-08
1.27912e-10
4.09656e-08
9.24369e-11
4.09187e-08
6.50326e-11
4.08774e-08
4.35513e-11
4.08416e-08
2.63927e-11
4.08111e-08
1.26741e-11
4.07857e-08
2.06808e-12
4.07653e-08
-5.45876e-12
4.07491e-08
-1.00233e-11
4.07365e-08
-1.19397e-11
4.07266e-08
-1.17558e-11
4.07186e-08
-1.01549e-11
4.07118e-08
-7.79404e-12
4.07059e-08
-5.227e-12
4.07004e-08
-2.83454e-12
4.06951e-08
-8.27201e-13
4.069e-08
7.19864e-13
4.06851e-08
1.82154e-12
4.06804e-08
2.54316e-12
4.06758e-08
2.96217e-12
4.06715e-08
3.15918e-12
4.06674e-08
3.20568e-12
4.06636e-08
3.14813e-12
4.066e-08
3.02568e-12
4.06567e-08
2.86576e-12
4.06536e-08
2.68525e-12
4.06508e-08
2.49608e-12
4.06482e-08
2.30586e-12
4.06457e-08
2.11962e-12
4.06435e-08
1.94032e-12
4.06414e-08
1.76961e-12
4.06395e-08
1.60868e-12
4.06378e-08
1.458e-12
4.06362e-08
1.31806e-12
4.06348e-08
1.18812e-12
4.06334e-08
1.069e-12
4.06322e-08
9.58664e-13
4.06311e-08
8.59353e-13
4.06301e-08
7.66443e-13
4.06291e-08
6.85515e-13
4.06283e-08
6.07502e-13
4.06275e-08
5.43548e-13
4.06268e-08
4.77935e-13
4.06262e-08
4.29134e-13
4.06256e-08
3.7405e-13
4.06251e-08
3.38083e-13
4.06246e-08
2.92592e-13
4.06242e-08
2.6692e-13
4.06238e-08
2.30317e-13
4.06234e-08
2.12963e-13
4.06231e-08
1.84185e-13
4.06228e-08
1.73855e-13
4.06225e-08
1.52111e-13
4.06223e-08
1.473e-13
4.06221e-08
1.32608e-13
4.06219e-08
1.31833e-13
4.06217e-08
1.23934e-13
4.06215e-08
1.26595e-13
4.06214e-08
1.25206e-13
4.06212e-08
1.30381e-13
4.06211e-08
1.36265e-13
4.0621e-08
1.42629e-13
4.06209e-08
1.55816e-13
4.06208e-08
1.63117e-13
4.06207e-08
1.75688e-13
4.06206e-08
1.94057e-13
2.33154e-13
4.21005e-08
2.0649e-09
-4.20346e-08
4.22358e-08
2.4041e-09
4.24486e-08
2.72345e-09
4.26957e-08
2.98672e-09
4.29264e-08
3.13691e-09
4.31223e-08
3.15966e-09
4.32922e-08
3.09563e-09
4.34429e-08
2.99828e-09
4.3569e-08
2.88324e-09
4.36621e-08
2.73865e-09
4.37214e-08
2.56457e-09
4.37552e-08
2.3844e-09
4.37753e-08
2.22578e-09
4.37888e-08
2.09774e-09
4.37969e-08
1.98743e-09
4.37992e-08
1.87785e-09
4.37967e-08
1.76522e-09
4.37909e-08
1.65693e-09
4.37824e-08
1.55681e-09
4.37711e-08
1.4599e-09
4.37562e-08
1.36014e-09
4.37373e-08
1.25649e-09
4.37142e-08
1.15069e-09
4.36865e-08
1.0438e-09
4.36542e-08
9.36288e-10
4.36172e-08
8.28929e-10
4.35756e-08
7.2283e-10
4.35297e-08
6.19838e-10
4.34802e-08
5.22596e-10
4.3428e-08
4.33446e-10
4.33745e-08
3.53678e-10
4.33214e-08
2.84049e-10
4.327e-08
2.24981e-10
4.32215e-08
1.76447e-10
4.31763e-08
1.37553e-10
4.31348e-08
1.066e-10
4.30967e-08
8.16458e-11
4.3062e-08
6.10982e-11
4.30306e-08
4.3998e-11
4.30027e-08
2.99707e-11
4.29783e-08
1.89993e-11
4.29572e-08
1.10871e-11
4.29392e-08
6.07099e-12
4.29239e-08
3.53416e-12
4.29108e-08
2.87228e-12
4.28996e-08
3.43376e-12
4.28898e-08
4.61997e-12
4.2881e-08
5.97079e-12
4.2873e-08
7.18683e-12
4.28656e-08
8.11179e-12
4.28587e-08
8.69786e-12
4.28523e-08
8.96684e-12
4.28463e-08
8.97143e-12
4.28406e-08
8.77623e-12
4.28354e-08
8.44479e-12
4.28305e-08
8.02538e-12
4.2826e-08
7.55604e-12
4.28218e-08
7.06504e-12
4.28179e-08
6.57082e-12
4.28143e-08
6.08586e-12
4.2811e-08
5.61786e-12
4.2808e-08
5.17149e-12
4.28051e-08
4.74953e-12
4.28026e-08
4.35289e-12
4.28002e-08
3.98195e-12
4.2798e-08
3.63631e-12
4.2796e-08
3.31582e-12
4.27942e-08
3.01857e-12
4.27925e-08
2.74506e-12
4.2791e-08
2.49161e-12
4.27896e-08
2.26104e-12
4.27883e-08
2.04605e-12
4.27871e-08
1.85424e-12
4.27861e-08
1.67218e-12
4.27851e-08
1.51524e-12
4.27842e-08
1.36104e-12
4.27834e-08
1.23475e-12
4.27827e-08
1.10456e-12
4.2782e-08
1.00415e-12
4.27814e-08
8.95477e-13
4.27808e-08
8.16243e-13
4.27803e-08
7.26876e-13
4.27799e-08
6.65238e-13
4.27795e-08
5.92464e-13
4.27791e-08
5.45954e-13
4.27788e-08
4.87592e-13
4.27785e-08
4.53478e-13
4.27782e-08
4.08586e-13
4.27779e-08
3.84338e-13
4.27777e-08
3.51574e-13
4.27775e-08
3.36015e-13
4.27773e-08
3.14095e-13
4.27771e-08
3.05622e-13
4.2777e-08
2.94762e-13
4.27768e-08
2.91445e-13
4.27767e-08
2.91044e-13
4.27766e-08
2.92275e-13
4.27765e-08
2.95099e-13
4.27763e-08
3.10368e-13
3.40099e-13
4.3795e-08
1.99681e-09
-4.37269e-08
4.39152e-08
2.28389e-09
4.40905e-08
2.54818e-09
4.4304e-08
2.7732e-09
4.45175e-08
2.92339e-09
4.47054e-08
2.97181e-09
4.48657e-08
2.93534e-09
4.50056e-08
2.85838e-09
4.51261e-08
2.76274e-09
4.52227e-08
2.64201e-09
4.52914e-08
2.49586e-09
4.53343e-08
2.34151e-09
4.53612e-08
2.19888e-09
4.5382e-08
2.07699e-09
4.53995e-08
1.96991e-09
4.54124e-08
1.86498e-09
4.54201e-08
1.75752e-09
4.54239e-08
1.6531e-09
4.54253e-08
1.55544e-09
4.54247e-08
1.46041e-09
4.54219e-08
1.36299e-09
4.54157e-08
1.26272e-09
4.54053e-08
1.16103e-09
4.53907e-08
1.05841e-09
4.53717e-08
9.55242e-10
4.53482e-08
8.52476e-10
4.53198e-08
7.51182e-10
4.52868e-08
6.5284e-10
4.52498e-08
5.59689e-10
4.52094e-08
4.73796e-10
4.51669e-08
3.96229e-10
4.51234e-08
3.2753e-10
4.50802e-08
2.68144e-10
4.50384e-08
2.1824e-10
4.49987e-08
1.77262e-10
4.49614e-08
1.43877e-10
4.49266e-08
1.16428e-10
4.48943e-08
9.34528e-11
4.48643e-08
7.39945e-11
4.48366e-08
5.76209e-11
4.48114e-08
4.42492e-11
4.47886e-08
3.38879e-11
4.47682e-08
2.64283e-11
4.47502e-08
2.15454e-11
4.47344e-08
1.87289e-11
4.47204e-08
1.73889e-11
4.47081e-08
1.69563e-11
4.46971e-08
1.69615e-11
4.46872e-08
1.7071e-11
4.46782e-08
1.70835e-11
4.467e-08
1.69053e-11
4.46625e-08
1.65185e-11
4.46555e-08
1.59463e-11
4.4649e-08
1.52311e-11
4.46431e-08
1.44217e-11
4.46375e-08
1.35592e-11
4.46324e-08
1.26765e-11
4.46277e-08
1.17984e-11
4.46233e-08
1.09422e-11
4.46193e-08
1.01189e-11
4.46156e-08
9.3351e-12
4.46121e-08
8.59449e-12
4.4609e-08
7.89877e-12
4.46061e-08
7.24781e-12
4.46034e-08
6.64095e-12
4.4601e-08
6.07653e-12
4.45988e-08
5.55364e-12
4.45967e-08
5.06896e-12
4.45948e-08
4.62261e-12
4.45931e-08
4.20903e-12
4.45915e-08
3.83158e-12
4.45901e-08
3.48006e-12
4.45888e-08
3.16419e-12
4.45876e-08
2.86584e-12
4.45865e-08
2.60477e-12
4.45855e-08
2.35165e-12
4.45846e-08
2.13842e-12
4.45838e-08
1.92445e-12
4.4583e-08
1.75161e-12
4.45824e-08
1.57249e-12
4.45818e-08
1.43294e-12
4.45812e-08
1.28473e-12
4.45807e-08
1.17316e-12
4.45802e-08
1.05124e-12
4.45798e-08
9.63919e-13
4.45794e-08
8.64537e-13
4.45791e-08
7.97388e-13
4.45788e-08
7.1849e-13
4.45785e-08
6.67819e-13
4.45782e-08
6.06881e-13
4.4578e-08
5.70816e-13
4.45778e-08
5.25492e-13
4.45776e-08
5.01625e-13
4.45774e-08
4.71533e-13
4.45773e-08
4.57282e-13
4.45771e-08
4.41139e-13
4.4577e-08
4.35446e-13
4.45768e-08
4.27657e-13
4.45767e-08
4.3749e-13
4.55036e-13
4.55369e-08
1.92942e-09
-4.54695e-08
4.56457e-08
2.17508e-09
4.5795e-08
2.39887e-09
4.59783e-08
2.58986e-09
4.61712e-08
2.73048e-09
4.63483e-08
2.79477e-09
4.65011e-08
2.78255e-09
4.66336e-08
2.72586e-09
4.67482e-08
2.64811e-09
4.68434e-08
2.54679e-09
4.69162e-08
2.42311e-09
4.69656e-08
2.29212e-09
4.69979e-08
2.16653e-09
4.70229e-08
2.05198e-09
4.70447e-08
1.94815e-09
4.70618e-08
1.84791e-09
4.70733e-08
1.74597e-09
4.70806e-08
1.64582e-09
4.70851e-08
1.55097e-09
4.70875e-08
1.45797e-09
4.70878e-08
1.36271e-09
4.70849e-08
1.26556e-09
4.70781e-08
1.16788e-09
4.70671e-08
1.0694e-09
4.70522e-08
9.70205e-10
4.7033e-08
8.71642e-10
4.70092e-08
7.74922e-10
4.6981e-08
6.81086e-10
4.69488e-08
5.91856e-10
4.69136e-08
5.09078e-10
4.6876e-08
4.33765e-10
4.68372e-08
3.66348e-10
4.67981e-08
3.07215e-10
4.67598e-08
2.56613e-10
4.67228e-08
2.14193e-10
4.66878e-08
1.78909e-10
4.66548e-08
1.49385e-10
4.66239e-08
1.24355e-10
4.6595e-08
1.02936e-10
4.65679e-08
8.46698e-11
4.65428e-08
6.94047e-11
4.65196e-08
5.7097e-11
4.64984e-08
4.76308e-11
4.64792e-08
4.0725e-11
4.6462e-08
3.59409e-11
4.64466e-08
3.27595e-11
4.64329e-08
3.06658e-11
4.64206e-08
2.92162e-11
4.64096e-08
2.80764e-11
4.63997e-08
2.70263e-11
4.63907e-08
2.59433e-11
4.63824e-08
2.47781e-11
4.63748e-08
2.35264e-11
4.63678e-08
2.22084e-11
4.63614e-08
2.08548e-11
4.63555e-08
1.94956e-11
4.635e-08
1.81557e-11
4.63449e-08
1.68545e-11
4.63403e-08
1.56054e-11
4.6336e-08
1.44171e-11
4.6332e-08
1.3294e-11
4.63284e-08
1.22383e-11
4.6325e-08
1.12499e-11
4.63219e-08
1.03275e-11
4.63191e-08
9.46906e-12
4.63165e-08
8.6716e-12
4.63141e-08
7.93322e-12
4.6312e-08
7.2491e-12
4.631e-08
6.61889e-12
4.63081e-08
6.03506e-12
4.63065e-08
5.50143e-12
4.63049e-08
5.00483e-12
4.63036e-08
4.55704e-12
4.63023e-08
4.13518e-12
4.63011e-08
3.76334e-12
4.63001e-08
3.40525e-12
4.62991e-08
3.09946e-12
4.62982e-08
2.79663e-12
4.62974e-08
2.54661e-12
4.62967e-08
2.29281e-12
4.62961e-08
2.08896e-12
4.62955e-08
1.87832e-12
4.62949e-08
1.71355e-12
4.62944e-08
1.53943e-12
4.6294e-08
1.40865e-12
4.62936e-08
1.2656e-12
4.62932e-08
1.16334e-12
4.62929e-08
1.04813e-12
4.62926e-08
9.69428e-13
4.62923e-08
8.7833e-13
4.62921e-08
8.20503e-13
4.62919e-08
7.50103e-13
4.62916e-08
7.09866e-13
4.62915e-08
6.59152e-13
4.62913e-08
6.3324e-13
4.62911e-08
6.00225e-13
4.6291e-08
5.87135e-13
4.62908e-08
5.67623e-13
4.62907e-08
5.71584e-13
5.76316e-13
4.73309e-08
1.86398e-09
-4.72654e-08
4.74303e-08
2.07564e-09
4.7561e-08
2.26818e-09
4.77192e-08
2.43166e-09
4.78912e-08
2.55852e-09
4.80553e-08
2.63066e-09
4.82002e-08
2.63762e-09
4.8327e-08
2.59903e-09
4.8437e-08
2.53813e-09
4.85291e-08
2.45471e-09
4.86026e-08
2.34961e-09
4.86568e-08
2.23793e-09
4.86945e-08
2.12883e-09
4.87233e-08
2.02323e-09
4.87479e-08
1.92349e-09
4.87676e-08
1.82823e-09
4.87813e-08
1.73222e-09
4.87907e-08
1.63642e-09
4.87972e-08
1.54455e-09
4.88009e-08
1.45423e-09
4.8802e-08
1.36157e-09
4.88002e-08
1.26744e-09
4.87944e-08
1.17361e-09
4.87846e-08
1.07925e-09
4.87709e-08
9.83924e-10
4.87532e-08
8.89263e-10
4.87313e-08
7.96831e-10
4.87051e-08
7.07294e-10
4.86752e-08
6.21775e-10
4.86424e-08
5.41908e-10
4.86074e-08
4.68755e-10
4.8571e-08
4.02706e-10
4.85342e-08
3.44065e-10
4.84977e-08
2.93099e-10
4.84623e-08
2.49603e-10
4.84284e-08
2.12752e-10
4.83964e-08
1.81417e-10
4.83662e-08
1.54533e-10
4.83378e-08
1.31326e-10
4.83112e-08
1.11349e-10
4.82862e-08
9.4401e-11
4.82629e-08
8.03767e-11
4.82414e-08
6.91312e-11
4.82217e-08
6.03998e-11
4.82038e-08
5.3794e-11
4.81877e-08
4.88566e-11
4.81733e-08
4.51289e-11
4.81603e-08
4.2205e-11
4.81486e-08
3.97653e-11
4.81381e-08
3.75852e-11
4.81285e-08
3.55251e-11
4.81197e-08
3.35124e-11
4.81117e-08
3.15194e-11
4.81044e-08
2.95453e-11
4.80977e-08
2.76034e-11
4.80914e-08
2.57108e-11
4.80857e-08
2.38833e-11
4.80804e-08
2.21334e-11
4.80756e-08
2.04699e-11
4.80711e-08
1.88978e-11
4.8067e-08
1.74191e-11
4.80632e-08
1.60335e-11
4.80597e-08
1.47393e-11
4.80565e-08
1.35336e-11
4.80535e-08
1.24128e-11
4.80508e-08
1.13725e-11
4.80484e-08
1.04096e-11
4.80461e-08
9.51776e-12
4.8044e-08
8.6961e-12
4.80421e-08
7.93506e-12
4.80404e-08
7.23885e-12
4.80388e-08
6.59132e-12
4.80373e-08
6.00619e-12
4.8036e-08
5.45592e-12
4.80348e-08
4.96872e-12
4.80337e-08
4.50155e-12
4.80327e-08
4.09933e-12
4.80318e-08
3.7042e-12
4.8031e-08
3.37377e-12
4.80302e-08
3.04236e-12
4.80295e-08
2.77155e-12
4.80289e-08
2.496e-12
4.80284e-08
2.27586e-12
4.80279e-08
2.04741e-12
4.80274e-08
1.87146e-12
4.8027e-08
1.6829e-12
4.80266e-08
1.54419e-12
4.80263e-08
1.39107e-12
4.80259e-08
1.2833e-12
4.80257e-08
1.16069e-12
4.80254e-08
1.08027e-12
4.80252e-08
9.83704e-13
4.80249e-08
9.26437e-13
4.80248e-08
8.54233e-13
4.80246e-08
8.16152e-13
4.80244e-08
7.65598e-13
4.80242e-08
7.44793e-13
4.80241e-08
7.12522e-13
4.8024e-08
7.10916e-13
7.02991e-13
4.91813e-08
1.80091e-09
-4.91182e-08
4.92726e-08
1.98433e-09
4.93889e-08
2.15187e-09
4.95268e-08
2.29376e-09
4.96794e-08
2.40594e-09
4.983e-08
2.48007e-09
4.9966e-08
2.50161e-09
5.00869e-08
2.47813e-09
5.01931e-08
2.43195e-09
5.02821e-08
2.36571e-09
5.03545e-08
2.27715e-09
5.04117e-08
2.18074e-09
5.04541e-08
2.08642e-09
5.04862e-08
1.99114e-09
5.05131e-08
1.89656e-09
5.0535e-08
1.80634e-09
5.05507e-08
1.71656e-09
5.05618e-08
1.62533e-09
5.05699e-08
1.53642e-09
5.05748e-08
1.4493e-09
5.05764e-08
1.35997e-09
5.0575e-08
1.26887e-09
5.057e-08
1.17856e-09
5.0561e-08
1.08834e-09
5.05479e-08
9.96998e-10
5.05311e-08
9.06076e-10
5.05103e-08
8.17613e-10
5.04854e-08
7.32147e-10
5.0457e-08
6.50167e-10
5.04259e-08
5.73031e-10
5.03928e-08
5.01916e-10
5.03582e-08
4.37259e-10
5.0323e-08
3.7927e-10
5.02879e-08
3.28177e-10
5.02536e-08
2.83879e-10
5.02207e-08
2.45736e-10
5.01893e-08
2.12823e-10
5.01595e-08
1.8426e-10
5.01315e-08
1.59392e-10
5.0105e-08
1.37807e-10
5.00801e-08
1.19277e-10
5.00569e-08
1.03649e-10
5.00352e-08
9.07466e-11
5.00153e-08
8.03103e-11
4.99971e-08
7.19876e-11
4.99806e-08
6.53722e-11
4.99657e-08
6.00566e-11
4.99522e-08
5.56735e-11
4.99401e-08
5.1924e-11
4.99291e-08
4.85866e-11
4.99191e-08
4.55123e-11
4.991e-08
4.26113e-11
4.99017e-08
3.9837e-11
4.9894e-08
3.71701e-11
4.9887e-08
3.46074e-11
4.98806e-08
3.21535e-11
4.98747e-08
2.98143e-11
4.98692e-08
2.75952e-11
4.98642e-08
2.54995e-11
4.98595e-08
2.35282e-11
4.98553e-08
2.16802e-11
4.98514e-08
1.99528e-11
4.98478e-08
1.83421e-11
4.98444e-08
1.68432e-11
4.98414e-08
1.54512e-11
4.98386e-08
1.41598e-11
4.98361e-08
1.2965e-11
4.98337e-08
1.18587e-11
4.98316e-08
1.08393e-11
4.98296e-08
9.8954e-12
4.98278e-08
9.03134e-12
4.98262e-08
8.2281e-12
4.98247e-08
7.50118e-12
4.98233e-08
6.81848e-12
4.98221e-08
6.21217e-12
4.9821e-08
5.63255e-12
4.98199e-08
5.13076e-12
4.9819e-08
4.64049e-12
4.98181e-08
4.22703e-12
4.98174e-08
3.81562e-12
4.98167e-08
3.47571e-12
4.9816e-08
3.13319e-12
4.98154e-08
2.85595e-12
4.98149e-08
2.5714e-12
4.98144e-08
2.34892e-12
4.9814e-08
2.11332e-12
4.98136e-08
1.93711e-12
4.98133e-08
1.74477e-12
4.98129e-08
1.60709e-12
4.98127e-08
1.45191e-12
4.98124e-08
1.34821e-12
4.98121e-08
1.22464e-12
4.98119e-08
1.14979e-12
4.98117e-08
1.05543e-12
4.98115e-08
1.00476e-12
4.98114e-08
9.36161e-13
4.98112e-08
9.07383e-13
4.9811e-08
8.61497e-13
4.98109e-08
8.54752e-13
8.34434e-13
5.10918e-08
1.74047e-09
-5.10314e-08
5.11759e-08
1.90027e-09
5.12807e-08
2.04706e-09
5.14023e-08
2.17214e-09
5.15374e-08
2.2709e-09
5.16746e-08
2.34287e-09
5.18013e-08
2.37487e-09
5.19155e-08
2.364e-09
5.20176e-08
2.32979e-09
5.21042e-08
2.27917e-09
5.2175e-08
2.20632e-09
5.22333e-08
2.1224e-09
5.22793e-08
2.04043e-09
5.23143e-08
1.95615e-09
5.2343e-08
1.86784e-09
5.2367e-08
1.78243e-09
5.23846e-08
1.69894e-09
5.23971e-08
1.61283e-09
5.24066e-08
1.52691e-09
5.24128e-08
1.44312e-09
5.2415e-08
1.35772e-09
5.2414e-08
1.26991e-09
5.24097e-08
1.18284e-09
5.24014e-08
1.09669e-09
5.23889e-08
1.00951e-09
5.23727e-08
9.22219e-10
5.2353e-08
8.37331e-10
5.23295e-08
7.55634e-10
5.23026e-08
6.77075e-10
5.2273e-08
6.0259e-10
5.22415e-08
5.33454e-10
5.22085e-08
4.70222e-10
5.21748e-08
4.13011e-10
5.2141e-08
3.61973e-10
5.21078e-08
3.17084e-10
5.20757e-08
2.77878e-10
5.20449e-08
2.43606e-10
5.20156e-08
2.13544e-10
5.19878e-08
1.87148e-10
5.19616e-08
1.64054e-10
5.19368e-08
1.44021e-10
5.19136e-08
1.26868e-10
5.1892e-08
1.12393e-10
5.1872e-08
1.0034e-10
5.18536e-08
9.03831e-11
5.18368e-08
8.21604e-11
5.18215e-08
7.53079e-11
5.18077e-08
6.94948e-11
5.17952e-08
6.44438e-11
5.17838e-08
5.99412e-11
5.17735e-08
5.58334e-11
5.17641e-08
5.20188e-11
5.17555e-08
4.84351e-11
5.17476e-08
4.50475e-11
5.17404e-08
4.18382e-11
5.17337e-08
3.87996e-11
5.17276e-08
3.59282e-11
5.1722e-08
3.3222e-11
5.17168e-08
3.06783e-11
5.17121e-08
2.8294e-11
5.17077e-08
2.60644e-11
5.17036e-08
2.39842e-11
5.16999e-08
2.2047e-11
5.16965e-08
2.02461e-11
5.16934e-08
1.85748e-11
5.16905e-08
1.70251e-11
5.16879e-08
1.55916e-11
5.16855e-08
1.42647e-11
5.16833e-08
1.3042e-11
5.16813e-08
1.191e-11
5.16795e-08
1.08733e-11
5.16778e-08
9.91005e-12
5.16762e-08
9.03735e-12
5.16748e-08
8.21859e-12
5.16736e-08
7.4898e-12
5.16724e-08
6.79469e-12
5.16713e-08
6.1905e-12
5.16704e-08
5.60254e-12
5.16695e-08
5.1037e-12
5.16687e-08
4.61012e-12
5.1668e-08
4.19919e-12
5.16673e-08
3.78784e-12
5.16667e-08
3.45198e-12
5.16662e-08
3.10973e-12
5.16657e-08
2.83951e-12
5.16653e-08
2.5555e-12
5.16649e-08
2.34083e-12
5.16645e-08
2.10813e-12
5.16642e-08
1.93976e-12
5.16639e-08
1.75108e-12
5.16636e-08
1.62346e-12
5.16633e-08
1.47215e-12
5.16631e-08
1.37921e-12
5.16629e-08
1.26211e-12
5.16627e-08
1.19849e-12
5.16625e-08
1.11139e-12
5.16624e-08
1.07442e-12
5.16622e-08
1.01423e-12
5.16621e-08
1.00269e-12
9.7015e-13
5.3066e-08
1.68278e-09
-5.30084e-08
5.31436e-08
1.82275e-09
5.32387e-08
1.95195e-09
5.33471e-08
2.06373e-09
5.34666e-08
2.15136e-09
5.3591e-08
2.21847e-09
5.37087e-08
2.25715e-09
5.38155e-08
2.25728e-09
5.39127e-08
2.23249e-09
5.39972e-08
2.19471e-09
5.40665e-08