/*--------------------------------*- C++ -*----------------------------------*\
| =========                 |                                                 |
| \\      /  F ield         | OpenFOAM: The Open Source CFD Toolbox           |
|  \\    /   O peration     | Version:  2.3.0                                 |
|   \\  /    A nd           | Web:      www.OpenFOAM.org                      |
|    \\/     M anipulation  |                                                 |
\*---------------------------------------------------------------------------*/
FoamFile
{
    version     2.0;
    format      ascii;
    class       surfaceScalarField;
    location    "0.1";
    object      phi;
}
// * * * * * * * * * * * * * * * * * * * * * * * * * * * * * * * * * * * * * //

dimensions      [0 3 -1 0 0 0 0];

internalField   nonuniform List<scalar> 
2863
(
2.8945e-08
2.75626e-09
-3.17013e-08
2.54699e-08
3.4751e-09
2.20098e-08
3.46014e-09
1.88095e-08
3.20023e-09
1.59018e-08
2.90776e-09
1.33609e-08
2.54085e-09
1.12786e-08
2.08232e-09
9.66922e-09
1.60939e-09
8.49828e-09
1.17094e-09
7.6828e-09
8.15482e-10
7.12429e-09
5.58503e-10
6.7372e-09
3.87095e-10
6.45877e-09
2.78431e-10
6.24679e-09
2.11972e-10
6.07319e-09
1.73602e-10
5.92141e-09
1.51778e-10
5.784e-09
1.3741e-10
5.65901e-09
1.24989e-10
5.54584e-09
1.13179e-10
5.44501e-09
1.00828e-10
5.35758e-09
8.74232e-11
5.28428e-09
7.33007e-11
5.22507e-09
5.92158e-11
5.17987e-09
4.52021e-11
5.1483e-09
3.15613e-11
5.12911e-09
1.91945e-11
5.12165e-09
7.45827e-12
5.12496e-09
-3.30743e-12
5.138e-09
-1.30376e-11
5.159e-09
-2.10022e-11
5.18496e-09
-2.59662e-11
5.21307e-09
-2.81021e-11
5.24101e-09
-2.79468e-11
5.26711e-09
-2.61006e-11
5.29042e-09
-2.33023e-11
5.31051e-09
-2.00934e-11
5.32741e-09
-1.68954e-11
5.34136e-09
-1.39513e-11
5.3527e-09
-1.1343e-11
5.36178e-09
-9.08498e-12
5.36896e-09
-7.17277e-12
5.37454e-09
-5.58302e-12
5.37882e-09
-4.28229e-12
5.38206e-09
-3.23733e-12
5.38447e-09
-2.41428e-12
5.38625e-09
-1.77814e-12
5.38755e-09
-1.29552e-12
5.38848e-09
-9.35449e-13
5.38915e-09
-6.70148e-13
5.38963e-09
-4.76359e-13
5.38997e-09
-3.35451e-13
5.3902e-09
-2.33195e-13
5.39036e-09
-1.59185e-13
5.39046e-09
-1.05766e-13
5.39053e-09
-6.73465e-14
5.39057e-09
-3.99246e-14
5.39059e-09
-2.05984e-14
5.3906e-09
-7.25533e-15
5.3906e-09
2.03766e-15
5.39059e-09
7.40483e-15
5.39058e-09
1.07898e-14
5.39057e-09
1.25818e-14
5.39055e-09
1.32148e-14
5.39054e-09
1.32239e-14
5.39053e-09
1.24635e-14
5.39052e-09
1.14633e-14
5.3905e-09
1.03741e-14
5.3905e-09
9.24197e-15
5.39049e-09
8.11106e-15
5.39048e-09
7.03606e-15
5.39047e-09
6.03911e-15
5.39047e-09
5.14352e-15
5.39047e-09
4.33606e-15
5.39046e-09
3.64026e-15
5.39046e-09
3.02442e-15
5.39046e-09
2.50967e-15
5.39045e-09
2.06496e-15
5.39045e-09
1.68618e-15
5.39045e-09
1.39056e-15
5.39045e-09
1.10301e-15
5.39045e-09
9.2585e-16
5.39045e-09
7.12014e-16
5.39045e-09
5.94454e-16
5.39045e-09
4.73592e-16
5.39045e-09
3.54627e-16
5.39045e-09
3.20518e-16
5.39045e-09
2.18339e-16
5.39045e-09
1.82583e-16
5.39045e-09
1.69006e-16
5.39045e-09
8.38523e-17
5.39045e-09
1.09915e-16
5.39045e-09
7.29484e-17
5.39045e-09
3.80967e-17
5.39045e-09
5.60989e-17
5.39045e-09
3.94433e-17
5.39045e-09
1.14369e-17
5.39045e-09
2.86448e-17
5.39045e-09
2.32889e-17
5.39045e-09
-2.73755e-18
4.82145e-17
3.63647e-08
2.44629e-09
-3.60548e-08
3.62014e-08
3.63844e-09
3.54873e-08
4.17419e-09
3.44871e-08
4.20045e-09
3.33252e-08
4.06966e-09
3.20251e-08
3.84095e-09
3.06009e-08
3.5065e-09
2.91225e-08
3.08781e-09
2.76716e-08
2.6219e-09
2.63103e-08
2.17677e-09
2.50636e-08
1.80514e-09
2.39343e-08
1.51643e-09
2.2919e-08
1.29375e-09
2.20165e-08
1.11443e-09
2.12196e-08
9.70509e-10
2.0519e-08
8.52388e-10
1.99048e-08
7.51649e-10
1.93679e-08
6.61898e-10
1.89009e-08
5.80165e-10
1.84972e-08
5.04496e-10
1.81516e-08
4.33075e-10
1.78595e-08
3.65399e-10
1.76174e-08
3.01233e-10
1.74226e-08
2.40064e-10
1.72717e-08
1.82439e-10
1.71609e-08
1.29959e-10
1.7086e-08
8.23817e-11
1.70448e-08
3.79487e-11
1.70336e-08
-1.8932e-12
1.70469e-08
-3.43139e-11
1.7078e-08
-5.7026e-11
1.71204e-08
-7.05032e-11
1.71685e-08
-7.60171e-11
1.72176e-08
-7.52682e-11
1.72647e-08
-7.04011e-11
1.73078e-08
-6.31335e-11
1.73458e-08
-5.49119e-11
1.73785e-08
-4.66545e-11
1.7406e-08
-3.88318e-11
1.74286e-08
-3.17116e-11
1.74469e-08
-2.54486e-11
1.74614e-08
-2.00933e-11
1.74727e-08
-1.56257e-11
1.74815e-08
-1.1988e-11
1.74882e-08
-9.09274e-12
1.74932e-08
-6.83441e-12
1.7497e-08
-5.10395e-12
1.74999e-08
-3.79667e-12
1.7502e-08
-2.81836e-12
1.75036e-08
-2.08984e-12
1.75049e-08
-1.54773e-12
1.75058e-08
-1.14368e-12
1.75064e-08
-8.41905e-13
1.7507e-08
-6.16001e-13
1.75073e-08
-4.46656e-13
1.75076e-08
-3.19766e-13
1.75078e-08
-2.24966e-13
1.7508e-08
-1.54596e-13
1.75081e-08
-1.02674e-13
1.75081e-08
-6.52345e-14
1.75082e-08
-3.82459e-14
1.75082e-08
-1.92399e-14
1.75082e-08
-6.22742e-15
1.75083e-08
2.78779e-15
1.75083e-08
7.97015e-15
1.75083e-08
1.09702e-14
1.75083e-08
1.24937e-14
1.75083e-08
1.29482e-14
1.75083e-08
1.26568e-14
1.75082e-08
1.19123e-14
1.75082e-08
1.09046e-14
1.75082e-08
9.78654e-15
1.75082e-08
8.61879e-15
1.75082e-08
7.51008e-15
1.75082e-08
6.44349e-15
1.75082e-08
5.50471e-15
1.75082e-08
4.63793e-15
1.75082e-08
3.89065e-15
1.75082e-08
3.25195e-15
1.75082e-08
2.66378e-15
1.75082e-08
2.23648e-15
1.75082e-08
1.78521e-15
1.75082e-08
1.49325e-15
1.75082e-08
1.2021e-15
1.75082e-08
9.52617e-16
1.75082e-08
8.07634e-16
1.75082e-08
6.21132e-16
1.75082e-08
4.82674e-16
1.75082e-08
4.61019e-16
1.75082e-08
2.57464e-16
1.75082e-08
3.03849e-16
1.75082e-08
2.04372e-16
1.75082e-08
1.4117e-16
1.75082e-08
1.51542e-16
1.75082e-08
1.21936e-16
1.75082e-08
5.51287e-17
1.75082e-08
8.49297e-17
1.75082e-08
6.16832e-17
1.75082e-08
-8.81723e-18
1.23354e-16
4.0405e-08
2.32159e-09
-4.02803e-08
4.08364e-08
3.20709e-09
4.11006e-08
3.91e-09
4.11626e-08
4.13842e-09
4.11092e-08
4.12301e-09
4.09501e-08
4.00011e-09
4.06483e-08
3.80827e-09
4.01903e-08
3.54589e-09
3.95991e-08
3.21305e-09
3.89267e-08
2.84922e-09
3.82212e-08
2.51061e-09
3.75082e-08
2.22939e-09
3.6798e-08
2.00395e-09
3.60952e-08
1.81725e-09
3.54097e-08
1.65603e-09
3.47512e-08
1.51082e-09
3.41262e-08
1.37665e-09
3.35368e-08
1.25134e-09
3.29838e-08
1.13312e-09
3.24699e-08
1.01847e-09
3.1998e-08
9.05e-10
3.15698e-08
7.93532e-10
3.11867e-08
6.84351e-10
3.08499e-08
5.76867e-10
3.05596e-08
4.72716e-10
3.0315e-08
3.74621e-10
3.01147e-08
2.82667e-10
2.99569e-08
1.95775e-10
2.98391e-08
1.15889e-10
2.97577e-08
4.70513e-11
2.97076e-08
-6.89254e-12
2.96836e-08
-4.65676e-11
2.96804e-08
-7.28081e-11
2.96926e-08
-8.74673e-11
2.97157e-08
-9.34511e-11
2.97456e-08
-9.30499e-11
2.97792e-08
-8.84723e-11
2.98138e-08
-8.12548e-11
2.98473e-08
-7.24103e-11
2.98784e-08
-6.27557e-11
2.99059e-08
-5.2994e-11
2.99295e-08
-4.36714e-11
2.99491e-08
-3.51827e-11
2.99648e-08
-2.77802e-11
2.99773e-08
-2.15669e-11
2.9987e-08
-1.65209e-11
2.99944e-08
-1.25365e-11
3.00001e-08
-9.45973e-12
3.00044e-08
-7.12091e-12
3.00077e-08
-5.35997e-12
3.00102e-08
-4.03902e-12
3.00121e-08
-3.04769e-12
3.00135e-08
-2.30161e-12
3.00147e-08
-1.73758e-12
3.00155e-08
-1.30934e-12
3.00162e-08
-9.83123e-13
3.00167e-08
-7.34215e-13
3.00171e-08
-5.44523e-13
3.00174e-08
-4.00265e-13
3.00176e-08
-2.91122e-13
3.00178e-08
-2.08834e-13
3.00179e-08
-1.4729e-13
3.0018e-08
-1.01603e-13
3.00181e-08
-6.78323e-14
3.00181e-08
-4.36477e-14
3.00182e-08
-2.63758e-14
3.00182e-08
-1.41711e-14
3.00182e-08
-5.77125e-15
3.00182e-08
-2.04967e-16
3.00182e-08
3.32552e-15
3.00182e-08
5.39956e-15
3.00182e-08
6.46977e-15
3.00182e-08
6.82029e-15
3.00182e-08
6.75582e-15
3.00182e-08
6.35641e-15
3.00182e-08
5.87262e-15
3.00182e-08
5.22443e-15
3.00182e-08
4.64797e-15
3.00182e-08
4.01066e-15
3.00182e-08
3.45382e-15
3.00182e-08
2.96395e-15
3.00182e-08
2.44657e-15
3.00182e-08
2.12513e-15
3.00182e-08
1.69595e-15
3.00182e-08
1.4587e-15
3.00182e-08
1.17388e-15
3.00182e-08
9.86214e-16
3.00182e-08
7.61288e-16
3.00182e-08
7.17427e-16
3.00182e-08
4.54908e-16
3.00182e-08
4.90763e-16
3.00182e-08
3.45317e-16
3.00182e-08
2.69924e-16
3.00182e-08
2.53593e-16
3.00182e-08
2.22249e-16
3.00182e-08
1.22451e-16
3.00182e-08
1.56935e-16
3.00182e-08
1.12119e-16
3.00182e-08
2.63014e-17
1.72414e-16
4.48793e-08
2.27897e-09
-4.48367e-08
4.51939e-08
2.89248e-09
4.55993e-08
3.50459e-09
4.59092e-08
3.82853e-09
4.61373e-08
3.89496e-09
4.63216e-08
3.81579e-09
4.6452e-08
3.67784e-09
4.64962e-08
3.50172e-09
4.64306e-08
3.2787e-09
4.62673e-08
3.01247e-09
4.60431e-08
2.73487e-09
4.57878e-08
2.48466e-09
4.55125e-08
2.27924e-09
4.52153e-08
2.11442e-09
4.48991e-08
1.9723e-09
4.45732e-08
1.83663e-09
4.42474e-08
1.70248e-09
4.3925e-08
1.57372e-09
4.36061e-08
1.45206e-09
4.3292e-08
1.33251e-09
4.29863e-08
1.2107e-09
4.26926e-08
1.0873e-09
4.24135e-08
9.63378e-10
4.21518e-08
8.3865e-10
4.19095e-08
7.14937e-10
4.16889e-08
5.95296e-10
4.14907e-08
4.8085e-10
4.13153e-08
3.7113e-10
4.11631e-08
2.68106e-10
4.10338e-08
1.76407e-10
4.09275e-08
9.93767e-11
4.0843e-08
3.79515e-11
4.0779e-08
-8.86744e-12
4.07332e-08
-4.16336e-11
4.07031e-08
-6.33318e-11
4.06861e-08
-7.61087e-11
4.06803e-08
-8.26376e-11
4.06836e-08
-8.45761e-11
4.06941e-08
-8.28724e-11
4.07096e-08
-7.82555e-11
4.0728e-08
-7.14399e-11
4.07475e-08
-6.31483e-11
4.07664e-08
-5.41256e-11
4.07838e-08
-4.5085e-11
4.07988e-08
-3.66032e-11
4.08113e-08
-2.9069e-11
4.08215e-08
-2.26789e-11
4.08295e-08
-1.74611e-11
4.08357e-08
-1.33257e-11
4.08404e-08
-1.01204e-11
4.08441e-08
-7.67254e-12
4.08469e-08
-5.819e-12
4.0849e-08
-4.4202e-12
4.08506e-08
-3.36354e-12
4.08519e-08
-2.56264e-12
4.08528e-08
-1.95293e-12
4.08536e-08
-1.48682e-12
4.08542e-08
-1.12962e-12
4.08546e-08
-8.55455e-13
4.0855e-08
-6.44961e-13
4.08552e-08
-4.83534e-13
4.08555e-08
-3.60126e-13
4.08556e-08
-2.6604e-13
4.08557e-08
-1.94559e-13
4.08558e-08
-1.40833e-13
4.08559e-08
-1.00601e-13
4.0856e-08
-7.06102e-14
4.0856e-08
-4.847e-14
4.0856e-08
-3.23152e-14
4.08561e-08
-2.0661e-14
4.08561e-08
-1.23824e-14
4.08561e-08
-6.59908e-15
4.08561e-08
-2.70228e-15
4.08561e-08
-8.51134e-17
4.08561e-08
1.4712e-15
4.08561e-08
2.49687e-15
4.08561e-08
2.87272e-15
4.08561e-08
3.13421e-15
4.08561e-08
3.01079e-15
4.08561e-08
2.87576e-15
4.08561e-08
2.67878e-15
4.08561e-08
2.2865e-15
4.08561e-08
2.19078e-15
4.08561e-08
1.71958e-15
4.08561e-08
1.63092e-15
4.08561e-08
1.30789e-15
4.08561e-08
1.13633e-15
4.08561e-08
9.41473e-16
4.08561e-08
8.46097e-16
4.08561e-08
6.05609e-16
4.08561e-08
6.19401e-16
4.08561e-08
4.53362e-16
4.08561e-08
3.84344e-16
4.08561e-08
3.37131e-16
4.08561e-08
3.12693e-16
4.08561e-08
1.94933e-16
4.08561e-08
2.34874e-16
4.08561e-08
1.87499e-16
4.08561e-08
1.55099e-16
1.67693e-16
4.98449e-08
2.23157e-09
-4.97975e-08
5.00526e-08
2.68483e-09
5.0408e-08
3.14914e-09
5.07529e-08
3.48359e-09
5.10295e-08
3.61841e-09
5.12536e-08
3.5917e-09
5.14512e-08
3.48022e-09
5.16127e-08
3.34019e-09
5.17129e-08
3.17855e-09
5.17429e-08
2.98248e-09
5.17185e-08
2.75924e-09
5.1665e-08
2.53812e-09
5.15969e-08
2.3474e-09
5.15152e-08
2.1961e-09
5.14182e-08
2.06926e-09
5.13095e-08
1.94539e-09
5.11955e-08
1.81647e-09
5.10794e-08
1.68982e-09
5.09604e-08
1.57107e-09
5.08375e-08
1.45537e-09
5.07116e-08
1.33662e-09
5.05842e-08
1.21469e-09
5.04566e-08
1.09099e-09
5.03297e-08
9.65517e-10
5.0205e-08
8.39699e-10
5.00837e-08
7.16597e-10
4.99669e-08
5.97649e-10
4.98552e-08
4.82821e-10
4.97491e-08
3.74229e-10
4.96496e-08
2.75863e-10
4.95586e-08
1.9037e-10
4.94778e-08
1.18766e-10
4.94079e-08
6.10693e-11
4.93492e-08
1.70413e-11
4.93015e-08
-1.5639e-11
4.92636e-08
-3.82533e-11
4.92347e-08
-5.37375e-11
4.92141e-08
-6.39096e-11
4.9201e-08
-6.97929e-11
4.91947e-08
-7.19921e-11
4.91942e-08
-7.09499e-11
4.91982e-08
-6.71205e-11
4.92052e-08
-6.11198e-11
4.92138e-08
-5.37155e-11
4.92229e-08
-4.57006e-11
4.92316e-08
-3.77778e-11
4.92394e-08
-3.04724e-11
4.92461e-08
-2.40963e-11
4.92515e-08
-1.87673e-11
4.92558e-08
-1.44622e-11
4.92592e-08
-1.10716e-11
4.92619e-08
-8.44885e-12
4.92639e-08
-6.44322e-12
4.92655e-08
-4.91802e-12
4.92666e-08
-3.75966e-12
4.92676e-08
-2.87838e-12
4.92683e-08
-2.2057e-12
4.92689e-08
-1.69055e-12
4.92693e-08
-1.29477e-12
4.92696e-08
-9.89902e-13
4.92699e-08
-7.54806e-13
4.92701e-08
-5.73568e-13
4.92703e-08
-4.339e-13
4.92704e-08
-3.26458e-13
4.92705e-08
-2.44206e-13
4.92706e-08
-1.81411e-13
4.92707e-08
-1.33604e-13
4.92707e-08
-9.74151e-14
4.92708e-08
-7.01904e-14
4.92708e-08
-4.9836e-14
4.92708e-08
-3.47446e-14
4.92708e-08
-2.36402e-14
4.92708e-08
-1.56262e-14
4.92708e-08
-9.80181e-15
4.92709e-08
-5.81794e-15
4.92709e-08
-2.88991e-15
4.92709e-08
-1.11517e-15
4.92709e-08
2.46136e-16
4.92709e-08
9.40978e-16
4.92709e-08
1.38398e-15
4.92709e-08
1.7079e-15
4.92709e-08
1.55628e-15
4.92709e-08
1.80203e-15
4.92709e-08
1.42393e-15
4.92709e-08
1.49245e-15
4.92709e-08
1.26981e-15
4.92709e-08
1.09217e-15
4.92709e-08
1.01527e-15
4.92709e-08
8.66037e-16
4.92709e-08
6.8722e-16
4.92709e-08
6.89674e-16
4.92709e-08
5.12256e-16
4.92709e-08
4.70111e-16
4.92709e-08
3.91812e-16
4.92709e-08
3.77202e-16
4.92709e-08
2.55037e-16
4.92709e-08
3.04826e-16
4.92709e-08
2.48927e-16
4.92709e-08
2.76008e-16
1.39075e-16
5.53122e-08
2.17012e-09
-5.52508e-08
5.54693e-08
2.52773e-09
5.57468e-08
2.87173e-09
5.60625e-08
3.16788e-09
5.63444e-08
3.33646e-09
5.65699e-08
3.36619e-09
5.67574e-08
3.29272e-09
5.69185e-08
3.17914e-09
5.70442e-08
3.05277e-09
5.71255e-08
2.9012e-09
5.71641e-08
2.72066e-09
5.7171e-08
2.5312e-09
5.71611e-08
2.35737e-09
5.71448e-08
2.21235e-09
5.71239e-08
2.09015e-09
5.7097e-08
1.97235e-09
5.70654e-08
1.84806e-09
5.70318e-08
1.72337e-09
5.69968e-08
1.60612e-09
5.69594e-08
1.49272e-09
5.69196e-08
1.37647e-09
5.68771e-08
1.2572e-09
5.68312e-08
1.13684e-09
5.67818e-08
1.0149e-09
5.67294e-08
8.92114e-10
5.66743e-08
7.71661e-10
5.66168e-08
6.55217e-10
5.65568e-08
5.42838e-10
5.64949e-08
4.36088e-10
5.64325e-08
3.38222e-10
5.6371e-08
2.51952e-10
5.63119e-08
1.77802e-10
5.62574e-08
1.15603e-10
5.62087e-08
6.56997e-11
5.61658e-08
2.73324e-11
5.61289e-08
-1.36986e-12
5.60976e-08
-2.24948e-11
5.60717e-08
-3.80144e-11
5.60509e-08
-4.89466e-11
5.60349e-08
-5.59848e-11
5.60235e-08
-5.9513e-11
5.60161e-08
-5.98125e-11
5.60123e-08
-5.73134e-11
5.60113e-08
-5.26434e-11
5.60121e-08
-4.65545e-11
5.60142e-08
-3.98163e-11
5.60168e-08
-3.30877e-11
5.60195e-08
-2.68448e-11
5.60221e-08
-2.13643e-11
5.60244e-08
-1.67551e-11
5.60263e-08
-1.30051e-11
5.60279e-08
-1.00281e-11
5.60292e-08
-7.70637e-12
5.60302e-08
-5.91562e-12
5.6031e-08
-4.54284e-12
5.60316e-08
-3.4925e-12
5.60321e-08
-2.68848e-12
5.60324e-08
-2.07166e-12
5.60327e-08
-1.59706e-12
5.6033e-08
-1.23077e-12
5.60332e-08
-9.47485e-13
5.60333e-08
-7.28079e-13
5.60335e-08
-5.57958e-13
5.60336e-08
-4.26102e-13
5.60336e-08
-3.24116e-13
5.60337e-08
-2.45358e-13
5.60338e-08
-1.84651e-13
5.60338e-08
-1.38036e-13
5.60338e-08
-1.02384e-13
5.60339e-08
-7.52317e-14
5.60339e-08
-5.46798e-14
5.60339e-08
-3.91982e-14
5.60339e-08
-2.77062e-14
5.60339e-08
-1.91166e-14
5.60339e-08
-1.29652e-14
5.60339e-08
-8.33975e-15
5.60339e-08
-5.22704e-15
5.60339e-08
-2.8663e-15
5.60339e-08
-1.32875e-15
5.60339e-08
-3.39301e-16
5.60339e-08
5.22801e-16
5.60339e-08
6.62141e-16
5.60339e-08
1.20894e-15
5.60339e-08
1.02994e-15
5.60339e-08
1.19482e-15
5.60339e-08
1.15279e-15
5.60339e-08
9.56799e-16
5.60339e-08
1.01096e-15
5.60339e-08
8.39075e-16
5.60339e-08
7.07036e-16
5.60339e-08
7.26691e-16
5.60339e-08
5.32551e-16
5.60339e-08
5.21925e-16
5.60339e-08
4.29227e-16
5.60339e-08
4.07636e-16
5.60339e-08
3.01367e-16
5.60339e-08
3.46089e-16
5.60339e-08
2.70385e-16
5.60339e-08
3.22675e-16
1.35648e-16
6.13305e-08
2.10366e-09
-6.12641e-08
6.14646e-08
2.39363e-09
6.16751e-08
2.6613e-09
6.1941e-08
2.90194e-09
6.22029e-08
3.07455e-09
6.24247e-08
3.14447e-09
6.26018e-08
3.11562e-09
6.2749e-08
3.03189e-09
6.28699e-08
2.93185e-09
6.29595e-08
2.81163e-09
6.30169e-08
2.66324e-09
6.30445e-08
2.50361e-09
6.30501e-08
2.35175e-09
6.30481e-08
2.21435e-09
6.30466e-08
2.09168e-09
6.30428e-08
1.97615e-09
6.30339e-08
1.85695e-09
6.30223e-08
1.73493e-09
6.30099e-08
1.61851e-09
6.29963e-08
1.50641e-09
6.29815e-08
1.39126e-09
6.29656e-08
1.2731e-09
6.29468e-08
1.15559e-09
6.29239e-08
1.03782e-09
6.28972e-08
9.18839e-10
6.2867e-08
8.0179e-10
6.28331e-08
6.89163e-10
6.27952e-08
5.80718e-10
6.2754e-08
4.77333e-10
6.27101e-08
3.82069e-10
6.26649e-08
2.97129e-10
6.26198e-08
2.22936e-10
6.25763e-08
1.59068e-10
6.25359e-08
1.06187e-10
6.24992e-08
6.40014e-11
6.24666e-08
3.12549e-11
6.2438e-08
6.07092e-12
6.24134e-08
-1.33713e-11
6.23923e-08
-2.78728e-11
6.23745e-08
-3.81815e-11
6.23598e-08
-4.48123e-11
6.2348e-08
-4.80736e-11
6.23391e-08
-4.83554e-11
6.23326e-08
-4.61844e-11
6.23283e-08
-4.2218e-11
6.23256e-08
-3.71756e-11
6.23243e-08
-3.17134e-11
6.23238e-08
-2.63446e-11
6.23238e-08
-2.14122e-11
6.23242e-08
-1.71055e-11
6.23247e-08
-1.34887e-11
6.23252e-08
-1.054e-11
6.23256e-08
-8.18779e-12
6.23261e-08
-6.34108e-12
6.23264e-08
-4.90518e-12
6.23267e-08
-3.79505e-12
6.2327e-08
-2.93884e-12
6.23272e-08
-2.27825e-12
6.23274e-08
-1.76767e-12
6.23275e-08
-1.37206e-12
6.23276e-08
-1.06483e-12
6.23277e-08
-8.25672e-13
6.23278e-08
-6.39148e-13
6.23279e-08
-4.93591e-13
6.23279e-08
-3.80045e-13
6.2328e-08
-2.91525e-13
6.2328e-08
-2.226e-13
6.2328e-08
-1.69074e-13
6.23281e-08
-1.27622e-13
6.23281e-08
-9.56238e-14
6.23281e-08
-7.10529e-14
6.23281e-08
-5.22521e-14
6.23281e-08
-3.80393e-14
6.23281e-08
-2.72467e-14
6.23281e-08
-1.93008e-14
6.23281e-08
-1.32771e-14
6.23281e-08
-8.99339e-15
6.23282e-08
-5.78874e-15
6.23282e-08
-3.48916e-15
6.23282e-08
-2.0037e-15
6.23282e-08
-6.76249e-16
6.23282e-08
-2.11196e-16
6.23282e-08
5.5155e-16
6.23282e-08
6.3461e-16
6.23282e-08
8.449e-16
6.23282e-08
1.00002e-15
6.23282e-08
8.05756e-16
6.23282e-08
9.50097e-16
6.23282e-08
8.10758e-16
6.23282e-08
6.82876e-16
6.23282e-08
7.47848e-16
6.23282e-08
5.37705e-16
6.23282e-08
5.41386e-16
6.23282e-08
4.6393e-16
6.23282e-08
4.11745e-16
6.23282e-08
3.37201e-16
6.23282e-08
3.6016e-16
6.23282e-08
2.75209e-16
6.23282e-08
3.22461e-16
1.50971e-16
6.79646e-08
2.03919e-09
-6.79001e-08
6.80796e-08
2.27861e-09
6.82437e-08
2.49724e-09
6.84546e-08
2.69101e-09
6.86818e-08
2.84733e-09
6.88893e-08
2.93699e-09
6.90568e-08
2.94809e-09
6.91919e-08
2.89682e-09
6.93034e-08
2.82034e-09
6.93898e-08
2.72521e-09
6.9451e-08
2.60201e-09
6.94882e-08
2.46643e-09
6.95034e-08
2.33659e-09
6.95073e-08
2.21039e-09
6.95112e-08
2.08781e-09
6.9514e-08
1.97336e-09
6.95113e-08
1.85965e-09
6.95052e-08
1.74106e-09
6.94986e-08
1.62511e-09
6.94908e-08
1.51418e-09
6.94814e-08
1.40066e-09
6.94709e-08
1.28357e-09
6.94583e-08
1.16825e-09
6.94418e-08
1.05427e-09
6.94218e-08
9.38829e-10
6.9399e-08
8.24574e-10
6.93729e-08
7.15304e-10
6.93426e-08
6.11005e-10
6.93086e-08
5.11346e-10
6.92721e-08
4.18527e-10
6.92343e-08
3.34959e-10
6.91962e-08
2.61011e-10
6.91589e-08
1.96418e-10
6.91234e-08
1.4167e-10
6.90907e-08
9.67571e-11
6.90612e-08
6.06921e-11
6.90352e-08
3.2136e-11
6.9012e-08
9.7938e-12
6.89919e-08
-7.82514e-12
6.89745e-08
-2.07766e-11
6.89596e-08
-2.98746e-11
6.8947e-08
-3.54553e-11
6.89366e-08
-3.79656e-11
6.89283e-08
-3.78878e-11
6.89219e-08
-3.58269e-11
6.89172e-08
-3.24522e-11
6.89138e-08
-2.83796e-11
6.89116e-08
-2.41057e-11
6.89102e-08
-1.9992e-11
6.89093e-08
-1.62646e-11
6.89089e-08
-1.3036e-11
6.89087e-08
-1.03336e-11
6.89086e-08
-8.12858e-12
6.89086e-08
-6.3638e-12
6.89087e-08
-4.96962e-12
6.89088e-08
-3.87765e-12
6.89089e-08
-3.02673e-12
6.8909e-08
-2.36439e-12
6.89091e-08
-1.84872e-12
6.89091e-08
-1.44661e-12
6.89092e-08
-1.1323e-12
6.89093e-08
-8.85971e-13
6.89093e-08
-6.92446e-13
6.89094e-08
-5.40231e-13
6.89094e-08
-4.20424e-13
6.89094e-08
-3.26128e-13
6.89095e-08
-2.51978e-13
6.89095e-08
-1.93777e-13
6.89095e-08
-1.48196e-13
6.89095e-08
-1.126e-13
6.89095e-08
-8.49385e-14
6.89095e-08
-6.35108e-14
6.89096e-08
-4.70793e-14
6.89096e-08
-3.44623e-14
6.89096e-08
-2.49821e-14
6.89096e-08
-1.77615e-14
6.89096e-08
-1.24418e-14
6.89096e-08
-8.48937e-15
6.89096e-08
-5.51668e-15
6.89096e-08
-3.55423e-15
6.89096e-08
-1.8426e-15
6.89096e-08
-1.02302e-15
6.89096e-08
-1.10096e-16
6.89096e-08
2.56334e-16
6.89096e-08
4.99644e-16
6.89096e-08
8.22539e-16
6.89096e-08
6.76519e-16
6.89096e-08
8.50907e-16
6.89096e-08
7.95405e-16
6.89096e-08
6.40794e-16
6.89096e-08
7.55267e-16
6.89096e-08
5.48242e-16
6.89096e-08
5.38021e-16
6.89096e-08
4.98939e-16
6.89096e-08
4.08847e-16
6.89096e-08
3.60505e-16
6.89096e-08
3.67451e-16
6.89096e-08
2.7934e-16
6.89096e-08
3.07597e-16
1.67273e-16
6.76632e-08
1.98841e-09
-6.76124e-08
6.77489e-08
2.19286e-09
6.78682e-08
2.37795e-09
6.80173e-08
2.54197e-09
6.8185e-08
2.67961e-09
6.83486e-08
2.77334e-09
6.84884e-08
2.80827e-09
6.86017e-08
2.7836e-09
6.86945e-08
2.72748e-09
6.87672e-08
2.6525e-09
6.88195e-08
2.54976e-09
6.88547e-08
2.43126e-09
6.88748e-08
2.31642e-09
6.88835e-08
2.20171e-09
6.8888e-08
2.08332e-09
6.88918e-08
1.96955e-09
6.88926e-08
1.85883e-09
6.88897e-08
1.74396e-09
6.88854e-08
1.62943e-09
6.88803e-08
1.51927e-09
6.88736e-08
1.40734e-09
6.88655e-08
1.29167e-09
6.8856e-08
1.17777e-09
6.88438e-08
1.0665e-09
6.88281e-08
9.54531e-10
6.88095e-08
8.43153e-10
6.87886e-08
7.36239e-10
6.8765e-08
6.34551e-10
6.87388e-08
5.3755e-10
6.87106e-08
4.46799e-10
6.8681e-08
3.64484e-10
6.8651e-08
2.91034e-10
6.86212e-08
2.26234e-10
6.85925e-08
1.70362e-10
6.85657e-08
1.23531e-10
6.85414e-08
8.50536e-11
6.85197e-08
5.37836e-11
6.85008e-08
2.87376e-11
6.8484e-08
8.92976e-12
6.84694e-08
-6.17908e-12
6.84567e-08
-1.72073e-11
6.84458e-08
-2.45456e-11
6.84366e-08
-2.87218e-11
6.84289e-08
-3.02024e-11
6.84227e-08
-2.96033e-11
6.84178e-08
-2.75647e-11
6.84141e-08
-2.46612e-11
6.84113e-08
-2.13649e-11
6.84094e-08
-1.80321e-11
6.8408e-08
-1.4903e-11
6.84071e-08
-1.21161e-11
6.84065e-08
-9.7287e-12
6.84061e-08
-7.74208e-12
6.84059e-08
-6.12492e-12
6.84057e-08
-4.82926e-12
6.84057e-08
-3.80244e-12
6.84056e-08
-2.99362e-12
6.84056e-08
-2.3583e-12
6.84056e-08
-1.85962e-12
6.84056e-08
-1.4676e-12
6.84057e-08
-1.15877e-12
6.84057e-08
-9.14746e-13
6.84057e-08
-7.21428e-13
6.84058e-08
-5.68035e-13
6.84058e-08
-4.46171e-13
6.84058e-08
-3.49349e-13
6.84058e-08
-2.72488e-13
6.84058e-08
-2.11567e-13
6.84059e-08
-1.63384e-13
6.84059e-08
-1.2539e-13
6.84059e-08
-9.55729e-14
6.84059e-08
-7.22548e-14
6.84059e-08
-5.41788e-14
6.84059e-08
-4.01875e-14
6.84059e-08
-2.95245e-14
6.84059e-08
-2.1371e-14
6.84059e-08
-1.52382e-14
6.84059e-08
-1.06795e-14
6.84059e-08
-7.18736e-15
6.84059e-08
-4.81223e-15
6.84059e-08
-2.81918e-15
6.84059e-08
-1.68061e-15
6.84059e-08
-6.61603e-16
6.84059e-08
-6.37468e-17
6.84059e-08
2.30148e-16
6.84059e-08
6.47985e-16
6.84059e-08
5.93446e-16
6.84059e-08
7.48328e-16
6.84059e-08
7.86397e-16
6.84059e-08
6.12767e-16
6.84059e-08
7.43581e-16
6.84059e-08
5.7171e-16
6.84059e-08
5.27047e-16
6.84059e-08
5.23125e-16
6.84059e-08
4.15677e-16
6.84059e-08
3.69699e-16
6.84059e-08
3.76488e-16
6.84059e-08
2.83849e-16
6.84059e-08
2.94146e-16
1.79149e-16
8.54907e-08
1.93754e-09
-8.54398e-08
8.55703e-08
2.11324e-09
8.56775e-08
2.27075e-09
8.58072e-08
2.41224e-09
8.59555e-08
2.53135e-09
8.61059e-08
2.62295e-09
8.62408e-08
2.67336e-09
8.63503e-08
2.67407e-09
8.64412e-08
2.63658e-09
8.65155e-08
2.5782e-09
8.65677e-08
2.49754e-09
8.66022e-08
2.39685e-09
8.66276e-08
2.291e-09
8.66448e-08
2.1845e-09
8.6654e-08
2.07409e-09
8.66596e-08
1.96397e-09
8.66619e-08
1.85649e-09
8.66595e-08
1.74638e-09
8.66557e-08
1.63321e-09
8.66533e-08
1.52172e-09
8.66492e-08
1.41147e-09
8.66412e-08
1.29965e-09
8.66312e-08
1.18777e-09
8.66199e-08
1.07779e-09
8.66057e-08
9.68734e-10
8.65883e-08
8.6051e-10
8.65688e-08
7.55728e-10
8.6547e-08
6.56406e-10
8.65219e-08
5.62614e-10
8.64941e-08
4.74587e-10
8.64653e-08
3.93339e-10
8.64365e-08
3.19778e-10
8.64083e-08
2.54493e-10
8.6381e-08
1.97653e-10
8.63554e-08
1.49108e-10
8.63321e-08
1.08403e-10
8.63111e-08
7.47809e-11
8.62924e-08
4.74356e-11
8.62757e-08
2.55657e-11
8.62608e-08
8.70751e-12
8.62479e-08
-4.22516e-12
8.62366e-08
-1.32467e-11
8.62268e-08
-1.89741e-11
8.62185e-08
-2.18676e-11
8.62115e-08
-2.26109e-11
8.62058e-08
-2.18333e-11
8.62012e-08
-2.00695e-11
8.61976e-08
-1.77684e-11
8.61948e-08
-1.52753e-11
8.61927e-08
-1.28315e-11
8.61912e-08
-1.05866e-11
8.61901e-08
-8.61697e-12
8.61893e-08
-6.94553e-12
8.61887e-08
-5.56206e-12
8.61883e-08
-4.43734e-12
8.61881e-08
-3.53419e-12
8.61879e-08
-2.81433e-12
8.61878e-08
-2.24243e-12
8.61877e-08
-1.78837e-12
8.61877e-08
-1.42747e-12
8.61877e-08
-1.13982e-12
8.61876e-08
-9.09842e-13
8.61876e-08
-7.25458e-13
8.61877e-08
-5.77345e-13
8.61877e-08
-4.58197e-13
8.61877e-08
-3.62383e-13
8.61877e-08
-2.85419e-13
8.61877e-08
-2.23707e-13
8.61877e-08
-1.7435e-13
8.61877e-08
-1.35024e-13
8.61877e-08
-1.03846e-13
8.61877e-08
-7.92328e-14
8.61878e-08
-5.99542e-14
8.61878e-08
-4.49182e-14
8.61878e-08
-3.33186e-14
8.61878e-08
-2.44086e-14
8.61878e-08
-1.761e-14
8.61878e-08
-1.25327e-14
8.61878e-08
-8.62472e-15
8.61878e-08
-5.87063e-15
8.61878e-08
-3.66169e-15
8.61878e-08
-2.22072e-15
8.61878e-08
-1.11986e-15
8.61878e-08
-3.33758e-16
8.61878e-08
3.56993e-17
8.61878e-08
4.8584e-16
8.61878e-08
5.59187e-16
8.61878e-08
6.6217e-16
8.61878e-08
7.85865e-16
8.61878e-08
6.17297e-16
8.61878e-08
7.20038e-16
8.61878e-08
6.17025e-16
8.61878e-08
5.20583e-16
8.61878e-08
5.41271e-16
8.61878e-08
4.40559e-16
8.61878e-08
3.72476e-16
8.61878e-08
3.89578e-16
8.61878e-08
2.92565e-16
8.61878e-08
2.82911e-16
1.87877e-16
1.08029e-07
1.89749e-09
-1.07989e-07
1.0809e-07
2.05219e-09
1.08172e-07
2.18908e-09
1.08269e-07
2.31499e-09
1.08379e-07
2.42133e-09
1.08494e-07
2.50849e-09
1.08603e-07
2.5643e-09
1.08693e-07
2.58358e-09
1.08767e-07
2.56322e-09
1.08829e-07
2.51583e-09
1.08876e-07
2.45035e-09
1.08908e-07
2.3646e-09
1.08933e-07
2.26646e-09
1.0895e-07
2.1678e-09
1.08958e-07
2.06527e-09
1.08967e-07
1.95491e-09
1.08978e-07
1.84594e-09
1.08982e-07
1.74262e-09
1.08978e-07
1.63711e-09
1.08973e-07
1.52645e-09
1.08969e-07
1.41532e-09
1.08964e-07
1.30449e-09
1.08959e-07
1.19279e-09
1.08954e-07
1.08336e-09
1.08944e-07
9.78462e-10
1.08929e-07
8.75566e-10
1.08911e-07
7.7334e-10
1.08893e-07
6.74759e-10
1.08873e-07
5.82427e-10
1.08852e-07
4.96018e-10
1.0883e-07
4.15192e-10
1.08808e-07
3.41468e-10
1.08787e-07
2.76216e-10
1.08765e-07
2.19213e-10
1.08744e-07
1.69786e-10
1.08725e-07
1.27562e-10
1.08708e-07
9.21741e-11
1.08692e-07
6.30272e-11
1.08678e-07
3.94201e-11
1.08666e-07
2.08471e-11
1.08655e-07
6.97731e-12
1.08645e-07
-3.55805e-12
1.08637e-07
-1.02814e-11
1.08629e-07
-1.41173e-11
1.08622e-07
-1.57871e-11
1.08616e-07
-1.58879e-11
1.08611e-07
-1.49597e-11
1.08607e-07
-1.34456e-11
1.08603e-07
-1.16779e-11
1.086e-07
-9.88583e-12
1.08598e-07
-8.21109e-12
1.08596e-07
-6.72792e-12
1.08594e-07
-5.46346e-12
1.08593e-07
-4.41397e-12
1.08592e-07
-3.55851e-12
1.08592e-07
-2.86899e-12
1.08591e-07
-2.31625e-12
1.08591e-07
-1.87362e-12
1.08591e-07
-1.51833e-12
1.0859e-07
-1.23182e-12
1.0859e-07
-9.99524e-13
1.0859e-07
-8.10324e-13
1.0859e-07
-6.55706e-13
1.0859e-07
-5.2904e-13
1.0859e-07
-4.2521e-13
1.0859e-07
-3.40186e-13
1.0859e-07
-2.70743e-13
1.0859e-07
-2.14183e-13
1.0859e-07
-1.68309e-13
1.0859e-07
-1.31292e-13
1.0859e-07
-1.01606e-13
1.0859e-07
-7.79422e-14
1.0859e-07
-5.92342e-14
1.0859e-07
-4.45461e-14
1.0859e-07
-3.31184e-14
1.0859e-07
-2.4309e-14
1.0859e-07
-1.75424e-14
1.0859e-07
-1.2474e-14
1.0859e-07
-8.59388e-15
1.0859e-07
-5.79069e-15
1.0859e-07
-3.60486e-15
1.0859e-07
-2.0806e-15
1.0859e-07
-1.02054e-15
1.0859e-07
-2.10572e-16
1.0859e-07
1.76402e-16
1.0859e-07
5.55134e-16
1.0859e-07
6.98934e-16
1.0859e-07
7.20519e-16
1.0859e-07
8.63486e-16
1.0859e-07
7.15504e-16
1.0859e-07
7.40042e-16
1.0859e-07
7.04745e-16
1.0859e-07
5.54616e-16
1.0859e-07
5.69845e-16
1.0859e-07
4.94139e-16
1.0859e-07
3.84664e-16
1.0859e-07
4.11192e-16
1.0859e-07
3.12151e-16
1.0859e-07
2.80627e-16
1.98918e-16
1.36539e-07
-1.36524e-07
1.36563e-07
1.36596e-07
1.36634e-07
1.36678e-07
1.36728e-07
1.36775e-07
1.36815e-07
1.36849e-07
1.36881e-07
1.36905e-07
1.36918e-07
1.36933e-07
1.36949e-07
1.36958e-07
1.3696e-07
1.36962e-07
1.36967e-07
1.36975e-07
1.36983e-07
1.36988e-07
1.36985e-07
1.3698e-07
1.36974e-07
1.3697e-07
1.36967e-07
1.36965e-07
1.36964e-07
1.36961e-07
1.36955e-07
1.36948e-07
1.3694e-07
1.36931e-07
1.36923e-07
1.36915e-07
1.36908e-07
1.36901e-07
1.36896e-07
1.36891e-07
1.36886e-07
1.36881e-07
1.36876e-07
1.36871e-07
1.36867e-07
1.36862e-07
1.36857e-07
1.36852e-07
1.36847e-07
1.36843e-07
1.36839e-07
1.36835e-07
1.36832e-07
1.36829e-07
1.36826e-07
1.36824e-07
1.36823e-07
1.36821e-07
1.3682e-07
1.36819e-07
1.36818e-07
1.36817e-07
1.36817e-07
1.36816e-07
1.36816e-07
1.36816e-07
1.36816e-07
1.36815e-07
1.36815e-07
1.36815e-07
1.36815e-07
1.36815e-07
1.36815e-07
1.36815e-07
1.36815e-07
1.36815e-07
1.36815e-07
1.36815e-07
1.36815e-07
1.36815e-07
1.36815e-07
1.36815e-07
1.36815e-07
1.36815e-07
1.36815e-07
1.36815e-07
1.36815e-07
1.36815e-07
1.36815e-07
1.36815e-07
1.36815e-07
1.36815e-07
1.36815e-07
1.36815e-07
1.36815e-07
1.36815e-07
1.36815e-07
1.36815e-07
1.36815e-07
1.36815e-07
3.44442e-08
-3.82331e-10
3.44108e-08
4.30832e-10
3.44368e-08
5.81453e-10
3.44316e-08
-4.76239e-10
3.44185e-08
2.10793e-10
3.44385e-08
2.29293e-10
3.44196e-08
-2.99618e-10
3.44066e-08
-2.24917e-10
3.44088e-08
2.83517e-10
3.43973e-08
-4.68772e-11
3.43657e-08
-1.71438e-10
3.43495e-08
-3.16113e-11
3.43225e-08
2.27692e-10
3.42916e-08
7.89645e-11
3.42525e-08
3.11023e-12
3.42093e-08
1.72575e-11
3.41427e-08
1.96289e-10
3.40766e-08
2.40394e-10
3.39981e-08
1.93927e-10
3.39073e-08
1.65283e-10
3.37815e-08
2.27261e-10
3.36062e-08
4.19865e-10
3.33297e-08
5.42412e-10
3.27561e-08
9.5481e-10
1.52578e-09
3.80256e-08
-3.59212e-10
3.80177e-08
4.38762e-10
3.80437e-08
5.55442e-10
3.8023e-08
-4.5561e-10
3.80138e-08
2.20057e-10
3.80366e-08
2.06523e-10
3.80096e-08
-2.72647e-10
3.79873e-08
-2.0264e-10
3.80011e-08
2.69695e-10
3.79787e-08
-2.44434e-11
3.79505e-08
-1.43248e-10
3.79161e-08
2.76266e-12
3.79085e-08
2.35338e-10
3.78599e-08
1.27563e-10
3.78287e-08
3.43043e-11
3.7753e-08
9.29432e-11
3.77137e-08
2.3563e-10
3.76134e-08
3.40651e-10
3.7558e-08
2.4935e-10
3.74055e-08
3.17814e-10
3.73011e-08
3.31629e-10
3.70455e-08
6.75427e-10
3.6787e-08
8.0094e-10
3.63467e-08
1.39508e-09
1.81772e-09
4.1993e-08
-3.43034e-10
4.19862e-08
4.45606e-10
4.20479e-08
4.93741e-10
4.19872e-08
-3.94933e-10
4.20062e-08
2.01091e-10