/*--------------------------------*- C++ -*----------------------------------*\
| =========                 |                                                 |
| \\      /  F ield         | OpenFOAM: The Open Source CFD Toolbox           |
|  \\    /   O peration     | Version:  2.3.0                                 |
|   \\  /    A nd           | Web:      www.OpenFOAM.org                      |
|    \\/     M anipulation  |                                                 |
\*---------------------------------------------------------------------------*/
FoamFile
{
    version     2.0;
    format      ascii;
    class       volVectorField;
    location    "0.1";
    object      U_0;
}
// * * * * * * * * * * * * * * * * * * * * * * * * * * * * * * * * * * * * * //

dimensions      [0 1 -1 0 0 0 0];

internalField   nonuniform List<vector> 
1500
(
(0.176263 0.00438449 0)
(0.155506 0.00606064 0)
(0.136605 0.00621736 0)
(0.118188 0.00559158 0)
(0.100439 0.00476193 0)
(0.0842304 0.00384606 0)
(0.0706376 0.00285453 0)
(0.0600531 0.00180687 0)
(0.0522677 0.000892626 0)
(0.0467287 0.000274355 0)
(0.042856 -5.24321e-05 0)
(0.0401624 -0.000180634 0)
(0.0382549 -0.000195638 0)
(0.0368472 -0.000159028 0)
(0.0357404 -0.000104552 0)
(0.0348076 -5.18226e-05 0)
(0.0339799 -1.31987e-05 0)
(0.0332284 7.70832e-06 0)
(0.0325467 1.66222e-05 0)
(0.0319354 2.17977e-05 0)
(0.031399 2.33789e-05 0)
(0.0309428 2.20017e-05 0)
(0.0305698 1.94773e-05 0)
(0.0302797 1.65504e-05 0)
(0.0300703 1.36749e-05 0)
(0.0299368 1.07368e-05 0)
(0.0298742 7.90492e-06 0)
(0.0298776 -2.39841e-06 0)
(0.0299403 -1.21247e-05 0)
(0.0300526 -1.84473e-05 0)
(0.0301992 -2.14578e-05 0)
(0.0303627 -2.21242e-05 0)
(0.0305284 -2.10734e-05 0)
(0.0306855 -1.88477e-05 0)
(0.0308271 -1.61222e-05 0)
(0.0309502 -1.34183e-05 0)
(0.0310543 -1.10625e-05 0)
(0.0311404 -9.05757e-06 0)
(0.0312106 -7.31962e-06 0)
(0.031267 -5.81498e-06 0)
(0.0313116 -4.53549e-06 0)
(0.0313464 -3.46934e-06 0)
(0.0313731 -2.59936e-06 0)
(0.0313934 -1.90686e-06 0)
(0.0314086 -1.3697e-06 0)
(0.0314199 -9.63273e-07 0)
(0.0314282 -6.63476e-07 0)
(0.0314342 -4.47426e-07 0)
(0.0314385 -2.94554e-07 0)
(0.0314417 -1.87965e-07 0)
(0.0314439 -1.14552e-07 0)
(0.0314455 -6.46432e-08 0)
(0.0314466 -3.13037e-08 0)
(0.0314473 -9.45505e-09 0)
(0.0314478 4.45394e-09 0)
(0.0314481 1.27915e-08 0)
(0.0314483 1.72048e-08 0)
(0.0314484 1.87661e-08 0)
(0.0314484 1.80495e-08 0)
(0.0314484 1.79548e-08 0)
(0.0314483 1.84794e-08 0)
(0.0314483 1.79668e-08 0)
(0.0314482 1.67665e-08 0)
(0.0314482 1.52592e-08 0)
(0.0314481 1.36988e-08 0)
(0.031448 1.19935e-08 0)
(0.031448 1.03433e-08 0)
(0.0314479 8.81195e-09 0)
(0.0314479 7.43672e-09 0)
(0.0314478 6.23212e-09 0)
(0.0314478 5.18714e-09 0)
(0.0314478 4.2969e-09 0)
(0.0314477 3.5332e-09 0)
(0.0314477 2.90028e-09 0)
(0.0314477 2.35936e-09 0)
(0.0314477 1.92219e-09 0)
(0.0314477 1.5521e-09 0)
(0.0314477 1.24884e-09 0)
(0.0314476 1.01287e-09 0)
(0.0314476 7.90309e-10 0)
(0.0314476 6.58992e-10 0)
(0.0314476 4.90054e-10 0)
(0.0314476 4.17314e-10 0)
(0.0314476 3.13749e-10 0)
(0.0314476 2.40877e-10 0)
(0.0314476 2.14944e-10 0)
(0.0314476 1.31394e-10 0)
(0.0314476 1.31367e-10 0)
(0.0314476 9.45072e-11 0)
(0.0314476 5.5964e-11 0)
(0.0314476 7.17734e-11 0)
(0.0314476 3.29822e-11 0)
(0.0314476 2.96201e-11 0)
(0.0314476 2.77692e-11 0)
(0.0314476 2.13031e-11 0)
(0.0314476 2.98938e-12 0)
(0.0314476 1.75969e-11 0)
(0.0314476 1.0462e-11 0)
(0.0314476 2.03585e-11 0)
(0.0314476 5.38485e-11 0)
(0.191592 0.00779086 0)
(0.189907 0.0110262 0)
(0.187501 0.0121625 0)
(0.183755 0.011992 0)
(0.178479 0.0113381 0)
(0.171907 0.010431 0)
(0.164594 0.00927141 0)
(0.156938 0.00783866 0)
(0.149323 0.00626858 0)
(0.142012 0.00479686 0)
(0.135146 0.00358561 0)
(0.128831 0.00266238 0)
(0.123122 0.00198439 0)
(0.11804 0.00150911 0)
(0.11356 0.00118798 0)
(0.109638 0.000969352 0)
(0.106212 0.000812452 0)
(0.103217 0.000688024 0)
(0.100609 0.00058008 0)
(0.0983547 0.000484782 0)
(0.0964196 0.00039779 0)
(0.0947744 0.000317212 0)
(0.0934026 0.000242113 0)
(0.0922891 0.000171399 0)
(0.0914153 0.000106764 0)
(0.0907634 5.22565e-05 0)
(0.0903103 6.20402e-06 0)
(0.0900406 -4.268e-05 0)
(0.0899389 -8.73359e-05 0)
(0.0899768 -0.000118601 0)
(0.09012 -0.000133753 0)
(0.0903335 -0.000135814 0)
(0.0905847 -0.000127878 0)
(0.0908479 -0.000113432 0)
(0.0911036 -9.63756e-05 0)
(0.0913397 -7.94112e-05 0)
(0.0915495 -6.42157e-05 0)
(0.0917308 -5.13196e-05 0)
(0.0918837 -4.063e-05 0)
(0.0920098 -3.18835e-05 0)
(0.0921119 -2.48005e-05 0)
(0.0921932 -1.91048e-05 0)
(0.0922568 -1.4557e-05 0)
(0.092306 -1.09657e-05 0)
(0.0923436 -8.16754e-06 0)
(0.0923722 -6.01878e-06 0)
(0.0923938 -4.39423e-06 0)
(0.0924101 -3.18346e-06 0)
(0.0924224 -2.29088e-06 0)
(0.0924316 -1.63765e-06 0)
(0.0924386 -1.16117e-06 0)
(0.0924439 -8.14207e-07 0)
(0.0924479 -5.62273e-07 0)
(0.0924509 -3.79984e-07 0)
(0.0924531 -2.48695e-07 0)
(0.0924548 -1.54876e-07 0)
(0.092456 -8.87041e-08 0)
(0.0924569 -4.30989e-08 0)
(0.0924576 -1.28756e-08 0)
(0.092458 7.95297e-09 0)
(0.0924584 2.19683e-08 0)
(0.0924586 2.98213e-08 0)
(0.0924587 3.32961e-08 0)
(0.0924588 3.36983e-08 0)
(0.0924588 3.22782e-08 0)
(0.0924589 3.07864e-08 0)
(0.0924589 2.85552e-08 0)
(0.0924588 2.57936e-08 0)
(0.0924588 2.28168e-08 0)
(0.0924588 1.98817e-08 0)
(0.0924588 1.71044e-08 0)
(0.0924588 1.45759e-08 0)
(0.0924587 1.22851e-08 0)
(0.0924587 1.03015e-08 0)
(0.0924587 8.54508e-09 0)
(0.0924587 7.0776e-09 0)
(0.0924587 5.8053e-09 0)
(0.0924587 4.73849e-09 0)
(0.0924587 3.88233e-09 0)
(0.0924586 3.08814e-09 0)
(0.0924586 2.56474e-09 0)
(0.0924586 1.97955e-09 0)
(0.0924586 1.64064e-09 0)
(0.0924586 1.2988e-09 0)
(0.0924586 9.79697e-10 0)
(0.0924586 8.72184e-10 0)
(0.0924586 5.93859e-10 0)
(0.0924586 5.03576e-10 0)
(0.0924586 4.53556e-10 0)
(0.0924586 2.21377e-10 0)
(0.0924586 3.19455e-10 0)
(0.0924586 1.65487e-10 0)
(0.0924586 1.27951e-10 0)
(0.0924586 1.44978e-10 0)
(0.0924586 9.51546e-11 0)
(0.0924586 4.21454e-11 0)
(0.0924586 7.61852e-11 0)
(0.0924586 3.92079e-11 0)
(0.0924586 -2.32172e-11 0)
(0.0924586 1.41269e-10 0)
(0.19276 0.00747007 0)
(0.193143 0.0101538 0)
(0.194164 0.011792 0)
(0.195202 0.0123041 0)
(0.195702 0.0121615 0)
(0.195446 0.0116764 0)
(0.194424 0.0109509 0)
(0.19264 0.00999006 0)
(0.190164 0.00882798 0)
(0.187181 0.00762176 0)
(0.183904 0.00654487 0)
(0.180488 0.00566483 0)
(0.177022 0.00494826 0)
(0.173584 0.00435449 0)
(0.170233 0.00385456 0)
(0.16702 0.00342367 0)
(0.163976 0.00304026 0)
(0.161102 0.00269034 0)
(0.158399 0.00236818 0)
(0.155879 0.00206564 0)
(0.153557 0.00177678 0)
(0.15144 0.00150355 0)
(0.149536 0.00124521 0)
(0.147853 0.000999612 0)
(0.146391 0.000770123 0)
(0.145151 0.000560773 0)
(0.144128 0.000368247 0)
(0.143312 0.000193649 0)
(0.142691 4.05518e-05 0)
(0.14225 -8.04127e-05 0)
(0.141968 -0.000166018 0)
(0.14182 -0.000218683 0)
(0.141779 -0.000243972 0)
(0.141821 -0.000246746 0)
(0.141921 -0.000233565 0)
(0.142059 -0.000210603 0)
(0.142219 -0.000183142 0)
(0.142387 -0.000154657 0)
(0.142552 -0.000127296 0)
(0.142705 -0.000102415 0)
(0.142842 -8.07871e-05 0)
(0.14296 -6.26563e-05 0)
(0.143058 -4.79108e-05 0)
(0.143138 -3.62352e-05 0)
(0.143201 -2.7194e-05 0)
(0.14325 -2.03136e-05 0)
(0.143287 -1.5145e-05 0)
(0.143316 -1.12931e-05 0)
(0.143338 -8.43136e-06 0)
(0.143354 -6.30379e-06 0)
(0.143367 -4.716e-06 0)
(0.143377 -3.52544e-06 0)
(0.143384 -2.62902e-06 0)
(0.14339 -1.95185e-06 0)
(0.143394 -1.43963e-06 0)
(0.143398 -1.05243e-06 0)
(0.143401 -7.60636e-07 0)
(0.143403 -5.42046e-07 0)
(0.143404 -3.7915e-07 0)
(0.143405 -2.58773e-07 0)
(0.143406 -1.71045e-07 0)
(0.143407 -1.08026e-07 0)
(0.143407 -6.34953e-08 0)
(0.143408 -3.27913e-08 0)
(0.143408 -1.22149e-08 0)
(0.143408 2.05854e-09 0)
(0.143408 1.11191e-08 0)
(0.143409 1.62984e-08 0)
(0.143409 1.87395e-08 0)
(0.143409 1.93816e-08 0)
(0.143409 1.88553e-08 0)
(0.143409 1.76445e-08 0)
(0.143409 1.60135e-08 0)
(0.143409 1.42691e-08 0)
(0.143409 1.24476e-08 0)
(0.143409 1.07776e-08 0)
(0.143409 9.15886e-09 0)
(0.143409 7.76653e-09 0)
(0.143409 6.49536e-09 0)
(0.143409 5.39025e-09 0)
(0.143409 4.48944e-09 0)
(0.143409 3.63579e-09 0)
(0.143409 3.023e-09 0)
(0.143409 2.42705e-09 0)
(0.143409 1.9716e-09 0)
(0.143409 1.60105e-09 0)
(0.143409 1.30463e-09 0)
(0.143409 9.63309e-10 0)
(0.143409 9.4606e-10 0)
(0.143409 5.30752e-10 0)
(0.143409 6.24426e-10 0)
(0.143409 4.12732e-10 0)
(0.143409 2.95605e-10 0)
(0.143409 3.2447e-10 0)
(0.143409 2.30342e-10 0)
(0.143409 1.37343e-10 0)
(0.143409 1.69283e-10 0)
(0.143409 1.24523e-10 0)
(0.143409 -5.40684e-11 0)
(0.143409 2.06167e-10 0)
(0.193908 0.00705496 0)
(0.19419 0.00889977 0)
(0.195152 0.010393 0)
(0.19658 0.011156 0)
(0.198029 0.0112656 0)
(0.199236 0.0109676 0)
(0.200116 0.0104682 0)
(0.200587 0.0098352 0)
(0.20057 0.0090596 0)
(0.200087 0.00818905 0)
(0.199257 0.00733633 0)
(0.198209 0.00659882 0)
(0.197018 0.00600452 0)
(0.195722 0.00551174 0)
(0.194344 0.00506904 0)
(0.192928 0.00465372 0)
(0.191521 0.00426166 0)
(0.190137 0.00389357 0)
(0.188767 0.00354684 0)
(0.187412 0.00320936 0)
(0.186087 0.00287218 0)
(0.184808 0.00253719 0)
(0.183589 0.00220728 0)
(0.182438 0.00188199 0)
(0.181367 0.00156549 0)
(0.180388 0.00126485 0)
(0.179506 0.000982447 0)
(0.17872 0.000716861 0)
(0.178031 0.000473321 0)
(0.177442 0.000263704 0)
(0.176952 9.3407e-05 0)
(0.176559 -3.35232e-05 0)
(0.176258 -0.000120111 0)
(0.176039 -0.000176336 0)
(0.175892 -0.000208774 0)
(0.175806 -0.000222242 0)
(0.175771 -0.000222034 0)
(0.175777 -0.000212006 0)
(0.175818 -0.000194844 0)
(0.175883 -0.000172905 0)
(0.175962 -0.000148505 0)
(0.176047 -0.000123725 0)
(0.176131 -0.000100264 0)
(0.176208 -7.93204e-05 0)
(0.176275 -6.15204e-05 0)
(0.176332 -4.69983e-05 0)
(0.176378 -3.55411e-05 0)
(0.176414 -2.67295e-05 0)
(0.176442 -2.00698e-05 0)
(0.176463 -1.5087e-05 0)
(0.17648 -1.1371e-05 0)
(0.176492 -8.5954e-06 0)
(0.176502 -6.51296e-06 0)
(0.176509 -4.94087e-06 0)
(0.176515 -3.74723e-06 0)
(0.176519 -2.83679e-06 0)
(0.176523 -2.14039e-06 0)
(0.176526 -1.60782e-06 0)
(0.176528 -1.201e-06 0)
(0.176529 -8.90898e-07 0)
(0.176531 -6.55526e-07 0)
(0.176532 -4.77785e-07 0)
(0.176532 -3.44214e-07 0)
(0.176533 -2.44466e-07 0)
(0.176533 -1.70603e-07 0)
(0.176534 -1.16634e-07 0)
(0.176534 -7.73713e-08 0)
(0.176534 -4.92109e-08 0)
(0.176534 -2.93562e-08 0)
(0.176535 -1.56008e-08 0)
(0.176535 -6.31159e-09 0)
(0.176535 -2.35877e-10 0)
(0.176535 3.4935e-09 0)
(0.176535 5.69306e-09 0)
(0.176535 6.67527e-09 0)
(0.176535 7.09389e-09 0)
(0.176535 6.81129e-09 0)
(0.176535 6.52283e-09 0)
(0.176535 5.80781e-09 0)
(0.176535 5.24564e-09 0)
(0.176535 4.59129e-09 0)
(0.176535 3.85635e-09 0)
(0.176535 3.48618e-09 0)
(0.176535 2.70442e-09 0)
(0.176535 2.49886e-09 0)
(0.176535 1.91874e-09 0)
(0.176535 1.69307e-09 0)
(0.176535 1.31905e-09 0)
(0.176535 1.21194e-09 0)
(0.176535 8.16671e-10 0)
(0.176535 8.55481e-10 0)
(0.176535 6.08831e-10 0)
(0.176535 4.82322e-10 0)
(0.176535 4.66751e-10 0)
(0.176535 3.86464e-10 0)
(0.176535 2.37858e-10 0)
(0.176535 2.92151e-10 0)
(0.176535 2.21423e-10 0)
(0.176535 8.91615e-11 0)
(0.176535 2.36307e-10 0)
(0.194906 0.00676466 0)
(0.195129 0.00810896 0)
(0.195838 0.00932108 0)
(0.196973 0.0101158 0)
(0.198266 0.01038 0)
(0.199491 0.0102055 0)
(0.200547 0.00980221 0)
(0.201382 0.00931525 0)
(0.201943 0.00875134 0)
(0.202214 0.00809504 0)
(0.202232 0.00739704 0)
(0.20207 0.00674706 0)
(0.201799 0.00621095 0)
(0.201459 0.00578013 0)
(0.201063 0.0053957 0)
(0.200626 0.00501449 0)
(0.200178 0.00463681 0)
(0.199735 0.00428067 0)
(0.199287 0.00394755 0)
(0.198822 0.00362104 0)
(0.19834 0.00328999 0)
(0.197851 0.00295584 0)
(0.19736 0.00262077 0)
(0.196867 0.00228553 0)
(0.19638 0.00195602 0)
(0.195906 0.00163887 0)
(0.195449 0.00133534 0)
(0.195008 0.00104515 0)
(0.194586 0.000776055 0)
(0.194187 0.00053801 0)
(0.193818 0.000337026 0)
(0.193489 0.000175111 0)
(0.193203 5.17473e-05 0)
(0.19296 -3.75674e-05 0)
(0.192762 -9.81711e-05 0)
(0.192605 -0.000138518 0)
(0.192483 -0.000163677 0)
(0.192395 -0.000176938 0)
(0.192338 -0.000180482 0)
(0.192308 -0.000175898 0)
(0.192302 -0.000164696 0)
(0.192316 -0.000148534 0)
(0.192342 -0.000129316 0)
(0.192375 -0.000108996 0)
(0.192411 -8.92492e-05 0)
(0.192445 -7.12868e-05 0)
(0.192476 -5.58048e-05 0)
(0.192503 -4.3027e-05 0)
(0.192525 -3.28331e-05 0)
(0.192542 -2.4905e-05 0)
(0.192556 -1.88456e-05 0)
(0.192567 -1.42634e-05 0)
(0.192575 -1.08148e-05 0)
(0.192581 -8.21861e-06 0)
(0.192586 -6.25811e-06 0)
(0.19259 -4.77101e-06 0)
(0.192593 -3.63771e-06 0)
(0.192595 -2.7712e-06 0)
(0.192597 -2.10707e-06 0)
(0.192598 -1.59734e-06 0)
(0.192599 -1.20637e-06 0)
(0.1926 -9.06989e-07 0)
(0.192601 -6.78091e-07 0)
(0.192601 -5.03619e-07 0)
(0.192602 -3.71312e-07 0)
(0.192602 -2.71571e-07 0)
(0.192602 -1.96587e-07 0)
(0.192603 -1.40586e-07 0)
(0.192603 -9.90747e-08 0)
(0.192603 -6.85386e-08 0)
(0.192603 -4.62957e-08 0)
(0.192603 -3.0261e-08 0)
(0.192603 -1.89402e-08 0)
(0.192603 -1.09175e-08 0)
(0.192603 -5.60482e-09 0)
(0.192603 -1.80955e-09 0)
(0.192603 3.0145e-10 0)
(0.192603 1.94452e-09 0)
(0.192603 2.54732e-09 0)
(0.192603 2.98891e-09 0)
(0.192603 3.14529e-09 0)
(0.192603 2.78148e-09 0)
(0.192603 2.99191e-09 0)
(0.192603 2.26669e-09 0)
(0.192603 2.38496e-09 0)
(0.192603 1.88257e-09 0)
(0.192603 1.67073e-09 0)
(0.192603 1.47817e-09 0)
(0.192603 1.25261e-09 0)
(0.192603 9.76705e-10 0)
(0.192603 9.77757e-10 0)
(0.192603 7.05811e-10 0)
(0.192603 6.41786e-10 0)
(0.192603 5.37034e-10 0)
(0.192603 5.16147e-10 0)
(0.192603 3.16745e-10 0)
(0.192603 4.18695e-10 0)
(0.192603 3.04512e-10 0)
(0.192603 3.44462e-10 0)
(0.192603 2.27357e-10 0)
(0.195781 0.00653461 0)
(0.195975 0.00757826 0)
(0.196508 0.00852601 0)
(0.197364 0.00923827 0)
(0.19838 0.00959681 0)
(0.199408 0.00955891 0)
(0.200346 0.00925792 0)
(0.201112 0.00886987 0)
(0.201686 0.00843015 0)
(0.202091 0.00790529 0)
(0.202322 0.00732176 0)
(0.202385 0.00674822 0)
(0.202342 0.00624458 0)
(0.202261 0.00583204 0)
(0.202162 0.00547153 0)
(0.202045 0.00510713 0)
(0.201923 0.00473403 0)
(0.201807 0.00438217 0)
(0.201692 0.00405583 0)
(0.201569 0.00373444 0)
(0.201438 0.00340857 0)
(0.201294 0.00308168 0)
(0.201137 0.00275399 0)
(0.200968 0.00242573 0)
(0.200788 0.00210327 0)
(0.2006 0.0017925 0)
(0.200401 0.00149406 0)
(0.200189 0.00120907 0)
(0.19997 0.000943445 0)
(0.199747 0.000705754 0)
(0.199526 0.000501838 0)
(0.19931 0.00033066 0)
(0.199109 0.000190546 0)
(0.198929 8.30846e-05 0)
(0.198771 5.27377e-06 0)
(0.198634 -5.02743e-05 0)
(0.198518 -9.02001e-05 0)
(0.198421 -0.000118165 0)
(0.198343 -0.000136075 0)
(0.198282 -0.0001451 0)
(0.198238 -0.000146213 0)
(0.198209 -0.000140429 0)
(0.198193 -0.000129193 0)
(0.198188 -0.000114322 0)
(0.19819 -9.76966e-05 0)
(0.198196 -8.09846e-05 0)
(0.198205 -6.54305e-05 0)
(0.198215 -5.17799e-05 0)
(0.198224 -4.03352e-05 0)
(0.198232 -3.10723e-05 0)
(0.198239 -2.37698e-05 0)
(0.198245 -1.812e-05 0)
(0.19825 -1.38019e-05 0)
(0.198253 -1.05219e-05 0)
(0.198256 -8.03478e-06 0)
(0.198258 -6.1461e-06 0)
(0.19826 -4.70761e-06 0)
(0.198262 -3.60836e-06 0)
(0.198263 -2.7654e-06 0)
(0.198264 -2.11703e-06 0)
(0.198264 -1.61768e-06 0)
(0.198265 -1.23299e-06 0)
(0.198265 -9.36587e-07 0)
(0.198266 -7.08515e-07 0)
(0.198266 -5.33504e-07 0)
(0.198266 -3.99603e-07 0)
(0.198266 -2.97384e-07 0)
(0.198267 -2.19702e-07 0)
(0.198267 -1.60938e-07 0)
(0.198267 -1.16701e-07 0)
(0.198267 -8.3617e-08 0)
(0.198267 -5.90238e-08 0)
(0.198267 -4.10083e-08 0)
(0.198267 -2.77321e-08 0)
(0.198267 -1.83833e-08 0)
(0.198267 -1.14212e-08 0)
(0.198267 -6.89457e-09 0)
(0.198267 -3.40874e-09 0)
(0.198267 -1.33446e-09 0)
(0.198267 8.60402e-11 0)
(0.198267 1.18372e-09 0)
(0.198267 1.28156e-09 0)
(0.198267 2.0565e-09 0)
(0.198267 1.59977e-09 0)
(0.198267 1.9265e-09 0)
(0.198267 1.69764e-09 0)
(0.198267 1.44378e-09 0)
(0.198267 1.49917e-09 0)
(0.198267 1.18837e-09 0)
(0.198267 1.03114e-09 0)
(0.198267 1.02936e-09 0)
(0.198267 7.37381e-10 0)
(0.198267 7.40579e-10 0)
(0.198267 5.80508e-10 0)
(0.198267 5.78578e-10 0)
(0.198267 3.91263e-10 0)
(0.198267 4.8896e-10 0)
(0.198267 3.69268e-10 0)
(0.198267 4.88627e-10 0)
(0.198267 2.01166e-10 0)
(0.196554 0.00631713 0)
(0.196721 0.0071513 0)
(0.197133 0.00790082 0)
(0.197784 0.00849102 0)
(0.198544 0.0088646 0)
(0.199342 0.00894071 0)
(0.200136 0.00875369 0)
(0.200811 0.00845596 0)
(0.20131 0.00810972 0)
(0.201693 0.00767846 0)
(0.201971 0.00718288 0)
(0.202092 0.00669055 0)
(0.2021 0.00623615 0)
(0.20208 0.00583325 0)
(0.202056 0.00547554 0)
(0.202016 0.00512499 0)
(0.201975 0.00476181 0)
(0.201941 0.00441013 0)
(0.201903 0.00408556 0)
(0.201863 0.00376892 0)
(0.201824 0.00344551 0)
(0.20178 0.00312307 0)
(0.201719 0.00280581 0)
(0.201646 0.00248761 0)
(0.201567 0.00217136 0)
(0.201478 0.00186803 0)
(0.201373 0.00158068 0)
(0.201251 0.00130684 0)
(0.201118 0.0010504 0)
(0.200979 0.000819355 0)
(0.200833 0.000616833 0)
(0.200684 0.000442691 0)
(0.200538 0.000297703 0)
(0.200403 0.00018129 0)
(0.200281 9.08976e-05 0)
(0.200172 2.34238e-05 0)
(0.200076 -2.64423e-05 0)
(0.199993 -6.3196e-05 0)
(0.199922 -8.96607e-05 0)
(0.199862 -0.000106927 0)
(0.199812 -0.000115955 0)
(0.199772 -0.000117625 0)
(0.199741 -0.000113139 0)
(0.199719 -0.000104015 0)
(0.199704 -9.19402e-05 0)
(0.199695 -7.85581e-05 0)
(0.19969 -6.52246e-05 0)
(0.199688 -5.28838e-05 0)
(0.199687 -4.2074e-05 0)
(0.199688 -3.29973e-05 0)
(0.19969 -2.56173e-05 0)
(0.199692 -1.97595e-05 0)
(0.199693 -1.51888e-05 0)
(0.199694 -1.1662e-05 0)
(0.199696 -8.95746e-06 0)
(0.199697 -6.88773e-06 0)
(0.199698 -5.3034e-06 0)
(0.199698 -4.0884e-06 0)
(0.199699 -3.15389e-06 0)
(0.199699 -2.43301e-06 0)
(0.1997 -1.87567e-06 0)
(0.1997 -1.44394e-06 0)
(0.1997 -1.10911e-06 0)
(0.199701 -8.49526e-07 0)
(0.199701 -6.48503e-07 0)
(0.199701 -4.93037e-07 0)
(0.199701 -3.73009e-07 0)
(0.199701 -2.80645e-07 0)
(0.199701 -2.09797e-07 0)
(0.199701 -1.55655e-07 0)
(0.199701 -1.14503e-07 0)
(0.199701 -8.33601e-08 0)
(0.199701 -6.00706e-08 0)
(0.199701 -4.25717e-08 0)
(0.199701 -2.98505e-08 0)
(0.199701 -2.02619e-08 0)
(0.199701 -1.35957e-08 0)
(0.199702 -8.55787e-09 0)
(0.199702 -5.11109e-09 0)
(0.199702 -2.82132e-09 0)
(0.199702 -8.63669e-10 0)
(0.199702 -2.52885e-10 0)
(0.199702 9.59574e-10 0)
(0.199702 8.99125e-10 0)
(0.199702 1.33272e-09 0)
(0.199702 1.44119e-09 0)
(0.199702 1.15822e-09 0)
(0.199702 1.41444e-09 0)
(0.199702 1.10915e-09 0)
(0.199702 9.95126e-10 0)
(0.199702 1.05502e-09 0)
(0.199702 7.31277e-10 0)
(0.199702 7.77411e-10 0)
(0.199702 6.25511e-10 0)
(0.199702 5.79166e-10 0)
(0.199702 4.60217e-10 0)
(0.199702 5.04228e-10 0)
(0.199702 4.0006e-10 0)
(0.199702 4.86591e-10 0)
(0.199702 1.96659e-10 0)
(0.197248 0.00610618 0)
(0.197385 0.00678185 0)
(0.19769 0.00738839 0)
(0.198188 0.00786605 0)
(0.198758 0.00820373 0)
(0.199343 0.00835269 0)
(0.199975 0.00827456 0)
(0.20056 0.00805612 0)
(0.200983 0.00778767 0)
(0.201307 0.00744397 0)
(0.20158 0.00701966 0)
(0.20173 0.00659225 0)
(0.201754 0.00619741 0)
(0.201756 0.00581655 0)
(0.201765 0.00545578 0)
(0.201748 0.00511747 0)
(0.201719 0.00477396 0)
(0.201706 0.00442593 0)
(0.201693 0.0040997 0)
(0.201669 0.00378735 0)
(0.201648 0.00346661 0)
(0.201628 0.00314576 0)
(0.201589 0.00283728 0)
(0.201534 0.0025313 0)
(0.20148 0.00222277 0)
(0.201426 0.0019248 0)
(0.201355 0.00164575 0)
(0.201262 0.00138201 0)
(0.201161 0.00113341 0)
(0.201058 0.000906622 0)
(0.200948 0.000707267 0)
(0.200834 0.000535002 0)
(0.20072 0.000387676 0)
(0.200613 0.000265951 0)
(0.200515 0.000169063 0)
(0.200426 9.30771e-05 0)
(0.200346 3.43829e-05 0)
(0.200276 -1.04329e-05 0)
(0.200215 -4.36946e-05 0)
(0.200162 -6.75283e-05 0)
(0.200116 -8.29189e-05 0)
(0.200078 -9.0634e-05 0)
(0.200046 -9.18114e-05 0)
(0.20002 -8.78127e-05 0)
(0.200001 -8.01783e-05 0)
(0.199986 -7.04597e-05 0)
(0.199976 -5.99876e-05 0)
(0.199969 -4.9753e-05 0)
(0.199964 -4.03982e-05 0)
(0.199962 -3.2261e-05 0)
(0.19996 -2.54448e-05 0)
(0.19996 -1.98949e-05 0)
(0.199959 -1.54689e-05 0)
(0.199959 -1.19916e-05 0)
(0.19996 -9.2862e-06 0)
(0.19996 -7.19237e-06 0)
(0.19996 -5.57555e-06 0)
(0.19996 -4.32688e-06 0)
(0.199961 -3.36079e-06 0)
(0.199961 -2.61176e-06 0)
(0.199961 -2.02972e-06 0)
(0.199961 -1.57623e-06 0)
(0.199962 -1.22222e-06 0)
(0.199962 -9.4573e-07 0)
(0.199962 -7.29804e-07 0)
(0.199962 -5.61257e-07 0)
(0.199962 -4.29865e-07 0)
(0.199962 -3.2768e-07 0)
(0.199962 -2.48403e-07 0)
(0.199962 -1.87091e-07 0)
(0.199962 -1.39903e-07 0)
(0.199962 -1.03718e-07 0)
(0.199962 -7.62523e-08 0)
(0.199962 -5.53605e-08 0)
(0.199962 -3.98413e-08 0)
(0.199962 -2.80821e-08 0)
(0.199962 -1.95656e-08 0)
(0.199962 -1.32077e-08 0)
(0.199962 -8.55838e-09 0)
(0.199962 -5.47089e-09 0)
(0.199962 -2.81033e-09 0)
(0.199962 -1.63881e-09 0)
(0.199962 -1.35775e-10 0)
(0.199962 2.66807e-10 0)
(0.199962 7.44698e-10 0)
(0.199962 1.16406e-09 0)
(0.199962 9.16722e-10 0)
(0.199962 1.26049e-09 0)
(0.199962 1.07013e-09 0)
(0.199962 9.12498e-10 0)
(0.199962 1.07339e-09 0)
(0.199962 7.25202e-10 0)
(0.199962 7.76188e-10 0)
(0.199962 6.76322e-10 0)
(0.199962 5.60693e-10 0)
(0.199962 5.07483e-10 0)
(0.199962 5.0858e-10 0)
(0.199962 3.97529e-10 0)
(0.199962 4.40539e-10 0)
(0.199962 2.15167e-10 0)
(0.197838 0.00592051 0)
(0.197946 0.00647396 0)
(0.198165 0.00698187 0)
(0.198545 0.00738251 0)
(0.198987 0.00766964 0)
(0.199409 0.00784587 0)
(0.199874 0.00785237 0)
(0.200363 0.00769914 0)
(0.200732 0.00748695 0)
(0.200983 0.00722436 0)
(0.201215 0.00687137 0)
(0.20138 0.00648989 0)
(0.201422 0.00613852 0)
(0.201427 0.00578734 0)
(0.201453 0.00543158 0)
(0.201454 0.00510284 0)
(0.201426 0.00478222 0)
(0.201417 0.00444496 0)
(0.201421 0.00411508 0)
(0.201403 0.00380432 0)
(0.201382 0.00349011 0)
(0.201371 0.00317064 0)
(0.201346 0.0028638 0)
(0.201297 0.00256698 0)
(0.20125 0.00226909 0)
(0.201212 0.00197774 0)
(0.201158 0.00170535 0)
(0.201082 0.00145112 0)
(0.201 0.00121084 0)
(0.20092 0.000988554 0)
(0.200837 0.000790544 0)
(0.200746 0.000616964 0)
(0.200653 0.000466394 0)
(0.200566 0.000339485 0)
(0.200486 0.000235687 0)
(0.200412 0.000152475 0)
(0.200345 8.62992e-05 0)
(0.200287 3.44662e-05 0)
(0.200236 -4.71089e-06 0)
(0.200191 -3.34559e-05 0)
(0.200152 -5.33463e-05 0)
(0.200119 -6.5408e-05 0)
(0.20009 -7.0789e-05 0)
(0.200066 -7.07484e-05 0)
(0.200047 -6.67588e-05 0)
(0.200032 -6.02814e-05 0)
(0.200021 -5.25582e-05 0)
(0.200012 -4.45435e-05 0)
(0.200006 -3.68963e-05 0)
(0.200002 -3.00121e-05 0)
(0.199999 -2.40769e-05 0)
(0.199998 -1.91222e-05 0)
(0.199996 -1.50828e-05 0)
(0.199996 -1.18468e-05 0)
(0.199995 -9.28566e-06 0)
(0.199995 -7.2743e-06 0)
(0.199995 -5.70086e-06 0)
(0.199995 -4.47096e-06 0)
(0.199995 -3.50881e-06 0)
(0.199995 -2.75505e-06 0)
(0.199995 -2.16328e-06 0)
(0.199995 -1.69748e-06 0)
(0.199995 -1.33015e-06 0)
(0.199995 -1.04023e-06 0)
(0.199996 -8.11338e-07 0)
(0.199996 -6.3073e-07 0)
(0.199996 -4.88421e-07 0)
(0.199996 -3.76518e-07 0)
(0.199996 -2.8874e-07 0)
(0.199996 -2.20115e-07 0)
(0.199996 -1.66719e-07 0)
(0.199996 -1.2532e-07 0)
(0.199996 -9.3498e-08 0)
(0.199996 -6.90536e-08 0)
(0.199996 -5.05853e-08 0)
(0.199996 -3.65251e-08 0)
(0.199996 -2.60635e-08 0)
(0.199996 -1.82727e-08 0)
(0.199996 -1.23909e-08 0)
(0.199996 -8.39207e-09 0)
(0.199996 -5.04213e-09 0)
(0.199996 -3.20928e-09 0)
(0.199996 -1.41909e-09 0)
(0.199996 -5.14898e-10 0)
(0.199996 6.28024e-11 0)
(0.199996 7.54571e-10 0)
(0.199996 6.41624e-10 0)
(0.199996 1.01128e-09 0)
(0.199996 1.00553e-09 0)
(0.199996 7.92473e-10 0)
(0.199996 1.04422e-09 0)
(0.199996 7.24246e-10 0)
(0.199996 7.34399e-10 0)
(0.199996 7.15878e-10 0)
(0.199996 5.47881e-10 0)
(0.199996 5.17988e-10 0)
(0.199996 5.18049e-10 0)
(0.199996 3.84449e-10 0)
(0.199996 4.04106e-10 0)
(0.199996 2.34801e-10 0)
(0.198392 0.00576942 0)
(0.198479 0.00622888 0)
(0.198622 0.00665736 0)
(0.198884 0.00700484 0)
(0.199218 0.00725123 0)
(0.199522 0.00741521 0)
(0.199827 0.00746776 0)
(0.200192 0.00737994 0)
(0.200506 0.00721081 0)
(0.200695 0.00699794 0)
(0.200862 0.00671216 0)
(0.20102 0.00637999 0)
(0.201075 0.00606008 0)
(0.201075 0.00574067 0)
(0.201113 0.00540144 0)
(0.201138 0.00507147 0)
(0.201108 0.00476032 0)
(0.201089 0.00444494 0)
(0.201105 0.0041274 0)
(0.201102 0.0038203 0)
(0.201081 0.00351177 0)
(0.201073 0.0031956 0)
(0.201061 0.00288904 0)
(0.20102 0.00259934 0)
(0.200979 0.00231515 0)
(0.200955 0.00203399 0)
(0.200922 0.00176608 0)
(0.200863 0.00151584 0)
(0.200796 0.00128046 0)
(0.200734 0.00106125 0)
(0.200673 0.000862667 0)
(0.200603 0.000686881 0)
(0.200532 0.000534209 0)
(0.200467 0.000403881 0)
(0.200406 0.000294838 0)
(0.20035 0.000205568 0)
(0.200299 0.000133519 0)
(0.200253 7.6161e-05 0)
(0.200213 3.11095e-05 0)
(0.200177 -2.87517e-06 0)
(0.200145 -2.65548e-05 0)
(0.200118 -4.2224e-05 0)
(0.200094 -5.11511e-05 0)
(0.200074 -5.44332e-05 0)
(0.200057 -5.34889e-05 0)
(0.200043 -4.97208e-05 0)
(0.200032 -4.43175e-05 0)
(0.200023 -3.82182e-05 0)
(0.200016 -3.21017e-05 0)
(0.200011 -2.64071e-05 0)
(0.200008 -2.13757e-05 0)
(0.200005 -1.7097e-05 0)
(0.200003 -1.35601e-05 0)
(0.200002 -1.06978e-05 0)
(0.200001 -8.41618e-06 0)
(0.2 -6.61594e-06 0)
(0.2 -5.20373e-06 0)
(0.2 -4.09783e-06 0)
(0.199999 -3.23137e-06 0)
(0.199999 -2.55122e-06 0)
(0.199999 -2.01559e-06 0)
(0.199999 -1.59229e-06 0)
(0.199999 -1.25679e-06 0)
(0.199999 -9.90294e-07 0)
(0.199999 -7.78281e-07 0)
(0.199999 -6.0963e-07 0)
(0.2 -4.75616e-07 0)
(0.2 -3.69286e-07 0)
(0.2 -2.85115e-07 0)
(0.2 -2.18731e-07 0)
(0.2 -1.66643e-07 0)
(0.2 -1.25944e-07 0)
(0.2 -9.44033e-08 0)
(0.2 -7.00382e-08 0)
(0.2 -5.14537e-08 0)
(0.2 -3.72874e-08 0)
(0.2 -2.66128e-08 0)
(0.2 -1.86937e-08 0)
(0.2 -1.26614e-08 0)
(0.2 -8.51373e-09 0)
(0.2 -5.15389e-09 0)
(0.2 -3.11534e-09 0)
(0.2 -1.41906e-09 0)
(0.2 -3.43361e-10 0)
(0.2 1.77648e-10 0)
(0.2 8.67414e-10 0)
(0.2 8.37868e-10 0)
(0.2 1.06135e-09 0)
(0.2 1.15609e-09 0)
(0.2 8.7973e-10 0)
(0.2 1.08906e-09 0)
(0.2 8.39826e-10 0)
(0.2 7.49994e-10 0)
(0.2 7.78506e-10 0)
(0.2 5.91806e-10 0)
(0.2 5.30685e-10 0)
(0.2 5.46213e-10 0)
(0.2 3.92307e-10 0)
(0.2 3.92794e-10 0)
(0.2 2.56504e-10 0)
(0.198975 0.00564957 0)
(0.199032 0.00603179 0)
(0.199107 0.00639063 0)
(0.199259 0.00669758 0)
(0.199472 0.00691848 0)
(0.199659 0.00705587 0)
(0.199827 0.00712228 0)
(0.200053 0.00709143 0)
(0.200274 0.00695993 0)
(0.200393 0.00677377 0)
(0.20049 0.00654733 0)
(0.20062 0.00626775 0)
(0.200683 0.00596285 0)
(0.200671 0.00566469 0)
(0.200689 0.0053614 0)
(0.200726 0.00504349 0)
(0.200721 0.00472845 0)
(0.200713 0.00442198 0)
(0.200732 0.00411544 0)
(0.200728 0.00381163 0)
(0.2007 0.00351473 0)
(0.200696 0.00321805 0)
(0.200705 0.00292063 0)
(0.200686 0.00263134 0)
(0.200655 0.00235238 0)
(0.200638 0.00207867 0)
(0.20062 0.0018122 0)
(0.20058 0.00156198 0)
(0.200533 0.00133257 0)
(0.200495 0.00112179 0)
(0.200461 0.000928391 0)
(0.20042 0.000754985 0)
(0.200376 0.000603149 0)
(0.200334 0.000471691 0)
(0.200296 0.000359321 0)
(0.20026 0.000264758 0)
(0.200226 0.000186474 0)
(0.200195 0.000122732 0)
(0.200169 7.17213e-05 0)
(0.200146 3.23261e-05 0)
(0.200125 3.29171e-06 0)
(0.200105 -1.68425e-05 0)
(0.200088 -2.9547e-05 0)
(0.200074 -3.638e-05 0)
(0.200061 -3.88211e-05 0)
(0.200049 -3.81766e-05 0)
(0.20004 -3.55528e-05 0)
(0.200032 -3.18384e-05 0)
(0.200025 -2.76919e-05 0)
(0.200019 -2.35602e-05 0)
(0.200015 -1.9717e-05 0)
(0.200011 -1.63026e-05 0)
(0.200008 -1.33648e-05 0)
(0.200006 -1.08935e-05 0)
(0.200004 -8.84721e-06 0)
(0.200003 -7.17002e-06 0)
(0.200002 -5.80327e-06 0)
(0.200002 -4.6927e-06 0)
(0.200001 -3.7913e-06 0)
(0.200001 -3.05957e-06 0)
(0.200001 -2.46503e-06 0)
(0.2 -1.98174e-06 0)
(0.2 -1.58903e-06 0)
(0.2 -1.2701e-06 0)
(0.2 -1.01146e-06 0)
(0.2 -8.02225e-07 0)
(0.2 -6.33481e-07 0)
(0.2 -4.97814e-07 0)
(0.2 -3.89143e-07 0)
(0.2 -3.02477e-07 0)
(0.2 -2.33709e-07 0)
(0.2 -1.79403e-07 0)
(0.2 -1.36799e-07 0)
(0.2 -1.03544e-07 0)
(0.2 -7.77839e-08 0)
(0.2 -5.79388e-08 0)
(0.2 -4.27121e-08 0)
(0.2 -3.12149e-08 0)
(0.2 -2.23903e-08 0)
(0.2 -1.59726e-08 0)
(0.2 -1.09992e-08 0)
(0.2 -7.47648e-09 0)
(0.2 -4.84285e-09 0)
(0.2 -2.87677e-09 0)
(0.2 -1.72039e-09 0)
(0.2 -6.36662e-10 0)
(0.2 -1.40846e-10 0)
(0.2 2.1658e-10 0)
(0.2 6.07448e-10 0)
(0.2 5.12894e-10 0)
(0.2 7.23869e-10 0)
(0.2 6.99586e-10 0)
(0.2 5.78574e-10 0)
(0.2 6.59617e-10 0)
(0.2 5.55202e-10 0)
(0.2 4.58567e-10 0)
(0.2 5.05818e-10 0)
(0.2 3.72805e-10 0)
(0.2 3.56899e-10 0)
(0.2 2.50486e-10 0)
(0.1996 0.00558082 0)
(0.199619 0.00591593 0)
(0.199641 0.00623255 0)
(0.199686 0.00651123 0)
(0.199755 0.00671562 0)
(0.199823 0.00683653 0)
(0.199878 0.00689959 0)
(0.199947 0.00689489 0)
(0.200027 0.00679037 0)
(0.200081 0.00661824 0)
(0.200116 0.00642025 0)
(0.200157 0.00617561 0)
(0.200185 0.00588391 0)
(0.200198 0.00559277 0)
(0.200217 0.00530608 0)
(0.200227 0.00499866 0)
(0.200213 0.00468991 0)
(0.200211 0.00439841 0)
(0.200237 0.00409982 0)
(0.200256 0.00378712 0)
(0.200254 0.00348573 0)
(0.200251 0.00319748 0)
(0.200251 0.00290506 0)
(0.200239 0.00261543 0)
(0.200225 0.00234442 0)
(0.200223 0.00208594 0)
(0.200228 0.00183039 0)
(0.200225 0.00158589 0)
(0.200217 0.0013623 0)
(0.200209 0.00115692 0)
(0.200201 0.00096531 0)
(0.200189 0.000790351 0)
(0.200174 0.000636399 0)
(0.200161 0.000503337 0)
(0.20015 0.000388678 0)
(0.200139 0.000291105 0)
(0.200129 0.00020996 0)
(0.200121 0.000143881 0)
(0.200113 9.13602e-05 0)
(0.200106 5.09021e-05 0)
(0.200098 2.09174e-05 0)
(0.200091 4.25467e-07 0)
(0.200084 -1.23234e-05 0)
(0.200077 -1.92649e-05 0)
(0.200069 -2.20121e-05 0)
(0.200062 -2.19102e-05 0)
(0.200055 -2.00811e-05 0)
(0.200048 -1.73921e-05 0)
(0.200041 -1.44538e-05 0)
(0.200035 -1.16492e-05 0)
(0.20003 -9.18084e-06 0)
(0.200025 -7.12809e-06 0)
(0.200021 -5.492e-06 0)
(0.200017 -4.22723e-06 0)
(0.200014 -3.26951e-06 0)
(0.200012 -2.55262e-06 0)
(0.200009 -2.01718e-06 0)
(0.200008 -1.61462e-06 0)
(0.200006 -1.30749e-06 0)
(0.200005 -1.06814e-06 0)
(0.200004 -8.77209e-07 0)
(0.200003 -7.21778e-07 0)
(0.200002 -5.93214e-07 0)
(0.200002 -4.85658e-07 0)
(0.200002 -3.95183e-07 0)
(0.200001 -3.19113e-07 0)
(0.200001 -2.55364e-07 0)
(0.200001 -2.0223e-07 0)
(0.200001 -1.58304e-07 0)
(0.2 -1.22346e-07 0)
(0.2 -9.32213e-08 0)
(0.2 -6.98908e-08 0)
(0.2 -5.1451e-08 0)
(0.2 -3.70527e-08 0)
(0.2 -2.59597e-08 0)
(0.2 -1.7551e-08 0)