/*--------------------------------*- C++ -*----------------------------------*\
| =========                 |                                                 |
| \\      /  F ield         | OpenFOAM: The Open Source CFD Toolbox           |
|  \\    /   O peration     | Version:  2.3.0                                 |
|   \\  /    A nd           | Web:      www.OpenFOAM.org                      |
|    \\/     M anipulation  |                                                 |
\*---------------------------------------------------------------------------*/
FoamFile
{
    version     2.0;
    format      ascii;
    class       surfaceScalarField;
    location    "0.3";
    object      phi;
}
// * * * * * * * * * * * * * * * * * * * * * * * * * * * * * * * * * * * * * //

dimensions      [0 3 -1 0 0 0 0];

internalField   nonuniform List<scalar> 
6598
(
2.88758e-08
2.99977e-09
-3.18756e-08
2.52529e-08
3.62296e-09
2.16851e-08
3.56773e-09
1.85169e-08
3.16825e-09
1.57186e-08
2.79833e-09
1.33259e-08
2.39269e-09
1.13686e-08
1.95727e-09
9.83092e-09
1.53768e-09
8.70273e-09
1.12819e-09
7.8808e-09
8.21923e-10
7.26584e-09
6.14966e-10
6.80799e-09
4.57843e-10
6.4624e-09
3.45591e-10
6.1941e-09
2.68304e-10
5.97075e-09
2.23346e-10
5.7723e-09
1.98459e-10
5.59424e-09
1.78051e-10
5.4312e-09
1.63042e-10
5.27668e-09
1.54525e-10
5.12935e-09
1.47327e-10
4.99262e-09
1.36729e-10
4.86618e-09
1.26438e-10
4.74816e-09
1.18021e-10
4.63881e-09
1.09357e-10
4.53729e-09
1.01514e-10
4.44221e-09
9.50847e-11
4.35201e-09
9.01932e-11
4.26625e-09
8.57621e-11
4.18547e-09
8.0777e-11
4.10879e-09
7.66799e-11
4.0375e-09
7.12932e-11
3.97036e-09
6.71451e-11
3.9069e-09
6.34514e-11
3.84602e-09
6.08826e-11
3.78753e-09
5.84938e-11
3.73335e-09
5.41817e-11
3.68107e-09
5.22763e-11
3.63121e-09
4.9862e-11
3.58483e-09
4.63751e-11
3.54014e-09
4.46893e-11
3.498e-09
4.21434e-11
3.4584e-09
3.95965e-11
3.41978e-09
3.86287e-11
3.38391e-09
3.58642e-11
3.35084e-09
3.30672e-11
3.31841e-09
3.2433e-11
3.28863e-09
2.97829e-11
3.26086e-09
2.77668e-11
3.23265e-09
2.82108e-11
3.20859e-09
2.40582e-11
3.18622e-09
2.23684e-11
3.16281e-09
2.34143e-11
3.14386e-09
1.89503e-11
3.12676e-09
1.70947e-11
3.10852e-09
1.8246e-11
3.09372e-09
1.47937e-11
3.0813e-09
1.24233e-11
3.06821e-09
1.3087e-11
3.05782e-09
1.03921e-11
3.04974e-09
8.08053e-12
3.04148e-09
8.26501e-12
3.03545e-09
6.03034e-12
3.03155e-09
3.89423e-12
3.02818e-09
3.37077e-12
3.02718e-09
1.00105e-12
3.02771e-09
-5.33193e-13
3.02839e-09
-6.76458e-13
3.03107e-09
-2.68146e-12
3.03604e-09
-4.96569e-12
3.04016e-09
-4.12747e-12
3.04465e-09
-4.48761e-12
3.0502e-09
-5.55222e-12
3.05437e-09
-4.16098e-12
3.05821e-09
-3.84575e-12
3.06243e-09
-4.21842e-12
3.06479e-09
-2.35912e-12
3.06717e-09
-2.37761e-12
3.07013e-09
-2.96252e-12
3.07158e-09
-1.45589e-12
3.07252e-09
-9.37615e-13
3.07414e-09
-1.61687e-12
3.07508e-09
-9.38072e-13
3.07611e-09
-1.03355e-12
3.07829e-09
-2.17434e-12
3.07943e-09
-1.1425e-12
3.07978e-09
-3.52123e-13
3.08158e-09
-1.80123e-12
3.08328e-09
-1.69608e-12
3.08363e-09
-3.52033e-13
3.08436e-09
-7.35493e-13
3.08635e-09
-1.98566e-12
3.08736e-09
-1.00641e-12
3.08764e-09
-2.78254e-13
3.08847e-09
-8.37194e-13
3.08936e-09
-8.87269e-13
3.08982e-09
-4.65313e-13
3.09059e-09
-7.63687e-13
3.09154e-09
-9.49252e-13
3.09199e-09
-4.49223e-13
-3.68489e-13
3.43282e-08
2.86977e-09
-3.41982e-08
3.40813e-08
3.86982e-09
3.34354e-08
4.21365e-09
3.24691e-08
4.13457e-09
3.11761e-08
4.09134e-09
2.9718e-08
3.85081e-09
2.82046e-08
3.47065e-09
2.66802e-08
3.0621e-09
2.52653e-08
2.54301e-09
2.39653e-08
2.122e-09
2.27732e-08
1.80705e-09
2.16968e-08
1.53418e-09
2.07242e-08
1.31819e-09
1.98678e-08
1.12469e-09
1.91107e-08
9.80524e-10
1.84262e-08
8.82919e-10
1.7807e-08
7.97214e-10
1.72455e-08
7.24616e-10
1.67292e-08
6.70805e-10
1.62513e-08
6.25172e-10
1.58128e-08
5.75272e-10
1.54091e-08
5.30105e-10
1.50345e-08
4.92681e-10
1.46864e-08
4.57439e-10
1.43614e-08
4.26523e-10
1.40562e-08
4.00221e-10
1.37682e-08
3.7829e-10
1.34956e-08
3.58306e-10
1.32384e-08
3.38011e-10
1.29949e-08
3.20122e-10
1.27664e-08
2.99807e-10
1.25499e-08
2.83667e-10
1.23447e-08
2.68619e-10
1.2149e-08
2.56561e-10
1.19625e-08
2.45062e-10
1.17869e-08
2.29719e-10
1.16189e-08
2.20303e-10
1.14592e-08
2.09596e-10
1.13083e-08
1.97238e-10
1.11641e-08
1.88886e-10
1.10277e-08
1.78606e-10
1.08984e-08
1.68865e-10
1.07745e-08
1.62553e-10
1.06581e-08
1.522e-10
1.05489e-08
1.42289e-10
1.04442e-08
1.37191e-10
1.03464e-08
1.27526e-10
1.02544e-08
1.19736e-10
1.01655e-08
1.17156e-10
1.00854e-08
1.04191e-10
1.00102e-08
9.75392e-11
9.93726e-09
9.63439e-11
9.87324e-09
8.29766e-11
9.81435e-09
7.59839e-11
9.75757e-09
7.50274e-11
9.70818e-09
6.41826e-11
9.66449e-09
5.61065e-11
9.6233e-09
5.4284e-11
9.58849e-09
4.51955e-11
9.55922e-09
3.73572e-11
9.53283e-09
3.46539e-11
9.51212e-09
2.67373e-11
9.49667e-09
1.93417e-11
9.48461e-09
1.54317e-11
9.47776e-09
7.84856e-12
9.47481e-09
2.41691e-12
9.47412e-09
1.34848e-14
9.47741e-09
-5.97162e-12
9.48428e-09
-1.18323e-11
9.49074e-09
-1.05899e-11
9.49818e-09
-1.19258e-11
9.50672e-09
-1.40922e-11
9.51336e-09
-1.08008e-11
9.51952e-09
-1.0008e-11
9.52561e-09
-1.03037e-11
9.52905e-09
-5.80491e-12
9.53258e-09
-5.8987e-12
9.53657e-09
-6.95253e-12
9.53869e-09
-3.5757e-12
9.54027e-09
-2.52459e-12
9.54263e-09
-3.97147e-12
9.5444e-09
-2.70678e-12
9.54661e-09
-3.24292e-12
9.55004e-09
-5.60642e-12
9.55222e-09
-3.32571e-12
9.55387e-09
-1.99945e-12
9.55722e-09
-5.14989e-12
9.56012e-09
-4.60127e-12
9.56157e-09
-1.8007e-12
9.56368e-09
-2.84661e-12
9.56722e-09
-5.52443e-12
9.56936e-09
-3.14338e-12
9.5707e-09
-1.61739e-12
9.57264e-09
-2.782e-12
9.57455e-09
-2.79422e-12
9.57595e-09
-1.8711e-12
9.57777e-09
-2.58374e-12
9.57966e-09
-2.83644e-12
9.58091e-09
-1.70054e-12
-1.28794e-12
3.57856e-08
2.66829e-09
-3.55841e-08
3.61788e-08
3.47664e-09
3.6664e-08
3.72842e-09
3.67426e-08
4.05594e-09
3.65654e-08
4.26855e-09
3.63282e-08
4.08802e-09
3.59099e-08
3.88894e-09
3.53601e-08
3.61189e-09
3.46844e-08
3.21875e-09
3.39496e-08
2.85674e-09
3.31784e-08
2.57827e-09
3.24046e-08
2.30806e-09
3.16286e-08
2.09418e-09
3.08664e-08
1.88687e-09
3.01288e-08
1.71806e-09
2.94233e-08
1.58845e-09
2.8757e-08
1.46357e-09
2.81208e-08
1.36079e-09
2.75017e-08
1.28988e-09
2.68987e-08
1.22817e-09
2.63232e-08
1.15079e-09
2.57778e-08
1.07543e-09
2.52595e-08
1.01104e-09
2.47667e-08
9.50234e-10
2.42974e-08
8.95861e-10
2.38493e-08
8.48297e-10
2.342e-08
8.07615e-10
2.30078e-08
7.70491e-10
2.26132e-08
7.32624e-10
2.22353e-08
6.97948e-10
2.18775e-08
6.57634e-10
2.15354e-08
6.25758e-10
2.12082e-08
5.95801e-10
2.08939e-08
5.70923e-10
2.05921e-08
5.4687e-10
2.03057e-08
5.16043e-10
2.00304e-08
4.95638e-10
1.97678e-08
4.72249e-10
1.95177e-08
4.47305e-10
1.92774e-08
4.29203e-10
1.90488e-08
4.07199e-10
1.88308e-08
3.8689e-10
1.8621e-08
3.72289e-10
1.84228e-08
3.5045e-10
1.82352e-08
3.29835e-10
1.80549e-08
3.17485e-10
1.78855e-08
2.96989e-10
1.77251e-08
2.80067e-10
1.75701e-08
2.72218e-10
1.74282e-08
2.46026e-10
1.72944e-08
2.31409e-10
1.71649e-08
2.25778e-10
1.70488e-08
1.99134e-10
1.69409e-08
1.83879e-10
1.68375e-08
1.78389e-10
1.6745e-08
1.56655e-10
1.66616e-08
1.39517e-10
1.65835e-08
1.32384e-10
1.65151e-08
1.13653e-10
1.64552e-08
9.72684e-11
1.64008e-08
8.90333e-11
1.63553e-08
7.21979e-11
1.6318e-08
5.6673e-11
1.62865e-08
4.69665e-11
1.62627e-08
3.15864e-11
1.62452e-08
1.99414e-11
1.62319e-08
1.32911e-11
1.62248e-08
1.1923e-12
1.6223e-08
-1.00646e-11
1.62218e-08
-9.38255e-12
1.62229e-08
-1.30276e-11
1.62263e-08
-1.75231e-11
1.62282e-08
-1.27328e-11
1.62304e-08
-1.2157e-11
1.62329e-08
-1.28425e-11
1.62326e-08
-5.51743e-12
1.6233e-08
-6.25144e-12
1.62343e-08
-8.22957e-12
1.62335e-08
-2.83569e-12
1.62324e-08
-1.35922e-12
1.62326e-08
-4.1525e-12
1.62323e-08
-2.47578e-12
1.62327e-08
-3.64988e-12
1.62348e-08
-7.71506e-12
1.62358e-08
-4.3302e-12
1.62365e-08
-2.68306e-12
1.62393e-08
-7.94228e-12
1.62419e-08
-7.16331e-12
1.6243e-08
-2.89993e-12
1.62449e-08
-4.78767e-12
1.62487e-08
-9.27365e-12
1.6251e-08
-5.46554e-12
1.62525e-08
-3.14781e-12
1.62548e-08
-5.07224e-12
1.62571e-08
-5.10886e-12
1.62589e-08
-3.6465e-12
1.62612e-08
-4.91072e-12
1.62636e-08
-5.23056e-12
1.62654e-08
-3.52455e-12
-2.54945e-12
3.73175e-08
2.46899e-09
-3.71182e-08
3.76007e-08
3.19345e-09
3.79064e-08
3.42266e-09
3.82574e-08
3.70498e-09
3.8544e-08
3.98196e-09
3.87688e-08
3.86324e-09
3.8812e-08
3.84568e-09
3.88245e-08
3.59946e-09
3.87032e-08
3.34002e-09
3.84989e-08
3.06104e-09
3.82616e-08
2.81552e-09
3.7984e-08
2.58568e-09
3.76375e-08
2.44074e-09
3.72465e-08
2.27785e-09
3.68212e-08
2.14333e-09
3.63885e-08
2.02119e-09
3.59716e-08
1.88038e-09
3.55686e-08
1.76381e-09
3.51573e-08
1.70117e-09
3.47223e-08
1.66321e-09
3.42731e-08
1.60004e-09
3.38231e-08
1.52538e-09
3.33825e-08
1.45162e-09
3.29537e-08
1.37907e-09
3.25345e-08
1.31505e-09
3.2123e-08
1.25979e-09
3.17182e-08
1.21246e-09
3.13169e-08
1.17175e-09
3.0919e-08
1.13056e-09
3.05255e-08
1.0914e-09
3.01468e-08
1.03631e-09
2.97805e-08
9.92132e-10
2.94253e-08
9.50967e-10
2.90764e-08
9.19852e-10
2.8733e-08
8.90202e-10
2.84019e-08
8.47138e-10
2.80783e-08
8.19252e-10
2.77664e-08
7.84158e-10
2.74669e-08
7.4684e-10
2.71753e-08
7.20753e-10
2.68946e-08
6.87904e-10
2.66235e-08
6.58021e-10
2.63595e-08
6.36286e-10
2.61077e-08
6.02246e-10
2.58672e-08
5.70319e-10
2.56333e-08
5.5141e-10
2.54113e-08
5.19018e-10
2.51994e-08
4.91936e-10
2.49921e-08
4.79499e-10
2.48008e-08
4.37349e-10
2.46181e-08
4.14087e-10
2.44393e-08
4.04561e-10
2.4277e-08
3.61495e-10
2.41244e-08
3.36484e-10
2.39765e-08
3.2622e-10
2.38416e-08
2.91633e-10
2.37175e-08
2.63573e-10
2.36001e-08
2.49817e-10
2.34945e-08
2.19268e-10
2.33989e-08
1.92822e-10
2.33098e-08
1.78121e-10
2.32321e-08
1.49927e-10
2.31645e-08
1.2422e-10
2.3104e-08
1.07499e-10
2.30531e-08
8.25353e-11
2.301e-08
6.29672e-11
2.29724e-08
5.09366e-11
2.29425e-08
3.1077e-11
2.29204e-08
1.20199e-11
2.29001e-08
1.0905e-11
2.28838e-08
3.26533e-12
2.28722e-08
-5.8946e-12
2.28603e-08
-8.67649e-13
2.28507e-08
-2.48142e-12
2.28429e-08
-5.05088e-12
2.28328e-08
4.56752e-12
2.28244e-08
2.11735e-12
2.28184e-08
-2.18395e-12
2.28099e-08
5.62938e-12
2.28015e-08
7.09591e-12
2.27952e-08
2.09049e-12
2.2789e-08
3.75192e-12
2.27837e-08
1.64287e-12
2.27805e-08
-4.54904e-12
2.27766e-08
-4.5557e-13
2.2773e-08
9.77385e-13
2.27724e-08
-7.31482e-12
2.27717e-08
-6.51735e-12
2.27697e-08
-9.27118e-13
2.2769e-08
-4.03948e-12
2.27709e-08
-1.11393e-11
2.27715e-08
-6.11375e-12
2.27715e-08
-3.17933e-12
2.27727e-08
-6.23905e-12
2.27742e-08
-6.58372e-12
2.27752e-08
-4.70626e-12
2.27772e-08
-6.83218e-12
2.27793e-08
-7.36431e-12
2.2781e-08
-5.20665e-12
-3.66824e-12
3.88829e-08
2.31657e-09
-3.87305e-08
3.90771e-08
2.99928e-09
3.93732e-08
3.12654e-09
3.95795e-08
3.49864e-09
3.98454e-08
3.71609e-09
4.00276e-08
3.68105e-09
4.03072e-08
3.56603e-09
4.04176e-08
3.48906e-09
4.04695e-08
3.28813e-09
4.04965e-08
3.03411e-09
4.05314e-08
2.78062e-09
4.05379e-08
2.5791e-09
4.04713e-08
2.50734e-09
4.03536e-08
2.39557e-09
4.01909e-08
2.30603e-09
4.00068e-08
2.20528e-09
3.983e-08
2.05723e-09
3.9673e-08
1.92079e-09
3.95158e-08
1.85842e-09
3.93275e-08
1.85148e-09
3.9103e-08
1.82454e-09
3.8849e-08
1.77939e-09
3.85847e-08
1.71587e-09
3.83227e-08
1.64111e-09
3.80658e-08
1.572e-09
3.78086e-08
1.51696e-09
3.75518e-08
1.46921e-09
3.72891e-08
1.43447e-09
3.70149e-08
1.4048e-09
3.67246e-08
1.38164e-09
3.64336e-08
1.32736e-09
3.61463e-08
1.27941e-09
3.58681e-08
1.22917e-09
3.55926e-08
1.19536e-09
3.53122e-08
1.17056e-09
3.50328e-08
1.1266e-09
3.47506e-08
1.10143e-09
3.44718e-08
1.06298e-09
3.42004e-08
1.01826e-09
3.39335e-08
9.87599e-10
3.36734e-08
9.48052e-10
3.3417e-08
9.1443e-10
3.31612e-08
8.92032e-10
3.29137e-08
8.49726e-10
3.26751e-08
8.08956e-10
3.24393e-08
7.8721e-10
3.22123e-08
7.4601e-10
3.19923e-08
7.11904e-10
3.17722e-08
6.99658e-10
3.15682e-08
6.41296e-10
3.13708e-08
6.11553e-10
3.11731e-08
6.02212e-10
3.09917e-08
5.42895e-10
3.08191e-08
5.09094e-10
3.06489e-08
4.96379e-10
3.04906e-08
4.49925e-10
3.03425e-08
4.11703e-10
3.01999e-08
3.92462e-10
3.00692e-08
3.49941e-10
2.9948e-08
3.14055e-10
2.98314e-08
2.94723e-10
2.97262e-08
2.55062e-10
2.9632e-08
2.185e-10
2.95445e-08
1.94969e-10
2.94667e-08
1.60278e-10
2.93967e-08
1.32983e-10
2.93314e-08
1.16223e-10
2.92749e-08
8.76444e-11
2.92281e-08
5.87838e-11
2.91837e-08
5.53519e-11
2.91435e-08
4.3391e-11
2.91097e-08
2.79154e-11
2.90768e-08
3.20219e-11
2.9049e-08
2.53105e-11
2.90254e-08
1.86002e-11
2.90001e-08
2.99056e-11
2.89781e-08
2.40536e-11
2.89602e-08
1.56979e-11
2.89401e-08
2.57385e-11
2.89201e-08
2.7119e-11
2.89034e-08
1.88222e-11
2.88876e-08
1.94872e-11
2.88731e-08
1.61796e-11
2.88612e-08
7.3451e-12
2.88493e-08
1.14058e-11
2.88372e-08
1.31657e-11
2.88289e-08
9.28047e-13
2.88218e-08
5.87983e-13
2.88138e-08
7.09954e-12
2.88072e-08
2.49304e-12
2.88041e-08
-8.0209e-12
2.88004e-08
-2.36377e-12
2.87968e-08
4.43725e-13
2.87945e-08
-3.98455e-12
2.8793e-08
-5.04271e-12
2.87915e-08
-3.23902e-12
2.87915e-08
-6.82859e-12
2.87921e-08
-8.01461e-12
2.87923e-08
-5.39778e-12
-3.60256e-12
4.04467e-08
2.24911e-09
-4.03793e-08
4.06594e-08
2.78662e-09
4.08222e-08
2.9637e-09
4.10974e-08
3.22351e-09
4.13279e-08
3.48554e-09
4.14899e-08
3.51905e-09
4.17589e-08
3.29699e-09
4.18997e-08
3.34831e-09
4.19607e-08
3.22709e-09
4.20133e-08
2.9815e-09
4.20775e-08
2.71643e-09
4.21278e-08
2.5289e-09
4.21481e-08
2.48694e-09
4.21318e-08
2.4119e-09
4.20918e-08
2.34605e-09
4.20458e-08
2.25126e-09
4.1992e-08
2.11104e-09
4.19492e-08
1.96362e-09
4.192e-08
1.88761e-09
4.18787e-08
1.89279e-09
4.18131e-08
1.89014e-09
4.1716e-08
1.87648e-09
4.15986e-08
1.83328e-09
4.14738e-08
1.76593e-09
4.13593e-08
1.68651e-09
4.12429e-08
1.63335e-09
4.11334e-08
1.57871e-09
4.10218e-08
1.546e-09
4.08971e-08
1.52954e-09
4.07454e-08
1.53328e-09
4.05778e-08
1.495e-09
4.04039e-08
1.45327e-09
4.02367e-08
1.39636e-09
4.00744e-08
1.35766e-09
3.99096e-08
1.33544e-09
3.97377e-08
1.29849e-09
3.9554e-08
1.28508e-09
3.93649e-08
1.25211e-09
3.91748e-08
1.20839e-09
3.89859e-08
1.17645e-09
3.88016e-08
1.13237e-09
3.86164e-08
1.09966e-09
3.84252e-08
1.0832e-09
3.82358e-08
1.03909e-09
3.80506e-08
9.94238e-10
3.78644e-08
9.73334e-10
3.76834e-08
9.27019e-10
3.75051e-08
8.90232e-10
3.73186e-08
8.86122e-10
3.71462e-08
8.1377e-10
3.69765e-08
7.81192e-10
3.68016e-08
7.77164e-10
3.66398e-08
7.0468e-10
3.64838e-08
6.65057e-10
3.63262e-08
6.53959e-10
3.61766e-08
5.99533e-10
3.60344e-08
5.53886e-10
3.58949e-08
5.32049e-10
3.57654e-08
4.79414e-10
3.56429e-08
4.36551e-10
3.55207e-08
4.16883e-10
3.5407e-08
3.68841e-10
3.53026e-08
3.22863e-10
3.52039e-08
2.93651e-10
3.51141e-08
2.50107e-10
3.50301e-08
2.16937e-10
3.49475e-08
1.98853e-10
3.4872e-08
1.63172e-10
3.48074e-08
1.23394e-10
3.47455e-08
1.17257e-10
3.46875e-08
1.01372e-10
3.46349e-08
8.04996e-11
3.45822e-08
8.47218e-11
3.45364e-08
7.10633e-11
3.4497e-08
5.80455e-11
3.44567e-08
7.01591e-11
3.44216e-08
5.91566e-11
3.43921e-08
4.52031e-11
3.43604e-08
5.74613e-11
3.43283e-08
5.91742e-11
3.42998e-08
4.73697e-11
3.42732e-08
4.60522e-11
3.42486e-08
4.08197e-11
3.42273e-08
2.86047e-11
3.42062e-08
3.25642e-11
3.41842e-08
3.51095e-11
3.41663e-08
1.88715e-11
3.41505e-08
1.64047e-11
3.41344e-08
2.32159e-11
3.412e-08
1.68482e-11
3.41094e-08
2.53065e-12
3.40991e-08
7.94408e-12
3.40892e-08
1.04076e-11
3.40812e-08
3.94662e-12
3.40747e-08
1.52502e-12
3.40687e-08
2.69359e-12
3.4065e-08
-3.03857e-12
3.40626e-08
-5.66491e-12
3.40598e-08
-2.57018e-12
-1.12524e-12
4.20544e-08
2.22172e-09
-4.2027e-08
4.22577e-08
2.58333e-09
4.23768e-08
2.84455e-09
4.26886e-08
2.91176e-09
4.28761e-08
3.29798e-09
4.30121e-08
3.38312e-09
4.3295e-08
3.01407e-09
4.33407e-08
3.30261e-09
4.34646e-08
3.10318e-09
4.35316e-08
2.91447e-09
4.36007e-08
2.64734e-09
4.36561e-08
2.47352e-09
4.36962e-08
2.44679e-09
4.36969e-08
2.41121e-09
4.36715e-08
2.37146e-09
4.36548e-08
2.26795e-09
4.36445e-08
2.12139e-09
4.36523e-08
1.95576e-09
4.36498e-08
1.89017e-09
4.3644e-08
1.8986e-09
4.36336e-08
1.90046e-09
4.36055e-08
1.90465e-09
4.35658e-08
1.87297e-09
4.35077e-08
1.82404e-09
4.34754e-08
1.71883e-09
4.3438e-08
1.67068e-09
4.3412e-08
1.60477e-09
4.3388e-08
1.56994e-09
4.33564e-08
1.56119e-09
4.33017e-08
1.58798e-09
4.32284e-08
1.5683e-09
4.31424e-08
1.5393e-09
4.30647e-08
1.47403e-09
4.29871e-08
1.43523e-09
4.29155e-08
1.40701e-09
4.28407e-08
1.37335e-09
4.27516e-08
1.37418e-09
4.26537e-08
1.34998e-09
4.255e-08
1.31211e-09
4.24443e-08
1.28211e-09
4.2344e-08
1.23267e-09
4.22419e-08
1.20179e-09
4.21308e-08
1.19428e-09
4.20179e-08
1.15199e-09
4.19046e-08
1.10755e-09
4.17893e-08
1.08867e-09
4.16763e-08
1.04e-09
4.15635e-08
1.00298e-09
4.14371e-08
1.01259e-09
4.13219e-08
9.28987e-10
4.12047e-08
8.98406e-10
4.10802e-08
9.01609e-10
4.09647e-08
8.20183e-10
4.08525e-08
7.77248e-10
4.07357e-08
7.70819e-10
4.06209e-08
7.14318e-10
4.05098e-08
6.6497e-10
4.03984e-08
6.43398e-10
4.02953e-08
5.82558e-10
4.0197e-08
5.34861e-10
4.00944e-08
5.19445e-10
3.99948e-08
4.68457e-10
3.99007e-08
4.16989e-10
3.98102e-08
3.8417e-10
3.97278e-08
3.32427e-10
3.96502e-08
2.94562e-10
3.95694e-08
2.79616e-10
3.94912e-08
2.41445e-10
3.94226e-08
1.92013e-10
3.93569e-08
1.82914e-10
3.92958e-08
1.62493e-10
3.92383e-08
1.38016e-10
3.91772e-08
1.45744e-10
3.91222e-08
1.26112e-10
3.90735e-08
1.06754e-10
3.90247e-08
1.18961e-10
3.89831e-08
1.00728e-10
3.89484e-08
7.99138e-11
3.89113e-08
9.45489e-11
3.88728e-08
9.76597e-11
3.88367e-08
8.34811e-11
3.88024e-08
8.03378e-11
3.87705e-08
7.27809e-11
3.87428e-08
5.62859e-11
3.87155e-08
5.98039e-11
3.86866e-08
6.40882e-11
3.86605e-08
4.49282e-11
3.86368e-08
4.01101e-11
3.86132e-08
4.68169e-11
3.85915e-08
3.8528e-11
3.85736e-08
2.04776e-11
3.85563e-08
2.51956e-11
3.85398e-08
2.69336e-11
3.85257e-08
1.80746e-11
3.85129e-08
1.42892e-11
3.85013e-08
1.42778e-11
3.84924e-08
5.87937e-12
3.84862e-08
5.11085e-13
3.84795e-08
4.12267e-12
4.54684e-12
4.37475e-08
2.18325e-09
-4.37091e-08
4.39095e-08
2.42135e-09
4.40354e-08
2.71866e-09
4.42772e-08
2.66994e-09
4.44829e-08
3.09233e-09
4.46126e-08
3.25341e-09
4.47779e-08
2.84876e-09
4.48575e-08
3.22296e-09
4.49884e-08
2.97232e-09
4.51108e-08
2.79205e-09
4.51865e-08
2.57168e-09
4.52135e-08
2.44648e-09
4.52543e-08
2.40602e-09
4.52616e-08
2.40389e-09
4.5248e-08
2.38511e-09
4.52589e-08
2.25703e-09
4.52742e-08
2.10607e-09
4.52892e-08
1.94079e-09
4.5279e-08
1.9004e-09
4.52748e-08
1.90278e-09
4.52678e-08
1.9074e-09
4.52561e-08
1.91643e-09
4.52375e-08
1.89148e-09
4.52225e-08
1.83909e-09
4.52126e-08
1.72871e-09
4.52036e-08
1.6797e-09
4.52011e-08
1.60729e-09
4.52051e-08
1.56586e-09
4.52042e-08
1.56215e-09
4.51887e-08
1.60344e-09
4.51685e-08
1.5885e-09
4.51329e-08
1.57493e-09
4.5106e-08
1.50088e-09
4.50727e-08
1.46859e-09
4.50442e-08
1.43544e-09
4.5021e-08
1.39653e-09
4.49897e-08
1.40554e-09
4.49491e-08
1.39055e-09
4.49054e-08
1.35577e-09
4.48565e-08
1.33109e-09
4.48148e-08
1.27432e-09
4.47739e-08
1.24266e-09
4.47236e-08
1.24462e-09
4.46721e-08
1.20345e-09
4.46161e-08
1.16362e-09
4.4559e-08
1.14576e-09
4.45059e-08
1.09312e-09
4.44504e-08
1.05849e-09
4.43778e-08
1.08511e-09
4.43219e-08
9.84943e-10
4.42532e-08
9.67109e-10
4.41806e-08
9.74165e-10
4.41139e-08
8.86911e-10
4.40495e-08
8.41601e-10
4.39819e-08
8.38452e-10
4.39107e-08
7.8557e-10
4.38382e-08
7.37405e-10
4.37632e-08
7.18375e-10
4.36956e-08
6.50148e-10
4.36328e-08
5.97715e-10
4.35637e-08
5.88556e-10
4.34926e-08
5.39523e-10
4.3422e-08
4.87605e-10
4.33519e-08
4.54243e-10
4.32893e-08
3.95067e-10
4.32319e-08
3.51966e-10
4.31686e-08
3.42887e-10
4.31029e-08
3.07155e-10
4.30433e-08
2.51638e-10
4.29855e-08
2.40734e-10
4.2934e-08
2.13946e-10
4.28854e-08
1.86607e-10
4.28303e-08
2.00863e-10
4.27787e-08
1.77699e-10
4.27304e-08
1.5507e-10
4.26814e-08
1.68001e-10
4.26415e-08
1.40607e-10
4.26097e-08
1.11681e-10
4.25758e-08
1.28434e-10
4.25397e-08
1.33774e-10
4.25041e-08
1.19134e-10
4.24689e-08
1.15487e-10
4.24353e-08
1.06366e-10
4.24064e-08
8.51614e-11
4.23786e-08
8.76382e-11
4.23484e-08
9.43113e-11
4.23194e-08
7.39385e-11
4.22919e-08
6.7553e-11
4.22643e-08
7.44382e-11
4.22383e-08
6.45072e-11
4.22156e-08
4.32452e-11
4.21937e-08
4.70126e-11
4.21727e-08
4.80152e-11
4.2154e-08
3.67079e-11
4.2136e-08
3.22815e-11
4.21195e-08
3.07897e-11
4.21057e-08
1.96845e-11
4.20958e-08
1.03907e-11
4.20857e-08
1.42573e-11
1.3162e-11
4.55063e-08
2.11951e-09
-4.54426e-08
4.56264e-08
2.30124e-09
4.57488e-08
2.59629e-09
4.5945e-08
2.47375e-09
4.61274e-08
2.90988e-09
4.62739e-08
3.10694e-09
4.64015e-08
2.72111e-09
4.66092e-08
3.01532e-09
4.66359e-08
2.94561e-09
4.67147e-08
2.71324e-09
4.67974e-08
2.489e-09
4.68473e-08
2.39654e-09
4.68655e-08
2.38778e-09
4.68661e-08
2.4033e-09
4.68876e-08
2.36368e-09
4.69352e-08
2.20944e-09
4.69512e-08
2.09001e-09
4.69438e-08
1.94819e-09
4.69227e-08
1.92154e-09
4.6925e-08
1.90049e-09
4.69298e-08
1.90253e-09
4.69316e-08
1.91463e-09
4.69214e-08
1.90175e-09
4.69245e-08
1.83593e-09
4.6901e-08
1.75226e-09
4.68965e-08
1.68417e-09
4.68998e-08
1.60402e-09
4.69057e-08
1.55997e-09
4.69056e-08
1.56228e-09
4.69006e-08
1.60838e-09
4.68982e-08
1.59097e-09
4.6891e-08
1.58205e-09
4.68799e-08
1.51197e-09
4.68686e-08
1.47993e-09
4.68494e-08
1.45461e-09
4.68439e-08
1.40203e-09
4.68344e-08
1.41509e-09
4.68246e-08
1.4003e-09
4.68068e-08
1.3736e-09
4.67866e-08
1.35127e-09
4.67734e-08
1.28755e-09
4.6762e-08
1.25404e-09
4.67441e-08
1.26254e-09
4.67259e-08
1.22168e-09
4.67042e-08
1.18529e-09
4.66822e-08
1.16778e-09
4.66617e-08
1.11364e-09
4.66461e-08
1.0741e-09
4.65997e-08
1.13146e-09
4.65869e-08
9.97717e-10
4.65513e-08
1.00279e-09
4.65166e-08
1.0088e-09
4.64837e-08
9.19892e-10
4.64513e-08
8.73906e-10
4.64208e-08
8.69024e-10
4.63875e-08
8.18823e-10
4.63483e-08
7.76653e-10
4.63028e-08
7.6383e-10
4.62641e-08
6.88875e-10
4.62311e-08
6.30713e-10
4.6193e-08
6.26604e-10
4.61512e-08
5.81333e-10
4.61059e-08
5.32916e-10
4.60582e-08
5.0197e-10
4.60168e-08
4.36516e-10
4.59818e-08
3.86961e-10
4.59402e-08
3.84445e-10
4.58935e-08
3.53873e-10
4.5849e-08
2.961e-10
4.58038e-08
2.85983e-10
4.5767e-08
2.50747e-10
4.57329e-08
2.20682e-10
4.56914e-08
2.42398e-10
4.56521e-08
2.1692e-10
4.56115e-08
1.95664e-10
4.55687e-08
2.10854e-10
4.55358e-08
1.73516e-10
4.55115e-08
1.35981e-10
4.54859e-08
1.53979e-10
4.54583e-08
1.61387e-10
4.54297e-08
1.47797e-10
4.54e-08
1.45188e-10
4.53704e-08
1.35909e-10
4.53453e-08
1.10326e-10
4.53215e-08
1.11371e-10
4.52952e-08
1.20649e-10
4.52686e-08
1.00517e-10
4.52424e-08
9.37415e-11
4.52153e-08
1.01525e-10
4.51889e-08
9.08994e-11
4.51648e-08
6.73825e-11
4.51416e-08
7.02064e-11
4.51192e-08
7.03677e-11
4.50992e-08
5.67354e-11
4.50789e-08
5.26059e-11
4.50595e-08
5.01605e-11
4.50425e-08
3.67232e-11
4.50298e-08
2.30293e-11
4.50177e-08
2.63836e-11
2.36017e-11
4.72987e-08
2.04416e-09
-4.72234e-08
4.74018e-08
2.19814e-09
4.75406e-08
2.45754e-09
4.76751e-08
2.33924e-09
4.78316e-08
2.75333e-09
4.80029e-08
2.93566e-09
4.80845e-08
2.63958e-09
4.83095e-08
2.7903e-09
4.83378e-08
2.91727e-09
4.8417e-08
2.63411e-09
4.84611e-08
2.44488e-09
4.85091e-08
2.34851e-09
4.85448e-08
2.35206e-09
4.85714e-08
2.37672e-09
4.86341e-08
2.30101e-09
4.86547e-08
2.18884e-09
4.86489e-08
2.09581e-09
4.86334e-08
1.96366e-09
4.86232e-08
1.93179e-09
4.86436e-08
1.88004e-09
4.86583e-08
1.88781e-09
4.86559e-08
1.91705e-09
4.86586e-08
1.89909e-09
4.86575e-08
1.83696e-09
4.86407e-08
1.76911e-09
4.86371e-08
1.68771e-09
4.86333e-08
1.60791e-09
4.86358e-08
1.55746e-09
4.86337e-08
1.56433e-09
4.86372e-08
1.60487e-09
4.86304e-08
1.59777e-09
4.86355e-08
1.57695e-09
4.86254e-08
1.52203e-09
4.86176e-08
1.48773e-09
4.86085e-08
1.46379e-09
4.85935e-08
1.41703e-09
4.85983e-08
1.41029e-09
4.85915e-08
1.40712e-09
4.85864e-08
1.37868e-09
4.85812e-08
1.35644e-09
4.85802e-08
1.28856e-09
4.85734e-08
1.26085e-09
4.85745e-08
1.26143e-09
4.85685e-08
1.22765e-09
4.85569e-08
1.19694e-09
4.85546e-08
1.17007e-09
4.8549e-08
1.11927e-09
4.85334e-08
1.08967e-09
4.85261e-08
1.13873e-09
4.85189e-08
1.00494e-09
4.84998e-08
1.02182e-09
4.84863e-08
1.02236e-09
4.84736e-08
9.32589e-10
4.84592e-08
8.88258e-10
4.84467e-08
8.81535e-10
4.84317e-08
8.33887e-10
4.84135e-08
7.94784e-10
4.83876e-08
7.89789e-10
4.8367e-08
7.09468e-10
4.83523e-08
6.45435e-10
4.83332e-08
6.45617e-10
4.83116e-08
6.02964e-10
4.82851e-08
5.59418e-10
4.82544e-08
5.32678e-10
4.82287e-08
4.62196e-10
4.82103e-08
4.05424e-10
4.81857e-08
4.08974e-10
4.81561e-08
3.83482e-10
4.81259e-08
3.26324e-10
4.80918e-08
3.20116e-10
4.80678e-08
2.74708e-10
4.80454e-08
2.43111e-10
4.80167e-08
2.71053e-10
4.79919e-08
2.41782e-10
4.79608e-08
2.26721e-10
4.7927e-08
2.44669e-10
4.79026e-08
1.97909e-10
4.78853e-08
1.53252e-10
4.7868e-08
1.71277e-10
4.78497e-08
1.79682e-10
4.78299e-08
1.6764e-10
4.78081e-08
1.66989e-10
4.77854e-08
1.58612e-10
4.77664e-08
1.29307e-10
4.77486e-08
1.29137e-10
4.77284e-08
1.40925e-10
4.7707e-08
1.21904e-10
4.7685e-08
1.15711e-10
4.76616e-08
1.24967e-10
4.76376e-08
1.14897e-10
4.76145e-08
9.04441e-11
4.75923e-08
9.24429e-11
4.75711e-08
9.1519e-11
4.75524e-08
7.5471e-11
4.75324e-08
7.25619e-11
4.75126e-08
6.99718e-11
4.74944e-08
5.48895e-11
4.74803e-08
3.71555e-11
4.74677e-08
3.90095e-11
3.4588e-11
4.91558e-08
1.96902e-09
-4.90806e-08
4.92443e-08
2.1096e-09
4.93796e-08
2.32222e-09
4.94597e-08
2.25922e-09
4.96278e-08
2.58518e-09
4.97641e-08
2.79941e-09
4.98031e-08
2.60057e-09
4.99876e-08
2.60575e-09
5.01327e-08
2.77213e-09
5.02232e-08
2.54361e-09
5.02618e-08
2.4063e-09
5.02725e-08
2.33787e-09
5.02717e-08
2.35277e-09
5.03649e-08
2.28353e-09
5.04251e-08
2.2409e-09
5.04091e-08
2.20479e-09
5.04085e-08
2.09641e-09
5.03932e-08
1.97894e-09
5.04106e-08
1.91444e-09
5.04341e-08
1.85656e-09
5.04469e-08
1.875e-09
5.04412e-08
1.92276e-09
5.04402e-08
1.90001e-09
5.04401e-08
1.83707e-09
5.04349e-08
1.77438e-09
5.04364e-08
1.68623e-09
5.04266e-08
1.61765e-09
5.04235e-08
1.56053e-09
5.04214e-08
1.56644e-09
5.04265e-08
1.5998e-09
5.04218e-08
1.60247e-09
5.04256e-08
1.57312e-09
5.04161e-08
1.5316e-09
5.0414e-08
1.48982e-09
5.04074e-08
1.47034e-09
5.03912e-08
1.43328e-09
5.03928e-08
1.40869e-09
5.03932e-08
1.40669e-09
5.03911e-08
1.38072e-09
5.03875e-08
1.36008e-09
5.03848e-08
1.29127e-09
5.0381e-08
1.26468e-09
5.03877e-08
1.25472e-09
5.03893e-08
1.226e-09
5.03753e-08
1.21096e-09
5.03715e-08
1.17389e-09
5.03725e-08
1.11825e-09
5.0356e-08
1.10622e-09
5.03698e-08
1.1249e-09
5.03648e-08
1.00997e-09
5.03459e-08
1.04071e-09
5.03399e-08
1.02833e-09
5.03385e-08
9.34042e-10
5.03342e-08
8.92544e-10
5.03331e-08
8.82589e-10
5.03252e-08
8.41805e-10
5.03151e-08
8.04849e-10
5.03005e-08
8.04427e-10
5.02848e-08
7.25112e-10
5.02784e-08
6.51833e-10
5.02689e-08
6.55194e-10
5.02572e-08
6.14592e-10
5.02419e-08
5.74786e-10
5.02216e-08
5.52977e-10
5.02048e-08
4.79005e-10
5.01938e-08
4.16367e-10
5.01784e-08
4.24427e-10
5.01613e-08
4.00597e-10
5.01411e-08
3.46433e-10
5.01143e-08
3.46935e-10
5.0099e-08
2.90014e-10
5.00813e-08
2.60855e-10
5.00601e-08
2.92216e-10
5.00473e-08
2.54586e-10
5.00237e-08
2.50313e-10
5e-08
2.68399e-10
4.9983e-08
2.14945e-10
4.99682e-08
1.67984e-10
4.9956e-08
1.83471e-10
4.99443e-08
1.91451e-10
4.99313e-08
1.80567e-10
4.99162e-08
1.82166e-10
4.99e-08
1.74805e-10
4.98871e-08
1.42193e-10
4.98745e-08
1.41664e-10
4.98597e-08
1.5582e-10
4.98433e-08
1.38276e-10
4.98258e-08
1.3319e-10
4.98068e-08
1.44007e-10
4.97859e-08
1.3572e-10
4.97646e-08
1.11755e-10
4.97441e-08
1.13011e-10
4.97249e-08
1.1067e-10
4.97087e-08
9.17267e-11
4.96906e-08
9.0623e-11
4.96719e-08
8.86998e-11
4.9654e-08
7.27311e-11
4.96392e-08
5.19355e-11
4.9627e-08
5.12427e-11
4.5254e-11
5.10622e-08
1.8984e-09
-5.09916e-08
5.11798e-08
1.99205e-09
5.12114e-08
2.29059e-09
5.13478e-08
2.12277e-09
5.1466e-08
2.46698e-09
5.15778e-08
2.68762e-09
5.16469e-08
2.53147e-09
5.18342e-08
2.41852e-09
5.19569e-08
2.64937e-09
5.20327e-08
2.4678e-09
5.20726e-08
2.36641e-09
5.21158e-08
2.29472e-09
5.21684e-08
2.30016e-09
5.22172e-08
2.23472e-09
5.22474e-08
2.21072e-09
5.22236e-08
2.22854e-09
5.22274e-08
2.0926e-09
5.22405e-08
1.96589e-09
5.2274e-08
1.88095e-09
5.22911e-08
1.83947e-09
5.22937e-08
1.87233e-09
5.22887e-08
1.92781e-09
5.22823e-08
1.90636e-09
5.22838e-08
1.83559e-09
5.22929e-08
1.76525e-09
5.22914e-08
1.68773e-09
5.22936e-08
1.61553e-09
5.22857e-08
1.56836e-09
5.22841e-08
1.56809e-09
5.22773e-08
1.60658e-09
5.22716e-08
1.60817e-09
5.22727e-08
1.57206e-09
5.22714e-08
1.53283e-09
5.22709e-08
1.49034e-09
5.22638e-08
1.47741e-09
5.22526e-08
1.44451e-09
5.22525e-08
1.40886e-09
5.22534e-08
1.40575e-09
5.22529e-08
1.3812e-09
5.22533e-08
1.35966e-09
5.22449e-08
1.29974e-09
5.22426e-08
1.26692e-09
5.22506e-08
1.24671e-09
5.22502e-08
1.2264e-09
5.22449e-08
1.21634e-09
5.22311e-08
1.18767e-09
5.22282e-08
1.12116e-09
5.22271e-08
1.10731e-09
5.22363e-08
1.11566e-09
5.22226e-08
1.02364e-09
5.22288e-08
1.03451e-09
5.22247e-08
1.03247e-09
5.22102e-08
9.48561e-10
5.22009e-08
9.0178e-10
5.22061e-08
8.77485e-10
5.22052e-08
8.42694e-10
5.22005e-08
8.09519e-10
5.21881e-08
8.16785e-10
5.21798e-08
7.33447e-10
5.21662e-08
6.6543e-10
5.21655e-08
6.55933e-10
5.21592e-08
6.20842e-10
5.21507e-08
5.83298e-10
5.21352e-08
5.68459e-10
5.21216e-08
4.92585e-10
5.21105e-08
4.27511e-10
5.20977e-08
4.37238e-10
5.20896e-08
4.08694e-10
5.20759e-08
3.60076e-10
5.20535e-08
3.69407e-10
5.20428e-08
3.00664e-10
5.20227e-08
2.80952e-10
5.2005e-08
3.09971e-10
5.19997e-08
2.59856e-10
5.19819e-08
2.68098e-10
5.1973e-08
2.77361e-10
5.1952e-08
2.35866e-10
5.19376e-08
1.82453e-10
5.19287e-08
1.92362e-10
5.19197e-08
2.0044e-10
5.19108e-08
1.89493e-10
5.18995e-08
1.93458e-10
5.18877e-08
1.86545e-10
5.18795e-08
1.50431e-10
5.18703e-08
1.50807e-10
5.18588e-08
1.67317e-10
5.18457e-08
1.51398e-10
5.18316e-08
1.47354e-10
5.18162e-08
1.59414e-10
5.17977e-08
1.54169e-10
5.17776e-08
1.31838e-10
5.17583e-08
1.32366e-10
5.17406e-08
1.28349e-10
5.17267e-08
1.05607e-10
5.17108e-08
1.06484e-10
5.16937e-08
1.05848e-10
5.16766e-08
8.97844e-11
5.16615e-08
6.71069e-11
5.16497e-08
6.3004e-11
5.53343e-11
5.30373e-08
1.81145e-09
-5.29503e-08
5.31161e-08
1.91322e-09
5.31688e-08
2.23789e-09
5.32795e-08
2.0121e-09
5.33614e-08
2.38509e-09
5.35586e-08
2.49034e-09
5.34604e-08
2.62972e-09
5.38468e-08
2.0321e-09
5.38499e-08
2.64624e-09
5.38739e-08
2.44382e-09
5.39274e-08
2.31289e-09
5.40092e-08
2.213e-09
5.40986e-08
2.21067e-09
5.41208e-08
2.21259e-09
5.4124e-08
2.20749e-09
5.41144e-08
2.23818e-09
5.41255e-08
2.08143e-09
5.41726e-08