/*--------------------------------*- C++ -*----------------------------------*\
| =========                 |                                                 |
| \\      /  F ield         | OpenFOAM: The Open Source CFD Toolbox           |
|  \\    /   O peration     | Version:  2.3.0                                 |
|   \\  /    A nd           | Web:      www.OpenFOAM.org                      |
|    \\/     M anipulation  |                                                 |
\*---------------------------------------------------------------------------*/
FoamFile
{
    version     2.0;
    format      ascii;
    class       volVectorField;
    location    "0.65";
    object      U_0;
}
// * * * * * * * * * * * * * * * * * * * * * * * * * * * * * * * * * * * * * //

dimensions      [0 1 -1 0 0 0 0];

internalField   nonuniform List<vector> 
3375
(
(0.175653 0.00438952 0)
(0.155164 0.00597586 0)
(0.136587 0.00611687 0)
(0.118466 0.0055168 0)
(0.100948 0.00472085 0)
(0.0848941 0.00383684 0)
(0.0713746 0.00286952 0)
(0.0607927 0.00184852 0)
(0.0529493 0.000961826 0)
(0.0472998 0.000363312 0)
(0.0432742 4.60234e-05 0)
(0.0403998 -8.22128e-05 0)
(0.038298 -0.000105456 0)
(0.0366863 -7.95102e-05 0)
(0.0353639 -3.58859e-05 0)
(0.0342045 6.75338e-06 0)
(0.0331392 3.93748e-05 0)
(0.0321366 6.01341e-05 0)
(0.0311863 7.08978e-05 0)
(0.0302869 7.46071e-05 0)
(0.0294394 7.39577e-05 0)
(0.028644 7.09669e-05 0)
(0.0278995 6.69488e-05 0)
(0.0272034 6.26741e-05 0)
(0.0265523 5.85402e-05 0)
(0.0259423 5.47199e-05 0)
(0.0253695 5.12545e-05 0)
(0.0248304 4.81324e-05 0)
(0.0243216 4.53134e-05 0)
(0.0238402 4.27588e-05 0)
(0.0233837 4.0427e-05 0)
(0.02295 3.82895e-05 0)
(0.0225371 3.63159e-05 0)
(0.0221434 3.44898e-05 0)
(0.0217675 3.27885e-05 0)
(0.021408 3.12044e-05 0)
(0.0210639 2.97189e-05 0)
(0.0207342 2.83311e-05 0)
(0.0204179 2.70244e-05 0)
(0.0201142 2.58017e-05 0)
(0.0198225 2.4647e-05 0)
(0.0195418 2.35655e-05 0)
(0.0192718 2.2542e-05 0)
(0.0190115 2.15827e-05 0)
(0.0187608 2.06733e-05 0)
(0.0185188 1.98199e-05 0)
(0.0182853 1.9009e-05 0)
(0.0180596 1.82473e-05 0)
(0.0178418 1.7521e-05 0)
(0.0176308 1.68389e-05 0)
(0.017427 1.61861e-05 0)
(0.0172294 1.55734e-05 0)
(0.0170383 1.49851e-05 0)
(0.0168527 1.44325e-05 0)
(0.0166733 1.39008e-05 0)
(0.0164988 1.34002e-05 0)
(0.0163299 1.29174e-05 0)
(0.0161655 1.24624e-05 0)
(0.0160065 1.20218e-05 0)
(0.0158513 1.16074e-05 0)
(0.0157013 1.12042e-05 0)
(0.0155548 1.08263e-05 0)
(0.0154132 1.04559e-05 0)
(0.0152745 1.011e-05 0)
(0.0151408 9.7685e-06 0)
(0.0150095 9.45063e-06 0)
(0.014883 9.13481e-06 0)
(0.0147586 8.84213e-06 0)
(0.0146391 8.54858e-06 0)
(0.014521 8.28114e-06 0)
(0.0144081 8.00416e-06 0)
(0.014296 7.76267e-06 0)
(0.0141893 7.49852e-06 0)
(0.0140828 7.28238e-06 0)
(0.013982 7.02831e-06 0)
(0.0138808 6.83643e-06 0)
(0.0137858 6.5896e-06 0)
(0.0136894 6.42539e-06 0)
(0.0135999 6.18048e-06 0)
(0.0135081 6.04728e-06 0)
(0.0134241 5.79778e-06 0)
(0.0133363 5.70439e-06 0)
(0.0132576 5.43944e-06 0)
(0.0131736 5.39152e-06 0)
(0.0131002 5.11011e-06 0)
(0.0130193 5.11453e-06 0)
(0.0129513 4.80549e-06 0)
(0.0128729 4.87754e-06 0)
(0.0128104 4.52655e-06 0)
(0.0127337 4.68401e-06 0)
(0.0126769 4.2742e-06 0)
(0.0126008 4.54208e-06 0)
(0.01255 4.06489e-06 0)
(0.012473 4.46699e-06 0)
(0.012429 3.88993e-06 0)
(0.0123487 4.47618e-06 0)
(0.0123128 3.7542e-06 0)
(0.0122255 4.59713e-06 0)
(0.0122011 3.67186e-06 0)
(0.0120966 5.60112e-06 0)
(0.190876 0.00776568 0)
(0.189126 0.0108481 0)
(0.186659 0.0118904 0)
(0.182827 0.0117131 0)
(0.177359 0.0110789 0)
(0.170474 0.0101889 0)
(0.162817 0.00903291 0)
(0.154884 0.00761015 0)
(0.147057 0.00608152 0)
(0.13956 0.0046696 0)
(0.132525 0.00351419 0)
(0.12605 0.00264159 0)
(0.12018 0.00201558 0)
(0.11492 0.00158827 0)
(0.110223 0.00130744 0)
(0.106018 0.00112417 0)
(0.102234 0.000999794 0)
(0.0988037 0.000908369 0)
(0.0956751 0.000834689 0)
(0.0928045 0.000770829 0)
(0.0901574 0.000713142 0)
(0.087706 0.000660241 0)
(0.0854274 0.000611718 0)
(0.0833024 0.000567484 0)
(0.0813148 0.000527433 0)
(0.0794502 0.000491358 0)
(0.0776966 0.000458933 0)
(0.076043 0.000429782 0)
(0.0744802 0.0004035 0)
(0.0729998 0.00037972 0)
(0.071595 0.000358095 0)
(0.0702591 0.000338346 0)
(0.068987 0.000320217 0)
(0.0677735 0.00030352 0)
(0.0666146 0.00028807 0)
(0.0655061 0.000273744 0)
(0.0644449 0.000260405 0)
(0.0634275 0.000247979 0)
(0.0624516 0.000236357 0)
(0.061514 0.000225494 0)
(0.0606131 0.000215298 0)
(0.059746 0.000205743 0)
(0.0589114 0.000196749 0)
(0.0581068 0.000188302 0)
(0.0573314 0.000180331 0)
(0.0565826 0.000172827 0)
(0.0558602 0.000165729 0)
(0.0551615 0.000159033 0)
(0.0544868 0.000152683 0)
(0.0538333 0.000146682 0)
(0.0532017 0.000140976 0)
(0.0525891 0.000135577 0)
(0.0519968 0.000130432 0)
(0.0514214 0.000125553 0)
(0.0508649 0.000120896 0)
(0.0503235 0.000116468 0)
(0.0497998 0.000112235 0)
(0.0492896 0.000108202 0)
(0.0487962 0.000104339 0)
(0.0483148 0.000100652 0)
(0.0478494 9.71145e-05 0)
(0.0473945 9.37344e-05 0)
(0.0469551 9.0483e-05 0)
(0.0465248 8.7372e-05 0)
(0.0461099 8.43736e-05 0)
(0.0457024 8.14987e-05 0)
(0.0453104 7.87245e-05 0)
(0.0449243 7.60589e-05 0)
(0.0445539 7.34825e-05 0)
(0.0441879 7.10111e-05 0)
(0.043838 6.86011e-05 0)
(0.0434907 6.63124e-05 0)
(0.0431605 6.40457e-05 0)
(0.0428308 6.19262e-05 0)
(0.0425195 5.97847e-05 0)
(0.0422063 5.78207e-05 0)
(0.0419134 5.57879e-05 0)
(0.0416156 5.39813e-05 0)
(0.0413405 5.20347e-05 0)
(0.0410572 5.03886e-05 0)
(0.0407997 4.8504e-05 0)
(0.0405296 4.70389e-05 0)
(0.0402896 4.51814e-05 0)
(0.0400314 4.39097e-05 0)
(0.039809 4.20777e-05 0)
(0.0395614 4.10148e-05 0)
(0.0393569 3.91794e-05 0)
(0.0391178 3.83679e-05 0)
(0.0389319 3.64958e-05 0)
(0.038699 3.5984e-05 0)
(0.0385328 3.40434e-05 0)
(0.0383029 3.38988e-05 0)
(0.0381579 3.18973e-05 0)
(0.0379265 3.21746e-05 0)
(0.0378056 3.00753e-05 0)
(0.0375659 3.08826e-05 0)
(0.0374737 2.86919e-05 0)
(0.0372153 3.0146e-05 0)
(0.0371611 2.79395e-05 0)
(0.0368641 3.1792e-05 0)
(0.191972 0.00748273 0)
(0.192394 0.0101044 0)
(0.193462 0.0116597 0)
(0.194531 0.012143 0)
(0.194951 0.0120332 0)
(0.194419 0.0115948 0)
(0.19296 0.010857 0)
(0.190699 0.00984014 0)
(0.187797 0.0086552 0)
(0.184412 0.00747085 0)
(0.180693 0.00641953 0)
(0.176786 0.00555223 0)
(0.172815 0.00485671 0)
(0.168877 0.0043035 0)
(0.16502 0.00385927 0)
(0.161267 0.00349449 0)
(0.157626 0.00318642 0)
(0.154101 0.0029194 0)
(0.150692 0.00268338 0)
(0.147401 0.00247215 0)
(0.144229 0.0022818 0)
(0.141174 0.00210982 0)
(0.138236 0.00195438 0)
(0.135415 0.00181403 0)
(0.132707 0.00168744 0)
(0.13011 0.00157329 0)
(0.12762 0.00147029 0)
(0.125234 0.00137723 0)
(0.122945 0.00129294 0)
(0.120751 0.00121638 0)
(0.118646 0.00114661 0)
(0.116626 0.00108281 0)
(0.114685 0.00102427 0)
(0.112821 0.000970403 0)
(0.111028 0.000920651 0)
(0.109303 0.000874597 0)
(0.107643 0.000831825 0)
(0.106043 0.000792038 0)
(0.104501 0.000754915 0)
(0.103013 0.000720246 0)
(0.101577 0.000687773 0)
(0.10019 0.000657344 0)
(0.0988503 0.00062875 0)
(0.097554 0.000601876 0)
(0.096301 0.000576554 0)
(0.0950872 0.000552689 0)
(0.0939131 0.000530144 0)
(0.0927741 0.000508841 0)
(0.0916719 0.000488668 0)
(0.0906013 0.000469563 0)
(0.0895649 0.000451431 0)
(0.0885569 0.000434222 0)
(0.0875808 0.000417859 0)
(0.0866303 0.00040229 0)
(0.0857098 0.000387467 0)
(0.0848123 0.000373322 0)
(0.0839433 0.00035984 0)
(0.0830946 0.000346937 0)
(0.0822734 0.000334626 0)
(0.0814701 0.000322814 0)
(0.0806934 0.000311533 0)
(0.0799322 0.000300681 0)
(0.0791973 0.000290308 0)
(0.0784754 0.000280298 0)
(0.0777797 0.000270729 0)
(0.0770945 0.000261458 0)
(0.0764359 0.000252602 0)
(0.0757851 0.000243983 0)
(0.0751618 0.00023576 0)
(0.0745434 0.000227732 0)
(0.0739537 0.000220056 0)
(0.0733657 0.000212568 0)
(0.0728085 0.000205375 0)
(0.0722491 0.000198375 0)
(0.0717232 0.000191613 0)
(0.0711907 0.000185052 0)
(0.0706956 0.000178678 0)
(0.0701883 0.000172535 0)
(0.0697233 0.000166498 0)
(0.0692395 0.000160759 0)
(0.0688044 0.00015501 0)
(0.0683423 0.000149689 0)
(0.0679374 0.000144171 0)
(0.0674947 0.000139268 0)
(0.0671205 0.000133986 0)
(0.0666947 0.000129505 0)
(0.0663522 0.00012443 0)
(0.0659402 0.000120418 0)
(0.0656311 0.000115527 0)
(0.0652288 0.000112035 0)
(0.0649555 0.000107329 0)
(0.0645575 0.000104427 0)
(0.0643236 0.00010001 0)
(0.0639225 9.77212e-05 0)
(0.0637332 9.36738e-05 0)
(0.0633187 9.20813e-05 0)
(0.0631816 8.86359e-05 0)
(0.0627389 8.78844e-05 0)
(0.0626652 8.53876e-05 0)
(0.0621741 8.77862e-05 0)
(0.193009 0.00705808 0)
(0.193384 0.00895615 0)
(0.194457 0.0104391 0)
(0.196029 0.0111645 0)
(0.197613 0.0113011 0)
(0.198848 0.0110831 0)
(0.199592 0.0106083 0)
(0.199821 0.00991763 0)
(0.199554 0.00907808 0)
(0.198831 0.00819719 0)
(0.197714 0.00737814 0)
(0.19629 0.0066781 0)
(0.194648 0.00610438 0)
(0.192864 0.00563489 0)
(0.190985 0.00524343 0)
(0.189038 0.00490849 0)
(0.187035 0.00461428 0)
(0.184985 0.00434973 0)
(0.182894 0.00410741 0)
(0.180769 0.00388256 0)
(0.178617 0.00367223 0)
(0.176447 0.00347475 0)
(0.174266 0.00328911 0)
(0.172081 0.00311474 0)
(0.169901 0.00295112 0)
(0.167731 0.00279777 0)
(0.165577 0.00265417 0)
(0.163444 0.00251974 0)
(0.161337 0.0023939 0)
(0.159258 0.00227607 0)
(0.157211 0.00216566 0)
(0.155198 0.00206216 0)
(0.153222 0.00196504 0)
(0.151282 0.00187387 0)
(0.149382 0.00178818 0)
(0.14752 0.00170761 0)
(0.145699 0.00163176 0)
(0.143917 0.00156034 0)
(0.142176 0.00149299 0)
(0.140474 0.00142947 0)
(0.138813 0.00136948 0)
(0.137188 0.00131281 0)
(0.135605 0.0012592 0)
(0.134057 0.00120847 0)
(0.132548 0.00116042 0)
(0.131073 0.00111486 0)
(0.129636 0.00107164 0)
(0.128231 0.00103058 0)
(0.126863 0.000991581 0)
(0.125524 0.000954452 0)
(0.124222 0.000919136 0)
(0.122947 0.000885448 0)
(0.121706 0.000853373 0)
(0.120491 0.000822701 0)
(0.11931 0.000793478 0)
(0.118151 0.000765453 0)
(0.117026 0.000738742 0)
(0.11592 0.000713046 0)
(0.114849 0.00068855 0)
(0.113794 0.000664913 0)
(0.112773 0.000642382 0)
(0.111766 0.000620565 0)
(0.110794 0.000599779 0)
(0.109833 0.000579568 0)
(0.108906 0.000560337 0)
(0.107988 0.000541538 0)
(0.107107 0.000523697 0)
(0.106229 0.000506149 0)
(0.105391 0.000489548 0)
(0.104552 0.000473124 0)
(0.103756 0.000457614 0)
(0.102954 0.00044221 0)
(0.102198 0.000427675 0)
(0.101431 0.000413178 0)
(0.100715 0.000399527 0)
(0.0999809 0.000385837 0)
(0.0993045 0.000372995 0)
(0.0986015 0.000360046 0)
(0.0979646 0.000347936 0)
(0.0972903 0.000335679 0)
(0.0966935 0.000324231 0)
(0.0960455 0.000312647 0)
(0.0954896 0.000301791 0)
(0.094865 0.000290843 0)
(0.0943515 0.000280613 0)
(0.0937468 0.000270257 0)
(0.0932779 0.000260651 0)
(0.0926887 0.000250905 0)
(0.0922674 0.000241944 0)
(0.0916882 0.000232818 0)
(0.0913189 0.000224582 0)
(0.0907424 0.000216109 0)
(0.0904304 0.000208846 0)
(0.0898473 0.000200996 0)
(0.0895996 0.000194901 0)
(0.0889979 0.000187812 0)
(0.0888236 0.000183204 0)
(0.0881876 0.000177355 0)
(0.0880969 0.000174555 0)
(0.0874088 0.000172551 0)
(0.193872 0.00676143 0)
(0.194219 0.00820703 0)
(0.195062 0.0094886 0)
(0.196379 0.0102692 0)
(0.197886 0.0105223 0)
(0.199286 0.0104041 0)
(0.200422 0.010046 0)
(0.201249 0.00951917 0)
(0.201768 0.00887704 0)
(0.201988 0.00818817 0)
(0.201934 0.00752694 0)
(0.20165 0.00694561 0)
(0.201192 0.00646128 0)
(0.200614 0.00606313 0)
(0.199952 0.00573141 0)
(0.199222 0.00544827 0)
(0.198434 0.00520026 0)
(0.197588 0.00497772 0)
(0.196683 0.00477381 0)
(0.19572 0.00458383 0)
(0.194699 0.00440465 0)
(0.193623 0.00423436 0)
(0.192495 0.00407182 0)
(0.191319 0.00391639 0)
(0.190098 0.00376765 0)
(0.188836 0.0036253 0)
(0.187539 0.00348906 0)
(0.18621 0.00335864 0)
(0.184853 0.00323376 0)
(0.183471 0.00311413 0)
(0.18207 0.00299949 0)
(0.18065 0.00288958 0)
(0.179219 0.00278417 0)
(0.177776 0.00268304 0)
(0.176327 0.00258601 0)
(0.174872 0.00249287 0)
(0.173417 0.00240346 0)
(0.17196 0.00231763 0)
(0.170508 0.00223524 0)
(0.169059 0.00215614 0)
(0.167618 0.00208022 0)
(0.166183 0.00200733 0)
(0.164761 0.0019374 0)
(0.163347 0.00187022 0)
(0.161949 0.00180578 0)
(0.16056 0.00174385 0)
(0.159191 0.00168446 0)
(0.157831 0.00162733 0)
(0.156493 0.00157256 0)
(0.155166 0.00151983 0)
(0.153863 0.00146929 0)
(0.15257 0.00142057 0)
(0.151303 0.00137389 0)
(0.150046 0.0013288 0)
(0.148816 0.00128564 0)
(0.147595 0.00124384 0)
(0.146404 0.00120387 0)
(0.14522 0.00116504 0)
(0.144068 0.00112797 0)
(0.142921 0.00109183 0)
(0.141808 0.00105738 0)
(0.140698 0.00102367 0)
(0.139625 0.000991605 0)
(0.138551 0.00096007 0)
(0.137517 0.000930169 0)
(0.136479 0.000900572 0)
(0.135484 0.000872641 0)
(0.134481 0.000844777 0)
(0.133525 0.000818636 0)
(0.132556 0.000792339 0)
(0.13164 0.0007678 0)
(0.130704 0.000742924 0)
(0.129828 0.000719848 0)
(0.128924 0.00069623 0)
(0.128089 0.000674507 0)
(0.127215 0.000651995 0)
(0.126421 0.000631545 0)
(0.125575 0.000610023 0)
(0.124824 0.000590757 0)
(0.124005 0.000570134 0)
(0.123298 0.000551987 0)
(0.122503 0.000532197 0)
(0.121842 0.000515106 0)
(0.121068 0.000496057 0)
(0.120457 0.000480115 0)
(0.119699 0.00046169 0)
(0.119141 0.000446947 0)
(0.118395 0.000429127 0)
(0.117895 0.000415656 0)
(0.117155 0.000398408 0)
(0.116718 0.000386361 0)
(0.115975 0.000369712 0)
(0.115609 0.000359437 0)
(0.114854 0.000343389 0)
(0.114566 0.000335078 0)
(0.113787 0.000319977 0)
(0.113586 0.000313899 0)
(0.112768 0.000300643 0)
(0.112665 0.00029716 0)
(0.111792 0.000288228 0)
(0.194593 0.00652697 0)
(0.194929 0.0076946 0)
(0.195624 0.00877479 0)
(0.196688 0.00952887 0)
(0.19796 0.00985194 0)
(0.199221 0.00981576 0)
(0.200316 0.00954139 0)
(0.201188 0.00911652 0)
(0.201835 0.00859632 0)
(0.20227 0.00803003 0)
(0.202512 0.00747115 0)
(0.20259 0.00696432 0)
(0.202545 0.00653129 0)
(0.202418 0.00617096 0)
(0.202238 0.00587049 0)
(0.202024 0.00561526 0)
(0.201782 0.00539334 0)
(0.201511 0.00519593 0)
(0.201209 0.00501678 0)
(0.200873 0.00485143 0)
(0.200501 0.00469679 0)
(0.20009 0.00455075 0)
(0.199643 0.00441195 0)
(0.199156 0.00427944 0)
(0.198632 0.00415263 0)
(0.19807 0.00403102 0)
(0.197472 0.00391425 0)
(0.196838 0.0038019 0)
(0.19617 0.00369369 0)
(0.195468 0.00358924 0)
(0.194736 0.00348832 0)
(0.193972 0.0033906 0)
(0.19318 0.00329597 0)
(0.192359 0.00320413 0)
(0.191515 0.00311501 0)
(0.190643 0.00302838 0)
(0.189752 0.00294422 0)
(0.188836 0.00286229 0)
(0.187905 0.00278266 0)
(0.186952 0.00270509 0)
(0.185987 0.00262971 0)
(0.185002 0.00255626 0)
(0.18401 0.00248492 0)
(0.183 0.00241539 0)
(0.181987 0.00234792 0)
(0.180959 0.0022821 0)
(0.17993 0.0022183 0)
(0.178888 0.002156 0)
(0.17785 0.00209568 0)
(0.176798 0.00203675 0)
(0.175756 0.00197978 0)
(0.1747 0.00192405 0)
(0.173657 0.00187028 0)
(0.172602 0.00181756 0)
(0.171563 0.00176681 0)
(0.170511 0.00171691 0)
(0.16948 0.00166901 0)
(0.168435 0.00162175 0)
(0.167415 0.00157653 0)
(0.166379 0.00153176 0)
(0.165373 0.00148906 0)
(0.164349 0.00144658 0)
(0.16336 0.00140626 0)
(0.16235 0.00136587 0)
(0.161381 0.00132777 0)
(0.160386 0.0012893 0)
(0.159438 0.00125329 0)
(0.158459 0.00121655 0)
(0.157535 0.00118249 0)
(0.156574 0.00114734 0)
(0.155677 0.00111509 0)
(0.154733 0.00108139 0)
(0.153864 0.00105083 0)
(0.152938 0.00101842 0)
(0.152101 0.000989484 0)
(0.151192 0.000958174 0)
(0.150388 0.000930825 0)
(0.149496 0.000900481 0)
(0.148729 0.00087466 0)
(0.147852 0.000845165 0)
(0.147126 0.000820851 0)
(0.146262 0.000792104 0)
(0.145579 0.000769266 0)
(0.144726 0.000741142 0)
(0.144092 0.000719955 0)
(0.143245 0.000692279 0)
(0.142665 0.000672845 0)
(0.14182 0.000645604 0)
(0.141299 0.000628024 0)
(0.140451 0.000601196 0)
(0.139997 0.000585647 0)
(0.139138 0.000559331 0)
(0.138758 0.000546208 0)
(0.137878 0.00052051 0)
(0.137581 0.000509945 0)
(0.136671 0.000485444 0)
(0.136465 0.00047771 0)
(0.135512 0.000455586 0)
(0.135406 0.000451255 0)
(0.134397 0.000433653 0)
(0.195213 0.00631827 0)
(0.195535 0.00728901 0)
(0.196128 0.00819337 0)
(0.196999 0.00887554 0)
(0.198057 0.00922851 0)
(0.199148 0.0092646 0)
(0.200138 0.00906987 0)
(0.200956 0.00872932 0)
(0.201589 0.00830167 0)
(0.202049 0.00782952 0)
(0.202354 0.00735262 0)
(0.20253 0.00690646 0)
(0.202608 0.00651348 0)
(0.202619 0.00617916 0)
(0.202592 0.00589705 0)
(0.202543 0.00565624 0)
(0.202483 0.00544657 0)
(0.202412 0.0052602 0)
(0.20233 0.00509168 0)
(0.202233 0.00493707 0)
(0.202121 0.00479368 0)
(0.201991 0.00465945 0)
(0.201844 0.00453303 0)
(0.201676 0.00441333 0)
(0.201491 0.00429966 0)
(0.201283 0.00419133 0)
(0.201057 0.00408795 0)
(0.200808 0.00398893 0)
(0.20054 0.00389399 0)
(0.200248 0.00380258 0)
(0.199937 0.00371452 0)
(0.199601 0.00362931 0)
(0.199247 0.00354688 0)
(0.198868 0.00346676 0)
(0.198471 0.00338902 0)
(0.198048 0.00331318 0)
(0.197609 0.00323939 0)
(0.197144 0.00316719 0)
(0.196664 0.0030968 0)
(0.196157 0.00302775 0)
(0.195637 0.00296038 0)
(0.195091 0.00289418 0)
(0.194535 0.0028296 0)
(0.193951 0.00276603 0)
(0.193361 0.0027041 0)
(0.192743 0.00264299 0)
(0.19212 0.00258351 0)
(0.19147 0.00252468 0)
(0.190819 0.00246749 0)
(0.19014 0.00241081 0)
(0.189464 0.00235585 0)
(0.188759 0.00230126 0)
(0.188061 0.00224849 0)
(0.187333 0.00219589 0)
(0.186617 0.00214524 0)
(0.185868 0.0020945 0)
(0.185137 0.00204585 0)
(0.184371 0.00199687 0)
(0.183628 0.00195015 0)
(0.182848 0.00190286 0)
(0.182096 0.00185805 0)
(0.181304 0.00181236 0)
(0.180548 0.00176939 0)
(0.179747 0.00172516 0)
(0.178989 0.00168396 0)
(0.17818 0.00164105 0)
(0.177424 0.00160157 0)
(0.17661 0.00155988 0)
(0.17586 0.00152209 0)
(0.175042 0.0014815 0)
(0.1743 0.00144531 0)
(0.173479 0.00140574 0)
(0.17275 0.00137111 0)
(0.171928 0.0013324 0)
(0.171214 0.00129934 0)
(0.170391 0.00126131 0)
(0.169698 0.00122987 0)
(0.168873 0.0011924 0)
(0.168204 0.00116257 0)
(0.167378 0.00112556 0)
(0.166738 0.00109738 0)
(0.165908 0.00106073 0)
(0.165302 0.00103422 0)
(0.164468 0.000997808 0)
(0.163902 0.000973224 0)
(0.16306 0.000936877 0)
(0.162539 0.000914346 0)
(0.161686 0.000878125 0)
(0.161217 0.000857754 0)
(0.160348 0.00082171 0)
(0.159939 0.000803671 0)
(0.159049 0.000768018 0)
(0.158706 0.000752749 0)
(0.157788 0.000717702 0)
(0.15752 0.000705314 0)
(0.156566 0.000671631 0)
(0.15638 0.000662499 0)
(0.15538 0.000631516 0)
(0.155286 0.000626481 0)
(0.15423 0.000599996 0)
(0.195753 0.00612132 0)
(0.196058 0.00693845 0)
(0.196571 0.00769659 0)
(0.197295 0.0082945 0)
(0.198176 0.00864694 0)
(0.19911 0.00873751 0)
(0.199988 0.00861576 0)
(0.200739 0.00835136 0)
(0.201338 0.00800182 0)
(0.201788 0.00760804 0)
(0.202106 0.00720244 0)
(0.202313 0.00681269 0)
(0.202434 0.00645901 0)
(0.202495 0.0061501 0)
(0.202519 0.00588451 0)
(0.202522 0.00565503 0)
(0.202517 0.00545369 0)
(0.202504 0.00527373 0)
(0.202488 0.00511052 0)
(0.202463 0.00496068 0)
(0.202433 0.00482204 0)
(0.202394 0.00469272 0)
(0.202349 0.00457158 0)
(0.202293 0.00445742 0)
(0.202232 0.00434963 0)
(0.202159 0.00424737 0)
(0.20208 0.00415034 0)
(0.201989 0.00405779 0)
(0.201892 0.00396959 0)
(0.201782 0.00388499 0)
(0.201665 0.00380399 0)
(0.201533 0.00372586 0)
(0.201396 0.00365074 0)
(0.201242 0.0035779 0)
(0.201082 0.00350764 0)
(0.200904 0.00343919 0)
(0.20072 0.00337298 0)
(0.200516 0.00330817 0)
(0.200309 0.00324533 0)
(0.200078 0.00318356 0)
(0.199845 0.00312358 0)
(0.199587 0.0030644 0)
(0.199328 0.00300695 0)
(0.199042 0.00295006 0)
(0.198758 0.00289492 0)
(0.198444 0.00284009 0)
(0.198133 0.00278702 0)
(0.197791 0.00273398 0)
(0.197454 0.00268273 0)
(0.197084 0.00263124 0)
(0.196723 0.00258165 0)
(0.196326 0.00253162 0)
(0.195941 0.00248366 0)
(0.195517 0.00243499 0)
(0.19511 0.00238862 0)
(0.19466 0.00234115 0)
(0.194232 0.0022962 0)
(0.193757 0.00224977 0)
(0.19331 0.00220616 0)
(0.192811 0.00216069 0)
(0.192347 0.00211843 0)
(0.191825 0.00207389 0)
(0.191347 0.00203295 0)
(0.190803 0.00198919 0)
(0.190312 0.00194953 0)
(0.189748 0.00190638 0)
(0.189248 0.00186798 0)
(0.188664 0.00182534 0)
(0.188157 0.00178824 0)
(0.187555 0.00174604 0)
(0.187044 0.00171018 0)
(0.186425 0.00166835 0)
(0.185913 0.00163375 0)
(0.185277 0.00159212 0)
(0.184768 0.00155883 0)
(0.184116 0.00151723 0)
(0.183614 0.00148537 0)
(0.182945 0.00144371 0)
(0.182455 0.00141332 0)
(0.181769 0.00137152 0)
(0.181295 0.00134267 0)
(0.180592 0.00130064 0)
(0.180139 0.00127335 0)
(0.179416 0.00123108 0)
(0.178989 0.00120567 0)
(0.178247 0.00116299 0)
(0.177852 0.0011396 0)
(0.177086 0.00109665 0)
(0.176729 0.00107534 0)
(0.175937 0.0010323 0)
(0.175625 0.00101327 0)
(0.174804 0.000970515 0)
(0.174542 0.000954238 0)
(0.173687 0.000911966 0)
(0.173482 0.000898575 0)
(0.172589 0.000857723 0)
(0.172448 0.000847795 0)
(0.17151 0.000809826 0)
(0.171438 0.000804338 0)
(0.17045 0.000770739 0)
(0.196227 0.0059314 0)
(0.196512 0.0066242 0)
(0.19696 0.00726386 0)
(0.19757 0.00778266 0)
(0.198309 0.00811779 0)
(0.199104 0.00824408 0)
(0.199875 0.00818436 0)
(0.200556 0.00798872 0)
(0.201117 0.00770802 0)
(0.20155 0.00738154 0)
(0.201869 0.00703832 0)
(0.20209 0.00670082 0)
(0.202236 0.0063862 0)
(0.202323 0.00610391 0)
(0.202374 0.00585585 0)
(0.202401 0.00563805 0)
(0.202418 0.00544494 0)
(0.202425 0.00527093 0)
(0.20243 0.00511227 0)
(0.202426 0.00496595 0)
(0.202421 0.00483036 0)
(0.202407 0.00470376 0)
(0.202392 0.00458532 0)
(0.202369 0.00447374 0)
(0.202346 0.00436863 0)
(0.202314 0.00426895 0)
(0.202283 0.00417461 0)
(0.202243 0.00408465 0)
(0.202205 0.00399922 0)
(0.202157 0.00391731 0)
(0.202112 0.00383925 0)
(0.202056 0.00376399 0)
(0.202002 0.00369204 0)
(0.201937 0.0036223 0)
(0.201875 0.00355547 0)
(0.201799 0.00349037 0)
(0.201728 0.00342787 0)
(0.201641 0.00336668 0)
(0.20156 0.00330784 0)
(0.20146 0.00324991 0)
(0.201367 0.00319416 0)
(0.201253 0.00313898 0)
(0.201149 0.00308594 0)
(0.20102 0.00303315 0)
(0.200902 0.00298257 0)
(0.200758 0.00293192 0)
(0.200626 0.00288353 0)
(0.200464 0.00283471 0)
(0.200319 0.0027882 0)
(0.200139 0.00274088 0)
(0.199978 0.00269599 0)
(0.199779 0.00264996 0)
(0.199604 0.00260664 0)
(0.199385 0.00256179 0)
(0.199194 0.00252001 0)
(0.198956 0.00247617 0)
(0.19875 0.00243571 0)
(0.19849 0.00239262 0)
(0.19827 0.0023533 0)
(0.197989 0.0023108 0)
(0.197754 0.0022726 0)
(0.197452 0.00223066 0)
(0.197204 0.00219361 0)
(0.196879 0.00215206 0)
(0.196619 0.00211608 0)
(0.196273 0.00207467 0)
(0.196002 0.00203972 0)
(0.195634 0.00199829 0)
(0.195353 0.00196442 0)
(0.194962 0.00192291 0)
(0.194674 0.00189004 0)
(0.194261 0.00184839 0)
(0.193968 0.00181655 0)
(0.193532 0.00177459 0)
(0.193235 0.0017438 0)
(0.192777 0.0017013 0)
(0.19248 0.00167171 0)
(0.191999 0.00162858 0)
(0.191705 0.00160028 0)
(0.191199 0.00155651 0)
(0.190912 0.00152951 0)
(0.190381 0.00148503 0)
(0.190104 0.00145925 0)
(0.189548 0.00141413 0)
(0.189285 0.00138997 0)
(0.188702 0.00134407 0)
(0.188457 0.00132171 0)
(0.187846 0.00127524 0)
(0.187623 0.00125456 0)
(0.186982 0.00120772 0)
(0.186787 0.00118896 0)
(0.186115 0.00114247 0)
(0.18595 0.00112631 0)
(0.185244 0.00108009 0)
(0.185115 0.00106647 0)
(0.184373 0.00102159 0)
(0.184285 0.00101142 0)
(0.183504 0.00096978 0)
(0.183458 0.000964043 0)
(0.182634 0.000926479 0)
(0.196646 0.00574819 0)
(0.196909 0.00633936 0)
(0.197303 0.00688401 0)
(0.197823 0.00733426 0)
(0.198447 0.00764488 0)
(0.199124 0.00779114 0)
(0.199796 0.00778022 0)
(0.200408 0.00764452 0)
(0.200927 0.00742499 0)
(0.20134 0.00715735 0)
(0.201655 0.0068687 0)
(0.201884 0.00657852 0)
(0.202045 0.00630143 0)
(0.202151 0.00604633 0)
(0.202221 0.00581699 0)
(0.202265 0.00561197 0)
(0.202297 0.00542797 0)
(0.202316 0.00526064 0)
(0.202331 0.00510714 0)
(0.202337 0.00496475 0)
(0.202341 0.00483236 0)
(0.202337 0.00470831 0)
(0.202332 0.00459214 0)
(0.202319 0.00448245 0)
(0.202308 0.00437914 0)
(0.202288 0.00428095 0)
(0.202271 0.00418808 0)
(0.202247 0.00409931 0)
(0.202226 0.00401513 0)
(0.202197 0.00393423 0)
(0.202174 0.00385733 0)
(0.20214 0.003783 0)
(0.202115 0.00371222 0)
(0.202077 0.00364344 0)
(0.202049 0.00357785 0)
(0.202008 0.0035138 0)
(0.201977 0.00345268 0)
(0.201931 0.00339267 0)
(0.201898 0.0033354 0)
(0.201847 0.00327881 0)
(0.201811 0.00322484 0)
(0.201754 0.00317115 0)
(0.201714 0.00312009 0)
(0.201651 0.00306893 0)
(0.201607 0.00302052 0)
(0.201537 0.00297167 0)
(0.201488 0.00292568 0)
(0.20141 0.00287881 0)
(0.201356 0.00283492 0)
(0.201268 0.00278966 0)
(0.201209 0.00274757 0)
(0.201111 0.00270365 0)
(0.201045 0.00266328 0)
(0.200937 0.00262057 0)
(0.200864 0.00258191 0)
(0.200744 0.00254027 0)
(0.200664 0.00250309 0)
(0.20053 0.0024622 0)
(0.200444 0.00242624 0)
(0.200296 0.00238587 0)
(0.200202 0.00235105 0)
(0.20004 0.00231114 0)
(0.199939 0.00227755 0)
(0.199761 0.00223792 0)
(0.199653 0.00220548 0)
(0.199457 0.0021658 0)
(0.199343 0.00213441 0)
(0.19913 0.00209446 0)
(0.199009 0.00206413 0)
(0.198778 0.00202388 0)
(0.198652 0.00199447 0)
(0.198401 0.00195387 0)
(0.198271 0.00192542 0)
(0.198 0.00188427 0)
(0.197866 0.00185674 0)
(0.197575 0.00181475 0)
(0.197439 0.0017883 0)
(0.197125 0.00174534 0)
(0.196989 0.00172001 0)
(0.196654 0.00167625 0)
(0.196519 0.00165198 0)
(0.196159 0.00160731 0)
(0.196028 0.00158384 0)
(0.195645 0.00153837 0)
(0.195519 0.00151624 0)
(0.195111 0.00146975 0)
(0.194994 0.00144921 0)
(0.194559 0.00140217 0)
(0.194452 0.00138284 0)
(0.193989 0.00133524 0)
(0.193895 0.00131711 0)
(0.193406 0.00127003 0)
(0.193327 0.00125467 0)
(0.192808 0.00120778 0)
(0.192746 0.00119438 0)
(0.192197 0.00114857 0)
(0.192155 0.0011382 0)
(0.191577 0.00109637 0)
(0.191555 0.00109065 0)
(0.190943 0.00105235 0)
(0.197017 0.0055724 0)
(0.19726 0.00608049 0)
(0.197607 0.00654839 0)
(0.198054 0.00694084 0)
(0.198585 0.00722504 0)
(0.199163 0.00737979 0)
(0.199747 0.00740464 0)
(0.200291 0.00731878 0)
(0.200767 0.00715282 0)
(0.201157 0.00693703 0)
(0.201464 0.00669637 0)
(0.201695 0.00644855 0)
(0.201866 0.00620655 0)
(0.201986 0.00597834 0)
(0.202072 0.00576858 0)
(0.202129 0.00557745 0)
(0.202173 0.00540363 0)
(0.202202 0.00524396 0)
(0.202225 0.00509652 0)
(0.202238 0.00495886 0)
(0.202249 0.00483032 0)
(0.202251 0.00470927 0)
(0.202252 0.00459566 0)
(0.202244 0.004488 0)
(0.202238 0.0043865 0)
(0.202223 0.0042897 0)
(0.202212 0.00419813 0)
(0.202192 0.00411029 0)
(0.202178 0.00402703 0)
(0.202155 0.00394672 0)
(0.202138 0.0038705 0)
(0.202112 0.00379654 0)
(0.202095 0.00372629 0)
(0.202066 0.00365775 0)
(0.202048 0.00359261 0)
(0.202017 0.00352873 0)
(0.201999 0.00346805 0)
(0.201966 0.0034082 0)
(0.201948 0.0033514 0)
(0.201913 0.00329501 0)
(0.201895 0.0032416 0)
(0.201858 0.00318814 0)
(0.20184 0.00313774 0)
(0.2018 0.00308687 0)
(0.201782 0.00303923 0)
(0.20174 0.00299073 0)
(0.201722 0.00294565 0)
(0.201676 0.00289924 0)
(0.201657 0.00285643 0)
(0.201608 0.00281173 0)
(0.201589 0.00277089 0)
(0.201535 0.00272759 0)
(0.201515 0.00268863 0)
(0.201455 0.00264658 0)
(0.201434 0.0026095 0)
(0.201369 0.00256862 0)
(0.201347 0.00253322 0)
(0.201275 0.00249319 0)
(0.201251 0.00245916 0)
(0.201171 0.0024197 0)
(0.201146 0.00238689 0)
(0.201058 0.00234793 0)
(0.201031 0.00231652 0)
(0.200933 0.00227785 0)
(0.200904 0.00224778 0)
(0.200796 0.00220905 0)
(0.200765 0.00218015 0)
(0.200646 0.00214111 0)
(0.200613 0.00211334 0)
(0.200482 0.00207404 0)
(0.200447 0.00204715 0)
(0.200303 0.00200752 0)
(0.200267 0.00198162 0)
(0.200109 0.00194145 0)
(0.200071 0.00191645 0)
(0.199898 0.00187539 0)
(0.199859 0.00185146 0)
(0.19967 0.00180934 0)
(0.199631 0.00178634 0)
(0.199426 0.00174356 0)
(0.199387 0.00172147 0)
(0.199164 0.00167791 0)
(0.199126 0.00165624 0)
(0.198885 0.00161186 0)
(0.198848 0.00159142 0)
(0.198588 0.00154589 0)
(0.198555 0.00152683 0)
(0.198275 0.00148109 0)
(0.198244 0.00146293 0)
(0.197944 0.00141674 0)
(0.197916 0.00139889 0)
(0.197597 0.00135309 0)
(0.197575 0.00133858 0)
(0.197233 0.00129332 0)
(0.197215 0.00128029 0)
(0.19685 0.0012358 0)
(0.196839 0.00122484 0)
(0.196456 0.00118501 0)
(0.19645 0.00117968 0)
(0.196042 0.00114292 0)
(0.197348 0.00540479 0)
(0.19757 0.0058447 0)
(0.197878 0.00624987 0)
(0.198265 0.0065938 0)
(0.198719 0.00685224 0)
(0.199215 0.007008 0)
(0.199721 0.00705752 0)
(0.200202 0.00701137 0)
(0.200634 0.00689114 0)
(0.200998 0.00672092 0)
(0.201295 0.00652278 0)
(0.201524 0.00631285 0)
(0.201701 0.00610317 0)
(0.20183 0.00590092 0)
(0.201927 0.00571108 0)
(0.201996 0.00553473 0)
(0.202049 0.00537209 0)
(0.202087 0.005221 0)
(0.202118 0.00508046 0)
(0.202137 0.0049483 0)
(0.202154 0.0048243 0)
(0.202161 0.00470684 0)
(0.202166 0.00459625 0)
(0.202163 0.00449096 0)
(0.20216 0.00439155 0)
(0.202149 0.00429635 0)
(0.202142 0.00420624 0)
(0.202125 0.00411944 0)
(0.202114 0.00403717 0)
(0.202094 0.00395747 0)
(0.202081 0.00388191 0)
(0.202058 0.00380828 0)
(0.202043 0.00373846 0)
(0.202018 0.00367005 0)
(0.202003 0.00360518 0)
(0.201976 0.00354128 0)
(0.201961 0.00348076 0)
(0.201933 0.0034208 0)
(0.201919 0.00336411 0)
(0.20189 0.00330755 0)
(0.201877 0.00325424 0)
(0.201847 0.0032006 0)
(0.201835 0.00315033 0)
(0.201804 0.00309925 0)
(0.201793 0.00305176 0)
(0.20176 0.00300305 0)
(0.201751 0.00295817 0)
(0.201717 0.00291156 0)
(0.201709 0.00286905 0)
(0.201674 0.0028242 0)
(0.201667 0.00278375 0)
(0.20163 0.00274032 0)
(0.201625 0.00270187 0)
(0.201586 0.00265969 0)
(0.201582 0.00262321 0)
(0.20154 0.00258227 0)
(0.201538 0.00254759 0)
(0.201493 0.00250762 0)
(0.201492 0.00247438 0)
(0.201443 0.00243509 0)
(0.201443 0.00240314 0)
(0.201391 0.00236437 0)
(0.201391 0.00233397 0)
(0.201334 0.0022955 0)
(0.201336 0.00226663 0)
(0.201273 0.00222817 0)
(0.201276 0.00220056 0)
(0.201207 0.00216187 0)
(0.20121 0.0021354 0)
(0.201135 0.00209664 0)
(0.201139 0.00207102 0)
(0.201056 0.00203205 0)
(0.20106 0.00200744 0)
(0.20097 0.00196807 0)
(0.200974 0.0019444 0)
(0.200875 0.00190416 0)
(0.20088 0.00188162 0)
(0.200771 0.00184044 0)
(0.200777 0.00181861 0)
(0.200658 0.00177708 0)
(0.200663 0.00175604 0)
(0.200534 0.00171403 0)
(0.200539 0.00169317 0)
(0.200398 0.00165033 0)
(0.200404 0.0016308 0)
(0.20025 0.00158679 0)
(0.200257 0.00156836 0)
(0.200091 0.00152467 0)
(0.200097 0.00150703 0)
(0.199919 0.00146327 0)
(0.199922 0.00144526 0)
(0.199732 0.00140125 0)
(0.199738 0.00138724 0)
(0.199532 0.00134458 0)
(0.199536 0.00133187 0)
(0.199315 0.00128986 0)
(0.199317 0.00127795 0)
(0.199086 0.00124067 0)