/*--------------------------------*- C++ -*----------------------------------*\
| =========                 |                                                 |
| \\      /  F ield         | OpenFOAM: The Open Source CFD Toolbox           |
|  \\    /   O peration     | Version:  2.3.0                                 |
|   \\  /    A nd           | Web:      www.OpenFOAM.org                      |
|    \\/     M anipulation  |                                                 |
\*---------------------------------------------------------------------------*/
FoamFile
{
    version     2.0;
    format      ascii;
    class       volVectorField;
    location    "0.95";
    object      U;
}
// * * * * * * * * * * * * * * * * * * * * * * * * * * * * * * * * * * * * * //

dimensions      [0 1 -1 0 0 0 0];

internalField   nonuniform List<vector> 
8750
(
(0.171303 0.00595417 0)
(0.154857 0.00602826 0)
(0.139043 0.00561182 0)
(0.124051 0.0050148 0)
(0.110291 0.00435481 0)
(0.0979346 0.00368526 0)
(0.0869923 0.0030429 0)
(0.0774306 0.00245315 0)
(0.0691936 0.00193149 0)
(0.0621967 0.00148575 0)
(0.0563264 0.00111763 0)
(0.0514501 0.000823662 0)
(0.047427 0.000596467 0)
(0.0441182 0.000426346 0)
(0.0413939 0.000302789 0)
(0.0391383 0.000215679 0)
(0.0372524 0.000156037 0)
(0.035655 0.000116367 0)
(0.0342809 9.07062e-05 0)
(0.0330799 7.45102e-05 0)
(0.0320139 6.44526e-05 0)
(0.0310545 5.81975e-05 0)
(0.0301808 5.41754e-05 0)
(0.0293774 5.13818e-05 0)
(0.0286332 4.92094e-05 0)
(0.0279397 4.73158e-05 0)
(0.0272905 4.55263e-05 0)
(0.0266806 4.37653e-05 0)
(0.0261059 4.20116e-05 0)
(0.0255631 4.02705e-05 0)
(0.0250493 3.85573e-05 0)
(0.024562 3.68886e-05 0)
(0.0240989 3.52784e-05 0)
(0.0236581 3.37364e-05 0)
(0.0232378 3.22685e-05 0)
(0.0228365 3.08772e-05 0)
(0.0224527 2.95625e-05 0)
(0.0220852 2.83223e-05 0)
(0.0217327 2.71537e-05 0)
(0.0213942 2.60528e-05 0)
(0.0210688 2.50157e-05 0)
(0.0207556 2.40381e-05 0)
(0.0204538 2.31161e-05 0)
(0.0201626 2.22459e-05 0)
(0.0198815 2.14236e-05 0)
(0.0196099 2.0646e-05 0)
(0.0193471 1.991e-05 0)
(0.0190927 1.92125e-05 0)
(0.0188461 1.85511e-05 0)
(0.0186071 1.79231e-05 0)
(0.0183752 1.73265e-05 0)
(0.0181499 1.67591e-05 0)
(0.0179311 1.6219e-05 0)
(0.0177183 1.57045e-05 0)
(0.0175113 1.52141e-05 0)
(0.0173098 1.47461e-05 0)
(0.0171134 1.42993e-05 0)
(0.0169221 1.38724e-05 0)
(0.0167356 1.34642e-05 0)
(0.0165536 1.30737e-05 0)
(0.016376 1.26999e-05 0)
(0.0162025 1.23418e-05 0)
(0.0160331 1.19986e-05 0)
(0.0158675 1.16695e-05 0)
(0.0157055 1.13537e-05 0)
(0.0155471 1.10507e-05 0)
(0.0153921 1.07596e-05 0)
(0.0152403 1.04801e-05 0)
(0.0150916 1.02114e-05 0)
(0.014946 9.9531e-06 0)
(0.0148033 9.70472e-06 0)
(0.0146633 9.46581e-06 0)
(0.0145261 9.23596e-06 0)
(0.0143914 9.01479e-06 0)
(0.0142592 8.80195e-06 0)
(0.0141294 8.59709e-06 0)
(0.0140019 8.39994e-06 0)
(0.0138767 8.21022e-06 0)
(0.0137536 8.02764e-06 0)
(0.0136325 7.852e-06 0)
(0.0135135 7.68311e-06 0)
(0.0133964 7.52075e-06 0)
(0.0132811 7.36474e-06 0)
(0.0131676 7.21499e-06 0)
(0.0130558 7.0714e-06 0)
(0.0129456 6.93386e-06 0)
(0.012837 6.8023e-06 0)
(0.01273 6.67681e-06 0)
(0.0126243 6.55744e-06 0)
(0.01252 6.44437e-06 0)
(0.012417 6.33799e-06 0)
(0.0123152 6.23904e-06 0)
(0.0122145 6.14881e-06 0)
(0.0121148 6.06998e-06 0)
(0.012016 6.00818e-06 0)
(0.0119177 5.97627e-06 0)
(0.0118196 6.01253e-06 0)
(0.0117193 6.17948e-06 0)
(0.0116369 5.21934e-06 0)
(0.0113586 3.8675e-05 0)
(0.190146 0.0093987 0)
(0.187816 0.00990694 0)
(0.183875 0.00968229 0)
(0.178681 0.00918473 0)
(0.172739 0.00855259 0)
(0.166401 0.00783203 0)
(0.159888 0.00706095 0)
(0.153371 0.0062742 0)
(0.146982 0.00550098 0)
(0.140824 0.00476522 0)
(0.134964 0.00408564 0)
(0.129441 0.00347515 0)
(0.124276 0.00294055 0)
(0.119471 0.00248307 0)
(0.115017 0.00209932 0)
(0.110898 0.00178266 0)
(0.107094 0.00152458 0)
(0.10358 0.0013159 0)
(0.100333 0.00114767 0)
(0.0973279 0.00101182 0)
(0.0945421 0.000901429 0)
(0.091954 0.000810822 0)
(0.0895438 0.000735513 0)
(0.0872938 0.000672039 0)
(0.0851881 0.000617788 0)
(0.0832126 0.000570806 0)
(0.0813547 0.000529648 0)
(0.0796034 0.000493236 0)
(0.077949 0.000460762 0)
(0.0763827 0.00043161 0)
(0.0748969 0.000405301 0)
(0.073485 0.000381452 0)
(0.0721407 0.000359752 0)
(0.0708588 0.000339941 0)
(0.0696344 0.000321802 0)
(0.0684632 0.000305148 0)
(0.0673414 0.000289815 0)
(0.0662653 0.000275666 0)
(0.0652319 0.000262576 0)
(0.0642383 0.000250438 0)
(0.0632818 0.000239159 0)
(0.0623602 0.000228656 0)
(0.0614711 0.000218856 0)
(0.0606127 0.000209694 0)
(0.0597832 0.000201114 0)
(0.0589808 0.000193065 0)
(0.058204 0.000185502 0)
(0.0574515 0.000178385 0)
(0.0567219 0.000171678 0)
(0.056014 0.000165349 0)
(0.0553266 0.000159369 0)
(0.0546588 0.000153711 0)
(0.0540096 0.000148352 0)
(0.0533781 0.000143271 0)
(0.0527634 0.000138448 0)
(0.0521647 0.000133866 0)
(0.0515813 0.000129507 0)
(0.0510126 0.000125358 0)
(0.0504579 0.000121405 0)
(0.0499165 0.000117636 0)
(0.0493879 0.000114039 0)
(0.0488717 0.000110603 0)
(0.0483671 0.00010732 0)
(0.0478739 0.000104179 0)
(0.0473915 0.000101174 0)
(0.0469195 9.82954e-05 0)
(0.0464575 9.55373e-05 0)
(0.0460052 9.2893e-05 0)
(0.0455621 9.03563e-05 0)
(0.0451279 8.79217e-05 0)
(0.0447023 8.5584e-05 0)
(0.044285 8.33383e-05 0)
(0.0438757 8.11803e-05 0)
(0.0434741 7.91056e-05 0)
(0.0430799 7.71106e-05 0)
(0.0426928 7.51915e-05 0)
(0.0423127 7.33451e-05 0)
(0.0419392 7.15683e-05 0)
(0.0415722 6.98582e-05 0)
(0.0412114 6.82123e-05 0)
(0.0408566 6.66282e-05 0)
(0.0405075 6.51035e-05 0)
(0.0401641 6.36364e-05 0)
(0.039826 6.22251e-05 0)
(0.0394932 6.08681e-05 0)
(0.0391653 5.9564e-05 0)
(0.0388423 5.83118e-05 0)
(0.0385238 5.71108e-05 0)
(0.0382098 5.59607e-05 0)
(0.0379001 5.48619e-05 0)
(0.0375944 5.38159e-05 0)
(0.0372925 5.28258e-05 0)
(0.0369942 5.18983e-05 0)
(0.0366993 5.10476e-05 0)
(0.0364073 5.03047e-05 0)
(0.0361178 4.97465e-05 0)
(0.0358296 4.95846e-05 0)
(0.0355385 5.0354e-05 0)
(0.0352688 5.55101e-05 0)
(0.0347059 0.000134084 0)
(0.193132 0.00903283 0)
(0.193914 0.00998783 0)
(0.194032 0.0103179 0)
(0.193338 0.0103197 0)
(0.191951 0.0100936 0)
(0.189994 0.00967799 0)
(0.187561 0.00911777 0)
(0.184742 0.00846258 0)
(0.181633 0.00775764 0)
(0.178321 0.00704125 0)
(0.174886 0.00634416 0)
(0.171392 0.00568901 0)
(0.167891 0.00509024 0)
(0.164422 0.00455489 0)
(0.161013 0.00408403 0)
(0.157685 0.00367448 0)
(0.154451 0.00332047 0)
(0.151318 0.00301503 0)
(0.148289 0.00275106 0)
(0.145364 0.00252191 0)
(0.142544 0.00232178 0)
(0.139826 0.00214578 0)
(0.137207 0.00198991 0)
(0.134683 0.00185095 0)
(0.132251 0.00172634 0)
(0.129908 0.00161401 0)
(0.12765 0.00151232 0)
(0.125473 0.00141991 0)
(0.123375 0.00133567 0)
(0.121351 0.00125866 0)
(0.119398 0.00118811 0)
(0.117513 0.00112332 0)
(0.115694 0.00106369 0)
(0.113936 0.00100872 0)
(0.112237 0.000957932 0)
(0.110594 0.000910929 0)
(0.109005 0.000867347 0)
(0.107467 0.000826865 0)
(0.105978 0.000789197 0)
(0.104535 0.000754087 0)
(0.103136 0.000721306 0)
(0.101778 0.000690652 0)
(0.100461 0.00066194 0)
(0.0991825 0.000635008 0)
(0.0979401 0.000609708 0)
(0.0967324 0.000585908 0)
(0.0955579 0.00056349 0)
(0.0944151 0.000542345 0)
(0.0933026 0.000522376 0)
(0.0922191 0.000503496 0)
(0.0911634 0.000485626 0)
(0.0901343 0.000468691 0)
(0.0891306 0.000452627 0)
(0.0881513 0.000437373 0)
(0.0871954 0.000422875 0)
(0.086262 0.000409083 0)
(0.0853501 0.000395949 0)
(0.084459 0.000383433 0)
(0.0835878 0.000371494 0)
(0.0827358 0.000360099 0)
(0.0819022 0.000349212 0)
(0.0810863 0.000338805 0)
(0.0802876 0.00032885 0)
(0.0795054 0.00031932 0)
(0.078739 0.000310191 0)
(0.077988 0.000301441 0)
(0.0772518 0.000293049 0)
(0.0765299 0.000284997 0)
(0.0758217 0.000277267 0)
(0.0751269 0.000269841 0)
(0.074445 0.000262705 0)
(0.0737756 0.000255845 0)
(0.0731182 0.000249246 0)
(0.0724724 0.000242898 0)
(0.071838 0.000236787 0)
(0.0712144 0.000230904 0)
(0.0706014 0.000225238 0)
(0.0699986 0.00021978 0)
(0.0694058 0.000214522 0)
(0.0688225 0.000209456 0)
(0.0682485 0.000204574 0)
(0.0676835 0.000199869 0)
(0.0671272 0.000195336 0)
(0.0665793 0.000190969 0)
(0.0660395 0.000186762 0)
(0.0655076 0.000182712 0)
(0.0649833 0.000178816 0)
(0.0644663 0.00017507 0)
(0.0639564 0.000171472 0)
(0.0634532 0.000168024 0)
(0.0629566 0.000164727 0)
(0.0624662 0.000161588 0)
(0.0619817 0.000158622 0)
(0.0615027 0.000155863 0)
(0.0610287 0.000153383 0)
(0.0605591 0.00015137 0)
(0.0600923 0.000150335 0)
(0.0596242 0.000151858 0)
(0.0591709 0.000168141 0)
(0.0584402 0.000266856 0)
(0.194157 0.00839547 0)
(0.195324 0.00944971 0)
(0.196375 0.010004 0)
(0.197092 0.0102431 0)
(0.197455 0.0102502 0)
(0.197473 0.0100576 0)
(0.197143 0.00970109 0)
(0.196474 0.00922367 0)
(0.195492 0.00866724 0)
(0.194236 0.00806915 0)
(0.192751 0.00746114 0)
(0.19108 0.00686838 0)
(0.189266 0.00630887 0)
(0.187346 0.00579367 0)
(0.185351 0.00532791 0)
(0.183307 0.00491213 0)
(0.181234 0.00454375 0)
(0.179148 0.00421837 0)
(0.17706 0.00393078 0)
(0.174978 0.00367569 0)
(0.172908 0.00344821 0)
(0.170854 0.00324401 0)
(0.16882 0.00305945 0)
(0.166809 0.00289153 0)
(0.164822 0.00273784 0)
(0.162861 0.00259643 0)
(0.160926 0.00246575 0)
(0.159021 0.00234457 0)
(0.157144 0.00223185 0)
(0.155298 0.00212678 0)
(0.153482 0.00202863 0)
(0.151697 0.00193681 0)
(0.149943 0.00185078 0)
(0.148221 0.00177009 0)
(0.14653 0.00169432 0)
(0.14487 0.00162308 0)
(0.143242 0.00155605 0)
(0.141644 0.00149292 0)
(0.140077 0.00143339 0)
(0.13854 0.00137721 0)
(0.137033 0.00132415 0)
(0.135555 0.00127399 0)
(0.134106 0.00122652 0)
(0.132685 0.00118157 0)
(0.131292 0.00113896 0)
(0.129926 0.00109853 0)
(0.128586 0.00106015 0)
(0.127272 0.00102368 0)
(0.125984 0.000989001 0)
(0.12472 0.000955996 0)
(0.123479 0.000924562 0)
(0.122263 0.000894602 0)
(0.121069 0.000866027 0)
(0.119897 0.000838752 0)
(0.118748 0.000812703 0)
(0.117619 0.000787806 0)
(0.11651 0.000763996 0)
(0.115422 0.00074121 0)
(0.114353 0.000719392 0)
(0.113303 0.000698487 0)
(0.112272 0.000678446 0)
(0.111258 0.000659222 0)
(0.110262 0.000640773 0)
(0.109283 0.000623057 0)
(0.10832 0.000606037 0)
(0.107374 0.000589677 0)
(0.106443 0.000573946 0)
(0.105527 0.00055881 0)
(0.104626 0.000544243 0)
(0.10374 0.000530216 0)
(0.102868 0.000516705 0)
(0.102009 0.000503685 0)
(0.101164 0.000491136 0)
(0.100331 0.000479035 0)
(0.0995117 0.000467363 0)
(0.0987044 0.000456103 0)
(0.097909 0.000445237 0)
(0.0971253 0.00043475 0)
(0.096353 0.000424626 0)
(0.0955917 0.000414852 0)
(0.0948412 0.000405415 0)
(0.0941012 0.000396304 0)
(0.0933714 0.000387508 0)
(0.0926514 0.000379016 0)
(0.0919411 0.000370821 0)
(0.0912402 0.000362914 0)
(0.0905483 0.00035529 0)
(0.0898652 0.000347942 0)
(0.0891907 0.000340869 0)
(0.0885243 0.000334069 0)
(0.087866 0.000327547 0)
(0.0872152 0.000321312 0)
(0.0865718 0.00031539 0)
(0.0859352 0.000309835 0)
(0.085305 0.000304767 0)
(0.0846804 0.000300492 0)
(0.0840599 0.000297862 0)
(0.0834401 0.00029974 0)
(0.0828323 0.000322596 0)
(0.0819877 0.00041943 0)
(0.194868 0.00789317 0)
(0.19591 0.00888934 0)
(0.197018 0.00948457 0)
(0.198017 0.00979887 0)
(0.198866 0.00990579 0)
(0.199547 0.0098352 0)
(0.200035 0.00961343 0)
(0.200308 0.00927301 0)
(0.200357 0.00884779 0)
(0.20019 0.00836942 0)
(0.199821 0.00786607 0)
(0.199273 0.00736133 0)
(0.198569 0.0068733 0)
(0.197734 0.00641434 0)
(0.196791 0.00599151 0)
(0.195762 0.00560758 0)
(0.194663 0.00526213 0)
(0.193509 0.00495267 0)
(0.192311 0.00467557 0)
(0.191077 0.00442683 0)
(0.189815 0.00420246 0)
(0.188528 0.00399886 0)
(0.187222 0.0038129 0)
(0.185899 0.00364194 0)
(0.184562 0.00348384 0)
(0.183215 0.00333686 0)
(0.181858 0.00319962 0)
(0.180494 0.00307099 0)
(0.179125 0.00295006 0)
(0.177752 0.00283611 0)
(0.176377 0.00272849 0)
(0.175003 0.00262669 0)
(0.173629 0.00253025 0)
(0.172258 0.00243878 0)
(0.17089 0.00235192 0)
(0.169528 0.00226936 0)
(0.168171 0.0021908 0)
(0.166821 0.002116 0)
(0.165478 0.00204472 0)
(0.164144 0.00197673 0)
(0.162818 0.00191185 0)
(0.161503 0.00184988 0)
(0.160197 0.00179066 0)
(0.158903 0.00173403 0)
(0.157619 0.00167984 0)
(0.156347 0.00162797 0)
(0.155086 0.00157828 0)
(0.153838 0.00153066 0)
(0.152602 0.001485 0)
(0.151378 0.0014412 0)
(0.150167 0.00139916 0)
(0.148969 0.00135879 0)
(0.147784 0.00132001 0)
(0.146611 0.00128274 0)
(0.145452 0.00124691 0)
(0.144305 0.00121244 0)
(0.143171 0.00117928 0)
(0.14205 0.00114735 0)
(0.140942 0.0011166 0)
(0.139847 0.00108698 0)
(0.138764 0.00105843 0)
(0.137694 0.00103091 0)
(0.136636 0.00100436 0)
(0.135591 0.000978754 0)
(0.134558 0.000954038 0)
(0.133537 0.000930178 0)
(0.132529 0.000907136 0)
(0.131532 0.000884877 0)
(0.130546 0.000863369 0)
(0.129573 0.000842581 0)
(0.12861 0.000822483 0)
(0.127659 0.000803048 0)
(0.126719 0.00078425 0)
(0.12579 0.000766063 0)
(0.124872 0.000748465 0)
(0.123964 0.000731433 0)
(0.123066 0.000714948 0)
(0.122179 0.000698989 0)
(0.121302 0.000683539 0)
(0.120435 0.00066858 0)
(0.119577 0.000654097 0)
(0.11873 0.000640075 0)
(0.117891 0.000626501 0)
(0.117061 0.000613363 0)
(0.116241 0.000600649 0)
(0.115429 0.00058835 0)
(0.114626 0.000576458 0)
(0.113831 0.000564968 0)
(0.113045 0.000553875 0)
(0.112266 0.00054318 0)
(0.111495 0.000532889 0)
(0.110732 0.000523018 0)
(0.109976 0.000513602 0)
(0.109226 0.000504715 0)
(0.108483 0.000496528 0)
(0.107746 0.000489458 0)
(0.107013 0.000484663 0)
(0.106283 0.000485961 0)
(0.105566 0.000509612 0)
(0.10465 0.000589626 0)
(0.195468 0.00746179 0)
(0.196344 0.00836129 0)
(0.197332 0.00894669 0)
(0.198303 0.00928773 0)
(0.199211 0.00944259 0)
(0.200035 0.00943895 0)
(0.200753 0.00929846 0)
(0.20134 0.00904731 0)
(0.201782 0.00871377 0)
(0.202074 0.00832494 0)
(0.202219 0.00790536 0)
(0.202225 0.0074761 0)
(0.202104 0.00705392 0)
(0.201873 0.0066509 0)
(0.201546 0.00627463 0)
(0.201138 0.00592891 0)
(0.200662 0.00561458 0)
(0.200128 0.00533044 0)
(0.199545 0.00507406 0)
(0.19892 0.0048424 0)
(0.198259 0.00463231 0)
(0.197564 0.00444078 0)
(0.196839 0.00426512 0)
(0.196087 0.00410301 0)
(0.19531 0.00395252 0)
(0.194509 0.00381206 0)
(0.193685 0.00368034 0)
(0.192841 0.00355632 0)
(0.191978 0.00343914 0)
(0.191096 0.00332812 0)
(0.190198 0.00322267 0)
(0.189284 0.00312231 0)
(0.188356 0.00302664 0)
(0.187414 0.00293529 0)
(0.186461 0.00284795 0)
(0.185496 0.00276435 0)
(0.184522 0.00268425 0)
(0.183538 0.00260741 0)
(0.182547 0.00253366 0)
(0.181549 0.00246279 0)
(0.180544 0.00239465 0)
(0.179534 0.0023291 0)
(0.17852 0.00226598 0)
(0.177502 0.00220517 0)
(0.176481 0.00214656 0)
(0.175457 0.00209003 0)
(0.174432 0.00203549 0)
(0.173406 0.00198284 0)
(0.17238 0.001932 0)
(0.171354 0.00188288 0)
(0.170328 0.00183541 0)
(0.169304 0.00178951 0)
(0.168281 0.00174512 0)
(0.16726 0.00170217 0)
(0.166242 0.00166061 0)
(0.165226 0.00162038 0)
(0.164214 0.00158142 0)
(0.163205 0.00154369 0)
(0.1622 0.00150713 0)
(0.161199 0.00147171 0)
(0.160202 0.00143737 0)
(0.159211 0.00140408 0)
(0.158223 0.0013718 0)
(0.157241 0.00134049 0)
(0.156264 0.00131011 0)
(0.155293 0.00128064 0)
(0.154327 0.00125203 0)
(0.153367 0.00122427 0)
(0.152412 0.00119731 0)
(0.151463 0.00117114 0)
(0.150521 0.00114572 0)
(0.149584 0.00112104 0)
(0.148654 0.00109706 0)
(0.147729 0.00107376 0)
(0.146811 0.00105113 0)
(0.1459 0.00102914 0)
(0.144994 0.00100778 0)
(0.144095 0.000987016 0)
(0.143203 0.000966844 0)
(0.142316 0.000947243 0)
(0.141436 0.0009282 0)
(0.140563 0.0009097 0)
(0.139695 0.00089173 0)
(0.138834 0.00087428 0)
(0.137979 0.000857339 0)
(0.137131 0.000840899 0)
(0.136288 0.000824953 0)
(0.135451 0.000809497 0)
(0.134621 0.000794529 0)
(0.133796 0.000780053 0)
(0.132977 0.000766078 0)
(0.132164 0.000752627 0)
(0.131355 0.000739747 0)
(0.130553 0.000727533 0)
(0.129755 0.000716196 0)
(0.128961 0.00070624 0)
(0.128171 0.000699009 0)
(0.127384 0.000698554 0)
(0.126615 0.000718037 0)
(0.125674 0.000772662 0)
(0.195993 0.00709243 0)
(0.196731 0.00789523 0)
(0.197589 0.00845426 0)
(0.198468 0.00880279 0)
(0.199321 0.00898241 0)
(0.200126 0.00901793 0)
(0.200865 0.00892866 0)
(0.201517 0.0087369 0)
(0.202068 0.00846702 0)
(0.202512 0.00814271 0)
(0.202849 0.00778557 0)
(0.203082 0.00741435 0)
(0.203219 0.00704431 0)
(0.20327 0.00668684 0)
(0.203246 0.00634955 0)
(0.203157 0.00603673 0)
(0.203014 0.00575001 0)
(0.202824 0.0054891 0)
(0.202594 0.00525243 0)
(0.202329 0.00503778 0)
(0.202033 0.00484259 0)
(0.20171 0.00466438 0)
(0.201361 0.00450079 0)
(0.200987 0.00434979 0)
(0.200591 0.00420959 0)
(0.200173 0.00407873 0)
(0.199733 0.00395599 0)
(0.199272 0.00384036 0)
(0.198792 0.00373102 0)
(0.198292 0.00362729 0)
(0.197772 0.00352861 0)
(0.197235 0.00343452 0)
(0.19668 0.0033446 0)
(0.196107 0.00325853 0)
(0.195518 0.00317598 0)
(0.194913 0.00309672 0)
(0.194293 0.0030205 0)
(0.193658 0.00294712 0)
(0.193008 0.0028764 0)
(0.192346 0.00280817 0)
(0.19167 0.00274228 0)
(0.190982 0.0026786 0)
(0.190282 0.00261701 0)
(0.189571 0.00255738 0)
(0.18885 0.00249963 0)
(0.188118 0.00244366 0)
(0.187377 0.00238937 0)
(0.186627 0.00233671 0)
(0.185869 0.00228558 0)
(0.185103 0.00223592 0)
(0.18433 0.00218768 0)
(0.183549 0.00214079 0)
(0.182763 0.0020952 0)
(0.18197 0.00205086 0)
(0.181172 0.00200772 0)
(0.180369 0.00196574 0)
(0.179562 0.00192487 0)
(0.17875 0.00188508 0)
(0.177935 0.00184633 0)
(0.177116 0.00180858 0)
(0.176294 0.0017718 0)
(0.17547 0.00173596 0)
(0.174643 0.00170103 0)
(0.173815 0.00166698 0)
(0.172985 0.00163379 0)
(0.172153 0.00160142 0)
(0.171321 0.00156986 0)
(0.170487 0.00153908 0)
(0.169654 0.00150906 0)
(0.16882 0.00147978 0)
(0.167986 0.00145121 0)
(0.167152 0.00142334 0)
(0.166319 0.00139615 0)
(0.165487 0.00136962 0)
(0.164655 0.00134374 0)
(0.163825 0.00131849 0)
(0.162995 0.00129385 0)
(0.162167 0.00126982 0)
(0.161341 0.00124638 0)
(0.160517 0.00122351 0)
(0.159694 0.00120121 0)
(0.158873 0.00117946 0)
(0.158055 0.00115826 0)
(0.157238 0.0011376 0)
(0.156424 0.00111747 0)
(0.155612 0.00109787 0)
(0.154802 0.0010788 0)
(0.153995 0.00106025 0)
(0.15319 0.00104223 0)
(0.152388 0.00102474 0)
(0.151589 0.0010078 0)
(0.150791 0.000991444 0)
(0.149997 0.000975728 0)
(0.149204 0.000960763 0)
(0.148414 0.000946787 0)
(0.147625 0.000934344 0)
(0.146839 0.000924782 0)
(0.146056 0.000921662 0)
(0.145292 0.000933675 0)
(0.144378 0.000959895 0)
(0.196454 0.00677373 0)
(0.197086 0.00748732 0)
(0.197831 0.00801128 0)
(0.198614 0.0083561 0)
(0.199392 0.00854901 0)
(0.20014 0.00861085 0)
(0.20084 0.00855874 0)
(0.201475 0.00841175 0)
(0.202034 0.00819084 0)
(0.20251 0.00791679 0)
(0.202902 0.00760874 0)
(0.203212 0.00728351 0)
(0.203446 0.00695504 0)
(0.203612 0.00663404 0)
(0.203718 0.00632802 0)
(0.203773 0.00604158 0)
(0.203785 0.00577694 0)
(0.20376 0.0055345 0)
(0.203705 0.00531343 0)
(0.203624 0.00511213 0)
(0.203521 0.00492864 0)
(0.203398 0.00476089 0)
(0.203256 0.0046069 0)
(0.203097 0.00446484 0)
(0.202922 0.00433312 0)
(0.202731 0.00421038 0)
(0.202524 0.00409546 0)
(0.202302 0.00398739 0)
(0.202065 0.00388538 0)
(0.201812 0.00378876 0)
(0.201545 0.00369697 0)
(0.201263 0.00360953 0)
(0.200966 0.00352603 0)
(0.200654 0.00344613 0)
(0.200328 0.00336954 0)
(0.199988 0.00329597 0)
(0.199633 0.00322521 0)
(0.199264 0.00315703 0)
(0.198882 0.00309127 0)
(0.198486 0.00302774 0)
(0.198077 0.00296631 0)
(0.197655 0.00290684 0)
(0.19722 0.00284921 0)
(0.196772 0.00279332 0)
(0.196312 0.00273905 0)
(0.19584 0.00268632 0)
(0.195356 0.00263506 0)
(0.194861 0.00258518 0)
(0.194355 0.00253661 0)
(0.193838 0.0024893 0)
(0.19331 0.00244319 0)
(0.192772 0.00239822 0)
(0.192225 0.00235435 0)
(0.191667 0.00231153 0)
(0.191101 0.00226972 0)
(0.190525 0.00222888 0)
(0.189941 0.00218898 0)
(0.189348 0.00214998 0)
(0.188748 0.00211185 0)
(0.188139 0.00207456 0)
(0.187523 0.00203809 0)
(0.1869 0.0020024 0)
(0.186271 0.00196749 0)
(0.185634 0.00193332 0)
(0.184992 0.00189987 0)
(0.184343 0.00186712 0)
(0.183689 0.00183506 0)
(0.183029 0.00180366 0)
(0.182365 0.00177292 0)
(0.181695 0.00174281 0)
(0.181021 0.00171332 0)
(0.180342 0.00168444 0)
(0.17966 0.00165615 0)
(0.178973 0.00162844 0)
(0.178283 0.0016013 0)
(0.177589 0.00157473 0)
(0.176892 0.0015487 0)
(0.176193 0.00152321 0)
(0.17549 0.00149826 0)
(0.174785 0.00147382 0)
(0.174077 0.00144991 0)
(0.173368 0.00142651 0)
(0.172656 0.00140362 0)
(0.171942 0.00138124 0)
(0.171227 0.00135936 0)
(0.17051 0.00133798 0)
(0.169791 0.0013171 0)
(0.169072 0.00129673 0)
(0.168351 0.00127689 0)
(0.167629 0.00125757 0)
(0.166906 0.0012388 0)
(0.166181 0.00122063 0)
(0.165456 0.00120311 0)
(0.16473 0.00118637 0)
(0.164003 0.00117065 0)
(0.163276 0.00115649 0)
(0.162548 0.00114504 0)
(0.161822 0.00113889 0)
(0.161115 0.00114207 0)
(0.160275 0.00114159 0)
(0.196863 0.0064932 0)
(0.197412 0.00712687 0)
(0.198062 0.00761207 0)
(0.198758 0.00794656 0)
(0.199462 0.0081463 0)
(0.200148 0.00822751 0)
(0.200797 0.00820482 0)
(0.201396 0.00809438 0)
(0.201932 0.00791409 0)
(0.202401 0.00768206 0)
(0.202798 0.00741526 0)
(0.203128 0.00712882 0)
(0.203393 0.00683547 0)
(0.203601 0.0065453 0)
(0.203758 0.00626561 0)
(0.203872 0.00600123 0)
(0.20395 0.0057548 0)
(0.203998 0.00552731 0)
(0.204022 0.00531854 0)
(0.204026 0.00512748 0)
(0.204013 0.00495268 0)
(0.203985 0.0047925 0)
(0.203944 0.00464527 0)
(0.203893 0.00450943 0)
(0.20383 0.00438356 0)
(0.203757 0.00426643 0)
(0.203674 0.00415696 0)
(0.203581 0.00405424 0)
(0.203479 0.0039575 0)
(0.203367 0.00386609 0)
(0.203244 0.00377945 0)
(0.203112 0.00369712 0)
(0.20297 0.00361868 0)
(0.202818 0.00354378 0)
(0.202655 0.00347211 0)
(0.202483 0.0034034 0)
(0.2023 0.00333742 0)
(0.202106 0.00327395 0)
(0.201902 0.0032128 0)
(0.201688 0.0031538 0)
(0.201463 0.0030968 0)
(0.201228 0.00304165 0)
(0.200982 0.00298823 0)
(0.200725 0.00293644 0)
(0.200459 0.00288616 0)
(0.200181 0.0028373 0)
(0.199894 0.00278978 0)
(0.199595 0.00274352 0)
(0.199287 0.00269846 0)
(0.198968 0.00265452 0)
(0.19864 0.00261164 0)
(0.198301 0.00256978 0)
(0.197952 0.00252889 0)
(0.197594 0.00248891 0)
(0.197226 0.00244981 0)
(0.196848 0.00241155 0)
(0.196461 0.0023741 0)
(0.196064 0.00233741 0)
(0.195659 0.00230147 0)
(0.195244 0.00226624 0)
(0.19482 0.0022317 0)
(0.194388 0.00219782 0)
(0.193948 0.00216459 0)
(0.193499 0.00213198 0)
(0.193041 0.00209997 0)
(0.192576 0.00206855 0)
(0.192103 0.00203769 0)
(0.191622 0.00200739 0)
(0.191134 0.00197763 0)
(0.190639 0.0019484 0)
(0.190136 0.00191969 0)
(0.189627 0.00189148 0)
(0.189111 0.00186377 0)
(0.188588 0.00183654 0)
(0.188059 0.00180979 0)
(0.187523 0.00178351 0)
(0.186982 0.0017577 0)
(0.186434 0.00173234 0)
(0.185881 0.00170744 0)
(0.185323 0.00168299 0)
(0.184759 0.00165898 0)
(0.18419 0.00163542 0)
(0.183616 0.0016123 0)
(0.183037 0.00158962 0)
(0.182454 0.00156739 0)
(0.181865 0.00154561 0)
(0.181273 0.00152428 0)
(0.180676 0.00150341 0)
(0.180074 0.00148303 0)
(0.179469 0.00146313 0)
(0.17886 0.00144376 0)
(0.178246 0.00142495 0)
(0.177629 0.00140678 0)
(0.177009 0.00138937 0)
(0.176384 0.00137295 0)
(0.175756 0.00135797 0)
(0.175126 0.00134528 0)
(0.174497 0.00133628 0)
(0.173884 0.001331 0)
(0.173152 0.00130895 0)
(0.197226 0.00624202 0)
(0.197709 0.00680556 0)
(0.19828 0.00725168 0)
(0.1989 0.00757183 0)
(0.199536 0.00777378 0)
(0.200163 0.00786924 0)
(0.200762 0.00787029 0)
(0.201321 0.00779046 0)
(0.201828 0.00764493 0)
(0.202276 0.00744935 0)
(0.202665 0.00721871 0)
(0.202994 0.00696654 0)
(0.203267 0.00670445 0)
(0.203489 0.00644185 0)
(0.203666 0.0061858 0)
(0.203805 0.00594119 0)
(0.203911 0.00571102 0)
(0.203991 0.00549672 0)
(0.20405 0.00529859 0)
(0.20409 0.00511613 0)
(0.204117 0.00494836 0)
(0.204132 0.00479402 0)
(0.204137 0.00465178 0)
(0.204134 0.00452033 0)
(0.204123 0.00439844 0)
(0.204106 0.00428501 0)
(0.204082 0.00417906 0)
(0.204052 0.00407976 0)
(0.204016 0.00398638 0)
(0.203974 0.0038983 0)
(0.203926 0.00381498 0)
(0.203872 0.00373597 0)
(0.203812 0.00366085 0)
(0.203746 0.00358929 0)
(0.203674 0.00352097 0)
(0.203595 0.00345563 0)
(0.20351 0.00339302 0)
(0.203418 0.00333293 0)
(0.203319 0.00327516 0)
(0.203213 0.00321954 0)
(0.2031 0.00316591 0)
(0.202981 0.00311413 0)
(0.202854 0.00306407 0)
(0.202719 0.00301562 0)
(0.202577 0.00296866 0)
(0.202428 0.00292309 0)
(0.202271 0.00287884 0)
(0.202106 0.00283581 0)
(0.201933 0.00279394 0)
(0.201753 0.00275315 0)
(0.201564 0.00271338 0)
(0.201368 0.00267457 0)
(0.201164 0.00263668 0)
(0.200951 0.00259965 0)
(0.200731 0.00256344 0)
(0.200502 0.002528 0)
(0.200265 0.00249331 0)
(0.200021 0.00245932 0)
(0.199768 0.002426 0)
(0.199507 0.00239333 0)
(0.199238 0.00236127 0)
(0.19896 0.0023298 0)
(0.198675 0.0022989 0)
(0.198382 0.00226855 0)
(0.198081 0.00223872 0)
(0.197772 0.00220941 0)
(0.197455 0.00218058 0)
(0.19713 0.00215223 0)
(0.196798 0.00212435 0)
(0.196458 0.00209691 0)
(0.19611 0.00206991 0)
(0.195755 0.00204334 0)
(0.195393 0.00201719 0)
(0.195023 0.00199145 0)
(0.194646 0.00196611 0)
(0.194261 0.00194116 0)
(0.19387 0.00191661 0)
(0.193471 0.00189244 0)
(0.193066 0.00186865 0)
(0.192654 0.00184525 0)
(0.192235 0.00182222 0)
(0.19181 0.00179957 0)
(0.191378 0.0017773 0)
(0.19094 0.00175541 0)
(0.190495 0.00173391 0)
(0.190044 0.0017128 0)
(0.189587 0.00169208 0)
(0.189124 0.00167178 0)
(0.188655 0.00165191 0)
(0.188181 0.00163248 0)
(0.1877 0.00161353 0)
(0.187213 0.00159511 0)
(0.186721 0.00157728 0)
(0.186223 0.00156016 0)
(0.18572 0.00154395 0)
(0.185212 0.00152898 0)
(0.1847 0.00151573 0)
(0.184188 0.00150447 0)
(0.183687 0.00149231 0)
(0.183081 0.00145563 0)
(0.197551 0.00601416 0)
(0.19798 0.00651674 0)
(0.198486 0.00692532 0)
(0.19904 0.00722875 0)
(0.199614 0.00742934 0)
(0.200186 0.0075349 0)
(0.200738 0.00755504 0)
(0.201258 0.00750097 0)
(0.201734 0.00738545 0)
(0.202161 0.00722193 0)
(0.202536 0.00702352 0)
(0.202858 0.00680228 0)
(0.203131 0.00656871 0)
(0.203357 0.00633153 0)
(0.203543 0.00609749 0)
(0.203693 0.00587146 0)
(0.203813 0.00565664 0)
(0.203908 0.00545483 0)
(0.203983 0.00526675 0)
(0.204042 0.00509233 0)
(0.204087 0.00493099 0)
(0.204121 0.00478185 0)
(0.204147 0.00464387 0)
(0.204166 0.00451598 0)
(0.204178 0.00439715 0)
(0.204185 0.00428642 0)
(0.204188 0.00418293 0)
(0.204186 0.00408591 0)
(0.20418 0.0039947 0)
(0.204171 0.00390872 0)
(0.204158 0.00382747 0)
(0.204141 0.00375049 0)
(0.20412 0.00367741 0)
(0.204096 0.00360789 0)
(0.204068 0.00354162 0)
(0.204036 0.00347835 0)
(0.204001 0.00341784 0)
(0.203961 0.00335987 0)
(0.203918 0.00330425 0)
(0.203871 0.00325081 0)
(0.203819 0.00319938 0)
(0.203763 0.00314984 0)
(0.203702 0.00310204 0)
(0.203637 0.00305586 0)
(0.203568 0.00301121 0)
(0.203493 0.00296797 0)
(0.203414 0.00292606 0)
(0.203329 0.00288539 0)
(0.20324 0.00284589 0)
(0.203145 0.00280748 0)
(0.203045 0.0027701 0)
(0.202939 0.00273369 0)
(0.202828 0.00269819 0)
(0.202711 0.00266355 0)
(0.202588 0.00262973 0)
(0.202459 0.00259667 0)
(0.202325 0.00256435 0)
(0.202184 0.00253271 0)
(0.202037 0.00250173 0)
(0.201884 0.00247138 0)
(0.201725 0.00244163 0)
(0.20156 0.00241243 0)
(0.201388 0.00238379 0)
(0.201209 0.00235566 0)
(0.201025 0.00232802 0)
(0.200833 0.00230086 0)
(0.200635 0.00227416 0)
(0.200431 0.0022479 0)
(0.20022 0.00222207 0)
(0.200002 0.00219665 0)
(0.199777 0.00217162 0)
(0.199546 0.00214698 0)
(0.199308 0.00212272 0)
(0.199064 0.00209882 0)
(0.198812 0.00207529 0)
(0.198554 0.0020521 0)
(0.19829 0.00202926 0)
(0.198018 0.00200675 0)
(0.19774 0.00198459 0)
(0.197456 0.00196276 0)
(0.197164 0.00194126 0)
(0.196866 0.00192009 0)
(0.196562 0.00189926 0)
(0.19625 0.00187876 0)
(0.195933 0.0018586 0)
(0.195608 0.00183879 0)
(0.195277 0.00181934 0)
(0.19494 0.00180026 0)
(0.194596 0.00178157 0)
(0.194246 0.00176328 0)
(0.193889 0.00174544 0)
(0.193526 0.00172808 0)
(0.193157 0.00171127 0)
(0.192781 0.00169511 0)
(0.192399 0.00167975 0)
(0.192011 0.00166539 0)
(0.191619 0.00165216 0)
(0.191226 0.00163938 0)
(0.190839 0.00162251 0)
(0.190361 0.00157836 0)
(0.197842 0.00580529 0)
(0.198227 0.00625506 0)
(0.198678 0.00662854 0)
(0.199175 0.00691414 0)
(0.199694 0.00711072 0)
(0.200216 0.007223 0)
(0.200724 0.00725832 0)
(0.201207 0.00722585 0)
(0.201653 0.00713624 0)
(0.202058 0.00700094 0)
(0.202417 0.00683136 0)
(0.202731 0.00663814 0)
(0.203 0.00643078 0)
(0.203227 0.00621727 0)
(0.203416 0.00600399 0)
(0.203573 0.00579572 0)
(0.203701 0.00559577 0)
(0.203806 0.0054062 0)
(0.20389 0.00522805 0)
(0.203959 0.00506162 0)
(0.204014 0.00490669 0)
(0.204059 0.00476269 0)
(0.204096 0.00462885 0)
(0.204125 0.00450434 0)
(0.204149 0.00438831 0)
(0.204167 0.00427995 0)
(0.204182 0.00417851 0)
(0.204193 0.00408331 0)
(0.2042 0.00399373 0)
(0.204205 0.00390926 0)
(0.204207 0.00382942 0)
(0.204207 0.0037538 0)
(0.204204 0.00368203 0)
(0.204199 0.00361379 0)
(0.204191 0.00354879 0)
(0.204181 0.00348678 0)
(0.204169 0.00342753 0)
(0.204155 0.00337083 0)
(0.204138 0.00331649 0)
(0.204119 0.00326435 0)
(0.204097 0.00321425 0)
(0.204073 0.00316605 0)
(0.204047 0.00311963 0)
(0.204017 0.00307485 0)
(0.203985 0.00303162 0)
(0.203951 0.00298984 0)
(0.203913 0.00294941 0)
(0.203872 0.00291026 0)
(0.203828 0.00287229 0)
(0.203781 0.00283545 0)
(0.203731 0.00279966 0)
(0.203677 0.00276487 0)
(0.20362 0.00273101 0)
(0.20356 0.00269804 0)
(0.203495 0.0026659 0)
(0.203427 0.00263454 0)
(0.203355 0.00260394 0)
(0.203279 0.00257404 0)
(0.203198 0.00254482 0)
(0.203114 0.00251623 0)
(0.203025 0.00248824 0)
(0.202932 0.00246083 0)
(0.202835 0.00243397 0)
(0.202732 0.00240764 0)
(0.202626 0.0023818 0)
(0.202514 0.00235643 0)
(0.202398 0.00233153 0)
(0.202276 0.00230706 0)
(0.20215 0.00228302 0)
(0.202019 0.00225937 0)
(0.201882 0.00223612 0)
(0.20174 0.00221325 0)
(0.201593 0.00219074 0)
(0.201441 0.00216859 0)
(0.201284 0.00214678 0)
(0.20112 0.0021253 0)
(0.200952 0.00210416 0)
(0.200778 0.00208334 0)
(0.200598 0.00206283 0)
(0.200412 0.00204265 0)
(0.200221 0.00202277 0)
(0.200024 0.00200321 0)
(0.199822 0.00198395 0)
(0.199613 0.00196502 0)
(0.199399 0.0019464 0)
(0.199179 0.00192811 0)
(0.198953 0.00191015 0)
(0.198721 0.00189255 0)
(0.198482 0.0018753 0)
(0.198238 0.00185845 0)
(0.197988 0.00184201 0)
(0.197732 0.00182603 0)
(0.197469 0.00181056 0)
(0.197201 0.00179569 0)
(0.196927 0.0017815 0)
(0.196647 0.00176808 0)
(0.196363 0.00175524 0)
(0.196076 0.00174172 0)
(0.195793 0.00172234 0)