/*--------------------------------*- C++ -*----------------------------------*\
| =========                 |                                                 |
| \\      /  F ield         | OpenFOAM: The Open Source CFD Toolbox           |
|  \\    /   O peration     | Version:  2.3.0                                 |
|   \\  /    A nd           | Web:      www.OpenFOAM.org                      |
|    \\/     M anipulation  |                                                 |
\*---------------------------------------------------------------------------*/
FoamFile
{
    version     2.0;
    format      ascii;
    class       volVectorField;
    location    "0.85";
    object      U_0;
}
// * * * * * * * * * * * * * * * * * * * * * * * * * * * * * * * * * * * * * //

dimensions      [0 1 -1 0 0 0 0];

internalField   nonuniform List<vector> 
2945
(
(0.149683 0.00850374 0)
(0.10556 0.00731871 0)
(0.0743187 0.00404704 0)
(0.055607 0.00135746 0)
(0.0453069 0.000142692 0)
(0.0397872 -0.000131169 0)
(0.036594 -7.41111e-05 0)
(0.034335 2.12128e-05 0)
(0.0324269 7.26629e-05 0)
(0.0307193 8.52535e-05 0)
(0.0291977 8.04908e-05 0)
(0.0278526 7.18347e-05 0)
(0.0266611 6.39712e-05 0)
(0.0255971 5.75543e-05 0)
(0.0246387 5.22518e-05 0)
(0.0237684 4.77315e-05 0)
(0.022973 4.37887e-05 0)
(0.0222422 4.0303e-05 0)
(0.0215677 3.7199e-05 0)
(0.0209427 3.44228e-05 0)
(0.0203617 3.19313e-05 0)
(0.0198197 2.96876e-05 0)
(0.0193127 2.76606e-05 0)
(0.0188373 2.58238e-05 0)
(0.0183903 2.41544e-05 0)
(0.0179692 2.2633e-05 0)
(0.0175717 2.1243e-05 0)
(0.0171957 1.99699e-05 0)
(0.0168395 1.88012e-05 0)
(0.0165014 1.77263e-05 0)
(0.01618 1.67356e-05 0)
(0.0158741 1.58209e-05 0)
(0.0155824 1.49749e-05 0)
(0.0153041 1.41913e-05 0)
(0.015038 1.34642e-05 0)
(0.0147835 1.27886e-05 0)
(0.0145397 1.216e-05 0)
(0.0143058 1.15744e-05 0)
(0.0140813 1.10282e-05 0)
(0.0138656 1.0518e-05 0)
(0.0136581 1.00409e-05 0)
(0.0134583 9.59421e-06 0)
(0.0132658 9.17561e-06 0)
(0.0130801 8.78289e-06 0)
(0.0129008 8.41401e-06 0)
(0.0127276 8.06729e-06 0)
(0.0125601 7.74101e-06 0)
(0.0123981 7.43372e-06 0)
(0.0122412 7.14408e-06 0)
(0.0120891 6.87086e-06 0)
(0.0119417 6.61297e-06 0)
(0.0117986 6.3694e-06 0)
(0.0116597 6.13923e-06 0)
(0.0115247 5.92168e-06 0)
(0.0113934 5.71601e-06 0)
(0.0112657 5.52157e-06 0)
(0.0111414 5.33778e-06 0)
(0.0110203 5.16418e-06 0)
(0.0109022 5.00035e-06 0)
(0.010787 4.84592e-06 0)
(0.0106745 4.70065e-06 0)
(0.0105646 4.56435e-06 0)
(0.0104571 4.43696e-06 0)
(0.0103519 4.31834e-06 0)
(0.0102489 4.20901e-06 0)
(0.0101478 4.10775e-06 0)
(0.0100484 4.0199e-06 0)
(0.00995086 3.92889e-06 0)
(0.00985406 3.89207e-06 0)
(0.00976061 3.72069e-06 0)
(0.00966173 4.01639e-06 0)
(0.00958237 2.86011e-06 0)
(0.00945548 5.73344e-06 0)
(0.00944975 -4.16546e-06 0)
(0.00929294 1.20192e-05 0)
(0.19529 0.0141377 0)
(0.188841 0.015065 0)
(0.173393 0.0120875 0)
(0.155305 0.00804469 0)
(0.138618 0.00479627 0)
(0.124917 0.00279115 0)
(0.114237 0.00175925 0)
(0.105924 0.00128136 0)
(0.0992612 0.00104619 0)
(0.0937258 0.000897756 0)
(0.0889951 0.000781476 0)
(0.0848728 0.000684398 0)
(0.0812309 0.000603643 0)
(0.077979 0.000536822 0)
(0.0750499 0.000481197 0)
(0.0723921 0.000434316 0)
(0.0699652 0.000394274 0)
(0.0677368 0.000359673 0)
(0.0656812 0.000329489 0)
(0.063777 0.000302959 0)
(0.0620065 0.000279493 0)
(0.060355 0.000258623 0)
(0.05881 0.00023997 0)
(0.0573606 0.000223221 0)
(0.0559976 0.000208122 0)
(0.0547131 0.000194457 0)
(0.0534999 0.000182048 0)
(0.052352 0.000170743 0)
(0.0512639 0.000160414 0)
(0.0502308 0.000150952 0)
(0.0492484 0.000142262 0)
(0.0483128 0.000134264 0)
(0.0474207 0.000126887 0)
(0.0465688 0.000120069 0)
(0.0457545 0.000113756 0)
(0.044975 0.000107901 0)
(0.0442282 0.000102461 0)
(0.0435118 9.73997e-05 0)
(0.0428239 9.26834e-05 0)
(0.0421628 8.82826e-05 0)
(0.0415268 8.41705e-05 0)
(0.0409144 8.03234e-05 0)
(0.0403242 7.67196e-05 0)
(0.0397549 7.33399e-05 0)
(0.0392055 7.01666e-05 0)
(0.0386746 6.71839e-05 0)
(0.0381614 6.43774e-05 0)
(0.0376649 6.1734e-05 0)
(0.0371843 5.92418e-05 0)
(0.0367186 5.68901e-05 0)
(0.0362672 5.4669e-05 0)
(0.0358293 5.25697e-05 0)
(0.0354042 5.05842e-05 0)
(0.0349914 4.8705e-05 0)
(0.0345903 4.69257e-05 0)
(0.0342002 4.52403e-05 0)
(0.0338207 4.36435e-05 0)
(0.0334512 4.21307e-05 0)
(0.0330913 4.06978e-05 0)
(0.0327405 3.93413e-05 0)
(0.0323984 3.80582e-05 0)
(0.0320646 3.68463e-05 0)
(0.0317386 3.57039e-05 0)
(0.0314199 3.46298e-05 0)
(0.0311082 3.36242e-05 0)
(0.030803 3.26857e-05 0)
(0.0305038 3.1823e-05 0)
(0.0302106 3.10116e-05 0)
(0.0299211 3.03484e-05 0)
(0.0296402 2.94926e-05 0)
(0.0293511 2.9608e-05 0)
(0.0291007 2.65061e-05 0)
(0.028762 3.29793e-05 0)
(0.0286563 3.23823e-06 0)
(0.0282225 5.06831e-05 0)
(0.193839 0.0123082 0)
(0.199692 0.0146053 0)
(0.20171 0.0138527 0)
(0.198165 0.0114196 0)
(0.190805 0.00879983 0)
(0.181924 0.00669948 0)
(0.172988 0.00520953 0)
(0.16461 0.00418272 0)
(0.156951 0.00345437 0)
(0.149997 0.00291298 0)
(0.143692 0.0024956 0)
(0.137966 0.00216659 0)
(0.132752 0.00190299 0)
(0.127989 0.00168841 0)
(0.123621 0.00151088 0)
(0.1196 0.00136181 0)
(0.115884 0.00123497 0)
(0.112439 0.00112581 0)
(0.109234 0.00103094 0)
(0.106243 0.000947801 0)
(0.103444 0.000874428 0)
(0.100818 0.000809268 0)
(0.0983486 0.000751083 0)
(0.0960214 0.000698869 0)
(0.0938237 0.000651808 0)
(0.0917446 0.000609221 0)
(0.0897742 0.000570545 0)
(0.0879038 0.000535303 0)
(0.0861257 0.000503096 0)
(0.0844329 0.00047358 0)
(0.0828192 0.000446463 0)
(0.081279 0.000421491 0)
(0.0798071 0.000398445 0)
(0.0783989 0.000377133 0)
(0.0770502 0.000357389 0)
(0.0757572 0.000339065 0)
(0.0745163 0.00032203 0)
(0.0733244 0.00030617 0)
(0.0721783 0.000291381 0)
(0.0710755 0.000277573 0)
(0.0700133 0.000264661 0)
(0.0689895 0.000252573 0)
(0.0680019 0.000241243 0)
(0.0670485 0.000230609 0)
(0.0661275 0.000220619 0)
(0.065237 0.000211222 0)
(0.0643756 0.000202374 0)
(0.0635418 0.000194035 0)
(0.0627341 0.000186167 0)
(0.0619512 0.000178737 0)
(0.0611919 0.000171715 0)
(0.0604552 0.000165073 0)
(0.0597399 0.000158784 0)
(0.059045 0.000152827 0)
(0.0583696 0.000147181 0)
(0.0577128 0.000141827 0)
(0.0570738 0.000136747 0)
(0.0564517 0.000131927 0)
(0.0558458 0.000127354 0)
(0.0552554 0.000123016 0)
(0.0546798 0.000118903 0)
(0.0541183 0.000115007 0)
(0.0535702 0.000111322 0)
(0.0530349 0.000107842 0)
(0.0525116 0.000104567 0)
(0.0519998 0.000101496 0)
(0.0514986 9.86315e-05 0)
(0.0510078 9.59734e-05 0)
(0.050525 9.35609e-05 0)
(0.0500548 9.11989e-05 0)
(0.0495793 8.97569e-05 0)
(0.0491485 8.49627e-05 0)
(0.0486236 9.15628e-05 0)
(0.0483664 4.45768e-05 0)
(0.0476683 0.000116369 0)
(0.192811 0.0105163 0)
(0.197029 0.0125731 0)
(0.201848 0.012593 0)
(0.204622 0.0113006 0)
(0.20466 0.00966989 0)
(0.202601 0.0082185 0)
(0.19926 0.0070626 0)
(0.19519 0.00615449 0)
(0.190714 0.0054207 0)
(0.186036 0.00480784 0)
(0.181295 0.00428576 0)
(0.176588 0.00383785 0)
(0.171978 0.0034527 0)
(0.167507 0.00312069 0)
(0.163198 0.00283332 0)
(0.159065 0.00258336 0)
(0.155112 0.00236476 0)
(0.151336 0.00217253 0)
(0.147735 0.00200259 0)
(0.144301 0.00185157 0)
(0.141027 0.00171673 0)
(0.137904 0.00159579 0)
(0.134926 0.00148687 0)
(0.132083 0.00138839 0)
(0.129367 0.00129904 0)
(0.126772 0.0012177 0)
(0.124289 0.00114342 0)
(0.121913 0.00107541 0)
(0.119637 0.00101298 0)
(0.117456 0.000955521 0)
(0.115363 0.000902529 0)
(0.113353 0.000853555 0)
(0.111423 0.000808207 0)
(0.109567 0.00076614 0)
(0.107781 0.000727052 0)
(0.106062 0.000690674 0)
(0.104406 0.000656768 0)
(0.102809 0.000625121 0)
(0.101269 0.000595544 0)
(0.0997817 0.000567864 0)
(0.0983454 0.000541929 0)
(0.0969572 0.0005176 0)
(0.0956147 0.000494752 0)
(0.0943156 0.000473271 0)
(0.0930578 0.000453053 0)
(0.0918393 0.000434006 0)
(0.0906583 0.000416043 0)
(0.089513 0.000399086 0)
(0.0884017 0.000383065 0)
(0.087323 0.000367914 0)
(0.0862753 0.000353574 0)
(0.0852573 0.000339991 0)
(0.0842677 0.000327115 0)
(0.0833052 0.0003149 0)
(0.0823687 0.000303307 0)
(0.0814572 0.000292296 0)
(0.0805695 0.000281836 0)
(0.0797047 0.000271895 0)
(0.0788619 0.000262446 0)
(0.0780401 0.000253466 0)
(0.0772384 0.000244935 0)
(0.0764561 0.000236835 0)
(0.0756922 0.000229152 0)
(0.0749461 0.000221877 0)
(0.0742167 0.000215002 0)
(0.0735034 0.000208528 0)
(0.0728052 0.000202451 0)
(0.0721216 0.000196796 0)
(0.0714503 0.000191532 0)
(0.0707949 0.000186669 0)
(0.0701396 0.000182561 0)
(0.0695289 0.000175706 0)
(0.0688325 0.000179832 0)
(0.0684092 0.000122879 0)
(0.0674532 0.000204516 0)
(0.193537 0.00975748 0)
(0.196192 0.0114819 0)
(0.199564 0.0115216 0)
(0.202346 0.0105178 0)
(0.203993 0.00928621 0)
(0.204623 0.0082264 0)
(0.204495 0.00740019 0)
(0.203769 0.00675021 0)
(0.202529 0.00621095 0)
(0.200846 0.00573865 0)
(0.198791 0.00531149 0)
(0.196438 0.0049209 0)
(0.193854 0.0045634 0)
(0.1911 0.00423656 0)
(0.188227 0.00393794 0)
(0.185279 0.00366514 0)
(0.18229 0.00341586 0)
(0.179289 0.00318795 0)
(0.176297 0.00297939 0)
(0.173332 0.00278836 0)
(0.170408 0.00261318 0)
(0.167534 0.00245232 0)
(0.164718 0.00230442 0)
(0.161965 0.00216822 0)
(0.159279 0.00204261 0)
(0.156661 0.00192659 0)
(0.154114 0.00181926 0)
(0.151636 0.00171983 0)
(0.149229 0.00162757 0)
(0.146891 0.00154185 0)
(0.144621 0.0014621 0)
(0.142417 0.00138779 0)
(0.140279 0.00131847 0)
(0.138204 0.00125374 0)
(0.13619 0.0011932 0)
(0.134235 0.00113653 0)
(0.132338 0.00108343 0)
(0.130497 0.00103361 0)
(0.128709 0.00098682 0)
(0.126973 0.000942843 0)
(0.125286 0.000901466 0)
(0.123648 0.000862498 0)
(0.122056 0.000825766 0)
(0.120508 0.000791112 0)
(0.119003 0.00075839 0)
(0.117539 0.000727465 0)
(0.116115 0.000698215 0)
(0.114729 0.000670526 0)
(0.113379 0.000644295 0)
(0.112065 0.000619427 0)
(0.110786 0.000595831 0)
(0.109538 0.000573429 0)
(0.108323 0.000552145 0)
(0.107138 0.00053191 0)
(0.105982 0.000512663 0)
(0.104855 0.000494346 0)
(0.103755 0.000476906 0)
(0.102681 0.000460298 0)
(0.101632 0.000444479 0)
(0.100608 0.000429411 0)
(0.0996077 0.000415063 0)
(0.09863 0.000401406 0)
(0.0976742 0.000388418 0)
(0.0967394 0.000376083 0)
(0.0958247 0.000364387 0)
(0.0949294 0.000353331 0)
(0.0940525 0.000342904 0)
(0.0931933 0.00033315 0)
(0.0923498 0.000323994 0)
(0.0915247 0.000315591 0)
(0.0907045 0.00030788 0)
(0.0899274 0.00029826 0)
(0.0890744 0.000298066 0)
(0.0884934 0.000238182 0)
(0.0872965 0.000316853 0)
(0.194322 0.00916114 0)
(0.196442 0.0106798 0)
(0.198953 0.0107833 0)
(0.200972 0.00995563 0)
(0.202252 0.00889635 0)
(0.203006 0.00797733 0)
(0.203472 0.00726986 0)
(0.203746 0.00672994 0)
(0.203826 0.00629988 0)
(0.203688 0.00593644 0)
(0.203319 0.00561364 0)
(0.202714 0.00531817 0)
(0.20188 0.00504343 0)
(0.200831 0.00478571 0)
(0.199586 0.00454266 0)
(0.198165 0.00431272 0)
(0.196593 0.0040949 0)
(0.19489 0.00388851 0)
(0.193079 0.00369301 0)
(0.191177 0.00350794 0)
(0.189204 0.00333287 0)
(0.187175 0.0031674 0)
(0.185105 0.0030111 0)
(0.183006 0.00286354 0)
(0.18089 0.00272428 0)
(0.178766 0.00259291 0)
(0.176641 0.00246898 0)
(0.174524 0.00235208 0)
(0.172419 0.00224181 0)
(0.170333 0.00213779 0)
(0.168268 0.00203963 0)
(0.166228 0.00194698 0)
(0.164216 0.00185952 0)
(0.162234 0.00177691 0)
(0.160284 0.00169887 0)
(0.158367 0.00162511 0)
(0.156484 0.00155536 0)
(0.154636 0.00148939 0)
(0.152823 0.00142695 0)
(0.151045 0.00136782 0)
(0.149302 0.00131181 0)
(0.147594 0.00125873 0)
(0.145921 0.00120838 0)
(0.144283 0.00116062 0)
(0.142678 0.00111527 0)
(0.141108 0.0010722 0)
(0.13957 0.00103127 0)
(0.138064 0.000992344 0)
(0.13659 0.000955311 0)
(0.135148 0.000920058 0)
(0.133736 0.00088648 0)
(0.132353 0.000854483 0)
(0.130999 0.000823974 0)
(0.129674 0.000794873 0)
(0.128377 0.000767101 0)
(0.127106 0.000740587 0)
(0.125862 0.000715267 0)
(0.124643 0.000691082 0)
(0.12345 0.000667978 0)
(0.122281 0.000645907 0)
(0.121135 0.000624827 0)
(0.120012 0.000604704 0)
(0.118912 0.000585507 0)
(0.117833 0.000567216 0)
(0.116775 0.000549813 0)
(0.115737 0.000533299 0)
(0.114719 0.000517661 0)
(0.11372 0.000502955 0)
(0.112738 0.000489085 0)
(0.111774 0.000476301 0)
(0.110819 0.000464236 0)
(0.109904 0.000451265 0)
(0.108921 0.000445414 0)
(0.108206 0.000388539 0)
(0.106805 0.000453837 0)
(0.194959 0.00858974 0)
(0.196753 0.00992359 0)
(0.198879 0.0101236 0)
(0.200574 0.00950337 0)
(0.201601 0.0086171 0)
(0.202153 0.00780065 0)
(0.202487 0.00714447 0)
(0.202742 0.00663184 0)
(0.202954 0.0062254 0)
(0.203121 0.00589227 0)
(0.203227 0.00560872 0)
(0.203256 0.00535955 0)
(0.203191 0.00513526 0)
(0.203019 0.00492947 0)
(0.202732 0.00473765 0)
(0.202324 0.00455659 0)
(0.201795 0.00438412 0)
(0.201147 0.00421878 0)
(0.200383 0.00405962 0)
(0.199509 0.00390605 0)
(0.198533 0.0037577 0)
(0.197461 0.00361433 0)
(0.196304 0.00347583 0)
(0.195068 0.0033421 0)
(0.193764 0.00321308 0)
(0.192399 0.00308873 0)
(0.190981 0.00296898 0)
(0.189518 0.00285377 0)
(0.188017 0.00274303 0)
(0.186485 0.00263667 0)
(0.184927 0.00253461 0)
(0.18335 0.00243672 0)
(0.181758 0.00234289 0)
(0.180156 0.00225301 0)
(0.178548 0.00216695 0)
(0.176938 0.00208457 0)
(0.175329 0.00200574 0)
(0.173724 0.00193033 0)
(0.172125 0.0018582 0)
(0.170535 0.00178921 0)
(0.168956 0.00172324 0)
(0.167389 0.00166015 0)
(0.165836 0.00159981 0)
(0.164299 0.0015421 0)
(0.162777 0.0014869 0)
(0.161273 0.0014341 0)
(0.159786 0.00138357 0)
(0.158318 0.00133521 0)
(0.156869 0.00128892 0)
(0.15544 0.0012446 0)
(0.15403 0.00120215 0)
(0.15264 0.00116148 0)
(0.15127 0.00112251 0)
(0.14992 0.00108515 0)
(0.148591 0.00104934 0)
(0.147281 0.001015 0)
(0.145992 0.000982065 0)
(0.144722 0.000950474 0)
(0.143472 0.000920175 0)
(0.142242 0.000891118 0)
(0.141032 0.00086326 0)
(0.139841 0.000836565 0)
(0.138668 0.000811003 0)
(0.137514 0.000786554 0)
(0.136378 0.000763203 0)
(0.135261 0.000740952 0)
(0.13416 0.000719795 0)
(0.133077 0.000699798 0)
(0.132009 0.000680863 0)
(0.130958 0.000663308 0)
(0.129915 0.000646521 0)
(0.128909 0.000630006 0)
(0.127839 0.000617738 0)
(0.127029 0.000568759 0)
(0.125485 0.00061278 0)
(0.195507 0.0080916 0)
(0.197021 0.00925988 0)
(0.198848 0.00952721 0)
(0.200371 0.00908524 0)
(0.201336 0.00836394 0)
(0.201854 0.00765609 0)
(0.202135 0.00705833 0)
(0.202313 0.00657165 0)
(0.202447 0.00617478 0)
(0.202558 0.0058461 0)
(0.202656 0.00556785 0)
(0.202741 0.00532724 0)
(0.20281 0.00511558 0)
(0.202854 0.00492653 0)
(0.202865 0.00475517 0)
(0.202834 0.00459758 0)
(0.202755 0.00445078 0)
(0.202619 0.00431246 0)
(0.202421 0.00418088 0)
(0.202158 0.00405474 0)
(0.201826 0.0039331 0)
(0.201424 0.00381526 0)
(0.200951 0.00370073 0)
(0.200408 0.00358919 0)
(0.199796 0.00348042 0)
(0.199118 0.00337426 0)
(0.198377 0.00327065 0)
(0.197576 0.00316955 0)
(0.196719 0.00307092 0)
(0.195809 0.00297479 0)
(0.19485 0.00288115 0)
(0.193846 0.00279002 0)
(0.192802 0.0027014 0)
(0.191721 0.00261531 0)
(0.190606 0.00253173 0)
(0.189462 0.00245067 0)
(0.188293 0.00237209 0)
(0.1871 0.00229599 0)
(0.185888 0.00222233 0)
(0.18466 0.00215108 0)
(0.183418 0.00208219 0)
(0.182165 0.00201562 0)
(0.180902 0.00195131 0)
(0.179634 0.00188921 0)
(0.178361 0.00182926 0)
(0.177085 0.0017714 0)
(0.175808 0.00171558 0)
(0.174532 0.00166172 0)
(0.173258 0.00160976 0)
(0.171987 0.00155964 0)
(0.17072 0.0015113 0)
(0.16946 0.00146467 0)
(0.168206 0.0014197 0)
(0.166959 0.00137632 0)
(0.165721 0.00133449 0)
(0.164491 0.00129414 0)
(0.163271 0.00125523 0)
(0.162061 0.00121771 0)
(0.160861 0.00118154 0)
(0.159673 0.00114668 0)
(0.158495 0.0011131 0)
(0.157329 0.00108076 0)
(0.156175 0.00104966 0)
(0.155033 0.00101977 0)
(0.153903 0.000991103 0)
(0.152785 0.00096366 0)
(0.151678 0.000937449 0)
(0.150584 0.000912551 0)
(0.149501 0.000888878 0)
(0.148431 0.000866816 0)
(0.147365 0.000845531 0)
(0.14633 0.000825822 0)
(0.145232 0.000807142 0)
(0.144381 0.000769724 0)
(0.142778 0.000787737 0)
(0.195989 0.0076624 0)
(0.197271 0.00868336 0)
(0.198833 0.00898754 0)
(0.200193 0.00868512 0)
(0.201116 0.00810665 0)
(0.201654 0.00750306 0)
(0.201961 0.00697041 0)
(0.202147 0.00652029 0)
(0.202268 0.00614192 0)
(0.202348 0.00582184 0)
(0.202405 0.00554741 0)
(0.20245 0.00530858 0)
(0.202488 0.00509819 0)
(0.202522 0.00491101 0)
(0.20255 0.00474283 0)
(0.202572 0.00459019 0)
(0.202584 0.00445029 0)
(0.202582 0.00432083 0)
(0.202563 0.00419996 0)
(0.202521 0.00408616 0)
(0.202453 0.00397821 0)
(0.202354 0.0038751 0)
(0.202222 0.00377603 0)
(0.202052 0.00368037 0)
(0.201842 0.00358761 0)
(0.20159 0.00349736 0)
(0.201295 0.00340932 0)
(0.200956 0.00332326 0)
(0.200572 0.00323902 0)
(0.200143 0.00315648 0)
(0.19967 0.00307556 0)
(0.199154 0.00299621 0)
(0.198595 0.00291841 0)
(0.197994 0.00284213 0)
(0.197355 0.00276739 0)
(0.196677 0.00269417 0)
(0.195963 0.00262249 0)
(0.195215 0.00255236 0)
(0.194435 0.00248379 0)
(0.193625 0.00241679 0)
(0.192787 0.00235135 0)
(0.191923 0.00228749 0)
(0.191035 0.0022252 0)
(0.190125 0.00216448 0)
(0.189194 0.00210531 0)
(0.188246 0.00204768 0)
(0.187281 0.00199159 0)
(0.186301 0.001937 0)
(0.185308 0.00188389 0)
(0.184304 0.00183225 0)
(0.18329 0.00178205 0)
(0.182267 0.00173326 0)
(0.181237 0.00168585 0)
(0.180201 0.0016398 0)
(0.179161 0.00159508 0)
(0.178117 0.00155166 0)
(0.17707 0.00150951 0)
(0.176022 0.00146861 0)
(0.174973 0.00142895 0)
(0.173924 0.0013905 0)
(0.172876 0.00135324 0)
(0.171831 0.00131718 0)
(0.170787 0.0012823 0)
(0.169746 0.00124861 0)
(0.168709 0.00121613 0)
(0.167675 0.00118488 0)
(0.166646 0.0011549 0)
(0.165622 0.00112627 0)
(0.164601 0.00109893 0)
(0.163587 0.00107334 0)
(0.162571 0.00104847 0)
(0.161578 0.0010265 0)
(0.160522 0.00100228 0)
(0.159692 0.00097859 0)
(0.15813 0.000969635 0)
(0.196411 0.00728585 0)
(0.197506 0.00817588 0)
(0.198841 0.00849643 0)
(0.200047 0.00830402 0)
(0.200915 0.00784774 0)
(0.201461 0.00733864 0)
(0.201796 0.00686923 0)
(0.202011 0.00645871 0)
(0.202152 0.00610416 0)
(0.202244 0.00579828 0)
(0.202301 0.0055325 0)
(0.202338 0.00529894 0)
(0.20236 0.00509158 0)
(0.202374 0.00490597 0)
(0.202382 0.00473857 0)
(0.202386 0.00458644 0)
(0.202389 0.00444718 0)
(0.202389 0.00431883 0)
(0.202386 0.00419978 0)
(0.20238 0.00408867 0)
(0.202369 0.00398436 0)
(0.20235 0.00388589 0)
(0.202321 0.00379244 0)
(0.202281 0.00370333 0)
(0.202226 0.00361796 0)
(0.202155 0.00353584 0)
(0.202065 0.00345653 0)
(0.201953 0.00337968 0)
(0.201819 0.003305 0)
(0.20166 0.00323225 0)
(0.201475 0.00316122 0)
(0.201262 0.00309175 0)
(0.20102 0.00302371 0)
(0.200749 0.002957 0)
(0.200449 0.00289154 0)
(0.200118 0.00282727 0)
(0.199757 0.00276414 0)
(0.199365 0.00270212 0)
(0.198944 0.00264119 0)
(0.198493 0.00258132 0)
(0.198014 0.00252252 0)
(0.197506 0.00246477 0)
(0.196971 0.00240806 0)
(0.196409 0.0023524 0)
(0.195822 0.00229779 0)
(0.195211 0.00224422 0)
(0.194576 0.00219169 0)
(0.193918 0.0021402 0)
(0.19324 0.00208975 0)
(0.192541 0.00204033 0)
(0.191824 0.00199193 0)
(0.191089 0.00194456 0)
(0.190337 0.00189821 0)
(0.18957 0.00185287 0)
(0.188788 0.00180853 0)
(0.187993 0.00176519 0)
(0.187186 0.00172284 0)
(0.186368 0.00168149 0)
(0.185539 0.00164112 0)
(0.184701 0.00160175 0)
(0.183854 0.00156338 0)
(0.183 0.00152602 0)
(0.18214 0.00148968 0)
(0.181273 0.00145439 0)
(0.180401 0.00142018 0)
(0.179525 0.0013871 0)
(0.178644 0.00135521 0)
(0.17776 0.00132461 0)
(0.176872 0.00129526 0)
(0.175983 0.0012677 0)
(0.175086 0.00124074 0)
(0.174203 0.00121788 0)
(0.173257 0.00118979 0)
(0.172507 0.00118022 0)
(0.171086 0.00114723 0)
(0.196783 0.0069517 0)
(0.197724 0.007728 0)
(0.19887 0.0080519 0)
(0.199936 0.00794572 0)
(0.200743 0.00759309 0)
(0.201284 0.00716813 0)
(0.201635 0.00675769 0)
(0.201871 0.0063864 0)
(0.202033 0.00605729 0)
(0.202142 0.00576795 0)
(0.202214 0.00551331 0)
(0.20226 0.00528749 0)
(0.202288 0.00508553 0)
(0.202302 0.00490359 0)
(0.202307 0.00473859 0)
(0.202305 0.00458796 0)
(0.202298 0.00444956 0)
(0.202288 0.00432166 0)
(0.202276 0.00420285 0)
(0.202263 0.00409194 0)
(0.202248 0.00398794 0)
(0.202233 0.00389003 0)
(0.202216 0.00379749 0)
(0.202198 0.00370971 0)
(0.202176 0.00362616 0)
(0.202151 0.00354638 0)
(0.202122 0.00346995 0)
(0.202086 0.00339653 0)
(0.202042 0.0033258 0)
(0.20199 0.00325748 0)
(0.201927 0.00319133 0)
(0.201853 0.00312714 0)
(0.201765 0.00306472 0)
(0.201663 0.00300391 0)
(0.201545 0.00294457 0)
(0.201411 0.00288659 0)
(0.201259 0.00282985 0)
(0.201088 0.00277427 0)
(0.200897 0.00271977 0)
(0.200687 0.00266629 0)
(0.200455 0.00261377 0)
(0.200203 0.00256217 0)
(0.199929 0.00251144 0)
(0.199633 0.00246157 0)
(0.199316 0.00241252 0)
(0.198977 0.00236426 0)
(0.198617 0.00231678 0)
(0.198235 0.00227007 0)
(0.197832 0.00222411 0)
(0.197408 0.00217889 0)
(0.196964 0.00213441 0)
(0.1965 0.00209064 0)
(0.196017 0.00204761 0)
(0.195515 0.00200529 0)
(0.194995 0.00196368 0)
(0.194457 0.0019228 0)
(0.193903 0.00188263 0)
(0.193332 0.00184319 0)
(0.192745 0.00180449 0)
(0.192143 0.00176653 0)
(0.191527 0.00172934 0)
(0.190898 0.00169293 0)
(0.190256 0.00165735 0)
(0.189601 0.00162261 0)
(0.188935 0.00158878 0)
(0.188257 0.00155591 0)
(0.187569 0.00152408 0)
(0.186871 0.00149342 0)
(0.186164 0.00146391 0)
(0.185448 0.00143614 0)
(0.184718 0.00140882 0)
(0.183994 0.00138658 0)
(0.183209 0.00135681 0)
(0.182586 0.00135989 0)
(0.181387 0.00130906 0)
(0.197112 0.00665295 0)
(0.197926 0.00733199 0)
(0.198912 0.00765052 0)
(0.199853 0.00761053 0)
(0.2006 0.00734474 0)
(0.201126 0.0069943 0)
(0.201485 0.00663864 0)
(0.201735 0.00630567 0)
(0.201912 0.00600271 0)
(0.202036 0.00573109 0)
(0.20212 0.00548873 0)
(0.202177 0.00527173 0)
(0.202214 0.00507622 0)
(0.202236 0.00489903 0)
(0.202247 0.00473754 0)
(0.202248 0.00458948 0)
(0.202243 0.00445293 0)
(0.202232 0.00432633 0)
(0.202218 0.00420837 0)
(0.202201 0.00409797 0)
(0.202183 0.00399425 0)
(0.202162 0.00389645 0)
(0.202141 0.00380393 0)
(0.20212 0.00371616 0)
(0.202098 0.00363267 0)
(0.202076 0.00355306 0)
(0.202054 0.00347698 0)
(0.202031 0.00340412 0)
(0.202007 0.0033342 0)
(0.201981 0.00326698 0)
(0.201953 0.00320223 0)
(0.201921 0.00313975 0)
(0.201887 0.00307936 0)
(0.201847 0.00302091 0)
(0.201803 0.00296423 0)
(0.201751 0.00290919 0)
(0.201693 0.00285567 0)
(0.201626 0.00280356 0)
(0.201551 0.00275274 0)
(0.201465 0.00270314 0)
(0.201368 0.00265467 0)
(0.20126 0.00260724 0)
(0.20114 0.0025608 0)
(0.201006 0.00251527 0)
(0.200859 0.00247061 0)
(0.200698 0.00242676 0)
(0.200521 0.00238367 0)
(0.20033 0.00234132 0)
(0.200123 0.00229966 0)
(0.1999 0.00225866 0)
(0.199661 0.0022183 0)
(0.199406 0.00217856 0)
(0.199135 0.00213941 0)
(0.198847 0.00210083 0)
(0.198542 0.00206283 0)
(0.198221 0.00202539 0)
(0.197884 0.0019885 0)
(0.197531 0.00195217 0)
(0.197162 0.0019164 0)
(0.196777 0.00188121 0)
(0.196377 0.0018466 0)
(0.195961 0.00181261 0)
(0.19553 0.00177927 0)
(0.195085 0.00174661 0)
(0.194626 0.0017147 0)
(0.194152 0.0016836 0)
(0.193665 0.00165339 0)
(0.193164 0.00162422 0)
(0.19265 0.00159608 0)
(0.192124 0.00156962 0)
(0.191581 0.00154349 0)
(0.191037 0.00152311 0)
(0.190438 0.00149387 0)
(0.189964 0.00150655 0)
(0.189032 0.00144592 0)
(0.197403 0.00638401 0)
(0.198112 0.00698037 0)
(0.198964 0.00728786 0)
(0.199795 0.00729764 0)
(0.20048 0.00710392 0)
(0.200987 0.00681911 0)
(0.201347 0.00651407 0)
(0.201607 0.00621812 0)
(0.201795 0.0059416 0)
(0.201929 0.00568855 0)
(0.202025 0.00545935 0)
(0.202091 0.00525192 0)
(0.202137 0.00506352 0)
(0.202166 0.00489165 0)
(0.202182 0.00473419 0)
(0.202189 0.00458921 0)
(0.202189 0.00445502 0)
(0.202182 0.00433023 0)
(0.20217 0.00421363 0)
(0.202155 0.00410425 0)
(0.202137 0.00400125 0)
(0.202117 0.00390392 0)
(0.202095 0.00381168 0)
(0.202072 0.00372404 0)
(0.202048 0.00364056 0)
(0.202024 0.00356087 0)
(0.202 0.00348467 0)
(0.201976 0.00341167 0)
(0.201952 0.00334164 0)
(0.201928 0.00327436 0)
(0.201905 0.00320964 0)
(0.201881 0.0031473 0)
(0.201857 0.00308718 0)
(0.201833 0.00302916 0)
(0.201807 0.00297308 0)
(0.201781 0.00291883 0)
(0.201753 0.00286629 0)
(0.201723 0.00281536 0)
(0.20169 0.00276593 0)
(0.201654 0.00271792 0)
(0.201614 0.00267122 0)
(0.201569 0.00262577 0)
(0.20152 0.00258148 0)
(0.201464 0.00253827 0)
(0.201403 0.00249609 0)
(0.201334 0.00245485 0)
(0.201257 0.00241451 0)
(0.201173 0.00237501 0)
(0.20108 0.0023363 0)
(0.200977 0.00229832 0)
(0.200864 0.00226104 0)
(0.200742 0.00222442 0)
(0.200608 0.00218842 0)
(0.200463 0.00215301 0)
(0.200307 0.00211817 0)
(0.200139 0.00208387 0)
(0.199958 0.0020501 0)
(0.199765 0.00201684 0)
(0.19956 0.0019841 0)
(0.199342 0.00195188 0)
(0.19911 0.00192017 0)
(0.198866 0.00188901 0)
(0.198608 0.00185841 0)
(0.198337 0.00182842 0)
(0.198053 0.00179909 0)
(0.197755 0.00177048 0)
(0.197444 0.00174268 0)
(0.197119 0.00171584 0)
(0.196781 0.00168996 0)
(0.19643 0.00166571 0)
(0.196062 0.00164176 0)
(0.19569 0.00162389 0)
(0.195271 0.00159696 0)
(0.194944 0.00161522 0)
(0.194279 0.00155288 0)
(0.197663 0.00614042 0)
(0.198283 0.00666667 0)
(0.199022 0.00695992 0)
(0.199756 0.00700644 0)
(0.200383 0.00687195 0)
(0.200865 0.00664447 0)
(0.201222 0.00638574 0)
(0.201486 0.00612508 0)
(0.201682 0.0058748 0)
(0.201826 0.00564086 0)
(0.20193 0.00542555 0)
(0.202005 0.00522838 0)
(0.202057 0.00504768 0)
(0.202093 0.00488165 0)
(0.202115 0.00472863 0)
(0.202127 0.00458707 0)
(0.202131 0.00445555 0)
(0.202128 0.00433283 0)
(0.20212 0.00421786 0)
(0.202108 0.00410973 0)
(0.202092 0.00400769 0)
(0.202074 0.00391109 0)
(0.202054 0.00381938 0)
(0.202032 0.00373209 0)
(0.202009 0.00364883 0)
(0.201985 0.00356924 0)
(0.201961 0.00349304 0)
(0.201936 0.00341996 0)
(0.201912 0.00334978 0)
(0.201887 0.00328232 0)
(0.201863 0.00321738 0)
(0.201839 0.00315482 0)
(0.201816 0.0030945 0)
(0.201793 0.00303629 0)
(0.20177 0.00298008 0)
(0.201748 0.00292575 0)
(0.201726 0.00287321 0)
(0.201704 0.00282236 0)
(0.201682 0.00277312 0)
(0.20166 0.0027254 0)
(0.201638 0.00267912 0)
(0.201614 0.00263421 0)
(0.201589 0.00259059 0)
(0.201563 0.00254819 0)
(0.201535 0.00250695 0)
(0.201504 0.00246679 0)
(0.201471 0.00242767 0)
(0.201434 0.00238951 0)
(0.201394 0.00235227 0)
(0.20135 0.00231589 0)
(0.201301 0.00228032 0)
(0.201247 0.00224551 0)
(0.201188 0.00221142 0)
(0.201123 0.00217802 0)
(0.201051 0.00214527 0)
(0.200972 0.00211313 0)
(0.200886 0.00208159 0)
(0.200793 0.00205061 0)
(0.200691 0.0020202 0)
(0.200581 0.00199033 0)
(0.200462 0.00196102 0)
(0.200334 0.00193226 0)
(0.200196 0.00190409 0)
(0.200049 0.00187652 0)
(0.199891 0.00184961 0)
(0.199723 0.00182343 0)
(0.199544 0.00179804 0)
(0.199354 0.0017736 0)
(0.199153 0.00175013 0)
(0.198941 0.00172828 0)
(0.198714 0.00170683 0)
(0.198483 0.00169145 0)
(0.198215 0.00166785 0)
(0.19801 0.00168758 0)
(0.197578 0.00162999 0)
(0.197895 0.00591868 0)
(0.19844 0.00638552 0)
(0.199085 0.00666304 0)
(0.199733 0.00673611 0)
(0.200304 0.00664979 0)
(0.20076 0.00647192 0)
(0.201108 0.00625517 0)
(0.201373 0.00602777 0)
(0.201574 0.00580313 0)
(0.201724 0.00558852 0)
(0.201836 0.00538762 0)
(0.201918 0.00520128 0)
(0.201977 0.00502882 0)
(0.202018 0.00486911 0)
(0.202046 0.00472096 0)
(0.202062 0.00458317 0)
(0.20207 0.00445459 0)
(0.202071 0.00433418 0)
(0.202066 0.00422101 0)
(0.202057 0.00411431 0)
(0.202044 0.00401338 0)
(0.202028 0.00391763 0)
(0.20201 0.00382658 0)
(0.20199 0.00373977 0)
(0.201969 0.00365684 0)
(0.201946 0.00357747 0)
(0.201923 0.00350139 0)
(0.2019 0.00342834 0)
(0.201876 0.00335813 0)
(0.201852 0.00329056 0)
(0.201828 0.00322547 0)
(0.201804 0.00316272 0)
(0.201781 0.00310218 0)
(0.201758 0.00304372 0)
(0.201735 0.00298725 0)
(0.201713 0.00293267 0)
(0.201692 0.00287988 0)
(0.201671 0.0028288 0)
(0.201651 0.00277935 0)
(0.201631 0.00273146 0)
(0.201612 0.00268505 0)
(0.201593 0.00264006 0)
(0.201574 0.00259642 0)
(0.201556 0.00255408 0)
(0.201538 0.00251296 0)
(0.201519 0.002473 0)
(0.2015 0.00243417 0)
(0.20148 0.00239639 0)
(0.20146 0.00235961 0)
(0.201438 0.0023238 0)
(0.201415 0.00228889 0)
(0.201391 0.00225484 0)
(0.201364 0.00222161 0)
(0.201335 0.00218915 0)
(0.201303 0.00215745 0)
(0.201268 0.00212645 0)
(0.201229 0.00209613 0)
(0.201187 0.00206647 0)
(0.201141 0.00203745 0)
(0.20109 0.00200906 0)
(0.201034 0.00198129 0)
(0.200973 0.00195416 0)
(0.200906 0.00192767 0)
(0.200833 0.00190185 0)
(0.200753 0.00187674 0)
(0.200667 0.00185242 0)
(0.200574 0.00182894 0)
(0.200473 0.00180645 0)
(0.200364 0.00178499 0)
(0.200247 0.00176519 0)
(0.200119 0.001746 0)
(0.199987 0.00173258 0)
(0.19983 0.00171252 0)
(0.199713 0.00173041 0)
(0.199458 0.00168142 0)
(0.198104 0.00571601 0)
(0.198585 0.00613242 0)
(0.199149 0.00639384 0)
(0.199723 0.00648559 0)
(0.200241 0.00643803 0)
(0.200668 0.00630272 0)
(0.201005 0.00612371 0)
(0.201268 0.00592734 0)
(0.201471 0.00572744 0)
(0.201626 0.00553207 0)
(0.201744 0.00534588 0)
(0.201832 0.00517081 0)
(0.201896 0.00500704 0)
(0.201943 0.00485408 0)
(0.201975 0.00471118 0)
(0.201996 0.0045775 0)
(0.202007 0.00445215 0)
(0.202012 0.00433428 0)
(0.20201 0.00422313 0)
(0.202003 0.00411801 0)
(0.201993 0.00401832 0)
(0.201979 0.00392354 0)
(0.201963 0.00383323 0)
(0.201945 0.00374698 0)
(0.201926 0.00366447 0)
(0.201905 0.00358538 0)
(0.201883 0.00350948 0)
(0.201861 0.00343653 0)
(0.201838 0.00336634 0)
(0.201816 0.00329873 0)
(0.201793 0.00323355 0)
(0.20177 0.00317066 0)
(0.201747 0.00310995 0)
(0.201725 0.00305129 0)
(0.201702 0.0029946 0)
(0.201681 0.00293977 0)
(0.20166 0.00288673 0)
(0.201639 0.00283539 0)
(0.201619 0.00278567 0)
(0.2016 0.00273752 0)
(0.201581 0.00269086 0)
(0.201563 0.00264563 0)
(0.201546 0.00260177 0)
(0.201529 0.00255922 0)
(0.201512 0.00251792 0)
(0.201497 0.00247783 0)
(0.201481 0.0024389 0)
(0.201466 0.00240106 0)
(0.201451 0.00236428 0)
(0.201436 0.0023285 0)
(0.201421 0.00229369 0)
(0.201406 0.00225979 0)
(0.201391 0.00222678 0)
(0.201375 0.00219462 0)
(0.201358 0.00216327 0)
(0.20134 0.00213269 0)
(0.201321 0.00210287 0)
(0.201301 0.00207379 0)
(0.201279 0.00204542 0)
(0.201255 0.00201775 0)
(0.201229 0.00199079 0)
(0.201201 0.00196453 0)
(0.201169 0.00193899 0)
(0.201135 0.0019142 0)
(0.201096 0.0018902 0)
(0.201054 0.00186704 0)
(0.201008 0.00184482 0)
(0.200958 0.00182366 0)
(0.200902 0.00180361 0)
(0.200841 0.00178526 0)
(0.200774 0.00176778 0)
(0.200704 0.00175562 0)
(0.200617 0.00173872 0)
(0.200555 0.00175269 0)
(0.200416 0.00171352 0)
(0.198293 0.00553017 0)