/*--------------------------------*- C++ -*----------------------------------*\
| =========                 |                                                 |
| \\      /  F ield         | OpenFOAM: The Open Source CFD Toolbox           |
|  \\    /   O peration     | Version:  2.3.0                                 |
|   \\  /    A nd           | Web:      www.OpenFOAM.org                      |
|    \\/     M anipulation  |                                                 |
\*---------------------------------------------------------------------------*/
FoamFile
{
    version     2.0;
    format      ascii;
    class       surfaceScalarField;
    location    "0.1";
    object      phi_0;
}
// * * * * * * * * * * * * * * * * * * * * * * * * * * * * * * * * * * * * * //

dimensions      [0 3 -1 0 0 0 0];

internalField   nonuniform List<scalar> 
6068
(
2.83516e-08
2.82445e-09
-3.11761e-08
2.54988e-08
2.85278e-09
2.28104e-08
2.68843e-09
2.03314e-08
2.47904e-09
1.80789e-08
2.25247e-09
1.60639e-08
2.01496e-09
1.42894e-08
1.77452e-09
1.27504e-08
1.53903e-09
1.14352e-08
1.31523e-09
1.03266e-08
1.10859e-09
9.40348e-09
9.2311e-10
8.64234e-09
7.61141e-10
8.01901e-09
6.23325e-10
7.5102e-09
5.08813e-10
7.09459e-09
4.1561e-10
6.75359e-09
3.41e-10
6.47164e-09
2.81954e-10
6.23617e-09
2.35465e-10
6.03738e-09
1.98787e-10
5.86783e-09
1.69556e-10
5.72201e-09
1.45821e-10
5.59602e-09
1.25985e-10
5.48732e-09
1.08707e-10
5.39451e-09
9.28069e-11
5.31724e-09
7.72711e-11
5.25593e-09
6.13081e-11
5.21162e-09
4.43047e-11
5.18562e-09
2.60034e-11
5.17836e-09
7.2561e-12
5.18548e-09
-7.11201e-12
5.20211e-09
-1.66307e-11
5.22491e-09
-2.28064e-11
5.25089e-09
-2.59741e-11
5.27745e-09
-2.6558e-11
5.30281e-09
-2.53626e-11
5.32597e-09
-2.31565e-11
5.34647e-09
-2.05057e-11
5.36425e-09
-1.77752e-11
5.37942e-09
-1.51772e-11
5.39224e-09
-1.28205e-11
5.40299e-09
-1.07483e-11
5.41196e-09
-8.96521e-12
5.41941e-09
-7.45506e-12
5.4256e-09
-6.1916e-12
5.43075e-09
-5.14505e-12
5.43504e-09
-4.28594e-12
5.43862e-09
-3.5861e-12
5.44164e-09
-3.01998e-12
5.44421e-09
-2.56478e-12
5.44641e-09
-2.20048e-12
5.44832e-09
-1.90967e-12
5.44999e-09
-1.67748e-12
5.45148e-09
-1.49137e-12
5.45283e-09
-1.34095e-12
5.45404e-09
-1.21779e-12
5.45516e-09
-1.1152e-12
5.45619e-09
-1.02793e-12
5.45714e-09
-9.52022e-13
5.45802e-09
-8.84531e-13
5.45885e-09
-8.23319e-13
5.45961e-09
-7.66912e-13
5.46033e-09
-7.14344e-13
5.46099e-09
-6.64998e-13
5.46161e-09
-6.18484e-13
5.46219e-09
-5.7456e-13
5.46272e-09
-5.33087e-13
5.46321e-09
-4.9398e-13
5.46367e-09
-4.5717e-13
5.46409e-09
-4.22595e-13
5.46448e-09
-3.90184e-13
5.46484e-09
-3.59862e-13
5.46517e-09
-3.31539e-13
5.46548e-09
-3.05126e-13
5.46576e-09
-2.80524e-13
5.46602e-09
-2.57627e-13
5.46625e-09
-2.36348e-13
5.46647e-09
-2.16567e-13
5.46667e-09
-1.9822e-13
5.46685e-09
-1.8118e-13
5.46702e-09
-1.6538e-13
5.46717e-09
-1.50724e-13
5.4673e-09
-1.37127e-13
5.46743e-09
-1.24517e-13
5.46754e-09
-1.12812e-13
5.46764e-09
-1.01944e-13
5.46773e-09
-9.18436e-14
5.46782e-09
-8.24393e-14
5.46789e-09
-7.36706e-14
5.46796e-09
-6.54714e-14
5.46801e-09
-5.77843e-14
5.46806e-09
-5.05462e-14
5.46811e-09
-4.37004e-14
5.46815e-09
-3.71803e-14
5.46818e-09
-3.0915e-14
5.4682e-09
-2.48161e-14
5.46822e-09
-1.87544e-14
5.46823e-09
-1.26148e-14
5.46824e-09
-6.37014e-15
5.46824e-09
-6.26875e-16
2.3423e-14
3.40647e-08
3.10432e-09
-3.43446e-08
3.34851e-08
3.43241e-09
3.26678e-08
3.50573e-09
3.1692e-08
3.45477e-09
3.06151e-08
3.32946e-09
2.94827e-08
3.14729e-09
2.83326e-08
2.92468e-09
2.71936e-08
2.67798e-09
2.60875e-08
2.42136e-09
2.50295e-08
2.16654e-09
2.40299e-08
1.9227e-09
2.30946e-08
1.69644e-09
2.22263e-08
1.4917e-09
2.1425e-08
1.31004e-09
2.06895e-08
1.15115e-09
2.00172e-08
1.01335e-09
1.94049e-08
8.94215e-10
1.88494e-08
7.90955e-10
1.83474e-08
7.00781e-10
1.78959e-08
6.21084e-10
1.74922e-08
5.49501e-10
1.71343e-08
4.83897e-10
1.68207e-08
4.2231e-10
1.65505e-08
3.62956e-10
1.63234e-08
3.04373e-10
1.6139e-08
2.45747e-10
1.59961e-08
1.87237e-10
1.58921e-08
1.2997e-10
1.58249e-08
7.44077e-11
1.57966e-08
2.12222e-11
1.58022e-08
-2.22125e-11
1.58296e-08
-5.01681e-11
1.58696e-08
-6.60435e-11
1.59159e-08
-7.28705e-11
1.59639e-08
-7.33022e-11
1.60104e-08
-6.96368e-11
1.60535e-08
-6.36537e-11
1.60923e-08
-5.66095e-11
1.61265e-08
-4.93302e-11
1.6156e-08
-4.2322e-11
1.61811e-08
-3.58676e-11
1.62022e-08
-3.01024e-11
1.62199e-08
-2.50682e-11
1.62344e-08
-2.07509e-11
1.62464e-08
-1.71043e-11
1.62562e-08
-1.40655e-11
1.62641e-08
-1.15644e-11
1.62706e-08
-9.52921e-12
1.6276e-08
-7.89072e-12
1.62804e-08
-6.58405e-12
1.6284e-08
-5.55018e-12
1.62871e-08
-4.73671e-12
1.62897e-08
-4.09821e-12
1.62919e-08
-3.59619e-12
1.62939e-08
-3.19886e-12
1.62957e-08
-2.8805e-12
1.62973e-08
-2.62081e-12
1.62987e-08
-2.40418e-12
1.63e-08
-2.21887e-12
1.63013e-08
-2.05628e-12
1.63024e-08
-1.91033e-12
1.63035e-08
-1.77691e-12
1.63045e-08
-1.65331e-12
1.63054e-08
-1.53779e-12
1.63062e-08
-1.42925e-12
1.6307e-08
-1.32704e-12
1.63078e-08
-1.23075e-12
1.63085e-08
-1.14014e-12
1.63091e-08
-1.05498e-12
1.63097e-08
-9.75087e-13
1.63102e-08
-9.00256e-13
1.63107e-08
-8.30279e-13
1.63112e-08
-7.64933e-13
1.63116e-08
-7.03979e-13
1.6312e-08
-6.47176e-13
1.63123e-08
-5.94281e-13
1.63127e-08
-5.4506e-13
1.6313e-08
-4.99294e-13
1.63132e-08
-4.56745e-13
1.63135e-08
-4.17198e-13
1.63137e-08
-3.80454e-13
1.63139e-08
-3.46298e-13
1.63141e-08
-3.14552e-13
1.63143e-08
-2.85023e-13
1.63145e-08
-2.57538e-13
1.63146e-08
-2.31927e-13
1.63147e-08
-2.08022e-13
1.63148e-08
-1.85667e-13
1.63149e-08
-1.64707e-13
1.6315e-08
-1.44992e-13
1.63151e-08
-1.26374e-13
1.63152e-08
-1.08702e-13
1.63152e-08
-9.18214e-14
1.63153e-08
-7.55593e-14
1.63153e-08
-5.97144e-14
1.63153e-08
-4.40191e-14
1.63153e-08
-2.82769e-14
1.63153e-08
-1.26137e-14
1.63153e-08
6.27223e-15
5.15308e-14
3.61572e-08
2.957e-09
-3.60099e-08
3.62323e-08
3.35733e-09
3.61837e-08
3.55433e-09
3.60129e-08
3.62551e-09
3.57312e-08
3.61119e-09
3.53527e-08
3.52578e-09
3.48947e-08
3.38262e-09
3.43754e-08
3.19729e-09
3.38119e-08
2.98485e-09
3.32198e-08
2.75867e-09
3.26125e-08
2.52998e-09
3.20014e-08
2.30758e-09
3.13955e-08
2.09759e-09
3.0802e-08
1.90356e-09
3.02263e-08
1.72687e-09
2.96724e-08
1.5672e-09
2.91435e-08
1.42313e-09
2.86419e-08
1.29257e-09
2.81695e-08
1.17315e-09
2.77281e-08
1.06248e-09
2.73194e-08
9.58224e-10
2.69451e-08
8.5816e-10
2.66072e-08
7.60244e-10
2.63074e-08
6.62731e-10
2.60473e-08
5.64475e-10
2.58277e-08
4.65315e-10
2.56487e-08
3.66328e-10
2.55088e-08
2.69802e-10
2.54043e-08
1.78888e-10
2.53291e-08
9.64207e-11
2.52833e-08
2.3643e-11
2.52673e-08
-3.41992e-11
2.52747e-08
-7.34562e-11
2.52989e-08
-9.7054e-11
2.53342e-08
-1.08614e-10
2.5376e-08
-1.11438e-10
2.54207e-08
-1.08314e-10
2.54655e-08
-1.01431e-10
2.55086e-08
-9.24092e-11
2.55487e-08
-8.24016e-11
2.5585e-08
-7.2197e-11
2.56172e-08
-6.23163e-11
2.56452e-08
-5.30867e-11
2.56692e-08
-4.46983e-11
2.56893e-08
-3.72447e-11
2.5706e-08
-3.07511e-11
2.57196e-08
-2.51948e-11
2.57306e-08
-2.05205e-11
2.57394e-08
-1.66511e-11
2.57463e-08
-1.34972e-11
2.57517e-08
-1.09635e-11
2.57559e-08
-8.95519e-12
2.57592e-08
-7.3819e-12
2.57618e-08
-6.16094e-12
2.57638e-08
-5.2193e-12
2.57654e-08
-4.49451e-12
2.57667e-08
-3.93463e-12
2.57678e-08
-3.49781e-12
2.57688e-08
-3.15116e-12
2.57696e-08
-2.86946e-12
2.57703e-08
-2.63407e-12
2.57709e-08
-2.43163e-12
2.57715e-08
-2.25281e-12
2.57721e-08
-2.09128e-12
2.57726e-08
-1.94291e-12
2.57731e-08
-1.80507e-12
2.57735e-08
-1.67616e-12
2.5774e-08
-1.55522e-12
2.57743e-08
-1.44162e-12
2.57747e-08
-1.33493e-12
2.5775e-08
-1.23481e-12
2.57753e-08
-1.14097e-12
2.57756e-08
-1.05312e-12
2.57759e-08
-9.70949e-13
2.57761e-08
-8.94161e-13
2.57764e-08
-8.22436e-13
2.57766e-08
-7.55503e-13
2.57768e-08
-6.93059e-13
2.5777e-08
-6.34825e-13
2.57771e-08
-5.80512e-13
2.57773e-08
-5.29872e-13
2.57774e-08
-4.82628e-13
2.57775e-08
-4.38545e-13
2.57776e-08
-3.97374e-13
2.57777e-08
-3.58883e-13
2.57778e-08
-3.2285e-13
2.57779e-08
-2.8905e-13
2.5778e-08
-2.57272e-13
2.5778e-08
-2.27309e-13
2.57781e-08
-1.98954e-13
2.57781e-08
-1.72002e-13
2.57782e-08
-1.46243e-13
2.57782e-08
-1.2147e-13
2.57782e-08
-9.7448e-14
2.57783e-08
-7.39166e-14
2.57783e-08
-5.05439e-14
2.57783e-08
-2.71949e-14
2.57782e-08
-3.45097e-15
2.57782e-08
2.85184e-14
8.88757e-14
3.77252e-08
2.76736e-09
-3.75355e-08
3.79294e-08
3.15314e-09
3.80982e-08
3.38551e-09
3.82145e-08
3.50922e-09
3.82713e-08
3.55436e-09
3.82647e-08
3.53243e-09
3.81947e-08
3.45263e-09
3.80651e-08
3.3268e-09
3.78824e-08
3.16757e-09
3.76543e-08
2.98684e-09
3.73891e-08
2.79517e-09
3.70953e-08
2.60132e-09
3.6781e-08
2.41189e-09
3.64533e-08
2.23126e-09
3.61185e-08
2.06174e-09
3.57817e-08
1.90395e-09
3.54476e-08
1.75728e-09
3.51198e-08
1.62031e-09
3.48018e-08
1.49115e-09
3.44966e-08
1.3677e-09
3.4207e-08
1.24781e-09
3.39358e-08
1.12937e-09
3.36856e-08
1.01049e-09
3.34586e-08
8.89708e-10
3.32567e-08
7.66355e-10
3.30811e-08
6.40927e-10
3.29321e-08
5.1529e-10
3.28093e-08
3.92606e-10
3.27112e-08
2.77019e-10
3.26345e-08
1.73075e-10
3.25746e-08
8.35402e-11
3.25312e-08
9.23594e-12
3.25057e-08
-4.79506e-11
3.24962e-08
-8.74994e-11
3.24999e-08
-1.12406e-10
3.25143e-08
-1.25801e-10
3.25365e-08
-1.30528e-10
3.25641e-08
-1.29e-10
3.25948e-08
-1.23156e-10
3.26269e-08
-1.14505e-10
3.26589e-08
-1.04189e-10
3.26897e-08
-9.30636e-11
3.27184e-08
-8.17599e-11
3.27444e-08
-7.07382e-11
3.27675e-08
-6.03251e-11
3.27875e-08
-5.07415e-11
3.28044e-08
-4.21233e-11
3.28184e-08
-3.45371e-11
3.28297e-08
-2.79935e-11
3.28387e-08
-2.24589e-11
3.28456e-08
-1.78662e-11
3.28508e-08
-1.41257e-11
3.28545e-08
-1.11339e-11
3.28572e-08
-8.78214e-12
3.28589e-08
-6.96335e-12
3.286e-08
-5.57723e-12
3.28606e-08
-4.53367e-12
3.28608e-08
-3.755e-12
3.28609e-08
-3.17633e-12
3.28607e-08
-2.74505e-12
3.28605e-08
-2.42009e-12
3.28603e-08
-2.17032e-12
3.286e-08
-1.97277e-12
3.28597e-08
-1.81096e-12
3.28594e-08
-1.67346e-12
3.28592e-08
-1.55267e-12
3.2859e-08
-1.44371e-12
3.28587e-08
-1.34353e-12
3.28585e-08
-1.25032e-12
3.28584e-08
-1.16297e-12
3.28582e-08
-1.08082e-12
3.28581e-08
-1.00346e-12
3.2858e-08
-9.30587e-13
3.28579e-08
-8.61944e-13
3.28578e-08
-7.97319e-13
3.28577e-08
-7.36453e-13
3.28576e-08
-6.79198e-13
3.28575e-08
-6.25313e-13
3.28575e-08
-5.7462e-13
3.28574e-08
-5.26901e-13
3.28574e-08
-4.81987e-13
3.28573e-08
-4.39668e-13
3.28573e-08
-3.99767e-13
3.28572e-08
-3.62095e-13
3.28572e-08
-3.26466e-13
3.28572e-08
-2.927e-13
3.28572e-08
-2.60614e-13
3.28571e-08
-2.30027e-13
3.28571e-08
-2.00761e-13
3.28571e-08
-1.72629e-13
3.28571e-08
-1.45443e-13
3.2857e-08
-1.19002e-13
3.2857e-08
-9.31156e-14
3.2857e-08
-6.75808e-14
3.28569e-08
-4.22412e-14
3.28569e-08
-1.7051e-14
3.28569e-08
9.10765e-15
3.28568e-08
3.93812e-14
3.28568e-08
8.0729e-14
1.45428e-13
3.92529e-08
2.5992e-09
-3.90847e-08
3.94579e-08
2.94814e-09
3.96622e-08
3.18114e-09
3.98496e-08
3.32188e-09
4.00115e-08
3.3924e-09
4.0141e-08
3.40298e-09
4.02327e-08
3.36093e-09
4.02842e-08
3.27529e-09
4.02956e-08
3.1562e-09
4.02688e-08
3.01357e-09
4.02076e-08
2.85643e-09
4.01163e-08
2.69254e-09
4.00002e-08
2.52804e-09
3.98642e-08
2.36728e-09
3.97131e-08
2.21282e-09
3.95513e-08
2.06575e-09
3.93826e-08
1.92597e-09
3.92104e-08
1.79252e-09
3.90376e-08
1.66391e-09
3.8867e-08
1.53834e-09
3.87009e-08
1.4139e-09
3.85416e-08
1.28873e-09
3.83908e-08
1.16119e-09
3.82504e-08
1.03017e-09
3.81213e-08
8.95403e-10
3.80044e-08
7.5783e-10
3.79e-08
6.19744e-10
3.78079e-08
4.84672e-10
3.77279e-08
3.57032e-10
3.76594e-08
2.41545e-10
3.7601e-08
1.4199e-10
3.75507e-08
5.9471e-11
3.75093e-08
-6.51464e-12
3.74779e-08
-5.61237e-11
3.74564e-08
-9.08264e-11
3.74438e-08
-1.1322e-10
3.74391e-08
-1.25825e-10
3.74409e-08
-1.30871e-10
3.7448e-08
-1.30243e-10
3.7459e-08
-1.25481e-10
3.74726e-08
-1.17822e-10
3.74878e-08
-1.08251e-10
3.75036e-08
-9.75521e-11
3.75192e-08
-8.63482e-11
3.7534e-08
-7.51315e-11
3.75476e-08
-6.42848e-11
3.75596e-08
-5.40958e-11
3.75698e-08
-4.47683e-11
3.75782e-08
-3.64312e-11
3.75849e-08
-2.91475e-11
3.759e-08
-2.29243e-11
3.75936e-08
-1.7723e-11
3.75959e-08
-1.34704e-11
3.75972e-08
-1.00694e-11
3.75976e-08
-7.40965e-12
3.75974e-08
-5.37612e-12
3.75968e-08
-3.85648e-12
3.75957e-08
-2.74718e-12
3.75945e-08
-1.95658e-12
3.75932e-08
-1.40645e-12
3.75918e-08
-1.03301e-12
3.75904e-08
-7.85841e-13
3.75891e-08
-6.26137e-13
3.75878e-08
-5.25024e-13
3.75866e-08
-4.61709e-13
3.75854e-08
-4.21738e-13
3.75844e-08
-3.95475e-13
3.75834e-08
-3.76786e-13
3.75825e-08
-3.61959e-13
3.75817e-08
-3.48865e-13
3.7581e-08
-3.36278e-13
3.75803e-08
-3.23629e-13
3.75797e-08
-3.10621e-13
3.75791e-08
-2.97179e-13
3.75786e-08
-2.83343e-13
3.75781e-08
-2.69066e-13
3.75777e-08
-2.54485e-13
3.75773e-08
-2.39591e-13
3.7577e-08
-2.24474e-13
3.75767e-08
-2.09159e-13
3.75764e-08
-1.93709e-13
3.75761e-08
-1.78128e-13
3.75759e-08
-1.62441e-13
3.75757e-08
-1.46643e-13
3.75755e-08
-1.30723e-13
3.75753e-08
-1.1466e-13
3.75751e-08
-9.84247e-14
3.7575e-08
-8.19747e-14
3.75748e-08
-6.52612e-14
3.75747e-08
-4.82169e-14
3.75746e-08
-3.07636e-14
3.75745e-08
-1.2779e-14
3.75744e-08
5.96397e-15
3.75743e-08
2.57071e-14
3.75742e-08
4.6683e-14
3.75741e-08
6.94095e-14
3.7574e-08
9.4864e-14
3.7574e-08
1.2542e-13
3.75739e-08
1.66551e-13
2.24639e-13
4.08183e-08
2.45584e-09
-4.06749e-08
4.10018e-08
2.7647e-09
4.11967e-08
2.9862e-09
4.13884e-08
3.13014e-09
4.15694e-08
3.2114e-09
4.17335e-08
3.23892e-09
4.18754e-08
3.21907e-09
4.19915e-08
3.15917e-09
4.20801e-08
3.06758e-09
4.21411e-08
2.95259e-09
4.21756e-08
2.8219e-09
4.21859e-08
2.68224e-09
4.21749e-08
2.53906e-09
4.21458e-08
2.39638e-09
4.21018e-08
2.25677e-09
4.20461e-08
2.12148e-09
4.19814e-08
1.99071e-09
4.191e-08
1.86384e-09
4.18342e-08
1.73971e-09
4.17558e-08
1.61682e-09
4.16761e-08
1.49355e-09
4.15965e-08
1.36831e-09
4.1518e-08
1.23975e-09
4.14411e-08
1.10708e-09
4.13661e-08
9.70325e-10
4.12933e-08
8.30628e-10
4.12227e-08
6.90362e-10
4.11544e-08
5.52997e-10
4.10887e-08
4.22739e-10
4.10263e-08
3.03959e-10
4.0968e-08
2.00291e-10
4.09139e-08
1.13571e-10
4.0864e-08
4.33459e-11
4.08195e-08
-1.16344e-11
4.07813e-08
-5.25867e-11
4.07495e-08
-8.13936e-11
4.07238e-08
-1.00197e-10
4.07039e-08
-1.10969e-10
4.06891e-08
-1.15432e-10
4.06787e-08
-1.15038e-10
4.06718e-08
-1.10995e-10
4.06679e-08
-1.04303e-10
4.06661e-08
-9.57866e-11
4.06659e-08
-8.6132e-11
4.06667e-08
-7.59079e-11
4.0668e-08
-6.55823e-11
4.06694e-08
-5.55324e-11
4.06707e-08
-4.60513e-11
4.06716e-08
-3.7353e-11
4.06721e-08
-2.95785e-11
4.06719e-08
-2.28026e-11
4.06713e-08
-1.70422e-11
4.06701e-08
-1.22672e-11
4.06684e-08
-8.41038e-12
4.06664e-08
-5.37944e-12
4.06641e-08
-3.06677e-12
4.06616e-08
-1.358e-12
4.0659e-08
-1.39902e-13
4.06563e-08
6.89863e-13
4.06537e-08
1.21896e-12
4.06511e-08
1.52307e-12
4.06487e-08
1.66587e-12
4.06464e-08
1.69829e-12
4.06442e-08
1.65922e-12
4.06421e-08
1.577e-12
4.06402e-08
1.47139e-12
4.06385e-08
1.35554e-12
4.06369e-08
1.23781e-12
4.06354e-08
1.12325e-12
4.0634e-08
1.01468e-12
4.06328e-08
9.13553e-13
4.06316e-08
8.20399e-13
4.06306e-08
7.35304e-13
4.06296e-08
6.58048e-13
4.06288e-08
5.88255e-13
4.0628e-08
5.2554e-13
4.06272e-08
4.69375e-13
4.06266e-08
4.19341e-13
4.0626e-08
3.74963e-13
4.06254e-08
3.35843e-13
4.06249e-08
3.01565e-13
4.06245e-08
2.71781e-13
4.06241e-08
2.46153e-13
4.06237e-08
2.24384e-13
4.06234e-08
2.06209e-13
4.06231e-08
1.91392e-13
4.06228e-08
1.79726e-13
4.06225e-08
1.71042e-13
4.06223e-08
1.65197e-13
4.06221e-08
1.6209e-13
4.06219e-08
1.61652e-13
4.06217e-08
1.63865e-13
4.06216e-08
1.68737e-13
4.06214e-08
1.76365e-13
4.06213e-08
1.86972e-13
4.06211e-08
2.01021e-13
4.0621e-08
2.1939e-13
4.06209e-08
2.43994e-13
4.06208e-08
2.78441e-13
3.24216e-13
4.24344e-08
2.33194e-09
-4.23105e-08
4.25959e-08
2.60313e-09
4.27735e-08
2.80865e-09
4.29536e-08
2.95e-09
4.3129e-08
3.036e-09
4.32942e-08
3.07373e-09
4.34446e-08
3.06867e-09
4.35769e-08
3.0269e-09
4.36891e-08
2.95534e-09
4.37807e-08
2.86105e-09
4.38519e-08
2.75066e-09
4.39041e-08
2.63003e-09
4.39392e-08
2.50401e-09
4.39593e-08
2.37628e-09
4.39667e-08
2.24931e-09
4.39637e-08
2.12447e-09
4.39523e-08
2.00217e-09
4.39341e-08
1.88206e-09
4.39105e-08
1.76331e-09
4.38826e-08
1.64472e-09
4.38512e-08
1.52496e-09
4.38167e-08
1.40275e-09
4.37794e-08
1.27704e-09
4.37392e-08
1.14729e-09
4.36958e-08
1.01371e-09
4.3649e-08
8.7749e-10
4.35985e-08
7.40861e-10
4.35445e-08
6.06988e-10
4.34876e-08
4.79626e-10
4.34289e-08
3.62606e-10
4.33701e-08
2.59141e-10
4.33126e-08
1.71082e-10
4.32573e-08
9.86053e-11
4.3205e-08
4.06546e-11
4.31567e-08
-4.23043e-12
4.31129e-08
-3.76014e-11
4.30738e-08
-6.11661e-11
4.30395e-08
-7.66428e-11
4.30097e-08
-8.55782e-11
4.29839e-08
-8.93123e-11
4.29619e-08
-8.89905e-11
4.29432e-08
-8.55835e-11
4.29273e-08
-7.99138e-11
4.29139e-08
-7.26804e-11
4.29025e-08
-6.44773e-11
4.28927e-08
-5.58062e-11
4.28842e-08
-4.70834e-11
4.28768e-08
-3.86445e-11
4.28702e-08
-3.07481e-11
4.28642e-08
-2.35794e-11
4.28587e-08
-1.72555e-11
4.28535e-08
-1.18325e-11
4.28485e-08
-7.3149e-12
4.28438e-08
-3.66436e-12
4.28392e-08
-8.09558e-13
4.28348e-08
1.34106e-12
4.28305e-08
2.88658e-12
4.28265e-08
3.92787e-12
4.28226e-08
4.5642e-12
4.28189e-08
4.888e-12
4.28155e-08
4.98037e-12
4.28122e-08
4.90914e-12
4.28092e-08
4.72867e-12
4.28064e-08
4.48064e-12
4.28038e-08
4.19562e-12
4.28013e-08
3.89507e-12
4.27991e-08
3.59341e-12
4.2797e-08
3.29979e-12
4.27951e-08
3.0197e-12
4.27934e-08
2.75612e-12
4.27918e-08
2.51042e-12
4.27903e-08
2.28289e-12
4.2789e-08
2.07323e-12
4.27878e-08
1.88078e-12
4.27867e-08
1.70468e-12
4.27856e-08
1.54402e-12
4.27847e-08
1.39776e-12
4.27839e-08
1.26498e-12
4.27831e-08
1.1447e-12
4.27824e-08
1.03605e-12
4.27818e-08
9.3817e-13
4.27812e-08
8.50279e-13
4.27807e-08
7.71641e-13
4.27802e-08
7.01584e-13
4.27798e-08
6.39491e-13
4.27794e-08
5.84799e-13
4.2779e-08
5.37001e-13
4.27787e-08
4.95649e-13
4.27784e-08
4.60343e-13
4.27781e-08
4.30746e-13
4.27779e-08
4.06576e-13
4.27776e-08
3.87618e-13
4.27774e-08
3.73708e-13
4.27773e-08
3.64788e-13
4.27771e-08
3.60939e-13
4.27769e-08
3.62466e-13
4.27768e-08
3.70039e-13
4.27766e-08
3.84985e-13
4.27765e-08
4.09218e-13
4.40702e-13
4.41041e-08
2.22276e-09
-4.39949e-08
4.42468e-08
2.46036e-09
4.44071e-08
2.64841e-09
4.4573e-08
2.7841e-09
4.47373e-08
2.8717e-09
4.48948e-08
2.91621e-09
4.50413e-08
2.92215e-09
4.51737e-08
2.89448e-09
4.52901e-08
2.83894e-09
4.53897e-08
2.76147e-09
4.54726e-08
2.66779e-09
4.55396e-08
2.56301e-09
4.55922e-08
2.45146e-09
4.56319e-08
2.33649e-09
4.56608e-08
2.2205e-09
4.56803e-08
2.1049e-09
4.56922e-08
1.99028e-09
4.56977e-08
1.87658e-09
4.56978e-08
1.76324e-09
4.56931e-08
1.64938e-09
4.56841e-08
1.53397e-09
4.56708e-08
1.41604e-09
4.56531e-08
1.29481e-09
4.56304e-08
1.16995e-09
4.56023e-08
1.0418e-09
4.55683e-08
9.11495e-10
4.55281e-08
7.81046e-10
4.54819e-08
6.53219e-10
4.54303e-08
5.31249e-10
4.53745e-08
4.18406e-10
4.53162e-08
3.17446e-10
4.52572e-08
2.30082e-10
4.5199e-08
1.56743e-10
4.51428e-08
9.68344e-11
4.50894e-08
4.91997e-11
4.50394e-08
1.24197e-11
4.49932e-08
-1.49847e-11
4.4951e-08
-3.44554e-11
4.49128e-08
-4.73649e-11
4.48784e-08
-5.4933e-11
4.48477e-08
-5.82328e-11
4.48203e-08
-5.8191e-11
4.4796e-08
-5.56078e-11
4.47745e-08
-5.11739e-11
4.47555e-08
-4.54841e-11
4.47387e-08
-3.9047e-11
4.47239e-08
-3.22909e-11
4.47108e-08
-2.5567e-11
4.46992e-08
-1.91522e-11
4.46889e-08
-1.32531e-11
4.46797e-08
-8.00988e-12
4.46713e-08
-3.50235e-12
4.46638e-08
2.42192e-13
4.46569e-08
3.23819e-12
4.46505e-08
5.53122e-12
4.46447e-08
7.19011e-12
4.46393e-08
8.29893e-12
4.46343e-08
8.94827e-12
4.46296e-08
9.22853e-12
4.46253e-08
9.22483e-12
4.46212e-08
9.01275e-12
4.46175e-08
8.65615e-12
4.4614e-08
8.20669e-12
4.46108e-08
7.70436e-12
4.46078e-08
7.1788e-12
4.4605e-08
6.65099e-12
4.46025e-08
6.13512e-12
4.46002e-08
5.64019e-12
4.4598e-08
5.17151e-12
4.4596e-08
4.73183e-12
4.45942e-08
4.32214e-12
4.45926e-08
3.94231e-12
4.4591e-08
3.59154e-12
4.45897e-08
3.26862e-12
4.45884e-08
2.9721e-12
4.45872e-08
2.70046e-12
4.45862e-08
2.4521e-12
4.45852e-08
2.22551e-12
4.45843e-08
2.01915e-12
4.45835e-08
1.83162e-12
4.45828e-08
1.66155e-12
4.45822e-08
1.50767e-12
4.45816e-08
1.36879e-12
4.4581e-08
1.24383e-12
4.45805e-08
1.13176e-12
4.45801e-08
1.03165e-12
4.45797e-08
9.42657e-13
4.45793e-08
8.64012e-13
4.4579e-08
7.95023e-13
4.45787e-08
7.35087e-13
4.45784e-08
6.83674e-13
4.45781e-08
6.40344e-13
4.45779e-08
6.04736e-13
4.45777e-08
5.76604e-13
4.45775e-08
5.55851e-13
4.45773e-08
5.42583e-13
4.45772e-08
5.37193e-13
4.4577e-08
5.40417e-13
4.45769e-08
5.52827e-13
5.70315e-13
4.58293e-08
2.12493e-09
-4.57315e-08
4.59564e-08
2.33328e-09
4.61009e-08
2.50389e-09
4.62529e-08
2.63211e-09
4.64054e-08
2.71917e-09
4.65535e-08
2.76818e-09
4.6693e-08
2.7826e-09
4.6821e-08
2.76644e-09
4.69356e-08
2.72435e-09
4.70358e-08
2.66129e-09
4.71215e-08
2.58212e-09
4.71932e-08
2.4913e-09
4.7252e-08
2.39263e-09
4.72993e-08
2.28921e-09
4.73365e-08
2.18327e-09
4.73651e-08
2.07629e-09
4.73864e-08
1.969e-09
4.74014e-08
1.86156e-09
4.7411e-08
1.75367e-09
4.74156e-08
1.64475e-09
4.74155e-08
1.53407e-09
4.74107e-08
1.42093e-09
4.74007e-08
1.3048e-09
4.73851e-08
1.18555e-09
4.73633e-08
1.06357e-09
4.73348e-08
9.39933e-10
4.72995e-08
8.16406e-10
4.72573e-08
6.95364e-10
4.7209e-08
5.79545e-10
4.71557e-08
4.71706e-10
4.7099e-08
3.74193e-10
4.70405e-08
2.88551e-10
4.69819e-08
2.15335e-10
4.69245e-08
1.54252e-10
4.68692e-08
1.04472e-10
4.68168e-08
6.48786e-11
4.67676e-08
3.42161e-11
4.67219e-08
1.12233e-11
4.66799e-08
-5.31679e-12
4.66414e-08
-1.64908e-11
4.66065e-08
-2.32925e-11
4.65749e-08
-2.65943e-11
4.65464e-08
-2.71627e-11
4.65209e-08
-2.5668e-11
4.64981e-08
-2.26931e-11
4.64778e-08
-1.87408e-11
4.64598e-08
-1.42378e-11
4.64438e-08
-9.53799e-12
4.64295e-08
-4.92459e-12
4.64169e-08
-6.13425e-13
4.64056e-08
3.2424e-12
4.63956e-08
6.54616e-12
4.63866e-08
9.25044e-12
4.63785e-08
1.13494e-11
4.63711e-08
1.28698e-11
4.63645e-08
1.38625e-11
4.63584e-08
1.4394e-11
4.63528e-08
1.45393e-11
4.63476e-08
1.43747e-11
4.63429e-08
1.39734e-11
4.63385e-08
1.34015e-11
4.63344e-08
1.27154e-11
4.63307e-08
1.19613e-11
4.63272e-08
1.11754e-11
4.6324e-08
1.03849e-11
4.6321e-08
9.60894e-12
4.63183e-08
8.86072e-12
4.63158e-08
8.14844e-12
4.63135e-08
7.4768e-12
4.63114e-08
6.84798e-12
4.63094e-08
6.26241e-12
4.63077e-08
5.71939e-12
4.6306e-08
5.2175e-12
4.63046e-08
4.75488e-12
4.63032e-08
4.32944e-12
4.6302e-08
3.93902e-12
4.63008e-08
3.58137e-12
4.62998e-08
3.25435e-12
4.62989e-08
2.95584e-12
4.6298e-08
2.68385e-12
4.62972e-08
2.43647e-12
4.62965e-08
2.21191e-12
4.62959e-08
2.00851e-12
4.62953e-08
1.82471e-12
4.62948e-08
1.65907e-12
4.62943e-08
1.51027e-12
4.62939e-08
1.3771e-12
4.62935e-08
1.25843e-12
4.62931e-08
1.15328e-12
4.62928e-08
1.06075e-12
4.62925e-08
9.80042e-13
4.62922e-08
9.1048e-13
4.6292e-08
8.51482e-13
4.62917e-08
8.02598e-13
4.62915e-08
7.63532e-13
4.62914e-08
7.34168e-13
4.62912e-08
7.14602e-13
4.6291e-08
7.05038e-13
4.62909e-08
7.05098e-13
7.09879e-13
4.76122e-08
2.03609e-09
-4.75233e-08
4.77262e-08
2.21927e-09
4.78568e-08
2.37328e-09
4.79958e-08
2.49308e-09
4.81369e-08
2.57805e-09
4.82754e-08
2.62976e-09
4.84072e-08
2.65071e-09
4.85297e-08
2.64399e-09
4.86407e-08
2.61334e-09
4.87392e-08
2.56282e-09
4.88248e-08
2.49653e-09
4.88978e-08
2.41828e-09
4.8959e-08
2.33144e-09
4.90094e-08
2.23878e-09
4.90503e-08
2.1424e-09
4.90828e-08
2.04377e-09
4.91081e-08
1.94372e-09
4.9127e-08
1.8426e-09
4.91404e-08
1.74034e-09
4.91485e-08
1.63661e-09
4.91516e-08
1.53095e-09
4.91497e-08
1.42289e-09
4.91423e-08
1.31214e-09
4.91292e-08
1.1987e-09
4.91097e-08
1.08303e-09
4.90836e-08
9.66099e-10
4.90505e-08
8.49467e-10
4.90107e-08
7.35154e-10
4.89648e-08
6.25468e-10
4.89138e-08
5.22722e-10
4.8859e-08
4.28913e-10
4.88022e-08
3.45421e-10
4.87446e-08
2.72863e-10
4.86877e-08
2.11164e-10
4.86324e-08
1.59759e-10
4.85795e-08
1.17791e-10
4.85295e-08
8.42424e-11
4.84827e-08
5.80467e-11
4.84392e-08
3.81469e-11
4.83992e-08
2.35625e-11
4.83625e-08
1.33889e-11
4.83291e-08
6.8137e-12
4.82988e-08
3.11281e-12
4.82715e-08
1.64507e-12
4.82469e-08
1.84734e-12
4.8225e-08
3.23026e-12
4.82054e-08
5.37516e-12
4.81879e-08
7.93181e-12
4.81724e-08
1.0616e-11
4.81585e-08
1.32066e-11
4.81462e-08
1.55413e-11
4.81353e-08
1.75111e-11
4.81255e-08
1.90538e-11
4.81167e-08
2.01467e-11
4.81087e-08
2.07982e-11
4.81016e-08
2.1041e-11
4.8095e-08
2.09234e-11
4.80891e-08
2.05036e-11
4.80836e-08
1.98428e-11
4.80786e-08
1.90011e-11
4.80739e-08
1.80337e-11
4.80697e-08
1.69884e-11
4.80657e-08
1.59051e-11
4.80621e-08
1.48151e-11
4.80587e-08
1.37422e-11
4.80556e-08
1.27033e-11
4.80528e-08
1.17099e-11
4.80502e-08
1.0769e-11
4.80478e-08
9.88445e-12
4.80455e-08
9.05753e-12
4.80435e-08
8.28797e-12
4.80417e-08
7.57438e-12
4.804e-08
6.91462e-12
4.80384e-08
6.30613e-12
4.8037e-08
5.74611e-12
4.80357e-08
5.2317e-12
4.80345e-08
4.75999e-12
4.80335e-08
4.32817e-12
4.80325e-08
3.93348e-12
4.80316e-08
3.57335e-12
4.80308e-08
3.24528e-12
4.803e-08
2.94696e-12
4.80294e-08
2.67621e-12
4.80288e-08
2.43099e-12
4.80282e-08
2.20944e-12
4.80277e-08
2.0098e-12
4.80273e-08
1.83048e-12
4.80269e-08
1.67003e-12
4.80265e-08
1.5271e-12
4.80261e-08
1.40051e-12
4.80258e-08
1.28919e-12
4.80255e-08
1.19219e-12
4.80253e-08
1.10872e-12
4.80251e-08
1.0381e-12
4.80248e-08
9.79832e-13
4.80246e-08
9.33559e-13
4.80245e-08
8.99085e-13
4.80243e-08
8.76171e-13
4.80241e-08
8.63838e-13
8.57263e-13
4.94551e-08
1.95462e-09
-4.93736e-08
4.95581e-08
2.11621e-09
4.96765e-08
2.25491e-09
4.98036e-08
2.36597e-09
4.99339e-08
2.44775e-09
5.00629e-08
2.50074e-09
5.01871e-08
2.52655e-09
5.03036e-08
2.52751e-09
5.04104e-08
2.50655e-09
5.05062e-08
2.46695e-09
5.05907e-08
2.4121e-09
5.06637e-08
2.34525e-09
5.07258e-08
2.26932e-09
5.07778e-08
2.18678e-09
5.08206e-08
2.09958e-09
5.08553e-08
2.00912e-09
5.08827e-08
1.91633e-09
5.09036e-08
1.82166e-09
5.09187e-08
1.72524e-09
5.09284e-08
1.62696e-09
5.09328e-08
1.52657e-09
5.09318e-08
1.42382e-09
5.09254e-08
1.3186e-09
5.09131e-08
1.21103e-09
5.08945e-08
1.10158e-09
5.08694e-08
9.91179e-10
5.08377e-08
8.81166e-10
5.07996e-08
7.73267e-10
5.07556e-08
6.69428e-10
5.07068e-08
5.71597e-10
5.06542e-08
4.81473e-10
5.05993e-08
4.0029e-10
5.05435e-08
3.28687e-10
5.04879e-08
2.66745e-10
5.04336e-08
2.14113e-10
5.03812e-08
1.70154e-10
5.03314e-08
1.34065e-10
5.02845e-08
1.0496e-10
5.02407e-08
8.19381e-11
5.02001e-08
6.41317e-11
5.01628e-08
5.07279e-11
5.01286e-08
4.09797e-11
5.00975e-08
3.42111e-11
5.00693e-08
2.98159e-11
5.00439e-08
2.72562e-11
5.00211e-08
2.60608e-11
5.00007e-08
2.58231e-11
4.99824e-08
2.62e-11
4.99661e-08
2.69094e-11
4.99516e-08
2.77277e-11
4.99386e-08
2.84862e-11
4.99271e-08
2.90655e-11
4.99167e-08
2.93903e-11
4.99075e-08
2.94221e-11
4.98991e-08
2.91526e-11
4.98916e-08
2.85966e-11
4.98847e-08
2.77851e-11
4.98784e-08
2.67597e-11
4.98727e-08
2.55667e-11
4.98675e-08
2.4253e-11
4.98626e-08
2.28626e-11
4.98582e-08
2.14348e-11
4.98541e-08
2.00023e-11
4.98503e-08
1.85912e-11
4.98468e-08
1.72215e-11
4.98436e-08
1.59073e-11
4.98407e-08
1.4658e-11
4.9838e-08
1.34792e-11
4.98355e-08
1.23734e-11
4.98332e-08
1.1341e-11
4.98311e-08
1.03809e-11
4.98292e-08
9.49081e-12
4.98274e-08
8.66777e-12
4.98258e-08
7.90848e-12
4.98244e-08
7.20938e-12
4.9823e-08
6.56687e-12
4.98218e-08
5.97732e-12
4.98207e-08
5.43723e-12
4.98197e-08
4.94321e-12
4.98188e-08
4.49203e-12
4.98179e-08
4.08063e-12
4.98172e-08
3.70612e-12
4.98165e-08
3.3658e-12
4.98159e-08
3.05715e-12
4.98153e-08
2.77784e-12
4.98148e-08
2.52569e-12
4.98143e-08
2.29871e-12
4.98139e-08
2.09508e-12
4.98135e-08
1.91312e-12
4.98132e-08
1.75134e-12
4.98128e-08
1.60838e-12
4.98125e-08
1.48303e-12
4.98123e-08
1.37425e-12
4.9812e-08
1.28115e-12
4.98118e-08
1.20299e-12
4.98116e-08
1.1392e-12
4.98114e-08
1.0893e-12
4.98112e-08
1.0527e-12
4.98111e-08
1.02808e-12
1.01116e-12
5.13604e-08
1.87935e-09
-5.12852e-08
5.14542e-08
2.02245e-09
5.15618e-08
2.1473e-09
5.16781e-08
2.2497e-09
5.17982e-08
2.32761e-09
5.19182e-08
2.38075e-09
5.20347e-08
2.41004e-09
5.21451e-08
2.41715e-09
5.22473e-08
2.40432e-09
5.23401e-08
2.37416e-09
5.24228e-08
2.32944e-09
5.24951e-08
2.27289e-09
5.25575e-08
2.207e-09
5.26103e-08
2.13396e-09
5.26543e-08
2.05554e-09
5.26903e-08
1.97308e-09
5.27192e-08
1.88752e-09
5.27414e-08
1.79941e-09
5.27576e-08
1.70902e-09
5.27682e-08
1.6164e-09
5.27732e-08
1.5215e-09
5.27728e-08
1.42425e-09
5.27668e-08
1.32465e-09
5.27549e-08
1.22293e-09
5.27369e-08
1.11959e-09
5.27126e-08
1.01547e-09
5.2682e-08
9.1175e-10
5.26454e-08
8.09903e-10
5.26032e-08
7.11575e-10
5.25564e-08
6.1841e-10
5.2506e-08
5.31866e-10
5.24533e-08
4.53043e-10
5.23994e-08
3.82582e-10
5.23454e-08
3.20672e-10
5.22924e-08
2.67133e-10
5.2241e-08
2.21516e-10
5.21919e-08
1.83201e-10
5.21454e-08
1.5147e-10
5.21018e-08
1.25567e-10
5.20612e-08
1.04738e-10
5.20236e-08
8.82634e-11
5.19891e-08
7.54651e-11
5.19576e-08
6.57204e-11
5.1929e-08
5.84632e-11
5.19031e-08
5.31855e-11
5.18797e-08
4.94378e-11
5.18587e-08
4.68289e-11
5.18399e-08
4.50251e-11
5.1823e-08
4.37487e-11
5.1808e-08
4.27756e-11
5.17945e-08
4.19323e-11
5.17825e-08
4.10909e-11
5.17717e-08
4.01639e-11
5.1762e-08
3.90989e-11
5.17533e-08
3.78716e-11
5.17454e-08
3.64805e-11
5.17383e-08
3.49401e-11
5.17318e-08
3.32761e-11
5.17258e-08
3.15206e-11
5.17204e-08
2.97075e-11
5.17154e-08
2.78702e-11
5.17107e-08
2.60387e-11
5.17065e-08
2.42387e-11
5.17026e-08
2.24908e-11
5.1699e-08
2.08109e-11
5.16957e-08
1.92099e-11
5.16927e-08
1.76948e-11
5.16899e-08
1.62694e-11
5.16873e-08
1.49348e-11
5.1685e-08
1.36903e-11
5.16828e-08
1.25337e-11
5.16809e-08
1.14617e-11
5.16791e-08
1.04705e-11
5.16774e-08
9.55601e-12
5.16759e-08
8.71381e-12
5.16745e-08
7.93951e-12
5.16733e-08
7.22877e-12
5.16721e-08
6.57736e-12
5.16711e-08
5.98119e-12
5.16702e-08
5.43641e-12
5.16693e-08
4.93933e-12
5.16685e-08
4.4865e-12
5.16678e-08
4.07466e-12
5.16672e-08
3.7008e-12
5.16666e-08
3.36211e-12
5.16661e-08
3.05597e-12
5.16656e-08
2.78e-12
5.16651e-08
2.53197e-12
5.16647e-08
2.30989e-12
5.16644e-08
2.11192e-12
5.1664e-08
1.93641e-12
5.16638e-08
1.7819e-12
5.16635e-08
1.64708e-12
5.16632e-08
1.53084e-12
5.1663e-08
1.43221e-12
5.16628e-08
1.35039e-12
5.16626e-08
1.28464e-12
5.16624e-08
1.23411e-12
5.16622e-08
1.19734e-12
1.17068e-12
5.33309e-08
1.80946e-09
-5.3261e-08
5.34166e-08
1.93669e-09
5.35148e-08
2.04916e-09
5.36212e-08
2.14327e-09
5.37319e-08
2.21692e-09
5.38433e-08
2.26937e-09
5.39523e-08
2.30101e-09
5.40565e-08