/*--------------------------------*- C++ -*----------------------------------*\
| =========                 |                                                 |
| \\      /  F ield         | OpenFOAM: The Open Source CFD Toolbox           |
|  \\    /   O peration     | Version:  2.3.0                                 |
|   \\  /    A nd           | Web:      www.OpenFOAM.org                      |
|    \\/     M anipulation  |                                                 |
\*---------------------------------------------------------------------------*/
FoamFile
{
    version     2.0;
    format      ascii;
    class       volVectorField;
    location    "0.1";
    object      U_0;
}
// * * * * * * * * * * * * * * * * * * * * * * * * * * * * * * * * * * * * * //

dimensions      [0 1 -1 0 0 0 0];

internalField   nonuniform List<vector> 
3105
(
(0.171811 0.00582066 0)
(0.155228 0.00597123 0)
(0.13945 0.00559587 0)
(0.124485 0.00501167 0)
(0.110718 0.00435557 0)
(0.0983446 0.00368676 0)
(0.0873938 0.00304301 0)
(0.0778342 0.00245055 0)
(0.0696094 0.00192566 0)
(0.0626351 0.00147669 0)
(0.0567986 0.00110565 0)
(0.0519675 0.000809266 0)
(0.0480011 0.000580259 0)
(0.0447603 0.000408924 0)
(0.0421153 0.000284681 0)
(0.0399505 0.000197309 0)
(0.0381676 0.000137714 0)
(0.0366857 9.83061e-05 0)
(0.0354409 7.30565e-05 0)
(0.0343839 5.73711e-05 0)
(0.0334777 4.78347e-05 0)
(0.0326956 4.18824e-05 0)
(0.0320195 3.74671e-05 0)
(0.0314381 3.28561e-05 0)
(0.030947 2.6705e-05 0)
(0.0305466 1.8425e-05 0)
(0.0302414 8.48973e-06 0)
(0.0300378 -2.24029e-06 0)
(0.0299445 -1.0738e-05 0)
(0.0299555 -1.57193e-05 0)
(0.0300297 -1.69189e-05 0)
(0.030147 -1.8561e-05 0)
(0.0302902 -1.95934e-05 0)
(0.0304435 -1.92298e-05 0)
(0.0305945 -1.78103e-05 0)
(0.0307352 -1.58809e-05 0)
(0.0308615 -1.3823e-05 0)
(0.030972 -1.185e-05 0)
(0.031067 -1.00653e-05 0)
(0.0311477 -8.50555e-06 0)
(0.0312155 -7.16969e-06 0)
(0.0312722 -6.03897e-06 0)
(0.0313194 -5.08922e-06 0)
(0.0313587 -4.29681e-06 0)
(0.0313912 -3.63902e-06 0)
(0.0314183 -3.093e-06 0)
(0.0314409 -2.64062e-06 0)
(0.0314599 -2.26746e-06 0)
(0.031476 -1.96104e-06 0)
(0.0314897 -1.71028e-06 0)
(0.0315015 -1.5053e-06 0)
(0.0315118 -1.33742e-06 0)
(0.0315209 -1.19915e-06 0)
(0.0315291 -1.08419e-06 0)
(0.0315365 -9.87337e-07 0)
(0.0315432 -9.04435e-07 0)
(0.0315494 -8.32198e-07 0)
(0.0315551 -7.68128e-07 0)
(0.0315604 -7.10359e-07 0)
(0.0315654 -6.57517e-07 0)
(0.03157 -6.0865e-07 0)
(0.0315742 -5.63131e-07 0)
(0.0315782 -5.20554e-07 0)
(0.0315819 -4.80642e-07 0)
(0.0315854 -4.43213e-07 0)
(0.0315886 -4.08149e-07 0)
(0.0315915 -3.75363e-07 0)
(0.0315943 -3.44767e-07 0)
(0.0315968 -3.16277e-07 0)
(0.0315992 -2.898e-07 0)
(0.0316013 -2.65248e-07 0)
(0.0316033 -2.42512e-07 0)
(0.0316052 -2.21497e-07 0)
(0.0316069 -2.02093e-07 0)
(0.0316084 -1.8419e-07 0)
(0.0316099 -1.67698e-07 0)
(0.0316112 -1.52499e-07 0)
(0.0316124 -1.38531e-07 0)
(0.0316135 -1.25668e-07 0)
(0.0316145 -1.13848e-07 0)
(0.0316154 -1.02983e-07 0)
(0.0316162 -9.29922e-08 0)
(0.031617 -8.38136e-08 0)
(0.0316176 -7.5372e-08 0)
(0.0316183 -6.76079e-08 0)
(0.0316188 -6.04623e-08 0)
(0.0316193 -5.38729e-08 0)
(0.0316198 -4.77896e-08 0)
(0.0316202 -4.21589e-08 0)
(0.0316205 -3.69331e-08 0)
(0.0316209 -3.20629e-08 0)
(0.0316211 -2.75034e-08 0)
(0.0316214 -2.32012e-08 0)
(0.0316216 -1.90993e-08 0)
(0.0316217 -1.51222e-08 0)
(0.0316218 -1.11542e-08 0)
(0.0316219 -7.06971e-09 0)
(0.031622 -2.99218e-09 0)
(0.031622 -1.44747e-09 0)
(0.0316219 2.14425e-08 0)
(0.190854 0.0092317 0)
(0.188532 0.00985513 0)
(0.184699 0.00969162 0)
(0.179634 0.00921038 0)
(0.173805 0.00858191 0)
(0.167572 0.00786157 0)
(0.161165 0.00708765 0)
(0.154753 0.00629528 0)
(0.148472 0.00551437 0)
(0.142425 0.0047694 0)
(0.13668 0.00407947 0)
(0.131282 0.00345776 0)
(0.126253 0.00291131 0)
(0.121599 0.00244144 0)
(0.117318 0.00204481 0)
(0.113396 0.00171476 0)
(0.109818 0.0014427 0)
(0.106567 0.00121934 0)
(0.103623 0.00103561 0)
(0.100968 0.000883274 0)
(0.098587 0.000755168 0)
(0.0964661 0.000645135 0)
(0.0945955 0.000547812 0)
(0.092969 0.000458419 0)
(0.0915837 0.000372881 0)
(0.0904382 0.000288498 0)
(0.0895295 0.000204779 0)
(0.088848 0.000122548 0)
(0.0883731 4.34665e-05 0)
(0.0881008 -2.87779e-05 0)
(0.0880592 -8.06809e-05 0)
(0.0881655 -0.000108174 0)
(0.0883623 -0.000117946 0)
(0.0886094 -0.000116401 0)
(0.0888766 -0.000108043 0)
(0.0891427 -9.62285e-05 0)
(0.0893942 -8.33008e-05 0)
(0.0896235 -7.06996e-05 0)
(0.0898271 -5.91936e-05 0)
(0.0900043 -4.91099e-05 0)
(0.0901562 -4.05091e-05 0)
(0.0902845 -3.3307e-05 0)
(0.090392 -2.73532e-05 0)
(0.090481 -2.24778e-05 0)
(0.0905544 -1.85153e-05 0)
(0.0906145 -1.53128e-05 0)
(0.0906635 -1.27365e-05 0)
(0.0907035 -1.06725e-05 0)
(0.0907362 -9.02456e-06 0)
(0.090763 -7.71174e-06 0)
(0.0907851 -6.66645e-06 0)
(0.0908036 -5.83243e-06 0)
(0.0908192 -5.16328e-06 0)
(0.0908327 -4.62118e-06 0)
(0.0908444 -4.17585e-06 0)
(0.0908548 -3.80345e-06 0)
(0.0908641 -3.48556e-06 0)
(0.0908726 -3.20838e-06 0)
(0.0908803 -2.96178e-06 0)
(0.0908874 -2.73847e-06 0)
(0.0908941 -2.53349e-06 0)
(0.0909002 -2.34354e-06 0)
(0.0909059 -2.16648e-06 0)
(0.0909112 -2.0009e-06 0)
(0.0909162 -1.84588e-06 0)
(0.0909208 -1.70076e-06 0)
(0.090925 -1.56511e-06 0)
(0.090929 -1.43853e-06 0)
(0.0909326 -1.32063e-06 0)
(0.090936 -1.21102e-06 0)
(0.0909392 -1.1093e-06 0)
(0.090942 -1.01504e-06 0)
(0.0909447 -9.27816e-07 0)
(0.0909472 -8.47199e-07 0)
(0.0909494 -7.72758e-07 0)
(0.0909515 -7.04084e-07 0)
(0.0909534 -6.40765e-07 0)
(0.0909552 -5.82451e-07 0)
(0.0909568 -5.28736e-07 0)
(0.0909583 -4.79293e-07 0)
(0.0909596 -4.33793e-07 0)
(0.0909608 -3.91912e-07 0)
(0.0909619 -3.53375e-07 0)
(0.0909629 -3.17894e-07 0)
(0.0909639 -2.85213e-07 0)
(0.0909647 -2.5509e-07 0)
(0.0909654 -2.27282e-07 0)
(0.0909661 -2.01575e-07 0)
(0.0909667 -1.77757e-07 0)
(0.0909672 -1.5563e-07 0)
(0.0909676 -1.34998e-07 0)
(0.090968 -1.15675e-07 0)
(0.0909684 -9.74663e-08 0)
(0.0909686 -8.0162e-08 0)
(0.0909689 -6.35207e-08 0)
(0.090969 -4.72244e-08 0)
(0.0909691 -3.10314e-08 0)
(0.0909692 -1.50247e-08 0)
(0.0909692 1.67977e-09 0)
(0.0909691 5.36709e-08 0)
(0.193827 0.0088744 0)
(0.194611 0.00989737 0)
(0.194809 0.0102777 0)
(0.194239 0.0102975 0)
(0.19299 0.0100798 0)
(0.191181 0.0096705 0)
(0.188909 0.00911333 0)
(0.186261 0.00845704 0)
(0.18333 0.00774708 0)
(0.180206 0.00702209 0)
(0.176966 0.00631304 0)
(0.173678 0.00564271 0)
(0.170396 0.00502558 0)
(0.167164 0.00446864 0)
(0.164014 0.00397283 0)
(0.160972 0.00353475 0)
(0.158058 0.00314835 0)
(0.155284 0.00280636 0)
(0.152663 0.00250127 0)
(0.150205 0.00222595 0)
(0.147917 0.00197388 0)
(0.14581 0.00173916 0)
(0.143893 0.00151645 0)
(0.142176 0.00130115 0)
(0.14067 0.0010899 0)
(0.139381 0.000881384 0)
(0.138311 0.000677065 0)
(0.137458 0.000480996 0)
(0.13681 0.000296922 0)
(0.136338 0.000127469 0)
(0.136002 -1.80185e-05 0)
(0.135845 -0.000124421 0)
(0.135831 -0.000189156 0)
(0.135923 -0.000220688 0)
(0.136089 -0.000228713 0)
(0.136302 -0.000221273 0)
(0.136538 -0.000204587 0)
(0.136782 -0.000183176 0)
(0.13702 -0.000160115 0)
(0.137245 -0.000137365 0)
(0.137451 -0.00011609 0)
(0.137636 -9.69088e-05 0)
(0.137797 -8.0077e-05 0)
(0.137937 -6.56224e-05 0)
(0.138055 -5.3433e-05 0)
(0.138153 -4.33174e-05 0)
(0.138234 -3.50444e-05 0)
(0.1383 -2.83685e-05 0)
(0.138353 -2.3047e-05 0)
(0.138394 -1.88512e-05 0)
(0.138427 -1.55729e-05 0)
(0.138452 -1.30285e-05 0)
(0.138472 -1.10605e-05 0)
(0.138488 -9.53716e-06 0)
(0.1385 -8.35104e-06 0)
(0.138509 -7.41669e-06 0)
(0.138517 -6.66756e-06 0)
(0.138524 -6.05316e-06 0)
(0.138529 -5.53596e-06 0)
(0.138534 -5.08872e-06 0)
(0.138538 -4.6924e-06 0)
(0.138541 -4.33416e-06 0)
(0.138545 -4.00556e-06 0)
(0.138548 -3.70118e-06 0)
(0.138551 -3.41758e-06 0)
(0.138553 -3.15265e-06 0)
(0.138556 -2.90502e-06 0)
(0.138558 -2.67373e-06 0)
(0.13856 -2.458e-06 0)
(0.138562 -2.25711e-06 0)
(0.138564 -2.07035e-06 0)
(0.138566 -1.897e-06 0)
(0.138568 -1.73631e-06 0)
(0.138569 -1.58752e-06 0)
(0.13857 -1.44987e-06 0)
(0.138572 -1.32262e-06 0)
(0.138573 -1.20509e-06 0)
(0.138574 -1.09659e-06 0)
(0.138575 -9.96479e-07 0)
(0.138576 -9.04116e-07 0)
(0.138577 -8.18942e-07 0)
(0.138577 -7.40371e-07 0)
(0.138578 -6.679e-07 0)
(0.138579 -6.01018e-07 0)
(0.138579 -5.39256e-07 0)
(0.13858 -4.82171e-07 0)
(0.13858 -4.29333e-07 0)
(0.138581 -3.80344e-07 0)
(0.138581 -3.3482e-07 0)
(0.138581 -2.92395e-07 0)
(0.138582 -2.52714e-07 0)
(0.138582 -2.15428e-07 0)
(0.138582 -1.80198e-07 0)
(0.138582 -1.46653e-07 0)
(0.138582 -1.14389e-07 0)
(0.138582 -8.29046e-08 0)
(0.138582 -5.20076e-08 0)
(0.138582 -2.15271e-08 0)
(0.138582 1.66827e-08 0)
(0.138582 9.37672e-08 0)
(0.194862 0.00823703 0)
(0.196006 0.00931758 0)
(0.197079 0.00990551 0)
(0.19786 0.0101602 0)
(0.198312 0.0101747 0)
(0.198436 0.00998783 0)
(0.198234 0.00963473 0)
(0.197712 0.00915698 0)
(0.196895 0.008596 0)
(0.19582 0.00798891 0)
(0.194531 0.00736717 0)
(0.193072 0.0067556 0)
(0.191487 0.00617187 0)
(0.189814 0.00562669 0)
(0.188089 0.00512481 0)
(0.186341 0.00466631 0)
(0.184596 0.00424813 0)
(0.182876 0.00386524 0)
(0.181198 0.00351172 0)
(0.179578 0.00318138 0)
(0.178033 0.00286814 0)
(0.176576 0.00256627 0)
(0.175221 0.00227057 0)
(0.173981 0.0019769 0)
(0.172868 0.00168297 0)
(0.171889 0.00138919 0)
(0.171049 0.00109925 0)
(0.170347 0.000819839 0)
(0.169778 0.000559928 0)
(0.169332 0.000328743 0)
(0.168985 0.000130041 0)
(0.16871 -3.14654e-05 0)
(0.168533 -0.000149323 0)
(0.168445 -0.000225688 0)
(0.168434 -0.000268429 0)
(0.168484 -0.000285898 0)
(0.168582 -0.00028536 0)
(0.168714 -0.000272714 0)
(0.168868 -0.000252512 0)
(0.169033 -0.000228125 0)
(0.169201 -0.000201972 0)
(0.169365 -0.000175744 0)
(0.16952 -0.000150582 0)
(0.169662 -0.000127224 0)
(0.16979 -0.000106109 0)
(0.169901 -8.74543e-05 0)
(0.169997 -7.131e-05 0)
(0.170077 -5.76063e-05 0)
(0.170142 -4.61866e-05 0)
(0.170194 -3.68372e-05 0)
(0.170235 -2.93111e-05 0)
(0.170266 -2.33487e-05 0)
(0.170289 -1.86939e-05 0)
(0.170305 -1.51061e-05 0)
(0.170316 -1.23689e-05 0)
(0.170323 -1.02947e-05 0)
(0.170327 -8.72596e-06 0)
(0.170329 -7.53498e-06 0)
(0.17033 -6.62078e-06 0)
(0.170329 -5.90562e-06 0)
(0.170328 -5.33169e-06 0)
(0.170327 -4.85713e-06 0)
(0.170326 -4.45239e-06 0)
(0.170324 -4.09724e-06 0)
(0.170323 -3.77831e-06 0)
(0.170321 -3.48706e-06 0)
(0.17032 -3.21822e-06 0)
(0.170319 -2.96854e-06 0)
(0.170318 -2.73599e-06 0)
(0.170317 -2.5192e-06 0)
(0.170316 -2.31712e-06 0)
(0.170315 -2.12892e-06 0)
(0.170315 -1.95382e-06 0)
(0.170314 -1.79106e-06 0)
(0.170314 -1.63991e-06 0)
(0.170313 -1.4996e-06 0)
(0.170313 -1.36944e-06 0)
(0.170312 -1.24874e-06 0)
(0.170312 -1.13687e-06 0)
(0.170312 -1.03318e-06 0)
(0.170311 -9.37099e-07 0)
(0.170311 -8.48017e-07 0)
(0.170311 -7.65412e-07 0)
(0.170311 -6.88753e-07 0)
(0.170311 -6.1754e-07 0)
(0.17031 -5.51304e-07 0)
(0.17031 -4.89583e-07 0)
(0.17031 -4.31944e-07 0)
(0.17031 -3.7797e-07 0)
(0.17031 -3.27254e-07 0)
(0.17031 -2.794e-07 0)
(0.17031 -2.34014e-07 0)
(0.170309 -1.90729e-07 0)
(0.170309 -1.49166e-07 0)
(0.170309 -1.08982e-07 0)
(0.170309 -6.9869e-08 0)
(0.170309 -3.08641e-08 0)
(0.170309 1.06971e-08 0)
(0.170308 6.56506e-08 0)
(0.170308 1.57369e-07 0)
(0.195597 0.00772963 0)
(0.196606 0.00872564 0)
(0.1977 0.00933855 0)
(0.198715 0.00966296 0)
(0.199598 0.00977319 0)
(0.20033 0.00970424 0)
(0.200887 0.00948279 0)
(0.201248 0.00913998 0)
(0.201405 0.00870864 0)
(0.201364 0.0082197 0)
(0.20114 0.00770054 0)
(0.200753 0.00717395 0)
(0.200228 0.00665724 0)
(0.199592 0.00616204 0)
(0.198868 0.00569472 0)
(0.198081 0.00525729 0)
(0.19725 0.00484852 0)
(0.196393 0.00446504 0)
(0.195527 0.00410217 0)
(0.194665 0.00375467 0)
(0.193821 0.00341715 0)
(0.193005 0.00308446 0)
(0.192227 0.00275215 0)
(0.191498 0.00241703 0)
(0.190823 0.00207812 0)
(0.190209 0.00173735 0)
(0.189656 0.0014 0)
(0.189166 0.00107429 0)
(0.188737 0.000770579 0)
(0.188367 0.000499811 0)
(0.188054 0.000269429 0)
(0.187783 8.08249e-05 0)
(0.18755 -6.58084e-05 0)
(0.187368 -0.000171495 0)
(0.187236 -0.000241342 0)
(0.187152 -0.000282365 0)
(0.18711 -0.000301254 0)
(0.187105 -0.000303745 0)
(0.187129 -0.000294531 0)
(0.187176 -0.000277326 0)
(0.187239 -0.000255014 0)
(0.187312 -0.000229803 0)
(0.187391 -0.000203374 0)
(0.18747 -0.000176992 0)
(0.187547 -0.000151595 0)
(0.187618 -0.000127853 0)
(0.187682 -0.000106217 0)
(0.187738 -8.69538e-05 0)
(0.187784 -7.01745e-05 0)
(0.187822 -5.58645e-05 0)
(0.187851 -4.39098e-05 0)
(0.187873 -3.41236e-05 0)
(0.187887 -2.62716e-05 0)
(0.187896 -2.00941e-05 0)
(0.1879 -1.53266e-05 0)
(0.187901 -1.17141e-05 0)
(0.187898 -9.02309e-06 0)
(0.187894 -7.04908e-06 0)
(0.187888 -5.61874e-06 0)
(0.187882 -4.58967e-06 0)
(0.187875 -3.84983e-06 0)
(0.187868 -3.3141e-06 0)
(0.187861 -2.91934e-06 0)
(0.187854 -2.61997e-06 0)
(0.187848 -2.38404e-06 0)
(0.187842 -2.18988e-06 0)
(0.187837 -2.02329e-06 0)
(0.187832 -1.87536e-06 0)
(0.187827 -1.74067e-06 0)
(0.187823 -1.61605e-06 0)
(0.187819 -1.49968e-06 0)
(0.187815 -1.3904e-06 0)
(0.187812 -1.28752e-06 0)
(0.187809 -1.19056e-06 0)
(0.187806 -1.09917e-06 0)
(0.187804 -1.0131e-06 0)
(0.187802 -9.32018e-07 0)
(0.1878 -8.5558e-07 0)
(0.187798 -7.83565e-07 0)
(0.187796 -7.15675e-07 0)
(0.187795 -6.51688e-07 0)
(0.187793 -5.91313e-07 0)
(0.187792 -5.34306e-07 0)
(0.187791 -4.804e-07 0)
(0.18779 -4.29334e-07 0)
(0.187789 -3.80852e-07 0)
(0.187788 -3.34702e-07 0)
(0.187787 -2.9063e-07 0)
(0.187787 -2.48389e-07 0)
(0.187786 -2.07721e-07 0)
(0.187786 -1.68366e-07 0)
(0.187785 -1.30028e-07 0)
(0.187784 -9.23504e-08 0)
(0.187784 -5.49704e-08 0)
(0.187784 -1.75905e-08 0)
(0.187783 2.02007e-08 0)
(0.187783 5.99902e-08 0)
(0.187782 1.05986e-07 0)
(0.187782 1.6745e-07 0)
(0.187781 2.57301e-07 0)
(0.196222 0.00728686 0)
(0.197062 0.00816904 0)
(0.19802 0.00875844 0)
(0.198979 0.0091041 0)
(0.199888 0.00925949 0)
(0.200725 0.00925488 0)
(0.201467 0.00911246 0)
(0.202093 0.00885715 0)
(0.202589 0.00851592 0)
(0.20295 0.00811485 0)
(0.203178 0.00767746 0)
(0.203284 0.00722374 0)
(0.203278 0.00676942 0)
(0.203177 0.00632558 0)
(0.202997 0.0058989 0)
(0.202753 0.00549221 0)
(0.202459 0.00510534 0)
(0.202128 0.00473603 0)
(0.201771 0.00438063 0)
(0.201397 0.00403477 0)
(0.201014 0.00369386 0)
(0.200628 0.00335353 0)
(0.200246 0.00301014 0)
(0.199871 0.00266146 0)
(0.199505 0.00230743 0)
(0.199149 0.00195083 0)
(0.198804 0.00159752 0)
(0.198469 0.00125601 0)
(0.198146 0.000936541 0)
(0.197837 0.00064963 0)
(0.197546 0.000403605 0)
(0.197276 0.000201332 0)
(0.197023 4.06214e-05 0)
(0.196794 -8.14919e-05 0)
(0.196594 -0.000168964 0)
(0.196425 -0.000227295 0)
(0.196287 -0.000262236 0)
(0.196178 -0.000278951 0)
(0.196095 -0.00028182 0)
(0.196035 -0.000274446 0)
(0.195995 -0.000259745 0)
(0.19597 -0.000240057 0)
(0.195957 -0.000217262 0)
(0.195953 -0.000192866 0)
(0.195955 -0.000168074 0)
(0.19596 -0.000143832 0)
(0.195967 -0.000120865 0)
(0.195974 -9.96987e-05 0)
(0.19598 -8.06799e-05 0)
(0.195983 -6.39973e-05 0)
(0.195984 -4.97029e-05 0)
(0.195982 -3.77367e-05 0)
(0.195977 -2.79514e-05 0)
(0.19597 -2.01388e-05 0)
(0.195961 -1.40535e-05 0)
(0.195951 -9.43446e-06 0)
(0.195939 -6.02145e-06 0)
(0.195927 -3.57009e-06 0)
(0.195914 -1.86561e-06 0)
(0.195901 -7.27568e-07 0)
(0.195889 -6.7275e-09 0)
(0.195877 4.17517e-07 0)
(0.195865 6.39085e-07 0)
(0.195854 7.28211e-07 0)
(0.195844 7.35331e-07 0)
(0.195835 6.95207e-07 0)
(0.195826 6.30773e-07 0)
(0.195818 5.56434e-07 0)
(0.19581 4.8077e-07 0)
(0.195803 4.08547e-07 0)
(0.195797 3.42146e-07 0)
(0.195791 2.82661e-07 0)
(0.195786 2.30359e-07 0)
(0.195781 1.85038e-07 0)
(0.195777 1.46318e-07 0)
(0.195773 1.13636e-07 0)
(0.195769 8.65151e-08 0)
(0.195766 6.45191e-08 0)
(0.195763 4.71132e-08 0)
(0.19576 3.38914e-08 0)
(0.195758 2.44129e-08 0)
(0.195755 1.83483e-08 0)
(0.195753 1.53709e-08 0)
(0.195751 1.52131e-08 0)
(0.19575 1.76451e-08 0)
(0.195748 2.24701e-08 0)
(0.195747 2.95261e-08 0)
(0.195745 3.86878e-08 0)
(0.195744 4.98605e-08 0)
(0.195743 6.29957e-08 0)
(0.195742 7.80795e-08 0)
(0.195741 9.51702e-08 0)
(0.195741 1.14426e-07 0)
(0.19574 1.3608e-07 0)
(0.195739 1.60453e-07 0)
(0.195738 1.88268e-07 0)
(0.195738 2.20886e-07 0)
(0.195737 2.61337e-07 0)
(0.195737 3.15989e-07 0)
(0.195736 3.90039e-07 0)
(0.196768 0.00690301 0)
(0.197471 0.00767665 0)
(0.198289 0.00822811 0)
(0.19914 0.00857564 0)
(0.199977 0.00875368 0)
(0.200774 0.00878701 0)
(0.201512 0.00869504 0)
(0.202173 0.00849876 0)
(0.202744 0.008221 0)
(0.203218 0.00788415 0)
(0.203596 0.0075086 0)
(0.203881 0.00711189 0)
(0.204082 0.00670809 0)
(0.204207 0.00630749 0)
(0.204268 0.00591667 0)
(0.204276 0.00553889 0)
(0.20424 0.00517472 0)
(0.204168 0.00482277 0)
(0.204069 0.00448027 0)
(0.203948 0.00414372 0)
(0.203809 0.00380932 0)
(0.203656 0.00347349 0)
(0.203489 0.00313338 0)
(0.203309 0.0027875 0)
(0.203115 0.00243635 0)
(0.202906 0.00208299 0)
(0.20268 0.00173313 0)
(0.202437 0.00139475 0)
(0.202179 0.00107719 0)
(0.201909 0.000789771 0)
(0.201635 0.000539985 0)
(0.201363 0.00033147 0)
(0.2011 0.000163205 0)
(0.200848 3.16631e-05 0)
(0.200613 -6.7223e-05 0)
(0.200399 -0.00013795 0)
(0.200206 -0.000185344 0)
(0.200036 -0.000213956 0)
(0.199887 -0.000227777 0)
(0.199758 -0.00023018 0)
(0.199648 -0.000223977 0)
(0.199554 -0.000211491 0)
(0.199474 -0.000194645 0)
(0.199407 -0.000175026 0)
(0.199349 -0.000153949 0)
(0.1993 -0.000132488 0)
(0.199258 -0.000111505 0)
(0.199222 -9.16667e-05 0)
(0.19919 -7.34591e-05 0)
(0.199161 -5.72016e-05 0)
(0.199134 -4.30651e-05 0)
(0.199109 -3.10924e-05 0)
(0.199086 -2.12211e-05 0)
(0.199063 -1.33075e-05 0)
(0.199042 -7.15019e-06 0)
(0.199021 -2.51578e-06 0)
(0.199001 8.38127e-07 0)
(0.198981 3.14888e-06 0)
(0.198963 4.63604e-06 0)
(0.198945 5.49293e-06 0)
(0.198929 5.88569e-06 0)
(0.198913 5.95235e-06 0)
(0.198899 5.80223e-06 0)
(0.198885 5.51787e-06 0)
(0.198872 5.15873e-06 0)
(0.198861 4.76569e-06 0)
(0.19885 4.36552e-06 0)
(0.19884 3.97482e-06 0)
(0.198831 3.60325e-06 0)
(0.198822 3.25584e-06 0)
(0.198815 2.93475e-06 0)
(0.198807 2.64033e-06 0)
(0.198801 2.3719e-06 0)
(0.198795 2.12825e-06 0)
(0.19879 1.90787e-06 0)
(0.198785 1.70922e-06 0)
(0.19878 1.53065e-06 0)
(0.198776 1.37059e-06 0)
(0.198772 1.22752e-06 0)
(0.198769 1.10006e-06 0)
(0.198766 9.86889e-07 0)
(0.198763 8.86822e-07 0)
(0.19876 7.9875e-07 0)
(0.198758 7.21671e-07 0)
(0.198756 6.54677e-07 0)
(0.198754 5.9695e-07 0)
(0.198752 5.47756e-07 0)
(0.198751 5.06455e-07 0)
(0.198749 4.72481e-07 0)
(0.198748 4.4536e-07 0)
(0.198747 4.24696e-07 0)
(0.198746 4.10191e-07 0)
(0.198745 4.01609e-07 0)
(0.198744 3.98863e-07 0)
(0.198743 4.02073e-07 0)
(0.198742 4.11703e-07 0)
(0.198741 4.28768e-07 0)
(0.198741 4.55492e-07 0)
(0.19874 4.95678e-07 0)
(0.198739 5.48486e-07 0)
(0.197248 0.00656806 0)
(0.197844 0.00724377 0)
(0.198543 0.00775022 0)
(0.199288 0.00808802 0)
(0.200037 0.00827689 0)
(0.200764 0.00833568 0)
(0.20145 0.00828086 0)
(0.202078 0.00813002 0)
(0.202638 0.00790232 0)
(0.203123 0.00761692 0)
(0.203532 0.00729155 0)
(0.203867 0.00694165 0)
(0.204133 0.00657988 0)
(0.204338 0.00621579 0)
(0.204489 0.00585581 0)
(0.204596 0.00550353 0)
(0.204664 0.00516015 0)
(0.204701 0.00482504 0)
(0.204713 0.00449632 0)
(0.204701 0.00417129 0)
(0.20467 0.003847 0)
(0.20462 0.00352065 0)
(0.204551 0.00319013 0)
(0.204461 0.00285451 0)
(0.204347 0.00251465 0)
(0.204209 0.00217353 0)
(0.204043 0.00183637 0)
(0.203849 0.00151023 0)
(0.203629 0.00120321 0)
(0.203387 0.000923306 0)
(0.20313 0.000676953 0)
(0.202865 0.000467642 0)
(0.202601 0.000295405 0)
(0.202344 0.000157706 0)
(0.202097 5.07938e-05 0)
(0.201865 -2.93707e-05 0)
(0.201649 -8.68341e-05 0)
(0.201451 -0.000125569 0)
(0.201271 -0.000149183 0)
(0.201108 -0.0001608 0)
(0.200963 -0.000163087 0)
(0.200833 -0.000158296 0)
(0.200717 -0.000148327 0)
(0.200615 -0.000134781 0)
(0.200525 -0.000119004 0)
(0.200445 -0.000102119 0)
(0.200375 -8.50452e-05 0)
(0.200313 -6.85117e-05 0)
(0.200258 -5.30721e-05 0)
(0.200209 -3.91154e-05 0)
(0.200165 -2.68816e-05 0)
(0.200126 -1.64799e-05 0)
(0.20009 -7.90972e-06 0)
(0.200058 -1.08529e-06 0)
(0.200029 4.14238e-06 0)
(0.200001 7.96264e-06 0)
(0.199976 1.05829e-05 0)
(0.199953 1.2214e-05 0)
(0.199931 1.30608e-05 0)
(0.199911 1.33125e-05 0)
(0.199892 1.31335e-05 0)
(0.199875 1.26595e-05 0)
(0.199859 1.19978e-05 0)
(0.199844 1.12295e-05 0)
(0.19983 1.04133e-05 0)
(0.199817 9.58989e-06 0)
(0.199805 8.78602e-06 0)
(0.199794 8.01815e-06 0)
(0.199784 7.29557e-06 0)
(0.199775 6.62269e-06 0)
(0.199767 6.00075e-06 0)
(0.199759 5.42902e-06 0)
(0.199752 4.9056e-06 0)
(0.199745 4.42798e-06 0)
(0.199739 3.99333e-06 0)
(0.199734 3.59874e-06 0)
(0.199729 3.24124e-06 0)
(0.199725 2.91804e-06 0)
(0.19972 2.6264e-06 0)
(0.199717 2.36384e-06 0)
(0.199713 2.12795e-06 0)
(0.19971 1.91655e-06 0)
(0.199707 1.72761e-06 0)
(0.199705 1.55926e-06 0)
(0.199703 1.4098e-06 0)
(0.1997 1.27768e-06 0)
(0.199699 1.1615e-06 0)
(0.199697 1.05998e-06 0)
(0.199695 9.72e-07 0)
(0.199694 8.96562e-07 0)
(0.199693 8.32797e-07 0)
(0.199691 7.79978e-07 0)
(0.19969 7.37491e-07 0)
(0.199689 7.04902e-07 0)
(0.199688 6.82005e-07 0)
(0.199688 6.68913e-07 0)
(0.199687 6.66214e-07 0)
(0.199686 6.75212e-07 0)
(0.199685 6.97429e-07 0)
(0.199685 7.27971e-07 0)
(0.197669 0.00627027 0)
(0.198181 0.00685956 0)
(0.198782 0.00731891 0)
(0.199432 0.00764027 0)
(0.200098 0.00783291 0)
(0.200754 0.00790989 0)
(0.201379 0.00788444 0)
(0.201961 0.00777098 0)
(0.202487 0.0075854 0)
(0.202952 0.00734391 0)
(0.203354 0.00706183 0)
(0.203693 0.00675274 0)
(0.203974 0.00642801 0)
(0.204202 0.00609648 0)
(0.204382 0.0057644 0)
(0.204523 0.00543557 0)
(0.204629 0.00511173 0)
(0.204706 0.00479296 0)
(0.204758 0.00447815 0)
(0.204788 0.00416542 0)
(0.204798 0.00385263 0)
(0.204787 0.00353773 0)
(0.204755 0.00321926 0)
(0.2047 0.00289677 0)
(0.20462 0.00257131 0)
(0.204512 0.00224568 0)
(0.204375 0.00192448 0)
(0.204207 0.00161378 0)
(0.204011 0.00132046 0)
(0.20379 0.00105124 0)
(0.203551 0.00081159 0)
(0.2033 0.000604689 0)
(0.203045 0.000431046 0)
(0.202793 0.000289039 0)
(0.202549 0.000175835 0)
(0.202316 8.79963e-05 0)
(0.202096 2.19056e-05 0)
(0.201891 -2.58816e-05 0)
(0.201701 -5.85293e-05 0)
(0.201527 -7.89095e-05 0)
(0.201369 -8.95283e-05 0)
(0.201225 -9.25414e-05 0)
(0.201096 -8.97966e-05 0)
(0.20098 -8.28725e-05 0)
(0.200876 -7.31109e-05 0)
(0.200783 -6.16419e-05 0)
(0.2007 -4.94007e-05 0)
(0.200627 -3.71414e-05 0)
(0.200562 -2.54481e-05 0)
(0.200504 -1.47467e-05 0)
(0.200453 -5.3209e-06 0)
(0.200407 2.67246e-06 0)
(0.200366 9.18466e-06 0)
(0.200329 1.42526e-05 0)
(0.200296 1.79755e-05 0)
(0.200266 2.0497e-05 0)
(0.200238 2.19885e-05 0)
(0.200213 2.26324e-05 0)
(0.20019 2.2608e-05 0)
(0.200169 2.20814e-05 0)
(0.200149 2.11978e-05 0)
(0.200131 2.00788e-05 0)
(0.200114 1.88215e-05 0)
(0.200099 1.75003e-05 0)
(0.200084 1.61693e-05 0)
(0.200071 1.48663e-05 0)
(0.200059 1.36159e-05 0)
(0.200047 1.24331e-05 0)
(0.200037 1.13257e-05 0)
(0.200027 1.02968e-05 0)
(0.200019 9.34631e-06 0)
(0.200011 8.47195e-06 0)
(0.200003 7.6704e-06 0)
(0.199997 6.93764e-06 0)
(0.199991 6.26932e-06 0)
(0.199985 5.66105e-06 0)
(0.19998 5.10844e-06 0)
(0.199975 4.60731e-06 0)
(0.199971 4.15363e-06 0)
(0.199967 3.74365e-06 0)
(0.199964 3.37383e-06 0)
(0.19996 3.0409e-06 0)
(0.199957 2.74181e-06 0)
(0.199955 2.47376e-06 0)
(0.199952 2.2342e-06 0)
(0.19995 2.02076e-06 0)
(0.199948 1.83129e-06 0)
(0.199947 1.66387e-06 0)
(0.199945 1.51673e-06 0)
(0.199943 1.38833e-06 0)
(0.199942 1.27727e-06 0)
(0.199941 1.18235e-06 0)
(0.19994 1.10255e-06 0)
(0.199939 1.03703e-06 0)
(0.199938 9.85211e-07 0)
(0.199937 9.46823e-07 0)
(0.199936 9.21949e-07 0)
(0.199935 9.10992e-07 0)
(0.199935 9.13754e-07 0)
(0.199934 9.23289e-07 0)
(0.19804 0.00600144 0)
(0.198485 0.00651583 0)
(0.199004 0.00692932 0)
(0.199572 0.0072305 0)
(0.200162 0.00742179 0)
(0.20075 0.00751129 0)
(0.201318 0.00750908 0)
(0.20185 0.00742671 0)
(0.202339 0.00727719 0)
(0.202776 0.00707407 0)
(0.20316 0.00683044 0)
(0.20349 0.00655816 0)
(0.203769 0.00626735 0)
(0.204 0.00596612 0)
(0.204189 0.00566044 0)
(0.204341 0.00535424 0)
(0.20446 0.00504965 0)
(0.204551 0.00474734 0)
(0.204617 0.00444688 0)
(0.204661 0.00414715 0)
(0.204684 0.00384672 0)
(0.204687 0.00354423 0)
(0.204668 0.00323879 0)
(0.204625 0.00293034 0)
(0.204558 0.00262006 0)
(0.204463 0.00231053 0)
(0.20434 0.00200574 0)
(0.204188 0.00171087 0)
(0.204009 0.0014317 0)
(0.203806 0.00117386 0)
(0.203584 0.000941964 0)
(0.20335 0.000738887 0)
(0.20311 0.000565417 0)
(0.202871 0.000420582 0)
(0.202636 0.000302265 0)
(0.20241 0.000207733 0)
(0.202195 0.000133992 0)
(0.201993 7.8019e-05 0)
(0.201805 3.69569e-05 0)
(0.201631 8.209e-06 0)
(0.201471 -1.05296e-05 0)
(0.201326 -2.12868e-05 0)
(0.201193 -2.58322e-05 0)
(0.201074 -2.56986e-05 0)
(0.200966 -2.22032e-05 0)
(0.200869 -1.64652e-05 0)
(0.200783 -9.41989e-06 0)
(0.200706 -1.82948e-06 0)
(0.200637 5.70599e-06 0)
(0.200577 1.27372e-05 0)
(0.200522 1.89521e-05 0)
(0.200474 2.41579e-05 0)
(0.200431 2.82634e-05 0)
(0.200393 3.12603e-05 0)
(0.200358 3.32055e-05 0)
(0.200327 3.42016e-05 0)
(0.200298 3.43804e-05 0)
(0.200272 3.3887e-05 0)
(0.200248 3.28676e-05 0)
(0.200227 3.14604e-05 0)
(0.200207 2.97885e-05 0)
(0.200188 2.79561e-05 0)
(0.200171 2.60473e-05 0)
(0.200155 2.41271e-05 0)
(0.200141 2.22429e-05 0)
(0.200127 2.04277e-05 0)
(0.200115 1.87027e-05 0)
(0.200104 1.70803e-05 0)
(0.200093 1.55663e-05 0)
(0.200084 1.41618e-05 0)
(0.200075 1.28651e-05 0)
(0.200067 1.16721e-05 0)
(0.200059 1.05779e-05 0)
(0.200053 9.57678e-06 0)
(0.200046 8.66273e-06 0)
(0.200041 7.82978e-06 0)
(0.200036 7.07202e-06 0)
(0.200031 6.38381e-06 0)
(0.200027 5.75974e-06 0)
(0.200023 5.19476e-06 0)
(0.200019 4.68411e-06 0)
(0.200016 4.22337e-06 0)
(0.200013 3.80844e-06 0)
(0.20001 3.43554e-06 0)
(0.200008 3.10118e-06 0)
(0.200006 2.80217e-06 0)
(0.200004 2.5356e-06 0)
(0.200002 2.2988e-06 0)
(0.2 2.08939e-06 0)
(0.199999 1.9052e-06 0)
(0.199998 1.74431e-06 0)
(0.199996 1.60501e-06 0)
(0.199995 1.48583e-06 0)
(0.199994 1.38553e-06 0)
(0.199993 1.30312e-06 0)
(0.199992 1.23791e-06 0)
(0.199992 1.18946e-06 0)
(0.199991 1.1574e-06 0)
(0.19999 1.14035e-06 0)
(0.199989 1.13088e-06 0)
(0.198367 0.005756 0)
(0.198756 0.00620604 0)
(0.199208 0.00657662 0)
(0.199705 0.00685579 0)
(0.200227 0.00704192 0)
(0.200753 0.0071393 0)
(0.201266 0.00715515 0)
(0.201752 0.00709854 0)
(0.202202 0.00697991 0)
(0.202611 0.00681046 0)
(0.202973 0.00660124 0)
(0.20329 0.00636248 0)
(0.203561 0.00610311 0)
(0.203789 0.00583048 0)
(0.203978 0.00555021 0)
(0.204133 0.00526624 0)
(0.204256 0.00498095 0)
(0.204352 0.00469548 0)
(0.204424 0.00440999 0)
(0.204473 0.00412398 0)
(0.204501 0.00383665 0)
(0.204508 0.00354723 0)
(0.204493 0.0032553 0)
(0.204456 0.00296114 0)
(0.204394 0.00266599 0)
(0.204307 0.00237223 0)
(0.204193 0.00208333 0)
(0.204052 0.00180368 0)
(0.203887 0.00153813 0)
(0.2037 0.00129139 0)
(0.203495 0.0010674 0)
(0.203278 0.000868714 0)
(0.203054 0.000696294 0)
(0.202829 0.000549649 0)
(0.202607 0.000427258 0)
(0.202392 0.000326976 0)
(0.202187 0.000246337 0)
(0.201992 0.000182784 0)
(0.20181 0.000133822 0)
(0.20164 9.71255e-05 0)
(0.201484 7.05722e-05 0)
(0.20134 5.22639e-05 0)
(0.20121 4.0523e-05 0)
(0.201091 3.38807e-05 0)
(0.200983 3.10627e-05 0)
(0.200887 3.09767e-05 0)
(0.2008 3.2702e-05 0)
(0.200723 3.54793e-05 0)
(0.200653 3.87012e-05 0)
(0.200592 4.19013e-05 0)
(0.200537 4.47411e-05 0)
(0.200488 4.69956e-05 0)
(0.200444 4.85375e-05 0)
(0.200405 4.93195e-05 0)
(0.20037 4.93566e-05 0)
(0.200338 4.87099e-05 0)
(0.200309 4.74704e-05 0)
(0.200283 4.57462e-05 0)
(0.200259 4.36506e-05 0)
(0.200237 4.12935e-05 0)
(0.200217 3.87746e-05 0)
(0.200198 3.61792e-05 0)
(0.200181 3.35773e-05 0)
(0.200165 3.10229e-05 0)
(0.200151 2.85557e-05 0)
(0.200137 2.62029e-05 0)
(0.200125 2.39814e-05 0)
(0.200114 2.19004e-05 0)
(0.200103 1.99629e-05 0)
(0.200094 1.8168e-05 0)
(0.200085 1.65117e-05 0)
(0.200077 1.49882e-05 0)
(0.200069 1.35905e-05 0)
(0.200063 1.23111e-05 0)
(0.200057 1.11424e-05 0)
(0.200051 1.00766e-05 0)
(0.200046 9.10627e-06 0)
(0.200041 8.22424e-06 0)
(0.200037 7.42364e-06 0)
(0.200033 6.69809e-06 0)
(0.20003 6.04153e-06 0)
(0.200026 5.44839e-06 0)
(0.200024 4.91344e-06 0)
(0.200021 4.4319e-06 0)
(0.200018 3.99933e-06 0)
(0.200016 3.61166e-06 0)
(0.200014 3.26519e-06 0)
(0.200013 2.9565e-06 0)
(0.200011 2.68254e-06 0)
(0.200009 2.44053e-06 0)
(0.200008 2.22797e-06 0)
(0.200007 2.04266e-06 0)
(0.200006 1.88263e-06 0)
(0.200005 1.74622e-06 0)
(0.200004 1.63203e-06 0)
(0.200003 1.53892e-06 0)
(0.200002 1.46597e-06 0)
(0.200001 1.41214e-06 0)
(0.200001 1.37535e-06 0)
(0.2 1.34857e-06 0)
(0.198654 0.00553002 0)
(0.198998 0.00592495 0)
(0.199393 0.00625632 0)
(0.199829 0.00651307 0)
(0.200291 0.00669144 0)
(0.20076 0.00679298 0)
(0.201222 0.00682257 0)
(0.201664 0.00678705 0)
(0.202077 0.00669473 0)
(0.202456 0.00655469 0)
(0.202797 0.00637616 0)
(0.203097 0.00616786 0)
(0.203358 0.0059376 0)
(0.20358 0.00569196 0)
(0.203767 0.00543614 0)
(0.203921 0.00517399 0)
(0.204046 0.00490806 0)
(0.204144 0.00463981 0)
(0.204218 0.00436985 0)
(0.204269 0.00409821 0)
(0.204299 0.00382461 0)
(0.204308 0.00354876 0)
(0.204296 0.00327065 0)
(0.204261 0.00299082 0)
(0.204203 0.00271054 0)
(0.204121 0.00243199 0)
(0.204015 0.0021582 0)
(0.203885 0.00189291 0)
(0.203732 0.00164021 0)
(0.203559 0.00140404 0)
(0.203369 0.00118778 0)
(0.203168 0.000993701 0)
(0.202961 0.000822869 0)
(0.202751 0.000675144 0)
(0.202543 0.00054949 0)
(0.20234 0.000444267 0)
(0.202145 0.000357488 0)
(0.20196 0.000287013 0)
(0.201785 0.000230688 0)
(0.201622 0.000186454 0)
(0.201471 0.000152396 0)
(0.201331 0.000126766 0)
(0.201204 0.000107995 0)
(0.201087 9.46889e-05 0)
(0.200982 8.56258e-05 0)
(0.200887 7.97472e-05 0)
(0.200801 7.61518e-05 0)
(0.200724 7.40881e-05 0)
(0.200655 7.29464e-05 0)
(0.200594 7.2248e-05 0)
(0.200539 7.16347e-05 0)
(0.200489 7.08542e-05 0)
(0.200446 6.97459e-05 0)
(0.200406 6.8225e-05 0)
(0.200371 6.62671e-05 0)
(0.200339 6.38934e-05 0)
(0.20031 6.11568e-05 0)
(0.200283 5.81294e-05 0)
(0.200259 5.48924e-05 0)
(0.200237 5.15275e-05 0)
(0.200217 4.81108e-05 0)
(0.200198 4.47088e-05 0)
(0.200181 4.13764e-05 0)
(0.200166 3.81561e-05 0)
(0.200151 3.50789e-05 0)