/*--------------------------------*- C++ -*----------------------------------*\
| =========                 |                                                 |
| \\      /  F ield         | OpenFOAM: The Open Source CFD Toolbox           |
|  \\    /   O peration     | Version:  2.3.0                                 |
|   \\  /    A nd           | Web:      www.OpenFOAM.org                      |
|    \\/     M anipulation  |                                                 |
\*---------------------------------------------------------------------------*/
FoamFile
{
    version     2.0;
    format      ascii;
    class       surfaceScalarField;
    location    "0.1";
    object      phi;
}
// * * * * * * * * * * * * * * * * * * * * * * * * * * * * * * * * * * * * * //

dimensions      [0 3 -1 0 0 0 0];

internalField   nonuniform List<scalar> 
3203
(
3.9525e-08
3.66589e-09
-4.31909e-08
3.50873e-08
4.43772e-09
3.06632e-08
4.42414e-09
2.63858e-08
4.27741e-09
2.23841e-08
4.00162e-09
1.88551e-08
3.52906e-09
1.59519e-08
2.90319e-09
1.3722e-08
2.22994e-09
1.21232e-08
1.59877e-09
1.10437e-08
1.07953e-09
1.03617e-08
6.81931e-10
9.94657e-09
4.15158e-10
9.68541e-09
2.61156e-10
9.52774e-09
1.57675e-10
9.45541e-09
7.23242e-11
9.43656e-09
1.88549e-11
9.44094e-09
-4.38148e-12
9.46069e-09
-1.97531e-11
9.49747e-09
-3.6782e-11
9.54733e-09
-4.98588e-11
9.60099e-09
-5.36524e-11
9.6505e-09
-4.95166e-11
9.69154e-09
-4.10424e-11
9.72295e-09
-3.14066e-11
9.74571e-09
-2.27554e-11
9.76187e-09
-1.61662e-11
9.7735e-09
-1.16271e-11
9.78216e-09
-8.66085e-12
9.78893e-09
-6.76515e-12
9.79446e-09
-5.53755e-12
9.79916e-09
-4.69947e-12
9.80324e-09
-4.07659e-12
9.80681e-09
-3.57473e-12
9.80996e-09
-3.14942e-12
9.81274e-09
-2.77846e-12
9.81519e-09
-2.45034e-12
9.81735e-09
-2.15857e-12
9.81925e-09
-1.89905e-12
9.82092e-09
-1.66812e-12
9.82238e-09
-1.46311e-12
9.82366e-09
-1.28105e-12
9.82478e-09
-1.11995e-12
9.82576e-09
-9.76689e-13
9.82661e-09
-8.51e-13
9.82735e-09
-7.38591e-13
9.82799e-09
-6.41212e-13
9.82854e-09
-5.52874e-13
9.82902e-09
-4.77952e-13
9.82943e-09
-4.0877e-13
9.82978e-09
-3.50935e-13
9.83008e-09
-2.97102e-13
9.83033e-09
-2.51586e-13
9.83054e-09
-2.10109e-13
9.83071e-09
-1.73023e-13
9.83085e-09
-1.41552e-13
9.83096e-09
-1.09152e-13
9.83105e-09
-8.60192e-14
9.83111e-09
-5.63842e-14
9.83115e-09
-4.013e-14
-1.12556e-14
4.66891e-08
3.42474e-09
-4.6448e-08
4.64606e-08
4.66624e-09
4.56683e-08
5.21645e-09
4.44565e-08
5.48925e-09
4.29135e-08
5.54456e-09
4.11611e-08
5.28143e-09
3.93236e-08
4.74073e-09
3.7486e-08
4.06751e-09
3.57106e-08
3.37419e-09
3.40831e-08
2.70698e-09
3.26611e-08
2.104e-09
3.14517e-08
1.62456e-09
3.04409e-08
1.27193e-09
2.96208e-08
9.77773e-10
2.89886e-08
7.04508e-10
2.85311e-08
4.76362e-10
2.82284e-08
2.98285e-10
2.80584e-08
1.50259e-10
2.7995e-08
2.66934e-11
2.80072e-08
-6.20939e-11
2.80632e-08
-1.09693e-10
2.81364e-08
-1.22704e-10
2.8208e-08
-1.12675e-10
2.82681e-08
-9.14709e-11
2.83136e-08
-6.82437e-11
2.83458e-08
-4.83394e-11
2.83677e-08
-3.3523e-11
2.83825e-08
-2.34411e-11
2.83926e-08
-1.69621e-11
2.84e-08
-1.29015e-11
2.84056e-08
-1.03344e-11
2.84102e-08
-8.61835e-12
2.8414e-08
-7.37614e-12
2.84172e-08
-6.40833e-12
2.84201e-08
-5.61055e-12
2.84226e-08
-4.92922e-12
2.84247e-08
-4.33593e-12
2.84267e-08
-3.81486e-12
2.84283e-08
-3.35457e-12
2.84298e-08
-2.94762e-12
2.84311e-08
-2.58709e-12
2.84323e-08
-2.26788e-12
2.84333e-08
-1.98381e-12
2.84342e-08
-1.73415e-12
2.84349e-08
-1.50991e-12
2.84356e-08
-1.31577e-12
2.84362e-08
-1.13729e-12
2.84367e-08
-9.87849e-13
2.84371e-08
-8.44946e-13
2.84375e-08
-7.30473e-13
2.84378e-08
-6.15424e-13
2.84381e-08
-5.26566e-13
2.84383e-08
-4.34081e-13
2.84385e-08
-3.62126e-13
2.84387e-08
-2.8954e-13
2.84388e-08
-2.23106e-13
2.84389e-08
-1.72975e-13
2.84389e-08
-1.01275e-13
2.8439e-08
-7.25495e-14
1.36071e-15
4.93491e-08
3.29133e-09
-4.92156e-08
4.97744e-08
4.2409e-09
5.00735e-08
4.91738e-09
5.02081e-08
5.35463e-09
5.01108e-08
5.64182e-09
4.9795e-08
5.59728e-09
4.93384e-08
5.19734e-09
4.87759e-08
4.62998e-09
4.80883e-08
4.06178e-09
4.73059e-08
3.48938e-09
4.65017e-08
2.90823e-09
4.57271e-08
2.39915e-09
4.50043e-08
1.99474e-09
4.43471e-08
1.63502e-09
4.37666e-08
1.28498e-09
4.32739e-08
9.69083e-10
4.28738e-08
6.9835e-10
4.25653e-08
4.5879e-10
4.23432e-08
2.48825e-10
4.21994e-08
8.17027e-11
4.21231e-08
-3.34774e-11
4.20995e-08
-9.90414e-11
4.21105e-08
-1.23674e-10
4.2139e-08
-1.20029e-10
4.21719e-08
-1.01149e-10
4.22012e-08
-7.76111e-11
4.22235e-08
-5.58148e-11
4.22386e-08
-3.85457e-11
4.22479e-08
-2.62079e-11
4.2253e-08
-1.80197e-11
4.22555e-08
-1.28537e-11
4.22565e-08
-9.63875e-12
4.22567e-08
-7.60266e-12
4.22566e-08
-6.25319e-12
4.22563e-08
-5.29753e-12
4.22559e-08
-4.57267e-12
4.22556e-08
-3.99064e-12
4.22553e-08
-3.50507e-12
4.2255e-08
-3.0887e-12
4.22548e-08
-2.7267e-12
4.22546e-08
-2.40848e-12
4.22545e-08
-2.12748e-12
4.22543e-08
-1.87531e-12
4.22543e-08
-1.65476e-12
4.22542e-08
-1.45092e-12
4.22542e-08
-1.27861e-12
4.22541e-08
-1.10909e-12
4.22541e-08
-9.76877e-13
4.22541e-08
-8.3273e-13
4.22541e-08
-7.32355e-13
4.22541e-08
-6.08628e-13
4.22541e-08
-5.30051e-13
4.22541e-08
-4.24551e-13
4.22541e-08
-3.57697e-13
4.22541e-08
-2.71788e-13
4.22541e-08
-1.99464e-13
4.2254e-08
-1.43833e-13
4.2254e-08
-5.10369e-14
4.22539e-08
-2.29954e-14
8.09159e-14
5.21278e-08
3.19674e-09
-5.20333e-08
5.2444e-08
3.92474e-09
5.28313e-08
4.53007e-09
5.32001e-08
4.98579e-09
5.34894e-08
5.35259e-09
5.3661e-08
5.42561e-09
5.3753e-08
5.10542e-09
5.37848e-08
4.59815e-09
5.37171e-08
4.12943e-09
5.35294e-08
3.67706e-09
5.32577e-08
3.17994e-09
5.29545e-08
2.70238e-09
5.26503e-08
2.29895e-09
5.23497e-08
1.93561e-09
5.20521e-08
1.58254e-09
5.1768e-08
1.25323e-09
5.15101e-08
9.56225e-10
5.12841e-08
6.8486e-10
5.10897e-08
4.43213e-10
5.09273e-08
2.44081e-10
5.07998e-08
9.40128e-11
5.07091e-08
-8.33229e-12
5.06526e-08
-6.72022e-11
5.06235e-08
-9.09606e-11
5.06128e-08
-9.03546e-11
5.06116e-08
-7.64602e-11
5.06137e-08
-5.79247e-11
5.06154e-08
-4.02057e-11
5.06151e-08
-2.59605e-11
5.06129e-08
-1.57618e-11
5.06091e-08
-9.12863e-12
5.06046e-08
-5.09854e-12
5.05998e-08
-2.79138e-12
5.05951e-08
-1.53793e-12
5.05907e-08
-8.87843e-13
5.05867e-08
-5.66967e-13
5.05831e-08
-4.18428e-13
5.05799e-08
-3.57619e-13
5.05772e-08
-3.38084e-13
5.05748e-08
-3.37875e-13
5.05727e-08
-3.42534e-13
5.0571e-08
-3.49396e-13
5.05694e-08
-3.47428e-13
5.05681e-08
-3.50064e-13
5.0567e-08
-3.33157e-13
5.05661e-08
-3.32916e-13
5.05652e-08
-2.976e-13
5.05646e-08
-2.98059e-13
5.0564e-08
-2.46431e-13
5.05635e-08
-2.46989e-13
5.05631e-08
-1.85652e-13
5.05627e-08
-1.80986e-13
5.05624e-08
-1.16455e-13
5.05622e-08
-1.01273e-13
5.05619e-08
-4.15311e-14
5.05617e-08
2.06927e-16
5.05616e-08
3.70138e-14
5.05614e-08
1.17085e-13
5.05612e-08
1.3557e-13
2.40161e-13
5.50061e-08
3.07445e-09
-5.48838e-08
5.52457e-08
3.68515e-09
5.55674e-08
4.20839e-09
5.59158e-08
4.63733e-09
5.62539e-08
5.01448e-09
5.654e-08
5.1395e-09
5.67706e-08
4.87488e-09
5.69498e-08
4.41893e-09
5.70616e-08
4.01761e-09
5.70915e-08
3.64714e-09
5.70519e-08
3.21956e-09
5.6973e-08
2.78135e-09
5.68813e-08
2.39055e-09
5.678e-08
2.03692e-09
5.66609e-08
1.70171e-09
5.6527e-08
1.38712e-09
5.63899e-08
1.0933e-09
5.6256e-08
8.18731e-10
5.61258e-08
5.73411e-10
5.60005e-08
3.69398e-10
5.58848e-08
2.09753e-10
5.57842e-08
9.22465e-11
5.5703e-08
1.396e-11
5.5642e-08
-2.99668e-11
5.55988e-08
-4.70683e-11
5.55689e-08
-4.66002e-11
5.55479e-08
-3.69597e-11
5.55321e-08
-2.44043e-11
5.5519e-08
-1.28531e-11
5.55073e-08
-4.03956e-12
5.54964e-08
1.7666e-12
5.54862e-08
5.08575e-12
5.54768e-08
6.64034e-12
5.54682e-08
7.07495e-12
5.54604e-08
6.87081e-12
5.54535e-08
6.34363e-12
5.54474e-08
5.68309e-12
5.54421e-08
4.99373e-12
5.54374e-08
4.33146e-12
5.54333e-08
3.71935e-12
5.54298e-08
3.17213e-12
5.54268e-08
2.6836e-12
5.54242e-08
2.26681e-12
5.54219e-08
1.89151e-12
5.542e-08
1.59358e-12
5.54184e-08
1.30679e-12
5.54169e-08
1.11166e-12
5.54158e-08
8.90963e-13
5.54147e-08
7.77449e-13
5.54139e-08
6.10993e-13
5.54131e-08
5.54282e-13
5.54125e-08
4.38038e-13
5.5412e-08
4.19068e-13
5.54115e-08
3.48196e-13
5.54111e-08
3.51479e-13
5.54108e-08
3.34005e-13
5.54105e-08
3.3567e-13
5.54102e-08
3.76035e-13
5.541e-08
3.79773e-13
4.60025e-13
5.79711e-08
2.93697e-09
-5.78337e-08
5.81835e-08
3.47279e-09
5.8454e-08
3.93785e-09
5.87573e-08
4.33406e-09
5.90819e-08
4.68986e-09
5.93869e-08
4.83457e-09
5.96426e-08
4.61916e-09
5.98353e-08
4.2262e-09
5.99685e-08
3.88443e-09
6.00506e-08
3.56504e-09
6.0086e-08
3.18418e-09
6.00846e-08
2.78277e-09
6.00625e-08
2.41261e-09
6.00279e-08
2.07158e-09
5.99766e-08
1.75295e-09
5.99071e-08
1.45662e-09
5.98251e-08
1.17535e-09
5.97356e-08
9.08217e-10
5.96404e-08
6.6854e-10
5.95417e-08
4.68191e-10
5.94432e-08
3.08178e-10
5.93503e-08
1.85137e-10
5.92674e-08
9.68758e-11
5.91971e-08
4.03723e-11
5.914e-08
1.00233e-11
5.9095e-08
-1.57941e-12
5.90599e-08
-1.8509e-12
5.90322e-08
3.28954e-12
5.90097e-08
9.58607e-12
5.8991e-08
1.47366e-11
5.89748e-08
1.79339e-11
5.89606e-08
1.92637e-11
5.89481e-08
1.91811e-11
5.8937e-08
1.81875e-11
5.89271e-08
1.66975e-11
5.89185e-08
1.5001e-11
5.89109e-08
1.32795e-11
5.89042e-08
1.16333e-11
5.88984e-08
1.01149e-11
5.88934e-08
8.74056e-12
5.88891e-08
7.52104e-12
5.88853e-08
6.43757e-12
5.88821e-08
5.50398e-12
5.88793e-08
4.66955e-12
5.88769e-08
3.98279e-12
5.88749e-08
3.34304e-12
5.88731e-08
2.86182e-12
5.88717e-08
2.37116e-12
5.88704e-08
2.05046e-12
5.88693e-08
1.68138e-12
5.88684e-08
1.47467e-12
5.88676e-08
1.21074e-12
5.8867e-08
1.08444e-12
5.88664e-08
9.07424e-13
5.88659e-08
8.38092e-13
5.88655e-08
7.44158e-13
5.88651e-08
7.02838e-13
5.88648e-08
6.87744e-13
5.88645e-08
6.74114e-13
7.16612e-13
6.106e-08
2.80482e-09
-6.09279e-08
6.12558e-08
3.27702e-09
6.1488e-08
3.70566e-09
6.17561e-08
4.06592e-09
6.20666e-08
4.37935e-09
6.23664e-08
4.53476e-09
6.26125e-08
4.3731e-09
6.27967e-08
4.04196e-09
6.29287e-08
3.75243e-09
6.30215e-08
3.47229e-09
6.30794e-08
3.12621e-09
6.31034e-08
2.75881e-09
6.31006e-08
2.4154e-09
6.3082e-08
2.0902e-09
6.30501e-08
1.78486e-09
6.3002e-08
1.50472e-09
6.29387e-08
1.23864e-09
6.28645e-08
9.82377e-10
6.2783e-08
7.50086e-10
6.26966e-08
5.54553e-10
6.26086e-08
3.9617e-10
6.25229e-08
2.70844e-10
6.24431e-08
1.76662e-10
6.2372e-08
1.11563e-10
6.23109e-08
7.11196e-11
6.22601e-08
4.92197e-11
6.22186e-08
3.95889e-11
6.2185e-08
3.68818e-11
6.21576e-08
3.70129e-11
6.21348e-08
3.74869e-11
6.21156e-08
3.71618e-11
6.20991e-08
3.57794e-11
6.20848e-08
3.35266e-11
6.20722e-08
3.07245e-11
6.20612e-08
2.76778e-11
6.20516e-08
2.46145e-11
6.20432e-08
2.16819e-11
6.20359e-08
1.896e-11
6.20295e-08
1.64881e-11
6.2024e-08
1.42695e-11
6.20192e-08
1.23076e-11
6.20151e-08
1.05687e-11
6.20115e-08
9.06611e-12
6.20085e-08
7.72697e-12
6.20058e-08
6.61216e-12
6.20036e-08
5.58514e-12
6.20017e-08
4.7884e-12
6.2e-08
4.00207e-12
6.19986e-08
3.45213e-12
6.19974e-08
2.86133e-12
6.19964e-08
2.48835e-12
6.19956e-08
2.06239e-12
6.19948e-08
1.81735e-12
6.19942e-08
1.52286e-12
6.19937e-08
1.37391e-12
6.19932e-08
1.19383e-12
6.19928e-08
1.10628e-12
6.19925e-08
1.02784e-12
6.19922e-08
9.95425e-13
9.95017e-13
6.42904e-08
2.69106e-09
-6.41766e-08
6.44707e-08
3.0967e-09
6.46773e-08
3.49908e-09
6.49176e-08
3.82564e-09
6.52102e-08
4.08672e-09
6.5498e-08
4.24696e-09
6.57259e-08
4.14517e-09
6.59e-08
3.86792e-09
6.60333e-08
3.61909e-09
6.61297e-08
3.37592e-09
6.6195e-08
3.06086e-09
6.6231e-08
2.7228e-09
6.62372e-08
2.40927e-09
6.62215e-08
2.10591e-09
6.61935e-08
1.81283e-09
6.61536e-08
1.54464e-09
6.6099e-08
1.29318e-09
6.60318e-08
1.04958e-09
6.59563e-08
8.25616e-10
6.58758e-08
6.35093e-10
6.57931e-08
4.7884e-10
6.57116e-08
3.52282e-10
6.56347e-08
2.53586e-10
6.55648e-08
1.81537e-10
6.55032e-08
1.3266e-10
6.54506e-08
1.01785e-10
6.54067e-08
8.35407e-11
6.53704e-08
7.32045e-11
6.53404e-08
6.70131e-11
6.53154e-08
6.24588e-11
6.52944e-08
5.82047e-11
6.52764e-08
5.37383e-11
6.52609e-08
4.90121e-11
6.52475e-08
4.41692e-11
6.52358e-08
3.93926e-11
6.52255e-08
3.48331e-11
6.52166e-08
3.05909e-11
6.52089e-08
2.67157e-11
6.52021e-08
2.32273e-11
6.51963e-08
2.0112e-11
6.51912e-08
1.73635e-11
6.51869e-08
1.49313e-11
6.51831e-08
1.28271e-11
6.51799e-08
1.0955e-11
6.51771e-08
9.38778e-12
6.51747e-08
7.95247e-12
6.51727e-08
6.82196e-12
6.5171e-08
5.72433e-12
6.51695e-08
4.93164e-12
6.51683e-08
4.10738e-12
6.51672e-08
3.55857e-12
6.51663e-08
2.9614e-12
6.51655e-08
2.59147e-12
6.51649e-08
2.17189e-12
6.51643e-08
1.94006e-12
6.51638e-08
1.66755e-12
6.51634e-08
1.53207e-12
6.5163e-08
1.38617e-12
6.51627e-08
1.33379e-12
1.28868e-12
6.76771e-08
2.59502e-09
-6.75811e-08
6.78408e-08
2.933e-09
6.80321e-08
3.30777e-09
6.82449e-08
3.61284e-09
6.85112e-08
3.82042e-09
6.87877e-08
3.97043e-09
6.90018e-08
3.93107e-09
6.91622e-08
3.70759e-09
6.92962e-08
3.48502e-09
6.93983e-08
3.27388e-09
6.94665e-08
2.99262e-09
6.95071e-08
2.68217e-09
6.95192e-08
2.39718e-09
6.95068e-08
2.11835e-09
6.94819e-08
1.83771e-09
6.94479e-08
1.57864e-09
6.93996e-08
1.34152e-09
6.93364e-08
1.11272e-09
6.9264e-08
8.98011e-10
6.91872e-08
7.11864e-10
6.91088e-08
5.57328e-10
6.90311e-08
4.29993e-10
6.89569e-08
3.27701e-10
6.88887e-08
2.49792e-10
6.88277e-08
1.93628e-10
6.87747e-08
1.5479e-10
6.87296e-08
1.28627e-10
6.86918e-08
1.11019e-10
6.86602e-08
9.85828e-11
6.86338e-08
8.88989e-11
6.86115e-08
8.05263e-11
6.85924e-08
7.27653e-11
6.85761e-08
6.5372e-11
6.85619e-08
5.83263e-11
6.85496e-08
5.16909e-11
6.85389e-08
4.55345e-11
6.85296e-08
3.99038e-11
6.85215e-08
3.48125e-11
6.85145e-08
3.02566e-11
6.85084e-08
2.62023e-11
6.85031e-08
2.26315e-11
6.84986e-08
1.94757e-11
6.84947e-08
1.67438e-11
6.84913e-08
1.43166e-11
6.84884e-08
1.22776e-11
6.8486e-08
1.04175e-11
6.84838e-08
8.93885e-12
6.8482e-08
7.51762e-12
6.84805e-08
6.47174e-12
6.84792e-08
5.40463e-12
6.84781e-08
4.67282e-12
6.84772e-08
3.89698e-12
6.84764e-08
3.39775e-12
6.84757e-08
2.84689e-12
6.84751e-08
2.52989e-12
6.84746e-08
2.16012e-12
6.84742e-08
1.97529e-12
6.84738e-08
1.75924e-12
6.84734e-08
1.68572e-12
1.59494e-12
7.12318e-08
2.51247e-09
-7.11493e-08
7.13732e-08
2.79167e-09
7.15541e-08
3.12683e-09
7.17479e-08
3.41906e-09
7.19821e-08
3.58625e-09
7.22408e-08
3.71172e-09
7.24463e-08
3.7256e-09
7.25957e-08
3.55816e-09
7.27283e-08
3.35235e-09
7.28345e-08
3.16772e-09
7.29012e-08
2.92588e-09
7.29426e-08
2.64081e-09
7.29633e-08
2.37649e-09
7.29585e-08
2.12316e-09
7.29357e-08
1.86052e-09
7.29033e-08
1.61103e-09
7.2859e-08
1.38579e-09
7.28005e-08
1.17128e-09
7.27322e-08
9.66239e-10
7.26598e-08
7.84282e-10
7.25857e-08
6.31462e-10
7.25116e-08
5.04082e-10
7.24401e-08
3.99191e-10
7.23736e-08
3.16306e-10
7.23135e-08
2.53679e-10
7.22607e-08
2.07657e-10
7.22151e-08
1.742e-10
7.21764e-08
1.49723e-10
7.21437e-08
1.31227e-10
7.21162e-08
1.16435e-10
7.20929e-08
1.03864e-10
7.2073e-08
9.26797e-11
7.20558e-08
8.24813e-11
7.20411e-08
7.31064e-11
7.20283e-08
6.45051e-11
7.20171e-08
5.66647e-11
7.20074e-08
4.95755e-11
7.1999e-08
4.32116e-11
7.19918e-08
3.75423e-11
7.19855e-08
3.25111e-11
7.198e-08
2.80861e-11
7.19753e-08
2.41796e-11
7.19712e-08
2.07971e-11
7.19678e-08
1.7795e-11
7.19648e-08
1.52672e-11
7.19622e-08
1.29678e-11
7.196e-08
1.11284e-11
7.19582e-08
9.37273e-12
7.19566e-08
8.06459e-12
7.19552e-08
6.74635e-12
7.19541e-08
5.82541e-12
7.19531e-08
4.86427e-12
7.19523e-08
4.23202e-12
7.19516e-08
3.54445e-12
7.1951e-08
3.14021e-12
7.19505e-08
2.66924e-12
7.195e-08
2.43357e-12
7.19496e-08
2.14531e-12
7.19493e-08
2.04953e-12
1.91216e-12
7.49607e-08
2.4387e-09
-7.48869e-08
7.50798e-08
2.67255e-09
7.5251e-08
2.9557e-09
7.54326e-08
3.23738e-09
7.56325e-08
3.38644e-09
7.58658e-08
3.47835e-09
7.60683e-08
3.52312e-09
7.62114e-08
3.4151e-09
7.63351e-08
3.22863e-09
7.64418e-08
3.06103e-09
7.65109e-08
2.85673e-09
7.65537e-08
2.59799e-09
7.658e-08
2.35021e-09
7.65812e-08
2.12199e-09
7.65596e-08
1.88215e-09
7.65283e-08
1.6423e-09
7.64892e-08
1.42491e-09
7.64371e-08
1.22335e-09
7.63738e-08
1.02958e-09
7.63052e-08
8.52858e-10
7.62348e-08
7.01792e-10
7.61643e-08
5.74626e-10
7.60957e-08
4.67837e-10
7.60312e-08
3.80739e-10
7.59725e-08
3.12385e-10
7.59203e-08
2.5991e-10
7.58747e-08
2.19796e-10
7.58355e-08
1.88905e-10
7.58021e-08
1.64603e-10
7.57737e-08
1.44799e-10
7.57496e-08
1.28015e-10
7.57289e-08
1.13333e-10
7.57112e-08
1.00231e-10
7.56959e-08
8.84285e-11
7.56826e-08
7.77728e-11
7.56711e-08
6.81735e-11
7.56611e-08
5.95642e-11
7.56524e-08
5.18775e-11
7.56449e-08
4.50535e-11
7.56384e-08
3.90113e-11
7.56328e-08
3.37036e-11
7.5628e-08
2.90226e-11
7.56238e-08
2.4969e-11
7.56202e-08
2.13747e-11
7.56171e-08
1.83432e-11
7.56145e-08
1.55917e-11
7.56123e-08
1.33807e-11
7.56104e-08
1.12812e-11
7.56087e-08
9.703e-12
7.56073e-08
8.12634e-12
7.56062e-08
7.01107e-12
7.56052e-08
5.85884e-12
7.56043e-08
5.09035e-12
7.56036e-08
4.26149e-12
7.5603e-08
3.76807e-12
7.56024e-08
3.19273e-12
7.5602e-08
2.90469e-12
7.56016e-08
2.54263e-12
7.56012e-08
2.4236e-12
2.23868e-12
7.88733e-08
2.36672e-09
-7.88013e-08
7.89743e-08
2.57151e-09
7.9128e-08
2.80201e-09
7.93004e-08
3.06493e-09
7.94749e-08
3.212e-09
7.96786e-08
3.27462e-09
7.98735e-08
3.32826e-09
8.00128e-08
3.27582e-09
8.01268e-08
3.11459e-09
8.02334e-08
2.95444e-09
8.03068e-08
2.78331e-09
8.03474e-08
2.55736e-09
8.03733e-08
2.32435e-09
8.03808e-08
2.11449e-09
8.03651e-08
1.89782e-09
8.03367e-08
1.67074e-09
8.03013e-08
1.46032e-09
8.02545e-08
1.27014e-09
8.01958e-08
1.08824e-09
8.01311e-08
9.17549e-10
8.00648e-08
7.681e-10
7.99983e-08
6.41169e-10
7.9933e-08
5.33165e-10
7.9871e-08
4.42731e-10
7.98139e-08
3.69417e-10
7.97627e-08
3.1118e-10
7.97174e-08
2.65023e-10
7.96782e-08
2.28186e-10
7.96444e-08
1.98377e-10
7.96155e-08
1.7371e-10
7.95907e-08
1.52758e-10
7.95695e-08
1.34556e-10
7.95513e-08
1.18494e-10
7.95355e-08
1.04193e-10
7.95218e-08
9.14152e-11
7.951e-08
7.99965e-11
7.94998e-08
6.98159e-11
7.94909e-08
6.07641e-11
7.94832e-08
5.27506e-11
7.94765e-08
4.56686e-11
7.94708e-08
3.94543e-11
7.94658e-08
3.39788e-11
7.94616e-08
2.92371e-11
7.94579e-08
2.50363e-11
7.94547e-08
2.14888e-11
7.94521e-08
1.8275e-11
7.94498e-08
1.56835e-11
7.94478e-08
1.32323e-11
7.94461e-08
1.13779e-11
7.94447e-08
9.53691e-12
7.94435e-08
8.22316e-12
7.94425e-08
6.87516e-12
7.94416e-08
5.96785e-12
7.94409e-08
4.99408e-12
7.94402e-08
4.4098e-12
7.94397e-08
3.72775e-12
7.94392e-08
3.38596e-12
7.94388e-08
2.9489e-12
7.94384e-08
2.80588e-12
2.57246e-12
8.29766e-08
2.29409e-09
-8.2904e-08
8.30639e-08
2.48422e-09
8.3196e-08
2.66991e-09
8.33599e-08
2.90101e-09
8.35179e-08
3.054e-09
8.3689e-08
3.1035e-09
8.38693e-08
3.14801e-09
8.40101e-08
3.13498e-09
8.41176e-08
3.00715e-09
8.42172e-08
2.85484e-09
8.42912e-08
2.70929e-09
8.43314e-08
2.51715e-09
8.43573e-08
2.29841e-09
8.43714e-08
2.10046e-09
8.43626e-08
1.90662e-09
8.43361e-08
1.69724e-09
8.43022e-08
1.4942e-09
8.42602e-08
1.31216e-09
8.42073e-08
1.14107e-09
8.41475e-08
9.77428e-10
8.40854e-08
8.30196e-10
8.40229e-08
7.03653e-10
8.39611e-08
5.9496e-10
8.39018e-08
5.0198e-10
8.38468e-08
4.24429e-10
8.37969e-08
3.61066e-10
8.37525e-08
3.09455e-10
8.37135e-08
2.67163e-10
8.36797e-08
2.32192e-10
8.36506e-08
2.02868e-10
8.36255e-08
1.77848e-10
8.36039e-08
1.56152e-10
8.35853e-08
1.37112e-10
8.35692e-08
1.20275e-10
8.35553e-08
1.0533e-10
8.35432e-08
9.20494e-11
8.35328e-08
8.02598e-11
8.35237e-08
6.9811e-11
8.35159e-08
6.05816e-11
8.35091e-08
5.24381e-11
8.35033e-08
4.52992e-11
8.34982e-08
3.90144e-11
8.34939e-08
3.35723e-11
8.34902e-08
2.87547e-11
8.3487e-08
2.46825e-11
8.34843e-08
2.09989e-11
8.34819e-08
1.80207e-11
8.348e-08
1.52126e-11
8.34783e-08
1.30776e-11
8.34768e-08
1.09682e-11
8.34756e-08
9.45317e-12
8.34746e-08
7.90617e-12
8.34737e-08
6.85828e-12
8.34729e-08
5.73717e-12
8.34723e-08
5.0608e-12
8.34717e-08
4.27058e-12
8.34712e-08
3.874e-12
8.34708e-08
3.36118e-12
8.34704e-08
3.19371e-12
2.91103e-12
8.72775e-08
2.22201e-09
-8.72054e-08
8.73578e-08
2.40393e-09
8.74696e-08
2.55814e-09
8.76188e-08
2.75182e-09
8.77648e-08
2.90797e-09
8.79099e-08
2.95842e-09
8.80714e-08
2.98647e-09
8.82112e-08
2.99519e-09
8.83121e-08
2.90627e-09
8.8401e-08
2.76593e-09
8.84758e-08
2.63448e-09
8.85202e-08
2.47277e-09
8.85453e-08
2.2733e-09
8.85605e-08
2.08525e-09
8.8557e-08
1.91012e-09
8.85343e-08
1.71998e-09
8.85028e-08
1.5257e-09
8.84653e-08
1.3496e-09
8.84185e-08
1.1879e-09
8.83637e-08
1.03223e-09
8.83057e-08
8.8814e-10
8.82473e-08
7.62084e-10
8.81893e-08
6.52923e-10
8.81333e-08
5.58055e-10
8.80807e-08
4.77e-10
8.80326e-08
4.09153e-10
8.79894e-08
3.52667e-10
8.79511e-08
3.05426e-10
8.79176e-08
2.65673e-10
8.78886e-08
2.31945e-10
8.78634e-08
2.03004e-10
8.78417e-08
1.77887e-10
8.78229e-08
1.55893e-10
8.78067e-08
1.36517e-10
8.77926e-08
1.19389e-10
8.77804e-08
1.04225e-10
8.77699e-08
9.0805e-11
8.77607e-08
7.89408e-11
8.77528e-08
6.84801e-11
8.7746e-08
5.92626e-11
8.77401e-08
5.11891e-11
8.77351e-08
4.40869e-11
8.77307e-08
3.79378e-11
8.7727e-08
3.24983e-11
8.77237e-08
2.78969e-11
8.7721e-08
2.37402e-11
8.77186e-08
2.03723e-11
8.77167e-08
1.72049e-11
8.77149e-08
1.47874e-11
8.77135e-08
1.24078e-11
8.77123e-08
1.06904e-11
8.77112e-08
8.94292e-12
8.77103e-08
7.75378e-12
8.77096e-08
6.48433e-12
8.77089e-08
5.71533e-12
8.77084e-08
4.81646e-12
8.77079e-08
4.36458e-12
8.77075e-08
3.77576e-12
8.77071e-08
3.58371e-12
3.25132e-12
9.17873e-08
2.1523e-09
-9.17176e-08
9.18642e-08
2.32706e-09
9.19583e-08
2.46401e-09
9.20878e-08
2.6223e-09
9.22247e-08
2.7711e-09
9.23521e-08
2.83098e-09
9.24902e-08
2.84845e-09
9.26218e-08
2.86349e-09
9.27201e-08
2.80806e-09
9.2801e-08
2.68494e-09
9.28736e-08
2.56196e-09
9.29205e-08
2.42587e-09
9.29438e-08
2.24999e-09
9.29578e-08
2.0712e-09
9.29595e-08
1.90849e-09
9.29427e-08
1.73676e-09
9.29142e-08
1.5542e-09
9.288e-08
1.38379e-09
9.28384e-08
1.22946e-09
9.2789e-08
1.08161e-09
9.27357e-08
9.41508e-10
9.26815e-08
8.16245e-10
9.26277e-08
7.06769e-10
9.25752e-08
6.10559e-10
9.25255e-08
5.2672e-10
9.24796e-08
4.55029e-10
9.2438e-08
3.94229e-10
9.24009e-08
3.42539e-10
9.23682e-08
2.98412e-10
9.23395e-08
2.60573e-10
9.23146e-08
2.27908e-10
9.2293e-08
1.99492e-10
9.22743e-08
1.74612e-10
9.22581e-08
1.5273e-10
9.2244e-08
1.33431e-10
9.22319e-08
1.16388e-10
9.22214e-08
1.01338e-10
9.22122e-08
8.80566e-11
9.22044e-08
7.6363e-11
9.21975e-08
6.60707e-11
9.21917e-08
5.70623e-11
9.21866e-08
4.91431e-11
9.21823e-08
4.22878e-11
9.21785e-08
3.62275e-11
9.21753e-08
3.10982e-11
9.21726e-08
2.64697e-11
9.21703e-08
2.27134e-11
9.21683e-08
1.9188e-11
9.21666e-08
1.64891e-11
9.21651e-08
1.38403e-11
9.21639e-08
1.19214e-11
9.21629e-08
9.97434e-12
9.2162e-08
8.64469e-12
9.21613e-08
7.22758e-12
9.21606e-08
6.36632e-12
9.21601e-08
5.3595e-12
9.21596e-08
4.85245e-12
9.21592e-08
4.1881e-12
9.21588e-08
3.97165e-12
3.58964e-12
9.80465e-08
2.08685e-09
-9.79811e-08
9.81207e-08
2.25286e-09
9.82038e-08
2.381e-09
9.8315e-08
2.51105e-09
9.84416e-08
2.64446e-09
9.85573e-08
2.71527e-09
9.86748e-08
2.73097e-09
9.87963e-08
2.74199e-09
9.88945e-08
2.70992e-09
9.89694e-08
2.61001e-09
9.90356e-08
2.49578e-09
9.90838e-08
2.37771e-09
9.91084e-08
2.2253e-09
9.91218e-08
2.05782e-09
9.91265e-08
1.90384e-09
9.9115e-08
1.74822e-09
9.90897e-08
1.57954e-09
9.90579e-08
1.41555e-09
9.90207e-08
1.26672e-09
9.89764e-08
1.12587e-09
9.89274e-08
9.90522e-10
9.8877e-08
8.66662e-10
9.88267e-08
7.57039e-10
9.87774e-08
6.59847e-10
9.87303e-08
5.73831e-10
9.86864e-08
4.98884e-10
9.86464e-08
4.3427e-10
9.86104e-08
3.78573e-10
9.85783e-08
3.30445e-10
9.85501e-08
2.88774e-10
9.85255e-08
2.52573e-10
9.8504e-08
2.20977e-10
9.84853e-08
1.93283e-10
9.84691e-08
1.68932e-10
9.84551e-08
1.47479e-10
9.84429e-08
1.2856e-10
9.84324e-08
1.11879e-10
9.84232e-08
9.71772e-11
9.84154e-08
8.42471e-11
9.84085e-08
7.2877e-11
9.84027e-08
6.29316e-11
9.83976e-08
5.41941e-11
9.83933e-08
4.66317e-11
9.83896e-08
3.99503e-11
9.83864e-08
3.4293e-11
9.83836e-08
2.91932e-11
9.83813e-08
2.50486e-11
9.83793e-08
2.11659e-11
9.83776e-08
1.8186e-11
9.83762e-08
1.52685e-11
9.8375e-08
1.31487e-11
9.83739e-08
1.10024e-11
9.83731e-08
9.53261e-12
9.83723e-08
7.9683e-12
9.83717e-08
7.01497e-12
9.83711e-08
5.90064e-12
9.83706e-08
5.33852e-12
9.83702e-08
4.59889e-12
9.83698e-08
4.35826e-12
3.92662e-12
1.10127e-07
2.02512e-09
-1.10065e-07
1.102e-07
2.17961e-09
1.10279e-07
2.30207e-09
1.10377e-07
2.41332e-09
1.10493e-07
2.5278e-09
1.10604e-07
2.60403e-09
1.10711e-07
2.62471e-09
1.10822e-07
2.63024e-09
1.1092e-07
2.61212e-09
1.10993e-07
2.53714e-09
1.11055e-07
2.43395e-09
1.11105e-07
2.32754e-09
1.11134e-07
2.19689e-09
1.11147e-07
2.04467e-09
1.11152e-07
1.89842e-09
1.11145e-07
1.75548e-09
1.11123e-07
1.60133e-09
1.11093e-07
1.44552e-09
1.11058e-07
1.30152e-09
1.11017e-07
1.16671e-09
1.10971e-07
1.03663e-09
1.10923e-07
9.14946e-10
1.10875e-07
8.05428e-10
1.10827e-07
7.07475e-10
1.10781e-07
6.19741e-10
1.10738e-07
5.42019e-10
1.10698e-07
4.73968e-10
1.10662e-07
4.14568e-10
1.1063e-07
3.6268e-10
1.10601e-07
3.17344e-10
1.10576e-07
2.777e-10
1.10554e-07
2.42961e-10
1.10535e-07
2.12447e-10
1.10519e-07
1.85598e-10
1.10504e-07
1.61948e-10
1.10492e-07
1.41106e-10
1.10481e-07
1.22746e-10
1.10471e-07
1.06579e-10
1.10463e-07
9.23718e-11
1.10456e-07
7.98883e-11
1.1045e-07
6.8975e-11
1.10445e-07
5.93927e-11
1.1044e-07
5.11006e-11
1.10437e-07
4.37789e-11
1.10433e-07
3.75773e-11
1.10431e-07
3.19921e-11
1.10428e-07
2.74478e-11
1.10426e-07
2.31975e-11
1.10424e-07
1.99286e-11
1.10423e-07
1.6735e-11
1.10422e-07
1.44086e-11
1.10421e-07
1.20577e-11
1.1042e-07
1.04438e-11
1.10419e-07
8.72844e-12
1.10418e-07
7.68045e-12
1.10418e-07
6.45586e-12
1.10417e-07
5.83716e-12
1.10417e-07
5.02023e-12
1.10416e-07
4.75497e-12
4.27223e-12
1.23688e-07
1.96936e-09
-1.23632e-07
1.23756e-07
2.11117e-09
1.2383e-07
2.22834e-09
1.23914e-07
2.32872e-09
1.24017e-07
2.4255e-09
1.24121e-07
2.50028e-09
1.24216e-07
2.52922e-09
1.24313e-07
2.53313e-09
1.24405e-07
2.52036e-09
1.24476e-07
2.46574e-09
1.24533e-07
2.37677e-09
1.24582e-07
2.27943e-09
1.24612e-07
2.16637e-09
1.24626e-07
2.03113e-09
1.24631e-07
1.89308e-09
1.24627e-07
1.75921e-09
1.2461e-07
1.61837e-09
1.24583e-07
1.4724e-09
1.24551e-07
1.33341e-09
1.24515e-07
1.20341e-09
1.24473e-07
1.07838e-09
1.24428e-07
9.59537e-10
1.24383e-07
8.50554e-10
1.24339e-07
7.52059e-10
1.24295e-07
6.63013e-10
1.24254e-07
5.83055e-10
1.24216e-07
5.12049e-10
1.24181e-07
4.4935e-10
1.2415e-07
3.94053e-10
1.24122e-07
3.45336e-10
1.24097e-07
3.02459e-10
1.24076e-07
2.64721e-10
1.24057e-07
2.31483e-10
1.2404e-07
2.02193e-10
1.24026e-07
1.76379e-10
1.24013e-07
1.5363e-10
1.24002e-07
1.33597e-10
1.23993e-07
1.15967e-10
1.23985e-07
1.00483e-10
1.23978e-07
8.6885e-11
1.23972e-07
7.50029e-11
1.23966e-07
6.45752e-11
1.23962e-07
5.55534e-11
1.23958e-07
4.75919e-11
1.23955e-07
4.08466e-11
1.23952e-07
3.47772e-11
1.2395e-07
2.98342e-11
1.23948e-07
2.52176e-11
1.23946e-07
2.16607e-11
1.23945e-07
1.81923e-11
1.23943e-07
1.56603e-11
1.23942e-07
1.31059e-11
1.23941e-07
1.13488e-11
1.23941e-07
9.48326e-12
1.2394e-07
8.34111e-12
1.23939e-07
7.007e-12
1.23939e-07
6.3321e-12
1.23938e-07
5.43831e-12
1.23938e-07
5.14876e-12
4.61515e-12
1.3891e-07
1.92162e-09
-1.38862e-07
1.38969e-07
2.05151e-09
1.39035e-07
2.1624e-09
1.39107e-07
2.25652e-09
1.39192e-07
2.34076e-09
1.39282e-07
2.41019e-09
1.39366e-07
2.44552e-09
1.39448e-07
2.45148e-09
1.39528e-07
2.43995e-09
1.39595e-07
2.39913e-09
1.39646e-07
2.32554e-09
1.39688e-07
2.23687e-09
1.39719e-07
2.1361e-09
1.39733e-07
2.01646e-09
1.39738e-07
1.88792e-09
1.39737e-07
1.7609e-09
1.39725e-07
1.63059e-09
1.39702e-07
1.49469e-09
1.39674e-07
1.36127e-09
1.39643e-07
1.2351e-09
1.39607e-07
1.1143e-09
1.39568e-07
9.98601e-10
1.39528e-07
8.90652e-10
1.39488e-07
7.91877e-10
1.39449e-07
7.01868e-10
1.39412e-07
6.20219e-10
1.39377e-07
5.46837e-10
1.39345e-07
4.81358e-10
1.39316e-07
4.23122e-10
1.3929e-07
3.71443e-10
1.39267e-07
3.25683e-10
1.39246e-07
2.85227e-10
1.39228e-07
2.49487e-10
1.39212e-07
2.1793e-10
1.39199e-07
1.90088e-10
1.39187e-07
1.65539e-10
1.39176e-07
1.4392e-10
1.39168e-07
1.24898e-10
1.3916e-07
1.08196e-10
1.39153e-07
9.35354e-11
1.39147e-07
8.07287e-11
1.39143e-07
6.94946e-11
1.39138e-07
5.97772e-11
1.39135e-07
5.12063e-11
1.39132e-07
4.39437e-11
1.39129e-07
3.74141e-11
1.39127e-07
3.20922e-11
1.39125e-07
2.71282e-11
1.39123e-07
2.32981e-11
1.39122e-07
1.95695e-11
1.39121e-07
1.68426e-11
1.3912e-07
1.40958e-11
1.39119e-07
1.22031e-11
1.39118e-07
1.01957e-11
1.39117e-07
8.9645e-12
1.39117e-07
7.52694e-12
1.39116e-07
6.79898e-12
1.39116e-07
5.83251e-12
1.39116e-07
5.52022e-12
4.93852e-12
1.55994e-07
1.88376e-09
-1.55956e-07
1.56042e-07
2.00391e-09
1.56096e-07
2.10844e-09
1.56154e-07
2.19863e-09
1.56219e-07
2.27555e-09
1.5629e-07
2.33875e-09
1.56359e-07
2.37672e-09
1.56424e-07
2.38655e-09
1.56488e-07
2.3761e-09
1.56544e-07
2.34303e-09
1.56588e-07
2.28209e-09
1.56623e-07
2.20184e-09
1.56649e-07
2.10931e-09
1.56664e-07
2.00182e-09
1.56669e-07
1.88291e-09
1.56668e-07
1.76152e-09
1.56661e-07
1.63843e-09
1.56644e-07
1.51112e-09
1.56622e-07
1.38343e-09
1.56597e-07
1.26049e-09
1.56568e-07
1.14287e-09
1.56537e-07
1.03003e-09
1.56504e-07
9.23441e-10
1.56471e-07
8.24699e-10
1.56439e-07
7.34062e-10
1.56408e-07
6.51258e-10
1.56378e-07
5.76154e-10
1.56351e-07
5.08544e-10
1.56326e-07
4.47981e-10
1.56304e-07
3.93913e-10
1.56284e-07
3.45788e-10
1.56266e-07
3.03061e-10
1.5625e-07
2.65201e-10
1.56236e-07
2.31702e-10
1.56224e-07
2.02105e-10
1.56214e-07
1.75988e-10
1.56205e-07
1.52979e-10
1.56197e-07
1.32733e-10
1.5619e-07
1.14959e-10
1.56185e-07
9.93605e-11
1.5618e-07
8.57387e-11
1.56175e-07
7.37944e-11
1.56172e-07
6.34647e-11
1.56168e-07
5.43585e-11
1.56166e-07
4.66418e-11
1.56163e-07
3.97091e-11
1.56161e-07
3.40557e-11
1.5616e-07
2.87884e-11
1.56158e-07
2.47198e-11
1.56157e-07
2.07646e-11
1.56156e-07
1.7868e-11
1.56155e-07
1.49539e-11
1.56155e-07
1.29432e-11
1.56154e-07
1.08127e-11
1.56153e-07
9.50423e-12
1.56153e-07
7.97686e-12
1.56152e-07
7.20302e-12
1.56152e-07
6.17322e-12
1.56152e-07
5.84165e-12
5.21809e-12
1.75169e-07
1.85818e-09
-1.75144e-07
1.75201e-07
1.97196e-09
1.75238e-07
2.07158e-09
1.75278e-07
2.15901e-09
1.75321e-07
2.232e-09
1.7537e-07
2.29057e-09
1.75417e-07
2.32893e-09
1.75462e-07
2.34198e-09
1.75505e-07
2.33282e-09
1.75545e-07
2.30327e-09
1.75577e-07
2.25029e-09
1.75602e-07
2.17679e-09
1.75622e-07
2.08955e-09
1.75634e-07
1.9897e-09
1.75638e-07
1.87817e-09
1.75639e-07
1.76114e-09
1.75635e-07
1.64241e-09
1.75625e-07