/*--------------------------------*- C++ -*----------------------------------*\
| =========                 |                                                 |
| \\      /  F ield         | OpenFOAM: The Open Source CFD Toolbox           |
|  \\    /   O peration     | Version:  2.3.0                                 |
|   \\  /    A nd           | Web:      www.OpenFOAM.org                      |
|    \\/     M anipulation  |                                                 |
\*---------------------------------------------------------------------------*/
FoamFile
{
    version     2.0;
    format      ascii;
    class       volVectorField;
    location    "0.1";
    object      U;
}
// * * * * * * * * * * * * * * * * * * * * * * * * * * * * * * * * * * * * * //

dimensions      [0 1 -1 0 0 0 0];

internalField   nonuniform List<vector> 
1650
(
(0.179471 0.00368182 0)
(0.15986 0.00476471 0)
(0.141966 0.00484916 0)
(0.123712 0.00446223 0)
(0.105525 0.00386985 0)
(0.0887486 0.00315218 0)
(0.074598 0.00236166 0)
(0.063531 0.00148251 0)
(0.0555058 0.000680578 0)
(0.0499728 0.000143898 0)
(0.0462871 -0.00012543 0)
(0.0439502 -0.000226208 0)
(0.042508 -0.000244673 0)
(0.041623 -0.00022436 0)
(0.0411369 -0.000172667 0)
(0.0409481 -0.000105244 0)
(0.0409319 -4.92905e-05 0)
(0.0409993 -1.97691e-05 0)
(0.041132 -1.28014e-05 0)
(0.0413265 -1.5059e-05 0)
(0.0415558 -1.67287e-05 0)
(0.0417826 -1.60525e-05 0)
(0.0419802 -1.35835e-05 0)
(0.0421372 -1.07725e-05 0)
(0.0422539 -8.52644e-06 0)
(0.0423374 -6.7652e-06 0)
(0.0423969 -5.42347e-06 0)
(0.0424403 -4.44031e-06 0)
(0.0424734 -3.69975e-06 0)
(0.0424999 -3.12097e-06 0)
(0.042522 -2.67248e-06 0)
(0.042541 -2.31224e-06 0)
(0.0425576 -2.01205e-06 0)
(0.0425721 -1.75559e-06 0)
(0.042585 -1.53233e-06 0)
(0.0425963 -1.33603e-06 0)
(0.0426063 -1.16297e-06 0)
(0.0426151 -1.01059e-06 0)
(0.0426228 -8.7643e-07 0)
(0.0426296 -7.58851e-07 0)
(0.0426356 -6.56031e-07 0)
(0.0426408 -5.65921e-07 0)
(0.0426453 -4.86695e-07 0)
(0.0426493 -4.18114e-07 0)
(0.0426528 -3.57903e-07 0)
(0.0426557 -3.06494e-07 0)
(0.0426583 -2.60596e-07 0)
(0.0426606 -2.21947e-07 0)
(0.0426625 -1.87164e-07 0)
(0.0426641 -1.58129e-07 0)
(0.0426656 -1.32222e-07 0)
(0.0426667 -1.09745e-07 0)
(0.0426678 -9.08153e-08 0)
(0.0426686 -7.27941e-08 0)
(0.0426693 -5.92322e-08 0)
(0.0426698 -4.41833e-08 0)
(0.0426703 -3.39985e-08 0)
(0.0426705 -2.22972e-08 0)
(0.0426708 -1.42448e-08 0)
(0.0426708 -4.83325e-09 0)
(0.19349 0.00654834 0)
(0.191494 0.00863882 0)
(0.189515 0.00930484 0)
(0.186281 0.00940636 0)
(0.180856 0.00905189 0)
(0.173682 0.00829013 0)
(0.16606 0.00726442 0)
(0.158482 0.00603062 0)
(0.151117 0.00472292 0)
(0.144212 0.00347902 0)
(0.137903 0.00241124 0)
(0.132338 0.00162839 0)
(0.127673 0.00111114 0)
(0.123881 0.000708948 0)
(0.120867 0.000379329 0)
(0.118598 0.00015671 0)
(0.117051 2.54818e-05 0)
(0.116123 -6.08971e-05 0)
(0.115682 -0.000123223 0)
(0.115606 -0.000155278 0)
(0.115773 -0.000156291 0)
(0.11606 -0.000135128 0)
(0.116372 -0.000104133 0)
(0.116651 -7.39009e-05 0)
(0.11687 -5.01539e-05 0)
(0.11703 -3.37932e-05 0)
(0.117139 -2.34791e-05 0)
(0.117213 -1.72934e-05 0)
(0.117263 -1.35613e-05 0)
(0.117298 -1.11569e-05 0)
(0.117324 -9.484e-06 0)
(0.117345 -8.20488e-06 0)
(0.117362 -7.1493e-06 0)
(0.117377 -6.24344e-06 0)
(0.117389 -5.45228e-06 0)
(0.1174 -4.75666e-06 0)
(0.11741 -4.14406e-06 0)
(0.117418 -3.60523e-06 0)
(0.117426 -3.1317e-06 0)
(0.117432 -2.71601e-06 0)
(0.117438 -2.35101e-06 0)
(0.117443 -2.03242e-06 0)
(0.117448 -1.75315e-06 0)
(0.117451 -1.51055e-06 0)
(0.117455 -1.29653e-06 0)
(0.117458 -1.11268e-06 0)
(0.11746 -9.4898e-07 0)
(0.117463 -8.11195e-07 0)
(0.117465 -6.86087e-07 0)
(0.117466 -5.82587e-07 0)
(0.117468 -4.87174e-07 0)
(0.117469 -4.0877e-07 0)
(0.11747 -3.36274e-07 0)
(0.117471 -2.75208e-07 0)
(0.117472 -2.20628e-07 0)
(0.117472 -1.69673e-07 0)
(0.117473 -1.30796e-07 0)
(0.117473 -8.33919e-08 0)
(0.117473 -5.91602e-08 0)
(0.117473 -1.33047e-08 0)
(0.194719 0.00618182 0)
(0.194387 0.00772295 0)
(0.195174 0.00869005 0)
(0.196726 0.00942194 0)
(0.197379 0.00971963 0)
(0.196512 0.00940576 0)
(0.194871 0.00857217 0)
(0.192905 0.00751792 0)
(0.190543 0.00646065 0)
(0.187761 0.00539142 0)
(0.184636 0.0043446 0)
(0.181398 0.00346587 0)
(0.178348 0.00279722 0)
(0.175592 0.00222118 0)
(0.173119 0.00167755 0)
(0.170972 0.00120641 0)
(0.169217 0.000822048 0)
(0.167846 0.000492272 0)
(0.166818 0.000208479 0)
(0.166104 -5.57415e-06 0)
(0.165678 -0.000138229 0)
(0.165496 -0.000196431 0)
(0.165488 -0.000199522 0)
(0.165582 -0.000170909 0)
(0.165715 -0.000130964 0)
(0.165845 -9.31584e-05 0)
(0.165949 -6.34589e-05 0)
(0.166022 -4.26578e-05 0)
(0.166069 -2.92092e-05 0)
(0.166096 -2.09174e-05 0)
(0.16611 -1.58583e-05 0)
(0.166116 -1.26667e-05 0)
(0.166118 -1.05076e-05 0)
(0.166118 -8.92369e-06 0)
(0.166117 -7.67704e-06 0)
(0.166116 -6.64734e-06 0)
(0.166114 -5.7724e-06 0)
(0.166113 -5.01886e-06 0)
(0.166112 -4.36371e-06 0)
(0.166111 -3.79414e-06 0)
(0.16611 -3.29501e-06 0)
(0.16611 -2.85902e-06 0)
(0.166109 -2.47576e-06 0)
(0.166109 -2.14339e-06 0)
(0.166109 -1.84755e-06 0)
(0.166109 -1.59482e-06 0)
(0.166108 -1.36401e-06 0)
(0.166108 -1.17461e-06 0)
(0.166108 -9.92826e-07 0)
(0.166108 -8.51975e-07 0)
(0.166108 -7.07271e-07 0)
(0.166108 -6.01691e-07 0)
(0.166108 -4.86911e-07 0)
(0.166108 -4.04027e-07 0)
(0.166108 -3.15706e-07 0)
(0.166108 -2.39529e-07 0)
(0.166108 -1.82066e-07 0)
(0.166108 -9.77757e-08 0)
(0.166108 -6.73124e-08 0)
(0.166107 1.62551e-08 0)
(0.195683 0.00583217 0)
(0.195581 0.00698362 0)
(0.195987 0.00780263 0)
(0.197644 0.00857554 0)
(0.199459 0.0091439 0)
(0.200489 0.00910746 0)
(0.200968 0.00841799 0)
(0.201227 0.00747205 0)
(0.20124 0.00661442 0)
(0.200875 0.00579689 0)
(0.200033 0.00491673 0)
(0.198858 0.00409409 0)
(0.197635 0.00342414 0)
(0.196462 0.00283711 0)
(0.195299 0.00227028 0)
(0.194172 0.00174715 0)
(0.193152 0.00128738 0)
(0.19226 0.000881234 0)
(0.19148 0.000529816 0)
(0.190806 0.000248261 0)
(0.190256 4.57262e-05 0)
(0.189845 -8.09526e-05 0)
(0.189573 -0.000143518 0)
(0.189422 -0.000157802 0)
(0.189358 -0.000142123 0)
(0.189344 -0.000113254 0)
(0.189352 -8.27635e-05 0)
(0.189363 -5.67928e-05 0)
(0.189366 -3.73736e-05 0)
(0.189362 -2.42152e-05 0)
(0.18935 -1.5884e-05 0)
(0.189334 -1.08135e-05 0)
(0.189316 -7.77221e-06 0)
(0.189298 -5.92133e-06 0)
(0.189281 -4.74394e-06 0)
(0.189266 -3.94419e-06 0)
(0.189251 -3.36052e-06 0)
(0.189239 -2.90813e-06 0)
(0.189228 -2.53898e-06 0)
(0.189218 -2.2303e-06 0)
(0.18921 -1.96344e-06 0)
(0.189203 -1.73244e-06 0)
(0.189197 -1.52447e-06 0)
(0.189192 -1.34641e-06 0)
(0.189187 -1.1768e-06 0)
(0.189183 -1.03981e-06 0)
(0.18918 -8.94956e-07 0)
(0.189177 -7.92882e-07 0)
(0.189175 -6.65343e-07 0)
(0.189173 -5.89968e-07 0)
(0.189171 -4.77324e-07 0)
(0.18917 -4.18767e-07 0)
(0.189169 -3.21459e-07 0)
(0.189167 -2.69801e-07 0)
(0.189167 -1.91063e-07 0)
(0.189166 -1.28675e-07 0)
(0.189166 -8.15838e-08 0)
(0.189164 5.29057e-09 0)
(0.189164 2.7205e-08 0)
(0.189163 1.22766e-07 0)
(0.196241 0.00558937 0)
(0.196433 0.00655347 0)
(0.196638 0.00722922 0)
(0.197753 0.00790364 0)
(0.199364 0.00853352 0)
(0.200741 0.00864799 0)
(0.201778 0.00805615 0)
(0.202537 0.00716462 0)
(0.203081 0.00640011 0)
(0.203418 0.00572831 0)
(0.203438 0.00499025 0)
(0.203169 0.00424371 0)
(0.202803 0.00358808 0)
(0.20242 0.00301025 0)
(0.201983 0.00247032 0)
(0.201497 0.00196819 0)
(0.201012 0.00151188 0)
(0.200541 0.00110063 0)
(0.200073 0.000742154 0)
(0.199611 0.000448664 0)
(0.199172 0.000224086 0)
(0.198779 6.53779e-05 0)
(0.198452 -3.40165e-05 0)
(0.1982 -8.33614e-05 0)
(0.198019 -9.61459e-05 0)
(0.197895 -8.66521e-05 0)
(0.19781 -6.71487e-05 0)
(0.197748 -4.61126e-05 0)
(0.197699 -2.81822e-05 0)
(0.197656 -1.50591e-05 0)
(0.197616 -6.49765e-06 0)
(0.197579 -1.43841e-06 0)
(0.197544 1.2388e-06 0)
(0.197512 2.45014e-06 0)
(0.197483 2.83415e-06 0)
(0.197457 2.78936e-06 0)
(0.197433 2.54523e-06 0)
(0.197413 2.22527e-06 0)
(0.197395 1.89341e-06 0)
(0.19738 1.57847e-06 0)
(0.197367 1.29761e-06 0)
(0.197355 1.04832e-06 0)
(0.197345 8.4333e-07 0)
(0.197337 6.59186e-07 0)
(0.197329 5.26109e-07 0)
(0.197323 3.90765e-07 0)
(0.197318 3.2e-07 0)
(0.197313 2.18505e-07 0)
(0.197309 1.96526e-07 0)
(0.197306 1.22037e-07 0)
(0.197303 1.31107e-07 0)
(0.1973 8.28588e-08 0)
(0.197299 1.09387e-07 0)
(0.197297 8.70935e-08 0)
(0.197296 1.19038e-07 0)
(0.197294 1.32977e-07 0)
(0.197293 1.49911e-07 0)
(0.197292 2.0603e-07 0)
(0.197291 2.12619e-07 0)
(0.19729 2.94716e-07 0)
(0.196629 0.00529681 0)
(0.196963 0.00617952 0)
(0.197206 0.00682383 0)
(0.198003 0.00740137 0)
(0.19925 0.00798132 0)
(0.200545 0.00815274 0)
(0.201703 0.00765149 0)
(0.202541 0.00685855 0)
(0.203083 0.00618556 0)
(0.203488 0.0055939 0)
(0.203733 0.00494202 0)
(0.203765 0.00426199 0)
(0.203677 0.0036306 0)
(0.203543 0.00306302 0)
(0.203353 0.00255111 0)
(0.203119 0.00208544 0)
(0.202862 0.00165123 0)
(0.20258 0.00124611 0)
(0.202267 0.000888425 0)
(0.201931 0.000594236 0)
(0.201588 0.000364494 0)
(0.201257 0.000193423 0)
(0.200955 7.65101e-05 0)
(0.200694 7.01477e-06 0)
(0.20048 -2.56598e-05 0)
(0.200309 -3.33939e-05 0)
(0.200177 -2.70652e-05 0)
(0.200073 -1.53089e-05 0)
(0.199991 -3.63394e-06 0)
(0.199923 5.3815e-06 0)
(0.199864 1.11237e-05 0)
(0.199814 1.40382e-05 0)
(0.199769 1.49181e-05 0)
(0.199729 1.45261e-05 0)
(0.199693 1.34448e-05 0)
(0.199662 1.20598e-05 0)
(0.199635 1.06015e-05 0)
(0.199611 9.19299e-06 0)
(0.19959 7.89626e-06 0)
(0.199572 6.73169e-06 0)
(0.199556 5.7096e-06 0)
(0.199543 4.8127e-06 0)
(0.199531 4.05166e-06 0)
(0.199521 3.38003e-06 0)
(0.199512 2.83856e-06 0)
(0.199505 2.33799e-06 0)
(0.199498 1.97447e-06 0)
(0.199493 1.60087e-06 0)
(0.199488 1.37205e-06 0)
(0.199484 1.09808e-06 0)
(0.199481 9.61149e-07 0)
(0.199478 7.71271e-07 0)
(0.199476 6.95795e-07 0)
(0.199473 5.74366e-07 0)
(0.199472 5.38279e-07 0)
(0.19947 4.83061e-07 0)
(0.199469 4.60139e-07 0)
(0.199468 4.66972e-07 0)
(0.199467 4.57505e-07 0)
(0.199466 5.06848e-07 0)
(0.197019 0.00503203 0)
(0.197365 0.00584441 0)
(0.197614 0.00646776 0)
(0.198278 0.00694875 0)
(0.199295 0.00744492 0)
(0.200399 0.00764093 0)
(0.201491 0.00723543 0)
(0.202328 0.00656214 0)
(0.202832 0.0059902 0)
(0.203201 0.00545653 0)
(0.203488 0.00484948 0)
(0.203613 0.0042274 0)
(0.203604 0.00364309 0)
(0.203533 0.00309912 0)
(0.203417 0.00260762 0)
(0.203263 0.00216575 0)
(0.203078 0.00174698 0)
(0.202861 0.00134912 0)
(0.20261 0.000998179 0)
(0.202333 0.000711416 0)
(0.202045 0.000485739 0)
(0.201759 0.000312442 0)
(0.201488 0.000186543 0)
(0.201243 0.000103127 0)
(0.20103 5.45622e-05 0)
(0.200851 3.11998e-05 0)
(0.200704 2.39097e-05 0)
(0.200585 2.48443e-05 0)
(0.200489 2.84686e-05 0)
(0.200409 3.16627e-05 0)
(0.200343 3.31584e-05 0)
(0.200286 3.28526e-05 0)
(0.200237 3.11689e-05 0)
(0.200194 2.86364e-05 0)
(0.200156 2.5707e-05 0)
(0.200123 2.26988e-05 0)
(0.200094 1.98076e-05 0)
(0.200069 1.71353e-05 0)
(0.200047 1.4729e-05 0)
(0.200028 1.25923e-05 0)
(0.200012 1.07253e-05 0)
(0.199997 9.09161e-06 0)
(0.199985 7.69845e-06 0)
(0.199974 6.47343e-06 0)
(0.199965 5.46809e-06 0)
(0.199957 4.55391e-06 0)
(0.199951 3.85669e-06 0)
(0.199945 3.17519e-06 0)
(0.19994 2.70953e-06 0)
(0.199936 2.21056e-06 0)
(0.199933 1.90597e-06 0)
(0.19993 1.55585e-06 0)
(0.199927 1.36305e-06 0)
(0.199925 1.12854e-06 0)
(0.199923 1.0148e-06 0)
(0.199921 8.79126e-07 0)
(0.199921 8.10987e-07 0)
(0.199919 7.59722e-07 0)
(0.199918 7.31637e-07 0)
(0.199917 7.41028e-07 0)
(0.197401 0.00481505 0)
(0.197716 0.00550549 0)
(0.197922 0.00612129 0)
(0.198524 0.00655579 0)
(0.19942 0.00694067 0)
(0.200321 0.00713789 0)
(0.201261 0.00684549 0)
(0.202075 0.00628119 0)
(0.202575 0.0057888 0)
(0.202907 0.00530846 0)
(0.203193 0.00474113 0)
(0.203358 0.00417304 0)
(0.203379 0.00364504 0)
(0.203326 0.0031284 0)
(0.203237 0.00264319 0)
(0.203115 0.00221404 0)
(0.202959 0.00181894 0)
(0.202771 0.0014436 0)
(0.202553 0.00110792 0)
(0.20231 0.000829764 0)
(0.202053 0.000605904 0)
(0.201794 0.000427715 0)
(0.201548 0.000292148 0)
(0.201321 0.00019658 0)
(0.201119 0.00013476 0)
(0.200945 9.82822e-05 0)
(0.200798 7.88355e-05 0)
(0.200676 6.94238e-05 0)
(0.200576 6.47398e-05 0)
(0.200493 6.14611e-05 0)
(0.200424 5.798e-05 0)
(0.200365 5.38172e-05 0)
(0.200314 4.90681e-05 0)
(0.20027 4.40229e-05 0)
(0.200231 3.89771e-05 0)
(0.200198 3.41523e-05 0)
(0.200169 2.9685e-05 0)
(0.200144 2.56388e-05 0)
(0.200121 2.20348e-05 0)
(0.200102 1.88539e-05 0)
(0.200086 1.60816e-05 0)
(0.200071 1.36599e-05 0)
(0.200059 1.15912e-05 0)
(0.200048 9.77572e-06 0)
(0.200039 8.27477e-06 0)
(0.200031 6.91963e-06 0)
(0.200025 5.86539e-06 0)
(0.200019 4.85624e-06 0)
(0.200014 4.13705e-06 0)
(0.20001 3.39869e-06 0)
(0.200007 2.91457e-06 0)
(0.200003 2.39334e-06 0)
(0.200001 2.07552e-06 0)
(0.199998 1.71933e-06 0)
(0.199997 1.52374e-06 0)
(0.199995 1.30043e-06 0)
(0.199994 1.18488e-06 0)
(0.199992 1.07116e-06 0)
(0.199992 1.02215e-06 0)
(0.19999 9.89614e-07 0)
(0.197733 0.00462318 0)
(0.198051 0.00519165 0)
(0.198211 0.00580225 0)
(0.19872 0.00620469 0)
(0.19954 0.00646634 0)
(0.200297 0.00666201 0)
(0.201063 0.006495 0)
(0.201819 0.00601303 0)
(0.202327 0.00557003 0)
(0.202639 0.00515964 0)
(0.202914 0.00464618 0)
(0.203099 0.00410879 0)
(0.203132 0.00361922 0)
(0.203082 0.00314017 0)
(0.203018 0.00267677 0)
(0.202929 0.00226801 0)
(0.202794 0.0018997 0)
(0.202621 0.00154517 0)
(0.202424 0.00121751 0)
(0.202206 0.000939959 0)
(0.201973 0.000714623 0)
(0.201738 0.000533236 0)
(0.201513 0.00039164 0)
(0.201304 0.00028733 0)
(0.201115 0.00021489 0)
(0.200949 0.000166921 0)
(0.200806 0.000136217 0)
(0.200686 0.000116674 0)
(0.200586 0.000103483 0)
(0.200503 9.33776e-05 0)
(0.200433 8.45396e-05 0)
(0.200373 7.61744e-05 0)
(0.200322 6.80749e-05 0)
(0.200278 6.02953e-05 0)
(0.200239 5.29645e-05 0)
(0.200206 4.61942e-05 0)
(0.200177 4.00509e-05 0)
(0.200152 3.45515e-05 0)
(0.20013 2.96855e-05 0)
(0.200111 2.54073e-05 0)
(0.200094 2.16852e-05 0)
(0.20008 1.84381e-05 0)
(0.200068 1.56619e-05 0)
(0.200057 1.32289e-05 0)
(0.200048 1.1209e-05 0)
(0.200041 9.39317e-06 0)
(0.200034 7.96504e-06 0)
(0.200028 6.61403e-06 0)
(0.200024 5.62921e-06 0)
(0.200019 4.64086e-06 0)
(0.200016 3.96899e-06 0)
(0.200013 3.26855e-06 0)
(0.200011 2.82067e-06 0)
(0.200008 2.33625e-06 0)
(0.200007 2.05614e-06 0)
(0.200005 1.74008e-06 0)
(0.200004 1.57581e-06 0)
(0.200002 1.39639e-06 0)
(0.200002 1.32505e-06 0)
(0.2 1.24985e-06 0)
(0.198022 0.00447142 0)
(0.19836 0.00492563 0)
(0.198482 0.00547691 0)
(0.198878 0.00587537 0)
(0.199643 0.00606588 0)
(0.20031 0.00622515 0)
(0.200896 0.00615011 0)
(0.201568 0.00576069 0)
(0.202102 0.00536346 0)
(0.202401 0.00501053 0)
(0.202637 0.00454311 0)
(0.20283 0.00402668 0)
(0.202888 0.00358044 0)
(0.20285 0.00316178 0)
(0.202803 0.00272977 0)
(0.202738 0.00232571 0)
(0.202618 0.00196569 0)
(0.202455 0.00162699 0)
(0.202277 0.0013111 0)
(0.202086 0.00103942 0)
(0.201878 0.000817359 0)
(0.201665 0.000636114 0)
(0.201458 0.000489992 0)
(0.201266 0.000377354 0)
(0.20109 0.000294614 0)
(0.200933 0.000235697 0)
(0.200796 0.000194326 0)
(0.20068 0.000165101 0)
(0.200582 0.000143633 0)
(0.200499 0.000126732 0)
(0.200429 0.000112426 0)
(0.20037 9.96782e-05 0)
(0.200319 8.8037e-05 0)
(0.200275 7.73498e-05 0)
(0.200237 6.75897e-05 0)
(0.200204 5.87586e-05 0)
(0.200176 5.08484e-05 0)
(0.200151 4.38236e-05 0)
(0.200129 3.76376e-05 0)
(0.20011 3.22146e-05 0)
(0.200094 2.75034e-05 0)
(0.20008 2.33979e-05 0)
(0.200068 1.98863e-05 0)
(0.200057 1.6812e-05 0)
(0.200049 1.42529e-05 0)
(0.200041 1.19595e-05 0)
(0.200034 1.01429e-05 0)
(0.200029 8.43763e-06 0)
(0.200024 7.17686e-06 0)
(0.20002 5.92929e-06 0)
(0.200017 5.0628e-06 0)
(0.200014 4.17601e-06 0)
(0.200011 3.59392e-06 0)
(0.200009 2.97556e-06 0)
(0.200008 2.60867e-06 0)
(0.200006 2.19577e-06 0)
(0.200005 1.98117e-06 0)
(0.200003 1.73368e-06 0)
(0.200003 1.63906e-06 0)
(0.200001 1.52029e-06 0)
(0.198269 0.00434172 0)
(0.198617 0.00469464 0)
(0.198745 0.00516033 0)
(0.199036 0.00557846 0)
(0.199712 0.00573086 0)
(0.20032 0.00581386 0)
(0.200776 0.0058122 0)
(0.201352 0.00554179 0)
(0.201887 0.00516665 0)
(0.202169 0.00483174 0)
(0.202365 0.00443012 0)
(0.202573 0.00396776 0)
(0.202665 0.00355636 0)
(0.202628 0.00317324 0)
(0.202577 0.0027616 0)
(0.202533 0.00236168 0)
(0.202438 0.00201471 0)
(0.202291 0.00170118 0)
(0.202131 0.00140471 0)
(0.201963 0.00114001 0)
(0.201778 0.000918417 0)
(0.201584 0.000735088 0)
(0.201395 0.000584078 0)
(0.201218 0.000463884 0)
(0.201055 0.000372093 0)
(0.200908 0.000303564 0)
(0.200779 0.000252613 0)
(0.200667 0.00021439 0)
(0.200572 0.00018496 0)
(0.200491 0.000161323 0)
(0.200423 0.000141463 0)
(0.200364 0.000124184 0)
(0.200314 0.000108839 0)
(0.20027 9.50971e-05 0)
(0.200233 8.27834e-05 0)
(0.2002 7.17907e-05 0)
(0.200172 6.20327e-05 0)
(0.200148 5.34178e-05 0)
(0.200126 4.58594e-05 0)
(0.200108 3.92487e-05 0)
(0.200092 3.35127e-05 0)
(0.200078 2.8519e-05 0)
(0.200067 2.42469e-05 0)
(0.200056 2.05102e-05 0)
(0.200048 1.7394e-05 0)
(0.20004 1.46078e-05 0)
(0.200034 1.23898e-05 0)
(0.200028 1.03192e-05 0)
(0.200024 8.77348e-06 0)
(0.20002 7.25846e-06 0)
(0.200017 6.19137e-06 0)
(0.200013 5.11183e-06 0)
(0.200011 4.39191e-06 0)
(0.200009 3.63461e-06 0)
(0.200008 3.17883e-06 0)
(0.200005 2.66567e-06 0)
(0.200005 2.39909e-06 0)
(0.200003 2.08181e-06 0)
(0.200003 1.96295e-06 0)
(0.200001 1.79957e-06 0)
(0.198485 0.00421252 0)
(0.198829 0.00450834 0)
(0.198994 0.00488091 0)
(0.199191 0.00528281 0)
(0.199748 0.00543182 0)
(0.200328 0.00546338 0)
(0.200706 0.0054964 0)
(0.201158 0.00531899 0)
(0.201662 0.00496804 0)
(0.201956 0.00465707 0)
(0.202129 0.00433543 0)
(0.202325 0.00392277 0)
(0.202435 0.00351151 0)
(0.202402 0.00314673 0)
(0.202352 0.00277716 0)
(0.20233 0.00240531 0)
(0.202262 0.00207284 0)
(0.20213 0.00177563 0)
(0.201981 0.00149304 0)
(0.201832 0.00123307 0)
(0.20167 0.00101117 0)
(0.201496 0.00082683 0)
(0.201324 0.000673177 0)
(0.201163 0.000547421 0)
(0.201014 0.000447899 0)
(0.200877 0.00037068 0)
(0.200755 0.000310848 0)
(0.200649 0.000264117 0)
(0.200558 0.000227009 0)
(0.20048 0.000196758 0)
(0.200413 0.000171351 0)
(0.200355 0.000149476 0)
(0.200306 0.000130331 0)
(0.200264 0.000113429 0)
(0.200227 9.8465e-05 0)
(0.200195 8.52268e-05 0)
(0.200168 7.35517e-05 0)
(0.200144 6.329e-05 0)
(0.200123 5.43131e-05 0)
(0.200105 4.64771e-05 0)
(0.20009 3.96852e-05 0)
(0.200076 3.37775e-05 0)
(0.200065 2.87232e-05 0)
(0.200055 2.4306e-05 0)
(0.200046 2.06172e-05 0)
(0.200039 1.73252e-05 0)
(0.200033 1.46949e-05 0)
(0.200027 1.22497e-05 0)
(0.200023 1.04113e-05 0)
(0.200019 8.62181e-06 0)
(0.200016 7.34914e-06 0)
(0.200013 6.07144e-06 0)
(0.200011 5.21061e-06 0)
(0.200009 4.31028e-06 0)
(0.200007 3.76368e-06 0)
(0.200005 3.14755e-06 0)
(0.200005 2.82748e-06 0)
(0.200003 2.43905e-06 0)
(0.200003 2.2951e-06 0)
(0.200001 2.08609e-06 0)
(0.198689 0.00408322 0)
(0.199002 0.00435424 0)
(0.199201 0.00463433 0)
(0.199346 0.00499024 0)
(0.199782 0.0051716 0)
(0.200321 0.00517597 0)
(0.200651 0.00518688 0)
(0.200992 0.00508493 0)
(0.201453 0.00480024 0)
(0.201764 0.00450762 0)
(0.201908 0.00422437 0)
(0.20207 0.00385305 0)
(0.202198 0.00345841 0)
(0.202193 0.0031233 0)
(0.202144 0.00280107 0)
(0.202127 0.00245508 0)
(0.20208 0.00212565 0)
(0.201965 0.00183563 0)
(0.201829 0.00156785 0)
(0.201698 0.00131783 0)
(0.201558 0.00109866 0)
(0.201404 0.000914191 0)
(0.201248 0.000758529 0)
(0.201102 0.000627962 0)
(0.200965 0.000521409 0)
(0.200839 0.00043622 0)
(0.200726 0.000368256 0)
(0.200626 0.000313655 0)
(0.200539 0.000269307 0)
(0.200464 0.00023268 0)
(0.2004 0.00020182 0)
(0.200344 0.000175349 0)
(0.200297 0.000152352 0)
(0.200255 0.00013222 0)
(0.20022 0.000114532 0)
(0.200189 9.89834e-05 0)
(0.200162 8.53357e-05 0)
(0.200139 7.33815e-05 0)
(0.200119 6.29488e-05 0)
(0.200102 5.38569e-05 0)
(0.200087 4.59842e-05 0)
(0.200074 3.91419e-05 0)
(0.200063 3.32883e-05 0)
(0.200053 2.81764e-05 0)
(0.200045 2.3903e-05 0)
(0.200038 2.00953e-05 0)
(0.200032 1.70442e-05 0)
(0.200027 1.4217e-05 0)
(0.200022 1.20803e-05 0)
(0.200018 1.00109e-05 0)
(0.200016 8.52891e-06 0)
(0.200013 7.04892e-06 0)
(0.200011 6.04485e-06 0)
(0.200008 4.99844e-06 0)
(0.200007 4.35946e-06 0)
(0.200005 3.63847e-06 0)
(0.200004 3.26369e-06 0)
(0.200003 2.8031e-06 0)
(0.200003 2.63345e-06 0)
(0.200001 2.37793e-06 0)
(0.198882 0.00395069 0)
(0.199144 0.00421034 0)
(0.199368 0.00442887 0)
(0.199501 0.00472526 0)
(0.199819 0.0049262 0)
(0.20029 0.00492576 0)
(0.200606 0.00490899 0)
(0.200871 0.00486366 0)
(0.201259 0.00464666 0)
(0.201565 0.00435729 0)
(0.201698 0.00409435 0)
(0.201832 0.00378512 0)
(0.201972 0.00342932 0)
(0.201992 0.00310824 0)
(0.201941 0.00280979 0)
(0.20192 0.0024879 0)
(0.201891 0.00216906 0)
(0.2018 0.00188892 0)
(0.201679 0.00163659 0)
(0.201562 0.00139787 0)
(0.20144 0.0011816 0)
(0.201305 0.000996216 0)
(0.201166 0.000838567 0)
(0.201034 0.000704186 0)
(0.20091 0.000591768 0)
(0.200795 0.000499605 0)
(0.20069 0.000424353 0)
(0.200597 0.000362561 0)
(0.200516 0.000311442 0)
(0.200445 0.000268724 0)
(0.200384 0.000232557 0)
(0.200331 0.000201545 0)
(0.200285 0.000174695 0)
(0.200245 0.000151302 0)
(0.200211 0.000130851 0)
(0.200181 0.000112951 0)
(0.200156 9.72936e-05 0)
(0.200133 8.36157e-05 0)
(0.200114 7.17014e-05 0)
(0.200097 6.13329e-05 0)
(0.200083 5.23624e-05 0)
(0.200071 4.45718e-05 0)
(0.20006 3.79077e-05 0)
(0.200051 3.20919e-05 0)
(0.200043 2.72263e-05 0)
(0.200036 2.28965e-05 0)
(0.20003 1.94195e-05 0)
(0.200025 1.6206e-05 0)
(0.200021 1.37675e-05 0)
(0.200018 1.1415e-05 0)
(0.200015 9.72146e-06 0)
(0.200012 8.03672e-06 0)
(0.20001 6.88804e-06 0)
(0.200008 5.6938e-06 0)
(0.200007 4.96144e-06 0)
(0.200005 4.13461e-06 0)
(0.200004 3.70431e-06 0)
(0.200003 3.171e-06 0)
(0.200002 2.97536e-06 0)
(0.200001 2.67271e-06 0)
(0.199064 0.00381941 0)
(0.199271 0.00407344 0)
(0.199498 0.00426099 0)
(0.199635 0.00448977 0)
(0.199862 0.00468684 0)
(0.200253 0.00471195 0)
(0.200562 0.00467786 0)
(0.200773 0.00464529 0)
(0.201076 0.0044836 0)
(0.201368 0.00422105 0)
(0.201509 0.00398085 0)
(0.201618 0.00372269 0)
(0.201746 0.00339996 0)
(0.201785 0.0030833 0)
(0.201743 0.00280233 0)
(0.201719 0.00251281 0)
(0.201703 0.00221377 0)
(0.201634 0.00194143 0)
(0.201527 0.00169868 0)
(0.201422 0.00146985 0)
(0.201317 0.00125771 0)
(0.201201 0.00107218 0)
(0.201078 0.000913124 0)
(0.200959 0.000775926 0)
(0.200848 0.000658709 0)
(0.200745 0.000560431 0)
(0.200649 0.000478616 0)
(0.200564 0.00041027 0)
(0.200488 0.000352887 0)
(0.200422 0.00030443 0)
(0.200364 0.000263176 0)
(0.200314 0.000227747 0)
(0.20027 0.000197103 0)
(0.200233 0.000170468 0)
(0.2002 0.000147251 0)
(0.200172 0.000126988 0)
(0.200148 0.000109308 0)
(0.200126 9.38941e-05 0)
(0.200108 8.04877e-05 0)
(0.200092 6.88341e-05 0)
(0.200079 5.87594e-05 0)
(0.200067 5.00158e-05 0)
(0.200057 4.25374e-05 0)
(0.200048 3.60153e-05 0)
(0.200041 3.05555e-05 0)
(0.200034 2.57023e-05 0)
(0.200029 2.17981e-05 0)
(0.200024 1.81976e-05 0)
(0.20002 1.54566e-05 0)
(0.200017 1.28204e-05 0)
(0.200014 1.09152e-05 0)
(0.200011 9.02529e-06 0)
(0.20001 7.73193e-06 0)
(0.200008 6.38962e-06 0)
(0.200006 5.56376e-06 0)
(0.200005 4.6311e-06 0)
(0.200004 4.14508e-06 0)
(0.200003 3.5391e-06 0)
(0.200002 3.31746e-06 0)
(0.200001 2.96748e-06 0)
(0.199235 0.00369779 0)
(0.199392 0.00394051 0)
(0.199597 0.00411372 0)
(0.199743 0.00428894 0)
(0.199914 0.0044666 0)
(0.200219 0.00451941 0)
(0.200503 0.0044773 0)
(0.200686 0.0044374 0)
(0.200919 0.00432556 0)
(0.201181 0.00410643 0)
(0.201327 0.00387715 0)
(0.201413 0.00364561 0)
(0.201521 0.00335962 0)
(0.201576 0.00306066 0)
(0.201551 0.00279544 0)
(0.201524 0.00253292 0)
(0.201511 0.002254 0)
(0.201462 0.0019888 0)
(0.201373 0.00175288 0)
(0.201279 0.00153383 0)
(0.201189 0.00132781 0)
(0.20109 0.00114325 0)
(0.200983 0.000982978 0)
(0.200878 0.000843428 0)
(0.20078 0.000722242 0)
(0.200687 0.000618648 0)
(0.200602 0.00053095 0)
(0.200524 0.000456651 0)
(0.200455 0.000393495 0)
(0.200394 0.000339652 0)
(0.20034 0.000293543 0)
(0.200294 0.000253838 0)
(0.200253 0.000219478 0)
(0.200218 0.000189639 0)
(0.200187 0.00016367 0)
(0.200161 0.000141046 0)
(0.200138 0.000121339 0)
(0.200118 0.000104183 0)
(0.200101 8.92799e-05 0)
(0.200086 7.63373e-05 0)
(0.200074 6.51556e-05 0)
(0.200063 5.5457e-05 0)
(0.200053 4.71633e-05 0)
(0.200045 3.99342e-05 0)
(0.200038 3.38799e-05 0)
(0.200032 2.85036e-05 0)
(0.200027 2.41724e-05 0)
(0.200022 2.01853e-05 0)
(0.200019 1.71422e-05 0)
(0.200016 1.42228e-05 0)
(0.200013 1.21062e-05 0)
(0.200011 1.00114e-05 0)
(0.200009 8.57367e-06 0)
(0.200007 7.08361e-06 0)
(0.200006 6.16434e-06 0)
(0.200004 5.12622e-06 0)
(0.200004 4.58449e-06 0)
(0.200002 3.90602e-06 0)
(0.200002 3.6585e-06 0)
(0.200001 3.26109e-06 0)
(0.199393 0.00358627 0)
(0.199508 0.00380962 0)
(0.19968 0.00397715 0)
(0.199827 0.00411941 0)
(0.199964 0.00426461 0)
(0.200188 0.00433196 0)
(0.200434 0.00430094 0)
(0.200605 0.00425436 0)
(0.20078 0.00417069 0)
(0.200993 0.00399144 0)
(0.201137 0.00377488 0)
(0.201214 0.00356316 0)
(0.2013 0.00331699 0)
(0.201362 0.0030431 0)
(0.201353 0.00278752 0)
(0.201326 0.00254292 0)
(0.201313 0.00228563 0)
(0.201279 0.00203217 0)
(0.201209 0.00180291 0)
(0.201128 0.00159226 0)
(0.201051 0.00139305 0)
(0.200968 0.00121054 0)
(0.200878 0.00104941 0)
(0.200788 0.000907904 0)
(0.200702 0.000783501 0)
(0.200621 0.000675349 0)
(0.200546 0.000582352 0)
(0.200477 0.00050256 0)
(0.200415 0.000433997 0)
(0.20036 0.000375022 0)
(0.200312 0.000324208 0)
(0.200269 0.000280298 0)
(0.200232 0.00024224 0)
(0.2002 0.000209181 0)
(0.200172 0.000180426 0)
(0.200148 0.0001554 0)
(0.200127 0.000133626 0)
(0.200108 0.00011469 0)
(0.200093 9.82547e-05 0)
(0.200079 8.39936e-05 0)
(0.200067 7.16796e-05 0)
(0.200057 6.1005e-05 0)
(0.200049 5.18782e-05 0)
(0.200041 4.39274e-05 0)
(0.200035 3.72662e-05 0)
(0.200029 3.13564e-05 0)
(0.200025 2.65898e-05 0)
(0.200021 2.22087e-05 0)
(0.200017 1.88577e-05 0)
(0.200014 1.56499e-05 0)
(0.200012 1.3318e-05 0)
(0.20001 1.10147e-05 0)
(0.200008 9.42987e-06 0)
(0.200006 7.78951e-06 0)
(0.200005 6.775e-06 0)
(0.200004 5.62966e-06 0)
(0.200003 5.03109e-06 0)
(0.200002 4.2788e-06 0)
(0.200002 4.00498e-06 0)
(0.200001 3.55898e-06 0)
(0.199537 0.00348496 0)
(0.199622 0.00368549 0)
(0.199755 0.00384654 0)
(0.199887 0.00397016 0)
(0.200003 0.00408417 0)
(0.200164 0.00415458 0)
(0.200361 0.00414254 0)
(0.200514 0.00409212 0)
(0.200647 0.00401741 0)
(0.200809 0.00387416 0)
(0.200941 0.00368204 0)
(0.201014 0.00348633 0)
(0.201079 0.00327 0)
(0.201135 0.00302239 0)
(0.201141 0.00277786 0)
(0.201119 0.00254703 0)
(0.201105 0.00231077 0)
(0.201083 0.00207215 0)
(0.201031 0.00184969 0)
(0.200965 0.00164547 0)
(0.2009 0.00145292 0)
(0.200832 0.00127365 0)
(0.200759 0.00111243 0)
(0.200684 0.000969349 0)
(0.200612 0.000842315 0)
(0.200543 0.000730312 0)
(0.200479 0.000632604 0)
(0.20042 0.000547781 0)
(0.200367 0.000474186 0)
(0.200319 0.000410359 0)
(0.200276 0.00035502 0)
(0.200239 0.000307005 0)
(0.200206 0.000265293 0)
(0.200178 0.00022902 0)
(0.200153 0.000197464 0)
(0.200131 0.000170008 0)
(0.200112 0.000146133 0)
(0.200096 0.000125385 0)
(0.200082 0.000107389 0)
(0.20007 9.17832e-05 0)
(0.20006 7.83144e-05 0)
(0.200051 6.66449e-05 0)
(0.200043 5.66692e-05 0)
(0.200036 4.79835e-05 0)
(0.200031 4.07047e-05 0)
(0.200026 3.42523e-05 0)
(0.200022 2.90428e-05 0)
(0.200018 2.42616e-05 0)
(0.200015 2.05978e-05 0)
(0.200013 1.70971e-05 0)
(0.200011 1.45467e-05 0)
(0.200009 1.20317e-05 0)
(0.200007 1.02976e-05 0)
(0.200006 8.5049e-06 0)
(0.200005 7.39365e-06 0)
(0.200004 6.13964e-06 0)
(0.200003 5.48337e-06 0)
(0.200002 4.65613e-06 0)
(0.200002 4.35569e-06 0)
(0.200001 3.8602e-06 0)
(0.199663 0.00339635 0)
(0.199726 0.00357445 0)
(0.199822 0.00372515 0)
(0.199929 0.0038394 0)
(0.200027 0.00393245 0)
(0.200141 0.00399584 0)
(0.200285 0.00399734 0)
(0.200411 0.00395086 0)
(0.200515 0.00388036 0)
(0.200632 0.00376413 0)
(0.200741 0.0035986 0)
(0.200807 0.00341615 0)
(0.200856 0.00322 0)
(0.200901 0.00299842 0)
(0.200916 0.00276935 0)
(0.200902 0.00254932 0)
(0.200889 0.0023293 0)
(0.200872 0.0021057 0)
(0.200837 0.00189118 0)
(0.200787 0.00169228 0)
(0.200735 0.0015055 0)
(0.200682 0.00133014 0)
(0.200625 0.00116967 0)
(0.200566 0.00102549 0)
(0.200508 0.000896389 0)
(0.200453 0.000781325 0)
(0.200401 0.000679695 0)
(0.200352 0.000590515 0)
(0.200308 0.000512463 0)
(0.200269 0.000444265 0)
(0.200233 0.000384775 0)
(0.200202 0.000332931 0)
(0.200174 0.000287761 0)
(0.20015 0.000248414 0)
(0.200129 0.000214151 0)
(0.200111 0.00018433 0)
(0.200095 0.000158402 0)
(0.200081 0.000135876 0)
(0.200069 0.000116346 0)
(0.200059 9.94181e-05 0)
(0.20005 8.48135e-05 0)
(0.200043 7.21657e-05 0)
(0.200036 6.13559e-05 0)
(0.200031 5.19489e-05 0)
(0.200026 4.40641e-05 0)
(0.200022 3.70803e-05 0)
(0.200018 3.1437e-05 0)
(0.200015 2.62645e-05 0)
(0.200013 2.22947e-05 0)
(0.200011 1.85081e-05 0)
(0.200009 1.57441e-05 0)
(0.200007 1.30227e-05 0)
(0.200006 1.11428e-05 0)
(0.200005 9.20157e-06 0)
(0.200004 7.99592e-06 0)
(0.200003 6.63595e-06 0)
(0.200003 5.92342e-06 0)
(0.200002 5.02299e-06 0)
(0.200001 4.69665e-06 0)
(0.200001 4.1527e-06 0)
(0.199771 0.00332275 0)
(0.199816 0.00348202 0)
(0.19988 0.00362113 0)
(0.199958 0.00372943 0)
(0.200033 0.00381006 0)
(0.200111 0.00386333 0)
(0.200207 0.00387199 0)
(0.200302 0.00383469 0)
(0.20038 0.00376783 0)
(0.200459 0.00366664 0)
(0.200537 0.00352336 0)
(0.200591 0.00335532 0)
(0.200628 0.00317392 0)
(0.20066 0.00297354 0)
(0.200676 0.00276071 0)
(0.200671 0.00254994 0)
(0.20066 0.00234143 0)
(0.200649 0.00213122 0)
(0.200626 0.00192556 0)
(0.200592 0.00173161 0)
(0.200554 0.00154937 0)
(0.200515 0.00137777 0)
(0.200475 0.00121874 0)
(0.200432 0.00107401 0)
(0.200389 0.00094335 0)
(0.200348 0.000825943 0)
(0.200309 0.000721213 0)
(0.200273 0.000628454 0)
(0.200239 0.000546656 0)
(0.200209 0.000474735 0)
(0.200182 0.000411664 0)
(0.200157 0.000356471 0)
(0.200136 0.000308242 0)
(0.200117 0.000266147 0)
(0.200101 0.000229446 0)
(0.200086 0.000197482 0)
(0.200074 0.000169681 0)
(0.200063 0.000145529 0)
(0.200054 0.000124591 0)
(0.200046 0.000106446 0)
(0.200039 9.07958e-05 0)