/*--------------------------------*- C++ -*----------------------------------*\
| =========                 |                                                 |
| \\      /  F ield         | OpenFOAM: The Open Source CFD Toolbox           |
|  \\    /   O peration     | Version:  2.3.0                                 |
|   \\  /    A nd           | Web:      www.OpenFOAM.org                      |
|    \\/     M anipulation  |                                                 |
\*---------------------------------------------------------------------------*/
FoamFile
{
    version     2.0;
    format      ascii;
    class       volVectorField;
    location    "0.1";
    object      U_0;
}
// * * * * * * * * * * * * * * * * * * * * * * * * * * * * * * * * * * * * * //

dimensions      [0 1 -1 0 0 0 0];

internalField   nonuniform List<vector> 
1650
(
(0.179419 0.00361008 0)
(0.160027 0.004745 0)
(0.142105 0.00486987 0)
(0.123724 0.00447231 0)
(0.105505 0.00386506 0)
(0.088767 0.00314827 0)
(0.0746505 0.00236042 0)
(0.0635953 0.00148114 0)
(0.0555726 0.000678688 0)
(0.0500448 0.000140949 0)
(0.0463744 -0.000128749 0)
(0.0440562 -0.000229191 0)
(0.0426282 -0.000248693 0)
(0.0417613 -0.000228169 0)
(0.0413034 -0.000174199 0)
(0.0411454 -0.00010412 0)
(0.0411533 -4.94464e-05 0)
(0.0412391 -2.02763e-05 0)
(0.0413877 -1.37208e-05 0)
(0.0415932 -1.55441e-05 0)
(0.041827 -1.6732e-05 0)
(0.0420524 -1.57123e-05 0)
(0.0422452 -1.30963e-05 0)
(0.0423963 -1.03515e-05 0)
(0.0425073 -8.18965e-06 0)
(0.0425863 -6.49989e-06 0)
(0.0426425 -5.22607e-06 0)
(0.0426836 -4.29685e-06 0)
(0.0427151 -3.59071e-06 0)
(0.0427405 -3.03862e-06 0)
(0.0427619 -2.60926e-06 0)
(0.0427802 -2.26168e-06 0)
(0.0427963 -1.97011e-06 0)
(0.0428105 -1.71988e-06 0)
(0.042823 -1.50147e-06 0)
(0.042834 -1.30919e-06 0)
(0.0428437 -1.13965e-06 0)
(0.0428523 -9.90349e-07 0)
(0.0428598 -8.58934e-07 0)
(0.0428664 -7.43771e-07 0)
(0.0428722 -6.43077e-07 0)
(0.0428772 -5.54781e-07 0)
(0.0428817 -4.77165e-07 0)
(0.0428855 -4.09958e-07 0)
(0.0428889 -3.50987e-07 0)
(0.0428918 -3.00603e-07 0)
(0.0428943 -2.55617e-07 0)
(0.0428965 -2.17737e-07 0)
(0.0428983 -1.83612e-07 0)
(0.0429 -1.55186e-07 0)
(0.0429013 -1.29725e-07 0)
(0.0429025 -1.07728e-07 0)
(0.0429035 -8.91053e-08 0)
(0.0429042 -7.14602e-08 0)
(0.042905 -5.81092e-08 0)
(0.0429054 -4.33352e-08 0)
(0.0429059 -3.33439e-08 0)
(0.0429061 -2.17712e-08 0)
(0.0429064 -1.38504e-08 0)
(0.0429065 -4.63869e-09 0)
(0.193384 0.00645451 0)
(0.191555 0.00857681 0)
(0.189691 0.0093505 0)
(0.186373 0.00946213 0)
(0.180813 0.00905051 0)
(0.173637 0.00826513 0)
(0.166096 0.00724771 0)
(0.158557 0.006028 0)
(0.151195 0.00472456 0)
(0.144294 0.00347 0)
(0.137999 0.00239528 0)
(0.132468 0.00161853 0)
(0.127847 0.00110249 0)
(0.124095 0.000692467 0)
(0.121122 0.000358934 0)
(0.118907 0.000139127 0)
(0.117422 9.38266e-06 0)
(0.116552 -7.44228e-05 0)
(0.116162 -0.000132851 0)
(0.116127 -0.000159753 0)
(0.116318 -0.000156169 0)
(0.116617 -0.000132098 0)
(0.116929 -0.000100027 0)
(0.1172 -7.00886e-05 0)
(0.117411 -4.72001e-05 0)
(0.117561 -3.17339e-05 0)
(0.117663 -2.21332e-05 0)
(0.117731 -1.64297e-05 0)
(0.117778 -1.29857e-05 0)
(0.11781 -1.07483e-05 0)
(0.117835 -9.17271e-06 0)
(0.117854 -7.95161e-06 0)
(0.11787 -6.93447e-06 0)
(0.117884 -6.05752e-06 0)
(0.117896 -5.2902e-06 0)
(0.117906 -4.61524e-06 0)
(0.117915 -4.02089e-06 0)
(0.117923 -3.49826e-06 0)
(0.11793 -3.03905e-06 0)
(0.117936 -2.63589e-06 0)
(0.117942 -2.28196e-06 0)
(0.117946 -1.97302e-06 0)
(0.117951 -1.70224e-06 0)
(0.117954 -1.46689e-06 0)
(0.117958 -1.25928e-06 0)
(0.11796 -1.08085e-06 0)
(0.117963 -9.21991e-07 0)
(0.117965 -7.88277e-07 0)
(0.117967 -6.66724e-07 0)
(0.117969 -5.66316e-07 0)
(0.11797 -4.73455e-07 0)
(0.117971 -3.97426e-07 0)
(0.117972 -3.26736e-07 0)
(0.117973 -2.67526e-07 0)
(0.117974 -2.14162e-07 0)
(0.117974 -1.64734e-07 0)
(0.117975 -1.26697e-07 0)
(0.117975 -8.04093e-08 0)
(0.117975 -5.66826e-08 0)
(0.117975 -1.17995e-08 0)
(0.194646 0.00604021 0)
(0.194326 0.00758734 0)
(0.195292 0.00871837 0)
(0.196876 0.00953042 0)
(0.197373 0.009768 0)
(0.196423 0.00937231 0)
(0.194851 0.00851823 0)
(0.192964 0.0074985 0)
(0.19062 0.00646629 0)
(0.187822 0.00538439 0)
(0.184684 0.00432028 0)
(0.181466 0.00344163 0)
(0.178453 0.00277421 0)
(0.175728 0.00218995 0)
(0.173281 0.00163937 0)
(0.17117 0.00116799 0)
(0.169459 0.000785381 0)
(0.16813 0.000456506 0)
(0.167141 0.000177011 0)
(0.166465 -2.89475e-05 0)
(0.166077 -0.000151865 0)
(0.165926 -0.00020118 0)
(0.165939 -0.000197848 0)
(0.166043 -0.000165752 0)
(0.166177 -0.000124867 0)
(0.166303 -8.7666e-05 0)
(0.1664 -5.91755e-05 0)
(0.166468 -3.95969e-05 0)
(0.166509 -2.71271e-05 0)
(0.166532 -1.95105e-05 0)
(0.166543 -1.48781e-05 0)
(0.166547 -1.19444e-05 0)
(0.166548 -9.94273e-06 0)
(0.166547 -8.4609e-06 0)
(0.166545 -7.28655e-06 0)
(0.166543 -6.31276e-06 0)
(0.166541 -5.48387e-06 0)
(0.16654 -4.76953e-06 0)
(0.166538 -4.14833e-06 0)
(0.166537 -3.60827e-06 0)
(0.166536 -3.13476e-06 0)
(0.166535 -2.721e-06 0)
(0.166534 -2.35728e-06 0)
(0.166534 -2.04165e-06 0)
(0.166533 -1.76062e-06 0)
(0.166533 -1.52032e-06 0)
(0.166533 -1.30072e-06 0)
(0.166533 -1.12059e-06 0)
(0.166533 -9.47178e-07 0)
(0.166532 -8.13324e-07 0)
(0.166532 -6.74663e-07 0)
(0.166532 -5.74504e-07 0)
(0.166532 -4.63988e-07 0)
(0.166532 -3.85455e-07 0)
(0.166532 -2.99807e-07 0)
(0.166532 -2.27517e-07 0)
(0.166532 -1.71577e-07 0)
(0.166532 -9.01936e-08 0)
(0.166532 -6.11788e-08 0)
(0.166531 2.01209e-08 0)
(0.195708 0.00574422 0)
(0.195484 0.00684043 0)
(0.195984 0.00778002 0)
(0.197749 0.0086832 0)
(0.199497 0.00923397 0)
(0.200441 0.00908781 0)
(0.200941 0.00833866 0)
(0.201261 0.00742858 0)
(0.201302 0.00662046 0)
(0.200918 0.00579971 0)
(0.20005 0.00489289 0)
(0.198881 0.00406111 0)
(0.197684 0.003391 0)
(0.196527 0.00279754 0)
(0.195368 0.00222347 0)
(0.194251 0.00169773 0)
(0.19325 0.00123836 0)
(0.192376 0.000834489 0)
(0.191611 0.00048835 0)
(0.190953 0.000214756 0)
(0.190421 2.15e-05 0)
(0.190031 -9.56987e-05 0)
(0.18978 -0.000149759 0)
(0.189645 -0.000157484 0)
(0.189591 -0.000137904 0)
(0.189581 -0.000107501 0)
(0.189589 -7.70912e-05 0)
(0.189597 -5.20268e-05 0)
(0.189597 -3.37437e-05 0)
(0.18959 -2.16062e-05 0)
(0.189576 -1.40482e-05 0)
(0.189558 -9.50795e-06 0)
(0.189539 -6.81283e-06 0)
(0.18952 -5.18503e-06 0)
(0.189503 -4.15508e-06 0)
(0.189487 -3.45825e-06 0)
(0.189472 -2.9513e-06 0)
(0.18946 -2.5594e-06 0)
(0.189448 -2.24006e-06 0)
(0.189439 -1.97336e-06 0)
(0.18943 -1.74243e-06 0)
(0.189423 -1.54209e-06 0)
(0.189417 -1.36104e-06 0)
(0.189412 -1.20574e-06 0)
(0.189407 -1.05653e-06 0)
(0.189403 -9.36343e-07 0)
(0.1894 -8.07043e-07 0)
(0.189397 -7.17504e-07 0)
(0.189395 -6.01537e-07 0)
(0.189392 -5.35785e-07 0)
(0.189391 -4.31419e-07 0)
(0.189389 -3.80443e-07 0)
(0.189388 -2.88989e-07 0)
(0.189387 -2.43535e-07 0)
(0.189386 -1.6839e-07 0)
(0.189385 -1.11758e-07 0)
(0.189385 -6.65397e-08 0)
(0.189384 1.61002e-08 0)
(0.189384 3.59135e-08 0)
(0.189383 1.28184e-07 0)
(0.196319 0.00554508 0)
(0.196367 0.00642943 0)
(0.196572 0.00717511 0)
(0.197786 0.00798832 0)
(0.199415 0.00864035 0)
(0.200756 0.0086473 0)
(0.201778 0.0079706 0)
(0.202547 0.00710599 0)
(0.203108 0.00640254 0)
(0.203446 0.00573768 0)
(0.20345 0.00497099 0)
(0.20318 0.00420746 0)
(0.202827 0.00354909 0)
(0.20245 0.00296857 0)
(0.202007 0.002424 0)
(0.201518 0.0019185 0)
(0.201035 0.00146154 0)
(0.200567 0.00105282 0)
(0.2001 0.000699965 0)
(0.199639 0.000413612 0)
(0.199204 0.000196589 0)
(0.198818 4.58218e-05 0)
(0.198501 -4.55119e-05 0)
(0.19826 -8.78025e-05 0)
(0.198089 -9.53312e-05 0)
(0.197971 -8.27638e-05 0)
(0.197889 -6.2092e-05 0)
(0.197829 -4.11856e-05 0)
(0.197779 -2.4053e-05 0)
(0.197736 -1.19021e-05 0)
(0.197695 -4.2007e-06 0)
(0.197657 2.00775e-07 0)
(0.197622 2.41744e-06 0)
(0.19759 3.32195e-06 0)
(0.197561 3.50407e-06 0)
(0.197534 3.32362e-06 0)
(0.197511 2.98409e-06 0)
(0.197491 2.59329e-06 0)
(0.197473 2.20588e-06 0)
(0.197458 1.84593e-06 0)
(0.197445 1.52719e-06 0)
(0.197433 1.24623e-06 0)
(0.197423 1.01334e-06 0)
(0.197415 8.06147e-07 0)
(0.197407 6.51797e-07 0)
(0.197401 4.99562e-07 0)
(0.197396 4.12517e-07 0)
(0.197391 2.98318e-07 0)
(0.197387 2.6435e-07 0)
(0.197384 1.79709e-07 0)
(0.197381 1.80327e-07 0)
(0.197379 1.23892e-07 0)
(0.197377 1.44389e-07 0)
(0.197375 1.15342e-07 0)
(0.197374 1.43595e-07 0)
(0.197372 1.51064e-07 0)
(0.197371 1.66086e-07 0)
(0.19737 2.17376e-07 0)
(0.19737 2.21905e-07 0)
(0.197368 3.00219e-07 0)
(0.196713 0.00527526 0)
(0.196938 0.00609812 0)
(0.197139 0.00677336 0)
(0.197992 0.00745566 0)
(0.199287 0.00807291 0)
(0.200594 0.00815932 0)
(0.20173 0.00757554 0)
(0.202539 0.00680159 0)
(0.203082 0.00618455 0)
(0.203505 0.00560196 0)
(0.203751 0.00492441 0)
(0.203778 0.00422587 0)
(0.203692 0.00359014 0)
(0.203557 0.00302199 0)
(0.203362 0.00250843 0)
(0.203121 0.00203983 0)
(0.20286 0.00160337 0)
(0.202574 0.00119952 0)
(0.202256 0.000847076 0)
(0.201916 0.000559652 0)
(0.201572 0.000336578 0)
(0.201242 0.000172355 0)
(0.200944 6.26996e-05 0)
(0.200688 -9.11861e-08 0)
(0.20048 -2.73334e-05 0)
(0.200316 -3.14378e-05 0)
(0.200188 -2.3299e-05 0)
(0.200087 -1.11444e-05 0)
(0.200007 1.15059e-07 0)
(0.199939 8.38625e-06 0)
(0.199882 1.33715e-05 0)
(0.199831 1.56583e-05 0)
(0.199787 1.60756e-05 0)
(0.199747 1.53656e-05 0)
(0.199712 1.4073e-05 0)
(0.199681 1.25477e-05 0)
(0.199654 1.09936e-05 0)
(0.19963 9.51698e-06 0)
(0.199609 8.16894e-06 0)
(0.199591 6.9643e-06 0)
(0.199576 5.90907e-06 0)
(0.199562 4.98524e-06 0)
(0.199551 4.20017e-06 0)
(0.199541 3.50943e-06 0)
(0.199532 2.94939e-06 0)
(0.199525 2.43501e-06 0)
(0.199518 2.05713e-06 0)
(0.199513 1.67285e-06 0)
(0.199508 1.4336e-06 0)
(0.199504 1.15051e-06 0)
(0.199501 1.00648e-06 0)
(0.199498 8.0894e-07 0)
(0.199496 7.28285e-07 0)
(0.199494 6.00471e-07 0)
(0.199492 5.61217e-07 0)
(0.19949 4.99684e-07 0)
(0.19949 4.75077e-07 0)
(0.199488 4.77102e-07 0)
(0.199488 4.65668e-07 0)
(0.199486 5.11065e-07 0)
(0.197091 0.00502433 0)
(0.197358 0.00579802 0)
(0.197563 0.00642826 0)
(0.19826 0.00697787 0)
(0.19932 0.00751299 0)
(0.200448 0.00764916 0)
(0.201527 0.00717518 0)
(0.202326 0.00651522 0)
(0.202821 0.00598657 0)
(0.203212 0.00545717 0)
(0.203509 0.00482922 0)
(0.203628 0.00419358 0)
(0.203615 0.00360541 0)
(0.203541 0.00306037 0)
(0.203421 0.00256759 0)
(0.203261 0.00212251 0)
(0.20307 0.00170069 0)
(0.202847 0.00130401 0)
(0.20259 0.00095859 0)
(0.20231 0.00067858 0)
(0.202019 0.000459072 0)
(0.201732 0.000291684 0)
(0.201462 0.000171865 0)
(0.20122 9.44218e-05 0)
(0.201011 5.09094e-05 0)
(0.200836 3.12054e-05 0)
(0.200694 2.60387e-05 0)
(0.200579 2.77933e-05 0)
(0.200485 3.13953e-05 0)
(0.200407 3.41403e-05 0)
(0.200342 3.50662e-05 0)
(0.200286 3.42437e-05 0)
(0.200237 3.21583e-05 0)
(0.200195 2.93405e-05 0)
(0.200158 2.62187e-05 0)
(0.200125 2.30839e-05 0)
(0.200096 2.01088e-05 0)
(0.200071 1.73794e-05 0)
(0.20005 1.4932e-05 0)
(0.200031 1.2765e-05 0)
(0.200015 1.08735e-05 0)
(0.2 9.2209e-06 0)
(0.199988 7.81024e-06 0)
(0.199978 6.57243e-06 0)
(0.199969 5.5532e-06 0)
(0.199961 4.62997e-06 0)
(0.199955 3.92171e-06 0)
(0.199949 3.23278e-06 0)
(0.199944 2.75933e-06 0)
(0.19994 2.25316e-06 0)
(0.199937 1.94358e-06 0)
(0.199933 1.58693e-06 0)
(0.199931 1.39032e-06 0)
(0.199929 1.1503e-06 0)
(0.199927 1.03414e-06 0)
(0.199925 8.92776e-07 0)
(0.199925 8.23324e-07 0)
(0.199923 7.67586e-07 0)
(0.199922 7.37765e-07 0)
(0.199921 7.43284e-07 0)
(0.197456 0.00480888 0)
(0.197711 0.00547981 0)
(0.197887 0.00610003 0)
(0.198518 0.00657061 0)
(0.199439 0.00698366 0)
(0.200354 0.00714497 0)
(0.201293 0.0068011 0)
(0.202079 0.00624367 0)
(0.202564 0.00578171 0)
(0.202914 0.00530138 0)
(0.203213 0.00471866 0)
(0.203373 0.004143 0)
(0.203387 0.00361086 0)
(0.20333 0.00308995 0)
(0.203239 0.00260291 0)
(0.203112 0.00217268 0)
(0.20295 0.00177627 0)
(0.202757 0.00140222 0)
(0.202533 0.00107126 0)
(0.202286 0.000798801 0)
(0.202026 0.000580042 0)
(0.201767 0.000406862 0)
(0.201521 0.000276728 0)
(0.201296 0.000186629 0)
(0.201097 0.000129555 0)
(0.200926 9.66351e-05 0)
(0.200783 7.94417e-05 0)
(0.200665 7.11335e-05 0)
(0.200567 6.67196e-05 0)
(0.200487 6.32501e-05 0)
(0.200418 5.94004e-05 0)
(0.20036 5.48607e-05 0)
(0.200311 4.98006e-05 0)
(0.200267 4.45277e-05 0)
(0.200229 3.93273e-05 0)
(0.200196 3.44022e-05 0)
(0.200168 2.9871e-05 0)
(0.200142 2.57843e-05 0)
(0.200121 2.21534e-05 0)
(0.200102 1.89546e-05 0)
(0.200085 1.61685e-05 0)
(0.200071 1.37375e-05 0)
(0.200059 1.16592e-05 0)
(0.200048 9.83836e-06 0)
(0.200039 8.32912e-06 0)
(0.200032 6.97048e-06 0)
(0.200025 5.90921e-06 0)
(0.200019 4.89646e-06 0)
(0.200015 4.17261e-06 0)
(0.20001 3.42937e-06 0)
(0.200007 2.94268e-06 0)
(0.200004 2.41641e-06 0)
(0.200002 2.09635e-06 0)
(0.199999 1.73577e-06 0)
(0.199998 1.53863e-06 0)
(0.199996 1.31042e-06 0)
(0.199995 1.19407e-06 0)
(0.199993 1.07629e-06 0)
(0.199993 1.02583e-06 0)
(0.199991 9.89561e-07 0)
(0.197779 0.00461647 0)
(0.198048 0.00518109 0)
(0.198184 0.00579675 0)
(0.198723 0.00620762 0)
(0.199558 0.00648861 0)
(0.200317 0.0066708 0)
(0.201086 0.00646336 0)
(0.201827 0.00597928 0)
(0.202321 0.00556047 0)
(0.202644 0.00515034 0)
(0.202932 0.00462222 0)
(0.203112 0.0040786 0)
(0.203135 0.0035863 0)
(0.203084 0.00310328 0)
(0.203021 0.00263886 0)
(0.202928 0.00223051 0)
(0.202786 0.00186103 0)
(0.202607 0.00150639 0)
(0.202405 0.00118205 0)
(0.202184 0.000909585 0)
(0.201949 0.000689185 0)
(0.201713 0.000512587 0)
(0.201488 0.00037601 0)
(0.201281 0.000276653 0)
(0.201094 0.000208526 0)
(0.20093 0.000163883 0)
(0.200791 0.000135423 0)
(0.200674 0.00011714 0)
(0.200577 0.000104459 0)
(0.200495 9.4406e-05 0)
(0.200427 8.54028e-05 0)
(0.200368 7.68115e-05 0)
(0.200318 6.85052e-05 0)
(0.200274 6.05674e-05 0)
(0.200237 5.31288e-05 0)
(0.200204 4.6291e-05 0)
(0.200175 4.01085e-05 0)
(0.20015 3.45881e-05 0)
(0.200128 2.97115e-05 0)
(0.20011 2.54294e-05 0)
(0.200093 2.17054e-05 0)
(0.200079 1.84596e-05 0)
(0.200067 1.56825e-05 0)
(0.200057 1.32521e-05 0)
(0.200048 1.123e-05 0)
(0.20004 9.41668e-06 0)
(0.200034 7.98591e-06 0)
(0.200028 6.63541e-06 0)
(0.200023 5.64929e-06 0)
(0.200019 4.65861e-06 0)
(0.200016 3.98675e-06 0)
(0.200013 3.28293e-06 0)
(0.200011 2.83446e-06 0)
(0.200008 2.34691e-06 0)
(0.200007 2.06619e-06 0)
(0.200005 1.74608e-06 0)
(0.200004 1.58158e-06 0)
(0.200002 1.39852e-06 0)
(0.200002 1.32607e-06 0)
(0.2 1.24729e-06 0)
(0.198062 0.00446634 0)
(0.19836 0.00492005 0)
(0.198457 0.00547992 0)
(0.198886 0.00587578 0)
(0.199665 0.00607483 0)
(0.200319 0.00623142 0)
(0.200908 0.00612729 0)
(0.201582 0.00573149 0)
(0.202103 0.00535297 0)
(0.202402 0.00499884 0)
(0.202649 0.00451569 0)
(0.202842 0.00399581 0)
(0.202891 0.00355185 0)
(0.202851 0.00312962 0)
(0.202805 0.00269358 0)
(0.202736 0.00228875 0)
(0.202609 0.0019284 0)
(0.202441 0.00159008 0)
(0.202261 0.00127734 0)
(0.202066 0.00101052 0)
(0.201856 0.000793055 0)
(0.201642 0.000615988 0)
(0.201436 0.000474194 0)
(0.201244 0.000365942 0)
(0.20107 0.000287135 0)
(0.200915 0.000231355 0)
(0.200782 0.000192223 0)
(0.200668 0.000164389 0)
(0.200572 0.000143634 0)
(0.200492 0.000126996 0)
(0.200423 0.000112709 0)
(0.200365 9.98788e-05 0)
(0.200315 8.81358e-05 0)
(0.200272 7.73646e-05 0)
(0.200234 6.75488e-05 0)
(0.200202 5.86878e-05 0)
(0.200173 5.07665e-05 0)
(0.200149 4.37431e-05 0)
(0.200127 3.75647e-05 0)
(0.200109 3.21532e-05 0)
(0.200093 2.74529e-05 0)
(0.200079 2.336e-05 0)
(0.200067 1.98567e-05 0)
(0.200057 1.67935e-05 0)
(0.200048 1.42388e-05 0)
(0.200041 1.19541e-05 0)
(0.200034 1.01395e-05 0)
(0.200029 8.43914e-06 0)
(0.200024 7.18058e-06 0)
(0.20002 5.93342e-06 0)
(0.200017 5.06961e-06 0)
(0.200013 4.18122e-06 0)
(0.200011 3.60025e-06 0)
(0.200009 2.98012e-06 0)
(0.200008 2.6136e-06 0)
(0.200005 2.19754e-06 0)
(0.200005 1.98334e-06 0)
(0.200003 1.73263e-06 0)
(0.200003 1.63726e-06 0)
(0.200001 1.51507e-06 0)
(0.198302 0.00433803 0)
(0.198621 0.00468912 0)
(0.198723 0.00517003 0)
(0.199043 0.00558162 0)
(0.199736 0.00572758 0)
(0.200323 0.0058152 0)
(0.20078 0.00580022 0)
(0.201368 0.00551716 0)
(0.201891 0.00515017 0)
(0.202166 0.00481718 0)
(0.202374 0.00440496 0)
(0.202586 0.00393948 0)
(0.202668 0.00352969 0)
(0.202626 0.00314181 0)
(0.202577 0.00272491 0)
(0.202531 0.00232533 0)
(0.202429 0.00198033 0)
(0.202279 0.00166772 0)
(0.202116 0.00137323 0)
(0.201945 0.00111224 0)
(0.201758 0.000894655 0)
(0.201563 0.000715092 0)
(0.201374 0.000567999 0)
(0.201199 0.000451829 0)
(0.201037 0.000363693 0)
(0.200892 0.000298123 0)
(0.200765 0.000249356 0)
(0.200656 0.000212593 0)
(0.200563 0.000184024 0)
(0.200484 0.000160825 0)
(0.200416 0.000141148 0)
(0.200359 0.000123923 0)
(0.20031 0.000108583 0)
(0.200267 9.48341e-05 0)
(0.20023 8.25209e-05 0)
(0.200198 7.15395e-05 0)
(0.20017 6.18018e-05 0)
(0.200146 5.32128e-05 0)
(0.200125 4.56818e-05 0)
(0.200107 3.90992e-05 0)
(0.200091 3.3388e-05 0)
(0.200078 2.84189e-05 0)
(0.200066 2.41648e-05 0)
(0.200056 2.04482e-05 0)
(0.200047 1.73432e-05 0)
(0.20004 1.45723e-05 0)
(0.200034 1.23611e-05 0)
(0.200028 1.03e-05 0)
(0.200024 8.76009e-06 0)
(0.200019 7.24837e-06 0)
(0.200016 6.1867e-06 0)
(0.200013 5.10748e-06 0)
(0.200011 4.39043e-06 0)
(0.200009 3.63279e-06 0)
(0.200007 3.17842e-06 0)
(0.200005 2.663e-06 0)
(0.200005 2.3975e-06 0)
(0.200003 2.07745e-06 0)
(0.200003 1.9582e-06 0)
(0.200001 1.79154e-06 0)
(0.198511 0.00421228 0)
(0.198838 0.00450347 0)
(0.198976 0.00489128 0)
(0.199193 0.00528788 0)
(0.199772 0.00542343 0)
(0.200333 0.00546146 0)
(0.200703 0.0054903 0)
(0.20117 0.00529613 0)
(0.20167 0.00494742 0)
(0.201954 0.00464387 0)
(0.202135 0.00431412 0)
(0.202336 0.00389304 0)
(0.202436 0.00348219 0)
(0.202398 0.00311672 0)
(0.202352 0.00274377 0)
(0.202329 0.00237163 0)
(0.202255 0.0020408 0)
(0.202118 0.00174424 0)
(0.201968 0.00146278 0)
(0.201817 0.0012059 0)
(0.201653 0.000987891 0)
(0.201477 0.000807191 0)
(0.201306 0.000657081 0)
(0.201146 0.000534918 0)
(0.200997 0.00043872 0)
(0.200862 0.000364255 0)
(0.200742 0.000306531 0)
(0.200638 0.000261301 0)
(0.200549 0.000225175 0)
(0.200472 0.000195512 0)
(0.200407 0.000170436 0)
(0.20035 0.000148743 0)
(0.200302 0.000129704 0)
(0.20026 0.000112873 0)
(0.200224 9.79671e-05 0)
(0.200193 8.47843e-05 0)
(0.200166 7.31629e-05 0)
(0.200142 6.29537e-05 0)
(0.200122 5.40255e-05 0)
(0.200104 4.62353e-05 0)
(0.200089 3.94828e-05 0)
(0.200075 3.36124e-05 0)
(0.200064 2.85864e-05 0)
(0.200054 2.41986e-05 0)
(0.200046 2.05282e-05 0)
(0.200039 1.72584e-05 0)
(0.200033 1.464e-05 0)
(0.200027 1.22089e-05 0)
(0.200023 1.03801e-05 0)
(0.200019 8.59697e-06 0)
(0.200016 7.33254e-06 0)
(0.200013 6.05717e-06 0)
(0.200011 5.20102e-06 0)
(0.200009 4.30182e-06 0)
(0.200007 3.75773e-06 0)
(0.200005 3.14024e-06 0)
(0.200005 2.822e-06 0)
(0.200003 2.43124e-06 0)
(0.200003 2.28726e-06 0)
(0.200001 2.07515e-06 0)
(0.198708 0.00408712 0)
(0.199014 0.00434959 0)
(0.199188 0.00464131 0)
(0.199343 0.00499862 0)
(0.199804 0.00516409 0)
(0.200328 0.00516811 0)
(0.200644 0.0051815 0)
(0.201001 0.00506765 0)
(0.201465 0.00477949 0)
(0.201763 0.00449222 0)
(0.201908 0.00420287 0)
(0.202079 0.00382278 0)
(0.202201 0.00342962 0)
(0.202188 0.00309674 0)
(0.202143 0.00277081 0)
(0.202126 0.0024221 0)
(0.202073 0.002094 0)
(0.201954 0.00180576 0)
(0.201817 0.0015393 0)
(0.201685 0.00129178 0)
(0.201542 0.00107607 0)
(0.201387 0.000894938 0)
(0.201232 0.000742407 0)
(0.201086 0.000615022 0)
(0.20095 0.000511509 0)
(0.200825 0.000428911 0)
(0.200714 0.000362987 0)
(0.200616 0.000309909 0)
(0.200531 0.000266631 0)
(0.200457 0.000230716 0)
(0.200394 0.000200313 0)
(0.200339 0.000174139 0)
(0.200293 0.000151343 0)
(0.200252 0.000131358 0)
(0.200217 0.000113788 0)
(0.200187 9.83398e-05 0)
(0.20016 8.47813e-05 0)
(0.200137 7.29077e-05 0)
(0.200118 6.25464e-05 0)
(0.2001 5.35191e-05 0)
(0.200086 4.57012e-05 0)
(0.200073 3.89094e-05 0)
(0.200062 3.30949e-05 0)
(0.200052 2.80221e-05 0)
(0.200044 2.37746e-05 0)
(0.200037 1.9996e-05 0)
(0.200031 1.6962e-05 0)
(0.200026 1.4154e-05 0)
(0.200022 1.20307e-05 0)
(0.200018 9.97086e-06 0)
(0.200015 8.49997e-06 0)
(0.200012 7.02443e-06 0)
(0.200011 6.02688e-06 0)
(0.200008 4.98313e-06 0)
(0.200007 4.3478e-06 0)
(0.200005 3.62636e-06 0)
(0.200004 3.2542e-06 0)
(0.200003 2.79173e-06 0)
(0.200003 2.6224e-06 0)
(0.200001 2.36397e-06 0)
(0.198894 0.00395738 0)
(0.199156 0.0042074 0)
(0.199361 0.00443295 0)
(0.199495 0.00473456 0)
(0.199835 0.00492033 0)
(0.200299 0.00491397 0)
(0.200599 0.00490402 0)
(0.200875 0.00485153 0)
(0.201271 0.00462445 0)
(0.201564 0.00433759 0)
(0.201695 0.00407453 0)
(0.20184 0.00375843 0)
(0.201977 0.00340114 0)
(0.201987 0.00308176 0)
(0.201937 0.00278065 0)
(0.201919 0.00245597 0)
(0.201886 0.0021386 0)
(0.20179 0.00186095 0)
(0.201667 0.00160985 0)
(0.20155 0.00137281 0)
(0.201427 0.00115944 0)
(0.20129 0.000977186 0)
(0.201151 0.00082243 0)
(0.201019 0.000690909 0)
(0.200896 0.00058127 0)
(0.200782 0.000491537 0)
(0.200679 0.000418245 0)
(0.200588 0.000357971 0)
(0.200508 0.000307983 0)
(0.200438 0.000266074 0)
(0.200378 0.000230473 0)
(0.200326 0.00019986 0)
(0.200281 0.0001733 0)
(0.200242 0.000150127 0)
(0.200208 0.000129852 0)
(0.200179 0.000112099 0)
(0.200154 9.65675e-05 0)
(0.200132 8.29994e-05 0)
(0.200113 7.11802e-05 0)
(0.200096 6.08959e-05 0)
(0.200082 5.19963e-05 0)
(0.20007 4.427e-05 0)
(0.200059 3.76561e-05 0)
(0.20005 3.18894e-05 0)
(0.200042 2.70574e-05 0)
(0.200036 2.27641e-05 0)
(0.20003 1.93095e-05 0)
(0.200025 1.61202e-05 0)
(0.200021 1.36991e-05 0)
(0.200017 1.13594e-05 0)
(0.200015 9.6799e-06 0)
(0.200012 8.00176e-06 0)
(0.20001 6.86151e-06 0)
(0.200008 5.67146e-06 0)
(0.200007 4.94396e-06 0)
(0.200005 4.11758e-06 0)
(0.200004 3.69071e-06 0)
(0.200003 3.15599e-06 0)
(0.200002 2.96101e-06 0)
(0.200001 2.65566e-06 0)
(0.199071 0.00382791 0)
(0.199282 0.0040735 0)
(0.199496 0.00426241 0)
(0.199628 0.004497 0)
(0.199872 0.00468419 0)
(0.200264 0.00470008 0)
(0.200557 0.0046705 0)
(0.200773 0.00463461 0)
(0.201086 0.00446227 0)
(0.20137 0.0042002 0)
(0.201506 0.00396247 0)
(0.201622 0.00369794 0)
(0.20175 0.00337086 0)
(0.201781 0.00305617 0)
(0.201738 0.00277521 0)
(0.201717 0.00248326 0)
(0.201698 0.00218455 0)
(0.201625 0.0019145 0)
(0.201517 0.00167316 0)
(0.201411 0.00144567 0)
(0.201305 0.00123599 0)
(0.201187 0.0010534 0)
(0.201064 0.000897041 0)
(0.200947 0.000762404 0)
(0.200836 0.000647701 0)
(0.200733 0.000551693 0)
(0.200639 0.000471761 0)
(0.200555 0.000404919 0)
(0.20048 0.000348707 0)
(0.200415 0.000301135 0)
(0.200359 0.000260538 0)
(0.200309 0.000225597 0)
(0.200267 0.000195323 0)
(0.20023 0.000168978 0)
(0.200198 0.000145994 0)
(0.20017 0.000125924 0)
(0.200146 0.000108406 0)
(0.200125 9.31319e-05 0)
(0.200107 7.98449e-05 0)
(0.200091 6.82958e-05 0)
(0.200078 5.83085e-05 0)
(0.200066 4.96434e-05 0)
(0.200056 4.22267e-05 0)
(0.200048 3.57638e-05 0)
(0.20004 3.03454e-05 0)
(0.200034 2.55361e-05 0)
(0.200029 2.16599e-05 0)
(0.200024 1.80887e-05 0)
(0.20002 1.53692e-05 0)
(0.200017 1.27491e-05 0)
(0.200014 1.08609e-05 0)
(0.200011 8.97973e-06 0)
(0.20001 7.69672e-06 0)
(0.200007 6.36017e-06 0)
(0.200006 5.54038e-06 0)
(0.200005 4.60908e-06 0)
(0.200004 4.12731e-06 0)
(0.200003 3.52041e-06 0)
(0.200002 3.29977e-06 0)
(0.200001 2.9473e-06 0)
(0.199238 0.0037069 0)
(0.1994 0.00394307 0)
(0.199598 0.00411393 0)
(0.199737 0.00429379 0)
(0.199919 0.00446639 0)
(0.200229 0.00450835 0)
(0.200501 0.00446687 0)
(0.200684 0.00442761 0)
(0.200926 0.0043073 0)
(0.201184 0.00408474 0)
(0.201324 0.00385734 0)
(0.201414 0.00362196 0)
(0.201524 0.00333151 0)
(0.201574 0.00303394 0)
(0.201546 0.00276984 0)
(0.201522 0.00250516 0)
(0.201508 0.00222563 0)
(0.201454 0.00196253 0)
(0.201363 0.00172847 0)
(0.20127 0.00151066 0)
(0.201179 0.00130662 0)
(0.201078 0.00112469 0)
(0.200971 0.000966931 0)
(0.200867 0.000829706 0)
(0.200769 0.000710797 0)
(0.200677 0.000609322 0)
(0.200593 0.000523433 0)
(0.200516 0.000450615 0)
(0.200448 0.000388654 0)
(0.200388 0.000335753 0)
(0.200335 0.000290376 0)
(0.200289 0.000251237 0)
(0.20025 0.00021732 0)
(0.200215 0.000187834 0)
(0.200185 0.000162152 0)
(0.200159 0.000139765 0)
(0.200136 0.000120258 0)
(0.200117 0.000103272 0)
(0.2001 8.85131e-05 0)
(0.200085 7.56957e-05 0)
(0.200073 6.46183e-05 0)
(0.200062 5.50128e-05 0)
(0.200052 4.67925e-05 0)
(0.200044 3.9633e-05 0)
(0.200038 3.36282e-05 0)
(0.200032 2.83033e-05 0)
(0.200027 2.40056e-05 0)
(0.200022 2.0053e-05 0)
(0.200019 1.70355e-05 0)
(0.200015 1.41355e-05 0)
(0.200013 1.20389e-05 0)
(0.200011 9.95514e-06 0)
(0.200009 8.5297e-06 0)
(0.200007 7.04697e-06 0)
(0.200006 6.13501e-06 0)
(0.200004 5.09917e-06 0)
(0.200004 4.5625e-06 0)
(0.200002 3.88362e-06 0)
(0.200002 3.63743e-06 0)
(0.200001 3.23776e-06 0)
(0.199394 0.00359502 0)
(0.199514 0.00381406 0)
(0.199683 0.00397782 0)
(0.199824 0.00412184 0)
(0.199965 0.00426471 0)
(0.200195 0.00432288 0)
(0.200435 0.00428943 0)
(0.200602 0.00424413 0)
(0.200784 0.00415418 0)
(0.200997 0.00396932 0)
(0.201135 0.00375383 0)
(0.201213 0.00354098 0)
(0.201303 0.0032907 0)
(0.20136 0.00301646 0)
(0.201348 0.00276224 0)
(0.201323 0.00251661 0)
(0.20131 0.00225853 0)
(0.201273 0.0020067 0)
(0.201201 0.00177943 0)
(0.20112 0.00157003 0)
(0.201042 0.0013724 0)
(0.200958 0.00119217 0)
(0.200868 0.00103339 0)
(0.200778 0.000894031 0)
(0.200693 0.000771695 0)
(0.200612 0.000665505 0)
(0.200538 0.000574235 0)
(0.20047 0.000495895 0)
(0.200409 0.000428537 0)
(0.200355 0.000370547 0)
(0.200307 0.000320525 0)
(0.200265 0.000277249 0)
(0.200229 0.0002397 0)
(0.200197 0.000207055 0)
(0.20017 0.00017864 0)
(0.200146 0.000153896 0)
(0.200125 0.000132358 0)
(0.200107 0.000113624 0)
(0.200091 9.73587e-05 0)
(0.200078 8.32442e-05 0)
(0.200067 7.10523e-05 0)
(0.200057 6.04859e-05 0)
(0.200048 5.14448e-05 0)
(0.200041 4.35745e-05 0)
(0.200034 3.69712e-05 0)
(0.200029 3.11207e-05 0)
(0.200024 2.63934e-05 0)
(0.20002 2.20523e-05 0)
(0.200017 1.8731e-05 0)
(0.200014 1.55461e-05 0)
(0.200012 1.32373e-05 0)
(0.20001 1.09473e-05 0)
(0.200008 9.37684e-06 0)
(0.200006 7.74543e-06 0)
(0.200005 6.73952e-06 0)
(0.200004 5.5974e-06 0)
(0.200003 5.00475e-06 0)
(0.200002 4.25258e-06 0)
(0.200002 3.98042e-06 0)
(0.200001 3.53241e-06 0)
(0.199537 0.00349308 0)
(0.199625 0.00369102 0)
(0.199758 0.00384817 0)
(0.199886 0.00397093 0)
(0.200002 0.00408375 0)
(0.200168 0.00414763 0)
(0.200363 0.00413088 0)
(0.200512 0.00408025 0)
(0.200648 0.00400178 0)
(0.200812 0.00385315 0)
(0.20094 0.0036605 0)
(0.201012 0.00346456 0)
(0.20108 0.00324501 0)
(0.201134 0.00299607 0)
(0.201137 0.00275282 0)
(0.201116 0.00252204 0)
(0.201102 0.00228511 0)
(0.201078 0.00204746 0)
(0.201024 0.00182686 0)
(0.200958 0.00162402 0)
(0.200892 0.00143285 0)
(0.200824 0.00125552 0)
(0.20075 0.00109644 0)
(0.200675 0.000955357 0)
(0.200604 0.000830209 0)
(0.200536 0.000720014 0)
(0.200472 0.000623947 0)
(0.200414 0.000540541 0)
(0.200361 0.00046815 0)
(0.200314 0.000405337 0)
(0.200272 0.000350839 0)
(0.200235 0.000303516 0)
(0.200203 0.000262372 0)
(0.200175 0.00022657 0)
(0.200151 0.000195403 0)
(0.200129 0.000168274 0)
(0.200111 0.000144673 0)
(0.200095 0.000124158 0)
(0.200081 0.000106359 0)
(0.200069 9.09219e-05 0)
(0.200059 7.75938e-05 0)
(0.20005 6.60482e-05 0)
(0.200043 5.6171e-05 0)
(0.200036 4.75772e-05 0)
(0.20003 4.0365e-05 0)
(0.200026 3.398e-05 0)
(0.200022 2.88158e-05 0)
(0.200018 2.40802e-05 0)
(0.200015 2.04505e-05 0)
(0.200013 1.69764e-05 0)
(0.200011 1.44522e-05 0)
(0.200009 1.1953e-05 0)
(0.200007 1.02353e-05 0)
(0.200006 8.45316e-06 0)
(0.200005 7.35185e-06 0)
(0.200004 6.10204e-06 0)
(0.200003 5.45255e-06 0)
(0.200002 4.62599e-06 0)
(0.200002 4.32754e-06 0)
(0.200001 3.83031e-06 0)
(0.199663 0.00340386 0)
(0.199727 0.00358032 0)
(0.199824 0.00372773 0)
(0.199929 0.00383969 0)
(0.200026 0.00393118 0)
(0.200143 0.00398986 0)
(0.200287 0.00398615 0)
(0.20041 0.00393796 0)
(0.200515 0.00386511 0)
(0.200634 0.00374437 0)
(0.20074 0.0035768 0)
(0.200805 0.00339409 0)
(0.200856 0.00319607 0)
(0.2009 0.00297301 0)
(0.200913 0.0027446 0)
(0.200899 0.00252513 0)
(0.200886 0.00230482 0)
(0.200869 0.00208181 0)
(0.200832 0.00186887 0)
(0.200781 0.00167146 0)
(0.200729 0.00148599 0)
(0.200676 0.00131227 0)
(0.200618 0.00115373 0)
(0.200559 0.00101141 0)
(0.200501 0.000884052 0)
(0.200447 0.00077066 0)
(0.200395 0.00067058 0)
(0.200347 0.000582774 0)
(0.200304 0.000505916 0)
(0.200265 0.000438747 0)
(0.20023 0.000380133 0)
(0.200199 0.000329026 0)
(0.200172 0.000284475 0)
(0.200148 0.000245646 0)
(0.200127 0.000211819 0)
(0.200109 0.000182367 0)
(0.200094 0.000156749 0)
(0.20008 0.000134487 0)
(0.200069 0.000115181 0)
(0.200058 9.84438e-05 0)
(0.20005 8.39986e-05 0)
(0.200042 7.14908e-05 0)
(0.200036 6.07925e-05 0)
(0.20003 5.14888e-05 0)
(0.200026 4.36796e-05 0)
(0.200022 3.67713e-05 0)
(0.200018 3.11795e-05 0)
(0.200015 2.60583e-05 0)
(0.200013 2.21269e-05 0)
(0.200011 1.83705e-05 0)
(0.200009 1.56359e-05 0)
(0.200007 1.29327e-05 0)
(0.200006 1.10713e-05 0)
(0.200005 9.14226e-06 0)
(0.200004 7.94786e-06 0)
(0.200003 6.59308e-06 0)
(0.200003 5.88818e-06 0)
(0.200002 4.989e-06 0)
(0.200001 4.66497e-06 0)
(0.200001 4.11956e-06 0)
(0.199771 0.00332982 0)
(0.199816 0.0034879 0)
(0.199882 0.00362438 0)
(0.199959 0.0037298 0)
(0.200032 0.00380803 0)
(0.200112 0.00385763 0)
(0.200208 0.00386165 0)
(0.200301 0.00382145 0)
(0.200379 0.00375232 0)
(0.200459 0.00364761 0)
(0.200537 0.00350182 0)
(0.20059 0.00333312 0)
(0.200627 0.00315068 0)
(0.20066 0.00294903 0)
(0.200674 0.00273628 0)
(0.200669 0.00252618 0)
(0.200658 0.00231788 0)
(0.200646 0.00210814 0)
(0.200623 0.00190374 0)
(0.200588 0.00171123 0)
(0.200549 0.0015303 0)
(0.200511 0.00136018 0)
(0.20047 0.00120285 0)
(0.200427 0.00105985 0)
(0.200384 0.000930831 0)
(0.200343 0.000814986 0)
(0.200305 0.000711724 0)
(0.200269 0.000620297 0)
(0.200236 0.00053968 0)
(0.200206 0.000468795 0)
(0.200179 0.000406623 0)
(0.200155 0.000352201 0)
(0.200134 0.00030463 0)
(0.200115 0.000263094 0)
(0.200099 0.000226868 0)
(0.200085 0.000195307 0)
(0.200073 0.000167849 0)
(0.200062 0.000143989 0)
(0.200053 0.000123298 0)
(0.200045 0.000105365 0)
(0.200039 8.98917e-05 0)
(0.200033 7.64976e-05 0)