/*--------------------------------*- C++ -*----------------------------------*\
| =========                 |                                                 |
| \\      /  F ield         | OpenFOAM: The Open Source CFD Toolbox           |
|  \\    /   O peration     | Version:  2.3.0                                 |
|   \\  /    A nd           | Web:      www.OpenFOAM.org                      |
|    \\/     M anipulation  |                                                 |
\*---------------------------------------------------------------------------*/
FoamFile
{
    version     2.0;
    format      ascii;
    class       volScalarField;
    location    "0.75";
    object      p;
}
// * * * * * * * * * * * * * * * * * * * * * * * * * * * * * * * * * * * * * //

dimensions      [0 2 -2 0 0 0 0];

internalField   nonuniform List<scalar> 
2945
(
0.00276731
0.00181317
0.000676579
-0.000133746
-0.000541366
-0.000644308
-0.00060343
-0.00053364
-0.000480084
-0.000447155
-0.000426679
-0.000411363
-0.000397583
-0.000384201
-0.00037109
-0.000358353
-0.000346046
-0.000334164
-0.000322662
-0.000311501
-0.000300643
-0.000290073
-0.000279773
-0.000269743
-0.000259973
-0.00025047
-0.000241223
-0.000232242
-0.000223518
-0.000215057
-0.000206854
-0.000198916
-0.000191233
-0.000183817
-0.000176653
-0.000169753
-0.000163097
-0.000156695
-0.000150532
-0.000144611
-0.000138924
-0.000133468
-0.000128237
-0.000123223
-0.000118421
-0.000113814
-0.000109407
-0.000105172
-0.000101129
-9.7234e-05
-9.35246e-05
-8.9927e-05
-8.65035e-05
-8.31457e-05
-7.99529e-05
-7.67857e-05
-7.37833e-05
-7.07484e-05
-6.78732e-05
-6.48825e-05
-6.20588e-05
-5.90259e-05
-5.61697e-05
-5.30039e-05
-5.00311e-05
-4.65799e-05
-4.33668e-05
-3.94972e-05
-3.58902e-05
-3.13832e-05
-2.72537e-05
-2.1866e-05
-1.6977e-05
-1.03252e-05
-4.54707e-06
0.00235336
0.00168782
0.000694387
-7.53762e-05
-0.00047928
-0.000594954
-0.000569487
-0.000511353
-0.000465263
-0.000436644
-0.000418527
-0.000404566
-0.000391693
-0.00037902
-0.0003665
-0.000354261
-0.000342372
-0.000330843
-0.000319642
-0.000308741
-0.00029811
-0.000287739
-0.000277615
-0.000267743
-0.000258113
-0.000248736
-0.000239604
-0.000230726
-0.000222096
-0.000213722
-0.000205598
-0.000197732
-0.000190116
-0.000182761
-0.000175654
-0.000168806
-0.0001622
-0.000155843
-0.000149723
-0.00014384
-0.000138191
-0.000132769
-0.000127571
-0.000122587
-0.000117814
-0.000113233
-0.000108852
-0.00010464
-0.000100621
-9.67465e-05
-9.30583e-05
-8.9479e-05
-8.60749e-05
-8.27334e-05
-7.95582e-05
-7.64054e-05
-7.34194e-05
-7.03974e-05
-6.75377e-05
-6.4558e-05
-6.17489e-05
-5.87257e-05
-5.58829e-05
-5.27253e-05
-4.9766e-05
-4.6321e-05
-4.31205e-05
-3.92561e-05
-3.56612e-05
-3.11562e-05
-2.70392e-05
-2.16512e-05
-1.67746e-05
-1.01169e-05
-4.35515e-06
0.00202749
0.00156696
0.00073566
2.06313e-05
-0.000388312
-0.000530044
-0.00052821
-0.000485308
-0.000447699
-0.000423813
-0.000408548
-0.000396432
-0.000384846
-0.000373152
-0.000361424
-0.000349837
-0.000338482
-0.00032739
-0.000316549
-0.000305949
-0.000295573
-0.000285421
-0.000275487
-0.000265782
-0.000256299
-0.000247053
-0.000238038
-0.000229266
-0.000220731
-0.000212443
-0.000204397
-0.000196602
-0.000189052
-0.000181758
-0.000174706
-0.00016791
-0.000161351
-0.000155038
-0.000148959
-0.000143115
-0.000137502
-0.000132112
-0.000126946
-0.000121991
-0.000117246
-0.00011269
-0.000108335
-0.000104145
-0.000100147
-9.62928e-05
-9.26255e-05
-8.90634e-05
-8.56786e-05
-8.23522e-05
-7.91943e-05
-7.60547e-05
-7.30854e-05
-7.0075e-05
-6.72316e-05
-6.42615e-05
-6.1468e-05
-5.84528e-05
-5.56251e-05
-5.2474e-05
-4.95309e-05
-4.60897e-05
-4.29051e-05
-3.90438e-05
-3.54653e-05
-3.09593e-05
-2.68611e-05
-2.14701e-05
-1.66128e-05
-9.95486e-06
-4.22468e-06
0.00178569
0.00145166
0.000772403
0.000121428
-0.000287646
-0.0004543
-0.000476989
-0.000450412
-0.000422701
-0.000405211
-0.000394354
-0.00038527
-0.000375751
-0.000365517
-0.000354895
-0.000344193
-0.000333562
-0.000323063
-0.000312712
-0.000302518
-0.000292485
-0.000282627
-0.000272945
-0.000263459
-0.000254167
-0.00024509
-0.000236224
-0.000227584
-0.000219168
-0.000210985
-0.000203036
-0.000195328
-0.000187857
-0.000180636
-0.00017365
-0.000166914
-0.000160412
-0.00015415
-0.00014812
-0.000142319
-0.000136748
-0.000131396
-0.000126266
-0.000121344
-0.000116631
-0.000112105
-0.000107777
-0.000103613
-9.96405e-05
-9.58078e-05
-9.21637e-05
-8.8621e-05
-8.52575e-05
-8.19483e-05
-7.88094e-05
-7.56848e-05
-7.27339e-05
-6.97367e-05
-6.69113e-05
-6.39523e-05
-6.11761e-05
-5.81705e-05
-5.53593e-05
-5.22166e-05
-4.92914e-05
-4.5856e-05
-4.2689e-05
-3.88335e-05
-3.52731e-05
-3.07694e-05
-2.66922e-05
-2.13038e-05
-1.64669e-05
-9.8259e-06
-4.13281e-06
0.00159381
0.00133536
0.000786588
0.000206479
-0.000193153
-0.000378791
-0.000423025
-0.000411371
-0.000392987
-0.000381947
-0.000375995
-0.00037059
-0.000363711
-0.000355377
-0.000346201
-0.000336668
-0.000327004
-0.000317308
-0.000307621
-0.000297982
-0.000288416
-0.000278956
-0.000269616
-0.000260427
-0.000251395
-0.000242546
-0.000233881
-0.000225421
-0.000217165
-0.000209126
-0.000201306
-0.000193716
-0.000186351
-0.000179226
-0.000172329
-0.000165674
-0.000159246
-0.000153052
-0.000147085
-0.000141342
-0.000135825
-0.000130523
-0.000125439
-0.00012056
-0.000115888
-0.000111399
-0.000107107
-0.000102974
-9.90334e-05
-9.52288e-05
-9.16133e-05
-8.80953e-05
-8.47578e-05
-8.14704e-05
-7.83545e-05
-7.52491e-05
-7.23201e-05
-6.93402e-05
-6.65358e-05
-6.35917e-05
-6.08355e-05
-5.78434e-05
-5.50512e-05
-5.19208e-05
-4.9016e-05
-4.55908e-05
-4.24435e-05
-3.85995e-05
-3.50592e-05
-3.05646e-05
-2.65101e-05
-2.11348e-05
-1.63187e-05
-9.71796e-06
-4.06429e-06
0.00143546
0.00122159
0.000778334
0.000272043
-0.000108889
-0.000307364
-0.000370463
-0.00037252
-0.000362496
-0.000357099
-0.000355617
-0.000353819
-0.000349683
-0.000343381
-0.000335772
-0.000327519
-0.00031894
-0.000310166
-0.000301261
-0.000292285
-0.000283283
-0.000274309
-0.000265391
-0.000256571
-0.000247863
-0.000239301
-0.000230891
-0.000222658
-0.000214607
-0.000206752
-0.000199098
-0.000191658
-0.00018443
-0.000177431
-0.000170648
-0.000164098
-0.000157766
-0.000151662
-0.000145777
-0.000140109
-0.000134662
-0.000129424
-0.000124401
-0.000119579
-0.000114959
-0.000110518
-0.000106272
-0.000102181
-9.82802e-05
-9.4512e-05
-9.09327e-05
-8.74467e-05
-8.41416e-05
-8.08825e-05
-7.77951e-05
-7.47145e-05
-7.18124e-05
-6.88551e-05
-6.6076e-05
-6.31521e-05
-6.04196e-05
-5.7446e-05
-5.46763e-05
-5.15637e-05
-4.86824e-05
-4.52737e-05
-4.21488e-05
-3.83237e-05
-3.48061e-05
-3.03301e-05
-2.63002e-05
-2.09529e-05
-1.61578e-05
-9.62497e-06
-4.01202e-06
0.0013022
0.00111622
0.000755068
0.000320125
-3.48798e-05
-0.000240286
-0.000319913
-0.000334971
-0.000332669
-0.000332134
-0.000334523
-0.00033607
-0.000334643
-0.000330405
-0.000324378
-0.000317407
-0.000309918
-0.000302084
-0.000293988
-0.000285705
-0.000277303
-0.00026885
-0.000260391
-0.000251976
-0.000243629
-0.000235389
-0.000227269
-0.000219297
-0.000211482
-0.000203841
-0.000196383
-0.000189121
-0.000182057
-0.000175207
-0.000168562
-0.00016214
-0.000155926
-0.00014993
-0.000144146
-0.000138571
-0.000133212
-0.000128054
-0.000123106
-0.000118353
-0.000113799
-0.000109419
-0.00010523
-0.000101191
-9.73408e-05
-9.36185e-05
-9.00841e-05
-8.66385e-05
-8.33734e-05
-8.01503e-05
-7.70981e-05
-7.40491e-05
-7.11799e-05
-6.82514e-05
-6.55029e-05
-6.26052e-05
-5.99011e-05
-5.69522e-05
-5.42093e-05
-5.11209e-05
-4.8267e-05
-4.48824e-05
-4.17831e-05
-3.79861e-05
-3.44943e-05
-3.00494e-05
-2.60455e-05
-2.07457e-05
-1.59721e-05
-9.53726e-06
-3.96411e-06
0.00118815
0.00102206
0.000723602
0.000353315
2.88219e-05
-0.000177811
-0.000271348
-0.000298782
-0.000303842
-0.000307572
-0.000313256
-0.000317839
-0.000319058
-0.000316913
-0.000312487
-0.000306787
-0.000300367
-0.000293457
-0.000286163
-0.000278573
-0.000270772
-0.000262843
-0.000254848
-0.000246845
-0.000238868
-0.000230961
-0.000223142
-0.000215443
-0.000207878
-0.000200466
-0.000193218
-0.000186149
-0.000179264
-0.000172579
-0.000166088
-0.000159808
-0.000153727
-0.000147854
-0.000142186
-0.000136718
-0.000131459
-0.000126394
-0.000121534
-0.000116863
-0.000112385
-0.000108077
-0.000103956
-9.99795e-05
-9.6189e-05
-9.25215e-05
-8.90408e-05
-8.56438e-05
-8.24267e-05
-7.9247e-05
-7.62369e-05
-7.32263e-05
-7.03964e-05
-6.75033e-05
-6.47909e-05
-6.19261e-05
-5.92552e-05
-5.63377e-05
-5.36262e-05
-5.05691e-05
-4.77468e-05
-4.43952e-05
-4.13247e-05
-3.75668e-05
-3.41036e-05
-2.97048e-05
-2.57279e-05
-2.04986e-05
-1.57472e-05
-9.44099e-06
-3.90484e-06
0.00108898
0.000939186
0.000688406
0.000373943
8.19221e-05
-0.000120697
-0.000224973
-0.000263903
-0.000276102
-0.000283687
-0.000292139
-0.000299399
-0.000303145
-0.000303103
-0.000300305
-0.000295875
-0.000290506
-0.000284503
-0.000278
-0.000271098
-0.000263894
-0.000256487
-0.000248953
-0.00024136
-0.000233752
-0.000226176
-0.000218659
-0.000211235
-0.000203922
-0.000196741
-0.000189708
-0.000182837
-0.000176136
-0.000169622
-0.000163291
-0.000157159
-0.000151218
-0.000145476
-0.000139931
-0.000134577
-0.000129428
-0.000124463
-0.0001197
-0.000115118
-0.000110726
-0.000106497
-0.000102452
-9.85453e-05
-9.48224e-05
-9.12163e-05
-8.77965e-05
-8.44543e-05
-8.1292e-05
-7.81622e-05
-7.52005e-05
-7.2234e-05
-6.94491e-05
-6.65969e-05
-6.3926e-05
-6.11002e-05
-5.84669e-05
-5.55875e-05
-5.29116e-05
-4.98929e-05
-4.71057e-05
-4.37969e-05
-4.07574e-05
-3.70507e-05
-3.36185e-05
-2.92824e-05
-2.5333e-05
-2.01988e-05
-1.54717e-05
-9.32189e-06
-3.82017e-06
0.00100155
0.000866201
0.000652169
0.00038441
0.000124581
-6.96736e-05
-0.000181121
-0.000230273
-0.000249413
-0.000260628
-0.000271414
-0.000280953
-0.000287031
-0.000289062
-0.000287912
-0.00028476
-0.000280429
-0.000275317
-0.000269597
-0.00026338
-0.000256774
-0.000249888
-0.000242815
-0.000235631
-0.000228391
-0.000221146
-0.00021393
-0.000206779
-0.000199718
-0.000192767
-0.000185949
-0.000179276
-0.000172761
-0.000166418
-0.000160249
-0.000154267
-0.000148469
-0.000142859
-0.000137442
-0.000132206
-0.000127169
-0.000122308
-0.000117647
-0.000113156
-0.000108855
-0.000104709
-0.000100745
-9.69119e-05
-9.32619e-05
-8.97209e-05
-8.63667e-05
-8.3083e-05
-7.99805e-05
-7.69046e-05
-7.39962e-05
-7.10776e-05
-6.83421e-05
-6.55348e-05
-6.29094e-05
-6.01275e-05
-5.75353e-05
-5.46999e-05
-5.20627e-05
-4.90888e-05
-4.63393e-05
-4.30826e-05
-4.00757e-05
-3.6432e-05
-3.30328e-05
-2.87755e-05
-2.48544e-05
-1.98383e-05
-1.51399e-05
-9.1691e-06
-3.70246e-06
0.000923651
0.00080138
0.000616417
0.000387135
0.000157594
-2.51451e-05
-0.000140162
-0.000197873
-0.000223667
-0.000238438
-0.000251246
-0.000262671
-0.000270822
-0.000274841
-0.000275341
-0.000273477
-0.000270177
-0.000265941
-0.000260994
-0.000255458
-0.000249452
-0.000243091
-0.00023648
-0.000229707
-0.000222837
-0.000215923
-0.000209011
-0.000202134
-0.000195326
-0.000188607
-0.000182005
-0.00017553
-0.000169202
-0.00016303
-0.000157025
-0.000151193
-0.00014554
-0.000140063
-0.000134774
-0.000129656
-0.000124734
-0.000119979
-0.000115421
-0.000111023
-0.000106815
-0.000102752
-9.88725e-05
-9.5115e-05
-9.15409e-05
-8.80668e-05
-8.4781e-05
-8.15573e-05
-7.85171e-05
-7.54977e-05
-7.26456e-05
-6.97775e-05
-6.70938e-05
-6.43338e-05
-6.17562e-05
-5.9022e-05
-5.64728e-05
-5.36862e-05
-5.10896e-05
-4.81657e-05
-4.54553e-05
-4.22593e-05
-3.92852e-05
-3.57153e-05
-3.23508e-05
-2.81863e-05
-2.42949e-05
-1.94164e-05
-1.47538e-05
-8.97768e-06
-3.55285e-06
0.000853684
0.000743223
0.000581924
0.000384262
0.000182181
1.28363e-05
-0.000102476
-0.000166799
-0.000198774
-0.000217091
-0.000231746
-0.000244706
-0.000254629
-0.000260493
-0.000262618
-0.000262048
-0.000259777
-0.000256401
-0.000252212
-0.000247352
-0.000241946
-0.000236112
-0.000229968
-0.000223608
-0.00021711
-0.000210532
-0.000203925
-0.000197326
-0.000190774
-0.000184289
-0.000177905
-0.000171631
-0.000165492
-0.000159494
-0.000153655
-0.000147974
-0.000142467
-0.000137124
-0.000131965
-0.000126967
-0.000122162
-0.000117513
-0.00011306
-0.000108756
-0.000104642
-0.000100664
-9.68701e-05
-9.31891e-05
-8.96928e-05
-8.62868e-05
-8.30707e-05
-7.9908e-05
-7.69311e-05
-7.39695e-05
-7.11755e-05
-6.83598e-05
-6.57291e-05
-6.30183e-05
-6.04891e-05
-5.78055e-05
-5.52999e-05
-5.25663e-05
-5.00108e-05
-4.71414e-05
-4.44702e-05
-4.13422e-05
-3.84006e-05
-3.49131e-05
-3.15856e-05
-2.75251e-05
-2.36661e-05
-1.89385e-05
-1.43221e-05
-8.74909e-06
-3.38027e-06
0.000790452
0.000690587
0.000549011
0.000377482
0.000199702
4.45076e-05
-6.8409e-05
-0.00013727
-0.000174713
-0.000196543
-0.000212974
-0.000227192
-0.000238574
-0.000246089
-0.000249773
-0.000250494
-0.000249248
-0.000246719
-0.00024327
-0.000239075
-0.000234264
-0.000228958
-0.000223284
-0.00021734
-0.000211218
-0.000204978
-0.000198681
-0.000192363
-0.00018607
-0.000179823
-0.000173661
-0.000167591
-0.000161645
-0.000155824
-0.000150154
-0.000144627
-0.000139269
-0.000134063
-0.000129037
-0.000124161
-0.000119475
-0.000114934
-0.000110588
-0.000106379
-0.000102362
-9.84703e-05
-9.47625e-05
-9.11597e-05
-8.77424e-05
-8.44062e-05
-8.12609e-05
-7.81605e-05
-7.52475e-05
-7.23452e-05
-6.96099e-05
-6.6849e-05
-6.42716e-05
-6.1612e-05
-5.91309e-05
-5.65007e-05
-5.40384e-05
-5.13617e-05
-4.88475e-05
-4.60365e-05
-4.3404e-05
-4.03501e-05
-3.7441e-05
-3.40419e-05
-3.07545e-05
-2.68061e-05
-2.29839e-05
-1.84147e-05
-1.38573e-05
-8.48972e-06
-3.19758e-06
0.000733
0.000642613
0.000517746
0.000368025
0.000211457
7.03216e-05
-3.81966e-05
-0.000109571
-0.000151545
-0.00017675
-0.000194945
-0.00021023
-0.000222778
-0.000231713
-0.00023685
-0.000238835
-0.000238609
-0.000236913
-0.000234185
-0.000230638
-0.000226415
-0.000221636
-0.000216432
-0.000210907
-0.000205163
-0.000199264
-0.00019328
-0.000187246
-0.000181217
-0.000175212
-0.000169276
-0.000163414
-0.000157664
-0.000152024
-0.000146526
-0.000141159
-0.000135953
-0.000130887
-0.000125996
-0.000121246
-0.000116681
-0.000112252
-0.000108015
-0.000103905
-9.99854e-05
-9.61834e-05
-9.25636e-05
-8.90416e-05
-8.57046e-05
-8.2441e-05
-7.93673e-05
-7.63319e-05
-7.3483e-05
-7.06424e-05
-6.7966e-05
-6.52631e-05
-6.27388e-05
-6.01335e-05
-5.76999e-05
-5.51262e-05
-5.27067e-05
-5.00909e-05
-4.76178e-05
-4.48693e-05
-4.2275e-05
-3.93002e-05
-3.64248e-05
-3.31181e-05
-2.98747e-05
-2.60435e-05
-2.22653e-05
-1.78561e-05
-1.33724e-05
-8.20813e-06
-3.01693e-06
0.000680543
0.00059864
0.00048808
0.000356742
0.00021858
9.08656e-05
-1.19164e-05
-8.39827e-05
-0.000129396
-0.000157691
-0.000177645
-0.000193885
-0.000207348
-0.000217458
-0.000223902
-0.000227098
-0.000227879
-0.000227004
-0.000224976
-0.000222057
-0.000218409
-0.000214151
-0.000209415
-0.000204311
-0.000198946
-0.00019339
-0.00018772
-0.000181975
-0.000176213
-0.000170454
-0.000164747
-0.000159098
-0.000153549
-0.000148094
-0.000142772
-0.000137568
-0.000132517
-0.000127597
-0.000122845
-0.000118224
-0.000113784
-0.00010947
-0.000105345
-0.000101338
-9.75184e-05
-9.38093e-05
-9.02793e-05
-8.68417e-05
-8.35864e-05
-8.03988e-05
-7.73979e-05
-7.4431e-05
-7.16471e-05
-6.88713e-05
-6.6254e-05
-6.36128e-05
-6.11418e-05
-5.85943e-05
-5.62084e-05
-5.36946e-05
-5.13175e-05
-4.87667e-05
-4.63351e-05
-4.3653e-05
-4.10976e-05
-3.82055e-05
-3.53665e-05
-3.21546e-05
-2.89603e-05
-2.52489e-05
-2.1524e-05
-1.7273e-05
-1.2878e-05
-7.91252e-06
-2.84663e-06
0.000632416
0.00055813
0.000459912
0.000344217
0.00022201
0.000106784
1.05112e-05
-6.0728e-05
-0.000108433
-0.000139382
-0.000161045
-0.000178183
-0.000192369
-0.000203417
-0.000210993
-0.000215317
-0.000217077
-0.000217007
-0.00021566
-0.000213347
-0.000210255
-0.000206509
-0.000202239
-0.000197553
-0.000192567
-0.000187356
-0.000182003
-0.000176549
-0.000171056
-0.000165547
-0.000160073
-0.000154641
-0.000149296
-0.000144031
-0.000138889
-0.000133852
-0.000128962
-0.000124191
-0.000119581
-0.000115094
-0.000110781
-0.000106588
-0.000102578
-9.86775e-05
-9.49609e-05
-9.1349e-05
-8.79109e-05
-8.45616e-05
-8.13897e-05
-7.82822e-05
-7.53554e-05
-7.24611e-05
-6.97435e-05
-6.70362e-05
-6.44785e-05
-6.19032e-05
-5.94862e-05
-5.70005e-05
-5.46627e-05
-5.22127e-05
-4.98787e-05
-4.73964e-05
-4.50075e-05
-4.23955e-05
-3.98811e-05
-3.70741e-05
-3.42759e-05
-3.11603e-05
-2.80212e-05
-2.44301e-05
-2.07697e-05
-1.66733e-05
-1.23812e-05
-7.60921e-06
-2.69028e-06
0.000588057
0.000520633
0.000433128
0.00033085
0.000222502
0.000118715
2.92903e-05
-3.99425e-05
-8.88298e-05
-0.000121879
-0.000145128
-0.000163127
-0.0001779
-0.000189672
-0.000198192
-0.000203533
-0.000206224
-0.000206939
-0.000206253
-0.000204524
-0.000201968
-0.000198719
-0.000194906
-0.000190637
-0.00018603
-0.000181163
-0.000176127
-0.000170965
-0.000165745
-0.000160489
-0.000155251
-0.00015004
-0.000144902
-0.000139832
-0.000134874
-0.000130009
-0.000125282
-0.000120666
-0.000116201
-0.000111853
-0.000107672
-0.000103603
-9.97106e-05
-9.5922e-05
-9.23113e-05
-8.88009e-05
-8.54571e-05
-8.22005e-05
-7.9114e-05
-7.60909e-05
-7.32401e-05
-7.04226e-05
-6.77729e-05
-6.51383e-05
-6.26412e-05
-6.01357e-05
-5.77741e-05
-5.53539e-05
-5.30659e-05
-5.06832e-05
-4.83941e-05
-4.59834e-05
-4.36395e-05
-4.11005e-05
-3.8631e-05
-3.59103e-05
-3.31587e-05
-3.01402e-05
-2.70638e-05
-2.35919e-05
-2.00078e-05
-1.60622e-05
-1.18862e-05
-7.30237e-06
-2.54783e-06
0.00054699
0.000485766
0.000407613
0.000316922
0.000220653
0.000127248
4.47036e-05
-2.16703e-05
-7.0743e-05
-0.000105269
-0.000129893
-0.000148709
-0.000163977
-0.000176296
-0.000185569
-0.000191792
-0.000195347
-0.000196817
-0.00019677
-0.000195602
-0.00019356
-0.000190791
-0.000187425
-0.000183566
-0.000179335
-0.000174812
-0.000170092
-0.000165224
-0.000160277
-0.000155277
-0.000150279
-0.000145292
-0.000140365
-0.000135494
-0.000130723
-0.000126036
-0.000121476
-0.000117019
-0.000112704
-0.000108499
-0.000104452
-0.000100512
-9.67414e-05
-9.30688e-05
-8.95671e-05
-8.61627e-05
-8.2916e-05
-7.97564e-05
-7.67578e-05
-7.38231e-05
-7.10506e-05
-6.83139e-05
-6.57346e-05
-6.31765e-05
-6.07419e-05
-5.83098e-05
-5.60057e-05
-5.36547e-05
-5.14188e-05
-4.91063e-05
-4.68652e-05
-4.45286e-05
-4.2233e-05
-3.97693e-05
-3.735e-05
-3.47161e-05
-3.20176e-05
-2.90968e-05
-2.60913e-05
-2.27368e-05
-1.92408e-05
-1.54431e-05
-1.13946e-05
-6.99447e-06
-2.41716e-06
0.000508805
0.000453196
0.000383255
0.000302632
0.000216932
0.000132904
5.70718e-05
-5.87367e-06
-5.42893e-05
-8.96515e-05
-0.000115364
-0.00013492
-0.000150616
-0.000163342
-0.000173191
-0.00018015
-0.000184479
-0.000186659
-0.000187228
-0.000186597
-0.000185044
-0.000182735
-0.000179801
-0.000176345
-0.000172484
-0.000168303
-0.000163899
-0.000159324
-0.000154652
-0.00014991
-0.000145153
-0.000140395
-0.000135682
-0.000131013
-0.000126434
-0.000121928
-0.00011754
-0.000113245
-0.000109084
-0.000105028
-0.000101119
-9.73126e-05
-9.36668e-05
-9.01148e-05
-8.67255e-05
-8.34315e-05
-8.0285e-05
-7.72266e-05
-7.43187e-05
-7.14766e-05
-6.87851e-05
-6.61332e-05
-6.3627e-05
-6.11488e-05
-5.87794e-05
-5.64242e-05
-5.41803e-05
-5.19014e-05
-4.97212e-05
-4.74813e-05
-4.5292e-05
-4.30316e-05
-4.07886e-05
-3.84017e-05
-3.60388e-05
-3.34919e-05
-3.08538e-05
-2.80313e-05
-2.5105e-05
-2.18663e-05
-1.84693e-05
-1.48179e-05
-1.09061e-05
-6.68681e-06
-2.29552e-06
0.000473154
0.00042264
0.000359945
0.000288119
0.000211704
0.00013613
6.67214e-05
7.5483e-06
-3.95361e-05
-7.51235e-05
-0.000101584
-0.000121759
-0.000137822
-0.000150846
-0.000161115
-0.000168659
-0.000173656
-0.000176489
-0.000177639
-0.000177521
-0.000176435
-0.000174563
-0.000172044
-0.000168979
-0.000165482
-0.000161637
-0.000157547
-0.000153266
-0.000148868
-0.000144385
-0.000139872
-0.000135345
-0.00013085
-0.000126387
-0.000122003
-0.000117682
-0.00011347
-0.000109343
-0.000105339
-0.000101436
-9.76694e-05
-9.40009e-05
-9.04838e-05
-8.70569e-05
-8.37838e-05
-8.06042e-05
-7.75615e-05
-7.46084e-05
-7.17946e-05
-6.90487e-05
-6.64414e-05
-6.38781e-05
-6.14485e-05
-5.90533e-05
-5.67523e-05
-5.44769e-05
-5.22969e-05
-5.00925e-05
-4.79721e-05
-4.58069e-05
-4.36741e-05
-4.14912e-05
-3.9306e-05
-3.69975e-05
-3.46972e-05
-3.22375e-05
-2.96674e-05
-2.69439e-05
-2.41048e-05
-2.09813e-05
-1.76932e-05
-1.41875e-05
-1.04199e-05
-6.37994e-06
-2.18035e-06
0.000439734
0.000393852
0.000337578
0.000273479
0.000205256
0.000137298
7.39625e-05
1.8737e-05
-2.65014e-05
-6.17635e-05
-8.8604e-05
-0.000109234
-0.000125592
-0.000138828
-0.000149387
-0.00015737
-0.000162919
-0.000166329
-0.000168022
-0.00016839
-0.000167745
-0.000166287
-0.000164163
-0.000161474
-0.000158331
-0.000154818
-0.000151038
-0.000147048
-0.000142925
-0.000138702
-0.000134434
-0.000130139
-0.000125865
-0.000121612
-0.000117426
-0.000113295
-0.000109262
-0.000105308
-0.000101466
-9.77192e-05
-9.40995e-05
-9.05738e-05
-8.7189e-05
-8.38918e-05
-8.0739e-05
-7.76779e-05
-7.47427e-05
-7.1899e-05
-6.91829e-05
-6.6537e-05
-6.40174e-05
-6.1546e-05
-5.9197e-05
-5.68876e-05
-5.46588e-05
-5.2466e-05
-5.03539e-05
-4.82264e-05
-4.617e-05
-4.40817e-05
-4.20106e-05
-3.99066e-05
-3.77841e-05
-3.55559e-05
-3.3325e-05
-3.09525e-05
-2.84576e-05
-2.58352e-05
-2.30903e-05
-2.00821e-05
-1.69116e-05
-1.35527e-05
-9.93491e-06
-6.07391e-06
-2.06953e-06
0.000408292
0.000366622
0.000316062
0.000258777
0.000197804
0.000136713
7.90732e-05
2.78506e-05
-1.51651e-05
-4.9627e-05
-7.64766e-05
-9.73616e-05
-0.000113924
-0.000127298
-0.000138035
-0.000146324
-0.000152304
-0.000156207
-0.00015839
-0.000159214
-0.000158986
-0.00015792
-0.000156169
-0.000153837
-0.000151036
-0.000147848
-0.000144373
-0.000140672
-0.000136822
-0.000132858
-0.000128836
-0.000124777
-0.000120725
-0.000116685
-0.000112701
-0.000108764
-0.000104914
-0.000101137
-9.74605e-05
-9.38752e-05
-9.04061e-05
-8.70277e-05
-8.37794e-05
-8.06161e-05
-7.7588e-05
-7.46495e-05
-7.18259e-05
-6.90953e-05
-6.64811e-05
-6.39386e-05
-6.15107e-05
-5.91347e-05
-5.68703e-05
-5.46496e-05
-5.24973e-05
-5.03894e-05
-4.83496e-05
-4.63016e-05
-4.43139e-05
-4.23038e-05
-4.03002e-05
-3.82768e-05
-3.6222e-05
-3.40761e-05
-3.19213e-05
-2.96367e-05
-2.72236e-05
-2.47047e-05
-2.20607e-05
-1.91689e-05
-1.61237e-05
-1.29134e-05
-9.45001e-06
-5.76856e-06
-1.96141e-06
0.000378614
0.000340782
0.000295319
0.000244063
0.000189523
0.000134621
8.22933e-05
3.50439e-05
-5.48629e-06
-3.87533e-05
-6.52571e-05
-8.61713e-05
-0.000102824
-0.000116257
-0.000127078
-0.000135553
-0.000141843
-0.000146145
-0.000148758
-0.00015
-0.000150164
-0.000149466
-0.000148067
-0.000146076
-0.000143603
-0.000140729
-0.000137554
-0.000134138
-0.000130558
-0.000126854
-0.000123078
-0.000119255
-0.000115428
-0.000111605
-0.000107826
-0.000104086
-0.000100423
-9.68257e-05
-9.33199e-05
-8.99003e-05
-8.65861e-05
-8.33593e-05
-8.0252e-05
-7.72271e-05
-7.43277e-05
-7.15157e-05
-6.88084e-05
-6.61947e-05
-6.36865e-05
-6.12509e-05
-5.8919e-05
-5.66417e-05
-5.44665e-05
-5.23368e-05
-5.02658e-05
-4.82456e-05
-4.6282e-05
-4.4316e-05
-4.24024e-05
-4.04724e-05
-3.85412e-05
-3.66008e-05
-3.46187e-05
-3.25572e-05
-3.04846e-05
-2.82899e-05
-2.59648e-05
-2.35522e-05
-2.1015e-05
-1.82422e-05
-1.53287e-05
-1.22693e-05
-8.9643e-06
-5.46368e-06
-1.85461e-06
0.000350529
0.000316208
0.00027531
0.000229403
0.000180576
0.000131246
8.38408e-05
4.04674e-05
2.58603e-06
-2.91737e-05
-5.50095e-05
-7.5715e-05
-9.23167e-05
-0.000105719
-0.000116534
-0.000125085
-0.00013157
-0.000136171
-0.000139143
-0.000140758
-0.000141283
-0.000140929
-0.00013986
-0.00013819
-0.00013603
-0.00013346
-0.000130577
-0.000127442
-0.000124131
-0.000120685
-0.000117155
-0.000113571
-0.00010997
-0.000106366
-0.000102795
-9.92563e-05
-9.57845e-05
-9.23718e-05
-8.90406e-05
-8.57912e-05
-8.26362e-05
-7.95654e-05
-7.66034e-05
-7.37214e-05
-7.09556e-05
-6.82736e-05
-6.56873e-05
-6.31944e-05
-6.07966e-05
-5.84714e-05
-5.62399e-05
-5.40648e-05
-5.19834e-05
-4.99472e-05
-4.7962e-05
-4.60327e-05
-4.41499e-05
-4.22682e-05
-4.04335e-05
-3.85863e-05
-3.67326e-05
-3.48769e-05
-3.29731e-05
-3.09993e-05
-2.90136e-05
-2.69111e-05
-2.46808e-05
-2.23777e-05
-1.99517e-05
-1.73017e-05
-1.45265e-05
-1.16201e-05
-8.47678e-06
-5.15918e-06
-1.74805e-06
0.000323873
0.000292809
0.000256033
0.000214898
0.000171162
0.000126843
8.39699e-05
4.43113e-05
9.14247e-06
-2.08917e-05
-4.57919e-05
-6.60599e-05
-8.24541e-05
-9.57223e-05
-0.000106441
-0.000114967
-0.000121536
-0.000126334
-0.000129582
-0.000131512
-0.000132358
-0.00013232
-0.000131556
-0.000130186
-0.000128321
-0.000126042
-0.000123442
-0.000120583
-0.000117537
-0.000114347
-0.000111064
-0.000107718
-0.000104346
-0.000100964
-9.76038e-05
-9.42705e-05
-9.09938e-05
-8.77699e-05
-8.46178e-05
-8.15431e-05
-7.85522e-05
-7.56418e-05
-7.28297e-05
-7.00951e-05
-6.74678e-05
-6.49198e-05
-6.24592e-05
-6.00913e-05
-5.78086e-05
-5.55971e-05
-5.34705e-05
-5.14013e-05
-4.94182e-05
-4.74788e-05
-4.5584e-05
-4.37484e-05
-4.1951e-05
-4.01568e-05
-3.84049e-05
-3.66438e-05
-3.48733e-05
-3.31043e-05
-3.1283e-05
-2.94017e-05
-2.75079e-05
-2.54992e-05
-2.33701e-05
-2.11816e-05
-1.88703e-05
-1.63463e-05
-1.37161e-05
-1.0966e-05
-7.98676e-06
-4.85497e-06
-1.64152e-06
0.000285353
0.000258959
0.000227919
0.000193339
0.000156573
0.000119139
8.25733e-05
4.82218e-05
1.7105e-05
-1.01559e-05
-3.33625e-05
-5.26831e-05
-6.85361e-05
-8.14398e-05
-9.18848e-05
-0.000100247
-0.000106804
-0.000111757
-0.000115296
-0.000117601
-0.000118857
-0.000119236
-0.000118888
-0.000117934
-0.000116483
-0.000114619
-0.000112429
-0.000109972
-0.000107318
-0.00010451
-0.000101596
-9.86114e-05
-9.55852e-05
-9.25412e-05
-8.95047e-05
-8.64867e-05
-8.35106e-05
-8.05782e-05
-7.77041e-05
-7.48996e-05
-7.21643e-05
-6.95034e-05
-6.69254e-05
-6.44203e-05
-6.201e-05
-5.96714e-05
-5.74084e-05
-5.5235e-05
-5.31342e-05
-5.11006e-05
-4.91391e-05
-4.72365e-05
-4.54087e-05
-4.362e-05
-4.18701e-05
-4.01809e-05
-3.85186e-05
-3.68631e-05
-3.52433e-05
-3.36157e-05
-3.19796e-05
-3.03476e-05
-2.86564e-05
-2.69209e-05
-2.51747e-05
-2.33131e-05
-2.13438e-05
-1.93364e-05
-1.72062e-05
-1.48784e-05
-1.24743e-05
-9.96693e-06
-7.24095e-06
-4.39482e-06
-1.48281e-06
0.000236632
0.000215904
0.000191642
0.000164635
0.000135854
0.000106359
7.71956e-05
4.92998e-05
2.34405e-05
1.7521e-07
-2.01822e-05
-3.75579e-05
-5.2085e-05
-6.40436e-05
-7.3783e-05
-8.16353e-05
-8.78794e-05
-9.27276e-05
-9.63524e-05
-9.8892e-05
-0.000100482
-0.000101257
-0.00010134
-0.000100844
-9.98693e-05
-9.84977e-05
-9.68063e-05
-9.48543e-05
-9.27025e-05
-9.03935e-05
-8.79718e-05
-8.54712e-05
-8.29179e-05
-8.03387e-05
-7.77519e-05
-7.51741e-05
-7.26227e-05
-7.01017e-05
-6.76267e-05
-6.52069e-05
-6.28406e-05
-6.05381e-05
-5.83013e-05
-5.6128e-05
-5.40338e-05
-5.19987e-05
-5.00291e-05
-4.81371e-05
-4.63044e-05
-4.45316e-05
-4.28156e-05
-4.1156e-05
-3.95602e-05
-3.7991e-05
-3.64599e-05
-3.49861e-05
-3.35245e-05
-3.20738e-05
-3.06555e-05
-2.92232e-05
-2.7789e-05
-2.63609e-05
-2.48676e-05
-2.33473e-05
-2.18212e-05
-2.01792e-05
-1.84511e-05
-1.67076e-05
-1.48439e-05
-1.2806e-05
-1.07293e-05
-8.5644e-06
-6.20179e-06
-3.76043e-06
-1.27144e-06
0.000187747
0.000172198
0.000154068
0.000133861
0.000112232
8.99019e-05
6.75629e-05
4.58668e-05
2.53866e-05
6.58519e-06
-1.02177e-05
-2.48567e-05
-3.73185e-05
-4.77222e-05
-5.62788e-05
-6.32316e-05
-6.88143e-05
-7.32213e-05
-7.66104e-05
-7.90974e-05
-8.07844e-05
-8.17712e-05
-8.2149e-05
-8.20108e-05
-8.14383e-05
-8.05058e-05
-7.92805e-05
-7.78155e-05
-7.61641e-05
-7.4363e-05
-7.24529e-05
-7.04634e-05
-6.84169e-05
-6.63395e-05
-6.42458e-05
-6.21527e-05
-6.00736e-05
-5.8013e-05
-5.59873e-05
-5.40025e-05
-5.20566e-05
-5.01613e-05
-4.83168e-05
-4.65246e-05
-4.47944e-05
-4.3109e-05
-4.14799e-05
-3.99149e-05
-3.83941e-05
-3.69217e-05
-3.54965e-05
-3.41208e-05
-3.2793e-05
-3.14834e-05
-3.02114e-05
-2.89865e-05
-2.77657e-05
-2.65558e-05
-2.5372e-05
-2.41759e-05
-2.29809e-05
-2.17863e-05
-2.05359e-05
-1.92729e-05
-1.79972e-05
-1.66184e-05
-1.51834e-05
-1.37399e-05
-1.21837e-05
-1.04923e-05
-8.7887e-06
-7.00241e-06
-5.05426e-06
-3.06746e-06
-1.04372e-06
0.000137854
0.000126996
0.000114374
0.000100283
8.51232e-05
6.93466e-05
5.34101e-05
3.77606e-05
2.28043e-05
8.88379e-06
-3.74482e-06
-1.49208e-05
-2.45832e-05
-3.27652e-05
-3.95727e-05
-4.51542e-05
-4.9672e-05
-5.32754e-05
-5.60932e-05
-5.82219e-05
-5.97396e-05
-6.07162e-05
-6.12136e-05
-6.12985e-05
-6.10294e-05
-6.04638e-05
-5.96557e-05
-5.86485e-05
-5.74847e-05
-5.61944e-05
-5.48098e-05
-5.33552e-05
-5.18485e-05
-5.03098e-05
-4.87532e-05
-4.71922e-05
-4.56346e-05
-4.4088e-05
-4.25651e-05
-4.10697e-05
-3.96014e-05
-3.81678e-05
-3.67711e-05
-3.54153e-05
-3.4103e-05
-3.28211e-05
-3.15833e-05
-3.03967e-05
-2.92398e-05
-2.81135e-05
-2.70285e-05
-2.59848e-05
-2.49675e-05
-2.39645e-05
-2.29968e-05
-2.20597e-05
-2.11257e-05
-2.02004e-05
-1.92888e-05
-1.83753e-05
-1.74646e-05
-1.65399e-05
-1.55806e-05
-1.46245e-05
-1.36391e-05
-1.25727e-05
-1.14865e-05
-1.03888e-05
-9.18887e-06
-7.90347e-06
-6.62462e-06
-5.26417e-06
-3.78546e-06
-2.30257e-06
-7.90089e-07
8.56508e-05
7.91602e-05
7.16297e-05
6.32104e-05
5.41129e-05
4.45808e-05
3.4885e-05
2.52975e-05
1.60667e-05
7.40371e-06
-5.30818e-07
-7.62766e-06
-1.3834e-05
-1.91505e-05
-2.36204e-05
-2.73168e-05
-3.033e-05
-3.27506e-05
-3.46616e-05
-3.61299e-05
-3.72086e-05
-3.79408e-05
-3.8363e-05
-3.85153e-05
-3.84312e-05
-3.81466e-05
-3.76965e-05
-3.7111e-05
-3.64177e-05
-3.56368e-05
-3.47908e-05
-3.38941e-05
-3.29609e-05
-3.2002e-05
-3.10278e-05
-3.00499e-05
-2.90689e-05
-2.80932e-05
-2.71321e-05
-2.61853e-05
-2.52558e-05
-2.43462e-05
-2.34577e-05
-2.25979e-05
-2.17638e-05
-2.09456e-05
-2.0157e-05
-1.94028e-05
-1.86662e-05
-1.7944e-05
-1.72506e-05
-1.65888e-05
-1.59362e-05
-1.52911e-05
-1.46756e-05
-1.40754e-05
-1.34761e-05
-1.28847e-05
-1.22963e-05
-1.17108e-05
-1.11318e-05
-1.05319e-05
-9.91309e-06
-9.30917e-06
-8.67263e-06
-7.97888e-06
-7.29075e-06
-6.59354e-06
-5.81673e-06
-4.99631e-06
-4.19355e-06
-3.32433e-06
-2.38007e-06
-1.44681e-06
-4.78376e-07
2.93746e-05
2.71954e-05
2.46712e-05
2.18475e-05
1.87891e-05
1.55731e-05
1.22876e-05
9.02642e-06
5.87484e-06
2.9054e-06
1.72484e-07
-2.28551e-06
-4.44857e-06
-6.31405e-06
-7.89251e-06
-9.20552e-06
-1.02808e-05
-1.11483e-05
-1.18366e-05
-1.23696e-05
-1.27672e-05
-1.30439e-05
-1.32123e-05
-1.32858e-05
-1.32751e-05
-1.31925e-05
-1.30497e-05