/*--------------------------------*- C++ -*----------------------------------*\
| =========                 |                                                 |
| \\      /  F ield         | OpenFOAM: The Open Source CFD Toolbox           |
|  \\    /   O peration     | Version:  2.3.0                                 |
|   \\  /    A nd           | Web:      www.OpenFOAM.org                      |
|    \\/     M anipulation  |                                                 |
\*---------------------------------------------------------------------------*/
FoamFile
{
    version     2.0;
    format      ascii;
    class       volScalarField;
    location    "0.75";
    object      p;
}
// * * * * * * * * * * * * * * * * * * * * * * * * * * * * * * * * * * * * * //

dimensions      [0 2 -2 0 0 0 0];

internalField   nonuniform List<scalar> 
3375
(
0.00523062
0.00461224
0.00412413
0.00376361
0.00345738
0.00317881
0.00292915
0.00271288
0.0025314
0.00238371
0.00226729
0.00217839
0.00211237
0.00206428
0.00202936
0.00200348
0.00198329
0.00196626
0.00195062
0.00193522
0.00191937
0.00190272
0.00188514
0.00186662
0.00184721
0.00182703
0.00180618
0.00178475
0.00176284
0.00174052
0.00171784
0.00169486
0.00167162
0.00164816
0.00162449
0.00160065
0.00157665
0.0015525
0.00152824
0.00150386
0.00147939
0.00145482
0.00143018
0.00140547
0.00138071
0.00135589
0.00133102
0.00130612
0.00128119
0.00125623
0.00123126
0.00120626
0.00118125
0.00115623
0.0011312
0.00110617
0.00108114
0.0010561
0.00103107
0.00100604
0.00098101
0.000955986
0.000930967
0.000905953
0.000880944
0.00085594
0.000830943
0.00080595
0.000780962
0.000755979
0.000731
0.000706025
0.000681052
0.000656083
0.000631115
0.000606148
0.000581182
0.000556215
0.000531248
0.00050628
0.000481309
0.000456336
0.00043136
0.00040638
0.000381397
0.000356409
0.000331418
0.000306422
0.000281422
0.000256419
0.000231413
0.000206403
0.000181393
0.000156381
0.000131369
0.00010636
8.13578e-05
5.63796e-05
3.15486e-05
4.88438e-06
0.00495936
0.00451298
0.00410488
0.00377404
0.00348158
0.00321006
0.00296335
0.0027476
0.00256521
0.00241576
0.00229704
0.00220553
0.00213679
0.00208601
0.00204854
0.0020203
0.00199798
0.00197907
0.00196181
0.00194501
0.00192798
0.00191033
0.00189191
0.00187267
0.00185267
0.00183198
0.00181069
0.00178888
0.00176664
0.00174403
0.0017211
0.0016979
0.00167446
0.00165082
0.00162699
0.001603
0.00157887
0.00155461
0.00153023
0.00150575
0.00148118
0.00145653
0.00143181
0.00140703
0.00138219
0.00135731
0.00133239
0.00130743
0.00128245
0.00125744
0.00123242
0.00120738
0.00118233
0.00115727
0.0011322
0.00110714
0.00108207
0.001057
0.00103194
0.00100688
0.000981827
0.000956777
0.000931733
0.000906696
0.000881665
0.00085664
0.000831622
0.000806609
0.000781603
0.000756602
0.000731605
0.000706614
0.000681625
0.00065664
0.000631657
0.000606676
0.000581696
0.000556716
0.000531737
0.000506756
0.000481773
0.000456788
0.000431801
0.000406811
0.000381817
0.000356819
0.000331818
0.000306813
0.000281804
0.000256792
0.000231776
0.000206759
0.00018174
0.000156721
0.000131702
0.000106685
8.16767e-05
5.66975e-05
3.19604e-05
4.80607e-06
0.00476429
0.00442274
0.00406993
0.00376245
0.00348598
0.00322858
0.00299288
0.00278437
0.00260569
0.00245689
0.00233642
0.00224147
0.00216835
0.00211285
0.00207082
0.00203849
0.00201271
0.00199099
0.00197152
0.00195305
0.00193476
0.00191617
0.00189703
0.00187725
0.00185682
0.00183578
0.0018142
0.00179214
0.00176967
0.00174686
0.00172375
0.00170038
0.00167679
0.001653
0.00162904
0.00160493
0.00158068
0.00155632
0.00153185
0.00150728
0.00148263
0.00145791
0.00143312
0.00140827
0.00138337
0.00135844
0.00133346
0.00130846
0.00128343
0.00125838
0.00123332
0.00120824
0.00118316
0.00115807
0.00113297
0.00110788
0.00108279
0.00105769
0.00103261
0.00100752
0.000982448
0.000957378
0.000932315
0.000907259
0.00088221
0.000857169
0.000832135
0.000807107
0.000782086
0.000757071
0.000732061
0.000707056
0.000682056
0.000657059
0.000632065
0.000607073
0.000582082
0.000557092
0.000532103
0.000507112
0.000482121
0.000457127
0.000432131
0.000407133
0.000382131
0.000357126
0.000332117
0.000307104
0.000282088
0.000257069
0.000232048
0.000207024
0.000181999
0.000156973
0.000131948
0.000106924
8.19063e-05
5.69134e-05
3.20519e-05
3.79749e-06
0.00458705
0.00431736
0.00401618
0.00373807
0.00348319
0.00324453
0.00302383
0.00282589
0.00265359
0.00250754
0.00238683
0.00228941
0.00221231
0.00215206
0.00210505
0.00206791
0.00203775
0.0020122
0.00198948
0.00196829
0.00194776
0.00192735
0.00190672
0.00188573
0.0018643
0.00184243
0.00182016
0.00179752
0.00177455
0.0017513
0.00172781
0.00170411
0.00168023
0.00165618
0.00163199
0.00160767
0.00158324
0.0015587
0.00153408
0.00150937
0.0014846
0.00145976
0.00143486
0.00140992
0.00138493
0.00135991
0.00133486
0.00130979
0.00128469
0.00125958
0.00123446
0.00120934
0.0011842
0.00115907
0.00113393
0.00110879
0.00108366
0.00105854
0.00103342
0.0010083
0.000983197
0.000958099
0.000933009
0.000907929
0.000882856
0.000857793
0.000832737
0.000807689
0.000782649
0.000757616
0.000732588
0.000707567
0.000682551
0.000657539
0.00063253
0.000607524
0.00058252
0.000557518
0.000532516
0.000507514
0.000482511
0.000457506
0.0004325
0.000407491
0.00038248
0.000357465
0.000332447
0.000307426
0.000282401
0.000257374
0.000232344
0.000207312
0.00018228
0.000157246
0.000132212
0.000107177
8.2139e-05
5.70895e-05
3.188e-05
2.19573e-06
0.00442812
0.00421174
0.00395806
0.00371082
0.00347807
0.00325787
0.00305222
0.00286541
0.00270045
0.00255836
0.00243871
0.00234
0.00225991
0.00219558
0.00214398
0.00210217
0.00206755
0.00203796
0.0020117
0.00198748
0.00196441
0.00194188
0.0019195
0.00189705
0.00187441
0.00185152
0.00182837
0.00180498
0.00178137
0.00175755
0.00173355
0.0017094
0.0016851
0.00166069
0.00163617
0.00161155
0.00158684
0.00156206
0.00153721
0.00151229
0.00148733
0.00146232
0.00143726
0.00141217
0.00138706
0.00136191
0.00133675
0.00131157
0.00128639
0.00126119
0.00123599
0.00121078
0.00118558
0.00116038
0.00113518
0.00110999
0.0010848
0.00105963
0.00103446
0.0010093
0.000984154
0.000959017
0.000933891
0.000908776
0.000883672
0.000858577
0.000833493
0.000808418
0.000783351
0.000758294
0.000733243
0.000708199
0.000683162
0.00065813
0.000633102
0.000608077
0.000583056
0.000558037
0.000533019
0.000508001
0.000482983
0.000457965
0.000432945
0.000407923
0.000382899
0.000357872
0.000332842
0.000307809
0.000282774
0.000257736
0.000232696
0.000207654
0.000182611
0.000157567
0.000132521
0.000107469
8.2393e-05
5.72265e-05
3.15082e-05
4.86484e-07
0.00429077
0.00411284
0.00389862
0.00368005
0.00346843
0.00326587
0.00307498
0.0028996
0.00274268
0.0026055
0.00248798
0.00238911
0.00230708
0.00223961
0.00218416
0.00213825
0.00209957
0.00206618
0.00203649
0.00200926
0.00198361
0.00195887
0.00193463
0.0019106
0.00188662
0.00186259
0.00183845
0.0018142
0.00178983
0.00176534
0.00174074
0.00171605
0.00169127
0.00166641
0.00164149
0.00161651
0.00159147
0.00156638
0.00154125
0.00151608
0.00149088
0.00146565
0.00144039
0.00141512
0.00138983
0.00136453
0.00133922
0.00131391
0.0012886
0.00126328
0.00123797
0.00121267
0.00118737
0.00116208
0.0011368
0.00111153
0.00108628
0.00106103
0.0010358
0.00101059
0.000985385
0.000960197
0.000935022
0.000909861
0.000884714
0.000859578
0.000834455
0.000809343
0.000784242
0.000759152
0.00073407
0.000708997
0.000683931
0.000658872
0.000633819
0.00060877
0.000583726
0.000558684
0.000533645
0.000508607
0.00048357
0.000458533
0.000433495
0.000408456
0.000383416
0.000358373
0.000333328
0.00030828
0.00028323
0.000258179
0.000233125
0.00020807
0.000183015
0.000157957
0.000132895
0.000107817
8.26861e-05
5.73582e-05
3.11135e-05
-7.18046e-07
0.00417162
0.00402114
0.00383855
0.00364588
0.00345451
0.00326893
0.00309242
0.00292848
0.00277991
0.00264815
0.00253349
0.00243527
0.00235217
0.00228239
0.00222385
0.00217444
0.00213219
0.00209534
0.00206246
0.00203237
0.00200419
0.00197727
0.00195115
0.00192551
0.00190014
0.0018749
0.00184973
0.00182456
0.00179938
0.00177417
0.00174894
0.00172366
0.00169836
0.00167303
0.00164767
0.00162228
0.00159688
0.00157145
0.00154601
0.00152055
0.00149509
0.00146961
0.00144413
0.00141865
0.00139317
0.00136769
0.00134221
0.00131674
0.00129128
0.00126583
0.0012404
0.00121497
0.00118956
0.00116417
0.0011388
0.00111344
0.0010881
0.00106277
0.00103747
0.00101218
0.000986913
0.000961662
0.000936427
0.00091121
0.000886009
0.000860824
0.000835653
0.000810496
0.000785352
0.000760221
0.000735101
0.000709991
0.00068489
0.000659798
0.000634713
0.000609634
0.00058456
0.000559491
0.000534426
0.000509362
0.000484301
0.000459241
0.00043418
0.00040912
0.000384058
0.000358996
0.000333931
0.000308865
0.000283797
0.000258728
0.000233658
0.000208587
0.000183515
0.00015844
0.000133358
0.000108249
8.3053e-05
5.75623e-05
3.0933e-05
-8.96306e-07
0.00406735
0.00393699
0.00377964
0.00360986
0.00343746
0.00326798
0.00310517
0.00295234
0.00281213
0.0026861
0.00257478
0.00247787
0.00239443
0.00232307
0.00226212
0.00220982
0.00216448
0.00212458
0.00208878
0.00205603
0.00202546
0.00199643
0.00196846
0.00194122
0.00191445
0.001888
0.00186176
0.00183566
0.00180965
0.0017837
0.00175779
0.00173192
0.00170607
0.00168023
0.00165442
0.00162861
0.00160282
0.00157704
0.00155127
0.00152551
0.00149977
0.00147403
0.00144831
0.0014226
0.00139691
0.00137124
0.00134558
0.00131995
0.00129433
0.00126874
0.00124316
0.00121761
0.00119208
0.00116658
0.00114109
0.00111564
0.0010902
0.00106479
0.0010394
0.00101404
0.000988694
0.000963372
0.000938072
0.000912792
0.000887532
0.00086229
0.000837065
0.000811858
0.000786665
0.000761488
0.000736324
0.000711172
0.000686031
0.000660901
0.000635779
0.000610665
0.000585559
0.000560458
0.000535361
0.000510269
0.000485179
0.000460091
0.000435005
0.000409919
0.000384834
0.000359747
0.00033466
0.000309573
0.000284484
0.000259394
0.000234304
0.000209214
0.000184122
0.000159028
0.000133922
0.00010878
8.35254e-05
5.79192e-05
3.11547e-05
1.70191e-07
0.0039754
0.00386031
0.00372313
0.00357312
0.00341807
0.0032636
0.0031137
0.00297154
0.00283959
0.00271946
0.00261188
0.00251682
0.00243366
0.00236137
0.00229862
0.002244
0.00219605
0.00215346
0.00211506
0.00207985
0.00204704
0.002016
0.00198625
0.00195743
0.00192928
0.00190161
0.0018743
0.00184725
0.00182039
0.00179368
0.00176709
0.00174059
0.00171418
0.00168783
0.00166154
0.00163531
0.00160912
0.00158297
0.00155686
0.00153079
0.00150475
0.00147875
0.00145278
0.00142684
0.00140093
0.00137506
0.00134922
0.0013234
0.00129762
0.00127188
0.00124616
0.00122047
0.00119482
0.0011692
0.0011436
0.00111804
0.00109251
0.001067
0.00104153
0.00101608
0.000990661
0.000965266
0.000939896
0.00091455
0.000889227
0.000863925
0.000838644
0.000813382
0.000788138
0.000762912
0.000737701
0.000712504
0.000687321
0.000662149
0.000636989
0.000611837
0.000586695
0.000561559
0.000536429
0.000511305
0.000486185
0.000461067
0.000435952
0.000410839
0.000385727
0.000360615
0.000335503
0.000310391
0.000285279
0.000260167
0.000235055
0.000209943
0.000184831
0.000159715
0.000134585
0.000109414
8.41212e-05
5.84788e-05
3.18485e-05
2.33026e-06
0.00389376
0.00379063
0.00366964
0.00353651
0.00339703
0.0032564
0.00311857
0.00298655
0.00286267
0.00274852
0.00264496
0.00255217
0.00246982
0.00239717
0.0023332
0.00227675
0.00222665
0.00218176
0.00214104
0.00210361
0.00206872
0.00203579
0.00200432
0.00197397
0.00194446
0.00191559
0.0018872
0.00185918
0.00183146
0.00180398
0.00177669
0.00174957
0.00172257
0.0016957
0.00166893
0.00164225
0.00161565
0.00158913
0.00156267
0.00153628
0.00150994
0.00148366
0.00145744
0.00143126
0.00140513
0.00137905
0.00135302
0.00132702
0.00130108
0.00127517
0.00124931
0.00122348
0.0011977
0.00117196
0.00114625
0.00112058
0.00109495
0.00106935
0.00104379
0.00101825
0.000992753
0.000967282
0.00094184
0.000916426
0.000891038
0.000865675
0.000840336
0.000815019
0.000789722
0.000764445
0.000739186
0.000713943
0.000688716
0.000663502
0.000638301
0.000613111
0.000587931
0.00056276
0.000537596
0.000512439
0.000487286
0.000462139
0.000436994
0.000411852
0.000386712
0.000361573
0.000336435
0.000311298
0.000286162
0.000261026
0.00023589
0.000210756
0.000185622
0.000160484
0.000135334
0.000110143
8.48385e-05
5.92435e-05
3.29553e-05
5.15864e-06
0.00382082
0.00372734
0.00361948
0.00350065
0.00337498
0.00324697
0.00312032
0.00299787
0.00288177
0.00277358
0.00267422
0.00258405
0.00250295
0.00243043
0.00236573
0.00230796
0.00225613
0.00220929
0.00216656
0.00212713
0.00209035
0.00205564
0.00202256
0.00199074
0.0019599
0.00192983
0.00190037
0.0018714
0.00184281
0.00181455
0.00178655
0.00175878
0.0017312
0.00170379
0.00167653
0.00164939
0.00162238
0.00159547
0.00156865
0.00154193
0.00151529
0.00148872
0.00146223
0.00143581
0.00140946
0.00138316
0.00135693
0.00133075
0.00130464
0.00127857
0.00125256
0.00122659
0.00120068
0.00117481
0.00114899
0.00112321
0.00109747
0.00107178
0.00104612
0.0010205
0.000994922
0.000969374
0.00094386
0.000918377
0.000892923
0.000867498
0.0008421
0.000816726
0.000791376
0.000766048
0.00074074
0.000715451
0.000690179
0.000664923
0.000639681
0.000614452
0.000589234
0.000564027
0.000538829
0.000513638
0.000488453
0.000463274
0.0004381
0.000412928
0.00038776
0.000362594
0.00033743
0.000312267
0.000287105
0.000261945
0.000236786
0.000211629
0.000186473
0.000161315
0.000136147
0.000110946
8.56576e-05
6.01739e-05
3.43316e-05
8.15191e-06
0.00375532
0.0036698
0.00357274
0.00346601
0.00335247
0.00323584
0.00311946
0.00300595
0.00289729
0.00279495
0.0026999
0.00261261
0.00253312
0.00246116
0.00239618
0.00233751
0.00228435
0.00223592
0.00219146
0.00215029
0.00211179
0.00207545
0.00204085
0.00200762
0.00197551
0.00194428
0.00191376
0.00188383
0.00185438
0.00182533
0.00179662
0.0017682
0.00174002
0.00171206
0.00168429
0.00165669
0.00162925
0.00160195
0.00157477
0.00154771
0.00152075
0.0014939
0.00146714
0.00144046
0.00141388
0.00138737
0.00136093
0.00133457
0.00130827
0.00128204
0.00125587
0.00122977
0.00120372
0.00117772
0.00115178
0.00112589
0.00110005
0.00107426
0.00104851
0.0010228
0.000997139
0.000971514
0.000945926
0.000920373
0.000894853
0.000869365
0.000843907
0.000818477
0.000793072
0.000767693
0.000742336
0.000717
0.000691683
0.000666384
0.000641101
0.000615833
0.000590578
0.000565334
0.000540101
0.000514876
0.000489659
0.000464449
0.000439244
0.000414044
0.000388847
0.000363654
0.000338463
0.000313274
0.000288087
0.000262902
0.000237719
0.000212539
0.000187362
0.000162185
0.000137003
0.000111801
8.65489e-05
6.12087e-05
3.58125e-05
1.09017e-05
0.00369624
0.00361743
0.00352934
0.00343287
0.00332992
0.00322347
0.00311647
0.00301124
0.00290962
0.00281297
0.00272225
0.002638
0.00256042
0.00248937
0.00242451
0.00236533
0.00231121
0.00226153
0.00221564
0.00217295
0.00213293
0.0020951
0.00205909
0.00202454
0.00199121
0.00195885
0.00192731
0.00189644
0.00186613
0.00183629
0.00180686
0.00177778
0.001749
0.00172048
0.0016922
0.00166414
0.00163626
0.00160855
0.001581
0.00155359
0.00152632
0.00149916
0.00147213
0.0014452
0.00141837
0.00139164
0.001365
0.00133844
0.00131197
0.00128557
0.00125924
0.00123299
0.0012068
0.00118068
0.00115462
0.00112861
0.00110267
0.00107677
0.00105093
0.00102514
0.000999388
0.000973683
0.00094802
0.000922396
0.00089681
0.000871258
0.00084574
0.000820252
0.000794793
0.000769362
0.000743955
0.000718572
0.00069321
0.000667868
0.000642544
0.000617236
0.000591943
0.000566663
0.000541395
0.000516137
0.000490887
0.000465646
0.000440411
0.000415181
0.000389956
0.000364735
0.000339517
0.000314302
0.00028909
0.00026388
0.000238673
0.000213471
0.000188272
0.000163077
0.000137884
0.000112687
8.74802e-05
6.22848e-05
3.7261e-05
1.31779e-05
0.00364279
0.00356969
0.00348915
0.00340142
0.00330767
0.00321028
0.00311175
0.00301417
0.00291914
0.00282795
0.00274152
0.00266043
0.00258497
0.00251513
0.00245072
0.00239138
0.00233664
0.00228601
0.00223896
0.00219499
0.00215364
0.00211449
0.00207718
0.00204141
0.00200692
0.00197349
0.00194095
0.00190916
0.001878
0.00184739
0.00181724
0.0017875
0.00175811
0.00172904
0.00170024
0.00167169
0.00164337
0.00161526
0.00158733
0.00155957
0.00153197
0.00150451
0.00147719
0.00145
0.00142293
0.00139597
0.00136912
0.00134237
0.00131571
0.00128914
0.00126265
0.00123625
0.00120992
0.00118367
0.00115748
0.00113137
0.00110531
0.00107931
0.00105338
0.00102749
0.00100166
0.000975872
0.000950133
0.000924437
0.000898783
0.000873167
0.000847587
0.000822042
0.000796528
0.000771044
0.000745588
0.000720157
0.00069475
0.000669364
0.000643999
0.000618651
0.00059332
0.000568003
0.0005427
0.000517408
0.000492126
0.000466853
0.000441588
0.000416329
0.000391075
0.000365827
0.000340582
0.00031534
0.000290102
0.000264867
0.000239637
0.000214411
0.000189191
0.000163979
0.000138775
0.000113585
8.84229e-05
6.33497e-05
3.85884e-05
1.49221e-05
0.00359428
0.00352613
0.00345201
0.00337174
0.00328598
0.0031966
0.00310571
0.0030151
0.00292622
0.00284023
0.00275798
0.0026801
0.00260691
0.00253851
0.00247483
0.00241563
0.00236057
0.00230928
0.00226132
0.0022163
0.00217381
0.00213349
0.00209502
0.00205812
0.00202255
0.0019881
0.00195461
0.00192193
0.00188995
0.00185857
0.00182772
0.00179732
0.00176732
0.00173769
0.00170837
0.00167934
0.00165058
0.00162205
0.00159373
0.00156562
0.00153768
0.00150992
0.00148232
0.00145486
0.00142754
0.00140035
0.00137328
0.00134633
0.00131948
0.00129274
0.00126609
0.00123954
0.00121307
0.00118668
0.00116037
0.00113413
0.00110797
0.00108187
0.00105583
0.00102986
0.00100394
0.000978071
0.000952256
0.000926488
0.000900764
0.000875084
0.000849442
0.000823838
0.000798269
0.000772732
0.000747226
0.000721747
0.000696294
0.000670865
0.000645458
0.00062007
0.000594701
0.000569347
0.000544009
0.000518683
0.000493369
0.000468064
0.000442768
0.00041748
0.000392197
0.000366921
0.000341648
0.00031638
0.000291116
0.000265856
0.000240601
0.000215352
0.000190111
0.00016488
0.000139667
0.000114481
8.93536e-05
6.43666e-05
3.97532e-05
1.61898e-05
0.00355019
0.00348635
0.00341773
0.00334386
0.00326503
0.00318271
0.00309866
0.0030144
0.0029312
0.0028501
0.0027719
0.00269721
0.00262638
0.0025596
0.00249688
0.00243807
0.00238296
0.00233127
0.00228265
0.00223679
0.00219335
0.00215202
0.00211252
0.0020746
0.00203803
0.00200263
0.00196823
0.0019347
0.00190192
0.00186979
0.00183824
0.0018072
0.0017766
0.00174641
0.00171657
0.00168706
0.00165784
0.0016289
0.00160019
0.00157172
0.00154345
0.00151538
0.00148748
0.00145976
0.00143219
0.00140476
0.00137748
0.00135032
0.00132329
0.00129636
0.00126955
0.00124284
0.00121623
0.0011897
0.00116327
0.00113691
0.00111064
0.00108443
0.0010583
0.00103223
0.00100622
0.000980274
0.000954381
0.00092854
0.000902747
0.000877001
0.000851298
0.000825635
0.00080001
0.00077442
0.000748863
0.000723336
0.000697837
0.000672364
0.000646915
0.000621487
0.000596079
0.000570689
0.000545315
0.000519955
0.000494608
0.000469272
0.000443946
0.000418627
0.000393316
0.000368011
0.000342712
0.000317417
0.000292127
0.000266841
0.000241561
0.000216288
0.000191024
0.000165775
0.000140549
0.000115363
9.02546e-05
6.53129e-05
4.0748e-05
1.70856e-05
0.00351004
0.00344999
0.00338611
0.00331777
0.00324497
0.00316886
0.0030909
0.00301238
0.0029344
0.00285787
0.00278354
0.00271197
0.00264355
0.00257851
0.00251692
0.00245872
0.00240379
0.00235192
0.00230287
0.00225637
0.00221216
0.00216997
0.00212957
0.00209074
0.00205326
0.00201698
0.00198173
0.00194739
0.00191384
0.00188099
0.00184876
0.00181708
0.00178589
0.00175515
0.0017248
0.0016948
0.00166514
0.00163578
0.00160669
0.00157785
0.00154925
0.00152086
0.00149267
0.00146468
0.00143685
0.00140919
0.00138169
0.00135432
0.0013271
0.0013
0.00127302
0.00124615
0.00121939
0.00119273
0.00116617
0.00113969
0.0011133
0.00108699
0.00106076
0.0010346
0.0010085
0.000982473
0.000956502
0.000930587
0.000904725
0.000878913
0.000853147
0.000827425
0.000801744
0.000776101
0.000750493
0.000724918
0.000699373
0.000673856
0.000648365
0.000622897
0.000597451
0.000572024
0.000546615
0.000521221
0.000495841
0.000470473
0.000445116
0.000419768
0.000394429
0.000369095
0.000343768
0.000318446
0.000293129
0.000267818
0.000242512
0.000217214
0.000191927
0.000166657
0.000141414
0.00011622
9.1114e-05
6.61788e-05
4.15862e-05
1.77165e-05
0.00347348
0.00341678
0.00335701
0.00329344
0.00322589
0.00315523
0.00308267
0.00300932
0.00293611
0.00286382
0.00279315
0.00272461
0.0026586
0.00259537
0.00253503
0.00247762
0.00242305
0.00237121
0.00232192
0.00227497
0.00223016
0.00218727
0.0021461
0.00210646
0.00206817
0.00203107
0.00199504
0.00195993
0.00192566
0.00189212
0.00185923
0.00182694
0.00179517
0.00176388
0.00173302
0.00170255
0.00167244
0.00164266
0.00161318
0.00158399
0.00155505
0.00152634
0.00149787
0.00146959
0.00144152
0.00141362
0.00138589
0.00135832
0.0013309
0.00130362
0.00127647
0.00124945
0.00122254
0.00119575
0.00116906
0.00114246
0.00111596
0.00108954
0.00106321
0.00103695
0.00101077
0.000984658
0.000958608
0.00093262
0.000906688
0.00088081
0.000854982
0.000829201
0.000803464
0.000777767
0.000752109
0.000726486
0.000700895
0.000675335
0.000649802
0.000624294
0.000598809
0.000573346
0.000547901
0.000522474
0.000497061
0.000471662
0.000446274
0.000420896
0.000395527
0.000370166
0.000344811
0.000319462
0.000294118
0.00026878
0.000243448
0.000218124
0.000192812
0.000167519
0.000142256
0.000117044
9.19222e-05
6.69604e-05
4.2288e-05
1.81665e-05
0.00344019
0.00338644
0.00333026
0.00327084
0.00320785
0.00314197
0.00307421
0.00300548
0.00293659
0.00286821
0.00280096
0.00273532
0.00267167
0.00261027
0.00255129
0.00249478
0.00244074
0.00238909
0.00233973
0.0022925
0.00224724
0.00220379
0.00216197
0.00212164
0.00208263
0.00204481
0.00200805
0.00197224
0.00193728
0.00190308
0.00186957
0.00183668
0.00180435
0.00177253
0.00174117
0.00171024
0.00167969
0.0016495
0.00161964
0.00159009
0.00156081
0.0015318
0.00150303
0.00147449
0.00144616
0.00141802
0.00139007
0.0013623
0.00133468
0.00130723
0.00127991
0.00125273
0.00122568
0.00119874
0.00117192
0.00114521
0.00111859
0.00109207
0.00106564
0.00103929
0.00101302
0.000986822
0.000960695
0.000934633
0.000908632
0.000882688
0.000856798
0.000830958
0.000805165
0.000779416
0.000753707
0.000728036
0.0007024
0.000676796
0.000651222
0.000625674
0.000600152
0.000574652
0.000549172
0.000523711
0.000498266
0.000472835
0.000447417
0.00042201
0.000396612
0.000371222
0.00034584
0.000320463
0.000295092
0.000269727
0.000244368
0.000219017
0.000193679
0.000168359
0.00014307
0.000117831
9.26772e-05
6.76626e-05
4.28786e-05
1.84963e-05
0.00340989
0.00335877
0.00330573
0.00324991
0.0031909
0.00312921
0.00306569
0.0030011
0.00293611
0.00287132
0.00280725
0.00274436
0.002683
0.00262344
0.00256585
0.00251035
0.00245695
0.00240564
0.00235634
0.00230897
0.00226341
0.00221953
0.00217719
0.00213626
0.00209662
0.00205814
0.00202073
0.00198426
0.00194867
0.00191385
0.00187975
0.00184629
0.00181342
0.00178108
0.00174924
0.00171785
0.00168687
0.00165628
0.00162604
0.00159613
0.00156653
0.0015372
0.00150814
0.00147933
0.00145075
0.00142238
0.00139421
0.00136623
0.00133842
0.00131078
0.0012833
0.00125596
0.00122876
0.00120169
0.00117474
0.00114791
0.00112118
0.00109456
0.00106803
0.00104158
0.00101523
0.000988947
0.000962743
0.000936608
0.000910538
0.000884529
0.000858578
0.00083268
0.000806832
0.00078103
0.000755272
0.000729553
0.000703872
0.000678225
0.00065261
0.000627023
0.000601464
0.000575928
0.000550413
0.000524919
0.000499442
0.00047398
0.000448532
0.000423096
0.000397669
0.000372252
0.000346842
0.000321438
0.00029604
0.000270647
0.000245261
0.000219882
0.000194515
0.000169165
0.000143844
0.00011857
9.33703e-05
6.82844e-05
4.33734e-05
1.87349e-05
0.00337723
0.00332887
0.00327908
0.00322697
0.00317206
0.00311472
0.00305561
0.00299537
0.00293453
0.0028736
0.00281301
0.00275317
0.00269441
0.00263698
0.00258108
0.00252683
0.00247431
0.00242353
0.00237448
0.00232711
0.00228134
0.00223709
0.00219427
0.00215277
0.00211249
0.00207334
0.00203523
0.00199807
0.00196178
0.00192628
0.00189152
0.00185742
0.00182394
0.00179102
0.00175863
0.00172671
0.00169525
0.00166419
0.00163351
0.00160319
0.0015732
0.00154352
0.00151412
0.00148499
0.00145612
0.00142747
0.00139905
0.00137082
0.0013428
0.00131495
0.00128727
0.00125975
0.00123238
0.00120515
0.00117805
0.00115107
0.00112422
0.00109747
0.00107082
0.00104427
0.00101781
0.000991434
0.000965139
0.000938919
0.000912769
0.000886684
0.000860661
0.000834694
0.000808782
0.000782919
0.000757102
0.000731329
0.000705595
0.000679898
0.000654235
0.000628603
0.000602999
0.000577421
0.000551866
0.000526333
0.000500818
0.00047532
0.000449837
0.000424366
0.000398906
0.000373456
0.000348013
0.000322576
0.000297145
0.00027172
0.000246299
0.000220886
0.000195482
0.000170093
0.000144728
0.000119402
9.41334e-05
6.89474e-05
4.38801e-05
1.89457e-05
0.00334353
0.00329793
0.00325134
0.00320286
0.00315194
0.00309884
0.00304409
0.00298818
0.00293153
0.00287454
0.00281758
0.00276099
0.00270505
0.00265001
0.00259606
0.00254335
0.00249197
0.00244198
0.00239339
0.00234621
0.00230041
0.00225594
0.00221274
0.00217074
0.00212988
0.00209009
0.00205129
0.00201342
0.00197641
0.0019402
0.00190473
0.00186995
0.0018358
0.00180225
0.00176924
0.00173675
0.00170473
0.00167315
0.00164198
0.00161119
0.00158077
0.00155067
0.00152089
0.0014914
0.00146219
0.00143323
0.00140451
0.00137601
0.00134772
0.00131963
0.00129173
0.001264
0.00123643
0.00120902
0.00118175
0.00115461
0.0011276
0.00110071
0.00107393
0.00104726
0.00102068
0.000994199
0.000967801
0.000941483
0.000915241
0.00088907
0.000862965
0.000836922
0.000810937
0.000785005
0.000759122
0.000733287
0.000707494
0.00068174
0.000656023
0.000630339
0.000604686
0.000579061
0.000553461
0.000527884
0.000502328
0.000476789
0.000451266
0.000425756
0.000400259
0.000374771
0.000349291
0.000323817
0.000298349
0.000272884
0.000247424
0.000221967
0.000196517
0.000171076
0.000145651
0.00012025
9.48862e-05
6.95693e-05
4.43189e-05
1.91129e-05
0.00331303
0.00326989
0.0032261
0.00318078
0.00313335
0.00308395
0.00303301
0.00298093
0.00292802
0.0028746
0.00282095
0.00276738
0.00271412
0.0026614
0.00260941
0.00255828
0.00250813
0.00245904
0.00241107
0.00236424
0.00231856
0.00227401
0.00223058
0.00218822
0.00214691
0.00210658
0.00206719
0.00202869
0.00199103
0.00195416
0.00191803
0.00188259
0.00184781
0.00181364
0.00178004
0.00174697
0.00171441
0.00168231
0.00165065
0.0016194
0.00158853
0.00155803
0.00152786
0.00149801
0.00146845
0.00143917
0.00141015
0.00138137
0.00135283
0.00132449
0.00129636
0.00126842
0.00124065
0.00121305
0.0011856
0.0011583
0.00113113
0.0011041
0.00107718
0.00105038
0.00102369
0.000997089
0.000970584
0.000944167
0.000917831
0.000891571
0.000865382
0.000839259
0.000813198
0.000787194
0.000761244
0.000735344
0.00070949
0.000683678
0.000657905
0.000632167
0.000606463
0.000580789
0.000555142
0.000529519
0.000503919
0.000478337
0.000452773
0.000427223
0.000401685
0.000376158
0.000350638
0.000325125
0.000299615
0.000274108
0.000248603
0.000223098
0.000197593
0.00017209
0.000146591
0.000121101
9.5623e-05
7.01613e-05
4.4728e-05
1.92848e-05
0.00328618
0.00324514
0.00320372
0.00316104
0.0031165
0.0030702
0.00302246
0.00297361
0.00292388
0.00287352
0.00282278
0.00277188
0.00272103
0.00267044
0.00262027
0.00257067
0.00252176
0.00247363
0.00242635
0.00237998
0.00233455
0.00229007
0.00224655
0.00220397
0.00216233
0.00212159
0.00208173
0.00204271
0.0020045
0.00196706
0.00193035
0.00189433
0.00185898
0.00182424
0.0017901
0.0017565
0.00172343
0.00169085
0.00165873
0.00162704
0.00159577
0.00156487
0.00153433
0.00150414
0.00147425
0.00144467
0.00141537
0.00138632
0.00135753
0.00132896
0.00130061
0.00127246
0.0012445
0.00121672
0.00118911
0.00116165
0.00113434
0.00110717
0.00108012
0.0010532
0.00102639
0.000999691
0.000973087
0.000946576
0.000920152
0.000893809
0.000867542
0.000841345
0.000815215
0.000789145
0.000763132
0.000737172
0.000711262
0.000685396
0.000659572
0.000633786
0.000608035
0.000582316
0.000556626
0.000530962
0.000505321
0.000479701
0.000454098
0.000428511
0.000402937
0.000377373
0.000351817
0.000326266
0.000300718
0.000275169
0.000249619
0.000224064
0.000198502
0.000172932
0.000147352
0.00012176
9.61582e-05
7.05459e-05
4.49421e-05
1.93256e-05
0.00326422
0.00322491
0.00318541
0.00314487
0.00310265
0.00305883
0.00301367
0.00296743
0.0029203
0.00287247
0.00282413
0.00277548
0.00272669
0.00267795
0.0026294
0.00258118
0.00253341
0.0024862
0.00243963
0.00239376
0.00234865
0.00230433
0.00226082
0.00221814
0.00217629
0.00213526
0.00209504
0.00205561
0.00201695
0.00197904
0.00194184
0.00190533
0.00186948
0.00183425
0.00179962
0.00176556
0.00173203
0.00169902
0.00166648
0.00163439
0.00160274
0.00157148
0.00154061
0.00151009
0.00147991
0.00145004
0.00142047
0.00139117
0.00136214
0.00133335
0.0013048
0.00127645
0.00124831
0.00122036
0.00119259
0.00116499
0.00113754
0.00111024
0.00108307
0.00105603
0.00102911
0.00100231
0.00097561
0.000949008
0.000922499
0.000896075
0.000869732
0.000843463
0.000817264
0.000791129
0.000765055
0.000739036
0.00071307
0.000687151
0.000661276
0.000635441
0.000609644
0.00058388
0.000558147
0.000532442
0.000506761
0.000481102
0.000455461
0.000429837
0.000404225
0.000378625
0.000353031
0.000327441
0.000301853
0.000276262
0.000250665
0.000225057
0.000199433
0.000173789
0.000148118
0.000122413
9.66703e-05
7.08883e-05
4.5095e-05
1.92951e-05
0.0032476
0.00320954
0.00317143
0.00313241
0.00309186
0.00304982
0.00300651
0.00296215
0.0029169
0.00287091
0.00282434
0.00277735
0.00273011
0.00268277
0.00263546
0.00258832
0.00254147
0.00249501
0.00244903
0.0024036
0.0023588
0.00231466
0.00227122
0.00222851
0.00218655
0.00214534
0.00210489
0.00206518
0.00202621
0.00198796
0.0019504
0.00191353
0.00187731
0.00184171
0.00180672
0.0017723
0.00173843
0.00170508
0.00167223
0.00163984
0.00160789
0.00157636
0.00154522
0.00151446
0.00148404
0.00145396
0.00142418
0.00139469
0.00136548
0.00133653
0.00130781
0.00127932
0.00125105
0.00122297
0.00119507
0.00116736
0.0011398
0.0011124
0.00108514
0.00105802
0.00103102
0.00100414
0.000977367
0.000950699
0.000924126
0.000897643
0.000871243
0.000844922
0.000818673
0.000792491
0.000766372
0.000740311
0.000714304
0.000688347
0.000662436
0.000636567
0.000610736
0.00058494
0.000559177
0.000533442
0.000507732
0.000482045
0.000456378