/*--------------------------------*- C++ -*----------------------------------*\
| =========                 |                                                 |
| \\      /  F ield         | OpenFOAM: The Open Source CFD Toolbox           |
|  \\    /   O peration     | Version:  2.3.0                                 |
|   \\  /    A nd           | Web:      www.OpenFOAM.org                      |
|    \\/     M anipulation  |                                                 |
\*---------------------------------------------------------------------------*/
FoamFile
{
    version     2.0;
    format      ascii;
    class       surfaceScalarField;
    location    "1";
    object      phi_0;
}
// * * * * * * * * * * * * * * * * * * * * * * * * * * * * * * * * * * * * * //

dimensions      [0 3 -1 0 0 0 0];

internalField   nonuniform List<scalar> 
6598
(
2.86377e-08
2.90244e-09
-3.15401e-08
2.57717e-08
2.866e-09
2.30853e-08
2.68645e-09
2.06092e-08
2.47606e-09
1.83597e-08
2.24951e-09
1.63472e-08
2.01247e-09
1.4574e-08
1.77327e-09
1.30344e-08
1.53952e-09
1.17168e-08
1.31764e-09
1.06039e-08
1.11288e-09
9.67478e-09
9.29131e-10
8.90612e-09
7.68663e-10
8.27398e-09
6.32131e-10
7.75524e-09
5.18748e-10
7.32861e-09
4.26623e-10
6.97546e-09
3.53155e-10
6.68003e-09
2.95424e-10
6.42952e-09
2.50514e-10
6.21378e-09
2.15737e-10
6.02502e-09
1.88767e-10
5.85733e-09
1.67687e-10
5.70634e-09
1.50984e-10
5.56884e-09
1.37501e-10
5.44246e-09
1.26384e-10
5.32544e-09
1.17016e-10
5.21649e-09
1.08958e-10
5.11458e-09
1.01904e-10
5.01894e-09
9.56415e-11
4.92892e-09
9.00224e-11
4.84398e-09
8.49409e-11
4.76366e-09
8.03199e-11
4.68756e-09
7.61012e-11
4.61532e-09
7.22386e-11
4.54662e-09
6.86939e-11
4.48119e-09
6.54347e-11
4.41876e-09
6.24327e-11
4.35909e-09
5.96626e-11
4.30199e-09
5.71021e-11
4.24726e-09
5.47309e-11
4.19473e-09
5.25308e-11
4.14424e-09
5.04856e-11
4.09566e-09
4.85808e-11
4.04886e-09
4.68032e-11
4.00372e-09
4.51413e-11
3.96014e-09
4.35845e-11
3.91801e-09
4.21237e-11
3.87726e-09
4.07505e-11
3.8378e-09
3.94574e-11
3.79957e-09
3.82378e-11
3.76248e-09
3.70857e-11
3.72648e-09
3.59958e-11
3.69152e-09
3.49631e-11
3.65754e-09
3.39834e-11
3.62448e-09
3.30528e-11
3.59232e-09
3.21676e-11
3.56099e-09
3.13246e-11
3.53047e-09
3.05209e-11
3.50072e-09
2.97539e-11
3.4717e-09
2.90209e-11
3.44338e-09
2.832e-11
3.41573e-09
2.76489e-11
3.38872e-09
2.70059e-11
3.36233e-09
2.63892e-11
3.33654e-09
2.57973e-11
3.31131e-09
2.52286e-11
3.28663e-09
2.46819e-11
3.26247e-09
2.41559e-11
3.23882e-09
2.36495e-11
3.21566e-09
2.31616e-11
3.19297e-09
2.26912e-11
3.17073e-09
2.22375e-11
3.14893e-09
2.17995e-11
3.12755e-09
2.13766e-11
3.10659e-09
2.09679e-11
3.08601e-09
2.05729e-11
3.06582e-09
2.01908e-11
3.046e-09
1.98211e-11
3.02654e-09
1.94632e-11
3.00742e-09
1.91166e-11
2.98864e-09
1.87809e-11
2.97018e-09
1.84556e-11
2.95204e-09
1.81403e-11
2.93421e-09
1.78346e-11
2.91667e-09
1.75382e-11
2.89942e-09
1.72507e-11
2.88245e-09
1.69717e-11
2.86575e-09
1.67011e-11
2.84931e-09
1.64384e-11
2.83313e-09
1.61834e-11
2.81719e-09
1.59358e-11
2.80149e-09
1.56953e-11
2.78603e-09
1.54618e-11
2.7708e-09
1.52354e-11
2.75578e-09
1.50171e-11
2.74097e-09
1.48109e-11
2.72634e-09
1.46291e-11
2.71182e-09
1.45158e-11
2.69727e-09
1.45582e-11
2.68213e-09
1.51345e-11
4.25597e-11
3.43414e-08
3.1579e-09
-3.45969e-08
3.37732e-08
3.43423e-09
3.29743e-08
3.48535e-09
3.20195e-08
3.43089e-09
3.09639e-08
3.3051e-09
2.9853e-08
3.12331e-09
2.87238e-08
2.90251e-09
2.76045e-08
2.65887e-09
2.6516e-08
2.40611e-09
2.54732e-08
2.15565e-09
2.44858e-08
1.91654e-09
2.35591e-08
1.69533e-09
2.26953e-08
1.49598e-09
2.18939e-08
1.32017e-09
2.11528e-08
1.16771e-09
2.04688e-08
1.03714e-09
1.9838e-08
9.26196e-10
1.92563e-08
8.32257e-10
1.87193e-08
7.52695e-10
1.8223e-08
6.85064e-10
1.77635e-08
6.27222e-10
1.73371e-08
5.77362e-10
1.69406e-08
5.3401e-10
1.6571e-08
4.95989e-10
1.62256e-08
4.62366e-10
1.59022e-08
4.32415e-10
1.55985e-08
4.05564e-10
1.53128e-08
3.81361e-10
1.50434e-08
3.59447e-10
1.47888e-08
3.39531e-10
1.45477e-08
3.21374e-10
1.43191e-08
3.04773e-10
1.41017e-08
2.8956e-10
1.38949e-08
2.75585e-10
1.36976e-08
2.62722e-10
1.35091e-08
2.50857e-10
1.33289e-08
2.39892e-10
1.31563e-08
2.29738e-10
1.29907e-08
2.20317e-10
1.28317e-08
2.1156e-10
1.26787e-08
2.03404e-10
1.25315e-08
1.95795e-10
1.23896e-08
1.88683e-10
1.22528e-08
1.82024e-10
1.21206e-08
1.75778e-10
1.19928e-08
1.6991e-10
1.18691e-08
1.64389e-10
1.17494e-08
1.59186e-10
1.16334e-08
1.54275e-10
1.15208e-08
1.49634e-10
1.14116e-08
1.45241e-10
1.13055e-08
1.41077e-10
1.12023e-08
1.37126e-10
1.1102e-08
1.33373e-10
1.10044e-08
1.29802e-10
1.09093e-08
1.26401e-10
1.08167e-08
1.23159e-10
1.07263e-08
1.20065e-10
1.06383e-08
1.17109e-10
1.05523e-08
1.14282e-10
1.04684e-08
1.11576e-10
1.03864e-08
1.08983e-10
1.03063e-08
1.06497e-10
1.0228e-08
1.04111e-10
1.01514e-08
1.01819e-10
1.00764e-08
9.96158e-11
1.00031e-08
9.74966e-11
9.9313e-09
9.54566e-11
9.86097e-09
9.34914e-11
9.79207e-09
9.1597e-11
9.72453e-09
8.97699e-11
9.65833e-09
8.80065e-11
9.5934e-09
8.63036e-11
9.52971e-09
8.46583e-11
9.46721e-09
8.30679e-11
9.40587e-09
8.15296e-11
9.34565e-09
8.00412e-11
9.28652e-09
7.86004e-11
9.22843e-09
7.7205e-11
9.17136e-09
7.58533e-11
9.11527e-09
7.45433e-11
9.06014e-09
7.32733e-11
9.00593e-09
7.20417e-11
8.95262e-09
7.08472e-11
8.90018e-09
6.96882e-11
8.84859e-09
6.85635e-11
8.79782e-09
6.74718e-11
8.74785e-09
6.6412e-11
8.69865e-09
6.53827e-11
8.6502e-09
6.4383e-11
8.60248e-09
6.34117e-11
8.55548e-09
6.24682e-11
8.50916e-09
6.15527e-11
8.46351e-09
6.06684e-11
8.41849e-09
5.98275e-11
8.37405e-09
5.90712e-11
8.33004e-09
5.853e-11
8.28597e-09
5.86196e-11
8.23718e-09
6.39304e-11
1.08191e-10
3.64349e-08
2.97444e-09
-3.62515e-08
3.65273e-08
3.34191e-09
3.64962e-08
3.51646e-09
3.63462e-08
3.58081e-09
3.60869e-08
3.5644e-09
3.57319e-08
3.4783e-09
3.52982e-08
3.33623e-09
3.48032e-08
3.15386e-09
3.42634e-08
2.94591e-09
3.36936e-08
2.72546e-09
3.31065e-08
2.50362e-09
3.25127e-08
2.28919e-09
3.19203e-08
2.08838e-09
3.13355e-08
1.90491e-09
3.07629e-08
1.74039e-09
3.02052e-08
1.59479e-09
2.96644e-08
1.46698e-09
2.91415e-08
1.35519e-09
2.86368e-08
1.25739e-09
2.81503e-08
1.17155e-09
2.76818e-08
1.09577e-09
2.72307e-08
1.02843e-09
2.67966e-08
9.68139e-10
2.63788e-08
9.13773e-10
2.59767e-08
8.64426e-10
2.55898e-08
8.19378e-10
2.52173e-08
7.78053e-10
2.48586e-08
7.39994e-10
2.45133e-08
7.04828e-10
2.41805e-08
6.72252e-10
2.38599e-08
6.4201e-10
2.35508e-08
6.13885e-10
2.32527e-08
5.87687e-10
2.2965e-08
5.63253e-10
2.26873e-08
5.40433e-10
2.24191e-08
5.19095e-10
2.21598e-08
4.99119e-10
2.19092e-08
4.80397e-10
2.16667e-08
4.6283e-10
2.14319e-08
4.46327e-10
2.12045e-08
4.30806e-10
2.09841e-08
4.16192e-10
2.07704e-08
4.02416e-10
2.0563e-08
3.89416e-10
2.03616e-08
3.77132e-10
2.0166e-08
3.65514e-10
1.99759e-08
3.54513e-10
1.9791e-08
3.44085e-10
1.96111e-08
3.3419e-10
1.94359e-08
3.24789e-10
1.92653e-08
3.15851e-10
1.9099e-08
3.07342e-10
1.89369e-08
2.99235e-10
1.87788e-08
2.91502e-10
1.86245e-08
2.84121e-10
1.84738e-08
2.77068e-10
1.83267e-08
2.70322e-10
1.81829e-08
2.63865e-10
1.80423e-08
2.57679e-10
1.79048e-08
2.51748e-10
1.77703e-08
2.46057e-10
1.76387e-08
2.40591e-10
1.75099e-08
2.35339e-10
1.73837e-08
2.30287e-10
1.72601e-08
2.25425e-10
1.7139e-08
2.20743e-10
1.70202e-08
2.1623e-10
1.69038e-08
2.11879e-10
1.67896e-08
2.0768e-10
1.66776e-08
2.03626e-10
1.65677e-08
1.9971e-10
1.64597e-08
1.95926e-10
1.63538e-08
1.92265e-10
1.62497e-08
1.88724e-10
1.61475e-08
1.85296e-10
1.6047e-08
1.81977e-10
1.59483e-08
1.78761e-10
1.58513e-08
1.75644e-10
1.57559e-08
1.72621e-10
1.5662e-08
1.6969e-10
1.55697e-08
1.66846e-10
1.54789e-08
1.64086e-10
1.53895e-08
1.61406e-10
1.53016e-08
1.58804e-10
1.5215e-08
1.56276e-10
1.51297e-08
1.53821e-10
1.50458e-08
1.51435e-10
1.49631e-08
1.49116e-10
1.48816e-08
1.46862e-10
1.48013e-08
1.4467e-10
1.47222e-08
1.42538e-10
1.46442e-08
1.40465e-10
1.45673e-08
1.38452e-10
1.44914e-08
1.36503e-10
1.44166e-08
1.34643e-10
1.43428e-08
1.32948e-10
1.42696e-08
1.31677e-10
1.41963e-08
1.31879e-10
1.41192e-08
1.41111e-10
1.86517e-10
3.80068e-08
2.75183e-09
-3.77842e-08
3.82312e-08
3.11754e-09
3.84166e-08
3.33104e-09
3.85513e-08
3.44606e-09
3.86282e-08
3.48755e-09
3.86427e-08
3.46379e-09
3.85949e-08
3.38403e-09
3.84884e-08
3.26039e-09
3.83289e-08
3.10535e-09
3.81237e-08
2.93065e-09
3.78806e-08
2.74679e-09
3.76072e-08
2.5626e-09
3.73107e-08
2.38487e-09
3.69974e-08
2.21819e-09
3.66726e-08
2.06521e-09
3.63404e-08
1.92695e-09
3.60042e-08
1.80323e-09
3.56663e-08
1.69308e-09
3.53285e-08
1.59515e-09
3.49922e-08
1.50787e-09
3.46582e-08
1.42974e-09
3.43273e-08
1.35937e-09
3.39999e-08
1.29557e-09
3.36763e-08
1.23732e-09
3.33569e-08
1.18382e-09
3.30419e-08
1.13438e-09
3.27315e-08
1.08848e-09
3.24258e-08
1.0457e-09
3.21249e-08
1.0057e-09
3.1829e-08
9.6819e-10
3.1538e-08
9.32945e-10
3.12521e-08
8.9977e-10
3.09713e-08
8.68496e-10
3.06956e-08
8.38976e-10
3.0425e-08
8.1108e-10
3.01594e-08
7.8469e-10
2.98988e-08
7.59702e-10
2.96432e-08
7.36018e-10
2.93924e-08
7.1355e-10
2.91466e-08
6.92216e-10
2.89054e-08
6.71942e-10
2.8669e-08
6.52658e-10
2.84371e-08
6.34302e-10
2.82097e-08
6.16813e-10
2.79867e-08
6.00137e-10
2.7768e-08
5.84224e-10
2.75534e-08
5.69027e-10
2.7343e-08
5.54503e-10
2.71366e-08
5.40611e-10
2.69341e-08
5.27314e-10
2.67354e-08
5.14576e-10
2.65403e-08
5.02367e-10
2.63489e-08
4.90655e-10
2.6161e-08
4.79412e-10
2.59765e-08
4.68613e-10
2.57953e-08
4.58232e-10
2.56174e-08
4.48248e-10
2.54426e-08
4.38639e-10
2.52709e-08
4.29384e-10
2.51022e-08
4.20466e-10
2.49364e-08
4.11867e-10
2.47734e-08
4.03571e-10
2.46132e-08
3.95563e-10
2.44557e-08
3.87828e-10
2.43007e-08
3.80353e-10
2.41484e-08
3.73125e-10
2.39985e-08
3.66133e-10
2.3851e-08
3.59367e-10
2.37058e-08
3.52814e-10
2.3563e-08
3.46467e-10
2.34224e-08
3.40314e-10
2.3284e-08
3.34349e-10
2.31477e-08
3.28563e-10
2.30134e-08
3.22949e-10
2.28812e-08
3.17498e-10
2.2751e-08
3.12206e-10
2.26227e-08
3.07064e-10
2.24963e-08
3.02068e-10
2.23717e-08
2.97211e-10
2.22489e-08
2.92489e-10
2.21278e-08
2.87897e-10
2.20085e-08
2.83429e-10
2.18908e-08
2.79082e-10
2.17748e-08
2.74851e-10
2.16603e-08
2.70733e-10
2.15474e-08
2.66724e-10
2.1436e-08
2.62821e-10
2.13261e-08
2.59019e-10
2.12177e-08
2.55316e-10
2.11106e-08
2.51708e-10
2.1005e-08
2.48194e-10
2.09007e-08
2.44769e-10
2.07977e-08
2.41436e-10
2.0696e-08
2.38203e-10
2.05955e-08
2.35105e-10
2.04962e-08
2.32255e-10
2.03979e-08
2.30042e-10
2.02997e-08
2.30043e-10
2.02009e-08
2.3993e-10
2.75859e-10
3.95407e-08
2.55453e-09
-3.93434e-08
3.97676e-08
2.89066e-09
3.99896e-08
3.10901e-09
4.01949e-08
3.24084e-09
4.03756e-08
3.30684e-09
4.05244e-08
3.31498e-09
4.06361e-08
3.27229e-09
4.07084e-08
3.18813e-09
4.0741e-08
3.07271e-09
4.07358e-08
2.93589e-09
4.06958e-08
2.78675e-09
4.06252e-08
2.6332e-09
4.05284e-08
2.48163e-09
4.04099e-08
2.33669e-09
4.02738e-08
2.20137e-09
4.01235e-08
2.07723e-09
3.9962e-08
1.96468e-09
3.97918e-08
1.86337e-09
3.96145e-08
1.77243e-09
3.94316e-08
1.69075e-09
3.92442e-08
1.61716e-09
3.9053e-08
1.55052e-09
3.88588e-08
1.48981e-09
3.86619e-08
1.43416e-09
3.84629e-08
1.38283e-09
3.82621e-08
1.33521e-09
3.80598e-08
1.29081e-09
3.78562e-08
1.24923e-09
3.76518e-08
1.21017e-09
3.74466e-08
1.17335e-09
3.7241e-08
1.13855e-09
3.70352e-08
1.10561e-09
3.68293e-08
1.07437e-09
3.66236e-08
1.0447e-09
3.64182e-08
1.01647e-09
3.62133e-08
9.8959e-10
3.6009e-08
9.63963e-10
3.58055e-08
9.39504e-10
3.56029e-08
9.16138e-10
3.54013e-08
8.93795e-10
3.52009e-08
8.7241e-10
3.50016e-08
8.51923e-10
3.48036e-08
8.32281e-10
3.4607e-08
8.13434e-10
3.44118e-08
7.95333e-10
3.42181e-08
7.77938e-10
3.40259e-08
7.61207e-10
3.38353e-08
7.45103e-10
3.36463e-08
7.29593e-10
3.3459e-08
7.14644e-10
3.32734e-08
7.00227e-10
3.30894e-08
6.86313e-10
3.29072e-08
6.72878e-10
3.27267e-08
6.59896e-10
3.2548e-08
6.47346e-10
3.2371e-08
6.35206e-10
3.21958e-08
6.23457e-10
3.20223e-08
6.12079e-10
3.18507e-08
6.01057e-10
3.16808e-08
5.90372e-10
3.15126e-08
5.80011e-10
3.13462e-08
5.69958e-10
3.11816e-08
5.60201e-10
3.10187e-08
5.50726e-10
3.08575e-08
5.41521e-10
3.06981e-08
5.32576e-10
3.05403e-08
5.23879e-10
3.03843e-08
5.15421e-10
3.02299e-08
5.07192e-10
3.00772e-08
4.99182e-10
2.99261e-08
4.91385e-10
2.97767e-08
4.83791e-10
2.96288e-08
4.76394e-10
2.94826e-08
4.69185e-10
2.9338e-08
4.62158e-10
2.91948e-08
4.55308e-10
2.90533e-08
4.48627e-10
2.89132e-08
4.4211e-10
2.87747e-08
4.35752e-10
2.86376e-08
4.29548e-10
2.8502e-08
4.23493e-10
2.83679e-08
4.17582e-10
2.82352e-08
4.11812e-10
2.81038e-08
4.06177e-10
2.79739e-08
4.00675e-10
2.78453e-08
3.95302e-10
2.77181e-08
3.90054e-10
2.75922e-08
3.84927e-10
2.74676e-08
3.7992e-10
2.73443e-08
3.75027e-10
2.72222e-08
3.70247e-10
2.71014e-08
3.65578e-10
2.69818e-08
3.61019e-10
2.68634e-08
3.56585e-10
2.67462e-08
3.52316e-10
2.66301e-08
3.48352e-10
2.6515e-08
3.45154e-10
2.64007e-08
3.44386e-10
2.62888e-08
3.51829e-10
3.72317e-10
4.1115e-08
2.38438e-09
-4.09448e-08
4.13213e-08
2.68435e-09
4.15356e-08
2.89471e-09
4.17459e-08
3.03047e-09
4.19458e-08
3.10696e-09
4.2129e-08
3.13184e-09
4.22902e-08
3.1111e-09
4.2426e-08
3.05232e-09
4.25347e-08
2.964e-09
4.2616e-08
2.85454e-09
4.2671e-08
2.73175e-09
4.27017e-08
2.60256e-09
4.27106e-08
2.47273e-09
4.27006e-08
2.34665e-09
4.26746e-08
2.22735e-09
4.26353e-08
2.11659e-09
4.25848e-08
2.01516e-09
4.25251e-08
1.92308e-09
4.24576e-08
1.83988e-09
4.23836e-08
1.76479e-09
4.23038e-08
1.69691e-09
4.2219e-08
1.63533e-09
4.21296e-08
1.57919e-09
4.20361e-08
1.52774e-09
4.19386e-08
1.4803e-09
4.18375e-08
1.43633e-09
4.17329e-08
1.39537e-09
4.16251e-08
1.35704e-09
4.15142e-08
1.32104e-09
4.14005e-08
1.28712e-09
4.1284e-08
1.25506e-09
4.11649e-08
1.22469e-09
4.10434e-08
1.19586e-09
4.09197e-08
1.16845e-09
4.07938e-08
1.14234e-09
4.0666e-08
1.11743e-09
4.05363e-08
1.09363e-09
4.04049e-08
1.07088e-09
4.0272e-08
1.04908e-09
4.01376e-08
1.02818e-09
4.00019e-08
1.00812e-09
3.98649e-08
9.8885e-10
3.97269e-08
9.70309e-10
3.95879e-08
9.52456e-10
3.9448e-08
9.35249e-10
3.93073e-08
9.18648e-10
3.91659e-08
9.02618e-10
3.90238e-08
8.87126e-10
3.88813e-08
8.72142e-10
3.87383e-08
8.57637e-10
3.85949e-08
8.43584e-10
3.84513e-08
8.29961e-10
3.83074e-08
8.16745e-10
3.81634e-08
8.03914e-10
3.80193e-08
7.91449e-10
3.78752e-08
7.79334e-10
3.77311e-08
7.6755e-10
3.75871e-08
7.56082e-10
3.74432e-08
7.44917e-10
3.72995e-08
7.3404e-10
3.71561e-08
7.23439e-10
3.7013e-08
7.13102e-10
3.68702e-08
7.03018e-10
3.67277e-08
6.93178e-10
3.65857e-08
6.8357e-10
3.6444e-08
6.74186e-10
3.63029e-08
6.65019e-10
3.61623e-08
6.56059e-10
3.60222e-08
6.47299e-10
3.58826e-08
6.38732e-10
3.57436e-08
6.30352e-10
3.56053e-08
6.22153e-10
3.54675e-08
6.14128e-10
3.53305e-08
6.06272e-10
3.5194e-08
5.98579e-10
3.50583e-08
5.91046e-10
3.49233e-08
5.83667e-10
3.47889e-08
5.76438e-10
3.46553e-08
5.69355e-10
3.45225e-08
5.62414e-10
3.43903e-08
5.55612e-10
3.4259e-08
5.48945e-10
3.41284e-08
5.4241e-10
3.39986e-08
5.36004e-10
3.38695e-08
5.29725e-10
3.37412e-08
5.2357e-10
3.36138e-08
5.17535e-10
3.34871e-08
5.1162e-10
3.33612e-08
5.0582e-10
3.32361e-08
5.00134e-10
3.31117e-08
4.9456e-10
3.29882e-08
4.89095e-10
3.28655e-08
4.83742e-10
3.27436e-08
4.78514e-10
3.26224e-08
4.73456e-10
3.25021e-08
4.68708e-10
3.23825e-08
4.64698e-10
3.22642e-08
4.62729e-10
3.21502e-08
4.65816e-10
4.6935e-10
4.27421e-08
2.23497e-09
-4.25927e-08
4.29271e-08
2.49933e-09
4.31256e-08
2.69625e-09
4.33256e-08
2.83043e-09
4.35208e-08
2.91177e-09
4.37058e-08
2.94685e-09
4.38761e-08
2.94087e-09
4.40283e-08
2.90007e-09
4.41607e-08
2.83158e-09
4.42726e-08
2.74262e-09
4.43644e-08
2.63998e-09
4.44372e-08
2.52976e-09
4.44928e-08
2.41713e-09
4.45333e-08
2.30618e-09
4.45608e-08
2.19983e-09
4.45774e-08
2.09998e-09
4.45849e-08
2.00764e-09
4.45849e-08
1.92311e-09
4.45786e-08
1.84622e-09
4.45669e-08
1.77648e-09
4.45506e-08
1.71323e-09
4.45301e-08
1.65575e-09
4.4506e-08
1.60335e-09
4.44783e-08
1.55537e-09
4.44474e-08
1.51122e-09
4.44133e-08
1.47041e-09
4.43762e-08
1.43251e-09
4.43361e-08
1.39717e-09
4.4293e-08
1.36408e-09
4.42471e-08
1.33301e-09
4.41984e-08
1.30375e-09
4.4147e-08
1.27611e-09
4.40929e-08
1.24996e-09
4.40362e-08
1.22516e-09
4.39769e-08
1.2016e-09
4.39152e-08
1.17918e-09
4.3851e-08
1.15781e-09
4.37845e-08
1.13741e-09
4.37156e-08
1.11791e-09
4.36446e-08
1.09925e-09
4.35713e-08
1.08135e-09
4.3496e-08
1.06418e-09
4.34186e-08
1.04767e-09
4.33393e-08
1.03179e-09
4.32581e-08
1.01648e-09
4.3175e-08
1.00172e-09
4.30902e-08
9.87463e-10
4.30036e-08
9.73679e-10
4.29154e-08
9.60338e-10
4.28256e-08
9.47413e-10
4.27343e-08
9.34877e-10
4.26416e-08
9.22708e-10
4.25475e-08
9.10884e-10
4.2452e-08
8.99384e-10
4.23552e-08
8.88191e-10
4.22573e-08
8.77287e-10
4.21582e-08
8.66656e-10
4.2058e-08
8.56284e-10
4.19567e-08
8.46158e-10
4.18545e-08
8.36265e-10
4.17514e-08
8.26593e-10
4.16473e-08
8.17133e-10
4.15425e-08
8.07873e-10
4.14368e-08
7.98806e-10
4.13305e-08
7.89923e-10
4.12235e-08
7.81215e-10
4.11158e-08
7.72676e-10
4.10076e-08
7.64299e-10
4.08988e-08
7.56078e-10
4.07895e-08
7.48007e-10
4.06798e-08
7.4008e-10
4.05696e-08
7.32294e-10
4.04591e-08
7.24642e-10
4.03483e-08
7.17121e-10
4.02371e-08
7.09728e-10
4.01257e-08
7.02457e-10
4.00141e-08
6.95307e-10
3.99022e-08
6.88273e-10
3.97903e-08
6.81354e-10
3.96781e-08
6.74546e-10
3.95659e-08
6.67847e-10
3.94536e-08
6.61255e-10
3.93412e-08
6.54769e-10
3.92288e-08
6.48385e-10
3.91165e-08
6.42104e-10
3.90041e-08
6.35922e-10
3.88918e-08
6.2984e-10
3.87796e-08
6.23854e-10
3.86674e-08
6.17965e-10
3.85554e-08
6.1217e-10
3.84435e-08
6.06468e-10
3.83317e-08
6.00857e-10
3.82201e-08
5.9534e-10
3.81087e-08
5.89929e-10
3.79975e-08
5.8466e-10
3.78866e-08
5.79647e-10
3.77761e-08
5.75186e-10
3.76669e-08
5.71945e-10
3.75624e-08
5.70232e-10
5.59173e-10
4.44249e-08
2.10083e-09
-4.42907e-08
4.45915e-08
2.33266e-09
4.4774e-08
2.51378e-09
4.49612e-08
2.64325e-09
4.51465e-08
2.72643e-09
4.53251e-08
2.76834e-09
4.54926e-08
2.77337e-09
4.5646e-08
2.74663e-09
4.57835e-08
2.69404e-09
4.59044e-08
2.62175e-09
4.60087e-08
2.53567e-09
4.60973e-08
2.44117e-09
4.61715e-08
2.34289e-09
4.62331e-08
2.24459e-09
4.62839e-08
2.14909e-09
4.63255e-08
2.05834e-09
4.63597e-08
1.9735e-09
4.63877e-08
1.89509e-09
4.64107e-08
1.82318e-09
4.64297e-08
1.75754e-09
4.64452e-08
1.69771e-09
4.64578e-08
1.64316e-09
4.64678e-08
1.59334e-09
4.64755e-08
1.5477e-09
4.64809e-08
1.50573e-09
4.64844e-08
1.46701e-09
4.64857e-08
1.43114e-09
4.64851e-08
1.39779e-09
4.64825e-08
1.36668e-09
4.64779e-08
1.33758e-09
4.64714e-08
1.31029e-09
4.64629e-08
1.28463e-09
4.64524e-08
1.26045e-09
4.64399e-08
1.23762e-09
4.64255e-08
1.21603e-09
4.64091e-08
1.19558e-09
4.63907e-08
1.17618e-09
4.63704e-08
1.15775e-09
4.63481e-08
1.1402e-09
4.63239e-08
1.12348e-09
4.62977e-08
1.10752e-09
4.62696e-08
1.09227e-09
4.62396e-08
1.07767e-09
4.62077e-08
1.06368e-09
4.6174e-08
1.05025e-09
4.61383e-08
1.03735e-09
4.61009e-08
1.02493e-09
4.60616e-08
1.01297e-09
4.60205e-08
1.00142e-09
4.59776e-08
9.90268e-10
4.5933e-08
9.79479e-10
4.58867e-08
9.69031e-10
4.58387e-08
9.58899e-10
4.5789e-08
9.49064e-10
4.57377e-08
9.39506e-10
4.56848e-08
9.30206e-10
4.56303e-08
9.21149e-10
4.55742e-08
9.1232e-10
4.55167e-08
9.03703e-10
4.54577e-08
8.95287e-10
4.53972e-08
8.87059e-10
4.53353e-08
8.79008e-10
4.52721e-08
8.71124e-10
4.52075e-08
8.63398e-10
4.51416e-08
8.55822e-10
4.50744e-08
8.48386e-10
4.5006e-08
8.41085e-10
4.49364e-08
8.3391e-10
4.48656e-08
8.26857e-10
4.47937e-08
8.19919e-10
4.47207e-08
8.13091e-10
4.46466e-08
8.06369e-10
4.45715e-08
7.99748e-10
4.44954e-08
7.93224e-10
4.44184e-08
7.86793e-10
4.43404e-08
7.80453e-10
4.42615e-08
7.74199e-10
4.41817e-08
7.68031e-10
4.41011e-08
7.61945e-10
4.40197e-08
7.55938e-10
4.39376e-08
7.50011e-10
4.38547e-08
7.44159e-10
4.3771e-08
7.38384e-10
4.36867e-08
7.32682e-10
4.36018e-08
7.27054e-10
4.35162e-08
7.21498e-10
4.343e-08
7.16014e-10
4.33433e-08
7.10601e-10
4.3256e-08
7.05258e-10
4.31682e-08
6.99984e-10
4.30799e-08
6.94777e-10
4.29911e-08
6.89638e-10
4.29019e-08
6.84565e-10
4.28122e-08
6.79566e-10
4.27222e-08
6.74664e-10
4.2632e-08
6.69915e-10
4.25417e-08
6.6543e-10
4.24525e-08
6.61201e-10
4.23672e-08
6.55495e-10
6.34759e-10
4.61649e-08
1.97807e-09
-4.60422e-08
4.63164e-08
2.18115e-09
4.64844e-08
2.34584e-09
4.66591e-08
2.46857e-09
4.6834e-08
2.55147e-09
4.70044e-08
2.59793e-09
4.71663e-08
2.61145e-09
4.73168e-08
2.59616e-09
4.74539e-08
2.55691e-09
4.75768e-08
2.49888e-09
4.76853e-08
2.42714e-09
4.77801e-08
2.34639e-09
4.78622e-08
2.26078e-09
4.79331e-08
2.17375e-09
4.79942e-08
2.08797e-09
4.80472e-08
2.00538e-09
4.80934e-08
1.92725e-09
4.81342e-08
1.85427e-09
4.81707e-08
1.78671e-09
4.82037e-08
1.72453e-09
4.82339e-08
1.66749e-09
4.82619e-08
1.61521e-09
4.82879e-08
1.56727e-09
4.83124e-08
1.52324e-09
4.83354e-08
1.4827e-09
4.83572e-08
1.44528e-09
4.83777e-08
1.41063e-09
4.8397e-08
1.37846e-09
4.84152e-08
1.34852e-09
4.84322e-08
1.32057e-09
4.8448e-08
1.29443e-09
4.84627e-08
1.26993e-09
4.84763e-08
1.24693e-09
4.84886e-08
1.2253e-09
4.84997e-08
1.20492e-09
4.85096e-08
1.1857e-09
4.85182e-08
1.16754e-09
4.85256e-08
1.15037e-09
4.85317e-08
1.1341e-09
4.85365e-08
1.11868e-09
4.854e-08
1.10404e-09
4.85421e-08
1.09012e-09
4.85429e-08
1.07687e-09
4.85424e-08
1.06424e-09
4.85404e-08
1.05218e-09
4.85371e-08
1.04066e-09
4.85324e-08
1.02964e-09
4.85263e-08
1.01907e-09
4.85188e-08
1.00894e-09
4.85099e-08
9.99199e-10
4.84995e-08
9.89829e-10
4.84878e-08
9.80804e-10
4.84746e-08
9.72097e-10
4.84599e-08
9.63687e-10
4.84439e-08
9.55554e-10
4.84264e-08
9.47678e-10
4.84075e-08
9.4004e-10
4.83872e-08
9.32626e-10
4.83655e-08
9.2542e-10
4.83424e-08
9.18407e-10
4.83179e-08
9.11575e-10
4.8292e-08
9.04912e-10
4.82647e-08
8.98406e-10
4.8236e-08
8.92047e-10
4.8206e-08
8.85826e-10
4.81747e-08
8.79734e-10
4.8142e-08
8.73762e-10
4.8108e-08
8.67904e-10
4.80727e-08
8.62153e-10
4.80361e-08
8.56502e-10
4.79983e-08
8.50945e-10
4.79592e-08
8.45477e-10
4.79188e-08
8.40093e-10
4.78773e-08
8.3479e-10
4.78345e-08
8.29561e-10
4.77905e-08
8.24405e-10
4.77454e-08
8.19318e-10
4.76991e-08
8.14296e-10
4.76518e-08
8.09337e-10
4.76033e-08
8.0444e-10
4.75537e-08
7.99601e-10
4.7503e-08
7.94819e-10
4.74513e-08
7.90093e-10
4.73986e-08
7.85421e-10
4.73448e-08
7.80803e-10
4.72901e-08
7.76237e-10
4.72344e-08
7.71724e-10
4.71777e-08
7.67261e-10
4.71201e-08
7.6285e-10
4.70616e-08
7.58487e-10
4.70022e-08
7.54172e-10
4.69419e-08
7.49903e-10
4.68808e-08
7.45678e-10
4.68189e-08
7.41496e-10
4.67562e-08
7.37356e-10
4.66929e-08
7.33254e-10
4.66292e-08
7.29105e-10
4.6566e-08
7.24367e-10
4.65053e-08
7.16199e-10
6.91484e-10
4.79644e-08
1.864e-09
-4.78504e-08
4.81035e-08
2.04206e-09
4.82587e-08
2.19068e-09
4.84218e-08
2.30547e-09
4.85868e-08
2.38648e-09
4.8749e-08
2.43566e-09
4.89048e-08
2.45566e-09
4.90513e-08
2.44971e-09
4.91864e-08
2.42175e-09
4.93092e-08
2.37607e-09
4.94194e-08
2.31697e-09
4.95173e-08
2.24853e-09
4.96036e-08
2.17442e-09
4.96796e-08
2.09776e-09
4.97466e-08
2.02103e-09
4.98058e-08
1.94615e-09
4.98586e-08
1.87441e-09
4.99063e-08
1.80664e-09
4.99497e-08
1.74327e-09
4.99898e-08
1.68442e-09
5.00273e-08
1.63001e-09
5.00627e-08
1.57981e-09
5.00964e-08
1.53353e-09
5.01288e-08
1.49085e-09
5.01601e-08
1.45144e-09
5.01904e-08
1.41498e-09
5.02198e-08
1.38118e-09
5.02485e-08
1.34978e-09
5.02765e-08
1.32055e-09
5.03037e-08
1.29329e-09
5.03304e-08
1.26781e-09
5.03563e-08
1.24397e-09
5.03816e-08
1.22162e-09
5.04063e-08
1.20065e-09
5.04303e-08
1.18094e-09
5.04536e-08
1.1624e-09
5.04762e-08
1.14493e-09
5.04981e-08
1.12846e-09
5.05193e-08
1.11292e-09
5.05397e-08
1.09824e-09
5.05594e-08
1.08436e-09
5.05783e-08
1.07121e-09
5.05964e-08
1.05875e-09
5.06137e-08
1.04693e-09
5.06302e-08
1.03571e-09
5.06458e-08
1.02504e-09
5.06606e-08
1.01488e-09
5.06744e-08
1.0052e-09
5.06874e-08
9.95966e-10
5.06995e-08
9.87146e-10
5.07106e-08
9.78711e-10
5.07207e-08
9.70635e-10
5.07299e-08
9.62893e-10
5.07382e-08
9.55461e-10
5.07454e-08
9.4832e-10
5.07516e-08
9.41447e-10
5.07569e-08
9.34826e-10
5.0761e-08
9.28439e-10
5.07642e-08
9.2227e-10
5.07663e-08
9.16304e-10
5.07673e-08
9.10527e-10
5.07673e-08
9.04926e-10
5.07662e-08
8.9949e-10
5.07641e-08
8.94207e-10
5.07608e-08
8.89067e-10
5.07565e-08
8.84061e-10
5.07511e-08
8.7918e-10
5.07446e-08
8.74415e-10
5.0737e-08
8.69759e-10
5.07283e-08
8.65205e-10
5.07185e-08
8.60746e-10
5.07076e-08
8.56376e-10
5.06956e-08
8.52091e-10
5.06825e-08
8.47884e-10
5.06683e-08
8.4375e-10
5.0653e-08
8.39687e-10
5.06366e-08
8.35689e-10
5.06192e-08
8.31754e-10
5.06006e-08
8.27877e-10
5.0581e-08
8.24057e-10
5.05603e-08
8.20291e-10
5.05386e-08
8.16577e-10
5.05158e-08
8.12912e-10
5.04919e-08
8.09295e-10
5.0467e-08
8.05726e-10
5.0441e-08
8.02202e-10
5.0414e-08
7.98723e-10
5.0386e-08
7.95288e-10
5.03569e-08
7.91895e-10
5.03269e-08
7.88543e-10
5.02958e-08
7.85231e-10
5.02638e-08
7.81954e-10
5.02307e-08
7.78706e-10
5.01967e-08
7.75479e-10
5.01619e-08
7.72249e-10
5.01262e-08
7.68951e-10
5.00899e-08
7.65352e-10
5.00537e-08
7.60601e-10
5.00183e-08
7.51624e-10
7.27828e-10
4.98258e-08
1.75671e-09
-4.97185e-08
4.99548e-08
1.9131e-09
5.00988e-08
2.04662e-09
5.02514e-08
2.1529e-09
5.04071e-08
2.23082e-09
5.05615e-08
2.28123e-09
5.07112e-08
2.30598e-09
5.08533e-08
2.30755e-09
5.0986e-08
2.28907e-09
5.1108e-08
2.25403e-09
5.12189e-08
2.20607e-09
5.13188e-08
2.14868e-09
5.14082e-08
2.08506e-09
5.14879e-08
2.01801e-09
5.15591e-08
1.94982e-09
5.16229e-08
1.88232e-09
5.16805e-08
1.81683e-09
5.17329e-08
1.75423e-09
5.17811e-08
1.69507e-09
5.1826e-08
1.63961e-09
5.18681e-08
1.58791e-09
5.1908e-08
1.53986e-09
5.19462e-08
1.4953e-09
5.19831e-08
1.454e-09
5.20188e-08
1.41569e-09
5.20537e-08
1.38014e-09
5.20877e-08
1.34711e-09
5.21212e-08
1.31636e-09
5.2154e-08
1.28771e-09
5.21863e-08
1.26096e-09
5.22182e-08
1.23596e-09
5.22496e-08
1.21256e-09
5.22806e-08
1.19064e-09
5.23112e-08
1.17007e-09
5.23413e-08
1.15076e-09
5.23711e-08
1.13262e-09
5.24005e-08
1.11555e-09
5.24295e-08
1.09948e-09
5.24581e-08
1.08434e-09
5.24862e-08
1.07006e-09
5.2514e-08
1.05659e-09
5.25414e-08
1.04387e-09
5.25683e-08
1.03185e-09
5.25947e-08
1.02047e-09
5.26207e-08
1.0097e-09
5.26463e-08
9.99503e-10
5.26713e-08
9.89827e-10
5.26959e-08
9.80643e-10
5.27199e-08
9.71918e-10
5.27434e-08
9.6362e-10
5.27664e-08
9.55722e-10
5.27889e-08
9.48196e-10
5.28107e-08
9.41018e-10
5.2832e-08
9.34164e-10
5.28528e-08
9.27614e-10
5.28729e-08
9.21348e-10
5.28923e-08
9.15345e-10
5.29112e-08
9.09591e-10
5.29294e-08
9.04067e-10
5.29469e-08
8.98759e-10
5.29638e-08
8.93653e-10
5.298e-08
8.88736e-10
5.29955e-08
8.83995e-10
5.30103e-08
8.79419e-10
5.30243e-08
8.74999e-10
5.30377e-08
8.70722e-10
5.30503e-08
8.66582e-10
5.30621e-08
8.62568e-10
5.30732e-08
8.58673e-10
5.30835e-08
8.54889e-10
5.30931e-08
8.51211e-10
5.31018e-08
8.4763e-10
5.31098e-08
8.44141e-10
5.31169e-08
8.4074e-10
5.31232e-08
8.3742e-10
5.31287e-08
8.34177e-10
5.31334e-08
8.31006e-10
5.31373e-08
8.27904e-10
5.31403e-08
8.24868e-10
5.31425e-08
8.21893e-10
5.31438e-08
8.18978e-10
5.31442e-08
8.16119e-10
5.31438e-08
8.13314e-10
5.31426e-08
8.10562e-10
5.31404e-08
8.0786e-10
5.31374e-08
8.05208e-10
5.31335e-08
8.02604e-10
5.31288e-08
8.00047e-10
5.31231e-08
7.97536e-10
5.31166e-08
7.95067e-10
5.31092e-08
7.9264e-10
5.31009e-08
7.90248e-10
5.30917e-08
7.87882e-10
5.30817e-08
7.85525e-10
5.30708e-08
7.83135e-10
5.30591e-08
7.80602e-10
5.30469e-08
7.77611e-10
5.30343e-08
7.7323e-10
5.30211e-08
7.6478e-10
7.45073e-10
5.17516e-08
1.65485e-09
-5.16497e-08
5.18722e-08
1.79248e-09
5.20067e-08
1.91211e-09
5.21499e-08
2.00975e-09
5.2297e-08
2.08375e-09
5.2444e-08
2.1342e-09
5.25877e-08
2.16223e-09
5.27256e-08
2.16971e-09
5.28556e-08
2.15908e-09
5.29765e-08
2.13315e-09
5.30876e-08
2.09493e-09
5.31889e-08
2.04738e-09
5.32807e-08
1.99329e-09
5.33636e-08
1.93511e-09
5.34384e-08
1.87496e-09
5.35062e-08
1.81453e-09
5.35679e-08
1.75512e-09
5.36245e-08
1.69766e-09
5.36768e-08
1.64278e-09
5.37256e-08
1.59083e-09
5.37715e-08
1.54197e-09
5.38151e-08
1.49623e-09
5.38569e-08
1.45354e-09
5.38972e-08
1.41373e-09
5.39362e-08
1.37665e-09
5.39743e-08
1.3421e-09
5.40115e-08
1.3099e-09
5.4048e-08
1.27985e-09
5.40839e-08
1.25179e-09
5.41193e-08
1.22556e-09
5.41542e-08
1.20102e-09
5.41888e-08
1.17802e-09
5.42229e-08
1.15647e-09
5.42568e-08
1.13625e-09
5.42903e-08
1.11725e-09
5.43235e-08
1.09941e-09
5.43564e-08
1.08263e-09
5.4389e-08
1.06683e-09
5.44214e-08
1.05196e-09
5.44535e-08
1.03795e-09
5.44854e-08
1.02475e-09
5.45169e-08
1.01229e-09
5.45483e-08
1.00053e-09
5.45793e-08
9.89415e-10
5.46101e-08
9.78914e-10
5.46406e-08
9.68982e-10
5.46709e-08
9.5958e-10
5.47008e-08
9.50676e-10
5.47305e-08
9.42235e-10
5.47599e-08
9.34228e-10
5.4789e-08
9.26628e-10
5.48178e-08
9.19407e-10
5.48463e-08
9.12541e-10
5.48744e-08
9.06008e-10
5.49023e-08
8.99786e-10
5.49298e-08
8.93856e-10
5.49569e-08
8.88199e-10
5.49837e-08
8.82798e-10
5.50101e-08
8.77637e-10
5.50362e-08
8.72701e-10
5.50619e-08
8.67976e-10
5.50871e-08
8.6345e-10
5.5112e-08
8.59109e-10
5.51365e-08
8.54943e-10
5.51606e-08
8.50941e-10
5.51842e-08
8.47094e-10
5.52074e-08
8.43391e-10
5.52301e-08
8.39826e-10
5.52524e-08
8.36389e-10
5.52742e-08
8.33073e-10
5.52956e-08
8.29871e-10
5.53164e-08
8.26777e-10
5.53368e-08
8.23785e-10
5.53566e-08
8.2089e-10
5.5376e-08
8.18085e-10
5.53948e-08
8.15367e-10
5.54131e-08
8.1273e-10
5.54308e-08
8.10172e-10
5.5448e-08
8.07688e-10
5.54646e-08
8.05274e-10
5.54806e-08
8.02929e-10
5.54961e-08
8.00649e-10
5.5511e-08
7.98432e-10
5.55253e-08
7.96276e-10
5.55389e-08
7.9418e-10
5.5552e-08
7.92141e-10
5.55645e-08
7.90159e-10
5.55763e-08
7.88232e-10
5.55875e-08
7.86358e-10
5.5598e-08
7.84536e-10
5.56079e-08
7.82763e-10
5.56171e-08
7.81032e-10
5.56256e-08
7.79331e-10
5.56335e-08
7.77637e-10
5.56408e-08
7.75896e-10
5.56474e-08
7.73976e-10
5.56534e-08
7.71544e-10
5.56589e-08
7.67763e-10
5.5663e-08
7.60665e-10
7.46342e-10
5.37445e-08
1.55738e-09
-5.36471e-08
5.38583e-08
1.67875e-09
5.39846e-08
1.78575e-09
5.41194e-08
1.87495e-09
5.42587e-08
1.94452e-09
5.43988e-08
1.99405e-09
5.45369e-08
2.02415e-09
5.46705e-08
2.03615e-09
5.47976e-08
2.0319e-09
5.49171e-08
2.01366e-09
5.50282e-08
1.98388e-09
5.51305e-08
1.94503e-09
5.52243e-08
1.89951e-09
5.53099e-08
1.84948e-09
5.53881e-08
1.79682e-09
5.54595e-08
1.74311e-09
5.5525e-08
1.68959e-09
5.55855e-08
1.63721e-09
5.56416e-08
1.58662e-09
5.56942e-08
1.53827e-09
5.57438e-08
1.4924e-09
5.57909e-08
1.44913e-09
5.5836e-08