/*--------------------------------*- C++ -*----------------------------------*\
| =========                 |                                                 |
| \\      /  F ield         | OpenFOAM: The Open Source CFD Toolbox           |
|  \\    /   O peration     | Version:  2.3.0                                 |
|   \\  /    A nd           | Web:      www.OpenFOAM.org                      |
|    \\/     M anipulation  |                                                 |
\*---------------------------------------------------------------------------*/
FoamFile
{
    version     2.0;
    format      ascii;
    class       volScalarField;
    location    "0.9";
    object      p;
}
// * * * * * * * * * * * * * * * * * * * * * * * * * * * * * * * * * * * * * //

dimensions      [0 2 -2 0 0 0 0];

internalField   nonuniform List<scalar> 
2250
(
0.00158096
0.0012996
0.00106958
0.0009175
0.00080215
0.000698338
0.000600172
0.000507279
0.000419019
0.00033446
0.000253051
0.000174702
9.95987e-05
2.80643e-05
-3.9501e-05
-0.000102657
-0.000160962
-0.000214002
-0.000261429
-0.000302982
-0.000338507
-0.00036797
-0.000391462
-0.000409194
-0.000421486
-0.000428754
-0.00043149
-0.000430232
-0.000425549
-0.000418012
-0.000408177
-0.000396566
-0.000383658
-0.000369876
-0.000355584
-0.000341089
-0.000326639
-0.000312427
-0.000298599
-0.000285261
-0.000272479
-0.000260295
-0.000248723
-0.000237762
-0.0002274
-0.000217612
-0.000208371
-0.000199643
-0.000191397
-0.000183599
-0.000176218
-0.000169225
-0.000162593
-0.000156297
-0.000150315
-0.000144626
-0.000139213
-0.00013406
-0.000129151
-0.000124474
-0.000120016
-0.000115766
-0.000111714
-0.00010785
-0.000104164
-0.000100646
-9.7289e-05
-9.40831e-05
-9.10197e-05
-8.80905e-05
-8.52869e-05
-8.26004e-05
-8.00225e-05
-7.75447e-05
-7.51582e-05
-7.28544e-05
-7.06245e-05
-6.84594e-05
-6.635e-05
-6.42869e-05
-6.22605e-05
-6.02608e-05
-5.82774e-05
-5.62995e-05
-5.43159e-05
-5.23145e-05
-5.02826e-05
-4.82066e-05
-4.60718e-05
-4.38621e-05
-4.15598e-05
-3.9145e-05
-3.65948e-05
-3.38822e-05
-3.09742e-05
-2.78274e-05
-2.43813e-05
-2.05296e-05
-1.61096e-05
-1.2373e-05
0.00129025
0.0011382
0.000992786
0.000879485
0.000783429
0.000691747
0.000601762
0.000514228
0.00042947
0.000347276
0.000267523
0.000190352
0.000116086
4.51343e-05
-2.20515e-05
-8.49991e-05
-0.000143244
-0.000196358
-0.000243981
-0.000285839
-0.000321767
-0.000351719
-0.000375771
-0.000394123
-0.000407081
-0.00041505
-0.000418506
-0.000417979
-0.000414026
-0.000407211
-0.000398082
-0.000387155
-0.000374903
-0.000361746
-0.000348047
-0.000334108
-0.000320177
-0.000306448
-0.000293068
-0.00028014
-0.000267735
-0.000255893
-0.000244634
-0.000233959
-0.000223855
-0.000214302
-0.000205275
-0.000196742
-0.000188673
-0.000181038
-0.000173806
-0.000166949
-0.000160442
-0.000154261
-0.000148385
-0.000142794
-0.000137472
-0.000132402
-0.000127572
-0.000122967
-0.000118577
-0.00011439
-0.000110397
-0.000106588
-0.000102953
-9.94848e-05
-9.61733e-05
-9.30104e-05
-8.99879e-05
-8.70972e-05
-8.43301e-05
-8.16782e-05
-7.91333e-05
-7.66867e-05
-7.43302e-05
-7.2055e-05
-6.98524e-05
-6.77135e-05
-6.56292e-05
-6.35903e-05
-6.15872e-05
-5.96098e-05
-5.76481e-05
-5.56911e-05
-5.37277e-05
-5.17458e-05
-4.9733e-05
-4.76754e-05
-4.55586e-05
-4.33664e-05
-4.10812e-05
-3.8683e-05
-3.61491e-05
-3.34523e-05
-3.05595e-05
-2.7427e-05
-2.39934e-05
-2.01389e-05
-1.55773e-05
-1.3039e-05
0.0011404
0.00105273
0.000945507
0.000844669
0.000752521
0.000664578
0.000578964
0.000495893
0.000415601
0.000337945
0.000262766
0.000190094
0.000120132
5.31852e-05
-1.03775e-05
-7.01526e-05
-0.000125727
-0.000176706
-0.000222742
-0.000263559
-0.000298969
-0.000328889
-0.000353346
-0.000372475
-0.000386515
-0.000395797
-0.000400728
-0.000401767
-0.000399411
-0.00039417
-0.000386549
-0.000377032
-0.000366068
-0.000354064
-0.000341377
-0.000328313
-0.000315126
-0.00030202
-0.000289154
-0.000276649
-0.000264587
-0.000253024
-0.000241989
-0.000231496
-0.00022154
-0.000212109
-0.000203183
-0.000194738
-0.000186746
-0.00017918
-0.000172013
-0.000165219
-0.000158772
-0.000152649
-0.000146831
-0.000141297
-0.000136031
-0.000131017
-0.00012624
-0.000121689
-0.000117351
-0.000113215
-0.000109272
-0.000105511
-0.000101922
-9.84983e-05
-9.52296e-05
-9.21079e-05
-8.91247e-05
-8.62717e-05
-8.35406e-05
-8.0923e-05
-7.84107e-05
-7.59953e-05
-7.36684e-05
-7.14213e-05
-6.92455e-05
-6.71322e-05
-6.50722e-05
-6.30563e-05
-6.10751e-05
-5.91186e-05
-5.71767e-05
-5.52387e-05
-5.32933e-05
-5.13287e-05
-4.93322e-05
-4.72904e-05
-4.51887e-05
-4.3011e-05
-4.07398e-05
-3.83554e-05
-3.58352e-05
-3.31529e-05
-3.02765e-05
-2.71655e-05
-2.3766e-05
-1.99888e-05
-1.58671e-05
-1.58686e-05
0.000993421
0.00093456
0.000855263
0.000773354
0.000694695
0.000618448
0.000543439
0.000469662
0.000397441
0.000326926
0.00025819
0.000191388
0.000126779
6.46928e-05
5.50216e-06
-5.04015e-05
-0.000102626
-0.000150799
-0.00019459
-0.00023373
-0.000268026
-0.000297374
-0.000321766
-0.00034129
-0.000356128
-0.000366542
-0.000372871
-0.000375504
-0.000374871
-0.000371418
-0.000365598
-0.000357849
-0.000348586
-0.000338188
-0.000326996
-0.000315305
-0.000303365
-0.000291382
-0.000279519
-0.000267904
-0.000256629
-0.000245758
-0.000235333
-0.000225375
-0.00021589
-0.000206875
-0.000198318
-0.000190201
-0.000182504
-0.000175202
-0.000168274
-0.000161697
-0.000155448
-0.000149507
-0.000143856
-0.000138477
-0.000133353
-0.000128472
-0.000123819
-0.000119383
-0.000115152
-0.000111116
-0.000107266
-0.000103593
-0.000100087
-9.67398e-05
-9.35436e-05
-9.049e-05
-8.7571e-05
-8.47786e-05
-8.21047e-05
-7.95413e-05
-7.70804e-05
-7.47137e-05
-7.24332e-05
-7.02303e-05
-6.80966e-05
-6.60235e-05
-6.4002e-05
-6.2023e-05
-6.00772e-05
-5.81548e-05
-5.62457e-05
-5.43393e-05
-5.24244e-05
-5.04894e-05
-4.85217e-05
-4.65079e-05
-4.44336e-05
-4.22831e-05
-4.00392e-05
-3.76828e-05
-3.51923e-05
-3.25436e-05
-2.97092e-05
-2.66601e-05
-2.33741e-05
-1.98842e-05
-1.6806e-05
-2.00141e-05
0.000867721
0.000827382
0.000771118
0.000708069
0.000643155
0.000577615
0.000511629
0.000445627
0.000380187
0.000315755
0.000252639
0.000191118
0.000131498
7.41135e-05
1.93135e-05
-3.25501e-05
-8.11326e-05
-0.000126111
-0.000167197
-0.000204153
-0.000236807
-0.000265058
-0.000288882
-0.000308338
-0.000323564
-0.000334768
-0.000342224
-0.000346252
-0.000347214
-0.000345489
-0.000341468
-0.000335534
-0.000328056
-0.000319377
-0.00030981
-0.00029963
-0.000289076
-0.000278349
-0.000267614
-0.000257003
-0.000246617
-0.000236529
-0.000226792
-0.000217439
-0.000208487
-0.000199942
-0.000191803
-0.000184058
-0.000176696
-0.000169699
-0.000163049
-0.000156727
-0.000150716
-0.000144997
-0.000139553
-0.00013437
-0.000129432
-0.000124726
-0.000120239
-0.000115961
-0.00011188
-0.000107987
-0.000104272
-0.000100727
-9.73428e-05
-9.41112e-05
-9.10243e-05
-8.80742e-05
-8.52531e-05
-8.25534e-05
-7.99672e-05
-7.74868e-05
-7.51045e-05
-7.28123e-05
-7.06022e-05
-6.84662e-05
-6.6396e-05
-6.43831e-05
-6.2419e-05
-6.04946e-05
-5.86009e-05
-5.67283e-05
-5.48668e-05
-5.30061e-05
-5.11352e-05
-4.92426e-05
-4.7316e-05
-4.53423e-05
-4.33074e-05
-4.11961e-05
-3.8992e-05
-3.66773e-05
-3.42328e-05
-3.16389e-05
-2.88784e-05
-2.59457e-05
-2.28836e-05
-1.99243e-05
-1.82519e-05
-2.41241e-05
0.000758313
0.000728863
0.000687555
0.000638498
0.000585079
0.000529262
0.000472039
0.000414115
0.000356125
0.000298591
0.000241914
0.000186437
0.000132488
8.03989e-05
3.05008e-05
-1.68792e-05
-6.14271e-05
-0.000102851
-0.000140891
-0.000175331
-0.000206009
-0.000232823
-0.000255736
-0.000274781
-0.000290055
-0.000301719
-0.000309988
-0.000315124
-0.000317422
-0.000317202
-0.000314793
-0.000310527
-0.000304726
-0.000297695
-0.000289716
-0.000281042
-0.000271896
-0.000262472
-0.00025293
-0.000243402
-0.000233994
-0.000224787
-0.000215839
-0.000207194
-0.000198876
-0.000190902
-0.000183277
-0.000175998
-0.000169058
-0.000162448
-0.000156154
-0.000150161
-0.000144455
-0.000139021
-0.000133845
-0.000128913
-0.000124212
-0.00011973
-0.000115455
-0.000111378
-0.000107487
-0.000103774
-0.00010023
-9.6847e-05
-9.36164e-05
-9.05306e-05
-8.7582e-05
-8.47631e-05
-8.20665e-05
-7.94848e-05
-7.70107e-05
-7.46367e-05
-7.23555e-05
-7.01595e-05
-6.80409e-05
-6.59921e-05
-6.4005e-05
-6.20714e-05
-6.01831e-05
-5.83313e-05
-5.65072e-05
-5.47014e-05
-5.29042e-05
-5.11056e-05
-4.92947e-05
-4.74604e-05
-4.55907e-05
-4.36729e-05
-4.16936e-05
-3.96383e-05
-3.7492e-05
-3.5239e-05
-3.28642e-05
-3.03557e-05
-2.77121e-05
-2.49636e-05
-2.22365e-05
-1.99557e-05
-1.95833e-05
-2.65643e-05
0.000660959
0.000638195
0.000606887
0.000568656
0.000525469
0.000479047
0.000430545
0.000380752
0.000330307
0.000279758
0.000229569
0.000180138
0.000131828
8.49864e-05
3.9942e-05
-2.9902e-06
-4.35154e-05
-8.1364e-05
-0.000116299
-0.000148121
-0.000176679
-0.000201872
-0.000223656
-0.00024204
-0.000257095
-0.000268939
-0.000277742
-0.000283712
-0.000287089
-0.000288138
-0.000287134
-0.00028436
-0.000280091
-0.000274595
-0.000268122
-0.000260899
-0.000253133
-0.000245002
-0.00023666
-0.000228237
-0.000219838
-0.000211548
-0.000203431
-0.000195536
-0.000187897
-0.000180535
-0.000173465
-0.00016669
-0.00016021
-0.000154021
-0.000148115
-0.000142482
-0.00013711
-0.000131988
-0.000127105
-0.000122449
-0.000118009
-0.000113774
-0.000109733
-0.000105878
-0.000102199
-9.8688e-05
-9.53359e-05
-9.21353e-05
-8.90786e-05
-8.61584e-05
-8.33674e-05
-8.06986e-05
-7.81449e-05
-7.56993e-05
-7.33548e-05
-7.11044e-05
-6.89409e-05
-6.68571e-05
-6.48457e-05
-6.28992e-05
-6.101e-05
-5.91702e-05
-5.73718e-05
-5.56063e-05
-5.38652e-05
-5.21394e-05
-5.04195e-05
-4.86957e-05
-4.69577e-05
-4.51945e-05
-4.33946e-05
-4.1546e-05
-3.9636e-05
-3.76514e-05
-3.55789e-05
-3.34062e-05
-3.11235e-05
-2.87291e-05
-2.62411e-05
-2.37282e-05
-2.13885e-05
-1.97443e-05
-2.01462e-05
-2.64364e-05
0.000572558
0.000554371
0.000530106
0.000500163
0.000465508
0.000427383
0.000386825
0.000344606
0.000301347
0.000257589
0.000213807
0.00017042
0.0001278
8.629e-05
4.62094e-05
7.8548e-06
-2.85006e-05
-6.26097e-05
-9.4256e-05
-0.000123258
-0.000149473
-0.000172802
-0.000193194
-0.000210643
-0.00022519
-0.000236922
-0.000245967
-0.000252485
-0.00025667
-0.000258734
-0.000258905
-0.000257416
-0.000254503
-0.000250394
-0.000245306
-0.000239443
-0.000232988
-0.000226106
-0.000218941
-0.000211617
-0.000204236
-0.000196884
-0.000189627
-0.00018252
-0.0001756
-0.000168896
-0.000162427
-0.000156204
-0.000150232
-0.000144511
-0.000139038
-0.000133808
-0.000128812
-0.000124043
-0.000119491
-0.000115147
-0.000111001
-0.000107045
-0.000103269
-9.96647e-05
-9.62242e-05
-9.29395e-05
-8.98031e-05
-8.68076e-05
-8.39459e-05
-8.12113e-05
-7.85968e-05
-7.60959e-05
-7.3702e-05
-7.14084e-05
-6.92087e-05
-6.7096e-05
-6.50638e-05
-6.31051e-05
-6.12131e-05
-5.93806e-05
-5.76003e-05
-5.58648e-05
-5.41663e-05
-5.24968e-05
-5.0848e-05
-4.92112e-05
-4.75773e-05
-4.59369e-05
-4.42801e-05
-4.25963e-05
-4.08747e-05
-3.9104e-05
-3.72724e-05
-3.53685e-05
-3.33814e-05
-3.13024e-05
-2.91285e-05
-2.68686e-05
-2.45586e-05
-2.22948e-05
-2.03037e-05
-1.90702e-05
-1.95445e-05
-2.38232e-05
0.000491163
0.000476379
0.00045729
0.00043372
0.000406054
0.000375116
0.000341729
0.000306557
0.00027015
0.000232995
0.000195533
0.000158161
0.000121238
8.50889e-05
5.00157e-05
1.62952e-05
-1.58196e-05
-4.61014e-05
-7.4351e-05
-0.0001004
-0.000124115
-0.000145398
-0.00016419
-0.000180472
-0.000194264
-0.000205624
-0.000214643
-0.000221445
-0.000226177
-0.000229008
-0.000230122
-0.000229711
-0.000227969
-0.000225088
-0.000221256
-0.000216647
-0.000211425
-0.000205737
-0.000199714
-0.000193471
-0.000187107
-0.000180704
-0.000174331
-0.00016804
-0.000161876
-0.000155869
-0.000150044
-0.000144416
-0.000138994
-0.000133783
-0.000128785
-0.000123997
-0.000119415
-0.000115034
-0.000110848
-0.000106848
-0.000103028
-9.93794e-05
-9.58956e-05
-9.25689e-05
-8.9392e-05
-8.63579e-05
-8.34598e-05
-8.06912e-05
-7.80455e-05
-7.55164e-05
-7.30977e-05
-7.07833e-05
-6.8567e-05
-6.64427e-05
-6.44042e-05
-6.24454e-05
-6.05599e-05
-5.87414e-05
-5.69833e-05
-5.52788e-05
-5.36212e-05
-5.20034e-05
-5.04179e-05
-4.88571e-05
-4.73132e-05
-4.57778e-05
-4.42423e-05
-4.26977e-05
-4.11343e-05
-3.95425e-05
-3.79119e-05
-3.62321e-05
-3.44928e-05
-3.26841e-05
-3.07982e-05
-2.88305e-05
-2.67842e-05
-2.46766e-05
-2.25536e-05
-2.05136e-05
-1.87476e-05
-1.7578e-05
-1.74437e-05
-1.91409e-05
0.00041529
0.000403208
0.0003881
0.00036954
0.000347598
0.000322799
0.000295746
0.000266961
0.000236893
0.000205954
0.000174528
0.000142971
0.000111607
8.07347e-05
5.06294e-05
2.15428e-05
-6.29578e-06
-3.26804e-05
-5.74303e-05
-8.03918e-05
-0.00010144
-0.000120481
-0.000137453
-0.000152326
-0.000165103
-0.000175817
-0.000184533
-0.000191338
-0.000196344
-0.000199682
-0.000201495
-0.000201936
-0.000201164
-0.000199338
-0.000196612
-0.000193136
-0.000189049
-0.000184482
-0.000179551
-0.000174361
-0.000169001
-0.00016355
-0.000158074
-0.000152625
-0.000147249
-0.000141978
-0.000136839
-0.000131851
-0.000127027
-0.000122375
-0.0001179
-0.000113602
-0.000109481
-0.000105534
-0.000101757
-9.81438e-05
-9.46898e-05
-9.13887e-05
-8.82346e-05
-8.52211e-05
-8.23421e-05
-7.95916e-05
-7.69636e-05
-7.44521e-05
-7.20515e-05
-6.9756e-05
-6.756e-05
-6.54578e-05
-6.34439e-05
-6.15127e-05
-5.96584e-05
-5.78753e-05
-5.61575e-05
-5.4499e-05
-5.28938e-05
-5.13354e-05
-4.98174e-05
-4.83328e-05
-4.68748e-05
-4.54358e-05
-4.40083e-05
-4.2584e-05
-4.11546e-05
-3.97112e-05
-3.82444e-05
-3.67447e-05
-3.5202e-05
-3.36065e-05
-3.19486e-05
-3.02199e-05
-2.84143e-05
-2.65305e-05
-2.45753e-05
-2.25695e-05
-2.0556e-05
-1.86078e-05
-1.68292e-05
-1.53209e-05
-1.40799e-05
-1.33538e-05
0.000359243
0.000348977
0.000336397
0.000321034
0.000302847
0.000282201
0.000259552
0.000235311
0.000209844
0.000183499
0.000156607
0.000129478
0.000102403
7.56491e-05
4.94634e-05
2.40731e-05
-3.14951e-07
-2.3515e-05
-4.53636e-05
-6.5721e-05
-8.44723e-05
-0.000101529
-0.000116831
-0.000130343
-0.00014206
-0.000152001
-0.000160212
-0.00016676
-0.000171732
-0.000175232
-0.000177377
-0.000178293
-0.00017811
-0.000176961
-0.000174979
-0.000172291
-0.000169019
-0.000165276
-0.000161166
-0.000156782
-0.000152207
-0.000147513
-0.000142761
-0.000138002
-0.00013328
-0.000128627
-0.000124071
-0.000119633
-0.000115326
-0.000111161
-0.000107144
-0.000103279
-9.9566e-05
-9.60046e-05
-9.2592e-05
-8.93249e-05
-8.61989e-05
-8.32094e-05
-8.03513e-05
-7.76195e-05
-7.50087e-05
-7.25136e-05
-7.0129e-05
-6.78496e-05
-6.56703e-05
-6.3586e-05
-6.15916e-05
-5.9682e-05
-5.78521e-05
-5.60968e-05
-5.44108e-05
-5.2789e-05
-5.1226e-05
-4.97162e-05
-4.82541e-05
-4.68337e-05
-4.54491e-05
-4.4094e-05
-4.27618e-05
-4.14457e-05
-4.01386e-05
-3.88329e-05
-3.75208e-05
-3.6194e-05
-3.48438e-05
-3.34614e-05
-3.20375e-05
-3.05631e-05
-2.90294e-05
-2.7429e-05
-2.57564e-05
-2.40104e-05
-2.21966e-05
-2.03307e-05
-1.84425e-05
-1.65755e-05
-1.47739e-05
-1.30391e-05
-1.12603e-05
-9.65335e-06
0.000316851
0.000307886
0.000297051
0.000283894
0.000268327
0.000250624
0.000231143
0.000210218
0.000188157
0.000165256
0.000141803
0.000118072
9.43215e-05
7.07922e-05
4.77066e-05
2.52696e-05
3.66793e-06
-1.69309e-05
-3.63792e-05
-5.45507e-05
-7.13412e-05
-8.66694e-05
-0.000100478
-0.000112733
-0.000123424
-0.000132565
-0.000140189
-0.00014635
-0.000151119
-0.000154582
-0.000156836
-0.000157986
-0.000158143
-0.000157422
-0.000155935
-0.000153794
-0.000151103
-0.000147964
-0.000144468
-0.000140698
-0.00013673
-0.000132629
-0.000128451
-0.000124246
-0.000120053
-0.000115905
-0.000111829
-0.000107845
-0.000103968
-0.000100209
-9.65764e-05
-9.30741e-05
-8.97043e-05
-8.64673e-05
-8.33618e-05
-8.03855e-05
-7.75352e-05
-7.48071e-05
-7.21971e-05
-6.97008e-05
-6.73136e-05
-6.5031e-05
-6.28482e-05
-6.07607e-05
-5.87638e-05
-5.68529e-05
-5.50233e-05
-5.32705e-05
-5.15899e-05
-4.99769e-05
-4.84268e-05
-4.69349e-05
-4.54965e-05
-4.41066e-05
-4.27602e-05
-4.14522e-05
-4.01775e-05
-3.89304e-05
-3.77054e-05
-3.64967e-05
-3.52981e-05
-3.41034e-05
-3.29061e-05
-3.16993e-05
-3.04761e-05
-2.92294e-05
-2.79519e-05
-2.66367e-05
-2.5277e-05
-2.3867e-05
-2.24023e-05
-2.08802e-05
-1.93012e-05
-1.76687e-05
-1.59874e-05
-1.42583e-05
-1.24652e-05
-1.05523e-05
-8.41006e-06
-6.07973e-06
0.000273342
0.000265624
0.000256407
0.000245293
0.000232177
0.000217258
0.000200816
0.000183115
0.000164403
0.000144925
0.000124924
0.000104634
8.42755e-05
6.40585e-05
4.41767e-05
2.48092e-05
6.11947e-06
-1.17457e-05
-2.86569e-05
-4.45027e-05
-5.91908e-05
-7.26485e-05
-8.48233e-05
-9.56824e-05
-0.000105213
-0.000113423
-0.000120335
-0.000125991
-0.000130447
-0.000133772
-0.000136044
-0.00013735
-0.000137781
-0.000137432
-0.000136397
-0.000134771
-0.000132643
-0.000130099
-0.000127218
-0.000124074
-0.000120733
-0.000117253
-0.000113684
-0.000110072
-0.000106453
-0.000102857
-9.93105e-05
-9.58326e-05
-9.24389e-05
-8.91407e-05
-8.59463e-05
-8.28609e-05
-7.98877e-05
-7.70279e-05
-7.42812e-05
-7.16465e-05
-6.91214e-05
-6.67031e-05
-6.43884e-05
-6.21737e-05
-6.00552e-05
-5.8029e-05
-5.6091e-05
-5.42373e-05
-5.24638e-05
-5.07665e-05
-4.91413e-05
-4.75843e-05
-4.60913e-05
-4.46583e-05
-4.32811e-05
-4.19558e-05
-4.06779e-05
-3.94433e-05
-3.82475e-05
-3.7086e-05
-3.59543e-05
-3.48476e-05
-3.37609e-05
-3.26892e-05
-3.16272e-05
-3.05695e-05
-2.95103e-05
-2.84439e-05
-2.73642e-05
-2.62652e-05
-2.51406e-05
-2.39844e-05
-2.27906e-05
-2.15535e-05
-2.02677e-05
-1.89285e-05
-1.7531e-05
-1.60688e-05
-1.4532e-05
-1.29012e-05
-1.11403e-05
-9.18528e-06
-6.92929e-06
-4.23027e-06
0.000228517
0.000222074
0.000214463
0.000205348
0.000194626
0.000182436
0.000168988
0.000154483
0.000139116
0.00012308
0.000106571
8.97817e-05
7.28948e-05
5.60849e-05
3.95153e-05
2.3337e-05
7.68853e-06
-7.3054e-06
-2.15345e-05
-3.49037e-05
-4.73337e-05
-5.87611e-05
-6.91394e-05
-7.84383e-05
-8.6644e-05
-9.37583e-05
-9.9798e-05
-0.000104793
-0.000108787
-0.000111831
-0.000113989
-0.000115328
-0.000115922
-0.000115847
-0.00011518
-0.000113997
-0.000112373
-0.000110379
-0.000108081
-0.000105542
-0.000102816
-9.99549e-05
-9.7002e-05
-9.39961e-05
-9.09701e-05
-8.79514e-05
-8.4963e-05
-8.20231e-05
-7.91464e-05
-7.63439e-05
-7.36238e-05
-7.09917e-05
-6.84514e-05
-6.60047e-05
-6.36522e-05
-6.13934e-05
-5.9227e-05
-5.71509e-05
-5.51627e-05
-5.32597e-05
-5.14386e-05
-4.96965e-05
-4.80299e-05
-4.64355e-05
-4.491e-05
-4.34498e-05
-4.20516e-05
-4.0712e-05
-3.94275e-05
-3.81945e-05
-3.70097e-05
-3.58695e-05
-3.47702e-05
-3.37083e-05
-3.268e-05
-3.16816e-05
-3.0709e-05
-2.97583e-05
-2.88253e-05
-2.79057e-05
-2.69951e-05
-2.6089e-05
-2.51826e-05
-2.4271e-05
-2.33492e-05
-2.24121e-05
-2.14545e-05
-2.04711e-05
-1.94566e-05
-1.84057e-05
-1.73127e-05
-1.61718e-05
-1.49755e-05
-1.37143e-05
-1.23734e-05
-1.09299e-05
-9.34621e-06
-7.56046e-06
-5.46871e-06
-2.91091e-06
0.000182119
0.000176982
0.000170968
0.000163811
0.00015542
0.00014589
0.000135372
0.000124015
0.000111963
9.93623e-05
8.63635e-05
7.31156e-05
5.97633e-05
4.64445e-05
3.32891e-05
2.04183e-05
7.94308e-06
-4.03604e-06
-1.543e-05
-2.61617e-05
-3.61665e-05
-4.53923e-05
-5.38002e-05
-6.1364e-05
-6.80703e-05
-7.39181e-05
-7.89179e-05
-8.30908e-05
-8.64678e-05
-8.90882e-05
-9.09982e-05
-9.22495e-05
-9.28981e-05
-9.30025e-05
-9.26221e-05
-9.18166e-05
-9.06442e-05
-8.91609e-05
-8.74197e-05
-8.54698e-05
-8.33565e-05
-8.11206e-05
-7.87982e-05
-7.64213e-05
-7.40174e-05
-7.16096e-05
-6.92175e-05
-6.6857e-05
-6.45409e-05
-6.22792e-05
-6.00795e-05
-5.7947e-05
-5.58857e-05
-5.38976e-05
-5.19839e-05
-5.01446e-05
-4.8379e-05
-4.66858e-05
-4.50634e-05
-4.35095e-05
-4.20221e-05
-4.05985e-05
-3.92363e-05
-3.79327e-05
-3.6685e-05
-3.54906e-05
-3.43465e-05
-3.32502e-05
-3.21987e-05
-3.11893e-05
-3.02191e-05
-2.92853e-05
-2.8385e-05
-2.75151e-05
-2.66728e-05
-2.58549e-05
-2.50583e-05
-2.42797e-05
-2.35159e-05
-2.27633e-05
-2.20185e-05
-2.12778e-05
-2.05374e-05
-1.97935e-05
-1.90421e-05
-1.82791e-05
-1.75003e-05
-1.67014e-05
-1.58781e-05
-1.50256e-05
-1.41389e-05
-1.32121e-05
-1.22378e-05
-1.12059e-05
-1.01018e-05
-8.90326e-06
-7.57545e-06
-6.06338e-06
-4.28229e-06
-2.11064e-06
0.000133795
0.00013002
0.000125626
0.000120427
0.000114352
0.00010746
9.98559e-05
9.1639e-05
8.29089e-05
7.37685e-05
6.43241e-05
5.46824e-05
4.49478e-05
3.52205e-05
2.55956e-05
1.61621e-05
7.00183e-06
-1.81081e-06
-1.02097e-05
-1.81375e-05
-2.55456e-05
-3.23947e-05
-3.86552e-05
-4.43063e-05
-4.93367e-05
-5.3744e-05
-5.75341e-05
-6.07208e-05
-6.33246e-05
-6.53727e-05
-6.68969e-05
-6.79337e-05
-6.85223e-05
-6.87044e-05
-6.85224e-05
-6.80192e-05
-6.72368e-05
-6.62161e-05
-6.49957e-05
-6.3612e-05
-6.20985e-05
-6.04855e-05
-5.88004e-05
-5.70672e-05
-5.5307e-05
-5.35376e-05
-5.17741e-05
-5.00292e-05
-4.8313e-05
-4.66335e-05
-4.4997e-05
-4.34081e-05
-4.187e-05
-4.03848e-05
-3.89537e-05
-3.7577e-05
-3.62546e-05
-3.49856e-05
-3.37691e-05
-3.26035e-05
-3.14874e-05
-3.04189e-05
-2.93962e-05
-2.84174e-05
-2.74805e-05
-2.65834e-05
-2.57241e-05
-2.49006e-05
-2.41107e-05
-2.33525e-05
-2.26237e-05
-2.19223e-05
-2.1246e-05
-2.05927e-05
-1.99601e-05
-1.9346e-05
-1.87481e-05
-1.81638e-05
-1.75909e-05
-1.70267e-05
-1.64686e-05
-1.59139e-05
-1.53599e-05
-1.48038e-05
-1.42426e-05
-1.36732e-05
-1.30927e-05
-1.24977e-05
-1.18849e-05
-1.12506e-05
-1.05906e-05
-9.89998e-06
-9.17232e-06
-8.39882e-06
-7.56686e-06
-6.6577e-06
-5.64341e-06
-4.48264e-06
-3.11744e-06
-1.46969e-06
8.27445e-05
8.04043e-05
7.76923e-05
7.44978e-05
7.07771e-05
6.65643e-05
6.19178e-05
5.68964e-05
5.15585e-05
4.59652e-05
4.01799e-05
3.42673e-05
2.82905e-05
2.2311e-05
1.6387e-05
1.05733e-05
4.92045e-06
-5.25463e-07
-5.72345e-06
-1.06378e-05
-1.52381e-05
-1.94999e-05
-2.34041e-05
-2.69375e-05
-3.00924e-05
-3.28666e-05
-3.52629e-05
-3.72889e-05
-3.89566e-05
-4.02815e-05
-4.12826e-05
-4.19815e-05
-4.24015e-05
-4.25677e-05
-4.25056e-05
-4.22412e-05
-4.18001e-05
-4.12072e-05
-4.04862e-05
-3.96596e-05
-3.87481e-05
-3.77707e-05
-3.67444e-05
-3.56845e-05
-3.46042e-05
-3.35149e-05
-3.24264e-05
-3.13468e-05
-3.02828e-05
-2.92396e-05
-2.82215e-05
-2.72316e-05
-2.62722e-05
-2.53448e-05
-2.44503e-05
-2.35891e-05
-2.27613e-05
-2.19664e-05
-2.1204e-05
-2.04732e-05
-1.97731e-05
-1.91027e-05
-1.84608e-05
-1.78462e-05
-1.72578e-05
-1.66943e-05
-1.61545e-05
-1.5637e-05
-1.51406e-05
-1.4664e-05
-1.42058e-05
-1.37647e-05
-1.33395e-05
-1.29286e-05
-1.25308e-05
-1.21445e-05
-1.17685e-05
-1.14011e-05
-1.10408e-05
-1.06861e-05
-1.03353e-05
-9.98688e-06
-9.63901e-06
-9.28997e-06
-8.93794e-06
-8.58104e-06
-8.21733e-06
-7.8448e-06
-7.46127e-06
-7.06431e-06
-6.65117e-06
-6.21845e-06
-5.76171e-06
-5.27489e-06
-4.74939e-06
-4.17276e-06
-3.52711e-06
-2.78714e-06
-1.91911e-06
-8.78954e-07
2.83853e-05
2.75765e-05
2.66299e-05
2.55184e-05
2.42303e-05
2.27761e-05
2.11749e-05
1.94464e-05
1.76102e-05
1.56871e-05
1.36988e-05
1.16672e-05
9.61413e-06
7.56048e-06
5.52631e-06
3.53043e-06
1.59018e-06
-2.78645e-07
-2.06202e-06
-3.74773e-06
-5.32545e-06
-6.78683e-06
-8.12543e-06
-9.33682e-06
-1.04184e-05
-1.13696e-05
-1.21912e-05
-1.28861e-05
-1.34582e-05
-1.3913e-05
-1.42569e-05
-1.44971e-05
-1.46419e-05
-1.46995e-05
-1.46788e-05
-1.45886e-05
-1.44376e-05
-1.42343e-05
-1.39868e-05
-1.37028e-05
-1.33894e-05
-1.30531e-05
-1.26997e-05
-1.23345e-05
-1.19621e-05
-1.15863e-05
-1.12107e-05
-1.08379e-05
-1.04704e-05
-1.01099e-05
-9.758e-06
-9.41572e-06
-9.08389e-06
-8.76307e-06
-8.45359e-06
-8.1556e-06
-7.86911e-06
-7.59403e-06
-7.33015e-06
-7.07722e-06
-6.83492e-06
-6.60289e-06
-6.38074e-06
-6.16808e-06
-5.96447e-06
-5.7695e-06
-5.58271e-06
-5.40368e-06
-5.23195e-06
-5.06708e-06
-4.9086e-06
-4.75606e-06
-4.609e-06
-4.46693e-06
-4.32938e-06
-4.19587e-06
-4.06588e-06
-3.93892e-06
-3.81444e-06
-3.69193e-06
-3.57081e-06
-3.45052e-06
-3.33047e-06
-3.21006e-06
-3.08868e-06
-2.96567e-06
-2.84035e-06
-2.71202e-06
-2.57994e-06
-2.44323e-06
-2.3009e-06
-2.15172e-06
-1.99406e-06
-1.82572e-06
-1.64356e-06
-1.44315e-06
-1.2181e-06
-9.5946e-07
-6.5485e-07
-2.8703e-07
0.000126329
0.000129178
0.000135503
0.000144866
0.00015691
0.000171552
0.00018884
0.000208857
0.000231707
0.000257527
0.000286503
0.000318872
0.000354938
0.000395088
0.000439828
0.000489821
0.000545961
0.000609486
0.000682165
0.00076664
0.000867071
0.000990488
0.00114989
0.00137377
0.00172253
0.000125614
0.000128294
0.000134425
0.000143586
0.000155407
0.0001698
0.000186806
0.000206502
0.000228982
0.000254375
0.000282851
0.000314629
0.00034999
0.000389285
0.000432967
0.000481621
0.000536019
0.000597194
0.000666557
0.000746066
0.000838441
0.000947307
0.00107648
0.00122475
0.00136202
0.000124402
0.000126991
0.000132981
0.000141976
0.000153603
0.000167767
0.000184505
0.000203885
0.000225996
0.000250953
0.000278911
0.000310068
0.000344671
0.000383028
0.000425525
0.000472644
0.000524998
0.000583354
0.000648671
0.000722084
0.00080476
0.0008973
0.000997833
0.00109683
0.00116647
0.00012258
0.00012508
0.000130895
0.000139659
0.000151009
0.000164842
0.000181188
0.000200107
0.000221676
0.000245995
0.000273194
0.000303441
0.000336939
0.000373933
0.000414717
0.000459639
0.000509104
0.000563556
0.000623436
0.000689037
0.000760166
0.000835379
0.000910396
0.000975391
0.00101213
0.000120031
0.000122438
0.000128051
0.00013654
0.00014755
0.000160976
0.000176838
0.000195186
0.00021608
0.000239601
0.000265852
0.000294961
0.000327077
0.000362372
0.000401031
0.000443248
0.000489204
0.000539015
0.000592636
0.000649674
0.000709033
0.000768312
0.00082291
0.000865081
0.000883946
0.000116625
0.000118931
0.000124313
0.000132471
0.000143066
0.000155986
0.000171244
0.000188874
0.000208921
0.00023144
0.000256503
0.000284191
0.000314595
0.0003478
0.000383879
0.000422867
0.000464727
0.000509284
0.000556116
0.000604379
0.000652545
0.000698056
0.000736975
0.000763915
0.000772755
0.000112219
0.000114409
0.000119525
0.000127288
0.000137379
0.000149684
0.000164203
0.000180958
0.000199973
0.000221277
0.000244905
0.000270891
0.000299261
0.000330016
0.000363117
0.000398455
0.000435811
0.00047479
0.000514728
0.000554572
0.000592727
0.00062692
0.000654159
0.000670957
0.000673987
0.000106653
0.00010871
0.000113515
0.000120813
0.000130302
0.000141868
0.000155501
0.000171206
0.000188988
0.000208847
0.000230782
0.00025478
0.000280802
0.000308774
0.000338558
0.00036993
0.000402539
0.000435859
0.00046912
0.000501249
0.000530806
0.000555974
0.000574647
0.000584675
0.000584305
9.97574e-05
0.00010166
0.000106103
0.000112855
0.000121634
0.000132327
0.000144913
0.000159383
0.00017572
0.000193899
0.000213884
0.000235618
0.00025901
0.000283919
0.000310137
0.000337361
0.000365168
0.000392981
0.000420036
0.00044536
0.000467772
0.000485922
0.000498403
0.000503944
0.00050166
9.13578e-05
9.3077e-05
9.71e-05
0.000103216
0.000111165
0.000120838
0.000132205
0.000145243
0.000159918
0.000176181
0.000193968
0.000213186
0.000233704
0.000255339
0.000277837
0.000300859
0.000323966
0.000346596
0.000368065
0.000387563
0.000404187
0.00041699
0.000425077
0.000427724
0.000424513
8.34904e-05
8.5048e-05
8.86965e-05
9.42402e-05
0.000101442
0.000110197
0.000120472
0.000132235
0.000145441
0.000160029
0.000175918
0.000193
0.000211125
0.000230094
0.000249643
0.000269434
0.000289046
0.000307969
0.000325605
0.000341284
0.000354296
0.000363939
0.000369595
0.000370809
0.000367387
7.67688e-05
7.81952e-05
8.15319e-05
8.65984e-05
9.3176e-05
0.000101167
0.000110534
0.00012124
0.000133235
0.00014645
0.000160797
0.000176159
0.000192379
0.000209252
0.000226519
0.000243852
0.000260857
0.000277071
0.000291972
0.000304994
0.000315564
0.000323139
0.000327269
0.00032765
0.000324177
6.89464e-05
7.02228e-05
7.32031e-05
7.77253e-05
8.35929e-05
9.07152e-05
9.90537e-05
0.000108569
0.000119207
0.000130895
0.000143542
0.000157027
0.000171193
0.000185842
0.000200723
0.000215536
0.000229924
0.000243483
0.000255769
0.000266324
0.000274696
0.000280482
0.000283362
0.000283144
0.000279783
5.98727e-05
6.09774e-05
6.35517e-05
6.74553e-05
7.25167e-05
7.8655e-05
8.58321e-05
9.40082e-05
0.000103129
0.000113122
0.000123899
0.000135341
0.000147301
0.000159594
0.000171995
0.000184235
0.00019601
0.000206979
0.000216786
0.000225068
0.000231488
0.000235754
0.000237651
0.000237064
0.00023399
4.93935e-05
5.03025e-05
5.24162e-05
5.56186e-05
5.9768e-05
6.47954e-05
7.06662e-05
7.7343e-05
8.4775e-05
9.28969e-05
0.000101626
0.000110857
0.00012046
0.000130275
0.000140109
0.00014974
0.000158922
0.000167384
0.000174854
0.000181062
0.000185766
0.000188766
0.000189925
0.000189179
0.000186546
3.73613e-05
3.80482e-05
3.96412e-05
4.2052e-05
4.51734e-05
4.89521e-05
5.33596e-05
5.83647e-05
6.39253e-05
6.99875e-05
7.64836e-05
8.33292e-05
9.04202e-05
9.76309e-05
0.000104814
0.000111801
0.000118409
0.000124443
0.000129711
0.000134026
0.000137229
0.000139191
0.000139832
0.00013912
0.00013708
2.36509e-05
2.40867e-05
2.50933e-05
2.66144e-05
2.85821e-05
3.09622e-05
3.37356e-05
3.68809e-05
4.03698e-05
4.41657e-05
4.82236e-05
5.24873e-05
5.68886e-05
6.1346e-05
6.5765e-05
7.004e-05
7.40569e-05
7.76977e-05
8.08463e-05
8.33951e-05
8.52523e-05
8.63481e-05
8.66406e-05
8.61183e-05
8.48004e-05
8.18419e-06
8.33678e-06
8.68711e-06
9.21535e-06
9.89813e-06
1.07235e-05
1.16848e-05
1.27744e-05
1.39821e-05
1.52949e-05
1.66966e-05
1.81674e-05
1.96829e-05
2.12145e-05
2.27291e-05
2.419e-05
2.55577e-05
2.67919e-05
2.78532e-05
2.87059e-05
2.93195e-05
2.96718e-05
2.975e-05
2.95522e-05
2.90875e-05
)
;

boundaryField
{
    top
    {
        type            fixedValue;
        value           uniform 0;
    }
    inlet
    {
        type            zeroGradient;
    }
    outlet
    {
        type            fixedValue;
        value           uniform 0;
    }
    plate
    {
        type            zeroGradient;
    }
    symmBound
    {
        type            zeroGradient;
    }
    frontAndBack
    {
        type            empty;
    }
}


// ************************************************************************* //
