/*--------------------------------*- C++ -*----------------------------------*\
| =========                 |                                                 |
| \\      /  F ield         | OpenFOAM: The Open Source CFD Toolbox           |
|  \\    /   O peration     | Version:  2.3.0                                 |
|   \\  /    A nd           | Web:      www.OpenFOAM.org                      |
|    \\/     M anipulation  |                                                 |
\*---------------------------------------------------------------------------*/
FoamFile
{
    version     2.0;
    format      ascii;
    class       surfaceScalarField;
    location    "0.9";
    object      phi_0;
}
// * * * * * * * * * * * * * * * * * * * * * * * * * * * * * * * * * * * * * //

dimensions      [0 3 -1 0 0 0 0];

internalField   nonuniform List<scalar> 
4357
(
4.99619e-08
2.04764e-09
-5.20096e-08
4.78071e-08
2.15488e-09
4.56424e-08
2.16468e-09
4.34936e-08
2.14876e-09
4.13729e-08
2.1207e-09
3.92912e-08
2.08176e-09
3.72571e-08
2.03407e-09
3.52775e-08
1.97962e-09
3.33578e-08
1.91969e-09
3.15028e-08
1.85501e-09
2.97167e-08
1.78609e-09
2.80033e-08
1.71336e-09
2.63661e-08
1.63726e-09
2.48078e-08
1.55827e-09
2.33309e-08
1.47692e-09
2.19371e-08
1.39377e-09
2.06276e-08
1.30946e-09
1.9403e-08
1.22468e-09
1.82628e-08
1.14014e-09
1.72063e-08
1.05658e-09
1.62315e-08
9.74731e-10
1.53362e-08
8.95302e-10
1.45173e-08
8.18945e-10
1.3771e-08
7.46244e-10
1.30933e-08
6.77692e-10
1.24797e-08
6.13677e-10
1.19252e-08
5.54473e-10
1.1425e-08
5.00235e-10
1.09739e-08
4.51008e-10
1.05672e-08
4.06726e-10
1.02e-08
3.67231e-10
9.8677e-09
3.32287e-10
9.56611e-09
3.01595e-10
9.2913e-09
2.74811e-10
9.03973e-09
2.51568e-10
8.80824e-09
2.31484e-10
8.59406e-09
2.14182e-10
8.39476e-09
1.99298e-10
8.20827e-09
1.8649e-10
8.03283e-09
1.75445e-10
7.86695e-09
1.65879e-10
7.7094e-09
1.57545e-10
7.55918e-09
1.50227e-10
7.41544e-09
1.43741e-10
7.2775e-09
1.37934e-10
7.14482e-09
1.32681e-10
7.01694e-09
1.27878e-10
6.8935e-09
1.23444e-10
6.77419e-09
1.19313e-10
6.65875e-09
1.15436e-10
6.54698e-09
1.11774e-10
6.43868e-09
1.08299e-10
6.33369e-09
1.04988e-10
6.23187e-09
1.01825e-10
6.13307e-09
9.8799e-11
6.03717e-09
9.58993e-11
5.94405e-09
9.31192e-11
5.8536e-09
9.04525e-11
5.7657e-09
8.78942e-11
5.68026e-09
8.54397e-11
5.59718e-09
8.30845e-11
5.51635e-09
8.08244e-11
5.4377e-09
7.86552e-11
5.36112e-09
7.65727e-11
5.28655e-09
7.45726e-11
5.2139e-09
7.26507e-11
5.1431e-09
7.0803e-11
5.07407e-09
6.90253e-11
5.00676e-09
6.73136e-11
4.9411e-09
6.56642e-11
4.87702e-09
6.40733e-11
4.81448e-09
6.25375e-11
4.75343e-09
6.10536e-11
4.69381e-09
5.96184e-11
4.63558e-09
5.82292e-11
4.5787e-09
5.68832e-11
4.52312e-09
5.55781e-11
4.46881e-09
5.43118e-11
4.41573e-09
5.30823e-11
4.36384e-09
5.1888e-11
4.31311e-09
5.07273e-11
4.26351e-09
4.9599e-11
4.21501e-09
4.85022e-11
4.16758e-09
4.74361e-11
4.12118e-09
4.64002e-11
4.07578e-09
4.53945e-11
4.03136e-09
4.44193e-11
3.98789e-09
4.34754e-11
3.94532e-09
4.25641e-11
3.90363e-09
4.16881e-11
3.86278e-09
4.08512e-11
3.82272e-09
4.00599e-11
3.7834e-09
3.9325e-11
3.74473e-09
3.86652e-11
3.70662e-09
3.81168e-11
3.66886e-09
3.77557e-11
3.63109e-09
3.77659e-11
3.59256e-09
3.85378e-11
3.55025e-09
4.23026e-11
9.73392e-11
5.77077e-08
2.15836e-09
-5.78185e-08
5.74645e-08
2.3981e-09
5.70869e-08
2.54233e-09
5.65956e-08
2.64001e-09
5.60053e-08
2.71102e-09
5.53275e-08
2.75959e-09
5.45732e-08
2.78834e-09
5.37527e-08
2.80014e-09
5.28752e-08
2.79713e-09
5.19496e-08
2.78064e-09
5.0984e-08
2.75168e-09
4.99863e-08
2.71111e-09
4.89637e-08
2.65979e-09
4.79234e-08
2.59863e-09
4.68718e-08
2.52855e-09
4.58149e-08
2.4506e-09
4.47585e-08
2.36587e-09
4.37076e-08
2.27555e-09
4.26669e-08
2.18089e-09
4.16403e-08
2.08314e-09
4.06315e-08
1.9836e-09
3.96432e-08
1.88352e-09
3.86781e-08
1.78408e-09
3.7738e-08
1.68638e-09
3.68243e-08
1.59139e-09
3.5938e-08
1.49994e-09
3.50798e-08
1.41271e-09
3.42498e-08
1.33019e-09
3.34481e-08
1.25272e-09
3.26743e-08
1.18049e-09
3.1928e-08
1.11354e-09
3.12085e-08
1.05178e-09
3.05151e-08
9.95055e-10
2.98468e-08
9.43091e-10
2.92028e-08
8.95581e-10
2.85821e-08
8.52179e-10
2.79838e-08
8.1252e-10
2.74068e-08
7.76241e-10
2.68503e-08
7.42986e-10
2.63133e-08
7.12421e-10
2.5795e-08
6.84234e-10
2.52944e-08
6.58145e-10
2.48107e-08
6.33904e-10
2.43432e-08
6.11288e-10
2.3891e-08
5.90111e-10
2.34535e-08
5.70209e-10
2.30299e-08
5.51443e-10
2.26196e-08
5.33697e-10
2.22221e-08
5.16872e-10
2.18366e-08
5.00886e-10
2.14627e-08
4.85671e-10
2.10999e-08
4.71169e-10
2.07475e-08
4.5733e-10
2.04052e-08
4.44113e-10
2.00725e-08
4.31481e-10
1.9749e-08
4.19402e-10
1.94343e-08
4.07845e-10
1.9128e-08
3.96785e-10
1.88297e-08
3.86196e-10
1.85391e-08
3.76055e-10
1.82558e-08
3.66339e-10
1.79796e-08
3.57026e-10
1.77102e-08
3.48097e-10
1.74472e-08
3.39531e-10
1.71905e-08
3.31308e-10
1.69397e-08
3.23411e-10
1.66947e-08
3.15821e-10
1.64552e-08
3.08522e-10
1.6221e-08
3.01497e-10
1.5992e-08
2.94731e-10
1.57678e-08
2.88209e-10
1.55484e-08
2.81919e-10
1.53336e-08
2.75846e-10
1.51233e-08
2.69979e-10
1.49172e-08
2.64308e-10
1.47153e-08
2.5882e-10
1.45173e-08
2.53508e-10
1.43233e-08
2.48363e-10
1.4133e-08
2.43376e-10
1.39463e-08
2.38541e-10
1.37632e-08
2.33851e-10
1.35835e-08
2.29302e-10
1.34071e-08
2.24888e-10
1.3234e-08
2.20606e-10
1.30639e-08
2.16453e-10
1.28969e-08
2.12428e-10
1.27328e-08
2.0853e-10
1.25715e-08
2.0476e-10
1.24129e-08
2.01122e-10
1.2257e-08
1.97622e-10
1.21036e-08
1.9427e-10
1.19525e-08
1.91084e-10
1.18038e-08
1.88096e-10
1.16571e-08
1.85358e-10
1.15122e-08
1.82976e-10
1.13688e-08
1.81176e-10
1.12261e-08
1.80491e-10
1.1082e-08
1.82611e-10
1.09269e-08
1.97381e-10
2.76769e-10
6.27562e-08
2.15118e-09
-6.2749e-08
6.27677e-08
2.38661e-09
6.27509e-08
2.55918e-09
6.26974e-08
2.69349e-09
6.26038e-08
2.80459e-09
6.24669e-08
2.89651e-09
6.22848e-08
2.97046e-09
6.2057e-08
3.02794e-09
6.17838e-08
3.07027e-09
6.14662e-08
3.09825e-09
6.11055e-08
3.11241e-09
6.07034e-08
3.11319e-09
6.02621e-08
3.10107e-09
5.97841e-08
3.07663e-09
5.92722e-08
3.04053e-09
5.87292e-08
2.99359e-09
5.81583e-08
2.93677e-09
5.75627e-08
2.87115e-09
5.69456e-08
2.79796e-09
5.63103e-08
2.71848e-09
5.56598e-08
2.63408e-09
5.49972e-08
2.54614e-09
5.43252e-08
2.45602e-09
5.36466e-08
2.36501e-09
5.29637e-08
2.27431e-09
5.22786e-08
2.18499e-09
5.15934e-08
2.09797e-09
5.09096e-08
2.01401e-09
5.02286e-08
1.93369e-09
4.95517e-08
1.85741e-09
4.88798e-08
1.78543e-09
4.82137e-08
1.71786e-09
4.75541e-08
1.65469e-09
4.69014e-08
1.5958e-09
4.6256e-08
1.54099e-09
4.56181e-08
1.49003e-09
4.4988e-08
1.44262e-09
4.43658e-08
1.39846e-09
4.37515e-08
1.35723e-09
4.31453e-08
1.31864e-09
4.25471e-08
1.28241e-09
4.1957e-08
1.24825e-09
4.1375e-08
1.21595e-09
4.0801e-08
1.18528e-09
4.02351e-08
1.15606e-09
3.96771e-08
1.12813e-09
3.91272e-08
1.10136e-09
3.85853e-08
1.07564e-09
3.80513e-08
1.05086e-09
3.75252e-08
1.02696e-09
3.7007e-08
1.00386e-09
3.64967e-08
9.8152e-10
3.59941e-08
9.59891e-10
3.54993e-08
9.38939e-10
3.50121e-08
9.18632e-10
3.45326e-08
8.98943e-10
3.40606e-08
8.7985e-10
3.3596e-08
8.61331e-10
3.31389e-08
8.43367e-10
3.2689e-08
8.25938e-10
3.22463e-08
8.09028e-10
3.18107e-08
7.92618e-10
3.13821e-08
7.76692e-10
3.09604e-08
7.61234e-10
3.05455e-08
7.46225e-10
3.01373e-08
7.31651e-10
2.97356e-08
7.17495e-10
2.93404e-08
7.03742e-10
2.89515e-08
6.90375e-10
2.85688e-08
6.77381e-10
2.81923e-08
6.64745e-10
2.78218e-08
6.52453e-10
2.74571e-08
6.40492e-10
2.70982e-08
6.28849e-10
2.6745e-08
6.17513e-10
2.63974e-08
6.06472e-10
2.60552e-08
5.95715e-10
2.57183e-08
5.85234e-10
2.53867e-08
5.75019e-10
2.50601e-08
5.65063e-10
2.47386e-08
5.55358e-10
2.4422e-08
5.45898e-10
2.41103e-08
5.3668e-10
2.38032e-08
5.27698e-10
2.35007e-08
5.18951e-10
2.32027e-08
5.10439e-10
2.2909e-08
5.02162e-10
2.26197e-08
4.94124e-10
2.23344e-08
4.86334e-10
2.20533e-08
4.78805e-10
2.1776e-08
4.71556e-10
2.15024e-08
4.64622e-10
2.12325e-08
4.58058e-10
2.09659e-08
4.51964e-10
2.07023e-08
4.46531e-10
2.04413e-08
4.42163e-10
2.0182e-08
4.39858e-10
1.99218e-08
4.42762e-10
1.96555e-08
4.63698e-10
5.3643e-10
6.79981e-08
2.17521e-09
-6.80221e-08
6.80021e-08
2.38256e-09
6.80089e-08
2.55238e-09
6.80094e-08
2.69297e-09
6.80008e-08
2.81321e-09
6.79805e-08
2.91682e-09
6.79459e-08
3.00505e-09
6.78949e-08
3.07895e-09
6.78256e-08
3.13953e-09
6.77364e-08
3.18748e-09
6.76256e-08
3.22317e-09
6.7492e-08
3.24685e-09
6.73343e-08
3.25875e-09
6.71518e-08
3.25914e-09
6.69439e-08
3.24841e-09
6.67105e-08
3.22703e-09
6.64516e-08
3.19564e-09
6.61677e-08
3.15501e-09
6.58596e-08
3.10606e-09
6.55283e-08
3.04984e-09
6.51749e-08
2.98747e-09
6.48009e-08
2.92015e-09
6.44078e-08
2.84909e-09
6.39973e-08
2.77552e-09
6.3571e-08
2.70058e-09
6.31307e-08
2.62534e-09
6.26779e-08
2.55076e-09
6.22142e-08
2.47767e-09
6.17412e-08
2.40673e-09
6.12601e-08
2.33849e-09
6.07722e-08
2.27332e-09
6.02786e-08
2.21147e-09
5.97802e-08
2.15305e-09
5.92779e-08
2.09809e-09
5.87724e-08
2.0465e-09
5.82643e-08
1.99814e-09
5.77541e-08
1.95282e-09
5.72423e-08
1.91031e-09
5.67291e-08
1.87038e-09
5.6215e-08
1.83278e-09
5.57001e-08
1.79725e-09
5.51848e-08
1.76358e-09
5.46692e-08
1.73154e-09
5.41536e-08
1.70094e-09
5.3638e-08
1.67161e-09
5.31227e-08
1.6434e-09
5.26079e-08
1.61618e-09
5.20937e-08
1.58984e-09
5.15803e-08
1.56429e-09
5.10678e-08
1.53945e-09
5.05564e-08
1.51526e-09
5.00462e-08
1.49168e-09
4.95375e-08
1.46865e-09
4.90303e-08
1.44614e-09
4.85248e-08
1.42414e-09
4.80211e-08
1.40261e-09
4.75194e-08
1.38153e-09
4.70198e-08
1.3609e-09
4.65225e-08
1.34069e-09
4.60276e-08
1.32088e-09
4.55351e-08
1.30148e-09
4.50453e-08
1.28246e-09
4.45582e-08
1.26382e-09
4.40739e-08
1.24553e-09
4.35925e-08
1.2276e-09
4.31141e-08
1.21001e-09
4.26389e-08
1.19274e-09
4.21668e-08
1.1758e-09
4.1698e-08
1.15916e-09
4.12326e-08
1.14282e-09
4.07706e-08
1.12677e-09
4.0312e-08
1.111e-09
3.9857e-08
1.0955e-09
3.94056e-08
1.08026e-09
3.89578e-08
1.06529e-09
3.85137e-08
1.05056e-09
3.80734e-08
1.03607e-09
3.76368e-08
1.02183e-09
3.7204e-08
1.00782e-09
3.6775e-08
9.94049e-10
3.63499e-08
9.80506e-10
3.59286e-08
9.67195e-10
3.55111e-08
9.54114e-10
3.50976e-08
9.41268e-10
3.46878e-08
9.28659e-10
3.4282e-08
9.16293e-10
3.388e-08
9.04179e-10
3.34818e-08
8.92331e-10
3.30873e-08
8.80764e-10
3.26966e-08
8.69505e-10
3.23096e-08
8.58588e-10
3.19262e-08
8.48069e-10
3.15462e-08
8.38034e-10
3.11695e-08
8.28631e-10
3.07959e-08
8.20134e-10
3.0425e-08
8.13112e-10
3.00559e-08
8.08902e-10
2.96875e-08
8.11168e-10
2.93211e-08
8.30083e-10
8.77572e-10
7.364e-08
2.23435e-09
-7.36992e-08
7.36094e-08
2.41323e-09
7.3591e-08
2.57069e-09
7.35768e-08
2.70718e-09
7.35635e-08
2.82653e-09
7.3549e-08
2.93134e-09
7.35313e-08
3.02274e-09
7.35087e-08
3.10152e-09
7.34798e-08
3.16841e-09
7.34433e-08
3.224e-09
7.33978e-08
3.26866e-09
7.3342e-08
3.30266e-09
7.32746e-08
3.32619e-09
7.31942e-08
3.3395e-09
7.30998e-08
3.34286e-09
7.29901e-08
3.33665e-09
7.28644e-08
3.32133e-09
7.2722e-08
3.29748e-09
7.25622e-08
3.26581e-09
7.23849e-08
3.22714e-09
7.219e-08
3.18234e-09
7.19778e-08
3.13241e-09
7.17485e-08
3.07835e-09
7.15029e-08
3.02118e-09
7.12415e-08
2.9619e-09
7.09654e-08
2.90147e-09
7.06754e-08
2.84075e-09
7.03726e-08
2.78053e-09
7.00578e-08
2.72147e-09
6.97322e-08
2.66411e-09
6.93967e-08
2.60888e-09
6.9052e-08
2.55608e-09
6.86992e-08
2.50591e-09
6.83388e-08
2.45846e-09
6.79716e-08
2.41375e-09
6.7598e-08
2.3717e-09
6.72186e-08
2.33222e-09
6.68338e-08
2.29514e-09
6.64438e-08
2.26029e-09
6.60491e-08
2.22748e-09
6.56499e-08
2.1965e-09
6.52463e-08
2.16717e-09
6.48385e-08
2.1393e-09
6.44268e-08
2.11271e-09
6.40111e-08
2.08726e-09
6.35917e-08
2.06279e-09
6.31687e-08
2.0392e-09
6.27422e-08
2.01636e-09
6.23123e-08
1.99421e-09
6.18791e-08
1.97264e-09
6.14428e-08
1.95161e-09
6.10034e-08
1.93106e-09
6.05611e-08
1.91095e-09
6.0116e-08
1.89123e-09
5.96682e-08
1.87189e-09
5.9218e-08
1.85289e-09
5.87653e-08
1.83421e-09
5.83103e-08
1.81584e-09
5.78533e-08
1.79776e-09
5.73942e-08
1.77995e-09
5.69333e-08
1.7624e-09
5.64707e-08
1.74509e-09
5.60064e-08
1.72803e-09
5.55408e-08
1.71119e-09
5.50738e-08
1.69456e-09
5.46057e-08
1.67813e-09
5.41366e-08
1.66189e-09
5.36665e-08
1.64583e-09
5.31957e-08
1.62995e-09
5.27243e-08
1.61423e-09
5.22524e-08
1.59866e-09
5.17802e-08
1.58325e-09
5.13077e-08
1.56797e-09
5.08352e-08
1.55282e-09
5.03627e-08
1.5378e-09
4.98903e-08
1.52291e-09
4.94182e-08
1.50814e-09
4.89466e-08
1.49348e-09
4.84755e-08
1.47894e-09
4.8005e-08
1.46452e-09
4.75353e-08
1.45022e-09
4.70664e-08
1.43604e-09
4.65985e-08
1.42199e-09
4.61317e-08
1.40808e-09
4.56661e-08
1.3943e-09
4.52017e-08
1.38069e-09
4.47386e-08
1.36724e-09
4.4277e-08
1.35399e-09
4.38168e-08
1.34095e-09
4.33581e-08
1.32817e-09
4.2901e-08
1.3157e-09
4.24455e-08
1.30361e-09
4.19915e-08
1.29202e-09
4.1539e-08
1.2811e-09
4.1088e-08
1.27119e-09
4.06381e-08
1.26293e-09
4.01894e-08
1.25766e-09
3.97422e-08
1.2583e-09
3.93025e-08
1.26981e-09
1.28742e-09
7.97303e-08
2.31969e-09
-7.98156e-08
7.96695e-08
2.47399e-09
7.96239e-08
2.61629e-09
7.95866e-08
2.74455e-09
7.95536e-08
2.85952e-09
7.95226e-08
2.96232e-09
7.94917e-08
3.05361e-09
7.94595e-08
3.1338e-09
7.94246e-08
3.20331e-09
7.9386e-08
3.26252e-09
7.93429e-08
3.31176e-09
7.92943e-08
3.35126e-09
7.92393e-08
3.38126e-09
7.91768e-08
3.40197e-09
7.9106e-08
3.41368e-09
7.90259e-08
3.41673e-09
7.89357e-08
3.41152e-09
7.88346e-08
3.39855e-09
7.8722e-08
3.37842e-09
7.85974e-08
3.35178e-09
7.84603e-08
3.31939e-09
7.83107e-08
3.28205e-09
7.81484e-08
3.24062e-09
7.79737e-08
3.19594e-09
7.77867e-08
3.14889e-09
7.75879e-08
3.10028e-09
7.73777e-08
3.05088e-09
7.71569e-08
3.0014e-09
7.69259e-08
2.95245e-09
7.66855e-08
2.90455e-09
7.64362e-08
2.85813e-09
7.61788e-08
2.81351e-09
7.59138e-08
2.77092e-09
7.56417e-08
2.73052e-09
7.53631e-08
2.69235e-09
7.50784e-08
2.65644e-09
7.47879e-08
2.62273e-09
7.44919e-08
2.59112e-09
7.41907e-08
2.56149e-09
7.38845e-08
2.53371e-09
7.35734e-08
2.50761e-09
7.32575e-08
2.48304e-09
7.29369e-08
2.45985e-09
7.26117e-08
2.4379e-09
7.2282e-08
2.41703e-09
7.19476e-08
2.39712e-09
7.16088e-08
2.37807e-09
7.12654e-08
2.35977e-09
7.09174e-08
2.34213e-09
7.0565e-08
2.32508e-09
7.02081e-08
2.30854e-09
6.98467e-08
2.29247e-09
6.94808e-08
2.27681e-09
6.91105e-08
2.26153e-09
6.87358e-08
2.24659e-09
6.83567e-08
2.23196e-09
6.79733e-08
2.21761e-09
6.75856e-08
2.20352e-09
6.71937e-08
2.18967e-09
6.67976e-08
2.17604e-09
6.63974e-08
2.16262e-09
6.59931e-08
2.14937e-09
6.55848e-08
2.1363e-09
6.51726e-08
2.12338e-09
6.47566e-08
2.11059e-09
6.43368e-08
2.09794e-09
6.39133e-08
2.08539e-09
6.34862e-08
2.07294e-09
6.30556e-08
2.06058e-09
6.26215e-08
2.04829e-09
6.21841e-08
2.03606e-09
6.17435e-08
2.02389e-09
6.12997e-08
2.01175e-09
6.08528e-08
1.99965e-09
6.04031e-08
1.98758e-09
5.99504e-08
1.97553e-09
5.94951e-08
1.96349e-09
5.90371e-08
1.95146e-09
5.85766e-08
1.93944e-09
5.81137e-08
1.92742e-09
5.76485e-08
1.91542e-09
5.71812e-08
1.90343e-09
5.67117e-08
1.89145e-09
5.62403e-08
1.8795e-09
5.5767e-08
1.86758e-09
5.5292e-08
1.85572e-09
5.48153e-08
1.84392e-09
5.43371e-08
1.83221e-09
5.38574e-08
1.82063e-09
5.33763e-08
1.80922e-09
5.2894e-08
1.79804e-09
5.24104e-08
1.78717e-09
5.19257e-08
1.77674e-09
5.14399e-08
1.76695e-09
5.09529e-08
1.75813e-09
5.0465e-08
1.75084e-09
4.99766e-08
1.74606e-09
4.94897e-08
1.74526e-09
4.90108e-08
1.74865e-09
1.74346e-09
8.6305e-08
2.42592e-09
-8.64113e-08
8.62187e-08
2.56032e-09
8.6147e-08
2.68799e-09
8.60849e-08
2.80661e-09
8.6029e-08
2.91549e-09
8.59767e-08
3.01463e-09
8.59261e-08
3.10415e-09
8.58758e-08
3.18413e-09
8.58244e-08
3.2547e-09
8.57709e-08
3.31604e-09
8.57143e-08
3.36834e-09
8.56538e-08
3.41177e-09
8.55886e-08
3.4465e-09
8.55178e-08
3.47276e-09
8.54407e-08
3.49077e-09
8.53566e-08
3.50084e-09
8.52648e-08
3.50332e-09
8.51647e-08
3.49866e-09
8.50557e-08
3.48735e-09
8.49375e-08
3.46996e-09
8.48098e-08
3.44714e-09
8.46723e-08
3.41956e-09
8.4525e-08
3.38795e-09
8.43678e-08
3.35305e-09
8.42012e-08
3.31559e-09
8.40251e-08
3.2763e-09
8.38402e-08
3.23586e-09
8.36467e-08
3.19489e-09
8.34451e-08
3.15398e-09
8.32361e-08
3.11361e-09
8.302e-08
3.07419e-09
8.27975e-08
3.03606e-09
8.25689e-08
2.99948e-09
8.23348e-08
2.96462e-09
8.20955e-08
2.9316e-09
8.18515e-08
2.90048e-09
8.1603e-08
2.87124e-09
8.13502e-08
2.84387e-09
8.10935e-08
2.81828e-09
8.08328e-08
2.79438e-09
8.05683e-08
2.77207e-09
8.03001e-08
2.75122e-09
8.00283e-08
2.73172e-09
7.97527e-08
2.71344e-09
7.94735e-08
2.69627e-09
7.91905e-08
2.6801e-09
7.89038e-08
2.66482e-09
7.86132e-08
2.65035e-09
7.83187e-08
2.63661e-09
7.80203e-08
2.62351e-09
7.77178e-08
2.611e-09
7.74113e-08
2.59902e-09
7.71006e-08
2.58752e-09
7.67856e-08
2.57645e-09
7.64665e-08
2.56577e-09
7.6143e-08
2.55546e-09
7.58151e-08
2.54548e-09
7.54828e-08
2.53581e-09
7.51461e-08
2.52641e-09
7.48049e-08
2.51727e-09
7.44591e-08
2.50835e-09
7.41088e-08
2.49965e-09
7.3754e-08
2.49114e-09
7.33946e-08
2.4828e-09
7.30306e-08
2.47461e-09
7.26619e-08
2.46656e-09
7.22887e-08
2.45862e-09
7.19109e-08
2.45078e-09
7.15284e-08
2.44302e-09
7.11414e-08
2.43533e-09
7.07498e-08
2.42768e-09
7.03536e-08
2.42008e-09
6.99529e-08
2.41249e-09
6.95476e-08
2.40492e-09
6.91378e-08
2.39734e-09
6.87236e-08
2.38976e-09
6.83049e-08
2.38215e-09
6.78819e-08
2.37451e-09
6.74545e-08
2.36684e-09
6.70228e-08
2.35913e-09
6.65868e-08
2.35139e-09
6.61466e-08
2.3436e-09
6.57023e-08
2.33577e-09
6.52539e-08
2.32791e-09
6.48014e-08
2.32003e-09
6.4345e-08
2.31214e-09
6.38847e-08
2.30426e-09
6.34205e-08
2.29641e-09
6.29525e-08
2.28862e-09
6.24808e-08
2.28094e-09
6.20054e-08
2.27344e-09
6.15264e-08
2.26619e-09
6.10438e-08
2.25932e-09
6.05577e-08
2.253e-09
6.00684e-08
2.24751e-09
5.9576e-08
2.24321e-09
5.90815e-08
2.24054e-09
5.85872e-08
2.23955e-09
5.8098e-08
2.23786e-09
2.22268e-09
9.34025e-08
2.55092e-09
-9.35275e-08
9.32933e-08
2.66952e-09
9.3197e-08
2.78428e-09
9.31104e-08
2.89324e-09
9.30306e-08
2.99528e-09
9.29554e-08
3.08981e-09
9.2883e-08
3.17656e-09
9.28118e-08
3.25532e-09
9.27405e-08
3.32602e-09
9.26679e-08
3.38863e-09
9.2593e-08
3.4432e-09
9.2515e-08
3.48979e-09
9.2433e-08
3.52852e-09
9.23462e-08
3.55953e-09
9.2254e-08
3.58301e-09
9.21556e-08
3.59919e-09
9.20506e-08
3.60839e-09
9.19383e-08
3.61096e-09
9.18183e-08
3.60733e-09
9.16902e-08
3.59798e-09
9.15539e-08
3.58345e-09
9.14092e-08
3.56432e-09
9.12559e-08
3.5412e-09
9.10942e-08
3.51473e-09
9.09243e-08
3.48555e-09
9.07463e-08
3.45428e-09
9.05606e-08
3.42154e-09
9.03676e-08
3.38789e-09
9.01678e-08
3.35384e-09
8.99615e-08
3.31987e-09
8.97493e-08
3.28637e-09
8.95317e-08
3.25369e-09
8.93091e-08
3.22209e-09
8.90819e-08
3.19178e-09
8.88506e-08
3.16291e-09
8.86155e-08
3.13558e-09
8.83769e-08
3.10984e-09
8.81351e-08
3.0857e-09
8.78902e-08
3.06313e-09
8.76425e-08
3.0421e-09
8.7392e-08
3.02253e-09
8.71389e-08
3.00434e-09
8.68832e-08
2.98746e-09
8.66249e-08
2.97178e-09
8.63639e-08
2.95722e-09
8.61003e-08
2.94369e-09
8.5834e-08
2.93111e-09
8.5565e-08
2.9194e-09
8.52931e-08
2.90849e-09
8.50183e-08
2.89831e-09
8.47405e-08
2.8888e-09
8.44596e-08
2.87991e-09
8.41755e-08
2.87159e-09
8.38882e-08
2.86379e-09
8.35975e-08
2.85649e-09
8.33033e-08
2.84963e-09
8.30056e-08
2.8432e-09
8.27042e-08
2.83716e-09
8.23991e-08
2.83149e-09
8.20903e-08
2.82615e-09
8.17775e-08
2.82113e-09
8.14607e-08
2.81639e-09
8.114e-08
2.81193e-09
8.0815e-08
2.80771e-09
8.0486e-08
2.80371e-09
8.01526e-08
2.79992e-09
7.98149e-08
2.79631e-09
7.94728e-08
2.79286e-09
7.91263e-08
2.78956e-09
7.87752e-08
2.78638e-09
7.84196e-08
2.78331e-09
7.80593e-08
2.78033e-09
7.76944e-08
2.77742e-09
7.73248e-08
2.77457e-09
7.69503e-08
2.77176e-09
7.65711e-08
2.76899e-09
7.6187e-08
2.76622e-09
7.57981e-08
2.76347e-09
7.54042e-08
2.76071e-09
7.50054e-08
2.75795e-09
7.46016e-08
2.75517e-09
7.41928e-08
2.75237e-09
7.37791e-08
2.74955e-09
7.33603e-08
2.74671e-09
7.29364e-08
2.74387e-09
7.25076e-08
2.74102e-09
7.20736e-08
2.73819e-09
7.16346e-08
2.7354e-09
7.11906e-08
2.73267e-09
7.07415e-08
2.73006e-09
7.02873e-08
2.72761e-09
6.98281e-08
2.7254e-09
6.93639e-08
2.72353e-09
6.88947e-08
2.72214e-09
6.84208e-08
2.72138e-09
6.79427e-08
2.72139e-09
6.74611e-08
2.7221e-09
6.69779e-08
2.72274e-09
6.64952e-08
2.72055e-09
2.7076e-09
1.01065e-07
2.69409e-09
-1.01208e-07
1.00934e-07
2.80023e-09
1.00814e-07
2.9041e-09
1.00703e-07
3.00423e-09
1.00599e-07
3.0995e-09
1.005e-07
3.18912e-09
1.00404e-07
3.27259e-09
1.0031e-07
3.34953e-09
1.00216e-07
3.41969e-09
1.00122e-07
3.48292e-09
1.00026e-07
3.53912e-09
9.99272e-08
3.58827e-09
9.98253e-08
3.63039e-09
9.97193e-08
3.66556e-09
9.96084e-08
3.6939e-09
9.9492e-08
3.71559e-09
9.93695e-08
3.73087e-09
9.92405e-08
3.74002e-09
9.91044e-08
3.74339e-09
9.8961e-08
3.74139e-09
9.881e-08
3.73444e-09
9.86513e-08
3.72305e-09
9.84848e-08
3.70773e-09
9.83105e-08
3.68901e-09
9.81286e-08
3.66745e-09
9.79393e-08
3.64359e-09
9.77429e-08
3.61796e-09
9.75397e-08
3.59108e-09
9.73301e-08
3.5634e-09
9.71146e-08
3.53538e-09
9.68936e-08
3.50738e-09
9.66675e-08
3.47974e-09
9.64369e-08
3.45274e-09
9.62021e-08
3.42661e-09
9.59634e-08
3.40153e-09
9.57214e-08
3.37763e-09
9.54762e-08
3.35499e-09
9.52283e-08
3.33367e-09
9.49777e-08
3.3137e-09
9.47247e-08
3.29506e-09
9.44696e-08
3.27773e-09
9.42122e-08
3.26166e-09
9.39529e-08
3.24682e-09
9.36915e-08
3.23314e-09
9.34282e-08
3.22055e-09
9.31629e-08
3.20899e-09
9.28956e-08
3.1984e-09
9.26263e-08
3.18871e-09
9.23549e-08
3.17987e-09
9.20814e-08
3.17182e-09
9.18057e-08
3.16451e-09
9.15277e-08
3.1579e-09
9.12473e-08
3.15193e-09
9.09646e-08
3.14657e-09
9.06793e-08
3.14178e-09
9.03914e-08
3.13754e-09
9.01008e-08
3.1338e-09
8.98074e-08
3.13055e-09
8.95111e-08
3.12774e-09
8.92119e-08
3.12537e-09
8.89096e-08
3.1234e-09
8.86042e-08
3.12181e-09
8.82956e-08
3.12057e-09
8.79836e-08
3.11968e-09
8.76682e-08
3.11909e-09
8.73493e-08
3.1188e-09
8.70268e-08
3.11879e-09
8.67007e-08
3.11902e-09
8.63708e-08
3.11949e-09
8.6037e-08
3.12017e-09
8.56992e-08
3.12105e-09
8.53575e-08
3.1221e-09
8.50116e-08
3.12331e-09
8.46615e-08
3.12467e-09
8.43071e-08
3.12615e-09
8.39483e-08
3.12775e-09
8.35851e-08
3.12944e-09
8.32173e-08
3.13123e-09
8.2845e-08
3.13309e-09
8.24679e-08
3.13502e-09
8.2086e-08
3.13701e-09
8.16994e-08
3.13906e-09
8.13077e-08
3.14116e-09
8.09111e-08
3.14332e-09
8.05095e-08
3.14553e-09
8.01027e-08
3.14782e-09
7.96907e-08
3.15018e-09
7.92734e-08
3.15265e-09
7.88509e-08
3.15524e-09
7.84229e-08
3.15799e-09
7.79896e-08
3.16094e-09
7.75508e-08
3.16417e-09
7.71066e-08
3.16773e-09
7.66571e-08
3.17171e-09
7.62023e-08
3.17616e-09
7.57427e-08
3.18101e-09
7.52788e-08
3.18593e-09
7.48116e-08
3.18998e-09
7.43409e-08
3.19123e-09
3.18704e-09
1.09337e-07
2.8557e-09
-1.09499e-07
1.09185e-07
2.95208e-09
1.09043e-07
3.04709e-09
1.08907e-07
3.13963e-09
1.08778e-07
3.22874e-09
1.08653e-07
3.31364e-09
1.08532e-07
3.39374e-09
1.08413e-07
3.46859e-09
1.08295e-07
3.53782e-09
1.08177e-07
3.6012e-09
1.08057e-07
3.65853e-09
1.07936e-07
3.7097e-09
1.07812e-07
3.75468e-09
1.07684e-07
3.79346e-09
1.07551e-07
3.8261e-09
1.07414e-07
3.85272e-09
1.07272e-07
3.87348e-09
1.07123e-07
3.88862e-09
1.06968e-07
3.89839e-09
1.06806e-07
3.90311e-09
1.06638e-07
3.90316e-09
1.06462e-07
3.89892e-09
1.06279e-07
3.89083e-09
1.06088e-07
3.87935e-09
1.05891e-07
3.86493e-09
1.05686e-07
3.84805e-09
1.05475e-07
3.82917e-09
1.05258e-07
3.80874e-09
1.05034e-07
3.78719e-09
1.04804e-07
3.7649e-09
1.04569e-07
3.74225e-09
1.0433e-07
3.71956e-09
1.04085e-07
3.6971e-09
1.03837e-07
3.67512e-09
1.03584e-07
3.6538e-09
1.03329e-07
3.63332e-09
1.0307e-07
3.61378e-09
1.02808e-07
3.59527e-09
1.02544e-07
3.57786e-09
1.02278e-07
3.56157e-09
1.02009e-07
3.54642e-09
1.01738e-07
3.53239e-09
1.01466e-07
3.51947e-09
1.01191e-07
3.50762e-09
1.00915e-07
3.49682e-09
1.00637e-07
3.48701e-09
1.00357e-07
3.47816e-09
1.00076e-07
3.47021e-09
9.97923e-08
3.46313e-09
9.95073e-08
3.45687e-09
9.92204e-08
3.45138e-09
9.89317e-08
3.44664e-09
9.8641e-08
3.44259e-09
9.83484e-08
3.43922e-09
9.80537e-08
3.43647e-09
9.77569e-08
3.43433e-09
9.74579e-08
3.43277e-09
9.71567e-08
3.43176e-09
9.68532e-08
3.43126e-09
9.65473e-08
3.43127e-09
9.62389e-08
3.43176e-09
9.5928e-08
3.43269e-09
9.56145e-08
3.43407e-09
9.52984e-08
3.43585e-09
9.49794e-08
3.43802e-09
9.46577e-08
3.44057e-09
9.4333e-08
3.44347e-09
9.40053e-08
3.4467e-09
9.36746e-08
3.45024e-09
9.33406e-08
3.45409e-09
9.30035e-08
3.45821e-09
9.2663e-08
3.46259e-09
9.23191e-08
3.46722e-09
9.19717e-08
3.47207e-09
9.16207e-08
3.47715e-09
9.1266e-08
3.48242e-09
9.09076e-08
3.48788e-09
9.05453e-08
3.49352e-09
9.01791e-08
3.49932e-09
8.98088e-08
3.50528e-09
8.94344e-08
3.5114e-09
8.90558e-08
3.51766e-09
8.86729e-08
3.52406e-09
8.82856e-08
3.53061e-09
8.78939e-08
3.5373e-09
8.74975e-08
3.54415e-09
8.70965e-08
3.55116e-09
8.66908e-08
3.55836e-09
8.62803e-08
3.56576e-09
8.58649e-08
3.57339e-09
8.54446e-08
3.58129e-09
8.50192e-08
3.58949e-09
8.45889e-08
3.59805e-09
8.41537e-08
3.60697e-09
8.37136e-08
3.61626e-09
8.32688e-08
3.62578e-09
8.28195e-08
3.63519e-09
8.23657e-08
3.64378e-09
8.19064e-08
3.65053e-09
3.65485e-09
6.85646e-08
2.72287e-09
-6.84317e-08
6.87039e-08
2.81271e-09
6.88496e-08
2.90143e-09
6.90011e-08
2.98813e-09
6.91579e-08
3.07196e-09
6.93193e-08
3.1522e-09
6.94848e-08
3.22827e-09
6.96537e-08
3.2997e-09
6.98254e-08
3.36612e-09
6.99993e-08
3.42724e-09
7.0175e-08
3.48286e-09
7.03519e-08
3.53284e-09
7.05295e-08
3.57708e-09
7.07073e-08
3.61558e-09
7.08851e-08
3.64835e-09
7.10623e-08
3.67548e-09
7.12387e-08
3.69711e-09
7.14139e-08
3.71341e-09
7.15877e-08
3.72463e-09
7.17597e-08
3.73104e-09
7.193e-08
3.73295e-09
7.20982e-08
3.73071e-09
7.22643e-08
3.72472e-09
7.24282e-08
3.71537e-09
7.25901e-08
3.70308e-09
7.27499e-08
3.68827e-09
7.29077e-08
3.67137e-09
7.30636e-08
3.65278e-09
7.32179e-08
3.6329e-09
7.33707e-08
3.6121e-09
7.35222e-08
3.59072e-09
7.36727e-08
3.56906e-09
7.38224e-08
3.54741e-09
7.39716e-08
3.526e-09
7.41203e-08
3.50502e-09
7.4269e-08
3.48466e-09
7.44178e-08
3.46503e-09
7.45668e-08
3.44624e-09
7.47163e-08
3.42837e-09
7.48664e-08
3.41147e-09
7.50172e-08
3.39557e-09
7.51689e-08
3.38067e-09
7.53216e-08
3.36677e-09
7.54754e-08
3.35387e-09
7.56303e-08
3.34195e-09
7.57863e-08
3.33096e-09
7.59436e-08
3.32089e-09
7.61021e-08
3.31169e-09
7.62619e-08
3.30334e-09
7.6423e-08
3.29579e-09
7.65853e-08
3.28902e-09
7.6749e-08
3.28298e-09
7.6914e-08
3.27765e-09
7.70802e-08
3.27299e-09
7.72477e-08
3.26898e-09
7.74164e-08
3.26559e-09
7.75864e-08
3.2628e-09
7.77576e-08
3.26056e-09
7.793e-08
3.25888e-09
7.81035e-08
3.25771e-09
7.82782e-08
3.25705e-09
7.8454e-08
3.25687e-09
7.8631e-08
3.25715e-09
7.88089e-08
3.25787e-09
7.8988e-08
3.25901e-09
7.9168e-08
3.26056e-09
7.93489e-08
3.26249e-09
7.95308e-08
3.2648e-09
7.97136e-08
3.26746e-09
7.98972e-08
3.27047e-09
8.00817e-08
3.2738e-09
8.02668e-08
3.27743e-09
8.04527e-08
3.28137e-09
8.06391e-08
3.28559e-09
8.08262e-08
3.29008e-09
8.10138e-08
3.29484e-09
8.12018e-08
3.29985e-09
8.13902e-08
3.30511e-09
8.15789e-08
3.3106e-09
8.17679e-08
3.31633e-09
8.1957e-08
3.32229e-09
8.21462e-08
3.32849e-09
8.23353e-08
3.33492e-09
8.25243e-08
3.34159e-09
8.27131e-08
3.3485e-09
8.29016e-08
3.35567e-09
8.30896e-08
3.36312e-09
8.32771e-08
3.37086e-09
8.3464e-08
3.37892e-09
8.365e-08
3.38733e-09
8.38352e-08
3.39611e-09
8.40194e-08
3.4053e-09
8.42025e-08
3.41493e-09
8.43845e-08
3.42498e-09
8.45653e-08
3.43542e-09
8.4745e-08
3.44614e-09
8.49233e-08
3.45687e-09
8.50999e-08
3.46718e-09
8.5274e-08
3.47638e-09
3.48353e-09
7.5772e-08
2.5777e-09
-7.56268e-08
7.59232e-08
2.66146e-09
7.60803e-08
2.74429e-09
7.6243e-08
2.82545e-09
7.64108e-08
2.90419e-09
7.65831e-08
2.97987e-09
7.67595e-08
3.05191e-09
7.69393e-08
3.11988e-09
7.7122e-08
3.18338e-09
7.73072e-08
3.24212e-09
7.74941e-08
3.29587e-09
7.76825e-08
3.34446e-09
7.78718e-08
3.38778e-09
7.80616e-08
3.42577e-09
7.82515e-08
3.45844e-09
7.84412e-08
3.48584e-09
7.86302e-08
3.50808e-09
7.88183e-08
3.52529e-09
7.90053e-08
3.53769e-09
7.91908e-08
3.54549e-09
7.93748e-08
3.54899e-09
7.9557e-08
3.54847e-09
7.97374e-08
3.54429e-09
7.9916e-08
3.5368e-09
8.00927e-08
3.52637e-09
8.02676e-08
3.51337e-09
8.04408e-08
3.4982e-09
8.06123e-08
3.48123e-09
8.07824e-08
3.46281e-09
8.09512e-08
3.4433e-09
8.11189e-08
3.42301e-09
8.12858e-08
3.40224e-09
8.14519e-08
3.38125e-09
8.16177e-08
3.36028e-09
8.17832e-08
3.33953e-09
8.19486e-08
3.31917e-09
8.21143e-08
3.29936e-09
8.22804e-08
3.28019e-09
8.2447e-08
3.26177e-09
8.26143e-08
3.24416e-09
8.27824e-08
3.2274e-09
8.29516e-08
3.21153e-09
8.31218e-08
3.19656e-09
8.32932e-08
3.18249e-09
8.34658e-08
3.16931e-09
8.36397e-08
3.15702e-09
8.3815e-08
3.14558e-09
8.39918e-08
3.13498e-09
8.41699e-08
3.12519e-09
8.43495e-08
3.11619e-09
8.45306e-08
3.10794e-09
8.47131e-08
3.10042e-09
8.48972e-08
3.09359e-09
8.50828e-08
3.08744e-09
8.52698e-08
3.08193e-09
8.54584e-08
3.07705e-09
8.56484e-08
3.07276e-09
8.58399e-08
3.06904e-09
8.60329e-08
3.06587e-09
8.62274e-08
3.06324e-09
8.64233e-08
3.06112e-09
8.66207e-08
3.05948e-09
8.68195e-08
3.05833e-09
8.70198e-08
3.05762e-09
8.72214e-08
3.05735e-09
8.74245e-08
3.05751e-09
8.76289e-08
3.05806e-09
8.78347e-08
3.05901e-09
8.80418e-08
3.06034e-09
8.82503e-08
3.06202e-09
8.846e-08
3.06405e-09
8.8671e-08
3.06642e-09
8.88833e-08
3.06911e-09
8.90968e-08
3.07212e-09
8.93114e-08
3.07543e-09
8.95272e-08
3.07904e-09
8.97441e-08
3.08293e-09
8.99621e-08
3.08712e-09
9.01811e-08
3.09158e-09
9.04012e-08
3.09633e-09
9.06221e-08
3.10135e-09
9.08439e-08
3.10666e-09
9.10666e-08
3.11226e-09
9.129e-08
3.11816e-09
9.15141e-08
3.12437e-09
9.17389e-08
3.1309e-09
9.19643e-08
3.13777e-09
9.21901e-08
3.14501e-09
9.24164e-08
3.15264e-09
9.26431e-08
3.16069e-09
9.287e-08
3.16919e-09
9.30971e-08
3.17817e-09
9.33244e-08
3.18765e-09
9.35518e-08
3.19762e-09
9.37791e-08
3.20806e-09
9.40064e-08
3.21889e-09
9.42333e-08
3.22996e-09
9.44595e-08
3.24096e-09
9.46845e-08
3.25133e-09
3.26056e-09
8.37336e-08
2.41936e-09
-8.35753e-08
8.38976e-08
2.49745e-09
8.40672e-08
2.57476e-09
8.4242e-08
2.65065e-09
8.44217e-08
2.7245e-09
8.46058e-08
2.79571e-09
8.4794e-08
2.86377e-09
8.49856e-08
2.92824e-09
8.51802e-08
2.98875e-09
8.53773e-08
3.04499e-09
8.55765e-08
3.09672e-09
8.57772e-08
3.14374e-09
8.59791e-08
3.18592e-09
8.61817e-08
3.22319e-09
8.63846e-08
3.25553e-09
8.65875e-08
3.28295e-09
8.679e-08
3.30552e-09
8.6992e-08
3.32337e-09
8.7193e-08
3.33664e-09
8.73929e-08
3.34555e-09
8.75916e-08
3.35031e-09
8.77889e-08
3.35121e-09
8.79846e-08
3.34853e-09
8.81789e-08
3.34259e-09
8.83715e-08