/*--------------------------------*- C++ -*----------------------------------*\
| =========                 |                                                 |
| \\      /  F ield         | OpenFOAM: The Open Source CFD Toolbox           |
|  \\    /   O peration     | Version:  2.3.0                                 |
|   \\  /    A nd           | Web:      www.OpenFOAM.org                      |
|    \\/     M anipulation  |                                                 |
\*---------------------------------------------------------------------------*/
FoamFile
{
    version     2.0;
    format      ascii;
    class       volVectorField;
    location    "0.05";
    object      U_0;
}
// * * * * * * * * * * * * * * * * * * * * * * * * * * * * * * * * * * * * * //

dimensions      [0 1 -1 0 0 0 0];

internalField   nonuniform List<vector> 
3375
(
(0.17146 0.00586227 0)
(0.155131 0.00596306 0)
(0.139451 0.00555409 0)
(0.124602 0.00495735 0)
(0.111012 0.00429439 0)
(0.0988637 0.0036197 0)
(0.088171 0.00297105 0)
(0.0789017 0.00237485 0)
(0.0710017 0.00184717 0)
(0.0643882 0.00139588 0)
(0.0589521 0.00102201 0)
(0.0545693 0.000720927 0)
(0.0511153 0.000484291 0)
(0.0484747 0.000302504 0)
(0.0465437 0.000165997 0)
(0.0452279 6.30315e-05 0)
(0.0444506 -2.27363e-05 0)
(0.0441879 -8.66142e-05 0)
(0.0443082 -0.000108847 0)
(0.0445607 -8.919e-05 0)
(0.0448598 -6.17603e-05 0)
(0.0451432 -3.97484e-05 0)
(0.0453827 -2.4976e-05 0)
(0.0455731 -1.59675e-05 0)
(0.0457187 -1.06935e-05 0)
(0.0458273 -7.63024e-06 0)
(0.0459067 -5.82889e-06 0)
(0.0459639 -4.67852e-06 0)
(0.0460048 -3.8542e-06 0)
(0.0460339 -3.211e-06 0)
(0.0460547 -2.69083e-06 0)
(0.0460697 -2.27223e-06 0)
(0.0460806 -1.94255e-06 0)
(0.0460887 -1.68782e-06 0)
(0.0460949 -1.4912e-06 0)
(0.0460996 -1.33563e-06 0)
(0.0461034 -1.21008e-06 0)
(0.0461064 -1.10195e-06 0)
(0.0461088 -1.01108e-06 0)
(0.0461108 -9.28087e-07 0)
(0.0461125 -8.51265e-07 0)
(0.046114 -7.84642e-07 0)
(0.0461153 -7.22252e-07 0)
(0.0461164 -6.61701e-07 0)
(0.0461174 -6.08932e-07 0)
(0.0461183 -5.63121e-07 0)
(0.046119 -5.19336e-07 0)
(0.0461197 -4.7899e-07 0)
(0.0461204 -4.41886e-07 0)
(0.0461209 -4.07609e-07 0)
(0.0461215 -3.75559e-07 0)
(0.0461219 -3.46413e-07 0)
(0.0461224 -3.19841e-07 0)
(0.0461228 -2.95479e-07 0)
(0.0461232 -2.73081e-07 0)
(0.0461235 -2.5246e-07 0)
(0.0461239 -2.33462e-07 0)
(0.0461242 -2.15957e-07 0)
(0.0461245 -1.99787e-07 0)
(0.0461248 -1.84514e-07 0)
(0.046125 -1.70317e-07 0)
(0.0461253 -1.5718e-07 0)
(0.0461255 -1.45015e-07 0)
(0.0461257 -1.33712e-07 0)
(0.0461259 -1.23043e-07 0)
(0.0461261 -1.12992e-07 0)
(0.0461263 -1.03805e-07 0)
(0.0461265 -9.53967e-08 0)
(0.0461267 -8.76565e-08 0)
(0.0461268 -8.05234e-08 0)
(0.046127 -7.39362e-08 0)
(0.0461271 -6.78545e-08 0)
(0.0461272 -6.22336e-08 0)
(0.0461273 -5.7044e-08 0)
(0.0461274 -5.22444e-08 0)
(0.0461276 -4.78142e-08 0)
(0.0461276 -4.37137e-08 0)
(0.0461277 -3.99202e-08 0)
(0.0461278 -3.64063e-08 0)
(0.0461279 -3.31107e-08 0)
(0.046128 -3.00464e-08 0)
(0.046128 -2.72237e-08 0)
(0.0461281 -2.4635e-08 0)
(0.0461281 -2.22447e-08 0)
(0.0461282 -2.00265e-08 0)
(0.0461282 -1.79623e-08 0)
(0.0461283 -1.60472e-08 0)
(0.0461283 -1.42759e-08 0)
(0.0461283 -1.26305e-08 0)
(0.0461283 -1.11166e-08 0)
(0.0461284 -9.68054e-09 0)
(0.0461284 -8.33873e-09 0)
(0.0461284 -7.05515e-09 0)
(0.0461284 -5.78827e-09 0)
(0.0461284 -4.5173e-09 0)
(0.0461284 -3.22897e-09 0)
(0.0461284 -1.85905e-09 0)
(0.0461283 -2.54613e-10 0)
(0.0461283 1.48645e-09 0)
(0.0461282 1.70167e-08 0)
(0.190446 0.00931229 0)
(0.188324 0.00983929 0)
(0.184639 0.00960491 0)
(0.179742 0.00908641 0)
(0.174144 0.00842756 0)
(0.168209 0.00767503 0)
(0.162169 0.00686691 0)
(0.156206 0.00603823 0)
(0.15047 0.00521788 0)
(0.145083 0.00442861 0)
(0.140141 0.00368666 0)
(0.13572 0.00300111 0)
(0.131882 0.0023748 0)
(0.128674 0.00180762 0)
(0.12612 0.00129995 0)
(0.12422 0.000852735 0)
(0.122946 0.000465049 0)
(0.122173 0.000145659 0)
(0.121805 -7.93298e-05 0)
(0.121819 -0.000192705 0)
(0.122059 -0.00022247 0)
(0.122406 -0.000206976 0)
(0.122777 -0.000172607 0)
(0.123121 -0.000134436 0)
(0.123415 -9.98167e-05 0)
(0.123652 -7.15289e-05 0)
(0.123833 -4.99428e-05 0)
(0.123967 -3.42486e-05 0)
(0.124062 -2.32436e-05 0)
(0.124126 -1.57379e-05 0)
(0.124169 -1.072e-05 0)
(0.124195 -7.40395e-06 0)
(0.124209 -5.21752e-06 0)
(0.124216 -3.7617e-06 0)
(0.124218 -2.76861e-06 0)
(0.124216 -2.04114e-06 0)
(0.124212 -1.47396e-06 0)
(0.124206 -1.04332e-06 0)
(0.1242 -7.35933e-07 0)
(0.124192 -5.20076e-07 0)
(0.124185 -3.6637e-07 0)
(0.124178 -2.56178e-07 0)
(0.12417 -1.74322e-07 0)
(0.124164 -1.10971e-07 0)
(0.124157 -6.41838e-08 0)
(0.124151 -3.12895e-08 0)
(0.124145 -6.98529e-09 0)
(0.124139 1.02708e-08 0)
(0.124134 2.1872e-08 0)
(0.124129 2.91182e-08 0)
(0.124125 3.32716e-08 0)
(0.12412 3.46658e-08 0)
(0.124116 3.39517e-08 0)
(0.124113 3.17873e-08 0)
(0.124109 2.86719e-08 0)
(0.124106 2.49704e-08 0)
(0.124103 2.09568e-08 0)
(0.1241 1.68292e-08 0)
(0.124098 1.27645e-08 0)
(0.124095 9.08748e-09 0)
(0.124093 5.72966e-09 0)
(0.124091 2.65117e-09 0)
(0.124089 -1.19832e-10 0)
(0.124087 -2.54093e-09 0)
(0.124086 -4.49549e-09 0)
(0.124084 -6.01269e-09 0)
(0.124083 -7.31244e-09 0)
(0.124082 -8.43263e-09 0)
(0.124081 -9.34781e-09 0)
(0.12408 -1.0058e-08 0)
(0.124079 -1.05684e-08 0)
(0.124078 -1.08906e-08 0)
(0.124077 -1.10416e-08 0)
(0.124076 -1.10393e-08 0)
(0.124076 -1.08917e-08 0)
(0.124075 -1.06265e-08 0)
(0.124075 -1.02403e-08 0)
(0.124074 -9.75855e-09 0)
(0.124074 -9.18151e-09 0)
(0.124073 -8.49529e-09 0)
(0.124073 -7.73107e-09 0)
(0.124072 -6.90403e-09 0)
(0.124072 -6.05547e-09 0)
(0.124072 -5.15816e-09 0)
(0.124072 -4.22371e-09 0)
(0.124071 -3.2389e-09 0)
(0.124071 -2.20995e-09 0)
(0.124071 -1.14888e-09 0)
(0.124071 -4.22583e-11 0)
(0.124071 1.09544e-09 0)
(0.12407 2.30409e-09 0)
(0.12407 3.58273e-09 0)
(0.12407 4.96104e-09 0)
(0.12407 6.50237e-09 0)
(0.12407 8.25463e-09 0)
(0.12407 1.02972e-08 0)
(0.12407 1.28394e-08 0)
(0.124069 1.63931e-08 0)
(0.124069 2.28818e-08 0)
(0.124069 4.94759e-08 0)
(0.193431 0.00883249 0)
(0.194365 0.00978042 0)
(0.194696 0.0100861 0)
(0.194274 0.0100518 0)
(0.193218 0.00978043 0)
(0.191661 0.00930885 0)
(0.189707 0.00868003 0)
(0.187459 0.00794177 0)
(0.185027 0.00713677 0)
(0.182525 0.00629938 0)
(0.180059 0.00545479 0)
(0.177728 0.00461932 0)
(0.175618 0.00380297 0)
(0.1738 0.00301415 0)
(0.172321 0.00226413 0)
(0.171199 0.00156899 0)
(0.170419 0.00095222 0)
(0.169934 0.000441378 0)
(0.169648 5.92492e-05 0)
(0.169539 -0.000181989 0)
(0.169586 -0.000304971 0)
(0.169743 -0.00034448 0)
(0.169965 -0.00033256 0)
(0.170213 -0.000293337 0)
(0.170456 -0.00024311 0)
(0.170677 -0.000191965 0)
(0.170863 -0.00014549 0)
(0.171012 -0.000106242 0)
(0.171124 -7.48467e-05 0)
(0.171204 -5.08085e-05 0)
(0.171257 -3.30764e-05 0)
(0.171287 -2.04162e-05 0)
(0.171301 -1.16274e-05 0)
(0.171303 -5.63831e-06 0)
(0.171296 -1.56227e-06 0)
(0.171283 1.21048e-06 0)
(0.171266 3.02869e-06 0)
(0.171247 4.12891e-06 0)
(0.171228 4.71274e-06 0)
(0.171209 4.95279e-06 0)
(0.17119 4.97951e-06 0)
(0.171173 4.88039e-06 0)
(0.171156 4.70939e-06 0)
(0.171139 4.49866e-06 0)
(0.171124 4.26742e-06 0)
(0.17111 4.02706e-06 0)
(0.171096 3.78418e-06 0)
(0.171084 3.54358e-06 0)
(0.171072 3.30837e-06 0)
(0.171061 3.08063e-06 0)
(0.171051 2.86176e-06 0)
(0.171041 2.65289e-06 0)
(0.171033 2.45467e-06 0)
(0.171024 2.26742e-06 0)
(0.171017 2.09123e-06 0)
(0.171009 1.926e-06 0)
(0.171003 1.77152e-06 0)
(0.170997 1.62748e-06 0)
(0.170991 1.49348e-06 0)
(0.170986 1.36905e-06 0)
(0.170981 1.25371e-06 0)
(0.170977 1.14701e-06 0)
(0.170972 1.04846e-06 0)
(0.170969 9.57597e-07 0)
(0.170965 8.73898e-07 0)
(0.170962 7.96886e-07 0)
(0.170959 7.26143e-07 0)
(0.170956 6.61246e-07 0)
(0.170954 6.01775e-07 0)
(0.170951 5.47344e-07 0)
(0.170949 4.97566e-07 0)
(0.170947 4.52102e-07 0)
(0.170945 4.1061e-07 0)
(0.170944 3.72787e-07 0)
(0.170942 3.38347e-07 0)
(0.170941 3.07019e-07 0)
(0.17094 2.7856e-07 0)
(0.170938 2.52739e-07 0)
(0.170937 2.29332e-07 0)
(0.170936 2.08159e-07 0)
(0.170935 1.89007e-07 0)
(0.170935 1.71751e-07 0)
(0.170934 1.56199e-07 0)
(0.170933 1.42246e-07 0)
(0.170933 1.29744e-07 0)
(0.170932 1.18583e-07 0)
(0.170932 1.08665e-07 0)
(0.170931 9.98827e-08 0)
(0.170931 9.21664e-08 0)
(0.17093 8.54406e-08 0)
(0.17093 7.9644e-08 0)
(0.17093 7.4746e-08 0)
(0.170929 7.07061e-08 0)
(0.170929 6.75325e-08 0)
(0.170929 6.52635e-08 0)
(0.170928 6.40349e-08 0)
(0.170928 6.42004e-08 0)
(0.170928 6.67026e-08 0)
(0.170928 7.54534e-08 0)
(0.170927 1.00899e-07 0)
(0.194466 0.00811501 0)
(0.195728 0.0091389 0)
(0.196919 0.00965182 0)
(0.197822 0.00983535 0)
(0.198421 0.00977336 0)
(0.19873 0.0094966 0)
(0.198759 0.00903778 0)
(0.198524 0.0084362 0)
(0.198064 0.00772912 0)
(0.197433 0.00694775 0)
(0.196691 0.00611657 0)
(0.1959 0.00525421 0)
(0.195116 0.00437642 0)
(0.194386 0.00350058 0)
(0.19374 0.00264945 0)
(0.193193 0.00185241 0)
(0.192745 0.00114532 0)
(0.192385 0.000565185 0)
(0.192096 0.000132986 0)
(0.191861 -0.000149454 0)
(0.191703 -0.000309861 0)
(0.19162 -0.000379472 0)
(0.191597 -0.00038787 0)
(0.191617 -0.000359107 0)
(0.191662 -0.000310893 0)
(0.191719 -0.000255421 0)
(0.191777 -0.000200512 0)
(0.191826 -0.000150714 0)
(0.191864 -0.000108232 0)
(0.191888 -7.3693e-05 0)
(0.191899 -4.67405e-05 0)
(0.191898 -2.64739e-05 0)
(0.191887 -1.17271e-05 0)
(0.191867 -1.292e-06 0)
(0.191842 5.87381e-06 0)
(0.191814 1.05351e-05 0)
(0.191785 1.32854e-05 0)
(0.191755 1.46651e-05 0)
(0.191725 1.51323e-05 0)
(0.191697 1.50287e-05 0)
(0.191669 1.4589e-05 0)
(0.191643 1.39639e-05 0)
(0.191618 1.3245e-05 0)
(0.191595 1.2487e-05 0)
(0.191573 1.1722e-05 0)
(0.191553 1.09681e-05 0)
(0.191534 1.02359e-05 0)
(0.191516 9.53196e-06 0)
(0.191499 8.85988e-06 0)
(0.191484 8.22155e-06 0)
(0.191469 7.61782e-06 0)
(0.191456 7.04889e-06 0)
(0.191443 6.51434e-06 0)
(0.191432 6.01339e-06 0)
(0.191421 5.54498e-06 0)
(0.191411 5.1079e-06 0)
(0.191401 4.70078e-06 0)
(0.191393 4.32221e-06 0)
(0.191385 3.97069e-06 0)
(0.191377 3.64473e-06 0)
(0.191371 3.34286e-06 0)
(0.191364 3.06365e-06 0)
(0.191358 2.80567e-06 0)
(0.191353 2.56757e-06 0)
(0.191348 2.34803e-06 0)
(0.191344 2.14579e-06 0)
(0.191339 1.9597e-06 0)
(0.191335 1.7886e-06 0)
(0.191332 1.63143e-06 0)
(0.191329 1.48718e-06 0)
(0.191326 1.35489e-06 0)
(0.191323 1.23369e-06 0)
(0.19132 1.12273e-06 0)
(0.191318 1.02123e-06 0)
(0.191316 9.28474e-07 0)
(0.191314 8.43779e-07 0)
(0.191312 7.66517e-07 0)
(0.19131 6.96109e-07 0)
(0.191309 6.31992e-07 0)
(0.191308 5.7369e-07 0)
(0.191306 5.20698e-07 0)
(0.191305 4.72632e-07 0)
(0.191304 4.29054e-07 0)
(0.191303 3.8963e-07 0)
(0.191302 3.54011e-07 0)
(0.191302 3.21891e-07 0)
(0.191301 2.93001e-07 0)
(0.1913 2.67071e-07 0)
(0.1913 2.4388e-07 0)
(0.191299 2.23224e-07 0)
(0.191298 2.04916e-07 0)
(0.191298 1.88822e-07 0)
(0.191298 1.74809e-07 0)
(0.191297 1.62805e-07 0)
(0.191297 1.52801e-07 0)
(0.191297 1.44909e-07 0)
(0.191296 1.39538e-07 0)
(0.191296 1.37841e-07 0)
(0.191296 1.43531e-07 0)
(0.191295 1.61166e-07 0)
(0.195195 0.00754304 0)
(0.196302 0.00848845 0)
(0.1975 0.00902751 0)
(0.198621 0.0092713 0)
(0.199621 0.0092918 0)
(0.20049 0.00911725 0)
(0.201209 0.00877038 0)
(0.201761 0.00827903 0)
(0.202144 0.00767139 0)
(0.202372 0.00697246 0)
(0.202464 0.00620354 0)
(0.202444 0.00538334 0)
(0.202333 0.00453052 0)
(0.202151 0.00366717 0)
(0.20191 0.00282116 0)
(0.20162 0.0020262 0)
(0.20129 0.0013196 0)
(0.200933 0.000736781 0)
(0.200572 0.000298277 0)
(0.200222 -5.69309e-06 0)
(0.199908 -0.000193727 0)
(0.199643 -0.000292227 0)
(0.19943 -0.000326795 0)
(0.199264 -0.000319114 0)
(0.199137 -0.000286232 0)
(0.199039 -0.00024073 0)
(0.198964 -0.000191366 0)
(0.198904 -0.0001438 0)
(0.198852 -0.000101319 0)
(0.198807 -6.54743e-05 0)
(0.198764 -3.66185e-05 0)
(0.198721 -1.43396e-05 0)
(0.198679 2.192e-06 0)
(0.198637 1.39241e-05 0)
(0.198595 2.17426e-05 0)
(0.198554 2.64776e-05 0)
(0.198515 2.89278e-05 0)
(0.198477 2.97852e-05 0)
(0.19844 2.95948e-05 0)
(0.198406 2.87536e-05 0)
(0.198373 2.75351e-05 0)
(0.198342 2.61183e-05 0)
(0.198312 2.46153e-05 0)
(0.198285 2.30943e-05 0)
(0.198259 2.15962e-05 0)
(0.198235 2.01442e-05 0)
(0.198213 1.87514e-05 0)
(0.198192 1.74252e-05 0)
(0.198172 1.61689e-05 0)
(0.198154 1.49834e-05 0)
(0.198137 1.38682e-05 0)
(0.198121 1.2822e-05 0)
(0.198106 1.18426e-05 0)
(0.198092 1.09275e-05 0)
(0.19808 1.00739e-05 0)
(0.198068 9.27901e-06 0)
(0.198057 8.53976e-06 0)
(0.198047 7.85313e-06 0)
(0.198038 7.21615e-06 0)
(0.198029 6.62585e-06 0)
(0.198021 6.0794e-06 0)
(0.198013 5.57405e-06 0)
(0.198007 5.10713e-06 0)
(0.198 4.67613e-06 0)
(0.197994 4.27862e-06 0)
(0.197989 3.91231e-06 0)
(0.197984 3.57504e-06 0)
(0.19798 3.26478e-06 0)
(0.197975 2.97956e-06 0)
(0.197972 2.7176e-06 0)
(0.197968 2.47717e-06 0)
(0.197965 2.25669e-06 0)
(0.197962 2.05464e-06 0)
(0.197959 1.86964e-06 0)
(0.197957 1.70038e-06 0)
(0.197954 1.54566e-06 0)
(0.197952 1.40434e-06 0)
(0.19795 1.27538e-06 0)
(0.197949 1.15779e-06 0)
(0.197947 1.05069e-06 0)
(0.197945 9.53201e-07 0)
(0.197944 8.64595e-07 0)
(0.197943 7.84121e-07 0)
(0.197942 7.11144e-07 0)
(0.197941 6.4505e-07 0)
(0.19794 5.85279e-07 0)
(0.197939 5.3133e-07 0)
(0.197938 4.82723e-07 0)
(0.197938 4.3904e-07 0)
(0.197937 3.99901e-07 0)
(0.197936 3.64957e-07 0)
(0.197936 3.33928e-07 0)
(0.197935 3.0655e-07 0)
(0.197935 2.82639e-07 0)
(0.197934 2.6209e-07 0)
(0.197934 2.44943e-07 0)
(0.197934 2.31548e-07 0)
(0.197933 2.22931e-07 0)
(0.197933 2.21686e-07 0)
(0.197933 2.28598e-07 0)
(0.195812 0.00704488 0)
(0.196735 0.00787539 0)
(0.197785 0.00839197 0)
(0.198839 0.008653 0)
(0.199849 0.00871216 0)
(0.200795 0.00859463 0)
(0.201658 0.00831823 0)
(0.202416 0.00790412 0)
(0.203055 0.00737492 0)
(0.203571 0.00675172 0)
(0.203962 0.00605356 0)
(0.204232 0.00529858 0)
(0.204383 0.00450611 0)
(0.204418 0.00369904 0)
(0.20434 0.0029053 0)
(0.204156 0.00215716 0)
(0.203878 0.00148839 0)
(0.203529 0.000928969 0)
(0.203141 0.0004963 0)
(0.202747 0.000185513 0)
(0.20237 -1.94818e-05 0)
(0.202029 -0.00014015 0)
(0.20173 -0.000198144 0)
(0.201476 -0.000212592 0)
(0.201263 -0.00019916 0)
(0.201086 -0.000169888 0)
(0.20094 -0.000133527 0)
(0.200819 -9.60315e-05 0)
(0.200718 -6.11254e-05 0)
(0.200632 -3.08443e-05 0)
(0.200556 -6.0171e-06 0)
(0.20049 1.33287e-05 0)
(0.200429 2.76203e-05 0)
(0.200374 3.7496e-05 0)
(0.200323 4.37061e-05 0)
(0.200275 4.70433e-05 0)
(0.20023 4.82508e-05 0)
(0.200188 4.79616e-05 0)
(0.200148 4.66812e-05 0)
(0.20011 4.4788e-05 0)
(0.200075 4.25501e-05 0)
(0.200041 4.01477e-05 0)
(0.20001 3.76973e-05 0)
(0.199981 3.52713e-05 0)
(0.199953 3.29134e-05 0)
(0.199927 3.06488e-05 0)
(0.199903 2.8491e-05 0)
(0.199881 2.64466e-05 0)
(0.19986 2.45177e-05 0)
(0.19984 2.27035e-05 0)
(0.199822 2.10017e-05 0)
(0.199805 1.94087e-05 0)
(0.19979 1.79201e-05 0)
(0.199775 1.65315e-05 0)
(0.199762 1.5238e-05 0)
(0.199749 1.40345e-05 0)
(0.199737 1.29162e-05 0)
(0.199727 1.18782e-05 0)
(0.199717 1.09157e-05 0)
(0.199707 1.0024e-05 0)
(0.199699 9.19878e-06 0)
(0.199691 8.43569e-06 0)
(0.199684 7.73066e-06 0)
(0.199677 7.07984e-06 0)
(0.199671 6.47952e-06 0)
(0.199665 5.92624e-06 0)
(0.19966 5.41671e-06 0)
(0.199655 4.94785e-06 0)
(0.199651 4.51671e-06 0)
(0.199647 4.12058e-06 0)
(0.199643 3.75688e-06 0)
(0.199639 3.4232e-06 0)
(0.199636 3.1173e-06 0)
(0.199633 2.83707e-06 0)
(0.199631 2.58057e-06 0)
(0.199628 2.34597e-06 0)
(0.199626 2.13157e-06 0)
(0.199624 1.93581e-06 0)
(0.199622 1.75719e-06 0)
(0.19962 1.59438e-06 0)
(0.199619 1.44609e-06 0)
(0.199617 1.31119e-06 0)
(0.199616 1.18857e-06 0)
(0.199615 1.07726e-06 0)
(0.199614 9.76331e-07 0)
(0.199613 8.84944e-07 0)
(0.199612 8.02332e-07 0)
(0.199611 7.27772e-07 0)
(0.19961 6.60625e-07 0)
(0.19961 6.00306e-07 0)
(0.199609 5.46283e-07 0)
(0.199608 4.98102e-07 0)
(0.199608 4.5535e-07 0)
(0.199608 4.17706e-07 0)
(0.199607 3.84943e-07 0)
(0.199607 3.56983e-07 0)
(0.199606 3.34041e-07 0)
(0.199606 3.16829e-07 0)
(0.199606 3.068e-07 0)
(0.199605 3.02588e-07 0)
(0.196348 0.00661253 0)
(0.197121 0.00733092 0)
(0.198023 0.00780948 0)
(0.19896 0.00807045 0)
(0.199885 0.00814885 0)
(0.200776 0.008066 0)
(0.201611 0.00783731 0)
(0.202371 0.00748022 0)
(0.20304 0.00701386 0)
(0.203608 0.00645684 0)
(0.204067 0.00582672 0)
(0.204413 0.00514091 0)
(0.20464 0.00441827 0)
(0.204747 0.00368074 0)
(0.204731 0.00295409 0)
(0.2046 0.00226703 0)
(0.204366 0.00164845 0)
(0.204051 0.00112305 0)
(0.203687 0.000705237 0)
(0.203306 0.000393842 0)
(0.202933 0.000176764 0)
(0.202585 3.69829e-05 0)
(0.202271 -4.3322e-05 0)
(0.201997 -8.0419e-05 0)
(0.20176 -8.81309e-05 0)
(0.20156 -7.75493e-05 0)
(0.20139 -5.7021e-05 0)
(0.201248 -3.24956e-05 0)
(0.201128 -7.94123e-06 0)
(0.201026 1.42418e-05 0)
(0.200938 3.28122e-05 0)
(0.200861 4.73237e-05 0)
(0.200794 5.78419e-05 0)
(0.200733 6.47511e-05 0)
(0.200677 6.86055e-05 0)
(0.200626 7.00209e-05 0)
(0.200579 6.95975e-05 0)
(0.200535 6.7869e-05 0)
(0.200493 6.52762e-05 0)
(0.200454 6.21588e-05 0)
(0.200418 5.87642e-05 0)
(0.200384 5.52635e-05 0)
(0.200351 5.17699e-05 0)
(0.200321 4.83554e-05 0)
(0.200293 4.50635e-05 0)
(0.200267 4.19192e-05 0)
(0.200243 3.89352e-05 0)
(0.20022 3.61166e-05 0)
(0.200198 3.34637e-05 0)
(0.200179 3.09736e-05 0)
(0.20016 2.86415e-05 0)
(0.200143 2.64614e-05 0)
(0.200127 2.44267e-05 0)
(0.200112 2.25303e-05 0)
(0.200098 2.07651e-05 0)
(0.200086 1.91239e-05 0)
(0.200074 1.75995e-05 0)
(0.200063 1.61852e-05 0)
(0.200053 1.4874e-05 0)
(0.200043 1.36598e-05 0)
(0.200035 1.25361e-05 0)
(0.200027 1.14972e-05 0)
(0.200019 1.05373e-05 0)
(0.200012 9.65127e-06 0)
(0.200006 8.83397e-06 0)
(0.2 8.08065e-06 0)
(0.199995 7.38682e-06 0)
(0.19999 6.74828e-06 0)
(0.199986 6.16103e-06 0)
(0.199981 5.62137e-06 0)
(0.199978 5.12578e-06 0)
(0.199974 4.67101e-06 0)
(0.199971 4.25401e-06 0)
(0.199968 3.87191e-06 0)
(0.199965 3.52207e-06 0)
(0.199963 3.20201e-06 0)
(0.19996 2.90943e-06 0)
(0.199958 2.64218e-06 0)
(0.199956 2.39827e-06 0)
(0.199955 2.17586e-06 0)
(0.199953 1.97321e-06 0)
(0.199952 1.78877e-06 0)
(0.19995 1.62104e-06 0)
(0.199949 1.4687e-06 0)
(0.199948 1.33049e-06 0)
(0.199947 1.20526e-06 0)
(0.199946 1.09196e-06 0)
(0.199945 9.89615e-07 0)
(0.199945 8.97339e-07 0)
(0.199944 8.14332e-07 0)
(0.199943 7.39863e-07 0)
(0.199943 6.73294e-07 0)
(0.199942 6.1405e-07 0)
(0.199942 5.61655e-07 0)
(0.199941 5.15745e-07 0)
(0.199941 4.76104e-07 0)
(0.19994 4.42764e-07 0)
(0.19994 4.16085e-07 0)
(0.19994 3.96623e-07 0)
(0.199939 3.81947e-07 0)
(0.196815 0.00623379 0)
(0.197473 0.00685008 0)
(0.198246 0.00728246 0)
(0.199068 0.00753239 0)
(0.199897 0.00761976 0)
(0.200704 0.00756112 0)
(0.201471 0.00736971 0)
(0.202179 0.00706003 0)
(0.202812 0.00664836 0)
(0.203358 0.00615125 0)
(0.203809 0.00558496 0)
(0.204157 0.00496604 0)
(0.204396 0.00431242 0)
(0.204522 0.00364441 0)
(0.204534 0.00298507 0)
(0.204438 0.00235922 0)
(0.204245 0.00179121 0)
(0.203976 0.00130139 0)
(0.203657 0.000901965 0)
(0.203315 0.000593818 0)
(0.202973 0.000368823 0)
(0.202648 0.000213907 0)
(0.20235 0.000114752 0)
(0.202084 5.76042e-05 0)
(0.201851 3.03715e-05 0)
(0.20165 2.30481e-05 0)
(0.201479 2.78383e-05 0)
(0.201332 3.89728e-05 0)
(0.201207 5.24262e-05 0)
(0.201101 6.55835e-05 0)
(0.201009 7.69104e-05 0)
(0.200928 8.56571e-05 0)
(0.200857 9.16109e-05 0)
(0.200794 9.49017e-05 0)
(0.200737 9.58588e-05 0)
(0.200684 9.49102e-05 0)
(0.200636 9.25073e-05 0)
(0.200591 8.90714e-05 0)
(0.200549 8.49622e-05 0)
(0.200509 8.04656e-05 0)
(0.200473 7.57955e-05 0)
(0.200438 7.11035e-05 0)
(0.200406 6.64923e-05 0)
(0.200376 6.20276e-05 0)
(0.200347 5.77493e-05 0)
(0.200321 5.36797e-05 0)
(0.200297 4.98291e-05 0)
(0.200274 4.62e-05 0)
(0.200252 4.279e-05 0)
(0.200233 3.95937e-05 0)
(0.200214 3.66036e-05 0)
(0.200197 3.38109e-05 0)
(0.200181 3.12064e-05 0)
(0.200166 2.87805e-05 0)
(0.200152 2.65236e-05 0)
(0.20014 2.4426e-05 0)
(0.200128 2.24784e-05 0)
(0.200117 2.06719e-05 0)
(0.200107 1.89976e-05 0)
(0.200097 1.74471e-05 0)
(0.200089 1.60125e-05 0)
(0.200081 1.46862e-05 0)
(0.200073 1.3461e-05 0)
(0.200066 1.23299e-05 0)
(0.20006 1.12865e-05 0)
(0.200054 1.03249e-05 0)
(0.200049 9.43906e-06 0)
(0.200044 8.62378e-06 0)
(0.20004 7.87392e-06 0)
(0.200035 7.18475e-06 0)
(0.200032 6.55179e-06 0)
(0.200028 5.9709e-06 0)
(0.200025 5.43816e-06 0)
(0.200022 4.94995e-06 0)
(0.200019 4.50288e-06 0)
(0.200017 4.0938e-06 0)
(0.200014 3.71977e-06 0)
(0.200012 3.37807e-06 0)
(0.20001 3.06613e-06 0)
(0.200009 2.78163e-06 0)
(0.200007 2.52235e-06 0)
(0.200006 2.28629e-06 0)
(0.200004 2.07158e-06 0)
(0.200003 1.87649e-06 0)
(0.200002 1.69944e-06 0)
(0.200001 1.53894e-06 0)
(0.2 1.39367e-06 0)
(0.199999 1.26236e-06 0)
(0.199999 1.1439e-06 0)
(0.199998 1.03724e-06 0)
(0.199997 9.41458e-07 0)
(0.199997 8.55716e-07 0)
(0.199996 7.79269e-07 0)
(0.199996 7.11479e-07 0)
(0.199995 6.51833e-07 0)
(0.199995 5.99958e-07 0)
(0.199994 5.5569e-07 0)
(0.199994 5.19056e-07 0)
(0.199994 4.89968e-07 0)
(0.199993 4.65656e-07 0)
(0.197223 0.00589586 0)
(0.197789 0.00642186 0)
(0.198455 0.00680546 0)
(0.199175 0.00703794 0)
(0.19991 0.00712824 0)
(0.200635 0.0070878 0)
(0.20133 0.00692739 0)
(0.201975 0.00665896 0)
(0.202557 0.00629626 0)
(0.203064 0.00585391 0)
(0.203487 0.00534687 0)
(0.203817 0.00479062 0)
(0.204049 0.00420188 0)
(0.204179 0.00359918 0)
(0.204208 0.00300288 0)
(0.20414 0.00243432 0)
(0.203985 0.00191399 0)
(0.203761 0.00145884 0)
(0.203488 0.00107938 0)
(0.20319 0.000777689 0)
(0.202887 0.000548565 0)
(0.202594 0.000382316 0)
(0.20232 0.000267598 0)
(0.202072 0.000193039 0)
(0.201852 0.000148241 0)
(0.201658 0.00012436 0)
(0.201491 0.000114259 0)
(0.201346 0.000112469 0)
(0.201222 0.000115012 0)
(0.201114 0.00011915 0)
(0.201021 0.000123137 0)
(0.200939 0.000125971 0)
(0.200867 0.000127182 0)
(0.200802 0.000126662 0)
(0.200744 0.000124531 0)
(0.200691 0.000121042 0)
(0.200642 0.000116502 0)
(0.200596 0.000111222 0)
(0.200554 0.000105481 0)
(0.200514 9.95082e-05 0)
(0.200478 9.34826e-05 0)
(0.200443 8.75329e-05 0)
(0.200411 8.17478e-05 0)
(0.200381 7.61849e-05 0)
(0.200353 7.08784e-05 0)
(0.200327 6.58464e-05 0)
(0.200302 6.10958e-05 0)
(0.200279 5.6626e-05 0)
(0.200258 5.24316e-05 0)
(0.200238 4.8504e-05 0)
(0.20022 4.48327e-05 0)
(0.200203 4.14062e-05 0)
(0.200187 3.82123e-05 0)
(0.200172 3.52388e-05 0)
(0.200159 3.24734e-05 0)
(0.200146 2.9904e-05 0)
(0.200134 2.7519e-05 0)
(0.200123 2.53071e-05 0)
(0.200113 2.32575e-05 0)
(0.200104 2.13596e-05 0)
(0.200095 1.96038e-05 0)
(0.200087 1.79806e-05 0)
(0.20008 1.64811e-05 0)
(0.200073 1.50968e-05 0)
(0.200067 1.382e-05 0)
(0.200061 1.2643e-05 0)
(0.200056 1.15589e-05 0)
(0.200051 1.05611e-05 0)
(0.200046 9.64324e-06 0)
(0.200042 8.79963e-06 0)
(0.200038 8.02477e-06 0)
(0.200035 7.31358e-06 0)
(0.200032 6.6613e-06 0)
(0.200029 6.06348e-06 0)
(0.200026 5.51598e-06 0)
(0.200024 5.01496e-06 0)
(0.200021 4.5568e-06 0)
(0.200019 4.13818e-06 0)
(0.200017 3.75598e-06 0)
(0.200016 3.40734e-06 0)
(0.200014 3.08956e-06 0)
(0.200013 2.8002e-06 0)
(0.200011 2.53695e-06 0)
(0.20001 2.2977e-06 0)
(0.200009 2.08052e-06 0)
(0.200008 1.8836e-06 0)
(0.200007 1.70529e-06 0)
(0.200006 1.54407e-06 0)
(0.200006 1.39855e-06 0)
(0.200005 1.26746e-06 0)
(0.200004 1.14966e-06 0)
(0.200004 1.0441e-06 0)
(0.200003 9.49875e-07 0)
(0.200003 8.66165e-07 0)
(0.200002 7.92302e-07 0)
(0.200002 7.27748e-07 0)
(0.200002 6.72138e-07 0)
(0.200001 6.25202e-07 0)
(0.200001 5.86418e-07 0)
(0.200001 5.53098e-07 0)
(0.19758 0.00559013 0)
(0.198073 0.00603792 0)
(0.198649 0.00637393 0)
(0.199278 0.0065855 0)
(0.199929 0.00667435 0)
(0.200576 0.00664736 0)
(0.201201 0.00651276 0)
(0.201785 0.0062803 0)
(0.202316 0.00596151 0)
(0.202781 0.00556917 0)
(0.203171 0.00511679 0)
(0.20348 0.00461863 0)
(0.203701 0.00409002 0)
(0.203832 0.00354765 0)
(0.203873 0.00300941 0)
(0.203827 0.00249362 0)
(0.203706 0.00201759 0)
(0.203521 0.00159556 0)
(0.203292 0.0012367 0)
(0.203036 0.000943811 0)
(0.202771 0.000713842 0)
(0.20251 0.000539828 0)
(0.202262 0.000412931 0)
(0.202034 0.000323888 0)
(0.201828 0.000263916 0)
(0.201645 0.000225292 0)
(0.201484 0.000201584 0)
(0.201344 0.000187699 0)
(0.201222 0.000179793 0)
(0.201115 0.000175101 0)
(0.201022 0.000171743 0)
(0.20094 0.000168533 0)
(0.200867 0.000164799 0)
(0.200802 0.000160234 0)
(0.200742 0.000154779 0)
(0.200689 0.000148527 0)
(0.200639 0.000141652 0)
(0.200594 0.000134359 0)
(0.200551 0.000126846 0)
(0.200512 0.000119284 0)
(0.200475 0.000111812 0)
(0.200441 0.000104531 0)
(0.200409 9.75116e-05 0)
(0.200379 9.08004e-05 0)
(0.200351 8.44233e-05 0)
(0.200325 7.83923e-05 0)
(0.200301 7.27096e-05 0)
(0.200278 6.73704e-05 0)
(0.200257 6.23656e-05 0)
(0.200237 5.76831e-05 0)
(0.200219 5.33091e-05 0)
(0.200202 4.9229e-05 0)
(0.200186 4.54276e-05 0)
(0.200172 4.18897e-05 0)
(0.200158 3.86003e-05 0)
(0.200146 3.5545e-05 0)
(0.200134 3.27094e-05 0)
(0.200123 3.00799e-05 0)
(0.200113 2.76437e-05 0)
(0.200104 2.53881e-05 0)
(0.200095 2.33014e-05 0)
(0.200087 2.13724e-05 0)
(0.20008 1.95905e-05 0)
(0.200073 1.79456e-05 0)
(0.200067 1.64284e-05 0)
(0.200061 1.50298e-05 0)
(0.200056 1.37415e-05 0)
(0.200051 1.25556e-05 0)
(0.200047 1.14648e-05 0)
(0.200043 1.04622e-05 0)
(0.200039 9.54127e-06 0)
(0.200035 8.69594e-06 0)
(0.200032 7.92058e-06 0)
(0.200029 7.20991e-06 0)
(0.200027 6.55902e-06 0)
(0.200024 5.96333e-06 0)
(0.200022 5.41856e-06 0)
(0.20002 4.92076e-06 0)
(0.200018 4.46622e-06 0)
(0.200016 4.05154e-06 0)
(0.200015 3.67354e-06 0)
(0.200013 3.32929e-06 0)
(0.200012 3.01606e-06 0)
(0.200011 2.73136e-06 0)
(0.20001 2.47287e-06 0)
(0.200009 2.23844e-06 0)
(0.200008 2.02612e-06 0)
(0.200007 1.8341e-06 0)
(0.200006 1.66072e-06 0)
(0.200006 1.50448e-06 0)
(0.200005 1.36399e-06 0)
(0.200005 1.23803e-06 0)
(0.200004 1.12549e-06 0)
(0.200004 1.02537e-06 0)
(0.200003 9.36844e-07 0)
(0.200003 8.59205e-07 0)
(0.200002 7.91885e-07 0)
(0.200002 7.34362e-07 0)
(0.200002 6.8583e-07 0)
(0.200001 6.4387e-07 0)
(0.197893 0.00531083 0)
(0.198325 0.00569159 0)
(0.198826 0.00598319 0)
(0.199376 0.00617234 0)
(0.19995 0.00625652 0)
(0.200526 0.00623905 0)
(0.201085 0.00612583 0)
(0.201612 0.00592465 0)
(0.202093 0.0056451 0)
(0.202517 0.0052982 0)
(0.202876 0.00489595 0)
(0.203163 0.00445126 0)
(0.203373 0.00397798 0)
(0.203502 0.00349098 0)
(0.203552 0.00300592 0)
(0.203527 0.00253854 0)
(0.203434 0.0021035 0)
(0.203285 0.00171292 0)
(0.203093 0.00137488 0)
(0.202875 0.00109255 0)
(0.202645 0.000864456 0)
(0.202415 0.000685753 0)
(0.202192 0.000549705 0)
(0.201984 0.000448887 0)
(0.201794 0.000375999 0)
(0.201622 0.000324401 0)
(0.201469 0.000288396 0)
(0.201334 0.00026333 0)
(0.201215 0.000245566 0)
(0.20111 0.000232383 0)
(0.201018 0.000221837 0)
(0.200936 0.000212615 0)
(0.200863 0.000203887 0)
(0.200797 0.00019518 0)
(0.200738 0.000186277 0)
(0.200684 0.00017713 0)
(0.200635 0.000167791 0)
(0.200589 0.000158367 0)
(0.200547 0.000148977 0)
(0.200507 0.000139737 0)
(0.200471 0.000130742 0)
(0.200437 0.000122066 0)
(0.200405 0.000113759 0)
(0.200375 0.000105854 0)
(0.200347 9.83663e-05 0)
(0.200322 9.13016e-05 0)
(0.200298 8.46559e-05 0)
(0.200275 7.84197e-05 0)
(0.200254 7.25796e-05 0)
(0.200235 6.71195e-05 0)
(0.200217 6.20221e-05 0)
(0.2002 5.72693e-05 0)
(0.200184 5.28429e-05 0)
(0.20017 4.87245e-05 0)
(0.200157 4.48964e-05 0)
(0.200144 4.13413e-05 0)
(0.200133 3.80425e-05 0)
(0.200122 3.49839e-05 0)
(0.200112 3.21503e-05 0)
(0.200103 2.95271e-05 0)
(0.200094 2.71004e-05 0)
(0.200087 2.48572e-05 0)
(0.200079 2.27851e-05 0)
(0.200073 2.08724e-05 0)
(0.200067 1.91081e-05 0)
(0.200061 1.74818e-05 0)
(0.200056 1.59837e-05 0)
(0.200051 1.46047e-05 0)
(0.200046 1.33362e-05 0)
(0.200042 1.21703e-05 0)
(0.200039 1.10992e-05 0)
(0.200035 1.01161e-05 0)
(0.200032 9.21427e-06 0)
(0.200029 8.38767e-06 0)
(0.200027 7.63056e-06 0)
(0.200024 6.93761e-06 0)
(0.200022 6.30386e-06 0)
(0.20002 5.72471e-06 0)
(0.200018 5.19586e-06 0)
(0.200016 4.71335e-06 0)
(0.200015 4.27347e-06 0)
(0.200013 3.87283e-06 0)
(0.200012 3.50827e-06 0)
(0.200011 3.17686e-06 0)
(0.20001 2.87593e-06 0)
(0.200009 2.60297e-06 0)
(0.200008 2.35571e-06 0)
(0.200007 2.13205e-06 0)
(0.200006 1.93004e-06 0)
(0.200006 1.74795e-06 0)
(0.200005 1.58416e-06 0)
(0.200005 1.43723e-06 0)
(0.200004 1.30586e-06 0)
(0.200004 1.18887e-06 0)
(0.200003 1.08526e-06 0)
(0.200003 9.94156e-07 0)
(0.200002 9.14791e-07 0)
(0.200002 8.46429e-07 0)
(0.200002 7.88084e-07 0)
(0.200001 7.37656e-07 0)
(0.198168 0.00505399 0)
(0.198549 0.00537754 0)
(0.198987 0.00562883 0)
(0.199468 0.00579549 0)
(0.199973 0.0058729 0)
(0.200484 0.00586182 0)
(0.200983 0.00576621 0)
(0.201455 0.00559211 0)
(0.201889 0.0053474 0)
(0.202275 0.00504148 0)
(0.202604 0.00468487 0)
(0.202869 0.00428905 0)
(0.203067 0.00386637 0)
(0.203194 0.00342997 0)
(0.203252 0.00299348 0)
(0.203243 0.00257044 0)
(0.203174 0.00217335 0)
(0.203055 0.00181256 0)
(0.202897 0.00149524 0)
(0.202713 0.00122475 0)
(0.202514 0.00100073 0)
(0.202312 0.000819984 0)
(0.202114 0.000677502 0)
(0.201925 0.000567446 0)
(0.20175 0.000483843 0)
(0.20159 0.000421075 0)
(0.201446 0.00037417 0)
(0.201317 0.000338944 0)
(0.201202 0.000312021 0)
(0.2011 0.000290784 0)
(0.20101 0.000273287 0)
(0.200929 0.000258141 0)
(0.200856 0.000244404 0)
(0.200791 0.000231477 0)
(0.200732 0.000219013 0)
(0.200678 0.000206843 0)
(0.200628 0.000194913 0)
(0.200583 0.000183238 0)
(0.200541 0.000171866 0)
(0.200502 0.000160855 0)
(0.200465 0.00015026 0)
(0.200431 0.000140123 0)
(0.2004 0.000130474 0)
(0.200371 0.000121328 0)
(0.200343 0.000112691 0)
(0.200318 0.000104558 0)
(0.200294 9.69189e-05 0)
(0.200272 8.97588e-05 0)
(0.200251 8.30592e-05 0)
(0.200232 7.67997e-05 0)
(0.200214 7.09591e-05 0)
(0.200198 6.55156e-05 0)
(0.200182 6.04475e-05 0)
(0.200168 5.57333e-05 0)
(0.200155 5.13525e-05 0)
(0.200142 4.72847e-05 0)
(0.200131 4.35106e-05 0)
(0.20012 4.00119e-05 0)
(0.200111 3.67707e-05 0)
(0.200102 3.37705e-05 0)
(0.200093 3.09952e-05 0)
(0.200085 2.84298e-05 0)
(0.200078 2.60602e-05 0)
(0.200072 2.38729e-05 0)
(0.200066 2.18552e-05 0)
(0.20006 1.99954e-05 0)
(0.200055 1.82823e-05 0)
(0.20005 1.67053e-05 0)
(0.200046 1.52547e-05 0)
(0.200042 1.39212e-05 0)
(0.200038 1.26963e-05 0)
(0.200035 1.15719e-05 0)
(0.200032 1.05404e-05 0)