/*--------------------------------*- C++ -*----------------------------------*\
| =========                 |                                                 |
| \\      /  F ield         | OpenFOAM: The Open Source CFD Toolbox           |
|  \\    /   O peration     | Version:  2.3.0                                 |
|   \\  /    A nd           | Web:      www.OpenFOAM.org                      |
|    \\/     M anipulation  |                                                 |
\*---------------------------------------------------------------------------*/
FoamFile
{
    version     2.0;
    format      ascii;
    class       volScalarField;
    location    "0.55";
    object      p;
}
// * * * * * * * * * * * * * * * * * * * * * * * * * * * * * * * * * * * * * //

dimensions      [0 2 -2 0 0 0 0];

internalField   nonuniform List<scalar> 
217
(
0.000449009
0.000446997
0.000381921
0.000304847
0.000247862
0.000212394
0.0001851
0.000158777
0.000133109
0.00011472
0.000102318
8.37219e-05
5.94053e-05
3.97876e-05
5.58009e-06
-4.87876e-05
-9.56034e-05
-0.000136409
-0.000196003
-0.000246228
-0.000251937
-0.000241853
-0.000209719
-0.000145319
-5.55798e-05
0.000330457
0.000347988
0.000337093
0.000292513
0.000244371
0.000206539
0.000174837
0.000146975
0.000122135
0.000106413
9.59676e-05
7.69339e-05
5.39443e-05
3.71222e-05
3.19657e-06
-4.93696e-05
-9.25778e-05
-0.000130093
-0.000187834
-0.000236634
-0.00024113
-0.000232469
-0.000203071
-0.000139896
-5.28975e-05
0.000275662
0.000301384
0.000308574
0.000283673
0.000245945
0.000205914
0.000165523
0.000133371
0.000111668
9.63548e-05
8.45115e-05
6.85837e-05
4.81104e-05
3.14813e-05
8.92511e-07
-4.66024e-05
-8.48298e-05
-0.000116521
-0.00016631
-0.000208357
-0.000210675
-0.000203759
-0.000180266
-0.000123284
-4.55911e-05
0.000220659
0.000246258
0.00025831
0.000245103
0.00021984
0.00018726
0.000147958
0.000116081
9.47701e-05
7.78631e-05
6.90322e-05
5.77139e-05
3.6469e-05
2.35935e-05
1.84121e-06
-4.18784e-05
-7.69304e-05
-0.000100319
-0.000138303
-0.000174439
-0.000177525
-0.000170015
-0.000151316
-0.000104421
-3.80535e-05
0.000161131
0.00018821
0.000204536
0.000198253
0.000186165
0.000163135
0.000126904
9.74224e-05
7.81705e-05
6.24406e-05
5.54735e-05
4.5666e-05
2.68e-05
1.98197e-05
3.51807e-06
-3.62308e-05
-6.35146e-05
-7.7145e-05
-0.000106993
-0.000138746
-0.000140948
-0.000130436
-0.00011707
-8.34175e-05
-2.92158e-05
0.000104529
0.000128453
0.000146611
0.000144089
0.000139027
0.00012565
9.88625e-05
7.40366e-05
5.83091e-05
4.70336e-05
3.834e-05
3.10892e-05
2.10227e-05
1.44559e-05
1.20078e-06
-2.66953e-05
-4.57142e-05
-5.4421e-05
-7.50759e-05
-9.88977e-05
-0.000100423
-9.00875e-05
-8.16514e-05
-6.00819e-05
-2.08148e-05
2.85183e-05
4.2979e-05
5.80359e-05
5.6646e-05
5.70716e-05
5.43927e-05
4.23251e-05
3.16988e-05
2.40629e-05
1.8427e-05
1.43402e-05
1.35439e-05
9.34761e-06
5.70441e-07
-8.76965e-07
-3.89662e-06
-1.85054e-05
-2.64844e-05
-2.77759e-05
-3.66593e-05
-3.9205e-05
-3.35176e-05
-3.0511e-05
-2.30518e-05
-7.71881e-06
9.08654e-05
0.000129331
0.000182022
0.000244063
0.000307547
0.000370138
0.000100908
0.000127641
0.00016955
0.000218342
0.000264335
0.000299735
0.000100892
0.000122505
0.000153734
0.000190114
0.000224873
0.000250822
9.83516e-05
0.000115587
0.000135135
0.000158906
0.000182709
0.000200083
8.94401e-05
0.000101599
0.000111738
0.000124306
0.00013991
0.000147693
7.21764e-05
8.02463e-05
8.34851e-05
8.57066e-05
9.39205e-05
9.74747e-05
3.37583e-05
3.63564e-05
3.48335e-05
3.12817e-05
3.30995e-05
3.118e-05
)
;

boundaryField
{
    top
    {
        type            fixedValue;
        value           uniform 0;
    }
    inlet
    {
        type            zeroGradient;
    }
    outlet
    {
        type            fixedValue;
        value           uniform 0;
    }
    plate
    {
        type            zeroGradient;
    }
    symmBound
    {
        type            zeroGradient;
    }
    frontAndBack
    {
        type            empty;
    }
}


// ************************************************************************* //
