/*--------------------------------*- C++ -*----------------------------------*\
| =========                 |                                                 |
| \\      /  F ield         | OpenFOAM: The Open Source CFD Toolbox           |
|  \\    /   O peration     | Version:  2.3.0                                 |
|   \\  /    A nd           | Web:      www.OpenFOAM.org                      |
|    \\/     M anipulation  |                                                 |
\*---------------------------------------------------------------------------*/
FoamFile
{
    version     2.0;
    format      ascii;
    class       surfaceScalarField;
    location    "0.55";
    object      phi_0;
}
// * * * * * * * * * * * * * * * * * * * * * * * * * * * * * * * * * * * * * //

dimensions      [0 3 -1 0 0 0 0];

internalField   nonuniform List<scalar> 
396
(
1.32257e-07
2.84764e-09
-1.35105e-07
1.28406e-07
3.85078e-09
1.2416e-07
4.24608e-09
1.19754e-07
4.40616e-09
1.1539e-07
4.36379e-09
1.11062e-07
4.32871e-09
1.06491e-07
4.57082e-09
1.01581e-07
4.90967e-09
9.65477e-08
5.0333e-09
9.14492e-08
5.09857e-09
8.62304e-08
5.21883e-09
8.08521e-08
5.37828e-09
7.5381e-08
5.47102e-09
6.99312e-08
5.44987e-09
6.44239e-08
5.50728e-09
5.90129e-08
5.41096e-09
5.39101e-08
5.10285e-09
4.91548e-08
4.75527e-09
4.48108e-08
4.34401e-09
4.13117e-08
3.49907e-09
3.86877e-08
2.62408e-09
3.67711e-08
1.91652e-09
3.55859e-08
1.18523e-09
3.49919e-08
5.94022e-10
1.07196e-10
1.61851e-07
2.68248e-09
-1.61686e-07
1.6203e-07
3.67187e-09
1.61967e-07
4.30942e-09
1.61669e-07
4.70406e-09
1.61109e-07
4.92357e-09
1.6038e-07
5.05734e-09
1.59623e-07
5.32781e-09
1.58725e-07
5.80849e-09
1.57495e-07
6.26348e-09
1.55953e-07
6.63976e-09
1.54272e-07
6.90025e-09
1.52393e-07
7.25678e-09
1.50334e-07
7.53012e-09
1.47989e-07
7.79466e-09
1.45431e-07
8.06546e-09
1.42682e-07
8.16025e-09
1.39873e-07
7.91215e-09
1.36877e-07
7.75114e-09
1.33803e-07
7.41756e-09
1.30906e-07
6.39649e-09
1.28233e-07
5.29726e-09
1.2565e-07
4.49924e-09
1.23615e-07
3.2204e-09
1.21589e-07
2.61949e-09
1.60617e-09
1.92683e-07
2.57236e-09
-1.92573e-07
1.92963e-07
3.39185e-09
1.93248e-07
4.02506e-09
1.93537e-07
4.41457e-09
1.93679e-07
4.7822e-09
1.93586e-07
5.15014e-09
1.93508e-07
5.40505e-09
1.93554e-07
5.76252e-09
1.9357e-07
6.24802e-09
1.93404e-07
6.80613e-09
1.93197e-07
7.10687e-09
1.92947e-07
7.50714e-09
1.92719e-07
7.75813e-09
1.92335e-07
8.17801e-09
1.91914e-07
8.48691e-09
1.91385e-07
8.68923e-09
1.90774e-07
8.52308e-09
1.90048e-07
8.47659e-09
1.89243e-07
8.22253e-09
1.88273e-07
7.36708e-09
1.87259e-07
6.31068e-09
1.86175e-07
5.58386e-09
1.85298e-07
4.09761e-09
1.84306e-07
3.6114e-09
2.56176e-09
2.29433e-07
2.4597e-09
-2.2932e-07
2.29732e-07
3.09289e-09
2.30058e-07
3.69856e-09
2.30332e-07
4.14062e-09
2.30537e-07
4.5774e-09
2.30585e-07
5.10258e-09
2.30541e-07
5.44911e-09
2.3057e-07
5.73345e-09
2.30705e-07
6.11244e-09
2.30821e-07
6.69002e-09
2.30927e-07
7.00142e-09
2.30986e-07
7.44844e-09
2.31089e-07
7.65462e-09
2.31191e-07
8.07568e-09
2.3132e-07
8.35796e-09
2.31444e-07
8.56515e-09
2.31552e-07
8.41519e-09
2.31583e-07
8.44601e-09
2.31612e-07
8.19364e-09
2.31462e-07
7.51682e-09
2.31243e-07
6.52924e-09
2.30906e-07
5.92112e-09
2.30584e-07
4.42022e-09
2.30224e-07
3.9706e-09
3.06174e-09
2.73318e-07
2.37334e-09
-2.73232e-07
2.73504e-07
2.90715e-09
2.73777e-07
3.42555e-09
2.74015e-07
3.90291e-09
2.74192e-07
4.39983e-09
2.74331e-07
4.9641e-09
2.74393e-07
5.38709e-09
2.74401e-07
5.72512e-09
2.7444e-07
6.07403e-09
2.74541e-07
6.58836e-09
2.74705e-07
6.83726e-09
2.74822e-07
7.33206e-09
2.74945e-07
7.53175e-09
2.75139e-07
7.88136e-09
2.75315e-07
8.18161e-09
2.755e-07
8.38037e-09
2.75718e-07
8.19729e-09
2.75867e-07
8.29747e-09
2.76043e-07
8.01736e-09
2.76073e-07
7.48686e-09
2.76026e-07
6.5763e-09
2.75913e-07
6.03419e-09
2.7567e-07
4.66325e-09
2.75474e-07
4.16651e-09
3.3403e-09
3.32283e-07
2.28526e-09
-3.32195e-07
3.32492e-07
2.69755e-09
3.32704e-07
3.21365e-09
3.32901e-07
3.70666e-09
3.33076e-07
4.22435e-09
3.33184e-07
4.85572e-09
3.33257e-07
5.31413e-09
3.33272e-07
5.71014e-09
3.33303e-07
6.04377e-09
3.33401e-07
6.48964e-09
3.33542e-07
6.69656e-09
3.3365e-07
7.22408e-09
3.3374e-07
7.44163e-09
3.33931e-07
7.69069e-09
3.34142e-07
7.97056e-09
3.34289e-07
8.23331e-09
3.34461e-07
8.02558e-09
3.34618e-07
8.14057e-09
3.34764e-07
7.87134e-09
3.34777e-07
7.47353e-09
3.34796e-07
6.5571e-09
3.34768e-07
6.06206e-09
3.34542e-07
4.88976e-09
3.34388e-07
4.31981e-09
3.55279e-09
6.6586e-07
-6.65755e-07
6.66048e-07
6.662e-07
6.6635e-07
6.66478e-07
6.66569e-07
6.66681e-07
6.6669e-07
6.66738e-07
6.66782e-07
6.66804e-07
6.66963e-07
6.67131e-07
6.67245e-07
6.67302e-07
6.67394e-07
6.67647e-07
6.6782e-07
6.67869e-07
6.67856e-07
6.67894e-07
6.67877e-07
6.67719e-07
6.67581e-07
1.37303e-07
-8.59818e-11
1.37297e-07
-6.14373e-10
1.37092e-07
6.6462e-11
1.3674e-07
4.03575e-10
1.3605e-07
1.14551e-09
1.93949e-09
1.63093e-07
5.71198e-11
1.62778e-07
-2.99534e-10
1.62472e-07
3.72112e-10
1.62067e-07
8.08821e-10
1.61772e-07
1.44063e-09
2.02519e-09
1.94055e-07
1.23228e-10
1.93606e-07
1.49484e-10
1.93328e-07
6.49594e-10
1.92957e-07
1.17985e-09
1.92716e-07
1.68216e-09
2.16798e-09
2.30754e-07
2.19352e-10
2.30399e-07
5.04785e-10
2.30028e-07
1.02052e-09
2.29731e-07
1.47646e-09
2.29461e-07
1.95231e-09
2.30881e-09
2.74417e-07
3.31309e-10
2.74098e-07
8.23058e-10
2.7373e-07
1.38924e-09
2.7345e-07
1.7557e-09
2.73277e-07
2.12564e-09
2.35396e-09
3.33215e-07
4.5012e-10
3.32918e-07
1.12008e-09
3.32614e-07
1.69229e-09
3.32389e-07
1.98152e-09
3.32272e-07
2.24257e-09
2.43089e-09
6.66544e-07
6.66287e-07
6.65977e-07
6.65754e-07
6.65707e-07
)
;

boundaryField
{
    top
    {
        type            calculated;
        value           nonuniform List<scalar> 
31
(
2.17986e-09
2.50951e-09
3.06208e-09
3.55667e-09
4.09608e-09
4.76484e-09
5.20198e-09
5.70103e-09
5.996e-09
6.44594e-09
6.67384e-09
7.06502e-09
7.27391e-09
7.57661e-09
7.91328e-09
8.1415e-09
7.77261e-09
7.9679e-09
7.82194e-09
7.48725e-09
6.51863e-09
6.07899e-09
5.04824e-09
4.4571e-09
3.69986e-09
5.72684e-10
1.37685e-09
2.0022e-09
2.20453e-09
2.29017e-09
2.38297e-09
)
;
    }
    inlet
    {
        type            calculated;
        value           nonuniform List<scalar> 7(-3.33333e-07 -6.66667e-07 -1.37264e-07 -1.63236e-07 -1.94121e-07 -2.3085e-07 -2.74529e-07);
    }
    outlet
    {
        type            calculated;
        value           nonuniform List<scalar> 7(3.34176e-07 6.67434e-07 3.48847e-08 1.2009e-07 1.8335e-07 2.29724e-07 2.75195e-07);
    }
    plate
    {
        type            calculated;
        value           uniform 0;
    }
    symmBound
    {
        type            calculated;
        value           nonuniform List<scalar> 6(4.71223e-11 6.20139e-10 1.39139e-10 -5.21437e-11 -4.55306e-10 -9.9401e-10);
    }
    frontAndBack
    {
        type            empty;
        value           nonuniform 0();
    }
}


// ************************************************************************* //
