/*--------------------------------*- C++ -*----------------------------------*\
| =========                 |                                                 |
| \\      /  F ield         | OpenFOAM: The Open Source CFD Toolbox           |
|  \\    /   O peration     | Version:  2.3.0                                 |
|   \\  /    A nd           | Web:      www.OpenFOAM.org                      |
|    \\/     M anipulation  |                                                 |
\*---------------------------------------------------------------------------*/
FoamFile
{
    version     2.0;
    format      ascii;
    class       volScalarField;
    location    "0.85";
    object      p;
}
// * * * * * * * * * * * * * * * * * * * * * * * * * * * * * * * * * * * * * //

dimensions      [0 2 -2 0 0 0 0];

internalField   nonuniform List<scalar> 
217
(
0.000456881
0.000453134
0.000385389
0.000314165
0.00026418
0.000225343
0.000196474
0.000173919
0.000152845
0.000134868
0.000117371
0.000102021
8.41073e-05
6.34587e-05
3.84134e-05
4.15147e-07
-3.91809e-05
-8.43434e-05
-0.000134862
-0.000175313
-0.000203218
-0.000207017
-0.000179421
-0.000124393
-4.90085e-05
0.000336846
0.000353523
0.000340322
0.000301903
0.000260486
0.000218716
0.000186236
0.0001628
0.000142413
0.000125946
0.000109647
9.53185e-05
7.80224e-05
5.84507e-05
3.50058e-05
-1.45441e-06
-3.8774e-05
-8.12188e-05
-0.000129327
-0.000166814
-0.000193582
-0.000197555
-0.00017186
-0.000118996
-4.50745e-05
0.000281525
0.000305983
0.000311513
0.000294121
0.000260329
0.000216602
0.000179845
0.000152105
0.000129457
0.000113087
9.84091e-05
8.55399e-05
6.9434e-05
5.14729e-05
2.96615e-05
-3.27243e-06
-3.65545e-05
-7.38102e-05
-0.000115239
-0.000146347
-0.000168503
-0.000172114
-0.000150662
-0.000105715
-3.91571e-05
0.000222359
0.000246537
0.000260335
0.000256083
0.000235117
0.000198741
0.000163537
0.000134407
0.000110187
9.43555e-05
8.1103e-05
7.04143e-05
5.71644e-05
4.14549e-05
2.31426e-05
-4.35242e-06
-3.35588e-05
-6.41554e-05
-9.73295e-05
-0.000122597
-0.000139512
-0.000142621
-0.000125562
-8.88842e-05
-3.23528e-05
0.000161432
0.000184923
0.000204123
0.00021078
0.000201175
0.000173413
0.000143945
0.000116709
9.1727e-05
7.62426e-05
6.4338e-05
5.52122e-05
4.53063e-05
3.27503e-05
1.83386e-05
-3.53913e-06
-2.74489e-05
-5.04941e-05
-7.62839e-05
-9.6115e-05
-0.000107296
-0.000110075
-9.76122e-05
-6.87101e-05
-2.43456e-05
9.98059e-05
0.000121823
0.00014353
0.00015656
0.000154425
0.000136484
0.000114955
9.1091e-05
7.0086e-05
5.66774e-05
4.55976e-05
3.90176e-05
3.26926e-05
2.32008e-05
1.26637e-05
-2.60209e-06
-1.96902e-05
-3.54632e-05
-5.37303e-05
-6.77812e-05
-7.4152e-05
-7.6435e-05
-6.82303e-05
-4.75061e-05
-1.69416e-05
1.94688e-05
3.48423e-05
5.15632e-05
6.33194e-05
6.77992e-05
6.13511e-05
5.28071e-05
4.21063e-05
3.0123e-05
2.32306e-05
1.82937e-05
1.46929e-05
1.22272e-05
8.57047e-06
4.90619e-06
-1.37114e-07
-7.83293e-06
-1.42153e-05
-1.98893e-05
-2.5609e-05
-2.79182e-05
-2.82214e-05
-2.54216e-05
-1.75147e-05
-6.14805e-06
0.000102496
0.000133399
0.000184565
0.000249305
0.000320107
0.00038803
0.000111897
0.000132649
0.000173422
0.000221685
0.000271696
0.000309885
0.000112292
0.000127693
0.000157049
0.000192173
0.00022813
0.000256635
0.000109713
0.000120506
0.000138326
0.000159948
0.000182007
0.000202151
0.000100932
0.000106691
0.000114396
0.00012428
0.000133047
0.000144499
8.35536e-05
8.58605e-05
8.45787e-05
8.47598e-05
8.35207e-05
8.68023e-05
4.29497e-05
4.23546e-05
3.6343e-05
2.96993e-05
2.15589e-05
1.54092e-05
)
;

boundaryField
{
    top
    {
        type            fixedValue;
        value           uniform 0;
    }
    inlet
    {
        type            zeroGradient;
    }
    outlet
    {
        type            fixedValue;
        value           uniform 0;
    }
    plate
    {
        type            zeroGradient;
    }
    symmBound
    {
        type            zeroGradient;
    }
    frontAndBack
    {
        type            empty;
    }
}


// ************************************************************************* //
