/*--------------------------------*- C++ -*----------------------------------*\
| =========                 |                                                 |
| \\      /  F ield         | OpenFOAM: The Open Source CFD Toolbox           |
|  \\    /   O peration     | Version:  2.3.0                                 |
|   \\  /    A nd           | Web:      www.OpenFOAM.org                      |
|    \\/     M anipulation  |                                                 |
\*---------------------------------------------------------------------------*/
FoamFile
{
    version     2.0;
    format      ascii;
    class       surfaceScalarField;
    location    "0.85";
    object      phi;
}
// * * * * * * * * * * * * * * * * * * * * * * * * * * * * * * * * * * * * * //

dimensions      [0 3 -1 0 0 0 0];

internalField   nonuniform List<scalar> 
396
(
1.32257e-07
2.72886e-09
-1.34986e-07
1.28528e-07
3.72911e-09
1.24225e-07
4.30304e-09
1.19846e-07
4.37963e-09
1.15484e-07
4.36133e-09
1.10976e-07
4.50866e-09
1.06339e-07
4.63707e-09
1.01539e-07
4.7998e-09
9.65742e-08
4.96465e-09
9.14244e-08
5.14986e-09
8.61348e-08
5.28952e-09
8.0731e-08
5.40379e-09
7.52073e-08
5.52379e-09
6.96135e-08
5.59371e-09
6.39694e-08
5.64415e-09
5.83341e-08
5.63533e-09
5.28957e-08
5.43836e-09
4.76494e-08
5.2463e-09
4.28482e-08
4.80118e-09
3.8595e-08
4.25322e-09
3.50873e-08
3.5077e-09
3.23209e-08
2.76644e-09
3.03523e-08
1.96852e-09
2.87525e-08
1.59979e-09
1.15987e-09
1.61788e-07
2.58884e-09
-1.61648e-07
1.62053e-07
3.46394e-09
1.62043e-07
4.3132e-09
1.61715e-07
4.70813e-09
1.61164e-07
4.91168e-09
1.60457e-07
5.21622e-09
1.59653e-07
5.44087e-09
1.58606e-07
5.84682e-09
1.57406e-07
6.16469e-09
1.55931e-07
6.62447e-09
1.54272e-07
6.94933e-09
1.52295e-07
7.3806e-09
1.50123e-07
7.69559e-09
1.47722e-07
7.99459e-09
1.45073e-07
8.29346e-09
1.42132e-07
8.57643e-09
1.39114e-07
8.45637e-09
1.35762e-07
8.59788e-09
1.32448e-07
8.11566e-09
1.28913e-07
7.78752e-09
1.25549e-07
6.87168e-09
1.22169e-07
6.14662e-09
1.19076e-07
5.06161e-09
1.16017e-07
4.65852e-09
4.011e-09
1.92733e-07
2.51478e-09
-1.92659e-07
1.92945e-07
3.25201e-09
1.93283e-07
3.975e-09
1.93541e-07
4.45031e-09
1.93676e-07
4.77608e-09
1.93654e-07
5.23844e-09
1.93614e-07
5.48072e-09
1.93531e-07
5.92978e-09
1.93499e-07
6.19747e-09
1.93372e-07
6.75129e-09
1.93206e-07
7.11546e-09
1.92893e-07
7.69318e-09
1.92521e-07
8.06777e-09
1.92133e-07
8.38286e-09
1.91675e-07
8.751e-09
1.91045e-07
9.20642e-09
1.90344e-07
9.15698e-09
1.89493e-07
9.4497e-09
1.88563e-07
9.04504e-09
1.87433e-07
8.9179e-09
1.86129e-07
8.17568e-09
1.84769e-07
7.50683e-09
1.83258e-07
6.57178e-09
1.81789e-07
6.12835e-09
5.62089e-09
2.29561e-07
2.41275e-09
-2.29459e-07
2.29746e-07
3.06653e-09
2.30028e-07
3.69285e-09
2.30284e-07
4.19441e-09
2.30487e-07
4.57321e-09
2.30597e-07
5.12842e-09
2.30645e-07
5.4334e-09
2.30653e-07
5.9217e-09
2.30707e-07
6.14288e-09
2.30792e-07
6.66621e-09
2.30854e-07
7.05346e-09
2.30917e-07
7.63084e-09
2.30959e-07
8.02501e-09
2.31035e-07
8.30692e-09
2.31138e-07
8.64834e-09
2.31225e-07
9.11926e-09
2.31248e-07
9.1337e-09
2.31281e-07
9.41685e-09
2.3123e-07
9.09603e-09
2.31143e-07
9.00545e-09
2.30854e-07
8.46463e-09
2.305e-07
7.86009e-09
2.29959e-07
7.11299e-09
2.29427e-07
6.66064e-09
6.28093e-09
2.73317e-07
2.33953e-09
-2.73244e-07
2.73488e-07
2.89597e-09
2.7374e-07
3.44011e-09
2.73995e-07
3.94006e-09
2.74195e-07
4.37297e-09
2.74335e-07
4.98834e-09
2.74408e-07
5.36009e-09
2.74447e-07
5.88316e-09
2.74472e-07
6.11802e-09
2.74552e-07
6.58615e-09
2.74618e-07
6.98699e-09
2.74759e-07
7.49061e-09
2.74882e-07
7.90181e-09
2.75006e-07
8.18313e-09
2.75161e-07
8.4931e-09
2.75344e-07
8.93636e-09
2.75488e-07
8.98917e-09
2.75676e-07
9.22869e-09
2.75761e-07
9.01137e-09
2.75875e-07
8.89185e-09
2.75849e-07
8.49034e-09
2.75738e-07
7.97088e-09
2.75505e-07
7.34647e-09
2.75221e-07
6.94402e-09
6.59784e-09
3.32226e-07
2.2755e-09
-3.32162e-07
3.32399e-07
2.723e-09
3.3265e-07
3.18929e-09
3.32888e-07
3.70251e-09
3.3306e-07
4.20092e-09
3.3321e-07
4.83777e-09
3.33308e-07
5.26222e-09
3.33354e-07
5.83703e-09
3.33339e-07
6.13327e-09
3.33387e-07
6.53804e-09
3.33454e-07
6.91994e-09
3.3359e-07
7.35517e-09
3.33744e-07
7.74763e-09
3.3387e-07
8.05698e-09
3.34012e-07
8.35145e-09
3.34168e-07
8.78011e-09
3.34304e-07
8.8528e-09
3.34477e-07
9.05604e-09
3.34554e-07
8.93442e-09
3.34663e-07
8.78278e-09
3.34696e-07
8.45702e-09
3.34621e-07
8.04611e-09
3.34477e-07
7.49096e-09
3.34264e-07
7.15662e-09
6.83559e-09
6.65498e-07
-6.65268e-07
6.65822e-07
6.66164e-07
6.66421e-07
6.66563e-07
6.66697e-07
6.66765e-07
6.66788e-07
6.66814e-07
6.66791e-07
6.66854e-07
6.66988e-07
6.67122e-07
6.67214e-07
6.67319e-07
6.67438e-07
6.67565e-07
6.67693e-07
6.67732e-07
6.67807e-07
6.67847e-07
6.67776e-07
6.67695e-07
6.67549e-07
1.37333e-07
-1.95173e-10
1.37379e-07
-5.36335e-10
1.37197e-07
8.91132e-11
1.36823e-07
4.12039e-10
1.36074e-07
1.36647e-09
2.06986e-09
1.63085e-07
-4.46695e-11
1.62791e-07
-2.42571e-10
1.62534e-07
3.46968e-10
1.62042e-07
9.0407e-10
1.61824e-07
1.58411e-09
2.24557e-09
1.94053e-07
2.38552e-11
1.93588e-07
2.21593e-10
1.93406e-07
5.29611e-10
1.9292e-07
1.39024e-09
1.92777e-07
1.7268e-09
2.36372e-09
2.30772e-07
1.02448e-10
2.3036e-07
6.32996e-10
2.3006e-07
8.30292e-10
2.29703e-07
1.74648e-09
2.29503e-07
1.92717e-09
2.40789e-09
2.74421e-07
2.09712e-10
2.74065e-07
9.89047e-10
2.73715e-07
1.18074e-09
2.73447e-07
2.01394e-09
2.73277e-07
2.0981e-09
2.44043e-09
3.33199e-07
3.43856e-10
3.32854e-07
1.33459e-09
3.32511e-07
1.52346e-09
3.32318e-07
2.20698e-09
3.32177e-07
2.23883e-09
2.45525e-09
6.66468e-07
6.65985e-07
6.65466e-07
6.65224e-07
6.65142e-07
)
;

boundaryField
{
    top
    {
        type            calculated;
        value           nonuniform List<scalar> 
31
(
2.04623e-09
2.39845e-09
2.8473e-09
3.4454e-09
4.0593e-09
4.70383e-09
5.19386e-09
5.81466e-09
6.10732e-09
6.56013e-09
6.85758e-09
7.22113e-09
7.61323e-09
7.96564e-09
8.24658e-09
8.66047e-09
8.72593e-09
8.92828e-09
8.89548e-09
8.70731e-09
8.41745e-09
8.11701e-09
7.57163e-09
7.30316e-09
7.01018e-09
5.42161e-10
1.81761e-09
2.04324e-09
2.44813e-09
2.32138e-09
2.32868e-09
)
;
    }
    inlet
    {
        type            calculated;
        value           nonuniform List<scalar> 7(-3.33333e-07 -6.66667e-07 -1.37264e-07 -1.63236e-07 -1.94121e-07 -2.3085e-07 -2.74529e-07);
    }
    outlet
    {
        type            calculated;
        value           nonuniform List<scalar> 7(3.34026e-07 6.67374e-07 2.75927e-08 1.13166e-07 1.80179e-07 2.28767e-07 2.74904e-07);
    }
    plate
    {
        type            calculated;
        value           uniform 0;
    }
    symmBound
    {
        type            calculated;
        value           nonuniform List<scalar> 6(1.26528e-10 4.90694e-10 9.2533e-11 -3.78052e-11 -6.18223e-10 -9.81718e-10);
    }
    frontAndBack
    {
        type            empty;
        value           nonuniform 0();
    }
}


// ************************************************************************* //
