/*--------------------------------*- C++ -*----------------------------------*\
| =========                 |                                                 |
| \\      /  F ield         | OpenFOAM: The Open Source CFD Toolbox           |
|  \\    /   O peration     | Version:  2.3.0                                 |
|   \\  /    A nd           | Web:      www.OpenFOAM.org                      |
|    \\/     M anipulation  |                                                 |
\*---------------------------------------------------------------------------*/
FoamFile
{
    version     2.0;
    format      ascii;
    class       volVectorField;
    location    "0.85";
    object      U;
}
// * * * * * * * * * * * * * * * * * * * * * * * * * * * * * * * * * * * * * //

dimensions      [0 1 -1 0 0 0 0];

internalField   nonuniform List<vector> 
217
(
(0.195216 0.0012397 0)
(0.189349 0.00180851 0)
(0.183682 0.00213003 0)
(0.177696 0.00214784 0)
(0.171542 0.00208052 0)
(0.16512 0.0020533 0)
(0.15838 0.00201899 0)
(0.151453 0.00199466 0)
(0.144367 0.00199918 0)
(0.136979 0.00197496 0)
(0.129391 0.00193436 0)
(0.121583 0.00187682 0)
(0.113615 0.00182961 0)
(0.105493 0.00175423 0)
(0.0972436 0.00167791 0)
(0.0890032 0.00155724 0)
(0.080846 0.00142703 0)
(0.0730095 0.00123682 0)
(0.0655918 0.00102503 0)
(0.0589964 0.000726775 0)
(0.0532209 0.000435277 0)
(0.0489417 0.000133006 0)
(0.0452488 -5.81684e-05 0)
(0.0433647 -0.000132417 0)
(0.0403845 -0.000148505 0)
(0.198733 0.00219867 0)
(0.198639 0.00292169 0)
(0.19822 0.00344571 0)
(0.198188 0.00357742 0)
(0.197554 0.00353872 0)
(0.1972 0.00355458 0)
(0.196102 0.00356723 0)
(0.195222 0.00364058 0)
(0.19353 0.00368806 0)
(0.192249 0.00378979 0)
(0.189911 0.00383627 0)
(0.188199 0.0038687 0)
(0.185009 0.00388751 0)
(0.182902 0.00389239 0)
(0.179007 0.00387932 0)
(0.176384 0.00385931 0)
(0.17177 0.00369784 0)
(0.168846 0.00361849 0)
(0.163537 0.00331812 0)
(0.160741 0.00305817 0)
(0.154829 0.00258094 0)
(0.152788 0.00220871 0)
(0.14656 0.00168943 0)
(0.145531 0.00147291 0)
(0.13874 0.00112641 0)
(0.199036 0.00187108 0)
(0.19917 0.00225261 0)
(0.198728 0.00265636 0)
(0.199206 0.00284715 0)
(0.198951 0.00295811 0)
(0.19966 0.00313797 0)
(0.199252 0.00317648 0)
(0.199767 0.00334759 0)
(0.199194 0.00342475 0)
(0.199696 0.00362011 0)
(0.19889 0.0037169 0)
(0.19934 0.00391505 0)
(0.198177 0.00398907 0)
(0.198597 0.00404362 0)
(0.197246 0.00412322 0)
(0.197638 0.00421981 0)
(0.195899 0.00407379 0)
(0.196107 0.00411442 0)
(0.194123 0.00383024 0)
(0.194237 0.00365587 0)
(0.191723 0.00321922 0)
(0.191808 0.00285305 0)
(0.18891 0.00237838 0)
(0.188967 0.00213782 0)
(0.185685 0.00185562 0)
(0.19936 0.00177565 0)
(0.199473 0.00220226 0)
(0.199069 0.00257251 0)
(0.199406 0.0028174 0)
(0.199106 0.00298868 0)
(0.199746 0.00326146 0)
(0.199512 0.00337076 0)
(0.200033 0.00355817 0)
(0.199744 0.00357981 0)
(0.200219 0.00379457 0)
(0.199865 0.00387619 0)
(0.200308 0.00408161 0)
(0.199864 0.00417299 0)
(0.200385 0.00420566 0)
(0.199868 0.00426425 0)
(0.200541 0.00436291 0)
(0.199981 0.00424027 0)
(0.200538 0.0042702 0)
(0.200012 0.00398343 0)
(0.200515 0.00383038 0)
(0.199802 0.00347466 0)
(0.200182 0.00312377 0)
(0.199221 0.00272332 0)
(0.199413 0.00248009 0)
(0.198228 0.00223562 0)
(0.199622 0.00174559 0)
(0.199644 0.00211779 0)
(0.19939 0.00246312 0)
(0.199558 0.00270687 0)
(0.199302 0.0028623 0)
(0.199721 0.00318024 0)
(0.199626 0.00330433 0)
(0.19998 0.00351979 0)
(0.199923 0.00354421 0)
(0.200177 0.00370353 0)
(0.200049 0.00381562 0)
(0.200283 0.00398874 0)
(0.200129 0.00408115 0)
(0.200434 0.00409474 0)
(0.200194 0.00413316 0)
(0.200622 0.004237 0)
(0.200447 0.00413812 0)
(0.200814 0.00411425 0)
(0.200689 0.0038746 0)
(0.201025 0.0037258 0)
(0.200803 0.00342954 0)
(0.201081 0.00310296 0)
(0.200707 0.00276734 0)
(0.200827 0.00253117 0)
(0.200292 0.00232453 0)
(0.199856 0.00166694 0)
(0.199822 0.0019833 0)
(0.199635 0.00226436 0)
(0.199697 0.00253224 0)
(0.199524 0.0027454 0)
(0.199769 0.00304845 0)
(0.19971 0.00321399 0)
(0.199997 0.0034531 0)
(0.199993 0.00352727 0)
(0.200124 0.00367193 0)
(0.200109 0.00378091 0)
(0.200227 0.0039095 0)
(0.200163 0.00399862 0)
(0.200367 0.00402846 0)
(0.200229 0.00406028 0)
(0.200489 0.00414154 0)
(0.200417 0.00404158 0)
(0.200648 0.00401959 0)
(0.2006 0.00383334 0)
(0.200821 0.00364969 0)
(0.200698 0.00340528 0)
(0.200896 0.00313344 0)
(0.200684 0.00282681 0)
(0.200752 0.00261707 0)
(0.200432 0.00244003 0)
(0.200095 0.00158092 0)
(0.200031 0.00176963 0)
(0.199914 0.00200221 0)
(0.199925 0.00225806 0)
(0.199801 0.00254576 0)
(0.19992 0.00286442 0)
(0.199894 0.00307191 0)
(0.19998 0.00336079 0)
(0.200039 0.00345533 0)
(0.200082 0.00363033 0)
(0.200072 0.00373155 0)
(0.200138 0.00382691 0)
(0.20011 0.00391541 0)
(0.200183 0.00397283 0)
(0.200133 0.00398022 0)
(0.200207 0.00405443 0)
(0.200205 0.00396453 0)
(0.200305 0.0039215 0)
(0.20026 0.00378464 0)
(0.200359 0.0035979 0)
(0.200314 0.00336829 0)
(0.200378 0.00315216 0)
(0.20031 0.00285842 0)
(0.200333 0.0026794 0)
(0.200218 0.00252513 0)
(0.193932 -4.88282e-05 0)
(0.205507 -0.000156739 0)
(0.194724 -2.20782e-05 0)
(0.203833 3.10396e-05 0)
(0.194906 0.00039576 0)
(0.202285 0.000712846 0)
(0.199131 -3.40003e-05 0)
(0.200368 -0.000184792 0)
(0.199275 8.22239e-05 0)
(0.19967 0.000281095 0)
(0.198832 0.000825699 0)
(0.199094 0.00139736 0)
(0.19973 1.78298e-06 0)
(0.200097 2.67089e-05 0)
(0.199589 0.000171163 0)
(0.199805 0.000562168 0)
(0.199155 0.000864513 0)
(0.199436 0.00141164 0)
(0.19974 1.52385e-05 0)
(0.200158 0.00014271 0)
(0.199645 0.000259162 0)
(0.199937 0.000695864 0)
(0.199476 0.00092368 0)
(0.199639 0.00139456 0)
(0.199788 4.32109e-05 0)
(0.200135 0.000274436 0)
(0.199792 0.000377112 0)
(0.199976 0.000837691 0)
(0.199778 0.00102448 0)
(0.199846 0.00143329 0)
(0.199854 7.93864e-05 0)
(0.200096 0.000391693 0)
(0.199903 0.000522509 0)
(0.200041 0.000933026 0)
(0.199973 0.00110914 0)
(0.200021 0.00142606 0)
(0.199936 0.0001367 0)
(0.200041 0.000566537 0)
(0.20001 0.000756242 0)
(0.200078 0.00111921 0)
(0.200092 0.00124607 0)
(0.200148 0.00145251 0)
)
;

boundaryField
{
    top
    {
        type            zeroGradient;
    }
    inlet
    {
        type            fixedValue;
        value           uniform (0.2 0 0);
    }
    outlet
    {
        type            zeroGradient;
    }
    plate
    {
        type            fixedValue;
        value           uniform (0 0 0);
    }
    symmBound
    {
        type            zeroGradient;
    }
    frontAndBack
    {
        type            empty;
    }
}


// ************************************************************************* //
