/*--------------------------------*- C++ -*----------------------------------*\
| =========                 |                                                 |
| \\      /  F ield         | OpenFOAM: The Open Source CFD Toolbox           |
|  \\    /   O peration     | Version:  2.3.0                                 |
|   \\  /    A nd           | Web:      www.OpenFOAM.org                      |
|    \\/     M anipulation  |                                                 |
\*---------------------------------------------------------------------------*/
FoamFile
{
    version     2.0;
    format      ascii;
    class       volVectorField;
    location    "0.85";
    object      U_0;
}
// * * * * * * * * * * * * * * * * * * * * * * * * * * * * * * * * * * * * * //

dimensions      [0 1 -1 0 0 0 0];

internalField   nonuniform List<vector> 
217
(
(0.195213 0.00123693 0)
(0.189357 0.00180977 0)
(0.183683 0.00213105 0)
(0.177695 0.00214606 0)
(0.171546 0.00208156 0)
(0.165119 0.0020543 0)
(0.158377 0.00201778 0)
(0.151455 0.00199474 0)
(0.144368 0.00199988 0)
(0.136977 0.00197489 0)
(0.12939 0.00193396 0)
(0.121583 0.00187686 0)
(0.113616 0.00182969 0)
(0.105493 0.00175417 0)
(0.0972437 0.00167793 0)
(0.0890043 0.00155695 0)
(0.0808478 0.00142687 0)
(0.0730127 0.00123672 0)
(0.0655956 0.00102463 0)
(0.0590013 0.000726434 0)
(0.0532286 0.000434944 0)
(0.0489504 0.000132493 0)
(0.0452612 -5.82804e-05 0)
(0.0433768 -0.000132619 0)
(0.0404009 -0.000148761 0)
(0.198728 0.00219278 0)
(0.198636 0.00291995 0)
(0.198224 0.00344907 0)
(0.198192 0.003576 0)
(0.197556 0.00353958 0)
(0.197202 0.0035558 0)
(0.1961 0.00356707 0)
(0.195218 0.0036398 0)
(0.193531 0.00368792 0)
(0.192249 0.00379096 0)
(0.189914 0.00383552 0)
(0.188194 0.00386837 0)
(0.18501 0.0038871 0)
(0.182904 0.0038924 0)
(0.179006 0.00388041 0)
(0.176385 0.00385783 0)
(0.171771 0.00369759 0)
(0.168847 0.00361876 0)
(0.163541 0.00331704 0)
(0.160741 0.00305771 0)
(0.154836 0.00258007 0)
(0.152793 0.00220761 0)
(0.146569 0.00168876 0)
(0.14554 0.00147195 0)
(0.138754 0.00112529 0)
(0.199037 0.00186776 0)
(0.199161 0.00225109 0)
(0.198727 0.00265446 0)
(0.199208 0.00284302 0)
(0.198958 0.00296326 0)
(0.199662 0.00314086 0)
(0.199248 0.00317662 0)
(0.199764 0.00334718 0)
(0.199195 0.00342317 0)
(0.199697 0.0036201 0)
(0.198892 0.00371805 0)
(0.199335 0.00391702 0)
(0.198175 0.00398546 0)
(0.198598 0.00404241 0)
(0.19725 0.00412651 0)
(0.197637 0.00421753 0)
(0.195896 0.00407302 0)
(0.196109 0.00411465 0)
(0.194127 0.003829 0)
(0.194236 0.00365594 0)
(0.191726 0.00321737 0)
(0.191809 0.00285135 0)
(0.188914 0.00237753 0)
(0.188971 0.00213636 0)
(0.18569 0.00185384 0)
(0.199366 0.00177811 0)
(0.199467 0.00220523 0)
(0.199068 0.00256756 0)
(0.199401 0.00280934 0)
(0.199109 0.00299221 0)
(0.19975 0.00326731 0)
(0.199509 0.00337342 0)
(0.200032 0.0035557 0)
(0.199744 0.00357722 0)
(0.20022 0.00379573 0)
(0.199865 0.00387722 0)
(0.200305 0.00408445 0)
(0.199864 0.0041692 0)
(0.200383 0.00420251 0)
(0.199872 0.00426717 0)
(0.200542 0.004362 0)
(0.199978 0.00424009 0)
(0.200539 0.0042693 0)
(0.200014 0.0039815 0)
(0.200515 0.0038313 0)
(0.199804 0.0034729 0)
(0.200182 0.00312158 0)
(0.199222 0.00272222 0)
(0.199415 0.0024786 0)
(0.198229 0.00223374 0)
(0.199623 0.00174764 0)
(0.199643 0.0021225 0)
(0.199393 0.00246042 0)
(0.199552 0.0026975 0)
(0.1993 0.00286388 0)
(0.199724 0.00318574 0)
(0.199624 0.00330715 0)
(0.199983 0.00351842 0)
(0.199923 0.00354017 0)
(0.200177 0.00370507 0)
(0.200049 0.00381805 0)
(0.200282 0.00399103 0)
(0.200131 0.00407738 0)
(0.200431 0.00409057 0)
(0.200195 0.00413597 0)
(0.200624 0.00423759 0)
(0.200446 0.00413706 0)
(0.200815 0.00411265 0)
(0.200689 0.0038733 0)
(0.201025 0.00372678 0)
(0.200804 0.00342768 0)
(0.201081 0.00310069 0)
(0.200707 0.00276614 0)
(0.200828 0.0025297 0)
(0.200292 0.00232267 0)
(0.199855 0.00166849 0)
(0.199823 0.00198671 0)
(0.199638 0.00226283 0)
(0.199693 0.00252742 0)
(0.199523 0.00274577 0)
(0.199769 0.00305053 0)
(0.19971 0.00321625 0)
(0.200001 0.00345327 0)
(0.199991 0.0035246 0)
(0.200124 0.00367301 0)
(0.20011 0.00378203 0)
(0.200226 0.00391053 0)
(0.200166 0.00399624 0)
(0.200366 0.00402542 0)
(0.200228 0.00406218 0)
(0.20049 0.00414134 0)
(0.200417 0.00404066 0)
(0.200649 0.00401945 0)
(0.2006 0.00383149 0)
(0.20082 0.00364943 0)
(0.200699 0.00340435 0)
(0.200896 0.00313133 0)
(0.200684 0.00282524 0)
(0.200752 0.00261572 0)
(0.200432 0.00243824 0)
(0.200094 0.00158061 0)
(0.20003 0.00177111 0)
(0.199917 0.00200132 0)
(0.199923 0.00225626 0)
(0.1998 0.00254699 0)
(0.199922 0.00286392 0)
(0.199892 0.00307361 0)
(0.199982 0.00336107 0)
(0.20004 0.00345366 0)
(0.200081 0.00363215 0)
(0.200073 0.00373117 0)
(0.200139 0.00382724 0)
(0.20011 0.00391501 0)
(0.200182 0.00397058 0)
(0.200131 0.00398105 0)
(0.200207 0.00405425 0)
(0.200206 0.0039631 0)
(0.200305 0.00392204 0)
(0.20026 0.00378342 0)
(0.200359 0.00359662 0)
(0.200314 0.00336775 0)
(0.200378 0.00315019 0)
(0.20031 0.00285644 0)
(0.200333 0.00267827 0)
(0.200218 0.00252349 0)
(0.193932 -4.87911e-05 0)
(0.205509 -0.000155764 0)
(0.194722 -2.26912e-05 0)
(0.203828 3.14796e-05 0)
(0.194908 0.000396954 0)
(0.202283 0.000710229 0)
(0.199129 -3.41977e-05 0)
(0.200371 -0.000183608 0)
(0.199276 8.33045e-05 0)
(0.199662 0.000279814 0)
(0.198837 0.000826124 0)
(0.199096 0.00139865 0)
(0.199729 1.686e-06 0)
(0.200097 2.6639e-05 0)
(0.199593 0.000174273 0)
(0.1998 0.000560801 0)
(0.199157 0.000862057 0)
(0.199442 0.00141495 0)
(0.199739 1.53635e-05 0)
(0.200158 0.000142052 0)
(0.199646 0.00026283 0)
(0.199937 0.00069504 0)
(0.199475 0.000918651 0)
(0.199643 0.00139603 0)
(0.199787 4.3685e-05 0)
(0.200136 0.000273062 0)
(0.199791 0.000380326 0)
(0.199978 0.000838139 0)
(0.199778 0.00101963 0)
(0.199845 0.0014338 0)
(0.199854 7.98442e-05 0)
(0.200097 0.000390582 0)
(0.199902 0.00052454 0)
(0.200044 0.00093405 0)
(0.199973 0.0011058 0)
(0.200018 0.0014255 0)
(0.199935 0.000136983 0)
(0.200042 0.000565332 0)
(0.200009 0.000757368 0)
(0.200078 0.00112014 0)
(0.200092 0.00124434 0)
(0.200147 0.00145306 0)
)
;

boundaryField
{
    top
    {
        type            zeroGradient;
    }
    inlet
    {
        type            fixedValue;
        value           uniform (0.2 0 0);
    }
    outlet
    {
        type            zeroGradient;
    }
    plate
    {
        type            fixedValue;
        value           uniform (0 0 0);
    }
    symmBound
    {
        type            zeroGradient;
    }
    frontAndBack
    {
        type            empty;
    }
}


// ************************************************************************* //
