/*--------------------------------*- C++ -*----------------------------------*\
| =========                 |                                                 |
| \\      /  F ield         | OpenFOAM: The Open Source CFD Toolbox           |
|  \\    /   O peration     | Version:  2.3.0                                 |
|   \\  /    A nd           | Web:      www.OpenFOAM.org                      |
|    \\/     M anipulation  |                                                 |
\*---------------------------------------------------------------------------*/
FoamFile
{
    version     2.0;
    format      ascii;
    class       volScalarField;
    location    "0.3";
    object      p;
}
// * * * * * * * * * * * * * * * * * * * * * * * * * * * * * * * * * * * * * //

dimensions      [0 2 -2 0 0 0 0];

internalField   nonuniform List<scalar> 
5940
(
0.00295844
0.00263766
0.00193952
0.00125699
0.000698368
0.000245335
-0.000121173
-0.000395016
-0.000567083
-0.000647337
-0.000662065
-0.000640022
-0.000603187
-0.000564921
-0.000531751
-0.00050571
-0.000486344
-0.000472164
-0.000461536
-0.0004531
-0.000445903
-0.000439359
-0.000433154
-0.000427131
-0.000421216
-0.000415371
-0.000409578
-0.000403834
-0.000398151
-0.000392545
-0.000387037
-0.000381644
-0.000376382
-0.000371262
-0.000366292
-0.000361472
-0.000356793
-0.000352243
-0.000347802
-0.000343452
-0.000339176
-0.000334959
-0.000330797
-0.00032669
-0.000322642
-0.000318663
-0.000314763
-0.000310948
-0.000307223
-0.000303588
-0.00030004
-0.000296577
-0.000293195
-0.000289891
-0.000286663
-0.000283511
-0.00028043
-0.000277417
-0.000274466
-0.000271569
-0.000268719
-0.00026591
-0.00026314
-0.000260409
-0.000257717
-0.000255067
-0.00025246
-0.000249892
-0.000247361
-0.000244858
-0.000242375
-0.000239903
-0.000237432
-0.000234952
-0.000232452
-0.000229923
-0.000227353
-0.00022473
-0.000222046
-0.000219291
-0.000216457
-0.000213536
-0.000210519
-0.000207399
-0.000204167
-0.000200813
-0.000197328
-0.000193702
-0.000189925
-0.000185986
-0.000181878
-0.000177591
-0.000173117
-0.000168452
-0.000163595
-0.000158548
-0.000153319
-0.000147916
-0.000142358
-0.000136657
-0.000130863
-0.000125004
-0.000119112
-0.000113237
-0.000107418
-0.000101699
-9.61224e-05
-9.07252e-05
-8.55382e-05
-8.05869e-05
-7.58888e-05
-7.14538e-05
-6.72837e-05
-6.3376e-05
-5.97169e-05
-5.62899e-05
-5.3076e-05
-5.00555e-05
-4.7208e-05
-4.45155e-05
-4.1961e-05
-3.95317e-05
-3.72161e-05
-3.50067e-05
-3.28965e-05
-3.08818e-05
-2.89579e-05
-2.71224e-05
-2.53706e-05
-2.36992e-05
-2.2103e-05
-2.05779e-05
-1.91181e-05
-1.77193e-05
-1.63753e-05
-1.50822e-05
-1.38347e-05
-1.26289e-05
-1.14609e-05
-1.03276e-05
-9.22736e-06
-8.15658e-06
-7.11516e-06
-6.09797e-06
-5.1069e-06
-4.13395e-06
-3.18542e-06
-2.24822e-06
-1.33779e-06
-4.2881e-07
0.00243305
0.00224966
0.00177278
0.00120747
0.000696034
0.00027266
-6.66189e-05
-0.000320669
-0.000487238
-0.000574034
-0.000600767
-0.000591392
-0.000565757
-0.000536451
-0.000509982
-0.000488661
-0.000472485
-0.000460445
-0.000451289
-0.000443923
-0.000437554
-0.000431689
-0.000426066
-0.000420558
-0.000415106
-0.000409678
-0.000404261
-0.000398856
-0.000393476
-0.000388145
-0.000382885
-0.000377718
-0.000372661
-0.000367731
-0.000362936
-0.000358279
-0.000353754
-0.000349348
-0.000345043
-0.00034082
-0.000336662
-0.000332557
-0.000328498
-0.000324487
-0.00032053
-0.000316637
-0.000312817
-0.00030908
-0.000305428
-0.000301864
-0.000298385
-0.000294987
-0.000291667
-0.000288422
-0.000285251
-0.000282153
-0.000279126
-0.000276164
-0.000273263
-0.000270413
-0.00026761
-0.000264845
-0.000262118
-0.000259427
-0.000256774
-0.000254162
-0.000251592
-0.000249061
-0.000246566
-0.000244098
-0.00024165
-0.000239211
-0.000236773
-0.000234326
-0.000231859
-0.000229361
-0.000226821
-0.000224229
-0.000221574
-0.000218848
-0.000216042
-0.000213148
-0.000210159
-0.000207065
-0.000203859
-0.000200531
-0.000197071
-0.00019347
-0.000189717
-0.000185804
-0.000181719
-0.000177454
-0.000173003
-0.00016836
-0.000163523
-0.000158494
-0.000153281
-0.000147894
-0.00014235
-0.000136675
-0.000130887
-0.00012504
-0.000119153
-0.000113283
-0.000107467
-0.000101747
-9.61702e-05
-9.07713e-05
-8.5582e-05
-8.06278e-05
-7.59267e-05
-7.14889e-05
-6.73159e-05
-6.34064e-05
-5.97456e-05
-5.63174e-05
-5.31027e-05
-5.00816e-05
-4.72337e-05
-4.45409e-05
-4.19862e-05
-3.95565e-05
-3.72404e-05
-3.50304e-05
-3.29196e-05
-3.09042e-05
-2.89795e-05
-2.71432e-05
-2.53907e-05
-2.37187e-05
-2.21217e-05
-2.0596e-05
-1.91355e-05
-1.77361e-05
-1.63915e-05
-1.50977e-05
-1.38496e-05
-1.2643e-05
-1.14744e-05
-1.03403e-05
-9.23942e-06
-8.1678e-06
-7.1258e-06
-6.10778e-06
-5.11625e-06
-4.14241e-06
-3.19364e-06
-2.25538e-06
-1.34513e-06
-4.34071e-07
0.00205738
0.0019386
0.00161922
0.0011721
0.000721521
0.000333789
2.3448e-05
-0.000211601
-0.000375237
-0.000473858
-0.000519806
-0.000529847
-0.00052035
-0.000503346
-0.000485512
-0.000469824
-0.000457146
-0.000447265
-0.000439519
-0.000433181
-0.000427657
-0.000422552
-0.000417637
-0.000412794
-0.000407962
-0.000403105
-0.000398203
-0.000393259
-0.000388289
-0.000383321
-0.000378382
-0.000373501
-0.000368702
-0.000364004
-0.000359422
-0.000354959
-0.000350614
-0.000346375
-0.000342224
-0.000338143
-0.000334116
-0.000330131
-0.000326183
-0.000322274
-0.000318411
-0.000314605
-0.000310868
-0.000307209
-0.000303633
-0.000300141
-0.000296731
-0.000293398
-0.00029014
-0.000286954
-0.00028384
-0.000280796
-0.000277821
-0.00027491
-0.000272058
-0.000269256
-0.000266497
-0.000263776
-0.000261089
-0.000258436
-0.000255821
-0.000253245
-0.00025071
-0.000248215
-0.000245754
-0.000243321
-0.000240906
-0.000238501
-0.000236096
-0.00023368
-0.000231244
-0.000228777
-0.000226268
-0.000223705
-0.000221079
-0.000218381
-0.000215602
-0.000212735
-0.000209772
-0.000206705
-0.000203524
-0.000200221
-0.000196787
-0.00019321
-0.000189482
-0.000185592
-0.000181531
-0.000177289
-0.00017286
-0.000168238
-0.000163421
-0.000158411
-0.000153215
-0.000147843
-0.00014231
-0.000136643
-0.000130871
-0.000125023
-0.000119141
-0.000113278
-0.000107465
-0.000101746
-9.61704e-05
-9.07711e-05
-8.55809e-05
-8.06257e-05
-7.59238e-05
-7.14856e-05
-6.73119e-05
-6.34034e-05
-5.97436e-05
-5.63167e-05
-5.31036e-05
-5.00842e-05
-4.7238e-05
-4.45466e-05
-4.19931e-05
-3.95644e-05
-3.72489e-05
-3.50394e-05
-3.29287e-05
-3.09134e-05
-2.89887e-05
-2.71525e-05
-2.54e-05
-2.37281e-05
-2.21313e-05
-2.06058e-05
-1.91454e-05
-1.77461e-05
-1.64016e-05
-1.51078e-05
-1.38597e-05
-1.26529e-05
-1.14841e-05
-1.03496e-05
-9.24839e-06
-8.17626e-06
-7.13398e-06
-6.11541e-06
-5.12367e-06
-4.14909e-06
-3.20016e-06
-2.2608e-06
-1.34978e-06
-4.36628e-07
0.00180624
0.00170958
0.0014801
0.00113165
0.000747566
0.000399026
0.000114546
-0.000104168
-0.000263005
-0.000368536
-0.000429246
-0.000456538
-0.000462811
-0.000458418
-0.000450047
-0.000441235
-0.00043348
-0.000427132
-0.000421983
-0.000417635
-0.000413717
-0.000409963
-0.000406217
-0.0004024
-0.000398473
-0.000394418
-0.000390231
-0.000385924
-0.000381519
-0.00037705
-0.000372551
-0.000368057
-0.000363601
-0.000359211
-0.000354907
-0.000350702
-0.000346595
-0.000342577
-0.000338633
-0.000334743
-0.000330891
-0.000327066
-0.000323264
-0.000319488
-0.000315748
-0.000312056
-0.000308426
-0.000304867
-0.000301387
-0.000297985
-0.000294661
-0.00029141
-0.000288229
-0.000285117
-0.000282072
-0.000279095
-0.000276183
-0.000273333
-0.000270539
-0.000267793
-0.000265087
-0.000262416
-0.000259776
-0.000257168
-0.000254595
-0.000252061
-0.000249567
-0.000247111
-0.000244691
-0.000242297
-0.000239921
-0.000237554
-0.000235186
-0.000232806
-0.000230406
-0.000227974
-0.000225499
-0.000222969
-0.000220376
-0.000217709
-0.000214961
-0.000212124
-0.000209191
-0.000206154
-0.000203003
-0.00019973
-0.000196324
-0.000192777
-0.000189077
-0.000185216
-0.000181183
-0.000176969
-0.000172566
-0.00016797
-0.000163177
-0.000158192
-0.000153018
-0.000147668
-0.000142155
-0.000136504
-0.000130748
-0.000124913
-0.000119051
-0.000113193
-0.000107389
-0.000101677
-9.61106e-05
-9.0718e-05
-8.55329e-05
-8.05819e-05
-7.58837e-05
-7.14493e-05
-6.7278e-05
-6.33746e-05
-5.97182e-05
-5.62948e-05
-5.3085e-05
-5.00689e-05
-4.72257e-05
-4.45369e-05
-4.19856e-05
-3.95588e-05
-3.72448e-05
-3.50366e-05
-3.2927e-05
-3.09128e-05
-2.8989e-05
-2.71537e-05
-2.54022e-05
-2.37314e-05
-2.21356e-05
-2.06112e-05
-1.91518e-05
-1.77534e-05
-1.64096e-05
-1.51164e-05
-1.38688e-05
-1.26624e-05
-1.14938e-05
-1.03592e-05
-9.25797e-06
-8.1856e-06
-7.14323e-06
-6.12431e-06
-5.13243e-06
-4.15723e-06
-3.20777e-06
-2.26731e-06
-1.35394e-06
-4.38614e-07
0.00161532
0.00152738
0.00134801
0.00107415
0.000754365
0.000447918
0.00018898
-1.45738e-05
-0.000166894
-0.000274413
-0.000343914
-0.000383501
-0.000402288
-0.000408676
-0.0004089
-0.000406754
-0.000404124
-0.000401711
-0.000399606
-0.000397666
-0.000395711
-0.000393607
-0.000391281
-0.000388711
-0.000385895
-0.000382841
-0.000379559
-0.00037607
-0.000372402
-0.000368593
-0.000364684
-0.000360715
-0.000356727
-0.000352755
-0.000348829
-0.000344967
-0.000341174
-0.000337446
-0.00033377
-0.00033013
-0.00032651
-0.0003229
-0.000319295
-0.0003157
-0.000312126
-0.000308586
-0.000305097
-0.00030167
-0.000298313
-0.000295029
-0.000291815
-0.000288669
-0.000285588
-0.00028257
-0.000279615
-0.000276723
-0.000273893
-0.000271122
-0.000268403
-0.000265729
-0.00026309
-0.000260481
-0.0002579
-0.000255347
-0.000252826
-0.000250341
-0.000247896
-0.00024549
-0.000243118
-0.000240772
-0.000238443
-0.000236121
-0.000233797
-0.000231462
-0.000229105
-0.000226715
-0.00022428
-0.000221791
-0.000219236
-0.000216608
-0.000213897
-0.000211098
-0.000208202
-0.000205201
-0.000202087
-0.00019885
-0.000195481
-0.000191971
-0.000188309
-0.000184486
-0.00018049
-0.000176314
-0.000171949
-0.000167391
-0.000162636
-0.000157688
-0.000152552
-0.000147238
-0.000141761
-0.000136147
-0.000130425
-0.000124623
-0.000118793
-0.000112968
-0.000107188
-0.000101507
-9.59601e-05
-9.05881e-05
-8.54205e-05
-8.04843e-05
-7.57987e-05
-7.1375e-05
-6.72087e-05
-6.33161e-05
-5.96674e-05
-5.62504e-05
-5.30459e-05
-5.00345e-05
-4.71952e-05
-4.451e-05
-4.19616e-05
-3.95375e-05
-3.72258e-05
-3.50198e-05
-3.29124e-05
-3.09004e-05
-2.89788e-05
-2.71461e-05
-2.53968e-05
-2.37285e-05
-2.21349e-05
-2.06128e-05
-1.91555e-05
-1.77593e-05
-1.64172e-05
-1.51252e-05
-1.38791e-05
-1.26736e-05
-1.15058e-05
-1.03718e-05
-9.27089e-06
-8.19862e-06
-7.15649e-06
-6.13747e-06
-5.14549e-06
-4.16988e-06
-3.21932e-06
-2.27787e-06
-1.36019e-06
-4.42302e-07
0.00145676
0.00137408
0.00122525
0.00100558
0.000742421
0.000478415
0.000245847
5.74253e-05
-8.73708e-05
-0.000193777
-0.000267749
-0.000315532
-0.000343807
-0.000359108
-0.000366858
-0.000370779
-0.000372959
-0.00037433
-0.00037521
-0.000375662
-0.00037567
-0.00037522
-0.000374322
-0.000373008
-0.000371318
-0.000369283
-0.000366933
-0.000364299
-0.000361416
-0.000358328
-0.000355075
-0.000351702
-0.000348251
-0.000344764
-0.000341273
-0.000337804
-0.000334369
-0.000330971
-0.000327603
-0.00032425
-0.000320901
-0.000317544
-0.000314176
-0.000310801
-0.00030743
-0.000304078
-0.000300762
-0.000297495
-0.000294288
-0.000291143
-0.000288061
-0.000285039
-0.000282076
-0.000279169
-0.00027632
-0.000273529
-0.000270795
-0.000268117
-0.000265487
-0.000262898
-0.000260339
-0.000257806
-0.000255294
-0.000252806
-0.000250346
-0.00024792
-0.000245531
-0.000243179
-0.000240861
-0.000238569
-0.000236293
-0.000234023
-0.00023175
-0.000229465
-0.000227157
-0.000224815
-0.000222428
-0.000219986
-0.000217477
-0.000214892
-0.000212226
-0.00020947
-0.000206617
-0.00020366
-0.00020059
-0.000197399
-0.000194076
-0.000190613
-0.000186999
-0.000183224
-0.000179279
-0.000175154
-0.000170843
-0.000166338
-0.000161639
-0.000156747
-0.00015167
-0.000146415
-0.000140999
-0.000135447
-0.000129785
-0.000124048
-0.000118278
-0.000112511
-0.000106784
-0.000101154
-9.56588e-05
-9.03313e-05
-8.52023e-05
-8.02996e-05
-7.56425e-05
-7.12419e-05
-6.71078e-05
-6.32185e-05
-5.95798e-05
-5.6172e-05
-5.2975e-05
-4.99697e-05
-4.71355e-05
-4.44548e-05
-4.19103e-05
-3.949e-05
-3.71818e-05
-3.49792e-05
-3.28752e-05
-3.0867e-05
-2.89488e-05
-2.71205e-05
-2.5376e-05
-2.37123e-05
-2.21229e-05
-2.0605e-05
-1.91514e-05
-1.7759e-05
-1.64205e-05
-1.51312e-05
-1.38878e-05
-1.26844e-05
-1.15186e-05
-1.0386e-05
-9.28639e-06
-8.21491e-06
-7.17368e-06
-6.15519e-06
-5.16333e-06
-4.18795e-06
-3.2357e-06
-2.29384e-06
-1.37011e-06
-4.49277e-07
0.00132036
0.00124249
0.00111511
0.000935269
0.000718825
0.000494408
0.000288572
0.000115855
-2.07829e-05
-0.000124526
-0.000200356
-0.000253386
-0.00028869
-0.00031125
-0.000325519
-0.000334883
-0.000341461
-0.000346352
-0.000350059
-0.000352815
-0.000354742
-0.000355923
-0.000356436
-0.000356362
-0.000355778
-0.000354742
-0.000353303
-0.000351504
-0.000349395
-0.00034702
-0.000344424
-0.000341654
-0.000338754
-0.000335764
-0.000332723
-0.000329659
-0.000326591
-0.000323527
-0.000320467
-0.000317404
-0.000314327
-0.00031123
-0.000308109
-0.000304967
-0.000301814
-0.000298666
-0.000295539
-0.000292446
-0.0002894
-0.000286406
-0.000283465
-0.000280576
-0.000277738
-0.000274949
-0.000272212
-0.000269527
-0.000266895
-0.000264314
-0.000261778
-0.000259279
-0.000256808
-0.000254357
-0.000251923
-0.000249506
-0.000247113
-0.000244749
-0.000242419
-0.000240124
-0.000237862
-0.000235624
-0.000233402
-0.000231185
-0.000228964
-0.00022673
-0.000224473
-0.000222183
-0.000219847
-0.000217455
-0.000214995
-0.00021246
-0.000209842
-0.000207134
-0.00020433
-0.000201422
-0.000198403
-0.000195263
-0.000191993
-0.000188585
-0.000185029
-0.000181315
-0.000177432
-0.000173373
-0.00016913
-0.000164698
-0.000160074
-0.000155261
-0.000150265
-0.000145096
-0.000139769
-0.000134308
-0.000128741
-0.000123098
-0.00011742
-0.000111743
-0.000106108
-0.000100563
-9.51444e-05
-8.98867e-05
-8.48204e-05
-7.99724e-05
-7.53619e-05
-7.10003e-05
-6.68938e-05
-6.30334e-05
-5.94165e-05
-5.60258e-05
-5.28424e-05
-4.98479e-05
-4.70225e-05
-4.43493e-05
-4.18115e-05
-3.93975e-05
-3.70955e-05
-3.48992e-05
-3.28009e-05
-3.07989e-05
-2.88881e-05
-2.70664e-05
-2.53281e-05
-2.36714e-05
-2.20887e-05
-2.05773e-05
-1.91298e-05
-1.7743e-05
-1.64098e-05
-1.5125e-05
-1.38873e-05
-1.26878e-05
-1.15257e-05
-1.03962e-05
-9.2995e-06
-8.23022e-06
-7.19108e-06
-6.17447e-06
-5.18328e-06
-4.20951e-06
-3.25535e-06
-2.3142e-06
-1.38357e-06
-4.60052e-07
0.00120162
0.00112887
0.00101828
0.000868465
0.000689291
0.000499603
0.000319543
0.000162949
3.50465e-05
-6.51103e-05
-0.000141171
-0.000197329
-0.000237618
-0.000265867
-0.000285595
-0.000299701
-0.000310207
-0.000318311
-0.000324658
-0.000329613
-0.000333405
-0.000336191
-0.000338102
-0.000339257
-0.000339768
-0.000339719
-0.000339176
-0.000338199
-0.000336844
-0.000335165
-0.000333213
-0.000331034
-0.000328676
-0.000326182
-0.000323589
-0.000320931
-0.000318228
-0.000315494
-0.000312736
-0.000309951
-0.000307136
-0.000304288
-0.000301405
-0.000298491
-0.000295555
-0.000292611
-0.000289674
-0.000286758
-0.000283875
-0.000281031
-0.00027823
-0.000275472
-0.000272757
-0.000270085
-0.000267457
-0.000264875
-0.00026234
-0.000259851
-0.000257404
-0.000254991
-0.000252604
-0.000250234
-0.000247878
-0.000245535
-0.000243209
-0.000240908
-0.000238636
-0.000236397
-0.000234186
-0.000231999
-0.000229826
-0.000227657
-0.000225484
-0.000223298
-0.000221089
-0.000218847
-0.00021656
-0.000214217
-0.000211806
-0.000209321
-0.000206752
-0.000204094
-0.000201341
-0.000198485
-0.000195519
-0.000192435
-0.000189223
-0.000185876
-0.000182384
-0.000178738
-0.000174928
-0.000170946
-0.000166786
-0.000162441
-0.000157911
-0.000153197
-0.000148305
-0.000143246
-0.000138034
-0.000132693
-0.000127249
-0.000121732
-0.000116179
-0.000110627
-0.000105114
-9.96834e-05
-9.43708e-05
-8.92112e-05
-8.42334e-05
-7.94635e-05
-7.49202e-05
-7.06163e-05
-6.65572e-05
-6.27379e-05
-5.91522e-05
-5.57866e-05
-5.26236e-05
-4.96458e-05
-4.68343e-05
-4.4173e-05
-4.16457e-05
-3.92416e-05
-3.69489e-05
-3.47615e-05
-3.26721e-05
-3.06791e-05
-2.87772e-05
-2.69653e-05
-2.52375e-05
-2.35909e-05
-2.20181e-05
-2.05163e-05
-1.90781e-05
-1.76995e-05
-1.63745e-05
-1.51002e-05
-1.38673e-05
-1.26742e-05
-1.15181e-05
-1.03936e-05
-9.30182e-06
-8.23684e-06
-7.20134e-06
-6.18896e-06
-5.19952e-06
-4.22947e-06
-3.27396e-06
-2.33522e-06
-1.39831e-06
-4.73294e-07
0.0010977
0.00103031
0.000933556
0.000806952
0.000657151
0.000496711
0.000340295
0.000199713
8.10942e-05
-1.46743e-05
-8.97802e-05
-0.000147483
-0.000191055
-0.000223507
-0.000247581
-0.000265663
-0.000279588
-0.000290571
-0.000299345
-0.000306364
-0.000311934
-0.000316273
-0.00031955
-0.000321915
-0.000323506
-0.00032443
-0.000324772
-0.000324602
-0.000323987
-0.00032299
-0.000321667
-0.000320069
-0.000318244
-0.000316239
-0.000314092
-0.000311836
-0.000309498
-0.000307093
-0.000304633
-0.000302122
-0.000299563
-0.000296956
-0.000294303
-0.000291609
-0.000288883
-0.000286139
-0.000283388
-0.000280646
-0.000277922
-0.000275226
-0.000272562
-0.000269931
-0.000267335
-0.000264775
-0.000262251
-0.000259766
-0.000257322
-0.000254917
-0.00025255
-0.000250215
-0.000247902
-0.000245607
-0.000243323
-0.00024105
-0.00023879
-0.00023655
-0.000234335
-0.000232146
-0.000229983
-0.00022784
-0.000225709
-0.000223582
-0.00022145
-0.000219303
-0.000217135
-0.000214934
-0.000212689
-0.00021039
-0.000208025
-0.000205586
-0.000203065
-0.000200456
-0.000197753
-0.000194949
-0.000192037
-0.000189009
-0.000185857
-0.000182573
-0.000179149
-0.000175575
-0.000171844
-0.000167947
-0.000163878
-0.000159632
-0.000155207
-0.000150607
-0.000145837
-0.000140907
-0.000135832
-0.000130632
-0.000125335
-0.000119969
-0.000114568
-0.000109166
-0.0001038
-9.85095e-05
-9.33294e-05
-8.82924e-05
-8.34262e-05
-7.87559e-05
-7.42999e-05
-7.00708e-05
-6.60737e-05
-6.23065e-05
-5.87633e-05
-5.54327e-05
-5.22986e-05
-4.93449e-05
-4.65536e-05
-4.391e-05
-4.13986e-05
-3.90089e-05
-3.67298e-05
-3.45554e-05
-3.2479e-05
-3.04991e-05
-2.86102e-05
-2.68112e-05
-2.50958e-05
-2.34616e-05
-2.19012e-05
-2.04115e-05
-1.89849e-05
-1.76174e-05
-1.63031e-05
-1.50385e-05
-1.38166e-05
-1.26331e-05
-1.1486e-05
-1.03692e-05
-9.28455e-06
-8.2272e-06
-7.19694e-06
-6.19136e-06
-5.20513e-06
-4.24131e-06
-3.28588e-06
-2.35131e-06
-1.41043e-06
-4.86011e-07
0.00100627
0.000944244
0.000859105
0.000750832
0.000624211
0.000487882
0.000352377
0.000227152
0.000118213
2.75949e-05
-4.55845e-05
-0.000103619
-0.0001491
-0.000184436
-0.000211785
-0.000233073
-0.000249895
-0.000263405
-0.000274364
-0.000283279
-0.000290511
-0.000296325
-0.000300916
-0.000304456
-0.000307099
-0.000308975
-0.000310182
-0.000310803
-0.000310914
-0.000310586
-0.00030988
-0.000308853
-0.000307554
-0.000306031
-0.000304325
-0.000302471
-0.000300496
-0.000298421
-0.000296261
-0.000294026
-0.000291722
-0.000289354
-0.000286927
-0.000284449
-0.000281929
-0.000279379
-0.000276812
-0.000274241
-0.000271676
-0.000269126
-0.000266596
-0.00026409
-0.00026161
-0.000259158
-0.000256736
-0.000254345
-0.000251987
-0.000249663
-0.00024737
-0.000245104
-0.00024286
-0.000240631
-0.000238413
-0.000236205
-0.000234008
-0.000231826
-0.000229664
-0.000227524
-0.000225405
-0.000223302
-0.000221208
-0.000219116
-0.000217018
-0.000214906
-0.00021277
-0.000210604
-0.000208395
-0.000206133
-0.000203808
-0.000201411
-0.000198934
-0.000196371
-0.000193716
-0.000190962
-0.000188103
-0.000185131
-0.000182039
-0.000178818
-0.000175463
-0.000171964
-0.000168313
-0.000164504
-0.000160531
-0.00015639
-0.00015208
-0.000147602
-0.000142964
-0.000138175
-0.000133249
-0.000128207
-0.000123072
-0.000117873
-0.00011264
-0.000107406
-0.000102205
-9.70738e-05
-9.20445e-05
-8.71479e-05
-8.24106e-05
-7.7856e-05
-7.35018e-05
-6.93606e-05
-6.54383e-05
-6.17347e-05
-5.82445e-05
-5.4958e-05
-5.18608e-05
-4.89386e-05
-4.61745e-05
-4.35548e-05
-4.1065e-05
-3.86953e-05
-3.6435e-05
-3.42789e-05
-3.222e-05
-3.02567e-05
-2.83838e-05
-2.66003e-05
-2.49e-05
-2.32808e-05
-2.1735e-05
-2.02594e-05
-1.88466e-05
-1.74927e-05
-1.61919e-05
-1.49397e-05
-1.37303e-05
-1.25588e-05
-1.14226e-05
-1.03165e-05
-9.24116e-06
-8.19397e-06
-7.17127e-06
-6.17536e-06
-5.19438e-06
-4.2392e-06
-3.28631e-06
-2.35786e-06
-1.41632e-06
-4.94999e-07
0.000925298
0.000868433
0.000793118
0.000699603
0.00059148
0.000474917
0.000357514
0.000246572
0.000147402
6.25439e-05
-7.89898e-06
-6.53059e-05
-0.000111609
-0.000148728
-0.000178394
-0.000202158
-0.000221351
-0.000237018
-0.0002499
-0.000260524
-0.000269284
-0.000276472
-0.000282305
-0.000286966
-0.000290621
-0.000293415
-0.000295461
-0.000296853
-0.000297673
-0.000297999
-0.000297899
-0.000297431
-0.000296649
-0.000295601
-0.000294331
-0.000292875
-0.000291264
-0.00028952
-0.000287662
-0.000285705
-0.000283658
-0.00028153
-0.00027933
-0.000277066
-0.00027475
-0.000272393
-0.000270008
-0.000267607
-0.000265199
-0.000262795
-0.0002604
-0.000258019
-0.000255654
-0.00025331
-0.000250987
-0.000248689
-0.000246417
-0.000244172
-0.000241952
-0.000239754
-0.000237574
-0.000235408
-0.000233252
-0.000231105
-0.000228968
-0.000226842
-0.000224732
-0.000222639
-0.000220562
-0.000218497
-0.000216438
-0.000214379
-0.000212312
-0.00021023
-0.000208124
-0.000205988
-0.00020381
-0.000201581
-0.000199291
-0.000196932
-0.000194496
-0.000191977
-0.000189368
-0.000186664
-0.000183856
-0.00018094
-0.000177907
-0.000174751
-0.000171464
-0.000168041
-0.000164472
-0.000160753
-0.000156879
-0.000152846
-0.000148653
-0.000144304
-0.000139803
-0.000135161
-0.000130392
-0.000125514
-0.00012055
-0.000115526
-0.00011047
-0.000105413
-0.000100388
-9.54257e-05
-9.05578e-05
-8.58124e-05
-8.12144e-05
-7.67861e-05
-7.25443e-05
-6.85018e-05
-6.46645e-05
-6.10336e-05
-5.76047e-05
-5.43699e-05
-5.13168e-05
-4.84324e-05
-4.57017e-05
-4.31118e-05
-4.06492e-05
-3.83048e-05
-3.60686e-05
-3.39353e-05
-3.18982e-05
-2.99553e-05
-2.8102e-05
-2.63371e-05
-2.46547e-05
-2.30526e-05
-2.15233e-05
-2.00637e-05
-1.86664e-05
-1.73277e-05
-1.60414e-05
-1.48032e-05
-1.36077e-05
-1.24501e-05
-1.13266e-05
-1.02342e-05
-9.17024e-06
-8.13588e-06
-7.12265e-06
-6.13839e-06
-5.16493e-06
-4.22007e-06
-3.27287e-06
-2.35199e-06
-1.41396e-06
-4.98421e-07
0.000853064
0.000801035
0.000734101
0.00065268
0.000559555
0.000459264
0.000357352
0.000259352
0.000169691
9.09664e-05
2.39158e-05
-3.20819e-05
-7.83461e-05
-0.000116366
-0.000147537
-0.000173103
-0.000194157
-0.000211603
-0.000226134
-0.000238266
-0.0002484
-0.00025684
-0.000263819
-0.000269528
-0.000274141
-0.000277812
-0.000280663
-0.000282798
-0.000284305
-0.000285266
-0.000285755
-0.000285833
-0.000285556
-0.000284975
-0.000284133
-0.000283072
-0.000281821
-0.000280409
-0.000278854
-0.000277176
-0.000275388
-0.000273502
-0.000271529
-0.00026948
-0.000267367
-0.000265203
-0.000262999
-0.000260767
-0.000258517
-0.000256259
-0.000254
-0.000251744
-0.000249496
-0.00024726
-0.000245039
-0.000242835
-0.000240649
-0.000238483
-0.000236337
-0.000234208
-0.000232093
-0.000229989
-0.000227894
-0.000225807
-0.000223727
-0.000221657
-0.000219599
-0.000217553
-0.000215518
-0.000213491
-0.000211467
-0.000209441
-0.000207405
-0.000205352
-0.000203276
-0.000201168
-0.00019902
-0.000196822
-0.000194566
-0.000192244
-0.000189847
-0.000187371
-0.000184808
-0.000182152
-0.000179397
-0.000176537
-0.000173564
-0.000170473
-0.000167257
-0.00016391
-0.000160425
-0.000156798
-0.000153024
-0.0001491
-0.000145027
-0.000140807
-0.000136446
-0.000131955
-0.000127345
-0.000122634
-0.000117844
-0.000112998
-0.000108123
-0.000103248
-9.84009e-05
-9.36126e-05
-8.89109e-05
-8.43222e-05
-7.98697e-05
-7.55745e-05
-7.14525e-05
-6.75159e-05
-6.37709e-05
-6.02195e-05
-5.68585e-05
-5.36817e-05
-5.06784e-05
-4.78376e-05
-4.51455e-05
-4.25904e-05
-4.01599e-05
-3.78456e-05
-3.5638e-05
-3.35319e-05
-3.15206e-05
-2.96023e-05
-2.77721e-05
-2.60289e-05
-2.43668e-05
-2.27839e-05
-2.12728e-05
-1.98306e-05
-1.84499e-05
-1.71274e-05
-1.58566e-05
-1.4634e-05
-1.34532e-05
-1.2311e-05
-1.12016e-05
-1.01248e-05
-9.0737e-06
-8.05386e-06
-7.05193e-06
-6.08097e-06
-5.11754e-06
-4.1842e-06
-3.24579e-06
-2.33408e-06
-1.40347e-06
-4.96298e-07
0.00078817
0.000740612
0.000680899
0.000609554
0.000528776
0.000441972
0.000353238
0.00026675
0.000186073
0.000113615
5.04418e-05
-3.52228e-06
-4.90718e-05
-8.72969e-05
-0.000119296
-0.000146064
-0.000168491
-0.000187342
-0.000203236
-0.000216658
-0.000227991
-0.000237545
-0.00024556
-0.000252232
-0.000257737
-0.000262231
-0.000265845
-0.000268688
-0.000270852
-0.000272425
-0.000273482
-0.000274089
-0.000274302
-0.000274175
-0.000273754
-0.000273079
-0.000272186
-0.000271101
-0.000269849
-0.00026845
-0.000266922
-0.000265279
-0.000263534
-0.000261699
-0.00025979
-0.000257817
-0.000255793
-0.00025373
-0.000251638
-0.000249527
-0.000247404
-0.000245276
-0.000243146
-0.00024102
-0.000238901
-0.000236792
-0.000234695
-0.000232611
-0.00023054
-0.000228481
-0.000226433
-0.000224393
-0.000222359
-0.000220332
-0.000218311
-0.000216296
-0.00021429
-0.000212292
-0.000210301
-0.000208314
-0.000206327
-0.000204335
-0.000202332
-0.00020031
-0.000198264
-0.000196187
-0.000194069
-0.000191904
-0.000189683
-0.000187398
-0.000185041
-0.000182608
-0.000180092
-0.000177486
-0.000174785
-0.000171982
-0.000169071
-0.000166047
-0.000162904
-0.000159635
-0.000156236
-0.000152702
-0.000149029
-0.000145217
-0.000141265
-0.000137176
-0.000132957
-0.000128616
-0.000124166
-0.000119623
-0.000115006
-0.000110339
-0.000105646
-0.000100952
-9.6284e-05
-9.16703e-05
-8.71364e-05
-8.27068e-05
-7.84031e-05
-7.42449e-05
-7.02468e-05
-6.64208e-05
-6.27731e-05
-5.93066e-05
-5.6019e-05
-5.29057e-05
-4.99575e-05
-4.71651e-05
-4.4516e-05
-4.20002e-05
-3.96061e-05
-3.73261e-05
-3.5151e-05
-3.30761e-05
-3.10945e-05
-2.92043e-05
-2.74004e-05
-2.56818e-05
-2.40424e-05
-2.24808e-05
-2.09896e-05
-1.95663e-05
-1.82034e-05
-1.68983e-05
-1.56439e-05
-1.44379e-05
-1.32725e-05
-1.21467e-05
-1.10524e-05
-9.99216e-06
-8.95542e-06
-7.9513e-06
-6.96264e-06
-6.00606e-06
-5.05491e-06
-4.13398e-06
-3.20697e-06
-2.3059e-06
-1.38621e-06
-4.8989e-07
0.000729495
0.000686052
0.00063262
0.000569777
0.000499287
0.000423743
0.000346211
0.000269849
0.000197483
0.000131215
7.22089e-05
2.07419e-05
-2.35624e-05
-6.14314e-05
-9.36934e-05
-0.00012114
-0.000144491
-0.000164381
-0.000181348
-0.000195827
-0.000208177
-0.000218697
-0.000227628
-0.000235167
-0.000241485
-0.000246741
-0.000251066
-0.000254574
-0.00025736
-0.000259514
-0.000261114
-0.000262227
-0.000262914
-0.000263226
-0.000263212
-0.000262915
-0.000262371
-0.00026161
-0.000260657
-0.000259536
-0.000258266
-0.000256865
-0.000255347
-0.000253727
-0.00025202
-0.000250237
-0.000248393
-0.000246499
-0.000244565
-0.000242601
-0.000240616
-0.000238615
-0.000236605
-0.000234591
-0.000232576
-0.000230564
-0.000228557
-0.000226556
-0.000224564
-0.000222578
-0.000220599
-0.000218624
-0.000216655
-0.000214688
-0.000212726
-0.000210768
-0.000208814
-0.000206866
-0.000204921
-0.000202976
-0.000201029
-0.000199074
-0.000197105
-0.000195118
-0.000193105
-0.000191061
-0.000188977
-0.000186847
-0.000184662
-0.000182416
-0.000180102
-0.000177714
-0.000175246
-0.000172693
-0.000170047
-0.000167304
-0.000164458
-0.000161504
-0.000158435
-0.000155248
-0.000151937
-0.000148498
-0.00014493
-0.00014123
-0.000137401
-0.000133444
-0.000129367
-0.000125177
-0.000120886
-0.000116511
-0.000112068
-0.000107578
-0.000103064
-9.85502e-05
-9.40607e-05
-8.9621e-05
-8.52549e-05
-8.09851e-05
-7.68312e-05
-7.28116e-05
-6.89401e-05
-6.5228e-05
-6.16818e-05
-5.83047e-05
-5.50953e-05
-5.20502e-05
-4.91618e-05
-4.64222e-05
-4.38205e-05
-4.13481e-05
-3.89945e-05
-3.67525e-05
-3.46135e-05
-3.2573e-05
-3.06243e-05
-2.87653e-05
-2.69906e-05
-2.52993e-05
-2.36853e-05
-2.21472e-05
-2.06777e-05
-1.9275e-05
-1.79312e-05
-1.66449e-05
-1.54078e-05
-1.42192e-05
-1.30701e-05
-1.19618e-05
-1.08835e-05
-9.84066e-06
-8.81962e-06
-7.83206e-06
-6.85841e-06
-5.91693e-06
-4.98e-06
-4.07237e-06
-3.15896e-06
-2.27012e-06
-1.36409e-06
-4.80824e-07
0.000676138
0.000636475
0.000588545
0.000532949
0.000471115
0.000405045
0.00033706
0.00026956
0.000204762
0.000144431
8.97033e-05
4.10541e-05
-1.58407e-06
-3.86359e-05
-7.06921e-05
-9.83692e-05
-0.000122242
-0.00014283
-0.000160583
-0.000175887
-0.000189065
-0.000200398
-0.000210118
-0.000218417
-0.000225462
-0.000231407
-0.000236384
-0.000240507
-0.000243874
-0.000246574
-0.000248686
-0.000250281
-0.000251418
-0.000252151
-0.000252531
-0.000252599
-0.000252395
-0.00025195
-0.000251291
-0.000250443
-0.000249429
-0.000248268
-0.000246976
-0.000245568
-0.00024406
-0.000242467
-0.000240801
-0.000239074
-0.000237298
-0.000235482
-0.000233634
-0.000231763
-0.000229874
-0.000227972
-0.000226063
-0.000224149
-0.000222234
-0.000220319
-0.000218407
-0.000216497
-0.000214589
-0.000212683
-0.000210778
-0.000208875
-0.000206973
-0.000205073
-0.000203174
-0.000201277
-0.00019938
-0.00019748
-0.000195575
-0.000193659
-0.000191729
-0.000189779
-0.000187803
-0.000185795
-0.000183748
-0.000181655
-0.000179511
-0.000177307
-0.000175038
-0.000172698
-0.000170282
-0.000167783
-0.000165196
-0.000162516
-0.000159737
-0.000156855
-0.000153865
-0.000150761
-0.000147541
-0.000144201
-0.000140739
-0.000137155
-0.000133449
-0.000129626
-0.00012569
-0.000121652
-0.000117521
-0.000113311
-0.00010904
-0.000104727
-0.000100391
-9.60554e-05
-9.17426e-05
-8.74758e-05
-8.32766e-05
-7.91659e-05
-7.51622e-05
-7.12823e-05
-6.75394e-05
-6.3944e-05
-6.05026e-05
-5.72187e-05
-5.40918e-05
-5.11194e-05
-4.82952e-05
-4.56127e-05
-4.30628e-05
-4.06379e-05
-3.83283e-05
-3.61277e-05
-3.40281e-05
-3.20251e-05
-3.01122e-05
-2.82872e-05
-2.65445e-05
-2.48831e-05
-2.32968e-05
-2.17844e-05
-2.03386e-05
-1.89584e-05
-1.76354e-05
-1.63691e-05
-1.51507e-05
-1.39809e-05
-1.28494e-05
-1.17592e-05
-1.06982e-05
-9.67336e-06
-8.66938e-06
-7.69909e-06
-6.74199e-06
-5.81635e-06
-4.8953e-06
-4.00208e-06
-3.10401e-06
-2.22899e-06
-1.33868e-06
-4.70422e-07
0.000627359
0.000591162
0.00054808
0.000498713
0.000444232
0.000386194
0.000326374
0.000266607
0.000208622
0.000153872
0.000103399
5.77707e-05
1.71211e-05
-1.87447e-05
-5.02153e-05
-7.77486e-05
-0.000101793
-0.000122763
-0.000141033
-0.000156933
-0.000170752
-0.00018274
-0.000193116
-0.000202062