/*--------------------------------*- C++ -*----------------------------------*\
| =========                 |                                                 |
| \\      /  F ield         | OpenFOAM: The Open Source CFD Toolbox           |
|  \\    /   O peration     | Version:  2.3.0                                 |
|   \\  /    A nd           | Web:      www.OpenFOAM.org                      |
|    \\/     M anipulation  |                                                 |
\*---------------------------------------------------------------------------*/
FoamFile
{
    version     2.0;
    format      ascii;
    class       volVectorField;
    location    "0.7";
    object      U_0;
}
// * * * * * * * * * * * * * * * * * * * * * * * * * * * * * * * * * * * * * //

dimensions      [0 1 -1 0 0 0 0];

internalField   nonuniform List<vector> 
2889
(
(0.173575 0.00566416 0)
(0.156962 0.00590267 0)
(0.141231 0.00557702 0)
(0.126264 0.00501883 0)
(0.112434 0.00438004 0)
(0.0999638 0.00372368 0)
(0.0888935 0.00308811 0)
(0.0791956 0.00250013 0)
(0.0708169 0.00197664 0)
(0.0636777 0.00152663 0)
(0.0576699 0.00115271 0)
(0.0526652 0.000852288 0)
(0.0485255 0.000618723 0)
(0.0451132 0.000442833 0)
(0.0422984 0.000314414 0)
(0.0399645 0.000223464 0)
(0.0380111 0.00016098 0)
(0.0363551 0.000119354 0)
(0.0349297 9.24632e-05 0)
(0.0336829 7.55919e-05 0)
(0.0325755 6.52498e-05 0)
(0.0315778 5.896e-05 0)
(0.0306682 5.50412e-05 0)
(0.029831 5.24081e-05 0)
(0.0290546 5.03995e-05 0)
(0.0283304 4.86419e-05 0)
(0.027652 4.69453e-05 0)
(0.0270143 4.52304e-05 0)
(0.0264133 4.34791e-05 0)
(0.0258456 4.17029e-05 0)
(0.0253083 3.99248e-05 0)
(0.0247991 3.8169e-05 0)
(0.0243156 3.64562e-05 0)
(0.0238559 3.4802e-05 0)
(0.0234182 3.32167e-05 0)
(0.0230009 3.17063e-05 0)
(0.0226025 3.02733e-05 0)
(0.0222217 2.89174e-05 0)
(0.0218572 2.76369e-05 0)
(0.021508 2.64289e-05 0)
(0.0211731 2.52897e-05 0)
(0.0208515 2.42154e-05 0)
(0.0205425 2.32023e-05 0)
(0.0202451 2.22462e-05 0)
(0.0199588 2.13436e-05 0)
(0.019683 2.04908e-05 0)
(0.0194169 1.96846e-05 0)
(0.0191601 1.89218e-05 0)
(0.0189121 1.81997e-05 0)
(0.0186723 1.75155e-05 0)
(0.0184405 1.68667e-05 0)
(0.018216 1.62511e-05 0)
(0.0179987 1.56666e-05 0)
(0.0177881 1.51112e-05 0)
(0.0175839 1.45831e-05 0)
(0.0173858 1.40805e-05 0)
(0.0171935 1.36021e-05 0)
(0.0170068 1.31462e-05 0)
(0.0168254 1.27115e-05 0)
(0.016649 1.22968e-05 0)
(0.0164775 1.19009e-05 0)
(0.0163106 1.15228e-05 0)
(0.0161482 1.11613e-05 0)
(0.01599 1.08156e-05 0)
(0.0158359 1.04847e-05 0)
(0.0156858 1.0168e-05 0)
(0.0155394 9.86448e-06 0)
(0.0153966 9.57361e-06 0)
(0.0152574 9.29469e-06 0)
(0.0151215 9.02712e-06 0)
(0.0149888 8.77034e-06 0)
(0.0148593 8.52381e-06 0)
(0.0147328 8.28711e-06 0)
(0.0146091 8.05978e-06 0)
(0.0144883 7.84143e-06 0)
(0.0143702 7.63173e-06 0)
(0.0142548 7.43034e-06 0)
(0.0141418 7.237e-06 0)
(0.0140313 7.05145e-06 0)
(0.0139232 6.8735e-06 0)
(0.0138174 6.70299e-06 0)
(0.0137137 6.53979e-06 0)
(0.0136122 6.38381e-06 0)
(0.0135128 6.23501e-06 0)
(0.0134154 6.09339e-06 0)
(0.0133198 5.95902e-06 0)
(0.0132261 5.83201e-06 0)
(0.0131342 5.71257e-06 0)
(0.0130439 5.60096e-06 0)
(0.0129552 5.49764e-06 0)
(0.012868 5.40323e-06 0)
(0.0127821 5.31871e-06 0)
(0.0126976 5.24566e-06 0)
(0.0126142 5.18692e-06 0)
(0.0125317 5.14801e-06 0)
(0.0124499 5.14125e-06 0)
(0.0123683 5.20241e-06 0)
(0.0122851 5.35725e-06 0)
(0.0122133 4.96334e-06 0)
(0.0119898 3.13954e-05 0)
(0.192743 0.00906224 0)
(0.190447 0.00979755 0)
(0.186687 0.00969143 0)
(0.181675 0.00923625 0)
(0.175863 0.00862731 0)
(0.169617 0.00792539 0)
(0.163173 0.0071682 0)
(0.156699 0.00639033 0)
(0.15033 0.00562155 0)
(0.144166 0.00488629 0)
(0.13828 0.00420377 0)
(0.132712 0.00358758 0)
(0.127486 0.00304533 0)
(0.122607 0.0025791 0)
(0.118069 0.00218624 0)
(0.113859 0.00186073 0)
(0.109957 0.00159448 0)
(0.106341 0.00137854 0)
(0.102989 0.00120404 0)
(0.0998791 0.00106286 0)
(0.0969878 0.000947969 0)
(0.0942953 0.000853553 0)
(0.0917824 0.000774979 0)
(0.089432 0.000708656 0)
(0.0872287 0.000651864 0)
(0.0851586 0.000602571 0)
(0.0832096 0.00055927 0)
(0.0813706 0.000520847 0)
(0.0796322 0.00048647 0)
(0.0779856 0.000455507 0)
(0.0764234 0.000427471 0)
(0.0749387 0.000401975 0)
(0.0735255 0.000378706 0)
(0.0721783 0.000357402 0)
(0.0708923 0.000337843 0)
(0.0696631 0.000319841 0)
(0.0684868 0.000303231 0)
(0.0673598 0.00028787 0)
(0.0662788 0.000273632 0)
(0.0652409 0.000260408 0)
(0.0642434 0.000248101 0)
(0.0632839 0.000236625 0)
(0.06236 0.000225904 0)
(0.0614698 0.000215872 0)
(0.0606113 0.000206468 0)
(0.0597827 0.00019764 0)
(0.0589825 0.000189342 0)
(0.0582092 0.00018153 0)
(0.0574613 0.000174167 0)
(0.0567376 0.000167218 0)
(0.0560368 0.000160654 0)
(0.0553579 0.000154445 0)
(0.0546998 0.000148567 0)
(0.0540615 0.000142997 0)
(0.0534421 0.000137713 0)
(0.0528408 0.000132697 0)
(0.0522566 0.00012793 0)
(0.051689 0.000123396 0)
(0.0511372 0.00011908 0)
(0.0506004 0.000114969 0)
(0.0500782 0.00011105 0)
(0.0495698 0.00010731 0)
(0.0490748 0.000103739 0)
(0.0485926 0.000100326 0)
(0.0481227 9.70632e-05 0)
(0.0476646 9.39405e-05 0)
(0.047218 9.09501e-05 0)
(0.0467824 8.80846e-05 0)
(0.0463574 8.53369e-05 0)
(0.0459426 8.27005e-05 0)
(0.0455377 8.01693e-05 0)
(0.0451423 7.77378e-05 0)
(0.0447562 7.54007e-05 0)
(0.0443791 7.31534e-05 0)
(0.0440105 7.09913e-05 0)
(0.0436504 6.89103e-05 0)
(0.0432984 6.69069e-05 0)
(0.0429542 6.49775e-05 0)
(0.0426178 6.31192e-05 0)
(0.0422887 6.13291e-05 0)
(0.0419668 5.96048e-05 0)
(0.0416519 5.79444e-05 0)
(0.0413438 5.63459e-05 0)
(0.0410423 5.48079e-05 0)
(0.0407472 5.33294e-05 0)
(0.0404583 5.19097e-05 0)
(0.0401754 5.05485e-05 0)
(0.0398983 4.92461e-05 0)
(0.0396268 4.80034e-05 0)
(0.0393607 4.68222e-05 0)
(0.0390997 4.57053e-05 0)
(0.0388437 4.46576e-05 0)
(0.0385923 4.36876e-05 0)
(0.0383452 4.28102e-05 0)
(0.038102 4.20562e-05 0)
(0.0378622 4.14964e-05 0)
(0.0376245 4.13168e-05 0)
(0.0373858 4.19737e-05 0)
(0.0371612 4.68358e-05 0)
(0.0367114 0.000108568 0)
(0.195703 0.00869937 0)
(0.196503 0.00980725 0)
(0.196751 0.0102439 0)
(0.196229 0.0102971 0)
(0.19501 0.0101088 0)
(0.193215 0.0097296 0)
(0.19094 0.00920181 0)
(0.188272 0.00857309 0)
(0.1853 0.00788857 0)
(0.18211 0.00718697 0)
(0.178778 0.00649956 0)
(0.175368 0.00584973 0)
(0.171933 0.00525283 0)
(0.168511 0.00471684 0)
(0.165134 0.00424366 0)
(0.161823 0.00383077 0)
(0.15859 0.00347287 0)
(0.155446 0.00316328 0)
(0.152394 0.00289503 0)
(0.149437 0.00266153 0)
(0.146575 0.00245699 0)
(0.143806 0.0022765 0)
(0.141129 0.00211604 0)
(0.138542 0.0019724 0)
(0.136041 0.001843 0)
(0.133625 0.00172581 0)
(0.131291 0.00161919 0)
(0.129035 0.00152184 0)
(0.126856 0.00143267 0)
(0.12475 0.00135078 0)
(0.122715 0.0012754 0)
(0.120748 0.00120588 0)
(0.118847 0.00114164 0)
(0.117008 0.00108217 0)
(0.11523 0.00102703 0)
(0.11351 0.000975818 0)
(0.111846 0.000928174 0)
(0.110234 0.000883782 0)
(0.108674 0.000842355 0)
(0.107163 0.000803637 0)
(0.105699 0.000767397 0)
(0.10428 0.00073343 0)
(0.102904 0.000701548 0)
(0.10157 0.000671585 0)
(0.100275 0.000643389 0)
(0.099018 0.000616825 0)
(0.0977975 0.000591769 0)
(0.096612 0.000568108 0)
(0.09546 0.000545743 0)
(0.0943403 0.000524579 0)
(0.0932514 0.000504534 0)
(0.0921923 0.00048553 0)
(0.0911617 0.000467496 0)
(0.0901586 0.000450369 0)
(0.0891819 0.000434088 0)
(0.0882306 0.000418599 0)
(0.0873038 0.000403853 0)
(0.0864005 0.000389801 0)
(0.0855199 0.000376402 0)
(0.0846613 0.000363615 0)
(0.0838237 0.000351403 0)
(0.0830066 0.000339733 0)
(0.0822091 0.000328571 0)
(0.0814306 0.000317889 0)
(0.0806705 0.000307658 0)
(0.0799282 0.000297853 0)
(0.079203 0.00028845 0)
(0.0784945 0.000279426 0)
(0.0778022 0.000270761 0)
(0.0771254 0.000262434 0)
(0.0764639 0.000254428 0)
(0.075817 0.000246726 0)
(0.0751845 0.000239312 0)
(0.0745658 0.000232172 0)
(0.0739606 0.000225291 0)
(0.0733686 0.000218656 0)
(0.0727893 0.000212258 0)
(0.0722225 0.000206084 0)
(0.0716678 0.000200125 0)
(0.071125 0.000194371 0)
(0.0705936 0.000188816 0)
(0.0700736 0.000183452 0)
(0.0695644 0.000178272 0)
(0.069066 0.000173272 0)
(0.068578 0.000168448 0)
(0.0681001 0.000163795 0)
(0.0676322 0.000159313 0)
(0.0671739 0.000155001 0)
(0.066725 0.000150859 0)
(0.0662852 0.000146892 0)
(0.0658542 0.000143105 0)
(0.0654317 0.000139509 0)
(0.0650173 0.000136125 0)
(0.0646107 0.000132987 0)
(0.0642112 0.00013017 0)
(0.0638182 0.000127843 0)
(0.0634303 0.000126454 0)
(0.0630441 0.000127418 0)
(0.0626688 0.000140924 0)
(0.0620833 0.000217707 0)
(0.196729 0.00806335 0)
(0.197883 0.00920885 0)
(0.198984 0.00985095 0)
(0.199796 0.0101444 0)
(0.20027 0.0101936 0)
(0.200408 0.0100423 0)
(0.200211 0.00972523 0)
(0.199684 0.00928305 0)
(0.198849 0.00875698 0)
(0.197739 0.00818425 0)
(0.196396 0.00759664 0)
(0.19486 0.0070196 0)
(0.193172 0.00647172 0)
(0.191366 0.0059648 0)
(0.189475 0.00550471 0)
(0.187524 0.00509268 0)
(0.185533 0.00472668 0)
(0.183517 0.00440269 0)
(0.181489 0.00411577 0)
(0.179458 0.00386077 0)
(0.177429 0.00363287 0)
(0.175407 0.00342776 0)
(0.173397 0.00324181 0)
(0.171402 0.003072 0)
(0.169423 0.00291593 0)
(0.167462 0.00277167 0)
(0.165523 0.0026377 0)
(0.163606 0.0025128 0)
(0.161712 0.002396 0)
(0.159843 0.00228652 0)
(0.158001 0.00218368 0)
(0.156185 0.00208694 0)
(0.154397 0.00199581 0)
(0.152638 0.00190987 0)
(0.150907 0.00182876 0)
(0.149206 0.00175212 0)
(0.147534 0.00167964 0)
(0.145892 0.00161106 0)
(0.144279 0.00154612 0)
(0.142697 0.00148456 0)
(0.141144 0.00142619 0)
(0.13962 0.00137079 0)
(0.138126 0.00131817 0)
(0.136661 0.00126818 0)
(0.135224 0.00122064 0)
(0.133816 0.00117542 0)
(0.132435 0.00113236 0)
(0.131082 0.00109135 0)
(0.129756 0.00105226 0)
(0.128457 0.00101498 0)
(0.127183 0.000979418 0)
(0.125935 0.000945465 0)
(0.124712 0.000913033 0)
(0.123514 0.000882039 0)
(0.12234 0.000852403 0)
(0.121189 0.000824051 0)
(0.120061 0.000796912 0)
(0.118956 0.000770921 0)
(0.117872 0.000746016 0)
(0.116811 0.00072214 0)
(0.11577 0.000699237 0)
(0.11475 0.000677257 0)
(0.11375 0.000656151 0)
(0.112769 0.000635874 0)
(0.111808 0.000616382 0)
(0.110865 0.000597635 0)
(0.109941 0.000579595 0)
(0.109035 0.000562225 0)
(0.108146 0.000545493 0)
(0.107275 0.000529366 0)
(0.10642 0.000513813 0)
(0.105582 0.000498807 0)
(0.104759 0.000484321 0)
(0.103953 0.000470331 0)
(0.103162 0.000456812 0)
(0.102386 0.000443744 0)
(0.101625 0.000431105 0)
(0.100878 0.000418877 0)
(0.100146 0.000407043 0)
(0.0994279 0.000395586 0)
(0.0987234 0.000384493 0)
(0.0980324 0.000373751 0)
(0.0973547 0.000363347 0)
(0.0966901 0.000353273 0)
(0.0960382 0.000343521 0)
(0.0953989 0.000334083 0)
(0.0947719 0.000324957 0)
(0.094157 0.000316139 0)
(0.0935539 0.000307632 0)
(0.0929624 0.00029944 0)
(0.0923822 0.000291573 0)
(0.091813 0.000284048 0)
(0.0912544 0.000276899 0)
(0.0907061 0.000270184 0)
(0.0901676 0.000264025 0)
(0.0896379 0.000258699 0)
(0.0891159 0.000254951 0)
(0.0885989 0.000255277 0)
(0.0880932 0.000272868 0)
(0.0874103 0.000346478 0)
(0.197449 0.00755648 0)
(0.198471 0.00860709 0)
(0.199583 0.00927155 0)
(0.200617 0.00963765 0)
(0.201516 0.00978559 0)
(0.202257 0.00975487 0)
(0.202818 0.00957278 0)
(0.203177 0.00927007 0)
(0.203325 0.0088795 0)
(0.203265 0.00843222 0)
(0.20301 0.00795601 0)
(0.202577 0.00747432 0)
(0.201989 0.0070054 0)
(0.201269 0.00656202 0)
(0.200439 0.00615182 0)
(0.199517 0.00577813 0)
(0.198522 0.00544103 0)
(0.197467 0.00513845 0)
(0.196363 0.00486706 0)
(0.195218 0.00462304 0)
(0.194039 0.00440253 0)
(0.19283 0.00420199 0)
(0.191597 0.0040183 0)
(0.190343 0.00384887 0)
(0.189069 0.00369156 0)
(0.18778 0.00354465 0)
(0.186476 0.0034068 0)
(0.18516 0.00327691 0)
(0.183834 0.00315412 0)
(0.182501 0.00303774 0)
(0.181161 0.0029272 0)
(0.179817 0.00282203 0)
(0.178469 0.00272181 0)
(0.177121 0.0026262 0)
(0.175773 0.00253489 0)
(0.174426 0.00244761 0)
(0.173082 0.00236412 0)
(0.171742 0.00228418 0)
(0.170406 0.00220761 0)
(0.169078 0.00213421 0)
(0.167756 0.00206382 0)
(0.166442 0.00199627 0)
(0.165136 0.00193143 0)
(0.16384 0.00186916 0)
(0.162554 0.00180933 0)
(0.161279 0.00175183 0)
(0.160015 0.00169655 0)
(0.158763 0.00164338 0)
(0.157522 0.00159224 0)
(0.156294 0.00154302 0)
(0.155079 0.00149565 0)
(0.153877 0.00145004 0)
(0.152688 0.00140611 0)
(0.151513 0.00136379 0)
(0.150351 0.00132301 0)
(0.149204 0.00128371 0)
(0.14807 0.00124582 0)
(0.14695 0.00120928 0)
(0.145844 0.00117403 0)
(0.144753 0.00114001 0)
(0.143675 0.00110718 0)
(0.142612 0.00107547 0)
(0.141563 0.00104485 0)
(0.140527 0.00101526 0)
(0.139506 0.000986668 0)
(0.1385 0.000959019 0)
(0.137507 0.000932275 0)
(0.136527 0.000906399 0)
(0.135562 0.000881352 0)
(0.134611 0.000857098 0)
(0.133673 0.000833603 0)
(0.132749 0.000810836 0)
(0.131838 0.000788763 0)
(0.130941 0.000767357 0)
(0.130057 0.00074659 0)
(0.129186 0.000726435 0)
(0.128329 0.000706867 0)
(0.127484 0.000687865 0)
(0.126653 0.000669405 0)
(0.125834 0.000651469 0)
(0.125028 0.000634039 0)
(0.124235 0.000617098 0)
(0.123454 0.000600633 0)
(0.122686 0.00058463 0)
(0.12193 0.000569081 0)
(0.121187 0.000553976 0)
(0.120456 0.000539313 0)
(0.119737 0.000525088 0)
(0.119029 0.000511305 0)
(0.118334 0.000497971 0)
(0.11765 0.000485102 0)
(0.116978 0.000472722 0)
(0.116317 0.000460879 0)
(0.115666 0.000449656 0)
(0.115026 0.000439221 0)
(0.114396 0.000429955 0)
(0.113775 0.000422859 0)
(0.113161 0.00042114 0)
(0.112562 0.000437293 0)
(0.111815 0.000494697 0)
(0.198052 0.00711084 0)
(0.198907 0.00804263 0)
(0.199879 0.00868139 0)
(0.200853 0.00907071 0)
(0.201774 0.00926648 0)
(0.202618 0.00930241 0)
(0.203364 0.00920177 0)
(0.203989 0.0089895 0)
(0.204479 0.0086927 0)
(0.204828 0.00833782 0)
(0.205037 0.0079489 0)
(0.205115 0.00754669 0)
(0.205071 0.00714789 0)
(0.204919 0.00676479 0)
(0.204675 0.00640537 0)
(0.20435 0.0060739 0)
(0.203957 0.00577167 0)
(0.203507 0.0054979 0)
(0.203007 0.00525046 0)
(0.202465 0.00502656 0)
(0.201885 0.0048232 0)
(0.201272 0.00463748 0)
(0.200627 0.00446676 0)
(0.199954 0.00430877 0)
(0.199254 0.00416159 0)
(0.198529 0.00402367 0)
(0.19778 0.00389373 0)
(0.197009 0.00377077 0)
(0.196217 0.00365396 0)
(0.195404 0.00354266 0)
(0.194573 0.00343633 0)
(0.193724 0.00333452 0)
(0.192859 0.00323687 0)
(0.191979 0.00314307 0)
(0.191085 0.00305285 0)
(0.190178 0.00296597 0)
(0.189259 0.00288224 0)
(0.188329 0.00280146 0)
(0.187389 0.00272347 0)
(0.186441 0.00264813 0)
(0.185485 0.00257531 0)
(0.184522 0.00250487 0)
(0.183553 0.00243672 0)
(0.182579 0.00237075 0)
(0.181601 0.00230687 0)
(0.18062 0.00224498 0)
(0.179635 0.00218502 0)
(0.178649 0.0021269 0)
(0.177661 0.00207056 0)
(0.176673 0.00201593 0)
(0.175685 0.00196295 0)
(0.174698 0.00191155 0)
(0.173711 0.00186169 0)
(0.172727 0.0018133 0)
(0.171744 0.00176634 0)
(0.170765 0.00172075 0)
(0.169788 0.00167649 0)
(0.168815 0.00163352 0)
(0.167846 0.00159178 0)
(0.166882 0.00155124 0)
(0.165922 0.00151185 0)
(0.164967 0.00147358 0)
(0.164018 0.00143638 0)
(0.163075 0.00140021 0)
(0.162137 0.00136505 0)
(0.161206 0.00133084 0)
(0.160281 0.00129757 0)
(0.159363 0.00126519 0)
(0.158452 0.00123368 0)
(0.157548 0.00120299 0)
(0.156652 0.00117311 0)
(0.155763 0.001144 0)
(0.154882 0.00111564 0)
(0.154009 0.00108799 0)
(0.153144 0.00106104 0)
(0.152287 0.00103476 0)
(0.151439 0.00100912 0)
(0.150599 0.000984104 0)
(0.149767 0.000959694 0)
(0.148945 0.000935869 0)
(0.148131 0.000912613 0)
(0.147327 0.000889912 0)
(0.146531 0.000867752 0)
(0.145745 0.000846122 0)
(0.144967 0.000825015 0)
(0.1442 0.000804425 0)
(0.143441 0.00078435 0)
(0.142692 0.000764792 0)
(0.141953 0.000745757 0)
(0.141223 0.000727259 0)
(0.140503 0.00070932 0)
(0.139792 0.000691977 0)
(0.13909 0.00067529 0)
(0.138398 0.000659367 0)
(0.137714 0.000644417 0)
(0.137039 0.000630894 0)
(0.136373 0.000619935 0)
(0.135714 0.000614778 0)
(0.135074 0.000624877 0)
(0.134308 0.000658368 0)
(0.198566 0.00672146 0)
(0.199285 0.00754262 0)
(0.200117 0.00814213 0)
(0.200981 0.00853477 0)
(0.201829 0.00875564 0)
(0.202633 0.00883176 0)
(0.203374 0.00878369 0)
(0.204035 0.00863271 0)
(0.204602 0.00840194 0)
(0.205068 0.00811424 0)
(0.205433 0.00779063 0)
(0.2057 0.00744946 0)
(0.205876 0.00710582 0)
(0.20597 0.00677118 0)
(0.205991 0.00645344 0)
(0.205951 0.00615731 0)
(0.205857 0.00588484 0)
(0.205719 0.00563617 0)
(0.205543 0.0054101 0)
(0.205333 0.00520466 0)
(0.205094 0.00501755 0)
(0.204828 0.00484638 0)
(0.204539 0.00468894 0)
(0.204226 0.00454322 0)
(0.203892 0.00440752 0)
(0.203537 0.00428039 0)
(0.203161 0.00416063 0)
(0.202766 0.00404727 0)
(0.202352 0.00393952 0)
(0.201919 0.00383674 0)
(0.201467 0.0037384 0)
(0.200998 0.00364407 0)
(0.200511 0.00355338 0)
(0.200008 0.00346602 0)
(0.199488 0.00338174 0)
(0.198953 0.00330031 0)
(0.198402 0.00322154 0)
(0.197837 0.00314524 0)
(0.197258 0.00307128 0)
(0.196665 0.00299952 0)
(0.196059 0.00292984 0)
(0.195441 0.00286212 0)
(0.194812 0.00279628 0)
(0.194171 0.00273223 0)
(0.193519 0.00266989 0)
(0.192857 0.00260919 0)
(0.192186 0.00255006 0)
(0.191506 0.00249244 0)
(0.190817 0.00243629 0)
(0.190121 0.00238153 0)
(0.189417 0.00232814 0)
(0.188706 0.00227606 0)
(0.187988 0.00222525 0)
(0.187265 0.00217566 0)
(0.186536 0.00212727 0)
(0.185803 0.00208004 0)
(0.185065 0.00203393 0)
(0.184322 0.0019889 0)
(0.183577 0.00194492 0)
(0.182828 0.00190197 0)
(0.182076 0.00186 0)
(0.181322 0.001819 0)
(0.180566 0.00177893 0)
(0.179808 0.00173976 0)
(0.179049 0.00170147 0)
(0.17829 0.00166402 0)
(0.17753 0.00162739 0)
(0.176769 0.00159156 0)
(0.176009 0.00155651 0)
(0.17525 0.00152219 0)
(0.174491 0.00148861 0)
(0.173734 0.00145572 0)
(0.172978 0.00142351 0)
(0.172224 0.00139195 0)
(0.171472 0.00136103 0)
(0.170723 0.00133074 0)
(0.169976 0.00130104 0)
(0.169232 0.00127192 0)
(0.168491 0.00124337 0)
(0.167754 0.00121537 0)
(0.16702 0.00118792 0)
(0.166291 0.00116099 0)
(0.165565 0.00113459 0)
(0.164845 0.0011087 0)
(0.164128 0.00108332 0)
(0.163417 0.00105845 0)
(0.162711 0.0010341 0)
(0.16201 0.00101027 0)
(0.161314 0.000986977 0)
(0.160624 0.000964239 0)
(0.15994 0.000942089 0)
(0.159261 0.000920574 0)
(0.158589 0.00089977 0)
(0.157922 0.000879805 0)
(0.157261 0.000860912 0)
(0.156606 0.000843574 0)
(0.155957 0.000828883 0)
(0.155315 0.000819478 0)
(0.154693 0.00082076 0)
(0.15396 0.000828084 0)
(0.199004 0.00637912 0)
(0.199618 0.00710169 0)
(0.200331 0.00765568 0)
(0.201087 0.00803973 0)
(0.201847 0.00827351 0)
(0.202582 0.00837719 0)
(0.203272 0.00836825 0)
(0.203902 0.00826471 0)
(0.20446 0.00808612 0)
(0.204939 0.00785216 0)
(0.205339 0.00758122 0)
(0.20566 0.00728955 0)
(0.205909 0.00699082 0)
(0.206093 0.0066957 0)
(0.206219 0.00641192 0)
(0.206295 0.00614444 0)
(0.206329 0.00589591 0)
(0.206329 0.00566716 0)
(0.2063 0.00545777 0)
(0.206246 0.00526649 0)
(0.206171 0.00509163 0)
(0.206077 0.00493132 0)
(0.205967 0.00478372 0)
(0.205842 0.00464714 0)
(0.205702 0.00452005 0)
(0.205549 0.00440116 0)
(0.205382 0.00428935 0)
(0.205202 0.0041837 0)
(0.205009 0.00408345 0)
(0.204803 0.00398796 0)
(0.204584 0.00389672 0)
(0.204352 0.00380927 0)
(0.204107 0.00372526 0)
(0.20385 0.00364438 0)
(0.20358 0.00356634 0)
(0.203298 0.00349093 0)
(0.203003 0.00341794 0)
(0.202697 0.0033472 0)
(0.202378 0.00327855 0)
(0.202047 0.00321186 0)
(0.201705 0.003147 0)
(0.201352 0.00308387 0)
(0.200987 0.00302237 0)
(0.200611 0.00296241 0)
(0.200224 0.00290392 0)
(0.199826 0.00284683 0)
(0.199418 0.00279107 0)
(0.199 0.00273659 0)
(0.198572 0.00268333 0)
(0.198135 0.00263125 0)
(0.197688 0.0025803 0)
(0.197232 0.00253044 0)
(0.196767 0.00248163 0)
(0.196294 0.00243384 0)
(0.195812 0.00238703 0)
(0.195322 0.00234117 0)
(0.194825 0.00229624 0)
(0.19432 0.00225219 0)
(0.193808 0.00220901 0)
(0.193289 0.00216666 0)
(0.192764 0.00212512 0)
(0.192232 0.00208437 0)
(0.191694 0.00204438 0)
(0.191151 0.00200514 0)
(0.190602 0.0019666 0)
(0.190048 0.00192876 0)
(0.18949 0.0018916 0)
(0.188927 0.00185508 0)
(0.188359 0.0018192 0)
(0.187788 0.00178392 0)
(0.187213 0.00174924 0)
(0.186635 0.00171513 0)
(0.186053 0.00168158 0)
(0.185469 0.00164857 0)
(0.184883 0.00161608 0)
(0.184294 0.00158411 0)
(0.183703 0.00155262 0)
(0.183111 0.00152162 0)
(0.182517 0.00149109 0)
(0.181922 0.00146102 0)
(0.181327 0.0014314 0)
(0.180731 0.00140223 0)
(0.180134 0.00137349 0)
(0.179538 0.0013452 0)
(0.178942 0.00131735 0)
(0.178347 0.00128995 0)
(0.177752 0.001263 0)
(0.177158 0.00123652 0)
(0.176566 0.00121053 0)
(0.175975 0.00118506 0)
(0.175385 0.00116014 0)
(0.174797 0.00113584 0)
(0.174212 0.00111225 0)
(0.173628 0.00108949 0)
(0.173047 0.00106782 0)
(0.172468 0.00104768 0)
(0.171892 0.00102995 0)
(0.171321 0.0010163 0)
(0.170768 0.00100817 0)
(0.170118 0.000992114 0)
(0.199374 0.00607242 0)
(0.199906 0.00670871 0)
(0.20052 0.00721569 0)
(0.201183 0.00758434 0)
(0.201859 0.00782367 0)
(0.202523 0.00794749 0)
(0.203154 0.00796979 0)
(0.203738 0.00790551 0)
(0.204264 0.00777096 0)
(0.204725 0.00758287 0)
(0.205121 0.00735722 0)
(0.205451 0.0071084 0)
(0.205719 0.00684869 0)
(0.205931 0.00658803 0)
(0.206094 0.00633383 0)
(0.206215 0.0060912 0)
(0.2063 0.00586319 0)
(0.206355 0.00565125 0)
(0.206387 0.00545557 0)
(0.206398 0.00527553 0)
(0.206393 0.00511003 0)
(0.206374 0.00495766 0)
(0.206344 0.004817 0)
(0.206303 0.00468663 0)
(0.206253 0.00456526 0)
(0.206194 0.00445173 0)
(0.206127 0.00434507 0)
(0.206052 0.00424442 0)
(0.20597 0.00414906 0)
(0.205879 0.00405838 0)
(0.205781 0.00397189 0)
(0.205676 0.00388914 0)
(0.205563 0.00380977 0)
(0.205442 0.00373348 0)
(0.205313 0.00365999 0)
(0.205176 0.00358907 0)
(0.205032 0.00352051 0)
(0.20488 0.00345413 0)
(0.20472 0.00338977 0)
(0.204551 0.0033273 0)
(0.204375 0.00326659 0)
(0.204191 0.00320752 0)
(0.203999 0.00315 0)
(0.203799 0.00309393 0)
(0.203591 0.00303923 0)
(0.203375 0.00298583 0)
(0.20315 0.00293367 0)
(0.202918 0.00288267 0)
(0.202678 0.00283279 0)
(0.20243 0.00278398 0)
(0.202174 0.00273618 0)
(0.20191 0.00268936 0)
(0.201638 0.00264347 0)
(0.201359 0.00259848 0)
(0.201072 0.00255435 0)
(0.200777 0.00251105 0)
(0.200475 0.00246855 0)
(0.200166 0.00242681 0)
(0.199849 0.00238581 0)
(0.199525 0.00234552 0)
(0.199195 0.00230593 0)
(0.198857 0.00226699 0)
(0.198512 0.00222869 0)
(0.198161 0.002191 0)
(0.197804 0.0021539 0)
(0.19744 0.00211738 0)
(0.19707 0.00208141 0)
(0.196693 0.00204596 0)
(0.196311 0.00201103 0)
(0.195923 0.00197658 0)
(0.19553 0.00194261 0)
(0.195131 0.0019091 0)
(0.194728 0.00187603 0)
(0.194319 0.00184338 0)
(0.193905 0.00181114 0)
(0.193487 0.0017793 0)
(0.193064 0.00174784 0)
(0.192637 0.00171676 0)
(0.192207 0.00168604 0)
(0.191772 0.00165568 0)
(0.191334 0.00162566 0)
(0.190892 0.001596 0)
(0.190447 0.00156667 0)
(0.19 0.0015377 0)
(0.189549 0.00150907 0)
(0.189096 0.0014808 0)
(0.188641 0.00145291 0)
(0.188184 0.0014254 0)
(0.187725 0.00139831 0)
(0.187263 0.00137167 0)
(0.186801 0.00134553 0)
(0.186337 0.00131995 0)
(0.185872 0.00129502 0)
(0.185405 0.00127089 0)
(0.184938 0.00124778 0)
(0.18447 0.00122605 0)
(0.184003 0.00120629 0)
(0.183539 0.00118907 0)
(0.183087 0.00117279 0)
(0.18255 0.00113971 0)
(0.199686 0.00579343 0)
(0.200151 0.00635539 0)
(0.200685 0.00681705 0)
(0.201265 0.00716658 0)
(0.201866 0.00740614 0)
(0.202463 0.00754425 0)
(0.203036 0.00759155 0)
(0.203573 0.00756013 0)
(0.204063 0.00746339 0)
(0.204499 0.00731543 0)
(0.204879 0.00712997 0)
(0.205202 0.0069196 0)
(0.205472 0.00669533 0)
(0.205693 0.00646624 0)
(0.205869 0.00623938 0)
(0.206007 0.00601986 0)
(0.206113 0.00581101 0)
(0.206192 0.00561468 0)
(0.206249 0.00543162 0)
(0.206288 0.00526174 0)
(0.206312 0.00510442 0)
(0.206324 0.00495874 0)
(0.206327 0.00482361 0)
(0.206321 0.00469793 0)
(0.206308 0.00458063 0)
(0.20629 0.00447075 0)
(0.206265 0.00436742 0)
(0.206236 0.00426987 0)
(0.206202 0.00417748 0)
(0.206163 0.00408966 0)
(0.20612 0.00400596 0)
(0.206073 0.00392596 0)
(0.206022 0.00384931 0)
(0.205966 0.00377571 0)
(0.205906 0.0037049 0)
(0.205842 0.00363666 0)
(0.205774 0.00357078 0)
(0.205701 0.00350708 0)
(0.205624 0.0034454 0)
(0.205543 0.00338562 0)
(0.205457 0.00332759 0)
(0.205366 0.0032712 0)
(0.205271 0.00321636 0)
(0.205171 0.00316297 0)
(0.205067 0.00311095 0)
(0.204957 0.00306022 0)
(0.204843 0.00301071 0)
(0.204724 0.00296236 0)
(0.204599 0.00291511 0)
(0.20447 0.0028689 0)
(0.204335 0.00282369 0)
(0.204195 0.00277942 0)
(0.204049 0.00273606 0)
(0.203898 0.00269356 0)
(0.203742 0.00265189 0)
(0.203581 0.002611 0)
(0.203413 0.00257087 0)
(0.203241 0.00253146 0)
(0.203063 0.00249275 0)
(0.202879 0.00245469 0)
(0.20269 0.00241726 0)
(0.202495 0.00238044 0)
(0.202294 0.0023442 0)
(0.202088 0.00230852 0)
(0.201877 0.00227336 0)
(0.20166 0.0022387 0)
(0.201437 0.00220453 0)
(0.201209 0.00217082 0)
(0.200976 0.00213755 0)
(0.200737 0.0021047 0)
(0.200493 0.00207225 0)
(0.200243 0.00204018 0)
(0.199989 0.00200848 0)
(0.199729 0.00197712 0)
(0.199464 0.00194609 0)
(0.199194 0.00191538 0)
(0.19892 0.00188498 0)
(0.19864 0.00185487 0)
(0.198356 0.00182504 0)
(0.198067 0.00179549 0)
(0.197774 0.00176621 0)
(0.197476 0.0017372 0)
(0.197174 0.00170845 0)
(0.196868 0.00167997 0)
(0.196558 0.00165176 0)
(0.196243 0.00162383 0)
(0.195925 0.0015962 0)
(0.195604 0.00156889 0)
(0.195279 0.00154193 0)
(0.19495 0.00151535 0)
(0.194618 0.00148921 0)
(0.194283 0.00146357 0)
(0.193944 0.00143852 0)
(0.193603 0.00141421 0)
(0.193259 0.00139081 0)
(0.192912 0.00136858 0)
(0.192564 0.00134776 0)
(0.192217 0.00132805 0)
(0.191877 0.001306 0)
(0.191464 0.00126369 0)
(0.199946 0.00553673 0)
(0.200357 0.0060352 0)
(0.200823 0.00645478 0)
(0.201332 0.0067834 0)
(0.201866 0.00701925 0)
(0.202401 0.00716686 0)
(0.202921 0.00723389 0)
(0.203412 0.00722984 0)
(0.203865 0.00716562 0)
(0.204274 0.00705291 0)
(0.204635 0.00690336 0)
(0.204947 0.00672788 0)
(0.205213 0.00653622 0)
(0.205434 0.00633661 0)
(0.205616 0.00613566 0)
(0.205762 0.00593832 0)
(0.205879 0.00574808 0)
(0.205969 0.00556709 0)
(0.206039 0.00539652 0)
(0.206091 0.00523671 0)
(0.20613 0.00508749 0)
(0.206156 0.0049483 0)
(0.206173 0.00481843 0)
(0.206183 0.00469703 0)
(0.206186 0.00458329 0)
(0.206184 0.00447641 0)
(0.206177 0.00437565 0)
(0.206167 0.00428038 0)
(0.206153 0.00419001 0)
(0.206135 0.00410405 0)
(0.206115 0.00402207 0)
(0.206092 0.00394369 0)
(0.206067 0.00386858 0)
(0.20604 0.00379648 0)
(0.20601 0.00372712 0)
(0.205977 0.0036603 0)
(0.205943 0.00359583 0)
(0.205907 0.00353353 0)
(0.205868 0.00347326 0)
(0.205827 0.00341488 0)
(0.205784 0.00335827 0)
(0.205739 0.00330332 0)
(0.205692 0.00324992 0)
(0.205642 0.003198 0)
(0.20559 0.00314747 0)
(0.205535 0.00309824 0)
(0.205478 0.00305026 0)
(0.205418 0.00300346 0)
(0.205356 0.00295777 0)
(0.205291 0.00291316 0)
(0.205223 0.00286955 0)
(0.205152 0.00282691 0)
(0.205079 0.00278519 0)
(0.205002 0.00274435 0)
(0.204922 0.00270434 0)
(0.20484 0.00266513 0)
(0.204753 0.00262669 0)
(0.204664 0.00258897 0)
(0.204571 0.00255195 0)
(0.204474 0.00251558 0)
(0.204375 0.00247985 0)
(0.204271 0.00244472 0)
(0.204164 0.00241017 0)
(0.204053 0.00237615 0)
(0.203938 0.00234266 0)
(0.20382 0.00230965 0)
(0.203697 0.00227711 0)
(0.203571 0.00224502 0)
(0.203441 0.00221334 0)
(0.203306 0.00218206 0)
(0.203168 0.00215115 0)
(0.203026 0.0021206 0)
(0.202879 0.00209038 0)
(0.202729 0.00206048 0)
(0.202574 0.00203087 0)
(0.202416 0.00200155 0)
(0.202253 0.00197249 0)
(0.202086 0.00194369 0)
(0.201915 0.00191513 0)
(0.20174 0.00188681 0)
(0.201561 0.00185871 0)
(0.201378 0.00183083 0)
(0.20119 0.00180317 0)
(0.200999 0.00177574 0)
(0.200804 0.00174853 0)
(0.200605 0.00172156 0)
(0.200402 0.00169484 0)
(0.200195 0.00166839 0)
(0.199984 0.00164225 0)
(0.199769 0.00161645 0)
(0.19955 0.00159105 0)
(0.199328 0.0015661 0)
(0.199102 0.0015417 0)
(0.198872 0.00151797 0)
(0.198639 0.00149504 0)
(0.198403 0.00147305 0)
(0.198164 0.00145197 0)
(0.197925 0.0014309 0)
(0.197689 0.00140577 0)
(0.197391 0.00136138 0)
(0.200159 0.00529849 0)
(0.200525 0.0057429 0)
(0.200935 0.0061243 0)
(0.201384 0.00643167 0)
(0.201857 0.00666112 0)
(0.202336 0.00681439 0)
(0.202806 0.00689667 0)
(0.203254 0.00691523 0)
(0.203672 0.00687878 0)
(0.204053 0.00679688 0)
(0.204394 0.0066793 0)
(0.204693 0.00653542 0)
(0.204951 0.00637376 0)
(0.20517 0.0062017 0)
(0.205353 0.00602533 0)
(0.205504 0.00584942 0)
(0.205627 0.00567744 0)
(0.205725 0.00551177 0)
(0.205803 0.00535384 0)
(0.205864 0.00520438 0)
(0.20591 0.00506356 0)
(0.205946 0.00493117 0)
(0.205971 0.00480679 0)
(0.205989 0.00468986 0)
(0.206 0.00457976 0)
(0.206006 0.00447587 0)
(0.206008 0.0043776 0)
(0.206006 0.00428442 0)
(0.206 0.00419583 0)
(0.205992 0.0041114 0)
(0.205982 0.00403074 0)
(0.205969 0.00395353 0)
(0.205954 0.00387948 0)
(0.205938 0.00380831 0)
(0.205921 0.00373982 0)
(0.205902 0.0036738 0)
(0.205881 0.00361007 0)
(0.20586 0.00354847 0)
(0.205837 0.00348888 0)
(0.205814 0.00343115 0)
(0.205789 0.00337518 0)
(0.205764 0.00332087 0)
(0.205737 0.00326812 0)
(0.20571 0.00321684 0)
(0.205681 0.00316696 0)
(0.205651 0.0031184 0)
(0.205621 0.00307111 0)
(0.205589 0.00302501 0)
(0.205557 0.00298005 0)
(0.205523 0.00293618 0)
(0.205488 0.00289334 0)
(0.205451 0.0028515 0)
(0.205414 0.0028106 0)
(0.205375 0.0027706 0)
(0.205334 0.00273147 0)
(0.205292 0.00269316 0)
(0.205249 0.00265564 0)
(0.205204 0.00261887 0)
(0.205157 0.00258281 0)
(0.205109 0.00254745 0)
(0.205059 0.00251273 0)
(0.205006 0.00247864 0)
(0.204952 0.00244513 0)
(0.204896 0.00241219 0)
(0.204838 0.00237979 0)
(0.204777 0.00234789 0)
(0.204715 0.00231647 0)
(0.20465 0.00228551 0)
(0.204582 0.00225497 0)
(0.204513 0.00222484 0)
(0.20444 0.00219509 0)
(0.204366 0.0021657 0)
(0.204288 0.00213665 0)
(0.204208 0.00210791 0)
(0.204125 0.00207947 0)
(0.20404 0.00205132 0)
(0.203951 0.00202343 0)
(0.20386 0.00199578 0)
(0.203766 0.00196838 0)
(0.203668 0.0019412 0)
(0.203568 0.00191423 0)
(0.203465 0.00188748 0)
(0.203359 0.00186094 0)
(0.203249 0.00183461 0)
(0.203136 0.00180849 0)
(0.203021 0.0017826 0)
(0.202901 0.00175695 0)
(0.202779 0.00173155 0)
(0.202653 0.00170645 0)
(0.202524 0.00168167 0)
(0.202392 0.00165727 0)
(0.202256 0.00163331 0)
(0.202117 0.00160987 0)
(0.201974 0.00158705 0)
(0.201828 0.00156494 0)
(0.201679 0.00154358 0)
(0.201528 0.00152274 0)
(0.201375 0.00150128 0)
(0.201222 0.00147541 0)
(0.201019 0.00143408 0)