/*--------------------------------*- C++ -*----------------------------------*\
| =========                 |                                                 |
| \\      /  F ield         | OpenFOAM: The Open Source CFD Toolbox           |
|  \\    /   O peration     | Version:  2.3.0                                 |
|   \\  /    A nd           | Web:      www.OpenFOAM.org                      |
|    \\/     M anipulation  |                                                 |
\*---------------------------------------------------------------------------*/
FoamFile
{
    version     2.0;
    format      ascii;
    class       volScalarField;
    location    "0.8";
    object      p;
}
// * * * * * * * * * * * * * * * * * * * * * * * * * * * * * * * * * * * * * //

dimensions      [0 2 -2 0 0 0 0];

internalField   nonuniform List<scalar> 
2945
(
0.00256083
0.00162757
0.00060917
-0.000167508
-0.000637175
-0.000715178
-0.000655532
-0.00059882
-0.000543986
-0.000499329
-0.000473513
-0.000449107
-0.000428077
-0.000414433
-0.000398685
-0.000381143
-0.000366721
-0.00035292
-0.00033807
-0.000324741
-0.00031376
-0.000303533
-0.00029226
-0.00027979
-0.000267791
-0.000256777
-0.000246383
-0.000237361
-0.000229153
-0.000219996
-0.000211039
-0.000202799
-0.000193387
-0.00018519
-0.000179623
-0.000172901
-0.000165001
-0.0001577
-0.000149891
-0.000143007
-0.000138046
-0.000133362
-0.000127999
-0.000122518
-0.000117332
-0.000112342
-0.000107269
-0.000102462
-9.83039e-05
-9.4689e-05
-9.1168e-05
-8.76645e-05
-8.38043e-05
-7.99727e-05
-7.64856e-05
-7.35339e-05
-7.04499e-05
-6.73774e-05
-6.41304e-05
-6.09781e-05
-5.77636e-05
-5.51215e-05
-5.2284e-05
-4.91823e-05
-4.57258e-05
-4.27364e-05
-3.94264e-05
-3.57805e-05
-3.16518e-05
-2.72638e-05
-2.3255e-05
-1.77865e-05
-1.48667e-05
-6.10948e-06
-5.45882e-06
0.00221284
0.00151874
0.000642259
-0.00010089
-0.000583693
-0.000670088
-0.000621806
-0.000577446
-0.000530413
-0.000489206
-0.000465978
-0.00044253
-0.000421859
-0.000409268
-0.000394163
-0.000376893
-0.000362985
-0.000349646
-0.00033498
-0.000321832
-0.000311125
-0.000301184
-0.000290136
-0.000277769
-0.000265864
-0.000254988
-0.000244679
-0.000235764
-0.000227735
-0.000218644
-0.000209726
-0.000201638
-0.000192235
-0.000184
-0.000178608
-0.000172
-0.000164082
-0.000156849
-0.000149048
-0.000142149
-0.000137268
-0.000132664
-0.00012733
-0.000121862
-0.000116704
-0.000111751
-0.0001067
-0.000101899
-9.7761e-05
-9.41753e-05
-9.06819e-05
-8.72079e-05
-8.33658e-05
-7.95352e-05
-7.60595e-05
-7.31325e-05
-7.00719e-05
-6.7011e-05
-6.37778e-05
-6.06341e-05
-5.7425e-05
-5.47944e-05
-5.19844e-05
-4.88879e-05
-4.54307e-05
-4.24519e-05
-3.91631e-05
-3.55241e-05
-3.14006e-05
-2.70138e-05
-2.30099e-05
-1.7548e-05
-1.46274e-05
-5.92071e-06
-5.25314e-06
0.00195974
0.00141369
0.00068584
-2.09226e-06
-0.000503032
-0.000597015
-0.000579541
-0.000550568
-0.0005107
-0.000475295
-0.000456483
-0.000434722
-0.000415191
-0.000404031
-0.000389462
-0.000372496
-0.000359284
-0.000346465
-0.00033198
-0.000319065
-0.000308684
-0.000299033
-0.000288196
-0.000275907
-0.000264075
-0.000253329
-0.000243098
-0.0002343
-0.000226484
-0.00021743
-0.000208527
-0.000200622
-0.000191174
-0.000182875
-0.000177732
-0.000171233
-0.000163262
-0.000156112
-0.000148266
-0.000141335
-0.000136575
-0.000132066
-0.000126747
-0.000121281
-0.00011615
-0.000111232
-0.000106195
-0.000101391
-9.72756e-05
-9.37253e-05
-9.02597e-05
-8.68185e-05
-8.29871e-05
-7.91457e-05
-7.56785e-05
-7.2785e-05
-6.97478e-05
-6.6698e-05
-6.34742e-05
-6.03356e-05
-5.71261e-05
-5.45143e-05
-5.17373e-05
-4.86424e-05
-4.51727e-05
-4.22139e-05
-3.89487e-05
-3.53184e-05
-3.11885e-05
-2.68128e-05
-2.27972e-05
-1.73588e-05
-1.43999e-05
-5.76617e-06
-5.24627e-06
0.00175246
0.00131722
0.000689885
6.42714e-05
-0.000406739
-0.000507086
-0.000524239
-0.000511119
-0.000480381
-0.000454547
-0.000442266
-0.00042312
-0.000406082
-0.00039685
-0.000382836
-0.000366588
-0.000354468
-0.000342291
-0.000328109
-0.000315623
-0.000305697
-0.000296381
-0.000285818
-0.000273682
-0.000261959
-0.000251348
-0.000241227
-0.0002326
-0.000225042
-0.000216027
-0.000207151
-0.000199462
-0.000189946
-0.000181601
-0.000176766
-0.000170375
-0.000162353
-0.000155312
-0.000147364
-0.000140404
-0.000135817
-0.000131416
-0.000126112
-0.000120649
-0.000115549
-0.000110666
-0.000105643
-0.000100835
-9.67501e-05
-9.3242e-05
-8.98086e-05
-8.64071e-05
-8.25852e-05
-7.87244e-05
-7.52671e-05
-7.24168e-05
-6.94083e-05
-6.63714e-05
-6.31563e-05
-6.00196e-05
-5.68099e-05
-5.42235e-05
-5.14885e-05
-4.8392e-05
-4.49026e-05
-4.19728e-05
-3.8737e-05
-3.51182e-05
-3.09725e-05
-2.66249e-05
-2.25671e-05
-1.71974e-05
-1.41203e-05
-5.64239e-06
-5.40315e-06
0.00156551
0.0012033
0.000689951
9.88892e-05
-0.000274407
-0.000440015
-0.000481938
-0.000472026
-0.000446506
-0.000429279
-0.00042339
-0.000407415
-0.000394284
-0.00038698
-0.000373317
-0.000358398
-0.000347908
-0.000336543
-0.000322866
-0.000311081
-0.000301733
-0.000292743
-0.000282543
-0.000270759
-0.00025924
-0.00024876
-0.000238804
-0.000230416
-0.00022315
-0.000214205
-0.000205406
-0.00019796
-0.000188376
-0.000180056
-0.000175549
-0.000169257
-0.00016124
-0.000154337
-0.00014622
-0.000139264
-0.000134898
-0.000130606
-0.000125334
-0.000119892
-0.000114828
-0.000109981
-0.000104975
-0.000100173
-9.61294e-05
-9.26678e-05
-8.92718e-05
-8.59194e-05
-8.21113e-05
-7.82264e-05
-7.47831e-05
-7.1985e-05
-6.90129e-05
-6.59938e-05
-6.27888e-05
-5.96509e-05
-5.64466e-05
-5.38913e-05
-5.12071e-05
-4.81076e-05
-4.45947e-05
-4.17029e-05
-3.8503e-05
-3.48993e-05
-3.07316e-05
-2.64333e-05
-2.22984e-05
-1.7052e-05
-1.37765e-05
-5.54131e-06
-5.70576e-06
0.0014067
0.00110141
0.000673788
0.000158506
-0.000160496
-0.00036173
-0.00045679
-0.00043742
-0.000408772
-0.000401577
-0.000401972
-0.000388949
-0.000381303
-0.000375905
-0.00036191
-0.000348433
-0.000339815
-0.000329329
-0.000316262
-0.000305338
-0.0002967
-0.000288019
-0.000278201
-0.000266998
-0.000255814
-0.000245446
-0.000235721
-0.000227641
-0.000220668
-0.000211831
-0.000203189
-0.000195995
-0.000186359
-0.000178178
-0.000173974
-0.00016776
-0.000159854
-0.000153117
-0.000144744
-0.000137859
-0.000133757
-0.000129554
-0.000124344
-0.000118959
-0.000113941
-0.000109125
-0.000104147
-9.93639e-05
-9.53771e-05
-9.19622e-05
-8.86086e-05
-8.53169e-05
-8.15315e-05
-7.76213e-05
-7.41989e-05
-7.14607e-05
-6.85337e-05
-6.55405e-05
-6.23479e-05
-5.92055e-05
-5.60172e-05
-5.34984e-05
-5.08719e-05
-4.777e-05
-4.42333e-05
-4.13882e-05
-3.82306e-05
-3.46461e-05
-3.04546e-05
-2.62286e-05
-2.19846e-05
-1.69117e-05
-1.33865e-05
-5.45785e-06
-6.1112e-06
0.0012855
0.0010215
0.000637411
0.000230804
-9.24322e-05
-0.000282385
-0.00040858
-0.000404118
-0.000375246
-0.000371124
-0.000378914
-0.000369503
-0.000366895
-0.000363549
-0.000349232
-0.000337457
-0.000330822
-0.000321198
-0.000308801
-0.000298709
-0.000290698
-0.000282346
-0.000272981
-0.000262567
-0.000251771
-0.000241414
-0.000232008
-0.000224284
-0.000217551
-0.000208856
-0.000200472
-0.00019352
-0.000183861
-0.000175956
-0.000171965
-0.000165786
-0.000158156
-0.000151621
-0.000142871
-0.000136144
-0.000132348
-0.000128196
-0.000123085
-0.000117805
-0.000112844
-0.000108053
-0.000103116
-9.83748e-05
-9.446e-05
-9.10859e-05
-8.77771e-05
-8.45596e-05
-8.08117e-05
-7.68776e-05
-7.34847e-05
-7.08131e-05
-6.79409e-05
-6.4985e-05
-6.18081e-05
-5.86561e-05
-5.55007e-05
-5.30228e-05
-5.04591e-05
-4.73572e-05
-4.37993e-05
-4.10099e-05
-3.79008e-05
-3.43384e-05
-3.01291e-05
-2.59953e-05
-2.16234e-05
-1.67566e-05
-1.29804e-05
-5.39036e-06
-6.5346e-06
0.00117998
0.00095309
0.000610871
0.000276913
-3.23604e-05
-0.000225996
-0.000336161
-0.000384455
-0.000346627
-0.000347636
-0.000353172
-0.000347601
-0.000352381
-0.000350691
-0.00033634
-0.000326065
-0.000321096
-0.000312589
-0.000300944
-0.000291733
-0.000284148
-0.000275797
-0.000266907
-0.000257749
-0.000247512
-0.000236861
-0.000227808
-0.000220499
-0.000213873
-0.000205313
-0.000197319
-0.000190573
-0.000180922
-0.000173451
-0.000169555
-0.000163306
-0.000156111
-0.000149848
-0.000140605
-0.000134128
-0.000130655
-0.000126491
-0.000121521
-0.000116402
-0.000111514
-0.000106737
-0.000101857
-9.71833e-05
-9.33617e-05
-9.00152e-05
-8.67441e-05
-8.36126e-05
-7.99242e-05
-7.59698e-05
-7.26155e-05
-7.00148e-05
-6.72075e-05
-6.43044e-05
-6.11463e-05
-5.79764e-05
-5.48767e-05
-5.24432e-05
-4.99453e-05
-4.68472e-05
-4.32736e-05
-4.05485e-05
-3.74951e-05
-3.39535e-05
-2.97432e-05
-2.5711e-05
-2.12169e-05
-1.65605e-05
-1.25907e-05
-5.34232e-06
-6.86684e-06
0.00106904
0.000888223
0.000588543
0.000290112
3.08903e-05
-0.000182183
-0.000285858
-0.000340928
-0.000325611
-0.000329267
-0.000331072
-0.000324665
-0.000339189
-0.000334465
-0.000319087
-0.000318486
-0.000311448
-0.000303654
-0.000292964
-0.000284477
-0.000277447
-0.0002689
-0.000260101
-0.000252318
-0.000243124
-0.000232212
-0.000223261
-0.000216499
-0.000209834
-0.000201294
-0.000193824
-0.000187264
-0.000177679
-0.000170715
-0.000166811
-0.000160428
-0.000153775
-0.000147799
-0.000137971
-0.000131879
-0.000128725
-0.000124457
-0.000119645
-0.000114741
-0.000109957
-0.000105183
-0.000100368
-9.57813e-05
-9.20865e-05
-8.87579e-05
-8.55046e-05
-8.24584e-05
-7.88536e-05
-7.48858e-05
-7.15822e-05
-6.90528e-05
-6.63164e-05
-6.34861e-05
-6.03516e-05
-5.7149e-05
-5.4133e-05
-5.17457e-05
-4.93147e-05
-4.62258e-05
-4.26426e-05
-3.99881e-05
-3.70007e-05
-3.34721e-05
-2.92921e-05
-2.5353e-05
-2.07711e-05
-1.63008e-05
-1.2242e-05
-5.32216e-06
-7.00427e-06
0.000982608
0.000822532
0.000565493
0.000295898
7.46908e-05
-0.000127759
-0.000247066
-0.000296873
-0.000305084
-0.000304175
-0.000306484
-0.000306339
-0.000326406
-0.000314416
-0.000308417
-0.000310811
-0.000300147
-0.000293805
-0.000284609
-0.000276895
-0.000270403
-0.000261707
-0.000252696
-0.000246702
-0.000238027
-0.000227777
-0.000218624
-0.000212417
-0.000205639
-0.000196964
-0.000190023
-0.000183574
-0.000174399
-0.000167888
-0.00016375
-0.000157165
-0.000151252
-0.000145594
-0.000135027
-0.000129464
-0.000126621
-0.000122168
-0.000117501
-0.000112826
-0.000108191
-0.000103436
-9.86881e-05
-9.41719e-05
-9.0649e-05
-8.73439e-05
-8.40858e-05
-8.11117e-05
-7.76058e-05
-7.36238e-05
-7.03901e-05
-6.79367e-05
-6.5268e-05
-6.25294e-05
-5.94277e-05
-5.61708e-05
-5.32707e-05
-5.09273e-05
-4.85616e-05
-4.549e-05
-4.19044e-05
-3.9322e-05
-3.64127e-05
-3.28824e-05
-2.87811e-05
-2.49071e-05
-2.0293e-05
-1.59672e-05
-1.19422e-05
-5.33891e-06
-6.88014e-06
0.000910223
0.000755491
0.000539749
0.000299842
0.000109871
-8.51791e-05
-0.000204747
-0.000252367
-0.000284374
-0.00028449
-0.000280463
-0.000294775
-0.000301339
-0.000300071
-0.000304418
-0.000293682
-0.000290764
-0.00028357
-0.000275783
-0.000269504
-0.000262919
-0.00025415
-0.000245376
-0.000240872
-0.000231875
-0.00022442
-0.000213569
-0.000207768
-0.000201321
-0.000192517
-0.000186094
-0.000179238
-0.000171178
-0.000165154
-0.000160554
-0.000153583
-0.000148414
-0.000143193
-0.00013189
-0.000127089
-0.000124389
-0.000119686
-0.000115159
-0.000110688
-0.000106231
-0.00010155
-9.68947e-05
-9.23681e-05
-8.90677e-05
-8.58065e-05
-8.25213e-05
-7.96091e-05
-7.62159e-05
-7.21961e-05
-6.90468e-05
-6.66898e-05
-6.40855e-05
-6.14477e-05
-5.83878e-05
-5.50485e-05
-5.23061e-05
-4.99996e-05
-4.76926e-05
-4.46464e-05
-4.10663e-05
-3.85577e-05
-3.57371e-05
-3.21809e-05
-2.82209e-05
-2.43754e-05
-1.97882e-05
-1.55664e-05
-1.16804e-05
-5.39647e-06
-6.48647e-06
0.000834333
0.00069293
0.000513521
0.000302505
0.000134577
-5.08548e-05
-0.000158778
-0.000209791
-0.000260701
-0.000265293
-0.000261534
-0.000281857
-0.000271854
-0.000288061
-0.000294394
-0.00027838
-0.00028167
-0.000273304
-0.000267176
-0.000261729
-0.000254463
-0.000248092
-0.000238597
-0.000234369
-0.000225625
-0.000219411
-0.000207701
-0.000203779
-0.000196876
-0.000187971
-0.000182366
-0.000174129
-0.000167703
-0.000162583
-0.000157272
-0.000149976
-0.000145473
-0.000140516
-0.000128071
-0.000124927
-0.000122156
-0.000117117
-0.000112695
-0.000108374
-0.000104092
-9.95489e-05
-9.51045e-05
-9.03995e-05
-8.73526e-05
-8.41862e-05
-8.08408e-05
-7.7979e-05
-7.47261e-05
-7.0631e-05
-6.75657e-05
-6.53289e-05
-6.27978e-05
-6.02712e-05
-5.72577e-05
-5.37872e-05
-5.12594e-05
-4.89846e-05
-4.67274e-05
-4.37125e-05
-4.01366e-05
-3.77095e-05
-3.49906e-05
-3.13789e-05
-2.7621e-05
-2.37724e-05
-1.92598e-05
-1.51224e-05
-1.14306e-05
-5.48953e-06
-5.87753e-06
0.000762836
0.00063724
0.00048939
0.000303322
0.000147896
-1.28969e-05
-0.000122677
-0.00017962
-0.000226151
-0.000246676
-0.000243713
-0.000265095
-0.000257904
-0.000270598
-0.000281767
-0.000270477
-0.000268725
-0.000262683
-0.00025851
-0.000252947
-0.000246234
-0.000242405
-0.000232854
-0.000227168
-0.0002196
-0.000211771
-0.000202423
-0.000200034
-0.000191447
-0.000183727
-0.000178836
-0.000167441
-0.000164982
-0.000160129
-0.000153408
-0.00014659
-0.000142347
-0.000137255
-0.000125076
-0.000122471
-0.000119483
-0.000114434
-0.000110157
-0.000105901
-0.000101773
-9.73497e-05
-9.33696e-05
-8.84179e-05
-8.55085e-05
-8.24878e-05
-7.90799e-05
-7.62602e-05
-7.31678e-05
-6.89446e-05
-6.59703e-05
-6.3881e-05
-6.14202e-05
-5.90205e-05
-5.60732e-05
-5.23912e-05
-5.01497e-05
-4.79017e-05
-4.56866e-05
-4.2716e-05
-3.91305e-05
-3.67901e-05
-3.41823e-05
-3.05024e-05
-2.69962e-05
-2.31181e-05
-1.87022e-05
-1.4668e-05
-1.1161e-05
-5.60088e-06
-5.1518e-06
0.000701096
0.00058812
0.000464363
0.000301195
0.000160677
1.72649e-05
-9.3592e-05
-0.000147814
-0.000197212
-0.000227691
-0.000226433
-0.000246617
-0.000246515
-0.000252314
-0.00026541
-0.00026255
-0.000257111
-0.000252747
-0.000249356
-0.000243246
-0.000239873
-0.000234696
-0.000228728
-0.000219265
-0.000213351
-0.000204758
-0.000197291
-0.000194913
-0.00018563
-0.000179786
-0.000175151
-0.000161564
-0.000162051
-0.000157146
-0.000148917
-0.000142538
-0.000139114
-0.000133579
-0.000121564
-0.000120698
-0.000116656
-0.000111798
-0.000107614
-0.000103333
-9.93579e-05
-9.49525e-05
-9.12946e-05
-8.64415e-05
-8.3792e-05
-8.07286e-05
-7.72048e-05
-7.45037e-05
-7.16148e-05
-6.71535e-05
-6.42442e-05
-6.2375e-05
-5.99849e-05
-5.77197e-05
-5.48809e-05
-5.08467e-05
-4.89885e-05
-4.67695e-05
-4.45843e-05
-4.16729e-05
-3.80676e-05
-3.58271e-05
-3.33082e-05
-2.95663e-05
-2.63641e-05
-2.24449e-05
-1.81027e-05
-1.42311e-05
-1.08496e-05
-5.69985e-06
-4.4164e-06
0.00064373
0.000544972
0.000437608
0.000298735
0.000169249
3.86362e-05
-6.2025e-05
-0.000121417
-0.000175705
-0.000205661
-0.000210377
-0.000231148
-0.000229304
-0.000233777
-0.00024942
-0.000253235
-0.000246205
-0.00024246
-0.00024011
-0.000234672
-0.000231899
-0.00022667
-0.000223714
-0.000211664
-0.00020625
-0.000198423
-0.000193002
-0.000188606
-0.000180707
-0.000175398
-0.000171125
-0.000158658
-0.000156816
-0.000152473
-0.000144562
-0.000138706
-0.000136122
-0.000127769
-0.000119109
-0.00011941
-0.000113638
-0.000109197
-0.000104962
-0.000100759
-9.68892e-05
-9.2344e-05
-8.88442e-05
-8.48129e-05
-8.19248e-05
-7.88661e-05
-7.51784e-05
-7.25507e-05
-7.0087e-05
-6.54523e-05
-6.24217e-05
-6.07717e-05
-5.84634e-05
-5.63165e-05
-5.3767e-05
-4.92226e-05
-4.78072e-05
-4.55797e-05
-4.34343e-05
-4.0592e-05
-3.69492e-05
-3.48501e-05
-3.23772e-05
-2.85755e-05
-2.57183e-05
-2.17882e-05
-1.74631e-05
-1.38161e-05
-1.04966e-05
-5.75823e-06
-3.7491e-06
0.000592283
0.000506493
0.000412379
0.000294105
0.000172775
5.73162e-05
-3.15689e-05
-0.000100494
-0.00016023
-0.000183253
-0.000194209
-0.000218355
-0.000211877
-0.000216718
-0.000233949
-0.000243031
-0.000235045
-0.000231412
-0.000231073
-0.000227368
-0.000222066
-0.000217983
-0.000217679
-0.000205427
-0.00019879
-0.000191579
-0.000189406
-0.000182097
-0.000175233
-0.00017067
-0.000167198
-0.00015521
-0.000151256
-0.000147425
-0.000140673
-0.00013602
-0.000131916
-0.000124575
-0.000115994
-0.000115974
-0.000110274
-0.000106581
-0.000101951
-9.81738e-05
-9.42519e-05
-8.96333e-05
-8.64507e-05
-8.34753e-05
-7.95081e-05
-7.67425e-05
-7.3282e-05
-7.06275e-05
-6.76523e-05
-6.38799e-05
-6.08527e-05
-5.91553e-05
-5.6928e-05
-5.48381e-05
-5.2381e-05
-4.74238e-05
-4.68568e-05
-4.43912e-05
-4.2235e-05
-3.94879e-05
-3.5805e-05
-3.3873e-05
-3.13911e-05
-2.75488e-05
-2.5041e-05
-2.11514e-05
-1.68156e-05
-1.34133e-05
-1.00942e-05
-5.76635e-06
-3.19863e-06
0.000545962
0.000471942
0.000388701
0.000285619
0.000177005
6.9488e-05
-7.87087e-06
-7.54358e-05
-0.000145325
-0.000163255
-0.000176954
-0.000197915
-0.000198472
-0.000203931
-0.000219494
-0.000231297
-0.000223826
-0.000220506
-0.000222474
-0.000218864
-0.000212726
-0.000210165
-0.000209595
-0.000199101
-0.000191525
-0.000185162
-0.000183912
-0.000175854
-0.000170316
-0.000166185
-0.000164083
-0.000150162
-0.000145353
-0.000143263
-0.000137131
-0.000132179
-0.000126494
-0.000123316
-0.000111714
-0.000112163
-0.000107247
-0.000103701
-9.89806e-05
-9.56875e-05
-9.1318e-05
-8.69242e-05
-8.42281e-05
-8.2076e-05
-7.66104e-05
-7.43679e-05
-7.13983e-05
-6.84775e-05
-6.50171e-05
-6.24731e-05
-5.95804e-05
-5.74204e-05
-5.52899e-05
-5.31239e-05
-5.09298e-05
-4.59907e-05
-4.57037e-05
-4.31917e-05
-4.09261e-05
-3.83366e-05
-3.46399e-05
-3.29088e-05
-3.03425e-05
-2.65119e-05
-2.43236e-05
-2.05089e-05
-1.61863e-05
-1.30279e-05
-9.64791e-06
-5.69236e-06
-2.79098e-06
0.000501512
0.000439545
0.000369331
0.000272765
0.000178708
8.37508e-05
4.90115e-06
-5.84246e-05
-0.000119085
-0.00014205
-0.000165151
-0.000178174
-0.000183829
-0.000193644
-0.00020705
-0.000218702
-0.000212227
-0.00021075
-0.000212846
-0.000209493
-0.000204458
-0.000203456
-0.000200835
-0.000191045
-0.00018355
-0.000180665
-0.000177204
-0.000169601
-0.000166363
-0.000159454
-0.000161356
-0.000144899
-0.000139686
-0.000138565
-0.000132793
-0.000128038
-0.000121866
-0.00011794
-0.000110459
-0.000108595
-0.000104364
-0.000100227
-9.62441e-05
-9.32061e-05
-8.80125e-05
-8.43093e-05
-8.20552e-05
-8.10123e-05
-7.30683e-05
-7.16812e-05
-6.94223e-05
-6.62175e-05
-6.27998e-05
-6.15512e-05
-5.76743e-05
-5.55022e-05
-5.35177e-05
-5.13453e-05
-4.9268e-05
-4.51496e-05
-4.42261e-05
-4.19699e-05
-3.94745e-05
-3.68992e-05
-3.37119e-05
-3.1977e-05
-2.91723e-05
-2.54943e-05
-2.35771e-05
-1.98178e-05
-1.55602e-05
-1.26283e-05
-9.25245e-06
-5.50776e-06
-2.49204e-06
0.000460848
0.000409407
0.000351152
0.000260883
0.000174656
9.87251e-05
1.62972e-05
-4.82732e-05
-9.38722e-05
-0.000126077
-0.000147598
-0.000155462
-0.000178297
-0.000182193
-0.000193669
-0.000205766
-0.000200584
-0.000201042
-0.00020222
-0.000201027
-0.000195743
-0.000195534
-0.00019258
-0.000181713
-0.000177082
-0.000175791
-0.000170486
-0.000163569
-0.000160055
-0.000155947
-0.000155273
-0.000138577
-0.000136568
-0.000134825
-0.000127576
-0.000124573
-0.000118352
-0.000112752
-0.000107782
-0.000105305
-0.000101222
-9.66859e-05
-9.36114e-05
-9.05444e-05
-8.41244e-05
-8.21178e-05
-7.97615e-05
-7.85985e-05
-7.04167e-05
-6.90506e-05
-6.7474e-05
-6.41003e-05
-6.05577e-05
-6.02142e-05
-5.5586e-05
-5.37433e-05
-5.16682e-05
-4.96801e-05
-4.71677e-05
-4.42421e-05
-4.28191e-05
-4.07309e-05
-3.80976e-05
-3.5099e-05
-3.29327e-05
-3.11123e-05
-2.79227e-05
-2.45063e-05
-2.29035e-05
-1.90811e-05
-1.48853e-05
-1.21739e-05
-8.90453e-06
-5.22974e-06
-2.2741e-06
0.000419801
0.000386378
0.000331499
0.000248401
0.00017168
0.000106888
2.69488e-05
-3.27834e-05
-7.45016e-05
-0.000111395
-0.000131642
-0.000137783
-0.000173661
-0.000167575
-0.000178809
-0.000192949
-0.000190348
-0.000191457
-0.000189367
-0.000193312
-0.000187766
-0.000186406
-0.00018154
-0.00017452
-0.000171781
-0.000169024
-0.000164175
-0.000157097
-0.000152338
-0.000151732
-0.000149007
-0.000133384
-0.000133383
-0.000130152
-0.000122725
-0.000120494
-0.000114665
-0.000107392
-0.000105262
-0.000101998
-9.79103e-05
-9.29147e-05
-9.05699e-05
-8.81114e-05
-8.13203e-05
-7.87759e-05
-7.74494e-05
-7.45611e-05
-6.86137e-05
-6.68221e-05
-6.54257e-05
-6.1788e-05
-5.86047e-05
-5.79608e-05
-5.40108e-05
-5.19618e-05
-4.97836e-05
-4.79772e-05
-4.53403e-05
-4.31282e-05
-4.12409e-05
-3.93318e-05
-3.67455e-05
-3.33291e-05
-3.21388e-05
-3.01274e-05
-2.66373e-05
-2.3614e-05
-2.22724e-05
-1.83527e-05
-1.41938e-05
-1.16812e-05
-8.52401e-06
-4.91604e-06
-2.126e-06
0.000385003
0.000369441
0.000311417
0.00023346
0.000169148
0.000111391
3.48301e-05
-2.19657e-05
-5.56356e-05
-9.26582e-05
-0.000119946
-0.00013555
-0.00015239
-0.000155861
-0.000165755
-0.000179814
-0.000180258
-0.000181549
-0.000179433
-0.000182221
-0.000179371
-0.000177157
-0.000171991
-0.00016958
-0.000165752
-0.000160512
-0.00015743
-0.000150751
-0.000145927
-0.000144377
-0.000134687
-0.00013451
-0.000131338
-0.00012506
-0.000118229
-0.000115713
-0.000111083
-0.000102192
-0.000102692
-9.82349e-05
-9.47121e-05
-8.90521e-05
-8.71586e-05
-8.50021e-05
-7.90727e-05
-7.54611e-05
-7.4896e-05
-7.13242e-05
-6.58547e-05
-6.45984e-05
-6.31379e-05
-5.9384e-05
-5.65383e-05
-5.56136e-05
-5.23797e-05
-4.99385e-05
-4.79033e-05
-4.64283e-05
-4.37103e-05
-4.17922e-05
-3.95104e-05
-3.77294e-05
-3.47848e-05
-3.24407e-05
-3.1142e-05
-2.90318e-05
-2.48005e-05
-2.30499e-05
-2.1747e-05
-1.75841e-05
-1.34973e-05
-1.11474e-05
-8.17075e-06
-4.60937e-06
-2.02036e-06
0.000366266
0.000349862
0.000293365
0.000217381
0.000165672
0.000114192
3.9877e-05
-1.31071e-05
-3.95556e-05
-7.80508e-05
-0.000109708
-0.000127992
-0.000129721
-0.000146626
-0.000155231
-0.000166786
-0.000168933
-0.000169633
-0.000174313
-0.000168874
-0.000167438
-0.000167771
-0.000163355
-0.00016454
-0.000159386
-0.000152427
-0.000150446
-0.000145439
-0.000138972
-0.000137777
-0.000122774
-0.00013251
-0.000128503
-0.000120376
-0.000113723
-0.000110902
-0.000108152
-9.61314e-05
-0.000100149
-9.42078e-05
-9.08506e-05
-8.51485e-05
-8.41218e-05
-8.13025e-05
-7.63849e-05
-7.3267e-05
-7.19185e-05
-6.86339e-05
-6.36962e-05
-6.16488e-05
-6.00337e-05
-5.68302e-05
-5.43276e-05
-5.30117e-05
-5.08546e-05
-4.78967e-05
-4.57414e-05
-4.50378e-05
-4.20482e-05
-4.07375e-05
-3.73587e-05
-3.5944e-05
-3.28951e-05
-3.1529e-05
-3.0059e-05
-2.77381e-05
-2.29255e-05
-2.28249e-05
-2.10999e-05
-1.66948e-05
-1.27476e-05
-1.06103e-05
-7.84242e-06
-4.3302e-06
-1.96464e-06
0.00035712
0.000324451
0.000275306
0.000204034
0.00016054
0.000114144
4.26437e-05
-2.04518e-06
-2.78357e-05
-6.75442e-05
-9.91512e-05
-0.00011431
-0.000117998
-0.000135899
-0.000145417
-0.000153581
-0.00015808
-0.000157941
-0.000162771
-0.000160172
-0.000156869
-0.000159777
-0.000153735
-0.000160583
-0.000148866
-0.000146021
-0.00014422
-0.000140237
-0.000130923
-0.000129921
-0.000121725
-0.000125299
-0.000121707
-0.000114282
-0.000109238
-0.00010647
-0.000105385
-8.71262e-05
-9.77966e-05
-9.16314e-05
-8.65026e-05
-8.13261e-05
-8.09064e-05
-7.7481e-05
-7.484e-05
-7.02156e-05
-6.89169e-05
-6.58962e-05
-6.07538e-05
-5.79374e-05
-5.73494e-05
-5.44741e-05
-5.20543e-05
-5.02008e-05
-4.94603e-05
-4.57325e-05
-4.34992e-05
-4.35738e-05
-4.03697e-05
-4.00543e-05
-3.46531e-05
-3.40598e-05
-3.1695e-05
-2.98951e-05
-2.90525e-05
-2.62056e-05
-2.20245e-05
-2.21124e-05
-2.00233e-05
-1.57738e-05
-1.21223e-05
-1.00432e-05
-7.40982e-06
-4.18861e-06
-1.89826e-06
0.00033658
0.000294815
0.000255637
0.000199558
0.000153355
0.000107332
4.96004e-05
8.56777e-06
-2.22949e-05
-5.60176e-05
-8.57168e-05
-0.000101233
-0.000110381
-0.000125926
-0.000138081
-0.000140808
-0.000145526
-0.00014668
-0.000149481
-0.000148284
-0.000150786
-0.00014879
-0.000149087
-0.000148362
-0.000139961
-0.000141394
-0.000137727
-0.000133153
-0.000125672
-0.000122094
-0.000118842
-0.000117903
-0.000115216
-0.000108056
-0.000104742
-0.00010134
-0.000104699
-8.16105e-05
-9.0532e-05
-8.87147e-05
-8.19412e-05
-7.77266e-05
-7.77887e-05
-7.32366e-05
-7.04044e-05
-6.84865e-05
-6.6526e-05
-6.28303e-05
-5.67653e-05
-5.54162e-05
-5.48862e-05
-5.21696e-05
-4.98263e-05
-4.78519e-05
-4.7831e-05
-4.32321e-05
-4.14111e-05
-4.18094e-05
-3.85937e-05
-3.79874e-05
-3.30269e-05
-3.22537e-05
-3.05536e-05
-2.8579e-05
-2.77011e-05
-2.45817e-05
-2.11997e-05
-2.1227e-05
-1.89033e-05
-1.47387e-05
-1.15734e-05
-9.5464e-06
-7.03269e-06
-4.11332e-06
-1.77533e-06
0.000301256
0.000270469
0.000240966
0.000186637
0.000145751
0.00010866
5.29115e-05
1.37436e-05
-1.82258e-05
-4.47506e-05
-6.87288e-05
-9.64517e-05
-0.000104663
-0.000114143
-0.000127355
-0.000130615
-0.000132321
-0.000137074
-0.00014016
-0.000135825
-0.000142763
-0.00013998
-0.000141213
-0.000135278
-0.000134529
-0.000135067
-0.000129896
-0.000124761
-0.000120951
-0.000116405
-0.000112332
-0.000110937
-0.000109354
-0.000102784
-9.9425e-05
-9.7155e-05
-9.46638e-05
-8.46452e-05
-8.41798e-05
-8.42179e-05
-7.77133e-05
-7.42129e-05
-7.43137e-05
-6.87992e-05
-6.56245e-05
-6.63016e-05
-6.32148e-05
-5.87753e-05
-5.43718e-05
-5.38225e-05
-5.17414e-05
-4.98507e-05
-4.72733e-05
-4.55602e-05
-4.6299e-05
-4.02608e-05
-3.94687e-05
-3.97706e-05
-3.66357e-05
-3.49099e-05
-3.23546e-05
-3.0529e-05
-2.91644e-05
-2.73019e-05
-2.62693e-05
-2.28029e-05
-2.02684e-05
-2.03202e-05
-1.78521e-05
-1.37726e-05
-1.10312e-05
-9.06563e-06
-6.70177e-06
-4.04367e-06
-1.66773e-06
0.00025278
0.000233325
0.000217507
0.000172261
0.000130076
9.59445e-05
5.55302e-05
2.51077e-05
-5.80687e-06
-2.90398e-05
-5.84763e-05
-8.95042e-05
-8.81823e-05
-9.20671e-05
-0.000105987
-0.000113254
-0.000118637
-0.000123711
-0.000124796
-0.0001256
-0.000127104
-0.000126216
-0.000126309
-0.000124746
-0.000124756
-0.000120371
-0.000116862
-0.000113481
-0.000110935
-0.000107603
-0.00010293
-0.000102357
-9.80196e-05
-9.5418e-05
-9.05209e-05
-8.86181e-05
-7.497e-05
-8.83124e-05
-8.17744e-05
-7.57306e-05
-7.11336e-05
-6.91845e-05
-6.8119e-05
-6.3358e-05
-6.18763e-05
-5.98781e-05
-5.5992e-05
-5.1971e-05
-5.25648e-05
-4.99968e-05
-4.7302e-05
-4.5915e-05
-4.36721e-05
-4.15731e-05
-4.28627e-05
-3.65497e-05
-3.64967e-05
-3.64676e-05
-3.37089e-05
-3.10375e-05
-3.03642e-05
-2.8092e-05
-2.67216e-05
-2.51449e-05
-2.37301e-05
-2.06127e-05
-1.92224e-05
-1.85709e-05
-1.58624e-05
-1.21791e-05
-1.04101e-05
-8.37718e-06
-6.05799e-06
-3.84464e-06
-1.45332e-06
0.000209501
0.000202769
0.000179503
0.000136159
0.000101587
8.68866e-05
8.34041e-05
3.6724e-05
-1.63716e-05
-1.42879e-05
-5.47347e-05
-6.51617e-05
-5.86801e-05
-7.31595e-05
-8.35538e-05
-8.79132e-05
-9.81065e-05
-0.000104329
-0.00010327
-0.000110121
-0.000108906
-0.000106986
-0.000107148
-0.000106072
-0.000107308
-0.000102447
-0.000100313
-0.000100358
-9.57661e-05
-9.19506e-05
-9.08741e-05
-8.83296e-05
-8.36016e-05
-8.3299e-05
-7.92579e-05
-7.38127e-05
-7.5209e-05
-7.82086e-05
-6.7752e-05
-6.36102e-05
-6.25281e-05
-5.91432e-05
-5.90551e-05
-5.55806e-05
-5.28586e-05
-5.23018e-05
-4.7609e-05
-4.43776e-05
-4.57875e-05
-4.46882e-05
-4.21241e-05
-3.9906e-05
-3.77554e-05
-3.70696e-05
-3.60958e-05
-3.28575e-05
-3.23691e-05
-3.22951e-05
-2.97612e-05
-2.57175e-05
-2.62197e-05
-2.47944e-05
-2.30706e-05
-2.17327e-05
-1.96207e-05
-1.85575e-05
-1.68378e-05
-1.55856e-05
-1.35986e-05
-1.03365e-05
-9.19441e-06
-7.31948e-06
-5.31152e-06
-3.7685e-06
-1.11998e-06
0.000182493
0.000173246
0.000139487
0.000107609
8.63691e-05
6.62893e-05
4.91e-05
1.62968e-05
8.20472e-06
-1.5661e-06
-2.64751e-05
-4.88721e-05
-5.22285e-05
-5.44137e-05
-6.04702e-05
-7.01704e-05
-7.71439e-05
-8.55996e-05
-8.27957e-05
-8.59256e-05
-8.73893e-05
-8.87119e-05
-8.86415e-05
-8.60019e-05
-8.4603e-05
-8.38069e-05
-8.2693e-05
-8.07331e-05
-8.05235e-05
-7.5821e-05
-7.47529e-05
-7.27824e-05
-7.19718e-05
-6.75419e-05
-6.44827e-05
-6.16305e-05
-6.11606e-05
-5.98224e-05
-5.67734e-05
-5.51652e-05
-5.27339e-05
-4.98745e-05
-4.80556e-05
-4.60366e-05
-4.37593e-05
-4.23103e-05
-3.94495e-05
-3.73762e-05
-3.91953e-05
-3.78565e-05
-3.41795e-05
-3.28751e-05
-3.18018e-05
-3.09269e-05
-2.93029e-05
-2.80244e-05
-2.68793e-05
-2.56509e-05
-2.48551e-05
-2.27732e-05
-2.13339e-05
-2.02096e-05
-1.89779e-05
-1.77313e-05
-1.67338e-05
-1.58257e-05
-1.3658e-05
-1.25819e-05
-1.14497e-05
-7.93215e-06
-7.33852e-06
-6.01801e-06
-4.58438e-06
-3.2398e-06
-8.46349e-07
0.00013178
0.000114291
0.000102604
0.000101936
6.50118e-05
3.81344e-05
3.02488e-05
1.8708e-05
1.35584e-05
-3.83021e-06
-5.24136e-06
-1.88624e-05
-3.66592e-05
-3.8906e-05
-4.79909e-05
-4.9241e-05
-5.0666e-05
-5.75159e-05
-6.44095e-05
-6.45553e-05
-6.5418e-05
-6.60721e-05
-6.49087e-05
-6.53302e-05
-6.36594e-05
-6.18675e-05
-6.45558e-05
-6.10124e-05
-6.00417e-05
-5.83183e-05
-5.70304e-05
-5.55466e-05
-5.21166e-05
-4.9594e-05
-4.92843e-05
-4.79371e-05
-4.66119e-05
-4.18159e-05
-4.39192e-05
-4.23572e-05
-4.11404e-05
-4.12954e-05
-3.62243e-05
-3.33821e-05
-3.43566e-05
-3.14781e-05
-2.97936e-05
-3.08062e-05
-3.04108e-05
-2.76184e-05
-2.53037e-05
-2.53838e-05
-2.68761e-05
-2.26798e-05
-2.17464e-05
-2.24674e-05
-2.04665e-05
-1.76249e-05
-1.80911e-05
-2.02896e-05
-1.4945e-05
-1.51441e-05
-1.51931e-05
-1.17502e-05
-1.30573e-05
-1.35938e-05
-1.06295e-05
-8.30288e-06
-9.85726e-06
-5.95461e-06
-5.06891e-06
-4.17847e-06
-3.56228e-06
-1.94825e-06
-6.92855e-07
8.24898e-05
5.66567e-05
5.87351e-05
5.92301e-05
4.01582e-05
3.1691e-05
2.53072e-05
1.35639e-05
6.39555e-06
4.30216e-06
1.29003e-06
-1.00011e-05
-2.21731e-05
-2.31027e-05
-2.65083e-05
-2.94821e-05
-3.13483e-05
-3.36555e-05
-4.18379e-05
-4.15286e-05
-4.12688e-05
-4.23365e-05
-4.17075e-05
-4.53578e-05
-3.85725e-05
-3.67324e-05
-3.76253e-05
-3.8414e-05
-3.72156e-05
-3.85116e-05
-3.58037e-05
-3.42772e-05
-3.36402e-05
-3.31371e-05
-3.12622e-05
-2.9376e-05
-2.98654e-05
-2.61486e-05
-2.71962e-05
-2.69912e-05
-2.78512e-05
-2.59191e-05
-2.2366e-05
-2.23419e-05
-2.10499e-05
-2.04639e-05
-1.98424e-05
-1.8373e-05
-1.79959e-05
-1.80535e-05
-1.7941e-05
-1.59465e-05
-1.57599e-05
-1.57919e-05
-1.42007e-05
-1.424e-05
-1.33792e-05
-1.10796e-05
-1.03442e-05
-1.09641e-05
-1.08335e-05
-9.82319e-06
-9.16108e-06
-7.93712e-06
-7.93215e-06
-8.91908e-06
-6.64505e-06
-4.98039e-06
-5.41464e-06
-5.94736e-06
-2.84557e-06
-2.79236e-06
-2.81528e-06
-1.07711e-06
-3.09591e-07
2.66051e-05
2.89056e-05
2.66697e-05
1.7554e-05
1.29232e-05
1.12287e-05
7.00907e-06
3.54322e-06
4.02726e-06
1.79593e-06
5.57551e-07
-1.31016e-06
-8.36315e-06
-9.09561e-06
-7.61213e-06
-1.14444e-05
-1.25078e-05
-1.20311e-05
-1.41294e-05
-1.47948e-05
-1.41477e-05
-1.46581e-05
-1.57842e-05
-1.69612e-05
-1.23546e-05
-1.38076e-05
-1.07722e-05
-1.14371e-05