/*--------------------------------*- C++ -*----------------------------------*\
| =========                 |                                                 |
| \\      /  F ield         | OpenFOAM: The Open Source CFD Toolbox           |
|  \\    /   O peration     | Version:  2.3.0                                 |
|   \\  /    A nd           | Web:      www.OpenFOAM.org                      |
|    \\/     M anipulation  |                                                 |
\*---------------------------------------------------------------------------*/
FoamFile
{
    version     2.0;
    format      ascii;
    class       volScalarField;
    location    "0.1";
    object      p;
}
// * * * * * * * * * * * * * * * * * * * * * * * * * * * * * * * * * * * * * //

dimensions      [0 2 -2 0 0 0 0];

internalField   nonuniform List<scalar> 
2250
(
0.00159495
0.00154864
0.00134281
0.00109807
0.000890734
0.00073312
0.000606119
0.000489391
0.000369995
0.000242788
0.000109124
-2.84803e-05
-0.000167264
-0.000302439
-0.000428895
-0.000541942
-0.000636732
-0.00070942
-0.000758611
-0.000785097
-0.000790782
-0.000778376
-0.000751857
-0.000715919
-0.000674128
-0.000628484
-0.000580443
-0.00053137
-0.000482764
-0.000436561
-0.00039452
-0.000357171
-0.000323986
-0.000293893
-0.00026586
-0.000239069
-0.000213221
-0.000188496
-0.000165241
-0.000144259
-0.000126008
-0.000110591
-9.78354e-05
-8.73773e-05
-7.87656e-05
-7.15561e-05
-6.53734e-05
-5.99366e-05
-5.50557e-05
-5.06124e-05
-4.65379e-05
-4.27926e-05
-3.93516e-05
-3.61966e-05
-3.33108e-05
-3.06775e-05
-2.82797e-05
-2.61001e-05
-2.41215e-05
-2.23277e-05
-2.07028e-05
-1.92327e-05
-1.79035e-05
-1.67036e-05
-1.56213e-05
-1.46475e-05
-1.37727e-05
-1.29905e-05
-1.22934e-05
-1.16777e-05
-1.11387e-05
-1.06744e-05
-1.02838e-05
-9.96715e-06
-9.72637e-06
-9.57039e-06
-9.50055e-06
-9.55275e-06
-9.72658e-06
-1.01146e-05
-1.07254e-05
-1.17154e-05
-1.30681e-05
-1.4859e-05
-1.68108e-05
-1.85699e-05
-1.93237e-05
-1.83995e-05
-1.51369e-05
-1.00001e-05
-3.62662e-06
2.83081e-06
8.97924e-06
1.41346e-05
1.82163e-05
2.03349e-05
2.04026e-05
1.75119e-05
1.21732e-05
4.58117e-06
0.00128634
0.00126153
0.001157
0.000999707
0.000837698
0.000694964
0.000570269
0.000455469
0.000342341
0.000224251
9.98422e-05
-2.86828e-05
-0.000159105
-0.000286843
-0.000405998
-0.000513099
-0.000604251
-0.000674832
-0.000723602
-0.000751728
-0.000760284
-0.000751318
-0.000728754
-0.000697019
-0.000659209
-0.000616916
-0.000571555
-0.000524842
-0.000478487
-0.000434084
-0.000393338
-0.000356974
-0.000324368
-0.00029465
-0.000266989
-0.000240484
-0.000214643
-0.000189615
-0.000166108
-0.000144774
-0.000126165
-0.000110474
-9.7546e-05
-8.70045e-05
-7.83718e-05
-7.11768e-05
-6.50233e-05
-5.96173e-05
-5.47622e-05
-5.0338e-05
-4.62765e-05
-4.25395e-05
-3.91038e-05
-3.59522e-05
-3.30689e-05
-3.04378e-05
-2.80418e-05
-2.58641e-05
-2.38873e-05
-2.20954e-05
-2.04723e-05
-1.9004e-05
-1.76765e-05
-1.64783e-05
-1.53977e-05
-1.44256e-05
-1.35524e-05
-1.27718e-05
-1.20764e-05
-1.14624e-05
-1.09253e-05
-1.0463e-05
-1.00747e-05
-9.76041e-06
-9.52209e-06
-9.36946e-06
-9.30082e-06
-9.35714e-06
-9.52855e-06
-9.92072e-06
-1.05275e-05
-1.15328e-05
-1.29093e-05
-1.4774e-05
-1.68332e-05
-1.87501e-05
-1.96348e-05
-1.87702e-05
-1.53787e-05
-1.00083e-05
-3.36387e-06
3.27643e-06
9.55152e-06
1.47891e-05
1.89379e-05
2.11149e-05
2.11611e-05
1.81923e-05
1.26216e-05
4.61977e-06
0.00108841
0.00107539
0.00101881
0.000917558
0.000795097
0.000669165
0.000546253
0.000431062
0.000322145
0.000211868
9.74026e-05
-1.89779e-05
-0.000135875
-0.000250443
-0.000357847
-0.000454891
-0.000538511
-0.000605196
-0.000653735
-0.000684364
-0.000697438
-0.000694906
-0.000680311
-0.000656742
-0.00062611
-0.000589933
-0.000549913
-0.000508127
-0.000466553
-0.000426471
-0.000388817
-0.000354334
-0.000322738
-0.000293301
-0.000265469
-0.000238841
-0.000213147
-0.000188518
-0.000165496
-0.000144664
-0.000126446
-0.000110975
-9.81113e-05
-8.75178e-05
-7.87669e-05
-7.1431e-05
-6.51449e-05
-5.96305e-05
-5.46958e-05
-5.02182e-05
-4.61235e-05
-4.23672e-05
-3.8921e-05
-3.5764e-05
-3.28778e-05
-3.0245e-05
-2.78478e-05
-2.56688e-05
-2.36905e-05
-2.18968e-05
-2.02717e-05
-1.88011e-05
-1.74709e-05
-1.62697e-05
-1.51857e-05
-1.421e-05
-1.33328e-05
-1.25481e-05
-1.18482e-05
-1.12299e-05
-1.06879e-05
-1.02215e-05
-9.82773e-06
-9.51022e-06
-9.26521e-06
-9.11056e-06
-9.03176e-06
-9.08497e-06
-9.23737e-06
-9.61986e-06
-1.02001e-05
-1.12086e-05
-1.26185e-05
-1.46225e-05
-1.69435e-05
-1.92521e-05
-2.0543e-05
-1.99004e-05
-1.63198e-05
-1.03758e-05
-3.06777e-06
4.12873e-06
1.07826e-05
1.63263e-05
2.06933e-05
2.30633e-05
2.30917e-05
1.98799e-05
1.37129e-05
4.95646e-06
0.000945539
0.000936217
0.000899274
0.000827576
0.000733459
0.000628043
0.000514495
0.000402622
0.000299729
0.000198616
9.41217e-05
-9.43846e-06
-0.000110965
-0.000211555
-0.000306832
-0.000392427
-0.000467472
-0.000529913
-0.000576913
-0.000608193
-0.000624661
-0.000627322
-0.000618686
-0.000601831
-0.000578361
-0.000548929
-0.000514943
-0.000479052
-0.000443502
-0.000408768
-0.000374946
-0.000342853
-0.000312907
-0.000284838
-0.000258356
-0.000233225
-0.000209188
-0.000186227
-0.000164663
-0.000144925
-0.000127369
-0.000112165
-9.92711e-05
-8.84666e-05
-7.94288e-05
-7.18063e-05
-6.52768e-05
-5.95784e-05
-5.45169e-05
-4.99591e-05
-4.5818e-05
-4.20375e-05
-3.85805e-05
-3.54202e-05
-3.25345e-05
-2.99037e-05
-2.75089e-05
-2.5332e-05
-2.33554e-05
-2.15626e-05
-1.99375e-05
-1.84661e-05
-1.71342e-05
-1.59306e-05
-1.48429e-05
-1.38632e-05
-1.29805e-05
-1.21904e-05
-1.14834e-05
-1.08587e-05
-1.03079e-05
-9.83502e-06
-9.43057e-06
-9.10751e-06
-8.8493e-06
-8.6894e-06
-8.59238e-06
-8.63457e-06
-8.75438e-06
-9.10509e-06
-9.6311e-06
-1.0607e-05
-1.20462e-05
-1.42486e-05
-1.70504e-05
-2.013e-05
-2.23579e-05
-2.23542e-05
-1.86287e-05
-1.15873e-05
-2.85947e-06
5.59282e-06
1.3108e-05
1.92935e-05
2.411e-05
2.68666e-05
2.69499e-05
2.32869e-05
1.59545e-05
5.80847e-06
0.000825271
0.000815553
0.000786888
0.000731032
0.000656387
0.000571192
0.000473344
0.00037061
0.000275769
0.000184841
9.09958e-05
-5.72273e-07
-8.78783e-05
-0.000174957
-0.000258748
-0.000333878
-0.000400667
-0.000458364
-0.000503036
-0.000533976
-0.000552841
-0.000559709
-0.000555534
-0.000543826
-0.000526948
-0.00050454
-0.000476877
-0.000446637
-0.000416282
-0.000386134
-0.000356032
-0.000326851
-0.000299466
-0.00027379
-0.00024937
-0.000225962
-0.000203494
-0.000182042
-0.000161869
-0.00014332
-0.000126681
-0.000112091
-9.95244e-05
-8.88162e-05
-7.97184e-05
-7.19523e-05
-6.52531e-05
-5.93962e-05
-5.42066e-05
-4.95561e-05
-4.53546e-05
-4.15395e-05
-3.80664e-05
-3.49018e-05
-3.20189e-05
-2.93945e-05
-2.70075e-05
-2.48385e-05
-2.28689e-05
-2.10818e-05
-1.9461e-05
-1.79922e-05
-1.66611e-05
-1.54567e-05
-1.43662e-05
-1.33824e-05
-1.24933e-05
-1.16961e-05
-1.0979e-05
-1.03449e-05
-9.78045e-06
-9.29661e-06
-8.87506e-06
-8.54026e-06
-8.26103e-06
-8.08673e-06
-7.96163e-06
-7.97525e-06
-8.04382e-06
-8.32005e-06
-8.73839e-06
-9.58567e-06
-1.0969e-05
-1.3338e-05
-1.68227e-05
-2.12382e-05
-2.54001e-05
-2.71631e-05
-2.38889e-05
-1.52112e-05
-3.65735e-06
7.5483e-06
1.70679e-05
2.46166e-05
3.03574e-05
3.38694e-05
3.43053e-05
3.01678e-05
2.08902e-05
7.6588e-06
0.000717591
0.000705649
0.000681565
0.000636703
0.000575255
0.000506481
0.000427436
0.000337895
0.000251673
0.000172431
9.0769e-05
8.35537e-06
-6.77104e-05
-0.000140989
-0.000214164
-0.000281441
-0.000340153
-0.000391842
-0.0004343
-0.000464747
-0.000484355
-0.00049422
-0.000494355
-0.000487203
-0.00047565
-0.000459377
-0.000437483
-0.000411962
-0.000385868
-0.000360181
-0.000334405
-0.000308751
-0.000284072
-0.000260622
-0.000238109
-0.000216395
-0.00019559
-0.000175847
-0.000157338
-0.000140261
-0.000124796
-0.00011104
-9.89826e-05
-8.85171e-05
-7.94736e-05
-7.16509e-05
-6.48469e-05
-5.88792e-05
-5.35962e-05
-4.88788e-05
-4.4637e-05
-4.08037e-05
-3.73283e-05
-3.41721e-05
-3.13037e-05
-2.86965e-05
-2.63272e-05
-2.4175e-05
-2.22204e-05
-2.0446e-05
-1.88349e-05
-1.73731e-05
-1.60457e-05
-1.48421e-05
-1.37488e-05
-1.27594e-05
-1.18607e-05
-1.10516e-05
-1.03181e-05
-9.6659e-06
-9.07807e-06
-8.57047e-06
-8.11846e-06
-7.75428e-06
-7.43739e-06
-7.22434e-06
-7.04963e-06
-6.99804e-06
-6.97702e-06
-7.10413e-06
-7.30638e-06
-7.82401e-06
-8.86646e-06
-1.10856e-05
-1.51596e-05
-2.14423e-05
-2.90253e-05
-3.48348e-05
-3.39537e-05
-2.37414e-05
-7.4087e-06
9.22562e-06
2.29985e-05
3.33565e-05
4.08924e-05
4.57651e-05
4.71917e-05
4.31202e-05
3.15913e-05
1.19369e-05
0.000619883
0.000605743
0.000584263
0.000547769
0.000497302
0.000441327
0.000378766
0.000304886
0.000229538
0.000160594
9.02791e-05
1.75997e-05
-4.8771e-05
-0.000111404
-0.000175765
-0.000235356
-0.000285773
-0.000331555
-0.000371941
-0.000401049
-0.000419766
-0.000432015
-0.000436814
-0.000433225
-0.000424461
-0.00041255
-0.000396217
-0.000375626
-0.000353703
-0.000332268
-0.000310696
-0.000288479
-0.000266422
-0.000245286
-0.000225031
-0.000205442
-0.00018658
-0.000168628
-0.00015173
-0.000136022
-0.000121645
-0.0001087
-9.72031e-05
-8.70918e-05
-7.82468e-05
-7.05187e-05
-6.37492e-05
-5.77883e-05
-5.25051e-05
-4.77918e-05
-4.35625e-05
-3.97505e-05
-3.63034e-05
-3.31796e-05
-3.03453e-05
-2.77719e-05
-2.54344e-05
-2.33109e-05
-2.13811e-05
-1.96272e-05
-1.80319e-05
-1.65809e-05
-1.52589e-05
-1.40552e-05
-1.29559e-05
-1.19546e-05
-1.10373e-05
-1.02034e-05
-9.43739e-06
-8.74612e-06
-8.11051e-06
-7.54803e-06
-7.03166e-06
-6.59442e-06
-6.19509e-06
-5.88538e-06
-5.60223e-06
-5.40971e-06
-5.21511e-06
-5.07371e-06
-4.88252e-06
-4.75621e-06
-4.91174e-06
-6.15327e-06
-9.88069e-06
-1.75514e-05
-2.92226e-05
-4.12152e-05
-4.53691e-05
-3.48183e-05
-1.28376e-05
1.07495e-05
2.96453e-05
4.28502e-05
5.18889e-05
5.80502e-05
6.11298e-05
5.86775e-05
4.7066e-05
1.88784e-05
0.00053098
0.000515198
0.000495626
0.000466445
0.000425679
0.000379219
0.000329727
0.000271701
0.000207713
0.000147349
8.86385e-05
2.6414e-05
-3.36796e-05
-8.82191e-05
-0.000141634
-0.000193291
-0.000239083
-0.000279832
-0.000315371
-0.00034209
-0.000360778
-0.000374648
-0.00038183
-0.000380189
-0.000373486
-0.000365437
-0.000354477
-0.000338857
-0.000320809
-0.000302965
-0.000285146
-0.000266391
-0.000247157
-0.000228424
-0.000210404
-0.00019288
-0.000175875
-0.000159622
-0.000144304
-0.000130021
-0.000116864
-0.000104907
-9.4167e-05
-8.46037e-05
-7.61333e-05
-6.8649e-05
-6.20343e-05
-5.61735e-05
-5.0961e-05
-4.63049e-05
-4.21286e-05
-3.8369e-05
-3.49747e-05
-3.19034e-05
-2.91199e-05
-2.6594e-05
-2.42998e-05
-2.22141e-05
-2.0316e-05
-1.85869e-05
-1.7009e-05
-1.55674e-05
-1.42463e-05
-1.30343e-05
-1.19165e-05
-1.08858e-05
-9.92707e-06
-9.03841e-06
-8.20302e-06
-7.42609e-06
-6.68733e-06
-6.00126e-06
-5.34151e-06
-4.73465e-06
-4.14434e-06
-3.60971e-06
-3.07806e-06
-2.58749e-06
-2.05515e-06
-1.4717e-06
-6.94517e-07
3.54501e-07
1.63986e-06
2.565e-06
1.49728e-06
-3.91068e-06
-1.50955e-05
-2.95416e-05
-3.79036e-05
-3.0757e-05
-1.19197e-05
6.98396e-06
2.0304e-05
2.88868e-05
3.52445e-05
4.11949e-05
4.66589e-05
4.9335e-05
4.55773e-05
1.98079e-05
0.000449785
0.00043365
0.000415805
0.000392256
0.000360068
0.000322312
0.00028252
0.000237074
0.000184912
0.000133466
8.40542e-05
3.14971e-05
-2.07284e-05
-6.74431e-05
-0.000113027
-0.000159072
-0.000198944
-0.000231604
-0.00026201
-0.000289386
-0.000309519
-0.000322157
-0.000328337
-0.000328406
-0.000324972
-0.000320709
-0.000314184
-0.000302982
-0.000288312
-0.000273047
-0.000257879
-0.000241951
-0.00022531
-0.000208865
-0.000193057
-0.000177734
-0.000162816
-0.000148477
-0.000134894
-0.000122151
-0.000110305
-9.94183e-05
-8.95264e-05
-8.06167e-05
-7.26401e-05
-6.55256e-05
-5.91902e-05
-5.35466e-05
-4.85099e-05
-4.40028e-05
-3.99577e-05
-3.63167e-05
-3.30311e-05
-3.00593e-05
-2.73662e-05
-2.49216e-05
-2.26987e-05
-2.06742e-05
-1.88264e-05
-1.71363e-05
-1.55854e-05
-1.41578e-05
-1.28367e-05
-1.16093e-05
-1.04593e-05
-9.37708e-06
-8.34563e-06
-7.35952e-06
-6.39977e-06
-5.46619e-06
-4.53686e-06
-3.61829e-06
-2.6847e-06
-1.75063e-06
-7.855e-07
1.88476e-07
1.20735e-06
2.25235e-06
3.37557e-06
4.60883e-06
6.08653e-06
8.03666e-06
1.07945e-05
1.4708e-05
1.96479e-05
2.46515e-05
2.77824e-05
2.72686e-05
2.17319e-05
1.09311e-05
-4.18583e-06
-2.0503e-05
-3.44862e-05
-4.43155e-05
-4.95921e-05
-4.99866e-05
-4.56729e-05
-3.60712e-05
-1.97873e-05
-6.09421e-06
0.000374954
0.000359741
0.000343683
0.000324661
0.000299854
0.000269675
0.000237245
0.000201944
0.000161106
0.000118038
7.65497e-05
3.40796e-05
-9.82713e-06
-5.09087e-05
-8.90484e-05
-0.000126201
-0.000160226
-0.00019008
-0.000217524
-0.000240812
-0.000257052
-0.000268431
-0.000277796
-0.000283418
-0.000283606
-0.000280225
-0.000274714
-0.000266174
-0.000254701
-0.000242275
-0.000229972
-0.000217203
-0.000203599
-0.000189739
-0.000176177
-0.000162932
-0.000149929
-0.000137306
-0.00012526
-0.000113897
-0.00010327
-9.34321e-05
-8.44178e-05
-7.62281e-05
-6.8832e-05
-6.21799e-05
-5.62118e-05
-5.0862e-05
-4.60641e-05
-4.17554e-05
-3.78788e-05
-3.43836e-05
-3.12255e-05
-2.83661e-05
-2.57717e-05
-2.34127e-05
-2.12629e-05
-1.92988e-05
-1.74986e-05
-1.58427e-05
-1.43121e-05
-1.28896e-05
-1.15576e-05
-1.0301e-05
-9.10195e-06
-7.94726e-06
-6.81784e-06
-5.70258e-06
-4.58007e-06
-3.44215e-06
-2.26429e-06
-1.04223e-06
2.51367e-07
1.61522e-06
3.07793e-06
4.63157e-06
6.29994e-06
8.06794e-06
9.94757e-06
1.19428e-05
1.41132e-05
1.67264e-05
2.04926e-05
2.71772e-05
3.96565e-05
6.08348e-05
9.015e-05
0.000118728
0.000126082
9.31369e-05
2.76291e-05
-4.40595e-05
-0.000104662
-0.000150368
-0.000182621
-0.000202328
-0.000206955
-0.000190757
-0.000147448
-5.8762e-05
0.000320961
0.000307271
0.000292619
0.000276115
0.000255671
0.000230753
0.000203356
0.000173997
0.000140616
0.000104496
6.91674e-05
3.36753e-05
-3.32298e-06
-3.85504e-05
-7.06289e-05
-0.000102046
-0.000132204
-0.000158224
-0.000180371
-0.000199779
-0.000215851
-0.000228743
-0.000238859
-0.000244443
-0.000244477
-0.000241331
-0.000237253
-0.000231598
-0.000223447
-0.000213774
-0.000203746
-0.000193254
-0.000181922
-0.000170088
-0.000158311
-0.00014677
-0.000135442
-0.000124409
-0.000113835
-0.000103825
-9.44235e-05
-8.56683e-05
-7.75899e-05
-7.01969e-05
-6.34728e-05
-5.73852e-05
-5.18917e-05
-4.69441e-05
-4.24909e-05
-3.84817e-05
-3.48688e-05
-3.16086e-05
-2.86618e-05
-2.59934e-05
-2.35724e-05
-2.13713e-05
-1.93651e-05
-1.75316e-05
-1.58501e-05
-1.4302e-05
-1.28689e-05
-1.15345e-05
-1.02819e-05
-9.09627e-06
-7.96068e-06
-6.8617e-06
-5.78108e-06
-4.70681e-06
-3.61837e-06
-2.50576e-06
-1.34587e-06
-1.30939e-07
1.16387e-06
2.54414e-06
4.03199e-06
5.63171e-06
7.35611e-06
9.20711e-06
1.1181e-05
1.32916e-05
1.55854e-05
1.83289e-05
2.22972e-05
2.94376e-05
4.30904e-05
6.67303e-05
9.98507e-05
0.000132844
0.000143121
0.00010767
3.20047e-05
-5.34841e-05
-0.000126316
-0.000180702
-0.000217944
-0.000239825
-0.000244486
-0.000225886
-0.000175855
-6.98731e-05
0.000281003
0.000268613
0.00025506
0.000240187
0.00022261
0.000201437
0.000177609
0.00015215
0.000124107
9.3529e-05
6.28241e-05
3.24287e-05
1.27787e-06
-2.90832e-05
-5.72198e-05
-8.42228e-05
-0.000109658
-0.00013164
-0.000151081
-0.000169517
-0.000185398
-0.000196951
-0.000204725
-0.000209289
-0.000210533
-0.000209473
-0.00020737
-0.000203753
-0.000197676
-0.000189694
-0.000181045
-0.000172058
-0.000162454
-0.000152341
-0.00014216
-0.000132149
-0.000122314
-0.000112688
-0.000103395
-9.45435e-05
-8.61886e-05
-7.83651e-05
-7.11042e-05
-6.44214e-05
-5.83114e-05
-5.2753e-05
-4.77158e-05
-4.3163e-05
-3.90542e-05
-3.53481e-05
-3.20046e-05
-2.89863e-05
-2.62587e-05
-2.37907e-05
-2.15542e-05
-1.9524e-05
-1.76775e-05
-1.59943e-05
-1.44556e-05
-1.30443e-05
-1.17444e-05
-1.05412e-05
-9.42014e-06
-8.36868e-06
-7.37274e-06
-6.42152e-06
-5.50054e-06
-4.6007e-06
-3.70632e-06
-2.81013e-06
-1.89566e-06
-9.57202e-07
2.20566e-08
1.04826e-06
2.13543e-06
3.294e-06
4.53296e-06
5.87686e-06
7.33909e-06
8.98692e-06
1.09131e-05
1.3379e-05
1.68759e-05
2.22295e-05
3.03823e-05
4.14612e-05
5.3273e-05
5.97728e-05
5.07766e-05
1.95512e-05
-2.60175e-05
-6.98008e-05
-0.000103354
-0.00012614
-0.000139637
-0.000144484
-0.000139133
-0.000120206
-8.47605e-05
-3.07258e-05
0.000240404
0.000229518
0.000217423
0.000204322
0.000189376
0.000171657
0.000151509
0.000130058
0.000107002
8.173e-05
5.57958e-05
3.0451e-05
4.8283e-06
-2.07667e-05
-4.4562e-05
-6.6603e-05
-8.77931e-05
-0.000107597
-0.000125464
-0.000141302
-0.000154149
-0.000163543
-0.000170781
-0.000176557
-0.000179837
-0.000180228
-0.000178753
-0.000175907
-0.000171263
-0.000164975
-0.000157947
-0.000150639
-0.000142862
-0.00013455
-0.000126
-0.000117486
-0.000109076
-0.000100802
-9.2761e-05
-8.50605e-05
-7.77622e-05
-7.09e-05
-6.45005e-05
-5.85808e-05
-5.31418e-05
-4.8171e-05
-4.36468e-05
-3.95424e-05
-3.58269e-05
-3.24678e-05
-2.94326e-05
-2.669e-05
-2.4211e-05
-2.19686e-05
-1.99384e-05
-1.80981e-05
-1.64278e-05
-1.49096e-05
-1.35268e-05
-1.22648e-05
-1.11098e-05
-1.00495e-05
-9.07208e-06
-8.16742e-06
-7.32493e-06
-6.53642e-06
-5.79209e-06
-5.08563e-06
-4.40751e-06
-3.75319e-06
-3.11321e-06
-2.48463e-06
-1.85886e-06
-1.23225e-06
-5.94423e-07
6.27551e-08
7.5491e-07
1.50721e-06
2.35845e-06
3.38479e-06
4.68428e-06
6.36951e-06
8.40804e-06
1.02497e-05
1.03566e-05
6.14301e-06
-4.79115e-06
-2.29198e-05
-4.24904e-05
-5.21613e-05
-4.85359e-05
-3.95895e-05
-3.12574e-05
-2.4086e-05
-1.68726e-05
-8.40173e-06
1.94673e-06
1.31408e-05
2.11561e-05
1.1836e-05
0.000199157
0.000189969
0.000179661
0.000168486
0.00015602
0.00014164
0.000125384
0.0001079
8.92113e-05
6.8991e-05
4.81199e-05
2.75834e-05
6.98565e-06
-1.35664e-05
-3.28878e-05
-5.11329e-05
-6.91395e-05
-8.59504e-05
-0.000100255
-0.000112466
-0.000123314
-0.000132632
-0.000140208
-0.000145808
-0.000148791
-0.000149175
-0.000148065
-0.000146173
-0.000143144
-0.000138706
-0.000133336
-0.000127536
-0.000121319
-0.000114616
-0.000107615
-0.000100574
-9.3605e-05
-8.67394e-05
-8.00407e-05
-7.35935e-05
-6.74568e-05
-6.16626e-05
-5.62334e-05
-5.1186e-05
-4.65263e-05
-4.22487e-05
-3.83397e-05
-3.47808e-05
-3.15496e-05
-2.86216e-05
-2.59717e-05
-2.35749e-05
-2.14075e-05
-1.94474e-05
-1.7674e-05
-1.60686e-05
-1.46142e-05
-1.32954e-05
-1.20983e-05
-1.10106e-05
-1.00209e-05
-9.11919e-06
-8.29599e-06
-7.54329e-06
-6.85312e-06
-6.21931e-06
-5.63529e-06
-5.09655e-06
-4.59786e-06
-4.13687e-06
-3.70881e-06
-3.31255e-06
-2.94351e-06
-2.60209e-06
-2.28153e-06
-1.97723e-06
-1.67578e-06
-1.36871e-06
-1.02806e-06
-6.40988e-07
-2.07608e-07
1.30239e-07
-8.32346e-08
-1.99209e-06
-7.56512e-06
-1.89883e-05
-3.68751e-05
-5.78059e-05
-7.14723e-05
-6.55661e-05
-4.01538e-05
-8.56928e-06
1.86093e-05
3.90253e-05
5.40635e-05
6.51826e-05
7.21254e-05
7.18334e-05
5.88096e-05
2.3948e-05
0.000157267
0.000149876
0.000141586
0.000132578
0.000122705
0.000111575
9.89987e-05
8.52916e-05
7.08316e-05
5.55738e-05
3.96451e-05
2.36126e-05
7.71939e-06
-8.035e-06
-2.33416e-05
-3.80046e-05
-5.19486e-05
-6.46549e-05
-7.58522e-05
-8.61121e-05
-9.56225e-05
-0.000103559
-0.000109376
-0.000113388
-0.00011588
-0.000116907
-0.000116795
-0.00011586
-0.000113937
-0.000110828
-0.000106821
-0.000102369
-9.7613e-05
-9.25106e-05
-8.71375e-05
-8.16712e-05
-7.62262e-05
-7.08411e-05
-6.55572e-05
-6.04379e-05
-5.55375e-05
-5.08886e-05
-4.65124e-05
-4.24244e-05
-3.8633e-05
-3.51378e-05
-3.19315e-05
-2.90022e-05
-2.63346e-05
-2.39115e-05
-2.17143e-05
-1.97244e-05
-1.79235e-05
-1.62942e-05
-1.48202e-05
-1.34867e-05
-1.22797e-05
-1.1187e-05
-1.01972e-05
-9.30054e-06
-8.488e-06
-7.75186e-06
-7.08483e-06
-6.48066e-06
-5.93316e-06
-5.43722e-06
-4.9883e-06
-4.58251e-06
-4.21656e-06
-3.88905e-06
-3.59853e-06
-3.34461e-06
-3.12529e-06
-2.94122e-06
-2.79088e-06
-2.67582e-06
-2.59474e-06
-2.55564e-06
-2.5735e-06
-2.70292e-06
-3.06007e-06
-3.91872e-06
-5.81524e-06
-9.59591e-06
-1.62422e-05
-2.61839e-05
-3.8299e-05
-4.87942e-05
-5.11266e-05
-4.03495e-05
-1.86495e-05
6.262e-06
2.83199e-05
4.53676e-05
5.73821e-05
6.45627e-05
6.60486e-05
5.95212e-05
4.26124e-05
1.5518e-05
0.000114515
0.000109044
0.000102956
9.63234e-05
8.91012e-05
8.10716e-05
7.20905e-05
6.23301e-05
5.20287e-05
4.11377e-05
2.97395e-05
1.8352e-05
7.16486e-06
-4.17229e-06
-1.5553e-05
-2.63037e-05
-3.61445e-05
-4.527e-05
-5.37474e-05
-6.14432e-05
-6.81366e-05
-7.35804e-05
-7.78101e-05
-8.11255e-05
-8.35607e-05
-8.48607e-05
-8.50369e-05
-8.44031e-05
-8.3102e-05
-8.10737e-05
-7.841e-05
-7.53647e-05
-7.20772e-05
-6.85365e-05
-6.47643e-05
-6.08691e-05
-5.69517e-05
-5.30592e-05
-4.9223e-05
-4.54863e-05
-4.18915e-05
-3.84671e-05
-3.52305e-05
-3.21945e-05
-2.9367e-05
-2.67503e-05
-2.43412e-05
-2.21329e-05
-2.01163e-05
-1.82799e-05
-1.66115e-05
-1.50981e-05
-1.3727e-05
-1.24857e-05
-1.13623e-05
-1.0346e-05
-9.42654e-06
-8.59467e-06
-7.84206e-06
-7.16136e-06
-6.54608e-06
-5.99083e-06
-5.49073e-06
-5.04147e-06
-4.63854e-06
-4.27714e-06
-3.95368e-06
-3.66465e-06
-3.40768e-06
-3.18097e-06
-2.98425e-06
-2.81824e-06
-2.6844e-06
-2.58193e-06
-2.51289e-06
-2.48235e-06
-2.50123e-06
-2.5888e-06
-2.78503e-06
-3.1644e-06
-3.87366e-06
-5.1387e-06
-7.28995e-06
-1.06272e-05
-1.52353e-05
-2.05729e-05
-2.52062e-05
-2.68722e-05
-2.31997e-05
-1.37671e-05
-1.02326e-06
1.16531e-05
2.2313e-05
3.03617e-05
3.56204e-05
3.77615e-05
3.60465e-05
2.96807e-05
1.89186e-05
6.20647e-06
7.04165e-05
6.69951e-05
6.32137e-05
5.90902e-05
5.46301e-05
4.97589e-05
4.43913e-05
3.85344e-05
3.22767e-05
2.5691e-05
1.88462e-05
1.1851e-05
4.76507e-06
-2.31926e-06
-9.09745e-06
-1.53426e-05
-2.12366e-05
-2.6959e-05
-3.22696e-05
-3.68919e-05
-4.08825e-05
-4.4355e-05
-4.72498e-05
-4.94786e-05
-5.09939e-05
-5.17683e-05
-5.19004e-05
-5.15967e-05
-5.09481e-05
-4.98901e-05
-4.84128e-05
-4.66396e-05
-4.46839e-05
-4.25691e-05
-4.03061e-05
-3.79511e-05
-3.55695e-05
-3.31977e-05
-3.08555e-05
-2.85663e-05
-2.63559e-05
-2.42434e-05
-2.22407e-05
-2.03559e-05
-1.85949e-05
-1.69601e-05
-1.54506e-05
-1.40633e-05
-1.27931e-05
-1.1634e-05
-1.05788e-05
-9.62021e-06
-8.7505e-06
-7.96229e-06
-7.24841e-06
-6.60216e-06
-6.01724e-06
-5.48793e-06
-5.00904e-06
-4.57589e-06
-4.18465e-06
-3.83194e-06
-3.51571e-06
-3.23402e-06
-2.9849e-06
-2.76476e-06
-2.56928e-06
-2.39498e-06
-2.24099e-06
-2.10545e-06
-1.98816e-06
-1.8895e-06
-1.81273e-06
-1.75837e-06
-1.72903e-06
-1.7292e-06
-1.77248e-06
-1.87653e-06
-2.07425e-06
-2.42296e-06
-3.01744e-06
-3.96846e-06
-5.38872e-06
-7.29071e-06
-9.4751e-06
-1.1413e-05
-1.22558e-05
-1.1144e-05
-7.65764e-06
-2.40841e-06
3.26118e-06
8.24017e-06
1.21141e-05
1.4858e-05
1.6382e-05
1.64406e-05
1.47531e-05
1.13097e-05
6.71353e-06
2.09954e-06
2.39548e-05
2.27766e-05
2.14839e-05
2.00742e-05
1.8548e-05
1.68883e-05
1.50817e-05
1.31549e-05
1.11497e-05
9.01676e-06
6.61318e-06
3.94167e-06
1.30588e-06
-9.57643e-07
-2.8606e-06
-4.73317e-06
-6.81473e-06
-8.97445e-06
-1.09022e-05
-1.24856e-05
-1.38402e-05
-1.50347e-05
-1.60011e-05
-1.66936e-05
-1.71543e-05
-1.74297e-05
-1.75403e-05
-1.75074e-05
-1.73362e-05
-1.70061e-05
-1.65191e-05
-1.59214e-05
-1.52596e-05
-1.45476e-05
-1.37877e-05
-1.29954e-05
-1.2192e-05
-1.13905e-05
-1.05977e-05
-9.8209e-06
-9.06881e-06
-8.34824e-06
-7.66356e-06
-7.01776e-06
-6.41301e-06
-5.85042e-06
-5.33e-06
-4.85089e-06
-4.41164e-06
-4.01032e-06
-3.64467e-06
-3.31227e-06
-3.01054e-06
-2.73704e-06
-2.48926e-06
-2.26494e-06
-2.06189e-06
-1.87806e-06
-1.71172e-06
-1.56104e-06
-1.42484e-06
-1.30168e-06
-1.19142e-06
-1.09406e-06
-1.01067e-06
-9.37625e-07
-8.76601e-07
-8.2113e-07
-7.71857e-07
-7.28129e-07
-6.89829e-07
-6.57736e-07
-6.33229e-07
-6.16692e-07
-6.08941e-07
-6.12694e-07
-6.33876e-07
-6.79215e-07
-7.61132e-07
-8.98e-07
-1.11902e-06
-1.45211e-06
-1.92017e-06
-2.5016e-06
-3.09056e-06
-3.49886e-06
-3.47638e-06
-2.85955e-06
-1.6568e-06
-1.20107e-07
1.39355e-06
2.65556e-06
3.59828e-06
4.24005e-06
4.53984e-06
4.43151e-06
3.86807e-06
2.90761e-06
1.73463e-06
5.72402e-07
0.000120163
0.000123072
0.000106465
0.000113069
0.000146421
0.000151202
0.000171342
0.000192899
0.000204273
0.000239154
0.000266923
0.000287662
0.000327147
0.000366295
0.000401399
0.000452734
0.000511074
0.000566047
0.000640499
0.000729477
0.000828615
0.000947288
0.00109948
0.00127009
0.00145244
0.000118665
0.000122495
0.000106791
0.000113302
0.00014528
0.000150776
0.000170462
0.000191416
0.00020296
0.000235661
0.000264499
0.000285386
0.000324208
0.000363392
0.0003975
0.000448521
0.000505462
0.000560301
0.000631398
0.00071756
0.000808327
0.000914268
0.00103617
0.00115683
0.00124836
0.000115153
0.000122011
0.000108422
0.000112617
0.000143382
0.000149628
0.000168336
0.000189731
0.000200571
0.000231882
0.000260976
0.000281684
0.000319605
0.000358495
0.000391906
0.000441631
0.000496711
0.000549317
0.000616308
0.000695829
0.000774793
0.000860502
0.000951497
0.00102913
0.00107508
0.000111055
0.000120846
0.000110192
0.000111249
0.000140623
0.000147499
0.000165281
0.000187413
0.000197141
0.000227214
0.000256435
0.000276037
0.000313399
0.000351791
0.000383363
0.000431233
0.000484435
0.000532749
0.000593734
0.000664297
0.000729383
0.000795339
0.000862175
0.000913208
0.000939941
0.000106593
0.000118096
0.00011179
0.000109411
0.000136607
0.000145002
0.000160636
0.000184092
0.00019306
0.000220493
0.000250742
0.000269101
0.000304332
0.000342736
0.000372177
0.000416568
0.00046745
0.000510511
0.000563244
0.00062449
0.000676693
0.000725659
0.000775118
0.000810831
0.000825891
0.000102143
0.000113751
0.000112225
0.000107484
0.000131161
0.000141842
0.000154582
0.00017887
0.000188352
0.00021181
0.000243119
0.000260769
0.000292078
0.000330723
0.000358274
0.000396954
0.000444953
0.000483271
0.000526121
0.000578026
0.000620314
0.000655452
0.000691635
0.000717316
0.000724022
9.77807e-05
0.000107819
0.000110568
0.000105568
0.000124278
0.00013749
0.000147626
0.000171001
0.000182776
0.0002016
0.000232252
0.000250937
0.000277239
0.000314309
0.000341173
0.000373283
0.000416534
0.000451116
0.000484444
0.000526703
0.000561748
0.000586362
0.000611221
0.000629419
0.000630698
9.31196e-05
0.00010075
0.000106297
0.000103001
0.000116512
0.000131159
0.000140033
0.000160778
0.000175057
0.000190157
0.000218159
0.000238475
0.000260013
0.000293374
0.000320202
0.000346139
0.000382569
0.000414196
0.000440044
0.000472179
0.000501043
0.000518745
0.000534155
0.000545962
0.000544233
8.7708e-05
9.29367e-05
9.94439e-05
9.88788e-05
0.000108128
0.000122467
0.000131415
0.00014853
0.000164188
0.000177506
0.000201134
0.000222057
0.00024062
0.00026859
0.000294208
0.000315797
0.00034479
0.000372597
0.000393089
0.000416169
0.000438984
0.000452183
0.000460497
0.000466738
0.000463472
8.08906e-05
8.43712e-05
9.05467e-05
9.24235e-05
9.89325e-05
0.000111617
0.000120857
0.000134612
0.000150097
0.000162562
0.000181549
0.000201606
0.000218215
0.000240379
0.000263509
0.000282162
0.000304022
0.000326969
0.000343907
0.000359876
0.000376344
0.000386247
0.000390257
0.000392065
0.000387693
7.42884e-05
7.68476e-05
8.2196e-05
8.53412e-05
9.07113e-05
0.000101518
0.000110719
0.000122343
0.000136523
0.000148527
0.000164344
0.000182448
0.000197808
0.00021605
0.000236236
0.00025291
0.000270308
0.000289196
0.000303804
0.000315796
0.000327928
0.000335814
0.000337977
0.000337263
0.000332235
6.85273e-05
7.05475e-05
7.51704e-05
7.89291e-05
8.37032e-05
9.30006e-05
0.000101935
0.000112105
0.00012494
0.000136485
0.000150093
0.000166289
0.000180667
0.00019621
0.000213793
0.000228974
0.000243515
0.000259231
0.000272042
0.000281741
0.000290982
0.000297308
0.000298508
0.000296473
0.000291106
6.16881e-05
6.33209e-05
6.71955e-05
7.11366e-05
7.54828e-05
8.32645e-05
9.15566e-05
0.00010044
0.000111637
0.000122356
0.000134001
0.000147968
0.000161007
0.000174132
0.000188925
0.000202329
0.000214373
0.000226993
0.000237861
0.000245706
0.000252412
0.000257106
0.000257682
0.000254941
0.000249396
5.36537e-05
5.50018e-05
5.81355e-05
6.1867e-05
6.58175e-05
7.2136e-05
7.94401e-05
8.70915e-05
9.64455e-05
0.000105947
0.00011579
0.00012731
0.000138618
0.000149569
0.000161509
0.00017278
0.000182643
0.00019244
0.000201154
0.000207377
0.000212075
0.000215245
0.000215345
0.000212393
0.000206981
4.43062e-05
4.54022e-05
4.78323e-05
5.10454e-05
5.44825e-05
5.94269e-05
6.54441e-05
7.17623e-05
7.92012e-05
8.70936e-05
9.51008e-05
0.00010414
0.000113363
0.000122158
0.000131335
0.000140259
0.000148045
0.000155309
0.000161838
0.000166582
0.000169757
0.000171628
0.00017136
0.000168625
0.000163786
3.35287e-05
3.43612e-05
3.61187e-05
3.85863e-05
4.13095e-05
4.49233e-05
4.94193e-05
5.422e-05
5.96903e-05
6.56291e-05
7.16501e-05
7.822e-05
8.50532e-05
9.15809e-05
9.81473e-05
0.000104591
0.000110252
0.000115292
0.000119778
0.000123087
0.000125094
0.000126044
0.000125589
0.000123366
0.000119505
2.12255e-05
2.17578e-05
2.28402e-05
2.44045e-05
2.61853e-05
2.84311e-05
3.12364e-05
3.42871e-05
3.76856e-05
4.14092e-05
4.5212e-05
4.92566e-05
5.34892e-05
5.75707e-05
6.15698e-05
6.54787e-05
6.89544e-05
7.19613e-05
7.45701e-05
7.65088e-05
7.76213e-05
7.80164e-05
7.7585e-05
7.61068e-05
7.35975e-05
7.34283e-06
7.52793e-06
7.89812e-06
8.43859e-06
9.06487e-06
9.83655e-06
1.07983e-05
1.18553e-05
1.30209e-05
1.43007e-05
1.56138e-05
1.69926e-05
1.84371e-05
1.98377e-05
2.11919e-05
2.25122e-05
2.36952e-05
2.47018e-05
2.55583e-05
2.61987e-05
2.65555e-05
2.66506e-05
2.647e-05
2.59459e-05
2.50652e-05
)
;

boundaryField
{
    top
    {
        type            fixedValue;
        value           uniform 0;
    }
    inlet
    {
        type            zeroGradient;
    }
    outlet
    {
        type            fixedValue;
        value           uniform 0;
    }
    plate
    {
        type            zeroGradient;
    }
    symmBound
    {
        type            zeroGradient;
    }
    frontAndBack
    {
        type            empty;
    }
}


// ************************************************************************* //
