/*--------------------------------*- C++ -*----------------------------------*\
| =========                 |                                                 |
| \\      /  F ield         | OpenFOAM: The Open Source CFD Toolbox           |
|  \\    /   O peration     | Version:  2.3.0                                 |
|   \\  /    A nd           | Web:      www.OpenFOAM.org                      |
|    \\/     M anipulation  |                                                 |
\*---------------------------------------------------------------------------*/
FoamFile
{
    version     2.0;
    format      ascii;
    class       volVectorField;
    location    "0.1";
    object      U_0;
}
// * * * * * * * * * * * * * * * * * * * * * * * * * * * * * * * * * * * * * //

dimensions      [0 1 -1 0 0 0 0];

internalField   nonuniform List<vector> 
2250
(
(0.187827 0.0025126 1.63824e-06)
(0.179064 0.00349028 4.72956e-06)
(0.171117 0.00414729 7.03351e-06)
(0.163273 0.00438561 8.29475e-06)
(0.155146 0.004349 8.83317e-06)
(0.146762 0.00424403 8.96539e-06)
(0.138198 0.00414911 8.76509e-06)
(0.129532 0.00403305 8.15737e-06)
(0.120921 0.00389192 6.996e-06)
(0.112505 0.00370934 5.1371e-06)
(0.104338 0.00348514 2.52773e-06)
(0.0964857 0.00321694 -8.33785e-07)
(0.0890318 0.00288607 -4.9151e-06)
(0.082065 0.00252459 -9.57569e-06)
(0.0756845 0.00214029 -1.4616e-05)
(0.069952 0.00171674 -1.98336e-05)
(0.064898 0.00128353 -2.4951e-05)
(0.0605604 0.000882482 -2.96587e-05)
(0.0569406 0.000521415 -3.37447e-05)
(0.0539895 0.000199068 -3.70744e-05)
(0.051649 -6.54223e-05 -3.95381e-05)
(0.049859 -0.000252206 -4.11006e-05)
(0.0485431 -0.00036601 -4.18453e-05)
(0.0476165 -0.000427502 -4.19215e-05)
(0.0470039 -0.000452955 -4.14412e-05)
(0.0466432 -0.000447578 -4.04612e-05)
(0.0464829 -0.000410274 -3.90443e-05)
(0.0464729 -0.000344364 -3.72796e-05)
(0.0465621 -0.000265177 -3.52834e-05)
(0.0466997 -0.000187203 -3.32055e-05)
(0.0468437 -0.000118594 -3.12037e-05)
(0.0469705 -6.31012e-05 -2.93506e-05)
(0.0470688 -2.68104e-05 -2.76226e-05)
(0.0471454 -7.10973e-06 -2.59617e-05)
(0.0472069 1.94536e-06 -2.43032e-05)
(0.0472598 3.28908e-06 -2.25849e-05)
(0.0473078 1.39169e-07 -2.07875e-05)
(0.0473501 -3.70526e-06 -1.89422e-05)
(0.0473831 -7.14142e-06 -1.712e-05)
(0.0474013 -9.65584e-06 -1.54139e-05)
(0.0474007 -1.06585e-05 -1.38923e-05)
(0.0473802 -1.03667e-05 -1.25881e-05)
(0.0473413 -9.31667e-06 -1.15012e-05)
(0.0472867 -8.01234e-06 -1.06068e-05)
(0.0472201 -6.79426e-06 -9.86683e-06)
(0.0471449 -5.8295e-06 -9.2409e-06)
(0.047064 -5.15795e-06 -8.69383e-06)
(0.0469795 -4.74893e-06 -8.19934e-06)
(0.0468928 -4.54501e-06 -7.7403e-06)
(0.0468047 -4.48814e-06 -7.30708e-06)
(0.0467159 -4.5315e-06 -6.8952e-06)
(0.0466266 -4.64213e-06 -6.50315e-06)
(0.0465369 -4.79925e-06 -6.13084e-06)
(0.0464469 -4.99079e-06 -5.77862e-06)
(0.0463568 -5.21028e-06 -5.44671e-06)
(0.0462666 -5.4542e-06 -5.13509e-06)
(0.0461764 -5.7209e-06 -4.84338e-06)
(0.0460863 -6.00877e-06 -4.571e-06)
(0.0459965 -6.31745e-06 -4.31711e-06)
(0.0459071 -6.64502e-06 -4.08083e-06)
(0.0458181 -6.99199e-06 -3.86113e-06)
(0.0457297 -7.3554e-06 -3.65705e-06)
(0.045642 -7.73719e-06 -3.46749e-06)
(0.045555 -8.1328e-06 -3.29158e-06)
(0.045469 -8.54627e-06 -3.12825e-06)
(0.045384 -8.97081e-06 -2.97678e-06)
(0.0453001 -9.4134e-06 -2.83621e-06)
(0.0452174 -9.86407e-06 -2.70606e-06)
(0.045136 -1.03337e-05 -2.5855e-06)
(0.0450559 -1.08086e-05 -2.47432e-06)
(0.0449775 -1.1303e-05 -2.37198e-06)
(0.0449005 -1.18017e-05 -2.27847e-06)
(0.0448254 -1.23176e-05 -2.19386e-06)
(0.0447518 -1.28411e-05 -2.11842e-06)
(0.0446804 -1.3376e-05 -2.0529e-06)
(0.0446105 -1.392e-05 -1.99936e-06)
(0.0445433 -1.44836e-05 -1.9582e-06)
(0.0444774 -1.50317e-05 -1.93891e-06)
(0.0444149 -1.56596e-05 -1.94147e-06)
(0.044353 -1.62029e-05 -1.99475e-06)
(0.0442964 -1.69807e-05 -2.10591e-06)
(0.0442386 -1.75629e-05 -2.33842e-06)
(0.0441901 -1.86221e-05 -2.71345e-06)
(0.0441372 -1.92867e-05 -3.30725e-06)
(0.0440998 -2.05066e-05 -4.09431e-06)
(0.0440515 -2.09288e-05 -5.03841e-06)
(0.0440268 -2.16452e-05 -5.92403e-06)
(0.0439786 -2.12193e-05 -6.51393e-06)
(0.0439644 -2.11779e-05 -6.40644e-06)
(0.0439098 -2.03944e-05 -5.44573e-06)
(0.0439063 -2.07308e-05 -3.61811e-06)
(0.0438441 -2.0783e-05 -1.36651e-06)
(0.0438574 -2.19549e-05 1.02075e-06)
(0.0437892 -2.28157e-05 3.16942e-06)
(0.0438261 -2.4388e-05 5.00346e-06)
(0.0437523 -2.5059e-05 6.1818e-06)
(0.0438159 -2.69941e-05 6.65623e-06)
(0.0437369 -2.56669e-05 6.00141e-06)
(0.0438142 -2.88727e-05 4.29365e-06)
(0.0437483 -2.03028e-05 1.57205e-06)
(0.194235 0.00464405 1.09266e-06)
(0.193938 0.0061799 3.22153e-06)
(0.193711 0.00731395 5.32463e-06)
(0.193405 0.00791529 6.98866e-06)
(0.192728 0.00810734 7.97287e-06)
(0.191607 0.00811822 8.26873e-06)
(0.1901 0.00813335 7.97499e-06)
(0.188208 0.00817214 7.2568e-06)
(0.185925 0.00816577 6.15413e-06)
(0.18334 0.00807928 4.52213e-06)
(0.180526 0.007923 2.26825e-06)
(0.177504 0.00770555 -5.93185e-07)
(0.174311 0.00740769 -4.0647e-06)
(0.170977 0.00701631 -8.05872e-06)
(0.16752 0.00653967 -1.23843e-05)
(0.164023 0.00599597 -1.69027e-05)
(0.160543 0.00539826 -2.1425e-05)
(0.15709 0.00475803 -2.56888e-05)
(0.15372 0.00410467 -2.95257e-05)
(0.150492 0.00347202 -3.28092e-05)
(0.147435 0.00286954 -3.53941e-05)
(0.144569 0.00230098 -3.72407e-05)
(0.141922 0.00179069 -3.84257e-05)
(0.139524 0.00135701 -3.9017e-05)
(0.137391 0.000992174 -3.90359e-05)
(0.13551 0.000682324 -3.85068e-05)
(0.133871 0.000414791 -3.74996e-05)
(0.13247 0.000185036 -3.61431e-05)
(0.131305 9.29916e-06 -3.45735e-05)
(0.130358 -0.000100278 -3.28815e-05)
(0.129611 -0.000160465 -3.11611e-05)
(0.129046 -0.000188045 -2.94936e-05)
(0.128629 -0.000195798 -2.78644e-05)
(0.128339 -0.000197085 -2.62336e-05)
(0.128158 -0.000196839 -2.45744e-05)
(0.128067 -0.000193178 -2.28528e-05)
(0.128046 -0.000182184 -2.10447e-05)
(0.12807 -0.000161252 -1.91858e-05)
(0.12811 -0.000133071 -1.73632e-05)
(0.128142 -0.000102479 -1.56465e-05)
(0.128146 -7.32423e-05 -1.41059e-05)
(0.128111 -4.80746e-05 -1.27778e-05)
(0.128033 -2.84521e-05 -1.16646e-05)
(0.127915 -1.46038e-05 -1.07438e-05)
(0.127763 -5.8103e-06 -9.97899e-06)
(0.127586 -8.63862e-07 -9.33089e-06)
(0.12739 1.50219e-06 -8.7649e-06)
(0.127181 2.34026e-06 -8.25475e-06)
(0.126964 2.38787e-06 -7.78295e-06)
(0.126741 2.08848e-06 -7.3393e-06)
(0.126514 1.6672e-06 -6.91872e-06)
(0.126284 1.21335e-06 -6.51919e-06)
(0.126051 7.45114e-07 -6.14024e-06)
(0.125816 2.51803e-07 -5.78193e-06)
(0.125579 -2.84338e-07 -5.44433e-06)
(0.125339 -8.7726e-07 -5.12729e-06)
(0.125097 -1.53661e-06 -4.83039e-06)
(0.124854 -2.2648e-06 -4.55297e-06)
(0.124608 -3.06402e-06 -4.29419e-06)
(0.124361 -3.92903e-06 -4.05313e-06)
(0.124112 -4.86131e-06 -3.82871e-06)
(0.123862 -5.85048e-06 -3.61999e-06)
(0.12361 -6.90225e-06 -3.42581e-06)
(0.123356 -8.00049e-06 -3.24531e-06)
(0.123102 -9.15852e-06 -3.07733e-06)
(0.122846 -1.03524e-05 -2.92124e-06)
(0.122589 -1.16058e-05 -2.77593e-06)
(0.122331 -1.28849e-05 -2.64103e-06)
(0.122072 -1.4225e-05 -2.51556e-06)
(0.121812 -1.55826e-05 -2.39945e-06)
(0.121551 -1.70014e-05 -2.29197e-06)
(0.12129 -1.84362e-05 -2.19336e-06)
(0.121028 -1.99244e-05 -2.10332e-06)
(0.120765 -2.14394e-05 -2.02277e-06)
(0.120503 -2.29902e-05 -1.95124e-06)
(0.120238 -2.45839e-05 -1.89273e-06)
(0.119976 -2.62085e-05 -1.84388e-06)
(0.119709 -2.78656e-05 -1.81889e-06)
(0.119449 -2.96316e-05 -1.80898e-06)
(0.119179 -3.1376e-05 -1.85223e-06)
(0.118923 -3.34558e-05 -1.94267e-06)
(0.118647 -3.55405e-05 -2.16308e-06)
(0.1184 -3.81724e-05 -2.53008e-06)
(0.118117 -4.0902e-05 -3.15889e-06)
(0.117885 -4.36763e-05 -4.03254e-06)
(0.117591 -4.61415e-05 -5.14056e-06)
(0.117378 -4.72145e-05 -6.23477e-06)
(0.117067 -4.74476e-05 -7.03813e-06)
(0.116874 -4.61072e-05 -7.02539e-06)
(0.116537 -4.48545e-05 -5.94821e-06)
(0.116364 -4.45384e-05 -3.80228e-06)
(0.115997 -4.50627e-05 -1.1809e-06)
(0.115854 -4.76265e-05 1.51666e-06)
(0.115456 -4.97818e-05 3.9013e-06)
(0.115349 -5.47052e-05 5.89923e-06)
(0.11492 -5.62281e-05 7.21307e-06)
(0.114854 -6.28926e-05 7.72511e-06)
(0.114389 -6.05373e-05 7.00823e-06)
(0.114361 -6.70445e-05 4.98303e-06)
(0.11385 -5.72185e-05 1.67709e-06)
(0.195137 0.00459424 8.1857e-07)
(0.195161 0.00558952 2.43282e-06)
(0.195423 0.00648118 4.14969e-06)
(0.195901 0.00712062 5.76031e-06)
(0.1964 0.00750877 6.96113e-06)
(0.196842 0.00771841 7.49276e-06)
(0.197217 0.00786735 7.24205e-06)
(0.197466 0.00804424 6.46777e-06)
(0.197566 0.00821457 5.44765e-06)
(0.197547 0.00830467 4.0617e-06)
(0.197413 0.00830857 2.21248e-06)
(0.197159 0.00824477 4.19278e-08)
(0.196805 0.00809631 -2.46919e-06)
(0.196329 0.00784939 -5.42517e-06)
(0.195691 0.00751171 -8.68023e-06)
(0.194912 0.00708063 -1.20607e-05)
(0.194017 0.00656926 -1.55594e-05)
(0.192998 0.00601539 -1.90798e-05)
(0.191867 0.00543723 -2.23988e-05)
(0.190651 0.00484133 -2.53779e-05)
(0.189376 0.00425254 -2.79397e-05)
(0.188068 0.0036945 -3.00169e-05)
(0.186754 0.00317281 -3.16232e-05)
(0.18546 0.00268913 -3.27794e-05)
(0.184205 0.00224636 -3.3432e-05)
(0.183009 0.00184694 -3.3537e-05)
(0.18188 0.00149035 -3.31551e-05)
(0.180822 0.00116991 -3.24774e-05)
(0.179849 0.000890171 -3.16594e-05)
(0.178968 0.000660681 -3.06743e-05)
(0.178188 0.000476493 -2.94582e-05)
(0.177521 0.000326152 -2.80887e-05)
(0.176955 0.00020148 -2.66449e-05)
(0.176472 9.11289e-05 -2.51336e-05)
(0.176064 -1.34242e-05 -2.35726e-05)
(0.175723 -0.000110056 -2.19954e-05)
(0.175448 -0.000189735 -2.04074e-05)
(0.175239 -0.000243333 -1.88125e-05)
(0.17509 -0.000265669 -1.72387e-05)
(0.174993 -0.000258189 -1.57333e-05)
(0.174931 -0.000228073 -1.43342e-05)
(0.174885 -0.000185014 -1.30715e-05)
(0.174839 -0.000138396 -1.19604e-05)
(0.17478 -9.53437e-05 -1.09988e-05)
(0.174701 -5.99364e-05 -1.01717e-05)
(0.1746 -3.34602e-05 -9.45705e-06)
(0.174478 -1.52563e-05 -8.83142e-06)
(0.174339 -3.68288e-06 -8.27365e-06)
(0.174186 3.1229e-06 -7.76698e-06)
(0.174023 6.79262e-06 -7.29946e-06)
(0.173852 8.54789e-06 -6.86333e-06)
(0.173675 9.20154e-06 -6.45393e-06)
(0.173495 9.24155e-06 -6.06866e-06)
(0.173311 8.93511e-06 -5.70606e-06)
(0.173124 8.41495e-06 -5.36519e-06)
(0.172934 7.74241e-06 -5.04532e-06)
(0.172743 6.94257e-06 -4.74566e-06)
(0.172548 6.02855e-06 -4.4654e-06)
(0.172352 5.00428e-06 -4.20354e-06)
(0.172153 3.87973e-06 -3.95913e-06)
(0.171952 2.65369e-06 -3.73101e-06)
(0.171749 1.34173e-06 -3.51822e-06)
(0.171543 -6.40788e-08 -3.31951e-06)
(0.171335 -1.54141e-06 -3.13406e-06)
(0.171125 -3.10594e-06 -2.96056e-06)
(0.170913 -4.73164e-06 -2.79849e-06)
(0.170698 -6.43612e-06 -2.64644e-06)
(0.170481 -8.20101e-06 -2.50437e-06)
(0.170262 -1.00278e-05 -2.3707e-06)
(0.17004 -1.19335e-05 -2.24612e-06)
(0.169817 -1.38599e-05 -2.12871e-06)
(0.16959 -1.59292e-05 -2.0204e-06)
(0.169363 -1.79108e-05 -1.91827e-06)
(0.16913 -2.02058e-05 -1.82699e-06)
(0.1689 -2.21632e-05 -1.74045e-06)
(0.168661 -2.47807e-05 -1.66971e-06)
(0.168429 -2.66339e-05 -1.60092e-06)
(0.168182 -2.96676e-05 -1.55842e-06)
(0.167951 -3.14149e-05 -1.51632e-06)
(0.167692 -3.50234e-05 -1.52387e-06)
(0.167465 -3.68865e-05 -1.5547e-06)
(0.167193 -4.15353e-05 -1.71202e-06)
(0.166973 -4.41137e-05 -2.02266e-06)
(0.166684 -5.0335e-05 -2.66725e-06)
(0.166479 -5.34328e-05 -3.70454e-06)
(0.166172 -5.93968e-05 -5.17317e-06)
(0.165984 -5.97766e-05 -6.82135e-06)
(0.165651 -6.11067e-05 -8.23069e-06)
(0.16548 -5.67946e-05 -8.63602e-06)
(0.165113 -5.43118e-05 -7.40754e-06)
(0.164957 -5.17074e-05 -4.57407e-06)
(0.164555 -5.23686e-05 -1.01651e-06)
(0.164422 -5.51617e-05 2.48178e-06)
(0.163985 -5.96655e-05 5.4991e-06)
(0.163882 -6.60278e-05 7.92385e-06)
(0.163408 -7.10796e-05 9.59715e-06)
(0.16334 -7.89513e-05 1.02752e-05)
(0.162824 -8.12057e-05 9.4519e-06)
(0.162791 -8.53331e-05 6.72976e-06)
(0.162218 -8.18494e-05 2.26867e-06)
(0.195859 0.00441479 6.28689e-07)
(0.195874 0.00511834 1.84595e-06)
(0.196049 0.00579183 3.10633e-06)
(0.196446 0.00636039 4.32368e-06)
(0.196924 0.00681437 5.36962e-06)
(0.197423 0.00712712 6.05285e-06)
(0.19799 0.00732444 6.04123e-06)
(0.198542 0.00751149 5.40563e-06)
(0.19901 0.0077016 4.57245e-06)
(0.199471 0.00782149 3.50942e-06)
(0.199936 0.0078597 2.05755e-06)
(0.200344 0.00783329 4.91158e-07)
(0.200715 0.00772617 -1.15825e-06)
(0.20107 0.00754262 -3.20516e-06)
(0.201357 0.00729227 -5.53613e-06)
(0.201549 0.0069489 -7.90942e-06)
(0.201667 0.00651929 -1.04971e-05)
(0.201701 0.00605587 -1.33088e-05)
(0.20163 0.00557418 -1.6003e-05)
(0.201456 0.00506272 -1.84983e-05)
(0.201194 0.00454173 -2.08598e-05)
(0.200855 0.00404096 -2.28876e-05)
(0.200459 0.00356296 -2.44563e-05)
(0.200023 0.00310104 -2.5751e-05)
(0.199555 0.00266368 -2.68435e-05)
(0.199058 0.00226253 -2.75205e-05)
(0.198545 0.00189838 -2.76948e-05)
(0.198038 0.00157125 -2.75843e-05)
(0.197551 0.00128338 -2.73555e-05)
(0.19708 0.0010325 -2.69082e-05)
(0.196628 0.000811335 -2.61279e-05)
(0.196205 0.000612527 -2.51034e-05)
(0.195818 0.000435568 -2.40033e-05)
(0.195466 0.000282114 -2.28776e-05)
(0.195146 0.000149124 -2.17113e-05)
(0.194853 3.33272e-05 -2.05119e-05)
(0.194585 -6.41724e-05 -1.92939e-05)
(0.194343 -0.00013943 -1.80586e-05)
(0.194132 -0.000188777 -1.68078e-05)
(0.193955 -0.000211228 -1.5561e-05)
(0.193814 -0.000209445 -1.43448e-05)
(0.193704 -0.000189145 -1.31888e-05)
(0.19362 -0.000157606 -1.21171e-05)
(0.193552 -0.00012191 -1.11448e-05)
(0.193492 -8.7617e-05 -1.02764e-05)
(0.193434 -5.81899e-05 -9.50702e-06)
(0.193374 -3.50971e-05 -8.82592e-06)
(0.193308 -1.83186e-05 -8.21944e-06)
(0.193236 -6.96841e-06 -7.67404e-06)
(0.193159 1.72236e-07 -7.178e-06)
(0.193077 4.29601e-06 -6.72217e-06)
(0.192992 6.38842e-06 -6.29988e-06)
(0.192905 7.17584e-06 -5.9065e-06)
(0.192815 7.14962e-06 -5.53888e-06)
(0.192724 6.61968e-06 -5.19483e-06)
(0.192631 5.77123e-06 -4.87271e-06)
(0.192538 4.71004e-06 -4.57113e-06)
(0.192443 3.49661e-06 -4.28888e-06)
(0.192347 2.1632e-06 -4.0247e-06)
(0.19225 7.32275e-07 -3.77746e-06)
(0.192152 -7.86834e-07 -3.54587e-06)
(0.192053 -2.38204e-06 -3.32889e-06)
(0.191953 -4.04869e-06 -3.12511e-06)
(0.191851 -5.78596e-06 -2.93373e-06)
(0.191748 -7.57456e-06 -2.75314e-06)
(0.191643 -9.44981e-06 -2.58305e-06)
(0.191538 -1.13354e-05 -2.42144e-06)
(0.191429 -1.33632e-05 -2.26892e-06)
(0.191321 -1.53126e-05 -2.1227e-06)
(0.191209 -1.75342e-05 -1.98495e-06)
(0.191097 -1.94911e-05 -1.85135e-06)
(0.190981 -2.19911e-05 -1.72704e-06)
(0.190867 -2.38571e-05 -1.60434e-06)
(0.190745 -2.67741e-05 -1.49396e-06)
(0.190629 -2.84168e-05 -1.38139e-06)
(0.1905 -3.19074e-05 -1.28667e-06)
(0.190384 -3.32388e-05 -1.18361e-06)
(0.190247 -3.73895e-05 -1.10415e-06)
(0.190131 -3.85232e-05 -1.00691e-06)
(0.189984 -4.3386e-05 -9.36907e-07)
(0.18987 -4.48584e-05 -8.51922e-07)
(0.189711 -5.09943e-05 -8.45369e-07)
(0.189602 -5.40232e-05 -9.81725e-07)
(0.18943 -6.2691e-05 -1.52352e-06)
(0.189331 -6.76607e-05 -2.74566e-06)
(0.189144 -7.67642e-05 -4.84303e-06)
(0.189058 -7.81009e-05 -7.67421e-06)
(0.188852 -7.87687e-05 -1.05823e-05)
(0.188771 -7.05925e-05 -1.23097e-05)
(0.18854 -6.24043e-05 -1.12371e-05)
(0.188461 -5.52332e-05 -7.13973e-06)
(0.188203 -5.36439e-05 -1.50597e-06)
(0.188136 -5.60412e-05 3.96787e-06)
(0.187854 -6.29934e-05 8.52209e-06)
(0.187803 -7.09619e-05 1.20111e-05)
(0.187498 -7.94533e-05 1.45094e-05)
(0.187465 -8.83738e-05 1.57508e-05)
(0.187134 -9.49439e-05 1.50213e-05)
(0.187119 -9.84891e-05 1.11808e-05)
(0.186746 -9.98071e-05 4.00985e-06)
(0.196457 0.00428843 4.53944e-07)
(0.196486 0.00484498 1.29549e-06)
(0.196625 0.0054061 2.14069e-06)
(0.196935 0.00590507 2.95305e-06)
(0.197314 0.00633577 3.67936e-06)
(0.197721 0.00669585 4.3352e-06)
(0.198231 0.00693593 4.64635e-06)
(0.198764 0.00710209 4.31637e-06)
(0.199221 0.0072704 3.69562e-06)
(0.199689 0.00738824 3.05789e-06)
(0.200197 0.00740725 2.0882e-06)
(0.200653 0.00737212 8.76493e-07)
(0.201075 0.00729077 -1.8474e-07)
(0.201525 0.00713182 -1.37525e-06)
(0.201953 0.00690348 -2.99756e-06)
(0.202314 0.00661372 -4.74497e-06)
(0.202636 0.00625584 -6.52945e-06)
(0.202914 0.00585353 -8.5936e-06)
(0.203114 0.0054339 -1.07857e-05)
(0.203237 0.00499245 -1.28491e-05)
(0.203297 0.00453226 -1.48603e-05)
(0.203287 0.00408101 -1.67619e-05)
(0.20321 0.00364903 -1.83156e-05)
(0.203092 0.00322774 -1.96456e-05)
(0.202945 0.00282285 -2.09779e-05)
(0.202761 0.00244804 -2.21009e-05)
(0.202539 0.00210711 -2.27181e-05)
(0.202299 0.00179703 -2.29135e-05)
(0.202055 0.00151404 -2.29409e-05)
(0.201805 0.00125716 -2.28599e-05)
(0.201546 0.00102596 -2.25513e-05)
(0.20129 0.000817737 -2.19857e-05)
(0.201047 0.000632394 -2.12885e-05)
(0.200816 0.00047148 -2.0523e-05)
(0.200594 0.000332304 -1.96532e-05)
(0.200377 0.000210252 -1.86876e-05)
(0.200165 0.000103812 -1.76898e-05)
(0.199958 1.47911e-05 -1.66982e-05)
(0.19976 -5.38779e-05 -1.57138e-05)
(0.199578 -0.00010014 -1.47335e-05)
(0.199418 -0.000124129 -1.37599e-05)
(0.199281 -0.000128534 -1.28013e-05)
(0.19917 -0.000118067 -1.18706e-05)
(0.199081 -9.83373e-05 -1.09827e-05)
(0.19901 -7.46564e-05 -1.01508e-05)
(0.198952 -5.11936e-05 -9.38403e-06)
(0.198903 -3.06307e-05 -8.68531e-06)
(0.198859 -1.4244e-05 -8.0527e-06)
(0.198817 -2.24063e-06 -7.48067e-06)
(0.198777 5.8315e-06 -6.96202e-06)
(0.198736 1.0723e-05 -6.48932e-06)
(0.198696 1.3231e-05 -6.05582e-06)
(0.198657 1.40573e-05 -5.6559e-06)
(0.198617 1.37535e-05 -5.28515e-06)
(0.198578 1.27196e-05 -4.94012e-06)
(0.198539 1.12278e-05 -4.61816e-06)
(0.1985 9.45586e-06 -4.31712e-06)
(0.198462 7.51333e-06 -4.03522e-06)
(0.198424 5.4693e-06 -3.7708e-06)
(0.198387 3.36037e-06 -3.52245e-06)
(0.198349 1.21622e-06 -3.2886e-06)
(0.198312 -9.62924e-07 -3.06806e-06)
(0.198274 -3.14504e-06 -2.85915e-06)
(0.198237 -5.37386e-06 -2.66104e-06)
(0.198199 -7.56503e-06 -2.47168e-06)
(0.198161 -9.86235e-06 -2.29092e-06)
(0.198123 -1.20348e-05 -2.11601e-06)
(0.198084 -1.44521e-05 -1.94802e-06)
(0.198045 -1.65619e-05 -1.7829e-06)
(0.198004 -1.91868e-05 -1.62391e-06)
(0.197965 -2.11636e-05 -1.4646e-06)
(0.197921 -2.41219e-05 -1.31217e-06)
(0.197882 -2.58718e-05 -1.15551e-06)
(0.197835 -2.93052e-05 -1.00859e-06)
(0.197796 -3.07598e-05 -8.52006e-07)
(0.197745 -3.47365e-05 -7.08308e-07)
(0.197707 -3.59921e-05 -5.46749e-07)
(0.197651 -4.03799e-05 -3.92967e-07)
(0.197613 -4.18348e-05 -2.01911e-07)
(0.197551 -4.64835e-05 1.50009e-08)
(0.197513 -4.88966e-05 3.13556e-07)
(0.197446 -5.46787e-05 6.74061e-07)
(0.19741 -5.97507e-05 1.0097e-06)
(0.197336 -6.9756e-05 9.85859e-07)
(0.197308 -7.94281e-05 -7.16723e-08)
(0.197229 -9.2808e-05 -2.86419e-06)
(0.19721 -9.95049e-05 -7.71131e-06)
(0.197124 -9.9443e-05 -1.38092e-05)
(0.197104 -8.7539e-05 -1.90015e-05)
(0.197001 -6.81086e-05 -1.95714e-05)
(0.196971 -5.14939e-05 -1.38952e-05)
(0.196848 -4.30238e-05 -4.31972e-06)
(0.196823 -4.39728e-05 5.49217e-06)
(0.19669 -5.22284e-05 1.35442e-05)
(0.196673 -6.36178e-05 1.94737e-05)
(0.196533 -7.46945e-05 2.36818e-05)
(0.196525 -8.54938e-05 2.62737e-05)
(0.196373 -9.49204e-05 2.6497e-05)
(0.196373 -0.000100984 2.18878e-05)
(0.196199 -0.000109762 8.63296e-06)
(0.19699 0.00419748 2.97999e-07)
(0.197037 0.0046577 8.11312e-07)
(0.197147 0.00512974 1.31591e-06)
(0.197392 0.005561 1.82192e-06)
(0.197721 0.00594159 2.26476e-06)
(0.198043 0.00628984 2.76473e-06)
(0.198439 0.00654543 3.27825e-06)
(0.198924 0.00670243 3.32077e-06)
(0.199354 0.00684287 2.96477e-06)
(0.199738 0.00694599 2.69648e-06)
(0.200184 0.00695438 2.20737e-06)
(0.200631 0.00691458 1.30729e-06)
(0.201007 0.00684661 6.14648e-07)
(0.201382 0.00670449 1.80827e-08)
(0.201782 0.00650147 -1.10839e-06)
(0.202144 0.0062654 -2.36686e-06)
(0.202457 0.00596825 -3.38397e-06)
(0.202743 0.00561185 -4.77137e-06)
(0.202979 0.00524344 -6.60677e-06)
(0.203149 0.00486775 -8.21041e-06)
(0.203268 0.00446451 -9.66499e-06)
(0.203336 0.00405465 -1.1437e-05)
(0.203344 0.00366747 -1.31765e-05)
(0.203315 0.00329638 -1.44452e-05)
(0.203268 0.00292973 -1.55495e-05)
(0.203186 0.0025787 -1.67508e-05)
(0.203059 0.00225627 -1.77065e-05)
(0.202903 0.00195968 -1.81674e-05)
(0.202744 0.00168309 -1.84144e-05)
(0.202582 0.00142929 -1.87107e-05)
(0.202411 0.0012021 -1.88948e-05)
(0.202233 0.000998263 -1.87403e-05)
(0.202054 0.000813136 -1.83113e-05)
(0.201874 0.000646329 -1.77748e-05)
(0.201695 0.000498164 -1.71726e-05)
(0.201516 0.000367366 -1.64981e-05)
(0.201339 0.000253391 -1.57911e-05)
(0.201166 0.000157497 -1.50875e-05)
(0.200998 8.14287e-05 -1.43792e-05)
(0.200839 2.60272e-05 -1.36444e-05)
(0.200692 -9.39998e-06 -1.28751e-05)
(0.200561 -2.71921e-05 -1.20785e-05)
(0.200446 -3.10455e-05 -1.12701e-05)
(0.200349 -2.53448e-05 -1.0469e-05)
(0.200269 -1.43632e-05 -9.69467e-06)
(0.200203 -1.63484e-06 -8.96318e-06)
(0.200149 1.03542e-05 -8.28461e-06)
(0.200103 2.01772e-05 -7.66278e-06)
(0.200064 2.72779e-05 -7.09661e-06)
(0.200031 3.1698e-05 -6.5819e-06)
(0.2 3.3812e-05 -6.11296e-06)
(0.199973 3.41205e-05 -5.68387e-06)
(0.199947 3.31174e-05 -5.28918e-06)
(0.199923 3.12222e-05 -4.92425e-06)
(0.1999 2.87592e-05 -4.58526e-06)
(0.199879 2.59598e-05 -4.26912e-06)
(0.19986 2.29834e-05 -3.97324e-06)
(0.199841 1.99288e-05 -3.69546e-06)
(0.199823 1.68642e-05 -3.43379e-06)
(0.199806 1.38173e-05 -3.18647e-06)
(0.19979 1.08249e-05 -2.95166e-06)
(0.199775 7.86686e-06 -2.72786e-06)
(0.19976 4.99798e-06 -2.51303e-06)
(0.199746 2.12756e-06 -2.30601e-06)
(0.199732 -6.0038e-07 -2.10429e-06)
(0.199719 -3.43137e-06 -1.90733e-06)
(0.199706 -5.99972e-06 -1.71174e-06)
(0.199693 -8.87851e-06 -1.51815e-06)
(0.199681 -1.12504e-05 -1.3217e-06)
(0.199667 -1.42998e-05 -1.12504e-06)
(0.199656 -1.64208e-05 -9.20894e-07)
(0.199641 -1.97775e-05 -7.15297e-07)
(0.199631 -2.1617e-05 -4.96921e-07)
(0.199615 -2.5352e-05 -2.76735e-07)
(0.199606 -2.70202e-05 -3.77156e-08)
(0.199588 -3.09777e-05 2.06044e-07)
(0.199579 -3.28738e-05 4.78256e-07)
(0.19956 -3.6613e-05 7.73928e-07)
(0.199551 -3.93527e-05 1.13096e-06)
(0.19953 -4.26024e-05 1.59177e-06)
(0.19952 -4.67172e-05 2.24111e-06)
(0.199497 -5.08588e-05 3.20685e-06)
(0.199487 -5.78605e-05 4.50438e-06)
(0.199459 -6.82391e-05 5.85727e-06)
(0.199457 -8.31892e-05 6.15453e-06)
(0.19943 -0.000102503 3.68139e-06)
(0.19944 -0.000119378 -3.01495e-06)
(0.19942 -0.000123081 -1.34277e-05)
(0.199426 -0.000112157 -2.43904e-05)
(0.199392 -8.42323e-05 -2.90105e-05)
(0.199378 -5.83274e-05 -2.23503e-05)
(0.199321 -4.34806e-05 -7.4157e-06)
(0.199308 -4.33634e-05 8.70274e-06)
(0.199252 -5.2494e-05 2.1499e-05)
(0.199245 -6.67683e-05 3.01792e-05)
(0.199194 -7.78536e-05 3.58205e-05)
(0.199194 -8.48429e-05 3.96577e-05)
(0.199139 -8.94438e-05 4.1733e-05)
(0.199147 -9.07033e-05 3.89533e-05)
(0.199084 -0.000108303 1.68792e-05)
(0.197462 0.00411531 1.65722e-07)
(0.197525 0.004497 4.11245e-07)
(0.197625 0.00489107 6.39212e-07)
(0.19782 0.00526552 9.22513e-07)
(0.198093 0.00558832 1.19291e-06)
(0.19836 0.00588433 1.48644e-06)
(0.198665 0.0061378 1.9877e-06)
(0.199068 0.0062963 2.38709e-06)
(0.199454 0.00640042 2.32001e-06)
(0.199783 0.00648949 2.18941e-06)
(0.200163 0.00651382 2.14661e-06)
(0.200561 0.00646708 1.72284e-06)
(0.200883 0.00639644 1.11164e-06)
(0.201206 0.00629175 7.52197e-07)
(0.201575 0.00612525 3.05446e-07)
(0.201895 0.00591094 -4.32803e-07)
(0.202147 0.00566022 -1.182e-06)
(0.202402 0.00537224 -2.05975e-06)
(0.202643 0.00506049 -3.20354e-06)
(0.20281 0.00473027 -4.29188e-06)
(0.202923 0.00437429 -5.42997e-06)
(0.203012 0.00401081 -7.03267e-06)
(0.203055 0.00366814 -8.64628e-06)
(0.203045 0.00333942 -9.58647e-06)
(0.203012 0.00300483 -1.02758e-05)
(0.202965 0.00267314 -1.14297e-05)
(0.202883 0.00236509 -1.27545e-05)
(0.202768 0.00208323 -1.36147e-05)
(0.202643 0.00181977 -1.40929e-05)
(0.202517 0.00157415 -1.45858e-05)
(0.20238 0.00135036 -1.50517e-05)
(0.202231 0.00114762 -1.52103e-05)
(0.202078 0.000962625 -1.50547e-05)
(0.201926 0.000795386 -1.47858e-05)
(0.201776 0.000647489 -1.44875e-05)
(0.201626 0.000518477 -1.41189e-05)
(0.201476 0.000406689 -1.36726e-05)
(0.201327 0.000311279 -1.31853e-05)
(0.201181 0.000232263 -1.26715e-05)
(0.20104 0.000169654 -1.21198e-05)
(0.200907 0.000122914 -1.15235e-05)
(0.200784 9.07288e-05 -1.08889e-05)
(0.200675 7.0954e-05 -1.02285e-05)
(0.20058 6.08192e-05 -9.55718e-06)
(0.200499 5.73403e-05 -8.89091e-06)
(0.20043 5.77581e-05 -8.24504e-06)
(0.200374 5.98457e-05 -7.63157e-06)
(0.200326 6.20385e-05 -7.05787e-06)
(0.200286 6.341e-05 -6.52697e-06)
(0.200252 6.35519e-05 -6.03853e-06)
(0.200223 6.24148e-05 -5.59003e-06)
(0.200196 6.01576e-05 -5.17776e-06)
(0.200173 5.70289e-05 -4.79763e-06)
(0.200152 5.32893e-05 -4.44567e-06)
(0.200134 4.91696e-05 -4.11826e-06)
(0.200116 4.48515e-05 -3.81223e-06)
(0.200101 4.04716e-05 -3.52475e-06)
(0.200087 3.61173e-05 -3.25335e-06)
(0.200074 3.18558e-05 -2.99565e-06)
(0.200062 2.77075e-05 -2.74954e-06)
(0.200052 2.3715e-05 -2.51271e-06)
(0.200042 1.98424e-05 -2.28313e-06)
(0.200033 1.61597e-05 -2.05826e-06)
(0.200025 1.25437e-05 -1.83609e-06)
(0.200018 9.17313e-06 -1.61346e-06)
(0.200011 5.74068e-06 -1.38863e-06)
(0.200005 2.68433e-06 -1.15739e-06)
(0.199999 -6.81505e-07 -9.18601e-07)
(0.199994 -3.40691e-06 -6.66546e-07)
(0.199988 -6.8531e-06 -4.01204e-07)
(0.199984 -9.23812e-06 -1.14903e-07)
(0.199978 -1.28815e-05 1.90967e-07)
(0.199975 -1.50198e-05 5.25965e-07)
(0.199969 -1.87995e-05 8.87927e-07)
(0.199967 -2.10623e-05 1.28707e-06)
(0.19996 -2.45551e-05 1.72367e-06)
(0.199958 -2.7656e-05 2.20825e-06)
(0.199952 -3.01617e-05 2.75628e-06)
(0.199949 -3.47109e-05 3.38885e-06)
(0.199943 -3.60389e-05 4.18586e-06)
(0.199938 -4.15843e-05 5.25349e-06)
(0.19993 -4.33959e-05 6.88052e-06)
(0.199926 -4.98138e-05 9.34412e-06)
(0.199911 -5.74043e-05 1.28085e-05)
(0.199913 -7.21066e-05 1.64069e-05)
(0.199903 -9.26051e-05 1.79279e-05)
(0.199923 -0.000120554 1.47868e-05)
(0.199934 -0.000138421 6.29227e-06)
(0.199952 -0.000151348 -5.39578e-06)
(0.199947 -0.000148273 -1.22827e-05)
(0.199935 -0.000145845 -7.87648e-06)
(0.199895 -0.000150361 3.54438e-06)
(0.199879 -0.000162194 1.35958e-05)
(0.19985 -0.000172039 1.90574e-05)
(0.199845 -0.00018251 2.10303e-05)
(0.19983 -0.000183258 2.20458e-05)
(0.199834 -0.000174556 2.42272e-05)
(0.199816 -0.000158133 2.88495e-05)
(0.199827 -0.000129011 3.49286e-05)
(0.199811 -0.000115205 1.72145e-05)
(0.197883 0.00403096 5.4482e-08)
(0.197958 0.00434968 8.87826e-08)
(0.19805 0.0046761 1.04416e-07)
(0.198199 0.00499116 2.10405e-07)
(0.198423 0.0052656 3.65757e-07)
(0.198658 0.0055111 5.12569e-07)
(0.198889 0.00573509 8.75542e-07)
(0.199196 0.00589057 1.40029e-06)
(0.199542 0.00598232 1.58478e-06)
(0.199835 0.00605777 1.58581e-06)
(0.20013 0.00608836 1.81345e-06)
(0.200475 0.00604939 1.78124e-06)
(0.200791 0.00598847 1.34794e-06)
(0.201061 0.0059074 1.24705e-06)
(0.201345 0.00576293 1.29051e-06)
(0.201628 0.0055757 7.95514e-07)
(0.201876 0.005378 3.00792e-07)
(0.202107 0.00514269 2.64114e-07)
(0.20231 0.00485773 -1.47124e-07)
(0.202449 0.00456062 -1.32286e-06)
(0.202553 0.00426945 -2.52236e-06)
(0.202653 0.00396994 -3.37759e-06)
(0.202715 0.00365954 -4.13745e-06)
(0.202715 0.00334695 -4.87515e-06)
(0.202687 0.00303448 -5.71918e-06)
(0.202656 0.00272842 -6.9866e-06)
(0.2026 0.00244291 -8.48605e-06)
(0.202507 0.00218299 -9.59345e-06)
(0.202401 0.00194115 -1.01486e-05)
(0.202299 0.00171208 -1.05437e-05)
(0.202191 0.00149849 -1.09931e-05)
(0.202071 0.0013031 -1.13184e-05)
(0.201942 0.00112431 -1.13887e-05)
(0.201812 0.00096037 -1.13179e-05)
(0.20168 0.000811549 -1.12238e-05)
(0.201545 0.000678132 -1.10921e-05)
(0.201409 0.000559633 -1.08898e-05)
(0.201275 0.000455917 -1.06357e-05)
(0.201145 0.0003675 -1.0351e-05)
(0.20102 0.000294778 -1.00276e-05)
(0.200902 0.00023741 -9.6499e-06)
(0.200793 0.000194201 -9.21567e-06)
(0.200694 0.000163222 -8.73357e-06)
(0.200606 0.000142044 -8.21672e-06)
(0.200529 0.000128076 -7.68063e-06)
(0.200463 0.000118904 -7.1418e-06)
(0.200406 0.000112534 -6.61496e-06)
(0.200358 0.0001075 -6.11102e-06)
(0.200317 0.000102845 -5.63657e-06)
(0.200282 9.80407e-05 -5.19448e-06)
(0.200252 9.28714e-05 -4.78482e-06)
(0.200225 8.73186e-05 -4.4058e-06)
(0.200202 8.14694e-05 -4.05459e-06)
(0.200182 7.54497e-05 -3.72797e-06)
(0.200163 6.93868e-05 -3.42267e-06)
(0.200147 6.3386e-05 -3.13557e-06)
(0.200132 5.75308e-05 -2.86374e-06)
(0.200119 5.18707e-05 -2.60441e-06)
(0.200108 4.64484e-05 -2.35487e-06)
(0.200097 4.12643e-05 -2.11248e-06)
(0.200088 3.63511e-05 -1.87439e-06)
(0.200079 3.16582e-05 -1.63773e-06)
(0.200072 2.72545e-05 -1.39916e-06)
(0.200065 2.30013e-05 -1.15532e-06)
(0.200059 1.90829e-05 -9.01932e-07)
(0.200054 1.51727e-05 -6.35094e-07)
(0.200049 1.17181e-05 -3.49161e-07)
(0.200044 8.01629e-06 -3.97414e-08)
(0.200041 5.00997e-06 3.00466e-07)
(0.200037 1.36503e-06 6.76499e-07)
(0.200034 -1.24908e-06 1.09699e-06)
(0.200031 -4.91754e-06 1.56824e-06)
(0.200029 -7.37607e-06 2.09861e-06)
(0.200025 -1.08789e-05 2.69712e-06)
(0.200024 -1.38164e-05 3.36828e-06)
(0.200021 -1.65079e-05 4.12501e-06)
(0.200019 -2.09332e-05 4.96162e-06)
(0.200017 -2.19773e-05 5.89793e-06)
(0.200014 -2.83096e-05 6.91429e-06)
(0.200012 -2.78029e-05 8.05756e-06)
(0.200009 -3.39915e-05 9.35387e-06)
(0.200004 -3.3212e-05 1.10711e-05)
(0.200001 -3.5304e-05 1.37059e-05)
(0.199988 -3.44913e-05 1.83787e-05)
(0.199988 -3.65083e-05 2.64739e-05)
(0.199978 -4.26127e-05 3.88673e-05)
(0.199994 -7.27118e-05 5.46012e-05)
(0.200012 -0.000116587 7.04859e-05)
(0.200032 -0.000196052 8.18634e-05)
(0.200034 -0.000283751 8.12413e-05)
(0.200022 -0.000365349 6.33907e-05)
(0.19999 -0.000424432 3.10772e-05)
(0.199976 -0.000454973 -5.9345e-06)
(0.199962 -0.000451297 -3.86635e-05)
(0.199962 -0.000437129 -6.33508e-05)
(0.199963 -0.000407176 -7.88261e-05)
(0.199973 -0.000370125 -8.47663e-05)
(0.199975 -0.000327272 -7.9011e-05)
(0.19999 -0.00027201 -5.67524e-05)
(0.19998 -0.000170988 -1.99969e-05)
(0.198254 0.0039425 -4.13406e-08)
(0.198335 0.00420834 -1.72921e-07)
(0.19842 0.0044774 -3.23992e-07)
(0.198539 0.0047412 -3.82242e-07)
(0.198714 0.00497764 -3.22004e-07)
(0.19891 0.00517973 -2.51693e-07)
(0.199098 0.0053661 -7.82881e-08)
(0.199333 0.00551711 3.76531e-07)
(0.199618 0.00560648 7.88615e-07)
(0.199872 0.0056637 9.25552e-07)
(0.200116 0.00569969 1.18371e-06)
(0.200406 0.00568375 1.54613e-06)
(0.20068 0.00562428 1.59086e-06)
(0.200907 0.00554538 1.58259e-06)
(0.201157 0.00543348 1.79498e-06)
(0.201422 0.00528177 1.89731e-06)