/*--------------------------------*- C++ -*----------------------------------*\
| =========                 |                                                 |
| \\      /  F ield         | OpenFOAM: The Open Source CFD Toolbox           |
|  \\    /   O peration     | Version:  2.3.0                                 |
|   \\  /    A nd           | Web:      www.OpenFOAM.org                      |
|    \\/     M anipulation  |                                                 |
\*---------------------------------------------------------------------------*/
FoamFile
{
    version     2.0;
    format      ascii;
    class       volScalarField;
    location    "0.9";
    object      p;
}
// * * * * * * * * * * * * * * * * * * * * * * * * * * * * * * * * * * * * * //

dimensions      [0 2 -2 0 0 0 0];

internalField   nonuniform List<scalar> 
3105
(
0.00228768
0.0017482
0.00126805
0.000915718
0.000630567
0.000378297
0.000155817
-3.28364e-05
-0.000185983
-0.000304585
-0.000391316
-0.00045011
-0.000485757
-0.000503343
-0.000507699
-0.000503018
-0.000492653
-0.000479106
-0.000464107
-0.000448767
-0.000433732
-0.000419325
-0.000405667
-0.000392756
-0.000380531
-0.000368908
-0.000357799
-0.000347128
-0.00033683
-0.000326856
-0.00031717
-0.000307743
-0.000298557
-0.000289598
-0.000280859
-0.000272331
-0.000264011
-0.000255895
-0.00024798
-0.000240264
-0.000232745
-0.000225421
-0.000218288
-0.000211346
-0.000204592
-0.000198022
-0.000191636
-0.000185429
-0.000179399
-0.000173544
-0.00016786
-0.000162344
-0.000156993
-0.000151804
-0.000146773
-0.000141896
-0.000137171
-0.000132593
-0.000128159
-0.000123865
-0.000119706
-0.000115679
-0.00011178
-0.000108004
-0.000104347
-0.000100806
-9.73745e-05
-9.40495e-05
-9.08259e-05
-8.76993e-05
-8.46648e-05
-8.17177e-05
-7.8853e-05
-7.60658e-05
-7.33509e-05
-7.0703e-05
-6.81168e-05
-6.55866e-05
-6.31066e-05
-6.06711e-05
-5.82736e-05
-5.59079e-05
-5.35672e-05
-5.12444e-05
-4.89323e-05
-4.66231e-05
-4.43087e-05
-4.19803e-05
-3.96288e-05
-3.72444e-05
-3.48166e-05
-3.2334e-05
-2.9784e-05
-2.71527e-05
-2.4424e-05
-2.1578e-05
-1.85891e-05
-1.54157e-05
-1.1847e-05
-1.02731e-05
0.00201397
0.00162702
0.0012387
0.000922709
0.000652985
0.000408338
0.000189248
1.40317e-06
-0.000152466
-0.000272722
-0.000361683
-0.000423034
-0.000461368
-0.000481619
-0.000488513
-0.000486171
-0.000477908
-0.000466211
-0.000452814
-0.000438844
-0.000424969
-0.000411541
-0.000398708
-0.000386493
-0.000374858
-0.000363738
-0.000353063
-0.000342767
-0.000332798
-0.000323114
-0.000313684
-0.000304487
-0.000295507
-0.000286735
-0.000278164
-0.00026979
-0.00026161
-0.000253623
-0.000245827
-0.000238221
-0.000230803
-0.000223573
-0.000216528
-0.000209667
-0.000202989
-0.000196491
-0.00019017
-0.000184026
-0.000178055
-0.000172255
-0.000166623
-0.000161156
-0.000155852
-0.000150706
-0.000145716
-0.000140879
-0.000136191
-0.000131648
-0.000127248
-0.000122985
-0.000118856
-0.000114858
-0.000110986
-0.000107236
-0.000103605
-0.000100087
-9.66782e-05
-9.33747e-05
-9.01718e-05
-8.70649e-05
-8.40492e-05
-8.11202e-05
-7.82728e-05
-7.55022e-05
-7.28031e-05
-7.01705e-05
-6.75988e-05
-6.50826e-05
-6.26161e-05
-6.01934e-05
-5.78084e-05
-5.54545e-05
-5.31252e-05
-5.08134e-05
-4.85118e-05
-4.62127e-05
-4.39079e-05
-4.15888e-05
-3.92461e-05
-3.68702e-05
-3.44504e-05
-3.19754e-05
-2.94326e-05
-2.6808e-05
-2.40853e-05
-2.12444e-05
-1.82587e-05
-1.50821e-05
-1.14049e-05
-1.02879e-05
0.00180958
0.00151816
0.0011947
0.000908124
0.000655544
0.000425068
0.000217137
3.66986e-05
-0.000113377
-0.000232929
-0.000323606
-0.000388341
-0.000430985
-0.000455836
-0.000467144
-0.000468729
-0.000463766
-0.000454716
-0.000443371
-0.00043095
-0.00041823
-0.00040566
-0.00039347
-0.00038175
-0.000370506
-0.000359709
-0.000349307
-0.000339252
-0.000329499
-0.000320012
-0.000310764
-0.000301735
-0.000292911
-0.000284283
-0.000275847
-0.000267598
-0.000259535
-0.000251656
-0.00024396
-0.000236448
-0.000229117
-0.000221967
-0.000214998
-0.000208208
-0.000201596
-0.000195159
-0.000188897
-0.000182807
-0.000176888
-0.000171136
-0.000165549
-0.000160125
-0.000154861
-0.000149754
-0.0001448
-0.000139997
-0.000135342
-0.00013083
-0.000126458
-0.000122224
-0.000118122
-0.000114149
-0.000110301
-0.000106574
-0.000102964
-9.94669e-05
-9.60784e-05
-9.2794e-05
-8.96093e-05
-8.65198e-05
-8.35209e-05
-8.06079e-05
-7.77759e-05
-7.502e-05
-7.23351e-05
-6.9716e-05
-6.71574e-05
-6.46538e-05
-6.21994e-05
-5.97884e-05
-5.74145e-05
-5.50715e-05
-5.27526e-05
-5.04508e-05
-4.81589e-05
-4.58692e-05
-4.35734e-05
-4.1263e-05
-3.89288e-05
-3.65611e-05
-3.41493e-05
-3.1682e-05
-2.91467e-05
-2.65297e-05
-2.38148e-05
-2.09825e-05
-1.80083e-05
-1.4847e-05
-1.12807e-05
-1.12895e-05
0.00163332
0.00140503
0.00113511
0.000880803
0.000650257
0.000438247
0.000245283
7.55192e-05
-6.80868e-05
-0.000184836
-0.000275704
-0.000342874
-0.000389421
-0.000418937
-0.000435103
-0.000441339
-0.000440577
-0.000435167
-0.000426883
-0.000416982
-0.000406309
-0.000395391
-0.000384532
-0.000373888
-0.000363523
-0.000353448
-0.00034365
-0.000334105
-0.000324787
-0.000315676
-0.000306757
-0.000298017
-0.00028945
-0.000281053
-0.000272823
-0.00026476
-0.000256866
-0.000249141
-0.000241587
-0.000234204
-0.000226992
-0.000219953
-0.000213086
-0.000206391
-0.000199866
-0.000193512
-0.000187327
-0.00018131
-0.000175458
-0.000169769
-0.000164243
-0.000158875
-0.000153664
-0.000148607
-0.0001437
-0.000138942
-0.000134329
-0.000129857
-0.000125524
-0.000121325
-0.000117257
-0.000113317
-0.0001095
-0.000105802
-0.000102221
-9.87501e-05
-9.5387e-05
-9.21268e-05
-8.89653e-05
-8.58979e-05
-8.29202e-05
-8.00273e-05
-7.72147e-05
-7.44773e-05
-7.18102e-05
-6.92082e-05
-6.6666e-05
-6.41781e-05
-6.17388e-05
-5.93423e-05
-5.69825e-05
-5.46531e-05
-5.23473e-05
-5.00582e-05
-4.77786e-05
-4.55007e-05
-4.32165e-05
-4.09174e-05
-3.85942e-05
-3.62372e-05
-3.38359e-05
-3.13792e-05
-2.88547e-05
-2.62489e-05
-2.35469e-05
-2.07318e-05
-1.77865e-05
-1.4692e-05
-1.14978e-05
-1.31085e-05
0.00147487
0.0012933
0.00107035
0.000848935
0.000641491
0.000448117
0.000270332
0.000111898
-2.42096e-05
-0.000136907
-0.000226662
-0.000295068
-0.00034455
-0.000378055
-0.000398699
-0.000409462
-0.000412974
-0.000411408
-0.000406458
-0.000399377
-0.000391048
-0.000382059
-0.000372782
-0.000363439
-0.000354151
-0.000344977
-0.000335942
-0.000327052
-0.000318305
-0.000309695
-0.00030122
-0.000292878
-0.000284668
-0.000276593
-0.000268655
-0.000260859
-0.000253208
-0.000245705
-0.000238353
-0.000231157
-0.000224117
-0.000217236
-0.000210515
-0.000203956
-0.000197557
-0.00019132
-0.000185244
-0.000179328
-0.000173571
-0.000167972
-0.000162528
-0.000157239
-0.000152101
-0.000147113
-0.000142273
-0.000137576
-0.000133021
-0.000128605
-0.000124323
-0.000120174
-0.000116153
-0.000112257
-0.000108482
-0.000104824
-0.00010128
-9.78463e-05
-9.45176e-05
-9.12902e-05
-8.816e-05
-8.51225e-05
-8.21732e-05
-7.93077e-05
-7.65211e-05
-7.38086e-05
-7.11654e-05
-6.85863e-05
-6.60661e-05
-6.35993e-05
-6.11804e-05
-5.88036e-05
-5.64627e-05
-5.41514e-05
-5.18633e-05
-4.95914e-05
-4.73284e-05
-4.50667e-05
-4.27983e-05
-4.05146e-05
-3.82066e-05
-3.58646e-05
-3.34784e-05
-3.10369e-05
-2.85283e-05
-2.594e-05
-2.32592e-05
-2.04749e-05
-1.75871e-05
-1.46431e-05
-1.20556e-05
-1.53913e-05
0.00133683
0.00118969
0.00100524
0.000813709
0.000628303
0.000452773
0.0002898
0.000142901
1.49268e-05
-9.281e-05
-0.00018039
-0.000248926
-0.000300294
-0.000336872
-0.000361254
-0.000375993
-0.000383403
-0.000385454
-0.000383731
-0.000379452
-0.000373507
-0.000366525
-0.000358929
-0.000350994
-0.000342891
-0.000334724
-0.000326552
-0.000318409
-0.000310316
-0.000302286
-0.000294327
-0.000286449
-0.000278659
-0.000270965
-0.000263376
-0.000255898
-0.000248539
-0.000241305
-0.000234202
-0.000227235
-0.000220408
-0.000213724
-0.000207188
-0.000200799
-0.000194561
-0.000188473
-0.000182537
-0.000176752
-0.000171119
-0.000165635
-0.000160301
-0.000155114
-0.000150074
-0.000145178
-0.000140423
-0.000135809
-0.000131331
-0.000126988
-0.000122776
-0.000118692
-0.000114733
-0.000110896
-0.000107178
-0.000103574
-0.000100081
-9.6695e-05
-9.34124e-05
-9.0229e-05
-8.71405e-05
-8.41429e-05
-8.12318e-05
-7.84026e-05
-7.56508e-05
-7.29716e-05
-7.03603e-05
-6.78119e-05
-6.5321e-05
-6.28825e-05
-6.04908e-05
-5.81401e-05
-5.58245e-05
-5.35378e-05
-5.12734e-05
-4.90245e-05
-4.67839e-05
-4.45442e-05
-4.22972e-05
-4.00346e-05
-3.77475e-05
-3.54263e-05
-3.3061e-05
-3.0641e-05
-2.81552e-05
-2.55927e-05
-2.29444e-05
-2.02088e-05
-1.7414e-05
-1.4704e-05
-1.28423e-05
-1.75965e-05
0.00121644
0.00109436
0.000940522
0.000775336
0.000610745
0.000452389
0.000303833
0.000168434
4.88893e-05
-5.33448e-05
-0.000138023
-0.000205848
-0.000258221
-0.000297027
-0.000324398
-0.000342491
-0.000353318
-0.000358638
-0.000359912
-0.000358295
-0.000354667
-0.000349672
-0.000343768
-0.00033727
-0.000330391
-0.000323271
-0.000316003
-0.000308648
-0.000301247
-0.000293831
-0.000286421
-0.000279038
-0.000271697
-0.000264413
-0.000257198
-0.000250065
-0.000243024
-0.000236084
-0.000229254
-0.000222541
-0.00021595
-0.000209488
-0.000203158
-0.000196963
-0.000190906
-0.00018499
-0.000179215
-0.000173583
-0.000168092
-0.000162745
-0.000157539
-0.000152474
-0.000147549
-0.000142763
-0.000138112
-0.000133596
-0.000129213
-0.000124959
-0.000120832
-0.000116829
-0.000112948
-0.000109184
-0.000105536
-0.000101999
-9.85695e-05
-9.52445e-05
-9.20199e-05
-8.8892e-05
-8.58566e-05
-8.29098e-05
-8.00471e-05
-7.72644e-05
-7.45572e-05
-7.19208e-05
-6.93505e-05
-6.68414e-05
-6.43885e-05
-6.19865e-05
-5.963e-05
-5.73133e-05
-5.50306e-05
-5.27758e-05
-5.05424e-05
-4.83236e-05
-4.61125e-05
-4.39016e-05
-4.1683e-05
-3.94485e-05
-3.71892e-05
-3.48959e-05
-3.25589e-05
-3.01683e-05
-2.77139e-05
-2.51873e-05
-2.25844e-05
-1.99166e-05
-1.72465e-05
-1.48178e-05
-1.36338e-05
-1.91215e-05
0.00111043
0.00100699
0.000877488
0.000735214
0.00058993
0.000447849
0.000313062
0.000188842
7.77431e-05
-1.86901e-05
-9.99546e-05
-0.000166404
-0.000219043
-0.000259333
-0.000288999
-0.000309841
-0.000323588
-0.000331792
-0.000335778
-0.000336625
-0.000335183
-0.000332095
-0.00032784
-0.000322762
-0.000317104
-0.000311039
-0.000304686
-0.000298133
-0.000291439
-0.000284652
-0.000277807
-0.000270933
-0.000264054
-0.000257192
-0.000250366
-0.00024359
-0.000236879
-0.000230245
-0.0002237
-0.000217252
-0.00021091
-0.00020468
-0.000198569
-0.000192579
-0.000186717
-0.000180983
-0.000175381
-0.000169912
-0.000164578
-0.000159378
-0.000154312
-0.000149381
-0.000144583
-0.000139917
-0.000135382
-0.000130976
-0.000126698
-0.000122544
-0.000118514
-0.000114603
-0.000110809
-0.00010713
-0.000103562
-0.000100102
-9.67461e-05
-9.34918e-05
-9.03351e-05
-8.72721e-05
-8.42991e-05
-8.1412e-05
-7.86069e-05
-7.58794e-05
-7.32252e-05
-7.06399e-05
-6.81188e-05
-6.56571e-05
-6.325e-05
-6.08922e-05
-5.85785e-05
-5.63033e-05
-5.40609e-05
-5.18452e-05
-4.965e-05
-4.74686e-05
-4.52941e-05
-4.31191e-05
-4.0936e-05
-3.87367e-05
-3.65126e-05
-3.42548e-05
-3.1954e-05
-2.96009e-05
-2.71871e-05
-2.47067e-05
-2.21616e-05
-1.95771e-05
-1.70485e-05
-1.48913e-05
-1.41829e-05
-1.95253e-05
0.00101628
0.000927191
0.000817134
0.000694484
0.000566707
0.000439781
0.000317976
0.000204483
0.000101724
1.12731e-05
-6.61792e-05
-0.000130705
-0.000182973
-0.000224086
-0.000255414
-0.000278437
-0.000294622
-0.000305321
-0.000311718
-0.000314808
-0.000315396
-0.000314113
-0.000311441
-0.000307744
-0.000303288
-0.00029827
-0.000292834
-0.000287087
-0.000281108
-0.000274957
-0.000268684
-0.000262327
-0.000255919
-0.000249487
-0.000243055
-0.000236643
-0.000230269
-0.000223948
-0.000217694
-0.000211519
-0.000205431
-0.000199441
-0.000193554
-0.000187776
-0.000182114
-0.00017657
-0.000171147
-0.000165849
-0.000160676
-0.00015563
-0.000150712
-0.000145921
-0.000141257
-0.000136719
-0.000132306
-0.000128018
-0.000123852
-0.000119806
-0.000115878
-0.000112066
-0.000108367
-0.000104779
-0.000101298
-9.79216e-05
-9.46468e-05
-9.147e-05
-8.83877e-05
-8.53964e-05
-8.24924e-05
-7.96717e-05
-7.69306e-05
-7.42648e-05
-7.16701e-05
-6.91422e-05
-6.66766e-05
-6.42687e-05
-6.19135e-05
-5.96062e-05
-5.73414e-05
-5.51138e-05
-5.29178e-05
-5.07474e-05
-4.85965e-05
-4.64586e-05
-4.43269e-05
-4.21942e-05
-4.00531e-05
-3.78956e-05
-3.57134e-05
-3.3498e-05
-3.12407e-05
-2.8933e-05
-2.65681e-05
-2.41429e-05
-2.16652e-05
-1.9172e-05
-1.67806e-05
-1.48313e-05
-1.43097e-05
-1.86826e-05
0.000932005
0.000854308
0.000759915
0.000653914
0.000541757
0.000428769
0.0003191
0.000215817
0.000121203
3.68137e-05
-3.65329e-05
-9.86878e-05
-0.000150044
-0.000191399
-0.000223816
-0.000248493
-0.000266656
-0.000279466
-0.000287971
-0.000293072
-0.000295519
-0.000295919
-0.000294749
-0.00029238
-0.000289094
-0.000285106
-0.000280578
-0.000275635
-0.000270371
-0.000264861
-0.000259165
-0.00025333
-0.000247398
-0.000241401
-0.000235369
-0.000229326
-0.000223295
-0.000217292
-0.000211334
-0.000205436
-0.000199608
-0.000193862
-0.000188205
-0.000182644
-0.000177187
-0.000171837
-0.000166599
-0.000161476
-0.00015647
-0.000151584
-0.000146817
-0.000142171
-0.000137645
-0.00013324
-0.000128955
-0.000124788
-0.000120739
-0.000116805
-0.000112985
-0.000109277
-0.000105677
-0.000102185
-9.87962e-05
-9.55086e-05
-9.23191e-05
-8.92244e-05
-8.62214e-05
-8.33064e-05
-8.0476e-05
-7.77264e-05
-7.50538e-05
-7.24542e-05
-6.99237e-05
-6.74578e-05
-6.50523e-05
-6.27026e-05
-6.0404e-05
-5.81517e-05
-5.59405e-05
-5.37652e-05
-5.16202e-05
-4.94999e-05
-4.73981e-05
-4.53086e-05
-4.32247e-05
-4.11394e-05
-3.90455e-05
-3.69353e-05
-3.48007e-05
-3.26336e-05
-3.0426e-05
-2.81703e-05
-2.5861e-05
-2.34977e-05
-2.10928e-05
-1.86901e-05
-1.6413e-05
-1.45769e-05
-1.39556e-05
-1.68005e-05
0.000856
0.000787606
0.000705975
0.000614058
0.00051569
0.000415381
0.000316965
0.000223316
0.000136567
5.82254e-05
-1.08173e-05
-7.02468e-05
-0.000120233
-0.00016132
-0.000194309
-0.000220151
-0.000239853
-0.000254402
-0.000264708
-0.000271577
-0.0002757
-0.000277647
-0.000277883
-0.000276775
-0.000274615
-0.000271628
-0.000267992
-0.000263843
-0.000259291
-0.000254421
-0.000249303
-0.000243994
-0.000238542
-0.000232985
-0.000227358
-0.00022169
-0.000216005
-0.000210326
-0.00020467
-0.000199054
-0.000193491
-0.000187994
-0.000182572
-0.000177234
-0.000171987
-0.000166836
-0.000161788
-0.000156845
-0.000152011
-0.000147287
-0.000142677
-0.000138181
-0.000133798
-0.000129531
-0.000125377
-0.000121336
-0.000117408
-0.000113591
-0.000109883
-0.000106282
-0.000102786
-9.93929e-05
-9.61002e-05
-9.29051e-05
-8.98047e-05
-8.67959e-05
-8.38757e-05
-8.10407e-05
-7.82875e-05
-7.56126e-05
-7.30122e-05
-7.04825e-05
-6.80195e-05
-6.56192e-05
-6.32773e-05
-6.09894e-05
-5.87509e-05
-5.65571e-05
-5.4403e-05
-5.22836e-05
-5.01934e-05
-4.81268e-05
-4.6078e-05
-4.40407e-05
-4.20086e-05
-3.99749e-05
-3.79324e-05
-3.58739e-05
-3.37915e-05
-3.16776e-05
-2.95247e-05
-2.7326e-05
-2.50773e-05
-2.27801e-05
-2.04491e-05
-1.81291e-05
-1.59333e-05
-1.41147e-05
-1.31819e-05
-1.42998e-05
0.000786986
0.00072637
0.000655277
0.000575285
0.000489001
0.000400121
0.000312051
0.000227419
0.000148195
7.58105e-05
1.11872e-05
-4.52443e-05
-9.34803e-05
-0.000133856
-0.000166954
-0.000193511
-0.00021434
-0.000230265
-0.000242067
-0.000250459
-0.000256063
-0.000259409
-0.000260938
-0.000261012
-0.000259921
-0.000257897
-0.000255126
-0.000251756
-0.000247906
-0.000243671
-0.00023913
-0.000234347
-0.000229376
-0.000224262
-0.000219044
-0.000213754
-0.000208422
-0.000203071
-0.000197722
-0.000192394
-0.000187102
-0.000181859
-0.000176678
-0.000171567
-0.000166535
-0.00016159
-0.000156736
-0.000151979
-0.000147321
-0.000142767
-0.000138318
-0.000133976
-0.000129742
-0.000125616
-0.000121599
-0.000117689
-0.000113886
-0.00011019
-0.000106598
-0.000103109
-9.97203e-05
-9.6431e-05
-9.32381e-05
-9.01392e-05
-8.71316e-05
-8.42124e-05
-8.13786e-05
-7.86271e-05
-7.59545e-05
-7.33576e-05
-7.08326e-05
-6.8376e-05
-6.59839e-05
-6.36523e-05
-6.13771e-05
-5.91541e-05
-5.69788e-05
-5.48467e-05
-5.27529e-05
-5.06925e-05
-4.86601e-05
-4.66505e-05
-4.46579e-05
-4.26762e-05
-4.06993e-05
-3.87206e-05
-3.67332e-05
-3.47301e-05
-3.27038e-05
-3.06471e-05
-2.85529e-05
-2.64152e-05
-2.42308e-05
-2.20018e-05
-1.97429e-05
-1.74944e-05
-1.53469e-05
-1.34724e-05
-1.21238e-05
-1.16409e-05
0.000723927
0.000669941
0.000607667
0.000537809
0.000462072
0.000383421
0.000304796
0.000228545
0.00015646
8.98781e-05
2.97163e-05
-2.35206e-05
-6.96984e-05
-0.000108987
-0.000141785
-0.000168648
-0.000190219
-0.000207174
-0.000220175
-0.000229839
-0.000236721
-0.000241306
-0.000244007
-0.00024517
-0.000245079
-0.000243968
-0.000242027
-0.000239412
-0.000236247
-0.000232636
-0.000228666
-0.000224405
-0.000219915
-0.000215244
-0.000210437
-0.000205529
-0.000200552
-0.000195534
-0.000190497
-0.000185461
-0.000180445
-0.000175463
-0.000170527
-0.00016565
-0.00016084
-0.000156105
-0.000151452
-0.000146886
-0.000142411
-0.000138031
-0.00013375
-0.000129568
-0.000125487
-0.000121508
-0.000117632
-0.000113858
-0.000110186
-0.000106615
-0.000103144
-9.97707e-05
-9.64945e-05
-9.33131e-05
-9.02242e-05
-8.72257e-05
-8.43148e-05
-8.14891e-05
-7.87455e-05
-7.60812e-05
-7.34929e-05
-7.09775e-05
-6.85314e-05
-6.61512e-05
-6.38332e-05
-6.15736e-05
-5.93684e-05
-5.72135e-05
-5.51045e-05
-5.30372e-05
-5.10067e-05
-4.90083e-05
-4.70369e-05
-4.50873e-05
-4.3154e-05
-4.12311e-05
-3.93126e-05
-3.73922e-05
-3.54632e-05
-3.35189e-05
-3.15523e-05
-2.95563e-05
-2.75244e-05
-2.54511e-05
-2.33334e-05
-2.11734e-05
-1.89837e-05
-1.67956e-05
-1.46711e-05
-1.2701e-05
-1.09331e-05
-9.18572e-06
0.000665973
0.000617729
0.00056293
0.000501728
0.000435184
0.000365642
0.000295589
0.000227081
0.000161719
0.000100734
4.50129e-05
-4.90154e-06
-4.87814e-05
-8.66675e-05
-0.000118811
-0.000145614
-0.000167573
-0.000185231
-0.00019914
-0.000209828
-0.000217782
-0.000223439
-0.000227178
-0.000229325
-0.000230155
-0.000229897
-0.000228741
-0.000226847
-0.000224344
-0.000221341
-0.000217928
-0.000214183
-0.000210169
-0.00020594
-0.000201543
-0.000197018
-0.000192399
-0.000187716
-0.000182994
-0.000178256
-0.00017352
-0.000168804
-0.00016412
-0.000159482
-0.000154899
-0.00015038
-0.000145933
-0.000141565
-0.000137278
-0.000133079
-0.000128971
-0.000124954
-0.000121033
-0.000117207
-0.000113478
-0.000109845
-0.000106309
-0.000102868
-9.9523e-05
-9.62714e-05
-9.31121e-05
-9.00434e-05
-8.70632e-05
-8.41695e-05
-8.13599e-05
-7.86318e-05
-7.59826e-05
-7.34095e-05
-7.09094e-05
-6.84794e-05
-6.6116e-05
-6.38159e-05
-6.15757e-05
-5.93915e-05
-5.72597e-05
-5.51762e-05
-5.31369e-05
-5.11376e-05
-4.91737e-05
-4.72405e-05
-4.53334e-05
-4.3447e-05
-4.15762e-05
-3.97152e-05
-3.78584e-05
-3.59996e-05
-3.41324e-05
-3.22503e-05
-3.03467e-05
-2.84148e-05
-2.64485e-05
-2.44425e-05
-2.23937e-05
-2.03034e-05
-1.81802e-05
-1.60445e-05
-1.3929e-05
-1.18561e-05
-9.73646e-06
-7.1374e-06
0.000612418
0.00056921
0.000520821
0.00046706
0.000408534
0.000347079
0.000284771
0.000223376
0.000164307
0.000108677
5.73221e-05
1.07983e-05
-3.06054e-05
-6.68335e-05
-9.80192e-05
-0.000124438
-0.000146461
-0.000164519
-0.000179059
-0.000190528
-0.000199347
-0.000205902
-0.000210537
-0.000213555
-0.000215216
-0.00021574
-0.000215316
-0.000214101
-0.000212229
-0.00020981
-0.000206939
-0.000203697
-0.00020015
-0.000196357
-0.000192368
-0.000188224
-0.000183963
-0.000179618
-0.000175214
-0.000170776
-0.000166325
-0.000161878
-0.000157451
-0.000153057
-0.000148707
-0.000144411
-0.000140176
-0.000136011
-0.000131919
-0.000127907
-0.000123977
-0.000120133
-0.000116376
-0.000112709
-0.000109132
-0.000105647
-0.000102252
-9.89479e-05
-9.57339e-05
-9.2609e-05
-8.95718e-05
-8.66208e-05
-8.37542e-05
-8.09702e-05
-7.82665e-05
-7.56407e-05
-7.30904e-05
-7.06128e-05
-6.82053e-05
-6.58647e-05
-6.3588e-05
-6.13721e-05
-5.92134e-05
-5.71085e-05
-5.50538e-05
-5.30454e-05
-5.10793e-05
-4.91515e-05
-4.72577e-05
-4.53934e-05
-4.35538e-05
-4.17341e-05
-3.99291e-05
-3.81336e-05
-3.63419e-05
-3.45481e-05
-3.27461e-05
-3.09298e-05
-2.90926e-05
-2.72283e-05
-2.53308e-05
-2.3395e-05
-2.14174e-05
-1.93976e-05
-1.73396e-05
-1.52524e-05
-1.31434e-05
-1.09854e-05
-8.61751e-06
-5.55131e-06
0.000562665
0.000523923
0.000481089
0.000433767
0.000382249
0.000327967
0.000272632
0.000217746
0.000164535
0.00011399
6.68868e-05
2.37704e-05
-1.5034e-05
-4.94019e-05
-7.93755e-05
-0.000105128
-0.000126927
-0.000145101
-0.000160011
-0.000172026
-0.000181503
-0.00018878
-0.000194166
-0.000197934
-0.000200327
-0.000201555
-0.000201799
-0.000201215
-0.000199934
-0.00019807
-0.000195719
-0.000192962
-0.00018987
-0.000186504
-0.000182916
-0.000179151
-0.000175247
-0.000171238
-0.000167153
-0.000163018
-0.000158855
-0.000154682
-0.000150516
-0.000146371
-0.000142258
-0.00013819
-0.000134174
-0.000130217
-0.000126326
-0.000122506
-0.000118761
-0.000115095
-0.00011151
-0.000108008
-0.00010459
-0.000101257
-9.80099e-05
-9.4848e-05
-9.1771e-05
-8.87782e-05
-8.58686e-05
-8.30407e-05
-8.02931e-05
-7.76238e-05
-7.5031e-05
-7.25124e-05
-7.00657e-05
-6.76884e-05
-6.53779e-05
-6.31313e-05
-6.09457e-05
-5.8818e-05
-5.67451e-05
-5.47236e-05
-5.27499e-05
-5.08205e-05
-4.89315e-05
-4.70791e-05
-4.52591e-05
-4.34671e-05
-4.16988e-05
-3.99494e-05
-3.8214e-05
-3.64875e-05
-3.47645e-05
-3.30393e-05
-3.13063e-05
-2.95593e-05
-2.77923e-05
-2.59991e-05
-2.41739e-05
-2.23114e-05
-2.04074e-05
-1.84597e-05
-1.64675e-05
-1.44297e-05
-1.23341e-05
-1.01241e-05
-7.61749e-06
-4.38359e-06
0.000516206
0.000481459
0.000443485
0.000401775
0.000356403
0.000308482
0.000259418
0.000210469
0.000162686
0.000116944
7.39445e-05
3.42099e-05
-1.92013e-06
-3.42747e-05
-6.28284e-05
-8.76735e-05
-0.000108992
-0.000127028
-0.000142064
-0.0001544
-0.000164335
-0.00017216
-0.000178144
-0.000182536
-0.000185556
-0.000187402
-0.000188244
-0.000188234
-0.0001875
-0.000186155
-0.000184294
-0.000182001
-0.000179347
-0.000176396
-0.000173199
-0.000169805
-0.000166254
-0.000162579
-0.000158813
-0.000154982
-0.000151108
-0.000147211
-0.000143309
-0.000139417
-0.000135548
-0.000131712
-0.000127919
-0.000124177
-0.000120493
-0.000116872
-0.000113318
-0.000109836
-0.000106428
-0.000103097
-9.98442e-05
-9.66705e-05
-9.35766e-05
-9.05628e-05
-8.76288e-05
-8.4774e-05
-8.19976e-05
-7.92984e-05
-7.6675e-05
-7.41259e-05
-7.16492e-05
-6.92429e-05
-6.69049e-05
-6.46327e-05
-6.2424e-05
-6.0276e-05
-5.8186e-05
-5.61511e-05
-5.41683e-05
-5.22344e-05
-5.0346e-05
-4.84997e-05
-4.66919e-05
-4.49188e-05
-4.31765e-05
-4.14609e-05
-3.97677e-05
-3.80925e-05
-3.64304e-05
-3.47767e-05
-3.31263e-05
-3.14736e-05
-2.98133e-05
-2.81395e-05
-2.64464e-05
-2.47281e-05
-2.29788e-05
-2.11929e-05
-1.93657e-05
-1.74926e-05
-1.55689e-05
-1.35853e-05
-1.15169e-05
-9.29394e-06
-6.74621e-06
-3.54581e-06
0.000472603
0.000441456
0.000407773
0.000370986
0.000331025
0.000288755
0.000245324
0.00020178
0.000159014
0.000117785
7.87212e-05
4.23101e-05
8.89037e-06
-2.13396e-05
-4.83061e-05
-7.20394e-05
-9.26529e-05
-0.000110321
-0.000125258
-0.000137702
-0.000147902
-0.0001561
-0.000162533
-0.000167418
-0.000170955
-0.000173326
-0.000174691
-0.000175192
-0.000174953
-0.000174085
-0.000172682
-0.000170826
-0.00016859
-0.000166037
-0.00016322
-0.000160189
-0.000156983
-0.00015364
-0.00015019
-0.000146661
-0.000143078
-0.00013946
-0.000135825
-0.00013219
-0.000128567
-0.000124969
-0.000121405
-0.000117883
-0.000114411
-0.000110994
-0.000107638
-0.000104346
-0.000101122
-9.79683e-05
-9.48865e-05
-9.18781e-05
-8.89439e-05
-8.60843e-05
-8.32992e-05
-8.05884e-05
-7.79511e-05
-7.53864e-05
-7.28931e-05
-7.04697e-05
-6.81145e-05
-6.58259e-05
-6.36017e-05
-6.14398e-05
-5.93378e-05
-5.72933e-05
-5.53038e-05
-5.33664e-05
-5.14783e-05
-4.96364e-05
-4.78377e-05
-4.60789e-05
-4.43565e-05
-4.2667e-05
-4.10066e-05
-3.93715e-05
-3.77575e-05
-3.61605e-05
-3.45758e-05
-3.2999e-05
-3.14251e-05
-2.9849e-05
-2.82655e-05
-2.66689e-05
-2.50538e-05
-2.34144e-05
-2.17448e-05
-2.00394e-05
-1.82925e-05
-1.64978e-05
-1.46471e-05
-1.27258e-05
-1.0702e-05
-8.50525e-06
-5.9936e-06
-2.94396e-06
0.000431472
0.000403595
0.000373733
0.000341296
0.000306124
0.000268886
0.000230519
0.000191889
0.000153746
0.00011674
8.14278e-05
4.82529e-05
1.75427e-05
-1.04917e-05
-3.57442e-05
-5.81994e-05
-7.79167e-05
-9.5013e-05
-0.000109647
-0.000122003
-0.000132282
-0.000140686
-0.000147416
-0.000152662
-0.000156602
-0.0001594
-0.000161203
-0.000162146
-0.000162345
-0.000161906
-0.00016092
-0.00015947
-0.000157625
-0.00015545
-0.000152997
-0.000150316
-0.000147447
-0.000144428
-0.00014129
-0.000138062
-0.000134768
-0.000131429
-0.000128063
-0.000124687
-0.000121315
-0.000117958
-0.000114627
-0.000111331
-0.000108076
-0.00010487
-0.000101717
-9.86217e-05
-9.55875e-05
-9.26172e-05
-8.97128e-05
-8.6876e-05
-8.41077e-05
-8.14086e-05
-7.87787e-05
-7.62179e-05
-7.37258e-05
-7.13014e-05
-6.89439e-05
-6.66519e-05
-6.4424e-05
-6.22584e-05
-6.01535e-05
-5.8107e-05
-5.6117e-05
-5.41811e-05
-5.22969e-05
-5.04618e-05
-4.86731e-05
-4.69281e-05
-4.52236e-05
-4.35568e-05
-4.19242e-05
-4.03226e-05
-3.87485e-05
-3.7198e-05
-3.56675e-05
-3.41529e-05
-3.26498e-05
-3.11541e-05
-2.96609e-05
-2.81655e-05
-2.66629e-05
-2.51479e-05
-2.36149e-05
-2.20585e-05
-2.04729e-05
-1.88521e-05
-1.71897e-05
-1.54782e-05
-1.37068e-05
-1.18577e-05
-9.89738e-06
-7.76196e-06
-5.34235e-06
-2.50103e-06
0.000392457
0.000367567
0.000341131
0.000312567
0.000281658
0.000248922
0.000215121
0.00018097
0.000147091
0.000114038
8.22935e-05
5.22578e-05
2.42368e-05
-1.55649e-06
-2.4997e-05
-4.60371e-05
-6.46951e-05
-8.10423e-05
-9.51905e-05
-0.000107279
-0.000117467
-0.000125918
-0.000132801
-0.00013828
-0.00014251
-0.000145637
-0.000147795
-0.000149107
-0.000149684
-0.000149623
-0.000149014
-0.000147934
-0.000146453
-0.000144633
-0.000142526
-0.00014018
-0.000137638
-0.000134935
-0.000132104
-0.000129173
-0.000126166
-0.000123106
-0.000120011
-0.000116896
-0.000113778
-0.000110666
-0.000107573
-0.000104507
-0.000101475
-9.84848e-05
-9.5541e-05
-9.26482e-05
-8.98102e-05
-8.70298e-05
-8.43094e-05
-8.16507e-05
-7.90548e-05
-7.65225e-05
-7.40542e-05
-7.16498e-05
-6.9309e-05
-6.70313e-05
-6.48156e-05
-6.2661e-05
-6.05661e-05
-5.85295e-05
-5.65494e-05
-5.4624e-05
-5.27514e-05
-5.09293e-05
-4.91557e-05
-4.7428e-05
-4.57438e-05
-4.41004e-05
-4.24951e-05
-4.09249e-05
-3.93869e-05
-3.78779e-05
-3.63945e-05
-3.49334e-05
-3.34908e-05
-3.2063e-05
-3.0646e-05
-2.92357e-05
-2.78278e-05
-2.64176e-05
-2.50004e-05
-2.35713e-05
-2.2125e-05
-2.06562e-05
-1.91591e-05
-1.76276e-05
-1.60548e-05
-1.44322e-05
-1.27476e-05
-1.09822e-05
-9.10398e-06
-7.05931e-06
-4.76975e-06
-2.15775e-06
0.000348293
0.000326665
0.000303897
0.000279444
0.000253054
0.000225104
0.000196188
0.000166869
0.000137643
0.00010896
8.1223e-05
5.47766e-05
2.98966e-05
6.78734e-06
-1.44158e-05
-3.36409e-05
-5.08712e-05
-6.61367e-05
-7.95047e-05
-9.10705e-05
-0.000100949
-0.000109267
-0.000116157
-0.000121752
-0.000126183
-0.000129576
-0.000132046
-0.000133703
-0.000134646
-0.000134967
-0.000134747
-0.00013406
-0.000132971
-0.000131539
-0.000129816
-0.000127849
-0.000125677
-0.000123338
-0.000120862
-0.000118278
-0.00011561
-0.000112879
-0.000110105
-0.000107303
-0.000104488
-0.000101672
-9.88661e-05
-9.60789e-05
-9.33184e-05
-9.05912e-05
-8.79029e-05
-8.52581e-05
-8.26606e-05
-8.01136e-05
-7.76194e-05
-7.518e-05
-7.27967e-05
-7.04705e-05
-6.82018e-05
-6.59909e-05
-6.38376e-05
-6.17414e-05
-5.97017e-05
-5.77176e-05
-5.57879e-05
-5.39113e-05
-5.20864e-05
-5.03115e-05
-4.85848e-05
-4.69045e-05
-4.52685e-05
-4.36746e-05
-4.21205e-05
-4.06039e-05
-3.91221e-05
-3.76726e-05
-3.62525e-05
-3.4859e-05
-3.3489e-05
-3.21393e-05
-3.08066e-05
-2.94874e-05
-2.8178e-05
-2.68746e-05
-2.55732e-05
-2.42696e-05
-2.29593e-05
-2.16377e-05
-2.02999e-05
-1.89407e-05
-1.75545e-05
-1.6135e-05
-1.46751e-05
-1.31656e-05
-1.15939e-05
-9.94186e-06
-8.18159e-06
-6.27302e-06
-4.1679e-06
-1.83144e-06
0.000298898
0.000280732
0.000261777
0.000241547
0.000219783
0.000196745
0.000172879
0.000148606
0.000124305
0.000100322
7.69755e-05
5.45488e-05
3.32758e-05
1.33399e-05
-5.12667e-06
-2.20399e-05
-3.73597e-05
-5.10845e-05
-6.32446e-05
-7.38964e-05
-8.31152e-05
-9.09902e-05
-9.7619e-05
-0.000103104
-0.000107546
-0.000111049
-0.000113707
-0.000115613
-0.000116853
-0.000117507
-0.000117646
-0.000117337
-0.00011664
-0.000115609
-0.000114292
-0.000112732
-0.000110968
-0.000109034
-0.00010696
-0.000104774
-0.000102497
-0.000100152
-9.77561e-05
-9.53256e-05
-9.28743e-05
-9.04142e-05
-8.79558e-05
-8.5508e-05
-8.30786e-05
-8.06741e-05
-7.83001e-05
-7.59614e-05
-7.36616e-05
-7.14041e-05
-6.91913e-05
-6.70253e-05
-6.49076e-05
-6.28391e-05
-6.08206e-05
-5.88525e-05
-5.69346e-05
-5.50669e-05
-5.32487e-05
-5.14794e-05
-4.97581e-05
-4.80837e-05
-4.64549e-05
-4.48703e-05
-4.33285e-05
-4.18277e-05
-4.03661e-05
-3.89418e-05
-3.75529e-05
-3.61971e-05
-3.48723e-05
-3.35761e-05
-3.2306e-05
-3.10595e-05
-2.98337e-05
-2.86259e-05
-2.74332e-05
-2.62523e-05
-2.50801e-05
-2.3913e-05
-2.27475e-05
-2.15798e-05
-2.04059e-05
-1.92215e-05
-1.80221e-05
-1.68029e-05
-1.55586e-05
-1.4283e-05
-1.29689e-05
-1.16076e-05
-1.01872e-05
-8.69197e-06
-7.10075e-06
-5.38741e-06
-3.52752e-06
-1.5137e-06
0.000248854
0.000234043
0.000218717
0.000202454
0.000185012
0.000166565
0.000147438
0.000127939
0.000108343
8.89083e-05
6.98788e-05
5.14748e-05
3.38865e-05
1.72689e-05
1.74125e-06
-1.26123e-05
-2.57406e-05
-3.76225e-05
-4.8263e-05
-5.7689e-05
-6.59449e-05
-7.30884e-05
-7.91869e-05
-8.43137e-05
-8.85455e-05
-9.19598e-05
-9.46329e-05
-9.66388e-05
-9.80479e-05
-9.89266e-05
-9.93366e-05
-9.93347e-05
-9.89733e-05
-9.82997e-05
-9.73571e-05
-9.6184e-05
-9.48155e-05
-9.32825e-05
-9.16127e-05
-8.98309e-05
-8.79587e-05
-8.60156e-05
-8.40183e-05
-8.19818e-05
-7.99192e-05
-7.78418e-05
-7.57594e-05
-7.36806e-05
-7.16127e-05
-6.9562e-05
-6.75339e-05
-6.55328e-05
-6.35626e-05
-6.16262e-05
-5.97263e-05
-5.78649e-05
-5.60435e-05
-5.42631e-05
-5.25247e-05
-5.08287e-05
-4.91751e-05
-4.7564e-05
-4.5995e-05
-4.44676e-05
-4.29811e-05
-4.15346e-05
-4.01271e-05
-3.87575e-05
-3.74244e-05
-3.61265e-05
-3.48622e-05
-3.363e-05
-3.24281e-05
-3.12547e-05
-3.01079e-05
-2.89856e-05
-2.78858e-05
-2.68061e-05
-2.57443e-05
-2.46979e-05
-2.36644e-05