/*--------------------------------*- C++ -*----------------------------------*\
| =========                 |                                                 |
| \\      /  F ield         | OpenFOAM: The Open Source CFD Toolbox           |
|  \\    /   O peration     | Version:  2.3.0                                 |
|   \\  /    A nd           | Web:      www.OpenFOAM.org                      |
|    \\/     M anipulation  |                                                 |
\*---------------------------------------------------------------------------*/
FoamFile
{
    version     2.0;
    format      ascii;
    class       surfaceScalarField;
    location    "0.9";
    object      phi_0;
}
// * * * * * * * * * * * * * * * * * * * * * * * * * * * * * * * * * * * * * //

dimensions      [0 3 -1 0 0 0 0];

internalField   nonuniform List<scalar> 
6068
(
2.82981e-08
2.83266e-09
-3.11308e-08
2.54386e-08
2.85945e-09
2.27434e-08
2.69525e-09
2.02572e-08
2.48622e-09
1.79972e-08
2.26001e-09
1.59743e-08
2.02288e-09
1.41914e-08
1.78285e-09
1.26436e-08
1.54781e-09
1.13191e-08
1.32452e-09
1.02006e-08
1.11849e-09
9.26683e-09
9.33788e-10
8.49404e-09
7.72787e-10
7.85787e-09
6.3617e-10
7.33476e-09
5.23108e-10
6.90315e-09
4.31614e-10
6.54418e-09
3.5897e-10
6.24204e-09
3.02136e-10
5.98395e-09
2.58089e-10
5.75989e-09
2.24067e-10
5.56219e-09
1.97695e-10
5.38515e-09
1.77038e-10
5.22457e-09
1.60585e-10
5.07737e-09
1.47195e-10
4.94133e-09
1.36039e-10
4.81481e-09
1.26525e-10
4.69656e-09
1.18243e-10
4.58566e-09
1.10909e-10
4.48133e-09
1.0433e-10
4.38295e-09
9.8372e-11
4.29001e-09
9.29404e-11
4.20205e-09
8.7966e-11
4.11865e-09
8.33955e-11
4.03947e-09
7.91859e-11
3.96416e-09
7.53012e-11
3.89245e-09
7.17099e-11
3.82407e-09
6.83841e-11
3.75877e-09
6.52992e-11
3.69634e-09
6.24327e-11
3.63657e-09
5.97646e-11
3.5793e-09
5.72768e-11
3.52434e-09
5.49531e-11
3.47156e-09
5.27793e-11
3.42082e-09
5.07422e-11
3.37199e-09
4.88303e-11
3.32496e-09
4.70334e-11
3.27962e-09
4.53421e-11
3.23587e-09
4.37483e-11
3.19362e-09
4.22443e-11
3.1528e-09
4.08235e-11
3.11332e-09
3.94799e-11
3.07511e-09
3.8208e-11
3.03811e-09
3.70027e-11
3.00225e-09
3.58595e-11
2.96748e-09
3.47743e-11
2.93373e-09
3.37433e-11
2.90097e-09
3.2763e-11
2.86914e-09
3.18302e-11
2.8382e-09
3.0942e-11
2.8081e-09
3.00956e-11
2.77881e-09
2.92886e-11
2.7503e-09
2.85186e-11
2.72251e-09
2.77834e-11
2.69543e-09
2.70811e-11
2.66902e-09
2.64098e-11
2.64325e-09
2.57678e-11
2.6181e-09
2.51535e-11
2.59353e-09
2.45654e-11
2.56953e-09
2.40021e-11
2.54607e-09
2.34624e-11
2.52312e-09
2.2945e-11
2.50068e-09
2.24489e-11
2.4787e-09
2.1973e-11
2.45719e-09
2.15165e-11
2.43611e-09
2.10783e-11
2.41545e-09
2.06578e-11
2.3952e-09
2.02541e-11
2.37533e-09
1.98666e-11
2.35583e-09
1.94948e-11
2.3367e-09
1.9138e-11
2.3179e-09
1.87957e-11
2.29943e-09
1.84676e-11
2.28128e-09
1.81533e-11
2.26343e-09
1.78524e-11
2.24586e-09
1.75648e-11
2.22857e-09
1.72902e-11
2.21154e-09
1.70287e-11
2.19476e-09
1.67801e-11
2.17822e-09
1.65446e-11
2.1619e-09
1.63225e-11
2.14578e-09
1.61143e-11
2.12986e-09
1.59207e-11
2.11412e-09
1.57432e-11
2.09853e-09
1.55844e-11
2.08309e-09
1.54491e-11
2.06774e-09
1.53479e-11
2.05243e-09
1.53058e-11
2.03704e-09
1.53934e-11
2.02128e-09
1.57548e-11
2.00443e-09
1.68511e-11
4.99082e-11
3.40061e-08
3.1209e-09
-3.42943e-08
3.34171e-08
3.44843e-09
3.25893e-08
3.52299e-09
3.16018e-08
3.47378e-09
3.05115e-08
3.35034e-09
2.93641e-08
3.17022e-09
2.81971e-08
2.94987e-09
2.70392e-08
2.70569e-09
2.59118e-08
2.4519e-09
2.483e-08
2.2003e-09
2.38036e-08
1.9602e-09
2.28381e-08
1.73827e-09
2.19357e-08
1.53856e-09
2.10961e-08
1.36272e-09
2.03173e-08
1.21048e-09
1.9596e-08
1.08027e-09
1.89284e-08
9.69694e-10
1.83104e-08
8.76051e-10
1.77379e-08
7.96634e-10
1.72066e-08
7.28956e-10
1.67128e-08
6.70859e-10
1.62528e-08
6.20543e-10
1.58235e-08
5.76554e-10
1.54218e-08
5.37739e-10
1.50451e-08
5.03198e-10
1.46911e-08
4.7223e-10
1.43577e-08
4.44288e-10
1.40431e-08
4.18944e-10
1.37456e-08
3.95854e-10
1.34638e-08
3.74742e-10
1.31964e-08
3.55377e-10
1.29423e-08
3.37567e-10
1.27003e-08
3.21146e-10
1.24696e-08
3.05972e-10
1.22494e-08
2.91921e-10
1.20389e-08
2.78881e-10
1.18375e-08
2.66758e-10
1.16444e-08
2.55464e-10
1.14593e-08
2.44923e-10
1.12815e-08
2.35069e-10
1.11106e-08
2.2584e-10
1.09462e-08
2.17183e-10
1.07879e-08
2.0905e-10
1.06353e-08
2.01398e-10
1.04882e-08
1.94188e-10
1.03461e-08
1.87388e-10
1.02089e-08
1.80964e-10
1.00762e-08
1.7489e-10
9.94793e-09
1.69141e-10
9.82371e-09
1.63692e-10
9.7034e-09
1.58525e-10
9.58678e-09
1.53619e-10
9.47368e-09
1.48958e-10
9.36393e-09
1.44525e-10
9.25737e-09
1.40307e-10
9.15384e-09
1.36289e-10
9.05321e-09
1.3246e-10
8.95534e-09
1.28808e-10
8.86012e-09
1.25323e-10
8.76741e-09
1.21994e-10
8.67712e-09
1.18813e-10
8.58913e-09
1.15772e-10
8.50335e-09
1.12863e-10
8.41968e-09
1.10078e-10
8.33804e-09
1.07411e-10
8.25833e-09
1.04855e-10
8.18049e-09
1.02405e-10
8.10444e-09
1.00055e-10
8.0301e-09
9.78005e-11
7.95741e-09
9.56362e-11
7.8863e-09
9.35578e-11
7.81672e-09
9.15612e-11
7.74859e-09
8.96427e-11
7.68187e-09
8.77987e-11
7.6165e-09
8.60259e-11
7.55243e-09
8.43213e-11
7.48962e-09
8.26821e-11
7.42801e-09
8.11057e-11
7.36756e-09
7.95899e-11
7.30822e-09
7.81326e-11
7.24995e-09
7.67319e-11
7.19272e-09
7.53861e-11
7.13648e-09
7.40939e-11
7.08119e-09
7.28541e-11
7.02682e-09
7.16658e-11
6.97332e-09
7.05284e-11
6.92065e-09
6.94416e-11
6.86879e-09
6.84055e-11
6.81769e-09
6.74207e-11
6.76732e-09
6.64886e-11
6.71763e-09
6.56114e-11
6.66858e-09
6.47937e-11
6.62012e-09
6.40435e-11
6.57219e-09
6.33763e-11
6.52471e-09
6.28261e-11
6.47755e-09
6.24755e-11
6.43039e-09
6.25441e-11
6.38253e-09
6.36199e-11
6.32808e-09
7.12981e-11
1.285e-10
3.60978e-08
2.98042e-09
-3.59574e-08
3.61647e-08
3.3816e-09
3.61066e-08
3.58102e-09
3.5925e-08
3.65544e-09
3.56306e-08
3.64476e-09
3.52374e-08
3.56341e-09
3.47625e-08
3.42477e-09
3.42236e-08
3.24451e-09
3.36377e-08
3.0378e-09
3.30199e-08
2.81814e-09
3.23832e-08
2.59693e-09
3.17383e-08
2.38315e-09
3.10938e-08
2.1831e-09
3.04559e-08
2.00052e-09
2.98295e-08
1.83695e-09
2.92175e-08
1.69227e-09
2.86219e-08
1.56525e-09
2.80439e-08
1.45403e-09
2.74841e-08
1.35649e-09
2.69425e-08
1.27058e-09
2.64189e-08
1.19439e-09
2.59132e-08
1.12629e-09
2.54248e-08
1.06494e-09
2.49533e-08
1.00925e-09
2.44981e-08
9.58338e-10
2.40588e-08
9.11531e-10
2.36348e-08
8.6829e-10
2.32256e-08
8.28187e-10
2.28306e-08
7.90878e-10
2.24492e-08
7.56083e-10
2.2081e-08
7.23564e-10
2.17255e-08
6.9312e-10
2.13821e-08
6.64576e-10
2.10503e-08
6.37778e-10
2.07296e-08
6.12586e-10
2.04196e-08
5.88877e-10
2.01198e-08
5.66539e-10
1.98298e-08
5.4547e-10
1.95492e-08
5.25575e-10
1.92774e-08
5.06772e-10
1.90143e-08
4.88983e-10
1.87594e-08
4.72137e-10
1.85122e-08
4.56169e-10
1.82726e-08
4.4102e-10
1.80402e-08
4.26637e-10
1.78146e-08
4.1297e-10
1.75956e-08
3.99972e-10
1.73829e-08
3.87602e-10
1.71762e-08
3.75822e-10
1.69753e-08
3.64595e-10
1.67799e-08
3.53888e-10
1.65899e-08
3.43671e-10
1.64049e-08
3.33916e-10
1.62248e-08
3.24597e-10
1.60495e-08
3.15688e-10
1.58786e-08
3.07167e-10
1.5712e-08
2.99013e-10
1.55496e-08
2.91206e-10
1.53912e-08
2.83728e-10
1.52366e-08
2.76561e-10
1.50858e-08
2.69689e-10
1.49385e-08
2.63097e-10
1.47945e-08
2.5677e-10
1.46539e-08
2.50696e-10
1.45165e-08
2.44861e-10
1.43821e-08
2.39255e-10
1.42506e-08
2.33866e-10
1.4122e-08
2.28683e-10
1.39961e-08
2.23697e-10
1.38728e-08
2.18899e-10
1.37521e-08
2.1428e-10
1.36338e-08
2.09833e-10
1.35179e-08
2.05549e-10
1.34043e-08
2.01421e-10
1.32929e-08
1.97444e-10
1.31836e-08
1.93612e-10
1.30764e-08
1.89917e-10
1.29711e-08
1.86356e-10
1.28678e-08
1.82923e-10
1.27663e-08
1.79615e-10
1.26666e-08
1.76427e-10
1.25686e-08
1.73356e-10
1.24723e-08
1.70399e-10
1.23776e-08
1.67553e-10
1.22845e-08
1.64817e-10
1.21928e-08
1.62189e-10
1.21026e-08
1.59668e-10
1.20137e-08
1.57254e-10
1.19262e-08
1.54949e-10
1.18399e-08
1.52753e-10
1.17549e-08
1.50673e-10
1.1671e-08
1.48715e-10
1.15881e-08
1.46896e-10
1.15062e-08
1.45245e-10
1.14252e-08
1.43826e-10
1.13449e-08
1.42798e-10
1.12649e-08
1.42592e-10
1.11838e-08
1.44647e-10
1.10963e-08
1.5882e-10
2.22546e-10
3.76646e-08
2.79689e-09
-3.74811e-08
3.78616e-08
3.18463e-09
3.80223e-08
3.42028e-09
3.81295e-08
3.54829e-09
3.81758e-08
3.59845e-09
3.8157e-08
3.58221e-09
3.80729e-08
3.50886e-09
3.79271e-08
3.39034e-09
3.77254e-08
3.23942e-09
3.74754e-08
3.06818e-09
3.71849e-08
2.88739e-09
3.6862e-08
2.70606e-09
3.65141e-08
2.53107e-09
3.61475e-08
2.36707e-09
3.57678e-08
2.21666e-09
3.53793e-08
2.08079e-09
3.49853e-08
1.95918e-09
3.45886e-08
1.8508e-09
3.41909e-08
1.7542e-09
3.37937e-08
1.6678e-09
3.3398e-08
1.59006e-09
3.30047e-08
1.51961e-09
3.26143e-08
1.45528e-09
3.22275e-08
1.39609e-09
3.18446e-08
1.34125e-09
3.1466e-08
1.29015e-09
3.10919e-08
1.2423e-09
3.07228e-08
1.19731e-09
3.03588e-08
1.15487e-09
3.00002e-08
1.11473e-09
2.96471e-08
1.07669e-09
2.92996e-08
1.04059e-09
2.89579e-08
1.00627e-09
2.86221e-08
9.73599e-10
2.82922e-08
9.42475e-10
2.79683e-08
9.12794e-10
2.76503e-08
8.84464e-10
2.73384e-08
8.57404e-10
2.70324e-08
8.31536e-10
2.67324e-08
8.06792e-10
2.64383e-08
7.83109e-10
2.615e-08
7.60428e-10
2.58675e-08
7.38694e-10
2.55906e-08
7.17858e-10
2.53194e-08
6.97872e-10
2.50537e-08
6.78695e-10
2.47934e-08
6.60285e-10
2.45384e-08
6.42604e-10
2.42886e-08
6.25619e-10
2.40439e-08
6.09295e-10
2.38042e-08
5.93602e-10
2.35693e-08
5.78511e-10
2.33392e-08
5.63994e-10
2.31138e-08
5.50024e-10
2.28929e-08
5.36578e-10
2.26765e-08
5.23633e-10
2.24643e-08
5.11165e-10
2.22564e-08
4.99155e-10
2.20525e-08
4.87582e-10
2.18526e-08
4.76427e-10
2.16567e-08
4.65673e-10
2.14645e-08
4.55303e-10
2.12759e-08
4.45299e-10
2.1091e-08
4.35648e-10
2.09095e-08
4.26333e-10
2.07314e-08
4.17342e-10
2.05566e-08
4.0866e-10
2.0385e-08
4.00276e-10
2.02165e-08
3.92177e-10
2.00511e-08
3.84351e-10
1.98886e-08
3.76789e-10
1.97289e-08
3.6948e-10
1.95721e-08
3.62413e-10
1.94179e-08
3.55581e-10
1.92664e-08
3.48974e-10
1.91174e-08
3.42585e-10
1.89709e-08
3.36407e-10
1.88268e-08
3.30431e-10
1.86851e-08
3.24652e-10
1.85457e-08
3.19064e-10
1.84084e-08
3.13662e-10
1.82733e-08
3.08442e-10
1.81403e-08
3.03398e-10
1.80094e-08
2.98528e-10
1.78804e-08
2.9383e-10
1.77532e-08
2.893e-10
1.7628e-08
2.8494e-10
1.75045e-08
2.80748e-10
1.73827e-08
2.76726e-10
1.72626e-08
2.72879e-10
1.7144e-08
2.69213e-10
1.7027e-08
2.65741e-10
1.69114e-08
2.62487e-10
1.67972e-08
2.59496e-10
1.66841e-08
2.56866e-10
1.65721e-08
2.54837e-10
1.64606e-08
2.54069e-10
1.63484e-08
2.56839e-10
1.62333e-08
2.7399e-10
3.31501e-10
3.91907e-08
2.63461e-09
-3.90284e-08
3.9389e-08
2.98636e-09
3.9586e-08
3.22327e-09
3.97653e-08
3.369e-09
3.99183e-08
3.44542e-09
4.00377e-08
3.46281e-09
4.0118e-08
3.42854e-09
4.01566e-08
3.35179e-09
4.01531e-08
3.24288e-09
4.01094e-08
3.1119e-09
4.00286e-08
2.96815e-09
3.9915e-08
2.81968e-09
3.97731e-08
2.67295e-09
3.96075e-08
2.53266e-09
3.94224e-08
2.40178e-09
3.92214e-08
2.2818e-09
3.90075e-08
2.17306e-09
3.87832e-08
2.07513e-09
3.85503e-08
1.98708e-09
3.83104e-08
1.90775e-09
3.80645e-08
1.83595e-09
3.78136e-08
1.77054e-09
3.75583e-08
1.71051e-09
3.72994e-08
1.65501e-09
3.70373e-08
1.60334e-09
3.67725e-08
1.55493e-09
3.65055e-08
1.50932e-09
3.62367e-08
1.46616e-09
3.59664e-08
1.42516e-09
3.5695e-08
1.38609e-09
3.54229e-08
1.34878e-09
3.51505e-08
1.31306e-09
3.48779e-08
1.27881e-09
3.46056e-08
1.24593e-09
3.43337e-08
1.21431e-09
3.40626e-08
1.18389e-09
3.37925e-08
1.15458e-09
3.35236e-08
1.12632e-09
3.32561e-08
1.09906e-09
3.29902e-08
1.07273e-09
3.2726e-08
1.0473e-09
3.24637e-08
1.02273e-09
3.22034e-08
9.98957e-10
3.19453e-08
9.75964e-10
3.16894e-08
9.53712e-10
3.1436e-08
9.3217e-10
3.11849e-08
9.1131e-10
3.09364e-08
8.91106e-10
3.06905e-08
8.71533e-10
3.04473e-08
8.52566e-10
3.02067e-08
8.34185e-10
2.99688e-08
8.16367e-10
2.97337e-08
7.99095e-10
2.95014e-08
7.82347e-10
2.92719e-08
7.66108e-10
2.90451e-08
7.50359e-10
2.88212e-08
7.35085e-10
2.86001e-08
7.20268e-10
2.83818e-08
7.05895e-10
2.81663e-08
6.9195e-10
2.79535e-08
6.7842e-10
2.77435e-08
6.6529e-10
2.75363e-08
6.52548e-10
2.73318e-08
6.4018e-10
2.71299e-08
6.28176e-10
2.69307e-08
6.16522e-10
2.67342e-08
6.05208e-10
2.65402e-08
5.94223e-10
2.63489e-08
5.83556e-10
2.616e-08
5.73197e-10
2.59737e-08
5.63137e-10
2.57898e-08
5.53366e-10
2.56083e-08
5.43875e-10
2.54292e-08
5.34657e-10
2.52525e-08
5.25703e-10
2.50781e-08
5.17005e-10
2.49059e-08
5.08557e-10
2.4736e-08
5.00353e-10
2.45683e-08
4.92386e-10
2.44027e-08
4.84651e-10
2.42392e-08
4.77144e-10
2.40778e-08
4.69859e-10
2.39184e-08
4.62795e-10
2.3761e-08
4.55947e-10
2.36055e-08
4.49314e-10
2.34519e-08
4.42896e-10
2.33002e-08
4.36692e-10
2.31502e-08
4.30704e-10
2.3002e-08
4.24937e-10
2.28555e-08
4.19395e-10
2.27106e-08
4.14091e-10
2.25673e-08
4.09042e-10
2.24255e-08
4.0428e-10
2.22851e-08
3.99868e-10
2.21461e-08
3.95934e-10
2.20081e-08
3.92789e-10
2.18709e-08
3.91264e-10
2.17337e-08
3.94003e-10
2.15975e-08
4.10254e-10
4.53197e-10
4.07546e-08
2.49706e-09
-4.0617e-08
4.09315e-08
2.80944e-09
4.11193e-08
3.03541e-09
4.13035e-08
3.18486e-09
4.14763e-08
3.27262e-09
4.16314e-08
3.30767e-09
4.17635e-08
3.29646e-09
4.18688e-08
3.24648e-09
4.19454e-08
3.16625e-09
4.1993e-08
3.06431e-09
4.20126e-08
2.94861e-09
4.20061e-08
2.8262e-09
4.19761e-08
2.70288e-09
4.19257e-08
2.58309e-09
4.18577e-08
2.4698e-09
4.17747e-08
2.36476e-09
4.16791e-08
2.26867e-09
4.15728e-08
2.18149e-09
4.14571e-08
2.10269e-09
4.13335e-08
2.03144e-09
4.12026e-08
1.96683e-09
4.10652e-08
1.90792e-09
4.09218e-08
1.85387e-09
4.07729e-08
1.80393e-09
4.06188e-08
1.75745e-09
4.04598e-08
1.71392e-09
4.02962e-08
1.6729e-09
4.01283e-08
1.63406e-09
3.99564e-08
1.59711e-09
3.97806e-08
1.56184e-09
3.96014e-08
1.52806e-09
3.94188e-08
1.49564e-09
3.92331e-08
1.46444e-09
3.90447e-08
1.43436e-09
3.88537e-08
1.40532e-09
3.86604e-08
1.37723e-09
3.84649e-08
1.35004e-09
3.82675e-08
1.32369e-09
3.80685e-08
1.29812e-09
3.78679e-08
1.27329e-09
3.76661e-08
1.24917e-09
3.74631e-08
1.22571e-09
3.72591e-08
1.20289e-09
3.70544e-08
1.18067e-09
3.68491e-08
1.15903e-09
3.66433e-08
1.13795e-09
3.64372e-08
1.11741e-09
3.6231e-08
1.09738e-09
3.60246e-08
1.07785e-09
3.58184e-08
1.05881e-09
3.56124e-08
1.04023e-09
3.54066e-08
1.02211e-09
3.52013e-08
1.00443e-09
3.49964e-08
9.87181e-10
3.47922e-08
9.70348e-10
3.45886e-08
9.53921e-10
3.43858e-08
9.37889e-10
3.41839e-08
9.22242e-10
3.39828e-08
9.06971e-10
3.37827e-08
8.92065e-10
3.35836e-08
8.77517e-10
3.33856e-08
8.63316e-10
3.31886e-08
8.49454e-10
3.29929e-08
8.35923e-10
3.27984e-08
8.22714e-10
3.26051e-08
8.09821e-10
3.2413e-08
7.97234e-10
3.22223e-08
7.84946e-10
3.20329e-08
7.72951e-10
3.18449e-08
7.61242e-10
3.16582e-08
7.49811e-10
3.14729e-08
7.38652e-10
3.1289e-08
7.2776e-10
3.11066e-08
7.17127e-10
3.09255e-08
7.0675e-10
3.07459e-08
6.96623e-10
3.05677e-08
6.8674e-10
3.0391e-08
6.77098e-10
3.02157e-08
6.67694e-10
3.00418e-08
6.58522e-10
2.98694e-08
6.49582e-10
2.96983e-08
6.4087e-10
2.95288e-08
6.32386e-10
2.93606e-08
6.24129e-10
2.91938e-08
6.16098e-10
2.90284e-08
6.08296e-10
2.88644e-08
6.00725e-10
2.87017e-08
5.9339e-10
2.85403e-08
5.86297e-10
2.83802e-08
5.79457e-10
2.82215e-08
5.72884e-10
2.80639e-08
5.66604e-10
2.79075e-08
5.60656e-10
2.77523e-08
5.55116e-10
2.75981e-08
5.50138e-10
2.74448e-08
5.46069e-10
2.72923e-08
5.43789e-10
2.71405e-08
5.4572e-10
2.69927e-08
5.58108e-10
5.8245e-10
4.23692e-08
2.37897e-09
-4.22511e-08
4.25243e-08
2.6543e-09
4.26949e-08
2.86481e-09
4.28676e-08
3.01214e-09
4.30351e-08
3.10514e-09
4.31918e-08
3.15093e-09
4.33332e-08
3.15512e-09
4.34557e-08
3.12394e-09
4.35574e-08
3.06452e-09
4.36376e-08
2.98413e-09
4.36965e-08
2.88969e-09
4.37354e-08
2.78736e-09
4.37559e-08
2.68238e-09
4.37602e-08
2.57881e-09
4.37504e-08
2.47959e-09
4.37285e-08
2.38656e-09
4.36965e-08
2.30068e-09
4.36559e-08
2.22217e-09
4.36077e-08
2.15082e-09
4.35531e-08
2.0861e-09
4.34926e-08
2.0273e-09
4.34268e-08
1.9737e-09
4.33561e-08
1.92459e-09
4.32807e-08
1.87932e-09
4.32008e-08
1.83733e-09
4.31166e-08
1.79812e-09
4.30282e-08
1.76131e-09
4.29357e-08
1.72656e-09
4.28392e-08
1.6936e-09
4.27389e-08
1.6622e-09
4.26347e-08
1.6322e-09
4.25269e-08
1.60343e-09
4.24156e-08
1.57578e-09
4.23008e-08
1.54913e-09
4.21827e-08
1.52341e-09
4.20614e-08
1.49852e-09
4.19371e-08
1.4744e-09
4.18098e-08
1.451e-09
4.16796e-08
1.42826e-09
4.15468e-08
1.40614e-09
4.14113e-08
1.3846e-09
4.12735e-08
1.3636e-09
4.11332e-08
1.34312e-09
4.09908e-08
1.32313e-09
4.08462e-08
1.3036e-09
4.06996e-08
1.28451e-09
4.05512e-08
1.26584e-09
4.0401e-08
1.24758e-09
4.02491e-08
1.22971e-09
4.00957e-08
1.21221e-09
3.99409e-08
1.19508e-09
3.97847e-08
1.1783e-09
3.96273e-08
1.16186e-09
3.94687e-08
1.14576e-09
3.93091e-08
1.12997e-09
3.91485e-08
1.1145e-09
3.8987e-08
1.09934e-09
3.88248e-08
1.08448e-09
3.86619e-08
1.0699e-09
3.84983e-08
1.05562e-09
3.83342e-08
1.04161e-09
3.81696e-08
1.02788e-09
3.80047e-08
1.01442e-09
3.78394e-08
1.00121e-09
3.76738e-08
9.88269e-10
3.75081e-08
9.75574e-10
3.73422e-08
9.63126e-10
3.71762e-08
9.50919e-10
3.70102e-08
9.38949e-10
3.68443e-08
9.27212e-10
3.66784e-08
9.15703e-10
3.65126e-08
9.04418e-10
3.6347e-08
8.93355e-10
3.61816e-08
8.82508e-10
3.60165e-08
8.71876e-10
3.58517e-08
8.61456e-10
3.56872e-08
8.51244e-10
3.5523e-08
8.41239e-10
3.53593e-08
8.3144e-10
3.51959e-08
8.21846e-10
3.50331e-08
8.12455e-10
3.48707e-08
8.03269e-10
3.47088e-08
7.94288e-10
3.45474e-08
7.85514e-10
3.43865e-08
7.76951e-10
3.42262e-08
7.68602e-10
3.40665e-08
7.60472e-10
3.39073e-08
7.52571e-10
3.37487e-08
7.44907e-10
3.35906e-08
7.37495e-10
3.34332e-08
7.30354e-10
3.32763e-08
7.23515e-10
3.31199e-08
7.17025e-10
3.2964e-08
7.10968e-10
3.28087e-08
7.05506e-10
3.26538e-08
7.00982e-10
3.24994e-08
6.98174e-10
3.23463e-08
6.98838e-10
3.21985e-08
7.05849e-10
7.11739e-10
4.40376e-08
2.27558e-09
-4.39342e-08
4.4174e-08
2.51789e-09
4.43273e-08
2.71144e-09
4.44859e-08
2.85357e-09
4.46424e-08
2.94861e-09
4.47917e-08
3.00166e-09
4.49295e-08
3.01734e-09
4.50527e-08
3.00078e-09
4.51593e-08
2.95791e-09
4.52485e-08
2.89492e-09
4.53204e-08
2.81778e-09
4.53758e-08
2.73191e-09
4.54162e-08
2.642e-09
4.54432e-08
2.5518e-09
4.54587e-08
2.46414e-09
4.54643e-08
2.3809e-09
4.54618e-08
2.30321e-09
4.54524e-08
2.23155e-09
4.54373e-08
2.16592e-09
4.54174e-08
2.10606e-09
4.53932e-08
2.05147e-09
4.53653e-08
2.00162e-09
4.5334e-08
1.95592e-09
4.52994e-08
1.91385e-09
4.52619e-08
1.8749e-09
4.52213e-08
1.83865e-09
4.51779e-08
1.80474e-09
4.51316e-08
1.77285e-09
4.50825e-08
1.74273e-09
4.50305e-08
1.71416e-09
4.49758e-08
1.68696e-09
4.49182e-08
1.66098e-09
4.48579e-08
1.63609e-09
4.47949e-08
1.61219e-09
4.47291e-08
1.58919e-09
4.46606e-08
1.56699e-09
4.45895e-08
1.54554e-09
4.45157e-08
1.52477e-09
4.44393e-08
1.50462e-09
4.43604e-08
1.48506e-09
4.4279e-08
1.46604e-09
4.41951e-08
1.44752e-09
4.41087e-08
1.42946e-09
4.402e-08
1.41185e-09
4.39289e-08
1.39465e-09
4.38356e-08
1.37785e-09
4.374e-08
1.36141e-09
4.36423e-08
1.34533e-09
4.35424e-08
1.32958e-09
4.34405e-08
1.31415e-09
4.33365e-08
1.29903e-09
4.32306e-08
1.2842e-09
4.31228e-08
1.26966e-09
4.30132e-08
1.2554e-09
4.29018e-08
1.24139e-09
4.27886e-08
1.22765e-09
4.26738e-08
1.21415e-09
4.25574e-08
1.2009e-09
4.24394e-08
1.18788e-09
4.23199e-08
1.17509e-09
4.2199e-08
1.16252e-09
4.20767e-08
1.15017e-09
4.19531e-08
1.13803e-09
4.18282e-08
1.1261e-09
4.17021e-08
1.11437e-09
4.15749e-08
1.10284e-09
4.14465e-08
1.0915e-09
4.13171e-08
1.08035e-09
4.11866e-08
1.06938e-09
4.10552e-08
1.0586e-09
4.09229e-08
1.048e-09
4.07898e-08
1.03757e-09
4.06558e-08
1.02732e-09
4.05211e-08
1.01723e-09
4.03857e-08
1.00732e-09
4.02495e-08
9.97575e-10
4.01128e-08
9.87996e-10
3.99754e-08
9.78583e-10
3.98376e-08
9.69335e-10
3.96991e-08
9.60254e-10
3.95603e-08
9.5134e-10
3.94209e-08
9.42595e-10
3.92812e-08
9.34022e-10
3.91411e-08
9.25625e-10
3.90006e-08
9.17409e-10
3.88599e-08
9.09379e-10
3.87188e-08
9.01545e-10
3.85774e-08
8.93916e-10
3.84358e-08
8.86504e-10
3.8294e-08
8.79329e-10
3.81519e-08
8.72412e-10
3.80097e-08
8.65788e-10
3.78672e-08
8.59508e-10
3.77245e-08
8.53656e-10
3.75816e-08
8.48388e-10
3.74386e-08
8.43994e-10
3.72957e-08
8.41034e-10
3.71542e-08
8.40398e-10
3.7018e-08
8.42013e-10
8.33003e-10
4.57617e-08
2.18353e-09
-4.56696e-08
4.58825e-08
2.39711e-09
4.60202e-08
2.5737e-09
4.6165e-08
2.70881e-09
4.63098e-08
2.80374e-09
4.64498e-08
2.86171e-09
4.65808e-08
2.88632e-09
4.66999e-08
2.88171e-09
4.68051e-08
2.85273e-09
4.68954e-08
2.80456e-09
4.69709e-08
2.74234e-09
4.7032e-08
2.67079e-09
4.70799e-08
2.59408e-09
4.71161e-08
2.51565e-09
4.7142e-08
2.43818e-09
4.71593e-08
2.36357e-09
4.71695e-08
2.29303e-09
4.71738e-08
2.22724e-09
4.71734e-08
2.16641e-09
4.71689e-08
2.11047e-09
4.71613e-08
2.05914e-09
4.71509e-08
2.01203e-09
4.71381e-08
1.96872e-09
4.71231e-08
1.92877e-09
4.71062e-08
1.89178e-09
4.70875e-08
1.85737e-09
4.7067e-08
1.82523e-09
4.70448e-08
1.79507e-09
4.70209e-08
1.76666e-09
4.69953e-08
1.73979e-09
4.69679e-08
1.71429e-09
4.69389e-08
1.69003e-09
4.69081e-08
1.66686e-09
4.68756e-08
1.6447e-09
4.68414e-08
1.62344e-09
4.68053e-08
1.60301e-09
4.67675e-08
1.58333e-09
4.6728e-08
1.56435e-09
4.66866e-08
1.546e-09
4.66434e-08
1.52825e-09
4.65984e-08
1.51104e-09
4.65516e-08
1.49434e-09
4.65029e-08
1.47812e-09
4.64524e-08
1.46233e-09
4.64001e-08
1.44697e-09
4.6346e-08
1.43199e-09
4.629e-08
1.41739e-09
4.62322e-08
1.40313e-09
4.61726e-08
1.3892e-09
4.61111e-08
1.37559e-09
4.60479e-08
1.36227e-09
4.59828e-08
1.34924e-09
4.5916e-08
1.33649e-09
4.58474e-08
1.32399e-09
4.57771e-08
1.31174e-09
4.5705e-08
1.29974e-09
4.56312e-08
1.28796e-09
4.55557e-08
1.27641e-09
4.54785e-08
1.26507e-09
4.53996e-08
1.25394e-09
4.53191e-08
1.24301e-09
4.52371e-08
1.23227e-09
4.51534e-08
1.22172e-09
4.50681e-08
1.21136e-09
4.49813e-08
1.20116e-09
4.4893e-08
1.19114e-09
4.48032e-08
1.18129e-09
4.4712e-08
1.1716e-09
4.46193e-08
1.16206e-09
4.45252e-08
1.15268e-09
4.44297e-08
1.14345e-09
4.43329e-08
1.13437e-09
4.42348e-08
1.12543e-09
4.41354e-08
1.11663e-09
4.40348e-08
1.10798e-09
4.39329e-08
1.09946e-09
4.38298e-08
1.09108e-09
4.37256e-08
1.08283e-09
4.36202e-08
1.07472e-09
4.35137e-08
1.06675e-09
4.34061e-08
1.05892e-09
4.32975e-08
1.05123e-09
4.31878e-08
1.04369e-09
4.30771e-08
1.0363e-09
4.29655e-08
1.02906e-09
4.28529e-08
1.02199e-09
4.27393e-08
1.01509e-09
4.26249e-08
1.00837e-09
4.25095e-08
1.00185e-09
4.23933e-08
9.95553e-10
4.22762e-08
9.89499e-10
4.21583e-08
9.83723e-10
4.20395e-08
9.78278e-10
4.19199e-08
9.73242e-10
4.17996e-08
9.68744e-10
4.16786e-08
9.64992e-10
4.15573e-08
9.62271e-10
4.14371e-08
9.60647e-10
4.13211e-08
9.57985e-10
9.39565e-10
4.75437e-08
2.10044e-09
-4.74606e-08
4.76515e-08
2.28932e-09
4.77754e-08
2.44978e-09
4.79073e-08
2.57691e-09
4.80409e-08
2.67016e-09
4.81713e-08
2.73124e-09
4.82949e-08
2.76275e-09
4.84086e-08
2.76797e-09
4.85106e-08
2.7508e-09
4.85996e-08
2.71551e-09
4.86755e-08
2.66645e-09
4.87386e-08
2.60771e-09
4.87897e-08
2.54297e-09
4.883e-08
2.47533e-09
4.88609e-08
2.40731e-09
4.88837e-08
2.34075e-09
4.88998e-08
2.27694e-09
4.89104e-08
2.21666e-09
4.89165e-08
2.16031e-09
4.8919e-08
2.10798e-09
4.89185e-08
2.05957e-09
4.89157e-08
2.01483e-09
4.8911e-08
1.97347e-09
4.89046e-08
1.93517e-09
4.88968e-08
1.89959e-09
4.88877e-08
1.86643e-09
4.88775e-08
1.83542e-09
4.88663e-08
1.80631e-09
4.8854e-08
1.7789e-09
4.88408e-08
1.753e-09
4.88267e-08
1.72845e-09
4.88116e-08
1.70513e-09
4.87955e-08
1.6829e-09
4.87785e-08
1.66168e-09
4.87606e-08
1.64137e-09
4.87417e-08
1.6219e-09
4.87219e-08
1.6032e-09
4.8701e-08
1.58521e-09
4.86791e-08
1.56788e-09
4.86562e-08
1.55116e-09
4.86322e-08
1.53501e-09
4.86072e-08
1.51938e-09
4.85811e-08
1.50425e-09
4.85538e-08
1.48959e-09
4.85254e-08
1.47536e-09
4.84958e-08
1.46155e-09
4.84651e-08
1.44812e-09
4.84332e-08
1.43507e-09
4.84e-08
1.42236e-09
4.83656e-08
1.40998e-09
4.833e-08
1.39793e-09
4.82931e-08
1.38617e-09
4.82548e-08
1.3747e-09
4.82153e-08
1.3635e-09
4.81745e-08
1.35257e-09
4.81324e-08
1.34189e-09
4.80889e-08
1.33145e-09
4.8044e-08
1.32125e-09
4.79978e-08
1.31126e-09
4.79503e-08
1.3015e-09
4.79013e-08
1.29193e-09
4.7851e-08
1.28257e-09
4.77994e-08
1.2734e-09
4.77463e-08
1.26441e-09
4.76919e-08
1.25561e-09
4.7636e-08
1.24697e-09
4.75788e-08
1.2385e-09
4.75202e-08
1.23019e-09
4.74603e-08
1.22203e-09
4.73989e-08
1.21403e-09
4.73362e-08
1.20617e-09
4.72721e-08
1.19845e-09
4.72067e-08
1.19087e-09
4.71399e-08
1.18343e-09
4.70718e-08
1.17612e-09
4.70023e-08
1.16894e-09
4.69315e-08
1.16189e-09
4.68593e-08
1.15497e-09
4.67859e-08
1.14817e-09
4.67111e-08
1.1415e-09
4.66351e-08
1.13497e-09
4.65577e-08
1.12856e-09
4.64791e-08
1.12229e-09
4.63993e-08
1.11616e-09
4.63182e-08
1.11018e-09
4.62358e-08
1.10435e-09
4.61522e-08
1.09868e-09
4.60674e-08
1.09319e-09
4.59813e-08
1.0879e-09
4.58941e-08
1.08281e-09
4.58056e-08
1.07797e-09
4.57159e-08
1.07339e-09
4.56251e-08
1.06913e-09
4.55331e-08
1.06526e-09
4.54399e-08
1.06187e-09
4.53459e-08
1.05907e-09
4.52512e-08
1.05688e-09
4.51571e-08
1.05475e-09
4.50656e-08
1.0495e-09
1.02742e-09
4.93859e-08
2.02467e-09
-4.93101e-08
4.94828e-08
2.19241e-09
4.95946e-08
2.33799e-09
4.97147e-08
2.45678e-09
4.98376e-08
2.54723e-09
4.99589e-08
2.60996e-09
5.00749e-08
2.6467e-09
5.0183e-08
2.65994e-09
5.0281e-08
2.65276e-09
5.03679e-08
2.62865e-09
5.04431e-08
2.59125e-09
5.05068e-08
2.54404e-09
5.05595e-08
2.49023e-09
5.06022e-08
2.43262e-09
5.0636e-08
2.37349e-09
5.06621e-08
2.31464e-09
5.06817e-08
2.25736e-09
5.06958e-08
2.20252e-09
5.07055e-08
2.15062e-09
5.07116e-08
2.1019e-09
5.07148e-08
2.0564e-09
5.07156e-08
2.01401e-09
5.07145e-08
1.97454e-09
5.07119e-08
1.93777e-09
5.07081e-08
1.90346e-09
5.07031e-08
1.87136e-09
5.06973e-08
1.84125e-09
5.06907e-08
1.81293e-09
5.06834e-08
1.78621e-09
5.06754e-08
1.76093e-09
5.06669e-08
1.73696e-09
5.06579e-08
1.71417e-09
5.06483e-08
1.69245e-09
5.06383e-08
1.67172e-09
5.06278e-08
1.6519e-09
5.06168e-08
1.6329e-09
5.06053e-08
1.61467e-09
5.05934e-08
1.59716e-09
5.05809e-08
1.58031e-09
5.0568e-08
1.56408e-09
5.05546e-08
1.54842e-09
5.05407e-08
1.53332e-09
5.05262e-08
1.51872e-09
5.05112e-08
1.50461e-09
5.04956e-08
1.49095e-09
5.04794e-08
1.47773e-09
5.04626e-08
1.46491e-09
5.04452e-08
1.45249e-09
5.04271e-08
1.44044e-09
5.04084e-08
1.42874e-09
5.03889e-08
1.41738e-09
5.03687e-08
1.40634e-09
5.03478e-08
1.39562e-09
5.03261e-08
1.38519e-09
5.03036e-08
1.37505e-09
5.02803e-08
1.36518e-09
5.02562e-08
1.35558e-09
5.02312e-08
1.34623e-09
5.02054e-08
1.33713e-09
5.01786e-08
1.32826e-09
5.01509e-08
1.31961e-09
5.01223e-08
1.31119e-09
5.00927e-08
1.30298e-09
5.00622e-08
1.29496e-09
5.00306e-08
1.28715e-09
4.99981e-08
1.27952e-09
4.99645e-08
1.27208e-09
4.99299e-08
1.26481e-09
4.98942e-08
1.25771e-09
4.98575e-08
1.25077e-09
4.98197e-08
1.244e-09
4.97807e-08
1.23738e-09
4.97407e-08
1.23091e-09
4.96995e-08
1.22458e-09
4.96573e-08
1.2184e-09
4.96138e-08
1.21236e-09
4.95693e-08
1.20646e-09
4.95235e-08
1.2007e-09
4.94766e-08
1.19507e-09
4.94286e-08
1.18958e-09
4.93793e-08
1.18422e-09
4.93289e-08
1.17901e-09
4.92772e-08
1.17393e-09
4.92244e-08
1.169e-09
4.91703e-08
1.16423e-09
4.91151e-08
1.15962e-09
4.90586e-08
1.15517e-09
4.90008e-08
1.15092e-09
4.89419e-08
1.14686e-09
4.88817e-08
1.14301e-09
4.88202e-08
1.13942e-09
4.87575e-08
1.1361e-09
4.86936e-08
1.13309e-09
4.86284e-08
1.13045e-09
4.8562e-08
1.12824e-09
4.84946e-08
1.12646e-09
4.84266e-08
1.12495e-09
4.83585e-08
1.1228e-09
4.82914e-08
1.11666e-09
1.09558e-09
5.12908e-08
1.95505e-09
-5.12212e-08
5.13785e-08
2.1047e-09
5.14797e-08
2.23683e-09
5.15891e-08
2.34734e-09
5.17021e-08
2.43428e-09
5.18145e-08
2.4975e-09
5.19232e-08
2.53805e-09
5.20254e-08
2.55772e-09
5.21192e-08
2.55893e-09
5.22034e-08
2.54446e-09
5.22773e-08
2.51732e-09
5.23409e-08
2.48044e-09
5.23945e-08
2.43662e-09
5.24389e-08
2.3883e-09
5.24748e-08
2.33757e-09
5.25033e-08
2.28612e-09
5.25255e-08
2.23522e-09
5.25422e-08
2.18577e-09
5.25545e-08
2.13836e-09
5.2563e-08
2.09335e-09
5.25685e-08
2.05087e-09
5.25716e-08
2.01094e-09
5.25727e-08
1.97346e-09
5.25722e-08
1.93831e-09
5.25703e-08
1.90532e-09
5.25674e-08
1.87429e-09
5.25635e-08
1.84508e-09
5.2559e-08
1.81749e-09
5.25538e-08
1.79139e-09
5.25481e-08
1.76665e-09
5.25419e-08
1.74312e-09
5.25354e-08
1.72072e-09
5.25285e-08
1.69935e-09
5.25213e-08
1.67892e-09
5.25138e-08
1.65936e-09
5.25061e-08
1.64061e-09
5.24982e-08
1.62261e-09
5.249e-08
1.60531e-09
5.24817e-08
1.58866e-09
5.24731e-08
1.57263e-09
5.24643e-08
1.55718e-09
5.24554e-08
1.54227e-09
5.24462e-08
1.52787e-09
5.24369e-08
1.51397e-09
5.24273e-08
1.50053e-09
5.24175e-08
1.48753e-09
5.24075e-08
1.47495e-09
5.23972e-08
1.46278e-09
5.23866e-08
1.45099e-09
5.23758e-08
1.43957e-09
5.23647e-08
1.42851e-09
5.23532e-08
1.41779e-09
5.23414e-08
1.4074e-09
5.23293e-08
1.39732e-09
5.23168e-08
1.38755e-09
5.23039e-08
1.37808e-09
5.22906e-08
1.36889e-09
5.22768e-08
1.35997e-09
5.22627e-08
1.35132e-09
5.2248e-08
1.34293e-09
5.22328e-08
1.33478e-09
5.22171e-08
1.32687e-09
5.22009e-08
1.3192e-09
5.21841e-08
1.31175e-09
5.21668e-08
1.30451e-09
5.21488e-08
1.29749e-09
5.21302e-08
1.29067e-09
5.2111e-08
1.28405e-09
5.20911e-08
1.27761e-09
5.20705e-08
1.27137e-09
5.20492e-08
1.2653e-09
5.20271e-08
1.2594e-09
5.20044e-08
1.25368e-09
5.19808e-08
1.24813e-09
5.19565e-08
1.24273e-09
5.19314e-08
1.2375e-09
5.19054e-08
1.23242e-09
5.18786e-08
1.2275e-09
5.18509e-08
1.22273e-09
5.18224e-08
1.21812e-09
5.17929e-08
1.21366e-09
5.17626e-08
1.20936e-09
5.17313e-08
1.20522e-09
5.16991e-08
1.20125e-09
5.16658e-08
1.19744e-09
5.16316e-08
1.19382e-09
5.15964e-08
1.19038e-09
5.15602e-08
1.18715e-09
5.15229e-08
1.18413e-09
5.14846e-08
1.18135e-09
5.14452e-08
1.17882e-09
5.14047e-08
1.17659e-09
5.13631e-08
1.17468e-09
5.13204e-08
1.17313e-09
5.12767e-08
1.17195e-09
5.12321e-08
1.17109e-09
5.11868e-08
1.17027e-09
5.11411e-08
1.16846e-09
5.1095e-08
1.16276e-09
1.14564e-09
5.32611e-08
1.89072e-09
-5.31967e-08
5.33409e-08
2.02487e-09
5.34327e-08
2.14499e-09
5.35325e-08
2.24757e-09
5.36362e-08
2.33058e-09
5.37403e-08
2.39342e-09
5.38417e-08
2.43659e-09
5.39381e-08
2.46134e-09
5.40275e-08
2.4695e-09
5.41087e-08
2.46328e-09
5.41809e-08
2.4451e-09
5.42439e-08
2.41744e-09
5.42979e-08
2.38266e-09
5.43433e-08
2.3429e-09
5.43808e-08
2.30006e-09
5.44113e-08
2.25567e-09
5.44355e-08
2.21095e-09
5.44545e-08
2.16683e-09
5.44689e-08
2.12395e-09
5.44795e-08
2.08273e-09
5.4487e-08
2.0434e-09
5.44918e-08
2.00606e-09
5.44946e-08
1.97073e-09