/*--------------------------------*- C++ -*----------------------------------*\
| =========                 |                                                 |
| \\      /  F ield         | OpenFOAM: The Open Source CFD Toolbox           |
|  \\    /   O peration     | Version:  2.3.0                                 |
|   \\  /    A nd           | Web:      www.OpenFOAM.org                      |
|    \\/     M anipulation  |                                                 |
\*---------------------------------------------------------------------------*/
FoamFile
{
    version     2.0;
    format      ascii;
    class       volVectorField;
    location    "0.9";
    object      U;
}
// * * * * * * * * * * * * * * * * * * * * * * * * * * * * * * * * * * * * * //

dimensions      [0 1 -1 0 0 0 0];

internalField   nonuniform List<vector> 
3105
(
(0.171529 0.00584558 0)
(0.154903 0.00598861 0)
(0.139082 0.00560999 0)
(0.124076 0.00502397 0)
(0.110267 0.00436657 0)
(0.0978494 0.00369687 0)
(0.0868516 0.00305253 0)
(0.0772426 0.00245971 0)
(0.0689658 0.00193467 0)
(0.0619363 0.00148579 0)
(0.0560406 0.00111504 0)
(0.0511453 0.000819134 0)
(0.0471085 0.000590728 0)
(0.0437896 0.000420061 0)
(0.0410574 0.000296506 0)
(0.0387949 0.000209809 0)
(0.036902 0.000150853 0)
(0.0352968 0.000112018 0)
(0.033914 8.72363e-05 0)
(0.032703 7.18849e-05 0)
(0.0316259 6.25831e-05 0)
(0.0306544 5.69646e-05 0)
(0.0297681 5.34494e-05 0)
(0.0289519 5.10368e-05 0)
(0.0281948 4.91324e-05 0)
(0.0274887 4.74112e-05 0)
(0.0268274 4.57169e-05 0)
(0.0262062 4.39916e-05 0)
(0.025621 4.22295e-05 0)
(0.0250686 4.04486e-05 0)
(0.0245463 3.86743e-05 0)
(0.0240514 3.69312e-05 0)
(0.0235819 3.52388e-05 0)
(0.0231357 3.36113e-05 0)
(0.022711 3.20575e-05 0)
(0.0223064 3.0582e-05 0)
(0.0219202 2.91859e-05 0)
(0.0215512 2.78683e-05 0)
(0.0211982 2.66267e-05 0)
(0.02086 2.54575e-05 0)
(0.0205358 2.43569e-05 0)
(0.0202245 2.33207e-05 0)
(0.0199254 2.23448e-05 0)
(0.0196377 2.14253e-05 0)
(0.0193607 2.05584e-05 0)
(0.0190937 1.97404e-05 0)
(0.0188363 1.89682e-05 0)
(0.0185878 1.82386e-05 0)
(0.0183477 1.75488e-05 0)
(0.0181157 1.68961e-05 0)
(0.0178911 1.62781e-05 0)
(0.0176738 1.56926e-05 0)
(0.0174632 1.51375e-05 0)
(0.017259 1.46108e-05 0)
(0.017061 1.41107e-05 0)
(0.0168688 1.36357e-05 0)
(0.0166821 1.31842e-05 0)
(0.0165007 1.27547e-05 0)
(0.0163242 1.2346e-05 0)
(0.0161526 1.19567e-05 0)
(0.0159855 1.15858e-05 0)
(0.0158228 1.12322e-05 0)
(0.0156642 1.0895e-05 0)
(0.0155095 1.05731e-05 0)
(0.0153587 1.02657e-05 0)
(0.0152115 9.97206e-06 0)
(0.0150678 9.69143e-06 0)
(0.0149274 9.42309e-06 0)
(0.0147902 9.16641e-06 0)
(0.014656 8.9208e-06 0)
(0.0145248 8.68571e-06 0)
(0.0143964 8.46059e-06 0)
(0.0142707 8.24506e-06 0)
(0.0141475 8.03859e-06 0)
(0.0140269 7.8408e-06 0)
(0.0139086 7.65137e-06 0)
(0.0137926 7.46991e-06 0)
(0.0136788 7.29614e-06 0)
(0.0135671 7.12976e-06 0)
(0.0134574 6.97055e-06 0)
(0.0133497 6.81829e-06 0)
(0.0132438 6.67278e-06 0)
(0.0131397 6.53385e-06 0)
(0.0130373 6.40138e-06 0)
(0.0129365 6.27528e-06 0)
(0.0128373 6.15547e-06 0)
(0.0127396 6.04193e-06 0)
(0.0126432 5.93469e-06 0)
(0.0125482 5.83388e-06 0)
(0.0124544 5.73966e-06 0)
(0.0123618 5.65244e-06 0)
(0.0122702 5.5729e-06 0)
(0.0121796 5.50233e-06 0)
(0.0120899 5.44322e-06 0)
(0.0120009 5.40085e-06 0)
(0.0119123 5.38769e-06 0)
(0.0118237 5.44121e-06 0)
(0.0117332 5.58079e-06 0)
(0.0116569 5.07808e-06 0)
(0.0114052 3.48612e-05 0)
(0.190555 0.00926529 0)
(0.188182 0.00988422 0)
(0.184292 0.00972215 0)
(0.179165 0.00924382 0)
(0.173267 0.00861839 0)
(0.166955 0.00790118 0)
(0.160459 0.00713054 0)
(0.153948 0.00634165 0)
(0.147556 0.00556454 0)
(0.141382 0.00482385 0)
(0.135497 0.00413887 0)
(0.129941 0.00352298 0)
(0.124733 0.00298333 0)
(0.119879 0.00252138 0)
(0.11537 0.00213384 0)
(0.111192 0.00181409 0)
(0.107325 0.00155354 0)
(0.103746 0.00134288 0)
(0.100433 0.00117303 0)
(0.0973606 0.0010358 0)
(0.0945079 0.000924151 0)
(0.0918537 0.000832345 0)
(0.0893789 0.000755842 0)
(0.0870661 0.000691155 0)
(0.0848998 0.000635664 0)
(0.0828661 0.00058742 0)
(0.0809528 0.000544988 0)
(0.0791489 0.000507304 0)
(0.0774448 0.000473573 0)
(0.0758319 0.000443192 0)
(0.0743027 0.000415691 0)
(0.0728502 0.000390694 0)
(0.0714686 0.000367895 0)
(0.0701523 0.000347038 0)
(0.0688965 0.000327905 0)
(0.0676968 0.000310309 0)
(0.0665494 0.000294088 0)
(0.0654505 0.000279099 0)
(0.0643969 0.000265219 0)
(0.0633858 0.000252339 0)
(0.0624144 0.000240362 0)
(0.0614803 0.000229203 0)
(0.0605812 0.000218789 0)
(0.0597151 0.000209053 0)
(0.05888 0.000199937 0)
(0.0580742 0.000191388 0)
(0.0572961 0.00018336 0)
(0.0565441 0.000175811 0)
(0.055817 0.000168705 0)
(0.0551133 0.000162007 0)
(0.0544319 0.000155687 0)
(0.0537716 0.000149718 0)
(0.0531315 0.000144075 0)
(0.0525105 0.000138735 0)
(0.0519077 0.000133678 0)
(0.0513222 0.000128884 0)
(0.0507532 0.000124336 0)
(0.0502001 0.000120018 0)
(0.0496619 0.000115916 0)
(0.0491382 0.000112016 0)
(0.0486282 0.000108305 0)
(0.0481313 0.000104771 0)
(0.047647 0.000101405 0)
(0.0471747 9.81959e-05 0)
(0.046714 9.51347e-05 0)
(0.0462643 9.22129e-05 0)
(0.0458252 8.94227e-05 0)
(0.0453962 8.67565e-05 0)
(0.0449771 8.42077e-05 0)
(0.0445673 8.17699e-05 0)
(0.0441664 7.94371e-05 0)
(0.0437743 7.72038e-05 0)
(0.0433904 7.50652e-05 0)
(0.0430145 7.30163e-05 0)
(0.0426463 7.10527e-05 0)
(0.0422856 6.91706e-05 0)
(0.0419319 6.73661e-05 0)
(0.041585 6.56358e-05 0)
(0.0412448 6.39764e-05 0)
(0.0409108 6.23851e-05 0)
(0.040583 6.08594e-05 0)
(0.040261 5.93966e-05 0)
(0.0399447 5.79949e-05 0)
(0.0396338 5.66521e-05 0)
(0.0393281 5.53668e-05 0)
(0.0390273 5.41376e-05 0)
(0.0387314 5.29634e-05 0)
(0.03844 5.18436e-05 0)
(0.0381529 5.07779e-05 0)
(0.0378701 4.97667e-05 0)
(0.0375911 4.88114e-05 0)
(0.0373158 4.79152e-05 0)
(0.037044 4.70844e-05 0)
(0.0367753 4.63324e-05 0)
(0.0365093 4.56888e-05 0)
(0.0362456 4.5227e-05 0)
(0.0359831 4.51468e-05 0)
(0.0357181 4.59333e-05 0)
(0.0354696 5.14622e-05 0)
(0.0349591 0.000122007 0)
(0.19353 0.00893253 0)
(0.194273 0.00995624 0)
(0.194422 0.0103417 0)
(0.193797 0.0103682 0)
(0.192485 0.0101578 0)
(0.190604 0.00975639 0)
(0.188246 0.00920787 0)
(0.185501 0.00856118 0)
(0.182458 0.00786201 0)
(0.179204 0.00714928 0)
(0.175817 0.00645432 0)
(0.17236 0.00580022 0)
(0.168885 0.00520178 0)
(0.16543 0.00466629 0)
(0.162026 0.00419495 0)
(0.158693 0.0037846 0)
(0.155445 0.00342945 0)
(0.152289 0.0031225 0)
(0.149229 0.00285658 0)
(0.146268 0.00262505 0)
(0.143405 0.0024221 0)
(0.140639 0.00224289 0)
(0.137967 0.00208347 0)
(0.135388 0.00194067 0)
(0.132898 0.00181201 0)
(0.130495 0.00169548 0)
(0.128175 0.00158949 0)
(0.125936 0.00149276 0)
(0.123775 0.00140421 0)
(0.121689 0.00132295 0)
(0.119675 0.00124822 0)
(0.117731 0.00117936 0)
(0.115853 0.00111579 0)
(0.114038 0.001057 0)
(0.112285 0.00100255 0)
(0.110591 0.000952024 0)
(0.108952 0.00090507 0)
(0.107368 0.000861365 0)
(0.105834 0.000820623 0)
(0.10435 0.000782584 0)
(0.102913 0.000747018 0)
(0.101521 0.000713719 0)
(0.100172 0.000682498 0)
(0.0988643 0.00065319 0)
(0.0975959 0.000625642 0)
(0.0963652 0.000599718 0)
(0.0951706 0.000575296 0)
(0.0940106 0.000552264 0)
(0.0928836 0.00053052 0)
(0.0917884 0.000509973 0)
(0.0907236 0.000490538 0)
(0.089688 0.000472139 0)
(0.0886803 0.000454706 0)
(0.0876994 0.000438175 0)
(0.0867442 0.000422487 0)
(0.0858138 0.000407587 0)
(0.084907 0.000393426 0)
(0.0840231 0.000379957 0)
(0.083161 0.000367138 0)
(0.0823199 0.00035493 0)
(0.0814991 0.000343296 0)
(0.0806978 0.000332203 0)
(0.0799151 0.000321618 0)
(0.0791505 0.000311513 0)
(0.0784032 0.00030186 0)
(0.0776727 0.000292634 0)
(0.0769582 0.000283813 0)
(0.0762592 0.000275372 0)
(0.0755752 0.000267293 0)
(0.0749055 0.000259557 0)
(0.0742498 0.000252144 0)
(0.0736075 0.00024504 0)
(0.0729781 0.000238227 0)
(0.0723613 0.000231693 0)
(0.0717564 0.000225423 0)
(0.0711632 0.000219406 0)
(0.0705813 0.000213628 0)
(0.0700102 0.000208081 0)
(0.0694496 0.000202753 0)
(0.0688991 0.000197636 0)
(0.0683583 0.000192721 0)
(0.067827 0.000188001 0)
(0.0673049 0.000183469 0)
(0.0667915 0.000179118 0)
(0.0662865 0.000174943 0)
(0.0657898 0.000170939 0)
(0.0653008 0.000167102 0)
(0.0648195 0.00016343 0)
(0.0643454 0.000159921 0)
(0.0638782 0.000156574 0)
(0.0634177 0.000153392 0)
(0.0629634 0.000150382 0)
(0.0625151 0.000147558 0)
(0.0620724 0.000144952 0)
(0.0616346 0.000142634 0)
(0.0612012 0.000140782 0)
(0.0607707 0.000139882 0)
(0.0603394 0.000141493 0)
(0.0599193 0.00015739 0)
(0.0592527 0.000246215 0)
(0.194566 0.00831374 0)
(0.195675 0.00939834 0)
(0.196708 0.0099941 0)
(0.197445 0.0102591 0)
(0.197845 0.0102853 0)
(0.197912 0.0101115 0)
(0.197642 0.00977311 0)
(0.197041 0.00931178 0)
(0.196134 0.00876926 0)
(0.194954 0.00818308 0)
(0.193543 0.00758516 0)
(0.191944 0.00700084 0)
(0.190196 0.00644832 0)
(0.188336 0.00593886 0)
(0.186395 0.00547774 0)
(0.184399 0.00506561 0)
(0.182366 0.00469997 0)
(0.180314 0.00437647 0)
(0.178252 0.00408992 0)
(0.17619 0.00383509 0)
(0.174133 0.00360709 0)
(0.172087 0.00340166 0)
(0.170056 0.00321519 0)
(0.168041 0.00304474 0)
(0.166045 0.00288797 0)
(0.164071 0.00274299 0)
(0.16212 0.00260833 0)
(0.160194 0.00248281 0)
(0.158294 0.00236547 0)
(0.156421 0.00225554 0)
(0.154576 0.00215236 0)
(0.15276 0.00205539 0)
(0.150974 0.00196413 0)
(0.149218 0.00187816 0)
(0.147493 0.0017971 0)
(0.145798 0.0017206 0)
(0.144135 0.00164834 0)
(0.142502 0.00158005 0)
(0.140901 0.00151546 0)
(0.139331 0.00145432 0)
(0.137791 0.00139641 0)
(0.136282 0.00134152 0)
(0.134802 0.00128947 0)
(0.133353 0.00124007 0)
(0.131933 0.00119317 0)
(0.130541 0.00114861 0)
(0.129178 0.00110625 0)
(0.127843 0.00106596 0)
(0.126535 0.00102762 0)
(0.125253 0.000991111 0)
(0.123998 0.000956335 0)
(0.122768 0.000923191 0)
(0.121563 0.000891586 0)
(0.120383 0.000861434 0)
(0.119227 0.000832656 0)
(0.118093 0.000805176 0)
(0.116983 0.000778923 0)
(0.115894 0.000753832 0)
(0.114827 0.000729841 0)
(0.113781 0.00070689 0)
(0.112755 0.000684927 0)
(0.111749 0.000663899 0)
(0.110762 0.000643758 0)
(0.109795 0.000624458 0)
(0.108845 0.000605959 0)
(0.107913 0.000588218 0)
(0.106999 0.000571198 0)
(0.106101 0.000554864 0)
(0.10522 0.000539183 0)
(0.104355 0.000524122 0)
(0.103505 0.000509653 0)
(0.10267 0.000495747 0)
(0.10185 0.000482379 0)
(0.101044 0.000469524 0)
(0.100251 0.000457159 0)
(0.0994727 0.000445262 0)
(0.098707 0.000433814 0)
(0.097954 0.000422795 0)
(0.0972133 0.000412188 0)
(0.0964846 0.000401977 0)
(0.0957675 0.000392147 0)
(0.0950618 0.000382684 0)
(0.094367 0.000373576 0)
(0.0936829 0.00036481 0)
(0.093009 0.000356377 0)
(0.0923452 0.000348269 0)
(0.0916911 0.000340477 0)
(0.0910464 0.000332997 0)
(0.0904107 0.000325823 0)
(0.0897837 0.000318957 0)
(0.0891651 0.0003124 0)
(0.0885546 0.000306163 0)
(0.0879517 0.00030027 0)
(0.087356 0.000294771 0)
(0.0867669 0.000289784 0)
(0.0861838 0.000285601 0)
(0.0856051 0.000283035 0)
(0.085028 0.000284882 0)
(0.0844608 0.000306457 0)
(0.0836844 0.00039268 0)
(0.195303 0.00782344 0)
(0.19628 0.00882586 0)
(0.197338 0.00944845 0)
(0.198315 0.00978539 0)
(0.199156 0.00991035 0)
(0.199841 0.00985821 0)
(0.200344 0.0096558 0)
(0.200644 0.00933452 0)
(0.200733 0.00892756 0)
(0.200612 0.00846631 0)
(0.200297 0.00797872 0)
(0.199806 0.00748823 0)
(0.199162 0.00701287 0)
(0.198388 0.006565 0)
(0.197506 0.00615177 0)
(0.196536 0.00577605 0)
(0.195496 0.00543749 0)
(0.194397 0.00513369 0)
(0.193252 0.00486111 0)
(0.192069 0.00461577 0)
(0.190853 0.00439379 0)
(0.18961 0.00419161 0)
(0.188345 0.00400615 0)
(0.187059 0.00383486 0)
(0.185756 0.00367566 0)
(0.184439 0.00352689 0)
(0.18311 0.00338722 0)
(0.18177 0.00325561 0)
(0.180422 0.00313122 0)
(0.179068 0.00301337 0)
(0.17771 0.00290149 0)
(0.176349 0.00279511 0)
(0.174987 0.00269384 0)
(0.173625 0.00259731 0)
(0.172265 0.00250522 0)
(0.170908 0.00241729 0)
(0.169555 0.00233326 0)
(0.168208 0.00225292 0)
(0.166867 0.00217605 0)
(0.165534 0.00210246 0)
(0.164209 0.00203197 0)
(0.162893 0.00196443 0)
(0.161587 0.00189968 0)
(0.160292 0.00183759 0)
(0.159007 0.00177802 0)
(0.157734 0.00172086 0)
(0.156474 0.00166599 0)
(0.155225 0.00161331 0)
(0.15399 0.00156271 0)
(0.152767 0.0015141 0)
(0.151558 0.0014674 0)
(0.150363 0.00142251 0)
(0.149181 0.00137936 0)
(0.148013 0.00133788 0)
(0.146859 0.00129798 0)
(0.145719 0.00125961 0)
(0.144593 0.00122269 0)
(0.143481 0.00118716 0)
(0.142382 0.00115297 0)
(0.141298 0.00112006 0)
(0.140228 0.00108837 0)
(0.139172 0.00105785 0)
(0.138129 0.00102846 0)
(0.1371 0.00100014 0)
(0.136085 0.000972845 0)
(0.135083 0.00094654 0)
(0.134094 0.000921181 0)
(0.133118 0.000896728 0)
(0.132155 0.000873146 0)
(0.131205 0.000850396 0)
(0.130268 0.000828447 0)
(0.129343 0.000807266 0)
(0.12843 0.000786823 0)
(0.127529 0.000767087 0)
(0.12664 0.000748033 0)
(0.125762 0.000729633 0)
(0.124896 0.000711865 0)
(0.124041 0.000694703 0)
(0.123198 0.000678127 0)
(0.122365 0.000662118 0)
(0.121542 0.000646654 0)
(0.120731 0.000631721 0)
(0.119929 0.000617301 0)
(0.119137 0.00060338 0)
(0.118355 0.000589945 0)
(0.117583 0.000576986 0)
(0.11682 0.000564493 0)
(0.116066 0.000552459 0)
(0.115321 0.000540879 0)
(0.114584 0.000529753 0)
(0.113856 0.000519087 0)
(0.113136 0.000508896 0)
(0.112423 0.000499213 0)
(0.111718 0.000490109 0)
(0.11102 0.000481749 0)
(0.110328 0.000474531 0)
(0.109641 0.000469555 0)
(0.108957 0.000470452 0)
(0.108287 0.00049178 0)
(0.10744 0.000560683 0)
(0.195931 0.00739757 0)
(0.19674 0.00828817 0)
(0.197665 0.00888875 0)
(0.198588 0.00924843 0)
(0.19946 0.00942035 0)
(0.200256 0.00943475 0)
(0.200953 0.00931407 0)
(0.201529 0.00908351 0)
(0.201971 0.00877047 0)
(0.20227 0.00840154 0)
(0.202431 0.00800087 0)
(0.20246 0.00758917 0)
(0.202369 0.00718296 0)
(0.202171 0.00679423 0)
(0.201882 0.00643056 0)
(0.201515 0.00609581 0)
(0.201082 0.00579092 0)
(0.200593 0.0055148 0)
(0.200056 0.00526513 0)
(0.199477 0.00503897 0)
(0.198863 0.00483326 0)
(0.198216 0.00464507 0)
(0.197538 0.00447179 0)
(0.196834 0.00431117 0)
(0.196103 0.00416135 0)
(0.195348 0.0040208 0)
(0.194571 0.00388829 0)
(0.193772 0.00376285 0)
(0.192953 0.00364368 0)
(0.192114 0.00353014 0)
(0.191259 0.00342171 0)
(0.190387 0.00331795 0)
(0.189499 0.0032185 0)
(0.188598 0.00312306 0)
(0.187683 0.00303134 0)
(0.186757 0.00294311 0)
(0.18582 0.00285817 0)
(0.184873 0.00277632 0)
(0.183918 0.0026974 0)
(0.182955 0.00262127 0)
(0.181985 0.00254777 0)
(0.181009 0.00247678 0)
(0.180029 0.0024082 0)
(0.179044 0.00234191 0)
(0.178056 0.00227782 0)
(0.177065 0.00221584 0)
(0.176073 0.00215589 0)
(0.175079 0.00209788 0)
(0.174085 0.00204174 0)
(0.17309 0.00198741 0)
(0.172097 0.00193482 0)
(0.171105 0.0018839 0)
(0.170114 0.0018346 0)
(0.169126 0.00178685 0)
(0.16814 0.00174062 0)
(0.167157 0.00169584 0)
(0.166178 0.00165247 0)
(0.165203 0.00161046 0)
(0.164232 0.00156976 0)
(0.163265 0.00153033 0)
(0.162303 0.00149213 0)
(0.161346 0.00145511 0)
(0.160395 0.00141924 0)
(0.159449 0.00138447 0)
(0.158508 0.00135078 0)
(0.157574 0.00131811 0)
(0.156645 0.00128645 0)
(0.155723 0.00125576 0)
(0.154807 0.001226 0)
(0.153898 0.00119715 0)
(0.152995 0.00116917 0)
(0.152099 0.00114204 0)
(0.151209 0.00111573 0)
(0.150326 0.0010902 0)
(0.149451 0.00106545 0)
(0.148582 0.00104144 0)
(0.147719 0.00101816 0)
(0.146864 0.000995569 0)
(0.146016 0.000973661 0)
(0.145175 0.000952415 0)
(0.14434 0.000931813 0)
(0.143513 0.000911837 0)
(0.142692 0.000892474 0)
(0.141878 0.000873711 0)
(0.141071 0.000855534 0)
(0.14027 0.000837936 0)
(0.139477 0.000820907 0)
(0.138689 0.000804443 0)
(0.137909 0.000788543 0)
(0.137134 0.000773208 0)
(0.136366 0.000758448 0)
(0.135603 0.000744287 0)
(0.134847 0.000730768 0)
(0.134096 0.000717984 0)
(0.13335 0.000706135 0)
(0.13261 0.000695698 0)
(0.131873 0.000687922 0)
(0.131141 0.000686501 0)
(0.130425 0.000702505 0)
(0.12956 0.000745513 0)
(0.196481 0.00703049 0)
(0.197154 0.0078143 0)
(0.197941 0.00837833 0)
(0.198758 0.0087411 0)
(0.199559 0.00893696 0)
(0.200319 0.00899081 0)
(0.201016 0.0089223 0)
(0.201633 0.00875278 0)
(0.202157 0.00850553 0)
(0.202581 0.00820347 0)
(0.202904 0.00786765 0)
(0.203129 0.00751635 0)
(0.203265 0.00716449 0)
(0.20332 0.00682329 0)
(0.203305 0.00650031 0)
(0.203229 0.00619991 0)
(0.203101 0.00592385 0)
(0.20293 0.00567199 0)
(0.202722 0.00544292 0)
(0.202482 0.00523455 0)
(0.202214 0.00504449 0)
(0.20192 0.00487033 0)
(0.201602 0.00470984 0)
(0.201262 0.00456105 0)
(0.200901 0.00442226 0)
(0.20052 0.00429207 0)
(0.200119 0.00416931 0)
(0.199698 0.00405304 0)
(0.199259 0.00394249 0)
(0.198802 0.00383703 0)
(0.198327 0.00373614 0)
(0.197834 0.0036394 0)
(0.197325 0.00354644 0)
(0.196799 0.00345698 0)
(0.196258 0.00337073 0)
(0.195702 0.00328749 0)
(0.195131 0.00320704 0)
(0.194546 0.00312923 0)
(0.193948 0.00305389 0)
(0.193337 0.00298088 0)
(0.192714 0.00291009 0)
(0.192079 0.00284141 0)
(0.191432 0.00277473 0)
(0.190776 0.00270996 0)
(0.190109 0.00264704 0)
(0.189432 0.00258587 0)
(0.188747 0.00252639 0)
(0.188053 0.00246855 0)
(0.187351 0.00241228 0)
(0.186642 0.00235753 0)
(0.185925 0.00230424 0)
(0.185203 0.00225238 0)
(0.184474 0.0022019 0)
(0.18374 0.00215275 0)
(0.183001 0.0021049 0)
(0.182257 0.0020583 0)
(0.181508 0.00201293 0)
(0.180756 0.00196875 0)
(0.180001 0.00192571 0)
(0.179242 0.0018838 0)
(0.178481 0.00184298 0)
(0.177718 0.00180322 0)
(0.176952 0.00176449 0)
(0.176185 0.00172676 0)
(0.175416 0.00169001 0)
(0.174646 0.0016542 0)
(0.173876 0.00161932 0)
(0.173105 0.00158533 0)
(0.172333 0.00155222 0)
(0.171562 0.00151996 0)
(0.170791 0.00148853 0)
(0.170021 0.00145791 0)
(0.169251 0.00142807 0)
(0.168482 0.001399 0)
(0.167714 0.00137067 0)
(0.166947 0.00134307 0)
(0.166182 0.00131619 0)
(0.165419 0.00129 0)
(0.164657 0.00126449 0)
(0.163897 0.00123964 0)
(0.163139 0.00121545 0)
(0.162383 0.00119189 0)
(0.16163 0.00116897 0)
(0.160879 0.00114667 0)
(0.16013 0.00112498 0)
(0.159384 0.00110391 0)
(0.15864 0.00108343 0)
(0.157899 0.00106356 0)
(0.157161 0.0010443 0)
(0.156425 0.00102566 0)
(0.155692 0.00100765 0)
(0.154962 0.000990303 0)
(0.154234 0.000973676 0)
(0.153508 0.000957877 0)
(0.152785 0.000943128 0)
(0.152064 0.000929927 0)
(0.151346 0.000919477 0)
(0.150631 0.000914792 0)
(0.149934 0.00092227 0)
(0.149108 0.00093682 0)
(0.196965 0.00671229 0)
(0.197532 0.00739973 0)
(0.198201 0.00792008 0)
(0.198914 0.00827429 0)
(0.19963 0.00848214 0)
(0.200321 0.00856267 0)
(0.200969 0.00853261 0)
(0.201557 0.00840992 0)
(0.202075 0.00821423 0)
(0.202514 0.00796525 0)
(0.202875 0.00768132 0)
(0.20316 0.00737866 0)
(0.203373 0.00707074 0)
(0.203522 0.00676803 0)
(0.203615 0.00647796 0)
(0.20366 0.0062052 0)
(0.203665 0.00595211 0)
(0.203636 0.00571931 0)
(0.20358 0.00550618 0)
(0.203501 0.00531132 0)
(0.203401 0.00513295 0)
(0.203284 0.00496918 0)
(0.20315 0.00481813 0)
(0.203003 0.00467812 0)
(0.202841 0.00454763 0)
(0.202666 0.00442539 0)
(0.202478 0.00431031 0)
(0.202277 0.00420148 0)
(0.202063 0.00409816 0)
(0.201836 0.00399974 0)
(0.201597 0.00390569 0)
(0.201346 0.00381558 0)
(0.201082 0.00372905 0)
(0.200805 0.00364578 0)
(0.200517 0.00356552 0)
(0.200216 0.00348804 0)
(0.199903 0.00341311 0)
(0.199579 0.00334059 0)
(0.199242 0.00327029 0)
(0.198894 0.00320209 0)
(0.198535 0.00313587 0)
(0.198165 0.00307151 0)
(0.197783 0.00300891 0)
(0.197391 0.002948 0)
(0.196988 0.00288868 0)
(0.196575 0.00283088 0)
(0.196152 0.00277455 0)
(0.195719 0.00271961 0)
(0.195276 0.00266603 0)
(0.194824 0.00261374 0)
(0.194363 0.00256271 0)
(0.193893 0.00251289 0)
(0.193414 0.00246424 0)
(0.192927 0.00241672 0)
(0.192432 0.0023703 0)
(0.191929 0.00232495 0)
(0.191418 0.00228064 0)
(0.1909 0.00223734 0)
(0.190375 0.00219502 0)
(0.189843 0.00215365 0)
(0.189305 0.00211321 0)
(0.18876 0.00207368 0)
(0.188209 0.00203503 0)
(0.187652 0.00199724 0)
(0.18709 0.00196029 0)
(0.186522 0.00192415 0)
(0.18595 0.00188882 0)
(0.185372 0.00185426 0)
(0.18479 0.00182046 0)
(0.184204 0.00178741 0)
(0.183613 0.00175508 0)
(0.183018 0.00172346 0)
(0.18242 0.00169253 0)
(0.181818 0.00166228 0)
(0.181213 0.0016327 0)
(0.180604 0.00160377 0)
(0.179993 0.00157548 0)
(0.179379 0.00154782 0)
(0.178762 0.00152078 0)
(0.178143 0.00149434 0)
(0.177522 0.00146851 0)
(0.176899 0.00144326 0)
(0.176274 0.00141861 0)
(0.175647 0.00139454 0)
(0.175018 0.00137105 0)
(0.174388 0.00134814 0)
(0.173757 0.00132582 0)
(0.173124 0.00130408 0)
(0.17249 0.00128294 0)
(0.171855 0.00126241 0)
(0.171219 0.00124251 0)
(0.170582 0.00122329 0)
(0.169944 0.00120481 0)
(0.169306 0.00118717 0)
(0.168666 0.00117062 0)
(0.168025 0.00115559 0)
(0.167385 0.00114306 0)
(0.166747 0.00113489 0)
(0.166125 0.00113292 0)
(0.165389 0.0011219 0)
(0.197391 0.00643121 0)
(0.197876 0.00703366 0)
(0.198448 0.0075082 0)
(0.199068 0.00784712 0)
(0.199702 0.00805983 0)
(0.200324 0.00815963 0)
(0.200914 0.00816005 0)
(0.201457 0.00807586 0)
(0.201944 0.00792341 0)
(0.202367 0.00771944 0)
(0.202726 0.00747987 0)
(0.20302 0.00721902 0)
(0.203254 0.00694903 0)
(0.203434 0.00667962 0)
(0.203567 0.00641798 0)
(0.203658 0.00616895 0)
(0.203716 0.00593535 0)
(0.203746 0.0057184 0)
(0.203753 0.00551811 0)
(0.203741 0.00533376 0)
(0.203714 0.0051641 0)
(0.203674 0.00500772 0)
(0.203624 0.00486314 0)
(0.203564 0.00472892 0)
(0.203495 0.0046038 0)
(0.203418 0.00448662 0)
(0.203333 0.00437641 0)
(0.203241 0.00427233 0)
(0.203141 0.00417367 0)
(0.203034 0.00407984 0)
(0.202919 0.00399033 0)
(0.202798 0.00390473 0)
(0.202669 0.00382266 0)
(0.202532 0.00374382 0)
(0.202388 0.00366793 0)
(0.202236 0.00359476 0)
(0.202077 0.00352411 0)
(0.201909 0.00345579 0)
(0.201735 0.00338964 0)
(0.201552 0.00332551 0)
(0.201362 0.00326329 0)
(0.201163 0.00320285 0)
(0.200957 0.00314409 0)
(0.200743 0.00308693 0)
(0.200521 0.00303127 0)
(0.200291 0.00297704 0)
(0.200053 0.00292418 0)
(0.199807 0.00287261 0)
(0.199554 0.00282229 0)
(0.199292 0.00277316 0)
(0.199023 0.00272518 0)
(0.198746 0.0026783 0)
(0.198461 0.00263248 0)
(0.198169 0.00258768 0)
(0.197869 0.00254387 0)
(0.197561 0.00250101 0)
(0.197246 0.00245908 0)
(0.196923 0.00241804 0)
(0.196593 0.00237787 0)
(0.196256 0.00233854 0)
(0.195912 0.00230003 0)
(0.195561 0.00226231 0)
(0.195203 0.00222536 0)
(0.194838 0.00218917 0)
(0.194467 0.0021537 0)
(0.194088 0.00211895 0)
(0.193704 0.00208489 0)
(0.193313 0.0020515 0)
(0.192915 0.00201878 0)
(0.192512 0.00198669 0)
(0.192103 0.00195524 0)
(0.191687 0.0019244 0)
(0.191266 0.00189416 0)
(0.19084 0.00186452 0)
(0.190408 0.00183545 0)
(0.18997 0.00180694 0)
(0.189527 0.00177899 0)
(0.18908 0.0017516 0)
(0.188627 0.00172474 0)
(0.188169 0.00169842 0)
(0.187707 0.00167262 0)
(0.18724 0.00164736 0)
(0.186768 0.00162261 0)
(0.186292 0.00159839 0)
(0.185812 0.0015747 0)
(0.185328 0.00155153 0)
(0.184839 0.00152889 0)
(0.184347 0.0015068 0)
(0.18385 0.00148526 0)
(0.18335 0.0014643 0)
(0.182846 0.00144394 0)
(0.182338 0.00142423 0)
(0.181827 0.00140523 0)
(0.181312 0.00138707 0)
(0.180794 0.00136992 0)
(0.180272 0.00135416 0)
(0.179749 0.00134037 0)
(0.179226 0.00132919 0)
(0.178716 0.00131884 0)
(0.178106 0.00128901 0)
(0.197768 0.00617903 0)
(0.198187 0.00670788 0)
(0.198679 0.00713778 0)
(0.199219 0.00745764 0)
(0.199778 0.00767004 0)
(0.200334 0.00778338 0)
(0.200867 0.00780802 0)
(0.201365 0.00775588 0)
(0.201816 0.0076404 0)
(0.202215 0.00747563 0)
(0.202559 0.00727524 0)
(0.202848 0.00705177 0)
(0.203085 0.00681606 0)
(0.203274 0.00657703 0)
(0.203421 0.00634154 0)
(0.203531 0.00611445 0)
(0.203611 0.00589888 0)
(0.203665 0.00569651 0)
(0.203699 0.0055079 0)
(0.203715 0.00533286 0)
(0.203719 0.00517065 0)
(0.203711 0.0050203 0)
(0.203695 0.00488067 0)
(0.203672 0.00475064 0)
(0.203642 0.00462915 0)
(0.203606 0.00451522 0)
(0.203566 0.00440799 0)
(0.203521 0.0043067 0)
(0.203473 0.00421072 0)
(0.203419 0.00411949 0)
(0.203362 0.00403254 0)
(0.203301 0.00394947 0)
(0.203237 0.00386992 0)
(0.203168 0.00379359 0)
(0.203095 0.00372021 0)
(0.203018 0.00364957 0)
(0.202938 0.00358145 0)
(0.202853 0.00351567 0)
(0.202764 0.00345207 0)
(0.202671 0.00339052 0)
(0.202573 0.00333087 0)
(0.202471 0.00327302 0)
(0.202365 0.00321685 0)
(0.202253 0.00316228 0)
(0.202138 0.00310922 0)
(0.202017 0.00305758 0)
(0.201891 0.00300731 0)
(0.201761 0.00295832 0)
(0.201625 0.00291057 0)
(0.201485 0.002864 0)
(0.201339 0.00281855 0)
(0.201188 0.00277418 0)
(0.201031 0.00273085 0)
(0.200869 0.00268852 0)
(0.200702 0.00264714 0)
(0.200529 0.00260668 0)
(0.200351 0.00256711 0)
(0.200167 0.0025284 0)
(0.199978 0.00249051 0)
(0.199782 0.00245342 0)
(0.199581 0.00241711 0)
(0.199375 0.00238154 0)
(0.199162 0.00234669 0)
(0.198944 0.00231255 0)
(0.198721 0.00227908 0)
(0.198491 0.00224627 0)
(0.198256 0.0022141 0)
(0.198014 0.00218255 0)
(0.197767 0.0021516 0)
(0.197515 0.00212124 0)
(0.197257 0.00209145 0)
(0.196992 0.00206222 0)
(0.196723 0.00203353 0)
(0.196447 0.00200537 0)
(0.196166 0.00197773 0)
(0.19588 0.0019506 0)
(0.195588 0.00192397 0)
(0.19529 0.00189783 0)
(0.194987 0.00187217 0)
(0.194678 0.00184699 0)
(0.194364 0.00182229 0)
(0.194045 0.00179806 0)
(0.19372 0.00177429 0)
(0.19339 0.001751 0)
(0.193055 0.00172818 0)
(0.192714 0.00170585 0)
(0.192368 0.001684 0)
(0.192018 0.00166265 0)
(0.191662 0.00164181 0)
(0.191301 0.00162151 0)
(0.190935 0.00160178 0)
(0.190564 0.00158267 0)
(0.190188 0.00156423 0)
(0.189807 0.00154657 0)
(0.189421 0.00152983 0)
(0.189031 0.00151424 0)
(0.188638 0.00150001 0)
(0.188244 0.0014867 0)
(0.187857 0.00147031 0)
(0.187385 0.00143009 0)
(0.198102 0.00595014 0)
(0.198466 0.00641584 0)
(0.198892 0.00680396 0)
(0.199363 0.00710286 0)
(0.199856 0.0073111 0)
(0.200351 0.00743326 0)
(0.200832 0.00747686 0)
(0.201285 0.0074513 0)
(0.201701 0.00736747 0)
(0.202074 0.00723701 0)
(0.2024 0.00707152 0)
(0.202678 0.00688185 0)
(0.202912 0.0066776 0)
(0.203102 0.00646687 0)
(0.203255 0.00625608 0)
(0.203374 0.00605 0)
(0.203464 0.00585191 0)
(0.203531 0.00566382 0)
(0.203577 0.00548672 0)
(0.203608 0.00532085 0)
(0.203626 0.00516592 0)
(0.203633 0.00502134 0)
(0.203632 0.00488632 0)
(0.203624 0.00476 0)
(0.203611 0.00464154 0)
(0.203593 0.00453014 0)
(0.203571 0.00442506 0)
(0.203546 0.00432566 0)
(0.203518 0.00423136 0)
(0.203488 0.00414166 0)
(0.203454 0.00405614 0)
(0.203419 0.00397441 0)
(0.203382 0.00389615 0)
(0.203342 0.00382108 0)
(0.203301 0.00374895 0)
(0.203258 0.00367954 0)
(0.203213 0.00361265 0)
(0.203166 0.00354811 0)
(0.203117 0.00348577 0)
(0.203066 0.00342549 0)
(0.203013 0.00336713 0)
(0.202958 0.0033106 0)
(0.202901 0.00325578 0)
(0.202842 0.00320258 0)
(0.202781 0.00315092 0)
(0.202717 0.00310072 0)
(0.202651 0.00305191 0)
(0.202582 0.00300442 0)
(0.202511 0.00295819 0)
(0.202437 0.00291316 0)
(0.20236 0.00286929 0)
(0.202281 0.00282652 0)
(0.202198 0.00278481 0)
(0.202113 0.00274411 0)
(0.202024 0.00270439 0)
(0.201932 0.00266561 0)
(0.201837 0.00262773 0)
(0.201738 0.00259072 0)
(0.201636 0.00255455 0)
(0.201531 0.00251918 0)
(0.201421 0.00248459 0)
(0.201308 0.00245075 0)
(0.201191 0.00241763 0)
(0.201071 0.00238521 0)
(0.200946 0.00235347 0)
(0.200817 0.00232238 0)
(0.200685 0.00229192 0)
(0.200548 0.00226208 0)
(0.200407 0.00223283 0)
(0.200261 0.00220415 0)
(0.200111 0.00217602 0)
(0.199957 0.00214844 0)
(0.199799 0.00212139 0)
(0.199636 0.00209484 0)
(0.199468 0.0020688 0)
(0.199296 0.00204324 0)
(0.19912 0.00201816 0)
(0.198938 0.00199355 0)
(0.198752 0.0019694 0)
(0.198562 0.0019457 0)
(0.198366 0.00192245 0)
(0.198166 0.00189965 0)
(0.197961 0.00187729 0)
(0.197751 0.00185538 0)
(0.197536 0.00183392 0)
(0.197317 0.00181291 0)
(0.197093 0.00179237 0)
(0.196863 0.0017723 0)
(0.196629 0.00175272 0)
(0.19639 0.00173366 0)
(0.196145 0.00171515 0)
(0.195896 0.00169723 0)
(0.195642 0.00167994 0)
(0.195382 0.00166339 0)
(0.195118 0.00164765 0)
(0.194849 0.0016328 0)
(0.194577 0.00161872 0)
(0.194303 0.00160427 0)
(0.194032 0.00158461 0)
(0.19369 0.00154184 0)
(0.198396 0.00574056 0)
(0.198717 0.00615224 0)
(0.199088 0.00650222 0)
(0.199498 0.00677969 0)
(0.199933 0.00698107 0)
(0.200374 0.00710825 0)
(0.200805 0.00716637 0)
(0.201216 0.00716263 0)
(0.201598 0.0071057 0)
(0.201944 0.00700512 0)
(0.202251 0.00687061 0)
(0.202517 0.00671146 0)
(0.202744 0.00653609 0)
(0.202933 0.00635176 0)
(0.203087 0.00616439 0)
(0.203211 0.00597857 0)
(0.203308 0.00579763 0)
(0.203382 0.00562379 0)
(0.203437 0.00545835 0)
(0.203477 0.00530191 0)
(0.203503 0.00515454 0)
(0.203519 0.00501599 0)
(0.203527 0.00488577 0)
(0.203527 0.00476329 0)
(0.203522 0.00464789 0)
(0.203513 0.00453897 0)
(0.2035 0.0044359 0)
(0.203483 0.00433816 0)
(0.203464 0.00424523 0)
(0.203443 0.00415669 0)
(0.20342 0.00407216 0)
(0.203395 0.00399128 0)
(0.203369 0.00391378 0)
(0.203342 0.00383938 0)
(0.203313 0.00376785 0)
(0.203284 0.003699 0)
(0.203254 0.00363264 0)
(0.203223 0.0035686 0)
(0.203191 0.00350675 0)
(0.203158 0.00344695 0)
(0.203124 0.00338909 0)
(0.20309 0.00333305 0)
(0.203055 0.00327874 0)
(0.203019 0.00322607 0)
(0.202983 0.00317496 0)
(0.202945 0.00312533 0)
(0.202907 0.00307711 0)
(0.202867 0.00303025 0)
(0.202827 0.00298468 0)
(0.202786 0.00294034 0)
(0.202743 0.00289719 0)
(0.202699 0.00285517 0)
(0.202654 0.00281424 0)
(0.202608 0.00277437 0)
(0.202561 0.0027355 0)
(0.202511 0.0026976 0)
(0.202461 0.00266064 0)
(0.202408 0.00262457 0)
(0.202354 0.00258937 0)
(0.202298 0.00255501 0)
(0.202241 0.00252145 0)
(0.202181 0.00248867 0)
(0.202119 0.00245664 0)
(0.202055 0.00242534 0)
(0.201989 0.00239473 0)
(0.201921 0.0023648 0)
(0.20185 0.00233552 0)
(0.201777 0.00230687 0)
(0.201701 0.00227884 0)
(0.201623 0.00225139 0)
(0.201542 0.00222451 0)
(0.201458 0.00219819 0)
(0.201371 0.00217241 0)
(0.201281 0.00214715 0)
(0.201189 0.0021224 0)
(0.201093 0.00209814 0)
(0.200994 0.00207437 0)
(0.200892 0.00205108 0)
(0.200787 0.00202825 0)
(0.200678 0.00200588 0)
(0.200565 0.00198396 0)
(0.20045 0.00196249 0)
(0.20033 0.00194146 0)
(0.200207 0.00192089 0)
(0.200081 0.00190076 0)
(0.19995 0.00188109 0)
(0.199816 0.00186189 0)
(0.199677 0.00184316 0)
(0.199535 0.00182492 0)
(0.199389 0.0018072 0)
(0.199238 0.00179002 0)
(0.199084 0.00177342 0)
(0.198925 0.00175745 0)
(0.198761 0.00174215 0)
(0.198594 0.00172758 0)
(0.198423 0.00171369 0)
(0.198249 0.0017001 0)
(0.198072 0.00168536 0)
(0.197895 0.00166489 0)