/*--------------------------------*- C++ -*----------------------------------*\
| =========                 |                                                 |
| \\      /  F ield         | OpenFOAM: The Open Source CFD Toolbox           |
|  \\    /   O peration     | Version:  2.3.0                                 |
|   \\  /    A nd           | Web:      www.OpenFOAM.org                      |
|    \\/     M anipulation  |                                                 |
\*---------------------------------------------------------------------------*/
FoamFile
{
    version     2.0;
    format      ascii;
    class       volVectorField;
    location    "0.9";
    object      U;
}
// * * * * * * * * * * * * * * * * * * * * * * * * * * * * * * * * * * * * * //

dimensions      [0 1 -1 0 0 0 0];

internalField   nonuniform List<vector> 
8750
(
(0.171304 0.00595414 0)
(0.154857 0.00602824 0)
(0.139044 0.00561181 0)
(0.124051 0.00501479 0)
(0.110292 0.00435481 0)
(0.0979352 0.00368526 0)
(0.086993 0.0030429 0)
(0.0774313 0.00245315 0)
(0.0691943 0.00193149 0)
(0.0621974 0.00148576 0)
(0.0563271 0.00111764 0)
(0.0514508 0.000823664 0)
(0.0474277 0.000596469 0)
(0.0441189 0.000426347 0)
(0.0413946 0.000302789 0)
(0.039139 0.000215678 0)
(0.0372532 0.000156035 0)
(0.0356558 0.000116364 0)
(0.0342817 9.07029e-05 0)
(0.0330808 7.45063e-05 0)
(0.0320148 6.44483e-05 0)
(0.0310554 5.81928e-05 0)
(0.0301817 5.41703e-05 0)
(0.0293784 5.13765e-05 0)
(0.0286343 4.92039e-05 0)
(0.0279408 4.73102e-05 0)
(0.0272917 4.55205e-05 0)
(0.0266818 4.37593e-05 0)
(0.0261072 4.20055e-05 0)
(0.0255644 4.02642e-05 0)
(0.0250507 3.85509e-05 0)
(0.0245634 3.6882e-05 0)
(0.0241004 3.52715e-05 0)
(0.0236596 3.37293e-05 0)
(0.0232395 3.22612e-05 0)
(0.0228382 3.08697e-05 0)
(0.0224545 2.95547e-05 0)
(0.0220871 2.83143e-05 0)
(0.0217347 2.71454e-05 0)
(0.0213963 2.60442e-05 0)
(0.021071 2.50068e-05 0)
(0.0207578 2.40289e-05 0)
(0.0204561 2.31066e-05 0)
(0.0201651 2.2236e-05 0)
(0.0198841 2.14134e-05 0)
(0.0196125 2.06355e-05 0)
(0.0193499 1.98991e-05 0)
(0.0190956 1.92013e-05 0)
(0.0188492 1.85395e-05 0)
(0.0186103 1.79112e-05 0)
(0.0183785 1.73141e-05 0)
(0.0181534 1.67463e-05 0)
(0.0179347 1.62058e-05 0)
(0.0177221 1.56909e-05 0)
(0.0175153 1.51999e-05 0)
(0.0173139 1.47315e-05 0)
(0.0171178 1.42842e-05 0)
(0.0169267 1.38568e-05 0)
(0.0167403 1.34481e-05 0)
(0.0165586 1.30571e-05 0)
(0.0163812 1.26827e-05 0)
(0.0162079 1.2324e-05 0)
(0.0160387 1.19802e-05 0)
(0.0158734 1.16505e-05 0)
(0.0157117 1.13342e-05 0)
(0.0155535 1.10305e-05 0)
(0.0153988 1.07389e-05 0)
(0.0152473 1.04586e-05 0)
(0.015099 1.01893e-05 0)
(0.0149537 9.93034e-06 0)
(0.0148113 9.68128e-06 0)
(0.0146717 9.44169e-06 0)
(0.0145348 9.21115e-06 0)
(0.0144005 8.98928e-06 0)
(0.0142687 8.77574e-06 0)
(0.0141393 8.5702e-06 0)
(0.0140123 8.37235e-06 0)
(0.0138875 8.18192e-06 0)
(0.0137649 7.99868e-06 0)
(0.0136443 7.8224e-06 0)
(0.0135258 7.65284e-06 0)
(0.0134092 7.48985e-06 0)
(0.0132945 7.33329e-06 0)
(0.0131815 7.18302e-06 0)
(0.0130703 7.03891e-06 0)
(0.0129608 6.90093e-06 0)
(0.0128528 6.76905e-06 0)
(0.0127464 6.6433e-06 0)
(0.0126414 6.52377e-06 0)
(0.0125378 6.41068e-06 0)
(0.0124355 6.30444e-06 0)
(0.0123344 6.20576e-06 0)
(0.0122344 6.11602e-06 0)
(0.0121355 6.03793e-06 0)
(0.0120374 5.97706e-06 0)
(0.0119399 5.9463e-06 0)
(0.0118425 5.98373e-06 0)
(0.011743 6.15161e-06 0)
(0.0116611 5.20768e-06 0)
(0.0113857 3.82978e-05 0)
(0.190146 0.00939867 0)
(0.187817 0.00990692 0)
(0.183875 0.00968227 0)
(0.178682 0.00918471 0)
(0.17274 0.00855257 0)
(0.166401 0.007832 0)
(0.159889 0.00706093 0)
(0.153371 0.00627418 0)
(0.146983 0.00550097 0)
(0.140825 0.00476521 0)
(0.134965 0.00408563 0)
(0.129443 0.00347513 0)
(0.124277 0.00294054 0)
(0.119472 0.00248305 0)
(0.115018 0.0020993 0)
(0.110899 0.00178264 0)
(0.107095 0.00152456 0)
(0.103582 0.00131587 0)
(0.100335 0.00114764 0)
(0.0973297 0.00101179 0)
(0.094544 0.000901397 0)
(0.091956 0.000810788 0)
(0.089546 0.000735477 0)
(0.0872961 0.000672002 0)
(0.0851905 0.000617749 0)
(0.0832151 0.000570766 0)
(0.0813574 0.000529606 0)
(0.0796062 0.000493192 0)
(0.0779519 0.000460716 0)
(0.0763857 0.000431563 0)
(0.0749002 0.000405252 0)
(0.0734884 0.000381401 0)
(0.0721443 0.000359699 0)
(0.0708625 0.000339886 0)
(0.0696383 0.000321745 0)
(0.0684674 0.000305088 0)
(0.0673457 0.000289754 0)
(0.0662699 0.000275602 0)
(0.0652367 0.000262509 0)
(0.0642433 0.00025037 0)
(0.0632871 0.000239088 0)
(0.0623657 0.000228582 0)
(0.0614769 0.000218779 0)
(0.0606188 0.000209615 0)
(0.0597896 0.000201032 0)
(0.0589875 0.00019298 0)
(0.0582111 0.000185413 0)
(0.0574589 0.000178293 0)
(0.0567297 0.000171582 0)
(0.0560221 0.00016525 0)
(0.0553352 0.000159265 0)
(0.0546678 0.000153604 0)
(0.054019 0.000148241 0)
(0.0533879 0.000143156 0)
(0.0527737 0.000138328 0)
(0.0521755 0.000133741 0)
(0.0515927 0.000129378 0)
(0.0510246 0.000125224 0)
(0.0504704 0.000121266 0)
(0.0499296 0.000117492 0)
(0.0494017 0.000113889 0)
(0.0488861 0.000110448 0)
(0.0483823 0.000107159 0)
(0.0478898 0.000104012 0)
(0.0474081 0.000101 0)
(0.0469369 9.81155e-05 0)
(0.0464758 9.53508e-05 0)
(0.0460243 9.26996e-05 0)
(0.0455822 9.01559e-05 0)
(0.045149 8.7714e-05 0)
(0.0447244 8.53689e-05 0)
(0.0443081 8.31156e-05 0)
(0.0438999 8.09497e-05 0)
(0.0434994 7.8867e-05 0)
(0.0431064 7.68637e-05 0)
(0.0427206 7.49362e-05 0)
(0.0423418 7.30813e-05 0)
(0.0419697 7.12957e-05 0)
(0.0416041 6.95768e-05 0)
(0.0412448 6.79219e-05 0)
(0.0408916 6.63286e-05 0)
(0.0405442 6.47948e-05 0)
(0.0402024 6.33186e-05 0)
(0.0398661 6.18982e-05 0)
(0.0395351 6.0532e-05 0)
(0.0392091 5.9219e-05 0)
(0.0388881 5.79581e-05 0)
(0.0385717 5.67486e-05 0)
(0.0382598 5.55905e-05 0)
(0.0379523 5.44842e-05 0)
(0.0376488 5.34312e-05 0)
(0.0373493 5.2435e-05 0)
(0.0370535 5.15024e-05 0)
(0.036761 5.06476e-05 0)
(0.0364716 4.99017e-05 0)
(0.0361846 4.93414e-05 0)
(0.0358991 4.91767e-05 0)
(0.0356107 4.99388e-05 0)
(0.0353435 5.50425e-05 0)
(0.0347867 0.000132687 0)
(0.193132 0.00903277 0)
(0.193915 0.00998777 0)
(0.194033 0.0103178 0)
(0.193339 0.0103196 0)
(0.191952 0.0100935 0)
(0.189995 0.00967793 0)
(0.187562 0.00911771 0)
(0.184743 0.00846252 0)
(0.181634 0.00775759 0)
(0.178322 0.0070412 0)
(0.174887 0.00634411 0)
(0.171394 0.00568895 0)
(0.167892 0.00509018 0)
(0.164423 0.00455482 0)
(0.161015 0.00408396 0)
(0.157687 0.00367441 0)
(0.154453 0.00332039 0)
(0.15132 0.00301496 0)
(0.148291 0.00275098 0)
(0.145367 0.00252182 0)
(0.142547 0.00232169 0)
(0.139828 0.00214568 0)
(0.137209 0.00198981 0)
(0.134685 0.00185085 0)
(0.132254 0.00172623 0)
(0.129911 0.0016139 0)
(0.127653 0.0015122 0)
(0.125477 0.00141979 0)
(0.123378 0.00133554 0)
(0.121354 0.00125853 0)
(0.119402 0.00118797 0)
(0.117518 0.00112318 0)
(0.115698 0.00106355 0)
(0.113941 0.00100857 0)
(0.112242 0.000957775 0)
(0.1106 0.000910765 0)
(0.109011 0.000867177 0)
(0.107473 0.000826688 0)
(0.105984 0.000789012 0)
(0.104541 0.000753895 0)
(0.103143 0.000721107 0)
(0.101786 0.000690444 0)
(0.100469 0.000661724 0)
(0.0991908 0.000634783 0)
(0.0979488 0.000609474 0)
(0.0967415 0.000585665 0)
(0.0955675 0.000563237 0)
(0.0944252 0.000542082 0)
(0.0933133 0.000522103 0)
(0.0922304 0.000503212 0)
(0.0911753 0.000485329 0)
(0.0901467 0.000468383 0)
(0.0891437 0.000452306 0)
(0.0881651 0.00043704 0)
(0.0872099 0.000422528 0)
(0.0862772 0.000408722 0)
(0.0853662 0.000395574 0)
(0.0844759 0.000383042 0)
(0.0836056 0.000371088 0)
(0.0827544 0.000359676 0)
(0.0819218 0.000348773 0)
(0.081107 0.000338348 0)
(0.0803093 0.000328374 0)
(0.0795282 0.000318825 0)
(0.078763 0.000309677 0)
(0.0780133 0.000300906 0)
(0.0772783 0.000292494 0)
(0.0765578 0.00028442 0)
(0.075851 0.000276667 0)
(0.0751577 0.000269218 0)
(0.0744774 0.000262059 0)
(0.0738096 0.000255173 0)
(0.0731539 0.000248549 0)
(0.0725099 0.000242174 0)
(0.0718773 0.000236037 0)
(0.0712558 0.000230126 0)
(0.0706448 0.000224431 0)
(0.0700442 0.000218944 0)
(0.0694536 0.000213656 0)
(0.0688727 0.000208559 0)
(0.0683012 0.000203646 0)
(0.0677388 0.00019891 0)
(0.0671852 0.000194344 0)
(0.0666401 0.000189945 0)
(0.0661033 0.000185706 0)
(0.0655745 0.000181623 0)
(0.0650534 0.000177694 0)
(0.0645398 0.000173915 0)
(0.0640333 0.000170286 0)
(0.0635338 0.000166806 0)
(0.0630409 0.000163479 0)
(0.0625544 0.000160312 0)
(0.0620739 0.00015732 0)
(0.0615991 0.000154537 0)
(0.0611294 0.000152036 0)
(0.0606642 0.000150002 0)
(0.060202 0.000148945 0)
(0.0597386 0.000150429 0)
(0.0592899 0.000166506 0)
(0.0585675 0.000263975 0)
(0.194158 0.00839539 0)
(0.195325 0.00944963 0)
(0.196375 0.0100039 0)
(0.197093 0.010243 0)
(0.197456 0.0102501 0)
(0.197474 0.0100575 0)
(0.197144 0.009701 0)
(0.196474 0.00922357 0)
(0.195493 0.00866714 0)
(0.194237 0.00806905 0)
(0.192752 0.00746104 0)
(0.191082 0.00686827 0)
(0.189268 0.00630876 0)
(0.187347 0.00579356 0)
(0.185352 0.00532779 0)
(0.183309 0.004912 0)
(0.181236 0.00454362 0)
(0.17915 0.00421823 0)
(0.177062 0.00393063 0)
(0.17498 0.00367554 0)
(0.17291 0.00344805 0)
(0.170857 0.00324384 0)
(0.168823 0.00305928 0)
(0.166812 0.00289135 0)
(0.164825 0.00273765 0)
(0.162864 0.00259623 0)
(0.16093 0.00246555 0)
(0.159024 0.00234435 0)
(0.157148 0.00223163 0)
(0.155302 0.00212654 0)
(0.153486 0.00202839 0)
(0.151701 0.00193656 0)
(0.149948 0.00185052 0)
(0.148226 0.00176982 0)
(0.146535 0.00169403 0)
(0.144876 0.00162279 0)
(0.143248 0.00155575 0)
(0.14165 0.0014926 0)
(0.140084 0.00143306 0)
(0.138547 0.00137687 0)
(0.137041 0.00132379 0)
(0.135563 0.00127361 0)
(0.134115 0.00122613 0)
(0.132694 0.00118116 0)
(0.131302 0.00113853 0)
(0.129936 0.00109809 0)
(0.128597 0.00105969 0)
(0.127283 0.0010232 0)
(0.125995 0.000988497 0)
(0.124732 0.000955471 0)
(0.123493 0.000924015 0)
(0.122277 0.000894032 0)
(0.121084 0.000865432 0)
(0.119913 0.000838133 0)
(0.118764 0.000812057 0)
(0.117636 0.000787133 0)
(0.116529 0.000763295 0)
(0.115441 0.00074048 0)
(0.114373 0.000718631 0)
(0.113325 0.000697694 0)
(0.112294 0.00067762 0)
(0.111282 0.000658362 0)
(0.110287 0.000639876 0)
(0.109309 0.000622123 0)
(0.108348 0.000605064 0)
(0.107403 0.000588665 0)
(0.106474 0.000572891 0)
(0.10556 0.000557712 0)
(0.104661 0.0005431 0)
(0.103776 0.000529027 0)
(0.102906 0.000515467 0)
(0.102049 0.000502398 0)
(0.101206 0.000489797 0)
(0.100376 0.000477643 0)
(0.0995587 0.000465916 0)
(0.0987539 0.000454599 0)
(0.0979611 0.000443675 0)
(0.0971801 0.000433128 0)
(0.0964107 0.000422942 0)
(0.0956524 0.000413105 0)
(0.0949051 0.000403603 0)
(0.0941684 0.000394426 0)
(0.093442 0.000385561 0)
(0.0927257 0.000377001 0)
(0.0920192 0.000368736 0)
(0.0913222 0.000360758 0)
(0.0906345 0.000353062 0)
(0.0899557 0.000345644 0)
(0.0892857 0.000338499 0)
(0.0886241 0.000331629 0)
(0.0879707 0.000325037 0)
(0.087325 0.000318735 0)
(0.0866869 0.000312749 0)
(0.0860559 0.000307131 0)
(0.0854314 0.000302006 0)
(0.0848127 0.000297674 0)
(0.0841984 0.000294983 0)
(0.083585 0.000296765 0)
(0.0829836 0.000319281 0)
(0.0821486 0.000414825 0)
(0.194868 0.00789307 0)
(0.195911 0.00888925 0)
(0.197018 0.00948447 0)
(0.198018 0.00979877 0)
(0.198867 0.00990569 0)
(0.199548 0.00983509 0)
(0.200036 0.00961331 0)
(0.200308 0.00927289 0)
(0.200358 0.00884766 0)
(0.200191 0.00836928 0)
(0.199822 0.00786593 0)
(0.199274 0.00736118 0)
(0.19857 0.00687315 0)
(0.197735 0.00641418 0)
(0.196792 0.00599134 0)
(0.195763 0.0056074 0)
(0.194664 0.00526194 0)
(0.193511 0.00495247 0)
(0.192313 0.00467537 0)
(0.191079 0.00442661 0)
(0.189817 0.00420223 0)
(0.18853 0.00399862 0)
(0.187224 0.00381265 0)
(0.185901 0.00364168 0)
(0.184565 0.00348356 0)
(0.183217 0.00333658 0)
(0.181861 0.00319932 0)
(0.180497 0.00307068 0)
(0.179128 0.00294974 0)
(0.177755 0.00283577 0)
(0.176381 0.00272814 0)
(0.175007 0.00262632 0)
(0.173633 0.00252987 0)
(0.172263 0.00243838 0)
(0.170895 0.0023515 0)
(0.169533 0.00226892 0)
(0.168176 0.00219035 0)
(0.166826 0.00211553 0)
(0.165484 0.00204422 0)
(0.16415 0.00197621 0)
(0.162826 0.00191131 0)
(0.16151 0.00184931 0)
(0.160205 0.00179007 0)
(0.158911 0.00173341 0)
(0.157628 0.0016792 0)
(0.156356 0.0016273 0)
(0.155097 0.00157758 0)
(0.153849 0.00152993 0)
(0.152613 0.00148424 0)
(0.151391 0.0014404 0)
(0.15018 0.00139833 0)
(0.148983 0.00135793 0)
(0.147798 0.00131911 0)
(0.146627 0.0012818 0)
(0.145468 0.00124593 0)
(0.144322 0.00121142 0)
(0.143189 0.0011782 0)
(0.142069 0.00114623 0)
(0.140962 0.00111543 0)
(0.139868 0.00108576 0)
(0.138787 0.00105716 0)
(0.137718 0.00102958 0)
(0.136662 0.00100298 0)
(0.135618 0.000977312 0)
(0.134587 0.000952535 0)
(0.133568 0.00092861 0)
(0.13256 0.000905501 0)
(0.131565 0.000883172 0)
(0.130582 0.000861592 0)
(0.12961 0.000840729 0)
(0.12865 0.000820553 0)
(0.127701 0.000801037 0)
(0.126763 0.000782155 0)
(0.125837 0.000763881 0)
(0.124921 0.000746193 0)
(0.124016 0.000729069 0)
(0.123122 0.000712488 0)
(0.122237 0.00069643 0)
(0.121364 0.000680878 0)
(0.1205 0.000665814 0)
(0.119646 0.000651223 0)
(0.118802 0.00063709 0)
(0.117967 0.000623403 0)
(0.117141 0.000610148 0)
(0.116325 0.000597316 0)
(0.115518 0.000584896 0)
(0.11472 0.000572882 0)
(0.11393 0.000561269 0)
(0.113148 0.000550052 0)
(0.112375 0.000539233 0)
(0.11161 0.000528819 0)
(0.110853 0.000518826 0)
(0.110103 0.000509291 0)
(0.10936 0.000500289 0)
(0.108623 0.000491989 0)
(0.107893 0.000484809 0)
(0.107167 0.000479896 0)
(0.106444 0.000481025 0)
(0.105735 0.000504246 0)
(0.104829 0.000583104 0)
(0.195469 0.00746167 0)
(0.196344 0.00836118 0)
(0.197333 0.00894657 0)
(0.198304 0.00928761 0)
(0.199211 0.00944246 0)
(0.200036 0.00943882 0)
(0.200753 0.00929832 0)
(0.201341 0.00904717 0)
(0.201783 0.00871362 0)
(0.202075 0.00832478 0)
(0.20222 0.00790519 0)
(0.202225 0.00747592 0)
(0.202105 0.00705373 0)
(0.201874 0.0066507 0)
(0.201547 0.00627442 0)
(0.201139 0.00592869 0)
(0.200663 0.00561435 0)
(0.200129 0.0053302 0)
(0.199547 0.0050738 0)
(0.198922 0.00484213 0)
(0.19826 0.00463203 0)
(0.197566 0.00444048 0)
(0.196841 0.0042648 0)
(0.196089 0.00410268 0)
(0.195312 0.00395217 0)
(0.194511 0.00381169 0)
(0.193688 0.00367996 0)
(0.192844 0.00355592 0)
(0.191981 0.00343872 0)
(0.191099 0.00332768 0)
(0.190201 0.00322221 0)
(0.189288 0.00312183 0)
(0.18836 0.00302614 0)
(0.187418 0.00293476 0)
(0.186465 0.0028474 0)
(0.185501 0.00276378 0)
(0.184527 0.00268365 0)
(0.183544 0.00260679 0)
(0.182552 0.002533 0)
(0.181554 0.00246211 0)
(0.18055 0.00239394 0)
(0.179541 0.00232835 0)
(0.178527 0.00226519 0)
(0.177509 0.00220435 0)
(0.176489 0.0021457 0)
(0.175466 0.00208914 0)
(0.174441 0.00203456 0)
(0.173416 0.00198187 0)
(0.17239 0.00193098 0)
(0.171365 0.00188181 0)
(0.17034 0.00183429 0)
(0.169316 0.00178834 0)
(0.168294 0.0017439 0)
(0.167274 0.0017009 0)
(0.166256 0.00165928 0)
(0.165242 0.00161899 0)
(0.16423 0.00157997 0)
(0.163223 0.00154217 0)
(0.162219 0.00150555 0)
(0.161219 0.00147005 0)
(0.160224 0.00143564 0)
(0.159233 0.00140227 0)
(0.158247 0.00136991 0)
(0.157267 0.00133852 0)
(0.156291 0.00130805 0)
(0.155321 0.00127849 0)
(0.154357 0.00124979 0)
(0.153398 0.00122192 0)
(0.152446 0.00119486 0)
(0.151499 0.00116858 0)
(0.150559 0.00114306 0)
(0.149624 0.00111825 0)
(0.148696 0.00109416 0)
(0.147774 0.00107074 0)
(0.146859 0.00104798 0)
(0.14595 0.00102585 0)
(0.145048 0.00100435 0)
(0.144152 0.000983446 0)
(0.143262 0.000963126 0)
(0.142379 0.000943373 0)
(0.141503 0.000924172 0)
(0.140633 0.00090551 0)
(0.13977 0.000887374 0)
(0.138913 0.000869753 0)
(0.138063 0.000852637 0)
(0.137219 0.000836019 0)
(0.136381 0.000819891 0)
(0.135549 0.00080425 0)
(0.134724 0.000789096 0)
(0.133905 0.000774431 0)
(0.133092 0.000760268 0)
(0.132285 0.000746631 0)
(0.131483 0.000733565 0)
(0.130687 0.000721169 0)
(0.129896 0.000709653 0)
(0.12911 0.000699519 0)
(0.128328 0.0006921 0)
(0.127549 0.0006914 0)
(0.126788 0.000710405 0)
(0.125857 0.000764103 0)
(0.195993 0.0070923 0)
(0.196731 0.0078951 0)
(0.197589 0.00845413 0)
(0.198468 0.00880265 0)
(0.199321 0.00898227 0)
(0.200127 0.00901778 0)
(0.200865 0.0089285 0)
(0.201517 0.00873673 0)
(0.202069 0.00846684 0)
(0.202513 0.00814252 0)
(0.20285 0.00778537 0)
(0.203083 0.00741414 0)
(0.20322 0.00704409 0)
(0.203271 0.00668661 0)
(0.203247 0.00634931 0)
(0.203159 0.00603647 0)
(0.203015 0.00574974 0)
(0.202825 0.00548881 0)
(0.202595 0.00525213 0)
(0.20233 0.00503746 0)
(0.202035 0.00484226 0)
(0.201711 0.00466402 0)
(0.201362 0.00450042 0)
(0.200989 0.0043494 0)
(0.200593 0.00420919 0)
(0.200175 0.00407831 0)
(0.199735 0.00395554 0)
(0.199275 0.00383989 0)
(0.198794 0.00373052 0)
(0.198294 0.00362677 0)
(0.197775 0.00352807 0)
(0.197238 0.00343395 0)
(0.196683 0.00334401 0)
(0.196111 0.0032579 0)
(0.195522 0.00317533 0)
(0.194917 0.00309603 0)
(0.194297 0.00301978 0)
(0.193662 0.00294637 0)
(0.193013 0.00287561 0)
(0.192351 0.00280734 0)
(0.191675 0.00274142 0)
(0.190987 0.00267769 0)
(0.190288 0.00261605 0)
(0.189578 0.00255639 0)
(0.188856 0.00249859 0)
(0.188125 0.00244256 0)
(0.187385 0.00238823 0)
(0.186636 0.00233551 0)
(0.185878 0.00228432 0)
(0.185112 0.00223461 0)
(0.18434 0.00218631 0)
(0.18356 0.00213935 0)
(0.182774 0.00209369 0)
(0.181982 0.00204928 0)
(0.181185 0.00200607 0)
(0.180383 0.00196401 0)
(0.179576 0.00192306 0)
(0.178765 0.00188319 0)
(0.177951 0.00184435 0)
(0.177133 0.0018065 0)
(0.176313 0.00176963 0)
(0.17549 0.00173369 0)
(0.174664 0.00169866 0)
(0.173837 0.0016645 0)
(0.173008 0.00163119 0)
(0.172178 0.00159871 0)
(0.171347 0.00156703 0)
(0.170516 0.00153612 0)
(0.169684 0.00150596 0)
(0.168852 0.00147654 0)
(0.16802 0.00144782 0)
(0.167188 0.0014198 0)
(0.166357 0.00139245 0)
(0.165527 0.00136576 0)
(0.164698 0.00133971 0)
(0.16387 0.00131428 0)
(0.163044 0.00128947 0)
(0.162219 0.00126524 0)
(0.161395 0.0012416 0)
(0.160574 0.00121853 0)
(0.159755 0.00119602 0)
(0.158938 0.00117406 0)
(0.158123 0.00115264 0)
(0.15731 0.00113175 0)
(0.1565 0.00111139 0)
(0.155693 0.00109154 0)
(0.154888 0.00107222 0)
(0.154086 0.00105342 0)
(0.153287 0.00103514 0)
(0.15249 0.0010174 0)
(0.151696 0.0010002 0)
(0.150905 0.000983587 0)
(0.150116 0.000967612 0)
(0.149331 0.000952391 0)
(0.148547 0.000938161 0)
(0.147766 0.000925465 0)
(0.146988 0.000915639 0)
(0.146212 0.000912202 0)
(0.145456 0.000923727 0)
(0.144553 0.00094928 0)
(0.196455 0.00677359 0)
(0.197087 0.00748717 0)
(0.197831 0.00801113 0)
(0.198614 0.00835595 0)
(0.199392 0.00854885 0)
(0.20014 0.00861068 0)
(0.200841 0.00855856 0)
(0.201476 0.00841156 0)
(0.202035 0.00819064 0)
(0.202511 0.00791658 0)
(0.202903 0.00760852 0)
(0.203213 0.00728328 0)
(0.203447 0.0069548 0)
(0.203613 0.00663378 0)
(0.203719 0.00632775 0)
(0.203774 0.0060413 0)
(0.203786 0.00577664 0)
(0.203761 0.00553418 0)
(0.203707 0.00531309 0)
(0.203626 0.00511177 0)
(0.203523 0.00492827 0)
(0.203399 0.0047605 0)
(0.203258 0.00460649 0)
(0.203099 0.00446441 0)
(0.202924 0.00433267 0)
(0.202733 0.0042099 0)
(0.202526 0.00409495 0)
(0.202304 0.00398686 0)
(0.202067 0.00388483 0)
(0.201815 0.00378818 0)
(0.201548 0.00369635 0)
(0.201266 0.00360888 0)
(0.200969 0.00352535 0)
(0.200657 0.00344542 0)
(0.200331 0.00336879 0)
(0.199991 0.00329519 0)
(0.199637 0.00322439 0)
(0.199268 0.00315617 0)
(0.198886 0.00309036 0)
(0.19849 0.0030268 0)
(0.198081 0.00296532 0)
(0.197659 0.0029058 0)
(0.197225 0.00284812 0)
(0.196777 0.00279217 0)
(0.196318 0.00273785 0)
(0.195846 0.00268506 0)
(0.195363 0.00263373 0)
(0.194868 0.00258379 0)
(0.194362 0.00253516 0)
(0.193846 0.00248778 0)
(0.193318 0.00244159 0)
(0.192781 0.00239655 0)
(0.192234 0.0023526 0)
(0.191677 0.00230969 0)
(0.191111 0.00226779 0)
(0.190536 0.00222686 0)
(0.189953 0.00218686 0)
(0.189361 0.00214776 0)
(0.188761 0.00210952 0)
(0.188153 0.00207212 0)
(0.187539 0.00203553 0)
(0.186917 0.00199973 0)
(0.186288 0.00196468 0)
(0.185653 0.00193038 0)
(0.185011 0.00189679 0)
(0.184364 0.0018639 0)
(0.183711 0.00183169 0)
(0.183053 0.00180013 0)
(0.18239 0.00176923 0)
(0.181722 0.00173894 0)
(0.181049 0.00170928 0)
(0.180372 0.00168021 0)
(0.179692 0.00165173 0)
(0.179007 0.00162382 0)
(0.178319 0.00159647 0)
(0.177628 0.00156967 0)
(0.176934 0.00154342 0)
(0.176236 0.0015177 0)
(0.175536 0.0014925 0)
(0.174834 0.00146781 0)
(0.17413 0.00144364 0)
(0.173423 0.00141997 0)
(0.172715 0.0013968 0)
(0.172005 0.00137413 0)
(0.171293 0.00135195 0)
(0.170581 0.00133027 0)
(0.169866 0.00130908 0)
(0.169151 0.0012884 0)
(0.168435 0.00126823 0)
(0.167718 0.00124858 0)
(0.167 0.00122948 0)
(0.166281 0.00121097 0)
(0.165562 0.00119312 0)
(0.164842 0.00117605 0)
(0.164122 0.00116001 0)
(0.163401 0.00114551 0)
(0.16268 0.00113372 0)
(0.161962 0.00112719 0)
(0.161262 0.0011299 0)
(0.160432 0.001129 0)
(0.196863 0.00649304 0)
(0.197412 0.00712671 0)
(0.198062 0.0076119 0)
(0.198758 0.00794638 0)
(0.199462 0.00814612 0)
(0.200148 0.00822732 0)
(0.200798 0.00820462 0)
(0.201397 0.00809417 0)
(0.201933 0.00791387 0)
(0.202401 0.00768183 0)
(0.202799 0.00741502 0)
(0.203129 0.00712856 0)
(0.203394 0.00683521 0)
(0.203602 0.00654501 0)
(0.203759 0.00626531 0)
(0.203873 0.00600091 0)
(0.203951 0.00575447 0)
(0.204 0.00552696 0)
(0.204023 0.00531817 0)
(0.204027 0.0051271 0)
(0.204014 0.00495228 0)
(0.203986 0.00479207 0)
(0.203946 0.00464482 0)
(0.203894 0.00450895 0)
(0.203832 0.00438306 0)
(0.203759 0.0042659 0)
(0.203676 0.00415641 0)
(0.203583 0.00405366 0)
(0.203481 0.00395689 0)
(0.203369 0.00386545 0)
(0.203247 0.00377878 0)
(0.203115 0.00369641 0)
(0.202973 0.00361794 0)
(0.202821 0.003543 0)
(0.202658 0.00347129 0)
(0.202486 0.00340255 0)
(0.202303 0.00333652 0)
(0.202109 0.00327301 0)
(0.201906 0.00321181 0)
(0.201692 0.00315276 0)
(0.201467 0.0030957 0)
(0.201232 0.0030405 0)
(0.200986 0.00298703 0)
(0.20073 0.00293517 0)
(0.200463 0.00288483 0)
(0.200186 0.0028359 0)
(0.199899 0.00278832 0)
(0.199601 0.00274199 0)
(0.199293 0.00269684 0)
(0.198975 0.00265282 0)
(0.198646 0.00260987 0)
(0.198308 0.00256792 0)
(0.19796 0.00252693 0)
(0.197602 0.00248686 0)
(0.197234 0.00244766 0)
(0.196857 0.00240929 0)
(0.19647 0.00237172 0)
(0.196074 0.00233492 0)
(0.195669 0.00229886 0)
(0.195255 0.0022635 0)
(0.194833 0.00222882 0)
(0.194401 0.00219481 0)
(0.193961 0.00216143 0)
(0.193513 0.00212866 0)
(0.193057 0.00209649 0)
(0.192593 0.0020649 0)
(0.192121 0.00203387 0)
(0.191641 0.00200339 0)
(0.191154 0.00197344 0)
(0.19066 0.00194401 0)
(0.190159 0.00191509 0)
(0.189651 0.00188666 0)
(0.189136 0.00185872 0)
(0.188615 0.00183126 0)
(0.188088 0.00180426 0)
(0.187554 0.00177773 0)
(0.187015 0.00175164 0)
(0.18647 0.00172601 0)
(0.185919 0.00170082 0)
(0.185363 0.00167607 0)
(0.184802 0.00165175 0)
(0.184236 0.00162787 0)
(0.183665 0.00160442 0)
(0.183089 0.0015814 0)
(0.182508 0.00155882 0)
(0.181924 0.00153667 0)
(0.181335 0.00151497 0)
(0.180741 0.00149373 0)
(0.180144 0.00147295 0)
(0.179543 0.00145266 0)
(0.178939 0.00143289 0)
(0.17833 0.00141368 0)
(0.177718 0.0013951 0)
(0.177103 0.00137728 0)
(0.176484 0.00136045 0)
(0.175862 0.00134506 0)
(0.175238 0.00133197 0)
(0.174616 0.00132254 0)
(0.174008 0.00131681 0)
(0.173285 0.00129454 0)
(0.197227 0.00624185 0)
(0.19771 0.00680538 0)
(0.198281 0.0072515 0)
(0.198901 0.00757163 0)
(0.199537 0.00777358 0)
(0.200163 0.00786903 0)
(0.200763 0.00787007 0)
(0.201322 0.00779023 0)
(0.201828 0.00764469 0)
(0.202277 0.0074491 0)
(0.202666 0.00721844 0)
(0.202995 0.00696626 0)
(0.203268 0.00670416 0)
(0.20349 0.00644154 0)
(0.203667 0.00618547 0)
(0.203806 0.00594085 0)
(0.203912 0.00571066 0)
(0.203992 0.00549634 0)
(0.204051 0.00529819 0)
(0.204092 0.00511571 0)
(0.204118 0.00494792 0)
(0.204133 0.00479356 0)
(0.204139 0.0046513 0)
(0.204136 0.00451982 0)
(0.204125 0.00439791 0)
(0.204108 0.00428445 0)
(0.204084 0.00417847 0)
(0.204054 0.00407914 0)
(0.204018 0.00398573 0)
(0.203976 0.00389762 0)
(0.203928 0.00381427 0)
(0.203875 0.00373521 0)
(0.203815 0.00366006 0)
(0.203749 0.00358846 0)
(0.203676 0.0035201 0)
(0.203598 0.00345471 0)
(0.203512 0.00339205 0)
(0.203421 0.00333191 0)
(0.203322 0.00327409 0)
(0.203216 0.00321842 0)
(0.203104 0.00316474 0)
(0.202984 0.0031129 0)
(0.202857 0.00306278 0)
(0.202723 0.00301426 0)
(0.202581 0.00296723 0)
(0.202432 0.00292159 0)
(0.202275 0.00287726 0)
(0.202111 0.00283416 0)
(0.201938 0.0027922 0)
(0.201758 0.00275132 0)
(0.20157 0.00271146 0)
(0.201374 0.00267256 0)
(0.20117 0.00263456 0)
(0.200958 0.00259742 0)
(0.200738 0.0025611 0)
(0.200509 0.00252555 0)
(0.200273 0.00249073 0)
(0.200029 0.00245661 0)
(0.199776 0.00242316 0)
(0.199516 0.00239035 0)
(0.199247 0.00235814 0)
(0.198971 0.00232652 0)
(0.198686 0.00229546 0)
(0.198394 0.00226493 0)
(0.198093 0.00223493 0)
(0.197785 0.00220542 0)
(0.197469 0.0021764 0)
(0.197145 0.00214785 0)
(0.196814 0.00211974 0)
(0.196475 0.00209208 0)
(0.196128 0.00206485 0)
(0.195774 0.00203804 0)
(0.195413 0.00201163 0)
(0.195044 0.00198562 0)
(0.194669 0.00196 0)
(0.194286 0.00193477 0)
(0.193896 0.00190992 0)
(0.193499 0.00188543 0)
(0.193096 0.00186132 0)
(0.192686 0.00183758 0)
(0.192269 0.0018142 0)
(0.191846 0.00179119 0)
(0.191416 0.00176854 0)
(0.190981 0.00174626 0)
(0.190539 0.00172436 0)
(0.19009 0.00170283 0)
(0.189636 0.00168169 0)
(0.189177 0.00166095 0)
(0.188711 0.00164063 0)
(0.188239 0.00162075 0)
(0.187762 0.00160133 0)
(0.18728 0.00158244 0)
(0.186792 0.00156414 0)
(0.186299 0.00154654 0)
(0.1858 0.00152986 0)
(0.185297 0.00151441 0)
(0.18479 0.0015007 0)
(0.184283 0.00148897 0)
(0.183787 0.00147639 0)
(0.183188 0.00143963 0)
(0.197551 0.00601397 0)
(0.197981 0.00651654 0)
(0.198486 0.00692511 0)
(0.19904 0.00722853 0)
(0.199615 0.00742912 0)
(0.200187 0.00753467 0)
(0.200739 0.0075548 0)
(0.201258 0.00750072 0)
(0.201735 0.00738519 0)
(0.202162 0.00722166 0)
(0.202536 0.00702324 0)
(0.202859 0.00680198 0)
(0.203132 0.0065684 0)
(0.203358 0.0063312 0)
(0.203544 0.00609714 0)
(0.203694 0.00587109 0)
(0.203814 0.00565626 0)
(0.203909 0.00545443 0)
(0.203984 0.00526632 0)
(0.204043 0.00509188 0)
(0.204088 0.00493052 0)
(0.204123 0.00478136 0)
(0.204149 0.00464335 0)
(0.204167 0.00451544 0)
(0.20418 0.00439658 0)
(0.204187 0.00428582 0)
(0.20419 0.0041823 0)
(0.204188 0.00408525 0)
(0.204182 0.00399401 0)
(0.204173 0.003908 0)
(0.20416 0.00382671 0)
(0.204143 0.00374969 0)
(0.204122 0.00367657 0)
(0.204098 0.00360701 0)
(0.20407 0.0035407 0)
(0.204039 0.00347738 0)
(0.204003 0.00341682 0)
(0.203964 0.0033588 0)
(0.203921 0.00330313 0)
(0.203873 0.00324963 0)
(0.203822 0.00319815 0)
(0.203766 0.00314854 0)
(0.203706 0.00310067 0)
(0.203641 0.00305443 0)
(0.203571 0.0030097 0)
(0.203497 0.00296639 0)
(0.203418 0.0029244 0)
(0.203334 0.00288364 0)
(0.203244 0.00284405 0)
(0.203149 0.00280555 0)
(0.203049 0.00276807 0)
(0.202944 0.00273156 0)
(0.202833 0.00269595 0)
(0.202716 0.0026612 0)
(0.202594 0.00262725 0)
(0.202466 0.00259407 0)
(0.202331 0.00256162 0)
(0.202191 0.00252985 0)
(0.202045 0.00249872 0)
(0.201892 0.00246822 0)
(0.201733 0.0024383 0)
(0.201568 0.00240895 0)
(0.201397 0.00238012 0)
(0.201219 0.00235181 0)
(0.201035 0.00232398 0)
(0.200844 0.00229662 0)
(0.200646 0.00226971 0)
(0.200443 0.00224323 0)
(0.200232 0.00221716 0)
(0.200015 0.00219149 0)
(0.199791 0.00216621 0)
(0.199561 0.00214131 0)
(0.199324 0.00211677 0)
(0.199081 0.00209258 0)
(0.19883 0.00206874 0)
(0.198573 0.00204524 0)
(0.19831 0.00202207 0)
(0.19804 0.00199923 0)
(0.197763 0.0019767 0)
(0.19748 0.0019545 0)
(0.19719 0.00193261 0)
(0.196894 0.00191105 0)
(0.196591 0.0018898 0)
(0.196281 0.00186887 0)
(0.195966 0.00184827 0)
(0.195643 0.00182801 0)
(0.195315 0.00180808 0)
(0.19498 0.00178852 0)
(0.194639 0.00176933 0)
(0.194291 0.00175053 0)
(0.193937 0.00173217 0)
(0.193577 0.00171429 0)
(0.193211 0.00169695 0)
(0.192838 0.00168026 0)
(0.19246 0.00166437 0)
(0.192076 0.00164948 0)
(0.191688 0.00163573 0)
(0.191299 0.00162246 0)
(0.190916 0.00160519 0)
(0.190443 0.00156102 0)
(0.197842 0.00580508 0)
(0.198228 0.00625484 0)
(0.198679 0.00662832 0)
(0.199175 0.00691391 0)
(0.199695 0.00711048 0)
(0.200217 0.00722275 0)
(0.200725 0.00725806 0)
(0.201207 0.00722558 0)
(0.201654 0.00713595 0)
(0.202059 0.00700064 0)
(0.202418 0.00683105 0)
(0.202732 0.00663782 0)
(0.203 0.00643044 0)
(0.203228 0.00621691 0)
(0.203417 0.00600362 0)
(0.203574 0.00579533 0)
(0.203702 0.00559536 0)
(0.203807 0.00540577 0)
(0.203891 0.0052276 0)
(0.20396 0.00506115 0)
(0.204016 0.00490619 0)
(0.204061 0.00476216 0)
(0.204097 0.0046283 0)
(0.204126 0.00450377 0)
(0.20415 0.00438771 0)
(0.204169 0.00427932 0)
(0.204183 0.00417785 0)
(0.204194 0.00408261 0)
(0.204202 0.00399301 0)
(0.204207 0.0039085 0)
(0.204209 0.00382862 0)
(0.204209 0.00375296 0)
(0.204206 0.00368115 0)
(0.204201 0.00361286 0)
(0.204194 0.00354782 0)
(0.204184 0.00348576 0)
(0.204172 0.00342646 0)
(0.204157 0.00336971 0)
(0.204141 0.00331532 0)
(0.204122 0.00326312 0)
(0.2041 0.00321296 0)
(0.204076 0.0031647 0)
(0.20405 0.0031182 0)
(0.204021 0.00307335 0)
(0.203989 0.00303005 0)
(0.203954 0.00298819 0)
(0.203917 0.00294768 0)
(0.203876 0.00290843 0)
(0.203832 0.00287038 0)
(0.203786 0.00283344 0)
(0.203736 0.00279755 0)
(0.203682 0.00276265 0)
(0.203625 0.00272868 0)
(0.203565 0.00269558 0)
(0.2035 0.00266332 0)
(0.203432 0.00263184 0)
(0.203361 0.0026011 0)
(0.203285 0.00257105 0)
(0.203205 0.00254168 0)
(0.203121 0.00251293 0)
(0.203032 0.00248478 0)
(0.202939 0.00245719 0)
(0.202842 0.00243015 0)
(0.20274 0.00240361 0)
(0.202634 0.00237757 0)
(0.202523 0.002352 0)
(0.202407 0.00232687 0)
(0.202286 0.00230217 0)
(0.20216 0.00227788 0)
(0.202029 0.00225398 0)
(0.201893 0.00223046 0)
(0.201752 0.0022073 0)
(0.201606 0.0021845 0)
(0.201455 0.00216204 0)
(0.201298 0.00213991 0)
(0.201135 0.0021181 0)
(0.200968 0.00209661 0)
(0.200794 0.00207542 0)
(0.200615 0.00205454 0)
(0.200431 0.00203395 0)
(0.200241 0.00201366 0)
(0.200045 0.00199367 0)
(0.199844 0.00197398 0)
(0.199637 0.00195458 0)
(0.199424 0.00193549 0)
(0.199205 0.00191671 0)
(0.198981 0.00189824 0)
(0.19875 0.00188011 0)
(0.198514 0.00186234 0)
(0.198272 0.00184493 0)
(0.198024 0.00182793 0)
(0.19777 0.00181139 0)
(0.19751 0.00179535 0)
(0.197244 0.0017799 0)
(0.196972 0.00176514 0)
(0.196695 0.00175114 0)
(0.196414 0.00173775 0)
(0.19613 0.00172371 0)
(0.195849 0.00170394 0)
(0.195492 0.00165844 0)