/*--------------------------------*- C++ -*----------------------------------*\
| =========                 |                                                 |
| \\      /  F ield         | OpenFOAM: The Open Source CFD Toolbox           |
|  \\    /   O peration     | Version:  2.3.0                                 |
|   \\  /    A nd           | Web:      www.OpenFOAM.org                      |
|    \\/     M anipulation  |                                                 |
\*---------------------------------------------------------------------------*/
FoamFile
{
    version     2.0;
    format      ascii;
    class       surfaceScalarField;
    location    "0.7";
    object      phi;
}
// * * * * * * * * * * * * * * * * * * * * * * * * * * * * * * * * * * * * * //

dimensions      [0 3 -1 0 0 0 0];

internalField   nonuniform List<scalar> 
5644
(
2.94405e-08
2.71167e-09
-3.21521e-08
2.60243e-08
3.41618e-09
2.26081e-08
3.4162e-09
1.94377e-08
3.17039e-09
1.65455e-08
2.89214e-09
1.39978e-08
2.54772e-09
1.18823e-08
2.11556e-09
1.02221e-08
1.66018e-09
8.99015e-09
1.23194e-09
8.11097e-09
8.79181e-10
7.49196e-09
6.19006e-10
7.05032e-09
4.41645e-10
6.72277e-09
3.27551e-10
6.46512e-09
2.5765e-10
6.24761e-09
2.17505e-10
6.0524e-09
1.9521e-10
5.87045e-09
1.81952e-10
5.69809e-09
1.72365e-10
5.53432e-09
1.63767e-10
5.37917e-09
1.55147e-10
5.23284e-09
1.46334e-10
5.09533e-09
1.3751e-10
4.9664e-09
1.28929e-10
4.8456e-09
1.20804e-10
4.73233e-09
1.13263e-10
4.62597e-09
1.06366e-10
4.52586e-09
1.00106e-10
4.43142e-09
9.4444e-11
4.3421e-09
8.93216e-11
4.25742e-09
8.46757e-11
4.17697e-09
8.04459e-11
4.1004e-09
7.65776e-11
4.02737e-09
7.30226e-11
3.95763e-09
6.97419e-11
3.89093e-09
6.66997e-11
3.82706e-09
6.38707e-11
3.76583e-09
6.12292e-11
3.70707e-09
5.87582e-11
3.65063e-09
5.64403e-11
3.59637e-09
5.4262e-11
3.54416e-09
5.22126e-11
3.49388e-09
5.02798e-11
3.44542e-09
4.84573e-11
3.39869e-09
4.67338e-11
3.35358e-09
4.51051e-11
3.31002e-09
4.35617e-11
3.26792e-09
4.20998e-11
3.22721e-09
4.07123e-11
3.18781e-09
3.93949e-11
3.14967e-09
3.81424e-11
3.11272e-09
3.69507e-11
3.07691e-09
3.58159e-11
3.04217e-09
3.47336e-11
3.00847e-09
3.37019e-11
2.97576e-09
3.27148e-11
2.94398e-09
3.17741e-11
2.91311e-09
3.087e-11
2.8831e-09
3.001e-11
2.85392e-09
2.91784e-11
2.82553e-09
2.83904e-11
2.79791e-09
2.76219e-11
2.77101e-09
2.68987e-11
2.74483e-09
2.61849e-11
2.71931e-09
2.55207e-11
2.69445e-09
2.48538e-11
2.67021e-09
2.42439e-11
2.64659e-09
2.36168e-11
2.62353e-09
2.30578e-11
2.60107e-09
2.24637e-11
2.57912e-09
2.19531e-11
2.55773e-09
2.13854e-11
2.53681e-09
2.09221e-11
2.51643e-09
2.03743e-11
2.49648e-09
1.99582e-11
2.47705e-09
1.94238e-11
2.458e-09
1.90563e-11
2.43947e-09
1.85284e-11
2.42126e-09
1.82123e-11
2.40357e-09
1.76837e-11
2.38615e-09
1.74241e-11
2.36926e-09
1.68861e-11
2.35257e-09
1.66905e-11
2.33644e-09
1.61342e-11
2.32043e-09
1.60113e-11
2.305e-09
1.5428e-11
2.28961e-09
1.53895e-11
2.27484e-09
1.47677e-11
2.26001e-09
1.48314e-11
2.24585e-09
1.41562e-11
2.23151e-09
1.43459e-11
2.21791e-09
1.3601e-11
2.20396e-09
1.39464e-11
2.19085e-09
1.31129e-11
2.17719e-09
1.36563e-11
2.16448e-09
1.27077e-11
2.15097e-09
1.35122e-11
2.13856e-09
1.24092e-11
2.12499e-09
1.35747e-11
2.11272e-09
1.22705e-11
1.53244e-11
3.47397e-08
2.41318e-09
-3.44412e-08
3.46017e-08
3.55424e-09
3.39404e-08
4.07745e-09
3.29875e-08
4.12331e-09
3.18634e-08
4.01626e-09
3.05989e-08
3.81222e-09
2.92208e-08
3.49363e-09
2.77988e-08
3.08223e-09
2.64034e-08
2.62727e-09
2.50876e-08
2.19503e-09
2.38763e-08
1.83023e-09
2.27741e-08
1.54389e-09
2.17765e-08
1.32519e-09
2.08793e-08
1.15481e-09
2.00727e-08
1.02416e-09
1.93452e-08
9.22708e-10
1.86859e-08
8.41215e-10
1.80852e-08
7.73086e-10
1.75348e-08
7.14152e-10
1.7028e-08
6.61975e-10
1.65591e-08
6.15153e-10
1.61238e-08
5.72892e-10
1.5718e-08
5.34678e-10
1.53387e-08
5.0014e-10
1.4983e-08
4.68952e-10
1.46485e-08
4.40803e-10
1.43333e-08
4.15379e-10
1.40353e-08
3.9237e-10
1.37532e-08
3.71492e-10
1.34854e-08
3.52477e-10
1.32307e-08
3.35097e-10
1.29882e-08
3.19146e-10
1.27567e-08
3.0445e-10
1.25356e-08
2.90861e-10
1.23241e-08
2.7825e-10
1.21214e-08
2.66513e-10
1.19271e-08
2.55559e-10
1.17405e-08
2.45309e-10
1.15613e-08
2.35701e-10
1.13889e-08
2.26673e-10
1.12229e-08
2.18183e-10
1.1063e-08
2.10177e-10
1.09088e-08
2.02629e-10
1.07601e-08
1.95489e-10
1.06164e-08
1.88742e-10
1.04776e-08
1.82344e-10
1.03435e-08
1.76286e-10
1.02136e-08
1.70527e-10
1.0088e-08
1.65063e-10
9.96627e-09
1.59857e-10
9.84831e-09
1.54909e-10
9.73394e-09
1.50184e-10
9.62299e-09
1.45686e-10
9.51531e-09
1.41381e-10
9.41074e-09
1.37276e-10
9.30918e-09
1.33341e-10
9.21047e-09
1.2958e-10
9.11451e-09
1.25971e-10
9.02117e-09
1.22513e-10
8.93037e-09
1.19193e-10
8.84199e-09
1.16e-10
8.75595e-09
1.12938e-10
8.67216e-09
1.09979e-10
8.59053e-09
1.07147e-10
8.51099e-09
1.04393e-10
8.43347e-09
1.01769e-10
8.35789e-09
9.91934e-11
8.28419e-09
9.67595e-11
8.21231e-09
9.43385e-11
8.14219e-09
9.20788e-11
8.07378e-09
8.97912e-11
8.00701e-09
8.76935e-11
7.94187e-09
8.5519e-11
7.87825e-09
8.35749e-11
7.81618e-09
8.14946e-11
7.75554e-09
7.9699e-11
7.69637e-09
7.7695e-11
7.63854e-09
7.6046e-11
7.58212e-09
7.41012e-11
7.52694e-09
7.26023e-11
7.47313e-09
7.06984e-11
7.42046e-09
6.93583e-11
7.36912e-09
6.74787e-11
7.31882e-09
6.63086e-11
7.26981e-09
6.44402e-11
7.22174e-09
6.34569e-11
7.17492e-09
6.15846e-11
7.12894e-09
6.08175e-11
7.08417e-09
5.89239e-11
7.0401e-09
5.84131e-11
6.99722e-09
5.64856e-11
6.95488e-09
5.62807e-11
6.91368e-09
5.43143e-11
6.87285e-09
5.44835e-11
6.83308e-09
5.24815e-11
6.79347e-09
5.31183e-11
6.75478e-09
5.11071e-11
6.71598e-09
5.23662e-11
6.67771e-09
5.05441e-11
5.47684e-11
3.62808e-08
2.27647e-09
-3.61441e-08
3.66774e-08
3.15765e-09
3.69259e-08
3.82893e-09
3.69847e-08
4.06453e-09
3.69222e-08
4.0787e-09
3.67426e-08
3.99189e-09
3.64199e-08
3.81626e-09
3.59562e-08
3.54602e-09
3.53776e-08
3.20578e-09
3.4724e-08
2.84868e-09
3.40304e-08
2.52377e-09
3.33202e-08
2.25409e-09
3.26075e-08
2.03795e-09
3.18994e-08
1.86293e-09
3.1203e-08
1.72058e-09
3.05226e-08
1.60306e-09
2.98606e-08
1.50322e-09
2.92181e-08
1.41557e-09
2.85958e-08
1.33647e-09
2.7994e-08
1.26375e-09
2.7413e-08
1.19618e-09
2.68527e-08
1.13313e-09
2.63132e-08
1.07423e-09
2.57941e-08
1.01925e-09
2.5295e-08
9.68026e-10
2.48154e-08
9.20361e-10
2.43548e-08
8.76049e-10
2.39123e-08
8.34852e-10
2.34872e-08
7.96542e-10
2.30788e-08
7.60872e-10
2.26863e-08
7.27631e-10
2.23089e-08
6.96598e-10
2.19457e-08
6.6759e-10
2.15962e-08
6.40422e-10
2.12595e-08
6.14944e-10
2.0935e-08
5.91005e-10
2.0622e-08
5.68489e-10
2.03201e-08
5.47267e-10
2.00285e-08
5.27257e-10
1.97469e-08
5.0834e-10
1.94746e-08
4.90467e-10
1.92112e-08
4.73523e-10
1.89564e-08
4.57484e-10
1.87096e-08
4.42241e-10
1.84706e-08
4.27787e-10
1.82389e-08
4.14017e-10
1.80143e-08
4.00941e-10
1.77963e-08
3.88454e-10
1.75848e-08
3.7658e-10
1.73795e-08
3.65215e-10
1.718e-08
3.54397e-10
1.69861e-08
3.44016e-10
1.67977e-08
3.34127e-10
1.66145e-08
3.24613e-10
1.64362e-08
3.15545e-10
1.62627e-08
3.06798e-10
1.60939e-08
2.98456e-10
1.59294e-08
2.9039e-10
1.57693e-08
2.82691e-10
1.56132e-08
2.7523e-10
1.54611e-08
2.68103e-10
1.53129e-08
2.61181e-10
1.51683e-08
2.54563e-10
1.50273e-08
2.48123e-10
1.48898e-08
2.41957e-10
1.47556e-08
2.3595e-10
1.46246e-08
2.30185e-10
1.44968e-08
2.24566e-10
1.4372e-08
2.19157e-10
1.42502e-08
2.13889e-10
1.41311e-08
2.08796e-10
1.4015e-08
2.03847e-10
1.39015e-08
1.99033e-10
1.37907e-08
1.94375e-10
1.36824e-08
1.8981e-10
1.35766e-08
1.85421e-10
1.34733e-08
1.81075e-10
1.33724e-08
1.76938e-10
1.32737e-08
1.72787e-10
1.31774e-08
1.68892e-10
1.30832e-08
1.64914e-10
1.29913e-08
1.61257e-10
1.29013e-08
1.57437e-10
1.28136e-08
1.54016e-10
1.27277e-08
1.50347e-10
1.2644e-08
1.47168e-10
1.25619e-08
1.43648e-10
1.2482e-08
1.40732e-10
1.24036e-08
1.37364e-10
1.23273e-08
1.34744e-10
1.22522e-08
1.3155e-10
1.21792e-08
1.29267e-10
1.21072e-08
1.26296e-10
1.20373e-08
1.24414e-10
1.1968e-08
1.21745e-10
1.19008e-08
1.2037e-10
1.18338e-08
1.18124e-10
1.17686e-08
1.17567e-10
1.17031e-08
1.16032e-10
1.18936e-10
3.78361e-08
2.22099e-09
-3.77806e-08
3.81313e-08
2.86243e-09
3.84921e-08
3.46816e-09
3.87714e-08
3.78513e-09
3.8985e-08
3.86512e-09
3.91517e-08
3.8252e-09
3.9253e-08
3.71493e-09
3.92655e-08
3.53358e-09
3.91811e-08
3.29018e-09
3.90124e-08
3.01732e-09
3.87811e-08
2.75512e-09
3.85064e-08
2.52877e-09
3.82004e-08
2.344e-09
3.78689e-08
2.19438e-09
3.75178e-08
2.0717e-09
3.71516e-08
1.9692e-09
3.67736e-08
1.88126e-09
3.63857e-08
1.80343e-09
3.59897e-08
1.7325e-09
3.5587e-08
1.66645e-09
3.51791e-08
1.60407e-09
3.47675e-08
1.54473e-09
3.43536e-08
1.48812e-09
3.39388e-08
1.43406e-09
3.35244e-08
1.38248e-09
3.31114e-08
1.33331e-09
3.2701e-08
1.28645e-09
3.22941e-08
1.2418e-09
3.18914e-08
1.19926e-09
3.14936e-08
1.15868e-09
3.11012e-08
1.11998e-09
3.07148e-08
1.08301e-09
3.03347e-08
1.0477e-09
2.99612e-08
1.01392e-09
2.95945e-08
9.81616e-10
2.92349e-08
9.50669e-10
2.88823e-08
9.21047e-10
2.85369e-08
8.92635e-10
2.81988e-08
8.65428e-10
2.78678e-08
8.393e-10
2.7544e-08
8.14278e-10
2.72273e-08
7.90219e-10
2.69176e-08
7.67182e-10
2.66148e-08
7.45003e-10
2.63188e-08
7.23766e-10
2.60296e-08
7.03295e-10
2.57468e-08
6.83695e-10
2.54705e-08
6.64775e-10
2.52004e-08
6.46663e-10
2.49365e-08
6.29147e-10
2.46785e-08
6.12389e-10
2.44264e-08
5.96146e-10
2.41799e-08
5.80617e-10
2.3939e-08
5.65526e-10
2.37034e-08
5.51111e-10
2.34731e-08
5.37063e-10
2.32479e-08
5.23661e-10
2.30278e-08
5.10556e-10
2.28124e-08
4.98071e-10
2.26018e-08
4.85818e-10
2.23957e-08
4.74167e-10
2.21942e-08
4.62682e-10
2.1997e-08
4.51787e-10
2.18041e-08
4.40994e-10
2.16153e-08
4.30784e-10
2.14306e-08
4.20615e-10
2.12498e-08
4.11028e-10
2.10729e-08
4.01419e-10
2.08997e-08
3.92396e-10
2.07303e-08
3.83289e-10
2.05643e-08
3.74782e-10
2.0402e-08
3.66124e-10
2.0243e-08
3.58088e-10
2.00875e-08
3.49831e-10
1.99351e-08
3.42228e-10
1.97862e-08
3.34329e-10
1.96401e-08
3.27129e-10
1.94975e-08
3.19549e-10
1.93576e-08
3.1273e-10
1.9221e-08
3.05437e-10
1.9087e-08
2.9898e-10
1.89563e-08
2.9195e-10
1.88279e-08
2.85851e-10
1.87028e-08
2.79058e-10
1.85798e-08
2.73331e-10
1.84603e-08
2.66757e-10
1.83425e-08
2.61425e-10
1.82281e-08
2.55072e-10
1.81153e-08
2.50169e-10
1.8006e-08
2.44053e-10
1.78979e-08
2.39646e-10
1.77934e-08
2.33799e-10
1.76897e-08
2.29992e-10
1.75896e-08
2.24487e-10
1.749e-08
2.21412e-10
1.73939e-08
2.1643e-10
1.72978e-08
2.14228e-10
1.7205e-08
2.10346e-10
1.71117e-08
2.09304e-10
2.08958e-10
3.94308e-08
2.16254e-09
-3.93724e-08
3.9636e-08
2.65728e-09
3.99529e-08
3.1512e-09
4.0253e-08
3.48502e-09
4.05041e-08
3.61403e-09
4.07232e-08
3.60611e-09
4.09135e-08
3.52466e-09
4.10586e-08
3.38844e-09
4.11439e-08
3.20492e-09
4.11684e-08
2.99276e-09
4.1144e-08
2.77952e-09
4.10847e-08
2.58809e-09
4.09999e-08
2.42885e-09
4.08943e-08
2.29996e-09
4.07712e-08
2.19483e-09
4.0633e-08
2.10733e-09
4.04816e-08
2.03271e-09
4.03177e-08
1.96732e-09
4.01418e-08
1.90839e-09
3.99542e-08
1.85402e-09
3.97553e-08
1.80297e-09
3.95456e-08
1.75449e-09
3.93255e-08
1.70816e-09
3.90959e-08
1.66372e-09
3.88573e-08
1.62103e-09
3.86107e-08
1.57996e-09
3.83567e-08
1.54046e-09
3.80961e-08
1.50237e-09
3.78297e-08
1.46566e-09
3.75582e-08
1.43016e-09
3.72823e-08
1.39585e-09
3.70028e-08
1.36257e-09
3.67201e-08
1.33034e-09
3.6435e-08
1.29901e-09
3.61481e-08
1.2686e-09
3.58598e-08
1.23897e-09
3.55706e-08
1.2102e-09
3.52811e-08
1.18212e-09
3.49917e-08
1.15485e-09
3.47028e-08
1.12821e-09
3.44147e-08
1.10235e-09
3.41279e-08
1.07706e-09
3.38425e-08
1.05254e-09
3.3559e-08
1.02853e-09
3.32775e-08
1.00528e-09
3.29983e-08
9.82498e-10
3.27215e-08
9.60466e-10
3.24474e-08
9.38843e-10
3.21761e-08
9.17973e-10
3.19078e-08
8.97454e-10
3.16425e-08
8.77694e-10
3.13804e-08
8.58221e-10
3.11215e-08
8.39518e-10
3.0866e-08
8.2103e-10
3.06138e-08
8.03329e-10
3.03651e-08
7.85768e-10
3.01197e-08
7.69014e-10
2.9878e-08
7.52319e-10
2.96396e-08
7.36461e-10
2.94048e-08
7.2057e-10
2.91735e-08
7.05556e-10
2.89457e-08
6.90407e-10
2.87213e-08
6.76186e-10
2.85006e-08
6.6172e-10
2.82831e-08
6.48243e-10
2.80694e-08
6.34398e-10
2.78588e-08
6.2162e-10
2.76519e-08
6.08336e-10
2.7448e-08
5.96216e-10
2.72479e-08
5.83433e-10
2.70507e-08
5.71935e-10
2.68573e-08
5.59594e-10
2.66667e-08
5.48687e-10
2.64798e-08
5.3673e-10
2.62956e-08
5.2639e-10
2.61152e-08
5.14761e-10
2.59373e-08
5.04971e-10
2.57633e-08
4.93616e-10
2.55916e-08
4.8437e-10
2.54238e-08
4.73238e-10
2.52583e-08
4.64537e-10
2.50966e-08
4.53586e-10
2.4937e-08
4.45447e-10
2.47815e-08
4.34631e-10
2.46277e-08
4.27094e-10
2.44781e-08
4.16376e-10
2.433e-08
4.09494e-10
2.41862e-08
3.98861e-10
2.40437e-08
3.92702e-10
2.39056e-08
3.82166e-10
2.37684e-08
3.76831e-10
2.36358e-08
3.66434e-10
2.35037e-08
3.62059e-10
2.33763e-08
3.51922e-10
2.3249e-08
3.48657e-10
2.31264e-08
3.39079e-10
2.30035e-08
3.37075e-10
2.2885e-08
3.28837e-10
2.27659e-08
3.28451e-10
3.23506e-10
4.10522e-08
2.09186e-09
-4.09815e-08
4.12125e-08
2.49694e-09
4.14708e-08
2.89298e-09
4.17486e-08
3.2072e-09
4.1996e-08
3.36665e-09
4.22104e-08
3.39173e-09
4.24007e-08
3.33429e-09
4.25624e-08
3.22681e-09
4.26847e-08
3.08255e-09
4.27638e-08
2.9137e-09
4.28054e-08
2.73797e-09
4.28198e-08
2.57366e-09
4.2816e-08
2.43262e-09
4.27991e-08
2.31683e-09
4.27718e-08
2.22213e-09
4.27358e-08
2.14334e-09
4.26922e-08
2.07635e-09
4.26414e-08
2.01807e-09
4.25836e-08
1.96621e-09
4.25185e-08
1.91909e-09
4.2446e-08
1.87555e-09
4.23657e-08
1.83477e-09
4.22776e-08
1.79627e-09
4.21816e-08
1.75969e-09
4.20778e-08
1.72484e-09
4.19663e-08
1.69149e-09
4.18472e-08
1.65957e-09
4.17207e-08
1.62886e-09
4.1587e-08
1.59934e-09
4.14464e-08
1.57076e-09
4.12991e-08
1.54316e-09
4.11454e-08
1.51629e-09
4.09855e-08
1.49022e-09
4.08198e-08
1.46471e-09
4.06485e-08
1.43987e-09
4.0472e-08
1.41546e-09
4.02906e-08
1.39163e-09
4.01046e-08
1.36813e-09
3.99142e-08
1.34518e-09
3.972e-08
1.32245e-09
3.95221e-08
1.30028e-09
3.93209e-08
1.27827e-09
3.91166e-08
1.25681e-09
3.89097e-08
1.23545e-09
3.87003e-08
1.21468e-09
3.84888e-08
1.19394e-09
3.82755e-08
1.17382e-09
3.80606e-08
1.15369e-09
3.78444e-08
1.13422e-09
3.76272e-08
1.11466e-09
3.74091e-08
1.09583e-09
3.71905e-08
1.07683e-09
3.69713e-08
1.05863e-09
3.67522e-08
1.04018e-09
3.65329e-08
1.0226e-09
3.6314e-08
1.00467e-09
3.60953e-08
9.87707e-10
3.58774e-08
9.70281e-10
3.56599e-08
9.5393e-10
3.54435e-08
9.36979e-10
3.52278e-08
9.21231e-10
3.50135e-08
9.04724e-10
3.48001e-08
8.8957e-10
3.45884e-08
8.73474e-10
3.43777e-08
8.58905e-10
3.41689e-08
8.43181e-10
3.39614e-08
8.29188e-10
3.37559e-08
8.13793e-10
3.35518e-08
8.00369e-10
3.33499e-08
7.85257e-10
3.31495e-08
7.72398e-10
3.29515e-08
7.57517e-10
3.2755e-08
7.45225e-10
3.25612e-08
7.30521e-10
3.23688e-08
7.188e-10
3.21793e-08
7.0422e-10
3.19912e-08
6.93083e-10
3.18063e-08
6.78568e-10
3.16226e-08
6.68037e-10
3.14423e-08
6.53534e-10
3.12632e-08
6.43637e-10
3.10877e-08
6.29099e-10
3.09133e-08
6.1988e-10
3.07426e-08
6.05257e-10
3.0573e-08
5.96785e-10
3.04073e-08
5.82036e-10
3.02424e-08
5.74393e-10
3.00817e-08
5.59511e-10
2.99217e-08
5.52788e-10
2.9766e-08
5.37805e-10
2.96107e-08
5.32123e-10
2.946e-08
5.17117e-10
2.93095e-08
5.12631e-10
2.91636e-08
4.97789e-10
2.90176e-08
4.94665e-10
2.88763e-08
4.80391e-10
2.87345e-08
4.78832e-10
2.85974e-08
4.66004e-10
2.84593e-08
4.66474e-10
4.56624e-10
4.27097e-08
2.01475e-09
-4.26326e-08
4.28478e-08
2.35888e-09
4.30575e-08
2.68325e-09
4.33027e-08
2.96202e-09
4.35365e-08
3.13284e-09
4.37415e-08
3.18667e-09
4.39206e-08
3.15519e-09
4.40751e-08
3.07236e-09
4.42001e-08
2.95753e-09
4.4292e-08
2.82186e-09
4.43528e-08
2.67715e-09
4.43897e-08
2.53674e-09
4.44108e-08
2.41152e-09
4.44218e-08
2.30587e-09
4.44256e-08
2.21824e-09
4.44242e-08
2.14482e-09
4.44184e-08
2.08211e-09
4.44091e-08
2.02741e-09
4.43964e-08
1.97888e-09
4.43804e-08
1.93508e-09
4.43609e-08
1.89504e-09
4.43377e-08
1.85798e-09
4.43105e-08
1.82343e-09
4.42793e-08
1.79096e-09
4.42437e-08
1.76039e-09
4.42038e-08
1.73141e-09
4.41594e-08
1.70399e-09
4.41104e-08
1.6778e-09
4.40569e-08
1.65291e-09
4.39987e-08
1.62897e-09
4.39357e-08
1.60609e-09
4.38681e-08
1.58391e-09
4.37957e-08
1.56261e-09
4.37186e-08
1.54179e-09
4.36368e-08
1.52171e-09
4.35503e-08
1.50194e-09
4.34591e-08
1.48282e-09
4.33634e-08
1.46385e-09
4.32631e-08
1.44548e-09
4.31584e-08
1.42714e-09
4.30493e-08
1.40939e-09
4.2936e-08
1.39154e-09
4.28185e-08
1.37431e-09
4.26971e-08
1.35687e-09
4.25717e-08
1.34008e-09
4.24427e-08
1.32299e-09
4.23099e-08
1.30659e-09
4.21738e-08
1.2898e-09
4.20342e-08
1.27377e-09
4.18917e-08
1.25722e-09
4.1746e-08
1.24154e-09
4.15976e-08
1.22521e-09
4.14464e-08
1.20987e-09
4.12928e-08
1.19373e-09
4.11367e-08
1.17872e-09
4.09786e-08
1.16275e-09
4.08182e-08
1.14808e-09
4.06563e-08
1.13225e-09
4.04923e-08
1.11791e-09
4.0327e-08
1.1022e-09
4.01601e-08
1.08821e-09
3.99922e-08
1.0726e-09
3.98228e-08
1.05896e-09
3.96529e-08
1.0434e-09
3.94817e-08
1.03013e-09
3.93102e-08
1.0146e-09
3.91377e-08
1.0017e-09
3.89653e-08
9.86168e-10
3.8792e-08
9.73665e-10
3.86192e-08
9.5808e-10
3.84456e-08
9.45991e-10
3.82728e-08
9.30308e-10
3.80994e-08
9.18659e-10
3.79271e-08
9.02829e-10
3.77543e-08
8.91648e-10
3.75829e-08
8.75621e-10
3.7411e-08
8.64944e-10
3.72409e-08
8.48665e-10
3.70704e-08
8.3854e-10
3.6902e-08
8.21961e-10
3.67332e-08
8.12434e-10
3.65667e-08
7.95518e-10
3.64e-08
7.86652e-10
3.62359e-08
7.69359e-10
3.60714e-08
7.61243e-10
3.59099e-08
7.43545e-10
3.5748e-08
7.36279e-10
3.55893e-08
7.18192e-10
3.54302e-08
7.11879e-10
3.52746e-08
6.93472e-10
3.51185e-08
6.88239e-10
3.49659e-08
6.69644e-10
3.48129e-08
6.65659e-10
3.46636e-08
6.47124e-10
3.45137e-08
6.44583e-10
3.43675e-08
6.26589e-10
3.42205e-08
6.25779e-10
3.40773e-08
6.0922e-10
3.39331e-08
6.1069e-10
5.96905e-10
4.441e-08
1.93681e-09
-4.43321e-08
4.45342e-08
2.23471e-09
4.47094e-08
2.50801e-09
4.49218e-08
2.74961e-09
4.51367e-08
2.91793e-09
4.53316e-08
2.9918e-09
4.55011e-08
2.98571e-09
4.56467e-08
2.92672e-09
4.57679e-08
2.83637e-09
4.58624e-08
2.72734e-09
4.59307e-08
2.60889e-09
4.5977e-08
2.49044e-09
4.60077e-08
2.3808e-09
4.60284e-08
2.28512e-09
4.60426e-08
2.20405e-09
4.60522e-08
2.13524e-09
4.60583e-08
2.07598e-09
4.60619e-08
2.02388e-09
4.60633e-08
1.97746e-09
4.60629e-08
1.93546e-09
4.60608e-08
1.89718e-09
4.60569e-08
1.86187e-09
4.60511e-08
1.82918e-09
4.60435e-08
1.79859e-09
4.60338e-08
1.77003e-09
4.60222e-08
1.74304e-09
4.60085e-08
1.71774e-09
4.59926e-08
1.69366e-09
4.59745e-08
1.67101e-09
4.59542e-08
1.6493e-09
4.59314e-08
1.62882e-09
4.59063e-08
1.60901e-09
4.58787e-08
1.59026e-09
4.58485e-08
1.57197e-09
4.58156e-08
1.5546e-09
4.57801e-08
1.53748e-09
4.57417e-08
1.52121e-09
4.57005e-08
1.50501e-09
4.56564e-08
1.48963e-09
4.56094e-08
1.47415e-09
4.55593e-08
1.4595e-09
4.55062e-08
1.44458e-09
4.545e-08
1.43052e-09
4.53908e-08
1.41604e-09
4.53284e-08
1.40248e-09
4.52631e-08
1.38834e-09
4.51945e-08
1.3752e-09
4.51229e-08
1.36133e-09
4.50481e-08
1.34855e-09
4.49705e-08
1.33486e-09
4.48896e-08
1.32241e-09
4.4806e-08
1.30884e-09
4.47192e-08
1.29669e-09
4.46297e-08
1.28319e-09
4.45371e-08
1.27131e-09
4.4442e-08
1.25783e-09
4.43439e-08
1.2462e-09
4.42435e-08
1.23268e-09
4.41401e-08
1.2213e-09
4.40346e-08
1.20771e-09
4.39262e-08
1.19657e-09
4.3816e-08
1.18285e-09
4.3703e-08
1.17196e-09
4.35883e-08
1.15806e-09
4.3471e-08
1.14742e-09
4.33523e-08
1.13331e-09
4.32311e-08
1.12293e-09
4.31087e-08
1.10854e-09
4.2984e-08
1.09844e-09
4.28583e-08
1.08373e-09
4.27304e-08
1.07392e-09
4.26018e-08
1.05884e-09
4.24712e-08
1.04935e-09
4.23401e-08
1.03384e-09
4.22071e-08
1.02471e-09
4.2074e-08
1.00871e-09
4.1939e-08
9.99974e-10
4.18042e-08
9.83439e-10
4.16676e-08
9.75144e-10
4.15315e-08
9.58026e-10
4.13937e-08
9.5022e-10
4.12568e-08
9.32496e-10
4.11182e-08
9.25236e-10
4.09806e-08
9.06882e-10
4.08416e-08
9.00261e-10
4.07039e-08
8.81264e-10
4.05648e-08
8.7538e-10
4.04272e-08
8.55787e-10
4.02884e-08
8.50736e-10
4.01512e-08
8.30657e-10
4.00128e-08
8.26561e-10
3.98763e-08
8.06176e-10
3.97388e-08
8.03211e-10
3.96031e-08
7.82816e-10
3.94664e-08
7.81215e-10
3.93317e-08
7.61338e-10
3.9196e-08
7.61464e-10
3.90622e-08
7.4298e-10
3.89275e-08
7.45434e-10
7.29664e-10
4.61574e-08
1.8609e-09
-4.60814e-08
4.62706e-08
2.12152e-09
4.64221e-08
2.35646e-09
4.66058e-08
2.56591e-09
4.67997e-08
2.72399e-09
4.69825e-08
2.80906e-09
4.71437e-08
2.82452e-09
4.72822e-08
2.78822e-09
4.73988e-08
2.71976e-09
4.74932e-08
2.63293e-09
4.75654e-08
2.53666e-09
4.76178e-08
2.43804e-09
4.76548e-08
2.34377e-09
4.76814e-08
2.2586e-09
4.77009e-08
2.18454e-09
4.77155e-08
2.12058e-09
4.77266e-08
2.06494e-09
4.77349e-08
2.01555e-09
4.77411e-08
1.97124e-09
4.77457e-08
1.93088e-09
4.77489e-08
1.89403e-09
4.77508e-08
1.85996e-09
4.77515e-08
1.82849e-09
4.7751e-08
1.79902e-09
4.77495e-08
1.77159e-09
4.77469e-08
1.74565e-09
4.77432e-08
1.72143e-09
4.77385e-08
1.69833e-09
4.77328e-08
1.67674e-09
4.77261e-08
1.656e-09
4.77183e-08
1.6366e-09
4.77095e-08
1.61779e-09
4.76996e-08
1.60019e-09
4.76886e-08
1.58295e-09
4.76764e-08
1.56683e-09
4.7663e-08
1.55085e-09
4.76483e-08
1.53594e-09
4.76323e-08
1.52097e-09
4.76149e-08
1.50708e-09
4.75961e-08
1.49293e-09
4.75757e-08
1.47989e-09
4.75539e-08
1.46641e-09
4.75303e-08
1.4541e-09
4.75052e-08
1.44115e-09
4.74782e-08
1.42947e-09
4.74496e-08
1.41694e-09
4.7419e-08
1.40581e-09
4.73867e-08
1.39361e-09
4.73523e-08
1.38298e-09
4.73162e-08
1.37101e-09
4.72778e-08
1.36082e-09
4.72376e-08
1.34902e-09
4.71951e-08
1.33921e-09
4.71507e-08
1.32752e-09
4.7104e-08
1.31806e-09
4.70554e-08
1.30638e-09
4.70044e-08
1.29726e-09
4.69515e-08
1.28553e-09
4.68961e-08
1.27672e-09
4.68389e-08
1.26488e-09
4.67791e-08
1.25635e-09
4.67177e-08
1.24433e-09
4.66535e-08
1.23608e-09
4.65878e-08
1.22381e-09
4.65194e-08
1.21583e-09
4.64494e-08
1.20325e-09
4.63768e-08
1.19553e-09
4.63028e-08
1.18258e-09
4.62261e-08
1.17512e-09
4.61481e-08
1.16173e-09
4.60675e-08
1.15454e-09
4.59857e-08
1.14064e-09
4.59013e-08
1.13374e-09
4.58159e-08
1.11927e-09
4.57279e-08
1.11266e-09
4.56391e-08
1.09757e-09
4.55478e-08
1.09127e-09
4.54557e-08
1.0755e-09
4.53613e-08
1.06955e-09
4.52663e-08
1.05305e-09
4.5169e-08
1.04748e-09
4.50713e-08
1.03024e-09
4.49714e-08
1.02508e-09
4.48712e-08
1.0071e-09
4.47691e-08
1.00242e-09
4.46666e-08
9.83691e-10
4.45624e-08
9.79579e-10
4.4458e-08
9.60173e-10
4.43521e-08
9.56701e-10
4.4246e-08
9.36762e-10
4.41385e-08
9.34038e-10
4.40309e-08
9.13776e-10
4.39221e-08
9.11978e-10
4.38132e-08
8.91715e-10
4.37033e-08
8.91106e-10
4.35933e-08
8.71391e-10
4.34824e-08
8.7239e-10
4.33713e-08
8.54061e-10
4.32594e-08
8.57311e-10
8.41698e-10
4.79554e-08
1.78772e-09
-4.78822e-08
4.80593e-08
2.01768e-09
4.81935e-08
2.22227e-09
4.83538e-08
2.40557e-09
4.85271e-08
2.55068e-09
4.8696e-08
2.64016e-09
4.88487e-08
2.67179e-09
4.89813e-08
2.65569e-09
4.90938e-08
2.60722e-09
4.91871e-08
2.53966e-09
4.92615e-08
2.46228e-09
4.93184e-08
2.38115e-09
4.93606e-08
2.30153e-09
4.9392e-08
2.22723e-09
4.94158e-08
2.16076e-09
4.94342e-08
2.10212e-09
4.94487e-08
2.05047e-09
4.94601e-08
2.00414e-09
4.94691e-08
1.96227e-09
4.94761e-08
1.92382e-09
4.94816e-08
1.88857e-09
4.94858e-08
1.85579e-09
4.94887e-08
1.82552e-09
4.94907e-08
1.79706e-09
4.94917e-08
1.77062e-09
4.94918e-08
1.74549e-09
4.94912e-08
1.72208e-09
4.94899e-08
1.69963e-09
4.94879e-08
1.67873e-09
4.94854e-08
1.65852e-09
4.94822e-08
1.63973e-09
4.94786e-08
1.62138e-09
4.94745e-08
1.60436e-09
4.94699e-08
1.58754e-09
4.94647e-08
1.572e-09
4.94591e-08
1.55643e-09
4.94529e-08
1.54213e-09
4.94463e-08
1.52759e-09
4.9439e-08
1.51435e-09
4.94313e-08
1.50066e-09
4.94229e-08
1.48835e-09
4.94139e-08
1.47536e-09
4.94041e-08
1.46385e-09
4.93938e-08
1.45145e-09
4.93826e-08
1.44067e-09
4.93708e-08
1.42874e-09
4.9358e-08
1.41862e-09
4.93446e-08
1.40707e-09
4.933e-08
1.39754e-09
4.93147e-08
1.3863e-09
4.92982e-08
1.37732e-09
4.92809e-08
1.36631e-09
4.92623e-08
1.35782e-09
4.92429e-08
1.34697e-09
4.9222e-08
1.33895e-09
4.92002e-08
1.32817e-09
4.91769e-08
1.3206e-09
4.91526e-08
1.30981e-09
4.91267e-08
1.30265e-09
4.90997e-08
1.29179e-09
4.90711e-08
1.28501e-09
4.90414e-08
1.27402e-09
4.90099e-08
1.2676e-09
4.89773e-08
1.25639e-09
4.89428e-08
1.25031e-09
4.89072e-08
1.23881e-09
4.88697e-08
1.23307e-09
4.88311e-08
1.22122e-09
4.87904e-08
1.21577e-09
4.87487e-08
1.2035e-09
4.87048e-08
1.19835e-09
4.86599e-08
1.18558e-09
4.86129e-08
1.18073e-09
4.85648e-08
1.1674e-09
4.85146e-08
1.16283e-09
4.84633e-08
1.14889e-09
4.841e-08
1.1446e-09
4.83555e-08
1.12999e-09
4.8299e-08
1.12599e-09
4.82414e-08
1.11067e-09
4.81819e-08
1.10696e-09
4.81212e-08
1.09094e-09
4.80588e-08
1.08753e-09
4.79951e-08
1.07078e-09
4.79298e-08
1.06773e-09
4.78632e-08
1.05028e-09
4.77952e-08
1.04763e-09
4.77258e-08
1.02957e-09
4.76551e-08
1.02738e-09
4.7583e-08
1.00885e-09
4.75098e-08
1.00722e-09
4.74351e-08
9.88464e-10
4.73595e-08
9.87565e-10
4.72824e-08
9.68899e-10
4.72044e-08
9.69023e-10
4.71248e-08
9.50989e-10
4.70446e-08
9.52582e-10
4.69627e-08
9.35981e-10
4.68803e-08
9.39743e-10
9.25831e-10
4.98077e-08
1.71723e-09
-4.97372e-08
4.99034e-08
1.9219e-09
5.00239e-08
2.10185e-09
5.01655e-08
2.26391e-09
5.032e-08
2.39617e-09
5.04744e-08
2.48574e-09
5.06179e-08
2.52833e-09
5.07447e-08
2.52888e-09
5.08536e-08
2.49829e-09
5.09454e-08
2.44789e-09
5.10207e-08
2.38692e-09
5.10807e-08
2.32115e-09
5.11272e-08
2.25505e-09
5.11629e-08
2.19155e-09
5.11906e-08
2.1331e-09
5.12125e-08
2.08024e-09
5.123e-08
2.03294e-09
5.12441e-08
1.98999e-09
5.12555e-08
1.9509e-09
5.12647e-08
1.91466e-09
5.12719e-08
1.88129e-09
5.12777e-08
1.85003e-09
5.12821e-08
1.82113e-09
5.12854e-08
1.79378e-09
5.12876e-08
1.76839e-09
5.1289e-08
1.7441e-09
5.12896e-08
1.72151e-09
5.12895e-08
1.69969e-09
5.12888e-08
1.67943e-09
5.12877e-08
1.65968e-09
5.1286e-08
1.6414e-09
5.1284e-08
1.62339e-09
5.12816e-08
1.60678e-09
5.12789e-08
1.59021e-09
5.12759e-08
1.57503e-09
5.12727e-08
1.55964e-09
5.12691e-08
1.54568e-09
5.12654e-08
1.53127e-09
5.12614e-08
1.51837e-09
5.12573e-08
1.50479e-09
5.12528e-08
1.49281e-09
5.12483e-08
1.47993e-09
5.12433e-08
1.46877e-09
5.12383e-08
1.45648e-09
5.12329e-08
1.44608e-09
5.12274e-08
1.43427e-09
5.12214e-08
1.42458e-09
5.12153e-08
1.41316e-09
5.12087e-08
1.40413e-09
5.1202e-08
1.39304e-09
5.11947e-08
1.3846e-09
5.11872e-08
1.3738e-09
5.11791e-08
1.36591e-09
5.11708e-08
1.35531e-09
5.11618e-08
1.34797e-09
5.11525e-08
1.33747e-09
5.11424e-08
1.33065e-09
5.11321e-08
1.3202e-09
5.11208e-08
1.31387e-09
5.11092e-08
1.30341e-09
5.10967e-08
1.29751e-09
5.10838e-08
1.28699e-09
5.10698e-08
1.28152e-09
5.10554e-08
1.27084e-09
5.10399e-08
1.26578e-09
5.10239e-08
1.25488e-09
5.10067e-08
1.2502e-09
5.09889e-08
1.23903e-09
5.097e-08
1.23468e-09
5.09503e-08
1.22319e-09
5.09295e-08
1.21917e-09
5.09078e-08
1.20725e-09
5.0885e-08
1.20356e-09
5.08612e-08
1.19117e-09
5.08363e-08
1.18775e-09
5.08103e-08
1.17486e-09
5.07832e-08
1.17171e-09
5.0755e-08
1.15824e-09
5.07256e-08
1.15536e-09
5.0695e-08
1.1413e-09
5.06633e-08
1.13864e-09
5.06302e-08
1.124e-09
5.05962e-08
1.12158e-09
5.05606e-08
1.10634e-09
5.05242e-08
1.10418e-09
5.04861e-08
1.08839e-09
5.04472e-08
1.08652e-09
5.04065e-08
1.07025e-09
5.03651e-08
1.06874e-09
5.03218e-08
1.05215e-09
5.0278e-08
1.05107e-09
5.0232e-08
1.0344e-09
5.01857e-08
1.03393e-09
5.01371e-08
1.01748e-09
5.00882e-08
1.01795e-09
5.00369e-08
1.00224e-09
4.99854e-08
1.0041e-09
4.99315e-08
9.89893e-10
4.98773e-08
9.93905e-10
9.82291e-10
5.17174e-08
1.64946e-09
-5.16497e-08
5.18061e-08
1.83322e-09
5.1915e-08
1.99293e-09
5.20414e-08
2.13756e-09
5.21794e-08
2.25821e-09
5.23197e-08
2.34545e-09
5.24532e-08
2.39476e-09
5.2574e-08
2.40813e-09
5.26794e-08
2.39285e-09
5.27695e-08
2.35778e-09
5.28451e-08
2.31135e-09
5.29071e-08
2.25917e-09
5.29568e-08
2.20535e-09
5.29961e-08
2.15221e-09
5.30273e-08
2.10193e-09
5.30523e-08
2.05519e-09
5.30727e-08
2.01256e-09
5.30894e-08
1.97327e-09
5.31031e-08
1.93722e-09
5.31143e-08
1.90349e-09
5.31233e-08
1.87226e-09
5.31306e-08
1.84275e-09
5.31363e-08
1.81539e-09
5.31408e-08
1.78931e-09
5.31441e-08
1.76509e-09
5.31464e-08
1.74174e-09
5.31479e-08
1.72005e-09
5.31487e-08
1.69893e-09
5.31487e-08
1.67935e-09
5.31483e-08
1.66011e-09
5.31474e-08
1.64234e-09
5.3146e-08
1.6247e-09
5.31443e-08
1.60849e-09
5.31424e-08
1.59217e-09
5.31401e-08
1.5773e-09
5.31377e-08
1.56207e-09
5.3135e-08
1.54837e-09
5.31322e-08
1.53405e-09
5.31292e-08
1.52137e-09
5.31262e-08
1.50783e-09
5.31229e-08
1.49603e-09
5.31197e-08
1.48317e-09
5.31163e-08
1.47218e-09
5.31129e-08
1.45988e-09
5.31093e-08
1.44964e-09
5.31058e-08
1.43779e-09
5.31021e-08
1.42828e-09
5.30984e-08
1.41682e-09
5.30946e-08
1.40797e-09
5.30908e-08
1.39685e-09
5.30868e-08
1.3886e-09
5.30828e-08
1.37779e-09
5.30786e-08
1.3701e-09
5.30744e-08
1.35951e-09
5.307e-08
1.3524e-09
5.30655e-08
1.34193e-09
5.30608e-08
1.33538e-09
5.3056e-08
1.32499e-09
5.30509e-08
1.31894e-09
5.30457e-08
1.30861e-09
5.30402e-08
1.30301e-09
5.30345e-08
1.29268e-09
5.30285e-08
1.28752e-09
5.30222e-08
1.27709e-09
5.30156e-08
1.27239e-09
5.30087e-08
1.2618e-09
5.30014e-08
1.25748e-09
5.29937e-08
1.24672e-09
5.29857e-08
1.24274e-09
5.29771e-08
1.23175e-09
5.29682e-08
1.2281e-09
5.29587e-08
1.21678e-09
5.29488e-08
1.21347e-09
5.29381e-08
1.20179e-09
5.29271e-08
1.19873e-09
5.29153e-08
1.18669e-09
5.29031e-08
1.18388e-09
5.289e-08
1.17137e-09
5.28765e-08
1.16882e-09
5.2862e-08
1.15586e-09
5.28471e-08
1.15349e-09
5.2831e-08
1.14011e-09
5.28147e-08
1.13793e-09
5.27969e-08
1.12409e-09
5.2779e-08
1.12214e-09
5.27595e-08
1.10789e-09
5.27398e-08
1.10618e-09
5.27185e-08
1.09162e-09
5.2697e-08
1.09021e-09
5.26737e-08
1.07548e-09
5.26503e-08
1.07446e-09
5.26249e-08
1.05979e-09
5.25994e-08
1.05937e-09
5.25719e-08
1.04503e-09
5.25443e-08
1.04554e-09
5.25145e-08
1.03204e-09
5.24846e-08
1.03396e-09
5.24525e-08
1.022e-09
5.24203e-08
1.02611e-09
1.01662e-09
5.3688e-08
1.58458e-09
-5.36232e-08
5.37703e-08
1.75093e-09
5.38694e-08
1.8939e-09
5.39828e-08
2.02415e-09
5.41063e-08
2.13464e-09
5.42335e-08
2.21832e-09
5.4357e-08
2.27124e-09
5.44712e-08
2.2939e-09
5.45729e-08
2.29113e-09
5.46613e-08
2.26945e-09
5.47366e-08
2.23607e-09
5.47997e-08
2.19607e-09
5.48516e-08
2.15341e-09
5.48938e-08
2.10998e-09
5.4928e-08
2.06772e-09
5.4956e-08
2.02727e-09
5.4979e-08
1.98955e-09
5.49981e-08
1.95416e-09
5.50139e-08
1.92136e-09
5.50271e-08
1.89036e-09
5.50378e-08
1.86149e-09
5.50466e-08
1.83396e-09
5.50537e-08
1.80832e-09
5.50593e-08
1.78367e-09
5.50637e-08