/*--------------------------------*- C++ -*----------------------------------*\
| =========                 |                                                 |
| \\      /  F ield         | OpenFOAM: The Open Source CFD Toolbox           |
|  \\    /   O peration     | Version:  2.3.0                                 |
|   \\  /    A nd           | Web:      www.OpenFOAM.org                      |
|    \\/     M anipulation  |                                                 |
\*---------------------------------------------------------------------------*/
FoamFile
{
    version     2.0;
    format      ascii;
    class       volScalarField;
    location    "0.75";
    object      p;
}
// * * * * * * * * * * * * * * * * * * * * * * * * * * * * * * * * * * * * * //

dimensions      [0 2 -2 0 0 0 0];

internalField   nonuniform List<scalar> 
217
(
0.00046173
0.000452909
0.000384898
0.000316517
0.000260208
0.000220362
0.000197256
0.000171392
0.000147838
0.000132247
0.000112585
9.74126e-05
8.07638e-05
5.82977e-05
3.21201e-05
-8.81643e-06
-5.05678e-05
-9.41284e-05
-0.000149257
-0.000189902
-0.000210946
-0.000216978
-0.000187668
-0.000126039
-4.92121e-05
0.000341296
0.000353086
0.00033952
0.000304278
0.000256189
0.000214102
0.000187453
0.00015983
0.000137282
0.000123564
0.000104885
9.05611e-05
7.50843e-05
5.38465e-05
2.87807e-05
-1.04319e-05
-4.96028e-05
-9.03472e-05
-0.000143218
-0.000181127
-0.000200948
-0.000207631
-0.000180477
-0.000120645
-4.54945e-05
0.000285479
0.000304927
0.000310396
0.000295658
0.000257121
0.00021309
0.000179426
0.000148369
0.000125397
0.000110618
9.35593e-05
8.16393e-05
6.69136e-05
4.67992e-05
2.40989e-05
-1.11075e-05
-4.6386e-05
-8.20053e-05
-0.000127415
-0.000158567
-0.000175296
-0.000181317
-0.000158501
-0.00010741
-3.95179e-05
0.000226636
0.000246215
0.00025937
0.000257458
0.000231806
0.000194935
0.000162776
0.000131336
0.000105892
9.15505e-05
7.7305e-05
6.7077e-05
5.51471e-05
3.74218e-05
1.80935e-05
-1.04633e-05
-4.1773e-05
-7.20735e-05
-0.000107017
-0.000132002
-0.000146659
-0.00015045
-0.000131661
-9.12315e-05
-3.29794e-05
0.000165141
0.00018403
0.000204143
0.000211428
0.000196842
0.000170835
0.000142267
0.000112473
8.82657e-05
7.45609e-05
6.1014e-05
5.16711e-05
4.43117e-05
3.0231e-05
1.34899e-05
-8.07078e-06
-3.33029e-05
-5.81907e-05
-8.328e-05
-0.000102755
-0.000114878
-0.000115764
-0.000101577
-7.20758e-05
-2.5323e-05
0.00010405
0.000121464
0.000143617
0.000156799
0.000150142
0.00013328
0.000112722
8.80367e-05
6.67233e-05
5.41843e-05
4.35119e-05
3.7296e-05
3.16191e-05
2.10728e-05
9.65236e-06
-5.96899e-06
-2.37531e-05
-4.1552e-05
-5.84628e-05
-7.1984e-05
-8.10396e-05
-8.0168e-05
-7.01745e-05
-5.10518e-05
-1.81674e-05
2.47065e-05
3.55479e-05
5.15941e-05
6.43567e-05
6.45806e-05
5.83559e-05
5.18277e-05
3.91528e-05
2.76535e-05
2.3573e-05
1.68174e-05
1.29817e-05
1.26866e-05
7.52751e-06
3.59581e-06
-1.14862e-06
-9.69818e-06
-1.70165e-05
-2.14447e-05
-2.67317e-05
-3.15901e-05
-2.98226e-05
-2.53652e-05
-1.95021e-05
-7.10849e-06
9.4069e-05
0.000131834
0.000184354
0.000247818
0.00031843
0.000389564
0.000104679
0.00013127
0.000172853
0.000220606
0.000271032
0.000311663
0.000105005
0.000126553
0.000156695
0.000191327
0.000228124
0.000258971
0.000103398
0.000119946
0.000138013
0.000159487
0.000182541
0.000204354
9.50579e-05
0.000106254
0.000114064
0.000123839
0.000135151
0.000148068
7.83168e-05
8.51606e-05
8.50032e-05
8.438e-05
8.6624e-05
9.21752e-05
3.91522e-05
4.13487e-05
3.6789e-05
2.96029e-05
2.38142e-05
2.06996e-05
)
;

boundaryField
{
    top
    {
        type            fixedValue;
        value           uniform 0;
    }
    inlet
    {
        type            zeroGradient;
    }
    outlet
    {
        type            fixedValue;
        value           uniform 0;
    }
    plate
    {
        type            zeroGradient;
    }
    symmBound
    {
        type            zeroGradient;
    }
    frontAndBack
    {
        type            empty;
    }
}


// ************************************************************************* //
