/*--------------------------------*- C++ -*----------------------------------*\
| =========                 |                                                 |
| \\      /  F ield         | OpenFOAM: The Open Source CFD Toolbox           |
|  \\    /   O peration     | Version:  2.3.0                                 |
|   \\  /    A nd           | Web:      www.OpenFOAM.org                      |
|    \\/     M anipulation  |                                                 |
\*---------------------------------------------------------------------------*/
FoamFile
{
    version     2.0;
    format      ascii;
    class       volVectorField;
    location    "0.75";
    object      U_0;
}
// * * * * * * * * * * * * * * * * * * * * * * * * * * * * * * * * * * * * * //

dimensions      [0 1 -1 0 0 0 0];

internalField   nonuniform List<vector> 
217
(
(0.195229 0.00123971 0)
(0.189402 0.00181118 0)
(0.183728 0.00213753 0)
(0.17768 0.00219453 0)
(0.171417 0.00207638 0)
(0.165043 0.0020065 0)
(0.158461 0.00201848 0)
(0.151503 0.00202669 0)
(0.144345 0.00198757 0)
(0.137003 0.00197115 0)
(0.129406 0.00194762 0)
(0.121591 0.00186594 0)
(0.113654 0.00182051 0)
(0.105548 0.0017528 0)
(0.0973481 0.00166725 0)
(0.0891353 0.00154977 0)
(0.0810832 0.00139973 0)
(0.0733586 0.0012035 0)
(0.0660695 0.000995666 0)
(0.0596635 0.000675533 0)
(0.0541661 0.000386847 0)
(0.0500614 8.45116e-05 0)
(0.046764 -7.86948e-05 0)
(0.0448913 -0.000162707 0)
(0.0424817 -0.000177767 0)
(0.198747 0.00216161 0)
(0.198639 0.00293987 0)
(0.198248 0.00342286 0)
(0.198077 0.00360974 0)
(0.197609 0.00360916 0)
(0.197032 0.00349223 0)
(0.196112 0.00350551 0)
(0.19515 0.00367848 0)
(0.193675 0.00368602 0)
(0.192159 0.00378704 0)
(0.189927 0.00383474 0)
(0.188134 0.00385215 0)
(0.185193 0.00389379 0)
(0.182851 0.0038721 0)
(0.179146 0.00385343 0)
(0.176357 0.00384268 0)
(0.172041 0.00365946 0)
(0.168994 0.00356184 0)
(0.163926 0.00327587 0)
(0.161039 0.00293959 0)
(0.155558 0.00248584 0)
(0.153373 0.00211504 0)
(0.147722 0.00154848 0)
(0.146568 0.00135107 0)
(0.140444 0.00100508 0)
(0.199016 0.00183315 0)
(0.199153 0.00230814 0)
(0.198762 0.00266538 0)
(0.199008 0.00289318 0)
(0.199057 0.00304304 0)
(0.199478 0.00305372 0)
(0.199282 0.00310809 0)
(0.199689 0.00337673 0)
(0.199308 0.00338964 0)
(0.199527 0.00367248 0)
(0.198965 0.00374039 0)
(0.19919 0.003819 0)
(0.198352 0.00394613 0)
(0.198603 0.00407391 0)
(0.197348 0.00412307 0)
(0.197528 0.00416929 0)
(0.196092 0.00397368 0)
(0.196155 0.00405643 0)
(0.194366 0.00380173 0)
(0.194308 0.00349019 0)
(0.192027 0.00306961 0)
(0.192004 0.00273989 0)
(0.189391 0.00216845 0)
(0.189332 0.00195396 0)
(0.186337 0.00165782 0)
(0.199245 0.00173244 0)
(0.199433 0.00223776 0)
(0.199086 0.00260652 0)
(0.199265 0.0028132 0)
(0.199211 0.00306132 0)
(0.199702 0.00322841 0)
(0.199493 0.00328148 0)
(0.199971 0.003571 0)
(0.199823 0.00357218 0)
(0.200099 0.00385271 0)
(0.199931 0.00385192 0)
(0.20024 0.00399968 0)
(0.199893 0.00411221 0)
(0.200398 0.00421757 0)
(0.19994 0.00426373 0)
(0.200507 0.00434664 0)
(0.200063 0.00410147 0)
(0.200553 0.00418702 0)
(0.200143 0.00396218 0)
(0.200554 0.00365524 0)
(0.199899 0.00332113 0)
(0.200261 0.00300946 0)
(0.199362 0.00248239 0)
(0.199513 0.00228314 0)
(0.198386 0.00202424 0)
(0.199512 0.00169872 0)
(0.199649 0.00214112 0)
(0.199373 0.002478 0)
(0.199495 0.00270504 0)
(0.199383 0.00291973 0)
(0.199717 0.00315485 0)
(0.19962 0.00320693 0)
(0.199982 0.00353119 0)
(0.199951 0.00353658 0)
(0.200112 0.00376534 0)
(0.200099 0.00378457 0)
(0.200301 0.00390914 0)
(0.200079 0.00398791 0)
(0.200422 0.00412314 0)
(0.200223 0.00411764 0)
(0.20064 0.00420767 0)
(0.200482 0.0040088 0)
(0.20082 0.00402232 0)
(0.200745 0.00383936 0)
(0.201053 0.00356697 0)
(0.200856 0.00327739 0)
(0.20112 0.00297984 0)
(0.200744 0.00253379 0)
(0.200874 0.00233518 0)
(0.200324 0.00210846 0)
(0.199766 0.00166245 0)
(0.199824 0.00199662 0)
(0.199616 0.00225805 0)
(0.199665 0.00254599 0)
(0.19958 0.00274989 0)
(0.199804 0.00304631 0)
(0.199718 0.00317772 0)
(0.19997 0.00344231 0)
(0.200005 0.0035026 0)
(0.20014 0.00371239 0)
(0.200134 0.00373222 0)
(0.200229 0.0038628 0)
(0.200121 0.0039117 0)
(0.200357 0.00403096 0)
(0.200219 0.00403591 0)
(0.200522 0.00409217 0)
(0.200426 0.00394426 0)
(0.200637 0.00393258 0)
(0.200628 0.00375825 0)
(0.20083 0.00351543 0)
(0.200743 0.00325385 0)
(0.200908 0.00299273 0)
(0.200687 0.00261301 0)
(0.200786 0.00241921 0)
(0.200439 0.00221821 0)
(0.200026 0.00158573 0)
(0.200037 0.00182035 0)
(0.19991 0.00199937 0)
(0.199877 0.00231287 0)
(0.199834 0.00257306 0)
(0.199927 0.00287696 0)
(0.199873 0.0030641 0)
(0.199993 0.00337637 0)
(0.200046 0.00343953 0)
(0.200037 0.00364288 0)
(0.200088 0.00369637 0)
(0.200159 0.00379158 0)
(0.200051 0.00387062 0)
(0.200184 0.00395116 0)
(0.20012 0.00393812 0)
(0.200201 0.00400932 0)
(0.200211 0.00387705 0)
(0.200299 0.00385553 0)
(0.200262 0.00367331 0)
(0.200341 0.0034844 0)
(0.200342 0.00323211 0)
(0.200377 0.00298297 0)
(0.200294 0.00266252 0)
(0.200352 0.00248873 0)
(0.200218 0.00229661 0)
(0.193914 -3.28668e-05 0)
(0.205522 -0.000204438 0)
(0.194677 -3.29963e-05 0)
(0.203842 4.30579e-05 0)
(0.194955 0.000374437 0)
(0.202279 0.000689782 0)
(0.199179 -1.22251e-05 0)
(0.200421 -0.000240032 0)
(0.199213 8.05272e-05 0)
(0.199674 0.000267657 0)
(0.198877 0.000820971 0)
(0.199039 0.00136747 0)
(0.199862 1.23662e-05 0)
(0.200097 -2.80491e-05 0)
(0.199596 0.000201868 0)
(0.199775 0.000519765 0)
(0.199192 0.000884977 0)
(0.199352 0.00136588 0)
(0.199889 1.17907e-05 0)
(0.200104 9.1249e-05 0)
(0.199649 0.000297973 0)
(0.199928 0.000650329 0)
(0.199463 0.000961089 0)
(0.199631 0.00136829 0)
(0.199911 3.85968e-05 0)
(0.20007 0.000230109 0)
(0.199755 0.000429978 0)
(0.200002 0.000778615 0)
(0.199691 0.00107818 0)
(0.199867 0.00141436 0)
(0.199926 6.8857e-05 0)
(0.200059 0.000359276 0)
(0.199852 0.00057007 0)
(0.200072 0.000885754 0)
(0.199878 0.00114549 0)
(0.200022 0.00143579 0)
(0.199972 0.0001239 0)
(0.200024 0.000517597 0)
(0.199968 0.000771914 0)
(0.200091 0.00107605 0)
(0.200035 0.00124091 0)
(0.200137 0.00145657 0)
)
;

boundaryField
{
    top
    {
        type            zeroGradient;
    }
    inlet
    {
        type            fixedValue;
        value           uniform (0.2 0 0);
    }
    outlet
    {
        type            zeroGradient;
    }
    plate
    {
        type            fixedValue;
        value           uniform (0 0 0);
    }
    symmBound
    {
        type            zeroGradient;
    }
    frontAndBack
    {
        type            empty;
    }
}


// ************************************************************************* //
