/*--------------------------------*- C++ -*----------------------------------*\
| =========                 |                                                 |
| \\      /  F ield         | OpenFOAM: The Open Source CFD Toolbox           |
|  \\    /   O peration     | Version:  2.3.0                                 |
|   \\  /    A nd           | Web:      www.OpenFOAM.org                      |
|    \\/     M anipulation  |                                                 |
\*---------------------------------------------------------------------------*/
FoamFile
{
    version     2.0;
    format      ascii;
    class       surfaceScalarField;
    location    "0.25";
    object      phi_0;
}
// * * * * * * * * * * * * * * * * * * * * * * * * * * * * * * * * * * * * * //

dimensions      [0 3 -1 0 0 0 0];

internalField   nonuniform List<scalar> 
2863
(
2.80657e-08
2.92435e-09
-3.09901e-08
2.5159e-08
2.90674e-09
2.24297e-08
2.72928e-09
1.99132e-08
2.51654e-09
1.76274e-08
2.28578e-09
1.55847e-08
2.04273e-09
1.37886e-08
1.79611e-09
1.22343e-08
1.55427e-09
1.09099e-08
1.32438e-09
9.79754e-09
1.11237e-09
8.87486e-09
9.22674e-10
8.11694e-09
7.57927e-10
7.49807e-09
6.18865e-10
6.9935e-09
5.04566e-10
6.58067e-09
4.12834e-10
6.23999e-09
3.4068e-10
5.9552e-09
2.84787e-10
5.71331e-09
2.41891e-10
5.50427e-09
2.09038e-10
5.32055e-09
1.83723e-10
5.15661e-09
1.63938e-10
5.00847e-09
1.48138e-10
4.87328e-09
1.35189e-10
4.749e-09
1.24281e-10
4.63415e-09
1.14856e-10
4.52761e-09
1.06537e-10
4.42854e-09
9.90739e-11
4.33624e-09
9.23018e-11
4.25013e-09
8.61086e-11
4.16971e-09
8.04159e-11
4.09455e-09
7.51652e-11
4.02424e-09
7.0309e-11
3.95843e-09
6.58069e-11
3.89681e-09
6.16223e-11
3.83909e-09
5.77216e-11
3.78501e-09
5.40733e-11
3.73436e-09
5.06484e-11
3.68694e-09
4.74198e-11
3.64258e-09
4.43627e-11
3.60113e-09
4.14545e-11
3.56245e-09
3.8675e-11
3.52645e-09
3.60061e-11
3.49301e-09
3.34318e-11
3.46208e-09
3.09391e-11
3.43356e-09
2.85172e-11
3.4074e-09
2.61586e-11
3.38354e-09
2.38577e-11
3.36193e-09
2.16096e-11
3.34253e-09
1.94058e-11
3.3253e-09
1.72278e-11
3.31026e-09
1.50381e-11
3.29749e-09
1.27739e-11
3.28714e-09
1.03428e-11
3.27954e-09
7.60506e-12
3.27513e-09
4.40622e-12
3.27426e-09
8.70328e-13
3.27625e-09
-1.98978e-12
3.28038e-09
-4.12452e-12
3.28617e-09
-5.79464e-12
3.2932e-09
-7.02576e-12
3.301e-09
-7.80627e-12
3.30919e-09
-8.18969e-12
3.31742e-09
-8.22378e-12
3.32539e-09
-7.97411e-12
3.3329e-09
-7.50733e-12
3.33979e-09
-6.89174e-12
3.34598e-09
-6.19124e-12
3.35144e-09
-5.46029e-12
3.35618e-09
-4.74092e-12
3.36024e-09
-4.06242e-12
3.36369e-09
-3.44276e-12
3.36658e-09
-2.89095e-12
3.36899e-09
-2.40938e-12
3.37098e-09
-1.99584e-12
3.37263e-09
-1.64524e-12
3.37398e-09
-1.35094e-12
3.37509e-09
-1.10573e-12
3.37599e-09
-9.0242e-13
3.37672e-09
-7.343e-13
3.37732e-09
-5.95371e-13
3.3778e-09
-4.80451e-13
3.37818e-09
-3.85173e-13
3.37849e-09
-3.05947e-13
3.37873e-09
-2.39878e-13
3.37891e-09
-1.8468e-13
3.37905e-09
-1.38537e-13
3.37915e-09
-1.00036e-13
3.37922e-09
-6.80846e-14
3.37926e-09
-4.17932e-14
3.37928e-09
-2.01291e-14
3.37928e-09
-2.07254e-15
3.37927e-09
1.29784e-14
3.37925e-09
2.59835e-14
3.37921e-09
3.40305e-14
3.37917e-09
3.82459e-14
3.37914e-09
3.72005e-14
3.37911e-09
2.84331e-14
3.3791e-09
2.82297e-15
3.37917e-09
-6.65267e-14
-2.95629e-13
3.59839e-08
3.21703e-09
-3.62766e-08
3.53639e-08
3.52667e-09
3.44977e-08
3.59556e-09
3.34632e-08
3.55097e-09
3.23179e-08
3.43116e-09
3.11092e-08
3.25139e-09
2.98764e-08
3.02892e-09
2.86498e-08
2.78083e-09
2.74523e-08
2.52188e-09
2.63002e-08
2.26445e-09
2.52045e-08
2.01843e-09
2.41715e-08
1.79094e-09
2.32041e-08
1.58624e-09
2.23026e-08
1.40602e-09
2.14655e-08
1.24994e-09
2.069e-08
1.11623e-09
1.99724e-08
1.00234e-09
1.93089e-08
9.05386e-10
1.86954e-08
8.22558e-10
1.81278e-08
7.51306e-10
1.76023e-08
6.89458e-10
1.71152e-08
6.35235e-10
1.66632e-08
5.87229e-10
1.62431e-08
5.44345e-10
1.58522e-08
5.05738e-10
1.5488e-08
4.70761e-10
1.51482e-08
4.3891e-10
1.48307e-08
4.09786e-10
1.45337e-08
3.83063e-10
1.42557e-08
3.58469e-10
1.39951e-08
3.35772e-10
1.37506e-08
3.14764e-10
1.35212e-08
2.95262e-10
1.33057e-08
2.771e-10
1.31033e-08
2.60125e-10
1.29131e-08
2.442e-10
1.27346e-08
2.292e-10
1.2567e-08
2.15011e-10
1.24098e-08
2.01528e-10
1.22626e-08
1.8866e-10
1.2125e-08
1.76321e-10
1.19966e-08
1.64439e-10
1.1877e-08
1.52948e-10
1.17662e-08
1.41791e-10
1.16638e-08
1.30919e-10
1.15697e-08
1.20293e-10
1.14836e-08
1.09877e-10
1.14056e-08
9.96321e-11
1.13355e-08
8.95121e-11
1.12733e-08
7.94454e-11
1.1219e-08
6.93235e-11
1.11728e-08
5.89927e-11
1.11349e-08
4.82666e-11
1.11055e-08
3.69535e-11
1.1085e-08
2.48846e-11
1.10741e-08
1.18402e-11
1.10727e-08
-6.65294e-13
1.10791e-08
-1.04569e-11
1.10908e-08
-1.75273e-11
1.11063e-08
-2.25453e-11
1.11243e-08
-2.57894e-11
1.11437e-08
-2.75517e-11
1.11635e-08
-2.80585e-11
1.11831e-08
-2.75569e-11
1.12019e-08
-2.62841e-11
1.12194e-08
-2.44718e-11
1.12356e-08
-2.23318e-11
1.12502e-08
-2.00435e-11
1.12632e-08
-1.77468e-11
1.12746e-08
-1.55412e-11
1.12847e-08
-1.34907e-11
1.12934e-08
-1.16307e-11
1.1301e-08
-9.97486e-12
1.13075e-08
-8.52148e-12
1.13131e-08
-7.25909e-12
1.1318e-08
-6.1705e-12
1.13221e-08
-5.23596e-12
1.13256e-08
-4.43531e-12
1.13286e-08
-3.74936e-12
1.13312e-08
-3.16082e-12
1.13334e-08
-2.65459e-12
1.13352e-08
-2.21795e-12
1.13367e-08
-1.84035e-12
1.1338e-08
-1.51325e-12
1.13391e-08
-1.22977e-12
1.13399e-08
-9.84416e-13
1.13406e-08
-7.72797e-13
1.13411e-08
-5.91397e-13
1.13415e-08
-4.37312e-13
1.13418e-08
-3.07996e-13
1.1342e-08
-2.01669e-13
1.13421e-08
-1.16712e-13
1.13422e-08
-4.91719e-14
1.13422e-08
1.60076e-15
1.13422e-08
3.94988e-14
1.13422e-08
5.86724e-14
1.13422e-08
5.24864e-14
1.13422e-08
-5.23964e-15
1.13423e-08
-1.86492e-13
-6.79639e-13
4.06559e-08
3.05538e-09
-4.04943e-08
4.07335e-08
3.44913e-09
4.06819e-08
3.64719e-09
4.05029e-08
3.72996e-09
4.02044e-08
3.72966e-09
3.97987e-08
3.65707e-09
3.93025e-08
3.52509e-09
3.87339e-08
3.34944e-09
3.81104e-08
3.14537e-09
3.74482e-08
2.92664e-09
3.67616e-08
2.70504e-09
3.60626e-08
2.48992e-09
3.5361e-08
2.28785e-09
3.46643e-08
2.10275e-09
3.3978e-08
1.93621e-09
3.33062e-08
1.7881e-09
3.26514e-08
1.65715e-09
3.20153e-08
1.54145e-09
3.1399e-08
1.43889e-09
3.08029e-08
1.3474e-09
3.02272e-08
1.26513e-09
2.96719e-08
1.19053e-09
2.91368e-08
1.12232e-09
2.86216e-08
1.05951e-09
2.81261e-08
1.00132e-09
2.76497e-08
9.47125e-10
2.71921e-08
8.96465e-10
2.6753e-08
8.48954e-10
2.63318e-08
8.0428e-10
2.59281e-08
7.62177e-10
2.55414e-08
7.2241e-10
2.51714e-08
6.8477e-10
2.48176e-08
6.49059e-10
2.44796e-08
6.15099e-10
2.4157e-08
5.82716e-10
2.38495e-08
5.51751e-10
2.35566e-08
5.22051e-10
2.32782e-08
4.93474e-10
2.30138e-08
4.65887e-10
2.27633e-08
4.39164e-10
2.25264e-08
4.13193e-10
2.2303e-08
3.87866e-10
2.20929e-08
3.63089e-10
2.18959e-08
3.38776e-10
2.17119e-08
3.1485e-10
2.1541e-08
2.91244e-10
2.1383e-08
2.67892e-10
2.12379e-08
2.44724e-10
2.11057e-08
2.21656e-10
2.09866e-08
1.98575e-10
2.08806e-08
1.75336e-10
2.07878e-08
1.51769e-10
2.07084e-08
1.27725e-10
2.06421e-08
1.03175e-10
2.05886e-08
7.83987e-11
2.05465e-08
5.40143e-11
2.05155e-08
3.02436e-11
2.04982e-08
6.89695e-12
2.0494e-08
-1.33883e-11
2.04997e-08
-2.81589e-11
2.05124e-08
-3.85001e-11
2.05301e-08
-4.53131e-11
2.05513e-08
-4.91852e-11
2.05744e-08
-5.06777e-11
2.05984e-08
-5.0295e-11
2.06224e-08
-4.85112e-11
2.06459e-08
-4.57578e-11
2.06682e-08
-4.24077e-11
2.06892e-08
-3.87632e-11
2.07088e-08
-3.50532e-11
2.07267e-08
-3.14395e-11
2.07431e-08
-2.80268e-11
2.0758e-08
-2.48749e-11
2.07715e-08
-2.20095e-11
2.07837e-08
-1.9433e-11
2.07946e-08
-1.71323e-11
2.08045e-08
-1.50853e-11
2.08133e-08
-1.32658e-11
2.08212e-08
-1.16468e-11
2.08282e-08
-1.02029e-11
2.08345e-08
-8.91118e-12
2.084e-08
-7.75203e-12
2.08449e-08
-6.70928e-12
2.08492e-08
-5.76995e-12
2.08529e-08
-4.92377e-12
2.0856e-08
-4.16279e-12
2.08587e-08
-3.48078e-12
2.0861e-08
-2.8729e-12
2.08629e-08
-2.33515e-12
2.08645e-08
-1.86414e-12
2.08657e-08
-1.45709e-12
2.08667e-08
-1.11144e-12
2.08675e-08
-8.23868e-13
2.08681e-08
-5.94294e-13
2.08686e-08
-4.18987e-13
2.08689e-08
-2.97684e-13
2.08692e-08
-2.37741e-13
2.08695e-08
-2.73493e-13
2.08698e-08
-5.10346e-13
-1.23259e-12
4.51625e-08
2.85466e-09
-4.49617e-08
4.53788e-08
3.2328e-09
4.5559e-08
3.46701e-09
4.56872e-08
3.60178e-09
4.57542e-08
3.66258e-09
4.57535e-08
3.65782e-09
4.5683e-08
3.59562e-09
4.5545e-08
3.48737e-09
4.5345e-08
3.34538e-09
4.50902e-08
3.18146e-09
4.47889e-08
3.00628e-09
4.445e-08
2.82889e-09
4.40816e-08
2.65625e-09
4.36912e-08
2.49313e-09
4.32852e-08
2.34221e-09
4.28687e-08
2.20456e-09
4.24459e-08
2.07998e-09
4.20198e-08
1.96754e-09
4.15928e-08
1.86589e-09
4.11667e-08
1.77355e-09
4.07427e-08
1.6891e-09
4.03219e-08
1.61129e-09
3.99052e-08
1.53906e-09
3.94931e-08
1.47154e-09
3.90864e-08
1.40805e-09
3.86855e-08
1.34804e-09
3.82909e-08
1.29108e-09
3.7903e-08
1.23684e-09
3.75222e-08
1.18503e-09
3.7149e-08
1.1354e-09
3.67837e-08
1.08775e-09
3.64266e-08
1.04189e-09
3.6078e-08
9.97635e-10
3.57383e-08
9.54819e-10
3.54077e-08
9.13279e-10
3.50866e-08
8.72863e-10
3.47752e-08
8.33421e-10
3.44739e-08
7.94813e-10
3.41829e-08
7.56904e-10
3.39025e-08
7.19567e-10
3.3633e-08
6.82685e-10
3.33747e-08
6.46147e-10
3.31279e-08
6.09852e-10
3.2893e-08
5.7371e-10
3.26702e-08
5.37639e-10
3.24599e-08
5.01562e-10
3.22624e-08
4.65407e-10
3.2078e-08
4.29093e-10
3.19071e-08
3.9253e-10
3.17501e-08
3.55609e-10
3.16072e-08
3.18211e-10
3.14788e-08
2.80236e-10
3.13648e-08
2.4168e-10
3.12652e-08
2.02737e-10
3.11797e-08
1.63937e-10
3.11075e-08
1.26162e-10
3.10473e-08
9.04969e-11
3.09964e-08
5.77602e-11
3.09555e-08
2.75207e-11
3.09275e-08
-1.11769e-13
3.09119e-08
-2.29199e-11
3.09064e-08
-3.98441e-11
3.09091e-08
-5.18314e-11
3.09181e-08
-5.96987e-11
3.0932e-08
-6.41657e-11
3.09494e-08
-6.59191e-11
3.09692e-08
-6.55994e-11
3.09906e-08
-6.37802e-11
3.10128e-08
-6.09479e-11
3.10352e-08
-5.74939e-11
3.10575e-08
-5.37182e-11
3.10793e-08
-4.98391e-11
3.11004e-08
-4.60064e-11
3.11207e-08
-4.23153e-11
3.11401e-08
-3.88194e-11
3.11585e-08
-3.55424e-11
3.11759e-08
-3.24875e-11
3.11923e-08
-2.96454e-11
3.12077e-08
-2.69997e-11
3.1222e-08
-2.45319e-11
3.12353e-08
-2.22236e-11
3.12476e-08
-2.00584e-11
3.12589e-08
-1.80235e-11
3.12693e-08
-1.61091e-11
3.12787e-08
-1.43091e-11
3.12871e-08
-1.26201e-11
3.12947e-08
-1.10412e-11
3.13014e-08
-9.573e-12
3.13073e-08
-8.21732e-12
3.13124e-08
-6.97638e-12
3.13168e-08
-5.85246e-12
3.13205e-08
-4.84741e-12
3.13236e-08
-3.96186e-12
3.13262e-08
-3.19717e-12
3.13284e-08
-2.55229e-12
3.13301e-08
-2.02902e-12
3.13315e-08
-1.6386e-12
3.13327e-08
-1.42037e-12
3.13336e-08
-1.49958e-12
-2.27125e-12
5.00507e-08
2.68379e-09
-4.98798e-08
5.02642e-08
3.01927e-09
5.04786e-08
3.25264e-09
5.06773e-08
3.40305e-09
5.08512e-08
3.48868e-09
5.09915e-08
3.51756e-09
5.10913e-08
3.49583e-09
5.11469e-08
3.43177e-09
5.11573e-08
3.3349e-09
5.11241e-08
3.21473e-09
5.10503e-08
3.08008e-09
5.09405e-08
2.93872e-09
5.07997e-08
2.79699e-09
5.06333e-08
2.65956e-09
5.0446e-08
2.52949e-09
5.02421e-08
2.40841e-09
5.00253e-08
2.29687e-09
4.97982e-08
2.19461e-09
4.95632e-08
2.10091e-09
4.93219e-08
2.01483e-09
4.90757e-08
1.93534e-09
4.88255e-08
1.8615e-09
4.85721e-08
1.79243e-09
4.83162e-08
1.72741e-09
4.80584e-08
1.66584e-09
4.77992e-08
1.60723e-09
4.75391e-08
1.55119e-09
4.72786e-08
1.49738e-09
4.70181e-08
1.44554e-09
4.67581e-08
1.39543e-09
4.6499e-08
1.34684e-09
4.62413e-08
1.29958e-09
4.59855e-08
1.25346e-09
4.57319e-08
1.20832e-09
4.54812e-08
1.164e-09
4.52338e-08
1.12033e-09
4.499e-08
1.07715e-09
4.47505e-08
1.03433e-09
4.45157e-08
9.9171e-10
4.42861e-08
9.49163e-10
4.40622e-08
9.06561e-10
4.38446e-08
8.63784e-10
4.36337e-08
8.20724e-10
4.34302e-08
7.7728e-10
4.32344e-08
7.33365e-10
4.30471e-08
6.88894e-10
4.28687e-08
6.43792e-10
4.26998e-08
5.9798e-10
4.2541e-08
5.51379e-10
4.23927e-08
5.03912e-10
4.22554e-08
4.55521e-10
4.21294e-08
4.06218e-10
4.20149e-08
3.56154e-10
4.19119e-08
3.05717e-10
4.18203e-08
2.55615e-10
4.17396e-08
2.06862e-10
4.16694e-08
1.60627e-10
4.16092e-08
1.17969e-10
4.15571e-08
7.96129e-11
4.15113e-08
4.57249e-11
4.14727e-08
1.56338e-11
4.14431e-08
-1.02569e-11
4.14222e-08
-3.08491e-11
4.14088e-08
-4.63795e-11
4.14023e-08
-5.75835e-11
4.14015e-08
-6.51462e-11
4.14056e-08
-6.97387e-11
4.14138e-08
-7.19954e-11
4.14254e-08
-7.2482e-11
4.14396e-08
-7.16781e-11
4.14558e-08
-6.99727e-11
4.14736e-08
-6.76693e-11
4.14926e-08
-6.49949e-11
4.15124e-08
-6.21124e-11
4.15327e-08
-5.91326e-11
4.15533e-08
-5.61263e-11
4.1574e-08
-5.31345e-11
4.15945e-08
-5.01777e-11
4.16148e-08
-4.72627e-11
4.16346e-08
-4.43887e-11
4.1654e-08
-4.15514e-11
4.16726e-08
-3.87466e-11
4.16906e-08
-3.59716e-11
4.17077e-08
-3.32271e-11
4.17239e-08
-3.05174e-11
4.17392e-08
-2.78506e-11
4.17533e-08
-2.52384e-11
4.17665e-08
-2.26953e-11
4.17785e-08
-2.02379e-11
4.17894e-08
-1.78844e-11
4.17992e-08
-1.5653e-11
4.18079e-08
-1.35615e-11
4.18156e-08
-1.16262e-11
4.18222e-08
-9.86219e-12
4.1828e-08
-8.28162e-12
4.18328e-08
-6.89668e-12
4.18369e-08
-5.72487e-12
4.18403e-08
-4.80422e-12
4.18431e-08
-4.24782e-12
-4.44202e-12
5.54458e-08
2.54485e-09
-5.53069e-08
5.56312e-08
2.83389e-09
5.58313e-08
3.05256e-09
5.60296e-08
3.20477e-09
5.62173e-08
3.30094e-09
5.63871e-08
3.34781e-09
5.65325e-08
3.35042e-09
5.66492e-08
3.31504e-09
5.6735e-08
3.24909e-09
5.67895e-08
3.16022e-09
5.68139e-08
3.05571e-09
5.68105e-08
2.9421e-09
5.67826e-08
2.82494e-09
5.67336e-08
2.70855e-09
5.66671e-08
2.59599e-09
5.65863e-08
2.4892e-09
5.6494e-08
2.38915e-09
5.63925e-08
2.29609e-09
5.62836e-08
2.20981e-09
5.61687e-08
2.12978e-09
5.60487e-08
2.05534e-09
5.59244e-08
1.98581e-09
5.57963e-08
1.92052e-09
5.56648e-08
1.85888e-09
5.55303e-08
1.80037e-09
5.53929e-08
1.74456e-09
5.52531e-08
1.69106e-09
5.51109e-08
1.63956e-09
5.49666e-08
1.58978e-09
5.48206e-08
1.54148e-09
5.4673e-08
1.49444e-09
5.45241e-08
1.44845e-09
5.43743e-08
1.40331e-09
5.42237e-08
1.35885e-09
5.40729e-08
1.31487e-09
5.3922e-08
1.2712e-09
5.37715e-08
1.22768e-09
5.36217e-08
1.18412e-09
5.3473e-08
1.14039e-09
5.33259e-08
1.09631e-09
5.31807e-08
1.05176e-09
5.30379e-08
1.00658e-09
5.28979e-08
9.60666e-10
5.27613e-08
9.13894e-10
5.26285e-08
8.66166e-10
5.25e-08
8.1739e-10
5.23763e-08
7.67484e-10
5.22579e-08
7.16376e-10
5.21453e-08
6.64008e-10
5.20389e-08
6.10342e-10
5.1939e-08
5.55395e-10
5.18459e-08
4.99275e-10
5.17598e-08
4.42258e-10
5.16807e-08
3.84852e-10
5.16085e-08
3.27847e-10
5.1543e-08
2.72281e-10
5.14844e-08
2.19311e-10
5.14323e-08
1.70016e-10
5.13867e-08
1.25233e-10
5.13469e-08
8.54861e-11
5.13116e-08
5.09256e-11
5.12803e-08
2.11049e-11
5.12537e-08
-4.29341e-12
5.12323e-08
-2.49727e-11
5.12159e-08
-4.11359e-11
5.12041e-08
-5.33737e-11
5.11967e-08
-6.22974e-11
5.11932e-08
-6.85009e-11
5.11932e-08
-7.25338e-11
5.11964e-08
-7.48795e-11
5.12024e-08
-7.59444e-11
5.12108e-08
-7.60578e-11
5.12213e-08
-7.54766e-11
5.12335e-08
-7.43943e-11
5.12474e-08
-7.29505e-11
5.12625e-08
-7.12418e-11
5.12787e-08
-6.93307e-11
5.12957e-08
-6.72551e-11
5.13135e-08
-6.5035e-11
5.13318e-08
-6.26794e-11
5.13504e-08
-6.0191e-11
5.13693e-08
-5.75701e-11
5.13881e-08
-5.4818e-11
5.14068e-08
-5.19385e-11
5.14252e-08
-4.89403e-11
5.14432e-08
-4.58367e-11
5.14606e-08
-4.26469e-11
5.14773e-08
-3.93953e-11
5.14932e-08
-3.61113e-11
5.15082e-08
-3.28281e-11
5.15221e-08
-2.95819e-11
5.15349e-08
-2.64109e-11
5.15467e-08
-2.33528e-11
5.15572e-08
-2.04452e-11
5.15667e-08
-1.77226e-11
5.1575e-08
-1.52171e-11
5.15822e-08
-1.29602e-11
5.15884e-08
-1.0987e-11
5.15935e-08
-9.34915e-12
-8.13405e-12
6.14109e-08
2.43111e-09
-6.12971e-08
6.15668e-08
2.67794e-09
6.17426e-08
2.87681e-09
6.19228e-08
3.02458e-09
6.20984e-08
3.12534e-09
6.22627e-08
3.18351e-09
6.24101e-08
3.20301e-09
6.25366e-08
3.18852e-09
6.264e-08
3.14573e-09
6.27195e-08
3.08074e-09
6.27757e-08
2.99952e-09
6.28102e-08
2.90758e-09
6.28254e-08
2.80974e-09
6.2824e-08
2.70992e-09
6.28089e-08
2.61112e-09
6.27827e-08
2.5154e-09
6.27478e-08
2.42405e-09
6.27062e-08
2.33772e-09
6.26594e-08
2.25658e-09
6.26087e-08
2.1805e-09
6.25549e-08
2.10915e-09
6.24986e-08
2.04209e-09
6.24402e-08
1.97887e-09
6.23801e-08
1.91903e-09
6.23183e-08
1.86216e-09
6.2255e-08
1.80788e-09
6.21902e-08
1.75585e-09
6.2124e-08
1.70576e-09
6.20564e-08
1.65734e-09
6.19876e-08
1.61034e-09
6.19175e-08
1.56453e-09
6.18462e-08
1.5197e-09
6.17739e-08
1.47562e-09
6.17007e-08
1.4321e-09
6.16266e-08
1.38894e-09
6.15519e-08
1.34595e-09
6.14766e-08
1.30293e-09
6.1401e-08
1.25971e-09
6.13253e-08
1.21611e-09
6.12497e-08
1.17195e-09
6.11743e-08
1.12709e-09
6.10996e-08
1.08135e-09
6.10256e-08
1.03462e-09
6.09527e-08
9.8675e-10
6.08813e-08
9.37639e-10
6.08115e-08
8.87184e-10
6.07437e-08
8.35304e-10
6.06781e-08
7.81938e-10
6.06151e-08
7.27047e-10
6.05548e-08
6.70639e-10
6.04974e-08
6.12787e-10
6.0443e-08
5.53675e-10
6.03916e-08
4.93649e-10
6.03432e-08
4.33266e-10
6.02977e-08
3.73317e-10
6.02552e-08
3.14789e-10
6.02157e-08
2.58758e-10
6.01795e-08
2.06243e-10
6.01467e-08
1.58077e-10
6.01173e-08
1.1485e-10
6.00914e-08
7.6877e-11
6.00683e-08
4.41561e-11
6.00477e-08
1.62913e-11
6.00298e-08
-7.07611e-12
6.00148e-08
-2.61169e-11
6.00027e-08
-4.12267e-11
5.99933e-08
-5.29425e-11
5.99866e-08
-6.18071e-11
5.99824e-08
-6.83334e-11
5.99805e-08
-7.29842e-11
5.99807e-08
-7.61597e-11
5.99829e-08
-7.81924e-11
5.99867e-08
-7.93493e-11
5.99922e-08
-7.98373e-11
5.9999e-08
-7.98108e-11
6.00072e-08
-7.93796e-11
6.00165e-08
-7.8618e-11
6.00268e-08
-7.75727e-11
6.0038e-08
-7.62693e-11
6.00501e-08
-7.47196e-11
6.00628e-08
-7.2926e-11
6.00761e-08
-7.08867e-11
6.00899e-08
-6.85989e-11
6.0104e-08
-6.60618e-11
6.01183e-08
-6.32788e-11
6.01328e-08
-6.02594e-11
6.01471e-08
-5.70198e-11
6.01613e-08
-5.35839e-11
6.01752e-08
-4.9983e-11
6.01886e-08
-4.62559e-11
6.02015e-08
-4.24472e-11
6.02137e-08
-3.8607e-11
6.02251e-08
-3.47883e-11
6.02357e-08
-3.10459e-11
6.02454e-08
-2.74337e-11
6.02542e-08
-2.40025e-11
6.02621e-08
-2.07973e-11
6.02689e-08
-1.78484e-11
6.02747e-08
-1.51321e-11
-1.23798e-11
6.80048e-08
2.33767e-09
-6.79114e-08
6.81336e-08
2.54921e-09
6.82828e-08
2.72761e-09
6.84397e-08
2.86763e-09
6.85957e-08
2.96936e-09
6.87443e-08
3.03487e-09
6.88805e-08
3.06681e-09
6.90005e-08
3.06853e-09
6.9102e-08
3.04423e-09
6.91841e-08
2.99866e-09
6.9247e-08
2.93662e-09
6.92919e-08
2.86269e-09
6.93206e-08
2.78102e-09
6.93354e-08
2.69512e-09
6.93387e-08
2.60785e-09
6.93327e-08
2.52133e-09
6.93197e-08
2.43707e-09
6.93014e-08
2.35599e-09
6.92794e-08
2.27862e-09
6.92548e-08
2.20514e-09
6.92284e-08
2.13552e-09
6.92009e-08
2.06957e-09
6.91728e-08
2.00703e-09
6.91442e-08
1.9476e-09
6.91154e-08
1.89098e-09
6.90864e-08
1.83687e-09
6.90573e-08
1.78497e-09
6.9028e-08
1.73501e-09
6.89986e-08
1.68674e-09
6.89691e-08
1.63991e-09
6.89393e-08
1.59429e-09
6.89093e-08
1.54966e-09
6.88792e-08
1.5058e-09
6.88487e-08
1.4625e-09
6.88181e-08
1.41956e-09
6.87873e-08
1.37676e-09
6.87563e-08
1.33392e-09
6.87252e-08
1.29084e-09
6.8694e-08
1.24733e-09
6.86627e-08
1.20322e-09
6.86315e-08
1.15832e-09
6.86003e-08
1.11249e-09
6.85694e-08
1.06556e-09
6.85387e-08
1.01742e-09
6.85084e-08
9.67934e-10
6.84786e-08
9.1701e-10
6.84493e-08
8.6457e-10
6.84207e-08
8.10565e-10
6.83928e-08
7.54984e-10
6.83655e-08
6.97866e-10
6.8339e-08
6.39331e-10
6.83131e-08
5.79608e-10
6.82876e-08
5.19072e-10
6.82626e-08
4.5828e-10
6.8238e-08
3.97974e-10
6.82137e-08
3.39047e-10
6.819e-08
2.82462e-10
6.81671e-08
2.29139e-10
6.81453e-08
1.79859e-10
6.8125e-08
1.35205e-10
6.81063e-08
9.55329e-11
6.80895e-08
6.09633e-11
6.80744e-08
3.1361e-11
6.8061e-08
6.35956e-12
6.80493e-08
-1.44225e-11
6.80394e-08
-3.13393e-11
6.80313e-08
-4.48579e-11
6.8025e-08
-5.54689e-11
6.80203e-08
-6.3648e-11
6.80172e-08
-6.98335e-11
6.80154e-08
-7.44136e-11
6.80149e-08
-7.77193e-11
6.80156e-08
-8.00233e-11
6.80173e-08
-8.15426e-11
6.802e-08
-8.2444e-11
6.80234e-08
-8.28502e-11
6.80277e-08
-8.28473e-11
6.80326e-08
-8.24915e-11
6.80381e-08
-8.18159e-11
6.80442e-08
-8.08364e-11
6.80509e-08
-7.95574e-11
6.8058e-08
-7.79764e-11
6.80654e-08
-7.60878e-11
6.80733e-08
-7.38866e-11
6.80814e-08
-7.13712e-11
6.80897e-08
-6.85456e-11
6.80981e-08
-6.5421e-11
6.81065e-08
-6.20171e-11
6.81149e-08
-5.83629e-11
6.81231e-08
-5.44963e-11
6.81311e-08
-5.0464e-11
6.81388e-08
-4.63199e-11
6.81462e-08
-4.2124e-11
6.81531e-08
-3.794e-11
6.81595e-08
-3.38322e-11
6.81653e-08
-2.98623e-11
6.81706e-08
-2.60831e-11
6.81753e-08
-2.25216e-11
6.81793e-08
-1.91224e-11
-1.55665e-11
6.76737e-08
2.26857e-09
-6.76046e-08
6.77685e-08
2.45448e-09
6.78801e-08
2.61599e-09
6.79998e-08
2.74786e-09
6.81209e-08
2.84834e-09
6.82379e-08
2.91788e-09
6.83467e-08
2.958e-09
6.84441e-08
2.97107e-09
6.85282e-08
2.96019e-09
6.85978e-08
2.92902e-09
6.8653e-08
2.88145e-09
6.86943e-08
2.82132e-09
6.87232e-08
2.75219e-09
6.8741e-08
2.67725e-09
6.87497e-08
2.59915e-09
6.87511e-08
2.52002e-09
6.87467e-08
2.44147e-09
6.8738e-08
2.36463e-09
6.87264e-08
2.29024e-09
6.87128e-08
2.21873e-09
6.86981e-08
2.15028e-09
6.86827e-08
2.08493e-09
6.86671e-08
2.02258e-09
6.86517e-08
1.96305e-09
6.86365e-08
1.90615e-09
6.86217e-08
1.85165e-09
6.86074e-08
1.79931e-09
6.85935e-08
1.74889e-09
6.85801e-08
1.70017e-09
6.85671e-08
1.6529e-09
6.85545e-08
1.60688e-09
6.85423e-08
1.56188e-09
6.85304e-08
1.51768e-09
6.85188e-08
1.47408e-09
6.85075e-08
1.43086e-09
6.84965e-08
1.38781e-09
6.84857e-08
1.34475e-09
6.8475e-08
1.30147e-09
6.84646e-08
1.25778e-09
6.84543e-08
1.2135e-09
6.84442e-08
1.16846e-09
6.84341e-08
1.12249e-09
6.84243e-08
1.07544e-09
6.84145e-08
1.02718e-09
6.84049e-08
9.77595e-10
6.83953e-08
9.26588e-10
6.83857e-08
8.74092e-10
6.83762e-08
8.20073e-10
6.83667e-08
7.64539e-10
6.8357e-08
7.07557e-10
6.83471e-08
6.49276e-10
6.83367e-08
5.89946e-10
6.83258e-08
5.2995e-10
6.83143e-08
4.69821e-10
6.8302e-08
4.10241e-10
6.82891e-08
3.52012e-10
6.82755e-08
2.95989e-10
6.82617e-08
2.42998e-10
6.82478e-08
1.93755e-10
6.82342e-08
1.48816e-10
6.82212e-08
1.08543e-10
6.8209e-08
7.30985e-11
6.81979e-08
4.24421e-11
6.8188e-08
1.63353e-11
6.81791e-08
-5.58496e-12
6.81715e-08
-2.37023e-11
6.81651e-08
-3.84294e-11
6.81598e-08
-5.02149e-11
6.81557e-08
-5.95028e-11
6.81525e-08
-6.67099e-11
6.81503e-08
-7.22123e-11
6.8149e-08
-7.63375e-11
6.81483e-08
-7.93612e-11
6.81483e-08
-8.1508e-11
6.81488e-08
-8.29546e-11
6.81498e-08
-8.38348e-11
6.81512e-08
-8.42452e-11
6.81529e-08
-8.42515e-11
6.8155e-08
-8.38948e-11
6.81574e-08
-8.31969e-11
6.816e-08
-8.21662e-11
6.81628e-08
-8.08024e-11
6.81658e-08
-7.91005e-11
6.8169e-08
-7.70548e-11
6.81723e-08
-7.46621e-11
6.81756e-08
-7.19245e-11
6.81791e-08
-6.88511e-11
6.81825e-08
-6.546e-11
6.81859e-08
-6.1779e-11
6.81893e-08
-5.7846e-11
6.81925e-08
-5.37086e-11
6.81956e-08
-4.9423e-11
6.81986e-08
-4.50527e-11
6.82013e-08
-4.06656e-11
6.82038e-08
-3.63313e-11
6.8206e-08
-3.21171e-11
6.8208e-08
-2.80803e-11
6.82098e-08
-2.42525e-11
6.82112e-08
-2.05966e-11
-1.69292e-11
8.54894e-08
2.20675e-09
-8.54276e-08
8.55733e-08
2.37061e-09
8.5673e-08
2.5163e-09
8.57816e-08
2.63928e-09
8.58928e-08
2.73705e-09
8.60018e-08
2.8089e-09
8.61044e-08
2.85537e-09
8.61976e-08
2.87789e-09
8.62792e-08
2.87859e-09
8.63481e-08
2.86019e-09
8.64038e-08
2.8257e-09
8.64469e-08
2.77826e-09
8.64782e-08
2.72087e-09
8.64991e-08
2.65633e-09
8.65112e-08
2.5871e-09
8.65159e-08
2.51524e-09
8.6515e-08
2.44241e-09
8.65097e-08
2.36988e-09
8.65014e-08
2.29858e-09
8.6491e-08
2.22913e-09
8.64793e-08
2.16194e-09
8.6467e-08
2.09721e-09
8.64546e-08
2.03501e-09
8.64424e-08
1.9753e-09
8.64305e-08
1.91799e-09
8.64192e-08
1.86293e-09
8.64086e-08
1.80994e-09
8.63986e-08
1.75883e-09
8.63894e-08
1.7094e-09
8.63809e-08
1.66144e-09
8.6373e-08
1.61473e-09
8.63658e-08
1.56907e-09
8.63593e-08
1.52425e-09
8.63533e-08
1.48006e-09
8.63479e-08
1.43628e-09
8.63429e-08
1.39273e-09
8.63385e-08
1.34919e-09
8.63345e-08
1.30548e-09
8.63309e-08
1.2614e-09
8.63276e-08
1.21678e-09
8.63246e-08
1.17144e-09
8.63219e-08
1.12522e-09
8.63194e-08
1.07797e-09
8.6317e-08
1.02957e-09
8.63146e-08
9.79907e-10
8.63123e-08
9.28892e-10
8.631e-08
8.76473e-10
8.63074e-08
8.22632e-10
8.63045e-08
7.67397e-10
8.63012e-08
7.10861e-10
8.62973e-08
6.53191e-10
8.62926e-08
5.94651e-10
8.6287e-08
5.35618e-10
8.62802e-08
4.76594e-10
8.62722e-08
4.18194e-10
8.62631e-08
3.61126e-10
8.6253e-08
3.06141e-10
8.6242e-08
2.53967e-10
8.62305e-08
2.05249e-10
8.62188e-08
1.60504e-10
8.62073e-08
1.20088e-10
8.61962e-08
8.41862e-11
8.61858e-08
5.28117e-11
8.61763e-08
2.58182e-11
8.61678e-08
2.92339e-12
8.61603e-08
-1.62331e-11
8.61539e-08
-3.20166e-11
8.61486e-08
-4.48378e-11
8.61442e-08
-5.51069e-11
8.61407e-08
-6.3217e-11
8.6138e-08
-6.953e-11
8.6136e-08
-7.43675e-11
8.61347e-08
-7.80061e-11
8.61338e-08
-8.06759e-11
8.61334e-08
-8.25621e-11
8.61334e-08
-8.38083e-11
8.61337e-08
-8.45214e-11
8.61342e-08
-8.47765e-11
8.61349e-08
-8.4623e-11
8.61358e-08
-8.40895e-11
8.61369e-08
-8.31894e-11
8.6138e-08
-8.1926e-11
8.61392e-08
-8.02966e-11
8.61404e-08
-7.82969e-11
8.61417e-08
-7.59244e-11
8.61429e-08
-7.31814e-11
8.61442e-08
-7.00777e-11
8.61453e-08
-6.6632e-11
8.61464e-08
-6.28734e-11
8.61474e-08
-5.8842e-11
8.61483e-08
-5.45879e-11
8.61491e-08
-5.01709e-11
8.61497e-08
-4.56584e-11
8.61501e-08
-4.11229e-11
8.61504e-08
-3.66389e-11
8.61506e-08
-3.22789e-11
8.61506e-08
-2.81075e-11
8.61505e-08
-2.4172e-11
8.61504e-08
-2.04863e-11
-1.70609e-11
1.08016e-07
2.16077e-09
-1.0797e-07
1.08078e-07
2.30841e-09
1.08153e-07
2.44169e-09
1.08236e-07
2.55686e-09
1.08321e-07
2.65132e-09
1.08406e-07
2.72377e-09
1.08488e-07
2.77407e-09
1.08563e-07
2.80296e-09
1.08629e-07
2.81189e-09
1.08687e-07
2.80285e-09
1.08734e-07
2.7782e-09
1.08772e-07
2.74049e-09
1.088e-07
2.6923e-09
1.08821e-07
2.63607e-09
1.08834e-07
2.57407e-09
1.08841e-07
2.50827e-09
1.08843e-07
2.44032e-09
1.08841e-07
2.37157e-09
1.08837e-07
2.30306e-09
1.0883e-07
2.23558e-09
1.08823e-07
2.16965e-09
1.08814e-07
2.10563e-09
1.08805e-07
2.04371e-09
1.08797e-07
1.98398e-09
1.08788e-07
1.92641e-09
1.0878e-07
1.87093e-09
1.08773e-07
1.81743e-09
1.08766e-07
1.76574e-09
1.0876e-07
1.7157e-09
1.08754e-07
1.66711e-09
1.08749e-07
1.61978e-09
1.08744e-07
1.57351e-09
1.08741e-07
1.52809e-09
1.08737e-07
1.48333e-09
1.08735e-07
1.43901e-09
1.08732e-07
1.39495e-09
1.08731e-07
1.35093e-09
1.08729e-07
1.30678e-09
1.08728e-07
1.2623e-09
1.08728e-07
1.21732e-09
1.08728e-07
1.17166e-09
1.08728e-07
1.12518e-09
1.08728e-07
1.07772e-09
1.08728e-07
1.02917e-09
1.08729e-07
9.79428e-10
1.08729e-07
9.28413e-10
1.0873e-07
8.76083e-10
1.0873e-07
8.22435e-10
1.0873e-07
7.67516e-10
1.08729e-07
7.11434e-10
1.08728e-07
6.5437e-10
1.08726e-07
5.96594e-10
1.08723e-07
5.38474e-10
1.08719e-07
4.80479e-10
1.08714e-07
4.23171e-10
1.08708e-07
3.67186e-10
1.08701e-07
3.13189e-10
1.08693e-07
2.61833e-10
1.08685e-07
2.13702e-10
1.08676e-07
1.69278e-10
1.08667e-07
1.28907e-10
1.08659e-07
9.27864e-11
1.08651e-07
6.09623e-11
1.08643e-07
3.33425e-11
1.08636e-07
9.71458e-12
1.0863e-07
-1.02424e-11
1.08625e-07
-2.68477e-11
1.08621e-07
-4.04819e-11
1.08617e-07
-5.15264e-11
1.08614e-07
-6.03535e-11
1.08612e-07
-6.73119e-11
1.08611e-07
-7.27171e-11
1.08609e-07
-7.68444e-11
1.08609e-07
-7.99271e-11
1.08608e-07
-8.21559e-11
1.08608e-07
-8.36814e-11
1.08608e-07
-8.46174e-11
1.08608e-07
-8.50461e-11
1.08609e-07
-8.50225e-11
1.08609e-07
-8.458e-11
1.0861e-07
-8.37357e-11
1.0861e-07
-8.24954e-11
1.08611e-07
-8.08581e-11
1.08612e-07
-7.88208e-11
1.08612e-07
-7.63821e-11
1.08612e-07
-7.35458e-11
1.08613e-07
-7.03232e-11
1.08613e-07
-6.67357e-11
1.08613e-07
-6.28159e-11
1.08612e-07
-5.86079e-11
1.08612e-07
-5.41673e-11
1.08611e-07
-4.95596e-11
1.08611e-07
-4.48585e-11
1.0861e-07
-4.01431e-11
1.08608e-07
-3.5495e-11
1.08607e-07
-3.0995e-11
1.08606e-07
-2.67199e-11
1.08604e-07
-2.27406e-11
1.08603e-07
-1.91196e-11
-1.59102e-11
1.36496e-07
-1.36481e-07
1.36518e-07
1.36546e-07
1.36579e-07
1.36614e-07
1.3665e-07
1.36686e-07
1.3672e-07
1.36751e-07
1.3678e-07
1.36804e-07
1.36825e-07
1.36842e-07
1.36856e-07
1.36866e-07
1.36874e-07
1.3688e-07
1.36883e-07
1.36885e-07
1.36886e-07
1.36886e-07
1.36886e-07
1.36885e-07
1.36884e-07
1.36883e-07
1.36882e-07
1.36881e-07
1.3688e-07
1.3688e-07
1.36879e-07
1.36879e-07
1.36879e-07
1.36879e-07
1.36879e-07
1.3688e-07
1.36881e-07
1.36882e-07
1.36883e-07
1.36884e-07
1.36886e-07
1.36887e-07
1.36889e-07
1.36891e-07
1.36893e-07
1.36895e-07
1.36896e-07
1.36898e-07
1.369e-07
1.36902e-07
1.36903e-07
1.36904e-07
1.36905e-07
1.36905e-07
1.36904e-07
1.36903e-07
1.36902e-07
1.369e-07
1.36897e-07
1.36894e-07
1.36891e-07
1.36888e-07
1.36885e-07
1.36882e-07
1.36879e-07
1.36877e-07
1.36874e-07
1.36872e-07
1.36871e-07
1.36869e-07
1.36868e-07
1.36868e-07
1.36867e-07
1.36867e-07
1.36867e-07
1.36867e-07
1.36868e-07
1.36868e-07
1.36868e-07
1.36869e-07
1.36869e-07
1.3687e-07
1.3687e-07
1.3687e-07
1.36871e-07
1.36871e-07
1.3687e-07
1.3687e-07
1.3687e-07
1.36869e-07
1.36868e-07
1.36866e-07
1.36865e-07
1.36863e-07
1.36861e-07
1.36858e-07
1.36856e-07
1.36853e-07
1.3685e-07
1.36848e-07
3.44604e-08
2.19871e-12
3.44581e-08
4.82503e-12
3.44546e-08
8.01265e-12
3.44499e-08
1.1883e-11
3.44437e-08
1.65739e-11
3.44357e-08
2.22436e-11
3.44256e-08
2.90726e-11
3.4413e-08
3.72636e-11
3.43975e-08
4.70436e-11
3.43785e-08
5.86674e-11
3.43554e-08
7.24231e-11
3.43274e-08
8.86413e-11
3.42938e-08
1.0771e-10
3.42534e-08
1.30102e-10
3.42052e-08
1.56417e-10
3.41474e-08
1.87461e-10
3.40783e-08
2.24381e-10
3.39949e-08
2.68919e-10
3.38933e-08
3.23906e-10
3.37671e-08
3.94319e-10
3.36048e-08
4.89807e-10
3.33842e-08
6.31673e-10
3.30524e-08
8.76606e-10
3.24443e-08
1.43105e-09
3.06163e-09
3.80474e-08
3.51766e-12
3.80449e-08
7.32916e-12
3.80411e-08
1.17755e-11
3.8036e-08
1.70551e-11
3.80292e-08
2.33756e-11
3.80204e-08
3.09645e-11
3.80094e-08
4.00711e-11
3.79957e-08
5.09693e-11
3.79788e-08
6.3962e-11
3.79581e-08
7.93871e-11
3.79329e-08
9.76258e-11
3.79024e-08
1.19116e-10
3.78657e-08
1.44377e-10
3.78218e-08
1.74044e-10
3.77693e-08
2.08938e-10
3.77066e-08
2.50175e-10
3.76316e-08
2.99368e-10
3.75415e-08
3.58995e-10
3.74323e-08
4.331e-10
3.72979e-08
5.28769e-10
3.71282e-08
6.59442e-10
3.69067e-08
8.53202e-10
3.66083e-08
1.17498e-09
3.62531e-08
1.78627e-09
3.03819e-09
4.20078e-08
4.92198e-12
4.20051e-08
1.00337e-11
4.2001e-08
1.58418e-11
4.19954e-08
2.26486e-11
4.19881e-08
3.07358e-11
4.19786e-08
4.04041e-11
4.19667e-08
5.19773e-11
4.19519e-08
6.58059e-11
4.19336e-08