/*--------------------------------*- C++ -*----------------------------------*\
| =========                 |                                                 |
| \\      /  F ield         | OpenFOAM: The Open Source CFD Toolbox           |
|  \\    /   O peration     | Version:  2.3.0                                 |
|   \\  /    A nd           | Web:      www.OpenFOAM.org                      |
|    \\/     M anipulation  |                                                 |
\*---------------------------------------------------------------------------*/
FoamFile
{
    version     2.0;
    format      ascii;
    class       volVectorField;
    location    "0.25";
    object      U;
}
// * * * * * * * * * * * * * * * * * * * * * * * * * * * * * * * * * * * * * //

dimensions      [0 1 -1 0 0 0 0];

internalField   nonuniform List<vector> 
1500
(
(0.170775 0.00605062 0)
(0.154015 0.00612471 0)
(0.13789 0.00570269 0)
(0.122603 0.00509404 0)
(0.108574 0.00441715 0)
(0.0959839 0.00372702 0)
(0.084853 0.00306246 0)
(0.0751526 0.00245098 0)
(0.0668286 0.00190981 0)
(0.0597938 0.00144814 0)
(0.0539291 0.00106847 0)
(0.0490937 0.000767498 0)
(0.0451373 0.000537473 0)
(0.0419118 0.000367937 0)
(0.0392788 0.000247491 0)
(0.037116 0.000165145 0)
(0.0353198 0.000111157 0)
(0.0338059 7.74106e-05 0)
(0.0325083 5.74776e-05 0)
(0.0313767 4.64976e-05 0)
(0.0303738 4.09654e-05 0)
(0.0294725 3.84795e-05 0)
(0.0286535 3.74886e-05 0)
(0.0279029 3.70597e-05 0)
(0.0272106 3.66836e-05 0)
(0.0265695 3.61226e-05 0)
(0.0259738 3.53008e-05 0)
(0.0254192 3.42285e-05 0)
(0.0249021 3.29551e-05 0)
(0.0244192 3.15413e-05 0)
(0.0239681 3.00444e-05 0)
(0.0235461 2.85118e-05 0)
(0.0231512 2.69797e-05 0)
(0.0227814 2.5473e-05 0)
(0.022435 2.40081e-05 0)
(0.0221104 2.2594e-05 0)
(0.0218062 2.12349e-05 0)
(0.0215212 1.99315e-05 0)
(0.0212544 1.86818e-05 0)
(0.0210048 1.74827e-05 0)
(0.0207717 1.63303e-05 0)
(0.0205542 1.52201e-05 0)
(0.0203519 1.41485e-05 0)
(0.0201643 1.31125e-05 0)
(0.0199908 1.21108e-05 0)
(0.0198311 1.11442e-05 0)
(0.0196848 1.02153e-05 0)
(0.0195517 9.3266e-06 0)
(0.0194314 8.4754e-06 0)
(0.0193238 7.64528e-06 0)
(0.0192286 6.79392e-06 0)
(0.0191461 5.84608e-06 0)
(0.0190769 4.71904e-06 0)
(0.0190223 3.4162e-06 0)
(0.0189842 2.04695e-06 0)
(0.0189658 9.71169e-07 0)
(0.018968 -3.41098e-07 0)
(0.0189844 -1.55225e-06 0)
(0.0190119 -2.84792e-06 0)
(0.0190481 -3.8957e-06 0)
(0.0190904 -4.54867e-06 0)
(0.0191364 -4.86669e-06 0)
(0.0191839 -4.90744e-06 0)
(0.0192309 -4.74393e-06 0)
(0.0192761 -4.43183e-06 0)
(0.0193182 -4.02095e-06 0)
(0.0193565 -3.55664e-06 0)
(0.0193908 -3.07709e-06 0)
(0.0194208 -2.61125e-06 0)
(0.0194468 -2.17864e-06 0)
(0.019469 -1.79061e-06 0)
(0.0194877 -1.45216e-06 0)
(0.0195034 -1.1637e-06 0)
(0.0195165 -9.22585e-07 0)
(0.0195273 -7.24372e-07 0)
(0.0195361 -5.63742e-07 0)
(0.0195434 -4.35141e-07 0)
(0.0195494 -3.33219e-07 0)
(0.0195543 -2.53099e-07 0)
(0.0195583 -1.90533e-07 0)
(0.0195615 -1.4195e-07 0)
(0.0195641 -1.04449e-07 0)
(0.0195661 -7.57147e-08 0)
(0.0195678 -5.37982e-08 0)
(0.0195691 -3.71024e-08 0)
(0.0195701 -2.43836e-08 0)
(0.0195708 -1.47258e-08 0)
(0.0195713 -7.4043e-09 0)
(0.0195717 -1.92938e-09 0)
(0.0195719 2.09359e-09 0)
(0.019572 6.432e-09 0)
(0.019572 1.62174e-08 0)
(0.0195719 2.0851e-08 0)
(0.0195718 2.17265e-08 0)
(0.0195716 2.03717e-08 0)
(0.0195714 1.69059e-08 0)
(0.0195712 8.86553e-09 0)
(0.0195711 -1.17359e-08 0)
(0.0195712 -6.24783e-08 0)
(0.0195727 -2.53826e-07 0)
(0.190004 0.00961224 0)
(0.187742 0.0101599 0)
(0.183905 0.00996753 0)
(0.178827 0.00948852 0)
(0.17299 0.00886131 0)
(0.166733 0.0081335 0)
(0.160275 0.00734492 0)
(0.153782 0.00653285 0)
(0.147389 0.00572912 0)
(0.141199 0.00496038 0)
(0.135282 0.00424787 0)
(0.129683 0.00360652 0)
(0.124425 0.00304459 0)
(0.119514 0.002564 0)
(0.114947 0.00216147 0)
(0.110711 0.00183 0)
(0.106791 0.00156039 0)
(0.103165 0.00134267 0)
(0.0998134 0.00116715 0)
(0.0967138 0.00102511 0)
(0.0938453 0.000909169 0)
(0.0911881 0.000813354 0)
(0.0887238 0.000733008 0)
(0.0864353 0.000664605 0)
(0.0843071 0.000605529 0)
(0.0823252 0.000553861 0)
(0.0804771 0.000508194 0)
(0.0787515 0.00046749 0)
(0.0771382 0.000430966 0)
(0.0756282 0.000398018 0)
(0.0742134 0.000368161 0)
(0.0728866 0.000340996 0)
(0.0716413 0.000316187 0)
(0.0704719 0.000293443 0)
(0.0693733 0.000272507 0)
(0.0683411 0.000253156 0)
(0.0673713 0.000235192 0)
(0.0664604 0.000218438 0)
(0.0656055 0.000202741 0)
(0.0648039 0.000187965 0)
(0.0640534 0.000173991 0)
(0.0633519 0.000160716 0)
(0.0626979 0.000148053 0)
(0.0620898 0.000135926 0)
(0.0615264 0.000124277 0)
(0.0610067 0.000113056 0)
(0.0605298 0.000102226 0)
(0.0600949 9.17489e-05 0)
(0.0597016 8.15749e-05 0)
(0.0593494 7.16185e-05 0)
(0.0590384 6.17284e-05 0)
(0.0587688 5.16606e-05 0)
(0.0585418 4.10877e-05 0)
(0.0583585 2.97046e-05 0)
(0.0582208 1.73181e-05 0)
(0.0581296 4.16815e-06 0)
(0.0580897 -8.54115e-06 0)
(0.0581001 -1.76518e-05 0)
(0.0581447 -2.3154e-05 0)
(0.0582142 -2.66054e-05 0)
(0.0583007 -2.8692e-05 0)
(0.058398 -2.96404e-05 0)
(0.0585006 -2.94512e-05 0)
(0.0586043 -2.82995e-05 0)
(0.0587055 -2.64266e-05 0)
(0.0588017 -2.40813e-05 0)
(0.0588911 -2.14908e-05 0)
(0.0589726 -1.88418e-05 0)
(0.059046 -1.62741e-05 0)
(0.0591111 -1.38809e-05 0)
(0.0591684 -1.17166e-05 0)
(0.0592185 -9.8048e-06 0)
(0.0592619 -8.14752e-06 0)
(0.0592995 -6.73218e-06 0)
(0.0593319 -5.5375e-06 0)
(0.0593597 -4.53808e-06 0)
(0.0593836 -3.7074e-06 0)
(0.0594041 -3.01986e-06 0)
(0.0594216 -2.45202e-06 0)
(0.0594366 -1.98326e-06 0)
(0.0594493 -1.59598e-06 0)
(0.0594601 -1.27557e-06 0)
(0.0594692 -1.01013e-06 0)
(0.0594768 -7.89934e-07 0)
(0.0594831 -6.0717e-07 0)
(0.0594882 -4.55619e-07 0)
(0.0594924 -3.30404e-07 0)
(0.0594957 -2.27762e-07 0)
(0.0594982 -1.44742e-07 0)
(0.0595001 -7.90245e-08 0)
(0.0595015 -2.70194e-08 0)
(0.0595024 1.88365e-08 0)
(0.0595031 5.19084e-08 0)
(0.0595034 7.76534e-08 0)
(0.0595035 9.76799e-08 0)
(0.0595035 9.86422e-08 0)
(0.0595035 7.74136e-08 0)
(0.0595034 8.88157e-09 0)
(0.0595036 -1.98616e-07 0)
(0.0595056 -7.74764e-07 0)
(0.193013 0.00916705 0)
(0.193762 0.0101529 0)
(0.193954 0.0105389 0)
(0.193423 0.0105965 0)
(0.192255 0.0104189 0)
(0.19055 0.0100414 0)
(0.188383 0.00950756 0)
(0.18583 0.00886729 0)
(0.182974 0.0081676 0)
(0.179897 0.00744913 0)
(0.176671 0.00674498 0)
(0.173361 0.0060798 0)
(0.170016 0.00546945 0)
(0.16668 0.00492176 0)
(0.163381 0.00443801 0)
(0.160143 0.00401489 0)
(0.156981 0.00364634 0)
(0.153906 0.00332513 0)
(0.150923 0.00304395 0)
(0.148035 0.00279619 0)
(0.145245 0.00257616 0)
(0.142553 0.00237922 0)
(0.139957 0.00220169 0)
(0.137457 0.00204069 0)
(0.13505 0.00189394 0)
(0.132736 0.00175969 0)
(0.130513 0.0016365 0)
(0.128378 0.0015232 0)
(0.12633 0.00141878 0)
(0.124365 0.00132239 0)
(0.122483 0.00123324 0)
(0.120681 0.00115064 0)
(0.118957 0.00107394 0)
(0.117309 0.00100257 0)
(0.115735 0.000935977 0)
(0.114233 0.000873669 0)
(0.112802 0.000815193 0)
(0.11144 0.000760135 0)
(0.110145 0.000708119 0)
(0.108917 0.000658805 0)
(0.107753 0.000611886 0)
(0.106654 0.00056709 0)
(0.105618 0.000524174 0)
(0.104645 0.000482928 0)
(0.103734 0.000443167 0)
(0.102884 0.000404731 0)
(0.102096 0.000367478 0)
(0.101369 0.000331266 0)
(0.100703 0.000295935 0)
(0.100098 0.000261279 0)
(0.0995549 0.000227027 0)
(0.099074 0.000192836 0)
(0.098656 0.000158334 0)
(0.0983012 0.000123218 0)
(0.0980089 8.74146e-05 0)
(0.0977761 5.11089e-05 0)
(0.0975938 1.54072e-05 0)
(0.0974641 -1.76176e-05 0)
(0.0974073 -4.42082e-05 0)
(0.0974065 -6.18243e-05 0)
(0.0974466 -7.17566e-05 0)
(0.0975165 -7.64911e-05 0)
(0.0976073 -7.76014e-05 0)
(0.0977116 -7.6029e-05 0)
(0.0978232 -7.2416e-05 0)
(0.0979374 -6.73603e-05 0)
(0.0980506 -6.14273e-05 0)
(0.09816 -5.51043e-05 0)
(0.0982637 -4.87728e-05 0)
(0.0983608 -4.27044e-05 0)
(0.0984506 -3.70725e-05 0)
(0.0985329 -3.19714e-05 0)
(0.098608 -2.74355e-05 0)
(0.0986761 -2.34577e-05 0)
(0.0987377 -2.00045e-05 0)
(0.0987932 -1.70271e-05 0)
(0.0988432 -1.44702e-05 0)
(0.0988881 -1.22782e-05 0)
(0.0989284 -1.03985e-05 0)
(0.0989644 -8.7841e-06 0)
(0.0989964 -7.39425e-06 0)
(0.0990249 -6.19462e-06 0)
(0.0990501 -5.15689e-06 0)
(0.0990722 -4.25806e-06 0)
(0.0990915 -3.47959e-06 0)
(0.0991082 -2.80655e-06 0)
(0.0991226 -2.22682e-06 0)
(0.0991348 -1.73063e-06 0)
(0.0991451 -1.30994e-06 0)
(0.0991536 -9.58201e-07 0)
(0.0991605 -6.69888e-07 0)
(0.0991661 -4.40398e-07 0)
(0.0991705 -2.6174e-07 0)
(0.099174 -1.25273e-07 0)
(0.0991766 -2.74803e-08 0)
(0.0991787 2.06401e-08 0)
(0.0991803 1.31087e-08 0)
(0.0991817 -9.33675e-08 0)
(0.0991831 -4.54472e-07 0)
(0.099186 -1.42347e-06 0)
(0.19414 0.00849308 0)
(0.195136 0.00954579 0)
(0.196092 0.0101423 0)
(0.196799 0.0104335 0)
(0.197223 0.0104935 0)
(0.197363 0.0103524 0)
(0.197208 0.0100432 0)
(0.196757 0.00960661 0)
(0.196023 0.00908363 0)
(0.195034 0.0085116 0)
(0.193827 0.00792276 0)
(0.192437 0.007343 0)
(0.190904 0.00679111 0)
(0.18926 0.00627888 0)
(0.187536 0.00581198 0)
(0.185756 0.00539137 0)
(0.183942 0.00501482 0)
(0.182108 0.0046782 0)
(0.180265 0.0043766 0)
(0.178424 0.00410503 0)
(0.176589 0.00385889 0)
(0.174766 0.00363416 0)
(0.172959 0.00342754 0)
(0.171171 0.00323631 0)
(0.169404 0.00305835 0)
(0.167661 0.00289197 0)
(0.165945 0.00273584 0)
(0.164256 0.00258889 0)
(0.162598 0.00245023 0)
(0.160971 0.00231911 0)
(0.159377 0.00219489 0)
(0.157817 0.00207699 0)
(0.156294 0.00196486 0)
(0.154808 0.00185803 0)
(0.15336 0.00175603 0)
(0.151953 0.00165843 0)
(0.150586 0.00156483 0)
(0.149262 0.00147486 0)
(0.147982 0.00138815 0)
(0.146746 0.00130438 0)
(0.145557 0.00122326 0)
(0.144415 0.00114449 0)
(0.143321 0.00106784 0)
(0.142278 0.000993084 0)
(0.141286 0.000920013 0)
(0.140346 0.000848453 0)
(0.139461 0.000778232 0)
(0.138631 0.000709178 0)
(0.137858 0.000641095 0)
(0.137144 0.000573744 0)
(0.13649 0.000506845 0)
(0.135896 0.000440108 0)
(0.135365 0.000373344 0)
(0.134897 0.000306665 0)
(0.13449 0.000240811 0)
(0.134143 0.000177306 0)
(0.133852 0.0001175 0)
(0.13361 6.11994e-05 0)
(0.133402 9.6851e-06 0)
(0.133241 -3.45672e-05 0)
(0.133141 -6.90878e-05 0)
(0.133091 -9.27274e-05 0)
(0.133081 -0.000107104 0)
(0.133103 -0.000114389 0)
(0.133149 -0.00011629 0)
(0.133215 -0.000114162 0)
(0.133294 -0.000109171 0)
(0.133381 -0.000102315 0)
(0.133475 -9.44052e-05 0)
(0.13357 -8.60665e-05 0)
(0.133666 -7.77494e-05 0)
(0.133761 -6.9757e-05 0)
(0.133854 -6.22743e-05 0)
(0.133943 -5.53961e-05 0)
(0.134029 -4.91534e-05 0)
(0.13411 -4.35334e-05 0)
(0.134188 -3.84971e-05 0)
(0.134261 -3.39918e-05 0)
(0.13433 -2.99601e-05 0)
(0.134394 -2.63458e-05 0)
(0.134454 -2.30978e-05 0)
(0.13451 -2.01718e-05 0)
(0.134561 -1.75307e-05 0)
(0.134608 -1.51447e-05 0)
(0.134651 -1.29901e-05 0)
(0.13469 -1.10483e-05 0)
(0.134725 -9.30482e-06 0)
(0.134756 -7.7479e-06 0)
(0.134784 -6.36773e-06 0)
(0.134808 -5.1558e-06 0)
(0.134829 -4.10449e-06 0)
(0.134847 -3.20758e-06 0)
(0.134863 -2.45778e-06 0)
(0.134875 -1.84938e-06 0)
(0.134886 -1.37611e-06 0)
(0.134895 -1.0309e-06 0)
(0.134902 -8.24095e-07 0)
(0.134907 -8.09062e-07 0)
(0.134912 -1.16224e-06 0)
(0.134918 -2.40961e-06 0)
(0.195015 0.00797301 0)
(0.195815 0.00892963 0)
(0.196711 0.00954365 0)
(0.197552 0.00989609 0)
(0.19829 0.0100478 0)
(0.198908 0.0100271 0)
(0.199381 0.00985783 0)
(0.199688 0.0095692 0)
(0.199819 0.00919245 0)
(0.199773 0.00875751 0)
(0.199561 0.00829143 0)
(0.199198 0.00781716 0)
(0.198703 0.00735264 0)
(0.198098 0.0069104 0)
(0.197402 0.00649792 0)
(0.196634 0.00611847 0)
(0.195808 0.0057722 0)
(0.194938 0.00545722 0)
(0.194033 0.00517046 0)
(0.193101 0.00490844 0)
(0.192147 0.00466769 0)
(0.191176 0.00444508 0)
(0.190191 0.00423791 0)
(0.189196 0.00404394 0)
(0.188192 0.00386138 0)
(0.187181 0.00368878 0)
(0.186166 0.00352498 0)
(0.185148 0.00336905 0)
(0.184129 0.00322021 0)
(0.183111 0.0030778 0)
(0.182096 0.00294121 0)
(0.181085 0.00280994 0)
(0.180081 0.00268348 0)
(0.179084 0.00256138 0)
(0.178098 0.00244319 0)
(0.177122 0.00232852 0)
(0.176161 0.00221698 0)
(0.175214 0.00210818 0)
(0.174285 0.00200181 0)
(0.173375 0.00189752 0)
(0.172486 0.00179504 0)
(0.17162 0.00169409 0)
(0.170779 0.00159443 0)
(0.169966 0.00149585 0)
(0.169181 0.00139815 0)
(0.168428 0.00130118 0)
(0.167709 0.00120478 0)
(0.167025 0.00110879 0)
(0.166379 0.00101304 0)
(0.165772 0.000917354 0)
(0.165208 0.000821559 0)
(0.164687 0.000725561 0)
(0.16421 0.000629478 0)
(0.163779 0.000533836 0)
(0.163392 0.00043977 0)
(0.163049 0.000349062 0)
(0.162748 0.000263901 0)
(0.162488 0.000186473 0)
(0.162266 0.000117359 0)
(0.162073 5.55682e-05 0)
(0.1619 1.54743e-06 0)
(0.16176 -4.29824e-05 0)
(0.161657 -7.70884e-05 0)
(0.161585 -0.000101292 0)
(0.161542 -0.000117153 0)
(0.161524 -0.000126269 0)
(0.161528 -0.000130091 0)
(0.16155 -0.000129922 0)
(0.161586 -0.000126887 0)
(0.161635 -0.000121914 0)
(0.161693 -0.000115732 0)
(0.161758 -0.000108892 0)
(0.161829 -0.000101788 0)
(0.161904 -9.46902e-05 0)
(0.161981 -8.77702e-05 0)
(0.162061 -8.11262e-05 0)
(0.162141 -7.48046e-05 0)
(0.162221 -6.88173e-05 0)
(0.1623 -6.31551e-05 0)
(0.162378 -5.77983e-05 0)
(0.162455 -5.27235e-05 0)
(0.162529 -4.79084e-05 0)
(0.162601 -4.33353e-05 0)
(0.162669 -3.89916e-05 0)
(0.162735 -3.48708e-05 0)
(0.162797 -3.09719e-05 0)
(0.162855 -2.7298e-05 0)
(0.162909 -2.38557e-05 0)
(0.162958 -2.06531e-05 0)
(0.163004 -1.76992e-05 0)
(0.163045 -1.50018e-05 0)
(0.163082 -1.25678e-05 0)
(0.163115 -1.04007e-05 0)
(0.163143 -8.50274e-06 0)
(0.163168 -6.87507e-06 0)
(0.163189 -5.51897e-06 0)
(0.163208 -4.44974e-06 0)
(0.163223 -3.72025e-06 0)
(0.163235 -3.50651e-06 0)
(0.163247 -4.40502e-06 0)
(0.195797 0.00753332 0)
(0.196399 0.00835881 0)
(0.197115 0.00894037 0)
(0.197843 0.00930958 0)
(0.198537 0.00950572 0)
(0.199175 0.00955222 0)
(0.199737 0.00946781 0)
(0.200205 0.00927466 0)
(0.200566 0.0089975 0)
(0.200814 0.00866085 0)
(0.200953 0.00828732 0)
(0.200988 0.00789662 0)
(0.200929 0.00750476 0)
(0.20079 0.00712367 0)
(0.200582 0.00676125 0)
(0.200318 0.00642189 0)
(0.200009 0.00610726 0)
(0.199664 0.00581704 0)
(0.19929 0.00554967 0)
(0.198893 0.00530294 0)
(0.198476 0.00507445 0)
(0.198043 0.00486182 0)
(0.197596 0.00466292 0)
(0.197136 0.00447587 0)
(0.196665 0.0042991 0)
(0.196183 0.0041313 0)
(0.195692 0.00397139 0)
(0.195193 0.00381844 0)
(0.194685 0.00367169 0)
(0.194171 0.00353046 0)
(0.193651 0.00339414 0)
(0.193125 0.0032622 0)
(0.192596 0.00313413 0)
(0.192063 0.00300946 0)
(0.191529 0.00288775 0)
(0.190994 0.00276857 0)
(0.190459 0.00265153 0)
(0.189926 0.00253624 0)
(0.189396 0.00242237 0)
(0.18887 0.00230957 0)
(0.188351 0.00219756 0)
(0.187839 0.00208605 0)
(0.187336 0.00197479 0)
(0.186844 0.00186358 0)
(0.186364 0.00175223 0)
(0.185898 0.00164056 0)
(0.185448 0.00152845 0)
(0.185016 0.00141575 0)
(0.184603 0.00130236 0)
(0.184211 0.00118818 0)
(0.183842 0.00107319 0)
(0.183496 0.000957519 0)
(0.183174 0.00084158 0)
(0.182878 0.00072622 0)
(0.182606 0.00061285 0)
(0.182358 0.000503412 0)
(0.182134 0.00040013 0)
(0.181934 0.000305078 0)
(0.181758 0.000219737 0)
(0.181604 0.000145088 0)
(0.181469 8.06355e-05 0)
(0.181349 2.52726e-05 0)
(0.181242 -2.08616e-05 0)
(0.181154 -5.7457e-05 0)
(0.181084 -8.51176e-05 0)
(0.181031 -0.000105069 0)
(0.180994 -0.000118629 0)
(0.180972 -0.000127056 0)
(0.180964 -0.000131487 0)
(0.180968 -0.000132902 0)
(0.180982 -0.000132111 0)
(0.181006 -0.000129757 0)
(0.181038 -0.000126335 0)
(0.181077 -0.000122208 0)
(0.181122 -0.000117634 0)
(0.181172 -0.000112788 0)
(0.181226 -0.000107782 0)
(0.181284 -0.000102682 0)
(0.181345 -9.75234e-05 0)
(0.181408 -9.23232e-05 0)
(0.181473 -8.70876e-05 0)
(0.181539 -8.18195e-05 0)
(0.181605 -7.65233e-05 0)
(0.181672 -7.12077e-05 0)
(0.181737 -6.58876e-05 0)
(0.181802 -6.05845e-05 0)
(0.181865 -5.53267e-05 0)
(0.181925 -5.01484e-05 0)
(0.181984 -4.50881e-05 0)
(0.182039 -4.01874e-05 0)
(0.18209 -3.54891e-05 0)
(0.182139 -3.10356e-05 0)
(0.182183 -2.6866e-05 0)
(0.182223 -2.30165e-05 0)
(0.182259 -1.95184e-05 0)
(0.182291 -1.63985e-05 0)
(0.18232 -1.36862e-05 0)
(0.182344 -1.14282e-05 0)
(0.182365 -9.73981e-06 0)
(0.182385 -8.97202e-06 0)
(0.196508 0.00717081 0)
(0.196957 0.0078736 0)
(0.197508 0.00840661 0)
(0.198094 0.00877254 0)
(0.198674 0.00899091 0)
(0.199225 0.00907854 0)
(0.199728 0.00905043 0)
(0.20017 0.00892392 0)
(0.200541 0.00871869 0)
(0.200835 0.0084548 0)
(0.201052 0.00815113 0)
(0.201196 0.00782449 0)
(0.201273 0.00748901 0)
(0.201293 0.00715572 0)
(0.201264 0.00683252 0)
(0.201196 0.00652451 0)
(0.201096 0.0062344 0)
(0.200971 0.00596311 0)
(0.200828 0.00571031 0)
(0.20067 0.0054749 0)
(0.200502 0.00525536 0)
(0.200325 0.00505003 0)
(0.200141 0.00485728 0)
(0.199951 0.0046756 0)
(0.199755 0.00450365 0)
(0.199554 0.00434023 0)
(0.199348 0.00418434 0)
(0.199138 0.00403508 0)
(0.198924 0.00389168 0)
(0.198705 0.00375345 0)
(0.198482 0.00361977 0)
(0.198255 0.00349005 0)
(0.198024 0.00336377 0)
(0.19779 0.00324043 0)
(0.197554 0.00311954 0)
(0.197314 0.00300065 0)
(0.197073 0.00288333 0)
(0.19683 0.00276717 0)
(0.196587 0.0026518 0)
(0.196343 0.00253685 0)
(0.1961 0.00242199 0)
(0.195858 0.00230692 0)
(0.195618 0.00219137 0)
(0.195381 0.00207512 0)
(0.195148 0.00195794 0)
(0.19492 0.00183969 0)
(0.194697 0.00172021 0)
(0.194482 0.00159942 0)
(0.194273 0.00147724 0)
(0.194073 0.00135368 0)
(0.193882 0.00122886 0)
(0.193701 0.00110309 0)
(0.193529 0.00097698 0)
(0.193367 0.000851567 0)
(0.193215 0.000728351 0)
(0.193072 0.000609247 0)
(0.192939 0.000496362 0)
(0.192815 0.00039167 0)
(0.192702 0.000296729 0)
(0.1926 0.000212578 0)
(0.19251 0.000139618 0)
(0.19243 7.74648e-05 0)
(0.192359 2.51431e-05 0)
(0.192295 -1.80151e-05 0)
(0.192241 -5.24736e-05 0)
(0.192195 -7.91093e-05 0)
(0.192159 -9.90627e-05 0)
(0.192132 -0.000113488 0)
(0.192113 -0.000123458 0)
(0.192102 -0.000129924 0)
(0.192098 -0.000133694 0)
(0.1921 -0.000135428 0)
(0.192109 -0.000135648 0)
(0.192123 -0.000134752 0)
(0.192142 -0.000133033 0)
(0.192165 -0.000130697 0)
(0.192192 -0.000127884 0)
(0.192222 -0.000124682 0)
(0.192256 -0.000121144 0)
(0.192293 -0.000117296 0)
(0.192332 -0.000113151 0)
(0.192373 -0.000108715 0)
(0.192416 -0.000103993 0)
(0.192461 -9.89931e-05 0)
(0.192506 -9.37298e-05 0)
(0.192552 -8.82272e-05 0)
(0.192598 -8.25184e-05 0)
(0.192644 -7.66466e-05 0)
(0.19269 -7.06642e-05 0)
(0.192734 -6.46316e-05 0)
(0.192776 -5.86155e-05 0)
(0.192817 -5.26866e-05 0)
(0.192855 -4.69173e-05 0)
(0.192891 -4.13788e-05 0)
(0.192925 -3.61391e-05 0)
(0.192955 -3.12601e-05 0)
(0.192982 -2.67972e-05 0)
(0.193007 -2.27961e-05 0)
(0.193028 -1.92704e-05 0)
(0.193048 -1.60643e-05 0)
(0.197158 0.00687361 0)
(0.197492 0.00747103 0)
(0.197906 0.00794925 0)
(0.198361 0.00829886 0)
(0.198823 0.00852604 0)
(0.19927 0.00864089 0)
(0.199687 0.00865448 0)
(0.200062 0.00857987 0)
(0.200385 0.0084322 0)
(0.200652 0.00822741 0)
(0.200863 0.00798104 0)
(0.201018 0.00770728 0)
(0.201124 0.00741849 0)
(0.201185 0.00712478 0)
(0.20121 0.00683388 0)
(0.201204 0.00655129 0)
(0.201175 0.0062805 0)
(0.201128 0.00602342 0)
(0.201068 0.00578075 0)
(0.200999 0.00555234 0)
(0.200924 0.00533753 0)
(0.200845 0.00513535 0)
(0.200764 0.0049447 0)
(0.200681 0.00476445 0)
(0.200598 0.00459356 0)
(0.200514 0.00443101 0)
(0.200429 0.00427591 0)
(0.200344 0.00412743 0)
(0.200259 0.00398483 0)
(0.200173 0.00384742 0)
(0.200087 0.00371456 0)
(0.2 0.00358566 0)
(0.199913 0.00346015 0)
(0.199824 0.00333751 0)
(0.199736 0.00321723 0)
(0.199646 0.00309883 0)
(0.199556 0.00298184 0)
(0.199465 0.00286582 0)
(0.199374 0.00275038 0)
(0.199283 0.00263511 0)
(0.199192 0.00251967 0)
(0.199101 0.00240372 0)
(0.19901 0.00228699 0)
(0.19892 0.00216921 0)
(0.19883 0.00205018 0)
(0.198742 0.00192971 0)
(0.198656 0.00180769 0)
(0.198571 0.00168404 0)
(0.198488 0.00155874 0)
(0.198407 0.00143189 0)
(0.198328 0.00130371 0)
(0.198251 0.00117462 0)
(0.198176 0.00104535 0)
(0.198103 0.000916973 0)
(0.19803 0.000790939 0)
(0.197959 0.000669021 0)
(0.197889 0.000553123 0)
(0.19782 0.000445046 0)
(0.197755 0.000346254 0)
(0.197692 0.000257776 0)
(0.197635 0.000180153 0)
(0.197582 0.000113414 0)
(0.197535 5.70161e-05 0)
(0.197493 1.00503e-05 0)
(0.197456 -2.83176e-05 0)
(0.197423 -5.89303e-05 0)
(0.197396 -8.2797e-05 0)
(0.197375 -0.000100975 0)
(0.197358 -0.000114472 0)
(0.197346 -0.000124195 0)
(0.197338 -0.000130935 0)
(0.197334 -0.000135354 0)
(0.197334 -0.000137987 0)
(0.197337 -0.000139256 0)
(0.197342 -0.000139479 0)
(0.197351 -0.000138888 0)
(0.197362 -0.000137647 0)
(0.197374 -0.00013586 0)
(0.197389 -0.000133595 0)
(0.197406 -0.000130885 0)
(0.197424 -0.000127747 0)
(0.197444 -0.000124185 0)
(0.197465 -0.0001202 0)
(0.197487 -0.000115792 0)
(0.19751 -0.000110968 0)
(0.197533 -0.000105744 0)
(0.197558 -0.000100146 0)
(0.197582 -9.42127e-05 0)
(0.197607 -8.7995e-05 0)
(0.197631 -8.15561e-05 0)
(0.197655 -7.49696e-05 0)
(0.197678 -6.83184e-05 0)
(0.1977 -6.16911e-05 0)
(0.197721 -5.51794e-05 0)
(0.197741 -4.88741e-05 0)
(0.197759 -4.28602e-05 0)
(0.197776 -3.72101e-05 0)
(0.197791 -3.19637e-05 0)
(0.197804 -2.70532e-05 0)
(0.197817 -2.20148e-05 0)
(0.197725 0.00663889 0)
(0.197973 0.00715415 0)
(0.198281 0.00758274 0)
(0.198625 0.0079121 0)
(0.198983 0.00814098 0)
(0.199336 0.00827392 0)
(0.199669 0.00831818 0)
(0.199973 0.00828326 0)
(0.20024 0.00818057 0)
(0.200466 0.00802269 0)
(0.200648 0.00782229 0)
(0.200789 0.00759139 0)
(0.200891 0.0073408 0)
(0.200958 0.00707974 0)
(0.200995 0.00681564 0)
(0.201008 0.00655416 0)
(0.201003 0.00629934 0)
(0.200982 0.00605379 0)
(0.200952 0.005819 0)
(0.200914 0.00559561 0)
(0.200872 0.00538367 0)
(0.200827 0.0051828 0)
(0.200781 0.00499239 0)
(0.200736 0.0048117 0)
(0.200691 0.00463994 0)
(0.200647 0.00447633 0)
(0.200604 0.00432007 0)
(0.200563 0.00417044 0)
(0.200523 0.00402674 0)
(0.200484 0.00388831 0)
(0.200446 0.00375452 0)
(0.20041 0.00362478 0)
(0.200374 0.00349852 0)
(0.20034 0.00337521 0)
(0.200306 0.00325433 0)
(0.200274 0.00313538 0)
(0.200241 0.00301788 0)
(0.20021 0.0029014 0)
(0.200179 0.0027855 0)
(0.200148 0.00266978 0)
(0.200118 0.00255389 0)
(0.200088 0.00243748 0)
(0.200059 0.00232026 0)
(0.20003 0.00220197 0)
(0.200001 0.00208238 0)
(0.199973 0.00196135 0)
(0.199945 0.00183874 0)
(0.199917 0.00171452 0)
(0.199889 0.00158872 0)
(0.19986 0.00146149 0)
(0.199832 0.00133312 0)
(0.199802 0.00120409 0)
(0.199771 0.00107517 0)
(0.199739 0.000947398 0)
(0.199704 0.000822118 0)
(0.199668 0.000700917 0)
(0.199629 0.000585476 0)
(0.199589 0.000477392 0)
(0.199548 0.000378007 0)
(0.199508 0.000288298 0)
(0.199468 0.000208832 0)
(0.199431 0.000139749 0)
(0.199397 8.07839e-05 0)
(0.199365 3.12634e-05 0)
(0.199337 -9.67935e-06 0)
(0.199313 -4.29441e-05 0)
(0.199292 -6.94579e-05 0)
(0.199274 -9.01905e-05 0)
(0.19926 -0.000106084 0)
(0.199249 -0.000118004 0)
(0.199241 -0.000126721 0)
(0.199235 -0.000132891 0)
(0.199232 -0.000137061 0)
(0.199231 -0.00013967 0)
(0.199231 -0.000141059 0)
(0.199233 -0.000141485 0)
(0.199236 -0.000141133 0)
(0.199241 -0.000140131 0)
(0.199246 -0.00013856 0)
(0.199253 -0.000136469 0)
(0.19926 -0.000133881 0)
(0.199268 -0.000130805 0)
(0.199276 -0.000127243 0)
(0.199285 -0.000123194 0)
(0.199294 -0.000118663 0)
(0.199304 -0.00011366 0)
(0.199314 -0.000108207 0)
(0.199324 -0.000102339 0)
(0.199334 -9.61038e-05 0)
(0.199344 -8.95635e-05 0)
(0.199354 -8.27929e-05 0)
(0.199364 -7.58782e-05 0)
(0.199373 -6.89139e-05 0)
(0.199381 -6.19996e-05 0)
(0.199389 -5.52358e-05 0)
(0.199396 -4.87171e-05 0)
(0.199403 -4.25228e-05 0)
(0.199409 -3.66913e-05 0)
(0.199413 -3.11437e-05 0)
(0.199419 -2.54868e-05 0)
(0.198288 0.00645064 0)
(0.198463 0.00689845 0)
(0.198679 0.00728084 0)
(0.198924 0.00758618 0)
(0.199183 0.00780987 0)
(0.199442 0.0079526 0)
(0.199691 0.00801837 0)
(0.19992 0.00801366 0)
(0.200124 0.00794682 0)
(0.200299 0.00782751 0)
(0.200444 0.00766588 0)
(0.200559 0.00747192 0)
(0.200644 0.00725492 0)
(0.200704 0.00702314 0)
(0.200741 0.00678357 0)
(0.20076 0.00654184 0)
(0.200763 0.00630225 0)
(0.200755 0.00606792 0)
(0.200739 0.00584097 0)
(0.200716 0.00562267 0)
(0.20069 0.00541366 0)
(0.200662 0.00521411 0)
(0.200633 0.00502385 0)
(0.200604 0.00484253 0)
(0.200576 0.00466962 0)
(0.200549 0.00450453 0)
(0.200523 0.00434665 0)
(0.200499 0.00419533 0)
(0.200477 0.00404995 0)
(0.200456 0.00390989 0)
(0.200437 0.00377456 0)
(0.200419 0.00364336 0)
(0.200403 0.00351576 0)
(0.200389 0.0033912 0)
(0.200375 0.00326916 0)
(0.200363 0.00314916 0)
(0.200352 0.00303072 0)
(0.200342 0.00291337 0)
(0.200333 0.00279671 0)
(0.200325 0.00268032 0)
(0.200318 0.00256384 0)
(0.200311 0.00244694 0)
(0.200305 0.00232931 0)
(0.200299 0.0022107 0)
(0.200294 0.00209091 0)
(0.200288 0.00196978 0)
(0.200283 0.00184721 0)
(0.200277 0.0017232 0)
(0.200271 0.00159781 0)
(0.200264 0.00147124 0)
(0.200256 0.00134382 0)
(0.200246 0.00121609 0)
(0.200235 0.00108879 0)
(0.200221 0.000962911 0)
(0.200204 0.000839676 0)
(0.200185 0.000720486 0)
(0.200163 0.000606812 0)
(0.200139 0.000500054 0)
(0.200113 0.000401415 0)
(0.200086 0.000311803 0)
(0.200059 0.000231778 0)
(0.200032 0.00016154 0)
(0.200007 0.000100944 0)
(0.199984 4.95175e-05 0)
(0.199962 6.5281e-06 0)
(0.199943 -2.88546e-05 0)
(0.199927 -5.74997e-05 0)
(0.199913 -8.02995e-05 0)
(0.199901 -9.81332e-05 0)
(0.199892 -0.000111825 0)
(0.199885 -0.000122121 0)
(0.199879 -0.00012967 0)
(0.199875 -0.000135026 0)
(0.199872 -0.000138639 0)
(0.199871 -0.00014087 0)
(0.19987 -0.000141998 0)
(0.19987 -0.000142228 0)
(0.199871 -0.000141706 0)
(0.199873 -0.00014053 0)
(0.199875 -0.00013876 0)
(0.199877 -0.000136431 0)
(0.199879 -0.000133557 0)
(0.199882 -0.000130143 0)
(0.199885 -0.000126192 0)
(0.199888 -0.000121708 0)
(0.199891 -0.000116702 0)
(0.199894 -0.000111195 0)
(0.199896 -0.000105225 0)
(0.199899 -9.88396e-05 0)
(0.199902 -9.21055e-05 0)
(0.199904 -8.51019e-05 0)
(0.199906 -7.79212e-05 0)
(0.199908 -7.06653e-05 0)
(0.199909 -6.34421e-05 0)
(0.19991 -5.63608e-05 0)
(0.199911 -4.95252e-05 0)
(0.199911 -4.30237e-05 0)
(0.199911 -3.691e-05 0)
(0.199911 -3.11592e-05 0)
(0.199911 -2.5639e-05 0)
(0.19889 0.00628397 0)
(0.198993 0.00667729 0)
(0.199121 0.00702016 0)
(0.199267 0.00730278 0)
(0.199424 0.00751939 0)
(0.199583 0.00766822 0)
(0.199738 0.00775073 0)
(0.199883 0.00777084 0)
(0.200015 0.00773434 0)
(0.20013 0.00764839 0)
(0.200226 0.0075209 0)
(0.200305 0.00736 0)
(0.200366 0.00717358 0)
(0.20041 0.00696892 0)
(0.20044 0.00675247 0)
(0.200458 0.00652971 0)
(0.200466 0.00630506 0)
(0.200466 0.00608201 0)
(0.20046 0.00586312 0)
(0.200449 0.00565018 0)
(0.200436 0.00544436 0)
(0.20042 0.00524632 0)
(0.200404 0.00505631 0)
(0.200388 0.00487431 0)
(0.200372 0.00470009 0)
(0.200357 0.00453329 0)
(0.200343 0.00437345 0)
(0.200329 0.00422004 0)
(0.200317 0.00407254 0)
(0.200306 0.00393037 0)
(0.200296 0.00379297 0)
(0.200287 0.00365981 0)
(0.20028 0.00353032 0)
(0.200273 0.003404 0)
(0.200267 0.00328031 0)
(0.200263 0.00315878 0)
(0.200259 0.00303892 0)
(0.200256 0.00292029 0)
(0.200254 0.00280247 0)
(0.200253 0.00268505 0)
(0.200252 0.00256769 0)
(0.200252 0.00245003 0)
(0.200252 0.00233181 0)
(0.200253 0.00221276 0)
(0.200254 0.00209269 0)
(0.200254 0.00197147 0)
(0.200255 0.00184903 0)
(0.200256 0.00172537 0)
(0.200256 0.00160061 0)
(0.200256 0.00147498 0)
(0.200254 0.00134883 0)
(0.200252 0.00122271 0)
(0.200248 0.00109735 0)
(0.200242 0.000973677 0)
(0.200234 0.000852783 0)
(0.200224 0.000735906 0)
(0.200213 0.000624324 0)
(0.200199 0.000519262 0)
(0.200184 0.000421791 0)
(0.200168 0.00033274 0)
(0.200152 0.000252656 0)
(0.200136 0.000181773 0)
(0.20012 0.000120025 0)
(0.200106 6.70714e-05 0)
(0.200092 2.23366e-05 0)
(0.20008 -1.48964e-05 0)
(0.20007 -4.54232e-05 0)
(0.200061 -7.00636e-05 0)
(0.200054 -8.96345e-05 0)
(0.200047 -0.000104917 0)
(0.200043 -0.00011663 0)
(0.200039 -0.000125414 0)
(0.200036 -0.000131822 0)
(0.200034 -0.000136316 0)
(0.200033 -0.000139273 0)
(0.200033 -0.000140991 0)
(0.200033 -0.000141695 0)
(0.200033 -0.000141551 0)
(0.200034 -0.000140675 0)
(0.200034 -0.00013914 0)
(0.200035 -0.000136994 0)
(0.200036 -0.00013426 0)
(0.200038 -0.000130951 0)
(0.200039 -0.000127074 0)
(0.20004 -0.000122637 0)
(0.20004 -0.000117654 0)
(0.200041 -0.000112149 0)
(0.200041 -0.000106159 0)
(0.200042 -9.97376e-05 0)
(0.200041 -9.29511e-05 0)
(0.200041 -8.58825e-05 0)
(0.20004 -7.86272e-05 0)
(0.200039 -7.12906e-05 0)
(0.200037 -6.39843e-05 0)
(0.200035 -5.68218e-05 0)
(0.200033 -4.99124e-05 0)
(0.200031 -4.33555e-05 0)
(0.200028 -3.7231e-05 0)
(0.200026 -3.15856e-05 0)
(0.200023 -2.64551e-05 0)
(0.199519 0.00620199 0)
(0.199547 0.00656076 0)
(0.199584 0.00687605 0)
(0.199629 0.00713964 0)
(0.199679 0.00734587 0)
(0.199732 0.0074922 0)
(0.199785 0.00757898 0)
(0.199837 0.00760887 0)
(0.199885 0.00758631 0)
(0.199929 0.00751708 0)
(0.199968 0.00740778 0)
(0.200001 0.00726537 0)
(0.200029 0.00709681 0)
(0.200051 0.00690867 0)
(0.200069 0.00670691 0)
(0.200082 0.00649677 0)
(0.200092 0.00628261 0)
(0.200098 0.00606798 0)
(0.200102 0.00585562 0)
(0.200104 0.00564757 0)
(0.200104 0.00544525 0)
(0.200104 0.00524956 0)
(0.200103 0.005061 0)
(0.200102 0.00487977 0)
(0.2001 0.00470579 0)
(0.200099 0.00453884 0)
(0.200097 0.00437859 0)
(0.200096 0.00422458 0)
(0.200095 0.00407635 0)
(0.200094 0.00393338 0)
(0.200093 0.00379515 0)
(0.200093 0.00366113 0)
(0.200093 0.00353079 0)
(0.200093 0.00340362 0)
(0.200094 0.00327912 0)
(0.200095 0.0031568 0)
(0.200096 0.00303621 0)
(0.200098 0.00291689 0)
(0.2001 0.00279844 0)
(0.200102 0.00268046 0)
(0.200104 0.0025626 0)
(0.200106 0.00244454 0)
(0.200109 0.00232599 0)
(0.200111 0.00220673 0)
(0.200114 0.00208657 0)
(0.200117 0.00196539 0)
(0.20012 0.00184315 0)
(0.200122 0.00171987 0)
(0.200125 0.00159569 0)
(0.200127 0.00147087 0)
(0.200129 0.00134579 0)
(0.20013 0.00122099 0)
(0.200131 0.0010972 0)
(0.200131 0.000975268 0)
(0.20013 0.000856235 0)
(0.200128 0.000741219 0)
(0.200126 0.000631375 0)
(0.200123 0.00052781 0)
(0.200119 0.000431499 0)
(0.200115 0.000343214 0)
(0.20011 0.000263477 0)
(0.200105 0.000192535 0)
(0.200101 0.000130365 0)
(0.200096 7.66923e-05 0)
(0.200092 3.10301e-05 0)
(0.200089 -7.25751e-06 0)
(0.200086 -3.88967e-05 0)
(0.200083 -6.46568e-05 0)
(0.200081 -8.53111e-05 0)
(0.200079 -0.000101607 0)