/*--------------------------------*- C++ -*----------------------------------*\
| =========                 |                                                 |
| \\      /  F ield         | OpenFOAM: The Open Source CFD Toolbox           |
|  \\    /   O peration     | Version:  2.3.0                                 |
|   \\  /    A nd           | Web:      www.OpenFOAM.org                      |
|    \\/     M anipulation  |                                                 |
\*---------------------------------------------------------------------------*/
FoamFile
{
    version     2.0;
    format      ascii;
    class       volVectorField;
    location    "0.25";
    object      U_0;
}
// * * * * * * * * * * * * * * * * * * * * * * * * * * * * * * * * * * * * * //

dimensions      [0 1 -1 0 0 0 0];

internalField   nonuniform List<vector> 
1500
(
(0.170775 0.0060506 0)
(0.154015 0.0061247 0)
(0.13789 0.00570268 0)
(0.122603 0.00509403 0)
(0.108574 0.00441714 0)
(0.0959842 0.00372701 0)
(0.0848533 0.00306245 0)
(0.075153 0.00245097 0)
(0.066829 0.0019098 0)
(0.0597943 0.00144813 0)
(0.0539297 0.00106846 0)
(0.0490943 0.000767486 0)
(0.045138 0.00053746 0)
(0.0419126 0.000367924 0)
(0.0392797 0.000247477 0)
(0.037117 0.00016513 0)
(0.0353209 0.000111141 0)
(0.0338071 7.73939e-05 0)
(0.0325097 5.74594e-05 0)
(0.0313782 4.64779e-05 0)
(0.0303755 4.09441e-05 0)
(0.0294744 3.84565e-05 0)
(0.0286556 3.7464e-05 0)
(0.0279052 3.70333e-05 0)
(0.0272132 3.66554e-05 0)
(0.0265723 3.60926e-05 0)
(0.0259769 3.52688e-05 0)
(0.0254226 3.41945e-05 0)
(0.0249058 3.2919e-05 0)
(0.0244234 3.1503e-05 0)
(0.0239726 3.00039e-05 0)
(0.0235511 2.8469e-05 0)
(0.0231567 2.69344e-05 0)
(0.0227874 2.54253e-05 0)
(0.0224415 2.39577e-05 0)
(0.0221175 2.2541e-05 0)
(0.021814 2.11792e-05 0)
(0.0215297 1.98729e-05 0)
(0.0212637 1.86203e-05 0)
(0.0210149 1.74182e-05 0)
(0.0207825 1.62625e-05 0)
(0.020566 1.51492e-05 0)
(0.0203647 1.40745e-05 0)
(0.020178 1.30356e-05 0)
(0.0200056 1.20316e-05 0)
(0.0198471 1.10635e-05 0)
(0.019702 1.01342e-05 0)
(0.0195701 9.24557e-06 0)
(0.0194511 8.39343e-06 0)
(0.0193448 7.55758e-06 0)
(0.0192511 6.6898e-06 0)
(0.0191702 5.70941e-06 0)
(0.0191029 4.53943e-06 0)
(0.0190506 3.20831e-06 0)
(0.0190153 1.83503e-06 0)
(0.0190005 8.63758e-07 0)
(0.0190056 -5.36592e-07 0)
(0.0190242 -1.79187e-06 0)
(0.0190536 -3.07553e-06 0)
(0.0190913 -4.06937e-06 0)
(0.0191348 -4.66888e-06 0)
(0.0191815 -4.93475e-06 0)
(0.0192294 -4.9361e-06 0)
(0.0192766 -4.7415e-06 0)
(0.0193217 -4.40527e-06 0)
(0.0193635 -3.97755e-06 0)
(0.0194015 -3.50335e-06 0)
(0.0194352 -3.01977e-06 0)
(0.0194648 -2.55428e-06 0)
(0.0194903 -2.12498e-06 0)
(0.019512 -1.74202e-06 0)
(0.0195303 -1.40945e-06 0)
(0.0195456 -1.12702e-06 0)
(0.0195583 -8.91664e-07 0)
(0.0195688 -6.98659e-07 0)
(0.0195775 -5.42569e-07 0)
(0.0195845 -4.17812e-07 0)
(0.0195903 -3.19067e-07 0)
(0.0195951 -2.41527e-07 0)
(0.0195989 -1.81036e-07 0)
(0.019602 -1.34132e-07 0)
(0.0196045 -9.80084e-08 0)
(0.0196065 -7.04015e-08 0)
(0.019608 -4.93776e-08 0)
(0.0196093 -3.33809e-08 0)
(0.0196102 -2.1229e-08 0)
(0.0196109 -1.2038e-08 0)
(0.0196113 -5.11317e-09 0)
(0.0196117 8.55757e-12 0)
(0.0196118 3.89525e-09 0)
(0.0196119 1.05565e-08 0)
(0.0196119 1.99243e-08 0)
(0.0196117 2.35079e-08 0)
(0.0196116 2.37226e-08 0)
(0.0196113 2.26704e-08 0)
(0.0196111 1.91273e-08 0)
(0.0196109 1.12084e-08 0)
(0.0196108 -8.02428e-09 0)
(0.0196109 -5.69543e-08 0)
(0.0196122 -2.37119e-07 0)
(0.190004 0.00961222 0)
(0.187742 0.0101598 0)
(0.183905 0.0099675 0)
(0.178828 0.00948849 0)
(0.17299 0.00886128 0)
(0.166733 0.00813346 0)
(0.160275 0.00734488 0)
(0.153782 0.0065328 0)
(0.147389 0.00572907 0)
(0.141199 0.00496033 0)
(0.135283 0.00424781 0)
(0.129684 0.00360646 0)
(0.124426 0.00304452 0)
(0.119515 0.00256392 0)
(0.114948 0.00216138 0)
(0.110713 0.0018299 0)
(0.106793 0.00156028 0)
(0.103168 0.00134255 0)
(0.0998161 0.00116701 0)
(0.0967168 0.00102496 0)
(0.0938488 0.000909008 0)
(0.0911921 0.000813177 0)
(0.0887282 0.000732815 0)
(0.0864402 0.000664395 0)
(0.0843127 0.000605301 0)
(0.0823315 0.000553612 0)
(0.0804842 0.000507924 0)
(0.0787594 0.000467198 0)
(0.077147 0.000430651 0)
(0.075638 0.000397678 0)
(0.0742242 0.000367795 0)
(0.0728986 0.000340603 0)
(0.0716546 0.000315765 0)
(0.0704867 0.00029299 0)
(0.0693896 0.000272023 0)
(0.0683591 0.000252639 0)
(0.0673911 0.00023464 0)
(0.0664822 0.000217851 0)
(0.0656294 0.000202117 0)
(0.0648301 0.000187303 0)
(0.064082 0.000173289 0)
(0.0633832 0.000159974 0)
(0.062732 0.00014727 0)
(0.0621269 0.000135103 0)
(0.0615668 0.000123413 0)
(0.0610505 0.000112154 0)
(0.0605773 0.000101285 0)
(0.0601464 9.07686e-05 0)
(0.0597571 8.05491e-05 0)
(0.0594094 7.05308e-05 0)
(0.0591031 6.05464e-05 0)
(0.0588387 5.03324e-05 0)
(0.0586174 3.95508e-05 0)
(0.0584404 2.79114e-05 0)
(0.0583095 1.5238e-05 0)
(0.0582257 1.97809e-06 0)
(0.0581952 -1.04575e-05 0)
(0.0582123 -1.89695e-05 0)
(0.0582621 -2.40777e-05 0)
(0.0583355 -2.73009e-05 0)
(0.058425 -2.92113e-05 0)
(0.0585243 -2.99576e-05 0)
(0.0586282 -2.95835e-05 0)
(0.0587325 -2.82761e-05 0)
(0.0588338 -2.62831e-05 0)
(0.0589297 -2.38553e-05 0)
(0.0590184 -2.12164e-05 0)
(0.0590992 -1.85472e-05 0)
(0.0591717 -1.59801e-05 0)
(0.0592359 -1.36017e-05 0)
(0.0592924 -1.14605e-05 0)
(0.0593416 -9.57579e-06 0)
(0.0593843 -7.94657e-06 0)
(0.0594211 -6.55814e-06 0)
(0.0594529 -5.38806e-06 0)
(0.0594802 -4.41033e-06 0)
(0.0595036 -3.59828e-06 0)
(0.0595237 -2.92646e-06 0)
(0.0595408 -2.3717e-06 0)
(0.0595554 -1.91377e-06 0)
(0.0595678 -1.53548e-06 0)
(0.0595782 -1.22261e-06 0)
(0.059587 -9.63552e-07 0)
(0.0595944 -7.48828e-07 0)
(0.0596004 -5.70822e-07 0)
(0.0596054 -4.23506e-07 0)
(0.0596093 -3.0214e-07 0)
(0.0596124 -2.03082e-07 0)
(0.0596148 -1.23476e-07 0)
(0.0596166 -6.08301e-08 0)
(0.0596178 -9.25444e-09 0)
(0.0596187 3.44688e-08 0)
(0.0596192 6.60176e-08 0)
(0.0596195 9.56404e-08 0)
(0.0596195 1.11843e-07 0)
(0.0596195 1.11253e-07 0)
(0.0596193 8.91323e-08 0)
(0.0596192 2.22249e-08 0)
(0.0596194 -1.7475e-07 0)
(0.0596212 -7.21749e-07 0)
(0.193014 0.00916701 0)
(0.193762 0.0101529 0)
(0.193954 0.0105388 0)
(0.193423 0.0105964 0)
(0.192255 0.0104188 0)
(0.19055 0.0100414 0)
(0.188383 0.00950748 0)
(0.18583 0.00886719 0)
(0.182975 0.0081675 0)
(0.179897 0.00744901 0)
(0.176672 0.00674484 0)
(0.173362 0.00607965 0)
(0.170018 0.00546928 0)
(0.166681 0.00492156 0)
(0.163382 0.00443779 0)
(0.160145 0.00401464 0)
(0.156983 0.00364607 0)
(0.153908 0.00332482 0)
(0.150925 0.00304362 0)
(0.148039 0.00279581 0)
(0.145249 0.00257574 0)
(0.142557 0.00237876 0)
(0.139962 0.00220118 0)
(0.137462 0.00204013 0)
(0.135057 0.00189333 0)
(0.132744 0.00175902 0)
(0.130521 0.00163577 0)
(0.128387 0.00152239 0)
(0.12634 0.00141791 0)
(0.124377 0.00132143 0)
(0.122496 0.0012322 0)
(0.120696 0.00114951 0)
(0.118973 0.00107272 0)
(0.117327 0.00100125 0)
(0.115755 0.00093455 0)
(0.114256 0.000872131 0)
(0.112827 0.000813539 0)
(0.111468 0.00075836 0)
(0.110176 0.000706216 0)
(0.108951 0.00065677 0)
(0.107791 0.000609714 0)
(0.106696 0.000564776 0)
(0.105664 0.000521715 0)
(0.104695 0.000480321 0)
(0.103788 0.00044041 0)
(0.102944 0.000401822 0)
(0.102161 0.000364412 0)
(0.101439 0.000328036 0)
(0.100779 0.000292523 0)
(0.100181 0.000257657 0)
(0.0996452 0.000223148 0)
(0.0991719 0.000188641 0)
(0.098762 0.00015376 0)
(0.0984156 0.000118224 0)
(0.0981319 8.20144e-05 0)
(0.0979071 4.53544e-05 0)
(0.0977312 9.65843e-06 0)
(0.0976125 -2.28587e-05 0)
(0.0975664 -4.82468e-05 0)
(0.0975736 -6.45511e-05 0)
(0.0976198 -7.3541e-05 0)
(0.0976945 -7.76032e-05 0)
(0.0977887 -7.82174e-05 0)
(0.0978954 -7.62361e-05 0)
(0.0980087 -7.22939e-05 0)
(0.0981239 -6.69955e-05 0)
(0.0982374 -6.09031e-05 0)
(0.0983468 -5.44923e-05 0)
(0.0984503 -4.81284e-05 0)
(0.0985469 -4.20672e-05 0)
(0.0986361 -3.64681e-05 0)
(0.0987178 -3.14143e-05 0)
(0.0987922 -2.69318e-05 0)
(0.0988597 -2.30081e-05 0)
(0.0989207 -1.96059e-05 0)
(0.0989757 -1.66745e-05 0)
(0.0990251 -1.4158e-05 0)
(0.0990695 -1.20005e-05 0)
(0.0991092 -1.01502e-05 0)
(0.0991447 -8.56062e-06 0)
(0.0991762 -7.19196e-06 0)
(0.0992042 -6.01064e-06 0)
(0.0992289 -4.98909e-06 0)
(0.0992506 -4.10491e-06 0)
(0.0992695 -3.34e-06 0)
(0.0992858 -2.67976e-06 0)
(0.0992997 -2.11231e-06 0)
(0.0993115 -1.62799e-06 0)
(0.0993214 -1.2189e-06 0)
(0.0993296 -8.78487e-07 0)
(0.0993362 -6.015e-07 0)
(0.0993415 -3.82187e-07 0)
(0.0993457 -2.11406e-07 0)
(0.0993489 -7.74729e-08 0)
(0.0993514 1.14578e-08 0)
(0.0993533 5.43749e-08 0)
(0.0993548 4.53232e-08 0)
(0.099356 -5.70238e-08 0)
(0.0993573 -3.99841e-07 0)
(0.09936 -1.32346e-06 0)
(0.19414 0.00849302 0)
(0.195137 0.00954573 0)
(0.196092 0.0101422 0)
(0.196799 0.0104334 0)
(0.197223 0.0104934 0)
(0.197363 0.0103523 0)
(0.197209 0.0100431 0)
(0.196757 0.00960647 0)
(0.196023 0.00908347 0)
(0.195035 0.00851142 0)
(0.193827 0.00792254 0)
(0.192438 0.00734275 0)
(0.190905 0.00679084 0)
(0.189261 0.00627857 0)
(0.187537 0.00581163 0)
(0.185758 0.00539098 0)
(0.183944 0.00501437 0)
(0.18211 0.0046777 0)
(0.180268 0.00437605 0)
(0.178426 0.00410441 0)
(0.176592 0.00385819 0)
(0.174769 0.00363339 0)
(0.172963 0.00342668 0)
(0.171175 0.00323536 0)
(0.169409 0.0030573 0)
(0.167668 0.00289082 0)
(0.165952 0.00273457 0)
(0.164264 0.00258749 0)
(0.162607 0.00244869 0)
(0.160981 0.00231743 0)
(0.159388 0.00219306 0)
(0.15783 0.00207498 0)
(0.156309 0.00196268 0)
(0.154824 0.00185566 0)
(0.153379 0.00175345 0)
(0.151974 0.00165564 0)
(0.15061 0.00156182 0)
(0.149289 0.0014716 0)
(0.148011 0.00138464 0)
(0.146779 0.00130061 0)
(0.145593 0.00121921 0)
(0.144455 0.00114017 0)
(0.143366 0.00106322 0)
(0.142327 0.000988158 0)
(0.14134 0.000914775 0)
(0.140406 0.000842893 0)
(0.139526 0.00077234 0)
(0.138703 0.000702937 0)
(0.137937 0.000634478 0)
(0.137229 0.000566715 0)
(0.136582 0.000499357 0)
(0.135997 0.000432117 0)
(0.135475 0.000364836 0)
(0.135015 0.000297708 0)
(0.134617 0.000231615 0)
(0.134278 0.000168177 0)
(0.133995 0.000108516 0)
(0.133759 5.24368e-05 0)
(0.133556 1.5319e-06 0)
(0.133406 -4.15689e-05 0)
(0.133315 -7.44816e-05 0)
(0.133272 -9.65728e-05 0)
(0.133268 -0.000109731 0)
(0.133294 -0.00011606 0)
(0.133345 -0.000117204 0)
(0.133414 -0.000114492 0)
(0.133495 -0.000109073 0)
(0.133585 -0.000101923 0)
(0.13368 -9.3831e-05 0)
(0.133776 -8.53935e-05 0)
(0.133873 -7.70377e-05 0)
(0.133968 -6.9047e-05 0)
(0.134061 -6.15903e-05 0)
(0.134151 -5.47511e-05 0)
(0.134236 -4.85518e-05 0)
(0.134318 -4.29746e-05 0)
(0.134395 -3.79777e-05 0)
(0.134468 -3.35068e-05 0)
(0.134536 -2.95044e-05 0)
(0.1346 -2.5915e-05 0)
(0.13466 -2.26883e-05 0)
(0.134715 -1.97813e-05 0)
(0.134766 -1.71578e-05 0)
(0.134813 -1.4789e-05 0)
(0.134855 -1.2652e-05 0)
(0.134894 -1.07287e-05 0)
(0.134928 -9.00475e-06 0)
(0.134959 -7.46859e-06 0)
(0.134986 -6.11027e-06 0)
(0.13501 -4.92104e-06 0)
(0.13503 -3.89328e-06 0)
(0.135047 -3.02007e-06 0)
(0.135062 -2.29384e-06 0)
(0.135075 -1.70947e-06 0)
(0.135085 -1.25611e-06 0)
(0.135093 -9.27658e-07 0)
(0.1351 -7.31836e-07 0)
(0.135105 -7.18639e-07 0)
(0.135109 -1.05774e-06 0)
(0.135115 -2.25065e-06 0)
(0.195015 0.00797294 0)
(0.195815 0.00892955 0)
(0.196711 0.00954356 0)
(0.197553 0.00989599 0)
(0.198291 0.0100477 0)
(0.198908 0.0100269 0)
(0.199381 0.00985767 0)
(0.199689 0.00956902 0)
(0.199819 0.00919224 0)
(0.199773 0.00875727 0)
(0.199561 0.00829115 0)
(0.199198 0.00781685 0)
(0.198704 0.00735229 0)
(0.198099 0.00691 0)
(0.197403 0.00649746 0)
(0.196635 0.00611795 0)
(0.195809 0.00577162 0)
(0.194939 0.00545656 0)
(0.194035 0.00516972 0)
(0.193103 0.0049076 0)
(0.192149 0.00466676 0)
(0.191179 0.00444404 0)
(0.190194 0.00423675 0)
(0.189199 0.00404265 0)
(0.188196 0.00385995 0)
(0.187186 0.00368719 0)
(0.186171 0.00352322 0)
(0.185154 0.00336711 0)
(0.184136 0.00321807 0)
(0.183119 0.00307544 0)
(0.182105 0.00293862 0)
(0.181095 0.0028071 0)
(0.180092 0.00268037 0)
(0.179097 0.00255798 0)
(0.178112 0.0024395 0)
(0.177139 0.0023245 0)
(0.176179 0.00221261 0)
(0.175235 0.00210345 0)
(0.174308 0.00199669 0)
(0.173401 0.001892 0)
(0.172515 0.00178909 0)
(0.171652 0.0016877 0)
(0.170815 0.00158758 0)
(0.170005 0.00148852 0)
(0.169225 0.00139034 0)
(0.168477 0.00129286 0)
(0.167762 0.00119594 0)
(0.167083 0.00109939 0)
(0.166443 0.00100307 0)
(0.165843 0.00090677 0)
(0.165285 0.000810334 0)
(0.16477 0.000713687 0)
(0.164301 0.000616999 0)
(0.163876 0.000520891 0)
(0.163497 0.00042662 0)
(0.163161 0.000336073 0)
(0.162867 0.000251498 0)
(0.162613 0.000174979 0)
(0.162397 0.000106671 0)
(0.162207 4.57022e-05 0)
(0.162038 -7.18456e-06 0)
(0.161905 -5.02725e-05 0)
(0.161808 -8.28101e-05 0)
(0.161741 -0.000105613 0)
(0.161703 -0.000120303 0)
(0.16169 -0.000128462 0)
(0.161697 -0.000131524 0)
(0.161722 -0.000130773 0)
(0.161762 -0.00012731 0)
(0.161812 -0.000122032 0)
(0.161872 -0.000115642 0)
(0.161939 -0.000108664 0)
(0.162012 -0.000101473 0)
(0.162088 -9.43212e-05 0)
(0.162166 -8.73678e-05 0)
(0.162246 -8.07016e-05 0)
(0.162327 -7.43631e-05 0)
(0.162408 -6.83603e-05 0)
(0.162488 -6.26824e-05 0)
(0.162566 -5.7309e-05 0)
(0.162643 -5.2217e-05 0)
(0.162717 -4.73853e-05 0)
(0.162789 -4.27971e-05 0)
(0.162857 -3.84414e-05 0)
(0.162922 -3.43129e-05 0)
(0.162984 -3.04114e-05 0)
(0.163041 -2.67409e-05 0)
(0.163095 -2.33083e-05 0)
(0.163144 -2.01219e-05 0)
(0.163189 -1.71901e-05 0)
(0.163229 -1.45204e-05 0)
(0.163265 -1.21185e-05 0)
(0.163297 -9.987e-06 0)
(0.163325 -8.12754e-06 0)
(0.163349 -6.53802e-06 0)
(0.16337 -5.21925e-06 0)
(0.163387 -4.18385e-06 0)
(0.163402 -3.4804e-06 0)
(0.163413 -3.27492e-06 0)
(0.163425 -4.13788e-06 0)
(0.195797 0.00753324 0)
(0.196399 0.00835872 0)
(0.197115 0.00894027 0)
(0.197844 0.00930946 0)
(0.198538 0.00950558 0)
(0.199175 0.00955207 0)
(0.199737 0.00946763 0)
(0.200205 0.00927444 0)
(0.200566 0.00899725 0)
(0.200815 0.00866057 0)
(0.200953 0.008287 0)
(0.200988 0.00789625 0)
(0.20093 0.00750435 0)
(0.200791 0.0071232 0)
(0.200583 0.00676071 0)
(0.200319 0.00642129 0)
(0.20001 0.00610657 0)
(0.199665 0.00581626 0)
(0.199291 0.00554879 0)
(0.198894 0.00530196 0)
(0.198477 0.00507334 0)
(0.198045 0.00486058 0)
(0.197598 0.00466152 0)
(0.197138 0.00447431 0)
(0.196667 0.00429737 0)
(0.196186 0.00412938 0)
(0.195696 0.00396926 0)
(0.195197 0.00381608 0)
(0.19469 0.00366908 0)
(0.194176 0.00352757 0)
(0.193657 0.00339096 0)
(0.193132 0.00325871 0)
(0.192603 0.0031303 0)
(0.192072 0.00300526 0)
(0.191538 0.00288315 0)
(0.191004 0.00276355 0)
(0.190471 0.00264607 0)
(0.18994 0.00253031 0)
(0.189411 0.00241593 0)
(0.188888 0.00230261 0)
(0.18837 0.00219004 0)
(0.187861 0.00207795 0)
(0.18736 0.00196609 0)
(0.186871 0.00185426 0)
(0.186394 0.00174225 0)
(0.185931 0.00162992 0)
(0.185485 0.00151711 0)
(0.185056 0.0014037 0)
(0.184647 0.00128957 0)
(0.184259 0.00117463 0)
(0.183894 0.00105888 0)
(0.183553 0.000942478 0)
(0.183236 0.000825904 0)
(0.182944 0.0007101 0)
(0.182676 0.000596583 0)
(0.182433 0.00048738 0)
(0.182214 0.000384746 0)
(0.182018 0.000290684 0)
(0.181846 0.000206622 0)
(0.181695 0.000133341 0)
(0.181565 7.0087e-05 0)
(0.181446 1.59148e-05 0)
(0.181342 -2.88237e-05 0)
(0.181258 -6.39883e-05 0)
(0.181191 -9.03515e-05 0)
(0.181141 -0.000109187 0)
(0.181108 -0.000121817 0)
(0.181089 -0.000129489 0)
(0.181083 -0.000133323 0)
(0.181089 -0.000134275 0)
(0.181106 -0.00013313 0)
(0.181131 -0.000130507 0)
(0.181165 -0.000126879 0)
(0.181206 -0.000122591 0)
(0.181252 -0.000117887 0)
(0.181303 -0.000112931 0)
(0.181359 -0.000107827 0)
(0.181418 -0.000102635 0)
(0.18148 -9.73888e-05 0)
(0.181544 -9.2102e-05 0)
(0.181609 -8.6781e-05 0)
(0.181676 -8.14294e-05 0)
(0.181742 -7.60528e-05 0)
(0.181809 -7.06616e-05 0)
(0.181875 -6.52725e-05 0)
(0.181939 -5.99089e-05 0)
(0.182002 -5.46009e-05 0)
(0.182062 -4.93838e-05 0)
(0.18212 -4.42974e-05 0)
(0.182175 -3.93839e-05 0)
(0.182226 -3.46862e-05 0)
(0.182273 -3.02462e-05 0)
(0.182317 -2.61022e-05 0)
(0.182356 -2.22891e-05 0)
(0.182392 -1.88354e-05 0)
(0.182423 -1.57655e-05 0)
(0.18245 -1.31052e-05 0)
(0.182474 -1.08966e-05 0)
(0.182494 -9.24747e-06 0)
(0.182513 -8.49522e-06 0)
(0.196508 0.00717071 0)
(0.196957 0.0078735 0)
(0.197508 0.00840649 0)
(0.198094 0.00877241 0)
(0.198674 0.00899075 0)
(0.199225 0.00907835 0)
(0.199728 0.00905022 0)
(0.200171 0.00892368 0)
(0.200541 0.00871842 0)
(0.200835 0.00845448 0)
(0.201052 0.00815077 0)
(0.201196 0.00782408 0)
(0.201274 0.00748855 0)
(0.201294 0.00715519 0)
(0.201265 0.00683192 0)
(0.201196 0.00652383 0)
(0.201096 0.00623363 0)
(0.200972 0.00596224 0)
(0.200829 0.00570933 0)
(0.200672 0.0054738 0)
(0.200503 0.00525412 0)
(0.200326 0.00504865 0)
(0.200142 0.00485574 0)
(0.199952 0.00467388 0)
(0.199757 0.00450172 0)
(0.199556 0.00433809 0)
(0.199351 0.00418195 0)
(0.199141 0.00403244 0)
(0.198927 0.00388875 0)
(0.198708 0.00375022 0)
(0.198485 0.0036162 0)
(0.198259 0.00348612 0)
(0.198029 0.00335945 0)
(0.197796 0.00323569 0)
(0.19756 0.00311434 0)
(0.197321 0.00299497 0)
(0.197081 0.00287714 0)
(0.196839 0.00276044 0)
(0.196596 0.00264448 0)
(0.196354 0.00252892 0)
(0.196112 0.00241341 0)
(0.195871 0.00229767 0)
(0.195632 0.00218143 0)
(0.195397 0.00206444 0)
(0.195166 0.00194651 0)
(0.194939 0.00182748 0)
(0.194718 0.00170721 0)
(0.194505 0.00158559 0)
(0.194298 0.00146258 0)
(0.194101 0.00133819 0)
(0.193912 0.00121257 0)
(0.193733 0.00108606 0)
(0.193563 0.000959346 0)
(0.193404 0.00083354 0)
(0.193253 0.000710233 0)
(0.193113 0.000591407 0)
(0.192981 0.000479183 0)
(0.19286 0.000375497 0)
(0.192749 0.000281841 0)
(0.19265 0.000199139 0)
(0.192561 0.000127699 0)
(0.192483 6.69765e-05 0)
(0.192413 1.59879e-05 0)
(0.192351 -2.58299e-05 0)
(0.192299 -5.90059e-05 0)
(0.192255 -8.44992e-05 0)
(0.192221 -0.000103474 0)
(0.192195 -0.000117083 0)
(0.192178 -0.000126386 0)
(0.192168 -0.000132315 0)
(0.192166 -0.000135657 0)
(0.19217 -0.000137051 0)
(0.192179 -0.000136997 0)
(0.192194 -0.000135876 0)
(0.192214 -0.000133967 0)
(0.192238 -0.000131465 0)
(0.192266 -0.0001285 0)
(0.192298 -0.000125154 0)
(0.192333 -0.000121474 0)
(0.19237 -0.000117486 0)
(0.19241 -0.000113201 0)
(0.192452 -0.000108624 0)
(0.192495 -0.000103763 0)
(0.19254 -9.86254e-05 0)
(0.192586 -9.32302e-05 0)
(0.192632 -8.76032e-05 0)
(0.192678 -8.17804e-05 0)
(0.192724 -7.58074e-05 0)
(0.192769 -6.97391e-05 0)
(0.192813 -6.36379e-05 0)
(0.192855 -5.75721e-05 0)
(0.192895 -5.16133e-05 0)
(0.192933 -4.58339e-05 0)
(0.192968 -4.03047e-05 0)
(0.193001 -3.50916e-05 0)
(0.193031 -3.02543e-05 0)
(0.193057 -2.5845e-05 0)
(0.193081 -2.19053e-05 0)
(0.193101 -1.84456e-05 0)
(0.193121 -1.53146e-05 0)
(0.197158 0.0068735 0)
(0.197492 0.0074709 0)
(0.197906 0.00794911 0)
(0.198361 0.00829871 0)
(0.198823 0.00852586 0)
(0.19927 0.00864068 0)
(0.199687 0.00865424 0)
(0.200062 0.0085796 0)
(0.200385 0.00843189 0)
(0.200653 0.00822707 0)
(0.200863 0.00798064 0)
(0.201019 0.00770683 0)
(0.201124 0.00741798 0)
(0.201186 0.0071242 0)
(0.20121 0.00683323 0)
(0.201204 0.00655055 0)
(0.201175 0.00627967 0)
(0.201128 0.00602248 0)
(0.201069 0.00577969 0)
(0.201 0.00555116 0)
(0.200925 0.00533621 0)
(0.200846 0.00513387 0)
(0.200765 0.00494304 0)
(0.200683 0.0047626 0)
(0.200599 0.00459149 0)
(0.200515 0.00442872 0)
(0.200431 0.00427336 0)
(0.200346 0.00412461 0)
(0.200261 0.00398171 0)
(0.200176 0.00384396 0)
(0.20009 0.00371075 0)
(0.200003 0.00358146 0)
(0.199916 0.00345554 0)
(0.199828 0.00333245 0)
(0.199739 0.00321169 0)
(0.19965 0.00309277 0)
(0.199561 0.00297522 0)
(0.19947 0.00285863 0)
(0.19938 0.00274256 0)
(0.199289 0.00262664 0)
(0.199198 0.00251051 0)
(0.199108 0.00239384 0)
(0.199018 0.00227636 0)
(0.198928 0.0021578 0)
(0.19884 0.00203796 0)
(0.198752 0.00191668 0)
(0.198667 0.00179381 0)
(0.198583 0.00166931 0)
(0.1985 0.00154317 0)
(0.19842 0.00141549 0)
(0.198342 0.00128652 0)
(0.198266 0.00115674 0)
(0.198192 0.00102693 0)
(0.198119 0.000898225 0)
(0.198047 0.000772152 0)
(0.197976 0.00065053 0)
(0.197906 0.000535278 0)
(0.197838 0.000428162 0)
(0.197773 0.000330591 0)
(0.197712 0.000243514 0)
(0.197655 0.000167397 0)
(0.197604 0.000102184 0)
(0.197558 4.72085e-05 0)
(0.197516 1.56787e-06 0)
(0.19748 -3.55515e-05 0)
(0.197448 -6.50339e-05 0)
(0.197422 -8.79157e-05 0)
(0.197401 -0.000105257 0)
(0.197385 -0.000118056 0)
(0.197374 -0.000127205 0)
(0.197367 -0.000133477 0)
(0.197364 -0.000137515 0)
(0.197364 -0.000139836 0)
(0.197368 -0.000140845 0)
(0.197374 -0.000140845 0)
(0.197383 -0.000140058 0)
(0.197395 -0.000138635 0)
(0.197408 -0.000136676 0)
(0.197423 -0.000134242 0)
(0.19744 -0.000131363 0)
(0.197459 -0.000128054 0)
(0.197479 -0.000124319 0)
(0.1975 -0.000120159 0)
(0.197522 -0.000115576 0)
(0.197545 -0.000110579 0)
(0.197569 -0.000105187 0)
(0.197593 -9.943e-05 0)
(0.197618 -9.33491e-05 0)
(0.197642 -8.69991e-05 0)
(0.197666 -8.04462e-05 0)
(0.19769 -7.37671e-05 0)
(0.197713 -6.70466e-05 0)
(0.197735 -6.03747e-05 0)
(0.197756 -5.38435e-05 0)
(0.197775 -4.7543e-05 0)
(0.197793 -4.15565e-05 0)
(0.197809 -3.59537e-05 0)
(0.197823 -3.07719e-05 0)
(0.197836 -2.59435e-05 0)
(0.197849 -2.10193e-05 0)
(0.197725 0.00663877 0)
(0.197973 0.00715401 0)
(0.198281 0.00758258 0)
(0.198625 0.00791193 0)
(0.198983 0.00814078 0)
(0.199336 0.00827369 0)
(0.199669 0.00831792 0)
(0.199973 0.00828296 0)
(0.20024 0.00818024 0)
(0.200466 0.00802231 0)
(0.200649 0.00782186 0)
(0.200789 0.00759091 0)
(0.200891 0.00734026 0)
(0.200958 0.00707912 0)
(0.200996 0.00681494 0)
(0.201009 0.00655338 0)
(0.201003 0.00629846 0)
(0.200983 0.00605279 0)
(0.200952 0.00581788 0)
(0.200915 0.00559437 0)
(0.200872 0.00538227 0)
(0.200828 0.00518124 0)
(0.200782 0.00499064 0)
(0.200737 0.00480976 0)
(0.200692 0.00463779 0)
(0.200648 0.00447393 0)
(0.200605 0.00431741 0)
(0.200564 0.0041675 0)
(0.200524 0.00402348 0)
(0.200486 0.00388471 0)
(0.200448 0.00375056 0)
(0.200412 0.00362042 0)
(0.200377 0.00349374 0)
(0.200342 0.00336997 0)
(0.200309 0.00324859 0)
(0.200276 0.00312911 0)
(0.200244 0.00301105 0)
(0.200213 0.00289397 0)
(0.200182 0.00277743 0)
(0.200152 0.00266105 0)
(0.200122 0.00254446 0)
(0.200093 0.00242731 0)
(0.200064 0.00230933 0)
(0.200035 0.00219025 0)
(0.200007 0.00206985 0)
(0.199978 0.00194799 0)
(0.199951 0.00182455 0)
(0.199923 0.00169949 0)
(0.199895 0.00157287 0)
(0.199867 0.00144485 0)
(0.199838 0.00131575 0)
(0.199809 0.0011861 0)
(0.199778 0.00105671 0)
(0.199745 0.000928672 0)
(0.19971 0.000803395 0)
(0.199674 0.000682497 0)
(0.199635 0.000567667 0)
(0.199594 0.00046048 0)
(0.199554 0.00036223 0)
(0.199513 0.000273832 0)
(0.199474 0.000195786 0)
(0.199437 0.000128166 0)
(0.199403 7.06273e-05 0)
(0.199372 2.24352e-05 0)
(0.199345 -1.72864e-05 0)
(0.199321 -4.94419e-05 0)
(0.1993 -7.49756e-05 0)
(0.199283 -9.48628e-05 0)
(0.199269 -0.00011004 0)
(0.199259 -0.000121362 0)
(0.199251 -0.000129582 0)
(0.199246 -0.000135343 0)
(0.199243 -0.000139173 0)
(0.199242 -0.000141496 0)
(0.199243 -0.00014264 0)
(0.199245 -0.000142848 0)
(0.199249 -0.000142297 0)
(0.199253 -0.000141107 0)
(0.199259 -0.000139352 0)
(0.199265 -0.000137077 0)
(0.199273 -0.000134303 0)
(0.199281 -0.000131039 0)
(0.199289 -0.000127285 0)
(0.199298 -0.000123043 0)
(0.199308 -0.00011832 0)
(0.199317 -0.000113128 0)
(0.199327 -0.000107493 0)
(0.199338 -0.000101454 0)
(0.199348 -9.50634e-05 0)
(0.199358 -8.8386e-05 0)
(0.199367 -8.15005e-05 0)
(0.199376 -7.44959e-05 0)
(0.199385 -6.74688e-05 0)
(0.199394 -6.05198e-05 0)
(0.199401 -5.37488e-05 0)
(0.199408 -4.72496e-05 0)
(0.199414 -4.10992e-05 0)
(0.19942 -3.53341e-05 0)
(0.199425 -2.98763e-05 0)
(0.19943 -2.43438e-05 0)
(0.198288 0.00645051 0)
(0.198463 0.0068983 0)
(0.198679 0.00728067 0)
(0.198925 0.00758598 0)
(0.199183 0.00780965 0)
(0.199442 0.00795235 0)
(0.199691 0.00801809 0)
(0.19992 0.00801334 0)
(0.200124 0.00794646 0)
(0.2003 0.00782711 0)
(0.200444 0.00766542 0)
(0.200559 0.0074714 0)
(0.200645 0.00725433 0)
(0.200705 0.00702249 0)
(0.200742 0.00678283 0)
(0.20076 0.006541 0)
(0.200764 0.00630131 0)
(0.200756 0.00606688 0)
(0.200739 0.0058398 0)
(0.200717 0.00562136 0)
(0.200691 0.0054122 0)
(0.200662 0.00521247 0)
(0.200633 0.00502204 0)
(0.200605 0.00484051 0)
(0.200576 0.00466737 0)
(0.20055 0.00450204 0)
(0.200524 0.00434389 0)
(0.2005 0.00419228 0)
(0.200478 0.00404659 0)
(0.200457 0.00390618 0)
(0.200438 0.00377048 0)
(0.200421 0.00363888 0)
(0.200405 0.00351084 0)
(0.20039 0.00338582 0)
(0.200377 0.00326329 0)
(0.200365 0.00314275 0)
(0.200354 0.00302374 0)
(0.200345 0.00290579 0)
(0.200336 0.00278849 0)
(0.200328 0.00267143 0)
(0.20032 0.00255425 0)
(0.200314 0.00243662 0)
(0.200308 0.00231823 0)
(0.200302 0.00219884 0)
(0.200297 0.00207825 0)
(0.200291 0.0019563 0)
(0.200286 0.00183293 0)
(0.20028 0.00170811 0)
(0.200274 0.00158194 0)
(0.200267 0.00145463 0)
(0.200259 0.00132656 0)
(0.200249 0.00119827 0)
(0.200237 0.00107057 0)
(0.200223 0.000944493 0)
(0.200206 0.000821296 0)
(0.200186 0.00070241 0)
(0.200163 0.00058931 0)
(0.200139 0.000483382 0)
(0.200112 0.000385789 0)
(0.200085 0.000297388 0)
(0.200058 0.000218683 0)
(0.200032 0.000149817 0)
(0.200007 9.05828e-05 0)
(0.199984 4.04506e-05 0)
(0.199963 -1.34087e-06 0)
(0.199944 -3.56345e-05 0)
(0.199928 -6.33069e-05 0)
(0.199914 -8.52563e-05 0)
(0.199903 -0.000102359 0)
(0.199894 -0.000115432 0)
(0.199887 -0.000125207 0)
(0.199881 -0.000132321 0)
(0.199878 -0.000137311 0)
(0.199875 -0.000140615 0)
(0.199874 -0.00014258 0)
(0.199873 -0.000143471 0)
(0.199874 -0.000143485 0)
(0.199875 -0.000142759 0)
(0.199876 -0.000141385 0)
(0.199878 -0.000139419 0)
(0.19988 -0.00013689 0)
(0.199883 -0.000133814 0)
(0.199886 -0.000130195 0)
(0.199888 -0.000126036 0)
(0.199891 -0.000121344 0)
(0.199894 -0.000116134 0)
(0.199897 -0.000110431 0)
(0.1999 -0.000104274 0)
(0.199903 -9.77196e-05 0)
(0.199905 -9.08359e-05 0)
(0.199907 -8.3707e-05 0)
(0.199909 -7.64282e-05 0)
(0.199911 -6.91039e-05 0)
(0.199912 -6.18434e-05 0)
(0.199913 -5.47555e-05 0)
(0.199913 -4.79428e-05 0)
(0.199914 -4.14917e-05 0)
(0.199913 -3.54531e-05 0)
(0.199913 -2.98014e-05 0)
(0.199913 -2.44054e-05 0)
(0.19889 0.00628382 0)
(0.198993 0.00667713 0)
(0.199121 0.00701997 0)
(0.199267 0.00730257 0)
(0.199424 0.00751915 0)
(0.199583 0.00766795 0)
(0.199738 0.00775043 0)
(0.199884 0.0077705 0)
(0.200015 0.00773396 0)
(0.20013 0.00764796 0)
(0.200227 0.00752041 0)
(0.200305 0.00735945 0)
(0.200366 0.00717296 0)
(0.200411 0.00696823 0)
(0.200441 0.0067517 0)
(0.200459 0.00652883 0)
(0.200466 0.00630409 0)
(0.200466 0.00608092 0)
(0.20046 0.00586189 0)
(0.200449 0.00564882 0)
(0.200436 0.00544284 0)
(0.200421 0.00524462 0)
(0.200405 0.00505443 0)
(0.200389 0.00487222 0)
(0.200373 0.00469778 0)
(0.200358 0.00453073 0)
(0.200343 0.00437062 0)
(0.20033 0.00421692 0)
(0.200318 0.00406909 0)
(0.200307 0.00392657 0)
(0.200297 0.00378881 0)
(0.200288 0.00365524 0)
(0.200281 0.00352532 0)
(0.200274 0.00339852 0)
(0.200269 0.00327434 0)
(0.200264 0.00315227 0)
(0.200261 0.00303185 0)
(0.200258 0.00291262 0)
(0.200256 0.00279417 0)
(0.200254 0.00267609 0)
(0.200254 0.00255803 0)
(0.200254 0.00243965 0)
(0.200254 0.00232068 0)
(0.200255 0.00220087 0)
(0.200255 0.00208002 0)
(0.200256 0.00195802 0)
(0.200257 0.00183479 0)
(0.200258 0.00171037 0)
(0.200258 0.00158488 0)
(0.200257 0.00145857 0)
(0.200256 0.00133182 0)
(0.200253 0.00120523 0)
(0.200249 0.00107953 0)
(0.200242 0.000955705 0)
(0.200234 0.000834875 0)
(0.200224 0.000718296 0)
(0.200212 0.000607252 0)
(0.200198 0.000502954 0)
(0.200183 0.000406442 0)
(0.200167 0.000318505 0)
(0.200151 0.00023964 0)
(0.200135 0.000170032 0)
(0.200119 0.000109564 0)
(0.200105 5.78483e-05 0)
(0.200091 1.42769e-05 0)
(0.20008 -2.18894e-05 0)
(0.200069 -5.14545e-05 0)
(0.20006 -7.52438e-05 0)
(0.200053 -9.4074e-05 0)
(0.200047 -0.000108721 0)
(0.200043 -0.000119893 0)
(0.200039 -0.00012822 0)
(0.200037 -0.000134241 0)
(0.200035 -0.000138405 0)
(0.200034 -0.000141077 0)
(0.200033 -0.000142542 0)
(0.200033 -0.000143016 0)
(0.200034 -0.000142657 0)
(0.200034 -0.000141572 0)
(0.200035 -0.000139832 0)
(0.200036 -0.000137479 0)
(0.200037 -0.000134536 0)
(0.200038 -0.000131015 0)
(0.200039 -0.000126924 0)
(0.20004 -0.000122273 0)
(0.200041 -0.00011708 0)
(0.200042 -0.000111372 0)
(0.200042 -0.000105191 0)
(0.200042 -9.85948e-05 0)
(0.200042 -9.16549e-05 0)
(0.200041 -8.44578e-05 0)
(0.20004 -7.71025e-05 0)
(0.200039 -6.96968e-05 0)
(0.200037 -6.23535e-05 0)
(0.200035 -5.51858e-05 0)
(0.200033 -4.83019e-05 0)
(0.20003 -4.17985e-05 0)
(0.200028 -3.57522e-05 0)
(0.200025 -3.02058e-05 0)
(0.200022 -2.51885e-05 0)
(0.199519 0.00620184 0)
(0.199547 0.00656058 0)
(0.199584 0.00687586 0)
(0.199629 0.00713942 0)
(0.199679 0.00734562 0)
(0.199732 0.00749192 0)
(0.199785 0.00757866 0)
(0.199837 0.00760851 0)
(0.199885 0.00758591 0)
(0.199929 0.00751663 0)
(0.199968 0.00740726 0)
(0.200001 0.0072648 0)
(0.200029 0.00709616 0)
(0.200052 0.00690794 0)
(0.200069 0.0067061 0)
(0.200082 0.00649586 0)
(0.200092 0.00628159 0)
(0.200098 0.00606684 0)
(0.200102 0.00585435 0)
(0.200104 0.00564616 0)
(0.200105 0.00544367 0)
(0.200104 0.00524781 0)
(0.200103 0.00505906 0)
(0.200102 0.00487761 0)
(0.200101 0.0047034 0)
(0.200099 0.00453621 0)
(0.200098 0.00437568 0)
(0.200096 0.00422137 0)
(0.200095 0.00407282 0)
(0.200094 0.0039295 0)
(0.200094 0.00379089 0)
(0.200094 0.00365646 0)
(0.200094 0.00352569 0)
(0.200094 0.00339805 0)
(0.200095 0.00327305 0)
(0.200096 0.0031502 0)
(0.200097 0.00302904 0)
(0.200099 0.00290913 0)
(0.2001 0.00279004 0)
(0.200102 0.0026714 0)
(0.200105 0.00255286 0)
(0.200107 0.00243408 0)
(0.20011 0.0023148 0)
(0.200112 0.00219479 0)
(0.200115 0.00207386 0)
(0.200118 0.00195192 0)
(0.200121 0.00182892 0)
(0.200123 0.00170491 0)
(0.200126 0.00158005 0)
(0.200128 0.00145459 0)
(0.20013 0.00132896 0)
(0.200131 0.00120374 0)
(0.200131 0.00107965 0)
(0.200131 0.000957611 0)
(0.20013 0.000838664 0)
(0.200129 0.000723948 0)
(0.200126 0.000614622 0)
(0.200123 0.000511782 0)
(0.200119 0.000416376 0)
(0.200114 0.000329141 0)
(0.20011 0.000250555 0)
(0.200105 0.000180823 0)
(0.2001 0.000119873 0)
(0.200096 6.73916e-05 0)
(0.200092 2.28575e-05 0)
(0.200089 -1.43836e-05 0)
(0.200085 -4.50732e-05 0)
(0.200083 -6.99871e-05 0)
(0.200081 -8.98988e-05 0)
(0.200079 -0.000105552 0)
(0.200078 -0.000117636 0)