/*--------------------------------*- C++ -*----------------------------------*\
| =========                 |                                                 |
| \\      /  F ield         | OpenFOAM: The Open Source CFD Toolbox           |
|  \\    /   O peration     | Version:  2.3.0                                 |
|   \\  /    A nd           | Web:      www.OpenFOAM.org                      |
|    \\/     M anipulation  |                                                 |
\*---------------------------------------------------------------------------*/
FoamFile
{
    version     2.0;
    format      ascii;
    class       surfaceScalarField;
    location    "0.7";
    object      phi_0;
}
// * * * * * * * * * * * * * * * * * * * * * * * * * * * * * * * * * * * * * //

dimensions      [0 3 -1 0 0 0 0];

internalField   nonuniform List<scalar> 
17305
(
2.83166e-08
2.88403e-09
-3.12007e-08
2.545e-08
2.86665e-09
2.27601e-08
2.68987e-09
2.02807e-08
2.47939e-09
1.80279e-08
2.25281e-09
1.60123e-08
2.01563e-09
1.42362e-08
1.77605e-09
1.26944e-08
1.54184e-09
1.13748e-08
1.31958e-09
1.02602e-08
1.11463e-09
9.32924e-09
9.30928e-10
8.55848e-09
7.70765e-10
7.92371e-09
6.34768e-10
7.40162e-09
5.22093e-10
6.97085e-09
4.3077e-10
6.61273e-09
3.58119e-10
6.31158e-09
3.01148e-10
6.05469e-09
2.56888e-10
5.83207e-09
2.22622e-10
5.63606e-09
1.96014e-10
5.4609e-09
1.75154e-10
5.30236e-09
1.58546e-10
5.1573e-09
1.45059e-10
5.02343e-09
1.33863e-10
4.89907e-09
1.24361e-10
4.78294e-09
1.16136e-10
4.67404e-09
1.08897e-10
4.5716e-09
1.02441e-10
4.47497e-09
9.66269e-11
4.38362e-09
9.13537e-11
4.29707e-09
8.65462e-11
4.21493e-09
8.21469e-11
4.13682e-09
7.81093e-11
4.06242e-09
7.43948e-11
3.99145e-09
7.09701e-11
3.92365e-09
6.78061e-11
3.85877e-09
6.48773e-11
3.79661e-09
6.21607e-11
3.73697e-09
5.96359e-11
3.67969e-09
5.72848e-11
3.6246e-09
5.5091e-11
3.57156e-09
5.30401e-11
3.52044e-09
5.11193e-11
3.47112e-09
4.93169e-11
3.4235e-09
4.76228e-11
3.37747e-09
4.60277e-11
3.33295e-09
4.45235e-11
3.28984e-09
4.31029e-11
3.24808e-09
4.17591e-11
3.2076e-09
4.04863e-11
3.16832e-09
3.92791e-11
3.13019e-09
3.81326e-11
3.09314e-09
3.70425e-11
3.05714e-09
3.60048e-11
3.02212e-09
3.50157e-11
2.98805e-09
3.4072e-11
2.95488e-09
3.31707e-11
2.92257e-09
3.23089e-11
2.89109e-09
3.14841e-11
2.86039e-09
3.0694e-11
2.83046e-09
2.99363e-11
2.80125e-09
2.92091e-11
2.77274e-09
2.85106e-11
2.7449e-09
2.7839e-11
2.71771e-09
2.71928e-11
2.69114e-09
2.65706e-11
2.66516e-09
2.59709e-11
2.63977e-09
2.53925e-11
2.61494e-09
2.48344e-11
2.59064e-09
2.42953e-11
2.56687e-09
2.37744e-11
2.5436e-09
2.32707e-11
2.52081e-09
2.27834e-11
2.4985e-09
2.23116e-11
2.47665e-09
2.18548e-11
2.45523e-09
2.14122e-11
2.43425e-09
2.09832e-11
2.41368e-09
2.05675e-11
2.39352e-09
2.01644e-11
2.37375e-09
1.97736e-11
2.35435e-09
1.93948e-11
2.33532e-09
1.90277e-11
2.31665e-09
1.86721e-11
2.29832e-09
1.8328e-11
2.28033e-09
1.79954e-11
2.26265e-09
1.76743e-11
2.24529e-09
1.73651e-11
2.22822e-09
1.70681e-11
2.21144e-09
1.6784e-11
2.19492e-09
1.65136e-11
2.17866e-09
1.62585e-11
2.16264e-09
1.60207e-11
2.14684e-09
1.58034e-11
2.13123e-09
1.56128e-11
2.11577e-09
1.54602e-11
2.1004e-09
1.53713e-11
2.08498e-09
1.54147e-11
2.06922e-09
1.57612e-11
2.05274e-09
1.64849e-11
4.83507e-11
3.33512e-08
3.16032e-09
-3.36275e-08
3.27611e-08
3.4567e-09
3.19391e-08
3.51191e-09
3.09618e-08
3.45671e-09
2.98846e-08
3.32994e-09
2.87533e-08
3.14701e-09
2.76046e-08
2.92475e-09
2.64669e-08
2.67955e-09
2.5361e-08
2.42541e-09
2.43018e-08
2.17386e-09
2.32987e-08
1.93405e-09
2.23569e-08
1.71252e-09
2.14785e-08
1.51321e-09
2.06628e-08
1.33773e-09
1.99078e-08
1.18582e-09
1.921e-08
1.05589e-09
1.85656e-08
9.456e-10
1.79702e-08
8.52265e-10
1.74196e-08
7.73213e-10
1.69096e-08
7.05979e-10
1.64364e-08
6.48414e-10
1.59962e-08
5.98723e-10
1.55858e-08
5.55446e-10
1.52022e-08
5.1742e-10
1.48429e-08
4.8373e-10
1.45054e-08
4.53661e-10
1.41876e-08
4.26651e-10
1.38878e-08
4.02258e-10
1.36043e-08
3.80127e-10
1.33357e-08
3.59969e-10
1.30807e-08
3.41549e-10
1.28381e-08
3.24666e-10
1.26071e-08
3.0915e-10
1.23866e-08
2.94855e-10
1.2176e-08
2.81655e-10
1.19743e-08
2.69438e-10
1.17811e-08
2.58107e-10
1.15957e-08
2.47575e-10
1.14176e-08
2.37765e-10
1.12462e-08
2.28612e-10
1.10813e-08
2.20053e-10
1.09223e-08
2.12036e-10
1.07689e-08
2.04514e-10
1.06208e-08
1.97443e-10
1.04776e-08
1.90787e-10
1.03391e-08
1.8451e-10
1.0205e-08
1.78582e-10
1.00752e-08
1.72976e-10
9.94927e-09
1.67667e-10
9.82712e-09
1.62633e-10
9.70855e-09
1.57853e-10
9.59337e-09
1.53309e-10
9.48143e-09
1.48984e-10
9.37257e-09
1.44863e-10
9.26666e-09
1.40932e-10
9.16355e-09
1.37178e-10
9.06313e-09
1.33589e-10
8.96529e-09
1.30155e-10
8.8699e-09
1.26866e-10
8.77688e-09
1.23713e-10
8.68613e-09
1.20686e-10
8.59756e-09
1.1778e-10
8.51109e-09
1.14985e-10
8.42663e-09
1.12296e-10
8.34412e-09
1.09707e-10
8.26348e-09
1.07211e-10
8.18465e-09
1.04803e-10
8.10756e-09
1.02479e-10
8.03216e-09
1.00234e-10
7.95839e-09
9.80634e-11
7.8862e-09
9.59632e-11
7.81554e-09
9.39298e-11
7.74637e-09
9.19598e-11
7.67863e-09
9.005e-11
7.61229e-09
8.81975e-11
7.5473e-09
8.63995e-11
7.48363e-09
8.46537e-11
7.42124e-09
8.29577e-11
7.36009e-09
8.13096e-11
7.30016e-09
7.97075e-11
7.2414e-09
7.81499e-11
7.1838e-09
7.66355e-11
7.1273e-09
7.51633e-11
7.0719e-09
7.37325e-11
7.01755e-09
7.23427e-11
6.96423e-09
7.09939e-11
6.91191e-09
6.96866e-11
6.86056e-09
6.84218e-11
6.81014e-09
6.72011e-11
6.76063e-09
6.60272e-11
6.71198e-09
6.49045e-11
6.66416e-09
6.38392e-11
6.61712e-09
6.28421e-11
6.57081e-09
6.19317e-11
6.52512e-09
6.11447e-11
6.47993e-09
6.05642e-11
6.43494e-09
6.04052e-11
6.38947e-09
6.12256e-11
6.33815e-09
6.78063e-11
1.21875e-10
3.47463e-08
3.01072e-09
-3.45967e-08
3.4807e-08
3.39603e-09
3.47413e-08
3.57762e-09
3.45547e-08
3.64327e-09
3.42579e-08
3.62674e-09
3.38652e-08
3.53975e-09
3.33939e-08
3.39603e-09
3.28619e-08
3.21156e-09
3.22858e-08
3.00143e-09
3.16807e-08
2.77897e-09
3.10593e-08
2.55548e-09
3.0432e-08
2.33983e-09
2.9807e-08
2.13822e-09
2.91904e-08
1.95432e-09
2.85866e-08
1.78965e-09
2.79984e-08
1.64406e-09
2.74277e-08
1.51633e-09
2.68753e-08
1.4046e-09
2.63418e-08
1.30679e-09
2.58269e-08
1.22083e-09
2.53305e-08
1.14482e-09
2.48521e-08
1.07714e-09
2.43911e-08
1.01642e-09
2.3947e-08
9.61545e-10
2.35191e-08
9.11634e-10
2.31068e-08
8.65978e-10
2.27094e-08
8.24015e-10
2.23264e-08
7.85296e-10
2.1957e-08
7.49456e-10
2.16008e-08
7.16191e-10
2.12571e-08
6.8525e-10
2.09254e-08
6.56415e-10
2.0605e-08
6.29498e-10
2.02955e-08
6.04332e-10
1.99964e-08
5.8077e-10
1.97072e-08
5.58679e-10
1.94273e-08
5.3794e-10
1.91565e-08
5.18445e-10
1.88941e-08
5.00096e-10
1.86399e-08
4.82804e-10
1.83935e-08
4.66488e-10
1.81545e-08
4.51075e-10
1.79225e-08
4.36497e-10
1.76972e-08
4.22693e-10
1.74784e-08
4.09608e-10
1.72657e-08
3.9719e-10
1.70589e-08
3.85392e-10
1.68577e-08
3.74172e-10
1.66619e-08
3.6349e-10
1.64712e-08
3.53311e-10
1.62855e-08
3.43601e-10
1.61045e-08
3.34329e-10
1.5928e-08
3.25468e-10
1.57559e-08
3.16991e-10
1.55879e-08
3.08874e-10
1.5424e-08
3.01096e-10
1.52639e-08
2.93636e-10
1.51076e-08
2.86474e-10
1.49549e-08
2.79593e-10
1.48056e-08
2.72976e-10
1.46597e-08
2.66608e-10
1.4517e-08
2.60475e-10
1.43774e-08
2.54563e-10
1.42409e-08
2.48861e-10
1.41072e-08
2.43355e-10
1.39764e-08
2.38036e-10
1.38483e-08
2.32894e-10
1.37229e-08
2.27918e-10
1.36e-08
2.231e-10
1.34796e-08
2.18432e-10
1.33617e-08
2.13905e-10
1.32461e-08
2.09513e-10
1.31328e-08
2.05248e-10
1.30218e-08
2.01105e-10
1.29129e-08
1.97077e-10
1.28061e-08
1.93159e-10
1.27014e-08
1.89346e-10
1.25988e-08
1.85632e-10
1.24981e-08
1.82015e-10
1.23993e-08
1.78489e-10
1.23024e-08
1.75052e-10
1.22073e-08
1.71701e-10
1.2114e-08
1.68433e-10
1.20225e-08
1.65247e-10
1.19327e-08
1.62141e-10
1.18446e-08
1.59114e-10
1.17581e-08
1.56168e-10
1.16732e-08
1.53304e-10
1.15899e-08
1.50525e-10
1.15081e-08
1.47835e-10
1.14278e-08
1.45242e-10
1.13489e-08
1.42758e-10
1.12713e-08
1.40402e-10
1.1195e-08
1.38211e-10
1.11199e-08
1.36252e-10
1.10458e-08
1.34684e-10
1.09723e-08
1.33921e-10
1.08982e-08
1.35263e-10
1.08185e-08
1.47535e-10
2.07381e-10
3.55806e-08
2.82208e-09
-3.53919e-08
3.57725e-08
3.20412e-09
3.59231e-08
3.42698e-09
3.602e-08
3.54633e-09
3.60567e-08
3.59013e-09
3.6029e-08
3.56738e-09
3.59377e-08
3.48738e-09
3.57867e-08
3.36255e-09
3.55823e-08
3.20578e-09
3.53321e-08
3.02918e-09
3.50441e-08
2.84352e-09
3.47261e-08
2.65783e-09
3.43854e-08
2.47895e-09
3.40282e-08
2.3115e-09
3.36598e-08
2.15805e-09
3.32843e-08
2.01952e-09
3.2905e-08
1.89564e-09
3.25243e-08
1.78534e-09
3.21439e-08
1.68717e-09
3.17652e-08
1.59955e-09
3.13891e-08
1.52094e-09
3.10163e-08
1.44994e-09
3.06473e-08
1.38537e-09
3.02826e-08
1.32623e-09
2.99225e-08
1.27172e-09
2.95673e-08
1.22119e-09
2.92172e-08
1.17413e-09
2.88724e-08
1.13013e-09
2.8533e-08
1.08886e-09
2.81991e-08
1.05005e-09
2.78709e-08
1.01346e-09
2.75484e-08
9.78923e-10
2.72316e-08
9.46259e-10
2.69206e-08
9.1533e-10
2.66154e-08
8.86007e-10
2.63159e-08
8.58177e-10
2.60221e-08
8.31735e-10
2.5734e-08
8.06589e-10
2.54514e-08
7.82651e-10
2.51744e-08
7.59844e-10
2.49028e-08
7.38096e-10
2.46365e-08
7.17338e-10
2.43755e-08
6.97512e-10
2.41196e-08
6.78558e-10
2.38688e-08
6.60426e-10
2.36229e-08
6.43067e-10
2.33819e-08
6.26434e-10
2.31456e-08
6.10488e-10
2.29139e-08
5.95187e-10
2.26867e-08
5.80497e-10
2.24639e-08
5.66382e-10
2.22454e-08
5.52812e-10
2.20311e-08
5.39756e-10
2.18209e-08
5.27188e-10
2.16147e-08
5.1508e-10
2.14124e-08
5.03408e-10
2.12139e-08
4.9215e-10
2.10191e-08
4.81283e-10
2.08279e-08
4.70788e-10
2.06402e-08
4.60645e-10
2.0456e-08
4.50837e-10
2.02751e-08
4.41346e-10
2.00975e-08
4.32156e-10
1.99231e-08
4.23252e-10
1.97519e-08
4.1462e-10
1.95837e-08
4.06246e-10
1.94184e-08
3.98117e-10
1.92561e-08
3.90221e-10
1.90967e-08
3.82548e-10
1.894e-08
3.75085e-10
1.87861e-08
3.67823e-10
1.86349e-08
3.60751e-10
1.84863e-08
3.53862e-10
1.83402e-08
3.47145e-10
1.81967e-08
3.40594e-10
1.80557e-08
3.342e-10
1.79171e-08
3.27957e-10
1.77808e-08
3.21857e-10
1.76469e-08
3.15896e-10
1.75154e-08
3.10066e-10
1.73861e-08
3.04364e-10
1.7259e-08
2.98786e-10
1.71341e-08
2.93327e-10
1.70113e-08
2.87985e-10
1.68907e-08
2.82759e-10
1.67722e-08
2.77647e-10
1.66557e-08
2.72651e-10
1.65412e-08
2.67771e-10
1.64288e-08
2.63014e-10
1.63182e-08
2.58386e-10
1.62095e-08
2.53897e-10
1.61027e-08
2.49567e-10
1.59977e-08
2.45426e-10
1.58944e-08
2.41525e-10
1.57927e-08
2.3797e-10
1.56924e-08
2.34998e-10
1.55931e-08
2.33234e-10
1.54936e-08
2.34738e-10
1.53916e-08
2.49507e-10
3.03865e-10
3.63312e-08
2.65705e-09
-3.61662e-08
3.65259e-08
3.00946e-09
3.67143e-08
3.23851e-09
3.68839e-08
3.3768e-09
3.70269e-08
3.44711e-09
3.71362e-08
3.45807e-09
3.72068e-08
3.41678e-09
3.72365e-08
3.33284e-09
3.72255e-08
3.21683e-09
3.71757e-08
3.07899e-09
3.70905e-08
2.92871e-09
3.69742e-08
2.77414e-09
3.68313e-08
2.62182e-09
3.66663e-08
2.47645e-09
3.64834e-08
2.34101e-09
3.62859e-08
2.21696e-09
3.60769e-08
2.10464e-09
3.58587e-08
2.00358e-09
3.5633e-08
1.91283e-09
3.54014e-08
1.83121e-09
3.51648e-08
1.7575e-09
3.49242e-08
1.69056e-09
3.46802e-08
1.62935e-09
3.44334e-08
1.57301e-09
3.41843e-08
1.52081e-09
3.39334e-08
1.47216e-09
3.36809e-08
1.42658e-09
3.34274e-08
1.38369e-09
3.3173e-08
1.3432e-09
3.29182e-08
1.30484e-09
3.26633e-08
1.26843e-09
3.24084e-08
1.23378e-09
3.21539e-08
1.20075e-09
3.19e-08
1.16921e-09
3.1647e-08
1.13907e-09
3.13949e-08
1.11022e-09
3.11441e-08
1.08257e-09
3.08946e-08
1.05605e-09
3.06467e-08
1.03059e-09
3.04004e-08
1.00612e-09
3.01559e-08
9.8259e-10
2.99133e-08
9.59938e-10
2.96727e-08
9.38117e-10
2.94342e-08
9.17083e-10
2.91978e-08
8.96793e-10
2.89637e-08
8.77209e-10
2.87318e-08
8.58294e-10
2.85023e-08
8.40014e-10
2.82752e-08
8.22339e-10
2.80504e-08
8.05238e-10
2.78281e-08
7.88684e-10
2.76083e-08
7.72652e-10
2.73909e-08
7.57116e-10
2.7176e-08
7.42054e-10
2.69637e-08
7.27443e-10
2.67538e-08
7.13265e-10
2.65465e-08
6.99498e-10
2.63416e-08
6.86124e-10
2.61393e-08
6.73126e-10
2.59395e-08
6.60488e-10
2.57421e-08
6.48192e-10
2.55472e-08
6.36224e-10
2.53548e-08
6.2457e-10
2.51648e-08
6.13215e-10
2.49773e-08
6.02147e-10
2.47922e-08
5.91352e-10
2.46095e-08
5.80819e-10
2.44292e-08
5.70535e-10
2.42512e-08
5.60491e-10
2.40757e-08
5.50674e-10
2.39024e-08
5.41076e-10
2.37315e-08
5.31686e-10
2.35628e-08
5.22495e-10
2.33965e-08
5.13494e-10
2.32324e-08
5.04676e-10
2.30706e-08
4.96031e-10
2.2911e-08
4.87553e-10
2.27536e-08
4.79234e-10
2.25984e-08
4.71069e-10
2.24454e-08
4.63052e-10
2.22946e-08
4.55177e-10
2.2146e-08
4.4744e-10
2.19995e-08
4.39838e-10
2.18551e-08
4.32368e-10
2.17128e-08
4.25027e-10
2.15726e-08
4.17818e-10
2.14346e-08
4.10739e-10
2.12985e-08
4.03796e-10
2.11646e-08
3.96995e-10
2.10326e-08
3.90345e-10
2.09026e-08
3.83863e-10
2.07746e-08
3.77573e-10
2.06485e-08
3.71515e-10
2.05243e-08
3.6576e-10
2.04018e-08
3.60445e-10
2.02809e-08
3.55879e-10
2.01613e-08
3.52851e-10
2.00422e-08
3.53813e-10
1.99241e-08
3.67681e-10
4.09354e-10
3.70752e-08
2.51816e-09
-3.69363e-08
3.72493e-08
2.83543e-09
3.74301e-08
3.05767e-09
3.76057e-08
3.20121e-09
3.77697e-08
3.28314e-09
3.79159e-08
3.31179e-09
3.80394e-08
3.29334e-09
3.81366e-08
3.23562e-09
3.82059e-08
3.14751e-09
3.82472e-08
3.03774e-09
3.82614e-08
2.91448e-09
3.82506e-08
2.78489e-09
3.82175e-08
2.65493e-09
3.81649e-08
2.52906e-09
3.80956e-08
2.41029e-09
3.80123e-08
2.30035e-09
3.7917e-08
2.19993e-09
3.78116e-08
2.10893e-09
3.76977e-08
2.02679e-09
3.75762e-08
1.95264e-09
3.74482e-08
1.88555e-09
3.73142e-08
1.82454e-09
3.71748e-08
1.76875e-09
3.70304e-08
1.71739e-09
3.68814e-08
1.66982e-09
3.67281e-08
1.62549e-09
3.65707e-08
1.58394e-09
3.64096e-08
1.54483e-09
3.62449e-08
1.50785e-09
3.6077e-08
1.47277e-09
3.5906e-08
1.43939e-09
3.57323e-08
1.40754e-09
3.55559e-08
1.37709e-09
3.53772e-08
1.34792e-09
3.51964e-08
1.31992e-09
3.50136e-08
1.29301e-09
3.4829e-08
1.26711e-09
3.46429e-08
1.24215e-09
3.44555e-08
1.21806e-09
3.42668e-08
1.19479e-09
3.40771e-08
1.17229e-09
3.38865e-08
1.15052e-09
3.36952e-08
1.12942e-09
3.35033e-08
1.10896e-09
3.3311e-08
1.08911e-09
3.31184e-08
1.06983e-09
3.29256e-08
1.05109e-09
3.27327e-08
1.03288e-09
3.25399e-08
1.01515e-09
3.23473e-08
9.97896e-10
3.21549e-08
9.81086e-10
3.19628e-08
9.64702e-10
3.17712e-08
9.48725e-10
3.15801e-08
9.33138e-10
3.13897e-08
9.17923e-10
3.11999e-08
9.03064e-10
3.10108e-08
8.88547e-10
3.08226e-08
8.74357e-10
3.06352e-08
8.60481e-10
3.04488e-08
8.46905e-10
3.02634e-08
8.33617e-10
3.0079e-08
8.20606e-10
2.98957e-08
8.0786e-10
2.97136e-08
7.95368e-10
2.95326e-08
7.83119e-10
2.93528e-08
7.71105e-10
2.91743e-08
7.59314e-10
2.89971e-08
7.47738e-10
2.88213e-08
7.36367e-10
2.86467e-08
7.25193e-10
2.84736e-08
7.14207e-10
2.83019e-08
7.03401e-10
2.81316e-08
6.92768e-10
2.79628e-08
6.823e-10
2.77955e-08
6.7199e-10
2.76297e-08
6.61831e-10
2.74654e-08
6.51816e-10
2.73027e-08
6.41941e-10
2.71416e-08
6.32199e-10
2.69821e-08
6.22585e-10
2.68241e-08
6.13096e-10
2.66679e-08
6.03728e-10
2.65132e-08
5.94478e-10
2.63602e-08
5.85344e-10
2.62089e-08
5.76327e-10
2.60593e-08
5.67428e-10
2.59114e-08
5.58649e-10
2.57652e-08
5.49997e-10
2.56207e-08
5.4148e-10
2.5478e-08
5.33112e-10
2.53369e-08
5.24914e-10
2.51976e-08
5.16917e-10
2.50599e-08
5.09172e-10
2.49239e-08
5.01763e-10
2.47895e-08
4.94856e-10
2.46566e-08
4.88802e-10
2.4525e-08
4.84462e-10
2.43946e-08
4.84204e-10
2.42677e-08
4.94595e-10
5.19966e-10
3.78246e-08
2.39956e-09
-3.7706e-08
3.79772e-08
2.68278e-09
3.81419e-08
2.89299e-09
3.8307e-08
3.0361e-09
3.84665e-08
3.12364e-09
3.86154e-08
3.16293e-09
3.87492e-08
3.1595e-09
3.88649e-08
3.11992e-09
3.89607e-08
3.05176e-09
3.90358e-08
2.96261e-09
3.90906e-08
2.85964e-09
3.91263e-08
2.74921e-09
3.91445e-08
2.6367e-09
3.91473e-08
2.52629e-09
3.91367e-08
2.42094e-09
3.91145e-08
2.32248e-09
3.90826e-08
2.23182e-09
3.90424e-08
2.14916e-09
3.8995e-08
2.07421e-09
3.89413e-08
2.00637e-09
3.88819e-08
1.94492e-09
3.88174e-08
1.88906e-09
3.8748e-08
1.83807e-09
3.86742e-08
1.79125e-09
3.8596e-08
1.74801e-09
3.85136e-08
1.70784e-09
3.84273e-08
1.67034e-09
3.83369e-08
1.63514e-09
3.82428e-08
1.60196e-09
3.8145e-08
1.57056e-09
3.80437e-08
1.54075e-09
3.79389e-08
1.51236e-09
3.78307e-08
1.48525e-09
3.77193e-08
1.4593e-09
3.76048e-08
1.4344e-09
3.74874e-08
1.41048e-09
3.73671e-08
1.38744e-09
3.7244e-08
1.36522e-09
3.71183e-08
1.34376e-09
3.69901e-08
1.323e-09
3.68595e-08
1.30288e-09
3.67266e-08
1.28337e-09
3.65916e-08
1.26442e-09
3.64546e-08
1.246e-09
3.63156e-08
1.22808e-09
3.61748e-08
1.21061e-09
3.60323e-08
1.19358e-09
3.58883e-08
1.17696e-09
3.57427e-08
1.16073e-09
3.55957e-08
1.14486e-09
3.54475e-08
1.12934e-09
3.5298e-08
1.11414e-09
3.51475e-08
1.09925e-09
3.4996e-08
1.08466e-09
3.48435e-08
1.07035e-09
3.46903e-08
1.05631e-09
3.45363e-08
1.04251e-09
3.43817e-08
1.02897e-09
3.42266e-08
1.01565e-09
3.40709e-08
1.00255e-09
3.39149e-08
9.89661e-10
3.37585e-08
9.76973e-10
3.36019e-08
9.64476e-10
3.34451e-08
9.52161e-10
3.32882e-08
9.4002e-10
3.31313e-08
9.28045e-10
3.29743e-08
9.16228e-10
3.28175e-08
9.04561e-10
3.26608e-08
8.93037e-10
3.25044e-08
8.8165e-10
3.23482e-08
8.70392e-10
3.21923e-08
8.59257e-10
3.20369e-08
8.48239e-10
3.18818e-08
8.37332e-10
3.17273e-08
8.26529e-10
3.15733e-08
8.15826e-10
3.14199e-08
8.05218e-10
3.12671e-08
7.94699e-10
3.11151e-08
7.84266e-10
3.09638e-08
7.73915e-10
3.08132e-08
7.63643e-10
3.06635e-08
7.53447e-10
3.05146e-08
7.43327e-10
3.03667e-08
7.33282e-10
3.02197e-08
7.23314e-10
3.00737e-08
7.13425e-10
2.99287e-08
7.03621e-10
2.97848e-08
6.93909e-10
2.9642e-08
6.84302e-10
2.95003e-08
6.74817e-10
2.93597e-08
6.65479e-10
2.92203e-08
6.56325e-10
2.90821e-08
6.47414e-10
2.8945e-08
6.38843e-10
2.88091e-08
6.30792e-10
2.86743e-08
6.23623e-10
2.85406e-08
6.1815e-10
2.84085e-08
6.16277e-10
2.82813e-08
6.21793e-10
6.30465e-10
3.85809e-08
2.29617e-09
-3.84775e-08
3.87152e-08
2.54849e-09
3.88637e-08
2.74457e-09
3.90155e-08
2.88426e-09
3.91647e-08
2.97444e-09
3.93067e-08
3.02095e-09
3.94376e-08
3.02861e-09
3.95545e-08
3.00296e-09
3.96559e-08
2.95042e-09
3.97409e-08
2.87762e-09
3.98096e-08
2.79086e-09
3.9863e-08
2.69584e-09
3.99023e-08
2.59743e-09
3.9929e-08
2.49953e-09
3.9945e-08
2.40501e-09
3.99517e-08
2.31577e-09
3.99506e-08
2.23287e-09
3.99431e-08
2.15673e-09
3.993e-08
2.0873e-09
3.99121e-08
2.02422e-09
3.98901e-08
1.96694e-09
3.98643e-08
1.91485e-09
3.9835e-08
1.86733e-09
3.98025e-08
1.82378e-09
3.97668e-08
1.7837e-09
3.9728e-08
1.74661e-09
3.96863e-08
1.71212e-09
3.96415e-08
1.6799e-09
3.95938e-08
1.64968e-09
3.95431e-08
1.62121e-09
3.94896e-08
1.59431e-09
3.94331e-08
1.5688e-09
3.93738e-08
1.54455e-09
3.93117e-08
1.52144e-09
3.92468e-08
1.49934e-09
3.9179e-08
1.47818e-09
3.91086e-08
1.45788e-09
3.90355e-08
1.43834e-09
3.89597e-08
1.41952e-09
3.88814e-08
1.40136e-09
3.88005e-08
1.38379e-09
3.8717e-08
1.36678e-09
3.86312e-08
1.35028e-09
3.8543e-08
1.33425e-09
3.84524e-08
1.31865e-09
3.83595e-08
1.30346e-09
3.82645e-08
1.28865e-09
3.81672e-08
1.27418e-09
3.80679e-08
1.26004e-09
3.79666e-08
1.2462e-09
3.78633e-08
1.23264e-09
3.77581e-08
1.21934e-09
3.76511e-08
1.20629e-09
3.75423e-08
1.19346e-09
3.74317e-08
1.18085e-09
3.73196e-08
1.16844e-09
3.72059e-08
1.15622e-09
3.70907e-08
1.14417e-09
3.69741e-08
1.13229e-09
3.68561e-08
1.12056e-09
3.67367e-08
1.10897e-09
3.66162e-08
1.09751e-09
3.64945e-08
1.08618e-09
3.63717e-08
1.07497e-09
3.62478e-08
1.06387e-09
3.6123e-08
1.05286e-09
3.59973e-08
1.04195e-09
3.58707e-08
1.03113e-09
3.57434e-08
1.02038e-09
3.56153e-08
1.00971e-09
3.54866e-08
9.99109e-10
3.53573e-08
9.88565e-10
3.52275e-08
9.78076e-10
3.50971e-08
9.67637e-10
3.49664e-08
9.57242e-10
3.48354e-08
9.46887e-10
3.4704e-08
9.36566e-10
3.45724e-08
9.26277e-10
3.44407e-08
9.16016e-10
3.43088e-08
9.05779e-10
3.41769e-08
8.95564e-10
3.4045e-08
8.85369e-10
3.39131e-08
8.75195e-10
3.37814e-08
8.65042e-10
3.36498e-08
8.54912e-10
3.35184e-08
8.44811e-10
3.33873e-08
8.34743e-10
3.32564e-08
8.2472e-10
3.3126e-08
8.14756e-10
3.29959e-08
8.04872e-10
3.28663e-08
7.95095e-10
3.27372e-08
7.85468e-10
3.26085e-08
7.76055e-10
3.24804e-08
7.66959e-10
3.23529e-08
7.5836e-10
3.22259e-08
7.50597e-10
3.20997e-08
7.44337e-10
3.19752e-08
7.40817e-10
3.18557e-08
7.41222e-10
7.35396e-10
3.93448e-08
2.20434e-09
-3.92529e-08
3.94638e-08
2.42943e-09
3.95976e-08
2.61081e-09
3.97366e-08
2.74526e-09
3.98749e-08
2.83615e-09
4.00081e-08
2.88775e-09
4.01326e-08
2.90409e-09
4.02457e-08
2.8898e-09
4.03459e-08
2.85029e-09
4.04322e-08
2.79128e-09
4.05048e-08
2.71831e-09
4.05641e-08
2.63647e-09
4.06114e-08
2.55017e-09
4.06479e-08
2.46303e-09
4.06751e-08
2.37781e-09
4.06944e-08
2.29643e-09
4.07072e-08
2.22008e-09
4.07146e-08
2.14935e-09
4.07175e-08
2.08438e-09
4.07168e-08
2.025e-09
4.07128e-08
1.97085e-09
4.07062e-08
1.92147e-09
4.06972e-08
1.87636e-09
4.06859e-08
1.83504e-09
4.06726e-08
1.79704e-09
4.06573e-08
1.76195e-09
4.06399e-08
1.72943e-09
4.06207e-08
1.69916e-09
4.05995e-08
1.67088e-09
4.05763e-08
1.64437e-09
4.05512e-08
1.61943e-09
4.05241e-08
1.5959e-09
4.0495e-08
1.57365e-09
4.04639e-08
1.55254e-09
4.04308e-08
1.53247e-09
4.03956e-08
1.51334e-09
4.03584e-08
1.49508e-09
4.03192e-08
1.4776e-09
4.02778e-08
1.46084e-09
4.02345e-08
1.44474e-09
4.0189e-08
1.42924e-09
4.01415e-08
1.4143e-09
4.00919e-08
1.39986e-09
4.00403e-08
1.38589e-09
3.99866e-08
1.37234e-09
3.99308e-08
1.35919e-09
3.98731e-08
1.34641e-09
3.98133e-08
1.33395e-09
3.97515e-08
1.32181e-09
3.96878e-08
1.30994e-09
3.96221e-08
1.29833e-09
3.95545e-08
1.28697e-09
3.9485e-08
1.27582e-09
3.94135e-08
1.26487e-09
3.93403e-08
1.25411e-09
3.92652e-08
1.24352e-09
3.91883e-08
1.23308e-09
3.91097e-08
1.22279e-09
3.90294e-08
1.21262e-09
3.89474e-08
1.20257e-09
3.88637e-08
1.19262e-09
3.87785e-08
1.18277e-09
3.86917e-08
1.173e-09
3.86033e-08
1.16331e-09
3.85135e-08
1.15368e-09
3.84223e-08
1.14411e-09
3.83296e-08
1.13459e-09
3.82357e-08
1.12511e-09
3.81404e-08
1.11566e-09
3.80438e-08
1.10624e-09
3.79461e-08
1.09684e-09
3.78472e-08
1.08745e-09
3.77472e-08
1.07807e-09
3.76462e-08
1.06869e-09
3.75441e-08
1.0593e-09
3.74411e-08
1.04991e-09
3.73372e-08
1.04049e-09
3.72324e-08
1.03106e-09
3.71268e-08
1.0216e-09
3.70205e-08
1.01212e-09
3.69134e-08
1.0026e-09
3.68057e-08
9.93057e-10
3.66974e-08
9.8348e-10
3.65886e-08
9.73873e-10
3.64793e-08
9.64237e-10
3.63695e-08
9.54579e-10
3.62594e-08
9.44906e-10
3.61488e-08
9.35228e-10
3.6038e-08
9.25562e-10
3.5927e-08
9.1593e-10
3.58157e-08
9.06362e-10
3.57043e-08
8.96904e-10
3.55927e-08
8.87622e-10
3.54811e-08
8.78618e-10
3.53694e-08
8.7006e-10
3.52577e-08
8.62232e-10
3.51465e-08
8.55598e-10
3.50366e-08
8.50696e-10
3.49311e-08
8.46658e-10
8.30183e-10
4.01166e-08
2.12155e-09
-4.00338e-08
4.02231e-08
2.32295e-09
4.03439e-08
2.48995e-09
4.04712e-08
2.61805e-09
4.05991e-08
2.70824e-09
4.07235e-08
2.76333e-09
4.0841e-08
2.78654e-09
4.09492e-08
2.78169e-09
4.10461e-08
2.7533e-09
4.11312e-08
2.70627e-09
4.1204e-08
2.64542e-09
4.12652e-08
2.57528e-09
4.13156e-08
2.49983e-09
4.13562e-08
2.4224e-09
4.13884e-08
2.34563e-09
4.14134e-08
2.2714e-09
4.14325e-08
2.201e-09
4.14467e-08
2.13514e-09
4.1457e-08
2.07413e-09
4.1464e-08
2.01797e-09
4.14684e-08
1.96645e-09
4.14706e-08
1.91925e-09
4.1471e-08
1.87599e-09
4.14697e-08
1.83628e-09
4.1467e-08
1.79972e-09
4.1463e-08
1.76597e-09
4.14577e-08
1.73472e-09
4.14512e-08
1.70567e-09
4.14435e-08
1.6786e-09
4.14346e-08
1.65329e-09
4.14245e-08
1.62955e-09
4.14131e-08
1.60724e-09
4.14006e-08
1.58622e-09
4.13867e-08
1.56636e-09
4.13716e-08
1.54757e-09
4.13552e-08
1.52974e-09
4.13375e-08
1.5128e-09
4.13185e-08
1.49667e-09
4.1298e-08
1.48128e-09
4.12762e-08
1.46657e-09
4.12529e-08
1.45249e-09
4.12283e-08
1.43898e-09
4.12021e-08
1.426e-09
4.11745e-08
1.4135e-09
4.11454e-08
1.40145e-09
4.11148e-08
1.38982e-09
4.10826e-08
1.37856e-09
4.10489e-08
1.36764e-09
4.10137e-08
1.35705e-09
4.09769e-08
1.34675e-09
4.09385e-08
1.33671e-09
4.08986e-08
1.32692e-09
4.0857e-08
1.31735e-09
4.08139e-08
1.30799e-09
4.07692e-08
1.29882e-09
4.07229e-08
1.28981e-09
4.0675e-08
1.28095e-09
4.06256e-08
1.27223e-09
4.05746e-08
1.26364e-09
4.0522e-08
1.25515e-09
4.04679e-08
1.24676e-09
4.04122e-08
1.23845e-09
4.0355e-08
1.23021e-09
4.02962e-08
1.22203e-09
4.0236e-08
1.21391e-09
4.01743e-08
1.20582e-09
4.01111e-08
1.19776e-09
4.00465e-08
1.18972e-09
3.99805e-08
1.1817e-09
3.99131e-08
1.17367e-09
3.98443e-08
1.16564e-09
3.97741e-08
1.1576e-09
3.97027e-08
1.14954e-09
3.96299e-08
1.14144e-09
3.95559e-08
1.13331e-09
3.94807e-08
1.12515e-09
3.94042e-08
1.11693e-09
3.93266e-08
1.10866e-09
3.92479e-08
1.10033e-09
3.91681e-08
1.09194e-09
3.90872e-08
1.08348e-09
3.90053e-08
1.07496e-09
3.89224e-08
1.06636e-09
3.88386e-08
1.0577e-09
3.87539e-08
1.04897e-09
3.86683e-08
1.04018e-09
3.85818e-08
1.03134e-09
3.84946e-08
1.02246e-09
3.84066e-08
1.01354e-09
3.83179e-08
1.00463e-09
3.82285e-08
9.95743e-10
3.81385e-08
9.8693e-10
3.80479e-08
9.78257e-10
3.79567e-08
9.69819e-10
3.7865e-08
9.61762e-10
3.77729e-08
9.54297e-10
3.76808e-08
9.47672e-10
3.75897e-08
9.41822e-10
3.75018e-08
9.34543e-10
9.11844e-10
4.0897e-08
2.04604e-09
-4.08215e-08
4.09931e-08
2.22689e-09
4.11027e-08
2.38032e-09
4.12193e-08
2.5015e-09
4.13376e-08
2.58994e-09
4.14537e-08
2.64723e-09
4.15644e-08
2.67582e-09
4.16672e-08
2.67882e-09
4.17606e-08
2.65997e-09
4.18434e-08
2.62342e-09
4.19155e-08
2.57335e-09
4.1977e-08
2.51374e-09
4.20287e-08
2.44817e-09
4.20714e-08
2.3797e-09
4.21062e-08
2.3108e-09
4.21343e-08
2.24333e-09
4.21567e-08
2.17859e-09
4.21745e-08
2.11739e-09
4.21884e-08
2.06018e-09
4.21993e-08
2.00709e-09
4.22077e-08
1.95805e-09
4.22141e-08
1.91286e-09
4.22188e-08
1.87125e-09
4.22222e-08
1.83291e-09
4.22244e-08
1.79752e-09
4.22256e-08
1.7648e-09
4.22258e-08
1.73447e-09
4.22252e-08
1.70627e-09
4.22238e-08
1.68e-09
4.22216e-08
1.65546e-09
4.22187e-08
1.63248e-09
4.2215e-08
1.61091e-09
4.22106e-08
1.59063e-09
4.22055e-08
1.57153e-09
4.21995e-08
1.55349e-09
4.21928e-08
1.53644e-09
4.21854e-08
1.52028e-09
4.21771e-08
1.50495e-09
4.2168e-08
1.49039e-09
4.2158e-08
1.47652e-09
4.21472e-08
1.46331e-09
4.21355e-08
1.45069e-09
4.21229e-08
1.43862e-09
4.21093e-08
1.42706e-09
4.20948e-08
1.41597e-09
4.20793e-08
1.40531e-09
4.20628e-08
1.39506e-09
4.20453e-08
1.38517e-09
4.20267e-08
1.37563e-09
4.2007e-08
1.36639e-09
4.19863e-08
1.35745e-09
4.19644e-08
1.34877e-09
4.19415e-08
1.34033e-09
4.19174e-08
1.33211e-09
4.18921e-08
1.3241e-09
4.18656e-08
1.31627e-09
4.1838e-08
1.30861e-09
4.18091e-08
1.30109e-09
4.1779e-08
1.29372e-09
4.17477e-08
1.28646e-09
4.17152e-08
1.2793e-09
4.16814e-08
1.27224e-09
4.16463e-08
1.26525e-09
4.161e-08
1.25833e-09
4.15725e-08
1.25147e-09
4.15336e-08
1.24465e-09
4.14935e-08
1.23785e-09
4.14522e-08
1.23108e-09
4.14096e-08
1.22432e-09
4.13657e-08
1.21756e-09
4.13205e-08
1.21079e-09
4.12741e-08
1.204e-09
4.12265e-08
1.19718e-09
4.11776e-08
1.19032e-09
4.11275e-08
1.18342e-09
4.10762e-08
1.17647e-09
4.10237e-08
1.16945e-09
4.09699e-08
1.16237e-09
4.09151e-08
1.15522e-09
4.0859e-08
1.14799e-09
4.08018e-08
1.14068e-09
4.07435e-08
1.13328e-09
4.06841e-08
1.12579e-09
4.06235e-08
1.11821e-09
4.0562e-08
1.11055e-09
4.04993e-08
1.10281e-09
4.04357e-08
1.09499e-09
4.03711e-08
1.0871e-09
4.03054e-08
1.07917e-09
4.02389e-08
1.07121e-09
4.01713e-08
1.06325e-09
4.01029e-08
1.05535e-09
4.00336e-08
1.04756e-09
3.99635e-08
1.03996e-09
3.98926e-08
1.03268e-09
3.9821e-08
1.02585e-09
3.97492e-08
1.01952e-09
3.96778e-08
1.0132e-09
3.96083e-08
1.00404e-09
9.79204e-10
4.16867e-08
1.9765e-09
-4.16172e-08
4.1774e-08
2.13956e-09
4.18739e-08
2.28045e-09
4.19809e-08
2.39454e-09
4.20903e-08
2.48046e-09
4.21987e-08
2.53891e-09
4.23028e-08
2.57165e-09
4.24005e-08
2.58113e-09
4.24901e-08
2.57043e-09
4.25705e-08
2.54303e-09
4.26413e-08
2.50253e-09
4.27026e-08
2.45243e-09
4.27549e-08
2.39591e-09
4.27988e-08
2.33576e-09
4.28353e-08
2.27427e-09
4.28654e-08
2.21323e-09
4.28901e-08
2.15396e-09
4.29101e-08
2.09734e-09
4.29264e-08
2.04389e-09
4.29396e-08
1.99387e-09
4.29504e-08
1.94732e-09
4.29591e-08
1.90415e-09
4.29661e-08
1.86418e-09
4.29719e-08
1.82718e-09
4.29765e-08
1.79292e-09
4.29801e-08
1.76114e-09
4.2983e-08
1.73162e-09
4.29851e-08
1.70414e-09
4.29866e-08
1.67851e-09
4.29875e-08
1.65455e-09
4.29879e-08
1.63212e-09
4.29877e-08
1.61107e-09
4.29871e-08
1.59128e-09
4.29859e-08
1.57266e-09
4.29843e-08
1.5551e-09
4.29823e-08
1.53852e-09
4.29797e-08
1.52284e-09
4.29767e-08
1.50799e-09
4.29731e-08
1.49391e-09
4.29691e-08
1.48054e-09
4.29646e-08
1.46783e-09
4.29595e-08
1.45573e-09
4.2954e-08
1.4442e-09
4.29478e-08
1.43319e-09
4.29411e-08
1.42267e-09
4.29339e-08
1.41259e-09
4.2926e-08
1.40294e-09
4.29175e-08
1.39367e-09
4.29083e-08
1.38477e-09
4.28985e-08
1.37619e-09
4.28881e-08
1.36793e-09
4.28769e-08
1.35995e-09
4.2865e-08
1.35223e-09
4.28523e-08
1.34475e-09
4.28389e-08
1.3375e-09
4.28248e-08
1.33045e-09
4.28098e-08
1.32358e-09
4.2794e-08
1.31688e-09
4.27774e-08
1.31034e-09
4.27599e-08
1.30393e-09
4.27416e-08
1.29764e-09
4.27223e-08
1.29147e-09
4.27022e-08
1.28538e-09
4.26812e-08
1.27938e-09
4.26592e-08
1.27344e-09
4.26363e-08
1.26756e-09
4.26124e-08
1.26173e-09
4.25875e-08
1.25592e-09
4.25617e-08
1.25014e-09
4.25349e-08
1.24437e-09
4.25071e-08
1.2386e-09
4.24783e-08
1.23281e-09
4.24485e-08
1.22701e-09
4.24176e-08
1.22117e-09
4.23857e-08
1.21529e-09
4.23528e-08
1.20937e-09
4.23189e-08
1.20339e-09
4.22839e-08
1.19734e-09
4.22479e-08
1.19123e-09
4.22109e-08
1.18503e-09
4.21728e-08
1.17875e-09
4.21337e-08
1.17239e-09
4.20935e-08
1.16593e-09
4.20524e-08
1.15938e-09
4.20102e-08
1.15274e-09
4.1967e-08
1.14602e-09
4.19227e-08
1.13921e-09
4.18775e-08
1.13233e-09
4.18313e-08
1.1254e-09
4.1784e-08
1.11844e-09
4.17358e-08
1.11147e-09
4.16866e-08
1.10454e-09
4.16365e-08
1.09771e-09
4.15854e-08
1.09104e-09
4.15334e-08
1.08464e-09
4.14807e-08
1.07855e-09
4.14276e-08
1.07269e-09
4.13745e-08
1.06631e-09
4.1322e-08
1.05649e-09
1.03269e-09
4.24862e-08
1.91199e-09
-4.24217e-08
4.25662e-08
2.0596e-09
4.26576e-08
2.18906e-09
4.2756e-08
2.29614e-09
4.28574e-08
2.37905e-09
4.29585e-08
2.43784e-09
4.30564e-08
2.47366e-09
4.31491e-08
2.48844e-09
4.32349e-08
2.48466e-09
4.33127e-08
2.46523e-09
4.3382e-08
2.43322e-09
4.34428e-08
2.39168e-09
4.34952e-08
2.34343e-09
4.354e-08
2.29098e-09
4.35778e-08
2.23646e-09
4.36095e-08
2.18157e-09
4.36358e-08
2.12761e-09
4.36577e-08
2.07548e-09
4.36758e-08
2.02579e-09
4.36908e-08
1.97888e-09
4.37032e-08
1.93488e-09
4.37136e-08
1.8938e-09
4.37222e-08
1.85553e-09