/*--------------------------------*- C++ -*----------------------------------*\
| =========                 |                                                 |
| \\      /  F ield         | OpenFOAM: The Open Source CFD Toolbox           |
|  \\    /   O peration     | Version:  2.3.0                                 |
|   \\  /    A nd           | Web:      www.OpenFOAM.org                      |
|    \\/     M anipulation  |                                                 |
\*---------------------------------------------------------------------------*/
FoamFile
{
    version     2.0;
    format      ascii;
    class       volVectorField;
    location    "0.8";
    object      U_0;
}
// * * * * * * * * * * * * * * * * * * * * * * * * * * * * * * * * * * * * * //

dimensions      [0 1 -1 0 0 0 0];

internalField   nonuniform List<vector> 
2945
(
(0.149683 0.00850373 0)
(0.10556 0.00731871 0)
(0.0743191 0.00404705 0)
(0.0556074 0.00135746 0)
(0.0453073 0.000142691 0)
(0.0397876 -0.000131175 0)
(0.0365944 -7.41181e-05 0)
(0.0343355 2.12062e-05 0)
(0.0324274 7.26571e-05 0)
(0.0307199 8.52482e-05 0)
(0.0291983 8.04856e-05 0)
(0.0278533 7.18293e-05 0)
(0.0266618 6.39655e-05 0)
(0.025598 5.75482e-05 0)
(0.0246396 5.22454e-05 0)
(0.0237694 4.77247e-05 0)
(0.0229741 4.37814e-05 0)
(0.0222434 4.02952e-05 0)
(0.021569 3.71908e-05 0)
(0.0209442 3.44141e-05 0)
(0.0203632 3.19219e-05 0)
(0.0198213 2.96776e-05 0)
(0.0193145 2.765e-05 0)
(0.0188392 2.58125e-05 0)
(0.0183924 2.41424e-05 0)
(0.0179716 2.26202e-05 0)
(0.0175742 2.12293e-05 0)
(0.0171985 1.99554e-05 0)
(0.0168424 1.87858e-05 0)
(0.0165046 1.77099e-05 0)
(0.0161835 1.67182e-05 0)
(0.0158778 1.58024e-05 0)
(0.0155865 1.49552e-05 0)
(0.0153085 1.41703e-05 0)
(0.0150428 1.34419e-05 0)
(0.0147887 1.27649e-05 0)
(0.0145452 1.21349e-05 0)
(0.0143118 1.15478e-05 0)
(0.0140878 1.09999e-05 0)
(0.0138726 1.04879e-05 0)
(0.0136657 1.0009e-05 0)
(0.0134665 9.5605e-06 0)
(0.0132746 9.13989e-06 0)
(0.0130896 8.7451e-06 0)
(0.012911 8.37407e-06 0)
(0.0127386 8.02504e-06 0)
(0.012572 7.69638e-06 0)
(0.0124109 7.38662e-06 0)
(0.012255 7.0944e-06 0)
(0.012104 6.81849e-06 0)
(0.0119577 6.5578e-06 0)
(0.0118158 6.31135e-06 0)
(0.0116781 6.07822e-06 0)
(0.0115445 5.8576e-06 0)
(0.0114146 5.64877e-06 0)
(0.0112885 5.45112e-06 0)
(0.0111658 5.26407e-06 0)
(0.0110464 5.08713e-06 0)
(0.0109301 4.91992e-06 0)
(0.0108169 4.76212e-06 0)
(0.0107065 4.6135e-06 0)
(0.0105987 4.47386e-06 0)
(0.0104936 4.34319e-06 0)
(0.0103908 4.22143e-06 0)
(0.0102903 4.10913e-06 0)
(0.0101918 4.00516e-06 0)
(0.0100952 3.91468e-06 0)
(0.0100006 3.82208e-06 0)
(0.00990683 3.78213e-06 0)
(0.00981641 3.61502e-06 0)
(0.00972099 3.89472e-06 0)
(0.00964422 2.78889e-06 0)
(0.00952242 5.53554e-06 0)
(0.00951596 -3.95956e-06 0)
(0.00936605 1.15366e-05 0)
(0.19529 0.0141377 0)
(0.188842 0.015065 0)
(0.173394 0.0120875 0)
(0.155306 0.00804469 0)
(0.138619 0.00479626 0)
(0.124918 0.00279114 0)
(0.114238 0.00175923 0)
(0.105925 0.00128134 0)
(0.0992624 0.00104616 0)
(0.0937271 0.000897725 0)
(0.0889966 0.000781443 0)
(0.0848744 0.000684363 0)
(0.0812327 0.000603606 0)
(0.0779809 0.000536783 0)
(0.0750521 0.000481155 0)
(0.0723945 0.00043427 0)
(0.0699678 0.000394225 0)
(0.0677397 0.000359621 0)
(0.0656843 0.000329433 0)
(0.0637804 0.000302899 0)
(0.0620103 0.000279429 0)
(0.0603591 0.000258554 0)
(0.0588145 0.000239896 0)
(0.0573655 0.000223142 0)
(0.056003 0.000208037 0)
(0.0547189 0.000194367 0)
(0.0535063 0.000181951 0)
(0.0523589 0.000170639 0)
(0.0512714 0.000160303 0)
(0.050239 0.000150834 0)
(0.0492573 0.000142136 0)
(0.0483225 0.000134129 0)
(0.0474312 0.000126743 0)
(0.0465803 0.000119915 0)
(0.0457669 0.000113592 0)
(0.0449886 0.000107726 0)
(0.0442429 0.000102274 0)
(0.0435277 9.72008e-05 0)
(0.0428412 9.24715e-05 0)
(0.0421815 8.80568e-05 0)
(0.0415471 8.39301e-05 0)
(0.0409364 8.00674e-05 0)
(0.040348 7.64473e-05 0)
(0.0397807 7.30504e-05 0)
(0.0392333 6.9859e-05 0)
(0.0387047 6.68571e-05 0)
(0.038194 6.40305e-05 0)
(0.0377001 6.1366e-05 0)
(0.0372223 5.88516e-05 0)
(0.0367596 5.64767e-05 0)
(0.0363114 5.42313e-05 0)
(0.035877 5.21067e-05 0)
(0.0354557 5.00947e-05 0)
(0.0350468 4.81881e-05 0)
(0.0346499 4.63802e-05 0)
(0.0342644 4.46653e-05 0)
(0.0338897 4.3038e-05 0)
(0.0335254 4.14938e-05 0)
(0.033171 4.00286e-05 0)
(0.0328261 3.86392e-05 0)
(0.0324902 3.73226e-05 0)
(0.032163 3.60766e-05 0)
(0.0318439 3.49e-05 0)
(0.0315327 3.37916e-05 0)
(0.0312288 3.27522e-05 0)
(0.0309319 3.17806e-05 0)
(0.0306413 3.08856e-05 0)
(0.0303571 3.00445e-05 0)
(0.0300772 2.9351e-05 0)
(0.029806 2.84798e-05 0)
(0.0295277 2.85454e-05 0)
(0.0292866 2.5541e-05 0)
(0.0289622 3.17022e-05 0)
(0.0288597 3.20258e-06 0)
(0.0284459 4.8505e-05 0)
(0.19384 0.0123081 0)
(0.199692 0.0146052 0)
(0.20171 0.0138527 0)
(0.198165 0.0114196 0)
(0.190806 0.00879977 0)
(0.181925 0.00669943 0)
(0.172989 0.00520946 0)
(0.164612 0.00418265 0)
(0.156952 0.0034543 0)
(0.149999 0.0029129 0)
(0.143694 0.00249552 0)
(0.137968 0.0021665 0)
(0.132755 0.0019029 0)
(0.127991 0.0016883 0)
(0.123623 0.00151077 0)
(0.119603 0.00136169 0)
(0.115887 0.00123484 0)
(0.112443 0.00112566 0)
(0.109238 0.00103078 0)
(0.106247 0.000947638 0)
(0.103449 0.000874253 0)
(0.100823 0.00080908 0)
(0.0983546 0.00075088 0)
(0.096028 0.000698651 0)
(0.093831 0.000651574 0)
(0.0917525 0.00060897 0)
(0.0897829 0.000570275 0)
(0.0879133 0.000535014 0)
(0.0861361 0.000502786 0)
(0.0844443 0.000473248 0)
(0.0828317 0.000446107 0)
(0.0812926 0.000421109 0)
(0.0798219 0.000398036 0)
(0.0784151 0.000376696 0)
(0.0770679 0.000356921 0)
(0.0757765 0.000338564 0)
(0.0745373 0.000321495 0)
(0.0733472 0.000305598 0)
(0.0722032 0.000290769 0)
(0.0711026 0.000276919 0)
(0.0700428 0.000263963 0)
(0.0690215 0.000251828 0)
(0.0680367 0.000240448 0)
(0.0670863 0.000229762 0)
(0.0661685 0.000219716 0)
(0.0652815 0.00021026 0)
(0.0644239 0.00020135 0)
(0.0635941 0.000192945 0)
(0.0627907 0.000185009 0)
(0.0620125 0.000177507 0)
(0.0612583 0.000170409 0)
(0.060527 0.000163686 0)
(0.0598175 0.000157315 0)
(0.0591289 0.000151271 0)
(0.0584602 0.000145534 0)
(0.0578106 0.000140085 0)
(0.0571792 0.000134907 0)
(0.0565654 0.000129986 0)
(0.0559683 0.000125308 0)
(0.0553873 0.000120862 0)
(0.0548217 0.000116638 0)
(0.0542708 0.000112629 0)
(0.053734 0.000108829 0)
(0.0532107 0.000105234 0)
(0.0527001 0.000101842 0)
(0.0522018 9.86553e-05 0)
(0.0517149 9.56767e-05 0)
(0.0512391 9.29078e-05 0)
(0.0507721 9.03896e-05 0)
(0.0503182 8.79342e-05 0)
(0.0498606 8.63857e-05 0)
(0.0494463 8.16391e-05 0)
(0.0489437 8.78308e-05 0)
(0.0486964 4.27713e-05 0)
(0.0480311 0.000111174 0)
(0.192812 0.0105162 0)
(0.197029 0.012573 0)
(0.201849 0.0125929 0)
(0.204622 0.0113005 0)
(0.204661 0.0096698 0)
(0.202602 0.0082184 0)
(0.199261 0.00706249 0)
(0.195191 0.00615437 0)
(0.190715 0.00542057 0)
(0.186037 0.0048077 0)
(0.181297 0.00428561 0)
(0.176589 0.00383768 0)
(0.17198 0.00345253 0)
(0.167509 0.0031205 0)
(0.163201 0.00283312 0)
(0.159068 0.00258314 0)
(0.155115 0.00236452 0)
(0.15134 0.00217228 0)
(0.147739 0.00200232 0)
(0.144305 0.00185128 0)
(0.141032 0.00171642 0)
(0.13791 0.00159545 0)
(0.134932 0.0014865 0)
(0.13209 0.001388 0)
(0.129375 0.00129861 0)
(0.12678 0.00121724 0)
(0.124299 0.00114293 0)
(0.121924 0.00107488 0)
(0.119649 0.00101241 0)
(0.117468 0.000954907 0)
(0.115377 0.00090187 0)
(0.113369 0.000852847 0)
(0.11144 0.000807446 0)
(0.109585 0.000765323 0)
(0.107801 0.000726176 0)
(0.106084 0.000689735 0)
(0.10443 0.000655761 0)
(0.102836 0.000624042 0)
(0.101298 0.000594388 0)
(0.0998133 0.000566626 0)
(0.0983799 0.000540605 0)
(0.0969948 0.000516183 0)
(0.0956557 0.000493237 0)
(0.0943603 0.000471652 0)
(0.0931065 0.000451324 0)
(0.0918924 0.00043216 0)
(0.0907161 0.000414073 0)
(0.0895758 0.000396986 0)
(0.08847 0.000380828 0)
(0.0873972 0.000365532 0)
(0.0863559 0.000351039 0)
(0.0853447 0.000337295 0)
(0.0843625 0.00032425 0)
(0.083408 0.000311858 0)
(0.0824801 0.00030008 0)
(0.0815778 0.000288876 0)
(0.0807 0.000278215 0)
(0.0798458 0.000268064 0)
(0.0790143 0.000258399 0)
(0.0782047 0.000249195 0)
(0.077416 0.000240432 0)
(0.0766476 0.000232094 0)
(0.0758986 0.000224169 0)
(0.0751682 0.000216647 0)
(0.0744556 0.000209523 0)
(0.0737602 0.000202798 0)
(0.0730809 0.000196471 0)
(0.0724173 0.000190569 0)
(0.0717671 0.000185069 0)
(0.0711338 0.000179976 0)
(0.0705023 0.000175656 0)
(0.0699148 0.000168718 0)
(0.0692473 0.000172372 0)
(0.068841 0.000117578 0)
(0.0679294 0.00019524 0)
(0.193538 0.00975741 0)
(0.196192 0.0114818 0)
(0.199565 0.0115215 0)
(0.202347 0.0105177 0)
(0.203993 0.0092861 0)
(0.204623 0.00822628 0)
(0.204495 0.00740005 0)
(0.203769 0.00675005 0)
(0.20253 0.00621077 0)
(0.200847 0.00573845 0)
(0.198792 0.00531128 0)
(0.196439 0.00492067 0)
(0.193855 0.00456315 0)
(0.191101 0.00423628 0)
(0.188229 0.00393765 0)
(0.185281 0.00366482 0)
(0.182292 0.00341552 0)
(0.179292 0.00318758 0)
(0.1763 0.00297899 0)
(0.173336 0.00278793 0)
(0.170413 0.00261271 0)
(0.167539 0.00245181 0)
(0.164724 0.00230387 0)
(0.161972 0.00216763 0)
(0.159286 0.00204197 0)
(0.156669 0.0019259 0)
(0.154122 0.00181852 0)
(0.151646 0.00171903 0)
(0.14924 0.00162671 0)
(0.146903 0.00154092 0)
(0.144634 0.00146109 0)
(0.142432 0.00138671 0)
(0.140295 0.00131731 0)
(0.138222 0.00125249 0)
(0.13621 0.00119186 0)
(0.134257 0.00113509 0)
(0.132363 0.00108187 0)
(0.130524 0.00103194 0)
(0.128738 0.000985032 0)
(0.127005 0.000940924 0)
(0.125322 0.000899407 0)
(0.123687 0.000860292 0)
(0.122098 0.000823403 0)
(0.120554 0.000788581 0)
(0.119054 0.000755681 0)
(0.117595 0.000724567 0)
(0.116176 0.000695117 0)
(0.114795 0.000667217 0)
(0.113452 0.000640762 0)
(0.112145 0.000615656 0)
(0.110872 0.000591811 0)
(0.109632 0.000569145 0)
(0.108425 0.000547583 0)
(0.107249 0.000527057 0)
(0.106103 0.000507504 0)
(0.104986 0.000488866 0)
(0.103897 0.000471092 0)
(0.102836 0.000454135 0)
(0.1018 0.000437952 0)
(0.10079 0.000422507 0)
(0.0998046 0.000407769 0)
(0.098843 0.00039371 0)
(0.0979044 0.000380309 0)
(0.0969879 0.00036755 0)
(0.0960929 0.000355425 0)
(0.0952185 0.000343933 0)
(0.0943638 0.000333069 0)
(0.0935282 0.00032288 0)
(0.0927098 0.0003133 0)
(0.091911 0.000304477 0)
(0.0911191 0.000296386 0)
(0.0903702 0.000286486 0)
(0.0895511 0.000285747 0)
(0.0889929 0.000227817 0)
(0.0878497 0.000302473 0)
(0.194322 0.00916106 0)
(0.196442 0.0106797 0)
(0.198954 0.0107832 0)
(0.200972 0.00995552 0)
(0.202253 0.00889622 0)
(0.203006 0.00797719 0)
(0.203472 0.0072697 0)
(0.203746 0.00672976 0)
(0.203826 0.00629968 0)
(0.203689 0.00593621 0)
(0.20332 0.00561339 0)
(0.202715 0.00531789 0)
(0.201881 0.00504312 0)
(0.200832 0.00478538 0)
(0.199587 0.00454229 0)
(0.198167 0.00431232 0)
(0.196595 0.00409446 0)
(0.194893 0.00388803 0)
(0.193081 0.00369249 0)
(0.19118 0.00350737 0)
(0.189207 0.00333226 0)
(0.187179 0.00316674 0)
(0.185109 0.00301038 0)
(0.183011 0.00286275 0)
(0.180896 0.00272343 0)
(0.178772 0.00259199 0)
(0.176648 0.00246798 0)
(0.174532 0.002351 0)
(0.172428 0.00224065 0)
(0.170343 0.00213653 0)
(0.168279 0.00203827 0)
(0.166241 0.00194552 0)
(0.16423 0.00185794 0)
(0.16225 0.00177521 0)
(0.160302 0.00169704 0)
(0.158387 0.00162314 0)
(0.156506 0.00155324 0)
(0.15466 0.0014871 0)
(0.152849 0.00142449 0)
(0.151074 0.00136518 0)
(0.149334 0.00130898 0)
(0.14763 0.00125568 0)
(0.145961 0.00120511 0)
(0.144326 0.00115711 0)
(0.142727 0.00111151 0)
(0.141161 0.00106817 0)
(0.139628 0.00102695 0)
(0.138128 0.000987718 0)
(0.136661 0.000950362 0)
(0.135225 0.000914767 0)
(0.13382 0.000880828 0)
(0.132445 0.000848448 0)
(0.1311 0.000817536 0)
(0.129784 0.00078801 0)
(0.128497 0.000759791 0)
(0.127237 0.000732809 0)
(0.126005 0.000706997 0)
(0.124799 0.000682298 0)
(0.123619 0.000658657 0)
(0.122464 0.000636028 0)
(0.121335 0.000614369 0)
(0.120229 0.000593646 0)
(0.119147 0.00057383 0)
(0.118088 0.000554903 0)
(0.117051 0.000536851 0)
(0.116036 0.000519675 0)
(0.115041 0.00050337 0)
(0.114068 0.000487992 0)
(0.113112 0.000473462 0)
(0.112178 0.000460018 0)
(0.111253 0.000447349 0)
(0.11037 0.000433842 0)
(0.109424 0.000427339 0)
(0.108735 0.000371877 0)
(0.107394 0.000433485 0)
(0.194959 0.00858964 0)
(0.196754 0.00992349 0)
(0.198879 0.0101235 0)
(0.200575 0.00950325 0)
(0.201602 0.00861697 0)
(0.202153 0.0078005 0)
(0.202487 0.00714429 0)
(0.202742 0.00663165 0)
(0.202955 0.00622518 0)
(0.203122 0.00589202 0)
(0.203228 0.00560845 0)
(0.203257 0.00535924 0)
(0.203192 0.00513491 0)
(0.20302 0.00492909 0)
(0.202733 0.00473723 0)
(0.202325 0.00455613 0)
(0.201797 0.00438361 0)
(0.201149 0.00421822 0)
(0.200385 0.00405902 0)
(0.199511 0.00390539 0)
(0.198535 0.00375697 0)
(0.197464 0.00361354 0)
(0.196307 0.00347496 0)
(0.195072 0.00334116 0)
(0.193768 0.00321206 0)
(0.192403 0.00308761 0)
(0.190986 0.00296777 0)
(0.189524 0.00285245 0)
(0.188024 0.0027416 0)
(0.186492 0.00263513 0)
(0.184936 0.00253293 0)
(0.18336 0.00243491 0)
(0.181769 0.00234093 0)
(0.180169 0.0022509 0)
(0.178562 0.00216466 0)
(0.176954 0.0020821 0)
(0.175347 0.00200308 0)
(0.173744 0.00192745 0)
(0.172147 0.0018551 0)
(0.17056 0.00178587 0)
(0.168984 0.00171964 0)
(0.16742 0.00165627 0)
(0.16587 0.00159564 0)
(0.164336 0.00153762 0)
(0.162819 0.00148209 0)
(0.161319 0.00142893 0)
(0.159837 0.00137802 0)
(0.158375 0.00132926 0)
(0.156932 0.00128255 0)
(0.155508 0.00123777 0)
(0.154105 0.00119484 0)
(0.152723 0.00115366 0)
(0.151361 0.00111415 0)
(0.15002 0.00107623 0)
(0.1487 0.00103982 0)
(0.147401 0.00100485 0)
(0.146123 0.000971248 0)
(0.144866 0.000938964 0)
(0.14363 0.000907939 0)
(0.142415 0.000878124 0)
(0.14122 0.000849477 0)
(0.140045 0.000821963 0)
(0.138891 0.000795553 0)
(0.137757 0.00077023 0)
(0.136642 0.000745982 0)
(0.135547 0.000722814 0)
(0.13447 0.000700727 0)
(0.133412 0.000679789 0)
(0.132372 0.00065992 0)
(0.131351 0.000641429 0)
(0.130339 0.000623768 0)
(0.129365 0.000606413 0)
(0.128332 0.000593344 0)
(0.127551 0.000545007 0)
(0.126069 0.000585874 0)
(0.195507 0.00809149 0)
(0.197022 0.00925977 0)
(0.198849 0.00952708 0)
(0.200371 0.0090851 0)
(0.201336 0.00836379 0)
(0.201855 0.00765592 0)
(0.202135 0.00705814 0)
(0.202314 0.00657143 0)
(0.202448 0.00617454 0)
(0.202559 0.00584584 0)
(0.202656 0.00556755 0)
(0.202742 0.00532691 0)
(0.20281 0.00511521 0)
(0.202855 0.00492613 0)
(0.202866 0.00475472 0)
(0.202835 0.00459709 0)
(0.202756 0.00445023 0)
(0.20262 0.00431185 0)
(0.202423 0.00418021 0)
(0.20216 0.00405401 0)
(0.201828 0.0039323 0)
(0.201426 0.00381438 0)
(0.200953 0.00369977 0)
(0.20041 0.00358814 0)
(0.199799 0.00347926 0)
(0.199122 0.003373 0)
(0.198381 0.00326928 0)
(0.197581 0.00316805 0)
(0.196724 0.00306929 0)
(0.195814 0.00297301 0)
(0.194856 0.00287922 0)
(0.193853 0.00278792 0)
(0.19281 0.00269913 0)
(0.19173 0.00261284 0)
(0.190617 0.00252906 0)
(0.189474 0.00244777 0)
(0.188306 0.00236896 0)
(0.187115 0.0022926 0)
(0.185905 0.00221867 0)
(0.184679 0.00214712 0)
(0.183439 0.00207792 0)
(0.182188 0.00201101 0)
(0.180929 0.00194634 0)
(0.179663 0.00188385 0)
(0.178394 0.00182349 0)
(0.177122 0.0017652 0)
(0.175849 0.0017089 0)
(0.174577 0.00165454 0)
(0.173308 0.00160205 0)
(0.172043 0.00155136 0)
(0.170783 0.00150242 0)
(0.169529 0.00145516 0)
(0.168282 0.00140951 0)
(0.167043 0.00136543 0)
(0.165814 0.00132284 0)
(0.164594 0.0012817 0)
(0.163384 0.00124195 0)
(0.162185 0.00120355 0)
(0.160998 0.00116646 0)
(0.159822 0.00113064 0)
(0.15866 0.00109605 0)
(0.157509 0.00106267 0)
(0.156372 0.00103048 0)
(0.155248 0.000999467 0)
(0.154138 0.000969639 0)
(0.153041 0.000941008 0)
(0.151957 0.000913587 0)
(0.150887 0.00088746 0)
(0.14983 0.000862559 0)
(0.148788 0.000839258 0)
(0.147753 0.000816803 0)
(0.146748 0.000795919 0)
(0.145687 0.000776246 0)
(0.144864 0.000738585 0)
(0.143321 0.00075405 0)
(0.195989 0.00766228 0)
(0.197272 0.00868323 0)
(0.198833 0.0089874 0)
(0.200193 0.00868497 0)
(0.201116 0.00810648 0)
(0.201654 0.00750287 0)
(0.201961 0.00697021 0)
(0.202148 0.00652006 0)
(0.202268 0.00614166 0)
(0.202349 0.00582156 0)
(0.202406 0.00554709 0)
(0.202451 0.00530823 0)
(0.202489 0.00509781 0)
(0.202523 0.00491059 0)
(0.202551 0.00474236 0)
(0.202573 0.00458967 0)
(0.202585 0.00444971 0)
(0.202584 0.00432019 0)
(0.202564 0.00419926 0)
(0.202523 0.00408539 0)
(0.202455 0.00397736 0)
(0.202356 0.00387416 0)
(0.202224 0.003775 0)
(0.202054 0.00367924 0)
(0.201844 0.00358637 0)
(0.201593 0.003496 0)
(0.201298 0.00340783 0)
(0.200959 0.00332163 0)
(0.200576 0.00323724 0)
(0.200147 0.00315454 0)
(0.199675 0.00307345 0)
(0.199159 0.00299391 0)
(0.1986 0.0029159 0)
(0.198001 0.00283941 0)
(0.197362 0.00276442 0)
(0.196685 0.00269095 0)
(0.195973 0.002619 0)
(0.195226 0.00254857 0)
(0.194447 0.00247968 0)
(0.193639 0.00241234 0)
(0.192802 0.00234654 0)
(0.19194 0.00228228 0)
(0.191054 0.00221957 0)
(0.190146 0.00215839 0)
(0.189219 0.00209874 0)
(0.188273 0.0020406 0)
(0.187312 0.00198395 0)
(0.186335 0.00192877 0)
(0.185347 0.00187504 0)
(0.184347 0.00182273 0)
(0.183338 0.00177181 0)
(0.182321 0.00172226 0)
(0.181297 0.00167405 0)
(0.180267 0.00162715 0)
(0.179234 0.00158153 0)
(0.178198 0.00153715 0)
(0.17716 0.001494 0)
(0.176121 0.00145205 0)
(0.175083 0.00141127 0)
(0.174046 0.00137166 0)
(0.173011 0.00133318 0)
(0.171978 0.00129585 0)
(0.170949 0.00125965 0)
(0.169924 0.00122459 0)
(0.168905 0.00119069 0)
(0.16789 0.00115799 0)
(0.166881 0.00112651 0)
(0.165878 0.00109637 0)
(0.164881 0.0010675 0)
(0.163891 0.00104037 0)
(0.162903 0.00101402 0)
(0.161938 0.000990526 0)
(0.160915 0.000965088 0)
(0.160111 0.000940256 0)
(0.158604 0.000929311 0)
(0.196412 0.00728572 0)
(0.197506 0.00817574 0)
(0.198842 0.00849628 0)
(0.200047 0.00830385 0)
(0.200916 0.00784755 0)
(0.201462 0.00733844 0)
(0.201797 0.006869 0)
(0.202012 0.00645846 0)
(0.202153 0.00610388 0)
(0.202244 0.00579797 0)
(0.202302 0.00553216 0)
(0.202339 0.00529856 0)
(0.202361 0.00509117 0)
(0.202375 0.00490552 0)
(0.202383 0.00473807 0)
(0.202388 0.00458589 0)
(0.20239 0.00444658 0)
(0.20239 0.00431817 0)
(0.202388 0.00419904 0)
(0.202382 0.00408786 0)
(0.20237 0.00398347 0)
(0.202351 0.00388491 0)
(0.202323 0.00379137 0)
(0.202283 0.00370215 0)
(0.202228 0.00361667 0)
(0.202157 0.00353441 0)
(0.202067 0.00345497 0)
(0.201956 0.00337797 0)
(0.201822 0.00330313 0)
(0.201663 0.0032302 0)
(0.201478 0.00315898 0)
(0.201266 0.00308931 0)
(0.201025 0.00302105 0)
(0.200754 0.0029541 0)
(0.200454 0.00288838 0)
(0.200124 0.00282382 0)
(0.199763 0.00276039 0)
(0.199373 0.00269804 0)
(0.198953 0.00263676 0)
(0.198503 0.00257651 0)
(0.198025 0.0025173 0)
(0.197518 0.00245911 0)
(0.196985 0.00240193 0)
(0.196425 0.00234577 0)
(0.195839 0.00229061 0)
(0.19523 0.00223646 0)
(0.194597 0.0021833 0)
(0.193943 0.00213115 0)
(0.193267 0.00207998 0)
(0.192572 0.0020298 0)
(0.191858 0.0019806 0)
(0.191127 0.00193236 0)
(0.19038 0.00188509 0)
(0.189618 0.00183878 0)
(0.188842 0.0017934 0)
(0.188053 0.00174897 0)
(0.187253 0.00170547 0)
(0.186442 0.0016629 0)
(0.185622 0.00162125 0)
(0.184793 0.00158053 0)
(0.183956 0.00154075 0)
(0.183113 0.0015019 0)
(0.182265 0.00146402 0)
(0.181411 0.00142713 0)
(0.180553 0.00139126 0)
(0.179692 0.00135648 0)
(0.178828 0.00132282 0)
(0.177962 0.00129043 0)
(0.177094 0.00125927 0)
(0.176226 0.00122987 0)
(0.175353 0.00120112 0)
(0.174493 0.0011764 0)
(0.173575 0.00114685 0)
(0.172847 0.00113532 0)
(0.171474 0.00110076 0)
(0.196784 0.00695156 0)
(0.197725 0.00772785 0)
(0.19887 0.00805174 0)
(0.199936 0.00794554 0)
(0.200744 0.00759289 0)
(0.201284 0.00716791 0)
(0.201636 0.00675745 0)
(0.201872 0.00638614 0)
(0.202034 0.006057 0)
(0.202143 0.00576763 0)
(0.202215 0.00551295 0)
(0.202261 0.0052871 0)
(0.202288 0.00508509 0)
(0.202303 0.00490311 0)
(0.202308 0.00473807 0)
(0.202306 0.00458738 0)
(0.202299 0.00444892 0)
(0.202289 0.00432096 0)
(0.202277 0.00420208 0)
(0.202264 0.00409109 0)
(0.20225 0.00398701 0)
(0.202235 0.00388901 0)
(0.202218 0.00379637 0)
(0.2022 0.00370848 0)
(0.202179 0.00362482 0)
(0.202154 0.0035449 0)
(0.202124 0.00346834 0)
(0.202088 0.00339476 0)
(0.202045 0.00332386 0)
(0.201993 0.00325536 0)
(0.20193 0.00318901 0)
(0.201856 0.0031246 0)
(0.201769 0.00306195 0)
(0.201667 0.00300088 0)
(0.20155 0.00294127 0)
(0.201416 0.00288299 0)
(0.201264 0.00282593 0)
(0.201094 0.00277 0)
(0.200904 0.00271512 0)
(0.200694 0.00266123 0)
(0.200463 0.00260828 0)
(0.200212 0.0025562 0)
(0.199939 0.00250497 0)
(0.199644 0.00245455 0)
(0.199328 0.00240491 0)
(0.198991 0.00235602 0)
(0.198632 0.00230787 0)
(0.198252 0.00226043 0)
(0.197851 0.00221369 0)
(0.19743 0.00216764 0)
(0.196988 0.00212226 0)
(0.196527 0.00207755 0)
(0.196047 0.00203351 0)
(0.195549 0.00199011 0)
(0.195033 0.00194737 0)
(0.194499 0.00190527 0)
(0.19395 0.00186382 0)
(0.193384 0.00182303 0)
(0.192803 0.00178289 0)
(0.192209 0.00174343 0)
(0.1916 0.00170466 0)
(0.190979 0.0016666 0)
(0.190345 0.00162927 0)
(0.189701 0.00159274 0)
(0.189045 0.00155703 0)
(0.188379 0.00152223 0)
(0.187704 0.0014884 0)
(0.187021 0.0014557 0)
(0.186328 0.00142411 0)
(0.185629 0.00139424 0)
(0.184918 0.00136486 0)
(0.184212 0.00134045 0)
(0.18345 0.00130896 0)
(0.182844 0.00130942 0)
(0.181684 0.00125724 0)
(0.197112 0.0066528 0)
(0.197926 0.00733183 0)
(0.198912 0.00765034 0)
(0.199854 0.00761033 0)
(0.2006 0.00734452 0)
(0.201126 0.00699406 0)
(0.201486 0.00663838 0)
(0.201736 0.00630538 0)
(0.201913 0.0060024 0)
(0.202036 0.00573075 0)
(0.202121 0.00548835 0)
(0.202178 0.00527131 0)
(0.202215 0.00507576 0)
(0.202237 0.00489853 0)
(0.202248 0.00473699 0)
(0.202249 0.00458887 0)
(0.202244 0.00445226 0)
(0.202234 0.00432559 0)
(0.20222 0.00420756 0)
(0.202203 0.00409709 0)
(0.202184 0.00399328 0)
(0.202164 0.00389539 0)
(0.202143 0.00380277 0)
(0.202122 0.00371489 0)
(0.202101 0.00363128 0)
(0.202079 0.00355154 0)
(0.202056 0.00347531 0)
(0.202033 0.00340229 0)
(0.202009 0.0033322 0)
(0.201984 0.00326479 0)
(0.201956 0.00319983 0)
(0.201925 0.00313714 0)
(0.20189 0.00307651 0)
(0.201851 0.00301779 0)
(0.201807 0.00296083 0)
(0.201756 0.00290548 0)
(0.201698 0.00285163 0)
(0.201632 0.00279915 0)
(0.201556 0.00274795 0)
(0.201471 0.00269793 0)
(0.201375 0.002649 0)
(0.201268 0.00260108 0)
(0.201148 0.0025541 0)
(0.201015 0.002508 0)
(0.200869 0.00246271 0)
(0.200708 0.0024182 0)
(0.200533 0.0023744 0)
(0.200343 0.00233128 0)
(0.200137 0.0022888 0)
(0.199916 0.00224692 0)
(0.199679 0.00220561 0)
(0.199425 0.00216486 0)
(0.199156 0.00212463 0)
(0.19887 0.00208491 0)
(0.198568 0.00204568 0)
(0.19825 0.00200694 0)
(0.197917 0.00196867 0)
(0.197567 0.00193088 0)
(0.197202 0.00189357 0)
(0.196822 0.00185675 0)
(0.196426 0.00182043 0)
(0.196016 0.00178464 0)
(0.195592 0.00174941 0)
(0.195153 0.00171479 0)
(0.194701 0.00168082 0)
(0.194236 0.0016476 0)
(0.193758 0.0016152 0)
(0.193267 0.00158378 0)
(0.192764 0.00155335 0)
(0.19225 0.00152456 0)
(0.191721 0.00149614 0)
(0.19119 0.00147333 0)
(0.190608 0.00144213 0)
(0.190147 0.00145171 0)
(0.189243 0.00138975 0)
(0.197403 0.00638384 0)
(0.198112 0.00698019 0)
(0.198964 0.00728766 0)
(0.199795 0.00729743 0)
(0.200481 0.00710369 0)
(0.200987 0.00681886 0)
(0.201348 0.00651379 0)
(0.201607 0.00621781 0)
(0.201795 0.00594126 0)
(0.20193 0.00568818 0)
(0.202026 0.00545895 0)
(0.202092 0.00525148 0)
(0.202137 0.00506303 0)
(0.202167 0.00489112 0)
(0.202183 0.00473361 0)
(0.20219 0.00458857 0)
(0.20219 0.00445432 0)
(0.202183 0.00432946 0)
(0.202172 0.00421279 0)
(0.202157 0.00410333 0)
(0.202139 0.00400024 0)
(0.202119 0.00390282 0)
(0.202097 0.00381048 0)
(0.202074 0.00372272 0)
(0.202051 0.00363911 0)
(0.202027 0.00355929 0)
(0.202003 0.00348294 0)
(0.201979 0.00340979 0)
(0.201955 0.00333958 0)
(0.201931 0.00327211 0)
(0.201908 0.00320717 0)
(0.201884 0.00314461 0)
(0.201861 0.00308425 0)
(0.201837 0.00302596 0)
(0.201812 0.00296959 0)
(0.201786 0.00291503 0)
(0.201758 0.00286215 0)
(0.201728 0.00281085 0)
(0.201695 0.00276102 0)
(0.20166 0.00271258 0)
(0.20162 0.00266542 0)
(0.201576 0.00261946 0)
(0.201527 0.00257462 0)
(0.201472 0.00253082 0)
(0.201411 0.002488 0)
(0.201343 0.00244608 0)
(0.201267 0.00240501 0)
(0.201183 0.00236471 0)
(0.201091 0.00232514 0)
(0.200989 0.00228625 0)
(0.200878 0.002248 0)
(0.200756 0.00221032 0)
(0.200624 0.0021732 0)
(0.200481 0.0021366 0)
(0.200326 0.00210048 0)
(0.200159 0.00206482 0)
(0.199981 0.0020296 0)
(0.199791 0.00199482 0)
(0.199588 0.00196046 0)
(0.199372 0.00192652 0)
(0.199144 0.001893 0)
(0.198903 0.00185994 0)
(0.198649 0.00182735 0)
(0.198382 0.00179527 0)
(0.198103 0.00176376 0)
(0.19781 0.0017329 0)
(0.197505 0.00170276 0)
(0.197187 0.00167351 0)
(0.196856 0.00164517 0)
(0.196513 0.00161842 0)
(0.196154 0.001592 0)
(0.195791 0.0015715 0)
(0.195383 0.00154239 0)
(0.195064 0.00155729 0)
(0.194419 0.00149345 0)
(0.197663 0.00614024 0)
(0.198283 0.00666648 0)
(0.199023 0.00695971 0)
(0.199757 0.00700621 0)
(0.200383 0.0068717 0)
(0.200866 0.0066442 0)
(0.201223 0.00638544 0)
(0.201486 0.00612475 0)
(0.201682 0.00587444 0)
(0.201826 0.00564047 0)
(0.201931 0.00542512 0)
(0.202005 0.00522791 0)
(0.202058 0.00504717 0)
(0.202094 0.00488109 0)
(0.202116 0.00472802 0)
(0.202128 0.0045864 0)
(0.202132 0.00445482 0)
(0.202129 0.00433203 0)
(0.202121 0.00421698 0)
(0.202109 0.00410877 0)
(0.202094 0.00400664 0)
(0.202076 0.00390994 0)
(0.202055 0.00381813 0)
(0.202034 0.00373072 0)
(0.202011 0.00364733 0)
(0.201987 0.00356761 0)
(0.201963 0.00349125 0)
(0.201939 0.00341801 0)
(0.201914 0.00334766 0)
(0.20189 0.00328 0)
(0.201866 0.00321485 0)
(0.201842 0.00315206 0)
(0.201819 0.00309149 0)
(0.201796 0.00303301 0)
(0.201774 0.0029765 0)
(0.201752 0.00292186 0)
(0.201731 0.00286897 0)
(0.201709 0.00281775 0)
(0.201688 0.00276811 0)
(0.201666 0.00271995 0)
(0.201644 0.0026732 0)
(0.20162 0.00262777 0)
(0.201596 0.0025836 0)
(0.20157 0.0025406 0)
(0.201543 0.00249871 0)
(0.201513 0.00245786 0)
(0.20148 0.00241799 0)
(0.201444 0.00237902 0)
(0.201404 0.00234091 0)
(0.201361 0.0023036 0)
(0.201313 0.00226703 0)
(0.20126 0.00223115 0)
(0.201201 0.00219592 0)
(0.201137 0.00216129 0)
(0.201066 0.00212723 0)
(0.200989 0.0020937 0)
(0.200904 0.00206068 0)
(0.200812 0.00202813 0)
(0.200712 0.00199604 0)
(0.200603 0.00196441 0)
(0.200486 0.00193323 0)
(0.20036 0.00190251 0)
(0.200225 0.00187227 0)
(0.20008 0.00184255 0)
(0.199925 0.00181338 0)
(0.19976 0.00178485 0)
(0.199584 0.00175703 0)
(0.199398 0.00173009 0)
(0.199201 0.00170405 0)
(0.198994 0.00167957 0)
(0.198772 0.00165552 0)
(0.198546 0.00163738 0)
(0.198285 0.00161142 0)
(0.198085 0.00162774 0)
(0.197665 0.00156834 0)
(0.197896 0.00591849 0)
(0.19844 0.00638531 0)
(0.199085 0.00666281 0)
(0.199734 0.00673587 0)
(0.200304 0.00664952 0)
(0.20076 0.00647163 0)
(0.201109 0.00625485 0)
(0.201373 0.00602742 0)
(0.201574 0.00580275 0)
(0.201725 0.0055881 0)
(0.201837 0.00538716 0)
(0.201919 0.00520079 0)
(0.201978 0.00502828 0)
(0.202019 0.00486852 0)
(0.202047 0.00472031 0)
(0.202063 0.00458247 0)
(0.202071 0.00445383 0)
(0.202072 0.00433334 0)
(0.202067 0.0042201 0)
(0.202058 0.00411331 0)
(0.202045 0.00401229 0)
(0.20203 0.00391644 0)
(0.202012 0.00382527 0)
(0.201992 0.00373835 0)
(0.201971 0.00365529 0)
(0.201949 0.00357578 0)
(0.201926 0.00349954 0)
(0.201902 0.00342633 0)
(0.201878 0.00335594 0)
(0.201855 0.00328817 0)
(0.201831 0.00322287 0)
(0.201807 0.00315989 0)
(0.201784 0.00309909 0)
(0.201761 0.00304036 0)
(0.201739 0.0029836 0)
(0.201717 0.00292869 0)
(0.201696 0.00287555 0)
(0.201676 0.00282409 0)
(0.201656 0.00277423 0)
(0.201637 0.0027259 0)
(0.201618 0.00267901 0)
(0.201599 0.0026335 0)
(0.201581 0.00258931 0)
(0.201563 0.00254636 0)
(0.201545 0.00250458 0)
(0.201527 0.00246393 0)
(0.201509 0.00242434 0)
(0.20149 0.00238574 0)
(0.20147 0.00234809 0)
(0.201449 0.00231134 0)
(0.201426 0.00227542 0)
(0.201402 0.00224029 0)
(0.201376 0.0022059 0)
(0.201347 0.00217221 0)
(0.201316 0.00213918 0)
(0.201282 0.00210677 0)
(0.201244 0.00207495 0)
(0.201203 0.0020437 0)
(0.201158 0.00201298 0)
(0.201108 0.0019828 0)
(0.201053 0.00195314 0)
(0.200993 0.00192401 0)
(0.200927 0.00189542 0)
(0.200856 0.00186741 0)
(0.200778 0.00184 0)
(0.200693 0.00181328 0)
(0.200602 0.00178732 0)
(0.200503 0.00176228 0)
(0.200396 0.00173819 0)
(0.200281 0.0017157 0)
(0.200156 0.00169382 0)
(0.200027 0.0016776 0)
(0.199873 0.00165504 0)
(0.199759 0.00166961 0)
(0.199509 0.00161844 0)
(0.198105 0.00571581 0)
(0.198585 0.0061322 0)
(0.199149 0.0063936 0)
(0.199723 0.00648533 0)
(0.200241 0.00643775 0)
(0.200669 0.00630241 0)
(0.201006 0.00612338 0)
(0.201268 0.00592698 0)
(0.201471 0.00572704 0)
(0.201627 0.00553163 0)
(0.201745 0.00534541 0)
(0.201832 0.00517029 0)
(0.201897 0.00500648 0)
(0.201944 0.00485346 0)
(0.201976 0.00471051 0)
(0.201997 0.00457677 0)
(0.202008 0.00445135 0)
(0.202013 0.00433341 0)
(0.202011 0.00422218 0)
(0.202005 0.00411697 0)
(0.201994 0.00401719 0)
(0.201981 0.00392231 0)
(0.201965 0.00383188 0)
(0.201947 0.00374551 0)
(0.201928 0.00366287 0)
(0.201907 0.00358364 0)
(0.201886 0.00350758 0)
(0.201864 0.00343446 0)
(0.201841 0.00336408 0)
(0.201818 0.00329627 0)
(0.201796 0.00323087 0)
(0.201773 0.00316775 0)
(0.20175 0.00310678 0)
(0.201728 0.00304785 0)
(0.201706 0.00299085 0)
(0.201685 0.0029357 0)
(0.201664 0.0028823 0)
(0.201644 0.00283058 0)
(0.201624 0.00278045 0)
(0.201605 0.00273185 0)
(0.201587 0.00268471 0)
(0.201569 0.00263895 0)
(0.201552 0.00259453 0)
(0.201536 0.00255137 0)
(0.20152 0.00250942 0)
(0.201504 0.00246862 0)
(0.201489 0.00242892 0)
(0.201475 0.00239027 0)
(0.20146 0.0023526 0)
(0.201446 0.00231588 0)
(0.201431 0.00228005 0)
(0.201417 0.00224507 0)
(0.201402 0.0022109 0)
(0.201387 0.00217749 0)
(0.201371 0.00214481 0)
(0.201354 0.00211282 0)
(0.201335 0.0020815 0)
(0.201316 0.00205081 0)
(0.201295 0.00202074 0)
(0.201271 0.00199127 0)
(0.201246 0.00196241 0)
(0.201218 0.00193414 0)
(0.201188 0.0019065 0)
(0.201154 0.00187949 0)
(0.201116 0.00185318 0)
(0.201075 0.00182762 0)
(0.20103 0.0018029 0)
(0.20098 0.00177916 0)
(0.200926 0.00175647 0)
(0.200866 0.00173541 0)
(0.200799 0.00171522 0)
(0.20073 0.00170024 0)
(0.200645 0.00168075 0)
(0.200584 0.00169161 0)
(0.200447 0.00164989 0)
(0.198293 0.00552996 0)
(0.198718 0.00590341 0)