/*--------------------------------*- C++ -*----------------------------------*\
| =========                 |                                                 |
| \\      /  F ield         | OpenFOAM: The Open Source CFD Toolbox           |
|  \\    /   O peration     | Version:  2.3.0                                 |
|   \\  /    A nd           | Web:      www.OpenFOAM.org                      |
|    \\/     M anipulation  |                                                 |
\*---------------------------------------------------------------------------*/
FoamFile
{
    version     2.0;
    format      ascii;
    class       volVectorField;
    location    "0.55";
    object      U_0;
}
// * * * * * * * * * * * * * * * * * * * * * * * * * * * * * * * * * * * * * //

dimensions      [0 1 -1 0 0 0 0];

internalField   nonuniform List<vector> 
2700
(
(0.188981 0.00340193 0)
(0.175075 0.00574083 0)
(0.159252 0.00577886 0)
(0.141379 0.0053441 0)
(0.123026 0.00494623 0)
(0.105658 0.00441718 0)
(0.0904141 0.00366478 0)
(0.0777804 0.00271074 0)
(0.0677711 0.00172817 0)
(0.060143 0.000921443 0)
(0.0544888 0.00037927 0)
(0.0503669 7.15401e-05 0)
(0.0473704 -7.26266e-05 0)
(0.0451514 -0.000113882 0)
(0.0434414 -9.84614e-05 0)
(0.042047 -5.86875e-05 0)
(0.040838 -1.47303e-05 0)
(0.0397366 2.24432e-05 0)
(0.0387022 4.88697e-05 0)
(0.0377183 6.50174e-05 0)
(0.0367804 7.30293e-05 0)
(0.0358888 7.55146e-05 0)
(0.0350452 7.45157e-05 0)
(0.0342497 7.16561e-05 0)
(0.0335017 6.79175e-05 0)
(0.0327991 6.39261e-05 0)
(0.0321393 6.00412e-05 0)
(0.0315188 5.63581e-05 0)
(0.0309346 5.30178e-05 0)
(0.0303832 4.99282e-05 0)
(0.0298619 4.71597e-05 0)
(0.0293677 4.46118e-05 0)
(0.0288983 4.22933e-05 0)
(0.0284515 4.01781e-05 0)
(0.0280254 3.82023e-05 0)
(0.0276182 3.64163e-05 0)
(0.0272288 3.47168e-05 0)
(0.0268553 3.31726e-05 0)
(0.0264972 3.17093e-05 0)
(0.0261529 3.03451e-05 0)
(0.025822 2.90814e-05 0)
(0.025503 2.78662e-05 0)
(0.0251959 2.67591e-05 0)
(0.0248992 2.56845e-05 0)
(0.0246131 2.46925e-05 0)
(0.0243361 2.37521e-05 0)
(0.0240686 2.28515e-05 0)
(0.0238092 2.2024e-05 0)
(0.0235584 2.12125e-05 0)
(0.0233147 2.04678e-05 0)
(0.0230788 1.9747e-05 0)
(0.0228492 1.90654e-05 0)
(0.0226269 1.84237e-05 0)
(0.0224099 1.78039e-05 0)
(0.0221999 1.72189e-05 0)
(0.0219945 1.66647e-05 0)
(0.0217956 1.61218e-05 0)
(0.0216008 1.56245e-05 0)
(0.0214122 1.51252e-05 0)
(0.0212269 1.46685e-05 0)
(0.0210478 1.42133e-05 0)
(0.0208713 1.37922e-05 0)
(0.020701 1.33706e-05 0)
(0.0205327 1.2988e-05 0)
(0.0203706 1.25906e-05 0)
(0.0202097 1.22432e-05 0)
(0.0200554 1.18704e-05 0)
(0.0199015 1.15487e-05 0)
(0.0197545 1.12014e-05 0)
(0.019607 1.09046e-05 0)
(0.019467 1.05719e-05 0)
(0.0193255 1.03064e-05 0)
(0.0191922 9.98349e-06 0)
(0.0190564 9.74171e-06 0)
(0.0189296 9.43393e-06 0)
(0.0187989 9.21284e-06 0)
(0.0186786 8.91152e-06 0)
(0.0185527 8.72002e-06 0)
(0.0184387 8.416e-06 0)
(0.0183172 8.25614e-06 0)
(0.0182096 7.94886e-06 0)
(0.0180922 7.81825e-06 0)
(0.0179909 7.50508e-06 0)
(0.0178771 7.41488e-06 0)
(0.0177825 7.07605e-06 0)
(0.0176718 7.04283e-06 0)
(0.017584 6.67615e-06 0)
(0.0174757 6.6982e-06 0)
(0.0173951 6.29397e-06 0)
(0.0172885 6.40459e-06 0)
(0.0172156 5.9341e-06 0)
(0.0171095 6.15357e-06 0)
(0.0170449 5.61145e-06 0)
(0.0169377 5.97612e-06 0)
(0.0168825 5.32273e-06 0)
(0.0167717 5.89576e-06 0)
(0.0167275 5.09164e-06 0)
(0.0166086 5.93897e-06 0)
(0.0165797 4.961e-06 0)
(0.0164406 7.11628e-06 0)
(0.200079 0.00563382 0)
(0.202857 0.0102961 0)
(0.203844 0.0111993 0)
(0.202051 0.0110639 0)
(0.197797 0.0108805 0)
(0.191829 0.0105331 0)
(0.184954 0.00983458 0)
(0.177637 0.00873302 0)
(0.170178 0.00736164 0)
(0.162811 0.00593903 0)
(0.155705 0.0046479 0)
(0.148988 0.00357822 0)
(0.14276 0.00274604 0)
(0.137063 0.0021269 0)
(0.1319 0.00168604 0)
(0.127238 0.00138491 0)
(0.123024 0.00118383 0)
(0.119197 0.00104774 0)
(0.115703 0.000950169 0)
(0.112495 0.000874279 0)
(0.109535 0.000810036 0)
(0.106793 0.000752733 0)
(0.104244 0.000699898 0)
(0.101867 0.000650944 0)
(0.0996449 0.000605577 0)
(0.097562 0.000563813 0)
(0.0956061 0.00052573 0)
(0.0937644 0.000491007 0)
(0.0920274 0.000459709 0)
(0.0903849 0.000431257 0)
(0.0888292 0.000405633 0)
(0.0873524 0.000382313 0)
(0.0859483 0.000361126 0)
(0.0846105 0.000341826 0)
(0.0833344 0.000324054 0)
(0.0821145 0.000307838 0)
(0.0809477 0.000292747 0)
(0.0798288 0.000278887 0)
(0.0787561 0.000265961 0)
(0.0777247 0.000253933 0)
(0.0767338 0.000242773 0)
(0.0757789 0.000232241 0)
(0.0748597 0.000222499 0)
(0.073972 0.000213255 0)
(0.0731161 0.000204642 0)
(0.0722879 0.000196522 0)
(0.0714883 0.000188842 0)
(0.0707129 0.000181666 0)
(0.0699636 0.000174813 0)
(0.0692354 0.000168395 0)
(0.0685313 0.000162293 0)
(0.0678456 0.000156499 0)
(0.0671822 0.00015104 0)
(0.0665347 0.000145808 0)
(0.0659083 0.000140867 0)
(0.0652956 0.000136155 0)
(0.0647029 0.000131641 0)
(0.0641217 0.000127377 0)
(0.06356 0.000123258 0)
(0.0630077 0.000119354 0)
(0.0624745 0.000115596 0)
(0.0619486 0.000112007 0)
(0.0614419 0.000108549 0)
(0.0609403 0.000105256 0)
(0.0604584 0.000102044 0)
(0.0599792 9.90139e-05 0)
(0.0595206 9.60302e-05 0)
(0.0590622 9.32106e-05 0)
(0.0586256 9.04399e-05 0)
(0.0581864 8.78114e-05 0)
(0.057771 8.52029e-05 0)
(0.0573497 8.27691e-05 0)
(0.0569546 8.02959e-05 0)
(0.0565499 7.80167e-05 0)
(0.0561747 7.56847e-05 0)
(0.0557854 7.3538e-05 0)
(0.0554296 7.13096e-05 0)
(0.0550547 6.93114e-05 0)
(0.0547183 6.71511e-05 0)
(0.0543566 6.52956e-05 0)
(0.0540398 6.31972e-05 0)
(0.0536901 6.14664e-05 0)
(0.0533931 5.94184e-05 0)
(0.0530543 5.78389e-05 0)
(0.0527779 5.57794e-05 0)
(0.0524484 5.43934e-05 0)
(0.0521936 5.23222e-05 0)
(0.0518715 5.11156e-05 0)
(0.0516397 4.90125e-05 0)
(0.0513228 4.80815e-05 0)
(0.0511158 4.58799e-05 0)
(0.0508008 4.52735e-05 0)
(0.0506214 4.29993e-05 0)
(0.0503035 4.28074e-05 0)
(0.0501555 4.04218e-05 0)
(0.0498274 4.07758e-05 0)
(0.0497168 3.8356e-05 0)
(0.0493665 3.93665e-05 0)
(0.0493045 3.70373e-05 0)
(0.0489102 4.11072e-05 0)
(0.200023 0.00371262 0)
(0.202939 0.00827244 0)
(0.206299 0.0100806 0)
(0.208905 0.0106228 0)
(0.210345 0.0108967 0)
(0.210713 0.0110315 0)
(0.210246 0.0108436 0)
(0.209068 0.0102394 0)
(0.207241 0.00930283 0)
(0.204832 0.0082102 0)
(0.201949 0.00713472 0)
(0.19872 0.00618204 0)
(0.195285 0.00538841 0)
(0.191762 0.00474327 0)
(0.188234 0.00422353 0)
(0.184753 0.00380452 0)
(0.181342 0.00346244 0)
(0.178011 0.0031764 0)
(0.174763 0.00292992 0)
(0.171601 0.00271215 0)
(0.168529 0.0025156 0)
(0.165546 0.0023366 0)
(0.162656 0.00217229 0)
(0.159858 0.00202159 0)
(0.157155 0.00188332 0)
(0.154546 0.00175671 0)
(0.152031 0.00164119 0)
(0.149607 0.00153564 0)
(0.147274 0.00143972 0)
(0.145027 0.00135208 0)
(0.142866 0.00127241 0)
(0.140785 0.00119953 0)
(0.138782 0.00113292 0)
(0.136854 0.00107193 0)
(0.134996 0.00101576 0)
(0.133206 0.000964225 0)
(0.13148 0.000916441 0)
(0.129814 0.000872386 0)
(0.128207 0.000831437 0)
(0.126653 0.000793348 0)
(0.125154 0.000757989 0)
(0.123701 0.000724788 0)
(0.122297 0.000693972 0)
(0.120936 0.0006649 0)
(0.119619 0.000637768 0)
(0.118339 0.000612221 0)
(0.117101 0.000588153 0)
(0.115896 0.000565558 0)
(0.114729 0.000544144 0)
(0.113591 0.000523974 0)
(0.112489 0.000504896 0)
(0.111412 0.000486755 0)
(0.110369 0.000469675 0)
(0.109348 0.000453317 0)
(0.10836 0.000437891 0)
(0.10739 0.000423132 0)
(0.106452 0.000409103 0)
(0.105529 0.000395717 0)
(0.104637 0.000382945 0)
(0.103757 0.000370698 0)
(0.102908 0.000359053 0)
(0.102068 0.000347798 0)
(0.101259 0.000337107 0)
(0.100455 0.000326755 0)
(0.0996849 0.000316875 0)
(0.0989148 0.000307311 0)
(0.0981804 0.000298167 0)
(0.0974416 0.000289253 0)
(0.0967414 0.00028078 0)
(0.0960317 0.000272443 0)
(0.0953646 0.000264518 0)
(0.0946819 0.000256726 0)
(0.0940468 0.000249275 0)
(0.0933892 0.000241922 0)
(0.0927854 0.000234934 0)
(0.0921512 0.000227949 0)
(0.0915784 0.000221337 0)
(0.0909657 0.000214719 0)
(0.090424 0.000208407 0)
(0.089831 0.000202116 0)
(0.0893209 0.000196084 0)
(0.0887458 0.00019006 0)
(0.0882683 0.000184285 0)
(0.0877089 0.000178546 0)
(0.0872654 0.000172924 0)
(0.0867193 0.000167514 0)
(0.0863118 0.000162064 0)
(0.085776 0.000156922 0)
(0.0854073 0.000151643 0)
(0.0848779 0.000146895 0)
(0.0845518 0.000141735 0)
(0.0840234 0.000137404 0)
(0.0837451 0.000132519 0)
(0.08321 0.00012867 0)
(0.0829864 0.00012417 0)
(0.082434 0.000120917 0)
(0.0822745 0.000117159 0)
(0.081689 0.000114769 0)
(0.0816058 0.000112042 0)
(0.0809675 0.000113912 0)
(0.200008 0.00252619 0)
(0.201846 0.00633052 0)
(0.204533 0.00842025 0)
(0.207326 0.00932364 0)
(0.209692 0.00975029 0)
(0.211534 0.0100008 0)
(0.212949 0.0100237 0)
(0.213989 0.00973374 0)
(0.214631 0.009153 0)
(0.214832 0.00839529 0)
(0.214587 0.00759731 0)
(0.213945 0.00685989 0)
(0.212989 0.00622968 0)
(0.21181 0.00571049 0)
(0.21048 0.00528556 0)
(0.209047 0.00493285 0)
(0.207536 0.00463417 0)
(0.205962 0.00437496 0)
(0.204333 0.00414387 0)
(0.202653 0.00393317 0)
(0.20093 0.00373684 0)
(0.199167 0.0035522 0)
(0.197375 0.00337678 0)
(0.195556 0.00321025 0)
(0.193721 0.00305186 0)
(0.191872 0.00290158 0)
(0.190021 0.0027595 0)
(0.188167 0.00262499 0)
(0.186321 0.00249854 0)
(0.184484 0.00237905 0)
(0.182661 0.00226697 0)
(0.180854 0.00216129 0)
(0.179069 0.00206203 0)
(0.177305 0.0019687 0)
(0.175567 0.00188074 0)
(0.173852 0.00179821 0)
(0.172168 0.00172025 0)
(0.170508 0.00164702 0)
(0.168882 0.00157791 0)
(0.167281 0.00151269 0)
(0.165713 0.00145136 0)
(0.164171 0.00139312 0)
(0.162664 0.00133849 0)
(0.161182 0.00128649 0)
(0.159733 0.00123756 0)
(0.158309 0.00119109 0)
(0.156919 0.00114709 0)
(0.155552 0.00110543 0)
(0.154218 0.00106584 0)
(0.152905 0.00102824 0)
(0.151626 0.000992607 0)
(0.150364 0.000958498 0)
(0.149137 0.000926324 0)
(0.147925 0.000895334 0)
(0.146748 0.000866091 0)
(0.145583 0.00083792 0)
(0.144454 0.000811206 0)
(0.143333 0.000785484 0)
(0.142249 0.000761065 0)
(0.141169 0.000737408 0)
(0.14013 0.000715058 0)
(0.139089 0.000693219 0)
(0.138091 0.000672649 0)
(0.137088 0.000652456 0)
(0.136131 0.000633427 0)
(0.135162 0.000614672 0)
(0.134244 0.000597048 0)
(0.133308 0.000579491 0)
(0.132427 0.000563151 0)
(0.131522 0.000546651 0)
(0.130679 0.000531387 0)
(0.129802 0.000515864 0)
(0.128996 0.000501552 0)
(0.128146 0.000486809 0)
(0.127377 0.000473416 0)
(0.126551 0.00045932 0)
(0.125819 0.000446702 0)
(0.125016 0.000433215 0)
(0.124322 0.000421253 0)
(0.12354 0.000408277 0)
(0.122885 0.000396944 0)
(0.122121 0.000384347 0)
(0.121508 0.000373616 0)
(0.120759 0.000361383 0)
(0.120189 0.000351115 0)
(0.119453 0.000339255 0)
(0.11893 0.000329519 0)
(0.118203 0.000317874 0)
(0.117731 0.000308723 0)
(0.117006 0.000297407 0)
(0.116592 0.000288844 0)
(0.115864 0.000277797 0)
(0.115514 0.000270154 0)
(0.114773 0.000259416 0)
(0.114496 0.000252898 0)
(0.11373 0.000242717 0)
(0.113537 0.000237724 0)
(0.112732 0.000228871 0)
(0.112633 0.000225638 0)
(0.111773 0.000221796 0)
(0.200008 0.00186495 0)
(0.201221 0.00499638 0)
(0.203187 0.00711722 0)
(0.205506 0.00824034 0)
(0.20772 0.00876873 0)
(0.209624 0.00902697 0)
(0.211244 0.00909397 0)
(0.21264 0.00893788 0)
(0.213824 0.0085532 0)
(0.214754 0.00800287 0)
(0.215398 0.0073868 0)
(0.215759 0.00679338 0)
(0.21588 0.00627452 0)
(0.215819 0.00584332 0)
(0.215634 0.00549086 0)
(0.21536 0.00519891 0)
(0.215019 0.00495225 0)
(0.214618 0.00473859 0)
(0.214162 0.00454884 0)
(0.213649 0.00437648 0)
(0.21308 0.00421583 0)
(0.212454 0.00406434 0)
(0.211776 0.00391899 0)
(0.211042 0.00377954 0)
(0.210261 0.00364482 0)
(0.20943 0.00351495 0)
(0.208559 0.00338999 0)
(0.207644 0.00326938 0)
(0.206695 0.00315394 0)
(0.205711 0.00304247 0)
(0.204699 0.00293603 0)
(0.203658 0.00283342 0)
(0.202595 0.00273523 0)
(0.201509 0.00264094 0)
(0.200408 0.00255033 0)
(0.199287 0.00246364 0)
(0.198158 0.00238014 0)
(0.197013 0.00230023 0)
(0.195865 0.00222344 0)
(0.194704 0.00214961 0)
(0.193546 0.00207907 0)
(0.192377 0.00201083 0)
(0.191214 0.00194593 0)
(0.190044 0.00188303 0)
(0.188883 0.00182312 0)
(0.187717 0.00176526 0)
(0.186563 0.00170988 0)
(0.185405 0.00165661 0)
(0.184263 0.00160551 0)
(0.183116 0.00155625 0)
(0.181989 0.00150923 0)
(0.180856 0.00146355 0)
(0.179747 0.00142024 0)
(0.178631 0.00137792 0)
(0.177542 0.00133785 0)
(0.176444 0.00129868 0)
(0.175377 0.0012615 0)
(0.174298 0.00122515 0)
(0.173255 0.00119071 0)
(0.172196 0.00115678 0)
(0.171178 0.00112488 0)
(0.170139 0.00109315 0)
(0.169147 0.00106349 0)
(0.168128 0.00103378 0)
(0.167163 0.00100611 0)
(0.166164 0.000978192 0)
(0.165227 0.000952381 0)
(0.164248 0.000925967 0)
(0.163339 0.000901897 0)
(0.162379 0.000876818 0)
(0.1615 0.000854233 0)
(0.160558 0.000830396 0)
(0.15971 0.000809158 0)
(0.158786 0.000786291 0)
(0.15797 0.000766384 0)
(0.157062 0.0007443 0)
(0.15628 0.000725543 0)
(0.155386 0.000704182 0)
(0.15464 0.000686437 0)
(0.15376 0.000665637 0)
(0.153052 0.000648896 0)
(0.152182 0.000628442 0)
(0.151517 0.000612697 0)
(0.150655 0.000592532 0)
(0.150035 0.000577627 0)
(0.149178 0.000557709 0)
(0.148609 0.000543793 0)
(0.147752 0.000523838 0)
(0.147239 0.000511028 0)
(0.146377 0.000491153 0)
(0.145928 0.00047948 0)
(0.145054 0.000459576 0)
(0.144677 0.000449473 0)
(0.143782 0.000429682 0)
(0.143486 0.000421277 0)
(0.14256 0.000402145 0)
(0.142354 0.000395783 0)
(0.141384 0.000378521 0)
(0.14128 0.000374567 0)
(0.140253 0.000362556 0)
(0.200007 0.00145128 0)
(0.200859 0.00404505 0)
(0.202315 0.00602755 0)
(0.204165 0.00725422 0)
(0.206079 0.00788495 0)
(0.207817 0.00817567 0)
(0.209329 0.00826788 0)
(0.21065 0.00818677 0)
(0.211814 0.00792868 0)
(0.212808 0.00752361 0)
(0.213612 0.00703845 0)
(0.214216 0.00654634 0)
(0.214645 0.00610063 0)
(0.214937 0.00572207 0)
(0.215139 0.00541024 0)
(0.215283 0.00515174 0)
(0.215392 0.00493421 0)
(0.21547 0.00474646 0)
(0.215522 0.00458094 0)
(0.215543 0.00443197 0)
(0.215536 0.00429453 0)
(0.215494 0.00416635 0)
(0.215421 0.00404415 0)
(0.215309 0.00392772 0)
(0.215166 0.00381543 0)
(0.214983 0.00370737 0)
(0.21477 0.00360337 0)
(0.214518 0.00350268 0)
(0.214237 0.00340628 0)
(0.213918 0.00331252 0)
(0.213572 0.00322293 0)
(0.213191 0.00313573 0)
(0.212784 0.00305205 0)
(0.212343 0.00297092 0)
(0.21188 0.00289245 0)
(0.211384 0.00281671 0)
(0.210871 0.00274307 0)
(0.210324 0.00267194 0)
(0.209763 0.00260293 0)
(0.209171 0.00253576 0)
(0.208568 0.00247111 0)
(0.207935 0.00240758 0)
(0.207295 0.00234682 0)
(0.206625 0.00228688 0)
(0.205952 0.00222949 0)
(0.20525 0.00217311 0)
(0.204549 0.00211879 0)
(0.203819 0.00206567 0)
(0.203095 0.00201442 0)
(0.202341 0.00196412 0)
(0.201597 0.00191594 0)
(0.200823 0.00186819 0)
(0.200064 0.00182289 0)
(0.199273 0.00177764 0)
(0.198502 0.00173486 0)
(0.197697 0.00169209 0)
(0.196919 0.00165161 0)
(0.196103 0.00161109 0)
(0.19532 0.00157293 0)
(0.194495 0.00153432 0)
(0.193711 0.0014984 0)
(0.192879 0.00146158 0)
(0.192097 0.00142767 0)
(0.19126 0.00139258 0)
(0.190483 0.00136048 0)
(0.189642 0.00132693 0)
(0.188872 0.00129662 0)
(0.188029 0.00126432 0)
(0.187269 0.00123576 0)
(0.186424 0.00120458 0)
(0.185677 0.00117752 0)
(0.184831 0.00114743 0)
(0.1841 0.00112177 0)
(0.183253 0.00109246 0)
(0.18254 0.00106827 0)
(0.181693 0.00103952 0)
(0.181001 0.00101664 0)
(0.180153 0.000988417 0)
(0.179486 0.000966709 0)
(0.178636 0.000938815 0)
(0.177998 0.000918335 0)
(0.177144 0.000890486 0)
(0.176539 0.000871287 0)
(0.175679 0.000843401 0)
(0.175113 0.000825313 0)
(0.174245 0.00079734 0)
(0.173723 0.000780599 0)
(0.172843 0.000752151 0)
(0.172372 0.000736909 0)
(0.171474 0.000708192 0)
(0.171062 0.000694428 0)
(0.170142 0.000665373 0)
(0.169796 0.000653546 0)
(0.168848 0.000624475 0)
(0.168577 0.00061458 0)
(0.167591 0.000586315 0)
(0.167404 0.000578761 0)
(0.166373 0.000552702 0)
(0.166277 0.000548136 0)
(0.165189 0.000527189 0)
(0.200005 0.00116846 0)
(0.200632 0.00332731 0)
(0.20173 0.00509791 0)
(0.203193 0.00632514 0)
(0.204804 0.00703253 0)
(0.206348 0.00737944 0)
(0.207726 0.00750913 0)
(0.208933 0.00748458 0)
(0.209997 0.00731868 0)
(0.210921 0.00702764 0)
(0.211703 0.00665298 0)
(0.21233 0.00624981 0)
(0.212819 0.00586751 0)
(0.213194 0.00553159 0)
(0.213494 0.00524942 0)
(0.213746 0.00501289 0)
(0.213976 0.00481302 0)
(0.214188 0.00463965 0)
(0.214391 0.00448652 0)
(0.214579 0.00434872 0)
(0.214758 0.00422215 0)
(0.214919 0.00410506 0)
(0.215069 0.00399431 0)
(0.215197 0.00388982 0)
(0.215314 0.00378977 0)
(0.215407 0.00369421 0)
(0.215488 0.00360289 0)
(0.215544 0.00351481 0)
(0.215589 0.00343119 0)
(0.215607 0.0033499 0)
(0.215614 0.00327295 0)
(0.215595 0.00319793 0)
(0.215563 0.00312652 0)
(0.215505 0.00305718 0)
(0.215436 0.00299045 0)
(0.215338 0.00292599 0)
(0.215232 0.00286345 0)
(0.215095 0.00280294 0)
(0.214951 0.00274435 0)
(0.214775 0.002687 0)
(0.214596 0.00263206 0)
(0.214381 0.00257747 0)
(0.214166 0.00252563 0)
(0.213915 0.00247375 0)
(0.213664 0.00242441 0)
(0.213377 0.0023752 0)
(0.213094 0.00232804 0)
(0.212772 0.00228118 0)
(0.212458 0.00223623 0)
(0.212102 0.00219125 0)
(0.211759 0.00214857 0)
(0.21137 0.00210521 0)
(0.211001 0.00206461 0)
(0.210582 0.00202289 0)
(0.210187 0.00198401 0)
(0.20974 0.001944 0)
(0.209323 0.00190668 0)
(0.208849 0.0018681 0)
(0.208412 0.00183251 0)
(0.207912 0.00179503 0)
(0.207459 0.00176112 0)
(0.206934 0.00172473 0)
(0.206466 0.00169225 0)
(0.205919 0.00165698 0)
(0.205439 0.00162581 0)
(0.20487 0.00159147 0)
(0.204381 0.00156171 0)
(0.203792 0.00152797 0)
(0.203297 0.00149968 0)
(0.202688 0.00146649 0)
(0.20219 0.00143936 0)
(0.201564 0.00140681 0)
(0.201065 0.00138081 0)
(0.200421 0.00134847 0)
(0.199926 0.00132385 0)
(0.199263 0.00129152 0)
(0.198775 0.00126806 0)
(0.198095 0.00123579 0)
(0.197618 0.0012134 0)
(0.19692 0.00118096 0)
(0.196457 0.00115978 0)
(0.19574 0.00112683 0)
(0.195297 0.00110701 0)
(0.19456 0.00107348 0)
(0.194142 0.00105475 0)
(0.193384 0.00102071 0)
(0.192995 0.00100339 0)
(0.192213 0.000968318 0)
(0.191861 0.000952594 0)
(0.191051 0.000916927 0)
(0.190742 0.000902584 0)
(0.189902 0.000866331 0)
(0.189642 0.000853931 0)
(0.188768 0.000817551 0)
(0.188565 0.000806947 0)
(0.187651 0.000771477 0)
(0.187511 0.000763289 0)
(0.186553 0.000730108 0)
(0.186482 0.000725256 0)
(0.185473 0.000696894 0)
(0.200004 0.000960859 0)
(0.200479 0.00276679 0)
(0.201323 0.00431765 0)
(0.202481 0.00548297 0)
(0.203817 0.00622907 0)
(0.205163 0.00663453 0)
(0.206408 0.0068116 0)
(0.207511 0.00683692 0)
(0.208483 0.00674081 0)
(0.20933 0.0065391 0)
(0.210062 0.00625811 0)
(0.210668 0.00593622 0)
(0.211161 0.00561501 0)
(0.211553 0.00532076 0)
(0.211878 0.00506669 0)
(0.212154 0.00484969 0)
(0.212409 0.00466448 0)
(0.212646 0.00450221 0)
(0.21288 0.00435777 0)
(0.213102 0.00422692 0)
(0.213322 0.00410635 0)
(0.21353 0.00399492 0)
(0.213736 0.00388983 0)
(0.213927 0.00379119 0)
(0.214117 0.00369721 0)
(0.214292 0.00360781 0)
(0.214466 0.00352292 0)
(0.214623 0.00344116 0)
(0.214781 0.00336421 0)
(0.214921 0.00328937 0)
(0.215061 0.00321922 0)
(0.215183 0.00315081 0)
(0.215306 0.00308631 0)
(0.215409 0.00302373 0)
(0.215514 0.00296402 0)
(0.215597 0.00290641 0)
(0.215683 0.00285101 0)
(0.215745 0.00279737 0)
(0.215812 0.00274603 0)
(0.215851 0.00269552 0)
(0.215898 0.00264786 0)
(0.215914 0.00260004 0)
(0.215939 0.00255542 0)
(0.215932 0.00251024 0)
(0.215936 0.00246796 0)
(0.215904 0.00242528 0)
(0.215886 0.00238506 0)
(0.215829 0.00234442 0)
(0.215789 0.00230627 0)
(0.215706 0.00226717 0)
(0.215645 0.00223105 0)
(0.215535 0.00219323 0)
(0.215452 0.00215887 0)
(0.215316 0.00212238 0)
(0.215212 0.00208934 0)
(0.21505 0.00205416 0)
(0.214925 0.0020224 0)
(0.214736 0.00198809 0)
(0.214592 0.00195783 0)
(0.214376 0.00192408 0)
(0.214215 0.00189513 0)
(0.213971 0.00186208 0)
(0.213792 0.00183411 0)
(0.213523 0.00180173 0)
(0.213328 0.00177471 0)
(0.213033 0.00174271 0)
(0.212824 0.00171687 0)
(0.212502 0.00168481 0)
(0.212281 0.0016602 0)
(0.211933 0.00162823 0)
(0.211702 0.00160431 0)
(0.211329 0.00157258 0)
(0.211088 0.00154955 0)
(0.210689 0.00151733 0)
(0.210443 0.00149557 0)
(0.210018 0.00146281 0)
(0.209769 0.0014419 0)
(0.209319 0.00140874 0)
(0.209069 0.00138866 0)
(0.208592 0.0013548 0)
(0.208345 0.00133578 0)
(0.207842 0.00130077 0)
(0.207601 0.00128303 0)
(0.20707 0.00124699 0)
(0.206839 0.00122993 0)
(0.20628 0.00119308 0)
(0.206064 0.00117731 0)
(0.205474 0.00113881 0)
(0.205277 0.00112439 0)
(0.204657 0.00108527 0)
(0.204482 0.00107168 0)
(0.20383 0.00103173 0)
(0.203683 0.00101991 0)
(0.202996 0.000979789 0)
(0.202881 0.00096923 0)
(0.202158 0.000930111 0)
(0.202079 0.000921893 0)
(0.201318 0.000884982 0)
(0.201278 0.00088008 0)
(0.200477 0.000847777 0)
(0.200003 0.000800761 0)
(0.200371 0.00232355 0)
(0.201032 0.00367207 0)
(0.201953 0.00474579 0)
(0.203054 0.00549458 0)
(0.20421 0.00594551 0)
(0.205321 0.00617152 0)
(0.206325 0.00624383 0)
(0.207217 0.00620333 0)
(0.207998 0.00607109 0)
(0.208679 0.00586714 0)
(0.209257 0.00561735 0)
(0.209742 0.00535439 0)
(0.210138 0.00510196 0)
(0.210472 0.00487657 0)
(0.210756 0.00467924 0)
(0.211017 0.0045084 0)
(0.211258 0.00435697 0)
(0.211494 0.0042209 0)
(0.211719 0.00409654 0)
(0.211942 0.00398117 0)
(0.212154 0.00387416 0)
(0.212366 0.00377318 0)
(0.212566 0.00367835 0)
(0.212767 0.00358831 0)
(0.212956 0.00350253 0)
(0.213148 0.00342148 0)
(0.213326 0.00334317 0)
(0.21351 0.00326989 0)
(0.213679 0.00319841 0)
(0.213854 0.00313179 0)
(0.214015 0.00306673 0)
(0.214182 0.00300571 0)
(0.214335 0.0029465 0)
(0.214494 0.00289038 0)
(0.214637 0.00283612 0)
(0.214789 0.00278452 0)
(0.214922 0.00273427 0)
(0.215067 0.00268692 0)
(0.215188 0.00263991 0)
(0.215325 0.00259637 0)
(0.215435 0.00255226 0)
(0.215563 0.00251181 0)
(0.215662 0.00247054 0)
(0.215779 0.00243256 0)
(0.215866 0.00239382 0)
(0.215972 0.00235816 0)
(0.216045 0.00232137 0)
(0.216141 0.002288 0)
(0.216198 0.00225275 0)
(0.216284 0.00222145 0)
(0.216325 0.00218758 0)
(0.2164 0.00215795 0)
(0.216424 0.00212552 0)
(0.216486 0.00209716 0)
(0.216494 0.00206593 0)
(0.216543 0.00203903 0)
(0.216532 0.00200832 0)
(0.216571 0.00198306 0)
(0.216539 0.00195279 0)
(0.216566 0.00192862 0)
(0.216515 0.00189908 0)
(0.21653 0.00187569 0)
(0.216459 0.00184666 0)
(0.216461 0.00182419 0)
(0.216369 0.00179516 0)
(0.216361 0.00177398 0)
(0.216246 0.00174448 0)
(0.216228 0.00172437 0)
(0.216091 0.00169496 0)
(0.216062 0.0016751 0)
(0.215904 0.0016457 0)
(0.215865 0.00162683 0)
(0.215682 0.0015963 0)
(0.215637 0.00157868 0)
(0.21543 0.00154742 0)
(0.215377 0.00153026 0)
(0.215147 0.0014984 0)
(0.215088 0.00148186 0)
(0.214833 0.00144895 0)
(0.21477 0.00143339 0)
(0.214489 0.00139879 0)
(0.214425 0.00138435 0)
(0.214119 0.00134875 0)
(0.214053 0.00133423 0)
(0.213722 0.00129766 0)
(0.213658 0.00128455 0)
(0.213298 0.00124578 0)
(0.21324 0.00123332 0)
(0.212853 0.0011945 0)
(0.212799 0.00118223 0)
(0.212385 0.00114209 0)
(0.212341 0.00113146 0)
(0.211898 0.00109147 0)
(0.211862 0.00108123 0)
(0.211393 0.00104221 0)
(0.211369 0.00103433 0)
(0.210871 0.000997471 0)
(0.210859 0.000992526 0)
(0.210335 0.000960196 0)
(0.200003 0.000674106 0)
(0.200292 0.00196843 0)
(0.200817 0.00313852 0)
(0.201557 0.00411085 0)
(0.202462 0.00483523 0)
(0.203446 0.00531164 0)
(0.204423 0.00557994 0)
(0.205332 0.005696 0)
(0.20615 0.00570252 0)
(0.206871 0.00562535 0)
(0.207507 0.00548375 0)
(0.208054 0.0052959 0)
(0.208526 0.00508676 0)
(0.20892 0.00487554 0)
(0.209259 0.00467957 0)
(0.209549 0.00450277 0)
(0.209814 0.00434679 0)
(0.210057 0.00420677 0)
(0.210292 0.00407964 0)
(0.210515 0.00396247 0)
(0.210735 0.00385289 0)
(0.210945 0.00375062 0)
(0.211153 0.00365388 0)
(0.21135 0.00356262 0)
(0.211549 0.00347621 0)
(0.211735 0.00339345 0)
(0.211926 0.00331561 0)
(0.212104 0.00323996 0)
(0.212289 0.00316942 0)
(0.21246 0.00310035 0)
(0.212639 0.00303604 0)
(0.212804 0.00297321 0)
(0.212977 0.00291429 0)
(0.213139 0.00285708 0)
(0.213308 0.00280308 0)
(0.213464 0.00275056 0)
(0.21363 0.00270121 0)
(0.21378 0.00265256 0)
(0.213944 0.00260751 0)
(0.214088 0.00256218 0)
(0.214249 0.00252085 0)
(0.214388 0.00247867 0)
(0.214545 0.00244032 0)
(0.214679 0.00240116 0)
(0.214832 0.00236541 0)
(0.214961 0.00232868 0)
(0.21511 0.00229563 0)
(0.215232 0.00226069 0)
(0.215378 0.00223018 0)
(0.215491 0.00219688 0)
(0.215634 0.00216842 0)
(0.215739 0.0021368 0)
(0.215877 0.00210988 0)
(0.215974 0.00207995 0)
(0.216106 0.00205438 0)
(0.216195 0.00202551 0)
(0.216321 0.00200189 0)
(0.216399 0.00197324 0)
(0.216522 0.00195144 0)
(0.216587 0.00192348 0)
(0.216705 0.00190248 0)
(0.21676 0.00187557 0)
(0.21687 0.00185531 0)
(0.216914 0.00182882 0)
(0.217017 0.00180976 0)
(0.217048 0.00178296 0)
(0.217146 0.0017655 0)
(0.217161 0.00173813 0)
(0.217254 0.00172146 0)
(0.217255 0.00169467 0)
(0.21734 0.0016779 0)
(0.217328 0.00165088 0)
(0.217406 0.00163567 0)
(0.217377 0.001607 0)
(0.21745 0.00159291 0)
(0.217404 0.0015639 0)
(0.217469 0.00154982 0)
(0.217408 0.00152022 0)
(0.217467 0.00150674 0)
(0.217388 0.00147586 0)
(0.217441 0.00146349 0)
(0.217344 0.00143063 0)
(0.217392 0.00141898 0)
(0.217277 0.00138584 0)
(0.217317 0.00137331 0)
(0.217186 0.00133884 0)
(0.217223 0.00132833 0)
(0.217069 0.00129154 0)
(0.217102 0.00128034 0)
(0.216933 0.0012445 0)
(0.216958 0.00123347 0)
(0.21677 0.00119541 0)
(0.216793 0.00118576 0)
(0.216587 0.0011488 0)
(0.216602 0.00113875 0)
(0.21638 0.00110234 0)
(0.216392 0.00109487 0)
(0.216151 0.00106084 0)
(0.216157 0.00105576 0)
(0.215902 0.00102615 0)
(0.200002 0.000572239 0)
(0.200233 0.00167928 0)
(0.200654 0.00269545 0)
(0.201254 0.00356726 0)
(0.202 0.00425023 0)
(0.202832 0.00473236 0)
(0.203683 0.00503128 0)
(0.204497 0.00518548 0)
(0.205245 0.00523298 0)
(0.205911 0.00520099 0)
(0.206504 0.00510996 0)
(0.207022 0.00497415 0)
(0.207477 0.00481307 0)
(0.207865 0.00464119 0)
(0.208206 0.00447476 0)
(0.2085 0.00431934 0)
(0.208769 0.00417886 0)
(0.209013 0.00405094 0)
(0.209248 0.00393336 0)
(0.20947 0.00382418 0)
(0.209687 0.00372118 0)
(0.209895 0.00362427 0)
(0.210099 0.00353234 0)
(0.210294 0.00344492 0)
(0.210488 0.00336239 0)
(0.210672 0.00328271 0)
(0.210859 0.00320808 0)
(0.211033 0.0031351 0)
(0.211214 0.00306711 0)
(0.211383 0.00300043 0)
(0.211557 0.00293811 0)
(0.211721 0.00287739 0)
(0.211891 0.00282019 0)
(0.212051 0.00276466 0)
(0.212217 0.00271241 0)
(0.212374 0.00266113 0)
(0.212538 0.00261359 0)
(0.21269 0.00256596 0)
(0.212853 0.00252259 0)
(0.213 0.00247836 0)
(0.213163 0.00243842 0)
(0.213307 0.00239758 0)
(0.213467 0.00236035 0)
(0.21361 0.00232261 0)
(0.213767 0.00228811 0)
(0.213908 0.00225249 0)
(0.214063 0.00222111 0)
(0.2142 0.00218699 0)
(0.214356 0.00215828 0)
(0.214487 0.00212596 0)
(0.214643 0.00209905 0)
(0.21477 0.00206882 0)
(0.214923 0.00204317 0)
(0.215049 0.00201485 0)
(0.215198 0.00199073 0)
(0.21532 0.00196313 0)
(0.215468 0.00194153 0)
(0.215584 0.00191384 0)
(0.215732 0.00189412 0)
(0.215841 0.0018676 0)
(0.215987 0.00184817 0)
(0.216092 0.00182315 0)
(0.216234 0.0018045 0)
(0.216335 0.00177969 0)
(0.216473 0.00176271 0)
(0.216566 0.00173724 0)
(0.216703 0.00172216 0)
(0.216788 0.00169632 0)
(0.216923 0.00168149 0)
(0.217002 0.00165701 0)
(0.21713 0.00164185 0)
(0.217204 0.00161669 0)
(0.217328 0.00160398 0)
(0.217391 0.00157681 0)
(0.217513 0.00156484 0)
(0.217568 0.00153817 0)
(0.217682 0.00152573 0)
(0.217731 0.00149851 0)
(0.217839 0.00148687 0)
(0.217879 0.00145819 0)
(0.217982 0.00144792 0)
(0.21801 0.00141725 0)
(0.218108 0.001407 0)
(0.218129 0.00137724 0)
(0.218216 0.0013656 0)
(0.218229 0.00133367 0)
(0.218311 0.00132506 0)
(0.218311 0.00129132 0)
(0.218384 0.00128016 0)
(0.218379 0.00124835 0)
(0.21844 0.00123827 0)
(0.218424 0.00120307 0)
(0.218478 0.00119377 0)
(0.218453 0.00116117 0)
(0.218492 0.00115109 0)
(0.218461 0.00111813 0)
(0.218489 0.00111099 0)
(0.21845 0.00108096 0)
(0.218463 0.00107571 0)
(0.218418 0.00104982 0)
(0.200002 0.000489056 0)
(0.200188 0.00144064 0)
(0.20053 0.00232485 0)
(0.201019 0.00310194 0)
(0.201636 0.00373467 0)
(0.202337 0.00420707 0)
(0.203074 0.00452372 0)
(0.203796 0.00470828 0)
(0.204474 0.00479112 0)
(0.205089 0.00479717 0)
(0.205642 0.00474774 0)
(0.206131 0.0046552 0)
(0.206567 0.00453586 0)
(0.206947 0.00440028 0)
(0.207285 0.0042626 0)
(0.207581 0.00412901 0)
(0.207852 0.00400457 0)
(0.208099 0.00388934 0)
(0.208333 0.00378178 0)
(0.208555 0.00368115 0)
(0.20877 0.00358533 0)
(0.208977 0.00349436 0)
(0.209179 0.00340779 0)
(0.209372 0.00332455 0)
(0.209563 0.00324624 0)
(0.209745 0.00316983 0)
(0.209928 0.00309857 0)
(0.210101 0.00302844 0)
(0.210278 0.00296303 0)
(0.210444 0.00289894 0)
(0.210614 0.00283857 0)
(0.210777 0.00278012 0)
(0.210942 0.00272458 0)
(0.211101 0.0026708 0)
(0.211262 0.00262027 0)
(0.211417 0.00257019 0)
(0.211576 0.00252442 0)
(0.211727 0.00247773 0)
(0.211886 0.00243589 0)
(0.212033 0.00239273 0)
(0.21219 0.00235386 0)
(0.212335 0.00231436 0)
(0.21249 0.00227787 0)
(0.212635 0.00224147 0)
(0.212786 0.00220783 0)
(0.21293 0.0021731 0)
(0.213081 0.00214302 0)
(0.213222 0.00210941 0)
(0.213373 0.00208204 0)
(0.213511 0.00205046 0)
(0.213662 0.00202443 0)
(0.213798 0.0019954 0)
(0.213947 0.00197029 0)
(0.214083 0.00194329 0)
(0.214229 0.0019199 0)
(0.214365 0.00189313 0)
(0.214511 0.0018729 0)
(0.214642 0.00184568 0)
(0.214789 0.00182719 0)
(0.214917 0.0018018 0)
(0.215063 0.0017829 0)
(0.215191 0.00175944 0)
(0.215333 0.00174144 0)
(0.21546 0.0017178 0)
(0.2156 0.00170202 0)
(0.215724 0.00167734 0)
(0.215864 0.00166364 0)
(0.215984 0.00163898 0)
(0.216122 0.00162475 0)
(0.216241 0.00160234 0)
(0.216374 0.00158765 0)
(0.216493 0.00156387 0)
(0.216623 0.0015527 0)
(0.216736 0.00152665 0)
(0.216866 0.00151556 0)
(0.216976 0.00149112 0)
(0.217099 0.00147905 0)
(0.21721 0.00145401 0)
(0.217327 0.00144315 0)
(0.217434 0.00141639 0)
(0.217547 0.00140717 0)
(0.21765 0.00137865 0)
(0.217757 0.00136854 0)
(0.21786 0.00134224 0)
(0.217955 0.00133061 0)
(0.218057 0.00130089 0)
(0.218148 0.00129345 0)
(0.218243 0.00126293 0)
(0.218324 0.00125083 0)
(0.218421 0.0012229 0)
(0.218489 0.00121356 0)
(0.218581 0.00118098 0)
(0.218642 0.00117149 0)
(0.218733 0.00114328 0)
(0.218776 0.00113311 0)
(0.218867 0.00110323 0)
(0.218899 0.00109636 0)
(0.218988 0.00107024 0)
(0.219002 0.0010649 0)