/*--------------------------------*- C++ -*----------------------------------*\
| =========                 |                                                 |
| \\      /  F ield         | OpenFOAM: The Open Source CFD Toolbox           |
|  \\    /   O peration     | Version:  2.3.0                                 |
|   \\  /    A nd           | Web:      www.OpenFOAM.org                      |
|    \\/     M anipulation  |                                                 |
\*---------------------------------------------------------------------------*/
FoamFile
{
    version     2.0;
    format      ascii;
    class       volScalarField;
    location    "0.65";
    object      p;
}
// * * * * * * * * * * * * * * * * * * * * * * * * * * * * * * * * * * * * * //

dimensions      [0 2 -2 0 0 0 0];

internalField   nonuniform List<scalar> 
3375
(
0.00528124
0.00465803
0.00414441
0.00377164
0.00346193
0.00318177
0.00293061
0.00271305
0.00253059
0.00238214
0.0022651
0.00217565
0.00210915
0.00206062
0.00202532
0.0019991
0.0019786
0.0019613
0.00194542
0.00192982
0.00191379
0.00189699
0.00187927
0.00186062
0.00184112
0.00182085
0.00179991
0.00177842
0.00175645
0.00173407
0.00171135
0.00168833
0.00166506
0.00164157
0.00161787
0.00159401
0.00156999
0.00154584
0.00152156
0.00149717
0.00147269
0.00144812
0.00142348
0.00139877
0.001374
0.00134918
0.00132432
0.00129942
0.00127449
0.00124954
0.00122456
0.00119957
0.00117457
0.00114955
0.00112453
0.00109951
0.00107448
0.00104946
0.00102443
0.000999408
0.00097439
0.000949375
0.000924367
0.000899363
0.000874366
0.000849376
0.000824391
0.000799413
0.000774442
0.000749476
0.000724517
0.000699563
0.000674615
0.000649672
0.000624734
0.000599802
0.000574875
0.000549952
0.000525035
0.000500124
0.000475218
0.00045032
0.000425429
0.000400546
0.000375674
0.000350813
0.000325967
0.000301137
0.000276327
0.00025154
0.00022678
0.000202052
0.000177362
0.000152715
0.000128118
0.000103582
7.91176e-05
5.4749e-05
3.06017e-05
4.91244e-06
0.00498631
0.00454049
0.00411814
0.00377919
0.00348438
0.00321187
0.00296407
0.00274726
0.00256401
0.00241386
0.00229455
0.00220251
0.00213329
0.00208207
0.00204421
0.00201563
0.00199302
0.00197386
0.00195638
0.0019394
0.00192221
0.00190442
0.00188588
0.00186654
0.00184644
0.00182568
0.00180432
0.00178245
0.00176016
0.0017375
0.00171453
0.0016913
0.00166783
0.00164416
0.00162032
0.00159631
0.00157216
0.00154789
0.0015235
0.00149902
0.00147444
0.00144979
0.00142507
0.00140028
0.00137545
0.00135057
0.00132565
0.00130069
0.00127571
0.00125071
0.00122569
0.00120066
0.00117561
0.00115056
0.00112551
0.00110045
0.00107539
0.00105033
0.00102528
0.00100023
0.000975182
0.000950143
0.00092511
0.000900084
0.000875065
0.000850053
0.000825049
0.000800051
0.000775061
0.000750078
0.000725102
0.000700131
0.000675167
0.000650209
0.000625257
0.000600311
0.00057537
0.000550434
0.000525504
0.000500581
0.000475663
0.000450753
0.00042585
0.000400957
0.000376074
0.000351203
0.000326347
0.000301507
0.000276688
0.000251891
0.000227123
0.000202386
0.000177687
0.000153031
0.000128427
0.000103883
7.94123e-05
5.50413e-05
3.09795e-05
4.79086e-06
0.00477222
0.00443883
0.00408074
0.00376772
0.00348895
0.00323048
0.00299372
0.00278417
0.00260462
0.00245511
0.00233405
0.00223859
0.002165
0.0021091
0.00206671
0.00203407
0.002008
0.00198602
0.00196633
0.00194765
0.00192918
0.00191043
0.00189115
0.00187125
0.00185071
0.00182958
0.00180792
0.00178579
0.00176327
0.0017404
0.00171725
0.00169384
0.00167021
0.0016464
0.00162241
0.00159828
0.00157402
0.00154964
0.00152516
0.00150058
0.00147593
0.0014512
0.0014264
0.00140155
0.00137666
0.00135172
0.00132675
0.00130175
0.00127672
0.00125168
0.00122662
0.00120155
0.00117647
0.00115138
0.0011263
0.00110121
0.00107612
0.00105104
0.00102596
0.00100089
0.00097582
0.00095076
0.000925707
0.000900662
0.000875625
0.000850596
0.000825575
0.000800562
0.000775557
0.000750559
0.000725569
0.000700585
0.000675609
0.000650638
0.000625674
0.000600716
0.000575764
0.000550818
0.000525878
0.000500944
0.000476017
0.000451097
0.000426186
0.000401283
0.000376392
0.000351512
0.000326648
0.0003018
0.000276972
0.000252168
0.000227392
0.000202648
0.000177941
0.000153278
0.000128667
0.000104114
7.96326e-05
5.52463e-05
3.10689e-05
3.82243e-06
0.00458951
0.00432838
0.00402536
0.00374295
0.00348565
0.00324582
0.00302416
0.00282528
0.00265217
0.00250547
0.00238422
0.00228631
0.00220879
0.00214815
0.00210079
0.00206335
0.0020329
0.00200711
0.00198416
0.00196278
0.00194208
0.00192152
0.00190077
0.00187966
0.00185813
0.00183618
0.00181384
0.00179113
0.00176811
0.00174482
0.00172129
0.00169755
0.00167364
0.00164956
0.00162535
0.00160101
0.00157656
0.00155202
0.00152738
0.00150267
0.00147788
0.00145304
0.00142814
0.00140319
0.00137821
0.00135319
0.00132814
0.00130307
0.00127798
0.00125287
0.00122776
0.00120263
0.00117751
0.00115238
0.00112725
0.00110212
0.001077
0.00105188
0.00102677
0.00100166
0.000976565
0.000951477
0.000926398
0.000901329
0.000876268
0.000851217
0.000826175
0.000801142
0.000776118
0.000751102
0.000726094
0.000701094
0.000676101
0.000651116
0.000626137
0.000601165
0.0005762
0.000551241
0.000526288
0.000501342
0.000476404
0.000451473
0.00042655
0.000401638
0.000376736
0.000351846
0.000326972
0.000302115
0.000277278
0.000252465
0.000227679
0.000202926
0.00017821
0.000153538
0.000128917
0.000104351
7.98478e-05
5.54048e-05
3.08936e-05
2.26844e-06
0.00442713
0.00421756
0.00396385
0.00371395
0.00347934
0.00325822
0.00305185
0.0028643
0.00269867
0.00255601
0.00243587
0.00233672
0.00225623
0.00219155
0.00213963
0.00209753
0.00206265
0.00203283
0.00200635
0.00198195
0.00195872
0.00193605
0.00191354
0.00189098
0.00186825
0.00184528
0.00182206
0.0017986
0.00177493
0.00175106
0.00172703
0.00170284
0.00167851
0.00165407
0.00162953
0.00160489
0.00158017
0.00155537
0.00153051
0.00150559
0.00148062
0.0014556
0.00143054
0.00140545
0.00138033
0.00135519
0.00133003
0.00130486
0.00127967
0.00125448
0.00122928
0.00120408
0.00117888
0.00115369
0.0011285
0.00110331
0.00107814
0.00105297
0.00102781
0.00100266
0.000977524
0.000952398
0.000927282
0.000902178
0.000877086
0.000852004
0.000826933
0.000801873
0.000776822
0.000751782
0.000726751
0.000701729
0.000676715
0.000651709
0.000626711
0.000601721
0.000576738
0.000551762
0.000526794
0.000501832
0.000476879
0.000451934
0.000426997
0.000402071
0.000377156
0.000352255
0.000327368
0.000302499
0.00027765
0.000252825
0.000228028
0.000203264
0.000178537
0.000153853
0.000129217
0.000104632
8.00885e-05
5.55298e-05
3.05285e-05
6.08314e-07
0.00428709
0.00411452
0.00390137
0.00368157
0.00346874
0.00326546
0.003074
0.00289803
0.00274054
0.00260284
0.00248489
0.00238561
0.00230322
0.00223543
0.00217968
0.0021335
0.00209458
0.00206097
0.00203108
0.00200369
0.00197787
0.00195301
0.00192864
0.00190451
0.00188044
0.00185632
0.00183212
0.0018078
0.00178338
0.00175884
0.00173421
0.00170948
0.00168467
0.00165979
0.00163485
0.00160984
0.00158479
0.00155969
0.00153455
0.00150937
0.00148416
0.00145893
0.00143367
0.0014084
0.00138311
0.00135781
0.0013325
0.00130719
0.00128188
0.00125657
0.00123127
0.00120597
0.00118068
0.00115539
0.00113012
0.00110486
0.00107961
0.00105438
0.00102916
0.00100395
0.000978759
0.000953581
0.000928417
0.000903267
0.000878132
0.000853009
0.0008279
0.000802803
0.000777719
0.000752646
0.000727584
0.000702533
0.000677491
0.000652459
0.000627436
0.000602422
0.000577416
0.000552419
0.00052743
0.000502448
0.000477476
0.000452513
0.000427559
0.000402616
0.000377685
0.000352767
0.000327865
0.000302981
0.000278118
0.000253279
0.000228468
0.000203689
0.000178948
0.000154248
0.000129593
0.00010498
8.03795e-05
5.5661e-05
3.01499e-05
-5.67809e-07
0.00416606
0.00401985
0.00383882
0.00364585
0.00345378
0.00326769
0.00309075
0.00292635
0.00277731
0.00264513
0.00253008
0.00243152
0.0023481
0.00227802
0.00221921
0.00216956
0.00212709
0.00209005
0.00205698
0.00202673
0.00199841
0.00197136
0.00194513
0.00191939
0.00189393
0.00186862
0.00184337
0.00181815
0.00179292
0.00176767
0.00174239
0.00171709
0.00169176
0.0016664
0.00164102
0.00161562
0.0015902
0.00156476
0.00153931
0.00151385
0.00148837
0.0014629
0.00143741
0.00141193
0.00138645
0.00136097
0.00133549
0.00131003
0.00128457
0.00125913
0.0012337
0.00120828
0.00118288
0.00115749
0.00113212
0.00110677
0.00108144
0.00105612
0.00103083
0.00100555
0.000980291
0.000955051
0.000929828
0.000904622
0.000879434
0.000854262
0.000829106
0.000803964
0.000778838
0.000753725
0.000728625
0.000703537
0.000678462
0.000653397
0.000628344
0.0006033
0.000578266
0.000553242
0.000528227
0.000503222
0.000478226
0.00045324
0.000428265
0.000403301
0.00037835
0.000353414
0.000328493
0.000303591
0.00027871
0.000253854
0.000229026
0.00020423
0.000179471
0.000154752
0.000130075
0.000105427
8.07592e-05
5.58779e-05
2.99892e-05
-7.53933e-07
0.00406041
0.00393349
0.00377782
0.0036083
0.00343564
0.00326587
0.00310278
0.00294963
0.00280907
0.00268269
0.00257105
0.00247385
0.00239013
0.00231851
0.00225732
0.0022048
0.00215927
0.00211918
0.00208322
0.00205032
0.00201961
0.00199047
0.0019624
0.00193506
0.00190821
0.00188169
0.00185539
0.00182923
0.00180317
0.00177718
0.00175124
0.00172533
0.00169945
0.0016736
0.00164776
0.00162194
0.00159614
0.00157035
0.00154457
0.0015188
0.00149305
0.00146731
0.00144159
0.00141588
0.00139019
0.00136452
0.00133887
0.00131323
0.00128762
0.00126203
0.00123646
0.00121092
0.0011854
0.0011599
0.00113442
0.00110897
0.00108355
0.00105814
0.00103277
0.00100741
0.000982078
0.000956768
0.00093148
0.000906212
0.000880965
0.000855737
0.000830528
0.000805337
0.000780162
0.000755004
0.000729862
0.000704733
0.000679619
0.000654518
0.000629429
0.000604352
0.000579286
0.000554231
0.000529187
0.000504154
0.000479132
0.00045412
0.000429121
0.000404134
0.00037916
0.000354202
0.00032926
0.000304337
0.000279436
0.00025456
0.000229713
0.000204898
0.000180119
0.000155379
0.000130675
0.000105991
8.12604e-05
5.62598e-05
3.02289e-05
2.64376e-07
0.0039674
0.00385512
0.00371956
0.00357017
0.00341518
0.00326063
0.00311059
0.00296823
0.00283603
0.00271565
0.00260781
0.0025125
0.00242911
0.00235659
0.00229365
0.00223883
0.0021907
0.00214795
0.0021094
0.00207406
0.00204113
0.00200998
0.00198013
0.00195123
0.001923
0.00189527
0.0018679
0.00184079
0.00181389
0.00178714
0.00176051
0.00173399
0.00170755
0.00168119
0.00165488
0.00162863
0.00160243
0.00157627
0.00155015
0.00152408
0.00149803
0.00147203
0.00144606
0.00142012
0.00139421
0.00136834
0.0013425
0.00131669
0.00129092
0.00126517
0.00123946
0.00121378
0.00118814
0.00116252
0.00113694
0.00111138
0.00108586
0.00106036
0.0010349
0.00100946
0.000984053
0.00095867
0.000933312
0.000907979
0.00088267
0.000857383
0.000832118
0.000806874
0.000781649
0.000756443
0.000731255
0.000706084
0.000680928
0.000655787
0.000630661
0.000605548
0.000580448
0.000555361
0.000530286
0.000505223
0.000480173
0.000455134
0.000430108
0.000405096
0.000380098
0.000355117
0.000330152
0.000305208
0.000280285
0.000255388
0.00023052
0.000205684
0.000180883
0.00015612
0.000131391
0.000106674
8.18983e-05
5.68526e-05
3.09343e-05
2.34196e-06
0.00388493
0.00378412
0.00366465
0.0035323
0.00339313
0.00325259
0.00311474
0.00298263
0.0028586
0.00274428
0.00264052
0.00254755
0.00246501
0.00239217
0.00232802
0.00227142
0.00222116
0.00217613
0.00213528
0.00209773
0.00206273
0.0020297
0.00199815
0.00196772
0.00193814
0.00190921
0.00188076
0.0018527
0.00182494
0.00179743
0.00177011
0.00174295
0.00171594
0.00168905
0.00166226
0.00163557
0.00160896
0.00158242
0.00155596
0.00152956
0.00150322
0.00147694
0.00145071
0.00142454
0.00139841
0.00137233
0.0013463
0.00132031
0.00129437
0.00126847
0.00124261
0.0012168
0.00119102
0.00116529
0.00113959
0.00111393
0.0010883
0.00106272
0.00103716
0.00101164
0.000986152
0.000960694
0.000935265
0.000909865
0.000884493
0.000859146
0.000833824
0.000808525
0.000783249
0.000757994
0.000732759
0.000707543
0.000682345
0.000657164
0.000632
0.00060685
0.000581716
0.000556595
0.000531488
0.000506395
0.000481315
0.000456249
0.000431196
0.000406158
0.000381136
0.00035613
0.000331143
0.000306175
0.000281231
0.000256312
0.000231422
0.000206564
0.000181742
0.000156956
0.000132203
0.000107461
8.26663e-05
5.76538e-05
3.20451e-05
5.06868e-06
0.00381132
0.00371979
0.00361332
0.00349534
0.00337013
0.00324235
0.00311579
0.00299335
0.00287719
0.0027689
0.00266941
0.00257911
0.00249786
0.00242519
0.00236036
0.00230244
0.00225049
0.00220353
0.00216068
0.00212116
0.00208428
0.00204948
0.00201632
0.00198443
0.00195353
0.00192341
0.00189391
0.00186489
0.00183627
0.00180797
0.00177995
0.00175215
0.00172455
0.00169712
0.00166984
0.0016427
0.00161567
0.00158875
0.00156194
0.00153521
0.00150856
0.001482
0.00145551
0.00142909
0.00140274
0.00137645
0.00135022
0.00132405
0.00129793
0.00127187
0.00124586
0.00121991
0.001194
0.00116814
0.00114233
0.00111656
0.00109083
0.00106515
0.00103951
0.0010139
0.000988329
0.000962795
0.000937295
0.000911827
0.000886389
0.000860981
0.000835602
0.000810248
0.00078492
0.000759615
0.000734333
0.000709073
0.000683832
0.000658611
0.000633407
0.000608221
0.000583051
0.000557897
0.000532759
0.000507635
0.000482526
0.000457432
0.000432352
0.000407289
0.000382241
0.000357211
0.000332201
0.00030721
0.000282244
0.000257303
0.000232391
0.000207512
0.000182668
0.00015786
0.000133086
0.000108328
8.35399e-05
5.86204e-05
3.34186e-05
7.9582e-06
0.00374527
0.00366141
0.0035656
0.00345974
0.00334675
0.00323045
0.00311427
0.00300085
0.0028922
0.00278983
0.00269471
0.00260733
0.00252774
0.00245567
0.00239059
0.00233181
0.00227855
0.00223002
0.00218547
0.00214421
0.00210563
0.00206922
0.00203454
0.00200126
0.00196909
0.00193781
0.00190726
0.00187729
0.00184781
0.00181873
0.00178999
0.00176155
0.00173335
0.00170538
0.0016776
0.00164999
0.00162254
0.00159523
0.00156804
0.00154098
0.00151402
0.00148717
0.00146041
0.00143374
0.00140715
0.00138065
0.00135422
0.00132786
0.00130157
0.00127534
0.00124918
0.00122309
0.00119704
0.00117106
0.00114513
0.00111925
0.00109342
0.00106764
0.0010419
0.00101621
0.000990555
0.000964944
0.000939371
0.000913834
0.000888331
0.000862862
0.000837423
0.000812014
0.000786634
0.000761279
0.00073595
0.000710644
0.000685361
0.000660099
0.000634857
0.000609634
0.000584429
0.000559241
0.000534071
0.000508916
0.000483778
0.000458656
0.00043355
0.00040846
0.000383388
0.000358334
0.0003333
0.000308287
0.000283298
0.000258335
0.000233401
0.0002085
0.000183635
0.000158807
0.000134015
0.000109249
8.44855e-05
5.96889e-05
3.48933e-05
1.06157e-05
0.00368575
0.00360835
0.0035214
0.00342578
0.00332342
0.00321738
0.00311063
0.00300557
0.00290403
0.00280741
0.00271668
0.00263239
0.00255475
0.00248364
0.0024187
0.00235944
0.00230524
0.00225548
0.00220951
0.00216675
0.00212667
0.00208878
0.00205271
0.00201812
0.00198473
0.00195234
0.00192076
0.00188986
0.00185952
0.00182966
0.00180021
0.00177111
0.00174231
0.00171379
0.0016855
0.00165742
0.00162953
0.00160182
0.00157427
0.00154686
0.00151958
0.00149243
0.0014654
0.00143847
0.00141165
0.00138492
0.00135828
0.00133173
0.00130526
0.00127887
0.00125256
0.00122631
0.00120013
0.00117402
0.00114797
0.00112198
0.00109604
0.00107016
0.00104433
0.00101855
0.000992812
0.000967123
0.000941476
0.000915869
0.000890301
0.000864769
0.000839271
0.000813806
0.000788372
0.000762968
0.000737591
0.00071224
0.000686913
0.00066161
0.000636329
0.000611069
0.000585829
0.000560608
0.000535405
0.000510221
0.000485053
0.000459903
0.00043477
0.000409655
0.000384558
0.00035948
0.000334422
0.000309386
0.000284375
0.000259389
0.000234433
0.00020951
0.000184623
0.000159775
0.000134968
0.0001102
8.5469e-05
6.07957e-05
3.6335e-05
1.28186e-05
0.00363191
0.00356006
0.00348054
0.00339362
0.00330047
0.00320353
0.00310532
0.00300795
0.00291307
0.00282196
0.00273557
0.00265449
0.00257901
0.00250914
0.00244468
0.00238529
0.0023305
0.00227981
0.0022327
0.00218868
0.00214727
0.00210808
0.00207073
0.00203492
0.00200039
0.00196692
0.00193436
0.00190254
0.00187136
0.00184073
0.00181056
0.00178081
0.00175141
0.00172232
0.00169352
0.00166497
0.00163664
0.00160852
0.00158059
0.00155283
0.00152523
0.00149778
0.00147046
0.00144327
0.00141621
0.00138925
0.00136241
0.00133566
0.00130901
0.00128245
0.00125597
0.00122957
0.00120326
0.00117701
0.00115084
0.00112473
0.00109869
0.0010727
0.00104678
0.00102091
0.00099509
0.000969321
0.000943599
0.000917921
0.000892286
0.000866691
0.000841134
0.000815613
0.000790125
0.00076467
0.000739245
0.000713848
0.000688478
0.000663134
0.000637814
0.000612517
0.000587241
0.000561986
0.000536752
0.000511536
0.000486339
0.000461161
0.000436001
0.00041086
0.000385738
0.000360635
0.000335554
0.000310495
0.00028546
0.000260452
0.000235474
0.000210528
0.00018562
0.000160752
0.00013593
0.000111161
8.64607e-05
6.18886e-05
3.76577e-05
1.45102e-05
0.00358309
0.00351603
0.00344283
0.00336332
0.00327816
0.00318925
0.00309872
0.00300838
0.00291969
0.00283381
0.00275165
0.00267382
0.00260064
0.00253225
0.00246855
0.00240933
0.00235424
0.00230292
0.00225493
0.00220987
0.00216734
0.00212699
0.00208849
0.00205156
0.00201596
0.00198149
0.00194797
0.00191527
0.00188327
0.00185188
0.00182101
0.0017906
0.0017606
0.00173096
0.00170163
0.0016726
0.00164383
0.0016153
0.00158699
0.00155887
0.00153094
0.00150318
0.00147558
0.00144813
0.00142082
0.00139363
0.00136657
0.00133962
0.00131279
0.00128605
0.00125941
0.00123286
0.0012064
0.00118003
0.00115373
0.00112751
0.00110135
0.00107527
0.00104925
0.00102328
0.00099738
0.00097153
0.000945732
0.000919983
0.00089428
0.000868622
0.000843004
0.000817426
0.000791884
0.000766378
0.000740904
0.000715461
0.000690048
0.000664663
0.000639303
0.000613968
0.000588657
0.000563369
0.000538101
0.000512855
0.000487629
0.000462422
0.000437235
0.000412068
0.00038692
0.000361793
0.000336688
0.000311605
0.000286547
0.000261516
0.000236514
0.000211546
0.000186615
0.000161727
0.000136889
0.000112116
8.74372e-05
6.29317e-05
3.88211e-05
1.57438e-05
0.00353872
0.00347585
0.00340806
0.0033349
0.00325667
0.00317483
0.00309116
0.00300719
0.00292422
0.00284328
0.0027652
0.00269059
0.00261982
0.00255308
0.00249036
0.00243156
0.00237645
0.00232474
0.00227611
0.00223023
0.00218677
0.00214542
0.0021059
0.00206796
0.00203137
0.00199595
0.00196154
0.00192799
0.0018952
0.00186307
0.00183151
0.00180045
0.00176985
0.00173965
0.00170982
0.0016803
0.00165109
0.00162214
0.00159344
0.00156497
0.0015367
0.00150863
0.00148075
0.00145302
0.00142546
0.00139804
0.00137076
0.00134361
0.00131659
0.00128968
0.00126287
0.00123617
0.00120957
0.00118306
0.00115663
0.00113029
0.00110403
0.00107784
0.00105172
0.00102566
0.000999673
0.000973743
0.000947868
0.000922047
0.000896276
0.000870553
0.000844875
0.000819239
0.000793643
0.000768085
0.000742563
0.000717074
0.000691617
0.000666189
0.00064079
0.000615418
0.000590071
0.000564748
0.000539449
0.000514171
0.000488915
0.00046368
0.000438466
0.000413272
0.000388099
0.000362947
0.000337818
0.000312711
0.000287629
0.000262574
0.000237548
0.000212556
0.000187601
0.000162691
0.000137835
0.000113053
8.8381e-05
6.39031e-05
3.98182e-05
1.66198e-05
0.00349835
0.00343916
0.00337603
0.00330835
0.00323613
0.0031605
0.00308292
0.00300472
0.002927
0.00285067
0.00277648
0.00270503
0.0026367
0.00257172
0.00251017
0.002452
0.00239709
0.00234523
0.00229618
0.00224968
0.00220546
0.00216327
0.00212286
0.00208401
0.00204653
0.00201024
0.00197498
0.00194063
0.00190708
0.00187423
0.00184199
0.00181031
0.00177912
0.00174837
0.00171802
0.00168803
0.00165837
0.00162901
0.00159992
0.00157109
0.00154249
0.00151411
0.00148593
0.00145794
0.00143012
0.00140247
0.00137497
0.00134762
0.0013204
0.00129331
0.00126634
0.00123948
0.00121273
0.00118609
0.00115954
0.00113307
0.0011067
0.0010804
0.00105419
0.00102804
0.00100196
0.000975951
0.00095
0.000924106
0.000898267
0.000872479
0.00084674
0.000821046
0.000795396
0.000769786
0.000744215
0.00071868
0.000693178
0.000667709
0.000642271
0.000616861
0.000591478
0.000566121
0.000540789
0.00051548
0.000490195
0.000464931
0.000439689
0.000414469
0.00038927
0.000364093
0.000338939
0.000313807
0.000288701
0.000263621
0.000238571
0.000213553
0.000188574
0.000163639
0.000138762
0.000113963
8.92806e-05
6.47933e-05
4.0662e-05
1.72407e-05
0.00346159
0.00340565
0.00334658
0.00328363
0.00321662
0.00314643
0.00307427
0.00300125
0.00292831
0.00285625
0.00278575
0.00271736
0.00265146
0.00258831
0.00252805
0.00247069
0.00241616
0.00236435
0.00231508
0.00226814
0.00222334
0.00218046
0.00213929
0.00209965
0.00206136
0.00202427
0.00198823
0.00195313
0.00191885
0.00188531
0.00185243
0.00182014
0.00178837
0.00175708
0.00172622
0.00169576
0.00166566
0.00163588
0.00160641
0.00157722
0.00154828
0.00151959
0.00149112
0.00146285
0.00143478
0.00140689
0.00137918
0.00135162
0.00132421
0.00129694
0.0012698
0.00124279
0.00121589
0.00118911
0.00116243
0.00113585
0.00110936
0.00108296
0.00105664
0.0010304
0.00100424
0.000978146
0.000952117
0.000926151
0.000900243
0.00087439
0.00084859
0.000822839
0.000797134
0.000771473
0.000745852
0.000720271
0.000694726
0.000669215
0.000643737
0.000618289
0.000592871
0.00056748
0.000542115
0.000516776
0.00049146
0.000466168
0.000440899
0.000415652
0.000390427
0.000365225
0.000340045
0.000314889
0.000289757
0.000264652
0.000239576
0.000214532
0.000189526
0.000164565
0.000139661
0.000114836
9.01268e-05
6.55986e-05
4.1372e-05
1.76872e-05
0.00342812
0.00337507
0.00331952
0.00326067
0.0031982
0.00313278
0.00306542
0.00299703
0.00292843
0.00286029
0.00279324
0.00272776
0.00266425
0.00260297
0.00254408
0.00248764
0.00243366
0.00238206
0.00233273
0.00228553
0.0022403
0.00219687
0.00215507
0.00211475
0.00207575
0.00203794
0.00200118
0.00196538
0.00193043
0.00189624
0.00186274
0.00182985
0.00179753
0.00176571
0.00173436
0.00170343
0.0016729
0.00164271
0.00161286
0.00158331
0.00155404
0.00152504
0.00149628
0.00146774
0.00143942
0.00141129
0.00138336
0.00135559
0.00132799
0.00130054
0.00127324
0.00124607
0.00121903
0.00119211
0.0011653
0.0011386
0.001112
0.00108549
0.00105908
0.00103275
0.0010065
0.00098032
0.000954214
0.000928175
0.000902199
0.000876282
0.000850421
0.000824613
0.000798854
0.000773141
0.000747472
0.000721845
0.000696256
0.000670704
0.000645186
0.000619701
0.000594247
0.000568822
0.000543425
0.000518055
0.00049271
0.000467389
0.000442092
0.000416819
0.000391568
0.00036634
0.000341135
0.000315953
0.000290796
0.000265665
0.000240562
0.000215491
0.000190456
0.000165465
0.000140529
0.00011567
9.09177e-05
6.63241e-05
4.19727e-05
1.80175e-05
0.00339768
0.00334719
0.00329473
0.00323944
0.00318092
0.00311968
0.00305655
0.0029923
0.00292761
0.00286307
0.00279923
0.00273652
0.00267532
0.00261589
0.00255842
0.002503
0.00244968
0.00239844
0.0023492
0.00230188
0.00225635
0.0022125
0.00217019
0.00212928
0.00208966
0.00205121
0.00201381
0.00197736
0.00194177
0.00190697
0.00187287
0.00183943
0.00180656
0.00177424
0.00174241
0.00171102
0.00168006
0.00164947
0.00161925
0.00158934
0.00155975
0.00153043
0.00150138
0.00147258
0.00144401
0.00141565
0.00138749
0.00135952
0.00133173
0.0013041
0.00127663
0.0012493
0.00122212
0.00119506
0.00116813
0.00114131
0.0011146
0.00108799
0.00106147
0.00103505
0.00100871
0.000982454
0.000956272
0.000930162
0.000904118
0.000878137
0.000852216
0.000826351
0.000800538
0.000774774
0.000749057
0.000723384
0.000697753
0.00067216
0.000646603
0.000621081
0.000595592
0.000570134
0.000544705
0.000519304
0.00049393
0.000468581
0.000443257
0.000417956
0.00039268
0.000367426
0.000342196
0.000316989
0.000291806
0.000266649
0.000241518
0.000216418
0.000191352
0.000166327
0.000141355
0.000116452
9.16447e-05
6.69686e-05
4.24788e-05
1.82592e-05
0.00336486
0.00331707
0.00326781
0.0032162
0.00316175
0.00310483
0.0030461
0.0029862
0.00292567
0.002865
0.00280465
0.00274501
0.00268643
0.00262915
0.00257339
0.00251926
0.00246683
0.00241614
0.00236716
0.00231985
0.00227414
0.00222993
0.00218715
0.00214569
0.00210544
0.00206632
0.00202824
0.0019911
0.00195483
0.00191935
0.0018846
0.00185052
0.00181705
0.00178415
0.00175177
0.00171987
0.00168841
0.00165737
0.0016267
0.00159639
0.00156641
0.00153674
0.00150736
0.00147824
0.00144937
0.00142074
0.00139233
0.00136412
0.0013361
0.00130826
0.0012806
0.00125309
0.00122574
0.00119852
0.00117144
0.00114448
0.00111764
0.0010909
0.00106427
0.00103774
0.00101131
0.000984953
0.000958681
0.000932486
0.000906363
0.000880308
0.000854316
0.000828384
0.000802509
0.000776686
0.000750913
0.000725186
0.000699504
0.000673863
0.000648262
0.000622696
0.000597166
0.000571669
0.000546202
0.000520765
0.000495356
0.000469974
0.000444618
0.000419286
0.000393979
0.000368695
0.000343434
0.000318197
0.000292983
0.000267793
0.000242628
0.000217492
0.000192386
0.000167318
0.000142296
0.000117332
9.24458e-05
6.76579e-05
4.29995e-05
1.84758e-05
0.00333102
0.00328593
0.00323981
0.00319178
0.00314129
0.00308859
0.00303421
0.00297864
0.00292229
0.00286558
0.00280887
0.00275249
0.00269675
0.00264188
0.00258809
0.00253551
0.00248425
0.00243436
0.00238587
0.00233877
0.00229304
0.00224863
0.00220549
0.00216354
0.00212273
0.00208298
0.00204421
0.00200638
0.00196939
0.00193321
0.00189776
0.001863
0.00182888
0.00179534
0.00176235
0.00172987
0.00169787
0.0016663
0.00163515
0.00160438
0.00157397
0.00154389
0.00151412
0.00148464
0.00145544
0.00142649
0.00139778
0.0013693
0.00134103
0.00131295
0.00128506
0.00125735
0.00122979
0.0012024
0.00117514
0.00114802
0.00112103
0.00109416
0.0010674
0.00104075
0.00101419
0.00098773
0.000961357
0.000935066
0.000908853
0.000882713
0.000856641
0.000830634
0.000804687
0.000778797
0.000752961
0.000727174
0.000701435
0.000675741
0.000650088
0.000624474
0.000598897
0.000573356
0.000547847
0.00052237
0.000496922
0.000471503
0.00044611
0.000420743
0.000395401
0.000370083
0.000344787
0.000319515
0.000294264
0.000269036
0.000243831
0.00021865
0.000193494
0.000168369
0.000143279
0.000118233
9.32403e-05
6.83094e-05
4.34555e-05
1.86501e-05
0.00330038
0.0032577
0.00321434
0.00316944
0.0031224
0.00307338
0.0030228
0.00297104
0.00291843
0.00286529
0.0028119
0.00275856
0.00270551
0.00265298
0.00260116
0.00255018
0.00250017
0.00245121
0.00240334
0.00235661
0.00231102
0.00226655
0.00222319
0.0021809
0.00213964
0.00209936
0.00206002
0.00202156
0.00198394
0.0019471
0.001911
0.0018756
0.00184084
0.00180669
0.00177311
0.00174007
0.00170752
0.00167544
0.0016438
0.00161257
0.00158172
0.00155123
0.00152108
0.00149124
0.0014617
0.00143243
0.00140343
0.00137466
0.00134613
0.00131781
0.00128969
0.00126176
0.00123401
0.00120643
0.001179
0.00115171
0.00112457
0.00109755
0.00107066
0.00104388
0.0010172
0.000990632
0.000964154
0.000937765
0.000911459
0.000885232
0.000859077
0.000832992
0.000806972
0.000781012
0.00075511
0.000729261
0.000703463
0.000677712
0.000652006
0.000626342
0.000600717
0.000575129
0.000549576
0.000524057
0.000498568
0.000473109
0.000447678
0.000422274
0.000396895
0.000371539
0.000346207
0.000320896
0.000295605
0.000270335
0.000245084
0.000219852
0.000194639
0.000169446
0.000144276
0.000119131
9.40152e-05
6.89286e-05
4.38808e-05
1.8828e-05
0.00327343
0.0032328
0.00319177
0.00314948
0.00310531
0.00305936
0.00301196
0.00296342
0.002914
0.00286392
0.00281343
0.00276277
0.00271215
0.00266176
0.00261177
0.00256234
0.00251358
0.00246559
0.00241844
0.00237218
0.00232685
0.00228246
0.00223903
0.00219653
0.00215495
0.00211428
0.00207447
0.0020355
0.00199734
0.00195994
0.00192327
0.00188729
0.00185196
0.00181726
0.00178314
0.00174957
0.00171652
0.00168396
0.00165187
0.0016202
0.00158894
0.00155806
0.00152754
0.00149736
0.0014675
0.00143793
0.00140864
0.00137961
0.00135083
0.00132228
0.00129394
0.00126581
0.00123787
0.0012101
0.00118251
0.00115507
0.00112778
0.00110063
0.00107361
0.00104671
0.00101992
0.000993247
0.000966671
0.00094019
0.000913797
0.000887488
0.000861257
0.0008351
0.000809011
0.000782987
0.000757024
0.000731119
0.000705266
0.000679464
0.000653709
0.000627998
0.000602329
0.000576699
0.000551107
0.000525548
0.000500023
0.000474528
0.000449062
0.000423623
0.00039821
0.00037282
0.000347452
0.000322105
0.000296777
0.000271465
0.000246168
0.000220884
0.000195611
0.000170347
0.000145089
0.000119836
9.45867e-05
6.93401e-05
4.41117e-05
1.88759e-05
0.00325137
0.00321245
0.00317331
0.00313312
0.00309126
0.00304777
0.00300294
0.002957
0.00291017
0.00286261
0.00281453
0.00276612
0.00271756
0.00266903
0.00262067
0.00257264
0.00252504
0.00247798
0.00243154
0.0023858
0.0023408
0.00229659
0.00225318
0.00221058
0.00216881
0.00212785
0.0020877
0.00204833
0.00200973
0.00197186
0.00193471
0.00189824
0.00186242
0.00182723
0.00179263
0.0017586
0.0017251
0.00169211
0.00165959
0.00162753
0.0015959
0.00156466
0.00153381
0.0015033
0.00147314
0.00144329
0.00141373
0.00138446
0.00135544
0.00132667
0.00129813
0.00126981
0.00124169
0.00121375
0.001186
0.00115841
0.00113099
0.0011037
0.00107656
0.00104955
0.00102265
0.000995877
0.000969205
0.000942634
0.000916158
0.000889769
0.000863463
0.000837235
0.00081108
0.000784993
0.00075897
0.000733008
0.000707101
0.000681248
0.000655444
0.000629687
0.000603974
0.000578302
0.000552669
0.000527072
0.000501508
0.000475977
0.000450475
0.000425001
0.000399552
0.000374128
0.000348724
0.000323339
0.000297971
0.000272616
0.000247271
0.000221932
0.000196594
0.000171251
0.000145897
0.000120525
9.51276e-05
6.97032e-05
4.42769e-05
1.88502e-05
0.00323469
0.00319699
0.00315922
0.00312054
0.00308032
0.0030386
0.00299561
0.00295155
0.00290659
0.00286087
0.00281456
0.00276782
0.00272081
0.00267368
0.00262657
0.00257962
0.00253294
0.00248664
0.00244081
0.00239552
0.00235084
0.00230681
0.00226348
0.00222087
0.00217899
0.00213787
0.00209748
0.00205784
0.00201893
0.00198073
0.00194323
0.0019064
0.00187022
0.00183467
0.00179971
0.00176532
0.00173148
0.00169816
0.00166533
0.00163296
0.00160104
0.00156953
0.00153841
0.00150767
0.00147727
0.0014472
0.00141745
0.00138798
0.00135878
0.00132985
0.00130115
0.00127268
0.00124442
0.00121636
0.00118849
0.00116079
0.00113325
0.00110588
0.00107864
0.00105154
0.00102457
0.000997715
0.000970973
0.000944336
0.000917797
0.00089135
0.000864989
0.000838709
0.000812505
0.000786373
0.000760307
0.000734303
0.000708358
0.000682468
0.00065663
0.00063084
0.000605095
0.000579393
0.000553731
0.000528106
0.000502516
0.000476959