/*--------------------------------*- C++ -*----------------------------------*\
| =========                 |                                                 |
| \\      /  F ield         | OpenFOAM: The Open Source CFD Toolbox           |
|  \\    /   O peration     | Version:  2.3.0                                 |
|   \\  /    A nd           | Web:      www.OpenFOAM.org                      |
|    \\/     M anipulation  |                                                 |
\*---------------------------------------------------------------------------*/
FoamFile
{
    version     2.0;
    format      ascii;
    class       volVectorField;
    location    "0.65";
    object      U_0;
}
// * * * * * * * * * * * * * * * * * * * * * * * * * * * * * * * * * * * * * //

dimensions      [0 1 -1 0 0 0 0];

internalField   nonuniform List<vector> 
1500
(
(0.170766 0.0060515 0)
(0.154005 0.00612538 0)
(0.137878 0.0057033 0)
(0.122589 0.00509463 0)
(0.108558 0.00441774 0)
(0.0959656 0.00372761 0)
(0.084832 0.00306308 0)
(0.0751288 0.00245161 0)
(0.0668016 0.00191046 0)
(0.0597634 0.00144881 0)
(0.0538951 0.00106916 0)
(0.0490556 0.000768218 0)
(0.0450948 0.000538227 0)
(0.0418644 0.000368734 0)
(0.0392261 0.000248339 0)
(0.0370573 0.000166056 0)
(0.0352543 0.000112142 0)
(0.033733 7.84816e-05 0)
(0.0324271 5.86435e-05 0)
(0.0312861 4.77665e-05 0)
(0.0302729 4.23439e-05 0)
(0.0293602 3.99731e-05 0)
(0.0285285 3.91024e-05 0)
(0.0277639 3.87992e-05 0)
(0.0270563 3.85545e-05 0)
(0.0263983 3.81314e-05 0)
(0.0257841 3.74547e-05 0)
(0.0252092 3.65352e-05 0)
(0.02467 3.5423e-05 0)
(0.024163 3.41792e-05 0)
(0.0236856 3.28614e-05 0)
(0.023235 3.15174e-05 0)
(0.022809 3.01835e-05 0)
(0.0224054 2.88848e-05 0)
(0.0220223 2.76378e-05 0)
(0.021658 2.64519e-05 0)
(0.0213109 2.53311e-05 0)
(0.0209795 2.42763e-05 0)
(0.0206627 2.32858e-05 0)
(0.0203592 2.23566e-05 0)
(0.020068 2.1485e-05 0)
(0.0197882 2.06666e-05 0)
(0.019519 1.98974e-05 0)
(0.0192596 1.91733e-05 0)
(0.0190094 1.84905e-05 0)
(0.0187677 1.78453e-05 0)
(0.0185341 1.72345e-05 0)
(0.0183081 1.66553e-05 0)
(0.0180891 1.61049e-05 0)
(0.0178769 1.5581e-05 0)
(0.017671 1.50814e-05 0)
(0.0174711 1.46042e-05 0)
(0.0172769 1.41477e-05 0)
(0.0170882 1.37103e-05 0)
(0.0169047 1.32906e-05 0)
(0.0167261 1.28873e-05 0)
(0.0165523 1.24994e-05 0)
(0.016383 1.21256e-05 0)
(0.0162181 1.17651e-05 0)
(0.0160574 1.1417e-05 0)
(0.0159008 1.10804e-05 0)
(0.0157481 1.07546e-05 0)
(0.0155992 1.04389e-05 0)
(0.015454 1.01327e-05 0)
(0.0153124 9.83528e-06 0)
(0.0151742 9.5462e-06 0)
(0.0150395 9.26492e-06 0)
(0.014908 8.99095e-06 0)
(0.0147798 8.72385e-06 0)
(0.0146547 8.46322e-06 0)
(0.0145327 8.20868e-06 0)
(0.0144138 7.9599e-06 0)
(0.0142979 7.71658e-06 0)
(0.0141849 7.47843e-06 0)
(0.0140749 7.24523e-06 0)
(0.0139677 7.01677e-06 0)
(0.0138634 6.7929e-06 0)
(0.0137619 6.57349e-06 0)
(0.0136632 6.35847e-06 0)
(0.0135673 6.14781e-06 0)
(0.0134741 5.94156e-06 0)
(0.0133837 5.73979e-06 0)
(0.0132959 5.54268e-06 0)
(0.0132108 5.35047e-06 0)
(0.0131284 5.16352e-06 0)
(0.0130486 4.98228e-06 0)
(0.0129714 4.80729e-06 0)
(0.0128968 4.63932e-06 0)
(0.0128246 4.47925e-06 0)
(0.0127549 4.32815e-06 0)
(0.0126875 4.18759e-06 0)
(0.0126223 4.05937e-06 0)
(0.0125592 3.94612e-06 0)
(0.0124981 3.85181e-06 0)
(0.0124387 3.78286e-06 0)
(0.0123807 3.7522e-06 0)
(0.0123235 3.79094e-06 0)
(0.0122661 3.90678e-06 0)
(0.012213 4.25486e-06 0)
(0.0120642 2.08042e-05 0)
(0.189995 0.00961356 0)
(0.187731 0.0101611 0)
(0.183892 0.00996894 0)
(0.178811 0.00949015 0)
(0.172971 0.00886318 0)
(0.16671 0.00813562 0)
(0.160248 0.00734732 0)
(0.15375 0.00653552 0)
(0.147351 0.00573209 0)
(0.141154 0.00496366 0)
(0.13523 0.00425148 0)
(0.129623 0.0036105 0)
(0.124354 0.00304898 0)
(0.119433 0.00256885 0)
(0.114853 0.00216684 0)
(0.110604 0.00183594 0)
(0.106667 0.00156697 0)
(0.103024 0.00134996 0)
(0.0996529 0.00117521 0)
(0.0965313 0.00103401 0)
(0.0936384 0.000918972 0)
(0.090954 0.000824131 0)
(0.0884594 0.000744829 0)
(0.0861373 0.000677546 0)
(0.0839719 0.000619668 0)
(0.0819489 0.00056928 0)
(0.0800553 0.000524982 0)
(0.0782793 0.00048574 0)
(0.0766106 0.000450777 0)
(0.0750395 0.000419492 0)
(0.0735575 0.000391407 0)
(0.0721569 0.000366127 0)
(0.0708307 0.00034332 0)
(0.0695727 0.000322699 0)
(0.0683771 0.000304011 0)
(0.067239 0.000287035 0)
(0.0661537 0.000271577 0)
(0.065117 0.000257462 0)
(0.0641253 0.000244538 0)
(0.0631751 0.000232671 0)
(0.0622634 0.000221743 0)
(0.0613875 0.00021165 0)
(0.060545 0.000202301 0)
(0.0597334 0.000193617 0)
(0.0589509 0.000185529 0)
(0.0581955 0.000177977 0)
(0.0574656 0.000170907 0)
(0.0567597 0.000164272 0)
(0.0560763 0.000158032 0)
(0.0554142 0.000152151 0)
(0.0547722 0.000146596 0)
(0.0541493 0.00014134 0)
(0.0535445 0.000136358 0)
(0.0529569 0.000131626 0)
(0.0523856 0.000127124 0)
(0.05183 0.000122834 0)
(0.0512893 0.00011874 0)
(0.050763 0.000114826 0)
(0.0502503 0.000111079 0)
(0.0497508 0.000107487 0)
(0.049264 0.000104037 0)
(0.0487895 0.00010072 0)
(0.0483267 9.75258e-05 0)
(0.0478755 9.44455e-05 0)
(0.0474353 9.14709e-05 0)
(0.0470058 8.85945e-05 0)
(0.0465869 8.58092e-05 0)
(0.0461782 8.31085e-05 0)
(0.0457794 8.04863e-05 0)
(0.0453905 7.79372e-05 0)
(0.0450111 7.5456e-05 0)
(0.0446411 7.30378e-05 0)
(0.0442803 7.06785e-05 0)
(0.0439287 6.83739e-05 0)
(0.0435861 6.61205e-05 0)
(0.0432523 6.39151e-05 0)
(0.0429274 6.17549e-05 0)
(0.0426111 5.96373e-05 0)
(0.0423036 5.75604e-05 0)
(0.0420046 5.55225e-05 0)
(0.0417142 5.35225e-05 0)
(0.0414322 5.15598e-05 0)
(0.0411588 4.96342e-05 0)
(0.0408938 4.77464e-05 0)
(0.0406371 4.58976e-05 0)
(0.0403888 4.40897e-05 0)
(0.0401487 4.23257e-05 0)
(0.0399169 4.06094e-05 0)
(0.0396931 3.8946e-05 0)
(0.0394774 3.7342e-05 0)
(0.0392694 3.58061e-05 0)
(0.0390691 3.43494e-05 0)
(0.0388761 3.29873e-05 0)
(0.0386901 3.17425e-05 0)
(0.0385107 3.06524e-05 0)
(0.0383371 2.97895e-05 0)
(0.0381682 2.93196e-05 0)
(0.0380017 2.96551e-05 0)
(0.0378419 3.4015e-05 0)
(0.0375426 7.40343e-05 0)
(0.193005 0.00916939 0)
(0.193751 0.0101555 0)
(0.193942 0.0105418 0)
(0.193409 0.0105999 0)
(0.192238 0.0104228 0)
(0.190529 0.0100459 0)
(0.188359 0.00951266 0)
(0.185801 0.00887308 0)
(0.182939 0.00817415 0)
(0.179856 0.00745651 0)
(0.176623 0.00675329 0)
(0.173303 0.00608913 0)
(0.169949 0.00547992 0)
(0.166601 0.00493349 0)
(0.163289 0.00445115 0)
(0.160036 0.00402959 0)
(0.156857 0.00366276 0)
(0.153761 0.00334343 0)
(0.150756 0.00306432 0)
(0.147843 0.00281881 0)
(0.145025 0.00260123 0)
(0.1423 0.00240697 0)
(0.139668 0.00223235 0)
(0.137127 0.00207449 0)
(0.134675 0.00193117 0)
(0.132311 0.00180063 0)
(0.13003 0.00168145 0)
(0.127832 0.00157247 0)
(0.125713 0.00147273 0)
(0.123671 0.00138137 0)
(0.121703 0.00129763 0)
(0.119805 0.00122083 0)
(0.117975 0.00115035 0)
(0.11621 0.00108563 0)
(0.114507 0.00102613 0)
(0.112864 0.000971386 0)
(0.111277 0.000920947 0)
(0.109745 0.000874414 0)
(0.108263 0.000831423 0)
(0.106831 0.00079164 0)
(0.105445 0.000754766 0)
(0.104104 0.000720528 0)
(0.102804 0.000688681 0)
(0.101544 0.000659005 0)
(0.100323 0.0006313 0)
(0.0991373 0.000605389 0)
(0.0979864 0.000581111 0)
(0.0968682 0.000558322 0)
(0.0957814 0.000536892 0)
(0.0947244 0.000516703 0)
(0.0936959 0.000497651 0)
(0.0926946 0.00047964 0)
(0.0917194 0.000462586 0)
(0.0907692 0.000446409 0)
(0.0898429 0.00043104 0)
(0.0889395 0.000416414 0)
(0.0880583 0.000402473 0)
(0.0871983 0.000389165 0)
(0.0863588 0.000376441 0)
(0.0855391 0.000364256 0)
(0.0847386 0.000352569 0)
(0.0839565 0.000341345 0)
(0.0831925 0.000330547 0)
(0.0824458 0.000320145 0)
(0.0817162 0.000310109 0)
(0.081003 0.000300412 0)
(0.080306 0.000291029 0)
(0.0796248 0.000281937 0)
(0.0789591 0.000273114 0)
(0.0783085 0.000264541 0)
(0.0776727 0.000256199 0)
(0.0770517 0.00024807 0)
(0.0764451 0.00024014 0)
(0.0758528 0.000232393 0)
(0.0752747 0.000224816 0)
(0.0747105 0.000217397 0)
(0.0741603 0.000210126 0)
(0.0736239 0.000202993 0)
(0.0731013 0.000195989 0)
(0.0725923 0.000189107 0)
(0.0720971 0.000182343 0)
(0.0716155 0.000175691 0)
(0.0711475 0.000169151 0)
(0.0706932 0.00016272 0)
(0.0702525 0.000156402 0)
(0.0698255 0.0001502 0)
(0.069412 0.00014412 0)
(0.069012 0.000138172 0)
(0.0686256 0.000132368 0)
(0.0682525 0.000126727 0)
(0.0678926 0.000121269 0)
(0.0675458 0.000116025 0)
(0.0672118 0.000111035 0)
(0.0668901 0.000106358 0)
(0.0665803 0.000102088 0)
(0.0662815 9.8406e-05 0)
(0.0659923 9.57252e-05 0)
(0.0657104 9.53356e-05 0)
(0.0654372 0.000104853 0)
(0.0650367 0.000154952 0)
(0.194132 0.00849625 0)
(0.195127 0.00954933 0)
(0.196081 0.0101464 0)
(0.196786 0.0104382 0)
(0.197208 0.010499 0)
(0.197345 0.0103588 0)
(0.197187 0.0100506 0)
(0.196732 0.00961516 0)
(0.195994 0.00909343 0)
(0.195001 0.0085228 0)
(0.193787 0.0079355 0)
(0.192391 0.00735746 0)
(0.190849 0.00680751 0)
(0.189196 0.00629742 0)
(0.187461 0.00583291 0)
(0.185669 0.00541496 0)
(0.18384 0.00504134 0)
(0.181989 0.00470797 0)
(0.180128 0.00440995 0)
(0.178264 0.00414231 0)
(0.176405 0.00390047 0)
(0.174553 0.00368046 0)
(0.172714 0.00347898 0)
(0.170889 0.00329337 0)
(0.169081 0.00312154 0)
(0.167292 0.00296183 0)
(0.165523 0.00281294 0)
(0.163775 0.00267385 0)
(0.16205 0.00254372 0)
(0.160348 0.00242183 0)
(0.158671 0.00230758 0)
(0.157019 0.00220043 0)
(0.155392 0.0020999 0)
(0.15379 0.00200552 0)
(0.152215 0.00191689 0)
(0.150666 0.00183362 0)
(0.149143 0.00175533 0)
(0.147646 0.00168169 0)
(0.146175 0.00161238 0)
(0.144729 0.00154708 0)
(0.143309 0.00148553 0)
(0.141915 0.00142746 0)
(0.140545 0.00137262 0)
(0.1392 0.0013208 0)
(0.137879 0.00127177 0)
(0.136582 0.00122535 0)
(0.135308 0.00118135 0)
(0.134057 0.00113961 0)
(0.132828 0.00109997 0)
(0.131622 0.00106228 0)
(0.130437 0.00102641 0)
(0.129274 0.000992237 0)
(0.128131 0.000959644 0)
(0.127009 0.000928524 0)
(0.125907 0.000898777 0)
(0.124824 0.000870309 0)
(0.123761 0.000843035 0)
(0.122716 0.000816874 0)
(0.12169 0.00079175 0)
(0.120682 0.000767594 0)
(0.119692 0.00074434 0)
(0.11872 0.000721926 0)
(0.117765 0.000700297 0)
(0.116827 0.000679397 0)
(0.115906 0.000659176 0)
(0.115001 0.000639588 0)
(0.114113 0.000620588 0)
(0.113241 0.000602134 0)
(0.112385 0.000584187 0)
(0.111545 0.00056671 0)
(0.110721 0.00054967 0)
(0.109913 0.000533033 0)
(0.109121 0.000516769 0)
(0.108344 0.000500851 0)
(0.107582 0.000485253 0)
(0.106837 0.000469951 0)
(0.106107 0.000454922 0)
(0.105393 0.000440148 0)
(0.104694 0.00042561 0)
(0.104012 0.000411296 0)
(0.103345 0.000397191 0)
(0.102694 0.000383287 0)
(0.10206 0.000369578 0)
(0.101442 0.000356061 0)
(0.10084 0.000342736 0)
(0.100254 0.00032961 0)
(0.0996854 0.000316692 0)
(0.0991331 0.000303998 0)
(0.0985976 0.00029155 0)
(0.0980788 0.000279378 0)
(0.0975766 0.000267521 0)
(0.0970911 0.000256031 0)
(0.0966221 0.000244979 0)
(0.0961692 0.000234467 0)
(0.095732 0.000224659 0)
(0.0953098 0.000215859 0)
(0.0949014 0.000208757 0)
(0.094505 0.000205481 0)
(0.094122 0.000215066 0)
(0.0936341 0.000260063 0)
(0.195007 0.00797699 0)
(0.195806 0.00893412 0)
(0.1967 0.0095488 0)
(0.19754 0.00990206 0)
(0.198276 0.0100547 0)
(0.198892 0.0100351 0)
(0.199363 0.00986716 0)
(0.199667 0.00957997 0)
(0.199795 0.00920485 0)
(0.199745 0.00877174 0)
(0.199528 0.00830771 0)
(0.19916 0.00783575 0)
(0.19866 0.00737382 0)
(0.198048 0.00693447 0)
(0.197345 0.00652522 0)
(0.196567 0.00614938 0)
(0.195731 0.00580714 0)
(0.194849 0.00549662 0)
(0.19393 0.0052148 0)
(0.192982 0.00495824 0)
(0.19201 0.00472353 0)
(0.191019 0.00450756 0)
(0.19001 0.00430768 0)
(0.188987 0.00412173 0)
(0.187952 0.00394794 0)
(0.186906 0.00378494 0)
(0.185851 0.00363164 0)
(0.184788 0.00348715 0)
(0.183717 0.00335077 0)
(0.182641 0.0032219 0)
(0.181561 0.00310002 0)
(0.180477 0.00298468 0)
(0.17939 0.00287545 0)
(0.178301 0.00277195 0)
(0.17721 0.00267381 0)
(0.17612 0.00258069 0)
(0.17503 0.00249227 0)
(0.17394 0.00240824 0)
(0.172853 0.00232833 0)
(0.171767 0.00225225 0)
(0.170684 0.00217977 0)
(0.169604 0.00211066 0)
(0.168528 0.00204468 0)
(0.167455 0.00198164 0)
(0.166387 0.00192136 0)
(0.165324 0.00186366 0)
(0.164265 0.00180838 0)
(0.163213 0.00175536 0)
(0.162165 0.00170447 0)
(0.161124 0.00165558 0)
(0.16009 0.00160857 0)
(0.159061 0.00156333 0)
(0.15804 0.00151975 0)
(0.157026 0.00147773 0)
(0.156019 0.00143718 0)
(0.155019 0.00139801 0)
(0.154028 0.00136015 0)
(0.153044 0.00132351 0)
(0.152069 0.00128803 0)
(0.151102 0.00125363 0)
(0.150143 0.00122026 0)
(0.149194 0.00118784 0)
(0.148253 0.00115632 0)
(0.147321 0.00112565 0)
(0.146399 0.00109577 0)
(0.145487 0.00106663 0)
(0.144584 0.00103819 0)
(0.143691 0.00101039 0)
(0.142808 0.000983187 0)
(0.141936 0.000956548 0)
(0.141074 0.000930429 0)
(0.140224 0.000904791 0)
(0.139384 0.000879598 0)
(0.138556 0.000854815 0)
(0.137739 0.000830411 0)
(0.136934 0.000806355 0)
(0.136141 0.000782619 0)
(0.135361 0.000759179 0)
(0.134593 0.000736013 0)
(0.133839 0.0007131 0)
(0.133098 0.000690426 0)
(0.13237 0.000667978 0)
(0.131657 0.00064575 0)
(0.130958 0.000623737 0)
(0.130274 0.000601942 0)
(0.129604 0.000580376 0)
(0.12895 0.000559053 0)
(0.128312 0.000537997 0)
(0.12769 0.000517244 0)
(0.127083 0.000496836 0)
(0.126493 0.000476836 0)
(0.125919 0.00045732 0)
(0.125362 0.000438394 0)
(0.124821 0.000420208 0)
(0.124296 0.000402996 0)
(0.123787 0.000387177 0)
(0.123293 0.000373661 0)
(0.122813 0.00036493 0)
(0.122352 0.000368557 0)
(0.121803 0.000395582 0)
(0.195789 0.00753813 0)
(0.19639 0.00836425 0)
(0.197104 0.00894659 0)
(0.197832 0.00931674 0)
(0.198524 0.00951397 0)
(0.19916 0.00956175 0)
(0.19972 0.0094788 0)
(0.200186 0.00928731 0)
(0.200544 0.00901204 0)
(0.20079 0.00867752 0)
(0.200925 0.0083064 0)
(0.200957 0.00791841 0)
(0.200894 0.00752962 0)
(0.20075 0.00715196 0)
(0.200537 0.00679338 0)
(0.200267 0.00645834 0)
(0.199951 0.00614853 0)
(0.199598 0.00586368 0)
(0.199214 0.00560228 0)
(0.198806 0.00536218 0)
(0.198377 0.00514104 0)
(0.19793 0.00493653 0)
(0.197467 0.0047466 0)
(0.196989 0.00456943 0)
(0.196498 0.00440354 0)
(0.195993 0.0042477 0)
(0.195475 0.00410089 0)
(0.194946 0.0039623 0)
(0.194404 0.00383124 0)
(0.193851 0.00370712 0)
(0.193287 0.00358946 0)
(0.192712 0.00347781 0)
(0.192126 0.00337176 0)
(0.191531 0.00327095 0)
(0.190926 0.00317503 0)
(0.190312 0.00308369 0)
(0.189688 0.00299663 0)
(0.189056 0.00291355 0)
(0.188416 0.00283421 0)
(0.187767 0.00275834 0)
(0.187111 0.00268573 0)
(0.186448 0.00261615 0)
(0.185778 0.0025494 0)
(0.1851 0.0024853 0)
(0.184417 0.00242366 0)
(0.183727 0.00236434 0)
(0.183032 0.00230717 0)
(0.182331 0.00225201 0)
(0.181626 0.00219875 0)
(0.180915 0.00214725 0)
(0.1802 0.00209741 0)
(0.179481 0.00204912 0)
(0.178758 0.00200228 0)
(0.178032 0.0019568 0)
(0.177303 0.0019126 0)
(0.176571 0.00186961 0)
(0.175836 0.00182773 0)
(0.1751 0.00178691 0)
(0.174362 0.00174708 0)
(0.173622 0.00170817 0)
(0.172881 0.00167013 0)
(0.17214 0.00163289 0)
(0.171398 0.00159641 0)
(0.170657 0.00156064 0)
(0.169916 0.00152551 0)
(0.169175 0.001491 0)
(0.168436 0.00145704 0)
(0.167698 0.0014236 0)
(0.166962 0.00139064 0)
(0.166229 0.00135811 0)
(0.165498 0.00132597 0)
(0.16477 0.0012942 0)
(0.164046 0.00126275 0)
(0.163326 0.00123158 0)
(0.16261 0.00120068 0)
(0.1619 0.00117 0)
(0.161194 0.00113952 0)
(0.160494 0.00110921 0)
(0.159801 0.00107906 0)
(0.159114 0.00104904 0)
(0.158434 0.00101915 0)
(0.157762 0.000989365 0)
(0.157099 0.000959688 0)
(0.156444 0.000930119 0)
(0.155798 0.000900667 0)
(0.155162 0.000871349 0)
(0.154536 0.00084219 0)
(0.153921 0.000813227 0)
(0.153317 0.000784508 0)
(0.152724 0.000756099 0)
(0.152143 0.000728082 0)
(0.151575 0.000700564 0)
(0.151019 0.000673689 0)
(0.150475 0.000647653 0)
(0.149944 0.000622751 0)
(0.149426 0.000599477 0)
(0.14892 0.0005788 0)
(0.148428 0.000562874 0)
(0.147955 0.000556049 0)
(0.147408 0.000557823 0)
(0.1965 0.00717646 0)
(0.196949 0.00788 0)
(0.197498 0.00841389 0)
(0.198084 0.00878088 0)
(0.198662 0.00900046 0)
(0.199211 0.00908949 0)
(0.199713 0.00906299 0)
(0.200153 0.00893831 0)
(0.200522 0.00873516 0)
(0.200813 0.00847361 0)
(0.201027 0.0081726 0)
(0.201169 0.00784896 0)
(0.201243 0.00751686 0)
(0.201259 0.00718736 0)
(0.201226 0.00686842 0)
(0.201153 0.00656519 0)
(0.201048 0.00628041 0)
(0.200918 0.00601509 0)
(0.200768 0.00576893 0)
(0.200604 0.00554092 0)
(0.200427 0.00532958 0)
(0.200241 0.00513336 0)
(0.200046 0.00495068 0)
(0.199845 0.00478013 0)
(0.199636 0.00462044 0)
(0.19942 0.00447054 0)
(0.199198 0.00432952 0)
(0.198969 0.00419658 0)
(0.198734 0.00407106 0)
(0.198491 0.00395241 0)
(0.198241 0.0038401 0)
(0.197984 0.00373369 0)
(0.19772 0.00363277 0)
(0.197449 0.00353697 0)
(0.197169 0.00344595 0)
(0.196883 0.00335936 0)
(0.196588 0.00327692 0)
(0.196286 0.00319833 0)
(0.195976 0.00312333 0)
(0.195659 0.00305166 0)
(0.195334 0.00298308 0)
(0.195001 0.00291738 0)
(0.19466 0.00285435 0)
(0.194312 0.0027938 0)
(0.193955 0.00273554 0)
(0.193592 0.00267942 0)
(0.19322 0.00262527 0)
(0.192841 0.00257296 0)
(0.192455 0.00252234 0)
(0.192061 0.00247331 0)
(0.19166 0.00242574 0)
(0.191252 0.00237953 0)
(0.190837 0.00233457 0)
(0.190415 0.00229078 0)
(0.189986 0.00224807 0)
(0.189551 0.00220635 0)
(0.18911 0.00216556 0)
(0.188662 0.00212562 0)
(0.188208 0.00208646 0)
(0.187748 0.00204802 0)
(0.187283 0.00201024 0)
(0.186813 0.00197306 0)
(0.186337 0.00193643 0)
(0.185856 0.00190029 0)
(0.185371 0.0018646 0)
(0.184882 0.00182931 0)
(0.184388 0.00179436 0)
(0.183891 0.00175972 0)
(0.18339 0.00172535 0)
(0.182886 0.00169119 0)
(0.182379 0.00165721 0)
(0.18187 0.00162337 0)
(0.181358 0.00158964 0)
(0.180845 0.00155597 0)
(0.18033 0.00152235 0)
(0.179815 0.00148872 0)
(0.179299 0.00145508 0)
(0.178783 0.00142138 0)
(0.178267 0.00138762 0)
(0.177752 0.00135376 0)
(0.177238 0.0013198 0)
(0.176726 0.00128574 0)
(0.176216 0.00125156 0)
(0.175709 0.00121728 0)
(0.175205 0.0011829 0)
(0.174705 0.00114846 0)
(0.174209 0.00111398 0)
(0.173718 0.00107952 0)
(0.173231 0.00104514 0)
(0.172751 0.00101092 0)
(0.172276 0.000976974 0)
(0.171808 0.000943427 0)
(0.171346 0.000910459 0)
(0.170892 0.000878302 0)
(0.170444 0.000847288 0)
(0.170005 0.000817922 0)
(0.169573 0.000791032 0)
(0.169151 0.000767936 0)
(0.168745 0.000749481 0)
(0.168275 0.000727226 0)
(0.197151 0.00688009 0)
(0.197485 0.00747837 0)
(0.197898 0.00795759 0)
(0.198351 0.00830836 0)
(0.198812 0.00853687 0)
(0.199258 0.00865325 0)
(0.199673 0.00866857 0)
(0.200046 0.00859594 0)
(0.200368 0.00845051 0)
(0.200633 0.00824826 0)
(0.200841 0.00800473 0)
(0.200994 0.00773419 0)
(0.201097 0.00744902 0)
(0.201156 0.00715937 0)
(0.201177 0.00687304 0)
(0.201167 0.00659554 0)
(0.201134 0.00633046 0)
(0.201083 0.00607974 0)
(0.201018 0.00584416 0)
(0.200944 0.00562364 0)
(0.200863 0.00541759 0)
(0.200778 0.00522512 0)
(0.20069 0.00504522 0)
(0.200599 0.00487687 0)
(0.200507 0.00471909 0)
(0.200413 0.00457101 0)
(0.200318 0.00443183 0)
(0.200221 0.00430084 0)
(0.200123 0.00417742 0)
(0.200022 0.00406102 0)
(0.19992 0.00395113 0)
(0.199815 0.00384729 0)
(0.199708 0.0037491 0)
(0.199598 0.00365616 0)
(0.199485 0.00356812 0)
(0.199369 0.00348462 0)
(0.199249 0.00340537 0)
(0.199126 0.00333004 0)
(0.198998 0.00325838 0)
(0.198867 0.00319011 0)
(0.198732 0.00312498 0)
(0.198592 0.00306276 0)
(0.198448 0.00300325 0)
(0.1983 0.00294622 0)
(0.198146 0.00289151 0)
(0.197988 0.00283892 0)
(0.197825 0.0027883 0)
(0.197656 0.00273949 0)
(0.197483 0.00269235 0)
(0.197304 0.00264675 0)
(0.19712 0.00260257 0)
(0.19693 0.00255969 0)
(0.196735 0.00251801 0)
(0.196535 0.00247742 0)
(0.196329 0.00243783 0)
(0.196118 0.00239915 0)
(0.195901 0.0023613 0)
(0.195678 0.0023242 0)
(0.19545 0.00228778 0)
(0.195217 0.00225197 0)
(0.194978 0.00221671 0)
(0.194734 0.00218192 0)
(0.194484 0.00214754 0)
(0.194229 0.00211353 0)
(0.193969 0.00207982 0)
(0.193704 0.00204636 0)
(0.193434 0.0020131 0)
(0.193159 0.00197998 0)
(0.19288 0.00194696 0)
(0.192595 0.00191399 0)
(0.192307 0.00188103 0)
(0.192014 0.00184803 0)
(0.191717 0.00181495 0)
(0.191416 0.00178175 0)
(0.191112 0.00174838 0)
(0.190804 0.00171482 0)
(0.190493 0.00168104 0)
(0.19018 0.00164699 0)
(0.189863 0.00161266 0)
(0.189545 0.00157803 0)
(0.189224 0.00154307 0)
(0.188902 0.00150778 0)
(0.188578 0.00147216 0)
(0.188253 0.00143621 0)
(0.187928 0.00139995 0)
(0.187602 0.0013634 0)
(0.187277 0.00132661 0)
(0.186951 0.00128963 0)
(0.186627 0.00125253 0)
(0.186304 0.00121541 0)
(0.185982 0.0011784 0)
(0.185662 0.00114164 0)
(0.185344 0.00110533 0)
(0.185028 0.00106973 0)
(0.184715 0.00103516 0)
(0.184405 0.00100208 0)
(0.184099 0.000971032 0)
(0.183798 0.00094242 0)
(0.183507 0.000914675 0)
(0.183163 0.000877095 0)
(0.197719 0.00664614 0)
(0.197966 0.00716235 0)
(0.198273 0.00759204 0)
(0.198617 0.00792266 0)
(0.198973 0.00815297 0)
(0.199325 0.00828754 0)
(0.199657 0.00833367 0)
(0.19996 0.00830085 0)
(0.200225 0.00820054 0)
(0.200449 0.00804534 0)
(0.20063 0.00784796 0)
(0.200768 0.00762046 0)
(0.200868 0.00737368 0)
(0.200932 0.00711688 0)
(0.200967 0.00685756 0)
(0.200977 0.00660143 0)
(0.200968 0.00635257 0)
(0.200944 0.00611367 0)
(0.20091 0.00588628 0)
(0.200868 0.00567111 0)
(0.200821 0.00546829 0)
(0.200771 0.00527752 0)
(0.20072 0.00509829 0)
(0.200668 0.00492996 0)
(0.200617 0.00477183 0)
(0.200566 0.00462322 0)
(0.200515 0.00448348 0)
(0.200466 0.00435198 0)
(0.200416 0.00422817 0)
(0.200368 0.00411151 0)
(0.200319 0.00400153 0)
(0.200271 0.00389776 0)
(0.200223 0.0037998 0)
(0.200175 0.00370726 0)
(0.200126 0.00361976 0)
(0.200077 0.00353697 0)
(0.200027 0.00345857 0)
(0.199977 0.00338423 0)
(0.199925 0.00331369 0)
(0.199872 0.00324667 0)
(0.199818 0.00318291 0)
(0.199763 0.00312218 0)
(0.199705 0.00306425 0)
(0.199646 0.00300891 0)
(0.199585 0.00295597 0)
(0.199522 0.00290525 0)
(0.199457 0.00285657 0)
(0.199389 0.00280977 0)
(0.199319 0.0027647 0)
(0.199246 0.00272123 0)
(0.199171 0.00267922 0)
(0.199092 0.00263855 0)
(0.199011 0.00259911 0)
(0.198927 0.0025608 0)
(0.19884 0.0025235 0)
(0.198749 0.00248713 0)
(0.198655 0.00245159 0)
(0.198558 0.0024168 0)
(0.198458 0.00238269 0)
(0.198354 0.00234917 0)
(0.198247 0.00231618 0)
(0.198136 0.00228363 0)
(0.198022 0.00225147 0)
(0.197904 0.00221964 0)
(0.197783 0.00218806 0)
(0.197658 0.00215668 0)
(0.197529 0.00212544 0)
(0.197397 0.00209428 0)
(0.197261 0.00206315 0)
(0.197121 0.002032 0)
(0.196979 0.00200077 0)
(0.196832 0.00196941 0)
(0.196683 0.00193787 0)
(0.19653 0.00190612 0)
(0.196373 0.00187409 0)
(0.196214 0.00184175 0)
(0.196051 0.00180906 0)
(0.195886 0.00177599 0)
(0.195717 0.00174251 0)
(0.195546 0.00170858 0)
(0.195373 0.00167419 0)
(0.195197 0.00163932 0)
(0.195019 0.00160396 0)
(0.194839 0.00156813 0)
(0.194657 0.00153183 0)
(0.194473 0.00149509 0)
(0.194288 0.00145795 0)
(0.194102 0.00142047 0)
(0.193915 0.00138274 0)
(0.193726 0.00134484 0)
(0.193538 0.00130691 0)
(0.193348 0.00126912 0)
(0.193159 0.00123166 0)
(0.192969 0.0011948 0)
(0.19278 0.00115883 0)
(0.192591 0.00112411 0)
(0.192403 0.00109094 0)
(0.192218 0.00105912 0)
(0.192037 0.00102633 0)
(0.191814 0.000983945 0)
(0.198283 0.00645864 0)
(0.198457 0.00690749 0)
(0.198673 0.00729107 0)
(0.198918 0.00759776 0)
(0.199176 0.007823 0)
(0.199434 0.00796747 0)
(0.199681 0.00803522 0)
(0.199909 0.00803274 0)
(0.200112 0.00796842 0)
(0.200286 0.00785194 0)
(0.200429 0.00769349 0)
(0.200542 0.00750309 0)
(0.200626 0.00729008 0)
(0.200684 0.00706278 0)
(0.200719 0.0068282 0)
(0.200735 0.00659203 0)
(0.200736 0.00635865 0)
(0.200725 0.00613123 0)
(0.200705 0.00591196 0)
(0.200679 0.00570217 0)
(0.200649 0.00550259 0)
(0.200617 0.00531347 0)
(0.200584 0.00513476 0)
(0.20055 0.00496616 0)
(0.200517 0.00480728 0)
(0.200485 0.00465762 0)
(0.200454 0.0045167 0)
(0.200423 0.00438399 0)
(0.200394 0.004259 0)
(0.200367 0.00414124 0)
(0.20034 0.00403026 0)
(0.200314 0.00392562 0)
(0.200289 0.00382692 0)
(0.200266 0.00373376 0)
(0.200242 0.00364577 0)
(0.20022 0.00356262 0)
(0.200198 0.00348397 0)
(0.200176 0.00340952 0)
(0.200155 0.00333898 0)
(0.200134 0.00327206 0)
(0.200113 0.00320852 0)
(0.200092 0.00314811 0)
(0.200071 0.00309059 0)
(0.20005 0.00303577 0)
(0.200028 0.00298343 0)
(0.200007 0.0029334 0)
(0.199984 0.00288548 0)
(0.199961 0.00283953 0)
(0.199938 0.00279539 0)
(0.199913 0.0027529 0)
(0.199888 0.00271195 0)
(0.199862 0.00267239 0)
(0.199835 0.00263412 0)
(0.199807 0.00259703 0)
(0.199778 0.002561 0)
(0.199748 0.00252594 0)
(0.199716 0.00249176 0)
(0.199683 0.00245836 0)
(0.199649 0.00242567 0)
(0.199613 0.0023936 0)
(0.199576 0.00236208 0)
(0.199537 0.00233103 0)
(0.199497 0.00230038 0)
(0.199455 0.00227006 0)
(0.199411 0.00224001 0)
(0.199366 0.00221016 0)
(0.199318 0.00218045 0)
(0.199269 0.00215081 0)
(0.199219 0.0021212 0)
(0.199166 0.00209154 0)
(0.199111 0.00206178 0)
(0.199055 0.00203187 0)
(0.198996 0.00200176 0)
(0.198936 0.00197138 0)
(0.198874 0.0019407 0)
(0.198809 0.00190966 0)
(0.198743 0.00187822 0)
(0.198675 0.00184634 0)
(0.198606 0.00181399 0)
(0.198534 0.00178112 0)
(0.19846 0.00174772 0)
(0.198385 0.00171377 0)
(0.198308 0.00167926 0)
(0.19823 0.00164419 0)
(0.198149 0.00160856 0)
(0.198068 0.00157241 0)
(0.197984 0.00153577 0)
(0.1979 0.00149871 0)
(0.197814 0.0014613 0)
(0.197726 0.00142364 0)
(0.197638 0.00138587 0)
(0.197548 0.00134815 0)
(0.197458 0.00131068 0)
(0.197366 0.00127371 0)
(0.197274 0.0012375 0)
(0.197181 0.00120232 0)
(0.197088 0.00116831 0)
(0.196995 0.00113512 0)
(0.196902 0.001101 0)
(0.19678 0.0010615 0)
(0.198887 0.00629265 0)
(0.198989 0.00668709 0)
(0.199116 0.00703123 0)
(0.199262 0.0073153 0)
(0.199418 0.00753354 0)
(0.199577 0.00768422 0)
(0.199731 0.00776881 0)
(0.199876 0.00779126 0)
(0.200006 0.0077574 0)
(0.20012 0.0076744 0)
(0.200216 0.00755023 0)
(0.200293 0.00739304 0)
(0.200353 0.00721077 0)
(0.200396 0.00701074 0)
(0.200425 0.00679947 0)
(0.200441 0.00658246 0)
(0.200447 0.00636423 0)
(0.200444 0.00614829 0)
(0.200436 0.00593729 0)
(0.200423 0.00573311 0)
(0.200407 0.00553698 0)
(0.20039 0.00534963 0)
(0.200371 0.00517143 0)
(0.200351 0.00500245 0)
(0.200332 0.00484257 0)
(0.200313 0.00469151 0)
(0.200295 0.00454895 0)
(0.200277 0.00441449 0)
(0.200261 0.00428771 0)
(0.200245 0.00416818 0)
(0.20023 0.0040555 0)
(0.200216 0.00394924 0)
(0.200203 0.003849 0)
(0.20019 0.00375442 0)
(0.200178 0.00366512 0)
(0.200167 0.00358075 0)
(0.200156 0.003501 0)
(0.200146 0.00342555 0)
(0.200137 0.0033541 0)
(0.200128 0.00328638 0)
(0.200119 0.00322212 0)
(0.200111 0.00316108 0)
(0.200103 0.00310303 0)
(0.200095 0.00304775 0)
(0.200088 0.00299504 0)
(0.200081 0.0029447 0)
(0.200073 0.00289656 0)
(0.200066 0.00285045 0)
(0.200059 0.0028062 0)
(0.200052 0.00276369 0)
(0.200045 0.00272276 0)
(0.200038 0.00268329 0)
(0.200031 0.00264516 0)
(0.200023 0.00260825 0)
(0.200016 0.00257246 0)
(0.200008 0.00253768 0)
(0.2 0.00250383 0)
(0.199992 0.0024708 0)
(0.199983 0.00243852 0)
(0.199974 0.0024069 0)
(0.199965 0.00237586 0)
(0.199955 0.00234533 0)
(0.199945 0.00231522 0)
(0.199935 0.00228549 0)
(0.199924 0.00225604 0)
(0.199912 0.00222682 0)
(0.1999 0.00219777 0)
(0.199887 0.00216881 0)
(0.199874 0.00213989 0)
(0.19986 0.00211094 0)
(0.199846 0.00208192 0)
(0.199831 0.00205275 0)
(0.199815 0.00202339 0)
(0.199798 0.00199377 0)
(0.199781 0.00196385 0)
(0.199763 0.00193358 0)
(0.199745 0.00190292 0)
(0.199725 0.0018718 0)
(0.199705 0.00184021 0)
(0.199684 0.0018081 0)
(0.199663 0.00177545 0)
(0.19964 0.00174223 0)
(0.199617 0.00170844 0)
(0.199593 0.00167407 0)
(0.199569 0.00163912 0)
(0.199543 0.00160364 0)
(0.199517 0.00156764 0)
(0.19949 0.0015312 0)
(0.199462 0.00149439 0)
(0.199433 0.00145732 0)
(0.199404 0.00142011 0)
(0.199374 0.00138292 0)
(0.199343 0.00134596 0)
(0.199311 0.00130944 0)
(0.199279 0.00127359 0)
(0.199246 0.00123864 0)
(0.199213 0.00120468 0)
(0.199179 0.00117158 0)
(0.199144 0.00113883 0)
(0.199093 0.00110616 0)
(0.199518 0.0062113 0)
(0.199545 0.00657126 0)
(0.199582 0.00688791 0)
(0.199627 0.00715303 0)
(0.199677 0.00736098 0)
(0.199729 0.00750925 0)
(0.199782 0.00759821 0)
(0.199833 0.00763054 0)
(0.199881 0.00761073 0)
(0.199925 0.00754458 0)
(0.199963 0.00743872 0)
(0.199996 0.00730016 0)
(0.200023 0.0071359 0)
(0.200045 0.00695255 0)
(0.200061 0.00675614 0)
(0.200074 0.00655193 0)
(0.200082 0.00634437 0)
(0.200088 0.00613706 0)
(0.200091 0.00593282 0)
(0.200092 0.00573376 0)
(0.200091 0.00554136 0)
(0.20009 0.00535663 0)
(0.200087 0.00518016 0)
(0.200084 0.00501222 0)
(0.200081 0.00485287 0)
(0.200078 0.00470198 0)
(0.200075 0.00455933 0)
(0.200072 0.00442459 0)
(0.200068 0.00429743 0)
(0.200065 0.00417746 0)
(0.200062 0.00406428 0)
(0.200059 0.00395752 0)
(0.200057 0.00385679 0)
(0.200054 0.00376172 0)
(0.200052 0.00367195 0)
(0.20005 0.00358715 0)
(0.200048 0.00350698 0)
(0.200046 0.00343113 0)
(0.200044 0.00335932 0)
(0.200042 0.00329127 0)
(0.200041 0.00322671 0)
(0.200039 0.0031654 0)
(0.200038 0.00310711 0)
(0.200037 0.00305161 0)
(0.200035 0.00299871 0)
(0.200034 0.00294821 0)
(0.200033 0.00289993 0)
(0.200032 0.0028537 0)
(0.200031 0.00280937 0)
(0.20003 0.00276679 0)
(0.200029 0.00272582 0)
(0.200028 0.00268632 0)
(0.200027 0.00264819 0)
(0.200026 0.0026113 0)
(0.200025 0.00257554 0)
(0.200024 0.00254082 0)
(0.200023 0.00250703 0)
(0.200022 0.00247409 0)
(0.20002 0.00244191 0)
(0.200019 0.0024104 0)
(0.200018 0.00237949 0)
(0.200016 0.0023491 0)
(0.200015 0.00231916 0)
(0.200013 0.00228959 0)
(0.200012 0.00226033 0)
(0.20001 0.00223131 0)
(0.200008 0.00220246 0)
(0.200006 0.00217373 0)
(0.200004 0.00214504 0)
(0.200002 0.00211634 0)
(0.2 0.00208757 0)
(0.199997 0.00205866 0)
(0.199995 0.00202958 0)
(0.199992 0.00200025 0)
(0.199989 0.00197062 0)
(0.199986 0.00194066 0)
(0.199982 0.0019103 0)
(0.199979 0.00187951 0)
(0.199975 0.00184824 0)
(0.199971 0.00181647 0)
(0.199967 0.00178416 0)
(0.199963 0.00175129 0)
(0.199958 0.00171785 0)
(0.199953 0.00168384 0)
(0.199948 0.00164926 0)
(0.199943 0.00161415 0)
(0.199937 0.00157853 0)
(0.199931 0.00154248 0)
(0.199925 0.00150606 0)
(0.199919 0.00146938 0)
(0.199912 0.00143258 0)
(0.199905 0.00139581 0)
(0.199898 0.00135926 0)
(0.199891 0.00132312 0)
(0.199883 0.00128763 0)
(0.199875 0.00125298 0)
(0.199866 0.00121933 0)
(0.199858 0.00118686 0)
(0.199848 0.00115596 0)
(0.199834 0.00112842 0)
(0.199997 1.57637e-06 0)