/*--------------------------------*- C++ -*----------------------------------*\
| =========                 |                                                 |
| \\      /  F ield         | OpenFOAM: The Open Source CFD Toolbox           |
|  \\    /   O peration     | Version:  2.3.0                                 |
|   \\  /    A nd           | Web:      www.OpenFOAM.org                      |
|    \\/     M anipulation  |                                                 |
\*---------------------------------------------------------------------------*/
FoamFile
{
    version     2.0;
    format      ascii;
    class       volVectorField;
    location    "0.45";
    object      U_0;
}
// * * * * * * * * * * * * * * * * * * * * * * * * * * * * * * * * * * * * * //

dimensions      [0 1 -1 0 0 0 0];

internalField   nonuniform List<vector> 
2700
(
(0.185025 0.0050203 0)
(0.173514 0.00578136 0)
(0.158817 0.00543639 0)
(0.143355 0.00502214 0)
(0.128973 0.00454764 0)
(0.115969 0.00399868 0)
(0.104222 0.00342418 0)
(0.0936846 0.00286641 0)
(0.0843682 0.00234806 0)
(0.076255 0.00188217 0)
(0.0692815 0.00147676 0)
(0.0633537 0.00113514 0)
(0.0583608 0.000856101 0)
(0.0541842 0.000634926 0)
(0.0507038 0.000464632 0)
(0.0478047 0.000337138 0)
(0.0453815 0.000244247 0)
(0.0433419 0.000178346 0)
(0.0416076 0.000132813 0)
(0.0401141 0.000102167 0)
(0.0388102 8.20538e-05 0)
(0.0376556 6.91387e-05 0)
(0.0366197 6.09592e-05 0)
(0.0356791 5.57626e-05 0)
(0.0348167 5.23497e-05 0)
(0.0340193 4.9936e-05 0)
(0.0332774 4.8034e-05 0)
(0.0325836 4.63599e-05 0)
(0.0319322 4.47634e-05 0)
(0.0313187 4.3176e-05 0)
(0.0307395 4.15769e-05 0)
(0.0301915 3.99698e-05 0)
(0.029672 3.83691e-05 0)
(0.0291788 3.67918e-05 0)
(0.0287098 3.52534e-05 0)
(0.028263 3.37663e-05 0)
(0.0278369 3.23391e-05 0)
(0.02743 3.0977e-05 0)
(0.0270408 2.96823e-05 0)
(0.0266681 2.84554e-05 0)
(0.0263107 2.72948e-05 0)
(0.0259676 2.61981e-05 0)
(0.0256379 2.51624e-05 0)
(0.0253206 2.4184e-05 0)
(0.025015 2.32597e-05 0)
(0.0247204 2.23859e-05 0)
(0.0244361 2.15591e-05 0)
(0.0241615 2.07761e-05 0)
(0.023896 2.00337e-05 0)
(0.0236391 1.93291e-05 0)
(0.0233904 1.86596e-05 0)
(0.0231494 1.80227e-05 0)
(0.0229158 1.7416e-05 0)
(0.0226891 1.68376e-05 0)
(0.0224691 1.62853e-05 0)
(0.0222554 1.57575e-05 0)
(0.0220478 1.52525e-05 0)
(0.0218459 1.47686e-05 0)
(0.0216497 1.43046e-05 0)
(0.0214587 1.3859e-05 0)
(0.0212728 1.34307e-05 0)
(0.0210919 1.30184e-05 0)
(0.0209158 1.26212e-05 0)
(0.0207442 1.22381e-05 0)
(0.0205771 1.18681e-05 0)
(0.0204143 1.15104e-05 0)
(0.0202557 1.11642e-05 0)
(0.0201012 1.08287e-05 0)
(0.0199506 1.05031e-05 0)
(0.019804 1.01869e-05 0)
(0.0196612 9.87948e-06 0)
(0.0195221 9.58016e-06 0)
(0.0193868 9.2884e-06 0)
(0.019255 9.00365e-06 0)
(0.0191269 8.72547e-06 0)
(0.0190024 8.45336e-06 0)
(0.0188813 8.18683e-06 0)
(0.0187638 7.9255e-06 0)
(0.0186498 7.66896e-06 0)
(0.0185394 7.41694e-06 0)
(0.0184324 7.16903e-06 0)
(0.0183289 6.92495e-06 0)
(0.0182289 6.68443e-06 0)
(0.0181325 6.44719e-06 0)
(0.0180397 6.21292e-06 0)
(0.0179504 5.981e-06 0)
(0.0178647 5.75087e-06 0)
(0.0177827 5.52175e-06 0)
(0.0177043 5.29278e-06 0)
(0.0176297 5.06285e-06 0)
(0.0175589 4.83122e-06 0)
(0.0174918 4.59779e-06 0)
(0.0174285 4.36294e-06 0)
(0.0173691 4.12885e-06 0)
(0.0173134 3.90063e-06 0)
(0.0172612 3.68826e-06 0)
(0.0172124 3.51665e-06 0)
(0.017166 3.42443e-06 0)
(0.0171252 3.17098e-06 0)
(0.0170269 1.48765e-05 0)
(0.200885 0.00843009 0)
(0.202375 0.00989666 0)
(0.200757 0.00956133 0)
(0.196718 0.00920162 0)
(0.191612 0.00878855 0)
(0.185984 0.00823183 0)
(0.179998 0.00757463 0)
(0.173805 0.00687101 0)
(0.167569 0.00615345 0)
(0.161427 0.00544484 0)
(0.155474 0.00476521 0)
(0.149776 0.00413119 0)
(0.144372 0.00355471 0)
(0.139284 0.00304271 0)
(0.134519 0.00259754 0)
(0.130074 0.00221767 0)
(0.125938 0.0018986 0)
(0.122093 0.00163394 0)
(0.118522 0.00141635 0)
(0.115203 0.00123831 0)
(0.112117 0.00109275 0)
(0.109244 0.000973354 0)
(0.106564 0.000874759 0)
(0.10406 0.000792545 0)
(0.101716 0.000723191 0)
(0.0995178 0.000663949 0)
(0.0974518 0.000612714 0)
(0.0955064 0.000567888 0)
(0.0936711 0.000528268 0)
(0.0919363 0.000492946 0)
(0.0902937 0.000461231 0)
(0.0887358 0.000432589 0)
(0.0872557 0.000406602 0)
(0.0858473 0.000382933 0)
(0.0845053 0.000361308 0)
(0.0832246 0.000341496 0)
(0.0820007 0.0003233 0)
(0.0808296 0.000306549 0)
(0.0797077 0.000291097 0)
(0.0786315 0.000276812 0)
(0.0775981 0.000263579 0)
(0.0766047 0.000251296 0)
(0.0756486 0.000239872 0)
(0.0747277 0.000229226 0)
(0.0738397 0.000219287 0)
(0.0729828 0.000209989 0)
(0.072155 0.000201277 0)
(0.0713549 0.000193098 0)
(0.0705808 0.000185406 0)
(0.0698314 0.000178162 0)
(0.0691054 0.000171326 0)
(0.0684016 0.000164867 0)
(0.0677189 0.000158754 0)
(0.0670563 0.000152959 0)
(0.0664128 0.000147457 0)
(0.0657876 0.000142227 0)
(0.0651799 0.000137247 0)
(0.064589 0.000132499 0)
(0.0640141 0.000127964 0)
(0.0634547 0.000123628 0)
(0.0629101 0.000119475 0)
(0.0623798 0.000115491 0)
(0.0618633 0.000111664 0)
(0.0613602 0.000107983 0)
(0.0608701 0.000104436 0)
(0.0603926 0.000101012 0)
(0.0599274 9.77028e-05 0)
(0.0594741 9.44988e-05 0)
(0.0590325 9.13914e-05 0)
(0.0586024 8.83727e-05 0)
(0.0581835 8.54352e-05 0)
(0.0577757 8.25718e-05 0)
(0.0573788 7.97758e-05 0)
(0.0569928 7.70407e-05 0)
(0.0566174 7.43608e-05 0)
(0.0562527 7.17304e-05 0)
(0.0558986 6.91442e-05 0)
(0.0555551 6.65973e-05 0)
(0.0552222 6.40854e-05 0)
(0.0548999 6.16044e-05 0)
(0.0545883 5.91505e-05 0)
(0.0542875 5.67205e-05 0)
(0.0539974 5.43115e-05 0)
(0.0537183 5.19209e-05 0)
(0.0534503 4.95465e-05 0)
(0.0531934 4.71859e-05 0)
(0.0529478 4.48372e-05 0)
(0.0527136 4.24991e-05 0)
(0.052491 4.01711e-05 0)
(0.0522801 3.78538e-05 0)
(0.052081 3.55508e-05 0)
(0.0518937 3.32693e-05 0)
(0.0517183 3.10217e-05 0)
(0.0515547 2.88287e-05 0)
(0.0514026 2.67241e-05 0)
(0.0512615 2.47661e-05 0)
(0.0511307 2.30756e-05 0)
(0.0510084 2.19357e-05 0)
(0.0508977 2.28485e-05 0)
(0.0507069 4.81012e-05 0)
(0.201535 0.00623593 0)
(0.204572 0.00851791 0)
(0.206672 0.00908198 0)
(0.207307 0.00942222 0)
(0.207014 0.00959798 0)
(0.2061 0.0095085 0)
(0.204629 0.00919459 0)
(0.202656 0.00873065 0)
(0.200277 0.00817092 0)
(0.197592 0.00755546 0)
(0.194688 0.00691842 0)
(0.191638 0.00628845 0)
(0.188503 0.00568734 0)
(0.185332 0.00512977 0)
(0.182163 0.00462402 0)
(0.179027 0.00417304 0)
(0.175945 0.0037758 0)
(0.17293 0.00342858 0)
(0.169991 0.00312615 0)
(0.167135 0.00286272 0)
(0.164364 0.00263259 0)
(0.161678 0.00243054 0)
(0.159078 0.00225204 0)
(0.156561 0.00209328 0)
(0.154126 0.00195115 0)
(0.151771 0.00182312 0)
(0.149494 0.00170717 0)
(0.147292 0.00160167 0)
(0.145162 0.00150531 0)
(0.143104 0.00141702 0)
(0.141113 0.00133592 0)
(0.139189 0.00126125 0)
(0.137327 0.00119238 0)
(0.135526 0.00112875 0)
(0.133784 0.00106988 0)
(0.132098 0.00101533 0)
(0.130466 0.00096472 0)
(0.128886 0.0009177 0)
(0.127355 0.000873956 0)
(0.125872 0.000833204 0)
(0.124434 0.000795189 0)
(0.12304 0.000759677 0)
(0.121688 0.000726459 0)
(0.120375 0.000695342 0)
(0.119101 0.000666153 0)
(0.117863 0.000638737 0)
(0.11666 0.000612948 0)
(0.115491 0.000588658 0)
(0.114354 0.000565749 0)
(0.113248 0.000544112 0)
(0.112171 0.000523651 0)
(0.111123 0.000504274 0)
(0.110102 0.0004859 0)
(0.109108 0.000468454 0)
(0.108138 0.000451867 0)
(0.107193 0.000436076 0)
(0.106271 0.000421021 0)
(0.105372 0.00040665 0)
(0.104495 0.000392911 0)
(0.103639 0.00037976 0)
(0.102804 0.000367152 0)
(0.101988 0.000355048 0)
(0.101192 0.000343411 0)
(0.100414 0.000332204 0)
(0.0996548 0.000321396 0)
(0.0989135 0.000310956 0)
(0.0981897 0.000300854 0)
(0.0974831 0.000291062 0)
(0.0967933 0.000281556 0)
(0.0961201 0.00027231 0)
(0.0954633 0.000263301 0)
(0.0948227 0.000254506 0)
(0.0941982 0.000245906 0)
(0.0935896 0.000237479 0)
(0.092997 0.000229207 0)
(0.0924202 0.000221072 0)
(0.0918593 0.000213058 0)
(0.0913144 0.000205149 0)
(0.0907854 0.00019733 0)
(0.0902727 0.000189588 0)
(0.0897762 0.000181911 0)
(0.0892962 0.000174289 0)
(0.0888329 0.000166713 0)
(0.0883865 0.000159174 0)
(0.0879573 0.000151666 0)
(0.0875455 0.000144185 0)
(0.0871513 0.000136727 0)
(0.0867752 0.000129292 0)
(0.0864173 0.000121885 0)
(0.0860778 0.000114516 0)
(0.0857569 0.000107201 0)
(0.0854548 9.99704e-05 0)
(0.0851714 9.28649e-05 0)
(0.0849066 8.59467e-05 0)
(0.0846601 7.93068e-05 0)
(0.0844311 7.30915e-05 0)
(0.0842187 6.75849e-05 0)
(0.0840208 6.35414e-05 0)
(0.0838386 6.52234e-05 0)
(0.0835859 9.39539e-05 0)
(0.200979 0.00442483 0)
(0.20338 0.00699411 0)
(0.205872 0.00811944 0)
(0.207687 0.00879098 0)
(0.208964 0.00923221 0)
(0.209884 0.00940417 0)
(0.210456 0.00933335 0)
(0.210656 0.00908497 0)
(0.210499 0.00871236 0)
(0.21002 0.00825509 0)
(0.209261 0.00774697 0)
(0.208263 0.00721769 0)
(0.207067 0.00669145 0)
(0.205713 0.00618614 0)
(0.204234 0.00571362 0)
(0.202662 0.0052805 0)
(0.201022 0.00488917 0)
(0.199334 0.00453892 0)
(0.197615 0.00422703 0)
(0.195876 0.00394966 0)
(0.194127 0.00370253 0)
(0.192375 0.00348146 0)
(0.190624 0.00328257 0)
(0.18888 0.00310247 0)
(0.187144 0.00293832 0)
(0.18542 0.00278774 0)
(0.18371 0.00264884 0)
(0.182016 0.00252008 0)
(0.180339 0.00240024 0)
(0.17868 0.00228834 0)
(0.177041 0.00218357 0)
(0.175423 0.00208529 0)
(0.173826 0.00199294 0)
(0.172252 0.00190605 0)
(0.170701 0.00182421 0)
(0.169173 0.00174706 0)
(0.167669 0.00167428 0)
(0.166189 0.00160556 0)
(0.164734 0.00154063 0)
(0.163302 0.00147924 0)
(0.161895 0.00142116 0)
(0.160513 0.00136618 0)
(0.159154 0.00131408 0)
(0.157819 0.00126468 0)
(0.156508 0.00121782 0)
(0.155221 0.00117332 0)
(0.153957 0.00113103 0)
(0.152716 0.00109082 0)
(0.151497 0.00105255 0)
(0.1503 0.00101609 0)
(0.149126 0.000981329 0)
(0.147972 0.000948163 0)
(0.14684 0.000916488 0)
(0.145729 0.000886209 0)
(0.144638 0.000857237 0)
(0.143567 0.000829488 0)
(0.142515 0.000802884 0)
(0.141483 0.000777351 0)
(0.14047 0.000752819 0)
(0.139476 0.000729221 0)
(0.1385 0.000706495 0)
(0.137543 0.000684583 0)
(0.136603 0.000663427 0)
(0.13568 0.000642974 0)
(0.134776 0.000623174 0)
(0.133888 0.000603978 0)
(0.133018 0.000585338 0)
(0.132164 0.000567211 0)
(0.131328 0.000549553 0)
(0.130508 0.000532324 0)
(0.129705 0.000515483 0)
(0.128919 0.000498994 0)
(0.12815 0.000482818 0)
(0.127397 0.000466923 0)
(0.126662 0.000451273 0)
(0.125944 0.000435837 0)
(0.125243 0.000420584 0)
(0.124559 0.000405487 0)
(0.123894 0.000390517 0)
(0.123246 0.000375652 0)
(0.122617 0.000360868 0)
(0.122007 0.000346146 0)
(0.121416 0.000331469 0)
(0.120844 0.000316822 0)
(0.120292 0.000302195 0)
(0.119761 0.00028758 0)
(0.119251 0.000272976 0)
(0.118762 0.000258387 0)
(0.118295 0.000243828 0)
(0.11785 0.000229322 0)
(0.117427 0.00021491 0)
(0.117027 0.00020065 0)
(0.11665 0.000186626 0)
(0.116295 0.000172952 0)
(0.115963 0.00015979 0)
(0.115652 0.000147387 0)
(0.115363 0.000136209 0)
(0.115092 0.000127499 0)
(0.114841 0.000126659 0)
(0.114534 0.000150272 0)
(0.200608 0.00333606 0)
(0.202297 0.00577233 0)
(0.204389 0.00710326 0)
(0.206231 0.00789296 0)
(0.207777 0.00842492 0)
(0.20914 0.00872281 0)
(0.21033 0.00880136 0)
(0.21131 0.00870719 0)
(0.21206 0.00848562 0)
(0.212583 0.0081715 0)
(0.212888 0.00779444 0)
(0.212993 0.00738114 0)
(0.212915 0.00695447 0)
(0.212677 0.0065324 0)
(0.212302 0.00612788 0)
(0.211811 0.00574919 0)
(0.211225 0.00540069 0)
(0.210559 0.00508367 0)
(0.209827 0.00479725 0)
(0.209043 0.00453918 0)
(0.208213 0.00430649 0)
(0.207347 0.00409601 0)
(0.206448 0.00390467 0)
(0.205522 0.00372967 0)
(0.204571 0.0035686 0)
(0.2036 0.00341944 0)
(0.202611 0.00328053 0)
(0.201605 0.00315052 0)
(0.200585 0.00302836 0)
(0.199553 0.00291317 0)
(0.19851 0.00280427 0)
(0.197459 0.0027011 0)
(0.1964 0.00260317 0)
(0.195335 0.00251011 0)
(0.194266 0.00242157 0)
(0.193193 0.00233724 0)
(0.192119 0.00225686 0)
(0.191043 0.00218019 0)
(0.189967 0.002107 0)
(0.188892 0.00203709 0)
(0.187819 0.00197027 0)
(0.186749 0.00190636 0)
(0.185682 0.00184521 0)
(0.18462 0.00178664 0)
(0.183562 0.00173053 0)
(0.182509 0.00167673 0)
(0.181462 0.00162512 0)
(0.180421 0.00157558 0)
(0.179387 0.001528 0)
(0.178361 0.00148226 0)
(0.177342 0.00143828 0)
(0.17633 0.00139595 0)
(0.175327 0.00135518 0)
(0.174333 0.0013159 0)
(0.173347 0.00127801 0)
(0.17237 0.00124144 0)
(0.171402 0.00120611 0)
(0.170444 0.00117196 0)
(0.169496 0.00113892 0)
(0.168557 0.00110691 0)
(0.167629 0.00107588 0)
(0.16671 0.00104577 0)
(0.165802 0.00101651 0)
(0.164905 0.000988055 0)
(0.164019 0.00096034 0)
(0.163143 0.000933314 0)
(0.162279 0.000906923 0)
(0.161426 0.000881116 0)
(0.160585 0.000855843 0)
(0.159755 0.000831054 0)
(0.158938 0.000806701 0)
(0.158134 0.000782736 0)
(0.157342 0.000759114 0)
(0.156563 0.000735789 0)
(0.155798 0.000712717 0)
(0.155046 0.000689857 0)
(0.154309 0.000667168 0)
(0.153587 0.000644612 0)
(0.152879 0.000622151 0)
(0.152188 0.000599752 0)
(0.151512 0.000577385 0)
(0.150854 0.000555022 0)
(0.150212 0.00053264 0)
(0.149589 0.000510219 0)
(0.148984 0.000487746 0)
(0.148399 0.000465216 0)
(0.147833 0.000442629 0)
(0.147288 0.000419998 0)
(0.146765 0.00039735 0)
(0.146262 0.00037473 0)
(0.145782 0.000352206 0)
(0.145325 0.000329872 0)
(0.14489 0.000307858 0)
(0.144478 0.000286336 0)
(0.144088 0.000265541 0)
(0.143721 0.000245822 0)
(0.143376 0.000227798 0)
(0.143051 0.000213 0)
(0.142748 0.000206445 0)
(0.142401 0.000218056 0)
(0.200397 0.00261525 0)
(0.201585 0.00476245 0)
(0.203226 0.00613059 0)
(0.204837 0.00698664 0)
(0.206289 0.00757062 0)
(0.207631 0.00794074 0)
(0.208881 0.00811177 0)
(0.210011 0.00811779 0)
(0.210999 0.00799802 0)
(0.211838 0.00778481 0)
(0.212527 0.00750505 0)
(0.213072 0.00718268 0)
(0.213482 0.00683853 0)
(0.213767 0.00648948 0)
(0.213941 0.0061482 0)
(0.214018 0.00582335 0)
(0.214011 0.00552016 0)
(0.213934 0.005241 0)
(0.213796 0.00498619 0)
(0.213605 0.00475463 0)
(0.21337 0.00454437 0)
(0.213095 0.00435308 0)
(0.212786 0.00417837 0)
(0.212445 0.00401796 0)
(0.212074 0.00386983 0)
(0.211677 0.00373223 0)
(0.211254 0.00360369 0)
(0.210808 0.003483 0)
(0.210339 0.0033692 0)
(0.209849 0.00326148 0)
(0.209339 0.00315922 0)
(0.20881 0.00306189 0)
(0.208263 0.00296907 0)
(0.207699 0.00288039 0)
(0.207119 0.00279555 0)
(0.206524 0.00271429 0)
(0.205915 0.00263638 0)
(0.205293 0.0025616 0)
(0.204659 0.00248978 0)
(0.204013 0.00242073 0)
(0.203356 0.00235432 0)
(0.20269 0.00229038 0)
(0.202014 0.00222878 0)
(0.20133 0.0021694 0)
(0.200639 0.00211212 0)
(0.19994 0.00205683 0)
(0.199235 0.00200342 0)
(0.198524 0.0019518 0)
(0.197808 0.00190188 0)
(0.197088 0.00185357 0)
(0.196363 0.00180678 0)
(0.195636 0.00176144 0)
(0.194905 0.00171747 0)
(0.194171 0.0016748 0)
(0.193436 0.00163337 0)
(0.1927 0.0015931 0)
(0.191962 0.00155393 0)
(0.191224 0.00151581 0)
(0.190485 0.00147867 0)
(0.189747 0.00144245 0)
(0.18901 0.0014071 0)
(0.188274 0.00137256 0)
(0.18754 0.00133878 0)
(0.186808 0.0013057 0)
(0.186078 0.00127327 0)
(0.185351 0.00124144 0)
(0.184627 0.00121016 0)
(0.183908 0.00117937 0)
(0.183192 0.00114902 0)
(0.182481 0.00111907 0)
(0.181776 0.00108946 0)
(0.181075 0.00106014 0)
(0.180381 0.00103107 0)
(0.179694 0.00100218 0)
(0.179014 0.000973439 0)
(0.178341 0.000944794 0)
(0.177677 0.0009162 0)
(0.177022 0.000887611 0)
(0.176377 0.000858986 0)
(0.175741 0.000830287 0)
(0.175117 0.000801476 0)
(0.174504 0.000772523 0)
(0.173903 0.000743401 0)
(0.173316 0.00071409 0)
(0.172742 0.000684575 0)
(0.172183 0.000654855 0)
(0.171639 0.000624938 0)
(0.171111 0.000594846 0)
(0.170601 0.000564623 0)
(0.170107 0.000534338 0)
(0.169632 0.000504085 0)
(0.169175 0.000473998 0)
(0.168738 0.000444252 0)
(0.168319 0.000415076 0)
(0.16792 0.000386771 0)
(0.16754 0.000359767 0)
(0.16718 0.000334773 0)
(0.166837 0.000313295 0)
(0.166518 0.000298962 0)
(0.166161 0.000294509 0)
(0.200273 0.0021094 0)
(0.20113 0.00396219 0)
(0.202406 0.00528601 0)
(0.203764 0.00617343 0)
(0.205051 0.00678872 0)
(0.206267 0.00720014 0)
(0.207423 0.00742855 0)
(0.208502 0.0075012 0)
(0.209484 0.00745179 0)
(0.210359 0.00731026 0)
(0.211128 0.00710153 0)
(0.21179 0.00684732 0)
(0.212352 0.00656654 0)
(0.212821 0.00627482 0)
(0.213205 0.00598421 0)
(0.213515 0.00570335 0)
(0.213761 0.00543783 0)
(0.213951 0.00519074 0)
(0.214095 0.00496319 0)
(0.214198 0.00475494 0)
(0.214267 0.00456483 0)
(0.214306 0.00439122 0)
(0.214318 0.00423226 0)
(0.214305 0.00408612 0)
(0.21427 0.0039511 0)
(0.214214 0.00382568 0)
(0.214137 0.00370855 0)
(0.214042 0.00359863 0)
(0.213927 0.003495 0)
(0.213795 0.00339693 0)
(0.213645 0.0033038 0)
(0.213477 0.00321513 0)
(0.213293 0.00313049 0)
(0.213092 0.00304954 0)
(0.212876 0.002972 0)
(0.212643 0.0028976 0)
(0.212396 0.00282613 0)
(0.212134 0.00275739 0)
(0.211858 0.00269121 0)
(0.211567 0.00262743 0)
(0.211264 0.0025659 0)
(0.210947 0.00250649 0)
(0.210618 0.00244907 0)
(0.210276 0.00239353 0)
(0.209923 0.00233977 0)
(0.209559 0.00228768 0)
(0.209183 0.00223717 0)
(0.208797 0.00218816 0)
(0.208401 0.00214056 0)
(0.207995 0.00209429 0)
(0.207579 0.00204928 0)
(0.207155 0.00200546 0)
(0.206722 0.00196276 0)
(0.206281 0.00192112 0)
(0.205832 0.00188049 0)
(0.205376 0.00184079 0)
(0.204913 0.00180198 0)
(0.204443 0.001764 0)
(0.203968 0.00172679 0)
(0.203486 0.0016903 0)
(0.202999 0.00165449 0)
(0.202507 0.00161929 0)
(0.20201 0.00158466 0)
(0.201509 0.00155056 0)
(0.201005 0.00151691 0)
(0.200497 0.00148369 0)
(0.199986 0.00145083 0)
(0.199473 0.00141829 0)
(0.198957 0.00138602 0)
(0.19844 0.00135396 0)
(0.197923 0.00132206 0)
(0.197404 0.00129027 0)
(0.196886 0.00125854 0)
(0.196368 0.00122681 0)
(0.195851 0.00119504 0)
(0.195335 0.00116318 0)
(0.194822 0.00113117 0)
(0.194312 0.00109897 0)
(0.193805 0.00106653 0)
(0.193302 0.0010338 0)
(0.192804 0.00100076 0)
(0.192311 0.000967363 0)
(0.191825 0.000933583 0)
(0.191345 0.0008994 0)
(0.190873 0.000864804 0)
(0.19041 0.000829795 0)
(0.189956 0.000794389 0)
(0.189512 0.000758621 0)
(0.189078 0.000722551 0)
(0.188656 0.000686267 0)
(0.188246 0.000649894 0)
(0.187849 0.000613597 0)
(0.187465 0.000577593 0)
(0.187094 0.000542157 0)
(0.186736 0.000507644 0)
(0.186393 0.00047453 0)
(0.186063 0.000443529 0)
(0.185748 0.000415859 0)
(0.185452 0.000393341 0)
(0.185123 0.000372493 0)
(0.200197 0.00173912 0)
(0.200832 0.00333138 0)
(0.20183 0.00456554 0)
(0.20296 0.00544828 0)
(0.204081 0.00607671 0)
(0.205162 0.00651244 0)
(0.206201 0.0067805 0)
(0.207186 0.00690378 0)
(0.208098 0.00691019 0)
(0.208929 0.0068264 0)
(0.209675 0.00667525 0)
(0.210338 0.00647654 0)
(0.210921 0.00624753 0)
(0.211429 0.00600272 0)
(0.211869 0.00575358 0)
(0.212251 0.00550864 0)
(0.212581 0.00527375 0)
(0.212867 0.00505251 0)
(0.213117 0.0048467 0)
(0.213337 0.00465677 0)
(0.21353 0.00448224 0)
(0.213702 0.00432208 0)
(0.213855 0.00417496 0)
(0.213991 0.00403945 0)
(0.214113 0.00391417 0)
(0.21422 0.00379783 0)
(0.214315 0.00368931 0)
(0.214397 0.00358761 0)
(0.214467 0.00349192 0)
(0.214524 0.00340155 0)
(0.214571 0.0033159 0)
(0.214605 0.00323452 0)
(0.214628 0.00315698 0)
(0.21464 0.00308296 0)
(0.21464 0.00301215 0)
(0.214629 0.00294431 0)
(0.214607 0.00287921 0)
(0.214574 0.00281666 0)
(0.21453 0.00275648 0)
(0.214475 0.00269851 0)
(0.214409 0.0026426 0)
(0.214332 0.00258863 0)
(0.214244 0.00253647 0)
(0.214147 0.00248599 0)
(0.214038 0.00243711 0)
(0.21392 0.00238971 0)
(0.213791 0.00234371 0)
(0.213652 0.00229901 0)
(0.213504 0.00225555 0)
(0.213345 0.00221323 0)
(0.213177 0.00217199 0)
(0.213 0.00213175 0)
(0.212814 0.00209246 0)
(0.212618 0.00205405 0)
(0.212414 0.00201646 0)
(0.212201 0.00197963 0)
(0.21198 0.00194351 0)
(0.21175 0.00190804 0)
(0.211512 0.00187317 0)
(0.211267 0.00183884 0)
(0.211014 0.00180501 0)
(0.210754 0.00177162 0)
(0.210486 0.00173863 0)
(0.210212 0.00170598 0)
(0.209931 0.00167362 0)
(0.209644 0.0016415 0)
(0.209351 0.00160957 0)
(0.209052 0.00157777 0)
(0.208748 0.00154606 0)
(0.208439 0.00151438 0)
(0.208125 0.00148268 0)
(0.207807 0.00145089 0)
(0.207485 0.00141898 0)
(0.20716 0.00138687 0)
(0.206831 0.00135452 0)
(0.2065 0.00132188 0)
(0.206167 0.00128888 0)
(0.205831 0.00125548 0)
(0.205495 0.00122163 0)
(0.205158 0.00118728 0)
(0.204821 0.00115239 0)
(0.204484 0.00111692 0)
(0.204149 0.00108084 0)
(0.203814 0.00104414 0)
(0.203483 0.0010068 0)
(0.203154 0.000968823 0)
(0.202828 0.000930238 0)
(0.202507 0.000891087 0)
(0.20219 0.000851442 0)
(0.201878 0.000811409 0)
(0.201573 0.000771133 0)
(0.201273 0.000730808 0)
(0.200981 0.000690679 0)
(0.200696 0.000651055 0)
(0.200418 0.000612322 0)
(0.200147 0.000574972 0)
(0.199885 0.000539645 0)
(0.199633 0.000507138 0)
(0.199394 0.000477597 0)
(0.199125 0.000443508 0)
(0.200147 0.00145748 0)
(0.20063 0.00282779 0)
(0.201417 0.00395271 0)
(0.202354 0.0048039 0)
(0.203321 0.00543063 0)
(0.204275 0.00587975 0)
(0.205204 0.00617606 0)
(0.206093 0.00633917 0)
(0.206928 0.00639178 0)
(0.207698 0.00635688 0)
(0.208399 0.00625501 0)
(0.209031 0.00610414 0)
(0.209595 0.00592002 0)
(0.210096 0.00571604 0)
(0.210539 0.00550308 0)
(0.210932 0.00528947 0)
(0.211281 0.0050812 0)
(0.211592 0.00488226 0)
(0.211873 0.00469494 0)
(0.212128 0.0045203 0)
(0.212362 0.00435845 0)
(0.212579 0.00420889 0)
(0.212781 0.00407079 0)
(0.212971 0.00394311 0)
(0.213151 0.00382477 0)
(0.213322 0.00371475 0)
(0.213484 0.00361209 0)
(0.213638 0.00351594 0)
(0.213785 0.00342557 0)
(0.213925 0.00334036 0)
(0.214059 0.00325976 0)
(0.214185 0.00318333 0)
(0.214305 0.00311068 0)
(0.214418 0.00304147 0)
(0.214525 0.00297544 0)
(0.214624 0.00291231 0)
(0.214717 0.00285188 0)
(0.214803 0.00279395 0)
(0.214883 0.00273833 0)
(0.214955 0.00268488 0)
(0.215021 0.00263344 0)
(0.21508 0.00258387 0)
(0.215131 0.00253606 0)
(0.215176 0.00248988 0)
(0.215214 0.00244522 0)
(0.215244 0.00240199 0)
(0.215268 0.00236008 0)
(0.215284 0.00231941 0)
(0.215294 0.0022799 0)
(0.215296 0.00224146 0)
(0.215291 0.00220401 0)
(0.215278 0.0021675 0)
(0.215259 0.00213184 0)
(0.215232 0.00209698 0)
(0.215199 0.00206285 0)
(0.215158 0.00202939 0)
(0.21511 0.00199654 0)
(0.215055 0.00196424 0)
(0.214994 0.00193244 0)
(0.214925 0.00190109 0)
(0.214849 0.00187013 0)
(0.214767 0.0018395 0)
(0.214678 0.00180915 0)
(0.214582 0.00177904 0)
(0.21448 0.0017491 0)
(0.214371 0.00171927 0)
(0.214257 0.00168952 0)
(0.214136 0.00165977 0)
(0.214009 0.00162998 0)
(0.213876 0.00160009 0)
(0.213738 0.00157003 0)
(0.213594 0.00153976 0)
(0.213445 0.0015092 0)
(0.213291 0.00147831 0)
(0.213133 0.00144702 0)
(0.21297 0.00141528 0)
(0.212802 0.00138302 0)
(0.212631 0.00135019 0)
(0.212455 0.00131673 0)
(0.212277 0.0012826 0)
(0.212095 0.00124775 0)
(0.211911 0.00121214 0)
(0.211725 0.00117574 0)
(0.211537 0.00113852 0)
(0.211347 0.00110048 0)
(0.211156 0.00106162 0)
(0.210964 0.00102197 0)
(0.210772 0.000981569 0)
(0.210581 0.000940511 0)
(0.21039 0.000898908 0)
(0.210199 0.000856919 0)
(0.21001 0.000814754 0)
(0.209823 0.000772675 0)
(0.209638 0.000731011 0)
(0.209454 0.000690158 0)
(0.209274 0.000650588 0)
(0.209096 0.000612833 0)
(0.208922 0.000577276 0)
(0.208756 0.000542904 0)
(0.208564 0.000500816 0)
(0.200113 0.00123656 0)
(0.200487 0.00242 0)
(0.201115 0.00343237 0)
(0.201891 0.00423506 0)
(0.202721 0.00484732 0)
(0.203559 0.00530019 0)
(0.204386 0.00561494 0)
(0.205187 0.00580828 0)
(0.205948 0.00589858 0)
(0.206658 0.00590518 0)
(0.207311 0.00584612 0)
(0.207906 0.00573752 0)
(0.208443 0.00559359 0)
(0.208925 0.00542662 0)
(0.209358 0.00524677 0)
(0.209745 0.00506207 0)
(0.210092 0.00487853 0)
(0.210407 0.00470036 0)
(0.210693 0.00453028 0)
(0.210955 0.00436981 0)
(0.211199 0.00421957 0)
(0.211427 0.00407954 0)
(0.211642 0.00394932 0)
(0.211847 0.00382825 0)
(0.212043 0.00371555 0)
(0.212232 0.00361044 0)
(0.212415 0.00351215 0)
(0.212592 0.00341999 0)
(0.212765 0.00333332 0)
(0.212932 0.00325161 0)
(0.213096 0.00317436 0)
(0.213255 0.00310118 0)
(0.213411 0.00303169 0)
(0.213563 0.00296561 0)
(0.213711 0.00290264 0)
(0.213855 0.00284256 0)
(0.213996 0.00278515 0)
(0.214133 0.00273023 0)
(0.214266 0.00267761 0)
(0.214395 0.00262715 0)
(0.214521 0.00257869 0)
(0.214642 0.00253211 0)
(0.21476 0.00248727 0)
(0.214874 0.00244406 0)
(0.214983 0.00240238 0)
(0.215089 0.00236211 0)
(0.215191 0.00232316 0)
(0.215288 0.00228545 0)
(0.215381 0.00224888 0)
(0.21547 0.00221338 0)
(0.215554 0.00217886 0)
(0.215634 0.00214526 0)
(0.215709 0.0021125 0)
(0.21578 0.00208051 0)
(0.215846 0.00204924 0)
(0.215907 0.00201861 0)
(0.215964 0.00198856 0)
(0.216016 0.00195904 0)
(0.216063 0.00192999 0)
(0.216105 0.00190134 0)
(0.216142 0.00187305 0)
(0.216175 0.00184505 0)
(0.216202 0.00181729 0)
(0.216225 0.00178971 0)
(0.216242 0.00176225 0)
(0.216255 0.00173486 0)
(0.216263 0.00170748 0)
(0.216265 0.00168005 0)
(0.216263 0.00165251 0)
(0.216256 0.0016248 0)
(0.216244 0.00159686 0)
(0.216227 0.00156862 0)
(0.216206 0.00154002 0)
(0.216179 0.001511 0)
(0.216149 0.0014815 0)
(0.216113 0.00145145 0)
(0.216073 0.00142079 0)
(0.216029 0.00138946 0)
(0.21598 0.0013574 0)
(0.215928 0.00132455 0)
(0.215871 0.00129088 0)
(0.21581 0.00125633 0)
(0.215746 0.00122086 0)
(0.215679 0.00118447 0)
(0.215607 0.00114713 0)
(0.215533 0.00110885 0)
(0.215456 0.00106965 0)
(0.215376 0.0010296 0)
(0.215294 0.000988771 0)
(0.215209 0.000947288 0)
(0.215121 0.000905317 0)
(0.215032 0.000863072 0)
(0.214941 0.000820825 0)
(0.214848 0.000778905 0)
(0.214754 0.000737701 0)
(0.214659 0.000697652 0)
(0.214562 0.000659172 0)
(0.214466 0.000622348 0)
(0.214372 0.000585658 0)
(0.214256 0.000541075 0)
(0.200088 0.00105899 0)
(0.200384 0.00208517 0)
(0.20089 0.00298984 0)
(0.201534 0.00373482 0)
(0.202243 0.00432237 0)
(0.202976 0.00477038 0)
(0.20371 0.00509502 0)
(0.20443 0.0053101 0)
(0.205122 0.00543036 0)
(0.205774 0.00547172 0)
(0.206381 0.00544967 0)
(0.206939 0.0053784 0)
(0.207449 0.0052706 0)
(0.207911 0.00513741 0)
(0.208329 0.00498823 0)
(0.208707 0.00483069 0)
(0.209049 0.00467067 0)
(0.20936 0.00451251 0)
(0.209645 0.0043592 0)
(0.209907 0.00421263 0)
(0.210152 0.00407383 0)
(0.210382 0.0039432 0)
(0.210599 0.00382071 0)
(0.210806 0.00370604 0)
(0.211005 0.00359869 0)
(0.211198 0.00349813 0)
(0.211384 0.00340377 0)
(0.211566 0.00331505 0)
(0.211744 0.00323148 0)
(0.211918 0.00315258 0)
(0.212088 0.00307794 0)
(0.212256 0.0030072 0)
(0.212421 0.00294003 0)
(0.212584 0.00287617 0)
(0.212744 0.00281535 0)
(0.212901 0.00275736 0)
(0.213057 0.002702 0)
(0.21321 0.00264909 0)
(0.213361 0.00259846 0)
(0.21351 0.00254996 0)
(0.213657 0.00250345 0)
(0.213802 0.00245881 0)
(0.213945 0.00241591 0)
(0.214085 0.00237465 0)
(0.214224 0.0023349 0)
(0.21436 0.00229658 0)
(0.214494 0.00225958 0)
(0.214626 0.00222383 0)
(0.214755 0.00218923 0)
(0.214882 0.0021557 0)
(0.215007 0.00212316 0)
(0.215129 0.00209155 0)
(0.215249 0.00206079 0)
(0.215366 0.00203081 0)
(0.215481 0.00200155 0)
(0.215593 0.00197294 0)
(0.215702 0.00194491 0)
(0.215809 0.00191742 0)
(0.215913 0.0018904 0)
(0.216013 0.00186379 0)
(0.216111 0.00183753 0)
(0.216206 0.00181156 0)
(0.216298 0.00178583 0)
(0.216387 0.00176028 0)
(0.216472 0.00173484 0)
(0.216554 0.00170947 0)
(0.216633 0.00168409 0)
(0.216709 0.00165865 0)
(0.216781 0.00163308 0)
(0.21685 0.00160733 0)
(0.216915 0.00158133 0)
(0.216977 0.00155501 0)
(0.217035 0.00152831 0)
(0.21709 0.00150117 0)
(0.217141 0.00147351 0)
(0.217188 0.00144527 0)
(0.217232 0.00141639 0)
(0.217272 0.00138681 0)
(0.217308 0.00135646 0)
(0.217341 0.00132528 0)
(0.217369 0.00129323 0)
(0.217394 0.00126026 0)
(0.217416 0.00122633 0)
(0.217433 0.00119142 0)
(0.217447 0.00115552 0)
(0.217456 0.00111862 0)
(0.217462 0.00108076 0)
(0.217465 0.00104199 0)
(0.217463 0.0010024 0)
(0.217458 0.000962104 0)
(0.217449 0.000921269 0)
(0.217436 0.000880112 0)
(0.217419 0.000838898 0)
(0.217399 0.000797951 0)
(0.217375 0.00075764 0)
(0.217348 0.000718362 0)
(0.217318 0.000680444 0)
(0.217285 0.000643824 0)
(0.21725 0.00060704 0)
(0.2172 0.00056428 0)
(0.20007 0.00091347 0)
(0.200308 0.0018067 0)
(0.200719 0.00261203 0)
(0.201255 0.00329568 0)
(0.20186 0.00385131 0)
(0.202498 0.00428727 0)
(0.203148 0.00461456 0)
(0.203793 0.00484393 0)
(0.20442 0.00498706 0)
(0.205018 0.00505681 0)
(0.205581 0.00506617 0)
(0.206104 0.00502743 0)
(0.206586 0.00495179 0)
(0.207028 0.00484923 0)
(0.207431 0.00472832 0)
(0.207799 0.0045962 0)
(0.208134 0.00445856 0)
(0.208441 0.00431974 0)
(0.208723 0.00418288 0)
(0.208984 0.00405015 0)
(0.209228 0.0039229 0)
(0.209458 0.00380186 0)
(0.209675 0.00368731 0)
(0.209882 0.00357925 0)
(0.210081 0.00347744 0)
(0.210273 0.00338155 0)
(0.210459 0.00329118 0)
(0.210641 0.00320593 0)
(0.210818 0.0031254 0)
(0.210992 0.0030492 0)
(0.211163 0.00297701 0)
(0.211331 0.0029085 0)
(0.211496 0.00284341 0)
(0.21166 0.00278147 0)
(0.211821 0.00272247 0)
(0.211981 0.00266621 0)
(0.212139 0.0026125 0)
(0.212295 0.00256117 0)
(0.21245 0.00251207 0)
(0.212603 0.00246506 0)
(0.212755 0.00242001 0)
(0.212905 0.00237679 0)
(0.213054 0.00233529 0)
(0.213202 0.0022954 0)
(0.213349 0.00225702 0)
(0.213494 0.00222006 0)
(0.213638 0.00218441 0)
(0.213781 0.00215 0)
(0.213923 0.00211675 0)
(0.214063 0.00208456 0)
(0.214202 0.00205337 0)
(0.21434 0.00202311 0)
(0.214476 0.0019937 0)
(0.214611 0.00196508 0)
(0.214745 0.00193719 0)
(0.214877 0.00190996 0)
(0.215008 0.00188332 0)
(0.215138 0.00185723 0)
(0.215265 0.00183161 0)
(0.215392 0.00180642 0)
(0.215516 0.00178158 0)
(0.215639 0.00175706 0)
(0.21576 0.00173278 0)
(0.21588 0.00170868 0)
(0.215997 0.00168472 0)
(0.216113 0.00166083 0)
(0.216227 0.00163695 0)
(0.216339 0.00161302 0)
(0.216448 0.00158897 0)
(0.216556 0.00156475 0)
(0.216661 0.00154029 0)
(0.216764 0.00151553 0)
(0.216865 0.0014904 0)
(0.216963 0.00146483 0)
(0.217059 0.00143875 0)
(0.217152 0.00141212 0)
(0.217243 0.00138484 0)
(0.21733 0.00135687 0)
(0.217415 0.00132815 0)
(0.217497 0.00129861 0)
(0.217576 0.0012682 0)
(0.217651 0.00123688 0)
(0.217724 0.00120461 0)
(0.217793 0.00117137 0)
(0.217858 0.00113714 0)
(0.21792 0.00110193 0)
(0.217978 0.00106576 0)
(0.218032 0.0010287 0)
(0.218082 0.000990808 0)
(0.218128 0.000952222 0)
(0.21817 0.000913099 0)
(0.218208 0.000873649 0)
(0.218241 0.000834129 0)
(0.21827 0.000794846 0)
(0.218294 0.00075615 0)
(0.218314 0.000718397 0)
(0.21833 0.000681861 0)
(0.218342 0.000646474 0)