/*--------------------------------*- C++ -*----------------------------------*\
| =========                 |                                                 |
| \\      /  F ield         | OpenFOAM: The Open Source CFD Toolbox           |
|  \\    /   O peration     | Version:  2.3.0                                 |
|   \\  /    A nd           | Web:      www.OpenFOAM.org                      |
|    \\/     M anipulation  |                                                 |
\*---------------------------------------------------------------------------*/
FoamFile
{
    version     2.0;
    format      ascii;
    class       volScalarField;
    location    "0.8";
    object      p;
}
// * * * * * * * * * * * * * * * * * * * * * * * * * * * * * * * * * * * * * //

dimensions      [0 2 -2 0 0 0 0];

internalField   nonuniform List<scalar> 
2250
(
0.00164874
0.00160632
0.00140919
0.00117643
0.000979025
0.000829293
0.000711312
0.000604384
0.00049488
0.000377599
0.000252717
0.000122787
-8.80853e-06
-0.000138217
-0.000261092
-0.000372617
-0.000467859
-0.00054279
-0.000595085
-0.000624475
-0.000632709
-0.000623137
-0.000600026
-0.000567829
-0.000530611
-0.000491705
-0.000453585
-0.000417902
-0.000385617
-0.000357154
-0.00033253
-0.000311488
-0.000293613
-0.000278428
-0.000265453
-0.000254246
-0.000244418
-0.000235645
-0.000227661
-0.000220256
-0.000213263
-0.00020656
-0.000200063
-0.000193719
-0.000187498
-0.000181387
-0.000175381
-0.00016949
-0.000163719
-0.000158085
-0.000152596
-0.000147269
-0.000142109
-0.00013713
-0.000132332
-0.000127726
-0.000123306
-0.00011908
-0.000115036
-0.000111181
-0.000107497
-0.000103993
-0.000100647
-9.74673e-05
-9.44294e-05
-9.15459e-05
-8.87881e-05
-8.61745e-05
-8.36731e-05
-8.131e-05
-7.90495e-05
-7.69278e-05
-7.49056e-05
-7.30328e-05
-7.12673e-05
-6.96795e-05
-6.82281e-05
-6.70137e-05
-6.60007e-05
-6.53291e-05
-6.49598e-05
-6.50397e-05
-6.54274e-05
-6.60998e-05
-6.65286e-05
-6.62142e-05
-6.40667e-05
-5.9441e-05
-5.1802e-05
-4.19267e-05
-3.05176e-05
-1.89289e-05
-7.63168e-06
2.14821e-06
1.013e-05
1.49417e-05
1.67514e-05
1.48411e-05
1.05852e-05
3.57369e-06
0.00134305
0.00132048
0.00122327
0.00107757
0.000924572
0.00078872
0.000672898
0.000568174
0.000464314
0.000355239
0.0002394
0.000118222
-5.28006e-06
-0.000127232
-0.000243089
-0.000348095
-0.000438026
-0.000509499
-0.000560409
-0.000590288
-0.000600425
-0.000593647
-0.00057378
-0.000544979
-0.000511116
-0.000475376
-0.000440064
-0.000406722
-0.000376344
-0.000349402
-0.000325961
-0.000305822
-0.000288629
-0.00027396
-0.000261376
-0.000250468
-0.000240866
-0.00023227
-0.000224445
-0.000217191
-0.000210345
-0.000203788
-0.000197434
-0.00019123
-0.00018514
-0.000179154
-0.000173264
-0.000167481
-0.000161809
-0.000156266
-0.00015086
-0.00014561
-0.00014052
-0.000135606
-0.000130868
-0.000126318
-0.000121949
-0.000117771
-0.000113772
-0.00010996
-0.000106316
-0.000102851
-9.95414e-05
-9.63983e-05
-9.33944e-05
-9.05455e-05
-8.782e-05
-8.52397e-05
-8.27693e-05
-8.04386e-05
-7.82082e-05
-7.61185e-05
-7.41253e-05
-7.2284e-05
-7.05466e-05
-6.89897e-05
-6.75649e-05
-6.63802e-05
-6.53926e-05
-6.47521e-05
-6.44137e-05
-6.45405e-05
-6.49873e-05
-6.57493e-05
-6.62802e-05
-6.60759e-05
-6.39816e-05
-5.932e-05
-5.15269e-05
-4.14753e-05
-2.99176e-05
-1.82355e-05
-6.8575e-06
2.99965e-06
1.10705e-05
1.59299e-05
1.77177e-05
1.56891e-05
1.1241e-05
3.90347e-06
0.00114512
0.00113389
0.00108416
0.000993808
0.000878696
0.000758675
0.000645246
0.000539906
0.000438471
0.000335995
0.00022976
0.000119796
8.20638e-06
-0.00010165
-0.000205849
-0.000300536
-0.000382378
-0.000448781
-0.000498089
-0.000529791
-0.000544634
-0.000544526
-0.000532252
-0.000511032
-0.000484073
-0.00045424
-0.000423897
-0.000394724
-0.000367647
-0.000343119
-0.000321294
-0.000302137
-0.000285475
-0.000271051
-0.000258553
-0.000247658
-0.000238051
-0.00022944
-0.000221555
-0.000214215
-0.00020729
-0.000200685
-0.000194323
-0.000188152
-0.000182127
-0.00017623
-0.000170447
-0.000164783
-0.000159237
-0.000153824
-0.000148548
-0.000143427
-0.000138461
-0.000133669
-0.000129044
-0.000124603
-0.000120335
-0.000116253
-0.000112341
-0.000108612
-0.000105044
-0.00010165
-9.8403e-05
-9.53207e-05
-9.23698e-05
-8.95729e-05
-8.68921e-05
-8.43569e-05
-8.19245e-05
-7.96335e-05
-7.74359e-05
-7.53822e-05
-7.34181e-05
-7.16104e-05
-6.98993e-05
-6.83746e-05
-6.6974e-05
-6.58209e-05
-6.48577e-05
-6.4256e-05
-6.3962e-05
-6.4177e-05
-6.47601e-05
-6.57551e-05
-6.65905e-05
-6.67335e-05
-6.48521e-05
-6.01066e-05
-5.18313e-05
-4.11403e-05
-2.89967e-05
-1.69068e-05
-5.19621e-06
4.93293e-06
1.32814e-05
1.8285e-05
2.00148e-05
1.76363e-05
1.2603e-05
4.42742e-06
0.00100186
0.000993907
0.000962247
0.000901383
0.00081479
0.00071326
0.000608496
0.000507169
0.000409983
0.000314481
0.000218189
0.000120303
2.18999e-05
-7.46235e-05
-0.000166277
-0.000250066
-0.000323358
-0.00038409
-0.000430902
-0.000463267
-0.000481552
-0.000487001
-0.000481569
-0.000467675
-0.000447887
-0.000424644
-0.000400024
-0.000375574
-0.000352269
-0.000330658
-0.000311011
-0.000293422
-0.000277853
-0.000264172
-0.000252169
-0.000241602
-0.000232206
-0.000223733
-0.00021596
-0.000208729
-0.000201922
-0.000195458
-0.000189259
-0.000183273
-0.000177449
-0.000171763
-0.000166191
-0.000160737
-0.000155394
-0.000150178
-0.000145087
-0.000140141
-0.000135337
-0.000130696
-0.000126209
-0.000121896
-0.000117744
-0.000113771
-0.000109956
-0.000106319
-0.000102833
-9.95193e-05
-9.63441e-05
-9.33319e-05
-9.04445e-05
-8.77111e-05
-8.50878e-05
-8.26115e-05
-8.02324e-05
-7.79975e-05
-7.58506e-05
-7.38514e-05
-7.19363e-05
-7.01827e-05
-6.85198e-05
-6.70489e-05
-6.56953e-05
-6.45956e-05
-6.36802e-05
-6.31416e-05
-6.29277e-05
-6.32924e-05
-6.4138e-05
-6.55975e-05
-6.71119e-05
-6.80753e-05
-6.68222e-05
-6.20381e-05
-5.27645e-05
-4.05315e-05
-2.69611e-05
-1.38857e-05
-1.51677e-06
9.10834e-06
1.79133e-05
2.31885e-05
2.47825e-05
2.16638e-05
1.5291e-05
5.41565e-06
0.000880349
0.000871773
0.000847228
0.000801809
0.000735107
0.000652357
0.000561573
0.000469573
0.00037969
0.00029216
0.000205773
0.000119623
3.3976e-05
-4.978e-05
-0.000129579
-0.000203156
-0.000268401
-0.000323599
-0.000367564
-0.00039974
-0.000420242
-0.000429854
-0.000429936
-0.000422274
-0.000408859
-0.000391662
-0.000372422
-0.000352524
-0.000332953
-0.000314346
-0.000297069
-0.000281308
-0.000267108
-0.000254421
-0.00024312
-0.000233039
-0.00022398
-0.000215757
-0.000208198
-0.00020117
-0.000194562
-0.000188299
-0.000182306
-0.000176534
-0.000170933
-0.000165479
-0.000160144
-0.000154931
-0.000149828
-0.000144851
-0.000139993
-0.000135275
-0.000130691
-0.000126261
-0.000121974
-0.000117853
-0.000113879
-0.000110074
-0.000106415
-0.000102926
-9.95741e-05
-9.63865e-05
-9.3326e-05
-9.04222e-05
-8.76321e-05
-8.49913e-05
-8.24508e-05
-8.00542e-05
-7.77462e-05
-7.55811e-05
-7.34965e-05
-7.15604e-05
-6.97022e-05
-6.80079e-05
-6.63989e-05
-6.49852e-05
-6.36828e-05
-6.2637e-05
-6.17695e-05
-6.12877e-05
-6.11523e-05
-6.16827e-05
-6.28896e-05
-6.50912e-05
-6.78847e-05
-7.06325e-05
-7.11464e-05
-6.70047e-05
-5.62322e-05
-4.0751e-05
-2.37575e-05
-8.14719e-06
5.7694e-06
1.73988e-05
2.70157e-05
3.28786e-05
3.44562e-05
3.02305e-05
2.11888e-05
7.44988e-06
0.000770731
0.000760426
0.00073905
0.000702864
0.000650622
0.000584488
0.000509077
0.000429495
0.000349624
0.000271243
0.000194511
0.000119033
4.47654e-05
-2.76256e-05
-9.6835e-05
-0.000161217
-0.000219096
-0.000269027
-0.000309947
-0.000341284
-0.000362985
-0.000375525
-0.00037984
-0.000377232
-0.0003692
-0.000357287
-0.000342913
-0.000327286
-0.000311338
-0.000295736
-0.000280904
-0.000267091
-0.000254401
-0.000242852
-0.000232384
-0.000222904
-0.000214282
-0.000206394
-0.00019911
-0.000192328
-0.000185946
-0.0001799
-0.000174118
-0.000168562
-0.000163182
-0.000157961
-0.000152867
-0.000147904
-0.000143054
-0.000138332
-0.000133727
-0.000129259
-0.000124915
-0.000120719
-0.000116654
-0.000112744
-0.000108968
-0.000105352
-0.000101866
-9.85397e-05
-9.53367e-05
-9.22886e-05
-8.9354e-05
-8.65681e-05
-8.38835e-05
-8.13417e-05
-7.88891e-05
-7.65755e-05
-7.43407e-05
-7.22456e-05
-7.02229e-05
-6.8347e-05
-6.65429e-05
-6.49024e-05
-6.33422e-05
-6.19763e-05
-6.07153e-05
-5.97041e-05
-5.8858e-05
-5.83824e-05
-5.82503e-05
-5.88381e-05
-6.03268e-05
-6.33743e-05
-6.80659e-05
-7.4075e-05
-7.87342e-05
-7.76523e-05
-6.60977e-05
-4.53383e-05
-2.13307e-05
1.88875e-07
1.78836e-05
3.18139e-05
4.30804e-05
5.02225e-05
5.2442e-05
4.73558e-05
3.43116e-05
1.21345e-05
0.000670015
0.000658221
0.000638847
0.000609124
0.000567802
0.000515501
0.000454551
0.000388263
0.000319821
0.000251413
0.000184083
0.000118126
5.36597e-05
-8.94478e-06
-6.88935e-05
-0.000125054
-0.000176153
-0.000221001
-0.000258661
-0.000288561
-0.000310544
-0.000324875
-0.000332193
-0.000333435
-0.000329716
-0.000322223
-0.000312093
-0.000300343
-0.000287804
-0.000275116
-0.000262715
-0.00025089
-0.000239791
-0.000229488
-0.000219978
-0.00021123
-0.000203169
-0.000195724
-0.000188804
-0.000182334
-0.000176233
-0.000170447
-0.000164914
-0.000159604
-0.000154472
-0.000149505
-0.000144671
-0.000139974
-0.000135391
-0.000130938
-0.000126595
-0.000122385
-0.00011829
-0.000114335
-0.000110498
-0.000106806
-0.000103233
-9.98087e-05
-9.64997e-05
-9.3338e-05
-9.0285e-05
-8.73754e-05
-8.45646e-05
-8.18916e-05
-7.93058e-05
-7.68523e-05
-7.44744e-05
-7.22255e-05
-7.00424e-05
-6.79892e-05
-6.5996e-05
-6.41403e-05
-6.23447e-05
-6.07026e-05
-5.9129e-05
-5.77353e-05
-5.64285e-05
-5.53413e-05
-5.43778e-05
-5.37133e-05
-5.3301e-05
-5.35125e-05
-5.46621e-05
-5.78276e-05
-6.39821e-05
-7.38202e-05
-8.48895e-05
-9.05345e-05
-8.10448e-05
-5.49996e-05
-2.1975e-05
7.34095e-06
2.9726e-05
4.62506e-05
5.93234e-05
6.8128e-05
7.22989e-05
6.85937e-05
5.37813e-05
1.98982e-05
0.000577081
0.000564576
0.000547134
0.000522628
0.000489825
0.000448648
0.000400163
0.000346282
0.000289224
0.000230941
0.000172805
0.000115601
5.97654e-05
5.67518e-06
-4.61314e-05
-9.48958e-05
-0.000139697
-0.000179604
-0.000213813
-0.000241782
-0.000263285
-0.000278442
-0.000287672
-0.000291645
-0.000291182
-0.000287193
-0.000280571
-0.000272152
-0.000262644
-0.000252628
-0.000242523
-0.000232634
-0.000223141
-0.000214156
-0.000205716
-0.000197834
-0.000190479
-0.000183617
-0.000177187
-0.000171144
-0.000165424
-0.00015999
-0.000154788
-0.000149796
-0.000144973
-0.000140313
-0.000135784
-0.000131389
-0.000127104
-0.000122943
-0.000118886
-0.000114953
-0.000111123
-0.000107422
-0.000103826
-0.000100361
-9.70004e-05
-9.37727e-05
-9.06442e-05
-8.76465e-05
-8.47401e-05
-8.19595e-05
-7.92593e-05
-7.66778e-05
-7.41637e-05
-7.17607e-05
-6.94115e-05
-6.71671e-05
-6.49637e-05
-6.28619e-05
-6.07914e-05
-5.88242e-05
-5.68829e-05
-5.50519e-05
-5.32465e-05
-5.15617e-05
-4.99006e-05
-4.83645e-05
-4.68337e-05
-4.54113e-05
-4.3968e-05
-4.2719e-05
-4.18659e-05
-4.25366e-05
-4.63304e-05
-5.52334e-05
-6.81657e-05
-7.80901e-05
-7.33465e-05
-5.14142e-05
-2.43867e-05
-3.39568e-06
1.08512e-05
2.1654e-05
3.25071e-05
4.20925e-05
5.04798e-05
5.47253e-05
5.07076e-05
2.01794e-05
0.000491167
0.000478759
0.000463448
0.000443436
0.000417487
0.000385183
0.000346933
0.000303793
0.000257202
0.000208662
0.000159479
0.000110623
6.27573e-05
1.63602e-05
-2.81123e-05
-7.01271e-05
-0.000109037
-0.000144143
-0.000174791
-0.000200492
-0.000220992
-0.000236299
-0.000246658
-0.00025252
-0.000254472
-0.00025319
-0.000249365
-0.000243671
-0.000236702
-0.000228971
-0.000220872
-0.000212711
-0.000204689
-0.000196946
-0.000189552
-0.00018255
-0.000175936
-0.000169707
-0.000163825
-0.000158266
-0.000152983
-0.000147954
-0.000143133
-0.000138506
-0.000134036
-0.000129719
-0.000125525
-0.000121459
-0.000117496
-0.000113649
-0.000109896
-0.000106257
-0.00010271
-9.9278e-05
-9.59366e-05
-9.27106e-05
-8.95722e-05
-8.6547e-05
-8.36029e-05
-8.07663e-05
-7.80001e-05
-7.53324e-05
-7.27206e-05
-7.01952e-05
-6.77076e-05
-6.52913e-05
-6.2892e-05
-6.05472e-05
-5.81961e-05
-5.58817e-05
-5.35361e-05
-5.1209e-05
-4.8824e-05
-4.64366e-05
-4.39604e-05
-4.14518e-05
-3.88039e-05
-3.60592e-05
-3.30596e-05
-2.97897e-05
-2.59728e-05
-2.14702e-05
-1.59239e-05
-9.43935e-06
-2.48196e-06
3.35693e-06
6.15228e-06
2.92042e-06
-7.9462e-06
-2.66911e-05
-5.02161e-05
-7.3059e-05
-9.05642e-05
-0.000101425
-0.000105226
-0.000105655
-9.71258e-05
-7.62979e-05
-4.39764e-05
-1.41671e-05
0.000411502
0.000399886
0.000386795
0.000370587
0.000350131
0.000324906
0.000294982
0.000260924
0.000223641
0.000184203
0.000143671
0.00010296
6.27904e-05
2.37e-05
-1.38723e-05
-4.95088e-05
-8.27449e-05
-0.000113071
-0.000139982
-0.000163089
-0.000182156
-0.000197122
-0.000208092
-0.000215327
-0.000219203
-0.000220187
-0.000218784
-0.000215511
-0.000210851
-0.000205241
-0.000199041
-0.000192545
-0.000185966
-0.000179462
-0.000173131
-0.000167038
-0.000161207
-0.000155655
-0.00015037
-0.000145344
-0.000140549
-0.000135971
-0.000131579
-0.00012736
-0.000123286
-0.000119352
-0.000115532
-0.00011183
-0.000108224
-0.000104722
-0.000101306
-9.79894e-05
-9.47541e-05
-9.16159e-05
-8.85554e-05
-8.55896e-05
-8.26957e-05
-7.98907e-05
-7.71482e-05
-7.4485e-05
-7.18695e-05
-6.93188e-05
-6.67961e-05
-6.4318e-05
-6.18416e-05
-5.93835e-05
-5.68943e-05
-5.439e-05
-5.18133e-05
-4.91805e-05
-4.64244e-05
-4.35609e-05
-4.05111e-05
-3.72871e-05
-3.37954e-05
-3.00367e-05
-2.58882e-05
-2.13172e-05
-1.61253e-05
-1.01643e-05
-3.0064e-06
5.90335e-06
1.77506e-05
3.43056e-05
5.79833e-05
8.94003e-05
0.000122648
0.000138874
0.000111809
3.43094e-05
-6.68681e-05
-0.00016173
-0.000237829
-0.000295504
-0.000336418
-0.000355394
-0.000347264
-0.000305025
-0.000222971
-8.36907e-05
0.000354279
0.000343594
0.000331701
0.000317593
0.000300333
0.00027938
0.000254668
0.000226543
0.000195648
0.000162788
0.000128801
9.44586e-05
6.04081e-05
2.71616e-05
-4.86279e-06
-3.52966e-05
-6.37633e-05
-8.98731e-05
-0.00011327
-0.000133672
-0.000150877
-0.000164798
-0.000175462
-0.000183017
-0.00018771
-0.000189871
-0.000189879
-0.000188136
-0.000185032
-0.000180934
-0.000176152
-0.000170955
-0.000165542
-0.000160073
-0.000154652
-0.000149358
-0.000144229
-0.000139298
-0.000134564
-0.000130037
-0.000125698
-0.000121545
-0.000117554
-0.00011372
-0.000110017
-0.000106444
-0.000102979
-9.96245e-05
-9.63603e-05
-9.31949e-05
-9.01095e-05
-8.71161e-05
-8.41965e-05
-8.13654e-05
-7.86029e-05
-7.59252e-05
-7.33095e-05
-7.07722e-05
-6.82874e-05
-6.58709e-05
-6.34926e-05
-6.11681e-05
-5.88624e-05
-5.65902e-05
-5.43111e-05
-5.20385e-05
-4.97259e-05
-4.73849e-05
-4.49616e-05
-4.24654e-05
-3.98331e-05
-3.70708e-05
-3.41039e-05
-3.09308e-05
-2.74624e-05
-2.36814e-05
-1.94706e-05
-1.47751e-05
-9.40609e-06
-3.19335e-06
4.27947e-06
1.36134e-05
2.60647e-05
4.36424e-05
6.91126e-05
0.000103453
0.000140711
0.000160232
0.000131729
4.37089e-05
-7.53225e-05
-0.000188149
-0.000277926
-0.000343921
-0.000388946
-0.000410282
-0.000402076
-0.000355292
-0.000261765
-9.75598e-05
0.000311538
0.000301673
0.000290686
0.000277962
0.000262785
0.000244675
0.000223517
0.00019954
0.000173231
0.000145217
0.000116176
8.67472e-05
5.7494e-05
2.88811e-05
1.2971e-06
-2.49252e-05
-4.94721e-05
-7.20587e-05
-9.24512e-05
-0.00011045
-0.000125891
-0.000138677
-0.000148786
-0.000156294
-0.00016136
-0.00016422
-0.000165158
-0.000164491
-0.000162534
-0.000159593
-0.000155932
-0.00015179
-0.000147347
-0.000142759
-0.000138128
-0.00013354
-0.000129042
-0.000124675
-0.000120452
-0.000116387
-0.000112474
-0.000108716
-0.000105098
-0.000101617
-9.82545e-05
-9.501e-05
-9.18647e-05
-8.88212e-05
-8.58625e-05
-8.29943e-05
-8.02016e-05
-7.74927e-05
-7.4853e-05
-7.22933e-05
-6.97982e-05
-6.73798e-05
-6.5021e-05
-6.27341e-05
-6.05002e-05
-5.83311e-05
-5.62052e-05
-5.41339e-05
-5.20927e-05
-5.00926e-05
-4.81055e-05
-4.61414e-05
-4.4169e-05
-4.21971e-05
-4.01902e-05
-3.81561e-05
-3.60543e-05
-3.38905e-05
-3.16186e-05
-2.9238e-05
-2.6696e-05
-2.39804e-05
-2.10215e-05
-1.77848e-05
-1.41593e-05
-1.00485e-05
-5.2286e-06
5.90685e-07
7.93105e-06
1.7375e-05
2.91926e-05
4.18966e-05
5.02428e-05
4.37995e-05
1.18651e-05
-4.40934e-05
-0.000106442
-0.000158977
-0.000197175
-0.000222391
-0.000235708
-0.000235197
-0.000217731
-0.000179701
-0.000120336
-4.13539e-05
0.000267696
0.000258788
0.000248967
0.000237779
0.000224704
0.000209365
0.000191642
0.000171676
0.00014982
0.000126545
0.000102377
7.78279e-05
5.33632e-05
2.93839e-05
6.23144e-06
-1.58092e-05
-3.64966e-05
-5.56514e-05
-7.31244e-05
-8.87711e-05
-0.000102448
-0.000114045
-0.000123501
-0.000130832
-0.000136121
-0.000139525
-0.000141247
-0.000141527
-0.000140611
-0.000138747
-0.000136158
-0.000133046
-0.000129576
-0.000125889
-0.000122087
-0.000118257
-0.000114451
-0.000110717
-0.000107075
-0.000103546
-0.000100133
-9.68416e-05
-9.36652e-05
-9.06037e-05
-8.76451e-05
-8.47885e-05
-8.20211e-05
-7.93431e-05
-7.6743e-05
-7.42229e-05
-7.17728e-05
-6.93967e-05
-6.70856e-05
-6.48452e-05
-6.26664e-05
-6.05561e-05
-5.85046e-05
-5.65186e-05
-5.45881e-05
-5.27195e-05
-5.09011e-05
-4.91395e-05
-4.74216e-05
-4.57538e-05
-4.41216e-05
-4.25312e-05
-4.09674e-05
-3.94363e-05
-3.79222e-05
-3.64314e-05
-3.49481e-05
-3.34791e-05
-3.20088e-05
-3.05428e-05
-2.90672e-05
-2.75865e-05
-2.60854e-05
-2.45715e-05
-2.30303e-05
-2.14817e-05
-1.9948e-05
-1.85616e-05
-1.76734e-05
-1.82627e-05
-2.2397e-05
-3.31235e-05
-5.24761e-05
-7.64483e-05
-9.29415e-05
-9.16469e-05
-7.81187e-05
-6.33264e-05
-5.08557e-05
-3.89961e-05
-2.50775e-05
-7.65805e-06
1.09477e-05
2.70517e-05
3.48376e-05
1.70858e-05
0.000222697
0.000214933
0.000206513
0.000197068
0.0001862
0.000173624
0.000159236
0.000143121
0.000125525
0.000106792
8.73154e-05
6.74905e-05
4.76882e-05
2.82348e-05
9.40934e-06
-8.56471e-06
-2.55183e-05
-4.13432e-05
-5.59335e-05
-6.91696e-05
-8.09201e-05
-9.10697e-05
-9.95386e-05
-0.000106305
-0.000111406
-0.000114941
-0.000117051
-0.000117914
-0.00011772
-0.000116662
-0.000114923
-0.000112669
-0.000110042
-0.000107166
-0.000104135
-0.000101028
-9.79013e-05
-9.4799e-05
-9.17485e-05
-8.87717e-05
-8.58779e-05
-8.30756e-05
-8.03638e-05
-7.77443e-05
-7.52108e-05
-7.27626e-05
-7.0392e-05
-6.80982e-05
-6.58737e-05
-6.37186e-05
-6.16268e-05
-5.95995e-05
-5.76314e-05
-5.5725e-05
-5.38753e-05
-5.20857e-05
-5.03512e-05
-4.86751e-05
-4.70526e-05
-4.54868e-05
-4.39723e-05
-4.25126e-05
-4.11014e-05
-3.97428e-05
-3.84303e-05
-3.71681e-05
-3.59502e-05
-3.47819e-05
-3.36581e-05
-3.25857e-05
-3.1562e-05
-3.05964e-05
-2.96898e-05
-2.88551e-05
-2.81008e-05
-2.74489e-05
-2.69208e-05
-2.65636e-05
-2.64359e-05
-2.66549e-05
-2.7421e-05
-2.9139e-05
-3.25918e-05
-3.92068e-05
-5.1048e-05
-6.97321e-05
-9.36419e-05
-0.000113454
-0.000113425
-8.52867e-05
-4.01552e-05
4.25396e-06
3.98286e-05
6.72675e-05
8.94359e-05
0.000107101
0.00011663
0.000111726
8.63396e-05
3.28096e-05
0.000176516
0.000170121
0.000163306
0.000155771
0.000147204
0.000137386
0.000126233
0.000113798
0.00010025
8.58335e-05
7.08334e-05
5.55431e-05
4.02416e-05
2.51769e-05
1.05576e-05
-3.45647e-06
-1.6757e-05
-2.9266e-05
-4.0896e-05
-5.15428e-05
-6.10921e-05
-6.9441e-05
-7.65142e-05
-8.22801e-05
-8.67535e-05
-8.99964e-05
-9.21066e-05
-9.32102e-05
-9.34464e-05
-9.296e-05
-9.18896e-05
-9.03647e-05
-8.84984e-05
-8.63894e-05
-8.41173e-05
-8.17486e-05
-7.93329e-05
-7.69099e-05
-7.45066e-05
-7.21441e-05
-6.98344e-05
-6.75869e-05
-6.54046e-05
-6.32904e-05
-6.12424e-05
-5.92606e-05
-5.7341e-05
-5.54827e-05
-5.36816e-05
-5.19369e-05
-5.02449e-05
-4.86057e-05
-4.70163e-05
-4.54773e-05
-4.39862e-05
-4.25444e-05
-4.11495e-05
-3.98026e-05
-3.8502e-05
-3.72488e-05
-3.60408e-05
-3.48798e-05
-3.37631e-05
-3.26929e-05
-3.16671e-05
-3.06877e-05
-2.97537e-05
-2.88683e-05
-2.80316e-05
-2.72492e-05
-2.65233e-05
-2.58632e-05
-2.52757e-05
-2.47752e-05
-2.43792e-05
-2.41154e-05
-2.40212e-05
-2.41584e-05
-2.46175e-05
-2.55485e-05
-2.72021e-05
-2.99931e-05
-3.45688e-05
-4.17659e-05
-5.22162e-05
-6.53892e-05
-7.81137e-05
-8.35387e-05
-7.39113e-05
-4.74866e-05
-1.18145e-05
2.33867e-05
5.2919e-05
7.5812e-05
9.23894e-05
0.000102003
0.000102008
8.875e-05
6.06343e-05
2.08377e-05
0.000128947
0.000124145
0.000119104
0.000113595
0.000107386
0.000100314
9.23155e-05
8.34252e-05
7.37556e-05
6.34731e-05
5.27735e-05
4.18594e-05
3.09246e-05
2.01396e-05
9.64363e-06
-4.63955e-07
-1.0113e-05
-1.92389e-05
-2.77676e-05
-3.56152e-05
-4.26945e-05
-4.89291e-05
-5.42632e-05
-5.86715e-05
-6.21606e-05
-6.4769e-05
-6.65605e-05
-6.76184e-05
-6.80366e-05
-6.79135e-05
-6.73453e-05
-6.64224e-05
-6.52257e-05
-6.38262e-05
-6.22832e-05
-6.06462e-05
-5.89539e-05
-5.72372e-05
-5.55189e-05
-5.38164e-05
-5.21414e-05
-5.05023e-05
-4.8904e-05
-4.73497e-05
-4.584e-05
-4.43756e-05
-4.29552e-05
-4.15782e-05
-4.02428e-05
-3.89482e-05
-3.76928e-05
-3.64759e-05
-3.52964e-05
-3.4154e-05
-3.30478e-05
-3.19779e-05
-3.09436e-05
-2.99451e-05
-2.89819e-05
-2.80542e-05
-2.71617e-05
-2.63047e-05
-2.54826e-05
-2.46962e-05
-2.39455e-05
-2.32307e-05
-2.25532e-05
-2.1914e-05
-2.13153e-05
-2.07605e-05
-2.0253e-05
-1.97995e-05
-1.94081e-05
-1.90896e-05
-1.88618e-05
-1.87479e-05
-1.87837e-05
-1.90239e-05
-1.95507e-05
-2.04894e-05
-2.20309e-05
-2.44273e-05
-2.79494e-05
-3.27189e-05
-3.83683e-05
-4.3639e-05
-4.61575e-05
-4.28798e-05
-3.20613e-05
-1.52576e-05
3.47996e-06
2.08034e-05
3.53081e-05
4.65609e-05
5.4062e-05
5.68017e-05
5.3307e-05
4.27044e-05
2.63103e-05
8.2717e-06
7.94626e-05
7.64516e-05
7.33284e-05
6.99408e-05
6.61417e-05
6.18298e-05
5.69655e-05
5.15684e-05
4.57056e-05
3.94761e-05
3.29966e-05
2.6388e-05
1.97653e-05
1.32258e-05
6.84233e-06
6.68483e-07
-5.25007e-06
-1.08665e-05
-1.61287e-05
-2.09815e-05
-2.53715e-05
-2.9253e-05
-3.25942e-05
-3.53804e-05
-3.76153e-05
-3.93204e-05
-4.05314e-05
-4.12955e-05
-4.16662e-05
-4.17002e-05
-4.14538e-05
-4.09801e-05
-4.03275e-05
-3.9539e-05
-3.86511e-05
-3.76945e-05
-3.66939e-05
-3.56693e-05
-3.46358e-05
-3.36051e-05
-3.25856e-05
-3.15834e-05
-3.06025e-05
-2.96455e-05
-2.87137e-05
-2.78079e-05
-2.69281e-05
-2.60739e-05
-2.5245e-05
-2.44407e-05
-2.36605e-05
-2.2904e-05
-2.21706e-05
-2.14602e-05
-2.07724e-05
-2.0107e-05
-1.94641e-05
-1.88434e-05
-1.8245e-05
-1.76688e-05
-1.71148e-05
-1.65833e-05
-1.60739e-05
-1.5587e-05
-1.51232e-05
-1.4682e-05
-1.42649e-05
-1.38723e-05
-1.35056e-05
-1.31672e-05
-1.28595e-05
-1.25865e-05
-1.23542e-05
-1.21688e-05
-1.20429e-05
-1.19912e-05
-1.20375e-05
-1.22182e-05
-1.25851e-05
-1.3212e-05
-1.41934e-05
-1.56179e-05
-1.75064e-05
-1.97008e-05
-2.17301e-05
-2.2761e-05
-2.1757e-05
-1.79289e-05
-1.14439e-05
-3.58163e-06
4.12497e-06
1.08563e-05
1.64277e-05
2.06962e-05
2.32611e-05
2.35108e-05
2.09601e-05
1.58033e-05
9.20613e-06
2.80241e-06
2.7077e-05
2.60421e-05
2.49728e-05
2.38193e-05
2.25302e-05
2.107e-05
1.94246e-05
1.76004e-05
1.56203e-05
1.35177e-05
1.13319e-05
9.10393e-06
6.87203e-06
4.66572e-06
2.50712e-06
4.13836e-07
-1.59748e-06
-3.50909e-06
-5.30192e-06
-6.95657e-06
-8.455e-06
-9.78241e-06
-1.09286e-05
-1.1889e-05
-1.26648e-05
-1.32631e-05
-1.36952e-05
-1.39763e-05
-1.41237e-05
-1.41559e-05
-1.40913e-05
-1.39476e-05
-1.3741e-05
-1.34858e-05
-1.31947e-05
-1.2878e-05
-1.25445e-05
-1.22011e-05
-1.18531e-05
-1.15049e-05
-1.11594e-05
-1.08189e-05
-1.04849e-05
-1.01586e-05
-9.84044e-06
-9.53084e-06
-9.22988e-06
-8.9375e-06
-8.65368e-06
-8.37819e-06
-8.11091e-06
-7.85174e-06
-7.60048e-06
-7.35709e-06
-7.12149e-06
-6.89358e-06
-6.67346e-06
-6.46091e-06
-6.25611e-06
-6.05895e-06
-5.86948e-06
-5.68775e-06
-5.51372e-06
-5.34737e-06
-5.18912e-06
-5.0386e-06
-4.89642e-06
-4.76277e-06
-4.63804e-06
-4.5232e-06
-4.41901e-06
-4.32681e-06
-4.24882e-06
-4.18716e-06
-4.14616e-06
-4.13106e-06
-4.14992e-06
-4.21512e-06
-4.34386e-06
-4.55829e-06
-4.88258e-06
-5.32958e-06
-5.87814e-06
-6.44248e-06
-6.85001e-06
-6.85534e-06
-6.22226e-06
-4.85051e-06
-2.90295e-06
-7.44226e-07
1.29253e-06
3.06075e-06
4.52564e-06
5.62919e-06
6.23688e-06
6.18136e-06
5.39178e-06
4.00788e-06
2.34688e-06
6.88416e-07
0.000125557
0.000121437
0.000126116
0.000134848
0.000148463
0.000163277
0.00018149
0.000200526
0.000223411
0.00024767
0.000276585
0.00030744
0.00034375
0.000382654
0.000428134
0.000477372
0.000535163
0.000599024
0.000675174
0.000761914
0.000867692
0.000991498
0.00114243
0.00131453
0.00150222
0.000123783
0.000121225
0.000125853
0.000134516
0.000147519
0.00016225
0.000179949
0.000199145
0.000221494
0.000245994
0.000274195
0.000305286
0.000340641
0.000379763
0.000423976
0.000473336
0.000529312
0.000592822
0.000665664
0.000749809
0.000846724
0.000957695
0.00107879
0.00120177
0.00130043
0.000121433
0.000120757
0.000125246
0.00013373
0.000145931
0.00016053
0.000177682
0.00019692
0.000218781
0.00024325
0.00027082
0.000301686
0.000336205
0.000374824
0.000417885
0.000466223
0.000520307
0.000581449
0.000650107
0.000727479
0.000812561
0.000903603
0.000994114
0.00107432
0.00112756
0.000118712
0.000119453
0.000124054
0.00013225
0.000143765
0.000157983
0.000174662
0.000193667
0.000215108
0.000239214
0.00026619
0.000296399
0.000330035
0.000367569
0.000409247
0.000455691
0.000507216
0.000564412
0.000627217
0.0006952
0.000766548
0.000838033
0.000904201
0.000957764
0.000991728
0.000115528
0.000117226
0.000122023
0.000129949
0.000140883
0.000154562
0.000170716
0.000189263
0.000210192
0.000233696
0.000259929
0.000289183
0.000321658
0.00035767
0.000397438
0.000441245
0.000489187
0.000541182
0.000596664
0.000654467
0.000712554
0.000767897
0.000816514
0.000854087
0.000876258
0.000111786
0.000114016
0.000118965
0.000126656
0.000137076
0.000150131
0.000165648
0.000183538
0.000203775
0.000226452
0.000251704
0.000279716
0.000310661
0.000344701
0.000381941
0.000422377
0.000465824
0.00051181
0.000559491
0.000607535
0.000654073
0.000696678
0.000732529
0.000758763
0.000771935
0.000107305
0.000109758
0.000114736
0.000122188
0.000132114
0.000144489
0.000159238
0.000176285
0.000195599
0.000217208
0.000241192
0.000267645
0.000296654
0.000328249
0.000362375
0.00039883
0.000437227
0.000476933
0.000517028
0.000556259
0.000593042
0.000625489
0.000651589
0.000669078
0.000675324
0.00010187
0.000104354
0.000109221
0.000116369
0.000125766
0.0001374
0.000151246
0.000167258
0.000185404
0.000205672
0.000228074
0.000252618
0.000279288
0.000307996
0.000338558
0.000370653
0.000403801
0.000437332
0.000470375
0.000501842
0.000530447
0.000554734
0.000573154
0.00058394
0.000585133
9.52678e-05
9.76662e-05
0.000102294
0.000109026
0.000117804
0.0001286
0.000141403
0.000156186
0.000172915
0.00019155
0.000212044
0.000234328
0.000258297
0.000283774
0.000310496
0.000338086
0.000366043
0.000393729
0.000420373
0.000445075
0.000466832
0.000484554
0.000497038
0.000502919
0.000500711
8.72872e-05
8.95261e-05
9.38013e-05
9.99871e-05
0.00010801
0.000117831
0.000129429
0.00014278
0.000157843
0.000174555
0.000192827
0.000212536
0.000233517
0.000255543
0.000278312
0.000301438
0.00032444
0.000346746
0.000367703
0.000386593
0.000402661
0.000415134
0.000423155
0.000425725
0.000421577
7.98113e-05
8.18774e-05
8.5794e-05
9.14466e-05
9.87595e-05
0.000107687
0.000118199
0.000130262
0.000143827
0.00015882
0.000175135
0.000192628
0.000211114
0.000230354
0.000250046
0.000269819
0.000289233
0.000307781
0.000324906
0.00034002
0.000352531
0.000361817
0.000367202
0.000367966
0.000363422
7.34098e-05
7.53186e-05
7.89235e-05
8.41184e-05
9.08278e-05
9.90026e-05
0.000108605
0.000119596
0.000131919
0.000145496
0.000160212
0.000175921
0.000192429
0.000209501
0.000226841
0.000244104
0.000260885
0.000276736
0.000291174
0.000303713
0.000313851
0.000321073
0.000324847
0.000324659
0.000320027
6.59457e-05
6.76657e-05
7.09064e-05
7.55704e-05
8.15837e-05
8.88956e-05
9.74619e-05
0.000107239
0.000118168
0.000130166
0.000143121
0.000156886
0.000171274
0.000186058
0.000200964
0.000215675
0.000229834
0.000243054
0.000254936
0.000265078
0.000273072
0.000278511
0.000280999
0.000280149
0.000275532
5.72759e-05
5.87732e-05
6.15911e-05
6.56413e-05
7.0854e-05
7.71785e-05
8.45685e-05
9.29783e-05
0.000102348
0.000112599
0.000123623
0.000135285
0.000147412
0.000159796
0.000172192
0.000184324
0.000195884
0.000206554
0.000216014
0.000223944
0.000230027
0.000233956
0.000235429
0.000234134
0.000229707
4.7254e-05
4.84915e-05
5.082e-05
5.41625e-05
5.8457e-05
6.36556e-05
6.97143e-05
7.65889e-05
8.42241e-05
9.2549e-05
0.000101469
0.000110865
0.000120588
0.000130462
0.000140279
0.000149809
0.000158803
0.000167013
0.000174194
0.000180105
0.000184511
0.000187182
0.000187891
0.000186396
0.000182428
3.57403e-05
3.66777e-05
3.8442e-05
4.09721e-05
4.42177e-05
4.81383e-05
5.26964e-05
5.78543e-05
6.35665e-05
6.97754e-05
7.64058e-05
8.33643e-05
9.05348e-05
9.77807e-05
0.000104943
0.000111847
0.000118307
0.000124145
0.000129187
0.000133265
0.000136213
0.00013787
0.000138077
0.000136672
0.00013348
2.2619e-05
2.32128e-05
2.43314e-05
2.59346e-05
2.79889e-05
3.0466e-05
3.334e-05
3.65849e-05
4.01699e-05
4.40568e-05
4.81966e-05
5.25283e-05
5.69776e-05
6.14568e-05
6.58654e-05
7.00924e-05
7.40227e-05
7.75462e-05
8.05574e-05
8.29539e-05
8.46367e-05
8.55102e-05
8.54821e-05
8.44624e-05
8.23554e-05
7.82354e-06
8.02853e-06
8.41616e-06
8.97189e-06
9.68348e-06
1.05405e-05
1.15333e-05
1.26525e-05
1.38871e-05
1.52233e-05
1.66439e-05
1.81276e-05
1.96483e-05
2.11758e-05
2.26758e-05
2.41111e-05
2.54415e-05
2.66289e-05
2.76368e-05
2.84307e-05
2.89768e-05
2.92427e-05
2.91976e-05
2.88142e-05
2.8071e-05
)
;

boundaryField
{
    top
    {
        type            fixedValue;
        value           uniform 0;
    }
    inlet
    {
        type            zeroGradient;
    }
    outlet
    {
        type            fixedValue;
        value           uniform 0;
    }
    plate
    {
        type            zeroGradient;
    }
    symmBound
    {
        type            zeroGradient;
    }
    frontAndBack
    {
        type            empty;
    }
}


// ************************************************************************* //
