/*--------------------------------*- C++ -*----------------------------------*\
| =========                 |                                                 |
| \\      /  F ield         | OpenFOAM: The Open Source CFD Toolbox           |
|  \\    /   O peration     | Version:  2.3.0                                 |
|   \\  /    A nd           | Web:      www.OpenFOAM.org                      |
|    \\/     M anipulation  |                                                 |
\*---------------------------------------------------------------------------*/
FoamFile
{
    version     2.0;
    format      ascii;
    class       volVectorField;
    location    "0.8";
    object      U;
}
// * * * * * * * * * * * * * * * * * * * * * * * * * * * * * * * * * * * * * //

dimensions      [0 1 -1 0 0 0 0];

internalField   nonuniform List<vector> 
2250
(
(0.187409 0.00257286 1.70027e-06)
(0.178605 0.00352331 4.92493e-06)
(0.170596 0.00415138 7.41295e-06)
(0.162705 0.00439058 8.92407e-06)
(0.154546 0.00439039 9.73648e-06)
(0.146056 0.00429855 1.01682e-05)
(0.137339 0.00419232 1.03375e-05)
(0.128547 0.0040843 1.01605e-05)
(0.119806 0.003958 9.4719e-06)
(0.111203 0.00379493 8.13217e-06)
(0.102808 0.00358529 6.06833e-06)
(0.0946853 0.0033279 3.27197e-06)
(0.0869111 0.00302671 -2.1092e-07)
(0.0795702 0.00268714 -4.28155e-06)
(0.0727622 0.00231622 -8.78161e-06)
(0.0665575 0.00191782 -1.34934e-05)
(0.0610146 0.00150326 -1.81555e-05)
(0.0561674 0.00109331 -2.24933e-05)
(0.0520202 0.000713402 -2.62571e-05)
(0.0485445 0.000386306 -2.92594e-05)
(0.0456846 0.000126095 -3.14007e-05)
(0.0433652 -6.39719e-05 -3.26791e-05)
(0.0415027 -0.000189438 -3.31778e-05)
(0.0400117 -0.000260485 -3.30381e-05)
(0.0388119 -0.000288572 -3.24274e-05)
(0.0378311 -0.00028441 -3.15115e-05)
(0.0370082 -0.000258539 -3.04342e-05)
(0.0362961 -0.000221233 -2.9311e-05)
(0.0356577 -0.000179531 -2.8231e-05)
(0.0350643 -0.000137917 -2.72543e-05)
(0.0344963 -9.93959e-05 -2.64148e-05)
(0.0339403 -6.573e-05 -2.57251e-05)
(0.0333895 -3.77062e-05 -2.51818e-05)
(0.0328405 -1.52979e-05 -2.47718e-05)
(0.0322934 1.90022e-06 -2.44759e-05)
(0.0317491 1.45358e-05 -2.42726e-05)
(0.0312104 2.32338e-05 -2.414e-05)
(0.0306792 2.86478e-05 -2.40581e-05)
(0.0301586 3.17476e-05 -2.401e-05)
(0.0296492 3.33253e-05 -2.39801e-05)
(0.0291537 3.38307e-05 -2.3955e-05)
(0.0286724 3.36861e-05 -2.39241e-05)
(0.0282074 3.30915e-05 -2.38796e-05)
(0.027758 3.22636e-05 -2.38165e-05)
(0.0273258 3.12205e-05 -2.37315e-05)
(0.0269089 3.00869e-05 -2.36237e-05)
(0.0265091 2.88236e-05 -2.34927e-05)
(0.0261235 2.7549e-05 -2.33405e-05)
(0.025754 2.61996e-05 -2.31683e-05)
(0.0253972 2.48981e-05 -2.29792e-05)
(0.0250553 2.35541e-05 -2.27754e-05)
(0.0247243 2.22977e-05 -2.25606e-05)
(0.0244071 2.10115e-05 -2.23367e-05)
(0.024099 1.98397e-05 -2.21076e-05)
(0.0238035 1.8638e-05 -2.18746e-05)
(0.0235156 1.75698e-05 -2.16415e-05)
(0.0232394 1.64618e-05 -2.14088e-05)
(0.0229692 1.55028e-05 -2.11799e-05)
(0.0227103 1.44862e-05 -2.09544e-05)
(0.0224558 1.36329e-05 -2.07355e-05)
(0.0222125 1.26986e-05 -2.05218e-05)
(0.0219721 1.19431e-05 -2.03167e-05)
(0.021743 1.10787e-05 -2.01175e-05)
(0.0215154 1.04119e-05 -1.99282e-05)
(0.0212996 9.60432e-06 -1.97449e-05)
(0.0210838 9.01762e-06 -1.95722e-05)
(0.0208805 8.25417e-06 -1.94054e-05)
(0.0206756 7.74084e-06 -1.92503e-05)
(0.0204842 7.00989e-06 -1.91008e-05)
(0.0202895 6.56538e-06 -1.89648e-05)
(0.0201097 5.85634e-06 -1.8835e-05)
(0.0199245 5.4785e-06 -1.87219e-05)
(0.0197561 4.78132e-06 -1.8617e-05)
(0.0195797 4.47049e-06 -1.85348e-05)
(0.0194225 3.77458e-06 -1.84657e-05)
(0.0192543 3.53234e-06 -1.84307e-05)
(0.0191083 2.82447e-06 -1.84201e-05)
(0.0189478 2.64806e-06 -1.84649e-05)
(0.0188132 1.90424e-06 -1.85578e-05)
(0.0186599 1.77702e-06 -1.87437e-05)
(0.0185374 9.55698e-07 -1.90162e-05)
(0.018391 8.62218e-07 -1.94269e-05)
(0.0182817 -3.34448e-08 -1.99402e-05)
(0.0181421 2.66798e-08 -2.05574e-05)
(0.0180463 -7.2533e-07 -2.11136e-05)
(0.0179106 -1.76587e-07 -2.1442e-05)
(0.0178255 -5.8476e-07 -2.11583e-05)
(0.0176875 3.57474e-07 -2.00044e-05)
(0.0176098 -3.20663e-07 -1.77421e-05)
(0.0174669 2.32599e-07 -1.45973e-05)
(0.0174006 -1.32729e-06 -1.07819e-05)
(0.0172557 -1.22278e-06 -6.75899e-06)
(0.017208 -3.47524e-06 -2.68875e-06)
(0.0170629 -3.47913e-06 9.65187e-07)
(0.0170394 -6.15254e-06 4.06893e-06)
(0.0168923 -5.72253e-06 6.03937e-06)
(0.0168963 -8.15851e-06 6.87061e-06)
(0.0167387 -5.97184e-06 6.19928e-06)
(0.0167658 -6.62196e-06 4.51413e-06)
(0.0165762 3.67036e-06 1.56453e-06)
(0.193834 0.00472052 1.15921e-06)
(0.193539 0.00625076 3.4224e-06)
(0.193246 0.00736916 5.70339e-06)
(0.192837 0.00795444 7.60677e-06)
(0.192118 0.00818 8.83562e-06)
(0.19096 0.00824803 9.40473e-06)
(0.18934 0.00828005 9.47834e-06)
(0.187299 0.0083087 9.17351e-06)
(0.184899 0.00831733 8.48286e-06)
(0.182186 0.00827855 7.31563e-06)
(0.179197 0.00817355 5.57692e-06)
(0.175957 0.00799333 3.2204e-06)
(0.172495 0.0077358 2.66747e-07)
(0.168841 0.00740072 -3.19757e-06)
(0.165038 0.00698995 -7.02805e-06)
(0.16112 0.00650634 -1.10436e-05)
(0.157133 0.00595908 -1.50548e-05)
(0.153121 0.00536546 -1.88683e-05)
(0.149127 0.0047491 -2.2298e-05)
(0.145188 0.00413635 -2.51854e-05)
(0.141336 0.0035519 -2.74223e-05)
(0.137596 0.00301545 -2.89667e-05)
(0.133986 0.00253962 -2.9846e-05)
(0.13052 0.0021302 -3.01453e-05)
(0.127206 0.0017871 -2.9985e-05)
(0.124046 0.00150644 -2.94984e-05)
(0.121035 0.00128181 -2.8814e-05)
(0.11817 0.00110683 -2.80399e-05)
(0.115443 0.000973875 -2.72533e-05)
(0.112847 0.000874748 -2.65068e-05)
(0.110371 0.000801158 -2.58344e-05)
(0.108006 0.000745912 -2.52565e-05)
(0.105744 0.000703032 -2.47822e-05)
(0.103577 0.000668313 -2.44108e-05)
(0.101501 0.000638609 -2.41338e-05)
(0.0995076 0.000612119 -2.39377e-05)
(0.0975949 0.000587409 -2.38058e-05)
(0.095757 0.000563919 -2.37206e-05)
(0.0939931 0.000540731 -2.36639e-05)
(0.0922957 0.000517428 -2.36226e-05)
(0.0906661 0.000493688 -2.35865e-05)
(0.0890965 0.000469846 -2.35483e-05)
(0.0875895 0.000446063 -2.35009e-05)
(0.0861365 0.000422895 -2.34396e-05)
(0.0847413 0.000400423 -2.336e-05)
(0.0833943 0.000379078 -2.32605e-05)
(0.0821005 0.000358738 -2.314e-05)
(0.0808491 0.000339729 -2.29997e-05)
(0.0796467 0.000321786 -2.28402e-05)
(0.0784812 0.0003052 -2.26647e-05)
(0.0773608 0.000289599 -2.24744e-05)
(0.0762718 0.000275282 -2.22732e-05)
(0.0752248 0.000261791 -2.20625e-05)
(0.074204 0.000249463 -2.18464e-05)
(0.0732226 0.000237766 -2.16256e-05)
(0.0722626 0.000227105 -2.14044e-05)
(0.0713402 0.000216875 -2.11826e-05)
(0.0704344 0.000207569 -2.09644e-05)
(0.0695653 0.000198507 -2.07485e-05)
(0.0687082 0.000190288 -2.05392e-05)
(0.0678877 0.000182139 -2.03339e-05)
(0.0670746 0.000174785 -2.01373e-05)
(0.0662989 0.000167344 -1.99455e-05)
(0.0655258 0.000160684 -1.97639e-05)
(0.0647916 0.000153794 -1.95871e-05)
(0.0640552 0.000147702 -1.94216e-05)
(0.06336 0.000141243 -1.92607e-05)
(0.0626571 0.000135633 -1.91125e-05)
(0.061999 0.000129519 -1.89686e-05)
(0.0613269 0.000124331 -1.88396e-05)
(0.0607043 0.000118498 -1.87153e-05)
(0.0600604 0.000113699 -1.86096e-05)
(0.0594721 0.000108098 -1.85104e-05)
(0.058854 0.000103669 -1.84365e-05)
(0.0582991 9.82541e-05 -1.83736e-05)
(0.0577044 9.41843e-05 -1.8348e-05)
(0.0571825 8.89083e-05 -1.83445e-05)
(0.0566088 8.51749e-05 -1.84004e-05)
(0.0561198 7.99601e-05 -1.85025e-05)
(0.0555647 7.65013e-05 -1.87049e-05)
(0.0551094 7.12238e-05 -1.89972e-05)
(0.0545708 6.7989e-05 -1.94477e-05)
(0.0541506 6.26829e-05 -2.00213e-05)
(0.0536259 6.00883e-05 -2.07404e-05)
(0.053242 5.55768e-05 -2.14268e-05)
(0.0527259 5.4897e-05 -2.19026e-05)
(0.0523763 5.21076e-05 -2.17023e-05)
(0.0518594 5.31211e-05 -2.04982e-05)
(0.0515421 4.98212e-05 -1.79987e-05)
(0.0510183 4.93261e-05 -1.45364e-05)
(0.05074 4.2963e-05 -1.04112e-05)
(0.0502084 4.06191e-05 -6.1469e-06)
(0.0499787 3.215e-05 -1.85867e-06)
(0.0494348 2.93933e-05 1.99026e-06)
(0.0492623 1.9885e-05 5.29271e-06)
(0.048697 1.82763e-05 7.38543e-06)
(0.0485899 9.56333e-06 8.22162e-06)
(0.0479858 1.32447e-05 7.38158e-06)
(0.0479468 9.60752e-06 5.3842e-06)
(0.0472684 2.97006e-05 1.90627e-06)
(0.194756 0.00471347 8.83507e-07)
(0.194785 0.00569942 2.62698e-06)
(0.194992 0.00658163 4.50517e-06)
(0.195373 0.00722572 6.34312e-06)
(0.195832 0.00763375 7.76582e-06)
(0.196249 0.00789511 8.51786e-06)
(0.19655 0.00809864 8.61647e-06)
(0.196708 0.00828752 8.23449e-06)
(0.19673 0.00846124 7.51636e-06)
(0.196626 0.00859874 6.49379e-06)
(0.196403 0.00867761 5.12117e-06)
(0.196052 0.00868197 3.34886e-06)
(0.195565 0.00860265 1.17123e-06)
(0.194924 0.0084355 -1.3629e-06)
(0.194122 0.00818026 -4.17028e-06)
(0.193148 0.00784245 -7.15399e-06)
(0.192006 0.00743284 -1.02086e-05)
(0.190699 0.00696775 -1.32287e-05)
(0.189242 0.0064678 -1.61095e-05)
(0.187648 0.00595614 -1.87481e-05)
(0.185938 0.00545503 -2.10498e-05)
(0.184132 0.00498337 -2.29383e-05)
(0.182253 0.00455394 -2.43683e-05)
(0.180319 0.00417349 -2.53352e-05)
(0.17835 0.00384278 -2.58762e-05)
(0.176359 0.00355901 -2.60645e-05)
(0.174358 0.00331697 -2.59986e-05)
(0.172353 0.00311178 -2.57716e-05)
(0.170352 0.00293761 -2.54428e-05)
(0.168354 0.00278854 -2.50549e-05)
(0.166362 0.00265849 -2.46431e-05)
(0.164375 0.00254246 -2.42396e-05)
(0.162395 0.00243613 -2.38702e-05)
(0.160421 0.00233671 -2.3553e-05)
(0.158457 0.00224194 -2.32958e-05)
(0.156499 0.00215083 -2.30986e-05)
(0.154555 0.00206237 -2.29532e-05)
(0.152619 0.00197646 -2.28466e-05)
(0.150701 0.00189242 -2.27611e-05)
(0.148793 0.00181019 -2.26879e-05)
(0.146908 0.00172943 -2.2622e-05)
(0.145035 0.00165058 -2.25608e-05)
(0.14319 0.00157365 -2.24993e-05)
(0.14136 0.00149928 -2.24336e-05)
(0.139562 0.00142744 -2.23579e-05)
(0.137781 0.0013587 -2.22696e-05)
(0.136035 0.00129281 -2.21652e-05)
(0.134308 0.00123025 -2.20453e-05)
(0.132619 0.0011706 -2.19086e-05)
(0.130949 0.0011143 -2.17581e-05)
(0.129321 0.00106079 -2.15934e-05)
(0.127709 0.00101051 -2.14185e-05)
(0.126143 0.000962763 -2.12333e-05)
(0.124592 0.000918034 -2.10426e-05)
(0.123088 0.000875525 -2.08454e-05)
(0.121596 0.000835773 -2.06472e-05)
(0.120155 0.000797886 -2.04462e-05)
(0.118721 0.000762501 -2.02481e-05)
(0.117341 0.000728623 -2.005e-05)
(0.115964 0.000697014 -1.98579e-05)
(0.114645 0.00066657 -1.96676e-05)
(0.113322 0.000638204 -1.94857e-05)
(0.112062 0.000610685 -1.93064e-05)
(0.110791 0.000585094 -1.91374e-05)
(0.109587 0.00056006 -1.89711e-05)
(0.108365 0.00053685 -1.88168e-05)
(0.107217 0.00051393 -1.86649e-05)
(0.10604 0.000492776 -1.85269e-05)
(0.104946 0.000471659 -1.8391e-05)
(0.103812 0.000452294 -1.8272e-05)
(0.102771 0.000432722 -1.81553e-05)
(0.101676 0.000414927 -1.80599e-05)
(0.100687 0.00039668 -1.79685e-05)
(0.0996283 0.000380278 -1.79056e-05)
(0.0986904 0.000363162 -1.78512e-05)
(0.0976641 0.000348 -1.7838e-05)
(0.0967778 0.000331831 -1.78437e-05)
(0.0957803 0.000317748 -1.79136e-05)
(0.094946 0.000302309 -1.80271e-05)
(0.0939735 0.000289081 -1.82514e-05)
(0.0931929 0.000274072 -1.85754e-05)
(0.0922416 0.000261474 -1.90988e-05)
(0.0915173 0.000246869 -1.98088e-05)
(0.0905831 0.000235577 -2.07819e-05)
(0.0899179 0.000223079 -2.18463e-05)
(0.0889935 0.000215928 -2.27895e-05)
(0.0883868 0.000208122 -2.29505e-05)
(0.087459 0.000205246 -2.1726e-05)
(0.08691 0.000197662 -1.86338e-05)
(0.0859695 0.000191431 -1.42422e-05)
(0.0854883 0.000177584 -9.22092e-06)
(0.0845314 0.000166575 -4.30076e-06)
(0.0841316 0.000148939 4.76511e-07)
(0.0831496 0.000136885 4.72468e-06)
(0.0828434 0.000118288 8.41799e-06)
(0.0818223 0.000108076 1.07678e-05)
(0.0816222 9.16742e-05 1.15763e-05)
(0.0805397 8.95812e-05 1.02657e-05)
(0.0804521 8.52868e-05 7.35404e-06)
(0.079266 0.000103942 2.58277e-06)
(0.195483 0.00456061 6.91012e-07)
(0.195506 0.00525966 2.02899e-06)
(0.19565 0.00594137 3.42597e-06)
(0.195941 0.00653277 4.86287e-06)
(0.196364 0.00699266 6.13813e-06)
(0.196859 0.00733411 6.97594e-06)
(0.197362 0.00759861 7.2429e-06)
(0.197835 0.00782172 6.99972e-06)
(0.19827 0.00801765 6.39718e-06)
(0.198674 0.00818092 5.56001e-06)
(0.199056 0.00829663 4.53123e-06)
(0.199414 0.00835027 3.2968e-06)
(0.199739 0.00833147 1.83426e-06)
(0.200013 0.00823553 1.3907e-07)
(0.200221 0.0080628 -1.77193e-06)
(0.200342 0.00781888 -3.86366e-06)
(0.200367 0.00751339 -6.08583e-06)
(0.200282 0.00715955 -8.38088e-06)
(0.200085 0.00677307 -1.06868e-05)
(0.199773 0.00637133 -1.29364e-05)
(0.199354 0.00597125 -1.50565e-05)
(0.198834 0.0055879 -1.69734e-05)
(0.198227 0.00523256 -1.86226e-05)
(0.197542 0.00491243 -1.99624e-05)
(0.196799 0.00463033 -2.09816e-05)
(0.196003 0.00438592 -2.16996e-05)
(0.195172 0.00417621 -2.21505e-05)
(0.194305 0.00399655 -2.23789e-05)
(0.193415 0.00384169 -2.244e-05)
(0.192497 0.00370698 -2.23834e-05)
(0.19156 0.00358788 -2.22495e-05)
(0.190594 0.00348073 -2.2072e-05)
(0.189611 0.0033821 -2.18776e-05)
(0.188599 0.00328953 -2.16873e-05)
(0.18757 0.0032008 -2.15139e-05)
(0.186509 0.00311464 -2.13644e-05)
(0.185432 0.0030298 -2.12381e-05)
(0.184323 0.00294582 -2.11331e-05)
(0.183198 0.00286218 -2.10472e-05)
(0.18204 0.00277911 -2.09771e-05)
(0.180871 0.0026964 -2.09171e-05)
(0.179668 0.00261447 -2.08645e-05)
(0.178458 0.0025332 -2.08139e-05)
(0.177214 0.00245312 -2.07624e-05)
(0.175968 0.00237411 -2.07041e-05)
(0.17469 0.0022967 -2.06367e-05)
(0.173414 0.00222068 -2.05558e-05)
(0.172107 0.00214655 -2.04619e-05)
(0.170807 0.00207401 -2.03526e-05)
(0.169475 0.00200353 -2.02308e-05)
(0.168159 0.00193472 -2.0095e-05)
(0.166808 0.00186804 -1.99496e-05)
(0.16548 0.00180305 -1.97929e-05)
(0.164117 0.00174021 -1.96304e-05)
(0.162783 0.001679 -1.94598e-05)
(0.161411 0.00161989 -1.92873e-05)
(0.160077 0.00156232 -1.91098e-05)
(0.158701 0.00150679 -1.89341e-05)
(0.157373 0.00145269 -1.87559e-05)
(0.155997 0.00140055 -1.85828e-05)
(0.154679 0.00134973 -1.84089e-05)
(0.153307 0.00130079 -1.82426e-05)
(0.152004 0.00125305 -1.80764e-05)
(0.150638 0.00120711 -1.792e-05)
(0.149355 0.00116227 -1.77638e-05)
(0.147999 0.00111914 -1.76195e-05)
(0.146739 0.00107702 -1.74752e-05)
(0.145395 0.00103653 -1.73453e-05)
(0.144164 0.000996956 -1.72153e-05)
(0.142831 0.000958927 -1.7103e-05)
(0.141633 0.000921728 -1.69912e-05)
(0.140314 0.000885992 -1.69023e-05)
(0.139152 0.000851006 -1.68159e-05)
(0.137847 0.000817395 -1.67604e-05)
(0.136726 0.000784449 -1.67121e-05)
(0.135433 0.000752784 -1.67076e-05)
(0.134357 0.000721694 -1.67204e-05)
(0.133075 0.000691746 -1.67997e-05)
(0.132048 0.000662244 -1.6921e-05)
(0.130776 0.000633643 -1.71592e-05)
(0.129804 0.00060525 -1.75132e-05)
(0.128538 0.000577449 -1.81235e-05)
(0.127627 0.000549839 -1.90507e-05)
(0.126365 0.000523443 -2.04944e-05)
(0.125521 0.000499216 -2.23954e-05)
(0.124256 0.000479501 -2.45286e-05)
(0.123482 0.000465089 -2.58911e-05)
(0.122199 0.000455099 -2.5113e-05)
(0.121494 0.000444705 -2.09845e-05)
(0.120182 0.00042943 -1.42981e-05)
(0.119562 0.000407297 -6.80682e-06)
(0.118217 0.000380237 8.98229e-09)
(0.117699 0.000350184 6.01431e-06)
(0.116313 0.000319932 1.11336e-05)
(0.115913 0.000289472 1.55799e-05)
(0.11447 0.000261961 1.85271e-05)
(0.114203 0.000236308 1.94372e-05)
(0.112682 0.000219561 1.73095e-05)
(0.112559 0.000214735 1.22498e-05)
(0.110912 0.000229562 4.18824e-06)
(0.196092 0.00446529 5.11324e-07)
(0.196122 0.00502695 1.46792e-06)
(0.196233 0.00559073 2.42633e-06)
(0.196449 0.00611904 3.41701e-06)
(0.196775 0.00657599 4.39057e-06)
(0.197183 0.00694509 5.19095e-06)
(0.197633 0.00723399 5.63939e-06)
(0.198087 0.00746325 5.65939e-06)
(0.198531 0.00764938 5.31562e-06)
(0.19896 0.00779733 4.73837e-06)
(0.199383 0.00790183 4.03122e-06)
(0.1998 0.00795382 3.23111e-06)
(0.200212 0.00794534 2.32289e-06)
(0.200607 0.00787262 1.27153e-06)
(0.200979 0.00773636 4.94682e-08)
(0.201308 0.00754148 -1.35076e-06)
(0.201589 0.00729599 -2.91583e-06)
(0.201806 0.00701041 -4.61817e-06)
(0.201959 0.00669676 -6.42081e-06)
(0.202036 0.00636812 -8.27904e-06)
(0.202046 0.00603731 -1.01391e-05)
(0.201983 0.0057161 -1.19406e-05)
(0.201862 0.00541392 -1.36211e-05)
(0.201683 0.00513754 -1.51252e-05)
(0.201466 0.00489049 -1.64111e-05)
(0.201207 0.00467364 -1.74558e-05)
(0.200928 0.00448539 -1.82537e-05)
(0.200622 0.00432266 -1.88219e-05)
(0.200307 0.00418158 -1.9197e-05)
(0.19997 0.00405853 -1.94231e-05)
(0.19963 0.00395002 -1.9538e-05)
(0.199268 0.00385309 -1.95723e-05)
(0.198904 0.00376492 -1.95484e-05)
(0.198515 0.00368322 -1.94854e-05)
(0.198124 0.00360594 -1.93979e-05)
(0.197704 0.00353159 -1.9299e-05)
(0.197281 0.00345895 -1.91972e-05)
(0.196824 0.00338733 -1.91015e-05)
(0.196365 0.00331626 -1.9016e-05)
(0.195866 0.00324564 -1.89422e-05)
(0.195367 0.00317536 -1.88752e-05)
(0.194825 0.00310543 -1.8813e-05)
(0.194284 0.00303585 -1.87508e-05)
(0.193696 0.00296668 -1.86883e-05)
(0.193113 0.00289805 -1.86214e-05)
(0.192478 0.00283002 -1.85504e-05)
(0.191852 0.00276278 -1.84712e-05)
(0.191171 0.00269635 -1.83852e-05)
(0.190504 0.00263094 -1.82888e-05)
(0.189776 0.00256645 -1.81852e-05)
(0.18907 0.00250315 -1.80712e-05)
(0.188296 0.00244081 -1.79514e-05)
(0.187552 0.00237975 -1.78222e-05)
(0.186735 0.0023196 -1.76894e-05)
(0.185955 0.0022608 -1.75489e-05)
(0.185094 0.00220281 -1.74071e-05)
(0.184281 0.00214619 -1.72591e-05)
(0.183379 0.00209024 -1.71124e-05)
(0.182536 0.00203568 -1.69608e-05)
(0.181593 0.00198162 -1.68129e-05)
(0.180724 0.00192899 -1.66609e-05)
(0.179742 0.00187665 -1.65147e-05)
(0.17885 0.00182581 -1.63647e-05)
(0.177831 0.00177505 -1.62224e-05)
(0.176919 0.00172588 -1.60762e-05)
(0.175865 0.00167657 -1.59396e-05)
(0.174938 0.00162897 -1.57991e-05)
(0.173849 0.00158099 -1.56707e-05)
(0.172913 0.00153491 -1.55386e-05)
(0.171792 0.00148817 -1.54224e-05)
(0.17085 0.00144356 -1.53036e-05)
(0.169698 0.00139797 -1.52065e-05)
(0.168757 0.0013548 -1.51097e-05)
(0.167574 0.00131028 -1.50432e-05)
(0.16664 0.00126853 -1.49823e-05)
(0.165427 0.001225 -1.49641e-05)
(0.164507 0.00118462 -1.49608e-05)
(0.163263 0.00114192 -1.50188e-05)
(0.162364 0.00110273 -1.51115e-05)
(0.16109 0.00106049 -1.53085e-05)
(0.16022 0.00102192 -1.56186e-05)
(0.158915 0.000979191 -1.62171e-05)
(0.158082 0.000940272 -1.72925e-05)
(0.156746 0.000896811 -1.92991e-05)
(0.155963 0.000860186 -2.25753e-05)
(0.154592 0.000823908 -2.71775e-05)
(0.153864 0.000803053 -3.18029e-05)
(0.152442 0.000786315 -3.35563e-05)
(0.151766 0.000780231 -2.89586e-05)
(0.150281 0.000760403 -1.80844e-05)
(0.149676 0.000735138 -4.81114e-06)
(0.148132 0.000689415 7.04748e-06)
(0.147623 0.000644535 1.64072e-05)
(0.146016 0.000587982 2.36982e-05)
(0.145621 0.000541155 2.98081e-05)
(0.143937 0.000487991 3.41759e-05)
(0.143672 0.000449997 3.59887e-05)
(0.141896 0.00041066 3.33781e-05)
(0.141777 0.000401154 2.47335e-05)
(0.139865 0.000409291 8.35617e-06)
(0.196632 0.00440631 3.47907e-07)
(0.196673 0.00487693 9.69807e-07)
(0.196771 0.00535351 1.56749e-06)
(0.196942 0.00581409 2.19375e-06)
(0.197196 0.00623221 2.87661e-06)
(0.19752 0.0065882 3.55409e-06)
(0.197894 0.00687592 4.08895e-06)
(0.198287 0.00710197 4.35749e-06)
(0.198684 0.00727705 4.32976e-06)
(0.199072 0.00740896 4.06565e-06)
(0.199456 0.0074993 3.66256e-06)
(0.19983 0.00754495 3.19162e-06)
(0.200203 0.00754146 2.66921e-06)
(0.200563 0.00748609 2.06845e-06)
(0.200912 0.0073791 1.34822e-06)
(0.201232 0.0072239 4.7575e-07)
(0.201524 0.00702653 -5.6331e-07)
(0.20177 0.00679491 -1.76576e-06)
(0.201975 0.00653827 -3.11435e-06)
(0.202124 0.00626644 -4.58187e-06)
(0.202229 0.00598932 -6.13161e-06)
(0.202277 0.00571609 -7.71888e-06)
(0.20229 0.00545469 -9.29134e-06)
(0.202254 0.00521107 -1.07938e-05)
(0.202197 0.00498914 -1.21721e-05)
(0.202105 0.00479045 -1.33828e-05)
(0.202007 0.00461483 -1.4398e-05)
(0.201885 0.00446051 -1.52125e-05)
(0.201769 0.0043252 -1.58396e-05)
(0.201634 0.00420605 -1.63059e-05)
(0.201512 0.00410061 -1.66384e-05)
(0.201371 0.00400616 -1.68622e-05)
(0.201246 0.0039207 -1.69962e-05)
(0.2011 0.00384188 -1.70586e-05)
(0.200972 0.00376826 -1.70646e-05)
(0.200817 0.00369804 -1.70313e-05)
(0.200682 0.00363053 -1.69725e-05)
(0.200515 0.00356448 -1.69022e-05)
(0.200369 0.00349996 -1.68276e-05)
(0.200184 0.00343604 -1.67544e-05)
(0.200023 0.00337323 -1.66812e-05)
(0.199817 0.00331068 -1.66089e-05)
(0.199638 0.00324915 -1.65342e-05)
(0.199407 0.00318773 -1.64596e-05)
(0.199208 0.00312744 -1.63823e-05)
(0.198949 0.00306726 -1.63051e-05)
(0.198728 0.00300847 -1.62239e-05)
(0.198439 0.00294981 -1.61411e-05)
(0.198194 0.00289281 -1.60518e-05)
(0.197874 0.00283591 -1.59592e-05)
(0.197604 0.00278088 -1.58585e-05)
(0.197249 0.00272582 -1.57541e-05)
(0.196955 0.0026728 -1.56411e-05)
(0.196564 0.00261953 -1.55252e-05)
(0.196245 0.00256846 -1.54008e-05)
(0.195816 0.00251684 -1.52748e-05)
(0.19547 0.00246756 -1.51408e-05)
(0.195002 0.00241739 -1.50066e-05)
(0.194631 0.00236971 -1.48648e-05)
(0.19412 0.00232075 -1.47245e-05)
(0.193724 0.00227447 -1.45767e-05)
(0.193171 0.00222649 -1.44317e-05)
(0.192749 0.00218143 -1.4279e-05)
(0.192151 0.00213419 -1.41305e-05)
(0.191706 0.00209018 -1.39735e-05)
(0.191061 0.00204348 -1.38221e-05)
(0.190594 0.00200039 -1.36616e-05)
(0.1899 0.00195404 -1.35084e-05)
(0.189413 0.00191177 -1.33457e-05)
(0.188669 0.00186559 -1.31933e-05)
(0.188164 0.00182405 -1.3032e-05)
(0.187369 0.0017779 -1.28857e-05)
(0.186849 0.00173704 -1.2733e-05)
(0.186001 0.00169074 -1.26022e-05)
(0.18547 0.0016505 -1.24694e-05)
(0.184568 0.00160391 -1.23666e-05)
(0.18403 0.00156421 -1.22658e-05)
(0.183071 0.0015171 -1.22002e-05)
(0.182531 0.0014777 -1.21362e-05)
(0.181515 0.00142956 -1.21123e-05)
(0.180979 0.00138968 -1.21167e-05)
(0.179902 0.00133895 -1.22989e-05)
(0.179379 0.00129645 -1.29369e-05)
(0.178242 0.00124065 -1.48124e-05)
(0.177743 0.00119573 -1.90459e-05)
(0.176548 0.00114249 -2.66906e-05)
(0.17608 0.00111469 -3.68784e-05)
(0.174808 0.00109064 -4.49602e-05)
(0.174357 0.00109384 -4.29444e-05)
(0.172986 0.00107666 -2.79001e-05)
(0.172565 0.00105792 -6.50294e-06)
(0.171112 0.00100071 1.28602e-05)
(0.170758 0.00094867 2.70221e-05)
(0.16923 0.00087035 3.7143e-05)
(0.168957 0.000814113 4.53143e-05)
(0.167343 0.000741102 5.16811e-05)
(0.167165 0.000701482 5.60048e-05)
(0.165456 0.000646277 5.55732e-05)
(0.165392 0.000638632 4.57847e-05)
(0.163567 0.000637409 1.62192e-05)
(0.197123 0.0043567 2.04425e-07)
(0.197173 0.00475519 5.45763e-07)
(0.197263 0.00515843 8.60821e-07)
(0.197402 0.00555168 1.21063e-06)
(0.197604 0.00591728 1.64725e-06)
(0.197857 0.00623919 2.16439e-06)
(0.198159 0.00650828 2.68499e-06)
(0.198485 0.00672311 3.10007e-06)
(0.198827 0.00688835 3.32684e-06)
(0.199165 0.00701001 3.35249e-06)
(0.199503 0.00709221 3.22621e-06)
(0.19983 0.00713565 3.01562e-06)
(0.200156 0.00713918 2.76404e-06)
(0.200468 0.00710117 2.47358e-06)
(0.200774 0.00702171 2.11487e-06)
(0.201054 0.00690262 1.64732e-06)
(0.201318 0.00674821 1.03753e-06)
(0.201542 0.006564 2.67448e-07)
(0.201741 0.00635713 -6.63965e-07)
(0.20189 0.00613477 -1.74473e-06)
(0.202011 0.00590481 -2.95205e-06)
(0.202081 0.00567411 -4.25461e-06)
(0.202128 0.00544945 -5.6115e-06)
(0.20213 0.00523557 -6.97489e-06)
(0.202121 0.00503666 -8.29264e-06)
(0.202076 0.00485428 -9.517e-06)
(0.202034 0.00468968 -1.061e-05)
(0.201964 0.00454172 -1.15502e-05)
(0.201908 0.00440982 -1.23306e-05)
(0.201829 0.00429146 -1.29589e-05)
(0.201772 0.00418559 -1.34487e-05)
(0.201691 0.00408939 -1.38181e-05)
(0.201639 0.00400209 -1.40831e-05)
(0.20156 0.00392096 -1.42609e-05)
(0.201513 0.00384577 -1.43664e-05)
(0.201434 0.00377401 -1.44166e-05)
(0.201392 0.00370615 -1.44253e-05)
(0.201312 0.00363991 -1.44073e-05)
(0.201272 0.00357645 -1.43709e-05)
(0.201188 0.00351359 -1.43248e-05)
(0.201148 0.00345303 -1.4271e-05)
(0.201057 0.00339252 -1.42135e-05)
(0.201015 0.00333422 -1.41513e-05)
(0.200914 0.00327563 -1.40879e-05)
(0.200869 0.00321937 -1.40216e-05)
(0.200756 0.00316262 -1.39558e-05)
(0.200706 0.00310848 -1.38869e-05)
(0.200579 0.00305365 -1.38177e-05)
(0.200523 0.00300175 -1.37433e-05)
(0.20038 0.00294894 -1.36664e-05)
(0.200318 0.00289935 -1.35819e-05)
(0.200157 0.00284854 -1.34938e-05)
(0.200087 0.00280121 -1.33967e-05)
(0.199906 0.00275227 -1.32958e-05)
(0.199828 0.00270711 -1.31853e-05)
(0.199624 0.00265985 -1.30713e-05)
(0.199538 0.00261667 -1.29471e-05)
(0.199309 0.00257085 -1.28197e-05)
(0.199214 0.00252944 -1.26815e-05)
(0.198958 0.00248478 -1.254e-05)
(0.198853 0.0024449 -1.23865e-05)
(0.198567 0.00240113 -1.22293e-05)
(0.198452 0.00236256 -1.20581e-05)
(0.198132 0.00231938 -1.18823e-05)
(0.198007 0.00228192 -1.16895e-05)
(0.197651 0.00223904 -1.14904e-05)
(0.197515 0.00220249 -1.12706e-05)
(0.197121 0.00215964 -1.10421e-05)
(0.196973 0.0021238 -1.07884e-05)
(0.196538 0.0020807 -1.05236e-05)
(0.19638 0.00204541 -1.02288e-05)
(0.195899 0.00200179 -9.9204e-06)
(0.195731 0.00196688 -9.5772e-06)
(0.195202 0.00192245 -9.21678e-06)
(0.195025 0.00188774 -8.81541e-06)
(0.194445 0.0018422 -8.3879e-06)
(0.19426 0.00180745 -7.90261e-06)
(0.193625 0.00176046 -7.36198e-06)
(0.193435 0.00172535 -6.70951e-06)
(0.192741 0.00167624 -5.91244e-06)
(0.192547 0.00163984 -4.86799e-06)
(0.191792 0.00158667 -3.54318e-06)
(0.191597 0.00154578 -2.02635e-06)
(0.190781 0.00148324 -1.01612e-06)
(0.190596 0.0014321 -2.10404e-06)
(0.189725 0.00135946 -7.61443e-06)
(0.18956 0.00131011 -1.84035e-05)
(0.188617 0.00125235 -3.02503e-05)
(0.188439 0.00122801 -3.37461e-05)
(0.187381 0.00118187 -2.45121e-05)
(0.187189 0.00115128 -1.09556e-05)
(0.186047 0.00108747 -1.67735e-06)
(0.185891 0.00104805 2.70118e-06)
(0.184686 0.000982932 5.56368e-06)
(0.184578 0.000951243 1.01535e-05)
(0.183305 0.000896982 1.63136e-05)
(0.183243 0.000882818 2.48808e-05)
(0.181891 0.000839378 3.41134e-05)
(0.181899 0.000847353 3.90314e-05)
(0.180482 0.000862407 1.564e-05)
(0.197569 0.00430418 8.04087e-08)
(0.197623 0.00464259 1.89561e-07)
(0.197706 0.00498309 2.83991e-07)
(0.19782 0.00531532 4.23897e-07)
(0.19798 0.00562789 6.59066e-07)
(0.198178 0.00590953 1.00655e-06)
(0.198419 0.00615213 1.43546e-06)
(0.198683 0.00635141 1.87176e-06)
(0.198969 0.00650803 2.23221e-06)
(0.199255 0.00662469 2.46678e-06)
(0.199549 0.00670504 2.57633e-06)
(0.199831 0.0067508 2.59832e-06)
(0.200115 0.00676294 2.57598e-06)
(0.200382 0.00674087 2.53075e-06)
(0.200648 0.00668517 2.45257e-06)
(0.20089 0.00659657 2.30716e-06)
(0.201123 0.00647837 2.05336e-06)
(0.201321 0.00633408 1.65769e-06)
(0.201503 0.00616946 1.10243e-06)
(0.201642 0.00598948 3.84317e-07)
(0.201762 0.0058008 -4.86775e-07)
(0.201835 0.00560824 -1.48967e-06)
(0.201895 0.00541787 -2.59154e-06)
(0.201911 0.005233 -3.75073e-06)
(0.201924 0.00505797 -4.91945e-06)
(0.201898 0.00489375 -6.05086e-06)
(0.20188 0.00474267 -7.10329e-06)
(0.20183 0.00460352 -8.04637e-06)
(0.201798 0.00447722 -8.86139e-06)
(0.201737 0.00436118 -9.54333e-06)
(0.201703 0.00425585 -1.00962e-05)
(0.20164 0.00415807 -1.0532e-05)
(0.20161 0.00406854 -1.08642e-05)
(0.201548 0.00398395 -1.11088e-05)
(0.201524 0.00390555 -1.12794e-05)
(0.201464 0.00382998 -1.13907e-05)
(0.201447 0.00375911 -1.14544e-05)
(0.201388 0.00368952 -1.14832e-05)
(0.201378 0.00362377 -1.14857e-05)
(0.201318 0.00355827 -1.1471e-05)
(0.201312 0.00349624 -1.14435e-05)
(0.201251 0.0034338 -1.14087e-05)
(0.201249 0.0033748 -1.13675e-05)
(0.201184 0.00331495 -1.13232e-05)
(0.201185 0.00325871 -1.1275e-05)
(0.201115 0.00320125 -1.12254e-05)
(0.201119 0.00314769 -1.11723e-05)
(0.201042 0.00309258 -1.11176e-05)
(0.20105 0.00304173 -1.10579e-05)
(0.200965 0.00298895 -1.0995e-05)
(0.200974 0.0029408 -1.0925e-05)
(0.20088 0.00289029 -1.08501e-05)
(0.200893 0.00284477 -1.07664e-05)
(0.200788 0.00279639 -1.06766e-05)
(0.200803 0.0027534 -1.05764e-05)
(0.200687 0.00270696 -1.0469e-05)
(0.200703 0.00266633 -1.03491e-05)
(0.200573 0.00262158 -1.022e-05)
(0.200591 0.00258311 -1.00758e-05)
(0.200447 0.00253981 -9.9192e-06)
(0.200466 0.00250325 -9.74336e-06)
(0.200305 0.00246108 -9.55071e-06)
(0.200326 0.0024262 -9.3328e-06)
(0.200145 0.00238487 -9.0914e-06)
(0.200166 0.00235144 -8.81612e-06)
(0.199964 0.00231061 -8.5076e-06)
(0.199985 0.00227837 -8.15324e-06)
(0.199759 0.00223771 -7.75195e-06)
(0.19978 0.00220639 -7.28832e-06)
(0.199528 0.00216556 -6.75904e-06)
(0.199548 0.00213489 -6.14516e-06)
(0.199266 0.00209353 -5.44014e-06)
(0.199286 0.00206321 -4.62055e-06)
(0.198972 0.00202092 -3.67365e-06)
(0.19899 0.00199062 -2.56945e-06)
(0.19864 0.00194698 -1.28237e-06)
(0.198657 0.00191629 2.35132e-07)
(0.198269 0.00187084 2.03995e-06)
(0.198284 0.00183937 4.23343e-06)
(0.197855 0.00179148 6.9676e-06)
(0.197867 0.00175846 1.05098e-05)
(0.197392 0.00170663 1.52921e-05)
(0.1974 0.00166891 2.19377e-05)
(0.196879 0.0016064 3.11202e-05)
(0.196891 0.00155116 4.30093e-05)
(0.196333 0.00145592 5.63247e-05)
(0.196361 0.00135507 6.72123e-05)
(0.195756 0.00121033 6.79885e-05)
(0.195761 0.00108427 5.00951e-05)
(0.195061 0.000958873 1.14713e-05)
(0.195035 0.000900258 -3.94031e-05)
(0.194277 0.000864032 -8.93509e-05)
(0.19427 0.000889369 -0.000129881)
(0.193473 0.000911718 -0.000159091)
(0.193483 0.00096985 -0.000177374)
(0.192642 0.00100539 -0.000187987)
(0.192661 0.00105684 -0.000183251)
(0.191766 0.00105343 -0.000155389)
(0.191828 0.00104342 -0.000101695)
(0.19091 0.00104425 -3.23251e-05)
(0.197972 0.00424525 -2.7151e-08)
(0.198027 0.00453346 -1.12988e-07)
(0.198101 0.00482141 -1.99334e-07)
(0.198193 0.00510211 -2.34337e-07)
(0.198321 0.00536844 -1.7455e-07)
(0.198475 0.00561245 4.88323e-09)
(0.198666 0.00582815 2.99399e-07)
(0.198875 0.0060107 6.71526e-07)
(0.19911 0.00615884 1.06358e-06)
(0.199347 0.00627243 1.42243e-06)
(0.199597 0.00635366 1.72115e-06)
(0.199836 0.00640354 1.96373e-06)
(0.200081 0.00642397 2.17264e-06)
(0.200309 0.0064148 2.36774e-06)
(0.200539 0.00637745 2.54974e-06)
(0.200746 0.00631206 2.69535e-06)
(0.20095 0.00622157 2.76558e-06)
(0.201122 0.00610792 2.71962e-06)
(0.201287 0.00597607 2.52518e-06)
(0.201412 0.00582924 2.15996e-06)
(0.201528 0.00567346 1.61607e-06)
(0.2016 0.00551203 9.02164e-07)
(0.201666 0.00535075 4.38205e-08)
(0.201691 0.00519171 -9.2021e-07)
(0.201716 0.00503949 -1.94264e-06)
(0.201703 0.00489427 -2.97424e-06)
(0.2017 0.00475917 -3.96902e-06)
(0.201663 0.00463249 -4.88957e-06)
(0.201645 0.00451634 -5.70942e-06)
(0.201596 0.00440769 -6.41478e-06)
(0.201574 0.00430829 -7.00273e-06)
(0.20152 0.00421444 -7.47932e-06)