/*--------------------------------*- C++ -*----------------------------------*\
| =========                 |                                                 |
| \\      /  F ield         | OpenFOAM: The Open Source CFD Toolbox           |
|  \\    /   O peration     | Version:  2.3.0                                 |
|   \\  /    A nd           | Web:      www.OpenFOAM.org                      |
|    \\/     M anipulation  |                                                 |
\*---------------------------------------------------------------------------*/
FoamFile
{
    version     2.0;
    format      ascii;
    class       volScalarField;
    location    "0.15";
    object      p;
}
// * * * * * * * * * * * * * * * * * * * * * * * * * * * * * * * * * * * * * //

dimensions      [0 2 -2 0 0 0 0];

internalField   nonuniform List<scalar> 
3375
(
0.00219963
0.00161925
0.00114725
0.000807629
0.00052746
0.000276364
5.4452e-05
-0.000133681
-0.000286557
-0.000405269
-0.00049253
-0.000552309
-0.000589427
-0.000608978
-0.000615775
-0.000613968
-0.000606861
-0.000596896
-0.000585752
-0.00057449
-0.00056371
-0.000553696
-0.000544525
-0.000536154
-0.000528471
-0.000521338
-0.000514604
-0.000508117
-0.000501729
-0.000495289
-0.000488641
-0.000481608
-0.000473984
-0.000465517
-0.000455904
-0.000444793
-0.000431798
-0.000416509
-0.000398597
-0.000377821
-0.000354699
-0.000329496
-0.000303186
-0.000276668
-0.000250748
-0.00022605
-0.000202981
-0.000181755
-0.000162435
-0.000144983
-0.0001293
-0.000115251
-0.000102693
-9.14806e-05
-8.14793e-05
-7.25639e-05
-6.46216e-05
-5.75517e-05
-5.12638e-05
-4.56769e-05
-4.07177e-05
-3.63201e-05
-3.24237e-05
-2.89732e-05
-2.59184e-05
-2.32132e-05
-2.08159e-05
-1.86887e-05
-1.67978e-05
-1.51132e-05
-1.36085e-05
-1.22607e-05
-1.10498e-05
-9.95896e-06
-8.97366e-06
-8.08171e-06
-7.27276e-06
-6.53817e-06
-5.8704e-06
-5.26322e-06
-4.71096e-06
-4.20884e-06
-3.75243e-06
-3.33778e-06
-2.96129e-06
-2.61951e-06
-2.3094e-06
-2.02795e-06
-1.77245e-06
-1.54032e-06
-1.32912e-06
-1.13662e-06
-9.60701e-07
-7.99403e-07
-6.50901e-07
-5.13501e-07
-3.85635e-07
-2.65866e-07
-1.52855e-07
-4.43224e-08
0.00192099
0.00150965
0.0011237
0.000816367
0.000550565
0.000306801
8.80777e-05
-9.93921e-05
-0.000253087
-0.000373523
-0.000463074
-0.000525461
-0.000565308
-0.000587561
-0.000596927
-0.000597487
-0.000592506
-0.000584415
-0.000574896
-0.000565029
-0.000555437
-0.000546433
-0.000538122
-0.000530486
-0.000523438
-0.000516857
-0.000510609
-0.000504555
-0.000498558
-0.000492477
-0.000486162
-0.000479446
-0.00047213
-0.000463968
-0.000454662
-0.000443855
-0.000431152
-0.000416153
-0.000398484
-0.000378105
-0.000355051
-0.000329995
-0.000303692
-0.00027713
-0.000251164
-0.000226422
-0.000203313
-0.000182048
-0.000162694
-0.000145211
-0.000129498
-0.000115424
-0.000102842
-9.16102e-05
-8.1591e-05
-7.26597e-05
-6.47036e-05
-5.76217e-05
-5.13234e-05
-4.57275e-05
-4.07607e-05
-3.63567e-05
-3.2455e-05
-2.90002e-05
-2.59417e-05
-2.32336e-05
-2.08339e-05
-1.87048e-05
-1.68123e-05
-1.51264e-05
-1.36205e-05
-1.22717e-05
-1.106e-05
-9.96831e-06
-8.98229e-06
-8.08966e-06
-7.28007e-06
-6.54487e-06
-5.87653e-06
-5.2688e-06
-4.71604e-06
-4.21344e-06
-3.75659e-06
-3.34153e-06
-2.96466e-06
-2.62254e-06
-2.31211e-06
-2.03037e-06
-1.77459e-06
-1.54222e-06
-1.3308e-06
-1.1381e-06
-9.61983e-07
-8.00508e-07
-6.51841e-07
-5.14286e-07
-3.8627e-07
-2.66346e-07
-1.53122e-07
-4.38089e-08
0.00171453
0.00141071
0.00108562
0.000803618
0.000554062
0.00032448
0.000116839
-6.33793e-05
-0.000213427
-0.000333284
-0.000424654
-0.000490505
-0.000534714
-0.000561593
-0.00057538
-0.000579864
-0.000578176
-0.000572727
-0.00056526
-0.000556951
-0.000548529
-0.000540406
-0.000532767
-0.00052566
-0.000519043
-0.000512829
-0.000506905
-0.000501148
-0.000495429
-0.000489614
-0.000483558
-0.000477097
-0.000470033
-0.000462123
-0.000453069
-0.000442511
-0.000430047
-0.000415263
-0.00039778
-0.000377339
-0.00035411
-0.000329157
-0.000303233
-0.000276936
-0.000251116
-0.000226465
-0.000203416
-0.000182188
-0.000162851
-0.000145372
-0.000129656
-0.000115571
-0.000102977
-9.17301e-05
-8.16957e-05
-7.27497e-05
-6.47798e-05
-5.76853e-05
-5.13758e-05
-4.57702e-05
-4.07951e-05
-3.63842e-05
-3.24768e-05
-2.90174e-05
-2.59555e-05
-2.32446e-05
-2.08429e-05
-1.87123e-05
-1.68188e-05
-1.51321e-05
-1.36257e-05
-1.22765e-05
-1.10645e-05
-9.97264e-06
-8.98639e-06
-8.09356e-06
-7.28376e-06
-6.54834e-06
-5.87978e-06
-5.27183e-06
-4.71886e-06
-4.21605e-06
-3.759e-06
-3.34375e-06
-2.96671e-06
-2.62443e-06
-2.31385e-06
-2.03198e-06
-1.77608e-06
-1.5436e-06
-1.33208e-06
-1.13928e-06
-9.6309e-07
-8.0154e-07
-6.52805e-07
-5.15184e-07
-3.87095e-07
-2.67053e-07
-1.53493e-07
-4.29396e-08
0.00153729
0.00130337
0.00103079
0.000778436
0.000550126
0.00033903
0.000146313
-2.33783e-05
-0.000167102
-0.000284273
-0.000375927
-0.000444275
-0.000492421
-0.000523968
-0.000542594
-0.000551693
-0.00055416
-0.000552304
-0.000547851
-0.000542019
-0.000535608
-0.000529106
-0.000522775
-0.000516727
-0.000510977
-0.000505482
-0.000500163
-0.000494925
-0.000489658
-0.000484243
-0.000478547
-0.000472413
-0.000465647
-0.000458011
-0.000449207
-0.00043888
-0.000426628
-0.000412042
-0.000394775
-0.000374658
-0.000351808
-0.000326939
-0.000301248
-0.000275524
-0.000250214
-0.000225943
-0.000203175
-0.000182151
-0.000162954
-0.000145566
-0.000129901
-0.000115842
-0.000103253
-9.19988e-05
-8.19493e-05
-7.29834e-05
-6.49911e-05
-5.78734e-05
-5.1541e-05
-4.59135e-05
-4.09181e-05
-3.64886e-05
-3.25646e-05
-2.90906e-05
-2.6016e-05
-2.32944e-05
-2.08837e-05
-1.87456e-05
-1.6846e-05
-1.51544e-05
-1.36442e-05
-1.22919e-05
-1.10775e-05
-9.98376e-06
-8.99603e-06
-8.10203e-06
-7.29129e-06
-6.5551e-06
-5.88591e-06
-5.27742e-06
-4.72398e-06
-4.22075e-06
-3.76335e-06
-3.34777e-06
-2.97043e-06
-2.62789e-06
-2.31707e-06
-2.03499e-06
-1.77891e-06
-1.54625e-06
-1.33458e-06
-1.14165e-06
-9.65342e-07
-8.03689e-07
-6.54863e-07
-5.1716e-07
-3.88987e-07
-2.68812e-07
-1.54894e-07
-4.32811e-08
0.001379
0.00119542
0.00097018
0.000749196
0.000543155
0.000350545
0.000172937
1.44461e-05
-0.000121905
-0.000235116
-0.00032572
-0.000395339
-0.000446423
-0.000481931
-0.000504978
-0.000518524
-0.00052517
-0.00052705
-0.000525821
-0.000522696
-0.000518517
-0.000513833
-0.000508975
-0.000504121
-0.000499344
-0.000494648
-0.000489995
-0.000485317
-0.000480529
-0.000475528
-0.00047019
-0.000464367
-0.000457874
-0.000450477
-0.000441891
-0.000431772
-0.000419745
-0.000405433
-0.000388538
-0.000368943
-0.000346829
-0.000322785
-0.000297682
-0.000272555
-0.000248037
-0.000224472
-0.000202258
-0.000181657
-0.000162773
-0.000145607
-0.000130092
-0.000116129
-0.000103596
-9.23686e-05
-8.23256e-05
-7.33522e-05
-6.53431e-05
-5.82025e-05
-5.18437e-05
-4.61879e-05
-4.11637e-05
-3.67059e-05
-3.27546e-05
-2.92551e-05
-2.61569e-05
-2.34139e-05
-2.09841e-05
-1.88293e-05
-1.69153e-05
-1.52115e-05
-1.36909e-05
-1.23302e-05
-1.11088e-05
-1.00095e-05
-9.01728e-06
-8.11976e-06
-7.30625e-06
-6.56789e-06
-5.89699e-06
-5.28715e-06
-4.73264e-06
-4.22854e-06
-3.77042e-06
-3.35425e-06
-2.97641e-06
-2.63344e-06
-2.32224e-06
-2.03982e-06
-1.78345e-06
-1.55053e-06
-1.33863e-06
-1.1455e-06
-9.69017e-07
-8.07214e-07
-6.58259e-07
-5.20446e-07
-3.92171e-07
-2.71877e-07
-1.57752e-07
-4.60417e-08
0.00124197
0.00109467
0.000908589
0.000716685
0.000531959
0.000356962
0.000194094
4.7045e-05
-8.12672e-05
-0.000189587
-0.000278054
-0.000347814
-0.000400763
-0.000439291
-0.000465991
-0.000483402
-0.000493813
-0.000499162
-0.000501
-0.000500507
-0.000498537
-0.00049568
-0.000492319
-0.000488685
-0.000484901
-0.000481016
-0.000477027
-0.000472895
-0.000468558
-0.000463928
-0.000458897
-0.000453324
-0.000447037
-0.000439816
-0.000431394
-0.000421459
-0.000409674
-0.000395714
-0.000379337
-0.000360476
-0.00033933
-0.000316422
-0.000292473
-0.000268289
-0.000244639
-0.000221967
-0.000200521
-0.000180529
-0.000162114
-0.000145299
-0.000130041
-0.000116257
-0.000103847
-9.26979e-05
-8.27008e-05
-7.37494e-05
-6.5745e-05
-5.85966e-05
-5.22211e-05
-4.65426e-05
-4.14917e-05
-3.70049e-05
-3.30235e-05
-2.94939e-05
-2.63664e-05
-2.35956e-05
-2.11398e-05
-1.89613e-05
-1.7026e-05
-1.53034e-05
-1.37667e-05
-1.2392e-05
-1.11591e-05
-1.00502e-05
-9.05022e-06
-8.14645e-06
-7.32801e-06
-6.58579e-06
-5.91191e-06
-5.29976e-06
-4.74348e-06
-4.23802e-06
-3.77884e-06
-3.36185e-06
-2.98335e-06
-2.63985e-06
-2.32821e-06
-2.04544e-06
-1.78875e-06
-1.55557e-06
-1.34345e-06
-1.15013e-06
-9.73485e-07
-8.11548e-07
-6.62484e-07
-5.24584e-07
-3.96241e-07
-2.75906e-07
-1.61858e-07
-5.1381e-08
0.00112313
0.00100178
0.000846871
0.000680965
0.000516533
0.000358469
0.000209934
7.43104e-05
-4.56506e-05
-0.000148524
-0.000234116
-0.000303161
-0.000357082
-0.000397773
-0.000427365
-0.000448004
-0.000461682
-0.000470131
-0.000474779
-0.000476749
-0.000476885
-0.000475793
-0.000473893
-0.000471455
-0.000468645
-0.000465549
-0.000462196
-0.000458577
-0.000454648
-0.000450342
-0.000445563
-0.000440186
-0.000434053
-0.000426963
-0.000418677
-0.000408921
-0.000397404
-0.000383861
-0.000368105
-0.000350106
-0.000330061
-0.000308421
-0.00028581
-0.000262902
-0.000240331
-0.000218612
-0.000198037
-0.000178772
-0.000160936
-0.00014457
-0.000129652
-0.000116121
-0.000103893
-9.28734e-05
-8.29639e-05
-7.40687e-05
-6.60966e-05
-5.89624e-05
-5.25877e-05
-4.69e-05
-4.18324e-05
-3.73237e-05
-3.33169e-05
-2.97598e-05
-2.6604e-05
-2.38049e-05
-2.13217e-05
-1.91173e-05
-1.71581e-05
-1.54138e-05
-1.38578e-05
-1.24665e-05
-1.12193e-05
-1.00984e-05
-9.08854e-06
-8.1768e-06
-7.35202e-06
-6.60485e-06
-5.92715e-06
-5.31211e-06
-4.75366e-06
-4.2466e-06
-3.78626e-06
-3.36841e-06
-2.98928e-06
-2.64533e-06
-2.33335e-06
-2.05033e-06
-1.79346e-06
-1.56014e-06
-1.34792e-06
-1.15452e-06
-9.77824e-07
-8.15856e-07
-6.66779e-07
-5.28885e-07
-4.00571e-07
-2.8032e-07
-1.66623e-07
-5.82553e-08
0.001019
0.000916698
0.000786515
0.000643416
0.000497956
0.000355949
0.000221086
9.65731e-05
-1.50061e-05
-0.000112125
-0.000194321
-0.000261981
-0.000316127
-0.00035823
-0.000390015
-0.000413273
-0.000429716
-0.000440871
-0.000448035
-0.000452257
-0.000454352
-0.000454928
-0.000454423
-0.000453138
-0.000451271
-0.00044894
-0.000446202
-0.000443072
-0.000439529
-0.000435522
-0.000430973
-0.000425771
-0.000419775
-0.00041281
-0.000404666
-0.000395108
-0.000383897
-0.000370819
-0.000355739
-0.000338655
-0.000319753
-0.000299417
-0.00027818
-0.000256622
-0.000235287
-0.000214622
-0.000194953
-0.000176472
-0.000159279
-0.000143424
-0.000128906
-0.000115682
-0.000103685
-9.28372e-05
-8.30521e-05
-7.42445e-05
-6.63315e-05
-5.92344e-05
-5.28796e-05
-4.71985e-05
-4.21275e-05
-3.76076e-05
-3.35842e-05
-3.00065e-05
-2.68277e-05
-2.40043e-05
-2.14967e-05
-1.92684e-05
-1.72864e-05
-1.55213e-05
-1.39463e-05
-1.25383e-05
-1.12766e-05
-1.01435e-05
-9.12349e-06
-8.20353e-06
-7.37223e-06
-6.61998e-06
-5.93844e-06
-5.32055e-06
-4.76006e-06
-4.25157e-06
-3.79027e-06
-3.37181e-06
-2.99233e-06
-2.6482e-06
-2.33616e-06
-2.05315e-06
-1.79635e-06
-1.56313e-06
-1.35103e-06
-1.15777e-06
-9.81215e-07
-8.19397e-07
-6.70475e-07
-5.32741e-07
-4.046e-07
-2.84587e-07
-1.71422e-07
-6.51857e-08
0.000926936
0.000839144
0.000728661
0.000605193
0.000477044
0.000350015
0.000228036
0.000114189
1.08991e-05
-8.02731e-05
-0.000158668
-0.000224386
-0.000278116
-0.000320968
-0.000354312
-0.000379621
-0.000398346
-0.000411819
-0.000421198
-0.000427448
-0.000431342
-0.000433477
-0.000434296
-0.00043412
-0.000433168
-0.000431585
-0.000429453
-0.000426808
-0.000423649
-0.000419943
-0.000415626
-0.000410607
-0.000404764
-0.000397945
-0.000389972
-0.000380651
-0.000369785
-0.000357212
-0.000342835
-0.000326674
-0.000308901
-0.000289845
-0.000269956
-0.000249732
-0.000229645
-0.000210095
-0.00019138
-0.000173705
-0.000157189
-0.000141887
-0.00012781
-0.000114934
-0.000103207
-9.25656e-05
-8.29364e-05
-7.42445e-05
-6.64152e-05
-5.93767e-05
-5.30604e-05
-4.74022e-05
-4.23418e-05
-3.78229e-05
-3.37932e-05
-3.02038e-05
-2.70095e-05
-2.41682e-05
-2.16414e-05
-1.93936e-05
-1.73927e-05
-1.56096e-05
-1.40182e-05
-1.25954e-05
-1.13209e-05
-1.01769e-05
-9.14791e-06
-8.22066e-06
-7.38364e-06
-6.62704e-06
-5.94232e-06
-5.32218e-06
-4.76021e-06
-4.25083e-06
-3.78908e-06
-3.3705e-06
-2.99112e-06
-2.64724e-06
-2.33554e-06
-2.05294e-06
-1.79656e-06
-1.56378e-06
-1.3521e-06
-1.15926e-06
-9.83106e-07
-8.21675e-07
-6.73124e-07
-5.35747e-07
-4.0796e-07
-2.88341e-07
-1.75789e-07
-7.11064e-08
0.00084488
0.000768523
0.000673859
0.000567093
0.000454463
0.000341241
0.000231314
0.000127623
3.24375e-05
-5.26974e-05
-0.000126989
-0.000190314
-0.000243084
-0.000286101
-0.000320431
-0.000347266
-0.000367816
-0.000383225
-0.000394517
-0.000402566
-0.000408091
-0.000411665
-0.000413728
-0.000414609
-0.000414544
-0.000413694
-0.000412163
-0.000410005
-0.000407238
-0.000403845
-0.00039978
-0.000394968
-0.000389308
-0.000382672
-0.000374913
-0.000365871
-0.000355393
-0.000343354
-0.000329693
-0.000314444
-0.000297764
-0.000279937
-0.000261343
-0.000242406
-0.000223539
-0.000205095
-0.000187355
-0.000170513
-0.000154696
-0.000139975
-0.000126372
-0.000113875
-0.000102451
-9.20461e-05
-8.26013e-05
-7.40508e-05
-6.63286e-05
-5.93692e-05
-5.311e-05
-4.7491e-05
-4.24555e-05
-3.79504e-05
-3.39255e-05
-3.03343e-05
-2.71331e-05
-2.42815e-05
-2.17422e-05
-1.94807e-05
-1.74658e-05
-1.56689e-05
-1.40647e-05
-1.26304e-05
-1.13457e-05
-1.01931e-05
-9.15703e-06
-8.22417e-06
-7.38288e-06
-6.62317e-06
-5.93636e-06
-5.31495e-06
-4.75238e-06
-4.2429e-06
-3.78142e-06
-3.36337e-06
-2.98468e-06
-2.64161e-06
-2.33077e-06
-2.04904e-06
-1.79352e-06
-1.56156e-06
-1.35067e-06
-1.15858e-06
-9.83134e-07
-8.22369e-07
-6.74441e-07
-5.37651e-07
-4.10421e-07
-2.91357e-07
-1.79442e-07
-7.56087e-08
0.000771199
0.000704127
0.000622324
0.000529705
0.000430822
0.000330193
0.000231449
0.000137349
4.99995e-05
-2.91018e-05
-9.90847e-05
-0.000159657
-0.000211004
-0.000253676
-0.000288475
-0.000316347
-0.000338287
-0.000355264
-0.000368166
-0.000377776
-0.000384753
-0.000389635
-0.00039285
-0.000394727
-0.000395509
-0.000395373
-0.000394435
-0.000392768
-0.000390404
-0.000387342
-0.000383553
-0.000378978
-0.000373537
-0.000367126
-0.000359624
-0.000350906
-0.000340853
-0.000329375
-0.000316435
-0.00030208
-0.000286452
-0.000269795
-0.000252434
-0.00023473
-0.00021704
-0.000199681
-0.000182907
-0.000166907
-0.00015181
-0.000137693
-0.000124589
-0.000112501
-0.000101407
-9.1268e-05
-8.20341e-05
-7.36499e-05
-6.60574e-05
-5.91979e-05
-5.30142e-05
-4.7451e-05
-4.24554e-05
-3.79773e-05
-3.39692e-05
-3.03868e-05
-2.71882e-05
-2.43347e-05
-2.17903e-05
-1.95216e-05
-1.74984e-05
-1.5693e-05
-1.40804e-05
-1.26382e-05
-1.13467e-05
-1.01883e-05
-9.14761e-06
-8.21124e-06
-7.36751e-06
-6.6063e-06
-5.91878e-06
-5.29733e-06
-4.73523e-06
-4.22661e-06
-3.76627e-06
-3.34954e-06
-2.97227e-06
-2.63066e-06
-2.32126e-06
-2.04093e-06
-1.78676e-06
-1.55608e-06
-1.34639e-06
-1.15542e-06
-9.81029e-07
-8.21241e-07
-6.74222e-07
-5.38274e-07
-4.11825e-07
-2.93486e-07
-1.82235e-07
-7.87397e-08
0.000704604
0.000645262
0.000574061
0.000493432
0.000406626
0.000317374
0.000228927
0.000143811
6.3968e-05
-9.181e-06
-7.47321e-05
-0.000132273
-0.000181814
-0.000223696
-0.000258502
-0.000286963
-0.000309884
-0.000328069
-0.000342283
-0.000353212
-0.000361451
-0.000367499
-0.000371763
-0.000374563
-0.000376145
-0.000376694
-0.000376336
-0.000375158
-0.000373205
-0.00037049
-0.000367
-0.000362692
-0.000357506
-0.000351359
-0.000344157
-0.000335803
-0.000326208
-0.00031531
-0.000303094
-0.000289612
-0.000274994
-0.000259454
-0.000243265
-0.000226738
-0.000210182
-0.000193877
-0.000178056
-0.000162898
-0.000148531
-0.000135036
-0.000122456
-0.000110803
-0.000100067
-9.02198e-05
-8.12225e-05
-7.30288e-05
-6.55885e-05
-5.88497e-05
-5.27606e-05
-4.72705e-05
-4.23303e-05
-3.78933e-05
-3.39147e-05
-3.03524e-05
-2.71666e-05
-2.43203e-05
-2.17789e-05
-1.95103e-05
-1.74852e-05
-1.56767e-05
-1.40606e-05
-1.2615e-05
-1.13204e-05
-1.01594e-05
-9.11694e-06
-8.17952e-06
-7.33547e-06
-6.5746e-06
-5.88801e-06
-5.26793e-06
-4.70757e-06
-4.20093e-06
-3.74273e-06
-3.32822e-06
-2.95317e-06
-2.61374e-06
-2.30645e-06
-2.02814e-06
-1.77586e-06
-1.54696e-06
-1.33894e-06
-1.14951e-06
-9.76542e-07
-8.1808e-07
-6.72284e-07
-5.37461e-07
-4.1204e-07
-2.94618e-07
-1.84106e-07
-8.07475e-08
0.000644058
0.000591285
0.000528948
0.000458515
0.000382269
0.000303221
0.000224187
0.000147432
7.47196e-05
7.37744e-06
-5.36924e-05
-0.000108001
-0.000155424
-0.000196138
-0.000230543
-0.000259187
-0.000282706
-0.000301759
-0.00031699
-0.000328993
-0.000338299
-0.000345361
-0.000350558
-0.000354197
-0.000356522
-0.000357717
-0.000357919
-0.000357221
-0.000355681
-0.000353326
-0.000350154
-0.00034614
-0.000341241
-0.000335394
-0.000328529
-0.000320574
-0.000311465
-0.000301163
-0.000289669
-0.00027704
-0.000263394
-0.000248917
-0.000233845
-0.000218442
-0.000202977
-0.000187697
-0.000172813
-0.000158493
-0.000144861
-0.000132001
-0.000119964
-0.00010877
-9.84174e-05
-8.88887e-05
-8.01538e-05
-7.21749e-05
-6.49096e-05
-5.83124e-05
-5.23373e-05
-4.6938e-05
-4.20696e-05
-3.76883e-05
-3.37526e-05
-3.02225e-05
-2.70604e-05
-2.42311e-05
-2.17014e-05
-1.94407e-05
-1.74207e-05
-1.56154e-05
-1.40012e-05
-1.25569e-05
-1.12633e-05
-1.01035e-05
-9.06239e-06
-8.12668e-06
-7.28472e-06
-6.52629e-06
-5.84245e-06
-5.22538e-06
-4.66818e-06
-4.16479e-06
-3.70985e-06
-3.29856e-06
-2.92664e-06
-2.59022e-06
-2.28579e-06
-2.01016e-06
-1.76039e-06
-1.53382e-06
-1.32797e-06
-1.14054e-06
-9.69426e-07
-8.12669e-07
-6.68444e-07
-5.35061e-07
-4.10943e-07
-2.94663e-07
-1.85035e-07
-8.18702e-08
0.000588719
0.000541622
0.000486794
0.000425076
0.000358048
0.000288103
0.000217625
0.000148603
8.26157e-05
2.08836e-05
-3.57194e-05
-8.66617e-05
-0.000131725
-0.000170956
-0.000204604
-0.000233067
-0.000256833
-0.000276431
-0.000292394
-0.000305231
-0.000315403
-0.000323318
-0.000329324
-0.000333709
-0.000336707
-0.000338502
-0.000339234
-0.000339001
-0.000337871
-0.000335881
-0.000333042
-0.000329344
-0.000324758
-0.000319242
-0.000312746
-0.000305218
-0.000296617
-0.000286922
-0.000276147
-0.00026435
-0.000251641
-0.000238181
-0.000224174
-0.000209846
-0.00019543
-0.000181144
-0.00016718
-0.000153691
-0.000140798
-0.000128586
-0.000117108
-0.000106393
-9.64473e-05
-8.72616e-05
-7.8814e-05
-7.10745e-05
-6.40074e-05
-5.75736e-05
-5.17324e-05
-4.64424e-05
-4.16625e-05
-3.73525e-05
-3.34737e-05
-2.99886e-05
-2.68619e-05
-2.406e-05
-2.15515e-05
-1.93071e-05
-1.72997e-05
-1.55042e-05
-1.38979e-05
-1.24601e-05
-1.11722e-05
-1.00175e-05
-8.98127e-06
-8.05035e-06
-7.21315e-06
-6.45952e-06
-5.7805e-06
-5.16823e-06
-4.61579e-06
-4.11707e-06
-3.66666e-06
-3.25972e-06
-2.89195e-06
-2.55944e-06
-2.25869e-06
-1.98648e-06
-1.7399e-06
-1.51628e-06
-1.31314e-06
-1.12822e-06
-9.59421e-07
-8.04792e-07
-6.62519e-07
-5.3092e-07
-4.08415e-07
-2.93542e-07
-1.85018e-07
-8.22892e-08
0.000537891
0.000495764
0.000447373
0.000393152
0.000334174
0.000272323
0.000209588
0.000147681
8.79965e-05
3.16392e-05
-2.05642e-05
-6.80681e-05
-0.000110591
-0.000148081
-0.000180671
-0.00020863
-0.000232323
-0.000252165
-0.000268591
-0.000282024
-0.000292863
-0.000301466
-0.000308149
-0.000313177
-0.000316771
-0.00031911
-0.000320333
-0.000320542
-0.000319811
-0.000318187
-0.00031569
-0.000312323
-0.000308073
-0.000302913
-0.00029681
-0.000289733
-0.000281657
-0.000272576
-0.000262515
-0.00025153
-0.000239725
-0.000227239
-0.000214248
-0.00020095
-0.000187544
-0.000174224
-0.000161159
-0.000148494
-0.000136342
-0.000124785
-0.000113882
-0.000103666
-9.41483e-05
-8.53284e-05
-7.71915e-05
-6.97147e-05
-6.28688e-05
-5.66203e-05
-5.09337e-05
-4.57721e-05
-4.10984e-05
-3.68759e-05
-3.30687e-05
-2.96422e-05
-2.6563e-05
-2.37997e-05
-2.13225e-05
-1.91035e-05
-1.71167e-05
-1.53382e-05
-1.37462e-05
-1.23206e-05
-1.10433e-05
-9.89822e-06
-8.87074e-06
-7.94799e-06
-7.11854e-06
-6.37231e-06
-5.70039e-06
-5.09495e-06
-4.54905e-06
-4.05658e-06
-3.6121e-06
-3.21077e-06
-2.84826e-06
-2.52068e-06
-2.22451e-06
-1.95655e-06
-1.7139e-06
-1.4939e-06
-1.29409e-06
-1.11224e-06
-9.46252e-07
-7.94209e-07
-6.54309e-07
-5.24877e-07
-4.04331e-07
-2.91177e-07
-1.84047e-07
-8.21163e-08
0.000490991
0.000453264
0.000410452
0.000362723
0.000310789
0.000256125
0.000200373
0.000144987
9.11776e-05
3.99332e-05
-7.98051e-06
-5.20251e-05
-9.18817e-05
-0.000127428
-0.000158705
-0.000185881
-0.000209216
-0.000229026
-0.000245657
-0.000259458
-0.000270766
-0.000279892
-0.000287114
-0.000292676
-0.000296781
-0.0002996
-0.000301267
-0.000301888
-0.00030154
-0.000300274
-0.000298122
-0.000295097
-0.000291198
-0.000286413
-0.000280723
-0.000274113
-0.000266574
-0.000258111
-0.000248755
-0.000238564
-0.00022763
-0.000216079
-0.000204063
-0.000191752
-0.000179319
-0.000166935
-0.000154752
-0.000142901
-0.000131488
-0.000120596
-0.00011028
-0.000100579
-9.15105e-05
-8.30786e-05
-7.52755e-05
-6.80843e-05
-6.14818e-05
-5.54403e-05
-4.9929e-05
-4.49154e-05
-4.03662e-05
-3.62481e-05
-3.25282e-05
-2.91744e-05
-2.61558e-05
-2.34429e-05
-2.10076e-05
-1.88235e-05
-1.68661e-05
-1.51125e-05
-1.35416e-05
-1.21343e-05
-1.08732e-05
-9.74242e-06
-8.72792e-06
-7.81706e-06
-6.99863e-06
-6.26268e-06
-5.6004e-06
-5.00401e-06
-4.46662e-06
-3.98214e-06
-3.54514e-06
-3.1508e-06
-2.7948e-06
-2.47325e-06
-2.18265e-06
-1.91984e-06
-1.68192e-06
-1.46627e-06
-1.27046e-06
-1.09228e-06
-9.29656e-07
-7.80701e-07
-6.43631e-07
-5.16784e-07
-3.98581e-07
-2.87504e-07
-1.82124e-07
-8.14232e-08
0.000447524
0.000413728
0.000375797
0.00033373
0.000287979
0.0002397
0.000190234
0.000140804
9.2449e-05
4.60397e-05
2.27354e-06
-3.83338e-05
-7.54468e-05
-0.000108896
-0.000138654
-0.000164808
-0.000187532
-0.00020706
-0.000223659
-0.000237611
-0.000249196
-0.000258678
-0.000266301
-0.000272282
-0.000276807
-0.000280034
-0.000282094
-0.000283089
-0.000283098
-0.000282179
-0.000280368
-0.000277689
-0.00027415
-0.000269752
-0.000264489
-0.000258359
-0.000251363
-0.000243517
-0.000234856
-0.000225438
-0.000215348
-0.000204696
-0.000193614
-0.000182251
-0.000170758
-0.000159282
-0.000147961
-0.000136914
-0.000126239
-0.000116014
-0.000106297
-9.71269e-05
-8.8526e-05
-8.05031e-05
-7.30558e-05
-6.61727e-05
-5.98361e-05
-5.40232e-05
-4.87078e-05
-4.38618e-05
-3.94555e-05
-3.54591e-05
-3.18425e-05
-2.85763e-05
-2.56318e-05
-2.29817e-05
-2.05997e-05
-1.84608e-05
-1.6542e-05
-1.48215e-05
-1.32792e-05
-1.18969e-05
-1.06577e-05
-9.54655e-06
-8.54963e-06
-7.65474e-06
-6.8509e-06
-6.12838e-06
-5.47852e-06
-4.89364e-06
-4.36693e-06
-3.89236e-06
-3.46456e-06
-3.07872e-06
-2.73058e-06
-2.41628e-06
-2.13236e-06
-1.87568e-06
-1.64339e-06
-1.4329e-06
-1.24181e-06
-1.06795e-06
-9.09301e-07
-7.63983e-07
-6.30246e-07
-5.06448e-07
-3.91018e-07
-2.82427e-07
-1.7921e-07
-8.02248e-08
0.000407064
0.000376807
0.000343185
0.000306088
0.000265788
0.000223186
0.000179377
0.000135376
9.20685e-05
5.02106e-05
1.04278e-05
-2.67976e-05
-6.11295e-05
-9.23699e-05
-0.000120442
-0.000145373
-0.000167267
-0.000186287
-0.000202636
-0.000216534
-0.00022821
-0.000237886
-0.00024577
-0.000252053
-0.000256902
-0.000260462
-0.000262855
-0.00026418
-0.000264517
-0.000263925
-0.000262446
-0.000260111
-0.000256936
-0.000252932
-0.000248105
-0.00024246
-0.000236011
-0.000228779
-0.000220802
-0.000212137
-0.000202862
-0.000193076
-0.000182893
-0.000172442
-0.000161855
-0.000151262
-0.000140784
-0.00013053
-0.000120589
-0.000111036
-0.000101927
-9.33018e-05
-8.5186e-05
-7.7592e-05
-7.05218e-05
-6.39689e-05
-5.79202e-05
-5.23576e-05
-4.72592e-05
-4.26008e-05
-3.83565e-05
-3.44995e-05
-3.10027e-05
-2.78395e-05
-2.49834e-05
-2.24092e-05
-2.00922e-05
-1.80095e-05
-1.6139e-05
-1.44604e-05
-1.29547e-05
-1.16044e-05
-1.03936e-05
-9.30753e-06
-8.33316e-06
-7.45862e-06
-6.67325e-06
-5.96758e-06
-5.33315e-06
-4.76245e-06
-4.24878e-06
-3.78621e-06
-3.36944e-06
-2.99377e-06
-2.65495e-06
-2.34922e-06
-2.07314e-06
-1.82365e-06
-1.59793e-06
-1.39345e-06
-1.20786e-06
-1.03904e-06
-8.84994e-07
-7.43896e-07
-6.14029e-07
-4.93776e-07
-3.81584e-07
-2.75927e-07
-1.7533e-07
-7.85697e-08
0.000369243
0.000342197
0.000312411
0.000279709
0.000244235
0.000206695
0.000167977
0.000128921
9.02712e-05
5.26793e-05
1.6698e-05
-1.72305e-05
-4.8781e-05
-7.77418e-05
-0.000104004
-0.000127547
-0.000148423
-0.000166739
-0.00018264
-0.000196296
-0.000207888
-0.000217599
-0.000225606
-0.000232071
-0.000237143
-0.000240954
-0.000243615
-0.00024522
-0.000245847
-0.000245556
-0.000244393
-0.000242392
-0.000239579
-0.000235969
-0.000231579
-0.000226421
-0.000220516
-0.000213891
-0.000206585
-0.000198654
-0.000190168
-0.000181215
-0.000171897
-0.000162326
-0.000152615
-0.000142879
-0.000133226
-0.000123752
-0.000114541
-0.000105662
-9.71681e-05
-8.91004e-05
-8.14854e-05
-7.43386e-05
-6.76656e-05
-6.1464e-05
-5.57247e-05
-5.04337e-05
-4.55732e-05
-4.11225e-05
-3.70592e-05
-3.33597e-05
-2.99999e-05
-2.69554e-05
-2.42023e-05
-2.17174e-05
-1.9478e-05
-1.74625e-05
-1.56507e-05
-1.40234e-05
-1.25626e-05
-1.12518e-05
-1.0076e-05
-9.02111e-06
-8.07464e-06
-7.22518e-06
-6.46248e-06
-5.77739e-06
-5.16169e-06
-4.60807e-06
-4.11003e-06
-3.66175e-06
-3.25808e-06
-2.89438e-06
-2.56652e-06
-2.27081e-06
-2.00389e-06
-1.76275e-06
-1.54467e-06
-1.34716e-06
-1.16794e-06
-1.00494e-06
-8.56213e-07
-7.19991e-07
-5.94596e-07
-4.78447e-07
-3.70019e-07
-2.67807e-07
-1.70345e-07
-7.63616e-08
0.000333716
0.000309599
0.000283252
0.000254464
0.000223291
0.000190283
0.000156162
0.000121618
8.72712e-05
5.36768e-05
2.13169e-05
-9.41041e-06
-3.81993e-05
-6.48358e-05
-8.91914e-05
-0.000111214
-0.000130913
-0.000148352
-0.00016363
-0.000176872
-0.00018822
-0.000197819
-0.000205815
-0.000212348
-0.000217547
-0.000221526
-0.000224389
-0.000226222
-0.000227099
-0.00022708
-0.000226212
-0.000224534
-0.000222073
-0.000218855
-0.000214899
-0.000210226
-0.00020486
-0.000198832
-0.000192183
-0.000184965
-0.000177243
-0.000169096
-0.000160613
-0.00015189
-0.000143028
-0.000134127
-0.000125281
-0.000116577
-0.000108091
-9.98867e-05
-9.20153e-05
-8.45161e-05
-7.74169e-05
-7.07349e-05
-6.44787e-05
-5.86489e-05
-5.32403e-05
-4.82422e-05
-4.36405e-05
-3.94179e-05
-3.55552e-05
-3.20318e-05
-2.88263e-05
-2.5917e-05
-2.32822e-05
-2.09007e-05
-1.87518e-05
-1.68156e-05
-1.50732e-05
-1.35069e-05
-1.20999e-05
-1.08367e-05
-9.70295e-06
-8.68561e-06
-7.77269e-06
-6.95334e-06
-6.21777e-06
-5.55719e-06
-4.96369e-06
-4.43024e-06
-3.95054e-06
-3.51896e-06
-3.1305e-06
-2.78066e-06
-2.46544e-06
-2.18123e-06
-1.92479e-06
-1.69321e-06
-1.48383e-06
-1.29424e-06
-1.12225e-06
-9.65844e-07
-8.23154e-07
-6.92457e-07
-5.72133e-07
-4.60647e-07
-3.56514e-07
-2.58263e-07
-1.64463e-07
-7.37644e-08
0.000293925
0.000273001
0.000250336
0.000225705
0.000199094
0.000170909
0.000141711
0.000112042
8.23982e-05
5.32304e-05
2.49429e-05
-2.11995e-06
-2.76818e-05
-5.15364e-05
-7.35449e-05
-9.36301e-05
-0.000111768
-0.000127981
-0.000142323
-0.000154879
-0.000165747
-0.000175036
-0.00018286
-0.00018933
-0.000194553
-0.000198626
-0.000201639
-0.00020367
-0.000204787
-0.000205046
-0.000204496
-0.000203176
-0.000201119
-0.000198353
-0.000194904
-0.000190798
-0.000186062
-0.00018073
-0.000174843
-0.000168449
-0.000161606
-0.000154384
-0.000146858
-0.00013911
-0.000131226
-0.000123289
-0.000115382
-0.000107579
-9.99481e-05
-9.25459e-05
-8.54202e-05
-7.86083e-05
-7.21379e-05
-6.60278e-05
-6.02886e-05
-5.49244e-05
-4.9933e-05
-4.53077e-05
-4.10381e-05
-3.71105e-05
-3.35093e-05
-3.02173e-05
-2.72162e-05
-2.44872e-05
-2.20113e-05
-1.97697e-05
-1.77441e-05
-1.59166e-05
-1.427e-05
-1.27883e-05
-1.14562e-05
-1.02594e-05
-9.18474e-06
-8.22006e-06
-7.35423e-06
-6.57713e-06
-5.87956e-06
-5.25325e-06
-4.69074e-06
-4.18535e-06
-3.7311e-06
-3.32264e-06
-2.95517e-06
-2.62442e-06
-2.32655e-06
-2.05812e-06
-1.81604e-06
-1.59751e-06
-1.4e-06
-1.22123e-06
-1.05909e-06
-9.11674e-07
-7.772e-07
-6.54027e-07
-5.40613e-07
-4.35491e-07
-3.3724e-07
-2.4445e-07
-1.5576e-07
-6.97186e-08
0.000250103
0.000232562
0.000213722
0.000193362
0.000171423
0.000148195
0.000124092
9.9523e-05
7.48639e-05
5.04648e-05
2.6647e-05
3.69308e-06
-1.81611e-05
-3.87298e-05
-5.78769e-05
-7.55133e-05
-9.15925e-05
-0.000106105
-0.000119071
-0.000130535
-0.00014056
-0.00014922
-0.000156594
-0.000162767
-0.000167819
-0.000171831
-0.000174873
-0.000177014
-0.000178312
-0.000178818
-0.000178579
-0.000177633
-0.000176015
-0.000173754
-0.000170881
-0.000167422
-0.000163408
-0.000158873
-0.000153854
-0.000148397
-0.000142552
-0.000136378
-0.000129936
-0.000123296
-0.000116525
-0.000109695
-0.000102871
-9.61179e-05
-8.94913e-05
-8.30414e-05
-7.68104e-05
-7.08322e-05
-6.51333e-05
-5.97326e-05
-5.46422e-05
-4.98684e-05
-4.54121e-05
-4.12701e-05
-3.74354e-05
-3.38982e-05
-3.06466e-05
-2.76668e-05
-2.4944e-05
-2.24629e-05
-2.02073e-05
-1.81614e-05
-1.63095e-05
-1.46361e-05
-1.31263e-05
-1.1766e-05
-1.05418e-05
-9.44091e-06
-8.45171e-06
-7.56329e-06
-6.76562e-06
-6.04955e-06
-5.40675e-06
-4.82965e-06
-4.31145e-06
-3.84601e-06
-3.42781e-06
-3.05192e-06
-2.71391e-06
-2.40982e-06
-2.13608e-06
-1.88951e-06
-1.66724e-06
-1.46666e-06
-1.28545e-06
-1.12148e-06
-9.72802e-07
-8.37644e-07
-7.14366e-07
-6.01447e-07
-4.97458e-07
-4.01038e-07
-3.10865e-07
-2.25629e-07
-1.44057e-07
-6.46654e-08
0.000206477
0.000192209
0.000177
0.00016065
0.000143079
0.000124485
0.00010517
8.54298e-05
6.5541e-05
4.57648e-05
2.63468e-05
7.50929e-06
-1.05558e-05
-2.76907e-05
-4.37723e-05
-5.87118e-05
-7.24521e-05
-8.49651e-05
-9.62472e-05
-0.000106315
-0.000115203
-0.000122955
-0.000129624
-0.000135269
-0.000139949
-0.000143722
-0.000146646
-0.000148775
-0.000150157
-0.000150837
-0.000150856
-0.000150249
-0.00014905
-0.000147287
-0.000144991
-0.00014219
-0.000138912
-0.00013519
-0.000131059
-0.000126558
-0.000121729
-0.00011662
-0.000111283
-0.000105772
-0.000100142
-9.4449e-05
-8.87474e-05
-8.3088e-05
-7.75176e-05
-7.20779e-05
-6.68048e-05
-6.17282e-05
-5.68719e-05
-5.22539e-05
-4.78865e-05
-4.37773e-05
-3.99294e-05
-3.6342e-05
-3.30112e-05
-2.99305e-05
-2.70912e-05
-2.44829e-05
-2.20942e-05
-1.99128e-05
-1.79259e-05
-1.61204e-05
-1.44833e-05
-1.30018e-05
-1.16634e-05
-1.04561e-05
-9.36846e-06
-8.38968e-06
-7.50962e-06
-6.71886e-06
-6.00868e-06
-5.37108e-06