/*--------------------------------*- C++ -*----------------------------------*\
| =========                 |                                                 |
| \\      /  F ield         | OpenFOAM: The Open Source CFD Toolbox           |
|  \\    /   O peration     | Version:  2.3.0                                 |
|   \\  /    A nd           | Web:      www.OpenFOAM.org                      |
|    \\/     M anipulation  |                                                 |
\*---------------------------------------------------------------------------*/
FoamFile
{
    version     2.0;
    format      ascii;
    class       surfaceScalarField;
    location    "0.15";
    object      phi_0;
}
// * * * * * * * * * * * * * * * * * * * * * * * * * * * * * * * * * * * * * //

dimensions      [0 3 -1 0 0 0 0];

internalField   nonuniform List<scalar> 
6598
(
2.81929e-08
2.8928e-09
-3.10857e-08
2.53201e-08
2.87278e-09
2.26256e-08
2.69443e-09
2.01434e-08
2.48223e-09
1.78898e-08
2.25363e-09
1.58755e-08
2.01427e-09
1.4103e-08
1.7725e-09
1.25668e-08
1.53624e-09
1.12546e-08
1.31219e-09
1.01488e-08
1.10582e-09
9.22767e-09
9.21108e-10
8.46733e-09
7.60348e-10
7.84321e-09
6.24113e-10
7.33174e-09
5.11472e-10
6.91139e-09
4.2035e-10
6.56343e-09
3.47962e-10
6.2722e-09
2.91227e-10
6.0251e-09
2.47106e-10
5.81226e-09
2.12833e-10
5.62621e-09
1.86048e-10
5.46139e-09
1.64829e-10
5.3137e-09
1.47681e-10
5.18022e-09
1.3348e-10
5.05882e-09
1.21405e-10
4.94795e-09
1.10873e-10
4.84647e-09
1.01477e-10
4.75353e-09
9.29359e-11
4.66848e-09
8.50597e-11
4.59076e-09
7.77152e-11
4.51996e-09
7.08046e-11
4.45571e-09
6.4243e-11
4.39777e-09
5.79403e-11
4.34599e-09
5.17848e-11
4.30035e-09
4.56325e-11
4.26105e-09
3.93071e-11
4.22844e-09
3.26032e-11
4.2032e-09
2.52429e-11
4.18632e-09
1.68839e-11
4.17899e-09
7.32832e-12
4.18044e-09
-1.45184e-12
4.18824e-09
-7.80253e-12
4.20052e-09
-1.22739e-11
4.21583e-09
-1.53165e-11
4.2329e-09
-1.70612e-11
4.25059e-09
-1.76992e-11
4.26808e-09
-1.74903e-11
4.28479e-09
-1.67004e-11
4.30034e-09
-1.55589e-11
4.31459e-09
-1.42421e-11
4.32746e-09
-1.28733e-11
4.33899e-09
-1.15318e-11
4.34926e-09
-1.02643e-11
4.35835e-09
-9.09469e-12
4.36638e-09
-8.03189e-12
4.37346e-09
-7.07597e-12
4.37968e-09
-6.222e-12
4.38514e-09
-5.46261e-12
4.38993e-09
-4.78965e-12
4.39413e-09
-4.19494e-12
4.3978e-09
-3.67079e-12
4.40101e-09
-3.21011e-12
4.40381e-09
-2.80642e-12
4.40627e-09
-2.45386e-12
4.40842e-09
-2.14702e-12
4.4103e-09
-1.88092e-12
4.41195e-09
-1.65094e-12
4.4134e-09
-1.45279e-12
4.41468e-09
-1.28246e-12
4.41582e-09
-1.13627e-12
4.41683e-09
-1.01082e-12
4.41773e-09
-9.03012e-13
4.41854e-09
-8.10095e-13
4.41927e-09
-7.29632e-13
4.41993e-09
-6.59504e-13
4.42053e-09
-5.9792e-13
4.42107e-09
-5.43376e-13
4.42157e-09
-4.94644e-13
4.42202e-09
-4.50739e-13
4.42243e-09
-4.10879e-13
4.4228e-09
-3.74461e-13
4.42315e-09
-3.41018e-13
4.42346e-09
-3.10188e-13
4.42374e-09
-2.81705e-13
4.42399e-09
-2.55338e-13
4.42422e-09
-2.30929e-13
4.42443e-09
-2.08312e-13
4.42462e-09
-1.87368e-13
4.42479e-09
-1.67973e-13
4.42494e-09
-1.50008e-13
4.42507e-09
-1.33372e-13
4.42519e-09
-1.17946e-13
4.42529e-09
-1.03634e-13
4.42538e-09
-9.03281e-14
4.42546e-09
-7.7931e-14
4.42553e-09
-6.63471e-14
4.42558e-09
-5.54873e-14
4.42563e-09
-4.53086e-14
4.42566e-09
-3.59888e-14
4.42569e-09
-2.90311e-14
-3.57368e-14
3.38685e-08
3.17248e-09
-3.41482e-08
3.3273e-08
3.46833e-09
3.24433e-08
3.52412e-09
3.14565e-08
3.46898e-09
3.03687e-08
3.3415e-09
2.92258e-08
3.15717e-09
2.80652e-08
2.93305e-09
2.69157e-08
2.68573e-09
2.57985e-08
2.42938e-09
2.47286e-08
2.17571e-09
2.37158e-08
1.93396e-09
2.27654e-08
1.7107e-09
2.18797e-08
1.50984e-09
2.10583e-08
1.33291e-09
2.02991e-08
1.17952e-09
1.95991e-08
1.04798e-09
1.89545e-08
9.35854e-10
1.83612e-08
8.40369e-10
1.78152e-08
7.58794e-10
1.73127e-08
6.88622e-10
1.68498e-08
6.27682e-10
1.64233e-08
5.74163e-10
1.60302e-08
5.26597e-10
1.56678e-08
4.83817e-10
1.53338e-08
4.44903e-10
1.50261e-08
4.09134e-10
1.47431e-08
3.7594e-10
1.44833e-08
3.44866e-10
1.42455e-08
3.15534e-10
1.40287e-08
2.87617e-10
1.38321e-08
2.60802e-10
1.36553e-08
2.34769e-10
1.34979e-08
2.0917e-10
1.33599e-08
1.83625e-10
1.32415e-08
1.57736e-10
1.31429e-08
1.31137e-10
1.30646e-08
1.03575e-10
1.30065e-08
7.50165e-11
1.29684e-08
4.54564e-11
1.29516e-08
1.52735e-11
1.29546e-08
-1.07818e-11
1.29713e-08
-2.90076e-11
1.29971e-08
-4.11245e-11
1.30286e-08
-4.85573e-11
1.30632e-08
-5.22391e-11
1.30987e-08
-5.30444e-11
1.31338e-08
-5.17921e-11
1.31675e-08
-4.91859e-11
1.3199e-08
-4.57822e-11
1.32281e-08
-4.19902e-11
1.32547e-08
-3.80915e-11
1.32787e-08
-3.42686e-11
1.33002e-08
-3.06316e-11
1.33194e-08
-2.72404e-11
1.33365e-08
-2.41221e-11
1.33515e-08
-2.12836e-11
1.33648e-08
-1.87194e-11
1.33764e-08
-1.64178e-11
1.33866e-08
-1.43634e-11
1.33955e-08
-1.25395e-11
1.34032e-08
-1.09287e-11
1.34099e-08
-9.51389e-12
1.34157e-08
-8.27786e-12
1.34208e-08
-7.20386e-12
1.34252e-08
-6.27553e-12
1.3429e-08
-5.47697e-12
1.34323e-08
-4.79294e-12
1.34352e-08
-4.20894e-12
1.34378e-08
-3.71135e-12
1.34401e-08
-3.28762e-12
1.34421e-08
-2.92633e-12
1.34439e-08
-2.61729e-12
1.34456e-08
-2.35159e-12
1.3447e-08
-2.12155e-12
1.34483e-08
-1.92071e-12
1.34495e-08
-1.74373e-12
1.34506e-08
-1.58628e-12
1.34516e-08
-1.44491e-12
1.34525e-08
-1.31694e-12
1.34534e-08
-1.20028e-12
1.34541e-08
-1.09334e-12
1.34548e-08
-9.94903e-13
1.34554e-08
-9.04051e-13
1.3456e-08
-8.20042e-13
1.34565e-08
-7.42298e-13
1.3457e-08
-6.70318e-13
1.34574e-08
-6.03667e-13
1.34577e-08
-5.41956e-13
1.34581e-08
-4.84801e-13
1.34584e-08
-4.31855e-13
1.34586e-08
-3.82764e-13
1.34589e-08
-3.37195e-13
1.34591e-08
-2.94818e-13
1.34593e-08
-2.5531e-13
1.34594e-08
-2.18361e-13
1.34595e-08
-1.83669e-13
1.34596e-08
-1.51021e-13
1.34597e-08
-1.20654e-13
1.34598e-08
-9.51995e-14
-8.73604e-14
3.5952e-08
3.01861e-09
-3.57981e-08
3.60182e-08
3.40212e-09
3.5958e-08
3.58435e-09
3.57761e-08
3.6509e-09
3.54826e-08
3.63501e-09
3.50915e-08
3.54827e-09
3.46201e-08
3.40439e-09
3.40865e-08
3.21934e-09
3.35076e-08
3.00832e-09
3.28986e-08
2.78473e-09
3.22726e-08
2.55994e-09
3.16405e-08
2.3428e-09
3.10108e-08
2.13951e-09
3.03901e-08
1.95365e-09
2.9783e-08
1.78662e-09
2.91928e-08
1.63819e-09
2.86216e-08
1.50702e-09
2.80708e-08
1.39117e-09
2.75411e-08
1.28846e-09
2.7033e-08
1.19677e-09
2.65465e-08
1.11416e-09
2.60817e-08
1.03894e-09
2.56386e-08
9.69726e-10
2.52171e-08
9.05356e-10
2.48171e-08
8.44904e-10
2.44386e-08
7.87621e-10
2.40816e-08
7.32895e-10
2.37463e-08
6.80214e-10
2.34327e-08
6.29133e-10
2.3141e-08
5.79239e-10
2.28717e-08
5.30124e-10
2.26251e-08
4.81362e-10
2.24018e-08
4.32503e-10
2.22023e-08
3.83098e-10
2.20273e-08
3.32748e-10
2.18772e-08
2.81209e-10
2.17523e-08
2.28538e-10
2.1652e-08
1.75336e-10
2.15744e-08
1.23059e-10
2.15161e-08
7.35059e-11
2.14784e-08
2.69566e-11
2.14629e-08
-1.3509e-11
2.14656e-08
-4.38064e-11
2.14816e-08
-6.45537e-11
2.1507e-08
-7.76766e-11
2.15387e-08
-8.47677e-11
2.15742e-08
-8.72738e-11
2.16115e-08
-8.64652e-11
2.16491e-08
-8.33892e-11
2.1686e-08
-7.88611e-11
2.17214e-08
-7.34871e-11
2.17548e-08
-6.77003e-11
2.1786e-08
-6.17994e-11
2.18147e-08
-5.5984e-11
2.1841e-08
-5.03829e-11
2.18648e-08
-4.50762e-11
2.18862e-08
-4.01116e-11
2.19052e-08
-3.55147e-11
2.19222e-08
-3.12971e-11
2.19371e-08
-2.74603e-11
2.19502e-08
-2.39985e-11
2.19616e-08
-2.09007e-11
2.19714e-08
-1.81515e-11
2.198e-08
-1.57314e-11
2.19873e-08
-1.36184e-11
2.19936e-08
-1.17877e-11
2.1999e-08
-1.02132e-11
2.20037e-08
-8.86778e-12
2.20077e-08
-7.72433e-12
2.20112e-08
-6.75635e-12
2.20142e-08
-5.93869e-12
2.20168e-08
-5.24803e-12
2.20191e-08
-4.66332e-12
2.20212e-08
-4.16597e-12
2.2023e-08
-3.73999e-12
2.20246e-08
-3.37189e-12
2.20261e-08
-3.05057e-12
2.20274e-08
-2.7671e-12
2.20286e-08
-2.5144e-12
2.20297e-08
-2.28698e-12
2.20307e-08
-2.08067e-12
2.20316e-08
-1.89227e-12
2.20324e-08
-1.7194e-12
2.20331e-08
-1.56022e-12
2.20338e-08
-1.41331e-12
2.20344e-08
-1.27754e-12
2.2035e-08
-1.15196e-12
2.20355e-08
-1.03574e-12
2.20359e-08
-9.28143e-13
2.20363e-08
-8.2847e-13
2.20366e-08
-7.36062e-13
2.2037e-08
-6.50284e-13
2.20372e-08
-5.70527e-13
2.20375e-08
-4.96188e-13
2.20377e-08
-4.26686e-13
2.20379e-08
-3.61449e-13
2.2038e-08
-2.99986e-13
2.20381e-08
-2.42199e-13
2.20382e-08
-1.89862e-13
-1.49962e-13
3.75107e-08
2.82486e-09
-3.7317e-08
3.77106e-08
3.20219e-09
3.78709e-08
3.42411e-09
3.79782e-08
3.54352e-09
3.80256e-08
3.58766e-09
3.80084e-08
3.56546e-09
3.79267e-08
3.48605e-09
3.77844e-08
3.36169e-09
3.75875e-08
3.20519e-09
3.73437e-08
3.02858e-09
3.7061e-08
2.84257e-09
3.67477e-08
2.6561e-09
3.64113e-08
2.47592e-09
3.60584e-08
2.30654e-09
3.56946e-08
2.15041e-09
3.53245e-08
2.00834e-09
3.49516e-08
1.87994e-09
3.45787e-08
1.76405e-09
3.4208e-08
1.65912e-09
3.38413e-08
1.56349e-09
3.34799e-08
1.47553e-09
3.31251e-08
1.39377e-09
3.27779e-08
1.31695e-09
3.24393e-08
1.24397e-09
3.21102e-08
1.17395e-09
3.17917e-08
1.10614e-09
3.14847e-08
1.03992e-09
3.11901e-08
9.74749e-10
3.09091e-08
9.10147e-10
3.06427e-08
8.45656e-10
3.0392e-08
7.80819e-10
3.01582e-08
7.15176e-10
2.99424e-08
6.48271e-10
2.97458e-08
5.79705e-10
2.95694e-08
5.0922e-10
2.94137e-08
4.36846e-10
2.92792e-08
3.6308e-10
2.91654e-08
2.89104e-10
2.90715e-08
2.1696e-10
2.89957e-08
1.49305e-10
2.89343e-08
8.83492e-11
2.88868e-08
3.40426e-11
2.88554e-08
-1.2483e-11
2.88395e-08
-4.86041e-11
2.88364e-08
-7.45828e-11
2.88437e-08
-9.21198e-11
2.88593e-08
-1.02835e-10
2.88811e-08
-1.08223e-10
2.89073e-08
-1.09596e-10
2.89365e-08
-1.0804e-10
2.89674e-08
-1.04417e-10
2.89991e-08
-9.93911e-11
2.90307e-08
-9.34593e-11
2.90617e-08
-8.69902e-11
2.90916e-08
-8.02542e-11
2.912e-08
-7.345e-11
2.91466e-08
-6.67246e-11
2.91713e-08
-6.01884e-11
2.91939e-08
-5.39245e-11
2.92144e-08
-4.79965e-11
2.92329e-08
-4.24514e-11
2.92493e-08
-3.73228e-11
2.92638e-08
-3.2632e-11
2.92764e-08
-2.83888e-11
2.92874e-08
-2.45924e-11
2.92969e-08
-2.12325e-11
2.93049e-08
-1.829e-11
2.93118e-08
-1.57389e-11
2.93176e-08
-1.35478e-11
2.93226e-08
-1.16815e-11
2.93267e-08
-1.01031e-11
2.93303e-08
-8.77507e-12
2.93333e-08
-7.66134e-12
2.93358e-08
-6.72799e-12
2.9338e-08
-5.94428e-12
2.93399e-08
-5.28307e-12
2.93416e-08
-4.7211e-12
2.93431e-08
-4.23891e-12
2.93444e-08
-3.82064e-12
2.93455e-08
-3.45359e-12
2.93466e-08
-3.12788e-12
2.93475e-08
-2.83588e-12
2.93484e-08
-2.57183e-12
2.93492e-08
-2.33138e-12
2.93499e-08
-2.11125e-12
2.93505e-08
-1.90895e-12
2.93511e-08
-1.72251e-12
2.93516e-08
-1.55038e-12
2.9352e-08
-1.39121e-12
2.93525e-08
-1.24387e-12
2.93528e-08
-1.1073e-12
2.93532e-08
-9.80542e-13
2.93534e-08
-8.62676e-13
2.93537e-08
-7.52822e-13
2.93539e-08
-6.50131e-13
2.93541e-08
-5.53762e-13
2.93543e-08
-4.62907e-13
2.93544e-08
-3.76879e-13
2.93545e-08
-2.95276e-13
-2.14697e-13
3.90292e-08
2.65547e-09
-3.88598e-08
3.92314e-08
2.99997e-09
3.94293e-08
3.22615e-09
3.96096e-08
3.3633e-09
3.97641e-08
3.43315e-09
3.98853e-08
3.44423e-09
3.99679e-08
3.40349e-09
4.00093e-08
3.32029e-09
4.00094e-08
3.20501e-09
3.99703e-08
3.06771e-09
3.98953e-08
2.9176e-09
3.97887e-08
2.76267e-09
3.96554e-08
2.60926e-09
3.95e-08
2.46193e-09
3.93269e-08
2.32351e-09
3.91399e-08
2.19533e-09
3.89422e-08
2.07761e-09
3.87365e-08
1.96977e-09
3.85249e-08
1.87075e-09
3.83091e-08
1.77926e-09
3.80906e-08
1.69399e-09
3.78708e-08
1.61367e-09
3.76506e-08
1.53714e-09
3.74311e-08
1.46341e-09
3.72135e-08
1.3916e-09
3.69986e-08
1.32098e-09
3.67877e-08
1.2509e-09
3.65816e-08
1.1808e-09
3.63816e-08
1.11015e-09
3.61888e-08
1.03846e-09
3.60044e-08
9.65244e-10
3.58295e-08
8.90037e-10
3.56654e-08
8.1242e-10
3.5513e-08
7.32087e-10
3.53732e-08
6.48956e-10
3.52468e-08
5.63321e-10
3.51338e-08
4.76025e-10
3.50343e-08
3.88623e-10
3.49478e-08
3.0343e-10
3.48739e-08
2.23249e-10
3.48115e-08
1.50692e-10
3.47583e-08
8.72511e-11
3.47133e-08
3.25213e-11
3.46781e-08
-1.33709e-11
3.4653e-08
-4.94365e-11
3.46371e-08
-7.62825e-11
3.46296e-08
-9.53438e-11
3.46294e-08
-1.08016e-10
3.46354e-08
-1.15578e-10
3.46465e-08
-1.19141e-10
3.46617e-08
-1.19629e-10
3.46801e-08
-1.17787e-10
3.47009e-08
-1.14205e-10
3.47232e-08
-1.0934e-10
3.47465e-08
-1.03551e-10
3.47702e-08
-9.71197e-11
3.47937e-08
-9.02724e-11
3.48167e-08
-8.31937e-11
3.48388e-08
-7.60383e-11
3.48598e-08
-6.89379e-11
3.48793e-08
-6.20059e-11
3.48973e-08
-5.53384e-11
3.49137e-08
-4.90161e-11
3.49284e-08
-4.31032e-11
3.49415e-08
-3.76476e-11
3.49529e-08
-3.26806e-11
3.49629e-08
-2.82174e-11
3.49714e-08
-2.4258e-11
3.49786e-08
-2.07886e-11
3.49847e-08
-1.77841e-11
3.49898e-08
-1.52102e-11
3.49941e-08
-1.30264e-11
3.49976e-08
-1.11888e-11
3.50005e-08
-9.6519e-12
3.5003e-08
-8.37163e-12
3.5005e-08
-7.3064e-12
3.50067e-08
-6.41853e-12
3.50081e-08
-5.67494e-12
3.50094e-08
-5.04737e-12
3.50104e-08
-4.51238e-12
3.50113e-08
-4.05098e-12
3.50122e-08
-3.64814e-12
3.50129e-08
-3.29219e-12
3.50135e-08
-2.97423e-12
3.50141e-08
-2.68752e-12
3.50146e-08
-2.42703e-12
3.50151e-08
-2.18892e-12
3.50155e-08
-1.97029e-12
3.50159e-08
-1.76885e-12
3.50162e-08
-1.58274e-12
3.50165e-08
-1.41041e-12
3.50168e-08
-1.25049e-12
3.5017e-08
-1.10174e-12
3.50172e-08
-9.63038e-13
3.50174e-08
-8.33289e-13
3.50176e-08
-7.11436e-13
3.50177e-08
-5.964e-13
3.50178e-08
-4.86914e-13
3.50179e-08
-3.8039e-13
-2.63623e-13
4.05861e-08
2.51288e-09
-4.04435e-08
4.07668e-08
2.81923e-09
4.09565e-08
3.03648e-09
4.11421e-08
3.17773e-09
4.13167e-08
3.25856e-09
4.14739e-08
3.28702e-09
4.16083e-08
3.26908e-09
4.17163e-08
3.21229e-09
4.17961e-08
3.12519e-09
4.18475e-08
3.01629e-09
4.18717e-08
2.89348e-09
4.18706e-08
2.7637e-09
4.18472e-08
2.63267e-09
4.18045e-08
2.50467e-09
4.17454e-08
2.38255e-09
4.16729e-08
2.26789e-09
4.15892e-08
2.16124e-09
4.14966e-08
2.06241e-09
4.13966e-08
1.97072e-09
4.12907e-08
1.88519e-09
4.11799e-08
1.80475e-09
4.10653e-08
1.7283e-09
4.09476e-08
1.65481e-09
4.08277e-08
1.58336e-09
4.07062e-08
1.51311e-09
4.05839e-08
1.44331e-09
4.04614e-08
1.37331e-09
4.03397e-08
1.30251e-09
4.02195e-08
1.23037e-09
4.01016e-08
1.15636e-09
3.99869e-08
1.08e-09
3.98761e-08
1.00082e-09
3.977e-08
9.1848e-10
3.96693e-08
8.32755e-10
3.95746e-08
7.43714e-10
3.94861e-08
6.51832e-10
3.9404e-08
5.58147e-10
3.93282e-08
4.64362e-10
3.92588e-08
3.72816e-10
3.91959e-08
2.86216e-10
3.91394e-08
2.07109e-10
3.90894e-08
1.3728e-10
3.90446e-08
7.73499e-11
3.90045e-08
2.67022e-11
3.89702e-08
-1.51345e-11
3.89421e-08
-4.81892e-11
3.89201e-08
-7.33688e-11
3.8904e-08
-9.18807e-11
3.88933e-08
-1.04871e-10
3.88875e-08
-1.13363e-10
3.88861e-08
-1.18235e-10
3.88886e-08
-1.20215e-10
3.88943e-08
-1.19893e-10
3.89027e-08
-1.17741e-10
3.89132e-08
-1.14141e-10
3.89255e-08
-1.09401e-10
3.8939e-08
-1.03778e-10
3.89533e-08
-9.74911e-11
3.8968e-08
-9.07309e-11
3.89828e-08
-8.367e-11
3.89972e-08
-7.64654e-11
3.90111e-08
-6.92599e-11
3.90243e-08
-6.21829e-11
3.90365e-08
-5.53487e-11
3.90478e-08
-4.88546e-11
3.90579e-08
-4.27793e-11
3.90668e-08
-3.71817e-11
3.90747e-08
-3.21005e-11
3.90814e-08
-2.75542e-11
3.90872e-08
-2.3543e-11
3.9092e-08
-2.00509e-11
3.9096e-08
-1.70484e-11
3.90994e-08
-1.44961e-11
3.9102e-08
-1.23481e-11
3.91042e-08
-1.05551e-11
3.9106e-08
-9.06737e-12
3.91074e-08
-7.83697e-12
3.91086e-08
-6.81976e-12
3.91095e-08
-5.97634e-12
3.91102e-08
-5.27271e-12
3.91109e-08
-4.68035e-12
3.91114e-08
-4.17596e-12
3.91119e-08
-3.74098e-12
3.91122e-08
-3.36091e-12
3.91126e-08
-3.02463e-12
3.91129e-08
-2.72376e-12
3.91131e-08
-2.45195e-12
3.91134e-08
-2.20449e-12
3.91136e-08
-1.97777e-12
3.91138e-08
-1.76904e-12
3.91139e-08
-1.57608e-12
3.91141e-08
-1.39708e-12
3.91142e-08
-1.23049e-12
3.91143e-08
-1.07494e-12
3.91144e-08
-9.2917e-13
3.91145e-08
-7.91971e-13
3.91146e-08
-6.62096e-13
3.91146e-08
-5.3792e-13
3.91146e-08
-4.15632e-13
-2.78126e-13
4.21944e-08
2.39101e-09
-4.20725e-08
4.23529e-08
2.66067e-09
4.25258e-08
2.86366e-09
4.27002e-08
3.00324e-09
4.28697e-08
3.08912e-09
4.30286e-08
3.12807e-09
4.31724e-08
3.12532e-09
4.32976e-08
3.08704e-09
4.34025e-08
3.02037e-09
4.34862e-08
2.93258e-09
4.35492e-08
2.83049e-09
4.35927e-08
2.72018e-09
4.36186e-08
2.60676e-09
4.36291e-08
2.49419e-09
4.36264e-08
2.38524e-09
4.36126e-08
2.28163e-09
4.35898e-08
2.18412e-09
4.35594e-08
2.09282e-09
4.35227e-08
2.00733e-09
4.3481e-08
1.92694e-09
4.3435e-08
1.85079e-09
4.33853e-08
1.77797e-09
4.33325e-08
1.70758e-09
4.32771e-08
1.63874e-09
4.32195e-08
1.57069e-09
4.31602e-08
1.50269e-09
4.30994e-08
1.43409e-09
4.30376e-08
1.3643e-09
4.29752e-08
1.29274e-09
4.29127e-08
1.21891e-09
4.28503e-08
1.14232e-09
4.27886e-08
1.06255e-09
4.27278e-08
9.79303e-10
4.26681e-08
8.92447e-10
4.26097e-08
8.02148e-10
4.25525e-08
7.0898e-10
4.24966e-08
6.14038e-10
4.2442e-08
5.19003e-10
4.23887e-08
4.26081e-10
4.23372e-08
3.3775e-10
4.22879e-08
2.56345e-10
4.22416e-08
1.83606e-10
4.21986e-08
1.20421e-10
4.21585e-08
6.67915e-11
4.21214e-08
2.19472e-11
4.2088e-08
-1.48077e-11
4.20587e-08
-4.40504e-11
4.20335e-08
-6.6704e-11
4.20124e-08
-8.37761e-11
4.19952e-08
-9.61878e-11
4.19817e-08
-1.04744e-10
4.19717e-08
-1.10124e-10
4.19647e-08
-1.12891e-10
4.19604e-08
-1.13504e-10
4.19586e-08
-1.12338e-10
4.19589e-08
-1.09701e-10
4.1961e-08
-1.05854e-10
4.19645e-08
-1.01024e-10
4.19692e-08
-9.54125e-11
4.19747e-08
-8.92074e-11
4.19809e-08
-8.25839e-11
4.19873e-08
-7.57081e-11
4.19939e-08
-6.87358e-11
4.20003e-08
-6.18113e-11
4.20065e-08
-5.50645e-11
4.20124e-08
-4.86083e-11
4.20177e-08
-4.25356e-11
4.20225e-08
-3.69177e-11
4.20268e-08
-3.18037e-11
4.20305e-08
-2.72202e-11
4.20336e-08
-2.31733e-11
4.20362e-08
-1.96509e-11
4.20383e-08
-1.66257e-11
4.204e-08
-1.40593e-11
4.20414e-08
-1.19055e-11
4.20424e-08
-1.01142e-11
4.20432e-08
-8.63444e-12
4.20438e-08
-7.4171e-12
4.20443e-08
-6.41665e-12
4.20446e-08
-5.59251e-12
4.20448e-08
-4.90967e-12
4.2045e-08
-4.33877e-12
4.20451e-08
-3.85588e-12
4.20452e-08
-3.44194e-12
4.20452e-08
-3.0821e-12
4.20453e-08
-2.765e-12
4.20453e-08
-2.48202e-12
4.20453e-08
-2.22676e-12
4.20453e-08
-1.99437e-12
4.20453e-08
-1.78122e-12
4.20454e-08
-1.58451e-12
4.20454e-08
-1.40201e-12
4.20454e-08
-1.23192e-12
4.20454e-08
-1.0727e-12
4.20453e-08
-9.22983e-13
4.20453e-08
-7.81509e-13
4.20453e-08
-6.46983e-13
4.20453e-08
-5.17716e-13
4.20453e-08
-3.89908e-13
-2.49418e-13
4.38569e-08
2.28459e-09
-4.37505e-08
4.39964e-08
2.52125e-09
4.41521e-08
2.70793e-09
4.43127e-08
2.84267e-09
4.44713e-08
2.93051e-09
4.46228e-08
2.9765e-09
4.47631e-08
2.98501e-09
4.48891e-08
2.96111e-09
4.49987e-08
2.9107e-09
4.50914e-08
2.83993e-09
4.51672e-08
2.7547e-09
4.5227e-08
2.66036e-09
4.52723e-08
2.56147e-09
4.53048e-08
2.46168e-09
4.53264e-08
2.36366e-09
4.53389e-08
2.26916e-09
4.53438e-08
2.17914e-09
4.53427e-08
2.09393e-09
4.53367e-08
2.01336e-09
4.53266e-08
1.93699e-09
4.53133e-08
1.86416e-09
4.52971e-08
1.79412e-09
4.52786e-08
1.7261e-09
4.5258e-08
1.65934e-09
4.52356e-08
1.59313e-09
4.52115e-08
1.52679e-09
4.51859e-08
1.45969e-09
4.51589e-08
1.39125e-09
4.51307e-08
1.32094e-09
4.51014e-08
1.24824e-09
4.5071e-08
1.17272e-09
4.50396e-08
1.094e-09
4.5007e-08
1.01184e-09
4.49733e-08
9.26174e-10
4.49382e-08
8.37236e-10
4.49016e-08
7.45628e-10
4.48632e-08
6.52418e-10
4.4823e-08
5.59167e-10
4.47812e-08
4.67863e-10
4.47383e-08
3.80701e-10
4.46949e-08
2.99751e-10
4.46519e-08
2.26613e-10
4.46101e-08
1.62214e-10
4.45701e-08
1.06778e-10
4.45321e-08
5.99364e-11
4.44964e-08
2.09332e-11
4.44633e-08
-1.10196e-11
4.44333e-08
-3.66462e-11
4.44063e-08
-5.67777e-11
4.43823e-08
-7.2235e-11
4.43613e-08
-8.37491e-11
4.43432e-08
-9.19493e-11
4.43276e-08
-9.73653e-11
4.43146e-08
-1.00436e-10
4.43037e-08
-1.01526e-10
4.4295e-08
-1.00937e-10
4.42881e-08
-9.89294e-11
4.42828e-08
-9.57293e-11
4.42789e-08
-9.15423e-11
4.42762e-08
-8.65595e-11
4.42746e-08
-8.0963e-11
4.42738e-08
-7.4927e-11
4.42737e-08
-6.86186e-11
4.42741e-08
-6.21955e-11
4.42748e-08
-5.58035e-11
4.42758e-08
-4.95733e-11
4.42769e-08
-4.3617e-11
4.4278e-08
-3.80261e-11
4.42791e-08
-3.28691e-11
4.428e-08
-2.8192e-11
4.42809e-08
-2.40181e-11
4.42816e-08
-2.03506e-11
4.42821e-08
-1.71748e-11
4.42825e-08
-1.44623e-11
4.42828e-08
-1.21741e-11
4.4283e-08
-1.02647e-11
4.4283e-08
-8.6858e-12
4.4283e-08
-7.38869e-12
4.42829e-08
-6.32714e-12
4.42828e-08
-5.45884e-12
4.42826e-08
-4.74649e-12
4.42824e-08
-4.15819e-12
4.42822e-08
-3.66749e-12
4.4282e-08
-3.253e-12
4.42818e-08
-2.89778e-12
4.42817e-08
-2.58877e-12
4.42815e-08
-2.31597e-12
4.42814e-08
-2.07189e-12
4.42812e-08
-1.8509e-12
4.42811e-08
-1.6488e-12
4.4281e-08
-1.46241e-12
4.42808e-08
-1.28925e-12
4.42807e-08
-1.12739e-12
4.42806e-08
-9.75201e-13
4.42805e-08
-8.31322e-13
4.42805e-08
-6.94509e-13
4.42804e-08
-5.63546e-13
4.42803e-08
-4.36938e-13
4.42802e-08
-3.11809e-13
-1.80631e-13
4.55756e-08
2.18996e-09
-4.5481e-08
4.56991e-08
2.3978e-09
4.58392e-08
2.56782e-09
4.59861e-08
2.69578e-09
4.61331e-08
2.78347e-09
4.62754e-08
2.83419e-09
4.6409e-08
2.85142e-09
4.65309e-08
2.83922e-09
4.66392e-08
2.80241e-09
4.6733e-08
2.74613e-09
4.68123e-08
2.67544e-09
4.68776e-08
2.59499e-09
4.69302e-08
2.50885e-09
4.69716e-08
2.42035e-09
4.70032e-08
2.33202e-09
4.70267e-08
2.24562e-09
4.70436e-08
2.16224e-09
4.70552e-08
2.08237e-09
4.70625e-08
2.00607e-09
4.70664e-08
1.93309e-09
4.70676e-08
1.86299e-09
4.70665e-08
1.79517e-09
4.70636e-08
1.72902e-09
4.7059e-08
1.66388e-09
4.70531e-08
1.59911e-09
4.70457e-08
1.53412e-09
4.70371e-08
1.46831e-09
4.70272e-08
1.40117e-09
4.7016e-08
1.33217e-09
4.70033e-08
1.26088e-09
4.69892e-08
1.18688e-09
4.69733e-08
1.10986e-09
4.69555e-08
1.02964e-09
4.69355e-08
9.46202e-10
4.69129e-08
8.59819e-10
4.68874e-08
7.71085e-10
4.68589e-08
6.80995e-10
4.68271e-08
5.90955e-10
4.67922e-08
5.02708e-10
4.67548e-08
4.18159e-10
4.67154e-08
3.3911e-10
4.6675e-08
2.66995e-10
4.66345e-08
2.02709e-10
4.65947e-08
1.46573e-10
4.65563e-08
9.84187e-11
4.65195e-08
5.77393e-11
4.64846e-08
2.38305e-11
4.6452e-08
-4.04935e-12
4.64218e-08
-2.66102e-11
4.63942e-08
-4.45535e-11
4.63689e-08
-5.85364e-11
4.63461e-08
-6.91379e-11
4.63256e-08
-7.68537e-11
4.63073e-08
-8.21024e-11
4.6291e-08
-8.5236e-11
4.62766e-08
-8.65528e-11
4.6264e-08
-8.63099e-11
4.6253e-08
-8.47345e-11
4.62435e-08
-8.20334e-11
4.62353e-08
-7.84001e-11
4.62284e-08
-7.40188e-11
4.62225e-08
-6.9067e-11
4.62176e-08
-6.37152e-11
4.62136e-08
-5.81259e-11
4.62102e-08
-5.24506e-11
4.62075e-08
-4.6827e-11
4.62052e-08
-4.13755e-11
4.62034e-08
-3.6197e-11
4.62019e-08
-3.13704e-11
4.62007e-08
-2.69523e-11
4.61996e-08
-2.29774e-11
4.61987e-08
-1.94594e-11
4.61979e-08
-1.63941e-11
4.61972e-08
-1.37621e-11
4.61966e-08
-1.15327e-11
4.6196e-08
-9.66711e-12
4.61954e-08
-8.1223e-12
4.61949e-08
-6.85376e-12
4.61944e-08
-5.81812e-12
4.61939e-08
-4.97496e-12
4.61934e-08
-4.28801e-12
4.6193e-08
-3.72583e-12
4.61926e-08
-3.26195e-12
4.61922e-08
-2.87473e-12
4.61919e-08
-2.54682e-12
4.61916e-08
-2.2647e-12
4.61913e-08
-2.01795e-12
4.6191e-08
-1.7987e-12
4.61907e-08
-1.60105e-12
4.61905e-08
-1.42058e-12
4.61903e-08
-1.25396e-12
4.61901e-08
-1.09867e-12
4.61899e-08
-9.52737e-13
4.61898e-08
-8.14583e-13
4.61896e-08
-6.82892e-13
4.61895e-08
-5.56525e-13
4.61894e-08
-4.34423e-13
4.61892e-08
-3.15458e-13
4.61891e-08
-1.98059e-13
-8.10718e-14
4.73526e-08
2.1046e-09
-4.72672e-08
4.74628e-08
2.2876e-09
4.7589e-08
2.44158e-09
4.77231e-08
2.56167e-09
4.7859e-08
2.64764e-09
4.79918e-08
2.70131e-09
4.8118e-08
2.72525e-09
4.82346e-08
2.72264e-09
4.83397e-08
2.69735e-09
4.84322e-08
2.65363e-09
4.85118e-08
2.59575e-09
4.85791e-08
2.52773e-09
4.86348e-08
2.45315e-09
4.86802e-08
2.37501e-09
4.87165e-08
2.29568e-09
4.87452e-08
2.21691e-09
4.87676e-08
2.13982e-09
4.87849e-08
2.06506e-09
4.87982e-08
1.99285e-09
4.88081e-08
1.92312e-09
4.88155e-08
1.8556e-09
4.88208e-08
1.78987e-09
4.88244e-08
1.72543e-09
4.88266e-08
1.66174e-09
4.88274e-08
1.59827e-09
4.8827e-08
1.53448e-09
4.88255e-08
1.46987e-09
4.88227e-08
1.40395e-09
4.88186e-08
1.33628e-09
4.8813e-08
1.26645e-09
4.88058e-08
1.19412e-09
4.87966e-08
1.11902e-09
4.87852e-08
1.04104e-09
4.87712e-08
9.60198e-10
4.87542e-08
8.76786e-10
4.8734e-08
7.91373e-10
4.87101e-08
7.04866e-10
4.86825e-08
6.18507e-10
4.86514e-08
5.33805e-10
4.86172e-08
4.52398e-10
4.85805e-08
3.75839e-10
4.85421e-08
3.05398e-10
4.85029e-08
2.41911e-10
4.84637e-08
1.85752e-10
4.84252e-08
1.36879e-10
4.8388e-08
9.4947e-11
4.83524e-08
5.94243e-11
4.83187e-08
2.96853e-11
4.8287e-08
5.08124e-12
4.82575e-08
-1.50139e-11
4.82301e-08
-3.11737e-11
4.82049e-08
-4.39251e-11
4.81818e-08
-5.37289e-11
4.81606e-08
-6.09812e-11
4.81414e-08
-6.60219e-11
4.8124e-08
-6.91431e-11
4.81083e-08
-7.05998e-11
4.80942e-08
-7.06198e-11
4.80816e-08
-6.94113e-11
4.80703e-08
-6.71692e-11
4.80604e-08
-6.40793e-11
4.80517e-08
-6.03199e-11
4.8044e-08
-5.60625e-11
4.80373e-08
-5.14702e-11
4.80316e-08
-4.66954e-11
4.80266e-08
-4.18775e-11
4.80224e-08
-3.71392e-11
4.80188e-08
-3.2585e-11
4.80157e-08
-2.82984e-11
4.80131e-08
-2.43418e-11
4.80109e-08
-2.07565e-11
4.8009e-08
-1.75639e-11
4.80074e-08
-1.47676e-11
4.8006e-08
-1.23563e-11
4.80047e-08
-1.0307e-11
4.80037e-08
-8.58835e-12
4.80027e-08
-7.16388e-12
4.80018e-08
-5.99484e-12
4.80011e-08
-5.04266e-12
4.80004e-08
-4.27078e-12
4.79997e-08
-3.64595e-12
4.79991e-08
-3.13895e-12
4.79986e-08
-2.72492e-12
4.79981e-08
-2.38328e-12
4.79976e-08
-2.09738e-12
4.79972e-08
-1.85412e-12
4.79969e-08
-1.64333e-12
4.79965e-08
-1.45727e-12
4.79962e-08
-1.29012e-12
4.79959e-08
-1.1375e-12
4.79957e-08
-9.9616e-13
4.79954e-08
-8.63628e-13
4.79952e-08
-7.38018e-13
4.7995e-08
-6.17842e-13
4.79948e-08
-5.01901e-13
4.79947e-08
-3.89198e-13
4.79945e-08
-2.78888e-13
4.79944e-08
-1.70267e-13
4.79942e-08
-6.29698e-14
3.9945e-14
4.91902e-08
2.02678e-09
-4.91124e-08
4.92894e-08
2.18848e-09
4.94034e-08
2.32756e-09
4.95257e-08
2.43932e-09
4.96509e-08
2.52244e-09
4.97746e-08
2.57761e-09
4.98933e-08
2.60656e-09
5.00042e-08
2.61173e-09
5.01054e-08
2.59617e-09
5.01957e-08
2.56333e-09
5.02747e-08
2.51676e-09
5.03425e-08
2.45991e-09
5.03998e-08
2.39589e-09
5.04474e-08
2.32738e-09
5.04865e-08
2.25656e-09
5.05183e-08
2.18511e-09
5.0544e-08
2.11418e-09
5.05645e-08
2.04449e-09
5.0581e-08
1.97642e-09
5.05941e-08
1.91003e-09
5.06045e-08
1.84519e-09
5.06127e-08
1.78163e-09
5.06192e-08
1.71898e-09
5.06241e-08
1.65682e-09
5.06276e-08
1.5947e-09
5.063e-08
1.53216e-09
5.06311e-08
1.46878e-09
5.06309e-08
1.40414e-09
5.06293e-08
1.33784e-09
5.06262e-08
1.26953e-09
5.06214e-08
1.19894e-09
5.06146e-08
1.12586e-09
5.06054e-08
1.05021e-09
5.05935e-08
9.72052e-10
5.05786e-08
8.91687e-10
5.05604e-08
8.09648e-10
5.05385e-08
7.26753e-10
5.05129e-08
6.44089e-10
5.04837e-08
5.62958e-10
5.04514e-08
4.84759e-10
5.04164e-08
4.10829e-10
5.03795e-08
3.42284e-10
5.03415e-08
2.79896e-10
5.03032e-08
2.24065e-10
5.02653e-08
1.74838e-10
5.02282e-08
1.31996e-10
5.01925e-08
9.51416e-11
5.01584e-08
6.3773e-11
5.01261e-08
3.73472e-11
5.00958e-08
1.53161e-11
5.00675e-08
-2.83767e-12
5.00411e-08
-1.75865e-11
5.00168e-08
-2.93531e-11
4.99943e-08
-3.85093e-11
4.99736e-08
-4.53802e-11
4.99547e-08
-5.025e-11
4.99375e-08
-5.33704e-11
4.99219e-08
-5.49684e-11
4.99077e-08
-5.52528e-11
4.9895e-08
-5.44192e-11
4.98835e-08
-5.2654e-11
4.98733e-08
-5.01354e-11
4.98643e-08
-4.70345e-11
4.98564e-08
-4.35134e-11
4.98494e-08
-3.97237e-11
4.98433e-08
-3.58037e-11
4.98381e-08
-3.18765e-11
4.98335e-08
-2.8047e-11
4.98296e-08
-2.44012e-11
4.98263e-08
-2.10046e-11
4.98234e-08
-1.79032e-11
4.9821e-08
-1.51241e-11
4.98189e-08
-1.26775e-11
4.98171e-08
-1.05594e-11
4.98155e-08
-8.75405e-12
4.98142e-08
-7.23755e-12
4.9813e-08
-5.98033e-12
4.9812e-08
-4.95002e-12
4.9811e-08
-4.11363e-12
4.98102e-08
-3.43936e-12
4.98095e-08
-2.89788e-12
4.98088e-08
-2.46308e-12
4.98082e-08
-2.11248e-12
4.98076e-08
-1.82727e-12
4.98071e-08
-1.59212e-12
4.98067e-08
-1.39482e-12
4.98062e-08
-1.22581e-12
4.98059e-08
-1.07781e-12
4.98055e-08
-9.45271e-13
4.98052e-08
-8.24057e-13
4.98049e-08
-7.11081e-13
4.98047e-08
-6.04027e-13
4.98044e-08
-5.01147e-13
4.98042e-08
-4.01095e-13
4.9804e-08
-3.02818e-13
4.98038e-08
-2.05489e-13
4.98036e-08
-1.08489e-13
4.98035e-08
-1.15092e-14
4.98033e-08
8.4946e-14
1.75913e-13
5.10912e-08
1.95527e-09
-5.10197e-08
5.11809e-08
2.09872e-09
5.12842e-08
2.22426e-09
5.13959e-08
2.32769e-09
5.15111e-08
2.4072e-09
5.1626e-08
2.46271e-09
5.17373e-08
2.49526e-09
5.18424e-08
2.50664e-09
5.19394e-08
2.4992e-09
5.2027e-08
2.47571e-09
5.21047e-08
2.43909e-09
5.21723e-08
2.39223e-09
5.22304e-08
2.33783e-09
5.22795e-08
2.27825e-09
5.23206e-08
2.21547e-09
5.23547e-08
2.15107e-09
5.23827e-08
2.08617e-09
5.24056e-08
2.02158e-09
5.24243e-08
1.95773e-09
5.24395e-08
1.89482e-09
5.24518e-08
1.83284e-09
5.24618e-08
1.77164e-09
5.24699e-08
1.71096e-09
5.24762e-08
1.65049e-09
5.2481e-08
1.58987e-09
5.24845e-08
1.52873e-09
5.24865e-08
1.46671e-09
5.24872e-08
1.40345e-09
5.24864e-08
1.33862e-09
5.2484e-08
1.27193e-09
5.24798e-08
1.20316e-09
5.24735e-08
1.13215e-09
5.24649e-08
1.05885e-09
5.24536e-08
9.83383e-10
5.24392e-08
9.06021e-10
5.24216e-08
8.27266e-10
5.24005e-08
7.47849e-10
5.23759e-08
6.68722e-10
5.23478e-08
5.91005e-10
5.23167e-08
5.15894e-10
5.2283e-08
4.44539e-10
5.22474e-08
3.77917e-10
5.22105e-08
3.16739e-10
5.21732e-08
2.61409e-10
5.2136e-08
2.12045e-10
5.20994e-08
1.68526e-10
5.2064e-08
1.30565e-10
5.203e-08
9.77693e-11
5.19977e-08
6.96931e-11
5.19671e-08
4.58728e-11
5.19384e-08
2.58562e-11
5.19116e-08
9.22037e-12
5.18867e-08
-4.42138e-12
5.18636e-08
-1.54138e-11
5.18423e-08
-2.40654e-11
5.18227e-08
-3.06491e-11
5.18047e-08
-3.54116e-11
5.17883e-08
-3.85771e-11
5.17734e-08
-4.03535e-11
5.17599e-08
-4.0936e-11
5.17478e-08
-4.05105e-11
5.17369e-08
-3.92545e-11
5.17272e-08
-3.73376e-11
5.17186e-08
-3.49204e-11
5.1711e-08
-3.21525e-11
5.17044e-08
-2.91709e-11
5.16986e-08
-2.60975e-11
5.16936e-08
-2.30374e-11
5.16893e-08
-2.00774e-11
5.16856e-08
-1.72857e-11
5.16824e-08
-1.47119e-11
5.16797e-08
-1.2388e-11
5.16773e-08
-1.03302e-11
5.16753e-08
-8.54117e-12
5.16736e-08
-7.01229e-12
5.1672e-08
-5.72675e-12
5.16707e-08
-4.66197e-12
5.16696e-08
-3.79202e-12
5.16685e-08
-3.08976e-12
5.16676e-08
-2.52846e-12
5.16668e-08
-2.08303e-12
5.16661e-08
-1.73084e-12
5.16654e-08
-1.45216e-12
5.16648e-08
-1.23031e-12
5.16643e-08
-1.05154e-12
5.16638e-08
-9.04791e-13
5.16633e-08
-7.81371e-13
5.16629e-08
-6.74577e-13
5.16626e-08
-5.79317e-13
5.16622e-08
-4.91774e-13
5.16619e-08
-4.09116e-13
5.16617e-08
-3.29237e-13
5.16614e-08
-2.50573e-13
5.16612e-08
-1.71947e-13
5.1661e-08
-9.24775e-14
5.16608e-08