/*--------------------------------*- C++ -*----------------------------------*\
| =========                 |                                                 |
| \\      /  F ield         | OpenFOAM: The Open Source CFD Toolbox           |
|  \\    /   O peration     | Version:  2.3.0                                 |
|   \\  /    A nd           | Web:      www.OpenFOAM.org                      |
|    \\/     M anipulation  |                                                 |
\*---------------------------------------------------------------------------*/
FoamFile
{
    version     2.0;
    format      ascii;
    class       volVectorField;
    location    "0.15";
    object      U;
}
// * * * * * * * * * * * * * * * * * * * * * * * * * * * * * * * * * * * * * //

dimensions      [0 1 -1 0 0 0 0];

internalField   nonuniform List<vector> 
3375
(
(0.170801 0.00598562 0)
(0.154293 0.00605065 0)
(0.138428 0.00562738 0)
(0.123397 0.00502376 0)
(0.109613 0.00435713 0)
(0.0972443 0.00368118 0)
(0.0863047 0.00303307 0)
(0.0767596 0.00243857 0)
(0.0685519 0.00191338 0)
(0.0615949 0.00146541 0)
(0.0557727 0.00109632 0)
(0.0509499 0.000802455 0)
(0.0469835 0.000576186 0)
(0.0437326 0.00040752 0)
(0.041066 0.000285686 0)
(0.038867 0.000200356 0)
(0.0370366 0.0001424 0)
(0.0354938 0.000104223 0)
(0.0341741 7.98065e-05 0)
(0.0330281 6.45875e-05 0)
(0.0320188 5.52446e-05 0)
(0.0311187 4.94639e-05 0)
(0.0303079 4.57071e-05 0)
(0.0295721 4.30043e-05 0)
(0.0289008 4.0783e-05 0)
(0.0282867 3.8734e-05 0)
(0.0277239 3.67144e-05 0)
(0.0272081 3.4679e-05 0)
(0.026736 3.26337e-05 0)
(0.0263048 3.06008e-05 0)
(0.0259122 2.85921e-05 0)
(0.0255564 2.65844e-05 0)
(0.0252361 2.44983e-05 0)
(0.0249508 2.21819e-05 0)
(0.0247007 1.94142e-05 0)
(0.0244873 1.59701e-05 0)
(0.0243132 1.17924e-05 0)
(0.0241828 7.02199e-06 0)
(0.0241022 2.00506e-06 0)
(0.024079 -1.90866e-06 0)
(0.0241023 -5.32612e-06 0)
(0.0241564 -8.00711e-06 0)
(0.0242332 -1.03586e-05 0)
(0.0243249 -1.18252e-05 0)
(0.0244246 -1.23306e-05 0)
(0.0245262 -1.21174e-05 0)
(0.0246256 -1.14564e-05 0)
(0.0247198 -1.05546e-05 0)
(0.0248071 -9.55379e-06 0)
(0.0248868 -8.54527e-06 0)
(0.0249586 -7.58286e-06 0)
(0.0250228 -6.69462e-06 0)
(0.0250799 -5.89183e-06 0)
(0.0251305 -5.17562e-06 0)
(0.0251752 -4.54153e-06 0)
(0.0252146 -3.98244e-06 0)
(0.0252492 -3.4904e-06 0)
(0.0252795 -3.0576e-06 0)
(0.0253062 -2.67693e-06 0)
(0.0253295 -2.34214e-06 0)
(0.02535 -2.04785e-06 0)
(0.0253678 -1.78944e-06 0)
(0.0253835 -1.56294e-06 0)
(0.0253971 -1.36489e-06 0)
(0.0254091 -1.19223e-06 0)
(0.0254196 -1.04222e-06 0)
(0.0254288 -9.12337e-07 0)
(0.0254369 -8.00237e-07 0)
(0.0254441 -7.03748e-07 0)
(0.0254504 -6.20848e-07 0)
(0.0254561 -5.49661e-07 0)
(0.0254611 -4.88477e-07 0)
(0.0254656 -4.3575e-07 0)
(0.0254697 -3.90108e-07 0)
(0.0254734 -3.50373e-07 0)
(0.0254768 -3.15512e-07 0)
(0.0254798 -2.84705e-07 0)
(0.0254826 -2.57236e-07 0)
(0.0254851 -2.32575e-07 0)
(0.0254874 -2.10268e-07 0)
(0.0254895 -1.89987e-07 0)
(0.0254914 -1.71464e-07 0)
(0.0254931 -1.54498e-07 0)
(0.0254947 -1.38928e-07 0)
(0.0254961 -1.24627e-07 0)
(0.0254974 -1.11484e-07 0)
(0.0254985 -9.94118e-08 0)
(0.0254996 -8.83196e-08 0)
(0.0255005 -7.8134e-08 0)
(0.0255013 -6.87798e-08 0)
(0.025502 -6.01825e-08 0)
(0.0255027 -5.22792e-08 0)
(0.0255033 -4.49984e-08 0)
(0.0255038 -3.82805e-08 0)
(0.0255042 -3.20652e-08 0)
(0.0255045 -2.62981e-08 0)
(0.0255048 -2.09619e-08 0)
(0.0255051 -1.6224e-08 0)
(0.0255052 -1.3549e-08 0)
(0.0255055 -2.40474e-08 0)
(0.189717 0.00944373 0)
(0.187407 0.00995168 0)
(0.183498 0.00972882 0)
(0.178347 0.00923076 0)
(0.172453 0.00859532 0)
(0.166162 0.00786925 0)
(0.159698 0.00709113 0)
(0.153228 0.00629649 0)
(0.146886 0.00551517 0)
(0.140774 0.00477163 0)
(0.134959 0.00408499 0)
(0.129482 0.00346839 0)
(0.124362 0.00292869 0)
(0.119603 0.00246699 0)
(0.115199 0.00207971 0)
(0.111134 0.00175997 0)
(0.107388 0.001499 0)
(0.10394 0.00128737 0)
(0.100767 0.00111597 0)
(0.0978464 0.000976582 0)
(0.095157 0.000862217 0)
(0.0926791 0.000767162 0)
(0.0903948 0.000686913 0)
(0.0882883 0.000618014 0)
(0.0863457 0.000557864 0)
(0.0845548 0.00050453 0)
(0.0829053 0.000456584 0)
(0.0813881 0.000412969 0)
(0.079996 0.000372888 0)
(0.0787226 0.000335716 0)
(0.077563 0.000300916 0)
(0.0765136 0.000267969 0)
(0.075572 0.000236319 0)
(0.0747369 0.000205322 0)
(0.0740086 0.000174233 0)
(0.0733886 0.000142268 0)
(0.0728791 0.000108817 0)
(0.0724817 7.35843e-05 0)
(0.0721961 3.64328e-05 0)
(0.0720187 -8.66883e-07 0)
(0.071967 -3.26185e-05 0)
(0.0720144 -5.26404e-05 0)
(0.0721269 -6.34307e-05 0)
(0.0722826 -6.87078e-05 0)
(0.0724647 -7.00781e-05 0)
(0.0726596 -6.84428e-05 0)
(0.0728573 -6.47229e-05 0)
(0.0730504 -5.97792e-05 0)
(0.0732341 -5.42801e-05 0)
(0.0734054 -4.86863e-05 0)
(0.0735631 -4.32873e-05 0)
(0.0737065 -3.8247e-05 0)
(0.0738358 -3.36428e-05 0)
(0.0739517 -2.9497e-05 0)
(0.074055 -2.57998e-05 0)
(0.0741465 -2.25237e-05 0)
(0.0742274 -1.96339e-05 0)
(0.0742985 -1.70933e-05 0)
(0.0743609 -1.48659e-05 0)
(0.0744154 -1.29183e-05 0)
(0.074463 -1.12199e-05 0)
(0.0745044 -9.74289e-06 0)
(0.0745403 -8.46238e-06 0)
(0.0745716 -7.3557e-06 0)
(0.0745987 -6.40225e-06 0)
(0.0746223 -5.58324e-06 0)
(0.0746429 -4.88147e-06 0)
(0.0746608 -4.2813e-06 0)
(0.0746766 -3.76849e-06 0)
(0.0746904 -3.33021e-06 0)
(0.0747027 -2.95501e-06 0)
(0.0747136 -2.6328e-06 0)
(0.0747234 -2.35478e-06 0)
(0.0747321 -2.11342e-06 0)
(0.07474 -1.9024e-06 0)
(0.0747472 -1.71642e-06 0)
(0.0747537 -1.55122e-06 0)
(0.0747596 -1.40332e-06 0)
(0.0747649 -1.27001e-06 0)
(0.0747698 -1.14913e-06 0)
(0.0747743 -1.03902e-06 0)
(0.0747784 -9.38383e-07 0)
(0.074782 -8.46176e-07 0)
(0.0747854 -7.61586e-07 0)
(0.0747884 -6.83931e-07 0)
(0.0747912 -6.12625e-07 0)
(0.0747937 -5.47164e-07 0)
(0.0747959 -4.87068e-07 0)
(0.0747979 -4.31909e-07 0)
(0.0747997 -3.81272e-07 0)
(0.0748013 -3.34756e-07 0)
(0.0748027 -2.91992e-07 0)
(0.0748039 -2.52611e-07 0)
(0.074805 -2.16273e-07 0)
(0.0748059 -1.82647e-07 0)
(0.0748067 -1.51433e-07 0)
(0.0748074 -1.22446e-07 0)
(0.0748079 -9.60733e-08 0)
(0.0748084 -7.58451e-08 0)
(0.0748088 -8.182e-08 0)
(0.192704 0.00905974 0)
(0.193488 0.0100121 0)
(0.193635 0.0103471 0)
(0.192996 0.010354 0)
(0.19168 0.0101313 0)
(0.189806 0.00971698 0)
(0.187464 0.00915611 0)
(0.184742 0.00849863 0)
(0.181731 0.00779026 0)
(0.178519 0.00706975 0)
(0.175183 0.00636821 0)
(0.171788 0.00570845 0)
(0.168386 0.00510492 0)
(0.165016 0.00456452 0)
(0.161708 0.00408808 0)
(0.158483 0.00367217 0)
(0.155357 0.00331077 0)
(0.152337 0.00299673 0)
(0.149429 0.00272278 0)
(0.146635 0.00248222 0)
(0.143958 0.00226919 0)
(0.141398 0.00207879 0)
(0.138953 0.00190702 0)
(0.136624 0.00175066 0)
(0.13441 0.00160715 0)
(0.132312 0.00147442 0)
(0.130328 0.00135081 0)
(0.12846 0.00123494 0)
(0.126706 0.00112563 0)
(0.125069 0.00102183 0)
(0.12355 0.00092256 0)
(0.12215 0.000826824 0)
(0.120872 0.000733599 0)
(0.119719 0.000641838 0)
(0.118694 0.000550537 0)
(0.117801 0.000458876 0)
(0.117041 0.000366442 0)
(0.116416 0.000273548 0)
(0.115922 0.000181413 0)
(0.115545 9.14952e-05 0)
(0.115261 8.308e-06 0)
(0.115097 -6.02249e-05 0)
(0.115051 -0.000108017 0)
(0.115092 -0.000136756 0)
(0.115197 -0.000151561 0)
(0.115346 -0.000156389 0)
(0.115525 -0.000154152 0)
(0.11572 -0.000147203 0)
(0.115921 -0.0001374 0)
(0.116122 -0.000126121 0)
(0.116318 -0.000114328 0)
(0.116505 -0.000102652 0)
(0.116681 -9.14831e-05 0)
(0.116844 -8.10424e-05 0)
(0.116995 -7.14366e-05 0)
(0.117132 -6.27005e-05 0)
(0.117256 -5.48258e-05 0)
(0.117367 -4.7779e-05 0)
(0.117466 -4.15135e-05 0)
(0.117554 -3.5976e-05 0)
(0.117631 -3.11103e-05 0)
(0.117699 -2.68597e-05 0)
(0.117758 -2.31679e-05 0)
(0.117809 -1.99797e-05 0)
(0.117853 -1.72414e-05 0)
(0.117891 -1.49013e-05 0)
(0.117924 -1.29105e-05 0)
(0.117952 -1.12226e-05 0)
(0.117976 -9.79494e-06 0)
(0.117996 -8.58831e-06 0)
(0.118014 -7.56756e-06 0)
(0.11803 -6.70164e-06 0)
(0.118044 -5.96358e-06 0)
(0.118056 -5.33036e-06 0)
(0.118066 -4.78276e-06 0)
(0.118076 -4.30492e-06 0)
(0.118084 -3.88406e-06 0)
(0.118092 -3.51e-06 0)
(0.118099 -3.17477e-06 0)
(0.118105 -2.87221e-06 0)
(0.118111 -2.59754e-06 0)
(0.118116 -2.34714e-06 0)
(0.118121 -2.11815e-06 0)
(0.118125 -1.90834e-06 0)
(0.118129 -1.7159e-06 0)
(0.118132 -1.5393e-06 0)
(0.118135 -1.37723e-06 0)
(0.118138 -1.22848e-06 0)
(0.118141 -1.09196e-06 0)
(0.118143 -9.66642e-07 0)
(0.118145 -8.51545e-07 0)
(0.118147 -7.45746e-07 0)
(0.118149 -6.48351e-07 0)
(0.11815 -5.58515e-07 0)
(0.118151 -4.75429e-07 0)
(0.118152 -3.9833e-07 0)
(0.118153 -3.26618e-07 0)
(0.118154 -2.60408e-07 0)
(0.118155 -2.03215e-07 0)
(0.118155 -1.70318e-07 0)
(0.193744 0.00840767 0)
(0.194883 0.00945135 0)
(0.195926 0.0100061 0)
(0.196659 0.0102482 0)
(0.197059 0.0102584 0)
(0.197131 0.0100686 0)
(0.196872 0.00971445 0)
(0.196286 0.00923852 0)
(0.195399 0.00868266 0)
(0.194247 0.00808422 0)
(0.192871 0.00747493 0)
(0.191316 0.00687985 0)
(0.189622 0.00631687 0)
(0.187826 0.00579686 0)
(0.18596 0.00532472 0)
(0.184051 0.00490078 0)
(0.182118 0.00452225 0)
(0.18018 0.00418457 0)
(0.178247 0.00388237 0)
(0.176331 0.00361026 0)
(0.174439 0.00336322 0)
(0.172578 0.00313685 0)
(0.170753 0.00292741 0)
(0.16897 0.00273181 0)
(0.167233 0.00254754 0)
(0.165548 0.00237255 0)
(0.163919 0.00220517 0)
(0.162351 0.00204401 0)
(0.16085 0.00188788 0)
(0.15942 0.00173568 0)
(0.158067 0.00158635 0)
(0.156798 0.00143884 0)
(0.155617 0.0012921 0)
(0.154532 0.00114511 0)
(0.153547 0.000997094 0)
(0.152668 0.000847691 0)
(0.151898 0.000697356 0)
(0.151236 0.000547824 0)
(0.150681 0.00040274 0)
(0.150228 0.000267252 0)
(0.149865 0.000144335 0)
(0.149566 3.49826e-05 0)
(0.149342 -5.59774e-05 0)
(0.149207 -0.000123825 0)
(0.149147 -0.000169493 0)
(0.14915 -0.000197198 0)
(0.149203 -0.000211094 0)
(0.149295 -0.000214719 0)
(0.149416 -0.000211027 0)
(0.149557 -0.000202384 0)
(0.149712 -0.0001906 0)
(0.149874 -0.000177008 0)
(0.150038 -0.000162559 0)
(0.150202 -0.000147914 0)
(0.150361 -0.000133519 0)
(0.150513 -0.000119673 0)
(0.150658 -0.000106565 0)
(0.150793 -9.43163e-05 0)
(0.150918 -8.29956e-05 0)
(0.151032 -7.26374e-05 0)
(0.151136 -6.325e-05 0)
(0.151229 -5.48216e-05 0)
(0.151311 -4.73241e-05 0)
(0.151384 -4.0716e-05 0)
(0.151447 -3.49445e-05 0)
(0.151502 -2.99483e-05 0)
(0.151549 -2.56594e-05 0)
(0.151589 -2.20061e-05 0)
(0.151623 -1.89153e-05 0)
(0.151652 -1.63145e-05 0)
(0.151677 -1.41344e-05 0)
(0.151698 -1.23102e-05 0)
(0.151715 -1.07832e-05 0)
(0.15173 -9.50115e-06 0)
(0.151743 -8.41886e-06 0)
(0.151754 -7.49817e-06 0)
(0.151764 -6.70756e-06 0)
(0.151772 -6.02147e-06 0)
(0.15178 -5.41964e-06 0)
(0.151786 -4.88629e-06 0)
(0.151792 -4.40928e-06 0)
(0.151797 -3.9794e-06 0)
(0.151802 -3.58965e-06 0)
(0.151806 -3.23472e-06 0)
(0.15181 -2.9105e-06 0)
(0.151814 -2.61376e-06 0)
(0.151817 -2.34183e-06 0)
(0.15182 -2.09247e-06 0)
(0.151823 -1.86368e-06 0)
(0.151825 -1.65369e-06 0)
(0.151827 -1.46083e-06 0)
(0.151829 -1.28354e-06 0)
(0.15183 -1.12035e-06 0)
(0.151832 -9.69858e-07 0)
(0.151833 -8.30738e-07 0)
(0.151834 -7.0171e-07 0)
(0.151835 -5.81627e-07 0)
(0.151836 -4.69795e-07 0)
(0.151837 -3.67211e-07 0)
(0.151837 -2.76374e-07 0)
(0.194481 0.00789342 0)
(0.195479 0.00886984 0)
(0.196552 0.00945934 0)
(0.197533 0.00977231 0)
(0.198378 0.00987936 0)
(0.19907 0.00981017 0)
(0.199583 0.00959071 0)
(0.199896 0.00925291 0)
(0.199999 0.00883013 0)
(0.199899 0.00835361 0)
(0.199609 0.00785115 0)
(0.199149 0.00734594 0)
(0.198543 0.00685573 0)
(0.197814 0.00639253 0)
(0.196987 0.00596314 0)
(0.196081 0.00557005 0)
(0.195114 0.00521261 0)
(0.194101 0.00488813 0)
(0.193053 0.00459282 0)
(0.191981 0.00432249 0)
(0.190892 0.00407301 0)
(0.189792 0.0038406 0)
(0.188688 0.00362197 0)
(0.187584 0.00341431 0)
(0.186487 0.00321528 0)
(0.1854 0.00302294 0)
(0.18433 0.00283568 0)
(0.183281 0.0026521 0)
(0.182258 0.00247099 0)
(0.181267 0.00229122 0)
(0.180315 0.00211171 0)
(0.179406 0.00193141 0)
(0.178547 0.00174934 0)
(0.177743 0.0015647 0)
(0.177 0.00137709 0)
(0.176321 0.00118678 0)
(0.175709 0.000995124 0)
(0.175166 0.000804938 0)
(0.174689 0.000620787 0)
(0.174277 0.000448538 0)
(0.173926 0.000293844 0)
(0.173632 0.000158947 0)
(0.173377 4.3277e-05 0)
(0.173164 -5.17111e-05 0)
(0.173003 -0.000124259 0)
(0.172892 -0.000175948 0)
(0.172826 -0.00021028 0)
(0.172801 -0.000230785 0)
(0.17281 -0.000240582 0)
(0.172848 -0.000242315 0)
(0.17291 -0.000238139 0)
(0.172992 -0.000229749 0)
(0.173088 -0.000218453 0)
(0.173194 -0.000205238 0)
(0.173308 -0.00019085 0)
(0.173425 -0.000175848 0)
(0.173544 -0.00016066 0)
(0.173661 -0.000145611 0)
(0.173775 -0.000130956 0)
(0.173885 -0.000116895 0)
(0.173988 -0.000103584 0)
(0.174084 -9.11414e-05 0)
(0.174172 -7.96534e-05 0)
(0.174252 -6.91741e-05 0)
(0.174324 -5.97289e-05 0)
(0.174387 -5.13162e-05 0)
(0.174443 -4.39099e-05 0)
(0.174491 -3.74628e-05 0)
(0.174532 -3.19108e-05 0)
(0.174567 -2.71769e-05 0)
(0.174596 -2.31764e-05 0)
(0.174621 -1.98208e-05 0)
(0.174642 -1.7022e-05 0)
(0.174659 -1.46957e-05 0)
(0.174673 -1.27641e-05 0)
(0.174684 -1.11571e-05 0)
(0.174694 -9.81391e-06 0)
(0.174702 -8.68295e-06 0)
(0.174709 -7.72151e-06 0)
(0.174715 -6.89516e-06 0)
(0.17472 -6.17661e-06 0)
(0.174725 -5.54475e-06 0)
(0.174729 -4.98339e-06 0)
(0.174733 -4.4803e-06 0)
(0.174736 -4.02627e-06 0)
(0.174739 -3.6143e-06 0)
(0.174741 -3.23903e-06 0)
(0.174743 -2.89622e-06 0)
(0.174745 -2.58244e-06 0)
(0.174747 -2.29479e-06 0)
(0.174749 -2.03075e-06 0)
(0.17475 -1.78806e-06 0)
(0.174752 -1.56465e-06 0)
(0.174753 -1.35859e-06 0)
(0.174754 -1.16807e-06 0)
(0.174755 -9.91356e-07 0)
(0.174756 -8.26768e-07 0)
(0.174756 -6.72648e-07 0)
(0.174757 -5.26616e-07 0)
(0.174757 -3.75985e-07 0)
(0.195111 0.00745058 0)
(0.195933 0.00832147 0)
(0.196873 0.00889514 0)
(0.197805 0.00923156 0)
(0.198683 0.00938462 0)
(0.199487 0.00938133 0)
(0.200195 0.00924287 0)
(0.200783 0.00899466 0)
(0.201238 0.00866424 0)
(0.201554 0.0082781 0)
(0.201734 0.00786019 0)
(0.201787 0.00743102 0)
(0.201724 0.00700685 0)
(0.20156 0.0065993 0)
(0.20131 0.00621563 0)
(0.200988 0.00585932 0)
(0.200608 0.00553097 0)
(0.200179 0.00522918 0)
(0.199712 0.00495131 0)
(0.199213 0.00469413 0)
(0.198688 0.0044543 0)
(0.198142 0.00422859 0)
(0.197579 0.00401406 0)
(0.197003 0.00380816 0)
(0.196418 0.00360866 0)
(0.195826 0.00341368 0)
(0.195233 0.00322158 0)
(0.19464 0.00303096 0)
(0.194052 0.00284054 0)
(0.193472 0.00264917 0)
(0.192905 0.00245575 0)
(0.192355 0.00225928 0)
(0.191825 0.00205893 0)
(0.191319 0.00185412 0)
(0.190841 0.00164485 0)
(0.190391 0.00143192 0)
(0.189973 0.00121729 0)
(0.189586 0.00100441 0)
(0.189229 0.000798165 0)
(0.188904 0.000604459 0)
(0.18861 0.000429014 0)
(0.188347 0.00027569 0)
(0.188115 0.000145142 0)
(0.187905 3.5934e-05 0)
(0.187719 -5.25051e-05 0)
(0.187562 -0.000120705 0)
(0.187435 -0.000170858 0)
(0.187338 -0.000205949 0)
(0.187268 -0.000228845 0)
(0.187224 -0.000242057 0)
(0.187203 -0.0002477 0)
(0.187202 -0.000247503 0)
(0.187219 -0.000242848 0)
(0.187251 -0.000234826 0)
(0.187295 -0.000224293 0)
(0.187349 -0.000211929 0)
(0.187411 -0.000198281 0)
(0.187477 -0.000183799 0)
(0.187548 -0.00016886 0)
(0.187619 -0.000153788 0)
(0.187691 -0.000138863 0)
(0.18776 -0.000124327 0)
(0.187827 -0.000110389 0)
(0.18789 -9.72197e-05 0)
(0.187948 -8.49547e-05 0)
(0.188002 -7.36916e-05 0)
(0.18805 -6.34912e-05 0)
(0.188092 -5.4378e-05 0)
(0.188129 -4.63433e-05 0)
(0.188161 -3.93494e-05 0)
(0.188188 -3.33346e-05 0)
(0.18821 -2.82194e-05 0)
(0.188229 -2.39124e-05 0)
(0.188245 -2.03162e-05 0)
(0.188257 -1.73329e-05 0)
(0.188267 -1.48682e-05 0)
(0.188276 -1.28346e-05 0)
(0.188282 -1.11542e-05 0)
(0.188288 -9.75899e-06 0)
(0.188292 -8.59184e-06 0)
(0.188296 -7.60569e-06 0)
(0.188299 -6.76281e-06 0)
(0.188301 -6.03353e-06 0)
(0.188303 -5.39495e-06 0)
(0.188305 -4.82965e-06 0)
(0.188307 -4.32449e-06 0)
(0.188308 -3.86956e-06 0)
(0.188309 -3.45738e-06 0)
(0.188311 -3.08216e-06 0)
(0.188312 -2.73935e-06 0)
(0.188312 -2.42525e-06 0)
(0.188313 -2.13675e-06 0)
(0.188314 -1.87114e-06 0)
(0.188315 -1.626e-06 0)
(0.188315 -1.39913e-06 0)
(0.188316 -1.18843e-06 0)
(0.188316 -9.91847e-07 0)
(0.188316 -8.06943e-07 0)
(0.188316 -6.28696e-07 0)
(0.188317 -4.34066e-07 0)
(0.195664 0.00707122 0)
(0.196346 0.00783772 0)
(0.197146 0.00837899 0)
(0.197974 0.00871969 0)
(0.198783 0.00889611 0)
(0.199551 0.00893159 0)
(0.200259 0.00884471 0)
(0.200888 0.00865673 0)
(0.201425 0.00839103 0)
(0.201864 0.00807045 0)
(0.202204 0.00771583 0)
(0.202449 0.00734523 0)
(0.202608 0.0069733 0)
(0.202689 0.00661093 0)
(0.202704 0.00626535 0)
(0.202662 0.00594056 0)
(0.202574 0.00563795 0)
(0.202448 0.00535705 0)
(0.202289 0.00509611 0)
(0.202105 0.0048527 0)
(0.201899 0.00462408 0)
(0.201675 0.00440751 0)
(0.201435 0.00420038 0)
(0.201182 0.00400034 0)
(0.200917 0.00380528 0)
(0.200644 0.00361336 0)
(0.200362 0.00342297 0)
(0.200075 0.00323266 0)
(0.199784 0.00304115 0)
(0.199491 0.00284726 0)
(0.199197 0.00264994 0)
(0.198906 0.00244824 0)
(0.198618 0.00224147 0)
(0.198335 0.0020293 0)
(0.198057 0.001812 0)
(0.197786 0.00159071 0)
(0.197521 0.00136768 0)
(0.197263 0.00114651 0)
(0.19701 0.000932011 0)
(0.196764 0.000729707 0)
(0.196527 0.000544874 0)
(0.196302 0.000381394 0)
(0.196091 0.000241075 0)
(0.195896 0.000123313 0)
(0.195713 2.62023e-05 0)
(0.195545 -5.1853e-05 0)
(0.195395 -0.000112498 0)
(0.195265 -0.000158042 0)
(0.195154 -0.000190984 0)
(0.195061 -0.000213616 0)
(0.194987 -0.000227907 0)
(0.194929 -0.000235504 0)
(0.194887 -0.000237748 0)
(0.194859 -0.000235721 0)
(0.194843 -0.000230292 0)
(0.194838 -0.000222164 0)
(0.194843 -0.000211919 0)
(0.194855 -0.000200047 0)
(0.194874 -0.000186973 0)
(0.194897 -0.000173077 0)
(0.194924 -0.000158704 0)
(0.194954 -0.000144166 0)
(0.194985 -0.000129749 0)
(0.195016 -0.000115706 0)
(0.195047 -0.000102256 0)
(0.195076 -8.95834e-05 0)
(0.195103 -7.78286e-05 0)
(0.195128 -6.70917e-05 0)
(0.19515 -5.74304e-05 0)
(0.19517 -4.88624e-05 0)
(0.195187 -4.13701e-05 0)
(0.195201 -3.49052e-05 0)
(0.195213 -2.93958e-05 0)
(0.195223 -2.47537e-05 0)
(0.19523 -2.08804e-05 0)
(0.195237 -1.76743e-05 0)
(0.195241 -1.50356e-05 0)
(0.195245 -1.28703e-05 0)
(0.195248 -1.10935e-05 0)
(0.19525 -9.63079e-06 0)
(0.195251 -8.41879e-06 0)
(0.195252 -7.40521e-06 0)
(0.195253 -6.5478e-06 0)
(0.195254 -5.81324e-06 0)
(0.195254 -5.17571e-06 0)
(0.195255 -4.61554e-06 0)
(0.195255 -4.11789e-06 0)
(0.195255 -3.67161e-06 0)
(0.195255 -3.2683e-06 0)
(0.195255 -2.90155e-06 0)
(0.195255 -2.56639e-06 0)
(0.195255 -2.25882e-06 0)
(0.195255 -1.97555e-06 0)
(0.195255 -1.71376e-06 0)
(0.195255 -1.47097e-06 0)
(0.195255 -1.2449e-06 0)
(0.195255 -1.03329e-06 0)
(0.195255 -8.33364e-07 0)
(0.195255 -6.39129e-07 0)
(0.195255 -4.26738e-07 0)
(0.196153 0.00674345 0)
(0.196726 0.00741431 0)
(0.197407 0.00791437 0)
(0.198131 0.0082476 0)
(0.198856 0.00843571 0)
(0.199556 0.00849728 0)
(0.200214 0.00844829 0)
(0.200814 0.00830649 0)
(0.201344 0.00809153 0)
(0.201798 0.00782302 0)
(0.202175 0.00751914 0)
(0.202477 0.00719584 0)
(0.202711 0.00686635 0)
(0.202882 0.00654083 0)
(0.203001 0.00622639 0)
(0.203075 0.00592734 0)
(0.203111 0.0056457 0)
(0.203118 0.00538171 0)
(0.2031 0.00513441 0)
(0.203062 0.00490205 0)
(0.203008 0.00468248 0)
(0.202941 0.00447342 0)
(0.202862 0.00427262 0)
(0.202773 0.00407796 0)
(0.202676 0.00388749 0)
(0.202571 0.00369948 0)
(0.202458 0.00351235 0)
(0.20234 0.0033247 0)
(0.202215 0.00313525 0)
(0.202085 0.00294287 0)
(0.201951 0.00274655 0)
(0.201811 0.00254545 0)
(0.201668 0.00233901 0)
(0.201519 0.00212706 0)
(0.201365 0.00191007 0)
(0.201205 0.00168932 0)
(0.201038 0.00146711 0)
(0.200863 0.00124689 0)
(0.200681 0.00103309 0)
(0.200491 0.000830682 0)
(0.200298 0.000644359 0)
(0.200103 0.000477707 0)
(0.199912 0.000332677 0)
(0.199727 0.000209496 0)
(0.19955 0.000106855 0)
(0.199383 2.27113e-05 0)
(0.199226 -4.48611e-05 0)
(0.199083 -9.78024e-05 0)
(0.198952 -0.000138222 0)
(0.198836 -0.000168163 0)
(0.198733 -0.000189431 0)
(0.198643 -0.000203565 0)
(0.198565 -0.000211844 0)
(0.198499 -0.000215314 0)
(0.198444 -0.00021483 0)
(0.198399 -0.000211092 0)
(0.198363 -0.000204687 0)
(0.198334 -0.000196116 0)
(0.198313 -0.00018582 0)
(0.198298 -0.0001742 0)
(0.198288 -0.000161626 0)
(0.198282 -0.000148442 0)
(0.19828 -0.000134969 0)
(0.198281 -0.000121504 0)
(0.198284 -0.000108313 0)
(0.198288 -9.56304e-05 0)
(0.198293 -8.3649e-05 0)
(0.198299 -7.25204e-05 0)
(0.198304 -6.23522e-05 0)
(0.198309 -5.32077e-05 0)
(0.198314 -4.5109e-05 0)
(0.198318 -3.80412e-05 0)
(0.198321 -3.19586e-05 0)
(0.198324 -2.67914e-05 0)
(0.198326 -2.24533e-05 0)
(0.198327 -1.88483e-05 0)
(0.198328 -1.58774e-05 0)
(0.198328 -1.34436e-05 0)
(0.198328 -1.14562e-05 0)
(0.198328 -9.83354e-06 0)
(0.198327 -8.50419e-06 0)
(0.198326 -7.40791e-06 0)
(0.198326 -6.49503e-06 0)
(0.198325 -5.7257e-06 0)
(0.198324 -5.06855e-06 0)
(0.198323 -4.49942e-06 0)
(0.198323 -3.99992e-06 0)
(0.198322 -3.55625e-06 0)
(0.198321 -3.15803e-06 0)
(0.198321 -2.79747e-06 0)
(0.19832 -2.46866e-06 0)
(0.19832 -2.16696e-06 0)
(0.198319 -1.88873e-06 0)
(0.198319 -1.63091e-06 0)
(0.198318 -1.39093e-06 0)
(0.198318 -1.16649e-06 0)
(0.198318 -9.55352e-07 0)
(0.198317 -7.54839e-07 0)
(0.198317 -5.59662e-07 0)
(0.198317 -3.53147e-07 0)
(0.196586 0.00645444 0)
(0.197074 0.00704038 0)
(0.197657 0.00749591 0)
(0.198288 0.00781466 0)
(0.198931 0.00800753 0)
(0.199562 0.0080879 0)
(0.200162 0.00806885 0)
(0.200717 0.00796494 0)
(0.201216 0.00779247 0)
(0.201654 0.00756809 0)
(0.202027 0.00730756 0)
(0.202339 0.00702497 0)
(0.202592 0.00673222 0)
(0.202793 0.00643873 0)
(0.202948 0.00615139 0)
(0.203065 0.00587471 0)
(0.20315 0.00561115 0)
(0.20321 0.00536159 0)
(0.203249 0.0051257 0)
(0.203272 0.00490238 0)
(0.203281 0.00469002 0)
(0.203281 0.00448683 0)
(0.203271 0.00429091 0)
(0.203254 0.00410042 0)
(0.203231 0.00391364 0)
(0.203202 0.00372896 0)
(0.203167 0.00354493 0)
(0.203127 0.00336022 0)
(0.203082 0.00317363 0)
(0.20303 0.00298409 0)
(0.202973 0.0027907 0)
(0.202909 0.00259271 0)
(0.202837 0.00238971 0)
(0.202757 0.00218166 0)
(0.202666 0.00196912 0)
(0.202565 0.0017534 0)
(0.202451 0.00153672 0)
(0.202323 0.00132221 0)
(0.202182 0.00111382 0)
(0.202028 0.000915887 0)
(0.201863 0.000732502 0)
(0.201692 0.000566872 0)
(0.201517 0.000420886 0)
(0.201342 0.000295039 0)
(0.201172 0.000188625 0)
(0.201008 0.000100098 0)
(0.200852 2.7528e-05 0)
(0.200704 -3.09796e-05 0)
(0.200567 -7.72497e-05 0)
(0.20044 -0.000113082 0)
(0.200324 -0.000140116 0)
(0.200219 -0.000159779 0)
(0.200123 -0.000173279 0)
(0.200038 -0.00018162 0)
(0.199962 -0.00018564 0)
(0.199894 -0.000186033 0)
(0.199835 -0.000183386 0)
(0.199783 -0.000178208 0)
(0.199738 -0.000170949 0)
(0.199699 -0.000162019 0)
(0.199665 -0.000151801 0)
(0.199637 -0.000140652 0)
(0.199613 -0.00012891 0)
(0.199593 -0.000116891 0)
(0.199577 -0.000104882 0)
(0.199564 -9.31395e-05 0)
(0.199553 -8.18846e-05 0)
(0.199544 -7.12963e-05 0)
(0.199537 -6.15106e-05 0)
(0.199531 -5.26194e-05 0)
(0.199526 -4.46721e-05 0)
(0.199522 -3.76791e-05 0)
(0.199519 -3.16172e-05 0)
(0.199516 -2.64358e-05 0)
(0.199513 -2.20642e-05 0)
(0.19951 -1.84186e-05 0)
(0.199508 -1.54085e-05 0)
(0.199506 -1.29426e-05 0)
(0.199503 -1.09335e-05 0)
(0.199501 -9.30039e-06 0)
(0.199499 -7.97176e-06 0)
(0.199498 -6.88607e-06 0)
(0.199496 -5.99186e-06 0)
(0.199494 -5.24727e-06 0)
(0.199493 -4.619e-06 0)
(0.199491 -4.08111e-06 0)
(0.19949 -3.61373e-06 0)
(0.199489 -3.20183e-06 0)
(0.199487 -2.83416e-06 0)
(0.199486 -2.50228e-06 0)
(0.199486 -2.19984e-06 0)
(0.199485 -1.92199e-06 0)
(0.199484 -1.66496e-06 0)
(0.199483 -1.4257e-06 0)
(0.199483 -1.20171e-06 0)
(0.199482 -9.90807e-07 0)
(0.199481 -7.90984e-07 0)
(0.199481 -6.00012e-07 0)
(0.19948 -4.14309e-07 0)
(0.19948 -2.27089e-07 0)
(0.196971 0.0061954 0)
(0.197393 0.00670753 0)
(0.197894 0.007119 0)
(0.198444 0.00741916 0)
(0.199013 0.00761165 0)
(0.199578 0.00770514 0)
(0.200121 0.00770979 0)
(0.20063 0.00763734 0)
(0.201093 0.00750113 0)
(0.201506 0.00731513 0)
(0.201865 0.00709287 0)
(0.20217 0.00684667 0)
(0.202425 0.00658714 0)
(0.202634 0.00632295 0)
(0.202802 0.00606065 0)
(0.202936 0.0058048 0)
(0.20304 0.0055582 0)
(0.203121 0.00532218 0)
(0.203183 0.00509697 0)
(0.20323 0.00488202 0)
(0.203265 0.00467625 0)
(0.203291 0.00447828 0)
(0.203309 0.00428662 0)
(0.20332 0.00409971 0)
(0.203326 0.00391607 0)
(0.203327 0.00373428 0)
(0.203323 0.00355304 0)
(0.203315 0.00337113 0)
(0.203301 0.00318748 0)
(0.203281 0.00300113 0)
(0.203256 0.00281127 0)
(0.203223 0.0026173 0)
(0.203182 0.00241891 0)
(0.203131 0.00221619 0)
(0.203069 0.00200973 0)
(0.202994 0.00180082 0)
(0.202906 0.0015915 0)
(0.202802 0.00138457 0)
(0.202683 0.00118347 0)
(0.202549 0.000991915 0)
(0.202404 0.000813441 0)
(0.202248 0.000650867 0)
(0.202087 0.00050596 0)
(0.201924 0.000379344 0)
(0.201761 0.000270641 0)
(0.201603 0.000178746 0)
(0.20145 0.000102132 0)
(0.201304 3.90808e-05 0)
(0.201166 -1.21044e-05 0)
(0.201037 -5.29913e-05 0)
(0.200917 -8.50611e-05 0)
(0.200806 -0.000109631 0)
(0.200704 -0.000127833 0)
(0.200611 -0.00014063 0)
(0.200526 -0.000148834 0)
(0.200448 -0.000153131 0)
(0.200378 -0.000154111 0)
(0.200315 -0.000152286 0)
(0.200258 -0.000148116 0)
(0.200207 -0.000142019 0)
(0.200162 -0.000134385 0)
(0.200123 -0.000125581 0)
(0.200088 -0.000115951 0)
(0.200057 -0.000105819 0)
(0.200031 -9.548e-05 0)
(0.200008 -8.52016e-05 0)
(0.199988 -7.52147e-05 0)
(0.199971 -6.57117e-05 0)
(0.199957 -5.6843e-05 0)
(0.199945 -4.87166e-05 0)
(0.199935 -4.13991e-05 0)
(0.199926 -3.49185e-05 0)
(0.199919 -2.92691e-05 0)
(0.199912 -2.44173e-05 0)
(0.199907 -2.03081e-05 0)
(0.199902 -1.68716e-05 0)
(0.199898 -1.40298e-05 0)
(0.199894 -1.17015e-05 0)
(0.199891 -9.80723e-06 0)
(0.199888 -8.2727e-06 0)
(0.199885 -7.03092e-06 0)
(0.199882 -6.02358e-06 0)
(0.19988 -5.20135e-06 0)
(0.199878 -4.52366e-06 0)
(0.199876 -3.95791e-06 0)
(0.199874 -3.47847e-06 0)
(0.199872 -3.06557e-06 0)
(0.199871 -2.7042e-06 0)
(0.19987 -2.38304e-06 0)
(0.199868 -2.09365e-06 0)
(0.199867 -1.8297e-06 0)
(0.199866 -1.58642e-06 0)
(0.199865 -1.36015e-06 0)
(0.199864 -1.14801e-06 0)
(0.199864 -9.47678e-07 0)
(0.199863 -7.57232e-07 0)
(0.199862 -5.74989e-07 0)
(0.199862 -3.99371e-07 0)
(0.199861 -2.28739e-07 0)
(0.19986 -6.43465e-08 0)
(0.197314 0.0059604 0)
(0.197682 0.00640904 0)
(0.198116 0.00677887 0)
(0.198596 0.00705828 0)
(0.199099 0.00724649 0)
(0.199603 0.00734842 0)
(0.200094 0.00737151 0)
(0.200558 0.00732505 0)
(0.200985 0.0072198 0)
(0.201371 0.00706734 0)
(0.201711 0.00687912 0)
(0.202005 0.0066658 0)
(0.202256 0.00643678 0)
(0.202465 0.0061999 0)
(0.202638 0.00596131 0)
(0.202779 0.00572551 0)
(0.202892 0.00549547 0)
(0.202984 0.00527288 0)
(0.203057 0.0050584 0)
(0.203115 0.00485196 0)
(0.203161 0.00465291 0)
(0.203198 0.0044603 0)
(0.203227 0.00427297 0)
(0.203249 0.00408968 0)
(0.203266 0.00390919 0)
(0.203278 0.00373029 0)
(0.203285 0.00355184 0)
(0.203287 0.00337279 0)
(0.203284 0.00319217 0)
(0.203276 0.00300916 0)
(0.203261 0.00282307 0)
(0.203239 0.00263344 0)
(0.203209 0.00244005 0)
(0.203169 0.00224308 0)
(0.203118 0.00204316 0)
(0.203055 0.0018415 0)
(0.202977 0.00163995 0)
(0.202885 0.00144098 0)
(0.202779 0.00124755 0)
(0.202658 0.00106284 0)
(0.202525 0.000889883 0)
(0.202382 0.000731131 0)
(0.202232 0.000588214 0)
(0.202079 0.000461826 0)
(0.201926 0.000351818 0)
(0.201774 0.0002574 0)
(0.201627 0.000177375 0)
(0.201486 0.000110343 0)
(0.201351 5.48285e-05 0)
(0.201224 9.38813e-06 0)
(0.201105 -2.72932e-05 0)
(0.200994 -5.64048e-05 0)
(0.200891 -7.90089e-05 0)
(0.200796 -9.60216e-05 0)
(0.200708 -0.000108228 0)
(0.200627 -0.000116302 0)
(0.200553 -0.00012083 0)
(0.200486 -0.000122328 0)
(0.200425 -0.000121261 0)
(0.20037 -0.000118056 0)
(0.200321 -0.000113107 0)
(0.200276 -0.000106787 0)
(0.200237 -9.94444e-05 0)
(0.200202 -9.14051e-05 0)
(0.200171 -8.29686e-05 0)
(0.200144 -7.44048e-05 0)
(0.200121 -6.5949e-05 0)
(0.200101 -5.77996e-05 0)
(0.200083 -5.01146e-05 0)
(0.200068 -4.3012e-05 0)
(0.200056 -3.65697e-05 0)
(0.200045 -3.08292e-05 0)
(0.200035 -2.57993e-05 0)
(0.200027 -2.14613e-05 0)
(0.200021 -1.77753e-05 0)
(0.200015 -1.46859e-05 0)
(0.200009 -1.21284e-05 0)
(0.200005 -1.00337e-05 0)
(0.200001 -8.33275e-06 0)
(0.199997 -6.96002e-06 0)
(0.199994 -5.85555e-06 0)
(0.199991 -4.96655e-06 0)
(0.199989 -4.2479e-06 0)
(0.199986 -3.66209e-06 0)
(0.199984 -3.17873e-06 0)
(0.199982 -2.7737e-06 0)
(0.199981 -2.42829e-06 0)
(0.199979 -2.12818e-06 0)
(0.199977 -1.86257e-06 0)
(0.199976 -1.62339e-06 0)
(0.199975 -1.40463e-06 0)
(0.199974 -1.20177e-06 0)
(0.199973 -1.01142e-06 0)
(0.199972 -8.30975e-07 0)
(0.199971 -6.58383e-07 0)
(0.19997 -4.92026e-07 0)
(0.19997 -3.30622e-07 0)
(0.199969 -1.7327e-07 0)
(0.199968 -1.99525e-08 0)
(0.199968 1.23505e-07 0)
(0.197622 0.00574527 0)
(0.197945 0.00613949 0)
(0.198323 0.00647106 0)
(0.198743 0.006729 0)
(0.199186 0.00691019 0)
(0.199636 0.00701676 0)
(0.200077 0.00705387 0)
(0.200499 0.00702863 0)
(0.200892 0.00694962 0)
(0.20125 0.0068263 0)
(0.20157 0.00666824 0)
(0.201852 0.00648458 0)
(0.202095 0.00628354 0)
(0.202301 0.00607214 0)
(0.202475 0.00585608 0)
(0.202619 0.00563967 0)
(0.202738 0.00542597 0)
(0.202835 0.00521689 0)
(0.202914 0.00501343 0)
(0.202979 0.00481589 0)
(0.203032 0.00462402 0)
(0.203074 0.00443721 0)
(0.203109 0.00425465 0)
(0.203136 0.00407537 0)
(0.203158 0.00389838 0)
(0.203174 0.00372267 0)
(0.203185 0.00354728 0)
(0.20319 0.00337131 0)
(0.203191 0.00319394 0)
(0.203186 0.00301447 0)
(0.203174 0.00283236 0)
(0.203155 0.00264723 0)
(0.203129 0.00245898 0)
(0.203092 0.00226784 0)
(0.203045 0.00207446 0)
(0.202986 0.00187996 0)
(0.202914 0.00168601 0)
(0.202829 0.00149476 0)
(0.20273 0.00130877 0)
(0.202618 0.00113075 0)
(0.202494 0.00096328 0)
(0.202361 0.000808512 0)
(0.202222 0.000667925 0)
(0.202079 0.000542246 0)
(0.201934 0.000431496 0)
(0.201791 0.000335137 0)
(0.201651 0.000252245 0)
(0.201515 0.000181679 0)
(0.201386 0.000122201 0)
(0.201263 7.25687e-05 0)
(0.201147 3.15893e-05 0)
(0.201038 -1.83034e-06 0)
(0.200937 -2.86523e-05 0)
(0.200842 -4.97345e-05 0)
(0.200755 -6.58342e-05 0)
(0.200675 -7.76112e-05 0)
(0.200601 -8.56446e-05 0)
(0.200533 -9.04505e-05 0)
(0.200472 -9.24962e-05 0)