/*--------------------------------*- C++ -*----------------------------------*\
| =========                 |                                                 |
| \\      /  F ield         | OpenFOAM: The Open Source CFD Toolbox           |
|  \\    /   O peration     | Version:  2.3.0                                 |
|   \\  /    A nd           | Web:      www.OpenFOAM.org                      |
|    \\/     M anipulation  |                                                 |
\*---------------------------------------------------------------------------*/
FoamFile
{
    version     2.0;
    format      ascii;
    class       volScalarField;
    location    "0.5";
    object      p;
}
// * * * * * * * * * * * * * * * * * * * * * * * * * * * * * * * * * * * * * //

dimensions      [0 2 -2 0 0 0 0];

internalField   nonuniform List<scalar> 
2945
(
0.00257863
0.00114491
-8.01205e-05
-0.000632595
-0.000703989
-0.000608687
-0.000514248
-0.000457807
-0.000427657
-0.000408895
-0.000394102
-0.00038079
-0.000368332
-0.000356588
-0.000345481
-0.000334916
-0.000324793
-0.000315027
-0.000305558
-0.000296345
-0.000287366
-0.000278606
-0.000270061
-0.000261727
-0.000253608
-0.000245705
-0.000238024
-0.000230568
-0.000223342
-0.000216351
-0.000209597
-0.000203084
-0.000196815
-0.00019079
-0.00018501
-0.000179475
-0.000174182
-0.000169129
-0.000164313
-0.000159728
-0.000155367
-0.000151224
-0.00014729
-0.000143555
-0.000140007
-0.000136634
-0.000133421
-0.000130353
-0.000127411
-0.000124577
-0.000121829
-0.000119144
-0.000116499
-0.000113865
-0.000111215
-0.000108516
-0.000105738
-0.000102844
-9.97993e-05
-9.65656e-05
-9.3104e-05
-8.93746e-05
-8.53372e-05
-8.09514e-05
-7.61778e-05
-7.09783e-05
-6.53204e-05
-5.91732e-05
-5.2532e-05
-4.53544e-05
-3.77782e-05
-2.94573e-05
-2.15221e-05
-1.12107e-05
-5.41005e-06
0.00214092
0.00109202
3.06306e-05
-0.000519503
-0.000629083
-0.000565
-0.000489387
-0.000442511
-0.000416617
-0.000399871
-0.000386348
-0.000374036
-0.00036241
-0.000351357
-0.000340823
-0.000330738
-0.00032102
-0.000311602
-0.000302434
-0.000293484
-0.000284735
-0.00027618
-0.000267817
-0.000259646
-0.000251673
-0.000243903
-0.000236342
-0.000228995
-0.000221869
-0.000214969
-0.0002083
-0.000201865
-0.000195667
-0.000189709
-0.000183991
-0.000178513
-0.000173274
-0.000168272
-0.000163503
-0.000158962
-0.000154643
-0.00015054
-0.000146643
-0.000142944
-0.00013943
-0.000136089
-0.000132907
-0.000129868
-0.000126954
-0.000124147
-0.000121425
-0.000118766
-0.000116145
-0.000113535
-0.000110907
-0.00010823
-0.000105473
-0.0001026
-9.95754e-05
-9.6361e-05
-9.29181e-05
-8.92068e-05
-8.51868e-05
-8.08176e-05
-7.60598e-05
-7.08753e-05
-6.52312e-05
-5.90966e-05
-5.24669e-05
-4.52981e-05
-3.77316e-05
-2.94109e-05
-2.14917e-05
-1.11671e-05
-5.39802e-06
0.00189922
0.00106205
0.000149478
-0.000379642
-0.000530237
-0.000509275
-0.000459963
-0.000425123
-0.000403942
-0.000389412
-0.000377502
-0.000366583
-0.000356112
-0.000345969
-0.000336146
-0.000326623
-0.00031736
-0.000308317
-0.000299463
-0.000290781
-0.000282264
-0.000273911
-0.000265725
-0.000257711
-0.000249878
-0.000242233
-0.000234785
-0.000227541
-0.000220508
-0.000213693
-0.000207101
-0.000200738
-0.000194606
-0.000188709
-0.000183048
-0.000177623
-0.000172434
-0.000167477
-0.000162751
-0.000158251
-0.000153971
-0.000149904
-0.000146042
-0.000142375
-0.000138892
-0.00013558
-0.000132426
-0.000129414
-0.000126527
-0.000123745
-0.000121047
-0.000118412
-0.000115813
-0.000113225
-0.000110618
-0.000107962
-0.000105225
-0.000102372
-9.93663e-05
-9.61704e-05
-9.27455e-05
-8.90516e-05
-8.50484e-05
-8.06954e-05
-7.5953e-05
-7.07831e-05
-6.51526e-05
-5.90303e-05
-5.24117e-05
-4.52515e-05
-3.76938e-05
-2.93711e-05
-2.14698e-05
-1.10522e-05
-5.51685e-06
0.00172343
0.00102994
0.000243482
-0.000249292
-0.000423381
-0.000438239
-0.000415658
-0.000396503
-0.000383747
-0.000373946
-0.000365099
-0.000356412
-0.000347638
-0.000338798
-0.000329989
-0.00032127
-0.000312657
-0.000304147
-0.000295737
-0.000287429
-0.000279231
-0.000271151
-0.000263202
-0.000255395
-0.000247744
-0.000240261
-0.000232956
-0.00022584
-0.000218923
-0.000212212
-0.000205716
-0.000199439
-0.000193387
-0.000187562
-0.000181968
-0.000176605
-0.000171473
-0.000166571
-0.000161894
-0.000157441
-0.000153204
-0.000149178
-0.000145355
-0.000141724
-0.000138276
-0.000134998
-0.000131875
-0.000128893
-0.000126035
-0.00012328
-0.000120609
-0.000117999
-0.000115425
-0.000112861
-0.000110278
-0.000107646
-0.000104931
-0.000102099
-9.91149e-05
-9.59399e-05
-9.25354e-05
-8.88615e-05
-8.48776e-05
-8.05435e-05
-7.58193e-05
-7.06669e-05
-6.50531e-05
-5.89464e-05
-5.23421e-05
-4.51945e-05
-3.76476e-05
-2.93255e-05
-2.14374e-05
-1.08537e-05
-5.79196e-06
0.00154468
0.00097349
0.000306864
-0.00014173
-0.00032792
-0.000369681
-0.000368919
-0.000363709
-0.000359219
-0.000354441
-0.000349023
-0.000342963
-0.000336292
-0.000329137
-0.000321676
-0.000314045
-0.000306318
-0.000298539
-0.000290737
-0.000282943
-0.000275181
-0.000267477
-0.000259854
-0.000252331
-0.00024493
-0.000237666
-0.000230557
-0.000223616
-0.000216855
-0.000210285
-0.000203916
-0.000197755
-0.000191808
-0.00018608
-0.000180574
-0.000175292
-0.000170235
-0.000165401
-0.000160789
-0.000156395
-0.000152214
-0.00014824
-0.000144465
-0.00014088
-0.000137474
-0.000134237
-0.000131153
-0.000128207
-0.000125383
-0.000122662
-0.000120023
-0.000117444
-0.0001149
-0.000112365
-0.00010981
-0.000107205
-0.000104517
-0.000101712
-9.87539e-05
-9.56046e-05
-9.22255e-05
-8.85767e-05
-8.46177e-05
-8.03082e-05
-7.56084e-05
-7.048e-05
-6.48898e-05
-5.88062e-05
-5.2224e-05
-4.5098e-05
-3.7569e-05
-2.92549e-05
-2.13757e-05
-1.05601e-05
-6.23773e-06
0.00138381
0.000915267
0.000352978
-5.29496e-05
-0.000245638
-0.000308275
-0.000325096
-0.00033147
-0.000334167
-0.000333946
-0.000331711
-0.000328132
-0.000323492
-0.000318008
-0.000311922
-0.000305431
-0.000298659
-0.000291687
-0.000284573
-0.00027737
-0.000270121
-0.000262863
-0.00025563
-0.000248451
-0.000241354
-0.000234362
-0.000227495
-0.00022077
-0.000214205
-0.000207812
-0.000201603
-0.000195587
-0.000189773
-0.000184166
-0.000178771
-0.000173592
-0.000168628
-0.000163881
-0.000159349
-0.00015503
-0.000150918
-0.000147008
-0.000143292
-0.000139764
-0.000136411
-0.000133222
-0.000130185
-0.000127284
-0.000124502
-0.00012182
-0.00011922
-0.000116677
-0.000114169
-0.000111668
-0.000109147
-0.000106574
-0.000103919
-0.000101146
-9.82192e-05
-9.51017e-05
-9.17543e-05
-8.81374e-05
-8.42107e-05
-7.99337e-05
-7.52669e-05
-7.01719e-05
-6.46157e-05
-5.85668e-05
-5.20193e-05
-4.49285e-05
-3.74301e-05
-2.9137e-05
-2.1267e-05
-1.01746e-05
-6.83208e-06
0.0012465
0.000860266
0.000385589
2.00815e-05
-0.000173935
-0.000252237
-0.000283347
-0.000299661
-0.000308965
-0.000313182
-0.000314092
-0.000312923
-0.000310224
-0.000306326
-0.000301545
-0.00029614
-0.000290285
-0.000284096
-0.000277659
-0.000271045
-0.000264313
-0.000257513
-0.000250687
-0.000243872
-0.000237101
-0.000230403
-0.000223801
-0.000217317
-0.000210971
-0.000204778
-0.000198751
-0.000192902
-0.000187241
-0.000181776
-0.000176511
-0.000171451
-0.000166598
-0.000161953
-0.000157516
-0.000153284
-0.000149253
-0.000145419
-0.000141775
-0.000138312
-0.000135021
-0.00013189
-0.000128907
-0.000126057
-0.000123324
-0.000120689
-0.000118132
-0.000115632
-0.000113165
-0.000110704
-0.000108221
-0.000105687
-0.00010307
-0.000100335
-9.74462e-05
-9.43671e-05
-9.10589e-05
-8.7482e-05
-8.35963e-05
-7.93617e-05
-7.47387e-05
-6.96894e-05
-6.41808e-05
-5.81818e-05
-5.16856e-05
-4.46486e-05
-3.71989e-05
-2.89463e-05
-2.10928e-05
-9.72208e-06
-7.50331e-06
0.00112815
0.000806422
0.000405411
7.88807e-05
-0.000111604
-0.000200946
-0.000243551
-0.000268409
-0.000283784
-0.000292316
-0.000296348
-0.000297558
-0.00029676
-0.000294411
-0.000290901
-0.000286551
-0.000281584
-0.000276151
-0.000270366
-0.000264319
-0.000258085
-0.000251726
-0.000245294
-0.000238833
-0.000232382
-0.000225973
-0.000219635
-0.000213394
-0.000207269
-0.00020128
-0.000195441
-0.000189766
-0.000184266
-0.000178949
-0.000173822
-0.000168889
-0.000164156
-0.000159621
-0.000155287
-0.000151151
-0.000147209
-0.000143458
-0.000139892
-0.000136501
-0.000133278
-0.000130211
-0.000127288
-0.000124494
-0.000121814
-0.00011923
-0.000116722
-0.000114268
-0.000111846
-0.000109429
-0.000106989
-0.000104498
-0.000101923
-9.92311e-05
-9.63864e-05
-9.33522e-05
-9.00904e-05
-8.65616e-05
-8.27263e-05
-7.85447e-05
-7.39776e-05
-6.89878e-05
-6.35423e-05
-5.76108e-05
-5.11857e-05
-4.42243e-05
-3.68456e-05
-2.86592e-05
-2.08381e-05
-9.25021e-06
-8.13631e-06
0.0010253
0.000754528
0.000415455
0.000125726
-5.77662e-05
-0.000154374
-0.000206022
-0.000238048
-0.00025883
-0.00027143
-0.000278504
-0.000282054
-0.000283133
-0.000282321
-0.000280076
-0.000276775
-0.000272689
-0.000268004
-0.000262861
-0.000257371
-0.000251624
-0.000245695
-0.000239645
-0.000233527
-0.000227384
-0.000221256
-0.000215173
-0.000209165
-0.000203255
-0.000197463
-0.000191808
-0.000186302
-0.000180959
-0.000175789
-0.000170798
-0.000165993
-0.000161378
-0.000156955
-0.000152724
-0.000148684
-0.000144833
-0.000141166
-0.000137678
-0.000134362
-0.000131207
-0.000128205
-0.000125343
-0.000122607
-0.000119981
-0.000117449
-0.00011499
-0.000112584
-0.000110208
-0.000107836
-0.000105442
-0.000102996
-0.000100466
-9.782e-05
-9.5023e-05
-9.20385e-05
-8.88287e-05
-8.53551e-05
-8.15786e-05
-7.74598e-05
-7.29603e-05
-6.80434e-05
-6.26769e-05
-5.6831e-05
-5.04973e-05
-4.36343e-05
-3.63508e-05
-2.82611e-05
-2.0496e-05
-8.82157e-06
-8.59735e-06
0.000935658
0.000705665
0.000418301
0.000162383
-1.18194e-05
-0.000112525
-0.000170983
-0.000208835
-0.000234293
-0.000250627
-0.000260609
-0.000266435
-0.000269355
-0.00027006
-0.000269073
-0.000266821
-0.000263616
-0.000259682
-0.000255182
-0.00025025
-0.00024499
-0.00023949
-0.00023382
-0.000228042
-0.000222204
-0.000216351
-0.000210519
-0.000204739
-0.000199038
-0.000193439
-0.000187961
-0.00018262
-0.00017743
-0.000172401
-0.000167542
-0.00016286
-0.000158359
-0.000154043
-0.000149912
-0.000145965
-0.000142201
-0.000138616
-0.000135204
-0.000131958
-0.000128871
-0.000125931
-0.000123127
-0.000120446
-0.000117873
-0.00011539
-0.000112979
-0.000110619
-0.000108287
-0.000105959
-0.000103609
-0.000101206
-9.87221e-05
-9.61231e-05
-9.33752e-05
-9.04426e-05
-8.72885e-05
-8.38748e-05
-8.01631e-05
-7.61149e-05
-7.16927e-05
-6.68604e-05
-6.15868e-05
-5.58427e-05
-4.96192e-05
-4.28761e-05
-3.57113e-05
-2.77508e-05
-2.00704e-05
-8.49582e-06
-8.77361e-06
0.000857133
0.000660112
0.000415639
0.000190229
2.68289e-05
-7.52938e-05
-0.00013856
-0.000180995
-0.00021039
-0.000230067
-0.00024277
-0.000250773
-0.00025547
-0.000257657
-0.000257908
-0.000256695
-0.000254369
-0.000251186
-0.000247333
-0.000242961
-0.000238191
-0.000233123
-0.000227837
-0.0002224
-0.000216869
-0.000211293
-0.000205712
-0.00020016
-0.000194668
-0.00018926
-0.000183958
-0.00017878
-0.00017374
-0.00016885
-0.000164121
-0.000159559
-0.00015517
-0.000150958
-0.000146923
-0.000143067
-0.000139386
-0.000135879
-0.000132539
-0.000129361
-0.000126337
-0.000123456
-0.000120707
-0.000118077
-0.000115552
-0.000113115
-0.000110748
-0.000108431
-0.00010614
-0.000103854
-0.000101544
-9.91835e-05
-9.67425e-05
-9.4189e-05
-9.14895e-05
-8.86092e-05
-8.55119e-05
-8.21604e-05
-7.85173e-05
-7.45449e-05
-7.02068e-05
-6.5468e-05
-6.02981e-05
-5.46689e-05
-4.8571e-05
-4.19658e-05
-3.49405e-05
-2.71408e-05
-1.95749e-05
-8.30844e-06
-8.61189e-06
0.00078788
0.000617805
0.00040885
0.000210637
5.88917e-05
-4.24782e-05
-0.000108815
-0.000154706
-0.000187317
-0.000209909
-0.000225099
-0.000235147
-0.000241537
-0.00024515
-0.000246608
-0.000246416
-0.00024496
-0.000242522
-0.000239315
-0.000235505
-0.000231228
-0.000226594
-0.000221695
-0.000216603
-0.000211382
-0.000206086
-0.000200758
-0.000195438
-0.000190157
-0.000184943
-0.000179819
-0.000174805
-0.000169916
-0.000165167
-0.000160567
-0.000156126
-0.000151848
-0.000147739
-0.000143801
-0.000140033
-0.000136435
-0.000133004
-0.000129736
-0.000126623
-0.000123659
-0.000120834
-0.000118138
-0.000115557
-0.000113078
-0.000110684
-0.000108358
-0.000106079
-0.000103827
-0.000101578
-9.93069e-05
-9.69857e-05
-9.45856e-05
-9.20756e-05
-8.94232e-05
-8.65943e-05
-8.35537e-05
-8.02652e-05
-7.66925e-05
-7.27991e-05
-6.85496e-05
-6.39102e-05
-5.88517e-05
-5.3347e-05
-4.73863e-05
-4.09329e-05
-3.40638e-05
-2.64533e-05
-1.9029e-05
-8.25742e-06
-8.13693e-06
0.000726359
0.000578575
0.00039908
0.000224874
8.50728e-05
-1.3862e-05
-8.17758e-05
-0.000130105
-0.00016524
-0.000190292
-0.000207701
-0.000219634
-0.000227615
-0.000232586
-0.000235208
-0.00023601
-0.000235407
-0.000233705
-0.000231137
-0.000227886
-0.000224102
-0.000219904
-0.000215392
-0.000210648
-0.000205741
-0.000200727
-0.000195657
-0.000190571
-0.000185505
-0.000180488
-0.000175545
-0.000170698
-0.000165964
-0.000161358
-0.00015689
-0.000152571
-0.000148407
-0.000144403
-0.000140562
-0.000136885
-0.00013337
-0.000130016
-0.000126819
-0.000123772
-0.000120868
-0.000118099
-0.000115455
-0.000112922
-0.000110487
-0.000108135
-0.000105848
-0.000103608
-0.000101393
-9.91801e-05
-9.69452e-05
-9.46617e-05
-9.23011e-05
-8.98335e-05
-8.72271e-05
-8.4449e-05
-8.14649e-05
-7.824e-05
-7.47389e-05
-7.09265e-05
-6.67686e-05
-6.22328e-05
-5.7291e-05
-5.19175e-05
-4.61021e-05
-3.98108e-05
-3.31108e-05
-2.57126e-05
-1.84526e-05
-8.30537e-06
-7.4398e-06
0.000671311
0.000542182
0.000387202
0.000234029
0.000106032
1.07893e-05
-5.74317e-05
-0.000107282
-0.000144287
-0.000171343
-0.000190677
-0.000204314
-0.000213765
-0.000220012
-0.000223743
-0.000225504
-0.00022573
-0.000224748
-0.00022281
-0.000220113
-0.000216818
-0.000213055
-0.000208932
-0.000204536
-0.000199944
-0.000195216
-0.000190405
-0.000185557
-0.000180709
-0.000175892
-0.000171134
-0.000166457
-0.000161881
-0.00015742
-0.000153088
-0.000148895
-0.000144847
-0.000140951
-0.00013721
-0.000133625
-0.000130197
-0.000126922
-0.000123797
-0.000120818
-0.000117977
-0.000115265
-0.000112673
-0.00011019
-0.0001078
-0.000105491
-0.000103244
-0.000101042
-9.88636e-05
-9.66873e-05
-9.44891e-05
-9.22433e-05
-8.99224e-05
-8.74972e-05
-8.49371e-05
-8.22103e-05
-7.92835e-05
-7.61232e-05
-7.26952e-05
-6.89657e-05
-6.4902e-05
-6.0473e-05
-5.5652e-05
-5.04147e-05
-4.47506e-05
-3.86288e-05
-3.21078e-05
-2.49392e-05
-1.78614e-05
-8.39554e-06
-6.64237e-06
0.000621709
0.00050835
0.000373865
0.000239028
0.000122402
3.17403e-05
-3.57313e-05
-8.62917e-05
-0.000124562
-0.000153172
-0.000174124
-0.000189264
-0.00020005
-0.000207478
-0.000212251
-0.000214927
-0.000215951
-0.00021567
-0.000214348
-0.000212195
-0.000209383
-0.000206051
-0.000202315
-0.000198268
-0.000193991
-0.00018955
-0.000185001
-0.000180393
-0.000175765
-0.000171151
-0.000166581
-0.000162078
-0.000157663
-0.000153352
-0.000149159
-0.000145094
-0.000141166
-0.000137381
-0.000133743
-0.000130254
-0.000126914
-0.000123721
-0.000120673
-0.000117763
-0.000114987
-0.000112335
-0.000109798
-0.000107366
-0.000105024
-0.000102759
-0.000100554
-9.83914e-05
-9.62518e-05
-9.41135e-05
-9.19535e-05
-8.97468e-05
-8.7467e-05
-8.50857e-05
-8.25736e-05
-7.98996e-05
-7.7032e-05
-7.39383e-05
-7.05856e-05
-6.69416e-05
-6.29749e-05
-5.8656e-05
-5.39595e-05
-4.88624e-05
-4.33545e-05
-3.74081e-05
-3.1074e-05
-2.41468e-05
-1.72657e-05
-8.4723e-06
-5.85739e-06
0.00057671
0.0004768
0.00035955
0.000240658
0.000134776
4.92739e-05
-1.65943e-05
-6.71553e-05
-0.000106141
-0.000135874
-0.000158129
-0.000174557
-0.000186531
-0.000195033
-0.000200773
-0.00020431
-0.000206096
-0.000206488
-0.000205763
-0.000204142
-0.000201804
-0.000198898
-0.000195545
-0.000191845
-0.000187883
-0.000183729
-0.000179444
-0.000175077
-0.000170672
-0.000166264
-0.000161884
-0.000157558
-0.000153307
-0.000149148
-0.000145097
-0.000141165
-0.00013736
-0.00013369
-0.000130158
-0.000126768
-0.00012352
-0.000120412
-0.000117442
-0.000114606
-0.000111897
-0.000109308
-0.000106829
-0.00010445
-0.000102158
-9.99399e-05
-9.77794e-05
-9.56593e-05
-9.35607e-05
-9.14628e-05
-8.93434e-05
-8.71783e-05
-8.4942e-05
-8.26072e-05
-8.01454e-05
-7.7527e-05
-7.47212e-05
-7.16969e-05
-6.84225e-05
-6.48671e-05
-6.10008e-05
-5.67957e-05
-5.22274e-05
-4.72746e-05
-4.19273e-05
-3.61616e-05
-3.00213e-05
-2.33425e-05
-1.66701e-05
-8.49617e-06
-5.16165e-06
0.000535622
0.00044727
0.000344603
0.000239571
0.000143699
6.36795e-05
8.21487e-08
-4.98701e-05
-8.90752e-05
-0.000119526
-0.000142771
-0.000160264
-0.000173266
-0.000182727
-0.000189348
-0.000193684
-0.000196188
-0.000197222
-0.000197071
-0.000195965
-0.00019409
-0.000191602
-0.000188626
-0.00018527
-0.000181621
-0.000177754
-0.000173732
-0.000169608
-0.000165427
-0.000161227
-0.00015704
-0.000152893
-0.000148809
-0.000144806
-0.0001409
-0.000137103
-0.000133425
-0.000129872
-0.000126451
-0.000123163
-0.000120009
-0.00011699
-0.000114102
-0.000111342
-0.000108704
-0.00010618
-0.000103762
-0.00010144
-9.92012e-05
-9.70327e-05
-9.49194e-05
-9.28445e-05
-9.07897e-05
-8.87351e-05
-8.66592e-05
-8.45386e-05
-8.23488e-05
-8.00635e-05
-7.76553e-05
-7.50956e-05
-7.23549e-05
-6.94034e-05
-6.62109e-05
-6.27479e-05
-5.89858e-05
-5.48982e-05
-5.04623e-05
-4.56581e-05
-4.04759e-05
-3.48957e-05
-2.89555e-05
-2.25288e-05
-1.60754e-05
-8.44873e-06
-4.58904e-06
0.000497877
0.000419522
0.000329277
0.000236304
0.000149662
7.5247e-05
1.44202e-05
-3.441e-05
-7.33939e-05
-0.000104188
-0.00012812
-0.000146449
-0.000160312
-0.000170608
-0.000178017
-0.000183084
-0.000186254
-0.000187892
-0.000188288
-0.000187676
-0.00018625
-0.000184168
-0.000181563
-0.000178544
-0.000175205
-0.000171623
-0.000167864
-0.000163983
-0.000160028
-0.000156037
-0.000152046
-0.000148081
-0.000144166
-0.000140322
-0.000136565
-0.000132906
-0.000129358
-0.000125926
-0.000122618
-0.000119435
-0.00011638
-0.000113452
-0.00011065
-0.000107969
-0.000105404
-0.000102949
-0.000100595
-9.83329e-05
-9.61503e-05
-9.40346e-05
-9.19715e-05
-8.99449e-05
-8.7937e-05
-8.59288e-05
-8.38995e-05
-8.18266e-05
-7.96865e-05
-7.74541e-05
-7.51028e-05
-7.26054e-05
-6.99336e-05
-6.70587e-05
-6.3952e-05
-6.05853e-05
-5.69316e-05
-5.29659e-05
-4.86666e-05
-4.40153e-05
-3.90029e-05
-3.36128e-05
-2.78788e-05
-2.17055e-05
-1.54802e-05
-8.32903e-06
-4.13893e-06
0.000462998
0.000393344
0.000313748
0.000231289
0.000153097
8.42597e-05
2.65569e-05
-2.07297e-05
-5.9107e-05
-8.99023e-05
-0.000114232
-0.00013317
-0.000147723
-0.000158722
-0.00016682
-0.000172542
-0.000176322
-0.000178521
-0.000179431
-0.000179289
-0.000178293
-0.000176604
-0.000174359
-0.000171672
-0.000168639
-0.000165339
-0.000161841
-0.000158203
-0.000154473
-0.000150694
-0.000146899
-0.000143118
-0.000139376
-0.000135693
-0.000132087
-0.00012857
-0.000125154
-0.000121847
-0.000118655
-0.000115581
-0.000112628
-0.000109795
-0.000107081
-0.000104483
-0.000101996
-9.96124e-05
-9.73257e-05
-9.5126e-05
-9.30026e-05
-9.0943e-05
-8.89332e-05
-8.6958e-05
-8.50003e-05
-8.30417e-05
-8.10623e-05
-7.90405e-05
-7.69536e-05
-7.47775e-05
-7.24869e-05
-7.00555e-05
-6.74563e-05
-6.4662e-05
-6.16453e-05
-5.83792e-05
-5.48382e-05
-5.09988e-05
-4.68407e-05
-4.23468e-05
-3.75089e-05
-3.23137e-05
-2.67912e-05
-2.08719e-05
-1.48826e-05
-8.14633e-06
-3.79095e-06
0.000430591
0.000368547
0.000298141
0.000224878
0.000154384
9.09883e-05
3.66384e-05
-8.76873e-06
-4.62075e-05
-7.66968e-05
-0.000101152
-0.000120478
-0.000135547
-0.000147115
-0.000155796
-0.00016209
-0.000166417
-0.000169129
-0.000170517
-0.000170818
-0.00017023
-0.000168918
-0.000167022
-0.000164658
-0.000161923
-0.000158901
-0.000155662
-0.000152266
-0.000148762
-0.000145193
-0.000141596
-0.000138002
-0.000134434
-0.000130916
-0.000127463
-0.000124092
-0.000120812
-0.000117632
-0.000114559
-0.000111598
-0.00010875
-0.000106015
-0.000103393
-0.000100881
-9.84739e-05
-9.6166e-05
-9.39497e-05
-9.18163e-05
-8.97554e-05
-8.7755e-05
-8.58019e-05
-8.38814e-05
-8.19772e-05
-8.00716e-05
-7.81455e-05
-7.61783e-05
-7.41483e-05
-7.20322e-05
-6.9806e-05
-6.74445e-05
-6.4922e-05
-6.22125e-05
-5.92899e-05
-5.61287e-05
-5.2705e-05
-4.89964e-05
-4.49841e-05
-4.06525e-05
-3.59938e-05
-3.0998e-05
-2.56924e-05
-2.00269e-05
-1.42802e-05
-7.91339e-06
-3.51833e-06
0.00040032
0.000344967
0.000282542
0.000217351
0.000153849
9.56871e-05
4.48164e-05
1.54604e-06
-3.46743e-05
-6.45856e-05
-8.89177e-05
-0.000108417
-0.000123828
-0.000135828
-0.000144981
-0.000151761
-0.000156567
-0.00015974
-0.000161564
-0.000162275
-0.000162071
-0.000161118
-0.000159556
-0.000157504
-0.00015506
-0.000152311
-0.000149327
-0.00014617
-0.000142891
-0.000139534
-0.000136136
-0.000132729
-0.000129338
-0.000125986
-0.00012269
-0.000119466
-0.000116325
-0.000113277
-0.000110327
-0.000107481
-0.000104742
-0.000102109
-9.95825e-05
-9.71596e-05
-9.48363e-05
-9.26069e-05
-9.04646e-05
-8.84008e-05
-8.64057e-05
-8.4468e-05
-8.2575e-05
-8.07126e-05
-7.88653e-05
-7.70162e-05
-7.5147e-05
-7.3238e-05
-7.12685e-05
-6.92163e-05
-6.70584e-05
-6.47708e-05
-6.23292e-05
-5.97087e-05
-5.68847e-05
-5.38331e-05
-5.05311e-05
-4.69581e-05
-4.30964e-05
-3.89316e-05
-3.44571e-05
-2.96652e-05
-2.45813e-05
-1.91699e-05
-1.36713e-05
-7.64229e-06
-3.29634e-06
0.000371901
0.000322459
0.000267005
0.000208929
0.000151771
9.85907e-05
5.12451e-05
1.03001e-05
-2.44702e-05
-5.35659e-05
-7.75472e-05
-9.70175e-05
-0.000112603
-0.000124896
-0.000134411
-0.000141586
-0.0001468
-0.000150376
-0.000152592
-0.000153678
-0.000153829
-0.000153213
-0.000151969
-0.000150216
-0.000148054
-0.00014557
-0.000142837
-0.000139916
-0.00013686
-0.000133714
-0.000130516
-0.000127297
-0.000124085
-0.000120901
-0.000117765
-0.000114691
-0.000111692
-0.000108778
-0.000105955
-0.000103228
-0.0001006
-9.80728e-05
-9.56452e-05
-9.33152e-05
-9.10792e-05
-8.8932e-05
-8.68671e-05
-8.48764e-05
-8.29506e-05
-8.10791e-05
-7.92497e-05
-7.7449e-05
-7.56622e-05
-7.38732e-05
-7.20645e-05
-7.02175e-05
-6.83123e-05
-6.63279e-05
-6.42424e-05
-6.2033e-05
-5.96765e-05
-5.71494e-05
-5.44285e-05
-5.1491e-05
-4.83157e-05
-4.4883e-05
-4.11766e-05
-3.71837e-05
-3.28982e-05
-2.83147e-05
-2.3457e-05
-1.83003e-05
-1.30544e-05
-7.34269e-06
-3.10565e-06
0.000345092
0.000300896
0.000251566
0.000199786
0.00014838
9.99041e-05
5.60655e-05
1.75734e-05
-1.55601e-05
-4.36343e-05
-6.70591e-05
-8.63105e-05
-0.000101906
-0.000114354
-0.000124115
-0.000131593
-0.000137137
-0.000141057
-0.000143615
-0.000145037
-0.000145514
-0.00014521
-0.000144265
-0.000142797
-0.000140906
-0.00013868
-0.000136191
-0.000133503
-0.000130668
-0.000127732
-0.000124733
-0.000121703
-0.00011867
-0.000115657
-0.000112683
-0.000109763
-0.000106909
-0.000104132
-0.000101438
-9.88337e-05
-9.63215e-05
-9.3903e-05
-9.15779e-05
-8.93445e-05
-8.71995e-05
-8.5138e-05
-8.31541e-05
-8.12401e-05
-7.93873e-05
-7.75855e-05
-7.58233e-05
-7.4088e-05
-7.23654e-05
-7.06402e-05
-6.8896e-05
-6.71148e-05
-6.52779e-05
-6.33654e-05
-6.13563e-05
-5.92293e-05
-5.69624e-05
-5.45333e-05
-5.19201e-05
-4.91016e-05
-4.60576e-05
-4.27702e-05
-3.92242e-05
-3.54079e-05
-3.13163e-05
-2.69456e-05
-2.23186e-05
-1.74177e-05
-1.24285e-05
-7.02181e-06
-2.93262e-06
0.000319686
0.000280173
0.00023626
0.000190082
0.000143902
9.98449e-05
5.94474e-05
2.34806e-05
-7.87688e-06
-3.47616e-05
-5.74529e-05
-7.63145e-05
-9.17649e-05
-0.000104235
-0.00011413
-0.000121813
-0.000127611
-0.000131808
-0.000134656
-0.000136372
-0.00013714
-0.000137122
-0.000136454
-0.000135254
-0.000133621
-0.000131643
-0.000129392
-0.000126931
-0.000124313
-0.000121585
-0.000118784
-0.000115944
-0.000113092
-0.000110251
-0.000107441
-0.000104677
-0.000101971
-9.9334e-05
-9.67735e-05
-9.4295e-05
-9.19018e-05
-8.95957e-05
-8.73769e-05
-8.52437e-05
-8.31933e-05
-8.12213e-05
-7.9322e-05
-7.74884e-05
-7.57123e-05
-7.3984e-05
-7.22928e-05
-7.06265e-05
-6.89719e-05
-6.73145e-05
-6.56386e-05
-6.39273e-05
-6.21628e-05
-6.03263e-05
-5.83981e-05
-5.63579e-05
-5.4185e-05
-5.18586e-05
-4.93579e-05
-4.66632e-05
-4.37556e-05
-4.06184e-05
-3.72378e-05
-3.36032e-05
-2.97103e-05
-2.55571e-05
-2.11649e-05
-1.65215e-05
-1.17924e-05
-6.68463e-06
-2.76777e-06
0.000295455
0.000260129
0.000221025
0.000179853
0.000138432
9.85268e-05
6.14911e-05
2.80995e-05
-1.36302e-06
-2.69079e-05
-4.8704e-05
-6.70167e-05
-8.21761e-05
-9.45396e-05
-0.000104458
-0.000112255
-0.000118226
-0.000122636
-0.000125722
-0.000127688
-0.000128713
-0.000128952
-0.000128538
-0.000127588
-0.0001262
-0.000124458
-0.000122437
-0.000120198
-0.000117794
-0.000115272
-0.000112669
-0.000110018
-0.000107348
-0.000104681
-0.000102036
-9.94304e-05
-9.68756e-05
-9.43823e-05
-9.19582e-05
-8.9609e-05
-8.73385e-05
-8.51486e-05
-8.30396e-05
-8.10104e-05
-7.90584e-05
-7.71796e-05
-7.53688e-05
-7.36195e-05
-7.19239e-05
-7.02729e-05
-6.86565e-05
-6.70632e-05
-6.54805e-05
-6.38948e-05
-6.22912e-05
-6.06539e-05
-5.8966e-05
-5.72098e-05
-5.53668e-05
-5.3418e-05
-5.13438e-05
-4.91247e-05
-4.67414e-05
-4.41754e-05
-4.14092e-05
-3.84274e-05
-3.52172e-05
-3.17693e-05
-2.80802e-05
-2.4149e-05
-1.99957e-05
-1.5612e-05
-1.1146e-05
-6.33563e-06
-2.60531e-06
0.00026061
0.000230979
0.000198346
0.000163919
0.000128999
9.49042e-05
6.27326e-05
3.32138e-05
6.72267e-06
-1.66184e-05
-3.68462e-05
-5.41032e-05
-6.86046e-05
-8.06083e-05
-9.03857e-05
-9.82019e-05
-0.000104307
-0.000108932
-0.000112286
-0.000114556
-0.000115908
-0.000116487
-0.000116419
-0.000115816
-0.000114772
-0.00011337
-0.000111681
-0.000109767
-0.000107679
-0.000105463
-0.000103156
-0.000100792
-9.83967e-05
-9.59942e-05
-9.36036e-05
-9.12406e-05
-8.89181e-05
-8.66465e-05
-8.44336e-05
-8.22854e-05
-8.02058e-05
-7.81971e-05
-7.62601e-05
-7.4394e-05
-7.25968e-05
-7.08649e-05
-6.91939e-05
-6.7578e-05
-6.60101e-05
-6.44821e-05
-6.29849e-05
-6.15081e-05
-6.00404e-05
-5.85694e-05
-5.70816e-05
-5.55627e-05
-5.39973e-05
-5.23694e-05
-5.06624e-05
-4.88589e-05
-4.69413e-05
-4.48922e-05
-4.26943e-05
-4.03308e-05
-3.77865e-05
-3.50477e-05
-3.21035e-05
-2.8946e-05
-2.55728e-05
-2.19844e-05
-1.8199e-05
-1.42124e-05
-1.01489e-05
-5.78903e-06
-2.35636e-06
0.00021676
0.00019351
0.000168018
0.00014107
0.000113519
8.62733e-05
6.01458e-05
3.5743e-05
1.3445e-05
-6.55279e-06
-2.41884e-05
-3.94967e-05
-5.25839e-05
-6.36048e-05
-7.2741e-05
-8.01838e-05
-8.6123e-05
-9.07407e-05
-9.42081e-05
-9.66822e-05
-9.83053e-05
-9.92043e-05
-9.94923e-05
-9.92687e-05
-9.86207e-05
-9.76244e-05
-9.63456e-05
-9.48417e-05
-9.31618e-05
-9.13481e-05
-8.9437e-05
-8.74592e-05
-8.5441e-05
-8.34042e-05
-8.13675e-05
-7.93459e-05
-7.73522e-05
-7.53962e-05
-7.34858e-05
-7.16269e-05
-6.98236e-05
-6.80785e-05
-6.63927e-05
-6.4766e-05
-6.31968e-05
-6.16825e-05
-6.02194e-05
-5.88025e-05
-5.74261e-05
-5.60833e-05
-5.47662e-05
-5.34659e-05
-5.21729e-05
-5.08763e-05
-4.95648e-05
-4.8226e-05
-4.68468e-05
-4.54135e-05
-4.39118e-05
-4.2327e-05
-4.06442e-05
-3.88485e-05
-3.69253e-05
-3.48607e-05
-3.26419e-05
-3.02577e-05
-2.76993e-05
-2.49606e-05
-2.20405e-05
-1.89404e-05
-1.56761e-05
-1.22452e-05
-8.74883e-06
-5.00364e-06
-2.02763e-06
0.000172056
0.000154526
0.000135397
0.000115165
9.43705e-05
7.36093e-05
5.34436e-05
3.4327e-05
1.65815e-05
4.09866e-07
-1.40811e-05
-2.68617e-05
-3.79627e-05
-4.74605e-05
-5.54619e-05
-6.20912e-05
-6.748e-05
-7.17613e-05
-7.50644e-05
-7.7512e-05
-7.92181e-05
-8.02869e-05
-8.08125e-05
-8.0879e-05
-8.05613e-05
-7.99252e-05
-7.90284e-05
-7.79212e-05
-7.66473e-05
-7.52444e-05
-7.37447e-05
-7.21761e-05
-7.0562e-05
-6.89223e-05
-6.72739e-05
-6.56306e-05
-6.40037e-05
-6.24027e-05
-6.08346e-05
-5.93051e-05
-5.78182e-05
-5.63764e-05
-5.49811e-05
-5.36324e-05
-5.23294e-05
-5.10701e-05
-4.98516e-05
-4.86702e-05
-4.7521e-05
-4.63987e-05
-4.52967e-05
-4.4208e-05
-4.31247e-05
-4.2038e-05
-4.09385e-05
-3.98163e-05
-3.86607e-05
-3.74605e-05
-3.62041e-05
-3.48796e-05
-3.3475e-05
-3.19781e-05
-3.03775e-05
-2.86619e-05
-2.68212e-05
-2.48467e-05
-2.27317e-05
-2.04719e-05
-1.80667e-05
-1.5518e-05
-1.28391e-05
-1.00278e-05
-7.16408e-06
-4.09923e-06
-1.65532e-06
0.00012623
0.000113951
0.000100601
8.64749e-05
7.18946e-05
5.72271e-05
4.28338e-05
2.9024e-05
1.6037e-05
4.04273e-06
-6.85042e-06
-1.65878e-05
-2.51599e-05
-3.25935e-05
-3.89418e-05
-4.42763e-05
-4.86791e-05
-5.22377e-05
-5.50407e-05
-5.71751e-05
-5.87237e-05
-5.97637e-05
-6.03664e-05
-6.05963e-05
-6.05116e-05
-6.0164e-05
-5.95993e-05
-5.88577e-05
-5.79741e-05
-5.69791e-05
-5.5899e-05
-5.47563e-05
-5.35703e-05
-5.23574e-05
-5.11313e-05
-4.99035e-05
-4.86835e-05
-4.74791e-05
-4.62962e-05
-4.51397e-05
-4.4013e-05
-4.29184e-05
-4.18572e-05
-4.08298e-05
-3.98358e-05
-3.88738e-05
-3.79417e-05
-3.70368e-05
-3.61557e-05
-3.52942e-05
-3.44476e-05
-3.36106e-05
-3.27772e-05
-3.1941e-05
-3.10949e-05
-3.02313e-05
-2.93423e-05
-2.84196e-05
-2.74545e-05
-2.64381e-05
-2.53614e-05
-2.42156e-05
-2.2992e-05
-2.16824e-05
-2.02795e-05
-1.87771e-05
-1.71703e-05
-1.54564e-05
-1.36353e-05
-1.17087e-05
-9.68659e-06
-7.56736e-06
-5.40974e-06
-3.1012e-06
-1.25389e-06
7.82938e-05
7.09458e-05
6.29792e-05
5.45479e-05
4.58229e-05
3.70024e-05
2.82874e-05
1.98561e-05
1.18539e-05
4.39154e-06
-2.45367e-06
-8.63492e-06
-1.41327e-05
-1.895e-05
-2.31079e-05
-2.66403e-05
-2.95902e-05
-3.20058e-05
-3.39378e-05
-3.54375e-05
-3.6555e-05
-3.73379e-05
-3.78307e-05
-3.80745e-05
-3.81065e-05
-3.79603e-05
-3.76659e-05
-3.72497e-05
-3.67349e-05
-3.61419e-05
-3.54883e-05
-3.47891e-05
-3.40575e-05
-3.33045e-05
-3.25395e-05
-3.17702e-05
-3.10032e-05
-3.02437e-05
-2.9496e-05
-2.87633e-05
-2.80482e-05
-2.73523e-05
-2.66765e-05
-2.60214e-05
-2.53867e-05
-2.47716e-05
-2.4175e-05
-2.35952e-05
-2.30301e-05
-2.24771e-05
-2.19332e-05
-2.13952e-05
-2.08592e-05
-2.03212e-05
-1.97768e-05
-1.92212e-05
-1.86494e-05
-1.80562e-05
-1.74361e-05
-1.67836e-05
-1.60931e-05
-1.5359e-05
-1.4576e-05
-1.3739e-05
-1.28434e-05
-1.18856e-05
-1.08626e-05
-9.77287e-06
-8.61654e-06
-7.39485e-06
-6.1141e-06
-4.77332e-06
-3.40905e-06
-1.95138e-06
-7.82774e-07
2.67909e-05
2.43229e-05
2.16529e-05
1.88284e-05
1.59022e-05
1.29367e-05
9.99586e-06
7.13777e-06
4.41092e-06
1.85359e-06
-5.06113e-07
-2.64989e-06
-4.56841e-06
-6.26005e-06
-7.72946e-06
-8.98606e-06
-1.00427e-05
-1.09146e-05
-1.1618e-05
-1.21698e-05
-1.25868e-05
-1.28851e-05
-1.30801e-05
-1.31858e-05
-1.32154e-05
-1.31806e-05
-1.3092e-05
-1.29589e-05