/*--------------------------------*- C++ -*----------------------------------*\
| =========                 |                                                 |
| \\      /  F ield         | OpenFOAM: The Open Source CFD Toolbox           |
|  \\    /   O peration     | Version:  2.3.0                                 |
|   \\  /    A nd           | Web:      www.OpenFOAM.org                      |
|    \\/     M anipulation  |                                                 |
\*---------------------------------------------------------------------------*/
FoamFile
{
    version     2.0;
    format      ascii;
    class       volVectorField;
    location    "0.5";
    object      U;
}
// * * * * * * * * * * * * * * * * * * * * * * * * * * * * * * * * * * * * * //

dimensions      [0 1 -1 0 0 0 0];

internalField   nonuniform List<vector> 
2945
(
(0.149691 0.00850329 0)
(0.10557 0.00731872 0)
(0.0743286 0.00404725 0)
(0.0556166 0.0013576 0)
(0.0453166 0.000142659 0)
(0.0397974 -0.000131314 0)
(0.0366051 -7.42853e-05 0)
(0.0343473 2.10498e-05 0)
(0.0324404 7.25186e-05 0)
(0.0307342 8.5121e-05 0)
(0.029214 8.03609e-05 0)
(0.0278704 7.17009e-05 0)
(0.0266805 6.383e-05 0)
(0.0256184 5.74043e-05 0)
(0.0246618 5.20924e-05 0)
(0.0237936 4.75621e-05 0)
(0.0230005 4.36085e-05 0)
(0.0222721 4.01114e-05 0)
(0.0216003 3.69952e-05 0)
(0.0209782 3.42061e-05 0)
(0.0204002 3.17007e-05 0)
(0.0198616 2.94422e-05 0)
(0.0193582 2.73996e-05 0)
(0.0188867 2.55461e-05 0)
(0.018444 2.3859e-05 0)
(0.0180274 2.23189e-05 0)
(0.0176348 2.09091e-05 0)
(0.0172642 1.9615e-05 0)
(0.0169137 1.84242e-05 0)
(0.0165817 1.73258e-05 0)
(0.016267 1.63103e-05 0)
(0.0159683 1.53695e-05 0)
(0.0156844 1.44959e-05 0)
(0.0154143 1.36832e-05 0)
(0.0151572 1.29255e-05 0)
(0.0149123 1.22178e-05 0)
(0.0146788 1.15555e-05 0)
(0.0144561 1.09345e-05 0)
(0.0142435 1.03511e-05 0)
(0.0140406 9.80199e-06 0)
(0.0138468 9.28417e-06 0)
(0.0136617 8.79496e-06 0)
(0.0134849 8.3319e-06 0)
(0.0133161 7.89281e-06 0)
(0.0131548 7.47564e-06 0)
(0.0130009 7.0786e-06 0)
(0.012854 6.70002e-06 0)
(0.012714 6.33841e-06 0)
(0.0125805 5.99241e-06 0)
(0.0124534 5.66079e-06 0)
(0.0123325 5.34244e-06 0)
(0.0122177 5.03635e-06 0)
(0.0121088 4.74162e-06 0)
(0.0120057 4.45744e-06 0)
(0.0119083 4.18309e-06 0)
(0.0118164 3.91795e-06 0)
(0.01173 3.66146e-06 0)
(0.011649 3.41318e-06 0)
(0.0115733 3.17272e-06 0)
(0.0115028 2.93981e-06 0)
(0.0114374 2.71432e-06 0)
(0.011377 2.49613e-06 0)
(0.0113216 2.28519e-06 0)
(0.011271 2.08136e-06 0)
(0.011225 1.88455e-06 0)
(0.0111836 1.69404e-06 0)
(0.0111465 1.51173e-06 0)
(0.0111137 1.33222e-06 0)
(0.0110846 1.17837e-06 0)
(0.0110598 9.86191e-07 0)
(0.011036 9.73893e-07 0)
(0.0110206 4.72206e-07 0)
(0.0109931 1.37425e-06 0)
(0.0110009 -1.87102e-06 0)
(0.0109743 3.00382e-06 0)
(0.195299 0.014137 0)
(0.188853 0.0150645 0)
(0.173407 0.0120872 0)
(0.155322 0.00804454 0)
(0.138637 0.00479606 0)
(0.124939 0.00279079 0)
(0.114261 0.00175873 0)
(0.105951 0.00128072 0)
(0.0992913 0.00104546 0)
(0.0937591 0.000896975 0)
(0.0890319 0.000780647 0)
(0.0849135 0.000683518 0)
(0.0812758 0.000602704 0)
(0.0780284 0.000535817 0)
(0.0751043 0.000480121 0)
(0.0724519 0.000433163 0)
(0.0700308 0.00039304 0)
(0.0678089 0.000358351 0)
(0.0657602 0.000328073 0)
(0.0638635 0.000301443 0)
(0.0621012 0.00027787 0)
(0.0604586 0.000256886 0)
(0.0589232 0.00023811 0)
(0.0574843 0.000221232 0)
(0.0561327 0.000205994 0)
(0.0548605 0.000192182 0)
(0.0536606 0.000179615 0)
(0.0525272 0.000168143 0)
(0.0514547 0.000157637 0)
(0.0504386 0.000147987 0)
(0.0494745 0.000139097 0)
(0.0485588 0.000130887 0)
(0.0476881 0.000123284 0)
(0.0468594 0.000116228 0)
(0.04607 0.000109663 0)
(0.0453176 0.000103541 0)
(0.0445999 9.78193e-05 0)
(0.0439149 9.24606e-05 0)
(0.0432608 8.74309e-05 0)
(0.0426362 8.26997e-05 0)
(0.0420394 7.82402e-05 0)
(0.0414692 7.40277e-05 0)
(0.0409243 7.00405e-05 0)
(0.0404038 6.62586e-05 0)
(0.0399066 6.26642e-05 0)
(0.0394319 5.92409e-05 0)
(0.0389788 5.59743e-05 0)
(0.0385467 5.2851e-05 0)
(0.0381348 4.98591e-05 0)
(0.0377428 4.69878e-05 0)
(0.03737 4.42275e-05 0)
(0.037016 4.15696e-05 0)
(0.0366803 3.90065e-05 0)
(0.0363627 3.65314e-05 0)
(0.0360628 3.41387e-05 0)
(0.0357803 3.18234e-05 0)
(0.0355149 2.95818e-05 0)
(0.0352663 2.74107e-05 0)
(0.0350344 2.53083e-05 0)
(0.0348188 2.32736e-05 0)
(0.0346193 2.13068e-05 0)
(0.0344355 1.94088e-05 0)
(0.0342673 1.75818e-05 0)
(0.0341141 1.58286e-05 0)
(0.0339756 1.41533e-05 0)
(0.0338513 1.25611e-05 0)
(0.0337405 1.10642e-05 0)
(0.0336426 9.66613e-06 0)
(0.0335561 8.42558e-06 0)
(0.0334815 7.23513e-06 0)
(0.0334123 6.56858e-06 0)
(0.0333611 4.8791e-06 0)
(0.0332891 6.82141e-06 0)
(0.0332845 -3.34442e-06 0)
(0.0332072 1.15408e-05 0)
(0.193848 0.0123069 0)
(0.199701 0.014604 0)
(0.201721 0.0138515 0)
(0.198179 0.0114183 0)
(0.190822 0.00879848 0)
(0.181945 0.00669803 0)
(0.173012 0.00520796 0)
(0.164639 0.00418103 0)
(0.156984 0.00345256 0)
(0.150035 0.00291103 0)
(0.143735 0.00249351 0)
(0.138014 0.00216433 0)
(0.132807 0.00190055 0)
(0.12805 0.00168576 0)
(0.123688 0.00150803 0)
(0.119675 0.00135874 0)
(0.115968 0.00123166 0)
(0.112532 0.00112224 0)
(0.109336 0.00102709 0)
(0.106356 0.000943664 0)
(0.103569 0.000869979 0)
(0.100956 0.000804484 0)
(0.0985003 0.00074594 0)
(0.0961882 0.000693344 0)
(0.094007 0.000645875 0)
(0.0919458 0.000602852 0)
(0.0899949 0.00056371 0)
(0.0881457 0.000527973 0)
(0.0863906 0.000495236 0)
(0.0847228 0.000465157 0)
(0.0831363 0.00043744 0)
(0.0816255 0.00041183 0)
(0.0801856 0.000388105 0)
(0.078812 0.000366073 0)
(0.0775009 0.000345564 0)
(0.0762485 0.000326429 0)
(0.0750517 0.000308535 0)
(0.0739073 0.000291765 0)
(0.0728127 0.000276014 0)
(0.0717655 0.000261189 0)
(0.0707633 0.000247205 0)
(0.0698043 0.000233986 0)
(0.0688865 0.000221465 0)
(0.0680084 0.00020958 0)
(0.0671683 0.000198274 0)
(0.066365 0.000187499 0)
(0.0655973 0.000177207 0)
(0.064864 0.000167358 0)
(0.0641643 0.000157915 0)
(0.0634971 0.000148844 0)
(0.0628618 0.000140114 0)
(0.0622576 0.0001317 0)
(0.061684 0.000123577 0)
(0.0611403 0.000115726 0)
(0.0606261 0.000108127 0)
(0.060141 0.000100767 0)
(0.0596845 9.36346e-05 0)
(0.0592563 8.67207e-05 0)
(0.0588559 8.00204e-05 0)
(0.058483 7.3532e-05 0)
(0.0581371 6.72574e-05 0)
(0.0578179 6.12019e-05 0)
(0.0575247 5.53743e-05 0)
(0.057257 4.97875e-05 0)
(0.0570141 4.44592e-05 0)
(0.0567951 3.94141e-05 0)
(0.056599 3.46888e-05 0)
(0.0564245 3.03272e-05 0)
(0.0562695 2.64176e-05 0)
(0.0561336 2.29266e-05 0)
(0.0560093 2.03472e-05 0)
(0.0559091 1.6896e-05 0)
(0.0557899 1.85124e-05 0)
(0.0557501 1.3592e-06 0)
(0.055612 2.52497e-05 0)
(0.19282 0.0105148 0)
(0.197038 0.0125715 0)
(0.201858 0.0125912 0)
(0.204633 0.0112985 0)
(0.204674 0.00966755 0)
(0.202617 0.00821589 0)
(0.199279 0.00705974 0)
(0.195212 0.00615139 0)
(0.190741 0.00541738 0)
(0.186067 0.00480429 0)
(0.181332 0.00428195 0)
(0.17663 0.00383376 0)
(0.172027 0.00344831 0)
(0.167562 0.00311595 0)
(0.163262 0.00282821 0)
(0.159137 0.00257784 0)
(0.155193 0.00235881 0)
(0.151428 0.00216611 0)
(0.147838 0.00199566 0)
(0.144416 0.0018441 0)
(0.141155 0.00170867 0)
(0.138048 0.0015871 0)
(0.135085 0.0014775 0)
(0.132259 0.0013783 0)
(0.129563 0.00128817 0)
(0.126989 0.00120599 0)
(0.124529 0.00113083 0)
(0.122178 0.00106187 0)
(0.119929 0.000998412 0)
(0.117777 0.000939868 0)
(0.115717 0.000885717 0)
(0.113743 0.000835505 0)
(0.111851 0.000788837 0)
(0.110037 0.000745365 0)
(0.108296 0.000704783 0)
(0.106626 0.000666816 0)
(0.105024 0.000631221 0)
(0.103485 0.000597783 0)
(0.102008 0.000566306 0)
(0.100589 0.000536614 0)
(0.0992269 0.000508551 0)
(0.0979188 0.000481973 0)
(0.096663 0.000456751 0)
(0.0954576 0.000432767 0)
(0.094301 0.000409916 0)
(0.0931917 0.0003881 0)
(0.0921284 0.000367231 0)
(0.0911099 0.000347229 0)
(0.0901351 0.000328023 0)
(0.0892031 0.000309547 0)
(0.0883129 0.000291741 0)
(0.0874639 0.000274555 0)
(0.0866554 0.000257942 0)
(0.0858867 0.000241861 0)
(0.0851575 0.000226278 0)
(0.084467 0.000211165 0)
(0.0838151 0.0001965 0)
(0.0832011 0.000182267 0)
(0.0826248 0.000168457 0)
(0.0820856 0.000155069 0)
(0.0815832 0.000142106 0)
(0.081117 0.000129584 0)
(0.0806863 0.000117521 0)
(0.0802906 0.000105949 0)
(0.0799288 9.49071e-05 0)
(0.0795998 8.44521e-05 0)
(0.0793024 7.46578e-05 0)
(0.0790348 6.56253e-05 0)
(0.0787946 5.74834e-05 0)
(0.0785807 5.03091e-05 0)
(0.0783853 4.45506e-05 0)
(0.0782192 3.84757e-05 0)
(0.0780401 3.83999e-05 0)
(0.0779475 1.56492e-05 0)
(0.0777304 4.47108e-05 0)
(0.193546 0.00975571 0)
(0.196201 0.0114801 0)
(0.199574 0.0115195 0)
(0.202357 0.0105154 0)
(0.204005 0.00928342 0)
(0.204636 0.00822319 0)
(0.20451 0.00739654 0)
(0.203786 0.00674613 0)
(0.202549 0.00620644 0)
(0.200868 0.00573371 0)
(0.198817 0.00530611 0)
(0.196469 0.00491505 0)
(0.19389 0.00455705 0)
(0.191142 0.00422967 0)
(0.188276 0.00393048 0)
(0.185335 0.00365706 0)
(0.182355 0.00340711 0)
(0.179364 0.00317847 0)
(0.176383 0.00296914 0)
(0.17343 0.00277727 0)
(0.170519 0.00260118 0)
(0.167659 0.00243935 0)
(0.164859 0.0022904 0)
(0.162124 0.00215308 0)
(0.159457 0.00202626 0)
(0.15686 0.00190895 0)
(0.154336 0.00180023 0)
(0.151884 0.00169931 0)
(0.149505 0.00160546 0)
(0.147198 0.00151803 0)
(0.144961 0.00143644 0)
(0.142795 0.00136018 0)
(0.140697 0.00128878 0)
(0.138666 0.00122181 0)
(0.1367 0.0011589 0)
(0.134798 0.0010997 0)
(0.132958 0.0010439 0)
(0.131179 0.000991208 0)
(0.129459 0.000941376 0)
(0.127797 0.000894164 0)
(0.126191 0.000849356 0)
(0.12464 0.000806755 0)
(0.123143 0.000766181 0)
(0.121698 0.000727467 0)
(0.120304 0.000690462 0)
(0.118961 0.000655026 0)
(0.117667 0.00062103 0)
(0.116422 0.00058836 0)
(0.115225 0.000556906 0)
(0.114075 0.000526574 0)
(0.112972 0.000497275 0)
(0.111915 0.000468931 0)
(0.110903 0.000441472 0)
(0.109938 0.000414839 0)
(0.109017 0.000388979 0)
(0.108141 0.000363851 0)
(0.10731 0.000339422 0)
(0.106522 0.000315669 0)
(0.105779 0.000292582 0)
(0.10508 0.000270159 0)
(0.104424 0.000248413 0)
(0.103811 0.000227368 0)
(0.103241 0.000207061 0)
(0.102712 0.000187547 0)
(0.102224 0.000168896 0)
(0.101776 0.000151204 0)
(0.101366 0.000134595 0)
(0.100992 0.000119233 0)
(0.100653 0.000105303 0)
(0.100346 9.29892e-05 0)
(0.100064 8.27128e-05 0)
(0.0998161 7.28941e-05 0)
(0.0995618 6.97088e-05 0)
(0.0994021 4.27089e-05 0)
(0.0990853 7.27072e-05 0)
(0.19433 0.00915907 0)
(0.196451 0.0106776 0)
(0.198963 0.0107809 0)
(0.200983 0.00995295 0)
(0.202265 0.00889327 0)
(0.203019 0.00797379 0)
(0.203486 0.00726581 0)
(0.203761 0.00672535 0)
(0.203843 0.00629473 0)
(0.203707 0.00593069 0)
(0.20334 0.00560726 0)
(0.202738 0.00531111 0)
(0.201907 0.00503566 0)
(0.200862 0.00477717 0)
(0.199621 0.0045333 0)
(0.198206 0.00430249 0)
(0.19664 0.00408373 0)
(0.194945 0.00387633 0)
(0.193141 0.00367974 0)
(0.191249 0.00349351 0)
(0.189287 0.0033172 0)
(0.18727 0.00315038 0)
(0.185214 0.00299264 0)
(0.18313 0.00284352 0)
(0.181031 0.00270259 0)
(0.178925 0.00256942 0)
(0.176822 0.00244356 0)
(0.174727 0.0023246 0)
(0.172649 0.00221211 0)
(0.17059 0.0021057 0)
(0.168557 0.00200499 0)
(0.166551 0.00190961 0)
(0.164578 0.00181922 0)
(0.162638 0.00173349 0)
(0.160734 0.0016521 0)
(0.158867 0.00157477 0)
(0.157039 0.00150121 0)
(0.155252 0.00143118 0)
(0.153504 0.00136441 0)
(0.151799 0.00130069 0)
(0.150135 0.0012398 0)
(0.148514 0.00118153 0)
(0.146935 0.00112569 0)
(0.145399 0.00107211 0)
(0.143906 0.00102062 0)
(0.142457 0.000971058 0)
(0.14105 0.000923287 0)
(0.139687 0.000877169 0)
(0.138368 0.000832582 0)
(0.137093 0.00078941 0)
(0.135861 0.000747551 0)
(0.134674 0.00070691 0)
(0.133531 0.000667404 0)
(0.132432 0.000628961 0)
(0.131378 0.000591519 0)
(0.130369 0.00055503 0)
(0.129404 0.000519456 0)
(0.128485 0.000484773 0)
(0.127612 0.000450973 0)
(0.126783 0.000418062 0)
(0.126 0.000386064 0)
(0.125263 0.000355019 0)
(0.12457 0.000324989 0)
(0.123922 0.000296058 0)
(0.123318 0.000268333 0)
(0.122757 0.000241959 0)
(0.122238 0.000217112 0)
(0.121759 0.000194027 0)
(0.121317 0.000172952 0)
(0.120913 0.000154171 0)
(0.120538 0.000138094 0)
(0.1202 0.0001234 0)
(0.119861 0.000115638 0)
(0.119626 8.57553e-05 0)
(0.119195 0.000111985 0)
(0.194967 0.00858737 0)
(0.196763 0.00992109 0)
(0.198889 0.0101209 0)
(0.200586 0.00950033 0)
(0.201614 0.00861368 0)
(0.202166 0.00779677 0)
(0.202501 0.00714008 0)
(0.202757 0.00662689 0)
(0.202971 0.00621984 0)
(0.203139 0.00588604 0)
(0.203247 0.00560177 0)
(0.203277 0.0053518 0)
(0.203214 0.00512665 0)
(0.203045 0.00491993 0)
(0.20276 0.00472709 0)
(0.202356 0.00454494 0)
(0.201831 0.00437129 0)
(0.201188 0.00420468 0)
(0.200429 0.00404416 0)
(0.199562 0.00388912 0)
(0.198592 0.00373917 0)
(0.19753 0.0035941 0)
(0.196382 0.00345376 0)
(0.195158 0.00331804 0)
(0.193866 0.0031869 0)
(0.192515 0.00306025 0)
(0.191114 0.00293803 0)
(0.189669 0.00282018 0)
(0.188189 0.00270659 0)
(0.186679 0.00259718 0)
(0.185148 0.00249183 0)
(0.183599 0.00239042 0)
(0.182039 0.00229282 0)
(0.180473 0.0021989 0)
(0.178904 0.00210851 0)
(0.177338 0.0020215 0)
(0.175777 0.00193772 0)
(0.174225 0.00185703 0)
(0.172685 0.00177927 0)
(0.17116 0.00170428 0)
(0.169651 0.00163192 0)
(0.168163 0.00156204 0)
(0.166695 0.00149449 0)
(0.165251 0.00142913 0)
(0.163832 0.00136584 0)
(0.16244 0.00130447 0)
(0.161075 0.0012449 0)
(0.15974 0.00118702 0)
(0.158436 0.0011307 0)
(0.157163 0.00107585 0)
(0.155924 0.00102237 0)
(0.154719 0.000970177 0)
(0.153549 0.000919183 0)
(0.152415 0.000869326 0)
(0.151319 0.000820549 0)
(0.150261 0.000772809 0)
(0.149242 0.000726078 0)
(0.148262 0.000680343 0)
(0.147323 0.000635606 0)
(0.146426 0.000591891 0)
(0.14557 0.000549241 0)
(0.144756 0.000507724 0)
(0.143984 0.000467429 0)
(0.143255 0.000428477 0)
(0.142568 0.000391022 0)
(0.141923 0.000355258 0)
(0.141319 0.000321423 0)
(0.140754 0.000289821 0)
(0.140228 0.000260767 0)
(0.139738 0.000234644 0)
(0.13928 0.00021184 0)
(0.13886 0.000191443 0)
(0.138441 0.000177827 0)
(0.138133 0.000146675 0)
(0.137589 0.000164278 0)
(0.195515 0.00808894 0)
(0.197031 0.00925705 0)
(0.198859 0.00952412 0)
(0.200382 0.00908182 0)
(0.201348 0.00836012 0)
(0.201868 0.00765182 0)
(0.202149 0.00705353 0)
(0.202329 0.00656629 0)
(0.202464 0.0061688 0)
(0.202576 0.00583944 0)
(0.202675 0.00556043 0)
(0.202762 0.00531898 0)
(0.202832 0.0051064 0)
(0.202878 0.00491634 0)
(0.202891 0.00474387 0)
(0.202863 0.00458507 0)
(0.202786 0.00443694 0)
(0.202653 0.00429718 0)
(0.202459 0.00416403 0)
(0.2022 0.00403619 0)
(0.201873 0.0039127 0)
(0.201476 0.00379286 0)
(0.201009 0.00367618 0)
(0.200473 0.0035623 0)
(0.19987 0.003451 0)
(0.199202 0.00334212 0)
(0.198472 0.00323558 0)
(0.197684 0.0031313 0)
(0.196841 0.00302927 0)
(0.195947 0.00292946 0)
(0.195007 0.00283188 0)
(0.194025 0.0027365 0)
(0.193004 0.00264333 0)
(0.19195 0.00255234 0)
(0.190866 0.00246351 0)
(0.189756 0.00237682 0)
(0.188624 0.00229223 0)
(0.187473 0.00220969 0)
(0.186308 0.00212914 0)
(0.185132 0.00205054 0)
(0.183948 0.00197382 0)
(0.182759 0.0018989 0)
(0.181567 0.00182572 0)
(0.180377 0.00175419 0)
(0.179189 0.00168424 0)
(0.178008 0.00161579 0)
(0.176835 0.00154876 0)
(0.175673 0.00148307 0)
(0.174523 0.00141865 0)
(0.173389 0.00135541 0)
(0.172271 0.00129331 0)
(0.171173 0.00123227 0)
(0.170095 0.00117224 0)
(0.16904 0.00111318 0)
(0.168009 0.00105506 0)
(0.167004 0.000997852 0)
(0.166026 0.000941551 0)
(0.165077 0.000886168 0)
(0.164159 0.000831731 0)
(0.163272 0.000778291 0)
(0.162418 0.000725921 0)
(0.161597 0.000674722 0)
(0.160811 0.000624823 0)
(0.160061 0.000576389 0)
(0.159345 0.000529622 0)
(0.158666 0.000484774 0)
(0.158022 0.000442144 0)
(0.157412 0.000402106 0)
(0.156837 0.000365042 0)
(0.156295 0.000331431 0)
(0.155782 0.000301623 0)
(0.155306 0.000275275 0)
(0.154829 0.00025505 0)
(0.154466 0.00022445 0)
(0.153834 0.000229303 0)
(0.195997 0.00765945 0)
(0.197281 0.00868019 0)
(0.198843 0.0089841 0)
(0.200204 0.00868134 0)
(0.201128 0.00810244 0)
(0.201667 0.00749837 0)
(0.201975 0.00696519 0)
(0.202163 0.00651448 0)
(0.202285 0.00613547 0)
(0.202366 0.00581469 0)
(0.202425 0.00553948 0)
(0.202471 0.00529979 0)
(0.202511 0.00508846 0)
(0.202546 0.00490024 0)
(0.202577 0.00473091 0)
(0.202601 0.004577 0)
(0.202615 0.0044357 0)
(0.202616 0.00430472 0)
(0.202599 0.00418218 0)
(0.20256 0.00406656 0)
(0.202495 0.00395661 0)
(0.2024 0.00385132 0)
(0.202271 0.00374989 0)
(0.202106 0.00365166 0)
(0.201902 0.0035561 0)
(0.201656 0.00346282 0)
(0.201368 0.0033715 0)
(0.201037 0.00328189 0)
(0.200663 0.00319381 0)
(0.200245 0.00310712 0)
(0.199784 0.00302172 0)
(0.199281 0.00293754 0)
(0.198738 0.00285453 0)
(0.198156 0.00277266 0)
(0.197537 0.00269189 0)
(0.196883 0.0026122 0)
(0.196196 0.00253358 0)
(0.195478 0.00245601 0)
(0.194732 0.00237947 0)
(0.19396 0.00230394 0)
(0.193164 0.00222939 0)
(0.192347 0.00215581 0)
(0.191512 0.00208315 0)
(0.190661 0.00201139 0)
(0.189796 0.0019405 0)
(0.188921 0.00187043 0)
(0.188036 0.00180114 0)
(0.187146 0.00173261 0)
(0.186252 0.00166478 0)
(0.185356 0.00159763 0)
(0.184461 0.00153111 0)
(0.183569 0.00146521 0)
(0.182682 0.0013999 0)
(0.181802 0.00133516 0)
(0.180932 0.001271 0)
(0.180074 0.00120742 0)
(0.179228 0.00114444 0)
(0.178399 0.00108211 0)
(0.177586 0.00102049 0)
(0.176792 0.000959665 0)
(0.176018 0.000899739 0)
(0.175267 0.000840855 0)
(0.174539 0.000783185 0)
(0.173834 0.000726942 0)
(0.173156 0.000672379 0)
(0.172503 0.000619806 0)
(0.171876 0.000569585 0)
(0.171277 0.000522153 0)
(0.170703 0.000477957 0)
(0.170156 0.000437571 0)
(0.169631 0.000401285 0)
(0.169138 0.000369457 0)
(0.16864 0.000342652 0)
(0.168254 0.000314334 0)
(0.167579 0.000304035 0)
(0.19642 0.00728261 0)
(0.197515 0.00817238 0)
(0.198851 0.00849264 0)
(0.200058 0.00829985 0)
(0.200927 0.00784313 0)
(0.201474 0.00733354 0)
(0.20181 0.00686357 0)
(0.202027 0.00645244 0)
(0.202169 0.00609722 0)
(0.202262 0.00579061 0)
(0.202321 0.00552403 0)
(0.202359 0.00528958 0)
(0.202383 0.00508125 0)
(0.202399 0.00489457 0)
(0.202409 0.00472599 0)
(0.202415 0.00457256 0)
(0.20242 0.00443187 0)
(0.202422 0.00430196 0)
(0.202422 0.00418118 0)
(0.202418 0.00406818 0)
(0.20241 0.0039618 0)
(0.202394 0.00386107 0)
(0.202368 0.00376516 0)
(0.202332 0.00367335 0)
(0.202281 0.00358504 0)
(0.202214 0.00349971 0)
(0.202129 0.00341691 0)
(0.202023 0.00333628 0)
(0.201895 0.00325749 0)
(0.201743 0.00318027 0)
(0.201566 0.00310441 0)
(0.201362 0.00302971 0)
(0.20113 0.00295602 0)
(0.200871 0.00288321 0)
(0.200584 0.00281116 0)
(0.200268 0.0027398 0)
(0.199924 0.00266903 0)
(0.199552 0.00259881 0)
(0.199153 0.00252906 0)
(0.198727 0.00245974 0)
(0.198276 0.00239081 0)
(0.1978 0.00232223 0)
(0.197301 0.00225396 0)
(0.19678 0.00218595 0)
(0.196239 0.00211819 0)
(0.195678 0.00205064 0)
(0.1951 0.00198326 0)
(0.194506 0.00191604 0)
(0.193898 0.00184894 0)
(0.193278 0.00178194 0)
(0.192648 0.00171504 0)
(0.192009 0.00164821 0)
(0.191363 0.00158146 0)
(0.190713 0.00151479 0)
(0.190059 0.00144823 0)
(0.189405 0.0013818 0)
(0.188752 0.00131555 0)
(0.188101 0.00124955 0)
(0.187455 0.0011839 0)
(0.186816 0.0011187 0)
(0.186184 0.00105409 0)
(0.185563 0.000990268 0)
(0.184952 0.000927429 0)
(0.184354 0.000865833 0)
(0.18377 0.000805783 0)
(0.1832 0.000747639 0)
(0.182647 0.000691818 0)
(0.182109 0.000638817 0)
(0.181589 0.000589133 0)
(0.181085 0.000543433 0)
(0.180597 0.000501936 0)
(0.180131 0.00046575 0)
(0.179656 0.000433235 0)
(0.179284 0.000408429 0)
(0.178625 0.000382943 0)
(0.196791 0.00694815 0)
(0.197733 0.00772418 0)
(0.198879 0.00804775 0)
(0.199946 0.00794118 0)
(0.200755 0.00758808 0)
(0.201296 0.00716261 0)
(0.201649 0.00675159 0)
(0.201886 0.00637967 0)
(0.202049 0.00604986 0)
(0.20216 0.00575976 0)
(0.202233 0.00550428 0)
(0.202281 0.00527755 0)
(0.20231 0.00507457 0)
(0.202326 0.00489153 0)
(0.202333 0.00472532 0)
(0.202333 0.00457335 0)
(0.202328 0.00443349 0)
(0.202321 0.00430398 0)
(0.202311 0.0041834 0)
(0.202301 0.00407056 0)
(0.202289 0.00396446 0)
(0.202277 0.00386423 0)
(0.202263 0.00376916 0)
(0.202248 0.00367862 0)
(0.20223 0.00359205 0)
(0.202209 0.00350897 0)
(0.202183 0.00342895 0)
(0.202152 0.00335162 0)
(0.202113 0.00327663 0)
(0.202066 0.00320367 0)
(0.202009 0.00313249 0)
(0.201941 0.00306284 0)
(0.201861 0.00299451 0)
(0.201767 0.0029273 0)
(0.201658 0.00286103 0)
(0.201533 0.00279556 0)
(0.201392 0.00273074 0)
(0.201233 0.00266646 0)
(0.201057 0.00260258 0)
(0.200862 0.00253902 0)
(0.200648 0.00247568 0)
(0.200416 0.00241248 0)
(0.200165 0.00234933 0)
(0.199895 0.00228616 0)
(0.199607 0.00222292 0)
(0.1993 0.00215954 0)
(0.198976 0.00209597 0)
(0.198636 0.00203217 0)
(0.198279 0.00196809 0)
(0.197907 0.0019037 0)
(0.197521 0.00183898 0)
(0.197121 0.00177391 0)
(0.196709 0.00170849 0)
(0.196287 0.00164273 0)
(0.195854 0.00157664 0)
(0.195414 0.00151026 0)
(0.194966 0.00144366 0)
(0.194512 0.00137692 0)
(0.194055 0.00131012 0)
(0.193595 0.00124342 0)
(0.193133 0.00117697 0)
(0.192671 0.00111097 0)
(0.19221 0.00104567 0)
(0.191753 0.000981343 0)
(0.191298 0.000918341 0)
(0.190849 0.000857057 0)
(0.190406 0.000797951 0)
(0.189969 0.000741561 0)
(0.18954 0.000688425 0)
(0.189119 0.000639285 0)
(0.188705 0.000594291 0)
(0.188305 0.000555248 0)
(0.187891 0.000518554 0)
(0.187564 0.000497654 0)
(0.186977 0.000459303 0)
(0.19712 0.0066491 0)
(0.197935 0.00732784 0)
(0.198922 0.00764601 0)
(0.199864 0.0076056 0)
(0.200611 0.00733933 0)
(0.201138 0.00698836 0)
(0.201499 0.0066321 0)
(0.20175 0.00629846 0)
(0.201928 0.00599479 0)
(0.202053 0.00572237 0)
(0.202139 0.00547914 0)
(0.202198 0.00526119 0)
(0.202237 0.00506464 0)
(0.20226 0.00488631 0)
(0.202273 0.00472356 0)
(0.202276 0.00457412 0)
(0.202273 0.00443607 0)
(0.202265 0.00430781 0)
(0.202253 0.00418805 0)
(0.202239 0.00407568 0)
(0.202223 0.0039698 0)
(0.202206 0.00386963 0)
(0.202188 0.00377454 0)
(0.20217 0.00368395 0)
(0.202152 0.00359738 0)
(0.202133 0.00351442 0)
(0.202115 0.00343468 0)
(0.202096 0.00335783 0)
(0.202076 0.00328357 0)
(0.202055 0.00321162 0)
(0.202032 0.00314173 0)
(0.202006 0.00307368 0)
(0.201977 0.00300724 0)
(0.201944 0.00294221 0)
(0.201906 0.00287842 0)
(0.201862 0.00281569 0)
(0.201812 0.00275385 0)
(0.201754 0.00269275 0)
(0.201688 0.00263225 0)
(0.201613 0.00257221 0)
(0.201528 0.0025125 0)
(0.201432 0.00245301 0)
(0.201326 0.00239361 0)
(0.201209 0.00233421 0)
(0.201079 0.00227471 0)
(0.200938 0.00221501 0)
(0.200784 0.00215502 0)
(0.200618 0.00209468 0)
(0.200439 0.00203392 0)
(0.200247 0.00197267 0)
(0.200043 0.0019109 0)
(0.199828 0.00184855 0)
(0.1996 0.00178562 0)
(0.199361 0.00172208 0)
(0.199111 0.00165796 0)
(0.198851 0.00159327 0)
(0.198581 0.00152807 0)
(0.198302 0.00146244 0)
(0.198015 0.00139646 0)
(0.197721 0.00133029 0)
(0.19742 0.00126407 0)
(0.197114 0.00119804 0)
(0.196803 0.00113243 0)
(0.196488 0.00106755 0)
(0.19617 0.00100375 0)
(0.19585 0.000941466 0)
(0.195529 0.000881163 0)
(0.195208 0.000823412 0)
(0.194886 0.000768769 0)
(0.194566 0.00071803 0)
(0.194246 0.000671289 0)
(0.193933 0.000630896 0)
(0.193603 0.000591829 0)
(0.193342 0.000574314 0)
(0.192863 0.000527084 0)
(0.197411 0.00637985 0)
(0.19812 0.00697588 0)
(0.198973 0.00728299 0)
(0.199805 0.00729234 0)
(0.200492 0.00709811 0)
(0.200999 0.00681274 0)
(0.201361 0.00650707 0)
(0.201621 0.00621044 0)
(0.20181 0.00593317 0)
(0.201947 0.0056793 0)
(0.202043 0.0054492 0)
(0.202112 0.00524079 0)
(0.202158 0.0050513 0)
(0.202189 0.00487825 0)
(0.202208 0.00471949 0)
(0.202217 0.00457309 0)
(0.202218 0.00443736 0)
(0.202214 0.00431087 0)
(0.202205 0.00419242 0)
(0.202192 0.00408102 0)
(0.202177 0.0039758 0)
(0.202159 0.00387606 0)
(0.202141 0.00378119 0)
(0.202121 0.00369067 0)
(0.202101 0.00360406 0)
(0.20208 0.00352096 0)
(0.20206 0.00344104 0)
(0.20204 0.00336399 0)
(0.202021 0.00328955 0)
(0.202001 0.00321748 0)
(0.201983 0.00314755 0)
(0.201964 0.00307955 0)
(0.201946 0.0030133 0)
(0.201927 0.00294862 0)
(0.201908 0.00288533 0)
(0.201888 0.00282327 0)
(0.201867 0.00276229 0)
(0.201844 0.00270223 0)
(0.201818 0.00264295 0)
(0.20179 0.00258432 0)
(0.201759 0.00252618 0)
(0.201724 0.00246843 0)
(0.201685 0.00241092 0)
(0.20164 0.00235354 0)
(0.20159 0.00229616 0)
(0.201534 0.00223869 0)
(0.201472 0.00218101 0)
(0.201403 0.00212303 0)
(0.201327 0.00206466 0)
(0.201243 0.00200582 0)
(0.201151 0.00194644 0)
(0.201051 0.00188645 0)
(0.200942 0.00182583 0)
(0.200826 0.00176453 0)
(0.2007 0.00170256 0)
(0.200567 0.00163991 0)
(0.200425 0.00157663 0)
(0.200274 0.00151277 0)
(0.200116 0.00144843 0)
(0.199949 0.00138372 0)
(0.199775 0.00131882 0)
(0.199594 0.00125391 0)
(0.199406 0.00118926 0)
(0.199212 0.00112516 0)
(0.199011 0.00106198 0)
(0.198805 0.00100013 0)
(0.198594 0.000940104 0)
(0.198379 0.000882469 0)
(0.198159 0.000827787 0)
(0.197937 0.000776877 0)
(0.19771 0.000729806 0)
(0.197485 0.000689244 0)
(0.197243 0.000649463 0)
(0.197052 0.000634123 0)
(0.196692 0.000582529 0)
(0.197671 0.00613595 0)
(0.198291 0.00666185 0)
(0.199032 0.00695469 0)
(0.199767 0.00700075 0)
(0.200394 0.00686574 0)
(0.200878 0.00663767 0)
(0.201235 0.00637829 0)
(0.2015 0.00611692 0)
(0.201697 0.00586586 0)
(0.201843 0.00563107 0)
(0.201948 0.00541483 0)
(0.202024 0.00521664 0)
(0.202079 0.00503482 0)
(0.202116 0.00486757 0)
(0.20214 0.00471322 0)
(0.202154 0.0045702 0)
(0.202159 0.00443709 0)
(0.202159 0.00431263 0)
(0.202153 0.00419575 0)
(0.202144 0.00408555 0)
(0.202131 0.00398125 0)
(0.202115 0.00388218 0)
(0.202098 0.00378778 0)
(0.20208 0.00369756 0)
(0.20206 0.0036111 0)
(0.20204 0.00352804 0)
(0.20202 0.00344805 0)
(0.201999 0.00337086 0)
(0.201979 0.00329621 0)
(0.201959 0.00322389 0)
(0.201939 0.00315368 0)
(0.201921 0.0030854 0)
(0.201903 0.00301887 0)
(0.201885 0.00295393 0)
(0.201869 0.00289043 0)
(0.201853 0.00282822 0)
(0.201837 0.00276715 0)
(0.201822 0.0027071 0)
(0.201807 0.00264792 0)
(0.201792 0.00258949 0)
(0.201777 0.00253167 0)
(0.201762 0.00247435 0)
(0.201746 0.00241739 0)
(0.201728 0.00236068 0)
(0.201709 0.0023041 0)
(0.201688 0.00224753 0)
(0.201665 0.00219088 0)
(0.20164 0.00213403 0)
(0.201611 0.00207688 0)
(0.201579 0.00201936 0)
(0.201543 0.00196137 0)
(0.201503 0.00190286 0)
(0.201458 0.00184375 0)
(0.201409 0.00178402 0)
(0.201354 0.00172364 0)
(0.201294 0.0016626 0)
(0.201229 0.00160094 0)
(0.201157 0.00153868 0)
(0.20108 0.00147592 0)
(0.200996 0.00141276 0)
(0.200906 0.00134936 0)
(0.20081 0.00128589 0)
(0.200707 0.00122262 0)
(0.200598 0.00115982 0)
(0.200483 0.00109785 0)
(0.200362 0.00103713 0)
(0.200234 0.000978122 0)
(0.200101 0.000921401 0)
(0.199962 0.000867515 0)
(0.199819 0.000817282 0)
(0.199669 0.00077077 0)
(0.199519 0.000730735 0)
(0.199353 0.000691444 0)
(0.199223 0.000676805 0)
(0.198971 0.000624773 0)
(0.197903 0.0059139 0)
(0.198448 0.00638035 0)
(0.199094 0.00665744 0)
(0.199743 0.00673003 0)
(0.200315 0.00664316 0)
(0.200772 0.00646468 0)
(0.201121 0.00624726 0)
(0.201387 0.00601912 0)
(0.201589 0.00579368 0)
(0.201741 0.00557818 0)
(0.201854 0.00537632 0)
(0.201937 0.00518893 0)
(0.201998 0.00501532 0)
(0.202041 0.00485435 0)
(0.20207 0.00470482 0)
(0.202089 0.00456553 0)
(0.202098 0.00443532 0)
(0.202101 0.00431312 0)
(0.202099 0.00419801 0)
(0.202092 0.00408917 0)
(0.202082 0.00398593 0)
(0.202069 0.00388766 0)
(0.202054 0.00379386 0)
(0.202037 0.00370406 0)
(0.202019 0.00361788 0)
(0.202 0.00353497 0)
(0.201981 0.00345504 0)
(0.201961 0.00337782 0)
(0.201941 0.00330306 0)
(0.201922 0.00323057 0)
(0.201903 0.00316013 0)
(0.201884 0.00309159 0)
(0.201866 0.00302477 0)
(0.201848 0.00295952 0)
(0.201831 0.00289569 0)
(0.201815 0.00283315 0)
(0.2018 0.00277177 0)
(0.201786 0.00271142 0)
(0.201773 0.00265197 0)
(0.20176 0.0025933 0)
(0.201748 0.00253529 0)
(0.201737 0.00247782 0)
(0.201726 0.00242079 0)
(0.201716 0.00236407 0)
(0.201706 0.00230755 0)
(0.201696 0.00225113 0)
(0.201686 0.00219471 0)
(0.201675 0.00213817 0)
(0.201664 0.00208142 0)
(0.201651 0.00202439 0)
(0.201638 0.00196698 0)
(0.201623 0.00190913 0)
(0.201606 0.00185077 0)
(0.201587 0.00179187 0)
(0.201565 0.00173239 0)
(0.201541 0.00167234 0)
(0.201514 0.00161171 0)
(0.201483 0.00155056 0)
(0.201448 0.00148894 0)
(0.201409 0.00142698 0)
(0.201366 0.00136479 0)
(0.201319 0.00130258 0)
(0.201266 0.00124056 0)
(0.201209 0.00117903 0)
(0.201146 0.00111832 0)
(0.201078 0.00105883 0)
(0.201005 0.00100103 0)
(0.200926 0.000945459 0)
(0.200842 0.00089266 0)
(0.200753 0.000843425 0)
(0.200658 0.000797858 0)
(0.200561 0.000758596 0)
(0.200451 0.000720441 0)
(0.200367 0.000705215 0)
(0.200198 0.000655376 0)
(0.198112 0.00571092 0)
(0.198593 0.00612692 0)
(0.199158 0.00638788 0)
(0.199733 0.00647912 0)
(0.200251 0.00643099 0)
(0.20068 0.00629505 0)
(0.201018 0.00611535 0)
(0.201281 0.00591821 0)
(0.201486 0.00571748 0)
(0.201643 0.00552119 0)
(0.201761 0.00533401 0)
(0.201851 0.00515785 0)
(0.201917 0.00499289 0)
(0.201965 0.00483863 0)
(0.201999 0.00469432 0)
(0.202022 0.0045591 0)
(0.202035 0.00443207 0)
(0.202041 0.00431237 0)
(0.202042 0.00419921 0)
(0.202038 0.00409192 0)
(0.20203 0.00398986 0)
(0.202019 0.00389251 0)
(0.202006 0.00379939 0)
(0.201991 0.0037101 0)
(0.201975 0.00362427 0)
(0.201957 0.00354158 0)
(0.201939 0.00346177 0)
(0.201921 0.00338457 0)
(0.201903 0.00330977 0)
(0.201884 0.00323716 0)
(0.201866 0.00316657 0)
(0.201847 0.00309782 0)
(0.20183 0.00303075 0)
(0.201813 0.00296523 0)
(0.201796 0.00290111 0)
(0.201781 0.00283826 0)
(0.201766 0.00277656 0)
(0.201751 0.00271587 0)
(0.201738 0.0026561 0)
(0.201726 0.00259711 0)
(0.201714 0.00253879 0)
(0.201703 0.00248103 0)
(0.201694 0.00242373 0)
(0.201684 0.00236677 0)
(0.201676 0.00231006 0)
(0.201668 0.00225348 0)
(0.201661 0.00219693 0)
(0.201654 0.00214033 0)
(0.201648 0.00208359 0)
(0.201641 0.00202661 0)
(0.201634 0.00196932 0)
(0.201628 0.00191166 0)
(0.20162 0.00185357 0)
(0.201612 0.00179501 0)
(0.201603 0.00173594 0)
(0.201593 0.00167638 0)
(0.201581 0.00161631 0)
(0.201567 0.0015558 0)
(0.201551 0.0014949 0)
(0.201533 0.00143372 0)
(0.201512 0.00137238 0)
(0.201487 0.00131108 0)
(0.20146 0.00125003 0)
(0.201429 0.00118951 0)
(0.201394 0.00112984 0)
(0.201355 0.00107143 0)
(0.201311 0.00101471 0)
(0.201264 0.000960209 0)
(0.201211 0.00090846 0)
(0.201155 0.000860215 0)
(0.201093 0.000815636 0)
(0.20103 0.000777107 0)