/*--------------------------------*- C++ -*----------------------------------*\
| =========                 |                                                 |
| \\      /  F ield         | OpenFOAM: The Open Source CFD Toolbox           |
|  \\    /   O peration     | Version:  2.3.0                                 |
|   \\  /    A nd           | Web:      www.OpenFOAM.org                      |
|    \\/     M anipulation  |                                                 |
\*---------------------------------------------------------------------------*/
FoamFile
{
    version     2.0;
    format      ascii;
    class       volVectorField;
    location    "0.5";
    object      U_0;
}
// * * * * * * * * * * * * * * * * * * * * * * * * * * * * * * * * * * * * * //

dimensions      [0 1 -1 0 0 0 0];

internalField   nonuniform List<vector> 
2945
(
(0.149691 0.00850329 0)
(0.10557 0.00731872 0)
(0.0743287 0.00404725 0)
(0.0556167 0.0013576 0)
(0.0453166 0.000142659 0)
(0.0397975 -0.000131315 0)
(0.0366052 -7.42867e-05 0)
(0.0343474 2.10485e-05 0)
(0.0324405 7.25174e-05 0)
(0.0307343 8.51199e-05 0)
(0.0292141 8.03598e-05 0)
(0.0278705 7.16998e-05 0)
(0.0266807 6.38289e-05 0)
(0.0256185 5.74031e-05 0)
(0.024662 5.20911e-05 0)
(0.0237938 4.75608e-05 0)
(0.0230007 4.36071e-05 0)
(0.0222724 4.01099e-05 0)
(0.0216006 3.69936e-05 0)
(0.0209785 3.42044e-05 0)
(0.0204005 3.16988e-05 0)
(0.0198619 2.94403e-05 0)
(0.0193586 2.73975e-05 0)
(0.0188871 2.55439e-05 0)
(0.0184444 2.38567e-05 0)
(0.0180279 2.23164e-05 0)
(0.0176354 2.09064e-05 0)
(0.0172647 1.96121e-05 0)
(0.0169143 1.84212e-05 0)
(0.0165824 1.73226e-05 0)
(0.0162677 1.63069e-05 0)
(0.015969 1.53659e-05 0)
(0.0156852 1.44921e-05 0)
(0.0154152 1.36792e-05 0)
(0.0151582 1.29213e-05 0)
(0.0149134 1.22134e-05 0)
(0.0146799 1.15508e-05 0)
(0.0144573 1.09295e-05 0)
(0.0142448 1.03459e-05 0)
(0.014042 9.79646e-06 0)
(0.0138483 9.27834e-06 0)
(0.0136634 8.78882e-06 0)
(0.0134867 8.32545e-06 0)
(0.013318 7.88602e-06 0)
(0.0131569 7.46852e-06 0)
(0.0130031 7.07112e-06 0)
(0.0128564 6.69218e-06 0)
(0.0127165 6.33019e-06 0)
(0.0125832 5.9838e-06 0)
(0.0124563 5.65179e-06 0)
(0.0123356 5.33303e-06 0)
(0.012221 5.02651e-06 0)
(0.0121124 4.73134e-06 0)
(0.0120095 4.44671e-06 0)
(0.0119123 4.17191e-06 0)
(0.0118208 3.90628e-06 0)
(0.0117347 3.64931e-06 0)
(0.0116539 3.40052e-06 0)
(0.0115785 3.15954e-06 0)
(0.0115084 2.9261e-06 0)
(0.0114433 2.70006e-06 0)
(0.0113833 2.48131e-06 0)
(0.0113282 2.26977e-06 0)
(0.011278 2.06528e-06 0)
(0.0112324 1.86773e-06 0)
(0.0111914 1.67639e-06 0)
(0.0111548 1.49317e-06 0)
(0.0111224 1.31283e-06 0)
(0.0110937 1.15826e-06 0)
(0.0110693 9.66065e-07 0)
(0.011046 9.53546e-07 0)
(0.0110309 4.54995e-07 0)
(0.0110038 1.35391e-06 0)
(0.0110117 -1.87207e-06 0)
(0.0109855 2.9806e-06 0)
(0.195299 0.014137 0)
(0.188853 0.0150645 0)
(0.173407 0.0120872 0)
(0.155322 0.00804453 0)
(0.138638 0.00479606 0)
(0.124939 0.00279079 0)
(0.114262 0.00175873 0)
(0.105952 0.00128071 0)
(0.0992916 0.00104546 0)
(0.0937594 0.000896969 0)
(0.0890322 0.00078064 0)
(0.0849138 0.000683511 0)
(0.0812761 0.000602696 0)
(0.0780288 0.000535809 0)
(0.0751048 0.000480112 0)
(0.0724524 0.000433154 0)
(0.0700314 0.00039303 0)
(0.0678095 0.00035834 0)
(0.0657608 0.000328062 0)
(0.0638642 0.000301431 0)
(0.062102 0.000277857 0)
(0.0604595 0.000256872 0)
(0.0589241 0.000238095 0)
(0.0574853 0.000221216 0)
(0.0561338 0.000205977 0)
(0.0548617 0.000192163 0)
(0.0536619 0.000179595 0)
(0.0525286 0.000168122 0)
(0.0514563 0.000157615 0)
(0.0504403 0.000147962 0)
(0.0494763 0.000139071 0)
(0.0485608 0.000130859 0)
(0.0476903 0.000123255 0)
(0.0468618 0.000116197 0)
(0.0460726 0.000109629 0)
(0.0453204 0.000103505 0)
(0.0446029 9.77818e-05 0)
(0.0439182 9.24208e-05 0)
(0.0432644 8.73885e-05 0)
(0.04264 8.26548e-05 0)
(0.0420436 7.81926e-05 0)
(0.0414737 7.39773e-05 0)
(0.0409292 6.99872e-05 0)
(0.0404091 6.62022e-05 0)
(0.0399123 6.26046e-05 0)
(0.039438 5.91781e-05 0)
(0.0389854 5.5908e-05 0)
(0.0385538 5.27812e-05 0)
(0.0381426 4.97856e-05 0)
(0.0377511 4.69106e-05 0)
(0.0373789 4.41465e-05 0)
(0.0370256 4.14847e-05 0)
(0.0366906 3.89176e-05 0)
(0.0363738 3.64384e-05 0)
(0.0360746 3.40416e-05 0)
(0.0357929 3.17223e-05 0)
(0.0355284 2.94765e-05 0)
(0.0352808 2.73014e-05 0)
(0.0350498 2.5195e-05 0)
(0.0348352 2.31565e-05 0)
(0.0346367 2.1186e-05 0)
(0.0344541 1.92846e-05 0)
(0.0342869 1.74543e-05 0)
(0.0341349 1.56982e-05 0)
(0.0339976 1.40203e-05 0)
(0.0338744 1.2426e-05 0)
(0.0337649 1.09278e-05 0)
(0.0336682 9.53003e-06 0)
(0.0335829 8.2919e-06 0)
(0.0335095 7.10745e-06 0)
(0.0334413 6.4486e-06 0)
(0.033391 4.77641e-06 0)
(0.03332 6.72073e-06 0)
(0.0333158 -3.37738e-06 0)
(0.0332393 1.14481e-05 0)
(0.193848 0.0123069 0)
(0.199701 0.014604 0)
(0.201721 0.0138514 0)
(0.198179 0.0114183 0)
(0.190822 0.00879847 0)
(0.181945 0.00669802 0)
(0.173012 0.00520794 0)
(0.164639 0.00418102 0)
(0.156984 0.00345255 0)
(0.150035 0.00291102 0)
(0.143735 0.00249349 0)
(0.138015 0.00216431 0)
(0.132807 0.00190053 0)
(0.12805 0.00168574 0)
(0.123689 0.00150801 0)
(0.119676 0.00135871 0)
(0.115968 0.00123163 0)
(0.112532 0.00112221 0)
(0.109337 0.00102706 0)
(0.106357 0.00094363 0)
(0.10357 0.000869943 0)
(0.100957 0.000804445 0)
(0.0985015 0.000745898 0)
(0.0961896 0.000693299 0)
(0.0940085 0.000645826 0)
(0.0919474 0.0006028 0)
(0.0899967 0.000563654 0)
(0.0881477 0.000527912 0)
(0.0863928 0.000495172 0)
(0.0847252 0.000465088 0)
(0.0831389 0.000437366 0)
(0.0816284 0.00041175 0)
(0.0801887 0.00038802 0)
(0.0788154 0.000365982 0)
(0.0775046 0.000345467 0)
(0.0762526 0.000326325 0)
(0.0750561 0.000308424 0)
(0.0739121 0.000291647 0)
(0.0728179 0.000275889 0)
(0.0717711 0.000261055 0)
(0.0707695 0.000247062 0)
(0.069811 0.000233835 0)
(0.0688938 0.000221304 0)
(0.0680163 0.000209409 0)
(0.0671769 0.000198094 0)
(0.0663743 0.000187308 0)
(0.0656073 0.000177005 0)
(0.0648749 0.000167145 0)
(0.064176 0.00015769 0)
(0.0635098 0.000148607 0)
(0.0628754 0.000139865 0)
(0.0622723 0.000131438 0)
(0.0616998 0.000123303 0)
(0.0611573 0.000115438 0)
(0.0606444 0.000107826 0)
(0.0601606 0.000100453 0)
(0.0597056 9.33078e-05 0)
(0.0592788 8.63813e-05 0)
(0.05888 7.96688e-05 0)
(0.0585087 7.31688e-05 0)
(0.0581645 6.68834e-05 0)
(0.057847 6.08181e-05 0)
(0.0575556 5.4982e-05 0)
(0.0572898 4.93882e-05 0)
(0.0570488 4.40549e-05 0)
(0.0568317 3.90076e-05 0)
(0.0566375 3.42839e-05 0)
(0.0564649 2.99294e-05 0)
(0.0563118 2.60342e-05 0)
(0.0561777 2.25665e-05 0)
(0.056055 2.00177e-05 0)
(0.0559562 1.66124e-05 0)
(0.0558384 1.82561e-05 0)
(0.0557994 1.23157e-06 0)
(0.0556625 2.50446e-05 0)
(0.19282 0.0105147 0)
(0.197038 0.0125715 0)
(0.201858 0.0125912 0)
(0.204633 0.0112985 0)
(0.204674 0.00966753 0)
(0.202617 0.00821587 0)
(0.199279 0.00705972 0)
(0.195212 0.00615137 0)
(0.190741 0.00541736 0)
(0.186068 0.00480426 0)
(0.181332 0.00428192 0)
(0.17663 0.00383373 0)
(0.172027 0.00344828 0)
(0.167563 0.00311592 0)
(0.163262 0.00282817 0)
(0.159138 0.0025778 0)
(0.155194 0.00235876 0)
(0.151429 0.00216606 0)
(0.147838 0.00199561 0)
(0.144417 0.00184404 0)
(0.141156 0.00170861 0)
(0.138049 0.00158703 0)
(0.135086 0.00147743 0)
(0.132261 0.00137821 0)
(0.129565 0.00128808 0)
(0.12699 0.0012059 0)
(0.124531 0.00113072 0)
(0.12218 0.00106175 0)
(0.119932 0.000998292 0)
(0.11778 0.000939739 0)
(0.11572 0.000885578 0)
(0.113746 0.000835356 0)
(0.111854 0.000788677 0)
(0.11004 0.000745194 0)
(0.108301 0.000704599 0)
(0.106631 0.000666619 0)
(0.105029 0.000631011 0)
(0.103491 0.000597558 0)
(0.102014 0.000566065 0)
(0.100596 0.000536358 0)
(0.0992342 0.000508277 0)
(0.0979268 0.000481681 0)
(0.0966717 0.00045644 0)
(0.095467 0.000432437 0)
(0.0943113 0.000409565 0)
(0.0932029 0.000387727 0)
(0.0921406 0.000366836 0)
(0.0911231 0.000346811 0)
(0.0901494 0.000327581 0)
(0.0892186 0.00030908 0)
(0.0883297 0.000291249 0)
(0.087482 0.000274037 0)
(0.0866749 0.000257397 0)
(0.0859078 0.00024129 0)
(0.0851802 0.00022568 0)
(0.0844915 0.00021054 0)
(0.0838413 0.000195849 0)
(0.0832293 0.00018159 0)
(0.082655 0.000167756 0)
(0.0821179 0.000154343 0)
(0.0816177 0.00014136 0)
(0.0811538 0.000128818 0)
(0.0807255 0.000116739 0)
(0.0803321 0.000105155 0)
(0.0799728 9.41053e-05 0)
(0.0796464 8.36492e-05 0)
(0.0793514 7.38623e-05 0)
(0.0790863 6.48487e-05 0)
(0.0788485 5.67396e-05 0)
(0.0786369 4.96143e-05 0)
(0.0784437 4.39195e-05 0)
(0.0782794 3.79287e-05 0)
(0.0781021 3.79196e-05 0)
(0.0780106 1.5356e-05 0)
(0.0777952 4.43525e-05 0)
(0.193546 0.0097557 0)
(0.196201 0.01148 0)
(0.199574 0.0115195 0)
(0.202357 0.0105153 0)
(0.204005 0.0092834 0)
(0.204636 0.00822316 0)
(0.20451 0.00739651 0)
(0.203786 0.00674609 0)
(0.202549 0.0062064 0)
(0.200869 0.00573367 0)
(0.198818 0.00530607 0)
(0.196469 0.004915 0)
(0.19389 0.004557 0)
(0.191142 0.00422961 0)
(0.188276 0.00393041 0)
(0.185336 0.00365699 0)
(0.182356 0.00340704 0)
(0.179364 0.00317839 0)
(0.176383 0.00296905 0)
(0.173431 0.00277717 0)
(0.17052 0.00260108 0)
(0.16766 0.00243925 0)
(0.16486 0.00229029 0)
(0.162125 0.00215295 0)
(0.159458 0.00202613 0)
(0.156862 0.0019088 0)
(0.154338 0.00180008 0)
(0.151886 0.00169914 0)
(0.149507 0.00160527 0)
(0.1472 0.00151783 0)
(0.144964 0.00143623 0)
(0.142798 0.00135995 0)
(0.1407 0.00128853 0)
(0.13867 0.00122155 0)
(0.136704 0.00115862 0)
(0.134803 0.00109939 0)
(0.132964 0.00104357 0)
(0.131185 0.000990858 0)
(0.129466 0.000941001 0)
(0.127804 0.000893762 0)
(0.126199 0.000848927 0)
(0.124648 0.000806297 0)
(0.123152 0.000765692 0)
(0.121707 0.000726946 0)
(0.120315 0.000689907 0)
(0.118972 0.000654435 0)
(0.11768 0.000620403 0)
(0.116436 0.000587694 0)
(0.11524 0.000556201 0)
(0.114091 0.000525828 0)
(0.11299 0.000496487 0)
(0.111934 0.0004681 0)
(0.110925 0.000440597 0)
(0.10996 0.000413919 0)
(0.109042 0.000388015 0)
(0.108168 0.000362842 0)
(0.107338 0.000338369 0)
(0.106553 0.000314573 0)
(0.105813 0.000291445 0)
(0.105116 0.000268983 0)
(0.104462 0.000247201 0)
(0.103852 0.000226125 0)
(0.103284 0.000205792 0)
(0.102758 0.000186259 0)
(0.102273 0.000167597 0)
(0.101828 0.000149906 0)
(0.101421 0.000133311 0)
(0.10105 0.000117982 0)
(0.100713 0.000104107 0)
(0.100409 9.18717e-05 0)
(0.10013 8.16966e-05 0)
(0.0998842 7.20049e-05 0)
(0.099632 6.89336e-05 0)
(0.0994738 4.21697e-05 0)
(0.0991592 7.21432e-05 0)
(0.19433 0.00915905 0)
(0.196451 0.0106776 0)
(0.198964 0.0107809 0)
(0.200983 0.00995293 0)
(0.202265 0.00889325 0)
(0.203019 0.00797376 0)
(0.203486 0.00726578 0)
(0.203761 0.00672532 0)
(0.203843 0.00629469 0)
(0.203707 0.00593064 0)
(0.20334 0.00560721 0)
(0.202738 0.00531105 0)
(0.201907 0.00503559 0)
(0.200862 0.00477711 0)
(0.199621 0.00453322 0)
(0.198207 0.0043024 0)
(0.196641 0.00408364 0)
(0.194945 0.00387623 0)
(0.193142 0.00367964 0)
(0.19125 0.00349339 0)
(0.189288 0.00331707 0)
(0.187271 0.00315024 0)
(0.185214 0.00299248 0)
(0.183131 0.00284335 0)
(0.181032 0.00270242 0)
(0.178926 0.00256923 0)
(0.176823 0.00244335 0)
(0.174729 0.00232437 0)
(0.17265 0.00221186 0)
(0.170592 0.00210544 0)
(0.168559 0.0020047 0)
(0.166554 0.0019093 0)
(0.164581 0.00181889 0)
(0.162641 0.00173313 0)
(0.160737 0.00165171 0)
(0.158871 0.00157435 0)
(0.157044 0.00150077 0)
(0.155257 0.0014307 0)
(0.15351 0.0013639 0)
(0.151805 0.00130014 0)
(0.150142 0.00123921 0)
(0.148521 0.00118089 0)
(0.146943 0.00112501 0)
(0.145408 0.00107138 0)
(0.143916 0.00101984 0)
(0.142468 0.000970232 0)
(0.141062 0.000922408 0)
(0.139701 0.000876235 0)
(0.138383 0.00083159 0)
(0.137109 0.000788359 0)
(0.135879 0.000746438 0)
(0.134693 0.000705734 0)
(0.133551 0.000666164 0)
(0.132454 0.000627656 0)
(0.131402 0.000590149 0)
(0.130395 0.000553594 0)
(0.129433 0.000517955 0)
(0.128516 0.000483209 0)
(0.127645 0.000449348 0)
(0.126819 0.00041638 0)
(0.126039 0.000384329 0)
(0.125304 0.000353239 0)
(0.124614 0.000323171 0)
(0.123969 0.000294211 0)
(0.123368 0.000266471 0)
(0.12281 0.000240098 0)
(0.122294 0.000215272 0)
(0.121818 0.000192233 0)
(0.121379 0.000171234 0)
(0.120978 0.000152562 0)
(0.120605 0.000136623 0)
(0.120271 0.000122098 0)
(0.119934 0.000114499 0)
(0.119701 8.48871e-05 0)
(0.119273 0.000111155 0)
(0.194967 0.00858736 0)
(0.196763 0.00992107 0)
(0.198889 0.0101209 0)
(0.200586 0.00950031 0)
(0.201614 0.00861365 0)
(0.202166 0.00779674 0)
(0.202501 0.00714004 0)
(0.202758 0.00662685 0)
(0.202971 0.00621979 0)
(0.203139 0.00588599 0)
(0.203247 0.00560171 0)
(0.203277 0.00535174 0)
(0.203214 0.00512658 0)
(0.203045 0.00491985 0)
(0.20276 0.00472701 0)
(0.202356 0.00454485 0)
(0.201832 0.00437119 0)
(0.201188 0.00420457 0)
(0.200429 0.00404403 0)
(0.199562 0.00388898 0)
(0.198593 0.00373902 0)
(0.19753 0.00359393 0)
(0.196382 0.00345357 0)
(0.195158 0.00331785 0)
(0.193867 0.00318668 0)
(0.192516 0.00306001 0)
(0.191115 0.00293778 0)
(0.18967 0.0028199 0)
(0.18819 0.00270629 0)
(0.186681 0.00259685 0)
(0.185149 0.00249147 0)
(0.183601 0.00239003 0)
(0.182041 0.00229241 0)
(0.180475 0.00219845 0)
(0.178907 0.00210802 0)
(0.177341 0.00202098 0)
(0.175781 0.00193716 0)
(0.174229 0.00185643 0)
(0.17269 0.00177861 0)
(0.171165 0.00170358 0)
(0.169657 0.00163117 0)
(0.168169 0.00156123 0)
(0.166702 0.00149362 0)
(0.165259 0.00142821 0)
(0.163841 0.00136485 0)
(0.162449 0.00130341 0)
(0.161086 0.00124377 0)
(0.159752 0.00118581 0)
(0.158448 0.00112942 0)
(0.157177 0.0010745 0)
(0.155939 0.00102094 0)
(0.154736 0.000968654 0)
(0.153567 0.000917574 0)
(0.152435 0.00086763 0)
(0.151341 0.000818765 0)
(0.150285 0.000770937 0)
(0.149267 0.000724119 0)
(0.14829 0.000678298 0)
(0.147354 0.00063348 0)
(0.146458 0.000589688 0)
(0.145605 0.000546967 0)
(0.144794 0.000505386 0)
(0.144025 0.00046504 0)
(0.143299 0.000426049 0)
(0.142615 0.000388572 0)
(0.141972 0.000352807 0)
(0.141371 0.000318998 0)
(0.14081 0.000287453 0)
(0.140286 0.000258494 0)
(0.139799 0.000232504 0)
(0.139344 0.00020987 0)
(0.138927 0.000189678 0)
(0.13851 0.00017627 0)
(0.138204 0.000145406 0)
(0.137664 0.000163124 0)
(0.195515 0.00808892 0)
(0.197031 0.00925703 0)
(0.198859 0.0095241 0)
(0.200382 0.0090818 0)
(0.201348 0.00836009 0)
(0.201868 0.00765178 0)
(0.20215 0.0070535 0)
(0.202329 0.00656624 0)
(0.202464 0.00616875 0)
(0.202577 0.00583938 0)
(0.202676 0.00556037 0)
(0.202763 0.00531892 0)
(0.202833 0.00510633 0)
(0.202878 0.00491626 0)
(0.202891 0.00474378 0)
(0.202863 0.00458497 0)
(0.202786 0.00443683 0)
(0.202654 0.00429705 0)
(0.20246 0.00416389 0)
(0.2022 0.00403604 0)
(0.201873 0.00391254 0)
(0.201476 0.00379268 0)
(0.201009 0.00367598 0)
(0.200474 0.00356208 0)
(0.199871 0.00345076 0)
(0.199203 0.00334186 0)
(0.198473 0.00323529 0)
(0.197685 0.00313099 0)
(0.196842 0.00302893 0)
(0.195948 0.00292909 0)
(0.195008 0.00283147 0)
(0.194026 0.00273606 0)
(0.193006 0.00264285 0)
(0.191952 0.00255182 0)
(0.190868 0.00246295 0)
(0.189758 0.00237621 0)
(0.188626 0.00229157 0)
(0.187476 0.00220897 0)
(0.186312 0.00212838 0)
(0.185136 0.00204972 0)
(0.183952 0.00197293 0)
(0.182763 0.00189795 0)
(0.181573 0.00182469 0)
(0.180383 0.00175309 0)
(0.179196 0.00168306 0)
(0.178016 0.00161453 0)
(0.176843 0.00154741 0)
(0.175682 0.00148162 0)
(0.174534 0.0014171 0)
(0.1734 0.00135377 0)
(0.172284 0.00129157 0)
(0.171186 0.00123042 0)
(0.17011 0.00117029 0)
(0.169056 0.00111112 0)
(0.168027 0.00105289 0)
(0.167023 0.000995569 0)
(0.166048 0.000939158 0)
(0.165101 0.000883668 0)
(0.164184 0.000829127 0)
(0.1633 0.000775589 0)
(0.162448 0.000723129 0)
(0.16163 0.00067185 0)
(0.160846 0.000621884 0)
(0.160098 0.000573399 0)
(0.159386 0.000526602 0)
(0.158709 0.000481749 0)
(0.158067 0.000439147 0)
(0.157461 0.000399172 0)
(0.156888 0.000362216 0)
(0.156349 0.000328758 0)
(0.155839 0.000299144 0)
(0.155365 0.000273027 0)
(0.15489 0.000253047 0)
(0.15453 0.000222734 0)
(0.153901 0.000227783 0)
(0.195997 0.00765943 0)
(0.197281 0.00868017 0)
(0.198843 0.00898407 0)
(0.200204 0.00868131 0)
(0.201128 0.0081024 0)
(0.201667 0.00749833 0)
(0.201975 0.00696515 0)
(0.202163 0.00651443 0)
(0.202285 0.00613542 0)
(0.202366 0.00581463 0)
(0.202425 0.00553942 0)
(0.202471 0.00529972 0)
(0.202511 0.00508839 0)
(0.202547 0.00490015 0)
(0.202577 0.00473081 0)
(0.202601 0.0045769 0)
(0.202615 0.00443558 0)
(0.202616 0.00430459 0)
(0.202599 0.00418203 0)
(0.20256 0.0040664 0)
(0.202495 0.00395643 0)
(0.2024 0.00385113 0)
(0.202272 0.00374968 0)
(0.202107 0.00365142 0)
(0.201902 0.00355585 0)
(0.201657 0.00346254 0)
(0.201369 0.00337119 0)
(0.201038 0.00328155 0)
(0.200663 0.00319343 0)
(0.200245 0.00310671 0)
(0.199785 0.00302128 0)
(0.199282 0.00293706 0)
(0.198739 0.00285401 0)
(0.198158 0.00277209 0)
(0.197539 0.00269127 0)
(0.196885 0.00261153 0)
(0.196198 0.00253285 0)
(0.19548 0.00245522 0)
(0.194734 0.00237861 0)
(0.193962 0.00230301 0)
(0.193167 0.00222839 0)
(0.192351 0.00215473 0)
(0.191516 0.00208199 0)
(0.190665 0.00201014 0)
(0.189801 0.00193916 0)
(0.188926 0.00186899 0)
(0.188042 0.0017996 0)
(0.187153 0.00173096 0)
(0.186259 0.00166302 0)
(0.185364 0.00159575 0)
(0.18447 0.00152912 0)
(0.183579 0.00146309 0)
(0.182693 0.00139765 0)
(0.181815 0.00133278 0)
(0.180946 0.00126849 0)
(0.180089 0.00120478 0)
(0.179245 0.00114167 0)
(0.178417 0.00107921 0)
(0.177606 0.00101747 0)
(0.176814 0.000956523 0)
(0.176042 0.000896488 0)
(0.175292 0.000837506 0)
(0.174566 0.000779754 0)
(0.173864 0.000723447 0)
(0.173188 0.000668844 0)
(0.172537 0.000616261 0)
(0.171913 0.000566064 0)
(0.171316 0.0005187 0)
(0.170744 0.000474618 0)
(0.1702 0.000434395 0)
(0.169678 0.000398321 0)
(0.169186 0.00036674 0)
(0.168691 0.000340204 0)
(0.168306 0.000312157 0)
(0.167635 0.000302129 0)
(0.19642 0.00728258 0)
(0.197515 0.00817236 0)
(0.198851 0.00849261 0)
(0.200058 0.00829982 0)
(0.200927 0.0078431 0)
(0.201474 0.0073335 0)
(0.20181 0.00686352 0)
(0.202027 0.00645239 0)
(0.202169 0.00609717 0)
(0.202262 0.00579055 0)
(0.202321 0.00552396 0)
(0.202359 0.00528951 0)
(0.202383 0.00508117 0)
(0.202399 0.00489448 0)
(0.202409 0.00472589 0)
(0.202415 0.00457245 0)
(0.20242 0.00443175 0)
(0.202422 0.00430182 0)
(0.202422 0.00418103 0)
(0.202419 0.00406801 0)
(0.20241 0.00396162 0)
(0.202394 0.00386087 0)
(0.202369 0.00376494 0)
(0.202332 0.00367311 0)
(0.202282 0.00358477 0)
(0.202215 0.00349941 0)
(0.202129 0.00341659 0)
(0.202024 0.00333592 0)
(0.201896 0.0032571 0)
(0.201744 0.00317985 0)
(0.201566 0.00310394 0)
(0.201362 0.0030292 0)
(0.201131 0.00295547 0)
(0.200872 0.0028826 0)
(0.200585 0.0028105 0)
(0.200269 0.00273908 0)
(0.199925 0.00266825 0)
(0.199554 0.00259796 0)
(0.199155 0.00252814 0)
(0.198729 0.00245875 0)
(0.198278 0.00238974 0)
(0.197803 0.00232107 0)
(0.197304 0.0022527 0)
(0.196783 0.0021846 0)
(0.196242 0.00211673 0)
(0.195681 0.00204907 0)
(0.195104 0.00198158 0)
(0.19451 0.00191423 0)
(0.193903 0.00184701 0)
(0.193284 0.00177988 0)
(0.192654 0.00171284 0)
(0.192016 0.00164587 0)
(0.191371 0.00157898 0)
(0.190721 0.00151217 0)
(0.190069 0.00144545 0)
(0.189416 0.00137887 0)
(0.188763 0.00131247 0)
(0.188114 0.00124633 0)
(0.18747 0.00118053 0)
(0.186831 0.0011152 0)
(0.186201 0.00105047 0)
(0.185581 0.000986527 0)
(0.184972 0.000923591 0)
(0.184376 0.000861918 0)
(0.183793 0.000801818 0)
(0.183226 0.000743656 0)
(0.182674 0.000687855 0)
(0.182138 0.000634919 0)
(0.18162 0.000585351 0)
(0.181118 0.000539818 0)
(0.180632 0.000498539 0)
(0.180168 0.000462605 0)
(0.179695 0.000430375 0)
(0.179324 0.000405812 0)
(0.178669 0.000380656 0)
(0.196791 0.00694813 0)
(0.197733 0.00772415 0)
(0.198879 0.00804772 0)
(0.199946 0.00794114 0)
(0.200755 0.00758804 0)
(0.201297 0.00716257 0)
(0.201649 0.00675155 0)
(0.201887 0.00637962 0)
(0.20205 0.00604981 0)
(0.20216 0.0057597 0)
(0.202233 0.00550421 0)
(0.202281 0.00527747 0)
(0.20231 0.00507449 0)
(0.202327 0.00489143 0)
(0.202333 0.00472521 0)
(0.202333 0.00457323 0)
(0.202329 0.00443336 0)
(0.202321 0.00430384 0)
(0.202312 0.00418325 0)
(0.202301 0.00407039 0)
(0.202289 0.00396427 0)
(0.202277 0.00386402 0)
(0.202263 0.00376893 0)
(0.202248 0.00367837 0)
(0.202231 0.00359177 0)
(0.202209 0.00350867 0)
(0.202184 0.00342862 0)
(0.202152 0.00335125 0)
(0.202114 0.00327622 0)
(0.202067 0.00320324 0)
(0.20201 0.00313201 0)
(0.201942 0.00306232 0)
(0.201861 0.00299394 0)
(0.201767 0.00292667 0)
(0.201659 0.00286035 0)
(0.201534 0.00279482 0)
(0.201393 0.00272993 0)
(0.201234 0.00266558 0)
(0.201058 0.00260163 0)
(0.200863 0.00253799 0)
(0.20065 0.00247456 0)
(0.200418 0.00241126 0)
(0.200167 0.00234801 0)
(0.199897 0.00228474 0)
(0.199609 0.00222139 0)
(0.199303 0.00215789 0)
(0.198979 0.0020942 0)
(0.198639 0.00203026 0)
(0.198282 0.00196605 0)
(0.197911 0.00190152 0)
(0.197525 0.00183665 0)
(0.197125 0.00177143 0)
(0.196714 0.00170585 0)
(0.196292 0.00163993 0)
(0.19586 0.00157367 0)
(0.19542 0.00150714 0)
(0.194973 0.00144037 0)
(0.194521 0.00137346 0)
(0.194064 0.00130651 0)
(0.193605 0.00123965 0)
(0.193144 0.00117306 0)
(0.192683 0.00110694 0)
(0.192224 0.00104152 0)
(0.191767 0.000977111 0)
(0.191314 0.000914048 0)
(0.190866 0.000852738 0)
(0.190424 0.000793644 0)
(0.189989 0.000737314 0)
(0.189561 0.000684291 0)
(0.189142 0.000635315 0)
(0.188729 0.000590537 0)
(0.188331 0.000551742 0)
(0.187918 0.000515335 0)
(0.187593 0.000494648 0)
(0.187008 0.000456667 0)
(0.19712 0.00664907 0)
(0.197935 0.00732781 0)
(0.198922 0.00764597 0)
(0.199864 0.00760556 0)
(0.200611 0.00733929 0)
(0.201139 0.00698831 0)
(0.201499 0.00663205 0)
(0.20175 0.0062984 0)
(0.201928 0.00599472 0)
(0.202053 0.00572231 0)
(0.202139 0.00547907 0)
(0.202198 0.00526111 0)
(0.202237 0.00506455 0)
(0.20226 0.0048862 0)
(0.202273 0.00472344 0)
(0.202276 0.004574 0)
(0.202273 0.00443593 0)
(0.202265 0.00430766 0)
(0.202253 0.00418788 0)
(0.202239 0.0040755 0)
(0.202223 0.0039696 0)
(0.202206 0.00386942 0)
(0.202188 0.0037743 0)
(0.20217 0.00368369 0)
(0.202152 0.0035971 0)
(0.202134 0.00351411 0)
(0.202115 0.00343434 0)
(0.202096 0.00335745 0)
(0.202077 0.00328316 0)
(0.202056 0.00321117 0)
(0.202033 0.00314124 0)
(0.202007 0.00307314 0)
(0.201978 0.00300665 0)
(0.201945 0.00294157 0)
(0.201907 0.00287772 0)
(0.201863 0.00281493 0)
(0.201813 0.00275302 0)
(0.201755 0.00269185 0)
(0.201689 0.00263127 0)
(0.201614 0.00257115 0)
(0.201529 0.00251135 0)
(0.201434 0.00245176 0)
(0.201328 0.00239226 0)
(0.20121 0.00233275 0)
(0.201081 0.00227313 0)
(0.20094 0.00221331 0)
(0.200786 0.0021532 0)
(0.20062 0.00209272 0)
(0.200441 0.00203182 0)
(0.20025 0.00197042 0)
(0.200046 0.00190849 0)
(0.19983 0.00184598 0)
(0.199603 0.00178288 0)
(0.199364 0.00171918 0)
(0.199115 0.00165488 0)
(0.198855 0.00159002 0)
(0.198586 0.00152464 0)
(0.198307 0.00145883 0)
(0.198021 0.00139269 0)
(0.197727 0.00132635 0)
(0.197427 0.00125999 0)
(0.197121 0.00119381 0)
(0.196811 0.00112808 0)
(0.196497 0.0010631 0)
(0.19618 0.000999239 0)
(0.195861 0.000936915 0)
(0.19554 0.000876617 0)
(0.19522 0.000818918 0)
(0.194899 0.00076438 0)
(0.19458 0.000713797 0)
(0.194261 0.000667264 0)
(0.193949 0.000627109 0)
(0.19362 0.000588321 0)
(0.19336 0.000570991 0)
(0.192883 0.000524147 0)
(0.197411 0.00637982 0)
(0.19812 0.00697585 0)
(0.198974 0.00728295 0)
(0.199806 0.00729229 0)
(0.200492 0.00709807 0)
(0.200999 0.00681269 0)
(0.201361 0.00650702 0)
(0.201621 0.00621038 0)
(0.201811 0.0059331 0)
(0.201947 0.00567923 0)
(0.202044 0.00544912 0)
(0.202112 0.0052407 0)
(0.202159 0.0050512 0)
(0.20219 0.00487815 0)
(0.202208 0.00471938 0)
(0.202217 0.00457296 0)
(0.202218 0.00443722 0)
(0.202214 0.00431071 0)
(0.202205 0.00419225 0)
(0.202192 0.00408083 0)
(0.202177 0.0039756 0)
(0.20216 0.00387584 0)
(0.202141 0.00378094 0)
(0.202121 0.0036904 0)
(0.202101 0.00360376 0)
(0.202081 0.00352063 0)
(0.202061 0.00344068 0)
(0.202041 0.00336361 0)
(0.202021 0.00328913 0)
(0.202002 0.00321702 0)
(0.201983 0.00314704 0)
(0.201965 0.003079 0)
(0.201946 0.0030127 0)
(0.201928 0.00294796 0)
(0.201909 0.00288461 0)
(0.201889 0.00282249 0)
(0.201868 0.00276144 0)
(0.201845 0.00270131 0)
(0.201819 0.00264196 0)
(0.201791 0.00258323 0)
(0.20176 0.00252501 0)
(0.201725 0.00246716 0)
(0.201686 0.00240955 0)
(0.201641 0.00235205 0)
(0.201592 0.00229456 0)
(0.201536 0.00223697 0)
(0.201474 0.00217916 0)
(0.201405 0.00212104 0)
(0.201328 0.00206252 0)
(0.201244 0.00200353 0)
(0.201153 0.00194398 0)
(0.201053 0.00188383 0)
(0.200945 0.00182304 0)
(0.200828 0.00176157 0)
(0.200703 0.00169941 0)
(0.200569 0.00163659 0)
(0.200427 0.00157312 0)
(0.200277 0.00150909 0)
(0.200119 0.00144457 0)
(0.199953 0.00137969 0)
(0.199779 0.00131463 0)
(0.199598 0.00124958 0)
(0.199411 0.0011848 0)
(0.199216 0.0011206 0)
(0.199016 0.00105734 0)
(0.198811 0.000995444 0)
(0.1986 0.000935415 0)
(0.198385 0.000877823 0)
(0.198166 0.000823236 0)
(0.197944 0.000772472 0)
(0.197718 0.000725596 0)
(0.197494 0.000685258 0)
(0.197253 0.000645743 0)
(0.197063 0.000630563 0)
(0.196704 0.000579351 0)
(0.197671 0.00613592 0)
(0.198291 0.00666181 0)
(0.199032 0.00695464 0)
(0.199767 0.0070007 0)
(0.200394 0.00686569 0)
(0.200878 0.00663762 0)
(0.201235 0.00637823 0)
(0.2015 0.00611685 0)
(0.201697 0.00586579 0)
(0.201843 0.00563099 0)
(0.201948 0.00541474 0)
(0.202025 0.00521654 0)
(0.202079 0.00503472 0)
(0.202116 0.00486746 0)
(0.20214 0.0047131 0)
(0.202154 0.00457007 0)
(0.20216 0.00443694 0)
(0.202159 0.00431246 0)
(0.202154 0.00419557 0)
(0.202144 0.00408535 0)
(0.202131 0.00398103 0)
(0.202116 0.00388195 0)
(0.202099 0.00378752 0)
(0.20208 0.00369728 0)
(0.202061 0.00361079 0)
(0.20204 0.0035277 0)
(0.20202 0.00344769 0)
(0.202 0.00337046 0)
(0.201979 0.00329578 0)
(0.201959 0.00322342 0)
(0.20194 0.00315316 0)
(0.201921 0.00308483 0)
(0.201903 0.00301825 0)
(0.201886 0.00295326 0)
(0.201869 0.0028897 0)
(0.201853 0.00282743 0)
(0.201838 0.0027663 0)
(0.201823 0.00270617 0)
(0.201808 0.00264691 0)
(0.201793 0.00258839 0)
(0.201778 0.00253049 0)
(0.201763 0.00247306 0)
(0.201747 0.002416 0)
(0.201729 0.00235918 0)
(0.20171 0.00230248 0)
(0.20169 0.00224579 0)
(0.201667 0.002189 0)
(0.201641 0.00213201 0)
(0.201612 0.00207472 0)
(0.20158 0.00201705 0)
(0.201544 0.0019589 0)
(0.201504 0.00190022 0)
(0.20146 0.00184094 0)
(0.201411 0.00178103 0)
(0.201356 0.00172047 0)
(0.201296 0.00165925 0)
(0.201231 0.0015974 0)
(0.201159 0.00153497 0)
(0.201082 0.00147203 0)
(0.200998 0.0014087 0)
(0.200908 0.00134513 0)
(0.200812 0.00128152 0)
(0.20071 0.00121811 0)
(0.200601 0.0011552 0)
(0.200486 0.00109315 0)
(0.200364 0.00103238 0)
(0.200237 0.000973368 0)
(0.200104 0.000916682 0)
(0.199966 0.000862882 0)
(0.199822 0.000812782 0)
(0.199673 0.000766452 0)
(0.199523 0.000726623 0)
(0.199357 0.00068758 0)
(0.199228 0.000673084 0)
(0.198977 0.000621415 0)
(0.197903 0.00591386 0)
(0.198449 0.00638031 0)
(0.199094 0.0066574 0)
(0.199744 0.00672998 0)
(0.200315 0.00664311 0)
(0.200772 0.00646463 0)
(0.201121 0.0062472 0)
(0.201387 0.00601906 0)
(0.201589 0.0057936 0)
(0.201741 0.0055781 0)
(0.201854 0.00537623 0)
(0.201938 0.00518883 0)
(0.201998 0.00501521 0)
(0.202041 0.00485423 0)
(0.20207 0.00470469 0)
(0.202089 0.00456539 0)
(0.202099 0.00443516 0)
(0.202101 0.00431295 0)
(0.202099 0.00419782 0)
(0.202092 0.00408897 0)
(0.202082 0.00398571 0)
(0.202069 0.00388742 0)
(0.202054 0.00379359 0)
(0.202037 0.00370377 0)
(0.202019 0.00361756 0)
(0.202 0.00353463 0)
(0.201981 0.00345467 0)
(0.201962 0.00337741 0)
(0.201942 0.00330262 0)
(0.201922 0.00323008 0)
(0.201903 0.00315961 0)
(0.201884 0.00309101 0)
(0.201866 0.00302414 0)
(0.201849 0.00295884 0)
(0.201832 0.00289495 0)
(0.201816 0.00283235 0)
(0.201801 0.0027709 0)
(0.201787 0.00271047 0)
(0.201774 0.00265094 0)
(0.201761 0.00259219 0)
(0.201749 0.00253409 0)
(0.201738 0.00247653 0)
(0.201727 0.00241939 0)
(0.201717 0.00236256 0)
(0.201707 0.00230593 0)
(0.201697 0.00224938 0)
(0.201687 0.00219282 0)
(0.201676 0.00213614 0)
(0.201665 0.00207925 0)
(0.201653 0.00202207 0)
(0.201639 0.0019645 0)
(0.201624 0.00190648 0)
(0.201607 0.00184795 0)
(0.201588 0.00178888 0)
(0.201567 0.00172922 0)
(0.201542 0.00166898 0)
(0.201515 0.00160817 0)
(0.201484 0.00154684 0)
(0.201449 0.00148505 0)
(0.201411 0.00142291 0)
(0.201368 0.00136056 0)
(0.20132 0.0012982 0)
(0.201267 0.00123606 0)
(0.20121 0.00117441 0)
(0.201147 0.00111362 0)
(0.201079 0.00105408 0)
(0.201006 0.000996263 0)
(0.200927 0.000940723 0)
(0.200843 0.000888001 0)
(0.200754 0.000838888 0)
(0.200659 0.000793489 0)
(0.200563 0.000754417 0)
(0.200453 0.00071649 0)
(0.200369 0.000701395 0)
(0.200201 0.00065189 0)
(0.198112 0.00571088 0)
(0.198593 0.00612688 0)
(0.199158 0.00638784 0)
(0.199733 0.00647907 0)
(0.200252 0.00643094 0)
(0.20068 0.00629499 0)
(0.201018 0.00611528 0)
(0.201282 0.00591814 0)
(0.201486 0.0057174 0)
(0.201643 0.0055211 0)
(0.201762 0.00533391 0)
(0.201851 0.00515774 0)
(0.201917 0.00499278 0)
(0.201965 0.00483851 0)
(0.201999 0.00469418 0)
(0.202022 0.00455895 0)
(0.202035 0.0044319 0)
(0.202042 0.00431219 0)
(0.202042 0.00419902 0)
(0.202038 0.00409171 0)
(0.20203 0.00398963 0)
(0.202019 0.00389226 0)
(0.202006 0.00379912 0)
(0.201991 0.0037098 0)
(0.201975 0.00362394 0)
(0.201958 0.00354123 0)
(0.20194 0.00346138 0)
(0.201922 0.00338415 0)
(0.201903 0.00330931 0)
(0.201884 0.00323667 0)
(0.201866 0.00316603 0)
(0.201848 0.00309723 0)
(0.20183 0.00303012 0)
(0.201813 0.00296454 0)
(0.201797 0.00290036 0)
(0.201781 0.00283745 0)
(0.201766 0.00277567 0)
(0.201752 0.00271492 0)
(0.201739 0.00265506 0)
(0.201727 0.00259598 0)
(0.201715 0.00253757 0)
(0.201704 0.00247972 0)
(0.201695 0.00242232 0)
(0.201686 0.00236525 0)
(0.201677 0.00230842 0)
(0.201669 0.00225171 0)
(0.201662 0.00219504 0)
(0.201655 0.0021383 0)
(0.201649 0.00208141 0)
(0.201642 0.00202428 0)
(0.201636 0.00196683 0)
(0.201629 0.00190901 0)
(0.201621 0.00185075 0)
(0.201613 0.00179201 0)
(0.201604 0.00173277 0)
(0.201594 0.00167303 0)
(0.201582 0.00161279 0)
(0.201568 0.00155209 0)
(0.201552 0.00149102 0)
(0.201534 0.00142967 0)
(0.201513 0.00136817 0)
(0.201488 0.00130672 0)
(0.201461 0.00124554 0)
(0.20143 0.00118491 0)
(0.201394 0.00112516 0)
(0.201355 0.0010667 0)
(0.201312 0.00100996 0)
(0.201264 0.00095549 0)
(0.201212 0.000903811 0)
(0.201155 0.000855679 0)
(0.201093 0.000811253 0)
(0.20103 0.0007729 0)
(0.200956 0.000736267 0)