/*--------------------------------*- C++ -*----------------------------------*\
| =========                 |                                                 |
| \\      /  F ield         | OpenFOAM: The Open Source CFD Toolbox           |
|  \\    /   O peration     | Version:  2.3.0                                 |
|   \\  /    A nd           | Web:      www.OpenFOAM.org                      |
|    \\/     M anipulation  |                                                 |
\*---------------------------------------------------------------------------*/
FoamFile
{
    version     2.0;
    format      ascii;
    class       volVectorField;
    location    "0.85";
    object      U;
}
// * * * * * * * * * * * * * * * * * * * * * * * * * * * * * * * * * * * * * //

dimensions      [0 1 -1 0 0 0 0];

internalField   nonuniform List<vector> 
2250
(
(0.187409 0.00257287 1.70027e-06)
(0.178605 0.00352332 4.92491e-06)
(0.170596 0.00415139 7.41292e-06)
(0.162705 0.00439059 8.92403e-06)
(0.154546 0.00439041 9.73644e-06)
(0.146056 0.00429857 1.01682e-05)
(0.137338 0.00419234 1.03375e-05)
(0.128546 0.00408432 1.01604e-05)
(0.119805 0.00395802 9.47181e-06)
(0.111203 0.00379495 8.13206e-06)
(0.102807 0.00358532 6.06818e-06)
(0.0946846 0.00332794 3.27176e-06)
(0.0869104 0.00302674 -2.11216e-07)
(0.0795693 0.00268718 -4.28196e-06)
(0.0727612 0.00231625 -8.78217e-06)
(0.0665565 0.00191785 -1.34941e-05)
(0.0610135 0.00150329 -1.81564e-05)
(0.0561662 0.00109334 -2.24945e-05)
(0.0520189 0.000713419 -2.62586e-05)
(0.0485431 0.000386318 -2.92612e-05)
(0.0456831 0.000126103 -3.14029e-05)
(0.0433636 -6.39648e-05 -3.26817e-05)
(0.0415011 -0.000189431 -3.31808e-05)
(0.04001 -0.000260474 -3.30416e-05)
(0.0388102 -0.000288556 -3.24315e-05)
(0.0378292 -0.000284387 -3.15163e-05)
(0.0370063 -0.000258511 -3.04398e-05)
(0.036294 -0.0002212 -2.93176e-05)
(0.0356555 -0.000179496 -2.82387e-05)
(0.035062 -0.000137879 -2.72634e-05)
(0.0344939 -9.93566e-05 -2.64254e-05)
(0.0339376 -6.56877e-05 -2.57375e-05)
(0.0333867 -3.76632e-05 -2.51963e-05)
(0.0328375 -1.52518e-05 -2.47887e-05)
(0.0322902 1.94731e-06 -2.44955e-05)
(0.0317457 1.45873e-05 -2.42953e-05)
(0.0312068 2.32882e-05 -2.41662e-05)
(0.0306754 2.87082e-05 -2.40884e-05)
(0.0301545 3.18083e-05 -2.40448e-05)
(0.0296448 3.33891e-05 -2.402e-05)
(0.0291491 3.38935e-05 -2.40007e-05)
(0.0286674 3.3752e-05 -2.39764e-05)
(0.0282022 3.31559e-05 -2.39393e-05)
(0.0277524 3.23319e-05 -2.38845e-05)
(0.0273199 3.12879e-05 -2.38087e-05)
(0.0269026 3.01599e-05 -2.37113e-05)
(0.0265024 2.88964e-05 -2.3592e-05)
(0.0261164 2.76292e-05 -2.34526e-05)
(0.0257465 2.62807e-05 -2.32948e-05)
(0.0253892 2.49883e-05 -2.31217e-05)
(0.0250469 2.36463e-05 -2.29355e-05)
(0.0247154 2.24011e-05 -2.27401e-05)
(0.0243977 2.11181e-05 -2.25375e-05)
(0.0240889 1.99601e-05 -2.23319e-05)
(0.023793 1.8763e-05 -2.21245e-05)
(0.0235043 1.77116e-05 -2.19194e-05)
(0.0232277 1.661e-05 -2.17169e-05)
(0.0229566 1.56709e-05 -2.15207e-05)
(0.0226972 1.46628e-05 -2.13302e-05)
(0.0224417 1.38331e-05 -2.11487e-05)
(0.0221978 1.29095e-05 -2.09745e-05)
(0.0219563 1.21815e-05 -2.08107e-05)
(0.0217266 1.13302e-05 -2.06541e-05)
(0.0214978 1.0695e-05 -2.05082e-05)
(0.0212813 9.90244e-06 -2.0368e-05)
(0.0210641 9.35153e-06 -2.02374e-05)
(0.02086 8.60456e-06 -2.01096e-05)
(0.0206535 8.13062e-06 -1.99891e-05)
(0.0204614 7.41621e-06 -1.98666e-05)
(0.0202648 7.01334e-06 -1.97475e-05)
(0.0200842 6.31854e-06 -1.96197e-05)
(0.0198969 5.98185e-06 -1.94892e-05)
(0.0197276 5.29336e-06 -1.934e-05)
(0.0195489 5.01926e-06 -1.91791e-05)
(0.0193907 4.32351e-06 -1.89845e-05)
(0.01922 4.11201e-06 -1.87631e-05)
(0.0190729 3.39854e-06 -1.8484e-05)
(0.0189093 3.26094e-06 -1.81514e-05)
(0.0187733 2.53511e-06 -1.77198e-05)
(0.0186158 2.5109e-06 -1.71878e-05)
(0.0184903 1.80918e-06 -1.64918e-05)
(0.0183371 1.95967e-06 -1.56346e-05)
(0.0182214 1.2832e-06 -1.45645e-05)
(0.0180702 1.53007e-06 -1.33654e-05)
(0.0179641 5.92538e-07 -1.21228e-05)
(0.017815 5.00468e-07 -1.11625e-05)
(0.0177233 -1.16666e-06 -1.07935e-05)
(0.0175814 -1.64813e-06 -1.14278e-05)
(0.0175113 -3.39603e-06 -1.30301e-05)
(0.0173775 -2.96737e-06 -1.53541e-05)
(0.0173272 -3.72482e-06 -1.77974e-05)
(0.0171918 -2.05692e-06 -2.01654e-05)
(0.0171542 -2.35621e-06 -2.21047e-05)
(0.0170065 -1.63583e-07 -2.35571e-05)
(0.0169783 -7.56233e-07 -2.40024e-05)
(0.0168116 1.4925e-06 -2.32941e-05)
(0.0167962 5.72314e-08 -2.08656e-05)
(0.0166078 2.01883e-06 -1.69609e-05)
(0.0166159 -1.04339e-06 -1.12155e-05)
(0.0164068 5.82938e-06 -4.18284e-06)
(0.193833 0.00472055 1.1592e-06)
(0.193539 0.00625078 3.42238e-06)
(0.193246 0.00736919 5.70336e-06)
(0.192837 0.00795447 7.60672e-06)
(0.192117 0.00818004 8.83556e-06)
(0.19096 0.00824807 9.40466e-06)
(0.18934 0.0082801 9.47826e-06)
(0.187299 0.00830875 9.17341e-06)
(0.184899 0.00831739 8.48273e-06)
(0.182186 0.00827862 7.31546e-06)
(0.179197 0.00817363 5.5767e-06)
(0.175956 0.00799342 3.22011e-06)
(0.172495 0.0077359 2.66367e-07)
(0.168841 0.00740082 -3.19807e-06)
(0.165037 0.00699006 -7.02871e-06)
(0.161119 0.00650646 -1.10445e-05)
(0.157132 0.00595919 -1.50559e-05)
(0.153119 0.00536558 -1.88696e-05)
(0.149126 0.00474922 -2.22996e-05)
(0.145187 0.00413647 -2.51873e-05)
(0.141335 0.00355202 -2.74245e-05)
(0.137594 0.00301557 -2.89693e-05)
(0.133984 0.00253973 -2.98491e-05)
(0.130517 0.00213031 -3.01489e-05)
(0.127204 0.00178722 -2.99892e-05)
(0.124043 0.00150656 -2.95033e-05)
(0.121032 0.00128194 -2.88197e-05)
(0.118166 0.00110698 -2.80466e-05)
(0.11544 0.000974029 -2.72612e-05)
(0.112843 0.000874918 -2.6516e-05)
(0.110367 0.000801341 -2.58452e-05)
(0.108001 0.000746114 -2.52692e-05)
(0.105739 0.000703245 -2.47969e-05)
(0.103572 0.000668544 -2.44279e-05)
(0.101495 0.00063885 -2.41536e-05)
(0.0995008 0.000612377 -2.39607e-05)
(0.0975878 0.000587674 -2.38324e-05)
(0.0957491 0.000564202 -2.37513e-05)
(0.0939848 0.000541024 -2.36992e-05)
(0.0922866 0.000517747 -2.36632e-05)
(0.0906564 0.000494021 -2.3633e-05)
(0.0890859 0.00047021 -2.36015e-05)
(0.0875783 0.000446443 -2.35616e-05)
(0.0861243 0.000423307 -2.35088e-05)
(0.0847283 0.000400852 -2.34386e-05)
(0.0833802 0.000379543 -2.33498e-05)
(0.0820856 0.00035922 -2.3241e-05)
(0.0808329 0.000340252 -2.3114e-05)
(0.0796297 0.000322328 -2.29691e-05)
(0.0784626 0.000305788 -2.28099e-05)
(0.0773413 0.00029021 -2.26375e-05)
(0.0762506 0.000275946 -2.24563e-05)
(0.0752026 0.000262482 -2.22673e-05)
(0.0741798 0.000250216 -2.20753e-05)
(0.0731973 0.000238551 -2.18806e-05)
(0.072235 0.000227961 -2.16881e-05)
(0.0713113 0.00021777 -2.14971e-05)
(0.070403 0.000208548 -2.13125e-05)
(0.0695325 0.000199534 -2.11323e-05)
(0.0686725 0.000191411 -2.09613e-05)
(0.0678505 0.000183321 -2.07963e-05)
(0.0670342 0.000176079 -2.0642e-05)
(0.0662568 0.00016871 -2.04936e-05)
(0.06548 0.000162182 -2.03563e-05)
(0.064744 0.000155376 -2.02233e-05)
(0.0640033 0.000149437 -2.01006e-05)
(0.0633063 0.000143078 -1.99791e-05)
(0.0625986 0.000137643 -1.98656e-05)
(0.0619384 0.000131643 -1.97484e-05)
(0.0612608 0.000126653 -1.96355e-05)
(0.060636 0.000120945 -1.95117e-05)
(0.059986 0.000116362 -1.93864e-05)
(0.0593952 0.000110893 -1.92398e-05)
(0.0587703 0.000106692 -1.90829e-05)
(0.0582128 0.000101415 -1.88891e-05)
(0.0576104 9.75883e-05 -1.86706e-05)
(0.0570857 9.24708e-05 -1.83905e-05)
(0.0565033 8.90469e-05 -1.80596e-05)
(0.0560112 8.41102e-05 -1.76248e-05)
(0.0554458 8.12057e-05 -1.70908e-05)
(0.0549858 7.65745e-05 -1.63808e-05)
(0.0544335 7.43822e-05 -1.54979e-05)
(0.054005 7.00756e-05 -1.43653e-05)
(0.0534607 6.8314e-05 -1.30624e-05)
(0.0530637 6.33261e-05 -1.16594e-05)
(0.0525243 6.03754e-05 -1.05278e-05)
(0.0521641 5.29085e-05 -1.00518e-05)
(0.051632 4.83151e-05 -1.0783e-05)
(0.0513189 4.03615e-05 -1.27122e-05)
(0.0507932 3.84632e-05 -1.54718e-05)
(0.0505291 3.39758e-05 -1.82494e-05)
(0.0499963 3.6396e-05 -2.08436e-05)
(0.0497762 3.41898e-05 -2.2923e-05)
(0.0492185 3.86947e-05 -2.45154e-05)
(0.0490411 3.61801e-05 -2.50589e-05)
(0.0484431 4.06891e-05 -2.44232e-05)
(0.0483162 3.55126e-05 -2.19174e-05)
(0.0476657 3.90072e-05 -1.78444e-05)
(0.0476068 2.77767e-05 -1.18396e-05)
(0.0468927 3.74906e-05 -4.42795e-06)
(0.194755 0.00471351 8.83501e-07)
(0.194785 0.00569946 2.62696e-06)
(0.194991 0.00658167 4.50514e-06)
(0.195372 0.00722577 6.34307e-06)
(0.195831 0.00763381 7.76574e-06)
(0.196249 0.00789518 8.51777e-06)
(0.19655 0.00809871 8.61636e-06)
(0.196708 0.0082876 8.23435e-06)
(0.19673 0.00846134 7.51618e-06)
(0.196626 0.00859885 6.49355e-06)
(0.196402 0.00867772 5.12086e-06)
(0.196052 0.00868211 3.34847e-06)
(0.195564 0.0086028 1.17072e-06)
(0.194924 0.00843566 -1.36355e-06)
(0.194121 0.00818043 -4.17108e-06)
(0.193148 0.00784264 -7.15498e-06)
(0.192005 0.00743304 -1.02098e-05)
(0.190698 0.00696797 -1.32302e-05)
(0.189241 0.00646802 -1.61112e-05)
(0.187647 0.00595638 -1.87501e-05)
(0.185937 0.00545528 -2.10522e-05)
(0.184131 0.00498363 -2.29411e-05)
(0.182252 0.00455421 -2.43716e-05)
(0.180318 0.00417378 -2.53391e-05)
(0.178349 0.00384308 -2.58808e-05)
(0.176357 0.00355934 -2.60699e-05)
(0.174355 0.00331731 -2.60049e-05)
(0.17235 0.00311215 -2.57789e-05)
(0.170349 0.002938 -2.54514e-05)
(0.16835 0.00278897 -2.50649e-05)
(0.166359 0.00265894 -2.46548e-05)
(0.164371 0.00254295 -2.42531e-05)
(0.162391 0.00243665 -2.38859e-05)
(0.160416 0.00233727 -2.35711e-05)
(0.158452 0.00224252 -2.33168e-05)
(0.156493 0.00215145 -2.31228e-05)
(0.154549 0.00206302 -2.29812e-05)
(0.152612 0.00197716 -2.28789e-05)
(0.150694 0.00189315 -2.27983e-05)
(0.148785 0.00181098 -2.27306e-05)
(0.146899 0.00173026 -2.26709e-05)
(0.145025 0.00165148 -2.26166e-05)
(0.143179 0.00157459 -2.2563e-05)
(0.141348 0.0015003 -2.25061e-05)
(0.139549 0.0014285 -2.24403e-05)
(0.137767 0.00135984 -2.23631e-05)
(0.136021 0.00129401 -2.22711e-05)
(0.134291 0.00123154 -2.2165e-05)
(0.132602 0.00117196 -2.20437e-05)
(0.13093 0.00111577 -2.19103e-05)
(0.129301 0.00106233 -2.17645e-05)
(0.127687 0.00101217 -2.16107e-05)
(0.12612 0.000964508 -2.14486e-05)
(0.124565 0.000919921 -2.12833e-05)
(0.123061 0.00087751 -2.11139e-05)
(0.121565 0.000837922 -2.09462e-05)
(0.120123 0.000800151 -2.07782e-05)
(0.118685 0.000764954 -2.06159e-05)
(0.117304 0.000731213 -2.04561e-05)
(0.115923 0.000699823 -2.03051e-05)
(0.114602 0.000669544 -2.01581e-05)
(0.113274 0.000641431 -2.00219e-05)
(0.112012 0.000614107 -1.98896e-05)
(0.110736 0.000588813 -1.97688e-05)
(0.10953 0.00056401 -1.96503e-05)
(0.108302 0.000541146 -1.9543e-05)
(0.107152 0.000518497 -1.94346e-05)
(0.105968 0.000497744 -1.93355e-05)
(0.104872 0.000476943 -1.92301e-05)
(0.103729 0.000458037 -1.91306e-05)
(0.102686 0.000438825 -1.90171e-05)
(0.101582 0.000421548 -1.89039e-05)
(0.10059 0.000403706 -1.87655e-05)
(0.0995204 0.000387877 -1.86189e-05)
(0.0985799 0.000371215 -1.84311e-05)
(0.0975417 0.000356695 -1.82212e-05)
(0.0966524 0.000341068 -1.79452e-05)
(0.0956414 0.000327796 -1.76227e-05)
(0.0948038 0.000313171 -1.71908e-05)
(0.0938157 0.000301262 -1.6662e-05)
(0.0930303 0.000287835 -1.59387e-05)
(0.0920595 0.000277601 -1.50132e-05)
(0.0913266 0.000265471 -1.37525e-05)
(0.0903659 0.000256398 -1.21951e-05)
(0.0896864 0.000243616 -1.03624e-05)
(0.0887299 0.00023214 -8.70533e-06)
(0.088111 0.000214444 -7.81764e-06)
(0.0871592 0.000198694 -8.64236e-06)
(0.0866145 0.000179626 -1.13556e-05)
(0.0856642 0.000168704 -1.53015e-05)
(0.0851979 0.000157506 -1.91007e-05)
(0.0842309 0.000155661 -2.24082e-05)
(0.0838406 0.000150435 -2.49756e-05)
(0.0828341 0.000152834 -2.698e-05)
(0.0825225 0.000148125 -2.7874e-05)
(0.0814559 0.000150172 -2.74586e-05)
(0.0812339 0.000141423 -2.48749e-05)
(0.0800894 0.000140758 -2.0344e-05)
(0.0799781 0.000123239 -1.35843e-05)
(0.0787417 0.000122164 -5.14443e-06)
(0.195483 0.00456067 6.91005e-07)
(0.195506 0.00525972 2.02897e-06)
(0.195649 0.00594144 3.42594e-06)
(0.195941 0.00653284 4.86282e-06)
(0.196364 0.00699274 6.13806e-06)
(0.196858 0.00733419 6.97584e-06)
(0.197362 0.0075987 7.24276e-06)
(0.197834 0.00782182 6.99954e-06)
(0.19827 0.00801777 6.39695e-06)
(0.198674 0.00818105 5.55972e-06)
(0.199056 0.00829678 4.53085e-06)
(0.199413 0.00835043 3.29632e-06)
(0.199738 0.00833165 1.83366e-06)
(0.200013 0.00823572 1.38317e-07)
(0.20022 0.00806301 -1.77285e-06)
(0.200342 0.00781912 -3.86478e-06)
(0.200366 0.00751364 -6.08718e-06)
(0.200281 0.00715982 -8.38248e-06)
(0.200084 0.00677335 -1.06887e-05)
(0.199772 0.00637163 -1.29386e-05)
(0.199354 0.00597157 -1.50591e-05)
(0.198833 0.00558825 -1.69765e-05)
(0.198226 0.00523293 -1.86263e-05)
(0.197541 0.00491283 -1.99667e-05)
(0.196798 0.00463075 -2.09867e-05)
(0.196002 0.00438638 -2.17056e-05)
(0.19517 0.00417669 -2.21574e-05)
(0.194303 0.00399708 -2.2387e-05)
(0.193414 0.00384225 -2.24494e-05)
(0.192495 0.00370759 -2.23944e-05)
(0.191558 0.00358853 -2.22622e-05)
(0.190592 0.00348145 -2.20868e-05)
(0.189609 0.00338285 -2.18947e-05)
(0.188596 0.00329035 -2.17071e-05)
(0.187567 0.00320167 -2.15369e-05)
(0.186505 0.00311557 -2.13909e-05)
(0.185429 0.00303079 -2.12686e-05)
(0.184318 0.0029469 -2.11683e-05)
(0.183194 0.00286332 -2.10876e-05)
(0.182035 0.00278035 -2.10234e-05)
(0.180865 0.0026977 -2.09701e-05)
(0.179661 0.00261588 -2.0925e-05)
(0.178451 0.00253468 -2.08828e-05)
(0.177206 0.00245472 -2.0841e-05)
(0.17596 0.0023758 -2.07934e-05)
(0.17468 0.00229852 -2.07382e-05)
(0.173405 0.0022226 -2.06708e-05)
(0.172095 0.00214863 -2.05921e-05)
(0.170796 0.0020762 -2.04997e-05)
(0.169461 0.00200589 -2.03969e-05)
(0.168145 0.00193721 -2.0282e-05)
(0.166791 0.00187074 -2.01599e-05)
(0.165463 0.0018059 -2.0029e-05)
(0.164096 0.00174329 -1.98949e-05)
(0.162763 0.00168226 -1.97555e-05)
(0.161387 0.00162341 -1.96173e-05)
(0.160053 0.00156606 -1.94771e-05)
(0.158673 0.00151084 -1.93423e-05)
(0.157344 0.00145699 -1.92079e-05)
(0.155963 0.00140521 -1.90822e-05)
(0.154645 0.00135469 -1.89585e-05)
(0.153267 0.00130616 -1.88456e-05)
(0.151964 0.00125878 -1.87347e-05)
(0.150591 0.00121333 -1.86357e-05)
(0.149308 0.00116891 -1.85372e-05)
(0.147944 0.00112636 -1.84504e-05)
(0.146684 0.00108474 -1.83607e-05)
(0.145331 0.00104492 -1.82811e-05)
(0.144099 0.00100592 -1.81932e-05)
(0.142757 0.000968674 -1.81118e-05)
(0.141558 0.000932153 -1.80138e-05)
(0.140227 0.000897312 -1.79167e-05)
(0.139065 0.000863102 -1.77913e-05)
(0.137746 0.000830505 -1.76578e-05)
(0.136624 0.000798448 -1.74794e-05)
(0.135317 0.000767948 -1.72796e-05)
(0.13424 0.000737918 -1.7011e-05)
(0.132942 0.000709446 -1.66989e-05)
(0.131914 0.000681473 -1.62776e-05)
(0.130623 0.00065521 -1.57628e-05)
(0.129648 0.00062971 -1.50402e-05)
(0.128359 0.000606248 -1.4067e-05)
(0.127441 0.000583727 -1.26137e-05)
(0.126148 0.000562618 -1.05706e-05)
(0.12529 0.000540248 -7.80089e-06)
(0.123986 0.000515085 -4.7804e-06)
(0.123199 0.000483946 -2.54049e-06)
(0.121886 0.00044871 -2.97171e-06)
(0.121189 0.000413072 -7.05489e-06)
(0.119864 0.0003844 -1.37264e-05)
(0.119263 0.000363956 -2.02658e-05)
(0.117905 0.000352154 -2.56005e-05)
(0.117399 0.000344113 -2.95491e-05)
(0.115982 0.000339344 -3.25572e-05)
(0.115576 0.00033296 -3.43194e-05)
(0.11408 0.000327184 -3.4501e-05)
(0.113789 0.000317035 -3.20024e-05)
(0.112193 0.000307701 -2.66167e-05)
(0.112041 0.00028607 -1.79247e-05)
(0.110332 0.000267043 -6.60122e-06)
(0.196092 0.00446536 5.11318e-07)
(0.196122 0.00502702 1.4679e-06)
(0.196233 0.0055908 2.42629e-06)
(0.196449 0.00611913 3.41696e-06)
(0.196775 0.00657608 4.39048e-06)
(0.197183 0.00694519 5.19083e-06)
(0.197633 0.0072341 5.63924e-06)
(0.198087 0.00746337 5.65919e-06)
(0.198531 0.00764951 5.31536e-06)
(0.19896 0.00779748 4.73804e-06)
(0.199383 0.007902 4.0308e-06)
(0.199799 0.007954 3.23058e-06)
(0.200212 0.00794554 2.32223e-06)
(0.200607 0.00787285 1.27071e-06)
(0.200978 0.00773659 4.84764e-08)
(0.201308 0.00754174 -1.35196e-06)
(0.201589 0.00729626 -2.91726e-06)
(0.201806 0.00701071 -4.61988e-06)
(0.201959 0.00669707 -6.42284e-06)
(0.202035 0.00636847 -8.28146e-06)
(0.202045 0.00603767 -1.0142e-05)
(0.201982 0.00571649 -1.1944e-05)
(0.201862 0.00541434 -1.36251e-05)
(0.201682 0.00513799 -1.51299e-05)
(0.201465 0.00489097 -1.64166e-05)
(0.201206 0.00467417 -1.74622e-05)
(0.200927 0.00448595 -1.82612e-05)
(0.20062 0.00432328 -1.88307e-05)
(0.200306 0.00418223 -1.92073e-05)
(0.199969 0.00405924 -1.94351e-05)
(0.199629 0.00395078 -1.95519e-05)
(0.199266 0.00385392 -1.95885e-05)
(0.198903 0.0037658 -1.95671e-05)
(0.198513 0.00368419 -1.95072e-05)
(0.198123 0.00360697 -1.9423e-05)
(0.197701 0.00353271 -1.9328e-05)
(0.197279 0.00346014 -1.92307e-05)
(0.196821 0.00338863 -1.91401e-05)
(0.196362 0.00331764 -1.90603e-05)
(0.195863 0.00324714 -1.8993e-05)
(0.195364 0.00317695 -1.89334e-05)
(0.19482 0.00310715 -1.88796e-05)
(0.194281 0.00303768 -1.88269e-05)
(0.19369 0.00296866 -1.87753e-05)
(0.193108 0.00290015 -1.87205e-05)
(0.192471 0.0028323 -1.86633e-05)
(0.191847 0.00276521 -1.85994e-05)
(0.191163 0.00269898 -1.85309e-05)
(0.190498 0.00263373 -1.84539e-05)
(0.189767 0.00256948 -1.83722e-05)
(0.189062 0.00250637 -1.82826e-05)
(0.188285 0.0024443 -1.81901e-05)
(0.187543 0.00238346 -1.80912e-05)
(0.186721 0.00232363 -1.79922e-05)
(0.185943 0.00226509 -1.78888e-05)
(0.185078 0.00220747 -1.77885e-05)
(0.184268 0.00215116 -1.76858e-05)
(0.18336 0.00209564 -1.75892e-05)
(0.18252 0.00204145 -1.7492e-05)
(0.181571 0.0019879 -1.74036e-05)
(0.180704 0.0019357 -1.73155e-05)
(0.179716 0.00188397 -1.72381e-05)
(0.178825 0.00183364 -1.71608e-05)
(0.177799 0.0017836 -1.70953e-05)
(0.17689 0.00173505 -1.70285e-05)
(0.175827 0.00168659 -1.69733e-05)
(0.174903 0.00163975 -1.69135e-05)
(0.173805 0.00159277 -1.68636e-05)
(0.172871 0.0015476 -1.68038e-05)
(0.171739 0.00150204 -1.67502e-05)
(0.1708 0.00145851 -1.66782e-05)
(0.169635 0.00141432 -1.6606e-05)
(0.168697 0.00137241 -1.65032e-05)
(0.1675 0.00132954 -1.63905e-05)
(0.166569 0.00128927 -1.62304e-05)
(0.16534 0.00124767 -1.60476e-05)
(0.164422 0.0012091 -1.57964e-05)
(0.163162 0.00116885 -1.55061e-05)
(0.162265 0.00113224 -1.5119e-05)
(0.160972 0.00109378 -1.46575e-05)
(0.160103 0.00106005 -1.40101e-05)
(0.158775 0.0010247 -1.30916e-05)
(0.15794 0.000995487 -1.15363e-05)
(0.156571 0.000963946 -8.89726e-06)
(0.155775 0.000936548 -4.5479e-06)
(0.154359 0.000899151 1.39377e-06)
(0.153615 0.000856709 7.3868e-06)
(0.152159 0.000797365 9.5609e-06)
(0.151496 0.000740631 4.36311e-06)
(0.150005 0.000686165 -7.39427e-06)
(0.14943 0.000654392 -2.02443e-05)
(0.147876 0.000629421 -3.06193e-05)
(0.147384 0.000619832 -3.78546e-05)
(0.145746 0.000605157 -4.29438e-05)
(0.145346 0.000597337 -4.64467e-05)
(0.143606 0.000579634 -4.80578e-05)
(0.143316 0.000568502 -4.6544e-05)
(0.141457 0.000547605 -4.06908e-05)
(0.141296 0.000523299 -2.87995e-05)
(0.139311 0.000479609 -9.95115e-06)
(0.196632 0.00440639 3.47901e-07)
(0.196673 0.00487703 9.69786e-07)
(0.196771 0.00535361 1.56745e-06)
(0.196942 0.00581419 2.19369e-06)
(0.197196 0.00623232 2.87653e-06)
(0.19752 0.00658833 3.55397e-06)
(0.197893 0.00687606 4.08879e-06)
(0.198286 0.00710212 4.35728e-06)
(0.198684 0.00727721 4.32948e-06)
(0.199072 0.00740913 4.06529e-06)
(0.199456 0.00749949 3.66211e-06)
(0.19983 0.00754516 3.19106e-06)
(0.200203 0.00754169 2.66852e-06)
(0.200563 0.00748633 2.06761e-06)
(0.200912 0.00737935 1.34721e-06)
(0.201231 0.00722419 4.74522e-07)
(0.201524 0.00702683 -5.64783e-07)
(0.201769 0.00679524 -1.76754e-06)
(0.201975 0.00653861 -3.11648e-06)
(0.202123 0.00626681 -4.58443e-06)
(0.202229 0.00598971 -6.13464e-06)
(0.202276 0.00571652 -7.72249e-06)
(0.202289 0.00545514 -9.29561e-06)
(0.202253 0.00521156 -1.07988e-05)
(0.202197 0.00498967 -1.21781e-05)
(0.202104 0.00479102 -1.33897e-05)
(0.202007 0.00461545 -1.44061e-05)
(0.201884 0.00446118 -1.5222e-05)
(0.201769 0.00432592 -1.58507e-05)
(0.201632 0.00420683 -1.63188e-05)
(0.201511 0.00410144 -1.66533e-05)
(0.201369 0.00400707 -1.68796e-05)
(0.201246 0.00392167 -1.70165e-05)
(0.201098 0.00384293 -1.70822e-05)
(0.200971 0.00376939 -1.70919e-05)
(0.200815 0.00369926 -1.70629e-05)
(0.200681 0.00363184 -1.7009e-05)
(0.200512 0.00356591 -1.69444e-05)
(0.200368 0.00350147 -1.68762e-05)
(0.200181 0.00343769 -1.68104e-05)
(0.200021 0.00337499 -1.67456e-05)
(0.199813 0.00331259 -1.66829e-05)
(0.199636 0.00325118 -1.66192e-05)
(0.199403 0.00318994 -1.6557e-05)
(0.199206 0.00312979 -1.64939e-05)
(0.198944 0.00306982 -1.64327e-05)
(0.198725 0.00301119 -1.63697e-05)
(0.198434 0.00295278 -1.63075e-05)
(0.198192 0.00289597 -1.62415e-05)
(0.197867 0.00283936 -1.61753e-05)
(0.197601 0.00278455 -1.61042e-05)
(0.197242 0.00272983 -1.60334e-05)
(0.196951 0.00267708 -1.5958e-05)
(0.196556 0.00262421 -1.58845e-05)
(0.196239 0.00257345 -1.58075e-05)
(0.195806 0.0025223 -1.57348e-05)
(0.195464 0.0024734 -1.566e-05)
(0.19499 0.00242378 -1.55921e-05)
(0.194623 0.00237657 -1.55236e-05)
(0.194107 0.00232827 -1.54647e-05)
(0.193714 0.00228256 -1.54062e-05)
(0.193154 0.00223537 -1.53596e-05)
(0.192738 0.00219101 -1.53138e-05)
(0.192132 0.00214472 -1.52813e-05)
(0.191691 0.00210158 -1.52489e-05)
(0.191038 0.00205603 -1.52302e-05)
(0.190576 0.002014 -1.52093e-05)
(0.189873 0.00196906 -1.5201e-05)
(0.189391 0.00192809 -1.51858e-05)
(0.188637 0.00188363 -1.51799e-05)
(0.188137 0.00184368 -1.51592e-05)
(0.187331 0.00179962 -1.51412e-05)
(0.186816 0.0017607 -1.50966e-05)
(0.185956 0.00171692 -1.50448e-05)
(0.18543 0.00167905 -1.49509e-05)
(0.184514 0.0016355 -1.48383e-05)
(0.183981 0.00159875 -1.46697e-05)
(0.183007 0.00155548 -1.44787e-05)
(0.182473 0.00152016 -1.42335e-05)
(0.18144 0.00147772 -1.39811e-05)
(0.18091 0.00144514 -1.36699e-05)
(0.179814 0.00140564 -1.32385e-05)
(0.179293 0.00137916 -1.22616e-05)
(0.178128 0.00134606 -9.85382e-06)
(0.177617 0.0013259 -4.40984e-06)
(0.176371 0.00128875 5.29008e-06)
(0.175879 0.00124931 1.80398e-05)
(0.174566 0.00117579 2.73385e-05)
(0.174131 0.00110521 2.40909e-05)
(0.172769 0.00102857 6.50129e-06)
(0.172397 0.000990674 -1.53788e-05)
(0.17095 0.000956438 -3.25277e-05)
(0.170622 0.000949999 -4.33432e-05)
(0.169067 0.000927293 -5.03638e-05)
(0.168791 0.000921809 -5.59878e-05)
(0.167122 0.000892427 -6.01885e-05)
(0.166916 0.000881041 -6.2071e-05)
(0.165123 0.000845162 -5.91471e-05)
(0.164993 0.000819795 -4.67817e-05)
(0.163066 0.000745325 -1.58908e-05)
(0.197123 0.0043568 2.04418e-07)
(0.197172 0.0047553 5.4574e-07)
(0.197263 0.00515855 8.60781e-07)
(0.197402 0.00555181 1.21057e-06)
(0.197603 0.00591741 1.64717e-06)
(0.197857 0.00623933 2.16428e-06)
(0.198159 0.00650843 2.68484e-06)
(0.198485 0.00672328 3.09987e-06)
(0.198827 0.00688853 3.32657e-06)
(0.199165 0.00701021 3.35214e-06)
(0.199503 0.00709242 3.22577e-06)
(0.19983 0.00713588 3.01507e-06)
(0.200156 0.00713942 2.76338e-06)
(0.200467 0.00710143 2.47277e-06)
(0.200773 0.00702199 2.11389e-06)
(0.201053 0.00690292 1.64613e-06)
(0.201318 0.00674853 1.03609e-06)
(0.201542 0.00656434 2.65683e-07)
(0.20174 0.00635749 -6.66112e-07)
(0.201889 0.00613516 -1.74735e-06)
(0.20201 0.00590523 -2.9552e-06)
(0.20208 0.00567456 -4.2584e-06)
(0.202128 0.00544994 -5.616e-06)
(0.202129 0.00523611 -6.98022e-06)
(0.202121 0.00503723 -8.2989e-06)
(0.202075 0.0048549 -9.52434e-06)
(0.202034 0.00469034 -1.06186e-05)
(0.201963 0.00454244 -1.15602e-05)
(0.201908 0.00441059 -1.23424e-05)
(0.201827 0.0042923 -1.29726e-05)
(0.201771 0.00418649 -1.34647e-05)
(0.201689 0.00409037 -1.38367e-05)
(0.201638 0.00400313 -1.41048e-05)
(0.201557 0.00392209 -1.42862e-05)
(0.201512 0.00384697 -1.43958e-05)
(0.201432 0.00377532 -1.44508e-05)
(0.201391 0.00370754 -1.44651e-05)
(0.20131 0.00364143 -1.44534e-05)
(0.201271 0.00357806 -1.44243e-05)
(0.201185 0.00351533 -1.43866e-05)
(0.201147 0.00345489 -1.43425e-05)
(0.201053 0.00339454 -1.42962e-05)
(0.201014 0.00333637 -1.42468e-05)
(0.20091 0.00327798 -1.41982e-05)
(0.200868 0.00322187 -1.41487e-05)
(0.200752 0.00316535 -1.41022e-05)
(0.200705 0.00311137 -1.40556e-05)
(0.200574 0.00305683 -1.40118e-05)
(0.200522 0.00300513 -1.39664e-05)
(0.200375 0.00295265 -1.39228e-05)
(0.200317 0.00290329 -1.38763e-05)
(0.200151 0.00285287 -1.38316e-05)
(0.200086 0.00280583 -1.37841e-05)
(0.199899 0.00275736 -1.37398e-05)
(0.199826 0.00271255 -1.36938e-05)
(0.199617 0.00266585 -1.36535e-05)
(0.199536 0.0026231 -1.3613e-05)
(0.199302 0.00257795 -1.3581e-05)
(0.199212 0.00253708 -1.35508e-05)
(0.198949 0.00249324 -1.35321e-05)
(0.19885 0.00245404 -1.35174e-05)
(0.198557 0.00241126 -1.35173e-05)
(0.198447 0.00237356 -1.3523e-05)
(0.198121 0.0023316 -1.35462e-05)
(0.198001 0.00229523 -1.35767e-05)
(0.197638 0.00225387 -1.36273e-05)
(0.197508 0.0022187 -1.36857e-05)
(0.197106 0.00217776 -1.3766e-05)
(0.196965 0.00214369 -1.38536e-05)
(0.19652 0.00210297 -1.39634e-05)
(0.196369 0.00206993 -1.4078e-05)
(0.195878 0.00202929 -1.42131e-05)
(0.195718 0.00199723 -1.4348e-05)
(0.195178 0.00195649 -1.44997e-05)
(0.195008 0.00192534 -1.46453e-05)
(0.194416 0.00188432 -1.48058e-05)
(0.194239 0.00185402 -1.49641e-05)
(0.193591 0.00181256 -1.51587e-05)
(0.19341 0.00178312 -1.54049e-05)
(0.192703 0.00174137 -1.57992e-05)
(0.192519 0.00171365 -1.64353e-05)
(0.191751 0.00167348 -1.74543e-05)
(0.191566 0.00165152 -1.87467e-05)
(0.190728 0.00161928 -1.9541e-05)
(0.190535 0.00160967 -1.7717e-05)
(0.189609 0.00158318 -1.01172e-05)
(0.189404 0.00156494 4.73642e-06)
(0.188405 0.00150812 2.13123e-05)
(0.188242 0.00145706 2.71639e-05)
(0.187213 0.00138675 1.72359e-05)
(0.187095 0.00135275 3.33947e-06)
(0.185982 0.00130584 -4.69911e-06)
(0.185862 0.00128726 -7.67413e-06)
(0.18464 0.00124255 -9.86847e-06)
(0.184525 0.00122414 -1.43482e-05)
(0.183197 0.00117649 -2.04789e-05)
(0.183103 0.00115631 -2.81261e-05)
(0.181669 0.00110918 -3.58417e-05)
(0.181579 0.00108451 -3.85763e-05)
(0.180014 0.000988512 -1.42057e-05)
(0.197568 0.0043043 8.04007e-08)
(0.197623 0.00464272 1.89535e-07)
(0.197706 0.00498322 2.83946e-07)
(0.197819 0.00531546 4.23837e-07)
(0.19798 0.00562804 6.58994e-07)
(0.198178 0.0059097 1.00645e-06)
(0.198419 0.00615231 1.43533e-06)
(0.198682 0.0063516 1.87159e-06)
(0.198969 0.00650823 2.23197e-06)
(0.199255 0.00662491 2.46647e-06)
(0.199549 0.00670527 2.57593e-06)
(0.19983 0.00675105 2.59782e-06)
(0.200115 0.00676321 2.57538e-06)
(0.200381 0.00674116 2.53002e-06)
(0.200648 0.00668547 2.45169e-06)
(0.200889 0.00659689 2.30608e-06)
(0.201123 0.00647872 2.05204e-06)
(0.20132 0.00633445 1.65605e-06)
(0.201503 0.00616985 1.1004e-06)
(0.201641 0.0059899 3.81796e-07)
(0.201762 0.00580125 -4.89865e-07)
(0.201834 0.00560873 -1.49343e-06)
(0.201895 0.00541839 -2.59606e-06)
(0.20191 0.00523357 -3.75613e-06)
(0.201923 0.00505858 -4.92584e-06)
(0.201896 0.00489441 -6.05842e-06)
(0.20188 0.00474337 -7.11216e-06)
(0.201828 0.00460429 -8.05679e-06)
(0.201798 0.00447804 -8.87361e-06)
(0.201735 0.00436207 -9.55766e-06)
(0.201703 0.00425679 -1.0113e-05)
(0.201638 0.00415909 -1.05516e-05)
(0.20161 0.00406963 -1.08873e-05)
(0.201546 0.00398515 -1.11357e-05)
(0.201524 0.00390682 -1.13109e-05)
(0.201462 0.00383136 -1.14274e-05)
(0.201447 0.00376057 -1.14974e-05)
(0.201386 0.00369112 -1.15334e-05)
(0.201377 0.00362546 -1.15442e-05)
(0.201315 0.00356012 -1.15393e-05)
(0.201312 0.00349819 -1.15232e-05)
(0.201248 0.00343594 -1.15016e-05)
(0.201249 0.00337706 -1.14757e-05)
(0.20118 0.00331743 -1.14492e-05)
(0.201185 0.00326132 -1.14216e-05)
(0.201111 0.00320413 -1.1396e-05)
(0.201119 0.00315073 -1.13707e-05)
(0.201038 0.00309594 -1.13483e-05)
(0.201049 0.00304528 -1.13262e-05)
(0.20096 0.00299288 -1.13069e-05)
(0.200974 0.00294496 -1.12876e-05)
(0.200876 0.0028949 -1.12715e-05)
(0.200892 0.00284968 -1.12562e-05)
(0.200783 0.00280184 -1.12459e-05)
(0.200802 0.00275922 -1.12381e-05)
(0.200681 0.00271343 -1.12381e-05)
(0.200702 0.00267327 -1.12432e-05)
(0.200568 0.00262932 -1.12595e-05)
(0.200591 0.00259145 -1.12845e-05)
(0.200441 0.00254912 -1.13248e-05)
(0.200466 0.00251335 -1.13781e-05)
(0.200298 0.0024724 -1.14521e-05)
(0.200325 0.00243854 -1.15447e-05)
(0.200138 0.00239873 -1.16644e-05)
(0.200165 0.00236663 -1.18096e-05)
(0.199956 0.00232772 -1.19903e-05)
(0.199984 0.00229723 -1.22054e-05)
(0.199751 0.00225902 -1.24663e-05)
(0.199779 0.00222999 -1.27731e-05)
(0.199518 0.00219229 -1.31387e-05)
(0.199547 0.00216461 -1.35647e-05)
(0.199256 0.00212721 -1.40658e-05)
(0.199284 0.00210075 -1.46458e-05)
(0.198961 0.0020634 -1.53209e-05)
(0.198987 0.00203793 -1.60999e-05)
(0.198628 0.00200026 -1.70026e-05)
(0.198653 0.00197533 -1.80511e-05)
(0.198256 0.00193666 -1.92848e-05)
(0.19828 0.00191138 -2.07753e-05)
(0.197842 0.00187042 -2.26549e-05)
(0.197865 0.00184334 -2.51942e-05)
(0.197384 0.00179868 -2.88804e-05)
(0.197407 0.0017698 -3.45147e-05)
(0.196878 0.00172517 -4.30667e-05)
(0.19689 0.00170496 -5.50343e-05)
(0.196289 0.00168174 -6.83293e-05)
(0.196274 0.00170282 -7.6908e-05)
(0.195612 0.00172721 -7.13705e-05)
(0.195627 0.00177827 -4.45949e-05)
(0.194962 0.00178597 1.05339e-06)
(0.195007 0.00177748 5.33937e-05)
(0.194278 0.00170705 0.000100226)
(0.194297 0.001633 0.000136023)
(0.193483 0.00152126 0.000160958)
(0.193482 0.00143178 0.000176644)
(0.192591 0.00131984 0.000186363)
(0.192579 0.00124907 0.000180984)
(0.191614 0.00118611 0.000153753)
(0.191551 0.00119057 0.000100933)
(0.190478 0.00114232 3.22562e-05)
(0.197972 0.00424538 -2.71651e-08)
(0.198027 0.0045336 -1.1303e-07)
(0.198101 0.00482156 -1.99389e-07)
(0.198193 0.00510228 -2.34394e-07)
(0.198321 0.00536862 -1.74609e-07)
(0.198475 0.00561264 4.80949e-09)
(0.198666 0.00582835 2.99299e-07)
(0.198875 0.00601091 6.71384e-07)
(0.19911 0.00615907 1.06338e-06)
(0.199347 0.00627267 1.42217e-06)
(0.199597 0.00635392 1.72081e-06)
(0.199836 0.00640382 1.96331e-06)
(0.200081 0.00642427 2.17213e-06)
(0.200309 0.00641512 2.36712e-06)
(0.200539 0.00637778 2.54898e-06)
(0.200745 0.00631241 2.69441e-06)
(0.20095 0.00622195 2.76443e-06)
(0.201121 0.00610832 2.71818e-06)
(0.201287 0.0059765 2.52337e-06)
(0.201411 0.0058297 2.15771e-06)
(0.201528 0.00567395 1.61329e-06)
(0.201599 0.00551255 8.98753e-07)
(0.201666 0.00535131 3.96723e-08)
(0.20169 0.00519231 -9.25218e-07)
(0.201716 0.00504013 -1.94864e-06)
(0.201701 0.00489496 -2.98141e-06)
(0.2017 0.0047599 -3.97754e-06)
(0.201661 0.0046333 -4.89967e-06)
(0.201645 0.00451718 -5.72136e-06)
(0.201594 0.00440861 -6.42888e-06)
(0.201574 0.00430926 -7.01936e-06)