/*--------------------------------*- C++ -*----------------------------------*\
| =========                 |                                                 |
| \\      /  F ield         | OpenFOAM: The Open Source CFD Toolbox           |
|  \\    /   O peration     | Version:  2.3.0                                 |
|   \\  /    A nd           | Web:      www.OpenFOAM.org                      |
|    \\/     M anipulation  |                                                 |
\*---------------------------------------------------------------------------*/
FoamFile
{
    version     2.0;
    format      ascii;
    class       volVectorField;
    location    "0.85";
    object      U_0;
}
// * * * * * * * * * * * * * * * * * * * * * * * * * * * * * * * * * * * * * //

dimensions      [0 1 -1 0 0 0 0];

internalField   nonuniform List<vector> 
2250
(
(0.187409 0.00257287 1.70026e-06)
(0.178605 0.00352332 4.92488e-06)
(0.170596 0.00415139 7.41286e-06)
(0.162705 0.00439059 8.92393e-06)
(0.154546 0.00439041 9.73631e-06)
(0.146056 0.00429857 1.0168e-05)
(0.137338 0.00419234 1.03372e-05)
(0.128546 0.00408432 1.01601e-05)
(0.119805 0.00395802 9.47147e-06)
(0.111203 0.00379495 8.13165e-06)
(0.102807 0.00358532 6.06769e-06)
(0.0946846 0.00332794 3.27119e-06)
(0.0869104 0.00302674 -2.11893e-07)
(0.0795693 0.00268718 -4.28275e-06)
(0.0727612 0.00231625 -8.78308e-06)
(0.0665565 0.00191785 -1.34952e-05)
(0.0610135 0.00150329 -1.81577e-05)
(0.0561662 0.00109334 -2.24959e-05)
(0.0520189 0.000713419 -2.62603e-05)
(0.0485432 0.000386318 -2.92631e-05)
(0.0456831 0.000126103 -3.1405e-05)
(0.0433636 -6.39646e-05 -3.26841e-05)
(0.0415011 -0.000189431 -3.31835e-05)
(0.04001 -0.000260474 -3.30447e-05)
(0.0388102 -0.000288556 -3.2435e-05)
(0.0378292 -0.000284387 -3.15203e-05)
(0.0370063 -0.000258511 -3.04443e-05)
(0.036294 -0.0002212 -2.93227e-05)
(0.0356555 -0.000179496 -2.82444e-05)
(0.035062 -0.000137879 -2.72698e-05)
(0.0344939 -9.93565e-05 -2.64327e-05)
(0.0339376 -6.56877e-05 -2.57457e-05)
(0.0333867 -3.76632e-05 -2.52055e-05)
(0.0328375 -1.52519e-05 -2.4799e-05)
(0.0322902 1.94721e-06 -2.45071e-05)
(0.0317457 1.45871e-05 -2.43083e-05)
(0.0312068 2.3288e-05 -2.41809e-05)
(0.0306754 2.87078e-05 -2.41049e-05)
(0.0301545 3.18079e-05 -2.40633e-05)
(0.0296448 3.33886e-05 -2.40408e-05)
(0.0291491 3.38929e-05 -2.40239e-05)
(0.0286674 3.37514e-05 -2.40025e-05)
(0.0282022 3.31553e-05 -2.39685e-05)
(0.0277524 3.23311e-05 -2.39172e-05)
(0.0273199 3.1287e-05 -2.38453e-05)
(0.0269026 3.01589e-05 -2.37522e-05)
(0.0265025 2.88953e-05 -2.36378e-05)
(0.0261164 2.76279e-05 -2.35039e-05)
(0.0257465 2.62793e-05 -2.33521e-05)
(0.0253892 2.49867e-05 -2.31858e-05)
(0.0250469 2.36446e-05 -2.30072e-05)
(0.0247154 2.23992e-05 -2.28202e-05)
(0.0243977 2.11162e-05 -2.26271e-05)
(0.0240889 1.9958e-05 -2.2432e-05)
(0.0237931 1.87609e-05 -2.22363e-05)
(0.0235043 1.77093e-05 -2.20441e-05)
(0.0232277 1.66078e-05 -2.1856e-05)
(0.0229566 1.56687e-05 -2.16758e-05)
(0.0226972 1.46608e-05 -2.15029e-05)
(0.0224418 1.38311e-05 -2.1341e-05)
(0.0221979 1.2908e-05 -2.11883e-05)
(0.0219564 1.21803e-05 -2.10484e-05)
(0.0217267 1.13297e-05 -2.09182e-05)
(0.0214979 1.06951e-05 -2.08013e-05)
(0.0212814 9.90386e-06 -2.06932e-05)
(0.0210643 9.35411e-06 -2.05979e-05)
(0.0208602 8.60905e-06 -2.05089e-05)
(0.0206538 8.13699e-06 -2.0431e-05)
(0.0204617 7.42544e-06 -2.03553e-05)
(0.0202652 7.02546e-06 -2.02875e-05)
(0.0200847 6.33469e-06 -2.0216e-05)
(0.0198975 6.00211e-06 -2.01475e-05)
(0.0197283 5.31894e-06 -2.00664e-05)
(0.0195497 5.05001e-06 -1.99806e-05)
(0.0193917 4.36047e-06 -1.98693e-05)
(0.0192212 4.15413e-06 -1.97406e-05)
(0.0190744 3.44599e-06 -1.95655e-05)
(0.0189111 3.31102e-06 -1.935e-05)
(0.0187755 2.58691e-06 -1.90498e-05)
(0.0186186 2.56282e-06 -1.86625e-05)
(0.0184939 1.86743e-06 -1.81176e-05)
(0.0183415 2.04268e-06 -1.7399e-05)
(0.0182264 1.43291e-06 -1.64158e-05)
(0.0180756 1.81491e-06 -1.51826e-05)
(0.0179689 1.09093e-06 -1.36843e-05)
(0.0178181 1.26169e-06 -1.2138e-05)
(0.017723 -2.13073e-07 -1.08121e-05)
(0.017577 -7.4546e-07 -1.0268e-05)
(0.0175029 -2.89565e-06 -1.08477e-05)
(0.0173668 -3.0604e-06 -1.26717e-05)
(0.017316 -4.32666e-06 -1.51319e-05)
(0.0171816 -2.97995e-06 -1.77242e-05)
(0.0171459 -3.4504e-06 -1.98839e-05)
(0.0170012 -1.40208e-06 -2.15524e-05)
(0.0169766 -2.1128e-06 -2.23273e-05)
(0.0168144 1.34886e-09 -2.21715e-05)
(0.0168036 -1.409e-06 -2.04569e-05)
(0.01662 6.66755e-07 -1.71339e-05)
(0.0166322 -2.08533e-06 -1.15503e-05)
(0.0164261 5.29199e-06 -4.3192e-06)
(0.193833 0.00472055 1.15919e-06)
(0.193539 0.00625078 3.42234e-06)
(0.193246 0.00736919 5.7033e-06)
(0.192837 0.00795447 7.60663e-06)
(0.192117 0.00818004 8.83543e-06)
(0.19096 0.00824807 9.40448e-06)
(0.18934 0.0082801 9.47803e-06)
(0.187299 0.00830875 9.17313e-06)
(0.184899 0.00831739 8.48239e-06)
(0.182186 0.00827862 7.31505e-06)
(0.179197 0.00817363 5.57621e-06)
(0.175956 0.00799342 3.21953e-06)
(0.172495 0.0077359 2.65689e-07)
(0.168841 0.00740082 -3.19886e-06)
(0.165037 0.00699006 -7.02963e-06)
(0.161119 0.00650646 -1.10455e-05)
(0.157132 0.00595919 -1.50571e-05)
(0.153119 0.00536558 -1.8871e-05)
(0.149126 0.00474922 -2.23012e-05)
(0.145187 0.00413647 -2.51891e-05)
(0.141335 0.00355202 -2.74266e-05)
(0.137594 0.00301557 -2.89717e-05)
(0.133984 0.00253973 -2.98518e-05)
(0.130517 0.00213031 -3.0152e-05)
(0.127204 0.00178722 -2.99927e-05)
(0.124043 0.00150656 -2.95073e-05)
(0.121032 0.00128194 -2.88242e-05)
(0.118166 0.00110697 -2.80517e-05)
(0.11544 0.000974027 -2.72669e-05)
(0.112843 0.000874917 -2.65225e-05)
(0.110367 0.000801339 -2.58525e-05)
(0.108001 0.000746112 -2.52774e-05)
(0.105739 0.000703243 -2.48062e-05)
(0.103572 0.000668541 -2.44383e-05)
(0.101495 0.000638847 -2.41654e-05)
(0.0995009 0.000612373 -2.39739e-05)
(0.0975878 0.00058767 -2.38473e-05)
(0.0957492 0.000564197 -2.3768e-05)
(0.0939848 0.000541019 -2.37179e-05)
(0.0922867 0.000517741 -2.36842e-05)
(0.0906565 0.000494015 -2.36565e-05)
(0.089086 0.000470203 -2.36279e-05)
(0.0875784 0.000446435 -2.35912e-05)
(0.0861244 0.000423299 -2.35419e-05)
(0.0847285 0.000400842 -2.34757e-05)
(0.0833803 0.000379532 -2.33914e-05)
(0.0820857 0.000359208 -2.32876e-05)
(0.0808331 0.000340238 -2.31661e-05)
(0.0796298 0.000322313 -2.30275e-05)
(0.0784628 0.000305772 -2.28752e-05)
(0.0773415 0.000290192 -2.27106e-05)
(0.0762508 0.000275926 -2.2538e-05)
(0.0752028 0.000262461 -2.23588e-05)
(0.07418 0.000250191 -2.21775e-05)
(0.0731975 0.000238525 -2.19949e-05)
(0.0722352 0.000227931 -2.18157e-05)
(0.0713116 0.000217738 -2.16396e-05)
(0.0704033 0.000208512 -2.14714e-05)
(0.0695329 0.000199495 -2.13095e-05)
(0.0686729 0.000191368 -2.11587e-05)
(0.067851 0.000183274 -2.1016e-05)
(0.0670347 0.000176028 -2.08865e-05)
(0.0662573 0.000168655 -2.07654e-05)
(0.0654806 0.000162122 -2.06584e-05)
(0.0647446 0.000155313 -2.05587e-05)
(0.064004 0.00014937 -2.04727e-05)
(0.063307 0.000143008 -2.03915e-05)
(0.0625994 0.000137569 -2.03224e-05)
(0.0619393 0.000131567 -2.02539e-05)
(0.0612618 0.000126576 -2.01945e-05)
(0.0606371 0.000120869 -2.01292e-05)
(0.0599872 0.000116287 -2.00683e-05)
(0.0593966 0.000110821 -1.99923e-05)
(0.0587719 0.000106625 -1.9913e-05)
(0.0582146 0.000101355 -1.9805e-05)
(0.0576125 9.75342e-05 -1.96818e-05)
(0.0570881 9.24249e-05 -1.95084e-05)
(0.0565062 8.90047e-05 -1.92978e-05)
(0.0560145 8.40736e-05 -1.89985e-05)
(0.0554498 8.11769e-05 -1.86159e-05)
(0.0549906 7.65826e-05 -1.80684e-05)
(0.0544392 7.44978e-05 -1.73432e-05)
(0.0540116 7.04531e-05 -1.63249e-05)
(0.053468 6.91955e-05 -1.50205e-05)
(0.0530707 6.49996e-05 -1.33833e-05)
(0.0525299 6.30186e-05 -1.164e-05)
(0.0521666 5.63177e-05 -1.00813e-05)
(0.0516302 5.16745e-05 -9.40146e-06)
(0.0513128 4.24593e-05 -1.00878e-05)
(0.0507847 3.85302e-05 -1.23208e-05)
(0.0505198 3.21542e-05 -1.5281e-05)
(0.0499881 3.32244e-05 -1.82799e-05)
(0.0497697 3.01093e-05 -2.06884e-05)
(0.049215 3.38771e-05 -2.25372e-05)
(0.0490413 3.0731e-05 -2.34386e-05)
(0.0484482 3.4742e-05 -2.3415e-05)
(0.0483263 2.95799e-05 -2.17374e-05)
(0.0476813 3.36183e-05 -1.83095e-05)
(0.047627 2.36673e-05 -1.23887e-05)
(0.0469166 3.55542e-05 -4.61152e-06)
(0.194755 0.00471351 8.8349e-07)
(0.194785 0.00569946 2.62693e-06)
(0.194991 0.00658167 4.50507e-06)
(0.195372 0.00722577 6.34298e-06)
(0.195831 0.00763381 7.76561e-06)
(0.196249 0.00789518 8.5176e-06)
(0.19655 0.00809871 8.61614e-06)
(0.196708 0.0082876 8.23408e-06)
(0.19673 0.00846134 7.51585e-06)
(0.196626 0.00859884 6.49315e-06)
(0.196402 0.00867772 5.12038e-06)
(0.196052 0.00868211 3.3479e-06)
(0.195564 0.0086028 1.17006e-06)
(0.194924 0.00843566 -1.36432e-06)
(0.194121 0.00818043 -4.17199e-06)
(0.193148 0.00784264 -7.15603e-06)
(0.192005 0.00743304 -1.0211e-05)
(0.190698 0.00696796 -1.32316e-05)
(0.189241 0.00646802 -1.61128e-05)
(0.187647 0.00595637 -1.8752e-05)
(0.185937 0.00545528 -2.10543e-05)
(0.184131 0.00498363 -2.29435e-05)
(0.182252 0.00455421 -2.43743e-05)
(0.180318 0.00417378 -2.53422e-05)
(0.178349 0.00384308 -2.58843e-05)
(0.176357 0.00355933 -2.60738e-05)
(0.174355 0.00331731 -2.60093e-05)
(0.17235 0.00311214 -2.57839e-05)
(0.170349 0.002938 -2.54571e-05)
(0.16835 0.00278896 -2.50713e-05)
(0.166359 0.00265894 -2.4662e-05)
(0.164371 0.00254295 -2.42613e-05)
(0.162391 0.00243664 -2.38951e-05)
(0.160416 0.00233726 -2.35815e-05)
(0.158452 0.00224251 -2.33285e-05)
(0.156493 0.00215144 -2.3136e-05)
(0.154549 0.00206301 -2.29959e-05)
(0.152612 0.00197714 -2.28954e-05)
(0.150694 0.00189314 -2.28169e-05)
(0.148785 0.00181096 -2.27515e-05)
(0.146899 0.00173024 -2.26944e-05)
(0.145025 0.00165146 -2.2643e-05)
(0.143179 0.00157457 -2.25925e-05)
(0.141348 0.00150028 -2.25393e-05)
(0.139549 0.00142848 -2.24775e-05)
(0.137767 0.00135982 -2.24049e-05)
(0.136021 0.00129398 -2.23179e-05)
(0.134291 0.00123151 -2.22176e-05)
(0.132602 0.00117192 -2.21026e-05)
(0.13093 0.00111572 -2.19764e-05)
(0.129301 0.00106228 -2.18385e-05)
(0.127687 0.00101211 -2.16936e-05)
(0.12612 0.000964451 -2.15415e-05)
(0.124565 0.000919857 -2.13873e-05)
(0.123061 0.000877438 -2.12304e-05)
(0.121566 0.000837842 -2.10765e-05)
(0.120123 0.000800062 -2.09239e-05)
(0.118686 0.000764856 -2.07788e-05)
(0.117305 0.000731105 -2.0638e-05)
(0.115923 0.000699703 -2.05083e-05)
(0.114603 0.000669412 -2.03847e-05)
(0.113275 0.000641285 -2.02746e-05)
(0.112013 0.000613948 -2.01712e-05)
(0.110736 0.000588638 -2.00825e-05)
(0.109531 0.000563819 -1.99994e-05)
(0.108302 0.000540938 -1.99312e-05)
(0.107152 0.000518273 -1.98659e-05)
(0.105969 0.000497502 -1.98144e-05)
(0.104873 0.000476686 -1.97613e-05)
(0.10373 0.000457763 -1.97193e-05)
(0.102687 0.000438538 -1.96688e-05)
(0.101583 0.000421248 -1.96248e-05)
(0.100592 0.000403397 -1.95624e-05)
(0.0995224 0.000387561 -1.94992e-05)
(0.0985821 0.000370897 -1.94032e-05)
(0.0975442 0.000356375 -1.92952e-05)
(0.0966553 0.000340751 -1.9133e-05)
(0.0956448 0.000327478 -1.89393e-05)
(0.0948076 0.00031286 -1.86547e-05)
(0.0938203 0.000300966 -1.82957e-05)
(0.0930357 0.000287611 -1.77664e-05)
(0.092066 0.000277585 -1.70515e-05)
(0.0913341 0.000265969 -1.59859e-05)
(0.0903743 0.000257911 -1.45297e-05)
(0.0896948 0.000246786 -1.25505e-05)
(0.0887371 0.000237425 -1.02616e-05)
(0.0881148 0.00022158 -8.01773e-06)
(0.0871585 0.000206104 -6.83638e-06)
(0.086609 0.000184759 -7.6438e-06)
(0.0856562 0.000169659 -1.08449e-05)
(0.0851892 0.000154264 -1.51477e-05)
(0.0842235 0.000149195 -1.92968e-05)
(0.0838351 0.000141651 -2.24669e-05)
(0.0828318 0.000142231 -2.48311e-05)
(0.0825238 0.000135965 -2.61197e-05)
(0.0814625 0.000136896 -2.64408e-05)
(0.0812459 0.000128033 -2.49555e-05)
(0.0801074 0.000128614 -2.1332e-05)
(0.0800011 0.000114132 -1.46074e-05)
(0.0787692 0.000118157 -5.4768e-06)
(0.195483 0.00456067 6.90995e-07)
(0.195506 0.00525972 2.02894e-06)
(0.195649 0.00594144 3.42588e-06)
(0.195941 0.00653284 4.86272e-06)
(0.196364 0.00699274 6.13793e-06)
(0.196858 0.00733419 6.97567e-06)
(0.197362 0.0075987 7.24255e-06)
(0.197834 0.00782182 6.99928e-06)
(0.19827 0.00801777 6.39663e-06)
(0.198674 0.00818105 5.55933e-06)
(0.199056 0.00829678 4.53039e-06)
(0.199413 0.00835043 3.29577e-06)
(0.199738 0.00833165 1.83301e-06)
(0.200013 0.00823572 1.37562e-07)
(0.20022 0.00806301 -1.77373e-06)
(0.200342 0.00781911 -3.86579e-06)
(0.200366 0.00751363 -6.08835e-06)
(0.200281 0.00715981 -8.38383e-06)
(0.200084 0.00677335 -1.06903e-05)
(0.199772 0.00637163 -1.29404e-05)
(0.199354 0.00597156 -1.50612e-05)
(0.198833 0.00558824 -1.69788e-05)
(0.198226 0.00523292 -1.86289e-05)
(0.197541 0.00491282 -1.99697e-05)
(0.196798 0.00463074 -2.09901e-05)
(0.196002 0.00438637 -2.17094e-05)
(0.19517 0.00417668 -2.21618e-05)
(0.194303 0.00399707 -2.2392e-05)
(0.193414 0.00384225 -2.2455e-05)
(0.192495 0.00370759 -2.24007e-05)
(0.191558 0.00358853 -2.22694e-05)
(0.190592 0.00348144 -2.20949e-05)
(0.189609 0.00338284 -2.19038e-05)
(0.188596 0.00329033 -2.17173e-05)
(0.187567 0.00320165 -2.15484e-05)
(0.186505 0.00311556 -2.14039e-05)
(0.185429 0.00303078 -2.12832e-05)
(0.184318 0.00294688 -2.11847e-05)
(0.183194 0.0028633 -2.11061e-05)
(0.182035 0.00278032 -2.10442e-05)
(0.180865 0.00269768 -2.09935e-05)
(0.179661 0.00261585 -2.09513e-05)
(0.178451 0.00253465 -2.09124e-05)
(0.177206 0.00245469 -2.08743e-05)
(0.17596 0.00237576 -2.08308e-05)
(0.17468 0.00229848 -2.07802e-05)
(0.173405 0.00222255 -2.0718e-05)
(0.172095 0.00214857 -2.06452e-05)
(0.170796 0.00207614 -2.05593e-05)
(0.169461 0.00200582 -2.04639e-05)
(0.168145 0.00193714 -2.03573e-05)
(0.166791 0.00187065 -2.02445e-05)
(0.165463 0.00180581 -2.0124e-05)
(0.164096 0.00174318 -2.00016e-05)
(0.162763 0.00168214 -1.98753e-05)
(0.161387 0.00162328 -1.97518e-05)
(0.160053 0.00156591 -1.9628e-05)
(0.158673 0.00151067 -1.95114e-05)
(0.157344 0.00145681 -1.93975e-05)
(0.155964 0.00140501 -1.92946e-05)
(0.154645 0.00135447 -1.91963e-05)
(0.153267 0.00130592 -1.91118e-05)
(0.151964 0.00125851 -1.90325e-05)
(0.150592 0.00121303 -1.89687e-05)
(0.149308 0.00116858 -1.89093e-05)
(0.147945 0.00112599 -1.8866e-05)
(0.146685 0.00108434 -1.88246e-05)
(0.145331 0.00104448 -1.87984e-05)
(0.1441 0.00100546 -1.87695e-05)
(0.142758 0.000968169 -1.87534e-05)
(0.141559 0.000931615 -1.87273e-05)
(0.140229 0.000896741 -1.87093e-05)
(0.139066 0.000862503 -1.86709e-05)
(0.137748 0.00082988 -1.86329e-05)
(0.136626 0.000797805 -1.85599e-05)
(0.13532 0.000767287 -1.84767e-05)
(0.134242 0.000737248 -1.83385e-05)
(0.132945 0.000708761 -1.81748e-05)
(0.131917 0.00068078 -1.79267e-05)
(0.130627 0.000654515 -1.76205e-05)
(0.129653 0.00062908 -1.71574e-05)
(0.128366 0.000605868 -1.65083e-05)
(0.127449 0.000584061 -1.54369e-05)
(0.126157 0.000564531 -1.37592e-05)
(0.1253 0.000545001 -1.11266e-05)
(0.123995 0.000523858 -7.58534e-06)
(0.123203 0.000496831 -3.58414e-06)
(0.121885 0.000463315 -7.91065e-07)
(0.121182 0.00042466 -1.28031e-06)
(0.119854 0.000388681 -6.23178e-06)
(0.119253 0.000360022 -1.35901e-05)
(0.117896 0.000341438 -2.06498e-05)
(0.117392 0.000328423 -2.59316e-05)
(0.115979 0.00031986 -2.96924e-05)
(0.115577 0.000310333 -3.20108e-05)
(0.114086 0.00030224 -3.31788e-05)
(0.113802 0.000291443 -3.23079e-05)
(0.112212 0.000283863 -2.8509e-05)
(0.112066 0.000267816 -2.01186e-05)
(0.110363 0.000259432 -7.52538e-06)
(0.196092 0.00446536 5.11308e-07)
(0.196122 0.00502702 1.46787e-06)
(0.196233 0.0055908 2.42623e-06)
(0.196449 0.00611913 3.41687e-06)
(0.196775 0.00657608 4.39036e-06)
(0.197183 0.00694519 5.19067e-06)
(0.197633 0.0072341 5.63904e-06)
(0.198087 0.00746337 5.65894e-06)
(0.198531 0.00764951 5.31505e-06)
(0.19896 0.00779748 4.73767e-06)
(0.199383 0.00790199 4.03035e-06)
(0.199799 0.007954 3.23005e-06)
(0.200212 0.00794554 2.32161e-06)
(0.200607 0.00787284 1.26999e-06)
(0.200978 0.00773659 4.76383e-08)
(0.201308 0.00754174 -1.35293e-06)
(0.201589 0.00729626 -2.91838e-06)
(0.201806 0.0070107 -4.62118e-06)
(0.201959 0.00669707 -6.42432e-06)
(0.202035 0.00636846 -8.28316e-06)
(0.202045 0.00603767 -1.01439e-05)
(0.201982 0.00571649 -1.19463e-05)
(0.201862 0.00541433 -1.36276e-05)
(0.201682 0.00513799 -1.51328e-05)
(0.201465 0.00489096 -1.64199e-05)
(0.201206 0.00467417 -1.7466e-05)
(0.200927 0.00448595 -1.82655e-05)
(0.20062 0.00432327 -1.88355e-05)
(0.200306 0.00418223 -1.92127e-05)
(0.199969 0.00405923 -1.94412e-05)
(0.199629 0.00395077 -1.95588e-05)
(0.199266 0.00385391 -1.95963e-05)
(0.198903 0.00376579 -1.95759e-05)
(0.198513 0.00368418 -1.95171e-05)
(0.198123 0.00360695 -1.94343e-05)
(0.197701 0.00353269 -1.93407e-05)
(0.197279 0.00346012 -1.9245e-05)
(0.196821 0.0033886 -1.91563e-05)
(0.196362 0.00331762 -1.90785e-05)
(0.195863 0.00324711 -1.90136e-05)
(0.195364 0.00317692 -1.89566e-05)
(0.19482 0.00310712 -1.89058e-05)
(0.194281 0.00303764 -1.88564e-05)
(0.19369 0.00296862 -1.88085e-05)
(0.193108 0.0029001 -1.8758e-05)
(0.192471 0.00283224 -1.87056e-05)
(0.191847 0.00276514 -1.86471e-05)
(0.191163 0.00269891 -1.85847e-05)
(0.190498 0.00263365 -1.85145e-05)
(0.189767 0.00256939 -1.84406e-05)
(0.189062 0.00250627 -1.83597e-05)
(0.188286 0.00244418 -1.8277e-05)
(0.187543 0.00238333 -1.81892e-05)
(0.186722 0.00232349 -1.81027e-05)
(0.185943 0.00226492 -1.80135e-05)
(0.185079 0.00220729 -1.79289e-05)
(0.184268 0.00215095 -1.78441e-05)
(0.18336 0.00209541 -1.77675e-05)
(0.18252 0.00204118 -1.76929e-05)
(0.181571 0.0019876 -1.76297e-05)
(0.180704 0.00193537 -1.75701e-05)
(0.179716 0.00188359 -1.75246e-05)
(0.178826 0.00183323 -1.74833e-05)
(0.177799 0.00178313 -1.74581e-05)
(0.17689 0.00173454 -1.74365e-05)
(0.175827 0.00168601 -1.7432e-05)
(0.174903 0.00163912 -1.7429e-05)
(0.173805 0.00159208 -1.74426e-05)
(0.172871 0.00154684 -1.74537e-05)
(0.171739 0.00150121 -1.74792e-05)
(0.170801 0.0014576 -1.74952e-05)
(0.169636 0.00141334 -1.75207e-05)
(0.168698 0.00137137 -1.75262e-05)
(0.167501 0.00132843 -1.75336e-05)
(0.16657 0.0012881 -1.75067e-05)
(0.165342 0.00124644 -1.74719e-05)
(0.164425 0.00120781 -1.7387e-05)
(0.163165 0.00116749 -1.7287e-05)
(0.162268 0.00113081 -1.71256e-05)
(0.160976 0.00109225 -1.6946e-05)
(0.160107 0.00105846 -1.6676e-05)
(0.158781 0.0010232 -1.62899e-05)
(0.157947 0.000994628 -1.54888e-05)
(0.15658 0.000964955 -1.38212e-05)
(0.155785 0.000941621 -1.04235e-05)
(0.154369 0.000911012 -4.6752e-06)
(0.153621 0.000876974 3.17065e-06)
(0.152158 0.000823565 1.04135e-05)
(0.151486 0.000765012 1.24148e-05)
(0.14999 0.00069971 5.51979e-06)
(0.149414 0.000653294 -7.63279e-06)
(0.147864 0.000615075 -2.12364e-05)
(0.147375 0.000595603 -3.16932e-05)
(0.14574 0.000573649 -3.887e-05)
(0.145344 0.000560005 -4.34969e-05)
(0.14361 0.000537846 -4.64467e-05)
(0.143327 0.000524329 -4.71777e-05)
(0.141476 0.000504275 -4.40102e-05)
(0.141323 0.00048753 -3.35543e-05)
(0.139346 0.000464934 -1.26806e-05)
(0.196632 0.00440639 3.47892e-07)
(0.196673 0.00487703 9.69757e-07)
(0.196771 0.00535361 1.5674e-06)
(0.196942 0.00581419 2.19361e-06)
(0.197196 0.00623232 2.87642e-06)
(0.19752 0.00658833 3.55383e-06)
(0.197893 0.00687606 4.0886e-06)
(0.198286 0.00710212 4.35705e-06)
(0.198684 0.00727721 4.3292e-06)
(0.199072 0.00740913 4.06495e-06)
(0.199456 0.00749949 3.6617e-06)
(0.19983 0.00754516 3.19057e-06)
(0.200203 0.00754168 2.66795e-06)
(0.200563 0.00748633 2.06694e-06)
(0.200912 0.00737935 1.34643e-06)
(0.201231 0.00722418 4.73615e-07)
(0.201524 0.00702683 -5.65832e-07)
(0.201769 0.00679523 -1.76875e-06)
(0.201975 0.00653861 -3.11787e-06)
(0.202123 0.0062668 -4.58602e-06)
(0.202229 0.00598971 -6.13647e-06)
(0.202276 0.00571652 -7.72458e-06)
(0.202289 0.00545514 -9.298e-06)
(0.202253 0.00521156 -1.08015e-05)
(0.202197 0.00498966 -1.21812e-05)
(0.202104 0.00479102 -1.33933e-05)
(0.202007 0.00461544 -1.44101e-05)
(0.201884 0.00446117 -1.52265e-05)
(0.201768 0.00432591 -1.58558e-05)
(0.201632 0.00420682 -1.63246e-05)
(0.201511 0.00410143 -1.666e-05)
(0.201369 0.00400706 -1.68871e-05)
(0.201246 0.00392166 -1.7025e-05)
(0.201098 0.00384292 -1.70918e-05)
(0.200971 0.00376938 -1.71028e-05)
(0.200815 0.00369924 -1.70753e-05)
(0.200681 0.00363182 -1.7023e-05)
(0.200512 0.00356588 -1.69602e-05)
(0.200367 0.00350145 -1.68941e-05)
(0.200181 0.00343765 -1.68307e-05)
(0.200021 0.00337495 -1.67685e-05)
(0.199813 0.00331255 -1.67088e-05)
(0.199636 0.00325114 -1.66485e-05)
(0.199403 0.00318988 -1.65903e-05)
(0.199206 0.00312973 -1.65315e-05)
(0.198944 0.00306975 -1.64753e-05)
(0.198725 0.00301112 -1.64179e-05)
(0.198434 0.00295269 -1.63621e-05)
(0.198191 0.00289587 -1.63033e-05)
(0.197867 0.00283924 -1.62453e-05)
(0.197601 0.00278443 -1.61836e-05)
(0.197242 0.00272968 -1.61234e-05)
(0.196951 0.00267691 -1.606e-05)
(0.196556 0.00262402 -1.60002e-05)
(0.196239 0.00257323 -1.59387e-05)
(0.195806 0.00252205 -1.58836e-05)
(0.195464 0.00247312 -1.58287e-05)
(0.19499 0.00242346 -1.57834e-05)
(0.194623 0.0023762 -1.57406e-05)
(0.194107 0.00232785 -1.57107e-05)
(0.193714 0.0022821 -1.56852e-05)
(0.193154 0.00223483 -1.56761e-05)
(0.192737 0.00219041 -1.56728e-05)
(0.192132 0.00214404 -1.56886e-05)
(0.191691 0.00210082 -1.57111e-05)
(0.191038 0.00205517 -1.57547e-05)
(0.190576 0.00201304 -1.58044e-05)
(0.189873 0.00196797 -1.58762e-05)
(0.189391 0.00192687 -1.59517e-05)
(0.188638 0.00188228 -1.60483e-05)
(0.188137 0.00184218 -1.61435e-05)
(0.187332 0.00179795 -1.62561e-05)
(0.186817 0.00175886 -1.63587e-05)
(0.185957 0.00171491 -1.64721e-05)
(0.185431 0.00167685 -1.65639e-05)
(0.184515 0.0016331 -1.66596e-05)
(0.183983 0.00159612 -1.67263e-05)
(0.18301 0.00155259 -1.6804e-05)
(0.182476 0.00151696 -1.68758e-05)
(0.181443 0.00147411 -1.70184e-05)
(0.180914 0.00144099 -1.72464e-05)
(0.179819 0.0014009 -1.76245e-05)
(0.179301 0.0013741 -1.7936e-05)
(0.178138 0.00134182 -1.75106e-05)
(0.177629 0.00132528 -1.46967e-05)
(0.176385 0.00129642 -7.33353e-06)
(0.175888 0.00127 5.58974e-06)
(0.174565 0.00120932 2.08175e-05)
(0.174117 0.00114211 2.9806e-05)
(0.172747 0.00105401 2.31081e-05)
(0.172373 0.00099665 2.51112e-06)
(0.17093 0.000944382 -2.06032e-05)
(0.170606 0.00092522 -3.79545e-05)
(0.169056 0.000893629 -4.87992e-05)
(0.168785 0.000880611 -5.54317e-05)
(0.167123 0.000844235 -6.01493e-05)
(0.166924 0.000826402 -6.37451e-05)
(0.165141 0.000786066 -6.39637e-05)
(0.165023 0.00076387 -5.51521e-05)
(0.163111 0.000721207 -2.18015e-05)
(0.197123 0.0043568 2.0441e-07)
(0.197172 0.0047553 5.45714e-07)
(0.197263 0.00515855 8.60734e-07)
(0.197402 0.00555181 1.2105e-06)
(0.197603 0.00591741 1.64707e-06)
(0.197857 0.00623933 2.16415e-06)
(0.198159 0.00650843 2.68468e-06)
(0.198485 0.00672328 3.09966e-06)
(0.198827 0.00688853 3.32632e-06)
(0.199165 0.00701021 3.35183e-06)
(0.199503 0.00709242 3.2254e-06)
(0.19983 0.00713588 3.01463e-06)
(0.200156 0.00713942 2.76286e-06)
(0.200467 0.00710143 2.47217e-06)
(0.200773 0.00702199 2.11319e-06)
(0.201053 0.00690292 1.64531e-06)
(0.201318 0.00674853 1.03514e-06)
(0.201542 0.00656434 2.64587e-07)
(0.20174 0.00635749 -6.67374e-07)
(0.201889 0.00613516 -1.7488e-06)
(0.20201 0.00590523 -2.95687e-06)
(0.20208 0.00567456 -4.26031e-06)
(0.202128 0.00544993 -5.61818e-06)
(0.202129 0.0052361 -6.98271e-06)
(0.202121 0.00503723 -8.30175e-06)
(0.202075 0.00485489 -9.52759e-06)
(0.202034 0.00469034 -1.06223e-05)
(0.201963 0.00454243 -1.15644e-05)
(0.201908 0.00441058 -1.23472e-05)
(0.201827 0.00429229 -1.29781e-05)
(0.201771 0.00418648 -1.34709e-05)
(0.201689 0.00409035 -1.38438e-05)
(0.201638 0.00400312 -1.41128e-05)
(0.201557 0.00392207 -1.42954e-05)
(0.201512 0.00384695 -1.44062e-05)
(0.201432 0.0037753 -1.44626e-05)
(0.201391 0.00370752 -1.44785e-05)
(0.20131 0.0036414 -1.44686e-05)
(0.201271 0.00357803 -1.44416e-05)
(0.201185 0.0035153 -1.44063e-05)
(0.201147 0.00345485 -1.43648e-05)
(0.201053 0.0033945 -1.43216e-05)
(0.201014 0.00333632 -1.42757e-05)
(0.20091 0.00327792 -1.42311e-05)
(0.200868 0.0032218 -1.41862e-05)
(0.200752 0.00316527 -1.41449e-05)
(0.200705 0.00311128 -1.41041e-05)
(0.200574 0.00305673 -1.40671e-05)
(0.200522 0.00300501 -1.40295e-05)
(0.200375 0.00295251 -1.39947e-05)
(0.200316 0.00290313 -1.39583e-05)
(0.200151 0.00285269 -1.39252e-05)
(0.200086 0.00280562 -1.38909e-05)
(0.199899 0.00275712 -1.38619e-05)
(0.199826 0.00271226 -1.38332e-05)
(0.199617 0.00266552 -1.38127e-05)
(0.199536 0.00262272 -1.3795e-05)
(0.199301 0.00257752 -1.3789e-05)
(0.199211 0.00253658 -1.37886e-05)
(0.198949 0.00249266 -1.38041e-05)
(0.19885 0.00245338 -1.38286e-05)
(0.198556 0.00241049 -1.38735e-05)
(0.198447 0.00237268 -1.39309e-05)
(0.198121 0.00233058 -1.40136e-05)
(0.198001 0.00229406 -1.41124e-05)
(0.197638 0.00225252 -1.42414e-05)
(0.197508 0.00221716 -1.43902e-05)
(0.197105 0.00217598 -1.45741e-05)
(0.196965 0.00214165 -1.47807e-05)
(0.19652 0.00210064 -1.50269e-05)
(0.196369 0.00206727 -1.52978e-05)
(0.195878 0.00202624 -1.56116e-05)
(0.195718 0.00199375 -1.59502e-05)
(0.195178 0.00195251 -1.63333e-05)
(0.195009 0.00192082 -1.67404e-05)
(0.194417 0.00187916 -1.71948e-05)
(0.19424 0.00184813 -1.76812e-05)
(0.193593 0.0018058 -1.82406e-05)
(0.193411 0.00177531 -1.88944e-05)
(0.192705 0.00173221 -1.97574e-05)
(0.192521 0.00170272 -2.09781e-05)
(0.191755 0.00166016 -2.2839e-05)
(0.191571 0.00163516 -2.55377e-05)
(0.190738 0.00159961 -2.88162e-05)
(0.190549 0.00158779 -3.10403e-05)
(0.189627 0.00156304 -2.88246e-05)
(0.18942 0.00155351 -1.88489e-05)
(0.18841 0.00151107 -1.82204e-06)
(0.188226 0.00147173 1.36617e-05)
(0.187182 0.00140318 1.41447e-05)
(0.18706 0.00136617 1.20587e-07)
(0.185954 0.00131847 -1.43032e-05)
(0.185841 0.00130193 -2.13014e-05)
(0.184624 0.00125892 -2.28873e-05)
(0.184514 0.00123905 -2.35047e-05)
(0.183192 0.00118596 -2.60956e-05)
(0.183106 0.00115588 -3.25914e-05)
(0.181683 0.0010933 -4.12806e-05)
(0.181611 0.00104944 -4.75887e-05)
(0.180072 0.000968414 -2.13363e-05)
(0.197568 0.0043043 8.03939e-08)
(0.197623 0.00464272 1.89513e-07)
(0.197706 0.00498322 2.83907e-07)
(0.197819 0.00531546 4.23777e-07)
(0.19798 0.00562804 6.58911e-07)
(0.198178 0.0059097 1.00634e-06)
(0.198419 0.00615231 1.43519e-06)
(0.198682 0.0063516 1.87141e-06)
(0.198969 0.00650823 2.23176e-06)
(0.199255 0.00662491 2.46621e-06)
(0.199549 0.00670527 2.57562e-06)
(0.19983 0.00675105 2.59745e-06)
(0.200115 0.00676321 2.57494e-06)
(0.200381 0.00674116 2.52951e-06)
(0.200648 0.00668547 2.45108e-06)
(0.200889 0.00659689 2.30538e-06)
(0.201123 0.00647872 2.05122e-06)
(0.20132 0.00633444 1.6551e-06)
(0.201503 0.00616985 1.09931e-06)
(0.201641 0.0059899 3.80537e-07)
(0.201762 0.00580125 -4.91313e-07)
(0.201834 0.00560872 -1.4951e-06)
(0.201895 0.00541839 -2.59797e-06)
(0.20191 0.00523356 -3.75832e-06)
(0.201923 0.00505857 -4.92836e-06)
(0.201896 0.0048944 -6.0613e-06)
(0.20188 0.00474337 -7.11546e-06)
(0.201828 0.00460428 -8.06057e-06)
(0.201798 0.00447803 -8.87793e-06)
(0.201735 0.00436206 -9.56259e-06)
(0.201703 0.00425678 -1.01186e-05)
(0.201638 0.00415908 -1.05581e-05)
(0.20161 0.00406962 -1.08946e-05)
(0.201546 0.00398513 -1.11442e-05)
(0.201524 0.0039068 -1.13205e-05)
(0.201462 0.00383134 -1.14384e-05)
(0.201447 0.00376055 -1.15099e-05)
(0.201386 0.00369109 -1.15478e-05)
(0.201377 0.00362543 -1.15607e-05)
(0.201315 0.00356008 -1.15581e-05)
(0.201312 0.00349814 -1.15447e-05)
(0.201248 0.00343589 -1.15262e-05)
(0.201249 0.003377 -1.15039e-05)
(0.20118 0.00331737 -1.14814e-05)
(0.201185 0.00326124 -1.14586e-05)
(0.201111 0.00320404 -1.14383e-05)
(0.201119 0.00315063 -1.14193e-05)
(0.201038 0.00309582 -1.14041e-05)
(0.201049 0.00304514 -1.13902e-05)
(0.20096 0.00299271 -1.13805e-05)
(0.200974 0.00294477 -1.13721e-05)
(0.200876 0.00289467 -1.13687e-05)
(0.200892 0.00284941 -1.1368e-05)
(0.200783 0.00280153 -1.13745e-05)
(0.200802 0.00275885 -1.13862e-05)
(0.200681 0.002713 -1.14087e-05)
(0.200702 0.00267277 -1.14397e-05)
(0.200567 0.00262874 -1.14861e-05)
(0.20059 0.00259077 -1.15456e-05)
(0.200441 0.00254831 -1.1626e-05)
(0.200465 0.00251241 -1.17257e-05)
(0.200298 0.00247129 -1.18533e-05)
(0.200324 0.00243725 -1.2008e-05)
(0.200137 0.00239721 -1.21997e-05)
(0.200165 0.00236484 -1.24283e-05)
(0.199956 0.00232563 -1.27056e-05)
(0.199984 0.00229477 -1.30324e-05)
(0.19975 0.00225613 -1.34224e-05)
(0.199778 0.00222661 -1.38782e-05)
(0.199518 0.00218831 -1.44154e-05)
(0.199546 0.00215994 -1.50386e-05)
(0.199256 0.00212172 -1.5765e-05)
(0.199283 0.00209432 -1.66012e-05)
(0.19896 0.00205584 -1.7565e-05)
(0.198987 0.00202907 -1.86645e-05)
(0.198628 0.00198985 -1.99166e-05)
(0.198653 0.00196311 -2.13331e-05)
(0.198256 0.00192225 -2.2936e-05)
(0.19828 0.00189436 -2.47632e-05)
(0.197842 0.00185016 -2.68976e-05)
(0.197865 0.00181895 -2.95392e-05)
(0.197385 0.00176875 -3.31179e-05)
(0.197409 0.00173216 -3.84774e-05)
(0.196882 0.00167643 -4.69934e-05)
(0.1969 0.00164114 -6.02169e-05)
(0.196304 0.00160054 -7.84294e-05)
(0.196292 0.00160724 -9.88476e-05)
(0.195622 0.00163007 -0.000113562)
(0.195618 0.00170255 -0.00011114)
(0.194937 0.00175581 -8.37325e-05)
(0.194981 0.00180479 -3.49807e-05)
(0.194259 0.00178905 2.13572e-05)
(0.194284 0.00175937 7.12325e-05)
(0.193473 0.00168056 0.000108923)
(0.193473 0.00161327 0.000133597)
(0.192583 0.00151541 0.000146056)
(0.192574 0.00144482 0.000145122)
(0.191613 0.00136036 0.000127729)
(0.191571 0.00130591 8.78159e-05)
(0.190533 0.00117894 3.02876e-05)
(0.197972 0.00424538 -2.71701e-08)
(0.198027 0.0045336 -1.13046e-07)
(0.198101 0.00482156 -1.99418e-07)
(0.198193 0.00510228 -2.34439e-07)
(0.198321 0.00536862 -1.74672e-07)
(0.198475 0.00561264 4.72587e-09)
(0.198666 0.00582835 2.99191e-07)
(0.198875 0.00601091 6.71249e-07)
(0.19911 0.00615907 1.06322e-06)
(0.199347 0.00627267 1.42197e-06)
(0.199597 0.00635392 1.72057e-06)
(0.199836 0.00640382 1.96303e-06)
(0.200081 0.00642426 2.17178e-06)
(0.200309 0.00641512 2.36671e-06)
(0.200539 0.00637778 2.5485e-06)
(0.200745 0.00631241 2.69386e-06)
(0.20095 0.00622195 2.76378e-06)
(0.201121 0.00610832 2.71743e-06)
(0.201287 0.0059765 2.5225e-06)
(0.201411 0.0058297 2.1567e-06)
(0.201528 0.00567395 1.61212e-06)
(0.201599 0.00551255 8.974e-07)
(0.201666 0.00535131 3.81108e-08)
(0.20169 0.00519231 -9.27019e-07)
(0.201716 0.00504013 -1.95072e-06)
(0.201701 0.00489496 -2.9838e-06)
(0.2017 0.0047599 -3.98029e-06)
(0.201661 0.00463329 -4.90284e-06)
(0.201645 0.00451718 -5.72501e-06)
(0.201594 0.00440861 -6.43309e-06)
(0.201574 0.00430925 -7.0242e-06)