/*--------------------------------*- C++ -*----------------------------------*\
| =========                 |                                                 |
| \\      /  F ield         | OpenFOAM: The Open Source CFD Toolbox           |
|  \\    /   O peration     | Version:  2.3.0                                 |
|   \\  /    A nd           | Web:      www.OpenFOAM.org                      |
|    \\/     M anipulation  |                                                 |
\*---------------------------------------------------------------------------*/
FoamFile
{
    version     2.0;
    format      ascii;
    class       volVectorField;
    location    "0.7";
    object      U;
}
// * * * * * * * * * * * * * * * * * * * * * * * * * * * * * * * * * * * * * //

dimensions      [0 1 -1 0 0 0 0];

internalField   nonuniform List<vector> 
3375
(
(0.170605 0.00600295 0)
(0.154071 0.0060619 0)
(0.138182 0.00563573 0)
(0.123131 0.00503027 0)
(0.109327 0.00436222 0)
(0.0969383 0.00368519 0)
(0.0859788 0.00303626 0)
(0.0764139 0.00244114 0)
(0.0681865 0.00191553 0)
(0.0612097 0.00146735 0)
(0.0553672 0.00109824 0)
(0.0505232 0.000804538 0)
(0.0465339 0.000578574 0)
(0.0432578 0.000410318 0)
(0.0405631 0.000288964 0)
(0.0383326 0.000204155 0)
(0.0364669 0.000146737 0)
(0.0348843 0.000109096 0)
(0.0335204 8.51995e-05 0)
(0.0323253 7.04717e-05 0)
(0.0312616 6.15858e-05 0)
(0.0303019 5.62271e-05 0)
(0.0294258 5.28611e-05 0)
(0.0286189 5.05243e-05 0)
(0.0278704 4.86504e-05 0)
(0.0271724 4.69345e-05 0)
(0.0265188 4.52337e-05 0)
(0.0259048 4.34982e-05 0)
(0.0253267 4.17269e-05 0)
(0.0247811 3.99399e-05 0)
(0.0242653 3.81632e-05 0)
(0.0237768 3.64212e-05 0)
(0.0233134 3.47329e-05 0)
(0.0228733 3.31117e-05 0)
(0.0224545 3.15658e-05 0)
(0.0220555 3.00991e-05 0)
(0.0216749 2.87124e-05 0)
(0.0213114 2.74043e-05 0)
(0.0209636 2.6172e-05 0)
(0.0206307 2.50118e-05 0)
(0.0203116 2.39197e-05 0)
(0.0200053 2.28916e-05 0)
(0.0197112 2.19231e-05 0)
(0.0194283 2.10104e-05 0)
(0.0191562 2.01497e-05 0)
(0.018894 1.93373e-05 0)
(0.0186413 1.857e-05 0)
(0.0183975 1.78446e-05 0)
(0.0181621 1.71584e-05 0)
(0.0179347 1.65087e-05 0)
(0.0177149 1.58931e-05 0)
(0.0175022 1.53094e-05 0)
(0.0172963 1.47554e-05 0)
(0.0170968 1.42293e-05 0)
(0.0169035 1.37293e-05 0)
(0.016716 1.32537e-05 0)
(0.0165341 1.2801e-05 0)
(0.0163576 1.23698e-05 0)
(0.0161861 1.19588e-05 0)
(0.0160194 1.15668e-05 0)
(0.0158574 1.11926e-05 0)
(0.0156998 1.08352e-05 0)
(0.0155464 1.04935e-05 0)
(0.0153972 1.01668e-05 0)
(0.0152518 9.85401e-06 0)
(0.0151102 9.55452e-06 0)
(0.0149722 9.26757e-06 0)
(0.0148377 8.99244e-06 0)
(0.0147065 8.72856e-06 0)
(0.0145786 8.47534e-06 0)
(0.0144538 8.23221e-06 0)
(0.0143319 7.99875e-06 0)
(0.014213 7.77448e-06 0)
(0.0140968 7.55901e-06 0)
(0.0139833 7.35197e-06 0)
(0.0138725 7.15303e-06 0)
(0.0137642 6.96189e-06 0)
(0.0136583 6.77833e-06 0)
(0.0135548 6.60212e-06 0)
(0.0134535 6.43308e-06 0)
(0.0133545 6.27107e-06 0)
(0.0132577 6.116e-06 0)
(0.0131629 5.96781e-06 0)
(0.01307 5.82649e-06 0)
(0.0129792 5.69206e-06 0)
(0.0128902 5.56462e-06 0)
(0.0128029 5.44431e-06 0)
(0.0127174 5.3314e-06 0)
(0.0126335 5.22618e-06 0)
(0.0125511 5.12914e-06 0)
(0.0124702 5.04097e-06 0)
(0.0123907 4.96265e-06 0)
(0.0123124 4.89586e-06 0)
(0.0122352 4.84338e-06 0)
(0.0121588 4.81063e-06 0)
(0.0120832 4.80952e-06 0)
(0.0120076 4.87405e-06 0)
(0.0119307 5.03327e-06 0)
(0.0118638 4.72224e-06 0)
(0.0116577 2.88502e-05 0)
(0.189508 0.00946378 0)
(0.187169 0.00996752 0)
(0.183228 0.00974464 0)
(0.178042 0.00924742 0)
(0.172111 0.00861277 0)
(0.165779 0.0078874 0)
(0.159271 0.00710994 0)
(0.152753 0.00631593 0)
(0.14636 0.00553528 0)
(0.140192 0.00479254 0)
(0.134316 0.00410694 0)
(0.128773 0.00349168 0)
(0.123582 0.00295368 0)
(0.118746 0.00249408 0)
(0.114257 0.00210929 0)
(0.110099 0.00179241 0)
(0.106254 0.00153461 0)
(0.102697 0.00132647 0)
(0.0994044 0.00115881 0)
(0.0963536 0.00102342 0)
(0.0935218 0.000913282 0)
(0.090888 0.000822686 0)
(0.088433 0.000747144 0)
(0.0861395 0.000683221 0)
(0.083992 0.000628339 0)
(0.0819765 0.000580589 0)
(0.0800809 0.000538565 0)
(0.0782943 0.000501227 0)
(0.0766069 0.000467796 0)
(0.0750104 0.00043768 0)
(0.073497 0.000410416 0)
(0.0720601 0.000385634 0)
(0.0706937 0.000363031 0)
(0.0693922 0.000342354 0)
(0.068151 0.000323387 0)
(0.0669656 0.000305942 0)
(0.0658322 0.00028986 0)
(0.0647471 0.000274998 0)
(0.0637071 0.000261234 0)
(0.0627094 0.00024846 0)
(0.0617513 0.000236578 0)
(0.0608302 0.000225507 0)
(0.0599441 0.000215171 0)
(0.0590908 0.000205505 0)
(0.0582684 0.000196451 0)
(0.0574753 0.000187957 0)
(0.0567098 0.000179978 0)
(0.0559705 0.00017247 0)
(0.0552559 0.000165399 0)
(0.0545648 0.00015873 0)
(0.053896 0.000152433 0)
(0.0532484 0.000146481 0)
(0.0526211 0.000140849 0)
(0.0520129 0.000135514 0)
(0.051423 0.000130456 0)
(0.0508506 0.000125656 0)
(0.0502949 0.000121097 0)
(0.0497552 0.000116762 0)
(0.0492307 0.000112637 0)
(0.0487208 0.000108708 0)
(0.0482249 0.000104963 0)
(0.0477424 0.000101391 0)
(0.0472729 9.79798e-05 0)
(0.0468157 9.47205e-05 0)
(0.0463704 9.16036e-05 0)
(0.0459366 8.86208e-05 0)
(0.0455138 8.5764e-05 0)
(0.0451016 8.3026e-05 0)
(0.0446997 8.03999e-05 0)
(0.0443077 7.78794e-05 0)
(0.0439252 7.54587e-05 0)
(0.043552 7.31325e-05 0)
(0.0431878 7.08956e-05 0)
(0.0428322 6.87435e-05 0)
(0.042485 6.6672e-05 0)
(0.042146 6.46771e-05 0)
(0.0418148 6.27554e-05 0)
(0.0414913 6.09036e-05 0)
(0.0411753 5.91188e-05 0)
(0.0408665 5.73985e-05 0)
(0.0405648 5.57404e-05 0)
(0.0402699 5.41427e-05 0)
(0.0399816 5.26038e-05 0)
(0.0396998 5.11223e-05 0)
(0.0394243 4.96975e-05 0)
(0.0391549 4.83289e-05 0)
(0.0388914 4.70164e-05 0)
(0.0386335 4.57606e-05 0)
(0.0383813 4.45627e-05 0)
(0.0381343 4.34246e-05 0)
(0.0378925 4.23496e-05 0)
(0.0376555 4.13429e-05 0)
(0.0374231 4.04132e-05 0)
(0.0371949 3.95755e-05 0)
(0.0369707 3.886e-05 0)
(0.0367497 3.83351e-05 0)
(0.0365309 3.81784e-05 0)
(0.0363112 3.88282e-05 0)
(0.0361042 4.34036e-05 0)
(0.03569 0.000100119 0)
(0.192496 0.00909467 0)
(0.193256 0.0100457 0)
(0.193376 0.0103822 0)
(0.192706 0.0103915 0)
(0.191356 0.0101712 0)
(0.189443 0.00975937 0)
(0.187058 0.00920106 0)
(0.184286 0.00854632 0)
(0.181221 0.00784096 0)
(0.177948 0.00712384 0)
(0.174546 0.00642617 0)
(0.171077 0.00577087 0)
(0.167592 0.00517246 0)
(0.164131 0.00463787 0)
(0.160724 0.00416795 0)
(0.157389 0.00375928 0)
(0.154141 0.00340584 0)
(0.150987 0.00310048 0)
(0.147932 0.00283598 0)
(0.144976 0.00260567 0)
(0.142119 0.00240375 0)
(0.13936 0.0022254 0)
(0.136696 0.0020667 0)
(0.134126 0.00192453 0)
(0.131645 0.00179641 0)
(0.129252 0.00168037 0)
(0.126944 0.00157483 0)
(0.124716 0.00147851 0)
(0.122568 0.00139036 0)
(0.120494 0.00130948 0)
(0.118494 0.00123511 0)
(0.116562 0.0011666 0)
(0.114698 0.00110336 0)
(0.112898 0.00104489 0)
(0.111159 0.000990733 0)
(0.109479 0.000940488 0)
(0.107856 0.000893797 0)
(0.106286 0.000850338 0)
(0.104768 0.000809824 0)
(0.103299 0.000771997 0)
(0.101877 0.000736626 0)
(0.100501 0.000703504 0)
(0.0991676 0.000672445 0)
(0.0978756 0.000643281 0)
(0.0966232 0.000615863 0)
(0.0954086 0.000590053 0)
(0.0942303 0.000565729 0)
(0.0930867 0.000542779 0)
(0.0919764 0.000521102 0)
(0.090898 0.000500607 0)
(0.0898503 0.000481208 0)
(0.0888319 0.000462831 0)
(0.0878417 0.000445404 0)
(0.0868786 0.000428863 0)
(0.0859416 0.00041315 0)
(0.0850295 0.00039821 0)
(0.0841415 0.000383992 0)
(0.0832767 0.000370452 0)
(0.0824342 0.000357545 0)
(0.0816131 0.000345233 0)
(0.0808128 0.000333479 0)
(0.0800324 0.000322249 0)
(0.0792713 0.000311511 0)
(0.0785289 0.000301236 0)
(0.0778044 0.000291396 0)
(0.0770973 0.000281966 0)
(0.0764071 0.000272922 0)
(0.0757332 0.000264243 0)
(0.075075 0.000255907 0)
(0.0744321 0.000247896 0)
(0.0738041 0.000240192 0)
(0.0731906 0.000232777 0)
(0.072591 0.000225637 0)
(0.072005 0.000218758 0)
(0.0714323 0.000212125 0)
(0.0708725 0.000205727 0)
(0.0703253 0.000199553 0)
(0.0697903 0.000193592 0)
(0.0692672 0.000187834 0)
(0.0687558 0.000182272 0)
(0.0682558 0.000176898 0)
(0.0677668 0.000171704 0)
(0.0672888 0.000166687 0)
(0.0668213 0.00016184 0)
(0.0663641 0.00015716 0)
(0.0659171 0.000152644 0)
(0.0654799 0.000148291 0)
(0.0650523 0.000144102 0)
(0.0646341 0.000140078 0)
(0.0642249 0.000136222 0)
(0.0638246 0.000132543 0)
(0.0634327 0.000129052 0)
(0.063049 0.00012577 0)
(0.0626731 0.000122731 0)
(0.0623044 0.00012001 0)
(0.0619421 0.000117771 0)
(0.061585 0.00011644 0)
(0.0612298 0.000117354 0)
(0.0608849 0.000129922 0)
(0.0603458 0.000200875 0)
(0.193536 0.0084533 0)
(0.194655 0.00949744 0)
(0.195675 0.010055 0)
(0.196384 0.0103011 0)
(0.196756 0.0103158 0)
(0.196797 0.0101308 0)
(0.196502 0.00978184 0)
(0.195876 0.00931149 0)
(0.194943 0.00876168 0)
(0.193739 0.00816986 0)
(0.192306 0.00756789 0)
(0.190687 0.00698098 0)
(0.18892 0.0064271 0)
(0.187044 0.00591723 0)
(0.185089 0.00545634 0)
(0.18308 0.00504482 0)
(0.181036 0.00467994 0)
(0.178974 0.00435721 0)
(0.176905 0.00407135 0)
(0.174836 0.00381708 0)
(0.172774 0.0035895 0)
(0.170724 0.00338435 0)
(0.168689 0.00319805 0)
(0.166672 0.0030277 0)
(0.164676 0.00287096 0)
(0.162701 0.00272598 0)
(0.160751 0.00259131 0)
(0.158827 0.00246576 0)
(0.156929 0.00234841 0)
(0.155059 0.00223848 0)
(0.153219 0.00213532 0)
(0.151408 0.00203837 0)
(0.149627 0.00194715 0)
(0.147878 0.00186123 0)
(0.14616 0.00178023 0)
(0.144473 0.0017038 0)
(0.142819 0.00163162 0)
(0.141196 0.0015634 0)
(0.139604 0.00149888 0)
(0.138044 0.00143781 0)
(0.136516 0.00137997 0)
(0.135018 0.00132514 0)
(0.133551 0.00127315 0)
(0.132114 0.0012238 0)
(0.130707 0.00117693 0)
(0.129329 0.00113239 0)
(0.12798 0.00109004 0)
(0.12666 0.00104975 0)
(0.125367 0.00101138 0)
(0.124101 0.000974841 0)
(0.122862 0.00094001 0)
(0.12165 0.000906791 0)
(0.120462 0.000875091 0)
(0.1193 0.000844824 0)
(0.118162 0.000815908 0)
(0.117047 0.000788267 0)
(0.115957 0.000761829 0)
(0.114888 0.000736528 0)
(0.113842 0.0007123 0)
(0.112818 0.000689087 0)
(0.111815 0.000666832 0)
(0.110832 0.000645485 0)
(0.10987 0.000624995 0)
(0.108927 0.000605316 0)
(0.108003 0.000586406 0)
(0.107099 0.000568222 0)
(0.106212 0.000550727 0)
(0.105344 0.000533884 0)
(0.104493 0.00051766 0)
(0.103659 0.000502022 0)
(0.102842 0.00048694 0)
(0.102041 0.000472385 0)
(0.101256 0.000458332 0)
(0.100487 0.000444755 0)
(0.099734 0.000431632 0)
(0.0989956 0.00041894 0)
(0.0982721 0.00040666 0)
(0.0975632 0.000394774 0)
(0.0968685 0.000383263 0)
(0.0961879 0.000372114 0)
(0.0955211 0.000361311 0)
(0.0948679 0.000350842 0)
(0.094228 0.000340698 0)
(0.0936011 0.000330868 0)
(0.0929872 0.000321345 0)
(0.0923859 0.000312124 0)
(0.0917971 0.000303202 0)
(0.0912205 0.000294577 0)
(0.0906558 0.000286252 0)
(0.0901029 0.000278234 0)
(0.0895614 0.000270532 0)
(0.0890311 0.000263168 0)
(0.0885117 0.000256173 0)
(0.0880027 0.000249609 0)
(0.0875035 0.000243594 0)
(0.0870136 0.000238398 0)
(0.0865314 0.000234732 0)
(0.0860545 0.000234939 0)
(0.0855888 0.000251259 0)
(0.0849589 0.00031974 0)
(0.194273 0.00794876 0)
(0.195253 0.00892697 0)
(0.196305 0.00952012 0)
(0.197265 0.00983819 0)
(0.198087 0.00995116 0)
(0.198753 0.00988855 0)
(0.199238 0.0096763 0)
(0.199519 0.00934636 0)
(0.199587 0.00893216 0)
(0.199446 0.00846504 0)
(0.199111 0.00797291 0)
(0.1986 0.00747915 0)
(0.197938 0.00700162 0)
(0.197146 0.00655249 0)
(0.196248 0.00613864 0)
(0.195264 0.00576271 0)
(0.194209 0.00542417 0)
(0.193098 0.00512046 0)
(0.191941 0.00484794 0)
(0.190747 0.00460259 0)
(0.189521 0.00438049 0)
(0.188269 0.00417809 0)
(0.186995 0.00399233 0)
(0.185702 0.00382067 0)
(0.184392 0.00366105 0)
(0.183068 0.00351184 0)
(0.181733 0.00337173 0)
(0.180389 0.00323968 0)
(0.179037 0.00311487 0)
(0.177679 0.00299661 0)
(0.176318 0.00288435 0)
(0.174955 0.00277762 0)
(0.173592 0.00267601 0)
(0.172229 0.00257917 0)
(0.17087 0.00248679 0)
(0.169514 0.00239858 0)
(0.168163 0.0023143 0)
(0.166818 0.00223371 0)
(0.165481 0.0021566 0)
(0.164151 0.00208278 0)
(0.162831 0.00201207 0)
(0.161521 0.00194431 0)
(0.160221 0.00187935 0)
(0.158932 0.00181704 0)
(0.157655 0.00175725 0)
(0.156391 0.00169987 0)
(0.155139 0.00164476 0)
(0.1539 0.00159183 0)
(0.152675 0.00154098 0)
(0.151464 0.0014921 0)
(0.150266 0.0014451 0)
(0.149083 0.00139991 0)
(0.147915 0.00135643 0)
(0.146761 0.00131459 0)
(0.145622 0.00127432 0)
(0.144497 0.00123554 0)
(0.143388 0.00119819 0)
(0.142293 0.0011622 0)
(0.141214 0.00112751 0)
(0.140149 0.00109406 0)
(0.139099 0.0010618 0)
(0.138064 0.00103067 0)
(0.137044 0.00100062 0)
(0.136039 0.000971597 0)
(0.135048 0.000943563 0)
(0.134072 0.000916468 0)
(0.13311 0.000890271 0)
(0.132163 0.000864929 0)
(0.13123 0.000840405 0)
(0.130312 0.000816661 0)
(0.129407 0.000793661 0)
(0.128517 0.000771373 0)
(0.12764 0.000749764 0)
(0.126777 0.000728805 0)
(0.125928 0.000708467 0)
(0.125093 0.000688724 0)
(0.124271 0.000669549 0)
(0.123463 0.000650921 0)
(0.122668 0.000632818 0)
(0.121886 0.000615219 0)
(0.121117 0.000598108 0)
(0.120362 0.000581467 0)
(0.119619 0.000565284 0)
(0.11889 0.000549547 0)
(0.118173 0.000534245 0)
(0.117469 0.000519373 0)
(0.116777 0.000504926 0)
(0.116098 0.000490904 0)
(0.115431 0.000477311 0)
(0.114777 0.000464156 0)
(0.114134 0.000451456 0)
(0.113504 0.000439239 0)
(0.112885 0.000427552 0)
(0.112277 0.000416481 0)
(0.11168 0.000406191 0)
(0.111094 0.000397052 0)
(0.110517 0.000390019 0)
(0.109947 0.000388108 0)
(0.109393 0.000402999 0)
(0.1087 0.000456895 0)
(0.194904 0.00751554 0)
(0.195709 0.00838935 0)
(0.19663 0.00896742 0)
(0.197542 0.00930961 0)
(0.198399 0.00946944 0)
(0.19918 0.00947379 0)
(0.199863 0.00934382 0)
(0.200425 0.00910498 0)
(0.200851 0.00878489 0)
(0.201135 0.00841013 0)
(0.201279 0.0080048 0)
(0.201292 0.00758954 0)
(0.201186 0.00718077 0)
(0.200974 0.00679027 0)
(0.200671 0.00642546 0)
(0.20029 0.00608999 0)
(0.199845 0.00578461 0)
(0.199344 0.00550812 0)
(0.198796 0.00525809 0)
(0.198207 0.00503154 0)
(0.197582 0.00482537 0)
(0.196925 0.00463664 0)
(0.196239 0.00446274 0)
(0.195525 0.00430145 0)
(0.194786 0.00415091 0)
(0.194023 0.00400963 0)
(0.193238 0.00387638 0)
(0.192432 0.00375019 0)
(0.191606 0.00363028 0)
(0.190761 0.00351603 0)
(0.1899 0.0034069 0)
(0.189022 0.00330246 0)
(0.18813 0.00320236 0)
(0.187224 0.00310628 0)
(0.186306 0.00301395 0)
(0.185376 0.00292513 0)
(0.184437 0.00283961 0)
(0.183488 0.0027572 0)
(0.182531 0.00267773 0)
(0.181567 0.00260105 0)
(0.180597 0.00252702 0)
(0.179622 0.00245551 0)
(0.178642 0.0023864 0)
(0.177659 0.00231959 0)
(0.176673 0.00225498 0)
(0.175686 0.00219246 0)
(0.174697 0.00213197 0)
(0.173708 0.00207341 0)
(0.172718 0.00201671 0)
(0.17173 0.00196179 0)
(0.170743 0.0019086 0)
(0.169758 0.00185706 0)
(0.168776 0.00180712 0)
(0.167797 0.0017587 0)
(0.166821 0.00171177 0)
(0.165849 0.00166626 0)
(0.164882 0.00162212 0)
(0.163919 0.00157929 0)
(0.162961 0.00153774 0)
(0.162009 0.00149742 0)
(0.161063 0.00145827 0)
(0.160123 0.00142025 0)
(0.159189 0.00138333 0)
(0.158262 0.00134746 0)
(0.157342 0.0013126 0)
(0.156429 0.00127871 0)
(0.155524 0.00124576 0)
(0.154626 0.0012137 0)
(0.153736 0.00118251 0)
(0.152855 0.00115215 0)
(0.151981 0.00112259 0)
(0.151116 0.00109379 0)
(0.150259 0.00106573 0)
(0.149411 0.00103838 0)
(0.148572 0.00101172 0)
(0.147742 0.00098571 0)
(0.146922 0.000960334 0)
(0.14611 0.000935569 0)
(0.145308 0.000911394 0)
(0.144515 0.000887789 0)
(0.143732 0.000864739 0)
(0.142959 0.000842226 0)
(0.142195 0.00082024 0)
(0.141442 0.000798768 0)
(0.140698 0.000777803 0)
(0.139965 0.000757341 0)
(0.139241 0.000737379 0)
(0.138528 0.000717922 0)
(0.137825 0.000698976 0)
(0.137133 0.000680557 0)
(0.13645 0.00066269 0)
(0.135778 0.000645412 0)
(0.135116 0.000628788 0)
(0.134464 0.000612925 0)
(0.133822 0.000598032 0)
(0.133189 0.00058455 0)
(0.132564 0.000573566 0)
(0.131949 0.000568145 0)
(0.131352 0.000577234 0)
(0.130637 0.000609148 0)
(0.195458 0.00714578 0)
(0.196123 0.00791619 0)
(0.196905 0.00846255 0)
(0.197714 0.00880958 0)
(0.198504 0.00899341 0)
(0.199251 0.00903726 0)
(0.199936 0.00895971 0)
(0.200541 0.00878212 0)
(0.201052 0.00852791 0)
(0.201463 0.00822004 0)
(0.201773 0.00787947 0)
(0.201986 0.00752443 0)
(0.202109 0.00716973 0)
(0.202152 0.00682642 0)
(0.202125 0.00650193 0)
(0.202038 0.00620043 0)
(0.201901 0.00592354 0)
(0.20172 0.00567098 0)
(0.201503 0.00544128 0)
(0.201254 0.00523227 0)
(0.200977 0.00504152 0)
(0.200675 0.00486663 0)
(0.20035 0.00470535 0)
(0.200002 0.00455571 0)
(0.199634 0.00441605 0)
(0.199245 0.00428495 0)
(0.198837 0.00416128 0)
(0.198409 0.00404409 0)
(0.197963 0.00393262 0)
(0.1975 0.00382625 0)
(0.197018 0.00372446 0)
(0.19652 0.00362684 0)
(0.196005 0.00353302 0)
(0.195474 0.0034427 0)
(0.194928 0.00335563 0)
(0.194367 0.00327156 0)
(0.193792 0.00319031 0)
(0.193203 0.00311169 0)
(0.192602 0.00303556 0)
(0.191987 0.00296177 0)
(0.191361 0.00289019 0)
(0.190724 0.00282072 0)
(0.190076 0.00275326 0)
(0.189417 0.00268771 0)
(0.18875 0.00262398 0)
(0.188073 0.00256201 0)
(0.187388 0.00250171 0)
(0.186694 0.00244303 0)
(0.185994 0.00238591 0)
(0.185286 0.00233028 0)
(0.184573 0.0022761 0)
(0.183853 0.00222331 0)
(0.183128 0.00217186 0)
(0.182399 0.00212172 0)
(0.181665 0.00207283 0)
(0.180927 0.00202516 0)
(0.180186 0.00197867 0)
(0.179441 0.00193331 0)
(0.178695 0.00188906 0)
(0.177946 0.00184587 0)
(0.177195 0.0018037 0)
(0.176443 0.00176254 0)
(0.17569 0.00172233 0)
(0.174936 0.00168306 0)
(0.174183 0.00164468 0)
(0.173429 0.00160718 0)
(0.172676 0.00157051 0)
(0.171924 0.00153465 0)
(0.171173 0.00149958 0)
(0.170424 0.00146526 0)
(0.169676 0.00143167 0)
(0.168931 0.00139878 0)
(0.168188 0.00136657 0)
(0.167448 0.00133502 0)
(0.16671 0.00130411 0)
(0.165977 0.0012738 0)
(0.165247 0.00124409 0)
(0.16452 0.00121496 0)
(0.163798 0.00118638 0)
(0.16308 0.00115835 0)
(0.162367 0.00113085 0)
(0.161659 0.00110386 0)
(0.160956 0.00107739 0)
(0.160259 0.00105142 0)
(0.159567 0.00102595 0)
(0.158881 0.00100098 0)
(0.158201 0.000976512 0)
(0.157527 0.000952557 0)
(0.15686 0.000929129 0)
(0.156199 0.000906252 0)
(0.155545 0.000883958 0)
(0.154898 0.000862298 0)
(0.154257 0.000841351 0)
(0.153623 0.000821246 0)
(0.152997 0.000802216 0)
(0.152377 0.000784732 0)
(0.151763 0.000769851 0)
(0.151159 0.000760095 0)
(0.150573 0.00076071 0)
(0.149884 0.000768171 0)
(0.195949 0.00682766 0)
(0.196505 0.00750332 0)
(0.197169 0.00800917 0)
(0.197875 0.00834932 0)
(0.198581 0.00854541 0)
(0.199261 0.00861598 0)
(0.199897 0.00857702 0)
(0.200474 0.00844636 0)
(0.20098 0.00824373 0)
(0.201408 0.00798886 0)
(0.201758 0.00770004 0)
(0.202031 0.00739341 0)
(0.202234 0.00708234 0)
(0.202373 0.00677719 0)
(0.202456 0.00648524 0)
(0.202492 0.00621103 0)
(0.202489 0.00595678 0)
(0.202453 0.005723 0)
(0.202389 0.00550897 0)
(0.202302 0.00531325 0)
(0.202196 0.00513403 0)
(0.202072 0.00496936 0)
(0.201932 0.0048174 0)
(0.201778 0.00467643 0)
(0.201611 0.00454496 0)
(0.20143 0.00442172 0)
(0.201236 0.00430562 0)
(0.201029 0.00419578 0)
(0.20081 0.00409145 0)
(0.200578 0.00399201 0)
(0.200334 0.00389695 0)
(0.200077 0.00380585 0)
(0.199809 0.00371834 0)
(0.199527 0.0036341 0)
(0.199234 0.00355288 0)
(0.198929 0.00347443 0)
(0.198612 0.00339856 0)
(0.198283 0.00332508 0)
(0.197943 0.00325384 0)
(0.197592 0.00318469 0)
(0.197229 0.00311751 0)
(0.196856 0.00305219 0)
(0.196472 0.00298863 0)
(0.196077 0.00292673 0)
(0.195672 0.00286642 0)
(0.195257 0.00280762 0)
(0.194832 0.00275025 0)
(0.194398 0.00269427 0)
(0.193955 0.0026396 0)
(0.193503 0.0025862 0)
(0.193042 0.00253402 0)
(0.192572 0.00248302 0)
(0.192094 0.00243314 0)
(0.191609 0.00238436 0)
(0.191116 0.00233662 0)
(0.190616 0.00228991 0)
(0.190109 0.00224417 0)
(0.189595 0.00219937 0)
(0.189074 0.0021555 0)
(0.188548 0.00211251 0)
(0.188016 0.00207037 0)
(0.187478 0.00202906 0)
(0.186935 0.00198854 0)
(0.186388 0.0019488 0)
(0.185835 0.0019098 0)
(0.185279 0.00187152 0)
(0.184718 0.00183393 0)
(0.184154 0.00179702 0)
(0.183586 0.00176075 0)
(0.183016 0.00172511 0)
(0.182442 0.00169007 0)
(0.181866 0.00165561 0)
(0.181288 0.00162171 0)
(0.180708 0.00158836 0)
(0.180126 0.00155553 0)
(0.179543 0.0015232 0)
(0.178959 0.00149137 0)
(0.178374 0.00146002 0)
(0.177789 0.00142913 0)
(0.177204 0.0013987 0)
(0.176619 0.00136871 0)
(0.176034 0.00133915 0)
(0.17545 0.00131003 0)
(0.174867 0.00128134 0)
(0.174285 0.00125309 0)
(0.173705 0.00122526 0)
(0.173127 0.00119789 0)
(0.17255 0.00117098 0)
(0.171976 0.00114455 0)
(0.171404 0.00111863 0)
(0.170835 0.00109327 0)
(0.170269 0.00106853 0)
(0.169706 0.0010445 0)
(0.169146 0.00102132 0)
(0.168589 0.000999232 0)
(0.168036 0.000978682 0)
(0.167487 0.000960539 0)
(0.166944 0.000946423 0)
(0.166418 0.000937919 0)
(0.165801 0.00092315 0)
(0.196384 0.00654839 0)
(0.196857 0.00713993 0)
(0.197423 0.00760196 0)
(0.198037 0.00792825 0)
(0.198661 0.00812967 0)
(0.199272 0.00821964 0)
(0.199851 0.00821125 0)
(0.200384 0.00811915 0)
(0.20086 0.00795972 0)
(0.201273 0.00774973 0)
(0.201621 0.00750507 0)
(0.201906 0.00723997 0)
(0.20213 0.00696651 0)
(0.202301 0.0066943 0)
(0.202425 0.00643041 0)
(0.202508 0.00617956 0)
(0.202558 0.00594445 0)
(0.202581 0.00572619 0)
(0.202581 0.00552474 0)
(0.202564 0.00533929 0)
(0.202531 0.00516857 0)
(0.202486 0.00501113 0)
(0.20243 0.00486548 0)
(0.202365 0.0047302 0)
(0.202291 0.00460399 0)
(0.20221 0.00448572 0)
(0.20212 0.00437441 0)
(0.202024 0.00426924 0)
(0.20192 0.00416949 0)
(0.201808 0.00407458 0)
(0.20169 0.003984 0)
(0.201564 0.00389733 0)
(0.201431 0.0038142 0)
(0.201291 0.00373431 0)
(0.201143 0.00365738 0)
(0.200988 0.00358318 0)
(0.200825 0.00351148 0)
(0.200655 0.00344213 0)
(0.200477 0.00337493 0)
(0.200291 0.00330977 0)
(0.200098 0.00324649 0)
(0.199897 0.00318498 0)
(0.199688 0.00312515 0)
(0.199471 0.00306688 0)
(0.199247 0.0030101 0)
(0.199015 0.00295473 0)
(0.198775 0.0029007 0)
(0.198528 0.00284793 0)
(0.198273 0.00279638 0)
(0.198011 0.00274598 0)
(0.197741 0.00269668 0)
(0.197463 0.00264843 0)
(0.197178 0.0026012 0)
(0.196886 0.00255493 0)
(0.196586 0.00250959 0)
(0.19628 0.00246514 0)
(0.195966 0.00242155 0)
(0.195645 0.00237877 0)
(0.195318 0.00233679 0)
(0.194984 0.00229556 0)
(0.194643 0.00225506 0)
(0.194296 0.00221527 0)
(0.193943 0.00217614 0)
(0.193583 0.00213766 0)
(0.193218 0.00209979 0)
(0.192846 0.00206252 0)
(0.19247 0.00202583 0)
(0.192087 0.00198968 0)
(0.1917 0.00195405 0)
(0.191307 0.00191893 0)
(0.190909 0.00188429 0)
(0.190507 0.00185011 0)
(0.1901 0.00181638 0)
(0.189688 0.00178307 0)
(0.189273 0.00175018 0)
(0.188854 0.00171768 0)
(0.188431 0.00168556 0)
(0.188004 0.0016538 0)
(0.187574 0.00162241 0)
(0.187142 0.00159136 0)
(0.186706 0.00156065 0)
(0.186268 0.00153028 0)
(0.185827 0.00150024 0)
(0.185385 0.00147054 0)
(0.18494 0.00144118 0)
(0.184494 0.00141217 0)
(0.184047 0.00138352 0)
(0.183598 0.00135525 0)
(0.183148 0.00132739 0)
(0.182697 0.00129998 0)
(0.182246 0.00127307 0)
(0.181794 0.00124672 0)
(0.181342 0.00122104 0)
(0.18089 0.00119617 0)
(0.180438 0.00117233 0)
(0.179987 0.00114991 0)
(0.179536 0.00112947 0)
(0.17909 0.00111165 0)
(0.178656 0.00109515 0)
(0.178142 0.00106384 0)
(0.196772 0.00629916 0)
(0.197178 0.00681764 0)
(0.197664 0.0072363 0)
(0.198197 0.00754464 0)
(0.198748 0.00774628 0)
(0.199294 0.00784996 0)
(0.199817 0.00786589 0)
(0.200305 0.00780589 0)
(0.200746 0.00768338 0)
(0.201135 0.00751245 0)
(0.201469 0.00730676 0)
(0.201748 0.00707876 0)
(0.201976 0.00683926 0)
(0.202157 0.00659707 0)
(0.202295 0.00635895 0)
(0.202398 0.00612966 0)
(0.20247 0.00591222 0)
(0.202518 0.00570821 0)
(0.202545 0.00551813 0)
(0.202556 0.00534172 0)
(0.202554 0.00517822 0)
(0.202542 0.00502661 0)
(0.202521 0.00488575 0)
(0.202493 0.0047545 0)
(0.202459 0.0046318 0)
(0.20242 0.00451666 0)
(0.202376 0.00440823 0)
(0.202328 0.00430576 0)
(0.202275 0.00420861 0)
(0.202219 0.00411622 0)
(0.202158 0.00402813 0)
(0.202094 0.00394392 0)
(0.202026 0.00386324 0)
(0.201955 0.0037858 0)
(0.201879 0.00371132 0)
(0.2018 0.00363957 0)
(0.201717 0.00357035 0)
(0.201629 0.00350348 0)
(0.201538 0.00343878 0)
(0.201442 0.00337611 0)
(0.201342 0.00331534 0)
(0.201238 0.00325635 0)
(0.20113 0.00319904 0)
(0.201017 0.00314329 0)
(0.200899 0.00308903 0)
(0.200777 0.00303617 0)
(0.20065 0.00298464 0)
(0.200518 0.00293436 0)
(0.200381 0.00288527 0)
(0.200239 0.00283732 0)
(0.200093 0.00279045 0)
(0.199941 0.0027446 0)
(0.199784 0.00269973 0)
(0.199622 0.00265579 0)
(0.199455 0.00261274 0)
(0.199282 0.00257054 0)
(0.199104 0.00252915 0)
(0.198921 0.00248853 0)
(0.198733 0.00244865 0)
(0.198539 0.00240947 0)
(0.19834 0.00237096 0)
(0.198135 0.0023331 0)
(0.197926 0.00229584 0)
(0.197711 0.00225916 0)
(0.197491 0.00222303 0)
(0.197265 0.00218743 0)
(0.197034 0.00215233 0)
(0.196799 0.00211771 0)
(0.196558 0.00208353 0)
(0.196312 0.00204979 0)
(0.196061 0.00201644 0)
(0.195805 0.00198348 0)
(0.195545 0.00195089 0)
(0.19528 0.00191864 0)
(0.19501 0.00188672 0)
(0.194735 0.00185511 0)
(0.194456 0.00182379 0)
(0.194173 0.00179276 0)
(0.193886 0.001762 0)
(0.193594 0.00173151 0)
(0.193299 0.00170127 0)
(0.193 0.00167128 0)
(0.192697 0.00164154 0)
(0.19239 0.00161206 0)
(0.19208 0.00158283 0)
(0.191767 0.00155388 0)
(0.191451 0.00152521 0)
(0.191131 0.00149685 0)
(0.190809 0.00146882 0)
(0.190484 0.00144118 0)
(0.190157 0.00141397 0)
(0.189826 0.00138727 0)
(0.189494 0.00136117 0)
(0.189159 0.00133582 0)
(0.188823 0.00131141 0)
(0.188484 0.0012882 0)
(0.188145 0.00126648 0)
(0.187808 0.00124602 0)
(0.187478 0.00122375 0)
(0.187079 0.0011831 0)
(0.197119 0.00607404 0)
(0.197472 0.00652974 0)
(0.197891 0.00690744 0)
(0.198354 0.00719564 0)
(0.198839 0.00739362 0)
(0.199326 0.00750634 0)
(0.199797 0.00754133 0)
(0.20024 0.00750794 0)
(0.200646 0.00741703 0)
(0.201009 0.00728029 0)
(0.201326 0.00710929 0)
(0.201595 0.00691484 0)
(0.20182 0.00670649 0)
(0.202002 0.00649225 0)
(0.202147 0.00627846 0)
(0.202258 0.00606981 0)
(0.202342 0.00586949 0)
(0.202402 0.00567942 0)
(0.202443 0.00550054 0)
(0.202468 0.00533302 0)
(0.202481 0.00517655 0)
(0.202483 0.00503048 0)
(0.202478 0.00489403 0)
(0.202466 0.00476632 0)
(0.202448 0.00464649 0)
(0.202427 0.00453375 0)
(0.202402 0.00442736 0)
(0.202373 0.00432666 0)
(0.202342 0.00423108 0)
(0.202308 0.00414013 0)
(0.202272 0.00405338 0)
(0.202234 0.00397043 0)
(0.202194 0.00389098 0)
(0.202153 0.00381472 0)
(0.202109 0.00374141 0)
(0.202064 0.00367083 0)
(0.202016 0.00360278 0)
(0.201967 0.00353708 0)
(0.201917 0.00347358 0)
(0.201864 0.00341212 0)
(0.201809 0.00335259 0)
(0.201753 0.00329486 0)
(0.201694 0.00323883 0)
(0.201634 0.00318441 0)
(0.201571 0.00313149 0)
(0.201506 0.00308 0)
(0.201439 0.00302987 0)
(0.201369 0.00298102 0)
(0.201297 0.00293339 0)
(0.201222 0.00288692 0)
(0.201145 0.00284154 0)
(0.201065 0.00279722 0)
(0.200982 0.00275388 0)
(0.200896 0.0027115 0)
(0.200807 0.00267002 0)
(0.200715 0.00262939 0)
(0.20062 0.00258959 0)
(0.200522 0.00255056 0)
(0.200421 0.00251227 0)
(0.200316 0.00247468 0)
(0.200208 0.00243776 0)
(0.200096 0.00240148 0)
(0.199981 0.0023658 0)
(0.199862 0.00233068 0)
(0.199739 0.0022961 0)
(0.199613 0.00226204 0)
(0.199483 0.00222845 0)
(0.19935 0.00219531 0)
(0.199213 0.0021626 0)
(0.199071 0.00213029 0)
(0.198926 0.00209836 0)
(0.198777 0.00206678 0)
(0.198625 0.00203552 0)
(0.198468 0.00200458 0)
(0.198308 0.00197392 0)
(0.198143 0.00194354 0)
(0.197975 0.00191341 0)
(0.197803 0.00188351 0)
(0.197628 0.00185385 0)
(0.197448 0.0018244 0)
(0.197265 0.00179516 0)
(0.197078 0.00176612 0)
(0.196887 0.00173728 0)
(0.196693 0.00170864 0)
(0.196495 0.00168021 0)
(0.196293 0.001652 0)
(0.196088 0.00162403 0)
(0.19588 0.00159631 0)
(0.195668 0.00156889 0)
(0.195453 0.00154179 0)
(0.195235 0.00151509 0)
(0.195013 0.00148885 0)
(0.194788 0.00146316 0)
(0.19456 0.00143815 0)
(0.194329 0.00141398 0)
(0.194095 0.0013908 0)
(0.19386 0.00136862 0)
(0.193624 0.00134666 0)
(0.193392 0.0013212 0)
(0.193101 0.00127798 0)
(0.19743 0.00586884 0)
(0.197739 0.0062708 0)
(0.198102 0.00661088 0)
(0.198506 0.00687825 0)
(0.198933 0.00706981 0)
(0.199365 0.00718778 0)
(0.199788 0.00723739 0)
(0.200189 0.00722584 0)
(0.200562 0.00716179 0)
(0.200899 0.00705481 0)
(0.201196 0.0069146 0)
(0.201454 0.00675043 0)
(0.201672 0.00657066 0)
(0.201853 0.00638249 0)
(0.202 0.00619178 0)
(0.202116 0.00600304 0)
(0.202206 0.00581952 0)
(0.202274 0.00564337 0)
(0.202324 0.00547584 0)
(0.202357 0.00531746 0)
(0.202379 0.00516829 0)
(0.20239 0.00502803 0)
(0.202393 0.00489617 0)
(0.20239 0.0047721 0)
(0.202381 0.00465517 0)
(0.202368 0.00454475 0)
(0.202351 0.00444023 0)
(0.202332 0.00434106 0)
(0.202309 0.00424674 0)
(0.202285 0.00415684 0)
(0.20226 0.00407097 0)
(0.202232 0.00398878 0)
(0.202204 0.00390998 0)
(0.202174 0.00383431 0)
(0.202144 0.00376153 0)
(0.202112 0.00369144 0)
(0.20208 0.00362384 0)
(0.202047 0.00355857 0)
(0.202014 0.00349549 0)
(0.201979 0.00343446 0)
(0.201945 0.00337535 0)
(0.201909 0.00331806 0)
(0.201873 0.00326249 0)
(0.201836 0.00320853 0)
(0.201798 0.00315611 0)
(0.20176 0.00310514 0)
(0.20172 0.00305555 0)
(0.20168 0.00300727 0)
(0.201639 0.00296024 0)
(0.201597 0.0029144 0)
(0.201554 0.00286969 0)
(0.20151 0.00282606 0)
(0.201465 0.00278345 0)
(0.201419 0.00274182 0)
(0.201371 0.00270113 0)
(0.201322 0.00266132 0)
(0.201271 0.00262236 0)
(0.201219 0.0025842 0)
(0.201166 0.00254681 0)
(0.20111 0.00251015 0)
(0.201053 0.00247417 0)
(0.200995 0.00243886 0)
(0.200934 0.00240416 0)
(0.200871 0.00237005 0)
(0.200807 0.0023365 0)
(0.20074 0.00230346 0)
(0.200671 0.00227093 0)
(0.2006 0.00223885 0)
(0.200527 0.00220721 0)
(0.200451 0.00217597 0)
(0.200373 0.00214512 0)
(0.200293 0.00211462 0)
(0.20021 0.00208445 0)
(0.200124 0.00205459 0)
(0.200036 0.00202501 0)
(0.199945 0.0019957 0)
(0.199852 0.00196664 0)
(0.199755 0.00193781 0)
(0.199656 0.00190919 0)
(0.199554 0.00188078 0)
(0.19945 0.00185256 0)
(0.199342 0.00182453 0)
(0.199232 0.00179669 0)
(0.199118 0.00176903 0)
(0.199002 0.00174156 0)
(0.198882 0.00171429 0)
(0.19876 0.00168724 0)
(0.198635 0.00166044 0)
(0.198506 0.0016339 0)
(0.198375 0.00160768 0)
(0.19824 0.00158183 0)
(0.198103 0.00155641 0)
(0.197962 0.00153152 0)
(0.197818 0.00150727 0)
(0.197671 0.00148376 0)
(0.197522 0.00146105 0)
(0.19737 0.00143898 0)
(0.197217 0.00141651 0)
(0.197064 0.00139012 0)