/*--------------------------------*- C++ -*----------------------------------*\
| =========                 |                                                 |
| \\      /  F ield         | OpenFOAM: The Open Source CFD Toolbox           |
|  \\    /   O peration     | Version:  2.3.0                                 |
|   \\  /    A nd           | Web:      www.OpenFOAM.org                      |
|    \\/     M anipulation  |                                                 |
\*---------------------------------------------------------------------------*/
FoamFile
{
    version     2.0;
    format      ascii;
    class       volVectorField;
    location    "0.75";
    object      U_0;
}
// * * * * * * * * * * * * * * * * * * * * * * * * * * * * * * * * * * * * * //

dimensions      [0 1 -1 0 0 0 0];

internalField   nonuniform List<vector> 
1500
(
(0.170766 0.00605151 0)
(0.154005 0.00612539 0)
(0.137878 0.0057033 0)
(0.122589 0.00509463 0)
(0.108558 0.00441774 0)
(0.0959656 0.00372762 0)
(0.084832 0.00306308 0)
(0.0751287 0.00245161 0)
(0.0668015 0.00191046 0)
(0.0597633 0.00144881 0)
(0.0538949 0.00106916 0)
(0.0490554 0.000768221 0)
(0.0450947 0.00053823 0)
(0.0418642 0.000368737 0)
(0.0392259 0.000248343 0)
(0.037057 0.00016606 0)
(0.0352541 0.000112147 0)
(0.0337327 7.84864e-05 0)
(0.0324267 5.86489e-05 0)
(0.0312858 4.77724e-05 0)
(0.0302725 4.23503e-05 0)
(0.0293597 3.99802e-05 0)
(0.028528 3.91102e-05 0)
(0.0277633 3.88077e-05 0)
(0.0270557 3.85638e-05 0)
(0.0263976 3.81416e-05 0)
(0.0257833 3.74657e-05 0)
(0.0252084 3.65472e-05 0)
(0.024669 3.54362e-05 0)
(0.024162 3.41935e-05 0)
(0.0236844 3.2877e-05 0)
(0.0232336 3.15344e-05 0)
(0.0228075 3.0202e-05 0)
(0.0224037 2.8905e-05 0)
(0.0220205 2.76598e-05 0)
(0.021656 2.64758e-05 0)
(0.0213086 2.53571e-05 0)
(0.020977 2.43046e-05 0)
(0.0206599 2.33166e-05 0)
(0.0203561 2.23901e-05 0)
(0.0200646 2.15213e-05 0)
(0.0197845 2.07061e-05 0)
(0.0195148 1.99402e-05 0)
(0.019255 1.92198e-05 0)
(0.0190043 1.85408e-05 0)
(0.0187622 1.78998e-05 0)
(0.018528 1.72936e-05 0)
(0.0183013 1.67192e-05 0)
(0.0180817 1.6174e-05 0)
(0.0178687 1.56557e-05 0)
(0.017662 1.51621e-05 0)
(0.0174612 1.46913e-05 0)
(0.017266 1.42417e-05 0)
(0.0170763 1.38116e-05 0)
(0.0168916 1.33998e-05 0)
(0.0167117 1.30049e-05 0)
(0.0165365 1.26259e-05 0)
(0.0163657 1.22617e-05 0)
(0.0161992 1.19113e-05 0)
(0.0160368 1.15739e-05 0)
(0.0158782 1.12488e-05 0)
(0.0157234 1.09351e-05 0)
(0.0155722 1.06322e-05 0)
(0.0154246 1.03396e-05 0)
(0.0152802 1.00565e-05 0)
(0.0151392 9.78259e-06 0)
(0.0150013 9.51723e-06 0)
(0.0148664 9.26002e-06 0)
(0.0147345 9.01053e-06 0)
(0.0146055 8.76836e-06 0)
(0.0144793 8.53315e-06 0)
(0.0143559 8.30456e-06 0)
(0.0142351 8.08229e-06 0)
(0.0141168 7.86605e-06 0)
(0.0140012 7.65559e-06 0)
(0.013888 7.45069e-06 0)
(0.0137772 7.25115e-06 0)
(0.0136688 7.05682e-06 0)
(0.0135627 6.86756e-06 0)
(0.013459 6.68327e-06 0)
(0.0133575 6.5039e-06 0)
(0.0132582 6.32941e-06 0)
(0.013161 6.15985e-06 0)
(0.013066 5.99531e-06 0)
(0.0129731 5.83592e-06 0)
(0.0128822 5.68188e-06 0)
(0.0127934 5.53349e-06 0)
(0.0127064 5.39114e-06 0)
(0.0126214 5.25532e-06 0)
(0.0125382 5.12678e-06 0)
(0.0124568 5.0064e-06 0)
(0.0123771 4.89543e-06 0)
(0.012299 4.79592e-06 0)
(0.0122223 4.71116e-06 0)
(0.0121469 4.64731e-06 0)
(0.0120724 4.61807e-06 0)
(0.0119985 4.65832e-06 0)
(0.0119237 4.74967e-06 0)
(0.0118562 5.09895e-06 0)
(0.0116553 2.75232e-05 0)
(0.189995 0.00961357 0)
(0.187731 0.0101611 0)
(0.183892 0.00996894 0)
(0.178811 0.00949016 0)
(0.172971 0.00886319 0)
(0.16671 0.00813563 0)
(0.160248 0.00734733 0)
(0.153749 0.00653553 0)
(0.147351 0.0057321 0)
(0.141154 0.00496367 0)
(0.13523 0.00425149 0)
(0.129623 0.00361052 0)
(0.124354 0.003049 0)
(0.119432 0.00256887 0)
(0.114853 0.00216686 0)
(0.110603 0.00183597 0)
(0.106667 0.001567 0)
(0.103024 0.00134999 0)
(0.0996523 0.00117524 0)
(0.0965306 0.00103404 0)
(0.0936376 0.000919012 0)
(0.0909531 0.000824175 0)
(0.0884584 0.000744878 0)
(0.0861362 0.0006776 0)
(0.0839706 0.000619727 0)
(0.0819474 0.000569345 0)
(0.0800536 0.000525054 0)
(0.0782775 0.000485819 0)
(0.0766085 0.000450864 0)
(0.0750372 0.000419588 0)
(0.0735549 0.000391512 0)
(0.072154 0.000366243 0)
(0.0708274 0.000343447 0)
(0.069569 0.000322838 0)
(0.068373 0.000304164 0)
(0.0672344 0.000287203 0)
(0.0661486 0.00027176 0)
(0.0651113 0.000257663 0)
(0.0641189 0.000244758 0)
(0.063168 0.000232911 0)
(0.0622556 0.000222005 0)
(0.0613788 0.000211936 0)
(0.0605353 0.000202613 0)
(0.0597227 0.000193958 0)
(0.058939 0.000185901 0)
(0.0581823 0.000178382 0)
(0.057451 0.000171347 0)
(0.0567434 0.000164752 0)
(0.0560583 0.000158554 0)
(0.0553943 0.000152718 0)
(0.0547502 0.000147213 0)
(0.054125 0.00014201 0)
(0.0535176 0.000137084 0)
(0.0529272 0.000132414 0)
(0.0523529 0.000127978 0)
(0.051794 0.000123759 0)
(0.0512496 0.000119741 0)
(0.0507193 0.000115908 0)
(0.0502022 0.000112249 0)
(0.049698 0.00010875 0)
(0.0492059 0.0001054 0)
(0.0487257 0.00010219 0)
(0.0482568 9.91089e-05 0)
(0.0477987 9.61495e-05 0)
(0.0473512 9.33035e-05 0)
(0.0469138 9.05635e-05 0)
(0.0464861 8.79228e-05 0)
(0.046068 8.53753e-05 0)
(0.0456591 8.2915e-05 0)
(0.0452591 8.05367e-05 0)
(0.0448677 7.82354e-05 0)
(0.0444848 7.60066e-05 0)
(0.0441102 7.38459e-05 0)
(0.0437435 7.17494e-05 0)
(0.0433847 6.97136e-05 0)
(0.0430336 6.77352e-05 0)
(0.04269 6.58111e-05 0)
(0.0423537 6.39387e-05 0)
(0.0420247 6.21156e-05 0)
(0.0417028 6.03396e-05 0)
(0.0413878 5.86091e-05 0)
(0.0410798 5.69227e-05 0)
(0.0407785 5.52793e-05 0)
(0.0404838 5.36783e-05 0)
(0.0401957 5.21195e-05 0)
(0.0399141 5.06033e-05 0)
(0.0396389 4.91306e-05 0)
(0.0393698 4.7703e-05 0)
(0.039107 4.63229e-05 0)
(0.0388501 4.4994e-05 0)
(0.038599 4.37212e-05 0)
(0.0383536 4.25117e-05 0)
(0.0381137 4.1377e-05 0)
(0.0378789 4.03358e-05 0)
(0.0376489 3.94238e-05 0)
(0.0374231 3.87192e-05 0)
(0.0372003 3.84126e-05 0)
(0.036978 3.89806e-05 0)
(0.0367645 4.48315e-05 0)
(0.0363545 9.92737e-05 0)
(0.193005 0.0091694 0)
(0.193751 0.0101555 0)
(0.193942 0.0105418 0)
(0.193409 0.0105999 0)
(0.192238 0.0104228 0)
(0.190529 0.0100459 0)
(0.188358 0.00951268 0)
(0.185801 0.0088731 0)
(0.182939 0.00817418 0)
(0.179855 0.00745654 0)
(0.176623 0.00675332 0)
(0.173303 0.00608916 0)
(0.169949 0.00547996 0)
(0.1666 0.00493353 0)
(0.163289 0.0044512 0)
(0.160035 0.00402964 0)
(0.156856 0.00366282 0)
(0.153761 0.0033435 0)
(0.150755 0.0030644 0)
(0.147843 0.0028189 0)
(0.145024 0.00260133 0)
(0.142299 0.00240708 0)
(0.139667 0.00223247 0)
(0.137126 0.00207463 0)
(0.134674 0.00193132 0)
(0.132309 0.00180079 0)
(0.130029 0.00168163 0)
(0.12783 0.00157268 0)
(0.125711 0.00147295 0)
(0.123668 0.00138161 0)
(0.121699 0.0012979 0)
(0.119801 0.00122113 0)
(0.117971 0.00115069 0)
(0.116206 0.001086 0)
(0.114502 0.00102654 0)
(0.112859 0.000971833 0)
(0.111271 0.000921438 0)
(0.109738 0.000874955 0)
(0.108256 0.000832017 0)
(0.106822 0.000792294 0)
(0.105435 0.000755483 0)
(0.104093 0.000721315 0)
(0.102792 0.000689544 0)
(0.101531 0.00065995 0)
(0.100308 0.000632336 0)
(0.0991205 0.000606523 0)
(0.0979676 0.000582352 0)
(0.0968474 0.000559678 0)
(0.0957582 0.000538373 0)
(0.0946986 0.00051832 0)
(0.0936672 0.000499416 0)
(0.0926628 0.000481565 0)
(0.0916841 0.000464682 0)
(0.09073 0.000448692 0)
(0.0897995 0.000433524 0)
(0.0888915 0.000419115 0)
(0.0880052 0.000405408 0)
(0.0871396 0.000392351 0)
(0.086294 0.000379897 0)
(0.0854676 0.000368003 0)
(0.0846596 0.000356628 0)
(0.0838695 0.000345737 0)
(0.0830966 0.000335297 0)
(0.0823403 0.000325277 0)
(0.0816 0.000315648 0)
(0.0808754 0.000306386 0)
(0.0801658 0.000297466 0)
(0.0794709 0.000288865 0)
(0.0787903 0.000280565 0)
(0.0781235 0.000272545 0)
(0.0774702 0.000264787 0)
(0.0768301 0.000257277 0)
(0.0762028 0.000249997 0)
(0.0755882 0.000242936 0)
(0.0749859 0.000236078 0)
(0.0743957 0.000229413 0)
(0.0738173 0.00022293 0)
(0.0732506 0.000216617 0)
(0.0726954 0.000210467 0)
(0.0721515 0.000204472 0)
(0.0716187 0.000198623 0)
(0.071097 0.000192916 0)
(0.0705861 0.000187345 0)
(0.070086 0.000181906 0)
(0.0695964 0.000176598 0)
(0.0691174 0.000171419 0)
(0.0686488 0.00016637 0)
(0.0681904 0.000161454 0)
(0.0677421 0.000156677 0)
(0.0673039 0.000152046 0)
(0.0668754 0.000147574 0)
(0.0664565 0.000143279 0)
(0.066047 0.000139189 0)
(0.0656465 0.000135351 0)
(0.0652545 0.000131856 0)
(0.0648704 0.000128897 0)
(0.0644928 0.000126955 0)
(0.0641191 0.00012765 0)
(0.0637531 0.000141381 0)
(0.0632069 0.000209656 0)
(0.194132 0.00849626 0)
(0.195127 0.00954934 0)
(0.19608 0.0101464 0)
(0.196786 0.0104382 0)
(0.197207 0.010499 0)
(0.197345 0.0103588 0)
(0.197187 0.0100507 0)
(0.196732 0.00961519 0)
(0.195994 0.00909347 0)
(0.195 0.00852284 0)
(0.193787 0.00793555 0)
(0.192391 0.00735752 0)
(0.190849 0.00680757 0)
(0.189196 0.00629749 0)
(0.187461 0.00583299 0)
(0.185669 0.00541505 0)
(0.18384 0.00504144 0)
(0.181989 0.00470809 0)
(0.180128 0.00441008 0)
(0.178264 0.00414245 0)
(0.176404 0.00390063 0)
(0.174552 0.00368064 0)
(0.172713 0.00347918 0)
(0.170888 0.0032936 0)
(0.16908 0.00312179 0)
(0.167291 0.00296211 0)
(0.165521 0.00281325 0)
(0.163773 0.0026742 0)
(0.162048 0.0025441 0)
(0.160346 0.00242225 0)
(0.158668 0.00230805 0)
(0.157015 0.00220095 0)
(0.155388 0.00210047 0)
(0.153786 0.00200616 0)
(0.15221 0.0019176 0)
(0.150661 0.0018344 0)
(0.149137 0.00175619 0)
(0.147639 0.00168264 0)
(0.146167 0.00161342 0)
(0.144721 0.00154823 0)
(0.1433 0.00148679 0)
(0.141904 0.00142885 0)
(0.140533 0.00137415 0)
(0.139187 0.00132248 0)
(0.137864 0.00127362 0)
(0.136565 0.00122738 0)
(0.135289 0.00118358 0)
(0.134036 0.00114205 0)
(0.132805 0.00110265 0)
(0.131596 0.00106521 0)
(0.130408 0.00102962 0)
(0.129241 0.000995749 0)
(0.128095 0.000963482 0)
(0.126969 0.000932716 0)
(0.125862 0.000903352 0)
(0.124774 0.0008753 0)
(0.123705 0.000848474 0)
(0.122654 0.000822797 0)
(0.121622 0.000798196 0)
(0.120606 0.000774603 0)
(0.119608 0.000751955 0)
(0.118627 0.000730193 0)
(0.117662 0.000709263 0)
(0.116713 0.000689113 0)
(0.11578 0.000669697 0)
(0.114862 0.000650968 0)
(0.11396 0.000632887 0)
(0.113073 0.000615412 0)
(0.1122 0.000598509 0)
(0.111341 0.000582143 0)
(0.110497 0.00056628 0)
(0.109667 0.000550892 0)
(0.108851 0.000535951 0)
(0.108048 0.000521428 0)
(0.107258 0.000507301 0)
(0.106482 0.000493545 0)
(0.105719 0.000480139 0)
(0.104969 0.000467065 0)
(0.104232 0.000454302 0)
(0.103508 0.000441836 0)
(0.102797 0.000429651 0)
(0.102098 0.000417735 0)
(0.101412 0.000406077 0)
(0.100739 0.000394669 0)
(0.100077 0.000383504 0)
(0.0994289 0.00037258 0)
(0.0987927 0.000361895 0)
(0.0981689 0.000351454 0)
(0.0975574 0.000341264 0)
(0.0969581 0.000331337 0)
(0.0963709 0.000321694 0)
(0.0957956 0.000312366 0)
(0.0952322 0.000303401 0)
(0.0946803 0.00029488 0)
(0.0941395 0.000286953 0)
(0.0936091 0.000279943 0)
(0.0930881 0.000274663 0)
(0.0925745 0.00027383 0)
(0.0920716 0.000289637 0)
(0.0914197 0.00035154 0)
(0.195007 0.007977 0)
(0.195806 0.00893413 0)
(0.1967 0.00954882 0)
(0.19754 0.00990208 0)
(0.198276 0.0100547 0)
(0.198891 0.0100352 0)
(0.199362 0.00986719 0)
(0.199667 0.00958001 0)
(0.199794 0.0092049 0)
(0.199745 0.0087718 0)
(0.199528 0.00830778 0)
(0.19916 0.00783583 0)
(0.19866 0.0073739 0)
(0.198048 0.00693456 0)
(0.197344 0.00652533 0)
(0.196567 0.0061495 0)
(0.195731 0.00580727 0)
(0.194849 0.00549677 0)
(0.19393 0.00521497 0)
(0.192982 0.00495844 0)
(0.19201 0.00472374 0)
(0.191018 0.0045078 0)
(0.190009 0.00430795 0)
(0.188987 0.00412203 0)
(0.187951 0.00394828 0)
(0.186905 0.00378532 0)
(0.18585 0.00363206 0)
(0.184786 0.00348762 0)
(0.183716 0.0033513 0)
(0.18264 0.00322249 0)
(0.181559 0.00310068 0)
(0.180474 0.00298541 0)
(0.179387 0.00287626 0)
(0.178297 0.00277284 0)
(0.177207 0.0026748 0)
(0.176116 0.00258179 0)
(0.175025 0.00249349 0)
(0.173935 0.00240959 0)
(0.172847 0.00232982 0)
(0.17176 0.00225391 0)
(0.170676 0.0021816 0)
(0.169595 0.00211267 0)
(0.168518 0.0020469 0)
(0.167444 0.0019841 0)
(0.166375 0.00192407 0)
(0.16531 0.00186664 0)
(0.16425 0.00181165 0)
(0.163195 0.00175896 0)
(0.162145 0.00170843 0)
(0.161102 0.00165992 0)
(0.160064 0.00161334 0)
(0.159033 0.00156855 0)
(0.158008 0.00152547 0)
(0.15699 0.00148399 0)
(0.155979 0.00144403 0)
(0.154975 0.0014055 0)
(0.153978 0.00136834 0)
(0.152989 0.00133245 0)
(0.152007 0.00129778 0)
(0.151033 0.00126426 0)
(0.150067 0.00123183 0)
(0.149109 0.00120043 0)
(0.148159 0.00117002 0)
(0.147217 0.00114053 0)
(0.146284 0.00111192 0)
(0.145358 0.00108414 0)
(0.144442 0.00105715 0)
(0.143534 0.00103091 0)
(0.142635 0.00100538 0)
(0.141744 0.000980526 0)
(0.140863 0.000956301 0)
(0.139991 0.000932678 0)
(0.139127 0.000909623 0)
(0.138273 0.000887106 0)
(0.137428 0.000865096 0)
(0.136593 0.000843567 0)
(0.135767 0.000822493 0)
(0.134951 0.000801848 0)
(0.134145 0.000781612 0)
(0.133348 0.000761762 0)
(0.132562 0.000742281 0)
(0.131785 0.000723152 0)
(0.131019 0.000704362 0)
(0.130263 0.0006859 0)
(0.129518 0.000667759 0)
(0.128784 0.000649935 0)
(0.12806 0.000632428 0)
(0.127347 0.000615244 0)
(0.126645 0.000598395 0)
(0.125954 0.0005819 0)
(0.125274 0.00056579 0)
(0.124606 0.000550111 0)
(0.123948 0.000534931 0)
(0.123302 0.000520366 0)
(0.122666 0.000506628 0)
(0.122041 0.000494154 0)
(0.121425 0.000484012 0)
(0.120819 0.000479366 0)
(0.120229 0.000490234 0)
(0.119515 0.00053001 0)
(0.195789 0.00753815 0)
(0.19639 0.00836428 0)
(0.197104 0.00894662 0)
(0.197832 0.00931677 0)
(0.198524 0.00951401 0)
(0.19916 0.00956179 0)
(0.19972 0.00947884 0)
(0.200186 0.00928735 0)
(0.200544 0.00901209 0)
(0.20079 0.00867758 0)
(0.200925 0.00830647 0)
(0.200957 0.0079185 0)
(0.200894 0.00752971 0)
(0.20075 0.00715207 0)
(0.200537 0.00679351 0)
(0.200267 0.00645848 0)
(0.199951 0.00614869 0)
(0.199597 0.00586386 0)
(0.199214 0.00560248 0)
(0.198806 0.00536241 0)
(0.198377 0.0051413 0)
(0.19793 0.00493682 0)
(0.197467 0.00474692 0)
(0.196989 0.0045698 0)
(0.196497 0.00440396 0)
(0.195992 0.00424816 0)
(0.195474 0.00410141 0)
(0.194945 0.00396288 0)
(0.194403 0.00383188 0)
(0.19385 0.00370785 0)
(0.193285 0.00359027 0)
(0.19271 0.00347871 0)
(0.192125 0.00337277 0)
(0.191529 0.00327207 0)
(0.190923 0.00317628 0)
(0.190309 0.00308507 0)
(0.189685 0.00299816 0)
(0.189052 0.00291526 0)
(0.188411 0.0028361 0)
(0.187763 0.00276044 0)
(0.187106 0.00268805 0)
(0.186442 0.00261872 0)
(0.18577 0.00255224 0)
(0.185092 0.00248844 0)
(0.184408 0.00242713 0)
(0.183717 0.00236816 0)
(0.18302 0.00231139 0)
(0.182318 0.00225666 0)
(0.181611 0.00220387 0)
(0.180898 0.00215289 0)
(0.180181 0.00210361 0)
(0.17946 0.00205593 0)
(0.178734 0.00200976 0)
(0.178005 0.00196502 0)
(0.177272 0.00192161 0)
(0.176537 0.00187948 0)
(0.175798 0.00183854 0)
(0.175057 0.00179874 0)
(0.174314 0.00176001 0)
(0.173568 0.0017223 0)
(0.172821 0.00168554 0)
(0.172073 0.00164971 0)
(0.171324 0.00161474 0)
(0.170573 0.00158058 0)
(0.169823 0.00154721 0)
(0.169072 0.00151458 0)
(0.168321 0.00148264 0)
(0.167571 0.00145137 0)
(0.166821 0.00142073 0)
(0.166072 0.00139068 0)
(0.165324 0.0013612 0)
(0.164578 0.00133225 0)
(0.163833 0.0013038 0)
(0.163091 0.00127583 0)
(0.162351 0.00124831 0)
(0.161613 0.00122121 0)
(0.160879 0.00119451 0)
(0.160147 0.00116819 0)
(0.15942 0.00114223 0)
(0.158695 0.00111661 0)
(0.157975 0.0010913 0)
(0.15726 0.00106631 0)
(0.156549 0.00104161 0)
(0.155843 0.00101719 0)
(0.155142 0.000993067 0)
(0.154447 0.000969225 0)
(0.153758 0.000945673 0)
(0.153074 0.000922424 0)
(0.152397 0.000899496 0)
(0.151727 0.000876922 0)
(0.151064 0.000854742 0)
(0.150408 0.000833021 0)
(0.149758 0.000811851 0)
(0.149117 0.000791379 0)
(0.148482 0.000771864 0)
(0.147855 0.000753807 0)
(0.147235 0.000738317 0)
(0.146624 0.000728074 0)
(0.14603 0.000728648 0)
(0.145334 0.000738246 0)
(0.1965 0.00717648 0)
(0.196949 0.00788003 0)
(0.197498 0.00841392 0)
(0.198083 0.00878091 0)
(0.198662 0.00900049 0)
(0.199211 0.00908953 0)
(0.199713 0.00906304 0)
(0.200153 0.00893836 0)
(0.200521 0.00873522 0)
(0.200813 0.00847369 0)
(0.201027 0.00817268 0)
(0.201168 0.00784906 0)
(0.201243 0.00751696 0)
(0.201259 0.00718748 0)
(0.201226 0.00686856 0)
(0.201153 0.00656534 0)
(0.201048 0.00628059 0)
(0.200917 0.00601529 0)
(0.200768 0.00576916 0)
(0.200603 0.00554117 0)
(0.200427 0.00532988 0)
(0.20024 0.00513368 0)
(0.200046 0.00495105 0)
(0.199844 0.00478054 0)
(0.199635 0.00462091 0)
(0.19942 0.00447107 0)
(0.199198 0.0043301 0)
(0.198969 0.00419723 0)
(0.198733 0.0040718 0)
(0.19849 0.00395323 0)
(0.19824 0.00384102 0)
(0.197983 0.00373472 0)
(0.197719 0.00363392 0)
(0.197447 0.00353825 0)
(0.197168 0.00344737 0)
(0.196881 0.00336095 0)
(0.196586 0.00327869 0)
(0.196284 0.0032003 0)
(0.195974 0.00312551 0)
(0.195656 0.00305408 0)
(0.19533 0.00298577 0)
(0.194997 0.00292037 0)
(0.194655 0.00285766 0)
(0.194306 0.00279746 0)
(0.193949 0.0027396 0)
(0.193585 0.0026839 0)
(0.193212 0.00263023 0)
(0.192832 0.00257843 0)
(0.192445 0.00252839 0)
(0.19205 0.00247998 0)
(0.191648 0.00243309 0)
(0.191238 0.00238762 0)
(0.190821 0.00234348 0)
(0.190397 0.00230058 0)
(0.189966 0.00225883 0)
(0.189528 0.00221817 0)
(0.189084 0.00217853 0)
(0.188633 0.00213984 0)
(0.188175 0.00210204 0)
(0.187711 0.00206507 0)
(0.187242 0.00202889 0)
(0.186766 0.00199345 0)
(0.186285 0.00195869 0)
(0.185798 0.00192458 0)
(0.185306 0.00189107 0)
(0.184809 0.00185813 0)
(0.184307 0.00182572 0)
(0.1838 0.0017938 0)
(0.183289 0.00176235 0)
(0.182773 0.00173132 0)
(0.182254 0.0017007 0)
(0.18173 0.00167044 0)
(0.181204 0.00164053 0)
(0.180674 0.00161093 0)
(0.180141 0.00158162 0)
(0.179605 0.00155258 0)
(0.179067 0.00152379 0)
(0.178526 0.00149521 0)
(0.177984 0.00146684 0)
(0.17744 0.00143866 0)
(0.176894 0.00141065 0)
(0.176348 0.00138281 0)
(0.175801 0.00135511 0)
(0.175253 0.00132756 0)
(0.174706 0.00130016 0)
(0.174159 0.00127291 0)
(0.173612 0.00124583 0)
(0.173066 0.00121892 0)
(0.172521 0.00119223 0)
(0.171977 0.00116579 0)
(0.171436 0.00113966 0)
(0.170896 0.00111391 0)
(0.170358 0.00108866 0)
(0.169823 0.00106407 0)
(0.169291 0.00104043 0)
(0.168761 0.0010182 0)
(0.168235 0.000998275 0)
(0.167715 0.000982175 0)
(0.167209 0.000970758 0)
(0.166617 0.000952254 0)
(0.197151 0.00688012 0)
(0.197485 0.0074784 0)
(0.197898 0.00795762 0)
(0.198351 0.0083084 0)
(0.198812 0.00853691 0)
(0.199258 0.00865329 0)
(0.199673 0.00866863 0)
(0.200046 0.008596 0)
(0.200368 0.00845058 0)
(0.200633 0.00824834 0)
(0.200841 0.00800483 0)
(0.200994 0.0077343 0)
(0.201097 0.00744914 0)
(0.201156 0.00715951 0)
(0.201177 0.00687319 0)
(0.201167 0.00659572 0)
(0.201134 0.00633065 0)
(0.201083 0.00607996 0)
(0.201018 0.00584441 0)
(0.200944 0.00562392 0)
(0.200863 0.00541791 0)
(0.200778 0.00522548 0)
(0.200689 0.00504562 0)
(0.200599 0.00487732 0)
(0.200506 0.0047196 0)
(0.200413 0.00457158 0)
(0.200317 0.00443246 0)
(0.200221 0.00430155 0)
(0.200122 0.00417822 0)
(0.200022 0.00406191 0)
(0.199919 0.00395213 0)
(0.199814 0.00384841 0)
(0.199707 0.00375035 0)
(0.199597 0.00365756 0)
(0.199484 0.00356967 0)
(0.199367 0.00348636 0)
(0.199247 0.00340729 0)
(0.199124 0.00333219 0)
(0.198996 0.00326077 0)
(0.198865 0.00319276 0)
(0.19873 0.00312793 0)
(0.19859 0.00306604 0)
(0.198445 0.00300688 0)
(0.198296 0.00295025 0)
(0.198142 0.00289597 0)
(0.197983 0.00284386 0)
(0.19782 0.00279377 0)
(0.197651 0.00274554 0)
(0.197476 0.00269904 0)
(0.197297 0.00265414 0)
(0.197112 0.00261072 0)
(0.196921 0.00256868 0)
(0.196725 0.00252791 0)
(0.196524 0.00248833 0)
(0.196316 0.00244983 0)
(0.196103 0.00241235 0)
(0.195885 0.00237581 0)
(0.19566 0.00234014 0)
(0.19543 0.00230527 0)
(0.195194 0.00227115 0)
(0.194952 0.00223771 0)
(0.194705 0.00220491 0)
(0.194452 0.00217269 0)
(0.194193 0.002141 0)
(0.193929 0.00210982 0)
(0.193659 0.00207908 0)
(0.193383 0.00204875 0)
(0.193102 0.00201879 0)
(0.192816 0.00198917 0)
(0.192524 0.00195986 0)
(0.192228 0.00193081 0)
(0.191926 0.001902 0)
(0.191619 0.00187339 0)
(0.191307 0.00184497 0)
(0.19099 0.00181669 0)
(0.190669 0.00178853 0)
(0.190343 0.00176048 0)
(0.190013 0.0017325 0)
(0.189679 0.00170458 0)
(0.189341 0.00167669 0)
(0.188999 0.00164883 0)
(0.188653 0.00162097 0)
(0.188304 0.00159311 0)
(0.187952 0.00156525 0)
(0.187596 0.00153738 0)
(0.187238 0.00150951 0)
(0.186877 0.00148166 0)
(0.186514 0.00145384 0)
(0.186148 0.0014261 0)
(0.185781 0.00139847 0)
(0.185411 0.00137103 0)
(0.185041 0.00134386 0)
(0.184669 0.00131707 0)
(0.184295 0.00129084 0)
(0.183921 0.00126541 0)
(0.183547 0.00124116 0)
(0.183172 0.00121857 0)
(0.182801 0.0011979 0)
(0.182439 0.00117677 0)
(0.182005 0.00114071 0)
(0.197719 0.00664617 0)
(0.197966 0.00716238 0)
(0.198273 0.00759207 0)
(0.198617 0.0079227 0)
(0.198973 0.00815302 0)
(0.199325 0.0082876 0)
(0.199657 0.00833373 0)
(0.19996 0.00830092 0)
(0.200225 0.00820062 0)
(0.200449 0.00804543 0)
(0.20063 0.00784806 0)
(0.200768 0.00762057 0)
(0.200868 0.0073738 0)
(0.200932 0.00711703 0)
(0.200967 0.00685773 0)
(0.200977 0.00660162 0)
(0.200968 0.00635278 0)
(0.200944 0.0061139 0)
(0.200909 0.00588654 0)
(0.200867 0.00567141 0)
(0.200821 0.00546862 0)
(0.200771 0.0052779 0)
(0.20072 0.00509872 0)
(0.200668 0.00493043 0)
(0.200617 0.00477236 0)
(0.200565 0.00462382 0)
(0.200515 0.00448415 0)
(0.200465 0.00435274 0)
(0.200416 0.00422902 0)
(0.200367 0.00411246 0)
(0.200319 0.00400258 0)
(0.200271 0.00389894 0)
(0.200222 0.00380112 0)
(0.200174 0.00370873 0)
(0.200125 0.0036214 0)
(0.200076 0.0035388 0)
(0.200026 0.0034606 0)
(0.199976 0.0033865 0)
(0.199924 0.00331621 0)
(0.199871 0.00324947 0)
(0.199817 0.00318602 0)
(0.199761 0.00312564 0)
(0.199703 0.00306809 0)
(0.199644 0.00301317 0)
(0.199583 0.00296069 0)
(0.199519 0.00291047 0)
(0.199453 0.00286235 0)
(0.199385 0.00281617 0)
(0.199315 0.00277178 0)
(0.199241 0.00272905 0)
(0.199165 0.00268786 0)
(0.199087 0.00264809 0)
(0.199005 0.00260963 0)
(0.19892 0.00257239 0)
(0.198832 0.00253627 0)
(0.19874 0.00250118 0)
(0.198645 0.00246705 0)
(0.198547 0.00243379 0)
(0.198446 0.00240135 0)
(0.19834 0.00236965 0)
(0.198231 0.00233863 0)
(0.198119 0.00230823 0)
(0.198003 0.0022784 0)
(0.197882 0.00224909 0)
(0.197758 0.00222025 0)
(0.19763 0.00219182 0)
(0.197499 0.00216378 0)
(0.197363 0.00213607 0)
(0.197223 0.00210865 0)
(0.197079 0.00208148 0)
(0.196932 0.00205454 0)
(0.19678 0.00202777 0)
(0.196624 0.00200115 0)
(0.196465 0.00197464 0)
(0.196301 0.00194821 0)
(0.196134 0.00192184 0)
(0.195962 0.00189549 0)
(0.195787 0.00186913 0)
(0.195608 0.00184274 0)
(0.195425 0.00181631 0)
(0.195238 0.0017898 0)
(0.195048 0.00176321 0)
(0.194855 0.00173652 0)
(0.194657 0.00170973 0)
(0.194457 0.00168283 0)
(0.194253 0.00165583 0)
(0.194046 0.00162874 0)
(0.193836 0.00160159 0)
(0.193623 0.00157442 0)
(0.193407 0.00154726 0)
(0.193188 0.00152018 0)
(0.192967 0.00149328 0)
(0.192743 0.00146667 0)
(0.192517 0.00144049 0)
(0.192289 0.00141496 0)
(0.192059 0.00139028 0)
(0.191828 0.00136657 0)
(0.191598 0.00134325 0)
(0.191371 0.00131689 0)
(0.191089 0.00127567 0)
(0.198283 0.00645867 0)
(0.198457 0.00690752 0)
(0.198673 0.00729111 0)
(0.198918 0.00759781 0)
(0.199176 0.00782305 0)
(0.199434 0.00796753 0)
(0.199681 0.00803529 0)
(0.199909 0.00803281 0)
(0.200112 0.0079685 0)
(0.200286 0.00785203 0)
(0.200429 0.00769359 0)
(0.200542 0.00750321 0)
(0.200626 0.00729022 0)
(0.200684 0.00706293 0)
(0.200719 0.00682837 0)
(0.200735 0.00659223 0)
(0.200736 0.00635887 0)
(0.200725 0.00613148 0)
(0.200705 0.00591224 0)
(0.200679 0.00570248 0)
(0.200649 0.00550295 0)
(0.200617 0.00531388 0)
(0.200584 0.00513521 0)
(0.20055 0.00496667 0)
(0.200517 0.00480784 0)
(0.200485 0.00465826 0)
(0.200453 0.00451741 0)
(0.200423 0.00438479 0)
(0.200394 0.00425989 0)
(0.200366 0.00414223 0)
(0.200339 0.00403137 0)
(0.200314 0.00392686 0)
(0.200289 0.0038283 0)
(0.200265 0.00373529 0)
(0.200242 0.00364748 0)
(0.200219 0.00356453 0)
(0.200197 0.0034861 0)
(0.200175 0.00341188 0)
(0.200154 0.0033416 0)
(0.200133 0.00327498 0)
(0.200112 0.00321176 0)
(0.200091 0.0031517 0)
(0.20007 0.00309459 0)
(0.200048 0.0030402 0)
(0.200027 0.00298834 0)
(0.200005 0.00293883 0)
(0.199982 0.0028915 0)
(0.199959 0.00284619 0)
(0.199935 0.00280274 0)
(0.19991 0.00276103 0)
(0.199885 0.00272093 0)
(0.199859 0.0026823 0)
(0.199831 0.00264506 0)
(0.199803 0.00260908 0)
(0.199773 0.00257427 0)
(0.199742 0.00254055 0)
(0.19971 0.00250783 0)
(0.199677 0.00247603 0)
(0.199642 0.00244508 0)
(0.199605 0.00241491 0)
(0.199567 0.00238545 0)
(0.199527 0.00235665 0)
(0.199486 0.00232844 0)
(0.199443 0.00230076 0)
(0.199398 0.00227358 0)
(0.199351 0.00224683 0)
(0.199302 0.00222047 0)
(0.199251 0.00219446 0)
(0.199198 0.00216874 0)
(0.199143 0.00214328 0)
(0.199086 0.00211804 0)
(0.199027 0.00209298 0)
(0.198966 0.00206805 0)
(0.198902 0.00204323 0)
(0.198836 0.00201847 0)
(0.198768 0.00199375 0)
(0.198697 0.00196902 0)
(0.198624 0.00194427 0)
(0.198549 0.00191947 0)
(0.198472 0.00189458 0)
(0.198392 0.00186959 0)
(0.198309 0.00184447 0)
(0.198225 0.00181921 0)
(0.198138 0.00179381 0)
(0.198048 0.00176826 0)
(0.197956 0.00174256 0)
(0.197862 0.00171672 0)
(0.197765 0.00169077 0)
(0.197666 0.00166473 0)
(0.197565 0.00163867 0)
(0.197462 0.00161263 0)
(0.197356 0.00158671 0)
(0.197248 0.001561 0)
(0.197138 0.00153563 0)
(0.197025 0.00151073 0)
(0.196912 0.00148639 0)
(0.196796 0.00146248 0)
(0.196681 0.00143818 0)
(0.196565 0.00141076 0)
(0.196411 0.00137367 0)
(0.198886 0.00629268 0)
(0.198989 0.00668713 0)
(0.199116 0.00703128 0)
(0.199262 0.00731535 0)
(0.199418 0.0075336 0)
(0.199577 0.00768428 0)
(0.199731 0.00776888 0)
(0.199876 0.00779134 0)
(0.200006 0.00775748 0)
(0.20012 0.0076745 0)
(0.200216 0.00755034 0)
(0.200293 0.00739317 0)
(0.200353 0.00721091 0)
(0.200396 0.00701091 0)
(0.200424 0.00679966 0)
(0.200441 0.00658267 0)
(0.200447 0.00636446 0)
(0.200444 0.00614855 0)
(0.200436 0.00593759 0)
(0.200423 0.00573344 0)
(0.200407 0.00553735 0)
(0.200389 0.00535005 0)
(0.20037 0.0051719 0)
(0.200351 0.00500298 0)
(0.200332 0.00484316 0)
(0.200313 0.00469217 0)
(0.200295 0.00454969 0)
(0.200277 0.00441531 0)
(0.20026 0.00428863 0)
(0.200245 0.00416921 0)
(0.20023 0.00405665 0)
(0.200216 0.00395052 0)
(0.200202 0.00385043 0)
(0.20019 0.00375601 0)
(0.200178 0.00366689 0)
(0.200166 0.00358273 0)
(0.200156 0.00350319 0)
(0.200146 0.00342798 0)
(0.200136 0.00335681 0)
(0.200127 0.00328938 0)
(0.200118 0.00322546 0)
(0.20011 0.00316479 0)
(0.200102 0.00310714 0)
(0.200094 0.00305231 0)
(0.200087 0.00300008 0)
(0.200079 0.00295028 0)
(0.200072 0.00290274 0)
(0.200065 0.00285728 0)
(0.200058 0.00281376 0)
(0.20005 0.00277203 0)
(0.200043 0.00273197 0)
(0.200036 0.00269345 0)
(0.200028 0.00265636 0)
(0.200021 0.0026206 0)
(0.200013 0.00258606 0)
(0.200005 0.00255265 0)
(0.199997 0.00252029 0)
(0.199988 0.00248889 0)
(0.199979 0.00245839 0)
(0.19997 0.00242871 0)
(0.19996 0.00239978 0)
(0.19995 0.00237154 0)
(0.199939 0.00234393 0)
(0.199928 0.00231689 0)
(0.199916 0.00229038 0)
(0.199904 0.00226433 0)
(0.199891 0.00223871 0)
(0.199878 0.00221346 0)
(0.199864 0.00218853 0)
(0.199849 0.00216389 0)
(0.199833 0.00213948 0)
(0.199817 0.00211528 0)
(0.1998 0.00209124 0)
(0.199782 0.00206732 0)
(0.199763 0.00204348 0)
(0.199744 0.00201969 0)
(0.199723 0.00199592 0)
(0.199702 0.00197214 0)
(0.19968 0.00194831 0)
(0.199657 0.0019244 0)
(0.199632 0.0019004 0)
(0.199607 0.00187628 0)
(0.199581 0.00185203 0)
(0.199554 0.00182764 0)
(0.199525 0.00180309 0)
(0.199496 0.0017784 0)
(0.199465 0.00175357 0)
(0.199434 0.00172862 0)
(0.199401 0.00170359 0)
(0.199367 0.00167852 0)
(0.199332 0.00165347 0)
(0.199295 0.00162851 0)
(0.199258 0.00160374 0)
(0.199219 0.00157924 0)
(0.199179 0.00155509 0)
(0.199139 0.00153128 0)
(0.199097 0.00150764 0)
(0.199055 0.0014836 0)
(0.199011 0.00145797 0)
(0.198947 0.00142972 0)
(0.199518 0.00621133 0)
(0.199545 0.0065713 0)
(0.199582 0.00688796 0)
(0.199627 0.00715308 0)
(0.199677 0.00736103 0)
(0.199729 0.00750931 0)
(0.199782 0.00759828 0)
(0.199833 0.00763062 0)
(0.199881 0.00761083 0)
(0.199925 0.00754469 0)
(0.199963 0.00743884 0)
(0.199996 0.0073003 0)
(0.200023 0.00713605 0)
(0.200045 0.00695272 0)
(0.200061 0.00675633 0)
(0.200074 0.00655215 0)
(0.200082 0.00634462 0)
(0.200088 0.00613734 0)
(0.200091 0.00593313 0)
(0.200092 0.0057341 0)
(0.200091 0.00554175 0)
(0.20009 0.00535707 0)
(0.200087 0.00518065 0)
(0.200084 0.00501277 0)
(0.200081 0.00485348 0)
(0.200078 0.00470266 0)
(0.200075 0.00456009 0)
(0.200071 0.00442545 0)
(0.200068 0.00429838 0)
(0.200065 0.00417852 0)
(0.200062 0.00406547 0)
(0.200059 0.00395884 0)
(0.200057 0.00385826 0)
(0.200054 0.00376336 0)
(0.200052 0.00367378 0)
(0.20005 0.00358917 0)
(0.200048 0.00350923 0)
(0.200046 0.00343364 0)
(0.200044 0.0033621 0)
(0.200042 0.00329435 0)
(0.20004 0.00323013 0)
(0.200039 0.0031692 0)
(0.200037 0.00311131 0)
(0.200036 0.00305627 0)
(0.200035 0.00300387 0)
(0.200034 0.00295392 0)
(0.200032 0.00290624 0)
(0.200031 0.00286068 0)
(0.20003 0.00281709 0)
(0.200029 0.00277531 0)
(0.200028 0.00273522 0)
(0.200027 0.00269669 0)
(0.200026 0.00265961 0)
(0.200025 0.00262388 0)
(0.200023 0.00258939 0)
(0.200022 0.00255606 0)
(0.200021 0.00252379 0)
(0.20002 0.0024925 0)
(0.200019 0.00246212 0)
(0.200017 0.00243258 0)
(0.200016 0.00240381 0)
(0.200014 0.00237575 0)
(0.200012 0.00234833 0)
(0.200011 0.0023215 0)
(0.200009 0.00229521 0)
(0.200007 0.0022694 0)
(0.200005 0.00224403 0)
(0.200002 0.00221904 0)
(0.2 0.0021944 0)
(0.199997 0.00217006 0)
(0.199995 0.00214597 0)
(0.199992 0.00212209 0)
(0.199989 0.00209839 0)
(0.199985 0.00207483 0)
(0.199982 0.00205136 0)
(0.199978 0.00202796 0)
(0.199974 0.00200459 0)
(0.19997 0.00198122 0)
(0.199966 0.00195782 0)
(0.199961 0.00193436 0)
(0.199956 0.00191082 0)
(0.19995 0.00188717 0)
(0.199945 0.0018634 0)
(0.199939 0.00183951 0)
(0.199933 0.00181547 0)
(0.199926 0.00179131 0)
(0.199919 0.00176702 0)
(0.199912 0.00174263 0)
(0.199904 0.00171817 0)
(0.199896 0.00169369 0)
(0.199888 0.00166923 0)
(0.199879 0.00164488 0)
(0.19987 0.00162069 0)
(0.19986 0.00159675 0)
(0.19985 0.0015731 0)
(0.199839 0.0015497 0)
(0.199829 0.00152644 0)
(0.199817 0.00150313 0)
(0.199805 0.0014798 0)
(0.199787 0.0014581 0)
(0.199997 1.57638e-06 0)
(0.199988 3.82808e-06 0)