/*--------------------------------*- C++ -*----------------------------------*\
| =========                 |                                                 |
| \\      /  F ield         | OpenFOAM: The Open Source CFD Toolbox           |
|  \\    /   O peration     | Version:  2.3.0                                 |
|   \\  /    A nd           | Web:      www.OpenFOAM.org                      |
|    \\/     M anipulation  |                                                 |
\*---------------------------------------------------------------------------*/
FoamFile
{
    version     2.0;
    format      ascii;
    class       volVectorField;
    location    "0.95";
    object      U_0;
}
// * * * * * * * * * * * * * * * * * * * * * * * * * * * * * * * * * * * * * //

dimensions      [0 1 -1 0 0 0 0];

internalField   nonuniform List<vector> 
1650
(
(0.179796 0.00363174 0)
(0.159937 0.00494803 0)
(0.141186 0.00497913 0)
(0.122585 0.0044851 0)
(0.104424 0.00390429 0)
(0.087474 0.00323988 0)
(0.0728703 0.0024594 0)
(0.0613115 0.00155605 0)
(0.0528676 0.000737335 0)
(0.0469768 0.000200705 0)
(0.0429016 -5.56613e-05 0)
(0.0400583 -0.000140092 0)
(0.0380216 -0.00013975 0)
(0.0364751 -0.000103344 0)
(0.0351996 -5.55903e-05 0)
(0.0340581 -1.21175e-05 0)
(0.032989 1.97488e-05 0)
(0.0319624 3.95757e-05 0)
(0.0309815 4.96104e-05 0)
(0.0300444 5.30533e-05 0)
(0.0291641 5.24559e-05 0)
(0.0283347 4.99172e-05 0)
(0.0275661 4.65238e-05 0)
(0.0268447 4.30898e-05 0)
(0.0261791 3.97498e-05 0)
(0.025551 3.68108e-05 0)
(0.0249713 3.41006e-05 0)
(0.0244184 3.17746e-05 0)
(0.0239079 2.96294e-05 0)
(0.0234145 2.77915e-05 0)
(0.02296 2.60445e-05 0)
(0.0225145 2.45808e-05 0)
(0.0221065 2.3099e-05 0)
(0.0216999 2.1935e-05 0)
(0.0213316 2.0634e-05 0)
(0.0209571 1.97045e-05 0)
(0.0206234 1.85533e-05 0)
(0.0202755 1.77918e-05 0)
(0.0199726 1.67859e-05 0)
(0.0196467 1.6145e-05 0)
(0.0193715 1.52592e-05 0)
(0.0190633 1.47503e-05 0)
(0.0188138 1.39199e-05 0)
(0.0185194 1.35717e-05 0)
(0.018294 1.27559e-05 0)
(0.0180097 1.25622e-05 0)
(0.0178074 1.17543e-05 0)
(0.0175294 1.1705e-05 0)
(0.0173499 1.08879e-05 0)
(0.0170743 1.09895e-05 0)
(0.016918 1.015e-05 0)
(0.0166403 1.04124e-05 0)
(0.0165081 9.50976e-06 0)
(0.0162233 1.00066e-05 0)
(0.016117 8.96147e-06 0)
(0.0158186 9.76985e-06 0)
(0.0157414 8.51465e-06 0)
(0.0154202 9.71705e-06 0)
(0.0153793 8.29756e-06 0)
(0.0150123 1.2056e-05 0)
(0.193391 0.00633546 0)
(0.191689 0.00892506 0)
(0.189143 0.00966137 0)
(0.185161 0.00947988 0)
(0.179561 0.00904297 0)
(0.172514 0.00842122 0)
(0.164626 0.00754077 0)
(0.156415 0.00634862 0)
(0.148347 0.00499959 0)
(0.140675 0.00374508 0)
(0.133506 0.00274829 0)
(0.126901 0.00202284 0)
(0.120911 0.00151855 0)
(0.115534 0.0011871 0)
(0.110729 0.000978356 0)
(0.106404 0.000846782 0)
(0.102503 0.000758004 0)
(0.0989428 0.000691408 0)
(0.0956942 0.000635511 0)
(0.0926921 0.000585233 0)
(0.0899335 0.000538357 0)
(0.0873614 0.000494722 0)
(0.0849899 0.000454392 0)
(0.0827607 0.000417837 0)
(0.0807021 0.000384882 0)
(0.0787493 0.000355632 0)
(0.0769449 0.000329567 0)
(0.0752151 0.000306446 0)
(0.0736188 0.000285812 0)
(0.0720699 0.000267321 0)
(0.070646 0.000250629 0)
(0.0692451 0.000235565 0)
(0.067967 0.000221703 0)
(0.0666884 0.000209245 0)
(0.0655359 0.000197483 0)
(0.0643588 0.000187039 0)
(0.0633166 0.000176967 0)
(0.062224 0.000168066 0)
(0.0612799 0.000159449 0)
(0.0602571 0.000151749 0)
(0.0594019 0.00014435 0)
(0.058436 0.000137726 0)
(0.0576628 0.000131231 0)
(0.0567416 0.000125638 0)
(0.0560457 0.000119833 0)
(0.0551577 0.000115143 0)
(0.0545364 0.000109936 0)
(0.05367 0.000106034 0)
(0.0531226 0.000101324 0)
(0.0522659 9.81541e-05 0)
(0.0517935 9.38756e-05 0)
(0.0509336 9.14021e-05 0)
(0.0505394 8.74382e-05 0)
(0.0496614 8.58101e-05 0)
(0.0493514 8.199e-05 0)
(0.048437 8.1328e-05 0)
(0.0482211 7.76292e-05 0)
(0.0472453 7.81751e-05 0)
(0.0471403 7.44118e-05 0)
(0.0460663 8.23644e-05 0)
(0.194119 0.00582281 0)
(0.194353 0.0081112 0)
(0.195172 0.00937187 0)
(0.195956 0.00975158 0)
(0.196158 0.00972675 0)
(0.195503 0.00947205 0)
(0.194002 0.00893641 0)
(0.191727 0.00808545 0)
(0.188832 0.00702371 0)
(0.185451 0.00594619 0)
(0.181745 0.00501865 0)
(0.17783 0.00429216 0)
(0.173858 0.0037377 0)
(0.169901 0.00331441 0)
(0.166034 0.00298294 0)
(0.162236 0.00271218 0)
(0.158555 0.00248083 0)
(0.154945 0.00227629 0)
(0.15146 0.00209178 0)
(0.148045 0.00192327 0)
(0.14477 0.00176905 0)
(0.141566 0.00162768 0)
(0.138516 0.001499 0)
(0.135534 0.00138201 0)
(0.132718 0.00127665 0)
(0.129959 0.0011815 0)
(0.127375 0.00109645 0)
(0.12483 0.00101947 0)
(0.122466 0.000950856 0)
(0.120117 0.000888197 0)
(0.117957 0.000832274 0)
(0.115786 0.000780687 0)
(0.113813 0.000734449 0)
(0.111797 0.000691468 0)
(0.109995 0.000652724 0)
(0.108113 0.000616458 0)
(0.106469 0.000583739 0)
(0.104702 0.000552695 0)
(0.103201 0.000525005 0)
(0.101531 0.000498053 0)
(0.100165 0.000474562 0)
(0.0985746 0.000451043 0)
(0.0973351 0.000430903 0)
(0.0958079 0.000410391 0)
(0.0946903 0.000392992 0)
(0.0932097 0.000374999 0)
(0.0922119 0.00036001 0)
(0.0907609 0.0003441 0)
(0.0898835 0.000331246 0)
(0.0884442 0.000317118 0)
(0.0876903 0.000306222 0)
(0.0862437 0.000293648 0)
(0.0856193 0.000284513 0)
(0.0841432 0.000273555 0)
(0.0836581 0.00026597 0)
(0.0821262 0.000256742 0)
(0.0817943 0.000250626 0)
(0.0801748 0.000243968 0)
(0.0800127 0.000238563 0)
(0.0782702 0.000242912 0)
(0.194905 0.00548144 0)
(0.195099 0.00720627 0)
(0.195948 0.00850827 0)
(0.197244 0.00911668 0)
(0.198573 0.00925655 0)
(0.199608 0.00912645 0)
(0.200255 0.00876258 0)
(0.200437 0.00815899 0)
(0.200173 0.00737393 0)
(0.199434 0.00653424 0)
(0.198322 0.00577256 0)
(0.196873 0.00515767 0)
(0.195245 0.00468735 0)
(0.193456 0.00432269 0)
(0.191624 0.00402914 0)
(0.189686 0.0037808 0)
(0.187739 0.00356257 0)
(0.185685 0.00336334 0)
(0.183635 0.00317877 0)
(0.181474 0.00300371 0)
(0.179339 0.0028382 0)
(0.177097 0.00267941 0)
(0.174912 0.00252956 0)
(0.172623 0.00238624 0)
(0.170425 0.0022524 0)
(0.168123 0.00212499 0)
(0.165945 0.00200732 0)
(0.163656 0.00189508 0)
(0.161526 0.00179247 0)
(0.15927 0.00169397 0)
(0.157207 0.00160464 0)
(0.154998 0.00151825 0)
(0.153018 0.00144046 0)
(0.150863 0.00136466 0)
(0.14898 0.00129693 0)
(0.14688 0.00123025 0)
(0.145102 0.00117142 0)
(0.143058 0.00111245 0)
(0.14139 0.00106164 0)
(0.139398 0.00100907 0)
(0.137845 0.000965388 0)
(0.135898 0.000918387 0)
(0.134464 0.000880735 0)
(0.132553 0.000838705 0)
(0.131242 0.000806246 0)
(0.129356 0.0007684 0)
(0.128173 0.000740706 0)
(0.126296 0.000706265 0)
(0.125249 0.000682961 0)
(0.123365 0.000651393 0)
(0.122463 0.00063215 0)
(0.120553 0.000603082 0)
(0.119804 0.000587578 0)
(0.117846 0.000561014 0)
(0.117265 0.000548893 0)
(0.115233 0.000525097 0)
(0.114834 0.000516013 0)
(0.112697 0.000496485 0)
(0.112497 0.000489639 0)
(0.110223 0.000481939 0)
(0.195555 0.00532436 0)
(0.195738 0.00666455 0)
(0.196407 0.00785812 0)
(0.197504 0.00855232 0)
(0.198814 0.00877166 0)
(0.200012 0.00867887 0)
(0.201032 0.00837089 0)
(0.201756 0.00788141 0)
(0.202239 0.00725438 0)
(0.202379 0.00656922 0)
(0.202288 0.00592616 0)
(0.201906 0.00538923 0)
(0.201422 0.00497423 0)
(0.200771 0.00465345 0)
(0.200133 0.00439949 0)
(0.19937 0.00418573 0)
(0.19865 0.00400078 0)
(0.197784 0.00383143 0)
(0.196967 0.00367646 0)
(0.195977 0.00352751 0)
(0.195047 0.00338747 0)
(0.193925 0.00324969 0)
(0.192887 0.00311974 0)
(0.191641 0.00299099 0)
(0.190509 0.0028707 0)
(0.189152 0.00275122 0)
(0.187944 0.00264104 0)
(0.186491 0.00253066 0)
(0.185226 0.00243032 0)
(0.183689 0.00232852 0)
(0.182385 0.00223721 0)
(0.180779 0.0021433 0)
(0.179453 0.00206026 0)
(0.177788 0.00197365 0)
(0.17646 0.00189826 0)
(0.174742 0.00181829 0)
(0.173429 0.00175018 0)
(0.171668 0.00167608 0)
(0.170383 0.00161511 0)
(0.168584 0.00154613 0)
(0.167344 0.00149204 0)
(0.16551 0.00142783 0)
(0.164327 0.00137995 0)
(0.162459 0.0013203 0)
(0.161348 0.00127818 0)
(0.159441 0.00122251 0)
(0.158418 0.00118609 0)
(0.156467 0.00113376 0)
(0.155545 0.00110283 0)
(0.153541 0.00105356 0)
(0.152735 0.00102782 0)
(0.150668 0.000981397 0)
(0.149992 0.000960656 0)
(0.147846 0.000917152 0)
(0.147317 0.000901104 0)
(0.145075 0.000861067 0)
(0.14471 0.000849347 0)
(0.14235 0.000814597 0)
(0.142163 0.000807078 0)
(0.139661 0.000783281 0)
(0.1961 0.00520433 0)
(0.196278 0.00629805 0)
(0.196838 0.00732818 0)
(0.197716 0.00802761 0)
(0.198859 0.00830835 0)
(0.199944 0.00826161 0)
(0.200951 0.00800026 0)
(0.201696 0.00758482 0)
(0.202305 0.00706315 0)
(0.202619 0.006485 0)
(0.202815 0.00592667 0)
(0.202744 0.00544096 0)
(0.202654 0.00505608 0)
(0.202386 0.00475407 0)
(0.202208 0.00451835 0)
(0.20189 0.00431995 0)
(0.201702 0.00415204 0)
(0.201349 0.00399717 0)
(0.201136 0.00385923 0)
(0.200722 0.00372523 0)
(0.20046 0.00360332 0)
(0.199964 0.00348119 0)
(0.199643 0.00336988 0)
(0.199058 0.00325627 0)
(0.198678 0.0031539 0)
(0.198001 0.00304806 0)
(0.197564 0.00295443 0)
(0.196795 0.00285567 0)
(0.196303 0.00277014 0)
(0.195442 0.00267769 0)
(0.194902 0.00259932 0)
(0.193949 0.00251229 0)
(0.193368 0.00244025 0)
(0.192323 0.00235799 0)
(0.19171 0.00229165 0)
(0.190575 0.00221369 0)
(0.189938 0.00215267 0)
(0.188714 0.00207836 0)
(0.188063 0.00202263 0)
(0.186752 0.00195121 0)
(0.186097 0.00190094 0)
(0.184701 0.00183223 0)
(0.184053 0.00178696 0)
(0.182573 0.00172104 0)
(0.181945 0.00168052 0)
(0.180378 0.00161701 0)
(0.179784 0.00158146 0)
(0.178128 0.00152005 0)
(0.177582 0.00148933 0)
(0.175835 0.00143018 0)
(0.175348 0.00140412 0)
(0.173506 0.00134717 0)
(0.173092 0.00132596 0)
(0.171148 0.00127149 0)
(0.170822 0.00125493 0)
(0.168769 0.0012039 0)
(0.168543 0.00119189 0)
(0.16637 0.00114625 0)
(0.166255 0.00113948 0)
(0.163953 0.00110325 0)
(0.196579 0.00508648 0)
(0.196744 0.0060009 0)
(0.197234 0.00687289 0)
(0.197934 0.00752222 0)
(0.198914 0.00784074 0)
(0.199851 0.00784913 0)
(0.200791 0.00764456 0)
(0.201474 0.00729455 0)
(0.202086 0.0068565 0)
(0.202404 0.0063654 0)
(0.202679 0.00588088 0)
(0.20268 0.00544052 0)
(0.20272 0.00508087 0)
(0.20255 0.00478951 0)
(0.202522 0.00456265 0)
(0.202319 0.00436899 0)
(0.202308 0.00420786 0)
(0.202102 0.00405627 0)
(0.202106 0.00392452 0)
(0.201879 0.00379397 0)
(0.201879 0.00367947 0)
(0.201614 0.00356234 0)
(0.2016 0.00346028 0)
(0.201289 0.00335289 0)
(0.20126 0.00326093 0)
(0.200898 0.00316182 0)
(0.200853 0.00307929 0)
(0.200435 0.00298742 0)
(0.200372 0.0029133 0)
(0.199894 0.00282766 0)
(0.199812 0.00276087 0)
(0.19927 0.00268025 0)
(0.19917 0.00261977 0)
(0.198559 0.00254337 0)
(0.198442 0.00248823 0)
(0.197757 0.00241565 0)
(0.197625 0.00236519 0)
(0.196863 0.00229575 0)
(0.196716 0.00224986 0)
(0.195876 0.00218227 0)
(0.195717 0.00214123 0)
(0.194795 0.00207527 0)
(0.194629 0.00203848 0)
(0.193623 0.00197438 0)
(0.193455 0.0019414 0)
(0.192361 0.0018788 0)
(0.192196 0.0018498 0)
(0.191013 0.00178853 0)
(0.190858 0.00176318 0)
(0.189583 0.00170371 0)
(0.189442 0.00168191 0)
(0.188076 0.00162399 0)
(0.187956 0.00160615 0)
(0.186495 0.00155037 0)
(0.186401 0.00153617 0)
(0.184845 0.00148371 0)
(0.184781 0.00147343 0)
(0.183128 0.00142622 0)
(0.183098 0.00142094 0)
(0.181348 0.00138184 0)
(0.197008 0.00496627 0)
(0.197157 0.00573962 0)
(0.197593 0.00647721 0)
(0.198153 0.00705572 0)
(0.19899 0.00738697 0)
(0.199784 0.00744687 0)
(0.200645 0.00730388 0)
(0.201261 0.00701631 0)
(0.201855 0.0066493 0)
(0.202155 0.00623059 0)
(0.202458 0.00581255 0)
(0.202482 0.00541692 0)
(0.202577 0.00508448 0)
(0.202442 0.00480429 0)
(0.202467 0.0045848 0)
(0.202294 0.00439331 0)
(0.202334 0.00423594 0)
(0.202163 0.00408443 0)
(0.202226 0.00395496 0)
(0.202048 0.00382372 0)
(0.202122 0.00371152 0)
(0.201926 0.00359439 0)
(0.202005 0.00349578 0)
(0.201785 0.00338929 0)
(0.201868 0.00330171 0)
(0.201623 0.00320398 0)
(0.201712 0.00312645 0)
(0.201438 0.00303648 0)
(0.201531 0.0029677 0)
(0.201227 0.00288438 0)
(0.201323 0.00282347 0)
(0.200985 0.00274542 0)
(0.201083 0.00269131 0)
(0.200707 0.00261784 0)
(0.200806 0.00256921 0)
(0.200388 0.00250023 0)
(0.200487 0.00245613 0)
(0.200024 0.0023909 0)
(0.20012 0.00235156 0)
(0.199609 0.00228808 0)
(0.199702 0.00225368 0)
(0.199138 0.00219195 0)
(0.199227 0.00216148 0)
(0.19861 0.002102 0)
(0.198693 0.00207488 0)
(0.198017 0.00201701 0)
(0.198096 0.00199334 0)
(0.19736 0.00193712 0)
(0.197432 0.00191611 0)
(0.196637 0.00186205 0)
(0.196701 0.00184398 0)
(0.195843 0.00179148 0)
(0.1959 0.00177643 0)
(0.19498 0.00172657 0)
(0.195027 0.00171423 0)
(0.194044 0.00166781 0)
(0.19408 0.00165881 0)
(0.193036 0.00161788 0)
(0.193057 0.00161329 0)
(0.191955 0.00157972 0)
(0.197391 0.00484476 0)
(0.197525 0.00550389 0)
(0.197913 0.00613114 0)
(0.19837 0.00663866 0)
(0.199081 0.00696391 0)
(0.199749 0.00706384 0)
(0.200521 0.0069801 0)
(0.201077 0.00675268 0)
(0.20164 0.00644856 0)
(0.201929 0.00609134 0)
(0.202236 0.00573164 0)
(0.202283 0.00537944 0)
(0.202404 0.00507596 0)
(0.202301 0.00480968 0)
(0.202346 0.00459828 0)
(0.202198 0.00440954 0)
(0.202245 0.00425536 0)
(0.202097 0.00410434 0)
(0.202163 0.00397624 0)
(0.202013 0.00384441 0)
(0.20209 0.0037327 0)
(0.201929 0.0036148 0)
(0.202012 0.00351707 0)
(0.201837 0.00341011 0)
(0.201928 0.00332384 0)
(0.201739 0.00322584 0)
(0.20184 0.00314961 0)
(0.201638 0.00305986 0)
(0.201747 0.00299218 0)
(0.201533 0.00290934 0)
(0.20165 0.00284985 0)
(0.201421 0.00277241 0)
(0.201547 0.00272003 0)
(0.201301 0.00264773 0)
(0.201435 0.00260062 0)
(0.201171 0.00253387 0)
(0.201309 0.00249101 0)
(0.201028 0.00242867 0)
(0.201169 0.00239114 0)
(0.200865 0.00233066 0)
(0.201009 0.00229823 0)
(0.200681 0.0022403 0)
(0.200824 0.00221136 0)
(0.200474 0.0021566 0)
(0.200613 0.00213095 0)
(0.200235 0.00207829 0)
(0.20037 0.00205585 0)
(0.199964 0.00200582 0)
(0.20009 0.00198539 0)
(0.199656 0.00193807 0)
(0.199771 0.00192068 0)
(0.199306 0.00187544 0)
(0.199407 0.00186031 0)
(0.198912 0.0018186 0)
(0.198994 0.00180609 0)
(0.198468 0.00176795 0)
(0.198528 0.00175854 0)
(0.197972 0.0017264 0)
(0.198005 0.00172133 0)
(0.19742 0.00169612 0)
(0.19773 0.00472427 0)
(0.197857 0.00528946 0)
(0.198197 0.00582738 0)
(0.198579 0.00627113 0)
(0.199177 0.0065792 0)
(0.199744 0.00670509 0)
(0.200419 0.00667225 0)
(0.200923 0.00650138 0)
(0.201441 0.00625427 0)
(0.201728 0.00595133 0)
(0.202024 0.00564231 0)
(0.202098 0.00533115 0)
(0.202225 0.0050569 0)
(0.202162 0.00480729 0)
(0.202209 0.00460524 0)
(0.202095 0.00442094 0)
(0.202133 0.00426989 0)
(0.202015 0.00412086 0)
(0.202064 0.00399392 0)
(0.201946 0.00386295 0)
(0.202 0.00375115 0)
(0.201876 0.00363321 0)
(0.201934 0.00353529 0)
(0.2018 0.00342817 0)
(0.201863 0.00334172 0)
(0.201722 0.00324373 0)
(0.201791 0.00316678 0)
(0.201645 0.0030776 0)
(0.201719 0.00300871 0)
(0.20157 0.00292635 0)
(0.20165 0.00286595 0)
(0.201497 0.00278883 0)
(0.201585 0.00273561 0)
(0.201424 0.00266425 0)
(0.201519 0.00261561 0)
(0.201355 0.00255093 0)
(0.201452 0.00250619 0)
(0.201285 0.00244606 0)
(0.201386 0.00240746 0)
(0.20121 0.00234918 0)
(0.201316 0.00231548 0)
(0.201133 0.00226087 0)
(0.201238 0.00223006 0)
(0.20105 0.00217925 0)
(0.201153 0.00215208 0)
(0.200956 0.00210365 0)
(0.201057 0.00207941 0)
(0.200852 0.00203477 0)
(0.200946 0.00201227 0)
(0.200732 0.00197039 0)
(0.200819 0.00195153 0)
(0.200594 0.00191241 0)
(0.200669 0.00189521 0)
(0.200435 0.0018602 0)
(0.200496 0.00184632 0)
(0.200249 0.00181494 0)
(0.200293 0.00180409 0)
(0.200035 0.00177905 0)
(0.200058 0.00177308 0)
(0.199786 0.00175467 0)
(0.198031 0.00460629 0)
(0.198155 0.00509416 0)
(0.198447 0.00555907 0)
(0.198775 0.0059477 0)
(0.199274 0.00623331 0)
(0.19976 0.00637299 0)
(0.200337 0.00637983 0)
(0.200795 0.00625978 0)
(0.20126 0.00606457 0)
(0.201546 0.00581111 0)
(0.201823 0.00554677 0)
(0.201924 0.00527366 0)
(0.202048 0.00502775 0)
(0.202024 0.00479682 0)
(0.202067 0.00460536 0)
(0.201991 0.00442747 0)
(0.202013 0.0042798 0)
(0.201929 0.00413424 0)
(0.201955 0.00400847 0)
(0.201871 0.00387976 0)
(0.201899 0.00376789 0)
(0.201811 0.00365076 0)
(0.201839 0.00355234 0)
(0.201745 0.00344561 0)
(0.201775 0.00335832 0)
(0.201675 0.00326096 0)
(0.201708 0.00318229 0)
(0.201609 0.00309435 0)
(0.201642 0.00302334 0)
(0.201544 0.00294171 0)
(0.201581 0.0028796 0)
(0.201482 0.0028029 0)
(0.201525 0.00274785 0)
(0.201424 0.00267769 0)
(0.201471 0.00262622 0)
(0.201373 0.00256368 0)
(0.20142 0.00251611 0)
(0.201323 0.00245759 0)
(0.201374 0.00241708 0)
(0.201274 0.00236043 0)
(0.20133 0.00232425 0)
(0.20123 0.00227244 0)
(0.201283 0.00223868 0)
(0.201186 0.00219067 0)
(0.201239 0.00216122 0)
(0.20114 0.00211571 0)
(0.201193 0.0020887 0)
(0.201093 0.00204801 0)
(0.201142 0.00202287 0)
(0.201041 0.00198439 0)
(0.201088 0.00196364 0)
(0.200983 0.00192857 0)
(0.201023 0.00190905 0)
(0.200917 0.00187821 0)
(0.20095 0.00186293 0)
(0.200839 0.00183578 0)
(0.200862 0.00182354 0)
(0.200747 0.00180271 0)
(0.200759 0.00179611 0)
(0.200638 0.0017817 0)
(0.198299 0.00449201 0)
(0.198421 0.00491626 0)
(0.198669 0.00532062 0)
(0.198955 0.00566233 0)
(0.199369 0.00592396 0)
(0.199787 0.00606881 0)
(0.200275 0.00610434 0)
(0.200688 0.00602771 0)
(0.201098 0.00587906 0)
(0.201379 0.00567118 0)
(0.201634 0.00544713 0)
(0.201758 0.0052091 0)
(0.201875 0.00499003 0)
(0.201885 0.0047787 0)
(0.201923 0.0045989 0)
(0.201879 0.00442907 0)
(0.201891 0.00428535 0)
(0.201835 0.00414431 0)
(0.201843 0.00402002 0)
(0.201788 0.00389442 0)
(0.201795 0.00378291 0)
(0.201736 0.00366711 0)
(0.201742 0.00356833 0)
(0.201678 0.00346238 0)
(0.201683 0.00337407 0)
(0.201616 0.00327771 0)
(0.201621 0.00319703 0)
(0.201555 0.00311055 0)
(0.20156 0.00303742 0)
(0.201495 0.00295643 0)
(0.201504 0.00289266 0)
(0.201439 0.00281632 0)
(0.201452 0.00275928 0)
(0.201388 0.00269037 0)
(0.201402 0.00263595 0)
(0.201342 0.00257517 0)
(0.201356 0.00252514 0)
(0.201298 0.00246749 0)
(0.201317 0.00242525 0)
(0.201258 0.00236975 0)
(0.201279 0.00233107 0)
(0.201223 0.00228138 0)
(0.201243 0.00224506 0)
(0.201189 0.00219861 0)
(0.201211 0.00216733 0)
(0.201157 0.00212363 0)
(0.201179 0.00209407 0)
(0.201127 0.00205596 0)
(0.201147 0.00202882 0)
(0.201095 0.001992 0)
(0.201115 0.00196991 0)
(0.201062 0.0019371 0)
(0.201079 0.00191591 0)
(0.201026 0.00188728 0)
(0.20104 0.00187108 0)
(0.200984 0.00184621 0)
(0.200994 0.00183315 0)
(0.200936 0.00181434 0)
(0.200941 0.0018075 0)
(0.20088 0.00179501 0)
(0.19854 0.00438245 0)
(0.198657 0.00475412 0)
(0.198867 0.00510787 0)
(0.199117 0.00540979 0)
(0.19946 0.0056481 0)
(0.19982 0.00579265 0)
(0.20023 0.00584781 0)
(0.200597 0.00580662 0)
(0.200956 0.00569868 0)
(0.201225 0.00553241 0)
(0.201458 0.00534521 0)
(0.201595 0.00513962 0)
(0.201708 0.00494574 0)
(0.201742 0.00475406 0)
(0.201779 0.00458664 0)
(0.20176 0.004426 0)
(0.201766 0.00428705 0)
(0.201731 0.00415114 0)
(0.20173 0.00402887 0)
(0.201693 0.00390668 0)
(0.201689 0.00379621 0)
(0.20165 0.00368202 0)
(0.201644 0.00358321 0)
(0.201599 0.00347824 0)
(0.201591 0.00338908 0)
(0.201543 0.0032937 0)
(0.201534 0.00321128 0)
(0.201487 0.00312597 0)
(0.201479 0.00305122 0)
(0.201433 0.00297058 0)
(0.201426 0.0029054 0)
(0.201381 0.00282932 0)
(0.201377 0.00277045 0)
(0.201334 0.0027025 0)
(0.201331 0.00264569 0)
(0.201291 0.0025859 0)
(0.20129 0.00253418 0)
(0.201251 0.00247678 0)
(0.201254 0.00243316 0)
(0.201215 0.00237843 0)
(0.201219 0.00233772 0)
(0.201183 0.00228927 0)
(0.201187 0.0022513 0)
(0.201152 0.00220543 0)
(0.201159 0.00217291 0)
(0.201124 0.00213031 0)
(0.201132 0.0020988 0)
(0.201099 0.00206214 0)
(0.201106 0.00203386 0)
(0.201073 0.00199765 0)
(0.201081 0.00197484 0)
(0.201047 0.00194314 0)
(0.201054 0.00192104 0)
(0.20102 0.0018935 0)
(0.201026 0.00187682 0)
(0.20099 0.0018531 0)
(0.200994 0.0018398 0)
(0.200956 0.00182186 0)
(0.200958 0.001815 0)
(0.200917 0.00180336 0)
(0.198756 0.00427848 0)
(0.198866 0.00460644 0)
(0.199044 0.0049179 0)
(0.199261 0.00518602 0)
(0.199546 0.00540275 0)
(0.199854 0.00554372 0)
(0.200198 0.00561171 0)
(0.20052 0.00559829 0)
(0.200831 0.00552493 0)
(0.201081 0.00539583 0)
(0.201295 0.00524238 0)
(0.201436 0.00506683 0)
(0.201546 0.00489665 0)
(0.201596 0.00472408 0)
(0.201634 0.00456946 0)
(0.201633 0.00441861 0)
(0.201638 0.00428531 0)
(0.201617 0.0041548 0)
(0.201613 0.00403528 0)
(0.201588 0.00391651 0)
(0.201581 0.00380771 0)
(0.201552 0.00369536 0)
(0.201542 0.0035969 0)
(0.201508 0.00349305 0)
(0.201495 0.00340335 0)
(0.201459 0.00330874 0)
(0.201445 0.00322514 0)
(0.201408 0.00314046 0)
(0.201395 0.00306466 0)
(0.201358 0.00298413 0)
(0.201346 0.00291771 0)
(0.201311 0.00284185 0)
(0.201301 0.0027814 0)
(0.201268 0.00271395 0)
(0.201259 0.00265555 0)
(0.201228 0.0025959 0)
(0.201222 0.00254319 0)
(0.201191 0.0024857 0)
(0.201188 0.00244088 0)
(0.201159 0.00238664 0)
(0.201156 0.00234452 0)
(0.201129 0.00229648 0)
(0.201128 0.00225766 0)
(0.2011 0.00221181 0)
(0.201102 0.00217837 0)
(0.201075 0.00213645 0)
(0.201077 0.00210361 0)
(0.201052 0.00206757 0)
(0.201054 0.00203876 0)
(0.201028 0.0020027 0)
(0.201032 0.00197954 0)
(0.201006 0.00194829 0)
(0.201009 0.00192583 0)
(0.200981 0.00189888 0)
(0.200985 0.00188193 0)
(0.200956 0.00185885 0)
(0.200958 0.00184565 0)
(0.200927 0.00182811 0)
(0.200928 0.00182132 0)
(0.200895 0.0018101 0)
(0.19895 0.00418097 0)
(0.199051 0.00447254 0)
(0.199202 0.00474879 0)
(0.199387 0.00498813 0)
(0.199626 0.00518545 0)
(0.199886 0.00532093 0)
(0.200175 0.00539686 0)
(0.200453 0.00540444 0)
(0.200723 0.00535954 0)
(0.200949 0.0052627 0)
(0.201144 0.00513974 0)
(0.201282 0.00499187 0)
(0.201389 0.00484402 0)
(0.201447 0.0046898 0)
(0.201489 0.00454809 0)
(0.201498 0.00440725 0)
(0.201507 0.0042804 0)
(0.201495 0.00415537 0)
(0.201492 0.00403933 0)
(0.201473 0.00392394 0)
(0.201466 0.00381729 0)
(0.201444 0.00370707 0)
(0.201434 0.0036093 0)
(0.201408 0.00350669 0)
(0.201394 0.00341683 0)
(0.201365 0.00332274 0)
(0.20135 0.00323859 0)
(0.201319 0.00315403 0)
(0.201305 0.00307758 0)
(0.201274 0.0029971 0)
(0.201261 0.00292949 0)
(0.201232 0.00285388 0)
(0.20122 0.00279209 0)
(0.201193 0.00272466 0)
(0.201183 0.00266539 0)
(0.201156 0.00260527 0)
(0.201149 0.00255197 0)
(0.201123 0.00249429 0)
(0.201117 0.00244836 0)
(0.201093 0.00239439 0)
(0.201088 0.00235136 0)
(0.201065 0.00230314 0)
(0.201063 0.00226394 0)
(0.201039 0.00221791 0)
(0.201039 0.00218369 0)
(0.201017 0.00214217 0)
(0.201016 0.00210849 0)
(0.200995 0.00207258 0)
(0.200996 0.00204351 0)
(0.200974 0.00200749 0)
(0.200976 0.00198416 0)
(0.200953 0.00195296 0)
(0.200956 0.00193049 0)
(0.200931 0.00190392 0)
(0.200933 0.00188676 0)
(0.200909 0.00186411 0)
(0.20091 0.00185118 0)
(0.200882 0.00183387 0)
(0.200883 0.00182716 0)
(0.200854 0.00181621 0)
(0.199126 0.00408992 0)
(0.199215 0.00435108 0)
(0.199342 0.00459797 0)
(0.199499 0.00481274 0)
(0.199697 0.00499287 0)
(0.199915 0.00512192 0)
(0.200157 0.00520231 0)
(0.200393 0.00522535 0)
(0.200625 0.00520323 0)
(0.200825 0.00513365 0)
(0.201001 0.00503772 0)
(0.201131 0.00491518 0)
(0.201234 0.00478834 0)
(0.201296 0.00465163 0)
(0.20134 0.00452281 0)
(0.201357 0.00439201 0)
(0.201369 0.00427221 0)
(0.201363 0.00415271 0)
(0.201363 0.00404077 0)
(0.201349 0.00392881 0)
(0.201344 0.00382466 0)
(0.201326 0.0037169 0)
(0.201317 0.00362017 0)
(0.201296 0.00351896 0)
(0.201284 0.00342934 0)
(0.201259 0.00333564 0)
(0.201246 0.0032515 0)
(0.201219 0.00316673 0)
(0.201207 0.00308987 0)
(0.20118 0.00300948 0)
(0.201168 0.0029407 0)
(0.201142 0.00286537 0)
(0.201131 0.00280248 0)
(0.201107 0.0027347 0)
(0.201098 0.00267509 0)
(0.201074 0.00261412 0)
(0.201068 0.00256044 0)
(0.201045 0.00250258 0)
(0.201039 0.00245558 0)
(0.201019 0.00240174 0)
(0.201014 0.00235813 0)
(0.200993 0.00230941 0)
(0.200991 0.00227005 0)
(0.20097 0.00222378 0)
(0.20097 0.00218885 0)
(0.20095 0.00214755 0)
(0.200949 0.00211332 0)
(0.20093 0.00207729 0)
(0.200931 0.00204807 0)
(0.200912 0.00201207 0)
(0.200913 0.00198865 0)
(0.200893 0.00195733 0)
(0.200895 0.00193498 0)
(0.200873 0.00190876 0)
(0.200875 0.00189139 0)
(0.200853 0.00186905 0)
(0.200854 0.00185647 0)
(0.20083 0.00183933 0)
(0.20083 0.00183267 0)
(0.200804 0.00182194 0)
(0.19929 0.00400309 0)
(0.199366 0.00423789 0)
(0.199471 0.00445968 0)
(0.199599 0.00465319 0)
(0.199761 0.00481811 0)
(0.19994 0.00494052 0)
(0.20014 0.00502323 0)
(0.200337 0.00505774 0)
(0.200533 0.00505382 0)
(0.200705 0.00500729 0)
(0.20086 0.00493529 0)
(0.200979 0.00483602 0)
(0.201075 0.00472914 0)
(0.201137 0.00460932 0)
(0.201183 0.00449344 0)
(0.201204 0.00437276 0)
(0.201219 0.00426051 0)
(0.201218 0.00414662 0)
(0.20122 0.0040393 0)
(0.20121 0.00393095 0)
(0.201207 0.00382959 0)
(0.201193 0.00372463 0)
(0.201186 0.00362933 0)
(0.201169 0.00352972 0)
(0.201159 0.00344073 0)
(0.201139 0.00334746 0)
(0.201128 0.00326377 0)
(0.201105 0.00317867 0)
(0.201095 0.00310153 0)
(0.201072 0.00302133 0)
(0.201061 0.00295143 0)
(0.201039 0.00287644 0)
(0.201029 0.0028126 0)
(0.201009 0.00274428 0)
(0.201001 0.00268464 0)
(0.20098 0.00262265 0)
(0.200975 0.0025687 0)
(0.200955 0.00251063 0)
(0.200949 0.00246265 0)
(0.200932 0.00240885 0)
(0.200927 0.00236478 0)
(0.20091 0.0023155 0)
(0.200908 0.00227598 0)
(0.200889 0.00222952 0)
(0.200889 0.00219389 0)
(0.200872 0.00215268 0)
(0.200871 0.00211814 0)
(0.200855 0.0020818 0)
(0.200855 0.00205251 0)
(0.200839 0.00201652 0)
(0.20084 0.00199298 0)
(0.200822 0.00196158 0)
(0.200824 0.00193932 0)
(0.200805 0.0019134 0)
(0.200807 0.00189593 0)
(0.200788 0.00187381 0)
(0.200788 0.00186156 0)
(0.200767 0.00184461 0)
(0.200768 0.00183798 0)
(0.200745 0.00182744 0)
(0.199445 0.00391885 0)
(0.199506 0.00413008 0)
(0.199589 0.00433005 0)
(0.199691 0.00450528 0)
(0.199819 0.00465715 0)
(0.199962 0.00477347 0)
(0.200122 0.00485752 0)
(0.200282 0.00490092 0)
(0.200443 0.00491173 0)
(0.200586 0.00488468 0)
(0.200717 0.00483368 0)
(0.200821 0.00475558 0)
(0.200908 0.0046675 0)
(0.200966 0.00456381 0)
(0.201011 0.0044608 0)
(0.201034 0.0043502 0)
(0.201051 0.00424574 0)
(0.201054 0.00413752 0)
(0.201059 0.00403508 0)
(0.201052 0.00393052 0)
(0.201051 0.00383211 0)
(0.20104 0.00373018 0)
(0.201036 0.00363664 0)
(0.201023 0.0035388 0)
(0.201016 0.00345077 0)
(0.201 0.0033581 0)
(0.200991 0.00327515 0)
(0.200972 0.00318975 0)
(0.200964 0.00311246 0)
(0.200945 0.00303251 0)
(0.200936 0.00296162 0)
(0.200918 0.00288696 0)
(0.20091 0.0028223 0)
(0.200893 0.00275342 0)
(0.200886 0.00269387 0)
(0.200869 0.00263082 0)
(0.200864 0.00257673 0)
(0.200848 0.00251835 0)
(0.200843 0.00246951 0)
(0.200829 0.00241574 0)
(0.200825 0.00237114 0)
(0.20081 0.00232146 0)
(0.200809 0.00228164 0)
(0.200793 0.00223501 0)
(0.200793 0.00219885 0)
(0.200779 0.00215747 0)
(0.200778 0.00212285 0)
(0.200765 0.00208608 0)
(0.200765 0.00205671 0)
(0.200751 0.00202084 0)
(0.200752 0.00199702 0)
(0.200737 0.00196568 0)
(0.20074 0.00194347 0)
(0.200723 0.00191776 0)
(0.200725 0.0019003 0)
(0.200709 0.00187835 0)
(0.200709 0.00186636 0)
(0.200692 0.00184964 0)
(0.200692 0.00184303 0)
(0.200674 0.00183268 0)
(0.199587 0.00383871 0)
(0.199634 0.00402926 0)
(0.199696 0.00421073 0)
(0.199772 0.00437084 0)
(0.199868 0.00451225 0)
(0.199977 0.00462375 0)
(0.200101 0.00470885 0)
(0.200225 0.00475936 0)
(0.200351 0.0047819 0)
(0.200465 0.00477082 0)
(0.200572 0.0047375 0)
(0.200657 0.0046777 0)
(0.200731 0.00460644 0)
(0.200782 0.00451748 0)
(0.200824 0.00442671 0)
(0.200847 0.00432566 0)
(0.200864 0.00422882 0)
(0.20087 0.00412613 0)
(0.200875 0.00402847 0)
(0.200872 0.0039277 0)
(0.200873 0.00383221 0)
(0.200866 0.00373337 0)
(0.200863 0.00364174 0)
(0.200854 0.00354576 0)
(0.200849 0.00345895 0)
(0.200837 0.00336702 0)
(0.200831 0.00328498 0)
(0.200817 0.00319941 0)
(0.200811 0.00312212 0)
(0.200796 0.00304246 0)
(0.20079 0.00297075 0)
(0.200776 0.00289646 0)
(0.20077 0.00283108 0)
(0.200756 0.00276176 0)
(0.200752 0.00270233 0)
(0.200738 0.00263825 0)
(0.200734 0.00258421 0)
(0.200722 0.00252539 0)
(0.200718 0.00247586 0)
(0.200707 0.00242219 0)
(0.200704 0.00237688 0)
(0.200692 0.00232708 0)
(0.200692 0.00228682 0)
(0.200679 0.00223997 0)
(0.20068 0.00220351 0)
(0.200668 0.00216171 0)
(0.200668 0.0021272 0)
(0.200658 0.00208999 0)
(0.200657 0.00206045 0)
(0.200647 0.00202481 0)
(0.200648 0.00200057 0)
(0.200636 0.00196942 0)
(0.200638 0.00194723 0)
(0.200625 0.00192161 0)
(0.200626 0.00190428 0)
(0.200615 0.00188244 0)
(0.200614 0.00187066 0)
(0.200601 0.0018542 0)
(0.200602 0.00184757 0)
(0.200587 0.0018374 0)
(0.199717 0.00376626 0)
(0.199749 0.00393925 0)
(0.199791 0.00410563 0)
(0.199842 0.00425391 0)
(0.19991 0.00438759 0)
(0.199986 0.00449588 0)
(0.200075 0.00458213 0)
(0.200164 0.00463835 0)
(0.200257 0.00466995 0)
(0.20034 0.00467138 0)
(0.20042 0.00465203 0)
(0.200485 0.00460701 0)
(0.200543 0.00454977 0)
(0.200584 0.00447328 0)
(0.200618 0.00439342 0)
(0.200639 0.00430078 0)
(0.200655 0.00421091 0)
(0.200662 0.0041133 0)
(0.200668 0.00402 0)
(0.200667 0.00392276 0)
(0.200669 0.00382995 0)
(0.200665 0.00373404 0)
(0.200665 0.00364425 0)
(0.200659 0.00355012 0)
(0.200657 0.00346469 0)
(0.200649 0.00337356 0)
(0.200646 0.00329252 0)
(0.200637 0.00320694 0)
(0.200632 0.00312984 0)
(0.200623 0.00305048 0)
(0.200619 0.00297819 0)
(0.200609 0.00290427 0)
(0.200605 0.00283835 0)
(0.200596 0.0027687 0)
(0.200593 0.0027095 0)
(0.200584 0.00264445 0)
(0.200581 0.00259068 0)
(0.200573 0.00253133 0)
(0.20057 0.00248133 0)
(0.200563 0.00242784 0)
(0.200561 0.00238172 0)
(0.200553 0.00233206 0)
(0.200553 0.00229129 0)
(0.200544 0.00224421 0)
(0.200545 0.00220768 0)
(0.200537 0.00216526 0)
(0.200537 0.00213106 0)
(0.200531 0.00209327 0)
(0.20053 0.00206372 0)
(0.200523 0.00202822 0)
(0.200524 0.00200351 0)
(0.200515 0.00197267 0)
(0.200518 0.00195045 0)
(0.200509 0.00192475 0)
(0.20051 0.0019078 0)
(0.200502 0.00188581 0)
(0.200501 0.00187433 0)
(0.200492 0.00185803 0)
(0.200493 0.00185144 0)
(0.200482 0.00184131 0)
(0.199833 0.00370803 0)
(0.199851 0.00386687 0)
(0.199875 0.00402179 0)
(0.199904 0.00416159 0)
(0.199943 0.00429016 0)
(0.199989 0.00439666 0)
(0.200043 0.00448404 0)
(0.200098 0.00454451 0)
(0.200156 0.00458244 0)
(0.200208 0.00459276 0)
(0.200259 0.00458325 0)
(0.200301 0.00454885 0)
(0.200339 0.00450192 0)