/*--------------------------------*- C++ -*----------------------------------*\
| =========                 |                                                 |
| \\      /  F ield         | OpenFOAM: The Open Source CFD Toolbox           |
|  \\    /   O peration     | Version:  2.3.0                                 |
|   \\  /    A nd           | Web:      www.OpenFOAM.org                      |
|    \\/     M anipulation  |                                                 |
\*---------------------------------------------------------------------------*/
FoamFile
{
    version     2.0;
    format      ascii;
    class       volVectorField;
    location    "0.95";
    object      U;
}
// * * * * * * * * * * * * * * * * * * * * * * * * * * * * * * * * * * * * * //

dimensions      [0 1 -1 0 0 0 0];

internalField   nonuniform List<vector> 
3375
(
(0.176127 0.00459498 0)
(0.154451 0.00599518 0)
(0.134371 0.00655222 0)
(0.115641 0.00550216 0)
(0.0984112 0.00433045 0)
(0.0832153 0.00345664 0)
(0.0704251 0.00245084 0)
(0.0605482 0.00144541 0)
(0.0532624 0.000826898 0)
(0.0477205 0.000429299 0)
(0.043548 0.000152121 0)
(0.0405609 2.38991e-05 0)
(0.0383385 -1.04306e-05 0)
(0.0365515 -4.35457e-06 0)
(0.0350726 1.63977e-05 0)
(0.0338255 3.3448e-05 0)
(0.0327329 4.74185e-05 0)
(0.0317313 5.92255e-05 0)
(0.0307961 6.50954e-05 0)
(0.0299223 6.72628e-05 0)
(0.0291046 6.65175e-05 0)
(0.0283375 6.31877e-05 0)
(0.0276203 5.92288e-05 0)
(0.026949 5.64086e-05 0)
(0.0263172 5.30466e-05 0)
(0.0257229 4.91863e-05 0)
(0.025162 4.66264e-05 0)
(0.0246358 4.23353e-05 0)
(0.0241401 4.0357e-05 0)
(0.0236638 4.0531e-05 0)
(0.0232104 3.62304e-05 0)
(0.0227854 3.35749e-05 0)
(0.0223793 3.39676e-05 0)
(0.0219868 3.15322e-05 0)
(0.0216154 2.88709e-05 0)
(0.0212633 2.78185e-05 0)
(0.0209251 2.64441e-05 0)
(0.0205998 2.5583e-05 0)
(0.0202852 2.49562e-05 0)
(0.0199839 2.28756e-05 0)
(0.0196974 2.14719e-05 0)
(0.0194205 2.14173e-05 0)
(0.0191529 1.99448e-05 0)
(0.0188973 1.87393e-05 0)
(0.0186462 2.00015e-05 0)
(0.0183974 1.94299e-05 0)
(0.0181619 1.6461e-05 0)
(0.0179408 1.58295e-05 0)
(0.0177236 1.65036e-05 0)
(0.0175107 1.54323e-05 0)
(0.017306 1.46975e-05 0)
(0.0171065 1.46269e-05 0)
(0.0169136 1.34148e-05 0)
(0.0167283 1.28231e-05 0)
(0.0165478 1.2767e-05 0)
(0.016372 1.20337e-05 0)
(0.0162 1.21696e-05 0)
(0.0160301 1.21798e-05 0)
(0.0158645 1.13208e-05 0)
(0.0157057 1.06782e-05 0)
(0.0155515 1.04429e-05 0)
(0.0154003 1.03093e-05 0)
(0.015252 1.00976e-05 0)
(0.0151074 9.62118e-06 0)
(0.0149663 9.43633e-06 0)
(0.0148284 9.13388e-06 0)
(0.014695 8.45316e-06 0)
(0.0145659 8.20942e-06 0)
(0.014438 8.47094e-06 0)
(0.0143114 8.19402e-06 0)
(0.0141878 7.85629e-06 0)
(0.0140669 7.74316e-06 0)
(0.0139479 7.55767e-06 0)
(0.0138318 7.22722e-06 0)
(0.0137178 7.14163e-06 0)
(0.0136056 7.05559e-06 0)
(0.0134947 6.94978e-06 0)
(0.0133863 6.64272e-06 0)
(0.0132795 6.68659e-06 0)
(0.013174 6.59847e-06 0)
(0.0130708 6.16802e-06 0)
(0.0129708 5.95415e-06 0)
(0.0128723 5.93614e-06 0)
(0.0127746 5.84423e-06 0)
(0.0126786 5.7258e-06 0)
(0.012583 5.76021e-06 0)
(0.0124889 5.63087e-06 0)
(0.0123956 5.46064e-06 0)
(0.0123052 5.22209e-06 0)
(0.0122139 5.41969e-06 0)
(0.0121259 5.0075e-06 0)
(0.0120349 5.50897e-06 0)
(0.0119484 5.09593e-06 0)
(0.0118543 5.82114e-06 0)
(0.0117745 4.12462e-06 0)
(0.0116793 5.70879e-06 0)
(0.0116139 2.92531e-06 0)
(0.0115035 6.72512e-06 0)
(0.0114723 5.14727e-08 0)
(0.0113215 1.15881e-05 0)
(0.190754 0.0105344 0)
(0.190432 0.0124762 0)
(0.188661 0.0125071 0)
(0.183999 0.0123092 0)
(0.177364 0.0115994 0)
(0.169539 0.0105291 0)
(0.161141 0.00894263 0)
(0.152751 0.00716351 0)
(0.14462 0.00580142 0)
(0.137061 0.00449964 0)
(0.130092 0.00333461 0)
(0.123763 0.00255009 0)
(0.118158 0.0020287 0)
(0.113091 0.0016366 0)
(0.108443 0.00133183 0)
(0.104295 0.00110256 0)
(0.100643 0.000963 0)
(0.0973544 0.000878977 0)
(0.0943365 0.000801512 0)
(0.0915611 0.000734157 0)
(0.0890058 0.000680231 0)
(0.086641 0.000631904 0)
(0.084442 0.000585589 0)
(0.0823897 0.00054537 0)
(0.0804642 0.000509686 0)
(0.0786511 0.00047701 0)
(0.0769427 0.000448876 0)
(0.0753364 0.00041558 0)
(0.0738121 0.000392388 0)
(0.0723597 0.000377882 0)
(0.070984 0.000349611 0)
(0.0696761 0.000327594 0)
(0.06843 0.000316969 0)
(0.0672381 0.000298952 0)
(0.0660989 0.000280532 0)
(0.0650141 0.000267566 0)
(0.0639739 0.000254356 0)
(0.0629727 0.000243523 0)
(0.0620093 0.000234091 0)
(0.0610853 0.000220495 0)
(0.0601985 0.000209626 0)
(0.0593434 0.000203435 0)
(0.0585193 0.000192959 0)
(0.0577253 0.000183541 0)
(0.0569528 0.000182436 0)
(0.0562016 0.00017587 0)
(0.055481 0.000161692 0)
(0.0547906 0.000155191 0)
(0.0541187 0.000153291 0)
(0.0534656 0.000146035 0)
(0.0528342 0.000140173 0)
(0.0522208 0.000136611 0)
(0.0516265 0.000129467 0)
(0.0510507 0.000124567 0)
(0.0504906 0.000121538 0)
(0.0499456 0.000116495 0)
(0.049413 0.000114288 0)
(0.0488926 0.00011166 0)
(0.0483858 0.000106459 0)
(0.0478954 0.000102114 0)
(0.0474179 9.92149e-05 0)
(0.0469511 9.66226e-05 0)
(0.0464954 9.39012e-05 0)
(0.0460511 9.05199e-05 0)
(0.0456167 8.8125e-05 0)
(0.045193 8.5347e-05 0)
(0.0447807 8.15423e-05 0)
(0.0443787 7.92627e-05 0)
(0.0439832 7.86216e-05 0)
(0.0435948 7.62274e-05 0)
(0.0432148 7.37919e-05 0)
(0.042843 7.21578e-05 0)
(0.0424778 7.03182e-05 0)
(0.0421204 6.79909e-05 0)
(0.0417697 6.65708e-05 0)
(0.0414252 6.51714e-05 0)
(0.0410863 6.37292e-05 0)
(0.0407548 6.16136e-05 0)
(0.0404286 6.07079e-05 0)
(0.0401082 5.93808e-05 0)
(0.0397943 5.70848e-05 0)
(0.0394873 5.54976e-05 0)
(0.0391856 5.45859e-05 0)
(0.0388877 5.34895e-05 0)
(0.0385948 5.23302e-05 0)
(0.0383049 5.16823e-05 0)
(0.0380202 5.0512e-05 0)
(0.0377383 4.93389e-05 0)
(0.0374635 4.79203e-05 0)
(0.0371878 4.80132e-05 0)
(0.0369209 4.60225e-05 0)
(0.0366484 4.71566e-05 0)
(0.0363893 4.5085e-05 0)
(0.0361146 4.70207e-05 0)
(0.035873 4.08402e-05 0)
(0.0355931 4.58654e-05 0)
(0.035384 3.59166e-05 0)
(0.0350674 4.92517e-05 0)
(0.034943 2.60229e-05 0)
(0.0345111 5.85761e-05 0)
(0.191893 0.00765801 0)
(0.193027 0.0097969 0)
(0.194687 0.0113419 0)
(0.195918 0.0123452 0)
(0.196265 0.0119318 0)
(0.195817 0.0119142 0)
(0.194227 0.0109237 0)
(0.191659 0.00947123 0)
(0.188265 0.00878482 0)
(0.184413 0.00785019 0)
(0.180296 0.00649856 0)
(0.176056 0.005461 0)
(0.171933 0.00475951 0)
(0.16793 0.0043335 0)
(0.163908 0.00397658 0)
(0.159887 0.00352863 0)
(0.156038 0.00312613 0)
(0.152452 0.00284447 0)
(0.149075 0.0026087 0)
(0.145816 0.00239501 0)
(0.142651 0.0022013 0)
(0.139609 0.00202692 0)
(0.136709 0.00187417 0)
(0.133944 0.0017456 0)
(0.131297 0.00162688 0)
(0.128753 0.0015168 0)
(0.12631 0.0014255 0)
(0.123984 0.00133003 0)
(0.121753 0.00125496 0)
(0.119605 0.00119733 0)
(0.117552 0.00111799 0)
(0.115576 0.00105311 0)
(0.113678 0.00100863 0)
(0.111856 0.000953119 0)
(0.1101 0.000899519 0)
(0.108415 0.000857228 0)
(0.106795 0.000816377 0)
(0.105226 0.000780565 0)
(0.103707 0.000748045 0)
(0.102243 0.000708637 0)
(0.100832 0.000675216 0)
(0.0994675 0.000651828 0)
(0.0981483 0.000621295 0)
(0.0968721 0.000592959 0)
(0.0956291 0.000580484 0)
(0.0944201 0.000558805 0)
(0.0932542 0.000523762 0)
(0.0921317 0.000503134 0)
(0.0910397 0.000491234 0)
(0.0899746 0.000469666 0)
(0.088941 0.00045154 0)
(0.0879367 0.000438237 0)
(0.0869619 0.000418497 0)
(0.0860142 0.000403503 0)
(0.0850912 0.000391944 0)
(0.0841921 0.000376876 0)
(0.0833129 0.000367665 0)
(0.0824543 0.000357627 0)
(0.0816167 0.000342884 0)
(0.0808034 0.000330019 0)
(0.080011 0.000320224 0)
(0.0792354 0.000311055 0)
(0.0784781 0.000301857 0)
(0.077739 0.000291723 0)
(0.0770154 0.000283534 0)
(0.0763093 0.000274796 0)
(0.0756207 0.000264417 0)
(0.074948 0.000256938 0)
(0.0742871 0.000252654 0)
(0.0736387 0.000245252 0)
(0.0730034 0.000237835 0)
(0.0723815 0.000231983 0)
(0.0717707 0.000226107 0)
(0.0711725 0.000219365 0)
(0.0705854 0.000214201 0)
(0.070009 0.0002091 0)
(0.069442 0.000204162 0)
(0.068887 0.000197991 0)
(0.0683412 0.000194107 0)
(0.0678053 0.00018942 0)
(0.0672797 0.000183246 0)
(0.0667647 0.000178445 0)
(0.0662588 0.000174947 0)
(0.0657601 0.00017119 0)
(0.0652696 0.000167387 0)
(0.064785 0.000164511 0)
(0.0643091 0.00016079 0)
(0.0638385 0.000157192 0)
(0.0633783 0.000153233 0)
(0.0629191 0.000152057 0)
(0.0624729 0.000147101 0)
(0.0620213 0.000147891 0)
(0.0615887 0.000142801 0)
(0.0611379 0.000145052 0)
(0.0607302 0.000132766 0)
(0.0602743 0.000140944 0)
(0.0599115 0.00012233 0)
(0.059405 0.00014479 0)
(0.0591673 0.000107229 0)
(0.058465 0.000151345 0)
(0.193193 0.00797223 0)
(0.193764 0.00925303 0)
(0.194891 0.0102603 0)
(0.196384 0.0108122 0)
(0.198054 0.0114056 0)
(0.199691 0.011041 0)
(0.200589 0.0111256 0)
(0.200865 0.00952103 0)
(0.200747 0.00901962 0)
(0.200128 0.00827437 0)
(0.198906 0.00761572 0)
(0.197287 0.006992 0)
(0.195537 0.00639849 0)
(0.193835 0.0058095 0)
(0.192002 0.00540775 0)
(0.189844 0.0050398 0)
(0.187468 0.00466121 0)
(0.185092 0.00433207 0)
(0.182837 0.00405651 0)
(0.18066 0.00384716 0)
(0.17844 0.0036589 0)
(0.176142 0.00345797 0)
(0.173817 0.00325123 0)
(0.17152 0.00307316 0)
(0.169267 0.00291426 0)
(0.167041 0.00275991 0)
(0.164825 0.00261893 0)
(0.16264 0.00246152 0)
(0.160491 0.002341 0)
(0.158383 0.00224954 0)
(0.156326 0.00211927 0)
(0.154304 0.0020126 0)
(0.152316 0.00193602 0)
(0.150369 0.00184043 0)
(0.148462 0.00174855 0)
(0.146611 0.00167047 0)
(0.144814 0.00159651 0)
(0.143052 0.00153428 0)
(0.141317 0.0014755 0)
(0.139619 0.00140469 0)
(0.137968 0.00134225 0)
(0.136357 0.00129614 0)
(0.134785 0.00124039 0)
(0.133251 0.00118776 0)
(0.131744 0.00115999 0)
(0.130263 0.00111797 0)
(0.128824 0.00105476 0)
(0.127438 0.00101522 0)
(0.126086 0.000990996 0)
(0.124753 0.000951248 0)
(0.123446 0.000916022 0)
(0.122171 0.000888231 0)
(0.120932 0.000850775 0)
(0.119722 0.000822043 0)
(0.118537 0.000798671 0)
(0.117378 0.000769037 0)
(0.116241 0.000749172 0)
(0.115126 0.000728764 0)
(0.114035 0.000701324 0)
(0.112971 0.000676434 0)
(0.111932 0.000656331 0)
(0.110912 0.000637431 0)
(0.109912 0.000618818 0)
(0.108933 0.000599137 0)
(0.107972 0.00058231 0)
(0.107032 0.000564642 0)
(0.106114 0.00054498 0)
(0.105214 0.000529923 0)
(0.104328 0.00051958 0)
(0.103458 0.000504675 0)
(0.102604 0.000490293 0)
(0.101767 0.000478015 0)
(0.100945 0.000465539 0)
(0.100137 0.000452353 0)
(0.0993429 0.000441931 0)
(0.0985627 0.000431178 0)
(0.0977942 0.000420647 0)
(0.0970407 0.000408417 0)
(0.0962987 0.00040008 0)
(0.095569 0.000390362 0)
(0.0948525 0.000378368 0)
(0.0941492 0.000368581 0)
(0.0934579 0.000360998 0)
(0.0927762 0.00035311 0)
(0.0921051 0.000345283 0)
(0.0914426 0.000338722 0)
(0.090791 0.00033115 0)
(0.0901472 0.000323653 0)
(0.0895159 0.000315953 0)
(0.0888881 0.000312253 0)
(0.0882753 0.000303127 0)
(0.0876592 0.000302445 0)
(0.0870638 0.000293503 0)
(0.0864519 0.000294784 0)
(0.0858856 0.000275608 0)
(0.0852719 0.000284861 0)
(0.0847586 0.00025977 0)
(0.0840842 0.000284944 0)
(0.0837317 0.000243182 0)
(0.0827788 0.00028495 0)
(0.193978 0.00752887 0)
(0.194271 0.0080096 0)
(0.195289 0.0099399 0)
(0.196699 0.0101567 0)
(0.198253 0.0100712 0)
(0.19967 0.0108366 0)
(0.200858 0.0104283 0)
(0.201512 0.00916338 0)
(0.20167 0.0096355 0)
(0.202316 0.00866506 0)
(0.202609 0.00727865 0)
(0.2023 0.00686351 0)
(0.20194 0.00631558 0)
(0.201655 0.00608856 0)
(0.201288 0.00594257 0)
(0.20055 0.00576112 0)
(0.199549 0.00551557 0)
(0.198494 0.00515377 0)
(0.197506 0.0047712 0)
(0.196588 0.00454058 0)
(0.195609 0.00440184 0)
(0.194488 0.00426273 0)
(0.193252 0.0040862 0)
(0.19196 0.00391372 0)
(0.19064 0.00375456 0)
(0.189295 0.00361142 0)
(0.187911 0.00350158 0)
(0.18649 0.00335312 0)
(0.185036 0.00322308 0)
(0.183566 0.00312369 0)
(0.182099 0.00297769 0)
(0.180624 0.00286342 0)
(0.179135 0.00278437 0)
(0.177627 0.00267032 0)
(0.176098 0.0025605 0)
(0.174582 0.00246523 0)
(0.173098 0.00236847 0)
(0.17163 0.00229594 0)
(0.170153 0.00222958 0)
(0.168668 0.00213838 0)
(0.167193 0.0020562 0)
(0.165735 0.0019949 0)
(0.164291 0.00191732 0)
(0.162865 0.0018473 0)
(0.161445 0.00181579 0)
(0.160012 0.0017587 0)
(0.158585 0.00166331 0)
(0.15721 0.00160261 0)
(0.155882 0.00156995 0)
(0.154559 0.00151686 0)
(0.15323 0.00146821 0)
(0.151912 0.00142627 0)
(0.150622 0.00136896 0)
(0.149362 0.00132714 0)
(0.148121 0.00129319 0)
(0.146894 0.00124905 0)
(0.145679 0.00121916 0)
(0.144477 0.00118679 0)
(0.143292 0.00114492 0)
(0.14213 0.0011079 0)
(0.140993 0.00107713 0)
(0.139871 0.00104814 0)
(0.13876 0.00101928 0)
(0.137666 0.000988598 0)
(0.136588 0.000962535 0)
(0.135528 0.000934944 0)
(0.134487 0.000903995 0)
(0.133462 0.000880266 0)
(0.132449 0.000863571 0)
(0.131449 0.000839435 0)
(0.130464 0.000816172 0)
(0.129496 0.000796955 0)
(0.128543 0.000777126 0)
(0.127604 0.000755336 0)
(0.126678 0.000738176 0)
(0.125765 0.000721393 0)
(0.124863 0.000704569 0)
(0.123975 0.000684538 0)
(0.123099 0.000670734 0)
(0.122234 0.000655145 0)
(0.121382 0.000636203 0)
(0.120544 0.000620152 0)
(0.119718 0.000607264 0)
(0.118902 0.000593922 0)
(0.118096 0.000581106 0)
(0.117301 0.000569803 0)
(0.116516 0.000557574 0)
(0.115741 0.000544786 0)
(0.114979 0.000532549 0)
(0.114221 0.000525164 0)
(0.113478 0.000511137 0)
(0.112733 0.000507675 0)
(0.112008 0.000494887 0)
(0.111269 0.000493149 0)
(0.110573 0.00046797 0)
(0.109836 0.000473873 0)
(0.109198 0.000447585 0)
(0.10839 0.000466901 0)
(0.107942 0.000430437 0)
(0.106782 0.000460396 0)
(0.194637 0.00700164 0)
(0.194978 0.00796829 0)
(0.19581 0.00910968 0)
(0.197033 0.00934176 0)
(0.198381 0.00966554 0)
(0.199501 0.00992767 0)
(0.200606 0.00990272 0)
(0.201272 0.0100604 0)
(0.201446 0.00815328 0)
(0.201957 0.00860066 0)
(0.202737 0.00779117 0)
(0.202999 0.00683671 0)
(0.202972 0.00644321 0)
(0.202958 0.00608066 0)
(0.202819 0.00602921 0)
(0.202564 0.00584194 0)
(0.20232 0.00560047 0)
(0.202074 0.00531309 0)
(0.201818 0.00496086 0)
(0.201595 0.00474699 0)
(0.201321 0.00468407 0)
(0.200948 0.00461758 0)
(0.200504 0.00448549 0)
(0.200018 0.00434988 0)
(0.199477 0.00420498 0)
(0.198885 0.00407361 0)
(0.198262 0.00396639 0)
(0.197605 0.00382152 0)
(0.196895 0.00373044 0)
(0.196146 0.00364693 0)
(0.195376 0.00349196 0)
(0.194583 0.00339017 0)
(0.193762 0.00333957 0)
(0.192897 0.00324035 0)
(0.191975 0.00313087 0)
(0.191025 0.00303207 0)
(0.190083 0.00292447 0)
(0.189154 0.0028498 0)
(0.188207 0.00279632 0)
(0.187221 0.00270814 0)
(0.186211 0.00262503 0)
(0.185189 0.00257293 0)
(0.184155 0.00248534 0)
(0.183125 0.00239734 0)
(0.182095 0.00238075 0)
(0.181016 0.00234122 0)
(0.179881 0.00222627 0)
(0.178762 0.0021376 0)
(0.177698 0.00209542 0)
(0.176649 0.00204095 0)
(0.175579 0.00199569 0)
(0.174482 0.00194938 0)
(0.173379 0.00187373 0)
(0.172294 0.00182108 0)
(0.171226 0.00178175 0)
(0.170165 0.00172877 0)
(0.169097 0.00169745 0)
(0.168022 0.00166022 0)
(0.166942 0.001605 0)
(0.165875 0.00155613 0)
(0.164829 0.00151695 0)
(0.163793 0.00148163 0)
(0.162757 0.00144711 0)
(0.161722 0.00140774 0)
(0.16069 0.00137357 0)
(0.159671 0.0013377 0)
(0.158666 0.00129731 0)
(0.157672 0.00126672 0)
(0.156678 0.00124539 0)
(0.155684 0.00121357 0)
(0.154697 0.00118177 0)
(0.153723 0.00115453 0)
(0.152762 0.00112798 0)
(0.151813 0.00109935 0)
(0.150873 0.00107552 0)
(0.149942 0.0010522 0)
(0.149015 0.00103011 0)
(0.148099 0.00100285 0)
(0.14719 0.000983989 0)
(0.146287 0.000962416 0)
(0.145393 0.000936463 0)
(0.14451 0.000914385 0)
(0.143638 0.000896776 0)
(0.142771 0.000877753 0)
(0.14191 0.0008596 0)
(0.141056 0.000842585 0)
(0.140212 0.000825931 0)
(0.139378 0.000807074 0)
(0.138554 0.000790699 0)
(0.137735 0.000778641 0)
(0.136927 0.000760264 0)
(0.136118 0.000752595 0)
(0.135321 0.000737711 0)
(0.134515 0.000729789 0)
(0.133744 0.00070158 0)
(0.132941 0.000698789 0)
(0.132229 0.000677358 0)
(0.131346 0.000684209 0)
(0.130839 0.000659192 0)
(0.129551 0.000672186 0)
(0.195095 0.00658674 0)
(0.195558 0.00726995 0)
(0.196423 0.00859567 0)
(0.197507 0.00864124 0)
(0.19848 0.00916496 0)
(0.19937 0.00903946 0)
(0.200233 0.0100108 0)
(0.200852 0.0092768 0)
(0.201123 0.0080866 0)
(0.201699 0.00813008 0)
(0.202748 0.00718343 0)
(0.202928 0.00674445 0)
(0.202842 0.00634099 0)
(0.202898 0.00614407 0)
(0.202854 0.00602549 0)
(0.202708 0.00597219 0)
(0.202583 0.00573216 0)
(0.202556 0.0054482 0)
(0.202569 0.00502413 0)
(0.202566 0.00479443 0)
(0.202512 0.00470902 0)
(0.202399 0.00468396 0)
(0.202278 0.00454313 0)
(0.202166 0.00443538 0)
(0.202019 0.00430324 0)
(0.201815 0.00418318 0)
(0.201589 0.00414666 0)
(0.201375 0.00400681 0)
(0.201138 0.00391317 0)
(0.200858 0.00386243 0)
(0.200554 0.00372203 0)
(0.200231 0.00361477 0)
(0.199886 0.00357762 0)
(0.1995 0.00351822 0)
(0.199064 0.00344736 0)
(0.198595 0.00334925 0)
(0.198127 0.00323083 0)
(0.197678 0.00315747 0)
(0.197221 0.00311639 0)
(0.196721 0.00304251 0)
(0.19619 0.00295585 0)
(0.195637 0.00291537 0)
(0.19505 0.00284913 0)
(0.194462 0.00275787 0)
(0.193896 0.0027427 0)
(0.193278 0.00273367 0)
(0.192558 0.00264088 0)
(0.191809 0.00254465 0)
(0.191101 0.0024813 0)
(0.190421 0.00241488 0)
(0.189737 0.00238574 0)
(0.189013 0.00235543 0)
(0.188249 0.00227607 0)
(0.187479 0.00221797 0)
(0.186717 0.00217199 0)
(0.185963 0.00211268 0)
(0.185203 0.00208873 0)
(0.184417 0.0020593 0)
(0.1836 0.00200257 0)
(0.182775 0.00194637 0)
(0.181963 0.00189827 0)
(0.181161 0.00185861 0)
(0.180357 0.00182666 0)
(0.179539 0.00178665 0)
(0.178705 0.00174884 0)
(0.177869 0.00170731 0)
(0.177044 0.00165895 0)
(0.176229 0.00162579 0)
(0.175407 0.00160681 0)
(0.174569 0.00157266 0)
(0.173718 0.00153664 0)
(0.172867 0.00150351 0)
(0.172022 0.00146955 0)
(0.171186 0.00143487 0)
(0.170358 0.00140795 0)
(0.169534 0.00138063 0)
(0.168708 0.00135496 0)
(0.167885 0.0013223 0)
(0.167062 0.00130161 0)
(0.166236 0.00127626 0)
(0.16541 0.00124428 0)
(0.164592 0.00121641 0)
(0.163781 0.00119598 0)
(0.162972 0.00117369 0)
(0.162158 0.00115321 0)
(0.161343 0.00113072 0)
(0.160531 0.00111022 0)
(0.159727 0.00108414 0)
(0.158931 0.00106534 0)
(0.158142 0.00104841 0)
(0.157356 0.00102818 0)
(0.156568 0.00101546 0)
(0.155781 0.00100226 0)
(0.154984 0.000985394 0)
(0.154214 0.000957184 0)
(0.153421 0.000941843 0)
(0.152708 0.000930059 0)
(0.151829 0.000921751 0)
(0.151317 0.000911071 0)
(0.150014 0.000906135 0)
(0.19553 0.00619697 0)
(0.196158 0.00723503 0)
(0.197028 0.00800594 0)
(0.197914 0.00791637 0)
(0.198483 0.00873857 0)
(0.19914 0.00876851 0)
(0.199976 0.00922708 0)
(0.200525 0.00925084 0)
(0.200982 0.00778134 0)
(0.201805 0.00747333 0)
(0.202612 0.00702353 0)
(0.202602 0.00675869 0)
(0.202518 0.00644703 0)
(0.202617 0.00618006 0)
(0.202631 0.00612363 0)
(0.202541 0.00599758 0)
(0.202511 0.00579929 0)
(0.202658 0.00534948 0)
(0.202755 0.00490872 0)
(0.202678 0.00478318 0)
(0.202585 0.00476507 0)
(0.202505 0.00471271 0)
(0.20246 0.00455738 0)
(0.20247 0.00446787 0)
(0.202452 0.00439249 0)
(0.202369 0.0042557 0)
(0.202266 0.00417385 0)
(0.202206 0.00406627 0)
(0.202167 0.00397782 0)
(0.202108 0.00390266 0)
(0.202023 0.00380338 0)
(0.20191 0.00372552 0)
(0.201781 0.00368338 0)
(0.201631 0.00359994 0)
(0.201444 0.00355821 0)
(0.201237 0.00349164 0)
(0.201049 0.00335605 0)
(0.200893 0.00328338 0)
(0.200735 0.00324975 0)
(0.200532 0.00319603 0)
(0.200306 0.00312872 0)
(0.200079 0.00309024 0)
(0.199818 0.00300697 0)
(0.19955 0.00291549 0)
(0.199324 0.00292951 0)
(0.199066 0.00294928 0)
(0.198694 0.00286775 0)
(0.198271 0.00278445 0)
(0.197873 0.00271982 0)
(0.197508 0.00263397 0)
(0.19716 0.00261135 0)
(0.196783 0.00259727 0)
(0.196356 0.00252637 0)
(0.195906 0.00248021 0)
(0.195453 0.00243161 0)
(0.195009 0.00236116 0)
(0.194574 0.00234493 0)
(0.194113 0.00232902 0)
(0.193605 0.00228167 0)
(0.193069 0.00222987 0)
(0.192532 0.00217703 0)
(0.192008 0.00212946 0)
(0.191489 0.0021007 0)
(0.190956 0.00206865 0)
(0.190394 0.00203568 0)
(0.189813 0.00199319 0)
(0.189235 0.00193846 0)
(0.188671 0.00190199 0)
(0.188106 0.00188833 0)
(0.187517 0.00186082 0)
(0.1869 0.00182991 0)
(0.186264 0.00179752 0)
(0.185619 0.00175928 0)
(0.184978 0.00171798 0)
(0.184344 0.00168816 0)
(0.183712 0.00165973 0)
(0.183075 0.00163379 0)
(0.182437 0.00159787 0)
(0.181796 0.00157907 0)
(0.181145 0.00155399 0)
(0.180482 0.00152014 0)
(0.179817 0.00148795 0)
(0.179156 0.0014654 0)
(0.178498 0.00144111 0)
(0.17783 0.00142314 0)
(0.17715 0.00139952 0)
(0.176458 0.0013795 0)
(0.175767 0.00134559 0)
(0.175079 0.00132501 0)
(0.174401 0.00130211 0)
(0.173726 0.00128305 0)
(0.173048 0.00126667 0)
(0.172358 0.00125983 0)
(0.17165 0.00123466 0)
(0.170956 0.00120819 0)
(0.170249 0.00117856 0)
(0.169613 0.00117836 0)
(0.168825 0.00115672 0)
(0.168366 0.00116019 0)
(0.167173 0.00114071 0)
(0.196275 0.00547835 0)
(0.196851 0.00678767 0)
(0.197293 0.00714437 0)
(0.197999 0.00815595 0)
(0.198505 0.00792277 0)
(0.198965 0.00860301 0)
(0.199859 0.00897682 0)
(0.200518 0.00855628 0)
(0.200993 0.00767596 0)
(0.201791 0.00725795 0)
(0.202296 0.006701 0)
(0.20224 0.00666394 0)
(0.202245 0.00643568 0)
(0.202338 0.00607972 0)
(0.202343 0.00602817 0)
(0.202339 0.00590107 0)
(0.202506 0.00561793 0)
(0.202757 0.0052388 0)
(0.202741 0.00504685 0)
(0.20256 0.00484041 0)
(0.202445 0.00482244 0)
(0.202409 0.00472564 0)
(0.202414 0.00456973 0)
(0.202453 0.00448678 0)
(0.202444 0.00434782 0)
(0.202378 0.00430374 0)
(0.202324 0.00420537 0)
(0.202308 0.00405183 0)
(0.202294 0.00397469 0)
(0.202278 0.0039278 0)
(0.202266 0.00383256 0)
(0.20223 0.00374597 0)
(0.202155 0.0037314 0)
(0.202063 0.00371335 0)
(0.20198 0.00362082 0)
(0.201903 0.00353074 0)
(0.201846 0.00337948 0)
(0.201816 0.0032972 0)
(0.201774 0.00328139 0)
(0.201684 0.0032369 0)
(0.201588 0.00317275 0)
(0.20152 0.00316379 0)
(0.20143 0.00310245 0)
(0.20134 0.00295306 0)
(0.201298 0.00295518 0)
(0.201218 0.00305226 0)
(0.201028 0.0030021 0)
(0.200808 0.00291182 0)
(0.200623 0.00283857 0)
(0.200467 0.00273569 0)
(0.200331 0.00271881 0)
(0.200171 0.00271691 0)
(0.199971 0.00265327 0)
(0.199752 0.00261722 0)
(0.199522 0.00257116 0)
(0.199304 0.00249221 0)
(0.199107 0.00247914 0)
(0.198893 0.00247597 0)
(0.198633 0.00244324 0)
(0.198339 0.00240087 0)
(0.198033 0.00234677 0)
(0.197737 0.00229282 0)
(0.197459 0.00226465 0)
(0.197174 0.0022387 0)
(0.196861 0.00221681 0)
(0.19652 0.00217918 0)
(0.196173 0.00211941 0)
(0.195843 0.00207937 0)
(0.195522 0.00206843 0)
(0.195184 0.00204855 0)
(0.194815 0.00202972 0)
(0.194415 0.00200587 0)
(0.193992 0.00197018 0)
(0.193564 0.00192617 0)
(0.193142 0.00189327 0)
(0.192722 0.00186357 0)
(0.192295 0.00183829 0)
(0.191868 0.00179962 0)
(0.191441 0.00178528 0)
(0.191004 0.00176387 0)
(0.190548 0.00173234 0)
(0.190081 0.00169916 0)
(0.189612 0.00167618 0)
(0.189146 0.00164984 0)
(0.188674 0.00163636 0)
(0.188188 0.00161511 0)
(0.187678 0.00160181 0)
(0.187154 0.00156413 0)
(0.186625 0.00154396 0)
(0.186103 0.00151366 0)
(0.18559 0.00149486 0)
(0.185081 0.00147744 0)
(0.184553 0.00148065 0)
(0.183995 0.00145168 0)
(0.183435 0.00142841 0)
(0.182867 0.00138522 0)
(0.182362 0.00139415 0)
(0.181733 0.00136455 0)
(0.181372 0.00137916 0)
(0.180397 0.00135174 0)
(0.19704 0.00631798 0)
(0.197176 0.00641534 0)
(0.197343 0.00674257 0)
(0.19813 0.00736703 0)
(0.19868 0.0075803 0)
(0.198875 0.00819453 0)
(0.199671 0.00880663 0)
(0.20065 0.00831826 0)
(0.20121 0.00710529 0)
(0.201532 0.00660874 0)
(0.20189 0.00662723 0)
(0.201969 0.0065986 0)
(0.201986 0.00630271 0)
(0.202136 0.00604448 0)
(0.202197 0.0060403 0)
(0.202233 0.00589353 0)
(0.202467 0.00557132 0)
(0.202674 0.005248 0)
(0.202591 0.00505905 0)
(0.202403 0.0049356 0)
(0.202306 0.00486032 0)
(0.202302 0.00476666 0)
(0.20235 0.00453557 0)
(0.202393 0.00444857 0)
(0.202362 0.00439254 0)
(0.202312 0.0043498 0)
(0.202296 0.0041848 0)
(0.202282 0.00408548 0)
(0.202257 0.00404422 0)
(0.202252 0.00386864 0)
(0.202262 0.00382037 0)
(0.202238 0.00378507 0)
(0.20216 0.00377204 0)
(0.202085 0.00364532 0)
(0.202031 0.00367898 0)
(0.201996 0.00355964 0)
(0.201999 0.00340092 0)
(0.201998 0.00332501 0)
(0.201968 0.00333151 0)
(0.201903 0.00328531 0)
(0.201854 0.00317912 0)
(0.201857 0.00318139 0)
(0.201838 0.00310426 0)
(0.201805 0.00298773 0)
(0.201833 0.00297163 0)
(0.201807 0.00303795 0)
(0.201664 0.00307242 0)
(0.201548 0.00297987 0)
(0.201493 0.00286673 0)
(0.20145 0.00275805 0)
(0.201415 0.00275601 0)
(0.201346 0.00275435 0)
(0.201249 0.00271449 0)
(0.201158 0.00269056 0)
(0.201058 0.00262661 0)
(0.200966 0.0025431 0)
(0.200898 0.00253636 0)
(0.200818 0.00253869 0)
(0.200702 0.00252261 0)
(0.20056 0.00249813 0)
(0.200406 0.00243843 0)
(0.200257 0.00237173 0)
(0.200131 0.0023472 0)
(0.200007 0.00232373 0)
(0.199862 0.00230958 0)
(0.19969 0.00228282 0)
(0.199508 0.00222007 0)
(0.199343 0.00217322 0)
(0.199195 0.00216163 0)
(0.199039 0.00214808 0)
(0.198861 0.00214221 0)
(0.198653 0.00212961 0)
(0.198415 0.00209952 0)
(0.198166 0.00205637 0)
(0.197921 0.0020224 0)
(0.197678 0.00199272 0)
(0.197427 0.00196892 0)
(0.197177 0.00192599 0)
(0.196933 0.00191319 0)
(0.196685 0.00189628 0)
(0.19642 0.00187153 0)
(0.196142 0.00184054 0)
(0.195854 0.00181799 0)
(0.195568 0.00178911 0)
(0.195282 0.00177949 0)
(0.194987 0.00176299 0)
(0.194668 0.0017602 0)
(0.194325 0.00172319 0)
(0.193966 0.00170636 0)
(0.193606 0.00167017 0)
(0.193258 0.0016476 0)
(0.192925 0.00163047 0)
(0.192578 0.00164548 0)
(0.192193 0.00161915 0)
(0.19179 0.00159948 0)
(0.19138 0.00154722 0)
(0.191024 0.00155885 0)
(0.190578 0.00152676 0)
(0.190331 0.00154831 0)
(0.189627 0.00152028 0)
(0.197259 0.00609683 0)
(0.197442 0.0059652 0)
(0.197682 0.00599443 0)
(0.198335 0.00788825 0)
(0.198843 0.00733603 0)
(0.19892 0.00739259 0)
(0.199618 0.00837768 0)
(0.200786 0.00779215 0)
(0.201117 0.00684761 0)
(0.201211 0.00659277 0)
(0.20162 0.00646868 0)
(0.201758 0.00662314 0)
(0.201777 0.00620301 0)
(0.201945 0.00632395 0)
(0.202101 0.005944 0)
(0.202165 0.0055716 0)
(0.20234 0.00538284 0)
(0.202492 0.00522752 0)
(0.202412 0.00513391 0)
(0.202266 0.00500487 0)
(0.202195 0.00487477 0)
(0.202218 0.00473729 0)
(0.202304 0.00444868 0)
(0.202302 0.00453882 0)
(0.202258 0.00438511 0)
(0.202266 0.00428942 0)
(0.202262 0.0042454 0)
(0.202223 0.00410713 0)
(0.202196 0.00396437 0)
(0.202195 0.00390883 0)
(0.202193 0.00388052 0)
(0.202156 0.00380471 0)
(0.202098 0.00376654 0)
(0.202071 0.00377081 0)
(0.202036 0.00370332 0)
(0.201987 0.00352309 0)
(0.20198 0.00339832 0)
(0.201985 0.0033361 0)
(0.201971 0.00332607 0)
(0.201926 0.00330481 0)
(0.201885 0.00318269 0)
(0.201886 0.00317401 0)
(0.201884 0.00315078 0)
(0.201881 0.00295172 0)
(0.201878 0.00295181 0)
(0.201818 0.00325359 0)
(0.201747 0.00302222 0)
(0.201742 0.00294083 0)
(0.201718 0.00289016 0)
(0.201686 0.002762 0)
(0.201672 0.00279421 0)
(0.201631 0.00278499 0)
(0.201588 0.00271667 0)
(0.201559 0.00272392 0)
(0.201515 0.0026528 0)
(0.201475 0.0025463 0)
(0.201454 0.00255419 0)
(0.201423 0.0025659 0)
(0.201373 0.00254758 0)
(0.201308 0.00254029 0)
(0.201231 0.00249006 0)
(0.20116 0.00240517 0)
(0.201112 0.0023797 0)
(0.201069 0.00236154 0)
(0.201012 0.0023521 0)
(0.200933 0.00233005 0)
(0.200841 0.00226807 0)
(0.200764 0.00221641 0)
(0.200707 0.00219885 0)
(0.200654 0.00218815 0)
(0.200588 0.00219445 0)
(0.200499 0.00219374 0)
(0.200382 0.00217111 0)
(0.200251 0.0021291 0)
(0.200126 0.00209294 0)
(0.200005 0.00206388 0)
(0.199874 0.00204075 0)
(0.199741 0.00199639 0)
(0.199618 0.00198298 0)
(0.199497 0.00196336 0)
(0.199368 0.00194469 0)
(0.199229 0.00192061 0)
(0.199079 0.00190027 0)
(0.198928 0.00186896 0)
(0.198781 0.00185982 0)
(0.19863 0.00184646 0)
(0.198461 0.00185565 0)
(0.198269 0.00182507 0)
(0.198057 0.00181333 0)
(0.197836 0.00177434 0)
(0.197625 0.00174412 0)
(0.197434 0.00172485 0)
(0.19724 0.00174971 0)
(0.197008 0.00173538 0)
(0.196747 0.0017171 0)
(0.196479 0.00166062 0)
(0.196256 0.00166958 0)
(0.195978 0.00163679 0)
(0.195833 0.00166107 0)
(0.195387 0.00163873 0)
(0.197433 0.00610955 0)
(0.197697 0.00553057 0)
(0.197851 0.00625138 0)
(0.198658 0.00693889 0)
(0.198923 0.00699374 0)
(0.198828 0.0075113 0)
(0.199976 0.00758105 0)
(0.200931 0.00705775 0)
(0.200751 0.00682063 0)
(0.200809 0.00655479 0)
(0.201453 0.00638563 0)
(0.201697 0.00638784 0)
(0.201624 0.00632724 0)
(0.201705 0.00606232 0)
(0.201915 0.0058781 0)
(0.202112 0.00556 0)
(0.202284 0.0053115 0)
(0.202306 0.00526334 0)
(0.202211 0.00519974 0)
(0.202108 0.00505642 0)
(0.202098 0.00495436 0)
(0.202186 0.00464329 0)
(0.202257 0.00453519 0)
(0.20221 0.0044621 0)
(0.202182 0.00437247 0)
(0.202201 0.0043421 0)
(0.202186 0.00431201 0)
(0.202175 0.00406249 0)
(0.20216 0.00401267 0)
(0.202123 0.00393396 0)
(0.202099 0.00385891 0)
(0.202067 0.00380992 0)
(0.202033 0.00381709 0)
(0.202017 0.00377651 0)
(0.20201 0.003686 0)
(0.201988 0.00358511 0)
(0.201944 0.00338653 0)
(0.201945 0.00331709 0)
(0.201944 0.00333595 0)
(0.201899 0.00335345 0)
(0.201866 0.00319051 0)
(0.201864 0.00317548 0)
(0.201851 0.00310077 0)
(0.201844 0.00300856 0)
(0.201821 0.00298696 0)
(0.201762 0.00307008 0)
(0.20175 0.00310697 0)
(0.201752 0.00305594 0)
(0.201724 0.00291739 0)
(0.201708 0.00275524 0)
(0.201703 0.00279678 0)
(0.201659 0.00279729 0)
(0.201639 0.00274992 0)
(0.201638 0.0027332 0)
(0.201597 0.00269537 0)
(0.201566 0.00257481 0)
(0.201567 0.00255431 0)
(0.201545 0.00257372 0)
(0.201512 0.00258135 0)
(0.201484 0.00255882 0)
(0.201445 0.00251265 0)
(0.201411 0.00241898 0)
(0.2014 0.00238656 0)
(0.201388 0.00236642 0)
(0.201364 0.00237089 0)
(0.201323 0.00236308 0)
(0.201275 0.00229296 0)
(0.201233 0.00222941 0)
(0.201208 0.00220786 0)
(0.201196 0.00219657 0)
(0.201181 0.00221007 0)
(0.20115 0.00221988 0)
(0.201096 0.00220439 0)
(0.201028 0.00216651 0)
(0.200968 0.00212673 0)
(0.200917 0.00210069 0)
(0.200858 0.00207824 0)
(0.200794 0.00202945 0)
(0.200735 0.00202049 0)
(0.200677 0.00199681 0)
(0.200621 0.00197629 0)
(0.200564 0.00195664 0)
(0.200498 0.00193926 0)
(0.20043 0.00190701 0)
(0.200366 0.00189798 0)
(0.200302 0.00188673 0)
(0.200225 0.00190181 0)
(0.200132 0.00187932 0)
(0.200026 0.00187483 0)
(0.199906 0.00183513 0)
(0.19979 0.00179804 0)
(0.199697 0.00177786 0)
(0.199606 0.00180234 0)
(0.19948 0.00180736 0)
(0.199319 0.00179411 0)
(0.199157 0.00173371 0)
(0.199032 0.00173609 0)
(0.198881 0.00170305 0)
(0.198809 0.00172421 0)
(0.198562 0.0017108 0)