/*--------------------------------*- C++ -*----------------------------------*\
| =========                 |                                                 |
| \\      /  F ield         | OpenFOAM: The Open Source CFD Toolbox           |
|  \\    /   O peration     | Version:  2.3.0                                 |
|   \\  /    A nd           | Web:      www.OpenFOAM.org                      |
|    \\/     M anipulation  |                                                 |
\*---------------------------------------------------------------------------*/
FoamFile
{
    version     2.0;
    format      ascii;
    class       volVectorField;
    location    "0.95";
    object      U_0;
}
// * * * * * * * * * * * * * * * * * * * * * * * * * * * * * * * * * * * * * //

dimensions      [0 1 -1 0 0 0 0];

internalField   nonuniform List<vector> 
3375
(
(0.176009 0.00453558 0)
(0.154381 0.00617536 0)
(0.134448 0.00659832 0)
(0.115673 0.00546236 0)
(0.0984175 0.00432443 0)
(0.0831887 0.00346505 0)
(0.0704027 0.00243779 0)
(0.0605592 0.00144527 0)
(0.0532683 0.000837257 0)
(0.0477072 0.000427196 0)
(0.0435473 0.000147146 0)
(0.0405733 2.41077e-05 0)
(0.0383415 -8.14372e-06 0)
(0.0365432 -2.64637e-06 0)
(0.0350647 1.62239e-05 0)
(0.0338237 3.25447e-05 0)
(0.0327338 4.72424e-05 0)
(0.0317313 5.92857e-05 0)
(0.0307957 6.50779e-05 0)
(0.0299221 6.73224e-05 0)
(0.0291043 6.64703e-05 0)
(0.0283373 6.30492e-05 0)
(0.0276203 5.92604e-05 0)
(0.0269488 5.64983e-05 0)
(0.0263169 5.29698e-05 0)
(0.0257226 4.91844e-05 0)
(0.0251619 4.65577e-05 0)
(0.0246361 4.22415e-05 0)
(0.02414 4.06192e-05 0)
(0.023663 4.05587e-05 0)
(0.02321 3.5992e-05 0)
(0.0227853 3.37315e-05 0)
(0.0223786 3.40783e-05 0)
(0.0219861 3.13476e-05 0)
(0.0216154 2.88183e-05 0)
(0.0212634 2.78468e-05 0)
(0.020925 2.64718e-05 0)
(0.0205995 2.56661e-05 0)
(0.0202848 2.48935e-05 0)
(0.019984 2.27386e-05 0)
(0.0196977 2.15324e-05 0)
(0.0194206 2.14511e-05 0)
(0.0191531 1.98578e-05 0)
(0.0188973 1.89087e-05 0)
(0.0186452 2.01992e-05 0)
(0.0183964 1.92148e-05 0)
(0.0181621 1.62531e-05 0)
(0.0179413 1.59628e-05 0)
(0.0177235 1.6578e-05 0)
(0.0175105 1.53918e-05 0)
(0.0173058 1.47218e-05 0)
(0.0171064 1.45752e-05 0)
(0.0169138 1.33481e-05 0)
(0.0167286 1.28609e-05 0)
(0.0165481 1.27666e-05 0)
(0.0163721 1.20576e-05 0)
(0.0161998 1.22492e-05 0)
(0.0160297 1.21581e-05 0)
(0.0158644 1.12579e-05 0)
(0.0157059 1.067e-05 0)
(0.0155517 1.04585e-05 0)
(0.0154004 1.03336e-05 0)
(0.015252 1.01016e-05 0)
(0.0151074 9.60982e-06 0)
(0.0149663 9.43073e-06 0)
(0.0148285 9.09826e-06 0)
(0.0146953 8.42899e-06 0)
(0.0145662 8.24959e-06 0)
(0.014438 8.49852e-06 0)
(0.0143114 8.18048e-06 0)
(0.0141879 7.85705e-06 0)
(0.014067 7.74584e-06 0)
(0.013948 7.54191e-06 0)
(0.0138319 7.22256e-06 0)
(0.013718 7.15253e-06 0)
(0.0136056 7.06101e-06 0)
(0.0134948 6.94063e-06 0)
(0.0133865 6.64789e-06 0)
(0.0132796 6.70366e-06 0)
(0.013174 6.5804e-06 0)
(0.0130711 6.14337e-06 0)
(0.0129711 5.95834e-06 0)
(0.0128725 5.9443e-06 0)
(0.0127749 5.84702e-06 0)
(0.0126788 5.73274e-06 0)
(0.0125832 5.76774e-06 0)
(0.012489 5.61984e-06 0)
(0.0123958 5.44667e-06 0)
(0.0123055 5.2241e-06 0)
(0.0122142 5.41891e-06 0)
(0.0121263 5.01816e-06 0)
(0.0120351 5.5368e-06 0)
(0.0119485 5.10107e-06 0)
(0.0118545 5.7882e-06 0)
(0.0117749 4.09183e-06 0)
(0.0116798 5.71377e-06 0)
(0.0116144 2.94071e-06 0)
(0.0115039 6.72805e-06 0)
(0.0114727 5.3519e-08 0)
(0.0113219 1.15875e-05 0)
(0.190684 0.0108502 0)
(0.19053 0.0121586 0)
(0.188736 0.0123944 0)
(0.183973 0.0123626 0)
(0.17733 0.0116514 0)
(0.169521 0.0105387 0)
(0.161139 0.00890168 0)
(0.15274 0.00716482 0)
(0.144606 0.00581607 0)
(0.137059 0.00448465 0)
(0.130094 0.00332801 0)
(0.123778 0.00256154 0)
(0.118173 0.00203949 0)
(0.113082 0.00163723 0)
(0.108423 0.00132441 0)
(0.104287 0.00109748 0)
(0.100647 0.000964001 0)
(0.0973575 0.000880322 0)
(0.0943357 0.000801149 0)
(0.0915598 0.000734061 0)
(0.0890051 0.000680415 0)
(0.0866409 0.000631824 0)
(0.0844421 0.000585698 0)
(0.0823895 0.000545622 0)
(0.0804635 0.000509619 0)
(0.0786503 0.000477179 0)
(0.0769427 0.000448634 0)
(0.0753366 0.000415206 0)
(0.0738113 0.000393234 0)
(0.0723588 0.000377983 0)
(0.0709834 0.000348789 0)
(0.0696756 0.000328032 0)
(0.0684294 0.000317352 0)
(0.0672373 0.000298407 0)
(0.0660988 0.000280349 0)
(0.0650143 0.000267634 0)
(0.0639737 0.000254438 0)
(0.0629721 0.000243791 0)
(0.0620088 0.000233897 0)
(0.0610854 0.000220062 0)
(0.0601987 0.000209834 0)
(0.0593434 0.000203555 0)
(0.0585195 0.000192668 0)
(0.057725 0.000184066 0)
(0.0569516 0.000183073 0)
(0.0562006 0.000175172 0)
(0.0554813 0.000160997 0)
(0.0547912 0.000155611 0)
(0.0541187 0.000153534 0)
(0.0534654 0.000145903 0)
(0.0528341 0.000140256 0)
(0.0522209 0.00013645 0)
(0.0516269 0.00012926 0)
(0.0510511 0.000124699 0)
(0.0504909 0.000121543 0)
(0.0499457 0.000116571 0)
(0.0494128 0.000114531 0)
(0.0488923 0.000111581 0)
(0.0483858 0.000106256 0)
(0.0478957 0.000102088 0)
(0.0474181 9.92609e-05 0)
(0.0469512 9.66895e-05 0)
(0.0464955 9.39079e-05 0)
(0.0460512 9.04823e-05 0)
(0.0456169 8.81042e-05 0)
(0.0451934 8.52335e-05 0)
(0.0447812 8.14711e-05 0)
(0.0443792 7.9395e-05 0)
(0.0439834 7.87068e-05 0)
(0.043595 7.61799e-05 0)
(0.043215 7.37942e-05 0)
(0.0428432 7.21673e-05 0)
(0.042478 7.02661e-05 0)
(0.0421208 6.79745e-05 0)
(0.04177 6.66056e-05 0)
(0.0414255 6.51861e-05 0)
(0.0410866 6.36931e-05 0)
(0.0407551 6.16223e-05 0)
(0.0404289 6.0754e-05 0)
(0.0401086 5.93177e-05 0)
(0.0397949 5.70051e-05 0)
(0.039488 5.55091e-05 0)
(0.0391863 5.46097e-05 0)
(0.0388883 5.34955e-05 0)
(0.0385954 5.23472e-05 0)
(0.0383055 5.17e-05 0)
(0.0380209 5.04724e-05 0)
(0.0377391 4.92934e-05 0)
(0.0374643 4.79251e-05 0)
(0.0371886 4.8007e-05 0)
(0.0369218 4.60494e-05 0)
(0.0366491 4.7233e-05 0)
(0.03639 4.50873e-05 0)
(0.0361155 4.69069e-05 0)
(0.0358742 4.07362e-05 0)
(0.0355944 4.58834e-05 0)
(0.0353852 3.59631e-05 0)
(0.0350686 4.92568e-05 0)
(0.0349442 2.60244e-05 0)
(0.0345124 5.8569e-05 0)
(0.191942 0.00749915 0)
(0.193107 0.00987808 0)
(0.194674 0.0114451 0)
(0.195836 0.0123073 0)
(0.19622 0.0119511 0)
(0.195824 0.0119437 0)
(0.19425 0.0108612 0)
(0.191662 0.00946354 0)
(0.188239 0.00885843 0)
(0.184396 0.00781795 0)
(0.180289 0.0064464 0)
(0.176064 0.00544859 0)
(0.17196 0.00478183 0)
(0.167948 0.00436659 0)
(0.163894 0.00398246 0)
(0.159859 0.00351559 0)
(0.156026 0.00312063 0)
(0.15246 0.00284604 0)
(0.149086 0.00261002 0)
(0.145819 0.00239514 0)
(0.142647 0.00220009 0)
(0.139606 0.00202552 0)
(0.136708 0.00187428 0)
(0.133944 0.00174616 0)
(0.131297 0.00162633 0)
(0.128751 0.00151679 0)
(0.126309 0.00142522 0)
(0.123984 0.00132964 0)
(0.121753 0.00125654 0)
(0.119605 0.00119745 0)
(0.117551 0.0011166 0)
(0.115576 0.0010539 0)
(0.113678 0.00100919 0)
(0.111855 0.000952109 0)
(0.1101 0.000899195 0)
(0.108416 0.000857399 0)
(0.106795 0.000816612 0)
(0.105225 0.000781071 0)
(0.103706 0.00074765 0)
(0.102243 0.00070781 0)
(0.100833 0.000675622 0)
(0.0994675 0.000652067 0)
(0.0981484 0.000620713 0)
(0.0968717 0.000593885 0)
(0.0956276 0.000581659 0)
(0.0944189 0.000557539 0)
(0.0932546 0.000522477 0)
(0.0921327 0.000503911 0)
(0.0910398 0.000491662 0)
(0.0899742 0.000469387 0)
(0.0889408 0.000451684 0)
(0.0879369 0.00043795 0)
(0.0869623 0.000418146 0)
(0.0860146 0.000403769 0)
(0.0850916 0.000391945 0)
(0.0841923 0.000377021 0)
(0.0833127 0.000368113 0)
(0.082454 0.00035746 0)
(0.0816167 0.000342495 0)
(0.0808038 0.000329972 0)
(0.0800113 0.000320306 0)
(0.0792356 0.000311162 0)
(0.0784782 0.000301858 0)
(0.0777392 0.000291648 0)
(0.0770157 0.000283492 0)
(0.0763098 0.000274595 0)
(0.0756214 0.000264295 0)
(0.0749486 0.000257179 0)
(0.0742874 0.000252807 0)
(0.073639 0.000245162 0)
(0.0730038 0.000237831 0)
(0.0723819 0.000232001 0)
(0.0717712 0.000226022 0)
(0.071173 0.000219336 0)
(0.0705859 0.000214255 0)
(0.0700094 0.000209119 0)
(0.0694425 0.000204088 0)
(0.0688876 0.000197995 0)
(0.0683417 0.000194173 0)
(0.0678059 0.000189293 0)
(0.0672806 0.0001831 0)
(0.0667657 0.000178463 0)
(0.0662598 0.000174984 0)
(0.065761 0.000171193 0)
(0.0652705 0.000167407 0)
(0.0647859 0.000164531 0)
(0.0643101 0.00016071 0)
(0.0638397 0.000157107 0)
(0.0633795 0.000153238 0)
(0.0629204 0.000152037 0)
(0.0624742 0.000147136 0)
(0.0620225 0.000148008 0)
(0.0615899 0.00014278 0)
(0.0611394 0.00014483 0)
(0.060732 0.000132578 0)
(0.0602763 0.000140979 0)
(0.0599133 0.000122406 0)
(0.0594069 0.000144789 0)
(0.0591691 0.000107218 0)
(0.058467 0.000151321 0)
(0.193213 0.00822688 0)
(0.193725 0.00914565 0)
(0.194846 0.0102543 0)
(0.196394 0.0108434 0)
(0.198109 0.0114099 0)
(0.199726 0.0110807 0)
(0.200536 0.0109984 0)
(0.200825 0.00955703 0)
(0.200733 0.00903223 0)
(0.200114 0.00830903 0)
(0.198893 0.0075951 0)
(0.197271 0.00700287 0)
(0.195558 0.0063939 0)
(0.193883 0.00580916 0)
(0.192022 0.0054089 0)
(0.189817 0.00503067 0)
(0.187427 0.00465059 0)
(0.185075 0.00432649 0)
(0.182851 0.00405863 0)
(0.180682 0.00385501 0)
(0.178448 0.00366372 0)
(0.176137 0.0034572 0)
(0.17381 0.00325036 0)
(0.171519 0.00307411 0)
(0.169269 0.00291473 0)
(0.167042 0.00276041 0)
(0.164823 0.00261716 0)
(0.162638 0.00245965 0)
(0.16049 0.00234354 0)
(0.158383 0.00224987 0)
(0.156327 0.00211705 0)
(0.154303 0.00201401 0)
(0.152314 0.00193697 0)
(0.150367 0.00183888 0)
(0.148461 0.00174781 0)
(0.146613 0.00167043 0)
(0.144817 0.00159711 0)
(0.143053 0.00153546 0)
(0.141316 0.00147493 0)
(0.139618 0.00140325 0)
(0.137968 0.00134284 0)
(0.136357 0.00129662 0)
(0.134785 0.00123945 0)
(0.13325 0.00118913 0)
(0.131741 0.00116182 0)
(0.13026 0.00111589 0)
(0.128824 0.00105259 0)
(0.12744 0.00101652 0)
(0.126087 0.000991862 0)
(0.124752 0.000950864 0)
(0.123445 0.000916163 0)
(0.122171 0.000887689 0)
(0.120933 0.000850243 0)
(0.119723 0.000822518 0)
(0.118538 0.000798637 0)
(0.117379 0.000769228 0)
(0.116241 0.00074989 0)
(0.115126 0.000728535 0)
(0.114035 0.000700721 0)
(0.112971 0.00067634 0)
(0.111933 0.000656449 0)
(0.110912 0.0006376 0)
(0.109912 0.000618821 0)
(0.108933 0.000599017 0)
(0.107973 0.000582229 0)
(0.107033 0.000564319 0)
(0.106114 0.0005448 0)
(0.105214 0.000530297 0)
(0.104329 0.000519799 0)
(0.103459 0.000504538 0)
(0.102605 0.000490297 0)
(0.101768 0.000478026 0)
(0.100945 0.000465398 0)
(0.100137 0.000452329 0)
(0.0993435 0.000442024 0)
(0.0985632 0.000431192 0)
(0.0977948 0.000420514 0)
(0.0970414 0.00040842 0)
(0.0962993 0.000400181 0)
(0.0955697 0.000390148 0)
(0.0948534 0.000378129 0)
(0.0941503 0.0003686 0)
(0.093459 0.00036105 0)
(0.0927773 0.000353112 0)
(0.0921062 0.000345301 0)
(0.0914438 0.000338741 0)
(0.0907923 0.000331019 0)
(0.0901486 0.000323516 0)
(0.0895174 0.000315954 0)
(0.0888897 0.000312208 0)
(0.0882769 0.000303167 0)
(0.0876607 0.000302611 0)
(0.0870653 0.000293456 0)
(0.0864536 0.000294428 0)
(0.0858878 0.00027531 0)
(0.0852743 0.000284915 0)
(0.0847609 0.000259876 0)
(0.0840864 0.00028493 0)
(0.083734 0.000243148 0)
(0.0827813 0.0002849 0)
(0.193917 0.00743454 0)
(0.194245 0.00797178 0)
(0.195292 0.0100348 0)
(0.196735 0.0100404 0)
(0.198294 0.0101279 0)
(0.1997 0.0109564 0)
(0.200812 0.0103124 0)
(0.201402 0.0092097 0)
(0.201663 0.00976498 0)
(0.202388 0.00843351 0)
(0.202583 0.00733624 0)
(0.202291 0.00681886 0)
(0.20196 0.00631996 0)
(0.201706 0.00613491 0)
(0.201308 0.00598458 0)
(0.200517 0.00578275 0)
(0.199501 0.00550632 0)
(0.198467 0.00512117 0)
(0.197517 0.00474881 0)
(0.196618 0.00454297 0)
(0.195628 0.00441227 0)
(0.194489 0.00426624 0)
(0.193245 0.0040844 0)
(0.191954 0.0039108 0)
(0.190639 0.00375243 0)
(0.189296 0.00361447 0)
(0.187911 0.00350379 0)
(0.186487 0.00335145 0)
(0.185033 0.00322447 0)
(0.183565 0.0031233 0)
(0.1821 0.00297504 0)
(0.180626 0.00286586 0)
(0.179135 0.00278586 0)
(0.177623 0.00266816 0)
(0.176094 0.00255917 0)
(0.174582 0.00246416 0)
(0.173102 0.00236908 0)
(0.171634 0.00229873 0)
(0.170154 0.00222954 0)
(0.168668 0.00213619 0)
(0.167193 0.00205671 0)
(0.165735 0.00199533 0)
(0.164292 0.00191605 0)
(0.162866 0.00184995 0)
(0.161443 0.00181898 0)
(0.160005 0.00175527 0)
(0.158581 0.00165913 0)
(0.157213 0.00160418 0)
(0.155886 0.00157169 0)
(0.15456 0.00151686 0)
(0.153228 0.00146846 0)
(0.15191 0.00142512 0)
(0.150623 0.00136804 0)
(0.149364 0.00132797 0)
(0.148122 0.00129321 0)
(0.146895 0.00124937 0)
(0.145678 0.00122017 0)
(0.144476 0.00118635 0)
(0.143291 0.00114404 0)
(0.142131 0.00110777 0)
(0.140994 0.00107732 0)
(0.139871 0.00104846 0)
(0.13876 0.0010193 0)
(0.137666 0.000988412 0)
(0.136588 0.000962435 0)
(0.135528 0.000934462 0)
(0.134488 0.00090371 0)
(0.133463 0.000880824 0)
(0.132449 0.000863878 0)
(0.131449 0.000839177 0)
(0.130464 0.000816161 0)
(0.129497 0.000797006 0)
(0.128543 0.000776913 0)
(0.127605 0.000755262 0)
(0.126679 0.00073833 0)
(0.125766 0.000721456 0)
(0.124863 0.000704364 0)
(0.123976 0.000684526 0)
(0.1231 0.0006709 0)
(0.122235 0.00065485 0)
(0.121383 0.000635853 0)
(0.120545 0.000620159 0)
(0.11972 0.000607317 0)
(0.118903 0.000593914 0)
(0.118097 0.000581122 0)
(0.117302 0.000569828 0)
(0.116518 0.00055738 0)
(0.115743 0.000544579 0)
(0.11498 0.000532547 0)
(0.114223 0.000525085 0)
(0.113479 0.000511181 0)
(0.112735 0.000507908 0)
(0.112009 0.000494819 0)
(0.111271 0.000492633 0)
(0.110576 0.000467526 0)
(0.109839 0.00047395 0)
(0.1092 0.00044773 0)
(0.108393 0.00046687 0)
(0.107944 0.000430369 0)
(0.106785 0.000460313 0)
(0.194608 0.00698438 0)
(0.194951 0.00796979 0)
(0.195816 0.00907119 0)
(0.197073 0.009294 0)
(0.198405 0.00971044 0)
(0.199505 0.00999606 0)
(0.200565 0.00998073 0)
(0.201165 0.00988914 0)
(0.20142 0.00815234 0)
(0.20201 0.0087167 0)
(0.202814 0.00762417 0)
(0.203007 0.00690428 0)
(0.202974 0.00639083 0)
(0.202948 0.00611062 0)
(0.202787 0.00607336 0)
(0.202533 0.00585143 0)
(0.202308 0.0055915 0)
(0.202068 0.00527421 0)
(0.201827 0.00493653 0)
(0.201617 0.0047559 0)
(0.201333 0.0047067 0)
(0.200949 0.00462886 0)
(0.200503 0.00448858 0)
(0.200016 0.00434832 0)
(0.199473 0.00420134 0)
(0.198883 0.00407334 0)
(0.198262 0.00396528 0)
(0.197604 0.00382105 0)
(0.196892 0.00373368 0)
(0.196144 0.00364429 0)
(0.195376 0.00348728 0)
(0.194585 0.00339446 0)
(0.193764 0.00334342 0)
(0.192893 0.00323836 0)
(0.191967 0.00312821 0)
(0.19102 0.00302856 0)
(0.190086 0.00292299 0)
(0.18916 0.00285325 0)
(0.188211 0.00279765 0)
(0.187223 0.00270622 0)
(0.186212 0.00262662 0)
(0.18519 0.00257344 0)
(0.184157 0.00248181 0)
(0.18313 0.0024009 0)
(0.182097 0.00238819 0)
(0.181008 0.00233853 0)
(0.17987 0.00221843 0)
(0.17876 0.00213701 0)
(0.177703 0.00209747 0)
(0.176653 0.00204257 0)
(0.175579 0.00199718 0)
(0.174479 0.00194741 0)
(0.173377 0.00187161 0)
(0.172295 0.00182187 0)
(0.171229 0.00178185 0)
(0.170167 0.00172964 0)
(0.169097 0.00169929 0)
(0.16802 0.0016596 0)
(0.16694 0.00160341 0)
(0.165875 0.00155566 0)
(0.164831 0.00151719 0)
(0.163794 0.00148232 0)
(0.162757 0.00144733 0)
(0.161721 0.00140744 0)
(0.16069 0.00137334 0)
(0.159671 0.00133703 0)
(0.158668 0.001297 0)
(0.157673 0.0012676 0)
(0.156678 0.00124587 0)
(0.155683 0.00121317 0)
(0.154696 0.00118159 0)
(0.153723 0.00115447 0)
(0.152763 0.00112772 0)
(0.151814 0.00109927 0)
(0.150875 0.0010757 0)
(0.149943 0.00105231 0)
(0.149016 0.00102987 0)
(0.1481 0.00100285 0)
(0.14719 0.000984241 0)
(0.146287 0.000962017 0)
(0.145393 0.000935995 0)
(0.144512 0.000914422 0)
(0.143639 0.00089687 0)
(0.142772 0.000877732 0)
(0.14191 0.000859562 0)
(0.141057 0.000842582 0)
(0.140213 0.000825664 0)
(0.13938 0.000806795 0)
(0.138556 0.000790703 0)
(0.137737 0.000778519 0)
(0.136928 0.000760321 0)
(0.136119 0.000752925 0)
(0.135322 0.000737617 0)
(0.134516 0.000729073 0)
(0.133746 0.000700944 0)
(0.132944 0.000698896 0)
(0.132231 0.000677567 0)
(0.131348 0.000684172 0)
(0.130841 0.000659083 0)
(0.129554 0.000672063 0)
(0.195085 0.00650703 0)
(0.195576 0.00726493 0)
(0.196467 0.00860071 0)
(0.197528 0.0085871 0)
(0.198457 0.00919539 0)
(0.199342 0.0091756 0)
(0.200191 0.0100674 0)
(0.200767 0.00913166 0)
(0.201094 0.00807746 0)
(0.201823 0.00808447 0)
(0.202837 0.0071111 0)
(0.202893 0.00678706 0)
(0.202826 0.00635428 0)
(0.202889 0.00617852 0)
(0.20283 0.00606532 0)
(0.20268 0.0059929 0)
(0.20257 0.00570988 0)
(0.202567 0.00543257 0)
(0.202588 0.00497416 0)
(0.202576 0.0047904 0)
(0.202511 0.00473198 0)
(0.202394 0.00469609 0)
(0.202279 0.00454005 0)
(0.202167 0.00443464 0)
(0.202015 0.00429803 0)
(0.201809 0.0041874 0)
(0.201589 0.00414944 0)
(0.201379 0.00400394 0)
(0.201139 0.00391585 0)
(0.200857 0.00386144 0)
(0.200553 0.00371433 0)
(0.200231 0.00361677 0)
(0.199886 0.00358452 0)
(0.199495 0.00352136 0)
(0.199054 0.00344556 0)
(0.198587 0.00334224 0)
(0.198128 0.00322595 0)
(0.197685 0.00316025 0)
(0.197227 0.00311839 0)
(0.196724 0.00303983 0)
(0.196193 0.00295716 0)
(0.195638 0.00291763 0)
(0.19505 0.0028451 0)
(0.19447 0.0027599 0)
(0.193905 0.00275268 0)
(0.193274 0.00273562 0)
(0.192544 0.00263321 0)
(0.1918 0.00254065 0)
(0.191102 0.00247986 0)
(0.190427 0.00241672 0)
(0.189741 0.00239 0)
(0.189011 0.00235446 0)
(0.188246 0.0022731 0)
(0.187478 0.00221762 0)
(0.186719 0.00217098 0)
(0.185967 0.00211402 0)
(0.185206 0.00209213 0)
(0.184416 0.00205944 0)
(0.183596 0.00200054 0)
(0.182773 0.00194486 0)
(0.181964 0.00189774 0)
(0.181164 0.00185969 0)
(0.180359 0.00182762 0)
(0.179539 0.0017865 0)
(0.178703 0.00174835 0)
(0.177869 0.00170601 0)
(0.177046 0.00165837 0)
(0.176232 0.00162731 0)
(0.175408 0.00160796 0)
(0.174568 0.0015724 0)
(0.173716 0.0015363 0)
(0.172865 0.00150304 0)
(0.172021 0.00146886 0)
(0.171187 0.00143469 0)
(0.17036 0.00140823 0)
(0.169535 0.00138081 0)
(0.168709 0.00135466 0)
(0.167886 0.00132239 0)
(0.167062 0.00130207 0)
(0.166237 0.00127576 0)
(0.165411 0.00124357 0)
(0.164593 0.0012164 0)
(0.163783 0.00119622 0)
(0.162973 0.00117386 0)
(0.162158 0.00115321 0)
(0.161343 0.00113061 0)
(0.160531 0.00110972 0)
(0.159728 0.00108369 0)
(0.158933 0.00106536 0)
(0.158144 0.00104827 0)
(0.157358 0.00102832 0)
(0.156569 0.00101597 0)
(0.155782 0.00100216 0)
(0.154985 0.000984387 0)
(0.154216 0.000956249 0)
(0.153424 0.000941979 0)
(0.152711 0.000930376 0)
(0.151831 0.000921759 0)
(0.151319 0.000910934 0)
(0.150016 0.000905965 0)
(0.19555 0.00606839 0)
(0.196228 0.00725926 0)
(0.197083 0.00793889 0)
(0.197889 0.00791837 0)
(0.198406 0.00879596 0)
(0.199107 0.0088571 0)
(0.199953 0.00931585 0)
(0.200476 0.00911736 0)
(0.201015 0.00764968 0)
(0.201948 0.0074497 0)
(0.202622 0.00706931 0)
(0.202538 0.00676086 0)
(0.202494 0.00648174 0)
(0.202613 0.00620497 0)
(0.202615 0.00617352 0)
(0.202523 0.00600126 0)
(0.202525 0.00578471 0)
(0.202699 0.00524821 0)
(0.202759 0.00490597 0)
(0.202662 0.00480141 0)
(0.202571 0.00479516 0)
(0.202495 0.00470954 0)
(0.202465 0.00456785 0)
(0.202479 0.00446776 0)
(0.20245 0.0043946 0)
(0.202358 0.00425126 0)
(0.202262 0.00417202 0)
(0.202211 0.00406574 0)
(0.202175 0.00397758 0)
(0.202113 0.00390224 0)
(0.202023 0.0038008 0)
(0.201907 0.00372844 0)
(0.201778 0.00368605 0)
(0.201624 0.00360247 0)
(0.201433 0.00356073 0)
(0.201229 0.00348407 0)
(0.20105 0.00334701 0)
(0.200901 0.00328493 0)
(0.200741 0.00325274 0)
(0.200534 0.00319507 0)
(0.200309 0.00313122 0)
(0.20008 0.00309031 0)
(0.199818 0.00299916 0)
(0.199559 0.00291846 0)
(0.199337 0.0029434 0)
(0.199066 0.0029542 0)
(0.19868 0.00286072 0)
(0.198258 0.0027799 0)
(0.19787 0.00271475 0)
(0.197512 0.00263366 0)
(0.197166 0.00261675 0)
(0.196784 0.00259779 0)
(0.196353 0.0025245 0)
(0.195903 0.00247961 0)
(0.195453 0.0024283 0)
(0.195014 0.00236179 0)
(0.194578 0.00234977 0)
(0.194113 0.00233068 0)
(0.1936 0.00228033 0)
(0.193064 0.00222774 0)
(0.192531 0.00217482 0)
(0.19201 0.0021299 0)
(0.191492 0.00210242 0)
(0.190957 0.00206934 0)
(0.190392 0.00203532 0)
(0.189811 0.00199102 0)
(0.189237 0.00193685 0)
(0.188676 0.00190363 0)
(0.188109 0.0018905 0)
(0.187518 0.00186158 0)
(0.186898 0.00183007 0)
(0.18626 0.00179681 0)
(0.185616 0.00175783 0)
(0.184977 0.00171715 0)
(0.184345 0.00168824 0)
(0.183713 0.00165993 0)
(0.183076 0.00163338 0)
(0.182439 0.00159803 0)
(0.181798 0.0015799 0)
(0.181146 0.00155359 0)
(0.180482 0.00151923 0)
(0.179818 0.00148769 0)
(0.179158 0.00146556 0)
(0.1785 0.00144158 0)
(0.177831 0.00142355 0)
(0.177149 0.00139962 0)
(0.176457 0.00137878 0)
(0.175766 0.00134469 0)
(0.17508 0.00132476 0)
(0.174403 0.00130185 0)
(0.173729 0.00128337 0)
(0.17305 0.0012676 0)
(0.172358 0.00125989 0)
(0.171649 0.0012333 0)
(0.170957 0.00120672 0)
(0.170252 0.00117862 0)
(0.169616 0.00117881 0)
(0.168827 0.00115686 0)
(0.168368 0.00116009 0)
(0.167175 0.00114051 0)
(0.196344 0.00531453 0)
(0.196871 0.00682119 0)
(0.197288 0.00718924 0)
(0.197979 0.00818787 0)
(0.198427 0.00791125 0)
(0.19894 0.00876092 0)
(0.199877 0.00900112 0)
(0.200507 0.00840916 0)
(0.201044 0.0075898 0)
(0.201884 0.00720428 0)
(0.202255 0.00674784 0)
(0.202184 0.00672856 0)
(0.202225 0.0064251 0)
(0.20232 0.00609139 0)
(0.20233 0.00606459 0)
(0.202357 0.00590344 0)
(0.202564 0.0055708 0)
(0.20278 0.00523131 0)
(0.202713 0.00502463 0)
(0.202525 0.0048509 0)
(0.20243 0.00483803 0)
(0.202406 0.00473868 0)
(0.202425 0.00455666 0)
(0.202465 0.00449593 0)
(0.20244 0.00434423 0)
(0.20237 0.00431051 0)
(0.202324 0.00419156 0)
(0.202311 0.00404955 0)
(0.2023 0.00398005 0)
(0.202285 0.00393025 0)
(0.202267 0.00382849 0)
(0.202226 0.00374906 0)
(0.202146 0.00374461 0)
(0.202054 0.00371767 0)
(0.201974 0.00361387 0)
(0.201901 0.00351471 0)
(0.20185 0.00336862 0)
(0.201824 0.00329949 0)
(0.201777 0.00328664 0)
(0.201682 0.00323625 0)
(0.201591 0.0031768 0)
(0.201523 0.00316789 0)
(0.201432 0.00309053 0)
(0.20135 0.00294874 0)
(0.201311 0.00297423 0)
(0.201216 0.00306725 0)
(0.201013 0.00299515 0)
(0.200797 0.00290584 0)
(0.200621 0.00282891 0)
(0.200471 0.00273318 0)
(0.200337 0.00272507 0)
(0.200173 0.0027185 0)
(0.199968 0.00265227 0)
(0.199748 0.00261682 0)
(0.199521 0.00256581 0)
(0.199308 0.00249149 0)
(0.199113 0.00248474 0)
(0.198894 0.00247957 0)
(0.198629 0.00244331 0)
(0.198333 0.00239864 0)
(0.198029 0.00234289 0)
(0.197738 0.00229204 0)
(0.197462 0.00226642 0)
(0.197176 0.00224032 0)
(0.196859 0.0022173 0)
(0.196517 0.00217631 0)
(0.196173 0.00211632 0)
(0.195848 0.00208043 0)
(0.195528 0.00207112 0)
(0.195187 0.0020506 0)
(0.194814 0.00203119 0)
(0.194411 0.00200568 0)
(0.193988 0.00196834 0)
(0.193561 0.00192456 0)
(0.193141 0.00189276 0)
(0.192721 0.00186345 0)
(0.192295 0.00183745 0)
(0.19187 0.00179968 0)
(0.191444 0.00178652 0)
(0.191006 0.00176376 0)
(0.190549 0.00173144 0)
(0.190082 0.00169863 0)
(0.189614 0.001676 0)
(0.189149 0.00165039 0)
(0.188676 0.00163725 0)
(0.188188 0.00161581 0)
(0.187677 0.00160129 0)
(0.187152 0.00156289 0)
(0.186624 0.00154318 0)
(0.186104 0.0015128 0)
(0.185593 0.00149518 0)
(0.185083 0.00147901 0)
(0.184553 0.00148123 0)
(0.183993 0.00145018 0)
(0.183435 0.00142619 0)
(0.182869 0.0013849 0)
(0.182365 0.00139462 0)
(0.181735 0.00136487 0)
(0.181374 0.0013792 0)
(0.180398 0.00135159 0)
(0.197067 0.00632096 0)
(0.197104 0.00631399 0)
(0.197344 0.0067695 0)
(0.198145 0.00740415 0)
(0.198604 0.00762193 0)
(0.198839 0.00833038 0)
(0.199733 0.00884936 0)
(0.200723 0.00808089 0)
(0.201215 0.00697637 0)
(0.201511 0.00663588 0)
(0.201868 0.00670113 0)
(0.20193 0.00661889 0)
(0.201975 0.00631043 0)
(0.202126 0.00606742 0)
(0.202193 0.00607331 0)
(0.202269 0.00588302 0)
(0.202524 0.00552497 0)
(0.202674 0.00524395 0)
(0.202552 0.00505576 0)
(0.202365 0.00494823 0)
(0.202297 0.00488184 0)
(0.202305 0.004749 0)
(0.202369 0.00452026 0)
(0.202399 0.00446082 0)
(0.202355 0.00440592 0)
(0.202308 0.0043411 0)
(0.202296 0.00418335 0)
(0.202282 0.00408653 0)
(0.202261 0.00402595 0)
(0.202259 0.00387811 0)
(0.202265 0.00382381 0)
(0.202233 0.00379527 0)
(0.202148 0.00377365 0)
(0.202076 0.00364874 0)
(0.202027 0.00367926 0)
(0.202001 0.00355586 0)
(0.202006 0.00337758 0)
(0.202 0.00332871 0)
(0.201966 0.00334033 0)
(0.201898 0.0032784 0)
(0.20186 0.00318136 0)
(0.201864 0.00318532 0)
(0.20184 0.00309132 0)
(0.201814 0.00298671 0)
(0.201844 0.00298496 0)
(0.201797 0.00305928 0)
(0.201647 0.00307589 0)
(0.201544 0.00296567 0)
(0.201496 0.00285216 0)
(0.201455 0.00275531 0)
(0.201419 0.00276337 0)
(0.201345 0.00275804 0)
(0.201247 0.00271638 0)
(0.201155 0.00268903 0)
(0.201057 0.0026184 0)
(0.20097 0.00254182 0)
(0.200904 0.0025422 0)
(0.200819 0.00254418 0)
(0.200698 0.00252529 0)
(0.200554 0.00249629 0)
(0.200401 0.00243216 0)
(0.200257 0.00236955 0)
(0.200134 0.00234882 0)
(0.200009 0.00232578 0)
(0.199862 0.00231135 0)
(0.199687 0.00228001 0)
(0.199507 0.00221522 0)
(0.199347 0.00217295 0)
(0.199201 0.00216439 0)
(0.199044 0.00215137 0)
(0.198862 0.00214526 0)
(0.19865 0.00213039 0)
(0.19841 0.00209766 0)
(0.198162 0.00205416 0)
(0.197919 0.00202139 0)
(0.197677 0.00199231 0)
(0.197426 0.00196739 0)
(0.197178 0.00192541 0)
(0.196935 0.0019145 0)
(0.196687 0.00189665 0)
(0.196422 0.001871 0)
(0.196142 0.00183985 0)
(0.195855 0.00181726 0)
(0.195571 0.00178941 0)
(0.195285 0.00178077 0)
(0.194989 0.00176456 0)
(0.194667 0.00176033 0)
(0.194322 0.00172199 0)
(0.193963 0.00170512 0)
(0.193605 0.00166828 0)
(0.19326 0.00164742 0)
(0.192928 0.00163267 0)
(0.192578 0.00164698 0)
(0.19219 0.0016179 0)
(0.191788 0.00159656 0)
(0.191381 0.00154622 0)
(0.191026 0.00155904 0)
(0.19058 0.00152721 0)
(0.190334 0.00154858 0)
(0.189628 0.00152025 0)
(0.197267 0.00606284 0)
(0.197408 0.00585428 0)
(0.197687 0.00610722 0)
(0.198341 0.0080221 0)
(0.198775 0.00721666 0)
(0.198882 0.00749095 0)
(0.19972 0.00845018 0)
(0.200873 0.00751801 0)
(0.20103 0.00684187 0)
(0.201179 0.00660712 0)
(0.20163 0.00654461 0)
(0.201719 0.00661716 0)
(0.201764 0.00623179 0)
(0.201952 0.00635191 0)
(0.202112 0.00589864 0)
(0.202192 0.00555488 0)
(0.202377 0.00537336 0)
(0.202484 0.00524999 0)
(0.202379 0.00514128 0)
(0.202233 0.0050005 0)
(0.202189 0.00488105 0)
(0.202235 0.00471315 0)
(0.202316 0.00443953 0)
(0.2023 0.0045723 0)
(0.20226 0.00438693 0)
(0.202268 0.0042863 0)
(0.202258 0.00424282 0)
(0.202221 0.0040922 0)
(0.202198 0.00396009 0)
(0.202198 0.00391888 0)
(0.202195 0.00388755 0)
(0.20215 0.00380788 0)
(0.202094 0.00377929 0)
(0.20207 0.00377805 0)
(0.20203 0.00368791 0)
(0.201987 0.0034957 0)
(0.201987 0.00339974 0)
(0.201989 0.00333855 0)
(0.201971 0.00333359 0)
(0.201922 0.00329982 0)
(0.201887 0.00318184 0)
(0.201892 0.00318053 0)
(0.20189 0.00313801 0)
(0.201886 0.0029404 0)
(0.201877 0.00298942 0)
(0.201808 0.0032785 0)
(0.201746 0.00299548 0)
(0.201745 0.00294028 0)
(0.201717 0.00287728 0)
(0.201688 0.00276015 0)
(0.201673 0.00280346 0)
(0.20163 0.0027857 0)
(0.201588 0.00271854 0)
(0.201559 0.00272366 0)
(0.201514 0.00264137 0)
(0.201478 0.00254449 0)
(0.201457 0.00256171 0)
(0.201424 0.00257187 0)
(0.201371 0.00255133 0)
(0.201303 0.00254041 0)
(0.201226 0.00248224 0)
(0.20116 0.00240161 0)
(0.201115 0.00238105 0)
(0.201071 0.00236404 0)
(0.201012 0.00235451 0)
(0.20093 0.00232743 0)
(0.200839 0.00226225 0)
(0.200766 0.00221466 0)
(0.200713 0.00220103 0)
(0.200659 0.00219246 0)
(0.20059 0.0021992 0)
(0.200497 0.00219592 0)
(0.200377 0.00216958 0)
(0.200247 0.00212626 0)
(0.200124 0.00209141 0)
(0.200004 0.00206327 0)
(0.199872 0.00203876 0)
(0.199741 0.00199515 0)
(0.19962 0.00198363 0)
(0.199499 0.00196369 0)
(0.19937 0.00194483 0)
(0.19923 0.00192025 0)
(0.19908 0.00189908 0)
(0.19893 0.00186873 0)
(0.198784 0.00186103 0)
(0.198632 0.00184881 0)
(0.198461 0.00185687 0)
(0.198267 0.00182445 0)
(0.198054 0.00181199 0)
(0.197834 0.00177127 0)
(0.197626 0.00174284 0)
(0.197438 0.00172731 0)
(0.197242 0.00175247 0)
(0.197005 0.00173483 0)
(0.196743 0.00171352 0)
(0.196479 0.00165885 0)
(0.196258 0.00166919 0)
(0.19598 0.0016372 0)
(0.195835 0.00166161 0)
(0.195389 0.00163889 0)
(0.197432 0.00609255 0)
(0.19768 0.00543734 0)
(0.197872 0.00634711 0)
(0.198685 0.00696675 0)
(0.198798 0.00702729 0)
(0.198855 0.00754978 0)
(0.200168 0.00747711 0)
(0.200868 0.00701005 0)
(0.200621 0.00678057 0)
(0.200815 0.00653761 0)
(0.201523 0.00642427 0)
(0.201652 0.00643093 0)
(0.201587 0.00634307 0)
(0.201708 0.00604864 0)
(0.201947 0.00586342 0)
(0.202149 0.00553231 0)
(0.202291 0.00532159 0)
(0.202287 0.00528849 0)
(0.202179 0.0052071 0)
(0.202091 0.005068 0)
(0.202103 0.00492833 0)
(0.202212 0.00461214 0)
(0.202255 0.00455134 0)
(0.2022 0.00445982 0)
(0.202188 0.00438744 0)
(0.202203 0.00435283 0)
(0.202184 0.00429522 0)
(0.202177 0.00405587 0)
(0.202157 0.00401428 0)
(0.202119 0.00393408 0)
(0.202098 0.00386477 0)
(0.202064 0.00382065 0)
(0.202032 0.00382688 0)
(0.202019 0.00377626 0)
(0.202011 0.00367915 0)
(0.201985 0.00356653 0)
(0.201945 0.00337345 0)
(0.20195 0.00331711 0)
(0.201945 0.00335202 0)
(0.201895 0.00334726 0)
(0.201867 0.00318564 0)
(0.201867 0.003178 0)
(0.201854 0.00308878 0)
(0.201847 0.0030108 0)
(0.201815 0.0030055 0)
(0.201758 0.00309303 0)
(0.201754 0.00311157 0)
(0.201753 0.00304382 0)
(0.201723 0.00288935 0)
(0.201711 0.00275753 0)
(0.201704 0.0028072 0)
(0.201657 0.0027992 0)
(0.201642 0.00275319 0)
(0.201638 0.00273444 0)
(0.201593 0.00268352 0)
(0.201568 0.00257183 0)
(0.201569 0.00255897 0)
(0.201544 0.00258375 0)
(0.20151 0.0025865 0)
(0.201482 0.00255761 0)
(0.201443 0.00250334 0)
(0.201412 0.00241324 0)
(0.201403 0.00238816 0)
(0.20139 0.0023695 0)
(0.201364 0.00237578 0)
(0.201321 0.00236095 0)
(0.201272 0.00228505 0)
(0.201233 0.00222605 0)
(0.201212 0.00220946 0)
(0.2012 0.00220155 0)
(0.201183 0.00221593 0)
(0.20115 0.00222344 0)
(0.201093 0.00220355 0)
(0.201025 0.0021633 0)
(0.200967 0.00212488 0)
(0.200916 0.00210028 0)
(0.200856 0.00207581 0)
(0.200793 0.00202784 0)
(0.200735 0.00202072 0)
(0.200678 0.00199647 0)
(0.200622 0.00197652 0)
(0.200565 0.00195663 0)
(0.200499 0.00193788 0)
(0.200432 0.00190641 0)
(0.200369 0.00189907 0)
(0.200304 0.00188945 0)
(0.200226 0.00190383 0)
(0.200131 0.00187953 0)
(0.200023 0.00187376 0)
(0.199904 0.00183122 0)
(0.19979 0.00179574 0)
(0.1997 0.00178001 0)
(0.199608 0.00180624 0)
(0.199476 0.00180836 0)
(0.199314 0.00179005 0)
(0.199155 0.0017309 0)
(0.199034 0.00173488 0)
(0.198883 0.00170306 0)
(0.198811 0.00172494 0)
(0.198563 0.0017112 0)
(0.197708 0.0047305 0)