/*--------------------------------*- C++ -*----------------------------------*\
| =========                 |                                                 |
| \\      /  F ield         | OpenFOAM: The Open Source CFD Toolbox           |
|  \\    /   O peration     | Version:  2.3.0                                 |
|   \\  /    A nd           | Web:      www.OpenFOAM.org                      |
|    \\/     M anipulation  |                                                 |
\*---------------------------------------------------------------------------*/
FoamFile
{
    version     2.0;
    format      ascii;
    class       surfaceScalarField;
    location    "0.55";
    object      phi_0;
}
// * * * * * * * * * * * * * * * * * * * * * * * * * * * * * * * * * * * * * //

dimensions      [0 3 -1 0 0 0 0];

internalField   nonuniform List<scalar> 
5273
(
3.15604e-08
3.0246e-09
2.8664e-08
2.89645e-09
2.60225e-08
2.64145e-09
2.35248e-08
2.49778e-09
2.11884e-08
2.33635e-09
1.90462e-08
2.14223e-09
1.71141e-08
1.93207e-09
1.53961e-08
1.71797e-09
1.38891e-08
1.50702e-09
1.25843e-08
1.30481e-09
1.14681e-08
1.1162e-09
1.05232e-08
9.44897e-10
9.72996e-09
7.93252e-10
9.06772e-09
6.62233e-10
8.51615e-09
5.51578e-10
8.05612e-09
4.6003e-10
7.67048e-09
3.85637e-10
7.34442e-09
3.26062e-10
7.06556e-09
2.78859e-10
6.82387e-09
2.41684e-10
6.61144e-09
2.12433e-10
6.42213e-09
1.89307e-10
6.2513e-09
1.70839e-10
6.09543e-09
1.55869e-10
5.95192e-09
1.4351e-10
5.81882e-09
1.331e-10
5.69466e-09
1.24158e-10
5.57832e-09
1.16337e-10
5.46893e-09
1.09393e-10
5.36577e-09
1.03153e-10
5.26828e-09
9.74952e-11
5.17595e-09
9.23306e-11
5.08835e-09
8.75943e-11
5.00512e-09
8.32365e-11
4.9259e-09
7.92173e-11
4.8504e-09
7.55034e-11
4.77833e-09
7.20663e-11
4.70945e-09
6.88809e-11
4.64352e-09
6.59245e-11
4.58035e-09
6.31768e-11
4.51973e-09
6.06193e-11
4.46149e-09
5.82353e-11
4.40548e-09
5.60095e-11
4.35156e-09
5.3928e-11
4.29958e-09
5.19784e-11
4.24943e-09
5.01495e-11
4.201e-09
4.84309e-11
4.15418e-09
4.68136e-11
4.10889e-09
4.52893e-11
4.06504e-09
4.38503e-11
4.02255e-09
4.24901e-11
3.98135e-09
4.12025e-11
3.94137e-09
3.99819e-11
3.90255e-09
3.88234e-11
3.86482e-09
3.77223e-11
3.82815e-09
3.66744e-11
3.79247e-09
3.56761e-11
3.75775e-09
3.47238e-11
3.72393e-09
3.38142e-11
3.69099e-09
3.29446e-11
3.65888e-09
3.21121e-11
3.62756e-09
3.13145e-11
3.59701e-09
3.05492e-11
3.5672e-09
2.98143e-11
3.53809e-09
2.91076e-11
3.50967e-09
2.84275e-11
3.48189e-09
2.77721e-11
3.45475e-09
2.71399e-11
3.42822e-09
2.65294e-11
3.40228e-09
2.59392e-11
3.37692e-09
2.53679e-11
3.3521e-09
2.48143e-11
3.32782e-09
2.42773e-11
3.30407e-09
2.37556e-11
3.28082e-09
2.32485e-11
3.25807e-09
2.27546e-11
3.23579e-09
2.22732e-11
3.21399e-09
2.18034e-11
3.19264e-09
2.13444e-11
3.17175e-09
2.08952e-11
3.15129e-09
2.04554e-11
3.13127e-09
2.00242e-11
3.11167e-09
1.9601e-11
3.09248e-09
1.91853e-11
3.07371e-09
1.87766e-11
3.05533e-09
1.83746e-11
3.03735e-09
1.79791e-11
3.01976e-09
1.75899e-11
3.00256e-09
1.7207e-11
2.98573e-09
1.68306e-11
2.96926e-09
1.64613e-11
2.95316e-09
1.60997e-11
2.93742e-09
1.57473e-11
2.92201e-09
1.54069e-11
2.90693e-09
1.50844e-11
2.89213e-09
1.47945e-11
2.87755e-09
1.45835e-11
2.863e-09
1.45504e-11
2.84812e-09
1.48756e-11
4.07401e-11
3.64392e-08
2.45548e-09
3.61717e-08
3.16392e-09
3.55862e-08
3.22695e-09
3.48047e-08
3.27922e-09
3.38657e-08
3.27542e-09
3.28247e-08
3.18316e-09
3.17294e-08
3.02745e-09
3.06138e-08
2.83349e-09
2.95039e-08
2.61694e-09
2.84192e-08
2.38948e-09
2.73742e-08
2.16129e-09
2.63782e-08
1.94081e-09
2.54372e-08
1.73432e-09
2.45535e-08
1.54586e-09
2.37277e-08
1.37746e-09
2.29581e-08
1.22954e-09
2.22425e-08
1.10127e-09
2.15776e-08
9.90984e-10
2.09598e-08
8.96618e-10
2.03856e-08
8.15948e-10
1.98512e-08
7.46828e-10
1.93532e-08
6.87311e-10
1.88883e-08
6.3571e-10
1.84536e-08
5.90613e-10
1.80462e-08
5.50869e-10
1.76637e-08
5.15553e-10
1.7304e-08
4.83935e-10
1.69649e-08
4.55439e-10
1.66447e-08
4.29608e-10
1.63417e-08
4.06083e-10
1.60546e-08
3.84573e-10
1.57821e-08
3.64842e-10
1.5523e-08
3.46693e-10
1.52763e-08
3.29961e-10
1.5041e-08
3.14503e-10
1.48163e-08
3.00197e-10
1.46015e-08
2.86933e-10
1.43957e-08
2.74616e-10
1.41985e-08
2.63158e-10
1.40092e-08
2.52484e-10
1.38273e-08
2.42525e-10
1.36523e-08
2.33217e-10
1.34838e-08
2.24505e-10
1.33214e-08
2.16339e-10
1.31647e-08
2.08672e-10
1.30134e-08
2.01464e-10
1.28671e-08
1.94677e-10
1.27257e-08
1.88279e-10
1.25887e-08
1.82237e-10
1.24561e-08
1.76526e-10
1.23274e-08
1.71119e-10
1.22026e-08
1.65994e-10
1.20815e-08
1.61131e-10
1.19638e-08
1.56509e-10
1.18494e-08
1.52113e-10
1.17382e-08
1.47926e-10
1.16299e-08
1.43934e-10
1.15245e-08
1.40123e-10
1.14218e-08
1.36481e-10
1.13218e-08
1.32997e-10
1.12242e-08
1.29661e-10
1.11291e-08
1.26462e-10
1.10362e-08
1.23392e-10
1.09456e-08
1.20442e-10
1.08571e-08
1.17605e-10
1.07707e-08
1.14873e-10
1.06862e-08
1.12239e-10
1.06036e-08
1.09697e-10
1.05229e-08
1.07242e-10
1.0444e-08
1.04867e-10
1.03668e-08
1.02566e-10
1.02913e-08
1.00336e-10
1.02174e-08
9.81709e-11
1.01451e-08
9.60662e-11
1.00743e-08
9.40176e-11
1.0005e-08
9.20211e-11
9.93725e-09
9.00724e-11
9.87088e-09
8.81681e-11
9.80592e-09
8.63044e-11
9.74234e-09
8.44777e-11
9.68011e-09
8.26851e-11
9.61921e-09
8.09234e-11
9.55962e-09
7.91896e-11
9.50133e-09
7.74813e-11
9.44431e-09
7.57961e-11
9.38855e-09
7.41319e-11
9.33404e-09
7.24871e-11
9.28077e-09
7.08603e-11
9.22873e-09
6.92509e-11
9.1779e-09
6.76586e-11
9.12828e-09
6.60844e-11
9.07985e-09
6.453e-11
9.03259e-09
6.29996e-11
8.9865e-09
6.15017e-11
8.94153e-09
6.00547e-11
8.89762e-09
5.87068e-11
8.85461e-09
5.7594e-11
8.81203e-09
5.71224e-11
8.76553e-09
6.13817e-11
1.01884e-10
3.78827e-08
1.77558e-09
3.83056e-08
2.74105e-09
3.84799e-08
3.05258e-09
3.85167e-08
3.24247e-09
3.84221e-08
3.37e-09
3.82036e-08
3.40163e-09
3.78814e-08
3.34971e-09
3.74757e-08
3.23911e-09
3.70049e-08
3.0878e-09
3.64852e-08
2.90916e-09
3.59314e-08
2.71513e-09
3.53559e-08
2.51624e-09
3.47693e-08
2.32097e-09
3.41797e-08
2.13548e-09
3.35934e-08
1.96374e-09
3.30151e-08
1.80783e-09
3.24481e-08
1.6683e-09
3.18945e-08
1.54459e-09
3.13556e-08
1.43545e-09
3.08323e-08
1.33927e-09
3.03248e-08
1.25432e-09
2.98332e-08
1.17896e-09
2.93572e-08
1.11168e-09
2.88966e-08
1.05118e-09
2.84511e-08
9.96393e-10
2.80202e-08
9.46434e-10
2.76036e-08
9.00597e-10
2.72007e-08
8.58321e-10
2.68111e-08
8.19157e-10
2.64345e-08
7.82747e-10
2.60703e-08
7.48804e-10
2.5718e-08
7.17088e-10
2.53773e-08
6.874e-10
2.50477e-08
6.5957e-10
2.47287e-08
6.3345e-10
2.442e-08
6.08907e-10
2.41211e-08
5.85825e-10
2.38317e-08
5.64097e-10
2.35512e-08
5.43624e-10
2.32794e-08
5.24317e-10
2.30158e-08
5.06094e-10
2.27601e-08
4.88879e-10
2.2512e-08
4.72602e-10
2.22712e-08
4.57197e-10
2.20372e-08
4.42606e-10
2.18099e-08
4.28772e-10
2.1589e-08
4.15645e-10
2.13741e-08
4.03177e-10
2.1165e-08
3.91325e-10
2.09615e-08
3.80047e-10
2.07633e-08
3.69307e-10
2.05702e-08
3.5907e-10
2.0382e-08
3.49303e-10
2.01986e-08
3.39976e-10
2.00196e-08
3.31062e-10
1.9845e-08
3.22536e-10
1.96746e-08
3.14372e-10
1.95081e-08
3.06549e-10
1.93456e-08
2.99045e-10
1.91867e-08
2.91842e-10
1.90315e-08
2.8492e-10
1.88797e-08
2.78264e-10
1.87312e-08
2.71856e-10
1.8586e-08
2.65681e-10
1.84438e-08
2.59726e-10
1.83047e-08
2.53977e-10
1.81686e-08
2.48422e-10
1.80352e-08
2.43048e-10
1.79046e-08
2.37843e-10
1.77767e-08
2.32798e-10
1.76513e-08
2.27901e-10
1.75285e-08
2.23143e-10
1.74082e-08
2.18514e-10
1.72902e-08
2.14005e-10
1.71747e-08
2.09607e-10
1.70614e-08
2.05312e-10
1.69503e-08
2.01111e-10
1.68415e-08
1.96997e-10
1.67348e-08
1.92962e-10
1.66303e-08
1.88998e-10
1.65279e-08
1.85099e-10
1.64276e-08
1.81257e-10
1.63293e-08
1.77467e-10
1.62331e-08
1.73722e-10
1.61388e-08
1.70017e-10
1.60466e-08
1.66347e-10
1.59564e-08
1.62706e-10
1.58682e-08
1.59093e-10
1.57819e-08
1.55504e-10
1.56976e-08
1.51938e-10
1.56153e-08
1.48395e-10
1.5535e-08
1.44878e-10
1.54566e-08
1.41393e-10
1.53801e-08
1.37956e-10
1.53056e-08
1.34602e-10
1.52329e-08
1.31419e-10
1.51618e-08
1.2867e-10
1.50916e-08
1.27351e-10
1.50187e-08
1.3427e-10
1.74623e-10
3.90452e-08
1.31546e-09
3.95339e-08
2.25232e-09
3.98916e-08
2.69487e-09
4.0177e-08
2.9571e-09
4.03998e-08
3.14718e-09
4.05487e-08
3.25277e-09
4.06223e-08
3.27606e-09
4.06255e-08
3.23598e-09
4.0564e-08
3.14926e-09
4.04447e-08
3.02844e-09
4.02752e-08
2.8846e-09
4.00636e-08
2.7279e-09
3.98175e-08
2.56703e-09
3.95442e-08
2.40876e-09
3.92501e-08
2.25793e-09
3.89403e-08
2.11756e-09
3.86194e-08
1.98918e-09
3.82909e-08
1.87312e-09
3.79574e-08
1.76893e-09
3.7621e-08
1.67564e-09
3.72833e-08
1.59203e-09
3.69455e-08
1.51682e-09
3.66084e-08
1.4488e-09
3.62727e-08
1.38687e-09
3.5939e-08
1.33009e-09
3.56077e-08
1.27768e-09
3.52793e-08
1.22902e-09
3.4954e-08
1.18359e-09
3.46322e-08
1.14099e-09
3.4314e-08
1.1009e-09
3.39998e-08
1.06306e-09
3.36896e-08
1.02726e-09
3.33837e-08
9.93339e-10
3.30821e-08
9.61145e-10
3.2785e-08
9.30557e-10
3.24924e-08
9.01466e-10
3.22045e-08
8.73776e-10
3.19212e-08
8.474e-10
3.16425e-08
8.22258e-10
3.13686e-08
7.98276e-10
3.10993e-08
7.75387e-10
3.08347e-08
7.53526e-10
3.05746e-08
7.32635e-10
3.03192e-08
7.12659e-10
3.00682e-08
6.93546e-10
2.98217e-08
6.75248e-10
2.95797e-08
6.57719e-10
2.93419e-08
6.40917e-10
2.91084e-08
6.24802e-10
2.88792e-08
6.09337e-10
2.8654e-08
5.94486e-10
2.84328e-08
5.80216e-10
2.82156e-08
5.66497e-10
2.80023e-08
5.53299e-10
2.77928e-08
5.40594e-10
2.7587e-08
5.28357e-10
2.73848e-08
5.16562e-10
2.71861e-08
5.05186e-10
2.6991e-08
4.94208e-10
2.67992e-08
4.83605e-10
2.66108e-08
4.73359e-10
2.64256e-08
4.6345e-10
2.62436e-08
4.53859e-10
2.60647e-08
4.44571e-10
2.58888e-08
4.35568e-10
2.5716e-08
4.26834e-10
2.55461e-08
4.18355e-10
2.5379e-08
4.10115e-10
2.52147e-08
4.021e-10
2.50532e-08
3.94297e-10
2.48944e-08
3.86692e-10
2.47383e-08
3.79272e-10
2.45848e-08
3.72025e-10
2.44339e-08
3.64938e-10
2.42855e-08
3.58e-10
2.41396e-08
3.51198e-10
2.39962e-08
3.44521e-10
2.38552e-08
3.37957e-10
2.37167e-08
3.31496e-10
2.35806e-08
3.25126e-10
2.34468e-08
3.18837e-10
2.33155e-08
3.12619e-10
2.31865e-08
3.06461e-10
2.30598e-08
3.00354e-10
2.29356e-08
2.94289e-10
2.28137e-08
2.88257e-10
2.26941e-08
2.82252e-10
2.25769e-08
2.76267e-10
2.24621e-08
2.70296e-10
2.23497e-08
2.64338e-10
2.22397e-08
2.58391e-10
2.21322e-08
2.52459e-10
2.2027e-08
2.4655e-10
2.19243e-08
2.40686e-10
2.1824e-08
2.34918e-10
2.1726e-08
2.29376e-10
2.16302e-08
2.24451e-10
2.1536e-08
2.2162e-10
2.14424e-08
2.27791e-10
2.58001e-10
4.03208e-08
1.01333e-09
4.07301e-08
1.84309e-09
4.10905e-08
2.33443e-09
4.14117e-08
2.63587e-09
4.17071e-08
2.85182e-09
4.19672e-08
2.99264e-09
4.21844e-08
3.05886e-09
4.23566e-08
3.06383e-09
4.24836e-08
3.02224e-09
4.25664e-08
2.94557e-09
4.26075e-08
2.84358e-09
4.26101e-08
2.72527e-09
4.25785e-08
2.5986e-09
4.25172e-08
2.47004e-09
4.24307e-08
2.34449e-09
4.2323e-08
2.22528e-09
4.21977e-08
2.11441e-09
4.20581e-08
2.01279e-09
4.19065e-08
1.92049e-09
4.17451e-08
1.83704e-09
4.15755e-08
1.76166e-09
4.13989e-08
1.69341e-09
4.12163e-08
1.63135e-09
4.10286e-08
1.57457e-09
4.08364e-08
1.5223e-09
4.06403e-08
1.47384e-09
4.04406e-08
1.42865e-09
4.0238e-08
1.38626e-09
4.00327e-08
1.34631e-09
3.98251e-08
1.3085e-09
3.96155e-08
1.27261e-09
3.94043e-08
1.23845e-09
3.91918e-08
1.20586e-09
3.89782e-08
1.17472e-09
3.87639e-08
1.14493e-09
3.85489e-08
1.11639e-09
3.83337e-08
1.08902e-09
3.81183e-08
1.06276e-09
3.79031e-08
1.03753e-09
3.76881e-08
1.01329e-09
3.74735e-08
9.89966e-10
3.72595e-08
9.67522e-10
3.70462e-08
9.45908e-10
3.68338e-08
9.25081e-10
3.66223e-08
9.04999e-10
3.6412e-08
8.85624e-10
3.62028e-08
8.66922e-10
3.59948e-08
8.48859e-10
3.57882e-08
8.31403e-10
3.5583e-08
8.14525e-10
3.53793e-08
7.98197e-10
3.51771e-08
7.82392e-10
3.49766e-08
7.67086e-10
3.47776e-08
7.52256e-10
3.45803e-08
7.37878e-10
3.43847e-08
7.23931e-10
3.41909e-08
7.10396e-10
3.39988e-08
6.97253e-10
3.38086e-08
6.84484e-10
3.36201e-08
6.7207e-10
3.34335e-08
6.59995e-10
3.32487e-08
6.48242e-10
3.30657e-08
6.36795e-10
3.28847e-08
6.2564e-10
3.27055e-08
6.14761e-10
3.25282e-08
6.04144e-10
3.23527e-08
5.93775e-10
3.21792e-08
5.83639e-10
3.20076e-08
5.73723e-10
3.18379e-08
5.64015e-10
3.16701e-08
5.54499e-10
3.15042e-08
5.45164e-10
3.13402e-08
5.35996e-10
3.11782e-08
5.26981e-10
3.10181e-08
5.18108e-10
3.08599e-08
5.09363e-10
3.07037e-08
5.00733e-10
3.05494e-08
4.92206e-10
3.03972e-08
4.83767e-10
3.02469e-08
4.75404e-10
3.00986e-08
4.67105e-10
2.99524e-08
4.58856e-10
2.98082e-08
4.50646e-10
2.96661e-08
4.42461e-10
2.95261e-08
4.34291e-10
2.93882e-08
4.26125e-10
2.92525e-08
4.17953e-10
2.9119e-08
4.09766e-10
2.89878e-08
4.01558e-10
2.88588e-08
3.93324e-10
2.87321e-08
3.85062e-10
2.86078e-08
3.76777e-10
2.84858e-08
3.68479e-10
2.83663e-08
3.60196e-10
2.82493e-08
3.5199e-10
2.81346e-08
3.44023e-10
2.80223e-08
3.36755e-10
2.79122e-08
3.31736e-10
2.78058e-08
3.34147e-10
3.48512e-10
4.1712e-08
8.06939e-10
4.20332e-08
1.52185e-09
4.2355e-08
2.01269e-09
4.2657e-08
2.33381e-09
4.29466e-08
2.56223e-09
4.3219e-08
2.7203e-09
4.34665e-08
2.81129e-09
4.36856e-08
2.84474e-09
4.38747e-08
2.83314e-09
4.40332e-08
2.78711e-09
4.41613e-08
2.7155e-09
4.42603e-08
2.62628e-09
4.43323e-08
2.52659e-09
4.43799e-08
2.4224e-09
4.4406e-08
2.31837e-09
4.44134e-08
2.21785e-09
4.44048e-08
2.12303e-09
4.43825e-08
2.03509e-09
4.43485e-08
1.95449e-09
4.43045e-08
1.88111e-09
4.42516e-08
1.81448e-09
4.41911e-08
1.75397e-09
4.41236e-08
1.69885e-09
4.40498e-08
1.64839e-09
4.39701e-08
1.60194e-09
4.3885e-08
1.55891e-09
4.37949e-08
1.51881e-09
4.36999e-08
1.48121e-09
4.36004e-08
1.4458e-09
4.34966e-08
1.41229e-09
4.33888e-08
1.38046e-09
4.32771e-08
1.35014e-09
4.31618e-08
1.32118e-09
4.3043e-08
1.29346e-09
4.29211e-08
1.26688e-09
4.27961e-08
1.24137e-09
4.26683e-08
1.21684e-09
4.25378e-08
1.19323e-09
4.24049e-08
1.17048e-09
4.22696e-08
1.14854e-09
4.21322e-08
1.12737e-09
4.19928e-08
1.10691e-09
4.18516e-08
1.08713e-09
4.17087e-08
1.068e-09
4.15642e-08
1.04947e-09
4.14183e-08
1.03151e-09
4.12712e-08
1.0141e-09
4.11228e-08
9.97208e-10
4.09734e-08
9.80803e-10
4.08231e-08
9.64863e-10
4.06719e-08
9.49366e-10
4.052e-08
9.34289e-10
4.03675e-08
9.19611e-10
4.02144e-08
9.05313e-10
4.00609e-08
8.91378e-10
3.99071e-08
8.77787e-10
3.97529e-08
8.64524e-10
3.95986e-08
8.51573e-10
3.94442e-08
8.38919e-10
3.92897e-08
8.26548e-10
3.91353e-08
8.14445e-10
3.89809e-08
8.02596e-10
3.88267e-08
7.9099e-10
3.86727e-08
7.79612e-10
3.8519e-08
7.68451e-10
3.83657e-08
7.57493e-10
3.82127e-08
7.46727e-10
3.80602e-08
7.3614e-10
3.79082e-08
7.2572e-10
3.77568e-08
7.15456e-10
3.7606e-08
7.05334e-10
3.74558e-08
6.95343e-10
3.73063e-08
6.8547e-10
3.71576e-08
6.75702e-10
3.70097e-08
6.66026e-10
3.68626e-08
6.56431e-10
3.67164e-08
6.46901e-10
3.65712e-08
6.37424e-10
3.6427e-08
6.27986e-10
3.62838e-08
6.18573e-10
3.61418e-08
6.09171e-10
3.60009e-08
5.99766e-10
3.58612e-08
5.90344e-10
3.57227e-08
5.80892e-10
3.55856e-08
5.71396e-10
3.54499e-08
5.61843e-10
3.53156e-08
5.52223e-10
3.51829e-08
5.42525e-10
3.50517e-08
5.3274e-10
3.49222e-08
5.22864e-10
3.47943e-08
5.12894e-10
3.46683e-08
5.02835e-10
3.4544e-08
4.92699e-10
3.44217e-08
4.82518e-10
3.43014e-08
4.7236e-10
3.4183e-08
4.62391e-10
3.40667e-08
4.53049e-10
3.39529e-08
4.45546e-10
3.38445e-08
4.42536e-10
4.39729e-10
4.31956e-08
6.59088e-10
4.34465e-08
1.27089e-09
4.37241e-08
1.73514e-09
4.39971e-08
2.06083e-09
4.42638e-08
2.29555e-09
4.45209e-08
2.46319e-09
4.47621e-08
2.57005e-09
4.49834e-08
2.62347e-09
4.51828e-08
2.63369e-09
4.53596e-08
2.61034e-09
4.55136e-08
2.56154e-09
4.56453e-08
2.49452e-09
4.57562e-08
2.41572e-09
4.5848e-08
2.33062e-09
4.59227e-08
2.24362e-09
4.59826e-08
2.15799e-09
4.60296e-08
2.07601e-09
4.60656e-08
1.99906e-09
4.60923e-08
1.92783e-09
4.61109e-08
1.8625e-09
4.61225e-08
1.80285e-09
4.6128e-08
1.74849e-09
4.6128e-08
1.69889e-09
4.61229e-08
1.65349e-09
4.61131e-08
1.61174e-09
4.60988e-08
1.57316e-09
4.60803e-08
1.53731e-09
4.60577e-08
1.50382e-09
4.60311e-08
1.47238e-09
4.60007e-08
1.44273e-09
4.59665e-08
1.41466e-09
4.59286e-08
1.38801e-09
4.58872e-08
1.36263e-09
4.58422e-08
1.3384e-09
4.57939e-08
1.31522e-09
4.57422e-08
1.29301e-09
4.56874e-08
1.2717e-09
4.56294e-08
1.25122e-09
4.55683e-08
1.23151e-09
4.55044e-08
1.21252e-09
4.54375e-08
1.1942e-09
4.53679e-08
1.17652e-09
4.52956e-08
1.15942e-09
4.52207e-08
1.14288e-09
4.51434e-08
1.12686e-09
4.50635e-08
1.11133e-09
4.49814e-08
1.09626e-09
4.4897e-08
1.08163e-09
4.48104e-08
1.06739e-09
4.47217e-08
1.05355e-09
4.4631e-08
1.04006e-09
4.45384e-08
1.02691e-09
4.44439e-08
1.01409e-09
4.43476e-08
1.00157e-09
4.42497e-08
9.89329e-10
4.41501e-08
9.7736e-10
4.4049e-08
9.65644e-10
4.39464e-08
9.54166e-10
4.38424e-08
9.42913e-10
4.37371e-08
9.3187e-10
4.36305e-08
9.21025e-10
4.35227e-08
9.10365e-10
4.34138e-08
8.99878e-10
4.33039e-08
8.89551e-10
4.3193e-08
8.79374e-10
4.30811e-08
8.69334e-10
4.29684e-08
8.59419e-10
4.2855e-08
8.49619e-10
4.27408e-08
8.39921e-10
4.26259e-08
8.30314e-10
4.25104e-08
8.20786e-10
4.23945e-08
8.11325e-10
4.2278e-08
8.01918e-10
4.21612e-08
7.92553e-10
4.2044e-08
7.83217e-10
4.19265e-08
7.73896e-10
4.18088e-08
7.64576e-10
4.1691e-08
7.55244e-10
4.15731e-08
7.45885e-10
4.14552e-08
7.36483e-10
4.13374e-08
7.27025e-10
4.12196e-08
7.17494e-10
4.11021e-08
7.07875e-10
4.09848e-08
6.98154e-10
4.08679e-08
6.88315e-10
4.07514e-08
6.78345e-10
4.06354e-08
6.68229e-10
4.052e-08
6.57958e-10
4.04052e-08
6.47521e-10
4.02911e-08
6.36911e-10
4.01779e-08
6.26128e-10
4.00656e-08
6.15174e-10
3.99542e-08
6.04063e-10
3.98439e-08
5.92826e-10
3.97347e-08
5.8153e-10
3.96268e-08
5.70318e-10
3.95203e-08
5.59512e-10
3.94161e-08
5.49748e-10
3.93174e-08
5.41226e-10
5.2385e-10
4.47577e-08
5.48534e-10
4.49559e-08
1.07267e-09
4.51922e-08
1.49884e-09
4.54357e-08
1.81732e-09
4.56781e-08
2.05316e-09
4.59153e-08
2.226e-09
4.61418e-08
2.34356e-09
4.63533e-08
2.412e-09
4.65475e-08
2.43951e-09
4.67233e-08
2.43449e-09
4.68805e-08
2.40434e-09
4.70195e-08
2.35557e-09
4.71412e-08
2.29402e-09
4.7247e-08
2.22475e-09
4.73388e-08
2.15187e-09
4.74182e-08
2.07856e-09
4.74871e-08
2.00713e-09
4.7547e-08
1.93911e-09
4.75995e-08
1.87538e-09
4.76457e-08
1.81634e-09
4.76865e-08
1.76201e-09
4.77228e-08
1.7122e-09
4.77551e-08
1.66656e-09
4.77839e-08
1.6247e-09
4.78095e-08
1.58618e-09
4.7832e-08
1.5506e-09
4.78518e-08
1.51761e-09
4.78687e-08
1.48687e-09
4.7883e-08
1.45812e-09
4.78946e-08
1.43111e-09
4.79036e-08
1.40565e-09
4.791e-08
1.38158e-09
4.79139e-08
1.35875e-09
4.79152e-08
1.33707e-09
4.7914e-08
1.31642e-09
4.79103e-08
1.29672e-09
4.79041e-08
1.2779e-09
4.78954e-08
1.2599e-09
4.78843e-08
1.24264e-09
4.78707e-08
1.22609e-09
4.78547e-08
1.21019e-09
4.78364e-08
1.1949e-09
4.78156e-08
1.18017e-09
4.77925e-08
1.16598e-09
4.77671e-08
1.15228e-09
4.77394e-08
1.13904e-09
4.77094e-08
1.12623e-09
4.76772e-08
1.11383e-09
4.76428e-08
1.1018e-09
4.76062e-08
1.09013e-09
4.75675e-08
1.07878e-09
4.75267e-08
1.06774e-09
4.74838e-08
1.05699e-09
4.74388e-08
1.0465e-09
4.73919e-08
1.03626e-09
4.7343e-08
1.02625e-09
4.72922e-08
1.01646e-09
4.72395e-08
1.00686e-09
4.7185e-08
9.97448e-10
4.71286e-08
9.88206e-10
4.70706e-08
9.7912e-10
4.70107e-08
9.70176e-10
4.69493e-08
9.61361e-10
4.68861e-08
9.52663e-10
4.68215e-08
9.4407e-10
4.67552e-08
9.35568e-10
4.66875e-08
9.27146e-10
4.66183e-08
9.18792e-10
4.65477e-08
9.10493e-10
4.64758e-08
9.02236e-10
4.64026e-08
8.94009e-10
4.63281e-08
8.85799e-10
4.62525e-08
8.77593e-10
4.61756e-08
8.69376e-10
4.60977e-08
8.61136e-10
4.60187e-08
8.52857e-10
4.59388e-08
8.44525e-10
4.58579e-08
8.36123e-10
4.57762e-08
8.27637e-10
4.56936e-08
8.19049e-10
4.56103e-08
8.10344e-10
4.55263e-08
8.01504e-10
4.54416e-08
7.92513e-10
4.53564e-08
7.83353e-10
4.52707e-08
7.74008e-10
4.51846e-08
7.64462e-10
4.50982e-08
7.547e-10
4.50114e-08
7.4471e-10
4.49244e-08
7.34479e-10
4.48374e-08
7.24002e-10
4.47502e-08
7.13274e-10
4.46631e-08
7.02298e-10
4.45761e-08
6.91088e-10
4.44892e-08
6.79671e-10
4.44026e-08
6.68101e-10
4.43165e-08
6.56478e-10
4.4231e-08
6.44957e-10
4.41472e-08
6.33571e-10
4.40677e-08
6.20714e-10
5.93924e-10
4.63916e-08
4.62962e-10
4.65505e-08
9.13788e-10
4.67508e-08
1.29857e-09
4.69664e-08
1.60173e-09
4.71857e-08
1.83376e-09
4.74035e-08
2.00829e-09
4.76143e-08
2.13276e-09
4.78137e-08
2.2125e-09
4.79992e-08
2.25404e-09
4.81693e-08
2.26443e-09
4.83234e-08
2.25021e-09
4.84617e-08
2.21725e-09
4.8585e-08
2.17079e-09
4.86943e-08
2.11545e-09
4.87911e-08
2.05507e-09
4.88769e-08
1.99269e-09
4.89534e-08
1.93063e-09
4.90221e-08
1.87049e-09
4.90841e-08
1.81331e-09
4.91408e-08
1.75966e-09
4.9193e-08
1.70978e-09
4.92416e-08
1.66365e-09
4.92871e-08
1.62109e-09
4.93299e-08
1.58185e-09
4.93705e-08
1.54561e-09
4.9409e-08
1.51207e-09
4.94457e-08
1.48094e-09
4.94806e-08
1.45195e-09
4.95138e-08
1.42486e-09
4.95455e-08
1.39946e-09
4.95756e-08
1.37558e-09
4.96041e-08
1.35307e-09
4.9631e-08
1.3318e-09
4.96564e-08
1.31167e-09
4.96803e-08
1.29257e-09
4.97026e-08
1.27443e-09
4.97233e-08
1.25718e-09
4.97424e-08
1.24074e-09
4.976e-08
1.22508e-09
4.9776e-08
1.21012e-09
4.97904e-08
1.19582e-09
4.98031e-08
1.18214e-09
4.98142e-08
1.16904e-09
4.98237e-08
1.15648e-09
4.98316e-08
1.14442e-09
4.98378e-08
1.13283e-09
4.98424e-08
1.12168e-09
4.98453e-08
1.11094e-09
4.98465e-08
1.10057e-09
4.98461e-08
1.09057e-09
4.98439e-08
1.08089e-09
4.98402e-08
1.07153e-09
4.98347e-08
1.06245e-09
4.98276e-08
1.05363e-09
4.98188e-08
1.04506e-09
4.98083e-08
1.03672e-09
4.97962e-08
1.02859e-09
4.97824e-08
1.02065e-09
4.97669e-08
1.01289e-09
4.97498e-08
1.00529e-09
4.97311e-08
9.97831e-10
4.97108e-08
9.90506e-10
4.96889e-08
9.83297e-10
4.96653e-08
9.76192e-10
4.96402e-08
9.69176e-10
4.96136e-08
9.62235e-10
4.95854e-08
9.55357e-10
4.95556e-08
9.48527e-10
4.95244e-08
9.41731e-10
4.94917e-08
9.34957e-10
4.94575e-08
9.2819e-10
4.94219e-08
9.21416e-10
4.93848e-08
9.14619e-10
4.93464e-08
9.07786e-10
4.93067e-08
9.00899e-10
4.92656e-08
8.93945e-10
4.92232e-08
8.86905e-10
4.91796e-08
8.79763e-10
4.91347e-08
8.72502e-10
4.90886e-08
8.65103e-10
4.90414e-08
8.57548e-10
4.89931e-08
8.49818e-10
4.89437e-08
8.41895e-10
4.88933e-08
8.3376e-10
4.88419e-08
8.25393e-10
4.87896e-08
8.16779e-10
4.87364e-08
8.079e-10
4.86824e-08
7.98741e-10
4.86276e-08
7.8929e-10
4.8572e-08
7.79538e-10
4.85158e-08
7.69481e-10
4.8459e-08
7.59119e-10
4.84016e-08
7.48463e-10
4.83438e-08
7.37536e-10
4.82855e-08
7.26373e-10
4.8227e-08
7.1502e-10
4.81685e-08
7.03466e-10
4.81107e-08
6.91283e-10
4.80555e-08
6.75934e-10
6.45562e-10
4.80946e-08
3.94902e-10
4.82239e-08
7.84474e-10
4.83937e-08
1.12876e-09
4.85836e-08
1.41184e-09
4.87815e-08
1.63588e-09
4.89808e-08
1.80898e-09
4.91764e-08
1.93719e-09
4.93638e-08
2.02506e-09
4.95401e-08
2.07774e-09
4.97035e-08
2.10101e-09
4.98532e-08
2.10051e-09
4.99891e-08
2.08142e-09
5.01114e-08
2.04842e-09
5.02212e-08
2.00567e-09
5.03196e-08
1.95672e-09
5.04078e-08
1.90445e-09
5.04873e-08
1.85112e-09
5.05594e-08
1.79839e-09
5.06253e-08
1.74739e-09
5.06862e-08
1.69883e-09
5.07428e-08
1.65312e-09
5.07961e-08
1.61039e-09
5.08466e-08
1.57061e-09
5.08948e-08
1.53366e-09
5.0941e-08
1.49933e-09
5.09857e-08
1.46742e-09
5.10289e-08
1.43771e-09
5.10709e-08
1.40997e-09
5.11117e-08
1.38401e-09
5.11515e-08
1.35967e-09
5.11903e-08
1.33679e-09
5.12281e-08
1.31524e-09
5.1265e-08
1.2949e-09
5.1301e-08
1.27567e-09
5.13361e-08
1.25748e-09
5.13703e-08
1.24024e-09
5.14036e-08
1.22388e-09
5.1436e-08
1.20834e-09
5.14675e-08
1.19358e-09
5.14981e-08
1.17953e-09
5.15278e-08
1.16616e-09
5.15565e-08
1.15341e-09
5.15843e-08
1.14126e-09
5.16111e-08
1.12966e-09
5.16369e-08
1.11857e-09
5.16618e-08
1.10798e-09
5.16856e-08
1.09783e-09
5.17085e-08
1.08811e-09
5.17303e-08
1.07879e-09
5.1751e-08
1.06984e-09
5.17706e-08
1.06123e-09
5.17892e-08
1.05295e-09
5.18067e-08
1.04497e-09
5.18231e-08
1.03727e-09
5.18383e-08
1.02983e-09
5.18524e-08
1.02263e-09
5.18653e-08
1.01565e-09
5.18771e-08
1.00888e-09
5.18877e-08
1.00229e-09
5.18971e-08
9.95873e-10
5.19053e-08
9.89612e-10
5.19123e-08
9.83491e-10
5.19182e-08
9.77494e-10
5.19227e-08
9.71607e-10
5.19261e-08
9.65814e-10
5.19282e-08
9.60102e-10
5.19291e-08
9.54455e-10
5.19288e-08
9.4886e-10
5.19272e-08
9.43301e-10
5.19244e-08
9.37764e-10
5.19204e-08
9.32233e-10
5.19151e-08
9.26693e-10
5.19086e-08
9.21128e-10
5.19009e-08
9.15522e-10
5.18919e-08
9.09859e-10
5.18817e-08
9.0412e-10
5.18703e-08
8.98289e-10
5.18578e-08
8.92346e-10
5.1844e-08
8.86273e-10
5.1829e-08
8.80051e-10
5.18129e-08
8.7366e-10
5.17957e-08
8.67079e-10
5.17773e-08
8.60288e-10
5.17578e-08
8.53267e-10
5.17372e-08
8.45997e-10
5.17155e-08
8.38458e-10
5.16928e-08
8.30633e-10
5.1669e-08
8.22504e-10
5.16442e-08
8.14059e-10
5.16185e-08
8.05287e-10
5.15918e-08
7.96182e-10
5.15641e-08
7.86745e-10
5.15356e-08
7.76983e-10
5.15063e-08
7.6691e-10
5.14761e-08
7.56544e-10
5.14452e-08
7.45882e-10
5.14139e-08
7.34786e-10
5.13826e-08
7.22583e-10
5.13519e-08
7.0661e-10
6.77551e-10
4.98663e-08
3.39593e-10
4.9973e-08
6.77725e-10
5.01175e-08
9.84289e-10
5.02842e-08
1.24508e-09
5.04621e-08
1.458e-09
5.06441e-08
1.62697e-09
5.08251e-08
1.75622e-09
5.10007e-08
1.84942e-09
5.11679e-08
1.9106e-09
5.13245e-08
1.94439e-09
5.14695e-08
1.95554e-09
5.16024e-08
1.94852e-09
5.17233e-08
1.92748e-09
5.18329e-08
1.89612e-09
5.19319e-08
1.85767e-09
5.20216e-08
1.81484e-09
5.21029e-08
1.76978e-09
5.21771e-08
1.72415e-09
5.22454e-08
1.67916e-09
5.23086e-08
1.63562e-09
5.23677e-08
1.59404e-09
5.24234e-08
1.5547e-09
5.24763e-08
1.5177e-09
5.25269e-08
1.48302e-09
5.25757e-08
1.45057e-09
5.26229e-08
1.42022e-09
5.26688e-08
1.39181e-09
5.27135e-08
1.3652e-09
5.27573e-08
1.34022e-09
5.28003e-08
1.31675e-09
5.28424e-08
1.29464e-09
5.28838e-08
1.2738e-09
5.29246e-08
1.25413e-09
5.29648e-08
1.23552e-09
5.30043e-08
1.21792e-09
5.30433e-08
1.20124e-09
5.30817e-08
1.18544e-09
5.31196e-08
1.17044e-09
5.3157e-08
1.15621e-09
5.31939e-08
1.14269e-09
5.32302e-08
1.12984e-09
5.3266e-08
1.11762e-09
5.33012e-08
1.10599e-09
5.3336e-08
1.09492e-09
5.33702e-08
1.08438e-09
5.34038e-08
1.07433e-09
5.34369e-08
1.06474e-09
5.34694e-08
1.05558e-09
5.35014e-08
1.04684e-09
5.35328e-08
1.03847e-09
5.35635e-08
1.03047e-09
5.35937e-08
1.0228e-09
5.36232e-08
1.01544e-09
5.36521e-08
1.00838e-09
5.36803e-08
1.0016e-09
5.37079e-08
9.95062e-10
5.37348e-08
9.88765e-10
5.3761e-08
9.82686e-10
5.37864e-08
9.76809e-10
5.38112e-08
9.71117e-10
5.38352e-08
9.65595e-10
5.38585e-08
9.60225e-10
5.3881e-08
9.54994e-10
5.39027e-08
9.49885e-10
5.39236e-08
9.44885e-10
5.39438e-08
9.39977e-10
5.39631e-08
9.35148e-10
5.39815e-08
9.30382e-10
5.39992e-08
9.25665e-10
5.4016e-08
9.2098e-10
5.40319e-08
9.16312e-10
5.40469e-08
9.11646e-10
5.40611e-08
9.06966e-10
5.40744e-08
9.02253e-10
5.40867e-08
8.97492e-10
5.40982e-08
8.92663e-10
5.41087e-08
8.8775e-10
5.41183e-08
8.82732e-10
5.4127e-08
8.77591e-10
5.41348e-08
8.72306e-10
5.41416e-08
8.66856e-10
5.41474e-08
8.61222e-10
5.41523e-08
8.55382e-10
5.41563e-08
8.49315e-10
5.41593e-08
8.43001e-10
5.41613e-08
8.3642e-10
5.41624e-08
8.29553e-10
5.41625e-08
8.22384e-10
5.41617e-08
8.14899e-10
5.41599e-08
8.07087e-10
5.41571e-08
7.98941e-10
5.41534e-08
7.90461e-10
5.41487e-08
7.81651e-10
5.41431e-08
7.7252e-10
5.41366e-08
7.63069e-10
5.41292e-08
7.53261e-10
5.41211e-08
7.42894e-10
5.41124e-08
7.31252e-10
5.41029e-08
7.16109e-10
6.91434e-10
5.17074e-08
2.93865e-10
5.17967e-08
5.88483e-10
5.19202e-08
8.60788e-10
5.20664e-08
1.0988e-09
5.22259e-08
1.29857e-09
5.23917e-08
1.46118e-09
5.25587e-08
1.58918e-09
5.27228e-08
1.68527e-09
5.28809e-08
1.75254e-09
5.30307e-08
1.79464e-09
5.31707e-08
1.81545e-09
5.33005e-08
1.81878e-09
5.34197e-08
1.80822e-09
5.35288e-08
1.78706e-09
5.36283e-08
1.75819e-09
5.3719e-08
1.72411e-09
5.38019e-08
1.68685e-09
5.3878e-08
1.64804e-09
5.39483e-08
1.6089e-09
5.40136e-08
1.57032e-09
5.40748e-08
1.53289e-09
5.41324e-08
1.497e-09
5.41873e-08
1.46286e-09
5.42398e-08
1.43054e-09
5.42903e-08
1.40005e-09
5.43392e-08
1.37133e-09
5.43867e-08
1.34429e-09
5.4433e-08
1.31884e-09
5.44784e-08
1.29485e-09
5.45229e-08
1.27223e-09
5.45667e-08
1.25088e-09
5.46098e-08
1.23071e-09
5.46523e-08
1.21163e-09
5.46942e-08
1.19357e-09
5.47357e-08
1.17647e-09
5.47767e-08
1.16026e-09
5.48172e-08
1.14488e-09
5.48574e-08
1.13029e-09
5.48972e-08
1.11644e-09
5.49366e-08
1.10329e-09
5.49756e-08
1.09079e-09
5.50143e-08
1.07892e-09
5.50527e-08
1.06763e-09
5.50907e-08
1.05689e-09
5.51284e-08
1.04666e-09
5.51658e-08
1.03693e-09
5.52029e-08
1.02767e-09
5.52396e-08
1.01883e-09
5.52761e-08
1.01041e-09
5.53122e-08
1.00237e-09
5.53479e-08
9.94697e-10
5.53834e-08
9.87363e-10
5.54185e-08
9.80349e-10
5.54532e-08
9.73634e-10
5.54876e-08
9.67199e-10
5.55217e-08
9.61027e-10
5.55553e-08
9.55099e-10
5.55886e-08
9.49398e-10
5.56215e-08
9.43907e-10
5.5654e-08
9.38612e-10
5.56861e-08
9.33495e-10
5.57178e-08
9.28542e-10
5.57491e-08
9.23737e-10
5.57799e-08
9.19067e-10
5.58102e-08
9.14515e-10
5.58402e-08
9.10068e-10
5.58696e-08
9.05711e-10
5.58985e-08
9.01429e-10
5.5927e-08
8.97207e-10
5.5955e-08
8.9303e-10
5.59824e-08
8.88884e-10
5.60093e-08
8.84751e-10
5.60356e-08
8.80616e-10
5.60614e-08
8.76462e-10
5.60866e-08
8.72272e-10
5.61113e-08
8.68029e-10
5.61353e-08
8.63714e-10
5.61587e-08
8.59308e-10
5.61815e-08
8.54792e-10
5.62037e-08
8.50146e-10
5.62252e-08
8.45349e-10
5.6246e-08
8.40382e-10
5.62662e-08
8.35223e-10
5.62857e-08
8.29852e-10
5.63044e-08
8.24249e-10
5.63224e-08
8.18393e-10
5.63397e-08
8.12268e-10
5.63563e-08
8.05857e-10
5.6372e-08
7.99145e-10
5.6387e-08
7.92124e-10
5.64011e-08
7.84786e-10
5.64145e-08
7.77131e-10
5.64269e-08
7.69161e-10
5.64386e-08
7.60882e-10
5.64494e-08
7.52286e-10
5.64593e-08
7.43319e-10
5.64684e-08
7.33775e-10
5.64766e-08
7.23044e-10
5.64831e-08
7.09597e-10
6.90475e-10
5.36195e-08
2.55524e-10
5.3695e-08
5.1305e-10
5.38011e-08
7.54628e-10
5.39295e-08
9.70427e-10
5.40721e-08
1.15593e-09
5.42228e-08
1.31052e-09
5.43766e-08
1.43538e-09
5.45296e-08
1.53227e-09
5.46787e-08
1.60349e-09
5.48215e-08
1.65184e-09
5.49565e-08
1.68043e-09
5.50828e-08
1.69244e-09
5.52001e-08
1.69093e-09
5.53084e-08
1.67877e-09
5.54081e-08
1.65852e-09
5.54997e-08
1.63246e-09
5.55841e-08
1.60248e-09
5.5662e-08
1.57014e-09
5.57342e-08
1.53665e-09
5.58016e-08
1.50293e-09
5.58649e-08
1.46964e-09
5.59246e-08
1.43725e-09
5.59814e-08
1.40604e-09
5.60358e-08
1.37619e-09
5.60881e-08
1.34776e-09
5.61387e-08
1.32077e-09
5.61878e-08
1.29519e-09
5.62356e-08
1.27097e-09
5.62824e-08
1.24805e-09
5.63283e-08
1.22635e-09