/*--------------------------------*- C++ -*----------------------------------*\
| =========                 |                                                 |
| \\      /  F ield         | OpenFOAM: The Open Source CFD Toolbox           |
|  \\    /   O peration     | Version:  2.3.0                                 |
|   \\  /    A nd           | Web:      www.OpenFOAM.org                      |
|    \\/     M anipulation  |                                                 |
\*---------------------------------------------------------------------------*/
FoamFile
{
    version     2.0;
    format      ascii;
    class       surfaceScalarField;
    location    "0.6";
    object      phi;
}
// * * * * * * * * * * * * * * * * * * * * * * * * * * * * * * * * * * * * * //

dimensions      [0 3 -1 0 0 0 0];

internalField   nonuniform List<scalar> 
5644
(
2.86516e-08
2.77206e-09
-3.14236e-08
2.58104e-08
2.84117e-09
2.31197e-08
2.69065e-09
2.06326e-08
2.48716e-09
1.83668e-08
2.2658e-09
1.63337e-08
2.03303e-09
1.45372e-08
1.79659e-09
1.29729e-08
1.56426e-09
1.16301e-08
1.34278e-09
1.04925e-08
1.13763e-09
9.53958e-09
9.52911e-10
8.74845e-09
7.91131e-10
8.0953e-09
6.53145e-10
7.55697e-09
5.38335e-10
7.11205e-09
4.44919e-10
6.7417e-09
3.70356e-10
6.42996e-09
3.11736e-10
6.16384e-09
2.66121e-10
5.93305e-09
2.30785e-10
5.7297e-09
2.03355e-10
5.54782e-09
1.81875e-10
5.38303e-09
1.64798e-10
5.23208e-09
1.50946e-10
5.09263e-09
1.3945e-10
4.96294e-09
1.29687e-10
4.84173e-09
1.21217e-10
4.72799e-09
1.13738e-10
4.62095e-09
1.0704e-10
4.51997e-09
1.00979e-10
4.42451e-09
9.54546e-11
4.33412e-09
9.03922e-11
4.24838e-09
8.57367e-11
4.16694e-09
8.14437e-11
4.08946e-09
7.74767e-11
4.01566e-09
7.38041e-11
3.94526e-09
7.03982e-11
3.87803e-09
6.72342e-11
3.81374e-09
6.42897e-11
3.75219e-09
6.15448e-11
3.69321e-09
5.89814e-11
3.63663e-09
5.65833e-11
3.58229e-09
5.43359e-11
3.53007e-09
5.22261e-11
3.47982e-09
5.02423e-11
3.43145e-09
4.8374e-11
3.38484e-09
4.66117e-11
3.33989e-09
4.4947e-11
3.29652e-09
4.33724e-11
3.25464e-09
4.18809e-11
3.21417e-09
4.04663e-11
3.17505e-09
3.91232e-11
3.1372e-09
3.78462e-11
3.10057e-09
3.66307e-11
3.0651e-09
3.54726e-11
3.03073e-09
3.43678e-11
2.99742e-09
3.33127e-11
2.96511e-09
3.2304e-11
2.93378e-09
3.13388e-11
2.90336e-09
3.0414e-11
2.87384e-09
2.95271e-11
2.84516e-09
2.86756e-11
2.8173e-09
2.78573e-11
2.79023e-09
2.707e-11
2.76392e-09
2.63118e-11
2.73834e-09
2.55808e-11
2.71346e-09
2.48754e-11
2.68927e-09
2.41939e-11
2.66574e-09
2.35348e-11
2.64284e-09
2.28967e-11
2.62056e-09
2.22784e-11
2.59888e-09
2.16787e-11
2.57779e-09
2.10965e-11
2.55725e-09
2.05307e-11
2.53727e-09
1.99804e-11
2.51783e-09
1.94449e-11
2.49891e-09
1.89232e-11
2.48049e-09
1.84148e-11
2.46257e-09
1.79191e-11
2.44514e-09
1.74355e-11
2.42817e-09
1.69638e-11
2.41167e-09
1.65035e-11
2.39561e-09
1.60545e-11
2.38e-09
1.56167e-11
2.36481e-09
1.51903e-11
2.35003e-09
1.47753e-11
2.33566e-09
1.43723e-11
2.32168e-09
1.39818e-11
2.30807e-09
1.36045e-11
2.29483e-09
1.32417e-11
2.28194e-09
1.28949e-11
2.26937e-09
1.25662e-11
2.25711e-09
1.22584e-11
2.24514e-09
1.19758e-11
2.23341e-09
1.17252e-11
2.22189e-09
1.15181e-11
2.21052e-09
1.13779e-11
2.19915e-09
1.13628e-11
2.18755e-09
1.16001e-11
2.17517e-09
1.23878e-11
3.39505e-11
3.44036e-08
3.04352e-09
-3.46751e-08
3.38388e-08
3.40598e-09
3.30305e-08
3.49901e-09
3.20592e-08
3.45838e-09
3.09827e-08
3.34231e-09
2.98464e-08
3.16938e-09
2.86875e-08
2.95547e-09
2.75351e-08
2.71668e-09
2.64107e-08
2.46715e-09
2.53298e-08
2.2186e-09
2.43023e-08
1.98035e-09
2.33343e-08
1.75919e-09
2.24281e-08
1.55934e-09
2.15837e-08
1.3827e-09
2.07994e-08
1.22926e-09
2.00721e-08
1.09765e-09
1.93981e-08
9.85654e-10
1.87736e-08
8.90673e-10
1.81943e-08
8.1007e-10
1.76563e-08
7.41385e-10
1.71557e-08
6.82455e-10
1.6689e-08
6.31465e-10
1.6253e-08
5.86931e-10
1.58448e-08
5.47674e-10
1.54617e-08
5.12766e-10
1.51015e-08
4.81484e-10
1.47619e-08
4.53265e-10
1.44413e-08
4.27666e-10
1.4138e-08
4.04336e-10
1.38504e-08
3.8299e-10
1.35774e-08
3.63396e-10
1.33178e-08
3.45359e-10
1.30705e-08
3.28713e-10
1.28347e-08
3.13313e-10
1.26095e-08
2.99036e-10
1.23941e-08
2.85771e-10
1.21879e-08
2.73422e-10
1.19903e-08
2.61903e-10
1.18007e-08
2.51138e-10
1.16186e-08
2.41058e-10
1.14436e-08
2.31603e-10
1.12752e-08
2.2272e-10
1.11131e-08
2.14359e-10
1.09568e-08
2.06479e-10
1.08062e-08
1.99039e-10
1.06608e-08
1.92006e-10
1.05204e-08
1.85347e-10
1.03847e-08
1.79036e-10
1.02536e-08
1.73045e-10
1.01267e-08
1.67353e-10
1.00039e-08
1.61937e-10
9.88493e-09
1.56778e-10
9.7697e-09
1.51859e-10
9.65801e-09
1.47164e-10
9.5497e-09
1.42677e-10
9.44463e-09
1.38385e-10
9.34265e-09
1.34275e-10
9.24366e-09
1.30335e-10
9.14752e-09
1.26554e-10
9.05412e-09
1.22923e-10
8.96337e-09
1.19431e-10
8.87516e-09
1.16069e-10
8.7894e-09
1.1283e-10
8.706e-09
1.09706e-10
8.62489e-09
1.06689e-10
8.546e-09
1.03773e-10
8.46924e-09
1.0095e-10
8.39456e-09
9.82165e-11
8.32189e-09
9.55652e-11
8.25118e-09
9.29914e-11
8.18237e-09
9.04901e-11
8.11541e-09
8.80567e-11
8.05025e-09
8.5687e-11
7.98685e-09
8.33772e-11
7.92517e-09
8.11234e-11
7.86517e-09
7.89225e-11
7.80682e-09
7.67714e-11
7.75007e-09
7.46673e-11
7.6949e-09
7.2608e-11
7.64127e-09
7.05915e-11
7.58916e-09
6.86159e-11
7.53853e-09
6.66802e-11
7.48937e-09
6.47833e-11
7.44163e-09
6.2925e-11
7.3953e-09
6.11055e-11
7.35035e-09
5.93254e-11
7.30674e-09
5.75862e-11
7.26446e-09
5.58902e-11
7.22346e-09
5.42409e-11
7.18371e-09
5.26429e-11
7.14517e-09
5.11027e-11
7.1078e-09
4.96298e-11
7.07154e-09
4.82378e-11
7.03632e-09
4.69481e-11
7.00204e-09
4.57978e-11
6.96855e-09
4.48623e-11
6.9356e-09
4.43195e-11
6.90256e-09
4.4638e-11
6.86556e-09
4.93866e-11
8.57292e-11
3.65064e-08
2.89623e-09
-3.63591e-08
3.65905e-08
3.32189e-09
3.65505e-08
3.53898e-09
3.63859e-08
3.62296e-09
3.61082e-08
3.62006e-09
3.5731e-08
3.54654e-09
3.52711e-08
3.41533e-09
3.47461e-08
3.24167e-09
3.41727e-08
3.04056e-09
3.3566e-08
2.82537e-09
3.29389e-08
2.60746e-09
3.23022e-08
2.39585e-09
3.16645e-08
2.19699e-09
3.10324e-08
2.01483e-09
3.04105e-08
1.85115e-09
2.98021e-08
1.70606e-09
2.92093e-08
1.57849e-09
2.86332e-08
1.46671e-09
2.80746e-08
1.3687e-09
2.75336e-08
1.28242e-09
2.70101e-08
1.20598e-09
2.65038e-08
1.13775e-09
2.60143e-08
1.07636e-09
2.55413e-08
1.02068e-09
2.50843e-08
9.69821e-10
2.46427e-08
9.23086e-10
2.4216e-08
8.79916e-10
2.38038e-08
8.39872e-10
2.34056e-08
8.02602e-10
2.30207e-08
7.67818e-10
2.26488e-08
7.35282e-10
2.22894e-08
7.04792e-10
2.1942e-08
6.76171e-10
2.1606e-08
6.49268e-10
2.12811e-08
6.23944e-10
2.09668e-08
6.00078e-10
2.06626e-08
5.77559e-10
2.03683e-08
5.56285e-10
2.00832e-08
5.36166e-10
1.98072e-08
5.17118e-10
1.95397e-08
4.99064e-10
1.92805e-08
4.81935e-10
1.90292e-08
4.65666e-10
1.87855e-08
4.502e-10
1.8549e-08
4.35482e-10
1.83196e-08
4.21463e-10
1.80968e-08
4.08097e-10
1.78805e-08
3.95343e-10
1.76704e-08
3.83162e-10
1.74662e-08
3.71517e-10
1.72678e-08
3.60377e-10
1.70749e-08
3.49708e-10
1.68872e-08
3.39484e-10
1.67047e-08
3.29678e-10
1.65271e-08
3.20263e-10
1.63543e-08
3.11218e-10
1.61861e-08
3.02519e-10
1.60222e-08
2.94147e-10
1.58627e-08
2.86082e-10
1.57073e-08
2.78306e-10
1.5556e-08
2.70803e-10
1.54085e-08
2.63554e-10
1.52648e-08
2.56547e-10
1.51247e-08
2.49765e-10
1.49882e-08
2.43196e-10
1.48551e-08
2.36827e-10
1.47254e-08
2.30644e-10
1.4599e-08
2.24638e-10
1.44758e-08
2.18797e-10
1.43557e-08
2.1311e-10
1.42386e-08
2.07568e-10
1.41245e-08
2.02161e-10
1.40133e-08
1.96882e-10
1.3905e-08
1.91721e-10
1.37994e-08
1.86672e-10
1.36966e-08
1.81727e-10
1.35965e-08
1.7688e-10
1.3499e-08
1.72125e-10
1.34042e-08
1.67457e-10
1.33119e-08
1.62871e-10
1.32222e-08
1.58363e-10
1.31349e-08
1.53931e-10
1.30501e-08
1.49571e-10
1.29678e-08
1.45283e-10
1.28878e-08
1.41066e-10
1.28102e-08
1.36921e-10
1.27349e-08
1.3285e-10
1.2662e-08
1.28858e-10
1.25913e-08
1.24949e-10
1.25228e-08
1.21134e-10
1.24565e-08
1.17423e-10
1.23923e-08
1.13835e-10
1.23301e-08
1.10396e-10
1.22699e-08
1.07146e-10
1.22115e-08
1.04155e-10
1.21548e-08
1.01566e-10
1.20994e-08
9.9719e-11
1.20444e-08
9.96638e-11
1.19862e-08
1.07625e-10
1.47457e-10
3.80859e-08
2.70721e-09
-3.78969e-08
3.82948e-08
3.11304e-09
3.84695e-08
3.36424e-09
3.85904e-08
3.50211e-09
3.86505e-08
3.55997e-09
3.86458e-08
3.55126e-09
3.85759e-08
3.48519e-09
3.84442e-08
3.37336e-09
3.82564e-08
3.22833e-09
3.80198e-08
3.06205e-09
3.7742e-08
2.88523e-09
3.7431e-08
2.70687e-09
3.7094e-08
2.53394e-09
3.67376e-08
2.37125e-09
3.63672e-08
2.2216e-09
3.59871e-08
2.08612e-09
3.56009e-08
1.96472e-09
3.52111e-08
1.85649e-09
3.48197e-08
1.76005e-09
3.44283e-08
1.67388e-09
3.40378e-08
1.59646e-09
3.36491e-08
1.52641e-09
3.32629e-08
1.46255e-09
3.28798e-08
1.40387e-09
3.25e-08
1.34957e-09
3.21241e-08
1.29901e-09
3.17523e-08
1.25168e-09
3.1385e-08
1.20718e-09
3.10224e-08
1.1652e-09
3.06648e-08
1.12547e-09
3.03123e-08
1.0878e-09
2.9965e-08
1.052e-09
2.96233e-08
1.01793e-09
2.92871e-08
9.85471e-10
2.89565e-08
9.54501e-10
2.86317e-08
9.24923e-10
2.83126e-08
8.96647e-10
2.79993e-08
8.69593e-10
2.76918e-08
8.43686e-10
2.739e-08
8.18858e-10
2.7094e-08
7.95046e-10
2.68038e-08
7.72194e-10
2.65192e-08
7.50248e-10
2.62402e-08
7.29158e-10
2.59668e-08
7.08879e-10
2.56989e-08
6.89367e-10
2.54365e-08
6.70584e-10
2.51793e-08
6.52492e-10
2.49274e-08
6.35056e-10
2.46807e-08
6.18242e-10
2.4439e-08
6.0202e-10
2.42024e-08
5.8636e-10
2.39706e-08
5.71235e-10
2.37437e-08
5.56618e-10
2.35215e-08
5.42483e-10
2.33039e-08
5.28807e-10
2.30908e-08
5.15567e-10
2.28822e-08
5.0274e-10
2.2678e-08
4.90306e-10
2.24781e-08
4.78245e-10
2.22824e-08
4.66537e-10
2.20907e-08
4.55163e-10
2.19032e-08
4.44107e-10
2.17196e-08
4.3335e-10
2.15399e-08
4.22876e-10
2.13641e-08
4.12669e-10
2.1192e-08
4.02715e-10
2.10236e-08
3.92997e-10
2.08589e-08
3.83503e-10
2.06978e-08
3.74218e-10
2.05403e-08
3.6513e-10
2.03862e-08
3.56226e-10
2.02356e-08
3.47495e-10
2.00884e-08
3.38925e-10
1.99446e-08
3.30506e-10
1.98041e-08
3.22228e-10
1.96668e-08
3.14081e-10
1.95329e-08
3.06058e-10
1.94022e-08
2.9815e-10
1.92747e-08
2.9035e-10
1.91505e-08
2.82654e-10
1.90293e-08
2.75055e-10
1.89113e-08
2.67551e-10
1.87965e-08
2.60139e-10
1.86847e-08
2.52818e-10
1.85761e-08
2.45591e-10
1.84705e-08
2.38459e-10
1.83679e-08
2.31428e-10
1.82683e-08
2.24509e-10
1.81718e-08
2.17714e-10
1.80781e-08
2.11062e-10
1.79874e-08
2.0458e-10
1.78995e-08
1.98307e-10
1.78143e-08
1.92305e-10
1.77318e-08
1.86681e-10
1.76517e-08
1.81647e-10
1.75737e-08
1.77714e-10
1.74969e-08
1.76474e-10
1.74197e-08
1.84797e-10
2.19738e-10
3.96249e-08
2.53865e-09
-3.94564e-08
3.98329e-08
2.90506e-09
4.00415e-08
3.15571e-09
4.02321e-08
3.31146e-09
4.03963e-08
3.39575e-09
4.05271e-08
3.42044e-09
4.06192e-08
3.39316e-09
4.06697e-08
3.32287e-09
4.06783e-08
3.21972e-09
4.06466e-08
3.09373e-09
4.05777e-08
2.95413e-09
4.04756e-08
2.80895e-09
4.03448e-08
2.66473e-09
4.01898e-08
2.52626e-09
4.00147e-08
2.39668e-09
3.98232e-08
2.27763e-09
3.96183e-08
2.16962e-09
3.94025e-08
2.07231e-09
3.91777e-08
1.98487e-09
3.89454e-08
1.90618e-09
3.87068e-08
1.83508e-09
3.84627e-08
1.77043e-09
3.82141e-08
1.71122e-09
3.79614e-08
1.65658e-09
3.77051e-08
1.60578e-09
3.74459e-08
1.55824e-09
3.71841e-08
1.51349e-09
3.69201e-08
1.47116e-09
3.66544e-08
1.43095e-09
3.63872e-08
1.39262e-09
3.6119e-08
1.35599e-09
3.58501e-08
1.32089e-09
3.55809e-08
1.28721e-09
3.53115e-08
1.25483e-09
3.50423e-08
1.22366e-09
3.47737e-08
1.19361e-09
3.45057e-08
1.16461e-09
3.42387e-08
1.13661e-09
3.39728e-08
1.10954e-09
3.37083e-08
1.08334e-09
3.34454e-08
1.05798e-09
3.31842e-08
1.03341e-09
3.29248e-08
1.00959e-09
3.26675e-08
9.86485e-10
3.24123e-08
9.6406e-10
3.21594e-08
9.42287e-10
3.19089e-08
9.21135e-10
3.16608e-08
9.00578e-10
3.14152e-08
8.80591e-10
3.11723e-08
8.61149e-10
3.09321e-08
8.42231e-10
3.06947e-08
8.23815e-10
3.046e-08
8.05879e-10
3.02282e-08
7.88405e-10
2.99994e-08
7.71372e-10
2.97734e-08
7.54763e-10
2.95504e-08
7.38559e-10
2.93304e-08
7.22742e-10
2.91134e-08
7.07297e-10
2.88995e-08
6.92205e-10
2.86885e-08
6.77451e-10
2.84807e-08
6.63019e-10
2.82759e-08
6.48893e-10
2.80742e-08
6.35057e-10
2.78756e-08
6.21497e-10
2.768e-08
6.08198e-10
2.74876e-08
5.95145e-10
2.72983e-08
5.82324e-10
2.71121e-08
5.69722e-10
2.6929e-08
5.57325e-10
2.6749e-08
5.45119e-10
2.65721e-08
5.33093e-10
2.63984e-08
5.21233e-10
2.62278e-08
5.09528e-10
2.60603e-08
4.97967e-10
2.5896e-08
4.86538e-10
2.57348e-08
4.75232e-10
2.55769e-08
4.6404e-10
2.54221e-08
4.52953e-10
2.52704e-08
4.41963e-10
2.5122e-08
4.31064e-10
2.49768e-08
4.20251e-10
2.48349e-08
4.0952e-10
2.46961e-08
3.98869e-10
2.45607e-08
3.88298e-10
2.44284e-08
3.7781e-10
2.42995e-08
3.6741e-10
2.41738e-08
3.57106e-10
2.40514e-08
3.46911e-10
2.39323e-08
3.36845e-10
2.38164e-08
3.26933e-10
2.37038e-08
3.17212e-10
2.35943e-08
3.07737e-10
2.34881e-08
2.98589e-10
2.33848e-08
2.8991e-10
2.32845e-08
2.81974e-10
2.31868e-08
2.7542e-10
2.30912e-08
2.72071e-10
2.29982e-08
2.7785e-10
3.01947e-10
4.12e-08
2.39382e-09
-4.10552e-08
4.1386e-08
2.71902e-09
4.15844e-08
2.95739e-09
4.17789e-08
3.11691e-09
4.19618e-08
3.21287e-09
4.21269e-08
3.25531e-09
4.22691e-08
3.25102e-09
4.23845e-08
3.2074e-09
4.24714e-08
3.13286e-09
4.25292e-08
3.03589e-09
4.25589e-08
2.92442e-09
4.25624e-08
2.80548e-09
4.25422e-08
2.68493e-09
4.25012e-08
2.56728e-09
4.24422e-08
2.45566e-09
4.23679e-08
2.35192e-09
4.22806e-08
2.2569e-09
4.21823e-08
2.17067e-09
4.20744e-08
2.09276e-09
4.19582e-08
2.02241e-09
4.18345e-08
1.95873e-09
4.17041e-08
1.9008e-09
4.15676e-08
1.84776e-09
4.14253e-08
1.79886e-09
4.12776e-08
1.75344e-09
4.11249e-08
1.71097e-09
4.09674e-08
1.671e-09
4.08054e-08
1.63318e-09
4.06391e-08
1.59721e-09
4.04689e-08
1.56288e-09
4.02949e-08
1.52998e-09
4.01174e-08
1.49838e-09
3.99366e-08
1.46794e-09
3.97529e-08
1.43856e-09
3.95664e-08
1.41016e-09
3.93774e-08
1.38264e-09
3.9186e-08
1.35595e-09
3.89926e-08
1.33003e-09
3.87973e-08
1.30483e-09
3.86004e-08
1.2803e-09
3.84019e-08
1.2564e-09
3.82023e-08
1.2331e-09
3.80015e-08
1.21036e-09
3.77998e-08
1.18816e-09
3.75974e-08
1.16646e-09
3.73945e-08
1.14524e-09
3.71911e-08
1.12449e-09
3.69875e-08
1.10418e-09
3.67838e-08
1.0843e-09
3.65801e-08
1.06481e-09
3.63766e-08
1.04572e-09
3.61735e-08
1.027e-09
3.59707e-08
1.00863e-09
3.57685e-08
9.90613e-10
3.55669e-08
9.72922e-10
3.53662e-08
9.55547e-10
3.51662e-08
9.38474e-10
3.49673e-08
9.21691e-10
3.47694e-08
9.05185e-10
3.45727e-08
8.88942e-10
3.43772e-08
8.7295e-10
3.4183e-08
8.57197e-10
3.39902e-08
8.41671e-10
3.37989e-08
8.26358e-10
3.36092e-08
8.11246e-10
3.3421e-08
7.96323e-10
3.32346e-08
7.81577e-10
3.30499e-08
7.66996e-10
3.28671e-08
7.52566e-10
3.26861e-08
7.38277e-10
3.25071e-08
7.24117e-10
3.23302e-08
7.10073e-10
3.21553e-08
6.96135e-10
3.19825e-08
6.82291e-10
3.18119e-08
6.6853e-10
3.16436e-08
6.54844e-10
3.14776e-08
6.41221e-10
3.1314e-08
6.27654e-10
3.11528e-08
6.14133e-10
3.09942e-08
6.00653e-10
3.0838e-08
5.87207e-10
3.06845e-08
5.73791e-10
3.05336e-08
5.60401e-10
3.03854e-08
5.47039e-10
3.024e-08
5.33704e-10
3.00974e-08
5.20402e-10
2.99577e-08
5.0714e-10
2.98209e-08
4.93931e-10
2.9687e-08
4.80793e-10
2.95561e-08
4.6775e-10
2.94282e-08
4.54835e-10
2.93033e-08
4.42098e-10
2.91814e-08
4.29604e-10
2.90626e-08
4.17456e-10
2.89466e-08
4.05823e-10
2.88336e-08
3.95019e-10
2.87233e-08
3.85725e-10
2.86157e-08
3.79623e-10
2.85128e-08
3.8078e-10
3.90856e-10
4.28236e-08
2.26767e-09
-4.26975e-08
4.29879e-08
2.55476e-09
4.31685e-08
2.77675e-09
4.33513e-08
2.93408e-09
4.35286e-08
3.0356e-09
4.36949e-08
3.08901e-09
4.38457e-08
3.10023e-09
4.39776e-08
3.0755e-09
4.40886e-08
3.02185e-09
4.41779e-08
2.94656e-09
4.42459e-08
2.8565e-09
4.42935e-08
2.75786e-09
4.43225e-08
2.65591e-09
4.4335e-08
2.55481e-09
4.43331e-08
2.45757e-09
4.43188e-08
2.36618e-09
4.4294e-08
2.28167e-09
4.42603e-08
2.20439e-09
4.42189e-08
2.13418e-09
4.41707e-08
2.07056e-09
4.41166e-08
2.01287e-09
4.4057e-08
1.96039e-09
4.39924e-08
1.91242e-09
4.39229e-08
1.86831e-09
4.38489e-08
1.82748e-09
4.37704e-08
1.78943e-09
4.36877e-08
1.75375e-09
4.36007e-08
1.72011e-09
4.35097e-08
1.68822e-09
4.34147e-08
1.65786e-09
4.33159e-08
1.62884e-09
4.32133e-08
1.60099e-09
4.3107e-08
1.5742e-09
4.29972e-08
1.54836e-09
4.2884e-08
1.52336e-09
4.27675e-08
1.49914e-09
4.26479e-08
1.47562e-09
4.25251e-08
1.45275e-09
4.23995e-08
1.43047e-09
4.22711e-08
1.40874e-09
4.21399e-08
1.38751e-09
4.20063e-08
1.36675e-09
4.18702e-08
1.34643e-09
4.17318e-08
1.32652e-09
4.15913e-08
1.307e-09
4.14487e-08
1.28783e-09
4.13042e-08
1.269e-09
4.11579e-08
1.25049e-09
4.10099e-08
1.23228e-09
4.08604e-08
1.21436e-09
4.07094e-08
1.19671e-09
4.05571e-08
1.17931e-09
4.04036e-08
1.16216e-09
4.0249e-08
1.14523e-09
4.00933e-08
1.12853e-09
3.99369e-08
1.11203e-09
3.97796e-08
1.09573e-09
3.96217e-08
1.07961e-09
3.94632e-08
1.06366e-09
3.93043e-08
1.04787e-09
3.9145e-08
1.03223e-09
3.89855e-08
1.01672e-09
3.88258e-08
1.00135e-09
3.86661e-08
9.8609e-10
3.85064e-08
9.70934e-10
3.83468e-08
9.55872e-10
3.81875e-08
9.40891e-10
3.80285e-08
9.25981e-10
3.787e-08
9.1113e-10
3.77119e-08
8.96327e-10
3.75545e-08
8.8156e-10
3.73977e-08
8.66819e-10
3.72418e-08
8.52092e-10
3.70867e-08
8.37368e-10
3.69326e-08
8.22639e-10
3.67795e-08
8.07892e-10
3.66276e-08
7.9312e-10
3.6477e-08
7.78314e-10
3.63277e-08
7.63466e-10
3.61797e-08
7.4857e-10
3.60333e-08
7.3362e-10
3.58885e-08
7.18612e-10
3.57454e-08
7.03545e-10
3.5604e-08
6.8842e-10
3.54644e-08
6.73239e-10
3.53268e-08
6.5801e-10
3.51912e-08
6.42743e-10
3.50577e-08
6.27454e-10
3.49263e-08
6.12165e-10
3.47972e-08
5.96907e-10
3.46703e-08
5.81721e-10
3.45457e-08
5.66663e-10
3.44235e-08
5.51813e-10
3.43037e-08
5.37289e-10
3.41862e-08
5.23274e-10
3.40712e-08
5.10093e-10
3.39585e-08
4.98371e-10
3.38488e-08
4.89371e-10
3.37445e-08
4.85035e-10
4.81005e-10
4.44987e-08
2.15564e-09
-4.43866e-08
4.46444e-08
2.40907e-09
4.48076e-08
2.61347e-09
4.49762e-08
2.76548e-09
4.51426e-08
2.86927e-09
4.53014e-08
2.93018e-09
4.54485e-08
2.95309e-09
4.55809e-08
2.94316e-09
4.56965e-08
2.90627e-09
4.57944e-08
2.84858e-09
4.58749e-08
2.77607e-09
4.59385e-08
2.69418e-09
4.59868e-08
2.60763e-09
4.60214e-08
2.52025e-09
4.6044e-08
2.43494e-09
4.60565e-08
2.35369e-09
4.60605e-08
2.27772e-09
4.60573e-08
2.20758e-09
4.60481e-08
2.14336e-09
4.60338e-08
2.08483e-09
4.60151e-08
2.03154e-09
4.59926e-08
1.98297e-09
4.59664e-08
1.93855e-09
4.5937e-08
1.89774e-09
4.59044e-08
1.86005e-09
4.58688e-08
1.82504e-09
4.58303e-08
1.79233e-09
4.57887e-08
1.76162e-09
4.57443e-08
1.73263e-09
4.56971e-08
1.70514e-09
4.56469e-08
1.67897e-09
4.5594e-08
1.65396e-09
4.55382e-08
1.62999e-09
4.54796e-08
1.60694e-09
4.54182e-08
1.58471e-09
4.53542e-08
1.56322e-09
4.52874e-08
1.54241e-09
4.52179e-08
1.52221e-09
4.51458e-08
1.50256e-09
4.50711e-08
1.48342e-09
4.49939e-08
1.46474e-09
4.49142e-08
1.44648e-09
4.4832e-08
1.42861e-09
4.47474e-08
1.4111e-09
4.46605e-08
1.39392e-09
4.45713e-08
1.37704e-09
4.44798e-08
1.36045e-09
4.43862e-08
1.34411e-09
4.42905e-08
1.32801e-09
4.41927e-08
1.31214e-09
4.40929e-08
1.29647e-09
4.39913e-08
1.28099e-09
4.38877e-08
1.26568e-09
4.37824e-08
1.25054e-09
4.36754e-08
1.23554e-09
4.35668e-08
1.22068e-09
4.34566e-08
1.20594e-09
4.33449e-08
1.19131e-09
4.32318e-08
1.17677e-09
4.31173e-08
1.16232e-09
4.30016e-08
1.14794e-09
4.28847e-08
1.13362e-09
4.27667e-08
1.11935e-09
4.26477e-08
1.10512e-09
4.25277e-08
1.09091e-09
4.24068e-08
1.07671e-09
4.22852e-08
1.06251e-09
4.21629e-08
1.0483e-09
4.204e-08
1.03407e-09
4.19165e-08
1.01979e-09
4.17926e-08
1.00547e-09
4.16683e-08
9.91083e-10
4.15438e-08
9.76625e-10
4.14191e-08
9.62082e-10
4.12943e-08
9.47443e-10
4.11695e-08
9.32697e-10
4.10448e-08
9.17834e-10
4.09202e-08
9.02844e-10
4.0796e-08
8.8772e-10
4.06721e-08
8.72454e-10
4.05487e-08
8.57041e-10
4.04258e-08
8.41477e-10
4.03036e-08
8.2576e-10
4.01821e-08
8.09892e-10
4.00615e-08
7.93875e-10
3.99418e-08
7.77719e-10
3.98231e-08
7.61437e-10
3.97055e-08
7.45045e-10
3.95891e-08
7.28571e-10
3.94739e-08
7.1205e-10
3.93601e-08
6.95527e-10
3.92477e-08
6.79068e-10
3.91368e-08
6.6276e-10
3.90273e-08
6.46728e-10
3.89195e-08
6.31161e-10
3.88132e-08
6.16361e-10
3.87087e-08
6.02822e-10
3.86068e-08
5.91263e-10
3.85101e-08
5.81759e-10
5.6624e-10
4.62269e-08
2.05448e-09
-4.61258e-08
4.63572e-08
2.27879e-09
4.65049e-08
2.46583e-09
4.66596e-08
2.6107e-09
4.68144e-08
2.71452e-09
4.6964e-08
2.78058e-09
4.71045e-08
2.81263e-09
4.72328e-08
2.81486e-09
4.73469e-08
2.79209e-09
4.7446e-08
2.7495e-09
4.75299e-08
2.6922e-09
4.75991e-08
2.62496e-09
4.76548e-08
2.55198e-09
4.76983e-08
2.47675e-09
4.77312e-08
2.40203e-09
4.77551e-08
2.32979e-09
4.77714e-08
2.26134e-09
4.77816e-08
2.19742e-09
4.77867e-08
2.1383e-09
4.77875e-08
2.08397e-09
4.77849e-08
2.03417e-09
4.77793e-08
1.98855e-09
4.77712e-08
1.94668e-09
4.77608e-08
1.90815e-09
4.77483e-08
1.87253e-09
4.77339e-08
1.83947e-09
4.77176e-08
1.80863e-09
4.76995e-08
1.77972e-09
4.76796e-08
1.75251e-09
4.76579e-08
1.72679e-09
4.76345e-08
1.70238e-09
4.76093e-08
1.67914e-09
4.75824e-08
1.65693e-09
4.75537e-08
1.63565e-09
4.75232e-08
1.6152e-09
4.74909e-08
1.59551e-09
4.74568e-08
1.5765e-09
4.74209e-08
1.5581e-09
4.73832e-08
1.54027e-09
4.73437e-08
1.52295e-09
4.73023e-08
1.50609e-09
4.72592e-08
1.48966e-09
4.72142e-08
1.47362e-09
4.71673e-08
1.45793e-09
4.71187e-08
1.44257e-09
4.70682e-08
1.42751e-09
4.70159e-08
1.41273e-09
4.69618e-08
1.39819e-09
4.6906e-08
1.38388e-09
4.68483e-08
1.36978e-09
4.67889e-08
1.35587e-09
4.67278e-08
1.34214e-09
4.66649e-08
1.32855e-09
4.66003e-08
1.31511e-09
4.65341e-08
1.30179e-09
4.64662e-08
1.28857e-09
4.63967e-08
1.27545e-09
4.63256e-08
1.2624e-09
4.62529e-08
1.24942e-09
4.61788e-08
1.23649e-09
4.61031e-08
1.22359e-09
4.6026e-08
1.21071e-09
4.59475e-08
1.19784e-09
4.58677e-08
1.18496e-09
4.57866e-08
1.17206e-09
4.57042e-08
1.15912e-09
4.56205e-08
1.14613e-09
4.55358e-08
1.13307e-09
4.54499e-08
1.11994e-09
4.5363e-08
1.10671e-09
4.52751e-08
1.09338e-09
4.51862e-08
1.07992e-09
4.50965e-08
1.06632e-09
4.5006e-08
1.05258e-09
4.49148e-08
1.03867e-09
4.48229e-08
1.02459e-09
4.47304e-08
1.01032e-09
4.46374e-08
9.95853e-10
4.4544e-08
9.81177e-10
4.44501e-08
9.66284e-10
4.4356e-08
9.51167e-10
4.42617e-08
9.35821e-10
4.41672e-08
9.20244e-10
4.40726e-08
9.04436e-10
4.39781e-08
8.884e-10
4.38837e-08
8.72147e-10
4.37894e-08
8.55687e-10
4.36954e-08
8.39043e-10
4.36018e-08
8.2224e-10
4.35085e-08
8.05318e-10
4.34157e-08
7.88327e-10
4.33234e-08
7.71334e-10
4.32317e-08
7.54433e-10
4.31407e-08
7.37751e-10
4.30504e-08
7.21468e-10
4.29609e-08
7.05838e-10
4.28726e-08
6.91192e-10
4.27861e-08
6.77735e-10
4.27036e-08
6.64252e-10
6.41426e-10
4.80105e-08
1.96192e-09
-4.79179e-08
4.8128e-08
2.16129e-09
4.82619e-08
2.33194e-09
4.84038e-08
2.46874e-09
4.85474e-08
2.57098e-09
4.86876e-08
2.64034e-09
4.88207e-08
2.67952e-09
4.89438e-08
2.6918e-09
4.90548e-08
2.68108e-09
4.91527e-08
2.65165e-09
4.9237e-08
2.60783e-09
4.93083e-08
2.55374e-09
4.93671e-08
2.49309e-09
4.94148e-08
2.42905e-09
4.94527e-08
2.36418e-09
4.94821e-08
2.30039e-09
4.95044e-08
2.23905e-09
4.95208e-08
2.18101e-09
4.95324e-08
2.12671e-09
4.954e-08
2.07629e-09
4.95445e-08
2.02968e-09
4.95464e-08
1.98666e-09
4.95461e-08
1.94696e-09
4.9544e-08
1.91025e-09
4.95404e-08
1.87621e-09
4.95353e-08
1.84454e-09
4.9529e-08
1.81496e-09
4.95215e-08
1.78722e-09
4.95129e-08
1.76111e-09
4.95032e-08
1.73645e-09
4.94925e-08
1.71307e-09
4.94808e-08
1.69083e-09
4.94681e-08
1.66963e-09
4.94544e-08
1.64934e-09
4.94397e-08
1.6299e-09
4.9424e-08
1.61121e-09
4.94073e-08
1.59321e-09
4.93896e-08
1.57584e-09
4.93708e-08
1.55905e-09
4.9351e-08
1.54278e-09
4.93301e-08
1.52699e-09
4.93081e-08
1.51164e-09
4.9285e-08
1.4967e-09
4.92608e-08
1.48213e-09
4.92355e-08
1.4679e-09
4.9209e-08
1.45399e-09
4.91814e-08
1.44037e-09
4.91525e-08
1.42701e-09
4.91225e-08
1.41389e-09
4.90913e-08
1.40099e-09
4.90589e-08
1.3883e-09
4.90253e-08
1.37578e-09
4.89904e-08
1.36343e-09
4.89543e-08
1.35122e-09
4.89169e-08
1.33915e-09
4.88783e-08
1.32718e-09
4.88384e-08
1.31531e-09
4.87973e-08
1.30351e-09
4.8755e-08
1.29178e-09
4.87114e-08
1.28009e-09
4.86665e-08
1.26843e-09
4.86205e-08
1.25678e-09
4.85732e-08
1.24513e-09
4.85247e-08
1.23346e-09
4.8475e-08
1.22176e-09
4.84241e-08
1.21e-09
4.8372e-08
1.19817e-09
4.83189e-08
1.18626e-09
4.82645e-08
1.17425e-09
4.82091e-08
1.16212e-09
4.81527e-08
1.14985e-09
4.80952e-08
1.13743e-09
4.80366e-08
1.12484e-09
4.79771e-08
1.11207e-09
4.79167e-08
1.09911e-09
4.78554e-08
1.08593e-09
4.77932e-08
1.07252e-09
4.77302e-08
1.05887e-09
4.76664e-08
1.04496e-09
4.76019e-08
1.0308e-09
4.75367e-08
1.01636e-09
4.74709e-08
1.00164e-09
4.74045e-08
9.86642e-10
4.73375e-08
9.71359e-10
4.72701e-08
9.55796e-10
4.72023e-08
9.39961e-10
4.71342e-08
9.23866e-10
4.70657e-08
9.07533e-10
4.69969e-08
8.90989e-10
4.6928e-08
8.74273e-10
4.68588e-08
8.5744e-10
4.67896e-08
8.40557e-10
4.67203e-08
8.23719e-10
4.6651e-08
8.07049e-10
4.65818e-08
7.90708e-10
4.65127e-08
7.74897e-10
4.64441e-08
7.59787e-10
4.63767e-08
7.45207e-10
4.63116e-08
7.29317e-10
7.03558e-10
4.98515e-08
1.87636e-09
-4.9766e-08
4.99584e-08
2.05445e-09
5.00802e-08
2.21009e-09
5.02105e-08
2.33851e-09
5.03434e-08
2.43804e-09
5.04745e-08
2.50922e-09
5.06002e-08
2.55382e-09
5.07177e-08
2.57434e-09
5.08249e-08
2.57387e-09
5.09206e-08
2.55589e-09
5.10044e-08
2.52403e-09
5.10764e-08
2.48182e-09
5.1137e-08
2.43248e-09
5.11872e-08
2.37885e-09
5.12281e-08
2.32327e-09
5.12609e-08
2.26759e-09
5.12868e-08
2.21317e-09
5.13069e-08
2.16092e-09
5.13222e-08
2.11141e-09
5.13335e-08
2.06492e-09
5.13417e-08
2.02151e-09
5.13473e-08
1.9811e-09
5.13507e-08
1.94352e-09
5.13524e-08
1.90856e-09
5.13526e-08
1.87598e-09
5.13516e-08
1.84553e-09
5.13496e-08
1.81701e-09
5.13466e-08
1.79019e-09
5.13428e-08
1.7649e-09
5.13383e-08
1.74098e-09
5.13331e-08
1.71828e-09
5.13272e-08
1.69668e-09
5.13208e-08
1.67607e-09
5.13138e-08
1.65636e-09
5.13062e-08
1.63746e-09
5.12981e-08
1.61931e-09
5.12895e-08
1.60185e-09
5.12803e-08
1.585e-09
5.12706e-08
1.56873e-09
5.12604e-08
1.55299e-09
5.12497e-08
1.53774e-09
5.12384e-08
1.52293e-09
5.12265e-08
1.50855e-09
5.12141e-08
1.49454e-09
5.12011e-08
1.48089e-09
5.11876e-08
1.46757e-09
5.11734e-08
1.45456e-09
5.11586e-08
1.44182e-09
5.11431e-08
1.42934e-09
5.1127e-08
1.4171e-09
5.11102e-08
1.40508e-09
5.10927e-08
1.39326e-09
5.10745e-08
1.38162e-09
5.10556e-08
1.37013e-09
5.1036e-08
1.3588e-09
5.10156e-08
1.34759e-09
5.09944e-08
1.33648e-09
5.09724e-08
1.32547e-09
5.09497e-08
1.31454e-09
5.09261e-08
1.30366e-09
5.09017e-08
1.29282e-09
5.08765e-08
1.28201e-09
5.08504e-08
1.2712e-09
5.08235e-08
1.26038e-09
5.07957e-08
1.24954e-09
5.07671e-08
1.23864e-09
5.07376e-08
1.22768e-09
5.07072e-08
1.21664e-09
5.06759e-08
1.20549e-09
5.06438e-08
1.19423e-09
5.06109e-08
1.18282e-09
5.0577e-08
1.17127e-09
5.05423e-08
1.15953e-09
5.05068e-08
1.14761e-09
5.04704e-08
1.13548e-09
5.04332e-08
1.12312e-09
5.03952e-08
1.11053e-09
5.03564e-08
1.09767e-09
5.03168e-08
1.08455e-09
5.02765e-08
1.07115e-09
5.02354e-08
1.05745e-09
5.01936e-08
1.04345e-09
5.01511e-08
1.02915e-09
5.01079e-08
1.01455e-09
5.0064e-08
9.99635e-10
5.00196e-08
9.84426e-10
4.99745e-08
9.68931e-10
4.99289e-08
9.53173e-10
4.98827e-08
9.37178e-10
4.9836e-08
9.20987e-10
4.97887e-08
9.04653e-10
4.9741e-08
8.88246e-10
4.96929e-08
8.71856e-10
4.96444e-08
8.556e-10
4.95955e-08
8.39618e-10
4.95463e-08
8.24055e-10
4.94971e-08
8.08965e-10
4.94484e-08
7.93969e-10
4.94005e-08
7.77181e-10
7.51997e-10
5.17526e-08
1.79667e-09
-5.16729e-08
5.18504e-08
1.95663e-09
5.19617e-08
2.09877e-09
5.20813e-08
2.21892e-09
5.22043e-08
2.31502e-09
5.23267e-08
2.38686e-09
5.24451e-08
2.43545e-09
5.25568e-08
2.46262e-09
5.26599e-08
2.47078e-09
5.2753e-08
2.46272e-09
5.28356e-08
2.44143e-09
5.29076e-08
2.40988e-09
5.29692e-08
2.37088e-09
5.30211e-08
2.32691e-09
5.30642e-08
2.28012e-09
5.30996e-08
2.23222e-09
5.31282e-08
2.18455e-09
5.31511e-08
2.13806e-09
5.31691e-08
2.09339e-09
5.31831e-08
2.05092e-09
5.31938e-08
2.01083e-09
5.32017e-08
1.97315e-09
5.32074e-08
1.93781e-09
5.32113e-08
1.90469e-09
5.32137e-08
1.87363e-09
5.32147e-08
1.84445e-09
5.32148e-08
1.81698e-09
5.32139e-08
1.79107e-09
5.32123e-08
1.76654e-09
5.321e-08
1.74328e-09
5.32071e-08
1.72115e-09
5.32037e-08
1.70005e-09
5.31999e-08
1.67989e-09
5.31957e-08
1.66058e-09
5.31911e-08
1.64205e-09
5.31862e-08
1.62422e-09
5.3181e-08
1.60706e-09
5.31755e-08
1.5905e-09
5.31697e-08
1.5745e-09
5.31637e-08
1.55901e-09
5.31574e-08
1.544e-09
5.31509e-08
1.52944e-09
5.31442e-08
1.51529e-09
5.31372e-08
1.50153e-09
5.31299e-08
1.48812e-09
5.31225e-08
1.47505e-09
5.31147e-08
1.46228e-09
5.31068e-08
1.44981e-09
5.30985e-08
1.4376e-09
5.309e-08
1.42565e-09
5.30811e-08
1.41392e-09
5.3072e-08
1.4024e-09
5.30625e-08
1.39107e-09
5.30527e-08
1.37992e-09
5.30426e-08
1.36893e-09
5.30321e-08
1.35808e-09
5.30212e-08
1.34735e-09
5.301e-08
1.33673e-09
5.29983e-08
1.3262e-09
5.29862e-08
1.31575e-09
5.29737e-08
1.30535e-09
5.29607e-08
1.29498e-09
5.29473e-08
1.28464e-09
5.29334e-08
1.2743e-09
5.2919e-08
1.26394e-09
5.29041e-08
1.25355e-09
5.28886e-08
1.24311e-09
5.28727e-08
1.2326e-09
5.28562e-08
1.222e-09
5.28391e-08
1.21129e-09
5.28215e-08
1.20045e-09
5.28033e-08
1.18946e-09
5.27845e-08
1.17831e-09
5.27651e-08
1.16698e-09
5.27452e-08
1.15544e-09
5.27246e-08
1.14369e-09
5.27034e-08
1.1317e-09
5.26817e-08
1.11945e-09
5.26593e-08
1.10694e-09
5.26363e-08
1.09416e-09
5.26126e-08
1.08108e-09
5.25884e-08
1.0677e-09
5.25635e-08
1.05402e-09
5.2538e-08
1.04003e-09
5.25119e-08
1.02573e-09
5.24852e-08
1.01113e-09
5.24579e-08
9.96254e-10
5.243e-08
9.81107e-10
5.24014e-08
9.65723e-10
5.23723e-08
9.50142e-10
5.23425e-08
9.34417e-10
5.23121e-08
9.18615e-10
5.22812e-08
9.02826e-10
5.22496e-08
8.87155e-10
5.22175e-08
8.71723e-10
5.21849e-08
8.56632e-10
5.2152e-08
8.41866e-10
5.2119e-08
8.26999e-10
5.20857e-08
8.1047e-10
7.88013e-10
5.37162e-08
1.72206e-09
-5.36415e-08
5.38062e-08
1.86655e-09
5.39083e-08
1.99669e-09
5.40183e-08
2.10896e-09
5.41321e-08
2.20123e-09
5.42461e-08
2.27283e-09
5.43573e-08
2.32423e-09
5.44632e-08
2.3567e-09
5.45619e-08
2.37206e-09
5.46522e-08
2.37251e-09
5.47331e-08
2.36048e-09
5.48045e-08
2.33846e-09
5.48666e-08
2.30884e-09
5.49197e-08
2.2738e-09
5.49645e-08
2.23526e-09
5.5002e-08
2.19479e-09
5.50328e-08
2.15367e-09
5.5058e-08
2.11287e-09
5.50784e-08
2.07306e-09
5.50946e-08
2.0347e-09
5.51074e-08
1.99805e-09
5.51173e-08
1.96324e-09
5.51248e-08
1.93029e-09
5.51303e-08
1.89915e-09