/*--------------------------------*- C++ -*----------------------------------*\
| =========                 |                                                 |
| \\      /  F ield         | OpenFOAM: The Open Source CFD Toolbox           |
|  \\    /   O peration     | Version:  2.3.0                                 |
|   \\  /    A nd           | Web:      www.OpenFOAM.org                      |
|    \\/     M anipulation  |                                                 |
\*---------------------------------------------------------------------------*/
FoamFile
{
    version     2.0;
    format      ascii;
    class       volVectorField;
    location    "0.6";
    object      U;
}
// * * * * * * * * * * * * * * * * * * * * * * * * * * * * * * * * * * * * * //

dimensions      [0 1 -1 0 0 0 0];

internalField   nonuniform List<vector> 
2889
(
(0.173575 0.00566411 0)
(0.156963 0.00590263 0)
(0.141232 0.00557698 0)
(0.126265 0.0050188 0)
(0.112435 0.00438 0)
(0.099965 0.00372365 0)
(0.0888949 0.00308808 0)
(0.0791972 0.0025001 0)
(0.0708186 0.00197662 0)
(0.0636795 0.0015266 0)
(0.0576719 0.00115268 0)
(0.0526673 0.000852262 0)
(0.0485279 0.000618697 0)
(0.0451157 0.000442807 0)
(0.0423011 0.000314387 0)
(0.0399674 0.000223435 0)
(0.0380143 0.00016095 0)
(0.0363585 0.000119321 0)
(0.0349333 9.24279e-05 0)
(0.0336869 7.5554e-05 0)
(0.0325797 6.52093e-05 0)
(0.0315823 5.89169e-05 0)
(0.0306731 5.49956e-05 0)
(0.0298363 5.236e-05 0)
(0.0290603 5.0349e-05 0)
(0.0283365 4.85888e-05 0)
(0.0276585 4.68896e-05 0)
(0.0270213 4.51721e-05 0)
(0.0264208 4.3418e-05 0)
(0.0258536 4.16389e-05 0)
(0.0253169 3.98577e-05 0)
(0.0248083 3.80986e-05 0)
(0.0243255 3.63824e-05 0)
(0.0238665 3.47246e-05 0)
(0.0234295 3.31355e-05 0)
(0.0230129 3.16212e-05 0)
(0.0226154 3.01839e-05 0)
(0.0222354 2.88237e-05 0)
(0.0218719 2.75386e-05 0)
(0.0215236 2.63257e-05 0)
(0.0211897 2.51814e-05 0)
(0.0208693 2.41019e-05 0)
(0.0205614 2.30832e-05 0)
(0.0202653 2.21214e-05 0)
(0.0199803 2.12127e-05 0)
(0.0197058 2.03536e-05 0)
(0.0194412 1.95408e-05 0)
(0.019186 1.87711e-05 0)
(0.0189396 1.80418e-05 0)
(0.0187017 1.73501e-05 0)
(0.0184716 1.66935e-05 0)
(0.0182492 1.60698e-05 0)
(0.018034 1.54769e-05 0)
(0.0178256 1.49127e-05 0)
(0.0176237 1.43754e-05 0)
(0.0174281 1.38634e-05 0)
(0.0172384 1.33751e-05 0)
(0.0170545 1.2909e-05 0)
(0.016876 1.24637e-05 0)
(0.0167028 1.2038e-05 0)
(0.0165345 1.16308e-05 0)
(0.0163711 1.12408e-05 0)
(0.0162124 1.08672e-05 0)
(0.016058 1.05089e-05 0)
(0.015908 1.01651e-05 0)
(0.0157622 9.83502e-06 0)
(0.0156204 9.5178e-06 0)
(0.0154824 9.21278e-06 0)
(0.0153482 8.91933e-06 0)
(0.0152176 8.63685e-06 0)
(0.0150905 8.36479e-06 0)
(0.0149669 8.10265e-06 0)
(0.0148465 7.84999e-06 0)
(0.0147294 7.60639e-06 0)
(0.0146155 7.37149e-06 0)
(0.0145045 7.14497e-06 0)
(0.0143966 6.92654e-06 0)
(0.0142916 6.71597e-06 0)
(0.0141894 6.51308e-06 0)
(0.0140899 6.3177e-06 0)
(0.0139932 6.12976e-06 0)
(0.013899 5.94919e-06 0)
(0.0138075 5.77601e-06 0)
(0.0137184 5.61028e-06 0)
(0.0136318 5.45213e-06 0)
(0.0135475 5.30178e-06 0)
(0.0134656 5.15951e-06 0)
(0.0133858 5.02569e-06 0)
(0.0133082 4.9009e-06 0)
(0.0132327 4.78582e-06 0)
(0.0131591 4.6814e-06 0)
(0.0130873 4.58902e-06 0)
(0.0130173 4.51075e-06 0)
(0.0129488 4.44991e-06 0)
(0.0128817 4.4124e-06 0)
(0.0128156 4.41027e-06 0)
(0.01275 4.47553e-06 0)
(0.0126835 4.64716e-06 0)
(0.0126241 4.49545e-06 0)
(0.0124552 2.4084e-05 0)
(0.192744 0.00906215 0)
(0.190447 0.00979746 0)
(0.186688 0.00969134 0)
(0.181676 0.00923614 0)
(0.175864 0.0086272 0)
(0.169619 0.00792527 0)
(0.163175 0.00716807 0)
(0.156701 0.00639019 0)
(0.150332 0.00562141 0)
(0.144169 0.00488614 0)
(0.138283 0.00420362 0)
(0.132716 0.00358742 0)
(0.12749 0.00304517 0)
(0.122612 0.00257892 0)
(0.118074 0.00218605 0)
(0.113864 0.00186053 0)
(0.109962 0.00159428 0)
(0.106347 0.00137832 0)
(0.102997 0.00120381 0)
(0.0998868 0.00106261 0)
(0.0969963 0.000947701 0)
(0.0943045 0.000853268 0)
(0.0917924 0.000774676 0)
(0.0894429 0.000708336 0)
(0.0872405 0.000651525 0)
(0.0851715 0.000602212 0)
(0.0832235 0.000558891 0)
(0.0813857 0.000520447 0)
(0.0796485 0.000486047 0)
(0.0780032 0.00045506 0)
(0.0764424 0.000427 0)
(0.0749592 0.000401478 0)
(0.0735475 0.000378181 0)
(0.072202 0.000356848 0)
(0.0709179 0.000337259 0)
(0.0696906 0.000319225 0)
(0.0685163 0.000302581 0)
(0.0673915 0.000287184 0)
(0.0663128 0.00027291 0)
(0.0652774 0.000259647 0)
(0.0642826 0.000247298 0)
(0.0633259 0.000235778 0)
(0.062405 0.000225012 0)
(0.061518 0.000214931 0)
(0.0606629 0.000205477 0)
(0.0598379 0.000196597 0)
(0.0590416 0.000188243 0)
(0.0582724 0.000180372 0)
(0.0575289 0.000172948 0)
(0.0568098 0.000165935 0)
(0.056114 0.000159303 0)
(0.0554403 0.000153024 0)
(0.0547878 0.000147073 0)
(0.0541555 0.000141425 0)
(0.0535424 0.000136061 0)
(0.0529477 0.000130959 0)
(0.0523707 0.000126104 0)
(0.0518107 0.000121477 0)
(0.0512668 0.000117065 0)
(0.0507386 0.000112853 0)
(0.0502254 0.000108828 0)
(0.0497266 0.000104978 0)
(0.0492418 0.000101293 0)
(0.0487703 9.77609e-05 0)
(0.0483119 9.43736e-05 0)
(0.0478659 9.11218e-05 0)
(0.0474321 8.79973e-05 0)
(0.04701 8.49924e-05 0)
(0.0465993 8.21001e-05 0)
(0.0461997 7.93137e-05 0)
(0.0458108 7.66273e-05 0)
(0.0454324 7.40351e-05 0)
(0.0450641 7.1532e-05 0)
(0.0447058 6.91132e-05 0)
(0.0443572 6.67743e-05 0)
(0.0440181 6.45114e-05 0)
(0.0436882 6.23207e-05 0)
(0.0433673 6.0199e-05 0)
(0.0430554 5.81435e-05 0)
(0.0427521 5.61516e-05 0)
(0.0424574 5.42213e-05 0)
(0.042171 5.23509e-05 0)
(0.0418929 5.05389e-05 0)
(0.0416228 4.87846e-05 0)
(0.0413606 4.70874e-05 0)
(0.0411061 4.54477e-05 0)
(0.0408593 4.38661e-05 0)
(0.0406199 4.2344e-05 0)
(0.0403878 4.08837e-05 0)
(0.0401627 3.94887e-05 0)
(0.0399445 3.81639e-05 0)
(0.039733 3.69167e-05 0)
(0.0395278 3.5758e-05 0)
(0.0393286 3.47056e-05 0)
(0.039135 3.37916e-05 0)
(0.0389463 3.30819e-05 0)
(0.0387615 3.27387e-05 0)
(0.0385779 3.31643e-05 0)
(0.0384045 3.68573e-05 0)
(0.0380704 8.22225e-05 0)
(0.195703 0.00869921 0)
(0.196504 0.00980708 0)
(0.196752 0.0102438 0)
(0.19623 0.0102969 0)
(0.195011 0.0101086 0)
(0.193217 0.00972935 0)
(0.190942 0.00920154 0)
(0.188274 0.00857279 0)
(0.185302 0.00788826 0)
(0.182112 0.00718663 0)
(0.178781 0.0064992 0)
(0.175372 0.00584935 0)
(0.171936 0.00525242 0)
(0.168516 0.0047164 0)
(0.165139 0.0042432 0)
(0.161828 0.00383028 0)
(0.158596 0.00347235 0)
(0.155453 0.00316272 0)
(0.152402 0.00289443 0)
(0.149445 0.00266089 0)
(0.146584 0.00245631 0)
(0.143816 0.00227578 0)
(0.14114 0.00211528 0)
(0.138554 0.00197158 0)
(0.136055 0.00184213 0)
(0.13364 0.00172489 0)
(0.131307 0.00161822 0)
(0.129053 0.00152081 0)
(0.126875 0.00143157 0)
(0.124771 0.00134962 0)
(0.122738 0.00127417 0)
(0.120773 0.00120457 0)
(0.118874 0.00114026 0)
(0.117037 0.00108071 0)
(0.115262 0.00102548 0)
(0.113544 0.000974176 0)
(0.111882 0.000926436 0)
(0.110274 0.000881942 0)
(0.108717 0.000840407 0)
(0.10721 0.000801576 0)
(0.105749 0.000765217 0)
(0.104334 0.000731123 0)
(0.102963 0.000699109 0)
(0.101632 0.000669006 0)
(0.100342 0.000640663 0)
(0.0990904 0.000613944 0)
(0.0978753 0.000588724 0)
(0.0966955 0.000564892 0)
(0.0955497 0.000542346 0)
(0.0944365 0.000520992 0)
(0.0933546 0.000500746 0)
(0.092303 0.000481532 0)
(0.0912804 0.000463277 0)
(0.0902857 0.000445918 0)
(0.0893181 0.000429394 0)
(0.0883764 0.00041365 0)
(0.0874599 0.000398635 0)
(0.0865676 0.000384302 0)
(0.0856987 0.000370608 0)
(0.0848524 0.000357512 0)
(0.0840281 0.000344977 0)
(0.083225 0.000332968 0)
(0.0824424 0.000321452 0)
(0.0816798 0.0003104 0)
(0.0809366 0.000299783 0)
(0.0802122 0.000289575 0)
(0.0795061 0.000279751 0)
(0.0788178 0.000270289 0)
(0.0781469 0.000261167 0)
(0.0774929 0.000252366 0)
(0.0768554 0.000243866 0)
(0.0762341 0.00023565 0)
(0.0756286 0.000227704 0)
(0.0750386 0.00022001 0)
(0.0744638 0.000212557 0)
(0.0739038 0.000205331 0)
(0.0733585 0.00019832 0)
(0.0728275 0.000191515 0)
(0.0723107 0.000184905 0)
(0.0718078 0.000178482 0)
(0.0713185 0.000172239 0)
(0.0708428 0.000166169 0)
(0.0703805 0.000160267 0)
(0.0699313 0.00015453 0)
(0.069495 0.000148955 0)
(0.0690716 0.00014354 0)
(0.0686608 0.000138286 0)
(0.0682624 0.000133196 0)
(0.0678763 0.000128273 0)
(0.0675022 0.000123527 0)
(0.0671399 0.000118968 0)
(0.0667891 0.000114613 0)
(0.0664496 0.000110489 0)
(0.0661208 0.000106639 0)
(0.0658023 0.000103138 0)
(0.0654934 0.000100144 0)
(0.0651926 9.80399e-05 0)
(0.0648973 9.7977e-05 0)
(0.0646126 0.000107392 0)
(0.0641788 0.00016341 0)
(0.196729 0.00806314 0)
(0.197884 0.00920862 0)
(0.198985 0.0098507 0)
(0.199797 0.0101441 0)
(0.200271 0.0101932 0)
(0.200409 0.0100419 0)
(0.200212 0.00972484 0)
(0.199686 0.00928263 0)
(0.198851 0.00875651 0)
(0.197742 0.00818374 0)
(0.196399 0.00759609 0)
(0.194863 0.00701901 0)
(0.193175 0.00647109 0)
(0.19137 0.00596411 0)
(0.189479 0.00550397 0)
(0.187529 0.00509189 0)
(0.185538 0.00472582 0)
(0.183523 0.00440177 0)
(0.181496 0.00411478 0)
(0.179465 0.00385972 0)
(0.177437 0.00363174 0)
(0.175417 0.00342656 0)
(0.173408 0.00324052 0)
(0.171413 0.00307063 0)
(0.169435 0.00291447 0)
(0.167476 0.00277012 0)
(0.165538 0.00263604 0)
(0.163622 0.00251104 0)
(0.16173 0.00239413 0)
(0.159863 0.00228452 0)
(0.158023 0.00218156 0)
(0.156209 0.00208468 0)
(0.154423 0.00199341 0)
(0.152666 0.00190733 0)
(0.150938 0.00182605 0)
(0.14924 0.00174924 0)
(0.147571 0.0016766 0)
(0.145932 0.00160783 0)
(0.144323 0.00154269 0)
(0.142744 0.00148092 0)
(0.141195 0.00142233 0)
(0.139676 0.00136669 0)
(0.138186 0.00131384 0)
(0.136726 0.00126358 0)
(0.135294 0.00121577 0)
(0.133892 0.00117026 0)
(0.132517 0.0011269 0)
(0.13117 0.00108556 0)
(0.129851 0.00104613 0)
(0.128559 0.0010085 0)
(0.127294 0.000972555 0)
(0.126054 0.000938204 0)
(0.124841 0.000905354 0)
(0.123652 0.000873919 0)
(0.122488 0.000843818 0)
(0.121348 0.000814978 0)
(0.120232 0.000787325 0)
(0.11914 0.000760794 0)
(0.11807 0.000735323 0)
(0.117023 0.000710851 0)
(0.115997 0.000687324 0)
(0.114994 0.000664688 0)
(0.114011 0.000642895 0)
(0.113049 0.000621897 0)
(0.112108 0.000601651 0)
(0.111187 0.000582115 0)
(0.110285 0.000563249 0)
(0.109403 0.000545017 0)
(0.10854 0.000527384 0)
(0.107696 0.000510316 0)
(0.10687 0.000493783 0)
(0.106062 0.000477756 0)
(0.105273 0.000462206 0)
(0.104501 0.00044711 0)
(0.103747 0.000432442 0)
(0.10301 0.000418181 0)
(0.10229 0.000404305 0)
(0.101588 0.000390797 0)
(0.100902 0.000377639 0)
(0.100233 0.000364816 0)
(0.0995804 0.000352313 0)
(0.0989444 0.000340119 0)
(0.0983248 0.000328224 0)
(0.0977214 0.000316621 0)
(0.0971342 0.000305304 0)
(0.096563 0.000294269 0)
(0.0960077 0.000283517 0)
(0.0954682 0.000273051 0)
(0.0949444 0.000262879 0)
(0.0944362 0.000253011 0)
(0.0939432 0.000243468 0)
(0.0934655 0.000234278 0)
(0.0930026 0.000225485 0)
(0.0925542 0.00021716 0)
(0.0921198 0.000209427 0)
(0.0916987 0.000202544 0)
(0.0912896 0.000197138 0)
(0.0908904 0.00019518 0)
(0.0905047 0.000206333 0)
(0.0899937 0.000259572 0)
(0.19745 0.00755622 0)
(0.198472 0.0086068 0)
(0.199583 0.00927124 0)
(0.200618 0.0096373 0)
(0.201517 0.00978519 0)
(0.202258 0.00975443 0)
(0.202819 0.0095723 0)
(0.203179 0.00926953 0)
(0.203327 0.00887891 0)
(0.203267 0.00843157 0)
(0.203012 0.0079553 0)
(0.20258 0.00747355 0)
(0.201992 0.00700457 0)
(0.201272 0.00656112 0)
(0.200442 0.00615085 0)
(0.199521 0.00577707 0)
(0.198527 0.00543989 0)
(0.197472 0.00513722 0)
(0.196368 0.00486574 0)
(0.195224 0.00462162 0)
(0.194045 0.004401 0)
(0.192838 0.00420034 0)
(0.191606 0.00401654 0)
(0.190352 0.00384698 0)
(0.18908 0.00368953 0)
(0.187791 0.00354249 0)
(0.186489 0.00340448 0)
(0.185174 0.00327443 0)
(0.18385 0.00315148 0)
(0.182518 0.00303492 0)
(0.18118 0.0029242 0)
(0.179837 0.00281882 0)
(0.178492 0.00271839 0)
(0.177146 0.00262256 0)
(0.1758 0.00253101 0)
(0.174455 0.00244348 0)
(0.173114 0.00235972 0)
(0.171777 0.00227951 0)
(0.170445 0.00220264 0)
(0.16912 0.00212892 0)
(0.167802 0.0020582 0)
(0.166492 0.0019903 0)
(0.165191 0.00192508 0)
(0.163899 0.00186242 0)
(0.162619 0.00180217 0)
(0.161349 0.00174423 0)
(0.160091 0.00168848 0)
(0.158845 0.00163482 0)
(0.157611 0.00158316 0)
(0.15639 0.00153339 0)
(0.155183 0.00148544 0)
(0.153989 0.00143921 0)
(0.15281 0.00139464 0)
(0.151644 0.00135164 0)
(0.150493 0.00131014 0)
(0.149356 0.00127008 0)
(0.148235 0.00123139 0)
(0.147128 0.00119401 0)
(0.146036 0.00115787 0)
(0.144959 0.00112293 0)
(0.143897 0.00108911 0)
(0.142851 0.00105638 0)
(0.14182 0.00102468 0)
(0.140804 0.000993955 0)
(0.139803 0.000964167 0)
(0.138819 0.000935269 0)
(0.137849 0.000907216 0)
(0.136895 0.000879969 0)
(0.135957 0.000853487 0)
(0.135034 0.000827732 0)
(0.134127 0.000802669 0)
(0.133235 0.000778264 0)
(0.132359 0.000754483 0)
(0.131498 0.000731296 0)
(0.130654 0.000708673 0)
(0.129825 0.000686589 0)
(0.129011 0.000665016 0)
(0.128214 0.000643931 0)
(0.127432 0.000623314 0)
(0.126667 0.000603143 0)
(0.125917 0.000583403 0)
(0.125183 0.000564077 0)
(0.124466 0.000545153 0)
(0.123764 0.000526622 0)
(0.123079 0.000508477 0)
(0.12241 0.000490715 0)
(0.121758 0.000473336 0)
(0.121121 0.000456346 0)
(0.120502 0.000439756 0)
(0.119898 0.000423585 0)
(0.119311 0.000407861 0)
(0.11874 0.000392625 0)
(0.118185 0.000377941 0)
(0.117646 0.000363908 0)
(0.117123 0.000350701 0)
(0.116614 0.000338672 0)
(0.11612 0.00032866 0)
(0.115639 0.000323169 0)
(0.115175 0.000331456 0)
(0.114606 0.000371777 0)
(0.198052 0.00711053 0)
(0.198907 0.00804229 0)
(0.19988 0.00868101 0)
(0.200853 0.00907029 0)
(0.201775 0.00926602 0)
(0.202619 0.00930189 0)
(0.203365 0.0092012 0)
(0.20399 0.00898887 0)
(0.20448 0.00869201 0)
(0.20483 0.00833706 0)
(0.205039 0.00794807 0)
(0.205117 0.00754578 0)
(0.205073 0.0071469 0)
(0.204922 0.00676371 0)
(0.204678 0.00640421 0)
(0.204353 0.00607264 0)
(0.203961 0.0057703 0)
(0.203511 0.00549641 0)
(0.203012 0.00524885 0)
(0.20247 0.00502483 0)
(0.201891 0.00482134 0)
(0.201278 0.00463547 0)
(0.200634 0.0044646 0)
(0.199962 0.00430644 0)
(0.199262 0.00415909 0)
(0.198538 0.00402098 0)
(0.19779 0.00389085 0)
(0.19702 0.00376768 0)
(0.196229 0.00365066 0)
(0.195418 0.00353913 0)
(0.194588 0.00343254 0)
(0.193741 0.00333047 0)
(0.192878 0.00323255 0)
(0.191999 0.00313845 0)
(0.191107 0.00304792 0)
(0.190202 0.00296071 0)
(0.189285 0.00287662 0)
(0.188358 0.00279547 0)
(0.187421 0.00271708 0)
(0.186476 0.00264132 0)
(0.185523 0.00256805 0)
(0.184563 0.00249714 0)
(0.183598 0.00242849 0)
(0.182628 0.00236198 0)
(0.181655 0.00229753 0)
(0.180678 0.00223506 0)
(0.179699 0.00217446 0)
(0.178718 0.00211568 0)
(0.177737 0.00205863 0)
(0.176755 0.00200325 0)
(0.175774 0.00194947 0)
(0.174794 0.00189724 0)
(0.173816 0.00184649 0)
(0.17284 0.00179717 0)
(0.171867 0.00174923 0)
(0.170897 0.0017026 0)
(0.169932 0.00165725 0)
(0.168971 0.00161311 0)
(0.168015 0.00157016 0)
(0.167064 0.00152833 0)
(0.166119 0.00148759 0)
(0.16518 0.00144789 0)
(0.164247 0.00140919 0)
(0.163322 0.00137144 0)
(0.162404 0.00133462 0)
(0.161493 0.00129867 0)
(0.160591 0.00126357 0)
(0.159697 0.00122927 0)
(0.158811 0.00119575 0)
(0.157934 0.00116296 0)
(0.157067 0.00113087 0)
(0.156209 0.00109945 0)
(0.155362 0.00106868 0)
(0.154524 0.00103851 0)
(0.153697 0.00100893 0)
(0.15288 0.000979906 0)
(0.152075 0.000951415 0)
(0.151281 0.000923433 0)
(0.150498 0.000895941 0)
(0.149727 0.000868919 0)
(0.148969 0.00084235 0)
(0.148223 0.000816221 0)
(0.147489 0.000790521 0)
(0.146768 0.000765241 0)
(0.146061 0.000740378 0)
(0.145367 0.000715932 0)
(0.144687 0.000691907 0)
(0.144021 0.000668314 0)
(0.143368 0.000645171 0)
(0.14273 0.000622506 0)
(0.142107 0.000600358 0)
(0.141498 0.000578784 0)
(0.140903 0.000557868 0)
(0.140323 0.000537737 0)
(0.139758 0.000518613 0)
(0.139206 0.000500918 0)
(0.138669 0.00048561 0)
(0.138145 0.000475228 0)
(0.137641 0.000476904 0)
(0.137048 0.000497837 0)
(0.198566 0.00672109 0)
(0.199286 0.00754222 0)
(0.200118 0.00814169 0)
(0.200982 0.00853429 0)
(0.20183 0.00875511 0)
(0.202634 0.00883117 0)
(0.203376 0.00878303 0)
(0.204036 0.00863199 0)
(0.204603 0.00840115 0)
(0.20507 0.00811337 0)
(0.205435 0.00778969 0)
(0.205702 0.00744844 0)
(0.205878 0.0071047 0)
(0.205972 0.00676996 0)
(0.205994 0.00645212 0)
(0.205954 0.00615587 0)
(0.205861 0.00588328 0)
(0.205723 0.00563449 0)
(0.205547 0.00540828 0)
(0.205337 0.00520269 0)
(0.205099 0.00501541 0)
(0.204834 0.00484408 0)
(0.204544 0.00468646 0)
(0.204233 0.00454055 0)
(0.203899 0.00440465 0)
(0.203544 0.00427729 0)
(0.20317 0.0041573 0)
(0.202775 0.0040437 0)
(0.202362 0.00393569 0)
(0.20193 0.00383263 0)
(0.201479 0.003734 0)
(0.201011 0.00363935 0)
(0.200526 0.00354832 0)
(0.200024 0.00346061 0)
(0.199505 0.00337595 0)
(0.198972 0.00329411 0)
(0.198423 0.0032149 0)
(0.19786 0.00313815 0)
(0.197282 0.00306371 0)
(0.196692 0.00299143 0)
(0.196089 0.00292119 0)
(0.195474 0.0028529 0)
(0.194847 0.00278644 0)
(0.194209 0.00272173 0)
(0.193561 0.00265869 0)
(0.192903 0.00259725 0)
(0.192236 0.00253734 0)
(0.191561 0.00247889 0)
(0.190877 0.00242185 0)
(0.190186 0.00236617 0)
(0.189487 0.00231178 0)
(0.188783 0.00225866 0)
(0.188072 0.00220674 0)
(0.187356 0.00215599 0)
(0.186635 0.00210636 0)
(0.18591 0.00205781 0)
(0.185181 0.00201032 0)
(0.184449 0.00196383 0)
(0.183714 0.00191831 0)
(0.182976 0.00187372 0)
(0.182237 0.00183004 0)
(0.181496 0.00178723 0)
(0.180755 0.00174525 0)
(0.180013 0.00170407 0)
(0.17927 0.00166366 0)
(0.178529 0.00162398 0)
(0.177788 0.00158502 0)
(0.177048 0.00154673 0)
(0.176311 0.00150909 0)
(0.175575 0.00147207 0)
(0.174842 0.00143564 0)
(0.174112 0.00139977 0)
(0.173386 0.00136444 0)
(0.172663 0.00132963 0)
(0.171945 0.00129531 0)
(0.171231 0.00126145 0)
(0.170522 0.00122805 0)
(0.16982 0.00119507 0)
(0.169123 0.0011625 0)
(0.168432 0.00113033 0)
(0.167748 0.00109854 0)
(0.167072 0.00106712 0)
(0.166402 0.00103607 0)
(0.165741 0.00100538 0)
(0.165089 0.000975057 0)
(0.164445 0.000945101 0)
(0.16381 0.000915524 0)
(0.163185 0.000886346 0)
(0.162569 0.000857594 0)
(0.161964 0.000829306 0)
(0.161369 0.000801534 0)
(0.160785 0.000774351 0)
(0.160212 0.00074786 0)
(0.15965 0.000722218 0)
(0.159099 0.000697675 0)
(0.158558 0.000674691 0)
(0.15803 0.000654206 0)
(0.157513 0.000638333 0)
(0.157017 0.000631285 0)
(0.156442 0.000630611 0)
(0.199004 0.00637871 0)
(0.199619 0.00710124 0)
(0.200331 0.00765518 0)
(0.201088 0.00803918 0)
(0.201848 0.0082729 0)
(0.202583 0.00837653 0)
(0.203274 0.00836752 0)
(0.203903 0.00826391 0)
(0.204461 0.00808525 0)
(0.204941 0.00785121 0)
(0.20534 0.00758017 0)
(0.205662 0.00728842 0)
(0.205912 0.00698958 0)
(0.206095 0.00669436 0)
(0.206221 0.00641047 0)
(0.206298 0.00614286 0)
(0.206332 0.00589419 0)
(0.206332 0.0056653 0)
(0.206303 0.00545576 0)
(0.20625 0.00526432 0)
(0.206175 0.00508928 0)
(0.206082 0.00492878 0)
(0.205972 0.00478099 0)
(0.205847 0.0046442 0)
(0.205708 0.00451688 0)
(0.205555 0.00439774 0)
(0.205389 0.00428567 0)
(0.20521 0.00417975 0)
(0.205017 0.0040792 0)
(0.204812 0.0039834 0)
(0.204594 0.00389182 0)
(0.204363 0.00380402 0)
(0.204119 0.00371963 0)
(0.203863 0.00363834 0)
(0.203594 0.00355987 0)
(0.203313 0.003484 0)
(0.20302 0.00341052 0)
(0.202715 0.00333925 0)
(0.202398 0.00327004 0)
(0.202069 0.00320276 0)
(0.201728 0.00313727 0)
(0.201377 0.00307346 0)
(0.201014 0.00301125 0)
(0.200641 0.00295053 0)
(0.200256 0.00289123 0)
(0.199862 0.00283328 0)
(0.199457 0.00277661 0)
(0.199042 0.00272116 0)
(0.198618 0.00266688 0)
(0.198185 0.00261371 0)
(0.197742 0.0025616 0)
(0.197291 0.00251051 0)
(0.196831 0.0024604 0)
(0.196363 0.00241123 0)
(0.195888 0.00236297 0)
(0.195405 0.00231556 0)
(0.194914 0.00226899 0)
(0.194417 0.00222321 0)
(0.193914 0.0021782 0)
(0.193404 0.00213392 0)
(0.192888 0.00209034 0)
(0.192367 0.00204744 0)
(0.191841 0.00200517 0)
(0.19131 0.00196353 0)
(0.190774 0.00192246 0)
(0.190235 0.00188196 0)
(0.189692 0.00184199 0)
(0.189145 0.00180252 0)
(0.188596 0.00176353 0)
(0.188044 0.001725 0)
(0.18749 0.00168689 0)
(0.186934 0.00164919 0)
(0.186376 0.00161188 0)
(0.185818 0.00157492 0)
(0.185259 0.00153831 0)
(0.1847 0.00150202 0)
(0.184141 0.00146603 0)
(0.183583 0.00143033 0)
(0.183025 0.0013949 0)
(0.182469 0.00135974 0)
(0.181915 0.00132482 0)
(0.181364 0.00129016 0)
(0.180815 0.00125573 0)
(0.180269 0.00122155 0)
(0.179726 0.00118762 0)
(0.179188 0.00115395 0)
(0.178654 0.00112056 0)
(0.178125 0.00108748 0)
(0.1776 0.00105474 0)
(0.177082 0.00102239 0)
(0.176569 0.000990494 0)
(0.176062 0.00095914 0)
(0.175562 0.00092845 0)
(0.175068 0.000898597 0)
(0.174581 0.00086985 0)
(0.174102 0.000842656 0)
(0.17363 0.000817818 0)
(0.173167 0.000796734 0)
(0.172722 0.000780723 0)
(0.172206 0.000760441 0)
(0.199375 0.00607195 0)
(0.199907 0.00670819 0)
(0.200521 0.00721513 0)
(0.201183 0.00758373 0)
(0.20186 0.007823 0)
(0.202524 0.00794675 0)
(0.203155 0.00796898 0)
(0.203739 0.00790463 0)
(0.204265 0.00776999 0)
(0.204727 0.00758182 0)
(0.205122 0.00735608 0)
(0.205452 0.00710715 0)
(0.205721 0.00684734 0)
(0.205934 0.00658656 0)
(0.206097 0.00633224 0)
(0.206218 0.00608948 0)
(0.206303 0.00586133 0)
(0.206359 0.00564923 0)
(0.20639 0.00545339 0)
(0.206402 0.00527318 0)
(0.206397 0.00510749 0)
(0.206379 0.00495493 0)
(0.206349 0.00481405 0)
(0.206308 0.00468345 0)
(0.206258 0.00456183 0)
(0.2062 0.00444805 0)
(0.206134 0.00434111 0)
(0.206059 0.00424016 0)
(0.205977 0.00414448 0)
(0.205887 0.00405346 0)
(0.20579 0.0039666 0)
(0.205685 0.00388347 0)
(0.205573 0.00380369 0)
(0.205452 0.00372696 0)
(0.205325 0.00365299 0)
(0.205189 0.00358157 0)
(0.205046 0.00351247 0)
(0.204895 0.00344551 0)
(0.204736 0.00338055 0)
(0.204569 0.00331743 0)
(0.204394 0.00325602 0)
(0.204212 0.00319621 0)
(0.204021 0.0031379 0)
(0.203823 0.00308099 0)
(0.203617 0.0030254 0)
(0.203402 0.00297105 0)
(0.203181 0.00291788 0)
(0.202951 0.00286581 0)
(0.202713 0.00281479 0)
(0.202468 0.00276476 0)
(0.202215 0.00271567 0)
(0.201955 0.00266748 0)
(0.201687 0.00262014 0)
(0.201412 0.00257361 0)
(0.201129 0.00252784 0)
(0.20084 0.00248281 0)
(0.200543 0.00243847 0)
(0.200239 0.00239479 0)
(0.199929 0.00235173 0)
(0.199612 0.00230926 0)
(0.199288 0.00226736 0)
(0.198958 0.00222598 0)
(0.198622 0.0021851 0)
(0.19828 0.00214469 0)
(0.197932 0.00210473 0)
(0.197579 0.00206518 0)
(0.19722 0.00202601 0)
(0.196857 0.0019872 0)
(0.196488 0.00194872 0)
(0.196115 0.00191055 0)
(0.195737 0.00187267 0)
(0.195356 0.00183504 0)
(0.19497 0.00179765 0)
(0.194581 0.00176047 0)
(0.194188 0.00172349 0)
(0.193793 0.00168669 0)
(0.193394 0.00165004 0)
(0.192994 0.00161353 0)
(0.192591 0.00157716 0)
(0.192186 0.0015409 0)
(0.19178 0.00150476 0)
(0.191373 0.00146872 0)
(0.190965 0.00143279 0)
(0.190557 0.00139697 0)
(0.190149 0.00136126 0)
(0.189741 0.0013257 0)
(0.189333 0.00129029 0)
(0.188926 0.00125507 0)
(0.188521 0.00122008 0)
(0.188117 0.00118539 0)
(0.187715 0.00115105 0)
(0.187316 0.00111718 0)
(0.186918 0.00108391 0)
(0.186524 0.00105141 0)
(0.186132 0.00101996 0)
(0.185744 0.000989951 0)
(0.18536 0.000961967 0)
(0.184982 0.000936632 0)
(0.184616 0.000912986 0)
(0.184187 0.000878217 0)
(0.199687 0.00579291 0)
(0.200152 0.00635482 0)
(0.200686 0.00681643 0)
(0.201266 0.0071659 0)
(0.201867 0.00740539 0)
(0.202464 0.00754343 0)
(0.203038 0.00759066 0)
(0.203574 0.00755916 0)
(0.204064 0.00746234 0)
(0.2045 0.00731429 0)
(0.20488 0.00712872 0)
(0.205204 0.00691825 0)
(0.205474 0.00669386 0)
(0.205695 0.00646465 0)
(0.205871 0.00623767 0)
(0.20601 0.00601801 0)
(0.206116 0.005809 0)
(0.206195 0.00561252 0)
(0.206252 0.00542928 0)
(0.206291 0.00525922 0)
(0.206316 0.00510171 0)
(0.206328 0.00495582 0)
(0.206331 0.00482046 0)
(0.206326 0.00469454 0)
(0.206314 0.00457699 0)
(0.206295 0.00446683 0)
(0.206271 0.0043632 0)
(0.206242 0.00426535 0)
(0.206209 0.00417261 0)
(0.206171 0.00408444 0)
(0.206128 0.00400035 0)
(0.206082 0.00391994 0)
(0.206031 0.00384285 0)
(0.205976 0.00376878 0)
(0.205917 0.00369748 0)
(0.205853 0.0036287 0)
(0.205786 0.00356225 0)
(0.205714 0.00349794 0)
(0.205638 0.00343561 0)
(0.205558 0.00337513 0)
(0.205473 0.00331637 0)
(0.205384 0.00325919 0)
(0.20529 0.00320351 0)
(0.205191 0.00314923 0)
(0.205088 0.00309626 0)
(0.20498 0.00304451 0)
(0.204868 0.00299392 0)
(0.20475 0.00294442 0)
(0.204628 0.00289594 0)
(0.2045 0.00284843 0)
(0.204368 0.00280183 0)
(0.20423 0.00275609 0)
(0.204087 0.00271116 0)
(0.20394 0.002667 0)
(0.203787 0.00262357 0)
(0.203628 0.00258081 0)
(0.203465 0.00253869 0)
(0.203296 0.00249718 0)
(0.203123 0.00245623 0)
(0.202944 0.0024158 0)
(0.20276 0.00237587 0)
(0.20257 0.0023364 0)
(0.202376 0.00229736 0)
(0.202176 0.00225871 0)
(0.201972 0.00222041 0)
(0.201762 0.00218245 0)
(0.201548 0.00214479 0)
(0.201329 0.0021074 0)
(0.201105 0.00207025 0)
(0.200877 0.00203332 0)
(0.200644 0.00199656 0)
(0.200406 0.00195997 0)
(0.200165 0.00192352 0)
(0.199919 0.00188718 0)
(0.199669 0.00185092 0)
(0.199415 0.00181473 0)
(0.199158 0.0017786 0)
(0.198897 0.00174249 0)
(0.198633 0.00170641 0)
(0.198366 0.00167033 0)
(0.198096 0.00163424 0)
(0.197823 0.00159815 0)
(0.197548 0.00156206 0)
(0.19727 0.00152596 0)
(0.19699 0.00148987 0)
(0.196709 0.00145381 0)
(0.196426 0.0014178 0)
(0.196141 0.00138187 0)
(0.195855 0.00134608 0)
(0.195568 0.00131048 0)
(0.195281 0.00127516 0)
(0.194993 0.00124022 0)
(0.194704 0.0012058 0)
(0.194416 0.00117208 0)
(0.194127 0.00113931 0)
(0.193839 0.00110781 0)
(0.193552 0.00107793 0)
(0.193268 0.00104965 0)
(0.192992 0.00102063 0)
(0.19266 0.000977797 0)
(0.199946 0.00553616 0)
(0.200357 0.00603458 0)
(0.200824 0.00645409 0)
(0.201333 0.00678266 0)
(0.201867 0.00701844 0)
(0.202402 0.00716597 0)
(0.202922 0.00723292 0)
(0.203413 0.00722879 0)
(0.203867 0.00716448 0)
(0.204275 0.00705167 0)
(0.204637 0.00690201 0)
(0.204949 0.00672642 0)
(0.205215 0.00653465 0)
(0.205436 0.00633491 0)
(0.205618 0.00613382 0)
(0.205765 0.00593634 0)
(0.205881 0.00574593 0)
(0.205972 0.00556478 0)
(0.206042 0.00539403 0)
(0.206095 0.00523403 0)
(0.206133 0.0050846 0)
(0.20616 0.0049452 0)
(0.206178 0.00481509 0)
(0.206188 0.00469344 0)
(0.206191 0.00457943 0)
(0.206189 0.00447226 0)
(0.206183 0.0043712 0)
(0.206173 0.0042756 0)
(0.206159 0.00418488 0)
(0.206142 0.00409854 0)
(0.206123 0.00401616 0)
(0.2061 0.00393735 0)
(0.206076 0.00386179 0)
(0.206049 0.0037892 0)
(0.206019 0.00371932 0)
(0.205988 0.00365195 0)
(0.205954 0.00358688 0)
(0.205919 0.00352395 0)
(0.205881 0.003463 0)
(0.205841 0.00340389 0)
(0.205799 0.00334651 0)
(0.205755 0.00329073 0)
(0.205708 0.00323646 0)
(0.205659 0.00318361 0)
(0.205608 0.00313207 0)
(0.205555 0.00308179 0)
(0.205499 0.00303268 0)
(0.205441 0.00298467 0)
(0.20538 0.0029377 0)
(0.205317 0.00289172 0)
(0.205251 0.00284666 0)
(0.205182 0.00280248 0)
(0.205111 0.00275911 0)
(0.205036 0.00271653 0)
(0.204959 0.00267467 0)
(0.204878 0.00263349 0)
(0.204795 0.00259296 0)
(0.204708 0.00255302 0)
(0.204618 0.00251364 0)
(0.204525 0.00247479 0)
(0.204429 0.00243641 0)
(0.20433 0.00239848 0)
(0.204227 0.00236096 0)
(0.20412 0.00232382 0)
(0.20401 0.00228701 0)
(0.203897 0.0022505 0)
(0.20378 0.00221426 0)
(0.20366 0.00217826 0)
(0.203536 0.00214247 0)
(0.203409 0.00210685 0)
(0.203279 0.00207137 0)
(0.203144 0.002036 0)
(0.203007 0.00200073 0)
(0.202866 0.00196551 0)
(0.202721 0.00193033 0)
(0.202574 0.00189516 0)
(0.202423 0.00185997 0)
(0.202268 0.00182476 0)
(0.202111 0.00178951 0)
(0.201951 0.00175419 0)
(0.201787 0.0017188 0)
(0.201621 0.00168334 0)
(0.201451 0.0016478 0)
(0.201279 0.00161218 0)
(0.201104 0.00157651 0)
(0.200927 0.00154078 0)
(0.200747 0.00150504 0)
(0.200565 0.00146931 0)
(0.200381 0.00143365 0)
(0.200194 0.00139812 0)
(0.200006 0.00136281 0)
(0.199815 0.00132781 0)
(0.199623 0.00129328 0)
(0.199429 0.00125938 0)
(0.199233 0.00122633 0)
(0.199036 0.00119438 0)
(0.198838 0.00116366 0)
(0.198641 0.00113373 0)
(0.198448 0.00110181 0)
(0.198205 0.00105686 0)
(0.20016 0.00529787 0)
(0.200526 0.00574222 0)
(0.200936 0.00612355 0)
(0.201384 0.00643085 0)
(0.201858 0.00666023 0)
(0.202337 0.00681342 0)
(0.202807 0.00689562 0)
(0.203255 0.00691409 0)
(0.203673 0.00687754 0)
(0.204055 0.00679554 0)
(0.204396 0.00667786 0)
(0.204695 0.00653386 0)
(0.204953 0.00637207 0)
(0.205172 0.00619987 0)
(0.205356 0.00602337 0)
(0.205506 0.0058473 0)
(0.205629 0.00567515 0)
(0.205728 0.00550931 0)
(0.205806 0.0053512 0)
(0.205867 0.00520154 0)
(0.205914 0.0050605 0)
(0.20595 0.00492788 0)
(0.205975 0.00480326 0)
(0.205994 0.00468606 0)
(0.206005 0.00457568 0)
(0.206012 0.00447149 0)
(0.206014 0.00437291 0)
(0.206012 0.00427939 0)
(0.206007 0.00419043 0)
(0.205999 0.00410561 0)
(0.205989 0.00402455 0)
(0.205977 0.0039469 0)
(0.205963 0.00387237 0)
(0.205947 0.0038007 0)
(0.20593 0.00373166 0)
(0.205912 0.00366507 0)
(0.205892 0.00360072 0)
(0.205871 0.00353847 0)
(0.205849 0.00347818 0)
(0.205827 0.00341971 0)
(0.205803 0.00336294 0)
(0.205778 0.00330778 0)
(0.205752 0.00325412 0)
(0.205726 0.00320188 0)
(0.205698 0.00315097 0)
(0.20567 0.00310132 0)
(0.20564 0.00305286 0)
(0.20561 0.00300552 0)
(0.205579 0.00295924 0)
(0.205546 0.00291396 0)
(0.205512 0.00286962 0)
(0.205478 0.00282618 0)
(0.205442 0.00278359 0)
(0.205404 0.00274179 0)
(0.205366 0.00270074 0)
(0.205326 0.0026604 0)
(0.205285 0.00262072 0)
(0.205242 0.00258166 0)
(0.205197 0.00254317 0)
(0.205151 0.00250523 0)
(0.205104 0.00246778 0)
(0.205055 0.00243079 0)
(0.205003 0.00239422 0)
(0.20495 0.00235803 0)
(0.204896 0.0023222 0)
(0.204839 0.00228667 0)
(0.20478 0.00225141 0)
(0.204719 0.0022164 0)
(0.204657 0.00218159 0)
(0.204592 0.00214696 0)
(0.204524 0.00211246 0)
(0.204455 0.00207807 0)
(0.204384 0.00204376 0)
(0.20431 0.0020095 0)
(0.204234 0.00197526 0)
(0.204155 0.00194102 0)
(0.204074 0.00190675 0)
(0.203991 0.00187243 0)
(0.203906 0.00183804 0)
(0.203818 0.00180357 0)
(0.203728 0.001769 0)
(0.203635 0.00173434 0)
(0.20354 0.00169956 0)
(0.203442 0.00166469 0)
(0.203343 0.00162972 0)
(0.20324 0.00159467 0)
(0.203136 0.00155958 0)
(0.203029 0.00152447 0)
(0.202919 0.0014894 0)
(0.202808 0.00145443 0)
(0.202694 0.00141965 0)
(0.202577 0.00138516 0)
(0.202459 0.0013511 0)
(0.202337 0.00131762 0)
(0.202214 0.00128493 0)
(0.202089 0.00125318 0)
(0.201962 0.00122238 0)
(0.201834 0.00119191 0)
(0.201706 0.0011592 0)