/*--------------------------------*- C++ -*----------------------------------*\
| =========                 |                                                 |
| \\      /  F ield         | OpenFOAM: The Open Source CFD Toolbox           |
|  \\    /   O peration     | Version:  2.3.0                                 |
|   \\  /    A nd           | Web:      www.OpenFOAM.org                      |
|    \\/     M anipulation  |                                                 |
\*---------------------------------------------------------------------------*/
FoamFile
{
    version     2.0;
    format      ascii;
    class       volVectorField;
    location    "0.6";
    object      U_0;
}
// * * * * * * * * * * * * * * * * * * * * * * * * * * * * * * * * * * * * * //

dimensions      [0 1 -1 0 0 0 0];

internalField   nonuniform List<vector> 
2889
(
(0.173575 0.00566411 0)
(0.156963 0.00590263 0)
(0.141232 0.00557698 0)
(0.126265 0.0050188 0)
(0.112435 0.00438 0)
(0.099965 0.00372365 0)
(0.0888949 0.00308808 0)
(0.0791972 0.00250009 0)
(0.0708187 0.00197662 0)
(0.0636795 0.0015266 0)
(0.0576719 0.00115268 0)
(0.0526674 0.000852262 0)
(0.0485279 0.000618697 0)
(0.0451158 0.000442807 0)
(0.0423012 0.000314386 0)
(0.0399675 0.000223435 0)
(0.0380143 0.000160949 0)
(0.0363585 0.00011932 0)
(0.0349334 9.24274e-05 0)
(0.0336869 7.55534e-05 0)
(0.0325797 6.52087e-05 0)
(0.0315824 5.89163e-05 0)
(0.0306732 5.4995e-05 0)
(0.0298364 5.23593e-05 0)
(0.0290604 5.03482e-05 0)
(0.0283366 4.8588e-05 0)
(0.0276586 4.68888e-05 0)
(0.0270214 4.51712e-05 0)
(0.0264209 4.34171e-05 0)
(0.0258537 4.16379e-05 0)
(0.0253171 3.98567e-05 0)
(0.0248084 3.80976e-05 0)
(0.0243256 3.63813e-05 0)
(0.0238666 3.47234e-05 0)
(0.0234297 3.31344e-05 0)
(0.0230131 3.16199e-05 0)
(0.0226155 3.01826e-05 0)
(0.0222356 2.88223e-05 0)
(0.0218721 2.75371e-05 0)
(0.0215239 2.63242e-05 0)
(0.02119 2.51799e-05 0)
(0.0208695 2.41003e-05 0)
(0.0205616 2.30815e-05 0)
(0.0202656 2.21195e-05 0)
(0.0199806 2.12108e-05 0)
(0.0197062 2.03516e-05 0)
(0.0194416 1.95387e-05 0)
(0.0191864 1.8769e-05 0)
(0.01894 1.80395e-05 0)
(0.0187021 1.73477e-05 0)
(0.0184721 1.6691e-05 0)
(0.0182497 1.60672e-05 0)
(0.0180345 1.54741e-05 0)
(0.0178261 1.49098e-05 0)
(0.0176243 1.43724e-05 0)
(0.0174287 1.38603e-05 0)
(0.0172391 1.33718e-05 0)
(0.0170552 1.29055e-05 0)
(0.0168767 1.24601e-05 0)
(0.0167035 1.20343e-05 0)
(0.0165354 1.16269e-05 0)
(0.016372 1.12367e-05 0)
(0.0162133 1.08629e-05 0)
(0.016059 1.05045e-05 0)
(0.0159091 1.01605e-05 0)
(0.0157633 9.83019e-06 0)
(0.0156215 9.51277e-06 0)
(0.0154836 9.20755e-06 0)
(0.0153495 8.91388e-06 0)
(0.015219 8.63118e-06 0)
(0.015092 8.3589e-06 0)
(0.0149684 8.09654e-06 0)
(0.0148482 7.84364e-06 0)
(0.0147312 7.5998e-06 0)
(0.0146173 7.36466e-06 0)
(0.0145065 7.13789e-06 0)
(0.0143987 6.91921e-06 0)
(0.0142938 6.70838e-06 0)
(0.0141917 6.50522e-06 0)
(0.0140923 6.30958e-06 0)
(0.0139957 6.12137e-06 0)
(0.0139018 5.94053e-06 0)
(0.0138103 5.76709e-06 0)
(0.0137214 5.60109e-06 0)
(0.013635 5.44267e-06 0)
(0.0135509 5.29205e-06 0)
(0.0134691 5.14952e-06 0)
(0.0133895 5.01545e-06 0)
(0.0133121 4.89042e-06 0)
(0.0132367 4.7751e-06 0)
(0.0131633 4.67047e-06 0)
(0.0130918 4.57791e-06 0)
(0.013022 4.49948e-06 0)
(0.0129537 4.43854e-06 0)
(0.0128868 4.40099e-06 0)
(0.0128209 4.39888e-06 0)
(0.0127556 4.46418e-06 0)
(0.0126894 4.63603e-06 0)
(0.0126302 4.48789e-06 0)
(0.0124621 2.39755e-05 0)
(0.192744 0.00906215 0)
(0.190447 0.00979746 0)
(0.186688 0.00969134 0)
(0.181676 0.00923614 0)
(0.175864 0.0086272 0)
(0.169619 0.00792527 0)
(0.163175 0.00716807 0)
(0.156701 0.00639019 0)
(0.150332 0.00562141 0)
(0.144169 0.00488614 0)
(0.138283 0.00420362 0)
(0.132716 0.00358741 0)
(0.12749 0.00304517 0)
(0.122612 0.00257892 0)
(0.118074 0.00218605 0)
(0.113864 0.00186053 0)
(0.109962 0.00159427 0)
(0.106348 0.00137832 0)
(0.102997 0.0012038 0)
(0.0998869 0.00106261 0)
(0.0969964 0.000947697 0)
(0.0943046 0.000853264 0)
(0.0917925 0.000774672 0)
(0.0894431 0.000708331 0)
(0.0872407 0.00065152 0)
(0.0851717 0.000602207 0)
(0.0832237 0.000558885 0)
(0.0813859 0.000520441 0)
(0.0796487 0.000486041 0)
(0.0780035 0.000455054 0)
(0.0764427 0.000426993 0)
(0.0749595 0.00040147 0)
(0.0735478 0.000378173 0)
(0.0722024 0.00035684 0)
(0.0709182 0.000337251 0)
(0.069691 0.000319216 0)
(0.0685168 0.000302572 0)
(0.067392 0.000287174 0)
(0.0663133 0.000272899 0)
(0.065278 0.000259635 0)
(0.0642832 0.000247286 0)
(0.0633265 0.000235766 0)
(0.0624057 0.000224999 0)
(0.0615187 0.000214918 0)
(0.0606636 0.000205463 0)
(0.0598388 0.000196582 0)
(0.0590425 0.000188227 0)
(0.0582733 0.000180355 0)
(0.0575299 0.00017293 0)
(0.0568109 0.000165917 0)
(0.0561151 0.000159284 0)
(0.0554415 0.000153004 0)
(0.0547891 0.000147051 0)
(0.0541568 0.000141402 0)
(0.0535438 0.000136036 0)
(0.0529493 0.000130934 0)
(0.0523724 0.000126077 0)
(0.0518124 0.000121449 0)
(0.0512687 0.000117036 0)
(0.0507406 0.000112822 0)
(0.0502276 0.000108796 0)
(0.0497289 0.000104944 0)
(0.0492442 0.000101257 0)
(0.0487729 9.77235e-05 0)
(0.0483146 9.43344e-05 0)
(0.0478689 9.10807e-05 0)
(0.0474352 8.79542e-05 0)
(0.0470133 8.49473e-05 0)
(0.0466029 8.20529e-05 0)
(0.0462035 7.92644e-05 0)
(0.0458148 7.65757e-05 0)
(0.0454366 7.39812e-05 0)
(0.0450687 7.14756e-05 0)
(0.0447106 6.90543e-05 0)
(0.0443623 6.67129e-05 0)
(0.0440234 6.44472e-05 0)
(0.0436939 6.22538e-05 0)
(0.0433734 6.01293e-05 0)
(0.0430618 5.80709e-05 0)
(0.0427589 5.60761e-05 0)
(0.0424646 5.41428e-05 0)
(0.0421786 5.22692e-05 0)
(0.0419009 5.0454e-05 0)
(0.0416312 4.86965e-05 0)
(0.0413695 4.69961e-05 0)
(0.0411156 4.53531e-05 0)
(0.0408693 4.37681e-05 0)
(0.0406305 4.22426e-05 0)
(0.0403989 4.0779e-05 0)
(0.0401744 3.93807e-05 0)
(0.0399569 3.80526e-05 0)
(0.039746 3.68022e-05 0)
(0.0395415 3.56404e-05 0)
(0.039343 3.45852e-05 0)
(0.0391501 3.36685e-05 0)
(0.0389622 3.29563e-05 0)
(0.0387782 3.26104e-05 0)
(0.0385953 3.30321e-05 0)
(0.0384227 3.67077e-05 0)
(0.0380903 8.18361e-05 0)
(0.195703 0.00869921 0)
(0.196504 0.00980708 0)
(0.196752 0.0102438 0)
(0.19623 0.0102969 0)
(0.195011 0.0101086 0)
(0.193217 0.00972935 0)
(0.190942 0.00920154 0)
(0.188274 0.00857279 0)
(0.185302 0.00788826 0)
(0.182112 0.00718663 0)
(0.178781 0.0064992 0)
(0.175372 0.00584934 0)
(0.171937 0.00525242 0)
(0.168516 0.0047164 0)
(0.165139 0.00424319 0)
(0.161828 0.00383027 0)
(0.158596 0.00347234 0)
(0.155453 0.00316271 0)
(0.152402 0.00289442 0)
(0.149445 0.00266089 0)
(0.146584 0.0024563 0)
(0.143816 0.00227577 0)
(0.14114 0.00211527 0)
(0.138554 0.00197157 0)
(0.136055 0.00184212 0)
(0.13364 0.00172487 0)
(0.131307 0.0016182 0)
(0.129053 0.00152079 0)
(0.126876 0.00143156 0)
(0.124771 0.0013496 0)
(0.122738 0.00127415 0)
(0.120773 0.00120456 0)
(0.118874 0.00114024 0)
(0.117038 0.00108069 0)
(0.115262 0.00102546 0)
(0.113545 0.000974152 0)
(0.111883 0.000926411 0)
(0.110275 0.000881915 0)
(0.108718 0.000840379 0)
(0.107211 0.000801546 0)
(0.10575 0.000765185 0)
(0.104335 0.00073109 0)
(0.102963 0.000699074 0)
(0.101633 0.000668969 0)
(0.100343 0.000640624 0)
(0.0990914 0.000613902 0)
(0.0978764 0.00058868 0)
(0.0966967 0.000564845 0)
(0.095551 0.000542296 0)
(0.0944379 0.000520939 0)
(0.0933561 0.000500691 0)
(0.0923046 0.000481473 0)
(0.0912821 0.000463216 0)
(0.0902876 0.000445853 0)
(0.0893201 0.000429325 0)
(0.0883786 0.000413577 0)
(0.0874622 0.000398558 0)
(0.08657 0.000384221 0)
(0.0857013 0.000370523 0)
(0.0848552 0.000357423 0)
(0.0840311 0.000344883 0)
(0.0832282 0.000332869 0)
(0.0824458 0.000321348 0)
(0.0816835 0.000310291 0)
(0.0809405 0.000299668 0)
(0.0802163 0.000289454 0)
(0.0795105 0.000279624 0)
(0.0788225 0.000270156 0)
(0.0781519 0.000261027 0)
(0.0774982 0.000252219 0)
(0.0768611 0.000243711 0)
(0.0762402 0.000235489 0)
(0.0756351 0.000227534 0)
(0.0750455 0.000219833 0)
(0.0744711 0.000212371 0)
(0.0739117 0.000205136 0)
(0.0733668 0.000198117 0)
(0.0728364 0.000191302 0)
(0.0723201 0.000184683 0)
(0.0718177 0.00017825 0)
(0.0713291 0.000171997 0)
(0.0708541 0.000165917 0)
(0.0703924 0.000160005 0)
(0.0699439 0.000154257 0)
(0.0695084 0.00014867 0)
(0.0690858 0.000143244 0)
(0.0686758 0.000137979 0)
(0.0682783 0.000132877 0)
(0.0678931 0.000127943 0)
(0.0675199 0.000123185 0)
(0.0671587 0.000118614 0)
(0.0668089 0.000114248 0)
(0.0664705 0.000110113 0)
(0.0661429 0.000106251 0)
(0.0658256 0.00010274 0)
(0.0655178 9.9736e-05 0)
(0.0652183 9.76202e-05 0)
(0.0649243 9.75411e-05 0)
(0.064641 0.000106896 0)
(0.0642094 0.000162617 0)
(0.196729 0.00806314 0)
(0.197884 0.00920862 0)
(0.198985 0.00985069 0)
(0.199797 0.0101441 0)
(0.200271 0.0101932 0)
(0.200409 0.0100419 0)
(0.200212 0.00972483 0)
(0.199686 0.00928262 0)
(0.198851 0.00875651 0)
(0.197742 0.00818373 0)
(0.196399 0.00759608 0)
(0.194863 0.007019 0)
(0.193175 0.00647108 0)
(0.19137 0.0059641 0)
(0.189479 0.00550396 0)
(0.187529 0.00509187 0)
(0.185538 0.00472581 0)
(0.183523 0.00440176 0)
(0.181496 0.00411477 0)
(0.179465 0.00385971 0)
(0.177437 0.00363173 0)
(0.175417 0.00342654 0)
(0.173408 0.0032405 0)
(0.171413 0.00307061 0)
(0.169435 0.00291445 0)
(0.167476 0.00277009 0)
(0.165538 0.00263602 0)
(0.163623 0.00251101 0)
(0.161731 0.0023941 0)
(0.159864 0.00228449 0)
(0.158023 0.00218152 0)
(0.156209 0.00208465 0)
(0.154424 0.00199338 0)
(0.152667 0.00190729 0)
(0.150939 0.00182601 0)
(0.14924 0.0017492 0)
(0.147571 0.00167655 0)
(0.145932 0.00160778 0)
(0.144324 0.00154263 0)
(0.142745 0.00148087 0)
(0.141196 0.00142227 0)
(0.139677 0.00136663 0)
(0.138187 0.00131377 0)
(0.136727 0.00126352 0)
(0.135295 0.0012157 0)
(0.133893 0.00117018 0)
(0.132518 0.00112682 0)
(0.131172 0.00108548 0)
(0.129853 0.00104604 0)
(0.128561 0.0010084 0)
(0.127295 0.000972455 0)
(0.126056 0.000938098 0)
(0.124842 0.000905241 0)
(0.123654 0.0008738 0)
(0.12249 0.000843693 0)
(0.121351 0.000814845 0)
(0.120235 0.000787185 0)
(0.119142 0.000760646 0)
(0.118073 0.000735166 0)
(0.117026 0.000710686 0)
(0.116001 0.000687149 0)
(0.114997 0.000664504 0)
(0.114015 0.000642701 0)
(0.113053 0.000621693 0)
(0.112112 0.000601436 0)
(0.111191 0.000581888 0)
(0.11029 0.00056301 0)
(0.109408 0.000544766 0)
(0.108546 0.000527119 0)
(0.107702 0.000510038 0)
(0.106876 0.00049349 0)
(0.106069 0.000477448 0)
(0.10528 0.000461883 0)
(0.104509 0.000446771 0)
(0.103755 0.000432086 0)
(0.103019 0.000417807 0)
(0.1023 0.000403914 0)
(0.101598 0.000390387 0)
(0.100913 0.00037721 0)
(0.100245 0.000364367 0)
(0.0995929 0.000351843 0)
(0.0989578 0.000339628 0)
(0.098339 0.000327712 0)
(0.0977365 0.000316087 0)
(0.0971502 0.000304746 0)
(0.09658 0.000293688 0)
(0.0960257 0.000282913 0)
(0.0954874 0.000272423 0)
(0.0949647 0.000262226 0)
(0.0944577 0.000252334 0)
(0.093966 0.000242766 0)
(0.0934896 0.000233551 0)
(0.093028 0.000224734 0)
(0.0925811 0.000216384 0)
(0.0921482 0.000208628 0)
(0.0917287 0.000201722 0)
(0.0913213 0.000196291 0)
(0.0909237 0.000194298 0)
(0.0905398 0.000205357 0)
(0.0900313 0.000258309 0)
(0.19745 0.00755622 0)
(0.198472 0.0086068 0)
(0.199583 0.00927123 0)
(0.200618 0.00963729 0)
(0.201517 0.00978519 0)
(0.202258 0.00975443 0)
(0.202819 0.00957229 0)
(0.203179 0.00926952 0)
(0.203327 0.0088789 0)
(0.203267 0.00843156 0)
(0.203012 0.00795529 0)
(0.20258 0.00747354 0)
(0.201992 0.00700455 0)
(0.201272 0.00656111 0)
(0.200442 0.00615083 0)
(0.199521 0.00577706 0)
(0.198527 0.00543987 0)
(0.197472 0.0051372 0)
(0.196368 0.00486572 0)
(0.195224 0.00462159 0)
(0.194046 0.00440098 0)
(0.192838 0.00420032 0)
(0.191606 0.00401651 0)
(0.190352 0.00384695 0)
(0.18908 0.0036895 0)
(0.187791 0.00354245 0)
(0.186489 0.00340445 0)
(0.185174 0.0032744 0)
(0.18385 0.00315144 0)
(0.182518 0.00303488 0)
(0.18118 0.00292415 0)
(0.179838 0.00281877 0)
(0.178492 0.00271834 0)
(0.177146 0.0026225 0)
(0.1758 0.00253096 0)
(0.174456 0.00244342 0)
(0.173115 0.00235966 0)
(0.171777 0.00227944 0)
(0.170446 0.00220257 0)
(0.16912 0.00212885 0)
(0.167802 0.00205812 0)
(0.166492 0.00199021 0)
(0.165191 0.00192499 0)
(0.1639 0.00186232 0)
(0.16262 0.00180207 0)
(0.16135 0.00174412 0)
(0.160092 0.00168836 0)
(0.158846 0.0016347 0)
(0.157612 0.00158302 0)
(0.156392 0.00153325 0)
(0.155185 0.00148529 0)
(0.153991 0.00143905 0)
(0.152812 0.00139447 0)
(0.151646 0.00135146 0)
(0.150495 0.00130995 0)
(0.149359 0.00126988 0)
(0.148237 0.00123118 0)
(0.14713 0.00119379 0)
(0.146038 0.00115764 0)
(0.144962 0.00112268 0)
(0.1439 0.00108885 0)
(0.142854 0.0010561 0)
(0.141823 0.00102438 0)
(0.140808 0.000993643 0)
(0.139808 0.000963838 0)
(0.138823 0.000934921 0)
(0.137854 0.00090685 0)
(0.136901 0.000879582 0)
(0.135963 0.000853079 0)
(0.13504 0.000827303 0)
(0.134133 0.000802217 0)
(0.133242 0.000777787 0)
(0.132366 0.000753982 0)
(0.131507 0.000730769 0)
(0.130662 0.000708119 0)
(0.129834 0.000686007 0)
(0.129021 0.000664405 0)
(0.128225 0.00064329 0)
(0.127444 0.000622641 0)
(0.126679 0.000602438 0)
(0.12593 0.000582664 0)
(0.125197 0.000563304 0)
(0.124481 0.000544345 0)
(0.12378 0.000525777 0)
(0.123096 0.000507594 0)
(0.122428 0.000489793 0)
(0.121777 0.000472375 0)
(0.121142 0.000455345 0)
(0.120523 0.000438714 0)
(0.119921 0.000422502 0)
(0.119335 0.000406736 0)
(0.118766 0.000391459 0)
(0.118212 0.000376733 0)
(0.117675 0.000362659 0)
(0.117153 0.000349412 0)
(0.116647 0.000337342 0)
(0.116154 0.000327287 0)
(0.115675 0.000321741 0)
(0.115213 0.000329914 0)
(0.114647 0.000369998 0)
(0.198052 0.00711052 0)
(0.198907 0.00804228 0)
(0.19988 0.00868101 0)
(0.200853 0.00907028 0)
(0.201775 0.00926601 0)
(0.202619 0.00930188 0)
(0.203365 0.00920119 0)
(0.20399 0.00898886 0)
(0.20448 0.008692 0)
(0.20483 0.00833705 0)
(0.205039 0.00794806 0)
(0.205117 0.00754577 0)
(0.205073 0.00714689 0)
(0.204922 0.0067637 0)
(0.204678 0.00640419 0)
(0.204353 0.00607262 0)
(0.203961 0.00577028 0)
(0.203511 0.00549639 0)
(0.203012 0.00524883 0)
(0.20247 0.0050248 0)
(0.201891 0.00482131 0)
(0.201278 0.00463544 0)
(0.200634 0.00446457 0)
(0.199962 0.00430641 0)
(0.199263 0.00415905 0)
(0.198538 0.00402094 0)
(0.197791 0.00389081 0)
(0.19702 0.00376764 0)
(0.196229 0.00365061 0)
(0.195418 0.00353907 0)
(0.194588 0.00343249 0)
(0.193741 0.00333042 0)
(0.192878 0.00323248 0)
(0.191999 0.00313839 0)
(0.191107 0.00304785 0)
(0.190202 0.00296063 0)
(0.189285 0.00287654 0)
(0.188358 0.00279538 0)
(0.187421 0.00271699 0)
(0.186476 0.00264122 0)
(0.185523 0.00256794 0)
(0.184564 0.00249703 0)
(0.183599 0.00242837 0)
(0.182629 0.00236185 0)
(0.181655 0.0022974 0)
(0.180679 0.00223491 0)
(0.1797 0.00217431 0)
(0.178719 0.00211551 0)
(0.177738 0.00205845 0)
(0.176756 0.00200306 0)
(0.175775 0.00194928 0)
(0.174795 0.00189703 0)
(0.173817 0.00184627 0)
(0.172842 0.00179694 0)
(0.171869 0.00174897 0)
(0.170899 0.00170233 0)
(0.169934 0.00165696 0)
(0.168973 0.00161281 0)
(0.168017 0.00156984 0)
(0.167066 0.00152799 0)
(0.166122 0.00148723 0)
(0.165183 0.00144751 0)
(0.164251 0.00140879 0)
(0.163325 0.00137102 0)
(0.162408 0.00133417 0)
(0.161497 0.0012982 0)
(0.160595 0.00126307 0)
(0.159701 0.00122875 0)
(0.158816 0.00119519 0)
(0.15794 0.00116237 0)
(0.157073 0.00113025 0)
(0.156216 0.0010988 0)
(0.155369 0.00106799 0)
(0.154531 0.00103779 0)
(0.153705 0.00100817 0)
(0.152889 0.000979105 0)
(0.152084 0.000950573 0)
(0.151291 0.000922548 0)
(0.150509 0.000895011 0)
(0.149739 0.000867943 0)
(0.148981 0.000841326 0)
(0.148236 0.000815148 0)
(0.147503 0.000789396 0)
(0.146783 0.000764064 0)
(0.146077 0.000739147 0)
(0.145384 0.000714645 0)
(0.144705 0.000690563 0)
(0.14404 0.000666912 0)
(0.143389 0.00064371 0)
(0.142752 0.000620985 0)
(0.14213 0.000598777 0)
(0.141523 0.000577142 0)
(0.14093 0.000556164 0)
(0.140351 0.000535974 0)
(0.139787 0.000516789 0)
(0.139238 0.000499034 0)
(0.138702 0.000483662 0)
(0.13818 0.000473205 0)
(0.137678 0.000474761 0)
(0.137087 0.000495523 0)
(0.198566 0.00672109 0)
(0.199286 0.00754221 0)
(0.200118 0.00814168 0)
(0.200982 0.00853428 0)
(0.20183 0.0087551 0)
(0.202634 0.00883116 0)
(0.203376 0.00878302 0)
(0.204036 0.00863198 0)
(0.204604 0.00840114 0)
(0.20507 0.00811336 0)
(0.205435 0.00778967 0)
(0.205702 0.00744842 0)
(0.205878 0.00710469 0)
(0.205972 0.00676994 0)
(0.205994 0.0064521 0)
(0.205954 0.00615585 0)
(0.205861 0.00588326 0)
(0.205723 0.00563446 0)
(0.205547 0.00540825 0)
(0.205337 0.00520266 0)
(0.205099 0.00501538 0)
(0.204834 0.00484405 0)
(0.204545 0.00468642 0)
(0.204233 0.00454052 0)
(0.203899 0.00440461 0)
(0.203545 0.00427725 0)
(0.20317 0.00415725 0)
(0.202776 0.00404365 0)
(0.202362 0.00393564 0)
(0.20193 0.00383257 0)
(0.201479 0.00373393 0)
(0.201011 0.00363928 0)
(0.200526 0.00354825 0)
(0.200024 0.00346053 0)
(0.199506 0.00337586 0)
(0.198972 0.00329402 0)
(0.198423 0.00321481 0)
(0.19786 0.00313805 0)
(0.197283 0.0030636 0)
(0.196692 0.00299131 0)
(0.196089 0.00292107 0)
(0.195474 0.00285276 0)
(0.194848 0.00278629 0)
(0.19421 0.00272158 0)
(0.193562 0.00265853 0)
(0.192904 0.00259708 0)
(0.192237 0.00253715 0)
(0.191561 0.00247869 0)
(0.190878 0.00242164 0)
(0.190186 0.00236594 0)
(0.189488 0.00231154 0)
(0.188784 0.0022584 0)
(0.188073 0.00220647 0)
(0.187357 0.0021557 0)
(0.186637 0.00210605 0)
(0.185912 0.00205749 0)
(0.185183 0.00200997 0)
(0.184451 0.00196346 0)
(0.183716 0.00191792 0)
(0.182978 0.00187331 0)
(0.182239 0.0018296 0)
(0.181499 0.00178676 0)
(0.180757 0.00174475 0)
(0.180016 0.00170354 0)
(0.179274 0.0016631 0)
(0.178532 0.0016234 0)
(0.177792 0.0015844 0)
(0.177052 0.00154607 0)
(0.176315 0.00150839 0)
(0.17558 0.00147133 0)
(0.174847 0.00143486 0)
(0.174118 0.00139895 0)
(0.173392 0.00136358 0)
(0.172669 0.00132872 0)
(0.171951 0.00129435 0)
(0.171238 0.00126044 0)
(0.17053 0.00122698 0)
(0.169828 0.00119395 0)
(0.169132 0.00116132 0)
(0.168442 0.00112909 0)
(0.167759 0.00109724 0)
(0.167083 0.00106576 0)
(0.166415 0.00103464 0)
(0.165754 0.00100388 0)
(0.165103 0.000973484 0)
(0.16446 0.000943455 0)
(0.163826 0.000913803 0)
(0.163202 0.000884549 0)
(0.162588 0.000855719 0)
(0.161984 0.000827351 0)
(0.16139 0.000799499 0)
(0.160807 0.000772235 0)
(0.160235 0.000745664 0)
(0.159675 0.00071994 0)
(0.159125 0.000695317 0)
(0.158587 0.000672252 0)
(0.158059 0.000651685 0)
(0.157545 0.00063572 0)
(0.157051 0.000628555 0)
(0.156477 0.000627774 0)
(0.199004 0.0063787 0)
(0.199619 0.00710123 0)
(0.200331 0.00765517 0)
(0.201088 0.00803917 0)
(0.201848 0.00827289 0)
(0.202583 0.00837652 0)
(0.203274 0.00836751 0)
(0.203903 0.00826389 0)
(0.204461 0.00808523 0)
(0.204941 0.00785119 0)
(0.20534 0.00758016 0)
(0.205662 0.0072884 0)
(0.205912 0.00698956 0)
(0.206095 0.00669434 0)
(0.206221 0.00641044 0)
(0.206298 0.00614284 0)
(0.206333 0.00589417 0)
(0.206332 0.00566528 0)
(0.206303 0.00545573 0)
(0.20625 0.00526429 0)
(0.206175 0.00508924 0)
(0.206082 0.00492875 0)
(0.205972 0.00478095 0)
(0.205848 0.00464415 0)
(0.205708 0.00451684 0)
(0.205556 0.00439769 0)
(0.205389 0.00428562 0)
(0.20521 0.00417969 0)
(0.205017 0.00407914 0)
(0.204812 0.00398334 0)
(0.204594 0.00389175 0)
(0.204363 0.00380395 0)
(0.204119 0.00371955 0)
(0.203863 0.00363825 0)
(0.203594 0.00355978 0)
(0.203313 0.0034839 0)
(0.20302 0.00341041 0)
(0.202715 0.00333913 0)
(0.202398 0.00326992 0)
(0.202069 0.00320262 0)
(0.201729 0.00313712 0)
(0.201377 0.00307331 0)
(0.201015 0.00301108 0)
(0.200641 0.00295036 0)
(0.200257 0.00289105 0)
(0.199862 0.00283308 0)
(0.199458 0.0027764 0)
(0.199043 0.00272094 0)
(0.198619 0.00266664 0)
(0.198185 0.00261345 0)
(0.197743 0.00256132 0)
(0.197292 0.00251022 0)
(0.196832 0.00246009 0)
(0.196364 0.0024109 0)
(0.195889 0.00236261 0)
(0.195406 0.00231519 0)
(0.194916 0.00226859 0)
(0.194419 0.00222279 0)
(0.193915 0.00217775 0)
(0.193405 0.00213344 0)
(0.19289 0.00208983 0)
(0.192369 0.0020469 0)
(0.191843 0.0020046 0)
(0.191312 0.00196292 0)
(0.190777 0.00192182 0)
(0.190238 0.00188127 0)
(0.189695 0.00184126 0)
(0.189148 0.00180175 0)
(0.188599 0.00176272 0)
(0.188048 0.00172414 0)
(0.187494 0.00168598 0)
(0.186938 0.00164823 0)
(0.186381 0.00161086 0)
(0.185823 0.00157385 0)
(0.185265 0.00153718 0)
(0.184706 0.00150082 0)
(0.184147 0.00146477 0)
(0.183589 0.001429 0)
(0.183033 0.0013935 0)
(0.182477 0.00135826 0)
(0.181924 0.00132327 0)
(0.181373 0.00128853 0)
(0.180824 0.00125402 0)
(0.180279 0.00121976 0)
(0.179738 0.00118574 0)
(0.1792 0.00115198 0)
(0.178667 0.0011185 0)
(0.178139 0.00108533 0)
(0.177615 0.00105249 0)
(0.177098 0.00102004 0)
(0.176586 0.000988044 0)
(0.17608 0.000956591 0)
(0.175581 0.0009258 0)
(0.175089 0.000895847 0)
(0.174603 0.000867 0)
(0.174125 0.000839707 0)
(0.173655 0.000814769 0)
(0.173194 0.00079358 0)
(0.17275 0.00077746 0)
(0.172236 0.000757126 0)
(0.199375 0.00607195 0)
(0.199907 0.00670819 0)
(0.200521 0.00721512 0)
(0.201183 0.00758372 0)
(0.20186 0.00782299 0)
(0.202524 0.00794673 0)
(0.203155 0.00796897 0)
(0.203739 0.00790461 0)
(0.204265 0.00776998 0)
(0.204727 0.0075818 0)
(0.205122 0.00735606 0)
(0.205453 0.00710713 0)
(0.205721 0.00684732 0)
(0.205934 0.00658654 0)
(0.206097 0.00633222 0)
(0.206218 0.00608945 0)
(0.206303 0.00586131 0)
(0.206359 0.0056492 0)
(0.20639 0.00545336 0)
(0.206402 0.00527315 0)
(0.206397 0.00510745 0)
(0.206379 0.00495489 0)
(0.206349 0.00481401 0)
(0.206308 0.00468341 0)
(0.206259 0.00456178 0)
(0.2062 0.004448 0)
(0.206134 0.00434105 0)
(0.206059 0.0042401 0)
(0.205977 0.00414441 0)
(0.205888 0.00405339 0)
(0.20579 0.00396653 0)
(0.205685 0.00388339 0)
(0.205573 0.0038036 0)
(0.205453 0.00372686 0)
(0.205325 0.00365289 0)
(0.205189 0.00358146 0)
(0.205046 0.00351235 0)
(0.204895 0.00344539 0)
(0.204736 0.00338041 0)
(0.204569 0.00331728 0)
(0.204394 0.00325586 0)
(0.204212 0.00319605 0)
(0.204021 0.00313772 0)
(0.203823 0.0030808 0)
(0.203617 0.0030252 0)
(0.203403 0.00297084 0)
(0.203181 0.00291765 0)
(0.202951 0.00286556 0)
(0.202714 0.00281452 0)
(0.202469 0.00276448 0)
(0.202216 0.00271537 0)
(0.201956 0.00266716 0)
(0.201688 0.0026198 0)
(0.201413 0.00257325 0)
(0.20113 0.00252746 0)
(0.20084 0.0024824 0)
(0.200544 0.00243803 0)
(0.20024 0.00239432 0)
(0.19993 0.00235123 0)
(0.199613 0.00230873 0)
(0.199289 0.00226679 0)
(0.198959 0.00222538 0)
(0.198624 0.00218447 0)
(0.198282 0.00214402 0)
(0.197934 0.00210401 0)
(0.197581 0.00206441 0)
(0.197223 0.0020252 0)
(0.196859 0.00198634 0)
(0.196491 0.00194781 0)
(0.196118 0.00190959 0)
(0.19574 0.00187165 0)
(0.195359 0.00183396 0)
(0.194973 0.00179651 0)
(0.194585 0.00175927 0)
(0.194192 0.00172222 0)
(0.193797 0.00168534 0)
(0.193399 0.00164861 0)
(0.192999 0.00161203 0)
(0.192597 0.00157558 0)
(0.192192 0.00153923 0)
(0.191787 0.001503 0)
(0.19138 0.00146687 0)
(0.190973 0.00143085 0)
(0.190565 0.00139493 0)
(0.190157 0.00135912 0)
(0.18975 0.00132345 0)
(0.189343 0.00128794 0)
(0.188937 0.00125261 0)
(0.188533 0.00121751 0)
(0.18813 0.0011827 0)
(0.187729 0.00114825 0)
(0.18733 0.00111427 0)
(0.186933 0.00108087 0)
(0.18654 0.00104826 0)
(0.186149 0.00101669 0)
(0.185762 0.000986567 0)
(0.185379 0.000958468 0)
(0.185002 0.000933021 0)
(0.184638 0.000909275 0)
(0.18421 0.000874489 0)
(0.199687 0.0057929 0)
(0.200152 0.00635481 0)
(0.200686 0.00681642 0)
(0.201266 0.00716589 0)
(0.201867 0.00740538 0)
(0.202464 0.00754342 0)
(0.203038 0.00759065 0)
(0.203574 0.00755914 0)
(0.204064 0.00746232 0)
(0.2045 0.00731427 0)
(0.20488 0.0071287 0)
(0.205204 0.00691823 0)
(0.205474 0.00669384 0)
(0.205695 0.00646463 0)
(0.205872 0.00623765 0)
(0.20601 0.00601798 0)
(0.206116 0.00580897 0)
(0.206195 0.00561248 0)
(0.206252 0.00542925 0)
(0.206291 0.00525918 0)
(0.206316 0.00510167 0)
(0.206328 0.00495578 0)
(0.206331 0.00482042 0)
(0.206326 0.00469449 0)
(0.206314 0.00457694 0)
(0.206295 0.00446677 0)
(0.206271 0.00436314 0)
(0.206242 0.00426528 0)
(0.206209 0.00417254 0)
(0.206171 0.00408436 0)
(0.206128 0.00400027 0)
(0.206082 0.00391985 0)
(0.206031 0.00384276 0)
(0.205976 0.00376868 0)
(0.205917 0.00369737 0)
(0.205854 0.00362858 0)
(0.205786 0.00356212 0)
(0.205714 0.0034978 0)
(0.205638 0.00343547 0)
(0.205558 0.00337498 0)
(0.205473 0.0033162 0)
(0.205384 0.00325902 0)
(0.20529 0.00320333 0)
(0.205192 0.00314903 0)
(0.205089 0.00309604 0)
(0.204981 0.00304428 0)
(0.204868 0.00299367 0)
(0.20475 0.00294415 0)
(0.204628 0.00289566 0)
(0.204501 0.00284813 0)
(0.204368 0.00280151 0)
(0.204231 0.00275575 0)
(0.204088 0.0027108 0)
(0.20394 0.00266662 0)
(0.203787 0.00262315 0)
(0.203629 0.00258037 0)
(0.203466 0.00253822 0)
(0.203297 0.00249667 0)
(0.203124 0.00245569 0)
(0.202945 0.00241523 0)
(0.202761 0.00237527 0)
(0.202571 0.00233576 0)
(0.202377 0.00229667 0)
(0.202178 0.00225798 0)
(0.201973 0.00221964 0)
(0.201764 0.00218163 0)
(0.20155 0.00214392 0)
(0.201331 0.00210648 0)
(0.201107 0.00206927 0)
(0.200879 0.00203227 0)
(0.200646 0.00199546 0)
(0.200409 0.00195881 0)
(0.200167 0.00192228 0)
(0.199921 0.00188587 0)
(0.199672 0.00184954 0)
(0.199419 0.00181327 0)
(0.199162 0.00177705 0)
(0.198901 0.00174086 0)
(0.198637 0.00170468 0)
(0.19837 0.00166851 0)
(0.198101 0.00163233 0)
(0.197828 0.00159614 0)
(0.197553 0.00155994 0)
(0.197276 0.00152373 0)
(0.196997 0.00148753 0)
(0.196715 0.00145135 0)
(0.196433 0.00141522 0)
(0.196149 0.00137917 0)
(0.195863 0.00134326 0)
(0.195577 0.00130753 0)
(0.19529 0.00127208 0)
(0.195003 0.00123701 0)
(0.194715 0.00120246 0)
(0.194427 0.00116861 0)
(0.194139 0.00113571 0)
(0.193852 0.00110409 0)
(0.193566 0.00107408 0)
(0.193283 0.00104568 0)
(0.193008 0.00101657 0)
(0.192676 0.000973734 0)
(0.199946 0.00553615 0)
(0.200357 0.00603457 0)
(0.200824 0.00645408 0)
(0.201333 0.00678264 0)
(0.201867 0.00701843 0)
(0.202402 0.00716596 0)
(0.202922 0.00723291 0)
(0.203413 0.00722877 0)
(0.203867 0.00716446 0)
(0.204275 0.00705165 0)
(0.204637 0.00690199 0)
(0.204949 0.0067264 0)
(0.205215 0.00653462 0)
(0.205436 0.00633488 0)
(0.205618 0.00613379 0)
(0.205765 0.00593631 0)
(0.205881 0.0057459 0)
(0.205973 0.00556475 0)
(0.206042 0.00539399 0)
(0.206095 0.00523399 0)
(0.206133 0.00508456 0)
(0.20616 0.00494515 0)
(0.206178 0.00481504 0)
(0.206188 0.00469339 0)
(0.206191 0.00457938 0)
(0.20619 0.0044722 0)
(0.206183 0.00437114 0)
(0.206173 0.00427553 0)
(0.206159 0.0041848 0)
(0.206142 0.00409846 0)
(0.206123 0.00401607 0)
(0.206101 0.00393726 0)
(0.206076 0.00386169 0)
(0.206049 0.00378909 0)
(0.20602 0.00371921 0)
(0.205988 0.00365182 0)
(0.205955 0.00358675 0)
(0.205919 0.00352381 0)
(0.205881 0.00346285 0)
(0.205841 0.00340373 0)
(0.205799 0.00334634 0)
(0.205755 0.00329055 0)
(0.205708 0.00323627 0)
(0.20566 0.0031834 0)
(0.205609 0.00313185 0)
(0.205555 0.00308155 0)
(0.2055 0.00303242 0)
(0.205441 0.00298439 0)
(0.205381 0.00293741 0)
(0.205317 0.00289141 0)
(0.205251 0.00284633 0)
(0.205183 0.00280212 0)
(0.205111 0.00275873 0)
(0.205037 0.00271612 0)
(0.204959 0.00267423 0)
(0.204879 0.00263303 0)
(0.204795 0.00259246 0)
(0.204709 0.00255249 0)
(0.204619 0.00251308 0)
(0.204526 0.00247419 0)
(0.20443 0.00243578 0)
(0.20433 0.00239781 0)
(0.204227 0.00236025 0)
(0.204121 0.00232305 0)
(0.204011 0.00228619 0)
(0.203898 0.00224964 0)
(0.203782 0.00221335 0)
(0.203661 0.00217729 0)
(0.203538 0.00214143 0)
(0.203411 0.00210575 0)
(0.20328 0.00207021 0)
(0.203146 0.00203477 0)
(0.203009 0.00199942 0)
(0.202868 0.00196413 0)
(0.202724 0.00192887 0)
(0.202576 0.00189361 0)
(0.202425 0.00185834 0)
(0.202271 0.00182304 0)
(0.202114 0.00178768 0)
(0.201954 0.00175227 0)
(0.20179 0.00171678 0)
(0.201624 0.00168121 0)
(0.201455 0.00164555 0)
(0.201283 0.00160982 0)
(0.201109 0.00157402 0)
(0.200932 0.00153818 0)
(0.200752 0.00150231 0)
(0.20057 0.00146645 0)
(0.200386 0.00143066 0)
(0.2002 0.00139499 0)
(0.200012 0.00135954 0)
(0.199822 0.0013244 0)
(0.19963 0.00128973 0)
(0.199436 0.00125569 0)
(0.199241 0.0012225 0)
(0.199045 0.00119041 0)
(0.198848 0.00115956 0)
(0.198651 0.00112951 0)
(0.198458 0.0010975 0)
(0.198217 0.00105254 0)
(0.20016 0.00529786 0)
(0.200526 0.00574221 0)
(0.200936 0.00612354 0)
(0.201384 0.00643084 0)
(0.201858 0.00666022 0)
(0.202337 0.00681341 0)
(0.202807 0.00689561 0)
(0.203256 0.00691408 0)
(0.203673 0.00687753 0)
(0.204055 0.00679552 0)
(0.204396 0.00667783 0)
(0.204695 0.00653383 0)
(0.204953 0.00637204 0)
(0.205172 0.00619985 0)
(0.205356 0.00602334 0)
(0.205507 0.00584727 0)
(0.205629 0.00567512 0)
(0.205728 0.00550927 0)
(0.205806 0.00535116 0)
(0.205867 0.0052015 0)
(0.205914 0.00506045 0)
(0.20595 0.00492783 0)
(0.205976 0.00480321 0)
(0.205994 0.00468601 0)
(0.206005 0.00457562 0)
(0.206012 0.00447143 0)
(0.206014 0.00437284 0)
(0.206012 0.00427931 0)
(0.206007 0.00419035 0)
(0.205999 0.00410553 0)
(0.205989 0.00402446 0)
(0.205977 0.0039468 0)
(0.205963 0.00387226 0)
(0.205947 0.00380059 0)
(0.20593 0.00373155 0)
(0.205912 0.00366494 0)
(0.205892 0.00360059 0)
(0.205871 0.00353833 0)
(0.20585 0.00347802 0)
(0.205827 0.00341954 0)
(0.205803 0.00336276 0)
(0.205778 0.00330759 0)
(0.205753 0.00325392 0)
(0.205726 0.00320166 0)
(0.205699 0.00315074 0)
(0.20567 0.00310107 0)
(0.205641 0.00305259 0)
(0.20561 0.00300523 0)
(0.205579 0.00295893 0)
(0.205546 0.00291363 0)
(0.205513 0.00286928 0)
(0.205478 0.00282581 0)
(0.205442 0.0027832 0)
(0.205405 0.00274137 0)
(0.205366 0.0027003 0)
(0.205326 0.00265992 0)
(0.205285 0.00262021 0)
(0.205242 0.00258111 0)
(0.205198 0.00254259 0)
(0.205152 0.00250461 0)
(0.205105 0.00246712 0)
(0.205055 0.00243009 0)
(0.205004 0.00239348 0)
(0.204951 0.00235724 0)
(0.204897 0.00232136 0)
(0.20484 0.00228577 0)
(0.204781 0.00225047 0)
(0.20472 0.00221539 0)
(0.204658 0.00218052 0)
(0.204593 0.00214582 0)
(0.204526 0.00211126 0)
(0.204456 0.0020768 0)
(0.204385 0.00204241 0)
(0.204311 0.00200807 0)
(0.204235 0.00197375 0)
(0.204157 0.00193942 0)
(0.204076 0.00190506 0)
(0.203993 0.00187064 0)
(0.203908 0.00183615 0)
(0.20382 0.00180158 0)
(0.20373 0.0017669 0)
(0.203637 0.00173212 0)
(0.203542 0.00169723 0)
(0.203445 0.00166224 0)
(0.203345 0.00162714 0)
(0.203243 0.00159197 0)
(0.203139 0.00155674 0)
(0.203032 0.0015215 0)
(0.202923 0.00148629 0)
(0.202812 0.00145118 0)
(0.202698 0.00141625 0)
(0.202582 0.00138162 0)
(0.202463 0.00134741 0)
(0.202343 0.00131379 0)
(0.20222 0.00128094 0)
(0.202095 0.00124905 0)
(0.201968 0.00121812 0)
(0.201841 0.00118752 0)
(0.201713 0.00115473 0)