/*--------------------------------*- C++ -*----------------------------------*\
| =========                 |                                                 |
| \\      /  F ield         | OpenFOAM: The Open Source CFD Toolbox           |
|  \\    /   O peration     | Version:  2.3.0                                 |
|   \\  /    A nd           | Web:      www.OpenFOAM.org                      |
|    \\/     M anipulation  |                                                 |
\*---------------------------------------------------------------------------*/
FoamFile
{
    version     2.0;
    format      ascii;
    class       volVectorField;
    location    "0.15";
    object      U;
}
// * * * * * * * * * * * * * * * * * * * * * * * * * * * * * * * * * * * * * //

dimensions      [0 1 -1 0 0 0 0];

internalField   nonuniform List<vector> 
868
(
(0.188927 0.002173 0)
(0.177826 0.00323001 0)
(0.167566 0.00375147 0)
(0.156593 0.0039017 0)
(0.145056 0.00357839 0)
(0.133929 0.00325 0)
(0.123 0.00315327 0)
(0.112024 0.00303656 0)
(0.101286 0.00276784 0)
(0.0911355 0.00243004 0)
(0.0817498 0.00207479 0)
(0.0734264 0.00160139 0)
(0.0664805 0.00105274 0)
(0.0609231 0.000558932 0)
(0.056663 0.000164165 0)
(0.0536197 -0.000124721 0)
(0.0516195 -0.000303282 0)
(0.0504417 -0.000407606 0)
(0.0499582 -0.00045503 0)
(0.0500682 -0.000429115 0)
(0.0505504 -0.000318118 0)
(0.0511096 -0.000190378 0)
(0.0515591 -9.14591e-05 0)
(0.0518846 -3.02394e-05 0)
(0.0521472 -4.92859e-06 0)
(0.0523882 1.62177e-07 0)
(0.0526099 -2.17458e-06 0)
(0.0528031 -5.10014e-06 0)
(0.0529604 -6.58893e-06 0)
(0.05308 -7.13889e-06 0)
(0.053166 -6.69484e-06 0)
(0.0532265 -5.65663e-06 0)
(0.0532697 -4.49749e-06 0)
(0.053302 -3.52584e-06 0)
(0.0533275 -2.81255e-06 0)
(0.0533485 -2.27386e-06 0)
(0.0533661 -1.84114e-06 0)
(0.0533811 -1.4962e-06 0)
(0.0533938 -1.22137e-06 0)
(0.0534045 -9.91472e-07 0)
(0.0534135 -8.07263e-07 0)
(0.0534209 -6.47565e-07 0)
(0.0534271 -5.20055e-07 0)
(0.053432 -4.0786e-07 0)
(0.0534362 -3.17345e-07 0)
(0.0534393 -2.39634e-07 0)
(0.053442 -1.74486e-07 0)
(0.0534438 -1.20696e-07 0)
(0.0534453 -8.66537e-08 0)
(0.0534464 -3.8097e-08 0)
(0.196063 0.00402374 0)
(0.195592 0.00578903 0)
(0.194886 0.00648888 0)
(0.193806 0.0068995 0)
(0.192238 0.00698515 0)
(0.18998 0.00664313 0)
(0.186987 0.00648259 0)
(0.183651 0.00654133 0)
(0.179991 0.00644061 0)
(0.175851 0.00617545 0)
(0.171357 0.00579502 0)
(0.166712 0.0051933 0)
(0.162143 0.0044596 0)
(0.157824 0.00371989 0)
(0.153765 0.00295656 0)
(0.149962 0.00220874 0)
(0.146572 0.00158715 0)
(0.143714 0.00108236 0)
(0.141358 0.000605239 0)
(0.139492 0.000166934 0)
(0.138146 -8.35415e-05 0)
(0.137264 -0.000154417 0)
(0.13675 -0.000167493 0)
(0.136525 -0.000189923 0)
(0.136546 -0.000200558 0)
(0.136772 -0.000189878 0)
(0.137126 -0.000162868 0)
(0.137519 -0.000126515 0)
(0.13788 -8.93623e-05 0)
(0.138172 -5.89174e-05 0)
(0.138385 -3.7606e-05 0)
(0.13853 -2.45172e-05 0)
(0.138625 -1.72257e-05 0)
(0.138687 -1.33634e-05 0)
(0.138729 -1.11941e-05 0)
(0.13876 -9.68988e-06 0)
(0.138784 -8.37117e-06 0)
(0.138804 -7.15946e-06 0)
(0.13882 -6.03548e-06 0)
(0.138834 -5.03126e-06 0)
(0.138845 -4.15213e-06 0)
(0.138855 -3.39303e-06 0)
(0.138863 -2.75851e-06 0)
(0.138869 -2.2066e-06 0)
(0.138875 -1.77032e-06 0)
(0.138879 -1.36078e-06 0)
(0.138883 -1.08318e-06 0)
(0.138885 -7.53977e-07 0)
(0.138887 -6.20526e-07 0)
(0.138889 -3.36158e-07 0)
(0.196201 0.00362799 0)
(0.196438 0.0049302 0)
(0.196677 0.00572018 0)
(0.197036 0.00633811 0)
(0.197721 0.00662842 0)
(0.198195 0.00656094 0)
(0.198142 0.00660449 0)
(0.197957 0.00666817 0)
(0.197797 0.00663885 0)
(0.197464 0.0066566 0)
(0.196808 0.00651587 0)
(0.195802 0.00603233 0)
(0.19462 0.00538919 0)
(0.193418 0.00471572 0)
(0.192099 0.00396828 0)
(0.190587 0.00322667 0)
(0.189044 0.0025982 0)
(0.187608 0.00201523 0)
(0.186236 0.00140906 0)
(0.18492 0.000860035 0)
(0.183803 0.000495608 0)
(0.182951 0.000324909 0)
(0.182313 0.000218479 0)
(0.181833 7.81077e-05 0)
(0.181499 -6.85579e-05 0)
(0.181314 -0.000189075 0)
(0.181276 -0.000260384 0)
(0.181357 -0.000276563 0)
(0.181511 -0.000249096 0)
(0.18169 -0.000198287 0)
(0.181854 -0.000143747 0)
(0.181985 -9.77654e-05 0)
(0.182079 -6.4384e-05 0)
(0.182141 -4.25593e-05 0)
(0.182179 -2.91351e-05 0)
(0.182203 -2.11293e-05 0)
(0.182218 -1.61609e-05 0)
(0.182227 -1.29095e-05 0)
(0.182235 -1.05053e-05 0)
(0.18224 -8.64464e-06 0)
(0.182245 -7.10456e-06 0)
(0.182248 -5.81421e-06 0)
(0.182252 -4.75071e-06 0)
(0.182253 -3.8076e-06 0)
(0.182256 -3.08833e-06 0)
(0.182257 -2.36565e-06 0)
(0.182259 -1.91908e-06 0)
(0.18226 -1.31972e-06 0)
(0.182261 -1.10356e-06 0)
(0.182261 -5.81498e-07 0)
(0.196509 0.00342361 0)
(0.196745 0.00446991 0)
(0.197097 0.00524494 0)
(0.197371 0.00578142 0)
(0.198037 0.00611342 0)
(0.198939 0.00627721 0)
(0.199563 0.0064322 0)
(0.19998 0.00643233 0)
(0.200437 0.00632941 0)
(0.200957 0.00638002 0)
(0.201423 0.00635382 0)
(0.201674 0.00596632 0)
(0.201758 0.00539577 0)
(0.201828 0.00481286 0)
(0.201786 0.00416064 0)
(0.201481 0.0034732 0)
(0.201019 0.00286388 0)
(0.200536 0.00231073 0)
(0.199989 0.0017383 0)
(0.199343 0.00120792 0)
(0.198697 0.000820158 0)
(0.198156 0.000568364 0)
(0.197734 0.000376822 0)
(0.197393 0.000200456 0)
(0.197097 3.61328e-05 0)
(0.196837 -0.000100262 0)
(0.196628 -0.000191241 0)
(0.196481 -0.000230557 0)
(0.196395 -0.000225074 0)
(0.19636 -0.000191163 0)
(0.196357 -0.000146637 0)
(0.19637 -0.000104517 0)
(0.196386 -7.09865e-05 0)
(0.196399 -4.73667e-05 0)
(0.196406 -3.19465e-05 0)
(0.196408 -2.24573e-05 0)
(0.196407 -1.65374e-05 0)
(0.196404 -1.2828e-05 0)
(0.196401 -1.02209e-05 0)
(0.196397 -8.33437e-06 0)
(0.196394 -6.81857e-06 0)
(0.196391 -5.58304e-06 0)
(0.196389 -4.57257e-06 0)
(0.196387 -3.66276e-06 0)
(0.196386 -2.9832e-06 0)
(0.196384 -2.25903e-06 0)
(0.196384 -1.83274e-06 0)
(0.196382 -1.20556e-06 0)
(0.196382 -9.92659e-07 0)
(0.196381 -4.26012e-07 0)
(0.196984 0.00337082 0)
(0.197095 0.00418206 0)
(0.197442 0.00484736 0)
(0.19776 0.00541606 0)
(0.198233 0.00584506 0)
(0.198982 0.00602462 0)
(0.199721 0.00617002 0)
(0.20025 0.00620409 0)
(0.200695 0.00605585 0)
(0.201236 0.00603652 0)
(0.201823 0.00604359 0)
(0.202286 0.00571858 0)
(0.202642 0.00519897 0)
(0.202986 0.00470165 0)
(0.203228 0.00413062 0)
(0.203258 0.00347756 0)
(0.203157 0.00290348 0)
(0.203006 0.00241069 0)
(0.202758 0.00189808 0)
(0.202385 0.00139395 0)
(0.201972 0.000997928 0)
(0.20161 0.000729301 0)
(0.201313 0.000529219 0)
(0.201056 0.000347216 0)
(0.20081 0.000172949 0)
(0.200564 2.44723e-05 0)
(0.200325 -8.60447e-05 0)
(0.20011 -0.000152934 0)
(0.199933 -0.000176964 0)
(0.199802 -0.000167771 0)
(0.199711 -0.000139534 0)
(0.199652 -0.000105525 0)
(0.199614 -7.42194e-05 0)
(0.199588 -4.97261e-05 0)
(0.199568 -3.24106e-05 0)
(0.199552 -2.12641e-05 0)
(0.199538 -1.42684e-05 0)
(0.199526 -1.01375e-05 0)
(0.199516 -7.50577e-06 0)
(0.199507 -5.8742e-06 0)
(0.1995 -4.6887e-06 0)
(0.199493 -3.81967e-06 0)
(0.199489 -3.12981e-06 0)
(0.199484 -2.50261e-06 0)
(0.199482 -2.04653e-06 0)
(0.199478 -1.50879e-06 0)
(0.199477 -1.21094e-06 0)
(0.199474 -6.96372e-07 0)
(0.199474 -5.40113e-07 0)
(0.199471 -2.97173e-08 0)
(0.197438 0.00334505 0)
(0.197498 0.00397999 0)
(0.197844 0.00457046 0)
(0.198172 0.00509111 0)
(0.198435 0.00550458 0)
(0.199007 0.00569118 0)
(0.199786 0.00581719 0)
(0.200311 0.00589859 0)
(0.200673 0.00579922 0)
(0.201174 0.00570551 0)
(0.201711 0.005663 0)
(0.20213 0.00541153 0)
(0.202504 0.00497494 0)
(0.202855 0.00453708 0)
(0.20309 0.00404077 0)
(0.203195 0.00345926 0)
(0.203217 0.00293065 0)
(0.203141 0.00247553 0)
(0.202942 0.00200289 0)
(0.202663 0.00153156 0)
(0.20237 0.00115296 0)
(0.202094 0.000883657 0)
(0.201839 0.000668266 0)
(0.201604 0.000468172 0)
(0.201381 0.000284138 0)
(0.20116 0.000130186 0)
(0.200941 1.5003e-05 0)
(0.200734 -5.73596e-05 0)
(0.200552 -9.03534e-05 0)
(0.200403 -9.40459e-05 0)
(0.200287 -8.04716e-05 0)
(0.200202 -6.07429e-05 0)
(0.200141 -4.16195e-05 0)
(0.200098 -2.65616e-05 0)
(0.200067 -1.59578e-05 0)
(0.200042 -9.49765e-06 0)
(0.200024 -5.61077e-06 0)
(0.200008 -3.57258e-06 0)
(0.199996 -2.38781e-06 0)
(0.199985 -1.85371e-06 0)
(0.199977 -1.47983e-06 0)
(0.199969 -1.2739e-06 0)
(0.199964 -1.08521e-06 0)
(0.199959 -8.84148e-07 0)
(0.199956 -7.38017e-07 0)
(0.199952 -4.73846e-07 0)
(0.19995 -3.5218e-07 0)
(0.199947 -6.49575e-09 0)
(0.199946 6.81793e-08 0)
(0.199944 4.92033e-07 0)
(0.197855 0.00332871 0)
(0.197922 0.00385354 0)
(0.198193 0.00432503 0)
(0.198482 0.00471569 0)
(0.198679 0.00515065 0)
(0.199115 0.00541347 0)
(0.19983 0.00546241 0)
(0.200322 0.0055434 0)
(0.200607 0.00554479 0)
(0.201073 0.00539603 0)
(0.201584 0.00528644 0)
(0.201922 0.00513185 0)
(0.20224 0.00478363 0)
(0.202576 0.00436402 0)
(0.202782 0.0039468 0)
(0.202879 0.00347078 0)
(0.202941 0.00296944 0)
(0.202904 0.00251372 0)
(0.202727 0.00208307 0)
(0.202485 0.00166171 0)
(0.202249 0.00129748 0)
(0.202022 0.00101683 0)
(0.201795 0.000790109 0)
(0.201579 0.000585882 0)
(0.201378 0.000402385 0)
(0.20118 0.000248769 0)
(0.200981 0.000129118 0)
(0.20079 4.45228e-05 0)
(0.200619 -7.19466e-06 0)
(0.200476 -3.16088e-05 0)
(0.200362 -3.67879e-05 0)
(0.200275 -3.15489e-05 0)
(0.200211 -2.21475e-05 0)
(0.200164 -1.32765e-05 0)
(0.200128 -6.06893e-06 0)
(0.200101 -1.50047e-06 0)
(0.20008 1.21308e-06 0)
(0.200063 2.2822e-06 0)
(0.20005 2.61835e-06 0)
(0.200038 2.33535e-06 0)
(0.20003 1.99965e-06 0)
(0.200022 1.5466e-06 0)
(0.200017 1.21356e-06 0)
(0.200011 9.41893e-07 0)
(0.200008 7.46056e-07 0)
(0.200004 6.98367e-07 0)
(0.200002 6.20144e-07 0)
(0.199999 7.7304e-07 0)
(0.199998 7.56972e-07 0)
(0.199995 1.0824e-06 0)
(0.198219 0.00329881 0)
(0.198263 0.00371106 0)
(0.198487 0.0041005 0)
(0.198808 0.00443748 0)
(0.198961 0.00482446 0)
(0.199196 0.00510803 0)
(0.199838 0.00514837 0)
(0.200362 0.00519429 0)
(0.200546 0.00525407 0)
(0.200927 0.00513995 0)
(0.201461 0.00499087 0)
(0.201751 0.00486761 0)
(0.201963 0.00459147 0)
(0.202269 0.00420708 0)
(0.202479 0.00386063 0)
(0.202558 0.00347564 0)
(0.202622 0.00299597 0)
(0.202614 0.00253454 0)
(0.202456 0.00214426 0)
(0.202239 0.00177981 0)
(0.202053 0.00143912 0)
(0.201876 0.00115467 0)
(0.201677 0.000920041 0)
(0.201474 0.000710206 0)
(0.201284 0.000519492 0)
(0.201104 0.000357294 0)
(0.200927 0.000229798 0)
(0.200757 0.000136208 0)
(0.200606 7.41197e-05 0)
(0.200476 3.83437e-05 0)
(0.200369 2.13107e-05 0)
(0.200285 1.49409e-05 0)
(0.20022 1.38527e-05 0)
(0.200171 1.38506e-05 0)
(0.200135 1.40548e-05 0)
(0.200106 1.3388e-05 0)
(0.200085 1.23552e-05 0)
(0.200067 1.06732e-05 0)
(0.200054 9.0872e-06 0)
(0.200042 7.36596e-06 0)
(0.200034 5.98856e-06 0)
(0.200026 4.68597e-06 0)
(0.200021 3.73005e-06 0)
(0.200015 2.92246e-06 0)
(0.200012 2.34763e-06 0)
(0.200008 1.95952e-06 0)
(0.200006 1.66399e-06 0)
(0.200003 1.6119e-06 0)
(0.200003 1.49511e-06 0)
(0.2 1.71826e-06 0)
(0.198538 0.00324388 0)
(0.198581 0.00359272 0)
(0.198776 0.0039444 0)
(0.199049 0.00420983 0)
(0.199191 0.00448031 0)
(0.199336 0.00480347 0)
(0.199851 0.00490576 0)
(0.200354 0.00486597 0)
(0.200511 0.00494294 0)
(0.200808 0.00493819 0)
(0.201309 0.0047499 0)
(0.201561 0.00458222 0)
(0.201695 0.00440319 0)
(0.201988 0.00410805 0)
(0.202208 0.00377785 0)
(0.202231 0.00342165 0)
(0.202259 0.00299245 0)
(0.202301 0.00257119 0)
(0.202206 0.00222624 0)
(0.202013 0.00190739 0)
(0.201843 0.00157793 0)
(0.201694 0.0012747 0)
(0.201521 0.0010242 0)
(0.201338 0.00081181 0)
(0.20117 0.000623354 0)
(0.201015 0.0004621 0)
(0.200861 0.000332268 0)
(0.200711 0.000231907 0)
(0.200575 0.00015812 0)
(0.200457 0.000107024 0)
(0.200359 7.44013e-05 0)
(0.200279 5.44542e-05 0)
(0.200218 4.28336e-05 0)
(0.20017 3.54268e-05 0)
(0.200134 3.04282e-05 0)
(0.200105 2.59979e-05 0)
(0.200084 2.22892e-05 0)
(0.200066 1.8573e-05 0)
(0.200053 1.54523e-05 0)
(0.200041 1.24619e-05 0)
(0.200033 1.0108e-05 0)
(0.200025 7.96239e-06 0)
(0.20002 6.37345e-06 0)
(0.200015 5.00838e-06 0)
(0.200012 4.03603e-06 0)
(0.200008 3.29048e-06 0)
(0.200007 2.765e-06 0)
(0.200003 2.49763e-06 0)
(0.200003 2.27435e-06 0)
(0.2 2.39025e-06 0)
(0.198843 0.00317819 0)
(0.19886 0.00349111 0)
(0.198997 0.00377924 0)
(0.199233 0.00401034 0)
(0.199429 0.00422606 0)
(0.199508 0.00451218 0)
(0.199827 0.00465233 0)
(0.200321 0.00461037 0)
(0.20053 0.0046628 0)
(0.200686 0.00470014 0)
(0.201083 0.00453 0)
(0.201385 0.00436067 0)
(0.201505 0.00424968 0)
(0.2017 0.00399785 0)
(0.201876 0.00364473 0)
(0.201902 0.00333747 0)
(0.201942 0.0030284 0)
(0.202016 0.00266092 0)
(0.201948 0.00229781 0)
(0.201757 0.00197337 0)
(0.201595 0.00166386 0)
(0.201486 0.0013751 0)
(0.201359 0.00113071 0)
(0.201204 0.0009241 0)
(0.201054 0.000737618 0)
(0.200916 0.000570406 0)
(0.200781 0.000429888 0)
(0.20065 0.000318019 0)
(0.20053 0.000232706 0)
(0.200426 0.000170194 0)
(0.200339 0.000126674 0)
(0.200267 9.66675e-05 0)
(0.20021 7.6205e-05 0)
(0.200165 6.12484e-05 0)
(0.20013 5.02692e-05 0)
(0.200102 4.11812e-05 0)
(0.200081 3.39967e-05 0)
(0.200064 2.76247e-05 0)
(0.200051 2.2542e-05 0)
(0.20004 1.80043e-05 0)
(0.200032 1.45053e-05 0)
(0.200024 1.14142e-05 0)
(0.200019 9.13275e-06 0)
(0.200014 7.17358e-06 0)
(0.200011 5.78146e-06 0)
(0.200008 4.66392e-06 0)
(0.200006 3.89931e-06 0)
(0.200003 3.41004e-06 0)
(0.200003 3.07736e-06 0)
(0.2 3.08257e-06 0)
(0.199136 0.00310037 0)
(0.199121 0.00337923 0)
(0.199227 0.00362729 0)
(0.19942 0.00385047 0)
(0.1996 0.0040176 0)
(0.199665 0.00421524 0)
(0.199863 0.00439482 0)
(0.200268 0.00440524 0)
(0.200484 0.00438734 0)
(0.200576 0.00442701 0)
(0.200891 0.00435207 0)
(0.201192 0.00418323 0)
(0.201255 0.00403998 0)
(0.201349 0.0038389 0)
(0.201545 0.00356028 0)
(0.201632 0.00330733 0)
(0.20163 0.0030407 0)
(0.201643 0.00268595 0)
(0.201604 0.0023221 0)
(0.201479 0.0020279 0)
(0.201357 0.00176766 0)
(0.201273 0.0015032 0)
(0.201172 0.0012529 0)
(0.201039 0.00103381 0)
(0.200906 0.000839904 0)
(0.200789 0.000667508 0)
(0.20068 0.000521477 0)
(0.200572 0.000403415 0)
(0.200472 0.000310384 0)
(0.200384 0.00023809 0)
(0.200309 0.000183554 0)
(0.200246 0.000142617 0)
(0.200194 0.000112429 0)
(0.200153 8.92946e-05 0)
(0.200121 7.1881e-05 0)
(0.200095 5.7797e-05 0)
(0.200075 4.68781e-05 0)
(0.200059 3.76322e-05 0)
(0.200047 3.04095e-05 0)
(0.200037 2.41689e-05 0)
(0.200029 1.93984e-05 0)
(0.200022 1.52538e-05 0)
(0.200018 1.2196e-05 0)
(0.200013 9.57304e-06 0)
(0.20001 7.71061e-06 0)
(0.200007 6.17828e-06 0)
(0.200006 5.14772e-06 0)
(0.200003 4.41057e-06 0)
(0.200003 3.95866e-06 0)
(0.2 3.83612e-06 0)
(0.19942 0.00302704 0)
(0.199394 0.00326877 0)
(0.199455 0.00348787 0)
(0.199584 0.00367959 0)
(0.199739 0.00382451 0)
(0.199828 0.00397019 0)
(0.199923 0.00412832 0)
(0.200174 0.00417468 0)
(0.200406 0.00414811 0)
(0.200498 0.00417243 0)
(0.200655 0.00414116 0)
(0.200874 0.00398732 0)
(0.200978 0.00384132 0)
(0.201058 0.00371115 0)
(0.201194 0.0035029 0)
(0.201245 0.00324435 0)
(0.201213 0.00298184 0)
(0.20123 0.00269495 0)
(0.201256 0.00239585 0)
(0.201188 0.00212308 0)
(0.201072 0.00186745 0)
(0.200985 0.00160672 0)
(0.200912 0.00135486 0)
(0.200822 0.00113286 0)
(0.200723 0.000940309 0)
(0.200634 0.000769523 0)
(0.200551 0.000620282 0)
(0.200468 0.000494429 0)
(0.20039 0.000391285 0)
(0.20032 0.000307831 0)
(0.20026 0.000241986 0)
(0.200209 0.000190363 0)
(0.200167 0.00015079 0)
(0.200132 0.000119671 0)
(0.200105 9.57784e-05 0)
(0.200083 7.64674e-05 0)
(0.200065 6.15031e-05 0)
(0.200051 4.9056e-05 0)
(0.200041 3.94064e-05 0)
(0.200032 3.12199e-05 0)
(0.200025 2.499e-05 0)
(0.200019 1.96411e-05 0)
(0.200015 1.56956e-05 0)
(0.200011 1.23171e-05 0)
(0.200009 9.91865e-06 0)
(0.200006 7.91337e-06 0)
(0.200005 6.57898e-06 0)
(0.200003 5.55603e-06 0)
(0.200002 4.96613e-06 0)
(0.2 4.69209e-06 0)
(0.199667 0.00297333 0)
(0.19965 0.00317133 0)
(0.199677 0.00336195 0)
(0.199755 0.00353123 0)
(0.199855 0.00366732 0)
(0.199924 0.00377511 0)
(0.199974 0.00388538 0)
(0.200107 0.00395855 0)
(0.200268 0.00395819 0)
(0.200338 0.00394405 0)
(0.200412 0.00392047 0)
(0.200561 0.00383221 0)
(0.200657 0.00370881 0)
(0.200682 0.00357939 0)
(0.200738 0.00340027 0)
(0.200797 0.00317688 0)
(0.200808 0.00295702 0)
(0.200815 0.00272692 0)
(0.20082 0.00245849 0)
(0.200775 0.00217875 0)
(0.2007 0.00192074 0)
(0.200648 0.00168037 0)
(0.200611 0.00144857 0)
(0.200558 0.00123238 0)
(0.200493 0.0010385 0)
(0.200432 0.000865222 0)
(0.200377 0.000711379 0)
(0.200324 0.000578299 0)
(0.200273 0.000466751 0)
(0.200227 0.000374463 0)
(0.200187 0.000299469 0)
(0.200152 0.000238627 0)
(0.200123 0.000190416 0)
(0.200098 0.00015155 0)
(0.200078 0.000121094 0)
(0.200062 9.63023e-05 0)
(0.200049 7.69822e-05 0)
(0.200038 6.10374e-05 0)
(0.20003 4.87126e-05 0)
(0.200024 3.83919e-05 0)
(0.200019 3.05698e-05 0)
(0.200014 2.39332e-05 0)
(0.200011 1.90522e-05 0)
(0.200008 1.48988e-05 0)
(0.200007 1.19613e-05 0)
(0.200004 9.49431e-06 0)
(0.200004 7.86873e-06 0)
(0.200002 6.58381e-06 0)
(0.200002 5.86671e-06 0)
(0.2 5.46976e-06 0)
(0.199889 0.002945 0)
(0.199886 0.0031136 0)
(0.199891 0.00328351 0)
(0.199913 0.00343648 0)
(0.199946 0.00356157 0)
(0.199976 0.00365617 0)
(0.199997 0.0037412 0)
(0.200035 0.00381044 0)
(0.20009 0.00382457 0)
(0.200122 0.0038037 0)
(0.200143 0.00378206 0)
(0.200187 0.00372272 0)
(0.200224 0.00360947 0)
(0.20024 0.00348189 0)
(0.200265 0.00333746 0)
(0.200291 0.00314945 0)
(0.200291 0.00293544 0)
(0.200284 0.0027113 0)
(0.200285 0.00246509 0)
(0.200281 0.00220595 0)
(0.200263 0.00196003 0)
(0.200244 0.00172968 0)
(0.20023 0.00150441 0)
(0.200211 0.00128841 0)
(0.200188 0.00109275 0)
(0.200167 0.000919492 0)
(0.200149 0.000765839 0)
(0.200131 0.000631015 0)
(0.200113 0.000516039 0)
(0.200096 0.000419432 0)
(0.200082 0.000339595 0)
(0.200068 0.000273575 0)
(0.200057 0.000220289 0)
(0.200047 0.000176668 0)
(0.200038 0.000142 0)
(0.200031 0.000113492 0)
(0.200025 9.10445e-05 0)
(0.200021 7.243e-05 0)
(0.200017 5.7937e-05 0)
(0.200013 4.57865e-05 0)
(0.200011 3.65211e-05 0)
(0.200008 2.86619e-05 0)
(0.200007 2.28498e-05 0)
(0.200005 1.78929e-05 0)
(0.200004 1.43774e-05 0)
(0.200003 1.13865e-05 0)
(0.200003 9.42946e-06 0)
(0.200002 7.80328e-06 0)
(0.200001 6.93526e-06 0)
(0.200001 6.31207e-06 0)
(0.192712 -0.000374555 0)
(0.207349 -8.84382e-05 0)
(0.192279 0.00110074 0)
(0.207311 0.00087328 0)
(0.191977 -0.000506821 0)
(0.206558 -0.00154687 0)
(0.192029 -0.000959554 0)
(0.205948 0.0001136 0)
(0.190719 0.000934148 0)
(0.204488 0.000748038 0)
(0.189483 0.00058482 0)
(0.202826 0.00082593 0)
(0.196894 -0.00038614 0)
(0.202423 -2.96811e-05 0)
(0.19701 0.00114682 0)
(0.202459 0.000818694 0)
(0.197456 -0.000438968 0)
(0.200867 -0.00145268 0)
(0.197204 -0.000807604 0)
(0.199461 0.000213549 0)
(0.196538 0.00121693 0)
(0.198113 0.00111281 0)
(0.196336 0.00136306 0)
(0.196287 0.0018957 0)
(0.199396 -0.000298137 0)
(0.199869 -1.76238e-05 0)
(0.19923 0.00103744 0)
(0.200787 0.000766444 0)
(0.199523 -0.000287198 0)
(0.199251 -0.00110317 0)
(0.198262 -0.00063981 0)
(0.197805 0.000389858 0)
(0.197277 0.00128053 0)
(0.197475 0.00150349 0)
(0.197103 0.00163836 0)
(0.196414 0.00226795 0)
(0.200057 -0.000238856 0)
(0.199364 5.15306e-05 0)
(0.199766 0.000888136 0)
(0.200556 0.000696272 0)
(0.199872 -0.000132828 0)
(0.199115 -0.000747223 0)
(0.19845 -0.000369006 0)
(0.197695 0.000542604 0)
(0.197373 0.00131637 0)
(0.19758 0.00167156 0)
(0.197434 0.00193332 0)
(0.19684 0.00248713 0)
(0.200148 -0.000198761 0)
(0.199396 0.000154531 0)
(0.199886 0.00071419 0)
(0.200473 0.000606418 0)
(0.199817 5.20551e-05 0)
(0.199144 -0.000362242 0)
(0.198661 -7.49732e-05 0)
(0.197934 0.000707846 0)
(0.197576 0.00138514 0)
(0.197765 0.0017792 0)
(0.197711 0.00213602 0)
(0.197278 0.0026527 0)
(0.20014 -0.00016575 0)
(0.19949 0.000227531 0)
(0.199934 0.000606059 0)
(0.200395 0.000524478 0)
(0.199707 0.000241992 0)
(0.19915 -2.12658e-05 0)
(0.198879 0.000174302 0)
(0.198247 0.00086624 0)
(0.197832 0.0014838 0)
(0.19798 0.00185461 0)
(0.197979 0.00225126 0)
(0.197663 0.00276905 0)
(0.200124 -0.000137078 0)
(0.199576 0.000280601 0)
(0.19994 0.000565375 0)
(0.200328 0.000439745 0)
(0.199634 0.000394098 0)
(0.199153 0.000301548 0)
(0.199077 0.00041193 0)
(0.19856 0.000995359 0)
(0.198087 0.00159383 0)
(0.198199 0.00193809 0)
(0.198261 0.00231915 0)
(0.198012 0.00283208 0)
(0.200106 -9.93112e-05 0)
(0.199649 0.000289925 0)
(0.199918 0.000566268 0)
(0.200278 0.000398013 0)
(0.199626 0.000498773 0)
(0.199158 0.000595884 0)
(0.199219 0.000641074 0)
(0.198855 0.00108842 0)
(0.198353 0.00169557 0)
(0.198408 0.0020454 0)
(0.198531 0.00236292 0)
(0.198351 0.0028453 0)
(0.200088 -5.75942e-05 0)
(0.199718 0.000275763 0)
(0.199882 0.000594235 0)
(0.200222 0.000409248 0)
(0.199666 0.000545831 0)
(0.199189 0.00081802 0)
(0.199313 0.000873762 0)
(0.199121 0.00117801 0)
(0.198629 0.00175946 0)
(0.198598 0.00214524 0)
(0.19877 0.00240786 0)
(0.19867 0.00282661 0)
(0.200068 -1.13501e-05 0)
(0.199785 0.000251237 0)
(0.199849 0.000612295 0)
(0.200154 0.000472851 0)
(0.199739 0.00058576 0)
(0.199262 0.00096464 0)
(0.19937 0.0010942 0)
(0.199332 0.00128169 0)
(0.198912 0.00178485 0)
(0.198796 0.00221652 0)
(0.19897 0.00246462 0)
(0.198956 0.00279986 0)
(0.200048 3.54666e-05 0)
(0.199851 0.000235606 0)
(0.199837 0.000606365 0)
(0.200078 0.00057648 0)
(0.199818 0.000650436 0)
(0.199382 0.00104194 0)
(0.199426 0.00127852 0)
(0.199496 0.00142434 0)
(0.199201 0.00180897 0)
(0.199024 0.00224468 0)
(0.199153 0.00251377 0)
(0.199214 0.00278434 0)
(0.200028 7.52234e-05 0)
(0.199912 0.000244532 0)
(0.199856 0.000584335 0)
(0.200008 0.000681725 0)
(0.199883 0.00075128 0)
(0.199552 0.00109104 0)
(0.199524 0.00140495 0)
(0.199622 0.00157816 0)
(0.199468 0.00185678 0)
(0.199296 0.00224523 0)
(0.199357 0.00254122 0)
(0.199445 0.00277998 0)
(0.200013 0.000101864 0)
(0.199958 0.000273085 0)
(0.199904 0.000565485 0)
(0.199972 0.000755961 0)
(0.199931 0.000867184 0)
(0.199739 0.00114092 0)
(0.199679 0.00146921 0)
(0.199747 0.00169564 0)
(0.1997 0.00192582 0)
(0.199587 0.00224422 0)
(0.199591 0.00253974 0)
(0.199656 0.00277131 0)
(0.200003 0.000114827 0)
(0.199988 0.000299079 0)
(0.199966 0.000560105 0)
(0.199983 0.000793775 0)
(0.199976 0.000947352 0)
(0.199915 0.00118294 0)
(0.199885 0.00149818 0)
(0.199907 0.00176015 0)
(0.199902 0.00197885 0)
(0.199863 0.00224604 0)
(0.199856 0.00252743 0)
(0.199878 0.00276119 0)
)
;

boundaryField
{
    top
    {
        type            zeroGradient;
    }
    inlet
    {
        type            fixedValue;
        value           uniform (0.2 0 0);
    }
    outlet
    {
        type            zeroGradient;
    }
    plate
    {
        type            fixedValue;
        value           uniform (0 0 0);
    }
    symmBound
    {
        type            zeroGradient;
    }
    frontAndBack
    {
        type            empty;
    }
}


// ************************************************************************* //
