/*--------------------------------*- C++ -*----------------------------------*\
| =========                 |                                                 |
| \\      /  F ield         | OpenFOAM: The Open Source CFD Toolbox           |
|  \\    /   O peration     | Version:  2.3.0                                 |
|   \\  /    A nd           | Web:      www.OpenFOAM.org                      |
|    \\/     M anipulation  |                                                 |
\*---------------------------------------------------------------------------*/
FoamFile
{
    version     2.0;
    format      ascii;
    class       volVectorField;
    location    "0.75";
    object      U_0;
}
// * * * * * * * * * * * * * * * * * * * * * * * * * * * * * * * * * * * * * //

dimensions      [0 1 -1 0 0 0 0];

internalField   nonuniform List<vector> 
2945
(
(0.153789 0.00668147 0)
(0.125028 0.00576603 0)
(0.100445 0.00443544 0)
(0.0804748 0.00314339 0)
(0.0652443 0.00206591 0)
(0.0541394 0.00126813 0)
(0.0462378 0.000739062 0)
(0.0406538 0.000420488 0)
(0.0366607 0.000243931 0)
(0.0337143 0.000152825 0)
(0.0314411 0.000108142 0)
(0.0296043 8.62194e-05 0)
(0.0280619 7.43604e-05 0)
(0.0267304 6.65724e-05 0)
(0.0255596 6.03992e-05 0)
(0.0245175 5.4991e-05 0)
(0.0235816 5.01142e-05 0)
(0.0227352 4.57201e-05 0)
(0.0219653 4.17893e-05 0)
(0.0212611 3.82922e-05 0)
(0.020614 3.51869e-05 0)
(0.0200167 3.24274e-05 0)
(0.0194632 2.99687e-05 0)
(0.0189484 2.77704e-05 0)
(0.0184682 2.57976e-05 0)
(0.0180188 2.40206e-05 0)
(0.0175973 2.24142e-05 0)
(0.0172008 2.09573e-05 0)
(0.0168271 1.96321e-05 0)
(0.0164742 1.84233e-05 0)
(0.0161403 1.73179e-05 0)
(0.0158237 1.63045e-05 0)
(0.0155231 1.53735e-05 0)
(0.0152372 1.45164e-05 0)
(0.014965 1.37257e-05 0)
(0.0147053 1.2995e-05 0)
(0.0144573 1.23185e-05 0)
(0.0142202 1.16911e-05 0)
(0.0139932 1.11083e-05 0)
(0.0137757 1.0566e-05 0)
(0.0135669 1.00608e-05 0)
(0.0133665 9.58931e-06 0)
(0.0131737 9.14874e-06 0)
(0.0129883 8.73646e-06 0)
(0.0128097 8.35016e-06 0)
(0.0126375 7.98771e-06 0)
(0.0124715 7.6472e-06 0)
(0.0123111 7.32694e-06 0)
(0.0121562 7.02532e-06 0)
(0.0120065 6.74099e-06 0)
(0.0118616 6.47265e-06 0)
(0.0117213 6.21916e-06 0)
(0.0115854 5.97948e-06 0)
(0.0114537 5.75267e-06 0)
(0.0113261 5.53789e-06 0)
(0.0112022 5.33442e-06 0)
(0.0110819 5.14158e-06 0)
(0.0109651 4.95878e-06 0)
(0.0108516 4.78554e-06 0)
(0.0107412 4.62144e-06 0)
(0.0106339 4.46611e-06 0)
(0.0105295 4.31928e-06 0)
(0.0104278 4.18075e-06 0)
(0.0103287 4.05042e-06 0)
(0.0102321 3.92827e-06 0)
(0.0101378 3.81439e-06 0)
(0.0100458 3.70904e-06 0)
(0.00995577 3.61272e-06 0)
(0.00986765 3.52637e-06 0)
(0.00978123 3.45202e-06 0)
(0.00969622 3.39195e-06 0)
(0.00961274 3.36892e-06 0)
(0.00952473 3.4151e-06 0)
(0.00947434 2.17566e-06 0)
(0.00921233 2.01151e-05 0)
(0.184632 0.0109647 0)
(0.176257 0.0104473 0)
(0.165288 0.00906623 0)
(0.153354 0.00746918 0)
(0.141704 0.00589654 0)
(0.130937 0.00449787 0)
(0.121269 0.00335862 0)
(0.112739 0.00249499 0)
(0.105298 0.00187457 0)
(0.0988396 0.00144355 0)
(0.0932344 0.00114706 0)
(0.0883504 0.000940227 0)
(0.0840678 0.000791205 0)
(0.0802845 0.000679414 0)
(0.0769166 0.00059228 0)
(0.0738963 0.000522238 0)
(0.0711694 0.000464639 0)
(0.068692 0.000416484 0)
(0.0664287 0.000375714 0)
(0.0643506 0.00034084 0)
(0.0624342 0.000310738 0)
(0.0606596 0.000284545 0)
(0.0590104 0.000261582 0)
(0.0574727 0.000241316 0)
(0.0560347 0.000223321 0)
(0.0546864 0.000207256 0)
(0.0534191 0.000192843 0)
(0.0522251 0.000179855 0)
(0.0510979 0.000168106 0)
(0.0500317 0.000157438 0)
(0.0490214 0.000147722 0)
(0.0480625 0.000138844 0)
(0.0471509 0.000130712 0)
(0.046283 0.000123244 0)
(0.0454557 0.000116368 0)
(0.0446659 0.000110026 0)
(0.043911 0.000104162 0)
(0.0431887 9.87301e-05 0)
(0.0424967 9.36898e-05 0)
(0.0418332 8.90045e-05 0)
(0.0411962 8.46417e-05 0)
(0.0405842 8.0573e-05 0)
(0.0399956 7.67724e-05 0)
(0.039429 7.32172e-05 0)
(0.0388833 6.98866e-05 0)
(0.0383571 6.67621e-05 0)
(0.0378494 6.3827e-05 0)
(0.0373592 6.1066e-05 0)
(0.0368857 5.84655e-05 0)
(0.0364278 5.60131e-05 0)
(0.035985 5.36976e-05 0)
(0.0355563 5.15089e-05 0)
(0.0351412 4.94377e-05 0)
(0.034739 4.74756e-05 0)
(0.0343491 4.56152e-05 0)
(0.033971 4.38497e-05 0)
(0.0336041 4.2173e-05 0)
(0.033248 4.05796e-05 0)
(0.0329023 3.90649e-05 0)
(0.0325665 3.76245e-05 0)
(0.0322401 3.62549e-05 0)
(0.0319229 3.4953e-05 0)
(0.0316144 3.37165e-05 0)
(0.0313143 3.25435e-05 0)
(0.0310222 3.14329e-05 0)
(0.0307377 3.03844e-05 0)
(0.0304605 2.93989e-05 0)
(0.0301901 2.84785e-05 0)
(0.0299262 2.76285e-05 0)
(0.0296682 2.68604e-05 0)
(0.0294155 2.61927e-05 0)
(0.0291677 2.57714e-05 0)
(0.0289154 2.53149e-05 0)
(0.0287202 2.63578e-05 0)
(0.0281633 7.79835e-05 0)
(0.191305 0.0115777 0)
(0.190659 0.0118786 0)
(0.187725 0.011095 0)
(0.182996 0.00984935 0)
(0.177223 0.00842559 0)
(0.17094 0.00702925 0)
(0.164496 0.00579797 0)
(0.158131 0.00478607 0)
(0.151999 0.00398668 0)
(0.14618 0.0033642 0)
(0.140708 0.00287747 0)
(0.135587 0.00249117 0)
(0.130805 0.00217886 0)
(0.126346 0.00192198 0)
(0.122187 0.00170771 0)
(0.118309 0.00152698 0)
(0.114688 0.00137319 0)
(0.111305 0.00124133 0)
(0.10814 0.00112749 0)
(0.105175 0.00102857 0)
(0.102393 0.0009421 0)
(0.0997779 0.000866057 0)
(0.0973161 0.000798812 0)
(0.0949949 0.000739034 0)
(0.0928027 0.000685634 0)
(0.090729 0.000637716 0)
(0.0887646 0.000594536 0)
(0.0869009 0.000555478 0)
(0.0851304 0.000520023 0)
(0.0834462 0.000487733 0)
(0.081842 0.000458239 0)
(0.0803122 0.000431223 0)
(0.0788516 0.000406415 0)
(0.0774556 0.00038358 0)
(0.07612 0.000362513 0)
(0.0748407 0.000343038 0)
(0.0736142 0.000325 0)
(0.0724373 0.000308262 0)
(0.071307 0.000292702 0)
(0.0702205 0.000278215 0)
(0.0691751 0.000264704 0)
(0.0681687 0.000252084 0)
(0.0671989 0.00024028 0)
(0.0662639 0.000229223 0)
(0.0653616 0.000218851 0)
(0.0644904 0.000209108 0)
(0.0636488 0.000199945 0)
(0.0628351 0.000191315 0)
(0.0620481 0.000183178 0)
(0.0612864 0.000175495 0)
(0.0605489 0.000168234 0)
(0.0598344 0.000161362 0)
(0.0591419 0.000154851 0)
(0.0584705 0.000148677 0)
(0.0578192 0.000142815 0)
(0.0571873 0.000137244 0)
(0.0565739 0.000131947 0)
(0.0559783 0.000126904 0)
(0.0553999 0.000122102 0)
(0.0548379 0.000117527 0)
(0.0542917 0.000113167 0)
(0.0537608 0.000109012 0)
(0.0532446 0.000105054 0)
(0.0527425 0.000101286 0)
(0.052254 9.77044e-05 0)
(0.0517786 9.43061e-05 0)
(0.0513157 9.10923e-05 0)
(0.0508647 8.8068e-05 0)
(0.0504251 8.52458e-05 0)
(0.049996 8.26547e-05 0)
(0.0495766 8.03518e-05 0)
(0.049166 7.86724e-05 0)
(0.0487555 7.70091e-05 0)
(0.048395 8.52653e-05 0)
(0.0476649 0.000162613 0)
(0.193215 0.0110365 0)
(0.194857 0.0118114 0)
(0.195293 0.011526 0)
(0.194379 0.010691 0)
(0.192393 0.00957169 0)
(0.189608 0.00837287 0)
(0.186265 0.00724836 0)
(0.182572 0.00627578 0)
(0.178697 0.00547016 0)
(0.174755 0.00481318 0)
(0.170819 0.00427579 0)
(0.16693 0.00383023 0)
(0.163116 0.00345445 0)
(0.159391 0.00313244 0)
(0.155768 0.00285293 0)
(0.152255 0.00260798 0)
(0.148855 0.0023918 0)
(0.145571 0.00219999 0)
(0.142405 0.00202904 0)
(0.139356 0.00187613 0)
(0.136423 0.00173888 0)
(0.133602 0.00161528 0)
(0.130892 0.00150364 0)
(0.128287 0.00140251 0)
(0.125785 0.00131064 0)
(0.123382 0.00122696 0)
(0.121073 0.00115054 0)
(0.118854 0.00108059 0)
(0.116721 0.0010164 0)
(0.11467 0.000957381 0)
(0.112698 0.000902998 0)
(0.110799 0.00085279 0)
(0.108972 0.000806349 0)
(0.107212 0.000763318 0)
(0.105516 0.000723378 0)
(0.10388 0.000686249 0)
(0.102303 0.00065168 0)
(0.100781 0.000619447 0)
(0.0993119 0.00058935 0)
(0.0978924 0.000561209 0)
(0.0965206 0.000534863 0)
(0.0951941 0.000510165 0)
(0.093911 0.000486983 0)
(0.0926691 0.000465198 0)
(0.0914667 0.000444702 0)
(0.090302 0.000425394 0)
(0.0891733 0.000407185 0)
(0.088079 0.000389993 0)
(0.0870177 0.000373743 0)
(0.085988 0.000358365 0)
(0.0849887 0.000343797 0)
(0.0840184 0.000329981 0)
(0.0830761 0.000316866 0)
(0.0821607 0.000304402 0)
(0.0812712 0.000292545 0)
(0.0804066 0.000281257 0)
(0.079566 0.0002705 0)
(0.0787486 0.000260241 0)
(0.0779537 0.000250451 0)
(0.0771804 0.000241104 0)
(0.0764281 0.000232176 0)
(0.075696 0.000223648 0)
(0.0749836 0.000215503 0)
(0.0742902 0.000207726 0)
(0.0736151 0.00020031 0)
(0.0729578 0.000193247 0)
(0.0723175 0.000186538 0)
(0.0716938 0.000180191 0)
(0.0710857 0.000174228 0)
(0.0704926 0.000168698 0)
(0.0699134 0.000163716 0)
(0.0693467 0.000159775 0)
(0.0687855 0.000156721 0)
(0.0682633 0.000171314 0)
(0.0674158 0.00025917 0)
(0.194057 0.0103809 0)
(0.196112 0.0113141 0)
(0.197649 0.0112982 0)
(0.198354 0.0107482 0)
(0.198273 0.00989478 0)
(0.197509 0.00891391 0)
(0.196183 0.00794848 0)
(0.194432 0.00708204 0)
(0.192383 0.00634211 0)
(0.190135 0.00572258 0)
(0.187753 0.00520376 0)
(0.185282 0.00476415 0)
(0.18275 0.00438557 0)
(0.180177 0.00405434 0)
(0.177581 0.0037607 0)
(0.174974 0.00349779 0)
(0.172369 0.00326064 0)
(0.169774 0.00304554 0)
(0.167199 0.00284962 0)
(0.164651 0.00267054 0)
(0.162136 0.00250637 0)
(0.159659 0.00235548 0)
(0.157225 0.00221649 0)
(0.154836 0.00208819 0)
(0.152494 0.00196954 0)
(0.150203 0.00185964 0)
(0.147963 0.00175767 0)
(0.145775 0.00166293 0)
(0.14364 0.00157479 0)
(0.141557 0.00149268 0)
(0.139527 0.0014161 0)
(0.137549 0.00134459 0)
(0.135622 0.00127775 0)
(0.133745 0.0012152 0)
(0.131919 0.00115661 0)
(0.130141 0.00110168 0)
(0.12841 0.00105012 0)
(0.126726 0.00100168 0)
(0.125087 0.00095613 0)
(0.123492 0.000913262 0)
(0.12194 0.000872877 0)
(0.120429 0.000834798 0)
(0.118958 0.000798861 0)
(0.117526 0.000764914 0)
(0.116132 0.000732819 0)
(0.114774 0.000702446 0)
(0.113452 0.000673676 0)
(0.112165 0.000646401 0)
(0.11091 0.000620519 0)
(0.109688 0.000595936 0)
(0.108497 0.000572565 0)
(0.107337 0.000550326 0)
(0.106206 0.000529146 0)
(0.105103 0.000508955 0)
(0.104028 0.000489692 0)
(0.102981 0.000471298 0)
(0.101959 0.00045372 0)
(0.100963 0.00043691 0)
(0.0999915 0.000420825 0)
(0.0990443 0.000405424 0)
(0.0981207 0.000390675 0)
(0.09722 0.000376545 0)
(0.0963417 0.00036301 0)
(0.0954852 0.00035005 0)
(0.0946499 0.000337647 0)
(0.0938352 0.000325795 0)
(0.0930406 0.000314492 0)
(0.0922654 0.000303749 0)
(0.091509 0.000293598 0)
(0.0907706 0.000284114 0)
(0.090049 0.000275479 0)
(0.0893429 0.000268327 0)
(0.0886466 0.000263549 0)
(0.0879836 0.000281258 0)
(0.0870472 0.000365991 0)
(0.194638 0.0097611 0)
(0.196567 0.0107158 0)
(0.19831 0.0108435 0)
(0.199552 0.0104774 0)
(0.20026 0.00982021 0)
(0.200466 0.00902003 0)
(0.200222 0.0082018 0)
(0.19961 0.00744618 0)
(0.198719 0.0067863 0)
(0.197623 0.00622383 0)
(0.196372 0.00574597 0)
(0.195 0.00533626 0)
(0.19353 0.00497978 0)
(0.191977 0.00466482 0)
(0.190353 0.0043828 0)
(0.188668 0.00412756 0)
(0.186933 0.00389465 0)
(0.185154 0.00368078 0)
(0.18334 0.00348342 0)
(0.181499 0.00330055 0)
(0.179636 0.00313056 0)
(0.177759 0.0029721 0)
(0.175872 0.00282403 0)
(0.173982 0.00268541 0)
(0.172091 0.00255539 0)
(0.170206 0.00243327 0)
(0.168328 0.00231843 0)
(0.166462 0.0022103 0)
(0.164611 0.0021084 0)
(0.162777 0.00201229 0)
(0.160962 0.00192157 0)
(0.159168 0.00183587 0)
(0.157397 0.00175488 0)
(0.155651 0.00167827 0)
(0.153929 0.00160578 0)
(0.152234 0.00153715 0)
(0.150566 0.00147213 0)
(0.148925 0.0014105 0)
(0.147312 0.00135206 0)
(0.145727 0.00129662 0)
(0.144171 0.00124398 0)
(0.142643 0.00119399 0)
(0.141144 0.00114647 0)
(0.139672 0.00110129 0)
(0.138229 0.0010583 0)
(0.136814 0.00101737 0)
(0.135427 0.000978376 0)
(0.134067 0.000941205 0)
(0.132734 0.000905745 0)
(0.131427 0.000871896 0)
(0.130147 0.000839561 0)
(0.128893 0.000808651 0)
(0.127665 0.000779081 0)
(0.126462 0.000750773 0)
(0.125283 0.000723654 0)
(0.124129 0.000697657 0)
(0.123 0.000672719 0)
(0.121893 0.000648782 0)
(0.120811 0.000625794 0)
(0.119751 0.000603707 0)
(0.118714 0.000582479 0)
(0.117699 0.000562073 0)
(0.116707 0.000542458 0)
(0.115735 0.000523608 0)
(0.114786 0.000505505 0)
(0.113857 0.00048814 0)
(0.112948 0.000471513 0)
(0.11206 0.000455641 0)
(0.111191 0.000440567 0)
(0.110341 0.000426395 0)
(0.109509 0.000413378 0)
(0.108693 0.000402295 0)
(0.107891 0.000395133 0)
(0.10712 0.000412202 0)
(0.106122 0.000483076 0)
(0.195133 0.00919903 0)
(0.196824 0.0101233 0)
(0.19848 0.0103359 0)
(0.199818 0.0100952 0)
(0.200781 0.00957995 0)
(0.201375 0.00891836 0)
(0.201628 0.00821897 0)
(0.201591 0.0075569 0)
(0.201329 0.00696769 0)
(0.200895 0.00645833 0)
(0.200331 0.00602126 0)
(0.199663 0.00564409 0)
(0.198905 0.00531458 0)
(0.198068 0.0050226 0)
(0.19716 0.00476041 0)
(0.196186 0.00452232 0)
(0.195151 0.00430412 0)
(0.194061 0.00410269 0)
(0.192919 0.00391565 0)
(0.191731 0.00374113 0)
(0.1905 0.00357763 0)
(0.189231 0.00342393 0)
(0.187929 0.00327903 0)
(0.186596 0.00314211 0)
(0.185237 0.00301246 0)
(0.183856 0.00288949 0)
(0.182455 0.00277268 0)
(0.181039 0.0026616 0)
(0.17961 0.00255587 0)
(0.178172 0.00245514 0)
(0.176727 0.00235911 0)
(0.175277 0.00226751 0)
(0.173825 0.00218009 0)
(0.172373 0.00209663 0)
(0.170923 0.00201691 0)
(0.169477 0.00194075 0)
(0.168037 0.00186796 0)
(0.166604 0.00179837 0)
(0.16518 0.00173182 0)
(0.163765 0.00166816 0)
(0.162361 0.00160726 0)
(0.160969 0.00154896 0)
(0.15959 0.00149314 0)
(0.158224 0.00143968 0)
(0.156873 0.00138846 0)
(0.155536 0.00133937 0)
(0.154215 0.00129229 0)
(0.15291 0.00124714 0)
(0.151621 0.0012038 0)
(0.150349 0.00116218 0)
(0.149094 0.0011222 0)
(0.147856 0.00108378 0)
(0.146636 0.00104682 0)
(0.145433 0.00101126 0)
(0.144248 0.000977027 0)
(0.143081 0.000944051 0)
(0.141933 0.00091227 0)
(0.140802 0.000881627 0)
(0.13969 0.000852069 0)
(0.138596 0.000823547 0)
(0.13752 0.000796019 0)
(0.136462 0.000769448 0)
(0.135423 0.000743802 0)
(0.134403 0.000719056 0)
(0.1334 0.000695195 0)
(0.132416 0.000672212 0)
(0.13145 0.000650113 0)
(0.130502 0.000628923 0)
(0.129571 0.000608704 0)
(0.128658 0.000589585 0)
(0.127761 0.000571887 0)
(0.12688 0.000556529 0)
(0.126013 0.000546251 0)
(0.125177 0.000559238 0)
(0.124152 0.000608515 0)
(0.195579 0.00870208 0)
(0.197038 0.00957407 0)
(0.198533 0.00983977 0)
(0.199814 0.00969097 0)
(0.200815 0.00928348 0)
(0.201531 0.00873029 0)
(0.20198 0.00812621 0)
(0.2022 0.00754026 0)
(0.202239 0.00700891 0)
(0.202143 0.00654307 0)
(0.201945 0.00613952 0)
(0.201666 0.00578933 0)
(0.201321 0.00548268 0)
(0.200916 0.00521087 0)
(0.200456 0.00496696 0)
(0.199945 0.00474564 0)
(0.199384 0.00454291 0)
(0.198775 0.00435573 0)
(0.198121 0.00418174 0)
(0.197423 0.0040191 0)
(0.196684 0.00386635 0)
(0.195904 0.00372228 0)
(0.195087 0.00358592 0)
(0.194234 0.00345647 0)
(0.193347 0.00333327 0)
(0.192429 0.00321576 0)
(0.191481 0.00310347 0)
(0.190507 0.00299601 0)
(0.189507 0.00289304 0)
(0.188484 0.00279427 0)
(0.18744 0.00269945 0)
(0.186378 0.00260835 0)
(0.185298 0.00252077 0)
(0.184203 0.00243655 0)
(0.183096 0.00235551 0)
(0.181976 0.00227752 0)
(0.180847 0.00220243 0)
(0.17971 0.00213012 0)
(0.178566 0.00206047 0)
(0.177416 0.00199337 0)
(0.176263 0.00192872 0)
(0.175108 0.0018664 0)
(0.173951 0.00180632 0)
(0.172794 0.00174839 0)
(0.171638 0.00169252 0)
(0.170483 0.00163862 0)
(0.169332 0.00158661 0)
(0.168185 0.0015364 0)
(0.167042 0.00148792 0)
(0.165905 0.00144108 0)
(0.164775 0.00139583 0)
(0.163651 0.00135207 0)
(0.162535 0.00130976 0)
(0.161426 0.00126883 0)
(0.160327 0.0012292 0)
(0.159237 0.00119083 0)
(0.158157 0.00115367 0)
(0.157088 0.00111765 0)
(0.156029 0.00108274 0)
(0.154981 0.00104889 0)
(0.153945 0.00101607 0)
(0.152921 0.000984243 0)
(0.15191 0.000953384 0)
(0.150911 0.000923476 0)
(0.149924 0.00089451 0)
(0.148951 0.000866486 0)
(0.147992 0.000839422 0)
(0.147045 0.000813355 0)
(0.146113 0.000788364 0)
(0.145193 0.00076461 0)
(0.144287 0.000742467 0)
(0.143394 0.000722945 0)
(0.142512 0.00070905 0)
(0.141663 0.000715354 0)
(0.140652 0.00073868 0)
(0.195984 0.00826436 0)
(0.197242 0.00907416 0)
(0.19857 0.00937249 0)
(0.199752 0.00929533 0)
(0.200715 0.00897498 0)
(0.201448 0.0085112 0)
(0.201961 0.00798707 0)
(0.202283 0.00746544 0)
(0.202455 0.0069827 0)
(0.202515 0.00655276 0)
(0.202494 0.00617601 0)
(0.20241 0.00584668 0)
(0.202278 0.00555721 0)
(0.202104 0.00530037 0)
(0.201892 0.00507007 0)
(0.201644 0.00486148 0)
(0.201362 0.00467081 0)
(0.201048 0.00449515 0)
(0.2007 0.00433218 0)
(0.20032 0.00418008 0)
(0.199909 0.00403735 0)
(0.199466 0.0039028 0)
(0.198992 0.00377544 0)
(0.198488 0.00365445 0)
(0.197955 0.00353915 0)
(0.197393 0.00342899 0)
(0.196803 0.00332348 0)
(0.196186 0.00322223 0)
(0.195544 0.00312491 0)
(0.194876 0.00303122 0)
(0.194184 0.00294094 0)
(0.193469 0.00285383 0)
(0.192732 0.00276973 0)
(0.191974 0.00268846 0)
(0.191197 0.0026099 0)
(0.190402 0.0025339 0)
(0.189589 0.00246036 0)
(0.188761 0.00238916 0)
(0.187917 0.00232022 0)
(0.18706 0.00225344 0)
(0.186189 0.00218873 0)
(0.185307 0.00212602 0)
(0.184415 0.00206522 0)
(0.183513 0.00200628 0)
(0.182603 0.0019491 0)
(0.181685 0.00189364 0)
(0.18076 0.00183981 0)
(0.17983 0.00178757 0)
(0.178895 0.00173684 0)
(0.177957 0.00168757 0)
(0.177015 0.00163969 0)
(0.176072 0.00159316 0)
(0.175127 0.00154792 0)
(0.174182 0.00150391 0)
(0.173236 0.0014611 0)
(0.172292 0.00141942 0)
(0.17135 0.00137885 0)
(0.170409 0.00133933 0)
(0.169472 0.00130083 0)
(0.168539 0.00126333 0)
(0.16761 0.00122678 0)
(0.166685 0.00119117 0)
(0.165766 0.00115649 0)
(0.164853 0.00112272 0)
(0.163946 0.00108986 0)
(0.163047 0.00105793 0)
(0.162154 0.00102696 0)
(0.16127 0.000996998 0)
(0.160393 0.000968141 0)
(0.159524 0.000940578 0)
(0.158664 0.000914716 0)
(0.157811 0.000891581 0)
(0.156968 0.000873977 0)
(0.156156 0.000872138 0)
(0.155203 0.00086874 0)
(0.196352 0.00787673 0)
(0.197441 0.00862108 0)
(0.198615 0.00893746 0)
(0.199691 0.00891761 0)
(0.200595 0.00867048 0)
(0.201305 0.00828342 0)
(0.20183 0.00782921 0)
(0.20219 0.00736462 0)
(0.202418 0.00692509 0)
(0.202548 0.00652669 0)
(0.202608 0.00617281 0)
(0.202616 0.00586045 0)
(0.202585 0.00558419 0)
(0.202523 0.00533826 0)
(0.202434 0.0051175 0)
(0.202322 0.00491763 0)
(0.202188 0.0047352 0)
(0.202032 0.00456745 0)
(0.201856 0.00441217 0)
(0.201659 0.00426759 0)
(0.201441 0.00413223 0)
(0.201203 0.0040049 0)
(0.200943 0.0038846 0)
(0.200663 0.0037705 0)
(0.200362 0.00366191 0)
(0.200039 0.00355825 0)
(0.199696 0.00345902 0)
(0.199331 0.00336382 0)
(0.198946 0.00327228 0)
(0.19854 0.00318412 0)
(0.198113 0.00309907 0)
(0.197667 0.00301691 0)
(0.1972 0.00293745 0)
(0.196714 0.00286053 0)
(0.19621 0.00278599 0)
(0.195686 0.00271372 0)
(0.195145 0.00264358 0)
(0.194586 0.00257549 0)
(0.19401 0.00250934 0)
(0.193418 0.00244505 0)
(0.19281 0.00238254 0)
(0.192187 0.00232174 0)
(0.19155 0.00226257 0)
(0.190899 0.00220497 0)
(0.190235 0.00214888 0)
(0.189558 0.00209424 0)
(0.18887 0.00204099 0)
(0.188172 0.00198908 0)
(0.187462 0.00193845 0)
(0.186744 0.00188906 0)
(0.186016 0.00184085 0)
(0.18528 0.00179378 0)
(0.184537 0.0017478 0)
(0.183787 0.00170288 0)
(0.183031 0.00165897 0)
(0.182269 0.00161603 0)
(0.181503 0.00157402 0)
(0.180733 0.00153293 0)
(0.179959 0.00149271 0)
(0.179183 0.00145334 0)
(0.178405 0.00141481 0)
(0.177625 0.0013771 0)
(0.176845 0.0013402 0)
(0.176064 0.00130412 0)
(0.175283 0.00126886 0)
(0.174504 0.00123445 0)
(0.173725 0.00120092 0)
(0.172949 0.00116836 0)
(0.172175 0.00113686 0)
(0.171404 0.00110665 0)
(0.170635 0.00107812 0)
(0.16987 0.00105225 0)
(0.169111 0.00103126 0)
(0.168378 0.00102102 0)
(0.16752 0.000993409 0)
(0.196687 0.00753119 0)
(0.197634 0.00821092 0)
(0.19867 0.00853451 0)
(0.199645 0.00856036 0)
(0.200483 0.00837551 0)
(0.20116 0.00805544 0)
(0.201676 0.00766375 0)
(0.202048 0.00725128 0)
(0.202301 0.00685189 0)
(0.202464 0.00648297 0)
(0.202562 0.00615028 0)
(0.202613 0.00585322 0)
(0.202629 0.00558827 0)
(0.202619 0.0053511 0)
(0.202589 0.00513749 0)
(0.202541 0.00494376 0)
(0.202478 0.00476685 0)
(0.202401 0.00460424 0)
(0.202312 0.00445388 0)
(0.202209 0.00431407 0)
(0.202094 0.00418341 0)
(0.201967 0.00406075 0)
(0.201827 0.0039451 0)
(0.201675 0.00383564 0)
(0.201509 0.00373169 0)
(0.20133 0.00363264 0)
(0.201138 0.00353802 0)
(0.200932 0.00344738 0)
(0.200712 0.00336036 0)
(0.200478 0.00327665 0)
(0.200229 0.00319599 0)
(0.199966 0.00311813 0)
(0.199687 0.00304286 0)
(0.199395 0.00297002 0)
(0.199087 0.00289945 0)
(0.198764 0.00283099 0)
(0.198427 0.00276453 0)
(0.198075 0.00269996 0)
(0.197708 0.00263717 0)
(0.197327 0.00257607 0)
(0.196931 0.00251658 0)
(0.196521 0.00245862 0)
(0.196097 0.00240211 0)
(0.19566 0.00234699 0)
(0.195209 0.0022932 0)
(0.194745 0.00224066 0)
(0.194268 0.00218934 0)
(0.193779 0.00213916 0)
(0.193278 0.00209009 0)
(0.192765 0.00204207 0)
(0.192241 0.00199505 0)
(0.191706 0.00194899 0)
(0.191161 0.00190384 0)
(0.190606 0.00185958 0)
(0.190042 0.00181615 0)
(0.189469 0.00177353 0)
(0.188887 0.00173169 0)
(0.188298 0.00169059 0)
(0.187701 0.00165021 0)
(0.187097 0.00161054 0)
(0.186487 0.00157155 0)
(0.185872 0.00153325 0)
(0.18525 0.00149562 0)
(0.184625 0.00145869 0)
(0.183994 0.00142245 0)
(0.18336 0.00138696 0)
(0.182723 0.00135226 0)
(0.182083 0.00131842 0)
(0.181441 0.00128558 0)
(0.180796 0.00125394 0)
(0.18015 0.00122391 0)
(0.179503 0.00119629 0)
(0.178858 0.00117257 0)
(0.178234 0.0011547 0)
(0.177498 0.00110789 0)
(0.196992 0.00722111 0)
(0.197819 0.00783948 0)
(0.198734 0.00816227 0)
(0.199614 0.0082239 0)
(0.200388 0.00809195 0)
(0.201027 0.00783062 0)
(0.201527 0.00749521 0)
(0.201899 0.00713096 0)
(0.202164 0.00676963 0)
(0.202345 0.00642919 0)
(0.202464 0.00611723 0)
(0.202537 0.00583509 0)
(0.202577 0.00558098 0)
(0.202593 0.00535184 0)
(0.202589 0.0051444 0)
(0.202572 0.00495561 0)
(0.202542 0.00478281 0)
(0.202502 0.00462378 0)
(0.202453 0.00447663 0)
(0.202396 0.0043398 0)
(0.202331 0.00421199 0)
(0.202259 0.0040921 0)
(0.20218 0.00397919 0)
(0.202094 0.00387247 0)
(0.202 0.00377128 0)
(0.201899 0.00367503 0)
(0.20179 0.00358324 0)
(0.201674 0.00349548 0)
(0.201549 0.00341138 0)
(0.201416 0.00333063 0)
(0.201274 0.00325295 0)
(0.201124 0.00317811 0)
(0.200964 0.00310587 0)
(0.200794 0.00303607 0)
(0.200614 0.00296852 0)
(0.200425 0.00290309 0)
(0.200225 0.00283963 0)
(0.200015 0.00277803 0)
(0.199794 0.00271817 0)
(0.199562 0.00265995 0)
(0.19932 0.00260328 0)
(0.199066 0.00254808 0)
(0.198801 0.00249426 0)
(0.198525 0.00244174 0)
(0.198238 0.00239046 0)
(0.19794 0.00234035 0)
(0.197631 0.00229135 0)
(0.197311 0.00224339 0)
(0.196979 0.00219643 0)
(0.196637 0.00215041 0)
(0.196284 0.00210528 0)
(0.195921 0.00206098 0)
(0.195547 0.00201749 0)
(0.195163 0.00197474 0)
(0.194769 0.00193272 0)
(0.194366 0.00189137 0)
(0.193952 0.00185067 0)
(0.19353 0.00181058 0)
(0.193099 0.0017711 0)
(0.192659 0.00173218 0)
(0.192211 0.00169384 0)
(0.191755 0.00165605 0)
(0.191291 0.00161881 0)
(0.19082 0.00158215 0)
(0.190342 0.00154608 0)
(0.189858 0.00151064 0)
(0.189367 0.00147589 0)
(0.188871 0.00144191 0)
(0.188369 0.00140883 0)
(0.187861 0.00137686 0)
(0.187349 0.00134636 0)
(0.186833 0.00131794 0)
(0.186317 0.00129228 0)
(0.185815 0.00126827 0)
(0.185211 0.00120866 0)
(0.197269 0.00694111 0)
(0.197995 0.00750263 0)
(0.198804 0.0078189 0)
(0.199597 0.00790785 0)
(0.200309 0.00782054 0)
(0.200909 0.0076106 0)
(0.201389 0.00732585 0)
(0.201757 0.00700623 0)
(0.202027 0.00668111 0)
(0.202219 0.00636849 0)
(0.202351 0.0060772 0)
(0.202438 0.00581018 0)
(0.202492 0.00556708 0)
(0.202522 0.00534605 0)
(0.202534 0.00514466 0)
(0.202531 0.0049605 0)
(0.202517 0.00479133 0)
(0.202495 0.00463522 0)
(0.202465 0.0044905 0)
(0.202428 0.00435575 0)
(0.202387 0.00422978 0)
(0.202341 0.00411156 0)
(0.202291 0.00400022 0)
(0.202236 0.00389502 0)
(0.202178 0.00379532 0)
(0.202115 0.00370056 0)
(0.202049 0.00361028 0)
(0.201979 0.00352407 0)
(0.201904 0.00344157 0)
(0.201826 0.00336247 0)
(0.201742 0.00328649 0)
(0.201654 0.0032134 0)
(0.201561 0.00314298 0)
(0.201462 0.00307504 0)
(0.201358 0.00300941 0)
(0.201249 0.00294594 0)
(0.201133 0.00288449 0)
(0.201011 0.00282493 0)
(0.200882 0.00276714 0)
(0.200746 0.00271102 0)
(0.200603 0.00265646 0)
(0.200453 0.00260338 0)
(0.200296 0.00255168 0)
(0.200131 0.00250129 0)
(0.199957 0.00245212 0)
(0.199776 0.00240411 0)
(0.199587 0.00235719 0)
(0.199389 0.00231128 0)
(0.199183 0.00226633 0)
(0.198968 0.00222227 0)
(0.198745 0.00217906 0)
(0.198513 0.00213664 0)
(0.198272 0.00209496 0)
(0.198023 0.00205397 0)
(0.197764 0.00201362 0)
(0.197498 0.00197389 0)
(0.197222 0.00193473 0)
(0.196938 0.00189611 0)
(0.196646 0.00185801 0)
(0.196345 0.0018204 0)
(0.196036 0.00178327 0)
(0.195718 0.00174661 0)
(0.195393 0.00171043 0)
(0.19506 0.00167473 0)
(0.194719 0.00163954 0)
(0.194371 0.00160489 0)
(0.194015 0.00157085 0)
(0.193653 0.00153751 0)
(0.193283 0.00150499 0)
(0.192906 0.00147349 0)
(0.192523 0.0014433 0)
(0.192135 0.00141482 0)
(0.191744 0.00138801 0)
(0.191362 0.00135967 0)
(0.190889 0.00129385 0)
(0.197521 0.00668683 0)
(0.198162 0.00719655 0)
(0.198878 0.00750244 0)
(0.199591 0.00761161 0)
(0.200244 0.00756159 0)
(0.200805 0.00739643 0)
(0.201264 0.00715707 0)
(0.201624 0.0068786 0)
(0.201895 0.00658783 0)
(0.202094 0.00630231 0)
(0.202235 0.00603168 0)
(0.202333 0.00578008 0)
(0.202397 0.00554842 0)
(0.202437 0.00533587 0)
(0.202458 0.00514081 0)
(0.202465 0.00496143 0)
(0.20246 0.00479591 0)
(0.202447 0.00464262 0)
(0.202427 0.00450011 0)
(0.202401 0.00436713 0)
(0.20237 0.00424259 0)
(0.202336 0.00412555 0)
(0.202299 0.00401521 0)
(0.20226 0.00391089 0)
(0.202218 0.00381198 0)
(0.202173 0.00371797 0)
(0.202127 0.00362841 0)
(0.202079 0.0035429 0)
(0.202029 0.00346113 0)
(0.201977 0.00338277 0)
(0.201923 0.00330758 0)
(0.201867 0.00323531 0)
(0.201809 0.00316576 0)
(0.201748 0.00309875 0)
(0.201684 0.0030341 0)
(0.201618 0.00297167 0)
(0.201549 0.00291131 0)
(0.201477 0.00285289 0)
(0.201401 0.00279631 0)
(0.201322 0.00274144 0)
(0.201238 0.00268818 0)
(0.201151 0.00263645 0)
(0.201059 0.00258614 0)
(0.200963 0.00253718 0)
(0.200862 0.00248948 0)
(0.200755 0.00244296 0)
(0.200644 0.00239755 0)
(0.200527 0.00235317 0)
(0.200405 0.00230977 0)
(0.200276 0.00226728 0)
(0.200142 0.00222563 0)
(0.200002 0.00218477 0)
(0.199855 0.00214465 0)
(0.199702 0.0021052 0)
(0.199542 0.0020664 0)
(0.199376 0.00202818 0)
(0.199203 0.00199051 0)
(0.199023 0.00195335 0)
(0.198836 0.00191668 0)
(0.198643 0.00188047 0)
(0.198442 0.0018447 0)
(0.198234 0.00180937 0)
(0.198019 0.00177446 0)
(0.197797 0.00173999 0)
(0.197568 0.00170599 0)
(0.197332 0.00167249 0)
(0.197089 0.00163954 0)
(0.196839 0.00160725 0)
(0.196582 0.00157572 0)
(0.196318 0.00154514 0)
(0.196047 0.00151573 0)
(0.195771 0.00148767 0)
(0.19549 0.00146039 0)
(0.195214 0.00142953 0)
(0.194859 0.00136326 0)
(0.197752 0.00645476 0)
(0.198319 0.00691778 0)
(0.198954 0.0072109 0)
(0.199595 0.00733444 0)
(0.200192 0.00731526 0)
(0.200715 0.00718886 0)
(0.201151 0.00699 0)
(0.2015 0.00674926 0)
(0.20177 0.00649086 0)
(0.201972 0.00623158 0)
(0.202121 0.00598145 0)
(0.202227 0.00574554 0)
(0.2023 0.00552574 0)
(0.202347 0.00532211 0)
(0.202376 0.0051338 0)
(0.202389 0.00495952 0)
(0.202391 0.00479789 0)
(0.202384 0.00464758 0)
(0.20237 0.00450736 0)
(0.20235 0.00437614 0)
(0.202326 0.00425295 0)
(0.202298 0.00413695 0)
(0.202268 0.00402742 0)
(0.202235 0.00392372 0)
(0.202201 0.0038253 0)
(0.202165 0.00373168 0)
(0.202128 0.00364244 0)
(0.20209 0.00355722 0)
(0.202052 0.00347568 0)
(0.202012 0.00339757 0)
(0.201972 0.00332261 0)
(0.201932 0.0032506 0)
(0.20189 0.00318133 0)
(0.201848 0.00311463 0)
(0.201805 0.00305033 0)
(0.201761 0.00298828 0)
(0.201716 0.00292835 0)
(0.201669 0.00287042 0)
(0.201621 0.00281436 0)
(0.201572 0.00276007 0)
(0.201521 0.00270744 0)
(0.201468 0.00265639 0)
(0.201414 0.00260681 0)
(0.201357 0.00255862 0)
(0.201297 0.00251175 0)
(0.201235 0.0024661 0)
(0.20117 0.0024216 0)
(0.201102 0.00237818 0)
(0.201031 0.00233578 0)
(0.200957 0.00229432 0)
(0.200878 0.00225373 0)
(0.200797 0.00221396 0)
(0.200711 0.00217496 0)
(0.200621 0.00213666 0)
(0.200527 0.00209901 0)
(0.200428 0.00206196 0)
(0.200324 0.00202548 0)
(0.200216 0.00198953 0)
(0.200103 0.00195406 0)
(0.199985 0.00191906 0)
(0.199862 0.00188449 0)
(0.199733 0.00185036 0)
(0.199598 0.00181665 0)
(0.199459 0.00178338 0)
(0.199313 0.00175056 0)
(0.199162 0.00171823 0)
(0.199004 0.00168645 0)
(0.198841 0.0016553 0)
(0.198671 0.0016249 0)
(0.198496 0.00159539 0)
(0.198314 0.00156693 0)
(0.198127 0.00153955 0)
(0.197937 0.00151228 0)
(0.197747 0.00148045 0)
(0.197488 0.00141803 0)
(0.197962 0.00624204 0)
(0.198466 0.00666326 0)
(0.199031 0.00694231 0)
(0.199607 0.00707552 0)
(0.200151 0.00708153 0)
(0.200637 0.00698849 0)
(0.201049 0.00682556 0)
(0.201385 0.00661921 0)
(0.201651 0.00639113 0)
(0.201856 0.00615707 0)
(0.202009 0.00592713 0)
(0.202121 0.00570701 0)
(0.202201 0.0054994 0)
(0.202256 0.00530512 0)
(0.202291 0.00512396 0)
(0.20231 0.00495516 0)
(0.202318 0.00479774 0)
(0.202315 0.00465066 0)
(0.202306 0.00451292 0)
(0.20229 0.00438359 0)
(0.20227 0.00426184 0)
(0.202247 0.00414693 0)
(0.20222 0.0040382 0)
(0.202192 0.00393508 0)
(0.202162 0.00383707 0)
(0.20213 0.00374372 0)
(0.202098 0.00365465 0)
(0.202065 0.00356951 0)
(0.202032 0.00348802 0)
(0.201999 0.0034099 0)
(0.201965 0.00333492 0)
(0.201932 0.00326287 0)
(0.201898 0.00319356 0)
(0.201865 0.00312682 0)
(0.201831 0.0030625 0)
(0.201797 0.00300045 0)
(0.201764 0.00294055 0)
(0.20173 0.00288267 0)
(0.201696 0.0028267 0)
(0.201662 0.00277254 0)
(0.201628 0.00272008 0)
(0.201592 0.00266923 0)
(0.201557 0.0026199 0)
(0.201521 0.00257201 0)
(0.201483 0.00252547 0)
(0.201445 0.0024802 0)
(0.201406 0.00243613 0)
(0.201365 0.00239318 0)
(0.201323 0.00235129 0)
(0.201279 0.00231038 0)
(0.201234 0.00227039 0)
(0.201186 0.00223125 0)
(0.201136 0.00219292 0)
(0.201084 0.00215532 0)
(0.20103 0.00211842 0)
(0.200973 0.00208215 0)
(0.200913 0.00204648 0)
(0.200851 0.00201136 0)
(0.200785 0.00197675 0)
(0.200715 0.00194264 0)
(0.200643 0.00190899 0)
(0.200566 0.0018758 0)
(0.200486 0.00184305 0)
(0.200402 0.00181075 0)
(0.200314 0.00177893 0)
(0.200221 0.00174761 0)
(0.200124 0.00171686 0)
(0.200022 0.00168675 0)
(0.199916 0.00165739 0)
(0.199804 0.00162889 0)
(0.199688 0.00160138 0)
(0.199567 0.00157471 0)
(0.199443 0.00154778 0)
(0.199317 0.00151617 0)
(0.199134 0.00146023 0)