/*--------------------------------*- C++ -*----------------------------------*\
| =========                 |                                                 |
| \\      /  F ield         | OpenFOAM: The Open Source CFD Toolbox           |
|  \\    /   O peration     | Version:  2.3.0                                 |
|   \\  /    A nd           | Web:      www.OpenFOAM.org                      |
|    \\/     M anipulation  |                                                 |
\*---------------------------------------------------------------------------*/
FoamFile
{
    version     2.0;
    format      ascii;
    class       volVectorField;
    location    "0.75";
    object      U;
}
// * * * * * * * * * * * * * * * * * * * * * * * * * * * * * * * * * * * * * //

dimensions      [0 1 -1 0 0 0 0];

internalField   nonuniform List<vector> 
3375
(
(0.176303 0.00548727 0)
(0.154866 0.00611809 0)
(0.13432 0.00609001 0)
(0.115466 0.00542236 0)
(0.0982172 0.00447031 0)
(0.0833807 0.00340763 0)
(0.070773 0.00252056 0)
(0.0605537 0.00146051 0)
(0.0530445 0.00073395 0)
(0.0476867 0.000370581 0)
(0.0436062 0.0001632 0)
(0.0405194 3.08585e-05 0)
(0.0382575 -1.513e-05 0)
(0.0365211 -7.46051e-06 0)
(0.0350832 6.92582e-06 0)
(0.0338506 3.12616e-05 0)
(0.0327457 5.08837e-05 0)
(0.0317274 5.65943e-05 0)
(0.0308044 6.01272e-05 0)
(0.0299474 6.68615e-05 0)
(0.0291249 6.77565e-05 0)
(0.0283504 6.16531e-05 0)
(0.0276368 5.81424e-05 0)
(0.0269667 5.77723e-05 0)
(0.0263285 5.52241e-05 0)
(0.025728 5.04252e-05 0)
(0.025166 4.689e-05 0)
(0.0246351 4.43092e-05 0)
(0.0241361 4.0151e-05 0)
(0.0236725 3.59488e-05 0)
(0.0232366 3.43361e-05 0)
(0.022819 3.33116e-05 0)
(0.0224143 3.27385e-05 0)
(0.022022 3.20934e-05 0)
(0.0216473 2.95027e-05 0)
(0.0212919 2.78609e-05 0)
(0.0209515 2.71025e-05 0)
(0.0206241 2.55673e-05 0)
(0.020309 2.49372e-05 0)
(0.0200053 2.38528e-05 0)
(0.0197146 2.22541e-05 0)
(0.0194351 2.17639e-05 0)
(0.0191658 2.04695e-05 0)
(0.0189097 1.8583e-05 0)
(0.0186643 1.83451e-05 0)
(0.0184241 1.82285e-05 0)
(0.0181911 1.70844e-05 0)
(0.0179676 1.6273e-05 0)
(0.0177517 1.58146e-05 0)
(0.0175411 1.55014e-05 0)
(0.0173367 1.4856e-05 0)
(0.0171388 1.41646e-05 0)
(0.0169477 1.36e-05 0)
(0.0167625 1.30482e-05 0)
(0.0165833 1.24903e-05 0)
(0.0164099 1.1964e-05 0)
(0.0162402 1.19801e-05 0)
(0.0160737 1.16597e-05 0)
(0.0159134 1.06344e-05 0)
(0.0157586 1.04615e-05 0)
(0.0156063 1.05575e-05 0)
(0.0154571 1.00051e-05 0)
(0.0153126 9.65932e-06 0)
(0.0151713 9.55141e-06 0)
(0.015033 9.19697e-06 0)
(0.0148986 8.85101e-06 0)
(0.014769 8.21864e-06 0)
(0.0146423 8.26995e-06 0)
(0.0145174 8.22505e-06 0)
(0.0143962 7.53703e-06 0)
(0.0142781 7.61628e-06 0)
(0.0141617 7.47882e-06 0)
(0.0140484 7.04465e-06 0)
(0.0139367 7.33517e-06 0)
(0.0138268 6.93058e-06 0)
(0.0137214 6.26122e-06 0)
(0.0136187 6.48054e-06 0)
(0.0135164 6.46424e-06 0)
(0.0134169 5.99078e-06 0)
(0.0133199 5.98824e-06 0)
(0.0132243 5.907e-06 0)
(0.0131309 5.56153e-06 0)
(0.0130402 5.4574e-06 0)
(0.0129504 5.46793e-06 0)
(0.0128629 5.17281e-06 0)
(0.0127764 5.2476e-06 0)
(0.0126915 5.14297e-06 0)
(0.0126074 5.01489e-06 0)
(0.0125264 4.80687e-06 0)
(0.0124446 5.0126e-06 0)
(0.0123668 4.47088e-06 0)
(0.012287 4.90053e-06 0)
(0.0122126 4.31872e-06 0)
(0.0121323 5.01473e-06 0)
(0.0120631 3.83989e-06 0)
(0.0119796 5.35498e-06 0)
(0.0119208 2.86181e-06 0)
(0.011827 5.89258e-06 0)
(0.0117977 3.41558e-07 0)
(0.0116719 9.87296e-06 0)
(0.191263 0.00902067 0)
(0.190733 0.0123097 0)
(0.188234 0.0133498 0)
(0.183644 0.0126458 0)
(0.177318 0.0114254 0)
(0.169992 0.00979516 0)
(0.161452 0.00935238 0)
(0.152761 0.0076087 0)
(0.144608 0.00569022 0)
(0.137164 0.00443878 0)
(0.130231 0.00346908 0)
(0.123785 0.00259349 0)
(0.117993 0.0019732 0)
(0.112953 0.00159191 0)
(0.108462 0.00130219 0)
(0.104365 0.00111721 0)
(0.100682 0.00099383 0)
(0.0973587 0.000878625 0)
(0.0943416 0.000783552 0)
(0.0915928 0.000733545 0)
(0.0890461 0.000693552 0)
(0.0866683 0.000634009 0)
(0.0844629 0.000581619 0)
(0.0824088 0.00054762 0)
(0.0804762 0.000514442 0)
(0.0786602 0.000477877 0)
(0.0769577 0.000447667 0)
(0.0753519 0.000421061 0)
(0.0738354 0.000390178 0)
(0.0724057 0.000361085 0)
(0.0710489 0.0003425 0)
(0.0697535 0.000327649 0)
(0.068508 0.000315166 0)
(0.0673109 0.000302127 0)
(0.0661686 0.000283042 0)
(0.0650768 0.000268236 0)
(0.0640304 0.000257065 0)
(0.0630253 0.000243953 0)
(0.0620583 0.000234371 0)
(0.0611302 0.000223585 0)
(0.0602394 0.000211495 0)
(0.0593822 0.000203747 0)
(0.0585575 0.00019393 0)
(0.0577662 0.000182363 0)
(0.0570035 0.000176509 0)
(0.0562639 0.000171507 0)
(0.0555477 0.000163229 0)
(0.0548565 0.000156074 0)
(0.0541885 0.000150471 0)
(0.0535394 0.000145733 0)
(0.0529107 0.000140041 0)
(0.0523014 0.000134369 0)
(0.0517114 0.000129194 0)
(0.0511393 0.000124312 0)
(0.0505844 0.000119597 0)
(0.050046 0.000115098 0)
(0.0495209 0.000112448 0)
(0.0490091 0.000108867 0)
(0.0485134 0.000103225 0)
(0.0480314 0.000100386 0)
(0.0475605 9.84131e-05 0)
(0.0471011 9.44821e-05 0)
(0.0466544 9.13011e-05 0)
(0.0462185 8.89916e-05 0)
(0.0457932 8.5946e-05 0)
(0.045379 8.3035e-05 0)
(0.0449775 7.93114e-05 0)
(0.0445842 7.78668e-05 0)
(0.0441995 7.60601e-05 0)
(0.0438249 7.23651e-05 0)
(0.0434588 7.11574e-05 0)
(0.0431009 6.92516e-05 0)
(0.0427514 6.64784e-05 0)
(0.0424086 6.60301e-05 0)
(0.0420739 6.34398e-05 0)
(0.0417485 6.01405e-05 0)
(0.0414308 5.95918e-05 0)
(0.0411185 5.83558e-05 0)
(0.0408138 5.57411e-05 0)
(0.040516 5.46626e-05 0)
(0.0402245 5.33604e-05 0)
(0.039939 5.12976e-05 0)
(0.0396608 4.99886e-05 0)
(0.0393872 4.91116e-05 0)
(0.0391203 4.72584e-05 0)
(0.0388573 4.66586e-05 0)
(0.0386009 4.54158e-05 0)
(0.0383476 4.42376e-05 0)
(0.0381027 4.27235e-05 0)
(0.0378582 4.27262e-05 0)
(0.0376241 4.02018e-05 0)
(0.0373866 4.10344e-05 0)
(0.037164 3.83431e-05 0)
(0.0369289 4.02103e-05 0)
(0.0367211 3.56263e-05 0)
(0.0364811 4.02899e-05 0)
(0.0363005 3.12295e-05 0)
(0.0360356 4.17662e-05 0)
(0.0359272 2.25188e-05 0)
(0.0355708 4.90802e-05 0)
(0.191908 0.00813892 0)
(0.192869 0.0103439 0)
(0.194492 0.0110367 0)
(0.19612 0.012133 0)
(0.196588 0.0118169 0)
(0.196218 0.0115029 0)
(0.194601 0.0107661 0)
(0.191617 0.00993983 0)
(0.188082 0.00856665 0)
(0.184461 0.00753517 0)
(0.180608 0.00664128 0)
(0.17641 0.00572572 0)
(0.171995 0.00491534 0)
(0.16772 0.00429762 0)
(0.163713 0.00380689 0)
(0.159882 0.00346567 0)
(0.156188 0.00316096 0)
(0.152587 0.00285553 0)
(0.149096 0.00257888 0)
(0.145791 0.00236941 0)
(0.142664 0.00220139 0)
(0.139655 0.00203092 0)
(0.136753 0.0018774 0)
(0.133973 0.00175384 0)
(0.131305 0.00163764 0)
(0.128743 0.00151822 0)
(0.126302 0.00141726 0)
(0.123986 0.00133442 0)
(0.121782 0.00124913 0)
(0.119674 0.0011682 0)
(0.117642 0.00110601 0)
(0.115679 0.0010504 0)
(0.113777 0.00100373 0)
(0.111939 0.000960111 0)
(0.110179 0.000906275 0)
(0.10849 0.00086097 0)
(0.106864 0.000822829 0)
(0.105294 0.000781938 0)
(0.103772 0.0007488 0)
(0.102303 0.000714485 0)
(0.100888 0.000678939 0)
(0.0995214 0.000651764 0)
(0.0982015 0.000621727 0)
(0.0969286 0.000589759 0)
(0.0956975 0.000568466 0)
(0.0945022 0.000549386 0)
(0.0933417 0.000525695 0)
(0.0922184 0.000504173 0)
(0.0911309 0.000485054 0)
(0.0900723 0.000468094 0)
(0.0890442 0.000450144 0)
(0.0880457 0.000432896 0)
(0.0870765 0.000416628 0)
(0.0861353 0.000401238 0)
(0.08522 0.000386564 0)
(0.0843302 0.000372502 0)
(0.0834619 0.000362202 0)
(0.0826152 0.000350264 0)
(0.0817929 0.000334829 0)
(0.0809918 0.000324937 0)
(0.0802096 0.000316692 0)
(0.0794457 0.000305045 0)
(0.0787013 0.000295013 0)
(0.0779749 0.000286657 0)
(0.0772653 0.000277003 0)
(0.0765731 0.000267833 0)
(0.0759009 0.000257516 0)
(0.0752419 0.000251639 0)
(0.0745974 0.000244765 0)
(0.0739695 0.000234711 0)
(0.0733549 0.000229501 0)
(0.0727545 0.000222923 0)
(0.0721677 0.000215004 0)
(0.0715923 0.000211273 0)
(0.0710309 0.000203706 0)
(0.0704831 0.000195257 0)
(0.0699477 0.000191661 0)
(0.0694233 0.000186822 0)
(0.0689104 0.000179763 0)
(0.0684087 0.000175515 0)
(0.0679182 0.000170875 0)
(0.0674378 0.000164995 0)
(0.0669687 0.000160543 0)
(0.0665085 0.000156966 0)
(0.0660591 0.00015165 0)
(0.065617 0.000148652 0)
(0.0651861 0.000144484 0)
(0.0647614 0.000140581 0)
(0.0643497 0.000136046 0)
(0.063941 0.000134441 0)
(0.0635478 0.000128253 0)
(0.0631523 0.000128304 0)
(0.0627785 0.000121827 0)
(0.0623909 0.000123953 0)
(0.06204 0.000114277 0)
(0.06165 0.000121493 0)
(0.0613393 0.000104147 0)
(0.0609159 0.000121576 0)
(0.0607131 9.01861e-05 0)
(0.0601341 0.000125817 0)
(0.192988 0.00739664 0)
(0.193887 0.00932406 0)
(0.195304 0.0102468 0)
(0.196995 0.0113339 0)
(0.198273 0.0117 0)
(0.199406 0.00913743 0)
(0.200374 0.0135084 0)
(0.201147 0.00937674 0)
(0.200847 0.00860881 0)
(0.200201 0.00812355 0)
(0.199265 0.00762688 0)
(0.197836 0.00692115 0)
(0.195874 0.00640845 0)
(0.193725 0.00593388 0)
(0.191612 0.00534795 0)
(0.189582 0.00495191 0)
(0.187565 0.0046628 0)
(0.185392 0.00437804 0)
(0.183042 0.00409959 0)
(0.18067 0.00387054 0)
(0.178371 0.00365215 0)
(0.176113 0.00342372 0)
(0.173856 0.00323794 0)
(0.171603 0.00308478 0)
(0.169348 0.00293224 0)
(0.167074 0.00276719 0)
(0.164797 0.00260331 0)
(0.162569 0.00245458 0)
(0.160431 0.00231167 0)
(0.158389 0.00218691 0)
(0.156403 0.00209852 0)
(0.154435 0.00201566 0)
(0.152459 0.0019357 0)
(0.15048 0.00185226 0)
(0.14854 0.00175294 0)
(0.146668 0.00167242 0)
(0.144866 0.00160548 0)
(0.143113 0.00153541 0)
(0.141386 0.00147733 0)
(0.139688 0.00141309 0)
(0.138028 0.0013479 0)
(0.136411 0.00129793 0)
(0.134837 0.00124131 0)
(0.133306 0.00118206 0)
(0.131814 0.00114183 0)
(0.130353 0.00110331 0)
(0.128923 0.00105676 0)
(0.12753 0.0010163 0)
(0.126176 0.000980676 0)
(0.124851 0.000947739 0)
(0.123556 0.000912568 0)
(0.12229 0.000878917 0)
(0.121055 0.000847136 0)
(0.119852 0.000817118 0)
(0.118676 0.000788811 0)
(0.117527 0.000761105 0)
(0.116401 0.000739556 0)
(0.115299 0.000715899 0)
(0.114225 0.000686833 0)
(0.113176 0.000666504 0)
(0.11215 0.000648879 0)
(0.111143 0.000626097 0)
(0.110159 0.00060626 0)
(0.109196 0.000589242 0)
(0.108253 0.00057018 0)
(0.107329 0.000551768 0)
(0.106431 0.000531535 0)
(0.105548 0.000519012 0)
(0.104682 0.000504874 0)
(0.103837 0.000485512 0)
(0.103008 0.000474102 0)
(0.102196 0.000460237 0)
(0.101402 0.000444715 0)
(0.100622 0.00043608 0)
(0.099859 0.000421238 0)
(0.0991132 0.000405091 0)
(0.0983827 0.000396666 0)
(0.0976669 0.000386294 0)
(0.0969653 0.000372701 0)
(0.0962776 0.000363447 0)
(0.095605 0.000353732 0)
(0.0949457 0.000342124 0)
(0.0943005 0.000332797 0)
(0.0936673 0.000324778 0)
(0.0930481 0.000314333 0)
(0.0924393 0.000307372 0)
(0.0918446 0.000298751 0)
(0.0912591 0.00029044 0)
(0.0906893 0.000281457 0)
(0.0901259 0.000276763 0)
(0.0895808 0.000265392 0)
(0.089036 0.000263273 0)
(0.0885163 0.000251733 0)
(0.0879854 0.000252716 0)
(0.0874942 0.000236998 0)
(0.0869653 0.000244627 0)
(0.0865238 0.000220204 0)
(0.0859556 0.000239024 0)
(0.085655 0.000203263 0)
(0.0848641 0.000236536 0)
(0.194106 0.00747052 0)
(0.194594 0.00876267 0)
(0.195597 0.00889281 0)
(0.196964 0.0105895 0)
(0.198358 0.0105158 0)
(0.199474 0.00981112 0)
(0.200699 0.0106042 0)
(0.201837 0.0101508 0)
(0.202202 0.00874397 0)
(0.202571 0.00808675 0)
(0.202929 0.00764289 0)
(0.202696 0.00727044 0)
(0.202114 0.00680375 0)
(0.201471 0.00635805 0)
(0.200825 0.0057902 0)
(0.200231 0.00544561 0)
(0.19965 0.00527931 0)
(0.198873 0.00510864 0)
(0.19783 0.00486773 0)
(0.196673 0.00465177 0)
(0.195514 0.00445348 0)
(0.194366 0.00422103 0)
(0.193212 0.00404541 0)
(0.192024 0.0039239 0)
(0.190777 0.00379876 0)
(0.189427 0.00367242 0)
(0.187961 0.00354514 0)
(0.186425 0.00338545 0)
(0.184895 0.00319594 0)
(0.183436 0.0030227 0)
(0.182049 0.00291341 0)
(0.180691 0.00283776 0)
(0.179297 0.00278485 0)
(0.17781 0.00271504 0)
(0.176242 0.00259083 0)
(0.174656 0.00247523 0)
(0.173121 0.00237841 0)
(0.17165 0.00228605 0)
(0.1702 0.00222435 0)
(0.16874 0.00215021 0)
(0.167264 0.00206361 0)
(0.165786 0.00199775 0)
(0.164323 0.00192295 0)
(0.16289 0.00183901 0)
(0.161485 0.0017838 0)
(0.160089 0.00173592 0)
(0.158693 0.00167116 0)
(0.157313 0.0016086 0)
(0.155963 0.00155519 0)
(0.154635 0.00151022 0)
(0.153321 0.00146145 0)
(0.15202 0.00141232 0)
(0.150738 0.00136466 0)
(0.149481 0.00132005 0)
(0.148246 0.00127836 0)
(0.147029 0.00123699 0)
(0.145825 0.00120496 0)
(0.144636 0.00116875 0)
(0.143468 0.00112387 0)
(0.142322 0.00109247 0)
(0.141195 0.00106551 0)
(0.140085 0.00103077 0)
(0.138991 0.000999814 0)
(0.137916 0.000972667 0)
(0.136857 0.000943438 0)
(0.135814 0.000915387 0)
(0.134794 0.000883633 0)
(0.133789 0.000863145 0)
(0.132797 0.000840328 0)
(0.131825 0.000810186 0)
(0.130868 0.00079245 0)
(0.129926 0.000769824 0)
(0.129 0.000744529 0)
(0.128088 0.000729932 0)
(0.127194 0.000706742 0)
(0.126317 0.000681385 0)
(0.125455 0.000666962 0)
(0.124608 0.000649812 0)
(0.123774 0.000628492 0)
(0.122953 0.000612864 0)
(0.122149 0.00059655 0)
(0.12136 0.000577786 0)
(0.120585 0.000562843 0)
(0.119822 0.000549025 0)
(0.119074 0.000531917 0)
(0.118338 0.000519844 0)
(0.117616 0.000505841 0)
(0.116905 0.000491569 0)
(0.11621 0.000477203 0)
(0.115524 0.000468154 0)
(0.114856 0.00045055 0)
(0.114191 0.000444738 0)
(0.11355 0.000427504 0)
(0.112902 0.000425398 0)
(0.112292 0.000404234 0)
(0.111649 0.000408295 0)
(0.111094 0.000380502 0)
(0.110405 0.000393098 0)
(0.110019 0.000360569 0)
(0.109045 0.000383335 0)
(0.194854 0.00694273 0)
(0.195205 0.00819648 0)
(0.19604 0.00820059 0)
(0.197202 0.0103704 0)
(0.198389 0.00997866 0)
(0.1994 0.00924339 0)
(0.200645 0.0100603 0)
(0.201688 0.00984635 0)
(0.201978 0.00852166 0)
(0.202508 0.00795964 0)
(0.203009 0.00754978 0)
(0.202914 0.00725131 0)
(0.202749 0.00690086 0)
(0.202622 0.00652087 0)
(0.202512 0.00585209 0)
(0.202529 0.00546665 0)
(0.202558 0.00530184 0)
(0.20241 0.00526591 0)
(0.202049 0.00514912 0)
(0.201627 0.0050047 0)
(0.201215 0.00480278 0)
(0.20082 0.00454334 0)
(0.200445 0.00436531 0)
(0.20005 0.00427189 0)
(0.199612 0.00419661 0)
(0.199085 0.00409763 0)
(0.198411 0.00402807 0)
(0.1976 0.00392554 0)
(0.19674 0.00373204 0)
(0.19593 0.00352129 0)
(0.195202 0.00337716 0)
(0.194533 0.00329019 0)
(0.193867 0.00327451 0)
(0.193114 0.00327107 0)
(0.192206 0.00319364 0)
(0.191174 0.00308458 0)
(0.190125 0.00296327 0)
(0.189137 0.00283977 0)
(0.188203 0.00277546 0)
(0.187266 0.00271367 0)
(0.186288 0.00263968 0)
(0.185262 0.00257818 0)
(0.184197 0.0024958 0)
(0.183126 0.00239933 0)
(0.182078 0.00233597 0)
(0.181036 0.00228761 0)
(0.179965 0.00222586 0)
(0.178874 0.00215782 0)
(0.177789 0.00208888 0)
(0.176713 0.00203448 0)
(0.175639 0.00198157 0)
(0.174557 0.00192738 0)
(0.173471 0.00186934 0)
(0.172393 0.00181339 0)
(0.171326 0.00176405 0)
(0.170268 0.00171436 0)
(0.16921 0.00167756 0)
(0.168147 0.00163522 0)
(0.167087 0.00157806 0)
(0.166038 0.0015371 0)
(0.164999 0.0015025 0)
(0.163966 0.00145864 0)
(0.162939 0.00142053 0)
(0.161922 0.0013854 0)
(0.160915 0.00134688 0)
(0.159915 0.00131062 0)
(0.158928 0.00126916 0)
(0.157948 0.00124385 0)
(0.156972 0.00121333 0)
(0.156011 0.0011715 0)
(0.155059 0.00114905 0)
(0.154115 0.00111944 0)
(0.153179 0.00108552 0)
(0.15225 0.00106518 0)
(0.151334 0.00103289 0)
(0.150433 0.000998485 0)
(0.149546 0.000979047 0)
(0.148669 0.000955061 0)
(0.147799 0.000926324 0)
(0.146936 0.000904873 0)
(0.146086 0.000881705 0)
(0.145252 0.000854564 0)
(0.144429 0.000834189 0)
(0.143616 0.000814832 0)
(0.142812 0.000790786 0)
(0.14202 0.000772787 0)
(0.14124 0.000753593 0)
(0.140469 0.000732495 0)
(0.139712 0.000712822 0)
(0.138964 0.000698421 0)
(0.13823 0.000674951 0)
(0.137501 0.000664027 0)
(0.136791 0.000642022 0)
(0.136078 0.000634083 0)
(0.135395 0.000610121 0)
(0.134684 0.000605928 0)
(0.134056 0.000579571 0)
(0.133293 0.000579755 0)
(0.132852 0.000555559 0)
(0.131755 0.000562952 0)
(0.195627 0.00683258 0)
(0.195962 0.0078568 0)
(0.196574 0.007737 0)
(0.197466 0.00976443 0)
(0.198422 0.00912713 0)
(0.19927 0.00871645 0)
(0.200486 0.00930933 0)
(0.201407 0.00996435 0)
(0.201665 0.00803938 0)
(0.202258 0.00733183 0)
(0.202733 0.0074542 0)
(0.202657 0.00747224 0)
(0.202653 0.00706482 0)
(0.202622 0.00648091 0)
(0.202642 0.00582705 0)
(0.202797 0.00533506 0)
(0.202862 0.005302 0)
(0.202775 0.00541888 0)
(0.202628 0.00523727 0)
(0.202526 0.00502414 0)
(0.202428 0.00483905 0)
(0.20233 0.00458537 0)
(0.20228 0.00441125 0)
(0.20222 0.00430841 0)
(0.202134 0.00427966 0)
(0.202007 0.00428177 0)
(0.20178 0.00423703 0)
(0.201412 0.00416467 0)
(0.200981 0.00399657 0)
(0.200608 0.00377235 0)
(0.200334 0.00359087 0)
(0.200125 0.00345095 0)
(0.199945 0.00343527 0)
(0.199717 0.00349678 0)
(0.199344 0.00350934 0)
(0.198809 0.00345487 0)
(0.198206 0.0033225 0)
(0.197647 0.00316135 0)
(0.197167 0.00308243 0)
(0.196718 0.00301919 0)
(0.196244 0.00296849 0)
(0.195718 0.00294243 0)
(0.195125 0.00287193 0)
(0.194487 0.0027688 0)
(0.193855 0.00270784 0)
(0.193236 0.00266175 0)
(0.192587 0.0026047 0)
(0.191899 0.0025508 0)
(0.191197 0.00248517 0)
(0.190493 0.00242589 0)
(0.189784 0.00237261 0)
(0.189056 0.0023233 0)
(0.188306 0.00226711 0)
(0.187548 0.00220742 0)
(0.18679 0.00215252 0)
(0.186035 0.00209945 0)
(0.185274 0.00206627 0)
(0.184496 0.00202613 0)
(0.183702 0.00196494 0)
(0.182904 0.00192171 0)
(0.182104 0.00188548 0)
(0.181298 0.0018365 0)
(0.180486 0.00179505 0)
(0.179672 0.00175609 0)
(0.17886 0.0017137 0)
(0.178049 0.001674 0)
(0.177246 0.0016246 0)
(0.176438 0.00159885 0)
(0.17562 0.00156636 0)
(0.174805 0.00151596 0)
(0.173995 0.00149123 0)
(0.173186 0.00145698 0)
(0.172374 0.00141877 0)
(0.171556 0.0013973 0)
(0.170739 0.00135729 0)
(0.16993 0.0013136 0)
(0.169134 0.00129133 0)
(0.168346 0.00126327 0)
(0.167558 0.00122959 0)
(0.166766 0.00120434 0)
(0.165975 0.00117593 0)
(0.165195 0.00114091 0)
(0.164427 0.00111663 0)
(0.163664 0.00109281 0)
(0.162903 0.00106368 0)
(0.162147 0.00104032 0)
(0.161397 0.00101718 0)
(0.160653 0.000989232 0)
(0.159918 0.000966205 0)
(0.159189 0.000945764 0)
(0.158469 0.000918174 0)
(0.157754 0.000901197 0)
(0.157051 0.000877404 0)
(0.156344 0.000861703 0)
(0.155657 0.000838299 0)
(0.154947 0.000822634 0)
(0.154309 0.000801724 0)
(0.15354 0.000786587 0)
(0.15309 0.000773474 0)
(0.151965 0.000764237 0)
(0.196208 0.00675028 0)
(0.196587 0.00762601 0)
(0.196953 0.00741827 0)
(0.197672 0.00917825 0)
(0.198604 0.00854891 0)
(0.199118 0.00807967 0)
(0.200114 0.00961536 0)
(0.201299 0.00849139 0)
(0.201291 0.00793734 0)
(0.201886 0.00751391 0)
(0.202662 0.00699489 0)
(0.20259 0.00702954 0)
(0.20236 0.00707181 0)
(0.202392 0.00667102 0)
(0.202646 0.00571934 0)
(0.202737 0.00531517 0)
(0.20266 0.00534656 0)
(0.202601 0.00537638 0)
(0.202629 0.0052368 0)
(0.20267 0.00512106 0)
(0.202619 0.00495081 0)
(0.202535 0.0045787 0)
(0.202527 0.00445283 0)
(0.202536 0.00434851 0)
(0.202535 0.00426295 0)
(0.202496 0.00430817 0)
(0.202397 0.00437343 0)
(0.202226 0.00432759 0)
(0.202029 0.00412551 0)
(0.201896 0.00383402 0)
(0.201825 0.00358857 0)
(0.201809 0.00348081 0)
(0.201843 0.00347797 0)
(0.201851 0.00353212 0)
(0.201738 0.00361249 0)
(0.201473 0.00364569 0)
(0.201142 0.00352462 0)
(0.20085 0.00332302 0)
(0.20064 0.0032196 0)
(0.200485 0.00313901 0)
(0.200333 0.00309459 0)
(0.200151 0.00309785 0)
(0.199908 0.00306607 0)
(0.199609 0.0029648 0)
(0.199302 0.00289881 0)
(0.199002 0.0028679 0)
(0.198681 0.00281795 0)
(0.198327 0.00276713 0)
(0.197957 0.00271114 0)
(0.197584 0.00265821 0)
(0.197208 0.00260905 0)
(0.196811 0.00256805 0)
(0.196384 0.00251728 0)
(0.195941 0.00246364 0)
(0.195496 0.00240873 0)
(0.195056 0.00235058 0)
(0.194613 0.00232307 0)
(0.194149 0.00229145 0)
(0.193659 0.00223364 0)
(0.193157 0.00219253 0)
(0.192648 0.00215882 0)
(0.192126 0.00211259 0)
(0.191587 0.00207616 0)
(0.191037 0.00203579 0)
(0.19048 0.00198886 0)
(0.189921 0.00194968 0)
(0.189372 0.00189844 0)
(0.188819 0.00187649 0)
(0.188245 0.00184581 0)
(0.18766 0.00179228 0)
(0.187073 0.00176957 0)
(0.186483 0.00173275 0)
(0.185885 0.00169456 0)
(0.185274 0.00167832 0)
(0.184647 0.00163667 0)
(0.184015 0.00158502 0)
(0.183391 0.00155914 0)
(0.182778 0.00152883 0)
(0.182165 0.00149546 0)
(0.181539 0.00147186 0)
(0.180899 0.00144127 0)
(0.18026 0.00139833 0)
(0.179631 0.00137237 0)
(0.179005 0.00134626 0)
(0.178375 0.00131525 0)
(0.177744 0.00128927 0)
(0.17711 0.00126513 0)
(0.176477 0.00123049 0)
(0.175844 0.00120736 0)
(0.175214 0.00118145 0)
(0.174586 0.00115189 0)
(0.173962 0.00112885 0)
(0.173345 0.0011061 0)
(0.172722 0.00108341 0)
(0.172109 0.00106397 0)
(0.171471 0.00103651 0)
(0.170893 0.00102316 0)
(0.170195 0.000993682 0)
(0.169788 0.000991594 0)
(0.168747 0.000968525 0)
(0.196536 0.00636144 0)
(0.196858 0.00747652 0)
(0.197278 0.0068011 0)
(0.197924 0.00827237 0)
(0.198644 0.00952328 0)
(0.199268 0.00601024 0)
(0.199878 0.00989238 0)
(0.200828 0.00886829 0)
(0.201319 0.00687747 0)
(0.201742 0.00721651 0)
(0.202328 0.00714209 0)
(0.202332 0.00729388 0)
(0.202137 0.00717063 0)
(0.20235 0.00636304 0)
(0.202677 0.00550569 0)
(0.202604 0.00523594 0)
(0.202431 0.00532613 0)
(0.202417 0.0054242 0)
(0.202519 0.00525845 0)
(0.202601 0.00504679 0)
(0.202578 0.004937 0)
(0.202559 0.00456746 0)
(0.202535 0.00443428 0)
(0.20251 0.00435609 0)
(0.202513 0.00427232 0)
(0.202463 0.00431597 0)
(0.202357 0.0044168 0)
(0.202272 0.00436581 0)
(0.202212 0.00411914 0)
(0.202162 0.0038663 0)
(0.202139 0.00363787 0)
(0.202174 0.00342887 0)
(0.20227 0.00342588 0)
(0.202309 0.0035498 0)
(0.202244 0.00367448 0)
(0.202086 0.00373434 0)
(0.201902 0.00361622 0)
(0.201761 0.00338576 0)
(0.20167 0.00326862 0)
(0.20162 0.00316163 0)
(0.201598 0.00312701 0)
(0.201576 0.00313927 0)
(0.201514 0.003127 0)
(0.201407 0.00305598 0)
(0.201292 0.00297886 0)
(0.20117 0.00294639 0)
(0.201022 0.00292565 0)
(0.200857 0.00287891 0)
(0.20069 0.00281187 0)
(0.20053 0.00276197 0)
(0.200371 0.0027213 0)
(0.20019 0.00269248 0)
(0.19998 0.00264671 0)
(0.199757 0.00259754 0)
(0.199537 0.00254609 0)
(0.19933 0.00248331 0)
(0.199129 0.00245861 0)
(0.198907 0.00243592 0)
(0.198655 0.00238663 0)
(0.198389 0.00235203 0)
(0.198119 0.00232071 0)
(0.197841 0.00227709 0)
(0.197547 0.00224872 0)
(0.197234 0.00221525 0)
(0.196907 0.00216917 0)
(0.196573 0.00212441 0)
(0.196253 0.00206804 0)
(0.195939 0.00205388 0)
(0.195607 0.00202858 0)
(0.195259 0.0019764 0)
(0.194903 0.0019593 0)
(0.19454 0.00192227 0)
(0.194169 0.00188554 0)
(0.193784 0.00187738 0)
(0.193376 0.00184241 0)
(0.19295 0.00178925 0)
(0.192523 0.00175865 0)
(0.192108 0.00172299 0)
(0.191699 0.00169077 0)
(0.19128 0.00167459 0)
(0.190835 0.00164922 0)
(0.19038 0.00160083 0)
(0.189929 0.00157355 0)
(0.189482 0.0015455 0)
(0.18903 0.0015142 0)
(0.188575 0.00148852 0)
(0.188109 0.00146865 0)
(0.187637 0.00142944 0)
(0.187161 0.00140836 0)
(0.186681 0.00137953 0)
(0.186198 0.00134965 0)
(0.185716 0.00132144 0)
(0.185237 0.00130102 0)
(0.184754 0.0012736 0)
(0.184271 0.00126028 0)
(0.183763 0.00122459 0)
(0.1833 0.00121809 0)
(0.182733 0.00117874 0)
(0.18241 0.00118545 0)
(0.181552 0.00115424 0)
(0.196834 0.00622959 0)
(0.197134 0.00693318 0)
(0.197643 0.00656551 0)
(0.198164 0.00804755 0)
(0.198748 0.00814959 0)
(0.199422 0.00671634 0)
(0.199749 0.00883421 0)
(0.200502 0.00762844 0)
(0.201439 0.0072808 0)
(0.20152 0.00716642 0)
(0.201691 0.00680033 0)
(0.201968 0.00713903 0)
(0.20213 0.00690128 0)
(0.202491 0.00621683 0)
(0.202622 0.00571884 0)
(0.202391 0.00547085 0)
(0.202262 0.00548044 0)
(0.202329 0.00537244 0)
(0.202436 0.00513413 0)
(0.202438 0.0050938 0)
(0.202448 0.00487333 0)
(0.202484 0.0046382 0)
(0.202469 0.00445925 0)
(0.202441 0.00435082 0)
(0.202414 0.00438958 0)
(0.202327 0.00436326 0)
(0.202241 0.00439656 0)
(0.202244 0.00438426 0)
(0.202243 0.00423851 0)
(0.202222 0.00390159 0)
(0.2022 0.0035859 0)
(0.202221 0.00342729 0)
(0.202301 0.00340548 0)
(0.202306 0.00352639 0)
(0.202227 0.00373939 0)
(0.202107 0.00381332 0)
(0.202002 0.00370049 0)
(0.201953 0.00342359 0)
(0.201914 0.00328787 0)
(0.201876 0.0031574 0)
(0.201877 0.00311427 0)
(0.201898 0.00314332 0)
(0.201894 0.00313938 0)
(0.20186 0.00307705 0)
(0.201823 0.00303661 0)
(0.201779 0.00297713 0)
(0.201702 0.0029581 0)
(0.201615 0.0029446 0)
(0.201546 0.00286292 0)
(0.201491 0.00279704 0)
(0.201434 0.00276782 0)
(0.20135 0.00275005 0)
(0.201244 0.00270739 0)
(0.201142 0.0026577 0)
(0.20105 0.00260004 0)
(0.200977 0.00253473 0)
(0.200915 0.00251464 0)
(0.20083 0.00250075 0)
(0.200715 0.00245796 0)
(0.200586 0.00242736 0)
(0.200459 0.00239664 0)
(0.200339 0.00235839 0)
(0.200211 0.00233872 0)
(0.200066 0.00230638 0)
(0.1999 0.00226976 0)
(0.199719 0.00222796 0)
(0.199551 0.00216163 0)
(0.1994 0.00214686 0)
(0.199242 0.0021226 0)
(0.199075 0.0020761 0)
(0.198902 0.00206317 0)
(0.198718 0.00202903 0)
(0.198526 0.00199794 0)
(0.198323 0.00199318 0)
(0.198098 0.00196759 0)
(0.19785 0.00192239 0)
(0.197595 0.00189081 0)
(0.197347 0.00184702 0)
(0.197114 0.00181219 0)
(0.196877 0.00180274 0)
(0.196612 0.00178591 0)
(0.196329 0.00173744 0)
(0.19605 0.00171154 0)
(0.195773 0.00168214 0)
(0.195494 0.00165054 0)
(0.195213 0.00162478 0)
(0.194919 0.00161029 0)
(0.194613 0.00157164 0)
(0.194301 0.00155421 0)
(0.193982 0.00152435 0)
(0.193655 0.00149654 0)
(0.193327 0.00146523 0)
(0.193 0.00144585 0)
(0.19267 0.00141695 0)
(0.192337 0.00140838 0)
(0.19198 0.00137058 0)
(0.191654 0.00136904 0)
(0.191247 0.00132383 0)
(0.191022 0.00133604 0)
(0.190398 0.00130389 0)
(0.197132 0.00639636 0)
(0.197363 0.00665225 0)
(0.19784 0.00658123 0)
(0.198349 0.00770034 0)
(0.198918 0.00795537 0)
(0.19942 0.00662074 0)
(0.199693 0.00765873 0)
(0.200614 0.00840218 0)
(0.201254 0.00675684 0)
(0.201093 0.00666841 0)
(0.201339 0.00646861 0)
(0.201846 0.00768855 0)
(0.202217 0.0065599 0)
(0.202379 0.00597229 0)
(0.202362 0.00573379 0)
(0.202196 0.0054711 0)
(0.202177 0.00540158 0)
(0.202329 0.00526498 0)
(0.202349 0.00518551 0)
(0.202296 0.00507408 0)
(0.202344 0.00486524 0)
(0.202382 0.00458469 0)
(0.202354 0.00445648 0)
(0.202355 0.00432593 0)
(0.202311 0.00436513 0)
(0.202211 0.00441144 0)
(0.202188 0.00442247 0)
(0.202198 0.00438108 0)
(0.202191 0.00417606 0)
(0.202193 0.00393051 0)
(0.202219 0.00361102 0)
(0.202241 0.0033417 0)
(0.202235 0.00340451 0)
(0.202194 0.00361359 0)
(0.202115 0.0037644 0)
(0.202028 0.00395619 0)
(0.201965 0.00361212 0)
(0.201967 0.00345939 0)
(0.201965 0.00333386 0)
(0.201928 0.00316426 0)
(0.201929 0.00313501 0)
(0.201948 0.00311223 0)
(0.201934 0.00316835 0)
(0.201908 0.00305761 0)
(0.201879 0.00304448 0)
(0.201838 0.00303419 0)
(0.201802 0.00299195 0)
(0.201773 0.00293807 0)
(0.201744 0.00287743 0)
(0.201718 0.00280753 0)
(0.201686 0.00278812 0)
(0.201624 0.00279248 0)
(0.201557 0.00274589 0)
(0.201521 0.00268956 0)
(0.201499 0.00261278 0)
(0.201486 0.00253292 0)
(0.201477 0.00252247 0)
(0.201444 0.00252518 0)
(0.201385 0.0024998 0)
(0.201314 0.00246801 0)
(0.201256 0.00242815 0)
(0.201217 0.00238432 0)
(0.201178 0.00237368 0)
(0.201127 0.00234758 0)
(0.201056 0.00231441 0)
(0.20096 0.00227376 0)
(0.200871 0.00220525 0)
(0.2008 0.00219655 0)
(0.200732 0.00215976 0)
(0.200671 0.00212075 0)
(0.200612 0.00211115 0)
(0.20054 0.00207167 0)
(0.20046 0.0020529 0)
(0.20037 0.00205368 0)
(0.200263 0.00203018 0)
(0.200138 0.00199221 0)
(0.200002 0.00196496 0)
(0.199869 0.00191641 0)
(0.199754 0.00187748 0)
(0.199642 0.00187482 0)
(0.199503 0.00186399 0)
(0.199347 0.00181539 0)
(0.199196 0.00179169 0)
(0.199048 0.00176022 0)
(0.1989 0.00172861 0)
(0.198754 0.00170673 0)
(0.198596 0.00169567 0)
(0.198423 0.00165771 0)
(0.198245 0.001647 0)
(0.198061 0.00161718 0)
(0.197868 0.00158968 0)
(0.197672 0.00156012 0)
(0.197475 0.00153967 0)
(0.197275 0.00151288 0)
(0.197073 0.00150595 0)
(0.196852 0.00146904 0)
(0.19665 0.00147159 0)
(0.196393 0.00142479 0)
(0.196257 0.00143677 0)
(0.195858 0.0014094 0)
(0.197272 0.00605787 0)
(0.197522 0.00585146 0)
(0.198115 0.00608342 0)
(0.198572 0.00704174 0)
(0.19901 0.00738691 0)
(0.199463 0.00646923 0)
(0.199706 0.00729606 0)
(0.200442 0.00805195 0)
(0.201129 0.00653923 0)
(0.201036 0.00646813 0)
(0.201204 0.00682173 0)
(0.201691 0.0065032 0)
(0.202061 0.00681563 0)
(0.202221 0.00590373 0)
(0.202177 0.00577622 0)
(0.202036 0.00549857 0)
(0.202076 0.00536444 0)
(0.202283 0.00526025 0)
(0.202294 0.00519709 0)
(0.202236 0.0050066 0)
(0.202251 0.00483043 0)
(0.202253 0.00469428 0)
(0.202228 0.00447964 0)
(0.202221 0.00436924 0)
(0.202196 0.00445339 0)
(0.202133 0.00445474 0)
(0.20212 0.0044549 0)
(0.202116 0.00439987 0)
(0.202095 0.00418891 0)
(0.202115 0.00390497 0)
(0.202224 0.00355041 0)
(0.202267 0.00339434 0)
(0.202192 0.00340033 0)
(0.202071 0.00362899 0)
(0.201949 0.00386219 0)
(0.201907 0.00389707 0)
(0.201933 0.00370997 0)
(0.201971 0.0034303 0)
(0.201969 0.00335788 0)
(0.201941 0.00315436 0)
(0.201944 0.00309995 0)
(0.201938 0.00315203 0)
(0.201898 0.00314135 0)
(0.20187 0.00309849 0)
(0.201832 0.00308029 0)
(0.201784 0.00300322 0)
(0.201783 0.00299503 0)
(0.201781 0.00297016 0)
(0.201755 0.0029009 0)
(0.201726 0.00283116 0)
(0.201699 0.00281397 0)
(0.201652 0.00281151 0)
(0.201592 0.00273941 0)
(0.201577 0.00269933 0)
(0.201587 0.00262992 0)
(0.201595 0.00254293 0)
(0.201589 0.00253567 0)
(0.201567 0.00254218 0)
(0.201531 0.0025146 0)
(0.201487 0.00249298 0)
(0.201453 0.00243569 0)
(0.201449 0.00239395 0)
(0.201447 0.00238045 0)
(0.201438 0.00235969 0)
(0.201409 0.00234442 0)
(0.201355 0.00231199 0)
(0.201306 0.0022233 0)
(0.201264 0.00220998 0)
(0.201226 0.00218554 0)
(0.20121 0.00212285 0)
(0.201202 0.00212481 0)
(0.201187 0.00208916 0)
(0.201162 0.00206687 0)
(0.201127 0.00208163 0)
(0.201082 0.00206592 0)
(0.201029 0.00202915 0)
(0.200964 0.00199913 0)
(0.200896 0.00194767 0)
(0.200843 0.00190458 0)
(0.200796 0.00190964 0)
(0.200723 0.00190586 0)
(0.200642 0.00185603 0)
(0.200573 0.00183437 0)
(0.200504 0.00180045 0)
(0.200437 0.00176305 0)
(0.200376 0.00174466 0)
(0.200303 0.00174102 0)
(0.200216 0.00170287 0)
(0.200126 0.00169477 0)
(0.200031 0.00167089 0)
(0.199931 0.0016414 0)
(0.199829 0.00161431 0)
(0.199725 0.00159165 0)
(0.199618 0.00156917 0)
(0.199506 0.00156403 0)
(0.199381 0.00152933 0)
(0.19927 0.00153129 0)
(0.199127 0.00148701 0)
(0.199058 0.00149547 0)