/*--------------------------------*- C++ -*----------------------------------*\
| =========                 |                                                 |
| \\      /  F ield         | OpenFOAM: The Open Source CFD Toolbox           |
|  \\    /   O peration     | Version:  2.3.0                                 |
|   \\  /    A nd           | Web:      www.OpenFOAM.org                      |
|    \\/     M anipulation  |                                                 |
\*---------------------------------------------------------------------------*/
FoamFile
{
    version     2.0;
    format      ascii;
    class       volVectorField;
    location    "0.75";
    object      U_0;
}
// * * * * * * * * * * * * * * * * * * * * * * * * * * * * * * * * * * * * * //

dimensions      [0 1 -1 0 0 0 0];

internalField   nonuniform List<vector> 
3375
(
(0.176441 0.00534941 0)
(0.154784 0.00606849 0)
(0.134304 0.00610293 0)
(0.115489 0.00545108 0)
(0.0982586 0.00447635 0)
(0.0834149 0.00340733 0)
(0.0707515 0.0025095 0)
(0.0605282 0.00144747 0)
(0.0530656 0.000740398 0)
(0.0476994 0.000378358 0)
(0.0435959 0.000163069 0)
(0.0405152 2.80452e-05 0)
(0.0382635 -1.45554e-05 0)
(0.0365243 -7.30032e-06 0)
(0.0350832 6.75995e-06 0)
(0.0338504 3.2068e-05 0)
(0.032744 5.09058e-05 0)
(0.0317272 5.55872e-05 0)
(0.0308077 6.00821e-05 0)
(0.0299494 6.75418e-05 0)
(0.0291247 6.75963e-05 0)
(0.0283512 6.12883e-05 0)
(0.0276383 5.84723e-05 0)
(0.0269668 5.81698e-05 0)
(0.0263274 5.5185e-05 0)
(0.0257274 5.02606e-05 0)
(0.0251657 4.68632e-05 0)
(0.0246352 4.41584e-05 0)
(0.0241374 3.98386e-05 0)
(0.0236749 3.58629e-05 0)
(0.0232389 3.45004e-05 0)
(0.0228202 3.35441e-05 0)
(0.0224141 3.29491e-05 0)
(0.0220213 3.20572e-05 0)
(0.0216471 2.9353e-05 0)
(0.0212922 2.78588e-05 0)
(0.0209518 2.71008e-05 0)
(0.0206243 2.56234e-05 0)
(0.0203089 2.5023e-05 0)
(0.0200051 2.38091e-05 0)
(0.0197145 2.22523e-05 0)
(0.019435 2.1766e-05 0)
(0.019166 2.03364e-05 0)
(0.0189104 1.85639e-05 0)
(0.0186647 1.84696e-05 0)
(0.0184241 1.82369e-05 0)
(0.0181913 1.70265e-05 0)
(0.0179679 1.62755e-05 0)
(0.0177519 1.58524e-05 0)
(0.0175412 1.55246e-05 0)
(0.0173367 1.48396e-05 0)
(0.0171389 1.41363e-05 0)
(0.016948 1.35845e-05 0)
(0.0167629 1.30451e-05 0)
(0.0165837 1.24842e-05 0)
(0.0164102 1.19961e-05 0)
(0.0162403 1.20188e-05 0)
(0.0160738 1.16114e-05 0)
(0.0159138 1.05999e-05 0)
(0.015759 1.05084e-05 0)
(0.0156065 1.05681e-05 0)
(0.0154573 9.98926e-06 0)
(0.0153129 9.67406e-06 0)
(0.0151715 9.552e-06 0)
(0.0150333 9.18189e-06 0)
(0.014899 8.82477e-06 0)
(0.0147695 8.21864e-06 0)
(0.0146427 8.29623e-06 0)
(0.0145179 8.19646e-06 0)
(0.0143967 7.53329e-06 0)
(0.0142786 7.6468e-06 0)
(0.0141622 7.46521e-06 0)
(0.0140488 7.06344e-06 0)
(0.013937 7.35251e-06 0)
(0.0138273 6.87882e-06 0)
(0.013722 6.25348e-06 0)
(0.0136193 6.51477e-06 0)
(0.013517 6.45455e-06 0)
(0.0134175 5.98373e-06 0)
(0.0133205 5.99879e-06 0)
(0.013225 5.88794e-06 0)
(0.0131317 5.5504e-06 0)
(0.013041 5.46916e-06 0)
(0.0129512 5.46072e-06 0)
(0.0128637 5.16839e-06 0)
(0.0127772 5.26032e-06 0)
(0.0126924 5.13574e-06 0)
(0.0126083 5.00659e-06 0)
(0.0125274 4.8139e-06 0)
(0.0124456 5.00223e-06 0)
(0.0123679 4.4632e-06 0)
(0.0122882 4.90706e-06 0)
(0.0122138 4.31961e-06 0)
(0.0121336 5.01065e-06 0)
(0.0120643 3.8325e-06 0)
(0.011981 5.35243e-06 0)
(0.0119222 2.85782e-06 0)
(0.0118285 5.88643e-06 0)
(0.0117992 3.5006e-07 0)
(0.0116735 9.86904e-06 0)
(0.191302 0.0092166 0)
(0.190684 0.0124289 0)
(0.188238 0.0133043 0)
(0.183686 0.012578 0)
(0.177386 0.0113391 0)
(0.170015 0.00988198 0)
(0.161422 0.0094217 0)
(0.15273 0.00754501 0)
(0.144624 0.00568005 0)
(0.137187 0.00446275 0)
(0.130224 0.0034708 0)
(0.123764 0.00258084 0)
(0.117991 0.00197585 0)
(0.112966 0.0015956 0)
(0.108466 0.00130203 0)
(0.104361 0.00111844 0)
(0.100679 0.000993537 0)
(0.0973574 0.000875088 0)
(0.0943439 0.000783152 0)
(0.091596 0.000736555 0)
(0.0890462 0.000693685 0)
(0.0866675 0.00063242 0)
(0.0844631 0.000582155 0)
(0.0824082 0.000548834 0)
(0.0804746 0.000514435 0)
(0.0786596 0.00047748 0)
(0.0769584 0.000447656 0)
(0.0753533 0.000420522 0)
(0.0738376 0.000389059 0)
(0.0724086 0.000360787 0)
(0.0710514 0.000343141 0)
(0.0697544 0.00032856 0)
(0.0685073 0.000315915 0)
(0.0673099 0.000301969 0)
(0.0661682 0.000282511 0)
(0.0650767 0.000268213 0)
(0.0640304 0.000257044 0)
(0.0630249 0.000244121 0)
(0.0620577 0.000234625 0)
(0.0611297 0.000223403 0)
(0.0602391 0.000211465 0)
(0.0593821 0.00020376 0)
(0.0585579 0.000193499 0)
(0.057767 0.000182294 0)
(0.057004 0.000176925 0)
(0.0562639 0.000171539 0)
(0.0555479 0.00016302 0)
(0.054857 0.000156064 0)
(0.0541888 0.000150592 0)
(0.0535395 0.000145807 0)
(0.0529109 0.000139983 0)
(0.0523018 0.00013427 0)
(0.0517119 0.000129137 0)
(0.05114 0.000124302 0)
(0.0505851 0.000119575 0)
(0.0500466 0.000115195 0)
(0.0495213 0.000112566 0)
(0.0490096 0.000108711 0)
(0.0485141 0.000103117 0)
(0.0480321 0.000100533 0)
(0.0475611 9.84388e-05 0)
(0.0471017 9.44211e-05 0)
(0.0466551 9.1338e-05 0)
(0.0462192 8.89857e-05 0)
(0.0457939 8.58905e-05 0)
(0.04538 8.29457e-05 0)
(0.0449786 7.931e-05 0)
(0.0445852 7.79449e-05 0)
(0.0442006 7.59618e-05 0)
(0.043826 7.23494e-05 0)
(0.04346 7.12442e-05 0)
(0.0431021 6.91966e-05 0)
(0.0427526 6.65247e-05 0)
(0.0424097 6.60707e-05 0)
(0.0420753 6.32676e-05 0)
(0.0417501 6.01073e-05 0)
(0.0414324 5.96857e-05 0)
(0.0411201 5.83123e-05 0)
(0.0408155 5.57062e-05 0)
(0.0405178 5.46826e-05 0)
(0.0402264 5.32883e-05 0)
(0.0399411 5.12519e-05 0)
(0.039663 5.00136e-05 0)
(0.0393895 4.90759e-05 0)
(0.0391227 4.72304e-05 0)
(0.0388598 4.66823e-05 0)
(0.0386034 4.53749e-05 0)
(0.0383503 4.4194e-05 0)
(0.0381056 4.27276e-05 0)
(0.0378612 4.2676e-05 0)
(0.0376273 4.01603e-05 0)
(0.0373899 4.1035e-05 0)
(0.0371674 3.8326e-05 0)
(0.0369326 4.01783e-05 0)
(0.0367249 3.55835e-05 0)
(0.0364851 4.02626e-05 0)
(0.0363046 3.11976e-05 0)
(0.03604 4.17274e-05 0)
(0.0359317 2.25255e-05 0)
(0.0355755 4.90491e-05 0)
(0.191862 0.00811699 0)
(0.19293 0.0103158 0)
(0.19459 0.0110053 0)
(0.196151 0.0121444 0)
(0.196575 0.0118429 0)
(0.196234 0.0115221 0)
(0.194557 0.010835 0)
(0.191546 0.00989847 0)
(0.188095 0.00855423 0)
(0.184512 0.00756014 0)
(0.180636 0.00665484 0)
(0.176392 0.00570917 0)
(0.17196 0.00490424 0)
(0.16771 0.00429344 0)
(0.163723 0.00381248 0)
(0.159895 0.00347427 0)
(0.156193 0.0031628 0)
(0.152579 0.00284887 0)
(0.14909 0.00257515 0)
(0.145794 0.00237252 0)
(0.14267 0.0022025 0)
(0.139657 0.00202963 0)
(0.136752 0.00187846 0)
(0.13397 0.00175551 0)
(0.131301 0.00163695 0)
(0.128739 0.00151662 0)
(0.126301 0.00141709 0)
(0.12399 0.00133412 0)
(0.121788 0.00124783 0)
(0.119679 0.00116794 0)
(0.117645 0.00110693 0)
(0.115679 0.00105177 0)
(0.113775 0.00100512 0)
(0.111937 0.000959986 0)
(0.110178 0.000905434 0)
(0.108491 0.00086099 0)
(0.106865 0.000822765 0)
(0.105294 0.000782202 0)
(0.103771 0.000749195 0)
(0.102303 0.000714096 0)
(0.100888 0.000678835 0)
(0.0995212 0.000651745 0)
(0.0982018 0.000620932 0)
(0.0969293 0.000589616 0)
(0.0956981 0.000569199 0)
(0.0945022 0.00054948 0)
(0.0933419 0.00052536 0)
(0.092219 0.000504128 0)
(0.0911314 0.000485224 0)
(0.0900725 0.000468202 0)
(0.0890445 0.000450034 0)
(0.0880462 0.000432711 0)
(0.0870772 0.000416513 0)
(0.0861362 0.000401222 0)
(0.0852209 0.000386515 0)
(0.084331 0.000372673 0)
(0.0834624 0.000362415 0)
(0.0826159 0.000349968 0)
(0.0817939 0.000334626 0)
(0.0809928 0.000325201 0)
(0.0802104 0.00031673 0)
(0.0794465 0.000304925 0)
(0.0787022 0.000295064 0)
(0.0779759 0.000286625 0)
(0.0772663 0.000276884 0)
(0.0765745 0.000267661 0)
(0.0759024 0.000257521 0)
(0.0752432 0.00025177 0)
(0.0745989 0.000244558 0)
(0.0739711 0.000234674 0)
(0.0733565 0.000229643 0)
(0.0727562 0.000222802 0)
(0.0721694 0.000215065 0)
(0.071594 0.000211314 0)
(0.071033 0.000203379 0)
(0.0704854 0.000195185 0)
(0.0699501 0.000191799 0)
(0.0694257 0.000186718 0)
(0.0689129 0.000179681 0)
(0.0684113 0.000175525 0)
(0.0679211 0.000170718 0)
(0.0674409 0.000164891 0)
(0.066972 0.000160565 0)
(0.0665119 0.000156876 0)
(0.0660626 0.000151571 0)
(0.0656207 0.000148661 0)
(0.06519 0.000144376 0)
(0.0647655 0.000140468 0)
(0.064354 0.000136017 0)
(0.0639456 0.000134316 0)
(0.0635526 0.000128144 0)
(0.0631574 0.000128264 0)
(0.0627838 0.000121756 0)
(0.0623964 0.000123857 0)
(0.0620459 0.000114159 0)
(0.0616562 0.000121404 0)
(0.0613457 0.000104048 0)
(0.0609227 0.000121467 0)
(0.06072 9.01492e-05 0)
(0.0601415 0.000125722 0)
(0.193005 0.00743362 0)
(0.193958 0.00935605 0)
(0.195363 0.0102879 0)
(0.196977 0.0114193 0)
(0.198208 0.0114287 0)
(0.199389 0.00939689 0)
(0.200403 0.0135302 0)
(0.201148 0.00918935 0)
(0.200848 0.00858562 0)
(0.200232 0.00817501 0)
(0.199303 0.00765134 0)
(0.197819 0.00692573 0)
(0.195818 0.0064278 0)
(0.193688 0.00591737 0)
(0.191616 0.00532925 0)
(0.189617 0.00495182 0)
(0.187595 0.00467192 0)
(0.185387 0.00437745 0)
(0.183021 0.00409776 0)
(0.18066 0.00387292 0)
(0.178375 0.00365015 0)
(0.176122 0.00342228 0)
(0.173864 0.00324209 0)
(0.171606 0.00308917 0)
(0.169345 0.00293291 0)
(0.167062 0.00276408 0)
(0.164783 0.00259943 0)
(0.162562 0.00245087 0)
(0.160437 0.0023088 0)
(0.158403 0.00218804 0)
(0.156417 0.00210235 0)
(0.154442 0.00201918 0)
(0.152456 0.00193761 0)
(0.150472 0.00185087 0)
(0.148534 0.0017507 0)
(0.146667 0.0016723 0)
(0.144869 0.00160578 0)
(0.143116 0.00153645 0)
(0.141386 0.00147812 0)
(0.139686 0.0014123 0)
(0.138027 0.00134772 0)
(0.13641 0.00129789 0)
(0.134837 0.00123995 0)
(0.133307 0.00118189 0)
(0.131815 0.00114302 0)
(0.130353 0.00110328 0)
(0.128922 0.00105613 0)
(0.12753 0.00101631 0)
(0.126177 0.000981031 0)
(0.124852 0.000947918 0)
(0.123556 0.000912358 0)
(0.12229 0.000878586 0)
(0.121056 0.000846927 0)
(0.119853 0.000817113 0)
(0.118677 0.000788739 0)
(0.117528 0.000761346 0)
(0.116402 0.000739877 0)
(0.1153 0.000715432 0)
(0.114226 0.00068651 0)
(0.113177 0.000666906 0)
(0.112151 0.000648922 0)
(0.111144 0.000625902 0)
(0.11016 0.000606346 0)
(0.109197 0.0005892 0)
(0.108254 0.000569982 0)
(0.107331 0.000551459 0)
(0.106432 0.000531541 0)
(0.105549 0.000519238 0)
(0.104684 0.000504528 0)
(0.103839 0.000485436 0)
(0.10301 0.000474298 0)
(0.102198 0.000460015 0)
(0.101404 0.000444806 0)
(0.100624 0.000436132 0)
(0.0998614 0.000420705 0)
(0.0991158 0.000404961 0)
(0.0983855 0.000396856 0)
(0.0976697 0.000386109 0)
(0.0969682 0.000372554 0)
(0.0962807 0.000363437 0)
(0.0956084 0.000353469 0)
(0.0949494 0.000341944 0)
(0.0943043 0.000332802 0)
(0.0936713 0.000324609 0)
(0.0930524 0.000314185 0)
(0.0924438 0.000307357 0)
(0.0918493 0.000298549 0)
(0.091264 0.000290232 0)
(0.0906946 0.000281378 0)
(0.0901315 0.000276533 0)
(0.0895866 0.000265188 0)
(0.0890422 0.000263169 0)
(0.0885228 0.000251582 0)
(0.0879922 0.000252528 0)
(0.0875014 0.000236767 0)
(0.0869728 0.000244445 0)
(0.0865317 0.000220005 0)
(0.085964 0.000238815 0)
(0.0856636 0.000203145 0)
(0.0848734 0.000236349 0)
(0.194087 0.00745069 0)
(0.194587 0.00867315 0)
(0.195611 0.00890454 0)
(0.196974 0.0106761 0)
(0.198335 0.0103935 0)
(0.199475 0.00990019 0)
(0.200751 0.0107405 0)
(0.201838 0.00996435 0)
(0.202159 0.00876265 0)
(0.202626 0.00808179 0)
(0.202941 0.00770925 0)
(0.202639 0.00728841 0)
(0.202053 0.00680733 0)
(0.201443 0.00631966 0)
(0.200835 0.00574931 0)
(0.200278 0.00545604 0)
(0.199695 0.00530534 0)
(0.198873 0.00511795 0)
(0.197803 0.00486132 0)
(0.196651 0.00464855 0)
(0.195507 0.00444498 0)
(0.194376 0.00421506 0)
(0.193229 0.00405047 0)
(0.19204 0.00393151 0)
(0.190784 0.00380536 0)
(0.189418 0.00367682 0)
(0.187938 0.00354334 0)
(0.1864 0.00337604 0)
(0.184884 0.00318441 0)
(0.183445 0.00301848 0)
(0.182072 0.00291791 0)
(0.180715 0.00284698 0)
(0.179309 0.00279349 0)
(0.177805 0.0027159 0)
(0.176225 0.0025859 0)
(0.174643 0.00247149 0)
(0.173121 0.00237647 0)
(0.171657 0.00228799 0)
(0.170207 0.00222725 0)
(0.168741 0.00214986 0)
(0.167262 0.00206325 0)
(0.165783 0.00199758 0)
(0.164322 0.00192065 0)
(0.162891 0.00183847 0)
(0.161487 0.00178602 0)
(0.160089 0.00173638 0)
(0.158691 0.00166988 0)
(0.157312 0.00160799 0)
(0.155964 0.00155566 0)
(0.154636 0.0015108 0)
(0.153321 0.00146128 0)
(0.152019 0.00141174 0)
(0.150738 0.00136426 0)
(0.149483 0.00132006 0)
(0.148248 0.00127829 0)
(0.14703 0.00123741 0)
(0.145825 0.00120547 0)
(0.144636 0.00116796 0)
(0.143468 0.00112328 0)
(0.142323 0.00109307 0)
(0.141197 0.00106563 0)
(0.140086 0.0010305 0)
(0.138992 0.000999883 0)
(0.137917 0.000972604 0)
(0.136858 0.000943229 0)
(0.135816 0.00091494 0)
(0.134796 0.000883607 0)
(0.13379 0.000863461 0)
(0.132799 0.000839804 0)
(0.131827 0.000810117 0)
(0.130869 0.000792751 0)
(0.129927 0.000769429 0)
(0.129002 0.000744623 0)
(0.12809 0.000730013 0)
(0.127196 0.000705975 0)
(0.12632 0.000681185 0)
(0.125458 0.000667221 0)
(0.124611 0.00064955 0)
(0.123776 0.000628273 0)
(0.122956 0.000612803 0)
(0.122153 0.000596135 0)
(0.121364 0.000577539 0)
(0.120589 0.000562852 0)
(0.119826 0.00054874 0)
(0.119078 0.000531675 0)
(0.118342 0.000519811 0)
(0.117621 0.000505528 0)
(0.11691 0.000491247 0)
(0.116216 0.000477072 0)
(0.11553 0.000467798 0)
(0.114862 0.000450229 0)
(0.114197 0.000444553 0)
(0.113557 0.000427258 0)
(0.112909 0.000425109 0)
(0.112299 0.000403857 0)
(0.111657 0.000407996 0)
(0.111102 0.000380175 0)
(0.110414 0.000392765 0)
(0.110029 0.000360344 0)
(0.109055 0.000383033 0)
(0.194819 0.00690722 0)
(0.195179 0.0081338 0)
(0.196052 0.0082543 0)
(0.197219 0.0105064 0)
(0.198379 0.00979153 0)
(0.199422 0.00933093 0)
(0.200701 0.0101935 0)
(0.201651 0.00965604 0)
(0.201929 0.00853131 0)
(0.202578 0.00795656 0)
(0.203 0.0076239 0)
(0.202861 0.00726969 0)
(0.20271 0.00691251 0)
(0.202596 0.00645221 0)
(0.202535 0.0058265 0)
(0.202584 0.00542865 0)
(0.20259 0.00534766 0)
(0.202399 0.00529945 0)
(0.202017 0.00515971 0)
(0.201605 0.00500205 0)
(0.201207 0.00478091 0)
(0.200831 0.00452727 0)
(0.200467 0.00436793 0)
(0.200071 0.00428178 0)
(0.199628 0.00420673 0)
(0.199084 0.00410797 0)
(0.198386 0.00403489 0)
(0.197562 0.00391638 0)
(0.196712 0.00371028 0)
(0.195927 0.00350515 0)
(0.195223 0.00337453 0)
(0.194566 0.00330017 0)
(0.193898 0.00329131 0)
(0.193124 0.00328206 0)
(0.19219 0.00319327 0)
(0.191149 0.0030779 0)
(0.190111 0.00295463 0)
(0.18914 0.00283812 0)
(0.188214 0.00277928 0)
(0.187276 0.00271598 0)
(0.186291 0.00264145 0)
(0.185259 0.00257832 0)
(0.184192 0.00249199 0)
(0.183124 0.00239735 0)
(0.182082 0.00233846 0)
(0.181038 0.00228947 0)
(0.179963 0.00222532 0)
(0.178871 0.0021564 0)
(0.177788 0.00208848 0)
(0.176714 0.00203526 0)
(0.17564 0.0019819 0)
(0.174556 0.00192669 0)
(0.17347 0.00186837 0)
(0.172394 0.0018132 0)
(0.171328 0.001764 0)
(0.17027 0.00171512 0)
(0.16921 0.00167856 0)
(0.168147 0.00163427 0)
(0.167087 0.00157705 0)
(0.166039 0.00153764 0)
(0.165 0.0015026 0)
(0.163967 0.00145839 0)
(0.16294 0.00142067 0)
(0.161923 0.00138524 0)
(0.160916 0.00134657 0)
(0.159916 0.00131004 0)
(0.15893 0.00126924 0)
(0.157949 0.00124435 0)
(0.156974 0.00121248 0)
(0.156012 0.00117139 0)
(0.15506 0.00114958 0)
(0.154116 0.00111895 0)
(0.15318 0.00108562 0)
(0.152251 0.00106521 0)
(0.151336 0.00103178 0)
(0.150436 0.000998214 0)
(0.149549 0.000979413 0)
(0.148672 0.00095475 0)
(0.147801 0.000926094 0)
(0.146938 0.000904758 0)
(0.146089 0.000881039 0)
(0.145256 0.000854211 0)
(0.144433 0.000834256 0)
(0.143619 0.000814441 0)
(0.142817 0.000790419 0)
(0.142024 0.000772734 0)
(0.141244 0.000753159 0)
(0.140474 0.000732043 0)
(0.139718 0.000712641 0)
(0.138969 0.000697929 0)
(0.138236 0.000674515 0)
(0.137507 0.000663764 0)
(0.136798 0.00064167 0)
(0.136085 0.000633695 0)
(0.135402 0.00060958 0)
(0.134692 0.000605499 0)
(0.134065 0.000579104 0)
(0.133302 0.000579293 0)
(0.132861 0.000555211 0)
(0.131765 0.000562518 0)
(0.195607 0.00685162 0)
(0.195921 0.00775736 0)
(0.19656 0.00778442 0)
(0.197465 0.0098741 0)
(0.19841 0.00891122 0)
(0.199294 0.0087954 0)
(0.200542 0.00953914 0)
(0.201364 0.00968878 0)
(0.201614 0.00803411 0)
(0.202327 0.00737015 0)
(0.202716 0.00757004 0)
(0.202618 0.00748715 0)
(0.202621 0.00708678 0)
(0.202601 0.00640589 0)
(0.202678 0.00573619 0)
(0.202847 0.0053269 0)
(0.202861 0.00537156 0)
(0.202753 0.0054657 0)
(0.202609 0.00522386 0)
(0.20252 0.00501326 0)
(0.202424 0.00481331 0)
(0.202342 0.00456508 0)
(0.202299 0.00441188 0)
(0.202236 0.00431806 0)
(0.202149 0.00430251 0)
(0.202009 0.00430434 0)
(0.201758 0.00424899 0)
(0.201372 0.00415889 0)
(0.200948 0.00397087 0)
(0.200604 0.00374583 0)
(0.200355 0.00357656 0)
(0.200159 0.00345165 0)
(0.199981 0.00345718 0)
(0.199738 0.00352104 0)
(0.199333 0.00352146 0)
(0.198777 0.00344972 0)
(0.198179 0.00330588 0)
(0.19764 0.00315209 0)
(0.197177 0.00308256 0)
(0.196733 0.00302215 0)
(0.196254 0.00297444 0)
(0.195721 0.00294603 0)
(0.19512 0.00286757 0)
(0.194482 0.00276492 0)
(0.193857 0.00270949 0)
(0.193239 0.0026637 0)
(0.192586 0.00260546 0)
(0.191896 0.00255013 0)
(0.191195 0.002484 0)
(0.190493 0.00242606 0)
(0.189784 0.00237325 0)
(0.189055 0.00232301 0)
(0.188304 0.00226586 0)
(0.187547 0.00220655 0)
(0.186791 0.00215179 0)
(0.186038 0.00210049 0)
(0.185276 0.00206804 0)
(0.184496 0.00202533 0)
(0.183701 0.00196373 0)
(0.182904 0.00192234 0)
(0.182105 0.00188553 0)
(0.181298 0.00183609 0)
(0.180485 0.00179506 0)
(0.179672 0.00175579 0)
(0.178861 0.00171336 0)
(0.178051 0.00167313 0)
(0.177248 0.00162471 0)
(0.17644 0.00159974 0)
(0.175621 0.00156526 0)
(0.174807 0.00151571 0)
(0.173997 0.00149195 0)
(0.173187 0.0014565 0)
(0.172374 0.00141914 0)
(0.171556 0.00139735 0)
(0.170739 0.00135561 0)
(0.169932 0.00131305 0)
(0.169137 0.00129181 0)
(0.168349 0.00126303 0)
(0.16756 0.00122948 0)
(0.166767 0.00120421 0)
(0.165976 0.00117491 0)
(0.165198 0.00114038 0)
(0.164431 0.00111679 0)
(0.163667 0.00109235 0)
(0.162906 0.00106321 0)
(0.16215 0.00104024 0)
(0.1614 0.00101661 0)
(0.160657 0.000988646 0)
(0.159922 0.000965973 0)
(0.159193 0.000945103 0)
(0.158474 0.000917615 0)
(0.157759 0.000900885 0)
(0.157057 0.000876985 0)
(0.15635 0.000861239 0)
(0.155664 0.000837574 0)
(0.154953 0.000822062 0)
(0.154317 0.000801104 0)
(0.153548 0.000786017 0)
(0.153098 0.000773033 0)
(0.151973 0.000763671 0)
(0.196216 0.00680772 0)
(0.19654 0.0075285 0)
(0.196912 0.00745417 0)
(0.197672 0.00926446 0)
(0.198583 0.00834303 0)
(0.199093 0.00822634 0)
(0.200191 0.00974688 0)
(0.201261 0.00839412 0)
(0.201236 0.00788418 0)
(0.201983 0.00749092 0)
(0.202688 0.00704388 0)
(0.20251 0.00711156 0)
(0.2023 0.00711438 0)
(0.20242 0.00655996 0)
(0.2027 0.00559794 0)
(0.202728 0.00535424 0)
(0.202637 0.00541351 0)
(0.202599 0.00541071 0)
(0.202645 0.00523525 0)
(0.202674 0.00512712 0)
(0.202609 0.004911 0)
(0.202535 0.00454741 0)
(0.202536 0.00445947 0)
(0.202547 0.00435801 0)
(0.202542 0.00427779 0)
(0.202491 0.00434436 0)
(0.202377 0.00440207 0)
(0.202196 0.00432239 0)
(0.202009 0.00408177 0)
(0.201899 0.00378998 0)
(0.201842 0.00356528 0)
(0.201838 0.00348943 0)
(0.201877 0.00349446 0)
(0.201872 0.00356768 0)
(0.201728 0.00364061 0)
(0.20144 0.00364874 0)
(0.201112 0.00350179 0)
(0.200838 0.00330439 0)
(0.200647 0.00321322 0)
(0.200501 0.00313973 0)
(0.200348 0.00310218 0)
(0.200159 0.00310662 0)
(0.199907 0.00306449 0)
(0.199605 0.00295919 0)
(0.199302 0.0028997 0)
(0.199004 0.0028703 0)
(0.198679 0.00281884 0)
(0.198324 0.00276657 0)
(0.197955 0.00270988 0)
(0.197584 0.0026581 0)
(0.197208 0.00260992 0)
(0.196809 0.00256812 0)
(0.196381 0.00251609 0)
(0.195939 0.00246248 0)
(0.195497 0.00240671 0)
(0.195059 0.00235122 0)
(0.194616 0.00232558 0)
(0.19415 0.00229113 0)
(0.193659 0.00223235 0)
(0.193157 0.0021931 0)
(0.192648 0.00215904 0)
(0.192125 0.00211265 0)
(0.191586 0.00207619 0)
(0.191036 0.00203476 0)
(0.190479 0.00198795 0)
(0.189923 0.00194849 0)
(0.189375 0.00189874 0)
(0.188822 0.00187785 0)
(0.188246 0.00184457 0)
(0.187661 0.00179196 0)
(0.187075 0.00177031 0)
(0.186485 0.00173226 0)
(0.185887 0.0016955 0)
(0.185274 0.00167881 0)
(0.184646 0.00163449 0)
(0.184015 0.00158379 0)
(0.183393 0.0015593 0)
(0.182781 0.00152866 0)
(0.182168 0.00149587 0)
(0.18154 0.00147198 0)
(0.1809 0.00143975 0)
(0.180262 0.00139739 0)
(0.179634 0.00137256 0)
(0.179008 0.0013458 0)
(0.178378 0.00131481 0)
(0.177747 0.00128926 0)
(0.177113 0.00126437 0)
(0.176479 0.00122975 0)
(0.175847 0.0012071 0)
(0.175217 0.00118056 0)
(0.174591 0.00115115 0)
(0.173967 0.00112846 0)
(0.17335 0.00110565 0)
(0.172727 0.00108298 0)
(0.172114 0.00106309 0)
(0.171476 0.00103579 0)
(0.170899 0.00102236 0)
(0.170201 0.000993006 0)
(0.169794 0.000991128 0)
(0.168754 0.000967876 0)
(0.196536 0.00648031 0)
(0.19683 0.00738735 0)
(0.197256 0.00676261 0)
(0.19792 0.00852039 0)
(0.198632 0.00916729 0)
(0.199235 0.00600053 0)
(0.199898 0.0103702 0)
(0.200871 0.00846284 0)
(0.201303 0.00679259 0)
(0.201778 0.00735033 0)
(0.202323 0.0072738 0)
(0.202259 0.00737826 0)
(0.202114 0.00712056 0)
(0.202432 0.00617913 0)
(0.20269 0.0054624 0)
(0.202552 0.00525719 0)
(0.202408 0.00539162 0)
(0.202425 0.00546901 0)
(0.202547 0.005236 0)
(0.202607 0.0050583 0)
(0.202579 0.00490053 0)
(0.202558 0.00454014 0)
(0.202534 0.00443278 0)
(0.202515 0.00436232 0)
(0.202512 0.0042998 0)
(0.20245 0.00435657 0)
(0.202342 0.00444578 0)
(0.202262 0.00435065 0)
(0.202205 0.0040761 0)
(0.202164 0.00382276 0)
(0.202152 0.00361789 0)
(0.202201 0.00341593 0)
(0.202301 0.00346309 0)
(0.202315 0.00358735 0)
(0.202227 0.00371114 0)
(0.202057 0.00373835 0)
(0.201881 0.00358879 0)
(0.201751 0.00336056 0)
(0.201671 0.00325472 0)
(0.20163 0.00316012 0)
(0.201612 0.00313681 0)
(0.201588 0.00315014 0)
(0.201519 0.00312922 0)
(0.201407 0.00305119 0)
(0.201292 0.00297811 0)
(0.201169 0.00295042 0)
(0.201017 0.00292837 0)
(0.200852 0.00287698 0)
(0.200689 0.00280905 0)
(0.200531 0.00276167 0)
(0.200372 0.002723 0)
(0.200188 0.00269338 0)
(0.199976 0.00264552 0)
(0.199754 0.00259617 0)
(0.199537 0.00254246 0)
(0.199334 0.00248308 0)
(0.199134 0.00246155 0)
(0.198908 0.00243651 0)
(0.198654 0.00238585 0)
(0.198388 0.00235258 0)
(0.198119 0.00232074 0)
(0.197841 0.00227755 0)
(0.197545 0.0022494 0)
(0.197232 0.00221435 0)
(0.196904 0.00216726 0)
(0.196572 0.00212159 0)
(0.196256 0.00206806 0)
(0.195943 0.00205593 0)
(0.195609 0.00202751 0)
(0.195261 0.00197629 0)
(0.194905 0.00196003 0)
(0.194542 0.00192152 0)
(0.194171 0.00188704 0)
(0.193784 0.00187882 0)
(0.193374 0.00184037 0)
(0.192948 0.00178733 0)
(0.192523 0.00175785 0)
(0.19211 0.00172229 0)
(0.191702 0.00169175 0)
(0.191281 0.00167554 0)
(0.190834 0.00164758 0)
(0.19038 0.00159934 0)
(0.189931 0.00157345 0)
(0.189484 0.0015448 0)
(0.189033 0.00151379 0)
(0.188577 0.00148884 0)
(0.188111 0.0014679 0)
(0.187639 0.00142854 0)
(0.187163 0.00140811 0)
(0.186683 0.00137842 0)
(0.1862 0.00134862 0)
(0.185719 0.00132089 0)
(0.185241 0.00130052 0)
(0.184758 0.00127328 0)
(0.184275 0.00125934 0)
(0.183767 0.00122373 0)
(0.183304 0.00121709 0)
(0.182738 0.00117796 0)
(0.182415 0.00118504 0)
(0.181557 0.00115358 0)
(0.196845 0.00631292 0)
(0.197127 0.0068429 0)
(0.197634 0.00659709 0)
(0.198155 0.00815975 0)
(0.198746 0.00792669 0)
(0.199383 0.0068336 0)
(0.199738 0.00896273 0)
(0.200575 0.00744133 0)
(0.201446 0.00726429 0)
(0.201469 0.00721746 0)
(0.201671 0.00688863 0)
(0.201958 0.00721778 0)
(0.202187 0.00682813 0)
(0.20256 0.00609514 0)
(0.202573 0.00571921 0)
(0.202321 0.00550119 0)
(0.202257 0.00552295 0)
(0.202351 0.0053635 0)
(0.202446 0.00514109 0)
(0.202438 0.00510897 0)
(0.202457 0.00483885 0)
(0.202488 0.004624 0)
(0.202466 0.00444428 0)
(0.202441 0.00437036 0)
(0.202402 0.00441958 0)
(0.202309 0.00439119 0)
(0.20224 0.00442121 0)
(0.20225 0.00438671 0)
(0.202247 0.00419655 0)
(0.202221 0.00383133 0)
(0.202208 0.0035612 0)
(0.202244 0.00342016 0)
(0.202318 0.00342523 0)
(0.202303 0.0035899 0)
(0.202207 0.00378756 0)
(0.202088 0.00381778 0)
(0.201994 0.00366287 0)
(0.201951 0.00339753 0)
(0.201913 0.00326965 0)
(0.201881 0.0031552 0)
(0.201887 0.00312055 0)
(0.201909 0.00315787 0)
(0.2019 0.00314299 0)
(0.201861 0.00307565 0)
(0.201824 0.00303648 0)
(0.201776 0.00297941 0)
(0.201696 0.002964 0)
(0.201611 0.00294299 0)
(0.201546 0.002857 0)
(0.201493 0.00279622 0)
(0.201434 0.00277089 0)
(0.201345 0.00275166 0)
(0.201239 0.00270609 0)
(0.20114 0.00265583 0)
(0.201051 0.00259434 0)
(0.200983 0.00253396 0)
(0.20092 0.00251822 0)
(0.200831 0.00250223 0)
(0.200713 0.00245743 0)
(0.200584 0.00242758 0)
(0.20046 0.00239655 0)
(0.20034 0.00235963 0)
(0.200211 0.00233975 0)
(0.200064 0.00230599 0)
(0.199895 0.00226835 0)
(0.199715 0.00222374 0)
(0.199552 0.00216013 0)
(0.199404 0.0021485 0)
(0.199245 0.00212163 0)
(0.199079 0.0020764 0)
(0.198905 0.00206405 0)
(0.19872 0.00202836 0)
(0.198528 0.00199972 0)
(0.198324 0.00199545 0)
(0.198095 0.00196649 0)
(0.197846 0.00192048 0)
(0.197592 0.00188888 0)
(0.197348 0.00184512 0)
(0.197117 0.00181326 0)
(0.196879 0.00180455 0)
(0.196611 0.00178459 0)
(0.196328 0.00173575 0)
(0.19605 0.00171114 0)
(0.195774 0.00168098 0)
(0.195496 0.00164994 0)
(0.195215 0.00162532 0)
(0.19492 0.00160975 0)
(0.194614 0.00157079 0)
(0.194302 0.001554 0)
(0.193983 0.00152313 0)
(0.193656 0.00149529 0)
(0.193329 0.00146434 0)
(0.193003 0.00144515 0)
(0.192673 0.0014167 0)
(0.19234 0.00140747 0)
(0.191983 0.00136971 0)
(0.191657 0.00136777 0)
(0.19125 0.00132286 0)
(0.191026 0.00133575 0)
(0.190401 0.00130334 0)
(0.197132 0.00658905 0)
(0.197357 0.00655546 0)
(0.197843 0.00661729 0)
(0.198355 0.00780531 0)
(0.198918 0.00773581 0)
(0.199379 0.00660791 0)
(0.199709 0.00789209 0)
(0.200705 0.0082265 0)
(0.201182 0.00668084 0)
(0.201023 0.00671943 0)
(0.201363 0.00663965 0)
(0.201904 0.00774072 0)
(0.202263 0.00639581 0)
(0.20237 0.00596394 0)
(0.202315 0.00570875 0)
(0.202163 0.00548746 0)
(0.202181 0.00541757 0)
(0.202343 0.00528294 0)
(0.202343 0.00518911 0)
(0.202293 0.00508186 0)
(0.202357 0.00480673 0)
(0.202379 0.00458535 0)
(0.202354 0.00443992 0)
(0.202355 0.00435191 0)
(0.202295 0.00439999 0)
(0.202199 0.00444423 0)
(0.202193 0.00443765 0)
(0.202204 0.00437559 0)
(0.202197 0.00411578 0)
(0.202197 0.00390793 0)
(0.202232 0.00355035 0)
(0.202252 0.00333681 0)
(0.202235 0.0034549 0)
(0.202182 0.00367423 0)
(0.202099 0.0038139 0)
(0.202017 0.00394774 0)
(0.201966 0.00358476 0)
(0.201973 0.00342945 0)
(0.201966 0.0033132 0)
(0.20193 0.00315626 0)
(0.201937 0.00314099 0)
(0.201955 0.0031231 0)
(0.201936 0.0031776 0)
(0.201908 0.0030531 0)
(0.201877 0.0030503 0)
(0.201835 0.00304045 0)
(0.2018 0.00299172 0)
(0.201773 0.00293389 0)
(0.201744 0.00287255 0)
(0.201718 0.00280755 0)
(0.201682 0.00279413 0)
(0.201617 0.00279568 0)
(0.201554 0.00274253 0)
(0.201522 0.00268483 0)
(0.201502 0.00260365 0)
(0.201492 0.0025323 0)
(0.201482 0.00252798 0)
(0.201443 0.00252979 0)
(0.201381 0.00250056 0)
(0.201311 0.00246675 0)
(0.201257 0.00242681 0)
(0.20122 0.00238518 0)
(0.20118 0.0023756 0)
(0.201128 0.00234807 0)
(0.201052 0.00231296 0)
(0.200955 0.00226885 0)
(0.200869 0.00220358 0)
(0.200801 0.00219691 0)
(0.200735 0.00215835 0)
(0.200675 0.00212156 0)
(0.200615 0.00211163 0)
(0.200543 0.00207114 0)
(0.200462 0.00205561 0)
(0.200371 0.00205638 0)
(0.200261 0.00202961 0)
(0.200135 0.00199074 0)
(0.199999 0.00196246 0)
(0.199869 0.00191332 0)
(0.199756 0.00187853 0)
(0.199643 0.00187738 0)
(0.199501 0.00186285 0)
(0.199345 0.00181352 0)
(0.199196 0.00179087 0)
(0.199049 0.00175847 0)
(0.198902 0.001728 0)
(0.198757 0.00170766 0)
(0.198597 0.00169523 0)
(0.198424 0.00165704 0)
(0.198245 0.00164696 0)
(0.198061 0.00161575 0)
(0.197868 0.00158834 0)
(0.197673 0.00155902 0)
(0.197476 0.00153874 0)
(0.197277 0.00151264 0)
(0.197075 0.00150493 0)
(0.196854 0.00146824 0)
(0.196652 0.00147018 0)
(0.196396 0.0014235 0)
(0.196261 0.00143652 0)
(0.195861 0.00140899 0)
(0.197249 0.00614403 0)
(0.197549 0.00571432 0)
(0.198145 0.00616844 0)
(0.19857 0.00712396 0)
(0.199006 0.00724608 0)
(0.19943 0.00646726 0)
(0.199709 0.00747571 0)
(0.200516 0.00793722 0)
(0.201091 0.00643561 0)
(0.200972 0.00653756 0)
(0.201222 0.00690782 0)
(0.201753 0.00653255 0)
(0.202092 0.00671167 0)
(0.202197 0.00591229 0)
(0.202139 0.00575912 0)
(0.202009 0.00549626 0)
(0.202094 0.00537004 0)
(0.2023 0.00528088 0)
(0.202286 0.0051968 0)
(0.202228 0.00501096 0)
(0.20225 0.00481492 0)
(0.202249 0.00467493 0)
(0.202224 0.00446043 0)
(0.202218 0.00440117 0)
(0.202188 0.0044899 0)
(0.202128 0.0044768 0)
(0.202124 0.00447009 0)
(0.202118 0.00438898 0)
(0.202099 0.0041529 0)
(0.202134 0.00384276 0)
(0.202249 0.00350062 0)
(0.202267 0.00340375 0)
(0.202175 0.00344309 0)
(0.202046 0.00369989 0)
(0.201932 0.00390644 0)
(0.201913 0.00389247 0)
(0.201948 0.00366172 0)
(0.201981 0.00340974 0)
(0.201971 0.0033376 0)
(0.201943 0.00314369 0)
(0.201949 0.00310516 0)
(0.201938 0.00317126 0)
(0.201895 0.00314569 0)
(0.201867 0.00310207 0)
(0.201828 0.00307922 0)
(0.201784 0.00300501 0)
(0.201786 0.0030004 0)
(0.201782 0.00296865 0)
(0.201754 0.00289467 0)
(0.201724 0.00283151 0)
(0.201696 0.00282034 0)
(0.201645 0.0028118 0)
(0.201589 0.0027331 0)
(0.201581 0.00269933 0)
(0.201593 0.00261815 0)
(0.201599 0.00254343 0)
(0.201591 0.00254199 0)
(0.201566 0.00254709 0)
(0.201527 0.00251563 0)
(0.201484 0.00249058 0)
(0.201454 0.00243064 0)
(0.201452 0.00239722 0)
(0.20145 0.00238285 0)
(0.20144 0.00236179 0)
(0.201406 0.00234534 0)
(0.20135 0.00230618 0)
(0.201303 0.00221908 0)
(0.201262 0.00221043 0)
(0.201228 0.00218111 0)
(0.201215 0.00212447 0)
(0.201206 0.00212631 0)
(0.20119 0.00208878 0)
(0.201164 0.00207014 0)
(0.201127 0.0020858 0)
(0.201081 0.00206605 0)
(0.201027 0.0020275 0)
(0.200962 0.00199588 0)
(0.200895 0.0019435 0)
(0.200844 0.00190568 0)
(0.200796 0.00191318 0)
(0.200721 0.00190501 0)
(0.20064 0.00185401 0)
(0.200573 0.00183318 0)
(0.200505 0.0017977 0)
(0.20044 0.00176197 0)
(0.200378 0.00174617 0)
(0.200304 0.00174096 0)
(0.200216 0.00170214 0)
(0.200126 0.00169499 0)
(0.200031 0.0016695 0)
(0.199932 0.00163985 0)
(0.19983 0.001613 0)
(0.199726 0.0015906 0)
(0.199618 0.00156909 0)
(0.199507 0.00156297 0)
(0.199382 0.00152836 0)
(0.199271 0.00152967 0)
(0.199129 0.00148549 0)
(0.19906 0.00149523 0)
(0.198835 0.00147469 0)