/*--------------------------------*- C++ -*----------------------------------*\
| =========                 |                                                 |
| \\      /  F ield         | OpenFOAM: The Open Source CFD Toolbox           |
|  \\    /   O peration     | Version:  2.3.0                                 |
|   \\  /    A nd           | Web:      www.OpenFOAM.org                      |
|    \\/     M anipulation  |                                                 |
\*---------------------------------------------------------------------------*/
FoamFile
{
    version     2.0;
    format      ascii;
    class       surfaceScalarField;
    location    "0.45";
    object      phi;
}
// * * * * * * * * * * * * * * * * * * * * * * * * * * * * * * * * * * * * * //

dimensions      [0 3 -1 0 0 0 0];

internalField   nonuniform List<scalar> 
5273
(
3.22995e-08
2.28548e-09
2.89637e-08
3.33586e-09
2.57745e-08
3.18916e-09
2.27032e-08
3.07129e-09
1.97343e-08
2.96898e-09
1.69805e-08
2.75376e-09
1.45841e-08
2.3964e-09
1.26048e-08
1.97933e-09
1.10517e-08
1.55306e-09
9.88722e-09
1.16449e-09
9.03945e-09
8.47771e-10
8.42934e-09
6.10114e-10
7.98604e-09
4.43295e-10
7.65307e-09
3.32972e-10
7.38948e-09
2.63593e-10
7.16726e-09
2.22219e-10
6.96875e-09
1.9851e-10
6.78429e-09
1.84456e-10
6.60949e-09
1.74802e-10
6.44288e-09
1.66613e-10
6.28429e-09
1.58592e-10
6.13393e-09
1.50353e-10
5.99199e-09
1.41942e-10
5.8584e-09
1.33592e-10
5.73292e-09
1.25483e-10
5.61508e-09
1.17839e-10
5.5044e-09
1.10681e-10
5.40024e-09
1.04156e-10
5.30211e-09
9.81309e-11
5.20938e-09
9.27322e-11
5.12164e-09
8.77408e-11
5.03834e-09
8.32936e-11
4.95919e-09
7.91485e-11
4.88375e-09
7.54424e-11
4.81178e-09
7.19709e-11
4.74296e-09
6.88222e-11
4.67707e-09
6.58917e-11
4.61391e-09
6.31589e-11
4.55324e-09
6.06692e-11
4.49498e-09
5.82559e-11
4.43886e-09
5.61215e-11
4.38489e-09
5.39757e-11
4.33277e-09
5.21121e-11
4.28256e-09
5.02175e-11
4.23402e-09
4.85401e-11
4.18712e-09
4.68993e-11
4.14178e-09
4.53372e-11
4.09784e-09
4.39419e-11
4.05537e-09
4.2464e-11
4.01411e-09
4.12675e-11
3.97421e-09
3.98954e-11
3.9354e-09
3.88106e-11
3.8978e-09
3.76025e-11
3.86126e-09
3.65347e-11
3.82573e-09
3.55304e-11
3.79129e-09
3.44429e-11
3.75769e-09
3.36042e-11
3.72514e-09
3.25508e-11
3.69337e-09
3.17639e-11
3.66252e-09
3.08494e-11
3.63252e-09
2.99999e-11
3.60325e-09
2.92719e-11
3.57489e-09
2.83602e-11
3.54716e-09
2.77308e-11
3.52028e-09
2.68756e-11
3.49409e-09
2.61949e-11
3.46858e-09
2.55045e-11
3.44387e-09
2.47179e-11
3.41973e-09
2.41384e-11
3.39636e-09
2.33701e-11
3.37362e-09
2.2733e-11
3.35152e-09
2.21082e-11
3.33016e-09
2.13555e-11
3.30933e-09
2.0826e-11
3.28925e-09
2.00817e-11
3.26977e-09
1.9481e-11
3.25092e-09
1.88537e-11
3.23274e-09
1.81822e-11
3.21518e-09
1.75599e-11
3.19822e-09
1.69589e-11
3.18198e-09
1.62348e-11
3.16625e-09
1.57305e-11
3.15128e-09
1.49718e-11
3.13684e-09
1.4437e-11
3.12311e-09
1.3737e-11
3.1099e-09
1.3208e-11
3.09745e-09
1.24502e-11
3.08542e-09
1.2024e-11
3.07421e-09
1.12114e-11
3.06336e-09
1.08552e-11
3.05331e-09
1.0052e-11
3.04355e-09
9.75157e-12
3.03463e-09
8.92818e-12
3.02579e-09
8.83333e-12
3.0178e-09
7.98945e-12
3.00975e-09
8.05325e-12
3.00245e-09
7.2992e-12
2.99476e-09
7.68744e-12
2.9878e-09
6.95871e-12
8.30111e-12
3.6636e-08
1.51951e-09
3.6764e-08
3.2079e-09
3.632e-08
3.63316e-09
3.56875e-08
3.70372e-09
3.48598e-08
3.79671e-09
3.38056e-08
3.80798e-09
3.25629e-08
3.63906e-09
3.12199e-08
3.32234e-09
2.98569e-08
2.9161e-09
2.85334e-08
2.48794e-09
2.72862e-08
2.09497e-09
2.61316e-08
1.76474e-09
2.50737e-08
1.50116e-09
2.41097e-08
1.29696e-09
2.32356e-08
1.13773e-09
2.24438e-08
1.01406e-09
2.17245e-08
9.17813e-10
2.10683e-08
8.40614e-10
2.04669e-08
7.76182e-10
1.99132e-08
7.20291e-10
1.94014e-08
6.70473e-10
1.89264e-08
6.25308e-10
1.84843e-08
5.84028e-10
1.80717e-08
5.46246e-10
1.76855e-08
5.11623e-10
1.73233e-08
4.80068e-10
1.69828e-08
4.5121e-10
1.66619e-08
4.25057e-10
1.63589e-08
4.01109e-10
1.60721e-08
3.79479e-10
1.58003e-08
3.59564e-10
1.5542e-08
3.41573e-10
1.52963e-08
3.24886e-10
1.5062e-08
3.0975e-10
1.48383e-08
2.95639e-10
1.46244e-08
2.82718e-10
1.44196e-08
2.70687e-10
1.42233e-08
2.59488e-10
1.40348e-08
2.49157e-10
1.38538e-08
2.39323e-10
1.36795e-08
2.30382e-10
1.35118e-08
2.21683e-10
1.33501e-08
2.13847e-10
1.31941e-08
2.06154e-10
1.30435e-08
1.99157e-10
1.2898e-08
1.92404e-10
1.27573e-08
1.86022e-10
1.26211e-08
1.80135e-10
1.24893e-08
1.74239e-10
1.23615e-08
1.69071e-10
1.22378e-08
1.63658e-10
1.21176e-08
1.58981e-10
1.20011e-08
1.54137e-10
1.18879e-08
1.49707e-10
1.17779e-08
1.45491e-10
1.16712e-08
1.41188e-10
1.15673e-08
1.37499e-10
1.14664e-08
1.33405e-10
1.13682e-08
1.29976e-10
1.12728e-08
1.26293e-10
1.11799e-08
1.2285e-10
1.10895e-08
1.1967e-10
1.10017e-08
1.16182e-10
1.09161e-08
1.13307e-10
1.0833e-08
1.10007e-10
1.07521e-08
1.07097e-10
1.06734e-08
1.04209e-10
1.0597e-08
1.01119e-10
1.05226e-08
9.85265e-11
1.04505e-08
9.54982e-11
1.03804e-08
9.28319e-11
1.03124e-08
9.01271e-11
1.02465e-08
8.72393e-11
1.01826e-08
8.47579e-11
1.01207e-08
8.18959e-11
1.00609e-08
7.92737e-11
1.00031e-08
7.66727e-11
9.94742e-09
7.38887e-11
9.89366e-09
7.13187e-11
9.84195e-09
6.86666e-11
9.79229e-09
6.58957e-11
9.74458e-09
6.34408e-11
9.69895e-09
6.06069e-11
9.6553e-09
5.80856e-11
9.61363e-09
5.54058e-11
9.57395e-09
5.28908e-11
9.53626e-09
5.01432e-11
9.50042e-09
4.78573e-11
9.46656e-09
4.50699e-11
9.43445e-09
4.29684e-11
9.40419e-09
4.03169e-11
9.37554e-09
3.83947e-11
9.34859e-09
3.58826e-11
9.32293e-09
3.44926e-11
9.29874e-09
3.21791e-11
9.27553e-09
3.12628e-11
9.25335e-09
2.94737e-11
9.23165e-09
2.93968e-11
9.21048e-09
2.81281e-11
2.97266e-11
3.77193e-08
1.00296e-09
3.83634e-08
2.56389e-09
3.87096e-08
3.28697e-09
3.89172e-08
3.49611e-09
3.90805e-08
3.63336e-09
3.91376e-08
3.75091e-09
3.9025e-08
3.75164e-09
3.87461e-08
3.60127e-09
3.83298e-08
3.33238e-09
3.78132e-08
3.00454e-09
3.72324e-08
2.67581e-09
3.6614e-08
2.38314e-09
3.59757e-08
2.1394e-09
3.53306e-08
1.94208e-09
3.46865e-08
1.78178e-09
3.40498e-08
1.65082e-09
3.34246e-08
1.54299e-09
3.28133e-08
1.45189e-09
3.22172e-08
1.37232e-09
3.1637e-08
1.30047e-09
3.10734e-08
1.23411e-09
3.05267e-08
1.17194e-09
2.99974e-08
1.11332e-09
2.94857e-08
1.058e-09
2.89915e-08
1.00577e-09
2.85149e-08
9.56717e-10
2.80556e-08
9.10537e-10
2.76132e-08
8.67464e-10
2.71873e-08
8.26958e-10
2.67774e-08
7.89387e-10
2.6383e-08
7.53996e-10
2.60033e-08
7.21268e-10
2.56378e-08
6.90355e-10
2.52858e-08
6.61759e-10
2.49467e-08
6.34722e-10
2.46199e-08
6.09585e-10
2.43046e-08
5.85904e-10
2.40005e-08
5.63638e-10
2.37068e-08
5.42858e-10
2.34231e-08
5.22995e-10
2.31488e-08
5.0469e-10
2.28836e-08
4.86904e-10
2.26268e-08
4.70646e-10
2.23782e-08
4.54739e-10
2.21373e-08
4.401e-10
2.19037e-08
4.25956e-10
2.16772e-08
4.12561e-10
2.14573e-08
4.00045e-10
2.12438e-08
3.87667e-10
2.10364e-08
3.76526e-10
2.08349e-08
3.65135e-10
2.06389e-08
3.54981e-10
2.04483e-08
3.44693e-10
2.02629e-08
3.35116e-10
2.00824e-08
3.26002e-10
1.99068e-08
3.16792e-10
1.97357e-08
3.08667e-10
1.95691e-08
2.99932e-10
1.94067e-08
2.92354e-10
1.92486e-08
2.84396e-10
1.90946e-08
2.76912e-10
1.89444e-08
2.69851e-10
1.87982e-08
2.62402e-10
1.86556e-08
2.55899e-10
1.85168e-08
2.48839e-10
1.83815e-08
2.42337e-10
1.82497e-08
2.36002e-10
1.81216e-08
2.29259e-10
1.79967e-08
2.23442e-10
1.78753e-08
2.16834e-10
1.77572e-08
2.10932e-10
1.76425e-08
2.0485e-10
1.75311e-08
1.98629e-10
1.7423e-08
1.92888e-10
1.73181e-08
1.8674e-10
1.72167e-08
1.80744e-10
1.71183e-08
1.75029e-10
1.70235e-08
1.6875e-10
1.69317e-08
1.63088e-10
1.68434e-08
1.56983e-10
1.67582e-08
1.51019e-10
1.66765e-08
1.45173e-10
1.6598e-08
1.39149e-10
1.65229e-08
1.33136e-10
1.64509e-08
1.2741e-10
1.63824e-08
1.21363e-10
1.6317e-08
1.15605e-10
1.6255e-08
1.09886e-10
1.61958e-08
1.04194e-10
1.61401e-08
9.87429e-11
1.60869e-08
9.34554e-11
1.6037e-08
8.82969e-11
1.59894e-08
8.34828e-11
1.59447e-08
7.92176e-11
1.59018e-08
7.50439e-11
1.58615e-08
7.16159e-11
1.58223e-08
6.86471e-11
1.5785e-08
6.6728e-11
1.57481e-08
6.4973e-11
6.53044e-11
3.88712e-08
7.16824e-10
3.94287e-08
2.00643e-09
3.98964e-08
2.81925e-09
4.0241e-08
3.15143e-09
4.05779e-08
3.29652e-09
4.09128e-08
3.41599e-09
4.11876e-08
3.47681e-09
4.13649e-08
3.42396e-09
4.14359e-08
3.26143e-09
4.14114e-08
3.02907e-09
4.13111e-08
2.77607e-09
4.11538e-08
2.54045e-09
4.09538e-08
2.33939e-09
4.07213e-08
2.17459e-09
4.04627e-08
2.04043e-09
4.01834e-08
1.93011e-09
3.9888e-08
1.83831e-09
3.95799e-08
1.76007e-09
3.92608e-08
1.69138e-09
3.89324e-08
1.62889e-09
3.85959e-08
1.57059e-09
3.82527e-08
1.51511e-09
3.79042e-08
1.46188e-09
3.75516e-08
1.41061e-09
3.71962e-08
1.36115e-09
3.68392e-08
1.31366e-09
3.64819e-08
1.2679e-09
3.61251e-08
1.22426e-09
3.57698e-08
1.18222e-09
3.54168e-08
1.14239e-09
3.50669e-08
1.10393e-09
3.47205e-08
1.06768e-09
3.43782e-08
1.03258e-09
3.40405e-08
9.99525e-10
3.37077e-08
9.67542e-10
3.33799e-08
9.373e-10
3.30576e-08
9.08206e-10
3.27409e-08
8.80401e-10
3.24297e-08
8.53982e-10
3.21244e-08
8.28314e-10
3.18248e-08
8.0431e-10
3.15311e-08
7.80603e-10
3.12431e-08
7.58683e-10
3.09609e-08
7.36884e-10
3.06844e-08
7.16649e-10
3.04136e-08
6.9678e-10
3.01483e-08
6.77849e-10
2.98884e-08
6.59872e-10
2.96341e-08
6.42032e-10
2.93849e-08
6.25711e-10
2.9141e-08
6.08996e-10
2.89021e-08
5.93877e-10
2.86683e-08
5.78516e-10
2.84393e-08
5.64073e-10
2.82151e-08
5.50231e-10
2.79957e-08
5.36195e-10
2.77807e-08
5.23665e-10
2.75704e-08
5.10207e-10
2.73644e-08
4.98402e-10
2.71628e-08
4.8596e-10
2.69655e-08
4.74262e-10
2.67723e-08
4.63023e-10
2.65834e-08
4.51352e-10
2.63984e-08
4.40855e-10
2.62175e-08
4.29709e-10
2.60407e-08
4.19176e-10
2.58677e-08
4.09028e-10
2.56988e-08
3.98121e-10
2.55336e-08
3.88674e-10
2.53725e-08
3.77917e-10
2.52151e-08
3.68329e-10
2.50617e-08
3.58251e-10
2.49121e-08
3.48209e-10
2.47665e-08
3.38523e-10
2.46246e-08
3.28586e-10
2.44869e-08
3.18447e-10
2.43529e-08
3.09104e-10
2.42231e-08
2.98486e-10
2.4097e-08
2.89185e-10
2.39753e-08
2.78722e-10
2.38573e-08
2.6899e-10
2.37437e-08
2.58767e-10
2.36339e-08
2.48981e-10
2.35286e-08
2.38381e-10
2.3427e-08
2.29055e-10
2.33301e-08
2.18298e-10
2.32367e-08
2.0897e-10
2.3148e-08
1.98565e-10
2.30628e-08
1.89443e-10
2.29822e-08
1.79302e-10
2.29047e-08
1.70916e-10
2.28319e-08
1.6111e-10
2.27618e-08
1.53585e-10
2.2696e-08
1.45018e-10
2.26324e-08
1.38637e-10
2.25728e-08
1.31242e-10
2.25146e-08
1.26836e-10
2.24597e-08
1.21622e-10
2.24054e-08
1.19267e-10
1.16687e-10
4.01879e-08
5.47641e-10
4.06127e-08
1.58156e-09
4.10566e-08
2.37537e-09
4.14165e-08
2.7916e-09
4.17381e-08
2.97488e-09
4.2072e-08
3.08211e-09
4.23964e-08
3.15236e-09
4.26752e-08
3.14521e-09
4.28873e-08
3.04929e-09
4.3031e-08
2.88539e-09
4.31167e-08
2.69039e-09
4.31583e-08
2.4988e-09
4.3167e-08
2.33076e-09
4.31498e-08
2.1917e-09
4.31114e-08
2.07886e-09
4.3055e-08
1.98648e-09
4.29836e-08
1.9098e-09
4.2899e-08
1.84466e-09
4.28022e-08
1.7881e-09
4.26939e-08
1.7372e-09
4.25742e-08
1.69029e-09
4.24435e-08
1.64584e-09
4.2302e-08
1.60334e-09
4.21504e-08
1.56224e-09
4.19891e-08
1.52245e-09
4.18188e-08
1.48396e-09
4.16401e-08
1.44656e-09
4.14538e-08
1.41061e-09
4.12605e-08
1.37554e-09
4.10608e-08
1.34208e-09
4.08555e-08
1.30924e-09
4.0645e-08
1.27812e-09
4.04302e-08
1.24739e-09
4.02114e-08
1.21834e-09
3.99893e-08
1.1896e-09
3.97643e-08
1.1623e-09
3.95371e-08
1.13549e-09
3.93078e-08
1.10965e-09
3.90771e-08
1.08471e-09
3.88453e-08
1.06012e-09
3.86126e-08
1.03693e-09
3.83798e-08
1.01349e-09
3.81466e-08
9.91815e-10
3.79139e-08
9.69625e-10
3.76814e-08
9.491e-10
3.74499e-08
9.28355e-10
3.72191e-08
9.08596e-10
3.69896e-08
8.89425e-10
3.67614e-08
8.70237e-10
3.65346e-08
8.52504e-10
3.63096e-08
8.34006e-10
3.60862e-08
8.17254e-10
3.58648e-08
7.9985e-10
3.56455e-08
7.83456e-10
3.54282e-08
7.675e-10
3.52132e-08
7.5114e-10
3.50004e-08
7.365e-10
3.47902e-08
7.2041e-10
3.45822e-08
7.06419e-10
3.43769e-08
6.91234e-10
3.41741e-08
6.77105e-10
3.39739e-08
6.6317e-10
3.37765e-08
6.48794e-10
3.35818e-08
6.35589e-10
3.33898e-08
6.21624e-10
3.32008e-08
6.08174e-10
3.30146e-08
5.95293e-10
3.28316e-08
5.81134e-10
3.26512e-08
5.69018e-10
3.24743e-08
5.5483e-10
3.23002e-08
5.42406e-10
3.21296e-08
5.28887e-10
3.1962e-08
5.15761e-10
3.1798e-08
5.02559e-10
3.16371e-08
4.89459e-10
3.14801e-08
4.75472e-10
3.13262e-08
4.63053e-10
3.11764e-08
4.4826e-10
3.10298e-08
4.35793e-10
3.08875e-08
4.21015e-10
3.07486e-08
4.07921e-10
3.06141e-08
3.93238e-10
3.0483e-08
3.80044e-10
3.03568e-08
3.64628e-10
3.02338e-08
3.52022e-10
3.01159e-08
3.36203e-10
3.00013e-08
3.23548e-10
2.98919e-08
3.07998e-10
2.97857e-08
2.95641e-10
2.96848e-08
2.80213e-10
2.95868e-08
2.68887e-10
2.94942e-08
2.53701e-10
2.94042e-08
2.43562e-10
2.93194e-08
2.29861e-10
2.92367e-08
2.21305e-10
2.9159e-08
2.08928e-10
2.90827e-08
2.03139e-10
2.9011e-08
1.93384e-10
2.89397e-08
1.9052e-10
1.83626e-10
4.16167e-08
4.36487e-10
4.19301e-08
1.26819e-09
4.23166e-08
1.98884e-09
4.26666e-08
2.44164e-09
4.29692e-08
2.67232e-09
4.32642e-08
2.7871e-09
4.3561e-08
2.85553e-09
4.38355e-08
2.87065e-09
4.40667e-08
2.81815e-09
4.42467e-08
2.70541e-09
4.43805e-08
2.55655e-09
4.44794e-08
2.39986e-09
4.45537e-08
2.25654e-09
4.46101e-08
2.13529e-09
4.46527e-08
2.03623e-09
4.46843e-08
1.95492e-09
4.47067e-08
1.88735e-09
4.47216e-08
1.82976e-09
4.47297e-08
1.78006e-09
4.47312e-08
1.7357e-09
4.47259e-08
1.69558e-09
4.47137e-08
1.65799e-09
4.46944e-08
1.62268e-09
4.46679e-08
1.58875e-09
4.4634e-08
1.55631e-09
4.4593e-08
1.52502e-09
4.45447e-08
1.49483e-09
4.44894e-08
1.46591e-09
4.44272e-08
1.43772e-09
4.43583e-08
1.41102e-09
4.42829e-08
1.38463e-09
4.42011e-08
1.35993e-09
4.41133e-08
1.33515e-09
4.40195e-08
1.31212e-09
4.39203e-08
1.28884e-09
4.38155e-08
1.26712e-09
4.37057e-08
1.2453e-09
4.35908e-08
1.2245e-09
4.34714e-08
1.20416e-09
4.33475e-08
1.18398e-09
4.32194e-08
1.16504e-09
4.30875e-08
1.14538e-09
4.29517e-08
1.12761e-09
4.28128e-08
1.1086e-09
4.26703e-08
1.09155e-09
4.25251e-08
1.07352e-09
4.2377e-08
1.0567e-09
4.22265e-08
1.03992e-09
4.20737e-08
1.02305e-09
4.19187e-08
1.00748e-09
4.17621e-08
9.9068e-10
4.16035e-08
9.75823e-10
4.14437e-08
9.59673e-10
4.12824e-08
9.44715e-10
4.11201e-08
9.29808e-10
4.0957e-08
9.14283e-10
4.07929e-08
9.0061e-10
4.06285e-08
8.84762e-10
4.04633e-08
8.71573e-10
4.02983e-08
8.56286e-10
4.01329e-08
8.42524e-10
3.99677e-08
8.28392e-10
3.98026e-08
8.13867e-10
3.96378e-08
8.00349e-10
3.94736e-08
7.85875e-10
3.931e-08
7.71759e-10
3.9147e-08
7.58325e-10
3.89852e-08
7.42919e-10
3.88239e-08
7.30237e-10
3.86644e-08
7.14417e-10
3.85056e-08
7.01144e-10
3.83487e-08
6.85827e-10
3.8193e-08
6.71445e-10
3.80393e-08
6.56283e-10
3.7887e-08
6.41701e-10
3.77373e-08
6.25252e-10
3.75889e-08
6.1139e-10
3.74435e-08
5.93653e-10
3.72998e-08
5.79534e-10
3.71592e-08
5.61564e-10
3.70206e-08
5.46518e-10
3.68855e-08
5.28398e-10
3.67524e-08
5.13102e-10
3.66233e-08
4.93714e-10
3.64962e-08
4.79118e-10
3.63735e-08
4.58962e-10
3.62529e-08
4.44077e-10
3.61369e-08
4.24041e-10
3.60231e-08
4.09451e-10
3.59141e-08
3.8923e-10
3.58071e-08
3.75863e-10
3.57052e-08
3.55588e-10
3.56052e-08
3.43617e-10
3.551e-08
3.24984e-10
3.54165e-08
3.14809e-10
3.53281e-08
2.9734e-10
3.52405e-08
2.90722e-10
3.51579e-08
2.76052e-10
3.50754e-08
2.72957e-10
2.61339e-10
4.31278e-08
3.5643e-10
4.33579e-08
1.03809e-09
4.36816e-08
1.6651e-09
4.40056e-08
2.11765e-09
4.42946e-08
2.38338e-09
4.45619e-08
2.51979e-09
4.48259e-08
2.5915e-09
4.50776e-08
2.61893e-09
4.53e-08
2.59579e-09
4.54828e-08
2.52261e-09
4.56263e-08
2.41301e-09
4.57385e-08
2.28773e-09
4.58286e-08
2.16645e-09
4.59038e-08
2.06001e-09
4.59686e-08
1.97146e-09
4.60256e-08
1.8979e-09
4.60766e-08
1.8364e-09
4.6123e-08
1.78332e-09
4.61657e-08
1.73735e-09
4.62054e-08
1.69608e-09
4.62418e-08
1.65916e-09
4.62751e-08
1.62469e-09
4.63049e-08
1.59288e-09
4.63312e-08
1.56243e-09
4.63537e-08
1.53378e-09
4.63725e-08
1.50626e-09
4.63873e-08
1.48002e-09
4.63981e-08
1.45507e-09
4.6405e-08
1.43087e-09
4.64077e-08
1.40831e-09
4.64065e-08
1.38588e-09
4.64009e-08
1.36546e-09
4.63915e-08
1.34459e-09
4.63777e-08
1.32594e-09
4.636e-08
1.30653e-09
4.63379e-08
1.2892e-09
4.63119e-08
1.27128e-09
4.62817e-08
1.25474e-09
4.62475e-08
1.23837e-09
4.62092e-08
1.22223e-09
4.61669e-08
1.20738e-09
4.61208e-08
1.19145e-09
4.60706e-08
1.17785e-09
4.60169e-08
1.16229e-09
4.59591e-08
1.14935e-09
4.5898e-08
1.13465e-09
4.5833e-08
1.12165e-09
4.57647e-08
1.10823e-09
4.5693e-08
1.09473e-09
4.56179e-08
1.08261e-09
4.55399e-08
1.06871e-09
4.54584e-08
1.05726e-09
4.53743e-08
1.04379e-09
4.52872e-08
1.03187e-09
4.51973e-08
1.01966e-09
4.5105e-08
1.00661e-09
4.50098e-08
9.95772e-10
4.49128e-08
9.81817e-10
4.48129e-08
9.71393e-10
4.47114e-08
9.57797e-10
4.46076e-08
9.46319e-10
4.45021e-08
9.3392e-10
4.43948e-08
9.21137e-10
4.42859e-08
9.09305e-10
4.41755e-08
8.96237e-10
4.40639e-08
8.83376e-10
4.39508e-08
8.71467e-10
4.38371e-08
8.56606e-10
4.37219e-08
8.45443e-10
4.36064e-08
8.29842e-10
4.34899e-08
8.17715e-10
4.33732e-08
8.02499e-10
4.32559e-08
7.88748e-10
4.31386e-08
7.73543e-10
4.30209e-08
7.59437e-10
4.29039e-08
7.42211e-10
4.27864e-08
7.28944e-10
4.267e-08
7.09993e-10
4.25535e-08
6.96074e-10
4.24384e-08
6.76685e-10
4.23235e-08
6.61438e-10
4.22102e-08
6.4167e-10
4.20972e-08
6.26044e-10
4.19868e-08
6.04176e-10
4.18765e-08
5.89432e-10
4.17689e-08
5.66576e-10
4.1662e-08
5.50917e-10
4.1558e-08
5.2802e-10
4.14548e-08
5.12663e-10
4.13549e-08
4.89133e-10
4.12556e-08
4.75135e-10
4.11602e-08
4.50998e-10
4.10655e-08
4.38343e-10
4.09742e-08
4.16258e-10
4.08837e-08
4.0532e-10
4.07974e-08
3.83638e-10
4.07111e-08
3.77036e-10
4.06287e-08
3.58464e-10
4.05463e-08
3.5538e-10
3.39909e-10
4.47078e-08
2.95759e-10
4.48815e-08
8.64384e-10
4.5146e-08
1.40064e-09
4.54347e-08
1.82899e-09
4.57074e-08
2.11065e-09
4.59568e-08
2.27038e-09
4.6195e-08
2.35331e-09
4.64236e-08
2.39032e-09
4.6632e-08
2.38738e-09
4.68105e-08
2.34413e-09
4.69559e-08
2.26761e-09
4.70723e-08
2.17129e-09
4.71672e-08
2.07154e-09
4.72478e-08
1.9795e-09
4.73184e-08
1.90076e-09
4.73823e-08
1.83409e-09
4.74407e-08
1.77792e-09
4.74954e-08
1.72864e-09
4.75471e-08
1.68567e-09
4.75967e-08
1.64647e-09
4.76444e-08
1.61151e-09
4.76904e-08
1.57862e-09
4.77347e-08
1.54864e-09
4.77772e-08
1.51984e-09
4.7818e-08
1.49307e-09
4.78569e-08
1.46734e-09
4.78939e-08
1.44296e-09
4.79291e-08
1.41995e-09
4.79624e-08
1.39755e-09
4.79936e-08
1.3771e-09
4.80231e-08
1.35641e-09
4.80502e-08
1.33827e-09
4.80757e-08
1.31915e-09
4.80987e-08
1.30293e-09
4.81199e-08
1.28533e-09
4.81386e-08
1.27049e-09
4.81553e-08
1.25457e-09
4.81696e-08
1.24048e-09
4.81815e-08
1.22642e-09
4.81912e-08
1.21259e-09
4.81982e-08
1.20037e-09
4.8203e-08
1.1866e-09
4.82049e-08
1.17591e-09
4.82048e-08
1.16248e-09
4.82016e-08
1.1525e-09
4.81961e-08
1.14012e-09
4.81879e-08
1.12989e-09
4.8177e-08
1.11911e-09
4.81637e-08
1.10808e-09
4.81473e-08
1.09895e-09
4.81288e-08
1.08729e-09
4.81072e-08
1.07885e-09
4.80832e-08
1.06778e-09
4.80565e-08
1.05855e-09
4.80271e-08
1.04908e-09
4.79954e-08
1.03826e-09
4.79607e-08
1.03051e-09
4.7924e-08
1.01847e-09
4.78844e-08
1.01105e-09
4.78426e-08
9.99588e-10
4.77983e-08
9.90604e-10
4.77516e-08
9.80602e-10
4.77028e-08
9.69972e-10
4.76516e-08
9.60526e-10
4.75982e-08
9.49621e-10
4.7543e-08
9.38567e-10
4.74852e-08
9.29297e-10
4.74261e-08
9.1568e-10
4.73645e-08
9.07012e-10
4.73016e-08
8.92748e-10
4.72367e-08
8.82659e-10
4.71703e-08
8.6888e-10
4.71023e-08
8.56719e-10
4.70331e-08
8.42735e-10
4.6962e-08
8.30563e-10
4.68906e-08
8.13582e-10
4.68172e-08
8.02358e-10
4.67435e-08
7.83717e-10
4.66684e-08
7.71178e-10
4.6593e-08
7.52093e-10
4.65166e-08
7.37823e-10
4.64401e-08
7.18129e-10
4.63624e-08
7.03803e-10
4.62858e-08
6.80788e-10
4.62078e-08
6.67379e-10
4.61305e-08
6.43926e-10
4.60528e-08
6.28549e-10
4.59761e-08
6.04703e-10
4.58989e-08
5.89904e-10
4.58231e-08
5.64899e-10
4.57466e-08
5.51717e-10
4.56721e-08
5.25476e-10
4.55976e-08
5.12817e-10
4.55242e-08
4.8967e-10
4.54505e-08
4.78986e-10
4.53797e-08
4.5443e-10
4.53084e-08
4.48384e-10
4.52387e-08
4.28152e-10
4.51689e-08
4.25221e-10
4.07538e-10
4.63535e-08
2.4833e-10
4.64896e-08
7.2827e-10
4.67031e-08
1.18717e-09
4.69543e-08
1.57776e-09
4.72055e-08
1.85939e-09
4.74399e-08
2.03599e-09
4.76593e-08
2.13397e-09
4.78679e-08
2.18166e-09
4.80617e-08
2.19357e-09
4.82333e-08
2.17251e-09
4.83782e-08
2.12277e-09
4.84972e-08
2.05223e-09
4.85954e-08
1.97337e-09
4.8679e-08
1.89589e-09
4.87526e-08
1.82716e-09
4.88194e-08
1.76731e-09
4.88809e-08
1.71649e-09
4.89384e-08
1.67108e-09
4.89928e-08
1.6313e-09
4.9045e-08
1.59423e-09
4.90954e-08
1.56117e-09
4.91444e-08
1.52961e-09
4.91919e-08
1.50105e-09
4.92384e-08
1.47342e-09
4.92836e-08
1.44787e-09
4.93276e-08
1.4233e-09
4.93706e-08
1.39993e-09
4.94125e-08
1.37813e-09
4.94535e-08
1.35652e-09
4.94932e-08
1.33736e-09
4.95323e-08
1.31729e-09
4.95701e-08
1.3005e-09
4.96074e-08
1.2819e-09
4.96432e-08
1.26706e-09
4.96785e-08
1.25005e-09
4.97125e-08
1.23651e-09
4.97456e-08
1.22142e-09
4.97777e-08
1.20842e-09
4.98086e-08
1.19553e-09
4.98386e-08
1.18258e-09
4.98671e-08
1.17188e-09
4.98948e-08
1.15885e-09
4.99209e-08
1.14988e-09
4.9946e-08
1.13731e-09
4.99696e-08
1.12893e-09
4.99919e-08
1.11781e-09
5.00129e-08
1.10892e-09
5.00321e-08
1.09984e-09
5.00504e-08
1.08987e-09
5.00665e-08
1.08279e-09
5.00816e-08
1.07222e-09
5.00947e-08
1.06569e-09
5.01063e-08
1.0562e-09
5.01164e-08
1.04844e-09
5.01244e-08
1.0411e-09
5.01313e-08
1.03139e-09
5.01357e-08
1.02609e-09
5.0139e-08
1.01524e-09
5.01401e-08
1.00988e-09
5.01394e-08
1.0003e-09
5.01372e-08
9.92852e-10
5.01327e-08
9.85025e-10
5.01268e-08
9.75953e-10
5.01188e-08
9.68467e-10
5.01088e-08
9.59648e-10
5.00976e-08
9.49752e-10
5.00836e-08
9.43253e-10
5.00686e-08
9.30695e-10
5.00514e-08
9.24215e-10
5.00325e-08
9.11698e-10
5.00119e-08
9.03278e-10
4.99893e-08
8.91475e-10
4.99651e-08
8.80877e-10
4.99396e-08
8.68282e-10
4.99114e-08
8.58749e-10
4.98828e-08
8.42171e-10
4.98519e-08
8.33282e-10
4.98196e-08
8.15988e-10
4.97859e-08
8.04883e-10
4.97507e-08
7.87277e-10
4.97142e-08
7.74276e-10
4.96768e-08
7.55559e-10
4.9637e-08
7.43633e-10
4.95975e-08
7.20282e-10
4.95563e-08
7.08551e-10
4.95137e-08
6.86504e-10
4.94705e-08
6.7176e-10
4.94269e-08
6.48381e-10
4.93818e-08
6.34929e-10
4.93369e-08
6.09872e-10
4.92901e-08
5.98468e-10
4.92435e-08
5.72044e-10
4.91972e-08
5.59123e-10
4.91498e-08
5.37063e-10
4.9101e-08
5.2783e-10
4.90537e-08
5.01727e-10
4.90061e-08
4.9594e-10
4.89578e-08
4.76534e-10
4.8909e-08
4.73985e-10
4.55687e-10
4.80645e-08
2.10385e-10
4.81739e-08
6.18861e-10
4.83473e-08
1.01379e-09
4.85628e-08
1.36221e-09
4.87892e-08
1.63297e-09
4.90076e-08
1.81759e-09
4.92121e-08
1.92953e-09
4.94046e-08
1.98917e-09
4.95846e-08
2.01352e-09
4.9748e-08
2.00909e-09
4.98904e-08
1.98038e-09
5.0011e-08
1.9317e-09
5.0112e-08
1.87229e-09
5.01986e-08
1.80934e-09
5.02748e-08
1.75094e-09
5.0344e-08
1.69807e-09
5.04078e-08
1.65273e-09
5.04675e-08
1.61136e-09
5.05238e-08
1.57507e-09
5.05776e-08
1.54044e-09
5.06292e-08
1.50954e-09
5.06793e-08
1.4795e-09
5.0728e-08
1.45237e-09
5.07754e-08
1.42596e-09
5.08218e-08
1.40146e-09
5.08671e-08
1.37805e-09
5.09116e-08
1.35542e-09
5.0955e-08
1.33477e-09
5.09979e-08
1.31356e-09
5.10397e-08
1.29557e-09
5.10813e-08
1.27566e-09
5.11218e-08
1.26001e-09
5.11622e-08
1.24148e-09
5.12017e-08
1.22765e-09
5.12409e-08
1.21079e-09
5.12794e-08
1.19799e-09
5.13175e-08
1.18334e-09
5.13552e-08
1.17071e-09
5.13921e-08
1.15861e-09
5.1429e-08
1.14575e-09
5.14648e-08
1.13607e-09
5.15006e-08
1.12302e-09
5.15354e-08
1.11509e-09
5.157e-08
1.10275e-09
5.16039e-08
1.09505e-09
5.1637e-08
1.08469e-09
5.16698e-08
1.07604e-09
5.17015e-08
1.06819e-09
5.17331e-08
1.05823e-09
5.17634e-08
1.05253e-09
5.17934e-08
1.04223e-09
5.18225e-08
1.0366e-09
5.18505e-08
1.02817e-09
5.18783e-08
1.02068e-09
5.19044e-08
1.01496e-09
5.19305e-08
1.00533e-09
5.19549e-08
1.00168e-09
5.19787e-08
9.91418e-10
5.20016e-08
9.86914e-10
5.2023e-08
9.7895e-10
5.2044e-08
9.71819e-10
5.20634e-08
9.65685e-10
5.20819e-08
9.57408e-10
5.20994e-08
9.50998e-10
5.21151e-08
9.43956e-10
5.21307e-08
9.34181e-10
5.21439e-08
9.30032e-10
5.21564e-08
9.18131e-10
5.21678e-08
9.12812e-10
5.21774e-08
9.02134e-10
5.21863e-08
8.94386e-10
5.21933e-08
8.84513e-10
5.21991e-08
8.7502e-10
5.22042e-08
8.63224e-10
5.22065e-08
8.56423e-10
5.22087e-08
8.39977e-10
5.22092e-08
8.32777e-10
5.22078e-08
8.17435e-10
5.22056e-08
8.07031e-10
5.22015e-08
7.91407e-10
5.21963e-08
7.79428e-10
5.21902e-08
7.61695e-10
5.21812e-08
7.52605e-10
5.21721e-08
7.29347e-10
5.21621e-08
7.18596e-10
5.21493e-08
6.99352e-10
5.21359e-08
6.85111e-10
5.21215e-08
6.62788e-10
5.21055e-08
6.50947e-10
5.20888e-08
6.26554e-10
5.20701e-08
6.17143e-10
5.205e-08
5.92204e-10
5.20308e-08
5.78254e-10
5.20096e-08
5.58301e-10
5.19858e-08
5.51607e-10
5.19625e-08
5.25078e-10
5.19398e-08
5.18644e-10
5.19146e-08
5.01731e-10
5.18886e-08
4.99926e-10
4.82051e-10
4.98418e-08
1.79519e-10
4.99313e-08
5.29393e-10
5.00741e-08
8.70978e-10
5.02577e-08
1.17866e-09
5.04586e-08
1.43207e-09
5.06593e-08
1.61687e-09
5.08501e-08
1.7387e-09
5.10294e-08
1.80987e-09
5.11973e-08
1.84563e-09
5.13521e-08
1.85429e-09
5.14905e-08
1.84194e-09
5.16111e-08
1.81113e-09
5.17144e-08
1.769e-09
5.18038e-08
1.71998e-09
5.18826e-08
1.67212e-09
5.19542e-08
1.62643e-09
5.20203e-08
1.5867e-09
5.20822e-08
1.54947e-09
5.21404e-08
1.51684e-09
5.21959e-08
1.48495e-09
5.2249e-08
1.45644e-09
5.23003e-08
1.42822e-09
5.235e-08
1.40263e-09
5.23983e-08
1.37764e-09
5.24456e-08
1.35417e-09
5.24916e-08
1.33208e-09
5.25369e-08
1.31007e-09
5.2581e-08
1.29073e-09
5.26248e-08
1.26979e-09
5.26673e-08
1.25307e-09
5.27097e-08
1.23318e-09
5.27511e-08
1.21868e-09
5.27924e-08
1.20013e-09
5.28329e-08
1.18719e-09
5.28732e-08
1.17045e-09
5.29131e-08
1.15816e-09
5.29524e-08
1.14395e-09
5.29918e-08
1.13137e-09
5.30303e-08
1.12004e-09
5.30692e-08
1.10692e-09
5.31071e-08
1.09816e-09
5.31453e-08
1.08482e-09
5.31828e-08
1.07761e-09
5.32202e-08
1.06536e-09
5.32574e-08
1.05782e-09
5.32939e-08
1.04818e-09
5.33308e-08
1.03916e-09
5.33665e-08
1.03243e-09
5.34028e-08
1.02193e-09
5.34381e-08
1.01726e-09
5.34734e-08
1.00691e-09
5.35085e-08
1.00153e-09
5.35427e-08
9.94014e-10
5.35773e-08
9.86048e-10
5.36106e-08
9.81671e-10
5.36443e-08
9.71582e-10
5.36771e-08
9.68947e-10
5.37094e-08
9.59071e-10
5.37419e-08
9.54473e-10
5.37728e-08
9.48036e-10
5.38042e-08
9.40341e-10
5.38344e-08
9.35512e-10
5.38643e-08
9.2755e-10
5.38938e-08
9.21429e-10
5.39219e-08
9.15916e-10
5.39506e-08
9.05494e-10
5.39775e-08
9.03145e-10
5.40039e-08
8.91659e-10
5.40303e-08
8.86454e-10
5.40548e-08
8.77649e-10
5.40795e-08
8.69632e-10
5.41027e-08
8.61388e-10
5.41251e-08
8.52581e-10
5.41474e-08
8.40878e-10
5.41673e-08
8.36543e-10
5.41873e-08
8.19954e-10
5.42066e-08
8.13526e-10
5.42236e-08
8.0042e-10
5.42408e-08
7.89837e-10
5.4256e-08
7.76193e-10
5.42705e-08
7.64902e-10
5.42845e-08
7.47738e-10
5.42957e-08
7.41366e-10
5.43067e-08
7.1842e-10
5.43176e-08
7.07666e-10
5.43251e-08
6.91842e-10
5.43324e-08
6.77821e-10
5.43387e-08
6.56515e-10
5.43434e-08
6.46247e-10
5.43472e-08
6.22703e-10
5.43494e-08
6.14963e-10
5.43491e-08
5.92503e-10
5.43504e-08
5.76925e-10
5.43496e-08
5.59095e-10
5.43457e-08
5.55546e-10
5.43415e-08
5.29319e-10
5.43387e-08
5.21414e-10
5.43329e-08
5.07551e-10
5.4326e-08
5.06805e-10
4.8976e-10
5.16871e-08
1.54081e-10
5.17613e-08
4.55226e-10
5.18806e-08
7.51697e-10
5.20365e-08
1.02278e-09
5.22132e-08
1.25536e-09
5.23953e-08
1.43475e-09
5.25724e-08
1.56159e-09
5.27401e-08
1.64214e-09
5.28975e-08
1.68826e-09
5.3044e-08
1.70782e-09
5.31775e-08
1.70838e-09
5.32968e-08
1.69188e-09
5.34013e-08
1.66448e-09
5.3493e-08
1.62827e-09
5.35744e-08
1.59077e-09
5.36483e-08
1.55244e-09
5.37166e-08
1.51843e-09
5.37807e-08
1.48541e-09
5.3841e-08
1.45651e-09
5.38984e-08
1.42755e-09
5.39532e-08
1.4016e-09
5.4006e-08
1.37546e-09
5.40571e-08
1.35152e-09
5.41066e-08
1.32816e-09
5.4155e-08
1.30573e-09
5.4202e-08
1.28513e-09
5.42483e-08
1.26373e-09
5.42932e-08
1.24583e-09
5.43379e-08
1.22514e-09
5.43811e-08
1.20978e-09
5.44244e-08
1.18993e-09
5.44665e-08
1.1766e-09
5.45085e-08
1.15807e-09
5.45497e-08
1.14599e-09
5.45907e-08
1.12946e-09
5.46313e-08
1.11757e-09
5.46713e-08
1.10393e-09
5.47114e-08
1.09126e-09
5.47507e-08
1.08079e-09
5.47903e-08
1.0673e-09
5.4829e-08
1.05943e-09
5.48681e-08
1.04579e-09
5.49065e-08
1.03915e-09
5.49448e-08
1.02706e-09
5.49832e-08
1.01944e-09
5.50208e-08
1.01062e-09
5.5059e-08
1.00094e-09
5.50961e-08
9.9533e-10
5.51339e-08
9.84146e-10
5.51708e-08
9.80317e-10
5.52078e-08
9.69882e-10
5.52449e-08
9.64464e-10
5.52811e-08
9.5784e-10
5.53181e-08
9.49075e-10
5.53538e-08
9.45915e-10
5.53902e-08
9.35226e-10
5.54259e-08
9.33199e-10
5.54613e-08
9.23732e-10
5.54972e-08
9.18545e-10
5.55316e-08
9.13608e-10
5.5567e-08
9.04923e-10
5.56014e-08
9.01172e-10
5.56356e-08
8.93332e-10
5.567e-08
8.87045e-10
5.5703e-08
8.82865e-10
5.5737e-08
8.71514e-10
5.57696e-08
8.70497e-10
5.5802e-08
8.59332e-10
5.58348e-08
8.5361e-10
5.58658e-08
8.46661e-10
5.58976e-08
8.37824e-10
5.59281e-08
8.30886e-10
5.59582e-08
8.22518e-10
5.59885e-08
8.10523e-10
5.60169e-08
8.08214e-10
5.60455e-08
7.91346e-10
5.60739e-08
7.85081e-10
5.61001e-08
7.74206e-10
5.61271e-08
7.62848e-10
5.61524e-08
7.50954e-10
5.61771e-08
7.4013e-10
5.62017e-08
7.23208e-10
5.62239e-08
7.19101e-10
5.62458e-08
6.96525e-10
5.62683e-08
6.85222e-10
5.62873e-08
6.72775e-10
5.63065e-08
6.58693e-10
5.63248e-08
6.38176e-10
5.63417e-08
6.2935e-10
5.63578e-08
6.06615e-10
5.63727e-08
6.00092e-10
5.63849e-08
5.80277e-10
5.63988e-08
5.62989e-10
5.64109e-08
5.46985e-10
5.64199e-08
5.46528e-10
5.64285e-08
5.20811e-10
5.64387e-08
5.11217e-10
5.64459e-08
5.00254e-10
5.64521e-08
5.00624e-10
4.8438e-10
5.36024e-08
1.32867e-10
5.36646e-08
3.93055e-10
5.37652e-08
6.5108e-10
5.3898e-08
8.89992e-10
5.40527e-08
1.10068e-09
5.42163e-08
1.27106e-09
5.43794e-08
1.39853e-09
5.45362e-08
1.48538e-09
5.46842e-08
1.54024e-09
5.48229e-08
1.56908e-09
5.49512e-08
1.58011e-09
5.50681e-08
1.57503e-09
5.51727e-08
1.55984e-09
5.52661e-08
1.53491e-09
5.53496e-08
1.5072e-09
5.54259e-08
1.47623e-09
5.54963e-08
1.44798e-09
5.55624e-08
1.41926e-09
5.56249e-08
1.39406e-09
5.56843e-08
1.36815e-09
5.57411e-08
1.34484e-09
5.57955e-08
1.32099e-09
5.58483e-08
1.29879e-09
5.58992e-08
1.27724e-09
5.5949e-08
1.2559e-09
5.59972e-08
1.23691e-09
5.60448e-08
1.21615e-09
5.60909e-08
1.19976e-09
5.61366e-08
1.17938e-09
5.6181e-08
1.16542e-09
5.62252e-08