/*--------------------------------*- C++ -*----------------------------------*\
| =========                 |                                                 |
| \\      /  F ield         | OpenFOAM: The Open Source CFD Toolbox           |
|  \\    /   O peration     | Version:  2.3.0                                 |
|   \\  /    A nd           | Web:      www.OpenFOAM.org                      |
|    \\/     M anipulation  |                                                 |
\*---------------------------------------------------------------------------*/
FoamFile
{
    version     2.0;
    format      ascii;
    class       volScalarField;
    location    "0.1";
    object      p;
}
// * * * * * * * * * * * * * * * * * * * * * * * * * * * * * * * * * * * * * //

dimensions      [0 2 -2 0 0 0 0];

internalField   nonuniform List<scalar> 
2945
(
0.00215466
0.00120296
0.00049533
1.74062e-05
-0.00031289
-0.000525391
-0.000640828
-0.000688754
-0.000698654
-0.000691593
-0.000679246
-0.000666658
-0.00065524
-0.000644772
-0.000634413
-0.000623088
-0.000609604
-0.00059271
-0.000571224
-0.000544265
-0.000511463
-0.000473199
-0.000430601
-0.000385862
-0.00034127
-0.000299103
-0.000260823
-0.00022704
-0.000197739
-0.000172566
-0.000151031
-0.000132621
-0.000116854
-0.000103307
-9.16136e-05
-8.14684e-05
-7.26169e-05
-6.4849e-05
-5.79932e-05
-5.19097e-05
-4.64858e-05
-4.16303e-05
-3.72698e-05
-3.33451e-05
-2.98076e-05
-2.66172e-05
-2.374e-05
-2.11467e-05
-1.88114e-05
-1.67111e-05
-1.48246e-05
-1.31325e-05
-1.1617e-05
-1.02615e-05
-9.05064e-06
-7.97039e-06
-7.00773e-06
-6.1508e-06
-5.3886e-06
-4.71129e-06
-4.10967e-06
-3.5756e-06
-3.10142e-06
-2.68037e-06
-2.30614e-06
-1.97304e-06
-1.6759e-06
-1.40992e-06
-1.17074e-06
-9.54293e-07
-7.56812e-07
-5.7468e-07
-4.04453e-07
-2.4213e-07
-8.72329e-08
0.00197563
0.00117757
0.000521673
5.70395e-05
-0.000271829
-0.000488037
-0.000609308
-0.000663327
-0.000678661
-0.00067605
-0.000667157
-0.000657171
-0.000647706
-0.000638732
-0.000629558
-0.000619217
-0.000606584
-0.000590447
-0.000569638
-0.00054326
-0.000510935
-0.000472989
-0.000430751
-0.000386192
-0.000341631
-0.00029943
-0.000261104
-0.000227275
-0.000197931
-0.000172719
-0.000151152
-0.000132715
-0.000116927
-0.000103363
-9.16573e-05
-8.15028e-05
-7.26443e-05
-6.48713e-05
-5.80118e-05
-5.19256e-05
-4.64995e-05
-4.16424e-05
-3.72806e-05
-3.33548e-05
-2.98163e-05
-2.6625e-05
-2.3747e-05
-2.1153e-05
-1.88171e-05
-1.67161e-05
-1.48291e-05
-1.31365e-05
-1.16206e-05
-1.02646e-05
-9.05345e-06
-7.97288e-06
-7.00994e-06
-6.15275e-06
-5.39031e-06
-4.7128e-06
-4.111e-06
-3.57676e-06
-3.10243e-06
-2.68124e-06
-2.30689e-06
-1.97369e-06
-1.67645e-06
-1.41038e-06
-1.17112e-06
-9.54597e-07
-7.57045e-07
-5.74846e-07
-4.04557e-07
-2.42134e-07
-8.73166e-08
0.00179961
0.00113536
0.000539369
9.77595e-05
-0.000222722
-0.000440626
-0.000569633
-0.000633035
-0.00065663
-0.000660178
-0.000655456
-0.000648183
-0.000640514
-0.00063281
-0.000624618
-0.0006151
-0.000603195
-0.000587718
-0.000567507
-0.000541658
-0.00050978
-0.000472137
-0.000429964
-0.000385536
-0.00034133
-0.00029934
-0.00026112
-0.000227343
-0.000198017
-0.000172804
-0.000151225
-0.000132773
-0.00011697
-0.000103392
-9.16756e-05
-8.15127e-05
-7.26483e-05
-6.48714e-05
-5.80093e-05
-5.19217e-05
-4.6495e-05
-4.16376e-05
-3.72759e-05
-3.33503e-05
-2.98122e-05
-2.66213e-05
-2.37436e-05
-2.11499e-05
-1.88144e-05
-1.67137e-05
-1.4827e-05
-1.31347e-05
-1.16189e-05
-1.02632e-05
-9.05222e-06
-7.97181e-06
-7.00902e-06
-6.15196e-06
-5.38964e-06
-4.71223e-06
-4.11052e-06
-3.57636e-06
-3.10211e-06
-2.68098e-06
-2.30668e-06
-1.97353e-06
-1.67634e-06
-1.4103e-06
-1.17108e-06
-9.54595e-07
-7.57083e-07
-5.74928e-07
-4.04694e-07
-2.42327e-07
-8.8077e-08
0.00164376
0.00108726
0.000551622
0.0001383
-0.000168617
-0.000384298
-0.000519208
-0.000591947
-0.000624801
-0.000635936
-0.000636846
-0.000633562
-0.000628688
-0.000622983
-0.000616273
-0.000607905
-0.000596935
-0.000582253
-0.000562749
-0.00053755
-0.000506283
-0.000469263
-0.000427637
-0.000383636
-0.000339977
-0.000298585
-0.000260769
-0.000227241
-0.000198055
-0.000172909
-0.000151351
-0.000132895
-0.000117075
-0.000103475
-9.17367e-05
-8.15543e-05
-7.26738e-05
-6.48843e-05
-5.8013e-05
-5.19189e-05
-4.64879e-05
-4.1628e-05
-3.72651e-05
-3.33391e-05
-2.98011e-05
-2.66107e-05
-2.37338e-05
-2.11409e-05
-1.88062e-05
-1.67064e-05
-1.48204e-05
-1.31288e-05
-1.16138e-05
-1.02587e-05
-9.04827e-06
-7.96837e-06
-7.00602e-06
-6.14937e-06
-5.38741e-06
-4.71031e-06
-4.10888e-06
-3.57498e-06
-3.10094e-06
-2.68001e-06
-2.3059e-06
-1.9729e-06
-1.67585e-06
-1.40995e-06
-1.17086e-06
-9.54501e-07
-7.57115e-07
-5.75102e-07
-4.05043e-07
-2.42938e-07
-8.96929e-08
0.00149822
0.0010327
0.000557412
0.000175137
-0.000115608
-0.000326126
-0.000464409
-0.000544965
-0.000586523
-0.000605332
-0.00061227
-0.000613441
-0.000611781
-0.000608396
-0.000603394
-0.000596328
-0.000586402
-0.000572622
-0.000553971
-0.000529649
-0.000499335
-0.000463384
-0.000422964
-0.000380048
-0.000337324
-0.00029688
-0.000259831
-0.00022682
-0.000197953
-0.000172986
-0.000151514
-0.000133086
-0.00011726
-0.000103637
-9.18678e-05
-8.16542e-05
-7.27449e-05
-6.49309e-05
-5.80398e-05
-5.19305e-05
-4.64884e-05
-4.16209e-05
-3.72531e-05
-3.33243e-05
-2.97851e-05
-2.65945e-05
-2.37181e-05
-2.11261e-05
-1.87926e-05
-1.6694e-05
-1.48093e-05
-1.3119e-05
-1.16051e-05
-1.0251e-05
-9.04152e-06
-7.96248e-06
-7.00089e-06
-6.14492e-06
-5.38357e-06
-4.70701e-06
-4.10607e-06
-3.57258e-06
-3.09893e-06
-2.67834e-06
-2.30453e-06
-1.97181e-06
-1.67502e-06
-1.40935e-06
-1.17048e-06
-9.54328e-07
-7.57159e-07
-5.75384e-07
-4.0561e-07
-2.43988e-07
-9.21527e-08
0.00136514
0.00097532
0.000557013
0.000206138
-6.7529e-05
-0.000271036
-0.000410429
-0.000496898
-0.000545899
-0.000571677
-0.000584309
-0.000589806
-0.000591312
-0.000590217
-0.000586885
-0.00058107
-0.000572144
-0.000559256
-0.000541516
-0.000518229
-0.000489143
-0.000454644
-0.000415874
-0.000374672
-0.000333401
-0.000294187
-0.000258188
-0.000225935
-0.000197567
-0.000172907
-0.000151608
-0.000133261
-0.000117461
-0.000103831
-9.20367e-05
-8.17904e-05
-7.28472e-05
-6.50016e-05
-5.80834e-05
-5.19521e-05
-4.64931e-05
-4.16133e-05
-3.72371e-05
-3.33032e-05
-2.97613e-05
-2.65698e-05
-2.36937e-05
-2.1103e-05
-1.8771e-05
-1.66743e-05
-1.47915e-05
-1.3103e-05
-1.15909e-05
-1.02385e-05
-9.03053e-06
-7.95285e-06
-6.99249e-06
-6.13761e-06
-5.37724e-06
-4.70156e-06
-4.10139e-06
-3.56859e-06
-3.09556e-06
-2.67551e-06
-2.30219e-06
-1.96992e-06
-1.67352e-06
-1.40822e-06
-1.1697e-06
-9.53881e-07
-7.57043e-07
-5.75621e-07
-4.06229e-07
-2.45297e-07
-9.51811e-08
0.0012457
0.000917435
0.000550911
0.000230779
-2.54868e-05
-0.000220756
-0.000359396
-0.000449956
-0.000504998
-0.000536815
-0.000554587
-0.000564102
-0.000568605
-0.000569692
-0.000567945
-0.000563309
-0.000555325
-0.0005433
-0.000526494
-0.000504333
-0.000476645
-0.000443835
-0.000406991
-0.000367815
-0.000328388
-0.000290683
-0.00025589
-0.000224559
-0.00019683
-0.000172586
-0.00015154
-0.000133335
-0.000117602
-0.000103991
-9.21878e-05
-8.19179e-05
-7.29448e-05
-6.50687e-05
-5.81224e-05
-5.19673e-05
-4.64893e-05
-4.15954e-05
-3.72095e-05
-3.32696e-05
-2.97247e-05
-2.65324e-05
-2.3657e-05
-2.10681e-05
-1.87385e-05
-1.66446e-05
-1.47647e-05
-1.3079e-05
-1.15695e-05
-1.02195e-05
-9.01381e-06
-7.93818e-06
-6.97965e-06
-6.12642e-06
-5.36751e-06
-4.69314e-06
-4.09413e-06
-3.56237e-06
-3.09026e-06
-2.67104e-06
-2.29845e-06
-1.96684e-06
-1.67104e-06
-1.40629e-06
-1.16826e-06
-9.5293e-07
-7.56562e-07
-5.75601e-07
-4.06727e-07
-2.467e-07
-9.83486e-08
0.0011389
0.00086024
0.000539856
0.000249362
1.0561e-05
-0.000175663
-0.000312101
-0.000405174
-0.000464947
-0.000501875
-0.000524196
-0.000537379
-0.000544679
-0.000547832
-0.000547596
-0.000544088
-0.000537015
-0.000525847
-0.000509992
-0.000489007
-0.000462797
-0.000431783
-0.000396981
-0.000359945
-0.00032254
-0.000286492
-0.00025304
-0.000222729
-0.000195733
-0.000171986
-0.000151261
-0.000133249
-0.000117623
-0.000104061
-9.22717e-05
-8.19939e-05
-7.30018e-05
-6.51023e-05
-5.81327e-05
-5.19568e-05
-4.64621e-05
-4.15555e-05
-3.71612e-05
-3.32164e-05
-2.96695e-05
-2.64776e-05
-2.36043e-05
-2.10184e-05
-1.86926e-05
-1.66027e-05
-1.47268e-05
-1.3045e-05
-1.15393e-05
-1.01928e-05
-8.9902e-06
-7.91742e-06
-6.96146e-06
-6.11052e-06
-5.35367e-06
-4.68113e-06
-4.08375e-06
-3.55344e-06
-3.08261e-06
-2.66453e-06
-2.29297e-06
-1.96228e-06
-1.6673e-06
-1.40331e-06
-1.16598e-06
-9.51284e-07
-7.55521e-07
-5.75181e-07
-4.07028e-07
-2.48036e-07
-1.01273e-07
0.00104338
0.000804745
0.000524915
0.000262541
4.10291e-05
-0.000135645
-0.000268765
-0.000363015
-0.000426338
-0.000467497
-0.00049378
-0.000510274
-0.000520166
-0.000525276
-0.000526496
-0.000524096
-0.000517935
-0.000507638
-0.00049276
-0.000472978
-0.000448273
-0.000419074
-0.000386329
-0.000351441
-0.000316077
-0.000281793
-0.000249738
-0.000220496
-0.000194291
-0.000171099
-0.000150746
-0.000132974
-0.000117491
-0.000104009
-9.22567e-05
-8.19893e-05
-7.29923e-05
-6.50805e-05
-5.80959e-05
-5.19058e-05
-4.63992e-05
-4.14841e-05
-3.70845e-05
-3.31376e-05
-2.95913e-05
-2.64018e-05
-2.35325e-05
-2.09515e-05
-1.86312e-05
-1.65469e-05
-1.46765e-05
-1.30001e-05
-1.14993e-05
-1.01573e-05
-8.9589e-06
-7.88988e-06
-6.93729e-06
-6.08937e-06
-5.33523e-06
-4.66508e-06
-4.06985e-06
-3.54143e-06
-3.07231e-06
-2.65573e-06
-2.28551e-06
-1.95602e-06
-1.66213e-06
-1.39912e-06
-1.16268e-06
-9.48828e-07
-7.53862e-07
-5.74318e-07
-4.07024e-07
-2.49127e-07
-1.03724e-07
0.000957806
0.00075167
0.000507111
0.000271005
6.64013e-05
-0.000100423
-0.000229354
-0.000323643
-0.000389451
-0.000434016
-0.000463691
-0.000483137
-0.000495415
-0.000502377
-0.000505011
-0.000503715
-0.000498486
-0.000489089
-0.000475215
-0.000456653
-0.000433452
-0.000406047
-0.000375316
-0.000342528
-0.000309171
-0.000276647
-0.000246023
-0.000217892
-0.000192517
-0.000169924
-0.000149987
-0.000132493
-0.000117189
-0.000103816
-9.21242e-05
-8.18869e-05
-7.2901e-05
-6.49895e-05
-5.80003e-05
-5.18043e-05
-4.62926e-05
-4.13744e-05
-3.69741e-05
-3.30288e-05
-2.94862e-05
-2.63022e-05
-2.34395e-05
-2.08657e-05
-1.85528e-05
-1.64759e-05
-1.46127e-05
-1.29431e-05
-1.14486e-05
-1.01124e-05
-8.91921e-06
-7.85492e-06
-6.9066e-06
-6.06249e-06
-5.31175e-06
-4.64464e-06
-4.05211e-06
-3.52609e-06
-3.0591e-06
-2.64443e-06
-2.2759e-06
-1.94793e-06
-1.6554e-06
-1.39361e-06
-1.1583e-06
-9.45482e-07
-7.51496e-07
-5.72911e-07
-4.06615e-07
-2.49877e-07
-1.05624e-07
0.000880929
0.000701413
0.000487306
0.000275414
8.71681e-05
-6.96571e-05
-0.000193725
-0.000287089
-0.000354428
-0.000401625
-0.000434141
-0.000456179
-0.000470631
-0.000479333
-0.000483338
-0.000483144
-0.000478869
-0.000470403
-0.00045756
-0.000440228
-0.000418516
-0.000392862
-0.000364083
-0.000333325
-0.000301915
-0.000271121
-0.000241927
-0.000214931
-0.000190419
-0.000168462
-0.000148979
-0.000131799
-0.000116706
-0.000103469
-9.18625e-05
-8.16755e-05
-7.27176e-05
-6.48204e-05
-5.78381e-05
-5.16455e-05
-4.61364e-05
-4.12214e-05
-3.68258e-05
-3.28868e-05
-2.93519e-05
-2.61767e-05
-2.33233e-05
-2.07592e-05
-1.8456e-05
-1.63885e-05
-1.45343e-05
-1.2873e-05
-1.13863e-05
-1.00572e-05
-8.87046e-06
-7.81198e-06
-6.86887e-06
-6.02942e-06
-5.28285e-06
-4.61945e-06
-4.03022e-06
-3.50714e-06
-3.04276e-06
-2.63041e-06
-2.26396e-06
-1.93783e-06
-1.64696e-06
-1.38667e-06
-1.15272e-06
-9.41157e-07
-7.48346e-07
-5.70895e-07
-4.05743e-07
-2.50235e-07
-1.06978e-07
0.000811611
0.000654131
0.000466214
0.000276398
0.000103813
-4.29966e-05
-0.000161692
-0.000253324
-0.000321344
-0.000370456
-0.000405279
-0.000429549
-0.000445951
-0.000456269
-0.00046159
-0.000462489
-0.000459184
-0.000451675
-0.000439883
-0.000423785
-0.000403541
-0.000379591
-0.000352693
-0.000323885
-0.000294356
-0.000265248
-0.000237475
-0.000211621
-0.000187998
-0.000166709
-0.000147714
-0.000130882
-0.000116031
-0.000102959
-9.14625e-05
-8.13466e-05
-7.24341e-05
-6.4566e-05
-5.76027e-05
-5.14237e-05
-4.59258e-05
-4.10213e-05
-3.66364e-05
-3.27086e-05
-2.91856e-05
-2.60227e-05
-2.31819e-05
-2.06303e-05
-1.83392e-05
-1.62834e-05
-1.44401e-05
-1.2789e-05
-1.13116e-05
-9.99101e-06
-8.81198e-06
-7.76046e-06
-6.82358e-06
-5.98972e-06
-5.24813e-06
-4.58916e-06
-4.00389e-06
-3.48432e-06
-3.02306e-06
-2.61348e-06
-2.2495e-06
-1.92558e-06
-1.63669e-06
-1.37819e-06
-1.14585e-06
-9.35774e-07
-7.44347e-07
-5.68216e-07
-4.04362e-07
-2.50169e-07
-1.0783e-07
0.000748859
0.000609824
0.000444406
0.000274542
0.000116799
-2.00957e-05
-0.000133049
-0.000222285
-0.000290242
-0.000340606
-0.000377224
-0.000403363
-0.000421482
-0.000433279
-0.000439849
-0.000441819
-0.000439489
-0.000432954
-0.000422226
-0.000407358
-0.000388555
-0.000366257
-0.00034117
-0.000314234
-0.000286517
-0.000259051
-0.000232679
-0.000207972
-0.000185255
-0.000164661
-0.000146186
-0.000129735
-0.000115157
-0.000102278
-9.09153e-05
-8.08919e-05
-7.20431e-05
-6.42194e-05
-5.72883e-05
-5.1134e-05
-4.56564e-05
-4.077e-05
-3.64021e-05
-3.24911e-05
-2.89846e-05
-2.5838e-05
-2.30132e-05
-2.04772e-05
-1.8201e-05
-1.61591e-05
-1.43289e-05
-1.26899e-05
-1.12235e-05
-9.91302e-06
-8.74309e-06
-7.69974e-06
-6.7702e-06
-5.94289e-06
-5.20716e-06
-4.55341e-06
-3.97278e-06
-3.45733e-06
-2.99974e-06
-2.59343e-06
-2.23235e-06
-1.91103e-06
-1.62446e-06
-1.36804e-06
-1.1376e-06
-9.29255e-07
-7.39433e-07
-5.64819e-07
-4.02428e-07
-2.49655e-07
-1.08232e-07
0.000691816
0.000568395
0.000422322
0.000270371
0.000126565
-6.20242e-07
-0.000107587
-0.000193889
-0.000261135
-0.000312148
-0.000350072
-0.000377726
-0.000397318
-0.000410446
-0.000418182
-0.000421187
-0.000419826
-0.000414269
-0.000404608
-0.000390962
-0.00037357
-0.000352871
-0.000329524
-0.000304384
-0.000278411
-0.00025254
-0.000227549
-0.000203988
-0.000182192
-0.000162317
-0.000144391
-0.000128351
-0.000114076
-0.000101417
-9.02128e-05
-8.03036e-05
-7.15374e-05
-6.37744e-05
-5.68891e-05
-5.07709e-05
-4.53233e-05
-4.04633e-05
-3.61195e-05
-3.2231e-05
-2.87461e-05
-2.56202e-05
-2.28153e-05
-2.02981e-05
-1.80396e-05
-1.60144e-05
-1.41996e-05
-1.25746e-05
-1.11212e-05
-9.82238e-06
-8.66301e-06
-7.62916e-06
-6.70814e-06
-5.88844e-06
-5.1595e-06
-4.5118e-06
-3.93656e-06
-3.42589e-06
-2.97256e-06
-2.57003e-06
-2.21232e-06
-1.894e-06
-1.61011e-06
-1.35612e-06
-1.12787e-06
-9.21513e-07
-7.33535e-07
-5.60649e-07
-3.999e-07
-2.48672e-07
-1.08237e-07
0.000639749
0.000529688
0.000400289
0.000264343
0.000133521
1.57517e-05
-8.50893e-05
-0.000168033
-0.000234017
-0.000285134
-0.000323908
-0.000352727
-0.000373549
-0.000387846
-0.000396653
-0.000400645
-0.000400231
-0.000395647
-0.000387047
-0.000374605
-0.000358591
-0.000339437
-0.000317762
-0.000294344
-0.00027005
-0.000245726
-0.000222091
-0.000199673
-0.000178808
-0.000159674
-0.000142324
-0.000126723
-0.00011278
-0.000100368
-8.93475e-05
-7.95746e-05
-7.09101e-05
-6.32243e-05
-5.6399e-05
-5.03291e-05
-4.49219e-05
-4.00969e-05
-3.57846e-05
-3.19251e-05
-2.84673e-05
-2.53668e-05
-2.25858e-05
-2.0091e-05
-1.78535e-05
-1.58476e-05
-1.40507e-05
-1.24421e-05
-1.10035e-05
-9.71818e-06
-8.57096e-06
-7.54802e-06
-6.63678e-06
-5.82583e-06
-5.10469e-06
-4.46392e-06
-3.89486e-06
-3.38968e-06
-2.94123e-06
-2.54304e-06
-2.18919e-06
-1.87432e-06
-1.59351e-06
-1.34229e-06
-1.11653e-06
-9.12461e-07
-7.2658e-07
-5.55649e-07
-3.96734e-07
-2.47203e-07
-1.07885e-07
0.000592036
0.000493515
0.000378541
0.000256855
0.000138045
2.93273e-05
-6.53408e-05
-0.000144605
-0.000208862
-0.000259601
-0.0002988
-0.000328448
-0.000350253
-0.000365551
-0.000375322
-0.000380239
-0.000380741
-0.000377111
-0.000369558
-0.000358296
-0.000343621
-0.000325959
-0.000305888
-0.000284121
-0.000261442
-0.000238618
-0.000216313
-0.00019503
-0.000175105
-0.00015673
-0.00013998
-0.000124846
-0.000111262
-9.91237e-05
-8.83115e-05
-7.8697e-05
-7.01539e-05
-6.25624e-05
-5.5812e-05
-4.98031e-05
-4.44472e-05
-3.96666e-05
-3.53937e-05
-3.15701e-05
-2.81451e-05
-2.50751e-05
-2.23224e-05
-1.98539e-05
-1.76407e-05
-1.56573e-05
-1.38809e-05
-1.2291e-05
-1.08694e-05
-9.5995e-06
-8.46612e-06
-7.45561e-06
-6.5555e-06
-5.75449e-06
-5.04222e-06
-4.40935e-06
-3.84731e-06
-3.34838e-06
-2.90548e-06
-2.51222e-06
-2.16277e-06
-1.85181e-06
-1.5745e-06
-1.32642e-06
-1.1035e-06
-9.02007e-07
-7.18494e-07
-5.49759e-07
-3.92889e-07
-2.4523e-07
-1.07207e-07
0.000548144
0.000459681
0.00035724
0.000248239
0.000140483
4.03975e-05
-4.81288e-05
-0.00012348
-0.000185629
-0.000235566
-0.000274802
-0.00030496
-0.000327503
-0.00034363
-0.000354249
-0.000360017
-0.000361391
-0.000358688
-0.000352156
-0.000342045
-0.000328667
-0.00031244
-0.000293908
-0.000273723
-0.000252596
-0.000231225
-0.000210222
-0.000190064
-0.000171083
-0.000153482
-0.000137354
-0.000122713
-0.000109515
-9.76769e-05
-8.70972e-05
-7.76635e-05
-6.92617e-05
-6.17822e-05
-5.5122e-05
-4.91874e-05
-4.38942e-05
-3.91678e-05
-3.49428e-05
-3.11622e-05
-2.77764e-05
-2.47425e-05
-2.20228e-05
-1.95848e-05
-1.73996e-05
-1.54418e-05
-1.36888e-05
-1.21202e-05
-1.07179e-05
-9.46536e-06
-8.34763e-06
-7.35117e-06
-6.46364e-06
-5.67385e-06
-4.9716e-06
-4.34765e-06
-3.79354e-06
-3.30165e-06
-2.86501e-06
-2.47732e-06
-2.13282e-06
-1.82628e-06
-1.55292e-06
-1.30837e-06
-1.08865e-06
-8.90057e-07
-7.092e-07
-5.42919e-07
-3.88322e-07
-2.42736e-07
-1.06223e-07
0.000507617
0.000427988
0.00033649
0.000238772
0.000141144
4.92355e-05
-3.32457e-05
-0.000104528
-0.000164262
-0.000213033
-0.000251955
-0.000282321
-0.000305367
-0.000322144
-0.000333488
-0.000340025
-0.000342216
-0.0003404
-0.000334857
-0.00032586
-0.000313733
-0.000298885
-0.000281826
-0.000263156
-0.00024352
-0.000223555
-0.000203824
-0.000184779
-0.000166745
-0.000149931
-0.000134445
-0.00012032
-0.000107533
-9.60202e-05
-8.56974e-05
-7.64667e-05
-6.82265e-05
-6.08768e-05
-5.43227e-05
-4.84762e-05
-4.32578e-05
-3.8596e-05
-3.44278e-05
-3.06981e-05
-2.73582e-05
-2.4366e-05
-2.16845e-05
-1.92814e-05
-1.71281e-05
-1.51994e-05
-1.34728e-05
-1.19283e-05
-1.05477e-05
-9.31475e-06
-8.21462e-06
-7.23393e-06
-6.36051e-06
-5.58332e-06
-4.8923e-06
-4.27834e-06
-3.73312e-06
-3.24914e-06
-2.81952e-06
-2.43807e-06
-2.09912e-06
-1.79753e-06
-1.52859e-06
-1.28802e-06
-1.07187e-06
-8.76513e-07
-6.98619e-07
-5.35069e-07
-3.82992e-07
-2.39701e-07
-1.04946e-07
0.000470064
0.00039825
0.000316353
0.000228678
0.000140301
5.60947e-05
-2.04905e-05
-8.76159e-05
-0.000144695
-0.000191992
-0.000230285
-0.000260581
-0.0002839
-0.000301153
-0.000313092
-0.000320307
-0.000323251
-0.000322275
-0.000317679
-0.000309753
-0.000298827
-0.000285299
-0.00026965
-0.000252428
-0.000234224
-0.000215617
-0.000197128
-0.000179181
-0.000162093
-0.000146075
-0.000131248
-0.000117662
-0.00010531
-9.41472e-05
-8.41049e-05
-7.50995e-05
-6.70412e-05
-5.98398e-05
-5.3408e-05
-4.7664e-05
-4.25327e-05
-3.79464e-05
-3.38446e-05
-3.01738e-05
-2.6887e-05
-2.39428e-05
-2.13049e-05
-1.89414e-05
-1.68243e-05
-1.49284e-05
-1.32316e-05
-1.1714e-05
-1.03577e-05
-9.14665e-06
-8.06618e-06
-7.1031e-06
-6.24542e-06
-5.48228e-06
-4.80378e-06
-4.20097e-06
-3.66567e-06
-3.19049e-06
-2.7687e-06
-2.39421e-06
-2.06145e-06
-1.76537e-06
-1.50136e-06
-1.2652e-06
-1.05302e-06
-8.61275e-07
-6.8667e-07
-5.26145e-07
-3.76855e-07
-2.36108e-07
-1.03385e-07
0.000435147
0.000370288
0.000296858
0.000218138
0.000138196
6.12086e-05
-9.67113e-06
-7.26082e-05
-0.000126853
-0.000172418
-0.000209807
-0.000239777
-0.000263152
-0.000280707
-0.000293109
-0.000300904
-0.000304528
-0.000304337
-0.000300639
-0.000293735
-0.000283957
-0.00027169
-0.000257384
-0.000241547
-0.000224716
-0.000207421
-0.000190141
-0.000173276
-0.00015713
-0.000141916
-0.000127763
-0.000114735
-0.000102841
-9.20517e-05
-8.23131e-05
-7.35551e-05
-6.56992e-05
-5.86646e-05
-5.23718e-05
-4.6745e-05
-4.17139e-05
-3.72145e-05
-3.31889e-05
-2.95858e-05
-2.63596e-05
-2.34699e-05
-2.08814e-05
-1.85627e-05
-1.64861e-05
-1.4627e-05
-1.29635e-05
-1.14759e-05
-1.01467e-05
-8.96e-06
-7.90137e-06
-6.95784e-06
-6.11765e-06
-5.37011e-06
-4.7055e-06
-4.11506e-06
-3.59075e-06
-3.12534e-06
-2.71224e-06
-2.34546e-06
-2.01956e-06
-1.7296e-06
-1.47104e-06
-1.23977e-06
-1.032e-06
-8.4424e-07
-6.73271e-07
-5.16085e-07
-3.69868e-07
-2.31935e-07
-1.01541e-07
0.00040257
0.000343937
0.000278013
0.000207294
0.000135036
6.47893e-05
-6.05079e-07
-5.93702e-05
-0.000110653
-0.000154278
-0.000190524
-0.000219935
-0.000243162
-0.00026085
-0.000273582
-0.000281854
-0.00028608
-0.000286609
-0.000283753
-0.000277818
-0.000269131
-0.000258063
-0.000245037
-0.000230521
-0.000215005
-0.000198975
-0.000182871
-0.000167068
-0.000151859
-0.000137453
-0.000123988
-0.000111536
-0.000100121
-8.97279e-05
-8.03157e-05
-7.18268e-05
-6.41938e-05
-5.73448e-05
-5.12079e-05
-4.57135e-05
-4.07961e-05
-3.63954e-05
-3.24565e-05
-2.89302e-05
-2.57726e-05
-2.29445e-05
-2.04115e-05
-1.81429e-05
-1.61116e-05
-1.42935e-05
-1.26669e-05
-1.12127e-05
-9.91352e-06
-8.75373e-06
-7.71925e-06
-6.79735e-06
-5.97646e-06
-5.24615e-06
-4.5969e-06
-4.02011e-06
-3.50794e-06
-3.05332e-06
-2.6498e-06
-2.29154e-06
-1.97322e-06
-1.69e-06
-1.43747e-06
-1.21159e-06
-1.00867e-06
-8.25305e-07
-6.58339e-07
-5.04825e-07
-3.61989e-07
-2.27163e-07
-9.94105e-08
0.000372075
0.000319047
0.000259809
0.000196259
0.000130998
6.70288e-05
6.87948e-06
-4.77682e-05
-9.60084e-05
-0.000137527
-0.000172427
-0.000201073
-0.000223961
-0.00024162
-0.000254549
-0.000263192
-0.000267935
-0.000269115
-0.000267041
-0.000262015
-0.000254359
-0.000244428
-0.000232617
-0.000219358
-0.000205101
-0.000190288
-0.000175327
-0.000160566
-0.000146285
-0.00013269
-0.000119923
-0.000108063
-9.71468e-05
-8.71708e-05
-7.81069e-05
-6.99087e-05
-6.25188e-05
-5.58743e-05
-4.99106e-05
-4.45641e-05
-3.97742e-05
-3.54845e-05
-3.16432e-05
-2.82032e-05
-2.51225e-05
-2.23633e-05
-1.98923e-05
-1.76796e-05
-1.56986e-05
-1.39259e-05
-1.23403e-05
-1.09229e-05
-9.6568e-06
-8.52672e-06
-7.51885e-06
-6.62075e-06
-5.82113e-06
-5.10977e-06
-4.4774e-06
-3.91562e-06
-3.41681e-06
-2.97405e-06
-2.58106e-06
-2.23216e-06
-1.92217e-06
-1.64636e-06
-1.40045e-06
-1.1805e-06
-9.82911e-07
-8.04364e-07
-6.41789e-07
-4.923e-07
-3.53174e-07
-2.2177e-07
-9.69862e-08
0.000343437
0.000295476
0.000242223
0.000185116
0.00012623
6.80953e-05
1.2939e-05
-3.76762e-05
-8.28311e-05
-0.000122116
-0.000155498
-0.000183195
-0.00020557
-0.000223044
-0.000236037
-0.000244943
-0.000250114
-0.000251871
-0.000250511
-0.000246333
-0.000239645
-0.000230786
-0.000220126
-0.000208063
-0.000195008
-0.000181367
-0.000167513
-0.000153772
-0.00014041
-0.000127627
-0.000115566
-0.000104314
-9.3914e-05
-8.43758e-05
-7.56814e-05
-6.77949e-05
-6.06684e-05
-5.42474e-05
-4.84743e-05
-4.32916e-05
-3.86435e-05
-3.44775e-05
-3.07449e-05
-2.74012e-05
-2.44061e-05
-2.17237e-05
-1.93214e-05
-1.71705e-05
-1.52452e-05
-1.35225e-05
-1.1982e-05
-1.06051e-05
-9.37539e-06
-8.27792e-06
-7.29925e-06
-6.42725e-06
-5.65092e-06
-4.96032e-06
-4.34644e-06
-3.80112e-06
-3.31692e-06
-2.88715e-06
-2.5057e-06
-2.16705e-06
-1.86617e-06
-1.59848e-06
-1.35981e-06
-1.14635e-06
-9.5459e-07
-7.81316e-07
-6.23539e-07
-4.7845e-07
-3.43381e-07
-2.15735e-07
-9.42551e-08
0.000316453
0.0002731
0.000225232
0.000173937
0.000120868
6.81498e-05
1.77286e-05
-2.89652e-05
-7.10282e-05
-0.000107991
-0.000139718
-0.000166308
-0.000188013
-0.000205158
-0.00021809
-0.00022715
-0.000232657
-0.00023491
-0.000234194
-0.000230794
-0.000225009
-0.000217156
-0.000207581
-0.000196651
-0.000184742
-0.000172225
-0.000159443
-0.000146698
-0.000134242
-0.000122269
-0.000110919
-0.000100286
-9.04197e-05
-8.13382e-05
-7.30335e-05
-6.54791e-05
-5.8636e-05
-5.24574e-05
-4.68926e-05
-4.18898e-05
-3.73981e-05
-3.3369e-05
-2.97568e-05
-2.65198e-05
-2.36197e-05
-2.1022e-05
-1.86957e-05
-1.6613e-05
-1.4749e-05
-1.30814e-05
-1.15903e-05
-1.02579e-05
-9.06796e-06
-8.00617e-06
-7.05942e-06
-6.21594e-06
-5.46506e-06
-4.79714e-06
-4.20345e-06
-3.67608e-06
-3.20784e-06
-2.79224e-06
-2.42338e-06
-2.09592e-06
-1.80498e-06
-1.54615e-06
-1.31537e-06
-1.10898e-06
-9.23577e-07
-7.56049e-07
-6.035e-07
-4.63206e-07
-3.32564e-07
-2.09037e-07
-9.11903e-08
0.000290924
0.000251772
0.000208769
0.000162738
0.000114993
6.73125e-05
2.1384e-05
-2.15012e-05
-6.04791e-05
-9.50499e-05
-0.000125004
-0.000150349
-0.000171242
-0.000187925
-0.000200676
-0.000209787
-0.000215541
-0.000218212
-0.000218068
-0.000215381
-0.000210433
-0.000203523
-0.000194971
-0.000185115
-0.000174299
-0.000162861
-0.000151117
-0.000139346
-0.000127784
-0.000116617
-0.000105985
-9.59823e-05
-8.66649e-05
-7.80583e-05
-7.01628e-05
-6.29603e-05
-5.642e-05
-5.05023e-05
-4.51631e-05
-4.03563e-05
-3.60356e-05
-3.21564e-05
-2.86766e-05
-2.55568e-05
-2.2761e-05
-2.02564e-05
-1.80134e-05
-1.60054e-05
-1.42084e-05
-1.26009e-05
-1.11639e-05
-9.87986e-06
-8.73339e-06
-7.71047e-06
-6.79848e-06
-5.98604e-06
-5.26285e-06
-4.61961e-06
-4.04788e-06
-3.54003e-06
-3.08915e-06
-2.68896e-06
-2.3338e-06
-2.01849e-06
-1.73837e-06
-1.48915e-06
-1.26697e-06
-1.06825e-06
-8.89758e-07
-7.2847e-07
-5.816e-07
-4.46513e-07
-3.20687e-07
-2.01667e-07
-8.77551e-08
0.000254403
0.000221067
0.000184714
0.000145871
0.00010545
6.47923e-05
2.52412e-05
-1.21177e-05
-4.65017e-05
-7.74004e-05
-0.000104533
-0.000127805
-0.000147261
-0.000163034
-0.000175318
-0.000184329
-0.0001903
-0.000193464
-0.000194061
-0.000192335
-0.000188542
-0.000182949
-0.000175841
-0.000167512
-0.000158261
-0.000148381
-0.000138147
-0.000127807
-0.000117573
-0.000107617
-9.80731e-05
-8.9037e-05
-8.05709e-05
-7.27087e-05
-6.54613e-05
-5.88217e-05
-5.27698e-05
-4.72764e-05
-4.23065e-05
-3.7822e-05
-3.37839e-05
-3.01532e-05
-2.68929e-05
-2.39678e-05
-2.13451e-05
-1.89951e-05
-1.68902e-05
-1.50059e-05
-1.33197e-05
-1.18116e-05
-1.04636e-05
-9.25943e-06
-8.1844e-06
-7.22538e-06
-6.37048e-06
-5.60901e-06
-4.93126e-06
-4.32848e-06
-3.79277e-06
-3.31693e-06
-2.8945e-06
-2.51958e-06
-2.18685e-06
-1.89147e-06
-1.62906e-06
-1.39561e-06
-1.18749e-06
-1.00136e-06
-8.34175e-07
-6.83109e-07
-5.45539e-07
-4.18983e-07
-3.0106e-07
-1.89469e-07
-8.20395e-08
0.000209134
0.000182518
0.000153716
0.00012302
9.09967e-05
5.85757e-05
2.6736e-05
-3.68872e-06
-3.20557e-05
-5.7903e-05
-8.09307e-05
-0.00010098
-0.000118007
-0.000132054
-0.000143222
-0.000151652
-0.000157509
-0.000160973
-0.000162236
-0.000161501
-0.00015898
-0.000154898
-0.000149489
-0.000142994
-0.000135657
-0.000127715
-0.000119395
-0.000110903
-0.000102417
-9.40882e-05
-8.60373e-05
-7.83549e-05
-7.11046e-05
-6.43262e-05
-5.80397e-05
-5.22487e-05
-4.69446e-05
-4.21096e-05
-3.77193e-05
-3.37457e-05
-3.01586e-05
-2.6927e-05
-2.40205e-05
-2.14099e-05
-1.90674e-05
-1.69672e-05
-1.50857e-05
-1.34011e-05
-1.18938e-05
-1.05458e-05
-9.34119e-06
-8.26526e-06
-7.30497e-06
-6.44849e-06
-5.68516e-06
-5.00536e-06
-4.40041e-06
-3.86244e-06
-3.38437e-06
-2.95979e-06
-2.58287e-06
-2.24837e-06
-1.95153e-06
-1.68802e-06
-1.45393e-06
-1.24568e-06
-1.06003e-06
-8.94005e-07
-7.44877e-07
-6.10124e-07
-4.87394e-07
-3.7446e-07
-2.69173e-07
-1.69452e-07
-7.31352e-08
0.000164273
0.00014395
0.00012212
9.89165e-05
7.46746e-05
5.00088e-05
2.55957e-05
2.0352e-06
-2.01844e-05
-4.0685e-05
-5.91937e-05
-7.55358e-05
-8.96225e-05
-0.000101436
-0.000111012
-0.000118427
-0.000123787
-0.000127218
-0.000128861
-0.000128873
-0.000127419
-0.000124674
-0.000120822
-0.000116051
-0.000110551
-0.000104505
-9.80927e-05
-9.14751e-05
-8.47975e-05
-7.81841e-05
-7.1737e-05
-6.55364e-05
-5.96418e-05
-5.40938e-05
-4.89167e-05
-4.41214e-05
-3.97074e-05
-3.56663e-05
-3.1983e-05
-2.86387e-05
-2.56114e-05
-2.28782e-05
-2.04157e-05
-1.82008e-05
-1.62114e-05
-1.44265e-05
-1.28267e-05
-1.13939e-05
-1.01117e-05
-8.96508e-06
-7.94037e-06
-7.02526e-06
-6.2086e-06
-5.48032e-06
-4.83134e-06
-4.25345e-06
-3.73924e-06
-3.28202e-06
-2.87575e-06
-2.51496e-06
-2.1947e-06
-1.9105e-06
-1.65831e-06
-1.43445e-06
-1.2356e-06
-1.05871e-06
-9.01022e-07
-7.60012e-07
-6.33358e-07
-5.18913e-07
-4.14671e-07
-3.1873e-07
-2.29246e-07
-1.44429e-07
-6.23506e-08
0.000119326
0.000104912
8.95202e-05
7.32014e-05
5.61387e-05
3.87149e-05
2.13674e-05
4.49613e-06
-1.156e-05
-2.65238e-05
-4.01807e-05
-5.2378e-05
-6.30219e-05
-7.20695e-05
-7.95201e-05
-8.54069e-05
-8.97894e-05
-9.27473e-05
-9.4376e-05
-9.47832e-05
-9.40867e-05
-9.24122e-05
-8.98913e-05
-8.66593e-05
-8.2852e-05
-7.86033e-05
-7.40411e-05
-6.92844e-05
-6.44405e-05
-5.96032e-05
-5.48513e-05
-5.02487e-05
-4.58443e-05
-4.16739e-05
-3.77608e-05
-3.4118e-05
-3.07499e-05
-2.7654e-05
-2.48226e-05
-2.22442e-05
-1.99044e-05
-1.77876e-05
-1.58774e-05
-1.41571e-05
-1.26105e-05
-1.12221e-05
-9.97711e-06
-8.8619e-06
-7.86384e-06
-6.97133e-06
-6.17383e-06
-5.46176e-06
-4.82641e-06
-4.25994e-06
-3.75524e-06
-3.30591e-06
-2.90616e-06
-2.55077e-06
-2.23501e-06
-1.95461e-06
-1.70574e-06
-1.4849e-06
-1.28893e-06
-1.11499e-06
-9.60473e-07
-8.23024e-07
-7.00494e-07
-5.90918e-07
-4.92492e-07
-4.03544e-07
-3.22511e-07
-2.47908e-07
-1.78297e-07
-1.12285e-07
-4.83961e-08
7.33579e-05
6.46665e-05
5.54318e-05
4.56636e-05
3.54498e-05
2.49984e-05
1.45533e-05
4.34163e-06
-5.43904e-06
-1.46213e-05
-2.30695e-05
-3.06816e-05
-3.73884e-05
-4.31511e-05
-4.79572e-05
-5.18162e-05
-5.47556e-05
-5.6817e-05
-5.80536e-05
-5.85278e-05
-5.83087e-05
-5.74714e-05
-5.60947e-05
-5.426e-05
-5.20492e-05
-4.95432e-05
-4.682e-05
-4.39524e-05
-4.10073e-05
-3.80433e-05
-3.51111e-05
-3.22523e-05
-2.95001e-05
-2.68793e-05
-2.44074e-05
-2.20952e-05
-1.9948e-05
-1.79665e-05
-1.61478e-05
-1.44864e-05
-1.29746e-05
-1.16037e-05
-1.0364e-05
-9.24562e-06
-8.23877e-06
-7.33382e-06
-6.52163e-06
-5.79357e-06
-5.14162e-06
-4.55838e-06
-4.03706e-06
-3.57149e-06
-3.15602e-06
-2.78556e-06
-2.45549e-06
-2.16162e-06
-1.90018e-06
-1.66776e-06
-1.46127e-06
-1.27791e-06
-1.11518e-06
-9.70797e-07
-8.42687e-07
-7.28984e-07
-6.27991e-07
-5.38165e-07
-4.581e-07
-3.86511e-07
-3.22217e-07
-2.64122e-07
-2.11205e-07
-1.62495e-07
-1.17048e-07
-7.39435e-08
-3.21043e-08
2.48564e-05
2.18957e-05
1.87639e-05
1.54604e-05
1.20115e-05
8.48358e-06
4.9559e-06
1.50251e-06
-1.81142e-06
-4.92982e-06
-7.80647e-06
-1.04057e-05
-1.27026e-05
-1.46825e-05
-1.63394e-05
-1.76754e-05
-1.86986e-05
-1.94225e-05
-1.98646e-05
-2.0046e-05
-1.99899e-05
-1.97217e-05
-1.92682e-05
-1.86567e-05
-1.7915e-05
-1.70703e-05
-1.6149e-05