/*--------------------------------*- C++ -*----------------------------------*\
| =========                 |                                                 |
| \\      /  F ield         | OpenFOAM: The Open Source CFD Toolbox           |
|  \\    /   O peration     | Version:  2.3.0                                 |
|   \\  /    A nd           | Web:      www.OpenFOAM.org                      |
|    \\/     M anipulation  |                                                 |
\*---------------------------------------------------------------------------*/
FoamFile
{
    version     2.0;
    format      ascii;
    class       surfaceScalarField;
    location    "0.1";
    object      phi;
}
// * * * * * * * * * * * * * * * * * * * * * * * * * * * * * * * * * * * * * //

dimensions      [0 3 -1 0 0 0 0];

internalField   nonuniform List<scalar> 
5764
(
1.94433e-08
4.29379e-09
-2.3737e-08
1.56689e-08
3.77433e-09
1.25761e-08
3.09285e-09
1.01523e-08
2.42378e-09
8.33453e-09
1.81776e-09
7.02091e-09
1.31362e-09
6.09318e-09
9.27729e-10
5.44036e-09
6.52825e-10
4.9728e-09
4.67554e-10
4.62603e-09
3.46767e-10
4.35776e-09
2.68273e-10
4.1421e-09
2.15664e-10
3.96383e-09
1.78272e-10
3.81407e-09
1.49761e-10
3.68753e-09
1.26533e-10
3.58103e-09
1.06505e-10
3.49266e-09
8.83721e-11
3.42139e-09
7.12604e-11
3.36675e-09
5.46457e-11
3.32843e-09
3.83219e-11
3.30632e-09
2.21101e-11
3.30001e-09
6.3101e-12
3.30563e-09
-5.62303e-12
3.31817e-09
-1.25371e-11
3.33418e-09
-1.6016e-11
3.35114e-09
-1.69576e-11
3.36734e-09
-1.61992e-11
3.38187e-09
-1.45331e-11
3.3944e-09
-1.25312e-11
3.40494e-09
-1.05329e-11
3.41365e-09
-8.7104e-12
3.42078e-09
-7.13288e-12
3.42659e-09
-5.81218e-12
3.43132e-09
-4.73116e-12
3.43518e-09
-3.86037e-12
3.43835e-09
-3.16701e-12
3.44097e-09
-2.61935e-12
3.44316e-09
-2.18886e-12
3.44501e-09
-1.85092e-12
3.4466e-09
-1.58489e-12
3.44797e-09
-1.37388e-12
3.44917e-09
-1.20443e-12
3.45024e-09
-1.066e-12
3.45119e-09
-9.50651e-13
3.45204e-09
-8.52461e-13
3.45281e-09
-7.67164e-13
3.4535e-09
-6.91767e-13
3.45413e-09
-6.24213e-13
3.45469e-09
-5.63129e-13
3.4552e-09
-5.07578e-13
3.45565e-09
-4.56916e-13
3.45606e-09
-4.10688e-13
3.45643e-09
-3.68525e-13
3.45676e-09
-3.30127e-13
3.45706e-09
-2.95212e-13
3.45732e-09
-2.63512e-13
3.45756e-09
-2.3479e-13
3.45777e-09
-2.08787e-13
3.45795e-09
-1.85287e-13
3.45811e-09
-1.64053e-13
3.45826e-09
-1.44886e-13
3.45839e-09
-1.27583e-13
3.4585e-09
-1.11956e-13
3.4586e-09
-9.78389e-14
3.45868e-09
-8.50599e-14
3.45876e-09
-7.34714e-14
3.45882e-09
-6.29219e-14
3.45887e-09
-5.32688e-14
3.45892e-09
-4.43708e-14
3.45895e-09
-3.60748e-14
3.45898e-09
-2.82103e-14
3.459e-09
-2.05491e-14
3.45901e-09
-1.28356e-14
3.45902e-09
-5.72146e-15
1.99613e-14
2.58395e-08
5.20652e-09
-2.67522e-08
2.44141e-08
5.19965e-09
2.27819e-08
4.72509e-09
2.11223e-08
4.08341e-09
1.95438e-08
3.3962e-09
1.81067e-08
2.75079e-09
1.68338e-08
2.20057e-09
1.57254e-08
1.76123e-09
1.47697e-08
1.42328e-09
1.39498e-08
1.16668e-09
1.32477e-08
9.70351e-10
1.26466e-08
8.16703e-10
1.21322e-08
6.92752e-10
1.16925e-08
5.89448e-10
1.13185e-08
5.00524e-10
1.10035e-08
4.21522e-10
1.07426e-08
3.49202e-10
1.05326e-08
2.81342e-10
1.03704e-08
2.16755e-10
1.02534e-08
1.55363e-10
1.01775e-08
9.80125e-11
1.01385e-08
4.53596e-11
1.01313e-08
1.50453e-12
1.01464e-08
-2.75963e-11
1.0173e-08
-4.26802e-11
1.02046e-08
-4.85061e-11
1.02367e-08
-4.8285e-11
1.02667e-08
-4.458e-11
1.02935e-08
-3.92546e-11
1.03164e-08
-3.34959e-11
1.03357e-08
-2.79776e-11
1.03516e-08
-2.30324e-11
1.03646e-08
-1.87852e-11
1.03751e-08
-1.52434e-11
1.03836e-08
-1.23533e-11
1.03904e-08
-1.00342e-11
1.0396e-08
-8.19733e-12
1.04006e-08
-6.75611e-12
1.04044e-08
-5.63188e-12
1.04075e-08
-4.75622e-12
1.04102e-08
-4.07167e-12
1.04126e-08
-3.53151e-12
1.04146e-08
-3.09884e-12
1.04164e-08
-2.74539e-12
1.0418e-08
-2.4501e-12
1.04194e-08
-2.19774e-12
1.04207e-08
-1.97759e-12
1.04219e-08
-1.7823e-12
1.04229e-08
-1.60693e-12
1.04238e-08
-1.4482e-12
1.04247e-08
-1.30388e-12
1.04254e-08
-1.1724e-12
1.04261e-08
-1.05259e-12
1.04267e-08
-9.43489e-13
1.04273e-08
-8.4427e-13
1.04278e-08
-7.54151e-13
1.04282e-08
-6.72421e-13
1.04286e-08
-5.98378e-13
1.0429e-08
-5.31374e-13
1.04293e-08
-4.70775e-13
1.04295e-08
-4.15994e-13
1.04298e-08
-3.66475e-13
1.043e-08
-3.21691e-13
1.04302e-08
-2.81159e-13
1.04303e-08
-2.44412e-13
1.04305e-08
-2.11015e-13
1.04306e-08
-1.80551e-13
1.04307e-08
-1.52609e-13
1.04308e-08
-1.26788e-13
1.04308e-08
-1.02656e-13
1.04309e-08
-7.9726e-14
1.04309e-08
-5.73559e-14
1.04309e-08
-3.4764e-14
1.04309e-08
-1.04775e-14
4.51836e-14
2.81237e-08
5.1803e-09
-2.80975e-08
2.78304e-08
5.49294e-09
2.7268e-08
5.2875e-09
2.65182e-08
4.83322e-09
2.56565e-08
4.25795e-09
2.47475e-08
3.65976e-09
2.38385e-08
3.10958e-09
2.29595e-08
2.64023e-09
2.21278e-08
2.25499e-09
2.13524e-08
1.94214e-09
2.06371e-08
1.68563e-09
1.99831e-08
1.47064e-09
1.93904e-08
1.28545e-09
1.88584e-08
1.12145e-09
1.83866e-08
9.72334e-10
1.79747e-08
8.33429e-10
1.76225e-08
7.01385e-10
1.73297e-08
5.74185e-10
1.70951e-08
4.51363e-10
1.69163e-08
3.34145e-10
1.67889e-08
2.25406e-10
1.67052e-08
1.29015e-10
1.66592e-08
4.75714e-11
1.66459e-08
-1.42689e-11
1.66561e-08
-5.29791e-11
1.66802e-08
-7.258e-11
1.67111e-08
-7.9186e-11
1.67441e-08
-7.75863e-11
1.67762e-08
-7.13587e-11
1.68057e-08
-6.29655e-11
1.68317e-08
-5.39719e-11
1.6854e-08
-4.52974e-11
1.68726e-08
-3.74301e-11
1.68879e-08
-3.05831e-11
1.69004e-08
-2.48029e-11
1.69104e-08
-2.0039e-11
1.69184e-08
-1.61895e-11
1.69248e-08
-1.31292e-11
1.69299e-08
-1.07276e-11
1.6934e-08
-8.85998e-12
1.69373e-08
-7.41427e-12
1.69401e-08
-6.29396e-12
1.69424e-08
-5.4193e-12
1.69444e-08
-4.72682e-12
1.69461e-08
-4.16767e-12
1.69476e-08
-3.70551e-12
1.69489e-08
-3.31414e-12
1.69501e-08
-2.97527e-12
1.69512e-08
-2.67644e-12
1.69522e-08
-2.40935e-12
1.6953e-08
-2.16847e-12
1.69538e-08
-1.9501e-12
1.69545e-08
-1.75162e-12
1.69551e-08
-1.57108e-12
1.69557e-08
-1.40692e-12
1.69562e-08
-1.25774e-12
1.69566e-08
-1.12234e-12
1.6957e-08
-9.99536e-13
1.69574e-08
-8.88262e-13
1.69577e-08
-7.87486e-13
1.6958e-08
-6.9624e-13
1.69582e-08
-6.13622e-13
1.69585e-08
-5.38768e-13
1.69587e-08
-4.70885e-13
1.69588e-08
-4.09209e-13
1.6959e-08
-3.53021e-13
1.69591e-08
-3.01633e-13
1.69592e-08
-2.54367e-13
1.69593e-08
-2.10553e-13
1.69593e-08
-1.69478e-13
1.69594e-08
-1.30337e-13
1.69594e-08
-9.20825e-14
1.69594e-08
-5.32983e-14
1.69594e-08
-9.41212e-15
7.23003e-14
2.9395e-08
4.91167e-09
-2.91264e-08
2.95309e-08
5.35705e-09
2.94924e-08
5.32603e-09
2.92901e-08
5.03552e-09
2.89506e-08
4.59743e-09
2.85112e-08
4.09923e-09
2.80088e-08
3.61191e-09
2.74737e-08
3.17534e-09
2.69276e-08
2.8011e-09
2.63855e-08
2.48429e-09
2.58574e-08
2.21365e-09
2.53508e-08
1.9773e-09
2.4871e-08
1.76521e-09
2.44229e-08
1.56955e-09
2.40108e-08
1.38443e-09
2.36387e-08
1.20554e-09
2.33101e-08
1.03e-09
2.30276e-08
8.56641e-10
2.27927e-08
6.86295e-10
2.26049e-08
5.21954e-10
2.24617e-08
3.68572e-10
2.23584e-08
2.32345e-10
2.22874e-08
1.18592e-10
2.22444e-08
2.87592e-11
2.22268e-08
-3.53826e-11
2.22283e-08
-7.41625e-11
2.22428e-08
-9.36376e-11
2.2265e-08
-9.97853e-11
2.2291e-08
-9.7381e-11
2.2318e-08
-8.99725e-11
2.23441e-08
-8.0041e-11
2.2368e-08
-6.92334e-11
2.23892e-08
-5.85881e-11
2.24073e-08
-4.87191e-11
2.24225e-08
-3.995e-11
2.24348e-08
-3.24102e-11
2.24448e-08
-2.61011e-11
2.24526e-08
-2.0944e-11
2.24587e-08
-1.68131e-11
2.24634e-08
-1.35607e-11
2.2467e-08
-1.10348e-11
2.24698e-08
-9.09113e-12
2.2472e-08
-7.60095e-12
2.24737e-08
-6.45499e-12
2.24751e-08
-5.5645e-12
2.24762e-08
-4.86024e-12
2.24772e-08
-4.29023e-12
2.2478e-08
-3.81681e-12
2.24788e-08
-3.41358e-12
2.24794e-08
-3.06257e-12
2.248e-08
-2.75183e-12
2.24805e-08
-2.47348e-12
2.2481e-08
-2.22227e-12
2.24814e-08
-1.99461e-12
2.24818e-08
-1.78789e-12
2.24822e-08
-1.60005e-12
2.24825e-08
-1.4294e-12
2.24827e-08
-1.2744e-12
2.2483e-08
-1.13369e-12
2.24832e-08
-1.00598e-12
2.24834e-08
-8.90073e-13
2.24836e-08
-7.84842e-13
2.24837e-08
-6.89223e-13
2.24839e-08
-6.02228e-13
2.2484e-08
-5.22908e-13
2.24841e-08
-4.5036e-13
2.24841e-08
-3.83716e-13
2.24842e-08
-3.22117e-13
2.24843e-08
-2.64706e-13
2.24843e-08
-2.10569e-13
2.24843e-08
-1.58673e-13
2.24844e-08
-1.07699e-13
2.24844e-08
-5.6016e-14
2.24843e-08
4.75697e-15
1.06635e-13
3.04077e-08
4.60804e-09
-3.0104e-08
3.0674e-08
5.0907e-09
3.08447e-08
5.15534e-09
3.09055e-08
4.97473e-09
3.0857e-08
4.64593e-09
3.0714e-08
4.24224e-09
3.04989e-08
3.82698e-09
3.02339e-08
3.44032e-09
2.99372e-08
3.09784e-09
2.96223e-08
2.79915e-09
2.92993e-08
2.53664e-09
2.89757e-08
2.30089e-09
2.86577e-08
2.08327e-09
2.83505e-08
1.8767e-09
2.80593e-08
1.67567e-09
2.77886e-08
1.47621e-09
2.75427e-08
1.27594e-09
2.73248e-08
1.0745e-09
2.71373e-08
8.73836e-10
2.69809e-08
6.78376e-10
2.68548e-08
4.94599e-10
2.67571e-08
3.30084e-10
2.66841e-08
1.91609e-10
2.6631e-08
8.1864e-11
2.65957e-08
-1.53603e-13
2.65774e-08
-5.58401e-11
2.65726e-08
-8.88553e-11
2.65779e-08
-1.05079e-10
2.65901e-08
-1.09589e-10
2.66066e-08
-1.06389e-10
2.6625e-08
-9.84851e-11
2.66438e-08
-8.80406e-11
2.66618e-08
-7.65683e-11
2.66782e-08
-6.50915e-11
2.66925e-08
-5.42724e-11
2.67046e-08
-4.45074e-11
2.67145e-08
-3.5997e-11
2.67223e-08
-2.87992e-11
2.67284e-08
-2.28715e-11
2.67329e-08
-1.81049e-11
2.67363e-08
-1.43524e-11
2.67386e-08
-1.14512e-11
2.67402e-08
-9.23929e-12
2.67414e-08
-7.5677e-12
2.67421e-08
-6.30712e-12
2.67426e-08
-5.35087e-12
2.67429e-08
-4.61488e-12
2.67431e-08
-4.03569e-12
2.67433e-08
-3.56713e-12
2.67434e-08
-3.17691e-12
2.67435e-08
-2.84309e-12
2.67436e-08
-2.5512e-12
2.67436e-08
-2.29181e-12
2.67437e-08
-2.0588e-12
2.67438e-08
-1.84808e-12
2.67438e-08
-1.65681e-12
2.67439e-08
-1.48285e-12
2.67439e-08
-1.3245e-12
2.6744e-08
-1.18028e-12
2.6744e-08
-1.04888e-12
2.67441e-08
-9.29098e-13
2.67441e-08
-8.19824e-13
2.67441e-08
-7.19998e-13
2.67442e-08
-6.28635e-13
2.67442e-08
-5.44784e-13
2.67442e-08
-4.67526e-13
2.67442e-08
-3.95972e-13
2.67442e-08
-3.29226e-13
2.67442e-08
-2.6638e-13
2.67442e-08
-2.06453e-13
2.67442e-08
-1.48334e-13
2.67442e-08
-9.05954e-14
2.67442e-08
-3.12963e-14
2.67441e-08
4.09444e-14
1.53794e-13
3.13716e-08
4.32503e-09
-3.10886e-08
3.16593e-08
4.80298e-09
3.18951e-08
4.9196e-09
3.20601e-08
4.80966e-09
3.21471e-08
4.55899e-09
3.21596e-08
4.22971e-09
3.21102e-08
3.87641e-09
3.20138e-08
3.53671e-09
3.18839e-08
3.22773e-09
3.17311e-08
2.95191e-09
3.15634e-08
2.70432e-09
3.13868e-08
2.47749e-09
3.12061e-08
2.26397e-09
3.10255e-08
2.05732e-09
3.08488e-08
1.85239e-09
3.06795e-08
1.64548e-09
3.05209e-08
1.43462e-09
3.03754e-08
1.21998e-09
3.0245e-08
1.00424e-09
3.01307e-08
7.92618e-10
3.00329e-08
5.9238e-10
2.99513e-08
4.11698e-10
2.98851e-08
2.57819e-10
2.98324e-08
1.34605e-10
2.97913e-08
4.09564e-11
2.97615e-08
-2.61147e-11
2.97426e-08
-6.99006e-11
2.97328e-08
-9.52714e-11
2.97303e-08
-1.07077e-10
2.97332e-08
-1.09318e-10
2.97398e-08
-1.05134e-10
2.97487e-08
-9.69168e-11
2.97586e-08
-8.64455e-11
2.97685e-08
-7.50211e-11
2.97778e-08
-6.35719e-11
2.97861e-08
-5.27349e-11
2.9793e-08
-4.29161e-11
2.97985e-08
-3.43386e-11
2.98027e-08
-2.70825e-11
2.98057e-08
-2.11214e-11
2.98077e-08
-1.63547e-11
2.98089e-08
-1.26363e-11
2.98095e-08
-9.79925e-12
2.98096e-08
-7.67495e-12
2.98094e-08
-6.10658e-12
2.9809e-08
-4.95753e-12
2.98085e-08
-4.11513e-12
2.9808e-08
-3.49097e-12
2.98074e-08
-3.01859e-12
2.98069e-08
-2.65019e-12
2.98064e-08
-2.35265e-12
2.98059e-08
-2.10386e-12
2.98055e-08
-1.88948e-12
2.98052e-08
-1.70043e-12
2.98049e-08
-1.53101e-12
2.98046e-08
-1.37758e-12
2.98043e-08
-1.23774e-12
2.98041e-08
-1.1098e-12
2.98039e-08
-9.92439e-13
2.98038e-08
-8.84607e-13
2.98036e-08
-7.85355e-13
2.98035e-08
-6.93848e-13
2.98034e-08
-6.09282e-13
2.98033e-08
-5.309e-13
2.98032e-08
-4.57964e-13
2.98031e-08
-3.89735e-13
2.98031e-08
-3.25481e-13
2.9803e-08
-2.64435e-13
2.98029e-08
-2.05795e-13
2.98029e-08
-1.48663e-13
2.98028e-08
-9.20234e-14
2.98028e-08
-3.46045e-14
2.98027e-08
2.72714e-14
2.98026e-08
1.04748e-13
2.17247e-13
3.23447e-08
4.07298e-09
-3.20926e-08
3.26194e-08
4.52821e-09
3.28644e-08
4.67462e-09
3.3061e-08
4.6131e-09
3.32007e-08
4.41924e-09
3.32834e-08
4.14701e-09
3.33164e-08
3.84342e-09
3.33103e-08
3.54283e-09
3.32752e-08
3.26279e-09
3.32194e-08
3.00774e-09
3.31489e-08
2.7748e-09
3.30682e-08
2.55819e-09
3.29807e-08
2.35154e-09
3.28889e-08
2.14906e-09
3.27953e-08
1.946e-09
3.27018e-08
1.73897e-09
3.26102e-08
1.52627e-09
3.25218e-08
1.30838e-09
3.24377e-08
1.08829e-09
3.23589e-08
8.71473e-10
3.22859e-08
6.65322e-10
3.22196e-08
4.77985e-10
3.21608e-08
3.16633e-10
3.211e-08
1.85451e-10
3.20666e-08
8.43354e-11
3.20305e-08
9.96549e-12
3.20021e-08
-4.15137e-11
3.1981e-08
-7.41317e-11
3.19662e-08
-9.23194e-11
3.19568e-08
-9.98751e-11
3.19515e-08
-9.98833e-11
3.19494e-08
-9.47769e-11
3.19494e-08
-8.64422e-11
3.19507e-08
-7.63232e-11
3.19526e-08
-6.55091e-11
3.19547e-08
-5.47999e-11
3.19565e-08
-4.47559e-11
3.19579e-08
-3.57372e-11
3.19588e-08
-2.79379e-11
3.19591e-08
-2.14192e-11
3.19589e-08
-1.61422e-11
3.19582e-08
-1.1998e-11
3.19573e-08
-8.83644e-12
3.19561e-08
-6.48992e-12
3.19548e-08
-4.79212e-12
3.19534e-08
-3.5909e-12
3.19521e-08
-2.75597e-12
3.19507e-08
-2.1818e-12
3.19495e-08
-1.78705e-12
3.19484e-08
-1.51193e-12
3.19473e-08
-1.31437e-12
3.19464e-08
-1.16602e-12
3.19456e-08
-1.04852e-12
3.19448e-08
-9.50421e-13
3.19441e-08
-8.64832e-13
3.19436e-08
-7.87692e-13
3.1943e-08
-7.16646e-13
3.19426e-08
-6.50322e-13
3.19422e-08
-5.87867e-13
3.19418e-08
-5.28737e-13
3.19415e-08
-4.72516e-13
3.19412e-08
-4.18886e-13
3.1941e-08
-3.67525e-13
3.19408e-08
-3.1812e-13
3.19406e-08
-2.70337e-13
3.19404e-08
-2.23798e-13
3.19403e-08
-1.78092e-13
3.19401e-08
-1.32739e-13
3.194e-08
-8.71954e-14
3.19399e-08
-4.079e-14
3.19398e-08
7.55523e-15
3.19397e-08
5.96063e-14
3.19396e-08
1.18732e-13
3.19395e-08
1.93719e-13
2.96657e-13
3.33418e-08
3.85032e-09
-3.31192e-08
3.35949e-08
4.27514e-09
3.38306e-08
4.43894e-09
3.40302e-08
4.41346e-09
3.41859e-08
4.26361e-09
3.4296e-08
4.03686e-09
3.43655e-08
3.77391e-09
3.44025e-08
3.50584e-09
3.44152e-08
3.25013e-09
3.44103e-08
3.01265e-09
3.43927e-08
2.79232e-09
3.4366e-08
2.58487e-09
3.43325e-08
2.38504e-09
3.42938e-08
2.18777e-09
3.4251e-08
1.98881e-09
3.42049e-08
1.78508e-09
3.4156e-08
1.57515e-09
3.41048e-08
1.35967e-09
3.40514e-08
1.14165e-09
3.39964e-08
9.26431e-10
3.39407e-08
7.21102e-10
3.38853e-08
5.33385e-10
3.38318e-08
3.70062e-10
3.3782e-08
2.35275e-10
3.37368e-08
1.2952e-10
3.36966e-08
5.01642e-11
3.36618e-08
-6.69868e-12
3.36326e-08
-4.49606e-11
3.36088e-08
-6.84881e-11
3.35898e-08
-8.08324e-11
3.35748e-08
-8.49537e-11
3.35633e-08
-8.3246e-11
3.35545e-08
-7.76164e-11
3.35477e-08
-6.95685e-11
3.35425e-08
-6.02731e-11
3.35383e-08
-5.06237e-11
3.35348e-08
-4.12766e-11
3.35318e-08
-3.26841e-11
3.3529e-08
-2.51237e-11
3.35263e-08
-1.87274e-11
3.35236e-08
-1.3512e-11
3.3521e-08
-9.40969e-12
3.35185e-08
-6.29708e-12
3.3516e-08
-4.02112e-12
3.35137e-08
-2.42057e-12
3.35114e-08
-1.34178e-12
3.35093e-08
-6.49156e-13
3.35074e-08
-2.30308e-13
3.35056e-08
2.91574e-15
3.35039e-08
1.16252e-13
3.35025e-08
1.56491e-13
3.35012e-08
1.55338e-13
3.35e-08
1.33229e-13
3.34989e-08
1.02662e-13
3.3498e-08
7.08516e-14
3.34972e-08
4.16841e-14
3.34964e-08
1.70389e-14
3.34958e-08
-2.36597e-15
3.34952e-08
-1.64188e-14
3.34947e-08
-2.53384e-14
3.34943e-08
-2.94548e-14
3.34939e-08
-2.91577e-14
3.34935e-08
-2.47873e-14
3.34932e-08
-1.66368e-14
3.3493e-08
-4.92348e-15
3.34927e-08
1.02363e-14
3.34925e-08
2.88135e-14
3.34923e-08
5.09103e-14
3.34922e-08
7.67653e-14
3.3492e-08
1.06829e-13
3.34919e-08
1.41874e-13
3.34918e-08
1.83335e-13
3.34916e-08
2.34174e-13
3.34915e-08
3.01229e-13
3.89701e-13
3.43667e-08
3.65302e-09
-3.41694e-08
3.45972e-08
4.04463e-09
3.48185e-08
4.21769e-09
3.50116e-08
4.22033e-09
3.51688e-08
4.10645e-09
3.52879e-08
3.91773e-09
3.53723e-08
3.6895e-09
3.54285e-08
3.44966e-09
3.54634e-08
3.2152e-09
3.5483e-08
2.99311e-09
3.54915e-08
2.78381e-09
3.54919e-08
2.58444e-09
3.54861e-08
2.39084e-09
3.54751e-08
2.19876e-09
3.54594e-08
2.00452e-09
3.54391e-08
1.80545e-09
3.54138e-08
1.60039e-09
3.53834e-08
1.39007e-09
3.53477e-08
1.17739e-09
3.53067e-08
9.67351e-10
3.52613e-08
7.66509e-10
3.52128e-08
5.81959e-10
3.51629e-08
4.19937e-10
3.51138e-08
2.84387e-10
3.50672e-08
1.76122e-10
3.50241e-08
9.3206e-11
3.49852e-08
3.22227e-11
3.49508e-08
-1.0536e-11
3.49209e-08
-3.86162e-11
3.48954e-08
-5.52699e-11
3.48737e-08
-6.33077e-11
3.48555e-08
-6.50512e-11
3.48403e-08
-6.23878e-11
3.48276e-08
-5.68349e-11
3.48169e-08
-4.95987e-11
3.48079e-08
-4.16196e-11
3.48002e-08
-3.36077e-11
3.47936e-08
-2.60707e-11
3.47878e-08
-1.93406e-11
3.47827e-08
-1.35997e-11
3.47781e-08
-8.90916e-12
3.47739e-08
-5.23806e-12
3.47701e-08
-2.49189e-12
3.47666e-08
-5.38424e-13
3.47634e-08
7.69227e-13
3.47605e-08
1.57513e-12
3.47579e-08
2.00992e-12
3.47554e-08
2.18449e-12
3.47533e-08
2.18723e-12
3.47513e-08
2.08465e-12
3.47495e-08
1.92413e-12
3.47479e-08
1.73764e-12
3.47465e-08
1.54555e-12
3.47453e-08
1.36006e-12
3.47442e-08
1.1878e-12
3.47432e-08
1.0319e-12
3.47423e-08
8.9337e-13
3.47415e-08
7.71988e-13
3.47408e-08
6.66907e-13
3.47402e-08
5.76965e-13
3.47397e-08
5.00932e-13
3.47392e-08
4.37569e-13
3.47388e-08
3.85751e-13
3.47385e-08
3.44466e-13
3.47381e-08
3.12839e-13
3.47379e-08
2.90166e-13
3.47376e-08
2.75889e-13
3.47374e-08
2.69641e-13
3.47372e-08
2.71253e-13
3.4737e-08
2.80813e-13
3.47369e-08
2.9877e-13
3.47367e-08
3.26225e-13
3.47366e-08
3.65553e-13
3.47365e-08
4.21666e-13
4.9392e-13
3.54204e-08
3.47713e-09
-3.52445e-08
3.56297e-08
3.83532e-09
3.58357e-08
4.01176e-09
3.60195e-08
4.0365e-09
3.61731e-08
3.95282e-09
3.6294e-08
3.79684e-09
3.63843e-08
3.59925e-09
3.64491e-08
3.38487e-09
3.64943e-08
3.16994e-09
3.65253e-08
2.96213e-09
3.6546e-08
2.76314e-09
3.65591e-08
2.57134e-09
3.65662e-08
2.38368e-09
3.65683e-08
2.19671e-09
3.65654e-08
2.00737e-09
3.65574e-08
1.81347e-09
3.65437e-08
1.6141e-09
3.65237e-08
1.41006e-09
3.6497e-08
1.2041e-09
3.64636e-08
1.00079e-09
3.6424e-08
8.06087e-10
3.63796e-08
6.26393e-10
3.63322e-08
4.67352e-10
3.62839e-08
3.32643e-10
3.62368e-08
2.23271e-10
3.61921e-08
1.37822e-10
3.61509e-08
7.3464e-11
3.61135e-08
2.68825e-11
3.60801e-08
-5.21298e-12
3.60506e-08
-2.58328e-11
3.60249e-08
-3.76142e-11
3.60027e-08
-4.27889e-11
3.59835e-08
-4.32031e-11
3.5967e-08
-4.03636e-11
3.59529e-08
-3.5485e-11
3.59408e-08
-2.95281e-11
3.59304e-08
-2.32309e-11
3.59215e-08
-1.71336e-11
3.59138e-08
-1.16031e-11
3.5907e-08
-6.85744e-12
3.59011e-08
-2.99234e-12
3.58959e-08
-8.6242e-15
3.58912e-08
2.15964e-12
3.58871e-08
3.61957e-12
3.58833e-08
4.49848e-12
3.588e-08
4.9266e-12
3.5877e-08
5.02452e-12
3.58743e-08
4.89564e-12
3.58718e-08
4.62309e-12
3.58696e-08
4.26974e-12
3.58677e-08
3.8805e-12
3.58659e-08
3.48559e-12
3.58644e-08
3.104e-12
3.5863e-08
2.74672e-12
3.58618e-08
2.41924e-12
3.58607e-08
2.12356e-12
3.58597e-08
1.85955e-12
3.58589e-08
1.62586e-12
3.58581e-08
1.42053e-12
3.58574e-08
1.24134e-12
3.58568e-08
1.08606e-12
3.58563e-08
9.52504e-13
3.58559e-08
8.38689e-13
3.58555e-08
7.42806e-13
3.58551e-08
6.63261e-13
3.58548e-08
5.98697e-13
3.58546e-08
5.47973e-13
3.58543e-08
5.10202e-13
3.58541e-08
4.84755e-13
3.58539e-08
4.7131e-13
3.58537e-08
4.69949e-13
3.58536e-08
4.81377e-13
3.58534e-08
5.07309e-13
3.58533e-08
5.50908e-13
6.07118e-13
3.65035e-08
3.31921e-09
-3.63456e-08
3.66936e-08
3.64529e-09
3.68846e-08
3.82077e-09
3.70584e-08
3.86262e-09
3.72068e-08
3.80443e-09
3.73267e-08
3.67697e-09
3.74192e-08
3.5068e-09
3.74882e-08
3.31587e-09
3.75387e-08
3.11937e-09
3.75755e-08
2.92536e-09
3.76021e-08
2.73652e-09
3.76212e-08
2.55231e-09
3.76342e-08
2.37065e-09
3.7642e-08
2.1889e-09
3.76447e-08
2.00465e-09
3.76421e-08
1.81613e-09
3.76334e-08
1.62274e-09
3.76181e-08
1.42535e-09
3.75957e-08
1.22652e-09
3.75661e-08
1.03042e-09
3.75298e-08
8.42402e-10
3.7488e-08
6.6819e-10
3.74425e-08
5.12856e-10
3.73953e-08
3.79798e-10
3.73484e-08
2.70138e-10
3.73034e-08
1.82884e-10
3.72611e-08
1.15703e-10
3.72223e-08
6.57135e-11
3.71872e-08
2.9947e-11
3.71557e-08
5.61287e-12
3.71279e-08
-9.77112e-12
3.71034e-08
-1.83302e-11
3.70821e-08
-2.1855e-11
3.70635e-08
-2.18261e-11
3.70475e-08
-1.94511e-11
3.70337e-08
-1.5696e-11
3.70217e-08
-1.13123e-11
3.70115e-08
-6.85986e-12
3.70026e-08
-2.72941e-12
3.69949e-08
8.33984e-13
3.69882e-08
3.7057e-12
3.69823e-08
5.85547e-12
3.69772e-08
7.32175e-12
3.69726e-08
8.18751e-12
3.69685e-08
8.55899e-12
3.69649e-08
8.54877e-12
3.69617e-08
8.26328e-12
3.69588e-08
7.79506e-12
3.69562e-08
7.21922e-12
3.69539e-08
6.59291e-12
3.69518e-08
5.95699e-12
3.69499e-08
5.33877e-12
3.69483e-08
4.75509e-12
3.69468e-08
4.21519e-12
3.69455e-08
3.72304e-12
3.69444e-08
3.27926e-12
3.69433e-08
2.8824e-12
3.69424e-08
2.52984e-12
3.69416e-08
2.21842e-12
3.69409e-08
1.94478e-12
3.69403e-08
1.70562e-12
3.69398e-08
1.49776e-12
3.69393e-08
1.31829e-12
3.69389e-08
1.16457e-12
3.69385e-08
1.03424e-12
3.69382e-08
9.25246e-13
3.69379e-08
8.35837e-13
3.69376e-08
7.64571e-13
3.69374e-08
7.10329e-13
3.69372e-08
6.72351e-13
3.6937e-08
6.50317e-13
3.69369e-08
6.44497e-13
3.69367e-08
6.55933e-13
3.69366e-08
6.86283e-13
7.27575e-13
3.76167e-08
3.17649e-09
-3.74739e-08
3.77894e-08
3.47257e-09
3.79662e-08
3.64397e-09
3.81301e-08
3.6987e-09
3.82726e-08
3.66189e-09
3.83903e-08
3.55929e-09
3.84834e-08
3.41374e-09
3.85547e-08
3.24451e-09
3.86085e-08
3.06559e-09
3.86487e-08
2.88512e-09
3.86787e-08
2.7065e-09
3.87009e-08
2.53012e-09
3.87168e-08
2.35474e-09
3.87273e-08
2.17849e-09
3.87324e-08
1.99954e-09
3.87319e-08
1.81658e-09
3.87254e-08
1.62928e-09
3.87121e-08
1.43859e-09
3.86917e-08
1.24691e-09
3.86641e-08
1.05802e-09
3.86298e-08
8.7671e-10
3.85899e-08
7.08091e-10
3.85461e-08
5.56704e-10
3.85002e-08
4.25676e-10
3.84541e-08
3.16197e-10
3.84094e-08
2.27619e-10
3.83671e-08
1.58046e-10
3.83278e-08
1.04993e-10
3.82919e-08
6.58125e-11
3.82596e-08
3.79533e-11
3.82307e-08
1.90961e-11
3.82052e-08
7.21941e-12
3.81827e-08
5.98738e-13
3.81631e-08
-2.20985e-12
3.8146e-08
-2.39648e-12
3.81313e-08
-9.23003e-13
3.81185e-08
1.45399e-12
3.81075e-08
4.16214e-12
3.80979e-08
6.79244e-12
3.80897e-08
9.07723e-12
3.80825e-08
1.08667e-11
3.80763e-08
1.21041e-11
3.80708e-08
1.28019e-11
3.8066e-08
1.30183e-11
3.80617e-08
1.28373e-11
3.80579e-08
1.23524e-11
3.80545e-08
1.16544e-11
3.80515e-08
1.08236e-11
3.80488e-08
9.92577e-12
3.80464e-08
9.01138e-12
3.80442e-08
8.11637e-12
3.80423e-08
7.26451e-12
3.80406e-08
6.46999e-12
3.8039e-08
5.73993e-12
3.80377e-08
5.07656e-12
3.80365e-08
4.47892e-12
3.80354e-08
3.94411e-12
3.80345e-08
3.46816e-12
3.80337e-08
3.04664e-12
3.80329e-08
2.67499e-12
3.80323e-08
2.34877e-12
3.80317e-08
2.06378e-12
3.80312e-08
1.81616e-12
3.80308e-08
1.60239e-12
3.80304e-08
1.41931e-12
3.80301e-08
1.26417e-12
3.80298e-08
1.13456e-12
3.80295e-08
1.02847e-12
3.80293e-08
9.44267e-13
3.8029e-08
8.80736e-13
3.80289e-08
8.37133e-13
3.80287e-08
8.13269e-13
3.80285e-08
8.0953e-13
3.80284e-08
8.26333e-13
8.541e-13
3.87605e-08
3.04669e-09
-3.86307e-08
3.89178e-08
3.31527e-09
3.90813e-08
3.48051e-09
3.92354e-08
3.54452e-09
3.93718e-08
3.52549e-09
3.94867e-08
3.44448e-09
3.95794e-08
3.32098e-09
3.96522e-08
3.17177e-09
3.97082e-08
3.00959e-09
3.97509e-08
2.84241e-09
3.97832e-08
2.67413e-09
3.98075e-08
2.50586e-09
3.98251e-08
2.33711e-09
3.9837e-08
2.16668e-09
3.98432e-08
1.99329e-09
3.98437e-08
1.81606e-09
3.98381e-08
1.63491e-09
3.98258e-08
1.45087e-09
3.98065e-08
1.26619e-09
3.97802e-08
1.08432e-09
3.97474e-08
9.09546e-10
3.97091e-08
7.46416e-10
3.96668e-08
5.99004e-10
3.96223e-08
4.7018e-10
3.95773e-08
3.61173e-10
3.95333e-08
2.71614e-10
3.94914e-08
1.99987e-10
3.94522e-08
1.44169e-10
3.94162e-08
1.01816e-10
3.93835e-08
7.06127e-11
3.93542e-08
4.84088e-11
3.93281e-08
3.32959e-11
3.93051e-08
2.36228e-11
3.92849e-08
1.79897e-11
3.92673e-08
1.52311e-11
3.9252e-08
1.43955e-11
3.92387e-08
1.47264e-11
3.92272e-08
1.56437e-11
3.92173e-08
1.6724e-11
3.92087e-08
1.76803e-11
3.92012e-08
1.83398e-11
3.91947e-08
1.86209e-11
3.9189e-08
1.85108e-11
3.91839e-08
1.80432e-11
3.91795e-08
1.728e-11
3.91756e-08
1.62953e-11
3.91721e-08
1.51639e-11
3.91689e-08
1.39532e-11
3.91661e-08
1.27192e-11
3.91636e-08
1.15051e-11
3.91614e-08
1.03412e-11
3.91594e-08
9.24754e-12
3.91577e-08
8.23522e-12
3.91561e-08
7.30903e-12
3.91547e-08
6.46924e-12
3.91535e-08
5.71317e-12
3.91524e-08
5.03639e-12
3.91514e-08
4.43349e-12
3.91506e-08
3.8987e-12
3.91498e-08
3.42621e-12
3.91491e-08
3.01044e-12
3.91486e-08
2.64611e-12
3.9148e-08
2.32838e-12
3.91476e-08
2.05282e-12
3.91472e-08
1.81547e-12
3.91469e-08
1.61283e-12
3.91465e-08
1.44184e-12
3.91463e-08
1.29989e-12
3.9146e-08
1.18483e-12
3.91458e-08
1.09496e-12
3.91456e-08
1.0291e-12
3.91455e-08
9.86599e-13
3.91453e-08
9.67216e-13
3.91452e-08
9.70379e-13
9.85896e-13
3.99359e-08
2.928e-09
-3.98172e-08
4.00795e-08
3.17168e-09
4.02305e-08
3.32945e-09
4.03752e-08
3.39979e-09
4.05054e-08
3.39535e-09
4.06169e-08
3.33297e-09
4.07087e-08
3.22912e-09
4.07822e-08
3.09831e-09
4.08398e-08
2.95199e-09
4.08844e-08
2.79779e-09
4.09187e-08
2.63989e-09
4.09445e-08
2.47997e-09
4.09635e-08
2.31817e-09
4.09763e-08
2.15387e-09
4.09833e-08
1.9863e-09
4.09844e-08
1.81495e-09
4.09793e-08
1.64001e-09
4.09676e-08
1.46254e-09
4.09491e-08
1.28469e-09
4.09238e-08
1.10959e-09
4.08923e-08
9.41108e-10
4.08554e-08
7.83292e-10
4.08146e-08
6.39799e-10
4.07715e-08
5.13265e-10
4.07278e-08
4.04935e-10
4.06847e-08
3.14668e-10
4.06434e-08
2.41274e-10
4.06046e-08
1.82958e-10
4.05688e-08
1.37662e-10
4.05361e-08
1.03297e-10
4.05066e-08
7.78836e-11
4.04803e-08
5.96307e-11
4.0457e-08
4.69676e-11
4.04364e-08
3.85454e-11
4.04184e-08
3.3229e-11
4.04027e-08
3.00827e-11
4.03891e-08
2.83545e-11
4.03773e-08
2.74598e-11
4.0367e-08
2.69637e-11
4.03581e-08
2.65622e-11
4.03504e-08
2.60614e-11
4.03437e-08
2.53564e-11
4.03378e-08
2.441e-11
4.03326e-08
2.32325e-11
4.0328e-08
2.1864e-11
4.0324e-08
2.03593e-11
4.03203e-08
1.87771e-11
4.03171e-08
1.71718e-11
4.03143e-08
1.55894e-11
4.03117e-08
1.40651e-11
4.03094e-08
1.26238e-11
4.03074e-08
1.12811e-11
4.03056e-08
1.00448e-11
4.0304e-08
8.91717e-12
4.03025e-08
7.89635e-12
4.03013e-08
6.97783e-12
4.03001e-08
6.15552e-12
4.02992e-08
5.42252e-12
4.02983e-08
4.77168e-12
4.02975e-08
4.19588e-12
4.02968e-08
3.68836e-12
4.02962e-08
3.24275e-12
4.02957e-08
2.85317e-12
4.02953e-08
2.51431e-12
4.02948e-08
2.22135e-12
4.02945e-08
1.97003e-12
4.02942e-08
1.75663e-12
4.02939e-08
1.57793e-12
4.02937e-08
1.43122e-12
4.02934e-08
1.31433e-12
4.02932e-08
1.22563e-12
4.02931e-08
1.16399e-12
4.02929e-08
1.12859e-12
4.02927e-08
1.11811e-12
1.1224e-12
4.11437e-08
2.81898e-09
-4.10347e-08
4.12751e-08
3.04028e-09
4.14147e-08
3.18988e-09
4.15503e-08
3.26417e-09
4.16741e-08
3.27152e-09
4.1782e-08
3.22513e-09
4.18724e-08
3.1387e-09
4.1946e-08
3.0247e-09
4.20047e-08
2.8933e-09
4.20508e-08
2.75167e-09
4.20866e-08
2.60411e-09
4.21138e-08
2.45272e-09
4.21339e-08
2.29812e-09
4.21475e-08
2.14023e-09
4.21552e-08
1.97869e-09
4.21567e-08
1.81337e-09
4.21521e-08
1.64464e-09
4.2141e-08
1.47366e-09
4.21232e-08
1.30245e-09
4.20989e-08
1.1339e-09
4.20686e-08
9.71453e-10
4.20331e-08
8.1876e-10
4.19938e-08
6.79104e-10
4.19521e-08
5.54908e-10
4.19097e-08
4.47419e-10
4.18676e-08
3.56677e-10
4.18271e-08
2.81774e-10
4.17889e-08
2.2121e-10
4.17534e-08
1.73193e-10
4.17208e-08
1.35851e-10
4.16913e-08
1.07371e-10
4.16649e-08
8.60854e-11
4.16413e-08
7.05078e-11
4.16205e-08
5.93461e-11
4.16023e-08
5.15008e-11
4.15863e-08
4.60565e-11
4.15724e-08
4.22695e-11
4.15603e-08
3.95538e-11
4.15498e-08
3.74657e-11
4.15406e-08
3.56864e-11
4.15327e-08
3.40028e-11
4.15258e-08
3.22881e-11
4.15197e-08
3.04822e-11
4.15144e-08
2.85727e-11
4.15096e-08
2.65785e-11
4.15055e-08
2.45356e-11
4.15018e-08
2.24868e-11
4.14985e-08
2.04735e-11
4.14955e-08
1.85311e-11
4.14929e-08
1.66871e-11
4.14906e-08
1.49603e-11
4.14885e-08
1.33616e-11
4.14866e-08
1.18956e-11
4.1485e-08
1.05615e-11
4.14835e-08
9.35536e-12
4.14822e-08
8.27062e-12
4.14811e-08
7.29947e-12
4.14801e-08
6.43346e-12
4.14792e-08
5.66397e-12
4.14784e-08
4.98259e-12
4.14777e-08
4.38129e-12
4.14771e-08
3.85259e-12
4.14766e-08
3.38959e-12
4.14761e-08
2.98601e-12
4.14757e-08
2.6362e-12
4.14753e-08
2.33513e-12
4.1475e-08
2.07836e-12
4.14747e-08
1.86207e-12
4.14744e-08
1.68299e-12
4.14742e-08
1.53846e-12
4.1474e-08
1.42638e-12
4.14738e-08
1.34515e-12
4.14737e-08
1.29344e-12
4.14735e-08
1.26933e-12
1.26315e-12
4.23849e-08
2.71844e-09
-4.22844e-08
4.25055e-08
2.91975e-09
4.26344e-08
3.06089e-09
4.27614e-08
3.13725e-09
4.28789e-08
3.15399e-09
4.29828e-08
3.1212e-09
4.30714e-08
3.05014e-09
4.31446e-08
2.95142e-09
4.3204e-08
2.83397e-09
4.32512e-08
2.70443e-09
4.32882e-08
2.56708e-09
4.33167e-08
2.42428e-09
4.33377e-08
2.27709e-09
4.33521e-08
2.12581e-09
4.33603e-08
1.9705e-09
4.33624e-08
1.81131e-09
4.33582e-08
1.64881e-09
4.33477e-08
1.48422e-09
4.33306e-08
1.31948e-09
4.33073e-08
1.15723e-09
4.32782e-08
1.00059e-09
4.32441e-08
8.52833e-10
4.32063e-08
7.16924e-10
4.31661e-08
5.95098e-10
4.31249e-08
4.88585e-10
4.3084e-08
3.97575e-10
4.30444e-08
3.21402e-10
4.30068e-08
2.58828e-10
4.29717e-08
2.08306e-10
4.29393e-08
1.6817e-10
4.29099e-08
1.36774e-10
4.28835e-08
1.12571e-10
4.28598e-08
9.4164e-11
4.28388e-08
8.03223e-11
4.28203e-08
6.99869e-11
4.28041e-08
6.22666e-11
4.279e-08
5.64295e-11
4.27776e-08
5.18914e-11
4.27669e-08
4.82023e-11
4.27575e-08
4.50307e-11
4.27494e-08
4.21464e-11
4.27423e-08
3.94022e-11
4.27361e-08
3.67163e-11
4.27306e-08
3.40549e-11
4.27257e-08
3.14163e-11
4.27215e-08
2.88185e-11
4.27177e-08
2.62882e-11
4.27143e-08
2.38539e-11
4.27113e-08
2.15406e-11
4.27086e-08
1.93677e-11
4.27062e-08
1.73475e-11
4.27041e-08
1.54864e-11
4.27022e-08
1.3785e-11
4.27005e-08
1.22398e-11
4.2699e-08
1.08442e-11
4.26977e-08
9.5897e-12
4.26965e-08
8.46661e-12
4.26955e-08
7.46485e-12
4.26946e-08
6.5743e-12
4.26938e-08
5.78518e-12
4.26931e-08
5.08821e-12
4.26925e-08
4.47475e-12
4.26919e-08
3.93684e-12
4.26914e-08
3.46724e-12
4.2691e-08
3.05943e-12
4.26906e-08
2.70758e-12
4.26903e-08
2.40656e-12
4.269e-08
2.1519e-12
4.26898e-08
1.93978e-12
4.26895e-08
1.76703e-12
4.26893e-08
1.63106e-12
4.26891e-08
1.52983e-12
4.2689e-08
1.46155e-12
4.26888e-08
1.42385e-12
1.40774e-12
4.36606e-08
2.62544e-09
-4.35676e-08
4.37714e-08
2.80892e-09
4.38907e-08
2.94165e-09
4.40093e-08
3.01862e-09
4.41206e-08
3.04271e-09
4.42203e-08