/*--------------------------------*- C++ -*----------------------------------*\
| =========                 |                                                 |
| \\      /  F ield         | OpenFOAM: The Open Source CFD Toolbox           |
|  \\    /   O peration     | Version:  2.3.0                                 |
|   \\  /    A nd           | Web:      www.OpenFOAM.org                      |
|    \\/     M anipulation  |                                                 |
\*---------------------------------------------------------------------------*/
FoamFile
{
    version     2.0;
    format      ascii;
    class       volVectorField;
    location    "0.1";
    object      U;
}
// * * * * * * * * * * * * * * * * * * * * * * * * * * * * * * * * * * * * * //

dimensions      [0 1 -1 0 0 0 0];

internalField   nonuniform List<vector> 
2945
(
(0.154155 0.00665851 0)
(0.125444 0.00575508 0)
(0.100903 0.0044299 0)
(0.0809663 0.00314064 0)
(0.0657672 0.0020642 0)
(0.0546971 0.00126612 0)
(0.0468374 0.000735985 0)
(0.0413064 0.000416057 0)
(0.0373803 0.000238143 0)
(0.034517 0.000145788 0)
(0.0323444 0.000100019 0)
(0.0306265 7.71946e-05 0)
(0.029222 6.46101e-05 0)
(0.0280485 5.62142e-05 0)
(0.0270577 4.94172e-05 0)
(0.0262206 4.3135e-05 0)
(0.0255198 3.68046e-05 0)
(0.0249456 3.00129e-05 0)
(0.0244931 2.24547e-05 0)
(0.0241597 1.41418e-05 0)
(0.0239435 5.80821e-06 0)
(0.0238441 -9.78432e-07 0)
(0.0238536 -6.66546e-06 0)
(0.0239254 -9.40392e-06 0)
(0.0240319 -1.07125e-05 0)
(0.0241531 -1.07615e-05 0)
(0.024274 -9.89755e-06 0)
(0.0243855 -8.61933e-06 0)
(0.0244833 -7.26701e-06 0)
(0.0245664 -6.01129e-06 0)
(0.0246356 -4.91999e-06 0)
(0.0246926 -4.007e-06 0)
(0.024739 -3.26063e-06 0)
(0.0247768 -2.65924e-06 0)
(0.0248076 -2.17905e-06 0)
(0.0248328 -1.79776e-06 0)
(0.0248535 -1.49589e-06 0)
(0.0248708 -1.25697e-06 0)
(0.0248853 -1.06745e-06 0)
(0.0248976 -9.16297e-07 0)
(0.0249083 -7.94656e-07 0)
(0.0249175 -6.9552e-07 0)
(0.0249257 -6.13433e-07 0)
(0.024933 -5.44262e-07 0)
(0.0249395 -4.84931e-07 0)
(0.0249453 -4.33193e-07 0)
(0.0249506 -3.87456e-07 0)
(0.0249553 -3.46601e-07 0)
(0.0249596 -3.09868e-07 0)
(0.0249635 -2.76711e-07 0)
(0.0249669 -2.46735e-07 0)
(0.0249701 -2.19644e-07 0)
(0.0249729 -1.95185e-07 0)
(0.0249754 -1.73143e-07 0)
(0.0249777 -1.53315e-07 0)
(0.0249797 -1.35505e-07 0)
(0.0249815 -1.19547e-07 0)
(0.0249831 -1.0526e-07 0)
(0.0249845 -9.24936e-08 0)
(0.0249858 -8.10884e-08 0)
(0.0249869 -7.09124e-08 0)
(0.0249878 -6.18323e-08 0)
(0.0249887 -5.37288e-08 0)
(0.0249895 -4.64979e-08 0)
(0.0249901 -4.00332e-08 0)
(0.0249907 -3.42464e-08 0)
(0.0249912 -2.90481e-08 0)
(0.0249916 -2.43562e-08 0)
(0.024992 -2.00919e-08 0)
(0.0249923 -1.61712e-08 0)
(0.0249925 -1.25018e-08 0)
(0.0249927 -8.95568e-09 0)
(0.0249928 -5.37216e-09 0)
(0.0249929 -2.6453e-09 0)
(0.0249928 1.25241e-08 0)
(0.185037 0.0109373 0)
(0.176745 0.0104263 0)
(0.165871 0.00904488 0)
(0.15404 0.00744656 0)
(0.142506 0.00587196 0)
(0.131874 0.00447004 0)
(0.122363 0.003326 0)
(0.114016 0.00245608 0)
(0.106788 0.00182812 0)
(0.100578 0.00138857 0)
(0.0952611 0.00108282 0)
(0.0907129 0.000866086 0)
(0.0868203 0.000706485 0)
(0.08349 0.000583217 0)
(0.0806486 0.000483278 0)
(0.078241 0.000398473 0)
(0.0762279 0.000323446 0)
(0.0745817 0.000254675 0)
(0.073282 0.000190087 0)
(0.0723101 0.000129029 0)
(0.0716436 7.22793e-05 0)
(0.0712485 2.13887e-05 0)
(0.0710982 -1.99331e-05 0)
(0.071149 -4.39985e-05 0)
(0.0713079 -5.34123e-05 0)
(0.0715199 -5.4484e-05 0)
(0.0717481 -5.07521e-05 0)
(0.0719688 -4.46568e-05 0)
(0.0721692 -3.78757e-05 0)
(0.0723437 -3.13705e-05 0)
(0.0724916 -2.55943e-05 0)
(0.0726144 -2.06971e-05 0)
(0.072715 -1.66673e-05 0)
(0.0727967 -1.3418e-05 0)
(0.0728627 -1.08353e-05 0)
(0.0729161 -8.80321e-06 0)
(0.0729593 -7.21496e-06 0)
(0.0729945 -5.97779e-06 0)
(0.0730235 -5.01381e-06 0)
(0.0730476 -4.25933e-06 0)
(0.0730681 -3.66341e-06 0)
(0.0730856 -3.18623e-06 0)
(0.0731008 -2.79731e-06 0)
(0.0731141 -2.47389e-06 0)
(0.073126 -2.19938e-06 0)
(0.0731366 -1.96193e-06 0)
(0.0731461 -1.75327e-06 0)
(0.0731546 -1.56768e-06 0)
(0.0731623 -1.40131e-06 0)
(0.0731693 -1.25144e-06 0)
(0.0731755 -1.11614e-06 0)
(0.0731812 -9.93954e-07 0)
(0.0731862 -8.83691e-07 0)
(0.0731908 -7.84323e-07 0)
(0.0731949 -6.94918e-07 0)
(0.0731985 -6.14596e-07 0)
(0.0732018 -5.42564e-07 0)
(0.0732046 -4.78036e-07 0)
(0.0732072 -4.2031e-07 0)
(0.0732095 -3.687e-07 0)
(0.0732115 -3.22591e-07 0)
(0.0732133 -2.81407e-07 0)
(0.0732149 -2.4461e-07 0)
(0.0732163 -2.11724e-07 0)
(0.0732175 -1.82288e-07 0)
(0.0732185 -1.55893e-07 0)
(0.0732194 -1.32147e-07 0)
(0.0732202 -1.10681e-07 0)
(0.0732208 -9.11453e-08 0)
(0.0732213 -7.31744e-08 0)
(0.0732217 -5.63741e-08 0)
(0.073222 -4.02387e-08 0)
(0.0732222 -2.41728e-08 0)
(0.0732224 -8.22038e-09 0)
(0.0732222 3.66043e-08 0)
(0.191708 0.0115256 0)
(0.191137 0.0118286 0)
(0.188297 0.0110402 0)
(0.183678 0.00978836 0)
(0.178037 0.0083568 0)
(0.171913 0.00695009 0)
(0.16566 0.00570549 0)
(0.159522 0.00467729 0)
(0.153659 0.00385881 0)
(0.148161 0.00321451 0)
(0.14307 0.00270318 0)
(0.138398 0.0022892 0)
(0.134148 0.00194562 0)
(0.130314 0.00165318 0)
(0.126892 0.00139807 0)
(0.12388 0.00117017 0)
(0.121276 0.000962076 0)
(0.119079 0.000768847 0)
(0.117284 0.000588146 0)
(0.115882 0.0004203 0)
(0.11485 0.000267891 0)
(0.114149 0.000133972 0)
(0.113712 2.32285e-05 0)
(0.113521 -5.50581e-05 0)
(0.11353 -9.76774e-05 0)
(0.11366 -0.000113997 0)
(0.113856 -0.00011423 0)
(0.11408 -0.000105504 0)
(0.114306 -9.26255e-05 0)
(0.114518 -7.86187e-05 0)
(0.114708 -6.51964e-05 0)
(0.114872 -5.32021e-05 0)
(0.115011 -4.29494e-05 0)
(0.115127 -3.44519e-05 0)
(0.115221 -2.75687e-05 0)
(0.115297 -2.20908e-05 0)
(0.115357 -1.77908e-05 0)
(0.115406 -1.44493e-05 0)
(0.115444 -1.1869e-05 0)
(0.115475 -9.87995e-06 0)
(0.1155 -8.34145e-06 0)
(0.115521 -7.14046e-06 0)
(0.115538 -6.18886e-06 0)
(0.115552 -5.41992e-06 0)
(0.115565 -4.78454e-06 0)
(0.115576 -4.24746e-06 0)
(0.115585 -3.78406e-06 0)
(0.115594 -3.3775e-06 0)
(0.115602 -3.01642e-06 0)
(0.115609 -2.69315e-06 0)
(0.115615 -2.40237e-06 0)
(0.11562 -2.14031e-06 0)
(0.115625 -1.90402e-06 0)
(0.11563 -1.69111e-06 0)
(0.115634 -1.49948e-06 0)
(0.115638 -1.32723e-06 0)
(0.115641 -1.17261e-06 0)
(0.115644 -1.03397e-06 0)
(0.115646 -9.098e-07 0)
(0.115649 -7.9866e-07 0)
(0.115651 -6.99234e-07 0)
(0.115653 -6.10308e-07 0)
(0.115654 -5.30748e-07 0)
(0.115655 -4.59528e-07 0)
(0.115657 -3.95686e-07 0)
(0.115658 -3.38336e-07 0)
(0.115659 -2.86653e-07 0)
(0.115659 -2.39852e-07 0)
(0.11566 -1.9718e-07 0)
(0.115661 -1.57875e-07 0)
(0.115661 -1.21111e-07 0)
(0.115661 -8.58719e-08 0)
(0.115661 -5.09126e-08 0)
(0.115661 -1.28536e-08 0)
(0.115661 6.26308e-08 0)
(0.193613 0.0109635 0)
(0.195318 0.0117355 0)
(0.195833 0.0114403 0)
(0.195015 0.0105926 0)
(0.193145 0.00945781 0)
(0.190504 0.0082398 0)
(0.187335 0.00709163 0)
(0.183853 0.00609065 0)
(0.180235 0.00525173 0)
(0.176603 0.00455633 0)
(0.173039 0.00397495 0)
(0.169599 0.00347915 0)
(0.166322 0.00304588 0)
(0.163241 0.00265782 0)
(0.160384 0.00230216 0)
(0.15778 0.00196955 0)
(0.155454 0.00165351 0)
(0.153427 0.00135064 0)
(0.151714 0.00106094 0)
(0.150317 0.000787979 0)
(0.149228 0.000538497 0)
(0.148423 0.000321112 0)
(0.147862 0.000142075 0)
(0.147483 4.67819e-06 0)
(0.147291 -8.69771e-05 0)
(0.147249 -0.000136848 0)
(0.147311 -0.000156664 0)
(0.147439 -0.000157228 0)
(0.147604 -0.000146586 0)
(0.147784 -0.00013033 0)
(0.147962 -0.000112098 0)
(0.148129 -9.4091e-05 0)
(0.14828 -7.7528e-05 0)
(0.14841 -6.29906e-05 0)
(0.14852 -5.06603e-05 0)
(0.148611 -4.04803e-05 0)
(0.148684 -3.22602e-05 0)
(0.148742 -2.57449e-05 0)
(0.148787 -2.06587e-05 0)
(0.148823 -1.67331e-05 0)
(0.14885 -1.37244e-05 0)
(0.148871 -1.14216e-05 0)
(0.148887 -9.65044e-06 0)
(0.1489 -8.27207e-06 0)
(0.14891 -7.17989e-06 0)
(0.148918 -6.29464e-06 0)
(0.148925 -5.55933e-06 0)
(0.148931 -4.93413e-06 0)
(0.148936 -4.3919e-06 0)
(0.148941 -3.91444e-06 0)
(0.148945 -3.48961e-06 0)
(0.148949 -3.10918e-06 0)
(0.148952 -2.76735e-06 0)
(0.148955 -2.45981e-06 0)
(0.148957 -2.18307e-06 0)
(0.14896 -1.93419e-06 0)
(0.148962 -1.71056e-06 0)
(0.148964 -1.5098e-06 0)
(0.148966 -1.3297e-06 0)
(0.148967 -1.16824e-06 0)
(0.148969 -1.02354e-06 0)
(0.14897 -8.93876e-07 0)
(0.148971 -7.77626e-07 0)
(0.148972 -6.73326e-07 0)
(0.148973 -5.79606e-07 0)
(0.148973 -4.95192e-07 0)
(0.148974 -4.18899e-07 0)
(0.148974 -3.49595e-07 0)
(0.148975 -2.86192e-07 0)
(0.148975 -2.27587e-07 0)
(0.148975 -1.72594e-07 0)
(0.148975 -1.19775e-07 0)
(0.148975 -6.73869e-08 0)
(0.148975 -8.07981e-09 0)
(0.148975 9.26621e-08 0)
(0.194452 0.0102908 0)
(0.196562 0.0112172 0)
(0.198165 0.0111873 0)
(0.198948 0.0106188 0)
(0.198961 0.00974299 0)
(0.198314 0.00873472 0)
(0.197129 0.00773596 0)
(0.195551 0.00682963 0)
(0.193712 0.0060427 0)
(0.191719 0.00536843 0)
(0.189648 0.00478626 0)
(0.187554 0.00427356 0)
(0.185479 0.00381065 0)
(0.183458 0.00338206 0)
(0.181524 0.00297612 0)
(0.179708 0.00258446 0)
(0.178039 0.00220193 0)
(0.176543 0.00182697 0)
(0.175236 0.00146216 0)
(0.17413 0.00111424 0)
(0.173225 0.000793409 0)
(0.172511 0.000511679 0)
(0.171969 0.000279054 0)
(0.171571 9.78105e-05 0)
(0.171284 -3.3252e-05 0)
(0.171117 -0.00011686 0)
(0.171048 -0.000161943 0)
(0.171054 -0.00017967 0)
(0.171115 -0.000179403 0)
(0.171211 -0.00016819 0)
(0.171327 -0.000151058 0)
(0.171449 -0.000131432 0)
(0.171569 -0.000111537 0)
(0.171681 -9.27461e-05 0)
(0.17178 -7.5833e-05 0)
(0.171865 -6.11597e-05 0)
(0.171936 -4.88086e-05 0)
(0.171992 -3.86793e-05 0)
(0.172037 -3.05596e-05 0)
(0.172071 -2.41788e-05 0)
(0.172095 -1.92468e-05 0)
(0.172113 -1.5482e-05 0)
(0.172126 -1.26294e-05 0)
(0.172134 -1.04701e-05 0)
(0.17214 -8.82525e-06 0)
(0.172144 -7.55448e-06 0)
(0.172146 -6.55198e-06 0)
(0.172148 -5.7408e-06 0)
(0.172149 -5.06681e-06 0)
(0.17215 -4.49304e-06 0)
(0.172151 -3.99479e-06 0)
(0.172151 -3.55575e-06 0)
(0.172152 -3.1651e-06 0)
(0.172152 -2.81546e-06 0)
(0.172153 -2.50154e-06 0)
(0.172153 -2.2193e-06 0)
(0.172153 -1.96545e-06 0)
(0.172154 -1.73717e-06 0)
(0.172154 -1.53193e-06 0)
(0.172154 -1.34745e-06 0)
(0.172154 -1.18162e-06 0)
(0.172155 -1.03254e-06 0)
(0.172155 -8.9841e-07 0)
(0.172155 -7.77597e-07 0)
(0.172155 -6.68571e-07 0)
(0.172155 -5.69899e-07 0)
(0.172155 -4.80241e-07 0)
(0.172156 -3.98308e-07 0)
(0.172156 -3.22849e-07 0)
(0.172156 -2.52589e-07 0)
(0.172156 -1.8616e-07 0)
(0.172155 -1.21906e-07 0)
(0.172155 -5.77619e-08 0)
(0.172155 1.70599e-08 0)
(0.172155 1.34651e-07 0)
(0.195032 0.00965522 0)
(0.197009 0.0106002 0)
(0.19881 0.0107109 0)
(0.200117 0.0103224 0)
(0.200903 0.00963759 0)
(0.2012 0.00880375 0)
(0.201066 0.00794465 0)
(0.200588 0.00714001 0)
(0.199857 0.0064221 0)
(0.198954 0.00579154 0)
(0.197938 0.00523427 0)
(0.19685 0.00473229 0)
(0.195725 0.00426878 0)
(0.194588 0.00382989 0)
(0.193465 0.00340497 0)
(0.192377 0.0029865 0)
(0.191347 0.00257038 0)
(0.190393 0.00215654 0)
(0.189529 0.00174941 0)
(0.188764 0.00135787 0)
(0.188102 0.000994238 0)
(0.187543 0.000672196 0)
(0.187083 0.000403391 0)
(0.186715 0.000192385 0)
(0.186422 3.56414e-05 0)
(0.1862 -7.22725e-05 0)
(0.186049 -0.00013876 0)
(0.185962 -0.000173663 0)
(0.185926 -0.00018621 0)
(0.185931 -0.000183773 0)
(0.185963 -0.000171925 0)
(0.186014 -0.00015474 0)
(0.186074 -0.000135108 0)
(0.186138 -0.000115026 0)
(0.186199 -9.58182e-05 0)
(0.186254 -7.83079e-05 0)
(0.186302 -6.29418e-05 0)
(0.186341 -4.98877e-05 0)
(0.186371 -3.91127e-05 0)
(0.186393 -3.04476e-05 0)
(0.186409 -2.36417e-05 0)
(0.186418 -1.84061e-05 0)
(0.186423 -1.44477e-05 0)
(0.186425 -1.14928e-05 0)
(0.186425 -9.30197e-06 0)
(0.186423 -7.67621e-06 0)
(0.18642 -6.45814e-06 0)
(0.186417 -5.52841e-06 0)
(0.186413 -4.80005e-06 0)
(0.18641 -4.21199e-06 0)
(0.186407 -3.72275e-06 0)
(0.186404 -3.30489e-06 0)
(0.186401 -2.94065e-06 0)
(0.186399 -2.61851e-06 0)
(0.186396 -2.33095e-06 0)
(0.186395 -2.07279e-06 0)
(0.186393 -1.84033e-06 0)
(0.186392 -1.63064e-06 0)
(0.18639 -1.44132e-06 0)
(0.186389 -1.27029e-06 0)
(0.186388 -1.11566e-06 0)
(0.186387 -9.75759e-07 0)
(0.186387 -8.49008e-07 0)
(0.186386 -7.33961e-07 0)
(0.186385 -6.29256e-07 0)
(0.186385 -5.33601e-07 0)
(0.186384 -4.45772e-07 0)
(0.186384 -3.64566e-07 0)
(0.186384 -2.88798e-07 0)
(0.186383 -2.17235e-07 0)
(0.186383 -1.48555e-07 0)
(0.186383 -8.11833e-08 0)
(0.186382 -1.19665e-08 0)
(0.186382 7.14585e-08 0)
(0.186381 1.94518e-07 0)
(0.195524 0.00907787 0)
(0.197261 0.00999001 0)
(0.198969 0.0101836 0)
(0.200365 0.0099178 0)
(0.201394 0.00937151 0)
(0.202064 0.00867199 0)
(0.202405 0.00792655 0)
(0.202471 0.00720914 0)
(0.202329 0.00655417 0)
(0.202038 0.0059673 0)
(0.201643 0.00543941 0)
(0.201176 0.00495626 0)
(0.200659 0.00450347 0)
(0.20011 0.00406862 0)
(0.199543 0.00364189 0)
(0.198971 0.00321648 0)
(0.198406 0.00278904 0)
(0.197858 0.00236038 0)
(0.197333 0.00193595 0)
(0.196837 0.0015256 0)
(0.196376 0.00114244 0)
(0.195953 0.000800571 0)
(0.195572 0.00051187 0)
(0.195238 0.000282174 0)
(0.194953 0.000108922 0)
(0.19471 -1.49037e-05 0)
(0.194514 -9.69644e-05 0)
(0.194364 -0.0001459 0)
(0.194257 -0.000170227 0)
(0.194185 -0.000177097 0)
(0.194142 -0.000172134 0)
(0.194121 -0.000159627 0)
(0.194116 -0.000142786 0)
(0.194121 -0.000123966 0)
(0.194132 -0.000104859 0)
(0.194145 -8.66379e-05 0)
(0.194157 -7.00572e-05 0)
(0.194167 -5.55431e-05 0)
(0.194174 -4.32634e-05 0)
(0.194178 -3.3192e-05 0)
(0.194178 -2.51672e-05 0)
(0.194175 -1.89435e-05 0)
(0.19417 -1.42356e-05 0)
(0.194164 -1.07529e-05 0)
(0.194156 -8.22398e-06 0)
(0.194148 -6.41205e-06 0)
(0.194139 -5.12169e-06 0)
(0.194131 -4.19957e-06 0)
(0.194123 -3.53064e-06 0)
(0.194116 -3.03228e-06 0)
(0.194109 -2.64744e-06 0)
(0.194103 -2.3382e-06 0)
(0.194098 -2.08012e-06 0)
(0.194093 -1.85787e-06 0)
(0.194089 -1.66202e-06 0)
(0.194085 -1.4867e-06 0)
(0.194082 -1.32819e-06 0)
(0.194079 -1.18403e-06 0)
(0.194076 -1.05239e-06 0)
(0.194074 -9.31882e-07 0)
(0.194072 -8.2131e-07 0)
(0.19407 -7.19659e-07 0)
(0.194069 -6.25965e-07 0)
(0.194067 -5.39339e-07 0)
(0.194066 -4.58918e-07 0)
(0.194065 -3.8385e-07 0)
(0.194064 -3.13301e-07 0)
(0.194063 -2.46405e-07 0)
(0.194062 -1.82279e-07 0)
(0.194062 -1.19944e-07 0)
(0.194061 -5.81674e-08 0)
(0.19406 4.76926e-09 0)
(0.19406 7.27845e-08 0)
(0.194059 1.56841e-07 0)
(0.194059 2.73498e-07 0)
(0.195966 0.00856595 0)
(0.197469 0.00942364 0)
(0.199013 0.00966875 0)
(0.200348 0.00949298 0)
(0.201409 0.00905212 0)
(0.202191 0.00845819 0)
(0.202715 0.00780472 0)
(0.203017 0.00715944 0)
(0.203151 0.00655749 0)
(0.203162 0.0060083 0)
(0.203087 0.00550688 0)
(0.20295 0.00504233 0)
(0.202768 0.00460256 0)
(0.202553 0.00417661 0)
(0.20231 0.00375562 0)
(0.202046 0.00333344 0)
(0.201765 0.00290728 0)
(0.201469 0.00247843 0)
(0.20116 0.00205264 0)
(0.20084 0.00163982 0)
(0.200512 0.00125286 0)
(0.200183 0.000905385 0)
(0.199859 0.000608804 0)
(0.199552 0.000369166 0)
(0.19927 0.000185399 0)
(0.199018 5.08729e-05 0)
(0.198795 -4.23565e-05 0)
(0.198606 -0.000102279 0)
(0.19845 -0.000136615 0)
(0.198325 -0.000152112 0)
(0.198225 -0.000154247 0)
(0.198148 -0.000147319 0)
(0.198089 -0.000134649 0)
(0.198044 -0.000118771 0)
(0.19801 -0.000101582 0)
(0.197983 -8.44697e-05 0)
(0.197961 -6.83998e-05 0)
(0.197942 -5.39878e-05 0)
(0.197925 -4.15637e-05 0)
(0.197909 -3.12306e-05 0)
(0.197893 -2.29221e-05 0)
(0.197878 -1.64558e-05 0)
(0.197862 -1.15812e-05 0)
(0.197848 -8.02013e-06 0)
(0.197833 -5.49806e-06 0)
(0.19782 -3.76509e-06 0)
(0.197807 -2.60843e-06 0)
(0.197795 -1.85687e-06 0)
(0.197784 -1.37939e-06 0)
(0.197774 -1.08037e-06 0)
(0.197764 -8.93058e-07 0)
(0.197756 -7.72856e-07 0)
(0.197749 -6.91317e-07 0)
(0.197742 -6.31084e-07 0)
(0.197736 -5.82035e-07 0)
(0.197731 -5.38515e-07 0)
(0.197727 -4.97529e-07 0)
(0.197723 -4.57589e-07 0)
(0.197719 -4.17994e-07 0)
(0.197716 -3.7848e-07 0)
(0.197713 -3.38951e-07 0)
(0.197711 -2.99416e-07 0)
(0.197709 -2.59859e-07 0)
(0.197707 -2.20242e-07 0)
(0.197705 -1.80474e-07 0)
(0.197703 -1.40389e-07 0)
(0.197702 -9.97551e-08 0)
(0.197701 -5.82388e-08 0)
(0.1977 -1.54061e-08 0)
(0.197699 2.93524e-08 0)
(0.197698 7.70378e-08 0)
(0.197698 1.29389e-07 0)
(0.197697 1.89835e-07 0)
(0.197696 2.66669e-07 0)
(0.197695 3.68605e-07 0)
(0.196367 0.00811342 0)
(0.197668 0.00890696 0)
(0.199042 0.00918321 0)
(0.200276 0.0090776 0)
(0.201294 0.00872215 0)
(0.202087 0.00821569 0)
(0.202666 0.00764 0)
(0.20306 0.0070566 0)
(0.203311 0.00650044 0)
(0.203457 0.00598386 0)
(0.20353 0.00550547 0)
(0.203551 0.00505744 0)
(0.203532 0.00463004 0)
(0.203482 0.0042139 0)
(0.203405 0.00380123 0)
(0.203301 0.00338666 0)
(0.203171 0.0029679 0)
(0.203012 0.00254645 0)
(0.202822 0.00212793 0)
(0.202602 0.00172178 0)
(0.202354 0.00134008 0)
(0.202082 0.000995461 0)
(0.201797 0.000698494 0)
(0.20151 0.000455036 0)
(0.201233 0.000264864 0)
(0.200975 0.000122697 0)
(0.200739 2.10069e-05 0)
(0.200528 -4.77501e-05 0)
(0.200344 -9.06456e-05 0)
(0.200185 -0.000113984 0)
(0.20005 -0.000123016 0)
(0.199937 -0.000121962 0)
(0.199842 -0.000114157 0)
(0.199762 -0.000102205 0)
(0.199696 -8.81104e-05 0)
(0.19964 -7.33817e-05 0)
(0.199593 -5.91101e-05 0)
(0.199552 -4.60341e-05 0)
(0.199517 -3.45963e-05 0)
(0.199486 -2.49983e-05 0)
(0.199458 -1.72548e-05 0)
(0.199433 -1.1246e-05 0)
(0.199411 -6.76653e-06 0)
(0.19939 -3.56761e-06 0)
(0.199371 -1.39149e-06 0)
(0.199353 3.62442e-09 0)
(0.199337 8.29048e-07 0)
(0.199323 1.25852e-06 0)
(0.199309 1.42702e-06 0)
(0.199298 1.43394e-06 0)
(0.199287 1.34888e-06 0)
(0.199277 1.2181e-06 0)
(0.199269 1.07062e-06 0)
(0.199261 9.23601e-07 0)
(0.199254 7.8634e-07 0)
(0.199248 6.63295e-07 0)
(0.199243 5.56052e-07 0)
(0.199238 4.64582e-07 0)
(0.199234 3.88059e-07 0)
(0.19923 3.25262e-07 0)
(0.199227 2.74895e-07 0)
(0.199224 2.35657e-07 0)
(0.199222 2.06385e-07 0)
(0.19922 1.86047e-07 0)
(0.199218 1.73772e-07 0)
(0.199216 1.68871e-07 0)
(0.199215 1.70814e-07 0)
(0.199213 1.79273e-07 0)
(0.199212 1.94118e-07 0)
(0.199211 2.15489e-07 0)
(0.19921 2.43902e-07 0)
(0.199209 2.8058e-07 0)
(0.199208 3.28235e-07 0)
(0.199208 3.92958e-07 0)
(0.199207 4.76608e-07 0)
(0.196731 0.0077111 0)
(0.197861 0.00843738 0)
(0.199079 0.00873024 0)
(0.200204 0.00868061 0)
(0.20116 0.00839696 0)
(0.201927 0.00796573 0)
(0.202512 0.00745844 0)
(0.202938 0.0069305 0)
(0.203235 0.00641592 0)
(0.203439 0.00592918 0)
(0.203577 0.00547191 0)
(0.203666 0.00503917 0)
(0.20372 0.00462346 0)
(0.203744 0.00421712 0)
(0.203742 0.00381358 0)
(0.203711 0.0034083 0)
(0.203652 0.0029995 0)
(0.203559 0.00258879 0)
(0.203429 0.0021815 0)
(0.203261 0.00178634 0)
(0.203057 0.00141429 0)
(0.202821 0.00107681 0)
(0.202563 0.000783488 0)
(0.202293 0.00053984 0)
(0.202024 0.000346149 0)
(0.201767 0.000198266 0)
(0.201526 8.96956e-05 0)
(0.201307 1.34524e-05 0)
(0.201109 -3.70365e-05 0)
(0.200934 -6.76266e-05 0)
(0.200781 -8.33194e-05 0)
(0.200648 -8.82142e-05 0)
(0.200533 -8.56096e-05 0)
(0.200434 -7.81247e-05 0)
(0.20035 -6.78106e-05 0)
(0.200277 -5.62398e-05 0)
(0.200215 -4.45766e-05 0)
(0.200162 -3.36362e-05 0)
(0.200115 -2.39373e-05 0)
(0.200075 -1.57536e-05 0)
(0.20004 -9.16507e-06 0)
(0.20001 -4.10916e-06 0)
(0.199982 -4.28441e-07 0)
(0.199958 2.08756e-06 0)
(0.199936 3.66792e-06 0)
(0.199916 4.53429e-06 0)
(0.199899 4.88443e-06 0)
(0.199883 4.88345e-06 0)
(0.199868 4.66079e-06 0)
(0.199856 4.31219e-06 0)
(0.199844 3.90451e-06 0)
(0.199834 3.48172e-06 0)
(0.199825 3.07087e-06 0)
(0.199816 2.6872e-06 0)
(0.199809 2.33813e-06 0)
(0.199803 2.02619e-06 0)
(0.199797 1.75105e-06 0)
(0.199792 1.5108e-06 0)
(0.199787 1.3028e-06 0)
(0.199784 1.12413e-06 0)
(0.19978 9.71894e-07 0)
(0.199777 8.43324e-07 0)
(0.199774 7.3592e-07 0)
(0.199772 6.47442e-07 0)
(0.19977 5.75929e-07 0)
(0.199768 5.19723e-07 0)
(0.199766 4.7743e-07 0)
(0.199765 4.47958e-07 0)
(0.199764 4.30507e-07 0)
(0.199763 4.24623e-07 0)
(0.199762 4.30288e-07 0)
(0.199761 4.48195e-07 0)
(0.19976 4.80261e-07 0)
(0.199759 5.30485e-07 0)
(0.199758 5.95128e-07 0)
(0.19706 0.00735097 0)
(0.198047 0.00801096 0)
(0.199125 0.00830964 0)
(0.200146 0.00830445 0)
(0.201035 0.00808182 0)
(0.201765 0.00771633 0)
(0.202338 0.00727036 0)
(0.20277 0.00679344 0)
(0.203087 0.00631801 0)
(0.203316 0.00585992 0)
(0.203482 0.00542327 0)
(0.203601 0.00500561 0)
(0.203686 0.00460162 0)
(0.203741 0.00420528 0)
(0.203769 0.00381129 0)
(0.203769 0.00341598 0)
(0.203739 0.00301809 0)
(0.203676 0.00261934 0)
(0.203574 0.0022247 0)
(0.203433 0.00184209 0)
(0.203254 0.00148138 0)
(0.203041 0.00115281 0)
(0.202802 0.000865004 0)
(0.202548 0.00062306 0)
(0.202291 0.000427624 0)
(0.20204 0.000275434 0)
(0.201802 0.000160988 0)
(0.201582 7.80858e-05 0)
(0.201382 2.06554e-05 0)
(0.201201 -1.67862e-05 0)
(0.201041 -3.8944e-05 0)
(0.2009 -4.97752e-05 0)
(0.200776 -5.25134e-05 0)
(0.200669 -4.97617e-05 0)
(0.200576 -4.35849e-05 0)
(0.200496 -3.5587e-05 0)
(0.200426 -2.69755e-05 0)
(0.200367 -1.86155e-05 0)
(0.200315 -1.10802e-05 0)
(0.200271 -4.6993e-06 0)
(0.200232 3.9102e-07 0)
(0.200198 4.20096e-06 0)
(0.200168 6.84071e-06 0)
(0.200142 8.47938e-06 0)
(0.200119 9.31184e-06 0)
(0.200098 9.53321e-06 0)
(0.20008 9.32081e-06 0)
(0.200063 8.82392e-06 0)
(0.200048 8.16033e-06 0)
(0.200035 7.41735e-06 0)
(0.200023 6.65582e-06 0)
(0.200013 5.91533e-06 0)
(0.200003 5.21949e-06 0)
(0.199995 4.58069e-06 0)
(0.199987 4.00378e-06 0)
(0.199981 3.48894e-06 0)
(0.199975 3.0336e-06 0)
(0.19997 2.63373e-06 0)
(0.199965 2.2847e-06 0)
(0.199961 1.98172e-06 0)
(0.199958 1.72017e-06 0)
(0.199954 1.49572e-06 0)
(0.199952 1.30441e-06 0)
(0.199949 1.14273e-06 0)
(0.199947 1.00753e-06 0)
(0.199945 8.96125e-07 0)
(0.199944 8.06188e-07 0)
(0.199942 7.35806e-07 0)
(0.199941 6.83455e-07 0)
(0.19994 6.48038e-07 0)
(0.199939 6.28965e-07 0)
(0.199938 6.26332e-07 0)
(0.199937 6.41207e-07 0)
(0.199936 6.75711e-07 0)
(0.199935 7.22102e-07 0)
(0.197359 0.00702641 0)
(0.198224 0.0076235 0)
(0.19918 0.00792003 0)
(0.200104 0.00794942 0)
(0.200925 0.00777855 0)
(0.201615 0.00747069 0)
(0.202169 0.00708001 0)
(0.202598 0.00665046 0)
(0.202921 0.00621244 0)
(0.203163 0.00578248 0)
(0.203342 0.0053666 0)
(0.203476 0.00496447 0)
(0.203574 0.00457271 0)
(0.203641 0.00418687 0)
(0.203682 0.00380288 0)
(0.203694 0.00341795 0)
(0.203677 0.00303132 0)
(0.203625 0.00264484 0)
(0.203537 0.00226313 0)
(0.203411 0.00189334 0)
(0.203247 0.00154432 0)
(0.203051 0.00122516 0)
(0.202828 0.000943566 0)
(0.202589 0.000704239 0)
(0.202345 0.000508074 0)
(0.202104 0.000352549 0)
(0.201874 0.000233023 0)
(0.201659 0.000144042 0)
(0.201461 8.01242e-05 0)
(0.201281 3.61846e-05 0)
(0.20112 7.75321e-06 0)
(0.200978 -8.95102e-06 0)
(0.200852 -1.70665e-05 0)
(0.200742 -1.91559e-05 0)
(0.200646 -1.72775e-05 0)
(0.200562 -1.30494e-05 0)
(0.20049 -7.70607e-06 0)
(0.200428 -2.14929e-06 0)
(0.200374 3.00497e-06 0)
(0.200328 7.37985e-06 0)
(0.200288 1.07905e-05 0)
(0.200253 1.31976e-05 0)
(0.200222 1.46646e-05 0)
(0.200195 1.5319e-05 0)
(0.200171 1.53193e-05 0)
(0.20015 1.48301e-05 0)
(0.200131 1.40039e-05 0)
(0.200115 1.29709e-05 0)
(0.200099 1.18346e-05 0)
(0.200086 1.06717e-05 0)
(0.200074 9.53569e-06 0)
(0.200063 8.46042e-06 0)
(0.200054 7.46526e-06 0)
(0.200045 6.55909e-06 0)
(0.200038 5.74379e-06 0)
(0.200031 5.01685e-06 0)
(0.200025 4.37323e-06 0)
(0.20002 3.80665e-06 0)
(0.200015 3.31033e-06 0)
(0.200011 2.87753e-06 0)
(0.200008 2.50183e-06 0)
(0.200004 2.17722e-06 0)
(0.200002 1.89827e-06 0)
(0.199999 1.66008e-06 0)
(0.199997 1.45833e-06 0)
(0.199995 1.28921e-06 0)
(0.199994 1.14944e-06 0)
(0.199992 1.03624e-06 0)
(0.199991 9.47329e-07 0)
(0.19999 8.80941e-07 0)
(0.199989 8.35869e-07 0)
(0.199988 8.11581e-07 0)
(0.199987 8.0829e-07 0)
(0.199986 8.26522e-07 0)
(0.199985 8.56056e-07 0)
(0.197629 0.00673207 0)
(0.198392 0.00727088 0)
(0.19924 0.0075596 0)
(0.200074 0.00761518 0)
(0.200831 0.00748789 0)
(0.201479 0.00723044 0)
(0.202011 0.00688955 0)
(0.202431 0.00650396 0)
(0.202756 0.00610174 0)
(0.203003 0.00569952 0)
(0.203191 0.0053047 0)
(0.203332 0.00491873 0)
(0.203437 0.00453989 0)
(0.203511 0.00416521 0)
(0.203556 0.00379174 0)
(0.203574 0.00341754 0)
(0.203561 0.00304235 0)
(0.203516 0.00266811 0)
(0.203436 0.00229915 0)
(0.203319 0.00194196 0)
(0.203167 0.00160441 0)
(0.202984 0.0012946 0)
(0.202776 0.00101939 0)
(0.202552 0.000783108 0)
(0.202321 0.000586829 0)
(0.202092 0.000428644 0)
(0.201871 0.000304673 0)
(0.201663 0.000210147 0)
(0.20147 0.000140137 0)
(0.201295 8.99711e-05 0)
(0.201136 5.54653e-05 0)
(0.200995 3.30095e-05 0)
(0.20087 1.95652e-05 0)
(0.20076 1.26237e-05 0)
(0.200664 1.01497e-05 0)
(0.20058 1.05259e-05 0)
(0.200507 1.25022e-05 0)
(0.200444 1.51499e-05 0)
(0.20039 1.78169e-05 0)
(0.200343 2.00839e-05 0)
(0.200302 2.17199e-05 0)
(0.200267 2.26392e-05 0)
(0.200236 2.28603e-05 0)
(0.200208 2.24685e-05 0)
(0.200184 2.15851e-05 0)
(0.200163 2.03427e-05 0)
(0.200144 1.88679e-05 0)
(0.200127 1.72705e-05 0)
(0.200112 1.56385e-05 0)
(0.200099 1.40372e-05 0)
(0.200087 1.25113e-05 0)
(0.200076 1.10886e-05 0)
(0.200066 9.78336e-06 0)
(0.200058 8.60066e-06 0)
(0.20005 7.53906e-06 0)
(0.200044 6.59313e-06 0)
(0.200038 5.75523e-06 0)
(0.200032 5.01665e-06 0)
(0.200028 4.3684e-06 0)
(0.200024 3.80169e-06 0)
(0.20002 3.30822e-06 0)
(0.200017 2.88029e-06 0)
(0.200014 2.51092e-06 0)
(0.200012 2.19382e-06 0)
(0.20001 1.92338e-06 0)
(0.200008 1.6947e-06 0)
(0.200006 1.50348e-06 0)
(0.200005 1.34606e-06 0)
(0.200003 1.21939e-06 0)
(0.200002 1.12098e-06 0)
(0.200001 1.049e-06 0)
(0.2 1.00227e-06 0)
(0.199999 9.80167e-07 0)
(0.199998 9.81906e-07 0)
(0.199998 9.9603e-07 0)
(0.197875 0.0064636 0)
(0.19855 0.00694929 0)
(0.199303 0.00722643 0)
(0.200056 0.00730115 0)
(0.200751 0.00721018 0)
(0.201358 0.00699662 0)
(0.201864 0.0067004 0)
(0.202273 0.00635543 0)
(0.202596 0.00598731 0)
(0.202845 0.00561232 0)
(0.203037 0.00523878 0)
(0.203184 0.00486954 0)
(0.203293 0.00450434 0)
(0.20337 0.00414147 0)
(0.203419 0.00377905 0)
(0.203439 0.00341591 0)
(0.203429 0.00305225 0)
(0.203388 0.00269013 0)
(0.203314 0.00233363 0)
(0.203205 0.00198862 0)
(0.203063 0.00166215 0)
(0.202892 0.00136142 0)
(0.202697 0.00109256 0)
(0.202487 0.000859539 0)
(0.202269 0.000663567 0)
(0.202052 0.000503245 0)
(0.201841 0.000375357 0)
(0.201641 0.000275763 0)
(0.201456 0.000200056 0)
(0.201285 0.000143967 0)
(0.201131 0.000103596 0)
(0.200993 7.55232e-05 0)
(0.20087 5.6829e-05 0)
(0.200761 4.50726e-05 0)
(0.200666 3.82511e-05 0)
(0.200583 3.47558e-05 0)
(0.20051 3.3328e-05 0)
(0.200447 3.30176e-05 0)
(0.200393 3.31415e-05 0)
(0.200346 3.32422e-05 0)
(0.200305 3.30466e-05 0)
(0.200269 3.24245e-05 0)
(0.200238 3.13505e-05 0)
(0.200211 2.98687e-05 0)
(0.200187 2.80632e-05 0)
(0.200165 2.60349e-05 0)
(0.200146 2.3884e-05 0)
(0.200129 2.16993e-05 0)
(0.200114 1.95527e-05 0)
(0.200101 1.74972e-05 0)
(0.200089 1.55685e-05 0)
(0.200078 1.37874e-05 0)
(0.200069 1.2163e-05 0)
(0.20006 1.06959e-05 0)
(0.200053 9.38126e-06 0)
(0.200046 8.21048e-06 0)
(0.20004 7.17316e-06 0)
(0.200035 6.25808e-06 0)
(0.20003 5.45395e-06 0)
(0.200026 4.74985e-06 0)
(0.200023 4.13557e-06 0)
(0.20002 3.60165e-06 0)
(0.200017 3.13951e-06 0)
(0.200014 2.74143e-06 0)
(0.200012 2.40051e-06 0)
(0.20001 2.1107e-06 0)
(0.200009 1.86668e-06 0)
(0.200007 1.66388e-06 0)
(0.200006 1.49842e-06 0)
(0.200005 1.36712e-06 0)
(0.200004 1.26748e-06 0)
(0.200003 1.19766e-06 0)
(0.200002 1.15625e-06 0)
(0.200001 1.14142e-06 0)
(0.2 1.14136e-06 0)
(0.198097 0.0062175 0)
(0.198697 0.0066553 0)
(0.199368 0.00691854 0)
(0.200047 0.00700664 0)
(0.200684 0.00694562 0)
(0.201249 0.00677005 0)
(0.20173 0.00651371 0)
(0.202125 0.00620608 0)
(0.202442 0.00587023 0)
(0.202691 0.00552177 0)
(0.202886 0.00516954 0)
(0.203035 0.00481748 0)
(0.203147 0.0044665 0)
(0.203227 0.00411604 0)
(0.203278 0.00376514 0)
(0.2033 0.00341335 0)
(0.203293 0.0030613 0)
(0.203255 0.00271116 0)
(0.203186 0.00236678 0)
(0.203084 0.00203352 0)
(0.202951 0.0017177 0)
(0.202791 0.00142573 0)
(0.202609 0.0011631 0)
(0.202412 0.000933472 0)
(0.202207 0.000738137 0)
(0.202002 0.000576122 0)
(0.201802 0.000444788 0)
(0.201611 0.000340568 0)
(0.201433 0.000259546 0)
(0.201268 0.00019784 0)
(0.201119 0.000151837 0)
(0.200984 0.000118314 0)
(0.200864 9.44816e-05 0)
(0.200757 7.79764e-05 0)
(0.200663 6.68392e-05 0)
(0.200581 5.94783e-05 0)
(0.200509 5.4634e-05 0)
(0.200447 5.13401e-05 0)
(0.200392 4.88871e-05 0)
(0.200345 4.6783e-05 0)
(0.200304 4.47148e-05 0)
(0.200269 4.25105e-05 0)
(0.200238 4.01022e-05 0)
(0.20021 3.7494e-05 0)
(0.200186 3.47339e-05 0)
(0.200165 3.18911e-05 0)
(0.200146 2.90396e-05 0)
(0.200129 2.62469e-05 0)
(0.200114 2.35683e-05 0)
(0.200101 2.10443e-05 0)
(0.200089 1.87008e-05 0)
(0.200078 1.65513e-05 0)
(0.200069 1.45991e-05 0)
(0.20006 1.28404e-05 0)
(0.200053 1.12664e-05 0)
(0.200046 9.8654e-06 0)
(0.20004 8.62395e-06 0)
(0.200035 7.52825e-06 0)
(0.200031 6.56461e-06 0)
(0.200027 5.71996e-06 0)
(0.200023 4.98207e-06 0)
(0.20002 4.33971e-06 0)
(0.200017 3.78265e-06 0)
(0.200015 3.30171e-06 0)
(0.200013 2.88868e-06 0)
(0.200011 2.53632e-06 0)
(0.200009 2.23826e-06 0)
(0.200008 1.98899e-06 0)
(0.200006 1.78383e-06 0)
(0.200005 1.61884e-06 0)
(0.200004 1.49086e-06 0)
(0.200003 1.39738e-06 0)
(0.200003 1.33627e-06 0)
(0.200002 1.30484e-06 0)
(0.200001 1.29152e-06 0)
(0.198299 0.00599098 0)
(0.198834 0.00638588 0)
(0.199432 0.00663401 0)
(0.200044 0.00673086 0)
(0.200627 0.00669423 0)
(0.201152 0.00655135 0)
(0.201606 0.00633044 0)
(0.201985 0.00605694 0)
(0.202294 0.00575145 0)
(0.202542 0.00542865 0)
(0.202737 0.00509758 0)
(0.202888 0.00476295 0)
(0.203002 0.00442665 0)
(0.203084 0.00408908 0)
(0.203136 0.00375011 0)
(0.20316 0.00340991 0)
(0.203155 0.00306951 0)
(0.203121 0.00273119 0)
(0.203056 0.00239861 0)
(0.202961 0.00207668 0)
(0.202838 0.00177108 0)
(0.202689 0.00148755 0)
(0.202519 0.00123103 0)
(0.202334 0.00100488 0)
(0.202142 0.000810456 0)
(0.201948 0.000647143 0)
(0.201758 0.0005128 0)
(0.201576 0.000404376 0)
(0.201405 0.000318412 0)
(0.201247 0.000251399 0)
(0.201103 0.000200008 0)
(0.200972 0.000161217 0)
(0.200854 0.000132374 0)
(0.20075 0.000111206 0)
(0.200658 9.58039e-05 0)
(0.200577 8.46023e-05 0)
(0.200506 7.63458e-05 0)
(0.200444 7.00578e-05 0)
(0.20039 6.50064e-05 0)
(0.200344 6.06689e-05 0)
(0.200303 5.66955e-05 0)