/*--------------------------------*- C++ -*----------------------------------*\
| =========                 |                                                 |
| \\      /  F ield         | OpenFOAM: The Open Source CFD Toolbox           |
|  \\    /   O peration     | Version:  2.3.0                                 |
|   \\  /    A nd           | Web:      www.OpenFOAM.org                      |
|    \\/     M anipulation  |                                                 |
\*---------------------------------------------------------------------------*/
FoamFile
{
    version     2.0;
    format      ascii;
    class       surfaceScalarField;
    location    "0.6";
    object      phi_0;
}
// * * * * * * * * * * * * * * * * * * * * * * * * * * * * * * * * * * * * * //

dimensions      [0 3 -1 0 0 0 0];

internalField   nonuniform List<scalar> 
6068
(
2.82985e-08
2.8326e-09
-3.11311e-08
2.54391e-08
2.8594e-09
2.27439e-08
2.6952e-09
2.02577e-08
2.48617e-09
1.79978e-08
2.25996e-09
1.5975e-08
2.02283e-09
1.41922e-08
1.7828e-09
1.26444e-08
1.54776e-09
1.13199e-08
1.32447e-09
1.02015e-08
1.11845e-09
9.26774e-09
9.3374e-10
8.495e-09
7.72737e-10
7.85888e-09
6.36117e-10
7.33583e-09
5.23051e-10
6.90428e-09
4.31552e-10
6.54538e-09
3.58902e-10
6.24332e-09
3.02061e-10
5.98531e-09
2.58007e-10
5.76133e-09
2.23978e-10
5.56373e-09
1.97598e-10
5.3868e-09
1.76934e-10
5.22633e-09
1.60472e-10
5.07926e-09
1.47074e-10
4.94335e-09
1.35909e-10
4.81696e-09
1.26387e-10
4.69886e-09
1.18096e-10
4.58811e-09
1.10753e-10
4.48395e-09
1.04164e-10
4.38575e-09
9.81954e-11
4.293e-09
9.2753e-11
4.20523e-09
8.77671e-11
4.12205e-09
8.31844e-11
4.04308e-09
7.8962e-11
3.96802e-09
7.50636e-11
3.89656e-09
7.14578e-11
3.82845e-09
6.81167e-11
3.76343e-09
6.50155e-11
3.7013e-09
6.21318e-11
3.64185e-09
5.94455e-11
3.58491e-09
5.69385e-11
3.53032e-09
5.45945e-11
3.47792e-09
5.23991e-11
3.42758e-09
5.03392e-11
3.37918e-09
4.84034e-11
3.3326e-09
4.65811e-11
3.28773e-09
4.4863e-11
3.24449e-09
4.32408e-11
3.20279e-09
4.17069e-11
3.16253e-09
4.02546e-11
3.12365e-09
3.88777e-11
3.08608e-09
3.75707e-11
3.04976e-09
3.63284e-11
3.01461e-09
3.51463e-11
2.98059e-09
3.40201e-11
2.94764e-09
3.29459e-11
2.91572e-09
3.19201e-11
2.88478e-09
3.09396e-11
2.85478e-09
3.00011e-11
2.82568e-09
2.91019e-11
2.79744e-09
2.82394e-11
2.77003e-09
2.74111e-11
2.74341e-09
2.66148e-11
2.71757e-09
2.58485e-11
2.69246e-09
2.51101e-11
2.66806e-09
2.43978e-11
2.64435e-09
2.37099e-11
2.6213e-09
2.30449e-11
2.5989e-09
2.24013e-11
2.57712e-09
2.17777e-11
2.55595e-09
2.11728e-11
2.53537e-09
2.05855e-11
2.51535e-09
2.00147e-11
2.49589e-09
1.94594e-11
2.47697e-09
1.89187e-11
2.45858e-09
1.83917e-11
2.4407e-09
1.78777e-11
2.42333e-09
1.73761e-11
2.40644e-09
1.68862e-11
2.39003e-09
1.64077e-11
2.37409e-09
1.59401e-11
2.35861e-09
1.54832e-11
2.34357e-09
1.50368e-11
2.32897e-09
1.46008e-11
2.3148e-09
1.41754e-11
2.30104e-09
1.37608e-11
2.28768e-09
1.33574e-11
2.27471e-09
1.29658e-11
2.26213e-09
1.2587e-11
2.2499e-09
1.2222e-11
2.23803e-09
1.18725e-11
2.22649e-09
1.15408e-11
2.21526e-09
1.12298e-11
2.20432e-09
1.09441e-11
2.19363e-09
1.06906e-11
2.18315e-09
1.04809e-11
2.17281e-09
1.03375e-11
2.16249e-09
1.03154e-11
2.15196e-09
1.05368e-11
2.14067e-09
1.12819e-11
3.03638e-11
3.40065e-08
3.12078e-09
-3.42947e-08
3.34176e-08
3.44832e-09
3.259e-08
3.52287e-09
3.16025e-08
3.47365e-09
3.05122e-08
3.35021e-09
2.9365e-08
3.17007e-09
2.81981e-08
2.94972e-09
2.70403e-08
2.70553e-09
2.59131e-08
2.45173e-09
2.48314e-08
2.20012e-09
2.38051e-08
1.96001e-09
2.28398e-08
1.73807e-09
2.19375e-08
1.53835e-09
2.10981e-08
1.36249e-09
2.03194e-08
1.21024e-09
1.95983e-08
1.08e-09
1.8931e-08
9.69411e-10
1.83132e-08
8.75747e-10
1.77409e-08
7.96308e-10
1.72099e-08
7.28607e-10
1.67163e-08
6.70485e-10
1.62567e-08
6.20143e-10
1.58276e-08
5.76127e-10
1.54262e-08
5.37284e-10
1.50499e-08
5.02712e-10
1.46963e-08
4.71712e-10
1.43633e-08
4.43736e-10
1.40491e-08
4.18356e-10
1.37521e-08
3.95228e-10
1.34708e-08
3.74076e-10
1.32039e-08
3.54668e-10
1.29502e-08
3.36812e-10
1.27089e-08
3.20343e-10
1.24788e-08
3.05118e-10
1.22592e-08
2.91011e-10
1.20495e-08
2.77914e-10
1.18487e-08
2.65728e-10
1.16565e-08
2.54369e-10
1.14722e-08
2.43759e-10
1.12953e-08
2.33831e-10
1.11254e-08
2.24524e-10
1.0962e-08
2.15784e-10
1.08048e-08
2.07563e-10
1.06533e-08
1.99819e-10
1.05074e-08
1.92511e-10
1.03667e-08
1.85606e-10
1.02308e-08
1.79072e-10
1.00997e-08
1.72881e-10
9.97291e-09
1.67008e-10
9.85036e-09
1.61429e-10
9.73181e-09
1.56124e-10
9.61706e-09
1.51072e-10
9.50595e-09
1.46256e-10
9.39831e-09
1.4166e-10
9.29399e-09
1.3727e-10
9.19284e-09
1.3307e-10
9.09473e-09
1.29049e-10
8.99954e-09
1.25195e-10
8.90714e-09
1.21496e-10
8.81744e-09
1.17943e-10
8.73032e-09
1.14526e-10
8.6457e-09
1.11235e-10
8.56349e-09
1.08064e-10
8.48359e-09
1.05004e-10
8.40594e-09
1.02047e-10
8.33047e-09
9.91877e-11
8.25709e-09
9.64187e-11
8.18576e-09
9.37345e-11
8.11641e-09
9.11293e-11
8.04898e-09
8.8598e-11
7.98343e-09
8.61356e-11
7.91971e-09
8.37377e-11
7.85777e-09
8.14e-11
7.79757e-09
7.91185e-11
7.73907e-09
7.68898e-11
7.68224e-09
7.47104e-11
7.62704e-09
7.25774e-11
7.57344e-09
7.04882e-11
7.5214e-09
6.84404e-11
7.47091e-09
6.6432e-11
7.42193e-09
6.44615e-11
7.37444e-09
6.25277e-11
7.32841e-09
6.06296e-11
7.28382e-09
5.87671e-11
7.24064e-09
5.69404e-11
7.19885e-09
5.51504e-11
7.15842e-09
5.33985e-11
7.11931e-09
5.16874e-11
7.08152e-09
5.00205e-11
7.04499e-09
4.84028e-11
7.00969e-09
4.68414e-11
6.97557e-09
4.53461e-11
6.94258e-09
4.3931e-11
6.91065e-09
4.26181e-11
6.87969e-09
4.14439e-11
6.84955e-09
4.04806e-11
6.81997e-09
3.98956e-11
6.79038e-09
4.0128e-11
6.75732e-09
4.43422e-11
7.65561e-11
3.60983e-08
2.98024e-09
-3.59578e-08
3.61652e-08
3.38143e-09
3.61072e-08
3.58083e-09
3.59257e-08
3.65524e-09
3.56313e-08
3.64454e-09
3.52382e-08
3.56316e-09
3.47634e-08
3.42451e-09
3.42247e-08
3.24423e-09
3.3639e-08
3.0375e-09
3.30213e-08
2.81781e-09
3.23847e-08
2.59658e-09
3.174e-08
2.38278e-09
3.10957e-08
2.1827e-09
3.04581e-08
2.00008e-09
2.98318e-08
1.83648e-09
2.92201e-08
1.69177e-09
2.86248e-08
1.56471e-09
2.80471e-08
1.45344e-09
2.74875e-08
1.35586e-09
2.69462e-08
1.2699e-09
2.64231e-08
1.19366e-09
2.59177e-08
1.12551e-09
2.54297e-08
1.06411e-09
2.49586e-08
1.00835e-09
2.4504e-08
9.57381e-10
2.40652e-08
9.10508e-10
2.36417e-08
8.67197e-10
2.3233e-08
8.2702e-10
2.28386e-08
7.89633e-10
2.2458e-08
7.54754e-10
2.20905e-08
7.22146e-10
2.17357e-08
6.91607e-10
2.13931e-08
6.62962e-10
2.10621e-08
6.36056e-10
2.07424e-08
6.1075e-10
2.04334e-08
5.8692e-10
2.01347e-08
5.64453e-10
1.98458e-08
5.43246e-10
1.95663e-08
5.23206e-10
1.92959e-08
5.04247e-10
1.90342e-08
4.86293e-10
1.87807e-08
4.69272e-10
1.85351e-08
4.53118e-10
1.82972e-08
4.37772e-10
1.80665e-08
4.23179e-10
1.78428e-08
4.09289e-10
1.76258e-08
3.96055e-10
1.74153e-08
3.83435e-10
1.72109e-08
3.71389e-10
1.70124e-08
3.59881e-10
1.68197e-08
3.48876e-10
1.66324e-08
3.38344e-10
1.64504e-08
3.28254e-10
1.62735e-08
3.1858e-10
1.61015e-08
3.09297e-10
1.59342e-08
3.0038e-10
1.57714e-08
2.91807e-10
1.5613e-08
2.83557e-10
1.54589e-08
2.7561e-10
1.53089e-08
2.67949e-10
1.51629e-08
2.60555e-10
1.50207e-08
2.53413e-10
1.48823e-08
2.46506e-10
1.47475e-08
2.3982e-10
1.46162e-08
2.33341e-10
1.44883e-08
2.27057e-10
1.43638e-08
2.20954e-10
1.42425e-08
2.15021e-10
1.41244e-08
2.09248e-10
1.40093e-08
2.03622e-10
1.38973e-08
1.98135e-10
1.37883e-08
1.92778e-10
1.36821e-08
1.87541e-10
1.35788e-08
1.82417e-10
1.34783e-08
1.77397e-10
1.33806e-08
1.72476e-10
1.32855e-08
1.67645e-10
1.31931e-08
1.629e-10
1.31033e-08
1.58236e-10
1.30161e-08
1.53647e-10
1.29314e-08
1.4913e-10
1.28493e-08
1.44681e-10
1.27696e-08
1.403e-10
1.26924e-08
1.35983e-10
1.26176e-08
1.31731e-10
1.25452e-08
1.27546e-10
1.24752e-08
1.23429e-10
1.24075e-08
1.19384e-10
1.23421e-08
1.15419e-10
1.22789e-08
1.11542e-10
1.2218e-08
1.07766e-10
1.21592e-08
1.0411e-10
1.21026e-08
1.00601e-10
1.20479e-08
9.72785e-11
1.19951e-08
9.42125e-11
1.19441e-08
9.15382e-11
1.18944e-08
8.95744e-11
1.18452e-08
8.92836e-11
1.17934e-08
9.61971e-11
1.31648e-10
3.76651e-08
2.79667e-09
-3.74815e-08
3.78621e-08
3.1844e-09
3.80229e-08
3.42003e-09
3.81301e-08
3.54802e-09
3.81765e-08
3.59815e-09
3.81578e-08
3.58188e-09
3.80738e-08
3.5085e-09
3.79281e-08
3.38996e-09
3.77266e-08
3.239e-09
3.74767e-08
3.06772e-09
3.71864e-08
2.88689e-09
3.68636e-08
2.70552e-09
3.65158e-08
2.53049e-09
3.61495e-08
2.36644e-09
3.577e-08
2.21598e-09
3.53817e-08
2.08005e-09
3.4988e-08
1.95838e-09
3.45915e-08
1.84993e-09
3.41941e-08
1.75326e-09
3.37972e-08
1.66679e-09
3.34019e-08
1.58897e-09
3.3009e-08
1.51844e-09
3.26191e-08
1.45402e-09
3.22327e-08
1.39474e-09
3.18503e-08
1.3398e-09
3.14722e-08
1.2886e-09
3.10987e-08
1.24063e-09
3.07302e-08
1.19552e-09
3.03669e-08
1.15295e-09
3.0009e-08
1.11268e-09
2.96566e-08
1.0745e-09
2.931e-08
1.03824e-09
2.89692e-08
1.00375e-09
2.86344e-08
9.70913e-10
2.83055e-08
9.39604e-10
2.79827e-08
9.09725e-10
2.7666e-08
8.81185e-10
2.73553e-08
8.539e-10
2.70507e-08
8.27794e-10
2.67522e-08
8.02797e-10
2.64596e-08
7.78844e-10
2.6173e-08
7.55875e-10
2.58923e-08
7.33835e-10
2.56174e-08
7.12674e-10
2.53482e-08
6.92343e-10
2.50847e-08
6.72798e-10
2.48268e-08
6.53998e-10
2.45743e-08
6.35903e-10
2.43272e-08
6.18477e-10
2.40854e-08
6.01685e-10
2.38488e-08
5.85496e-10
2.36173e-08
5.69877e-10
2.33907e-08
5.54801e-10
2.31691e-08
5.40239e-10
2.29522e-08
5.26164e-10
2.274e-08
5.12553e-10
2.25325e-08
4.9938e-10
2.23294e-08
4.86622e-10
2.21307e-08
4.74258e-10
2.19364e-08
4.62267e-10
2.17463e-08
4.50628e-10
2.15604e-08
4.39323e-10
2.13786e-08
4.28331e-10
2.12008e-08
4.17636e-10
2.10269e-08
4.07221e-10
2.08569e-08
3.97068e-10
2.06907e-08
3.87162e-10
2.05282e-08
3.77488e-10
2.03694e-08
3.6803e-10
2.02143e-08
3.58776e-10
2.00627e-08
3.49711e-10
1.99147e-08
3.40824e-10
1.97701e-08
3.32101e-10
1.9629e-08
3.23531e-10
1.94913e-08
3.15103e-10
1.9357e-08
3.06808e-10
1.9226e-08
2.98635e-10
1.90983e-08
2.90576e-10
1.89739e-08
2.82624e-10
1.88528e-08
2.7477e-10
1.87349e-08
2.67011e-10
1.86202e-08
2.59339e-10
1.85088e-08
2.51753e-10
1.84005e-08
2.44249e-10
1.82954e-08
2.36828e-10
1.81935e-08
2.2949e-10
1.80947e-08
2.22239e-10
1.7999e-08
2.15081e-10
1.79064e-08
2.08027e-10
1.78168e-08
2.0109e-10
1.77303e-08
1.94289e-10
1.76468e-08
1.87653e-10
1.75661e-08
1.81223e-10
1.74884e-08
1.75059e-10
1.74133e-08
1.69267e-10
1.73408e-08
1.64048e-10
1.72705e-08
1.59879e-10
1.72016e-08
1.58211e-10
1.71326e-08
1.652e-10
1.96424e-10
3.91912e-08
2.63435e-09
-3.90289e-08
3.93895e-08
2.98608e-09
3.95866e-08
3.22297e-09
3.97659e-08
3.36867e-09
3.9919e-08
3.44506e-09
4.00385e-08
3.46241e-09
4.01189e-08
3.4281e-09
4.01575e-08
3.35132e-09
4.01542e-08
3.24236e-09
4.01106e-08
3.11134e-09
4.00299e-08
2.96754e-09
3.99164e-08
2.81901e-09
3.97747e-08
2.67222e-09
3.96093e-08
2.53187e-09
3.94243e-08
2.40092e-09
3.92235e-08
2.28086e-09
3.90099e-08
2.17204e-09
3.87858e-08
2.07402e-09
3.85532e-08
1.98588e-09
3.83135e-08
1.90645e-09
3.80679e-08
1.83455e-09
3.78173e-08
1.76902e-09
3.75625e-08
1.70888e-09
3.7304e-08
1.65325e-09
3.70423e-08
1.60145e-09
3.6778e-08
1.55289e-09
3.65115e-08
1.50713e-09
3.62432e-08
1.4638e-09
3.59736e-08
1.42262e-09
3.57029e-08
1.38337e-09
3.54315e-08
1.34585e-09
3.51599e-08
1.30992e-09
3.48882e-08
1.27544e-09
3.46168e-08
1.24232e-09
3.43459e-08
1.21044e-09
3.40759e-08
1.17974e-09
3.3807e-08
1.15014e-09
3.35393e-08
1.12156e-09
3.32731e-08
1.09396e-09
3.30086e-08
1.06728e-09
3.2746e-08
1.04147e-09
3.24854e-08
1.01648e-09
3.2227e-08
9.92283e-10
3.19708e-08
9.68827e-10
3.17171e-08
9.46084e-10
3.14658e-08
9.24019e-10
3.12172e-08
9.02602e-10
3.09713e-08
8.81805e-10
3.07282e-08
8.61601e-10
3.04879e-08
8.41964e-10
3.02506e-08
8.2287e-10
3.00161e-08
8.04295e-10
2.97847e-08
7.86217e-10
2.95563e-08
7.68615e-10
2.9331e-08
7.51468e-10
2.91088e-08
7.34755e-10
2.88898e-08
7.18458e-10
2.86738e-08
7.02558e-10
2.84611e-08
6.87035e-10
2.82514e-08
6.71872e-10
2.8045e-08
6.57051e-10
2.78418e-08
6.42555e-10
2.76418e-08
6.28367e-10
2.74449e-08
6.14471e-10
2.72513e-08
6.00849e-10
2.70609e-08
5.87488e-10
2.68737e-08
5.7437e-10
2.66897e-08
5.61481e-10
2.65089e-08
5.48806e-10
2.63313e-08
5.36331e-10
2.6157e-08
5.24042e-10
2.59859e-08
5.11925e-10
2.5818e-08
4.99967e-10
2.56534e-08
4.88156e-10
2.5492e-08
4.7648e-10
2.53339e-08
4.64927e-10
2.51791e-08
4.53487e-10
2.50275e-08
4.4215e-10
2.48792e-08
4.30907e-10
2.47342e-08
4.1975e-10
2.45926e-08
4.08674e-10
2.44542e-08
3.97671e-10
2.43193e-08
3.86739e-10
2.41876e-08
3.75875e-10
2.40594e-08
3.6508e-10
2.39345e-08
3.54356e-10
2.3813e-08
3.43709e-10
2.3695e-08
3.33147e-10
2.35803e-08
3.22684e-10
2.34691e-08
3.12341e-10
2.33612e-08
3.02144e-10
2.32567e-08
2.92131e-10
2.31556e-08
2.82358e-10
2.30577e-08
2.72907e-10
2.29631e-08
2.63916e-10
2.28715e-08
2.55645e-10
2.27827e-08
2.48692e-10
2.26962e-08
2.44723e-10
2.26123e-08
2.49116e-10
2.70636e-10
4.07551e-08
2.49676e-09
-4.06175e-08
4.0932e-08
2.80911e-09
4.112e-08
3.03505e-09
4.13042e-08
3.18448e-09
4.1477e-08
3.2722e-09
4.16322e-08
3.30721e-09
4.17644e-08
3.29595e-09
4.18698e-08
3.24593e-09
4.19465e-08
3.16565e-09
4.19942e-08
3.06365e-09
4.20138e-08
2.94789e-09
4.20074e-08
2.82541e-09
4.19776e-08
2.70203e-09
4.19273e-08
2.58216e-09
4.18594e-08
2.46879e-09
4.17766e-08
2.36366e-09
4.16812e-08
2.26747e-09
4.1575e-08
2.18019e-09
4.14596e-08
2.10128e-09
4.13362e-08
2.02991e-09
4.12055e-08
1.96517e-09
4.10684e-08
1.90613e-09
4.09254e-08
1.85193e-09
4.07768e-08
1.80183e-09
4.06231e-08
1.75519e-09
4.04645e-08
1.71147e-09
4.03013e-08
1.67027e-09
4.01339e-08
1.63122e-09
3.99625e-08
1.59405e-09
3.97873e-08
1.55855e-09
3.96086e-08
1.52452e-09
3.94267e-08
1.49183e-09
3.92418e-08
1.46034e-09
3.90542e-08
1.42995e-09
3.88641e-08
1.40058e-09
3.86717e-08
1.37215e-09
3.84772e-08
1.34458e-09
3.8281e-08
1.31783e-09
3.80831e-08
1.29183e-09
3.78838e-08
1.26655e-09
3.76834e-08
1.24193e-09
3.74819e-08
1.21795e-09
3.72796e-08
1.19457e-09
3.70767e-08
1.17176e-09
3.68733e-08
1.14949e-09
3.66695e-08
1.12774e-09
3.64657e-08
1.10647e-09
3.62618e-08
1.08568e-09
3.60581e-08
1.06533e-09
3.58546e-08
1.04542e-09
3.56516e-08
1.02592e-09
3.5449e-08
1.00681e-09
3.52472e-08
9.88083e-10
3.50461e-08
9.69717e-10
3.48459e-08
9.51697e-10
3.46466e-08
9.34008e-10
3.44484e-08
9.16636e-10
3.42514e-08
8.99565e-10
3.40557e-08
8.82782e-10
3.38613e-08
8.66273e-10
3.36683e-08
8.50022e-10
3.34768e-08
8.34016e-10
3.3287e-08
8.18242e-10
3.30987e-08
8.02685e-10
3.29123e-08
7.87331e-10
3.27276e-08
7.72167e-10
3.25448e-08
7.57179e-10
3.23639e-08
7.42355e-10
3.2185e-08
7.27679e-10
3.20082e-08
7.1314e-10
3.18335e-08
6.98724e-10
3.1661e-08
6.84419e-10
3.14908e-08
6.70212e-10
3.13229e-08
6.56092e-10
3.11573e-08
6.42046e-10
3.09942e-08
6.28063e-10
3.08335e-08
6.14135e-10
3.06754e-08
6.0025e-10
3.05199e-08
5.864e-10
3.03671e-08
5.72578e-10
3.0217e-08
5.58777e-10
3.00697e-08
5.44993e-10
2.99252e-08
5.31223e-10
2.97836e-08
5.17465e-10
2.96449e-08
5.03722e-10
2.95093e-08
4.89998e-10
2.93767e-08
4.76302e-10
2.92472e-08
4.62646e-10
2.91209e-08
4.49048e-10
2.89977e-08
4.35536e-10
2.88777e-08
4.22143e-10
2.87609e-08
4.08919e-10
2.86473e-08
3.95932e-10
2.85369e-08
3.83285e-10
2.84297e-08
3.71143e-10
2.83255e-08
3.59806e-10
2.82243e-08
3.49913e-10
2.8126e-08
3.43019e-10
2.80322e-08
3.42894e-10
3.51608e-10
4.23697e-08
2.37862e-09
-4.22516e-08
4.25249e-08
2.65392e-09
4.26955e-08
2.8644e-09
4.28683e-08
3.0117e-09
4.30359e-08
3.10466e-09
4.31927e-08
3.15041e-09
4.33341e-08
3.15455e-09
4.34567e-08
3.12332e-09
4.35585e-08
3.06384e-09
4.36387e-08
2.98339e-09
4.36977e-08
2.88888e-09
4.37367e-08
2.78649e-09
4.37573e-08
2.68142e-09
4.37617e-08
2.57777e-09
4.3752e-08
2.47846e-09
4.37303e-08
2.38533e-09
4.36985e-08
2.29933e-09
4.36579e-08
2.22072e-09
4.361e-08
2.14924e-09
4.35555e-08
2.08438e-09
4.34953e-08
2.02544e-09
4.34297e-08
1.97169e-09
4.33592e-08
1.92241e-09
4.32841e-08
1.87696e-09
4.32045e-08
1.83477e-09
4.31206e-08
1.79536e-09
4.30326e-08
1.75833e-09
4.29404e-08
1.72334e-09
4.28444e-08
1.69012e-09
4.27444e-08
1.65846e-09
4.26408e-08
1.62816e-09
4.25335e-08
1.59908e-09
4.24228e-08
1.57109e-09
4.23087e-08
1.54409e-09
4.21913e-08
1.51797e-09
4.20707e-08
1.49267e-09
4.19472e-08
1.46811e-09
4.18208e-08
1.44423e-09
4.16916e-08
1.42099e-09
4.15599e-08
1.39833e-09
4.14256e-08
1.37621e-09
4.12889e-08
1.35459e-09
4.11501e-08
1.33345e-09
4.10091e-08
1.31275e-09
4.08661e-08
1.29246e-09
4.07213e-08
1.27256e-09
4.05747e-08
1.25303e-09
4.04266e-08
1.23385e-09
4.02769e-08
1.21499e-09
4.01259e-08
1.19645e-09
3.99736e-08
1.1782e-09
3.98202e-08
1.16023e-09
3.96657e-08
1.14252e-09
3.95104e-08
1.12506e-09
3.93543e-08
1.10783e-09
3.91975e-08
1.09083e-09
3.90401e-08
1.07403e-09
3.88822e-08
1.05743e-09
3.8724e-08
1.04101e-09
3.85655e-08
1.02476e-09
3.84068e-08
1.00867e-09
3.82481e-08
9.92724e-10
3.80895e-08
9.76908e-10
3.79309e-08
9.61212e-10
3.77726e-08
9.45622e-10
3.76147e-08
9.30126e-10
3.74572e-08
9.1471e-10
3.73001e-08
8.99363e-10
3.71438e-08
8.84071e-10
3.69881e-08
8.68822e-10
3.68332e-08
8.53603e-10
3.66792e-08
8.38402e-10
3.65262e-08
8.23207e-10
3.63743e-08
8.08006e-10
3.62236e-08
7.92788e-10
3.60741e-08
7.77542e-10
3.5926e-08
7.62258e-10
3.57793e-08
7.46927e-10
3.56341e-08
7.31539e-10
3.54906e-08
7.16089e-10
3.53488e-08
7.00569e-10
3.52089e-08
6.84977e-10
3.50708e-08
6.69309e-10
3.49347e-08
6.53567e-10
3.48006e-08
6.37754e-10
3.46688e-08
6.21876e-10
3.45391e-08
6.05945e-10
3.44118e-08
5.89978e-10
3.42868e-08
5.73998e-10
3.41643e-08
5.58036e-10
3.40443e-08
5.42135e-10
3.39269e-08
5.26355e-10
3.38121e-08
5.10775e-10
3.36998e-08
4.95513e-10
3.35902e-08
4.80752e-10
3.34832e-08
4.66805e-10
3.33789e-08
4.54265e-10
3.32776e-08
4.44322e-10
3.31816e-08
4.38866e-10
4.34461e-10
4.40381e-08
2.27518e-09
-4.39347e-08
4.41746e-08
2.51746e-09
4.4328e-08
2.71098e-09
4.44866e-08
2.85307e-09
4.46432e-08
2.94807e-09
4.47926e-08
3.00107e-09
4.49304e-08
3.0167e-09
4.50536e-08
3.00009e-09
4.51603e-08
2.95716e-09
4.52496e-08
2.8941e-09
4.53216e-08
2.81689e-09
4.53771e-08
2.73094e-09
4.54176e-08
2.64094e-09
4.54447e-08
2.55066e-09
4.54603e-08
2.46289e-09
4.54661e-08
2.37955e-09
4.54637e-08
2.30174e-09
4.54544e-08
2.22995e-09
4.54395e-08
2.16419e-09
4.54197e-08
2.10418e-09
4.53957e-08
2.04944e-09
4.5368e-08
1.99941e-09
4.53368e-08
1.95354e-09
4.53025e-08
1.91126e-09
4.52652e-08
1.87211e-09
4.52249e-08
1.83563e-09
4.51818e-08
1.80148e-09
4.51358e-08
1.76933e-09
4.5087e-08
1.73893e-09
4.50354e-08
1.71005e-09
4.4981e-08
1.68253e-09
4.49239e-08
1.6562e-09
4.48641e-08
1.63094e-09
4.48015e-08
1.60664e-09
4.47363e-08
1.58321e-09
4.46684e-08
1.56055e-09
4.45979e-08
1.5386e-09
4.45248e-08
1.5173e-09
4.44492e-08
1.49659e-09
4.43711e-08
1.47642e-09
4.42906e-08
1.45674e-09
4.42077e-08
1.43752e-09
4.41224e-08
1.41872e-09
4.40348e-08
1.40031e-09
4.3945e-08
1.38225e-09
4.38531e-08
1.36453e-09
4.3759e-08
1.34711e-09
4.36628e-08
1.32998e-09
4.35647e-08
1.31311e-09
4.34647e-08
1.29649e-09
4.33628e-08
1.28009e-09
4.32591e-08
1.2639e-09
4.31537e-08
1.24791e-09
4.30467e-08
1.23209e-09
4.29381e-08
1.21643e-09
4.2828e-08
1.20092e-09
4.27165e-08
1.18554e-09
4.26036e-08
1.17029e-09
4.24895e-08
1.15513e-09
4.23742e-08
1.14007e-09
4.22578e-08
1.12509e-09
4.21403e-08
1.11017e-09
4.20219e-08
1.0953e-09
4.19027e-08
1.08047e-09
4.17826e-08
1.06566e-09
4.16619e-08
1.05086e-09
4.15406e-08
1.03606e-09
4.14187e-08
1.02124e-09
4.12964e-08
1.00638e-09
4.11737e-08
9.91485e-10
4.10508e-08
9.76528e-10
4.09277e-08
9.61499e-10
4.08045e-08
9.46385e-10
4.06813e-08
9.31173e-10
4.05583e-08
9.15851e-10
4.04354e-08
9.00407e-10
4.03129e-08
8.84829e-10
4.01907e-08
8.69109e-10
4.0069e-08
8.53236e-10
3.99479e-08
8.37203e-10
3.98274e-08
8.21003e-10
3.97078e-08
8.04634e-10
3.9589e-08
7.88092e-10
3.94712e-08
7.71378e-10
3.93544e-08
7.54498e-10
3.92388e-08
7.37458e-10
3.91245e-08
7.20274e-10
3.90115e-08
7.02963e-10
3.89e-08
6.85553e-10
3.87899e-08
6.68081e-10
3.86815e-08
6.50596e-10
3.85747e-08
6.33163e-10
3.84696e-08
6.15874e-10
3.83662e-08
5.98854e-10
3.82647e-08
5.82292e-10
3.8165e-08
5.66483e-10
3.80674e-08
5.51908e-10
3.79724e-08
5.39275e-10
3.78825e-08
5.28786e-10
5.13489e-10
4.57623e-08
2.18308e-09
-4.56702e-08
4.58831e-08
2.39663e-09
4.60209e-08
2.57319e-09
4.61657e-08
2.70826e-09
4.63106e-08
2.80314e-09
4.64506e-08
2.86106e-09
4.65817e-08
2.88561e-09
4.67009e-08
2.88094e-09
4.68061e-08
2.8519e-09
4.68966e-08
2.80367e-09
4.69721e-08
2.74136e-09
4.70333e-08
2.66973e-09
4.70813e-08
2.59293e-09
4.71176e-08
2.51441e-09
4.71436e-08
2.43683e-09
4.71611e-08
2.3621e-09
4.71714e-08
2.29144e-09
4.71758e-08
2.22551e-09
4.71755e-08
2.16454e-09
4.71712e-08
2.10844e-09
4.71637e-08
2.05695e-09
4.71534e-08
2.00966e-09
4.71408e-08
1.96616e-09
4.71261e-08
1.926e-09
4.71094e-08
1.88878e-09
4.70909e-08
1.85413e-09
4.70707e-08
1.82173e-09
4.70487e-08
1.79129e-09
4.70251e-08
1.76258e-09
4.69997e-08
1.73539e-09
4.69727e-08
1.70955e-09
4.6944e-08
1.68491e-09
4.69136e-08
1.66134e-09
4.68815e-08
1.63875e-09
4.68477e-08
1.61703e-09
4.68121e-08
1.5961e-09
4.67748e-08
1.57589e-09
4.67358e-08
1.55633e-09
4.6695e-08
1.53737e-09
4.66525e-08
1.51896e-09
4.66082e-08
1.50105e-09
4.65621e-08
1.48359e-09
4.65143e-08
1.46655e-09
4.64647e-08
1.4499e-09
4.64133e-08
1.4336e-09
4.63602e-08
1.41763e-09
4.63054e-08
1.40196e-09
4.62488e-08
1.38656e-09
4.61905e-08
1.37141e-09
4.61305e-08
1.35648e-09
4.60689e-08
1.34177e-09
4.60055e-08
1.32724e-09
4.59405e-08
1.31289e-09
4.58739e-08
1.29868e-09
4.58058e-08
1.28461e-09
4.5736e-08
1.27066e-09
4.56647e-08
1.25681e-09
4.5592e-08
1.24305e-09
4.55178e-08
1.22935e-09
4.54421e-08
1.2157e-09
4.53651e-08
1.2021e-09
4.52868e-08
1.18851e-09
4.52072e-08
1.17493e-09
4.51263e-08
1.16134e-09
4.50442e-08
1.14772e-09
4.4961e-08
1.13406e-09
4.48768e-08
1.12034e-09
4.47914e-08
1.10654e-09
4.47052e-08
1.09266e-09
4.4618e-08
1.07867e-09
4.453e-08
1.06456e-09
4.44411e-08
1.05031e-09
4.43516e-08
1.03591e-09
4.42615e-08
1.02134e-09
4.41707e-08
1.00659e-09
4.40795e-08
9.91648e-10
4.39878e-08
9.76495e-10
4.38958e-08
9.61122e-10
4.38035e-08
9.45518e-10
4.3711e-08
9.29675e-10
4.36185e-08
9.13583e-10
4.35259e-08
8.97238e-10
4.34333e-08
8.80638e-10
4.33409e-08
8.63783e-10
4.32487e-08
8.46676e-10
4.31569e-08
8.29327e-10
4.30654e-08
8.11749e-10
4.29744e-08
7.93965e-10
4.28839e-08
7.76003e-10
4.27941e-08
7.57903e-10
4.2705e-08
7.39719e-10
4.26166e-08
7.21521e-10
4.25291e-08
7.03405e-10
4.24424e-08
6.855e-10
4.23567e-08
6.67989e-10
4.22721e-08
6.51128e-10
4.21888e-08
6.35253e-10
4.21074e-08
6.20608e-10
4.203e-08
6.06206e-10
5.83794e-10
4.75442e-08
2.09995e-09
-4.74611e-08
4.76521e-08
2.28879e-09
4.77761e-08
2.44921e-09
4.7908e-08
2.57629e-09
4.80417e-08
2.6695e-09
4.81722e-08
2.73052e-09
4.82958e-08
2.76198e-09
4.84096e-08
2.76714e-09
4.85117e-08
2.74989e-09
4.86008e-08
2.71453e-09
4.86768e-08
2.66539e-09
4.87399e-08
2.60656e-09
4.87911e-08
2.54172e-09
4.88315e-08
2.47399e-09
4.88625e-08
2.40585e-09
4.88855e-08
2.33917e-09
4.89017e-08
2.27523e-09
4.89124e-08
2.21481e-09
4.89186e-08
2.15831e-09
4.89212e-08
2.10582e-09
4.8921e-08
2.05723e-09
4.89183e-08
2.0123e-09
4.89137e-08
1.97074e-09
4.89075e-08
1.93222e-09
4.88999e-08
1.8964e-09
4.8891e-08
1.86299e-09
4.88811e-08
1.8317e-09
4.88701e-08
1.80231e-09
4.88581e-08
1.77458e-09
4.88451e-08
1.74834e-09
4.88312e-08
1.72343e-09
4.88164e-08
1.69971e-09
4.88007e-08
1.67706e-09
4.87841e-08
1.65539e-09
4.87665e-08
1.6346e-09
4.8748e-08
1.6146e-09
4.87285e-08
1.59534e-09
4.87081e-08
1.57675e-09
4.86867e-08
1.55877e-09
4.86643e-08
1.54135e-09
4.86409e-08
1.52445e-09
4.86165e-08
1.50803e-09
4.8591e-08
1.49204e-09
4.85644e-08
1.47646e-09
4.85368e-08
1.46125e-09
4.85081e-08
1.44638e-09
4.84782e-08
1.43182e-09
4.84472e-08
1.41755e-09
4.84151e-08
1.40354e-09
4.83818e-08
1.38978e-09
4.83473e-08
1.37623e-09
4.83117e-08
1.36288e-09
4.82748e-08
1.34971e-09
4.82368e-08
1.3367e-09
4.81976e-08
1.32382e-09
4.81572e-08
1.31107e-09
4.81156e-08
1.29841e-09
4.80728e-08
1.28584e-09
4.80288e-08
1.27333e-09
4.79837e-08
1.26087e-09
4.79373e-08
1.24844e-09
4.78898e-08
1.23602e-09
4.78411e-08
1.2236e-09
4.77913e-08
1.21114e-09
4.77404e-08
1.19865e-09
4.76884e-08
1.18609e-09
4.76353e-08
1.17345e-09
4.75811e-08
1.16072e-09
4.75259e-08
1.14786e-09
4.74697e-08
1.13488e-09
4.74125e-08
1.12174e-09
4.73544e-08
1.10843e-09
4.72953e-08
1.09493e-09
4.72355e-08
1.08123e-09
4.71747e-08
1.06731e-09
4.71132e-08
1.05314e-09
4.7051e-08
1.03873e-09
4.69881e-08
1.02405e-09
4.69245e-08
1.00908e-09
4.68604e-08
9.93827e-10
4.67957e-08
9.78271e-10
4.67305e-08
9.62407e-10
4.66649e-08
9.46231e-10
4.6599e-08
9.29743e-10
4.65327e-08
9.12945e-10
4.64662e-08
8.95846e-10
4.63995e-08
8.78461e-10
4.63326e-08
8.60811e-10
4.62657e-08
8.42926e-10
4.61987e-08
8.24848e-10
4.61318e-08
8.06633e-10
4.6065e-08
7.88353e-10
4.59983e-08
7.70107e-10
4.59318e-08
7.5202e-10
4.58655e-08
7.34261e-10
4.57996e-08
7.17037e-10
4.57343e-08
7.00542e-10
4.56702e-08
6.84676e-10
4.56086e-08
6.67856e-10
6.42387e-10
4.93865e-08
2.02414e-09
-4.93106e-08
4.94834e-08
2.19183e-09
4.95953e-08
2.33737e-09
4.97155e-08
2.45611e-09
4.98384e-08
2.54651e-09
4.99598e-08
2.60918e-09
5.00759e-08
2.64586e-09
5.0184e-08
2.65903e-09
5.02821e-08
2.65178e-09
5.03691e-08
2.62759e-09
5.04444e-08
2.5901e-09
5.05081e-08
2.5428e-09
5.0561e-08
2.48889e-09
5.06038e-08
2.43117e-09
5.06377e-08
2.37193e-09
5.06639e-08
2.31295e-09
5.06836e-08
2.25554e-09
5.06979e-08
2.20054e-09
5.07077e-08
2.14849e-09
5.07139e-08
2.0996e-09
5.07172e-08
2.05391e-09
5.07182e-08
2.01132e-09
5.07173e-08
1.97164e-09
5.07149e-08
1.93465e-09
5.07112e-08
1.90009e-09
5.07064e-08
1.86772e-09
5.07008e-08
1.83733e-09
5.06944e-08
1.8087e-09
5.06873e-08
1.78166e-09
5.06797e-08
1.75603e-09
5.06714e-08
1.73168e-09
5.06626e-08
1.70848e-09
5.06534e-08
1.68632e-09
5.06437e-08
1.66512e-09
5.06335e-08
1.64479e-09
5.06228e-08
1.62525e-09
5.06117e-08
1.60644e-09
5.06002e-08
1.5883e-09
5.05882e-08
1.57077e-09
5.05757e-08
1.55382e-09
5.05628e-08
1.53739e-09
5.05493e-08
1.52146e-09
5.05354e-08
1.50597e-09
5.0521e-08
1.4909e-09
5.0506e-08
1.47622e-09
5.04905e-08
1.46189e-09
5.04744e-08
1.4479e-09
5.04577e-08
1.43421e-09
5.04405e-08
1.42081e-09
5.04226e-08
1.40766e-09
5.0404e-08
1.39476e-09
5.03849e-08
1.38206e-09
5.0365e-08
1.36956e-09
5.03445e-08
1.35724e-09
5.03232e-08
1.34507e-09
5.03013e-08
1.33304e-09
5.02786e-08
1.32112e-09
5.02551e-08
1.3093e-09
5.02309e-08
1.29755e-09
5.02059e-08
1.28587e-09
5.01801e-08
1.27422e-09
5.01535e-08
1.2626e-09
5.01262e-08
1.25097e-09
5.0098e-08
1.23933e-09
5.0069e-08
1.22764e-09
5.00392e-08
1.2159e-09
5.00085e-08
1.20408e-09
4.99771e-08
1.19216e-09
4.99448e-08
1.18013e-09
4.99117e-08
1.16795e-09
4.98779e-08
1.15562e-09
4.98432e-08
1.14311e-09
4.98077e-08
1.1304e-09
4.97715e-08
1.11748e-09
4.97345e-08
1.10432e-09
4.96967e-08
1.0909e-09
4.96582e-08
1.07722e-09
4.9619e-08
1.06325e-09
4.95791e-08
1.04898e-09
4.95385e-08
1.03439e-09
4.94973e-08
1.01948e-09
4.94555e-08
1.00424e-09
4.94131e-08
9.88657e-10
4.93701e-08
9.72734e-10
4.93266e-08
9.56473e-10
4.92825e-08
9.39882e-10
4.9238e-08
9.22975e-10
4.9193e-08
9.05773e-10
4.91477e-08
8.88307e-10
4.91019e-08
8.7062e-10
4.90558e-08
8.52767e-10
4.90093e-08
8.34824e-10
4.89625e-08
8.16884e-10
4.89155e-08
7.9907e-10
4.88682e-08
7.8153e-10
4.88208e-08
7.64423e-10
4.87735e-08
7.47837e-10
4.87267e-08
7.31476e-10
4.86809e-08
7.1369e-10
6.88486e-10
5.12914e-08
1.95446e-09
-5.12217e-08
5.13792e-08
2.10407e-09
5.14804e-08
2.23615e-09
5.15899e-08
2.34661e-09
5.17029e-08
2.4335e-09
5.18154e-08
2.49666e-09
5.19241e-08
2.53713e-09
5.20264e-08
2.55674e-09
5.21203e-08
2.55787e-09
5.22046e-08
2.54332e-09
5.22786e-08
2.51608e-09
5.23423e-08
2.47911e-09
5.2396e-08
2.43518e-09
5.24404e-08
2.38675e-09
5.24765e-08
2.3359e-09
5.25051e-08
2.28432e-09
5.25274e-08
2.23327e-09
5.25442e-08
2.18367e-09
5.25566e-08
2.1361e-09
5.25653e-08
2.09091e-09
5.2571e-08
2.04824e-09
5.25742e-08
2.0081e-09
5.25755e-08
1.9704e-09
5.25751e-08
1.93501e-09
5.25734e-08
1.90176e-09
5.25707e-08
1.87047e-09
5.25671e-08
1.84095e-09
5.25627e-08
1.81305e-09
5.25578e-08
1.78661e-09
5.25523e-08
1.7615e-09
5.25464e-08
1.73759e-09
5.25401e-08
1.71476e-09
5.25335e-08
1.69294e-09
5.25266e-08
1.67202e-09
5.25194e-08
1.65194e-09
5.25121e-08
1.63263e-09
5.25045e-08
1.61403e-09
5.24967e-08
1.59608e-09
5.24887e-08
1.57874e-09
5.24806e-08
1.56196e-09
5.24723e-08
1.54571e-09
5.24638e-08
1.52994e-09
5.24551e-08
1.51463e-09
5.24463e-08
1.49974e-09
5.24373e-08
1.48524e-09
5.2428e-08
1.47111e-09
5.24186e-08
1.45732e-09
5.2409e-08
1.44385e-09
5.23991e-08
1.43067e-09
5.2389e-08
1.41776e-09
5.23787e-08
1.40511e-09
5.2368e-08
1.39268e-09
5.23571e-08
1.38046e-09
5.23459e-08
1.36844e-09
5.23344e-08
1.35658e-09
5.23226e-08
1.34488e-09
5.23104e-08
1.3333e-09
5.22979e-08
1.32184e-09
5.22849e-08
1.31047e-09
5.22716e-08
1.29918e-09
5.22579e-08
1.28794e-09
5.22438e-08
1.27674e-09
5.22292e-08
1.26555e-09
5.22142e-08
1.25435e-09
5.21987e-08
1.24314e-09
5.21827e-08
1.23187e-09
5.21663e-08
1.22054e-09
5.21493e-08
1.20912e-09
5.21318e-08
1.19759e-09
5.21138e-08
1.18594e-09
5.20953e-08
1.17413e-09
5.20763e-08
1.16216e-09
5.20567e-08
1.14999e-09
5.20365e-08
1.13762e-09
5.20159e-08
1.12501e-09
5.19946e-08
1.11215e-09
5.19728e-08
1.09903e-09
5.19504e-08
1.08562e-09
5.19275e-08
1.0719e-09
5.1904e-08
1.05788e-09
5.188e-08
1.04353e-09
5.18554e-08
1.02884e-09
5.18302e-08
1.01381e-09
5.18045e-08
9.98436e-10
5.17783e-08
9.8272e-10
5.17515e-08
9.66669e-10
5.17242e-08
9.50298e-10
5.16963e-08
9.33628e-10
5.16679e-08
9.1669e-10
5.1639e-08
8.99527e-10
5.16096e-08
8.82195e-10
5.15796e-08
8.64767e-10
5.15492e-08
8.47337e-10
5.15182e-08
8.30017e-10
5.14868e-08
8.12939e-10
5.1455e-08
7.96224e-10
5.1423e-08
7.79891e-10
5.13909e-08
7.63599e-10
5.13586e-08
7.45974e-10
7.23127e-10
5.32617e-08
1.89008e-09
-5.31973e-08
5.33415e-08
2.02419e-09
5.34334e-08
2.14425e-09
5.35333e-08
2.24678e-09
5.3637e-08
2.32974e-09
5.37412e-08
2.39251e-09
5.38427e-08
2.43561e-09
5.39391e-08
2.46029e-09
5.40286e-08
2.46836e-09
5.41099e-08
2.46205e-09
5.41822e-08
2.44378e-09
5.42453e-08
2.41602e-09
5.42994e-08
2.38112e-09
5.43449e-08
2.34125e-09
5.43825e-08
2.29828e-09
5.44131e-08
2.25374e-09
5.44374e-08
2.20888e-09
5.44565e-08
2.1646e-09
5.44711e-08
2.12155e-09
5.44818e-08
2.08014e-09
5.44894e-08
2.04062e-09
5.44945e-08
2.00307e-09
5.44974e-08
1.9675e-09
5.44985e-08