/*--------------------------------*- C++ -*----------------------------------*\
| =========                 |                                                 |
| \\      /  F ield         | OpenFOAM: The Open Source CFD Toolbox           |
|  \\    /   O peration     | Version:  2.3.0                                 |
|   \\  /    A nd           | Web:      www.OpenFOAM.org                      |
|    \\/     M anipulation  |                                                 |
\*---------------------------------------------------------------------------*/
FoamFile
{
    version     2.0;
    format      ascii;
    class       volVectorField;
    location    "0.6";
    object      U;
}
// * * * * * * * * * * * * * * * * * * * * * * * * * * * * * * * * * * * * * //

dimensions      [0 1 -1 0 0 0 0];

internalField   nonuniform List<vector> 
3105
(
(0.171531 0.00584539 0)
(0.154906 0.00598848 0)
(0.139085 0.00560989 0)
(0.124079 0.00502389 0)
(0.110271 0.00436651 0)
(0.0978531 0.00369682 0)
(0.0868557 0.00305248 0)
(0.0772469 0.00245967 0)
(0.0689703 0.00193464 0)
(0.0619411 0.00148575 0)
(0.0560457 0.00111501 0)
(0.0511507 0.000819103 0)
(0.0471142 0.000590695 0)
(0.0437956 0.000420024 0)
(0.0410638 0.000296464 0)
(0.0388016 0.000209761 0)
(0.0369091 0.0001508 0)
(0.0353044 0.000111958 0)
(0.033922 8.717e-05 0)
(0.0327116 7.18126e-05 0)
(0.031635 6.25051e-05 0)
(0.0306642 5.68812e-05 0)
(0.0297786 5.33608e-05 0)
(0.028963 5.09433e-05 0)
(0.0282067 4.90341e-05 0)
(0.0275014 4.73081e-05 0)
(0.0268411 4.5609e-05 0)
(0.0262207 4.38786e-05 0)
(0.0256365 4.21112e-05 0)
(0.0250852 4.03248e-05 0)
(0.0245639 3.85448e-05 0)
(0.0240703 3.67955e-05 0)
(0.023602 3.50966e-05 0)
(0.0231571 3.34624e-05 0)
(0.0227339 3.19014e-05 0)
(0.0223307 3.04184e-05 0)
(0.0219461 2.90144e-05 0)
(0.0215788 2.76885e-05 0)
(0.0212275 2.64382e-05 0)
(0.0208913 2.52599e-05 0)
(0.020569 2.41498e-05 0)
(0.0202599 2.31037e-05 0)
(0.019963 2.21174e-05 0)
(0.0196777 2.11871e-05 0)
(0.0194032 2.03088e-05 0)
(0.0191389 1.94791e-05 0)
(0.0188843 1.86946e-05 0)
(0.0186388 1.79521e-05 0)
(0.0184019 1.72489e-05 0)
(0.0181732 1.65823e-05 0)
(0.0179522 1.59498e-05 0)
(0.0177386 1.53492e-05 0)
(0.017532 1.47784e-05 0)
(0.0173321 1.42354e-05 0)
(0.0171385 1.37185e-05 0)
(0.016951 1.32259e-05 0)
(0.0167693 1.27561e-05 0)
(0.0165931 1.23078e-05 0)
(0.0164222 1.18795e-05 0)
(0.0162564 1.147e-05 0)
(0.0160955 1.10782e-05 0)
(0.0159393 1.0703e-05 0)
(0.0157876 1.03434e-05 0)
(0.0156402 9.9985e-06 0)
(0.0154971 9.66743e-06 0)
(0.0153579 9.34937e-06 0)
(0.0152227 9.04363e-06 0)
(0.0150913 8.7495e-06 0)
(0.0149635 8.46639e-06 0)
(0.0148392 8.1937e-06 0)
(0.0147184 7.93092e-06 0)
(0.014601 7.67757e-06 0)
(0.0144868 7.4332e-06 0)
(0.0143757 7.19743e-06 0)
(0.0142678 6.96992e-06 0)
(0.0141628 6.75035e-06 0)
(0.0140608 6.53847e-06 0)
(0.0139616 6.33405e-06 0)
(0.0138652 6.13694e-06 0)
(0.0137716 5.947e-06 0)
(0.0136806 5.76414e-06 0)
(0.0135922 5.58834e-06 0)
(0.0135064 5.41964e-06 0)
(0.013423 5.2581e-06 0)
(0.0133421 5.10388e-06 0)
(0.0132635 4.95721e-06 0)
(0.0131872 4.81839e-06 0)
(0.0131132 4.68785e-06 0)
(0.0130413 4.56612e-06 0)
(0.0129714 4.45396e-06 0)
(0.0129035 4.3524e-06 0)
(0.0128375 4.26289e-06 0)
(0.0127732 4.18765e-06 0)
(0.0127104 4.13016e-06 0)
(0.012649 4.09643e-06 0)
(0.0125886 4.0983e-06 0)
(0.0125288 4.16612e-06 0)
(0.0124683 4.34166e-06 0)
(0.0124136 4.26548e-06 0)
(0.0122617 2.16416e-05 0)
(0.190557 0.00926504 0)
(0.188185 0.00988402 0)
(0.184295 0.00972194 0)
(0.179168 0.00924359 0)
(0.173271 0.00861815 0)
(0.16696 0.00790094 0)
(0.160464 0.00713029 0)
(0.153954 0.00634139 0)
(0.147562 0.00556427 0)
(0.141389 0.00482358 0)
(0.135505 0.00413859 0)
(0.129949 0.00352268 0)
(0.124743 0.00298302 0)
(0.119889 0.00252105 0)
(0.115382 0.0021335 0)
(0.111205 0.00181372 0)
(0.107339 0.00155314 0)
(0.103761 0.00134245 0)
(0.100449 0.00117257 0)
(0.0973781 0.00103531 0)
(0.0945268 0.000923628 0)
(0.0918742 0.000831788 0)
(0.089401 0.00075525 0)
(0.0870899 0.000690528 0)
(0.0849255 0.000635 0)
(0.0828938 0.000586718 0)
(0.0809826 0.000544246 0)
(0.0791809 0.000506521 0)
(0.0774793 0.000472747 0)
(0.0758689 0.000442321 0)
(0.0743424 0.000414773 0)
(0.0728929 0.000389726 0)
(0.0715143 0.000366875 0)
(0.0702014 0.000345963 0)
(0.0689491 0.000326772 0)
(0.0677532 0.000309115 0)
(0.0666097 0.00029283 0)
(0.0655151 0.000277775 0)
(0.0644661 0.000263824 0)
(0.0634598 0.000250869 0)
(0.0624935 0.000238814 0)
(0.0615649 0.000227574 0)
(0.0606716 0.000217074 0)
(0.0598116 0.000207248 0)
(0.0589831 0.000198037 0)
(0.0581843 0.000189389 0)
(0.0574136 0.000181257 0)
(0.0566695 0.000173599 0)
(0.0559508 0.000166378 0)
(0.055256 0.000159561 0)
(0.0545841 0.000153116 0)
(0.0539339 0.000147016 0)
(0.0533044 0.000141235 0)
(0.0526947 0.000135752 0)
(0.0521039 0.000130544 0)
(0.0515312 0.000125594 0)
(0.0509758 0.000120882 0)
(0.050437 0.000116393 0)
(0.0499141 0.000112112 0)
(0.0494065 0.000108026 0)
(0.0489135 0.000104121 0)
(0.0484348 0.000100385 0)
(0.0479696 9.68086e-05 0)
(0.0475176 9.33806e-05 0)
(0.0470784 9.00919e-05 0)
(0.0466514 8.69338e-05 0)
(0.0462363 8.38981e-05 0)
(0.0458328 8.09775e-05 0)
(0.0454405 7.81649e-05 0)
(0.045059 7.5454e-05 0)
(0.0446881 7.28388e-05 0)
(0.0443275 7.03138e-05 0)
(0.043977 6.78739e-05 0)
(0.0436363 6.55145e-05 0)
(0.0433051 6.32313e-05 0)
(0.0429833 6.10204e-05 0)
(0.0426707 5.88784e-05 0)
(0.0423671 5.6802e-05 0)
(0.0420722 5.47887e-05 0)
(0.0417861 5.28359e-05 0)
(0.0415084 5.09417e-05 0)
(0.041239 4.91045e-05 0)
(0.0409779 4.73232e-05 0)
(0.0407248 4.55969e-05 0)
(0.0404796 4.39253e-05 0)
(0.0402422 4.23089e-05 0)
(0.0400125 4.07484e-05 0)
(0.0397902 3.92454e-05 0)
(0.0395753 3.78024e-05 0)
(0.0393675 3.64232e-05 0)
(0.0391666 3.5113e-05 0)
(0.0389725 3.38797e-05 0)
(0.0387847 3.27346e-05 0)
(0.0386031 3.16962e-05 0)
(0.0384271 3.07959e-05 0)
(0.0382562 3.00974e-05 0)
(0.0380893 2.97533e-05 0)
(0.0379238 3.01443e-05 0)
(0.0377675 3.35119e-05 0)
(0.0374686 7.39404e-05 0)
(0.193532 0.0089321 0)
(0.194275 0.00995582 0)
(0.194425 0.0103412 0)
(0.193801 0.0103678 0)
(0.192489 0.0101573 0)
(0.190608 0.00975584 0)
(0.188251 0.00920729 0)
(0.185506 0.00856057 0)
(0.182464 0.00786136 0)
(0.179211 0.0071486 0)
(0.175825 0.0064536 0)
(0.172369 0.00579945 0)
(0.168894 0.00520097 0)
(0.165441 0.00466543 0)
(0.162038 0.00419403 0)
(0.158707 0.00378362 0)
(0.155459 0.0034284 0)
(0.152305 0.00312138 0)
(0.149247 0.00285538 0)
(0.146287 0.00262377 0)
(0.143426 0.00242075 0)
(0.140662 0.00224145 0)
(0.137992 0.00208194 0)
(0.135415 0.00193906 0)
(0.132928 0.00181029 0)
(0.130527 0.00169366 0)
(0.12821 0.00158756 0)
(0.125974 0.00149072 0)
(0.123816 0.00140205 0)
(0.121734 0.00132066 0)
(0.119724 0.0012458 0)
(0.117783 0.0011768 0)
(0.115909 0.00111308 0)
(0.114099 0.00105414 0)
(0.112351 0.000999518 0)
(0.110662 0.00094882 0)
(0.109029 0.000901682 0)
(0.10745 0.000857785 0)
(0.105923 0.000816838 0)
(0.104445 0.000778585 0)
(0.103015 0.000742793 0)
(0.101631 0.000709256 0)
(0.10029 0.000677785 0)
(0.0989907 0.000648213 0)
(0.0977315 0.000620387 0)
(0.0965106 0.000594172 0)
(0.0953264 0.000569444 0)
(0.0941775 0.000546089 0)
(0.0930625 0.000524006 0)
(0.09198 0.000503103 0)
(0.0909287 0.000483295 0)
(0.0899074 0.000464503 0)
(0.088915 0.000446658 0)
(0.0879504 0.000429695 0)
(0.0870126 0.000413554 0)
(0.0861005 0.000398179 0)
(0.0852134 0.00038352 0)
(0.0843503 0.00036953 0)
(0.0835104 0.000356166 0)
(0.082693 0.000343387 0)
(0.0818973 0.000331157 0)
(0.0811225 0.000319439 0)
(0.0803682 0.000308203 0)
(0.0796336 0.000297417 0)
(0.0789182 0.000287055 0)
(0.0782214 0.000277089 0)
(0.0775428 0.000267497 0)
(0.0768819 0.000258254 0)
(0.0762381 0.00024934 0)
(0.0756112 0.000240735 0)
(0.0750007 0.000232422 0)
(0.0744063 0.000224382 0)
(0.0738275 0.0002166 0)
(0.0732642 0.000209062 0)
(0.072716 0.000201753 0)
(0.0721826 0.000194662 0)
(0.0716638 0.000187777 0)
(0.0711594 0.000181088 0)
(0.0706691 0.000174586 0)
(0.0701928 0.000168262 0)
(0.0697301 0.00016211 0)
(0.0692811 0.000156123 0)
(0.0688454 0.000150296 0)
(0.068423 0.000144626 0)
(0.0680137 0.000139111 0)
(0.0676172 0.00013375 0)
(0.0672336 0.000128544 0)
(0.0668625 0.000123495 0)
(0.0665038 0.000118609 0)
(0.0661573 0.000113894 0)
(0.0658229 0.000109363 0)
(0.0655001 0.000105033 0)
(0.0651888 0.000100933 0)
(0.0648884 9.71042e-05 0)
(0.0645986 9.36226e-05 0)
(0.0643185 9.0638e-05 0)
(0.0640469 8.85092e-05 0)
(0.0637812 8.83005e-05 0)
(0.0635257 9.66517e-05 0)
(0.0631378 0.000146783 0)
(0.194569 0.00831318 0)
(0.195678 0.00939776 0)
(0.196711 0.00999347 0)
(0.197448 0.0102584 0)
(0.197849 0.0102846 0)
(0.197916 0.0101107 0)
(0.197646 0.00977224 0)
(0.197046 0.00931085 0)
(0.196139 0.00876826 0)
(0.19496 0.00818201 0)
(0.19355 0.00758401 0)
(0.191952 0.00699961 0)
(0.190205 0.006447 0)
(0.188346 0.00593745 0)
(0.186406 0.00547622 0)
(0.18441 0.00506398 0)
(0.182379 0.00469823 0)
(0.180328 0.00437459 0)
(0.178268 0.00408792 0)
(0.176207 0.00383295 0)
(0.174153 0.00360481 0)
(0.172109 0.00339922 0)
(0.170079 0.0032126 0)
(0.168066 0.00304198 0)
(0.166073 0.00288503 0)
(0.164102 0.00273987 0)
(0.162154 0.00260502 0)
(0.16023 0.00247929 0)
(0.158334 0.00236173 0)
(0.156464 0.00225157 0)
(0.154623 0.00214816 0)
(0.152811 0.00205093 0)
(0.15103 0.0019594 0)
(0.149279 0.00187314 0)
(0.147558 0.00179178 0)
(0.145869 0.00171496 0)
(0.144212 0.00164237 0)
(0.142586 0.00157372 0)
(0.140991 0.00150875 0)
(0.139428 0.00144722 0)
(0.137896 0.00138889 0)
(0.136396 0.00133356 0)
(0.134925 0.00128104 0)
(0.133485 0.00123116 0)
(0.132075 0.00118374 0)
(0.130695 0.00113863 0)
(0.129344 0.00109569 0)
(0.128021 0.0010548 0)
(0.126726 0.00101582 0)
(0.125459 0.000978639 0)
(0.124219 0.000943155 0)
(0.123006 0.000909266 0)
(0.121819 0.000876877 0)
(0.120657 0.000845902 0)
(0.119521 0.000816258 0)
(0.118409 0.000787868 0)
(0.117321 0.00076066 0)
(0.116257 0.000734566 0)
(0.115215 0.000709523 0)
(0.114197 0.000685469 0)
(0.113201 0.000662348 0)
(0.112226 0.000640108 0)
(0.111273 0.000618697 0)
(0.110341 0.00059807 0)
(0.109429 0.00057818 0)
(0.108537 0.000558986 0)
(0.107666 0.000540449 0)
(0.106814 0.000522531 0)
(0.105981 0.000505197 0)
(0.105167 0.000488414 0)
(0.104372 0.000472151 0)
(0.103595 0.000456378 0)
(0.102836 0.000441068 0)
(0.102095 0.000426196 0)
(0.101372 0.000411738 0)
(0.100666 0.000397672 0)
(0.0999781 0.000383977 0)
(0.0993071 0.000370635 0)
(0.0986531 0.000357628 0)
(0.0980161 0.000344943 0)
(0.0973959 0.000332564 0)
(0.0967924 0.000320481 0)
(0.0962055 0.000308685 0)
(0.0956352 0.000297167 0)
(0.0950813 0.000285924 0)
(0.0945436 0.000274952 0)
(0.0940223 0.000264252 0)
(0.0935171 0.000253827 0)
(0.0930278 0.000243687 0)
(0.0925545 0.000233844 0)
(0.0920969 0.000224319 0)
(0.0916548 0.000215141 0)
(0.091228 0.000206357 0)
(0.090816 0.000198036 0)
(0.0904185 0.000190302 0)
(0.0900347 0.000183399 0)
(0.0896634 0.000177914 0)
(0.0893025 0.000175653 0)
(0.0889552 0.000185295 0)
(0.0884961 0.000233158 0)
(0.195305 0.00782275 0)
(0.196282 0.00882513 0)
(0.197341 0.00944767 0)
(0.198318 0.00978454 0)
(0.199159 0.00990943 0)
(0.199844 0.0098572 0)
(0.200348 0.0096547 0)
(0.200649 0.00933334 0)
(0.200738 0.00892628 0)
(0.200618 0.00846492 0)
(0.200303 0.00797722 0)
(0.199813 0.00748661 0)
(0.199169 0.00701112 0)
(0.198396 0.00656311 0)
(0.197515 0.00614974 0)
(0.196546 0.00577385 0)
(0.195507 0.00543513 0)
(0.19441 0.00513115 0)
(0.193266 0.00485838 0)
(0.192083 0.00461285 0)
(0.190869 0.00439066 0)
(0.189628 0.00418825 0)
(0.188364 0.00400256 0)
(0.187081 0.00383103 0)
(0.18578 0.00367157 0)
(0.184465 0.00352252 0)
(0.183138 0.00338256 0)
(0.181801 0.00325064 0)
(0.180457 0.00312593 0)
(0.179106 0.00300773 0)
(0.177751 0.00289549 0)
(0.176394 0.00278873 0)
(0.175035 0.00268705 0)
(0.173678 0.00259009 0)
(0.172322 0.00249755 0)
(0.170971 0.00240913 0)
(0.169623 0.0023246 0)
(0.168282 0.00224372 0)
(0.166948 0.00216628 0)
(0.165622 0.00209208 0)
(0.164304 0.00202096 0)
(0.162997 0.00195275 0)
(0.161699 0.00188729 0)
(0.160413 0.00182445 0)
(0.159139 0.00176409 0)
(0.157877 0.0017061 0)
(0.156628 0.00165034 0)
(0.155392 0.00159673 0)
(0.15417 0.00154515 0)
(0.152962 0.00149551 0)
(0.151768 0.00144771 0)
(0.150589 0.00140167 0)
(0.149424 0.00135731 0)
(0.148275 0.00131455 0)
(0.147141 0.00127331 0)
(0.146023 0.00123352 0)
(0.14492 0.00119511 0)
(0.143833 0.00115802 0)
(0.142761 0.00112218 0)
(0.141706 0.00108753 0)
(0.140666 0.00105403 0)
(0.139642 0.0010216 0)
(0.138634 0.0009902 0)
(0.137642 0.000959779 0)
(0.136666 0.000930286 0)
(0.135706 0.000901675 0)
(0.134762 0.000873902 0)
(0.133834 0.000846925 0)
(0.132922 0.000820702 0)
(0.132026 0.000795195 0)
(0.131146 0.000770367 0)
(0.130283 0.000746183 0)
(0.129435 0.00072261 0)
(0.128604 0.000699616 0)
(0.127789 0.000677171 0)
(0.12699 0.000655249 0)
(0.126207 0.000633824 0)
(0.12544 0.00061287 0)
(0.12469 0.000592368 0)
(0.123957 0.000572297 0)
(0.123239 0.00055264 0)
(0.122539 0.000533381 0)
(0.121855 0.00051451 0)
(0.121188 0.000496016 0)
(0.120537 0.000477893 0)
(0.119903 0.000460139 0)
(0.119287 0.000442755 0)
(0.118687 0.000425748 0)
(0.118104 0.00040913 0)
(0.117538 0.00039292 0)
(0.116989 0.000377149 0)
(0.116457 0.00036186 0)
(0.115942 0.000347118 0)
(0.115443 0.000333022 0)
(0.11496 0.000319743 0)
(0.114493 0.000307616 0)
(0.114041 0.000297426 0)
(0.113602 0.000291468 0)
(0.113181 0.000298139 0)
(0.112667 0.000334485 0)
(0.195933 0.00739675 0)
(0.196743 0.0082873 0)
(0.197668 0.00888782 0)
(0.198591 0.00924743 0)
(0.199463 0.00941925 0)
(0.200259 0.00943356 0)
(0.200957 0.00931277 0)
(0.201534 0.0090821 0)
(0.201975 0.00876894 0)
(0.202276 0.00839989 0)
(0.202437 0.00799908 0)
(0.202466 0.00758723 0)
(0.202375 0.00718086 0)
(0.202179 0.00679196 0)
(0.20189 0.00642811 0)
(0.201524 0.00609316 0)
(0.201091 0.00578806 0)
(0.200603 0.00551172 0)
(0.200067 0.0052618 0)
(0.19949 0.00503539 0)
(0.198876 0.00482941 0)
(0.19823 0.00464094 0)
(0.197555 0.00446736 0)
(0.196851 0.00430642 0)
(0.196122 0.00415626 0)
(0.19537 0.00401535 0)
(0.194594 0.00388247 0)
(0.193797 0.00375662 0)
(0.19298 0.00363702 0)
(0.192145 0.00352303 0)
(0.191292 0.00341412 0)
(0.190423 0.00330985 0)
(0.189539 0.00320987 0)
(0.188641 0.00311385 0)
(0.18773 0.00302153 0)
(0.186808 0.00293266 0)
(0.185876 0.00284703 0)
(0.184934 0.00276447 0)
(0.183985 0.00268479 0)
(0.183027 0.00260784 0)
(0.182064 0.00253348 0)
(0.181095 0.0024616 0)
(0.180122 0.00239206 0)
(0.179146 0.00232476 0)
(0.178166 0.00225959 0)
(0.177185 0.00219648 0)
(0.176203 0.00213533 0)
(0.17522 0.00207605 0)
(0.174238 0.00201858 0)
(0.173257 0.00196283 0)
(0.172277 0.00190874 0)
(0.1713 0.00185625 0)
(0.170325 0.00180528 0)
(0.169354 0.00175579 0)
(0.168387 0.00170771 0)
(0.167424 0.00166098 0)
(0.166466 0.00161555 0)
(0.165514 0.00157138 0)
(0.164567 0.0015284 0)
(0.163627 0.00148657 0)
(0.162693 0.00144584 0)
(0.161767 0.00140617 0)
(0.160848 0.00136751 0)
(0.159936 0.00132981 0)
(0.159033 0.00129304 0)
(0.158138 0.00125716 0)
(0.157253 0.00122211 0)
(0.156376 0.00118788 0)
(0.155509 0.00115441 0)
(0.154651 0.00112167 0)
(0.153804 0.00108963 0)
(0.152967 0.00105825 0)
(0.15214 0.0010275 0)
(0.151325 0.000997355 0)
(0.150521 0.000967783 0)
(0.149728 0.000938755 0)
(0.148947 0.000910248 0)
(0.148179 0.000882237 0)
(0.147422 0.000854701 0)
(0.146679 0.000827621 0)
(0.145948 0.00080098 0)
(0.14523 0.000774763 0)
(0.144526 0.000748961 0)
(0.143836 0.000723565 0)
(0.143159 0.00069857 0)
(0.142497 0.000673979 0)
(0.14185 0.000649796 0)
(0.141217 0.000626034 0)
(0.140599 0.000602711 0)
(0.139997 0.000579857 0)
(0.139409 0.000557513 0)
(0.138837 0.000535738 0)
(0.13828 0.000514616 0)
(0.137739 0.000494278 0)
(0.137213 0.000474937 0)
(0.136702 0.000456997 0)
(0.136206 0.000441357 0)
(0.135724 0.00043036 0)
(0.135263 0.000430574 0)
(0.13472 0.000449265 0)
(0.196483 0.00702954 0)
(0.197156 0.0078133 0)
(0.197943 0.00837725 0)
(0.198761 0.00873994 0)
(0.199563 0.0089357 0)
(0.200322 0.00898945 0)
(0.20102 0.00892082 0)
(0.201638 0.00875118 0)
(0.202162 0.00850379 0)
(0.202586 0.00820158 0)
(0.202909 0.00786561 0)
(0.203135 0.00751414 0)
(0.203271 0.0071621 0)
(0.203327 0.0068207 0)
(0.203312 0.00649751 0)
(0.203236 0.00619689 0)
(0.20311 0.00592059 0)
(0.20294 0.00566847 0)
(0.202732 0.00543912 0)
(0.202493 0.00523046 0)
(0.202226 0.00504008 0)
(0.201933 0.00486559 0)
(0.201616 0.00470474 0)
(0.201277 0.00455557 0)
(0.200918 0.00441639 0)
(0.200538 0.00428577 0)
(0.200138 0.00416256 0)
(0.199719 0.00404581 0)
(0.199282 0.00393474 0)
(0.198826 0.00382873 0)
(0.198353 0.00372726 0)
(0.197863 0.0036299 0)
(0.197357 0.0035363 0)
(0.196834 0.00344613 0)
(0.196296 0.00335915 0)
(0.195743 0.00327512 0)
(0.195176 0.00319385 0)
(0.194595 0.00311515 0)
(0.194001 0.00303887 0)
(0.193395 0.00296487 0)
(0.192777 0.00289302 0)
(0.192147 0.00282322 0)
(0.191507 0.00275536 0)
(0.190857 0.00268934 0)
(0.190197 0.00262508 0)
(0.189528 0.0025625 0)
(0.188851 0.00250153 0)
(0.188166 0.00244211 0)
(0.187474 0.00238416 0)
(0.186775 0.00232764 0)
(0.18607 0.00227249 0)
(0.18536 0.00221865 0)
(0.184644 0.00216607 0)
(0.183925 0.00211471 0)
(0.183201 0.00206453 0)
(0.182474 0.00201547 0)
(0.181743 0.0019675 0)
(0.181011 0.00192057 0)
(0.180276 0.00187464 0)
(0.17954 0.00182968 0)
(0.178803 0.00178565 0)
(0.178065 0.00174251 0)
(0.177328 0.00170021 0)
(0.176591 0.00165874 0)
(0.175854 0.00161805 0)
(0.175119 0.00157811 0)
(0.174386 0.00153888 0)
(0.173655 0.00150034 0)
(0.172926 0.00146245 0)
(0.172201 0.00142517 0)
(0.171479 0.00138849 0)
(0.170761 0.00135238 0)
(0.170047 0.00131679 0)
(0.169338 0.00128172 0)
(0.168635 0.00124712 0)
(0.167936 0.00121299 0)
(0.167244 0.0011793 0)
(0.166559 0.00114602 0)
(0.16588 0.00111314 0)
(0.165209 0.00108065 0)
(0.164545 0.00104852 0)
(0.16389 0.00101676 0)
(0.163243 0.00098535 0)
(0.162605 0.000954289 0)
(0.161976 0.000923579 0)
(0.161357 0.000893225 0)
(0.160749 0.000863241 0)
(0.16015 0.000833646 0)
(0.159563 0.000804468 0)
(0.158987 0.000775747 0)
(0.158422 0.000747539 0)
(0.157869 0.000719918 0)
(0.157328 0.00069299 0)
(0.156799 0.00066691 0)
(0.156282 0.000641926 0)
(0.155777 0.000618477 0)
(0.155284 0.000597455 0)
(0.154805 0.000580835 0)
(0.154346 0.000572606 0)
(0.153815 0.000571284 0)
(0.196967 0.00671121 0)
(0.197534 0.00739859 0)
(0.198204 0.00791886 0)
(0.198917 0.00827297 0)
(0.199633 0.00848072 0)
(0.200325 0.00856113 0)
(0.200973 0.00853095 0)
(0.201562 0.00840812 0)
(0.202079 0.00821229 0)
(0.202519 0.00796314 0)
(0.202881 0.00767905 0)
(0.203165 0.00737621 0)
(0.203379 0.00706808 0)
(0.203528 0.00676516 0)
(0.203622 0.00647486 0)
(0.203667 0.00620185 0)
(0.203673 0.0059485 0)
(0.203645 0.00571542 0)
(0.203589 0.00550198 0)
(0.203511 0.0053068 0)
(0.203412 0.00512808 0)
(0.203295 0.00496394 0)
(0.203163 0.0048125 0)
(0.203016 0.00467206 0)
(0.202855 0.00454113 0)
(0.202681 0.00441841 0)
(0.202494 0.00430282 0)
(0.202295 0.00419345 0)
(0.202082 0.00408955 0)
(0.201857 0.00399051 0)
(0.20162 0.0038958 0)
(0.20137 0.00380499 0)
(0.201108 0.00371772 0)
(0.200834 0.00363366 0)
(0.200547 0.00355256 0)
(0.200249 0.00347417 0)
(0.199939 0.0033983 0)
(0.199618 0.00332475 0)
(0.199284 0.00325338 0)
(0.19894 0.00318403 0)
(0.198585 0.00311659 0)
(0.198218 0.00305094 0)
(0.197842 0.00298697 0)
(0.197454 0.00292459 0)
(0.197057 0.00286372 0)
(0.19665 0.00280428 0)
(0.196233 0.0027462 0)
(0.195807 0.00268942 0)
(0.195371 0.00263388 0)
(0.194927 0.00257952 0)
(0.194475 0.00252628 0)
(0.194014 0.00247413 0)
(0.193546 0.00242301 0)
(0.19307 0.00237289 0)
(0.192587 0.00232371 0)
(0.192097 0.00227545 0)
(0.1916 0.00222805 0)
(0.191097 0.00218149 0)
(0.190589 0.00213573 0)
(0.190075 0.00209073 0)
(0.189555 0.00204647 0)
(0.189031 0.00200289 0)
(0.188503 0.00195999 0)
(0.18797 0.00191771 0)
(0.187434 0.00187604 0)
(0.186894 0.00183494 0)
(0.186352 0.00179437 0)
(0.185807 0.00175433 0)
(0.185259 0.00171476 0)
(0.18471 0.00167565 0)
(0.18416 0.00163698 0)
(0.183608 0.0015987 0)
(0.183056 0.00156081 0)
(0.182504 0.00152328 0)
(0.181952 0.00148607 0)
(0.1814 0.00144919 0)
(0.18085 0.00141259 0)
(0.180301 0.00137628 0)
(0.179754 0.00134022 0)
(0.17921 0.00130442 0)
(0.178668 0.00126886 0)
(0.178129 0.00123353 0)
(0.177594 0.00119843 0)
(0.177064 0.00116357 0)
(0.176537 0.00112894 0)
(0.176016 0.00109456 0)
(0.1755 0.00106046 0)
(0.17499 0.00102665 0)
(0.174486 0.000993172 0)
(0.173988 0.000960085 0)
(0.173497 0.000927451 0)
(0.173014 0.000895362 0)
(0.172538 0.00086394 0)
(0.17207 0.00083336 0)
(0.171609 0.000803889 0)
(0.171157 0.000775962 0)
(0.170714 0.000750349 0)
(0.17028 0.000728393 0)
(0.169865 0.000711479 0)
(0.169384 0.000691697 0)
(0.197394 0.00643 0)
(0.197878 0.00703237 0)
(0.198451 0.00750682 0)
(0.199071 0.00784564 0)
(0.199706 0.00805824 0)
(0.200327 0.00815792 0)
(0.200917 0.0081582 0)
(0.201461 0.00807387 0)
(0.201948 0.00792126 0)
(0.202372 0.00771712 0)
(0.202731 0.00747738 0)
(0.203026 0.00721632 0)
(0.20326 0.00694612 0)
(0.203441 0.00667649 0)
(0.203573 0.0064146 0)
(0.203666 0.00616531 0)
(0.203724 0.00593143 0)
(0.203754 0.00571417 0)
(0.203762 0.00551356 0)
(0.20375 0.00532886 0)
(0.203724 0.00515883 0)
(0.203685 0.00500206 0)
(0.203635 0.00485705 0)
(0.203576 0.00472238 0)
(0.203508 0.00459677 0)
(0.203432 0.00447908 0)
(0.203348 0.00436832 0)
(0.203257 0.00426365 0)
(0.203158 0.00416437 0)
(0.203052 0.00406987 0)
(0.202939 0.00397965 0)
(0.202819 0.00389328 0)
(0.202691 0.0038104 0)
(0.202556 0.0037307 0)
(0.202414 0.00365389 0)
(0.202264 0.00357974 0)
(0.202107 0.00350804 0)
(0.201942 0.0034386 0)
(0.201769 0.00337126 0)
(0.201589 0.00330588 0)
(0.201402 0.00324231 0)
(0.201207 0.00318044 0)
(0.201004 0.00312017 0)
(0.200793 0.00306138 0)
(0.200575 0.00300401 0)
(0.20035 0.00294796 0)
(0.200117 0.00289315 0)
(0.199876 0.00283953 0)
(0.199628 0.00278703 0)
(0.199372 0.00273558 0)
(0.199109 0.00268514 0)
(0.198839 0.00263565 0)
(0.198562 0.00258707 0)
(0.198278 0.00253934 0)
(0.197987 0.00249243 0)
(0.197689 0.00244629 0)
(0.197384 0.00240088 0)
(0.197073 0.00235616 0)
(0.196755 0.00231211 0)
(0.196431 0.00226867 0)
(0.196102 0.00222582 0)
(0.195766 0.00218351 0)
(0.195425 0.00214173 0)
(0.195078 0.00210043 0)
(0.194726 0.00205959 0)
(0.194369 0.00201917 0)
(0.194007 0.00197914 0)
(0.19364 0.00193947 0)
(0.193269 0.00190015 0)
(0.192894 0.00186112 0)
(0.192516 0.00182238 0)
(0.192133 0.0017839 0)
(0.191748 0.00174564 0)
(0.19136 0.00170759 0)
(0.190968 0.00166973 0)
(0.190575 0.00163203 0)
(0.19018 0.00159448 0)
(0.189782 0.00155706 0)
(0.189384 0.00151976 0)
(0.188984 0.00148256 0)
(0.188584 0.00144546 0)
(0.188183 0.00140845 0)
(0.187783 0.00137153 0)
(0.187383 0.00133471 0)
(0.186983 0.00129799 0)
(0.186585 0.0012614 0)
(0.186188 0.00122495 0)
(0.185793 0.00118869 0)
(0.185401 0.00115265 0)
(0.18501 0.0011169 0)
(0.184623 0.00108152 0)
(0.184239 0.0010466 0)
(0.183858 0.00101228 0)
(0.18348 0.000978752 0)
(0.183107 0.000946279 0)
(0.182738 0.000915254 0)
(0.182374 0.000886255 0)
(0.182016 0.00085993 0)
(0.181672 0.000835572 0)
(0.181268 0.000801882 0)
(0.197771 0.00617769 0)
(0.198189 0.00670645 0)
(0.198682 0.00713625 0)
(0.199222 0.007456 0)
(0.199781 0.00766828 0)
(0.200337 0.00778149 0)
(0.200871 0.00780599 0)
(0.201369 0.0077537 0)
(0.201821 0.00763805 0)
(0.20222 0.0074731 0)
(0.202564 0.00727252 0)
(0.202854 0.00704883 0)
(0.203091 0.0068129 0)
(0.20328 0.00657364 0)
(0.203428 0.00633788 0)
(0.203538 0.00611052 0)
(0.203618 0.00589465 0)
(0.203673 0.00569196 0)
(0.203707 0.00550301 0)
(0.203724 0.0053276 0)
(0.203728 0.00516501 0)
(0.203722 0.00501423 0)
(0.203706 0.00487416 0)
(0.203683 0.00474366 0)
(0.203654 0.00462166 0)
(0.20362 0.00450718 0)
(0.20358 0.00439937 0)
(0.203537 0.00429746 0)
(0.203489 0.00420082 0)
(0.203437 0.00410889 0)
(0.203381 0.00402118 0)
(0.203321 0.0039373 0)
(0.203257 0.00385689 0)
(0.20319 0.00377964 0)
(0.203119 0.00370529 0)
(0.203044 0.0036336 0)
(0.202965 0.00356437 0)
(0.202881 0.00349741 0)
(0.202794 0.00343255 0)
(0.202703 0.00336965 0)
(0.202608 0.00330857 0)
(0.202508 0.00324919 0)
(0.202404 0.0031914 0)
(0.202296 0.0031351 0)
(0.202183 0.00308019 0)
(0.202066 0.0030266 0)
(0.201944 0.00297425 0)
(0.201817 0.00292305 0)
(0.201685 0.00287295 0)
(0.201549 0.00282389 0)
(0.201408 0.00277579 0)
(0.201262 0.00272861 0)
(0.201111 0.0026823 0)
(0.200955 0.0026368 0)
(0.200794 0.00259206 0)
(0.200628 0.00254805 0)
(0.200458 0.00250471 0)
(0.200282 0.002462 0)
(0.200101 0.00241989 0)
(0.199915 0.00237833 0)
(0.199725 0.00233729 0)
(0.199529 0.00229672 0)
(0.199329 0.00225659 0)
(0.199124 0.00221687 0)
(0.198914 0.00217752 0)
(0.198699 0.0021385 0)
(0.19848 0.00209979 0)
(0.198256 0.00206135 0)
(0.198028 0.00202314 0)
(0.197796 0.00198515 0)
(0.19756 0.00194733 0)
(0.19732 0.00190967 0)
(0.197075 0.00187213 0)
(0.196828 0.00183469 0)
(0.196576 0.00179732 0)
(0.196321 0.00176001 0)
(0.196063 0.00172273 0)
(0.195802 0.00168547 0)
(0.195539 0.0016482 0)
(0.195272 0.00161093 0)
(0.195004 0.00157363 0)
(0.194733 0.00153631 0)
(0.19446 0.00149896 0)
(0.194186 0.00146159 0)
(0.19391 0.00142422 0)
(0.193633 0.00138685 0)
(0.193355 0.00134953 0)
(0.193076 0.00131227 0)
(0.192797 0.00127515 0)
(0.192517 0.00123821 0)
(0.192238 0.00120155 0)
(0.191959 0.00116528 0)
(0.19168 0.00112953 0)
(0.191401 0.0010945 0)
(0.191124 0.00106044 0)
(0.190848 0.00102767 0)
(0.190574 0.000996566 0)
(0.190303 0.000967177 0)
(0.19004 0.000937512 0)
(0.189724 0.000895826 0)
(0.198104 0.00594866 0)
(0.198469 0.00641427 0)
(0.198895 0.00680228 0)
(0.199365 0.00710106 0)
(0.199859 0.00730917 0)
(0.200355 0.00743119 0)
(0.200836 0.00747464 0)
(0.201289 0.00744892 0)
(0.201705 0.00736491 0)
(0.202078 0.00723426 0)
(0.202404 0.00706857 0)
(0.202684 0.00687868 0)
(0.202917 0.0066742 0)
(0.203108 0.00646321 0)
(0.203261 0.00625215 0)
(0.203381 0.00604578 0)
(0.203471 0.00584738 0)
(0.203538 0.00565896 0)
(0.203586 0.0054815 0)
(0.203617 0.00531524 0)
(0.203635 0.00515991 0)
(0.203643 0.00501489 0)
(0.203643 0.0048794 0)
(0.203636 0.00475259 0)
(0.203623 0.0046336 0)
(0.203606 0.00452163 0)
(0.203585 0.00441594 0)
(0.203561 0.00431589 0)
(0.203534 0.0042209 0)
(0.203504 0.00413047 0)
(0.203472 0.00404416 0)
(0.203438 0.00396159 0)
(0.203401 0.00388244 0)
(0.203363 0.00380641 0)
(0.203323 0.00373326 0)
(0.203281 0.00366276 0)
(0.203238 0.00359471 0)
(0.203192 0.00352894 0)
(0.203145 0.00346527 0)
(0.203096 0.00340358 0)
(0.203045 0.00334373 0)
(0.202992 0.0032856 0)
(0.202937 0.00322909 0)
(0.20288 0.00317408 0)
(0.202821 0.0031205 0)
(0.20276 0.00306825 0)
(0.202696 0.00301726 0)
(0.20263 0.00296745 0)
(0.202562 0.00291875 0)
(0.202492 0.00287111 0)
(0.202419 0.00282445 0)
(0.202343 0.00277873 0)
(0.202264 0.00273388 0)
(0.202183 0.00268985 0)
(0.202099 0.0026466 0)
(0.202013 0.00260407 0)
(0.201923 0.00256221 0)
(0.20183 0.00252099 0)
(0.201734 0.00248035 0)
(0.201636 0.00244026 0)
(0.201534 0.00240066 0)
(0.201428 0.00236153 0)
(0.20132 0.00232282 0)
(0.201208 0.00228449 0)
(0.201094 0.00224651 0)
(0.200975 0.00220883 0)
(0.200854 0.00217141 0)
(0.200729 0.00213424 0)
(0.200601 0.00209726 0)
(0.20047 0.00206044 0)
(0.200335 0.00202376 0)
(0.200198 0.00198718 0)
(0.200057 0.00195068 0)
(0.199912 0.00191421 0)
(0.199765 0.00187776 0)
(0.199615 0.0018413 0)
(0.199462 0.00180481 0)
(0.199305 0.00176827 0)
(0.199146 0.00173165 0)
(0.198985 0.00169496 0)
(0.19882 0.00165817 0)
(0.198653 0.00162128 0)
(0.198484 0.00158429 0)
(0.198312 0.0015472 0)
(0.198138 0.00151003 0)
(0.197962 0.0014728 0)
(0.197783 0.00143552 0)
(0.197603 0.00139825 0)
(0.197421 0.00136104 0)
(0.197238 0.00132395 0)
(0.197053 0.00128707 0)
(0.196867 0.00125051 0)
(0.196679 0.00121442 0)
(0.19649 0.00117899 0)
(0.1963 0.00114443 0)
(0.196109 0.00111101 0)
(0.195918 0.0010789 0)
(0.195729 0.00104776 0)
(0.195542 0.00101516 0)
(0.19531 0.000971053 0)
(0.198399 0.00573895 0)
(0.198719 0.00615052 0)
(0.19909 0.00650038 0)
(0.199501 0.00677772 0)
(0.199936 0.00697897 0)
(0.200377 0.00710601 0)
(0.200809 0.00716396 0)
(0.20122 0.00716005 0)
(0.201602 0.00710293 0)
(0.201948 0.00700215 0)
(0.202256 0.00686742 0)
(0.202522 0.00670805 0)
(0.202749 0.00653243 0)
(0.202939 0.00634783 0)
(0.203093 0.00616018 0)
(0.203218 0.00597406 0)
(0.203315 0.00579279 0)
(0.20339 0.00561861 0)
(0.203445 0.00545279 0)
(0.203485 0.00529595 0)
(0.203512 0.00514816 0)
(0.203529 0.00500916 0)
(0.203537 0.00487845 0)
(0.203538 0.00475545 0)
(0.203534 0.00463951 0)
(0.203525 0.00452999 0)
(0.203513 0.0044263 0)
(0.203497 0.00432788 0)
(0.203479 0.00423424 0)
(0.203459 0.00414494 0)
(0.203437 0.00405959 0)
(0.203413 0.00397784 0)
(0.203388 0.00389941 0)
(0.203362 0.00382402 0)
(0.203335 0.00375144 0)
(0.203306 0.00368146 0)
(0.203277 0.0036139 0)
(0.203248 0.00354859 0)
(0.203217 0.00348538 0)
(0.203186 0.00342412 0)
(0.203154 0.00336471 0)
(0.203121 0.00330703 0)
(0.203088 0.00325096 0)
(0.203054 0.00319642 0)
(0.20302 0.00314333 0)
(0.202984 0.00309158 0)
(0.202948 0.00304112 0)
(0.202911 0.00299186 0)
(0.202874 0.00294374 0)
(0.202835 0.0028967 0)
(0.202795 0.00285067 0)
(0.202755 0.0028056 0)
(0.202713 0.00276143 0)
(0.20267 0.00271811 0)
(0.202626 0.00267558 0)
(0.202581 0.00263381 0)
(0.202535 0.00259273 0)
(0.202487 0.0025523 0)
(0.202437 0.00251248 0)
(0.202387 0.00247322 0)
(0.202334 0.00243448 0)
(0.20228 0.00239622 0)
(0.202225 0.00235839 0)
(0.202167 0.00232095 0)
(0.202108 0.00228386 0)
(0.202047 0.00224708 0)
(0.201984 0.00221058 0)
(0.20192 0.00217431 0)
(0.201853 0.00213824 0)
(0.201784 0.00210232 0)
(0.201714 0.00206654 0)
(0.201641 0.00203085 0)
(0.201566 0.00199521 0)
(0.201489 0.00195961 0)
(0.20141 0.001924 0)
(0.201328 0.00188837 0)
(0.201245 0.00185268 0)
(0.201159 0.00181692 0)
(0.201071 0.00178106 0)
(0.200981 0.0017451 0)
(0.200889 0.00170901 0)
(0.200795 0.00167278 0)
(0.200698 0.00163643 0)
(0.2006 0.00159995 0)
(0.200499 0.00156335 0)
(0.200396 0.00152665 0)
(0.200291 0.00148988 0)
(0.200184 0.00145308 0)
(0.200075 0.0014163 0)
(0.199964 0.00137961 0)
(0.199851 0.00134311 0)
(0.199735 0.0013069 0)
(0.199618 0.00127113 0)
(0.199499 0.00123596 0)
(0.199378 0.0012016 0)
(0.199255 0.00116824 0)
(0.199131 0.00113594 0)
(0.199006 0.00110417 0)