/*--------------------------------*- C++ -*----------------------------------*\
| =========                 |                                                 |
| \\      /  F ield         | OpenFOAM: The Open Source CFD Toolbox           |
|  \\    /   O peration     | Version:  2.3.0                                 |
|   \\  /    A nd           | Web:      www.OpenFOAM.org                      |
|    \\/     M anipulation  |                                                 |
\*---------------------------------------------------------------------------*/
FoamFile
{
    version     2.0;
    format      ascii;
    class       volScalarField;
    location    "0.15";
    object      p;
}
// * * * * * * * * * * * * * * * * * * * * * * * * * * * * * * * * * * * * * //

dimensions      [0 2 -2 0 0 0 0];

internalField   nonuniform List<scalar> 
1650
(
0.00184979
0.0015823
0.00113168
0.000714674
0.000343732
1.13902e-05
-0.00028103
-0.000514037
-0.000660874
-0.000720863
-0.000716747
-0.000677101
-0.000624491
-0.000573851
-0.000533419
-0.000503833
-0.000481513
-0.000463864
-0.00044837
-0.000431702
-0.000411915
-0.000389055
-0.000363122
-0.000333533
-0.000299922
-0.000264425
-0.000228981
-0.00019572
-0.000166099
-0.00014055
-0.000118828
-0.000100425
-8.48422e-05
-7.16455e-05
-6.0507e-05
-5.11446e-05
-4.33025e-05
-3.67375e-05
-3.12259e-05
-2.65734e-05
-2.26217e-05
-1.92464e-05
-1.63519e-05
-1.38651e-05
-1.17271e-05
-9.89113e-06
-8.31597e-06
-6.96781e-06
-5.81444e-06
-4.83039e-06
-3.98969e-06
-3.27286e-06
-2.65945e-06
-2.13442e-06
-1.68151e-06
-1.28978e-06
-9.45865e-07
-6.41469e-07
-3.67646e-07
-1.15528e-07
0.00153175
0.00140034
0.00107145
0.000694134
0.000335957
1.80738e-05
-0.000257848
-0.000477509
-0.000620518
-0.000685291
-0.000689042
-0.000656517
-0.000609511
-0.000563017
-0.000525714
-0.000498369
-0.000477525
-0.000460782
-0.000446069
-0.000430064
-0.000410804
-0.000388438
-0.000362978
-0.000333558
-0.000300449
-0.000264953
-0.00022947
-0.000196122
-0.000166406
-0.000140774
-0.000118989
-0.000100539
-8.492e-05
-7.16945e-05
-6.05371e-05
-5.11637e-05
-4.33163e-05
-3.67494e-05
-3.12374e-05
-2.65848e-05
-2.26327e-05
-1.92567e-05
-1.63614e-05
-1.38735e-05
-1.17345e-05
-9.89755e-06
-8.32147e-06
-6.97259e-06
-5.8185e-06
-4.8339e-06
-3.99266e-06
-3.2754e-06
-2.66161e-06
-2.13624e-06
-1.68305e-06
-1.29103e-06
-9.46931e-07
-6.42189e-07
-3.68312e-07
-1.15808e-07
0.00132533
0.00125001
0.00101139
0.000681659
0.000343025
4.10002e-05
-0.000213491
-0.000415013
-0.000553834
-0.000627446
-0.000645174
-0.000625491
-0.000588188
-0.000548515
-0.000515217
-0.000490025
-0.000470465
-0.000454608
-0.000440472
-0.000424903
-0.000406097
-0.000384254
-0.000359384
-0.000330645
-0.000298224
-0.00026346
-0.000228568
-0.000195668
-0.00016627
-0.000140821
-0.000119121
-0.000100692
-8.50607e-05
-7.1801e-05
-6.06084e-05
-5.12058e-05
-4.33381e-05
-3.6759e-05
-3.12408e-05
-2.65857e-05
-2.26329e-05
-1.92571e-05
-1.63619e-05
-1.38743e-05
-1.17355e-05
-9.89867e-06
-8.32263e-06
-6.97382e-06
-5.81973e-06
-4.83518e-06
-3.99394e-06
-3.27669e-06
-2.66293e-06
-2.13754e-06
-1.68439e-06
-1.29231e-06
-9.48248e-07
-6.43308e-07
-3.6927e-07
-1.16308e-07
0.00117358
0.00111361
0.000936534
0.000660332
0.000351167
6.84665e-05
-0.000165709
-0.000350813
-0.000484046
-0.000562284
-0.000590983
-0.000584173
-0.000557889
-0.000525737
-0.000496958
-0.000474449
-0.00045676
-0.000442268
-0.000429007
-0.000414117
-0.000396053
-0.000375037
-0.000351113
-0.000323617
-0.000292631
-0.00025936
-0.000225811
-0.000194058
-0.000165463
-0.000140506
-0.000119076
-0.000100783
-8.52116e-05
-7.19562e-05
-6.0748e-05
-5.13194e-05
-4.34232e-05
-3.68181e-05
-3.1279e-05
-2.66088e-05
-2.2646e-05
-1.92641e-05
-1.63656e-05
-1.38764e-05
-1.17368e-05
-9.8998e-06
-8.3238e-06
-6.97514e-06
-5.82123e-06
-4.83682e-06
-3.99581e-06
-3.27863e-06
-2.6651e-06
-2.13974e-06
-1.6868e-06
-1.29471e-06
-9.50787e-07
-6.45661e-07
-3.71307e-07
-1.17789e-07
0.00104655
0.00099021
0.000853016
0.000627671
0.00035416
9.39505e-05
-0.000121638
-0.000292099
-0.000419194
-0.000499824
-0.00053633
-0.000539938
-0.000523719
-0.000498906
-0.000474567
-0.000454801
-0.000439021
-0.000425761
-0.000413289
-0.000399154
-0.000381933
-0.00036181
-0.000338965
-0.000312959
-0.000283804
-0.000252526
-0.000220896
-0.000190811
-0.000163482
-0.000139386
-0.000118495
-0.000100536
-8.51757e-05
-7.2022e-05
-6.08636e-05
-5.14446e-05
-4.35341e-05
-3.69036e-05
-3.13374e-05
-2.66441e-05
-2.26642e-05
-1.92711e-05
-1.6366e-05
-1.38735e-05
-1.17327e-05
-9.89577e-06
-8.32039e-06
-6.97253e-06
-5.81957e-06
-4.8359e-06
-3.99577e-06
-3.27916e-06
-2.66636e-06
-2.14142e-06
-1.68909e-06
-1.29726e-06
-9.53749e-07
-6.4864e-07
-3.73989e-07
-1.1989e-07
0.00093683
0.000881473
0.000768832
0.000585873
0.000351077
0.000116312
-8.17009e-05
-0.000239338
-0.000360557
-0.000442005
-0.000483702
-0.000495437
-0.000488243
-0.000470446
-0.000450358
-0.000433357
-0.000419572
-0.000407446
-0.000395638
-0.000382309
-0.000366054
-0.000346855
-0.000325078
-0.000300597
-0.000273373
-0.000244208
-0.000214688
-0.000186458
-0.00016057
-0.000137498
-0.000117301
-9.98173e-05
-8.4787e-05
-7.18243e-05
-6.07947e-05
-5.14465e-05
-4.35643e-05
-3.69352e-05
-3.13571e-05
-2.66484e-05
-2.26551e-05
-1.9253e-05
-1.63432e-05
-1.38494e-05
-1.17097e-05
-9.87502e-06
-8.30258e-06
-6.95763e-06
-5.80762e-06
-4.82641e-06
-3.98871e-06
-3.27398e-06
-2.66304e-06
-2.13954e-06
-1.68863e-06
-1.29782e-06
-9.55296e-07
-6.50771e-07
-3.76147e-07
-1.21738e-07
0.000839475
0.0007847
0.000689179
0.000540893
0.000342838
0.000134277
-4.64827e-05
-0.00019232
-0.000307659
-0.000388706
-0.000433752
-0.0004517
-0.000452208
-0.000441026
-0.000425116
-0.00041079
-0.000399036
-0.000388138
-0.000377009
-0.000364526
-0.000349342
-0.000331138
-0.000310451
-0.000287502
-0.00026222
-0.000235162
-0.000207713
-0.00018133
-0.000156937
-0.000134976
-0.00011557
-9.86392e-05
-8.39375e-05
-7.13284e-05
-6.04912e-05
-5.12636e-05
-4.34511e-05
-3.68558e-05
-3.12899e-05
-2.65832e-05
-2.25891e-05
-1.91872e-05
-1.62798e-05
-1.37906e-05
-1.16569e-05
-9.82887e-06
-8.26318e-06
-6.92448e-06
-5.78034e-06
-4.80415e-06
-3.97104e-06
-3.26013e-06
-2.65263e-06
-2.13199e-06
-1.68364e-06
-1.29494e-06
-9.54213e-07
-6.51065e-07
-3.77072e-07
-1.22918e-07
0.000752039
0.000699019
0.000617022
0.000495761
0.000329072
0.000146257
-1.63523e-05
-0.000150376
-0.000259856
-0.000339834
-0.000386914
-0.000409313
-0.000416062
-0.000410973
-0.000399203
-0.000387401
-0.000377597
-0.000368081
-0.000357768
-0.00034613
-0.000332028
-0.000314918
-0.000295421
-0.000274025
-0.000250639
-0.000225607
-0.000200149
-0.000175585
-0.000152705
-0.000131898
-0.000113344
-9.70395e-05
-8.28171e-05
-7.05284e-05
-5.99327e-05
-5.08713e-05
-4.31661e-05
-3.66368e-05
-3.11096e-05
-2.64259e-05
-2.24477e-05
-1.90589e-05
-1.61643e-05
-1.36879e-05
-1.15671e-05
-9.75142e-06
-8.19734e-06
-6.86907e-06
-5.73441e-06
-4.76635e-06
-3.94046e-06
-3.23567e-06
-2.6335e-06
-2.11745e-06
-1.67304e-06
-1.2877e-06
-9.49785e-07
-6.48963e-07
-3.76447e-07
-1.23334e-07
0.000673818
0.000623016
0.00055146
0.00045141
0.000311375
0.000152541
8.3012e-06
-0.00011349
-0.000216997
-0.000295263
-0.000343039
-0.000368539
-0.000380416
-0.000380622
-0.000372717
-0.000363389
-0.000355429
-0.000347317
-0.000337975
-0.000327232
-0.000314195
-0.000298263
-0.000280081
-0.000260259
-0.000238686
-0.000215582
-0.000192046
-0.00016926
-0.000147882
-0.000128259
-0.000110614
-9.50047e-05
-8.13158e-05
-6.94096e-05
-5.91033e-05
-5.02495e-05
-4.26895e-05
-3.62587e-05
-3.07976e-05
-2.6161e-05
-2.22176e-05
-1.88572e-05
-1.59876e-05
-1.3534e-05
-1.14342e-05
-9.63771e-06
-8.10102e-06
-6.78808e-06
-5.66703e-06
-4.71069e-06
-3.89501e-06
-3.19899e-06
-2.60434e-06
-2.09481e-06
-1.65595e-06
-1.2754e-06
-9.41515e-07
-6.44097e-07
-3.74093e-07
-1.22981e-07
0.000603488
0.000554852
0.000491494
0.000409096
0.000291882
0.000153506
2.6614e-05
-8.1652e-05
-0.000178349
-0.000254665
-0.000302173
-0.000329614
-0.000345711
-0.000350257
-0.000345681
-0.000338894
-0.000332761
-0.000325866
-0.000317562
-0.000307921
-0.000296002
-0.000281232
-0.000264403
-0.000246168
-0.00022633
-0.000205048
-0.000183365
-0.00016233
-0.000142464
-0.00012406
-0.000107376
-9.25207e-05
-7.94189e-05
-6.79505e-05
-5.7978e-05
-4.93754e-05
-4.20004e-05
-3.57033e-05
-3.03391e-05
-2.57742e-05
-2.18866e-05
-1.85718e-05
-1.57411e-05
-1.33217e-05
-1.12524e-05
-9.48282e-06
-7.97009e-06
-6.67809e-06
-5.57534e-06
-4.63479e-06
-3.83275e-06
-3.14846e-06
-2.56384e-06
-2.06297e-06
-1.63152e-06
-1.25736e-06
-9.28897e-07
-6.36121e-07
-3.69827e-07
-1.21861e-07
0.000540017
0.000493791
0.000436713
0.000368675
0.000271423
0.00015054
3.89928e-05
-5.48889e-05
-0.000143463
-0.000217925
-0.000264655
-0.000292545
-0.000311916
-0.000320226
-0.000318385
-0.00031401
-0.000309742
-0.000303838
-0.000296527
-0.000288275
-0.000277587
-0.000263808
-0.000248223
-0.000231615
-0.000213532
-0.000194018
-0.000174131
-0.000154829
-0.000136476
-0.000119304
-0.000103611
-8.95558e-05
-7.70927e-05
-6.61186e-05
-5.65312e-05
-4.82267e-05
-4.10786e-05
-3.49522e-05
-2.9717e-05
-2.52512e-05
-2.14422e-05
-1.8192e-05
-1.54158e-05
-1.30434e-05
-1.10151e-05
-9.28144e-06
-7.80012e-06
-6.53539e-06
-5.45628e-06
-4.5361e-06
-3.75156e-06
-3.08234e-06
-2.51057e-06
-2.02079e-06
-1.59883e-06
-1.23284e-06
-9.11403e-07
-6.24677e-07
-3.63463e-07
-1.1996e-07
0.000482556
0.000438944
0.0003866
0.000329746
0.000250521
0.000145589
4.63933e-05
-3.38878e-05
-0.000112416
-0.000184484
-0.000230569
-0.000257477
-0.000278958
-0.000290914
-0.000291279
-0.000288692
-0.000286361
-0.000281538
-0.000275023
-0.000268167
-0.000258826
-0.000245941
-0.000231501
-0.000216619
-0.000200393
-0.000182586
-0.000164367
-0.000146722
-0.00012987
-0.000113947
-9.92828e-05
-8.60807e-05
-7.43147e-05
-6.38934e-05
-5.47426e-05
-4.67822e-05
-3.99034e-05
-3.39862e-05
-2.89138e-05
-2.45765e-05
-2.08712e-05
-1.77063e-05
-1.5002e-05
-1.26909e-05
-1.07157e-05
-9.02794e-06
-7.58641e-06
-6.35606e-06
-5.3066e-06
-4.41192e-06
-3.64922e-06
-2.99877e-06
-2.44302e-06
-1.96703e-06
-1.55691e-06
-1.2011e-06
-8.88472e-07
-6.09396e-07
-3.54803e-07
-1.17243e-07
0.000430033
0.000389584
0.000341202
0.000292344
0.000228881
0.000139658
5.0258e-05
-1.88604e-05
-8.55377e-05
-0.000153563
-0.000199763
-0.000225041
-0.00024692
-0.00026225
-0.000264676
-0.000263095
-0.000262646
-0.000259188
-0.000253096
-0.000247319
-0.00023963
-0.000227905
-0.000214498
-0.000201213
-0.000186833
-0.000170667
-0.000153993
-0.000137952
-0.000122624
-0.000107994
-9.43942e-05
-8.20862e-05
-7.10665e-05
-6.12506e-05
-5.25863e-05
-4.50173e-05
-3.84525e-05
-3.27852e-05
-2.7912e-05
-2.37347e-05
-2.016e-05
-1.71032e-05
-1.44898e-05
-1.22561e-05
-1.03471e-05
-8.71641e-06
-7.32404e-06
-6.13599e-06
-5.12288e-06
-4.25939e-06
-3.52338e-06
-2.89581e-06
-2.35963e-06
-1.90042e-06
-1.50473e-06
-1.16135e-06
-8.59519e-07
-5.89895e-07
-3.43635e-07
-1.13654e-07
0.000381644
0.000345086
0.000300149
0.000256726
0.000206301
0.000132801
5.21494e-05
-8.96253e-06
-6.33951e-05
-0.000125022
-0.000171826
-0.000195701
-0.000215976
-0.000233953
-0.000238893
-0.000237641
-0.000238403
-0.00023663
-0.000230997
-0.000225961
-0.000220099
-0.000209814
-0.000197195
-0.000185169
-0.000172643
-0.000158234
-0.000143082
-0.000128573
-0.000114759
-0.000101444
-8.89299e-05
-7.75453e-05
-6.73182e-05
-5.81629e-05
-5.00384e-05
-4.29104e-05
-3.67057e-05
-3.13309e-05
-2.66947e-05
-2.27107e-05
-1.92951e-05
-1.6371e-05
-1.38692e-05
-1.17302e-05
-9.90216e-06
-8.34078e-06
-7.00793e-06
-5.87096e-06
-4.9016e-06
-4.07561e-06
-3.37163e-06
-2.77148e-06
-2.25875e-06
-1.81963e-06
-1.44125e-06
-1.11279e-06
-8.2395e-07
-5.65778e-07
-3.29734e-07
-1.09132e-07
0.000336333
0.00030435
0.000263066
0.000223751
0.000182862
0.000124178
5.32836e-05
-2.46775e-06
-4.66858e-05
-9.9474e-05
-0.00014573
-0.000169318
-0.000186967
-0.000206029
-0.00021365
-0.000212501
-0.000213729
-0.000214008
-0.000209221
-0.000204297
-0.000199844
-0.000191286
-0.000179565
-0.000168586
-0.000157884
-0.000145352
-0.00013169
-0.000118577
-0.000106223
-9.42553e-05
-8.28676e-05
-7.24421e-05
-6.30533e-05
-5.46127e-05
-4.70808e-05
-4.04425e-05
-3.46439e-05
-2.96047e-05
-2.5245e-05
-2.14891e-05
-1.82633e-05
-1.54979e-05
-1.31301e-05
-1.11047e-05
-9.37356e-06
-7.89499e-06
-6.633e-06
-5.55669e-06
-4.63923e-06
-3.85761e-06
-3.19153e-06
-2.62377e-06
-2.13874e-06
-1.72335e-06
-1.3654e-06
-1.0546e-06
-7.81171e-07
-5.36642e-07
-3.12875e-07
-1.03613e-07
0.000292664
0.000266271
0.000229319
0.000193296
0.000158848
0.000113413
5.38212e-05
2.04845e-06
-3.49949e-05
-7.72184e-05
-0.000120727
-0.00014551
-0.000160391
-0.000178038
-0.000188194
-0.000188145
-0.000189213
-0.000190929
-0.000187185
-0.00018206
-0.000178595
-0.000172158
-0.000161747
-0.000151574
-0.000142387
-0.000131753
-0.00011964
-0.00010786
-9.69276e-05
-8.63537e-05
-7.61526e-05
-6.67257e-05
-5.82175e-05
-5.05467e-05
-4.36651e-05
-3.75706e-05
-3.2229e-05
-2.75732e-05
-2.35333e-05
-2.00442e-05
-1.70419e-05
-1.44646e-05
-1.22558e-05
-1.03654e-05
-8.74923e-06
-7.36881e-06
-6.19067e-06
-5.18603e-06
-4.32978e-06
-3.60043e-06
-2.97898e-06
-2.44931e-06
-1.99687e-06
-1.60936e-06
-1.27545e-06
-9.85428e-07
-7.30191e-07
-5.01812e-07
-2.92673e-07
-9.6986e-08
0.000248862
0.000228738
0.000196839
0.000164281
0.000134799
0.00010012
5.25205e-05
5.92256e-06
-2.629e-05
-5.85557e-05
-9.6795e-05
-0.000122459
-0.000135099
-0.000149832
-0.000162064
-0.00016394
-0.00016396
-0.000165918
-0.000163826
-0.000159111
-0.000156179
-0.000151694
-0.00014292
-0.00013348
-0.000125506
-0.000116821
-0.00010648
-9.60852e-05
-8.65433e-05
-7.74121e-05
-6.8494e-05
-6.01463e-05
-5.25913e-05
-4.57729e-05
-3.96265e-05
-3.41534e-05
-2.9339e-05
-2.51311e-05
-2.14693e-05
-1.82984e-05
-1.55644e-05
-1.32143e-05
-1.1198e-05
-9.47132e-06
-7.99455e-06
-6.73304e-06
-5.6564e-06
-4.7384e-06
-3.95607e-06
-3.2898e-06
-2.72216e-06
-2.23839e-06
-1.8252e-06
-1.4713e-06
-1.16633e-06
-9.01391e-07
-6.68135e-07
-4.5932e-07
-2.67981e-07
-8.88632e-08
0.000204196
0.000190003
0.000164325
0.000136206
0.000110843
8.41414e-05
4.85497e-05
9.59048e-06
-1.93979e-05
-4.39734e-05
-7.41344e-05
-9.86496e-05
-0.000110854
-0.000122494
-0.000134509
-0.000137965
-0.000137301
-0.00013911
-0.000138968
-0.00013513
-0.000132046
-0.000128895
-0.000122182
-0.000113891
-0.000106963
-0.000100122
-9.17426e-05
-8.28654e-05
-7.47136e-05
-6.70756e-05
-5.95718e-05
-5.24308e-05
-4.59328e-05
-4.00711e-05
-3.47682e-05
-3.0018e-05
-2.58226e-05
-2.21463e-05
-1.89386e-05
-1.61535e-05
-1.3747e-05
-1.16753e-05
-9.89599e-06
-8.37095e-06
-7.06603e-06
-5.95108e-06
-4.99944e-06
-4.18805e-06
-3.49663e-06
-2.90783e-06
-2.40626e-06
-1.97884e-06
-1.6138e-06
-1.30112e-06
-1.03167e-06
-7.97544e-07
-5.91337e-07
-4.06649e-07
-2.37327e-07
-7.87457e-08
0.000159367
0.00014994
0.000131123
0.000108277
8.71001e-05
6.67944e-05
4.1645e-05
1.15791e-05
-1.35428e-05
-3.22379e-05
-5.37976e-05
-7.51758e-05
-8.74079e-05
-9.57469e-05
-0.000105257
-0.000110098
-0.000110156
-0.000111322
-0.000111999
-0.000109195
-0.000106108
-0.0001039
-9.93912e-05
-9.27026e-05
-8.67483e-05
-8.14736e-05
-7.51285e-05
-6.7991e-05
-6.13134e-05
-5.52072e-05
-4.92303e-05
-4.34375e-05
-3.81155e-05
-3.33202e-05
-2.8975e-05
-2.50598e-05
-2.15859e-05
-1.85345e-05
-1.58659e-05
-1.35429e-05
-1.15314e-05
-9.79714e-06
-8.30608e-06
-7.02708e-06
-5.9321e-06
-4.99627e-06
-4.19741e-06
-3.51626e-06
-2.93585e-06
-2.44161e-06
-2.02062e-06
-1.66187e-06
-1.3555e-06
-1.09307e-06
-8.66904e-07
-6.70347e-07
-4.97166e-07
-3.41999e-07
-1.99663e-07
-6.6317e-08
0.000114894
0.000108741
9.63596e-05
7.96967e-05
6.35441e-05
4.87041e-05
3.18161e-05
1.11171e-05
-8.16572e-06
-2.2335e-05
-3.67729e-05
-5.2681e-05
-6.32023e-05
-6.90815e-05
-7.59039e-05
-8.10628e-05
-8.17468e-05
-8.18686e-05
-8.25411e-05
-8.11061e-05
-7.86641e-05
-7.70111e-05
-7.42293e-05
-6.94019e-05
-6.46647e-05
-6.07962e-05
-5.64256e-05
-5.12278e-05
-4.61864e-05
-4.1663e-05
-3.72963e-05
-3.29977e-05
-2.89975e-05
-2.53945e-05
-2.21309e-05
-1.91747e-05
-1.65383e-05
-1.42167e-05
-1.21822e-05
-1.04067e-05
-8.86583e-06
-7.53528e-06
-6.39002e-06
-5.40677e-06
-4.5645e-06
-3.84441e-06
-3.22964e-06
-2.70544e-06
-2.25881e-06
-1.87852e-06
-1.55465e-06
-1.27868e-06
-1.04304e-06
-8.41204e-07
-6.67249e-07
-5.16056e-07
-3.82808e-07
-2.63393e-07
-1.53804e-07
-5.09547e-08
7.02367e-05
6.65127e-05
5.96529e-05
4.96021e-05
3.92599e-05
2.991e-05
2.01092e-05
8.15458e-06
-4.0978e-06
-1.34355e-05
-2.16504e-05
-3.10682e-05
-3.84964e-05
-4.25856e-05
-4.65591e-05
-5.00815e-05
-5.08276e-05
-5.06835e-05
-5.12454e-05
-5.07809e-05
-4.91741e-05
-4.79557e-05
-4.64519e-05
-4.36168e-05
-4.05279e-05
-3.80747e-05
-3.55081e-05
-3.23446e-05
-2.91528e-05
-2.63166e-05
-2.3629e-05
-2.09574e-05
-1.84383e-05
-1.61674e-05
-1.41138e-05
-1.22473e-05
-1.05753e-05
-9.09997e-06
-7.80533e-06
-6.67333e-06
-5.68916e-06
-4.83815e-06
-4.10486e-06
-3.47471e-06
-2.93448e-06
-2.47231e-06
-2.07754e-06
-1.74079e-06
-1.45376e-06
-1.20929e-06
-1.00104e-06
-8.23544e-07
-6.7196e-07
-5.42079e-07
-4.30133e-07
-3.32787e-07
-2.46993e-07
-1.70038e-07
-9.95258e-08
-3.36387e-08
2.38453e-05
2.25526e-05
2.03712e-05
1.70028e-05
1.34045e-05
1.01888e-05
6.94286e-06
2.98312e-06
-1.23844e-06
-4.48122e-06
-7.13156e-06
-1.03143e-05
-1.31253e-05
-1.46171e-05
-1.57907e-05
-1.69826e-05
-1.73912e-05
-1.73882e-05
-1.75926e-05
-1.74724e-05
-1.68804e-05
-1.64149e-05
-1.59556e-05
-1.5039e-05
-1.39537e-05
-1.3091e-05
-1.2239e-05
-1.11749e-05
-1.00718e-05
-9.09409e-06
-8.18012e-06
-7.26752e-06
-6.3988e-06
-5.61427e-06
-4.90544e-06
-4.25959e-06
-3.67906e-06
-3.16578e-06
-2.71487e-06
-2.32016e-06
-1.97668e-06
-1.67959e-06
-1.42366e-06
-1.20388e-06
-1.01562e-06
-8.54773e-07
-7.17561e-07
-6.00687e-07
-5.01203e-07
-4.16593e-07
-3.44592e-07
-2.83308e-07
-2.30993e-07
-1.86228e-07
-1.47627e-07
-1.14112e-07
-8.45191e-08
-5.80084e-08
-3.34442e-08
-1.01793e-08
0.000221361
0.00019142
0.00021356
0.000257351
0.000271362
0.000290918
0.00037755
0.000442909
0.000489607
0.000575208
0.000711807
0.000833382
0.00100324
0.00125338
0.00159276
0.000213113
0.00019172
0.000213749
0.000257813
0.000269841
0.000290906
0.000375678
0.000442248
0.000486053
0.000574954
0.000695537
0.000827654
0.000980399
0.00120273
0.00141834
0.000210048
0.000192514
0.000213617
0.000257704
0.000267353
0.000290807
0.000372388
0.000439972
0.000481979
0.000570358
0.000686337
0.00081319
0.000944232
0.00112239
0.00126667
0.000206641
0.000192859
0.000213375
0.000256985
0.000264495
0.000289635
0.000368656
0.000436372
0.000477394
0.000562164
0.000674033
0.00078833
0.000900387
0.00103962
0.00114653
0.000202156
0.00019266
0.000212994
0.000255427
0.000261335
0.000287097
0.000364529
0.000431296
0.000471205
0.000550748
0.000657259
0.000757639
0.000852041
0.000960539
0.00103985
0.000198081
0.000191679
0.000212063
0.000253054
0.000258035
0.000283184
0.000359425
0.000424662
0.00046298
0.000536354
0.000636076
0.000723218
0.000800558
0.000884784
0.000942509
0.000194013
0.000189606
0.000210329
0.000250158
0.000254365
0.000277866
0.000352968
0.000416403
0.000452471
0.000519214
0.000610972
0.000685873
0.000747698
0.000812801
0.000853674
0.000189925
0.000186384
0.000207481
0.000246786
0.000250158
0.000271163
0.000344926
0.000406462
0.000439542
0.000499548
0.000582681
0.000646398
0.000694717
0.000744321
0.000771996
0.000185751
0.000182177
0.000203129
0.000242763
0.000245373
0.000262997
0.000335042
0.000394937
0.000424218
0.000477409
0.000552042
0.00060545
0.000642007
0.000679187
0.000697081
0.00018127
0.000177214
0.000197122
0.000238846
0.000240464
0.000253338
0.000322979
0.000381907
0.000406697
0.000452747
0.000519717
0.000563804
0.000589907
0.00061739
0.000628435
0.000176203
0.00017171
0.000189347
0.000232477
0.000235655
0.000242567
0.000308324
0.000367203
0.000387468
0.000425657
0.000486001
0.0005223
0.000538821
0.00055853
0.000565228
0.000170263
0.000165788
0.000180094
0.000223983
0.000230605
0.000231246
0.000290881
0.000350413
0.000367156
0.000396498
0.000450753
0.000481491
0.000489367
0.00050226
0.000506739
0.000163159
0.000159424
0.000169925
0.00021287
0.000224505
0.000219945
0.000270942
0.000330946
0.000346126
0.000365979
0.000413753
0.000441446
0.000442338
0.000448509
0.00045194
0.00015471
0.000152406
0.000159316
0.00019917
0.000216448
0.000208948
0.000249216
0.000308283
0.000324283
0.000335079
0.000375127
0.000401711
0.000398191
0.000397452
0.000399896
0.000144859
0.000144388
0.000148512
0.000183301
0.000205581
0.00019796
0.000226631
0.000282309
0.000301071
0.000304667
0.000335496
0.000361558
0.000356725
0.000349604
0.000350232
0.000133546
0.000134931
0.000137366
0.000165741
0.000191262
0.000186104
0.000203888
0.000253228
0.000275472
0.000274843
0.000295559
0.00032014
0.00031681
0.000305029
0.000302543
0.000120391
0.000123298
0.000125103
0.00014654
0.000172803
0.000171817
0.000180727
0.000220911
0.000245755
0.000244163
0.000255085
0.000276158
0.000275964
0.000262172
0.000255809
0.000104952
0.000108738
0.000110709
0.000125645
0.000149746
0.000153285
0.000156427
0.000185708
0.000210639
0.000210755
0.000213933
0.000229401
0.000232234
0.000219518
0.000209952
8.69974e-05
9.08764e-05
9.32898e-05
0.00010294
0.00012249
0.000129301
0.000129891
0.000148606
0.000170425
0.000173191
0.000171928
0.000181019
0.000185321
0.000175913
0.00016519
6.62089e-05
6.94705e-05
7.20229e-05
7.78316e-05
9.16694e-05
9.93356e-05
9.95048e-05
0.000109818
0.000126062
0.000130457
0.000127911
0.00013172
0.00013564
0.000130044
0.000120657
4.22108e-05
4.43591e-05
4.63739e-05
4.9499e-05
5.75673e-05
6.3476e-05
6.38526e-05
6.85713e-05
7.82741e-05
8.22314e-05
8.03151e-05
8.11224e-05
8.35601e-05
8.09454e-05
7.4724e-05
1.46854e-05
1.5439e-05
1.6214e-05
1.72077e-05
1.98463e-05
2.20767e-05
2.23014e-05
2.35859e-05
2.67726e-05
2.83751e-05
2.77116e-05
2.76659e-05
2.84458e-05
2.7737e-05
2.55769e-05
)
;

boundaryField
{
    top
    {
        type            fixedValue;
        value           uniform 0;
    }
    inlet
    {
        type            zeroGradient;
    }
    outlet
    {
        type            fixedValue;
        value           uniform 0;
    }
    plate
    {
        type            zeroGradient;
    }
    symmBound
    {
        type            zeroGradient;
    }
    frontAndBack
    {
        type            empty;
    }
}


// ************************************************************************* //
