/*--------------------------------*- C++ -*----------------------------------*\
| =========                 |                                                 |
| \\      /  F ield         | OpenFOAM: The Open Source CFD Toolbox           |
|  \\    /   O peration     | Version:  2.3.0                                 |
|   \\  /    A nd           | Web:      www.OpenFOAM.org                      |
|    \\/     M anipulation  |                                                 |
\*---------------------------------------------------------------------------*/
FoamFile
{
    version     2.0;
    format      ascii;
    class       volScalarField;
    location    "0.05";
    object      p;
}
// * * * * * * * * * * * * * * * * * * * * * * * * * * * * * * * * * * * * * //

dimensions      [0 2 -2 0 0 0 0];

internalField   nonuniform List<scalar> 
2945
(
0.00256169
0.00153474
0.000423912
-0.000329877
-0.000782962
-0.000956424
-0.000883883
-0.000795718
-0.000770683
-0.000732641
-0.000676798
-0.00060129
-0.00050488
-0.000408568
-0.000333272
-0.00027962
-0.000239177
-0.000206981
-0.00018319
-0.00016472
-0.000147985
-0.000132982
-0.000119922
-0.000108465
-9.82014e-05
-8.8942e-05
-8.06228e-05
-7.31254e-05
-6.63303e-05
-6.01636e-05
-5.4567e-05
-4.94776e-05
-4.48427e-05
-4.06232e-05
-3.67822e-05
-3.32833e-05
-3.00955e-05
-2.71927e-05
-2.45505e-05
-2.21464e-05
-1.996e-05
-1.7973e-05
-1.61684e-05
-1.45308e-05
-1.30458e-05
-1.17007e-05
-1.04832e-05
-9.38246e-06
-8.38807e-06
-7.49066e-06
-6.6816e-06
-5.95293e-06
-5.29727e-06
-4.70783e-06
-4.17831e-06
-3.70309e-06
-3.27684e-06
-2.89497e-06
-2.5529e-06
-2.24691e-06
-1.97299e-06
-1.72823e-06
-1.50889e-06
-1.313e-06
-1.13669e-06
-9.79225e-07
-8.36299e-07
-7.08071e-07
-5.90718e-07
-4.83451e-07
-3.84749e-07
-2.91677e-07
-2.05014e-07
-1.19806e-07
-4.1164e-08
0.00218824
0.00142562
0.000450899
-0.000268767
-0.000720548
-0.00091247
-0.00085226
-0.000775007
-0.000760672
-0.000728383
-0.00067505
-0.000604189
-0.000507417
-0.000409416
-0.000333723
-0.000279811
-0.000239286
-0.00020694
-0.000183132
-0.000164697
-0.000147945
-0.000132942
-0.00011987
-0.000108432
-9.81684e-05
-8.89088e-05
-8.05918e-05
-7.30973e-05
-6.63043e-05
-6.01395e-05
-5.4545e-05
-4.94577e-05
-4.48245e-05
-4.06066e-05
-3.67673e-05
-3.32699e-05
-3.00833e-05
-2.71817e-05
-2.45407e-05
-2.21376e-05
-1.99521e-05
-1.79659e-05
-1.61621e-05
-1.4525e-05
-1.30407e-05
-1.16961e-05
-1.04792e-05
-9.37886e-06
-8.38486e-06
-7.48782e-06
-6.67908e-06
-5.95071e-06
-5.2953e-06
-4.70609e-06
-4.17677e-06
-3.70174e-06
-3.27565e-06
-2.89393e-06
-2.55198e-06
-2.24611e-06
-1.97229e-06
-1.72763e-06
-1.50836e-06
-1.31254e-06
-1.13628e-06
-9.7888e-07
-8.35995e-07
-7.07804e-07
-5.90505e-07
-4.83245e-07
-3.84594e-07
-2.91528e-07
-2.04863e-07
-1.19717e-07
-4.11299e-08
0.00192763
0.00131494
0.000487155
-0.000164784
-0.000619684
-0.000844678
-0.000803301
-0.000739644
-0.000737781
-0.000711279
-0.00066402
-0.000598232
-0.000504614
-0.000408312
-0.000333155
-0.000280102
-0.000239518
-0.00020704
-0.000183208
-0.000164493
-0.000147835
-0.000132826
-0.000119757
-0.00010834
-9.80809e-05
-8.88234e-05
-8.05138e-05
-7.30266e-05
-6.62396e-05
-6.00804e-05
-5.44916e-05
-4.94094e-05
-4.47806e-05
-4.05669e-05
-3.67315e-05
-3.32376e-05
-3.00542e-05
-2.71554e-05
-2.4517e-05
-2.21163e-05
-1.9933e-05
-1.79487e-05
-1.61466e-05
-1.45112e-05
-1.30283e-05
-1.16851e-05
-1.04693e-05
-9.37003e-06
-8.377e-06
-7.48082e-06
-6.67286e-06
-5.94519e-06
-5.2904e-06
-4.70175e-06
-4.17293e-06
-3.69835e-06
-3.27266e-06
-2.89129e-06
-2.54966e-06
-2.24408e-06
-1.97051e-06
-1.72608e-06
-1.507e-06
-1.31137e-06
-1.13526e-06
-9.78012e-07
-8.35244e-07
-7.07168e-07
-5.8998e-07
-4.82795e-07
-3.84237e-07
-2.91251e-07
-2.04574e-07
-1.19557e-07
-4.12434e-08
0.00170724
0.00121719
0.000511455
-6.60078e-05
-0.000535137
-0.000756322
-0.000727193
-0.000688555
-0.00069851
-0.000677102
-0.000640755
-0.000582466
-0.00049441
-0.000404321
-0.000331546
-0.000280093
-0.000239766
-0.000207079
-0.000183204
-0.000164332
-0.000147674
-0.000132628
-0.000119588
-0.000108176
-9.79198e-05
-8.86753e-05
-8.03793e-05
-7.29037e-05
-6.6127e-05
-5.99779e-05
-5.43989e-05
-4.93253e-05
-4.47041e-05
-4.04978e-05
-3.66693e-05
-3.31814e-05
-3.00034e-05
-2.71097e-05
-2.44759e-05
-2.20792e-05
-1.98996e-05
-1.79187e-05
-1.61197e-05
-1.44871e-05
-1.30067e-05
-1.16657e-05
-1.0452e-05
-9.3546e-06
-8.36323e-06
-7.46855e-06
-6.66196e-06
-5.93549e-06
-5.2818e-06
-4.69413e-06
-4.16618e-06
-3.69238e-06
-3.26739e-06
-2.88666e-06
-2.54559e-06
-2.24051e-06
-1.96738e-06
-1.72334e-06
-1.50462e-06
-1.30931e-06
-1.13347e-06
-9.76479e-07
-8.33934e-07
-7.06058e-07
-5.89061e-07
-4.82032e-07
-3.83616e-07
-2.90798e-07
-2.04126e-07
-1.19319e-07
-4.14312e-08
0.00149711
0.00113229
0.000524294
-1.12142e-05
-0.000403875
-0.000715046
-0.000656374
-0.000631149
-0.000650433
-0.000630483
-0.00060896
-0.00055784
-0.000477149
-0.000395635
-0.00032828
-0.000278857
-0.000239366
-0.000206819
-0.000182965
-0.000164187
-0.000147364
-0.000132321
-0.000119324
-0.000107918
-9.76726e-05
-8.84513e-05
-8.01769e-05
-7.27191e-05
-6.59585e-05
-5.98251e-05
-5.42609e-05
-4.92002e-05
-4.45906e-05
-4.03953e-05
-3.65769e-05
-3.3098e-05
-2.99281e-05
-2.70418e-05
-2.44148e-05
-2.20243e-05
-1.98502e-05
-1.78743e-05
-1.60798e-05
-1.44513e-05
-1.29747e-05
-1.1637e-05
-1.04264e-05
-9.3317e-06
-8.34281e-06
-7.45037e-06
-6.64577e-06
-5.92111e-06
-5.26903e-06
-4.68281e-06
-4.15616e-06
-3.68353e-06
-3.25958e-06
-2.87977e-06
-2.53953e-06
-2.23519e-06
-1.96272e-06
-1.71927e-06
-1.50107e-06
-1.30623e-06
-1.13081e-06
-9.74192e-07
-8.31988e-07
-7.04405e-07
-5.8769e-07
-4.80903e-07
-3.82692e-07
-2.90121e-07
-2.03514e-07
-1.18993e-07
-4.16041e-08
0.00132001
0.00103572
0.000514233
3.12489e-05
-0.000248181
-0.000630876
-0.000638311
-0.00057683
-0.000594037
-0.000579588
-0.000579503
-0.000529674
-0.000457151
-0.000384436
-0.000322775
-0.000276302
-0.00023809
-0.000206517
-0.000182592
-0.000163744
-0.000146851
-0.000131873
-0.000118936
-0.000107546
-9.73247e-05
-8.81402e-05
-7.98976e-05
-7.24663e-05
-6.57297e-05
-5.96186e-05
-5.4075e-05
-4.90322e-05
-4.44384e-05
-4.02581e-05
-3.64536e-05
-3.29868e-05
-2.98277e-05
-2.69515e-05
-2.43336e-05
-2.19512e-05
-1.97844e-05
-1.78152e-05
-1.60268e-05
-1.44037e-05
-1.29321e-05
-1.15989e-05
-1.03923e-05
-9.30123e-06
-8.31563e-06
-7.42614e-06
-6.62422e-06
-5.90195e-06
-5.25202e-06
-4.66772e-06
-4.1428e-06
-3.67171e-06
-3.24915e-06
-2.87057e-06
-2.53144e-06
-2.22808e-06
-1.9565e-06
-1.71383e-06
-1.49634e-06
-1.30211e-06
-1.12726e-06
-9.71127e-07
-8.29382e-07
-7.02189e-07
-5.85848e-07
-4.79388e-07
-3.81458e-07
-2.89197e-07
-2.02757e-07
-1.1858e-07
-4.17051e-08
0.00118889
0.000944927
0.000512763
8.81947e-05
-0.00018835
-0.00048527
-0.000620346
-0.000537008
-0.000541199
-0.000539009
-0.000546883
-0.000498745
-0.000436291
-0.000371727
-0.000315823
-0.00027277
-0.000235919
-0.000205242
-0.000181842
-0.000162978
-0.000146097
-0.000131252
-0.000118405
-0.000107049
-9.68718e-05
-8.77386e-05
-7.95384e-05
-7.21434e-05
-6.54396e-05
-5.93581e-05
-5.38413e-05
-4.88215e-05
-4.4248e-05
-4.00869e-05
-3.62999e-05
-3.28482e-05
-2.97027e-05
-2.68391e-05
-2.42325e-05
-2.18602e-05
-1.97026e-05
-1.77417e-05
-1.59608e-05
-1.43446e-05
-1.28791e-05
-1.15514e-05
-1.03498e-05
-9.26333e-06
-8.28181e-06
-7.396e-06
-6.59739e-06
-5.87809e-06
-5.23082e-06
-4.64892e-06
-4.12615e-06
-3.65698e-06
-3.23614e-06
-2.8591e-06
-2.52134e-06
-2.21921e-06
-1.94873e-06
-1.70703e-06
-1.49042e-06
-1.29696e-06
-1.12281e-06
-9.67293e-07
-8.26119e-07
-6.99417e-07
-5.83539e-07
-4.77491e-07
-3.7992e-07
-2.88031e-07
-2.01867e-07
-1.18081e-07
-4.17106e-08
0.00110361
0.000871158
0.000506604
0.000125669
-0.000144655
-0.000373341
-0.000566252
-0.000508563
-0.00050125
-0.000507218
-0.000503377
-0.000465756
-0.000415274
-0.000357963
-0.000307744
-0.000268264
-0.000232826
-0.000203359
-0.000180688
-0.000161867
-0.000145081
-0.000130445
-0.000117721
-0.000106422
-9.63117e-05
-8.72447e-05
-7.90972e-05
-7.17488e-05
-6.50868e-05
-5.90424e-05
-5.3559e-05
-4.85677e-05
-4.40189e-05
-3.9881e-05
-3.61153e-05
-3.2682e-05
-2.9553e-05
-2.67044e-05
-2.41115e-05
-2.17514e-05
-1.96047e-05
-1.76538e-05
-1.58819e-05
-1.42738e-05
-1.28156e-05
-1.14946e-05
-1.0299e-05
-9.21792e-06
-8.24128e-06
-7.35987e-06
-6.56521e-06
-5.84947e-06
-5.2054e-06
-4.62635e-06
-4.10616e-06
-3.63929e-06
-3.22051e-06
-2.84531e-06
-2.50921e-06
-2.20854e-06
-1.93938e-06
-1.69885e-06
-1.48329e-06
-1.29076e-06
-1.11746e-06
-9.62676e-07
-8.22189e-07
-6.96079e-07
-5.80759e-07
-4.75206e-07
-3.78078e-07
-2.86627e-07
-2.0084e-07
-1.1749e-07
-4.16216e-08
0.00101533
0.000799814
0.000487799
0.000152979
-9.18163e-05
-0.000301576
-0.000497398
-0.000467813
-0.000462267
-0.00047133
-0.000463109
-0.000434955
-0.000395106
-0.000343815
-0.000299065
-0.000262982
-0.000228922
-0.000200926
-0.000179127
-0.000160408
-0.000143795
-0.000129436
-0.000116867
-0.000105655
-9.56384e-05
-8.6654e-05
-7.85698e-05
-7.12787e-05
-6.4668e-05
-5.86686e-05
-5.32256e-05
-4.82685e-05
-4.37492e-05
-3.9639e-05
-3.58985e-05
-3.2487e-05
-2.93772e-05
-2.65464e-05
-2.39695e-05
-2.16237e-05
-1.94899e-05
-1.75507e-05
-1.57893e-05
-1.41908e-05
-1.27412e-05
-1.1428e-05
-1.02394e-05
-9.16465e-06
-8.19372e-06
-7.31747e-06
-6.52744e-06
-5.81587e-06
-5.17553e-06
-4.59985e-06
-4.08266e-06
-3.6185e-06
-3.20214e-06
-2.8291e-06
-2.49493e-06
-2.196e-06
-1.92839e-06
-1.68923e-06
-1.4749e-06
-1.28347e-06
-1.11115e-06
-9.57239e-07
-8.17557e-07
-6.92146e-07
-5.77483e-07
-4.72513e-07
-3.75917e-07
-2.84979e-07
-1.99658e-07
-1.16805e-07
-4.14496e-08
0.000916235
0.000734844
0.000465933
0.000175267
-4.21009e-05
-0.000248728
-0.00043375
-0.000420344
-0.00042234
-0.000435235
-0.000428392
-0.000406499
-0.000374904
-0.000328864
-0.000289828
-0.000256921
-0.000224275
-0.000197972
-0.000177146
-0.000158603
-0.000142243
-0.000128216
-0.00011583
-0.000104735
-9.48431e-05
-8.59587e-05
-7.79492e-05
-7.07273e-05
-6.41781e-05
-5.82327e-05
-5.28377e-05
-4.79209e-05
-4.34361e-05
-3.93584e-05
-3.56474e-05
-3.22611e-05
-2.91738e-05
-2.63636e-05
-2.38053e-05
-2.14761e-05
-1.93572e-05
-1.74314e-05
-1.56823e-05
-1.40947e-05
-1.26551e-05
-1.13509e-05
-1.01704e-05
-9.103e-06
-8.13868e-06
-7.26838e-06
-6.48371e-06
-5.77695e-06
-5.14094e-06
-4.56914e-06
-4.05544e-06
-3.5944e-06
-3.18084e-06
-2.8103e-06
-2.47838e-06
-2.18144e-06
-1.91563e-06
-1.67806e-06
-1.46516e-06
-1.27499e-06
-1.10383e-06
-9.50927e-07
-8.12178e-07
-6.87581e-07
-5.73679e-07
-4.69387e-07
-3.73416e-07
-2.83071e-07
-1.98303e-07
-1.1602e-07
-4.12051e-08
0.000830833
0.000680278
0.000443184
0.000192153
-8.39892e-06
-0.000200013
-0.000371314
-0.000377649
-0.00038575
-0.000402782
-0.000396291
-0.000379574
-0.000354161
-0.000313229
-0.000280293
-0.000250112
-0.000218934
-0.00019452
-0.000174712
-0.000156433
-0.00014043
-0.000126785
-0.000114602
-0.000103657
-9.39233e-05
-8.51555e-05
-7.72321e-05
-7.00919e-05
-6.36141e-05
-5.77305e-05
-5.23915e-05
-4.75215e-05
-4.30764e-05
-3.90363e-05
-3.53595e-05
-3.20022e-05
-2.89406e-05
-2.61542e-05
-2.36173e-05
-2.13069e-05
-1.92051e-05
-1.72948e-05
-1.55597e-05
-1.39847e-05
-1.25565e-05
-1.12626e-05
-1.00914e-05
-9.03236e-06
-8.0756e-06
-7.21213e-06
-6.43359e-06
-5.73234e-06
-5.10129e-06
-4.53393e-06
-4.02423e-06
-3.56676e-06
-3.15641e-06
-2.78874e-06
-2.45939e-06
-2.16474e-06
-1.90098e-06
-1.66523e-06
-1.45398e-06
-1.26526e-06
-1.09542e-06
-9.43677e-07
-8.05998e-07
-6.82336e-07
-5.6931e-07
-4.65798e-07
-3.70551e-07
-2.80884e-07
-1.96761e-07
-1.15131e-07
-4.08954e-08
0.000754544
0.000629627
0.000421236
0.000196934
2.25869e-05
-0.000153372
-0.000320378
-0.000333988
-0.000350258
-0.000374434
-0.000363763
-0.000353169
-0.000332936
-0.000297233
-0.000270704
-0.000242546
-0.000213018
-0.00019068
-0.000171836
-0.000153886
-0.000138349
-0.000125128
-0.000113166
-0.00010241
-9.28723e-05
-8.42381e-05
-7.64131e-05
-6.93684e-05
-6.29724e-05
-5.71583e-05
-5.1884e-05
-4.70674e-05
-4.26673e-05
-3.86705e-05
-3.50328e-05
-3.17083e-05
-2.86758e-05
-2.59165e-05
-2.34038e-05
-2.11149e-05
-1.90325e-05
-1.71398e-05
-1.54205e-05
-1.38598e-05
-1.24445e-05
-1.11623e-05
-1.00017e-05
-8.95214e-06
-8.00396e-06
-7.14821e-06
-6.37664e-06
-5.68165e-06
-5.05622e-06
-4.49391e-06
-3.98874e-06
-3.53533e-06
-3.12862e-06
-2.76421e-06
-2.43778e-06
-2.14573e-06
-1.88431e-06
-1.65064e-06
-1.44126e-06
-1.25419e-06
-1.08585e-06
-9.35424e-07
-7.98961e-07
-6.76367e-07
-5.64336e-07
-4.61713e-07
-3.67295e-07
-2.78401e-07
-1.95016e-07
-1.14127e-07
-4.05257e-08
0.000687783
0.00058038
0.000404767
0.000189673
5.4633e-05
-0.000103072
-0.000292121
-0.00028647
-0.000307231
-0.000350973
-0.000332484
-0.000326718
-0.000311924
-0.000281813
-0.000261068
-0.000233787
-0.000206384
-0.000186394
-0.000168511
-0.000150995
-0.000136035
-0.000123262
-0.000111522
-0.000100988
-9.16823e-05
-8.31965e-05
-7.54832e-05
-6.85499e-05
-6.22464e-05
-5.6512e-05
-5.13117e-05
-4.65553e-05
-4.22058e-05
-3.82582e-05
-3.46648e-05
-3.13772e-05
-2.83775e-05
-2.56487e-05
-2.31634e-05
-2.08987e-05
-1.88381e-05
-1.69652e-05
-1.52637e-05
-1.37191e-05
-1.23184e-05
-1.10493e-05
-9.90054e-06
-8.86171e-06
-7.92318e-06
-7.07613e-06
-6.31239e-06
-5.62446e-06
-5.00536e-06
-4.44875e-06
-3.94868e-06
-3.49985e-06
-3.09725e-06
-2.73652e-06
-2.41338e-06
-2.12428e-06
-1.86549e-06
-1.63416e-06
-1.42688e-06
-1.24168e-06
-1.07503e-06
-9.26099e-07
-7.91008e-07
-6.69622e-07
-5.58716e-07
-4.571e-07
-3.63621e-07
-2.75602e-07
-1.93052e-07
-1.13e-07
-4.00994e-08
0.000630151
0.00053431
0.000388526
0.000186555
6.95812e-05
-5.86631e-05
-0.000258569
-0.00025214
-0.000263538
-0.000327184
-0.000309158
-0.000300784
-0.000289534
-0.000267674
-0.000251805
-0.000224464
-0.000199517
-0.000181733
-0.000164684
-0.000147705
-0.000133449
-0.000121157
-0.000109646
-9.93814e-05
-9.03467e-05
-8.20229e-05
-7.44362e-05
-6.76318e-05
-6.14315e-05
-5.57864e-05
-5.06705e-05
-4.59813e-05
-4.1688e-05
-3.77961e-05
-3.42528e-05
-3.10062e-05
-2.80432e-05
-2.53488e-05
-2.28942e-05
-2.06565e-05
-1.86202e-05
-1.67695e-05
-1.5088e-05
-1.35614e-05
-1.2177e-05
-1.09226e-05
-9.78718e-06
-8.76033e-06
-7.83263e-06
-6.99533e-06
-6.24037e-06
-5.56034e-06
-4.94835e-06
-4.3981e-06
-3.90376e-06
-3.46006e-06
-3.06207e-06
-2.70545e-06
-2.38601e-06
-2.1002e-06
-1.84436e-06
-1.61566e-06
-1.41074e-06
-1.22764e-06
-1.06289e-06
-9.15631e-07
-7.82079e-07
-6.62051e-07
-5.52406e-07
-4.51923e-07
-3.595e-07
-2.72467e-07
-1.90854e-07
-1.1174e-07
-3.96186e-08
0.000578367
0.000492446
0.000369728
0.000187155
7.52494e-05
-2.7545e-05
-0.000211871
-0.000226505
-0.000230883
-0.000297753
-0.000289482
-0.000270131
-0.000265238
-0.000258315
-0.000242104
-0.000214331
-0.000192417
-0.000176708
-0.000160434
-0.00014409
-0.000130624
-0.00011882
-0.000107535
-9.75862e-05
-8.88614e-05
-8.07098e-05
-7.32664e-05
-6.66101e-05
-6.05229e-05
-5.49773e-05
-4.99569e-05
-4.53417e-05
-4.11105e-05
-3.72816e-05
-3.37943e-05
-3.05929e-05
-2.76707e-05
-2.50147e-05
-2.25942e-05
-2.03865e-05
-1.83775e-05
-1.65514e-05
-1.48922e-05
-1.33857e-05
-1.20194e-05
-1.07815e-05
-9.66081e-06
-8.64733e-06
-7.73168e-06
-6.90524e-06
-6.16007e-06
-5.48883e-06
-4.88475e-06
-4.34162e-06
-3.85366e-06
-3.41568e-06
-3.02282e-06
-2.67079e-06
-2.35547e-06
-2.07333e-06
-1.82078e-06
-1.59501e-06
-1.39273e-06
-1.21197e-06
-1.04933e-06
-9.03946e-07
-7.72109e-07
-6.536e-07
-5.45361e-07
-4.46146e-07
-3.54902e-07
-2.68973e-07
-1.88405e-07
-1.10337e-07
-3.90833e-08
0.00053228
0.000453468
0.000351259
0.000187418
7.92308e-05
-4.55431e-06
-0.000177706
-0.000194169
-0.000205036
-0.000264345
-0.00026411
-0.000244463
-0.000247083
-0.00024582
-0.000228658
-0.000203673
-0.000185093
-0.000171148
-0.000155729
-0.000140197
-0.000127601
-0.000116258
-0.000105183
-9.56019e-05
-8.72213e-05
-7.92469e-05
-7.19666e-05
-6.54796e-05
-5.9515e-05
-5.408e-05
-4.91674e-05
-4.46327e-05
-4.04694e-05
-3.67116e-05
-3.32867e-05
-3.01347e-05
-2.72575e-05
-2.46445e-05
-2.22618e-05
-2.00873e-05
-1.81083e-05
-1.63097e-05
-1.46751e-05
-1.31908e-05
-1.18446e-05
-1.06249e-05
-9.52062e-06
-8.52195e-06
-7.61966e-06
-6.80527e-06
-6.07095e-06
-5.40948e-06
-4.81418e-06
-4.27892e-06
-3.79804e-06
-3.3664e-06
-2.97924e-06
-2.63231e-06
-2.32156e-06
-2.04349e-06
-1.7946e-06
-1.57208e-06
-1.37272e-06
-1.19455e-06
-1.03426e-06
-8.90965e-07
-7.61032e-07
-6.44212e-07
-5.37534e-07
-4.39731e-07
-3.49798e-07
-2.65098e-07
-1.85689e-07
-1.0878e-07
-3.84928e-08
0.000489951
0.000417736
0.00033031
0.000190535
7.89322e-05
9.6213e-06
-0.000127142
-0.00017972
-0.000182683
-0.000234242
-0.000235583
-0.000236127
-0.000227707
-0.000222331
-0.000214192
-0.000194238
-0.000177838
-0.000165052
-0.000150482
-0.00013592
-0.000124321
-0.000113431
-0.000102573
-9.34301e-05
-8.54271e-05
-7.76295e-05
-7.05346e-05
-6.42383e-05
-5.84029e-05
-5.30905e-05
-4.82991e-05
-4.38506e-05
-3.97609e-05
-3.60833e-05
-3.27274e-05
-2.96289e-05
-2.68014e-05
-2.42359e-05
-2.1895e-05
-1.97569e-05
-1.78111e-05
-1.60427e-05
-1.44354e-05
-1.29756e-05
-1.16516e-05
-1.04519e-05
-9.36577e-06
-8.38345e-06
-7.49591e-06
-6.69483e-06
-5.97249e-06
-5.32179e-06
-4.73618e-06
-4.20963e-06
-3.73656e-06
-3.31194e-06
-2.93107e-06
-2.58977e-06
-2.28406e-06
-2.0105e-06
-1.76565e-06
-1.54673e-06
-1.35059e-06
-1.1753e-06
-1.01761e-06
-8.7661e-07
-7.4878e-07
-6.33831e-07
-5.28878e-07
-4.3264e-07
-3.44156e-07
-2.60817e-07
-1.82689e-07
-1.07058e-07
-3.78452e-08
0.000452024
0.000385928
0.000308132
0.000190665
7.65764e-05
2.56791e-05
-7.00507e-05
-0.000171191
-0.000166385
-0.000203585
-0.000217151
-0.000215934
-0.000208991
-0.000208321
-0.000201322
-0.000184304
-0.00017014
-0.000158787
-0.000145069
-0.000131465
-0.000120869
-0.00011035
-9.96866e-05
-9.10637e-05
-8.34674e-05
-7.58435e-05
-6.89644e-05
-6.28816e-05
-5.71804e-05
-5.20047e-05
-4.73488e-05
-4.2991e-05
-3.89812e-05
-3.53941e-05
-3.21139e-05
-2.90728e-05
-2.62998e-05
-2.37871e-05
-2.14918e-05
-1.93935e-05
-1.74842e-05
-1.57492e-05
-1.41717e-05
-1.27389e-05
-1.14393e-05
-1.02616e-05
-9.19538e-06
-8.23104e-06
-7.35973e-06
-6.57328e-06
-5.86411e-06
-5.22528e-06
-4.65033e-06
-4.13335e-06
-3.66889e-06
-3.25198e-06
-2.87803e-06
-2.54293e-06
-2.24277e-06
-1.97417e-06
-1.73376e-06
-1.5188e-06
-1.32622e-06
-1.15409e-06
-9.99255e-07
-8.60797e-07
-7.35283e-07
-6.22396e-07
-5.19342e-07
-4.2483e-07
-3.37942e-07
-2.56107e-07
-1.79389e-07
-1.05161e-07
-3.71381e-08
0.000418855
0.000354329
0.000290616
0.000183365
6.4228e-05
4.9177e-05
-3.30555e-05
-0.000149056
-0.000149779
-0.000173299
-0.000200929
-0.000191112
-0.000191529
-0.000201173
-0.000190058
-0.000173648
-0.00016167
-0.000151912
-0.0001392
-0.000126771
-0.000117237
-0.000107005
-9.65269e-05
-8.85226e-05
-8.13468e-05
-7.38833e-05
-6.7256e-05
-6.1407e-05
-5.58413e-05
-5.08194e-05
-4.63141e-05
-4.20494e-05
-3.81261e-05
-3.46415e-05
-3.14437e-05
-2.84634e-05
-2.57502e-05
-2.32957e-05
-2.10504e-05
-1.89954e-05
-1.71261e-05
-1.54275e-05
-1.38827e-05
-1.24793e-05
-1.12065e-05
-1.0053e-05
-9.00857e-06
-8.06393e-06
-7.2104e-06
-6.43998e-06
-5.74526e-06
-5.11942e-06
-4.55616e-06
-4.04969e-06
-3.59465e-06
-3.18621e-06
-2.81985e-06
-2.49154e-06
-2.19747e-06
-1.93431e-06
-1.69877e-06
-1.48816e-06
-1.29948e-06
-1.13082e-06
-9.79115e-07
-8.43443e-07
-7.20469e-07
-6.09848e-07
-5.08876e-07
-4.16262e-07
-3.31125e-07
-2.50943e-07
-1.7577e-07
-1.03079e-07
-3.63684e-08
0.00038913
0.000324094
0.000274278
0.000177331
5.8664e-05
6.3119e-05
-1.23373e-05
-0.00012353
-0.000133972
-0.000148149
-0.000181723
-0.000174414
-0.000177303
-0.000183846
-0.000177435
-0.000163612
-0.000153793
-0.000145042
-0.000133043
-0.000121837
-0.000113381
-0.000103351
-9.30765e-05
-8.58281e-05
-7.90665e-05
-7.17428e-05
-6.54112e-05
-5.98109e-05
-5.43781e-05
-4.95315e-05
-4.51922e-05
-4.10207e-05
-3.71917e-05
-3.38235e-05
-3.07142e-05
-2.77977e-05
-2.51501e-05
-2.27599e-05
-2.05686e-05
-1.85606e-05
-1.67349e-05
-1.50761e-05
-1.3567e-05
-1.21958e-05
-1.09521e-05
-9.82499e-06
-8.80442e-06
-7.8813e-06
-7.0472e-06
-6.29429e-06
-5.61535e-06
-5.00371e-06
-4.45322e-06
-3.95822e-06
-3.51349e-06
-3.11429e-06
-2.75623e-06
-2.43535e-06
-2.14794e-06
-1.89072e-06
-1.66051e-06
-1.45464e-06
-1.27022e-06
-1.10537e-06
-9.57086e-07
-8.24462e-07
-7.04264e-07
-5.96122e-07
-4.97428e-07
-4.06891e-07
-3.23671e-07
-2.45298e-07
-1.71815e-07
-1.008e-07
-3.55324e-08
0.0003628
0.000298486
0.000254895
0.000177924
6.66962e-05
5.58951e-05
1.22576e-06
-0.000100822
-0.000114386
-0.000126999
-0.000167374
-0.00015898
-0.000158782
-0.000169478
-0.000162746
-0.000153323
-0.000146285
-0.000138033
-0.00012662
-0.000116778
-0.000109357
-9.93913e-05
-8.93256e-05
-8.29909e-05
-7.66066e-05
-6.94081e-05
-6.3433e-05
-5.80892e-05
-5.27837e-05
-4.81403e-05
-4.39811e-05
-3.98991e-05
-3.61742e-05
-3.29386e-05
-2.99228e-05
-2.70725e-05
-2.4497e-05
-2.21776e-05
-2.00445e-05
-1.80872e-05
-1.6309e-05
-1.46936e-05
-1.32232e-05
-1.1887e-05
-1.0675e-05
-9.57666e-06
-8.58202e-06
-7.68232e-06
-6.86938e-06
-6.13555e-06
-5.47379e-06
-4.87762e-06
-4.34104e-06
-3.85854e-06
-3.42504e-06
-3.03592e-06
-2.68689e-06
-2.3741e-06
-2.09394e-06
-1.84321e-06
-1.61879e-06
-1.41811e-06
-1.23833e-06
-1.07762e-06
-9.33066e-07
-8.03766e-07
-6.86594e-07
-5.81157e-07
-4.84946e-07
-3.96676e-07
-3.15545e-07
-2.39147e-07
-1.67505e-07
-9.83152e-08
-3.4626e-08
0.000335483
0.000277524
0.000234337
0.000176298
7.16458e-05
5.20862e-05
1.16071e-05
-8.40549e-05
-9.68633e-05
-0.000103113
-0.000154806
-0.000145015
-0.000143268
-0.0001579
-0.000147494
-0.000143396
-0.000138109
-0.000130264
-0.000119769
-0.000111639
-0.000105196
-9.51282e-05
-8.52968e-05
-8.00501e-05
-7.39494e-05
-6.68713e-05
-6.13285e-05
-5.6236e-05
-5.10521e-05
-4.66473e-05
-4.26781e-05
-3.86779e-05
-3.50705e-05
-3.19861e-05
-2.90668e-05
-2.62843e-05
-2.37886e-05
-2.15469e-05
-1.9476e-05
-1.75732e-05
-1.58467e-05
-1.42784e-05
-1.28499e-05
-1.15516e-05
-1.03741e-05
-9.30692e-06
-8.34043e-06
-7.46618e-06
-6.6762e-06
-5.96308e-06
-5.31998e-06
-4.74061e-06
-4.21914e-06
-3.75022e-06
-3.32892e-06
-2.95074e-06
-2.61153e-06
-2.30754e-06
-2.03525e-06
-1.79156e-06
-1.57345e-06
-1.37839e-06
-1.20366e-06
-1.04745e-06
-9.06953e-07
-7.81267e-07
-6.67384e-07
-5.64889e-07
-4.71377e-07
-3.85572e-07
-3.06713e-07
-2.32464e-07
-1.62821e-07
-9.56134e-08
-3.36439e-08
0.000308917
0.000259881
0.000214463
0.000169618
9.03483e-05
3.94409e-05
1.72389e-05
-7.14076e-05
-8.15226e-05
-8.37235e-05
-0.000125274
-0.000139945
-0.000137764
-0.000138133
-0.000133655
-0.000135748
-0.000130368
-0.000122793
-0.000113035
-0.000106572
-0.000100869
-9.04512e-05
-8.10049e-05
-7.70532e-05
-7.10696e-05
-6.41297e-05
-5.91053e-05
-5.4241e-05
-4.91784e-05
-4.50565e-05
-4.128e-05
-3.73495e-05
-3.38785e-05
-3.09661e-05
-2.81431e-05
-2.54294e-05
-2.30227e-05
-2.0866e-05
-1.88611e-05
-1.70168e-05
-1.53463e-05
-1.38289e-05
-1.24457e-05
-1.11884e-05
-1.00482e-05
-9.01475e-06
-8.07874e-06
-7.23202e-06
-6.46691e-06
-5.77621e-06
-5.15333e-06
-4.59215e-06
-4.08705e-06
-3.63284e-06
-3.22476e-06
-2.85843e-06
-2.52986e-06
-2.23539e-06
-1.97164e-06
-1.73558e-06
-1.52429e-06
-1.33534e-06
-1.16608e-06
-1.01474e-06
-8.78645e-07
-7.56877e-07
-6.46559e-07
-5.47253e-07
-4.56668e-07
-3.73535e-07
-2.97139e-07
-2.25222e-07
-1.57749e-07
-9.26856e-08
-3.2578e-08
0.000284402
0.000241254
0.000199092
0.000158301
0.000101793
3.66319e-05
1.30568e-05
-3.94822e-05
-7.30366e-05
-7.64647e-05
-0.000100353
-0.000132797
-0.00012733
-0.000126223
-0.000121556
-0.000127415
-0.000121577
-0.000114884
-0.000105996
-0.000101554
-9.66215e-05
-8.53277e-05
-7.6496e-05
-7.40006e-05
-6.79137e-05
-6.12005e-05
-5.67738e-05
-5.20873e-05
-4.71614e-05
-4.33744e-05
-3.97802e-05
-3.59045e-05
-3.25985e-05
-2.98799e-05
-2.71481e-05
-2.4504e-05
-2.21975e-05
-2.01332e-05
-1.81977e-05
-1.64158e-05
-1.48062e-05
-1.33437e-05
-1.20092e-05
-1.07961e-05
-9.69618e-06
-8.69912e-06
-7.796e-06
-6.97901e-06
-6.24076e-06
-5.57429e-06
-4.97324e-06
-4.43172e-06
-3.9443e-06
-3.50599e-06
-3.11218e-06
-2.75867e-06
-2.44158e-06
-2.15741e-06
-1.90288e-06
-1.67506e-06
-1.47116e-06
-1.2888e-06
-1.12545e-06
-9.79387e-07
-8.48039e-07
-7.30508e-07
-6.24044e-07
-5.28185e-07
-4.40766e-07
-3.6052e-07
-2.86793e-07
-2.17389e-07
-1.52273e-07
-8.95255e-08
-3.14154e-08
0.000260708
0.000221872
0.00018772
0.000142823
0.000100991
4.62757e-05
7.83066e-06
-1.61902e-05
-5.83128e-05
-7.63102e-05
-9.42893e-05
-0.000112224
-0.000114573
-0.000120706
-0.000109585
-0.000114565
-0.000112238
-0.000107202
-9.87077e-05
-9.58586e-05
-9.22205e-05
-7.99787e-05
-7.22027e-05
-7.09102e-05
-6.43902e-05
-5.81281e-05
-5.43538e-05
-4.97554e-05
-4.50075e-05
-4.16084e-05
-3.81676e-05
-3.43307e-05
-3.12326e-05
-2.87293e-05
-2.60771e-05
-2.35041e-05
-2.13114e-05
-1.93469e-05
-1.74835e-05
-1.57685e-05
-1.42247e-05
-1.28212e-05
-1.15389e-05
-1.03734e-05
-9.31687e-06
-8.35902e-06
-7.49131e-06
-6.70635e-06
-5.99703e-06
-5.35666e-06
-4.77912e-06
-4.25878e-06
-3.79042e-06
-3.36924e-06
-2.99081e-06
-2.65111e-06
-2.34641e-06
-2.07334e-06
-1.82874e-06
-1.60981e-06
-1.41387e-06
-1.23862e-06
-1.08163e-06
-9.41261e-07
-8.15035e-07
-7.02072e-07
-5.99764e-07
-5.07621e-07
-4.23621e-07
-3.46481e-07
-2.75642e-07
-2.08934e-07
-1.46371e-07
-8.61308e-08
-3.0143e-08
0.000230918
0.000193737
0.000167929
0.000129109
9.00594e-05
5.90026e-05
1.31538e-05
-1.03888e-05
-3.36419e-05
-6.51936e-05
-7.41587e-05
-8.29066e-05
-9.87818e-05
-0.000106821
-9.63749e-05
-9.57736e-05
-9.72543e-05
-9.97095e-05
-8.85344e-05
-8.78058e-05
-8.34422e-05
-6.78843e-05
-6.72003e-05
-6.67209e-05
-5.85792e-05
-5.3353e-05
-5.05494e-05
-4.59331e-05
-4.15847e-05
-3.88263e-05
-3.55452e-05
-3.17512e-05
-2.9051e-05
-2.68917e-05
-2.43317e-05
-2.18732e-05
-1.98772e-05
-1.80736e-05
-1.63229e-05
-1.4716e-05
-1.32799e-05
-1.19721e-05
-1.07744e-05
-9.68616e-06
-8.70009e-06
-7.80593e-06
-6.99578e-06
-6.26288e-06
-5.6006e-06
-5.00266e-06
-4.46337e-06
-3.97747e-06
-3.54009e-06
-3.14677e-06
-2.79337e-06
-2.47613e-06
-2.19157e-06
-1.93654e-06
-1.70811e-06
-1.50365e-06
-1.32064e-06
-1.15696e-06
-1.01034e-06
-8.79219e-07
-7.61325e-07
-6.55796e-07
-5.60252e-07
-4.74154e-07
-3.95724e-07
-3.2363e-07
-2.57499e-07
-1.95173e-07
-1.36757e-07
-8.06075e-08
-2.80726e-08
0.000184586
0.000164131
0.000136253
0.000109917
8.82289e-05
4.33194e-05
2.27904e-05
1.31269e-05
-3.21266e-05
-4.73869e-05
-3.67087e-05
-5.82206e-05
-7.27811e-05
-7.74336e-05
-8.00805e-05
-7.98615e-05
-7.86583e-05
-8.07748e-05
-7.67717e-05
-7.81092e-05
-7.64665e-05
-5.47403e-05
-6.1258e-05
-5.86821e-05
-4.86952e-05
-4.66488e-05
-4.44617e-05
-3.96337e-05
-3.65846e-05
-3.46198e-05
-3.12107e-05
-2.76681e-05
-2.58453e-05
-2.41129e-05
-2.15599e-05
-1.93122e-05
-1.76629e-05
-1.60941e-05
-1.4504e-05
-1.30683e-05
-1.18031e-05
-1.06434e-05
-9.57693e-06
-8.6096e-06
-7.73382e-06
-6.93925e-06
-6.21917e-06
-5.5678e-06
-4.97917e-06
-4.4477e-06
-3.96833e-06
-3.5364e-06
-3.14759e-06
-2.79793e-06
-2.48375e-06
-2.20171e-06
-1.94873e-06
-1.72199e-06
-1.5189e-06
-1.33711e-06
-1.17439e-06
-1.02885e-06
-8.98473e-07
-7.8188e-07
-6.77047e-07
-5.83196e-07
-4.98243e-07
-4.21658e-07
-3.51931e-07
-2.87799e-07
-2.29014e-07
-1.73594e-07
-1.21668e-07
-7.18101e-08
-2.4948e-08
0.000142621
0.000128929
0.000109073
8.78582e-05
6.84961e-05
3.91563e-05
3.06399e-05
1.19973e-05
-1.8032e-05
-2.84961e-05
-3.17594e-05
-4.09265e-05
-4.95958e-05
-4.86356e-05
-6.62692e-05
-6.43343e-05
-5.79853e-05
-5.47654e-05
-6.56175e-05
-6.09538e-05
-5.42323e-05
-5.52124e-05
-5.63241e-05
-4.30646e-05
-3.94532e-05
-4.19092e-05
-3.59747e-05
-3.2255e-05
-3.17874e-05
-2.96571e-05
-2.50208e-05
-2.33475e-05
-2.23672e-05
-2.06779e-05
-1.79809e-05
-1.61651e-05
-1.49849e-05
-1.36603e-05
-1.22515e-05
-1.10344e-05
-9.98203e-06
-9.00148e-06
-8.09596e-06
-7.27825e-06
-6.53866e-06
-5.86699e-06
-5.25822e-06
-4.70765e-06
-4.2101e-06
-3.76082e-06
-3.35556e-06
-2.9904e-06
-2.66168e-06
-2.36605e-06
-2.10041e-06
-1.86194e-06
-1.64803e-06
-1.45631e-06
-1.28457e-06
-1.13085e-06
-9.93249e-07
-8.7017e-07
-7.59912e-07
-6.61307e-07
-5.72647e-07
-4.93267e-07
-4.21422e-07
-3.5664e-07
-2.97673e-07
-2.4343e-07
-1.93714e-07
-1.46863e-07
-1.02952e-07
-6.0806e-08
-2.11106e-08
0.000109666
9.37543e-05
8.26263e-05
6.91796e-05
4.23962e-05
3.65599e-05
2.68121e-05
-1.79236e-07
-3.25101e-06
-8.6117e-06
-2.64769e-05
-3.26454e-05
-3.06526e-05
-3.44548e-05
-4.33312e-05
-4.34091e-05
-4.12819e-05
-4.16831e-05
-4.40665e-05
-3.32935e-05
-3.77325e-05
-5.0341e-05
-4.11753e-05
-3.092e-05
-3.61999e-05
-3.09497e-05
-2.5818e-05
-2.70853e-05
-2.80699e-05
-2.16516e-05
-1.69631e-05
-1.87582e-05
-1.83833e-05
-1.61618e-05
-1.31916e-05
-1.24954e-05
-1.18293e-05
-1.06925e-05
-9.48776e-06
-8.54862e-06
-7.75175e-06
-6.98497e-06
-6.27714e-06
-5.64361e-06
-5.07081e-06
-4.54981e-06
-4.07769e-06
-3.65086e-06
-3.26512e-06
-2.91675e-06
-2.60252e-06
-2.31937e-06
-2.06446e-06
-1.8352e-06
-1.62919e-06
-1.44425e-06
-1.27836e-06
-1.12966e-06
-9.96469e-07
-8.77238e-07
-7.70511e-07
-6.75045e-07
-5.89518e-07
-5.13031e-07
-4.44252e-07
-3.82675e-07
-3.26942e-07
-2.76682e-07
-2.30942e-07
-1.88863e-07
-1.50293e-07
-1.13964e-07
-7.98962e-08
-4.72063e-08
-1.63885e-08
6.41917e-05
5.88406e-05
5.23707e-05
4.12121e-05
3.54355e-05
1.93134e-05
8.3811e-06
8.52483e-06
2.04629e-07
-1.32778e-05
-1.12351e-05
-1.48935e-05
-2.02433e-05
-2.05399e-05
-2.23643e-05
-2.42196e-05
-2.55053e-05
-2.59794e-05
-2.71093e-05
-2.74432e-05
-2.58655e-05
-2.36929e-05
-2.01494e-05
-2.58085e-05
-2.16084e-05
-1.62381e-05
-1.99393e-05
-1.9916e-05
-1.60441e-05
-1.21903e-05
-1.26997e-05
-1.27503e-05
-1.19666e-05
-1.01298e-05
-8.48083e-06
-8.3439e-06
-7.93598e-06
-7.01504e-06
-6.12346e-06
-5.53895e-06
-5.03708e-06
-4.53017e-06
-4.06755e-06
-3.65819e-06
-3.28729e-06
-2.94931e-06
-2.64326e-06
-2.36669e-06
-2.11669e-06
-1.89091e-06
-1.68724e-06
-1.50371e-06
-1.33848e-06
-1.18987e-06
-1.05633e-06
-9.36437e-07
-8.2889e-07
-7.32492e-07
-6.46141e-07
-5.68839e-07
-4.99642e-07
-4.37744e-07
-3.82286e-07
-3.32695e-07
-2.8809e-07
-2.48168e-07
-2.12017e-07
-1.79434e-07
-1.49765e-07
-1.22488e-07
-9.74634e-08
-7.39235e-08
-5.18061e-08
-3.06238e-08
-1.06428e-08
2.10121e-05
1.8036e-05
1.86416e-05
1.54337e-05
1.13987e-05
8.2001e-06
3.46626e-06
1.65152e-06
7.08961e-07
-1.10634e-06
-4.61992e-06
-6.32594e-06
-7.20872e-06
-5.07034e-06
-8.1763e-06
-8.98224e-06
-8.61021e-06
-9.78615e-06
-1.0902e-05
-1.03996e-05
-5.66821e-06
-7.72992e-06
-9.01587e-06
-8.51898e-06