/*--------------------------------*- C++ -*----------------------------------*\
| =========                 |                                                 |
| \\      /  F ield         | OpenFOAM: The Open Source CFD Toolbox           |
|  \\    /   O peration     | Version:  2.3.0                                 |
|   \\  /    A nd           | Web:      www.OpenFOAM.org                      |
|    \\/     M anipulation  |                                                 |
\*---------------------------------------------------------------------------*/
FoamFile
{
    version     2.0;
    format      ascii;
    class       surfaceScalarField;
    location    "0.85";
    object      phi_0;
}
// * * * * * * * * * * * * * * * * * * * * * * * * * * * * * * * * * * * * * //

dimensions      [0 3 -1 0 0 0 0];

internalField   nonuniform List<scalar> 
5764
(
1.97293e-08
5.02353e-09
-2.47528e-08
1.46352e-08
5.09411e-09
1.08549e-08
3.78029e-09
8.14364e-09
2.71124e-09
6.52505e-09
1.6186e-09
5.61177e-09
9.13278e-10
5.02799e-09
5.83776e-10
4.63362e-09
3.94371e-10
4.35611e-09
2.77507e-10
4.12165e-09
2.34466e-10
3.90389e-09
2.1776e-10
3.71367e-09
1.90215e-10
3.55664e-09
1.57034e-10
3.41969e-09
1.36945e-10
3.29108e-09
1.2861e-10
3.17216e-09
1.18928e-10
3.06314e-09
1.09021e-10
2.96569e-09
9.74459e-11
2.87666e-09
8.90323e-11
2.79161e-09
8.50449e-11
2.71597e-09
7.56381e-11
2.64763e-09
6.83431e-11
2.58113e-09
6.65044e-11
2.51851e-09
6.26118e-11
2.45876e-09
5.9751e-11
2.40207e-09
5.66961e-11
2.3514e-09
5.06689e-11
2.30304e-09
4.83565e-11
2.25657e-09
4.64706e-11
2.21361e-09
4.29581e-11
2.17052e-09
4.30944e-11
2.12991e-09
4.06055e-11
2.09361e-09
3.63013e-11
2.05675e-09
3.68671e-11
2.02049e-09
3.62587e-11
1.98773e-09
3.27592e-11
1.95593e-09
3.18001e-11
1.92456e-09
3.13655e-11
1.89639e-09
2.81682e-11
1.86914e-09
2.72539e-11
1.84104e-09
2.81028e-11
1.81446e-09
2.65723e-11
1.78987e-09
2.45925e-11
1.76537e-09
2.45058e-11
1.74185e-09
2.35162e-11
1.71952e-09
2.23276e-11
1.69728e-09
2.22461e-11
1.67507e-09
2.22106e-11
1.65469e-09
2.03798e-11
1.63527e-09
1.94207e-11
1.61614e-09
1.91242e-11
1.59753e-09
1.86092e-11
1.57964e-09
1.7888e-11
1.56143e-09
1.82156e-11
1.54391e-09
1.75164e-11
1.52695e-09
1.69637e-11
1.51068e-09
1.6266e-11
1.49463e-09
1.60511e-11
1.47951e-09
1.51187e-11
1.46425e-09
1.52591e-11
1.4494e-09
1.48557e-11
1.43446e-09
1.49358e-11
1.42085e-09
1.36104e-11
1.40679e-09
1.40624e-11
1.39339e-09
1.33948e-11
1.37971e-09
1.3687e-11
1.36677e-09
1.29386e-11
1.35358e-09
1.31904e-11
1.34097e-09
1.26079e-11
1.32875e-09
1.22188e-11
1.31531e-09
1.3443e-11
1.30516e-09
1.01512e-11
1.28994e-09
1.52161e-11
1.28523e-09
4.71573e-12
1.9925e-11
2.69548e-08
5.19698e-09
-2.71283e-08
2.54964e-08
6.55251e-09
2.35392e-08
5.73753e-09
2.11247e-08
5.1257e-09
1.907e-08
3.67324e-09
1.73444e-08
2.63894e-09
1.58944e-08
2.03377e-09
1.46984e-08
1.59033e-09
1.37356e-08
1.24031e-09
1.2934e-08
1.03605e-09
1.22458e-08
9.06002e-10
1.16578e-08
7.78236e-10
1.11581e-08
6.56757e-10
1.07184e-08
5.76602e-10
1.03149e-08
5.32154e-10
9.94388e-09
4.89895e-10
9.60568e-09
4.47226e-10
9.30053e-09
4.02594e-10
9.02027e-09
3.69293e-10
8.75879e-09
3.46527e-10
8.52079e-09
3.13635e-10
8.30024e-09
2.88898e-10
8.09088e-09
2.75865e-10
7.89446e-09
2.59026e-10
7.70879e-09
2.45424e-10
7.53428e-09
2.31203e-10
7.37285e-09
2.12105e-10
7.21937e-09
2.01836e-10
7.07333e-09
1.92507e-10
6.93529e-09
1.80995e-10
6.80134e-09
1.77049e-10
6.67495e-09
1.66995e-10
6.5567e-09
1.54548e-10
6.44094e-09
1.52625e-10
6.32966e-09
1.47541e-10
6.22545e-09
1.36969e-10
6.12495e-09
1.32302e-10
6.02779e-09
1.28522e-10
5.93676e-09
1.19198e-10
5.84846e-09
1.15555e-10
5.76139e-09
1.15173e-10
5.67845e-09
1.09515e-10
5.59954e-09
1.03501e-10
5.52237e-09
1.01679e-10
5.44818e-09
9.77066e-11
5.37676e-09
9.37439e-11
5.30689e-09
9.21165e-11
5.23876e-09
9.03444e-11
5.17444e-09
8.46987e-11
5.11233e-09
8.15334e-11
5.05169e-09
7.97582e-11
4.99264e-09
7.76612e-11
4.93542e-09
7.5107e-11
4.87877e-09
7.48684e-11
4.82419e-09
7.20941e-11
4.77116e-09
6.99986e-11
4.71995e-09
6.74698e-11
4.66976e-09
6.62405e-11
4.62152e-09
6.33569e-11
4.5737e-09
6.30836e-11
4.52729e-09
6.12674e-11
4.48146e-09
6.07642e-11
4.43803e-09
5.70426e-11
4.39435e-09
5.77392e-11
4.35236e-09
5.53882e-11
4.31031e-09
5.57346e-11
4.27e-09
5.32496e-11
4.22961e-09
5.35757e-11
4.19074e-09
5.1476e-11
4.15228e-09
5.06864e-11
4.11326e-09
5.24604e-11
4.07835e-09
4.50576e-11
4.03756e-09
5.6006e-11
4.01046e-09
3.18193e-11
6.51649e-11
2.84005e-08
4.68963e-09
-2.78932e-08
2.88958e-08
6.05723e-09
2.86336e-08
5.99972e-09
2.76498e-08
6.10953e-09
2.6594e-08
4.72907e-09
2.54554e-08
3.77748e-09
2.43139e-08
3.17535e-09
2.31932e-08
2.71099e-09
2.21412e-08
2.2923e-09
2.11672e-08
2.01005e-09
2.02729e-08
1.80025e-09
1.94612e-08
1.58994e-09
1.8735e-08
1.383e-09
1.80809e-08
1.23065e-09
1.74748e-08
1.13826e-09
1.69077e-08
1.05706e-09
1.63793e-08
9.75598e-10
1.58943e-08
8.87616e-10
1.54452e-08
8.18393e-10
1.50249e-08
7.6686e-10
1.46375e-08
7.01006e-10
1.42751e-08
6.51269e-10
1.39311e-08
6.19862e-10
1.3607e-08
5.83123e-10
1.32996e-08
5.52886e-10
1.30094e-08
5.21309e-10
1.27385e-08
4.83082e-10
1.24806e-08
4.59741e-10
1.22348e-08
4.38242e-10
1.20012e-08
4.14658e-10
1.17754e-08
4.02797e-10
1.15614e-08
3.80992e-10
1.13592e-08
3.56787e-10
1.11627e-08
3.4907e-10
1.09742e-08
3.36116e-10
1.07957e-08
3.15407e-10
1.06238e-08
3.04241e-10
1.04578e-08
2.94533e-10
1.03004e-08
2.76561e-10
1.0148e-08
2.67951e-10
9.99902e-09
2.64172e-10
9.85635e-09
2.5219e-10
9.71977e-09
2.40081e-10
9.58682e-09
2.34623e-10
9.45872e-09
2.25808e-10
9.33512e-09
2.17346e-10
9.21472e-09
2.12517e-10
9.09765e-09
2.07416e-10
8.98601e-09
1.96331e-10
8.878e-09
1.89549e-10
8.77274e-09
1.85018e-10
8.67029e-09
1.8011e-10
8.57089e-09
1.74507e-10
8.47319e-09
1.72567e-10
8.37877e-09
1.66516e-10
8.28697e-09
1.61801e-10
8.19806e-09
1.56373e-10
8.11112e-09
1.53186e-10
8.02711e-09
1.47365e-10
7.94439e-09
1.45798e-10
7.86401e-09
1.41652e-10
7.78501e-09
1.39762e-10
7.7093e-09
1.32751e-10
7.634e-09
1.33039e-10
7.56123e-09
1.28166e-10
7.48896e-09
1.28005e-10
7.41928e-09
1.22922e-10
7.34997e-09
1.2289e-10
7.28308e-09
1.18364e-10
7.21666e-09
1.17107e-10
7.15105e-09
1.18075e-10
7.08873e-09
1.07374e-10
7.02319e-09
1.21547e-10
6.96736e-09
8.76501e-11
1.32456e-10
2.9172e-08
4.39189e-09
-2.88742e-08
2.97109e-08
5.51825e-09
3.01139e-08
5.59673e-09
3.03576e-08
5.86584e-09
2.98525e-08
5.23418e-09
2.95618e-08
4.06818e-09
2.90588e-08
3.67837e-09
2.84269e-08
3.34291e-09
2.77525e-08
2.96669e-09
2.70603e-08
2.70221e-09
2.63668e-08
2.49378e-09
2.56774e-08
2.27933e-09
2.50088e-08
2.05156e-09
2.43753e-08
1.86417e-09
2.37686e-08
1.74498e-09
2.31813e-08
1.64431e-09
2.26085e-08
1.54848e-09
2.20595e-08
1.43655e-09
2.15369e-08
1.34103e-09
2.10386e-08
1.26519e-09
2.05714e-08
1.16818e-09
2.01276e-08
1.09505e-09
1.97008e-08
1.04666e-09
1.92933e-08
9.90611e-10
1.89012e-08
9.4499e-10
1.85265e-08
8.96048e-10
1.81732e-08
8.36402e-10
1.78348e-08
7.98087e-10
1.75106e-08
7.62457e-10
1.72003e-08
7.24975e-10
1.68988e-08
7.04297e-10
1.6611e-08
6.68814e-10
1.63368e-08
6.30931e-10
1.60698e-08
6.16092e-10
1.58127e-08
5.93169e-10
1.55681e-08
5.60087e-10
1.53317e-08
5.40635e-10
1.51028e-08
5.23393e-10
1.48843e-08
4.95112e-10
1.4672e-08
4.80234e-10
1.44644e-08
4.71723e-10
1.42649e-08
4.51721e-10
1.40732e-08
4.31802e-10
1.38865e-08
4.21258e-10
1.37061e-08
4.06196e-10
1.35316e-08
3.91885e-10
1.33616e-08
3.82529e-10
1.31962e-08
3.7281e-10
1.30376e-08
3.54887e-10
1.28839e-08
3.43286e-10
1.2734e-08
3.34908e-10
1.25881e-08
3.26057e-10
1.24463e-08
3.163e-10
1.23072e-08
3.11693e-10
1.21724e-08
3.01295e-10
1.20412e-08
2.92993e-10
1.19139e-08
2.83701e-10
1.17893e-08
2.77699e-10
1.16687e-08
2.68002e-10
1.15502e-08
2.64327e-10
1.14348e-08
2.56997e-10
1.13216e-08
2.52965e-10
1.12126e-08
2.41731e-10
1.11047e-08
2.40986e-10
1.10001e-08
2.32777e-10
1.08966e-08
2.31543e-10
1.07964e-08
2.23026e-10
1.06972e-08
2.22131e-10
1.06012e-08
2.14333e-10
1.0506e-08
2.12347e-10
1.04127e-08
2.11353e-10
1.03221e-08
1.98002e-10
1.02311e-08
2.1258e-10
1.01446e-08
1.74086e-10
2.22486e-10
3.00771e-08
4.19823e-09
-2.98835e-08
3.06305e-08
4.96487e-09
3.07482e-08
5.47907e-09
3.14251e-08
5.18897e-09
3.11513e-08
5.50795e-09
3.1307e-08
3.91245e-09
3.12544e-08
3.73098e-09
3.10331e-08
3.56421e-09
3.07565e-08
3.24327e-09
3.04294e-08
3.02935e-09
3.0067e-08
2.85617e-09
2.96637e-08
2.68264e-09
2.92338e-08
2.48143e-09
2.88034e-08
2.29455e-09
2.83726e-08
2.17582e-09
2.79395e-08
2.07745e-09
2.74904e-08
1.9976e-09
2.70301e-08
1.89679e-09
2.65684e-08
1.80273e-09
2.61121e-08
1.72146e-09
2.56745e-08
1.60586e-09
2.52502e-08
1.51927e-09
2.48328e-08
1.46409e-09
2.44251e-08
1.39836e-09
2.40228e-08
1.34727e-09
2.36285e-08
1.2903e-09
2.32505e-08
1.21445e-09
2.28837e-08
1.16487e-09
2.25281e-08
1.11801e-09
2.21846e-08
1.06851e-09
2.18469e-08
1.04201e-09
2.15209e-08
9.94818e-10
2.1207e-08
9.44792e-10
2.08977e-08
9.25432e-10
2.0597e-08
8.93841e-10
2.03089e-08
8.48165e-10
2.00295e-08
8.20046e-10
1.97579e-08
7.95027e-10
1.94966e-08
7.56396e-10
1.92407e-08
7.3611e-10
1.89888e-08
7.23702e-10
1.8745e-08
6.95488e-10
1.85099e-08
6.66901e-10
1.82805e-08
6.50636e-10
1.80577e-08
6.28995e-10
1.78409e-08
6.08648e-10
1.76291e-08
5.94412e-10
1.74225e-08
5.79399e-10
1.72237e-08
5.53678e-10
1.70303e-08
5.36628e-10
1.68412e-08
5.24007e-10
1.66567e-08
5.10644e-10
1.64768e-08
4.96108e-10
1.63003e-08
4.88272e-10
1.61288e-08
4.72779e-10
1.59616e-08
4.60204e-10
1.57989e-08
4.46409e-10
1.56395e-08
4.37081e-10
1.54846e-08
4.22911e-10
1.53323e-08
4.16628e-10
1.51838e-08
4.0552e-10
1.5038e-08
3.98762e-10
1.48972e-08
3.82479e-10
1.47579e-08
3.80259e-10
1.46226e-08
3.68093e-10
1.44888e-08
3.65368e-10
1.43591e-08
3.52714e-10
1.42307e-08
3.50553e-10
1.41063e-08
3.38733e-10
1.39828e-08
3.35878e-10
1.38623e-08
3.31782e-10
1.37436e-08
3.1675e-10
1.36276e-08
3.28515e-10
1.35106e-08
2.91161e-10
3.35353e-10
3.10858e-08
4.00323e-09
-3.08908e-08
3.14479e-08
4.60279e-09
3.17866e-08
5.14035e-09
3.19933e-08
4.98233e-09
3.23796e-08
5.12159e-09
3.23151e-08
3.97703e-09
3.23964e-08
3.64965e-09
3.23787e-08
3.58195e-09
3.23167e-08
3.30526e-09
3.22105e-08
3.13554e-09
3.20818e-08
2.98488e-09
3.19062e-08
2.85823e-09
3.16969e-08
2.69073e-09
3.14858e-08
2.50566e-09
3.12662e-08
2.39539e-09
3.10401e-08
2.30348e-09
3.07851e-08
2.25263e-09
3.04949e-08
2.18697e-09
3.01785e-08
2.11922e-09
2.98475e-08
2.05237e-09
2.95214e-08
1.93197e-09
2.92e-08
1.84073e-09
2.88754e-08
1.78866e-09
2.8549e-08
1.72472e-09
2.82162e-08
1.68012e-09
2.78775e-08
1.62902e-09
2.75439e-08
1.54797e-09
2.72132e-08
1.49564e-09
2.68862e-08
1.44498e-09
2.65658e-08
1.38892e-09
2.62454e-08
1.36241e-09
2.5932e-08
1.30818e-09
2.56268e-08
1.24998e-09
2.532e-08
1.23232e-09
2.50154e-08
1.19842e-09
2.47194e-08
1.14411e-09
2.44304e-08
1.10906e-09
2.41486e-08
1.0768e-09
2.38765e-08
1.02851e-09
2.36071e-08
1.00554e-09
2.33375e-08
9.93267e-10
2.30731e-08
9.59907e-10
2.28164e-08
9.23638e-10
2.25652e-08
9.01781e-10
2.232e-08
8.74244e-10
2.20792e-08
8.49395e-10
2.18418e-08
8.3188e-10
2.16089e-08
8.12245e-10
2.13842e-08
7.78385e-10
2.11651e-08
7.55763e-10
2.09496e-08
7.39466e-10
2.07381e-08
7.22195e-10
2.05308e-08
7.03373e-10
2.03265e-08
6.92575e-10
2.01275e-08
6.71817e-10
1.9933e-08
6.54683e-10
1.97432e-08
6.36172e-10
1.95568e-08
6.23539e-10
1.93747e-08
6.04958e-10
1.91951e-08
5.96245e-10
1.90192e-08
5.81375e-10
1.88463e-08
5.71708e-10
1.8679e-08
5.49809e-10
1.85133e-08
5.45969e-10
1.83517e-08
5.29617e-10
1.81918e-08
5.25347e-10
1.80364e-08
5.08117e-10
1.78823e-08
5.04578e-10
1.77329e-08
4.88173e-10
1.7584e-08
4.84716e-10
1.74394e-08
4.76403e-10
1.72949e-08
4.61248e-10
1.71567e-08
4.66787e-10
1.70115e-08
4.36321e-10
4.69579e-10
3.21045e-08
3.80728e-09
-3.19086e-08
3.23761e-08
4.33123e-09
3.27328e-08
4.7836e-09
3.28925e-08
4.82269e-09
3.32495e-08
4.76462e-09
3.32878e-08
3.93868e-09
3.334e-08
3.59741e-09
3.3356e-08
3.56603e-09
3.33596e-08
3.30159e-09
3.33565e-08
3.13866e-09
3.33333e-08
3.00806e-09
3.32596e-08
2.93199e-09
3.31655e-08
2.78483e-09
3.30905e-08
2.58064e-09
3.30124e-08
2.4735e-09
3.29392e-08
2.37664e-09
3.28426e-08
2.34924e-09
3.27069e-08
2.32264e-09
3.25355e-08
2.29061e-09
3.23393e-08
2.24856e-09
3.21402e-08
2.13116e-09
3.19438e-08
2.03711e-09
3.17416e-08
1.99081e-09
3.15322e-08
1.93416e-09
3.13106e-08
1.90174e-09
3.10731e-08
1.86653e-09
3.08308e-08
1.79021e-09
3.0583e-08
1.74342e-09
3.03311e-08
1.69697e-09
3.00792e-08
1.64074e-09
2.98209e-08
1.62076e-09
2.95646e-08
1.56443e-09
2.93136e-08
1.50103e-09
2.90553e-08
1.4906e-09
2.87906e-08
1.46308e-09
2.85262e-08
1.40859e-09
2.82633e-08
1.37193e-09
2.8006e-08
1.33408e-09
2.77587e-08
1.27582e-09
2.75124e-08
1.2518e-09
2.72607e-08
1.24497e-09
2.70073e-08
1.21333e-09
2.67572e-08
1.17374e-09
2.65114e-08
1.14763e-09
2.62706e-08
1.11497e-09
2.60321e-08
1.08793e-09
2.57931e-08
1.07092e-09
2.55555e-08
1.04978e-09
2.53252e-08
1.00874e-09
2.51004e-08
9.80523e-10
2.48785e-08
9.61358e-10
2.46589e-08
9.41861e-10
2.44413e-08
9.20964e-10
2.42248e-08
9.09009e-10
2.40127e-08
8.83927e-10
2.38049e-08
8.62496e-10
2.36017e-08
8.39326e-10
2.34015e-08
8.23743e-10
2.3205e-08
8.0148e-10
2.30098e-08
7.91471e-10
2.28172e-08
7.73926e-10
2.2627e-08
7.61939e-10
2.24425e-08
7.34319e-10
2.22595e-08
7.29021e-10
2.20803e-08
7.08759e-10
2.19022e-08
7.03468e-10
2.17287e-08
6.81649e-10
2.15562e-08
6.77043e-10
2.13886e-08
6.5576e-10
2.12208e-08
6.5255e-10
2.1058e-08
6.39128e-10
2.08933e-08
6.26005e-10
2.07379e-08
6.22221e-10
2.05704e-08
6.03747e-10
6.21298e-10
3.31433e-08
3.60728e-09
-3.29433e-08
3.33695e-08
4.10503e-09
3.36603e-08
4.49277e-09
3.38954e-08
4.58758e-09
3.40644e-08
4.5956e-09
3.42413e-08
3.76178e-09
3.41783e-08
3.66041e-09
3.42998e-08
3.4446e-09
3.43333e-08
3.26807e-09
3.43472e-08
3.12471e-09
3.43435e-08
3.01183e-09
3.43046e-08
2.97087e-09
3.42561e-08
2.83329e-09
3.42401e-08
2.59663e-09
3.42247e-08
2.4889e-09
3.42256e-08
2.3758e-09
3.42137e-08
2.36109e-09
3.41702e-08
2.36614e-09
3.4095e-08
2.36579e-09
3.39937e-08
2.34987e-09
3.38867e-08
2.23817e-09
3.37867e-08
2.13718e-09
3.3685e-08
2.09248e-09
3.35775e-08
2.04167e-09
3.34602e-08
2.01903e-09
3.33243e-08
2.00238e-09
3.31793e-08
1.93523e-09
3.30248e-08
1.89798e-09
3.28616e-08
1.86009e-09
3.26949e-08
1.80745e-09
3.25171e-08
1.79864e-09
3.23377e-08
1.74383e-09
3.21631e-08
1.67555e-09
3.19802e-08
1.67354e-09
3.17852e-08
1.65804e-09
3.15818e-08
1.61206e-09
3.1372e-08
1.58166e-09
3.1164e-08
1.54216e-09
3.09667e-08
1.47311e-09
3.07722e-08
1.44624e-09
3.057e-08
1.44723e-09
3.03585e-08
1.42482e-09
3.01429e-08
1.38936e-09
2.9928e-08
1.36254e-09
2.97175e-08
1.32547e-09
2.9508e-08
1.29736e-09
2.9294e-08
1.28496e-09
2.90761e-08
1.26771e-09
2.8862e-08
1.22284e-09
2.8653e-08
1.18949e-09
2.84469e-08
1.16741e-09
2.82419e-08
1.14691e-09
2.80357e-08
1.12719e-09
2.78269e-08
1.11772e-09
2.76197e-08
1.09113e-09
2.74155e-08
1.06677e-09
2.72156e-08
1.03923e-09
2.70185e-08
1.02083e-09
2.68243e-08
9.95628e-10
2.66297e-08
9.86085e-10
2.64354e-08
9.68209e-10
2.62417e-08
9.55678e-10
2.6053e-08
9.23031e-10
2.58653e-08
9.16725e-10
2.56808e-08
8.93252e-10
2.54962e-08
8.88083e-10
2.53156e-08
8.6222e-10
2.51353e-08
8.57312e-10
2.49599e-08
8.31157e-10
2.47829e-08
8.29554e-10
2.46114e-08
8.10663e-10
2.44353e-08
8.02086e-10
2.42707e-08
7.86847e-10
2.40903e-08
7.84105e-10
7.8387e-10
3.41796e-08
3.3784e-09
-3.39508e-08
3.43828e-08
3.90192e-09
3.46591e-08
4.2164e-09
3.48621e-08
4.38461e-09
3.50702e-08
4.38753e-09
3.51659e-08
3.66603e-09
3.52626e-08
3.56374e-09
3.52856e-08
3.42157e-09
3.53146e-08
3.23906e-09
3.53326e-08
3.10672e-09
3.53338e-08
3.01061e-09
3.53103e-08
2.99437e-09
3.52796e-08
2.86401e-09
3.52697e-08
2.60655e-09
3.52721e-08
2.48652e-09
3.52977e-08
2.3502e-09
3.53179e-08
2.34085e-09
3.5312e-08
2.37205e-09
3.52834e-08
2.39441e-09
3.52316e-08
2.40169e-09
3.51711e-08
2.29865e-09
3.5123e-08
2.18523e-09
3.50814e-08
2.13413e-09
3.50385e-08
2.08459e-09
3.49922e-08
2.06532e-09
3.49288e-08
2.06573e-09
3.48562e-08
2.00786e-09
3.47743e-08
1.97985e-09
3.46844e-08
1.94997e-09
3.45911e-08
1.90076e-09
3.44854e-08
1.90434e-09
3.43764e-08
1.85283e-09
3.42736e-08
1.77842e-09
3.41651e-08
1.78203e-09
3.40443e-08
1.77878e-09
3.39107e-08
1.74568e-09
3.37645e-08
1.72785e-09
3.36147e-08
1.69197e-09
3.34752e-08
1.61258e-09
3.33426e-08
1.57883e-09
3.32046e-08
1.5853e-09
3.30532e-08
1.57614e-09
3.28907e-08
1.55189e-09
3.27237e-08
1.52958e-09
3.25598e-08
1.48935e-09
3.23976e-08
1.45952e-09
3.22289e-08
1.4537e-09
3.20509e-08
1.44566e-09
3.18714e-08
1.4024e-09
3.16951e-08
1.36581e-09
3.15224e-08
1.34008e-09
3.13515e-08
1.31781e-09
3.11772e-08
1.3015e-09
3.09963e-08
1.29864e-09
3.08122e-08
1.27516e-09
3.0628e-08
1.251e-09
3.04471e-08
1.22018e-09
3.02692e-08
1.19867e-09
3.00945e-08
1.17035e-09
2.9918e-08
1.16257e-09
2.97389e-08
1.14734e-09
2.95574e-08
1.13718e-09
2.93791e-08
1.10132e-09
2.9201e-08
1.09481e-09
2.90252e-08
1.06907e-09
2.88477e-08
1.06556e-09
2.86732e-08
1.03676e-09
2.84978e-08
1.03267e-09
2.8327e-08
1.00191e-09
2.81532e-08
1.00338e-09
2.79845e-08
9.7943e-10
2.78087e-08
9.7781e-10
2.7645e-08
9.50558e-10
2.74639e-08
9.65262e-10
9.48249e-10
3.52302e-08
3.21187e-09
-3.50637e-08
3.545e-08
3.68217e-09
3.56946e-08
3.97172e-09
3.58762e-08
4.20307e-09
3.60948e-08
4.16886e-09
3.61093e-08
3.65155e-09
3.63309e-08
3.34212e-09
3.6277e-08
3.47549e-09
3.63093e-08
3.20678e-09
3.63398e-08
3.07624e-09
3.6347e-08
3.00341e-09
3.63343e-08
3.00705e-09
3.63166e-08
2.8817e-09
3.63021e-08
2.62104e-09
3.63087e-08
2.47993e-09
3.63356e-08
2.32326e-09
3.63603e-08
2.31618e-09
3.63655e-08
2.36681e-09
3.63545e-08
2.40545e-09
3.6325e-08
2.43117e-09
3.62801e-08
2.34356e-09
3.62501e-08
2.21522e-09
3.6238e-08
2.14626e-09
3.62265e-08
2.09611e-09
3.6217e-08
2.07477e-09
3.61927e-08
2.09006e-09
3.61607e-08
2.0398e-09
3.61207e-08
2.01994e-09
3.60765e-08
1.99409e-09
3.60315e-08
1.94583e-09
3.59757e-08
1.96016e-09
3.59166e-08
1.91191e-09
3.58644e-08
1.83057e-09
3.58104e-08
1.83607e-09
3.57476e-08
1.84161e-09
3.56727e-08
1.82051e-09
3.55836e-08
1.81699e-09
3.54868e-08
1.78871e-09
3.53983e-08
1.70114e-09
3.53201e-08
1.657e-09
3.52414e-08
1.66408e-09
3.51499e-08
1.66764e-09
3.50438e-08
1.65796e-09
3.49289e-08
1.64451e-09
3.48153e-08
1.60287e-09
3.47052e-08
1.5697e-09
3.45891e-08
1.56981e-09
3.44608e-08
1.57387e-09
3.43257e-08
1.53755e-09
3.41905e-08
1.50096e-09
3.40595e-08
1.47115e-09
3.39328e-08
1.44447e-09
3.38029e-08
1.43142e-09
3.3664e-08
1.43752e-09
3.35173e-08
1.4219e-09
3.33658e-08
1.4025e-09
3.32151e-08
1.37089e-09
3.30676e-08
1.34614e-09
3.29246e-08
1.31331e-09
3.27802e-08
1.30701e-09
3.26308e-08
1.29677e-09
3.24758e-08
1.29218e-09
3.23212e-08
1.25586e-09
3.21657e-08
1.25034e-09
3.20114e-08
1.2234e-09
3.18538e-08
1.2231e-09
3.16977e-08
1.19284e-09
3.15396e-08
1.1908e-09
3.13856e-08
1.15591e-09
3.12276e-08
1.16142e-09
3.10734e-08
1.13359e-09
3.09106e-08
1.1406e-09
3.07585e-08
1.10266e-09
3.05896e-08
1.13414e-09
1.10424e-09
3.63168e-08
3.07024e-09
-3.61752e-08
3.65471e-08
3.45184e-09
3.67471e-08
3.77169e-09
3.69431e-08
4.00712e-09
3.71229e-08
3.98911e-09
3.71597e-08
3.61475e-09
3.71984e-08
3.30338e-09
3.71206e-08
3.55329e-09
3.73074e-08
3.01999e-09
3.73855e-08
2.99812e-09
3.73884e-08
3.00057e-09
3.73812e-08
3.01426e-09
3.7376e-08
2.88689e-09
3.73602e-08
2.63683e-09
3.73685e-08
2.47157e-09
3.73929e-08
2.29888e-09
3.7415e-08
2.29408e-09
3.74237e-08
2.35816e-09
3.74152e-08
2.41393e-09
3.73893e-08
2.45707e-09
3.73526e-08
2.38022e-09
3.73282e-08
2.23963e-09
3.73264e-08
2.14808e-09
3.7329e-08
2.09352e-09
3.73345e-08
2.0693e-09
3.73253e-08
2.09925e-09
3.73115e-08
2.05354e-09
3.72886e-08
2.04285e-09
3.72673e-08
2.01542e-09
3.72473e-08
1.96579e-09
3.72194e-08
1.98804e-09
3.71891e-08
1.94227e-09
3.7165e-08
1.8547e-09
3.71411e-08
1.85989e-09
3.71124e-08
1.87038e-09
3.7076e-08
1.8569e-09
3.70283e-08
1.86471e-09
3.69716e-08
1.84533e-09
3.69201e-08
1.75269e-09
3.68801e-08
1.69695e-09
3.68437e-08
1.70048e-09
3.67975e-08
1.71391e-09
3.67375e-08
1.71792e-09
3.66672e-08
1.71483e-09
3.65973e-08
1.67274e-09
3.65324e-08
1.6346e-09
3.64634e-08
1.63879e-09
3.63823e-08
1.65501e-09
3.62909e-08
1.62895e-09
3.61964e-08
1.59548e-09
3.61057e-08
1.56187e-09
3.60226e-08
1.52755e-09
3.59382e-08
1.51584e-09
3.58452e-08
1.53044e-09
3.57417e-08
1.52547e-09
3.5629e-08
1.5151e-09
3.55136e-08
1.48631e-09
3.54007e-08
1.45909e-09
3.52942e-08
1.41979e-09
3.51883e-08
1.41294e-09
3.50766e-08
1.40846e-09
3.4957e-08
1.41175e-09
3.4835e-08
1.3779e-09
3.47107e-08
1.37458e-09
3.45867e-08
1.34747e-09
3.44582e-08
1.35162e-09
3.43295e-08
1.32154e-09
3.41977e-08
1.32257e-09
3.40694e-08
1.28422e-09
3.39372e-08
1.29366e-09
3.38071e-08
1.26366e-09
3.36681e-08
1.27963e-09
3.35367e-08
1.234e-09
3.33915e-08
1.27936e-09
1.2424e-09
3.74495e-08
2.93323e-09
-3.73125e-08
3.76473e-08
3.25405e-09
3.78409e-08
3.57814e-09
3.80243e-08
3.82372e-09
3.81657e-08
3.84773e-09
3.82649e-08
3.51547e-09
3.82872e-08
3.28114e-09
3.83905e-08
3.44993e-09
3.83876e-08
3.02289e-09
3.84574e-08
2.92834e-09
3.84661e-08
2.99187e-09
3.84612e-08
3.01921e-09
3.84579e-08
2.89016e-09
3.84457e-08
2.64898e-09
3.84545e-08
2.4628e-09
3.84788e-08
2.27462e-09
3.84944e-08
2.27845e-09
3.85033e-08
2.34927e-09
3.84978e-08
2.41944e-09
3.84757e-08
2.4792e-09
3.84439e-08
2.41202e-09
3.84212e-08
2.26227e-09
3.84182e-08
2.15107e-09
3.84272e-08
2.08455e-09
3.84377e-08
2.05876e-09
3.84325e-08
2.10444e-09
3.84257e-08
2.06042e-09
3.84063e-08
2.06219e-09
3.83942e-08
2.02749e-09
3.83855e-08
1.97456e-09
3.83715e-08
2.00205e-09
3.83543e-08
1.95947e-09
3.83419e-08
1.86704e-09
3.83309e-08
1.87093e-09
3.83168e-08
1.88451e-09
3.82995e-08
1.87413e-09
3.82779e-08
1.8863e-09
3.82479e-08
1.8754e-09
3.82192e-08
1.78132e-09
3.82013e-08
1.71489e-09
3.81885e-08
1.71329e-09
3.81684e-08
1.73398e-09
3.81381e-08
1.74822e-09
3.80987e-08
1.7542e-09
3.80605e-08
1.71099e-09
3.80286e-08
1.66652e-09
3.7994e-08
1.67339e-09
3.79486e-08
1.70034e-09
3.78922e-08
1.68535e-09
3.7831e-08
1.6567e-09
3.7773e-08
1.61992e-09
3.77254e-08
1.57511e-09
3.76784e-08
1.56283e-09
3.76255e-08
1.5834e-09
3.75617e-08
1.58927e-09
3.74865e-08
1.59023e-09
3.74052e-08
1.56766e-09
3.73245e-08
1.53972e-09
3.72519e-08
1.49239e-09
3.71829e-08
1.48195e-09
3.7109e-08
1.48244e-09
3.70264e-08
1.49434e-09
3.6939e-08
1.46528e-09
3.68487e-08
1.46485e-09
3.67579e-08
1.43827e-09
3.66621e-08
1.44745e-09
3.65644e-08
1.41919e-09
3.64631e-08
1.42388e-09
3.63643e-08
1.38298e-09
3.62631e-08
1.39489e-09
3.61622e-08
1.3646e-09
3.60535e-08
1.38832e-09
3.59486e-08
1.33889e-09
3.58343e-08
1.39366e-09
1.35606e-09
3.86107e-08
2.7961e-09
-3.84735e-08
3.87775e-08
3.08719e-09
3.89521e-08
3.4036e-09
3.91594e-08
3.61638e-09
3.92162e-08
3.79092e-09
3.94189e-08
3.31277e-09
3.93259e-08
3.37415e-09
3.94989e-08
3.27691e-09
3.95273e-08
2.99449e-09
3.95497e-08
2.90599e-09
3.95742e-08
2.96728e-09
3.95764e-08
3.01708e-09
3.95703e-08
2.89622e-09
3.95648e-08
2.65446e-09
3.95707e-08
2.45692e-09
3.9593e-08
2.25239e-09
3.96058e-08
2.26563e-09
3.96117e-08
2.34338e-09
3.96082e-08
2.42291e-09
3.959e-08
2.49734e-09
3.95647e-08
2.43741e-09
3.95422e-08
2.28469e-09
3.95396e-08
2.15368e-09
3.95512e-08
2.07294e-09
3.95613e-08
2.04865e-09
3.95548e-08
2.11097e-09
3.95493e-08
2.06594e-09
3.95305e-08
2.08103e-09
3.95228e-08
2.03514e-09
3.95172e-08
1.98019e-09
3.95125e-08
2.00672e-09
3.94972e-08
1.97478e-09
3.94889e-08
1.87534e-09
3.9481e-08
1.87878e-09
3.94717e-08
1.89389e-09
3.94624e-08
1.88334e-09
3.94527e-08
1.89602e-09
3.94382e-08
1.88991e-09
3.94245e-08
1.79507e-09
3.94176e-08
1.72178e-09
3.94141e-08
1.71675e-09
3.94045e-08
1.74362e-09
3.93887e-08
1.76395e-09
3.93673e-08
1.77563e-09
3.93487e-08
1.72963e-09
3.9337e-08
1.67815e-09
3.93231e-08
1.68735e-09
3.93002e-08
1.72325e-09
3.92672e-08
1.71835e-09
3.92295e-08
1.69441e-09
3.91941e-08
1.65533e-09
3.91713e-08
1.59782e-09
3.91495e-08
1.58464e-09
3.9125e-08
1.60795e-09
3.90914e-08
1.62286e-09
3.90466e-08
1.63499e-09
3.89936e-08
1.6207e-09
3.8939e-08
1.59428e-09
3.88931e-08
1.5383e-09
3.88538e-08
1.52127e-09
3.88111e-08
1.52517e-09
3.87604e-08
1.54501e-09
3.87036e-08
1.52211e-09
3.8644e-08
1.52443e-09
3.85839e-08
1.4984e-09
3.85189e-08
1.51239e-09
3.84507e-08
1.48743e-09
3.83787e-08
1.49588e-09
3.83081e-08
1.45359e-09
3.82375e-08
1.46548e-09
3.81657e-08
1.43643e-09
3.80885e-08
1.46548e-09
3.80112e-08
1.41616e-09
3.79296e-08
1.47528e-09
1.44252e-09
3.9799e-08
2.66494e-09
-3.96679e-08
3.99416e-08
2.9446e-09
4.01021e-08
3.24316e-09
4.02983e-08
3.42012e-09
4.03405e-08
3.74878e-09
4.05366e-08
3.11663e-09
4.04924e-08
3.41833e-09
4.06017e-08
3.16767e-09
4.06149e-08
2.98128e-09
4.06765e-08
2.84438e-09
4.07156e-08
2.92815e-09
4.07219e-08
3.0108e-09
4.0713e-08
2.90507e-09
4.07107e-08
2.6568e-09
4.0725e-08
2.44263e-09
4.07383e-08
2.23912e-09
4.07536e-08
2.25028e-09
4.07539e-08
2.34309e-09
4.07484e-08
2.42845e-09
4.07324e-08
2.51328e-09
4.07154e-08
2.45441e-09
4.06969e-08
2.30319e-09
4.06947e-08
2.15592e-09
4.07044e-08
2.0632e-09
4.07132e-08
2.03983e-09
4.07049e-08
2.11927e-09
4.06994e-08
2.07146e-09
4.06821e-08
2.09838e-09
4.06771e-08
2.04016e-09
4.06717e-08
1.98558e-09
4.06682e-08
2.01021e-09
4.06553e-08
1.98766e-09
4.06456e-08
1.88506e-09
4.06395e-08
1.88489e-09
4.06316e-08
1.90177e-09
4.06262e-08
1.88873e-09
4.06216e-08
1.90059e-09
4.06154e-08
1.89615e-09
4.06097e-08
1.8008e-09
4.06049e-08
1.72652e-09
4.06035e-08
1.71815e-09
4.05964e-08
1.7508e-09
4.05858e-08
1.77449e-09
4.05734e-08
1.78802e-09
4.05672e-08
1.73587e-09
4.05649e-08
1.68048e-09
4.05604e-08
1.69185e-09
4.05487e-08
1.7349e-09
4.05289e-08
1.73818e-09
4.05067e-08
1.71659e-09
4.04852e-08
1.67678e-09
4.04778e-08
1.60523e-09
4.04692e-08
1.59323e-09
4.0461e-08
1.61614e-09
4.04464e-08
1.63755e-09
4.04227e-08
1.65867e-09
4.03904e-08
1.65303e-09
4.03546e-08
1.63002e-09
4.03268e-08
1.56609e-09
4.0308e-08
1.54016e-09
4.0287e-08
1.54608e-09
4.02596e-08
1.57242e-09
4.02256e-08
1.55618e-09
4.01896e-08
1.56041e-09
4.01538e-08
1.53418e-09
4.01141e-08
1.55204e-09
4.007e-08
1.53157e-09
4.00223e-08
1.54356e-09
3.99747e-08
1.50116e-09
3.993e-08
1.51026e-09
3.98831e-08
1.48332e-09
3.9834e-08
1.51458e-09
3.97812e-08
1.46888e-09
3.97291e-08
1.52744e-09
1.50313e-09
4.10129e-08
2.56032e-09
-4.09083e-08
4.11429e-08
2.81467e-09
4.12887e-08
3.09734e-09
4.14347e-08
3.27412e-09
4.1551e-08
3.63252e-09
4.16349e-08
3.03264e-09
4.17041e-08
3.34917e-09
4.16868e-08
3.18499e-09
4.18472e-08
2.8209e-09
4.17934e-08
2.89813e-09
4.18598e-08
2.86173e-09
4.18994e-08
2.97119e-09
4.18878e-08
2.91674e-09
4.18915e-08
2.65304e-09
4.19168e-08
2.41739e-09
4.19255e-08
2.23038e-09
4.19302e-08
2.24556e-09
4.19294e-08
2.34387e-09
4.19185e-08
2.43942e-09
4.19059e-08
2.52589e-09
4.18997e-08
2.46053e-09
4.18848e-08
2.31812e-09
4.18823e-08
2.15847e-09
4.18906e-08
2.05481e-09
4.18971e-08
2.03335e-09
4.18889e-08
2.12751e-09
4.18785e-08
2.08183e-09
4.18691e-08
2.10783e-09
4.18596e-08
2.04962e-09
4.18578e-08
1.98737e-09
4.18525e-08
2.01551e-09
4.18397e-08
2.00048e-09
4.18327e-08
1.89207e-09
4.18249e-08
1.89265e-09
4.18172e-08
1.90947e-09
4.1817e-08
1.88895e-09
4.18096e-08
1.90799e-09
4.18108e-08
1.89497e-09
4.18077e-08
1.80387e-09
4.18026e-08
1.73161e-09
4.17976e-08
1.72313e-09
4.17909e-08
1.75752e-09
4.17842e-08
1.78126e-09
4.17758e-08
1.79636e-09
4.17722e-08
1.73951e-09
4.17732e-08
1.67947e-09
4.17719e-08
1.69311e-09
4.17663e-08
1.74055e-09
4.17545e-08
1.74999e-09
4.17409e-08
1.73019e-09
4.17284e-08
1.68926e-09
4.17265e-08
1.60711e-09
4.17248e-08
1.5949e-09
4.1724e-08
1.61699e-09
4.17188e-08
1.64269e-09
4.1708e-08
1.66949e-09
4.16888e-08
1.67229e-09
4.16662e-08
1.65258e-09
4.16492e-08
1.58313e-09
4.16423e-08
1.54701e-09
4.1634e-08
1.55434e-09
4.16208e-08
1.58563e-09
4.16011e-08
1.57591e-09
4.15806e-08
1.58087e-09
4.15617e-08
1.5531e-09
4.15402e-08
1.57357e-09
4.15134e-08
1.55839e-09
4.14834e-08
1.57356e-09
4.14521e-08
1.53243e-09
4.14264e-08
1.53602e-09
4.13979e-08
1.51181e-09
4.13708e-08
1.54168e-09
4.13366e-08
1.50302e-09
4.13078e-08
1.55632e-09
1.54226e-09
4.22567e-08
2.48853e-09
-4.21849e-08
4.23823e-08
2.68909e-09
4.24948e-08
2.98487e-09
4.26256e-08
3.14326e-09
4.27675e-08
3.49068e-09
4.28009e-08
2.9992e-09
4.29064e-08
3.24368e-09
4.29524e-08
3.13895e-09
4.30099e-08
2.7634e-09
4.30789e-08
2.82912e-09
4.3079e-08
2.86166e-09
4.30971e-08
2.95309e-09
4.30981e-08
2.91578e-09
4.31117e-08
2.63937e-09
4.31418e-08
2.38736e-09
4.31446e-08
2.22751e-09
4.31339e-08
2.25633e-09
4.3137e-08
2.34074e-09
4.31241e-08
2.45228e-09
4.31178e-08
2.53228e-09
4.3118e-08
2.46032e-09
4.3105e-08
2.33109e-09
4.31018e-08
2.16168e-09
4.31102e-08
2.04634e-09
4.31143e-08
2.02935e-09
4.31062e-08
2.13558e-09
4.30924e-08
2.09561e-09
4.30898e-08
2.11047e-09
4.30731e-08
2.06633e-09
4.3078e-08
1.98243e-09
4.30685e-08
2.02498e-09
4.30579e-08
2.01113e-09
4.30527e-08
1.89724e-09
4.3044e-08
1.90138e-09
4.30392e-08
1.9143e-09
4.30392e-08
1.88895e-09
4.30294e-08
1.91774e-09
4.30368e-08
1.8876e-09
4.30308e-08
1.80982e-09
4.30251e-08
1.73735e-09
4.3018e-08
1.73024e-09
4.30116e-08
1.7639e-09
4.30075e-08
1.78533e-09
4.3001e-08
1.80285e-09
4.29958e-08
1.74472e-09
4.29967e-08
1.67863e-09
4.29955e-08
1.69427e-09
4.29927e-08
1.74332e-09
4.29871e-08
1.75564e-09
4.29784e-08
1.7389e-09
4.29692e-08
1.69847e-09
4.29685e-08
1.60774e-09
4.29689e-08
1.59449e-09
4.29709e-08
1.61503e-09
4.29696e-08
1.64402e-09
4.29654e-08
1.67364e-09
4.29545e-08
1.68318e-09
4.29394e-08
1.66768e-09
4.29283e-08
1.59426e-09
4.29281e-08
1.54725e-09
4.29257e-08
1.55666e-09
4.29197e-08
1.59169e-09
4.29074e-08
1.58821e-09
4.28959e-08
1.59236e-09
4.28871e-08
1.56184e-09
4.28771e-08
1.58362e-09
4.28611e-08
1.57441e-09
4.28429e-08
1.59174e-09
4.28215e-08
1.55382e-09
4.28082e-08
1.54936e-09
4.27914e-08
1.52853e-09
4.278e-08
1.5531e-09
4.27557e-08
1.52729e-09
4.27449e-08
1.56715e-09
1.5658e-09
4.35475e-08
2.42677e-09
-4.34858e-08
4.36377e-08
2.59893e-09
4.37548e-08
2.86774e-09
4.38477e-08
3.05034e-09
4.40053e-08
3.33311e-09
4.40423e-08
2.96219e-09
4.4138e-08
3.14802e-09
4.42231e-08
3.05382e-09
4.4267e-08
2.71944e-09
4.43204e-08
2.77578e-09
4.43214e-08
2.86063e-09
4.43326e-08
2.94186e-09
4.43415e-08
2.90693e-09
4.43636e-08
2.6173e-09
4.44001e-08
2.35086e-09
4.43938e-08
2.2338e-09
4.43792e-08
2.27093e-09
4.43788e-08
2.34107e-09
4.43669e-08
2.46417e-09
4.43701e-08
2.52915e-09
4.43665e-08
2.46389e-09
4.43598e-08
2.33784e-09
4.43531e-08