/*--------------------------------*- C++ -*----------------------------------*\
| =========                 |                                                 |
| \\      /  F ield         | OpenFOAM: The Open Source CFD Toolbox           |
|  \\    /   O peration     | Version:  2.3.0                                 |
|   \\  /    A nd           | Web:      www.OpenFOAM.org                      |
|    \\/     M anipulation  |                                                 |
\*---------------------------------------------------------------------------*/
FoamFile
{
    version     2.0;
    format      ascii;
    class       volVectorField;
    location    "0.85";
    object      U;
}
// * * * * * * * * * * * * * * * * * * * * * * * * * * * * * * * * * * * * * //

dimensions      [0 1 -1 0 0 0 0];

internalField   nonuniform List<vector> 
2945
(
(0.160279 0.00666673 0)
(0.120515 0.00661488 0)
(0.0889086 0.00462477 0)
(0.0664226 0.00265111 0)
(0.0520971 0.000955799 0)
(0.0433649 0.000283723 0)
(0.038177 0.000133749 0)
(0.0347231 8.30475e-05 0)
(0.0323359 5.54273e-05 0)
(0.0305287 6.80479e-05 0)
(0.0289339 8.59265e-05 0)
(0.027475 8.19231e-05 0)
(0.0262243 6.54679e-05 0)
(0.025168 5.52211e-05 0)
(0.0242181 5.32322e-05 0)
(0.0233282 5.00133e-05 0)
(0.0225068 4.63537e-05 0)
(0.0217655 4.04984e-05 0)
(0.0210928 3.63701e-05 0)
(0.0204648 3.59509e-05 0)
(0.0198867 3.03162e-05 0)
(0.0193652 2.5809e-05 0)
(0.0188803 2.62014e-05 0)
(0.0184164 2.47295e-05 0)
(0.0179743 2.38529e-05 0)
(0.0175548 2.28602e-05 0)
(0.0171665 1.89697e-05 0)
(0.0168084 1.79905e-05 0)
(0.0164677 1.74885e-05 0)
(0.0161448 1.53607e-05 0)
(0.0158338 1.63142e-05 0)
(0.0155324 1.52562e-05 0)
(0.0152542 1.2299e-05 0)
(0.0149903 1.32942e-05 0)
(0.014727 1.361e-05 0)
(0.0144775 1.14185e-05 0)
(0.0142443 1.10719e-05 0)
(0.014016 1.12855e-05 0)
(0.0138012 9.24456e-06 0)
(0.0136009 8.73598e-06 0)
(0.0134015 9.78704e-06 0)
(0.0132042 9.10515e-06 0)
(0.0130194 7.89214e-06 0)
(0.0128417 8.0758e-06 0)
(0.0126686 7.66826e-06 0)
(0.0125029 6.99291e-06 0)
(0.0123424 7.15507e-06 0)
(0.0121815 7.44425e-06 0)
(0.012028 6.43369e-06 0)
(0.0118838 5.87721e-06 0)
(0.011745 5.83214e-06 0)
(0.0116083 5.61511e-06 0)
(0.011477 5.24537e-06 0)
(0.0113462 5.60503e-06 0)
(0.0112178 5.34523e-06 0)
(0.0110926 5.09329e-06 0)
(0.0109731 4.77015e-06 0)
(0.0108557 4.72619e-06 0)
(0.0107438 4.2335e-06 0)
(0.0106333 4.36862e-06 0)
(0.0105255 4.24996e-06 0)
(0.0104169 4.39449e-06 0)
(0.0103149 3.67418e-06 0)
(0.0102137 3.95066e-06 0)
(0.0101157 3.66424e-06 0)
(0.010017 3.85638e-06 0)
(0.00992124 3.52005e-06 0)
(0.00982724 3.67222e-06 0)
(0.00973205 3.42797e-06 0)
(0.0096473 3.16093e-06 0)
(0.00954437 3.95421e-06 0)
(0.00947766 2.12529e-06 0)
(0.00935404 4.79462e-06 0)
(0.00933195 -6.38966e-07 0)
(0.00917591 7.69227e-06 0)
(0.191517 0.0122746 0)
(0.183841 0.0142777 0)
(0.171749 0.0114609 0)
(0.156367 0.00930321 0)
(0.141388 0.00651668 0)
(0.127778 0.00388519 0)
(0.116484 0.00242234 0)
(0.107065 0.00162967 0)
(0.0994215 0.00116618 0)
(0.0932863 0.000956911 0)
(0.0881634 0.000849824 0)
(0.0837428 0.000729235 0)
(0.0799494 0.000602841 0)
(0.0766784 0.000521692 0)
(0.0737496 0.000481907 0)
(0.0710427 0.000441891 0)
(0.0685543 0.000400383 0)
(0.0663093 0.000356097 0)
(0.0642593 0.000322834 0)
(0.062359 0.000303306 0)
(0.0606167 0.000270023 0)
(0.0590061 0.000243131 0)
(0.0575011 0.000231859 0)
(0.0560843 0.000216474 0)
(0.0547412 0.000203998 0)
(0.0534804 0.000191556 0)
(0.0523032 0.000171648 0)
(0.0511962 0.000161479 0)
(0.0501508 0.00015346 0)
(0.0491545 0.000141551 0)
(0.0481978 0.000138937 0)
(0.0472882 0.000130256 0)
(0.0464296 0.000116884 0)
(0.0456078 0.000115741 0)
(0.0448135 0.000112403 0)
(0.0440571 0.000101908 0)
(0.0433385 9.74587e-05 0)
(0.0426451 9.48324e-05 0)
(0.0419862 8.56279e-05 0)
(0.0413564 8.17424e-05 0)
(0.0407416 8.23456e-05 0)
(0.0401456 7.76338e-05 0)
(0.0395779 7.17464e-05 0)
(0.0390294 7.03064e-05 0)
(0.0384996 6.69729e-05 0)
(0.0379883 6.31874e-05 0)
(0.0374932 6.19225e-05 0)
(0.0370078 6.09539e-05 0)
(0.0365441 5.59922e-05 0)
(0.0360996 5.29624e-05 0)
(0.0356701 5.15131e-05 0)
(0.0352492 4.97092e-05 0)
(0.0348426 4.73855e-05 0)
(0.0344415 4.74049e-05 0)
(0.0340529 4.52641e-05 0)
(0.0336735 4.34806e-05 0)
(0.0333093 4.13655e-05 0)
(0.0329518 4.03841e-05 0)
(0.0326084 3.79065e-05 0)
(0.0322692 3.76369e-05 0)
(0.0319409 3.62849e-05 0)
(0.0316144 3.60247e-05 0)
(0.0313044 3.29089e-05 0)
(0.0309953 3.33681e-05 0)
(0.0306979 3.15753e-05 0)
(0.0304004 3.18084e-05 0)
(0.0301126 2.99155e-05 0)
(0.0298304 3.00835e-05 0)
(0.0295472 2.85371e-05 0)
(0.0292884 2.76005e-05 0)
(0.0289902 2.92949e-05 0)
(0.0287786 2.32084e-05 0)
(0.0284303 3.17959e-05 0)
(0.0283272 1.26494e-05 0)
(0.0278792 3.97124e-05 0)
(0.191369 0.0110138 0)
(0.19353 0.0131754 0)
(0.194664 0.0146327 0)
(0.192151 0.0118322 0)
(0.186115 0.0088621 0)
(0.177884 0.00756679 0)
(0.169904 0.00623224 0)
(0.162052 0.00486755 0)
(0.154447 0.00375483 0)
(0.147451 0.00307707 0)
(0.141135 0.00265867 0)
(0.135364 0.00228659 0)
(0.13011 0.00192978 0)
(0.125404 0.00167064 0)
(0.121147 0.00151543 0)
(0.117171 0.00138258 0)
(0.11343 0.00125191 0)
(0.109984 0.00111949 0)
(0.106803 0.00101607 0)
(0.103838 0.000941903 0)
(0.101101 0.000849777 0)
(0.0985425 0.000776657 0)
(0.0961365 0.000731155 0)
(0.0938709 0.000680829 0)
(0.0917136 0.000638405 0)
(0.0896796 0.000596676 0)
(0.0877708 0.000545158 0)
(0.085963 0.000512341 0)
(0.084255 0.000484341 0)
(0.0826227 0.000452247 0)
(0.0810508 0.000435896 0)
(0.0795593 0.000408953 0)
(0.07814 0.000376531 0)
(0.0767776 0.000365422 0)
(0.0754702 0.000350257 0)
(0.074219 0.000324138 0)
(0.073023 0.000309118 0)
(0.0718723 0.000297387 0)
(0.0707725 0.000275099 0)
(0.0697145 0.000263124 0)
(0.068688 0.000258403 0)
(0.0676952 0.000244603 0)
(0.066743 0.000229656 0)
(0.0658229 0.000222635 0)
(0.0649354 0.000212297 0)
(0.0640764 0.000201889 0)
(0.0632451 0.000195818 0)
(0.0624345 0.000190134 0)
(0.0616566 0.000177645 0)
(0.0609062 0.00016938 0)
(0.060181 0.00016393 0)
(0.0594719 0.000158167 0)
(0.0587853 0.000151501 0)
(0.0581112 0.000149029 0)
(0.0574587 0.000142486 0)
(0.0568215 0.000137111 0)
(0.0562076 0.000131044 0)
(0.0556058 0.000127371 0)
(0.0550256 0.000120987 0)
(0.0544542 0.00011883 0)
(0.0539015 0.000114404 0)
(0.0533543 0.000112296 0)
(0.0528314 0.000105022 0)
(0.0523116 0.00010469 0)
(0.0518115 9.97072e-05 0)
(0.0513133 9.91057e-05 0)
(0.0508311 9.40368e-05 0)
(0.0503583 9.3498e-05 0)
(0.0498875 8.90927e-05 0)
(0.0494496 8.71458e-05 0)
(0.0489637 8.8132e-05 0)
(0.0485941 7.7346e-05 0)
(0.048041 9.09152e-05 0)
(0.0478292 5.7299e-05 0)
(0.0470999 0.000101096 0)
(0.191912 0.00940272 0)
(0.193816 0.0135346 0)
(0.197274 0.00964121 0)
(0.199849 0.014256 0)
(0.199698 0.0110982 0)
(0.197694 0.00787969 0)
(0.194637 0.00688123 0)
(0.190703 0.00632121 0)
(0.18617 0.00566886 0)
(0.181509 0.00505703 0)
(0.176958 0.00450257 0)
(0.172424 0.00397054 0)
(0.16788 0.0034554 0)
(0.163516 0.00305326 0)
(0.159425 0.00279961 0)
(0.155501 0.00258992 0)
(0.151656 0.00238408 0)
(0.147939 0.00216347 0)
(0.144382 0.00198002 0)
(0.140991 0.00183839 0)
(0.137806 0.00167127 0)
(0.134784 0.00153928 0)
(0.1319 0.00144986 0)
(0.129151 0.00135425 0)
(0.126499 0.00127287 0)
(0.123959 0.00119178 0)
(0.121551 0.00109733 0)
(0.119252 0.00103283 0)
(0.117067 0.000976439 0)
(0.11497 0.000916539 0)
(0.112935 0.000880391 0)
(0.110992 0.000827916 0)
(0.109131 0.000769426 0)
(0.107333 0.000742685 0)
(0.105604 0.000709713 0)
(0.103942 0.000662153 0)
(0.102345 0.000631596 0)
(0.100807 0.000606252 0)
(0.0993291 0.000566074 0)
(0.0978988 0.000541787 0)
(0.0965095 0.000528042 0)
(0.0951633 0.000501209 0)
(0.0938665 0.000473283 0)
(0.0926119 0.000457254 0)
(0.0913997 0.000436572 0)
(0.0902228 0.000416319 0)
(0.0890817 0.000402519 0)
(0.0879701 0.000389416 0)
(0.0868993 0.00036651 0)
(0.0858628 0.000350367 0)
(0.0848593 0.000338575 0)
(0.0838785 0.000326567 0)
(0.082927 0.000313346 0)
(0.0819941 0.000306419 0)
(0.0810899 0.000293434 0)
(0.0802062 0.000282553 0)
(0.0793523 0.000270669 0)
(0.0785158 0.000262615 0)
(0.0777067 0.000250574 0)
(0.076911 0.00024497 0)
(0.0761403 0.000235942 0)
(0.0753789 0.000230598 0)
(0.0746482 0.000217601 0)
(0.0739237 0.000215269 0)
(0.0732254 0.000205729 0)
(0.0725314 0.000203226 0)
(0.0718591 0.000193625 0)
(0.0711996 0.000191464 0)
(0.0705464 0.000182855 0)
(0.0699307 0.000179307 0)
(0.069267 0.000177985 0)
(0.0687335 0.000162798 0)
(0.0679941 0.000178274 0)
(0.0676596 0.000135063 0)
(0.066661 0.000186286 0)
(0.192664 0.00943395 0)
(0.194464 0.0103617 0)
(0.197259 0.013027 0)
(0.199562 0.0106668 0)
(0.20121 0.0116294 0)
(0.202425 0.0084097 0)
(0.201957 0.00795858 0)
(0.200712 0.00719344 0)
(0.198963 0.00625542 0)
(0.196908 0.00572499 0)
(0.194743 0.00537289 0)
(0.192344 0.00500455 0)
(0.189612 0.00456272 0)
(0.186766 0.00413835 0)
(0.183994 0.0038465 0)
(0.18124 0.00361558 0)
(0.17841 0.00340604 0)
(0.175491 0.0031615 0)
(0.172509 0.00294283 0)
(0.169533 0.00276589 0)
(0.166657 0.00254291 0)
(0.163874 0.00236444 0)
(0.161164 0.0022427 0)
(0.158523 0.00211182 0)
(0.155914 0.00200209 0)
(0.15335 0.00188889 0)
(0.150862 0.00175169 0)
(0.148453 0.00165514 0)
(0.146137 0.00156943 0)
(0.143892 0.00148039 0)
(0.14169 0.00142531 0)
(0.139563 0.001346 0)
(0.137505 0.00125951 0)
(0.135493 0.00121671 0)
(0.133536 0.00116355 0)
(0.13164 0.00109101 0)
(0.129808 0.00104222 0)
(0.128039 0.00100112 0)
(0.126329 0.000940823 0)
(0.124662 0.000902614 0)
(0.123029 0.000878136 0)
(0.121435 0.000835695 0)
(0.119891 0.00079201 0)
(0.118395 0.0007647 0)
(0.116945 0.000731553 0)
(0.115529 0.000699358 0)
(0.114149 0.000675755 0)
(0.112802 0.000653147 0)
(0.111499 0.000617545 0)
(0.110235 0.000591547 0)
(0.109007 0.000571663 0)
(0.107804 0.000551534 0)
(0.106632 0.000529944 0)
(0.105483 0.00051697 0)
(0.104366 0.000495823 0)
(0.103273 0.000477831 0)
(0.102214 0.000458583 0)
(0.101175 0.000444738 0)
(0.100167 0.000425548 0)
(0.0991741 0.000415148 0)
(0.0982103 0.000400162 0)
(0.0972583 0.000390322 0)
(0.0963418 0.000370117 0)
(0.0954343 0.00036471 0)
(0.0945569 0.000349364 0)
(0.0936858 0.000343965 0)
(0.0928404 0.000328584 0)
(0.0920099 0.000323875 0)
(0.0911906 0.000309832 0)
(0.0904096 0.000304027 0)
(0.089585 0.000298883 0)
(0.0888946 0.000279805 0)
(0.0879893 0.00029336 0)
(0.0875343 0.000246898 0)
(0.0862858 0.000296045 0)
(0.193559 0.00875671 0)
(0.194947 0.0103811 0)
(0.197178 0.0113703 0)
(0.199277 0.0101907 0)
(0.201113 0.0115454 0)
(0.202458 0.008633 0)
(0.202907 0.00727596 0)
(0.20281 0.00724945 0)
(0.20234 0.00689013 0)
(0.201718 0.00635863 0)
(0.201079 0.00590304 0)
(0.200207 0.00551997 0)
(0.19895 0.0051179 0)
(0.197551 0.00472167 0)
(0.196203 0.00445032 0)
(0.194833 0.00423196 0)
(0.193345 0.00406886 0)
(0.191665 0.00387156 0)
(0.189765 0.00367498 0)
(0.187716 0.00350399 0)
(0.185646 0.00325782 0)
(0.183605 0.00305753 0)
(0.181584 0.00292661 0)
(0.179561 0.00278294 0)
(0.177503 0.00266859 0)
(0.175406 0.0025495 0)
(0.173296 0.0023873 0)
(0.171203 0.00227061 0)
(0.169154 0.00216509 0)
(0.167133 0.00205326 0)
(0.165118 0.0019875 0)
(0.163144 0.00188802 0)
(0.16121 0.00177835 0)
(0.159294 0.00172687 0)
(0.15739 0.00165953 0)
(0.155506 0.00156394 0)
(0.153667 0.0014971 0)
(0.151885 0.00144025 0)
(0.150158 0.0013604 0)
(0.148464 0.00131104 0)
(0.146784 0.00127902 0)
(0.145114 0.00122199 0)
(0.143479 0.00116172 0)
(0.141888 0.00112232 0)
(0.140343 0.00107659 0)
(0.138823 0.00103284 0)
(0.137327 0.000999562 0)
(0.135854 0.000966693 0)
(0.134425 0.000916946 0)
(0.133035 0.000880162 0)
(0.13168 0.000851843 0)
(0.130344 0.000822997 0)
(0.129036 0.000792263 0)
(0.127746 0.000772458 0)
(0.126488 0.000742034 0)
(0.125254 0.000715859 0)
(0.124055 0.000688299 0)
(0.122877 0.000667932 0)
(0.121728 0.000640785 0)
(0.120593 0.000624879 0)
(0.119486 0.000603082 0)
(0.11839 0.000587846 0)
(0.117332 0.000559188 0)
(0.116284 0.000549972 0)
(0.115268 0.000527921 0)
(0.114257 0.000518959 0)
(0.113274 0.000496784 0)
(0.112306 0.000488839 0)
(0.111353 0.000468315 0)
(0.110435 0.000459903 0)
(0.10948 0.000449399 0)
(0.108656 0.00042754 0)
(0.107615 0.000434897 0)
(0.107055 0.000391647 0)
(0.105594 0.000430467 0)
(0.194334 0.0088491 0)
(0.195469 0.00979293 0)
(0.197277 0.0102062 0)
(0.199116 0.0108797 0)
(0.200823 0.00960298 0)
(0.20206 0.00866431 0)
(0.202881 0.00731672 0)
(0.202864 0.00721837 0)
(0.202645 0.0065583 0)
(0.202617 0.00621614 0)
(0.202636 0.00591838 0)
(0.202413 0.00568971 0)
(0.201845 0.00536025 0)
(0.201245 0.00494649 0)
(0.200789 0.00465794 0)
(0.200349 0.00444737 0)
(0.199846 0.00433529 0)
(0.19918 0.00422179 0)
(0.198263 0.00409717 0)
(0.19713 0.00396768 0)
(0.195902 0.0037217 0)
(0.194675 0.00351202 0)
(0.193466 0.00338679 0)
(0.192226 0.00325134 0)
(0.190922 0.00315043 0)
(0.189539 0.00304993 0)
(0.188072 0.00288769 0)
(0.186565 0.00277037 0)
(0.185055 0.00266191 0)
(0.183526 0.00253986 0)
(0.181965 0.00247505 0)
(0.180404 0.00236566 0)
(0.178859 0.00224078 0)
(0.177315 0.00219175 0)
(0.175741 0.00212438 0)
(0.174127 0.00201701 0)
(0.172509 0.0019379 0)
(0.170926 0.00186714 0)
(0.169394 0.00176832 0)
(0.167896 0.00171193 0)
(0.166396 0.0016808 0)
(0.164864 0.00161719 0)
(0.163323 0.00154393 0)
(0.16181 0.00149326 0)
(0.160339 0.00143603 0)
(0.158886 0.0013836 0)
(0.157436 0.00134459 0)
(0.155985 0.00130387 0)
(0.154561 0.00123993 0)
(0.153174 0.00119203 0)
(0.151823 0.00115628 0)
(0.150483 0.00112023 0)
(0.149156 0.00108181 0)
(0.147834 0.00105611 0)
(0.146534 0.00101648 0)
(0.145254 0.000981761 0)
(0.144007 0.00094556 0)
(0.142781 0.000918756 0)
(0.14158 0.000883944 0)
(0.140387 0.000863043 0)
(0.139213 0.000834744 0)
(0.138044 0.000813997 0)
(0.13691 0.00077613 0)
(0.135788 0.000762828 0)
(0.134695 0.000733813 0)
(0.133604 0.00072127 0)
(0.132538 0.000691771 0)
(0.131486 0.000680391 0)
(0.13045 0.000652644 0)
(0.129445 0.000641976 0)
(0.128405 0.00062462 0)
(0.127488 0.000601987 0)
(0.126357 0.000598788 0)
(0.125723 0.000564855 0)
(0.124109 0.000586934 0)
(0.194938 0.00770646 0)
(0.195967 0.00894022 0)
(0.197447 0.00982804 0)
(0.199022 0.00966341 0)
(0.200537 0.00991172 0)
(0.20178 0.00773177 0)
(0.202615 0.00757379 0)
(0.202666 0.00714163 0)
(0.202601 0.00657621 0)
(0.202655 0.00621327 0)
(0.20276 0.00591533 0)
(0.202689 0.00576461 0)
(0.202392 0.00544758 0)
(0.202116 0.00499739 0)
(0.202033 0.0047299 0)
(0.202005 0.0044878 0)
(0.201981 0.00439311 0)
(0.20186 0.00433169 0)
(0.201538 0.00427191 0)
(0.201015 0.0041987 0)
(0.200369 0.00397456 0)
(0.199724 0.00376168 0)
(0.199132 0.00363518 0)
(0.198523 0.00351246 0)
(0.197865 0.00343034 0)
(0.197139 0.00335715 0)
(0.196302 0.00320721 0)
(0.195397 0.0031028 0)
(0.19447 0.00300422 0)
(0.193499 0.00288362 0)
(0.192474 0.00283148 0)
(0.191418 0.00272073 0)
(0.190361 0.00258572 0)
(0.189311 0.00254622 0)
(0.18822 0.00249192 0)
(0.187041 0.00238965 0)
(0.185806 0.00231116 0)
(0.184565 0.00223173 0)
(0.183358 0.00211358 0)
(0.182201 0.00205022 0)
(0.181051 0.00202686 0)
(0.17984 0.00196963 0)
(0.178567 0.00189366 0)
(0.177285 0.00183599 0)
(0.176032 0.00176876 0)
(0.174797 0.00171041 0)
(0.173553 0.00167189 0)
(0.172277 0.00163013 0)
(0.170995 0.00155537 0)
(0.169737 0.00149655 0)
(0.168518 0.00145402 0)
(0.167309 0.00141323 0)
(0.166098 0.00137125 0)
(0.164871 0.0013434 0)
(0.163644 0.00129691 0)
(0.162424 0.00125455 0)
(0.16123 0.00120986 0)
(0.160058 0.00117696 0)
(0.158908 0.00113553 0)
(0.157759 0.0011115 0)
(0.156616 0.00107881 0)
(0.155464 0.0010539 0)
(0.154338 0.00100697 0)
(0.153221 0.000989799 0)
(0.15213 0.000954258 0)
(0.151036 0.000938988 0)
(0.14996 0.00090236 0)
(0.148893 0.000888044 0)
(0.147842 0.000852704 0)
(0.146814 0.000841019 0)
(0.145752 0.00081568 0)
(0.144801 0.000795093 0)
(0.14364 0.00077769 0)
(0.142974 0.000758073 0)
(0.141293 0.000759726 0)
(0.195245 0.00807243 0)
(0.19629 0.00878834 0)
(0.197657 0.00932693 0)
(0.199047 0.00918447 0)
(0.200385 0.00961554 0)
(0.201577 0.00755737 0)
(0.202232 0.00744432 0)
(0.202511 0.00683212 0)
(0.202495 0.00661266 0)
(0.202536 0.0062354 0)
(0.202638 0.00590335 0)
(0.202624 0.00578541 0)
(0.202447 0.00555054 0)
(0.202262 0.00502496 0)
(0.20224 0.00474842 0)
(0.202315 0.00445703 0)
(0.202463 0.00436848 0)
(0.202543 0.00435725 0)
(0.202471 0.00435203 0)
(0.202249 0.00431743 0)
(0.201902 0.00409078 0)
(0.201548 0.003872 0)
(0.201289 0.00374207 0)
(0.201056 0.00362459 0)
(0.200807 0.00355302 0)
(0.20052 0.00350938 0)
(0.200123 0.00337348 0)
(0.199658 0.00328582 0)
(0.199178 0.00320266 0)
(0.198657 0.00308645 0)
(0.198082 0.00305332 0)
(0.197464 0.00294649 0)
(0.196836 0.0028004 0)
(0.196235 0.00277061 0)
(0.195605 0.00273443 0)
(0.194879 0.00264821 0)
(0.194068 0.00258571 0)
(0.193211 0.00250789 0)
(0.192359 0.00237073 0)
(0.19157 0.00229575 0)
(0.190819 0.00227942 0)
(0.190007 0.00223843 0)
(0.1891 0.00217304 0)
(0.188141 0.00211622 0)
(0.187188 0.00204162 0)
(0.186255 0.00197873 0)
(0.185318 0.00194549 0)
(0.184329 0.00191092 0)
(0.183295 0.00183273 0)
(0.18226 0.00176555 0)
(0.181261 0.00171595 0)
(0.180281 0.00167095 0)
(0.179296 0.00162984 0)
(0.17828 0.00160594 0)
(0.177235 0.00155798 0)
(0.176171 0.00151111 0)
(0.17512 0.00145898 0)
(0.174088 0.00142011 0)
(0.173081 0.00137269 0)
(0.172076 0.00134773 0)
(0.171062 0.00131432 0)
(0.170023 0.00128844 0)
(0.168991 0.0012341 0)
(0.167963 0.00121386 0)
(0.166956 0.0011728 0)
(0.165939 0.00115648 0)
(0.164931 0.0011137 0)
(0.163925 0.00109768 0)
(0.162931 0.00105479 0)
(0.161953 0.00104396 0)
(0.160943 0.00101035 0)
(0.160024 0.000994903 0)
(0.158904 0.000961346 0)
(0.158256 0.000959127 0)
(0.156609 0.000940023 0)
(0.195506 0.00688387 0)
(0.196644 0.00808841 0)
(0.197956 0.00851235 0)
(0.199151 0.00906749 0)
(0.200351 0.00889234 0)
(0.201349 0.00747129 0)
(0.201942 0.00736396 0)
(0.202366 0.00662653 0)
(0.202319 0.00647099 0)
(0.202325 0.00626529 0)
(0.202477 0.00595643 0)
(0.202524 0.00585765 0)
(0.202419 0.00562039 0)
(0.202282 0.00505689 0)
(0.202254 0.00473794 0)
(0.202338 0.0044115 0)
(0.20249 0.00431657 0)
(0.202608 0.00434797 0)
(0.202615 0.00436559 0)
(0.20251 0.00438257 0)
(0.202279 0.00420721 0)
(0.202034 0.00393114 0)
(0.201911 0.00378371 0)
(0.201856 0.00364453 0)
(0.201807 0.00357434 0)
(0.201743 0.00356811 0)
(0.201578 0.00345053 0)
(0.201353 0.00337281 0)
(0.201132 0.00330164 0)
(0.200889 0.00318801 0)
(0.200609 0.00317402 0)
(0.200287 0.00307577 0)
(0.199952 0.00291448 0)
(0.199659 0.00288655 0)
(0.199361 0.00286862 0)
(0.198982 0.00280006 0)
(0.198525 0.002757 0)
(0.198003 0.00269289 0)
(0.197459 0.00254299 0)
(0.196977 0.00245081 0)
(0.196562 0.00243405 0)
(0.196112 0.00241077 0)
(0.195561 0.00236575 0)
(0.194933 0.0023189 0)
(0.194287 0.00223913 0)
(0.193662 0.0021706 0)
(0.193045 0.00214528 0)
(0.192377 0.00212453 0)
(0.191637 0.0020509 0)
(0.190865 0.00197995 0)
(0.190119 0.00192354 0)
(0.189404 0.00187226 0)
(0.188696 0.00183355 0)
(0.187956 0.00181893 0)
(0.187165 0.00177705 0)
(0.186326 0.00173136 0)
(0.185477 0.00167435 0)
(0.18464 0.00162957 0)
(0.183832 0.00157555 0)
(0.183035 0.00155062 0)
(0.182226 0.0015203 0)
(0.181375 0.00149786 0)
(0.18051 0.00143941 0)
(0.179639 0.00141761 0)
(0.178783 0.0013724 0)
(0.177912 0.00135723 0)
(0.177039 0.00131 0)
(0.176159 0.00129395 0)
(0.175289 0.001244 0)
(0.174429 0.00123575 0)
(0.173535 0.00119478 0)
(0.172713 0.00118716 0)
(0.171705 0.00113777 0)
(0.171122 0.00115355 0)
(0.169613 0.00111679 0)
(0.195916 0.00677071 0)
(0.197006 0.00767087 0)
(0.198176 0.00824382 0)
(0.199239 0.00860207 0)
(0.200309 0.00842596 0)
(0.201162 0.00776932 0)
(0.201695 0.00630189 0)
(0.202011 0.00785444 0)
(0.202231 0.00609879 0)
(0.202239 0.00588588 0)
(0.202359 0.00580811 0)
(0.202396 0.00582852 0)
(0.202337 0.00560822 0)
(0.202267 0.00507507 0)
(0.202244 0.00474117 0)
(0.202312 0.00437373 0)
(0.202438 0.00425592 0)
(0.202547 0.00431975 0)
(0.202586 0.00438327 0)
(0.202505 0.00441668 0)
(0.202308 0.00424694 0)
(0.202099 0.00397728 0)
(0.202024 0.00377389 0)
(0.20203 0.00368266 0)
(0.202068 0.00358431 0)
(0.20209 0.00358279 0)
(0.202013 0.00348558 0)
(0.20189 0.00341698 0)
(0.201786 0.00334709 0)
(0.201679 0.00323 0)
(0.201555 0.00322743 0)
(0.201395 0.00314143 0)
(0.201221 0.00297166 0)
(0.201095 0.00293612 0)
(0.200977 0.00292599 0)
(0.200801 0.00287974 0)
(0.200578 0.0028532 0)
(0.200299 0.00279757 0)
(0.19998 0.00264338 0)
(0.199709 0.002537 0)
(0.19952 0.00251278 0)
(0.199321 0.00250211 0)
(0.199038 0.00247838 0)
(0.198676 0.00244889 0)
(0.198285 0.00236866 0)
(0.197914 0.00228945 0)
(0.197565 0.00226896 0)
(0.197176 0.00226657 0)
(0.196706 0.00220596 0)
(0.196185 0.00213573 0)
(0.195675 0.00207249 0)
(0.195202 0.00201129 0)
(0.194755 0.00197338 0)
(0.194287 0.00196915 0)
(0.193764 0.00193958 0)
(0.193175 0.0019029 0)
(0.19255 0.00184575 0)
(0.191921 0.00179546 0)
(0.191324 0.00173287 0)
(0.190752 0.00170665 0)
(0.190176 0.00168175 0)
(0.189551 0.00166679 0)
(0.188893 0.00160861 0)
(0.188219 0.00158733 0)
(0.187553 0.00153935 0)
(0.186869 0.00152737 0)
(0.186173 0.001478 0)
(0.185463 0.00146366 0)
(0.184758 0.00140761 0)
(0.18406 0.00140273 0)
(0.183332 0.0013561 0)
(0.182656 0.00135804 0)
(0.181812 0.00129574 0)
(0.181332 0.00132714 0)
(0.180044 0.00127856 0)
(0.19636 0.00660343 0)
(0.197324 0.00718471 0)
(0.198305 0.00785666 0)
(0.199297 0.008033 0)
(0.200232 0.0082643 0)
(0.20102 0.0074371 0)
(0.201506 0.00661032 0)
(0.201727 0.00698489 0)
(0.201997 0.00627314 0)
(0.202215 0.00583456 0)
(0.202292 0.00591715 0)
(0.202283 0.00589468 0)
(0.202251 0.00560874 0)
(0.202213 0.00512301 0)
(0.202214 0.00470034 0)
(0.202281 0.00430132 0)
(0.202369 0.00423989 0)
(0.202453 0.0043109 0)
(0.2025 0.00439234 0)
(0.202439 0.00445585 0)
(0.202276 0.00431957 0)
(0.202099 0.0040532 0)
(0.202017 0.00378587 0)
(0.202029 0.00365637 0)
(0.202105 0.00355732 0)
(0.202152 0.00358548 0)
(0.202092 0.00349329 0)
(0.202001 0.00345284 0)
(0.201941 0.00337294 0)
(0.20189 0.003256 0)
(0.201838 0.00325961 0)
(0.201753 0.0031705 0)
(0.201652 0.00299575 0)
(0.201595 0.00296562 0)
(0.201548 0.00295249 0)
(0.201464 0.00290747 0)
(0.201362 0.00290792 0)
(0.201231 0.00286224 0)
(0.201061 0.00268886 0)
(0.200917 0.00257258 0)
(0.200848 0.00254443 0)
(0.200783 0.00254269 0)
(0.200656 0.00253549 0)
(0.200467 0.00251974 0)
(0.200251 0.00244362 0)
(0.200058 0.00235658 0)
(0.199896 0.00233419 0)
(0.199705 0.0023446 0)
(0.199436 0.00230279 0)
(0.199112 0.00224118 0)
(0.198789 0.0021729 0)
(0.198505 0.00209685 0)
(0.19826 0.00205658 0)
(0.19801 0.00206008 0)
(0.197714 0.00204339 0)
(0.19735 0.00202109 0)
(0.196932 0.00197123 0)
(0.196494 0.00191826 0)
(0.196082 0.00184471 0)
(0.195711 0.00181338 0)
(0.19535 0.00179396 0)
(0.194943 0.00178854 0)
(0.194492 0.00173445 0)
(0.194016 0.00171595 0)
(0.193545 0.00166682 0)
(0.193057 0.00165915 0)
(0.192547 0.00160986 0)
(0.192019 0.00159876 0)
(0.191491 0.00153782 0)
(0.19097 0.00153609 0)
(0.190425 0.00148589 0)
(0.189917 0.0014967 0)
(0.189265 0.00142731 0)
(0.188904 0.00146955 0)
(0.187889 0.00141596 0)
(0.196745 0.00623326 0)
(0.197587 0.00681491 0)
(0.198423 0.00724965 0)
(0.199307 0.00801686 0)
(0.200219 0.0076541 0)
(0.200854 0.00735451 0)
(0.201314 0.00664542 0)
(0.201565 0.00667123 0)
(0.201809 0.006232 0)
(0.202098 0.00580958 0)
(0.202211 0.00581097 0)
(0.202206 0.00585896 0)
(0.202188 0.0056666 0)
(0.202139 0.0051169 0)
(0.202158 0.00473601 0)
(0.202244 0.00431768 0)
(0.202302 0.00420619 0)
(0.202355 0.00427366 0)
(0.2024 0.00439225 0)
(0.202353 0.00448793 0)
(0.202224 0.00438608 0)
(0.202076 0.0040738 0)
(0.201996 0.00380425 0)
(0.202012 0.00364073 0)
(0.202097 0.00354102 0)
(0.202134 0.00360545 0)
(0.202074 0.00349204 0)
(0.201993 0.00348024 0)
(0.201947 0.00338905 0)
(0.201915 0.00325492 0)
(0.20189 0.00328152 0)
(0.201838 0.00319474 0)
(0.201765 0.00300677 0)
(0.201727 0.00297072 0)
(0.201697 0.00297658 0)
(0.201642 0.00292908 0)
(0.201596 0.00292263 0)
(0.201544 0.00289396 0)
(0.201457 0.00273905 0)
(0.201385 0.00258606 0)
(0.201371 0.00254644 0)
(0.201354 0.00255459 0)
(0.201292 0.00255965 0)
(0.201192 0.00255854 0)
(0.20108 0.0024738 0)
(0.200995 0.00238318 0)
(0.200942 0.00236698 0)
(0.200865 0.00238615 0)
(0.200721 0.00235456 0)
(0.200529 0.00230133 0)
(0.200335 0.00223327 0)
(0.200177 0.00214286 0)
(0.200064 0.00209857 0)
(0.199959 0.00210702 0)
(0.199821 0.00210211 0)
(0.199625 0.00209215 0)
(0.199373 0.00205297 0)
(0.199086 0.0020027 0)
(0.198816 0.00191933 0)
(0.198597 0.00187861 0)
(0.198403 0.00186244 0)
(0.198172 0.00186674 0)
(0.197893 0.00181885 0)
(0.197588 0.00180361 0)
(0.197286 0.0017548 0)
(0.19697 0.00175245 0)
(0.19663 0.00170488 0)
(0.196267 0.00169782 0)
(0.1959 0.00163353 0)
(0.195541 0.00163248 0)
(0.195169 0.00158254 0)
(0.194822 0.00159851 0)
(0.194359 0.00152763 0)
(0.194114 0.00157641 0)
(0.193378 0.0015241 0)
(0.197092 0.00593697 0)
(0.197827 0.00642446 0)
(0.198531 0.0071516 0)
(0.199343 0.00708705 0)
(0.200132 0.00824449 0)
(0.200734 0.00633835 0)
(0.201115 0.00706854 0)
(0.201428 0.00640499 0)
(0.201673 0.00610748 0)
(0.201967 0.00571424 0)
(0.202133 0.00572399 0)
(0.202138 0.00584315 0)
(0.202114 0.00563352 0)
(0.202053 0.00515383 0)
(0.202091 0.00474372 0)
(0.202208 0.00419728 0)
(0.202251 0.00419937 0)
(0.20228 0.00426984 0)
(0.202299 0.00438482 0)
(0.202248 0.00450968 0)
(0.202152 0.00440256 0)
(0.202049 0.00413701 0)
(0.20198 0.0038028 0)
(0.201995 0.00362796 0)
(0.202071 0.00352865 0)
(0.202088 0.00359823 0)
(0.20203 0.00351107 0)
(0.201962 0.00349276 0)
(0.20192 0.00341619 0)
(0.201894 0.00326184 0)
(0.20188 0.00327355 0)
(0.201833 0.00322824 0)
(0.201769 0.00303126 0)
(0.201737 0.002987 0)
(0.201706 0.00297138 0)
(0.20166 0.00293923 0)
(0.20164 0.00291992 0)
(0.20162 0.00291381 0)
(0.201581 0.00275102 0)
(0.201554 0.00259702 0)
(0.201546 0.00254418 0)
(0.201529 0.00257253 0)
(0.201485 0.0025795 0)
(0.201428 0.00257917 0)
(0.201371 0.00250735 0)
(0.201341 0.00237783 0)
(0.201339 0.0023683 0)
(0.201312 0.00240647 0)
(0.201231 0.00239112 0)
(0.20112 0.00234376 0)
(0.201009 0.00226491 0)
(0.200925 0.00216021 0)
(0.200885 0.00211134 0)
(0.200856 0.00212228 0)
(0.200807 0.00212957 0)
(0.200718 0.00213289 0)
(0.20058 0.00210279 0)
(0.200402 0.00205502 0)
(0.200228 0.00196309 0)
(0.200108 0.00191314 0)
(0.200025 0.00189846 0)
(0.199914 0.00191085 0)
(0.199758 0.00187144 0)
(0.199575 0.0018582 0)
(0.1994 0.00180872 0)
(0.199219 0.00181159 0)
(0.199012 0.00176866 0)
(0.19878 0.00176471 0)
(0.198539 0.00170034 0)
(0.198309 0.0016951 0)
(0.198077 0.00164774 0)
(0.197865 0.00166757 0)
(0.197564 0.001597 0)
(0.197415 0.00164755 0)
(0.196927 0.00160257 0)
(0.197435 0.00566152 0)
(0.198036 0.00623726 0)
(0.198647 0.00661176 0)
(0.199328 0.00706907 0)
(0.200026 0.00766617 0)
(0.200624 0.00634355 0)
(0.200961 0.00693053 0)
(0.201264 0.00650834 0)
(0.201602 0.00561627 0)
(0.201883 0.0058821 0)
(0.202029 0.00562936 0)
(0.202032 0.00579277 0)
(0.202032 0.00562985 0)
(0.201976 0.00515655 0)
(0.202035 0.0046844 0)
(0.202186 0.00425185 0)
(0.202204 0.00411824 0)
(0.202198 0.004304 0)
(0.202192 0.00441212 0)
(0.202133 0.00455095 0)
(0.202068 0.00444834 0)
(0.20202 0.00413582 0)
(0.201965 0.00382753 0)
(0.20197 0.00361433 0)
(0.202034 0.00350181 0)
(0.202038 0.00362053 0)
(0.20198 0.00350504 0)
(0.20192 0.00356988 0)
(0.201885 0.00338999 0)
(0.201857 0.00329659 0)
(0.201843 0.00327069 0)
(0.201808 0.00322177 0)
(0.201749 0.00306306 0)
(0.201711 0.00299762 0)
(0.201679 0.00299628 0)
(0.201648 0.00293567 0)
(0.201639 0.00294111 0)
(0.201623 0.00290291 0)
(0.201612 0.00274936 0)
(0.201603 0.00261066 0)
(0.20158 0.00256023 0)
(0.201549 0.00257331 0)
(0.201513 0.00259091 0)
(0.201482 0.00259632 0)
(0.201447 0.00249076 0)
(0.201435 0.00239523 0)
(0.201446 0.0023795 0)
(0.201435 0.00241491 0)
(0.201387 0.00240563 0)
(0.201327 0.00235655 0)
(0.201265 0.00229815 0)
(0.201214 0.00216557 0)
(0.201208 0.00212127 0)
(0.201209 0.00212547 0)
(0.2012 0.00213617 0)
(0.201166 0.00215288 0)
(0.201098 0.0021337 0)
(0.200992 0.00209419 0)
(0.200879 0.00198912 0)
(0.200816 0.00192485 0)
(0.200795 0.00191205 0)
(0.200753 0.00193055 0)
(0.20067 0.00190104 0)
(0.200563 0.00189028 0)
(0.20047 0.00183918 0)
(0.20038 0.00184386 0)
(0.200265 0.00180777 0)
(0.200126 0.00180749 0)
(0.199974 0.00174394 0)
(0.199832 0.0017345 0)
(0.199699 0.0016864 0)
(0.199584 0.00170824 0)
(0.199406 0.00164475 0)
(0.199326 0.00168847 0)
(0.19903 0.00165378 0)
(0.197749 0.0054817 0)
(0.198234 0.00589193 0)
(0.198731 0.00643115 0)
(0.199309 0.00662633 0)
(0.199922 0.00748817 0)
(0.200527 0.00621222 0)
(0.200834 0.00668064 0)
(0.201126 0.00643009 0)
(0.20154 0.0056243 0)
(0.201875 0.00565507 0)
(0.201884 0.00565933 0)
(0.201865 0.00575641 0)
(0.201928 0.00568106 0)
(0.201934 0.00512444 0)
(0.20201 0.00463058 0)
(0.202156 0.00419168 0)
(0.202145 0.0041537 0)
(0.202091 0.00425419 0)
(0.202078 0.00444511 0)
(0.202035 0.0045585 0)
(0.201999 0.00443523 0)
(0.201989 0.00417557 0)
(0.201936 0.00382081 0)
(0.20193 0.00360247 0)
(0.201993 0.00350118 0)
(0.201993 0.00361356 0)
(0.201923 0.00355156 0)
(0.201871 0.00354434 0)
(0.201844 0.00344337 0)
(0.201812 0.00327492 0)
(0.201798 0.0032919 0)
(0.201771 0.00326105 0)
(0.201717 0.00304592 0)
(0.201678 0.00300364 0)
(0.201653 0.0030085 0)
(0.201636 0.00294172 0)
(0.201622 0.00294356 0)
(0.201609 0.00293954 0)
(0.201612 0.0027289 0)
(0.201599 0.00261015 0)
(0.201565 0.00256056 0)
(0.201526 0.00258699 0)
(0.201499 0.00259682 0)
(0.201484 0.00260228 0)
(0.201453 0.00251377 0)
(0.201433 0.00238553 0)
(0.201442 0.00237683 0)
(0.201436 0.00241533 0)
(0.20141 0.00242327 0)
(0.201384 0.00238317 0)
(0.201343 0.00230903 0)
(0.201304 0.00216363 0)
(0.201304 0.00212036 0)
(0.201316 0.00212488 0)
(0.201322 0.00214084 0)
(0.201312 0.00215835 0)
(0.201281 0.00215111 0)
(0.20122 0.00211321 0)
(0.201141 0.00201018 0)
(0.20111 0.001927 0)
(0.201116 0.00191764 0)
(0.201105 0.00194061 0)
(0.201059 0.00191684 0)
(0.200993 0.00190704 0)
(0.200947 0.00185471 0)
(0.200911 0.00186112 0)
(0.200853 0.00182833 0)
(0.200771 0.00183427 0)
(0.200675 0.00177135 0)
(0.200586 0.001756 0)
(0.200515 0.0017109 0)
(0.200463 0.0017267 0)
(0.200365 0.00167121 0)
(0.200328 0.00171176 0)
(0.200165 0.00168599 0)
(0.198035 0.00535196 0)