/*--------------------------------*- C++ -*----------------------------------*\
| =========                 |                                                 |
| \\      /  F ield         | OpenFOAM: The Open Source CFD Toolbox           |
|  \\    /   O peration     | Version:  2.3.0                                 |
|   \\  /    A nd           | Web:      www.OpenFOAM.org                      |
|    \\/     M anipulation  |                                                 |
\*---------------------------------------------------------------------------*/
FoamFile
{
    version     2.0;
    format      ascii;
    class       volVectorField;
    location    "0.85";
    object      U_0;
}
// * * * * * * * * * * * * * * * * * * * * * * * * * * * * * * * * * * * * * //

dimensions      [0 1 -1 0 0 0 0];

internalField   nonuniform List<vector> 
2945
(
(0.160261 0.00667549 0)
(0.120515 0.00663438 0)
(0.088927 0.00463535 0)
(0.0663804 0.00265699 0)
(0.0520557 0.000931718 0)
(0.0433907 0.000288392 0)
(0.0381957 0.000139979 0)
(0.0347202 8.17697e-05 0)
(0.0323399 5.37493e-05 0)
(0.0305314 6.9279e-05 0)
(0.0289265 8.67395e-05 0)
(0.0274677 8.08901e-05 0)
(0.0262262 6.43729e-05 0)
(0.025174 5.54706e-05 0)
(0.02422 5.39211e-05 0)
(0.0233261 5.01954e-05 0)
(0.0225043 4.63602e-05 0)
(0.021764 4.03232e-05 0)
(0.0210915 3.64499e-05 0)
(0.0204636 3.59096e-05 0)
(0.019887 2.9935e-05 0)
(0.0193667 2.58453e-05 0)
(0.0188809 2.64501e-05 0)
(0.0184156 2.4785e-05 0)
(0.017973 2.395e-05 0)
(0.0175538 2.27141e-05 0)
(0.0171668 1.8791e-05 0)
(0.016809 1.80925e-05 0)
(0.016468 1.74568e-05 0)
(0.0161449 1.53842e-05 0)
(0.0158334 1.64298e-05 0)
(0.0155323 1.50884e-05 0)
(0.0152548 1.22798e-05 0)
(0.0149901 1.34959e-05 0)
(0.0147262 1.35629e-05 0)
(0.0144773 1.13261e-05 0)
(0.0142442 1.11384e-05 0)
(0.014016 1.12204e-05 0)
(0.0138019 9.1413e-06 0)
(0.0136015 8.84526e-06 0)
(0.0134012 9.8708e-06 0)
(0.0132039 9.03201e-06 0)
(0.0130196 7.8666e-06 0)
(0.0128419 8.09742e-06 0)
(0.0126688 7.63956e-06 0)
(0.0125032 7.01302e-06 0)
(0.0123422 7.22222e-06 0)
(0.0121811 7.42955e-06 0)
(0.012028 6.36837e-06 0)
(0.0118841 5.87217e-06 0)
(0.0117453 5.83546e-06 0)
(0.0116086 5.6048e-06 0)
(0.0114773 5.27374e-06 0)
(0.0113462 5.6334e-06 0)
(0.0112177 5.33438e-06 0)
(0.0110926 5.0803e-06 0)
(0.0109733 4.76563e-06 0)
(0.010856 4.70929e-06 0)
(0.0107442 4.22655e-06 0)
(0.0106336 4.39213e-06 0)
(0.0105256 4.26523e-06 0)
(0.0104171 4.37393e-06 0)
(0.0103153 3.65786e-06 0)
(0.0102141 3.9602e-06 0)
(0.010116 3.67236e-06 0)
(0.0100173 3.8554e-06 0)
(0.00992158 3.51938e-06 0)
(0.00982764 3.66726e-06 0)
(0.00973255 3.42007e-06 0)
(0.00964781 3.16668e-06 0)
(0.00954487 3.95635e-06 0)
(0.00947824 2.11173e-06 0)
(0.00935468 4.80108e-06 0)
(0.00933246 -6.27829e-07 0)
(0.00917646 7.68839e-06 0)
(0.191494 0.0122787 0)
(0.183857 0.014227 0)
(0.171777 0.0114422 0)
(0.1563 0.00943863 0)
(0.141348 0.00647008 0)
(0.127803 0.00385244 0)
(0.116529 0.00242737 0)
(0.107067 0.00163009 0)
(0.0994202 0.00116666 0)
(0.0932868 0.000963414 0)
(0.0881553 0.000852944 0)
(0.0837354 0.00072533 0)
(0.0799541 0.000598738 0)
(0.0766887 0.000522545 0)
(0.0737535 0.000484476 0)
(0.0710388 0.000442511 0)
(0.0685502 0.000400179 0)
(0.0663076 0.00035545 0)
(0.0642579 0.00032306 0)
(0.0623587 0.000303144 0)
(0.0606184 0.000268903 0)
(0.0590081 0.000243304 0)
(0.0575019 0.000232643 0)
(0.0560832 0.000216646 0)
(0.0547396 0.000204236 0)
(0.0534801 0.000191063 0)
(0.0523041 0.000171122 0)
(0.0511974 0.00016181 0)
(0.0501517 0.000153403 0)
(0.0491545 0.00014166 0)
(0.0481974 0.000139267 0)
(0.0472885 0.000129746 0)
(0.0464301 0.000116863 0)
(0.0456075 0.000116346 0)
(0.0448127 0.000112232 0)
(0.0440571 0.00010162 0)
(0.0433387 9.76514e-05 0)
(0.0426454 9.46255e-05 0)
(0.0419873 8.53413e-05 0)
(0.041357 8.20994e-05 0)
(0.0407413 8.25856e-05 0)
(0.0401454 7.73993e-05 0)
(0.0395782 7.16772e-05 0)
(0.0390297 7.03733e-05 0)
(0.0384999 6.68877e-05 0)
(0.0379885 6.32572e-05 0)
(0.0374929 6.21143e-05 0)
(0.0370075 6.08806e-05 0)
(0.0365445 5.5784e-05 0)
(0.0361004 5.29561e-05 0)
(0.0356708 5.15306e-05 0)
(0.0352499 4.96881e-05 0)
(0.034843 4.74788e-05 0)
(0.0344417 4.74818e-05 0)
(0.034053 4.52165e-05 0)
(0.033674 4.34329e-05 0)
(0.03331 4.13464e-05 0)
(0.0329526 4.0332e-05 0)
(0.0326093 3.78894e-05 0)
(0.03227 3.77079e-05 0)
(0.0319414 3.63212e-05 0)
(0.0316152 3.59521e-05 0)
(0.0313054 3.28611e-05 0)
(0.0309964 3.33967e-05 0)
(0.0306989 3.15941e-05 0)
(0.0304014 3.17992e-05 0)
(0.0301137 2.99055e-05 0)
(0.0298316 3.00604e-05 0)
(0.0295486 2.85091e-05 0)
(0.0292898 2.76131e-05 0)
(0.0289917 2.92916e-05 0)
(0.0287803 2.31629e-05 0)
(0.0284321 3.18152e-05 0)
(0.0283289 1.26736e-05 0)
(0.027881 3.96895e-05 0)
(0.19135 0.0109796 0)
(0.19351 0.0132404 0)
(0.194745 0.0146666 0)
(0.192146 0.0116217 0)
(0.185992 0.00887168 0)
(0.177874 0.00766995 0)
(0.16999 0.00626876 0)
(0.162076 0.00485483 0)
(0.154439 0.00373832 0)
(0.147445 0.00308046 0)
(0.14113 0.00266456 0)
(0.135355 0.00228201 0)
(0.130109 0.00192318 0)
(0.125415 0.00167217 0)
(0.121158 0.00152081 0)
(0.117169 0.0013844 0)
(0.113424 0.00125143 0)
(0.10998 0.001118 0)
(0.106801 0.00101622 0)
(0.103838 0.000941431 0)
(0.101103 0.000847968 0)
(0.0985446 0.000777157 0)
(0.0961376 0.000732539 0)
(0.0938699 0.000681116 0)
(0.0917116 0.000638693 0)
(0.0896795 0.000595708 0)
(0.0877721 0.000544288 0)
(0.0859647 0.00051294 0)
(0.0842566 0.000484318 0)
(0.0826228 0.000452529 0)
(0.0810504 0.000436404 0)
(0.0795599 0.000408067 0)
(0.0781405 0.000376571 0)
(0.0767774 0.000366426 0)
(0.0754699 0.000349916 0)
(0.0742191 0.000323653 0)
(0.0730233 0.000309435 0)
(0.071873 0.00029702 0)
(0.0707735 0.000274661 0)
(0.0697151 0.000263774 0)
(0.0686878 0.000258784 0)
(0.0676951 0.000244184 0)
(0.0667433 0.000229552 0)
(0.0658233 0.000222747 0)
(0.0649358 0.000212152 0)
(0.0640767 0.000202022 0)
(0.063245 0.000196122 0)
(0.0624345 0.000189962 0)
(0.0616572 0.000177275 0)
(0.0609072 0.000169384 0)
(0.060182 0.000163971 0)
(0.0594727 0.000158146 0)
(0.0587859 0.000151669 0)
(0.0581116 0.000149143 0)
(0.0574592 0.00014238 0)
(0.0568222 0.000137017 0)
(0.0562085 0.000131002 0)
(0.055607 0.000127279 0)
(0.0550269 0.000120961 0)
(0.0544554 0.000118948 0)
(0.0539025 0.000114448 0)
(0.0533556 0.000112154 0)
(0.052833 0.00010494 0)
(0.0523132 0.000104735 0)
(0.0518131 9.97275e-05 0)
(0.0513149 9.90774e-05 0)
(0.0508329 9.40034e-05 0)
(0.0503603 9.34429e-05 0)
(0.0498896 8.90352e-05 0)
(0.0494519 8.71549e-05 0)
(0.0489661 8.8107e-05 0)
(0.0485968 7.72569e-05 0)
(0.0480437 9.0944e-05 0)
(0.0478319 5.73179e-05 0)
(0.047103 0.000101035 0)
(0.191885 0.00944261 0)
(0.193825 0.0134073 0)
(0.197345 0.00952153 0)
(0.19974 0.0150909 0)
(0.199638 0.0106501 0)
(0.197744 0.00767437 0)
(0.194708 0.00690602 0)
(0.190711 0.00637521 0)
(0.18615 0.00569444 0)
(0.181504 0.00506898 0)
(0.176964 0.00450411 0)
(0.172418 0.00395907 0)
(0.16787 0.00344185 0)
(0.163521 0.00305228 0)
(0.159441 0.0028075 0)
(0.155509 0.00259443 0)
(0.151654 0.00238483 0)
(0.147932 0.00216147 0)
(0.144375 0.00197986 0)
(0.140989 0.0018372 0)
(0.137809 0.00166844 0)
(0.134787 0.00154018 0)
(0.131902 0.00145204 0)
(0.129151 0.00135478 0)
(0.126496 0.00127331 0)
(0.123958 0.00119017 0)
(0.121551 0.00109595 0)
(0.119254 0.00103368 0)
(0.11707 0.000976453 0)
(0.11497 0.000917082 0)
(0.112935 0.000881137 0)
(0.110993 0.000826587 0)
(0.109132 0.00076953 0)
(0.107332 0.00074411 0)
(0.105603 0.000709159 0)
(0.103942 0.000661456 0)
(0.102346 0.000632074 0)
(0.100809 0.000605733 0)
(0.0993304 0.000565478 0)
(0.0978994 0.000542765 0)
(0.0965092 0.000528583 0)
(0.0951631 0.000500582 0)
(0.0938667 0.00047313 0)
(0.0926124 0.000457413 0)
(0.0914002 0.000436356 0)
(0.0902231 0.000416513 0)
(0.0890817 0.000402944 0)
(0.0879702 0.000389139 0)
(0.0869001 0.00036596 0)
(0.085864 0.000350383 0)
(0.0848605 0.000338639 0)
(0.0838795 0.000326541 0)
(0.0829278 0.000313594 0)
(0.0819946 0.00030657 0)
(0.0810906 0.000293263 0)
(0.0802072 0.000282406 0)
(0.0793535 0.000270601 0)
(0.0785172 0.000262477 0)
(0.0777082 0.000250531 0)
(0.0769124 0.000245135 0)
(0.0761416 0.000235991 0)
(0.0753804 0.000230376 0)
(0.0746501 0.000217476 0)
(0.0739257 0.000215326 0)
(0.0732273 0.000205747 0)
(0.0725335 0.00020317 0)
(0.0718614 0.000193558 0)
(0.0712021 0.000191368 0)
(0.0705492 0.000182758 0)
(0.0699336 0.000179303 0)
(0.0692701 0.000177928 0)
(0.0687368 0.00016265 0)
(0.0679977 0.000178302 0)
(0.0676632 0.000135063 0)
(0.066665 0.000186176 0)
(0.192637 0.00942896 0)
(0.194503 0.0102785 0)
(0.197226 0.0131261 0)
(0.199497 0.0104499 0)
(0.201275 0.0117533 0)
(0.202487 0.00841823 0)
(0.201961 0.00798808 0)
(0.200704 0.00716869 0)
(0.198945 0.00622373 0)
(0.196904 0.00573149 0)
(0.194751 0.0053875 0)
(0.192336 0.00500477 0)
(0.189592 0.00455073 0)
(0.186765 0.00413269 0)
(0.184013 0.00385271 0)
(0.18126 0.0036215 0)
(0.17842 0.00340972 0)
(0.175486 0.00316037 0)
(0.172496 0.00294255 0)
(0.169524 0.00276341 0)
(0.166656 0.00253821 0)
(0.163878 0.00236531 0)
(0.161168 0.00224579 0)
(0.158524 0.00211292 0)
(0.155912 0.00200319 0)
(0.153347 0.0018867 0)
(0.15086 0.00174948 0)
(0.148454 0.00165607 0)
(0.14614 0.00156933 0)
(0.143893 0.00148123 0)
(0.141691 0.0014264 0)
(0.139565 0.00134419 0)
(0.137506 0.00125977 0)
(0.135493 0.00121865 0)
(0.133535 0.00116267 0)
(0.131639 0.00108997 0)
(0.129809 0.00104283 0)
(0.128041 0.00100047 0)
(0.126331 0.000940133 0)
(0.124662 0.000904025 0)
(0.123028 0.000878873 0)
(0.121434 0.00083481 0)
(0.119892 0.00079177 0)
(0.118396 0.000764913 0)
(0.116946 0.000731279 0)
(0.115529 0.00069963 0)
(0.114149 0.000676299 0)
(0.112802 0.000652741 0)
(0.1115 0.000616793 0)
(0.110236 0.000591581 0)
(0.109008 0.000571753 0)
(0.107805 0.000551496 0)
(0.106633 0.000530272 0)
(0.105483 0.000517157 0)
(0.104367 0.00049558 0)
(0.103274 0.000477627 0)
(0.102215 0.000458491 0)
(0.101177 0.00044455 0)
(0.100168 0.000425481 0)
(0.0991757 0.000415363 0)
(0.0982117 0.000400212 0)
(0.0972601 0.000390005 0)
(0.0963439 0.000369938 0)
(0.0954366 0.000364778 0)
(0.0945592 0.000349379 0)
(0.0936881 0.000343877 0)
(0.0928429 0.000328474 0)
(0.0920128 0.000323731 0)
(0.0911938 0.000309687 0)
(0.0904129 0.000304002 0)
(0.0895885 0.000298786 0)
(0.0888984 0.000279585 0)
(0.0879934 0.00029338 0)
(0.0875385 0.000246866 0)
(0.0862905 0.000295875 0)
(0.193532 0.00876186 0)
(0.194956 0.0103648 0)
(0.197148 0.0113292 0)
(0.199263 0.0103763 0)
(0.201176 0.0115348 0)
(0.202496 0.00847507 0)
(0.202923 0.00733587 0)
(0.202808 0.00732199 0)
(0.202317 0.00691417 0)
(0.201715 0.00635312 0)
(0.201085 0.00590037 0)
(0.200188 0.00551449 0)
(0.198917 0.00510154 0)
(0.197545 0.00471131 0)
(0.196226 0.00445472 0)
(0.194862 0.00423775 0)
(0.193369 0.00407747 0)
(0.191668 0.00387486 0)
(0.189749 0.00367627 0)
(0.187698 0.00350005 0)
(0.185637 0.00325001 0)
(0.183607 0.00305727 0)
(0.181591 0.0029303 0)
(0.179566 0.00278454 0)
(0.177503 0.00267105 0)
(0.175403 0.00254741 0)
(0.173293 0.00238421 0)
(0.171202 0.00227137 0)
(0.169155 0.00216459 0)
(0.167133 0.00205422 0)
(0.165119 0.0019889 0)
(0.163146 0.00188562 0)
(0.161213 0.00177893 0)
(0.159294 0.00172974 0)
(0.157387 0.00165843 0)
(0.155503 0.00156231 0)
(0.153667 0.00149753 0)
(0.151888 0.00143923 0)
(0.150163 0.00135965 0)
(0.148468 0.00131318 0)
(0.146784 0.00128018 0)
(0.145113 0.00122082 0)
(0.143478 0.00116125 0)
(0.141889 0.00112252 0)
(0.140345 0.00107631 0)
(0.138824 0.00103329 0)
(0.137326 0.00100025 0)
(0.135854 0.000966085 0)
(0.134426 0.000915917 0)
(0.133037 0.000880227 0)
(0.131681 0.000851999 0)
(0.130345 0.000822968 0)
(0.129036 0.000792679 0)
(0.127746 0.000772664 0)
(0.126488 0.000741687 0)
(0.125255 0.000715581 0)
(0.124057 0.000688185 0)
(0.122879 0.000667707 0)
(0.12173 0.000640706 0)
(0.120595 0.000625159 0)
(0.119487 0.000603133 0)
(0.118392 0.00058741 0)
(0.117334 0.000558937 0)
(0.116287 0.000550052 0)
(0.11527 0.000527938 0)
(0.11426 0.000518833 0)
(0.113277 0.000496621 0)
(0.112309 0.000488639 0)
(0.111356 0.000468119 0)
(0.110439 0.000459854 0)
(0.109484 0.000449257 0)
(0.10866 0.000427233 0)
(0.107619 0.000434907 0)
(0.10706 0.000391574 0)
(0.105599 0.000430226 0)
(0.194321 0.0087727 0)
(0.195452 0.0096953 0)
(0.197245 0.0102329 0)
(0.199112 0.0109622 0)
(0.200864 0.00948902 0)
(0.202097 0.00866136 0)
(0.202894 0.00734916 0)
(0.202854 0.00722997 0)
(0.202635 0.00652417 0)
(0.202636 0.00622533 0)
(0.202645 0.00594643 0)
(0.202381 0.00569793 0)
(0.201797 0.00534144 0)
(0.201237 0.00492632 0)
(0.200814 0.00465306 0)
(0.200382 0.00444881 0)
(0.199881 0.00434855 0)
(0.199193 0.00423314 0)
(0.198249 0.00410373 0)
(0.197105 0.00396339 0)
(0.195884 0.00370925 0)
(0.194674 0.00350861 0)
(0.193473 0.00339054 0)
(0.192232 0.00325301 0)
(0.190927 0.00315431 0)
(0.189539 0.00304873 0)
(0.188068 0.0028842 0)
(0.186562 0.00277107 0)
(0.185055 0.00266095 0)
(0.183525 0.00254078 0)
(0.181964 0.00247651 0)
(0.180406 0.00236217 0)
(0.178864 0.00224146 0)
(0.177319 0.00219607 0)
(0.17574 0.00212374 0)
(0.174121 0.00201497 0)
(0.172505 0.00193775 0)
(0.170927 0.00186507 0)
(0.1694 0.00176705 0)
(0.167904 0.001715 0)
(0.166399 0.00168297 0)
(0.164862 0.00161604 0)
(0.163321 0.00154309 0)
(0.16181 0.00149319 0)
(0.160341 0.00143565 0)
(0.158887 0.00138444 0)
(0.157434 0.00134561 0)
(0.155983 0.00130301 0)
(0.15456 0.00123841 0)
(0.153176 0.00119201 0)
(0.151826 0.00115654 0)
(0.150485 0.00112032 0)
(0.149156 0.0010824 0)
(0.147834 0.00105634 0)
(0.146534 0.00101596 0)
(0.145255 0.000981333 0)
(0.144009 0.000945384 0)
(0.142784 0.000918498 0)
(0.141582 0.000883891 0)
(0.140388 0.000863449 0)
(0.139214 0.000834815 0)
(0.138045 0.000813409 0)
(0.136912 0.000775769 0)
(0.13579 0.000762917 0)
(0.134697 0.000733849 0)
(0.133606 0.00072111 0)
(0.132541 0.000691543 0)
(0.131489 0.000680129 0)
(0.130453 0.000652395 0)
(0.129448 0.00064191 0)
(0.128408 0.000624433 0)
(0.127492 0.00060158 0)
(0.126361 0.00059879 0)
(0.125727 0.000564739 0)
(0.124114 0.000586616 0)
(0.194923 0.0077657 0)
(0.195944 0.00893676 0)
(0.19741 0.00983685 0)
(0.199012 0.0097304 0)
(0.200573 0.00986419 0)
(0.201818 0.00765373 0)
(0.20262 0.00765525 0)
(0.202654 0.00717206 0)
(0.202606 0.00656944 0)
(0.202667 0.0062073 0)
(0.202761 0.00593702 0)
(0.202657 0.00577847 0)
(0.202347 0.00541867 0)
(0.202107 0.00495885 0)
(0.202058 0.00472821 0)
(0.202039 0.00449091 0)
(0.20202 0.00440938 0)
(0.201878 0.0043486 0)
(0.201529 0.00428451 0)
(0.200989 0.0041973 0)
(0.200344 0.00395915 0)
(0.199718 0.00375383 0)
(0.199138 0.00363815 0)
(0.198529 0.00351357 0)
(0.197873 0.00343547 0)
(0.197142 0.00335724 0)
(0.196298 0.00320371 0)
(0.195394 0.00310362 0)
(0.19447 0.00300293 0)
(0.193497 0.00288466 0)
(0.19247 0.00283301 0)
(0.191417 0.00271554 0)
(0.190366 0.00258574 0)
(0.189319 0.002552 0)
(0.188221 0.00249265 0)
(0.187035 0.00238813 0)
(0.185798 0.00231058 0)
(0.184561 0.00222783 0)
(0.183363 0.00211071 0)
(0.182212 0.00205374 0)
(0.181059 0.00203056 0)
(0.17984 0.00196932 0)
(0.178563 0.00189273 0)
(0.177283 0.00183532 0)
(0.176034 0.00176791 0)
(0.1748 0.0017117 0)
(0.173553 0.00167363 0)
(0.172274 0.00162926 0)
(0.170992 0.00155317 0)
(0.169738 0.00149612 0)
(0.168521 0.00145425 0)
(0.167312 0.00141356 0)
(0.166099 0.00137225 0)
(0.16487 0.0013438 0)
(0.163643 0.00129621 0)
(0.162423 0.00125385 0)
(0.161232 0.00120947 0)
(0.160061 0.0011766 0)
(0.158911 0.00113553 0)
(0.157761 0.00111216 0)
(0.156616 0.001079 0)
(0.155465 0.00105315 0)
(0.154339 0.00100644 0)
(0.153224 0.000989865 0)
(0.152133 0.000954332 0)
(0.151038 0.000938807 0)
(0.149962 0.000902051 0)
(0.148896 0.000887702 0)
(0.147845 0.000852401 0)
(0.146817 0.000840952 0)
(0.145756 0.000815461 0)
(0.144805 0.000794576 0)
(0.143644 0.00077769 0)
(0.142978 0.000757922 0)
(0.141298 0.000759332 0)
(0.195246 0.00800402 0)
(0.196293 0.00873926 0)
(0.197635 0.00930234 0)
(0.199036 0.00924467 0)
(0.200415 0.00955802 0)
(0.201602 0.00748446 0)
(0.202228 0.00750504 0)
(0.202512 0.00685827 0)
(0.202503 0.00660836 0)
(0.202539 0.00623726 0)
(0.202636 0.00593306 0)
(0.202602 0.00580321 0)
(0.202413 0.00552262 0)
(0.20225 0.0049872 0)
(0.202252 0.00473621 0)
(0.202348 0.00444663 0)
(0.202505 0.00438804 0)
(0.202558 0.00438421 0)
(0.202466 0.00437115 0)
(0.202226 0.00431768 0)
(0.201873 0.00407119 0)
(0.201536 0.00386002 0)
(0.201293 0.00374488 0)
(0.201063 0.00362391 0)
(0.200818 0.00355861 0)
(0.200526 0.00351099 0)
(0.20012 0.00337038 0)
(0.199654 0.00328714 0)
(0.199177 0.0032012 0)
(0.198654 0.00308778 0)
(0.198077 0.00305522 0)
(0.19746 0.00293928 0)
(0.19684 0.00279883 0)
(0.196244 0.00277727 0)
(0.19561 0.00273682 0)
(0.194874 0.00264834 0)
(0.194058 0.00258577 0)
(0.193201 0.00250206 0)
(0.192359 0.002365 0)
(0.191582 0.00229849 0)
(0.190832 0.00228452 0)
(0.190012 0.00223982 0)
(0.189097 0.00217277 0)
(0.188137 0.00211496 0)
(0.187189 0.00203979 0)
(0.18626 0.00198023 0)
(0.18532 0.00194823 0)
(0.184326 0.00191056 0)
(0.18329 0.00182997 0)
(0.182258 0.00176431 0)
(0.181264 0.00171565 0)
(0.180286 0.00167141 0)
(0.1793 0.00163153 0)
(0.17828 0.00160686 0)
(0.177233 0.0015573 0)
(0.176168 0.00151007 0)
(0.175119 0.00145816 0)
(0.174091 0.00141939 0)
(0.173086 0.00137265 0)
(0.172079 0.00134877 0)
(0.171064 0.0013148 0)
(0.170023 0.00128762 0)
(0.168992 0.00123335 0)
(0.167965 0.00121384 0)
(0.166958 0.00117293 0)
(0.165941 0.0011563 0)
(0.164932 0.0011133 0)
(0.163927 0.00109722 0)
(0.162934 0.00105441 0)
(0.161957 0.00104391 0)
(0.160946 0.00101013 0)
(0.160027 0.000994271 0)
(0.158908 0.000961352 0)
(0.15826 0.000958961 0)
(0.156613 0.000939564 0)
(0.195545 0.00687264 0)
(0.196676 0.00807937 0)
(0.197948 0.00852042 0)
(0.199141 0.0091311 0)
(0.200364 0.00880408 0)
(0.201349 0.00744551 0)
(0.20194 0.00741367 0)
(0.202367 0.00663889 0)
(0.202318 0.0064777 0)
(0.202329 0.00627046 0)
(0.202484 0.00597293 0)
(0.202509 0.00589152 0)
(0.202395 0.00558843 0)
(0.202265 0.00500806 0)
(0.202261 0.00471738 0)
(0.20237 0.00439924 0)
(0.202526 0.0043415 0)
(0.202622 0.00437818 0)
(0.202615 0.00439126 0)
(0.20249 0.00439136 0)
(0.202247 0.00418753 0)
(0.202019 0.00391096 0)
(0.201915 0.00378012 0)
(0.201864 0.00364193 0)
(0.20182 0.00358215 0)
(0.201751 0.00357311 0)
(0.201575 0.00344839 0)
(0.201349 0.00337451 0)
(0.201131 0.0033 0)
(0.200887 0.00318991 0)
(0.200604 0.0031769 0)
(0.200281 0.00306669 0)
(0.199954 0.00291056 0)
(0.199669 0.00289348 0)
(0.199367 0.00287257 0)
(0.19898 0.00280197 0)
(0.198516 0.00275868 0)
(0.197992 0.00268615 0)
(0.197454 0.00253388 0)
(0.196986 0.00245136 0)
(0.196578 0.00243978 0)
(0.19612 0.00241424 0)
(0.19556 0.00236704 0)
(0.194929 0.00231742 0)
(0.194286 0.00223586 0)
(0.193666 0.00217192 0)
(0.193049 0.00214909 0)
(0.192375 0.00212523 0)
(0.19163 0.00204801 0)
(0.19086 0.00197777 0)
(0.190121 0.00192211 0)
(0.18941 0.00187237 0)
(0.188703 0.00183597 0)
(0.187958 0.00182081 0)
(0.187162 0.00177685 0)
(0.186322 0.00173017 0)
(0.185474 0.00167292 0)
(0.18464 0.00162813 0)
(0.183836 0.00157515 0)
(0.18304 0.00155205 0)
(0.182228 0.00152128 0)
(0.181375 0.00149716 0)
(0.18051 0.00143847 0)
(0.17964 0.00141744 0)
(0.178785 0.00137256 0)
(0.177913 0.00135709 0)
(0.177039 0.0013095 0)
(0.176161 0.00129333 0)
(0.175292 0.00124349 0)
(0.174432 0.00123572 0)
(0.173538 0.00119461 0)
(0.172716 0.00118641 0)
(0.171708 0.00113779 0)
(0.171125 0.0011534 0)
(0.169616 0.00111629 0)
(0.195972 0.00676209 0)
(0.197049 0.00765622 0)
(0.198177 0.00826097 0)
(0.199232 0.00863203 0)
(0.200309 0.00838283 0)
(0.201148 0.0076756 0)
(0.201673 0.00640678 0)
(0.202015 0.00791147 0)
(0.202244 0.00604045 0)
(0.202248 0.00587823 0)
(0.202361 0.00584933 0)
(0.202382 0.00586212 0)
(0.202324 0.00557613 0)
(0.202251 0.00501936 0)
(0.202246 0.00472382 0)
(0.20234 0.00435364 0)
(0.202466 0.00428061 0)
(0.202564 0.00436124 0)
(0.202584 0.00441058 0)
(0.202486 0.0044279 0)
(0.202276 0.00422528 0)
(0.202082 0.00394691 0)
(0.202029 0.00378071 0)
(0.20204 0.00367516 0)
(0.202085 0.0035896 0)
(0.202098 0.00359036 0)
(0.202009 0.00348502 0)
(0.201884 0.00341884 0)
(0.201785 0.0033445 0)
(0.201678 0.0032319 0)
(0.201552 0.00323152 0)
(0.201389 0.00313155 0)
(0.201221 0.00296536 0)
(0.201103 0.00294241 0)
(0.200981 0.00293129 0)
(0.200801 0.00288373 0)
(0.200572 0.00285616 0)
(0.200289 0.00279048 0)
(0.199973 0.00263177 0)
(0.199715 0.00253475 0)
(0.199534 0.00251821 0)
(0.199331 0.00250741 0)
(0.199038 0.00248177 0)
(0.198671 0.00244792 0)
(0.198283 0.00236372 0)
(0.197918 0.00228994 0)
(0.19757 0.00227367 0)
(0.197176 0.00226895 0)
(0.196699 0.00220354 0)
(0.196177 0.00213269 0)
(0.195674 0.00206943 0)
(0.195208 0.00201042 0)
(0.194763 0.00197622 0)
(0.194292 0.00197217 0)
(0.193763 0.00194046 0)
(0.19317 0.00190208 0)
(0.192544 0.00184377 0)
(0.191919 0.00179295 0)
(0.191327 0.00173161 0)
(0.190759 0.0017083 0)
(0.19018 0.00168338 0)
(0.189551 0.00166648 0)
(0.188892 0.0016076 0)
(0.188219 0.00158696 0)
(0.187554 0.00153956 0)
(0.18687 0.00152732 0)
(0.186173 0.00147742 0)
(0.185464 0.00146284 0)
(0.18476 0.00140689 0)
(0.184063 0.00140267 0)
(0.183335 0.00135602 0)
(0.182658 0.00135722 0)
(0.181814 0.00129575 0)
(0.181334 0.00132703 0)
(0.180047 0.00127806 0)
(0.19642 0.00658302 0)
(0.197358 0.00716955 0)
(0.198309 0.00787098 0)
(0.199293 0.00807752 0)
(0.200229 0.00822349 0)
(0.201001 0.00736731 0)
(0.201471 0.00667963 0)
(0.201726 0.00701568 0)
(0.20203 0.00624761 0)
(0.202234 0.00585113 0)
(0.202281 0.00595904 0)
(0.202271 0.00591753 0)
(0.202242 0.00557366 0)
(0.2022 0.00510008 0)
(0.202217 0.00463269 0)
(0.202304 0.0042843 0)
(0.202389 0.00427095 0)
(0.202467 0.00435459 0)
(0.202501 0.00442513 0)
(0.202423 0.00447294 0)
(0.20225 0.00430166 0)
(0.202081 0.00401847 0)
(0.202018 0.00378224 0)
(0.202042 0.00364448 0)
(0.202124 0.00356567 0)
(0.202158 0.00359643 0)
(0.202086 0.00349467 0)
(0.201995 0.00345515 0)
(0.20194 0.00336961 0)
(0.201891 0.00325836 0)
(0.201836 0.00326426 0)
(0.201748 0.00315971 0)
(0.20165 0.00298845 0)
(0.201599 0.00297186 0)
(0.20155 0.00295745 0)
(0.201463 0.00291277 0)
(0.201359 0.00291337 0)
(0.201225 0.00285433 0)
(0.201055 0.00267447 0)
(0.200921 0.00256866 0)
(0.20086 0.00254938 0)
(0.200791 0.00254944 0)
(0.200657 0.00254063 0)
(0.200463 0.00251943 0)
(0.200249 0.00243744 0)
(0.200063 0.00235607 0)
(0.199902 0.00233908 0)
(0.199706 0.00234869 0)
(0.19943 0.0023017 0)
(0.199103 0.00223786 0)
(0.198786 0.00216795 0)
(0.198509 0.0020944 0)
(0.198268 0.00205939 0)
(0.198017 0.00206405 0)
(0.197716 0.00204561 0)
(0.197345 0.0020213 0)
(0.196924 0.00196919 0)
(0.196488 0.00191454 0)
(0.196083 0.00184204 0)
(0.195718 0.00181492 0)
(0.195355 0.0017962 0)
(0.194944 0.00178883 0)
(0.194491 0.00173355 0)
(0.194016 0.00171542 0)
(0.193546 0.00166707 0)
(0.193057 0.00165923 0)
(0.192546 0.00160926 0)
(0.192019 0.00159773 0)
(0.191492 0.00153678 0)
(0.190972 0.00153591 0)
(0.190428 0.00148591 0)
(0.189919 0.00149585 0)
(0.189267 0.00142734 0)
(0.188907 0.0014695 0)
(0.187891 0.0014155 0)
(0.19679 0.00621417 0)
(0.197613 0.00679909 0)
(0.198428 0.0072913 0)
(0.199311 0.00805577 0)
(0.200216 0.00759645 0)
(0.200825 0.00732789 0)
(0.20128 0.00668138 0)
(0.201565 0.00669205 0)
(0.201837 0.00621763 0)
(0.202121 0.00582082 0)
(0.202202 0.00584743 0)
(0.202198 0.00589529 0)
(0.202175 0.00563575 0)
(0.202127 0.00507291 0)
(0.202166 0.00468766 0)
(0.202262 0.00429603 0)
(0.202314 0.00423276 0)
(0.202365 0.00432093 0)
(0.202401 0.0044303 0)
(0.202342 0.00451028 0)
(0.202204 0.00436714 0)
(0.202059 0.00403372 0)
(0.201995 0.0037986 0)
(0.202026 0.00362418 0)
(0.202116 0.00355293 0)
(0.202139 0.00361954 0)
(0.202067 0.00349315 0)
(0.201987 0.00348311 0)
(0.201946 0.00338331 0)
(0.201916 0.00325791 0)
(0.20189 0.00328812 0)
(0.201833 0.00318279 0)
(0.201762 0.00299764 0)
(0.201729 0.00297777 0)
(0.201696 0.00298306 0)
(0.201641 0.00293396 0)
(0.201596 0.00292798 0)
(0.201542 0.00288768 0)
(0.201454 0.00272431 0)
(0.201388 0.00257786 0)
(0.20138 0.00255176 0)
(0.201359 0.00256241 0)
(0.201291 0.00256655 0)
(0.201189 0.00255838 0)
(0.20108 0.00246594 0)
(0.201 0.00238281 0)
(0.200948 0.00237236 0)
(0.200866 0.00239138 0)
(0.200715 0.00235419 0)
(0.200521 0.00229802 0)
(0.200331 0.00222681 0)
(0.20018 0.00213883 0)
(0.200073 0.0021011 0)
(0.199966 0.00211176 0)
(0.199824 0.00210556 0)
(0.199623 0.00209354 0)
(0.199366 0.00205141 0)
(0.199079 0.00199811 0)
(0.198815 0.0019149 0)
(0.198603 0.00187966 0)
(0.198409 0.00186513 0)
(0.198174 0.00186776 0)
(0.197893 0.00181817 0)
(0.197587 0.00180292 0)
(0.197287 0.00175515 0)
(0.19697 0.00175274 0)
(0.196629 0.00170435 0)
(0.196266 0.00169661 0)
(0.195899 0.00163206 0)
(0.195543 0.00163209 0)
(0.195171 0.00158264 0)
(0.194824 0.00159761 0)
(0.194361 0.00152772 0)
(0.194117 0.00157647 0)
(0.19338 0.00152372 0)
(0.197122 0.0059135 0)
(0.197847 0.00643524 0)
(0.198537 0.00716316 0)
(0.199348 0.00716099 0)
(0.200127 0.00819281 0)
(0.200703 0.00627967 0)
(0.201084 0.00715748 0)
(0.201429 0.00637861 0)
(0.2017 0.00609097 0)
(0.201989 0.0057302 0)
(0.20213 0.00577749 0)
(0.202131 0.0058743 0)
(0.202096 0.00559991 0)
(0.202041 0.0051141 0)
(0.202105 0.00468089 0)
(0.202226 0.00417729 0)
(0.202257 0.00423283 0)
(0.202285 0.00431806 0)
(0.202296 0.00442199 0)
(0.202239 0.00453349 0)
(0.20214 0.00438647 0)
(0.202036 0.00409619 0)
(0.201978 0.00378825 0)
(0.202008 0.00361188 0)
(0.202087 0.00354227 0)
(0.202092 0.00361375 0)
(0.202023 0.00351416 0)
(0.201957 0.00349596 0)
(0.201918 0.00340913 0)
(0.201896 0.00326339 0)
(0.20188 0.00328187 0)
(0.201829 0.00321868 0)
(0.201766 0.00302039 0)
(0.201737 0.00299308 0)
(0.201704 0.00297676 0)
(0.201659 0.00294392 0)
(0.201642 0.00292589 0)
(0.201621 0.00290832 0)
(0.201581 0.00273435 0)
(0.201557 0.00258817 0)
(0.20155 0.00255003 0)
(0.20153 0.00258252 0)
(0.201483 0.00258675 0)
(0.201425 0.00257973 0)
(0.201371 0.00249731 0)
(0.201347 0.00237534 0)
(0.201344 0.00237485 0)
(0.201312 0.00241427 0)
(0.201226 0.0023923 0)
(0.201114 0.00233995 0)
(0.201006 0.00225609 0)
(0.200928 0.00215481 0)
(0.200892 0.00211337 0)
(0.200862 0.00212767 0)
(0.20081 0.00213431 0)
(0.200716 0.00213558 0)
(0.200574 0.00210176 0)
(0.200395 0.0020497 0)
(0.200226 0.0019569 0)
(0.200113 0.00191367 0)
(0.200031 0.00190138 0)
(0.199917 0.00191269 0)
(0.199757 0.00187109 0)
(0.199575 0.00185723 0)
(0.199401 0.00180914 0)
(0.199219 0.0018122 0)
(0.19901 0.00176831 0)
(0.198778 0.00176342 0)
(0.198538 0.00169839 0)
(0.19831 0.00169429 0)
(0.198079 0.00164796 0)
(0.197867 0.00166662 0)
(0.197565 0.00159703 0)
(0.197418 0.00164778 0)
(0.196928 0.00160234 0)
(0.197461 0.00563441 0)
(0.198049 0.00623801 0)
(0.198649 0.00663548 0)
(0.19933 0.00714649 0)
(0.200022 0.00760179 0)
(0.200597 0.00632245 0)
(0.200932 0.00699327 0)
(0.201269 0.00646158 0)
(0.201634 0.00558809 0)
(0.201901 0.00591889 0)
(0.202022 0.00568249 0)
(0.202027 0.00582678 0)
(0.202014 0.00559898 0)
(0.201965 0.00510716 0)
(0.202056 0.00462175 0)
(0.202199 0.00422764 0)
(0.202204 0.00415063 0)
(0.202197 0.00435877 0)
(0.202185 0.00445707 0)
(0.202125 0.00457568 0)
(0.202064 0.00443064 0)
(0.202012 0.0040943 0)
(0.201964 0.00381101 0)
(0.201981 0.00359297 0)
(0.202046 0.00351 0)
(0.202041 0.00364744 0)
(0.201975 0.00350967 0)
(0.201916 0.00357238 0)
(0.201884 0.00337988 0)
(0.201858 0.00329976 0)
(0.201844 0.00327694 0)
(0.201804 0.00321321 0)
(0.201745 0.00305389 0)
(0.20171 0.00300322 0)
(0.201678 0.00300153 0)
(0.201649 0.00294057 0)
(0.20164 0.00294633 0)
(0.201627 0.00289678 0)
(0.201616 0.00273453 0)
(0.201604 0.0026025 0)
(0.20158 0.00256426 0)
(0.201548 0.00258267 0)
(0.201512 0.00259913 0)
(0.201481 0.0025954 0)
(0.201447 0.00247807 0)
(0.201439 0.0023972 0)
(0.20145 0.0023851 0)
(0.201435 0.00242313 0)
(0.201383 0.00240662 0)
(0.201323 0.00235332 0)
(0.201262 0.00228894 0)
(0.201216 0.00215705 0)
(0.201214 0.0021246 0)
(0.201214 0.00213078 0)
(0.201203 0.00214187 0)
(0.201166 0.00215704 0)
(0.201094 0.0021338 0)
(0.200985 0.00208866 0)
(0.200877 0.00198088 0)
(0.20082 0.00192419 0)
(0.2008 0.00191533 0)
(0.200755 0.00193322 0)
(0.200669 0.00190117 0)
(0.200563 0.00188901 0)
(0.200472 0.00183951 0)
(0.200381 0.00184474 0)
(0.200264 0.00180782 0)
(0.200123 0.00180625 0)
(0.199972 0.00174156 0)
(0.199832 0.00173315 0)
(0.199702 0.00168649 0)
(0.199587 0.00170749 0)
(0.199407 0.00164469 0)
(0.199329 0.00168867 0)
(0.199031 0.00165372 0)
(0.19777 0.00545927 0)
(0.198235 0.00589724 0)
(0.198726 0.00645448 0)
(0.199309 0.0066955 0)
(0.199921 0.00745047 0)
(0.200508 0.00617629 0)
(0.200811 0.00673782 0)
(0.201134 0.00638799 0)
(0.201578 0.00559482 0)
(0.201878 0.00568963 0)
(0.20187 0.00570827 0)
(0.201859 0.00580141 0)
(0.201921 0.00566781 0)
(0.201935 0.00504608 0)
(0.202032 0.00457024 0)
(0.202164 0.00417675 0)
(0.202135 0.0041864 0)
(0.202083 0.00431446 0)
(0.202074 0.00448106 0)
(0.202031 0.00458257 0)
(0.202 0.00441515 0)
(0.201983 0.00413971 0)
(0.201935 0.00380115 0)
(0.201941 0.00357711 0)
(0.202003 0.00351252 0)
(0.201993 0.00363924 0)
(0.201917 0.00355737 0)
(0.201868 0.00354631 0)
(0.201843 0.0034341 0)
(0.201813 0.00327519 0)
(0.201799 0.00330202 0)
(0.201768 0.00325288 0)
(0.201713 0.00303363 0)
(0.201678 0.00300952 0)
(0.201654 0.00301328 0)
(0.201637 0.00294596 0)
(0.201624 0.00295054 0)
(0.201613 0.00292117 0)
(0.201615 0.00272367 0)
(0.201598 0.00260194 0)
(0.201563 0.00256596 0)
(0.201524 0.0025973 0)
(0.201499 0.00260427 0)
(0.201484 0.00260256 0)
(0.201451 0.00250154 0)
(0.201435 0.00238365 0)
(0.201445 0.00238329 0)
(0.201436 0.00242475 0)
(0.201409 0.00242613 0)
(0.201382 0.00238009 0)
(0.201341 0.00229764 0)
(0.201305 0.002157 0)
(0.201308 0.00212078 0)
(0.201321 0.00213115 0)
(0.201324 0.00214649 0)
(0.201312 0.00216314 0)
(0.201279 0.00215207 0)
(0.201215 0.00210779 0)
(0.201138 0.00199946 0)
(0.201114 0.00192701 0)
(0.201121 0.00192079 0)
(0.201107 0.00194396 0)
(0.201057 0.00191723 0)
(0.200992 0.0019054 0)
(0.200949 0.00185503 0)
(0.200912 0.0018622 0)
(0.200852 0.00182872 0)
(0.200768 0.00183332 0)
(0.200672 0.00176842 0)
(0.200586 0.00175417 0)
(0.200517 0.00171079 0)
(0.200465 0.00172582 0)
(0.200367 0.00167123 0)
(0.20033 0.00171226 0)
(0.200166 0.001686 0)
(0.198046 0.00533852 0)
(0.198407 0.0056185 0)