/*--------------------------------*- C++ -*----------------------------------*\
| =========                 |                                                 |
| \\      /  F ield         | OpenFOAM: The Open Source CFD Toolbox           |
|  \\    /   O peration     | Version:  2.3.0                                 |
|   \\  /    A nd           | Web:      www.OpenFOAM.org                      |
|    \\/     M anipulation  |                                                 |
\*---------------------------------------------------------------------------*/
FoamFile
{
    version     2.0;
    format      ascii;
    class       surfaceScalarField;
    location    "0.65";
    object      phi;
}
// * * * * * * * * * * * * * * * * * * * * * * * * * * * * * * * * * * * * * //

dimensions      [0 3 -1 0 0 0 0];

internalField   nonuniform List<scalar> 
3859
(
2.88217e-08
2.7703e-09
-3.1592e-08
2.53568e-08
3.46487e-09
2.19152e-08
3.44163e-09
1.87278e-08
3.18739e-09
1.58269e-08
2.90086e-09
1.32907e-08
2.53625e-09
1.1213e-08
2.07767e-09
9.60803e-09
1.60498e-09
8.43791e-09
1.17013e-09
7.61678e-09
8.21126e-10
7.04656e-09
5.70219e-10
6.64298e-09
4.03584e-10
6.34378e-09
2.992e-10
6.1064e-09
2.37381e-10
5.9026e-09
2.03797e-10
5.71612e-09
1.86477e-10
5.53948e-09
1.76641e-10
5.37036e-09
1.69123e-10
5.20881e-09
1.61547e-10
5.05561e-09
1.53205e-10
4.91142e-09
1.44187e-10
4.77655e-09
1.3487e-10
4.6509e-09
1.25649e-10
4.53407e-09
1.16836e-10
4.42544e-09
1.08631e-10
4.3243e-09
1.01133e-10
4.22994e-09
9.43652e-11
4.14163e-09
8.8305e-11
4.05874e-09
8.28962e-11
3.98067e-09
7.80675e-11
3.90692e-09
7.37435e-11
3.83707e-09
6.98534e-11
3.77074e-09
6.63336e-11
3.70761e-09
6.31307e-11
3.64741e-09
6.01975e-11
3.58991e-09
5.74981e-11
3.53491e-09
5.49989e-11
3.48224e-09
5.26777e-11
3.43172e-09
5.05115e-11
3.38324e-09
4.84874e-11
3.33665e-09
4.65893e-11
3.29184e-09
4.48092e-11
3.2487e-09
4.31344e-11
3.20714e-09
4.15599e-11
3.16707e-09
4.00761e-11
3.12839e-09
3.8679e-11
3.09103e-09
3.73604e-11
3.05491e-09
3.61156e-11
3.01997e-09
3.49384e-11
2.98615e-09
3.38246e-11
2.95338e-09
3.27683e-11
2.92161e-09
3.17668e-11
2.8908e-09
3.08138e-11
2.86089e-09
2.99076e-11
2.83185e-09
2.90433e-11
2.80363e-09
2.82162e-11
2.77621e-09
2.74251e-11
2.74954e-09
2.6666e-11
2.72361e-09
2.59363e-11
2.69837e-09
2.52333e-11
2.67382e-09
2.4556e-11
2.64992e-09
2.39011e-11
2.62665e-09
2.32677e-11
2.60399e-09
2.2653e-11
2.58194e-09
2.20564e-11
2.56046e-09
2.14756e-11
2.53955e-09
2.0911e-11
2.51919e-09
2.03572e-11
2.49938e-09
1.98194e-11
2.48008e-09
1.92918e-11
2.46131e-09
1.87744e-11
2.44304e-09
1.82711e-11
2.42527e-09
1.77685e-11
2.40798e-09
1.72879e-11
2.39118e-09
1.68012e-11
2.37484e-09
1.63379e-11
2.35898e-09
1.586e-11
2.34356e-09
1.54213e-11
2.32861e-09
1.49535e-11
2.31407e-09
1.45328e-11
2.30001e-09
1.40681e-11
2.28632e-09
1.36852e-11
2.27311e-09
1.32145e-11
2.26024e-09
1.28627e-11
2.24785e-09
1.23947e-11
2.23576e-09
1.20908e-11
2.22414e-09
1.16148e-11
2.21278e-09
1.13665e-11
2.2019e-09
1.08808e-11
2.19118e-09
1.07136e-11
2.18098e-09
1.02067e-11
2.17083e-09
1.01454e-11
2.1612e-09
9.62699e-12
2.15151e-09
9.69696e-12
2.14236e-09
9.15138e-12
2.13295e-09
9.40276e-12
2.12413e-09
8.81958e-12
2.11481e-09
9.32356e-12
2.10615e-09
8.66217e-12
1.02738e-11
3.62378e-08
2.47162e-09
-3.59391e-08
3.60724e-08
3.6302e-09
3.53687e-08
4.14533e-09
3.43821e-08
4.17406e-09
3.32255e-08
4.05746e-09
3.1919e-08
3.84271e-09
3.04863e-08
3.51038e-09
2.90041e-08
3.08714e-09
2.75479e-08
2.62635e-09
2.61721e-08
2.19691e-09
2.49006e-08
1.84172e-09
2.37353e-08
1.56887e-09
2.26734e-08
1.36117e-09
2.17132e-08
1.19752e-09
2.08454e-08
1.07164e-09
2.00594e-08
9.72495e-10
1.93451e-08
8.90939e-10
1.86934e-08
8.20776e-10
1.80966e-08
7.58378e-10
1.7548e-08
7.01819e-10
1.7042e-08
6.50136e-10
1.6574e-08
6.02854e-10
1.614e-08
5.59711e-10
1.57363e-08
5.20511e-10
1.53599e-08
4.8504e-10
1.5008e-08
4.5304e-10
1.46781e-08
4.2423e-10
1.43681e-08
3.98315e-10
1.4076e-08
3.74985e-10
1.38002e-08
3.53935e-10
1.3539e-08
3.34879e-10
1.32913e-08
3.17559e-10
1.30559e-08
3.01749e-10
1.28318e-08
2.87254e-10
1.26181e-08
2.73906e-10
1.2414e-08
2.61569e-10
1.22189e-08
2.50122e-10
1.20321e-08
2.39472e-10
1.18531e-08
2.29533e-10
1.16813e-08
2.20244e-10
1.15164e-08
2.11541e-10
1.13578e-08
2.03379e-10
1.12052e-08
1.95711e-10
1.10583e-08
1.88502e-10
1.09166e-08
1.81716e-10
1.078e-08
1.75322e-10
1.06481e-08
1.69292e-10
1.05206e-08
1.63595e-10
1.03973e-08
1.58212e-10
1.0278e-08
1.53112e-10
1.01625e-08
1.4828e-10
1.00506e-08
1.43691e-10
9.94206e-09
1.3933e-10
9.83679e-09
1.35174e-10
9.73462e-09
1.31217e-10
9.63541e-09
1.27425e-10
9.53903e-09
1.23806e-10
9.44537e-09
1.20325e-10
9.35432e-09
1.16992e-10
9.26578e-09
1.13771e-10
9.17965e-09
1.10683e-10
9.09587e-09
1.07684e-10
9.01433e-09
1.04802e-10
8.935e-09
1.01988e-10
8.85777e-09
9.92808e-11
8.78263e-09
9.66232e-11
8.70947e-09
9.40658e-11
8.63829e-09
9.15353e-11
8.56901e-09
8.91057e-11
8.50161e-09
8.66884e-11
8.43602e-09
8.43617e-11
8.37225e-09
8.20439e-11
8.31022e-09
7.97998e-11
8.24994e-09
7.75691e-11
8.19134e-09
7.54031e-11
8.13443e-09
7.32398e-11
8.07916e-09
7.11337e-11
8.02554e-09
6.90473e-11
7.97349e-09
6.69991e-11
7.92305e-09
6.4971e-11
7.87415e-09
6.29682e-11
7.8268e-09
6.10361e-11
7.78096e-09
5.9058e-11
7.73661e-09
5.72082e-11
7.69372e-09
5.5283e-11
7.65227e-09
5.35465e-11
7.61222e-09
5.16605e-11
7.57353e-09
5.00543e-11
7.53619e-09
4.82245e-11
7.5001e-09
4.68002e-11
7.46528e-09
4.50285e-11
7.43159e-09
4.38364e-11
7.39903e-09
4.21878e-11
7.36746e-09
4.12683e-11
7.33683e-09
3.97774e-11
7.30702e-09
3.92151e-11
7.27787e-09
3.79733e-11
7.2493e-09
3.78864e-11
7.2209e-09
3.7062e-11
3.87272e-11
4.02783e-08
2.34681e-09
-4.01535e-08
4.07052e-08
3.20322e-09
4.09714e-08
3.87914e-09
4.10465e-08
4.09897e-09
4.10066e-08
4.09737e-09
4.08476e-08
4.00169e-09
4.0534e-08
3.82402e-09
4.00656e-08
3.55553e-09
3.94721e-08
3.21991e-09
3.87968e-08
2.87221e-09
3.80766e-08
2.56186e-09
3.73353e-08
2.31018e-09
3.65857e-08
2.11078e-09
3.5834e-08
1.94918e-09
3.50884e-08
1.81724e-09
3.43538e-08
1.70708e-09
3.36332e-08
1.61162e-09
3.29283e-08
1.52569e-09
3.22405e-08
1.44616e-09
3.15709e-08
1.37134e-09
3.09207e-08
1.30042e-09
3.02904e-08
1.23309e-09
2.96809e-08
1.16927e-09
2.90924e-08
1.10898e-09
2.85252e-08
1.05221e-09
2.79793e-08
9.98921e-10
2.74545e-08
9.49037e-10
2.69504e-08
9.02437e-10
2.64664e-08
8.58958e-10
2.6002e-08
8.18403e-10
2.55563e-08
7.8057e-10
2.51286e-08
7.45248e-10
2.47181e-08
7.12245e-10
2.4324e-08
6.81375e-10
2.39454e-08
6.5247e-10
2.35816e-08
6.25376e-10
2.32318e-08
5.99951e-10
2.28952e-08
5.76067e-10
2.25711e-08
5.53612e-10
2.22589e-08
5.32481e-10
2.19578e-08
5.12582e-10
2.16674e-08
4.93824e-10
2.1387e-08
4.76132e-10
2.1116e-08
4.59422e-10
2.08541e-08
4.43641e-10
2.06007e-08
4.28706e-10
2.03554e-08
4.14579e-10
2.01179e-08
4.01176e-10
1.98876e-08
3.88476e-10
1.96643e-08
3.76394e-10
1.94477e-08
3.64923e-10
1.92374e-08
3.53978e-10
1.90332e-08
3.43567e-10
1.88347e-08
3.33597e-10
1.86418e-08
3.24101e-10
1.84543e-08
3.14961e-10
1.82719e-08
3.06243e-10
1.80944e-08
2.97817e-10
1.79216e-08
2.89767e-10
1.77534e-08
2.81946e-10
1.75896e-08
2.7447e-10
1.74302e-08
2.67167e-10
1.72748e-08
2.60181e-10
1.71235e-08
2.53315e-10
1.6976e-08
2.46749e-10
1.68324e-08
2.40249e-10
1.66924e-08
2.34046e-10
1.65561e-08
2.27847e-10
1.64232e-08
2.21955e-10
1.62939e-08
2.16016e-10
1.61679e-08
2.10379e-10
1.60453e-08
2.04662e-10
1.59258e-08
1.9924e-10
1.58097e-08
1.93707e-10
1.56966e-08
1.8848e-10
1.55868e-08
1.8309e-10
1.54799e-08
1.78028e-10
1.53761e-08
1.72773e-10
1.52753e-08
1.67869e-10
1.51775e-08
1.62716e-10
1.50825e-08
1.57953e-10
1.49906e-08
1.5294e-10
1.49014e-08
1.48294e-10
1.48152e-08
1.43392e-10
1.47316e-08
1.38926e-10
1.4651e-08
1.3416e-10
1.45727e-08
1.29878e-10
1.44975e-08
1.25263e-10
1.44245e-08
1.21229e-10
1.43545e-08
1.16822e-10
1.42864e-08
1.13091e-10
1.42213e-08
1.08947e-10
1.41578e-08
1.05696e-10
1.40972e-08
1.01848e-10
1.40378e-08
9.92127e-11
1.39812e-08
9.5788e-11
1.39252e-08
9.39892e-11
1.38718e-08
9.13103e-11
1.38183e-08
9.05967e-11
9.01247e-11
4.47473e-08
2.29279e-09
-4.46932e-08
4.50642e-08
2.88627e-09
4.54663e-08
3.4771e-09
4.57789e-08
3.78638e-09
4.60196e-08
3.85666e-09
4.62151e-08
3.80611e-09
4.63439e-08
3.6953e-09
4.63789e-08
3.52049e-09
4.63102e-08
3.28864e-09
4.61516e-08
3.0308e-09
4.59288e-08
2.78465e-09
4.56625e-08
2.57642e-09
4.53641e-08
2.40919e-09
4.5038e-08
2.2753e-09
4.46896e-08
2.1656e-09
4.43236e-08
2.07309e-09
4.39429e-08
1.99237e-09
4.35492e-08
1.9194e-09
4.31439e-08
1.85145e-09
4.27283e-08
1.78691e-09
4.23038e-08
1.72492e-09
4.18718e-08
1.66505e-09
4.14339e-08
1.6072e-09
4.09915e-08
1.55135e-09
4.05462e-08
1.49754e-09
4.00993e-08
1.4458e-09
3.96522e-08
1.39618e-09
3.9206e-08
1.34864e-09
3.87618e-08
1.30315e-09
3.83206e-08
1.25964e-09
3.78831e-08
1.21801e-09
3.74502e-08
1.17816e-09
3.70224e-08
1.14001e-09
3.66004e-08
1.10344e-09
3.61845e-08
1.06839e-09
3.57751e-08
1.03476e-09
3.53725e-08
1.0025e-09
3.49771e-08
9.71527e-10
3.45889e-08
9.41804e-10
3.42081e-08
9.13257e-10
3.38348e-08
8.85869e-10
3.34691e-08
8.59559e-10
3.31109e-08
8.34324e-10
3.27602e-08
8.10073e-10
3.2417e-08
7.86824e-10
3.20813e-08
7.64466e-10
3.17528e-08
7.43042e-10
3.14316e-08
7.22412e-10
3.11174e-08
7.02649e-10
3.08102e-08
6.8359e-10
3.05098e-08
6.65333e-10
3.02161e-08
6.47689e-10
2.99289e-08
6.30791e-10
2.96481e-08
6.14413e-10
2.93734e-08
5.98733e-10
2.91049e-08
5.8347e-10
2.88423e-08
5.68868e-10
2.85855e-08
5.54594e-10
2.83343e-08
5.40943e-10
2.80888e-08
5.27527e-10
2.78485e-08
5.14718e-10
2.76136e-08
5.0205e-10
2.73838e-08
4.89974e-10
2.71592e-08
4.77944e-10
2.69394e-08
4.66511e-10
2.67247e-08
4.55019e-10
2.65146e-08
4.44147e-10
2.63093e-08
4.33095e-10
2.61086e-08
4.22715e-10
2.59125e-08
4.12038e-10
2.57209e-08
4.02065e-10
2.55338e-08
3.91698e-10
2.5351e-08
3.82083e-10
2.51727e-08
3.71959e-10
2.49985e-08
3.62666e-10
2.48289e-08
3.52712e-10
2.46632e-08
3.43715e-10
2.45021e-08
3.33899e-10
2.43448e-08
3.25185e-10
2.41921e-08
3.15448e-10
2.4043e-08
3.07018e-10
2.38986e-08
2.97382e-10
2.37576e-08
2.8921e-10
2.36214e-08
2.79622e-10
2.34885e-08
2.71836e-10
2.33604e-08
2.6229e-10
2.32353e-08
2.54927e-10
2.31152e-08
2.45428e-10
2.29978e-08
2.38621e-10
2.28854e-08
2.29221e-10
2.27754e-08
2.23089e-10
2.26705e-08
2.13862e-10
2.25675e-08
2.08698e-10
2.24696e-08
1.99704e-10
2.23731e-08
1.95701e-10
2.22817e-08
1.87217e-10
2.2191e-08
1.84638e-10
2.2105e-08
1.77355e-10
2.20191e-08
1.76523e-10
1.71691e-10
4.96968e-08
2.23085e-09
-4.96349e-08
4.99135e-08
2.66956e-09
5.02692e-08
3.12143e-09
5.06111e-08
3.44447e-09
5.08935e-08
3.57428e-09
5.11329e-08
3.56673e-09
5.13414e-08
3.48677e-09
5.15032e-08
3.35867e-09
5.16014e-08
3.19043e-09
5.16346e-08
2.99767e-09
5.16158e-08
2.80342e-09
5.15632e-08
2.62901e-09
5.14875e-08
2.4849e-09
5.13929e-08
2.36996e-09
5.12822e-08
2.27624e-09
5.11581e-08
2.19725e-09
5.1022e-08
2.12848e-09
5.08746e-08
2.06679e-09
5.0716e-08
2.01001e-09
5.05462e-08
1.95667e-09
5.03653e-08
1.90589e-09
5.01732e-08
1.85712e-09
4.99703e-08
1.8101e-09
4.9757e-08
1.76467e-09
4.95337e-08
1.7208e-09
4.93011e-08
1.67844e-09
4.90597e-08
1.63759e-09
4.88101e-08
1.5982e-09
4.8553e-08
1.56025e-09
4.8289e-08
1.52365e-09
4.80186e-08
1.48835e-09
4.77426e-08
1.45422e-09
4.74613e-08
1.42125e-09
4.71755e-08
1.38928e-09
4.68856e-08
1.35833e-09
4.65921e-08
1.32826e-09
4.62955e-08
1.2991e-09
4.59963e-08
1.27071e-09
4.56949e-08
1.24315e-09
4.53919e-08
1.21627e-09
4.50876e-08
1.19018e-09
4.47824e-08
1.16472e-09
4.44768e-08
1.14e-09
4.4171e-08
1.11586e-09
4.38653e-08
1.09245e-09
4.35603e-08
1.06955e-09
4.32559e-08
1.04736e-09
4.29527e-08
1.0256e-09
4.26508e-08
1.00455e-09
4.23506e-08
9.83848e-10
4.20521e-08
9.63851e-10
4.17556e-08
9.4414e-10
4.14613e-08
9.25129e-10
4.11694e-08
9.06319e-10
4.08799e-08
8.88217e-10
4.05932e-08
8.70201e-10
4.03091e-08
8.52916e-10
4.00281e-08
8.35617e-10
3.975e-08
8.19072e-10
3.94751e-08
8.02402e-10
3.92033e-08
7.86533e-10
3.89349e-08
7.70412e-10
3.86697e-08
7.55144e-10
3.84082e-08
7.39479e-10
3.815e-08
7.24749e-10
3.78955e-08
7.09452e-10
3.76445e-08
6.95207e-10
3.73974e-08
6.80187e-10
3.71537e-08
6.6638e-10
3.69142e-08
6.51579e-10
3.66781e-08
6.38139e-10
3.64463e-08
6.23488e-10
3.6218e-08
6.10381e-10
3.59942e-08
5.95809e-10
3.57738e-08
5.83022e-10
3.55581e-08
5.68423e-10
3.53458e-08
5.55968e-10
3.51384e-08
5.41304e-10
3.49344e-08
5.29177e-10
3.47355e-08
5.14362e-10
3.45399e-08
5.02616e-10
3.43496e-08
4.87663e-10
3.41626e-08
4.76275e-10
3.39811e-08
4.61111e-10
3.38026e-08
4.50301e-10
3.363e-08
4.34892e-10
3.34602e-08
4.24728e-10
3.32966e-08
4.09093e-10
3.31354e-08
3.99771e-10
3.29806e-08
3.83985e-10
3.28281e-08
3.75659e-10
3.26821e-08
3.59865e-10
3.25378e-08
3.52921e-10
3.24003e-08
3.37255e-10
3.22641e-08
3.31901e-10
3.21345e-08
3.16834e-10
3.20057e-08
3.13408e-10
3.18832e-08
2.99895e-10
3.17607e-08
2.98961e-10
2.88062e-10
5.51393e-08
2.15609e-09
-5.50645e-08
5.53087e-08
2.50016e-09
5.5594e-08
2.83617e-09
5.59103e-08
3.1282e-09
5.61945e-08
3.29005e-09
5.64333e-08
3.32795e-09
5.66385e-08
3.28149e-09
5.68109e-08
3.18629e-09
5.69411e-08
3.06029e-09
5.7024e-08
2.91468e-09
5.70651e-08
2.76237e-09
5.70766e-08
2.6175e-09
5.70701e-08
2.49136e-09
5.70521e-08
2.38803e-09
5.70252e-08
2.30307e-09
5.69915e-08
2.23104e-09
5.6952e-08
2.16799e-09
5.69074e-08
2.11131e-09
5.68581e-08
2.05936e-09
5.68038e-08
2.01097e-09
5.67442e-08
1.96543e-09
5.66792e-08
1.92217e-09
5.66084e-08
1.88091e-09
5.65317e-08
1.84139e-09
5.64489e-08
1.80354e-09
5.63602e-08
1.76721e-09
5.62653e-08
1.73242e-09
5.61645e-08
1.69903e-09
5.60577e-08
1.66706e-09
5.5945e-08
1.63633e-09
5.58265e-08
1.60688e-09
5.57022e-08
1.57847e-09
5.55723e-08
1.55118e-09
5.54368e-08
1.52475e-09
5.52959e-08
1.4993e-09
5.51496e-08
1.47457e-09
5.4998e-08
1.45069e-09
5.48413e-08
1.42739e-09
5.46796e-08
1.40485e-09
5.45131e-08
1.38277e-09
5.43419e-08
1.3614e-09
5.41662e-08
1.34039e-09
5.39861e-08
1.32006e-09
5.3802e-08
1.30001e-09
5.36138e-08
1.28064e-09
5.34219e-08
1.26145e-09
5.32263e-08
1.24295e-09
5.30274e-08
1.22451e-09
5.28252e-08
1.20676e-09
5.26201e-08
1.18896e-09
5.24121e-08
1.17187e-09
5.22016e-08
1.15463e-09
5.19886e-08
1.13815e-09
5.17735e-08
1.1214e-09
5.15562e-08
1.10548e-09
5.13373e-08
1.0891e-09
5.11166e-08
1.07363e-09
5.08947e-08
1.05754e-09
5.06713e-08
1.04244e-09
5.04472e-08
1.02655e-09
5.02219e-08
1.01179e-09
4.99963e-08
9.96041e-10
4.97699e-08
9.81569e-10
4.95435e-08
9.65856e-10
4.93166e-08
9.51615e-10
4.90902e-08
9.3584e-10
4.88636e-08
9.21794e-10
4.8638e-08
9.05862e-10
4.84123e-08
8.91999e-10
4.81881e-08
8.75852e-10
4.79641e-08
8.6212e-10
4.77419e-08
8.45691e-10
4.75202e-08
8.3207e-10
4.73007e-08
8.15274e-10
4.7082e-08
8.01784e-10
4.68659e-08
7.84489e-10
4.66507e-08
7.71185e-10
4.64386e-08
7.53359e-10
4.62276e-08
7.40262e-10
4.60201e-08
7.21794e-10
4.58137e-08
7.08999e-10
4.56115e-08
6.89922e-10
4.54104e-08
6.77401e-10
4.52138e-08
6.57646e-10
4.50184e-08
6.45707e-10
4.48281e-08
6.25242e-10
4.46388e-08
6.13959e-10
4.44551e-08
5.92845e-10
4.42724e-08
5.82448e-10
4.40956e-08
5.60832e-10
4.39197e-08
5.51498e-10
4.375e-08
5.29627e-10
4.35811e-08
5.21815e-10
4.34184e-08
4.99881e-10
4.32565e-08
4.9384e-10
4.31008e-08
4.72483e-10
4.29455e-08
4.68737e-10
4.27964e-08
4.49005e-10
4.26471e-08
4.48295e-10
4.3166e-10
6.1129e-08
2.07671e-09
-6.10496e-08
6.12756e-08
2.35354e-09
6.14983e-08
2.61347e-09
6.17731e-08
2.85341e-09
6.20409e-08
3.0223e-09
6.22759e-08
3.09295e-09
6.24737e-08
3.08362e-09
6.26385e-08
3.02152e-09
6.27698e-08
2.92894e-09
6.28653e-08
2.81923e-09
6.29261e-08
2.70154e-09
6.29589e-08
2.58471e-09
6.2973e-08
2.47725e-09
6.29764e-08
2.38461e-09
6.29729e-08
2.3066e-09
6.29644e-08
2.23957e-09
6.2952e-08
2.18032e-09
6.29369e-08
2.1265e-09
6.29194e-08
2.07681e-09
6.29e-08
2.03034e-09
6.28788e-08
1.98666e-09
6.28557e-08
1.94525e-09
6.28307e-08
1.90598e-09
6.28036e-08
1.86849e-09
6.27743e-08
1.8328e-09
6.27429e-08
1.79865e-09
6.27092e-08
1.76613e-09
6.26732e-08
1.73499e-09
6.26349e-08
1.70538e-09
6.25942e-08
1.67699e-09
6.25511e-08
1.65001e-09
6.25055e-08
1.62406e-09
6.24573e-08
1.59939e-09
6.24064e-08
1.57557e-09
6.23528e-08
1.55291e-09
6.22965e-08
1.53093e-09
6.22371e-08
1.51002e-09
6.21749e-08
1.48963e-09
6.21095e-08
1.47022e-09
6.20411e-08
1.45119e-09
6.19694e-08
1.43308e-09
6.18946e-08
1.4152e-09
6.18165e-08
1.39822e-09
6.17351e-08
1.38136e-09
6.16503e-08
1.36541e-09
6.15624e-08
1.34944e-09
6.14709e-08
1.33443e-09
6.13762e-08
1.31922e-09
6.12779e-08
1.30499e-09
6.11765e-08
1.29037e-09
6.10716e-08
1.27678e-09
6.09636e-08
1.26262e-09
6.08522e-08
1.2496e-09
6.07377e-08
1.23584e-09
6.06199e-08
1.22334e-09
6.04991e-08
1.20984e-09
6.0375e-08
1.19774e-09
6.02482e-08
1.18435e-09
6.01181e-08
1.17252e-09
5.99856e-08
1.1591e-09
5.98499e-08
1.14749e-09
5.97119e-08
1.13399e-09
5.95709e-08
1.12256e-09
5.94279e-08
1.10886e-09
5.9282e-08
1.09754e-09
5.91344e-08
1.08346e-09
5.8984e-08
1.07219e-09
5.88323e-08
1.05761e-09
5.86779e-08
1.04639e-09
5.85225e-08
1.03122e-09
5.83646e-08
1.01997e-09
5.82062e-08
1.00416e-09
5.80454e-08
9.92866e-10
5.78844e-08
9.76288e-10
5.77212e-08
9.64945e-10
5.75583e-08
9.47424e-10
5.73934e-08
9.3609e-10
5.72291e-08
9.17581e-10
5.70631e-08
9.06306e-10
5.68982e-08
8.86706e-10
5.67316e-08
8.75542e-10
5.65667e-08
8.54884e-10
5.64003e-08
8.43748e-10
5.6236e-08
8.22009e-10
5.60704e-08
8.11267e-10
5.59072e-08
7.88413e-10
5.5743e-08
7.78152e-10
5.55816e-08
7.54268e-10
5.54194e-08
7.44626e-10
5.52604e-08
7.19904e-10
5.51008e-08
7.11103e-10
5.49443e-08
6.86046e-10
5.47875e-08
6.78656e-10
5.46341e-08
6.53244e-10
5.44805e-08
6.47463e-10
5.43305e-08
6.22508e-10
5.418e-08
6.19192e-10
5.40331e-08
5.95967e-10
5.38856e-08
5.95771e-10
5.76143e-10
6.7729e-08
1.99843e-09
-6.76507e-08
6.78578e-08
2.22476e-09
6.80381e-08
2.43309e-09
6.82661e-08
2.62545e-09
6.85062e-08
2.78218e-09
6.87296e-08
2.86963e-09
6.89213e-08
2.89188e-09
6.90796e-08
2.86325e-09
6.9207e-08
2.8015e-09
6.93053e-08
2.72094e-09
6.93754e-08
2.63144e-09
6.94204e-08
2.53973e-09
6.9446e-08
2.4516e-09
6.94593e-08
2.37138e-09
6.94648e-08
2.30102e-09
6.94651e-08
2.2393e-09
6.94613e-08
2.18409e-09
6.94545e-08
2.13332e-09
6.94454e-08
2.08595e-09
6.94346e-08
2.04112e-09
6.94226e-08
1.9987e-09
6.94096e-08
1.95825e-09
6.93957e-08
1.91984e-09
6.93811e-08
1.88309e-09
6.93657e-08
1.84814e-09
6.93498e-08
1.81461e-09
6.93332e-08
1.78273e-09
6.93161e-08
1.7521e-09
6.92984e-08
1.72306e-09
6.92803e-08
1.6951e-09
6.92616e-08
1.66866e-09
6.92425e-08
1.64315e-09
6.92229e-08
1.61907e-09
6.92027e-08
1.59574e-09
6.91818e-08
1.57376e-09
6.91604e-08
1.55238e-09
6.91381e-08
1.53228e-09
6.91152e-08
1.51262e-09
6.90912e-08
1.49418e-09
6.90664e-08
1.47603e-09
6.90404e-08
1.45906e-09
6.90134e-08
1.4422e-09
6.89851e-08
1.42653e-09
6.89556e-08
1.4108e-09
6.89247e-08
1.39632e-09
6.88926e-08
1.38161e-09
6.88588e-08
1.36823e-09
6.88236e-08
1.35441e-09
6.87866e-08
1.34199e-09
6.87481e-08
1.32887e-09
6.87076e-08
1.31724e-09
6.86656e-08
1.30465e-09
6.86215e-08
1.29372e-09
6.85757e-08
1.28157e-09
6.85278e-08
1.27131e-09
6.84781e-08
1.25949e-09
6.84261e-08
1.24977e-09
6.83723e-08
1.23811e-09
6.83161e-08
1.22876e-09
6.82581e-08
1.21707e-09
6.81976e-08
1.208e-09
6.81354e-08
1.19621e-09
6.80705e-08
1.18741e-09
6.8004e-08
1.1754e-09
6.79347e-08
1.16682e-09
6.78638e-08
1.15435e-09
6.77901e-08
1.14588e-09
6.7715e-08
1.13279e-09
6.76369e-08
1.12442e-09
6.75575e-08
1.11062e-09
6.74753e-08
1.1022e-09
6.73918e-08
1.08767e-09
6.73055e-08
1.07917e-09
6.7218e-08
1.06376e-09
6.71278e-08
1.05517e-09
6.70366e-08
1.03864e-09
6.69427e-08
1.03e-09
6.6848e-08
1.01224e-09
6.67507e-08
1.00358e-09
6.66528e-08
9.84625e-10
6.65525e-08
9.75911e-10
6.64516e-08
9.55772e-10
6.63485e-08
9.46784e-10
6.62451e-08
9.25455e-10
6.61397e-08
9.16655e-10
6.60341e-08
8.93986e-10
6.59267e-08
8.85567e-10
6.58191e-08
8.6188e-10
6.571e-08
8.53715e-10
6.56009e-08
8.28975e-10
6.5491e-08
8.21048e-10
6.53808e-08
7.9619e-10
6.52696e-08
7.8992e-10
6.51583e-08
7.64569e-10
6.50463e-08
7.5942e-10
6.49346e-08
7.3424e-10
6.48224e-08
7.31313e-10
6.47098e-08
7.08627e-10
6.45964e-08
7.09114e-10
6.89595e-10
6.79275e-08
1.93327e-09
-6.78624e-08
6.80288e-08
2.12353e-09
6.81658e-08
2.29605e-09
6.83359e-08
2.45538e-09
6.85251e-08
2.59297e-09
6.87104e-08
2.68427e-09
6.88768e-08
2.72548e-09
6.90174e-08
2.7227e-09
6.91317e-08
2.68719e-09
6.92218e-08
2.63086e-09
6.92896e-08
2.56358e-09
6.93375e-08
2.49191e-09
6.93685e-08
2.42056e-09
6.93872e-08
2.3527e-09
6.93976e-08
2.29061e-09
6.94025e-08
2.23443e-09
6.94032e-08
2.18336e-09
6.94007e-08
2.13579e-09
6.93957e-08
2.09093e-09
6.93889e-08
2.04799e-09
6.93806e-08
2.00699e-09
6.93713e-08
1.96755e-09
6.93612e-08
1.92995e-09
6.93505e-08
1.89376e-09
6.93394e-08
1.8593e-09
6.93279e-08
1.82608e-09
6.93161e-08
1.79449e-09
6.93043e-08
1.76396e-09
6.92923e-08
1.73501e-09
6.92804e-08
1.707e-09
6.92685e-08
1.68054e-09
6.92568e-08
1.65487e-09
6.92452e-08
1.63071e-09
6.92337e-08
1.60719e-09
6.92224e-08
1.58513e-09
6.92112e-08
1.56356e-09
6.92001e-08
1.54341e-09
6.91891e-08
1.52359e-09
6.91781e-08
1.50516e-09
6.91672e-08
1.48691e-09
6.91562e-08
1.47003e-09
6.91453e-08
1.45314e-09
6.91342e-08
1.43765e-09
6.9123e-08
1.42196e-09
6.91116e-08
1.40775e-09
6.91001e-08
1.39314e-09
6.90882e-08
1.38013e-09
6.90761e-08
1.36648e-09
6.90635e-08
1.35455e-09
6.90507e-08
1.34168e-09
6.90373e-08
1.33066e-09
6.90236e-08
1.31838e-09
6.90091e-08
1.30817e-09
6.89943e-08
1.29637e-09
6.89787e-08
1.28695e-09
6.89626e-08
1.27555e-09
6.89456e-08
1.26679e-09
6.89281e-08
1.25564e-09
6.89095e-08
1.24735e-09
6.88903e-08
1.23625e-09
6.887e-08
1.2283e-09
6.8849e-08
1.21715e-09
6.88269e-08
1.20959e-09
6.8804e-08
1.19824e-09
6.87798e-08
1.19105e-09
6.87549e-08
1.17927e-09
6.87285e-08
1.17229e-09
6.87014e-08
1.1599e-09
6.86727e-08
1.15308e-09
6.86432e-08
1.14008e-09
6.86123e-08
1.13318e-09
6.85804e-08
1.11952e-09
6.8547e-08
1.11258e-09
6.85127e-08
1.09809e-09
6.84768e-08
1.09107e-09
6.84399e-08
1.07548e-09
6.84014e-08
1.06848e-09
6.83621e-08
1.05162e-09
6.83211e-08
1.04449e-09
6.82792e-08
1.0266e-09
6.82358e-08
1.01933e-09
6.81911e-08
1.00039e-09
6.81453e-08
9.92615e-10
6.80982e-08
9.72522e-10
6.80499e-08
9.64966e-10
6.80005e-08
9.43387e-10
6.795e-08
9.36091e-10
6.7898e-08
9.13847e-10
6.78451e-08
9.06674e-10
6.77906e-08
8.83501e-10
6.77358e-08
8.75845e-10
6.76796e-08
8.52378e-10
6.76225e-08
8.47042e-10
6.75635e-08
8.23498e-10
6.7504e-08
8.18951e-10
6.74429e-08
7.95313e-10
6.73821e-08
7.92084e-10
6.73192e-08
7.71609e-10
6.72551e-08
7.73146e-10
7.54778e-10
7.51814e-08
1.87104e-09
-7.51191e-08
7.52717e-08
2.03316e-09
7.53898e-08
2.17794e-09
7.55332e-08
2.31197e-09
7.56958e-08
2.43037e-09
7.58604e-08
2.51967e-09
7.60143e-08
2.57163e-09
7.61488e-08
2.58822e-09
7.62606e-08
2.57539e-09
7.63502e-08
2.54121e-09
7.64198e-08
2.49395e-09
7.64718e-08
2.43998e-09
7.65085e-08
2.38385e-09
7.6533e-08
2.32822e-09
7.65484e-08
2.27517e-09
7.65575e-08
2.22537e-09
7.65618e-08
2.17898e-09
7.65626e-08
2.13505e-09
7.65604e-08
2.09315e-09
7.65558e-08
2.05253e-09
7.65495e-08
2.01336e-09
7.65417e-08
1.97526e-09
7.6533e-08
1.93869e-09
7.65235e-08
1.90322e-09
7.65135e-08
1.86935e-09
7.65031e-08
1.83649e-09
7.64924e-08
1.8052e-09
7.64815e-08
1.77478e-09
7.64706e-08
1.74591e-09
7.64598e-08
1.7178e-09
7.64491e-08
1.69125e-09
7.64387e-08
1.66534e-09
7.64284e-08
1.64099e-09
7.64184e-08
1.61715e-09
7.64087e-08
1.59484e-09
7.63993e-08
1.57292e-09
7.63902e-08
1.5525e-09
7.63815e-08
1.53233e-09
7.6373e-08
1.51363e-09
7.63649e-08
1.49504e-09
7.6357e-08
1.47792e-09
7.63494e-08
1.46072e-09
7.63421e-08
1.44504e-09
7.63349e-08
1.42906e-09
7.6328e-08
1.41471e-09
7.63213e-08
1.39984e-09
7.63147e-08
1.38673e-09
7.63083e-08
1.37284e-09
7.6302e-08
1.36088e-09
7.62959e-08
1.34781e-09
7.62897e-08
1.33683e-09
7.62837e-08
1.32439e-09
7.62775e-08
1.3143e-09
7.62715e-08
1.30236e-09
7.62654e-08
1.29309e-09
7.62593e-08
1.28161e-09
7.62531e-08
1.27305e-09
7.62468e-08
1.26191e-09
7.62403e-08
1.25385e-09
7.62337e-08
1.24284e-09
7.62268e-08
1.23518e-09
7.62198e-08
1.22414e-09
7.62125e-08
1.21695e-09
7.6205e-08
1.20572e-09
7.61971e-08
1.19899e-09
7.61889e-08
1.1874e-09
7.61803e-08
1.18093e-09
7.61714e-08
1.1688e-09
7.6162e-08
1.16249e-09
7.61521e-08
1.14993e-09
7.61419e-08
1.14346e-09
7.6131e-08
1.13034e-09
7.61197e-08
1.12387e-09
7.61078e-08
1.10999e-09
7.60954e-08
1.1035e-09
7.60823e-08
1.08855e-09
7.60687e-08
1.08215e-09
7.60542e-08
1.06605e-09
7.60394e-08
1.05937e-09
7.60235e-08
1.04246e-09
7.60073e-08
1.03557e-09
7.59898e-08
1.01782e-09
7.59721e-08
1.01035e-09
7.59532e-08
9.91422e-10
7.59338e-08
9.84365e-10
7.59132e-08
9.63941e-10
7.58924e-08
9.56911e-10
7.587e-08
9.36225e-10
7.58474e-08
9.29326e-10
7.58228e-08
9.08103e-10
7.57983e-08
9.00351e-10
7.57725e-08
8.78174e-10
7.57463e-08
8.73255e-10
7.5718e-08
8.51793e-10
7.56893e-08
8.4766e-10
7.56584e-08
8.26164e-10
7.56282e-08
8.22304e-10
7.55959e-08
8.0387e-10
7.55629e-08
8.0623e-10
7.89471e-10
8.31888e-08
1.8131e-09
-8.31309e-08
8.32688e-08
1.95315e-09
8.33704e-08
2.07643e-09
8.34913e-08
2.19101e-09
8.36284e-08
2.29328e-09
8.37704e-08
2.37769e-09
8.39073e-08
2.43471e-09
8.40313e-08
2.46427e-09
8.41375e-08
2.46914e-09
8.42248e-08
2.45396e-09
8.42941e-08
2.42466e-09
8.43475e-08
2.38649e-09
8.43874e-08
2.34394e-09
8.4416e-08
2.29963e-09
8.44356e-08
2.25558e-09
8.44484e-08
2.21258e-09
8.44561e-08
2.17131e-09
8.44598e-08
2.13135e-09
8.44602e-08
2.09269e-09
8.44581e-08
2.05472e-09
8.44537e-08
2.01769e-09
8.44477e-08
1.98125e-09
8.44405e-08
1.94595e-09
8.44323e-08
1.91142e-09
8.44234e-08
1.87825e-09
8.4414e-08
1.84588e-09
8.44042e-08
1.81496e-09
8.43943e-08
1.78473e-09
8.43842e-08
1.75599e-09
8.43742e-08
1.72785e-09
8.43642e-08
1.70124e-09
8.43544e-08
1.67515e-09
8.43448e-08
1.65061e-09
8.43354e-08
1.6265e-09
8.43263e-08
1.60391e-09
8.43176e-08
1.58167e-09
8.43092e-08
1.56092e-09
8.43011e-08
1.54042e-09
8.42933e-08
1.52138e-09
8.42859e-08
1.50245e-09
8.42788e-08
1.485e-09
8.42721e-08
1.46746e-09
8.42656e-08
1.45149e-09
8.42595e-08
1.43518e-09
8.42537e-08
1.42057e-09
8.42481e-08
1.40538e-09
8.42428e-08
1.39203e-09
8.42378e-08
1.37782e-09
8.42331e-08
1.36565e-09
8.42286e-08
1.35229e-09
8.42243e-08
1.34114e-09
8.42203e-08
1.32844e-09
8.42163e-08
1.31822e-09
8.42127e-08
1.30604e-09
8.42091e-08
1.29664e-09
8.42057e-08
1.28499e-09
8.42025e-08
1.27626e-09
8.41994e-08
1.26501e-09
8.41965e-08
1.25681e-09
8.41936e-08
1.24576e-09
8.41908e-08
1.23797e-09
8.4188e-08
1.2269e-09
8.41853e-08
1.21966e-09
8.41827e-08
1.20836e-09
8.418e-08
1.20163e-09
8.41774e-08
1.19004e-09
8.41748e-08
1.18355e-09
8.4172e-08
1.17154e-09
8.41694e-08
1.16511e-09
8.41665e-08
1.15284e-09
8.41637e-08
1.14623e-09
8.41606e-08
1.13344e-09
8.41576e-08
1.12687e-09
8.41543e-08
1.11333e-09
8.4151e-08
1.10681e-09
8.41473e-08
1.09222e-09
8.41436e-08
1.08581e-09
8.41394e-08
1.07024e-09
8.41354e-08
1.06342e-09
8.41306e-08
1.04721e-09
8.41261e-08
1.04014e-09
8.41207e-08
1.02321e-09
8.41154e-08
1.01564e-09
8.41094e-08
9.97419e-10
8.41033e-08
9.90441e-10
8.40964e-08
9.70884e-10
8.40896e-08
9.637e-10
8.40817e-08
9.44085e-10
8.4074e-08
9.37067e-10
8.40648e-08
9.17289e-10
8.40556e-08
9.09602e-10
8.40455e-08
8.8822e-10
8.40354e-08
8.83357e-10
8.40239e-08
8.63323e-10
8.4012e-08
8.59496e-10
8.39984e-08
8.39805e-10
8.39849e-08
8.35771e-10
8.39704e-08
8.18359e-10
8.39555e-08
8.21148e-10
8.0571e-10
9.20311e-08
1.76144e-09
-9.19795e-08
9.21e-08
1.88428e-09
9.21855e-08
1.99093e-09
9.2286e-08
2.09056e-09
9.23987e-08
2.18056e-09
9.25177e-08
2.25863e-09
9.26352e-08
2.31727e-09
9.27447e-08
2.35469e-09
9.28417e-08
2.37214e-09
9.29237e-08
2.37197e-09
9.29905e-08
2.35794e-09
9.30432e-08
2.33379e-09
9.30837e-08
2.30336e-09
9.31141e-08
2.26923e-09
9.31362e-08
2.23353e-09
9.31516e-08
2.19718e-09
9.31618e-08
2.16109e-09
9.31679e-08
2.12522e-09
9.31707e-08
2.08989e-09
9.31708e-08
2.05467e-09
9.31685e-08
2.01994e-09
9.31644e-08
1.98536e-09
9.31589e-08
1.95152e-09
9.31522e-08
1.91809e-09
9.31447e-08
1.88576e-09
9.31366e-08
1.85398e-09
9.3128e-08
1.82349e-09
9.31192e-08
1.79353e-09
9.31103e-08
1.76497e-09
9.31012e-08
1.73688e-09
9.30922e-08
1.71027e-09
9.30833e-08
1.68406e-09
9.30745e-08
1.65937e-09
9.3066e-08
1.63506e-09
9.30577e-08
1.61222e-09
9.30496e-08
1.58973e-09
9.30419e-08
1.56867e-09
9.30344e-08
1.54789e-09
9.30273e-08
1.52851e-09
9.30204e-08
1.50929e-09
9.30139e-08
1.49151e-09
9.30077e-08
1.47367e-09
9.30018e-08
1.45739e-09
9.29962e-08
1.44078e-09
9.29909e-08
1.42589e-09
9.29859e-08
1.4104e-09
9.29811e-08
1.39679e-09
9.29766e-08
1.38229e-09
9.29724e-08
1.36987e-09
9.29685e-08
1.35623e-09
9.29648e-08
1.34485e-09
9.29613e-08
1.33191e-09
9.2958e-08
1.32147e-09
9.2955e-08
1.30911e-09
9.29521e-08
1.29946e-09
9.29495e-08
1.28767e-09
9.2947e-08
1.27867e-09
9.29447e-08
1.26733e-09
9.29427e-08
1.25886e-09
9.29407e-08
1.24774e-09
9.29389e-08
1.23975e-09
9.29372e-08
1.22858e-09
9.29357e-08
1.2212e-09
9.29342e-08
1.2098e-09
9.2933e-08
1.2029e-09
9.29317e-08
1.19128e-09
9.29307e-08
1.18459e-09
9.29296e-08
1.17268e-09
9.29287e-08
1.16595e-09
9.29277e-08
1.15387e-09
9.29269e-08
1.14699e-09
9.2926e-08
1.13436e-09
9.29253e-08
1.12759e-09
9.29244e-08
1.11419e-09
9.29237e-08
1.10752e-09
9.29228e-08
1.09311e-09
9.29221e-08
1.08651e-09
9.29211e-08
1.07128e-09
9.29203e-08
1.06423e-09
9.29191e-08
1.0484e-09
9.29181e-08
1.04111e-09
9.29168e-08
1.02456e-09
9.29155e-08
1.01694e-09
9.29138e-08
9.99059e-10
9.29123e-08
9.9201e-10
9.29101e-08
9.73032e-10
9.29081e-08
9.65718e-10
9.29055e-08
9.46686e-10
9.2903e-08
9.3953e-10
9.28998e-08
9.20476e-10
9.28963e-08
9.13133e-10
9.28922e-08
8.9233e-10
9.28881e-08
8.87427e-10
9.28833e-08
8.68114e-10
9.28783e-08
8.64508e-10
9.28722e-08
8.45982e-10
9.28655e-08
8.42425e-10
9.28584e-08
8.25427e-10
9.28513e-08
8.2824e-10
8.13615e-10
1.01797e-07
1.71766e-09
-1.01753e-07
1.01854e-07
1.82751e-09
1.01923e-07
1.92165e-09
1.02004e-07
2.01005e-09
1.02093e-07
2.09087e-09
1.02189e-07
2.16272e-09
1.02285e-07
2.22105e-09
1.02377e-07
2.26278e-09
1.02461e-07
2.28847e-09
1.02534e-07
2.29919e-09
1.02595e-07
2.29713e-09
1.02644e-07
2.28468e-09
1.02682e-07
2.26474e-09
1.02712e-07
2.23952e-09
1.02734e-07
2.21118e-09
1.02751e-07
2.18081e-09
1.02762e-07
2.14952e-09
1.0277e-07
2.11751e-09
1.02775e-07
2.08533e-09
1.02776e-07
2.05278e-09
1.02776e-07
2.02029e-09
1.02774e-07
1.98758e-09
1.0277e-07
1.95527e-09
1.02765e-07
1.92303e-09