/*--------------------------------*- C++ -*----------------------------------*\
| =========                 |                                                 |
| \\      /  F ield         | OpenFOAM: The Open Source CFD Toolbox           |
|  \\    /   O peration     | Version:  2.3.0                                 |
|   \\  /    A nd           | Web:      www.OpenFOAM.org                      |
|    \\/     M anipulation  |                                                 |
\*---------------------------------------------------------------------------*/
FoamFile
{
    version     2.0;
    format      ascii;
    class       surfaceScalarField;
    location    "0.65";
    object      phi_0;
}
// * * * * * * * * * * * * * * * * * * * * * * * * * * * * * * * * * * * * * //

dimensions      [0 3 -1 0 0 0 0];

internalField   nonuniform List<scalar> 
3859
(
2.88217e-08
2.7703e-09
-3.1592e-08
2.53568e-08
3.46487e-09
2.19152e-08
3.44163e-09
1.87278e-08
3.18739e-09
1.58269e-08
2.90086e-09
1.32907e-08
2.53625e-09
1.1213e-08
2.07767e-09
9.60804e-09
1.60498e-09
8.43791e-09
1.17013e-09
7.61678e-09
8.21126e-10
7.04657e-09
5.70218e-10
6.64298e-09
4.03584e-10
6.34378e-09
2.992e-10
6.1064e-09
2.3738e-10
5.90261e-09
2.03797e-10
5.71613e-09
1.86476e-10
5.53949e-09
1.76641e-10
5.37037e-09
1.69123e-10
5.20882e-09
1.61547e-10
5.05562e-09
1.53204e-10
4.91143e-09
1.44187e-10
4.77656e-09
1.34869e-10
4.65091e-09
1.25648e-10
4.53408e-09
1.16835e-10
4.42545e-09
1.08631e-10
4.32431e-09
1.01132e-10
4.22995e-09
9.43642e-11
4.14165e-09
8.8304e-11
4.05875e-09
8.28952e-11
3.98068e-09
7.80664e-11
3.90694e-09
7.37422e-11
3.83709e-09
6.98519e-11
3.77076e-09
6.63321e-11
3.70763e-09
6.31291e-11
3.64743e-09
6.0196e-11
3.58994e-09
5.74964e-11
3.53494e-09
5.4997e-11
3.48226e-09
5.26756e-11
3.43175e-09
5.05092e-11
3.38327e-09
4.8485e-11
3.33668e-09
4.65868e-11
3.29188e-09
4.48064e-11
3.24874e-09
4.31314e-11
3.20719e-09
4.15568e-11
3.16711e-09
4.00728e-11
3.12844e-09
3.86755e-11
3.09108e-09
3.73566e-11
3.05497e-09
3.61116e-11
3.02004e-09
3.49339e-11
2.98622e-09
3.38198e-11
2.95345e-09
3.27633e-11
2.92169e-09
3.17616e-11
2.89088e-09
3.08082e-11
2.86098e-09
2.99018e-11
2.83195e-09
2.9037e-11
2.80374e-09
2.82094e-11
2.77632e-09
2.74179e-11
2.74966e-09
2.66584e-11
2.72373e-09
2.59281e-11
2.69851e-09
2.52247e-11
2.67396e-09
2.45469e-11
2.65007e-09
2.38916e-11
2.62681e-09
2.32575e-11
2.60417e-09
2.26423e-11
2.58212e-09
2.20449e-11
2.56066e-09
2.14638e-11
2.53976e-09
2.08981e-11
2.51942e-09
2.03439e-11
2.49961e-09
1.98054e-11
2.48034e-09
1.92769e-11
2.46158e-09
1.8759e-11
2.44332e-09
1.82546e-11
2.42557e-09
1.77513e-11
2.4083e-09
1.72701e-11
2.39152e-09
1.67822e-11
2.3752e-09
1.63178e-11
2.35936e-09
1.58393e-11
2.34396e-09
1.53999e-11
2.32903e-09
1.49308e-11
2.31452e-09
1.45087e-11
2.30048e-09
1.40443e-11
2.28682e-09
1.36591e-11
2.27363e-09
1.31877e-11
2.2608e-09
1.28348e-11
2.24843e-09
1.23664e-11
2.23637e-09
1.20608e-11
2.22478e-09
1.15842e-11
2.21345e-09
1.13339e-11
2.2026e-09
1.08484e-11
2.19192e-09
1.06784e-11
2.18175e-09
1.01724e-11
2.17164e-09
1.01098e-11
2.16205e-09
9.59097e-12
2.15239e-09
9.6582e-12
2.14328e-09
9.11338e-12
2.13392e-09
9.36193e-12
2.12514e-09
8.78167e-12
2.11585e-09
9.28254e-12
2.10723e-09
8.62233e-12
1.02217e-11
3.62378e-08
2.47162e-09
-3.59391e-08
3.60724e-08
3.6302e-09
3.53687e-08
4.14533e-09
3.43821e-08
4.17406e-09
3.32255e-08
4.05746e-09
3.1919e-08
3.84271e-09
3.04863e-08
3.51038e-09
2.90041e-08
3.08714e-09
2.75479e-08
2.62635e-09
2.61721e-08
2.19691e-09
2.49006e-08
1.84172e-09
2.37353e-08
1.56886e-09
2.26734e-08
1.36117e-09
2.17132e-08
1.19752e-09
2.08454e-08
1.07164e-09
2.00594e-08
9.72493e-10
1.93451e-08
8.90937e-10
1.86934e-08
8.20774e-10
1.80966e-08
7.58376e-10
1.7548e-08
7.01817e-10
1.7042e-08
6.50134e-10
1.65741e-08
6.02851e-10
1.614e-08
5.59709e-10
1.57363e-08
5.20508e-10
1.53599e-08
4.85037e-10
1.5008e-08
4.53036e-10
1.46782e-08
4.24227e-10
1.43682e-08
3.98311e-10
1.40761e-08
3.74981e-10
1.38002e-08
3.5393e-10
1.35391e-08
3.34874e-10
1.32914e-08
3.17554e-10
1.3056e-08
3.01743e-10
1.28318e-08
2.87248e-10
1.26181e-08
2.739e-10
1.24141e-08
2.61562e-10
1.2219e-08
2.50115e-10
1.20322e-08
2.39464e-10
1.18531e-08
2.29525e-10
1.16814e-08
2.20234e-10
1.15165e-08
2.11531e-10
1.13579e-08
2.03369e-10
1.12053e-08
1.957e-10
1.10584e-08
1.8849e-10
1.09168e-08
1.81703e-10
1.07801e-08
1.75308e-10
1.06482e-08
1.69277e-10
1.05207e-08
1.63579e-10
1.03975e-08
1.58194e-10
1.02782e-08
1.53093e-10
1.01627e-08
1.4826e-10
1.00508e-08
1.43669e-10
9.9423e-09
1.39308e-10
9.83705e-09
1.3515e-10
9.7349e-09
1.31191e-10
9.63571e-09
1.27397e-10
9.53935e-09
1.23777e-10
9.44572e-09
1.20294e-10
9.35469e-09
1.16959e-10
9.26618e-09
1.13736e-10
9.18008e-09
1.10645e-10
9.09633e-09
1.07644e-10
9.01482e-09
1.04759e-10
8.93552e-09
1.01943e-10
8.85833e-09
9.92328e-11
8.78323e-09
9.6573e-11
8.71011e-09
9.40118e-11
8.63898e-09
9.1479e-11
8.56974e-09
8.9046e-11
8.50239e-09
8.66252e-11
8.43685e-09
8.42957e-11
8.37313e-09
8.19737e-11
8.31116e-09
7.97263e-11
8.25093e-09
7.74922e-11
8.1924e-09
7.53217e-11
8.13556e-09
7.31541e-11
8.08035e-09
7.10443e-11
8.0268e-09
6.89544e-11
7.97483e-09
6.6901e-11
7.92447e-09
6.48678e-11
7.87565e-09
6.28631e-11
7.82839e-09
6.09238e-11
7.78263e-09
5.89415e-11
7.73838e-09
5.70876e-11
7.69559e-09
5.51585e-11
7.65423e-09
5.34166e-11
7.61429e-09
5.15261e-11
7.57571e-09
4.9914e-11
7.53848e-09
4.80813e-11
7.50251e-09
4.66498e-11
7.4678e-09
4.48765e-11
7.43423e-09
4.36809e-11
7.40179e-09
4.20274e-11
7.37035e-09
4.11019e-11
7.33986e-09
3.96087e-11
7.31018e-09
3.90408e-11
7.28116e-09
3.78017e-11
7.25273e-09
3.77083e-11
7.22447e-09
3.68827e-11
3.85251e-11
4.02783e-08
2.34681e-09
-4.01535e-08
4.07052e-08
3.20322e-09
4.09714e-08
3.87914e-09
4.10465e-08
4.09897e-09
4.10066e-08
4.09737e-09
4.08476e-08
4.00169e-09
4.0534e-08
3.82402e-09
4.00656e-08
3.55553e-09
3.94721e-08
3.2199e-09
3.87968e-08
2.87221e-09
3.80766e-08
2.56186e-09
3.73353e-08
2.31018e-09
3.65857e-08
2.11078e-09
3.58341e-08
1.94917e-09
3.50884e-08
1.81724e-09
3.43539e-08
1.70708e-09
3.36332e-08
1.61162e-09
3.29283e-08
1.52569e-09
3.22405e-08
1.44616e-09
3.1571e-08
1.37133e-09
3.09207e-08
1.30041e-09
3.02904e-08
1.23309e-09
2.96809e-08
1.16927e-09
2.90924e-08
1.10897e-09
2.85253e-08
1.0522e-09
2.79794e-08
9.98915e-10
2.74546e-08
9.4903e-10
2.69505e-08
9.02429e-10
2.64665e-08
8.58949e-10
2.6002e-08
8.18394e-10
2.55563e-08
7.8056e-10
2.51287e-08
7.45237e-10
2.47182e-08
7.12234e-10
2.43241e-08
6.81363e-10
2.39455e-08
6.52458e-10
2.35817e-08
6.25362e-10
2.32319e-08
5.99935e-10
2.28953e-08
5.7605e-10
2.25712e-08
5.53594e-10
2.2259e-08
5.32461e-10
2.1958e-08
5.12561e-10
2.16675e-08
4.93801e-10
2.13871e-08
4.76107e-10
2.11162e-08
4.59396e-10
2.08543e-08
4.43612e-10
2.06009e-08
4.28676e-10
2.03557e-08
4.14547e-10
2.01181e-08
4.01141e-10
1.98879e-08
3.88438e-10
1.96646e-08
3.76353e-10
1.9448e-08
3.64879e-10
1.92377e-08
3.53931e-10
1.90335e-08
3.43517e-10
1.88351e-08
3.33545e-10
1.86423e-08
3.24043e-10
1.84548e-08
3.149e-10
1.82724e-08
3.06178e-10
1.80949e-08
2.97748e-10
1.79222e-08
2.89692e-10
1.7754e-08
2.81867e-10
1.75903e-08
2.74385e-10
1.74309e-08
2.67077e-10
1.72755e-08
2.60086e-10
1.71243e-08
2.53214e-10
1.69769e-08
2.46641e-10
1.68333e-08
2.40135e-10
1.66934e-08
2.33924e-10
1.65572e-08
2.27719e-10
1.64244e-08
2.21819e-10
1.62951e-08
2.15871e-10
1.61692e-08
2.10227e-10
1.60467e-08
2.04502e-10
1.59273e-08
1.9907e-10
1.58113e-08
1.9353e-10
1.56983e-08
1.88292e-10
1.55886e-08
1.82892e-10
1.54818e-08
1.7782e-10
1.53782e-08
1.72557e-10
1.52775e-08
1.67641e-10
1.51799e-08
1.62476e-10
1.5085e-08
1.57705e-10
1.49933e-08
1.52678e-10
1.49042e-08
1.4802e-10
1.48182e-08
1.43109e-10
1.47347e-08
1.38631e-10
1.46542e-08
1.33855e-10
1.45762e-08
1.29559e-10
1.45012e-08
1.24934e-10
1.44284e-08
1.20889e-10
1.43586e-08
1.16469e-10
1.42907e-08
1.12729e-10
1.42258e-08
1.08579e-10
1.41625e-08
1.05313e-10
1.41022e-08
1.01456e-10
1.4043e-08
9.88098e-11
1.39866e-08
9.53765e-11
1.39309e-08
9.35762e-11
1.38777e-08
9.08872e-11
1.38244e-08
9.01663e-11
8.96661e-11
4.47473e-08
2.29279e-09
-4.46932e-08
4.50642e-08
2.88627e-09
4.54663e-08
3.4771e-09
4.57789e-08
3.78638e-09
4.60196e-08
3.85667e-09
4.62151e-08
3.80611e-09
4.63439e-08
3.6953e-09
4.63789e-08
3.52049e-09
4.63102e-08
3.28864e-09
4.61516e-08
3.0308e-09
4.59288e-08
2.78465e-09
4.56625e-08
2.57642e-09
4.53641e-08
2.40918e-09
4.5038e-08
2.2753e-09
4.46896e-08
2.1656e-09
4.43236e-08
2.07309e-09
4.39429e-08
1.99237e-09
4.35492e-08
1.91939e-09
4.31439e-08
1.85145e-09
4.27283e-08
1.78691e-09
4.23038e-08
1.72491e-09
4.18719e-08
1.66505e-09
4.14339e-08
1.60719e-09
4.09916e-08
1.55134e-09
4.05462e-08
1.49753e-09
4.00994e-08
1.4458e-09
3.96522e-08
1.39617e-09
3.9206e-08
1.34863e-09
3.87618e-08
1.30314e-09
3.83206e-08
1.25962e-09
3.78832e-08
1.21799e-09
3.74503e-08
1.17814e-09
3.70225e-08
1.13999e-09
3.66004e-08
1.10342e-09
3.61845e-08
1.06837e-09
3.57752e-08
1.03474e-09
3.53726e-08
1.00248e-09
3.49772e-08
9.71501e-10
3.4589e-08
9.41775e-10
3.42082e-08
9.13225e-10
3.38349e-08
8.85835e-10
3.34692e-08
8.59523e-10
3.3111e-08
8.34285e-10
3.27604e-08
8.10031e-10
3.24172e-08
7.86779e-10
3.20815e-08
7.64417e-10
3.17531e-08
7.42988e-10
3.14318e-08
7.22354e-10
3.11177e-08
7.02587e-10
3.08105e-08
6.83523e-10
3.05101e-08
6.65261e-10
3.02165e-08
6.47613e-10
2.99293e-08
6.30708e-10
2.96485e-08
6.14326e-10
2.93739e-08
5.98638e-10
2.91054e-08
5.83369e-10
2.88428e-08
5.68759e-10
2.85861e-08
5.54477e-10
2.8335e-08
5.40817e-10
2.80895e-08
5.27394e-10
2.78493e-08
5.14575e-10
2.76145e-08
5.01898e-10
2.73847e-08
4.89811e-10
2.71602e-08
4.77773e-10
2.69405e-08
4.66326e-10
2.67258e-08
4.54824e-10
2.65158e-08
4.43937e-10
2.63106e-08
4.32874e-10
2.611e-08
4.2248e-10
2.5914e-08
4.11789e-10
2.57225e-08
4.01802e-10
2.55356e-08
3.9142e-10
2.53528e-08
3.81788e-10
2.51747e-08
3.7165e-10
2.50007e-08
3.62336e-10
2.48312e-08
3.52367e-10
2.46657e-08
3.43349e-10
2.45047e-08
3.33518e-10
2.43476e-08
3.24781e-10
2.4195e-08
3.15027e-10
2.40461e-08
3.06577e-10
2.39019e-08
2.96919e-10
2.37612e-08
2.88723e-10
2.36252e-08
2.79121e-10
2.34925e-08
2.71308e-10
2.33646e-08
2.61747e-10
2.32398e-08
2.54356e-10
2.31199e-08
2.4484e-10
2.30028e-08
2.38008e-10
2.28907e-08
2.28589e-10
2.2781e-08
2.22435e-10
2.26764e-08
2.13199e-10
2.25737e-08
2.08005e-10
2.24761e-08
1.98995e-10
2.238e-08
1.9497e-10
2.22889e-08
1.86472e-10
2.21986e-08
1.83885e-10
2.21129e-08
1.76586e-10
2.20273e-08
1.75737e-10
1.70875e-10
4.96968e-08
2.23085e-09
-4.96349e-08
4.99135e-08
2.66956e-09
5.02692e-08
3.12143e-09
5.06111e-08
3.44447e-09
5.08935e-08
3.57428e-09
5.11329e-08
3.56673e-09
5.13414e-08
3.48676e-09
5.15032e-08
3.35867e-09
5.16014e-08
3.19043e-09
5.16346e-08
2.99766e-09
5.16158e-08
2.80342e-09
5.15632e-08
2.629e-09
5.14875e-08
2.48489e-09
5.13929e-08
2.36996e-09
5.12822e-08
2.27624e-09
5.11581e-08
2.19725e-09
5.1022e-08
2.12848e-09
5.08746e-08
2.06679e-09
5.0716e-08
2.01e-09
5.05463e-08
1.95666e-09
5.03653e-08
1.90588e-09
5.01732e-08
1.85711e-09
4.99703e-08
1.81009e-09
4.9757e-08
1.76467e-09
4.95337e-08
1.72079e-09
4.93011e-08
1.67843e-09
4.90597e-08
1.63758e-09
4.88101e-08
1.59819e-09
4.8553e-08
1.56024e-09
4.8289e-08
1.52363e-09
4.80187e-08
1.48833e-09
4.77426e-08
1.4542e-09
4.74614e-08
1.42122e-09
4.71755e-08
1.38926e-09
4.68856e-08
1.35831e-09
4.65921e-08
1.32824e-09
4.62955e-08
1.29907e-09
4.59963e-08
1.27068e-09
4.5695e-08
1.24311e-09
4.5392e-08
1.21623e-09
4.50877e-08
1.19014e-09
4.47826e-08
1.16467e-09
4.44769e-08
1.13995e-09
4.41711e-08
1.11581e-09
4.38655e-08
1.09239e-09
4.35604e-08
1.06949e-09
4.32561e-08
1.04729e-09
4.2953e-08
1.02552e-09
4.26511e-08
1.00446e-09
4.23508e-08
9.83756e-10
4.20524e-08
9.63752e-10
4.17559e-08
9.44035e-10
4.14616e-08
9.25016e-10
4.11697e-08
9.062e-10
4.08803e-08
8.88085e-10
4.05936e-08
8.7006e-10
4.03096e-08
8.52763e-10
4.00286e-08
8.35454e-10
3.97506e-08
8.18895e-10
3.94757e-08
8.02215e-10
3.9204e-08
7.86332e-10
3.89357e-08
7.70199e-10
3.86706e-08
7.54913e-10
3.84091e-08
7.39235e-10
3.81509e-08
7.24484e-10
3.78966e-08
7.09174e-10
3.76456e-08
6.94905e-10
3.73986e-08
6.79871e-10
3.71551e-08
6.6604e-10
3.69156e-08
6.5122e-10
3.66797e-08
6.37757e-10
3.6448e-08
6.23084e-10
3.62199e-08
6.0995e-10
3.59962e-08
5.95358e-10
3.5776e-08
5.82537e-10
3.55604e-08
5.67918e-10
3.53483e-08
5.55429e-10
3.51411e-08
5.40743e-10
3.49373e-08
5.28578e-10
3.47386e-08
5.1374e-10
3.45432e-08
5.0196e-10
3.43531e-08
4.86975e-10
3.41663e-08
4.75547e-10
3.39851e-08
4.60364e-10
3.38069e-08
4.49509e-10
3.36346e-08
4.34076e-10
3.3465e-08
4.23868e-10
3.33017e-08
4.08207e-10
3.31408e-08
3.98845e-10
3.29864e-08
3.83027e-10
3.28342e-08
3.74667e-10
3.26885e-08
3.58855e-10
3.25446e-08
3.51866e-10
3.24075e-08
3.36171e-10
3.22717e-08
3.30785e-10
3.21424e-08
3.15691e-10
3.20141e-08
3.12252e-10
3.18919e-08
2.98711e-10
3.17699e-08
2.97751e-10
2.86818e-10
5.51393e-08
2.15608e-09
-5.50645e-08
5.53087e-08
2.50016e-09
5.5594e-08
2.83617e-09
5.59103e-08
3.1282e-09
5.61945e-08
3.29005e-09
5.64333e-08
3.32795e-09
5.66385e-08
3.28149e-09
5.68109e-08
3.18629e-09
5.69411e-08
3.06028e-09
5.7024e-08
2.91468e-09
5.70651e-08
2.76236e-09
5.70766e-08
2.61749e-09
5.70701e-08
2.49136e-09
5.70521e-08
2.38802e-09
5.70253e-08
2.30306e-09
5.69915e-08
2.23104e-09
5.6952e-08
2.16799e-09
5.69074e-08
2.1113e-09
5.68581e-08
2.05935e-09
5.68038e-08
2.01096e-09
5.67443e-08
1.96542e-09
5.66792e-08
1.92216e-09
5.66084e-08
1.8809e-09
5.65317e-08
1.84138e-09
5.6449e-08
1.80353e-09
5.63602e-08
1.7672e-09
5.62653e-08
1.73241e-09
5.61645e-08
1.69902e-09
5.60577e-08
1.66705e-09
5.5945e-08
1.63631e-09
5.58265e-08
1.60685e-09
5.57023e-08
1.57844e-09
5.55723e-08
1.55115e-09
5.54369e-08
1.52472e-09
5.52959e-08
1.49927e-09
5.51496e-08
1.47454e-09
5.4998e-08
1.45066e-09
5.48414e-08
1.42735e-09
5.46797e-08
1.40481e-09
5.45132e-08
1.38272e-09
5.43419e-08
1.36135e-09
5.41663e-08
1.34033e-09
5.39862e-08
1.32e-09
5.38021e-08
1.29994e-09
5.36139e-08
1.28057e-09
5.3422e-08
1.26138e-09
5.32265e-08
1.24287e-09
5.30276e-08
1.22442e-09
5.28254e-08
1.20666e-09
5.26203e-08
1.18885e-09
5.24123e-08
1.17175e-09
5.22018e-08
1.1545e-09
5.19888e-08
1.13801e-09
5.17738e-08
1.12126e-09
5.15565e-08
1.10532e-09
5.13376e-08
1.08893e-09
5.1117e-08
1.07344e-09
5.08951e-08
1.05734e-09
5.06718e-08
1.04222e-09
5.04477e-08
1.02632e-09
5.02225e-08
1.01154e-09
4.99969e-08
9.95778e-10
4.97705e-08
9.81283e-10
4.95442e-08
9.65554e-10
4.93174e-08
9.51283e-10
4.90911e-08
9.35491e-10
4.88646e-08
9.21412e-10
4.8639e-08
9.05463e-10
4.84134e-08
8.91568e-10
4.81893e-08
8.75398e-10
4.79654e-08
8.61633e-10
4.77433e-08
8.45177e-10
4.75217e-08
8.31518e-10
4.73024e-08
8.14696e-10
4.70838e-08
8.01159e-10
4.68678e-08
7.83839e-10
4.66528e-08
7.70487e-10
4.64409e-08
7.52634e-10
4.623e-08
7.39482e-10
4.60227e-08
7.20984e-10
4.58166e-08
7.08141e-10
4.56145e-08
6.8902e-10
4.54136e-08
6.76446e-10
4.52173e-08
6.56664e-10
4.50222e-08
6.44664e-10
4.48321e-08
6.24163e-10
4.46431e-08
6.12821e-10
4.44597e-08
5.91665e-10
4.42773e-08
5.81216e-10
4.41008e-08
5.59552e-10
4.39253e-08
5.50176e-10
4.37558e-08
5.28273e-10
4.35873e-08
5.20399e-10
4.34251e-08
4.98418e-10
4.32635e-08
4.92337e-10
4.31083e-08
4.70936e-10
4.29533e-08
4.67175e-10
4.28047e-08
4.47398e-10
4.26558e-08
4.46648e-10
4.29972e-10
6.1129e-08
2.07671e-09
-6.10496e-08
6.12756e-08
2.35354e-09
6.14983e-08
2.61347e-09
6.17731e-08
2.85341e-09
6.20409e-08
3.0223e-09
6.22759e-08
3.09295e-09
6.24737e-08
3.08362e-09
6.26385e-08
3.02152e-09
6.27698e-08
2.92894e-09
6.28653e-08
2.81922e-09
6.29261e-08
2.70153e-09
6.29589e-08
2.58471e-09
6.2973e-08
2.47724e-09
6.29764e-08
2.38461e-09
6.29729e-08
2.30659e-09
6.29644e-08
2.23957e-09
6.2952e-08
2.18032e-09
6.29369e-08
2.12649e-09
6.29194e-08
2.07681e-09
6.29e-08
2.03033e-09
6.28788e-08
1.98664e-09
6.28557e-08
1.94524e-09
6.28307e-08
1.90596e-09
6.28036e-08
1.86848e-09
6.27743e-08
1.83279e-09
6.27429e-08
1.79863e-09
6.27092e-08
1.76612e-09
6.26732e-08
1.73498e-09
6.26349e-08
1.70537e-09
6.25942e-08
1.67697e-09
6.25511e-08
1.64999e-09
6.25055e-08
1.62403e-09
6.24573e-08
1.59936e-09
6.24065e-08
1.57554e-09
6.23529e-08
1.55287e-09
6.22965e-08
1.5309e-09
6.22372e-08
1.50998e-09
6.21749e-08
1.4896e-09
6.21096e-08
1.47018e-09
6.20411e-08
1.45114e-09
6.19695e-08
1.43302e-09
6.18947e-08
1.41513e-09
6.18165e-08
1.39815e-09
6.17352e-08
1.38128e-09
6.16504e-08
1.36533e-09
6.15624e-08
1.34936e-09
6.1471e-08
1.33434e-09
6.13763e-08
1.31912e-09
6.1278e-08
1.30488e-09
6.11766e-08
1.29024e-09
6.10718e-08
1.27664e-09
6.09638e-08
1.26248e-09
6.08523e-08
1.24945e-09
6.07379e-08
1.23568e-09
6.06201e-08
1.22317e-09
6.04993e-08
1.20966e-09
6.03753e-08
1.19754e-09
6.02485e-08
1.18412e-09
6.01184e-08
1.17227e-09
5.99859e-08
1.15884e-09
5.98502e-08
1.1472e-09
5.97123e-08
1.13369e-09
5.95714e-08
1.12224e-09
5.94284e-08
1.10852e-09
5.92825e-08
1.09716e-09
5.91349e-08
1.08307e-09
5.89846e-08
1.07175e-09
5.88329e-08
1.05716e-09
5.86786e-08
1.04589e-09
5.85233e-08
1.0307e-09
5.83655e-08
1.01941e-09
5.82071e-08
1.00357e-09
5.80464e-08
9.92229e-10
5.78855e-08
9.75618e-10
5.77224e-08
9.64216e-10
5.75596e-08
9.46664e-10
5.73948e-08
9.35271e-10
5.72307e-08
9.16733e-10
5.70648e-08
9.05394e-10
5.69e-08
8.85754e-10
5.67336e-08
8.74532e-10
5.65689e-08
8.53812e-10
5.64027e-08
8.42619e-10
5.62385e-08
8.2084e-10
5.60731e-08
8.10028e-10
5.59102e-08
7.87131e-10
5.57462e-08
7.76798e-10
5.5585e-08
7.52847e-10
5.54231e-08
7.4314e-10
5.52643e-08
7.1835e-10
5.51049e-08
7.09523e-10
5.49488e-08
6.84422e-10
5.47923e-08
6.76942e-10
5.46392e-08
6.51454e-10
5.44859e-08
6.4562e-10
5.43363e-08
6.20617e-10
5.41861e-08
6.17304e-10
5.40395e-08
5.94002e-10
5.38924e-08
5.93735e-10
5.74061e-10
6.7729e-08
1.99843e-09
-6.76507e-08
6.78578e-08
2.22476e-09
6.80382e-08
2.43309e-09
6.82661e-08
2.62545e-09
6.85062e-08
2.78218e-09
6.87296e-08
2.86963e-09
6.89213e-08
2.89188e-09
6.90796e-08
2.86325e-09
6.9207e-08
2.80149e-09
6.93053e-08
2.72094e-09
6.93754e-08
2.63143e-09
6.94204e-08
2.53973e-09
6.9446e-08
2.4516e-09
6.94593e-08
2.37138e-09
6.94648e-08
2.30102e-09
6.94651e-08
2.2393e-09
6.94613e-08
2.18408e-09
6.94545e-08
2.13332e-09
6.94454e-08
2.08594e-09
6.94346e-08
2.04112e-09
6.94226e-08
1.99869e-09
6.94096e-08
1.95824e-09
6.93957e-08
1.91983e-09
6.93811e-08
1.88308e-09
6.93658e-08
1.84813e-09
6.93498e-08
1.81459e-09
6.93332e-08
1.78272e-09
6.93161e-08
1.75209e-09
6.92984e-08
1.72304e-09
6.92803e-08
1.69509e-09
6.92617e-08
1.66864e-09
6.92426e-08
1.64312e-09
6.92229e-08
1.61903e-09
6.92027e-08
1.5957e-09
6.91819e-08
1.57372e-09
6.91604e-08
1.55234e-09
6.91382e-08
1.53224e-09
6.91152e-08
1.51258e-09
6.90912e-08
1.49414e-09
6.90664e-08
1.47598e-09
6.90404e-08
1.459e-09
6.90134e-08
1.44213e-09
6.89851e-08
1.42645e-09
6.89557e-08
1.41071e-09
6.89248e-08
1.39623e-09
6.88926e-08
1.38153e-09
6.88588e-08
1.36814e-09
6.88236e-08
1.35432e-09
6.87866e-08
1.34188e-09
6.87481e-08
1.32875e-09
6.87077e-08
1.31709e-09
6.86657e-08
1.3045e-09
6.86216e-08
1.29354e-09
6.85758e-08
1.2814e-09
6.85279e-08
1.27112e-09
6.84783e-08
1.2593e-09
6.84262e-08
1.24956e-09
6.83725e-08
1.23788e-09
6.83163e-08
1.22849e-09
6.82583e-08
1.21678e-09
6.81978e-08
1.20769e-09
6.81356e-08
1.19589e-09
6.80708e-08
1.18707e-09
6.80043e-08
1.17504e-09
6.7935e-08
1.16642e-09
6.78642e-08
1.15393e-09
6.77905e-08
1.14541e-09
6.77154e-08
1.1323e-09
6.76374e-08
1.12388e-09
6.7558e-08
1.11005e-09
6.74758e-08
1.1016e-09
6.73924e-08
1.08703e-09
6.73061e-08
1.07849e-09
6.72187e-08
1.06303e-09
6.71285e-08
1.05438e-09
6.70374e-08
1.03782e-09
6.69435e-08
1.0291e-09
6.6849e-08
1.01132e-09
6.67518e-08
1.00259e-09
6.66539e-08
9.83587e-10
6.65536e-08
9.74815e-10
6.64529e-08
9.54586e-10
6.63499e-08
9.45544e-10
6.62466e-08
9.24166e-10
6.61414e-08
9.15278e-10
6.60359e-08
8.92578e-10
6.59286e-08
8.84099e-10
6.58212e-08
8.60315e-10
6.57122e-08
8.52059e-10
6.56034e-08
8.27192e-10
6.54936e-08
8.19277e-10
6.53836e-08
7.94432e-10
6.52725e-08
7.88042e-10
6.51614e-08
7.62558e-10
6.50497e-08
7.57309e-10
6.49383e-08
7.32053e-10
6.48264e-08
7.29228e-10
6.47139e-08
7.0648e-10
6.46008e-08
7.06803e-10
6.87208e-10
6.79275e-08
1.93327e-09
-6.78624e-08
6.80288e-08
2.12353e-09
6.81658e-08
2.29605e-09
6.83359e-08
2.45538e-09
6.85251e-08
2.59296e-09
6.87104e-08
2.68427e-09
6.88768e-08
2.72548e-09
6.90174e-08
2.7227e-09
6.91317e-08
2.68719e-09
6.92218e-08
2.63086e-09
6.92896e-08
2.56357e-09
6.93375e-08
2.4919e-09
6.93685e-08
2.42055e-09
6.93872e-08
2.3527e-09
6.93976e-08
2.2906e-09
6.94025e-08
2.23443e-09
6.94032e-08
2.18335e-09
6.94007e-08
2.13578e-09
6.93957e-08
2.09093e-09
6.93889e-08
2.04798e-09
6.93806e-08
2.00698e-09
6.93713e-08
1.96754e-09
6.93612e-08
1.92993e-09
6.93505e-08
1.89374e-09
6.93394e-08
1.85929e-09
6.93279e-08
1.82606e-09
6.93161e-08
1.79447e-09
6.93043e-08
1.76394e-09
6.92923e-08
1.735e-09
6.92804e-08
1.70698e-09
6.92686e-08
1.68052e-09
6.92568e-08
1.65484e-09
6.92452e-08
1.63068e-09
6.92337e-08
1.60715e-09
6.92224e-08
1.58509e-09
6.92112e-08
1.56351e-09
6.92001e-08
1.54337e-09
6.91891e-08
1.52355e-09
6.91781e-08
1.50512e-09
6.91673e-08
1.48686e-09
6.91563e-08
1.46997e-09
6.91453e-08
1.45307e-09
6.91342e-08
1.43757e-09
6.91231e-08
1.42187e-09
6.91116e-08
1.40766e-09
6.91001e-08
1.39305e-09
6.90882e-08
1.38003e-09
6.90762e-08
1.36638e-09
6.90636e-08
1.35444e-09
6.90508e-08
1.34156e-09
6.90374e-08
1.33051e-09
6.90236e-08
1.31822e-09
6.90092e-08
1.30799e-09
6.89944e-08
1.29619e-09
6.89788e-08
1.28675e-09
6.89627e-08
1.27535e-09
6.89457e-08
1.26657e-09
6.89282e-08
1.25541e-09
6.89096e-08
1.24708e-09
6.88904e-08
1.23595e-09
6.88701e-08
1.22798e-09
6.88492e-08
1.21682e-09
6.8827e-08
1.20923e-09
6.88042e-08
1.19787e-09
6.878e-08
1.19063e-09
6.87551e-08
1.17884e-09
6.87287e-08
1.1718e-09
6.87016e-08
1.15939e-09
6.86729e-08
1.15254e-09
6.86435e-08
1.13948e-09
6.86125e-08
1.13255e-09
6.85807e-08
1.11886e-09
6.85473e-08
1.11187e-09
6.8513e-08
1.09734e-09
6.84771e-08
1.09026e-09
6.84403e-08
1.07464e-09
6.84019e-08
1.06755e-09
6.83626e-08
1.05065e-09
6.83217e-08
1.04347e-09
6.82797e-08
1.02552e-09
6.82363e-08
1.0182e-09
6.81918e-08
9.99144e-10
6.8146e-08
9.91316e-10
6.8099e-08
9.71189e-10
6.80508e-08
9.6351e-10
6.80014e-08
9.41898e-10
6.7951e-08
9.34585e-10
6.7899e-08
9.12236e-10
6.78461e-08
9.0497e-10
6.77917e-08
8.81578e-10
6.77371e-08
8.73902e-10
6.7681e-08
8.50563e-10
6.76239e-08
8.45143e-10
6.7565e-08
8.21418e-10
6.75056e-08
8.16713e-10
6.74448e-08
7.92883e-10
6.73842e-08
7.89842e-10
6.73212e-08
7.69451e-10
6.72573e-08
7.70749e-10
7.5222e-10
7.51814e-08
1.87103e-09
-7.51191e-08
7.52717e-08
2.03316e-09
7.53898e-08
2.17794e-09
7.55332e-08
2.31196e-09
7.56958e-08
2.43037e-09
7.58604e-08
2.51966e-09
7.60143e-08
2.57163e-09
7.61488e-08
2.58822e-09
7.62606e-08
2.57539e-09
7.63502e-08
2.54121e-09
7.64198e-08
2.49395e-09
7.64718e-08
2.43997e-09
7.65085e-08
2.38384e-09
7.6533e-08
2.32822e-09
7.65484e-08
2.27517e-09
7.65575e-08
2.22536e-09
7.65618e-08
2.17897e-09
7.65626e-08
2.13504e-09
7.65604e-08
2.09315e-09
7.65558e-08
2.05252e-09
7.65495e-08
2.01335e-09
7.65418e-08
1.97525e-09
7.6533e-08
1.93867e-09
7.65235e-08
1.90321e-09
7.65135e-08
1.86933e-09
7.65031e-08
1.83648e-09
7.64924e-08
1.80518e-09
7.64816e-08
1.77476e-09
7.64707e-08
1.74589e-09
7.64599e-08
1.71778e-09
7.64491e-08
1.69123e-09
7.64387e-08
1.66531e-09
7.64284e-08
1.64096e-09
7.64184e-08
1.61711e-09
7.64087e-08
1.5948e-09
7.63994e-08
1.57288e-09
7.63903e-08
1.55245e-09
7.63815e-08
1.53228e-09
7.63731e-08
1.51358e-09
7.63649e-08
1.49499e-09
7.63571e-08
1.47786e-09
7.63495e-08
1.46065e-09
7.63421e-08
1.44496e-09
7.6335e-08
1.42898e-09
7.6328e-08
1.41461e-09
7.63213e-08
1.39975e-09
7.63147e-08
1.38663e-09
7.63084e-08
1.37274e-09
7.6302e-08
1.36077e-09
7.62959e-08
1.34769e-09
7.62897e-08
1.33668e-09
7.62837e-08
1.32423e-09
7.62776e-08
1.31411e-09
7.62716e-08
1.30217e-09
7.62655e-08
1.29289e-09
7.62594e-08
1.28141e-09
7.62532e-08
1.27283e-09
7.62469e-08
1.26166e-09
7.62404e-08
1.25359e-09
7.62338e-08
1.24254e-09
7.6227e-08
1.23484e-09
7.622e-08
1.22381e-09
7.62126e-08
1.21658e-09
7.62051e-08
1.20535e-09
7.61972e-08
1.19857e-09
7.61891e-08
1.18697e-09
7.61804e-08
1.18044e-09
7.61716e-08
1.16828e-09
7.61621e-08
1.16194e-09
7.61523e-08
1.14931e-09
7.61421e-08
1.14282e-09
7.61312e-08
1.12967e-09
7.612e-08
1.12315e-09
7.61081e-08
1.10924e-09
7.60957e-08
1.10266e-09
7.60826e-08
1.0877e-09
7.60689e-08
1.08121e-09
7.60545e-08
1.06504e-09
7.60397e-08
1.05834e-09
7.60238e-08
1.04136e-09
7.60076e-08
1.03444e-09
7.59902e-08
1.01656e-09
7.59725e-08
1.00901e-09
7.59536e-08
9.90082e-10
7.59342e-08
9.8288e-10
7.59137e-08
9.62391e-10
7.58929e-08
9.5539e-10
7.58706e-08
9.34601e-10
7.58479e-08
9.27645e-10
7.58233e-08
9.0614e-10
7.5799e-08
8.98259e-10
7.57732e-08
8.76297e-10
7.5747e-08
8.71387e-10
7.57187e-08
8.4973e-10
7.569e-08
8.45421e-10
7.56593e-08
8.23578e-10
7.56292e-08
8.19888e-10
7.5597e-08
8.01738e-10
7.55638e-08
8.03876e-10
7.8685e-10
8.31888e-08
1.8131e-09
-8.31309e-08
8.32688e-08
1.95315e-09
8.33704e-08
2.07643e-09
8.34913e-08
2.19101e-09
8.36284e-08
2.29328e-09
8.37704e-08
2.37769e-09
8.39073e-08
2.43471e-09
8.40313e-08
2.46427e-09
8.41375e-08
2.46914e-09
8.42248e-08
2.45396e-09
8.42941e-08
2.42465e-09
8.43475e-08
2.38649e-09
8.43874e-08
2.34393e-09
8.4416e-08
2.29962e-09
8.44356e-08
2.25558e-09
8.44484e-08
2.21258e-09
8.44561e-08
2.1713e-09
8.44598e-08
2.13134e-09
8.44603e-08
2.09269e-09
8.44581e-08
2.05471e-09
8.44537e-08
2.01768e-09
8.44478e-08
1.98123e-09
8.44405e-08
1.94593e-09
8.44323e-08
1.9114e-09
8.44234e-08
1.87823e-09
8.4414e-08
1.84586e-09
8.44043e-08
1.81494e-09
8.43943e-08
1.78471e-09
8.43842e-08
1.75597e-09
8.43742e-08
1.72782e-09
8.43642e-08
1.70122e-09
8.43544e-08
1.67512e-09
8.43448e-08
1.65058e-09
8.43354e-08
1.62645e-09
8.43264e-08
1.60387e-09
8.43176e-08
1.58163e-09
8.43092e-08
1.56088e-09
8.43011e-08
1.54037e-09
8.42933e-08
1.52133e-09
8.42859e-08
1.50239e-09
8.42789e-08
1.48494e-09
8.42721e-08
1.4674e-09
8.42657e-08
1.4514e-09
8.42596e-08
1.4351e-09
8.42537e-08
1.42047e-09
8.42482e-08
1.40528e-09
8.42429e-08
1.39192e-09
8.42379e-08
1.37772e-09
8.42331e-08
1.36553e-09
8.42287e-08
1.35216e-09
8.42244e-08
1.34098e-09
8.42203e-08
1.32828e-09
8.42164e-08
1.31803e-09
8.42127e-08
1.30585e-09
8.42092e-08
1.29644e-09
8.42058e-08
1.28477e-09
8.42026e-08
1.27604e-09
8.41995e-08
1.26476e-09
8.41966e-08
1.25653e-09
8.41937e-08
1.24545e-09
8.41909e-08
1.23763e-09
8.41881e-08
1.22656e-09
8.41854e-08
1.21928e-09
8.41828e-08
1.20799e-09
8.41802e-08
1.2012e-09
8.41775e-08
1.18959e-09
8.41749e-08
1.18306e-09
8.41722e-08
1.171e-09
8.41696e-08
1.16457e-09
8.41666e-08
1.15222e-09
8.41639e-08
1.14558e-09
8.41608e-08
1.13276e-09
8.41578e-08
1.12613e-09
8.41545e-08
1.11257e-09
8.41512e-08
1.10596e-09
8.41475e-08
1.09136e-09
8.41438e-08
1.08488e-09
8.41397e-08
1.06921e-09
8.41356e-08
1.06239e-09
8.41309e-08
1.0461e-09
8.41263e-08
1.03901e-09
8.41209e-08
1.02195e-09
8.41157e-08
1.01427e-09
8.41097e-08
9.96079e-10
8.41036e-08
9.88962e-10
8.40967e-08
9.69299e-10
8.40899e-08
9.62165e-10
8.40821e-08
9.42449e-10
8.40743e-08
9.35414e-10
8.40651e-08
9.15363e-10
8.40559e-08
9.07437e-10
8.40459e-08
8.8627e-10
8.40358e-08
8.81498e-10
8.40243e-08
8.61288e-10
8.40124e-08
8.57318e-10
8.39987e-08
8.37191e-10
8.39854e-08
8.33222e-10
8.39709e-08
8.16206e-10
8.3956e-08
8.18861e-10
8.03098e-10
9.20311e-08
1.76143e-09
-9.19795e-08
9.21e-08
1.88427e-09
9.21855e-08
1.99093e-09
9.2286e-08
2.09055e-09
9.23987e-08
2.18056e-09
9.25177e-08
2.25863e-09
9.26352e-08
2.31727e-09
9.27447e-08
2.35469e-09
9.28417e-08
2.37214e-09
9.29237e-08
2.37197e-09
9.29905e-08
2.35793e-09
9.30432e-08
2.33379e-09
9.30837e-08
2.30335e-09
9.31141e-08
2.26922e-09
9.31362e-08
2.23352e-09
9.31516e-08
2.19717e-09
9.31618e-08
2.16108e-09
9.31679e-08
2.12521e-09
9.31708e-08
2.08988e-09
9.31708e-08
2.05466e-09
9.31685e-08
2.01993e-09
9.31644e-08
1.98534e-09
9.31589e-08
1.9515e-09
9.31522e-08
1.91808e-09
9.31447e-08
1.88574e-09
9.31366e-08
1.85396e-09
9.31281e-08
1.82347e-09
9.31193e-08
1.79351e-09
9.31103e-08
1.76495e-09
9.31013e-08
1.73685e-09
9.30922e-08
1.71024e-09
9.30833e-08
1.68403e-09
9.30746e-08
1.65934e-09
9.3066e-08
1.63502e-09
9.30577e-08
1.61218e-09
9.30496e-08
1.58968e-09
9.30419e-08
1.56863e-09
9.30344e-08
1.54783e-09
9.30273e-08
1.52846e-09
9.30204e-08
1.50923e-09
9.30139e-08
1.49144e-09
9.30077e-08
1.4736e-09
9.30018e-08
1.4573e-09
9.29962e-08
1.4407e-09
9.29909e-08
1.42579e-09
9.29859e-08
1.4103e-09
9.29812e-08
1.39668e-09
9.29767e-08
1.38218e-09
9.29725e-08
1.36975e-09
9.29685e-08
1.35609e-09
9.29648e-08
1.3447e-09
9.29614e-08
1.33174e-09
9.29581e-08
1.32129e-09
9.2955e-08
1.30891e-09
9.29522e-08
1.29926e-09
9.29495e-08
1.28745e-09
9.29471e-08
1.27845e-09
9.29448e-08
1.26707e-09
9.29428e-08
1.25858e-09
9.29408e-08
1.24744e-09
9.2939e-08
1.23941e-09
9.29373e-08
1.22825e-09
9.29358e-08
1.22081e-09
9.29344e-08
1.20941e-09
9.29331e-08
1.20248e-09
9.29319e-08
1.19082e-09
9.29308e-08
1.1841e-09
9.29297e-08
1.17213e-09
9.29289e-08
1.16541e-09
9.29278e-08
1.15325e-09
9.29271e-08
1.14633e-09
9.29262e-08
1.13369e-09
9.29254e-08
1.12685e-09
9.29246e-08
1.11342e-09
9.29239e-08
1.10667e-09
9.2923e-08
1.09224e-09
9.29223e-08
1.08558e-09
9.29213e-08
1.07025e-09
9.29205e-08
1.06319e-09
9.29193e-08
1.04728e-09
9.29183e-08
1.03996e-09
9.2917e-08
1.02331e-09
9.29157e-08
1.01556e-09
9.2914e-08
9.97707e-10
9.29125e-08
9.90547e-10
9.29103e-08
9.71443e-10
9.29083e-08
9.64171e-10
9.29057e-08
9.45031e-10
9.29033e-08
9.37874e-10
9.29e-08
9.18603e-10
9.28965e-08
9.10985e-10
9.28924e-08
8.9033e-10
9.28884e-08
8.85536e-10
9.28836e-08
8.66073e-10
9.28785e-08
8.62379e-10
9.28723e-08
8.43435e-10
9.28657e-08
8.39844e-10
9.28587e-08
8.23207e-10
9.28516e-08
8.25965e-10
8.11032e-10
1.01797e-07
1.71766e-09
-1.01753e-07
1.01854e-07
1.8275e-09
1.01923e-07
1.92164e-09
1.02004e-07
2.01004e-09
1.02093e-07
2.09086e-09
1.02189e-07
2.16272e-09
1.02285e-07
2.22105e-09
1.02377e-07
2.26278e-09
1.02461e-07
2.28847e-09
1.02534e-07
2.29919e-09
1.02595e-07
2.29713e-09
1.02644e-07
2.28468e-09
1.02682e-07
2.26473e-09
1.02712e-07
2.23951e-09
1.02734e-07
2.21117e-09
1.02751e-07
2.1808e-09
1.02762e-07
2.14951e-09
1.0277e-07
2.1175e-09
1.02775e-07
2.08532e-09
1.02776e-07
2.05277e-09
1.02776e-07
2.02027e-09
1.02774e-07
1.98757e-09
1.0277e-07
1.95526e-09
1.02765e-07