/*--------------------------------*- C++ -*----------------------------------*\
| =========                 |                                                 |
| \\      /  F ield         | OpenFOAM: The Open Source CFD Toolbox           |
|  \\    /   O peration     | Version:  2.3.0                                 |
|   \\  /    A nd           | Web:      www.OpenFOAM.org                      |
|    \\/     M anipulation  |                                                 |
\*---------------------------------------------------------------------------*/
FoamFile
{
    version     2.0;
    format      ascii;
    class       surfaceScalarField;
    location    "0.25";
    object      phi_0;
}
// * * * * * * * * * * * * * * * * * * * * * * * * * * * * * * * * * * * * * //

dimensions      [0 3 -1 0 0 0 0];

internalField   nonuniform List<scalar> 
5273
(
3.22996e-08
2.28548e-09
2.89637e-08
3.33584e-09
2.57746e-08
3.18912e-09
2.27034e-08
3.07123e-09
1.97345e-08
2.96889e-09
1.69808e-08
2.75363e-09
1.45846e-08
2.39624e-09
1.26054e-08
1.97916e-09
1.10526e-08
1.55287e-09
9.88827e-09
1.1643e-09
9.04071e-09
8.47566e-10
8.43081e-09
6.099e-10
7.98775e-09
4.43056e-10
7.65504e-09
3.3271e-10
7.39174e-09
2.63295e-10
7.16986e-09
2.21889e-10
6.97173e-09
1.98128e-10
6.7877e-09
1.84027e-10
6.61339e-09
1.74313e-10
6.44732e-09
1.66066e-10
6.28934e-09
1.57978e-10
6.13968e-09
1.49665e-10
5.9985e-09
1.4118e-10
5.86576e-09
1.32733e-10
5.74122e-09
1.24543e-10
5.62445e-09
1.16773e-10
5.51492e-09
1.09526e-10
5.41208e-09
1.02842e-10
5.31536e-09
9.67157e-11
5.22425e-09
9.11192e-11
5.13824e-09
8.60083e-11
5.05691e-09
8.13292e-11
4.97988e-09
7.70303e-11
4.90681e-09
7.30639e-11
4.83743e-09
6.93881e-11
4.77146e-09
6.59645e-11
4.7087e-09
6.27564e-11
4.64897e-09
5.9737e-11
4.59208e-09
5.68864e-11
4.5379e-09
5.41812e-11
4.4863e-09
5.1597e-11
4.43718e-09
4.91225e-11
4.39043e-09
4.67499e-11
4.34597e-09
4.44641e-11
4.30372e-09
4.22477e-11
4.26363e-09
4.00912e-11
4.22563e-09
3.79966e-11
4.18967e-09
3.59586e-11
4.15571e-09
3.39594e-11
4.12373e-09
3.19852e-11
4.09368e-09
3.0045e-11
4.06553e-09
2.81483e-11
4.03926e-09
2.62789e-11
4.01484e-09
2.4416e-11
3.99228e-09
2.25636e-11
3.97153e-09
2.07467e-11
3.95256e-09
1.897e-11
3.93535e-09
1.72075e-11
3.91991e-09
1.54466e-11
3.90618e-09
1.37241e-11
3.89407e-09
1.2108e-11
3.88344e-09
1.06364e-11
3.87413e-09
9.30704e-12
3.866e-09
8.13009e-12
3.85884e-09
7.16221e-12
3.85237e-09
6.46569e-12
3.84634e-09
6.02781e-12
3.84059e-09
5.7535e-12
3.83505e-09
5.54522e-12
3.82967e-09
5.37932e-12
3.82437e-09
5.29674e-12
3.81906e-09
5.30969e-12
3.81371e-09
5.3473e-12
3.80841e-09
5.30023e-12
3.80329e-09
5.12052e-12
3.79841e-09
4.87738e-12
3.79373e-09
4.68762e-12
3.78912e-09
4.61119e-12
3.78453e-09
4.58432e-12
3.78005e-09
4.48173e-12
3.77583e-09
4.22327e-12
3.77197e-09
3.85768e-12
3.76845e-09
3.51986e-12
3.76511e-09
3.33805e-12
3.76179e-09
3.32145e-12
3.75843e-09
3.36336e-12
3.75513e-09
3.29604e-12
3.7521e-09
3.02443e-12
3.74955e-09
2.55908e-12
3.7475e-09
2.04381e-12
3.74587e-09
1.63502e-12
3.74439e-09
1.47813e-12
3.74283e-09
1.55747e-12
3.74098e-09
1.85627e-12
3.73885e-09
2.12516e-12
3.73642e-09
2.43118e-12
3.734e-09
2.41384e-12
3.73151e-09
2.49817e-12
3.72935e-09
2.15949e-12
1.84806e-12
3.6636e-08
1.5195e-09
3.6764e-08
3.20786e-09
3.632e-08
3.63309e-09
3.56876e-08
3.70361e-09
3.486e-08
3.79655e-09
3.38059e-08
3.80776e-09
3.25633e-08
3.63877e-09
3.12205e-08
3.32198e-09
2.98577e-08
2.91567e-09
2.85345e-08
2.48746e-09
2.72877e-08
2.09442e-09
2.61335e-08
1.76413e-09
2.50761e-08
1.50044e-09
2.41126e-08
1.29615e-09
2.32391e-08
1.1368e-09
2.2448e-08
1.01301e-09
2.17295e-08
9.16602e-10
2.10743e-08
8.39251e-10
2.0474e-08
7.74622e-10
1.99215e-08
7.18533e-10
1.9411e-08
6.68482e-10
1.89376e-08
6.23063e-10
1.84973e-08
5.81509e-10
1.80867e-08
5.43398e-10
1.77027e-08
5.08457e-10
1.7343e-08
4.76474e-10
1.70053e-08
4.47246e-10
1.66876e-08
4.20553e-10
1.63882e-08
3.96167e-10
1.61054e-08
3.73862e-10
1.5838e-08
3.53417e-10
1.55847e-08
3.34616e-10
1.53445e-08
3.17263e-10
1.51164e-08
3.01182e-10
1.48995e-08
2.86221e-10
1.46933e-08
2.7224e-10
1.44969e-08
2.59111e-10
1.43099e-08
2.46731e-10
1.41318e-08
2.35016e-10
1.39621e-08
2.23882e-10
1.38004e-08
2.13243e-10
1.36465e-08
2.03045e-10
1.35e-08
1.93247e-10
1.33607e-08
1.83791e-10
1.32283e-08
1.74619e-10
1.31027e-08
1.65693e-10
1.29837e-08
1.57001e-10
1.28712e-08
1.48517e-10
1.27649e-08
1.4019e-10
1.26649e-08
1.31984e-10
1.25711e-08
1.23912e-10
1.24832e-08
1.15989e-10
1.24013e-08
1.0818e-10
1.23253e-08
1.00445e-10
1.2255e-08
9.28014e-11
1.21905e-08
8.53153e-11
1.21314e-08
7.80143e-11
1.20778e-08
7.08685e-11
1.20293e-08
6.38862e-11
1.19859e-08
5.71883e-11
1.1947e-08
5.0962e-11
1.19123e-08
4.53232e-11
1.18813e-08
4.02953e-11
1.18536e-08
3.59173e-11
1.18284e-08
3.23096e-11
1.18053e-08
2.95795e-11
1.17837e-08
2.76541e-11
1.17631e-08
2.62791e-11
1.17435e-08
2.52012e-11
1.17245e-08
2.43315e-11
1.17061e-08
2.37197e-11
1.16881e-08
2.33517e-11
1.16704e-08
2.30469e-11
1.16531e-08
2.2562e-11
1.16364e-08
2.18062e-11
1.16204e-08
2.09402e-11
1.16048e-08
2.02149e-11
1.15897e-08
1.97408e-11
1.15749e-08
1.93664e-11
1.15606e-08
1.88216e-11
1.15468e-08
1.79561e-11
1.15338e-08
1.68926e-11
1.15214e-08
1.59277e-11
1.15094e-08
1.53095e-11
1.14977e-08
1.50253e-11
1.14863e-08
1.48094e-11
1.14753e-08
1.43062e-11
1.1465e-08
1.33233e-11
1.14556e-08
1.19304e-11
1.14472e-08
1.04409e-11
1.14396e-08
9.21162e-12
1.14326e-08
8.50205e-12
1.14259e-08
8.27882e-12
1.14193e-08
8.4385e-12
1.14129e-08
8.48965e-12
1.14068e-08
8.54627e-12
1.14013e-08
7.951e-12
1.13963e-08
7.5302e-12
1.13918e-08
6.56976e-12
5.19065e-12
3.77193e-08
1.00294e-09
3.83634e-08
2.56384e-09
3.87096e-08
3.28687e-09
3.89172e-08
3.49597e-09
3.90806e-08
3.63315e-09
3.91378e-08
3.75062e-09
3.90253e-08
3.75126e-09
3.87465e-08
3.6008e-09
3.83303e-08
3.3318e-09
3.78139e-08
3.00387e-09
3.72333e-08
2.675e-09
3.66152e-08
2.38222e-09
3.59774e-08
2.1383e-09
3.53327e-08
1.94083e-09
3.46892e-08
1.7803e-09
3.40531e-08
1.64913e-09
3.34287e-08
1.54101e-09
3.28183e-08
1.44964e-09
3.22232e-08
1.36971e-09
3.16442e-08
1.2975e-09
3.1082e-08
1.23071e-09
3.0537e-08
1.16806e-09
3.00096e-08
1.10892e-09
2.95e-08
1.05299e-09
2.90083e-08
1.00014e-09
2.85345e-08
9.50284e-10
2.80784e-08
9.03368e-10
2.76397e-08
8.59279e-10
2.72179e-08
8.17884e-10
2.68128e-08
7.79033e-10
2.64236e-08
7.42558e-10
2.605e-08
7.08274e-10
2.56912e-08
6.75996e-10
2.53469e-08
6.45551e-10
2.50163e-08
6.1678e-10
2.4699e-08
5.89519e-10
2.43945e-08
5.63607e-10
2.41023e-08
5.38916e-10
2.3822e-08
5.15332e-10
2.35532e-08
4.92728e-10
2.32954e-08
4.70976e-10
2.30485e-08
4.49988e-10
2.28121e-08
4.29695e-10
2.25858e-08
4.10002e-10
2.23697e-08
3.90805e-10
2.21633e-08
3.72034e-10
2.19667e-08
3.53668e-10
2.17795e-08
3.35656e-10
2.16018e-08
3.1791e-10
2.14334e-08
3.00366e-10
2.12743e-08
2.83043e-10
2.11243e-08
2.65968e-10
2.09834e-08
2.49088e-10
2.08515e-08
2.32345e-10
2.07285e-08
2.15774e-10
2.06143e-08
1.99501e-10
2.05088e-08
1.83601e-10
2.04116e-08
1.68052e-10
2.03226e-08
1.52895e-10
2.02414e-08
1.38355e-10
2.01676e-08
1.24765e-10
2.01006e-08
1.1234e-10
2.00397e-08
1.01137e-10
1.99844e-08
9.12348e-11
1.99339e-08
8.28389e-11
1.98873e-08
7.6131e-11
1.9844e-08
7.09941e-11
1.98033e-08
6.70057e-11
1.97647e-08
6.37342e-11
1.97281e-08
6.10046e-11
1.96929e-08
5.88641e-11
1.9659e-08
5.72594e-11
1.96262e-08
5.58758e-11
1.95944e-08
5.43009e-11
1.95639e-08
5.23762e-11
1.95345e-08
5.03429e-11
1.95061e-08
4.85967e-11
1.94785e-08
4.73035e-11
1.94517e-08
4.62286e-11
1.94255e-08
4.49409e-11
1.94003e-08
4.32167e-11
1.93759e-08
4.12388e-11
1.93524e-08
3.94769e-11
1.93294e-08
3.82859e-11
1.93068e-08
3.76472e-11
1.92845e-08
3.71094e-11
1.92626e-08
3.61528e-11
1.92415e-08
3.44396e-11
1.92213e-08
3.21304e-11
1.92022e-08
2.96024e-11
1.91839e-08
2.74502e-11
1.91666e-08
2.58675e-11
1.91499e-08
2.49134e-11
1.91342e-08
2.41654e-11
1.91195e-08
2.31879e-11
1.91062e-08
2.17994e-11
1.90945e-08
1.96969e-11
1.90847e-08
1.73325e-11
1.90761e-08
1.52126e-11
1.14846e-11
3.88712e-08
7.16804e-10
3.94287e-08
2.00637e-09
3.98964e-08
2.81914e-09
4.02411e-08
3.15126e-09
4.0578e-08
3.29627e-09
4.09129e-08
3.41567e-09
4.11878e-08
3.47638e-09
4.13652e-08
3.42343e-09
4.14362e-08
3.26076e-09
4.14118e-08
3.02829e-09
4.13117e-08
2.77512e-09
4.11546e-08
2.53935e-09
4.09548e-08
2.33806e-09
4.07226e-08
2.17306e-09
4.04643e-08
2.0386e-09
4.01854e-08
1.92802e-09
3.98906e-08
1.83583e-09
3.9583e-08
1.75723e-09
3.92646e-08
1.68805e-09
3.89371e-08
1.62509e-09
3.86016e-08
1.56618e-09
3.82596e-08
1.51007e-09
3.79124e-08
1.45609e-09
3.75614e-08
1.40398e-09
3.72079e-08
1.35363e-09
3.68532e-08
1.30502e-09
3.64984e-08
1.25819e-09
3.61445e-08
1.21311e-09
3.57927e-08
1.16976e-09
3.54436e-08
1.12809e-09
3.50981e-08
1.08804e-09
3.47569e-08
1.04951e-09
3.44205e-08
1.01239e-09
3.40894e-08
9.76592e-10
3.37642e-08
9.42032e-10
3.34451e-08
9.086e-10
3.31325e-08
8.76169e-10
3.28268e-08
8.44665e-10
3.25281e-08
8.14026e-10
3.22367e-08
7.8414e-10
3.19528e-08
7.54885e-10
3.16766e-08
7.26208e-10
3.14082e-08
6.98073e-10
3.11478e-08
6.70384e-10
3.08956e-08
6.4302e-10
3.06517e-08
6.15922e-10
3.04163e-08
5.89106e-10
3.01894e-08
5.62525e-10
2.99712e-08
5.36053e-10
2.9762e-08
5.09621e-10
2.95617e-08
4.833e-10
2.93706e-08
4.57146e-10
2.91886e-08
4.31082e-10
2.90159e-08
4.05031e-10
2.88526e-08
3.79081e-10
2.86986e-08
3.53451e-10
2.8554e-08
3.28255e-10
2.84185e-08
3.03467e-10
2.82923e-08
2.79166e-10
2.81749e-08
2.55713e-10
2.80661e-08
2.336e-10
2.79653e-08
2.13104e-10
2.78722e-08
1.94282e-10
2.77861e-08
1.77262e-10
2.77066e-08
1.62398e-10
2.76327e-08
1.49996e-10
2.75638e-08
1.39912e-10
2.74992e-08
1.31567e-10
2.74386e-08
1.24407e-10
2.73813e-08
1.18259e-10
2.7327e-08
1.13229e-10
2.7275e-08
1.09201e-10
2.72252e-08
1.05663e-10
2.71775e-08
1.01994e-10
2.71319e-08
9.80017e-11
2.70882e-08
9.40609e-11
2.70461e-08
9.0725e-11
2.70052e-08
8.81347e-11
2.69656e-08
8.589e-11
2.69272e-08
8.33599e-11
2.689e-08
8.03365e-11
2.68541e-08
7.71595e-11
2.6819e-08
7.45574e-11
2.67844e-08
7.29059e-11
2.675e-08
7.20887e-11
2.67158e-08
7.12973e-11
2.6682e-08
6.99235e-11
2.66489e-08
6.7511e-11
2.66164e-08
6.4639e-11
2.65843e-08
6.16827e-11
2.65521e-08
5.97123e-11
2.65197e-08
5.82948e-11
2.64868e-08
5.77959e-11
2.64545e-08
5.64464e-11
2.6423e-08
5.46953e-11
2.63942e-08
5.05415e-11
2.63677e-08
4.621e-11
2.6346e-08
3.91024e-11
2.63262e-08
3.50169e-11
2.57419e-11
4.01879e-08
5.47617e-10
4.06128e-08
1.58149e-09
4.10567e-08
2.37523e-09
4.14165e-08
2.79141e-09
4.17382e-08
2.9746e-09
4.20721e-08
3.08175e-09
4.23966e-08
3.15189e-09
4.26754e-08
3.14463e-09
4.28876e-08
3.04856e-09
4.30313e-08
2.88453e-09
4.31171e-08
2.68935e-09
4.31589e-08
2.49759e-09
4.31676e-08
2.32929e-09
4.31507e-08
2.19002e-09
4.31125e-08
2.07683e-09
4.30563e-08
1.98416e-09
4.29851e-08
1.90703e-09
4.29008e-08
1.84151e-09
4.28045e-08
1.78436e-09
4.26967e-08
1.73293e-09
4.25776e-08
1.68529e-09
4.24475e-08
1.64014e-09
4.23069e-08
1.59672e-09
4.21562e-08
1.55467e-09
4.1996e-08
1.51379e-09
4.1827e-08
1.474e-09
4.165e-08
1.43527e-09
4.14655e-08
1.39761e-09
4.12743e-08
1.36096e-09
4.10771e-08
1.32524e-09
4.08747e-08
1.29045e-09
4.06677e-08
1.25653e-09
4.04567e-08
1.22335e-09
4.02425e-08
1.19081e-09
4.00256e-08
1.15892e-09
3.98066e-08
1.12758e-09
3.95862e-08
1.09664e-09
3.93648e-08
1.06603e-09
3.9143e-08
1.03579e-09
3.89214e-08
1.00582e-09
3.87003e-08
9.75916e-10
3.84805e-08
9.46059e-10
3.82622e-08
9.1632e-10
3.8046e-08
8.86614e-10
3.78323e-08
8.5672e-10
3.76216e-08
8.26577e-10
3.74144e-08
7.96342e-10
3.72109e-08
7.66011e-10
3.70116e-08
7.35334e-10
3.68171e-08
7.04184e-10
3.66276e-08
6.72784e-10
3.64434e-08
6.41325e-10
3.62649e-08
6.09629e-10
3.60924e-08
5.77475e-10
3.59264e-08
5.45057e-10
3.5767e-08
5.12846e-10
3.56143e-08
4.81013e-10
3.54684e-08
4.49344e-10
3.53297e-08
4.17855e-10
3.51983e-08
3.87182e-10
3.50737e-08
3.58137e-10
3.49558e-08
3.30975e-10
3.48446e-08
3.05488e-10
3.47401e-08
2.81771e-10
3.4642e-08
2.60547e-10
3.45495e-08
2.42491e-10
3.4462e-08
2.27379e-10
3.43794e-08
2.14209e-10
3.43016e-08
2.02229e-10
3.42283e-08
1.91568e-10
3.41587e-08
1.82802e-10
3.4092e-08
1.75835e-10
3.40281e-08
1.69643e-10
3.3967e-08
1.63039e-10
3.39092e-08
1.55856e-10
3.38542e-08
1.49027e-10
3.38012e-08
1.43675e-10
3.37495e-08
1.39842e-10
3.3699e-08
1.3648e-10
3.36501e-08
1.32235e-10
3.36035e-08
1.26922e-10
3.35592e-08
1.21499e-10
3.3516e-08
1.17661e-10
3.3473e-08
1.15997e-10
3.3429e-08
1.16062e-10
3.33845e-08
1.15826e-10
3.33402e-08
1.14182e-10
3.32975e-08
1.10235e-10
3.32562e-08
1.05909e-10
3.32159e-08
1.01952e-10
3.31743e-08
1.01354e-10
3.31303e-08
1.02257e-10
3.30818e-08
1.0636e-10
3.30305e-08
1.07685e-10
3.29757e-08
1.09483e-10
3.2923e-08
1.0329e-10
3.28703e-08
9.88826e-11
3.28257e-08
8.37213e-11
3.27827e-08
7.8006e-11
5.74808e-11
4.16167e-08
4.3646e-10
4.19301e-08
1.26811e-09
4.23167e-08
1.98869e-09
4.26666e-08
2.44143e-09
4.29692e-08
2.67202e-09
4.32643e-08
2.78671e-09
4.35611e-08
2.85502e-09
4.38357e-08
2.87004e-09
4.40669e-08
2.81737e-09
4.4247e-08
2.7045e-09
4.43809e-08
2.55542e-09
4.44799e-08
2.39858e-09
4.45542e-08
2.25496e-09
4.46107e-08
2.13351e-09
4.46535e-08
2.03406e-09
4.46852e-08
1.95247e-09
4.47079e-08
1.88438e-09
4.47229e-08
1.82644e-09
4.47312e-08
1.77606e-09
4.4733e-08
1.73119e-09
4.4728e-08
1.69023e-09
4.47162e-08
1.65197e-09
4.46973e-08
1.61559e-09
4.46713e-08
1.5807e-09
4.4638e-08
1.54704e-09
4.45976e-08
1.5144e-09
4.45502e-08
1.4827e-09
4.44959e-08
1.45196e-09
4.44348e-08
1.42206e-09
4.43672e-08
1.39285e-09
4.42933e-08
1.36433e-09
4.42133e-08
1.33649e-09
4.41275e-08
1.30913e-09
4.40363e-08
1.28208e-09
4.39398e-08
1.25539e-09
4.38383e-08
1.22905e-09
4.37322e-08
1.20278e-09
4.36218e-08
1.17642e-09
4.35075e-08
1.15014e-09
4.33894e-08
1.12391e-09
4.32679e-08
1.09738e-09
4.31436e-08
1.07037e-09
4.30168e-08
1.04315e-09
4.28876e-08
1.01579e-09
4.27565e-08
9.87853e-10
4.2624e-08
9.59041e-10
4.24906e-08
9.29726e-10
4.23564e-08
9.00197e-10
4.22218e-08
8.7001e-10
4.20873e-08
8.3865e-10
4.19536e-08
8.06466e-10
4.18208e-08
7.7413e-10
4.1689e-08
7.41466e-10
4.15587e-08
7.07724e-10
4.14309e-08
6.72919e-10
4.13056e-08
6.38094e-10
4.11827e-08
6.0388e-10
4.10624e-08
5.6966e-10
4.09455e-08
5.34793e-10
4.08326e-08
5.00098e-10
4.07234e-08
4.67285e-10
4.06174e-08
4.36946e-10
4.05148e-08
4.08124e-10
4.04164e-08
3.80135e-10
4.03229e-08
3.54107e-10
4.02335e-08
3.31905e-10
4.01471e-08
3.13757e-10
4.00636e-08
2.97717e-10
3.99839e-08
2.81897e-10
3.99089e-08
2.66583e-10
3.98379e-08
2.53799e-10
3.97693e-08
2.44488e-10
3.97019e-08
2.37022e-10
3.96364e-08
2.28475e-10
3.95745e-08
2.17757e-10
3.95169e-08
2.06684e-10
3.94622e-08
1.98374e-10
3.94082e-08
1.93834e-10
3.93536e-08
1.91104e-10
3.92993e-08
1.86547e-10
3.92475e-08
1.78692e-10
3.92e-08
1.69004e-10
3.91559e-08
1.61704e-10
3.91127e-08
1.59221e-10
3.9067e-08
1.61772e-10
3.90179e-08
1.64953e-10
3.89664e-08
1.65678e-10
3.89163e-08
1.60355e-10
3.88695e-08
1.52655e-10
3.88277e-08
1.43741e-10
3.87869e-08
1.4216e-10
3.87448e-08
1.4436e-10
3.86939e-08
1.57319e-10
3.86354e-08
1.66118e-10
3.85638e-08
1.81122e-10
3.84892e-08
1.77837e-10
3.8406e-08
1.82087e-10
3.83315e-08
1.58207e-10
3.82543e-08
1.55239e-10
1.17707e-10
4.31278e-08
3.56399e-10
4.33579e-08
1.038e-09
4.36817e-08
1.66493e-09
4.40057e-08
2.11741e-09
4.42946e-08
2.38304e-09
4.4562e-08
2.51937e-09
4.48261e-08
2.59094e-09
4.50778e-08
2.61828e-09
4.53002e-08
2.59495e-09
4.54831e-08
2.52164e-09
4.56267e-08
2.41181e-09
4.57389e-08
2.28638e-09
4.58291e-08
2.16475e-09
4.59045e-08
2.05816e-09
4.59694e-08
1.96916e-09
4.60265e-08
1.89537e-09
4.60776e-08
1.83325e-09
4.61241e-08
1.7799e-09
4.6167e-08
1.73314e-09
4.62068e-08
1.69143e-09
4.62435e-08
1.65356e-09
4.62769e-08
1.61851e-09
4.6307e-08
1.58549e-09
4.63336e-08
1.55413e-09
4.63565e-08
1.52418e-09
4.63755e-08
1.49533e-09
4.63908e-08
1.46747e-09
4.64021e-08
1.44064e-09
4.64094e-08
1.41476e-09
4.64127e-08
1.38953e-09
4.64121e-08
1.36494e-09
4.64074e-08
1.34113e-09
4.63987e-08
1.31786e-09
4.6386e-08
1.29476e-09
4.63695e-08
1.27196e-09
4.63489e-08
1.24963e-09
4.63243e-08
1.22737e-09
4.62959e-08
1.20478e-09
4.62639e-08
1.18213e-09
4.62281e-08
1.15971e-09
4.61886e-08
1.13695e-09
4.61456e-08
1.11333e-09
4.60995e-08
1.08926e-09
4.605e-08
1.06525e-09
4.59972e-08
1.0407e-09
4.59415e-08
1.01474e-09
4.58834e-08
9.87818e-10
4.58227e-08
9.60874e-10
4.57592e-08
9.33492e-10
4.56935e-08
9.04386e-10
4.56263e-08
8.73647e-10
4.55577e-08
8.42748e-10
4.54871e-08
8.12044e-10
4.54148e-08
7.80026e-10
4.53419e-08
7.45822e-10
4.5269e-08
7.10986e-10
4.51955e-08
6.77382e-10
4.51208e-08
6.44351e-10
4.50458e-08
6.09842e-10
4.49719e-08
5.74015e-10
4.48993e-08
5.39842e-10
4.48269e-08
5.0935e-10
4.4754e-08
4.81011e-10
4.4682e-08
4.52177e-10
4.46127e-08
4.23376e-10
4.45463e-08
3.98276e-10
4.4481e-08
3.79086e-10
4.44154e-08
3.63337e-10
4.43506e-08
3.46631e-10
4.42894e-08
3.27865e-10
4.42324e-08
3.1078e-10
4.41776e-08
2.99279e-10
4.4122e-08
2.9259e-10
4.40652e-08
2.85266e-10
4.40099e-08
2.73056e-10
4.39594e-08
2.57254e-10
4.39137e-08
2.44075e-10
4.38695e-08
2.38021e-10
4.38227e-08
2.37913e-10
4.37724e-08
2.36805e-10
4.37218e-08
2.29271e-10
4.36759e-08
2.14895e-10
4.36368e-08
2.00877e-10
4.36021e-08
1.93839e-10
4.35658e-08
1.98079e-10
4.35233e-08
2.0749e-10
4.34728e-08
2.16181e-10
4.34195e-08
2.13649e-10
4.33684e-08
2.03794e-10
4.33266e-08
1.8551e-10
4.32915e-08
1.77238e-10
4.32625e-08
1.73388e-10
4.32255e-08
1.94338e-10
4.31803e-08
2.11245e-10
4.31115e-08
2.49925e-10
4.30326e-08
2.56772e-10
4.29301e-08
2.84595e-10
4.28315e-08
2.56771e-10
4.27204e-08
2.66413e-10
2.11053e-10
4.47078e-08
2.95724e-10
4.48816e-08
8.64288e-10
4.5146e-08
1.40046e-09
4.54347e-08
1.82874e-09
4.57075e-08
2.11028e-09
4.59569e-08
2.26993e-09
4.61951e-08
2.35271e-09
4.64238e-08
2.38964e-09
4.66323e-08
2.38647e-09
4.68108e-08
2.34312e-09
4.69563e-08
2.26632e-09
4.70727e-08
2.16991e-09
4.71678e-08
2.06973e-09
4.72483e-08
1.97759e-09
4.73192e-08
1.89833e-09
4.7383e-08
1.83149e-09
4.74417e-08
1.77459e-09
4.74964e-08
1.72516e-09
4.75483e-08
1.68128e-09
4.7598e-08
1.64172e-09
4.76459e-08
1.60569e-09
4.7692e-08
1.57236e-09
4.77365e-08
1.54102e-09
4.77792e-08
1.51138e-09
4.78202e-08
1.48326e-09
4.78593e-08
1.45625e-09
4.78965e-08
1.43018e-09
4.7932e-08
1.40523e-09
4.79654e-08
1.38131e-09
4.79969e-08
1.358e-09
4.80266e-08
1.33529e-09
4.80542e-08
1.3135e-09
4.80797e-08
1.29236e-09
4.81032e-08
1.27131e-09
4.81247e-08
1.2505e-09
4.81439e-08
1.23039e-09
4.81607e-08
1.21052e-09
4.81754e-08
1.19011e-09
4.8188e-08
1.16957e-09
4.81981e-08
1.14958e-09
4.82056e-08
1.12947e-09
4.82107e-08
1.10817e-09
4.82138e-08
1.0862e-09
4.82144e-08
1.0647e-09
4.8212e-08
1.04302e-09
4.82072e-08
1.01955e-09
4.82005e-08
9.94586e-10
4.81914e-08
9.69933e-10
4.81794e-08
9.45533e-10
4.81646e-08
9.19159e-10
4.8148e-08
8.90203e-10
4.81298e-08
8.61002e-10
4.81088e-08
8.3299e-10
4.80848e-08
8.04027e-10
4.80589e-08
7.71737e-10
4.80321e-08
7.37768e-10
4.80038e-08
7.05739e-10
4.79725e-08
6.75667e-10
4.79385e-08
6.43812e-10
4.79039e-08
6.08657e-10
4.78695e-08
5.74164e-10
4.78341e-08
5.44783e-10
4.77958e-08
5.19288e-10
4.77556e-08
4.92441e-10
4.77162e-08
4.62732e-10
4.76792e-08
4.35308e-10
4.76425e-08
4.15747e-10
4.76034e-08
4.02425e-10
4.75621e-08
3.87944e-10
4.75221e-08
3.6785e-10
4.74864e-08
3.46537e-10
4.74535e-08
3.32099e-10
4.74192e-08
3.26945e-10
4.73806e-08
3.23852e-10
4.734e-08
3.13648e-10
4.73028e-08
2.94462e-10
4.72719e-08
2.74962e-10
4.72448e-08
2.65174e-10
4.72149e-08
2.67789e-10
4.71782e-08
2.73495e-10
4.71364e-08
2.71092e-10
4.70966e-08
2.54627e-10
4.7065e-08
2.32531e-10
4.70425e-08
2.16351e-10
4.70221e-08
2.18496e-10
4.69957e-08
2.33809e-10
4.69566e-08
2.55331e-10
4.69082e-08
2.62001e-10
4.68563e-08
2.55737e-10
4.68143e-08
2.27506e-10
4.67832e-08
2.08311e-10
4.67683e-08
1.88291e-10
4.67517e-08
2.11003e-10
4.67332e-08
2.29724e-10
4.6686e-08
2.97148e-10
4.6624e-08
3.18733e-10
4.65236e-08
3.84984e-10
4.64182e-08
3.62215e-10
4.62877e-08
3.96867e-10
3.30472e-10
4.63535e-08
2.48288e-10
4.64896e-08
7.28173e-10
4.67031e-08
1.18696e-09
4.69543e-08
1.5775e-09
4.72056e-08
1.85899e-09
4.744e-08
2.03552e-09
4.76594e-08
2.13332e-09
4.78681e-08
2.18097e-09
4.8062e-08
2.19259e-09
4.82336e-08
2.17148e-09
4.83785e-08
2.1214e-09
4.84976e-08
2.05082e-09
4.85959e-08
1.97143e-09
4.86796e-08
1.89396e-09
4.87533e-08
1.82458e-09
4.88201e-08
1.76466e-09
4.88818e-08
1.71298e-09
4.89393e-08
1.66757e-09
4.89939e-08
1.62671e-09
4.90462e-08
1.58941e-09
4.90968e-08
1.55515e-09
4.91458e-08
1.52329e-09
4.91936e-08
1.49323e-09
4.92402e-08
1.46482e-09
4.92855e-08
1.43792e-09
4.93297e-08
1.41206e-09
4.93729e-08
1.38703e-09
4.94149e-08
1.36315e-09
4.94559e-08
1.34033e-09
4.94959e-08
1.318e-09
4.9535e-08
1.29619e-09
4.95731e-08
1.27542e-09
4.96101e-08
1.25537e-09
4.96461e-08
1.23526e-09
4.96813e-08
1.21534e-09
4.97153e-08
1.19635e-09
4.97481e-08
1.17772e-09
4.97799e-08
1.15835e-09
4.98107e-08
1.13877e-09
4.98402e-08
1.12008e-09
4.98681e-08
1.10152e-09
4.98948e-08
1.08148e-09
4.99205e-08
1.06055e-09
4.99447e-08
1.04052e-09
4.99669e-08
1.02079e-09
4.99875e-08
9.9895e-10
5.0007e-08
9.75105e-10
5.0025e-08
9.51943e-10
5.00406e-08
9.29866e-10
5.00541e-08
9.05732e-10
5.00662e-08
8.78103e-10
5.00771e-08
8.50113e-10
5.00856e-08
8.24445e-10
5.00911e-08
7.98493e-10
5.00946e-08
7.68225e-10
5.00973e-08
7.35103e-10
5.00985e-08
7.04564e-10
5.00965e-08
6.7769e-10
5.00911e-08
6.49169e-10
5.00844e-08
6.15374e-10
5.00777e-08
5.80844e-10
5.00698e-08
5.52726e-10
5.00583e-08
5.30761e-10
5.00435e-08
5.07205e-10
5.00285e-08
4.7774e-10
5.00155e-08
4.48327e-10
5.00029e-08
4.28331e-10
4.99873e-08
4.18052e-10
4.99678e-08
4.07467e-10
4.99478e-08
3.87785e-10
4.99316e-08
3.62797e-10
4.99189e-08
3.44776e-10
4.9905e-08
3.40791e-10
4.98857e-08
3.43191e-10
4.98618e-08
3.3759e-10
4.98392e-08
3.1704e-10
4.9823e-08
2.91143e-10
4.98124e-08
2.75787e-10
4.98004e-08
2.79829e-10
4.97804e-08
2.93472e-10
4.97517e-08
2.99806e-10
4.97215e-08
2.8481e-10
4.96983e-08
2.55755e-10
4.96868e-08
2.27854e-10
4.96813e-08
2.23921e-10
4.96729e-08
2.4224e-10
4.96501e-08
2.78128e-10
4.96135e-08
2.9856e-10
4.95667e-08
3.02623e-10
4.95267e-08
2.67483e-10
4.94977e-08
2.37305e-10
4.94921e-08
1.93859e-10
4.94919e-08
2.11227e-10
4.94995e-08
2.22133e-10
4.94801e-08
3.165e-10
4.94464e-08
3.52505e-10
4.93658e-08
4.65525e-10
4.92712e-08
4.56839e-10
4.91419e-08
5.26117e-10
4.60463e-10
4.80645e-08
2.10332e-10
4.81739e-08
6.18767e-10
4.83473e-08
1.01356e-09
4.85629e-08
1.36195e-09
4.87893e-08
1.63252e-09
4.90077e-08
1.81711e-09
4.92122e-08
1.92882e-09
4.94047e-08
1.98847e-09
4.95849e-08
2.01245e-09
4.97483e-08
2.00806e-09
4.98908e-08
1.9789e-09
5.00113e-08
1.93028e-09
5.01125e-08
1.87021e-09
5.01991e-08
1.8074e-09
5.02755e-08
1.7482e-09
5.03447e-08
1.6954e-09
5.04086e-08
1.64905e-09
5.04684e-08
1.60783e-09
5.05248e-08
1.57028e-09
5.05787e-08
1.53557e-09
5.06305e-08
1.50335e-09
5.06806e-08
1.47311e-09
5.07295e-08
1.44439e-09
5.07771e-08
1.41721e-09
5.08235e-08
1.39147e-09
5.0869e-08
1.36661e-09
5.09135e-08
1.3425e-09
5.09572e-08
1.31952e-09
5.09999e-08
1.29755e-09
5.1042e-08
1.27591e-09
5.10835e-08
1.25474e-09
5.11242e-08
1.23469e-09
5.11642e-08
1.21533e-09
5.12038e-08
1.19574e-09
5.12428e-08
1.17634e-09
5.12811e-08
1.15805e-09
5.13187e-08
1.14011e-09
5.13558e-08
1.12125e-09
5.13924e-08
1.10217e-09
5.14282e-08
1.08428e-09
5.14631e-08
1.06661e-09
5.14973e-08
1.04719e-09
5.15311e-08
1.02681e-09
5.15639e-08
1.00774e-09
5.15954e-08
9.89248e-10
5.1626e-08
9.68341e-10
5.1656e-08
9.45122e-10
5.1685e-08
9.22996e-10
5.17122e-08
9.02594e-10
5.1738e-08
8.79997e-10
5.17628e-08
8.53227e-10
5.17868e-08
8.26153e-10
5.18089e-08
8.02385e-10
5.18285e-08
7.78825e-10
5.18466e-08
7.50139e-10
5.1864e-08
7.17746e-10
5.18799e-08
6.88583e-10
5.18931e-08
6.6453e-10
5.19033e-08
6.38941e-10
5.19123e-08
6.06455e-10
5.1921e-08
5.72103e-10
5.19284e-08
5.45285e-10
5.19326e-08
5.26597e-10
5.19336e-08
5.06197e-10
5.1934e-08
4.77299e-10
5.1936e-08
4.46397e-10
5.19382e-08
4.26121e-10
5.19376e-08
4.18669e-10
5.19331e-08
4.11961e-10
5.19276e-08
3.93256e-10
5.1925e-08
3.65382e-10
5.19257e-08
3.44059e-10
5.19257e-08
3.40878e-10
5.19204e-08
3.48443e-10
5.191e-08
3.47959e-10
5.18998e-08
3.27269e-10
5.1895e-08
2.95967e-10
5.18959e-08
2.74872e-10
5.18964e-08
2.79313e-10
5.18897e-08
3.00152e-10
5.18735e-08
3.16015e-10
5.18538e-08
3.04507e-10
5.1839e-08
2.70556e-10
5.18357e-08
2.31139e-10
5.18402e-08
2.1946e-10
5.18445e-08
2.37914e-10
5.18358e-08
2.86868e-10
5.18125e-08
3.21843e-10
5.1775e-08
3.40111e-10
5.17408e-08
3.01673e-10
5.17148e-08
2.63373e-10
5.1714e-08
1.94571e-10
5.17228e-08
2.02489e-10
5.17469e-08
1.98021e-10
5.17498e-08
3.13581e-10
5.1742e-08
3.60296e-10
5.16876e-08
5.19981e-10
5.16134e-08
5.30962e-10
5.15013e-08
6.38283e-10
5.8484e-10
4.98418e-08
1.79453e-10
4.99313e-08
5.29308e-10
5.00741e-08
8.70721e-10
5.02577e-08
1.17841e-09
5.04586e-08
1.43158e-09
5.06593e-08
1.6164e-09
5.08502e-08
1.73793e-09
5.10295e-08
1.80917e-09
5.11975e-08
1.84447e-09
5.13523e-08
1.85327e-09
5.14909e-08
1.84035e-09
5.16114e-08
1.8097e-09
5.17149e-08
1.76678e-09
5.18042e-08
1.71807e-09
5.18832e-08
1.66921e-09
5.19548e-08
1.62375e-09
5.2021e-08
1.58286e-09
5.20829e-08
1.54594e-09
5.21413e-08
1.51187e-09
5.21969e-08
1.48003e-09
5.22501e-08
1.45014e-09
5.23015e-08
1.42173e-09
5.23513e-08
1.39454e-09
5.23998e-08
1.36873e-09
5.2447e-08
1.3442e-09
5.24933e-08
1.32039e-09
5.25385e-08
1.29724e-09
5.25828e-08
1.27521e-09
5.26263e-08
1.25404e-09
5.26692e-08
1.23307e-09
5.27114e-08
1.21256e-09
5.27529e-08
1.19319e-09
5.27938e-08
1.17439e-09
5.28343e-08
1.15523e-09
5.28743e-08
1.13634e-09
5.29137e-08
1.11865e-09
5.29526e-08
1.10119e-09
5.29912e-08
1.08267e-09
5.30293e-08
1.06407e-09
5.30668e-08
1.04682e-09
5.31037e-08
1.0297e-09
5.31402e-08
1.01065e-09
5.31763e-08
9.90769e-10
5.32115e-08
9.72504e-10
5.3246e-08
9.54808e-10
5.32799e-08
9.34426e-10
5.33132e-08
9.11764e-10
5.33456e-08
8.90626e-10
5.33768e-08
8.71447e-10
5.3407e-08
8.49778e-10
5.34365e-08
8.23667e-10
5.34651e-08
7.97618e-10
5.3492e-08
7.75502e-10
5.35172e-08
7.53603e-10
5.35413e-08
7.25978e-10
5.35646e-08
6.94444e-10
5.35864e-08
6.66854e-10
5.36058e-08
6.4514e-10
5.36231e-08
6.216e-10
5.36394e-08
5.9011e-10
5.36551e-08
5.56408e-10
5.36692e-08
5.31213e-10
5.36806e-08
5.15206e-10
5.36898e-08
4.96985e-10
5.36986e-08
4.68475e-10
5.37081e-08
4.36903e-10
5.37172e-08
4.17039e-10
5.37239e-08
4.11962e-10
5.37279e-08
4.07974e-10
5.37314e-08
3.89784e-10
5.37369e-08
3.59908e-10
5.37444e-08
3.36559e-10
5.37509e-08
3.34381e-10
5.37534e-08
3.4592e-10
5.37521e-08
3.4925e-10
5.37509e-08
3.28464e-10
5.37536e-08
2.93274e-10
5.37605e-08
2.67971e-10
5.37669e-08
2.72878e-10
5.37677e-08
2.99335e-10
5.37607e-08
3.23019e-10
5.37505e-08
3.14724e-10
5.37435e-08
2.77572e-10
5.37457e-08
2.28897e-10
5.37546e-08
2.10634e-10
5.37644e-08
2.2803e-10
5.37638e-08
2.87513e-10
5.37511e-08
3.34585e-10
5.37243e-08
3.66861e-10
5.36989e-08
3.27105e-10
5.36781e-08
2.84133e-10
5.36801e-08
1.92586e-10
5.36917e-08
1.90917e-10
5.37213e-08
1.684e-10
5.37359e-08
2.98928e-10
5.37443e-08
3.51945e-10
5.37125e-08
5.51779e-10
5.36599e-08
5.8359e-10
5.3572e-08
7.26141e-10
6.92246e-10
5.16871e-08
1.54e-10
5.17613e-08
4.55153e-10
5.18806e-08
7.51413e-10
5.20365e-08
1.02254e-09
5.22132e-08
1.25482e-09
5.23953e-08
1.4343e-09
5.25725e-08
1.56076e-09
5.27402e-08
1.64144e-09
5.28977e-08
1.68702e-09
5.30442e-08
1.70682e-09
5.31778e-08
1.70669e-09
5.32971e-08
1.69046e-09
5.34017e-08
1.66215e-09
5.34934e-08
1.62638e-09
5.35749e-08
1.58771e-09
5.36489e-08
1.54977e-09
5.37173e-08
1.51445e-09
5.37813e-08
1.48187e-09
5.38418e-08
1.45138e-09
5.38993e-08
1.42259e-09
5.39542e-08
1.39523e-09
5.4007e-08
1.36886e-09
5.40582e-08
1.34339e-09
5.41078e-08
1.31911e-09
5.41561e-08
1.29587e-09
5.42034e-08
1.27316e-09
5.42495e-08
1.25108e-09
5.42947e-08
1.23007e-09
5.4339e-08
1.20972e-09
5.43826e-08
1.18944e-09
5.44255e-08
1.1697e-09
5.44676e-08
1.15105e-09
5.45093e-08
1.13276e-09
5.45504e-08
1.11407e-09
5.4591e-08
1.09579e-09
5.46309e-08
1.07868e-09
5.46705e-08
1.06159e-09
5.47098e-08
1.04343e-09
5.47484e-08
1.02542e-09
5.47865e-08
1.0088e-09
5.48241e-08
9.92019e-10
5.48615e-08
9.73285e-10
5.48982e-08
9.54069e-10
5.49341e-08
9.36608e-10
5.49695e-08
9.19415e-10
5.50045e-08
8.99374e-10
5.50389e-08
8.77435e-10
5.50721e-08
8.57401e-10
5.51044e-08
8.39118e-10
5.51362e-08
8.17955e-10
5.51674e-08
7.92552e-10
5.51971e-08
7.67843e-10
5.52254e-08
7.47235e-10
5.52527e-08
7.26343e-10
5.52792e-08
6.99426e-10
5.53045e-08
6.69105e-10
5.5328e-08
6.43438e-10
5.53495e-08
6.23587e-10
5.53699e-08
6.01182e-10
5.53896e-08
5.70462e-10
5.54079e-08
5.38087e-10
5.54241e-08
5.14974e-10
5.54384e-08
5.00959e-10
5.54517e-08
4.83723e-10
5.54648e-08
4.55364e-10
5.54775e-08
4.24161e-10
5.54889e-08
4.05661e-10
5.54984e-08
4.02445e-10
5.55068e-08
3.99593e-10
5.55155e-08
3.81072e-10
5.55252e-08
3.50171e-10
5.55352e-08
3.26586e-10
5.55436e-08
3.25965e-10
5.55496e-08
3.39971e-10
5.55539e-08
3.44946e-10
5.55589e-08
3.23445e-10
5.55661e-08
2.86068e-10
5.5575e-08
2.59039e-10
5.55826e-08
2.65288e-10
5.55864e-08
2.95603e-10
5.55853e-08
3.24066e-10
5.55828e-08
3.17181e-10
5.55825e-08
2.77896e-10
5.55882e-08
2.23196e-10
5.55975e-08
2.01359e-10
5.56074e-08
2.18144e-10
5.56094e-08
2.85476e-10
5.56035e-08
3.40518e-10
5.55868e-08
3.83582e-10
5.55713e-08
3.42604e-10
5.55577e-08
2.97669e-10
5.55618e-08
1.88495e-10
5.55728e-08
1.79944e-10
5.56e-08
1.41216e-10
5.56171e-08
2.81851e-10
5.56313e-08
3.37754e-10
5.56149e-08
5.6809e-10
5.55801e-08
6.18474e-10
5.55169e-08
7.89328e-10
7.77347e-10
5.36024e-08
1.32769e-10
5.36646e-08
3.92996e-10
5.37652e-08
6.50771e-10
5.3898e-08
8.89758e-10
5.40527e-08
1.10009e-09
5.42164e-08
1.27062e-09
5.43795e-08
1.39764e-09
5.45363e-08
1.48469e-09
5.46844e-08
1.53891e-09
5.48231e-08
1.56811e-09
5.49515e-08
1.57831e-09
5.50683e-08
1.57362e-09
5.5173e-08
1.55741e-09
5.52664e-08
1.53304e-09
5.53501e-08
1.504e-09
5.54263e-08
1.47356e-09
5.54968e-08
1.44391e-09
5.5563e-08
1.4157e-09
5.56256e-08
1.38882e-09
5.5685e-08
1.36317e-09
5.57418e-08
1.33844e-09
5.57964e-08
1.31426e-09
5.58491e-08
1.29069e-09
5.59001e-08
1.26807e-09
5.59498e-08
1.24619e-09
5.59983e-08
1.22467e-09
5.60456e-08
1.20377e-09
5.60919e-08
1.18381e-09
5.61373e-08
1.1643e-09
5.61819e-08
1.14481e-09
5.62257e-08
1.12593e-09
5.62687e-08