/*--------------------------------*- C++ -*----------------------------------*\
| =========                 |                                                 |
| \\      /  F ield         | OpenFOAM: The Open Source CFD Toolbox           |
|  \\    /   O peration     | Version:  2.3.0                                 |
|   \\  /    A nd           | Web:      www.OpenFOAM.org                      |
|    \\/     M anipulation  |                                                 |
\*---------------------------------------------------------------------------*/
FoamFile
{
    version     2.0;
    format      ascii;
    class       volScalarField;
    location    "0.05";
    object      p;
}
// * * * * * * * * * * * * * * * * * * * * * * * * * * * * * * * * * * * * * //

dimensions      [0 2 -2 0 0 0 0];

internalField   nonuniform List<scalar> 
2889
(
0.00238029
0.00182929
0.00130475
0.000913272
0.000597706
0.000317819
6.78352e-05
-0.000148216
-0.000328032
-0.000471879
-0.000581519
-0.000659583
-0.000709033
-0.00073261
-0.000732577
-0.000711031
-0.000670395
-0.000613961
-0.000545091
-0.000470524
-0.000399225
-0.000337173
-0.000285874
-0.000244555
-0.000211689
-0.000185629
-0.000164879
-0.000148171
-0.000134488
-0.000123051
-0.000113276
-0.000104746
-9.71581e-05
-9.03206e-05
-8.4088e-05
-7.83767e-05
-7.31089e-05
-6.82129e-05
-6.36399e-05
-5.93585e-05
-5.5347e-05
-5.15881e-05
-4.80667e-05
-4.47691e-05
-4.16821e-05
-3.8793e-05
-3.60899e-05
-3.35615e-05
-3.11971e-05
-2.89866e-05
-2.69205e-05
-2.49901e-05
-2.3187e-05
-2.15035e-05
-1.99321e-05
-1.8466e-05
-1.70988e-05
-1.58243e-05
-1.46367e-05
-1.35308e-05
-1.25013e-05
-1.15434e-05
-1.06527e-05
-9.82476e-06
-9.05565e-06
-8.34158e-06
-7.67893e-06
-7.06435e-06
-6.49464e-06
-5.9668e-06
-5.47807e-06
-5.02564e-06
-4.60724e-06
-4.22021e-06
-3.86273e-06
-3.53236e-06
-3.22739e-06
-2.94588e-06
-2.68605e-06
-2.44641e-06
-2.22536e-06
-2.02145e-06
-1.83345e-06
-1.65992e-06
-1.49981e-06
-1.35191e-06
-1.21516e-06
-1.08865e-06
-9.71324e-07
-8.62347e-07
-7.6082e-07
-6.65888e-07
-5.76769e-07
-4.9265e-07
-4.12776e-07
-3.36324e-07
-2.62475e-07
-1.90276e-07
-1.18498e-07
-4.66424e-08
0.00209392
0.00169272
0.00126909
0.00091827
0.000619341
0.000347483
0.000101015
-0.000114341
-0.000295204
-0.000441222
-0.000553819
-0.000635392
-0.000688681
-0.000716182
-0.000719963
-0.000702008
-0.000664475
-0.000609174
-0.000540959
-0.000468419
-0.000398954
-0.000337726
-0.00028667
-0.000245303
-0.000212275
-0.000186038
-0.000165127
-0.000148293
-0.000134523
-0.000123033
-0.000113231
-0.000104694
-9.71036e-05
-9.02361e-05
-8.39956e-05
-7.82915e-05
-7.30295e-05
-6.81381e-05
-6.35691e-05
-5.92916e-05
-5.52838e-05
-5.15285e-05
-4.80108e-05
-4.47167e-05
-4.16331e-05
-3.87473e-05
-3.60474e-05
-3.3522e-05
-3.11604e-05
-2.89525e-05
-2.6889e-05
-2.49609e-05
-2.316e-05
-2.14785e-05
-1.9909e-05
-1.84448e-05
-1.70792e-05
-1.58062e-05
-1.46201e-05
-1.35155e-05
-1.24872e-05
-1.15305e-05
-1.06408e-05
-9.81388e-06
-9.04568e-06
-8.33245e-06
-7.67056e-06
-7.05669e-06
-6.48763e-06
-5.9604e-06
-5.47222e-06
-5.02029e-06
-4.60238e-06
-4.21577e-06
-3.85868e-06
-3.52868e-06
-3.22403e-06
-2.94283e-06
-2.68328e-06
-2.44389e-06
-2.22308e-06
-2.01938e-06
-1.83158e-06
-1.65823e-06
-1.49827e-06
-1.35053e-06
-1.21391e-06
-1.08752e-06
-9.70314e-07
-8.61439e-07
-7.60008e-07
-6.65163e-07
-5.76125e-07
-4.9208e-07
-4.12276e-07
-3.3589e-07
-2.62104e-07
-1.89975e-07
-1.18204e-07
-4.74372e-08
0.00188295
0.00157471
0.00122274
0.000905383
0.00062468
0.000367516
0.000132852
-7.44275e-05
-0.000250906
-0.000395755
-0.000509756
-0.000594557
-0.000652145
-0.000684391
-0.000692908
-0.000679324
-0.000645595
-0.00059417
-0.000529543
-0.000460026
-0.000393782
-0.000335231
-0.000285861
-0.000245418
-0.000212819
-0.000186712
-0.000165771
-0.000148829
-0.000134925
-0.000123304
-0.000113388
-0.00010475
-9.7064e-05
-9.01446e-05
-8.38923e-05
-7.81831e-05
-7.29177e-05
-6.80251e-05
-6.34573e-05
-5.91828e-05
-5.51794e-05
-5.14293e-05
-4.79171e-05
-4.46287e-05
-4.15506e-05
-3.86702e-05
-3.59755e-05
-3.3455e-05
-3.10981e-05
-2.88947e-05
-2.68353e-05
-2.49111e-05
-2.31139e-05
-2.14358e-05
-1.98695e-05
-1.84082e-05
-1.70454e-05
-1.57751e-05
-1.45914e-05
-1.3489e-05
-1.24628e-05
-1.15081e-05
-1.06201e-05
-9.79488e-06
-9.02822e-06
-8.31641e-06
-7.65584e-06
-7.04319e-06
-6.47526e-06
-5.94907e-06
-5.46185e-06
-5.0108e-06
-4.59371e-06
-4.20785e-06
-3.85145e-06
-3.52209e-06
-3.21803e-06
-2.93737e-06
-2.67831e-06
-2.43937e-06
-2.21898e-06
-2.01566e-06
-1.82822e-06
-1.65519e-06
-1.49552e-06
-1.34806e-06
-1.21169e-06
-1.08554e-06
-9.68545e-07
-8.59865e-07
-7.58618e-07
-6.63943e-07
-5.75065e-07
-4.91173e-07
-4.1152e-07
-3.35288e-07
-2.61671e-07
-1.89763e-07
-1.18479e-07
-4.9345e-08
0.00170178
0.00145506
0.0011608
0.000879404
0.000622527
0.00038513
0.000166917
-2.80653e-05
-0.000196415
-0.000336784
-0.000449282
-0.000534835
-0.000594763
-0.000630442
-0.000643212
-0.000634576
-0.000606522
-0.000561846
-0.000504908
-0.000442706
-0.000382798
-0.000329151
-0.000283076
-0.000244618
-0.000213083
-0.000187446
-0.00016662
-0.000149603
-0.000135539
-0.000123738
-0.000113646
-0.00010483
-9.70187e-05
-9.00507e-05
-8.37646e-05
-7.8028e-05
-7.27432e-05
-6.78395e-05
-6.32683e-05
-5.89959e-05
-5.49983e-05
-5.12561e-05
-4.7753e-05
-4.44741e-05
-4.14056e-05
-3.85346e-05
-3.58489e-05
-3.33371e-05
-3.09884e-05
-2.87927e-05
-2.67406e-05
-2.48233e-05
-2.30325e-05
-2.13605e-05
-1.97999e-05
-1.83438e-05
-1.69859e-05
-1.57201e-05
-1.45407e-05
-1.34423e-05
-1.24198e-05
-1.14684e-05
-1.05837e-05
-9.76137e-06
-8.99744e-06
-8.28815e-06
-7.62992e-06
-7.01942e-06
-6.45348e-06
-5.92912e-06
-5.4436e-06
-4.99411e-06
-4.57845e-06
-4.19394e-06
-3.83875e-06
-3.51053e-06
-3.20748e-06
-2.92777e-06
-2.6696e-06
-2.43145e-06
-2.2118e-06
-2.00915e-06
-1.82233e-06
-1.64988e-06
-1.49073e-06
-1.34375e-06
-1.20782e-06
-1.08207e-06
-9.65461e-07
-8.57127e-07
-7.56202e-07
-6.61829e-07
-5.73235e-07
-4.89614e-07
-4.10228e-07
-3.34271e-07
-2.60962e-07
-1.89471e-07
-1.19e-07
-5.14504e-08
0.0015392
0.00133853
0.00109391
0.000848616
0.000616993
0.000399894
0.000198624
1.69217e-05
-0.000141841
-0.000275944
-0.000385007
-0.000469454
-0.000530153
-0.000568168
-0.00058469
-0.000581178
-0.000559625
-0.000522854
-0.000474965
-0.000421592
-0.000368816
-0.000320538
-0.000278275
-0.000242301
-0.000212255
-0.000187424
-0.000166963
-0.000150046
-0.000135938
-0.000124017
-0.000113769
-0.000104834
-9.69545e-05
-8.99262e-05
-8.35848e-05
-7.78052e-05
-7.24913e-05
-6.75721e-05
-6.29962e-05
-5.87272e-05
-5.47381e-05
-5.10076e-05
-4.75177e-05
-4.42527e-05
-4.11981e-05
-3.83406e-05
-3.5668e-05
-3.31686e-05
-3.08317e-05
-2.86471e-05
-2.66055e-05
-2.46981e-05
-2.29165e-05
-2.1253e-05
-1.97005e-05
-1.82519e-05
-1.6901e-05
-1.56418e-05
-1.44684e-05
-1.33756e-05
-1.23583e-05
-1.14118e-05
-1.05316e-05
-9.71348e-06
-8.95342e-06
-8.24773e-06
-7.59281e-06
-6.98538e-06
-6.42228e-06
-5.90053e-06
-5.41744e-06
-4.97018e-06
-4.55657e-06
-4.17397e-06
-3.82051e-06
-3.49391e-06
-3.19233e-06
-2.91398e-06
-2.65706e-06
-2.42005e-06
-2.20146e-06
-1.99979e-06
-1.81384e-06
-1.64222e-06
-1.48381e-06
-1.33753e-06
-1.20224e-06
-1.07707e-06
-9.61005e-07
-8.53169e-07
-7.52708e-07
-6.58769e-07
-5.70583e-07
-4.87353e-07
-4.0835e-07
-3.32787e-07
-2.59912e-07
-1.88985e-07
-1.19424e-07
-5.31535e-08
0.0013977
0.00123147
0.00102724
0.000814456
0.000607009
0.000409506
0.000224849
5.66687e-05
-9.18071e-05
-0.000218658
-0.000323159
-0.000405368
-0.000465825
-0.000505362
-0.000525051
-0.000526296
-0.000511031
-0.000481935
-0.000442665
-0.000397864
-0.000352399
-0.000309726
-0.000271533
-0.00023837
-0.000210145
-0.00018641
-0.000166552
-0.000149918
-0.000135897
-0.000123954
-0.000113666
-0.000104684
-9.67502e-05
-8.96674e-05
-8.32812e-05
-7.74692e-05
-7.21358e-05
-6.72088e-05
-6.26351e-05
-5.83754e-05
-5.44004e-05
-5.06866e-05
-4.72149e-05
-4.39683e-05
-4.0932e-05
-3.80923e-05
-3.54367e-05
-3.29534e-05
-3.06317e-05
-2.84614e-05
-2.64333e-05
-2.45384e-05
-2.27685e-05
-2.11161e-05
-1.95738e-05
-1.81348e-05
-1.67928e-05
-1.55418e-05
-1.43762e-05
-1.32906e-05
-1.22799e-05
-1.13396e-05
-1.04652e-05
-9.65235e-06
-8.89723e-06
-8.1961e-06
-7.54541e-06
-6.94188e-06
-6.3824e-06
-5.86398e-06
-5.38396e-06
-4.93956e-06
-4.52856e-06
-4.14839e-06
-3.79714e-06
-3.4726e-06
-3.1729e-06
-2.89628e-06
-2.64096e-06
-2.40542e-06
-2.18818e-06
-1.98775e-06
-1.80294e-06
-1.63236e-06
-1.47492e-06
-1.32952e-06
-1.19506e-06
-1.07064e-06
-9.55269e-07
-8.48075e-07
-7.48211e-07
-6.54831e-07
-5.67171e-07
-4.84444e-07
-4.05931e-07
-3.30868e-07
-2.58533e-07
-1.88262e-07
-1.19603e-07
-5.42992e-08
0.0012744
0.00113362
0.000961496
0.000777186
0.000592554
0.000413991
0.000245531
9.07777e-05
-4.72038e-05
-0.000166388
-0.000265785
-0.000345161
-0.00040479
-0.000445311
-0.000467673
-0.000473196
-0.000463694
-0.000441618
-0.000410158
-0.000373153
-0.000334538
-0.000297336
-0.000263252
-0.000233021
-0.000206791
-0.000184349
-0.000165283
-0.000149103
-0.000135321
-0.000123494
-0.000113246
-0.000104269
-9.63237e-05
-8.92249e-05
-8.28239e-05
-7.70021e-05
-7.16661e-05
-6.67443e-05
-6.21828e-05
-5.79405e-05
-5.39862e-05
-5.02952e-05
-4.68469e-05
-4.36237e-05
-4.06101e-05
-3.77923e-05
-3.51574e-05
-3.26938e-05
-3.03905e-05
-2.82376e-05
-2.62257e-05
-2.4346e-05
-2.25904e-05
-2.09512e-05
-1.94212e-05
-1.79937e-05
-1.66624e-05
-1.54214e-05
-1.4265e-05
-1.3188e-05
-1.21854e-05
-1.12526e-05
-1.0385e-05
-9.57856e-06
-8.82938e-06
-8.13373e-06
-7.48812e-06
-6.88929e-06
-6.33415e-06
-5.81976e-06
-5.34345e-06
-4.90247e-06
-4.49463e-06
-4.11738e-06
-3.76881e-06
-3.44675e-06
-3.14933e-06
-2.87481e-06
-2.62142e-06
-2.38765e-06
-2.17205e-06
-1.97312e-06
-1.78968e-06
-1.62038e-06
-1.4641e-06
-1.31978e-06
-1.18631e-06
-1.06281e-06
-9.48286e-07
-8.41876e-07
-7.42739e-07
-6.50041e-07
-5.63022e-07
-4.80909e-07
-4.02993e-07
-3.28531e-07
-2.56832e-07
-1.87285e-07
-1.19501e-07
-5.49415e-08
0.00116595
0.00104444
0.000897933
0.000738296
0.000574792
0.000414228
0.000261264
0.000119514
-8.09561e-06
-0.0001195
-0.000213519
-0.000289687
-0.000348067
-0.000389124
-0.000413677
-0.000422927
-0.000418531
-0.000402679
-0.000378122
-0.000348051
-0.000315689
-0.000283649
-0.000253583
-0.000226344
-0.000202252
-0.000181277
-0.000163179
-0.000147613
-0.000134205
-0.000122597
-0.000112474
-0.000103567
-9.56624e-05
-8.85868e-05
-8.22011e-05
-7.63929e-05
-7.10728e-05
-6.61707e-05
-6.16327e-05
-5.7417e-05
-5.34912e-05
-4.98295e-05
-4.64104e-05
-4.32158e-05
-4.02298e-05
-3.74382e-05
-3.48281e-05
-3.23878e-05
-3.01065e-05
-2.79741e-05
-2.59813e-05
-2.41196e-05
-2.23807e-05
-2.0757e-05
-1.92416e-05
-1.78276e-05
-1.6509e-05
-1.52797e-05
-1.41342e-05
-1.30673e-05
-1.20741e-05
-1.11499e-05
-1.02904e-05
-9.49155e-06
-8.74933e-06
-8.06014e-06
-7.42051e-06
-6.8272e-06
-6.27718e-06
-5.76751e-06
-5.29556e-06
-4.85863e-06
-4.4545e-06
-4.0807e-06
-3.73529e-06
-3.41615e-06
-3.12142e-06
-2.84936e-06
-2.59826e-06
-2.36659e-06
-2.15291e-06
-1.95577e-06
-1.77395e-06
-1.60616e-06
-1.45127e-06
-1.30822e-06
-1.17593e-06
-1.05351e-06
-9.39998e-07
-8.34519e-07
-7.36248e-07
-6.4436e-07
-5.58105e-07
-4.76721e-07
-3.99512e-07
-3.25755e-07
-2.54785e-07
-1.86028e-07
-1.19112e-07
-5.51823e-08
0.0010698
0.000963381
0.000837475
0.000698959
0.000554603
0.000410832
0.000272498
0.000143189
2.56953e-05
-7.79349e-05
-0.000166406
-0.000239084
-0.000295857
-0.000337034
-0.0003633
-0.000375714
-0.000375755
-0.000365345
-0.000346841
-0.000322903
-0.000296199
-0.000268972
-0.000242774
-0.000218515
-0.000196632
-0.00017724
-0.000160243
-0.000145422
-0.000132508
-0.000121223
-0.00011131
-0.000102544
-9.47337e-05
-8.77249e-05
-8.13894e-05
-7.56227e-05
-7.03404e-05
-6.54753e-05
-6.09743e-05
-5.67961e-05
-5.29078e-05
-4.9283e-05
-4.58998e-05
-4.27397e-05
-3.97864e-05
-3.70258e-05
-3.44449e-05
-3.2032e-05
-2.97763e-05
-2.76679e-05
-2.56975e-05
-2.38565e-05
-2.21371e-05
-2.05315e-05
-1.9033e-05
-1.76347e-05
-1.63306e-05
-1.51149e-05
-1.3982e-05
-1.29269e-05
-1.19446e-05
-1.10306e-05
-1.01805e-05
-9.39032e-06
-8.65618e-06
-7.97447e-06
-7.34177e-06
-6.75488e-06
-6.21079e-06
-5.70662e-06
-5.23974e-06
-4.80751e-06
-4.4077e-06
-4.03791e-06
-3.69617e-06
-3.38043e-06
-3.08882e-06
-2.81965e-06
-2.57121e-06
-2.34198e-06
-2.13055e-06
-1.93548e-06
-1.75556e-06
-1.58953e-06
-1.43625e-06
-1.29469e-06
-1.16379e-06
-1.04264e-06
-9.30301e-07
-8.25913e-07
-7.28656e-07
-6.37718e-07
-5.52359e-07
-4.71828e-07
-3.95442e-07
-3.22502e-07
-2.52358e-07
-1.84464e-07
-1.18432e-07
-5.51115e-08
0.000983894
0.000889679
0.000780493
0.000659937
0.000532678
0.000404374
0.000279733
0.000162229
5.45042e-05
-4.14534e-05
-0.000124296
-0.000193272
-0.000248131
-0.000289045
-0.000316561
-0.000331591
-0.000335423
-0.00032972
-0.000316487
-0.000297946
-0.00027632
-0.000253534
-0.000231012
-0.000209671
-0.000190027
-0.000172302
-0.000156513
-0.000142552
-0.000130239
-0.000119373
-0.000109752
-0.000101191
-9.35284e-05
-8.66292e-05
-8.03785e-05
-7.4681e-05
-6.94586e-05
-6.4648e-05
-6.01985e-05
-5.60694e-05
-5.22284e-05
-4.86488e-05
-4.53087e-05
-4.21894e-05
-3.92747e-05
-3.65503e-05
-3.40033e-05
-3.16222e-05
-2.93961e-05
-2.73154e-05
-2.53708e-05
-2.35539e-05
-2.18568e-05
-2.02721e-05
-1.87929e-05
-1.74127e-05
-1.61254e-05
-1.49253e-05
-1.38069e-05
-1.27653e-05
-1.17955e-05
-1.08931e-05
-1.00538e-05
-9.27366e-06
-8.54881e-06
-7.8757e-06
-7.25097e-06
-6.67147e-06
-6.13421e-06
-5.63635e-06
-5.17531e-06
-4.74849e-06
-4.35365e-06
-3.98847e-06
-3.65097e-06
-3.33915e-06
-3.05115e-06
-2.78529e-06
-2.53992e-06
-2.31351e-06
-2.10468e-06
-1.91201e-06
-1.73429e-06
-1.57029e-06
-1.41888e-06
-1.27904e-06
-1.14973e-06
-1.03005e-06
-9.19075e-07
-8.1595e-07
-7.19869e-07
-6.30032e-07
-5.45709e-07
-4.66166e-07
-3.90731e-07
-3.18724e-07
-2.49512e-07
-1.82561e-07
-1.17457e-07
-5.47936e-08
0.00090656
0.000822496
0.000727059
0.000621755
0.000509617
0.000395408
0.000283469
0.000177071
7.8689e-05
-9.78321e-06
-8.69943e-05
-0.00015212
-0.000204804
-0.000245101
-0.000273427
-0.000290543
-0.000297551
-0.000295869
-0.00028719
-0.000273374
-0.000256277
-0.00023755
-0.000218478
-0.000199956
-0.00018254
-0.000166527
-0.000152025
-0.000139014
-0.000127395
-0.000117032
-0.000107777
-9.94849e-05
-9.2024e-05
-8.52786e-05
-7.91489e-05
-7.35504e-05
-6.84121e-05
-6.36757e-05
-5.92935e-05
-5.52267e-05
-5.14438e-05
-4.79188e-05
-4.46299e-05
-4.15585e-05
-3.86887e-05
-3.60063e-05
-3.34985e-05
-3.11539e-05
-2.89618e-05
-2.69128e-05
-2.49977e-05
-2.32082e-05
-2.15367e-05
-1.99758e-05
-1.85187e-05
-1.71591e-05
-1.5891e-05
-1.47087e-05
-1.36069e-05
-1.25806e-05
-1.16251e-05
-1.0736e-05
-9.90902e-06
-9.14028e-06
-8.42602e-06
-7.76274e-06
-7.14711e-06
-6.57602e-06
-6.04656e-06
-5.55593e-06
-5.10156e-06
-4.6809e-06
-4.29175e-06
-3.93184e-06
-3.59919e-06
-3.29184e-06
-3.00797e-06
-2.74591e-06
-2.50405e-06
-2.28087e-06
-2.07501e-06
-1.88508e-06
-1.70988e-06
-1.5482e-06
-1.39894e-06
-1.26107e-06
-1.1336e-06
-1.0156e-06
-9.0619e-07
-8.04516e-07
-7.09784e-07
-6.21212e-07
-5.3808e-07
-4.5967e-07
-3.8532e-07
-3.14372e-07
-2.46206e-07
-1.80291e-07
-1.16185e-07
-5.42701e-08
0.00083645
0.000761028
0.000677061
0.000584742
0.000485897
0.000384417
0.000284161
0.000188129
9.86047e-05
1.73642e-05
-5.42761e-05
-0.000115458
-0.000165753
-0.000205112
-0.000233835
-0.000252539
-0.000262145
-0.000263849
-0.000259069
-0.000249358
-0.000236272
-0.000221221
-0.000205355
-0.000189518
-0.000174284
-0.000159998
-0.000146833
-0.000134841
-0.000123991
-0.000114205
-0.000105384
-9.74207e-05
-9.02118e-05
-8.36628e-05
-7.76899e-05
-7.22197e-05
-6.719e-05
-6.25479e-05
-5.82496e-05
-5.42589e-05
-5.05459e-05
-4.70854e-05
-4.38563e-05
-4.08407e-05
-3.80226e-05
-3.53883e-05
-3.29253e-05
-3.06224e-05
-2.84691e-05
-2.6456e-05
-2.45745e-05
-2.28162e-05
-2.11737e-05
-1.96397e-05
-1.82077e-05
-1.68715e-05
-1.5625e-05
-1.44629e-05
-1.33799e-05
-1.2371e-05
-1.14317e-05
-1.05576e-05
-9.74462e-06
-8.98883e-06
-8.28657e-06
-7.63442e-06
-7.0291e-06
-6.46758e-06
-5.94696e-06
-5.46451e-06
-5.0177e-06
-4.60405e-06
-4.22136e-06
-3.86743e-06
-3.54027e-06
-3.23801e-06
-2.95883e-06
-2.70109e-06
-2.46322e-06
-2.24371e-06
-2.04123e-06
-1.85442e-06
-1.68208e-06
-1.52305e-06
-1.37622e-06
-1.24061e-06
-1.11521e-06
-9.99136e-07
-8.91508e-07
-7.91488e-07
-6.98295e-07
-6.11164e-07
-5.29389e-07
-4.52266e-07
-3.79149e-07
-3.09397e-07
-2.42399e-07
-1.77626e-07
-1.14611e-07
-5.35657e-08
0.000772457
0.000704538
0.000630274
0.000549062
0.000461866
0.000371804
0.000282219
0.000195794
0.000114605
4.02905e-05
-2.58953e-05
-8.30935e-05
-0.000130827
-0.000168968
-0.00019771
-0.000217538
-0.000229208
-0.000233711
-0.000232229
-0.000226054
-0.000216489
-0.000204738
-0.000191815
-0.000178507
-0.000165377
-0.0001528
-0.000140996
-0.00013007
-0.000120047
-0.0001109
-0.000102571
-9.49902e-05
-8.80805e-05
-8.17691e-05
-7.5988e-05
-7.06761e-05
-6.57798e-05
-6.12528e-05
-5.70561e-05
-5.31563e-05
-4.95256e-05
-4.61404e-05
-4.29807e-05
-4.0029e-05
-3.72702e-05
-3.46907e-05
-3.22786e-05
-3.00228e-05
-2.79133e-05
-2.5941e-05
-2.40973e-05
-2.23742e-05
-2.07643e-05
-1.92608e-05
-1.78571e-05
-1.65471e-05
-1.53251e-05
-1.41857e-05
-1.31238e-05
-1.21346e-05
-1.12135e-05
-1.03564e-05
-9.55907e-06
-8.81787e-06
-8.12915e-06
-7.48954e-06
-6.89585e-06
-6.34509e-06
-5.83445e-06
-5.36124e-06
-4.92296e-06
-4.51721e-06
-4.14181e-06
-3.79461e-06
-3.47367e-06
-3.17714e-06
-2.90326e-06
-2.6504e-06
-2.41703e-06
-2.20167e-06
-2.00301e-06
-1.81972e-06
-1.65062e-06
-1.49458e-06
-1.35051e-06
-1.21744e-06
-1.0944e-06
-9.80499e-07
-8.74887e-07
-7.76738e-07
-6.85288e-07
-5.99789e-07
-5.19548e-07
-4.43882e-07
-3.72155e-07
-3.03744e-07
-2.38049e-07
-1.74538e-07
-1.12728e-07
-5.26938e-08
0.000713663
0.000652359
0.000586414
0.000514761
0.000437767
0.000357901
0.000278003
0.000200429
0.000127031
5.92999e-05
-1.59362e-06
-5.48137e-05
-9.98585e-05
-0.000136541
-0.000164963
-0.000185492
-0.000198732
-0.000205499
-0.000206765
-0.000203601
-0.000197096
-0.000188275
-0.000178026
-0.000167068
-0.000155941
-0.000145029
-0.000134583
-0.000124748
-0.000115593
-0.000107132
-9.93454e-05
-9.21933e-05
-8.56259e-05
-7.95903e-05
-7.40345e-05
-6.89096e-05
-6.41715e-05
-5.97808e-05
-5.57034e-05
-5.19097e-05
-4.83745e-05
-4.50761e-05
-4.19956e-05
-3.91168e-05
-3.6425e-05
-3.39075e-05
-3.15527e-05
-2.93501e-05
-2.72899e-05
-2.53633e-05
-2.3562e-05
-2.18784e-05
-2.03052e-05
-1.88358e-05
-1.74638e-05
-1.61833e-05
-1.49887e-05
-1.38747e-05
-1.28365e-05
-1.18693e-05
-1.09686e-05
-1.01304e-05
-9.35078e-06
-8.62593e-06
-7.95237e-06
-7.32683e-06
-6.74619e-06
-6.20751e-06
-5.70806e-06
-5.2452e-06
-4.8165e-06
-4.4196e-06
-4.05238e-06
-3.71275e-06
-3.39879e-06
-3.1087e-06
-2.84076e-06
-2.59339e-06
-2.36507e-06
-2.15438e-06
-1.96e-06
-1.78068e-06
-1.61522e-06
-1.46254e-06
-1.32158e-06
-1.19137e-06
-1.07098e-06
-9.59521e-07
-8.56176e-07
-7.60133e-07
-6.70645e-07
-5.86982e-07
-5.08469e-07
-4.34439e-07
-3.64271e-07
-2.97358e-07
-2.33113e-07
-1.71e-07
-1.10525e-07
-5.16601e-08
0.000659297
0.000603899
0.000545174
0.000481803
0.000413754
0.000342968
0.000271827
0.000202364
0.000136207
7.46919e-05
1.88932e-05
-3.03947e-05
-7.2665e-05
-0.000107688
-0.000135491
-0.000156338
-0.000170704
-0.000179245
-0.000182756
-0.00018212
-0.000178244
-0.000171995
-0.000164146
-0.000155344
-0.000146096
-0.000136783
-0.00012767
-0.000118931
-0.000110666
-0.000102925
-9.57186e-05
-8.90348e-05
-8.28471e-05
-7.71218e-05
-7.18224e-05
-6.69121e-05
-6.23561e-05
-5.81225e-05
-5.41824e-05
-5.05105e-05
-4.70844e-05
-4.38846e-05
-4.08939e-05
-3.80971e-05
-3.54809e-05
-3.3033e-05
-3.07424e-05
-2.85992e-05
-2.65941e-05
-2.47186e-05
-2.29647e-05
-2.13251e-05
-1.97928e-05
-1.83614e-05
-1.70248e-05
-1.57771e-05
-1.46131e-05
-1.35275e-05
-1.25157e-05
-1.1573e-05
-1.06951e-05
-9.8781e-06
-9.11809e-06
-8.41147e-06
-7.75485e-06
-7.145e-06
-6.57891e-06
-6.05372e-06
-5.56676e-06
-5.11545e-06
-4.69745e-06
-4.31045e-06
-3.95236e-06
-3.62117e-06
-3.31501e-06
-3.03212e-06
-2.77083e-06
-2.52959e-06
-2.30692e-06
-2.10144e-06
-1.91187e-06
-1.73697e-06
-1.57559e-06
-1.42667e-06
-1.28918e-06
-1.16217e-06
-1.04474e-06
-9.36027e-07
-8.3522e-07
-7.41535e-07
-6.54244e-07
-5.72638e-07
-4.96058e-07
-4.23857e-07
-3.55429e-07
-2.90185e-07
-2.27547e-07
-1.66983e-07
-1.07992e-07
-5.0465e-08
0.000608703
0.00055863
0.000506239
0.000450097
0.000389912
0.000327204
0.000263956
0.000201895
0.000142435
8.67563e-05
3.58291e-05
-9.60607e-06
-4.90528e-05
-8.22545e-05
-0.00010918
-0.000130007
-0.000145096
-0.000154969
-0.000160269
-0.000161717
-0.000160066
-0.000156045
-0.000150322
-0.000143472
-0.000135963
-0.00012816
-0.000120335
-0.000112676
-0.000105309
-9.83077e-05
-9.17087e-05
-8.55238e-05
-7.97471e-05
-7.43624e-05
-6.93474e-05
-6.46772e-05
-6.03263e-05
-5.62699e-05
-5.2485e-05
-4.89505e-05
-4.56473e-05
-4.25583e-05
-3.96683e-05
-3.69634e-05
-3.44314e-05
-3.2061e-05
-2.9842e-05
-2.77649e-05
-2.5821e-05
-2.40023e-05
-2.23011e-05
-2.07104e-05
-1.92235e-05
-1.78343e-05
-1.65368e-05
-1.53257e-05
-1.41955e-05
-1.31415e-05
-1.2159e-05
-1.12435e-05
-1.0391e-05
-9.59746e-06
-8.85928e-06
-8.17293e-06
-7.5351e-06
-6.9427e-06
-6.39278e-06
-5.88258e-06
-5.40949e-06
-4.97104e-06
-4.56492e-06
-4.18892e-06
-3.84099e-06
-3.5192e-06
-3.22171e-06
-2.94684e-06
-2.69294e-06
-2.45852e-06
-2.24214e-06
-2.04246e-06
-1.85823e-06
-1.68826e-06
-1.53143e-06
-1.3867e-06
-1.25307e-06
-1.12963e-06
-1.0155e-06
-9.09838e-07
-8.11858e-07
-7.20802e-07
-6.3596e-07
-5.56645e-07
-4.82218e-07
-4.12053e-07
-3.4556e-07
-2.82167e-07
-2.21309e-07
-1.62457e-07
-1.05114e-07
-4.91054e-08
0.000561317
0.000516085
0.000469305
0.000419519
0.000366273
0.000310755
0.000254607
0.000199284
0.000145995
9.5771e-05
4.94756e-05
7.7872e-06
-2.882e-05
-6.00759e-05
-8.59059e-05
-0.000106415
-0.000121872
-0.000132681
-0.000139355
-0.000142482
-0.000142679
-0.000140559
-0.000136692
-0.000131584
-0.000125661
-0.000119265
-0.000112663
-0.000106053
-9.95731e-05
-9.33167e-05
-8.73409e-05
-8.16762e-05
-7.63347e-05
-7.13153e-05
-6.66089e-05
-6.22016e-05
-5.80768e-05
-5.42168e-05
-5.06043e-05
-4.72226e-05
-4.4056e-05
-4.10902e-05
-3.83119e-05
-3.5709e-05
-3.32704e-05
-3.09859e-05
-2.8846e-05
-2.68421e-05
-2.49659e-05
-2.32099e-05
-2.15668e-05
-2.00302e-05
-1.85935e-05
-1.72509e-05
-1.59969e-05
-1.4826e-05
-1.37334e-05
-1.27142e-05
-1.17641e-05
-1.08787e-05
-1.00542e-05
-9.28666e-06
-8.57262e-06
-7.90869e-06
-7.29167e-06
-6.71856e-06
-6.18654e-06
-5.69293e-06
-5.23521e-06
-4.81098e-06
-4.41802e-06
-4.05419e-06
-3.71752e-06
-3.40613e-06
-3.11826e-06
-2.85225e-06
-2.60655e-06
-2.37969e-06
-2.17028e-06
-1.97703e-06
-1.79873e-06
-1.63422e-06
-1.48242e-06
-1.34234e-06
-1.213e-06
-1.09352e-06
-9.83048e-07
-8.80771e-07
-7.85929e-07
-6.97789e-07
-6.15663e-07
-5.38891e-07
-4.66852e-07
-3.98944e-07
-3.34593e-07
-2.73245e-07
-2.14353e-07
-1.57393e-07
-1.01874e-07
-4.75755e-08
0.000516649
0.000475849
0.000434081
0.000389922
0.000342825
0.000293717
0.000243955
0.000194753
0.000147137
0.000101992
6.00809e-05
2.20144e-05
-1.17638e-05
-4.09818e-05
-6.55338e-05
-8.54693e-05
-0.000100977
-0.000112368
-0.000120044
-0.000124478
-0.000126176
-0.000125645
-0.000123372
-0.000119795
-0.000115295
-0.00011019
-0.000104734
-9.91237e-05
-9.35072e-05
-8.79892e-05
-8.26416e-05
-7.751e-05
-7.26207e-05
-6.79862e-05
-6.36087e-05
-5.94842e-05
-5.56044e-05
-5.19586e-05
-4.85348e-05
-4.53208e-05
-4.23044e-05
-3.94741e-05
-3.68187e-05
-3.4328e-05
-3.19921e-05
-2.9802e-05
-2.77492e-05
-2.58257e-05
-2.4024e-05
-2.23369e-05
-2.07579e-05
-1.92807e-05
-1.78992e-05
-1.6608e-05
-1.54016e-05
-1.42752e-05
-1.32238e-05
-1.2243e-05
-1.13285e-05
-1.04764e-05
-9.68265e-06
-8.94379e-06
-8.25636e-06
-7.61713e-06
-7.02304e-06
-6.47121e-06
-5.95892e-06
-5.48359e-06
-5.0428e-06
-4.63426e-06
-4.25581e-06
-3.90542e-06
-3.58116e-06
-3.28125e-06
-3.00399e-06
-2.74778e-06
-2.51112e-06
-2.2926e-06
-2.09089e-06
-1.90474e-06
-1.73298e-06
-1.5745e-06
-1.42827e-06
-1.29331e-06
-1.16871e-06
-1.05361e-06
-9.47175e-07
-8.48639e-07
-7.57264e-07
-6.72346e-07
-5.93223e-07
-5.1926e-07
-4.4986e-07
-3.84442e-07
-3.22454e-07
-2.63362e-07
-2.06633e-07
-1.51758e-07
-9.82558e-08
-4.58664e-08
0.000474268
0.000437552
0.000400303
0.000361163
0.000319541
0.000276165
0.00023215
0.000188506
0.000146092
0.000105665
6.78864e-05
3.33006e-05
2.31488e-06
-2.48054e-05
-4.79349e-05
-6.70801e-05
-8.23673e-05
-9.40265e-05
-0.000102372
-0.000107778
-0.000110654
-0.00011142
-0.000110485
-0.000108228
-0.000104983
-0.000101039
-9.66358e-05
-9.19634e-05
-8.71712e-05
-8.23712e-05
-7.76447e-05
-7.30487e-05
-6.86208e-05
-6.43841e-05
-6.03507e-05
-5.65252e-05
-5.29067e-05
-4.94908e-05
-4.62708e-05
-4.32386e-05
-4.03856e-05
-3.7703e-05
-3.51819e-05
-3.28137e-05
-3.05901e-05
-2.85034e-05
-2.65458e-05
-2.47104e-05
-2.29901e-05
-2.13787e-05
-1.98698e-05
-1.84577e-05
-1.71368e-05
-1.59018e-05
-1.47478e-05
-1.367e-05
-1.26639e-05
-1.17252e-05
-1.08499e-05
-1.00342e-05
-9.2743e-06
-8.56689e-06
-7.90868e-06
-7.29658e-06
-6.72768e-06
-6.19922e-06
-5.7086e-06
-5.25336e-06
-4.83118e-06
-4.43988e-06
-4.07738e-06
-3.74175e-06
-3.43114e-06
-3.14385e-06
-2.87825e-06
-2.6328e-06
-2.40609e-06
-2.19674e-06
-2.0035e-06
-1.82516e-06
-1.6606e-06
-1.50876e-06
-1.36865e-06
-1.23934e-06
-1.11995e-06
-1.00966e-06
-9.07675e-07
-8.13256e-07
-7.25697e-07
-6.44327e-07
-5.68509e-07
-4.97638e-07
-4.3114e-07
-3.68463e-07
-3.09073e-07
-2.52458e-07
-1.98106e-07
-1.45523e-07
-9.42404e-08
-4.39654e-08
0.000433778
0.000400841
0.000367691
0.000333057
0.000296342
0.000258113
0.000219286
0.000180698
0.000143062
0.000107018
7.31343e-05
4.18884e-05
1.36485e-05
-1.13337e-05
-3.29228e-05
-5.10938e-05
-6.59237e-05
-7.75785e-05
-8.62976e-05
-9.23749e-05
-9.61391e-05
-9.79339e-05
-9.80995e-05
-9.69582e-05
-9.48028e-05
-9.18909e-05
-8.84416e-05
-8.46363e-05
-8.06207e-05
-7.6509e-05
-7.23882e-05
-6.83227e-05
-6.43582e-05
-6.05264e-05
-5.68474e-05
-5.3333e-05
-4.9989e-05
-4.68164e-05
-4.38133e-05
-4.09757e-05
-3.82982e-05
-3.57746e-05
-3.33984e-05
-3.11628e-05
-2.9061e-05
-2.70863e-05
-2.52323e-05
-2.34925e-05
-2.18609e-05
-2.03317e-05
-1.88992e-05
-1.75581e-05
-1.63032e-05
-1.51296e-05
-1.40327e-05
-1.30081e-05
-1.20514e-05
-1.11587e-05
-1.03262e-05
-9.5502e-06
-8.82732e-06
-8.15429e-06
-7.52802e-06
-6.94559e-06
-6.40424e-06
-5.90134e-06
-5.43442e-06
-5.00116e-06
-4.59935e-06
-4.22691e-06
-3.88187e-06
-3.5624e-06
-3.26674e-06
-2.99326e-06
-2.74043e-06
-2.50678e-06
-2.29096e-06
-2.09166e-06
-1.90769e-06
-1.73791e-06
-1.58123e-06
-1.43667e-06
-1.30327e-06
-1.18015e-06
-1.06648e-06
-9.61458e-07
-8.64351e-07
-7.74446e-07
-6.91072e-07
-6.1359e-07
-5.41397e-07
-4.73916e-07
-4.10601e-07
-3.50925e-07
-2.94381e-07
-2.40478e-07
-1.8873e-07
-1.38657e-07
-8.9814e-08
-4.18528e-08
0.000387564
0.000358808
0.000330099
0.000300297
0.000268821
0.000236089
0.000202824
0.000169689
0.000137252
0.000106028
7.6485e-05
4.9026e-05
2.39706e-05
1.54881e-06
-1.81011e-05
-3.49294e-05
-4.89686e-05
-6.0325e-05
-6.91662e-05
-7.57079e-05
-8.01987e-05
-8.2905e-05
-8.4097e-05
-8.40369e-05
-8.29694e-05
-8.11154e-05
-7.86686e-05
-7.57944e-05
-7.26303e-05
-6.92882e-05
-6.58571e-05
-6.24059e-05
-5.89868e-05
-5.56384e-05
-5.23882e-05
-4.92547e-05
-4.62501e-05
-4.3381e-05
-4.06505e-05
-3.80588e-05
-3.56042e-05
-3.32836e-05
-3.10928e-05
-2.90273e-05
-2.70819e-05
-2.52515e-05
-2.35307e-05
-2.19144e-05
-2.03973e-05
-1.89744e-05
-1.76407e-05
-1.63913e-05
-1.52218e-05
-1.41277e-05
-1.31048e-05
-1.2149e-05
-1.12564e-05
-1.04233e-05
-9.64624e-06
-8.92185e-06
-8.24695e-06
-7.61852e-06
-7.0337e-06
-6.48977e-06
-5.98415e-06
-5.51442e-06
-5.07828e-06
-4.67354e-06
-4.29817e-06
-3.95021e-06
-3.62785e-06
-3.32936e-06
-3.05311e-06
-2.79758e-06
-2.56133e-06
-2.343e-06
-2.14132e-06
-1.95508e-06
-1.78316e-06
-1.62448e-06
-1.47806e-06
-1.34295e-06
-1.21827e-06
-1.1032e-06
-9.96947e-07
-8.98787e-07
-8.08019e-07
-7.23981e-07
-6.46047e-07
-5.73621e-07
-5.06139e-07
-4.43064e-07
-3.83884e-07
-3.28108e-07
-2.7526e-07
-2.2488e-07
-1.7651e-07
-1.29701e-07
-8.4036e-08
-3.90735e-08
0.000335159
0.000310914
0.000286896
0.000262123
0.000236063
0.000209012
0.000181516
0.000154078
0.000127128
0.00010106
7.62408e-05
5.29922e-05
3.15779e-05
1.21958e-05
-5.02385e-06
-2.00177e-05
-3.27858e-05
-4.33854e-05
-5.1923e-05
-5.85452e-05
-6.34275e-05
-6.67639e-05
-6.87567e-05
-6.96074e-05
-6.9509e-05
-6.8641e-05
-6.71652e-05
-6.52239e-05
-6.29398e-05
-6.0416e-05
-5.77375e-05
-5.49732e-05
-5.21779e-05
-4.93938e-05
-4.66534e-05
-4.39806e-05
-4.13923e-05
-3.89005e-05
-3.65127e-05
-3.42331e-05
-3.20635e-05
-3.0004e-05
-2.80531e-05
-2.62085e-05
-2.44671e-05
-2.28253e-05
-2.12794e-05
-1.98252e-05
-1.84587e-05
-1.71758e-05
-1.59723e-05
-1.48442e-05
-1.37876e-05
-1.27985e-05
-1.18734e-05
-1.10087e-05
-1.02009e-05
-9.44685e-06
-8.74329e-06
-8.0873e-06
-7.47602e-06
-6.90674e-06
-6.3769e-06
-5.88404e-06
-5.42586e-06
-5.00016e-06
-4.60486e-06
-4.238e-06
-3.89774e-06
-3.58231e-06
-3.29006e-06
-3.01944e-06
-2.76898e-06
-2.5373e-06
-2.32309e-06
-2.12512e-06
-1.94224e-06
-1.77336e-06
-1.61745e-06
-1.47355e-06
-1.34075e-06
-1.21821e-06
-1.10513e-06
-1.00076e-06
-9.04395e-07
-8.15359e-07
-7.33026e-07
-6.56795e-07
-5.86101e-07
-5.20403e-07
-4.59191e-07
-4.01979e-07
-3.483e-07
-2.9771e-07
-2.49777e-07
-2.0408e-07
-1.60205e-07
-1.17737e-07
-7.62987e-08
-3.54324e-08
0.000281216
0.000261389
0.000241882
0.000221878
0.000200915
0.000179194
0.00015712
0.000135061
0.000113332
9.22249e-05
7.2014e-05
5.29476e-05
3.5234e-05
1.9036e-05
4.46822e-06
-8.40295e-06
-1.95577e-05
-2.90193e-05
-3.6849e-05
-4.31395e-05
-4.80085e-05
-5.15905e-05
-5.40302e-05
-5.54759e-05
-5.60733e-05
-5.59618e-05
-5.52705e-05
-5.41162e-05
-5.26024e-05
-5.08189e-05
-4.88424e-05
-4.67368e-05
-4.45547e-05
-4.23386e-05
-4.01224e-05
-3.79324e-05
-3.57884e-05
-3.37053e-05
-3.16938e-05
-2.97611e-05
-2.79117e-05
-2.61481e-05
-2.44712e-05
-2.28806e-05
-2.13749e-05
-1.99523e-05
-1.86101e-05
-1.73457e-05
-1.61559e-05
-1.50377e-05
-1.39877e-05
-1.30027e-05
-1.20795e-05
-1.12149e-05
-1.04058e-05
-9.64925e-06
-8.94225e-06
-8.28204e-06
-7.66592e-06
-7.09132e-06
-6.55579e-06
-6.05698e-06
-5.59265e-06
-5.16068e-06
-4.75906e-06
-4.38587e-06
-4.0393e-06
-3.71764e-06
-3.41927e-06
-3.14266e-06
-2.88637e-06
-2.64904e-06
-2.42938e-06
-2.22617e-06
-2.03828e-06
-1.86463e-06
-1.70421e-06
-1.55607e-06
-1.41929e-06