/*--------------------------------*- C++ -*----------------------------------*\
| =========                 |                                                 |
| \\      /  F ield         | OpenFOAM: The Open Source CFD Toolbox           |
|  \\    /   O peration     | Version:  2.3.0                                 |
|   \\  /    A nd           | Web:      www.OpenFOAM.org                      |
|    \\/     M anipulation  |                                                 |
\*---------------------------------------------------------------------------*/
FoamFile
{
    version     2.0;
    format      ascii;
    class       volVectorField;
    location    "0.05";
    object      U_0;
}
// * * * * * * * * * * * * * * * * * * * * * * * * * * * * * * * * * * * * * //

dimensions      [0 1 -1 0 0 0 0];

internalField   nonuniform List<vector> 
2889
(
(0.173918 0.0056261 0)
(0.157396 0.00587 0)
(0.141768 0.00554346 0)
(0.126917 0.00498166 0)
(0.113227 0.00433773 0)
(0.100926 0.00367491 0)
(0.0900601 0.00303181 0)
(0.080606 0.00243568 0)
(0.0725159 0.00190398 0)
(0.0657153 0.00144598 0)
(0.0601024 0.00106406 0)
(0.0555585 0.00075482 0)
(0.0519612 0.00051074 0)
(0.0491954 0.00032258 0)
(0.0471565 0.000181008 0)
(0.045748 7.52297e-05 0)
(0.0448866 -1.00383e-05 0)
(0.0445305 -7.67695e-05 0)
(0.0445945 -0.000106258 0)
(0.0448142 -8.98625e-05 0)
(0.0450896 -6.2755e-05 0)
(0.0453576 -4.02678e-05 0)
(0.0455859 -2.49514e-05 0)
(0.0457668 -1.55334e-05 0)
(0.0459036 -1.00199e-05 0)
(0.0460036 -6.86121e-06 0)
(0.0460744 -5.05161e-06 0)
(0.0461232 -3.92756e-06 0)
(0.0461559 -3.13582e-06 0)
(0.0461771 -2.52313e-06 0)
(0.0461903 -2.04362e-06 0)
(0.046198 -1.70057e-06 0)
(0.046202 -1.45971e-06 0)
(0.0462034 -1.17917e-06 0)
(0.0462028 -8.73047e-07 0)
(0.0462008 -6.70758e-07 0)
(0.0461977 -5.40941e-07 0)
(0.0461942 -4.53863e-07 0)
(0.0461905 -3.90854e-07 0)
(0.0461868 -3.41613e-07 0)
(0.0461831 -3.01087e-07 0)
(0.0461795 -2.66794e-07 0)
(0.046176 -2.37413e-07 0)
(0.0461727 -2.12122e-07 0)
(0.0461696 -1.90352e-07 0)
(0.0461666 -1.71614e-07 0)
(0.0461637 -1.55444e-07 0)
(0.0461611 -1.41453e-07 0)
(0.0461586 -1.29303e-07 0)
(0.0461562 -1.18696e-07 0)
(0.046154 -1.09385e-07 0)
(0.0461519 -1.0115e-07 0)
(0.04615 -9.38184e-08 0)
(0.0461483 -8.72418e-08 0)
(0.0461466 -8.12993e-08 0)
(0.0461451 -7.58976e-08 0)
(0.0461437 -7.0953e-08 0)
(0.0461424 -6.6406e-08 0)
(0.0461412 -6.21962e-08 0)
(0.0461401 -5.82851e-08 0)
(0.0461391 -5.46307e-08 0)
(0.0461382 -5.12121e-08 0)
(0.0461373 -4.80032e-08 0)
(0.0461365 -4.49868e-08 0)
(0.0461358 -4.21456e-08 0)
(0.0461352 -3.94615e-08 0)
(0.0461346 -3.69285e-08 0)
(0.046134 -3.45316e-08 0)
(0.0461335 -3.22692e-08 0)
(0.0461331 -3.01231e-08 0)
(0.0461327 -2.80995e-08 0)
(0.0461323 -2.61731e-08 0)
(0.046132 -2.43651e-08 0)
(0.0461317 -2.26478e-08 0)
(0.0461314 -2.103e-08 0)
(0.0461311 -1.95054e-08 0)
(0.0461309 -1.80489e-08 0)
(0.0461307 -1.66878e-08 0)
(0.0461305 -1.53866e-08 0)
(0.0461303 -1.41677e-08 0)
(0.0461302 -1.3018e-08 0)
(0.04613 -1.19254e-08 0)
(0.0461299 -1.0897e-08 0)
(0.0461298 -9.9157e-09 0)
(0.0461297 -8.98201e-09 0)
(0.0461296 -8.09735e-09 0)
(0.0461295 -7.25166e-09 0)
(0.0461294 -6.44406e-09 0)
(0.0461293 -5.67116e-09 0)
(0.0461293 -4.91952e-09 0)
(0.0461292 -4.187e-09 0)
(0.0461291 -3.46531e-09 0)
(0.0461291 -2.73712e-09 0)
(0.046129 -1.99646e-09 0)
(0.046129 -1.21081e-09 0)
(0.0461289 -3.3593e-10 0)
(0.0461289 7.2307e-10 0)
(0.0461288 2.20225e-09 0)
(0.0461287 4.08135e-09 0)
(0.0461286 2.57454e-08 0)
(0.193109 0.00899684 0)
(0.190916 0.00972888 0)
(0.187284 0.00960898 0)
(0.18243 0.00913451 0)
(0.176817 0.00850196 0)
(0.170824 0.00777154 0)
(0.164698 0.00698025 0)
(0.158626 0.00616211 0)
(0.152761 0.0053462 0)
(0.147229 0.0045559 0)
(0.14213 0.00380847 0)
(0.137547 0.00311432 0)
(0.133544 0.00247765 0)
(0.130173 0.00189937 0)
(0.127461 0.00138063 0)
(0.125411 0.000923543 0)
(0.123997 0.00052894 0)
(0.123117 0.000202176 0)
(0.122626 -3.57345e-05 0)
(0.122543 -0.000164081 0)
(0.122708 -0.000204547 0)
(0.122998 -0.000195118 0)
(0.123325 -0.00016378 0)
(0.123633 -0.000126937 0)
(0.123897 -9.28246e-05 0)
(0.124105 -6.47446e-05 0)
(0.124261 -4.33259e-05 0)
(0.124371 -2.78559e-05 0)
(0.124442 -1.71537e-05 0)
(0.124485 -1.00166e-05 0)
(0.124507 -5.40429e-06 0)
(0.124515 -2.46307e-06 0)
(0.124512 -4.23933e-07 0)
(0.1245 1.20564e-06 0)
(0.124483 2.43712e-06 0)
(0.124462 3.17675e-06 0)
(0.12444 3.53384e-06 0)
(0.124418 3.64635e-06 0)
(0.124395 3.61814e-06 0)
(0.124374 3.51472e-06 0)
(0.124353 3.37299e-06 0)
(0.124334 3.21256e-06 0)
(0.124315 3.0437e-06 0)
(0.124298 2.87195e-06 0)
(0.124281 2.70053e-06 0)
(0.124266 2.53153e-06 0)
(0.124251 2.36654e-06 0)
(0.124238 2.20671e-06 0)
(0.124225 2.05291e-06 0)
(0.124213 1.9058e-06 0)
(0.124202 1.76578e-06 0)
(0.124192 1.63314e-06 0)
(0.124183 1.50798e-06 0)
(0.124174 1.39029e-06 0)
(0.124165 1.27999e-06 0)
(0.124158 1.17688e-06 0)
(0.124151 1.08074e-06 0)
(0.124144 9.91293e-07 0)
(0.124138 9.0825e-07 0)
(0.124132 8.31292e-07 0)
(0.124127 7.60101e-07 0)
(0.124122 6.94339e-07 0)
(0.124118 6.33683e-07 0)
(0.124114 5.77813e-07 0)
(0.12411 5.26416e-07 0)
(0.124106 4.79201e-07 0)
(0.124103 4.35871e-07 0)
(0.1241 3.96158e-07 0)
(0.124098 3.5979e-07 0)
(0.124095 3.26538e-07 0)
(0.124093 2.96145e-07 0)
(0.124091 2.68425e-07 0)
(0.124089 2.43132e-07 0)
(0.124087 2.20102e-07 0)
(0.124085 1.99147e-07 0)
(0.124084 1.80087e-07 0)
(0.124083 1.62812e-07 0)
(0.124081 1.47124e-07 0)
(0.12408 1.32934e-07 0)
(0.124079 1.2009e-07 0)
(0.124078 1.08477e-07 0)
(0.124077 9.80138e-08 0)
(0.124077 8.85849e-08 0)
(0.124076 8.01159e-08 0)
(0.124075 7.25304e-08 0)
(0.124075 6.57362e-08 0)
(0.124074 5.96815e-08 0)
(0.124074 5.43006e-08 0)
(0.124073 4.95377e-08 0)
(0.124073 4.53627e-08 0)
(0.124072 4.17306e-08 0)
(0.124072 3.86173e-08 0)
(0.124072 3.60148e-08 0)
(0.124071 3.39205e-08 0)
(0.124071 3.23827e-08 0)
(0.124071 3.15172e-08 0)
(0.124071 3.1613e-08 0)
(0.12407 3.34348e-08 0)
(0.12407 3.98681e-08 0)
(0.12407 7.60102e-08 0)
(0.19606 0.0085867 0)
(0.196947 0.00967692 0)
(0.1973 0.0100848 0)
(0.196912 0.0101001 0)
(0.195862 0.00986452 0)
(0.194285 0.00942688 0)
(0.192291 0.00882728 0)
(0.189983 0.0081109 0)
(0.187472 0.00731999 0)
(0.184871 0.00648939 0)
(0.182291 0.00564533 0)
(0.179832 0.00480549 0)
(0.177585 0.00398119 0)
(0.175625 0.00318191 0)
(0.174003 0.00241981 0)
(0.172741 0.00171169 0)
(0.171829 0.00108076 0)
(0.171226 0.000555755 0)
(0.17085 0.000157961 0)
(0.170642 -0.0001057 0)
(0.1706 -0.000247541 0)
(0.170679 -0.000300255 0)
(0.170833 -0.000297069 0)
(0.171019 -0.000263428 0)
(0.171208 -0.000216751 0)
(0.171379 -0.000167945 0)
(0.171519 -0.000123152 0)
(0.171626 -8.52732e-05 0)
(0.171698 -5.5135e-05 0)
(0.171741 -3.2344e-05 0)
(0.171758 -1.58332e-05 0)
(0.171754 -4.06216e-06 0)
(0.171734 4.43608e-06 0)
(0.171703 1.03912e-05 0)
(0.171666 1.41465e-05 0)
(0.171626 1.61731e-05 0)
(0.171584 1.69818e-05 0)
(0.171542 1.7011e-05 0)
(0.171502 1.65799e-05 0)
(0.171463 1.58979e-05 0)
(0.171426 1.50925e-05 0)
(0.171391 1.42373e-05 0)
(0.171358 1.33734e-05 0)
(0.171328 1.25234e-05 0)
(0.171299 1.16994e-05 0)
(0.171271 1.09078e-05 0)
(0.171246 1.01521e-05 0)
(0.171222 9.43419e-06 0)
(0.1712 8.75458e-06 0)
(0.171179 8.1133e-06 0)
(0.17116 7.50984e-06 0)
(0.171142 6.94335e-06 0)
(0.171126 6.41274e-06 0)
(0.17111 5.91668e-06 0)
(0.171096 5.45377e-06 0)
(0.171082 5.02247e-06 0)
(0.17107 4.62123e-06 0)
(0.171058 4.24846e-06 0)
(0.171048 3.90258e-06 0)
(0.171038 3.58204e-06 0)
(0.171029 3.28532e-06 0)
(0.171021 3.01093e-06 0)
(0.171013 2.75744e-06 0)
(0.171006 2.52349e-06 0)
(0.170999 2.30778e-06 0)
(0.170993 2.10907e-06 0)
(0.170987 1.92616e-06 0)
(0.170982 1.75796e-06 0)
(0.170977 1.6034e-06 0)
(0.170973 1.4615e-06 0)
(0.170969 1.33132e-06 0)
(0.170965 1.212e-06 0)
(0.170962 1.1027e-06 0)
(0.170959 1.00267e-06 0)
(0.170956 9.11208e-07 0)
(0.170953 8.27611e-07 0)
(0.170951 7.51323e-07 0)
(0.170949 6.81711e-07 0)
(0.170947 6.18273e-07 0)
(0.170945 5.60504e-07 0)
(0.170943 5.0793e-07 0)
(0.170942 4.60151e-07 0)
(0.17094 4.16766e-07 0)
(0.170939 3.77408e-07 0)
(0.170938 3.41761e-07 0)
(0.170937 3.09493e-07 0)
(0.170936 2.80334e-07 0)
(0.170935 2.54031e-07 0)
(0.170934 2.3034e-07 0)
(0.170933 2.09073e-07 0)
(0.170933 1.90035e-07 0)
(0.170932 1.73073e-07 0)
(0.170932 1.58068e-07 0)
(0.170931 1.44932e-07 0)
(0.170931 1.33663e-07 0)
(0.17093 1.24399e-07 0)
(0.17093 1.17603e-07 0)
(0.170929 1.14657e-07 0)
(0.170929 1.21281e-07 0)
(0.170929 1.53618e-07 0)
(0.197075 0.00791353 0)
(0.198303 0.00903191 0)
(0.199489 0.0096347 0)
(0.200404 0.009876 0)
(0.201005 0.0098589 0)
(0.201301 0.00962428 0)
(0.201304 0.00920329 0)
(0.20103 0.00863254 0)
(0.200518 0.00794836 0)
(0.199819 0.00718209 0)
(0.198995 0.00635881 0)
(0.198109 0.00549806 0)
(0.19722 0.00461652 0)
(0.196377 0.00373239 0)
(0.195614 0.00286915 0)
(0.194951 0.00205673 0)
(0.19439 0.00133083 0)
(0.193924 0.000728861 0)
(0.193542 0.000274692 0)
(0.193217 -3.2079e-05 0)
(0.192968 -0.000212997 0)
(0.192798 -0.000298415 0)
(0.192692 -0.000318439 0)
(0.192636 -0.000298072 0)
(0.19261 -0.000255995 0)
(0.192601 -0.000205166 0)
(0.192597 -0.000153958 0)
(0.192589 -0.000107291 0)
(0.192574 -6.76015e-05 0)
(0.192548 -3.55899e-05 0)
(0.192511 -1.07639e-05 0)
(0.192463 7.95241e-06 0)
(0.192408 2.14688e-05 0)
(0.192349 3.04408e-05 0)
(0.192289 3.56789e-05 0)
(0.192228 3.81304e-05 0)
(0.192169 3.86693e-05 0)
(0.192111 3.79948e-05 0)
(0.192056 3.66082e-05 0)
(0.192004 3.48407e-05 0)
(0.191954 3.28988e-05 0)
(0.191907 3.09051e-05 0)
(0.191864 2.89298e-05 0)
(0.191823 2.70116e-05 0)
(0.191784 2.51709e-05 0)
(0.191748 2.34178e-05 0)
(0.191715 2.17568e-05 0)
(0.191683 2.01888e-05 0)
(0.191654 1.87128e-05 0)
(0.191627 1.73267e-05 0)
(0.191601 1.60277e-05 0)
(0.191578 1.48124e-05 0)
(0.191556 1.36772e-05 0)
(0.191535 1.26184e-05 0)
(0.191516 1.16322e-05 0)
(0.191499 1.07146e-05 0)
(0.191483 9.86183e-06 0)
(0.191467 9.07023e-06 0)
(0.191453 8.33611e-06 0)
(0.191441 7.65596e-06 0)
(0.191429 7.02639e-06 0)
(0.191418 6.44415e-06 0)
(0.191407 5.90613e-06 0)
(0.191398 5.40941e-06 0)
(0.191389 4.95116e-06 0)
(0.191381 4.52877e-06 0)
(0.191374 4.13971e-06 0)
(0.191367 3.78163e-06 0)
(0.191361 3.45231e-06 0)
(0.191355 3.14968e-06 0)
(0.19135 2.87177e-06 0)
(0.191345 2.61675e-06 0)
(0.19134 2.38292e-06 0)
(0.191336 2.16865e-06 0)
(0.191332 1.9725e-06 0)
(0.191329 1.793e-06 0)
(0.191326 1.62894e-06 0)
(0.191323 1.47905e-06 0)
(0.19132 1.34224e-06 0)
(0.191318 1.21746e-06 0)
(0.191316 1.10374e-06 0)
(0.191314 1.0002e-06 0)
(0.191312 9.06005e-07 0)
(0.19131 8.20386e-07 0)
(0.191309 7.42656e-07 0)
(0.191307 6.72139e-07 0)
(0.191306 6.08245e-07 0)
(0.191305 5.50433e-07 0)
(0.191304 4.98189e-07 0)
(0.191303 4.51082e-07 0)
(0.191302 4.08694e-07 0)
(0.191301 3.70673e-07 0)
(0.1913 3.36719e-07 0)
(0.1913 3.06597e-07 0)
(0.191299 2.80193e-07 0)
(0.191299 2.57586e-07 0)
(0.191298 2.39295e-07 0)
(0.191298 2.26995e-07 0)
(0.191297 2.26172e-07 0)
(0.191297 2.44696e-07 0)
(0.197784 0.007373 0)
(0.198871 0.00839003 0)
(0.200055 0.00900857 0)
(0.201173 0.00931424 0)
(0.202168 0.00938484 0)
(0.203022 0.00925639 0)
(0.203717 0.0089518 0)
(0.204237 0.00849674 0)
(0.20458 0.00791818 0)
(0.204757 0.00724077 0)
(0.204786 0.0064859 0)
(0.204692 0.00567267 0)
(0.2045 0.00482026 0)
(0.204227 0.00395132 0)
(0.203892 0.0030943 0)
(0.203504 0.00228349 0)
(0.203075 0.00155645 0)
(0.202619 0.00094882 0)
(0.202159 0.00048372 0)
(0.201718 0.000156917 0)
(0.201309 -5.1609e-05 0)
(0.20095 -0.000167404 0)
(0.200647 -0.000215881 0)
(0.200395 -0.00021926 0)
(0.200187 -0.000195274 0)
(0.200014 -0.000157115 0)
(0.199869 -0.000113987 0)
(0.199743 -7.18522e-05 0)
(0.199631 -3.41391e-05 0)
(0.199528 -2.43012e-06 0)
(0.19943 2.29069e-05 0)
(0.199338 4.20218e-05 0)
(0.19925 5.52855e-05 0)
(0.199166 6.34516e-05 0)
(0.199087 6.75552e-05 0)
(0.199011 6.86683e-05 0)
(0.198939 6.7736e-05 0)
(0.198871 6.55074e-05 0)
(0.198806 6.25262e-05 0)
(0.198745 5.91607e-05 0)
(0.198688 5.5647e-05 0)
(0.198634 5.21298e-05 0)
(0.198583 4.86939e-05 0)
(0.198536 4.53866e-05 0)
(0.198492 4.22329e-05 0)
(0.198451 3.92439e-05 0)
(0.198412 3.64232e-05 0)
(0.198376 3.37694e-05 0)
(0.198343 3.12786e-05 0)
(0.198311 2.89455e-05 0)
(0.198282 2.67636e-05 0)
(0.198255 2.4726e-05 0)
(0.19823 2.28257e-05 0)
(0.198207 2.10555e-05 0)
(0.198185 1.94083e-05 0)
(0.198165 1.7877e-05 0)
(0.198147 1.6455e-05 0)
(0.198129 1.51356e-05 0)
(0.198113 1.39124e-05 0)
(0.198099 1.27795e-05 0)
(0.198085 1.17309e-05 0)
(0.198072 1.07613e-05 0)
(0.198061 9.86532e-06 0)
(0.19805 9.03802e-06 0)
(0.19804 8.27472e-06 0)
(0.198031 7.57098e-06 0)
(0.198022 6.92264e-06 0)
(0.198014 6.32576e-06 0)
(0.198007 5.77664e-06 0)
(0.198001 5.27184e-06 0)
(0.197995 4.80811e-06 0)
(0.197989 4.3824e-06 0)
(0.197984 3.99189e-06 0)
(0.197979 3.63389e-06 0)
(0.197975 3.30599e-06 0)
(0.197971 3.00581e-06 0)
(0.197967 2.73127e-06 0)
(0.197964 2.48033e-06 0)
(0.197961 2.25114e-06 0)
(0.197958 2.04199e-06 0)
(0.197956 1.85125e-06 0)
(0.197953 1.67746e-06 0)
(0.197951 1.51926e-06 0)
(0.197949 1.37535e-06 0)
(0.197948 1.24457e-06 0)
(0.197946 1.12583e-06 0)
(0.197945 1.01814e-06 0)
(0.197943 9.20577e-07 0)
(0.197942 8.32303e-07 0)
(0.197941 7.52568e-07 0)
(0.19794 6.80678e-07 0)
(0.197939 6.16017e-07 0)
(0.197938 5.58056e-07 0)
(0.197938 5.06358e-07 0)
(0.197937 4.6063e-07 0)
(0.197936 4.20814e-07 0)
(0.197936 3.87321e-07 0)
(0.197935 3.61621e-07 0)
(0.197935 3.47608e-07 0)
(0.197934 3.47479e-07 0)
(0.198373 0.00689546 0)
(0.199287 0.00778859 0)
(0.200322 0.00837677 0)
(0.201366 0.00870085 0)
(0.202365 0.00881376 0)
(0.203295 0.00874542 0)
(0.204134 0.00851451 0)
(0.204863 0.00814065 0)
(0.205465 0.00764513 0)
(0.205936 0.0070484 0)
(0.206274 0.00636927 0)
(0.206482 0.0056259 0)
(0.206563 0.00483782 0)
(0.20652 0.00402831 0)
(0.206359 0.0032258 0)
(0.206087 0.00246319 0)
(0.205717 0.00177487 0)
(0.205273 0.00119157 0)
(0.204787 0.000732729 0)
(0.204293 0.000398231 0)
(0.203819 0.000171919 0)
(0.203382 3.25119e-05 0)
(0.20299 -4.15669e-05 0)
(0.202646 -6.97048e-05 0)
(0.202348 -6.79878e-05 0)
(0.202093 -4.88968e-05 0)
(0.201873 -2.1518e-05 0)
(0.201684 7.96863e-06 0)
(0.201518 3.57219e-05 0)
(0.201373 5.96221e-05 0)
(0.201243 7.86271e-05 0)
(0.201127 9.24091e-05 0)
(0.201021 0.000101216 0)
(0.200924 0.0001057 0)
(0.200834 0.000106714 0)
(0.20075 0.000105144 0)
(0.200672 0.0001018 0)
(0.200598 9.73392e-05 0)
(0.200529 9.22575e-05 0)
(0.200464 8.68998e-05 0)
(0.200403 8.1494e-05 0)
(0.200346 7.61827e-05 0)
(0.200292 7.10508e-05 0)
(0.200242 6.61453e-05 0)
(0.200195 6.14897e-05 0)
(0.200152 5.70927e-05 0)
(0.200111 5.29545e-05 0)
(0.200073 4.90699e-05 0)
(0.200037 4.54306e-05 0)
(0.200005 4.20269e-05 0)
(0.199974 3.8848e-05 0)
(0.199945 3.58827e-05 0)
(0.199919 3.31197e-05 0)
(0.199894 3.05478e-05 0)
(0.199872 2.81561e-05 0)
(0.19985 2.5934e-05 0)
(0.199831 2.38712e-05 0)
(0.199812 2.19579e-05 0)
(0.199796 2.01845e-05 0)
(0.19978 1.85423e-05 0)
(0.199766 1.70226e-05 0)
(0.199752 1.56173e-05 0)
(0.19974 1.43188e-05 0)
(0.199729 1.31198e-05 0)
(0.199718 1.20135e-05 0)
(0.199708 1.09934e-05 0)
(0.199699 1.00535e-05 0)
(0.199691 9.18807e-06 0)
(0.199684 8.39179e-06 0)
(0.199677 7.65963e-06 0)
(0.19967 6.9869e-06 0)
(0.199665 6.36919e-06 0)
(0.199659 5.80244e-06 0)
(0.199654 5.28276e-06 0)
(0.19965 4.80663e-06 0)
(0.199645 4.37066e-06 0)
(0.199642 3.9718e-06 0)
(0.199638 3.60713e-06 0)
(0.199635 3.27396e-06 0)
(0.199632 2.96983e-06 0)
(0.199629 2.69239e-06 0)
(0.199627 2.43951e-06 0)
(0.199625 2.20922e-06 0)
(0.199623 1.99966e-06 0)
(0.199621 1.80914e-06 0)
(0.199619 1.63607e-06 0)
(0.199618 1.47903e-06 0)
(0.199616 1.33667e-06 0)
(0.199615 1.20779e-06 0)
(0.199614 1.09127e-06 0)
(0.199613 9.86105e-07 0)
(0.199612 8.91387e-07 0)
(0.199611 8.06316e-07 0)
(0.19961 7.30218e-07 0)
(0.19961 6.62584e-07 0)
(0.199609 6.03153e-07 0)
(0.199608 5.52105e-07 0)
(0.199608 5.1043e-07 0)
(0.199607 4.80333e-07 0)
(0.199607 4.60526e-07 0)
(0.198871 0.00647604 0)
(0.199643 0.00725451 0)
(0.200531 0.00779995 0)
(0.201455 0.00812432 0)
(0.202368 0.00825961 0)
(0.20324 0.00822911 0)
(0.204052 0.00804899 0)
(0.204782 0.0077356 0)
(0.205416 0.00730682 0)
(0.205941 0.00678048 0)
(0.20635 0.00617368 0)
(0.206638 0.00550366 0)
(0.2068 0.00478927 0)
(0.206834 0.00405268 0)
(0.206741 0.00332011 0)
(0.206526 0.00262089 0)
(0.206203 0.00198473 0)
(0.205796 0.00143737 0)
(0.205335 0.000995059 0)
(0.204855 0.00065961 0)
(0.204382 0.000420152 0)
(0.203938 0.000260024 0)
(0.203531 0.000161478 0)
(0.203167 0.000108035 0)
(0.202847 8.56103e-05 0)
(0.202567 8.29159e-05 0)
(0.202324 9.14214e-05 0)
(0.202114 0.000105037 0)
(0.201931 0.000119672 0)
(0.201771 0.000132784 0)
(0.201629 0.000142973 0)
(0.201504 0.000149634 0)
(0.201391 0.000152722 0)
(0.201288 0.000152572 0)
(0.201193 0.000149754 0)
(0.201106 0.000144924 0)
(0.201025 0.000138719 0)
(0.200949 0.000131679 0)
(0.200878 0.000124222 0)
(0.200811 0.000116651 0)
(0.200749 0.000109168 0)
(0.200691 0.000101905 0)
(0.200636 9.4939e-05 0)
(0.200585 8.83116e-05 0)
(0.200538 8.20422e-05 0)
(0.200494 7.61351e-05 0)
(0.200452 7.05857e-05 0)
(0.200414 6.53841e-05 0)
(0.200378 6.05169e-05 0)
(0.200344 5.59694e-05 0)
(0.200313 5.17258e-05 0)
(0.200284 4.77702e-05 0)
(0.200258 4.40867e-05 0)
(0.200233 4.06598e-05 0)
(0.200209 3.74743e-05 0)
(0.200188 3.45156e-05 0)
(0.200168 3.17698e-05 0)
(0.20015 2.92235e-05 0)
(0.200132 2.6864e-05 0)
(0.200117 2.46792e-05 0)
(0.200102 2.26576e-05 0)
(0.200088 2.07882e-05 0)
(0.200076 1.9061e-05 0)
(0.200064 1.74661e-05 0)
(0.200054 1.59945e-05 0)
(0.200044 1.46375e-05 0)
(0.200035 1.33872e-05 0)
(0.200027 1.22358e-05 0)
(0.200019 1.11763e-05 0)
(0.200012 1.0202e-05 0)
(0.200005 9.30677e-06 0)
(0.199999 8.48463e-06 0)
(0.199994 7.73022e-06 0)
(0.199989 7.03837e-06 0)
(0.199984 6.40441e-06 0)
(0.19998 5.82385e-06 0)
(0.199976 5.29262e-06 0)
(0.199973 4.80684e-06 0)
(0.19997 4.36296e-06 0)
(0.199967 3.95768e-06 0)
(0.199964 3.58792e-06 0)
(0.199961 3.25082e-06 0)
(0.199959 2.94377e-06 0)
(0.199957 2.66429e-06 0)
(0.199955 2.41014e-06 0)
(0.199954 2.17922e-06 0)
(0.199952 1.96961e-06 0)
(0.199951 1.77955e-06 0)
(0.199949 1.60741e-06 0)
(0.199948 1.45171e-06 0)
(0.199947 1.31109e-06 0)
(0.199946 1.18434e-06 0)
(0.199945 1.07037e-06 0)
(0.199945 9.6824e-07 0)
(0.199944 8.77206e-07 0)
(0.199943 7.96761e-07 0)
(0.199943 7.26789e-07 0)
(0.199942 6.67729e-07 0)
(0.199942 6.20418e-07 0)
(0.199941 5.81709e-07 0)
(0.199291 0.00610558 0)
(0.199952 0.00678232 0)
(0.200714 0.0072796 0)
(0.201522 0.00759343 0)
(0.202336 0.00774046 0)
(0.203126 0.00773736 0)
(0.203869 0.00759766 0)
(0.204547 0.00733506 0)
(0.205144 0.00696467 0)
(0.205648 0.00650218 0)
(0.20605 0.00596327 0)
(0.206342 0.00536413 0)
(0.206517 0.00472256 0)
(0.206573 0.00405897 0)
(0.206509 0.00339678 0)
(0.206331 0.00276143 0)
(0.206052 0.0021781 0)
(0.205692 0.00166829 0)
(0.205279 0.00124584 0)
(0.204841 0.000913852 0)
(0.204403 0.00066548 0)
(0.203983 0.000488378 0)
(0.203594 0.000368489 0)
(0.203241 0.000292133 0)
(0.202926 0.000247158 0)
(0.202648 0.000223476 0)
(0.202405 0.000213197 0)
(0.202192 0.000210468 0)
(0.202005 0.000211183 0)
(0.201842 0.000212633 0)
(0.201697 0.000213169 0)
(0.201568 0.000211904 0)
(0.201452 0.000208502 0)
(0.201347 0.000203024 0)
(0.201251 0.000195781 0)
(0.201162 0.000187207 0)
(0.20108 0.000177756 0)
(0.201004 0.000167833 0)
(0.200932 0.000157765 0)
(0.200865 0.000147794 0)
(0.200803 0.000138087 0)
(0.200745 0.00012875 0)
(0.20069 0.000119847 0)
(0.200639 0.00011141 0)
(0.200592 0.00010345 0)
(0.200547 9.59637e-05 0)
(0.200506 8.89409e-05 0)
(0.200467 8.23653e-05 0)
(0.200431 7.62181e-05 0)
(0.200398 7.04788e-05 0)
(0.200367 6.51262e-05 0)
(0.200338 6.01394e-05 0)
(0.200311 5.54976e-05 0)
(0.200286 5.11805e-05 0)
(0.200263 4.71687e-05 0)
(0.200242 4.34436e-05 0)
(0.200222 3.99871e-05 0)
(0.200203 3.67822e-05 0)
(0.200186 3.38128e-05 0)
(0.20017 3.10634e-05 0)
(0.200156 2.85196e-05 0)
(0.200142 2.61675e-05 0)
(0.20013 2.39942e-05 0)
(0.200118 2.19875e-05 0)
(0.200108 2.01359e-05 0)
(0.200098 1.84285e-05 0)
(0.200089 1.68551e-05 0)
(0.200081 1.54063e-05 0)
(0.200073 1.4073e-05 0)
(0.200066 1.28469e-05 0)
(0.200059 1.17202e-05 0)
(0.200053 1.06854e-05 0)
(0.200048 9.73575e-06 0)
(0.200043 8.86482e-06 0)
(0.200038 8.06667e-06 0)
(0.200034 7.3357e-06 0)
(0.20003 6.66675e-06 0)
(0.200027 6.05499e-06 0)
(0.200024 5.49593e-06 0)
(0.200021 4.98544e-06 0)
(0.200018 4.51962e-06 0)
(0.200015 4.09491e-06 0)
(0.200013 3.70799e-06 0)
(0.200011 3.35576e-06 0)
(0.200009 3.03542e-06 0)
(0.200008 2.7443e-06 0)
(0.200006 2.48001e-06 0)
(0.200005 2.24031e-06 0)
(0.200003 2.02315e-06 0)
(0.200002 1.82668e-06 0)
(0.200001 1.64917e-06 0)
(0.2 1.48908e-06 0)
(0.199999 1.34502e-06 0)
(0.199999 1.21578e-06 0)
(0.199998 1.10035e-06 0)
(0.199997 9.97955e-07 0)
(0.199997 9.08159e-07 0)
(0.199996 8.30862e-07 0)
(0.199996 7.65895e-07 0)
(0.199995 7.09404e-07 0)
(0.199642 0.00577286 0)
(0.200215 0.00636096 0)
(0.200872 0.00680942 0)
(0.201577 0.00710683 0)
(0.202298 0.00725938 0)
(0.203005 0.00727768 0)
(0.203675 0.00717228 0)
(0.204291 0.00695441 0)
(0.204838 0.00663674 0)
(0.205303 0.00623297 0)
(0.205676 0.00575732 0)
(0.205951 0.00522482 0)
(0.20612 0.00465191 0)
(0.206182 0.00405711 0)
(0.206136 0.00346106 0)
(0.205988 0.00288566 0)
(0.205749 0.00235222 0)
(0.205436 0.00187882 0)
(0.205073 0.00147747 0)
(0.204682 0.00115203 0)
(0.204287 0.000898642 0)
(0.203903 0.000708489 0)
(0.203542 0.000570685 0)
(0.20321 0.000474127 0)
(0.20291 0.000408575 0)
(0.202642 0.000365242 0)
(0.202405 0.000337015 0)
(0.202195 0.000318421 0)
(0.202011 0.000305446 0)
(0.201848 0.000295289 0)
(0.201703 0.000286101 0)
(0.201573 0.000276756 0)
(0.201457 0.000266668 0)
(0.201351 0.000255644 0)
(0.201254 0.000243757 0)
(0.201165 0.000231228 0)
(0.201083 0.00021834 0)
(0.201006 0.000205368 0)
(0.200934 0.000192546 0)
(0.200868 0.000180054 0)
(0.200806 0.000168018 0)
(0.200747 0.000156519 0)
(0.200693 0.000145602 0)
(0.200642 0.000135286 0)
(0.200595 0.000125572 0)
(0.200551 0.00011645 0)
(0.20051 0.000107903 0)
(0.200472 9.99059e-05 0)
(0.200436 9.24351e-05 0)
(0.200403 8.54637e-05 0)
(0.200372 7.89651e-05 0)
(0.200343 7.29127e-05 0)
(0.200316 6.72807e-05 0)
(0.200292 6.20442e-05 0)
(0.200269 5.7179e-05 0)
(0.200247 5.26621e-05 0)
(0.200228 4.84715e-05 0)
(0.200209 4.45865e-05 0)
(0.200192 4.09873e-05 0)
(0.200177 3.76549e-05 0)
(0.200162 3.45719e-05 0)
(0.200149 3.17213e-05 0)
(0.200136 2.90875e-05 0)
(0.200125 2.66556e-05 0)
(0.200114 2.44116e-05 0)
(0.200104 2.23423e-05 0)
(0.200095 2.04355e-05 0)
(0.200087 1.86796e-05 0)
(0.20008 1.70636e-05 0)
(0.200073 1.55775e-05 0)
(0.200066 1.42118e-05 0)
(0.20006 1.29574e-05 0)
(0.200055 1.18062e-05 0)
(0.20005 1.07504e-05 0)
(0.200045 9.78277e-06 0)
(0.200041 8.89651e-06 0)
(0.200037 8.08539e-06 0)
(0.200034 7.34356e-06 0)
(0.20003 6.6656e-06 0)
(0.200028 6.04648e-06 0)
(0.200025 5.4815e-06 0)
(0.200022 4.96633e-06 0)
(0.20002 4.49695e-06 0)
(0.200018 4.06964e-06 0)
(0.200016 3.68094e-06 0)
(0.200015 3.32769e-06 0)
(0.200013 3.00693e-06 0)
(0.200012 2.71598e-06 0)
(0.20001 2.45235e-06 0)
(0.200009 2.21378e-06 0)
(0.200008 1.99817e-06 0)
(0.200007 1.80365e-06 0)
(0.200006 1.62851e-06 0)
(0.200006 1.47126e-06 0)
(0.200005 1.3306e-06 0)
(0.200004 1.20548e-06 0)
(0.200004 1.09513e-06 0)
(0.200003 9.98961e-07 0)
(0.200003 9.16093e-07 0)
(0.200002 8.42657e-07 0)
(0.199933 0.00547011 0)
(0.200434 0.00598229 0)
(0.201003 0.00638441 0)
(0.201619 0.00666253 0)
(0.202255 0.00681625 0)
(0.202884 0.00685124 0)
(0.203485 0.00677512 0)
(0.204041 0.00659685 0)
(0.204536 0.00632694 0)
(0.204959 0.00597717 0)
(0.205302 0.00556023 0)
(0.205555 0.00508977 0)
(0.205715 0.00458073 0)
(0.205779 0.00404969 0)
(0.205747 0.00351472 0)
(0.205624 0.00299464 0)
(0.205421 0.00250753 0)
(0.205151 0.00206874 0)
(0.204834 0.00168883 0)
(0.20449 0.00137213 0)
(0.204137 0.00111694 0)
(0.203789 0.000917289 0)
(0.203457 0.000764998 0)
(0.203149 0.000651267 0)
(0.202867 0.00056764 0)
(0.202612 0.000506594 0)
(0.202384 0.000461826 0)
(0.202181 0.000428306 0)
(0.202 0.000402198 0)
(0.201839 0.000380694 0)
(0.201695 0.000361834 0)
(0.201566 0.000344317 0)
(0.20145 0.000327358 0)
(0.201344 0.000310553 0)
(0.201247 0.000293767 0)
(0.201158 0.000277038 0)
(0.201076 0.000260491 0)
(0.200999 0.000244278 0)
(0.200928 0.00022854 0)
(0.200862 0.000213394 0)
(0.2008 0.000198918 0)
(0.200742 0.000185163 0)
(0.200688 0.000172152 0)
(0.200638 0.000159888 0)
(0.200591 0.000148361 0)
(0.200547 0.00013755 0)
(0.200506 0.000127428 0)
(0.200468 0.000117966 0)
(0.200433 0.000109131 0)
(0.2004 0.00010089 0)
(0.200369 9.32113e-05 0)
(0.200341 8.60615e-05 0)
(0.200314 7.941e-05 0)
(0.20029 7.32267e-05 0)
(0.200267 6.74827e-05 0)
(0.200246 6.21507e-05 0)
(0.200226 5.72046e-05 0)
(0.200208 5.26194e-05 0)
(0.200191 4.83717e-05 0)
(0.200176 4.44393e-05 0)
(0.200161 4.08012e-05 0)
(0.200148 3.74375e-05 0)
(0.200136 3.43297e-05 0)
(0.200124 3.14601e-05 0)
(0.200114 2.88122e-05 0)
(0.200104 2.63706e-05 0)
(0.200095 2.41206e-05 0)
(0.200087 2.20485e-05 0)
(0.20008 2.01416e-05 0)
(0.200073 1.83879e-05 0)
(0.200066 1.67762e-05 0)
(0.20006 1.52959e-05 0)
(0.200055 1.39372e-05 0)
(0.20005 1.26911e-05 0)
(0.200046 1.1549e-05 0)
(0.200041 1.05029e-05 0)
(0.200038 9.54548e-06 0)
(0.200034 8.66979e-06 0)
(0.200031 7.86945e-06 0)
(0.200028 7.13852e-06 0)
(0.200025 6.47148e-06 0)
(0.200023 5.86321e-06 0)
(0.200021 5.30898e-06 0)
(0.200019 4.80437e-06 0)
(0.200017 4.34533e-06 0)
(0.200015 3.92811e-06 0)
(0.200014 3.54924e-06 0)
(0.200012 3.20555e-06 0)
(0.200011 2.89408e-06 0)
(0.20001 2.61217e-06 0)
(0.200009 2.35735e-06 0)
(0.200008 2.12739e-06 0)
(0.200007 1.92025e-06 0)
(0.200006 1.73414e-06 0)
(0.200006 1.56748e-06 0)
(0.200005 1.41892e-06 0)
(0.200005 1.28735e-06 0)
(0.200004 1.17176e-06 0)
(0.200004 1.07079e-06 0)
(0.200003 9.80859e-07 0)
(0.200171 0.00519206 0)
(0.200613 0.00563985 0)
(0.201108 0.00599962 0)
(0.201646 0.00625749 0)
(0.202206 0.00640932 0)
(0.202764 0.00645712 0)
(0.203301 0.00640596 0)
(0.203799 0.00626274 0)
(0.204245 0.00603599 0)
(0.204629 0.0057357 0)
(0.204941 0.00537294 0)
(0.205174 0.00495988 0)
(0.205324 0.00450987 0)
(0.205389 0.00403755 0)
(0.205368 0.00355868 0)
(0.205268 0.00308941 0)
(0.205096 0.00264517 0)
(0.204865 0.00223911 0)
(0.20459 0.0018806 0)
(0.204288 0.00157426 0)
(0.203974 0.00131997 0)
(0.203661 0.00111395 0)
(0.203358 0.000950311 0)
(0.203074 0.000822258 0)
(0.20281 0.00072296 0)
(0.20257 0.000646109 0)
(0.202352 0.000586229 0)
(0.202156 0.000538797 0)
(0.20198 0.000500226 0)
(0.201823 0.000467783 0)
(0.201681 0.000439458 0)
(0.201554 0.000413834 0)
(0.201438 0.000389966 0)
(0.201333 0.000367275 0)
(0.201236 0.000345453 0)
(0.201148 0.000324371 0)
(0.201066 0.000304015 0)
(0.20099 0.000284422 0)
(0.200919 0.000265645 0)
(0.200853 0.000247735 0)
(0.200792 0.000230726 0)
(0.200734 0.000214633 0)
(0.200681 0.000199457 0)
(0.200631 0.000185182 0)
(0.200585 0.000171785 0)
(0.200541 0.000159234 0)
(0.200501 0.000147492 0)
(0.200463 0.000136523 0)
(0.200428 0.000126285 0)
(0.200396 0.000116739 0)
(0.200366 0.000107846 0)
(0.200337 9.95685e-05 0)
(0.200311 9.18693e-05 0)
(0.200287 8.47131e-05 0)
(0.200264 7.80664e-05 0)
(0.200243 7.1897e-05 0)
(0.200224 6.61745e-05 0)
(0.200206 6.08701e-05 0)
(0.200189 5.59563e-05 0)
(0.200174 5.14075e-05 0)
(0.20016 4.71993e-05 0)
(0.200147 4.33086e-05 0)
(0.200134 3.97138e-05 0)
(0.200123 3.63947e-05 0)
(0.200113 3.3332e-05 0)
(0.200103 3.05078e-05 0)
(0.200094 2.79053e-05 0)
(0.200086 2.55086e-05 0)
(0.200079 2.33029e-05 0)
(0.200072 2.12743e-05 0)
(0.200066 1.94099e-05 0)
(0.20006 1.76975e-05 0)
(0.200055 1.61258e-05 0)
(0.20005 1.46843e-05 0)
(0.200045 1.3363e-05 0)
(0.200041 1.21528e-05 0)
(0.200037 1.1045e-05 0)
(0.200034 1.00319e-05 0)
(0.200031 9.10584e-06 0)
(0.200028 8.26009e-06 0)
(0.200025 7.48823e-06 0)
(0.200023 6.78434e-06 0)
(0.200021 6.14295e-06 0)
(0.200019 5.55896e-06 0)
(0.200017 5.02767e-06 0)
(0.200015 4.54476e-06 0)
(0.200014 4.10621e-06 0)
(0.200012 3.70834e-06 0)
(0.200011 3.34774e-06 0)
(0.20001 3.02132e-06 0)
(0.200009 2.72622e-06 0)
(0.200008 2.45984e-06 0)
(0.200007 2.21982e-06 0)
(0.200006 2.00405e-06 0)
(0.200006 1.81065e-06 0)
(0.200005 1.63797e-06 0)
(0.200005 1.48458e-06 0)
(0.200004 1.34909e-06 0)
(0.200004 1.2298e-06 0)
(0.200003 1.12353e-06 0)
(0.200363 0.00493499 0)
(0.200754 0.00532847 0)
(0.201187 0.0056505 0)
(0.201658 0.00588848 0)
(0.20215 0.0060365 0)
(0.202644 0.00609409 0)
(0.203121 0.00606419 0)
(0.203566 0.00595188 0)
(0.203967 0.00576396 0)
(0.204313 0.00550871 0)
(0.204596 0.00519562 0)
(0.20481 0.00483532 0)
(0.20495 0.00443954 0)
(0.205015 0.00402109 0)
(0.205005 0.00359361 0)
(0.204924 0.00317097 0)
(0.20478 0.00276638 0)
(0.204583 0.00239121 0)
(0.204346 0.00205386 0)
(0.204081 0.00175908 0)
(0.203803 0.00150787 0)
(0.203523 0.0012982 0)
(0.203249 0.00112605 0)
(0.202988 0.000986345 0)
(0.202743 0.000873723 0)
(0.202517 0.000783011 0)
(0.202311 0.000709546 0)
(0.202123 0.000649336 0)
(0.201954 0.000599099 0)
(0.2018 0.000556233 0)
(0.201662 0.00051874 0)
(0.201536 0.000485137 0)
(0.201422 0.00045437 0)
(0.201318 0.000425725 0)
(0.201222 0.000398748 0)
(0.201134 0.000373176 0)
(0.201053 0.000348868 0)
(0.200978 0.000325758 0)
(0.200908 0.00030382 0)
(0.200842 0.000283039 0)
(0.200782 0.000263403 0)
(0.200725 0.000244892 0)
(0.200672 0.00022748 0)
(0.200623 0.000211133 0)
(0.200577 0.000195811 0)
(0.200534 0.00018147 0)
(0.200495 0.000168065 0)
(0.200457 0.000155547 0)
(0.200423 0.000143869 0)
(0.200391 0.000132985 0)
(0.200361 0.000122848 0)
(0.200333 0.000113413 0)
(0.200307 0.00010464 0)
(0.200283 9.64863e-05 0)
(0.200261 8.8914e-05 0)
(0.20024 8.18862e-05 0)
(0.200221 7.53679e-05 0)
(0.200203 6.93262e-05 0)
(0.200187 6.37298e-05 0)
(0.200172 5.85491e-05 0)
(0.200158 5.37565e-05 0)
(0.200145 4.93256e-05 0)
(0.200133 4.52318e-05 0)
(0.200122 4.14519e-05 0)
(0.200111 3.79641e-05 0)
(0.200102 3.47479e-05 0)
(0.200093 3.1784e-05 0)
(0.200085 2.90546e-05 0)
(0.200078 2.65426e-05 0)
(0.200071 2.42324e-05 0)
(0.200065 2.2109e-05 0)
(0.200059 2.01588e-05 0)
(0.200054 1.83688e-05 0)
(0.200049 1.67269e-05 0)
(0.200045 1.5222e-05 0)