/*--------------------------------*- C++ -*----------------------------------*\
| =========                 |                                                 |
| \\      /  F ield         | OpenFOAM: The Open Source CFD Toolbox           |
|  \\    /   O peration     | Version:  2.3.0                                 |
|   \\  /    A nd           | Web:      www.OpenFOAM.org                      |
|    \\/     M anipulation  |                                                 |
\*---------------------------------------------------------------------------*/
FoamFile
{
    version     2.0;
    format      ascii;
    class       volScalarField;
    location    "0.85";
    object      p;
}
// * * * * * * * * * * * * * * * * * * * * * * * * * * * * * * * * * * * * * //

dimensions      [0 2 -2 0 0 0 0];

internalField   nonuniform List<scalar> 
3105
(
0.00252358
0.00222483
0.00163317
0.00106982
0.000600108
0.000202248
-0.000133858
-0.00039273
-0.00055567
-0.000626281
-0.000629413
-0.000595419
-0.000548059
-0.000501609
-0.000462681
-0.000432811
-0.000410825
-0.000394608
-0.000382125
-0.000371814
-0.000362627
-0.000353938
-0.000345421
-0.000336938
-0.000328459
-0.000320004
-0.000311609
-0.000303311
-0.000295138
-0.000287112
-0.000279244
-0.000271539
-0.000263999
-0.000256623
-0.000249408
-0.000242351
-0.000235448
-0.000228699
-0.000222097
-0.000215645
-0.000209339
-0.000203179
-0.000197162
-0.000191291
-0.000185561
-0.000179976
-0.00017453
-0.000169227
-0.000164061
-0.000159036
-0.000154145
-0.000149392
-0.000144768
-0.00014028
-0.000135915
-0.000131683
-0.000127568
-0.000123582
-0.000119706
-0.000115954
-0.000112305
-0.000108775
-0.00010534
-0.000102019
-9.87828e-05
-9.56568e-05
-9.26048e-05
-8.9658e-05
-8.67735e-05
-8.39896e-05
-8.12544e-05
-7.86157e-05
-7.60106e-05
-7.34979e-05
-7.10019e-05
-6.85945e-05
-6.61845e-05
-6.38601e-05
-6.15107e-05
-5.92447e-05
-5.69276e-05
-5.4693e-05
-5.23766e-05
-5.01432e-05
-4.77916e-05
-4.5526e-05
-4.30982e-05
-4.07627e-05
-3.82113e-05
-3.57629e-05
-3.30329e-05
-3.04223e-05
-2.74477e-05
-2.46195e-05
-2.13191e-05
-1.82099e-05
-1.44797e-05
-1.10225e-05
-6.70068e-06
-2.87497e-06
0.00209754
0.00193919
0.00152256
0.00103689
0.000594949
0.000217838
-9.64122e-05
-0.000338106
-0.000496214
-0.000572528
-0.000585522
-0.000561321
-0.000522301
-0.000482356
-0.000448216
-0.000421639
-0.000401804
-0.000386978
-0.000375425
-0.000365781
-0.000357112
-0.000348856
-0.000340718
-0.000332576
-0.000324405
-0.000316228
-0.000308084
-0.000300012
-0.000292044
-0.000284202
-0.000276501
-0.000268949
-0.000261549
-0.000254301
-0.000247204
-0.000240257
-0.000233456
-0.000226801
-0.000220288
-0.000213918
-0.000207688
-0.000201601
-0.000195652
-0.000189844
-0.000184174
-0.000178646
-0.000173253
-0.000168
-0.000162882
-0.000157902
-0.000153053
-0.000148341
-0.000143755
-0.000139304
-0.000134974
-0.000130774
-0.000126691
-0.000122734
-0.000118886
-0.000115162
-0.000111538
-0.000108033
-0.000104621
-0.000101324
-9.81088e-05
-9.50039e-05
-9.19712e-05
-8.9044e-05
-8.61771e-05
-8.34113e-05
-8.06922e-05
-7.80704e-05
-7.548e-05
-7.29831e-05
-7.05004e-05
-6.81079e-05
-6.571e-05
-6.33996e-05
-6.10611e-05
-5.88084e-05
-5.6501e-05
-5.42792e-05
-5.19713e-05
-4.97502e-05
-4.7406e-05
-4.51524e-05
-4.27306e-05
-4.04069e-05
-3.78601e-05
-3.54233e-05
-3.26965e-05
-3.00976e-05
-2.71242e-05
-2.43082e-05
-2.10065e-05
-1.79106e-05
-1.41748e-05
-1.07335e-05
-6.40429e-06
-2.61533e-06
0.00180079
0.00170474
0.00141616
0.00101449
0.000611011
0.000258786
-3.03518e-05
-0.00025335
-0.000407269
-0.000493629
-0.000523616
-0.000516032
-0.000490189
-0.000459999
-0.000432416
-0.000409843
-0.000392288
-0.000378741
-0.000367964
-0.000358871
-0.00035067
-0.000342856
-0.00033515
-0.00032743
-0.000319663
-0.000311863
-0.000304066
-0.000296307
-0.000288619
-0.000281028
-0.00027355
-0.000266196
-0.000258973
-0.000251886
-0.000244932
-0.000238115
-0.000231432
-0.000224886
-0.000218472
-0.000212194
-0.000206049
-0.000200041
-0.000194164
-0.000188426
-0.000182819
-0.00017735
-0.000172013
-0.000166814
-0.000161744
-0.000156811
-0.000152005
-0.000147335
-0.000142788
-0.000138374
-0.000134078
-0.000129913
-0.00012586
-0.000121934
-0.000118114
-0.000114417
-0.000110818
-0.000107339
-0.00010395
-0.000100675
-9.74807e-05
-9.43974e-05
-9.13832e-05
-8.8476e-05
-8.56256e-05
-8.28786e-05
-8.01744e-05
-7.75703e-05
-7.49933e-05
-7.25131e-05
-7.00424e-05
-6.76658e-05
-6.52786e-05
-6.29836e-05
-6.06544e-05
-5.84167e-05
-5.61173e-05
-5.39102e-05
-5.1609e-05
-4.94027e-05
-4.70637e-05
-4.48251e-05
-4.2407e-05
-4.00988e-05
-3.7554e-05
-3.51335e-05
-3.24068e-05
-2.98252e-05
-2.68498e-05
-2.40527e-05
-2.07463e-05
-1.76715e-05
-1.39296e-05
-1.05111e-05
-6.20437e-06
-2.47737e-06
0.00159644
0.00151918
0.00130801
0.000983553
0.000628007
0.000304913
3.84047e-05
-0.0001681
-0.000316021
-0.000408146
-0.000451852
-0.000460162
-0.000448264
-0.000428591
-0.000408441
-0.000390963
-0.000376857
-0.000365668
-0.000356557
-0.000348707
-0.000341493
-0.000334512
-0.000327539
-0.00032048
-0.000313311
-0.000306051
-0.000298736
-0.000291408
-0.000284101
-0.000276848
-0.000269669
-0.000262584
-0.0002556
-0.000248728
-0.000241969
-0.00023533
-0.000228809
-0.000222412
-0.000216135
-0.000209984
-0.000203956
-0.000198057
-0.000192282
-0.000186637
-0.000181118
-0.000175732
-0.000170471
-0.000165344
-0.000160341
-0.000155472
-0.000150725
-0.000146111
-0.000141616
-0.000137251
-0.000133002
-0.000128881
-0.000124869
-0.000120983
-0.0001172
-0.000113539
-0.000109973
-0.000106526
-0.000103166
-9.99215e-05
-9.67533e-05
-9.36973e-05
-9.07067e-05
-8.78246e-05
-8.49955e-05
-8.22719e-05
-7.95867e-05
-7.70044e-05
-7.44445e-05
-7.19848e-05
-6.95295e-05
-6.71724e-05
-6.47989e-05
-6.25226e-05
-6.02056e-05
-5.7986e-05
-5.56974e-05
-5.3508e-05
-5.12162e-05
-4.90275e-05
-4.66966e-05
-4.44757e-05
-4.20642e-05
-3.97743e-05
-3.72348e-05
-3.48331e-05
-3.21105e-05
-2.95488e-05
-2.65763e-05
-2.38004e-05
-2.04965e-05
-1.74436e-05
-1.37092e-05
-1.03135e-05
-6.06561e-06
-2.41191e-06
0.00143489
0.0013632
0.00119735
0.000936837
0.000632773
0.000342748
9.79258e-05
-9.41271e-05
-0.000235342
-0.000329541
-0.0003824
-0.000403117
-0.000403191
-0.000393125
-0.000380087
-0.000367755
-0.000357377
-0.000348913
-0.000341829
-0.000335533
-0.000329561
-0.000323621
-0.000317556
-0.00031131
-0.000304878
-0.00029829
-0.000291584
-0.000284805
-0.000277993
-0.000271185
-0.000264405
-0.000257679
-0.000251019
-0.00024444
-0.000237947
-0.00023155
-0.00022525
-0.000219056
-0.000212967
-0.000206989
-0.000201121
-0.000195371
-0.000189734
-0.000184219
-0.00017882
-0.000173547
-0.000168392
-0.000163364
-0.000158454
-0.000153673
-0.000149008
-0.000144472
-0.000140049
-0.000135755
-0.00013157
-0.000127511
-0.000123557
-0.000119727
-0.000115995
-0.000112385
-0.000108865
-0.000105464
-0.000102145
-9.89416e-05
-9.58105e-05
-9.27921e-05
-8.98349e-05
-8.69872e-05
-8.41882e-05
-8.14962e-05
-7.88382e-05
-7.62852e-05
-7.37498e-05
-7.13173e-05
-6.88843e-05
-6.65527e-05
-6.41994e-05
-6.19472e-05
-5.96485e-05
-5.74521e-05
-5.51802e-05
-5.30131e-05
-5.07366e-05
-4.85697e-05
-4.62528e-05
-4.40536e-05
-4.16551e-05
-3.93869e-05
-3.68597e-05
-3.44799e-05
-3.17696e-05
-2.92301e-05
-2.62708e-05
-2.35173e-05
-2.023e-05
-1.71981e-05
-1.34932e-05
-1.01213e-05
-5.96422e-06
-2.38697e-06
0.00129736
0.00122855
0.00109099
0.000879919
0.000624921
0.000370066
0.000147138
-3.16995e-05
-0.00016619
-0.00026011
-0.000318575
-0.000348489
-0.00035842
-0.000356893
-0.000350478
-0.00034307
-0.000336329
-0.000330578
-0.000325548
-0.000320844
-0.00031615
-0.000311276
-0.000306138
-0.000300721
-0.000295045
-0.00028915
-0.000283081
-0.000276886
-0.000270606
-0.000264283
-0.000257945
-0.000251621
-0.000245327
-0.000239084
-0.000232898
-0.000226785
-0.000220746
-0.000214794
-0.000208928
-0.000203159
-0.000197485
-0.000191917
-0.00018645
-0.000181095
-0.000175846
-0.000170714
-0.000165691
-0.000160789
-0.000155997
-0.000151327
-0.000146767
-0.000142331
-0.000138002
-0.000133797
-0.000129696
-0.000125719
-0.00012184
-0.000118083
-0.000114418
-0.000110874
-0.000107415
-0.000104074
-0.00010081
-9.76613e-05
-9.458e-05
-9.16112e-05
-8.86991e-05
-8.58967e-05
-8.31387e-05
-8.04883e-05
-7.78674e-05
-7.53528e-05
-7.28513e-05
-7.04544e-05
-6.80524e-05
-6.57539e-05
-6.34291e-05
-6.1208e-05
-5.89358e-05
-5.67687e-05
-5.45214e-05
-5.23824e-05
-5.01291e-05
-4.79892e-05
-4.56947e-05
-4.35217e-05
-4.11452e-05
-3.89028e-05
-3.63979e-05
-3.40434e-05
-3.13572e-05
-2.88422e-05
-2.59107e-05
-2.31805e-05
-1.99291e-05
-1.69183e-05
-1.32691e-05
-9.92491e-06
-5.8838e-06
-2.37829e-06
0.00117708
0.00111132
0.000993685
0.000820252
0.000607911
0.000387541
0.000187063
2.12963e-05
-0.000106515
-0.000198956
-0.000260625
-0.000297121
-0.000314961
-0.000320879
-0.000320562
-0.000317812
-0.000314557
-0.000311435
-0.000308428
-0.000305322
-0.000301926
-0.000298141
-0.000293946
-0.000289368
-0.000284451
-0.000279253
-0.000273821
-0.000268212
-0.000262467
-0.000256633
-0.00025074
-0.000244824
-0.000238904
-0.000233004
-0.000227134
-0.000221313
-0.000215545
-0.000209845
-0.000204214
-0.000198667
-0.0001932
-0.000187827
-0.000182543
-0.000177362
-0.000172277
-0.000167301
-0.000162425
-0.000157663
-0.000153003
-0.00014846
-0.00014402
-0.000139699
-0.000135478
-0.000131378
-0.000127375
-0.000123492
-0.000119702
-0.000116031
-0.000112448
-0.000108983
-0.000105598
-0.000102328
-9.91318e-05
-9.60488e-05
-9.30289e-05
-9.01204e-05
-8.72644e-05
-8.45175e-05
-8.18106e-05
-7.92114e-05
-7.66375e-05
-7.41701e-05
-7.17119e-05
-6.93587e-05
-6.69968e-05
-6.47391e-05
-6.24516e-05
-6.02687e-05
-5.80315e-05
-5.59003e-05
-5.36865e-05
-5.15814e-05
-4.93605e-05
-4.72529e-05
-4.49904e-05
-4.28484e-05
-4.05044e-05
-3.82918e-05
-3.58213e-05
-3.34954e-05
-3.08475e-05
-2.83594e-05
-2.54732e-05
-2.27677e-05
-1.9574e-05
-1.65865e-05
-1.30199e-05
-9.70979e-06
-5.80288e-06
-2.35503e-06
0.00107096
0.00100883
0.000906718
0.000762068
0.000584942
0.000396205
0.000218174
6.59026e-05
-5.49466e-05
-0.000145159
-0.000208436
-0.000249481
-0.000273455
-0.000285648
-0.000290788
-0.000292359
-0.000292398
-0.000291792
-0.000290754
-0.000289236
-0.000287156
-0.000284489
-0.000281263
-0.000277543
-0.000273398
-0.000268901
-0.00026411
-0.000259087
-0.000253877
-0.000248531
-0.000243084
-0.000237576
-0.000232028
-0.000226471
-0.000220917
-0.000215389
-0.000209892
-0.000204446
-0.000199052
-0.000193727
-0.000188469
-0.000183294
-0.000178196
-0.000173193
-0.000168275
-0.000163459
-0.000158734
-0.000154117
-0.000149595
-0.000145185
-0.00014087
-0.000136669
-0.000132563
-0.000128574
-0.000124676
-0.000120895
-0.000117201
-0.000113624
-0.000110129
-0.00010675
-0.000103447
-0.000100257
-9.7135e-05
-9.41255e-05
-9.11745e-05
-8.83338e-05
-8.55415e-05
-8.28573e-05
-8.02093e-05
-7.76681e-05
-7.51488e-05
-7.27353e-05
-7.0328e-05
-6.8025e-05
-6.57107e-05
-6.34997e-05
-6.12573e-05
-5.91181e-05
-5.6924e-05
-5.48338e-05
-5.26618e-05
-5.05954e-05
-4.84158e-05
-4.63449e-05
-4.41241e-05
-4.20169e-05
-3.97164e-05
-3.75368e-05
-3.51135e-05
-3.28185e-05
-3.0224e-05
-2.77648e-05
-2.49418e-05
-2.22635e-05
-1.91484e-05
-1.61898e-05
-1.27292e-05
-9.46148e-06
-5.6997e-06
-2.29267e-06
0.00097687
0.000918777
0.000829396
0.00070709
0.000558378
0.000397336
0.000240855
0.000102487
-1.08364e-05
-9.81289e-05
-0.000161865
-0.000205896
-0.000234436
-0.000251703
-0.000261547
-0.000267017
-0.00027011
-0.000271879
-0.000272731
-0.000272768
-0.000272001
-0.000270464
-0.000268223
-0.000265376
-0.000262011
-0.00025822
-0.000254071
-0.000249634
-0.000244959
-0.000240102
-0.000235102
-0.000230002
-0.000224829
-0.000219617
-0.000214381
-0.000209147
-0.000203923
-0.000198733
-0.000193577
-0.000188476
-0.000183429
-0.000178453
-0.000173543
-0.000168718
-0.000163969
-0.000159315
-0.000154744
-0.000150274
-0.000145891
-0.000141615
-0.000137428
-0.000133351
-0.000129362
-0.000125486
-0.000121695
-0.000118019
-0.000114425
-0.000110945
-0.000107542
-0.000104252
-0.000101033
-9.79264e-05
-9.48833e-05
-9.19507e-05
-8.90728e-05
-8.63036e-05
-8.35792e-05
-8.09614e-05
-7.83769e-05
-7.58975e-05
-7.34376e-05
-7.10817e-05
-6.87303e-05
-6.6481e-05
-6.42198e-05
-6.2059e-05
-5.98673e-05
-5.77753e-05
-5.56304e-05
-5.35844e-05
-5.14609e-05
-4.94361e-05
-4.73053e-05
-4.52736e-05
-4.31031e-05
-4.10331e-05
-3.87858e-05
-3.66413e-05
-3.42764e-05
-3.20147e-05
-2.94863e-05
-2.7059e-05
-2.43136e-05
-2.16675e-05
-1.86474e-05
-1.57264e-05
-1.23884e-05
-9.17323e-06
-5.56094e-06
-2.18594e-06
0.000893011
0.000839082
0.000760371
0.000655796
0.000529925
0.000392463
0.000255872
0.000131441
2.62615e-05
-5.73693e-05
-0.000120627
-0.000166429
-0.000198216
-0.000219415
-0.000233157
-0.000242035
-0.000247904
-0.000251883
-0.000254524
-0.000256055
-0.000256571
-0.000256154
-0.0002549
-0.000252927
-0.000250344
-0.000247258
-0.00024375
-0.000239897
-0.000235756
-0.000231389
-0.000226837
-0.000222148
-0.000217353
-0.000212488
-0.000207573
-0.000202638
-0.000197692
-0.00019276
-0.000187847
-0.000182974
-0.00017814
-0.000173367
-0.000168649
-0.000164006
-0.000159429
-0.000154939
-0.000150524
-0.000146204
-0.000141963
-0.000137824
-0.000133766
-0.000129815
-0.000125945
-0.000122185
-0.000118505
-0.000114935
-0.000111443
-0.000108061
-0.000104753
-0.000101554
-9.84231e-05
-9.54012e-05
-9.24395e-05
-8.95856e-05
-8.67835e-05
-8.40875e-05
-8.14341e-05
-7.88844e-05
-7.63664e-05
-7.39505e-05
-7.15533e-05
-6.92565e-05
-6.69646e-05
-6.47704e-05
-6.25662e-05
-6.04571e-05
-5.83204e-05
-5.62767e-05
-5.41858e-05
-5.21852e-05
-5.01156e-05
-4.81335e-05
-4.60575e-05
-4.40663e-05
-4.19526e-05
-3.9921e-05
-3.77345e-05
-3.56269e-05
-3.33286e-05
-3.11027e-05
-2.86496e-05
-2.62584e-05
-2.36003e-05
-2.09935e-05
-1.80783e-05
-1.52062e-05
-1.19996e-05
-8.84853e-06
-5.38536e-06
-2.04883e-06
0.000817788
0.000767978
0.000698326
0.000608134
0.00050076
0.000383114
0.000264335
0.000153394
5.68015e-05
-2.24343e-05
-8.43712e-05
-0.00013096
-0.000164913
-0.00018903
-0.000205879
-0.000217638
-0.000225963
-0.000231964
-0.000236272
-0.000239216
-0.000240961
-0.00024163
-0.000241344
-0.000240234
-0.000238426
-0.000236039
-0.000233166
-0.000229893
-0.000226284
-0.000222406
-0.000218302
-0.000214027
-0.000209612
-0.000205099
-0.00020051
-0.000195877
-0.000191213
-0.000186545
-0.000181879
-0.000177238
-0.000172624
-0.000168057
-0.000163535
-0.000159078
-0.000154678
-0.000150357
-0.000146101
-0.000141935
-0.00013784
-0.000133841
-0.000129918
-0.000126095
-0.000122349
-0.000118707
-0.000115141
-0.00011168
-0.000108293
-0.000105013
-0.000101802
-9.86967e-05
-9.56565e-05
-9.27212e-05
-8.98441e-05
-8.70707e-05
-8.43476e-05
-8.17263e-05
-7.91469e-05
-7.66666e-05
-7.42183e-05
-7.18669e-05
-6.95357e-05
-6.72989e-05
-6.507e-05
-6.29318e-05
-6.0788e-05
-5.87312e-05
-5.66533e-05
-5.46586e-05
-5.26256e-05
-5.0671e-05
-4.86595e-05
-4.67209e-05
-4.4704e-05
-4.27544e-05
-4.07023e-05
-3.87109e-05
-3.659e-05
-3.45216e-05
-3.22952e-05
-3.01088e-05
-2.7736e-05
-2.53869e-05
-2.28208e-05
-2.02623e-05
-1.74565e-05
-1.46455e-05
-1.15723e-05
-8.4979e-06
-5.1813e-06
-1.90354e-06
0.000749856
0.000704023
0.00064216
0.000563853
0.000471646
0.0003706
0.000267452
0.000169155
8.12935e-05
7.06748e-06
-5.27817e-05
-9.93223e-05
-0.000134552
-0.000160719
-0.000179942
-0.000194048
-0.000204481
-0.000212283
-0.000218115
-0.000222369
-0.000225267
-0.000226969
-0.000227612
-0.000227342
-0.000226291
-0.000224589
-0.00022234
-0.00021964
-0.000216558
-0.000213164
-0.000209508
-0.000205646
-0.000201613
-0.000197454
-0.000193194
-0.000188867
-0.000184489
-0.00018009
-0.000175675
-0.000171272
-0.000166881
-0.000162527
-0.000158205
-0.000153939
-0.000149721
-0.000145572
-0.000141482
-0.000137473
-0.00013353
-0.000129675
-0.000125891
-0.000122201
-0.000118583
-0.000115063
-0.000111615
-0.000108267
-0.00010499
-0.000101814
-9.87045e-05
-9.5696e-05
-9.27505e-05
-8.99046e-05
-8.71159e-05
-8.44253e-05
-8.1785e-05
-7.92404e-05
-7.67387e-05
-7.43297e-05
-7.19546e-05
-6.96694e-05
-6.74077e-05
-6.52324e-05
-6.30699e-05
-6.0989e-05
-5.89091e-05
-5.6906e-05
-5.48901e-05
-5.29459e-05
-5.09741e-05
-4.9067e-05
-4.71168e-05
-4.52235e-05
-4.3269e-05
-4.13632e-05
-3.93756e-05
-3.74273e-05
-3.5375e-05
-3.33497e-05
-3.11977e-05
-2.90563e-05
-2.67658e-05
-2.44663e-05
-2.19936e-05
-1.94935e-05
-1.67975e-05
-1.40599e-05
-1.11178e-05
-8.13311e-06
-4.96036e-06
-1.76768e-06
0.000688112
0.000646067
0.000590981
0.000522644
0.000443029
0.000355921
0.000266334
0.000179595
0.000100304
3.15041e-05
-2.55971e-05
-7.13568e-05
-0.000107111
-0.000134595
-0.000155539
-0.000171475
-0.000183648
-0.000193004
-0.000200191
-0.000205632
-0.000209589
-0.000212251
-0.00021377
-0.000214299
-0.000213977
-0.000212941
-0.000211301
-0.000209159
-0.000206593
-0.000203677
-0.000200464
-0.000197012
-0.000193361
-0.000189557
-0.000185627
-0.000181609
-0.000177521
-0.000173392
-0.000169234
-0.000165072
-0.00016091
-0.000156772
-0.000152656
-0.000148586
-0.000144554
-0.000140583
-0.000136664
-0.000132818
-0.000129031
-0.000125325
-0.000121685
-0.000118132
-0.000114647
-0.000111253
-0.000107929
-0.000104698
-0.000101535
-9.84666e-05
-9.5464e-05
-9.25554e-05
-8.97093e-05
-8.69559e-05
-8.426e-05
-8.16552e-05
-7.91018e-05
-7.66369e-05
-7.42168e-05
-7.18817e-05
-6.95838e-05
-6.73672e-05
-6.51786e-05
-6.30673e-05
-6.09746e-05
-5.89534e-05
-5.69407e-05
-5.49935e-05
-5.30429e-05
-5.11515e-05
-4.92439e-05
-4.7387e-05
-4.55008e-05
-4.36559e-05
-4.17661e-05
-3.99077e-05
-3.79867e-05
-3.60858e-05
-3.41036e-05
-3.21268e-05
-3.00503e-05
-2.79607e-05
-2.57529e-05
-2.35116e-05
-2.1132e-05
-1.87007e-05
-1.61131e-05
-1.34602e-05
-1.06457e-05
-7.76289e-06
-4.73204e-06
-1.64856e-06
0.000631655
0.000593191
0.000544057
0.000484189
0.000415144
0.000339794
0.000261908
0.000185558
0.000114439
5.12586e-05
-2.57739e-06
-4.69232e-05
-8.25516e-05
-0.000110724
-0.000132814
-0.000150098
-0.000163641
-0.000174283
-0.000182634
-0.000189121
-0.000194026
-0.00019756
-0.000199887
-0.000201163
-0.000201532
-0.000201131
-0.000200076
-0.000198476
-0.000196411
-0.000193961
-0.000191183
-0.000188136
-0.000184863
-0.000181411
-0.000177812
-0.000174103
-0.000170306
-0.000166451
-0.000162552
-0.000158635
-0.000154706
-0.000150788
-0.000146883
-0.000143012
-0.000139173
-0.000135385
-0.000131642
-0.000127962
-0.000124337
-0.000120785
-0.000117294
-0.000113883
-0.000110537
-0.000107274
-0.000104078
-0.000100968
-9.79246e-05
-9.49684e-05
-9.20771e-05
-8.92726e-05
-8.65303e-05
-8.38736e-05
-8.12747e-05
-7.87597e-05
-7.62973e-05
-7.39156e-05
-7.15812e-05
-6.93236e-05
-6.71064e-05
-6.49619e-05
-6.285e-05
-6.0806e-05
-5.87864e-05
-5.68282e-05
-5.48857e-05
-5.29981e-05
-5.11154e-05
-4.92805e-05
-4.74394e-05
-4.56368e-05
-4.38167e-05
-4.20244e-05
-4.02011e-05
-3.83949e-05
-3.6542e-05
-3.46939e-05
-3.27829e-05
-3.08611e-05
-2.88605e-05
-2.68301e-05
-2.4705e-05
-2.25306e-05
-2.02436e-05
-1.78909e-05
-1.54103e-05
-1.28519e-05
-1.01622e-05
-7.39185e-06
-4.50185e-06
-1.5453e-06
0.000579738
0.000544645
0.00050078
0.00044818
0.00038809
0.000322716
0.000254915
0.000187801
0.000124306
6.67431e-05
1.65285e-05
-2.588e-05
-6.08179e-05
-8.91293e-05
-0.000111862
-0.000130053
-0.000144608
-0.000156261
-0.000165569
-0.000172944
-0.000178675
-0.000182981
-0.000186034
-0.000187994
-0.000189003
-0.000189198
-0.0001887
-0.000187616
-0.000186034
-0.000184034
-0.000181678
-0.000179026
-0.000176125
-0.000173021
-0.00016975
-0.00016635
-0.000162844
-0.000159265
-0.000155627
-0.000151957
-0.000148264
-0.00014457
-0.000140881
-0.000137214
-0.000133571
-0.00012997
-0.000126408
-0.0001229
-0.000119442
-0.000116049
-0.000112713
-0.000109448
-0.000106245
-0.000103119
-0.000100056
-9.70723e-05
-9.41531e-05
-9.13141e-05
-8.85387e-05
-8.5843e-05
-8.32091e-05
-8.06535e-05
-7.8156e-05
-7.5735e-05
-7.33677e-05
-7.10737e-05
-6.88287e-05
-6.66527e-05
-6.45199e-05
-6.24517e-05
-6.04198e-05
-5.84471e-05
-5.65037e-05
-5.46128e-05
-5.27432e-05
-5.09195e-05
-4.91071e-05
-4.73333e-05
-4.55609e-05
-4.38172e-05
-4.20651e-05
-4.03305e-05
-3.85754e-05
-3.68269e-05
-3.50434e-05
-3.32542e-05
-3.14154e-05
-2.95552e-05
-2.76313e-05
-2.56677e-05
-2.36257e-05
-2.15264e-05
-1.93323e-05
-1.70665e-05
-1.46928e-05
-1.2237e-05
-9.6709e-06
-7.02137e-06
-4.27204e-06
-1.45352e-06
0.000531729
0.000499804
0.000460632
0.000414324
0.000361885
0.000305026
0.000245926
0.000186978
0.00013049
7.83882e-05
3.19956e-05
-8.07084e-06
-4.18379e-05
-6.98082e-05
-9.27352e-05
-0.000111437
-0.000126666
-0.000139056
-0.000149107
-0.000157202
-0.000163624
-0.000168592
-0.000172282
-0.000174852
-0.000176442
-0.000177187
-0.000177206
-0.000176608
-0.000175484
-0.000173914
-0.000171964
-0.000169695
-0.000167156
-0.000164394
-0.000161446
-0.000158351
-0.000155136
-0.000151831
-0.000148456
-0.000145035
-0.000141581
-0.000138114
-0.000134643
-0.000131185
-0.000127743
-0.000124333
-0.000120956
-0.000117626
-0.00011434
-0.00011111
-0.000107934
-0.000104821
-0.000101767
-9.87813e-05
-9.58569e-05
-9.30047e-05
-9.02146e-05
-8.74978e-05
-8.4843e-05
-8.22612e-05
-7.974e-05
-7.72905e-05
-7.48987e-05
-7.25766e-05
-7.03084e-05
-6.81068e-05
-6.59549e-05
-6.38653e-05
-6.18203e-05
-5.98331e-05
-5.78843e-05
-5.59878e-05
-5.41235e-05
-5.23046e-05
-5.05106e-05
-4.87554e-05
-4.70161e-05
-4.53081e-05
-4.36068e-05
-4.1927e-05
-4.02449e-05
-3.85734e-05
-3.68883e-05
-3.52031e-05
-3.34909e-05
-3.17664e-05
-3.00015e-05
-2.82093e-05
-2.63636e-05
-2.44736e-05
-2.25164e-05
-2.04993e-05
-1.83995e-05
-1.62277e-05
-1.3962e-05
-1.16155e-05
-9.17345e-06
-6.65105e-06
-4.04293e-06
-1.36873e-06
0.000487082
0.000458133
0.000423173
0.000382357
0.000336508
0.000286959
0.000235385
0.000183632
0.000133517
8.66202e-05
4.41177e-05
6.68021e-06
-2.55231e-05
-5.27349e-05
-7.5459e-05
-9.4312e-05
-0.000109902
-0.000122767
-0.000133346
-0.000141986
-0.000148957
-0.00015447
-0.000158698
-0.000161796
-0.000163899
-0.000165139
-0.000165632
-0.000165484
-0.000164787
-0.000163623
-0.00016206
-0.000160158
-0.000157967
-0.000155537
-0.000152906
-0.000150111
-0.000147183
-0.000144152
-0.000141038
-0.000137867
-0.000134653
-0.000131416
-0.000128166
-0.000124919
-0.000121682
-0.000118468
-0.000115281
-0.000112132
-0.000109023
-0.000105963
-0.00010295
-9.99952e-05
-9.70941e-05
-9.42554e-05
-9.14743e-05
-8.87588e-05
-8.61027e-05
-8.35135e-05
-8.09841e-05
-7.85214e-05
-7.61175e-05
-7.37793e-05
-7.14974e-05
-6.92793e-05
-6.71143e-05
-6.50101e-05
-6.29552e-05
-6.09569e-05
-5.90034e-05
-5.71019e-05
-5.52398e-05
-5.34242e-05
-5.16422e-05
-4.99001e-05
-4.81848e-05
-4.6503e-05
-4.48394e-05
-4.32022e-05
-4.15746e-05
-3.99639e-05
-3.83544e-05
-3.6751e-05
-3.51386e-05
-3.35218e-05
-3.18833e-05
-3.02292e-05
-2.85407e-05
-2.68223e-05
-2.50574e-05
-2.32471e-05
-2.13772e-05
-1.94484e-05
-1.74458e-05
-1.53739e-05
-1.32185e-05
-1.09866e-05
-8.67044e-06
-6.27978e-06
-3.81398e-06
-1.2876e-06
0.000445312
0.000419166
0.000388016
0.000352043
0.000311919
0.000268684
0.000223636
0.000178214
0.000133854
9.18423e-05
5.31937e-05
1.85637e-05
-1.17706e-05
-3.78702e-05
-6.00397e-05
-7.8719e-05
-9.43816e-05
-0.000107471
-0.000118366
-0.000127376
-0.000134748
-0.000140682
-0.000145343
-0.00014888
-0.000151423
-0.000153096
-0.000154011
-0.000154272
-0.000153968
-0.000153182
-0.00015198
-0.000150426
-0.000148569
-0.000146459
-0.000144134
-0.000141634
-0.000138988
-0.000136227
-0.000133374
-0.000130452
-0.000127478
-0.000124472
-0.000121446
-0.000118413
-0.000115384
-0.00011237
-0.000109377
-0.000106414
-0.000103486
-0.000100599
-9.77565e-05
-9.4964e-05
-9.22213e-05
-8.95347e-05
-8.69018e-05
-8.43285e-05
-8.18113e-05
-7.93551e-05
-7.69559e-05
-7.46177e-05
-7.23358e-05
-7.01142e-05
-6.79468e-05
-6.58379e-05
-6.37804e-05
-6.17786e-05
-5.98248e-05
-5.79229e-05
-5.60647e-05
-5.4254e-05
-5.24822e-05
-5.07523e-05
-4.90562e-05
-4.73957e-05
-4.57624e-05
-4.41588e-05
-4.25743e-05
-4.10126e-05
-3.94619e-05
-3.7925e-05
-3.63912e-05
-3.48609e-05
-3.33242e-05
-3.1781e-05
-3.02194e-05
-2.86409e-05
-2.70318e-05
-2.53927e-05
-2.37118e-05
-2.19868e-05
-2.02077e-05
-1.83727e-05
-1.64707e-05
-1.45038e-05
-1.2462e-05
-1.03494e-05
-8.16172e-06
-5.90639e-06
-3.58442e-06
-1.20795e-06
0.00040599
0.000382478
0.000354811
0.000323175
0.000288079
0.000250331
0.000210957
0.000171101
0.00013191
9.44292e-05
5.95184e-05
2.77793e-05
-4.66993e-07
-2.51666e-05
-4.64761e-05
-6.46892e-05
-8.01582e-05
-9.32368e-05
-0.000104242
-0.000113445
-0.000121067
-0.000127292
-0.000132276
-0.000136157
-0.000139058
-0.000141096
-0.000142377
-0.000142998
-0.000143049
-0.000142607
-0.000141741
-0.000140511
-0.00013897
-0.000137165
-0.000135135
-0.00013292
-0.00013055
-0.000128055
-0.000125459
-0.000122786
-0.000120053
-0.000117279
-0.000114477
-0.000111662
-0.000108843
-0.000106033
-0.000103237
-0.000100465
-9.7722e-05
-9.50147e-05
-9.23457e-05
-8.97212e-05
-8.71418e-05
-8.46127e-05
-8.21332e-05
-7.97076e-05
-7.73344e-05
-7.50168e-05
-7.27526e-05
-7.05444e-05
-6.83894e-05
-6.62897e-05
-6.42415e-05
-6.22471e-05
-6.03017e-05
-5.84075e-05
-5.65592e-05
-5.47586e-05
-5.30001e-05
-5.12849e-05
-4.96075e-05
-4.79682e-05
-4.63617e-05
-4.47877e-05
-4.32401e-05
-4.17195e-05
-4.02176e-05
-3.87362e-05
-3.7266e-05
-3.58077e-05
-3.43532e-05
-3.29007e-05
-3.14433e-05
-2.99786e-05
-2.84975e-05
-2.69994e-05
-2.54737e-05
-2.39189e-05
-2.2326e-05
-2.06914e-05
-1.90071e-05
-1.72709e-05
-1.54736e-05
-1.36165e-05
-1.16921e-05
-9.7029e-06
-7.64677e-06
-5.5299e-06
-3.35355e-06
-1.12838e-06
0.000368752
0.000347641
0.000323243
0.000295566
0.000264935
0.000231995
0.000197583
0.000162628
0.000128063
9.47449e-05
6.3395e-05
3.45458e-05
8.52053e-06
-1.45632e-05
-3.47607e-05
-5.22518e-05
-6.72855e-05
-8.01331e-05
-9.10527e-05
-0.000100274
-0.000107993
-0.000114376
-0.000119564
-0.000123687
-0.000126858
-0.000129186
-0.000130767
-0.000131696
-0.000132055
-0.00013192
-0.000131357
-0.000130427
-0.000129179
-0.000127661
-0.000125913
-0.000123972
-0.000121869
-0.000119634
-0.000117292
-0.000114864
-0.00011237
-0.000109829
-0.000107253
-0.000104657
-0.000102052
-9.94482e-05
-9.68537e-05
-9.42773e-05
-9.17239e-05
-8.92004e-05
-8.67103e-05
-8.42589e-05
-8.1848e-05
-7.9482e-05
-7.71611e-05
-7.48889e-05
-7.26649e-05
-7.04914e-05
-6.83677e-05
-6.62951e-05
-6.4272e-05
-6.22998e-05
-6.03758e-05
-5.85012e-05
-5.66727e-05
-5.48914e-05
-5.31532e-05
-5.14591e-05
-4.98046e-05
-4.819e-05
-4.66114e-05
-4.50676e-05
-4.3555e-05
-4.20721e-05
-4.06145e-05
-3.91813e-05
-3.77663e-05
-3.63697e-05
-3.4984e-05
-3.36089e-05
-3.22377e-05
-3.08678e-05
-2.94938e-05
-2.81121e-05
-2.67158e-05
-2.5303e-05
-2.38649e-05
-2.23993e-05
-2.08988e-05
-1.93594e-05
-1.77745e-05
-1.61419e-05
-1.44538e-05
-1.2711e-05
-1.09079e-05
-9.04618e-06
-7.1249e-06
-5.14944e-06
-3.12093e-06
-1.04834e-06
0.000326176
0.000307995
0.000287407
0.000264037
0.000238158
0.0002103
0.000181118
0.00015134
0.00012171
9.29151e-05
6.55421e-05
4.00409e-05
1.67124e-05
-4.29072e-06
-2.29462e-05
-3.9335e-05
-5.36073e-05
-6.5949e-05
-7.65532e-05
-8.5603e-05
-9.3262e-05
-9.96742e-05
-0.000104966
-0.000109251
-0.000112633
-0.000115206
-0.000117062
-0.000118284
-0.000118948
-0.000119125
-0.000118879
-0.000118267
-0.000117337
-0.000116135
-0.0001147
-0.000113068
-0.00011127
-0.000109334
-0.000107285
-0.000105145
-0.000102932
-0.000100665
-9.83581e-05
-9.60245e-05
-9.3675e-05
-9.13206e-05
-8.89693e-05
-8.66293e-05
-8.43065e-05
-8.20072e-05
-7.97354e-05
-7.7496e-05
-7.52915e-05
-7.31257e-05
-7.09998e-05
-6.89166e-05
-6.68765e-05
-6.48812e-05
-6.29308e-05
-6.10259e-05
-5.91662e-05
-5.7352e-05
-5.55819e-05
-5.38563e-05
-5.21728e-05
-5.05319e-05
-4.89307e-05
-4.73691e-05
-4.58442e-05
-4.43551e-05
-4.28993e-05
-4.14749e-05
-4.00793e-05
-3.87105e-05
-3.73651e-05
-3.60416e-05
-3.4735e-05
-3.34447e-05
-3.21648e-05
-3.0894e-05
-2.96271e-05
-2.83608e-05
-2.70911e-05
-2.58139e-05
-2.45236e-05
-2.32178e-05
-2.18894e-05
-2.05356e-05
-1.91505e-05
-1.77301e-05
-1.62691e-05
-1.47652e-05
-1.32125e-05
-1.16109e-05
-9.95704e-06
-8.25163e-06
-6.49493e-06
-4.69121e-06
-2.84167e-06
-9.5308e-07
0.000280082
0.000264696
0.000247439
0.000228337
0.00020736
0.000184726
0.00016088
0.000136389
0.000111847
8.78053e-05
6.47323e-05
4.2994e-05
2.28497e-05
4.45585e-06
-1.21228e-05
-2.68984e-05
-3.99415e-05
-5.13614e-05
-6.12862e-05
-6.98486e-05
-7.71749e-05
-8.33822e-05
-8.85766e-05
-9.2855e-05
-9.63061e-05
-9.90124e-05
-0.000101052
-0.000102497
-0.000103416
-0.000103872
-0.000103923
-0.00010362
-0.00010301
-0.000102135
-0.000101031
-9.9733e-05
-9.82696e-05
-9.66675e-05
-9.49503e-05
-9.31388e-05
-9.12518e-05
-8.93056e-05
-8.73144e-05
-8.52915e-05
-8.32472e-05
-8.11921e-05
-7.91341e-05
-7.70809e-05
-7.50388e-05
-7.30134e-05
-7.10092e-05
-6.90307e-05
-6.70806e-05
-6.51625e-05
-6.32779e-05
-6.14294e-05
-5.96179e-05
-5.78446e-05
-5.61104e-05
-5.44154e-05
-5.27599e-05
-5.11439e-05
-4.95666e-05
-4.80281e-05
-4.65267e-05
-4.50627e-05
-4.36336e-05
-4.22394e-05
-4.08776e-05
-3.95473e-05
-3.82465e-05
-3.69731e-05
-3.57254e-05
-3.45013e-05
-3.32978e-05
-3.21135e-05
-3.09443e-05
-2.97893e-05
-2.86435e-05
-2.75055e-05
-2.6371e-05
-2.52368e-05
-2.40995e-05
-2.29554e-05
-2.17999e-05
-2.06304e-05
-1.94412e-05
-1.82295e-05
-1.69905e-05
-1.57209e-05
-1.44161e-05
-1.30743e-05
-1.16909e-05
-1.02659e-05
-8.797e-06
-7.2847e-06
-5.73001e-06
-4.13624e-06
-2.50434e-06
-8.39442e-07
0.000231894
0.000219718
0.000206517
0.000191764
0.00017536
0.000157476
0.000138473
0.000118813
9.89842e-05
7.94313e-05
6.05286e-05
4.25666e-05
2.57544e-05
1.02284e-05
-3.93782e-06
-1.67231e-05
-2.81494e-05
-3.8271e-05
-4.71631e-05
-5.49129e-05
-6.16101e-05
-6.73438e-05
-7.21979e-05
-7.62516e-05
-7.9578e-05
-8.22456e-05
-8.43191e-05
-8.58596e-05
-8.6925e-05
-8.7569e-05
-8.78413e-05
-8.77876e-05
-8.74488e-05
-8.68629e-05
-8.60628e-05
-8.50791e-05
-8.39383e-05
-8.26646e-05
-8.12796e-05
-7.98022e-05
-7.82499e-05
-7.66376e-05
-7.49786e-05
-7.3285e-05
-7.15668e-05
-6.98335e-05
-6.80926e-05
-6.63514e-05
-6.46158e-05
-6.2891e-05
-6.11815e-05
-5.94913e-05
-5.78232e-05
-5.61804e-05
-5.45648e-05
-5.29785e-05
-5.14226e-05
-4.98985e-05
-4.84067e-05
-4.69479e-05
-4.55223e-05
-4.41298e-05
-4.27701e-05
-4.14432e-05
-4.01479e-05
-3.88842e-05
-3.76503e-05
-3.6446e-05
-3.52694e-05
-3.41196e-05
-3.2995e-05
-3.18938e-05
-3.08145e-05
-2.97553e-05
-2.87137e-05
-2.76884e-05
-2.66761e-05
-2.56756e-05
-2.46833e-05