/*--------------------------------*- C++ -*----------------------------------*\
| =========                 |                                                 |
| \\      /  F ield         | OpenFOAM: The Open Source CFD Toolbox           |
|  \\    /   O peration     | Version:  2.3.0                                 |
|   \\  /    A nd           | Web:      www.OpenFOAM.org                      |
|    \\/     M anipulation  |                                                 |
\*---------------------------------------------------------------------------*/
FoamFile
{
    version     2.0;
    format      ascii;
    class       volVectorField;
    location    "0.85";
    object      U;
}
// * * * * * * * * * * * * * * * * * * * * * * * * * * * * * * * * * * * * * //

dimensions      [0 1 -1 0 0 0 0];

internalField   nonuniform List<vector> 
3105
(
(0.176796 0.00434446 0)
(0.156087 0.00594969 0)
(0.13739 0.00612152 0)
(0.119254 0.00553046 0)
(0.101763 0.00473144 0)
(0.0857179 0.00384851 0)
(0.0721553 0.00288943 0)
(0.0614949 0.00187653 0)
(0.0535657 0.000988305 0)
(0.0478426 0.000380535 0)
(0.0437597 5.37542e-05 0)
(0.0408429 -8.07592e-05 0)
(0.0387109 -0.000107109 0)
(0.0370788 -8.23905e-05 0)
(0.035743 -3.88927e-05 0)
(0.0345745 4.30272e-06 0)
(0.033502 3.77651e-05 0)
(0.0324927 5.93545e-05 0)
(0.0315355 7.07863e-05 0)
(0.0306287 7.4969e-05 0)
(0.0297732 7.46151e-05 0)
(0.0289696 7.17874e-05 0)
(0.0282168 6.78392e-05 0)
(0.0275124 6.358e-05 0)
(0.0268532 5.94286e-05 0)
(0.0262352 5.55798e-05 0)
(0.0256549 5.20789e-05 0)
(0.0251084 4.89246e-05 0)
(0.0245925 4.60724e-05 0)
(0.0241042 4.34921e-05 0)
(0.0236411 4.11342e-05 0)
(0.0232008 3.89785e-05 0)
(0.0227816 3.69844e-05 0)
(0.0223816 3.51452e-05 0)
(0.0219996 3.34269e-05 0)
(0.021634 3.18335e-05 0)
(0.021284 3.0334e-05 0)
(0.0209482 2.89403e-05 0)
(0.0206262 2.76214e-05 0)
(0.0203165 2.63958e-05 0)
(0.0200191 2.523e-05 0)
(0.0197324 2.41487e-05 0)
(0.0194566 2.31146e-05 0)
(0.0191904 2.21588e-05 0)
(0.0189339 2.12385e-05 0)
(0.0186858 2.0392e-05 0)
(0.0184467 1.95701e-05 0)
(0.0182148 1.88194e-05 0)
(0.0179911 1.80824e-05 0)
(0.0177737 1.74155e-05 0)
(0.0175639 1.67517e-05 0)
(0.0173596 1.61584e-05 0)
(0.0171624 1.55576e-05 0)
(0.0169699 1.50296e-05 0)
(0.0167842 1.44827e-05 0)
(0.0166023 1.4013e-05 0)
(0.016427 1.35122e-05 0)
(0.0162548 1.30952e-05 0)
(0.0160891 1.26335e-05 0)
(0.0159256 1.22642e-05 0)
(0.0157686 1.18356e-05 0)
(0.0156131 1.15103e-05 0)
(0.0154642 1.11093e-05 0)
(0.0153159 1.0825e-05 0)
(0.0151745 1.04462e-05 0)
(0.0150328 1.0201e-05 0)
(0.0148984 9.83948e-06 0)
(0.0147625 9.6319e-06 0)
(0.0146347 9.28305e-06 0)
(0.0145042 9.11268e-06 0)
(0.0143826 8.77132e-06 0)
(0.0142569 8.63887e-06 0)
(0.0141412 8.29999e-06 0)
(0.0140197 8.20652e-06 0)
(0.0139096 7.86526e-06 0)
(0.0137919 7.81244e-06 0)
(0.0136873 7.46368e-06 0)
(0.0135727 7.45461e-06 0)
(0.0134735 7.09214e-06 0)
(0.0133615 7.13137e-06 0)
(0.0132677 6.7482e-06 0)
(0.0131576 6.84182e-06 0)
(0.0130691 6.42986e-06 0)
(0.0129603 6.58567e-06 0)
(0.0128774 6.13535e-06 0)
(0.0127691 6.36398e-06 0)
(0.0126919 5.86282e-06 0)
(0.0125832 6.17913e-06 0)
(0.0125122 5.61107e-06 0)
(0.0124019 6.03437e-06 0)
(0.0123375 5.38006e-06 0)
(0.0122244 5.93498e-06 0)
(0.0121675 5.16895e-06 0)
(0.0120496 5.89242e-06 0)
(0.0120014 4.97484e-06 0)
(0.0118761 5.92728e-06 0)
(0.0118388 4.79245e-06 0)
(0.0117018 6.08019e-06 0)
(0.0116798 4.72036e-06 0)
(0.0115173 8.05592e-06 0)
(0.192274 0.00771241 0)
(0.190397 0.0107981 0)
(0.187819 0.0118838 0)
(0.18396 0.0117272 0)
(0.178522 0.0110939 0)
(0.171684 0.010205 0)
(0.164059 0.00905888 0)
(0.156139 0.00765115 0)
(0.14831 0.00613246 0)
(0.140803 0.00472083 0)
(0.133752 0.00355873 0)
(0.127257 0.00267747 0)
(0.12136 0.00204299 0)
(0.116071 0.00160845 0)
(0.111345 0.00132221 0)
(0.107111 0.00113541 0)
(0.103299 0.00100902 0)
(0.0998417 0.00091658 0)
(0.0966873 0.000842441 0)
(0.0937919 0.000778388 0)
(0.0911211 0.000720584 0)
(0.0886466 0.000667557 0)
(0.0863459 0.000618851 0)
(0.0841995 0.000574389 0)
(0.0821912 0.000534069 0)
(0.0803066 0.000497725 0)
(0.0785336 0.000465026 0)
(0.0768611 0.000435628 0)
(0.0752801 0.000409112 0)
(0.0737817 0.000385136 0)
(0.0723595 0.000363328 0)
(0.0710064 0.000343434 0)
(0.0697176 0.000325165 0)
(0.0684873 0.000308361 0)
(0.0673122 0.000292802 0)
(0.0661872 0.000278399 0)
(0.0651102 0.000264976 0)
(0.0640766 0.000252498 0)
(0.0630851 0.00024081 0)
(0.0621313 0.000229915 0)
(0.0612149 0.000219668 0)
(0.0603315 0.0002101 0)
(0.0594815 0.000201067 0)
(0.0586604 0.000192626 0)
(0.0578695 0.000184624 0)
(0.0571039 0.000177148 0)
(0.0563659 0.000170029 0)
(0.0556499 0.000163381 0)
(0.0549593 0.00015702 0)
(0.0542879 0.000151091 0)
(0.05364 0.000145383 0)
(0.0530087 0.000140077 0)
(0.0523997 0.000134935 0)
(0.0518046 0.000130175 0)
(0.0512309 0.000125523 0)
(0.0506686 0.000121243 0)
(0.0501271 0.000117017 0)
(0.0495947 0.000113162 0)
(0.0490827 0.000109307 0)
(0.0485773 0.000105831 0)
(0.0480926 0.000102298 0)
(0.0476118 9.91623e-05 0)
(0.0471523 9.5911e-05 0)
(0.0466939 9.30821e-05 0)
(0.0462578 9.00745e-05 0)
(0.0458197 8.75257e-05 0)
(0.0454056 8.47287e-05 0)
(0.0449859 8.24375e-05 0)
(0.0445924 7.98213e-05 0)
(0.0441894 7.77705e-05 0)
(0.0438154 7.53059e-05 0)
(0.0434274 7.34836e-05 0)
(0.0430721 7.1144e-05 0)
(0.0426974 6.95409e-05 0)
(0.04236 6.73024e-05 0)
(0.041997 6.59123e-05 0)
(0.0416771 6.37515e-05 0)
(0.0413241 6.2574e-05 0)
(0.0410214 6.04664e-05 0)
(0.0406766 5.95059e-05 0)
(0.0403912 5.74262e-05 0)
(0.0400528 5.66929e-05 0)
(0.0397847 5.46148e-05 0)
(0.0394506 5.41242e-05 0)
(0.0392005 5.20189e-05 0)
(0.0388683 5.17956e-05 0)
(0.038637 4.96286e-05 0)
(0.038304 4.97095e-05 0)
(0.0380927 4.74392e-05 0)
(0.0377556 4.78734e-05 0)
(0.0375664 4.54552e-05 0)
(0.037221 4.63041e-05 0)
(0.0370564 4.36866e-05 0)
(0.0366973 4.50383e-05 0)
(0.0365615 4.21545e-05 0)
(0.0361812 4.41355e-05 0)
(0.0360805 4.09192e-05 0)
(0.035667 4.37658e-05 0)
(0.0356133 4.02443e-05 0)
(0.0351435 4.81875e-05 0)
(0.193243 0.00742885 0)
(0.193601 0.0100277 0)
(0.194592 0.0116172 0)
(0.195636 0.0121305 0)
(0.196079 0.0120316 0)
(0.195592 0.0115965 0)
(0.194176 0.010866 0)
(0.191952 0.00986108 0)
(0.18908 0.00868665 0)
(0.185721 0.00750686 0)
(0.182023 0.00645418 0)
(0.178134 0.0055831 0)
(0.174175 0.00488354 0)
(0.170244 0.00432713 0)
(0.166392 0.00388085 0)
(0.162641 0.00351503 0)
(0.159 0.00320657 0)
(0.155472 0.00293947 0)
(0.152058 0.00270343 0)
(0.148761 0.00249213 0)
(0.145579 0.00230159 0)
(0.142513 0.00212931 0)
(0.139564 0.00197344 0)
(0.136729 0.00183258 0)
(0.134006 0.00170541 0)
(0.131393 0.00159068 0)
(0.128887 0.00148709 0)
(0.126482 0.00139347 0)
(0.124176 0.00130865 0)
(0.121963 0.00123162 0)
(0.119839 0.0011614 0)
(0.117799 0.00109723 0)
(0.11584 0.00103834 0)
(0.113955 0.00098418 0)
(0.112143 0.000934151 0)
(0.110397 0.000887879 0)
(0.108717 0.000844895 0)
(0.107095 0.000804955 0)
(0.105533 0.000767675 0)
(0.104023 0.000732909 0)
(0.102567 0.000700325 0)
(0.101158 0.000669853 0)
(0.0997973 0.000641189 0)
(0.0984779 0.000614324 0)
(0.0972039 0.000588967 0)
(0.0959661 0.000565162 0)
(0.0947705 0.000542618 0)
(0.0936066 0.00052143 0)
(0.0924822 0.000501295 0)
(0.0913855 0.00048236 0)
(0.0903263 0.000464303 0)
(0.0892906 0.00044732 0)
(0.088291 0.000431061 0)
(0.087311 0.000415779 0)
(0.0863663 0.000401085 0)
(0.0854372 0.000387295 0)
(0.0845429 0.000373968 0)
(0.0836603 0.000361492 0)
(0.0828128 0.000349363 0)
(0.0819727 0.00033805 0)
(0.0811686 0.000326975 0)
(0.0803673 0.000316697 0)
(0.0796037 0.000306549 0)
(0.078838 0.000297197 0)
(0.0781123 0.000287867 0)
(0.077379 0.000279347 0)
(0.076689 0.000270739 0)
(0.0759852 0.000262971 0)
(0.0753291 0.000255001 0)
(0.0746519 0.000247918 0)
(0.0740282 0.000240508 0)
(0.073375 0.000234057 0)
(0.0727824 0.000227138 0)
(0.0721505 0.000221273 0)
(0.0715881 0.000214785 0)
(0.0709749 0.000209466 0)
(0.0704421 0.000203357 0)
(0.0698448 0.000198557 0)
(0.0693415 0.000192773 0)
(0.0687572 0.000188475 0)
(0.0682834 0.000182969 0)
(0.067709 0.000179164 0)
(0.0672655 0.000173892 0)
(0.0666976 0.000170582 0)
(0.0662854 0.000165501 0)
(0.0657201 0.000162702 0)
(0.0653408 0.000157767 0)
(0.0647736 0.00015551 0)
(0.0644298 0.000150678 0)
(0.0638551 0.00014901 0)
(0.0635503 0.000144248 0)
(0.0629613 0.000143223 0)
(0.0627003 0.000138515 0)
(0.0620884 0.000138208 0)
(0.0618778 0.00013356 0)
(0.0612315 0.000134079 0)
(0.0610809 0.00012954 0)
(0.0603842 0.0001313 0)
(0.0603073 0.000126962 0)
(0.0595387 0.000135406 0)
(0.194243 0.00700973 0)
(0.194572 0.00887688 0)
(0.195578 0.0103779 0)
(0.197117 0.0111334 0)
(0.198709 0.0112877 0)
(0.199973 0.0110763 0)
(0.20075 0.0106063 0)
(0.201008 0.00992256 0)
(0.200767 0.0090907 0)
(0.200068 0.00821468 0)
(0.198974 0.0073965 0)
(0.197572 0.00669461 0)
(0.19595 0.00611861 0)
(0.194183 0.00564765 0)
(0.192321 0.00525574 0)
(0.190388 0.0049212 0)
(0.188398 0.00462791 0)
(0.186361 0.00436454 0)
(0.184282 0.00412347 0)
(0.182167 0.0038998 0)
(0.180025 0.00369054 0)
(0.177861 0.00349397 0)
(0.175687 0.00330906 0)
(0.173506 0.00313526 0)
(0.171329 0.00297206 0)
(0.169159 0.00281905 0)
(0.167005 0.00267566 0)
(0.164869 0.0025414 0)
(0.162758 0.00241566 0)
(0.160673 0.00229789 0)
(0.15862 0.0021875 0)
(0.156598 0.00208401 0)
(0.154613 0.00198688 0)
(0.152662 0.00189569 0)
(0.150751 0.00180997 0)
(0.148875 0.00172939 0)
(0.147042 0.00165352 0)
(0.145244 0.0015821 0)
(0.143488 0.00151475 0)
(0.141768 0.00145126 0)
(0.14009 0.00139129 0)
(0.138446 0.0013347 0)
(0.136844 0.00128115 0)
(0.135274 0.00123055 0)
(0.133747 0.0011826 0)
(0.132248 0.00113724 0)
(0.130791 0.00109417 0)
(0.129359 0.00105338 0)
(0.12797 0.00101458 0)
(0.126603 0.000977805 0)
(0.125278 0.000942758 0)
(0.123972 0.000909507 0)
(0.122708 0.00087776 0)
(0.121459 0.00084762 0)
(0.120252 0.000818782 0)
(0.119057 0.000791396 0)
(0.117905 0.000765133 0)
(0.116759 0.000740191 0)
(0.11566 0.000716213 0)
(0.114561 0.000693445 0)
(0.113511 0.000671499 0)
(0.112455 0.000650672 0)
(0.111453 0.000630539 0)
(0.110437 0.00061145 0)
(0.109479 0.000592935 0)
(0.1085 0.000575407 0)
(0.107586 0.000558342 0)
(0.106641 0.000542219 0)
(0.105768 0.000526455 0)
(0.104854 0.000511603 0)
(0.104022 0.000497006 0)
(0.103135 0.000483311 0)
(0.102343 0.000469764 0)
(0.101481 0.000457123 0)
(0.100728 0.000444527 0)
(0.0998877 0.00043285 0)
(0.0991733 0.000421119 0)
(0.0983513 0.000410332 0)
(0.0976761 0.000399388 0)
(0.0968686 0.000389429 0)
(0.0962334 0.000379206 0)
(0.0954363 0.000370028 0)
(0.0948424 0.00036047 0)
(0.0940512 0.000352036 0)
(0.0935007 0.000343101 0)
(0.0927103 0.000335387 0)
(0.0922059 0.000327039 0)
(0.0914103 0.000320043 0)
(0.0909558 0.00031226 0)
(0.0901478 0.000305989 0)
(0.0897481 0.000298783 0)
(0.0889191 0.000293247 0)
(0.0885807 0.000286668 0)
(0.0877199 0.000281915 0)
(0.0874512 0.000276022 0)
(0.0865452 0.00027223 0)
(0.0863567 0.000267032 0)
(0.0853893 0.000264995 0)
(0.0852931 0.000260529 0)
(0.0842461 0.000265458 0)
(0.195074 0.00671303 0)
(0.195388 0.00813303 0)
(0.19618 0.00942116 0)
(0.197464 0.0102269 0)
(0.19897 0.0105006 0)
(0.200391 0.0103926 0)
(0.201552 0.010039 0)
(0.202402 0.00951615 0)
(0.202939 0.00887891 0)
(0.203176 0.00819406 0)
(0.203138 0.00753446 0)
(0.202869 0.00695249 0)
(0.202426 0.00646668 0)
(0.201862 0.00606742 0)
(0.201212 0.0057354 0)
(0.200495 0.0054527 0)
(0.199719 0.00520567 0)
(0.198885 0.00498444 0)
(0.197994 0.00478201 0)
(0.197042 0.00459356 0)
(0.196035 0.00441588 0)
(0.19497 0.00424702 0)
(0.193854 0.00408582 0)
(0.192688 0.00393162 0)
(0.191478 0.00378401 0)
(0.190225 0.0036427 0)
(0.188937 0.00350742 0)
(0.187614 0.00337791 0)
(0.186264 0.00325388 0)
(0.184887 0.00313505 0)
(0.183491 0.00302117 0)
(0.182074 0.00291197 0)
(0.180646 0.00280724 0)
(0.179202 0.00270675 0)
(0.177754 0.00261032 0)
(0.176296 0.00251775 0)
(0.17484 0.00242892 0)
(0.173377 0.00234364 0)
(0.171922 0.00226179 0)
(0.170464 0.00218323 0)
(0.169018 0.00210784 0)
(0.167572 0.00203548 0)
(0.166143 0.00196607 0)
(0.164714 0.00189943 0)
(0.163307 0.00183554 0)
(0.161901 0.00177419 0)
(0.16052 0.00171538 0)
(0.15914 0.0016589 0)
(0.15779 0.00160476 0)
(0.156438 0.00155275 0)
(0.155121 0.00150291 0)
(0.1538 0.00145499 0)
(0.152517 0.00140908 0)
(0.151228 0.0013649 0)
(0.149981 0.00132259 0)
(0.148724 0.00128183 0)
(0.147514 0.0012428 0)
(0.146289 0.00120516 0)
(0.145116 0.00116914 0)
(0.143923 0.00113433 0)
(0.142789 0.00110106 0)
(0.141626 0.00106883 0)
(0.140529 0.00103806 0)
(0.139396 0.00100818 0)
(0.138338 0.000979709 0)
(0.137232 0.00095196 0)
(0.136213 0.00092559 0)
(0.135133 0.000899778 0)
(0.134152 0.000875336 0)
(0.133097 0.000851285 0)
(0.132155 0.000828612 0)
(0.131122 0.000806166 0)
(0.130219 0.000785122 0)
(0.129205 0.000764133 0)
(0.128343 0.000744603 0)
(0.127345 0.000724933 0)
(0.126524 0.000706819 0)
(0.12554 0.00068835 0)
(0.124762 0.000671565 0)
(0.123787 0.00065419 0)
(0.123053 0.000638666 0)
(0.122084 0.000622291 0)
(0.121397 0.000607979 0)
(0.120428 0.00059252 0)
(0.119792 0.000579391 0)
(0.118818 0.000564779 0)
(0.118236 0.000552819 0)
(0.117251 0.00053901 0)
(0.116728 0.000528228 0)
(0.115723 0.00051519 0)
(0.115266 0.000505635 0)
(0.114232 0.000493358 0)
(0.113847 0.000485103 0)
(0.112774 0.00047368 0)
(0.112471 0.000466749 0)
(0.111345 0.000456523 0)
(0.111133 0.000450839 0)
(0.109939 0.000442882 0)
(0.109831 0.000438608 0)
(0.108553 0.000437099 0)
(0.195757 0.00647494 0)
(0.196068 0.00762387 0)
(0.196726 0.00870543 0)
(0.197763 0.00947813 0)
(0.199033 0.00982156 0)
(0.200309 0.0097981 0)
(0.201426 0.00952953 0)
(0.202319 0.00910783 0)
(0.202982 0.00859094 0)
(0.203429 0.008028 0)
(0.203683 0.00747125 0)
(0.203772 0.00696485 0)
(0.203738 0.00653118 0)
(0.20362 0.00617012 0)
(0.20345 0.00586937 0)
(0.203244 0.00561447 0)
(0.20301 0.00539338 0)
(0.202747 0.00519714 0)
(0.202455 0.00501937 0)
(0.202126 0.00485547 0)
(0.201764 0.00470232 0)
(0.201363 0.00455772 0)
(0.200925 0.00442033 0)
(0.200446 0.00428916 0)
(0.199933 0.00416365 0)
(0.199378 0.00404327 0)
(0.198791 0.0039277 0)
(0.198164 0.00381652 0)
(0.197506 0.00370948 0)
(0.19681 0.00360615 0)
(0.196087 0.00350639 0)
(0.195328 0.00340978 0)
(0.194545 0.00331627 0)
(0.193727 0.00322549 0)
(0.192891 0.00313747 0)
(0.192021 0.00305186 0)
(0.191136 0.00296878 0)
(0.19022 0.00288787 0)
(0.189295 0.00280933 0)
(0.188339 0.00273279 0)
(0.187379 0.00265852 0)
(0.186389 0.00258609 0)
(0.1854 0.00251587 0)
(0.184383 0.00244736 0)
(0.183371 0.00238102 0)
(0.182332 0.00231626 0)
(0.181304 0.00225364 0)
(0.180247 0.00219247 0)
(0.179209 0.00213341 0)
(0.178139 0.00207568 0)
(0.177095 0.00202005 0)
(0.176017 0.0019656 0)
(0.174971 0.00191325 0)
(0.173889 0.00186192 0)
(0.172846 0.0018127 0)
(0.171762 0.00176433 0)
(0.170725 0.00171809 0)
(0.169643 0.00167253 0)
(0.168616 0.00162913 0)
(0.167537 0.00158619 0)
(0.166524 0.00154549 0)
(0.165449 0.00150502 0)
(0.164452 0.00146688 0)
(0.163382 0.00142872 0)
(0.162405 0.00139299 0)
(0.161342 0.00135697 0)
(0.160385 0.00132353 0)
(0.159329 0.00128951 0)
(0.158396 0.00125824 0)
(0.157346 0.00122604 0)
(0.15644 0.00119683 0)
(0.155395 0.00116633 0)
(0.154517 0.00113907 0)
(0.153476 0.00111011 0)
(0.152631 0.00108473 0)
(0.151592 0.00105717 0)
(0.15078 0.00103359 0)
(0.149742 0.0010073 0)
(0.148968 0.000985471 0)
(0.147926 0.000960327 0)
(0.147193 0.000940204 0)
(0.146145 0.000916091 0)
(0.145456 0.000897655 0)
(0.144398 0.000874468 0)
(0.143758 0.000857718 0)
(0.142684 0.000835368 0)
(0.142098 0.00082032 0)
(0.141003 0.000798748 0)
(0.140477 0.000785434 0)
(0.139354 0.000764609 0)
(0.138894 0.000753095 0)
(0.137733 0.000733042 0)
(0.137348 0.000723383 0)
(0.13614 0.000704288 0)
(0.135838 0.000696466 0)
(0.134572 0.000678811 0)
(0.134361 0.000672775 0)
(0.133025 0.000657695 0)
(0.132916 0.000653824 0)
(0.131495 0.000644334 0)
(0.196342 0.0062603 0)
(0.196645 0.0072178 0)
(0.19721 0.00812225 0)
(0.19806 0.00881797 0)
(0.199115 0.00918891 0)
(0.200218 0.00923868 0)
(0.201227 0.00905139 0)
(0.202064 0.00871452 0)
(0.202714 0.00828968 0)
(0.203185 0.00782043 0)
(0.203501 0.007346 0)
(0.203686 0.00690118 0)
(0.203773 0.00650854 0)
(0.203791 0.0061741 0)
(0.203772 0.00589205 0)
(0.203729 0.00565167 0)
(0.203676 0.00544288 0)
(0.20361 0.00525767 0)
(0.203535 0.00509053 0)
(0.203442 0.00493733 0)
(0.203338 0.0047954 0)
(0.203213 0.00466257 0)
(0.203074 0.00453758 0)
(0.202911 0.00441918 0)
(0.202734 0.00430684 0)
(0.202531 0.00419972 0)
(0.202313 0.00409761 0)
(0.202068 0.00399976 0)
(0.201809 0.00390609 0)
(0.20152 0.00381586 0)
(0.201219 0.0037291 0)
(0.200885 0.00364508 0)
(0.200541 0.00356398 0)
(0.200163 0.00348506 0)
(0.199776 0.00340866 0)
(0.199354 0.003334 0)
(0.198924 0.00326157 0)
(0.198458 0.00319056 0)
(0.197988 0.00312161 0)
(0.197479 0.0030538 0)
(0.196969 0.00298796 0)
(0.196419 0.00292304 0)
(0.195872 0.00286005 0)
(0.195282 0.00279781 0)
(0.194701 0.00273749 0)
(0.194074 0.00267774 0)
(0.193461 0.00261997 0)
(0.1928 0.0025626 0)
(0.192158 0.00250726 0)
(0.191464 0.00245216 0)
(0.190797 0.0023992 0)
(0.190073 0.00234628 0)
(0.189384 0.00229562 0)
(0.188632 0.0022448 0)
(0.187925 0.0021964 0)
(0.187148 0.00214761 0)
(0.186426 0.00210142 0)
(0.185626 0.00205459 0)
(0.184892 0.00201055 0)
(0.184072 0.0019656 0)
(0.18333 0.00192369 0)
(0.18249 0.00188052 0)
(0.181744 0.00184069 0)
(0.180887 0.00179923 0)
(0.180139 0.00176143 0)
(0.179266 0.0017216 0)
(0.178521 0.00168579 0)
(0.177632 0.00164748 0)
(0.176893 0.00161364 0)
(0.17599 0.00157674 0)
(0.17526 0.00154483 0)
(0.174342 0.00150926 0)
(0.173626 0.00147923 0)
(0.172692 0.00144489 0)
(0.171993 0.00141674 0)
(0.171044 0.00138351 0)
(0.170366 0.00135722 0)
(0.169399 0.00132499 0)
(0.168746 0.00130058 0)
(0.167761 0.00126925 0)
(0.167137 0.00124671 0)
(0.166131 0.00121619 0)
(0.16554 0.00119555 0)
(0.16451 0.00116575 0)
(0.163959 0.00114704 0)
(0.162901 0.00111789 0)
(0.162394 0.00110118 0)
(0.161303 0.00107265 0)
(0.160848 0.00105797 0)
(0.159719 0.00103009 0)
(0.15932 0.00101752 0)
(0.158147 0.000990377 0)
(0.157813 0.000979952 0)
(0.156587 0.000953832 0)
(0.156325 0.000945557 0)
(0.155039 0.000921008 0)
(0.154858 0.000914955 0)
(0.153502 0.000893066 0)
(0.153408 0.00088977 0)
(0.151972 0.000872557 0)
(0.196852 0.006057 0)
(0.197142 0.00686494 0)
(0.197635 0.00762339 0)
(0.198343 0.00823167 0)
(0.199221 0.00859924 0)
(0.200163 0.00870315 0)
(0.201059 0.00858999 0)
(0.201826 0.00833021 0)
(0.202441 0.00798364 0)
(0.202902 0.00759253 0)
(0.203231 0.00718952 0)
(0.203445 0.0068017 0)
(0.203576 0.00644921 0)
(0.203642 0.00614088 0)
(0.203675 0.00587584 0)
(0.203683 0.00564705 0)
(0.203684 0.00544678 0)
(0.203675 0.00526806 0)
(0.203665 0.00510636 0)
(0.203643 0.00495797 0)
(0.203621 0.0048209 0)
(0.203584 0.00469299 0)
(0.203546 0.00457336 0)
(0.203492 0.0044605 0)
(0.203438 0.00435414 0)
(0.203367 0.00425308 0)
(0.203296 0.00415741 0)
(0.203206 0.00406601 0)
(0.203117 0.00397917 0)
(0.203007 0.00389571 0)
(0.202899 0.00381612 0)
(0.202766 0.00373916 0)
(0.202638 0.0036655 0)
(0.202482 0.00359385 0)
(0.202332 0.00352509 0)
(0.202151 0.0034578 0)
(0.201978 0.00339313 0)
(0.201771 0.0033295 0)
(0.201574 0.00326829 0)
(0.201339 0.00320777 0)
(0.201117 0.00314957 0)
(0.200853 0.00309173 0)
(0.200606 0.00303619 0)
(0.200312 0.0029807 0)
(0.200041 0.00292754 0)
(0.199717 0.00287415 0)
(0.19942 0.00282317 0)
(0.199065 0.00277168 0)
(0.198744 0.00272271 0)
(0.198358 0.00267296 0)
(0.198013 0.00262589 0)
(0.197597 0.00257773 0)
(0.197229 0.00253248 0)
(0.196782 0.00248579 0)
(0.196394 0.00244228 0)
(0.195916 0.00239699 0)
(0.195508 0.00235516 0)
(0.195001 0.00231117 0)
(0.194575 0.00227099 0)
(0.194038 0.00222822 0)
(0.193597 0.00218967 0)
(0.193031 0.00214805 0)
(0.192576 0.0021111 0)
(0.191981 0.00207055 0)
(0.191516 0.0020352 0)
(0.190893 0.00199566 0)
(0.190419 0.0019619 0)
(0.189768 0.00192329 0)
(0.189289 0.00189114 0)
(0.18861 0.00185338 0)
(0.188129 0.00182283 0)
(0.187421 0.00178586 0)
(0.186941 0.00175692 0)
(0.186205 0.00172066 0)
(0.18573 0.00169338 0)
(0.184964 0.00165775 0)
(0.184497 0.00163214 0)
(0.183702 0.00159707 0)
(0.183247 0.00157317 0)
(0.18242 0.00153859 0)
(0.181981 0.00151646 0)
(0.181122 0.00148231 0)
(0.180703 0.00146199 0)
(0.179809 0.00142824 0)
(0.179416 0.0014098 0)
(0.178484 0.0013764 0)
(0.178121 0.00135992 0)
(0.177149 0.00132692 0)
(0.176821 0.00131244 0)
(0.175805 0.00127994 0)
(0.175518 0.00126753 0)
(0.174454 0.0012357 0)
(0.174213 0.00122543 0)
(0.173096 0.00119461 0)
(0.172907 0.00118654 0)
(0.171733 0.00115732 0)
(0.171602 0.00115166 0)
(0.170363 0.00112506 0)
(0.170297 0.00112239 0)
(0.168989 0.0010997 0)
(0.197301 0.00586094 0)
(0.197575 0.00654753 0)
(0.198007 0.0071883 0)
(0.198605 0.00771562 0)
(0.199342 0.00806345 0)
(0.200144 0.00820204 0)
(0.200929 0.0081514 0)
(0.201625 0.00796126 0)
(0.2022 0.00768403 0)
(0.202644 0.00736023 0)
(0.202974 0.00701965 0)
(0.203202 0.00668441 0)
(0.203356 0.00637161 0)
(0.203449 0.00609053 0)
(0.203508 0.00584355 0)
(0.203539 0.00562675 0)
(0.203563 0.00543497 0)
(0.203573 0.00526233 0)
(0.203585 0.00510533 0)
(0.203583 0.00496054 0)
(0.203585 0.00482668 0)
(0.203573 0.00470155 0)
(0.203565 0.00458476 0)
(0.203542 0.00447454 0)
(0.203526 0.004371 0)
(0.203495 0.00427255 0)
(0.203471 0.00417972 0)
(0.20343 0.00409093 0)
(0.2034 0.00400699 0)
(0.20335 0.00392621 0)
(0.203313 0.00384969 0)
(0.203254 0.00377557 0)
(0.20321 0.00370523 0)
(0.20314 0.00363664 0)
(0.203088 0.00357146 0)
(0.203007 0.00350748 0)
(0.202946 0.00344669 0)
(0.202853 0.0033866 0)
(0.202783 0.00332956 0)
(0.202675 0.0032728 0)
(0.202595 0.00321902 0)
(0.202473 0.00316512 0)
(0.202381 0.00311422 0)
(0.202242 0.0030628 0)
(0.202139 0.00301446 0)
(0.201982 0.00296522 0)
(0.201867 0.00291919 0)
(0.20169 0.00287187 0)
(0.201562 0.00282794 0)
(0.201364 0.00278232 0)
(0.201223 0.00274033 0)
(0.201004 0.00269621 0)
(0.200849 0.00265602 0)
(0.200607 0.00261323 0)
(0.20044 0.00257473 0)
(0.200174 0.00253315 0)
(0.199993 0.00249624 0)
(0.199702 0.00245573 0)
(0.199508 0.00242034 0)
(0.199192 0.00238078 0)
(0.198986 0.00234686 0)
(0.198643 0.00230814 0)
(0.198426 0.00227565 0)
(0.198055 0.00223767 0)
(0.197829 0.00220658 0)
(0.19743 0.00216925 0)
(0.197194 0.00213954 0)
(0.196766 0.00210276 0)
(0.196524 0.00207444 0)
(0.196066 0.00203814 0)
(0.195818 0.00201119 0)
(0.195329 0.0019753 0)
(0.195077 0.00194973 0)
(0.194558 0.00191417 0)
(0.194304 0.00189001 0)
(0.193752 0.00185471 0)
(0.1935 0.00183199 0)
(0.192914 0.0017969 0)
(0.192666 0.00177565 0)
(0.192045 0.00174072 0)
(0.191803 0.001721 0)
(0.191147 0.0016862 0)
(0.190914 0.00166804 0)
(0.190221 0.00163338 0)
(0.19 0.00161686 0)
(0.189268 0.00158233 0)
(0.189063 0.00156751 0)
(0.18829 0.00153322 0)
(0.188105 0.00152013 0)
(0.187288 0.00148624 0)
(0.187126 0.00147495 0)
(0.186265 0.00144169 0)
(0.186129 0.00143228 0)
(0.18522 0.00140005 0)
(0.185113 0.00139264 0)
(0.184154 0.00136203 0)
(0.184081 0.00135695 0)
(0.183069 0.0013289 0)
(0.183033 0.00132672 0)
(0.181966 0.00130205 0)
(0.197696 0.00567162 0)
(0.197951 0.00625897 0)
(0.198333 0.0068056 0)
(0.198844 0.00726331 0)
(0.199468 0.00758483 0)
(0.20015 0.00774215 0)
(0.200836 0.0077403 0)
(0.201459 0.00761069 0)
(0.201992 0.00739526 0)
(0.202415 0.00713052 0)
(0.202741 0.00684464 0)
(0.202976 0.0065569 0)
(0.203146 0.00628211 0)
(0.203256 0.00602872 0)
(0.203336 0.00580102 0)
(0.203383 0.00559732 0)
(0.203422 0.00541495 0)
(0.203443 0.00524912 0)
(0.203466 0.00509748 0)
(0.203473 0.0049567 0)
(0.203485 0.00482623 0)
(0.203481 0.00470371 0)
(0.203484 0.00458938 0)
(0.203471 0.0044811 0)
(0.203467 0.00437956 0)
(0.203446 0.00428265 0)
(0.203437 0.00419147 0)
(0.20341 0.0041039 0)
(0.203398 0.00402138 0)
(0.203366 0.00394163 0)
(0.203351 0.00386642 0)
(0.203313 0.00379324 0)
(0.203297 0.00372422 0)
(0.203254 0.00365657 0)
(0.203235 0.00359281 0)
(0.203188 0.00352984 0)
(0.203167 0.00347061 0)
(0.203114 0.00341165 0)
(0.203092 0.00335635 0)
(0.203032 0.00330084 0)
(0.203008 0.00324902 0)
(0.202941 0.00319653 0)
(0.202914 0.0031478 0)
(0.202839 0.00309795 0)
(0.20281 0.003052 0)
(0.202726 0.00300449 0)
(0.202693 0.00296107 0)
(0.202599 0.00291562 0)
(0.202563 0.00287451 0)
(0.202457 0.00283089 0)
(0.202417 0.00279191 0)
(0.202299 0.00274991 0)
(0.202254 0.00271291 0)
(0.202122 0.00267233 0)
(0.202073 0.00263717 0)
(0.201926 0.00259786 0)
(0.201872 0.00256441 0)
(0.20171 0.00252622 0)
(0.20165 0.0024944 0)
(0.20147 0.00245716 0)
(0.201406 0.0024269 0)
(0.201207 0.00239048 0)
(0.201138 0.00236169 0)
(0.200919 0.00232599 0)
(0.200845 0.0022986 0)
(0.200605 0.00226349 0)
(0.200526 0.00223749 0)
(0.200264 0.00220284 0)
(0.200181 0.00217818 0)
(0.199895 0.00214392 0)
(0.199809 0.00212056 0)
(0.199498 0.00208661 0)
(0.19941 0.00206453 0)
(0.199072 0.0020308 0)
(0.198982 0.00200999 0)
(0.198618 0.00197642 0)
(0.198527 0.00195689 0)
(0.198134 0.00192342 0)
(0.198043 0.00190517 0)
(0.197621 0.00187177 0)
(0.197531 0.00185482 0)
(0.197079 0.00182147 0)
(0.196992 0.00180584 0)
(0.196508 0.00177257 0)
(0.196425 0.00175829 0)
(0.195908 0.00172513 0)
(0.195832 0.00171225 0)
(0.19528 0.00167934 0)
(0.195211 0.00166784 0)
(0.194625 0.00163539 0)
(0.194564 0.00162535 0)
(0.193942 0.00159359 0)
(0.193892 0.00158511 0)
(0.193232 0.00155446 0)
(0.193193 0.0015477 0)
(0.192495 0.00151874 0)
(0.192469 0.0015141 0)
(0.191732 0.00148767 0)
(0.19172 0.00148568 0)
(0.190944 0.00146236 0)
(0.198043 0.00548969 0)
(0.19828 0.00599595 0)
(0.19862 0.00646661 0)
(0.19906 0.00686592 0)
(0.199592 0.00715975 0)
(0.200175 0.00732442 0)
(0.20077 0.00735801 0)
(0.201325 0.00727855 0)
(0.201814 0.00711725 0)
(0.202213 0.00690472 0)
(0.202531 0.00666708 0)
(0.202768 0.00642185 0)
(0.202948 0.00618252 0)
(0.203072 0.00595643 0)
(0.203166 0.00574881 0)
(0.203227 0.00555934 0)
(0.203278 0.00538748 0)
(0.203309 0.00522947 0)
(0.20334 0.0050841 0)
(0.203354 0.00494814 0)
(0.203373 0.00482171 0)
(0.203374 0.00470228 0)
(0.203383 0.00459071 0)
(0.203374 0.00448453 0)
(0.203376 0.004385 0)
(0.20336 0.00428955 0)
(0.203357 0.00419986 0)
(0.203335 0.00411327 0)
(0.203328 0.00403186 0)
(0.203301 0.00395273 0)
(0.203294 0.00387837 0)
(0.203263 0.00380557 0)
(0.203254 0.00373725 0)
(0.20322 0.00366984 0)
(0.203211 0.0036067 0)
(0.203174 0.0035439 0)
(0.203166 0.00348526 0)
(0.203125 0.00342645 0)
(0.203117 0.00337179 0)
(0.203074 0.00331645 0)
(0.203067 0.00326532 0)
(0.20302 0.00321304 0)
(0.203014 0.0031651 0)
(0.202963 0.00311553 0)
(0.202958 0.00307049 0)
(0.202902 0.00302334 0)
(0.202899 0.00298095 0)
(0.202838 0.00293597 0)
(0.202835 0.00289603 0)
(0.202769 0.00285298 0)
(0.202767 0.00281533 0)
(0.202694 0.002774 0)
(0.202693 0.00273848 0)
(0.202613 0.0026987 0)
(0.202613 0.00266516 0)
(0.202524 0.00262677 0)
(0.202524 0.00259508 0)
(0.202427 0.00255793 0)
(0.202427 0.002528 0)
(0.20232 0.00249193 0)
(0.20232 0.00246367 0)
(0.202201 0.00242854 0)
(0.202201 0.00240185 0)
(0.202071 0.00236755 0)
(0.202071 0.00234235 0)
(0.201927 0.00230874 0)
(0.201927 0.00228499 0)
(0.201769 0.00225195 0)
(0.201768 0.00222957 0)
(0.201595 0.00219703 0)
(0.201594 0.00217595 0)
(0.201405 0.00214382 0)
(0.201403 0.00212401 0)
(0.201196 0.00209219 0)
(0.201194 0.0020736 0)
(0.200969 0.00204206 0)
(0.200967 0.00202465 0)
(0.200723 0.00199333 0)
(0.200721 0.00197709 0)
(0.200456 0.00194594 0)
(0.200454 0.00193085 0)
(0.200168 0.00189989 0)
(0.200166 0.00188594 0)
(0.199858 0.00185519 0)
(0.199857 0.00184238 0)
(0.199526 0.00181189 0)
(0.199525 0.00180023 0)
(0.199171 0.00177016 0)
(0.19917 0.00175962 0)
(0.198792 0.00173018 0)
(0.198792 0.00172083 0)
(0.198389 0.00169226 0)
(0.19839 0.00168423 0)
(0.197962 0.00165691 0)
(0.197963 0.0016504 0)
(0.19751 0.00162487 0)
(0.197512 0.00162031 0)
(0.197032 0.00159731 0)
(0.197034 0.00159519 0)
(0.19653 0.0015752 0)
(0.19835 0.00531587 0)
(0.198568 0.00575561 0)
(0.198871 0.00616422 0)
(0.199253 0.00651468 0)
(0.19971 0.00678188 0)
(0.20021 0.00694662 0)
(0.200727 0.00700446 0)
(0.201217 0.00696478 0)
(0.201661 0.00684965 0)
(0.202034 0.00668308 0)
(0.202341 0.00648828 0)
(0.202576 0.00628115 0)
(0.202761 0.00607444 0)
(0.202894 0.00587465 0)
(0.203 0.00568737 0)
(0.203072 0.00551303 0)
(0.203133 0.00535268 0)
(0.203173 0.00520344 0)
(0.203211 0.00506519 0)
(0.203232 0.00493485 0)
(0.203256 0.00481316 0)
(0.203263 0.00469742 0)
(0.203276 0.00458906 0)
(0.203272 0.00448535 0)
(0.203277 0.00438808 0)
(0.203265 0.00429433 0)
(0.203265 0.00420627 0)
(0.203246 0.00412082 0)
(0.203243 0.00404055 0)
(0.203219 0.00396213 0)
(0.203214 0.00388856 0)
(0.203187 0.00381616 0)
(0.203181 0.00374838 0)
(0.20315 0.00368115 0)
(0.203144 0.0036184 0)
(0.203111 0.00355564 0)
(0.203106 0.00349729 0)
(0.203071 0.00343842 0)
(0.203066 0.00338397 0)
(0.203029 0.00332852 0)
(0.203026 0.00327758 0)
(0.202987 0.00322516 0)
(0.202985 0.00317741 0)
(0.202944 0.0031277 0)
(0.202944 0.00308286 0)
(0.202901 0.0030356 0)
(0.202903 0.00299344 0)
(0.202857 0.00294838 0)
(0.202862 0.00290873 0)
(0.202813 0.00286566 0)
(0.20282 0.00282834 0)
(0.202768 0.00278706 0)
(0.202777 0.00275193 0)
(0.202722 0.0027123 0)
(0.202733 0.00267921 0)
(0.202674 0.00264107 0)
(0.202688 0.00260991 0)
(0.202623 0.00257311 0)
(0.20264 0.00254378 0)
(0.20257 0.00250818 0)
(0.202589 0.00248058 0)
(0.202514 0.00244607 0)
(0.202534 0.00242008 0)
(0.202453 0.00238654 0)
(0.202475 0.0023621 0)
(0.202387 0.0023294 0)
(0.202411 0.00230645 0)
(0.202315 0.00227448 0)
(0.202341 0.00225292 0)
(0.202237 0.00222162 0)
(0.202264 0.00220136 0)
(0.202151 0.00217065 0)
(0.202179 0.00215166 0)
(0.202056 0.00212145 0)
(0.202085 0.00210364 0)
(0.201952 0.00207392 0)
(0.201982 0.00205722 0)
(0.201838 0.00202793 0)
(0.201868 0.00201234 0)
(0.201712 0.00198342 0)
(0.201742 0.00196891 0)
(0.201574 0.0019404 0)
(0.201604 0.00192689 0)
(0.201424 0.00189882 0)
(0.201452 0.00188635 0)
(0.201259 0.00185876 0)
(0.201286 0.00184729 0)
(0.201079 0.00182035 0)
(0.201104 0.00180987 0)
(0.200883 0.00178377 0)
(0.200906 0.00177436 0)
(0.20067 0.0017493 0)
(0.20069 0.00174112 0)
(0.200439 0.00171746 0)
(0.200456 0.00171074 0)
(0.20019 0.00168896 0)
(0.200202 0.00168415 0)
(0.199921 0.0016649 0)
(0.199928 0.00166247 0)
(0.199633 0.0016462 0)
(0.19862 0.00515061 0)