/*--------------------------------*- C++ -*----------------------------------*\
| =========                 |                                                 |
| \\      /  F ield         | OpenFOAM: The Open Source CFD Toolbox           |
|  \\    /   O peration     | Version:  2.3.0                                 |
|   \\  /    A nd           | Web:      www.OpenFOAM.org                      |
|    \\/     M anipulation  |                                                 |
\*---------------------------------------------------------------------------*/
FoamFile
{
    version     2.0;
    format      ascii;
    class       volVectorField;
    location    "0.85";
    object      U_0;
}
// * * * * * * * * * * * * * * * * * * * * * * * * * * * * * * * * * * * * * //

dimensions      [0 1 -1 0 0 0 0];

internalField   nonuniform List<vector> 
3105
(
(0.176796 0.00434446 0)
(0.156087 0.00594968 0)
(0.13739 0.00612152 0)
(0.119254 0.00553045 0)
(0.101763 0.00473144 0)
(0.0857179 0.00384851 0)
(0.0721553 0.00288943 0)
(0.0614949 0.00187653 0)
(0.0535657 0.000988305 0)
(0.0478426 0.000380535 0)
(0.0437597 5.37543e-05 0)
(0.0408429 -8.07593e-05 0)
(0.0387109 -0.000107109 0)
(0.0370788 -8.23906e-05 0)
(0.035743 -3.88929e-05 0)
(0.0345745 4.30253e-06 0)
(0.033502 3.7765e-05 0)
(0.0324927 5.93543e-05 0)
(0.0315355 7.07861e-05 0)
(0.0306287 7.49688e-05 0)
(0.0297732 7.4615e-05 0)
(0.0289696 7.17872e-05 0)
(0.0282168 6.7839e-05 0)
(0.0275124 6.35798e-05 0)
(0.0268532 5.94284e-05 0)
(0.0262353 5.55795e-05 0)
(0.0256549 5.20786e-05 0)
(0.0251084 4.89244e-05 0)
(0.0245925 4.60721e-05 0)
(0.0241042 4.34918e-05 0)
(0.0236412 4.1134e-05 0)
(0.0232008 3.89782e-05 0)
(0.0227817 3.69842e-05 0)
(0.0223816 3.51448e-05 0)
(0.0219996 3.34266e-05 0)
(0.021634 3.18331e-05 0)
(0.0212841 3.03337e-05 0)
(0.0209483 2.89399e-05 0)
(0.0206263 2.7621e-05 0)
(0.0203166 2.63953e-05 0)
(0.0200191 2.52296e-05 0)
(0.0197325 2.41482e-05 0)
(0.0194567 2.31142e-05 0)
(0.0191905 2.21582e-05 0)
(0.018934 2.1238e-05 0)
(0.0186859 2.03914e-05 0)
(0.0184468 1.95695e-05 0)
(0.0182149 1.88187e-05 0)
(0.0179912 1.80818e-05 0)
(0.0177738 1.74148e-05 0)
(0.017564 1.6751e-05 0)
(0.0173598 1.61576e-05 0)
(0.0171626 1.55569e-05 0)
(0.0169701 1.50287e-05 0)
(0.0167844 1.44819e-05 0)
(0.0166025 1.40121e-05 0)
(0.0164272 1.35114e-05 0)
(0.016255 1.30942e-05 0)
(0.0160893 1.26326e-05 0)
(0.0159258 1.22631e-05 0)
(0.0157688 1.18347e-05 0)
(0.0156133 1.15091e-05 0)
(0.0154644 1.11082e-05 0)
(0.0153162 1.08237e-05 0)
(0.0151748 1.04451e-05 0)
(0.0150331 1.01996e-05 0)
(0.0148987 9.83824e-06 0)
(0.0147629 9.6304e-06 0)
(0.0146351 9.28174e-06 0)
(0.0145046 9.11104e-06 0)
(0.014383 8.76994e-06 0)
(0.0142573 8.63711e-06 0)
(0.0141416 8.29849e-06 0)
(0.0140202 8.20467e-06 0)
(0.0139101 7.86362e-06 0)
(0.0137924 7.81048e-06 0)
(0.0136878 7.46194e-06 0)
(0.0135733 7.45252e-06 0)
(0.0134741 7.09031e-06 0)
(0.0133621 7.12916e-06 0)
(0.0132683 6.74627e-06 0)
(0.0131583 6.83948e-06 0)
(0.0130698 6.42783e-06 0)
(0.0129611 6.58321e-06 0)
(0.0128782 6.13326e-06 0)
(0.01277 6.36136e-06 0)
(0.0126928 5.86075e-06 0)
(0.0125841 6.17634e-06 0)
(0.0125131 5.60896e-06 0)
(0.0124029 6.03156e-06 0)
(0.0123386 5.37785e-06 0)
(0.0122255 5.93218e-06 0)
(0.0121686 5.16679e-06 0)
(0.0120508 5.88954e-06 0)
(0.0120027 4.97282e-06 0)
(0.0118775 5.92443e-06 0)
(0.0118401 4.79058e-06 0)
(0.0117033 6.07737e-06 0)
(0.0116812 4.71856e-06 0)
(0.0115188 8.05095e-06 0)
(0.192274 0.00771241 0)
(0.190397 0.0107981 0)
(0.187819 0.0118838 0)
(0.18396 0.0117272 0)
(0.178522 0.0110939 0)
(0.171684 0.010205 0)
(0.164059 0.00905888 0)
(0.156139 0.00765115 0)
(0.14831 0.00613246 0)
(0.140803 0.00472082 0)
(0.133752 0.00355873 0)
(0.127257 0.00267747 0)
(0.12136 0.00204299 0)
(0.116071 0.00160845 0)
(0.111345 0.00132221 0)
(0.107111 0.00113541 0)
(0.103299 0.00100902 0)
(0.0998417 0.000916579 0)
(0.0966874 0.00084244 0)
(0.0937919 0.000778387 0)
(0.0911211 0.000720583 0)
(0.0886467 0.000667556 0)
(0.086346 0.000618849 0)
(0.0841995 0.000574387 0)
(0.0821913 0.000534068 0)
(0.0803066 0.000497723 0)
(0.0785337 0.000465024 0)
(0.0768612 0.000435626 0)
(0.0752802 0.00040911 0)
(0.0737818 0.000385134 0)
(0.0723596 0.000363326 0)
(0.0710065 0.000343431 0)
(0.0697177 0.000325163 0)
(0.0684874 0.000308359 0)
(0.0673123 0.0002928 0)
(0.0661874 0.000278396 0)
(0.0651104 0.000264974 0)
(0.0640767 0.000252495 0)
(0.0630852 0.000240807 0)
(0.0621315 0.000229912 0)
(0.0612151 0.000219664 0)
(0.0603317 0.000210096 0)
(0.0594817 0.000201063 0)
(0.0586606 0.000192622 0)
(0.0578698 0.000184621 0)
(0.0571042 0.000177143 0)
(0.0563661 0.000170024 0)
(0.0556502 0.000163377 0)
(0.0549596 0.000157016 0)
(0.0542882 0.000151086 0)
(0.0536404 0.000145378 0)
(0.0530091 0.000140072 0)
(0.0524001 0.00013493 0)
(0.051805 0.000130169 0)
(0.0512313 0.000125517 0)
(0.0506691 0.000121236 0)
(0.0501276 0.00011701 0)
(0.0495952 0.000113155 0)
(0.0490832 0.000109299 0)
(0.0485779 0.000105823 0)
(0.0480932 0.00010229 0)
(0.0476124 9.91531e-05 0)
(0.0471529 9.5902e-05 0)
(0.0466946 9.30721e-05 0)
(0.0462585 9.00647e-05 0)
(0.0458205 8.75148e-05 0)
(0.0454064 8.4718e-05 0)
(0.0449869 8.24256e-05 0)
(0.0445933 7.98097e-05 0)
(0.0441905 7.77575e-05 0)
(0.0438165 7.52933e-05 0)
(0.0434286 7.34695e-05 0)
(0.0430733 7.11303e-05 0)
(0.0426987 6.95258e-05 0)
(0.0423613 6.72875e-05 0)
(0.0419984 6.58961e-05 0)
(0.0416786 6.37355e-05 0)
(0.0413257 6.25564e-05 0)
(0.0410231 6.04491e-05 0)
(0.0406784 5.9487e-05 0)
(0.040393 5.74078e-05 0)
(0.0400547 5.66727e-05 0)
(0.0397867 5.4595e-05 0)
(0.0394528 5.41026e-05 0)
(0.0392027 5.1998e-05 0)
(0.0388707 5.17725e-05 0)
(0.0386394 4.96067e-05 0)
(0.0383067 4.96849e-05 0)
(0.0380955 4.74162e-05 0)
(0.0377586 4.78478e-05 0)
(0.0375694 4.54309e-05 0)
(0.0372242 4.62776e-05 0)
(0.0370597 4.36616e-05 0)
(0.0367009 4.50107e-05 0)
(0.0365652 4.21291e-05 0)
(0.0361851 4.41073e-05 0)
(0.0360844 4.08936e-05 0)
(0.0356713 4.37371e-05 0)
(0.0356176 4.02189e-05 0)
(0.0351481 4.81527e-05 0)
(0.193243 0.00742885 0)
(0.193601 0.0100277 0)
(0.194592 0.0116172 0)
(0.195636 0.0121305 0)
(0.196079 0.0120316 0)
(0.195592 0.0115965 0)
(0.194176 0.010866 0)
(0.191952 0.00986108 0)
(0.18908 0.00868665 0)
(0.185721 0.00750686 0)
(0.182023 0.00645418 0)
(0.178134 0.0055831 0)
(0.174175 0.00488354 0)
(0.170244 0.00432713 0)
(0.166392 0.00388085 0)
(0.162641 0.00351503 0)
(0.159 0.00320657 0)
(0.155472 0.00293946 0)
(0.152059 0.00270343 0)
(0.148761 0.00249212 0)
(0.145579 0.00230159 0)
(0.142514 0.0021293 0)
(0.139564 0.00197343 0)
(0.136729 0.00183258 0)
(0.134006 0.00170541 0)
(0.131393 0.00159067 0)
(0.128887 0.00148708 0)
(0.126482 0.00139347 0)
(0.124176 0.00130864 0)
(0.121963 0.00123161 0)
(0.119839 0.00116139 0)
(0.117799 0.00109723 0)
(0.11584 0.00103834 0)
(0.113955 0.000984173 0)
(0.112143 0.000934144 0)
(0.110397 0.000887872 0)
(0.108717 0.000844888 0)
(0.107095 0.000804947 0)
(0.105533 0.000767667 0)
(0.104024 0.0007329 0)
(0.102568 0.000700316 0)
(0.101158 0.000669843 0)
(0.0997975 0.000641179 0)
(0.0984782 0.000614313 0)
(0.0972042 0.000588956 0)
(0.0959664 0.00056515 0)
(0.0947708 0.000542605 0)
(0.0936069 0.000521417 0)
(0.0924826 0.000501282 0)
(0.0913859 0.000482346 0)
(0.0903267 0.000464288 0)
(0.0892911 0.000447303 0)
(0.0882915 0.000431044 0)
(0.0873116 0.000415761 0)
(0.0863668 0.000401067 0)
(0.0854378 0.000387275 0)
(0.0845435 0.000373948 0)
(0.083661 0.00036147 0)
(0.0828135 0.000349341 0)
(0.0819735 0.000338026 0)
(0.0811694 0.00032695 0)
(0.0803682 0.00031667 0)
(0.0796046 0.000306522 0)
(0.078839 0.000297168 0)
(0.0781133 0.000287838 0)
(0.0773801 0.000279315 0)
(0.0766902 0.000270707 0)
(0.0759865 0.000262936 0)
(0.0753305 0.000254966 0)
(0.0746534 0.00024788 0)
(0.0740297 0.00024047 0)
(0.0733767 0.000234016 0)
(0.0727841 0.000227096 0)
(0.0721524 0.000221228 0)
(0.07159 0.00021474 0)
(0.070977 0.000209417 0)
(0.0704442 0.000203307 0)
(0.0698471 0.000198504 0)
(0.0693438 0.000192719 0)
(0.0687598 0.000188417 0)
(0.0682861 0.000182911 0)
(0.067712 0.000179102 0)
(0.0672685 0.00017383 0)
(0.0667009 0.000170516 0)
(0.0662887 0.000165434 0)
(0.0657237 0.00016263 0)
(0.0653445 0.000157696 0)
(0.0647776 0.000155434 0)
(0.0644339 0.000150603 0)
(0.0638596 0.00014893 0)
(0.0635549 0.000144168 0)
(0.0629663 0.000143138 0)
(0.0627053 0.000138432 0)
(0.0620939 0.000138119 0)
(0.0618834 0.000133474 0)
(0.0612376 0.000133988 0)
(0.0610871 0.000129452 0)
(0.0603909 0.000131206 0)
(0.0603139 0.000126873 0)
(0.059546 0.000135303 0)
(0.194243 0.00700973 0)
(0.194572 0.00887688 0)
(0.195578 0.0103779 0)
(0.197117 0.0111334 0)
(0.198709 0.0112877 0)
(0.199973 0.0110763 0)
(0.20075 0.0106062 0)
(0.201008 0.00992256 0)
(0.200767 0.0090907 0)
(0.200068 0.00821468 0)
(0.198974 0.00739649 0)
(0.197572 0.00669461 0)
(0.19595 0.0061186 0)
(0.194183 0.00564765 0)
(0.192321 0.00525574 0)
(0.190388 0.0049212 0)
(0.188398 0.0046279 0)
(0.186361 0.00436454 0)
(0.184282 0.00412346 0)
(0.182167 0.0038998 0)
(0.180025 0.00369053 0)
(0.177862 0.00349396 0)
(0.175687 0.00330906 0)
(0.173506 0.00313525 0)
(0.171329 0.00297206 0)
(0.169159 0.00281904 0)
(0.167005 0.00267566 0)
(0.164869 0.0025414 0)
(0.162758 0.00241565 0)
(0.160673 0.00229788 0)
(0.15862 0.00218749 0)
(0.156598 0.002084 0)
(0.154613 0.00198687 0)
(0.152662 0.00189568 0)
(0.150751 0.00180996 0)
(0.148876 0.00172938 0)
(0.147042 0.00165351 0)
(0.145244 0.00158209 0)
(0.143488 0.00151473 0)
(0.141768 0.00145124 0)
(0.14009 0.00139128 0)
(0.138446 0.00133468 0)
(0.136845 0.00128113 0)
(0.135275 0.00123054 0)
(0.133747 0.00118258 0)
(0.132248 0.00113722 0)
(0.130791 0.00109414 0)
(0.12936 0.00105336 0)
(0.127971 0.00101456 0)
(0.126604 0.000977779 0)
(0.125279 0.000942731 0)
(0.123972 0.000909478 0)
(0.122708 0.000877729 0)
(0.121459 0.000847587 0)
(0.120253 0.000818749 0)
(0.119057 0.000791359 0)
(0.117906 0.000765096 0)
(0.11676 0.000740151 0)
(0.115661 0.000716172 0)
(0.114562 0.0006934 0)
(0.113512 0.000671454 0)
(0.112456 0.000650623 0)
(0.111454 0.000630489 0)
(0.110438 0.000611396 0)
(0.10948 0.00059288 0)
(0.108501 0.000575348 0)
(0.107587 0.000558281 0)
(0.106642 0.000542153 0)
(0.10577 0.000526388 0)
(0.104855 0.000511531 0)
(0.104023 0.000496932 0)
(0.103137 0.000483232 0)
(0.102345 0.000469683 0)
(0.101483 0.000457037 0)
(0.10073 0.000444439 0)
(0.0998902 0.000432757 0)
(0.0991758 0.000421023 0)
(0.0983541 0.00041023 0)
(0.0976789 0.000399283 0)
(0.0968717 0.000389319 0)
(0.0962365 0.000379092 0)
(0.0954397 0.000369908 0)
(0.0948459 0.000360348 0)
(0.0940551 0.000351906 0)
(0.0935047 0.000342969 0)
(0.0927147 0.000335247 0)
(0.0922103 0.000326898 0)
(0.0914152 0.000319893 0)
(0.0909607 0.000312109 0)
(0.0901533 0.000305829 0)
(0.0897536 0.000298622 0)
(0.0889252 0.000293078 0)
(0.0885868 0.000286498 0)
(0.0877266 0.000281737 0)
(0.0874579 0.000275845 0)
(0.0865527 0.000272043 0)
(0.0863642 0.000266848 0)
(0.0853976 0.000264801 0)
(0.0853014 0.00026034 0)
(0.0842552 0.000265253 0)
(0.195074 0.00671302 0)
(0.195388 0.00813303 0)
(0.19618 0.00942116 0)
(0.197464 0.0102269 0)
(0.19897 0.0105006 0)
(0.200391 0.0103926 0)
(0.201552 0.010039 0)
(0.202402 0.00951615 0)
(0.202939 0.00887891 0)
(0.203176 0.00819406 0)
(0.203138 0.00753445 0)
(0.202869 0.00695248 0)
(0.202426 0.00646667 0)
(0.201862 0.00606742 0)
(0.201212 0.00573539 0)
(0.200495 0.00545269 0)
(0.199719 0.00520566 0)
(0.198885 0.00498444 0)
(0.197994 0.00478201 0)
(0.197042 0.00459355 0)
(0.196035 0.00441587 0)
(0.19497 0.00424702 0)
(0.193854 0.00408582 0)
(0.192688 0.00393161 0)
(0.191478 0.003784 0)
(0.190225 0.00364269 0)
(0.188937 0.00350741 0)
(0.187614 0.0033779 0)
(0.186264 0.00325387 0)
(0.184887 0.00313504 0)
(0.183491 0.00302116 0)
(0.182074 0.00291196 0)
(0.180646 0.00280723 0)
(0.179202 0.00270673 0)
(0.177754 0.0026103 0)
(0.176296 0.00251774 0)
(0.17484 0.0024289 0)
(0.173377 0.00234362 0)
(0.171922 0.00226178 0)
(0.170464 0.00218321 0)
(0.169019 0.00210782 0)
(0.167572 0.00203546 0)
(0.166143 0.00196604 0)
(0.164714 0.00189941 0)
(0.163307 0.00183551 0)
(0.161901 0.00177416 0)
(0.160521 0.00171535 0)
(0.159141 0.00165887 0)
(0.15779 0.00160473 0)
(0.156439 0.00155271 0)
(0.155121 0.00150287 0)
(0.1538 0.00145494 0)
(0.152517 0.00140903 0)
(0.151228 0.00136485 0)
(0.149981 0.00132254 0)
(0.148724 0.00128177 0)
(0.147514 0.00124275 0)
(0.146289 0.0012051 0)
(0.145117 0.00116908 0)
(0.143924 0.00113426 0)
(0.142789 0.00110099 0)
(0.141627 0.00106875 0)
(0.14053 0.00103799 0)
(0.139397 0.0010081 0)
(0.138339 0.000979625 0)
(0.137234 0.00095187 0)
(0.136214 0.000925497 0)
(0.135135 0.000899679 0)
(0.134154 0.000875234 0)
(0.133099 0.000851176 0)
(0.132157 0.000828499 0)
(0.131124 0.000806045 0)
(0.130221 0.000784997 0)
(0.129207 0.000764001 0)
(0.128345 0.000744466 0)
(0.127348 0.000724789 0)
(0.126527 0.000706669 0)
(0.125543 0.000688191 0)
(0.124764 0.000671401 0)
(0.12379 0.000654017 0)
(0.123056 0.000638488 0)
(0.122087 0.000622102 0)
(0.121401 0.000607785 0)
(0.120432 0.000592315 0)
(0.119796 0.000579181 0)
(0.118823 0.000564558 0)
(0.118241 0.000552594 0)
(0.117256 0.000538771 0)
(0.116733 0.000527985 0)
(0.115729 0.000514935 0)
(0.115272 0.000505374 0)
(0.114238 0.000493086 0)
(0.113854 0.000484827 0)
(0.112781 0.00047339 0)
(0.112478 0.000466458 0)
(0.111353 0.000456218 0)
(0.111141 0.000450534 0)
(0.109948 0.000442564 0)
(0.10984 0.000438292 0)
(0.108562 0.000436766 0)
(0.195757 0.00647493 0)
(0.196068 0.00762387 0)
(0.196726 0.00870543 0)
(0.197763 0.00947812 0)
(0.199033 0.00982155 0)
(0.200309 0.00979809 0)
(0.201426 0.00952952 0)
(0.202319 0.00910783 0)
(0.202982 0.00859094 0)
(0.203429 0.008028 0)
(0.203683 0.00747125 0)
(0.203772 0.00696484 0)
(0.203738 0.00653118 0)
(0.20362 0.00617011 0)
(0.20345 0.00586936 0)
(0.203244 0.00561446 0)
(0.20301 0.00539338 0)
(0.202747 0.00519714 0)
(0.202455 0.00501936 0)
(0.202126 0.00485546 0)
(0.201764 0.00470231 0)
(0.201363 0.00455772 0)
(0.200925 0.00442032 0)
(0.200446 0.00428915 0)
(0.199933 0.00416364 0)
(0.199378 0.00404325 0)
(0.198791 0.00392769 0)
(0.198164 0.00381651 0)
(0.197506 0.00370946 0)
(0.19681 0.00360614 0)
(0.196087 0.00350637 0)
(0.195328 0.00340977 0)
(0.194545 0.00331626 0)
(0.193727 0.00322547 0)
(0.192891 0.00313745 0)
(0.192021 0.00305184 0)
(0.191136 0.00296876 0)
(0.19022 0.00288784 0)
(0.189295 0.00280931 0)
(0.188339 0.00273276 0)
(0.187379 0.00265849 0)
(0.186389 0.00258606 0)
(0.1854 0.00251584 0)
(0.184383 0.00244733 0)
(0.183372 0.00238098 0)
(0.182332 0.00231622 0)
(0.181304 0.00225359 0)
(0.180248 0.00219243 0)
(0.179209 0.00213337 0)
(0.17814 0.00207563 0)
(0.177095 0.00202 0)
(0.176017 0.00196555 0)
(0.174971 0.00191319 0)
(0.173889 0.00186186 0)
(0.172846 0.00181263 0)
(0.171762 0.00176426 0)
(0.170726 0.00171802 0)
(0.169643 0.00167245 0)
(0.168617 0.00162905 0)
(0.167537 0.00158611 0)
(0.166524 0.0015454 0)
(0.165449 0.00150493 0)
(0.164453 0.00146678 0)
(0.163383 0.00142861 0)
(0.162406 0.00139287 0)
(0.161343 0.00135685 0)
(0.160386 0.00132341 0)
(0.15933 0.00128937 0)
(0.158397 0.0012581 0)
(0.157347 0.0012259 0)
(0.156441 0.00119668 0)
(0.155396 0.00116617 0)
(0.154519 0.0011389 0)
(0.153478 0.00110993 0)
(0.152633 0.00108454 0)
(0.151594 0.00105697 0)
(0.150783 0.00103339 0)
(0.149744 0.00100709 0)
(0.14897 0.000985246 0)
(0.147929 0.00096009 0)
(0.147196 0.000939959 0)
(0.146148 0.000915832 0)
(0.145459 0.000897387 0)
(0.144402 0.000874185 0)
(0.143762 0.000857427 0)
(0.142689 0.00083506 0)
(0.142103 0.000820005 0)
(0.141008 0.000798414 0)
(0.140482 0.000785093 0)
(0.139359 0.000764252 0)
(0.138899 0.000752728 0)
(0.137739 0.000732658 0)
(0.137354 0.000722992 0)
(0.136147 0.000703878 0)
(0.135844 0.000696051 0)
(0.13458 0.000678377 0)
(0.134369 0.000672337 0)
(0.133033 0.000657239 0)
(0.132925 0.000653368 0)
(0.131505 0.000643858 0)
(0.196342 0.00626029 0)
(0.196645 0.00721779 0)
(0.19721 0.00812225 0)
(0.19806 0.00881797 0)
(0.199115 0.00918891 0)
(0.200218 0.00923868 0)
(0.201227 0.00905138 0)
(0.202064 0.00871451 0)
(0.202714 0.00828968 0)
(0.203185 0.00782043 0)
(0.203501 0.00734599 0)
(0.203686 0.00690118 0)
(0.203773 0.00650853 0)
(0.203791 0.0061741 0)
(0.203772 0.00589205 0)
(0.203729 0.00565167 0)
(0.203676 0.00544288 0)
(0.20361 0.00525767 0)
(0.203535 0.00509052 0)
(0.203442 0.00493732 0)
(0.203339 0.0047954 0)
(0.203213 0.00466257 0)
(0.203074 0.00453757 0)
(0.202911 0.00441917 0)
(0.202734 0.00430683 0)
(0.202531 0.00419971 0)
(0.202313 0.0040976 0)
(0.202068 0.00399975 0)
(0.201809 0.00390608 0)
(0.20152 0.00381584 0)
(0.201219 0.00372908 0)
(0.200886 0.00364506 0)
(0.200541 0.00356396 0)
(0.200163 0.00348504 0)
(0.199776 0.00340864 0)
(0.199354 0.00333397 0)
(0.198924 0.00326155 0)
(0.198458 0.00319053 0)
(0.197988 0.00312158 0)
(0.197479 0.00305377 0)
(0.196969 0.00298792 0)
(0.196419 0.00292301 0)
(0.195872 0.00286001 0)
(0.195283 0.00279777 0)
(0.194701 0.00273745 0)
(0.194074 0.0026777 0)
(0.193461 0.00261992 0)
(0.1928 0.00256254 0)
(0.192158 0.00250721 0)
(0.191464 0.0024521 0)
(0.190797 0.00239914 0)
(0.190073 0.00234621 0)
(0.189384 0.00229555 0)
(0.188633 0.00224473 0)
(0.187925 0.00219633 0)
(0.187148 0.00214753 0)
(0.186426 0.00210133 0)
(0.185626 0.00205449 0)
(0.184892 0.00201046 0)
(0.184072 0.00196549 0)
(0.18333 0.00192358 0)
(0.182491 0.0018804 0)
(0.181744 0.00184056 0)
(0.180887 0.0017991 0)
(0.18014 0.0017613 0)
(0.179267 0.00172145 0)
(0.178522 0.00168564 0)
(0.177633 0.00164731 0)
(0.176894 0.00161347 0)
(0.175991 0.00157656 0)
(0.175261 0.00154464 0)
(0.174343 0.00150906 0)
(0.173627 0.00147902 0)
(0.172694 0.00144467 0)
(0.171995 0.00141651 0)
(0.171046 0.00138326 0)
(0.170367 0.00135697 0)
(0.169401 0.00132472 0)
(0.168748 0.0013003 0)
(0.167763 0.00126895 0)
(0.167139 0.0012464 0)
(0.166133 0.00121586 0)
(0.165543 0.00119521 0)
(0.164513 0.00116539 0)
(0.163962 0.00114667 0)
(0.162904 0.0011175 0)
(0.162398 0.00110078 0)
(0.161307 0.00107223 0)
(0.160852 0.00105754 0)
(0.159723 0.00102963 0)
(0.159325 0.00101704 0)
(0.158152 0.000989884 0)
(0.157818 0.000979448 0)
(0.156593 0.000953302 0)
(0.156331 0.000945019 0)
(0.155046 0.000920446 0)
(0.154864 0.000914385 0)
(0.153509 0.000892472 0)
(0.153416 0.000889173 0)
(0.151981 0.000871936 0)
(0.196852 0.006057 0)
(0.197142 0.00686493 0)
(0.197635 0.00762339 0)
(0.198343 0.00823166 0)
(0.199221 0.00859924 0)
(0.200163 0.00870315 0)
(0.201059 0.00858998 0)
(0.201826 0.00833021 0)
(0.202441 0.00798364 0)
(0.202902 0.00759253 0)
(0.203231 0.00718951 0)
(0.203445 0.0068017 0)
(0.203576 0.0064492 0)
(0.203642 0.00614088 0)
(0.203675 0.00587583 0)
(0.203683 0.00564704 0)
(0.203684 0.00544677 0)
(0.203675 0.00526806 0)
(0.203665 0.00510635 0)
(0.203643 0.00495796 0)
(0.203621 0.00482089 0)
(0.203584 0.00469299 0)
(0.203546 0.00457335 0)
(0.203492 0.00446049 0)
(0.203438 0.00435413 0)
(0.203367 0.00425307 0)
(0.203296 0.0041574 0)
(0.203206 0.004066 0)
(0.203117 0.00397915 0)
(0.203007 0.00389569 0)
(0.202899 0.0038161 0)
(0.202766 0.00373914 0)
(0.202638 0.00366548 0)
(0.202482 0.00359382 0)
(0.202332 0.00352506 0)
(0.202151 0.00345778 0)
(0.201978 0.0033931 0)
(0.201771 0.00332947 0)
(0.201574 0.00326826 0)
(0.201339 0.00320774 0)
(0.201117 0.00314954 0)
(0.200853 0.00309169 0)
(0.200606 0.00303614 0)
(0.200313 0.00298065 0)
(0.200041 0.00292749 0)
(0.199717 0.0028741 0)
(0.19942 0.00282311 0)
(0.199065 0.00277162 0)
(0.198744 0.00272265 0)
(0.198358 0.00267289 0)
(0.198013 0.00262582 0)
(0.197597 0.00257766 0)
(0.19723 0.0025324 0)
(0.196783 0.00248571 0)
(0.196394 0.00244219 0)
(0.195917 0.00239689 0)
(0.195509 0.00235506 0)
(0.195001 0.00231106 0)
(0.194575 0.00227088 0)
(0.194039 0.0022281 0)
(0.193597 0.00218954 0)
(0.193031 0.00214791 0)
(0.192576 0.00211096 0)
(0.191982 0.0020704 0)
(0.191516 0.00203504 0)
(0.190893 0.00199549 0)
(0.19042 0.00196173 0)
(0.189769 0.0019231 0)
(0.18929 0.00189094 0)
(0.18861 0.00185317 0)
(0.188129 0.00182261 0)
(0.187422 0.00178562 0)
(0.186942 0.00175668 0)
(0.186206 0.00172041 0)
(0.185731 0.00169311 0)
(0.184966 0.00165746 0)
(0.184498 0.00163184 0)
(0.183703 0.00159675 0)
(0.183248 0.00157284 0)
(0.182422 0.00153824 0)
(0.181983 0.0015161 0)
(0.181124 0.00148193 0)
(0.180705 0.00146159 0)
(0.179812 0.00142781 0)
(0.179418 0.00140936 0)
(0.178487 0.00137594 0)
(0.178123 0.00135944 0)
(0.177152 0.00132642 0)
(0.176824 0.00131192 0)
(0.175809 0.00127939 0)
(0.175521 0.00126697 0)
(0.174458 0.00123511 0)
(0.174217 0.00122483 0)
(0.173101 0.00119397 0)
(0.172912 0.00118589 0)
(0.171738 0.00115665 0)
(0.171607 0.00115097 0)
(0.170369 0.00112434 0)
(0.170303 0.00112167 0)
(0.168995 0.00109895 0)
(0.197301 0.00586093 0)
(0.197575 0.00654752 0)
(0.198007 0.00718829 0)
(0.198605 0.00771561 0)
(0.199342 0.00806345 0)
(0.200144 0.00820204 0)
(0.200929 0.00815139 0)
(0.201625 0.00796125 0)
(0.2022 0.00768402 0)
(0.202644 0.00736023 0)
(0.202974 0.00701964 0)
(0.203202 0.0066844 0)
(0.203356 0.00637161 0)
(0.203449 0.00609052 0)
(0.203508 0.00584355 0)
(0.203539 0.00562675 0)
(0.203563 0.00543496 0)
(0.203573 0.00526232 0)
(0.203585 0.00510532 0)
(0.203583 0.00496053 0)
(0.203585 0.00482667 0)
(0.203573 0.00470153 0)
(0.203565 0.00458475 0)
(0.203542 0.00447452 0)
(0.203526 0.00437099 0)
(0.203495 0.00427254 0)
(0.203471 0.00417971 0)
(0.20343 0.00409091 0)
(0.2034 0.00400697 0)
(0.20335 0.00392619 0)
(0.203313 0.00384967 0)
(0.203254 0.00377555 0)
(0.20321 0.00370521 0)
(0.20314 0.00363661 0)
(0.203088 0.00357144 0)
(0.203007 0.00350745 0)
(0.202947 0.00344666 0)
(0.202853 0.00338657 0)
(0.202783 0.00332953 0)
(0.202675 0.00327276 0)
(0.202595 0.00321899 0)
(0.202473 0.00316508 0)
(0.202381 0.00311418 0)
(0.202242 0.00306275 0)
(0.202139 0.00301441 0)
(0.201982 0.00296517 0)
(0.201867 0.00291914 0)
(0.20169 0.00287181 0)
(0.201562 0.00282788 0)
(0.201364 0.00278225 0)
(0.201223 0.00274025 0)
(0.201004 0.00269613 0)
(0.20085 0.00265593 0)
(0.200608 0.00261314 0)
(0.20044 0.00257464 0)
(0.200174 0.00253305 0)
(0.199993 0.00249613 0)
(0.199702 0.00245561 0)
(0.199509 0.00242022 0)
(0.199192 0.00238065 0)
(0.198986 0.00234673 0)
(0.198643 0.00230799 0)
(0.198426 0.0022755 0)
(0.198056 0.00223751 0)
(0.197829 0.00220641 0)
(0.19743 0.00216907 0)
(0.197195 0.00213935 0)
(0.196767 0.00210256 0)
(0.196524 0.00207423 0)
(0.196066 0.00203791 0)
(0.195818 0.00201095 0)
(0.19533 0.00197504 0)
(0.195078 0.00194946 0)
(0.194558 0.00191388 0)
(0.194305 0.00188971 0)
(0.193753 0.00185439 0)
(0.193501 0.00183166 0)
(0.192915 0.00179655 0)
(0.192667 0.00177528 0)
(0.192047 0.00174033 0)
(0.191804 0.00172059 0)
(0.191149 0.00168577 0)
(0.190915 0.0016676 0)
(0.190222 0.0016329 0)
(0.190002 0.00161636 0)
(0.18927 0.00158181 0)
(0.189065 0.00156697 0)
(0.188292 0.00153265 0)
(0.188107 0.00151954 0)
(0.187291 0.00148562 0)
(0.187128 0.00147431 0)
(0.186267 0.00144102 0)
(0.186131 0.0014316 0)
(0.185223 0.00139932 0)
(0.185117 0.0013919 0)
(0.184158 0.00136125 0)
(0.184085 0.00135616 0)
(0.183074 0.00132807 0)
(0.183037 0.00132588 0)
(0.181971 0.00130118 0)
(0.197696 0.00567161 0)
(0.197951 0.00625897 0)
(0.198333 0.00680559 0)
(0.198845 0.0072633 0)
(0.199468 0.00758482 0)
(0.200151 0.00774214 0)
(0.200836 0.00774029 0)
(0.201459 0.00761069 0)
(0.201992 0.00739525 0)
(0.202415 0.00713052 0)
(0.202741 0.00684463 0)
(0.202976 0.00655689 0)
(0.203146 0.0062821 0)
(0.203256 0.00602872 0)
(0.203336 0.00580101 0)
(0.203383 0.00559731 0)
(0.203422 0.00541494 0)
(0.203443 0.00524911 0)
(0.203466 0.00509747 0)
(0.203473 0.00495669 0)
(0.203485 0.00482622 0)
(0.203481 0.0047037 0)
(0.203484 0.00458937 0)
(0.203471 0.00448109 0)
(0.203467 0.00437955 0)
(0.203446 0.00428263 0)
(0.203437 0.00419146 0)
(0.20341 0.00410388 0)
(0.203398 0.00402136 0)
(0.203366 0.00394161 0)
(0.203351 0.0038664 0)
(0.203313 0.00379322 0)
(0.203297 0.0037242 0)
(0.203254 0.00365654 0)
(0.203236 0.00359279 0)
(0.203188 0.00352981 0)
(0.203168 0.00347058 0)
(0.203114 0.00341161 0)
(0.203092 0.00335631 0)
(0.203032 0.00330081 0)
(0.203008 0.00324898 0)
(0.202941 0.00319648 0)
(0.202914 0.00314775 0)
(0.202839 0.0030979 0)
(0.20281 0.00305195 0)
(0.202726 0.00300443 0)
(0.202693 0.00296101 0)
(0.202599 0.00291556 0)
(0.202563 0.00287444 0)
(0.202457 0.00283082 0)
(0.202417 0.00279183 0)
(0.202299 0.00274982 0)
(0.202254 0.00271282 0)
(0.202123 0.00267223 0)
(0.202073 0.00263707 0)
(0.201927 0.00259775 0)
(0.201873 0.0025643 0)
(0.20171 0.0025261 0)
(0.201651 0.00249427 0)
(0.20147 0.00245703 0)
(0.201406 0.00242675 0)
(0.201207 0.00239033 0)
(0.201138 0.00236153 0)
(0.200919 0.00232582 0)
(0.200845 0.00229842 0)
(0.200605 0.0022633 0)
(0.200527 0.00223729 0)
(0.200264 0.00220262 0)
(0.200182 0.00217796 0)
(0.199895 0.00214368 0)
(0.199809 0.00212031 0)
(0.199498 0.00208634 0)
(0.19941 0.00206424 0)
(0.199073 0.00203049 0)
(0.198982 0.00200968 0)
(0.198618 0.00197608 0)
(0.198527 0.00195653 0)
(0.198135 0.00192305 0)
(0.198044 0.00190478 0)
(0.197622 0.00187135 0)
(0.197532 0.00185439 0)
(0.19708 0.00182101 0)
(0.196993 0.00180536 0)
(0.196509 0.00177206 0)
(0.196426 0.00175777 0)
(0.195909 0.00172457 0)
(0.195833 0.00171167 0)
(0.195282 0.00167872 0)
(0.195213 0.00166721 0)
(0.194626 0.00163471 0)
(0.194566 0.00162466 0)
(0.193944 0.00159286 0)
(0.193894 0.00158436 0)
(0.193234 0.00155366 0)
(0.193195 0.0015469 0)
(0.192498 0.00151789 0)
(0.192472 0.00151324 0)
(0.191735 0.00148676 0)
(0.191723 0.00148477 0)
(0.190947 0.0014614 0)
(0.198043 0.00548968 0)
(0.19828 0.00599594 0)
(0.19862 0.0064666 0)
(0.19906 0.00686592 0)
(0.199592 0.00715974 0)
(0.200175 0.00732441 0)
(0.20077 0.007358 0)
(0.201325 0.00727855 0)
(0.201814 0.00711724 0)
(0.202213 0.00690471 0)
(0.202531 0.00666707 0)
(0.202768 0.00642185 0)
(0.202948 0.00618251 0)
(0.203072 0.00595643 0)
(0.203166 0.0057488 0)
(0.203227 0.00555933 0)
(0.203278 0.00538747 0)
(0.203309 0.00522946 0)
(0.20334 0.00508409 0)
(0.203354 0.00494813 0)
(0.203373 0.0048217 0)
(0.203374 0.00470227 0)
(0.203383 0.0045907 0)
(0.203375 0.00448452 0)
(0.203376 0.00438498 0)
(0.20336 0.00428953 0)
(0.203357 0.00419985 0)
(0.203335 0.00411326 0)
(0.203328 0.00403184 0)
(0.203302 0.00395271 0)
(0.203294 0.00387835 0)
(0.203263 0.00380555 0)
(0.203254 0.00373722 0)
(0.20322 0.00366981 0)
(0.203211 0.00360667 0)
(0.203174 0.00354387 0)
(0.203166 0.00348523 0)
(0.203125 0.00342642 0)
(0.203117 0.00337175 0)
(0.203074 0.00331641 0)
(0.203067 0.00326528 0)
(0.20302 0.00321299 0)
(0.203014 0.00316506 0)
(0.202963 0.00311548 0)
(0.202958 0.00307044 0)
(0.202903 0.00302328 0)
(0.202899 0.00298089 0)
(0.202838 0.00293591 0)
(0.202836 0.00289596 0)
(0.202769 0.00285291 0)
(0.202767 0.00281525 0)
(0.202695 0.00277392 0)
(0.202693 0.00273838 0)
(0.202613 0.0026986 0)
(0.202613 0.00266505 0)
(0.202525 0.00262666 0)
(0.202524 0.00259497 0)
(0.202427 0.00255781 0)
(0.202427 0.00252787 0)
(0.20232 0.00249179 0)
(0.20232 0.00246352 0)
(0.202202 0.00242838 0)
(0.202202 0.00240168 0)
(0.202071 0.00236737 0)
(0.202071 0.00234216 0)
(0.201927 0.00230854 0)
(0.201927 0.00228478 0)
(0.201769 0.00225172 0)
(0.201768 0.00222934 0)
(0.201595 0.00219677 0)
(0.201594 0.00217569 0)
(0.201405 0.00214353 0)
(0.201403 0.00212371 0)
(0.201197 0.00209187 0)
(0.201195 0.00207328 0)
(0.20097 0.00204171 0)
(0.200968 0.00202428 0)
(0.200724 0.00199294 0)
(0.200721 0.00197668 0)
(0.200457 0.00194551 0)
(0.200454 0.0019304 0)
(0.200169 0.00189941 0)
(0.200167 0.00188543 0)
(0.199859 0.00185465 0)
(0.199857 0.00184182 0)
(0.199527 0.0018113 0)
(0.199526 0.00179962 0)
(0.199172 0.00176951 0)
(0.199171 0.00175896 0)
(0.198793 0.00172948 0)
(0.198793 0.00172011 0)
(0.19839 0.00169149 0)
(0.198391 0.00168344 0)
(0.197963 0.00165607 0)
(0.197965 0.00164955 0)
(0.197511 0.00162397 0)
(0.197513 0.0016194 0)
(0.197034 0.00159635 0)
(0.197036 0.00159423 0)
(0.196532 0.00157419 0)
(0.19835 0.00531586 0)
(0.198568 0.0057556 0)
(0.198871 0.00616421 0)
(0.199253 0.00651467 0)
(0.19971 0.00678187 0)
(0.20021 0.00694661 0)
(0.200727 0.00700446 0)
(0.201217 0.00696477 0)
(0.201661 0.00684964 0)
(0.202034 0.00668308 0)
(0.202341 0.00648828 0)
(0.202576 0.00628115 0)
(0.202761 0.00607444 0)
(0.202894 0.00587464 0)
(0.203 0.00568736 0)
(0.203072 0.00551302 0)
(0.203133 0.00535267 0)
(0.203173 0.00520343 0)
(0.203211 0.00506518 0)
(0.203232 0.00493484 0)
(0.203256 0.00481314 0)
(0.203263 0.00469741 0)
(0.203276 0.00458905 0)
(0.203272 0.00448534 0)
(0.203277 0.00438807 0)
(0.203265 0.00429431 0)
(0.203265 0.00420626 0)
(0.203246 0.0041208 0)
(0.203243 0.00404053 0)
(0.20322 0.00396211 0)
(0.203214 0.00388854 0)
(0.203187 0.00381614 0)
(0.203181 0.00374836 0)
(0.203151 0.00368113 0)
(0.203144 0.00361837 0)
(0.203111 0.00355561 0)
(0.203106 0.00349726 0)
(0.203071 0.00343838 0)
(0.203066 0.00338393 0)
(0.203029 0.00332848 0)
(0.203026 0.00327754 0)
(0.202987 0.00322511 0)
(0.202985 0.00317736 0)
(0.202944 0.00312764 0)
(0.202944 0.00308281 0)
(0.202901 0.00303554 0)
(0.202903 0.00299338 0)
(0.202857 0.00294831 0)
(0.202862 0.00290865 0)
(0.202813 0.00286558 0)
(0.20282 0.00282825 0)
(0.202768 0.00278697 0)
(0.202777 0.00275184 0)
(0.202722 0.0027122 0)
(0.202733 0.00267911 0)
(0.202674 0.00264096 0)
(0.202688 0.00260979 0)
(0.202623 0.00257299 0)
(0.20264 0.00254365 0)
(0.20257 0.00250804 0)
(0.202589 0.00248043 0)
(0.202514 0.0024459 0)
(0.202534 0.00241991 0)
(0.202453 0.00238636 0)
(0.202475 0.00236191 0)
(0.202387 0.00232919 0)
(0.202411 0.00230624 0)
(0.202315 0.00227424 0)
(0.202341 0.00225268 0)
(0.202237 0.00222136 0)
(0.202264 0.00220109 0)
(0.202151 0.00217036 0)
(0.202179 0.00215135 0)
(0.202056 0.00212112 0)
(0.202085 0.00210331 0)
(0.201952 0.00207355 0)
(0.201982 0.00205685 0)
(0.201838 0.00202753 0)
(0.201868 0.00201192 0)
(0.201713 0.00198298 0)
(0.201742 0.00196845 0)
(0.201575 0.0019399 0)
(0.201604 0.00192638 0)
(0.201424 0.00189827 0)
(0.201453 0.00188578 0)
(0.201259 0.00185815 0)
(0.201286 0.00184668 0)
(0.201079 0.00181969 0)
(0.201105 0.00180919 0)
(0.200883 0.00178304 0)
(0.200907 0.00177362 0)
(0.200671 0.00174851 0)
(0.200691 0.00174031 0)
(0.20044 0.0017166 0)
(0.200457 0.00170986 0)
(0.200191 0.00168804 0)
(0.200203 0.00168321 0)
(0.199922 0.00166391 0)
(0.199929 0.00166147 0)