/*--------------------------------*- C++ -*----------------------------------*\
| =========                 |                                                 |
| \\      /  F ield         | OpenFOAM: The Open Source CFD Toolbox           |
|  \\    /   O peration     | Version:  2.3.0                                 |
|   \\  /    A nd           | Web:      www.OpenFOAM.org                      |
|    \\/     M anipulation  |                                                 |
\*---------------------------------------------------------------------------*/
FoamFile
{
    version     2.0;
    format      ascii;
    class       volScalarField;
    location    "0.2";
    object      p;
}
// * * * * * * * * * * * * * * * * * * * * * * * * * * * * * * * * * * * * * //

dimensions      [0 2 -2 0 0 0 0];

internalField   nonuniform List<scalar> 
2889
(
0.0026699
0.00238982
0.0018009
0.00122653
0.000741175
0.000328041
-2.27423e-05
-0.000297097
-0.00047632
-0.000562239
-0.000578037
-0.000553773
-0.000513945
-0.000473646
-0.000440044
-0.000415123
-0.000398123
-0.000387214
-0.000380439
-0.000376086
-0.000372864
-0.000370027
-0.000367312
-0.000364696
-0.000362149
-0.000359545
-0.000356764
-0.000353845
-0.000350953
-0.000348188
-0.000345463
-0.000342571
-0.000339401
-0.000336047
-0.00033269
-0.000329386
-0.000326008
-0.000322333
-0.000318139
-0.000313284
-0.000307747
-0.000301572
-0.000294763
-0.000287249
-0.00027896
-0.000269836
-0.0002598
-0.000248747
-0.000236615
-0.000223462
-0.000209435
-0.000195018
-0.000180472
-0.000166278
-0.000152736
-0.000140035
-0.000128287
-0.000117462
-0.000107517
-9.84004e-05
-9.00533e-05
-8.24142e-05
-7.5419e-05
-6.90065e-05
-6.31254e-05
-5.7739e-05
-5.28239e-05
-4.8363e-05
-4.43357e-05
-4.07104e-05
-3.74418e-05
-3.44755e-05
-3.17554e-05
-2.92323e-05
-2.68692e-05
-2.46442e-05
-2.25466e-05
-2.05752e-05
-1.87312e-05
-1.70174e-05
-1.54326e-05
-1.39745e-05
-1.26357e-05
-1.14096e-05
-1.02849e-05
-9.25374e-06
-8.30468e-06
-7.43057e-06
-6.6213e-06
-5.87129e-06
-5.17109e-06
-4.51761e-06
-3.90087e-06
-3.31982e-06
-2.76456e-06
-2.23449e-06
-1.72046e-06
-1.22216e-06
-7.29618e-07
-2.43148e-07
0.00224326
0.00209677
0.00168668
0.00119332
0.000736313
0.000343163
1.3653e-05
-0.000243265
-0.000416761
-0.000507646
-0.000533053
-0.000518631
-0.000487328
-0.000453756
-0.000425145
-0.000403682
-0.000388952
-0.000379515
-0.000373732
-0.000370101
-0.000367437
-0.000365056
-0.000362733
-0.000360476
-0.000358271
-0.000355984
-0.000353482
-0.000350805
-0.000348134
-0.000345591
-0.000343085
-0.000340394
-0.000337391
-0.000334181
-0.000330964
-0.000327809
-0.000324588
-0.000321068
-0.000317019
-0.000312292
-0.000306869
-0.000300805
-0.000294106
-0.000286699
-0.000278507
-0.000269478
-0.000259541
-0.000248585
-0.000236537
-0.000223438
-0.000209523
-0.000195046
-0.000180526
-0.000166332
-0.000152785
-0.000140075
-0.000128325
-0.000117495
-0.000107546
-9.8425e-05
-9.00744e-05
-8.24328e-05
-7.54358e-05
-6.90218e-05
-6.31386e-05
-5.77496e-05
-5.28316e-05
-4.83682e-05
-4.43395e-05
-4.0714e-05
-3.74463e-05
-3.44817e-05
-3.17631e-05
-2.92411e-05
-2.68783e-05
-2.46528e-05
-2.25543e-05
-2.05817e-05
-1.87365e-05
-1.70216e-05
-1.54359e-05
-1.39772e-05
-1.26379e-05
-1.14115e-05
-1.02866e-05
-9.25531e-06
-8.30611e-06
-7.4319e-06
-6.62251e-06
-5.87242e-06
-5.17206e-06
-4.51854e-06
-3.90165e-06
-3.32053e-06
-2.76514e-06
-2.23493e-06
-1.72085e-06
-1.22245e-06
-7.29833e-07
-2.43241e-07
0.00194739
0.00185826
0.0015765
0.00116997
0.000752697
0.000384034
7.9088e-05
-0.000158746
-0.000326888
-0.000426702
-0.000468694
-0.000471119
-0.00045336
-0.00042992
-0.000408273
-0.000391184
-0.000379002
-0.000370991
-0.000366039
-0.000362966
-0.000360757
-0.000358799
-0.000356896
-0.00035506
-0.000353271
-0.000351385
-0.000349256
-0.00034691
-0.000344535
-0.000342262
-0.000340008
-0.000337548
-0.000334753
-0.00033173
-0.000328688
-0.000325705
-0.000322653
-0.000319298
-0.000315407
-0.000310825
-0.000305535
-0.0002996
-0.000293031
-0.000285753
-0.000277687
-0.000268782
-0.000258967
-0.000248127
-0.000236179
-0.000223158
-0.000209284
-0.000194861
-0.000180344
-0.000166163
-0.000152642
-0.000139948
-0.000128234
-0.000117426
-0.000107489
-9.83751e-05
-9.00285e-05
-8.239e-05
-7.53959e-05
-6.89843e-05
-6.31027e-05
-5.77144e-05
-5.27967e-05
-4.83344e-05
-4.43081e-05
-4.06868e-05
-3.74246e-05
-3.44658e-05
-3.17525e-05
-2.92343e-05
-2.68738e-05
-2.46491e-05
-2.25503e-05
-2.05769e-05
-1.87309e-05
-1.70154e-05
-1.54294e-05
-1.39709e-05
-1.26319e-05
-1.14061e-05
-1.02817e-05
-9.25104e-06
-8.30243e-06
-7.42879e-06
-6.61989e-06
-5.87032e-06
-5.17031e-06
-4.51728e-06
-3.90064e-06
-3.31995e-06
-2.76481e-06
-2.23486e-06
-1.72095e-06
-1.22295e-06
-7.30191e-07
-2.44026e-07
0.00174423
0.00167045
0.00146434
0.00113654
0.000768819
0.000429761
0.0001474
-7.36246e-05
-0.000234926
-0.00033953
-0.00039461
-0.000412812
-0.000409258
-0.000396721
-0.000382879
-0.000371203
-0.00036271
-0.000357197
-0.000353945
-0.000352084
-0.000350833
-0.0003497
-0.000348529
-0.000347334
-0.000346104
-0.000344721
-0.000343061
-0.000341157
-0.000339173
-0.000337228
-0.000335249
-0.000333041
-0.000330491
-0.000327703
-0.000324875
-0.000322081
-0.000319202
-0.000316016
-0.000312296
-0.000307884
-0.000302754
-0.000296972
-0.000290557
-0.000283443
-0.000275552
-0.000266833
-0.000257217
-0.000246582
-0.000234836
-0.000222006
-0.000208293
-0.000194018
-0.000179651
-0.000165611
-0.000152196
-0.000139648
-0.000127985
-0.000117235
-0.00010734
-9.82512e-05
-8.99202e-05
-8.22917e-05
-7.53046e-05
-6.88982e-05
-6.30205e-05
-5.76353e-05
-5.27208e-05
-4.8263e-05
-4.42434e-05
-4.06309e-05
-3.73785e-05
-3.44293e-05
-3.1724e-05
-2.92119e-05
-2.68552e-05
-2.46327e-05
-2.25346e-05
-2.05614e-05
-1.87152e-05
-1.69998e-05
-1.54142e-05
-1.39564e-05
-1.26184e-05
-1.13939e-05
-1.02707e-05
-9.24145e-06
-8.29409e-06
-7.42166e-06
-6.61386e-06
-5.86537e-06
-5.16623e-06
-4.51422e-06
-3.89832e-06
-3.31861e-06
-2.76419e-06
-2.23581e-06
-1.7215e-06
-1.22441e-06
-7.3147e-07
-2.46064e-07
0.00158292
0.00151267
0.00134991
0.00108645
0.00077177
0.000466805
0.000206544
2.96258e-07
-0.000153757
-0.000259727
-0.000323347
-0.000353682
-0.0003622
-0.000359551
-0.000353099
-0.000346786
-0.00034218
-0.000339484
-0.000338265
-0.000337909
-0.000337855
-0.000337736
-0.000337426
-0.00033696
-0.000336369
-0.000335573
-0.000334466
-0.000333076
-0.000331552
-0.000329988
-0.000328318
-0.000326387
-0.000324121
-0.000321619
-0.000319046
-0.000316455
-0.000313734
-0.000310692
-0.000307132
-0.000302907
-0.000297975
-0.000292376
-0.000286133
-0.000279202
-0.000271518
-0.000263035
-0.000253689
-0.000243367
-0.000231961
-0.00021948
-0.000206103
-0.000192158
-0.000178092
-0.000164321
-0.000151159
-0.000138828
-0.000127368
-0.00011677
-0.000106983
-9.79674e-05
-8.9684e-05
-8.20865e-05
-7.51203e-05
-6.87285e-05
-6.2861e-05
-5.74831e-05
-5.25747e-05
-4.81236e-05
-4.41127e-05
-4.05118e-05
-3.72734e-05
-3.43393e-05
-3.16486e-05
-2.91494e-05
-2.68029e-05
-2.45879e-05
-2.2495e-05
-2.05253e-05
-1.86817e-05
-1.69684e-05
-1.53847e-05
-1.3929e-05
-1.25932e-05
-1.1371e-05
-1.02501e-05
-9.22316e-06
-8.27803e-06
-7.4077e-06
-6.60188e-06
-5.85527e-06
-5.15782e-06
-4.50754e-06
-3.89308e-06
-3.315e-06
-2.76183e-06
-2.2349e-06
-1.7216e-06
-1.22622e-06
-7.33358e-07
-2.49387e-07
0.0014447
0.00137622
0.00124023
0.00102606
0.000761597
0.000493025
0.000255369
6.27132e-05
-8.42568e-05
-0.00018945
-0.000258148
-0.000297357
-0.000315706
-0.000321749
-0.000322115
-0.000320888
-0.000320034
-0.000320111
-0.000320945
-0.00032213
-0.000323289
-0.000324177
-0.000324713
-0.000324961
-0.000325002
-0.000324783
-0.000324196
-0.000323275
-0.00032218
-0.000320991
-0.000319632
-0.000317978
-0.000315992
-0.00031376
-0.000311415
-0.000308995
-0.000306402
-0.00030347
-0.000300043
-0.000295996
-0.000291263
-0.00028585
-0.00027978
-0.00027304
-0.000265581
-0.000257361
-0.000248327
-0.000238382
-0.000227424
-0.000215438
-0.000202572
-0.00018913
-0.00017553
-0.000162185
-0.000149418
-0.000137427
-0.000126256
-0.000115889
-0.000106282
-9.74029e-05
-8.92189e-05
-8.16931e-05
-7.47788e-05
-6.84252e-05
-6.25859e-05
-5.72283e-05
-5.23344e-05
-4.78942e-05
-4.38934e-05
-4.03035e-05
-3.70786e-05
-3.41604e-05
-3.14874e-05
-2.90063e-05
-2.66772e-05
-2.44779e-05
-2.23986e-05
-2.04402e-05
-1.8606e-05
-1.69005e-05
-1.53235e-05
-1.38737e-05
-1.25432e-05
-1.13259e-05
-1.02097e-05
-9.18704e-06
-8.24602e-06
-7.37954e-06
-6.57731e-06
-5.83414e-06
-5.13977e-06
-4.49257e-06
-3.88077e-06
-3.30551e-06
-2.75459e-06
-2.23031e-06
-1.71893e-06
-1.2263e-06
-7.34348e-07
-2.53026e-07
0.00132306
0.00125696
0.00113989
0.000963091
0.000742059
0.000509092
0.000294704
0.000115587
-2.43686e-05
-0.000127712
-0.000199202
-0.000244671
-0.00027079
-0.000284304
-0.000290893
-0.000294466
-0.000297187
-0.000299924
-0.000302768
-0.000305494
-0.000307868
-0.000309762
-0.000311152
-0.000312122
-0.000312785
-0.000313119
-0.000313021
-0.000312531
-0.000311828
-0.00031099
-0.000309922
-0.00030852
-0.00030678
-0.000304785
-0.000302634
-0.000300356
-0.000297859
-0.000294996
-0.000291653
-0.000287748
-0.000283199
-0.000277968
-0.000272076
-0.000265536
-0.000258307
-0.000250342
-0.000241608
-0.000232046
-0.000221572
-0.000210154
-0.000197908
-0.000185101
-0.000172109
-0.000159319
-0.000147038
-0.000135457
-0.000124632
-0.000114554
-0.000105187
-9.65e-05
-8.84668e-05
-8.10577e-05
-7.42342e-05
-6.79519e-05
-6.21688e-05
-5.68546e-05
-5.19927e-05
-4.75745e-05
-4.3588e-05
-4.0008e-05
-3.67918e-05
-3.3884e-05
-3.12246e-05
-2.87609e-05
-2.64522e-05
-2.42748e-05
-2.22174e-05
-2.02798e-05
-1.84642e-05
-1.67753e-05
-1.52124e-05
-1.37749e-05
-1.2455e-05
-1.12471e-05
-1.01393e-05
-9.12428e-06
-8.19024e-06
-7.33025e-06
-6.5339e-06
-5.7964e-06
-5.10704e-06
-4.4648e-06
-3.85733e-06
-3.2865e-06
-2.73925e-06
-2.2191e-06
-1.71083e-06
-1.22224e-06
-7.32523e-07
-2.55377e-07
0.00121509
0.00115214
0.00104995
0.000901731
0.000716441
0.000516031
0.000324908
0.000159845
2.72372e-05
-7.35705e-05
-0.000146358
-0.000196062
-0.000228093
-0.000247819
-0.000259936
-0.000267938
-0.000274011
-0.000279261
-0.000284038
-0.000288292
-0.000291899
-0.000294816
-0.000297074
-0.000298778
-0.000300062
-0.000300944
-0.000301335
-0.000301269
-0.000300938
-0.000300431
-0.000299643
-0.000298475
-0.000296957
-0.000295177
-0.000293205
-0.000291054
-0.00028864
-0.000285828
-0.000282547
-0.000278761
-0.000274381
-0.000269327
-0.000263615
-0.000257283
-0.000250293
-0.000242586
-0.000234148
-0.000224957
-0.000214946
-0.00020409
-0.000192491
-0.00018038
-0.000168075
-0.00015591
-0.000144169
-0.000133042
-0.0001226
-0.000112843
-0.000103745
-9.52838e-05
-8.74367e-05
-8.01795e-05
-7.34801e-05
-6.73005e-05
-6.16032e-05
-5.63599e-05
-5.15537e-05
-4.71759e-05
-4.32147e-05
-3.96478e-05
-3.64368e-05
-3.35316e-05
-3.08769e-05
-2.84231e-05
-2.61306e-05
-2.3975e-05
-2.19432e-05
-2.00329e-05
-1.82442e-05
-1.65803e-05
-1.504e-05
-1.36223e-05
-1.23197e-05
-1.11269e-05
-1.00324e-05
-9.02919e-06
-8.10575e-06
-7.25553e-06
-6.46789e-06
-5.73869e-06
-5.05666e-06
-4.42155e-06
-3.82034e-06
-3.25578e-06
-2.71385e-06
-2.19944e-06
-1.69573e-06
-1.21259e-06
-7.26736e-07
-2.55349e-07
0.00111875
0.00105944
0.000969574
0.000843589
0.000687119
0.00051517
0.000346366
0.000195805
7.11512e-05
-2.64442e-05
-9.943e-05
-0.000151813
-0.000188147
-0.000212834
-0.000229663
-0.000241611
-0.000250767
-0.000258369
-0.000264979
-0.000270724
-0.000275569
-0.00027951
-0.000282624
-0.000285063
-0.000286983
-0.000288423
-0.000289304
-0.000289656
-0.000289681
-0.000289495
-0.000288989
-0.00028806
-0.000286755
-0.000285173
-0.000283368
-0.000281346
-0.00027902
-0.000276267
-0.000273053
-0.000269385
-0.000265166
-0.000260281
-0.000254751
-0.000248638
-0.000241902
-0.000234468
-0.000226334
-0.000217504
-0.000207938
-0.000197621
-0.000186652
-0.000175232
-0.000163623
-0.000152106
-0.00014094
-0.0001303
-0.000120263
-0.000110844
-0.000102034
-9.38166e-05
-8.61763e-05
-7.9093e-05
-7.25401e-05
-6.64858e-05
-6.08973e-05
-5.57482e-05
-5.10208e-05
-4.67038e-05
-4.27841e-05
-3.924e-05
-3.60369e-05
-3.31311e-05
-3.04739e-05
-2.80215e-05
-2.57377e-05
-2.35992e-05
-2.15917e-05
-1.97103e-05
-1.79526e-05
-1.63196e-05
-1.48082e-05
-1.34168e-05
-1.21375e-05
-1.09653e-05
-9.88889e-06
-8.90184e-06
-7.99267e-06
-7.15553e-06
-6.37946e-06
-5.66118e-06
-4.98881e-06
-4.36295e-06
-3.76996e-06
-3.21343e-06
-2.6785e-06
-2.17133e-06
-1.67371e-06
-1.19732e-06
-7.17102e-07
-2.5297e-07
0.0010323
0.000976801
0.000897322
0.000789066
0.000655796
0.000508085
0.000359877
0.000223828
0.000107766
1.41646e-05
-5.80796e-05
-0.000111951
-0.000151264
-0.000179725
-0.000200397
-0.000215745
-0.00022768
-0.00023746
-0.000245779
-0.000252938
-0.000258989
-0.000263933
-0.000267884
-0.000271055
-0.000273624
-0.000275623
-0.000276977
-0.000277735
-0.000278119
-0.000278256
-0.000278036
-0.000277349
-0.000276256
-0.00027486
-0.000273218
-0.000271335
-0.000269117
-0.000266438
-0.000263302
-0.000259759
-0.000255703
-0.00025099
-0.000245649
-0.000239767
-0.000233297
-0.000226145
-0.000218321
-0.00020986
-0.000200735
-0.00019094
-0.00018057
-0.00016981
-0.000158879
-0.00014801
-0.000137426
-0.000127286
-0.00011767
-0.000108607
-0.000100099
-9.21411e-05
-8.47227e-05
-7.78283e-05
-7.14371e-05
-6.55237e-05
-6.00601e-05
-5.50223e-05
-5.03914e-05
-4.61532e-05
-4.22913e-05
-3.87832e-05
-3.55969e-05
-3.26942e-05
-3.0034e-05
-2.75793e-05
-2.52994e-05
-2.31735e-05
-2.1187e-05
-1.93335e-05
-1.76076e-05
-1.60077e-05
-1.45287e-05
-1.31676e-05
-1.1916e-05
-1.07684e-05
-9.71404e-06
-8.74662e-06
-7.85486e-06
-7.03361e-06
-6.27163e-06
-5.56651e-06
-4.90586e-06
-4.29107e-06
-3.70804e-06
-3.16106e-06
-2.63465e-06
-2.13601e-06
-1.64594e-06
-1.17744e-06
-7.04556e-07
-2.48932e-07
0.000954165
0.000902467
0.000831846
0.000738051
0.000623627
0.000496309
0.000366556
0.000244545
0.00013753
4.87137e-05
-2.19294e-05
-7.63521e-05
-0.000117572
-0.00014874
-0.000172408
-0.000190594
-0.000204961
-0.000216706
-0.00022659
-0.000235055
-0.000242245
-0.000248164
-0.000252934
-0.000256814
-0.000260017
-0.000262565
-0.000264379
-0.000265532
-0.000266284
-0.000266753
-0.00026681
-0.000266358
-0.000265477
-0.000264271
-0.000262794
-0.000261062
-0.000258968
-0.000256376
-0.00025333
-0.000249925
-0.000246046
-0.000241513
-0.000236369
-0.000230726
-0.000224526
-0.000217664
-0.000210163
-0.000202081
-0.000193398
-0.00018411
-0.000174317
-0.000164191
-0.000153912
-0.000143672
-0.00013366
-0.000124022
-0.000114839
-0.000106146
-9.7956e-05
-9.02726e-05
-8.30901e-05
-7.6398e-05
-7.01815e-05
-6.44214e-05
-5.90952e-05
-5.41813e-05
-4.96602e-05
-4.55144e-05
-4.17241e-05
-3.82653e-05
-3.51073e-05
-3.22167e-05
-2.95591e-05
-2.7105e-05
-2.48292e-05
-2.27145e-05
-2.07474e-05
-1.89204e-05
-1.72257e-05
-1.56594e-05
-1.42142e-05
-1.28855e-05
-1.16639e-05
-1.05437e-05
-9.51395e-06
-8.56873e-06
-7.69677e-06
-6.8936e-06
-6.14776e-06
-5.45759e-06
-4.81042e-06
-4.20817e-06
-3.63661e-06
-3.10045e-06
-2.58392e-06
-2.09489e-06
-1.61371e-06
-1.15409e-06
-6.90042e-07
-2.43906e-07
0.000883019
0.000835015
0.000772026
0.000690242
0.000591335
0.000481135
0.000367619
0.000258797
0.000160971
7.7572e-05
9.30891e-06
-4.48558e-05
-8.70916e-05
-0.000120048
-0.000145946
-0.000166405
-0.000182799
-0.000196263
-0.000207573
-0.000217225
-0.000225448
-0.000232288
-0.000237845
-0.000242389
-0.000246188
-0.000249284
-0.000251557
-0.000253084
-0.000254187
-0.000254995
-0.000255329
-0.000255099
-0.000254433
-0.000253428
-0.000252117
-0.000250534
-0.000248577
-0.000246093
-0.000243153
-0.000239902
-0.00023621
-0.000231865
-0.000226922
-0.000221522
-0.000215601
-0.000209042
-0.000201875
-0.000194176
-0.000185935
-0.000177148
-0.000167918
-0.000158401
-0.000148745
-0.000139108
-0.000129655
-0.000120518
-0.000111775
-0.000103464
-9.56066e-05
-8.82114e-05
-8.12783e-05
-7.48019e-05
-6.87728e-05
-6.31782e-05
-5.80007e-05
-5.32213e-05
-4.88203e-05
-4.47778e-05
-4.10707e-05
-3.76733e-05
-3.45557e-05
-3.16884e-05
-2.90429e-05
-2.65963e-05
-2.43292e-05
-2.22282e-05
-2.02813e-05
-1.84805e-05
-1.68168e-05
-1.52841e-05
-1.38731e-05
-1.25777e-05
-1.13875e-05
-1.02963e-05
-9.29295e-06
-8.37175e-06
-7.52144e-06
-6.73806e-06
-6.01006e-06
-5.33632e-06
-4.70414e-06
-4.11572e-06
-3.55696e-06
-3.03274e-06
-2.52732e-06
-2.0489e-06
-1.57782e-06
-1.12803e-06
-6.74106e-07
-2.38271e-07
0.000817773
0.000773316
0.000716965
0.00064529
0.00055934
0.000463566
0.000364182
0.000267467
0.000178651
0.000101064
3.58713e-05
-1.72773e-05
-5.97808e-05
-9.37728e-05
-0.000121212
-0.000143391
-0.000161402
-0.000176313
-0.000188889
-0.000199592
-0.000208716
-0.000216386
-0.000222681
-0.00022784
-0.000232193
-0.000235828
-0.000238556
-0.000240418
-0.000241834
-0.000242989
-0.00024362
-0.000243601
-0.000243132
-0.000242331
-0.000241195
-0.000239764
-0.000237955
-0.000235599
-0.000232782
-0.00022969
-0.000226191
-0.000222043
-0.00021731
-0.00021216
-0.00020653
-0.000200281
-0.000193453
-0.000186142
-0.000178345
-0.000170057
-0.000161373
-0.000152437
-0.000143378
-0.000134324
-0.000125419
-0.00011678
-0.000108481
-0.000100561
-9.30472e-05
-8.59528e-05
-7.92821e-05
-7.30344e-05
-6.72057e-05
-6.17887e-05
-5.67709e-05
-5.21361e-05
-4.78648e-05
-4.39352e-05
-4.03217e-05
-3.69968e-05
-3.39316e-05
-3.10996e-05
-2.84774e-05
-2.60477e-05
-2.37963e-05
-2.17137e-05
-1.97896e-05
-1.80165e-05
-1.63843e-05
-1.48854e-05
-1.35089e-05
-1.22474e-05
-1.10895e-05
-1.00285e-05
-9.05297e-06
-8.15727e-06
-7.33017e-06
-6.56805e-06
-5.8594e-06
-5.20344e-06
-4.58764e-06
-4.01427e-06
-3.46956e-06
-2.95837e-06
-2.46524e-06
-1.99843e-06
-1.53861e-06
-1.09962e-06
-6.56918e-07
-2.32168e-07
0.000757529
0.00071645
0.000665924
0.000602854
0.00052785
0.000444317
0.000357167
0.000271373
0.000191164
0.00011957
5.80063e-05
6.55318e-06
-3.55961e-05
-7.00089e-05
-9.83579e-05
-0.000121733
-0.000140979
-0.000157044
-0.000170664
-0.000182263
-0.000192161
-0.000200556
-0.000207523
-0.000213249
-0.000218098
-0.000222226
-0.000225394
-0.000227571
-0.000229261
-0.000230755
-0.000231705
-0.000231892
-0.000231586
-0.000230981
-0.00023004
-0.00022877
-0.00022711
-0.000224894
-0.000222212
-0.000219284
-0.000215986
-0.000212052
-0.00020754
-0.000202645
-0.000197307
-0.000191376
-0.000184895
-0.000177976
-0.000170624
-0.000162825
-0.00015467
-0.000146297
-0.000137814
-0.000129326
-0.000120955
-0.000112809
-0.000104955
-9.74338e-05
-9.02731e-05
-8.34907e-05
-7.70948e-05
-7.10886e-05
-6.5473e-05
-6.02459e-05
-5.53991e-05
-5.09193e-05
-4.67872e-05
-4.29798e-05
-3.94697e-05
-3.62283e-05
-3.32271e-05
-3.04424e-05
-2.7855e-05
-2.54524e-05
-2.32251e-05
-2.11669e-05
-1.92698e-05
-1.75269e-05
-1.59276e-05
-1.44633e-05
-1.3122e-05
-1.18951e-05
-1.07704e-05
-9.74074e-06
-8.79429e-06
-7.92547e-06
-7.12304e-06
-6.3836e-06
-5.69577e-06
-5.05892e-06
-4.46087e-06
-3.90376e-06
-3.37435e-06
-2.87733e-06
-2.39765e-06
-1.94349e-06
-1.49607e-06
-1.06889e-06
-6.38446e-07
-2.25621e-07
0.000701537
0.00066366
0.000618287
0.000562605
0.00049693
0.000423867
0.000347306
0.000271259
0.000199129
0.00013353
7.59587e-05
2.67537e-05
-1.44877e-05
-4.87825e-05
-7.74791e-05
-0.000101571
-0.000121697
-0.000138601
-0.000153012
-0.000165361
-0.000175918
-0.000184903
-0.00019244
-0.000198677
-0.000203961
-0.000208514
-0.000212104
-0.000214601
-0.000216526
-0.000218305
-0.00021958
-0.000219992
-0.000219822
-0.000219389
-0.000218659
-0.000217566
-0.000216047
-0.000213978
-0.000211451
-0.000208692
-0.000205599
-0.000201893
-0.000197613
-0.000192969
-0.000187925
-0.000182325
-0.000176199
-0.000169671
-0.000162757
-0.000155442
-0.000147806
-0.000139977
-0.000132051
-0.000124112
-0.000116263
-0.000108603
-0.000101196
-9.40787e-05
-8.728e-05
-8.08201e-05
-7.47105e-05
-6.89582e-05
-6.35681e-05
-5.85429e-05
-5.38784e-05
-4.95638e-05
-4.55807e-05
-4.19051e-05
-3.85083e-05
-3.5361e-05
-3.24353e-05
-2.97097e-05
-2.71686e-05
-2.48038e-05
-2.26095e-05
-2.05828e-05
-1.87178e-05
-1.70083e-05
-1.54442e-05
-1.4016e-05
-1.2711e-05
-1.15198e-05
-1.04295e-05
-9.43231e-06
-8.51633e-06
-7.67581e-06
-6.89955e-06
-6.18423e-06
-5.51871e-06
-4.90236e-06
-4.32343e-06
-3.78389e-06
-3.27104e-06
-2.78937e-06
-2.32434e-06
-1.88394e-06
-1.45007e-06
-1.03575e-06
-6.18594e-07
-2.18607e-07
0.000649155
0.000614304
0.000573522
0.000524243
0.000466576
0.000402529
0.000335172
0.00026778
0.00020313
0.00014338
8.99762e-05
4.34473e-05
3.63978e-06
-3.00537e-05
-5.86408e-05
-8.30246e-05
-0.000103676
-0.000121108
-0.00013606
-0.00014901
-0.000160098
-0.000169514
-0.000177492
-0.000184175
-0.000189842
-0.000194768
-0.000198749
-0.000201552
-0.00020366
-0.000205646
-0.000207235
-0.000207925
-0.000207891
-0.000207573
-0.000207041
-0.000206155
-0.000204788
-0.000202859
-0.000200497
-0.000197918
-0.00019503
-0.000191559
-0.000187522
-0.000183132
-0.000178385
-0.000173124
-0.000167359
-0.000161218
-0.000154738
-0.000147903
-0.000140775
-0.000133473
-0.000126085
-0.000118679
-0.000111342
-0.000104163
-9.72018e-05
-9.04934e-05
-8.4064e-05
-7.79358e-05
-7.21232e-05
-6.66362e-05
-6.14837e-05
-5.66722e-05
-5.22014e-05
-4.80628e-05
-4.42386e-05
-4.07046e-05
-3.74312e-05
-3.43886e-05
-3.15497e-05
-2.8895e-05
-2.64118e-05
-2.40953e-05
-2.19434e-05
-1.99557e-05
-1.81285e-05
-1.64568e-05
-1.49308e-05
-1.35409e-05
-1.2274e-05
-1.11199e-05
-1.00654e-05
-9.10215e-06
-8.21815e-06
-7.40745e-06
-6.65893e-06
-5.96927e-06
-5.3276e-06
-4.7332e-06
-4.17481e-06
-3.6542e-06
-3.15923e-06
-2.69416e-06
-2.24503e-06
-1.81955e-06
-1.40042e-06
-1.00006e-06
-5.97256e-07
-2.11091e-07
0.000599816
0.000567832
0.000531174
0.000487511
0.000436768
0.000380518
0.000321205
0.000261487
0.000203672
0.000149528
0.000100352
5.68094e-05
1.88954e-05
-1.37855e-05
-4.18988e-05
-6.61718e-05
-8.69931e-05
-0.000104684
-0.000119933
-0.000133283
-0.000144762
-0.000154486
-0.000162791
-0.000169829
-0.000175798
-0.000181023
-0.000185351
-0.000188441
-0.000190701
-0.000192831
-0.000194697
-0.000195702
-0.000195831
-0.000195565
-0.000195173
-0.000194528
-0.00019336
-0.000191559
-0.000189339
-0.000186953
-0.000184288
-0.000181054
-0.000177261
-0.000173135
-0.000168688
-0.000163766
-0.000158362
-0.000152612
-0.000146566
-0.000140202
-0.000133568
-0.000126777
-0.000119912
-0.000113026
-0.000106191
-9.94877e-05
-9.2972e-05
-8.6675e-05
-8.06207e-05
-7.48322e-05
-6.93263e-05
-6.41158e-05
-5.92125e-05
-5.46267e-05
-5.0361e-05
-4.64092e-05
-4.27542e-05
-3.93719e-05
-3.6232e-05
-3.33048e-05
-3.0564e-05
-2.79916e-05
-2.55777e-05
-2.33204e-05
-2.12203e-05
-1.92797e-05
-1.74968e-05
-1.58679e-05
-1.43838e-05
-1.30351e-05
-1.18084e-05
-1.06934e-05
-9.6765e-06
-8.74896e-06
-7.89864e-06
-7.11943e-06
-6.40035e-06
-5.73797e-06
-5.12175e-06
-4.55084e-06
-4.01449e-06
-3.51423e-06
-3.03851e-06
-2.59135e-06
-2.15943e-06
-1.75009e-06
-1.34691e-06
-9.61672e-07
-5.74329e-07
-2.03029e-07
0.000552981
0.000523748
0.000490859
0.000452196
0.000407504
0.000358012
0.000305732
0.000252819
0.000201206
0.000152375
0.00010741
6.70277e-05
3.13459e-05
5.06386e-08
-2.72508e-05
-5.10427e-05
-7.17092e-05
-8.94419e-05
-0.000104745
-0.000118237
-0.000129975
-0.000139925
-0.000148432
-0.000155702
-0.000161868
-0.000167303
-0.000171939
-0.000175315
-0.00017771
-0.000179923
-0.000181989
-0.000183294
-0.000183637
-0.000183417
-0.000183076
-0.000182655
-0.000181768
-0.000180119
-0.00017798
-0.00017577
-0.000173376
-0.000170397
-0.000166827
-0.000162958
-0.000158831
-0.000154253
-0.000149205
-0.000143844
-0.000138233
-0.000132332
-0.000126178
-0.000119885
-0.000113532
-0.000107155
-0.000100811
-9.45765e-05
-8.85045e-05
-8.26209e-05
-7.69467e-05
-7.15051e-05
-6.63152e-05
-6.13917e-05
-5.67489e-05
-5.24e-05
-4.83507e-05
-4.45963e-05
-4.1121e-05
-3.79003e-05
-3.49043e-05
-3.21031e-05
-2.94714e-05
-2.69929e-05
-2.46597e-05
-2.24723e-05
-2.04339e-05
-1.8549e-05
-1.68174e-05
-1.5237e-05
-1.37992e-05
-1.24952e-05
-1.13118e-05
-1.02383e-05
-9.26115e-06
-8.3713e-06
-7.5566e-06
-6.81075e-06
-6.12292e-06
-5.48955e-06
-4.90049e-06
-4.35468e-06
-3.84192e-06
-3.3635e-06
-2.90847e-06
-2.4806e-06
-2.06722e-06
-1.6753e-06
-1.28933e-06
-9.20435e-07
-5.4972e-07
-1.94371e-07
0.000508112
0.00048156
0.000452234
0.000418116
0.000378778
0.000335169
0.000289021
0.000242151
0.000196156
0.000152298
0.000111462
7.42965e-05
4.10555e-05
1.15049e-05
-1.46449e-05
-3.76731e-05
-5.79143e-05
-7.54729e-05
-9.05973e-05
-0.000103956
-0.000115797
-0.000125907
-0.00013447
-0.000141822
-0.000148113
-0.000153682
-0.000158576
-0.000162235
-0.000164712
-0.000166909
-0.000169108
-0.000170702
-0.000171312
-0.000171182
-0.000170812
-0.000170516
-0.000169969
-0.000168571
-0.000166463
-0.000164347
-0.000162263
-0.000159602
-0.000156228
-0.000152584
-0.000148801
-0.000144592
-0.000139883
-0.000134895
-0.000129723
-0.000124287
-0.000118597
-0.000112787
-0.000106937
-0.00010106
-9.51981e-05
-8.94263e-05
-8.37972e-05
-7.83295e-05
-7.30394e-05
-6.79512e-05
-6.30856e-05
-5.84589e-05
-5.40871e-05
-4.99862e-05
-4.61643e-05
-4.26182e-05
-3.93328e-05
-3.62841e-05
-3.34421e-05
-3.07776e-05
-2.8266e-05
-2.58926e-05
-2.36513e-05
-2.15447e-05
-1.9578e-05
-1.77576e-05
-1.60851e-05
-1.45594e-05
-1.31732e-05
-1.19181e-05
-1.07815e-05
-9.75243e-06
-8.81761e-06
-7.96778e-06
-7.19087e-06
-6.4804e-06
-5.82578e-06
-5.22328e-06
-4.66314e-06
-4.14413e-06
-3.6566e-06
-3.20156e-06
-2.76874e-06
-2.36156e-06
-1.96814e-06
-1.59495e-06
-1.22752e-06
-8.76198e-07
-5.23365e-07
-1.85089e-07
0.000464685
0.000440796
0.000414977
0.000385076
0.00035053
0.000312098
0.000271322
0.000229831
0.000188937
0.00014968
0.000112811
7.88642e-05
4.81743e-05
2.06338e-05
-4.07741e-06
-2.61277e-05
-4.56723e-05
-6.27843e-05
-7.75577e-05
-9.05761e-05
-0.000102303
-0.000112473
-0.000120998
-0.000128301
-0.00013463
-0.000140227
-0.000145254
-0.00014918
-0.000151749
-0.000153849
-0.000156103
-0.00015796
-0.000158846
-0.000158856
-0.000158444
-0.000158145
-0.000157898
-0.000156874
-0.000154845
-0.000152717
-0.000150907
-0.000148645
-0.000145495
-0.000142021
-0.00013857
-0.000134766
-0.0001304
-0.000125759
-0.000121022
-0.000116057
-0.000110824
-0.000105477
-0.000100118
-9.47363e-05
-8.93486e-05
-8.40328e-05
-7.88444e-05
-7.37947e-05
-6.8893e-05
-6.41639e-05
-5.96307e-05
-5.53106e-05
-5.12207e-05
-4.73787e-05
-4.37951e-05
-4.04681e-05
-3.73831e-05
-3.45166e-05
-3.1839e-05
-2.93218e-05
-2.69413e-05
-2.46843e-05
-2.25462e-05
-2.05313e-05
-1.86466e-05
-1.68998e-05
-1.52944e-05
-1.38304e-05
-1.25017e-05
-1.13004e-05
-1.02145e-05
-9.23343e-06
-8.34398e-06
-7.53686e-06
-6.8002e-06
-6.12736e-06
-5.50806e-06
-4.9384e-06
-4.40909e-06
-3.91865e-06
-3.45804e-06
-3.028e-06
-2.61894e-06
-2.23392e-06
-1.86194e-06
-1.50883e-06
-1.16133e-06
-8.28802e-07
-4.95212e-07
-1.75207e-07
0.000414458
0.000393749
0.00037197
0.000346691
0.000317287
0.000284386
0.000249335
0.000213593
0.000178238
0.000144049
0.000111655
8.14811e-05
5.38676e-05
2.88539e-05
6.10158e-06
-1.45248e-05
-3.29435e-05
-4.9211e-05
-6.34156e-05
-7.59112e-05
-8.72258e-05
-9.72414e-05
-0.00010564
-0.000112764
-0.000119002
-0.000124508
-0.000129509
-0.000133672
-0.000136439
-0.000138431
-0.000140606
-0.000142655
-0.000143819
-0.000144024
-0.000143645
-0.000143291
-0.000143244
-0.000142691
-0.000140914
-0.00013875
-0.000137122
-0.000135351
-0.000132574
-0.000129286
-0.000126157
-0.000122849
-0.000118937
-0.000114696
-0.000110441
-0.000106038
-0.000101353
-9.65386e-05
-9.17423e-05
-8.6941e-05
-8.21135e-05
-7.73316e-05
-7.2661e-05
-6.81086e-05
-6.36732e-05
-5.93774e-05
-5.5248e-05
-5.13036e-05
-4.75612e-05
-4.40401e-05
-4.07529e-05
-3.76991e-05
-3.48648e-05
-3.2227e-05
-2.97571e-05
-2.74273e-05
-2.52157e-05
-2.31103e-05
-2.11084e-05
-1.92159e-05
-1.74413e-05
-1.5794e-05
-1.42788e-05
-1.28973e-05
-1.16446e-05
-1.05137e-05
-9.49372e-06
-8.57427e-06
-7.74279e-06
-6.98996e-06
-6.30435e-06
-5.67913e-06
-5.10453e-06
-4.5764e-06
-4.08611e-06
-3.63185e-06
-3.2054e-06
-2.80704e-06
-2.42823e-06
-2.07134e-06
-1.72669e-06
-1.39911e-06
-1.07705e-06
-7.68407e-07
-4.59344e-07
-1.62427e-07
0.000358455
0.000340811
0.000322749
0.000302005
0.000277853
0.000250734
0.000221717
0.000192013
0.000162533
0.000133849
0.000106409
8.05627e-05
5.65946e-05
3.4643e-05
1.45072e-05
-3.98417e-06
-2.07286e-05
-3.56992e-05
-4.89332e-05
-6.05528e-05
-7.10012e-05
-8.04362e-05
-8.85073e-05
-9.52711e-05
-0.000101184
-0.000106469
-0.000111276
-0.000115444
-0.000118386
-0.000120318
-0.000122262
-0.000124326
-0.00012572
-0.000126148
-0.000125923
-0.000125576
-0.000125545
-0.00012535
-0.000124058
-0.000122035
-0.00012044
-0.00011908
-0.000116884
-0.00011394
-0.000111093
-0.0001083
-0.000104997
-0.000101266
-9.75234e-05
-9.37492e-05
-8.97305e-05
-8.5544e-05
-8.13772e-05
-7.72388e-05
-7.30719e-05
-6.89184e-05
-6.48521e-05
-6.08869e-05
-5.70111e-05
-5.3239e-05
-4.95997e-05
-4.61153e-05
-4.28029e-05
-3.96817e-05
-3.67655e-05
-3.40555e-05
-3.15386e-05
-2.91922e-05
-2.6989e-05
-2.49027e-05
-2.29128e-05
-2.10092e-05
-1.91908e-05
-1.7465e-05
-1.58416e-05
-1.43314e-05
-1.29408e-05
-1.16727e-05
-1.05237e-05
-9.48835e-06
-8.55661e-06
-7.71905e-06
-6.96389e-06
-6.28209e-06
-5.66286e-06
-5.09941e-06
-4.58257e-06
-4.10811e-06
-3.66811e-06
-3.26058e-06
-2.87815e-06
-2.52081e-06
-2.181e-06
-1.86064e-06
-1.55127e-06
-1.25696e-06
-9.67709e-07
-6.90276e-07
-4.1273e-07
-1.45938e-07
0.000301786
0.0002869
0.000271769
0.000254807
0.000235369
0.000213661
0.000190398
0.000166475
0.000142645
0.000119336
9.68319e-05
7.54239e-05
5.53373e-05
3.67198e-05
1.95478e-05
3.65276e-06
-1.09833e-05
-2.42318e-05
-3.60016e-05
-4.63363e-05
-5.55848e-05
-6.40607e-05
-7.15408e-05
-7.7813e-05
-8.31931e-05
-8.8018e-05
-9.23974e-05
-9.62586e-05
-9.91991e-05
-0.000101148
-0.00010286
-0.000104745
-0.000106226
-0.000106842
-0.000106803
-0.000106529
-0.000106417
-0.000106364
-0.000105606
-0.000103979
-0.00010241
-0.000101252
-9.96585e-05
-9.72476e-05
-9.46967e-05
-9.23266e-05
-8.96713e-05
-8.65524e-05
-8.33348e-05
-8.01677e-05
-7.68538e-05
-7.33525e-05
-6.98362e-05
-6.63729e-05
-6.29014e-05
-5.94184e-05
-5.59898e-05
-5.2645e-05
-4.93705e-05
-4.61684e-05
-4.30656e-05
-4.00881e-05
-3.72537e-05
-3.458e-05
-3.20806e-05
-2.97579e-05
-2.75996e-05
-2.55843e-05
-2.36859e-05
-2.18804e-05
-2.01494e-05
-1.84845e-05
-1.68863e-05
-1.53629e-05
-1.39253e-05
-1.25849e-05
-1.13491e-05
-1.02218e-05
-9.20141e-06
-8.28335e-06
-7.45918e-06
-6.72043e-06
-6.05646e-06