/*--------------------------------*- C++ -*----------------------------------*\
| =========                 |                                                 |
| \\      /  F ield         | OpenFOAM: The Open Source CFD Toolbox           |
|  \\    /   O peration     | Version:  2.3.0                                 |
|   \\  /    A nd           | Web:      www.OpenFOAM.org                      |
|    \\/     M anipulation  |                                                 |
\*---------------------------------------------------------------------------*/
FoamFile
{
    version     2.0;
    format      ascii;
    class       surfaceScalarField;
    location    "0.2";
    object      phi;
}
// * * * * * * * * * * * * * * * * * * * * * * * * * * * * * * * * * * * * * //

dimensions      [0 3 -1 0 0 0 0];

internalField   nonuniform List<scalar> 
5644
(
2.94478e-08
2.70965e-09
-3.21575e-08
2.60338e-08
3.41404e-09
2.26203e-08
3.41346e-09
1.94535e-08
3.16684e-09
1.65654e-08
2.88811e-09
1.40216e-08
2.54381e-09
1.19093e-08
2.11225e-09
1.02516e-08
1.6577e-09
9.02146e-09
1.23018e-09
8.14382e-09
8.77647e-10
7.52654e-09
6.17272e-10
7.08689e-09
4.39657e-10
6.76144e-09
3.25443e-10
6.50619e-09
2.5525e-10
6.29175e-09
2.1444e-10
6.10036e-09
1.91397e-10
5.92271e-09
1.77643e-10
5.75485e-09
1.67862e-10
5.59569e-09
1.5916e-10
5.44548e-09
1.50215e-10
5.30467e-09
1.40806e-10
5.17332e-09
1.31351e-10
5.05099e-09
1.22333e-10
4.93704e-09
1.13948e-10
4.83095e-09
1.0609e-10
4.73234e-09
9.86062e-11
4.64077e-09
9.15666e-11
4.55557e-09
8.52081e-11
4.47596e-09
7.96056e-11
4.40144e-09
7.45168e-11
4.33187e-09
6.95778e-11
4.26722e-09
6.46431e-11
4.20731e-09
5.99173e-11
4.15161e-09
5.5691e-11
4.09964e-09
5.1976e-11
4.05113e-09
4.85047e-11
4.00611e-09
4.502e-11
3.9647e-09
4.1419e-11
3.92698e-09
3.77181e-11
3.89294e-09
3.40394e-11
3.8624e-09
3.05398e-11
3.83515e-09
2.72469e-11
3.81111e-09
2.40422e-11
3.79026e-09
2.08447e-11
3.77258e-09
1.76834e-11
3.75801e-09
1.4572e-11
3.74655e-09
1.14577e-11
3.73824e-09
8.309e-12
3.73303e-09
5.20702e-12
3.73077e-09
2.26936e-12
3.73104e-09
-2.72151e-13
3.73338e-09
-2.34294e-12
3.73712e-09
-3.74006e-12
3.74176e-09
-4.63539e-12
3.7468e-09
-5.04472e-12
3.75187e-09
-5.06482e-12
3.75673e-09
-4.86409e-12
3.76128e-09
-4.55381e-12
3.76547e-09
-4.18527e-12
3.76927e-09
-3.80082e-12
3.7727e-09
-3.42976e-12
3.77579e-09
-3.09258e-12
3.77859e-09
-2.8004e-12
3.78115e-09
-2.55275e-12
3.78348e-09
-2.33964e-12
3.78563e-09
-2.14518e-12
3.78759e-09
-1.95574e-12
3.78935e-09
-1.76375e-12
3.79092e-09
-1.57186e-12
3.79231e-09
-1.38827e-12
3.79353e-09
-1.22507e-12
3.79462e-09
-1.08954e-12
3.79561e-09
-9.85599e-13
3.79652e-09
-9.0816e-13
3.79737e-09
-8.51496e-13
3.79817e-09
-8.04648e-13
3.79894e-09
-7.62672e-13
3.79965e-09
-7.17734e-13
3.80033e-09
-6.71378e-13
3.80095e-09
-6.19562e-13
3.80151e-09
-5.69016e-13
3.80203e-09
-5.1519e-13
3.8025e-09
-4.67718e-13
3.80292e-09
-4.17968e-13
3.80329e-09
-3.78216e-13
3.80363e-09
-3.35119e-13
3.80393e-09
-3.03225e-13
3.8042e-09
-2.66742e-13
3.80444e-09
-2.40842e-13
3.80465e-09
-2.09101e-13
3.80484e-09
-1.88541e-13
3.805e-09
-1.5828e-13
3.80514e-09
-1.43215e-13
3.80525e-09
-1.12674e-13
3.80535e-09
-1.01314e-13
3.80542e-09
-7.12856e-14
3.80549e-09
-6.20548e-14
3.80552e-09
-3.09591e-14
3.80554e-09
-2.58044e-14
1.61551e-15
3.47469e-08
2.40952e-09
-3.44468e-08
3.46112e-08
3.54982e-09
3.39526e-08
4.07204e-09
3.30029e-08
4.11655e-09
3.18828e-08
4.00814e-09
3.06233e-08
3.80335e-09
2.92509e-08
3.4846e-09
2.78351e-08
3.07348e-09
2.64463e-08
2.61899e-09
2.5137e-08
2.18698e-09
2.39323e-08
1.82194e-09
2.2837e-08
1.53495e-09
2.1847e-08
1.31553e-09
2.09581e-08
1.14413e-09
2.01606e-08
1.01197e-09
1.9443e-08
9.08971e-10
1.87944e-08
8.26262e-10
1.82049e-08
7.57338e-10
1.76663e-08
6.977e-10
1.71722e-08
6.44318e-10
1.67174e-08
5.95653e-10
1.62974e-08
5.51359e-10
1.59083e-08
5.11382e-10
1.5547e-08
4.7533e-10
1.52106e-08
4.42447e-10
1.48972e-08
4.12027e-10
1.46049e-08
3.83874e-10
1.43319e-08
3.58209e-10
1.40765e-08
3.35014e-10
1.38373e-08
3.1366e-10
1.36136e-08
2.93276e-10
1.34048e-08
2.7346e-10
1.32102e-08
2.54561e-10
1.30287e-08
2.37132e-10
1.28595e-08
2.21149e-10
1.27021e-08
2.0597e-10
1.25561e-08
1.90955e-10
1.24217e-08
1.75825e-10
1.22988e-08
1.60627e-10
1.21872e-08
1.45653e-10
1.20865e-08
1.31233e-10
1.19964e-08
1.17404e-10
1.19165e-08
1.03906e-10
1.18468e-08
9.05851e-11
1.17869e-08
7.75342e-11
1.17366e-08
6.48378e-11
1.16957e-08
5.24511e-11
1.16636e-08
4.03871e-11
1.16399e-08
2.89092e-11
1.16237e-08
1.8426e-11
1.16141e-08
9.33897e-12
1.16099e-08
1.87651e-12
1.16095e-08
-3.38833e-12
1.1612e-08
-7.06478e-12
1.16161e-08
-9.16732e-12
1.1621e-08
-1.00192e-11
1.16263e-08
-1.00893e-11
1.16314e-08
-9.69272e-12
1.16362e-08
-9.02034e-12
1.16407e-08
-8.2241e-12
1.16446e-08
-7.41169e-12
1.16482e-08
-6.6577e-12
1.16514e-08
-6.00164e-12
1.16543e-08
-5.44955e-12
1.16569e-08
-4.98032e-12
1.16594e-08
-4.55963e-12
1.16616e-08
-4.15649e-12
1.16636e-08
-3.75531e-12
1.16653e-08
-3.36103e-12
1.16669e-08
-2.99171e-12
1.16684e-08
-2.67018e-12
1.16697e-08
-2.40993e-12
1.16709e-08
-2.2143e-12
1.16721e-08
-2.07045e-12
1.16732e-08
-1.96243e-12
1.16743e-08
-1.86781e-12
1.16753e-08
-1.77508e-12
1.16762e-08
-1.67123e-12
1.16771e-08
-1.55958e-12
1.1678e-08
-1.436e-12
1.16787e-08
-1.3137e-12
1.16794e-08
-1.1871e-12
1.168e-08
-1.07388e-12
1.16805e-08
-9.59333e-13
1.1681e-08
-8.65689e-13
1.16814e-08
-7.67975e-13
1.16818e-08
-6.93341e-13
1.16822e-08
-6.10681e-13
1.16825e-08
-5.50166e-13
1.16827e-08
-4.77283e-13
1.1683e-08
-4.28653e-13
1.16832e-08
-3.5801e-13
1.16834e-08
-3.21031e-13
1.16835e-08
-2.48279e-13
1.16836e-08
-2.19279e-13
1.16837e-08
-1.4524e-13
1.16838e-08
-1.21564e-13
1.16838e-08
-4.08954e-14
1.16838e-08
-2.73044e-14
4.42182e-14
3.62881e-08
2.27129e-09
-3.61498e-08
3.66865e-08
3.15135e-09
3.69371e-08
3.82146e-09
3.69981e-08
4.05556e-09
3.69383e-08
4.06796e-09
3.6762e-08
3.97967e-09
3.64435e-08
3.80309e-09
3.59847e-08
3.53227e-09
3.5412e-08
3.19172e-09
3.47646e-08
2.83435e-09
3.40777e-08
2.50885e-09
3.33745e-08
2.23814e-09
3.26694e-08
2.02066e-09
3.19697e-08
1.84379e-09
3.12827e-08
1.69894e-09
3.06131e-08
1.57861e-09
2.99633e-08
1.47603e-09
2.93347e-08
1.38593e-09
2.87279e-08
1.30455e-09
2.8143e-08
1.22923e-09
2.758e-08
1.15859e-09
2.70391e-08
1.09225e-09
2.65204e-08
1.03013e-09
2.60239e-08
9.71808e-10
2.55497e-08
9.16662e-10
2.50975e-08
8.64222e-10
2.46669e-08
8.14444e-10
2.42575e-08
7.67618e-10
2.38687e-08
7.23868e-10
2.34996e-08
6.82703e-10
2.31497e-08
6.43205e-10
2.28184e-08
6.04764e-10
2.25054e-08
5.67587e-10
2.22102e-08
5.32281e-10
2.19324e-08
4.98944e-10
2.16715e-08
4.66921e-10
2.14271e-08
4.35377e-10
2.11991e-08
4.03804e-10
2.09876e-08
3.72157e-10
2.07924e-08
3.40832e-10
2.06133e-08
3.10331e-10
2.045e-08
2.80733e-10
2.03022e-08
2.51692e-10
2.01698e-08
2.22997e-10
2.00525e-08
1.9482e-10
1.99499e-08
1.67381e-10
1.98616e-08
1.40745e-10
1.9787e-08
1.15041e-10
1.97252e-08
9.07202e-11
1.96751e-08
6.84762e-11
1.96355e-08
4.89656e-11
1.96048e-08
3.25924e-11
1.95816e-08
1.98066e-11
1.95642e-08
1.02711e-11
1.95514e-08
3.643e-12
1.95419e-08
-5.0212e-13
1.95348e-08
-2.94283e-12
1.95293e-08
-4.19612e-12
1.95249e-08
-4.61053e-12
1.95211e-08
-4.49061e-12
1.95178e-08
-4.07864e-12
1.95147e-08
-3.56529e-12
1.95118e-08
-3.07247e-12
1.9509e-08
-2.65823e-12
1.95063e-08
-2.32269e-12
1.95038e-08
-2.03874e-12
1.95014e-08
-1.77359e-12
1.94992e-08
-1.51615e-12
1.94971e-08
-1.27683e-12
1.94952e-08
-1.08474e-12
1.94935e-08
-9.65429e-13
1.9492e-08
-9.31773e-13
1.94908e-08
-9.73332e-13
1.94898e-08
-1.06341e-12
1.9489e-08
-1.16655e-12
1.94883e-08
-1.25063e-12
1.94879e-08
-1.29527e-12
1.94875e-08
-1.29146e-12
1.94872e-08
-1.24497e-12
1.94869e-08
-1.16343e-12
1.94866e-08
-1.06508e-12
1.94864e-08
-9.54793e-13
1.94862e-08
-8.5254e-13
1.9486e-08
-7.48845e-13
1.94858e-08
-6.6614e-13
1.94856e-08
-5.7968e-13
1.94854e-08
-5.17685e-13
1.94853e-08
-4.45349e-13
1.94851e-08
-3.97053e-13
1.9485e-08
-3.30527e-13
1.94848e-08
-2.9215e-13
1.94847e-08
-2.21183e-13
1.94846e-08
-1.91906e-13
1.94844e-08
-1.1095e-13
1.94843e-08
-8.61741e-14
1.94841e-08
3.74579e-15
1.9484e-08
2.60273e-14
1.94838e-08
1.33554e-13
1.94836e-08
1.47761e-13
2.43035e-13
3.78434e-08
2.21419e-09
-3.77863e-08
3.81404e-08
2.85432e-09
3.85032e-08
3.45873e-09
3.87845e-08
3.77419e-09
3.90001e-08
3.85239e-09
3.91691e-08
3.8107e-09
3.92731e-08
3.69905e-09
3.92888e-08
3.51656e-09
3.92084e-08
3.27217e-09
3.90442e-08
2.99848e-09
3.88178e-08
2.7353e-09
3.85483e-08
2.5076e-09
3.82479e-08
2.32107e-09
3.79226e-08
2.16908e-09
3.75783e-08
2.04331e-09
3.72197e-08
1.9372e-09
3.68504e-08
1.84529e-09
3.6473e-08
1.76331e-09
3.60895e-08
1.68811e-09
3.57012e-08
1.61749e-09
3.53095e-08
1.55026e-09
3.49157e-08
1.48608e-09
3.4521e-08
1.42479e-09
3.41269e-08
1.36591e-09
3.37349e-08
1.30871e-09
3.33464e-08
1.25272e-09
3.2963e-08
1.19787e-09
3.25862e-08
1.14442e-09
3.22174e-08
1.09259e-09
3.18579e-08
1.04229e-09
3.1508e-08
9.93079e-10
3.11681e-08
9.44642e-10
3.08385e-08
8.97171e-10
3.05198e-08
8.51028e-10
3.02126e-08
8.06099e-10
2.99178e-08
7.61731e-10
2.9636e-08
7.17205e-10
2.93677e-08
6.72088e-10
2.91134e-08
6.26408e-10
2.88735e-08
5.80749e-10
2.8648e-08
5.35828e-10
2.8437e-08
4.91782e-10
2.82405e-08
4.4818e-10
2.80588e-08
4.04694e-10
2.78922e-08
3.61433e-10
2.77409e-08
3.18637e-10
2.76052e-08
2.7651e-10
2.74847e-08
2.35471e-10
2.73791e-08
1.96393e-10
2.72871e-08
1.6041e-10
2.72076e-08
1.28525e-10
2.71388e-08
1.0134e-10
2.70795e-08
7.91618e-11
2.70281e-08
6.15965e-11
2.69838e-08
4.80236e-11
2.69455e-08
3.77174e-11
2.69127e-08
2.99195e-11
2.68844e-08
2.41352e-11
2.68597e-08
2.00073e-11
2.68381e-08
1.71818e-11
2.68187e-08
1.53157e-11
2.6801e-08
1.40804e-11
2.67847e-08
1.3222e-11
2.67695e-08
1.25693e-11
2.67551e-08
1.2045e-11
2.67415e-08
1.16107e-11
2.67285e-08
1.12455e-11
2.67161e-08
1.08949e-11
2.67043e-08
1.04919e-11
2.66932e-08
9.95413e-12
2.6683e-08
9.23952e-12
2.66738e-08
8.33997e-12
2.66655e-08
7.31133e-12
2.66582e-08
6.22822e-12
2.66518e-08
5.18859e-12
2.66463e-08
4.25892e-12
2.66415e-08
3.49198e-12
2.66374e-08
2.89089e-12
2.66337e-08
2.45016e-12
2.66304e-08
2.13047e-12
2.66274e-08
1.90568e-12
2.66247e-08
1.73614e-12
2.66222e-08
1.60279e-12
2.662e-08
1.48722e-12
2.6618e-08
1.378e-12
2.66161e-08
1.2791e-12
2.66144e-08
1.1772e-12
2.66129e-08
1.09089e-12
2.66115e-08
1.00087e-12
2.66102e-08
9.33482e-13
2.66091e-08
8.59584e-13
2.6608e-08
8.19852e-13
2.66071e-08
7.61833e-13
2.66062e-08
7.53738e-13
2.66054e-08
7.1402e-13
2.66047e-08
7.34683e-13
2.6604e-08
7.14104e-13
2.66034e-08
7.67292e-13
2.66027e-08
7.6179e-13
8.09737e-13
3.94381e-08
2.15408e-09
-3.9378e-08
3.96451e-08
2.64733e-09
3.99641e-08
3.13973e-09
4.02663e-08
3.472e-09
4.05194e-08
3.59929e-09
4.07405e-08
3.58959e-09
4.09329e-08
3.50661e-09
4.10805e-08
3.36901e-09
4.11685e-08
3.18412e-09
4.11963e-08
2.97073e-09
4.11754e-08
2.75619e-09
4.11198e-08
2.56316e-09
4.1039e-08
2.40191e-09
4.09377e-08
2.27037e-09
4.08191e-08
2.16187e-09
4.06859e-08
2.07046e-09
4.05398e-08
1.9914e-09
4.03822e-08
1.92089e-09
4.02141e-08
1.85624e-09
4.00359e-08
1.79566e-09
3.9848e-08
1.73812e-09
3.9651e-08
1.68315e-09
3.94452e-08
1.63057e-09
3.92311e-08
1.57996e-09
3.90093e-08
1.5305e-09
3.87806e-08
1.48144e-09
3.8546e-08
1.43248e-09
3.83068e-08
1.38366e-09
3.80644e-08
1.33497e-09
3.78205e-08
1.28618e-09
3.75764e-08
1.23714e-09
3.7333e-08
1.18808e-09
3.70906e-08
1.13959e-09
3.68496e-08
1.09201e-09
3.66107e-08
1.04496e-09
3.63749e-08
9.97598e-10
3.61429e-08
9.49126e-10
3.59161e-08
8.98907e-10
3.56957e-08
8.4678e-10
3.5483e-08
7.93509e-10
3.52785e-08
7.40344e-10
3.50823e-08
6.87942e-10
3.48944e-08
6.36134e-10
3.47145e-08
5.8457e-10
3.45429e-08
5.33052e-10
3.43802e-08
4.81281e-10
3.42278e-08
4.2894e-10
3.4087e-08
3.76251e-10
3.3959e-08
3.24401e-10
3.3844e-08
2.75369e-10
3.37413e-08
2.31307e-10
3.36488e-08
1.93757e-10
3.35648e-08
1.63213e-10
3.34875e-08
1.38882e-10
3.34162e-08
1.19346e-10
3.33507e-08
1.03219e-10
3.32911e-08
8.95304e-11
3.32373e-08
7.78701e-11
3.31892e-08
6.81718e-11
3.3146e-08
6.03644e-11
3.3107e-08
5.42672e-11
3.30716e-08
4.95629e-11
3.30388e-08
4.59296e-11
3.30083e-08
4.30999e-11
3.29794e-08
4.09265e-11
3.29517e-08
3.92974e-11
3.29249e-08
3.81063e-11
3.28986e-08
3.71518e-11
3.28729e-08
3.61927e-11
3.28479e-08
3.495e-11
3.28239e-08
3.32448e-11
3.28013e-08
3.09925e-11
3.27803e-08
2.8285e-11
3.27612e-08
2.52825e-11
3.27442e-08
2.22332e-11
3.27291e-08
1.93242e-11
3.27159e-08
1.67327e-11
3.27043e-08
1.4506e-11
3.26941e-08
1.26827e-11
3.2685e-08
1.11868e-11
3.26769e-08
9.99103e-12
3.26697e-08
8.98611e-12
3.26631e-08
8.15391e-12
3.26572e-08
7.40799e-12
3.26518e-08
6.75756e-12
3.26469e-08
6.14841e-12
3.26425e-08
5.60481e-12
3.26385e-08
5.08937e-12
3.26349e-08
4.63634e-12
3.26316e-08
4.20314e-12
3.26286e-08
3.83743e-12
3.2626e-08
3.48548e-12
3.26235e-08
3.2003e-12
3.26214e-08
2.92569e-12
3.26193e-08
2.71821e-12
3.26176e-08
2.50883e-12
3.26159e-08
2.37691e-12
3.26145e-08
2.22424e-12
3.26131e-08
2.16424e-12
2.02794e-12
4.10593e-08
2.08171e-09
-4.09869e-08
4.12216e-08
2.48506e-09
4.14819e-08
2.87938e-09
4.1762e-08
3.19194e-09
4.20115e-08
3.34975e-09
4.2228e-08
3.37312e-09
4.24205e-08
3.31412e-09
4.25843e-08
3.20519e-09
4.2709e-08
3.05944e-09
4.27906e-08
2.88911e-09
4.2835e-08
2.71182e-09
4.28524e-08
2.54568e-09
4.28519e-08
2.40247e-09
4.28384e-08
2.28387e-09
4.28146e-08
2.18559e-09
4.27823e-08
2.10279e-09
4.27424e-08
2.03132e-09
4.26956e-08
1.96767e-09
4.26425e-08
1.90936e-09
4.25831e-08
1.8551e-09
4.25171e-08
1.80409e-09
4.24446e-08
1.75566e-09
4.23657e-08
1.70948e-09
4.22802e-08
1.66544e-09
4.21877e-08
1.62294e-09
4.20882e-08
1.58094e-09
4.19819e-08
1.53882e-09
4.1869e-08
1.49654e-09
4.175e-08
1.45397e-09
4.16257e-08
1.41046e-09
4.14974e-08
1.3655e-09
4.13659e-08
1.31954e-09
4.12317e-08
1.27377e-09
4.10949e-08
1.22882e-09
4.09557e-08
1.18415e-09
4.08145e-08
1.13882e-09
4.06715e-08
1.0921e-09
4.05273e-08
1.04314e-09
4.03829e-08
9.91215e-10
4.02397e-08
9.3667e-10
4.0099e-08
8.81002e-10
3.99614e-08
8.25578e-10
3.98266e-08
7.70943e-10
3.9694e-08
7.17193e-10
3.95628e-08
6.642e-10
3.94328e-08
6.11288e-10
3.93045e-08
5.57267e-10
3.91796e-08
5.01146e-10
3.90609e-08
4.43132e-10
3.8951e-08
3.8522e-10
3.88514e-08
3.30884e-10
3.87615e-08
2.83657e-10
3.86792e-08
2.4557e-10
3.86018e-08
2.1626e-10
3.85275e-08
1.93612e-10
3.84557e-08
1.75004e-10
3.83868e-08
1.58446e-10
3.83216e-08
1.43066e-10
3.82609e-08
1.28932e-10
3.82048e-08
1.16409e-10
3.81533e-08
1.05774e-10
3.81059e-08
9.69961e-11
3.80619e-08
8.98878e-11
3.80208e-08
8.42233e-11
3.79818e-08
7.99104e-11
3.79442e-08
7.68865e-11
3.79073e-08
7.50699e-11
3.78703e-08
7.41493e-11
3.78328e-08
7.36473e-11
3.77949e-08
7.29101e-11
3.77567e-08
7.13873e-11
3.7719e-08
6.86735e-11
3.76826e-08
6.47286e-11
3.76482e-08
5.97188e-11
3.76163e-08
5.40815e-11
3.75874e-08
4.8223e-11
3.75615e-08
4.26004e-11
3.75386e-08
3.74364e-11
3.75184e-08
3.29448e-11
3.75005e-08
2.9073e-11
3.74846e-08
2.58518e-11
3.74705e-08
2.30894e-11
3.74579e-08
2.0784e-11
3.74465e-08
1.8734e-11
3.74363e-08
1.69806e-11
3.74271e-08
1.53543e-11
3.74188e-08
1.39468e-11
3.74113e-08
1.25986e-11
3.74044e-08
1.14548e-11
3.73983e-08
1.03197e-11
3.73928e-08
9.40503e-12
3.73878e-08
8.45356e-12
3.73833e-08
7.74285e-12
3.73792e-08
6.94967e-12
3.73755e-08
6.42952e-12
3.73723e-08
5.76149e-12
3.73692e-08
5.42349e-12
3.73666e-08
4.84978e-12
3.73641e-08
4.68888e-12
4.1651e-12
4.27166e-08
2.00285e-09
-4.26377e-08
4.28566e-08
2.34502e-09
4.30686e-08
2.66743e-09
4.33161e-08
2.94439e-09
4.35523e-08
3.1136e-09
4.37595e-08
3.16583e-09
4.39409e-08
3.13281e-09
4.40975e-08
3.04854e-09
4.42247e-08
2.93222e-09
4.43188e-08
2.795e-09
4.43821e-08
2.64851e-09
4.44218e-08
2.50604e-09
4.44458e-08
2.37846e-09
4.44598e-08
2.26989e-09
4.44669e-08
2.17848e-09
4.44688e-08
2.10084e-09
4.44665e-08
2.03368e-09
4.44604e-08
1.97373e-09
4.44512e-08
1.91855e-09
4.44391e-08
1.86722e-09
4.44238e-08
1.81939e-09
4.44053e-08
1.77417e-09
4.43839e-08
1.7309e-09
4.43595e-08
1.6898e-09
4.43317e-08
1.65078e-09
4.42999e-08
1.61271e-09
4.42642e-08
1.57456e-09
4.42244e-08
1.53635e-09
4.41801e-08
1.49821e-09
4.41314e-08
1.45924e-09
4.40786e-08
1.41828e-09
4.40226e-08
1.3755e-09
4.39639e-08
1.33246e-09
4.39025e-08
1.2902e-09
4.38386e-08
1.24812e-09
4.37722e-08
1.2052e-09
4.37033e-08
1.16098e-09
4.36316e-08
1.11482e-09
4.35573e-08
1.06558e-09
4.34811e-08
1.01288e-09
4.34041e-08
9.57937e-10
4.33272e-08
9.02522e-10
4.32502e-08
8.47906e-10
4.31726e-08
7.94773e-10
4.30935e-08
7.43359e-10
4.30116e-08
6.93134e-10
4.29263e-08
6.42577e-10
4.28379e-08
5.89521e-10
4.27487e-08
5.32396e-10
4.26621e-08
4.7183e-10
4.25815e-08
4.11401e-10
4.25089e-08
3.5634e-10
4.24434e-08
3.11007e-10
4.23829e-08
2.7677e-10
4.23246e-08
2.5189e-10
4.22667e-08
2.32909e-10
4.22086e-08
2.16534e-10
4.21509e-08
2.00816e-10
4.20945e-08
1.85357e-10
4.20403e-08
1.70598e-10
4.19889e-08
1.57172e-10
4.19405e-08
1.454e-10
4.1895e-08
1.35365e-10
4.18522e-08
1.2704e-10
4.18115e-08
1.2057e-10
4.17723e-08
1.16163e-10
4.17333e-08
1.14007e-10
4.16936e-08
1.1389e-10
4.1652e-08
1.15207e-10
4.16081e-08
1.16872e-10
4.15617e-08
1.17759e-10
4.15135e-08
1.16831e-10
4.14646e-08
1.13602e-10
4.14164e-08
1.07989e-10
4.137e-08
1.00501e-10
4.13264e-08
9.17514e-11
4.12864e-08
8.25938e-11
4.12503e-08
7.35715e-11
4.1218e-08
6.52607e-11
4.11893e-08
5.77649e-11
4.11638e-08
5.1304e-11
4.11413e-08
4.56491e-11
4.11212e-08
4.08743e-11
4.11033e-08
3.66371e-11
4.10872e-08
3.30401e-11
4.10728e-08
2.97364e-11
4.10599e-08
2.69228e-11
4.10482e-08
2.42356e-11
4.10377e-08
2.19955e-11
4.10283e-08
1.97531e-11
4.10197e-08
1.79802e-11
4.1012e-08
1.60911e-11
4.10051e-08
1.47209e-11
4.09989e-08
1.31162e-11
4.09932e-08
1.2114e-11
4.09883e-08
1.07237e-11
4.09836e-08
1.00697e-11
4.09796e-08
8.82763e-12
4.09758e-08
8.51395e-12
7.35945e-12
4.44165e-08
1.92313e-09
-4.43368e-08
4.45427e-08
2.21876e-09
4.47203e-08
2.48989e-09
4.49352e-08
2.72948e-09
4.51526e-08
2.89616e-09
4.53499e-08
2.96856e-09
4.55217e-08
2.961e-09
4.56696e-08
2.90061e-09
4.5793e-08
2.80889e-09
4.58897e-08
2.6983e-09
4.59603e-08
2.5779e-09
4.60091e-08
2.45719e-09
4.60426e-08
2.34499e-09
4.60662e-08
2.24625e-09
4.60835e-08
2.16118e-09
4.60965e-08
2.08789e-09
4.61061e-08
2.02411e-09
4.61129e-08
1.96695e-09
4.61175e-08
1.9139e-09
4.61204e-08
1.86429e-09
4.61216e-08
1.81818e-09
4.61212e-08
1.77466e-09
4.61194e-08
1.73267e-09
4.61166e-08
1.69254e-09
4.61127e-08
1.65472e-09
4.61072e-08
1.61821e-09
4.61001e-08
1.58169e-09
4.60913e-08
1.54516e-09
4.60803e-08
1.50917e-09
4.60666e-08
1.47297e-09
4.605e-08
1.43488e-09
4.6031e-08
1.39453e-09
4.601e-08
1.35346e-09
4.59872e-08
1.31298e-09
4.59628e-08
1.27248e-09
4.59372e-08
1.23083e-09
4.59103e-08
1.18783e-09
4.58819e-08
1.14331e-09
4.58512e-08
1.09621e-09
4.58184e-08
1.04569e-09
4.57839e-08
9.92486e-10
4.5748e-08
9.38407e-10
4.57108e-08
8.85127e-10
4.56718e-08
8.33698e-10
4.56306e-08
7.84605e-10
4.55861e-08
7.37607e-10
4.55373e-08
6.91403e-10
4.54834e-08
6.43387e-10
4.54252e-08
5.90612e-10
4.53651e-08
5.31945e-10
4.53065e-08
4.69961e-10
4.52525e-08
4.10374e-10
4.52043e-08
3.59261e-10
4.5161e-08
3.1998e-10
4.51209e-08
2.92082e-10
4.50815e-08
2.7228e-10
4.50414e-08
2.56613e-10
4.50001e-08
2.42153e-10
4.49577e-08
2.27722e-10
4.49149e-08
2.13353e-10
4.48725e-08
1.99593e-10
4.48311e-08
1.86817e-10
4.47912e-08
1.75248e-10
4.47532e-08
1.65057e-10
4.4717e-08
1.56753e-10
4.46822e-08
1.51026e-10
4.46475e-08
1.48622e-10
4.46117e-08
1.49718e-10
4.45731e-08
1.53815e-10
4.45305e-08
1.59493e-10
4.44833e-08
1.64986e-10
4.44317e-08
1.68398e-10
4.43768e-08
1.68495e-10
4.43202e-08
1.64621e-10
4.42636e-08
1.57112e-10
4.42087e-08
1.46648e-10
4.41568e-08
1.34471e-10
4.41088e-08
1.21513e-10
4.40652e-08
1.08864e-10
4.40261e-08
9.69241e-11
4.39911e-08
8.62626e-11
4.39601e-08
7.67052e-11
4.39324e-08
6.85027e-11
4.39079e-08
6.11853e-11
4.3886e-08
5.4971e-11
4.38664e-08
4.92924e-11
4.38488e-08
4.44965e-11
4.38331e-08
3.99402e-11
4.38189e-08
3.61801e-11
4.38063e-08
3.24184e-11
4.37948e-08
2.94723e-11
4.37846e-08
2.63112e-11
4.37752e-08
2.40479e-11
4.3767e-08
2.13474e-11
4.37594e-08
1.9696e-11
4.37528e-08
1.73305e-11
4.37466e-08
1.62523e-11
4.37414e-08
1.41061e-11
4.37363e-08
1.35894e-11
1.15649e-11
4.61634e-08
1.84536e-09
-4.60856e-08
4.62788e-08
2.10336e-09
4.64328e-08
2.3359e-09
4.66191e-08
2.54316e-09
4.68157e-08
2.69953e-09
4.7001e-08
2.78328e-09
4.71646e-08
2.79738e-09
4.73055e-08
2.75974e-09
4.74243e-08
2.69003e-09
4.75209e-08
2.60175e-09
4.75954e-08
2.50342e-09
4.76502e-08
2.40234e-09
4.76899e-08
2.30532e-09
4.77192e-08
2.21693e-09
4.77418e-08
2.13864e-09
4.77597e-08
2.06996e-09
4.77742e-08
2.00961e-09
4.77859e-08
1.95525e-09
4.77954e-08
1.90443e-09
4.78031e-08
1.85651e-09
4.78095e-08
1.81185e-09
4.78144e-08
1.76967e-09
4.78184e-08
1.72867e-09
4.78219e-08
1.68904e-09
4.78251e-08
1.65158e-09
4.78277e-08
1.6156e-09
4.78297e-08
1.5797e-09
4.78311e-08
1.54376e-09
4.78317e-08
1.50861e-09
4.78308e-08
1.47387e-09
4.78279e-08
1.43773e-09
4.78231e-08
1.39931e-09
4.78168e-08
1.35985e-09
4.78091e-08
1.32063e-09
4.78006e-08
1.281e-09
4.77916e-08
1.23976e-09
4.77826e-08
1.19686e-09
4.77733e-08
1.15258e-09
4.77633e-08
1.10626e-09
4.77519e-08
1.05709e-09
4.77388e-08
1.00555e-09
4.77239e-08
9.53303e-10
4.7707e-08
9.02064e-10
4.76878e-08
8.52932e-10
4.7666e-08
8.06349e-10
4.76415e-08
7.62152e-10
4.76136e-08
7.19326e-10
4.75815e-08
6.75394e-10
4.75452e-08
6.26929e-10
4.75055e-08
5.71691e-10
4.74643e-08
5.11096e-10
4.74244e-08
4.50346e-10
4.73876e-08
3.96e-10
4.7355e-08
3.5263e-10
4.73259e-08
3.21138e-10
4.72991e-08
2.9913e-10
4.72728e-08
2.82905e-10
4.72457e-08
2.69237e-10
4.7217e-08
2.56397e-10
4.71866e-08
2.43815e-10
4.71546e-08
2.31535e-10
4.71219e-08
2.19541e-10
4.70893e-08
2.07867e-10
4.70576e-08
1.96723e-10
4.70274e-08
1.86989e-10
4.69984e-08
1.79972e-10
4.69699e-08
1.77205e-10
4.69401e-08
1.79511e-10
4.69071e-08
1.86739e-10
4.68693e-08
1.97289e-10
4.68255e-08
2.08809e-10
4.67755e-08
2.18454e-10
4.67199e-08
2.24058e-10
4.66604e-08
2.24137e-10
4.65989e-08
2.18621e-10
4.65375e-08
2.08057e-10
4.6478e-08
1.93978e-10
4.64218e-08
1.77678e-10
4.63698e-08
1.60826e-10
4.63226e-08
1.44202e-10
4.628e-08
1.28854e-10
4.62419e-08
1.14753e-10
4.6208e-08
1.02434e-10
4.61778e-08
9.13398e-11
4.61509e-08
8.18715e-11
4.6127e-08
7.32251e-11
4.61055e-08
6.59454e-11
4.60864e-08
5.90589e-11
4.60692e-08
5.34061e-11
4.60538e-08
4.77703e-11
4.60399e-08
4.33773e-11
4.60276e-08
3.86623e-11
4.60163e-08
3.53061e-11
4.60064e-08
3.12748e-11
4.59973e-08
2.88322e-11
4.59893e-08
2.52849e-11
4.59819e-08
2.36912e-11
4.59755e-08
2.04491e-11
4.59694e-08
1.96868e-11
1.65942e-11
4.79608e-08
1.77021e-09
-4.78856e-08
4.8067e-08
1.99712e-09
4.82038e-08
2.19908e-09
4.83669e-08
2.38005e-09
4.85431e-08
2.52334e-09
4.87147e-08
2.61165e-09
4.887e-08
2.6421e-09
4.9005e-08
2.62476e-09
4.91198e-08
2.57519e-09
4.92152e-08
2.50636e-09
4.92918e-08
2.42686e-09
4.9351e-08
2.34314e-09
4.93958e-08
2.26055e-09
4.94299e-08
2.18282e-09
4.94566e-08
2.11189e-09
4.94782e-08
2.04837e-09
4.9496e-08
1.99178e-09
4.95109e-08
1.94041e-09
4.95231e-08
1.89215e-09
4.95334e-08
1.8463e-09
4.9542e-08
1.80324e-09
4.95492e-08
1.7624e-09
4.95554e-08
1.72251e-09
4.95609e-08
1.68357e-09
4.95661e-08
1.64638e-09
4.9571e-08
1.61064e-09
4.95756e-08
1.57512e-09
4.95798e-08
1.53958e-09
4.95836e-08
1.50482e-09
4.95866e-08
1.47086e-09
4.95882e-08
1.43613e-09
4.9588e-08
1.39944e-09
4.95863e-08
1.36155e-09
4.95835e-08
1.32344e-09
4.95801e-08
1.28443e-09
4.95766e-08
1.2433e-09
4.95733e-08
1.20006e-09
4.95706e-08
1.15529e-09
4.95681e-08
1.10879e-09
4.9565e-08
1.06015e-09
4.95606e-08
1.00995e-09
4.95543e-08
9.5969e-10
4.95454e-08
9.10916e-10
4.95338e-08
8.64512e-10
4.95195e-08
8.20657e-10
4.95027e-08
7.78982e-10
4.94835e-08
7.38519e-10
4.94618e-08
6.97074e-10
4.94373e-08
6.51448e-10
4.94098e-08
5.99209e-10
4.93798e-08
5.41089e-10
4.93487e-08
4.81432e-10
4.93184e-08
4.26308e-10
4.92905e-08
3.80487e-10
4.9266e-08
3.45702e-10
4.92445e-08
3.2063e-10
4.92249e-08
3.0247e-10
4.92057e-08
2.88421e-10
4.91855e-08
2.76665e-10
4.91631e-08
2.66123e-10
4.91386e-08
2.5613e-10
4.91121e-08
2.45945e-10
4.90849e-08
2.35097e-10
4.9058e-08
2.23639e-10
4.90322e-08
2.12761e-10
4.90078e-08
2.0445e-10
4.89838e-08
2.01147e-10
4.89588e-08
2.04479e-10
4.89308e-08
2.148e-10
4.88976e-08
2.30462e-10
4.88578e-08
2.48604e-10
4.88108e-08
2.65445e-10
4.87571e-08
2.77827e-10
4.86979e-08
2.83317e-10
4.86352e-08
2.81285e-10
4.85713e-08
2.71989e-10
4.85081e-08
2.57135e-10
4.84475e-08
2.38303e-10
4.83906e-08
2.17727e-10
4.83382e-08
1.96592e-10
4.82906e-08
1.76487e-10
4.82477e-08
1.57589e-10
4.82094e-08
1.408e-10
4.81752e-08
1.25514e-10
4.81447e-08
1.12378e-10
4.81176e-08
1.00357e-10
4.80933e-08
9.02341e-11
4.80716e-08
8.06814e-11
4.80522e-08
7.28578e-11
4.80349e-08
6.50854e-11
4.80192e-08
5.90395e-11
4.80053e-08
5.25632e-11
4.79927e-08
4.79639e-11
4.79815e-08
4.24311e-11
4.79712e-08
3.9091e-11
4.79623e-08
3.42139e-11
4.7954e-08
3.20358e-11
4.79469e-08
2.75609e-11
4.794e-08
2.652e-11
2.22167e-11
4.98122e-08
1.69758e-09
-4.97396e-08
4.99106e-08
1.89874e-09
5.00338e-08
2.0758e-09
5.01784e-08
2.23545e-09
5.0336e-08
2.36579e-09
5.04934e-08
2.45427e-09
5.06395e-08
2.49595e-09
5.07688e-08
2.4955e-09
5.088e-08
2.46397e-09
5.09738e-08
2.41255e-09
5.10512e-08
2.34945e-09
5.11134e-08
2.28093e-09
5.11623e-08
2.21165e-09
5.12007e-08
2.14448e-09
5.12313e-08
2.08132e-09
5.12562e-08
2.02345e-09
5.12769e-08
1.97103e-09
5.12944e-08
1.9229e-09
5.13091e-08
1.87748e-09
5.13213e-08
1.83407e-09
5.13317e-08
1.79285e-09
5.13407e-08
1.75345e-09
5.13483e-08
1.71486e-09
5.1355e-08
1.67691e-09
5.13612e-08
1.6402e-09
5.13671e-08
1.60469e-09
5.13726e-08
1.5696e-09
5.13777e-08
1.53457e-09
5.13823e-08
1.50021e-09
5.13863e-08
1.46679e-09
5.13893e-08
1.43319e-09
5.13906e-08
1.39814e-09
5.13903e-08
1.36181e-09
5.1389e-08
1.32478e-09
5.13871e-08
1.28633e-09
5.13851e-08
1.2453e-09
5.13834e-08
1.20173e-09
5.13824e-08
1.15632e-09
5.13819e-08
1.10928e-09
5.13813e-08
1.06074e-09
5.13796e-08
1.01163e-09
5.13759e-08
9.63393e-10
5.13695e-08
9.17286e-10
5.13602e-08
8.73845e-10
5.1348e-08
8.32879e-10
5.13333e-08
7.93649e-10
5.13168e-08
7.55004e-10
5.1299e-08
7.14951e-10
5.12796e-08
6.7083e-10
5.12582e-08
6.20637e-10
5.12343e-08
5.64965e-10
5.12083e-08
5.0739e-10
5.11816e-08
4.53063e-10
5.11558e-08
4.06257e-10
5.11325e-08
3.68986e-10
5.11123e-08
3.40839e-10
5.10946e-08
3.20141e-10
5.10781e-08
3.04927e-10
5.10611e-08
2.93655e-10
5.10423e-08
2.84915e-10
5.10212e-08
2.77315e-10
5.09979e-08
2.69241e-10
5.09734e-08
2.59553e-10
5.0949e-08
2.48025e-10
5.09257e-08
2.36112e-10
5.09036e-08
2.26481e-10
5.08823e-08
2.22527e-10
5.086e-08
2.26728e-10
5.08348e-08
2.4e-10
5.08046e-08
2.60704e-10
5.07676e-08
2.85534e-10
5.07233e-08
3.09825e-10
5.06716e-08
3.29452e-10
5.06139e-08
3.41014e-10
5.0552e-08
3.43267e-10
5.04878e-08
3.36093e-10
5.04237e-08
3.21284e-10
5.03614e-08
3.00622e-10
5.03022e-08
2.76861e-10
5.02473e-08
2.51562e-10
5.01969e-08
2.26874e-10
5.01513e-08
2.03199e-10
5.01102e-08
1.81852e-10
5.00735e-08
1.62206e-10
5.00407e-08
1.45202e-10
5.00115e-08
1.29581e-10
4.99853e-08
1.16404e-10
4.9962e-08
1.03977e-10
4.99411e-08
9.38032e-11
4.99224e-08
8.37229e-11
4.99056e-08
7.58854e-11
4.98906e-08
6.75098e-11
4.9877e-08
6.15649e-11
4.98651e-08
5.44167e-11
4.9854e-08
5.01058e-11
4.98445e-08
4.38001e-11
4.98355e-08
4.09899e-11
4.98279e-08
3.51906e-11
4.98205e-08
3.38477e-11
2.82387e-11
5.1721e-08
1.62744e-09
-5.16508e-08
5.18125e-08
1.80721e-09
5.19245e-08
1.96374e-09
5.20541e-08
2.10586e-09
5.21954e-08
2.22454e-09
5.23389e-08
2.31078e-09
5.24753e-08
2.35954e-09
5.25984e-08
2.37235e-09
5.27061e-08
2.35637e-09
5.27981e-08
2.32047e-09
5.28756e-08
2.27199e-09
5.29396e-08
2.21688e-09
5.29917e-08
2.15962e-09
5.30336e-08
2.10257e-09
5.30676e-08
2.04731e-09
5.30956e-08
1.99545e-09
5.31191e-08
1.94755e-09
5.3139e-08
1.90295e-09
5.31559e-08
1.86057e-09
5.31701e-08
1.81985e-09
5.31822e-08
1.78076e-09
5.31927e-08
1.74297e-09
5.32018e-08
1.70582e-09
5.32096e-08
1.6691e-09
5.32166e-08
1.63312e-09
5.32234e-08
1.59799e-09
5.32296e-08
1.56339e-09
5.32351e-08
1.52907e-09
5.324e-08
1.49528e-09
5.32444e-08
1.46238e-09
5.32478e-08
1.42978e-09
5.32497e-08
1.39626e-09
5.325e-08
1.36145e-09
5.32494e-08
1.32547e-09
5.32481e-08
1.28759e-09
5.32466e-08
1.24676e-09
5.32454e-08
1.20301e-09
5.32446e-08
1.15706e-09
5.32444e-08
1.10949e-09
5.32442e-08
1.06099e-09
5.32429e-08
1.01287e-09
5.32397e-08
9.66623e-10
5.32338e-08
9.23205e-10
5.32249e-08
8.82747e-10
5.32131e-08
8.44665e-10
5.31989e-08
8.0783e-10
5.31831e-08
7.70793e-10
5.31664e-08
7.3164e-10
5.3149e-08
6.88291e-10
5.31302e-08
6.39416e-10
5.31093e-08
5.85795e-10
5.30863e-08
5.30447e-10
5.30618e-08
4.7756e-10
5.30374e-08
4.30666e-10
5.30146e-08
3.91737e-10
5.29944e-08
3.61041e-10
5.29766e-08
3.3797e-10
5.29601e-08
3.21476e-10
5.29433e-08
3.10438e-10
5.29249e-08
3.03241e-10
5.29044e-08
2.97828e-10
5.28819e-08
2.91724e-10
5.28584e-08
2.83105e-10
5.2835e-08
2.71447e-10
5.28126e-08
2.5846e-10
5.27916e-08
2.47486e-10
5.27713e-08
2.42853e-10
5.27502e-08
2.47864e-10
5.27262e-08
2.63974e-10
5.26973e-08
2.89557e-10
5.2662e-08
3.20897e-10
5.26193e-08
3.525e-10
5.25694e-08
3.79341e-10
5.25133e-08
3.97091e-10
5.24527e-08
4.03905e-10
5.23895e-08
3.99262e-10
5.23258e-08
3.84986e-10
5.22634e-08
3.62998e-10
5.22038e-08
3.36514e-10
5.21479e-08
3.07431e-10
5.20964e-08
2.78436e-10
5.20494e-08
2.50153e-10
5.20069e-08
2.24325e-10
5.19688e-08
2.0032e-10
5.19346e-08
1.79399e-10
5.19041e-08
1.60095e-10
5.18767e-08
1.43764e-10
5.18524e-08
1.28354e-10
5.18304e-08
1.15728e-10
5.18109e-08
1.03238e-10
5.17933e-08
9.35223e-11
5.17776e-08
8.31595e-11
5.17634e-08
7.58015e-11
5.17509e-08
6.69631e-11
5.17393e-08
6.16321e-11
5.17293e-08
5.38322e-11
5.17199e-08
5.0357e-11
5.1712e-08
4.31719e-11
5.17043e-08
4.15105e-11
3.45324e-11
5.36903e-08
1.5599e-09
-5.36228e-08
5.37758e-08
1.72181e-09
5.38782e-08
1.86127e-09
5.39953e-08
1.9888e-09
5.41225e-08
2.09734e-09
5.4253e-08
2.18022e-09
5.43795e-08
2.23303e-09
5.44961e-08
2.25578e-09
5.45998e-08
2.25267e-09
5.46899e-08
2.23037e-09
5.47669e-08
2.19503e-09
5.48318e-08
2.15192e-09
5.4886e-08
2.10541e-09
5.49308e-08
2.05782e-09
5.49677e-08
2.01038e-09
5.49985e-08
1.96463e-09
5.50245e-08
1.92155e-09
5.50467e-08
1.88076e-09
5.50657e-08
1.84157e-09
5.50819e-08
1.8037e-09