/*--------------------------------*- C++ -*----------------------------------*\
| =========                 |                                                 |
| \\      /  F ield         | OpenFOAM: The Open Source CFD Toolbox           |
|  \\    /   O peration     | Version:  2.3.0                                 |
|   \\  /    A nd           | Web:      www.OpenFOAM.org                      |
|    \\/     M anipulation  |                                                 |
\*---------------------------------------------------------------------------*/
FoamFile
{
    version     2.0;
    format      ascii;
    class       volVectorField;
    location    "0.7";
    object      U_0;
}
// * * * * * * * * * * * * * * * * * * * * * * * * * * * * * * * * * * * * * //

dimensions      [0 1 -1 0 0 0 0];

internalField   nonuniform List<vector> 
3375
(
(0.175673 0.00522833 0)
(0.155171 0.00661485 0)
(0.134664 0.00633528 0)
(0.115355 0.00539301 0)
(0.0980413 0.00432342 0)
(0.0829884 0.00333803 0)
(0.0705213 0.00243883 0)
(0.0607321 0.00158621 0)
(0.0532317 0.000872617 0)
(0.04764 0.000372476 0)
(0.0435399 0.000123572 0)
(0.0404834 2.68317e-05 0)
(0.0381964 -1.8073e-06 0)
(0.0364543 7.11604e-07 0)
(0.035017 1.18661e-05 0)
(0.0337789 2.24147e-05 0)
(0.0327143 3.95328e-05 0)
(0.0317499 5.87943e-05 0)
(0.0308266 6.77785e-05 0)
(0.029946 6.60469e-05 0)
(0.029131 6.05347e-05 0)
(0.0283739 6.10036e-05 0)
(0.0276488 6.33624e-05 0)
(0.0269588 5.77398e-05 0)
(0.026322 5.15181e-05 0)
(0.0257296 4.96717e-05 0)
(0.0251656 4.77192e-05 0)
(0.0246303 4.51208e-05 0)
(0.0241273 4.15291e-05 0)
(0.0236559 3.77038e-05 0)
(0.0232124 3.54746e-05 0)
(0.0227897 3.42065e-05 0)
(0.0223854 3.24077e-05 0)
(0.0219992 3.06785e-05 0)
(0.02163 2.93514e-05 0)
(0.0212768 2.76787e-05 0)
(0.0209395 2.63678e-05 0)
(0.020616 2.53511e-05 0)
(0.0203039 2.44508e-05 0)
(0.0200034 2.33998e-05 0)
(0.019715 2.21185e-05 0)
(0.0194385 2.10263e-05 0)
(0.0191728 2.0041e-05 0)
(0.0189168 1.92166e-05 0)
(0.0186702 1.83167e-05 0)
(0.0184318 1.77342e-05 0)
(0.0182016 1.68763e-05 0)
(0.0179794 1.61398e-05 0)
(0.0177642 1.57618e-05 0)
(0.0175557 1.49945e-05 0)
(0.0173539 1.45078e-05 0)
(0.0171572 1.42895e-05 0)
(0.0169671 1.32741e-05 0)
(0.0167836 1.28593e-05 0)
(0.0166046 1.27956e-05 0)
(0.0164303 1.21052e-05 0)
(0.0162621 1.15808e-05 0)
(0.0160975 1.16668e-05 0)
(0.015936 1.12725e-05 0)
(0.0157812 1.01137e-05 0)
(0.0156332 9.72528e-06 0)
(0.0154871 1.01266e-05 0)
(0.0153439 9.48621e-06 0)
(0.0152051 9.1484e-06 0)
(0.0150689 9.36624e-06 0)
(0.014935 8.82766e-06 0)
(0.0148067 8.14735e-06 0)
(0.0146821 8.159e-06 0)
(0.0145606 7.76608e-06 0)
(0.0144421 7.53653e-06 0)
(0.0143257 7.65361e-06 0)
(0.014211 7.34337e-06 0)
(0.0141006 6.80574e-06 0)
(0.0139934 6.72405e-06 0)
(0.0138887 6.48772e-06 0)
(0.0137863 6.32255e-06 0)
(0.013686 6.31775e-06 0)
(0.0135868 6.20359e-06 0)
(0.0134914 5.68608e-06 0)
(0.0133982 5.75659e-06 0)
(0.0133065 5.72699e-06 0)
(0.0132166 5.3811e-06 0)
(0.0131302 5.1784e-06 0)
(0.0130444 5.34039e-06 0)
(0.0129613 4.90284e-06 0)
(0.01288 4.85578e-06 0)
(0.0128002 5.00306e-06 0)
(0.0127203 4.86492e-06 0)
(0.012645 4.31805e-06 0)
(0.0125693 4.7368e-06 0)
(0.0124966 4.31487e-06 0)
(0.0124229 4.42072e-06 0)
(0.012355 4.00221e-06 0)
(0.0122813 4.7129e-06 0)
(0.0122176 3.54308e-06 0)
(0.0121415 5.03606e-06 0)
(0.0120871 2.73635e-06 0)
(0.0120019 5.58057e-06 0)
(0.0119732 5.24632e-07 0)
(0.0118611 8.88009e-06 0)
(0.191137 0.00924266 0)
(0.191505 0.0114759 0)
(0.188838 0.0128325 0)
(0.183575 0.0126794 0)
(0.176876 0.0118436 0)
(0.169198 0.010309 0)
(0.161026 0.00872111 0)
(0.152824 0.00728158 0)
(0.144837 0.0058264 0)
(0.137246 0.00448377 0)
(0.130197 0.0034651 0)
(0.123759 0.00262107 0)
(0.117952 0.00196129 0)
(0.112841 0.00156552 0)
(0.108347 0.00132559 0)
(0.104286 0.00111046 0)
(0.100641 0.000941132 0)
(0.0973838 0.00085228 0)
(0.0944039 0.000800844 0)
(0.0916425 0.000743902 0)
(0.0890975 0.000676642 0)
(0.0867375 0.000631927 0)
(0.0845209 0.000602949 0)
(0.0824343 0.000554881 0)
(0.0804853 0.00050819 0)
(0.0786678 0.000478793 0)
(0.0769532 0.000450877 0)
(0.0753297 0.000422096 0)
(0.0738022 0.00039367 0)
(0.0723619 0.000367479 0)
(0.0709967 0.000346318 0)
(0.0696962 0.000328909 0)
(0.0684545 0.000311865 0)
(0.0672683 0.000296185 0)
(0.066135 0.000281878 0)
(0.0650508 0.000266639 0)
(0.0640111 0.000253444 0)
(0.0630143 0.000242256 0)
(0.0620555 0.000231926 0)
(0.0611337 0.00022128 0)
(0.0602486 0.000210592 0)
(0.0593976 0.000201065 0)
(0.0585786 0.00019208 0)
(0.0577886 0.000183922 0)
(0.0570267 0.000175904 0)
(0.0562899 0.000169416 0)
(0.0555788 0.000162134 0)
(0.0548909 0.000155318 0)
(0.0542247 0.000149991 0)
(0.0535801 0.000143801 0)
(0.0529552 0.000138615 0)
(0.052348 0.000134425 0)
(0.0517608 0.000127912 0)
(0.0511912 0.00012349 0)
(0.0506378 0.000120167 0)
(0.0501001 0.000115056 0)
(0.0495788 0.000110606 0)
(0.0490708 0.000108285 0)
(0.0485757 0.000104618 0)
(0.0480969 9.86167e-05 0)
(0.0476335 9.50894e-05 0)
(0.0471801 9.41887e-05 0)
(0.0467381 9.00528e-05 0)
(0.0463076 8.69845e-05 0)
(0.0458879 8.56814e-05 0)
(0.045478 8.21483e-05 0)
(0.0450809 7.8158e-05 0)
(0.0446944 7.64858e-05 0)
(0.0443183 7.36061e-05 0)
(0.0439507 7.1315e-05 0)
(0.0435918 7.01072e-05 0)
(0.0432405 6.7698e-05 0)
(0.0428996 6.45342e-05 0)
(0.0425677 6.29218e-05 0)
(0.0422441 6.087e-05 0)
(0.0419273 5.91044e-05 0)
(0.0416183 5.77883e-05 0)
(0.0413153 5.62425e-05 0)
(0.0410218 5.33862e-05 0)
(0.0407347 5.24989e-05 0)
(0.0404548 5.12511e-05 0)
(0.0401807 4.91463e-05 0)
(0.0399154 4.74129e-05 0)
(0.0396544 4.69609e-05 0)
(0.0394018 4.4559e-05 0)
(0.0391538 4.3568e-05 0)
(0.0389125 4.30215e-05 0)
(0.0386742 4.17495e-05 0)
(0.0384465 3.91257e-05 0)
(0.0382194 3.97787e-05 0)
(0.0380022 3.75391e-05 0)
(0.0377834 3.73215e-05 0)
(0.0375796 3.51176e-05 0)
(0.0373647 3.69635e-05 0)
(0.0371751 3.23718e-05 0)
(0.0369574 3.68953e-05 0)
(0.0367931 2.84379e-05 0)
(0.036555 3.82053e-05 0)
(0.036455 2.06262e-05 0)
(0.0361393 4.37594e-05 0)
(0.192329 0.00732433 0)
(0.193169 0.0110654 0)
(0.194298 0.01194 0)
(0.19541 0.012949 0)
(0.196037 0.0119599 0)
(0.195588 0.0114214 0)
(0.193994 0.010392 0)
(0.191501 0.00976002 0)
(0.188249 0.00868774 0)
(0.184543 0.00754794 0)
(0.180613 0.00667826 0)
(0.176462 0.00578781 0)
(0.172077 0.00494747 0)
(0.167692 0.00428424 0)
(0.163588 0.00381494 0)
(0.159763 0.00341809 0)
(0.156128 0.00307277 0)
(0.152608 0.00281514 0)
(0.149163 0.00260022 0)
(0.145824 0.00238542 0)
(0.14265 0.00217321 0)
(0.139652 0.00202234 0)
(0.136791 0.00191202 0)
(0.134027 0.00176962 0)
(0.131358 0.00163093 0)
(0.128803 0.00152785 0)
(0.126349 0.00143651 0)
(0.123989 0.00134802 0)
(0.121743 0.00125779 0)
(0.119609 0.00117608 0)
(0.117569 0.00111108 0)
(0.115607 0.00105452 0)
(0.113715 0.000997813 0)
(0.111891 0.000945963 0)
(0.11014 0.000900879 0)
(0.108459 0.000856392 0)
(0.106838 0.000814904 0)
(0.105275 0.000776793 0)
(0.103764 0.000742663 0)
(0.102304 0.000708981 0)
(0.100896 0.000675532 0)
(0.0995388 0.000645535 0)
(0.0982278 0.000617739 0)
(0.0969589 0.000592254 0)
(0.0957306 0.00056698 0)
(0.0945388 0.000544894 0)
(0.0933854 0.000522597 0)
(0.0922666 0.000502046 0)
(0.0911803 0.000483615 0)
(0.0901276 0.000463934 0)
(0.0891048 0.000447266 0)
(0.0881092 0.000432438 0)
(0.0871441 0.000413463 0)
(0.0862056 0.000399149 0)
(0.0852929 0.000386955 0)
(0.0844052 0.000371786 0)
(0.0835422 0.000358038 0)
(0.0827011 0.000348208 0)
(0.081881 0.000336246 0)
(0.0810849 0.000320432 0)
(0.080312 0.000309443 0)
(0.0795563 0.000303321 0)
(0.0788196 0.000291321 0)
(0.0781004 0.000281532 0)
(0.0773995 0.000275018 0)
(0.0767153 0.000264799 0)
(0.0760495 0.000253751 0)
(0.0754012 0.000246999 0)
(0.0747699 0.000238358 0)
(0.074152 0.000230991 0)
(0.073549 0.000225475 0)
(0.0729594 0.000217976 0)
(0.0723852 0.000209213 0)
(0.0718256 0.000203421 0)
(0.0712799 0.000196922 0)
(0.0707453 0.000191023 0)
(0.070224 0.000185884 0)
(0.0697138 0.000180543 0)
(0.0692178 0.000172842 0)
(0.0687328 0.000168768 0)
(0.0682605 0.000164035 0)
(0.0677981 0.00015804 0)
(0.0673491 0.000152618 0)
(0.0669091 0.000149611 0)
(0.0664822 0.000143119 0)
(0.0660637 0.000139403 0)
(0.0656566 0.000136283 0)
(0.0652565 0.00013204 0)
(0.0648717 0.000125472 0)
(0.0644905 0.000124989 0)
(0.0641248 0.000119063 0)
(0.0637592 0.000117139 0)
(0.0634153 0.000111501 0)
(0.0630602 0.000113436 0)
(0.0627394 0.000103613 0)
(0.0623852 0.000110465 0)
(0.0621032 9.40203e-05 0)
(0.0617222 0.000110055 0)
(0.0615377 8.10226e-05 0)
(0.0610239 0.000111782 0)
(0.19319 0.00751311 0)
(0.193427 0.00898999 0)
(0.194729 0.010542 0)
(0.19642 0.0108793 0)
(0.19801 0.0119333 0)
(0.199232 0.0105112 0)
(0.200127 0.0107768 0)
(0.200859 0.00946423 0)
(0.2007 0.00904392 0)
(0.200102 0.00810893 0)
(0.199201 0.00759192 0)
(0.197915 0.00705287 0)
(0.196142 0.00644782 0)
(0.193974 0.00594748 0)
(0.191669 0.00546522 0)
(0.189397 0.00496697 0)
(0.187293 0.00454895 0)
(0.185272 0.00428972 0)
(0.183138 0.00410661 0)
(0.180822 0.00389854 0)
(0.178404 0.00362748 0)
(0.176026 0.00341044 0)
(0.173743 0.00326734 0)
(0.171513 0.00308689 0)
(0.169308 0.00290847 0)
(0.167123 0.00276902 0)
(0.164924 0.00262978 0)
(0.162697 0.0024922 0)
(0.160491 0.00235126 0)
(0.158358 0.00221508 0)
(0.156316 0.00210303 0)
(0.154332 0.00201339 0)
(0.152369 0.0019252 0)
(0.150419 0.00183417 0)
(0.148507 0.00174666 0)
(0.146651 0.00166416 0)
(0.144847 0.00159378 0)
(0.143091 0.00152813 0)
(0.141369 0.00146592 0)
(0.139676 0.00140442 0)
(0.138022 0.00134261 0)
(0.136413 0.00128509 0)
(0.134851 0.00123199 0)
(0.133328 0.0011845 0)
(0.131842 0.00113834 0)
(0.130388 0.00109648 0)
(0.128969 0.00105237 0)
(0.127583 0.0010129 0)
(0.126228 0.000978395 0)
(0.124908 0.000940301 0)
(0.123619 0.000907411 0)
(0.122358 0.000878414 0)
(0.121128 0.00084213 0)
(0.119928 0.000813141 0)
(0.118754 0.000788097 0)
(0.117607 0.000758963 0)
(0.116487 0.000732362 0)
(0.115393 0.000712021 0)
(0.114322 0.000688756 0)
(0.113279 0.000658847 0)
(0.112263 0.000636479 0)
(0.111267 0.000622588 0)
(0.110291 0.000599623 0)
(0.109335 0.000579852 0)
(0.108402 0.000565361 0)
(0.10749 0.000545558 0)
(0.106598 0.000524548 0)
(0.105728 0.000510097 0)
(0.104879 0.000492896 0)
(0.104046 0.000477842 0)
(0.10323 0.000465898 0)
(0.102432 0.000450921 0)
(0.101653 0.00043393 0)
(0.100892 0.000421743 0)
(0.100149 0.000408743 0)
(0.0994195 0.000396433 0)
(0.0987065 0.00038536 0)
(0.098008 0.000374212 0)
(0.0973272 0.000359478 0)
(0.0966605 0.000350342 0)
(0.0960102 0.000340281 0)
(0.0953732 0.000328296 0)
(0.0947526 0.000317334 0)
(0.0941447 0.00031008 0)
(0.0935535 0.000297632 0)
(0.0929738 0.000289393 0)
(0.0924089 0.000282245 0)
(0.0918544 0.00027317 0)
(0.0913187 0.000260899 0)
(0.0907898 0.000257909 0)
(0.09028 0.000246773 0)
(0.0897734 0.000241382 0)
(0.0892919 0.000231004 0)
(0.0888024 0.000231547 0)
(0.0883507 0.000215375 0)
(0.0878674 0.000222474 0)
(0.0874646 0.00019875 0)
(0.08695 0.000216088 0)
(0.0866761 0.000182121 0)
(0.0859694 0.00021029 0)
(0.194051 0.00652069 0)
(0.194209 0.0084516 0)
(0.195198 0.0102245 0)
(0.196687 0.0105141 0)
(0.198164 0.0111012 0)
(0.19925 0.0102663 0)
(0.200325 0.00950258 0)
(0.201503 0.00989489 0)
(0.202147 0.00873985 0)
(0.202273 0.00799777 0)
(0.202628 0.00758519 0)
(0.202865 0.00712485 0)
(0.202595 0.00673844 0)
(0.201938 0.00643982 0)
(0.201025 0.00607449 0)
(0.200019 0.00547925 0)
(0.199199 0.00508713 0)
(0.198559 0.00490605 0)
(0.197849 0.00481354 0)
(0.196907 0.00470741 0)
(0.195711 0.00448259 0)
(0.194399 0.00426689 0)
(0.1931 0.00410551 0)
(0.191822 0.00389069 0)
(0.190569 0.0037123 0)
(0.189328 0.00361537 0)
(0.188024 0.00352756 0)
(0.186608 0.00342022 0)
(0.185096 0.00326902 0)
(0.183552 0.00309982 0)
(0.182048 0.00295302 0)
(0.180607 0.00284363 0)
(0.179175 0.00275605 0)
(0.177695 0.00267159 0)
(0.176169 0.00257595 0)
(0.174637 0.00246529 0)
(0.173127 0.00236621 0)
(0.171651 0.00228289 0)
(0.170192 0.00221076 0)
(0.168724 0.00213665 0)
(0.167242 0.0020586 0)
(0.165765 0.001982 0)
(0.164314 0.00190672 0)
(0.162888 0.00183969 0)
(0.161485 0.00177583 0)
(0.160096 0.00172092 0)
(0.158724 0.00166181 0)
(0.157365 0.00160494 0)
(0.156017 0.00155472 0)
(0.154686 0.00150024 0)
(0.153374 0.00145261 0)
(0.152079 0.0014103 0)
(0.150806 0.00135819 0)
(0.149555 0.00131585 0)
(0.148322 0.00127764 0)
(0.147104 0.00123361 0)
(0.145903 0.00119343 0)
(0.14472 0.00116132 0)
(0.143554 0.00112575 0)
(0.142415 0.00108133 0)
(0.141304 0.00104778 0)
(0.140207 0.00102567 0)
(0.139122 0.000990231 0)
(0.138051 0.000959535 0)
(0.136999 0.000936102 0)
(0.135966 0.000904852 0)
(0.134954 0.000872395 0)
(0.133963 0.000849477 0)
(0.13299 0.000822656 0)
(0.13203 0.000798536 0)
(0.131085 0.000778668 0)
(0.130157 0.00075472 0)
(0.129248 0.00072823 0)
(0.128359 0.00070805 0)
(0.127487 0.000687345 0)
(0.126628 0.000667684 0)
(0.125784 0.000649476 0)
(0.124955 0.000631069 0)
(0.124144 0.000607634 0)
(0.123347 0.00059213 0)
(0.122567 0.000575756 0)
(0.121801 0.000556256 0)
(0.121052 0.000538376 0)
(0.120316 0.000525513 0)
(0.119598 0.000505719 0)
(0.118893 0.00049156 0)
(0.118204 0.000479505 0)
(0.117526 0.000464009 0)
(0.116869 0.000444652 0)
(0.11622 0.000437791 0)
(0.115591 0.000420426 0)
(0.114969 0.000409915 0)
(0.114371 0.000394187 0)
(0.113769 0.000391104 0)
(0.113203 0.000368856 0)
(0.112611 0.000372724 0)
(0.1121 0.000344736 0)
(0.111471 0.000356454 0)
(0.111117 0.000323983 0)
(0.110238 0.000341984 0)
(0.194589 0.00687005 0)
(0.194845 0.00796674 0)
(0.195687 0.00976228 0)
(0.197003 0.00956707 0)
(0.198264 0.0105481 0)
(0.199193 0.00983964 0)
(0.200234 0.00889344 0)
(0.201344 0.00994864 0)
(0.202062 0.00856052 0)
(0.202229 0.00755362 0)
(0.202715 0.00738454 0)
(0.203194 0.00707701 0)
(0.203123 0.00692154 0)
(0.202937 0.00654978 0)
(0.20265 0.0063979 0)
(0.202311 0.00586144 0)
(0.202128 0.00512306 0)
(0.202053 0.00491396 0)
(0.201999 0.00490508 0)
(0.201845 0.00496215 0)
(0.201489 0.00485101 0)
(0.200996 0.00468183 0)
(0.200449 0.00456651 0)
(0.199869 0.00432174 0)
(0.199336 0.00410308 0)
(0.198865 0.00399626 0)
(0.198353 0.00393299 0)
(0.197732 0.00389474 0)
(0.196992 0.0038019 0)
(0.196163 0.00364475 0)
(0.195318 0.00347947 0)
(0.194527 0.00335653 0)
(0.19377 0.00327539 0)
(0.192964 0.00321573 0)
(0.192067 0.00314751 0)
(0.191107 0.00304889 0)
(0.19013 0.00294303 0)
(0.189171 0.00284495 0)
(0.188232 0.00277233 0)
(0.187276 0.00270849 0)
(0.186272 0.00263596 0)
(0.185223 0.00255925 0)
(0.184159 0.00247822 0)
(0.183099 0.00240227 0)
(0.182047 0.00232781 0)
(0.180997 0.00226521 0)
(0.179949 0.0022009 0)
(0.178898 0.00214334 0)
(0.177836 0.00208968 0)
(0.176765 0.00202632 0)
(0.175686 0.00197269 0)
(0.174601 0.00192183 0)
(0.173521 0.00185663 0)
(0.172452 0.00180841 0)
(0.171393 0.00176555 0)
(0.170337 0.00171235 0)
(0.169279 0.00166398 0)
(0.168217 0.00162647 0)
(0.167151 0.00158103 0)
(0.166099 0.00151836 0)
(0.165077 0.00147479 0)
(0.164071 0.00145192 0)
(0.163063 0.00140861 0)
(0.16205 0.00136931 0)
(0.161041 0.00133989 0)
(0.16004 0.00129784 0)
(0.159054 0.00125329 0)
(0.158088 0.00122299 0)
(0.157138 0.00118861 0)
(0.15619 0.0011579 0)
(0.155246 0.00113192 0)
(0.15431 0.00109814 0)
(0.153388 0.00106188 0)
(0.152483 0.00103441 0)
(0.151594 0.00100589 0)
(0.150714 0.000979102 0)
(0.149843 0.000954923 0)
(0.148982 0.000929782 0)
(0.148135 0.000897588 0)
(0.147299 0.000875559 0)
(0.146475 0.000852924 0)
(0.145661 0.000825488 0)
(0.144861 0.000800879 0)
(0.144074 0.00078218 0)
(0.143301 0.000754533 0)
(0.142539 0.000733779 0)
(0.141789 0.000717122 0)
(0.14105 0.000694038 0)
(0.140329 0.000667455 0)
(0.139618 0.000656012 0)
(0.138924 0.000632359 0)
(0.138236 0.000614851 0)
(0.13757 0.000595231 0)
(0.136902 0.000585909 0)
(0.136264 0.000559271 0)
(0.135604 0.000555539 0)
(0.135023 0.000527795 0)
(0.134319 0.000528507 0)
(0.13391 0.000501832 0)
(0.132911 0.000504722 0)
(0.19503 0.00611201 0)
(0.19555 0.00780305 0)
(0.196269 0.00883517 0)
(0.197259 0.00923654 0)
(0.198359 0.00980016 0)
(0.199105 0.0092509 0)
(0.200044 0.00867313 0)
(0.201398 0.00860116 0)
(0.201912 0.00831382 0)
(0.201955 0.00741697 0)
(0.20256 0.0070463 0)
(0.202994 0.0069483 0)
(0.202823 0.00700662 0)
(0.202707 0.00658292 0)
(0.202599 0.00652264 0)
(0.20249 0.00563501 0)
(0.202495 0.00529311 0)
(0.202544 0.00500283 0)
(0.202663 0.00488251 0)
(0.202723 0.00491378 0)
(0.20264 0.00489238 0)
(0.202514 0.00477797 0)
(0.202349 0.00469928 0)
(0.202103 0.00442001 0)
(0.201896 0.00419925 0)
(0.201783 0.00410929 0)
(0.201671 0.00406515 0)
(0.20149 0.00406563 0)
(0.201221 0.00402666 0)
(0.200879 0.0039062 0)
(0.200507 0.00372649 0)
(0.200169 0.00357123 0)
(0.199878 0.00348922 0)
(0.199557 0.00346778 0)
(0.199152 0.00344227 0)
(0.198684 0.00336175 0)
(0.198193 0.00325843 0)
(0.197712 0.0031549 0)
(0.197251 0.00307984 0)
(0.196782 0.0030331 0)
(0.196263 0.00298865 0)
(0.195684 0.00292648 0)
(0.195066 0.00284952 0)
(0.194434 0.00277641 0)
(0.193798 0.00270256 0)
(0.193158 0.00264116 0)
(0.192516 0.00257175 0)
(0.191871 0.00251591 0)
(0.191212 0.00247167 0)
(0.190535 0.00241356 0)
(0.189831 0.00236806 0)
(0.189096 0.00232247 0)
(0.188344 0.00224982 0)
(0.187591 0.00219447 0)
(0.18684 0.00215118 0)
(0.18609 0.00210014 0)
(0.185335 0.00205279 0)
(0.18456 0.00201865 0)
(0.183753 0.00197827 0)
(0.182931 0.00190395 0)
(0.182132 0.00184315 0)
(0.181357 0.00181777 0)
(0.180583 0.0017763 0)
(0.179792 0.00173778 0)
(0.178984 0.00171038 0)
(0.17816 0.00166406 0)
(0.177333 0.00160885 0)
(0.176525 0.00157082 0)
(0.175735 0.00153066 0)
(0.174944 0.00149802 0)
(0.174143 0.00147333 0)
(0.173334 0.00143459 0)
(0.172523 0.00138935 0)
(0.171723 0.0013554 0)
(0.170936 0.00132117 0)
(0.170155 0.00128877 0)
(0.169376 0.00126064 0)
(0.168599 0.00123091 0)
(0.167829 0.00119236 0)
(0.167064 0.00116621 0)
(0.166303 0.00113965 0)
(0.165544 0.001105 0)
(0.164792 0.00107481 0)
(0.164049 0.00105158 0)
(0.163315 0.00101794 0)
(0.162587 0.000990956 0)
(0.161864 0.000971797 0)
(0.161147 0.000941157 0)
(0.160441 0.000907949 0)
(0.159745 0.000891488 0)
(0.159061 0.000863744 0)
(0.158384 0.000837873 0)
(0.157721 0.000817131 0)
(0.157055 0.000800132 0)
(0.156409 0.000772503 0)
(0.155744 0.000757593 0)
(0.15515 0.000733245 0)
(0.154434 0.000720822 0)
(0.154013 0.000702716 0)
(0.152982 0.00068878 0)
(0.195571 0.00597378 0)
(0.196201 0.00743037 0)
(0.196733 0.00842023 0)
(0.197448 0.00806464 0)
(0.198354 0.0104117 0)
(0.199251 0.00737857 0)
(0.19986 0.00926189 0)
(0.201077 0.00789704 0)
(0.201885 0.00783156 0)
(0.201848 0.00733915 0)
(0.202287 0.006842 0)
(0.202712 0.0067728 0)
(0.202531 0.00682563 0)
(0.202349 0.00683384 0)
(0.20239 0.00638492 0)
(0.202369 0.00570099 0)
(0.202413 0.00521296 0)
(0.202553 0.00489339 0)
(0.202696 0.00484089 0)
(0.202715 0.00503243 0)
(0.202684 0.00487374 0)
(0.202716 0.00477441 0)
(0.202651 0.00469445 0)
(0.202481 0.00458716 0)
(0.202399 0.00423431 0)
(0.202367 0.00411956 0)
(0.20233 0.00408437 0)
(0.202276 0.00411611 0)
(0.202196 0.00411196 0)
(0.202105 0.00399489 0)
(0.201998 0.00381247 0)
(0.201886 0.00364939 0)
(0.20179 0.00356707 0)
(0.201669 0.0035548 0)
(0.201494 0.00356506 0)
(0.2013 0.00350728 0)
(0.201121 0.00339227 0)
(0.200951 0.00327687 0)
(0.200787 0.00319879 0)
(0.200614 0.00316258 0)
(0.200399 0.00315131 0)
(0.200132 0.00311772 0)
(0.199836 0.00304734 0)
(0.199535 0.00297541 0)
(0.199226 0.0029008 0)
(0.198903 0.0028432 0)
(0.198578 0.00277751 0)
(0.198254 0.00272175 0)
(0.197929 0.00267919 0)
(0.197597 0.00263002 0)
(0.197244 0.0026009 0)
(0.196849 0.00256863 0)
(0.196423 0.00250426 0)
(0.195985 0.00244934 0)
(0.195543 0.00239818 0)
(0.1951 0.0023459 0)
(0.194659 0.00230805 0)
(0.194206 0.00228562 0)
(0.193709 0.00225565 0)
(0.19317 0.0021844 0)
(0.192637 0.00211812 0)
(0.192132 0.00208277 0)
(0.191635 0.00203692 0)
(0.191129 0.00200519 0)
(0.190602 0.00198984 0)
(0.190037 0.00194942 0)
(0.189446 0.00189083 0)
(0.188863 0.00184725 0)
(0.188302 0.00180047 0)
(0.187746 0.00176586 0)
(0.187177 0.00174708 0)
(0.186587 0.00171207 0)
(0.18598 0.00166538 0)
(0.18537 0.00162765 0)
(0.184767 0.00158894 0)
(0.184166 0.00155316 0)
(0.183565 0.00152442 0)
(0.182961 0.00149204 0)
(0.182357 0.00144888 0)
(0.181754 0.00142207 0)
(0.181147 0.00139643 0)
(0.180533 0.00135769 0)
(0.179916 0.00132473 0)
(0.179302 0.00129778 0)
(0.178692 0.00126079 0)
(0.178085 0.00123007 0)
(0.177475 0.00121166 0)
(0.176861 0.00117564 0)
(0.176249 0.00113881 0)
(0.175643 0.0011166 0)
(0.175045 0.00108627 0)
(0.174454 0.00105229 0)
(0.173871 0.00103408 0)
(0.173284 0.00100966 0)
(0.172703 0.000984741 0)
(0.172101 0.000959335 0)
(0.171559 0.000939836 0)
(0.170903 0.00091449 0)
(0.170516 0.000904993 0)
(0.169557 0.000876661 0)
(0.196033 0.00565883 0)
(0.196655 0.00725708 0)
(0.197129 0.00789877 0)
(0.197679 0.0077175 0)
(0.198441 0.0093543 0)
(0.199391 0.00790299 0)
(0.199857 0.00747797 0)
(0.200691 0.00812929 0)
(0.201798 0.0073596 0)
(0.201767 0.0071063 0)
(0.201879 0.00688848 0)
(0.202311 0.00679338 0)
(0.20229 0.00688498 0)
(0.202122 0.00680977 0)
(0.202161 0.00677927 0)
(0.202313 0.00555312 0)
(0.20243 0.00500547 0)
(0.202534 0.00483356 0)
(0.202568 0.00474791 0)
(0.202566 0.00488877 0)
(0.202628 0.00482248 0)
(0.202636 0.00486991 0)
(0.202536 0.00510533 0)
(0.202491 0.00432303 0)
(0.202496 0.00422563 0)
(0.202436 0.00413567 0)
(0.202367 0.00409986 0)
(0.202309 0.0041298 0)
(0.202271 0.00408609 0)
(0.202276 0.00401509 0)
(0.202277 0.00384915 0)
(0.202238 0.00370172 0)
(0.202166 0.00359994 0)
(0.202085 0.0036415 0)
(0.202007 0.00362145 0)
(0.201943 0.00354222 0)
(0.201908 0.0034328 0)
(0.201881 0.00331893 0)
(0.201844 0.00324099 0)
(0.201793 0.00320682 0)
(0.201702 0.00320869 0)
(0.20157 0.00319938 0)
(0.201434 0.00313806 0)
(0.20132 0.00306428 0)
(0.201203 0.00299449 0)
(0.201067 0.00293497 0)
(0.20092 0.00286611 0)
(0.200773 0.00281515 0)
(0.200633 0.00276894 0)
(0.200509 0.00271984 0)
(0.200381 0.00270514 0)
(0.200219 0.00268559 0)
(0.200027 0.0026312 0)
(0.19982 0.00258793 0)
(0.199602 0.00253842 0)
(0.19938 0.00247645 0)
(0.199164 0.00243447 0)
(0.198946 0.00243314 0)
(0.198696 0.00242332 0)
(0.198401 0.0023462 0)
(0.198099 0.00227869 0)
(0.197818 0.00224603 0)
(0.19755 0.00219322 0)
(0.197284 0.00216103 0)
(0.197007 0.002162 0)
(0.196688 0.0021356 0)
(0.196329 0.0020779 0)
(0.195968 0.00203057 0)
(0.195628 0.00197904 0)
(0.1953 0.00194431 0)
(0.194964 0.00193119 0)
(0.194605 0.00190151 0)
(0.19422 0.00185959 0)
(0.193824 0.00182349 0)
(0.193428 0.00178311 0)
(0.193031 0.00174546 0)
(0.192631 0.00171857 0)
(0.192225 0.00168689 0)
(0.191818 0.00164005 0)
(0.191413 0.00161238 0)
(0.191001 0.00159189 0)
(0.190576 0.00155361 0)
(0.190138 0.00152189 0)
(0.189697 0.00149349 0)
(0.189255 0.00145397 0)
(0.188816 0.00142142 0)
(0.188371 0.00140745 0)
(0.187916 0.00136913 0)
(0.187451 0.00133331 0)
(0.186984 0.0013079 0)
(0.186519 0.00127513 0)
(0.186062 0.00123259 0)
(0.185613 0.00121861 0)
(0.18516 0.00118989 0)
(0.184703 0.00116976 0)
(0.184223 0.00113775 0)
(0.183783 0.00112412 0)
(0.183245 0.00109059 0)
(0.182928 0.00108602 0)
(0.18213 0.00104792 0)
(0.196665 0.00529738 0)
(0.197059 0.00701755 0)
(0.197352 0.00758808 0)
(0.197901 0.00742099 0)
(0.198596 0.00864258 0)
(0.199468 0.00759051 0)
(0.199974 0.00719309 0)
(0.200628 0.00735428 0)
(0.201434 0.00763222 0)
(0.20145 0.0069313 0)
(0.201568 0.00652449 0)
(0.201938 0.00686621 0)
(0.202004 0.00692893 0)
(0.201942 0.00680529 0)
(0.202117 0.00631542 0)
(0.202396 0.00539196 0)
(0.202425 0.0051558 0)
(0.202444 0.00484235 0)
(0.20247 0.00483763 0)
(0.20248 0.00493684 0)
(0.202512 0.00494785 0)
(0.202414 0.00480767 0)
(0.20237 0.00470342 0)
(0.202483 0.0045327 0)
(0.202477 0.00439788 0)
(0.202375 0.00419532 0)
(0.202289 0.00414126 0)
(0.202241 0.00415773 0)
(0.202235 0.00414305 0)
(0.202261 0.00399224 0)
(0.202276 0.00383623 0)
(0.202243 0.00370371 0)
(0.202168 0.00364026 0)
(0.202083 0.00363883 0)
(0.202044 0.00364451 0)
(0.202052 0.00356593 0)
(0.202068 0.00341475 0)
(0.202071 0.0033229 0)
(0.202052 0.00324984 0)
(0.202007 0.00323907 0)
(0.201948 0.00326597 0)
(0.201877 0.00322288 0)
(0.201812 0.00316357 0)
(0.201779 0.00309549 0)
(0.201751 0.00302901 0)
(0.201699 0.00298397 0)
(0.201634 0.00291116 0)
(0.201562 0.0028544 0)
(0.201487 0.00279628 0)
(0.201438 0.00274789 0)
(0.201409 0.00274116 0)
(0.201362 0.0027277 0)
(0.201301 0.00268289 0)
(0.201231 0.00264144 0)
(0.201142 0.00259892 0)
(0.201041 0.00254604 0)
(0.200944 0.00249049 0)
(0.200853 0.00248333 0)
(0.200737 0.00250995 0)
(0.200592 0.00244536 0)
(0.200451 0.00235993 0)
(0.200323 0.00231814 0)
(0.200198 0.00226666 0)
(0.200079 0.00223247 0)
(0.199961 0.00224617 0)
(0.19981 0.00223815 0)
(0.19962 0.00218979 0)
(0.199428 0.00213844 0)
(0.199257 0.00207243 0)
(0.1991 0.0020364 0)
(0.198938 0.00203474 0)
(0.198754 0.00201234 0)
(0.198545 0.00197719 0)
(0.198323 0.0019443 0)
(0.198101 0.0019017 0)
(0.19788 0.0018636 0)
(0.197653 0.00183896 0)
(0.197416 0.00180933 0)
(0.197178 0.00176279 0)
(0.196944 0.00173346 0)
(0.19671 0.00171592 0)
(0.196462 0.00168129 0)
(0.196198 0.00165475 0)
(0.195924 0.00162801 0)
(0.195645 0.00158688 0)
(0.19537 0.00155218 0)
(0.195093 0.0015436 0)
(0.194804 0.00150642 0)
(0.1945 0.00147439 0)
(0.194185 0.00145079 0)
(0.193862 0.00141692 0)
(0.193547 0.00136702 0)
(0.193243 0.00135475 0)
(0.192939 0.00132375 0)
(0.192629 0.00130928 0)
(0.192295 0.0012765 0)
(0.191984 0.00126732 0)
(0.191592 0.00123376 0)
(0.191359 0.00123038 0)
(0.190766 0.00118713 0)
(0.197251 0.0057548 0)
(0.197254 0.00650912 0)
(0.197501 0.0071193 0)
(0.198096 0.00701565 0)
(0.198764 0.00787652 0)
(0.199487 0.00767537 0)
(0.200021 0.00634686 0)
(0.200461 0.00712721 0)
(0.20103 0.00778577 0)
(0.201373 0.00621054 0)
(0.201384 0.00645503 0)
(0.201561 0.00686481 0)
(0.201759 0.00665696 0)
(0.201845 0.00679655 0)
(0.202124 0.00636464 0)
(0.202387 0.00532778 0)
(0.202366 0.00500364 0)
(0.202379 0.00480992 0)
(0.202403 0.00479258 0)
(0.202361 0.00492194 0)
(0.202326 0.0048935 0)
(0.202276 0.0048617 0)
(0.202299 0.00480572 0)
(0.202393 0.00452962 0)
(0.202372 0.00435036 0)
(0.202277 0.00422392 0)
(0.202195 0.00418966 0)
(0.202168 0.00418531 0)
(0.202195 0.00410041 0)
(0.202242 0.00396713 0)
(0.202234 0.00385994 0)
(0.202174 0.00374111 0)
(0.202086 0.00369561 0)
(0.202016 0.00367473 0)
(0.202017 0.00365205 0)
(0.202067 0.00352725 0)
(0.202095 0.00340384 0)
(0.202076 0.00333936 0)
(0.202033 0.00327625 0)
(0.201981 0.00325904 0)
(0.201932 0.00325993 0)
(0.201879 0.00332229 0)
(0.201852 0.00315838 0)
(0.201847 0.0030733 0)
(0.201846 0.00303598 0)
(0.201836 0.00298772 0)
(0.201807 0.00294275 0)
(0.201755 0.00289417 0)
(0.201683 0.00282944 0)
(0.201643 0.00274312 0)
(0.20164 0.00274369 0)
(0.201633 0.00273708 0)
(0.201627 0.00269376 0)
(0.201621 0.00266056 0)
(0.201597 0.00262803 0)
(0.201551 0.00256929 0)
(0.2015 0.00253344 0)
(0.20146 0.00252253 0)
(0.2014 0.00251983 0)
(0.201322 0.00248398 0)
(0.201266 0.00241165 0)
(0.201225 0.00235631 0)
(0.201172 0.00229648 0)
(0.20112 0.00225369 0)
(0.201073 0.00228149 0)
(0.201006 0.00228231 0)
(0.200914 0.00223371 0)
(0.200823 0.00219478 0)
(0.200756 0.0021211 0)
(0.200704 0.00207361 0)
(0.200644 0.00207595 0)
(0.200561 0.00206568 0)
(0.200455 0.0020389 0)
(0.200342 0.0020109 0)
(0.200237 0.00196446 0)
(0.200138 0.00192589 0)
(0.200031 0.00190469 0)
(0.199911 0.00187382 0)
(0.199785 0.00182683 0)
(0.199666 0.00179981 0)
(0.199553 0.0017838 0)
(0.199435 0.00175053 0)
(0.199303 0.00172944 0)
(0.199157 0.00170751 0)
(0.199004 0.00166635 0)
(0.198854 0.00162905 0)
(0.198706 0.00162304 0)
(0.19855 0.00159041 0)
(0.198381 0.0015623 0)
(0.198197 0.00154312 0)
(0.197998 0.00150922 0)
(0.197801 0.00145539 0)
(0.197619 0.0014433 0)
(0.19744 0.00141051 0)
(0.197258 0.00139765 0)
(0.197058 0.00137078 0)
(0.196869 0.00136363 0)
(0.196619 0.00133612 0)
(0.196467 0.00133346 0)
(0.196068 0.0012887 0)
(0.197388 0.00568394 0)
(0.19741 0.0061816 0)
(0.197772 0.0067503 0)
(0.19834 0.00665758 0)
(0.198872 0.0074542 0)
(0.199474 0.00704919 0)
(0.200048 0.00611399 0)
(0.200346 0.00682706 0)
(0.200804 0.00732009 0)
(0.201251 0.00638987 0)
(0.20118 0.00630895 0)
(0.20131 0.00677368 0)
(0.201639 0.00670944 0)
(0.201821 0.00641902 0)
(0.202051 0.00609331 0)
(0.2023 0.0053093 0)
(0.202289 0.00510464 0)
(0.202281 0.00481654 0)
(0.202279 0.00477844 0)
(0.202214 0.00488606 0)
(0.202173 0.00496941 0)
(0.202168 0.00490698 0)
(0.202214 0.0047383 0)
(0.202283 0.00450728 0)
(0.20226 0.0043951 0)
(0.202182 0.00427096 0)
(0.202116 0.00420972 0)
(0.202115 0.00417207 0)
(0.202172 0.00406574 0)
(0.202209 0.00397522 0)
(0.202171 0.00386869 0)
(0.202088 0.00379546 0)
(0.201996 0.003736 0)
(0.201957 0.0036879 0)
(0.201993 0.0036223 0)
(0.202057 0.00349662 0)
(0.202058 0.00343253 0)
(0.202027 0.00333577 0)
(0.201969 0.00328664 0)
(0.201907 0.00329278 0)
(0.201865 0.00336729 0)
(0.201834 0.00322912 0)
(0.201836 0.00320287 0)
(0.201842 0.00309401 0)
(0.201841 0.00303538 0)
(0.201843 0.00299803 0)
(0.201824 0.00295722 0)
(0.201778 0.00291894 0)
(0.201709 0.0028406 0)
(0.201656 0.00277887 0)
(0.201647 0.00274858 0)
(0.20165 0.00272576 0)
(0.201658 0.00269332 0)
(0.20167 0.00265741 0)
(0.201666 0.00261508 0)
(0.201645 0.00261206 0)
(0.201625 0.0025144 0)
(0.201589 0.00255565 0)
(0.20154 0.0026048 0)
(0.201509 0.0024786 0)
(0.201496 0.00239557 0)
(0.201479 0.00236892 0)
(0.201443 0.00231965 0)
(0.201413 0.00228323 0)
(0.201394 0.00228502 0)
(0.201355 0.00231697 0)
(0.201313 0.0022683 0)
(0.201283 0.00219943 0)
(0.201265 0.00212252 0)
(0.201256 0.00208784 0)
(0.201239 0.00209122 0)
(0.201201 0.00208403 0)
(0.201147 0.00206829 0)
(0.201088 0.0020399 0)
(0.201046 0.00198909 0)
(0.201017 0.00195024 0)
(0.200977 0.00193683 0)
(0.200921 0.0019101 0)
(0.200857 0.00185637 0)
(0.200799 0.00182685 0)
(0.200749 0.00181198 0)
(0.200703 0.00178173 0)
(0.200651 0.00176461 0)
(0.200587 0.00174576 0)
(0.200513 0.00170725 0)
(0.200443 0.00166965 0)
(0.200375 0.00166048 0)
(0.200301 0.00163304 0)
(0.200222 0.00161214 0)
(0.200129 0.00159875 0)
(0.200018 0.00156167 0)
(0.199907 0.00150667 0)
(0.199809 0.00149184 0)
(0.199713 0.0014605 0)
(0.199619 0.00144537 0)
(0.199515 0.00142431 0)
(0.199417 0.00142034 0)
(0.199278 0.00139966 0)
(0.199191 0.00139807 0)