/*--------------------------------*- C++ -*----------------------------------*\
| =========                 |                                                 |
| \\      /  F ield         | OpenFOAM: The Open Source CFD Toolbox           |
|  \\    /   O peration     | Version:  2.3.0                                 |
|   \\  /    A nd           | Web:      www.OpenFOAM.org                      |
|    \\/     M anipulation  |                                                 |
\*---------------------------------------------------------------------------*/
FoamFile
{
    version     2.0;
    format      ascii;
    class       volScalarField;
    location    "0.6";
    object      p;
}
// * * * * * * * * * * * * * * * * * * * * * * * * * * * * * * * * * * * * * //

dimensions      [0 2 -2 0 0 0 0];

internalField   nonuniform List<scalar> 
868
(
0.00125281
0.00118735
0.00098633
0.000788862
0.00063292
0.00050755
0.00039165
0.000271357
0.000142541
6.63878e-06
-0.000132073
-0.000264973
-0.00038101
-0.000469318
-0.000522157
-0.0005392
-0.000525105
-0.000488855
-0.000441323
-0.00038988
-0.00034048
-0.000296582
-0.000259044
-0.000228967
-0.000205407
-0.00018671
-0.000172226
-0.000160881
-0.000151926
-0.000144126
-0.000137371
-0.000131937
-0.000126256
-0.000120487
-0.000115958
-0.00011094
-0.000105424
-0.0001011
-9.64189e-05
-9.04607e-05
-8.5014e-05
-8.00291e-05
-7.37532e-05
-6.70422e-05
-6.03394e-05
-5.26e-05
-4.29958e-05
-3.27735e-05
-2.09697e-05
-8.02854e-06
0.00102528
0.00101227
0.000909311
0.000760881
0.000615583
0.000488196
0.00037234
0.000256653
0.000135102
7.03092e-06
-0.000124354
-0.000250171
-0.000360497
-0.000445741
-0.00049832
-0.000517388
-0.000506306
-0.000473111
-0.000428546
-0.000379702
-0.000332442
-0.000290292
-0.000253972
-0.00022487
-0.000202028
-0.000183801
-0.000169708
-0.000158634
-0.000149924
-0.000142303
-0.000135683
-0.000130451
-0.000124877
-0.000119181
-0.000114837
-0.000109903
-0.000104418
-0.00010027
-9.57032e-05
-8.97447e-05
-8.43716e-05
-7.95204e-05
-7.32742e-05
-6.66001e-05
-5.99848e-05
-5.23277e-05
-4.27204e-05
-3.25688e-05
-2.07915e-05
-7.90531e-06
0.000892285
0.000896505
0.000842276
0.000734132
0.000603276
0.000475141
0.000356677
0.000243213
0.000128825
1.11558e-05
-0.000107872
-0.000221434
-0.00032179
-0.000401145
-0.000452934
-0.00047602
-0.000472058
-0.000446778
-0.000409157
-0.000365697
-0.000322917
-0.00028424
-0.000250201
-0.000222359
-0.000200053
-0.000181955
-0.000167838
-0.000156648
-0.000147852
-0.000140109
-0.000133412
-0.000128272
-0.000122729
-0.000117003
-0.000112839
-0.00010805
-0.000102583
-9.8575e-05
-9.41978e-05
-8.83482e-05
-8.30861e-05
-7.83956e-05
-7.22535e-05
-6.57224e-05
-5.9244e-05
-5.17058e-05
-4.21994e-05
-3.2218e-05
-2.06436e-05
-7.939e-06
0.000791382
0.000797188
0.000765539
0.000687424
0.000576648
0.000456063
0.000339555
0.000229118
0.000121835
1.50836e-05
-9.08845e-05
-0.000191503
-0.000281052
-0.000353398
-0.000403062
-0.000428552
-0.00043056
-0.000412996
-0.000382871
-0.000345956
-0.000308202
-0.000273178
-0.00024183
-0.000215678
-0.000194406
-0.000177007
-0.000163255
-0.000152301
-0.000143697
-0.000136062
-0.000129436
-0.0001244
-0.000119053
-0.000113445
-0.000109369
-0.000104869
-9.95963e-05
-9.5547e-05
-9.13542e-05
-8.59406e-05
-8.07947e-05
-7.60731e-05
-7.01712e-05
-6.39779e-05
-5.76404e-05
-5.02036e-05
-4.09587e-05
-3.12614e-05
-2.00938e-05
-7.75516e-06
0.000701695
0.000705627
0.000684218
0.000626628
0.000537362
0.000431131
0.000321896
0.000216617
0.000116415
1.96871e-05
-7.41252e-05
-0.000162547
-0.000241688
-0.00030697
-0.000353925
-0.00038068
-0.000387449
-0.000376738
-0.000353693
-0.000323271
-0.000290593
-0.000259346
-0.00023092
-0.000206648
-0.00018665
-0.000170228
-0.000157119
-0.000146531
-0.000138017
-0.00013063
-0.000124197
-0.000119088
-0.000113996
-0.000108601
-0.00010438
-0.000100297
-9.53853e-05
-9.09916e-05
-8.69473e-05
-8.23492e-05
-7.7294e-05
-7.23039e-05
-6.68276e-05
-6.11579e-05
-5.49008e-05
-4.75926e-05
-3.8868e-05
-2.95864e-05
-1.89477e-05
-7.11944e-06
0.000618994
0.000620852
0.000605089
0.000561967
0.000491586
0.000401888
0.000303778
0.000206238
0.000113377
2.54315e-05
-5.7891e-05
-0.000135419
-0.000204973
-0.000263418
-0.000307144
-0.000334264
-0.000344728
-0.000339806
-0.000323151
-0.0002989
-0.000271216
-0.000243824
-0.000218403
-0.000196144
-0.000177582
-0.000162158
-0.000149762
-0.000139732
-0.000131304
-0.000124167
-0.000118057
-0.000112863
-0.000107957
-0.000102822
-9.84978e-05
-9.48963e-05
-9.02876e-05
-8.53761e-05
-8.15779e-05
-7.80236e-05
-7.29832e-05
-6.75195e-05
-6.26277e-05
-5.76401e-05
-5.14043e-05
-4.42284e-05
-3.6159e-05
-2.74237e-05
-1.74059e-05
-6.26775e-06
0.000542087
0.000542409
0.000530355
0.000497775
0.000442778
0.000369007
0.000283931
0.000196191
0.000111414
3.15581e-05
-4.27747e-05
-0.000110931
-0.000171855
-0.000223713
-0.000263783
-0.000290278
-0.000303212
-0.000302913
-0.000291749
-0.000273184
-0.000250323
-0.000226788
-0.00020443
-0.00018421
-0.000167225
-0.000152927
-0.000141188
-0.000131806
-0.000123652
-0.00011674
-0.000111016
-0.000105965
-0.000101219
-9.6203e-05
-9.19077e-05
-8.896e-05
-8.46004e-05
-7.90862e-05
-7.56607e-05
-7.31962e-05
-6.80889e-05
-6.21607e-05
-5.80214e-05
-5.37745e-05
-4.74819e-05
-4.04347e-05
-3.31621e-05
-2.5133e-05
-1.57734e-05
-5.47936e-06
0.000470368
0.000469731
0.000460488
0.000435685
0.000392929
0.000333271
0.000261445
0.000184625
0.000108789
3.69443e-05
-2.92891e-05
-8.93147e-05
-0.000142566
-0.000188133
-0.000224199
-0.000249161
-0.000263295
-0.000266387
-0.000259736
-0.000246179
-0.00022784
-0.000208157
-0.000188928
-0.000170732
-0.000155355
-0.00014238
-0.000131419
-0.000122675
-0.000114936
-0.00010837
-0.000102992
-9.82181e-05
-9.39363e-05
-8.90149e-05
-8.45635e-05
-8.23481e-05
-7.84603e-05
-7.23385e-05
-6.92299e-05
-6.78971e-05
-6.2803e-05
-5.64361e-05
-5.30536e-05
-4.95873e-05
-4.33107e-05
-3.64893e-05
-3.00211e-05
-2.27427e-05
-1.41426e-05
-4.82762e-06
0.000403218
0.000402035
0.000395065
0.000376364
0.00034325
0.00029557
0.000236156
0.000170606
0.000104357
4.07474e-05
-1.7794e-05
-7.03916e-05
-0.000116736
-0.000156379
-0.000188153
-0.000210928
-0.000225187
-0.000230384
-0.000227297
-0.000218051
-0.000203785
-0.000187755
-0.000171631
-0.000155697
-0.000142002
-0.000130247
-0.000120293
-0.000112377
-0.000105038
-9.9019e-05
-9.41032e-05
-8.94384e-05
-8.5793e-05
-8.13646e-05
-7.67111e-05
-7.49719e-05
-7.16914e-05
-6.51942e-05
-6.23545e-05
-6.2075e-05
-5.7087e-05
-5.03939e-05
-4.77738e-05
-4.51243e-05
-3.89181e-05
-3.24039e-05
-2.6767e-05
-2.02933e-05
-1.25399e-05
-4.24536e-06
0.000339685
0.000338442
0.000333506
0.000319813
0.000294436
0.000256769
0.000208484
0.000153838
9.74566e-05
4.24209e-05
-8.46185e-06
-5.39813e-05
-9.38615e-05
-0.0001279
-0.000155366
-0.000175488
-0.000188976
-0.000195227
-0.00019472
-0.000188953
-0.0001783
-0.000165696
-0.000152476
-0.000138899
-0.000127155
-0.000116629
-0.000107683
-0.000100814
-9.39596e-05
-8.84881e-05
-8.43202e-05
-7.98694e-05
-7.66448e-05
-7.2901e-05
-6.83828e-05
-6.68882e-05
-6.41295e-05
-5.77182e-05
-5.52074e-05
-5.55956e-05
-5.07246e-05
-4.40754e-05
-4.22709e-05
-4.03444e-05
-3.42615e-05
-2.81763e-05
-2.34487e-05
-1.78054e-05
-1.0911e-05
-3.6686e-06
0.000273957
0.000273154
0.000270629
0.0002616
0.000243082
0.000214407
0.000176696
0.000133049
8.71503e-05
4.15378e-05
-8.66691e-07
-3.88148e-05
-7.20444e-05
-0.000100214
-0.000123069
-0.00014016
-0.000152119
-0.000158568
-0.000159861
-0.000156887
-0.000149533
-0.000140343
-0.000130088
-0.000118855
-0.000109254
-0.000100476
-9.26587e-05
-8.68123e-05
-8.08242e-05
-7.59372e-05
-7.25062e-05
-6.86903e-05
-6.58301e-05
-6.26473e-05
-5.8826e-05
-5.76537e-05
-5.49212e-05
-4.8871e-05
-4.7236e-05
-4.81872e-05
-4.3263e-05
-3.68666e-05
-3.59519e-05
-3.47303e-05
-2.89924e-05
-2.35582e-05
-1.97927e-05
-1.50151e-05
-9.08324e-06
-3.04971e-06
0.000202498
0.000202173
0.000202103
0.000197504
0.000185392
0.000165218
0.00013798
0.000105998
7.15813e-05
3.68602e-05
4.52225e-06
-2.4697e-05
-5.03485e-05
-7.18421e-05
-8.94089e-05
-0.000102893
-0.000112581
-0.000118296
-0.000120452
-0.000119583
-0.000115263
-0.000109163
-0.000102003
-9.38245e-05
-8.63957e-05
-7.95023e-05
-7.35568e-05
-6.88859e-05
-6.39498e-05
-6.00898e-05
-5.74156e-05
-5.44263e-05
-5.20657e-05
-4.93365e-05
-4.67286e-05
-4.63449e-05
-4.33087e-05
-3.75863e-05
-3.72742e-05
-3.88951e-05
-3.39537e-05
-2.81558e-05
-2.82866e-05
-2.77305e-05
-2.25389e-05
-1.79994e-05
-1.53661e-05
-1.17086e-05
-6.95522e-06
-2.32095e-06
0.000125768
0.00012585
0.000127309
0.00012593
0.000119469
0.000107489
9.05645e-05
7.08364e-05
4.90893e-05
2.67468e-05
6.13683e-06
-1.28155e-05
-2.94316e-05
-4.32497e-05
-5.48323e-05
-6.37035e-05
-7.0143e-05
-7.43885e-05
-7.63406e-05
-7.63641e-05
-7.4626e-05
-7.13128e-05
-6.67363e-05
-6.21054e-05
-5.75967e-05
-5.25925e-05
-4.88475e-05
-4.59627e-05
-4.23801e-05
-3.98213e-05
-3.80679e-05
-3.61794e-05
-3.4817e-05
-3.25438e-05
-3.06906e-05
-3.12631e-05
-2.9037e-05
-2.42644e-05
-2.45437e-05
-2.63925e-05
-2.23529e-05
-1.78755e-05
-1.86923e-05
-1.87107e-05
-1.47335e-05
-1.15094e-05
-1.00266e-05
-7.67212e-06
-4.41908e-06
-1.40838e-06
4.29757e-05
4.30829e-05
4.40339e-05
4.3978e-05
4.20043e-05
3.80989e-05
3.22364e-05
2.54892e-05
1.80048e-05
1.01072e-05
2.96508e-06
-3.68937e-06
-9.61786e-06
-1.44415e-05
-1.85267e-05
-2.17173e-05
-2.40322e-05
-2.56343e-05
-2.64877e-05
-2.65706e-05
-2.61468e-05
-2.52859e-05
-2.37056e-05
-2.2081e-05
-2.06193e-05
-1.88824e-05
-1.75949e-05
-1.64529e-05
-1.50496e-05
-1.43753e-05
-1.37597e-05
-1.27668e-05
-1.23477e-05
-1.17716e-05
-1.11484e-05
-1.13638e-05
-1.03041e-05
-8.29045e-06
-8.71952e-06
-9.82006e-06
-8.11464e-06
-6.10864e-06
-6.53911e-06
-6.7388e-06
-5.21347e-06
-4.03096e-06
-3.57425e-06
-2.7259e-06
-1.52439e-06
-4.517e-07
0.000163358
0.000195433
0.000224246
0.000260156
0.00029993
0.000355388
0.000421696
0.00050787
0.000610722
0.00074427
0.000904032
0.00108932
0.000166751
0.000191709
0.000222365
0.000256653
0.000298953
0.000351576
0.000419356
0.000500589
0.00060055
0.000715979
0.000845772
0.000959915
0.000168229
0.00018814
0.000218921
0.000253554
0.000296271
0.000347779
0.000413441
0.000489897
0.00058022
0.000677335
0.000775851
0.000851681
0.00016869
0.00018488
0.000214171
0.000249229
0.000291441
0.000341826
0.000403531
0.000474044
0.000552067
0.000632422
0.000707383
0.000763001
0.000167509
0.000181435
0.000208593
0.00024327
0.000284387
0.000332811
0.000389679
0.000452667
0.000518922
0.000584267
0.000641827
0.000682528
0.000164541
0.000177259
0.000202186
0.000235477
0.00027474
0.000320141
0.000371568
0.000426632
0.000482086
0.000534455
0.000578292
0.00060699
0.000159856
0.000171769
0.000194595
0.000225637
0.000262187
0.000303629
0.000349265
0.000396572
0.000442266
0.000483521
0.000516219
0.000535455
0.0001534
0.000164544
0.00018524
0.000213459
0.000246557
0.00028338
0.000323003
0.000362936
0.000399959
0.0004318
0.00045552
0.000467569
0.000144984
0.000155237
0.00017366
0.000198619
0.000227732
0.000259555
0.000293096
0.000326119
0.000355615
0.000379641
0.000396154
0.000402918
0.000134304
0.000143494
0.000159442
0.000180824
0.000205623
0.000232317
0.000259927
0.000286527
0.000309541
0.000327293
0.000338126
0.000340883
0.000119961
0.000127853
0.00014096
0.00015829
0.000178284
0.000199507
0.000221051
0.000241362
0.000258362
0.000270764
0.000277088
0.000276524
9.91668e-05
0.000105409
0.000115168
0.000127804
0.000142314
0.000157552
0.000172718
0.000186706
0.000198044
0.000205636
0.000208303
0.000205738
6.88603e-05
7.30163e-05
7.90449e-05
8.66173e-05
9.52442e-05
0.000104253
0.000113032
0.000120866
0.000127138
0.000130919
0.000131255
0.000128485
2.56386e-05
2.71745e-05
2.92108e-05
3.16615e-05
3.43926e-05
3.72177e-05
3.99392e-05
4.22819e-05
4.41511e-05
4.51954e-05
4.49741e-05
4.38989e-05
)
;

boundaryField
{
    top
    {
        type            fixedValue;
        value           uniform 0;
    }
    inlet
    {
        type            zeroGradient;
    }
    outlet
    {
        type            fixedValue;
        value           uniform 0;
    }
    plate
    {
        type            zeroGradient;
    }
    symmBound
    {
        type            zeroGradient;
    }
    frontAndBack
    {
        type            empty;
    }
}


// ************************************************************************* //
