/*--------------------------------*- C++ -*----------------------------------*\
| =========                 |                                                 |
| \\      /  F ield         | OpenFOAM: The Open Source CFD Toolbox           |
|  \\    /   O peration     | Version:  2.3.0                                 |
|   \\  /    A nd           | Web:      www.OpenFOAM.org                      |
|    \\/     M anipulation  |                                                 |
\*---------------------------------------------------------------------------*/
FoamFile
{
    version     2.0;
    format      ascii;
    class       surfaceScalarField;
    location    "0.85";
    object      phi;
}
// * * * * * * * * * * * * * * * * * * * * * * * * * * * * * * * * * * * * * //

dimensions      [0 3 -1 0 0 0 0];

internalField   nonuniform List<scalar> 
5764
(
2.00245e-08
5.01075e-09
-2.50352e-08
1.48945e-08
5.13e-09
1.09258e-08
3.96866e-09
8.23224e-09
2.6936e-09
6.59109e-09
1.64115e-09
5.64073e-09
9.50357e-10
5.07066e-09
5.70071e-10
4.6909e-09
3.79763e-10
4.40182e-09
2.89077e-10
4.15927e-09
2.42551e-10
3.9469e-09
2.12371e-10
3.75898e-09
1.8792e-10
3.59245e-09
1.66528e-10
3.44444e-09
1.48014e-10
3.31206e-09
1.32376e-10
3.19275e-09
1.19316e-10
3.08438e-09
1.08367e-10
2.9853e-09
9.90816e-11
2.89421e-09
9.10879e-11
2.81008e-09
8.41284e-11
2.73208e-09
7.80036e-11
2.6595e-09
7.25782e-11
2.59176e-09
6.77433e-11
2.52835e-09
6.34093e-11
2.46884e-09
5.95115e-11
2.41285e-09
5.59855e-11
2.36006e-09
5.27864e-11
2.31019e-09
4.98718e-11
2.26298e-09
4.72074e-11
2.21822e-09
4.47639e-11
2.1757e-09
4.2519e-11
2.13525e-09
4.04466e-11
2.09672e-09
3.85372e-11
2.05996e-09
3.67615e-11
2.02483e-09
3.51256e-11
1.99124e-09
3.35895e-11
1.95906e-09
3.21777e-11
1.92822e-09
3.08404e-11
1.89861e-09
2.9612e-11
1.87017e-09
2.84401e-11
1.8428e-09
2.73694e-11
1.81647e-09
2.63289e-11
1.79107e-09
2.53989e-11
1.76661e-09
2.44663e-11
1.74295e-09
2.36535e-11
1.72014e-09
2.28172e-11
1.69803e-09
2.21026e-11
1.67669e-09
2.13431e-11
1.65597e-09
2.07239e-11
1.63595e-09
2.00187e-11
1.61646e-09
1.94918e-11
1.59763e-09
1.88281e-11
1.57924e-09
1.83872e-11
1.56149e-09
1.77547e-11
1.5441e-09
1.73905e-11
1.52731e-09
1.67827e-11
1.51081e-09
1.64996e-11
1.49492e-09
1.58894e-11
1.47921e-09
1.57095e-11
1.46413e-09
1.50831e-11
1.44914e-09
1.4993e-11
1.43478e-09
1.43552e-11
1.42041e-09
1.43694e-11
1.40674e-09
1.36774e-11
1.39289e-09
1.38504e-11
1.37981e-09
1.3073e-11
1.3664e-09
1.34124e-11
1.35386e-09
1.25403e-11
1.34077e-09
1.30948e-11
1.32869e-09
1.20732e-11
1.31576e-09
1.29317e-11
1.30407e-09
1.1695e-11
1.29109e-09
1.2975e-11
1.27965e-09
1.14416e-11
1.44383e-11
2.69244e-08
4.90538e-09
-2.6819e-08
2.55753e-08
6.4791e-09
2.35613e-08
5.98259e-09
2.14036e-08
4.85137e-09
1.93768e-08
3.66796e-09
1.7608e-08
2.71914e-09
1.61243e-08
2.05374e-09
1.49063e-08
1.59781e-09
1.39104e-08
1.28493e-09
1.30874e-08
1.06557e-09
1.23935e-08
9.06282e-10
1.1796e-08
7.85356e-10
1.12729e-08
6.89657e-10
1.08091e-08
6.11858e-10
1.03938e-08
5.47635e-10
1.00191e-08
4.94075e-10
9.67848e-09
4.4894e-10
9.36707e-09
4.1049e-10
9.08082e-09
3.7734e-10
8.81646e-09
3.48489e-10
8.57133e-09
3.23132e-10
8.3432e-09
3.00704e-10
8.13022e-09
2.80727e-10
7.93078e-09
2.62843e-10
7.74355e-09
2.46749e-10
7.56733e-09
2.32207e-10
7.40111e-09
2.18999e-10
7.24401e-09
2.06978e-10
7.09524e-09
1.95974e-10
6.95411e-09
1.85896e-10
6.82001e-09
1.76613e-10
6.69239e-09
1.68067e-10
6.57078e-09
1.60155e-10
6.4547e-09
1.52835e-10
6.34379e-09
1.46036e-10
6.23767e-09
1.39709e-10
6.13603e-09
1.3382e-10
6.03855e-09
1.28317e-10
5.94499e-09
1.23175e-10
5.85507e-09
1.18359e-10
5.76859e-09
1.13849e-10
5.68532e-09
1.09597e-10
5.60509e-09
1.05635e-10
5.5277e-09
1.01853e-10
5.453e-09
9.83515e-11
5.38084e-09
9.49811e-11
5.31108e-09
9.18646e-11
5.24358e-09
8.88398e-11
5.17823e-09
8.60735e-11
5.11492e-09
8.3325e-11
5.05354e-09
8.088e-11
4.994e-09
7.83612e-11
4.93619e-09
7.6204e-11
4.88006e-09
7.38789e-11
4.82548e-09
7.19718e-11
4.77244e-09
6.98189e-11
4.72079e-09
6.8152e-11
4.67057e-09
6.61086e-11
4.62156e-09
6.47176e-11
4.5739e-09
6.27446e-11
4.52731e-09
6.15901e-11
4.48196e-09
5.97025e-11
4.43753e-09
5.87973e-11
4.39429e-09
5.6913e-11
4.35178e-09
5.63653e-11
4.31043e-09
5.44183e-11
4.26961e-09
5.42391e-11
4.22992e-09
5.22323e-11
4.1905e-09
5.2508e-11
4.15221e-09
5.03634e-11
4.11388e-09
5.12655e-11
4.07666e-09
4.89101e-11
4.03899e-09
5.06531e-11
4.00231e-09
4.81179e-11
5.34731e-11
2.83082e-08
4.2727e-09
-2.76755e-08
2.86202e-08
6.16704e-09
2.83092e-08
6.2936e-09
2.75911e-08
5.56952e-09
2.66291e-08
4.62992e-09
2.55491e-08
3.79912e-09
2.44388e-08
3.16413e-09
2.33505e-08
2.68604e-09
2.23187e-08
2.31681e-09
2.13598e-08
2.0244e-09
2.04774e-08
1.78874e-09
1.96677e-08
1.59501e-09
1.89251e-08
1.43223e-09
1.82436e-08
1.29337e-09
1.76173e-08
1.17394e-09
1.70406e-08
1.07081e-09
1.65081e-08
9.81405e-10
1.60151e-08
9.03552e-10
1.55571e-08
8.35297e-10
1.51305e-08
7.75128e-10
1.47319e-08
7.21703e-10
1.43586e-08
6.74059e-10
1.4008e-08
6.31301e-10
1.3678e-08
5.92797e-10
1.33668e-08
5.57928e-10
1.30728e-08
5.26281e-10
1.27944e-08
4.97386e-10
1.25304e-08
4.70998e-10
1.22796e-08
4.46729e-10
1.20411e-08
4.24453e-10
1.18138e-08
4.03837e-10
1.15971e-08
3.84837e-10
1.13901e-08
3.67156e-10
1.11921e-08
3.50805e-10
1.10026e-08
3.35519e-10
1.0821e-08
3.21336e-10
1.06468e-08
3.08021e-10
1.04794e-08
2.95646e-10
1.03187e-08
2.83959e-10
1.01639e-08
2.73104e-10
1.0015e-08
2.62793e-10
9.87137e-09
2.53205e-10
9.73292e-09
2.44079e-10
9.59921e-09
2.35561e-10
9.47014e-09
2.27431e-10
9.34526e-09
2.19854e-10
9.22457e-09
2.12558e-10
9.10762e-09
2.05786e-10
8.99447e-09
1.9923e-10
8.88466e-09
1.93131e-10
8.77831e-09
1.87234e-10
8.67495e-09
1.81715e-10
8.57476e-09
1.76394e-10
8.47726e-09
1.71385e-10
8.38268e-09
1.66552e-10
8.29049e-09
1.62009e-10
8.20102e-09
1.57619e-10
8.11368e-09
1.53445e-10
8.02888e-09
1.49524e-10
7.94596e-09
1.45659e-10
7.86543e-09
1.42119e-10
7.78654e-09
1.38596e-10
7.70991e-09
1.35426e-10
7.63469e-09
1.32138e-10
7.56158e-09
1.29474e-10
7.48965e-09
1.26346e-10
7.41972e-09
1.2417e-10
7.3507e-09
1.21252e-10
7.28355e-09
1.19655e-10
7.21702e-09
1.16899e-10
7.15219e-09
1.16089e-10
7.08762e-09
1.13487e-10
7.02449e-09
1.1378e-10
6.96116e-09
1.11444e-10
1.16966e-10
2.91278e-08
3.86326e-09
-2.87184e-08
2.97212e-08
5.57362e-09
3.00071e-08
6.00776e-09
3.001e-08
5.56661e-09
2.97926e-08
4.84728e-09
2.94116e-08
4.18013e-09
2.89157e-08
3.66001e-09
2.83407e-08
3.26103e-09
2.77175e-08
2.93999e-09
2.70704e-08
2.67157e-09
2.64155e-08
2.44365e-09
2.57629e-08
2.24759e-09
2.51194e-08
2.07571e-09
2.44902e-08
1.92261e-09
2.38791e-08
1.78496e-09
2.32891e-08
1.66087e-09
2.27216e-08
1.54884e-09
2.21776e-08
1.44762e-09
2.1657e-08
1.35588e-09
2.11595e-08
1.27262e-09
2.06844e-08
1.19674e-09
2.0231e-08
1.12754e-09
1.97981e-08
1.06415e-09
1.93848e-08
1.0061e-09
1.89901e-08
9.52678e-10
1.86128e-08
9.03557e-10
1.82521e-08
8.58122e-10
1.79068e-08
8.16218e-10
1.75763e-08
7.77256e-10
1.72595e-08
7.41229e-10
1.69558e-08
7.07565e-10
1.66643e-08
6.76375e-10
1.63843e-08
6.47085e-10
1.61152e-08
6.19911e-10
1.58565e-08
5.94269e-10
1.56074e-08
5.70457e-10
1.53675e-08
5.47875e-10
1.51362e-08
5.26919e-10
1.49133e-08
5.06907e-10
1.4698e-08
4.88394e-10
1.44902e-08
4.70574e-10
1.42893e-08
4.54136e-10
1.40951e-08
4.38213e-10
1.39071e-08
4.2356e-10
1.37253e-08
4.09245e-10
1.3549e-08
3.96175e-10
1.33784e-08
3.83215e-10
1.32126e-08
3.71525e-10
1.30521e-08
3.59758e-10
1.2896e-08
3.49253e-10
1.27447e-08
3.38536e-10
1.25973e-08
3.29078e-10
1.24544e-08
3.19264e-10
1.23151e-08
3.10749e-10
1.21799e-08
3.01686e-10
1.20479e-08
2.94054e-10
1.19199e-08
2.85646e-10
1.17945e-08
2.78767e-10
1.1673e-08
2.71016e-10
1.15539e-08
2.64815e-10
1.14384e-08
2.57568e-10
1.13249e-08
2.52105e-10
1.12151e-08
2.45307e-10
1.11067e-08
2.40466e-10
1.10019e-08
2.34258e-10
1.08983e-08
2.29974e-10
1.07982e-08
2.24285e-10
1.06988e-08
2.20678e-10
1.06028e-08
2.15587e-10
1.05071e-08
2.12658e-10
1.04148e-08
2.08411e-10
1.0322e-08
2.06198e-10
1.02325e-08
2.03339e-10
1.01421e-08
2.01849e-10
2.05555e-10
3.00302e-08
3.62069e-09
-2.97876e-08
3.05685e-08
5.03529e-09
3.09673e-08
5.609e-09
3.11777e-08
5.35623e-09
3.12442e-08
4.78073e-09
3.12022e-08
4.22219e-09
3.10728e-08
3.78937e-09
3.08705e-08
3.46334e-09
3.06092e-08
3.2013e-09
3.03023e-08
2.97846e-09
2.99604e-08
2.78554e-09
2.95906e-08
2.61741e-09
2.9198e-08
2.46836e-09
2.87871e-08
2.33344e-09
2.83627e-08
2.20934e-09
2.79292e-08
2.09445e-09
2.74903e-08
1.98768e-09
2.70495e-08
1.88842e-09
2.66096e-08
1.79578e-09
2.61729e-08
1.70935e-09
2.57413e-08
1.62834e-09
2.53163e-08
1.55257e-09
2.48991e-08
1.48137e-09
2.44905e-08
1.41468e-09
2.40913e-08
1.35189e-09
2.37018e-08
1.29305e-09
2.33224e-08
1.23751e-09
2.29531e-08
1.18548e-09
2.25941e-08
1.13622e-09
2.22453e-08
1.09011e-09
2.19065e-08
1.04631e-09
2.15775e-08
1.00535e-09
2.12583e-08
9.66303e-10
2.09484e-08
9.29837e-10
2.06478e-08
8.94918e-10
2.03558e-08
8.62371e-10
2.00727e-08
8.31044e-10
1.97976e-08
8.0195e-10
1.95308e-08
7.73732e-10
1.92715e-08
7.47692e-10
1.90199e-08
7.2219e-10
1.87752e-08
6.98819e-10
1.85377e-08
6.75716e-10
1.83066e-08
6.54699e-10
1.80822e-08
6.33661e-10
1.78636e-08
6.14781e-10
1.76513e-08
5.95504e-10
1.74443e-08
5.78533e-10
1.72432e-08
5.60812e-10
1.70469e-08
5.45524e-10
1.68563e-08
5.29171e-10
1.667e-08
5.15408e-10
1.6489e-08
5.00225e-10
1.63119e-08
4.87866e-10
1.61399e-08
4.73646e-10
1.59714e-08
4.6263e-10
1.58078e-08
4.49223e-10
1.56471e-08
4.39407e-10
1.54914e-08
4.26786e-10
1.53381e-08
4.18092e-10
1.51896e-08
4.06036e-10
1.50432e-08
3.98566e-10
1.49015e-08
3.86966e-10
1.47614e-08
3.80606e-10
1.4626e-08
3.69599e-10
1.44917e-08
3.64311e-10
1.43622e-08
3.53768e-10
1.42331e-08
3.49742e-10
1.4109e-08
3.39741e-10
1.39846e-08
3.37014e-10
1.38652e-08
3.2788e-10
1.37449e-08
3.26472e-10
1.36291e-08
3.19097e-10
1.35121e-08
3.18828e-10
3.1891e-10
3.10011e-08
3.46174e-09
-3.08421e-08
3.14452e-08
4.59113e-09
3.18423e-08
5.21197e-09
3.20896e-08
5.10889e-09
3.2224e-08
4.64635e-09
3.22882e-08
4.15802e-09
3.23005e-08
3.77702e-09
3.22678e-08
3.49607e-09
3.21952e-08
3.27387e-09
3.20891e-08
3.0846e-09
3.19549e-08
2.9197e-09
3.17958e-08
2.77648e-09
3.16133e-08
2.65091e-09
3.14082e-08
2.53846e-09
3.11823e-08
2.43526e-09
3.09374e-08
2.33938e-09
3.06757e-08
2.24939e-09
3.03993e-08
2.16483e-09
3.01104e-08
2.0847e-09
2.98109e-08
2.00886e-09
2.95028e-08
1.93639e-09
2.91879e-08
1.86746e-09
2.8868e-08
1.8013e-09
2.85444e-08
1.73825e-09
2.82187e-08
1.67757e-09
2.7892e-08
1.61975e-09
2.75656e-08
1.56395e-09
2.72402e-08
1.51089e-09
2.69169e-08
1.45954e-09
2.65961e-08
1.41086e-09
2.62788e-08
1.36362e-09
2.59651e-08
1.31902e-09
2.56559e-08
1.27559e-09
2.53509e-08
1.23475e-09
2.50511e-08
1.19482e-09
2.4756e-08
1.15745e-09
2.44663e-08
1.1207e-09
2.41817e-08
1.08657e-09
2.39027e-08
1.0527e-09
2.36288e-08
1.02157e-09
2.33607e-08
9.90313e-10
2.30976e-08
9.61918e-10
2.28403e-08
9.33058e-10
2.25878e-08
9.07167e-10
2.23411e-08
8.80416e-10
2.2099e-08
8.56886e-10
2.18625e-08
8.31962e-10
2.16304e-08
8.10617e-10
2.14039e-08
7.87337e-10
2.11814e-08
7.67983e-10
2.09644e-08
7.46156e-10
2.07512e-08
7.28661e-10
2.05433e-08
7.08077e-10
2.03389e-08
6.92342e-10
2.01397e-08
6.72768e-10
1.99436e-08
6.58769e-10
1.97528e-08
6.40017e-10
1.95646e-08
6.27626e-10
1.93817e-08
6.0966e-10
1.9201e-08
5.98811e-10
1.90257e-08
5.81357e-10
1.8852e-08
5.72215e-10
1.86839e-08
5.55116e-10
1.85169e-08
5.47585e-10
1.83555e-08
5.30984e-10
1.81948e-08
5.25057e-10
1.80398e-08
5.08785e-10
1.78848e-08
5.04712e-10
1.77356e-08
4.88879e-10
1.75859e-08
4.86709e-10
1.74421e-08
4.71766e-10
1.72971e-08
4.71457e-10
1.71575e-08
4.58681e-10
1.70164e-08
4.59919e-10
4.54986e-10
3.20116e-08
3.34059e-09
-3.18904e-08
3.23678e-08
4.2349e-09
3.27399e-08
4.83993e-09
3.2992e-08
4.85673e-09
3.31374e-08
4.50098e-09
3.32235e-08
4.07195e-09
3.3275e-08
3.72551e-09
3.32989e-08
3.47212e-09
3.32981e-08
3.27473e-09
3.32763e-08
3.10641e-09
3.32378e-08
2.95814e-09
3.31851e-08
2.82924e-09
3.31184e-08
2.71759e-09
3.30371e-08
2.61972e-09
3.2941e-08
2.53143e-09
3.28298e-08
2.45057e-09
3.2704e-08
2.37518e-09
3.2564e-08
2.30487e-09
3.24104e-08
2.23828e-09
3.22438e-08
2.17545e-09
3.20651e-08
2.11506e-09
3.1875e-08
2.05756e-09
3.16746e-08
2.00172e-09
3.14646e-08
1.94827e-09
3.12461e-08
1.89602e-09
3.10199e-08
1.84594e-09
3.07872e-08
1.79666e-09
3.05486e-08
1.7495e-09
3.03053e-08
1.70284e-09
3.00578e-08
1.65837e-09
2.98073e-08
1.61416e-09
2.9554e-08
1.57229e-09
2.92992e-08
1.53044e-09
2.90428e-08
1.49107e-09
2.87862e-08
1.45148e-09
2.85291e-08
1.41454e-09
2.82727e-08
1.3771e-09
2.80167e-08
1.34254e-09
2.77623e-08
1.30711e-09
2.7509e-08
1.27492e-09
2.72579e-08
1.24141e-09
2.70083e-08
1.21148e-09
2.67615e-08
1.17982e-09
2.65166e-08
1.15207e-09
2.6275e-08
1.12207e-09
2.60354e-08
1.09648e-09
2.57994e-08
1.06793e-09
2.55656e-08
1.04443e-09
2.53357e-08
1.01723e-09
2.5108e-08
9.95723e-10
2.48844e-08
9.69728e-10
2.46629e-08
9.50152e-10
2.44458e-08
9.25182e-10
2.42307e-08
9.07492e-10
2.40201e-08
8.83326e-10
2.38113e-08
8.67587e-10
2.36073e-08
8.44027e-10
2.34047e-08
8.30156e-10
2.32072e-08
8.07194e-10
2.30109e-08
7.95145e-10
2.28197e-08
7.72481e-10
2.26294e-08
7.62514e-10
2.24446e-08
7.39966e-10
2.22602e-08
7.32017e-10
2.20814e-08
7.09756e-10
2.19026e-08
7.03838e-10
2.17297e-08
6.81703e-10
2.15563e-08
6.78119e-10
2.13889e-08
6.56285e-10
2.12205e-08
6.55075e-10
2.10581e-08
6.34155e-10
2.08944e-08
6.35215e-10
2.07362e-08
6.1683e-10
2.05763e-08
6.1982e-10
6.09244e-10
3.30508e-08
3.23262e-09
-3.29428e-08
3.33343e-08
3.95141e-09
3.36711e-08
4.5031e-09
3.39219e-08
4.60596e-09
3.40713e-08
4.35158e-09
3.41604e-08
3.98284e-09
3.42201e-08
3.6658e-09
3.42599e-08
3.43228e-09
3.42819e-08
3.25273e-09
3.42888e-08
3.09956e-09
3.42847e-08
2.96222e-09
3.42727e-08
2.84122e-09
3.4254e-08
2.73631e-09
3.42281e-08
2.64564e-09
3.41944e-08
2.56511e-09
3.41523e-08
2.49265e-09
3.41017e-08
2.4258e-09
3.40421e-08
2.36444e-09
3.39736e-08
2.30679e-09
3.38958e-08
2.2533e-09
3.38087e-08
2.20207e-09
3.37123e-08
2.15399e-09
3.36068e-08
2.1072e-09
3.34922e-08
2.06295e-09
3.33688e-08
2.01933e-09
3.32368e-08
1.97797e-09
3.30968e-08
1.93667e-09
3.29488e-08
1.89752e-09
3.27936e-08
1.85797e-09
3.26314e-08
1.82065e-09
3.2463e-08
1.78256e-09
3.22883e-08
1.74691e-09
3.21086e-08
1.71015e-09
3.19236e-08
1.67608e-09
3.17346e-08
1.64056e-09
3.15411e-08
1.608e-09
3.13446e-08
1.57364e-09
3.11445e-08
1.54261e-09
3.09423e-08
1.50929e-09
3.07373e-08
1.47988e-09
3.05311e-08
1.44759e-09
3.03229e-08
1.41978e-09
3.01141e-08
1.38856e-09
2.99038e-08
1.36235e-09
2.96938e-08
1.33208e-09
2.94827e-08
1.30758e-09
2.92726e-08
1.27809e-09
2.90617e-08
1.25532e-09
2.88523e-08
1.22658e-09
2.86425e-08
1.20554e-09
2.84348e-08
1.17748e-09
2.82267e-08
1.1582e-09
2.80212e-08
1.1307e-09
2.78155e-08
1.11318e-09
2.76128e-08
1.08602e-09
2.741e-08
1.07045e-09
2.72105e-08
1.04346e-09
2.70109e-08
1.02981e-09
2.6815e-08
1.00306e-09
2.66188e-08
9.91295e-10
2.64269e-08
9.64467e-10
2.62344e-08
9.54968e-10
2.60465e-08
9.27878e-10
2.58579e-08
9.20626e-10
2.56741e-08
8.93528e-10
2.54894e-08
8.8851e-10
2.53099e-08
8.61275e-10
2.51291e-08
8.58866e-10
2.49536e-08
8.31783e-10
2.47767e-08
8.31993e-10
2.4605e-08
8.05844e-10
2.44317e-08
8.08533e-10
2.42633e-08
7.85204e-10
2.4093e-08
7.90109e-10
7.74291e-10
3.41128e-08
3.12792e-09
-3.40081e-08
3.43423e-08
3.7219e-09
3.46391e-08
4.20636e-09
3.48829e-08
4.36214e-09
3.50367e-08
4.19781e-09
3.51274e-08
3.89211e-09
3.51887e-08
3.60452e-09
3.52333e-08
3.38767e-09
3.52634e-08
3.22266e-09
3.52802e-08
3.08273e-09
3.52874e-08
2.95497e-09
3.52886e-08
2.84004e-09
3.5286e-08
2.73897e-09
3.52797e-08
2.65189e-09
3.52698e-08
2.57501e-09
3.52558e-08
2.50672e-09
3.52376e-08
2.44399e-09
3.52148e-08
2.38719e-09
3.51876e-08
2.33402e-09
3.51553e-08
2.28558e-09
3.5118e-08
2.23938e-09
3.50751e-08
2.19694e-09
3.50266e-08
2.15564e-09
3.49721e-08
2.11751e-09
3.49117e-08
2.07972e-09
3.48448e-08
2.04481e-09
3.4772e-08
2.00952e-09
3.46925e-08
1.97698e-09
3.46071e-08
1.94343e-09
3.4515e-08
1.9127e-09
3.44172e-08
1.88041e-09
3.43129e-08
1.85117e-09
3.42032e-08
1.81987e-09
3.40873e-08
1.79195e-09
3.39664e-08
1.76148e-09
3.38397e-08
1.73471e-09
3.37085e-08
1.70486e-09
3.35719e-08
1.67921e-09
3.34314e-08
1.64977e-09
3.3286e-08
1.62529e-09
3.31373e-08
1.59624e-09
3.29842e-08
1.57288e-09
3.28285e-08
1.54428e-09
3.26688e-08
1.52206e-09
3.25071e-08
1.49377e-09
3.23418e-08
1.47286e-09
3.21753e-08
1.44468e-09
3.20054e-08
1.42512e-09
3.1835e-08
1.39705e-09
3.16616e-08
1.37888e-09
3.14882e-08
1.35091e-09
3.13122e-08
1.33422e-09
3.11366e-08
1.30626e-09
3.09587e-08
1.29107e-09
3.07819e-08
1.26288e-09
3.06029e-08
1.24948e-09
3.04254e-08
1.22091e-09
3.02459e-08
1.20931e-09
3.00684e-08
1.18057e-09
2.9889e-08
1.17071e-09
2.97121e-08
1.1414e-09
2.95332e-08
1.13381e-09
2.93573e-08
1.10379e-09
2.91795e-08
1.09845e-09
2.90049e-08
1.06814e-09
2.88284e-08
1.06498e-09
2.86554e-08
1.03423e-09
2.84806e-08
1.03369e-09
2.83094e-08
1.00299e-09
2.81364e-08
1.00505e-09
2.79669e-08
9.7532e-10
2.77956e-08
9.79821e-10
2.76277e-08
9.53112e-10
2.74579e-08
9.59945e-10
9.40347e-10
3.5196e-08
3.02487e-09
-3.5093e-08
3.53881e-08
3.5298e-09
3.56454e-08
3.94909e-09
3.58766e-08
4.13092e-09
3.60336e-08
4.04088e-09
3.61275e-08
3.7982e-09
3.61896e-08
3.54238e-09
3.62362e-08
3.34112e-09
3.62703e-08
3.18847e-09
3.62923e-08
3.06076e-09
3.63046e-08
2.9427e-09
3.63105e-08
2.83413e-09
3.6313e-08
2.73651e-09
3.63129e-08
2.65199e-09
3.63107e-08
2.57721e-09
3.6306e-08
2.51135e-09
3.62993e-08
2.45069e-09
3.62903e-08
2.39624e-09
3.62793e-08
2.34503e-09
3.62658e-08
2.29905e-09
3.62501e-08
2.25503e-09
3.62317e-08
2.21542e-09
3.62106e-08
2.17667e-09
3.61863e-08
2.1418e-09
3.61591e-08
2.10695e-09
3.61281e-08
2.07577e-09
3.60939e-08
2.04378e-09
3.60554e-08
2.01542e-09
3.60134e-08
1.98549e-09
3.59668e-08
1.95929e-09
3.59164e-08
1.93081e-09
3.58612e-08
1.90639e-09
3.5802e-08
1.87901e-09
3.57379e-08
1.85609e-09
3.56698e-08
1.82961e-09
3.55965e-08
1.80794e-09
3.55194e-08
1.78201e-09
3.54371e-08
1.76151e-09
3.5351e-08
1.7358e-09
3.52599e-08
1.71643e-09
3.51653e-08
1.69087e-09
3.50656e-08
1.67248e-09
3.49628e-08
1.64709e-09
3.48552e-08
1.6297e-09
3.47447e-08
1.60425e-09
3.46295e-08
1.58803e-09
3.45119e-08
1.56228e-09
3.43899e-08
1.54718e-09
3.42658e-08
1.52109e-09
3.41376e-08
1.50716e-09
3.40077e-08
1.48072e-09
3.38739e-08
1.46807e-09
3.37389e-08
1.44124e-09
3.36001e-08
1.42985e-09
3.34607e-08
1.40229e-09
3.33177e-08
1.39252e-09
3.31745e-08
1.36408e-09
3.30279e-08
1.35589e-09
3.28815e-08
1.327e-09
3.27319e-08
1.32032e-09
3.25829e-08
1.29039e-09
3.24309e-08
1.28582e-09
3.22799e-08
1.25479e-09
3.21261e-08
1.25228e-09
3.19734e-08
1.22084e-09
3.18181e-08
1.22024e-09
3.16643e-08
1.18806e-09
3.15081e-08
1.18986e-09
3.13533e-08
1.15776e-09
3.11965e-08
1.16187e-09
3.1041e-08
1.13084e-09
3.08836e-08
1.13716e-09
3.07275e-08
1.10928e-09
3.05696e-08
1.11785e-09
1.09671e-09
3.63015e-08
2.92498e-09
-3.62017e-08
3.64679e-08
3.3634e-09
3.66902e-08
3.72687e-09
3.69047e-08
3.91641e-09
3.7062e-08
3.88351e-09
3.71601e-08
3.70018e-09
3.72237e-08
3.47877e-09
3.72713e-08
3.29351e-09
3.73082e-08
3.1516e-09
3.73339e-08
3.035e-09
3.73499e-08
2.92676e-09
3.73587e-08
2.82535e-09
3.73634e-08
2.73171e-09
3.73656e-08
2.64983e-09
3.7366e-08
2.57682e-09
3.73644e-08
2.51293e-09
3.73614e-08
2.45368e-09
3.73568e-08
2.40085e-09
3.73512e-08
2.35063e-09
3.73443e-08
2.30602e-09
3.73364e-08
2.26285e-09
3.73272e-08
2.22465e-09
3.7317e-08
2.18684e-09
3.73053e-08
2.15358e-09
3.72924e-08
2.11981e-09
3.72776e-08
2.09053e-09
3.72616e-08
2.05986e-09
3.72433e-08
2.03373e-09
3.72234e-08
2.00538e-09
3.72009e-08
1.98177e-09
3.71766e-08
1.95512e-09
3.71493e-08
1.93363e-09
3.712e-08
1.90831e-09
3.70875e-08
1.88864e-09
3.70526e-08
1.86444e-09
3.70143e-08
1.84634e-09
3.69734e-08
1.82285e-09
3.69287e-08
1.80621e-09
3.68815e-08
1.78301e-09
3.68302e-08
1.76771e-09
3.67764e-08
1.74473e-09
3.67184e-08
1.73051e-09
3.66577e-08
1.70771e-09
3.65928e-08
1.69461e-09
3.65254e-08
1.67167e-09
3.64536e-08
1.65986e-09
3.63793e-08
1.63651e-09
3.63007e-08
1.62581e-09
3.62198e-08
1.60196e-09
3.61346e-08
1.59238e-09
3.60474e-08
1.56797e-09
3.59559e-08
1.55959e-09
3.58624e-08
1.53468e-09
3.57648e-08
1.52747e-09
3.56656e-08
1.5015e-09
3.55623e-08
1.49583e-09
3.54576e-08
1.46873e-09
3.53492e-08
1.46433e-09
3.52395e-08
1.43674e-09
3.51261e-08
1.4337e-09
3.50117e-08
1.40474e-09
3.48939e-08
1.40362e-09
3.47754e-08
1.37332e-09
3.46538e-08
1.37388e-09
3.45313e-08
1.34333e-09
3.4406e-08
1.34552e-09
3.42801e-08
1.314e-09
3.41518e-08
1.31813e-09
3.40226e-08
1.28693e-09
3.38916e-08
1.29293e-09
3.37594e-08
1.26301e-09
3.36257e-08
1.27092e-09
3.34907e-08
1.24422e-09
3.33544e-08
1.25412e-09
1.2339e-09
3.74317e-08
2.82993e-09
-3.73366e-08
3.75794e-08
3.21564e-09
3.77724e-08
3.53385e-09
3.79683e-08
3.72054e-09
3.81229e-08
3.7289e-09
3.82248e-08
3.5983e-09
3.82907e-08
3.41285e-09
3.83392e-08
3.245e-09
3.83779e-08
3.11295e-09
3.84067e-08
3.0062e-09
3.84259e-08
2.90749e-09
3.84374e-08
2.81392e-09
3.84441e-08
2.72502e-09
3.84476e-08
2.64623e-09
3.84494e-08
2.57506e-09
3.84492e-08
2.51313e-09
3.84477e-08
2.45522e-09
3.84446e-08
2.40392e-09
3.84408e-08
2.35446e-09
3.84359e-08
2.31091e-09
3.84305e-08
2.26816e-09
3.84243e-08
2.23085e-09
3.84178e-08
2.19333e-09
3.84104e-08
2.16098e-09
3.84028e-08
2.12744e-09
3.83942e-08
2.09915e-09
3.83853e-08
2.06876e-09
3.83753e-08
2.04377e-09
3.83648e-08
2.01581e-09
3.8353e-08
1.99355e-09
3.83407e-08
1.96742e-09
3.83269e-08
1.94752e-09
3.83123e-08
1.9229e-09
3.82959e-08
1.90504e-09
3.82786e-08
1.88173e-09
3.82592e-08
1.86573e-09
3.82388e-08
1.84329e-09
3.82159e-08
1.82909e-09
3.81918e-08
1.80709e-09
3.81651e-08
1.79445e-09
3.81369e-08
1.77289e-09
3.81059e-08
1.76151e-09
3.80733e-08
1.74029e-09
3.80377e-08
1.73028e-09
3.80004e-08
1.70897e-09
3.79597e-08
1.70047e-09
3.79174e-08
1.67889e-09
3.78716e-08
1.67161e-09
3.78239e-08
1.64958e-09
3.77728e-08
1.6435e-09
3.77198e-08
1.62096e-09
3.76633e-08
1.61608e-09
3.76049e-08
1.59315e-09
3.75428e-08
1.58952e-09
3.74789e-08
1.56542e-09
3.74114e-08
1.56332e-09
3.7342e-08
1.53815e-09
3.72693e-08
1.53697e-09
3.71946e-08
1.5115e-09
3.71166e-08
1.51171e-09
3.70366e-08
1.48473e-09
3.69535e-08
1.48666e-09
3.68684e-08
1.45842e-09
3.67809e-08
1.46146e-09
3.66908e-08
1.43334e-09
3.65984e-08
1.43797e-09
3.65036e-08
1.40879e-09
3.64071e-08
1.41468e-09
3.63077e-08
1.38629e-09
3.6207e-08
1.39364e-09
3.61032e-08
1.36677e-09
3.59983e-08
1.37582e-09
3.58903e-08
1.35226e-09
3.57815e-08
1.36295e-09
1.34565e-09
3.85887e-08
2.74059e-09
-3.84994e-08
3.87218e-08
3.08256e-09
3.88912e-08
3.36448e-09
3.90684e-08
3.54329e-09
3.92174e-08
3.57994e-09
3.93219e-08
3.49381e-09
3.93907e-08
3.34408e-09
3.94403e-08
3.1954e-09
3.94801e-08
3.07313e-09
3.95112e-08
2.97507e-09
3.95334e-08
2.88526e-09
3.95475e-08
2.79983e-09
3.95562e-08
2.71637e-09
3.95612e-08
2.64125e-09
3.95641e-08
2.57217e-09
3.95649e-08
2.51231e-09
3.95643e-08
2.45579e-09
3.95621e-08
2.40611e-09
3.95591e-08
2.35748e-09
3.9555e-08
2.31498e-09
3.95506e-08
2.2726e-09
3.95454e-08
2.23606e-09
3.954e-08
2.19867e-09
3.9534e-08
2.16699e-09
3.95281e-08
2.13342e-09
3.95215e-08
2.10574e-09
3.9515e-08
2.07526e-09
3.95079e-08
2.05088e-09
3.95008e-08
2.02282e-09
3.94931e-08
2.00126e-09
3.94855e-08
1.97506e-09
3.9477e-08
1.95596e-09
3.94686e-08
1.93135e-09
3.94592e-08
1.91438e-09
3.94498e-08
1.8912e-09
3.94392e-08
1.87629e-09
3.94285e-08
1.85403e-09
3.94164e-08
1.84116e-09
3.9404e-08
1.81949e-09
3.93902e-08
1.8083e-09
3.93757e-08
1.78733e-09
3.93597e-08
1.77751e-09
3.9343e-08
1.75702e-09
3.93244e-08
1.74885e-09
3.9305e-08
1.72835e-09
3.92836e-08
1.72189e-09
3.92611e-08
1.70137e-09
3.92365e-08
1.69623e-09
3.92107e-08
1.67544e-09
3.91825e-08
1.67161e-09
3.9153e-08
1.65049e-09
3.91212e-08
1.64785e-09
3.90878e-08
1.62661e-09
3.90519e-08
1.62541e-09
3.90143e-08
1.60302e-09
3.89742e-08
1.60336e-09
3.89321e-08
1.58028e-09
3.8888e-08
1.58113e-09
3.88414e-08
1.55802e-09
3.87926e-08
1.5605e-09
3.87415e-08
1.53592e-09
3.86882e-08
1.53991e-09
3.86321e-08
1.5145e-09
3.85747e-08
1.5189e-09
3.8514e-08
1.494e-09
3.84517e-08
1.5003e-09
3.8386e-08
1.47448e-09
3.83195e-08
1.4812e-09
3.8249e-08
1.45676e-09
3.81779e-08
1.4647e-09
3.81028e-08
1.44196e-09
3.8027e-08
1.4516e-09
3.79469e-08
1.43236e-09
3.78665e-08
1.44328e-09
1.43005e-09
3.97748e-08
2.65709e-09
-3.96913e-08
3.98955e-08
2.96191e-09
4.00457e-08
3.21423e-09
4.02056e-08
3.38345e-09
4.03468e-08
3.43868e-09
4.04521e-08
3.38853e-09
4.05238e-08
3.27239e-09
4.05749e-08
3.14433e-09
4.06156e-08
3.03243e-09
4.06484e-08
2.94228e-09
4.06731e-08
2.86052e-09
4.06898e-08
2.78316e-09
4.07004e-08
2.70569e-09
4.07069e-08
2.63479e-09
4.07109e-08
2.56815e-09
4.07127e-08
2.51048e-09
4.07131e-08
2.45548e-09
4.07117e-08
2.40749e-09
4.07093e-08
2.35986e-09
4.07058e-08
2.31847e-09
4.07019e-08
2.27656e-09
4.06972e-08
2.24077e-09
4.06923e-08
2.20356e-09
4.06868e-08
2.17246e-09
4.06814e-08
2.13887e-09
4.06754e-08
2.11165e-09
4.06697e-08
2.08103e-09
4.06635e-08
2.05705e-09
4.06575e-08
2.02878e-09
4.06512e-08
2.0076e-09
4.06451e-08
1.98116e-09
4.06386e-08
1.96245e-09
4.06323e-08
1.93765e-09
4.06256e-08
1.92106e-09
4.06191e-08
1.89771e-09
4.06121e-08
1.88328e-09
4.06053e-08
1.86085e-09
4.05979e-08
1.84859e-09
4.05905e-08
1.82687e-09
4.05825e-08
1.81628e-09
4.05744e-08
1.79549e-09
4.05656e-08
1.78631e-09
4.05565e-08
1.76608e-09
4.05466e-08
1.75877e-09
4.05364e-08
1.73859e-09
4.05252e-08
1.73307e-09
4.05134e-08
1.71316e-09
4.05006e-08
1.70899e-09
4.0487e-08
1.68903e-09
4.04724e-08
1.68623e-09
4.04567e-08
1.6662e-09
4.044e-08
1.66453e-09
4.0422e-08
1.6446e-09
4.04028e-08
1.64465e-09
4.03821e-08
1.62367e-09
4.03604e-08
1.62514e-09
4.03365e-08
1.60413e-09
4.0312e-08
1.60566e-09
4.02852e-08
1.5848e-09
4.02573e-08
1.58841e-09
4.0227e-08
1.5662e-09
4.01959e-08
1.57104e-09
4.01616e-08
1.54877e-09
4.01272e-08
1.5533e-09
4.00895e-08
1.5317e-09
4.00511e-08
1.53876e-09
4.00089e-08
1.51666e-09
3.99669e-08
1.52318e-09
3.99206e-08
1.50305e-09
3.98745e-08
1.51084e-09
3.9824e-08
1.49242e-09
3.97735e-08
1.5021e-09
3.97184e-08
1.48748e-09
3.96634e-08
1.4982e-09
1.48925e-09
4.09916e-08
2.5791e-09
-4.09136e-08
4.11014e-08
2.85212e-09
4.12359e-08
3.07971e-09
4.13801e-08
3.23921e-09
4.15125e-08
3.30626e-09
4.16168e-08
3.28431e-09
4.16908e-08
3.19832e-09
4.17437e-08
3.0915e-09
4.17852e-08
2.99093e-09
4.18191e-08
2.90834e-09
4.18458e-08
2.83381e-09
4.18648e-08
2.76413e-09
4.18776e-08
2.69296e-09
4.18856e-08
2.62677e-09
4.18908e-08
2.56298e-09
4.18936e-08
2.50766e-09
4.18948e-08
2.45429e-09
4.18942e-08
2.40806e-09
4.18925e-08
2.36158e-09
4.18896e-08
2.32136e-09
4.18861e-08
2.28009e-09
4.18818e-08
2.24504e-09
4.18772e-08
2.20812e-09
4.18721e-08
2.17759e-09
4.18669e-08
2.14406e-09
4.18613e-08
2.11723e-09
4.18558e-08
2.08656e-09
4.185e-08
2.06285e-09
4.18443e-08
2.03443e-09
4.18385e-08
2.01346e-09
4.18328e-08
1.98684e-09
4.1827e-08
1.96826e-09
4.18213e-08
1.94332e-09
4.18156e-08
1.9268e-09
4.181e-08
1.90327e-09
4.18043e-08
1.88899e-09
4.17988e-08
1.86632e-09
4.17932e-08
1.85425e-09
4.17876e-08
1.83243e-09
4.1782e-08
1.82188e-09
4.17763e-08
1.80121e-09
4.17705e-08
1.79207e-09
4.17647e-08
1.77194e-09
4.17586e-08
1.76485e-09
4.17524e-08
1.74482e-09
4.1746e-08
1.73947e-09
4.17391e-08
1.72e-09
4.17322e-08
1.71594e-09
4.17246e-08
1.69662e-09
4.17169e-08
1.69392e-09
4.17083e-08
1.6748e-09
4.16997e-08
1.67315e-09
4.169e-08
1.65426e-09
4.16801e-08
1.65459e-09
4.1669e-08
1.6348e-09
4.16578e-08
1.63626e-09
4.16447e-08
1.61725e-09
4.1632e-08
1.61839e-09
4.16173e-08
1.59947e-09
4.16025e-08
1.60327e-09
4.15855e-08
1.5832e-09
4.15688e-08
1.58774e-09
4.15489e-08
1.56862e-09
4.15299e-08
1.57233e-09
4.1508e-08
1.5536e-09
4.14861e-08
1.56064e-09
4.14606e-08
1.54213e-09
4.14362e-08
1.54763e-09
4.14078e-08
1.53148e-09
4.13799e-08
1.53866e-09
4.13483e-08
1.52406e-09
4.13171e-08
1.53336e-09
4.12816e-08
1.52298e-09
4.12465e-08
1.53325e-09
1.52803e-09
4.22404e-08
2.50619e-09
-4.21675e-08
4.23406e-08
2.75196e-09
4.24618e-08
2.95847e-09
4.25923e-08
3.10871e-09
4.27156e-08
3.18304e-09
4.28172e-08
3.18272e-09
4.28927e-08
3.12278e-09
4.29473e-08
3.03684e-09
4.29897e-08
2.94855e-09
4.30245e-08
2.87358e-09
4.30527e-08
2.80565e-09
4.30737e-08
2.74306e-09
4.30884e-08
2.67825e-09
4.30981e-08
2.61714e-09
4.31044e-08
2.55663e-09
4.31082e-08
2.50383e-09
4.31103e-08
2.45226e-09
4.31105e-08
2.40778e-09
4.31095e-08
2.36265e-09
4.31072e-08
2.32363e-09
4.31041e-08
2.28316e-09
4.31003e-08
2.24888e-09
4.3096e-08
2.21237e-09
4.30913e-08
2.18238e-09
4.30863e-08
2.14904e-09
4.3081e-08
2.12254e-09
4.30756e-08
2.09194e-09
4.307e-08
2.0684e-09
4.30645e-08
2.03996e-09
4.30589e-08
2.01907e-09
4.30533e-08
1.9924e-09
4.30478e-08
1.97379e-09
4.30423e-08
1.94882e-09
4.30369e-08
1.93219e-09
4.30316e-08
1.90859e-09
4.30263e-08
1.89425e-09
4.30212e-08
1.87142e-09
4.30162e-08
1.85925e-09
4.30112e-08
1.83745e-09
4.30065e-08
1.82658e-09
4.30016e-08
1.80613e-09
4.2997e-08
1.79667e-09
4.29923e-08
1.77666e-09
4.29877e-08
1.76939e-09
4.2983e-08
1.74954e-09
4.29786e-08
1.74387e-09
4.29737e-08
1.72486e-09
4.29693e-08
1.72037e-09
4.29643e-08
1.70165e-09
4.29597e-08
1.69846e-09
4.29543e-08
1.68023e-09
4.29495e-08
1.67798e-09
4.29438e-08
1.65996e-09
4.29384e-08
1.65998e-09
4.2932e-08
1.64123e-09
4.29263e-08
1.6419e-09
4.29188e-08
1.6248e-09
4.29123e-08
1.6249e-09
4.29042e-08
1.60755e-09
4.28965e-08
1.61095e-09
4.2887e-08
1.59271e-09
4.28786e-08
1.59616e-09
4.28672e-08
1.57996e-09
4.28572e-08
1.58238e-09
4.28449e-08
1.56585e-09
4.28332e-08
1.57237e-09
4.28183e-08
1.55702e-09
4.28049e-08
1.56104e-09
4.27882e-08
1.54818e-09
4.27723e-08
1.55459e-09
4.27534e-08
1.54296e-09
4.27351e-08
1.55166e-09
4.27134e-08
1.54472e-09
4.26921e-08
1.55453e-09
1.55215e-09
4.35227e-08
2.43795e-09
-4.34545e-08
4.36143e-08
2.66033e-09
4.37242e-08
2.84865e-09
4.38426e-08
2.99026e-09
4.39568e-08
3.06885e-09
4.40546e-08
3.08491e-09
4.41305e-08
3.04687e-09
4.41868e-08
2.98057e-09
4.42302e-08
2.9052e-09
4.42656e-08
2.83817e-09
4.42948e-08
2.77646e-09
4.43175e-08
2.72034e-09
4.4334e-08
2.66173e-09
4.43452e-08
2.6059e-09
4.43528e-08
2.54907e-09
4.43576e-08
2.499e-09
4.43605e-08
2.4494e-09
4.43616e-08
2.40669e-09
4.43612e-08
2.36304e-09
4.43596e-08
2.32526e-09
4.4357e-08
2.28577e-09
4.43536e-08
2.25225e-09
4.43497e-08
2.2163e-09
4.43452e-08