/*--------------------------------*- C++ -*----------------------------------*\
| =========                 |                                                 |
| \\      /  F ield         | OpenFOAM: The Open Source CFD Toolbox           |
|  \\    /   O peration     | Version:  2.3.0                                 |
|   \\  /    A nd           | Web:      www.OpenFOAM.org                      |
|    \\/     M anipulation  |                                                 |
\*---------------------------------------------------------------------------*/
FoamFile
{
    version     2.0;
    format      ascii;
    class       surfaceScalarField;
    location    "0.85";
    object      phi_0;
}
// * * * * * * * * * * * * * * * * * * * * * * * * * * * * * * * * * * * * * //

dimensions      [0 3 -1 0 0 0 0];

internalField   nonuniform List<scalar> 
5764
(
2.00245e-08
5.01075e-09
-2.50352e-08
1.48945e-08
5.13e-09
1.09258e-08
3.96866e-09
8.23224e-09
2.6936e-09
6.59109e-09
1.64115e-09
5.64073e-09
9.50357e-10
5.07066e-09
5.7007e-10
4.6909e-09
3.79763e-10
4.40182e-09
2.89076e-10
4.15927e-09
2.42551e-10
3.9469e-09
2.12371e-10
3.75898e-09
1.8792e-10
3.59245e-09
1.66528e-10
3.44444e-09
1.48014e-10
3.31206e-09
1.32376e-10
3.19275e-09
1.19315e-10
3.08438e-09
1.08367e-10
2.9853e-09
9.90813e-11
2.89421e-09
9.10875e-11
2.81008e-09
8.41282e-11
2.73208e-09
7.80029e-11
2.6595e-09
7.25781e-11
2.59176e-09
6.77427e-11
2.52835e-09
6.3409e-11
2.46884e-09
5.95113e-11
2.41286e-09
5.59851e-11
2.36007e-09
5.2786e-11
2.3102e-09
4.98712e-11
2.26299e-09
4.72067e-11
2.21823e-09
4.47634e-11
2.17571e-09
4.25182e-11
2.13526e-09
4.0446e-11
2.09673e-09
3.85363e-11
2.05997e-09
3.6761e-11
2.02484e-09
3.51245e-11
1.99125e-09
3.35887e-11
1.95908e-09
3.21767e-11
1.92824e-09
3.08392e-11
1.89863e-09
2.96108e-11
1.87019e-09
2.8439e-11
1.84282e-09
2.73675e-11
1.81649e-09
2.6328e-11
1.7911e-09
2.5397e-11
1.76663e-09
2.44646e-11
1.74298e-09
2.3652e-11
1.72016e-09
2.28151e-11
1.69806e-09
2.21004e-11
1.67672e-09
2.13412e-11
1.656e-09
2.07209e-11
1.63598e-09
2.00166e-11
1.6165e-09
1.94888e-11
1.59767e-09
1.88256e-11
1.57929e-09
1.83841e-11
1.56153e-09
1.77512e-11
1.54415e-09
1.73872e-11
1.52737e-09
1.67792e-11
1.51087e-09
1.64948e-11
1.49499e-09
1.58863e-11
1.47928e-09
1.5705e-11
1.4642e-09
1.50778e-11
1.44922e-09
1.49887e-11
1.43487e-09
1.43499e-11
1.4205e-09
1.43627e-11
1.40683e-09
1.36731e-11
1.39299e-09
1.3844e-11
1.37992e-09
1.30663e-11
1.36651e-09
1.34058e-11
1.35398e-09
1.25338e-11
1.34089e-09
1.3087e-11
1.32883e-09
1.20667e-11
1.3159e-09
1.29238e-11
1.30421e-09
1.16878e-11
1.29125e-09
1.29665e-11
1.27981e-09
1.14344e-11
1.44282e-11
2.69244e-08
4.90538e-09
-2.6819e-08
2.55753e-08
6.4791e-09
2.35613e-08
5.98259e-09
2.14036e-08
4.85137e-09
1.93768e-08
3.66796e-09
1.7608e-08
2.71914e-09
1.61243e-08
2.05374e-09
1.49063e-08
1.5978e-09
1.39104e-08
1.28493e-09
1.30874e-08
1.06557e-09
1.23935e-08
9.06282e-10
1.1796e-08
7.85356e-10
1.12729e-08
6.89657e-10
1.08091e-08
6.11857e-10
1.03938e-08
5.47635e-10
1.00191e-08
4.94075e-10
9.67848e-09
4.48939e-10
9.36708e-09
4.10489e-10
9.08083e-09
3.77339e-10
8.81647e-09
3.48489e-10
8.57134e-09
3.23131e-10
8.34321e-09
3.00704e-10
8.13023e-09
2.80725e-10
7.9308e-09
2.62842e-10
7.74356e-09
2.46748e-10
7.56734e-09
2.32205e-10
7.40113e-09
2.18998e-10
7.24402e-09
2.06976e-10
7.09526e-09
1.95971e-10
6.95413e-09
1.85894e-10
6.82004e-09
1.7661e-10
6.69242e-09
1.68064e-10
6.5708e-09
1.60152e-10
6.45473e-09
1.52833e-10
6.34382e-09
1.46032e-10
6.23771e-09
1.39706e-10
6.13607e-09
1.33816e-10
6.03859e-09
1.28312e-10
5.94503e-09
1.23171e-10
5.85512e-09
1.18354e-10
5.76864e-09
1.13843e-10
5.68538e-09
1.09592e-10
5.60515e-09
1.05629e-10
5.52777e-09
1.01846e-10
5.45307e-09
9.8345e-11
5.38091e-09
9.4973e-11
5.31116e-09
9.18561e-11
5.24367e-09
8.88316e-11
5.17833e-09
8.60629e-11
5.11503e-09
8.33158e-11
5.05365e-09
8.08685e-11
4.99412e-09
7.83505e-11
4.93632e-09
7.61914e-11
4.8802e-09
7.38652e-11
4.82563e-09
7.19581e-11
4.77261e-09
6.98039e-11
4.72097e-09
6.81343e-11
4.67076e-09
6.60939e-11
4.62176e-09
6.4699e-11
4.57412e-09
6.27241e-11
4.52754e-09
6.15712e-11
4.48221e-09
5.96804e-11
4.4378e-09
5.87722e-11
4.39458e-09
5.68924e-11
4.35208e-09
5.63389e-11
4.31076e-09
5.4391e-11
4.26995e-09
5.42114e-11
4.23028e-09
5.22037e-11
4.19089e-09
5.24764e-11
4.15263e-09
5.03337e-11
4.11432e-09
5.12321e-11
4.07713e-09
4.88778e-11
4.03948e-09
5.06173e-11
4.00283e-09
4.80847e-11
5.34324e-11
2.83082e-08
4.2727e-09
-2.76755e-08
2.86202e-08
6.16704e-09
2.83092e-08
6.29361e-09
2.75911e-08
5.56952e-09
2.66291e-08
4.62992e-09
2.55491e-08
3.79912e-09
2.44388e-08
3.16413e-09
2.33505e-08
2.68603e-09
2.23187e-08
2.3168e-09
2.13598e-08
2.0244e-09
2.04774e-08
1.78873e-09
1.96677e-08
1.59501e-09
1.89252e-08
1.43223e-09
1.82436e-08
1.29337e-09
1.76173e-08
1.17394e-09
1.70406e-08
1.07081e-09
1.65081e-08
9.81403e-10
1.60151e-08
9.0355e-10
1.55571e-08
8.35294e-10
1.51305e-08
7.75126e-10
1.47319e-08
7.217e-10
1.43586e-08
6.74058e-10
1.4008e-08
6.31298e-10
1.3678e-08
5.92794e-10
1.33669e-08
5.57925e-10
1.30728e-08
5.26277e-10
1.27944e-08
4.97382e-10
1.25304e-08
4.70994e-10
1.22796e-08
4.46724e-10
1.20411e-08
4.24448e-10
1.18139e-08
4.03831e-10
1.15971e-08
3.84832e-10
1.13901e-08
3.6715e-10
1.11921e-08
3.50799e-10
1.10027e-08
3.35511e-10
1.0821e-08
3.21329e-10
1.06468e-08
3.08013e-10
1.04795e-08
2.95636e-10
1.03187e-08
2.8395e-10
1.0164e-08
2.73094e-10
1.00151e-08
2.62781e-10
9.87145e-09
2.53194e-10
9.73301e-09
2.44064e-10
9.59931e-09
2.35547e-10
9.47024e-09
2.27416e-10
9.34538e-09
2.19837e-10
9.2247e-09
2.1254e-10
9.10776e-09
2.05767e-10
8.99461e-09
1.99207e-10
8.88482e-09
1.9311e-10
8.77848e-09
1.87209e-10
8.67514e-09
1.81691e-10
8.57496e-09
1.76367e-10
8.47748e-09
1.71354e-10
8.38291e-09
1.66521e-10
8.29074e-09
1.61976e-10
8.20129e-09
1.57581e-10
8.11398e-09
1.53411e-10
8.02919e-09
1.49482e-10
7.94631e-09
1.45613e-10
7.8658e-09
1.42076e-10
7.78694e-09
1.38546e-10
7.71034e-09
1.35371e-10
7.63514e-09
1.32089e-10
7.56206e-09
1.29415e-10
7.49017e-09
1.26284e-10
7.42028e-09
1.24107e-10
7.35129e-09
1.21185e-10
7.28419e-09
1.19583e-10
7.21769e-09
1.16828e-10
7.15291e-09
1.16012e-10
7.08838e-09
1.1341e-10
7.0253e-09
1.13697e-10
6.96202e-09
1.11364e-10
1.16874e-10
2.91278e-08
3.86325e-09
-2.87184e-08
2.97212e-08
5.57362e-09
3.00071e-08
6.00777e-09
3.001e-08
5.56662e-09
2.97926e-08
4.84729e-09
2.94116e-08
4.18013e-09
2.89157e-08
3.66001e-09
2.83407e-08
3.26103e-09
2.77175e-08
2.93998e-09
2.70704e-08
2.67156e-09
2.64155e-08
2.44365e-09
2.57629e-08
2.24758e-09
2.51194e-08
2.07571e-09
2.44902e-08
1.92261e-09
2.38791e-08
1.78496e-09
2.32891e-08
1.66087e-09
2.27216e-08
1.54884e-09
2.21776e-08
1.44762e-09
2.1657e-08
1.35588e-09
2.11595e-08
1.27262e-09
2.06845e-08
1.19673e-09
2.0231e-08
1.12753e-09
1.97981e-08
1.06415e-09
1.93848e-08
1.0061e-09
1.89901e-08
9.52673e-10
1.86128e-08
9.03551e-10
1.82521e-08
8.58116e-10
1.79069e-08
8.16211e-10
1.75763e-08
7.77248e-10
1.72596e-08
7.41221e-10
1.69558e-08
7.07556e-10
1.66643e-08
6.76366e-10
1.63844e-08
6.47074e-10
1.61153e-08
6.19901e-10
1.58565e-08
5.94256e-10
1.56074e-08
5.70445e-10
1.53676e-08
5.47861e-10
1.51363e-08
5.26903e-10
1.49134e-08
5.06891e-10
1.46981e-08
4.88376e-10
1.44903e-08
4.70553e-10
1.42894e-08
4.54117e-10
1.40953e-08
4.3819e-10
1.39073e-08
4.23535e-10
1.37255e-08
4.0922e-10
1.35492e-08
3.96145e-10
1.33785e-08
3.83184e-10
1.32128e-08
3.71493e-10
1.30523e-08
3.59721e-10
1.28962e-08
3.49217e-10
1.27449e-08
3.38494e-10
1.25975e-08
3.29036e-10
1.24547e-08
3.19216e-10
1.23153e-08
3.10697e-10
1.21802e-08
3.01633e-10
1.20482e-08
2.93995e-10
1.19202e-08
2.85581e-10
1.17949e-08
2.78705e-10
1.16735e-08
2.70944e-10
1.15543e-08
2.64736e-10
1.14389e-08
2.57491e-10
1.13254e-08
2.52018e-10
1.12156e-08
2.45212e-10
1.11073e-08
2.40377e-10
1.10026e-08
2.34153e-10
1.0899e-08
2.29864e-10
1.07989e-08
2.24172e-10
1.06996e-08
2.20559e-10
1.06037e-08
2.15459e-10
1.0508e-08
2.1253e-10
1.04157e-08
2.08273e-10
1.03231e-08
2.06058e-10
1.02336e-08
2.03188e-10
1.01432e-08
2.01701e-10
2.05392e-10
3.00302e-08
3.62068e-09
-2.97876e-08
3.05686e-08
5.03528e-09
3.09673e-08
5.609e-09
3.11777e-08
5.35624e-09
3.12442e-08
4.78074e-09
3.12022e-08
4.2222e-09
3.10728e-08
3.78937e-09
3.08705e-08
3.46334e-09
3.06092e-08
3.20129e-09
3.03023e-08
2.97845e-09
2.99604e-08
2.78553e-09
2.95906e-08
2.61741e-09
2.9198e-08
2.46835e-09
2.87871e-08
2.33344e-09
2.83628e-08
2.20934e-09
2.79292e-08
2.09446e-09
2.74903e-08
1.98768e-09
2.70495e-08
1.88841e-09
2.66096e-08
1.79577e-09
2.61729e-08
1.70934e-09
2.57413e-08
1.62833e-09
2.53163e-08
1.55256e-09
2.48991e-08
1.48136e-09
2.44905e-08
1.41468e-09
2.40913e-08
1.35188e-09
2.37018e-08
1.29305e-09
2.33224e-08
1.2375e-09
2.29531e-08
1.18547e-09
2.25942e-08
1.13621e-09
2.22453e-08
1.0901e-09
2.19066e-08
1.0463e-09
2.15776e-08
1.00534e-09
2.12584e-08
9.66289e-10
2.09485e-08
9.29823e-10
2.06478e-08
8.949e-10
2.03559e-08
8.62353e-10
2.00727e-08
8.31024e-10
1.97977e-08
8.01927e-10
1.95309e-08
7.73708e-10
1.92716e-08
7.47666e-10
1.902e-08
7.22161e-10
1.87753e-08
6.98791e-10
1.85378e-08
6.75682e-10
1.83067e-08
6.54663e-10
1.80823e-08
6.33625e-10
1.78637e-08
6.14738e-10
1.76514e-08
5.95459e-10
1.74444e-08
5.78485e-10
1.72434e-08
5.60758e-10
1.70471e-08
5.45469e-10
1.68565e-08
5.2911e-10
1.66702e-08
5.15344e-10
1.64893e-08
5.00155e-10
1.63122e-08
4.87789e-10
1.61403e-08
4.73567e-10
1.59717e-08
4.62543e-10
1.58082e-08
4.49126e-10
1.56476e-08
4.39313e-10
1.54918e-08
4.26679e-10
1.53386e-08
4.17975e-10
1.51902e-08
4.05918e-10
1.50437e-08
3.98434e-10
1.49021e-08
3.86823e-10
1.4762e-08
3.80468e-10
1.46268e-08
3.69441e-10
1.44925e-08
3.64143e-10
1.43631e-08
3.53594e-10
1.42341e-08
3.49559e-10
1.411e-08
3.39545e-10
1.39857e-08
3.36814e-10
1.38663e-08
3.27666e-10
1.37461e-08
3.26253e-10
1.36304e-08
3.18863e-10
1.35135e-08
3.18595e-10
3.18657e-10
3.10011e-08
3.46173e-09
-3.08421e-08
3.14452e-08
4.59112e-09
3.18423e-08
5.21197e-09
3.20896e-08
5.10889e-09
3.2224e-08
4.64636e-09
3.22882e-08
4.15803e-09
3.23005e-08
3.77703e-09
3.22678e-08
3.49607e-09
3.21952e-08
3.27386e-09
3.20891e-08
3.08459e-09
3.19549e-08
2.91969e-09
3.17958e-08
2.77648e-09
3.16133e-08
2.65091e-09
3.14083e-08
2.53846e-09
3.11823e-08
2.43527e-09
3.09374e-08
2.33938e-09
3.06757e-08
2.24939e-09
3.03993e-08
2.16483e-09
3.01104e-08
2.08469e-09
2.98109e-08
2.00884e-09
2.95028e-08
1.93637e-09
2.91879e-08
1.86745e-09
2.8868e-08
1.80129e-09
2.85444e-08
1.73825e-09
2.82188e-08
1.67756e-09
2.78921e-08
1.61974e-09
2.75656e-08
1.56394e-09
2.72402e-08
1.51087e-09
2.69169e-08
1.45952e-09
2.65962e-08
1.41084e-09
2.62789e-08
1.36361e-09
2.59652e-08
1.319e-09
2.56559e-08
1.27557e-09
2.5351e-08
1.23474e-09
2.50511e-08
1.19479e-09
2.4756e-08
1.15743e-09
2.44664e-08
1.12068e-09
2.41818e-08
1.08654e-09
2.39028e-08
1.05267e-09
2.36289e-08
1.02153e-09
2.33608e-08
9.90275e-10
2.30977e-08
9.61881e-10
2.28404e-08
9.33013e-10
2.25879e-08
9.0712e-10
2.23412e-08
8.80367e-10
2.20991e-08
8.56828e-10
2.18627e-08
8.31903e-10
2.16306e-08
8.10553e-10
2.14041e-08
7.87265e-10
2.11817e-08
7.67909e-10
2.09647e-08
7.46074e-10
2.07515e-08
7.28575e-10
2.05436e-08
7.07982e-10
2.03392e-08
6.92238e-10
2.01401e-08
6.72661e-10
1.9944e-08
6.5865e-10
1.97532e-08
6.39887e-10
1.9565e-08
6.27497e-10
1.93822e-08
6.09513e-10
1.92015e-08
5.98651e-10
1.90262e-08
5.81196e-10
1.88526e-08
5.72034e-10
1.86845e-08
5.54921e-10
1.85176e-08
5.47393e-10
1.83563e-08
5.30766e-10
1.81956e-08
5.24826e-10
1.80407e-08
5.08544e-10
1.78858e-08
5.04458e-10
1.77367e-08
4.88606e-10
1.75871e-08
4.86429e-10
1.74433e-08
4.71467e-10
1.72984e-08
4.71149e-10
1.71589e-08
4.58352e-10
1.70179e-08
4.59588e-10
4.54631e-10
3.20116e-08
3.34058e-09
-3.18904e-08
3.23678e-08
4.23489e-09
3.27399e-08
4.83993e-09
3.2992e-08
4.85673e-09
3.31374e-08
4.50099e-09
3.32235e-08
4.07196e-09
3.3275e-08
3.72552e-09
3.32989e-08
3.47212e-09
3.32981e-08
3.27473e-09
3.32763e-08
3.1064e-09
3.32378e-08
2.95812e-09
3.31851e-08
2.82923e-09
3.31184e-08
2.71758e-09
3.30372e-08
2.61972e-09
3.2941e-08
2.53144e-09
3.28298e-08
2.45057e-09
3.2704e-08
2.37518e-09
3.2564e-08
2.30486e-09
3.24104e-08
2.23827e-09
3.22438e-08
2.17544e-09
3.20651e-08
2.11505e-09
3.1875e-08
2.05755e-09
3.16746e-08
2.0017e-09
3.14646e-08
1.94827e-09
3.12461e-08
1.89601e-09
3.102e-08
1.84593e-09
3.07873e-08
1.79665e-09
3.05486e-08
1.74948e-09
3.03053e-08
1.70282e-09
3.00578e-08
1.65835e-09
2.98073e-08
1.61414e-09
2.9554e-08
1.57227e-09
2.92992e-08
1.53042e-09
2.90429e-08
1.49105e-09
2.87862e-08
1.45146e-09
2.85291e-08
1.41451e-09
2.82727e-08
1.37707e-09
2.80168e-08
1.3425e-09
2.77624e-08
1.30707e-09
2.7509e-08
1.27488e-09
2.72579e-08
1.24136e-09
2.70084e-08
1.21144e-09
2.67616e-08
1.17977e-09
2.65167e-08
1.15201e-09
2.62751e-08
1.12201e-09
2.60355e-08
1.0964e-09
2.57996e-08
1.06785e-09
2.55658e-08
1.04435e-09
2.53359e-08
1.01714e-09
2.51082e-08
9.95631e-10
2.48846e-08
9.69625e-10
2.46632e-08
9.50044e-10
2.44461e-08
9.25062e-10
2.42309e-08
9.07361e-10
2.40204e-08
8.83191e-10
2.38116e-08
8.67437e-10
2.36077e-08
8.43863e-10
2.34052e-08
8.29993e-10
2.32077e-08
8.07006e-10
2.30114e-08
7.94941e-10
2.28203e-08
7.72276e-10
2.263e-08
7.62284e-10
2.24453e-08
7.39717e-10
2.22609e-08
7.3177e-10
2.20822e-08
7.09477e-10
2.19034e-08
7.03541e-10
2.17306e-08
6.81392e-10
2.15573e-08
6.7779e-10
2.13899e-08
6.55933e-10
2.12217e-08
6.5471e-10
2.10594e-08
6.33766e-10
2.08957e-08
6.34812e-10
2.07377e-08
6.16399e-10
2.05779e-08
6.19384e-10
6.0878e-10
3.30508e-08
3.23261e-09
-3.29428e-08
3.33343e-08
3.9514e-09
3.36711e-08
4.5031e-09
3.39219e-08
4.60597e-09
3.40713e-08
4.35159e-09
3.41604e-08
3.98285e-09
3.42201e-08
3.6658e-09
3.42599e-08
3.43228e-09
3.42819e-08
3.25273e-09
3.42888e-08
3.09955e-09
3.42847e-08
2.96221e-09
3.42727e-08
2.84121e-09
3.4254e-08
2.7363e-09
3.42281e-08
2.64564e-09
3.41944e-08
2.56511e-09
3.41523e-08
2.49265e-09
3.41017e-08
2.42581e-09
3.40421e-08
2.36444e-09
3.39736e-08
2.30679e-09
3.38958e-08
2.25328e-09
3.38087e-08
2.20205e-09
3.37123e-08
2.15397e-09
3.36068e-08
2.10718e-09
3.34922e-08
2.06294e-09
3.33689e-08
2.01933e-09
3.32368e-08
1.97796e-09
3.30968e-08
1.93666e-09
3.29488e-08
1.8975e-09
3.27937e-08
1.85795e-09
3.26314e-08
1.82062e-09
3.2463e-08
1.78254e-09
3.22884e-08
1.74688e-09
3.21087e-08
1.71012e-09
3.19237e-08
1.67606e-09
3.17346e-08
1.64053e-09
3.15411e-08
1.60797e-09
3.13446e-08
1.5736e-09
3.11445e-08
1.54257e-09
3.09423e-08
1.50925e-09
3.07374e-08
1.47983e-09
3.05312e-08
1.44754e-09
3.03229e-08
1.41973e-09
3.01142e-08
1.3885e-09
2.99039e-08
1.36228e-09
2.96939e-08
1.33201e-09
2.94828e-08
1.30749e-09
2.92727e-08
1.278e-09
2.90618e-08
1.25522e-09
2.88525e-08
1.22647e-09
2.86427e-08
1.20543e-09
2.8435e-08
1.17736e-09
2.82269e-08
1.15808e-09
2.80214e-08
1.13055e-09
2.78158e-08
1.11302e-09
2.76131e-08
1.08586e-09
2.74103e-08
1.07027e-09
2.72109e-08
1.04327e-09
2.70112e-08
1.02962e-09
2.68154e-08
1.00284e-09
2.66193e-08
9.9105e-10
2.64274e-08
9.64218e-10
2.62349e-08
9.54689e-10
2.60471e-08
9.27579e-10
2.58585e-08
9.20328e-10
2.56748e-08
8.93188e-10
2.54902e-08
8.88147e-10
2.53107e-08
8.60895e-10
2.513e-08
8.58465e-10
2.49546e-08
8.31353e-10
2.47778e-08
8.31545e-10
2.46062e-08
8.05364e-10
2.4433e-08
8.08036e-10
2.42647e-08
7.84671e-10
2.40945e-08
7.89569e-10
7.73717e-10
3.41128e-08
3.12791e-09
-3.40081e-08
3.43423e-08
3.7219e-09
3.46391e-08
4.20636e-09
3.48829e-08
4.36215e-09
3.50367e-08
4.19781e-09
3.51274e-08
3.89212e-09
3.51887e-08
3.60452e-09
3.52333e-08
3.38767e-09
3.52634e-08
3.22266e-09
3.52802e-08
3.08272e-09
3.52874e-08
2.95495e-09
3.52886e-08
2.84002e-09
3.5286e-08
2.73896e-09
3.52797e-08
2.65188e-09
3.52698e-08
2.57501e-09
3.52558e-08
2.50673e-09
3.52376e-08
2.444e-09
3.52148e-08
2.38719e-09
3.51876e-08
2.33401e-09
3.51553e-08
2.28557e-09
3.5118e-08
2.23935e-09
3.50751e-08
2.19692e-09
3.50266e-08
2.15562e-09
3.49721e-08
2.11749e-09
3.49117e-08
2.07972e-09
3.48448e-08
2.0448e-09
3.4772e-08
2.00951e-09
3.46925e-08
1.97697e-09
3.46071e-08
1.94341e-09
3.4515e-08
1.91267e-09
3.44172e-08
1.88037e-09
3.43129e-08
1.85114e-09
3.42032e-08
1.81984e-09
3.40873e-08
1.79193e-09
3.39664e-08
1.76145e-09
3.38397e-08
1.73468e-09
3.37085e-08
1.70482e-09
3.35719e-08
1.67915e-09
3.34314e-08
1.64972e-09
3.3286e-08
1.62523e-09
3.31374e-08
1.59617e-09
3.29843e-08
1.57282e-09
3.28286e-08
1.5442e-09
3.26689e-08
1.52199e-09
3.25072e-08
1.49369e-09
3.23419e-08
1.47277e-09
3.21753e-08
1.44458e-09
3.20056e-08
1.42501e-09
3.18351e-08
1.39693e-09
3.16618e-08
1.37876e-09
3.14884e-08
1.35077e-09
3.13124e-08
1.33408e-09
3.11368e-08
1.30609e-09
3.0959e-08
1.29089e-09
3.07821e-08
1.26269e-09
3.06031e-08
1.24927e-09
3.04257e-08
1.22068e-09
3.02462e-08
1.2091e-09
3.00688e-08
1.18031e-09
2.98894e-08
1.17043e-09
2.97125e-08
1.14111e-09
2.95337e-08
1.13348e-09
2.93578e-08
1.10344e-09
2.918e-08
1.09811e-09
2.90055e-08
1.06775e-09
2.88291e-08
1.06455e-09
2.86562e-08
1.03378e-09
2.84814e-08
1.03323e-09
2.83103e-08
1.00249e-09
2.81373e-08
1.00452e-09
2.79679e-08
9.74756e-10
2.77967e-08
9.79235e-10
2.76289e-08
9.52483e-10
2.74592e-08
9.59307e-10
9.3967e-10
3.5196e-08
3.02487e-09
-3.5093e-08
3.53881e-08
3.5298e-09
3.56454e-08
3.94909e-09
3.58766e-08
4.13093e-09
3.60336e-08
4.04089e-09
3.61275e-08
3.7982e-09
3.61896e-08
3.54238e-09
3.62362e-08
3.34112e-09
3.62704e-08
3.18846e-09
3.62923e-08
3.06075e-09
3.63046e-08
2.94269e-09
3.63105e-08
2.83411e-09
3.6313e-08
2.73649e-09
3.63129e-08
2.65198e-09
3.63107e-08
2.57722e-09
3.6306e-08
2.51136e-09
3.62993e-08
2.4507e-09
3.62903e-08
2.39624e-09
3.62793e-08
2.34502e-09
3.62658e-08
2.29904e-09
3.62501e-08
2.25501e-09
3.62317e-08
2.21539e-09
3.62106e-08
2.17665e-09
3.61863e-08
2.14179e-09
3.61591e-08
2.10694e-09
3.61282e-08
2.07577e-09
3.60939e-08
2.04378e-09
3.60555e-08
2.01541e-09
3.60134e-08
1.98547e-09
3.59668e-08
1.95926e-09
3.59164e-08
1.93078e-09
3.58612e-08
1.90635e-09
3.58021e-08
1.87898e-09
3.57379e-08
1.85607e-09
3.56698e-08
1.82958e-09
3.55966e-08
1.80791e-09
3.55194e-08
1.78198e-09
3.54371e-08
1.76146e-09
3.53511e-08
1.73575e-09
3.52599e-08
1.71637e-09
3.51653e-08
1.6908e-09
3.50657e-08
1.67242e-09
3.49629e-08
1.64701e-09
3.48553e-08
1.62962e-09
3.47448e-08
1.60417e-09
3.46296e-08
1.58793e-09
3.4512e-08
1.56217e-09
3.439e-08
1.54706e-09
3.42659e-08
1.52095e-09
3.41377e-08
1.50703e-09
3.40079e-08
1.48057e-09
3.3874e-08
1.46793e-09
3.37391e-08
1.44107e-09
3.36003e-08
1.42965e-09
3.34609e-08
1.40209e-09
3.33179e-08
1.39229e-09
3.31747e-08
1.36383e-09
3.30282e-08
1.35566e-09
3.28818e-08
1.32672e-09
3.27322e-08
1.32e-09
3.25832e-08
1.29007e-09
3.24313e-08
1.28546e-09
3.22803e-08
1.25439e-09
3.21265e-08
1.25191e-09
3.19739e-08
1.22041e-09
3.18186e-08
1.21976e-09
3.16649e-08
1.18755e-09
3.15088e-08
1.18934e-09
3.13541e-08
1.15719e-09
3.11973e-08
1.16128e-09
3.10419e-08
1.13021e-09
3.08846e-08
1.1365e-09
3.07285e-08
1.10856e-09
3.05707e-08
1.11713e-09
1.09594e-09
3.63015e-08
2.92498e-09
-3.62017e-08
3.64679e-08
3.3634e-09
3.66902e-08
3.72687e-09
3.69047e-08
3.91642e-09
3.7062e-08
3.88351e-09
3.71601e-08
3.70018e-09
3.72237e-08
3.47877e-09
3.72713e-08
3.29351e-09
3.73082e-08
3.1516e-09
3.73339e-08
3.03499e-09
3.73499e-08
2.92674e-09
3.73587e-08
2.82533e-09
3.73634e-08
2.7317e-09
3.73656e-08
2.64982e-09
3.7366e-08
2.57682e-09
3.73644e-08
2.51293e-09
3.73614e-08
2.45369e-09
3.73568e-08
2.40086e-09
3.73512e-08
2.35062e-09
3.73443e-08
2.30601e-09
3.73364e-08
2.26282e-09
3.73272e-08
2.22463e-09
3.7317e-08
2.18681e-09
3.73053e-08
2.15356e-09
3.72924e-08
2.1198e-09
3.72777e-08
2.09052e-09
3.72616e-08
2.05986e-09
3.72433e-08
2.03372e-09
3.72234e-08
2.00536e-09
3.72009e-08
1.98174e-09
3.71766e-08
1.95508e-09
3.71493e-08
1.93359e-09
3.71201e-08
1.90827e-09
3.70875e-08
1.88862e-09
3.70527e-08
1.86441e-09
3.70143e-08
1.84631e-09
3.69734e-08
1.82282e-09
3.69287e-08
1.80616e-09
3.68815e-08
1.78296e-09
3.68303e-08
1.76764e-09
3.67764e-08
1.74464e-09
3.67184e-08
1.73044e-09
3.66578e-08
1.70763e-09
3.65929e-08
1.69453e-09
3.65254e-08
1.67159e-09
3.64536e-08
1.65976e-09
3.63794e-08
1.6364e-09
3.63008e-08
1.62568e-09
3.62199e-08
1.60181e-09
3.61347e-08
1.59223e-09
3.60475e-08
1.56781e-09
3.5956e-08
1.55945e-09
3.58625e-08
1.5345e-09
3.57649e-08
1.52725e-09
3.56657e-08
1.50129e-09
3.55624e-08
1.49558e-09
3.54578e-08
1.46844e-09
3.53494e-08
1.46409e-09
3.52397e-08
1.43645e-09
3.51263e-08
1.43336e-09
3.5012e-08
1.4044e-09
3.48942e-08
1.40322e-09
3.47757e-08
1.37289e-09
3.46542e-08
1.37349e-09
3.45317e-08
1.34288e-09
3.44064e-08
1.34499e-09
3.42806e-08
1.31344e-09
3.41523e-08
1.31756e-09
3.40232e-08
1.28631e-09
3.38922e-08
1.29229e-09
3.37601e-08
1.26233e-09
3.36264e-08
1.27019e-09
3.34915e-08
1.24343e-09
3.33553e-08
1.25333e-09
1.23305e-09
3.74317e-08
2.82992e-09
-3.73366e-08
3.75794e-08
3.21564e-09
3.77724e-08
3.53385e-09
3.79683e-08
3.72054e-09
3.81229e-08
3.7289e-09
3.82248e-08
3.5983e-09
3.82907e-08
3.41285e-09
3.83392e-08
3.245e-09
3.83779e-08
3.11295e-09
3.84067e-08
3.00619e-09
3.84259e-08
2.90748e-09
3.84374e-08
2.8139e-09
3.84441e-08
2.725e-09
3.84476e-08
2.64622e-09
3.84494e-08
2.57506e-09
3.84492e-08
2.51313e-09
3.84477e-08
2.45523e-09
3.84446e-08
2.40392e-09
3.84408e-08
2.35446e-09
3.84359e-08
2.3109e-09
3.84306e-08
2.26813e-09
3.84243e-08
2.23083e-09
3.84178e-08
2.19331e-09
3.84105e-08
2.16096e-09
3.84028e-08
2.12743e-09
3.83942e-08
2.09914e-09
3.83853e-08
2.06876e-09
3.83753e-08
2.04376e-09
3.83648e-08
2.01579e-09
3.83531e-08
1.99351e-09
3.83408e-08
1.96738e-09
3.83269e-08
1.94748e-09
3.83123e-08
1.92285e-09
3.82959e-08
1.90501e-09
3.82786e-08
1.8817e-09
3.82592e-08
1.86569e-09
3.82388e-08
1.84327e-09
3.82159e-08
1.82903e-09
3.81918e-08
1.80704e-09
3.81651e-08
1.79439e-09
3.81369e-08
1.7728e-09
3.81059e-08
1.76143e-09
3.80733e-08
1.74021e-09
3.80377e-08
1.73018e-09
3.80004e-08
1.70889e-09
3.79598e-08
1.70038e-09
3.79174e-08
1.67877e-09
3.78716e-08
1.67148e-09
3.7824e-08
1.64943e-09
3.77729e-08
1.64335e-09
3.77199e-08
1.62078e-09
3.76634e-08
1.61593e-09
3.7605e-08
1.59298e-09
3.75429e-08
1.58929e-09
3.7479e-08
1.5652e-09
3.74115e-08
1.56307e-09
3.73421e-08
1.53782e-09
3.72695e-08
1.53671e-09
3.71947e-08
1.51122e-09
3.71167e-08
1.51135e-09
3.70368e-08
1.48437e-09
3.69537e-08
1.48625e-09
3.68687e-08
1.45793e-09
3.67811e-08
1.46104e-09
3.66911e-08
1.4329e-09
3.65987e-08
1.43741e-09
3.6504e-08
1.40817e-09
3.64074e-08
1.41408e-09
3.63081e-08
1.38563e-09
3.62075e-08
1.39295e-09
3.61037e-08
1.36605e-09
3.59989e-08
1.37504e-09
3.58909e-08
1.35139e-09
3.57822e-08
1.36209e-09
1.34475e-09
3.85887e-08
2.74059e-09
-3.84994e-08
3.87218e-08
3.08256e-09
3.88912e-08
3.36448e-09
3.90684e-08
3.54329e-09
3.92174e-08
3.57994e-09
3.93219e-08
3.49381e-09
3.93907e-08
3.34408e-09
3.94403e-08
3.1954e-09
3.94801e-08
3.07312e-09
3.95112e-08
2.97507e-09
3.95334e-08
2.88525e-09
3.95475e-08
2.79981e-09
3.95562e-08
2.71636e-09
3.95612e-08
2.64124e-09
3.95641e-08
2.57217e-09
3.95649e-08
2.51231e-09
3.95643e-08
2.4558e-09
3.95621e-08
2.40611e-09
3.95591e-08
2.35747e-09
3.9555e-08
2.31498e-09
3.95506e-08
2.27258e-09
3.95454e-08
2.23604e-09
3.954e-08
2.19865e-09
3.9534e-08
2.16696e-09
3.95281e-08
2.13341e-09
3.95215e-08
2.10573e-09
3.9515e-08
2.07525e-09
3.95079e-08
2.05088e-09
3.95009e-08
2.02281e-09
3.94931e-08
2.00123e-09
3.94855e-08
1.97502e-09
3.94771e-08
1.95592e-09
3.94686e-08
1.9313e-09
3.94593e-08
1.91435e-09
3.94498e-08
1.89117e-09
3.94392e-08
1.87624e-09
3.94285e-08
1.85401e-09
3.94164e-08
1.8411e-09
3.9404e-08
1.81943e-09
3.93902e-08
1.80825e-09
3.93757e-08
1.78723e-09
3.93597e-08
1.77743e-09
3.9343e-08
1.75695e-09
3.93244e-08
1.74874e-09
3.93051e-08
1.72827e-09
3.92836e-08
1.7218e-09
3.92612e-08
1.70125e-09
3.92366e-08
1.6961e-09
3.92107e-08
1.67528e-09
3.91826e-08
1.67145e-09
3.91531e-08
1.6503e-09
3.91213e-08
1.6477e-09
3.90878e-08
1.62644e-09
3.9052e-08
1.62517e-09
3.90144e-08
1.60279e-09
3.89743e-08
1.60312e-09
3.89322e-08
1.57992e-09
3.88881e-08
1.58085e-09
3.88415e-08
1.55776e-09
3.87928e-08
1.56013e-09
3.87416e-08
1.53554e-09
3.86883e-08
1.5395e-09
3.86323e-08
1.51396e-09
3.85749e-08
1.51845e-09
3.85142e-08
1.49359e-09
3.84519e-08
1.49974e-09
3.83862e-08
1.4738e-09
3.83198e-08
1.48057e-09
3.82493e-08
1.45608e-09
3.81783e-08
1.46397e-09
3.81031e-08
1.44122e-09
3.80273e-08
1.45081e-09
3.79473e-08
1.43143e-09
3.7867e-08
1.44237e-09
1.42911e-09
3.97748e-08
2.65709e-09
-3.96913e-08
3.98955e-08
2.96191e-09
4.00457e-08
3.21423e-09
4.02056e-08
3.38345e-09
4.03468e-08
3.43868e-09
4.04521e-08
3.38853e-09
4.05238e-08
3.27239e-09
4.05749e-08
3.14433e-09
4.06156e-08
3.03243e-09
4.06484e-08
2.94228e-09
4.06731e-08
2.86051e-09
4.06898e-08
2.78315e-09
4.07004e-08
2.70568e-09
4.07069e-08
2.63478e-09
4.07109e-08
2.56815e-09
4.07128e-08
2.51048e-09
4.07131e-08
2.45548e-09
4.07117e-08
2.4075e-09
4.07093e-08
2.35984e-09
4.07058e-08
2.31846e-09
4.07019e-08
2.27654e-09
4.06972e-08
2.24075e-09
4.06923e-08
2.20354e-09
4.06868e-08
2.17244e-09
4.06814e-08
2.13885e-09
4.06754e-08
2.11164e-09
4.06697e-08
2.08102e-09
4.06635e-08
2.05704e-09
4.06576e-08
2.02876e-09
4.06512e-08
2.00757e-09
4.06451e-08
1.98112e-09
4.06386e-08
1.96241e-09
4.06323e-08
1.93759e-09
4.06256e-08
1.92102e-09
4.06191e-08
1.89768e-09
4.06121e-08
1.88323e-09
4.06053e-08
1.86082e-09
4.05979e-08
1.84854e-09
4.05905e-08
1.82679e-09
4.05825e-08
1.81624e-09
4.05744e-08
1.79539e-09
4.05656e-08
1.78622e-09
4.05565e-08
1.76601e-09
4.05466e-08
1.75866e-09
4.05364e-08
1.7385e-09
4.05252e-08
1.73299e-09
4.05134e-08
1.71304e-09
4.05006e-08
1.70886e-09
4.04871e-08
1.68887e-09
4.04724e-08
1.68607e-09
4.04567e-08
1.66599e-09
4.04401e-08
1.66436e-09
4.04221e-08
1.64445e-09
4.04028e-08
1.6444e-09
4.03822e-08
1.62342e-09
4.03604e-08
1.62492e-09
4.03366e-08
1.60374e-09
4.03121e-08
1.60534e-09
4.02853e-08
1.58456e-09
4.02574e-08
1.58804e-09
4.02271e-08
1.56581e-09
4.0196e-08
1.57065e-09
4.01617e-08
1.54818e-09
4.01274e-08
1.55279e-09
4.00897e-08
1.53132e-09
4.00512e-08
1.53823e-09
4.0009e-08
1.51592e-09
3.99671e-08
1.52253e-09
3.99208e-08
1.50236e-09
3.98747e-08
1.51008e-09
3.98243e-08
1.49167e-09
3.97737e-08
1.50132e-09
3.97186e-08
1.48652e-09
3.96638e-08
1.49724e-09
1.48827e-09
4.09916e-08
2.5791e-09
-4.09136e-08
4.11014e-08
2.85212e-09
4.12359e-08
3.07971e-09
4.13801e-08
3.23921e-09
4.15125e-08
3.30626e-09
4.16168e-08
3.28431e-09
4.16908e-08
3.19832e-09
4.17437e-08
3.09149e-09
4.17852e-08
2.99092e-09
4.18191e-08
2.90834e-09
4.18458e-08
2.8338e-09
4.18648e-08
2.76412e-09
4.18776e-08
2.69295e-09
4.18856e-08
2.62676e-09
4.18908e-08
2.56298e-09
4.18936e-08
2.50766e-09
4.18948e-08
2.45429e-09
4.18942e-08
2.40806e-09
4.18925e-08
2.36157e-09
4.18896e-08
2.32136e-09
4.18861e-08
2.28007e-09
4.18818e-08
2.24502e-09
4.18772e-08
2.20811e-09
4.18721e-08
2.17756e-09
4.18669e-08
2.14404e-09
4.18613e-08
2.11723e-09
4.18558e-08
2.08655e-09
4.185e-08
2.06283e-09
4.18444e-08
2.03441e-09
4.18385e-08
2.01343e-09
4.18328e-08
1.9868e-09
4.1827e-08
1.96823e-09
4.18213e-08
1.94326e-09
4.18156e-08
1.92676e-09
4.181e-08
1.90325e-09
4.18043e-08
1.88893e-09
4.17989e-08
1.86629e-09
4.17932e-08
1.85421e-09
4.17876e-08
1.83234e-09
4.1782e-08
1.82184e-09
4.17763e-08
1.80111e-09
4.17706e-08
1.79197e-09
4.17647e-08
1.77188e-09
4.17586e-08
1.76473e-09
4.17524e-08
1.74471e-09
4.1746e-08
1.73939e-09
4.17392e-08
1.71987e-09
4.17322e-08
1.71581e-09
4.17246e-08
1.69645e-09
4.17169e-08
1.69376e-09
4.17083e-08
1.67459e-09
4.16998e-08
1.67296e-09
4.16901e-08
1.65413e-09
4.16801e-08
1.65435e-09
4.1669e-08
1.63452e-09
4.16579e-08
1.63608e-09
4.16448e-08
1.61685e-09
4.16321e-08
1.61802e-09
4.16174e-08
1.59926e-09
4.16025e-08
1.6029e-09
4.15856e-08
1.58277e-09
4.15688e-08
1.58739e-09
4.1549e-08
1.56802e-09
4.15301e-08
1.57173e-09
4.15081e-08
1.55325e-09
4.14862e-08
1.56017e-09
4.14608e-08
1.54134e-09
4.14364e-08
1.54694e-09
4.14079e-08
1.53081e-09
4.13801e-08
1.53787e-09
4.13485e-08
1.52329e-09
4.13172e-08
1.53261e-09
4.12817e-08
1.522e-09
4.12467e-08
1.53226e-09
1.52703e-09
4.22404e-08
2.50619e-09
-4.21675e-08
4.23406e-08
2.75197e-09
4.24618e-08
2.95847e-09
4.25923e-08
3.10872e-09
4.27156e-08
3.18304e-09
4.28172e-08
3.18272e-09
4.28927e-08
3.12278e-09
4.29474e-08
3.03683e-09
4.29897e-08
2.94854e-09
4.30245e-08
2.87358e-09
4.30527e-08
2.80564e-09
4.30737e-08
2.74305e-09
4.30884e-08
2.67824e-09
4.30981e-08
2.61712e-09
4.31044e-08
2.55663e-09
4.31082e-08
2.50383e-09
4.31103e-08
2.45225e-09
4.31105e-08
2.40779e-09
4.31095e-08
2.36263e-09
4.31072e-08
2.32363e-09
4.31041e-08
2.28315e-09
4.31003e-08
2.24885e-09
4.3096e-08
2.21237e-09
4.30913e-08
2.18235e-09
4.30863e-08
2.14902e-09
4.3081e-08
2.12253e-09
4.30756e-08
2.09193e-09
4.307e-08
2.06838e-09
4.30645e-08
2.03994e-09
4.30589e-08
2.01905e-09
4.30533e-08
1.99235e-09
4.30478e-08
1.97377e-09
4.30423e-08
1.94877e-09
4.30369e-08
1.93214e-09
4.30316e-08
1.90857e-09
4.30264e-08
1.89418e-09
4.30213e-08
1.87138e-09
4.30162e-08
1.85923e-09
4.30112e-08
1.83734e-09
4.30065e-08
1.82656e-09
4.30016e-08
1.80604e-09
4.2997e-08
1.79655e-09
4.29923e-08
1.77661e-09
4.29877e-08
1.76928e-09
4.2983e-08
1.74942e-09
4.29786e-08
1.7438e-09
4.29738e-08
1.72473e-09
4.29694e-08
1.72023e-09
4.29643e-08
1.70148e-09
4.29598e-08
1.69832e-09
4.29544e-08
1.68001e-09
4.29496e-08
1.67776e-09
4.29438e-08
1.65985e-09
4.29384e-08
1.65974e-09
4.29321e-08
1.64091e-09
4.29264e-08
1.64175e-09
4.29188e-08
1.62441e-09
4.29124e-08
1.62447e-09
4.29043e-08
1.60737e-09
4.28966e-08
1.6106e-09
4.28871e-08
1.59223e-09
4.28786e-08
1.59586e-09
4.28673e-08
1.57938e-09
4.28573e-08
1.58168e-09
4.28451e-08
1.5655e-09
4.28333e-08
1.57198e-09
4.28184e-08
1.55619e-09
4.2805e-08
1.56031e-09
4.27883e-08
1.54753e-09
4.27724e-08
1.55377e-09
4.27535e-08
1.54217e-09
4.27352e-08
1.55094e-09
4.27135e-08
1.54375e-09
4.26922e-08
1.5535e-09
1.55113e-09
4.35227e-08
2.43794e-09
-4.34545e-08
4.36143e-08
2.66033e-09
4.37242e-08
2.84864e-09
4.38426e-08
2.99027e-09
4.39568e-08
3.06885e-09
4.40546e-08
3.08491e-09
4.41305e-08
3.04687e-09
4.41868e-08
2.98055e-09
4.42302e-08
2.90519e-09
4.42656e-08
2.83817e-09
4.42948e-08
2.77645e-09
4.43175e-08
2.72033e-09
4.4334e-08
2.66173e-09
4.43452e-08
2.60588e-09
4.43528e-08
2.54907e-09
4.43576e-08
2.499e-09
4.43605e-08
2.44939e-09
4.43616e-08
2.4067e-09
4.43612e-08
2.36302e-09
4.43596e-08
2.32525e-09
4.4357e-08
2.28575e-09
4.43536e-08
2.25222e-09
4.43497e-08
2.2163e-09