/*--------------------------------*- C++ -*----------------------------------*\
| =========                 |                                                 |
| \\      /  F ield         | OpenFOAM: The Open Source CFD Toolbox           |
|  \\    /   O peration     | Version:  2.3.0                                 |
|   \\  /    A nd           | Web:      www.OpenFOAM.org                      |
|    \\/     M anipulation  |                                                 |
\*---------------------------------------------------------------------------*/
FoamFile
{
    version     2.0;
    format      ascii;
    class       surfaceScalarField;
    location    "0.55";
    object      phi;
}
// * * * * * * * * * * * * * * * * * * * * * * * * * * * * * * * * * * * * * //

dimensions      [0 3 -1 0 0 0 0];

internalField   nonuniform List<scalar> 
4357
(
4.99625e-08
2.04757e-09
-5.201e-08
4.78076e-08
2.15482e-09
4.5643e-08
2.16462e-09
4.34943e-08
2.14869e-09
4.13737e-08
2.12063e-09
3.9292e-08
2.08168e-09
3.7258e-08
2.03399e-09
3.52785e-08
1.97953e-09
3.33589e-08
1.91959e-09
3.1504e-08
1.85491e-09
2.9718e-08
1.78598e-09
2.80048e-08
1.71324e-09
2.63676e-08
1.63713e-09
2.48095e-08
1.55814e-09
2.33327e-08
1.47677e-09
2.19391e-08
1.39361e-09
2.06298e-08
1.30929e-09
1.94053e-08
1.2245e-09
1.82654e-08
1.13995e-09
1.7209e-08
1.05638e-09
1.62345e-08
9.7452e-10
1.53394e-08
8.9508e-10
1.45207e-08
8.18712e-10
1.37747e-08
7.45999e-10
1.30973e-08
6.77435e-10
1.24838e-08
6.13406e-10
1.19297e-08
5.54188e-10
1.14297e-08
4.99934e-10
1.0979e-08
4.5069e-10
1.05726e-08
4.06389e-10
1.02058e-08
3.66874e-10
9.87387e-09
3.31908e-10
9.57267e-09
3.01191e-10
9.29829e-09
2.74381e-10
9.04718e-09
2.5111e-10
8.81619e-09
2.30995e-10
8.60253e-09
2.1366e-10
8.40379e-09
1.98741e-10
8.21789e-09
1.85895e-10
8.04308e-09
1.7481e-10
7.87788e-09
1.65202e-10
7.72106e-09
1.56823e-10
7.5716e-09
1.49457e-10
7.42868e-09
1.42921e-10
7.29162e-09
1.37062e-10
7.15987e-09
1.31753e-10
7.03297e-09
1.26892e-10
6.91058e-09
1.22397e-10
6.79237e-09
1.18202e-10
6.67812e-09
1.14257e-10
6.56759e-09
1.10523e-10
6.46062e-09
1.06973e-10
6.35704e-09
1.03583e-10
6.2567e-09
1.00337e-10
6.15948e-09
9.72228e-11
6.06525e-09
9.42308e-11
5.97389e-09
9.13534e-11
5.88531e-09
8.85845e-11
5.79939e-09
8.59187e-11
5.71604e-09
8.33511e-11
5.63516e-09
8.08771e-11
5.55667e-09
7.84923e-11
5.48048e-09
7.61921e-11
5.40651e-09
7.39722e-11
5.33468e-09
7.1828e-11
5.26492e-09
6.97552e-11
5.19717e-09
6.77494e-11
5.13137e-09
6.58063e-11
5.06745e-09
6.39217e-11
5.00535e-09
6.20916e-11
4.94504e-09
6.03121e-11
4.88646e-09
5.85796e-11
4.82957e-09
5.68907e-11
4.77433e-09
5.52421e-11
4.7207e-09
5.36308e-11
4.66864e-09
5.20543e-11
4.61814e-09
5.05098e-11
4.56914e-09
4.89954e-11
4.52163e-09
4.75091e-11
4.47558e-09
4.60491e-11
4.43097e-09
4.46142e-11
4.38776e-09
4.32034e-11
4.34595e-09
4.18158e-11
4.3055e-09
4.04512e-11
4.26639e-09
3.91095e-11
4.2286e-09
3.77913e-11
4.1921e-09
3.64977e-11
4.15687e-09
3.52304e-11
4.12288e-09
3.39923e-11
4.09009e-09
3.27872e-11
4.05847e-09
3.16211e-11
4.02796e-09
3.05026e-11
3.99852e-09
2.94447e-11
3.97005e-09
2.84686e-11
3.94244e-09
2.76104e-11
3.9155e-09
2.69403e-11
3.88889e-09
2.66131e-11
3.86194e-09
2.69497e-11
3.83247e-09
2.94728e-11
6.42186e-11
5.77083e-08
2.15824e-09
-5.7819e-08
5.74652e-08
2.39798e-09
5.70876e-08
2.5422e-09
5.65964e-08
2.63987e-09
5.60062e-08
2.71087e-09
5.53284e-08
2.75942e-09
5.45743e-08
2.78816e-09
5.37539e-08
2.79994e-09
5.28766e-08
2.7969e-09
5.19511e-08
2.78039e-09
5.09856e-08
2.75141e-09
4.99881e-08
2.71081e-09
4.89657e-08
2.65947e-09
4.79256e-08
2.59827e-09
4.68742e-08
2.52817e-09
4.58176e-08
2.45019e-09
4.47615e-08
2.36543e-09
4.37109e-08
2.27507e-09
4.26705e-08
2.18037e-09
4.16443e-08
2.08258e-09
4.06358e-08
1.983e-09
3.9648e-08
1.88287e-09
3.86833e-08
1.78339e-09
3.77437e-08
1.68564e-09
3.68305e-08
1.5906e-09
3.59448e-08
1.4991e-09
3.50872e-08
1.4118e-09
3.42579e-08
1.32922e-09
3.34569e-08
1.25168e-09
3.2684e-08
1.17938e-09
3.19385e-08
1.11235e-09
3.12199e-08
1.05051e-09
3.05274e-08
9.93694e-10
2.98601e-08
9.41633e-10
2.92172e-08
8.9402e-10
2.85977e-08
8.50507e-10
2.80006e-08
8.10731e-10
2.7425e-08
7.74326e-10
2.687e-08
7.40937e-10
2.63346e-08
7.10229e-10
2.58179e-08
6.81891e-10
2.53191e-08
6.55641e-10
2.48373e-08
6.31228e-10
2.43718e-08
6.0843e-10
2.39218e-08
5.8706e-10
2.34866e-08
5.66954e-10
2.30655e-08
5.47972e-10
2.26579e-08
5.29996e-10
2.22632e-08
5.12928e-10
2.18808e-08
4.96685e-10
2.15101e-08
4.81197e-10
2.11507e-08
4.66406e-10
2.0802e-08
4.52262e-10
2.04636e-08
4.38722e-10
2.01351e-08
4.25748e-10
1.9816e-08
4.13307e-10
1.9506e-08
4.0137e-10
1.92047e-08
3.89907e-10
1.89117e-08
3.78893e-10
1.86267e-08
3.68304e-10
1.83495e-08
3.58116e-10
1.80797e-08
3.48306e-10
1.7817e-08
3.38853e-10
1.75613e-08
3.29736e-10
1.73121e-08
3.20935e-10
1.70695e-08
3.1243e-10
1.6833e-08
3.04202e-10
1.66026e-08
2.96234e-10
1.6378e-08
2.88509e-10
1.61591e-08
2.8101e-10
1.59457e-08
2.73722e-10
1.57376e-08
2.66631e-10
1.55348e-08
2.59723e-10
1.5337e-08
2.52985e-10
1.51443e-08
2.46407e-10
1.49563e-08
2.39976e-10
1.47732e-08
2.33685e-10
1.45946e-08
2.27524e-10
1.44207e-08
2.21485e-10
1.42512e-08
2.15563e-10
1.4086e-08
2.0975e-10
1.39252e-08
2.04044e-10
1.37686e-08
1.9844e-10
1.36161e-08
1.92937e-10
1.34676e-08
1.87533e-10
1.33232e-08
1.82231e-10
1.31827e-08
1.77033e-10
1.3046e-08
1.71943e-10
1.2913e-08
1.66971e-10
1.27836e-08
1.62128e-10
1.26578e-08
1.57431e-10
1.25354e-08
1.52906e-10
1.24163e-08
1.48592e-10
1.23002e-08
1.4455e-10
1.21869e-08
1.40887e-10
1.20761e-08
1.37806e-10
1.19669e-08
1.35754e-10
1.18579e-08
1.35988e-10
1.17425e-08
1.44821e-10
1.94997e-10
6.27568e-08
2.151e-09
-6.27496e-08
6.27684e-08
2.38642e-09
6.27516e-08
2.55898e-09
6.26982e-08
2.69328e-09
6.26047e-08
2.80436e-09
6.24679e-08
2.89625e-09
6.22858e-08
2.97018e-09
6.20581e-08
3.02763e-09
6.17851e-08
3.06993e-09
6.14676e-08
3.09787e-09
6.11071e-08
3.11199e-09
6.07051e-08
3.11273e-09
6.0264e-08
3.10057e-09
5.97862e-08
3.07608e-09
5.92745e-08
3.03993e-09
5.87317e-08
2.99293e-09
5.81611e-08
2.93605e-09
5.75658e-08
2.87038e-09
5.6949e-08
2.79711e-09
5.63141e-08
2.71756e-09
5.5664e-08
2.63309e-09
5.50018e-08
2.54507e-09
5.43303e-08
2.45486e-09
5.36522e-08
2.36375e-09
5.29698e-08
2.27295e-09
5.22854e-08
2.18353e-09
5.16008e-08
2.0964e-09
5.09177e-08
2.01232e-09
5.02375e-08
1.93186e-09
4.95615e-08
1.85544e-09
4.88905e-08
1.78331e-09
4.82254e-08
1.71558e-09
4.75669e-08
1.65223e-09
4.69154e-08
1.59315e-09
4.62713e-08
1.53815e-09
4.56348e-08
1.48697e-09
4.50062e-08
1.43933e-09
4.43856e-08
1.39492e-09
4.37731e-08
1.35343e-09
4.31688e-08
1.31456e-09
4.25727e-08
1.27802e-09
4.19848e-08
1.24354e-09
4.14051e-08
1.2109e-09
4.08337e-08
1.17986e-09
4.02705e-08
1.15025e-09
3.97155e-08
1.12191e-09
3.91688e-08
1.0947e-09
3.86303e-08
1.06851e-09
3.81e-08
1.04323e-09
3.75779e-08
1.0188e-09
3.70639e-08
9.95139e-10
3.65581e-08
9.72201e-10
3.60605e-08
9.49938e-10
3.55709e-08
9.28312e-10
3.50893e-08
9.0729e-10
3.46158e-08
8.86843e-10
3.41502e-08
8.66947e-10
3.36925e-08
8.47577e-10
3.32427e-08
8.28712e-10
3.28007e-08
8.10331e-10
3.23664e-08
7.92413e-10
3.19398e-08
7.74939e-10
3.15207e-08
7.57889e-10
3.11092e-08
7.41245e-10
3.07052e-08
7.24987e-10
3.03085e-08
7.09096e-10
2.99192e-08
6.93554e-10
2.9537e-08
6.78343e-10
2.91621e-08
6.63445e-10
2.87943e-08
6.48843e-10
2.84335e-08
6.34521e-10
2.80796e-08
6.20462e-10
2.77327e-08
6.06653e-10
2.73926e-08
5.93078e-10
2.70593e-08
5.79724e-10
2.67327e-08
5.66579e-10
2.64128e-08
5.53631e-10
2.60994e-08
5.40872e-10
2.57926e-08
5.28291e-10
2.54923e-08
5.15882e-10
2.51984e-08
5.03639e-10
2.49109e-08
4.91557e-10
2.46297e-08
4.79634e-10
2.43548e-08
4.67871e-10
2.4086e-08
4.56268e-10
2.38234e-08
4.44831e-10
2.35669e-08
4.33568e-10
2.33163e-08
4.22492e-10
2.30717e-08
4.1162e-10
2.28328e-08
4.00976e-10
2.25997e-08
3.90596e-10
2.23721e-08
3.80529e-10
2.21498e-08
3.70847e-10
2.19327e-08
3.61664e-10
2.17204e-08
3.53176e-10
2.15125e-08
3.45749e-10
2.1308e-08
3.40194e-10
2.11052e-08
3.38781e-10
2.09001e-08
3.49898e-10
3.96224e-10
6.79987e-08
2.17498e-09
-6.80227e-08
6.80028e-08
2.38232e-09
6.80097e-08
2.55212e-09
6.80103e-08
2.69269e-09
6.80017e-08
2.8129e-09
6.79815e-08
2.91649e-09
6.7947e-08
3.00469e-09
6.78961e-08
3.07855e-09
6.78269e-08
3.13909e-09
6.77378e-08
3.18699e-09
6.76271e-08
3.22263e-09
6.74936e-08
3.24626e-09
6.73361e-08
3.2581e-09
6.71537e-08
3.25843e-09
6.6946e-08
3.24763e-09
6.67128e-08
3.22618e-09
6.64541e-08
3.19471e-09
6.61705e-08
3.15399e-09
6.58627e-08
3.10495e-09
6.55316e-08
3.04863e-09
6.51785e-08
2.98615e-09
6.48049e-08
2.91872e-09
6.44122e-08
2.84754e-09
6.40021e-08
2.77384e-09
6.35763e-08
2.69876e-09
6.31365e-08
2.62336e-09
6.26843e-08
2.54862e-09
6.22212e-08
2.47535e-09
6.17489e-08
2.40422e-09
6.12685e-08
2.33578e-09
6.07815e-08
2.27039e-09
6.02887e-08
2.20829e-09
5.97914e-08
2.14962e-09
5.92901e-08
2.09438e-09
5.87858e-08
2.04249e-09
5.82789e-08
1.99381e-09
5.77701e-08
1.94815e-09
5.72598e-08
1.90528e-09
5.67482e-08
1.86495e-09
5.62359e-08
1.82692e-09
5.57229e-08
1.79094e-09
5.52097e-08
1.75678e-09
5.46964e-08
1.72422e-09
5.41832e-08
1.69307e-09
5.36703e-08
1.66314e-09
5.31579e-08
1.6343e-09
5.26462e-08
1.6064e-09
5.21354e-08
1.57933e-09
5.16256e-08
1.55301e-09
5.11171e-08
1.52734e-09
5.06099e-08
1.50227e-09
5.01044e-08
1.47775e-09
4.96006e-08
1.45372e-09
4.90988e-08
1.43015e-09
4.8599e-08
1.40702e-09
4.81016e-08
1.38428e-09
4.76066e-08
1.36193e-09
4.71143e-08
1.33993e-09
4.66247e-08
1.31827e-09
4.61381e-08
1.29694e-09
4.56546e-08
1.27591e-09
4.51744e-08
1.25517e-09
4.46975e-08
1.2347e-09
4.42243e-08
1.21449e-09
4.37548e-08
1.19451e-09
4.32891e-08
1.17476e-09
4.28274e-08
1.15522e-09
4.23699e-08
1.13588e-09
4.19166e-08
1.11671e-09
4.14678e-08
1.0977e-09
4.10235e-08
1.07885e-09
4.05838e-08
1.06014e-09
4.01489e-08
1.04155e-09
3.97189e-08
1.02307e-09
3.92939e-08
1.0047e-09
3.88741e-08
9.86425e-10
3.84595e-08
9.68236e-10
3.80502e-08
9.50129e-10
3.76464e-08
9.32097e-10
3.72481e-08
9.14138e-10
3.68555e-08
8.96252e-10
3.64687e-08
8.7844e-10
3.60876e-08
8.60705e-10
3.57124e-08
8.43054e-10
3.53432e-08
8.25498e-10
3.49799e-08
8.08051e-10
3.46228e-08
7.90732e-10
3.42717e-08
7.73566e-10
3.39267e-08
7.56587e-10
3.35879e-08
7.39837e-10
3.32551e-08
7.23375e-10
3.29284e-08
7.0728e-10
3.26075e-08
6.91666e-10
3.22925e-08
6.76704e-10
3.1983e-08
6.62681e-10
3.16786e-08
6.50117e-10
3.13787e-08
6.40103e-10
3.10822e-08
6.35325e-10
3.07893e-08
6.42788e-10
6.72028e-10
7.36407e-08
2.23407e-09
-7.36998e-08
7.36101e-08
2.41293e-09
7.35919e-08
2.57037e-09
7.35777e-08
2.70684e-09
7.35645e-08
2.82616e-09
7.355e-08
2.93093e-09
7.35324e-08
3.0223e-09
7.35099e-08
3.10104e-09
7.34811e-08
3.16788e-09
7.34447e-08
3.22342e-09
7.33993e-08
3.26802e-09
7.33436e-08
3.30195e-09
7.32763e-08
3.32542e-09
7.31961e-08
3.33866e-09
7.31018e-08
3.34194e-09
7.29923e-08
3.33564e-09
7.28668e-08
3.32022e-09
7.27245e-08
3.29627e-09
7.2565e-08
3.2645e-09
7.23879e-08
3.2257e-09
7.21933e-08
3.18078e-09
7.19813e-08
3.13071e-09
7.17523e-08
3.07649e-09
7.1507e-08
3.01916e-09
7.12461e-08
2.95971e-09
7.09703e-08
2.89909e-09
7.06808e-08
2.83817e-09
7.03784e-08
2.77772e-09
7.00642e-08
2.71842e-09
6.97392e-08
2.66081e-09
6.94043e-08
2.6053e-09
6.90604e-08
2.55221e-09
6.87083e-08
2.50171e-09
6.83487e-08
2.45392e-09
6.79824e-08
2.40882e-09
6.76098e-08
2.36637e-09
6.72315e-08
2.32645e-09
6.68479e-08
2.28891e-09
6.64593e-08
2.25355e-09
6.6066e-08
2.22019e-09
6.56683e-08
2.18863e-09
6.52664e-08
2.15867e-09
6.48605e-08
2.13013e-09
6.44508e-08
2.10282e-09
6.40373e-08
2.07659e-09
6.36204e-08
2.05129e-09
6.31999e-08
2.02681e-09
6.27763e-08
2.00302e-09
6.23494e-08
1.97984e-09
6.19196e-08
1.95718e-09
6.14869e-08
1.93498e-09
6.10514e-08
1.91318e-09
6.06134e-08
1.89173e-09
6.0173e-08
1.87059e-09
5.97303e-08
1.84973e-09
5.92854e-08
1.8291e-09
5.88387e-08
1.8087e-09
5.83901e-08
1.78848e-09
5.794e-08
1.76843e-09
5.74884e-08
1.74853e-09
5.70355e-08
1.72876e-09
5.65816e-08
1.7091e-09
5.61268e-08
1.68952e-09
5.56712e-08
1.67002e-09
5.52152e-08
1.65056e-09
5.47588e-08
1.63114e-09
5.43023e-08
1.61174e-09
5.38458e-08
1.59233e-09
5.33896e-08
1.57291e-09
5.29339e-08
1.55345e-09
5.24788e-08
1.53394e-09
5.20246e-08
1.51437e-09
5.15714e-08
1.49472e-09
5.11195e-08
1.47498e-09
5.0669e-08
1.45514e-09
5.02203e-08
1.43518e-09
4.97734e-08
1.41511e-09
4.93286e-08
1.39491e-09
4.88861e-08
1.37459e-09
4.84461e-08
1.35413e-09
4.80089e-08
1.33354e-09
4.75745e-08
1.31284e-09
4.71432e-08
1.29201e-09
4.67151e-08
1.27108e-09
4.62906e-08
1.25007e-09
4.58696e-08
1.22899e-09
4.54525e-08
1.20787e-09
4.50393e-08
1.18676e-09
4.46302e-08
1.16569e-09
4.42253e-08
1.14474e-09
4.38247e-08
1.12398e-09
4.34284e-08
1.10352e-09
4.30366e-08
1.08351e-09
4.26491e-08
1.06417e-09
4.22659e-08
1.04586e-09
4.18869e-08
1.02918e-09
4.15117e-08
1.01529e-09
4.11405e-08
1.00648e-09
4.07767e-08
1.0066e-09
1.01425e-09
7.9731e-08
2.31936e-09
-7.98163e-08
7.96703e-08
2.47363e-09
7.96248e-08
2.61591e-09
7.95875e-08
2.74414e-09
7.95546e-08
2.85907e-09
7.95237e-08
2.96183e-09
7.94929e-08
3.05308e-09
7.94607e-08
3.13323e-09
7.94259e-08
3.20268e-09
7.93875e-08
3.26184e-09
7.93445e-08
3.31101e-09
7.9296e-08
3.35045e-09
7.92411e-08
3.38037e-09
7.91787e-08
3.401e-09
7.9108e-08
3.41262e-09
7.90281e-08
3.41557e-09
7.89381e-08
3.41026e-09
7.88371e-08
3.39718e-09
7.87247e-08
3.37692e-09
7.86003e-08
3.35014e-09
7.84635e-08
3.31761e-09
7.8314e-08
3.28012e-09
7.8152e-08
3.23851e-09
7.79775e-08
3.19366e-09
7.77908e-08
3.1464e-09
7.75924e-08
3.09758e-09
7.73826e-08
3.04795e-09
7.71621e-08
2.99821e-09
7.69315e-08
2.94899e-09
7.66915e-08
2.9008e-09
7.64428e-08
2.85406e-09
7.61859e-08
2.8091e-09
7.59214e-08
2.76614e-09
7.565e-08
2.72533e-09
7.53721e-08
2.68674e-09
7.50881e-08
2.65035e-09
7.47985e-08
2.61613e-09
7.45034e-08
2.58398e-09
7.42032e-08
2.55377e-09
7.3898e-08
2.52535e-09
7.35881e-08
2.49857e-09
7.32735e-08
2.47327e-09
7.29543e-08
2.44929e-09
7.26307e-08
2.42648e-09
7.23025e-08
2.4047e-09
7.197e-08
2.38381e-09
7.16331e-08
2.36371e-09
7.12919e-08
2.34427e-09
7.09463e-08
2.32542e-09
7.05964e-08
2.30706e-09
7.02423e-08
2.28913e-09
6.98839e-08
2.27156e-09
6.95213e-08
2.2543e-09
6.91546e-08
2.2373e-09
6.87838e-08
2.22052e-09
6.8409e-08
2.20392e-09
6.80302e-08
2.18747e-09
6.76476e-08
2.17114e-09
6.72611e-08
2.1549e-09
6.68709e-08
2.13871e-09
6.64771e-08
2.12256e-09
6.60798e-08
2.10641e-09
6.56791e-08
2.09024e-09
6.52751e-08
2.07403e-09
6.48679e-08
2.05775e-09
6.44576e-08
2.04138e-09
6.40445e-08
2.02489e-09
6.36286e-08
2.00826e-09
6.321e-08
1.99147e-09
6.2789e-08
1.97449e-09
6.23656e-08
1.95731e-09
6.19401e-08
1.9399e-09
6.15126e-08
1.92224e-09
6.10832e-08
1.90431e-09
6.06523e-08
1.8861e-09
6.02198e-08
1.8676e-09
5.97862e-08
1.84879e-09
5.93514e-08
1.82966e-09
5.89158e-08
1.81021e-09
5.84795e-08
1.79042e-09
5.80428e-08
1.7703e-09
5.76057e-08
1.74985e-09
5.71687e-08
1.72908e-09
5.67318e-08
1.708e-09
5.62952e-08
1.68663e-09
5.58592e-08
1.66499e-09
5.54239e-08
1.64312e-09
5.49896e-08
1.62106e-09
5.45565e-08
1.59886e-09
5.41246e-08
1.57661e-09
5.36942e-08
1.55439e-09
5.32654e-08
1.53234e-09
5.28383e-08
1.51062e-09
5.24129e-08
1.4895e-09
5.19895e-08
1.46934e-09
5.15679e-08
1.45075e-09
5.11485e-08
1.43469e-09
5.07324e-08
1.42255e-09
5.03239e-08
1.41515e-09
1.40538e-09
8.63058e-08
2.42553e-09
-8.6412e-08
8.62195e-08
2.5599e-09
8.61479e-08
2.68754e-09
8.60859e-08
2.80613e-09
8.603e-08
2.91496e-09
8.59778e-08
3.01407e-09
8.59273e-08
3.10354e-09
8.58771e-08
3.18347e-09
8.58258e-08
3.25398e-09
8.57724e-08
3.31526e-09
8.57159e-08
3.36749e-09
8.56555e-08
3.41084e-09
8.55904e-08
3.44549e-09
8.55197e-08
3.47166e-09
8.54428e-08
3.48957e-09
8.53588e-08
3.49954e-09
8.52672e-08
3.50191e-09
8.51672e-08
3.49712e-09
8.50584e-08
3.48568e-09
8.49404e-08
3.46814e-09
8.48129e-08
3.44516e-09
8.46756e-08
3.41741e-09
8.45285e-08
3.38562e-09
8.43716e-08
3.35052e-09
8.42052e-08
3.31284e-09
8.40294e-08
3.27332e-09
8.38448e-08
3.23262e-09
8.36516e-08
3.19139e-09
8.34504e-08
3.15017e-09
8.32417e-08
3.10948e-09
8.30261e-08
3.06972e-09
8.2804e-08
3.03121e-09
8.25759e-08
2.99422e-09
8.23423e-08
2.95893e-09
8.21036e-08
2.92543e-09
8.18601e-08
2.89379e-09
8.16123e-08
2.86401e-09
8.13602e-08
2.83604e-09
8.11042e-08
2.8098e-09
8.08443e-08
2.78521e-09
8.05807e-08
2.76215e-09
8.03135e-08
2.74049e-09
8.00427e-08
2.72012e-09
7.97683e-08
2.7009e-09
7.94903e-08
2.68271e-09
7.92086e-08
2.66545e-09
7.89233e-08
2.64901e-09
7.86343e-08
2.63328e-09
7.83415e-08
2.61818e-09
7.8045e-08
2.60363e-09
7.77445e-08
2.58956e-09
7.74402e-08
2.5759e-09
7.71319e-08
2.5626e-09
7.68196e-08
2.5496e-09
7.65033e-08
2.53686e-09
7.61829e-08
2.52433e-09
7.58583e-08
2.51198e-09
7.55297e-08
2.49977e-09
7.5197e-08
2.48765e-09
7.48601e-08
2.4756e-09
7.4519e-08
2.46359e-09
7.41739e-08
2.45158e-09
7.38246e-08
2.43953e-09
7.34712e-08
2.42743e-09
7.31137e-08
2.41523e-09
7.27522e-08
2.4029e-09
7.23867e-08
2.39042e-09
7.20172e-08
2.37775e-09
7.16438e-08
2.36487e-09
7.12665e-08
2.35174e-09
7.08855e-08
2.33833e-09
7.05008e-08
2.32463e-09
7.01124e-08
2.31059e-09
6.97205e-08
2.2962e-09
6.93252e-08
2.28144e-09
6.89265e-08
2.26627e-09
6.85246e-08
2.25068e-09
6.81196e-08
2.23466e-09
6.77116e-08
2.21819e-09
6.73008e-08
2.20126e-09
6.68872e-08
2.18385e-09
6.64711e-08
2.16598e-09
6.60526e-08
2.14764e-09
6.56317e-08
2.12884e-09
6.52087e-08
2.1096e-09
6.47838e-08
2.08993e-09
6.4357e-08
2.06987e-09
6.39286e-08
2.04947e-09
6.34987e-08
2.02879e-09
6.30674e-08
2.0079e-09
6.26349e-08
1.9869e-09
6.22013e-08
1.96593e-09
6.17668e-08
1.94517e-09
6.13314e-08
1.92487e-09
6.08953e-08
1.9054e-09
6.04589e-08
1.88723e-09
6.00226e-08
1.87098e-09
5.95879e-08
1.85718e-09
5.91582e-08
1.84485e-09
1.82649e-09
9.34033e-08
2.55047e-09
-9.35282e-08
9.32941e-08
2.66904e-09
9.31979e-08
2.78377e-09
9.31114e-08
2.89269e-09
9.30316e-08
2.99468e-09
9.29565e-08
3.08917e-09
9.28842e-08
3.17586e-09
9.28131e-08
3.25457e-09
9.27419e-08
3.3252e-09
9.26694e-08
3.38775e-09
9.25947e-08
3.44224e-09
9.25167e-08
3.48875e-09
9.24348e-08
3.52739e-09
9.23482e-08
3.5583e-09
9.22561e-08
3.58167e-09
9.21579e-08
3.59775e-09
9.2053e-08
3.60682e-09
9.19408e-08
3.60926e-09
9.1821e-08
3.60549e-09
9.16932e-08
3.59598e-09
9.15571e-08
3.58128e-09
9.14125e-08
3.56197e-09
9.12595e-08
3.53865e-09
9.1098e-08
3.51197e-09
9.09283e-08
3.48255e-09
9.07506e-08
3.45104e-09
9.05652e-08
3.41802e-09
9.03725e-08
3.38408e-09
9.0173e-08
3.34971e-09
8.9967e-08
3.3154e-09
8.97552e-08
3.28153e-09
8.9538e-08
3.24845e-09
8.93158e-08
3.21642e-09
8.90891e-08
3.18564e-09
8.88583e-08
3.15627e-09
8.86237e-08
3.12839e-09
8.83856e-08
3.10206e-09
8.81444e-08
3.07728e-09
8.79001e-08
3.05403e-09
8.76531e-08
3.03225e-09
8.74033e-08
3.01188e-09
8.7151e-08
2.99284e-09
8.68961e-08
2.97502e-09
8.66387e-08
2.95834e-09
8.63787e-08
2.9427e-09
8.61161e-08
2.92802e-09
8.58509e-08
2.91419e-09
8.55831e-08
2.90113e-09
8.53125e-08
2.88877e-09
8.50391e-08
2.87703e-09
8.47628e-08
2.86585e-09
8.44835e-08
2.85516e-09
8.42012e-08
2.84491e-09
8.39158e-08
2.83504e-09
8.36271e-08
2.82551e-09
8.33352e-08
2.81628e-09
8.30399e-08
2.80729e-09
8.27411e-08
2.79851e-09
8.24389e-08
2.7899e-09
8.21331e-08
2.78142e-09
8.18236e-08
2.77304e-09
8.15105e-08
2.76472e-09
8.11936e-08
2.75642e-09
8.08729e-08
2.7481e-09
8.05484e-08
2.73974e-09
8.022e-08
2.73129e-09
7.98877e-08
2.72272e-09
7.95515e-08
2.71399e-09
7.92113e-08
2.70508e-09
7.88671e-08
2.69593e-09
7.85189e-08
2.68653e-09
7.81667e-08
2.67683e-09
7.78105e-08
2.66681e-09
7.74502e-08
2.65643e-09
7.7086e-08
2.64566e-09
7.67178e-08
2.63448e-09
7.63456e-08
2.62286e-09
7.59695e-08
2.61077e-09
7.55895e-08
2.5982e-09
7.52057e-08
2.58512e-09
7.4818e-08
2.57153e-09
7.44265e-08
2.55742e-09
7.40314e-08
2.54277e-09
7.36326e-08
2.52761e-09
7.32303e-08
2.51193e-09
7.28245e-08
2.49575e-09
7.24153e-08
2.47911e-09
7.20027e-08
2.46205e-09
7.15868e-08
2.44462e-09
7.11678e-08
2.4269e-09
7.07458e-08
2.40898e-09
7.03207e-08
2.39101e-09
6.98927e-08
2.37315e-09
6.94619e-08
2.35563e-09
6.90286e-08
2.33874e-09
6.8593e-08
2.32282e-09
6.81558e-08
2.30815e-09
6.77183e-08
2.29467e-09
6.72821e-08
2.28111e-09
2.26305e-09
1.01066e-07
2.69359e-09
-1.01209e-07
1.00935e-07
2.79969e-09
1.00815e-07
2.90353e-09
1.00704e-07
3.00361e-09
1.006e-07
3.09882e-09
1.00501e-07
3.18839e-09
1.00405e-07
3.2718e-09
1.00311e-07
3.34868e-09
1.00217e-07
3.41878e-09
1.00123e-07
3.48193e-09
1.00027e-07
3.53805e-09
9.99289e-08
3.58711e-09
9.98272e-08
3.62914e-09
9.97213e-08
3.6642e-09
9.96105e-08
3.69243e-09
9.94943e-08
3.714e-09
9.93719e-08
3.72915e-09
9.9243e-08
3.73816e-09
9.91072e-08
3.74137e-09
9.89639e-08
3.7392e-09
9.88131e-08
3.73208e-09
9.86546e-08
3.72049e-09
9.84883e-08
3.70496e-09
9.83143e-08
3.68601e-09
9.81326e-08
3.6642e-09
9.79436e-08
3.64008e-09
9.77474e-08
3.61417e-09
9.75445e-08
3.58697e-09
9.73353e-08
3.55896e-09
9.71201e-08
3.53058e-09
9.68995e-08
3.50219e-09
9.66738e-08
3.47413e-09
9.64435e-08
3.44667e-09
9.62091e-08
3.42005e-09
9.59709e-08
3.39444e-09
9.57294e-08
3.36996e-09
9.54847e-08
3.34671e-09
9.52373e-08
3.32472e-09
9.49873e-08
3.30402e-09
9.47349e-08
3.28461e-09
9.44804e-08
3.26644e-09
9.42237e-08
3.24947e-09
9.39651e-08
3.23366e-09
9.37045e-08
3.21893e-09
9.3442e-08
3.20521e-09
9.31776e-08
3.19243e-09
9.29113e-08
3.18054e-09
9.26429e-08
3.16944e-09
9.23726e-08
3.15909e-09
9.21002e-08
3.14941e-09
9.18257e-08
3.14035e-09
9.15491e-08
3.13185e-09
9.12701e-08
3.12386e-09
9.09888e-08
3.11634e-09
9.07051e-08
3.10922e-09
9.04189e-08
3.10248e-09
9.01301e-08
3.09606e-09
8.98387e-08
3.08994e-09
8.95445e-08
3.08406e-09
8.92476e-08
3.07839e-09
8.89477e-08
3.0729e-09
8.86449e-08
3.06754e-09
8.8339e-08
3.06227e-09
8.80301e-08
3.05707e-09
8.77179e-08
3.05189e-09
8.74025e-08
3.0467e-09
8.70838e-08
3.04145e-09
8.67616e-08
3.03612e-09
8.64361e-08
3.03066e-09
8.6107e-08
3.02504e-09
8.57743e-08
3.01921e-09
8.54379e-08
3.01315e-09
8.50979e-08
3.00682e-09
8.47542e-08
3.00019e-09
8.44066e-08
2.99321e-09
8.40552e-08
2.98587e-09
8.37e-08
2.97813e-09
8.33408e-08
2.96995e-09
8.29776e-08
2.96133e-09
8.26105e-08
2.95223e-09
8.22394e-08
2.94264e-09
8.18643e-08
2.93255e-09
8.14851e-08
2.92195e-09
8.11019e-08
2.91084e-09
8.07146e-08
2.89922e-09
8.03232e-08
2.88711e-09
7.99278e-08
2.87454e-09
7.95283e-08
2.86154e-09
7.91248e-08
2.84816e-09
7.87172e-08
2.83448e-09
7.83056e-08
2.82059e-09
7.789e-08
2.80661e-09
7.74704e-08
2.79269e-09
7.7047e-08
2.77902e-09
7.662e-08
2.76581e-09
7.61896e-08
2.75324e-09
7.57563e-08
2.74139e-09
7.5321e-08
2.73002e-09
7.48837e-08
2.71836e-09
2.70555e-09
1.09338e-07
2.85515e-09
-1.095e-07
1.09186e-07
2.95148e-09
1.09043e-07
3.04645e-09
1.08908e-07
3.13894e-09
1.08779e-07
3.22799e-09
1.08654e-07
3.31284e-09
1.08533e-07
3.39288e-09
1.08414e-07
3.46765e-09
1.08296e-07
3.53681e-09
1.08178e-07
3.60011e-09
1.08059e-07
3.65735e-09
1.07938e-07
3.70843e-09
1.07813e-07
3.7533e-09
1.07686e-07
3.79197e-09
1.07554e-07
3.82449e-09
1.07417e-07
3.85098e-09
1.07274e-07
3.87161e-09
1.07126e-07
3.88659e-09
1.06971e-07
3.8962e-09
1.06809e-07
3.90075e-09
1.06641e-07
3.9006e-09
1.06465e-07
3.89616e-09
1.06282e-07
3.88785e-09
1.06092e-07
3.87612e-09
1.05895e-07
3.86144e-09
1.05691e-07
3.84428e-09
1.0548e-07
3.8251e-09
1.05262e-07
3.80435e-09
1.05039e-07
3.78244e-09
1.0481e-07
3.75978e-09
1.04575e-07
3.73672e-09
1.04336e-07
3.71358e-09
1.04092e-07
3.69065e-09
1.03844e-07
3.66815e-09
1.03592e-07
3.64628e-09
1.03337e-07
3.62519e-09
1.03078e-07
3.60501e-09
1.02817e-07
3.58581e-09
1.02554e-07
3.56764e-09
1.02288e-07
3.55055e-09
1.0202e-07
3.53452e-09
1.01749e-07
3.51955e-09
1.01478e-07
3.50562e-09
1.01204e-07
3.49269e-09
1.00928e-07
3.48071e-09
1.00651e-07
3.46965e-09
1.00372e-07
3.45944e-09
1.00092e-07
3.45004e-09
9.98092e-08
3.44139e-09
9.95252e-08
3.43344e-09
9.92394e-08
3.42615e-09
9.89518e-08
3.41946e-09
9.86624e-08
3.41333e-09
9.8371e-08
3.40771e-09
9.80776e-08
3.40256e-09
9.77823e-08
3.39785e-09
9.74848e-08
3.39352e-09
9.71852e-08
3.38954e-09
9.68834e-08
3.38588e-09
9.65793e-08
3.38249e-09
9.62728e-08
3.37934e-09
9.5964e-08
3.37639e-09
9.56526e-08
3.37361e-09
9.53388e-08
3.37096e-09
9.50223e-08
3.36839e-09
9.47031e-08
3.36588e-09
9.43811e-08
3.36339e-09
9.40564e-08
3.36088e-09
9.37287e-08
3.35831e-09
9.33981e-08
3.35565e-09
9.30645e-08
3.35286e-09
9.27277e-08
3.3499e-09
9.23878e-08
3.34674e-09
9.20447e-08
3.34334e-09
9.16982e-08
3.33967e-09
9.13484e-08
3.33569e-09
9.09951e-08
3.33138e-09
9.06384e-08
3.32671e-09
9.0278e-08
3.32166e-09
8.99141e-08
3.31619e-09
8.95464e-08
3.31029e-09
8.9175e-08
3.30395e-09
8.87998e-08
3.29715e-09
8.84208e-08
3.2899e-09
8.80378e-08
3.2822e-09
8.76508e-08
3.27406e-09
8.72599e-08
3.26551e-09
8.68648e-08
3.25657e-09
8.64657e-08
3.24731e-09
8.60624e-08
3.23777e-09
8.56549e-08
3.22805e-09
8.52433e-08
3.21826e-09
8.48275e-08
3.20851e-09
8.44076e-08
3.19894e-09
8.39836e-08
3.18971e-09
8.3556e-08
3.18092e-09
8.31248e-08
3.17255e-09
8.26904e-08
3.16443e-09
8.22526e-08
3.1562e-09
3.14827e-09
6.8565e-08
2.72228e-09
-6.84321e-08
6.87044e-08
2.81208e-09
6.88501e-08
2.90075e-09
6.90017e-08
2.98739e-09
6.91585e-08
3.07117e-09
6.932e-08
3.15135e-09
6.94855e-08
3.22735e-09
6.96544e-08
3.29871e-09
6.98262e-08
3.36505e-09
7.00002e-08
3.42609e-09
7.0176e-08
3.48162e-09
7.03529e-08
3.53149e-09
7.05306e-08
3.57563e-09
7.07085e-08
3.61401e-09
7.08864e-08
3.64666e-09
7.10637e-08
3.67365e-09
7.12402e-08
3.69513e-09
7.14155e-08
3.71128e-09
7.15894e-08
3.72233e-09
7.17615e-08
3.72855e-09
7.19319e-08
3.73026e-09
7.21002e-08
3.72782e-09
7.22665e-08
3.72159e-09
7.24306e-08
3.71199e-09
7.25926e-08
3.69943e-09
7.27526e-08
3.68433e-09
7.29106e-08
3.66712e-09
7.30667e-08
3.64819e-09
7.32212e-08
3.62795e-09
7.33742e-08
3.60675e-09
7.3526e-08
3.58494e-09
7.36768e-08
3.56283e-09
7.38267e-08
3.54068e-09
7.39761e-08
3.51874e-09
7.41252e-08
3.49719e-09
7.42742e-08
3.47621e-09
7.44233e-08
3.45591e-09
7.45727e-08
3.43641e-09
7.47226e-08
3.41777e-09
7.48731e-08
3.40003e-09
7.50244e-08
3.38323e-09
7.51766e-08
3.36736e-09
7.53298e-08
3.35243e-09
7.5484e-08
3.33841e-09
7.56395e-08
3.32528e-09
7.57961e-08
3.313e-09
7.5954e-08
3.30154e-09
7.61132e-08
3.29085e-09
7.62737e-08
3.28089e-09
7.64355e-08
3.27161e-09
7.65987e-08
3.26298e-09
7.67632e-08
3.25496e-09
7.6929e-08
3.24749e-09
7.70962e-08
3.24054e-09
7.72647e-08
3.23407e-09
7.74345e-08
3.22804e-09
7.76056e-08
3.22242e-09
7.7778e-08
3.21716e-09
7.79516e-08
3.21223e-09
7.81265e-08
3.2076e-09
7.83026e-08
3.20323e-09
7.848e-08
3.19907e-09
7.86585e-08
3.19511e-09
7.88381e-08
3.1913e-09
7.90189e-08
3.18761e-09
7.92008e-08
3.184e-09
7.93837e-08
3.18044e-09
7.95677e-08
3.17689e-09
7.97527e-08
3.17331e-09
7.99387e-08
3.16968e-09
8.01256e-08
3.16596e-09
8.03134e-08
3.16211e-09
8.0502e-08
3.1581e-09
8.06914e-08
3.1539e-09
8.08816e-08
3.14948e-09
8.10725e-08
3.1448e-09
8.12641e-08
3.13984e-09
8.14562e-08
3.13458e-09
8.16489e-08
3.12898e-09
8.1842e-08
3.12304e-09
8.20356e-08
3.11673e-09
8.22295e-08
3.11004e-09
8.24237e-08
3.10298e-09
8.26181e-08
3.09553e-09
8.28125e-08
3.08771e-09
8.30071e-08
3.07953e-09
8.32016e-08
3.07102e-09
8.33959e-08
3.06221e-09
8.35901e-08
3.05317e-09
8.37839e-08
3.04394e-09
8.39773e-08
3.03461e-09
8.41703e-08
3.02527e-09
8.43628e-08
3.01604e-09
8.45547e-08
3.00701e-09
8.47461e-08
2.9983e-09
8.49371e-08
2.98995e-09
8.51277e-08
2.98196e-09
8.5318e-08
2.97418e-09
8.55079e-08
2.96627e-09
2.95758e-09
7.57724e-08
2.57707e-09
-7.56272e-08
7.59237e-08
2.66079e-09
7.60809e-08
2.74357e-09
7.62436e-08
2.82467e-09
7.64114e-08
2.90336e-09
7.65838e-08
2.97896e-09
7.67602e-08
3.05094e-09
7.69401e-08
3.11883e-09
7.71229e-08
3.18225e-09
7.73081e-08
3.24091e-09
7.74951e-08
3.29456e-09
7.76836e-08
3.34304e-09
7.78729e-08
3.38625e-09
7.80628e-08
3.42412e-09
7.82528e-08
3.45666e-09
7.84426e-08
3.48392e-09
7.86317e-08
3.50601e-09
7.88199e-08
3.52306e-09
7.9007e-08
3.53527e-09
7.91926e-08
3.54289e-09
7.93767e-08
3.54617e-09
7.95591e-08
3.54544e-09
7.97397e-08
3.54102e-09
7.99184e-08
3.53326e-09
8.00953e-08
3.52255e-09
8.02703e-08
3.50926e-09
8.04437e-08
3.49376e-09
8.06155e-08
3.47644e-09
8.07858e-08
3.45765e-09
8.09548e-08
3.43773e-09
8.11227e-08
3.417e-09
8.12898e-08
3.39575e-09
8.14562e-08
3.37425e-09
8.16222e-08
3.35273e-09
8.1788e-08
3.33139e-09
8.19539e-08
3.3104e-09
8.21199e-08
3.2899e-09
8.22863e-08
3.26999e-09
8.24533e-08
3.25078e-09
8.2621e-08
3.23231e-09
8.27896e-08
3.21463e-09
8.29592e-08
3.19777e-09
8.31299e-08
3.18173e-09
8.33018e-08
3.16651e-09
8.3475e-08
3.1521e-09
8.36495e-08
3.13847e-09
8.38255e-08
3.12561e-09
8.40028e-08
3.11348e-09
8.41817e-08
3.10205e-09
8.4362e-08
3.09128e-09
8.45439e-08
3.08113e-09
8.47272e-08
3.07157e-09
8.49122e-08
3.06256e-09
8.50986e-08
3.05407e-09
8.52867e-08
3.04605e-09
8.54762e-08
3.03847e-09
8.56673e-08
3.0313e-09
8.586e-08
3.0245e-09
8.60542e-08
3.01804e-09
8.62499e-08
3.01187e-09
8.64472e-08
3.00597e-09
8.6646e-08
3.0003e-09
8.68462e-08
2.99483e-09
8.7048e-08
2.98952e-09
8.72513e-08
2.98434e-09
8.7456e-08
2.97926e-09
8.76622e-08
2.97424e-09
8.78698e-08
2.96925e-09
8.80789e-08
2.96425e-09
8.82894e-08
2.95921e-09
8.85013e-08
2.9541e-09
8.87145e-08
2.94888e-09
8.89291e-08
2.94353e-09
8.91449e-08
2.93801e-09
8.93621e-08
2.9323e-09
8.95806e-08
2.92637e-09
8.98002e-08
2.92019e-09
9.0021e-08
2.91374e-09
9.0243e-08
2.907e-09
9.04661e-08
2.89995e-09
9.06903e-08
2.89258e-09
9.09154e-08
2.88488e-09
9.11415e-08
2.87686e-09
9.13686e-08
2.86851e-09
9.15964e-08
2.85984e-09
9.18251e-08
2.85088e-09
9.20545e-08
2.84165e-09
9.22845e-08
2.83219e-09
9.25151e-08
2.82256e-09
9.27462e-08
2.81282e-09
9.29778e-08
2.80305e-09
9.32097e-08
2.79333e-09
9.3442e-08
2.78376e-09
9.36745e-08
2.77444e-09
9.39074e-08
2.76546e-09
9.41405e-08
2.75688e-09
9.43737e-08
2.74869e-09
9.46071e-08
2.74082e-09
9.48405e-08
2.73291e-09
2.72472e-09
8.37341e-08
2.4187e-09
-8.35757e-08
8.38981e-08
2.49674e-09
8.40677e-08
2.57399e-09
8.42425e-08
2.64983e-09
8.44223e-08
2.72362e-09
8.46065e-08
2.79476e-09
8.47947e-08
2.86275e-09
8.49864e-08
2.92714e-09
8.5181e-08
2.98757e-09
8.53782e-08
3.04371e-09
8.55775e-08
3.09534e-09
8.57783e-08
3.14225e-09
8.59802e-08
3.18432e-09
8.61828e-08
3.22146e-09
8.63858e-08
3.25366e-09
8.65888e-08
3.28093e-09
8.67915e-08
3.30335e-09
8.69935e-08
3.32103e-09
8.71947e-08
3.33412e-09
8.73947e-08
3.34282e-09
8.75935e-08
3.34738e-09
8.77909e-08
3.34804e-09
8.79868e-08
3.34511e-09
8.81812e-08
3.3389e-09