/*--------------------------------*- C++ -*----------------------------------*\
| =========                 |                                                 |
| \\      /  F ield         | OpenFOAM: The Open Source CFD Toolbox           |
|  \\    /   O peration     | Version:  2.3.0                                 |
|   \\  /    A nd           | Web:      www.OpenFOAM.org                      |
|    \\/     M anipulation  |                                                 |
\*---------------------------------------------------------------------------*/
FoamFile
{
    version     2.0;
    format      ascii;
    class       volVectorField;
    location    "0.55";
    object      U;
}
// * * * * * * * * * * * * * * * * * * * * * * * * * * * * * * * * * * * * * //

dimensions      [0 1 -1 0 0 0 0];

internalField   nonuniform List<vector> 
2250
(
(0.184649 0.0040758 1.19003e-06)
(0.177453 0.00444625 3.07368e-06)
(0.170049 0.00453774 4.40382e-06)
(0.162475 0.00449574 5.46262e-06)
(0.154923 0.00438498 6.30323e-06)
(0.147493 0.00422982 6.86962e-06)
(0.140213 0.00404428 7.13875e-06)
(0.133099 0.00383917 7.11748e-06)
(0.12617 0.00362215 6.80986e-06)
(0.119446 0.00339826 6.21239e-06)
(0.112946 0.00317094 5.32273e-06)
(0.106686 0.00294274 4.14516e-06)
(0.100679 0.00271566 2.69127e-06)
(0.0949393 0.00249142 9.79702e-07)
(0.0894773 0.00227153 -9.63879e-07)
(0.0843024 0.0020574 -3.10678e-06)
(0.0794217 0.0018504 -5.4098e-06)
(0.0748397 0.00165181 -7.82831e-06)
(0.0705586 0.00146286 -1.03138e-05)
(0.0665778 0.00128468 -1.28158e-05)
(0.0628937 0.00111823 -1.52839e-05)
(0.0595003 0.000964307 -1.76701e-05)
(0.0563887 0.000823464 -1.99306e-05)
(0.0535478 0.000696014 -2.20278e-05)
(0.0509641 0.000582002 -2.39316e-05)
(0.0486227 0.000481213 -2.56203e-05)
(0.046507 0.000393195 -2.70807e-05)
(0.0445996 0.000317285 -2.83083e-05)
(0.0428826 0.000252659 -2.93061e-05)
(0.041338 0.000198376 -3.00838e-05)
(0.0399481 0.000153425 -3.06566e-05)
(0.0386958 0.000116768 -3.10435e-05)
(0.0375649 8.73721e-05 -3.12661e-05)
(0.0365406 6.42391e-05 -3.13471e-05)
(0.0356089 4.64256e-05 -3.13093e-05)
(0.0347575 3.30572e-05 -3.11745e-05)
(0.0339753 2.33381e-05 -3.09633e-05)
(0.0332527 1.65568e-05 -3.06937e-05)
(0.0325813 1.20885e-05 -3.0382e-05)
(0.031954 9.39434e-06 -3.00415e-05)
(0.0313646 8.0186e-06 -2.96835e-05)
(0.0308081 7.5837e-06 -2.9317e-05)
(0.0302804 7.78363e-06 -2.89491e-05)
(0.029778 8.37743e-06 -2.8585e-05)
(0.0292981 9.1861e-06 -2.82286e-05)
(0.0288385 1.00775e-05 -2.78824e-05)
(0.0283972 1.09572e-05 -2.75483e-05)
(0.0279728 1.17611e-05 -2.7227e-05)
(0.0275641 1.24489e-05 -2.69192e-05)
(0.0271701 1.29988e-05 -2.66249e-05)
(0.0267899 1.34023e-05 -2.63441e-05)
(0.026423 1.3661e-05 -2.60766e-05)
(0.0260686 1.37826e-05 -2.58221e-05)
(0.0257262 1.3779e-05 -2.55807e-05)
(0.0253954 1.36641e-05 -2.53521e-05)
(0.0250758 1.34527e-05 -2.51364e-05)
(0.0247669 1.31594e-05 -2.49337e-05)
(0.0244683 1.27976e-05 -2.47442e-05)
(0.0241797 1.23801e-05 -2.45681e-05)
(0.0239007 1.19179e-05 -2.44056e-05)
(0.0236311 1.14206e-05 -2.42572e-05)
(0.0233704 1.08965e-05 -2.4123e-05)
(0.0231185 1.03525e-05 -2.40034e-05)
(0.022875 9.79446e-06 -2.38986e-05)
(0.0226397 9.22698e-06 -2.38088e-05)
(0.0224123 8.6539e-06 -2.37338e-05)
(0.0221926 8.07821e-06 -2.36738e-05)
(0.0219804 7.50229e-06 -2.36283e-05)
(0.0217754 6.92796e-06 -2.35971e-05)
(0.0215776 6.3566e-06 -2.35793e-05)
(0.0213867 5.78921e-06 -2.35743e-05)
(0.0212026 5.22653e-06 -2.35809e-05)
(0.0210251 4.66907e-06 -2.35976e-05)
(0.0208542 4.11714e-06 -2.36228e-05)
(0.0206897 3.57092e-06 -2.36544e-05)
(0.0205315 3.03051e-06 -2.369e-05)
(0.0203796 2.49586e-06 -2.37266e-05)
(0.0202338 1.96693e-06 -2.37609e-05)
(0.0200941 1.44366e-06 -2.37889e-05)
(0.0199604 9.25938e-07 -2.38063e-05)
(0.0198327 4.13731e-07 -2.38079e-05)
(0.0197109 -9.29522e-08 -2.37877e-05)
(0.019595 -5.94086e-07 -2.3739e-05)
(0.0194849 -1.08945e-06 -2.36543e-05)
(0.0193807 -1.5787e-06 -2.35248e-05)
(0.0192821 -2.06128e-06 -2.33408e-05)
(0.0191893 -2.53634e-06 -2.30912e-05)
(0.0191022 -3.00255e-06 -2.27634e-05)
(0.0190206 -3.4581e-06 -2.23431e-05)
(0.0189446 -3.90042e-06 -2.18143e-05)
(0.0188739 -4.32575e-06 -2.11584e-05)
(0.0188086 -4.7287e-06 -2.03545e-05)
(0.0187484 -5.10121e-06 -1.93785e-05)
(0.0186929 -5.43054e-06 -1.8202e-05)
(0.018642 -5.69526e-06 -1.67919e-05)
(0.0185948 -5.85438e-06 -1.51075e-05)
(0.0185503 -5.81642e-06 -1.30974e-05)
(0.0185065 -5.52584e-06 -1.0688e-05)
(0.0184639 -4.70001e-06 -7.7621e-06)
(0.0182964 3.11972e-05 -4.67288e-06)
(0.193867 0.00625452 8.27684e-07)
(0.193711 0.00684787 2.42132e-06)
(0.193067 0.00706677 3.77862e-06)
(0.19194 0.0071282 4.84842e-06)
(0.190428 0.00711737 5.65884e-06)
(0.188607 0.00705686 6.21075e-06)
(0.186511 0.00695691 6.49641e-06)
(0.18417 0.00682601 6.51987e-06)
(0.181613 0.00666996 6.28918e-06)
(0.178869 0.0064921 5.80895e-06)
(0.175968 0.00629457 5.08245e-06)
(0.172934 0.00607914 4.11558e-06)
(0.169794 0.00584755 2.91857e-06)
(0.166572 0.00560166 1.50631e-06)
(0.16329 0.0053435 -1.01512e-07)
(0.159969 0.00507527 -1.88018e-06)
(0.156629 0.0047994 -3.80012e-06)
(0.153289 0.00451844 -5.82749e-06)
(0.149966 0.00423508 -7.92511e-06)
(0.146674 0.00395203 -1.00538e-05)
(0.143427 0.003672 -1.21737e-05)
(0.140236 0.00339759 -1.4246e-05)
(0.137111 0.00313121 -1.62345e-05)
(0.13406 0.00287505 -1.8107e-05)
(0.131088 0.00263098 -1.98364e-05)
(0.128202 0.00240051 -2.14018e-05)
(0.125403 0.0021848 -2.27888e-05)
(0.122693 0.0019846 -2.39893e-05)
(0.120074 0.00180029 -2.5002e-05)
(0.117546 0.00163189 -2.58309e-05)
(0.115107 0.00147911 -2.64849e-05)
(0.112756 0.0013414 -2.69766e-05)
(0.110491 0.00121796 -2.73216e-05)
(0.10831 0.00110785 -2.75369e-05)
(0.106209 0.00101002 -2.76403e-05)
(0.104186 0.00092336 -2.76496e-05)
(0.102238 0.000846726 -2.75816e-05)
(0.100362 0.000779011 -2.74522e-05)
(0.0985552 0.00071915 -2.72754e-05)
(0.096814 0.000666149 -2.70635e-05)
(0.0951358 0.000619099 -2.68272e-05)
(0.0935177 0.00057718 -2.65751e-05)
(0.0919572 0.000539668 -2.63144e-05)
(0.0904516 0.000505929 -2.60504e-05)
(0.0889984 0.000475408 -2.57875e-05)
(0.0875952 0.000447634 -2.55287e-05)
(0.0862398 0.000422214 -2.52764e-05)
(0.0849301 0.000398821 -2.50319e-05)
(0.0836641 0.000377184 -2.47964e-05)
(0.0824397 0.000357083 -2.45705e-05)
(0.0812553 0.000338334 -2.43545e-05)
(0.0801091 0.000320788 -2.41485e-05)
(0.0789995 0.000304321 -2.39528e-05)
(0.0779249 0.000288832 -2.37675e-05)
(0.0768839 0.000274234 -2.35926e-05)
(0.0758752 0.000260454 -2.34284e-05)
(0.0748974 0.000247428 -2.32751e-05)
(0.0739493 0.000235099 -2.31331e-05)
(0.0730297 0.000223418 -2.30025e-05)
(0.0721377 0.00021234 -2.28839e-05)
(0.0712721 0.000201821 -2.27776e-05)
(0.0704321 0.000191824 -2.26839e-05)
(0.0696166 0.000182311 -2.26032e-05)
(0.0688249 0.000173249 -2.25357e-05)
(0.0680562 0.000164605 -2.24818e-05)
(0.0673098 0.000156348 -2.24414e-05)
(0.0665849 0.000148451 -2.24145e-05)
(0.065881 0.000140886 -2.2401e-05)
(0.0651974 0.000133628 -2.24006e-05)
(0.0645336 0.000126653 -2.24126e-05)
(0.0638892 0.00011994 -2.24363e-05)
(0.0632636 0.000113466 -2.24707e-05)
(0.0626564 0.000107215 -2.25145e-05)
(0.0620673 0.000101167 -2.2566e-05)
(0.0614959 9.53067e-05 -2.26234e-05)
(0.0609419 8.96192e-05 -2.26842e-05)
(0.0604049 8.40906e-05 -2.27458e-05)
(0.0598848 7.87085e-05 -2.28048e-05)
(0.0593812 7.34617e-05 -2.28574e-05)
(0.058894 6.83401e-05 -2.28994e-05)
(0.058423 6.33348e-05 -2.29258e-05)
(0.0579678 5.84381e-05 -2.29307e-05)
(0.0575285 5.36431e-05 -2.29076e-05)
(0.0571047 4.89446e-05 -2.28491e-05)
(0.0566964 4.43384e-05 -2.27467e-05)
(0.0563034 3.98217e-05 -2.25907e-05)
(0.0559254 3.53932e-05 -2.23704e-05)
(0.0555624 3.10539e-05 -2.20732e-05)
(0.0552141 2.68068e-05 -2.16852e-05)
(0.0548803 2.26582e-05 -2.11905e-05)
(0.0545606 1.86187e-05 -2.05711e-05)
(0.0542549 1.47053e-05 -1.98061e-05)
(0.0539627 1.09457e-05 -1.8872e-05)
(0.0536833 7.3863e-06 -1.77409e-05)
(0.053416 4.11092e-06 -1.63805e-05)
(0.0531596 1.28764e-06 -1.47515e-05)
(0.052912 -7.02699e-07 -1.28055e-05)
(0.0526692 -8.34168e-07 -1.04756e-05)
(0.0524319 6.67147e-06 -7.69791e-06)
(0.0520211 7.4734e-05 -5.68166e-06)
(0.194972 0.00544169 6.58812e-07)
(0.195388 0.00604211 2.01054e-06)
(0.195771 0.00645303 3.22795e-06)
(0.196029 0.00676609 4.17507e-06)
(0.19615 0.00701804 4.87218e-06)
(0.196141 0.0072134 5.35738e-06)
(0.195997 0.0073534 5.63269e-06)
(0.195712 0.00744195 5.69366e-06)
(0.195285 0.00748325 5.54379e-06)
(0.194716 0.00748059 5.1891e-06)
(0.194009 0.00743676 4.63421e-06)
(0.193167 0.00735448 3.88396e-06)
(0.192197 0.00723666 2.94556e-06)
(0.191104 0.00708637 1.82947e-06)
(0.189898 0.0069069 5.49535e-07)
(0.188585 0.00670172 -8.76881e-07)
(0.187175 0.00647453 -2.42893e-06)
(0.185678 0.00622917 -4.08249e-06)
(0.184103 0.00596959 -5.81068e-06)
(0.182461 0.00569976 -7.58458e-06)
(0.18076 0.00542361 -9.3741e-06)
(0.179012 0.00514491 -1.11491e-05)
(0.177224 0.0048672 -1.28804e-05)
(0.175406 0.00459369 -1.45407e-05)
(0.173565 0.00432719 -1.61061e-05)
(0.171709 0.00407007 -1.7556e-05)
(0.169844 0.00382421 -1.88748e-05)
(0.167975 0.00359102 -2.00512e-05)
(0.166109 0.00337141 -2.10791e-05)
(0.164248 0.00316588 -2.19568e-05)
(0.162397 0.00297452 -2.26869e-05)
(0.160558 0.00279708 -2.32757e-05)
(0.158734 0.00263306 -2.37325e-05)
(0.156927 0.00248175 -2.40686e-05)
(0.155138 0.00234228 -2.42971e-05)
(0.153369 0.00221375 -2.44317e-05)
(0.151619 0.00209518 -2.4486e-05)
(0.149891 0.00198562 -2.44736e-05)
(0.148183 0.00188416 -2.44071e-05)
(0.146498 0.00178994 -2.42978e-05)
(0.144834 0.00170218 -2.41561e-05)
(0.143192 0.00162019 -2.39908e-05)
(0.141572 0.00154334 -2.38093e-05)
(0.139975 0.0014711 -2.36178e-05)
(0.1384 0.00140298 -2.34209e-05)
(0.136848 0.00133859 -2.32228e-05)
(0.135318 0.00127758 -2.30263e-05)
(0.133811 0.00121966 -2.28337e-05)
(0.132326 0.00116458 -2.26468e-05)
(0.130865 0.00111214 -2.24667e-05)
(0.129426 0.00106217 -2.22943e-05)
(0.128011 0.00101449 -2.213e-05)
(0.126618 0.000968989 -2.19744e-05)
(0.125249 0.000925535 -2.18278e-05)
(0.123902 0.00088402 -2.16905e-05)
(0.122579 0.000844347 -2.15628e-05)
(0.121278 0.000806422 -2.14451e-05)
(0.12 0.000770158 -2.13375e-05)
(0.118746 0.000735472 -2.12405e-05)
(0.117514 0.000702283 -2.11545e-05)
(0.116305 0.000670516 -2.10798e-05)
(0.115118 0.000640095 -2.10167e-05)
(0.113954 0.000610948 -2.09657e-05)
(0.112813 0.000583007 -2.09269e-05)
(0.111694 0.000556204 -2.09006e-05)
(0.110598 0.000530474 -2.08869e-05)
(0.109523 0.000505754 -2.08858e-05)
(0.108471 0.000481985 -2.08971e-05)
(0.10744 0.000459109 -2.09205e-05)
(0.106432 0.000437071 -2.09556e-05)
(0.105445 0.000415817 -2.10016e-05)
(0.10448 0.0003953 -2.10575e-05)
(0.103537 0.00037547 -2.11223e-05)
(0.102615 0.000356283 -2.11943e-05)
(0.101715 0.000337697 -2.12717e-05)
(0.100837 0.000319672 -2.13523e-05)
(0.0999794 0.000302171 -2.14334e-05)
(0.0991435 0.000285158 -2.15121e-05)
(0.098329 0.000268603 -2.15846e-05)
(0.0975358 0.000252475 -2.16468e-05)
(0.0967639 0.000236746 -2.16939e-05)
(0.0960133 0.000221393 -2.17203e-05)
(0.095284 0.000206394 -2.17198e-05)
(0.094576 0.000191728 -2.16852e-05)
(0.0938892 0.00017738 -2.16082e-05)
(0.0932236 0.000163338 -2.14796e-05)
(0.0925791 0.000149591 -2.12889e-05)
(0.0919558 0.000136135 -2.10241e-05)
(0.0913534 0.00012297 -2.06716e-05)
(0.0907719 0.000110103 -2.02162e-05)
(0.090211 9.755e-05 -1.96404e-05)
(0.0896705 8.53411e-05 -1.89245e-05)
(0.0891499 7.35287e-05 -1.80457e-05)
(0.0886488 6.22059e-05 -1.69785e-05)
(0.0881662 5.15476e-05 -1.56935e-05)
(0.087701 4.19159e-05 -1.41582e-05)
(0.0872508 3.41655e-05 -1.23405e-05)
(0.0868118 3.09165e-05 -1.02323e-05)
(0.0863835 4.38732e-05 -8.07964e-06)
(0.0858011 0.000115829 -7.89105e-06)
(0.195669 0.00518425 4.75599e-07)
(0.196001 0.00577057 1.46153e-06)
(0.196387 0.00622693 2.44052e-06)
(0.196761 0.0065861 3.29683e-06)
(0.197105 0.00687469 3.98645e-06)
(0.197419 0.00710442 4.51208e-06)
(0.197699 0.00728166 4.86716e-06)
(0.197939 0.00741225 5.03809e-06)
(0.198132 0.00750118 5.02028e-06)
(0.198272 0.00755195 4.81775e-06)
(0.198354 0.00756687 4.43708e-06)
(0.198374 0.00754773 3.88538e-06)
(0.198328 0.00749611 3.17103e-06)
(0.198211 0.0074137 2.30445e-06)
(0.198023 0.00730233 1.29808e-06)
(0.197761 0.00716415 1.66302e-07)
(0.197425 0.00700161 -1.07459e-06)
(0.197016 0.0068175 -2.40648e-06)
(0.196534 0.00661487 -3.80957e-06)
(0.195982 0.00639702 -5.26273e-06)
(0.195364 0.00616738 -6.74391e-06)
(0.194681 0.00592943 -8.23068e-06)
(0.193939 0.00568657 -9.70084e-06)
(0.193142 0.00544205 -1.11331e-05)
(0.192294 0.00519884 -1.25078e-05)
(0.191401 0.00495962 -1.38073e-05)
(0.190467 0.00472665 -1.50169e-05)
(0.189496 0.00450179 -1.61247e-05)
(0.188494 0.00428647 -1.71224e-05)
(0.187464 0.00408169 -1.80051e-05)
(0.186409 0.00388808 -1.87709e-05)
(0.185334 0.0037059 -1.94215e-05)
(0.184242 0.00353511 -1.99607e-05)
(0.183134 0.00337542 -2.0395e-05)
(0.182013 0.00322635 -2.07325e-05)
(0.180882 0.00308729 -2.09823e-05)
(0.179741 0.00295754 -2.11544e-05)
(0.178593 0.00283632 -2.12589e-05)
(0.177437 0.00272287 -2.1306e-05)
(0.176276 0.00261644 -2.13051e-05)
(0.175111 0.0025163 -2.12651e-05)
(0.173941 0.0024218 -2.11942e-05)
(0.172767 0.00233231 -2.10993e-05)
(0.171591 0.0022473 -2.09867e-05)
(0.170413 0.00216628 -2.08618e-05)
(0.169232 0.00208885 -2.07289e-05)
(0.168051 0.00201465 -2.05916e-05)
(0.166869 0.00194338 -2.0453e-05)
(0.165687 0.00187477 -2.03153e-05)
(0.164505 0.00180862 -2.01802e-05)
(0.163324 0.00174475 -2.00494e-05)
(0.162145 0.00168299 -1.99237e-05)
(0.160968 0.00162323 -1.98043e-05)
(0.159793 0.00156535 -1.96917e-05)
(0.158621 0.00150927 -1.95867e-05)
(0.157453 0.00145489 -1.94896e-05)
(0.15629 0.00140214 -1.94011e-05)
(0.15513 0.00135095 -1.93215e-05)
(0.153977 0.00130127 -1.92513e-05)
(0.152829 0.00125304 -1.9191e-05)
(0.151687 0.00120619 -1.91409e-05)
(0.150552 0.00116068 -1.91014e-05)
(0.149425 0.00111645 -1.90728e-05)
(0.148305 0.00107345 -1.90556e-05)
(0.147194 0.00103164 -1.90497e-05)
(0.146092 0.000990959 -1.90555e-05)
(0.144999 0.000951367 -1.90729e-05)
(0.143916 0.000912815 -1.91018e-05)
(0.142844 0.000875259 -1.91419e-05)
(0.141783 0.000838654 -1.91928e-05)
(0.140733 0.000802957 -1.92539e-05)
(0.139695 0.000768126 -1.93244e-05)
(0.13867 0.000734122 -1.9403e-05)
(0.137657 0.000700904 -1.94885e-05)
(0.136658 0.000668436 -1.9579e-05)
(0.135673 0.000636682 -1.96726e-05)
(0.134703 0.000605606 -1.97667e-05)
(0.133747 0.000575177 -1.98584e-05)
(0.132807 0.000545363 -1.99444e-05)
(0.131883 0.000516135 -2.00206e-05)
(0.130975 0.000487466 -2.00825e-05)
(0.130084 0.000459331 -2.01248e-05)
(0.12921 0.000431708 -2.01415e-05)
(0.128354 0.000404578 -2.01257e-05)
(0.127516 0.000377925 -2.00696e-05)
(0.126696 0.000351736 -1.99642e-05)
(0.125896 0.000326004 -1.97996e-05)
(0.125114 0.000300727 -1.95643e-05)
(0.124352 0.00027591 -1.92453e-05)
(0.12361 0.000251567 -1.88283e-05)
(0.122888 0.000227728 -1.82966e-05)
(0.122185 0.000204442 -1.76321e-05)
(0.121503 0.000181795 -1.68142e-05)
(0.12084 0.000159937 -1.5821e-05)
(0.120196 0.000139146 -1.463e-05)
(0.119571 0.000119995 -1.32239e-05)
(0.118962 0.000103819 -1.16094e-05)
(0.118368 9.43544e-05 -9.89486e-06)
(0.117791 0.000103637 -8.65772e-06)
(0.117085 0.000158308 -1.01284e-05)
(0.19626 0.00495175 3.48184e-07)
(0.196494 0.00544996 1.08425e-06)
(0.196785 0.0058629 1.87745e-06)
(0.1971 0.00620111 2.63541e-06)
(0.197419 0.00648148 3.27802e-06)
(0.197739 0.00671434 3.78148e-06)
(0.198057 0.00690492 4.14084e-06)
(0.198367 0.00705692 4.34832e-06)
(0.198667 0.00717341 4.39899e-06)
(0.198951 0.00725667 4.29522e-06)
(0.199216 0.00730824 4.04343e-06)
(0.199458 0.00732927 3.65087e-06)
(0.199674 0.0073208 3.12517e-06)
(0.199861 0.00728397 2.47481e-06)
(0.200014 0.00722006 1.70933e-06)
(0.20013 0.00713065 8.39324e-07)
(0.200206 0.00701757 -1.23643e-07)
(0.20024 0.00688299 -1.16698e-06)
(0.20023 0.00672934 -2.2771e-06)
(0.200175 0.00655931 -3.43948e-06)
(0.200074 0.00637576 -4.63884e-06)
(0.199926 0.00618166 -5.85933e-06)
(0.199734 0.00598 -7.08482e-06)
(0.199496 0.00577367 -8.29929e-06)
(0.199216 0.00556544 -9.48714e-06)
(0.198896 0.00535782 -1.06337e-05)
(0.198536 0.00515306 -1.17255e-05)
(0.198141 0.00495304 -1.27508e-05)
(0.197713 0.00475931 -1.37e-05)
(0.197253 0.00457305 -1.45654e-05)
(0.196766 0.00439511 -1.53421e-05)
(0.196252 0.00422597 -1.60273e-05)
(0.195715 0.00406587 -1.66206e-05)
(0.195157 0.00391477 -1.71237e-05)
(0.194579 0.00377244 -1.75402e-05)
(0.193982 0.00363849 -1.78753e-05)
(0.193369 0.00351244 -1.81353e-05)
(0.192741 0.00339371 -1.83274e-05)
(0.192098 0.0032817 -1.84591e-05)
(0.191441 0.0031758 -1.85382e-05)
(0.190771 0.00307541 -1.85726e-05)
(0.190089 0.00297997 -1.85695e-05)
(0.189394 0.00288896 -1.85359e-05)
(0.188688 0.00280191 -1.8478e-05)
(0.187971 0.00271838 -1.84016e-05)
(0.187243 0.00263802 -1.83114e-05)
(0.186504 0.00256051 -1.82118e-05)
(0.185755 0.00248556 -1.81063e-05)
(0.184996 0.00241295 -1.79979e-05)
(0.184227 0.00234247 -1.78891e-05)
(0.183448 0.00227397 -1.77819e-05)
(0.182661 0.0022073 -1.7678e-05)
(0.181865 0.00214235 -1.75787e-05)
(0.18106 0.00207901 -1.7485e-05)
(0.180248 0.00201719 -1.73979e-05)
(0.179428 0.00195683 -1.7318e-05)
(0.1786 0.00189785 -1.72461e-05)
(0.177766 0.00184019 -1.71825e-05)
(0.176925 0.0017838 -1.71278e-05)
(0.176078 0.00172861 -1.70824e-05)
(0.175226 0.00167458 -1.70467e-05)
(0.174369 0.00162166 -1.7021e-05)
(0.173507 0.00156981 -1.70055e-05)
(0.172641 0.00151897 -1.70006e-05)
(0.171772 0.0014691 -1.70063e-05)
(0.170899 0.00142016 -1.70228e-05)
(0.170025 0.0013721 -1.70501e-05)
(0.169148 0.00132489 -1.70879e-05)
(0.16827 0.00127847 -1.71361e-05)
(0.167391 0.00123282 -1.71942e-05)
(0.166511 0.0011879 -1.72616e-05)
(0.165633 0.00114366 -1.73376e-05)
(0.164755 0.00110007 -1.7421e-05)
(0.163879 0.00105711 -1.75106e-05)
(0.163005 0.00101474 -1.76048e-05)
(0.162134 0.000972932 -1.77016e-05)
(0.161267 0.000931656 -1.77987e-05)
(0.160404 0.000890889 -1.78934e-05)
(0.159545 0.000850606 -1.79824e-05)
(0.158693 0.000810788 -1.80621e-05)
(0.157847 0.000771415 -1.81281e-05)
(0.157008 0.000732471 -1.81754e-05)
(0.156176 0.000693944 -1.81984e-05)
(0.155353 0.000655823 -1.81905e-05)
(0.154539 0.000618103 -1.81443e-05)
(0.153735 0.000580783 -1.80514e-05)
(0.15294 0.000543866 -1.79023e-05)
(0.152157 0.000507364 -1.76862e-05)
(0.151386 0.000471297 -1.73912e-05)
(0.150626 0.000435699 -1.70037e-05)
(0.14988 0.00040062 -1.65088e-05)
(0.149146 0.000366141 -1.58905e-05)
(0.148425 0.00033239 -1.51317e-05)
(0.147718 0.00029958 -1.42164e-05)
(0.147024 0.000268096 -1.31335e-05)
(0.146344 0.000238691 -1.18894e-05)
(0.145676 0.000212998 -1.0544e-05)
(0.145021 0.000194902 -9.32087e-06)
(0.144387 0.000193343 -8.91316e-06)
(0.143637 0.000217841 -1.08459e-05)
(0.196779 0.00477657 2.44266e-07)
(0.196949 0.00519857 7.59065e-07)
(0.197169 0.0055702 1.32978e-06)
(0.19742 0.00589031 1.90822e-06)
(0.197689 0.00616466 2.43117e-06)
(0.197968 0.00639814 2.86867e-06)
(0.198253 0.00659364 3.21174e-06)
(0.198539 0.00675335 3.45167e-06)
(0.198824 0.00687941 3.5792e-06)
(0.199104 0.00697378 3.58988e-06)
(0.199378 0.00703812 3.48429e-06)
(0.199643 0.00707381 3.26553e-06)
(0.199896 0.00708214 2.93778e-06)
(0.200136 0.00706439 2.50617e-06)
(0.200359 0.00702194 1.97688e-06)
(0.200564 0.00695626 1.35699e-06)
(0.200747 0.00686906 6.54362e-07)
(0.200908 0.00676218 -1.2244e-07)
(0.201043 0.0066377 -9.6416e-07)
(0.201152 0.00649786 -1.86084e-06)
(0.201232 0.00634504 -2.80184e-06)
(0.201284 0.00618171 -3.77588e-06)
(0.201306 0.00601038 -4.77118e-06)
(0.201299 0.0058335 -5.77555e-06)
(0.201263 0.00565343 -6.77664e-06)
(0.201199 0.00547239 -7.76221e-06)
(0.201108 0.00529235 -8.72043e-06)
(0.20099 0.00511505 -9.64022e-06)
(0.200848 0.00494195 -1.05116e-05)
(0.200684 0.00477423 -1.1326e-05)
(0.200497 0.00461277 -1.20763e-05)
(0.200291 0.00445817 -1.27576e-05)
(0.200067 0.0043108 -1.33664e-05)
(0.199825 0.00417079 -1.39013e-05)
(0.199568 0.0040381 -1.43628e-05)
(0.199297 0.00391252 -1.47528e-05)
(0.199012 0.00379374 -1.50747e-05)
(0.198714 0.00368136 -1.53328e-05)
(0.198404 0.00357493 -1.55325e-05)
(0.198083 0.00347397 -1.56796e-05)
(0.19775 0.003378 -1.57802e-05)
(0.197407 0.00328655 -1.58405e-05)
(0.197053 0.00319916 -1.58664e-05)
(0.196688 0.00311542 -1.58638e-05)
(0.196313 0.00303495 -1.5838e-05)
(0.195927 0.0029574 -1.57938e-05)
(0.195532 0.00288247 -1.57355e-05)
(0.195125 0.00280989 -1.5667e-05)
(0.194709 0.00273944 -1.55917e-05)
(0.194282 0.00267091 -1.55122e-05)
(0.193844 0.00260412 -1.54311e-05)
(0.193396 0.00253895 -1.53503e-05)
(0.192938 0.00247525 -1.52714e-05)
(0.192469 0.00241292 -1.5196e-05)
(0.19199 0.00235186 -1.51251e-05)
(0.191501 0.00229199 -1.50596e-05)
(0.191002 0.00223324 -1.50004e-05)
(0.190493 0.00217554 -1.49481e-05)
(0.189973 0.00211882 -1.49033e-05)
(0.189444 0.00206303 -1.48665e-05)
(0.188906 0.00200812 -1.4838e-05)
(0.188358 0.00195404 -1.48183e-05)
(0.187801 0.00190073 -1.48077e-05)
(0.187235 0.00184815 -1.48063e-05)
(0.18666 0.00179625 -1.48144e-05)
(0.186077 0.00174499 -1.4832e-05)
(0.185485 0.00169433 -1.48591e-05)
(0.184886 0.00164422 -1.48956e-05)
(0.184279 0.00159464 -1.49413e-05)
(0.183665 0.00154553 -1.49957e-05)
(0.183044 0.00149686 -1.50583e-05)
(0.182417 0.0014486 -1.51285e-05)
(0.181783 0.00140071 -1.52051e-05)
(0.181144 0.00135317 -1.52871e-05)
(0.1805 0.00130595 -1.53728e-05)
(0.179851 0.00125901 -1.54607e-05)
(0.179198 0.00121234 -1.55483e-05)
(0.178542 0.00116591 -1.56334e-05)
(0.177882 0.0011197 -1.57128e-05)
(0.177219 0.0010737 -1.5783e-05)
(0.176555 0.00102789 -1.58401e-05)
(0.175889 0.000982271 -1.58794e-05)
(0.175222 0.000936825 -1.58956e-05)
(0.174555 0.000891553 -1.58825e-05)
(0.173888 0.000846458 -1.58333e-05)
(0.173222 0.000801549 -1.57401e-05)
(0.172558 0.000756839 -1.5594e-05)
(0.171896 0.000712354 -1.53853e-05)
(0.171237 0.000668128 -1.51028e-05)
(0.170581 0.000624211 -1.47346e-05)
(0.169929 0.000580676 -1.42677e-05)
(0.169282 0.000537633 -1.3689e-05)
(0.168639 0.000495248 -1.29861e-05)
(0.168001 0.000453789 -1.21509e-05)
(0.167369 0.000413716 -1.11862e-05)
(0.166742 0.000375871 -1.01237e-05)
(0.166122 0.00034188 -9.06535e-06)
(0.16551 0.000314855 -8.26908e-06)
(0.164916 0.000299296 -8.22347e-06)
(0.164214 0.000291488 -9.14181e-06)
(0.19724 0.00463272 1.54493e-07)
(0.197369 0.00499174 4.79824e-07)
(0.197537 0.00532029 8.53478e-07)
(0.197736 0.00561316 1.26203e-06)
(0.197956 0.00587022 1.66681e-06)
(0.198191 0.00609294 2.03714e-06)
(0.198434 0.00628274 2.35585e-06)
(0.198683 0.00644097 2.61009e-06)
(0.198934 0.00656904 2.78812e-06)
(0.199185 0.0066684 2.88193e-06)
(0.199433 0.00674037 2.8884e-06)
(0.199677 0.00678616 2.80768e-06)
(0.199914 0.00680689 2.64162e-06)
(0.200143 0.00680372 2.39303e-06)
(0.200361 0.00677786 2.0655e-06)
(0.200568 0.00673065 1.66323e-06)
(0.200761 0.00666354 1.19083e-06)
(0.200938 0.00657817 6.53319e-07)
(0.201099 0.00647631 5.60913e-08)
(0.201242 0.00635989 -5.94966e-07)
(0.201366 0.00623094 -1.29339e-06)
(0.201471 0.0060916 -2.03208e-06)
(0.201556 0.00594401 -2.80322e-06)
(0.20162 0.0057903 -3.5983e-06)
(0.201665 0.00563254 -4.40821e-06)
(0.20169 0.00547267 -5.22336e-06)
(0.201697 0.00531249 -6.03391e-06)
(0.201685 0.00515357 -6.83003e-06)
(0.201657 0.00499731 -7.60221e-06)
(0.201613 0.00484482 -8.3416e-06)
(0.201555 0.00469702 -9.04027e-06)
(0.201483 0.00455457 -9.69148e-06)
(0.201399 0.00441793 -1.02899e-05)
(0.201303 0.00428735 -1.08317e-05)
(0.201198 0.00416291 -1.13145e-05)
(0.201083 0.00404457 -1.17377e-05)
(0.20096 0.00393214 -1.21018e-05)
(0.20083 0.00382537 -1.24087e-05)
(0.200692 0.00372393 -1.26613e-05)
(0.200547 0.00362745 -1.28635e-05)
(0.200395 0.00353556 -1.30195e-05)
(0.200237 0.00344787 -1.31341e-05)
(0.200073 0.00336399 -1.32124e-05)
(0.199903 0.00328357 -1.32592e-05)
(0.199726 0.00320627 -1.32794e-05)
(0.199543 0.00313178 -1.32775e-05)
(0.199353 0.00305982 -1.32579e-05)
(0.199157 0.00299013 -1.32244e-05)
(0.198954 0.0029225 -1.31804e-05)
(0.198744 0.00285672 -1.31291e-05)
(0.198527 0.00279264 -1.30731e-05)
(0.198303 0.00273009 -1.30147e-05)
(0.198071 0.00266894 -1.29559e-05)
(0.197832 0.00260908 -1.28982e-05)
(0.197585 0.0025504 -1.2843e-05)
(0.197329 0.00249282 -1.27916e-05)
(0.197066 0.00243624 -1.27447e-05)
(0.196795 0.0023806 -1.27032e-05)
(0.196515 0.00232582 -1.26678e-05)
(0.196227 0.00227184 -1.2639e-05)
(0.19593 0.00221859 -1.26172e-05)
(0.195625 0.00216602 -1.26028e-05)
(0.195312 0.00211407 -1.25961e-05)
(0.194989 0.00206267 -1.25972e-05)
(0.194658 0.00201179 -1.26063e-05)
(0.194319 0.00196137 -1.26235e-05)
(0.193971 0.00191135 -1.26487e-05)
(0.193614 0.0018617 -1.26818e-05)
(0.193249 0.00181236 -1.27226e-05)
(0.192876 0.00176329 -1.27706e-05)
(0.192494 0.00171445 -1.28253e-05)
(0.192104 0.00166579 -1.28861e-05)
(0.191705 0.00161728 -1.2952e-05)
(0.191299 0.00156888 -1.30218e-05)
(0.190886 0.00152056 -1.30943e-05)
(0.190464 0.00147228 -1.31678e-05)
(0.190035 0.00142402 -1.32402e-05)
(0.1896 0.00137575 -1.33092e-05)
(0.189157 0.00132745 -1.3372e-05)
(0.188708 0.00127911 -1.34254e-05)
(0.188252 0.00123069 -1.34656e-05)
(0.187791 0.0011822 -1.34883e-05)
(0.187324 0.00113363 -1.34886e-05)
(0.186852 0.00108497 -1.34608e-05)
(0.186375 0.00103623 -1.33984e-05)
(0.185893 0.00098742 -1.32944e-05)
(0.185407 0.000938558 -1.31405e-05)
(0.184918 0.000889674 -1.29278e-05)
(0.184425 0.00084081 -1.26465e-05)
(0.18393 0.000792026 -1.22862e-05)
(0.183431 0.00074341 -1.18364e-05)
(0.182931 0.000695086 -1.12871e-05)
(0.182429 0.000647247 -1.06315e-05)
(0.181925 0.000600191 -9.86936e-06)
(0.181421 0.0005544 -9.01626e-06)
(0.180916 0.000510681 -8.11996e-06)
(0.180411 0.000470358 -7.28855e-06)
(0.17991 0.00043527 -6.70505e-06)
(0.179421 0.000405941 -6.45144e-06)
(0.178831 0.000371753 -5.51798e-06)
(0.197653 0.00451216 7.44357e-08)
(0.197754 0.00481939 2.3519e-07)
(0.197884 0.00510736 4.36938e-07)
(0.198042 0.00537079 6.82907e-07)
(0.19822 0.00560739 9.53992e-07)
(0.198414 0.00581657 1.22732e-06)
(0.198619 0.00599842 1.48577e-06)
(0.19883 0.0061533 1.71651e-06)
(0.199047 0.00628177 1.90853e-06)
(0.199265 0.00638456 2.05303e-06)
(0.199483 0.00646249 2.14434e-06)
(0.199698 0.0065164 2.1795e-06)
(0.199909 0.00654719 2.15717e-06)
(0.200114 0.00655583 2.07698e-06)
(0.200311 0.00654336 1.93917e-06)
(0.2005 0.00651096 1.74443e-06)
(0.200678 0.00645994 1.49383e-06)
(0.200844 0.00639173 1.18872e-06)
(0.200997 0.00630791 8.30788e-07)
(0.201137 0.00621014 4.22161e-07)
(0.201263 0.00610022 -3.44551e-08)
(0.201373 0.00597999 -5.35633e-07)
(0.201468 0.00585133 -1.0771e-06)
(0.201548 0.0057161 -1.65367e-06)
(0.201612 0.00557613 -2.2592e-06)
(0.201662 0.00543315 -2.88669e-06)
(0.201697 0.00528876 -3.52839e-06)
(0.201719 0.00514443 -4.17602e-06)
(0.201729 0.00500143 -4.82103e-06)
(0.201727 0.00486086 -5.45491e-06)
(0.201714 0.00472362 -6.06951e-06)
(0.201692 0.00459042 -6.65734e-06)
(0.201661 0.00446177 -7.2118e-06)
(0.201623 0.00433803 -7.72744e-06)
(0.201578 0.00421939 -8.20006e-06)
(0.201527 0.00410592 -8.62679e-06)
(0.201471 0.00399757 -9.00609e-06)
(0.201411 0.00389421 -9.33768e-06)
(0.201346 0.00379562 -9.6224e-06)
(0.201279 0.00370157 -9.86211e-06)
(0.201208 0.00361177 -1.00594e-05)
(0.201134 0.00352592 -1.02176e-05)
(0.201057 0.00344372 -1.03404e-05)
(0.200978 0.00336488 -1.04316e-05)
(0.200896 0.0032891 -1.04953e-05)
(0.200812 0.00321611 -1.05355e-05)
(0.200724 0.00314567 -1.0556e-05)
(0.200634 0.00307755 -1.05603e-05)
(0.20054 0.00301154 -1.05519e-05)
(0.200443 0.00294745 -1.05336e-05)
(0.200343 0.00288511 -1.05082e-05)
(0.20024 0.00282437 -1.04779e-05)
(0.200132 0.00276509 -1.04448e-05)
(0.20002 0.00270715 -1.04107e-05)
(0.199905 0.00265044 -1.03769e-05)
(0.199784 0.00259486 -1.03448e-05)
(0.199659 0.00254031 -1.03152e-05)
(0.19953 0.00248672 -1.02892e-05)
(0.199395 0.00243399 -1.02673e-05)
(0.199255 0.00238206 -1.02501e-05)
(0.199109 0.00233085 -1.02381e-05)
(0.198959 0.00228028 -1.02316e-05)
(0.198802 0.00223031 -1.02308e-05)
(0.198639 0.00218085 -1.02361e-05)
(0.198471 0.00213185 -1.02475e-05)
(0.198296 0.00208324 -1.0265e-05)
(0.198115 0.00203498 -1.02886e-05)
(0.197927 0.00198699 -1.0318e-05)
(0.197733 0.00193923 -1.03532e-05)
(0.197532 0.00189165 -1.03936e-05)
(0.197325 0.00184418 -1.04389e-05)
(0.19711 0.00179678 -1.04882e-05)
(0.196889 0.00174941 -1.05408e-05)
(0.196661 0.00170202 -1.05956e-05)
(0.196426 0.00165457 -1.06513e-05)
(0.196184 0.00160702 -1.07063e-05)
(0.195934 0.00155932 -1.07589e-05)
(0.195678 0.00151146 -1.08067e-05)
(0.195415 0.0014634 -1.08473e-05)
(0.195145 0.00141512 -1.08777e-05)
(0.194868 0.00136658 -1.08944e-05)
(0.194584 0.00131778 -1.08935e-05)
(0.194293 0.00126871 -1.08703e-05)
(0.193996 0.00121936 -1.08197e-05)
(0.193692 0.00116972 -1.07358e-05)
(0.193381 0.0011198 -1.06122e-05)
(0.193065 0.00106963 -1.04414e-05)
(0.192742 0.00101923 -1.02156e-05)
(0.192413 0.000968637 -9.92624e-06)
(0.192079 0.000917917 -9.56475e-06)
(0.191739 0.000867157 -9.12299e-06)
(0.191393 0.000816489 -8.5946e-06)
(0.191042 0.000766104 -7.97747e-06)
(0.190686 0.000716296 -7.27787e-06)
(0.190325 0.000667503 -6.51724e-06)
(0.18996 0.000620368 -5.7406e-06)
(0.189593 0.000575704 -5.01547e-06)
(0.189225 0.000534004 -4.37082e-06)
(0.188862 0.000493235 -3.50054e-06)
(0.18841 0.000442066 -8.83205e-07)
(0.198025 0.00440645 1.7771e-09)
(0.198106 0.00467148 1.55657e-08)
(0.198208 0.00492381 6.45985e-08)
(0.198333 0.00515911 1.59507e-07)
(0.198476 0.00537454 2.9549e-07)
(0.198634 0.0055685 4.60733e-07)
(0.198803 0.00574015 6.4307e-07)
(0.198981 0.0058891 8.31669e-07)
(0.199163 0.0060153 1.01653e-06)
(0.199349 0.00611894 1.18859e-06)
(0.199536 0.0062004 1.34047e-06)
(0.199722 0.00626021 1.46656e-06)
(0.199906 0.006299 1.56268e-06)
(0.200085 0.00631752 1.62556e-06)
(0.200259 0.00631663 1.65252e-06)
(0.200425 0.00629732 1.64128e-06)
(0.200584 0.00626069 1.58988e-06)
(0.200733 0.00620797 1.49659e-06)
(0.200872 0.00614048 1.35999e-06)
(0.200999 0.00605967 1.17902e-06)
(0.201115 0.00596707 9.53185e-07)
(0.201219 0.00586427 6.82673e-07)
(0.20131 0.00575288 3.68569e-07)
(0.201389 0.00563452 1.29689e-08)
(0.201455 0.00551079 -3.80929e-07)
(0.201509 0.00538322 -8.08809e-07)
(0.201551 0.00525326 -1.2653e-06)
(0.201583 0.00512222 -1.74413e-06)
(0.201604 0.00499131 -2.2383e-06)
(0.201616 0.00486157 -2.74038e-06)