/*--------------------------------*- C++ -*----------------------------------*\
| =========                 |                                                 |
| \\      /  F ield         | OpenFOAM: The Open Source CFD Toolbox           |
|  \\    /   O peration     | Version:  2.3.0                                 |
|   \\  /    A nd           | Web:      www.OpenFOAM.org                      |
|    \\/     M anipulation  |                                                 |
\*---------------------------------------------------------------------------*/
FoamFile
{
    version     2.0;
    format      ascii;
    class       surfaceScalarField;
    location    "0.5";
    object      phi;
}
// * * * * * * * * * * * * * * * * * * * * * * * * * * * * * * * * * * * * * //

dimensions      [0 3 -1 0 0 0 0];

internalField   nonuniform List<scalar> 
1660
(
6.34708e-08
2.71305e-09
-6.61839e-08
5.97911e-08
3.67971e-09
5.58155e-08
3.97561e-09
5.18709e-08
3.9446e-09
4.79785e-08
3.89234e-09
4.40955e-08
3.88309e-09
4.02243e-08
3.87111e-09
3.64031e-08
3.82124e-09
3.26939e-08
3.70925e-09
2.91767e-08
3.51711e-09
2.59373e-08
3.23941e-09
2.30443e-08
2.89306e-09
2.05573e-08
2.48701e-09
1.85087e-08
2.04851e-09
1.68971e-08
1.61166e-09
1.56776e-08
1.21947e-09
1.47758e-08
9.01842e-10
1.41161e-08
6.59666e-10
1.36318e-08
4.84285e-10
1.32648e-08
3.67044e-10
1.29733e-08
2.91463e-10
1.27286e-08
2.44688e-10
1.25039e-08
2.24751e-10
1.22869e-08
2.16933e-10
1.20786e-08
2.08373e-10
1.18703e-08
2.08293e-10
1.16572e-08
2.13103e-10
1.14478e-08
2.09329e-10
1.12467e-08
2.0111e-10
1.10568e-08
1.8997e-10
1.08758e-08
1.80951e-10
1.06974e-08
1.78423e-10
1.0531e-08
1.66394e-10
1.03869e-08
1.44091e-10
1.02546e-08
1.32346e-10
1.01267e-08
1.27876e-10
1.001e-08
1.16638e-10
9.9093e-09
1.00746e-10
9.82228e-09
8.70245e-11
9.74678e-09
7.54977e-11
9.68101e-09
6.57659e-11
9.62301e-09
5.80072e-11
9.57262e-09
5.03888e-11
9.53134e-09
4.12766e-11
9.49974e-09
3.15976e-11
9.47532e-09
2.44238e-11
9.45716e-09
1.81588e-11
9.44308e-09
1.40846e-11
9.43163e-09
1.14462e-11
1.20841e-11
7.27333e-08
2.50112e-09
-7.25213e-08
7.28612e-08
3.5518e-09
7.25288e-08
4.30795e-09
7.18529e-08
4.62057e-09
7.09886e-08
4.75659e-09
6.99794e-08
4.89237e-09
6.87919e-08
5.05856e-09
6.74047e-08
5.20847e-09
6.58349e-08
5.27906e-09
6.4115e-08
5.23695e-09
6.22744e-08
5.08007e-09
6.03555e-08
4.81188e-09
5.83978e-08
4.4448e-09
5.64459e-08
4.00042e-09
5.45474e-08
3.51014e-09
5.27372e-08
3.02966e-09
5.1032e-08
2.60706e-09
4.94374e-08
2.25428e-09
4.79505e-08
1.97118e-09
4.65582e-08
1.7593e-09
4.52629e-08
1.58673e-09
4.40567e-08
1.4509e-09
4.29258e-08
1.35572e-09
4.18662e-08
1.2765e-09
4.08771e-08
1.19747e-09
3.99466e-08
1.13882e-09
3.90659e-08
1.09381e-09
3.82371e-08
1.03811e-09
3.7464e-08
9.74176e-10
3.67454e-08
9.0859e-10
3.60696e-08
8.5676e-10
3.54312e-08
8.16821e-10
3.48421e-08
7.55482e-10
3.43059e-08
6.80239e-10
3.38087e-08
6.29588e-10
3.3346e-08
5.90609e-10
3.29231e-08
5.39529e-10
3.25434e-08
4.80394e-10
3.22032e-08
4.2721e-10
3.1901e-08
3.77726e-10
3.16315e-08
3.35246e-10
3.13933e-08
2.96252e-10
3.11842e-08
2.59502e-10
3.10073e-08
2.18166e-10
3.08591e-08
1.79802e-10
3.07394e-08
1.44096e-10
3.06408e-08
1.16777e-10
3.05652e-08
8.96443e-11
3.04977e-08
7.90247e-11
6.29164e-11
7.87626e-08
2.46956e-09
-7.87311e-08
7.90814e-08
3.23302e-09
7.93617e-08
4.02768e-09
7.94915e-08
4.49075e-09
7.95153e-08
4.73274e-09
7.95001e-08
4.90762e-09
7.94645e-08
5.09413e-09
7.93744e-08
5.29862e-09
7.91996e-08
5.45384e-09
7.8917e-08
5.51953e-09
7.85216e-08
5.47552e-09
7.80138e-08
5.31961e-09
7.73931e-08
5.06556e-09
7.66675e-08
4.72601e-09
7.5857e-08
4.32064e-09
7.49874e-08
3.89924e-09
7.40855e-08
3.50899e-09
7.31663e-08
3.17341e-09
7.22422e-08
2.89534e-09
7.13191e-08
2.68241e-09
7.03937e-08
2.51208e-09
6.94757e-08
2.36896e-09
6.85649e-08
2.26649e-09
6.76647e-08
2.17667e-09
6.67769e-08
2.08529e-09
6.58966e-08
2.01908e-09
6.50286e-08
1.96188e-09
6.41729e-08
1.89383e-09
6.33297e-08
1.81734e-09
6.25138e-08
1.72452e-09
6.17185e-08
1.65205e-09
6.09341e-08
1.60118e-09
6.01736e-08
1.51598e-09
5.94494e-08
1.40448e-09
5.87516e-08
1.32734e-09
5.80841e-08
1.25814e-09
5.7449e-08
1.17462e-09
5.68523e-08
1.07708e-09
5.62894e-08
9.90105e-10
5.57701e-08
8.97041e-10
5.52866e-08
8.18779e-10
5.4845e-08
7.37855e-10
5.44349e-08
6.69575e-10
5.40722e-08
5.80898e-10
5.37406e-08
5.11314e-10
5.34571e-08
4.27597e-10
5.31969e-08
3.76986e-10
5.29846e-08
3.01989e-10
5.27812e-08
2.82455e-10
2.24038e-10
8.53389e-08
2.47124e-09
-8.53406e-08
8.55089e-08
3.06302e-09
8.5806e-08
3.7305e-09
8.60622e-08
4.23458e-09
8.62397e-08
4.55525e-09
8.63859e-08
4.7614e-09
8.65589e-08
4.92113e-09
8.67573e-08
5.10025e-09
8.6955e-08
5.25611e-09
8.71237e-08
5.35079e-09
8.72402e-08
5.35906e-09
8.72958e-08
5.26405e-09
8.72808e-08
5.08052e-09
8.71854e-08
4.8214e-09
8.70075e-08
4.49856e-09
8.67577e-08
4.14907e-09
8.6456e-08
3.81064e-09
8.6114e-08
3.51539e-09
8.57484e-08
3.26101e-09
8.53679e-08
3.06285e-09
8.49667e-08
2.91337e-09
8.45496e-08
2.78603e-09
8.41203e-08
2.69582e-09
8.3685e-08
2.61194e-09
8.32451e-08
2.52521e-09
8.27954e-08
2.46872e-09
8.23367e-08
2.42056e-09
8.18716e-08
2.35898e-09
8.13915e-08
2.29741e-09
8.09101e-08
2.2059e-09
8.04273e-08
2.13488e-09
7.99384e-08
2.0901e-09
7.94461e-08
2.00825e-09
7.89614e-08
1.88917e-09
7.84699e-08
1.8189e-09
7.79787e-08
1.74936e-09
7.74893e-08
1.66403e-09
7.70209e-08
1.54544e-09
7.65645e-08
1.44654e-09
7.61316e-08
1.32987e-09
7.57009e-08
1.24952e-09
7.52896e-08
1.1492e-09
7.48845e-08
1.07465e-09
7.45179e-08
9.47452e-10
7.41669e-08
8.62361e-10
7.38548e-08
7.39678e-10
7.35474e-08
6.84397e-10
7.32773e-08
5.72038e-10
7.30051e-08
5.54694e-10
4.59573e-10
9.24321e-08
2.4652e-09
-9.24261e-08
9.25422e-08
2.9529e-09
9.27806e-08
3.49211e-09
9.30359e-08
3.97927e-09
9.32544e-08
4.33673e-09
9.34387e-08
4.57714e-09
9.36261e-08
4.73375e-09
9.3838e-08
4.88835e-09
9.4076e-08
5.01806e-09
9.4318e-08
5.10887e-09
9.45363e-08
5.14075e-09
9.47163e-08
5.08402e-09
9.48538e-08
4.94306e-09
9.49402e-08
4.73492e-09
9.49654e-08
4.47337e-09
9.49333e-08
4.18118e-09
9.48589e-08
3.88506e-09
9.47524e-08
3.62185e-09
9.46248e-08
3.38866e-09
9.44895e-08
3.19814e-09
9.43452e-08
3.05761e-09
9.4192e-08
2.93928e-09
9.40291e-08
2.85872e-09
9.38652e-08
2.77583e-09
9.37012e-08
2.68921e-09
9.35349e-08
2.63497e-09
9.33625e-08
2.59298e-09
9.31881e-08
2.5334e-09
9.3001e-08
2.48452e-09
9.28062e-08
2.40068e-09
9.26083e-08
2.33281e-09
9.24088e-08
2.28959e-09
9.21992e-08
2.21787e-09
9.19869e-08
2.1014e-09
9.17668e-08
2.03909e-09
9.1545e-08
1.97112e-09
9.1304e-08
1.90502e-09
9.10587e-08
1.79076e-09
9.08101e-08
1.69511e-09
9.05854e-08
1.55454e-09
9.03605e-08
1.47449e-09
9.01357e-08
1.37396e-09
8.98904e-08
1.31999e-09
8.9653e-08
1.18478e-09
8.94199e-08
1.09553e-09
8.92125e-08
9.47079e-10
8.90072e-08
8.8968e-10
8.88169e-08
7.6237e-10
8.8618e-08
7.53582e-10
6.50127e-10
1.00072e-07
2.44858e-09
-1.00055e-07
1.0016e-07
2.86467e-09
1.00345e-07
3.30755e-09
1.00574e-07
3.74993e-09
1.00802e-07
4.10864e-09
1.01009e-07
4.36964e-09
1.012e-07
4.54292e-09
1.01399e-07
4.68976e-09
1.01618e-07
4.79907e-09
1.01852e-07
4.87479e-09
1.02076e-07
4.91699e-09
1.0227e-07
4.88965e-09
1.0243e-07
4.78355e-09
1.0255e-07
4.6149e-09
1.02621e-07
4.4023e-09
1.02644e-07
4.15778e-09
1.0263e-07
3.89949e-09
1.0259e-07
3.66159e-09
1.0253e-07
3.44833e-09
1.02465e-07
3.26351e-09
1.02398e-07
3.12404e-09
1.02332e-07
3.00579e-09
1.02262e-07
2.92902e-09
1.02194e-07
2.84396e-09
1.02128e-07
2.75426e-09
1.02068e-07
2.69551e-09
1.02008e-07
2.65331e-09
1.0195e-07
2.59092e-09
1.01891e-07
2.54341e-09
1.01826e-07
2.4659e-09
1.01759e-07
2.39943e-09
1.01699e-07
2.35002e-09
1.01635e-07
2.28167e-09
1.01565e-07
2.17111e-09
1.0149e-07
2.11465e-09
1.01422e-07
2.03921e-09
1.01341e-07
1.98588e-09
1.01248e-07
1.88338e-09
1.0114e-07
1.8033e-09
1.01046e-07
1.64817e-09
1.00962e-07
1.55934e-09
1.0088e-07
1.45559e-09
1.00779e-07
1.42064e-09
1.00667e-07
1.29726e-09
1.00548e-07
1.21417e-09
1.00439e-07
1.05625e-09
1.00336e-07
9.9259e-10
1.00236e-07
8.62388e-10
1.00135e-07
8.54761e-10
7.57408e-10
1.08308e-07
2.42579e-09
-1.08285e-07
1.08387e-07
2.78585e-09
1.0853e-07
3.16448e-09
1.08733e-07
3.54706e-09
1.08951e-07
3.89051e-09
1.09166e-07
4.15448e-09
1.09362e-07
4.3471e-09
1.09555e-07
4.4968e-09
1.09755e-07
4.59933e-09
1.09966e-07
4.66325e-09
1.10176e-07
4.70722e-09
1.10367e-07
4.69864e-09
1.10526e-07
4.62412e-09
1.1065e-07
4.49141e-09
1.10732e-07
4.32058e-09
1.10772e-07
4.11731e-09
1.10775e-07
3.89703e-09
1.10754e-07
3.68233e-09
1.10714e-07
3.48783e-09
1.10666e-07
3.3116e-09
1.10617e-07
3.17317e-09
1.10572e-07
3.05131e-09
1.10527e-07
2.97336e-09
1.10486e-07
2.88567e-09
1.10445e-07
2.79459e-09
1.1041e-07
2.7309e-09
1.10379e-07
2.68364e-09
1.10352e-07
2.61803e-09
1.1033e-07
2.56536e-09
1.10304e-07
2.49219e-09
1.10278e-07
2.4257e-09
1.1026e-07
2.3677e-09
1.10245e-07
2.29715e-09
1.10223e-07
2.19232e-09
1.10196e-07
2.14167e-09
1.10179e-07
2.05636e-09
1.10159e-07
2.00607e-09
1.10134e-07
1.90837e-09
1.10092e-07
1.84495e-09
1.10051e-07
1.68926e-09
1.10017e-07
1.59397e-09
1.0999e-07
1.48258e-09
1.09958e-07
1.45245e-09
1.09915e-07
1.34059e-09
1.09862e-07
1.26706e-09
1.09804e-07
1.11369e-09
1.09751e-07
1.0457e-09
1.09695e-07
9.18839e-10
1.09645e-07
9.04634e-10
8.1163e-10
1.17195e-07
2.39997e-09
-1.17169e-07
1.17265e-07
2.71601e-09
1.17385e-07
3.04433e-09
1.17557e-07
3.37511e-09
1.1776e-07
3.68804e-09
1.17967e-07
3.94749e-09
1.18165e-07
4.14858e-09
1.18353e-07
4.30843e-09
1.18541e-07
4.41224e-09
1.18731e-07
4.47323e-09
1.18922e-07
4.51586e-09
1.19102e-07
4.51824e-09
1.19257e-07
4.46933e-09
1.19379e-07
4.36914e-09
1.19465e-07
4.23541e-09
1.19514e-07
4.06754e-09
1.19527e-07
3.88479e-09
1.19515e-07
3.69374e-09
1.19486e-07
3.51657e-09
1.19447e-07
3.35092e-09
1.19404e-07
3.21616e-09
1.19364e-07
3.09161e-09
1.19327e-07
3.01003e-09
1.19294e-07
2.91901e-09
1.19261e-07
2.82784e-09
1.1923e-07
2.76116e-09
1.19206e-07
2.70794e-09
1.19183e-07
2.64119e-09
1.19168e-07
2.5799e-09
1.19152e-07
2.50841e-09
1.19135e-07
2.44226e-09
1.19125e-07
2.37783e-09
1.19119e-07
2.3032e-09
1.1911e-07
2.20117e-09
1.19097e-07
2.15496e-09
1.19091e-07
2.06294e-09
1.19082e-07
2.01436e-09
1.19076e-07
1.91416e-09
1.19061e-07
1.86024e-09
1.19039e-07
1.71138e-09
1.19015e-07
1.61786e-09
1.18997e-07
1.501e-09
1.18984e-07
1.46557e-09
1.18967e-07
1.35766e-09
1.18942e-07
1.29172e-09
1.18906e-07
1.1496e-09
1.18869e-07
1.08287e-09
1.18825e-07
9.63036e-10
1.18789e-07
9.39927e-10
8.4587e-10
1.26786e-07
2.37215e-09
-1.26759e-07
1.26849e-07
2.65347e-09
1.26952e-07
2.94077e-09
1.27099e-07
3.22857e-09
1.2728e-07
3.50692e-09
1.27472e-07
3.75559e-09
1.27663e-07
3.95796e-09
1.27848e-07
4.12321e-09
1.28025e-07
4.23544e-09
1.28197e-07
4.30064e-09
1.28369e-07
4.34364e-09
1.28534e-07
4.35354e-09
1.28679e-07
4.32405e-09
1.28798e-07
4.25032e-09
1.28884e-07
4.14926e-09
1.2894e-07
4.012e-09
1.28961e-07
3.8633e-09
1.28959e-07
3.69651e-09
1.28937e-07
3.53813e-09
1.28905e-07
3.38307e-09
1.28868e-07
3.25299e-09
1.28832e-07
3.12794e-09
1.288e-07
3.04202e-09
1.2877e-07
2.94833e-09
1.2874e-07
2.85851e-09
1.28712e-07
2.78881e-09
1.28691e-07
2.72893e-09
1.28669e-07
2.66363e-09
1.28655e-07
2.59349e-09
1.28641e-07
2.52295e-09
1.28625e-07
2.45766e-09
1.28616e-07
2.38687e-09
1.28612e-07
2.30734e-09
1.28605e-07
2.20781e-09
1.28595e-07
2.16555e-09
1.28589e-07
2.06833e-09
1.28582e-07
2.02179e-09
1.28579e-07
1.91688e-09
1.28572e-07
1.8672e-09
1.28557e-07
1.72686e-09
1.28535e-07
1.63938e-09
1.28516e-07
1.52042e-09
1.28505e-07
1.47627e-09
1.28495e-07
1.36779e-09
1.28479e-07
1.30755e-09
1.28452e-07
1.17701e-09
1.28419e-07
1.11538e-09
1.28379e-07
1.00384e-09
1.28345e-07
9.73465e-10
8.75502e-10
1.3714e-07
2.34744e-09
-1.37115e-07
1.37194e-07
2.59905e-09
1.37285e-07
2.84961e-09
1.37411e-07
3.10299e-09
1.37567e-07
3.35088e-09
1.37742e-07
3.58087e-09
1.37916e-07
3.78376e-09
1.38092e-07
3.94715e-09
1.38259e-07
4.06817e-09
1.38417e-07
4.14313e-09
1.38572e-07
4.18868e-09
1.38719e-07
4.20602e-09
1.38851e-07
4.19252e-09
1.38963e-07
4.13816e-09
1.39047e-07
4.06496e-09
1.39105e-07
3.95449e-09
1.39134e-07
3.83438e-09
1.3914e-07
3.69002e-09
1.39126e-07
3.55253e-09
1.391e-07
3.40874e-09
1.39069e-07
3.28368e-09
1.39036e-07
3.16095e-09
1.39008e-07
3.06994e-09
1.38984e-07
2.97294e-09
1.38956e-07
2.88661e-09
1.3893e-07
2.81432e-09
1.38913e-07
2.74649e-09
1.38892e-07
2.68428e-09
1.38878e-07
2.60738e-09
1.38864e-07
2.53738e-09
1.38849e-07
2.4722e-09
1.38841e-07
2.39523e-09
1.38836e-07
2.31196e-09
1.38829e-07
2.21482e-09
1.3882e-07
2.17444e-09
1.38816e-07
2.07215e-09
1.38809e-07
2.02923e-09
1.38804e-07
1.92167e-09
1.38798e-07
1.87341e-09
1.38785e-07
1.73965e-09
1.38767e-07
1.65761e-09
1.38748e-07
1.53902e-09
1.38738e-07
1.48684e-09
1.38729e-07
1.37679e-09
1.38715e-07
1.32192e-09
1.38691e-07
1.20066e-09
1.38661e-07
1.14558e-09
1.38623e-07
1.04125e-09
1.3859e-07
1.00634e-09
9.04705e-10
1.7015e-07
2.30875e-09
-1.70111e-07
1.70214e-07
2.53487e-09
1.7031e-07
2.75374e-09
1.70434e-07
2.97887e-09
1.70584e-07
3.20048e-09
1.70757e-07
3.40768e-09
1.70935e-07
3.60636e-09
1.71114e-07
3.76767e-09
1.71287e-07
3.89521e-09
1.71448e-07
3.98212e-09
1.71602e-07
4.03453e-09
1.71748e-07
4.06081e-09
1.71878e-07
4.06173e-09
1.71993e-07
4.02319e-09
1.72083e-07
3.97531e-09
1.72148e-07
3.88949e-09
1.72186e-07
3.79633e-09
1.72201e-07
3.67533e-09
1.72193e-07
3.56015e-09
1.72173e-07
3.42926e-09
1.72145e-07
3.31079e-09
1.72113e-07
3.19296e-09
1.72085e-07
3.09801e-09
1.72062e-07
2.99676e-09
1.72036e-07
2.91191e-09
1.72014e-07
2.83679e-09
1.71998e-07
2.76251e-09
1.71975e-07
2.7068e-09
1.71958e-07
2.62486e-09
1.71942e-07
2.55274e-09
1.71931e-07
2.484e-09
1.71923e-07
2.40272e-09
1.71915e-07
2.31999e-09
1.71905e-07
2.22463e-09
1.71897e-07
2.1823e-09
1.71895e-07
2.07479e-09
1.71887e-07
2.03746e-09
1.71879e-07
1.929e-09
1.71872e-07
1.88051e-09
1.71859e-07
1.75262e-09
1.71842e-07
1.67473e-09
1.71823e-07
1.55791e-09
1.71811e-07
1.49857e-09
1.71802e-07
1.38642e-09
1.71786e-07
1.33739e-09
1.71764e-07
1.22307e-09
1.71733e-07
1.17678e-09
1.71695e-07
1.0789e-09
1.71659e-07
1.04188e-09
9.38046e-10
2.14669e-07
2.26436e-09
-2.14625e-07
2.14738e-07
2.46578e-09
2.14832e-07
2.66033e-09
2.1495e-07
2.86103e-09
2.15088e-07
3.06179e-09
2.15244e-07
3.25195e-09
2.15414e-07
3.43649e-09
2.15584e-07
3.59706e-09
2.1575e-07
3.72994e-09
2.15906e-07
3.82537e-09
2.16051e-07
3.8897e-09
2.16187e-07
3.92533e-09
2.16309e-07
3.93936e-09
2.16417e-07
3.91524e-09
2.16506e-07
3.88626e-09
2.16574e-07
3.82114e-09
2.16619e-07
3.75134e-09
2.16643e-07
3.65191e-09
2.16643e-07
3.55989e-09
2.1663e-07
3.44213e-09
2.16608e-07
3.33316e-09
2.16581e-07
3.22013e-09
2.16558e-07
3.12126e-09
2.16536e-07
3.01861e-09
2.16512e-07
2.93551e-09
2.16489e-07
2.85943e-09
2.16476e-07
2.7762e-09
2.16464e-07
2.7181e-09
2.16451e-07
2.63791e-09
2.16429e-07
2.57545e-09
2.16414e-07
2.49893e-09
2.16409e-07
2.40741e-09
2.16401e-07
2.32833e-09
2.16391e-07
2.2348e-09
2.16386e-07
2.18639e-09
2.16386e-07
2.07563e-09
2.16376e-07
2.04753e-09
2.16365e-07
1.93976e-09
2.16357e-07
1.88877e-09
2.16343e-07
1.76588e-09
2.16328e-07
1.69031e-09
2.16311e-07
1.5743e-09
2.163e-07
1.50939e-09
2.16291e-07
1.39608e-09
2.16275e-07
1.35359e-09
2.16255e-07
1.24273e-09
2.16225e-07
1.20673e-09
2.1619e-07
1.11368e-09
2.16156e-07
1.076e-09
9.73893e-10
2.70856e-07
2.22561e-09
-2.70817e-07
2.70914e-07
2.4071e-09
2.70989e-07
2.58517e-09
2.71082e-07
2.76845e-09
2.7119e-07
2.95369e-09
2.7131e-07
3.132e-09
2.71444e-07
3.30296e-09
2.71583e-07
3.45794e-09
2.71714e-07
3.59853e-09
2.71843e-07
3.69605e-09
2.71958e-07
3.77476e-09
2.72069e-07
3.81477e-09
2.7217e-07
3.83872e-09
2.72253e-07
3.83134e-09
2.72329e-07
3.81115e-09
2.72388e-07
3.76125e-09
2.72429e-07
3.71122e-09
2.72458e-07
3.62203e-09
2.72472e-07
3.54614e-09
2.72469e-07
3.44534e-09
2.72449e-07
3.35269e-09
2.72429e-07
3.24073e-09
2.72416e-07
3.13428e-09
2.724e-07
3.03478e-09
2.72386e-07
2.94918e-09
2.72376e-07
2.86905e-09
2.72365e-07
2.7881e-09
2.72352e-07
2.73018e-09
2.7234e-07
2.65026e-09
2.7232e-07
2.59548e-09
2.72317e-07
2.50178e-09
2.72325e-07
2.39969e-09
2.72315e-07
2.33797e-09
2.72298e-07
2.25192e-09
2.72294e-07
2.19036e-09
2.72297e-07
2.07305e-09
2.7229e-07
2.0546e-09
2.72281e-07
1.9489e-09
2.72276e-07
1.89381e-09
2.72265e-07
1.77618e-09
2.72251e-07
1.70402e-09
2.72237e-07
1.58906e-09
2.72227e-07
1.51869e-09
2.7222e-07
1.40361e-09
2.72207e-07
1.36627e-09
2.72194e-07
1.25634e-09
2.7217e-07
1.23083e-09
2.72142e-07
1.14122e-09
2.72115e-07
1.10322e-09
1.00366e-09
3.41773e-07
-3.41758e-07
3.41797e-07
3.41828e-07
3.41865e-07
3.4191e-07
3.4196e-07
3.42017e-07
3.42078e-07
3.42137e-07
3.42196e-07
3.42247e-07
3.42297e-07
3.42343e-07
3.42382e-07
3.42417e-07
3.42448e-07
3.42472e-07
3.42487e-07
3.4249e-07
3.42496e-07
3.42502e-07
3.42496e-07
3.42485e-07
3.42477e-07
3.42476e-07
3.42474e-07
3.4247e-07
3.42474e-07
3.42478e-07
3.42467e-07
3.42458e-07
3.42459e-07
3.42458e-07
3.42458e-07
3.42465e-07
3.42471e-07
3.42467e-07
3.4246e-07
3.42457e-07
3.42453e-07
3.42449e-07
3.42446e-07
3.42444e-07
3.42443e-07
3.42439e-07
3.42436e-07
3.42428e-07
3.42417e-07
3.42404e-07
6.90572e-08
-1.41033e-10
6.90411e-08
-3.2558e-11
6.89703e-08
1.28775e-10
6.89053e-08
1.15007e-10
6.88221e-08
2.29005e-10
6.87364e-08
1.6683e-10
6.86237e-08
3.26014e-10
6.84909e-08
2.63723e-10
6.82575e-08
5.14196e-10
6.79259e-08
5.64616e-10
6.72646e-08
1.16571e-09
1.7756e-09
7.44588e-08
-6.50311e-11
7.44856e-08
-5.93027e-11
7.44065e-08
2.07795e-10
7.43716e-08
1.49949e-10
7.42584e-08
3.4221e-10
7.41786e-08
2.46661e-10
7.40209e-08
4.83713e-10
7.38595e-08
4.25099e-10
7.35968e-08
7.76893e-10
7.32273e-08
9.34071e-10
7.28041e-08
1.58891e-09
2.0584e-09
8.04302e-08
6.78157e-12
8.04087e-08
-3.77209e-11
8.03754e-08
2.41071e-10
8.0293e-08
2.32361e-10
8.02242e-08
4.10984e-10
8.00729e-08
3.97939e-10
7.99646e-08
5.92078e-10
7.97041e-08
6.85591e-10
7.95044e-08
9.76535e-10
7.91414e-08
1.2971e-09
7.89633e-08
1.76701e-09
2.29063e-09
8.69143e-08
3.95332e-11
8.68434e-08
3.31824e-11
8.68337e-08
2.50716e-10
8.67349e-08
3.31179e-10
8.66676e-08
4.78266e-10
8.65049e-08
5.60653e-10
8.6364e-08
7.33026e-10
8.61293e-08
9.20256e-10
8.59105e-08
1.19539e-09
8.5654e-08
1.55351e-09
8.54825e-08
1.93852e-09
2.43261e-09
9.38914e-08
5.6152e-11
9.38118e-08
1.12791e-10
9.37871e-08
2.75396e-10
9.36974e-08
4.20861e-10
9.36098e-08
5.65836e-10
9.34558e-08
7.14736e-10
9.32898e-08
8.99012e-10
9.30816e-08
1.12843e-09
9.28715e-08
1.40548e-09
9.26764e-08
1.74863e-09
9.25121e-08
2.10279e-09
2.51866e-09
1.01412e-07
6.99287e-11
1.01343e-07
1.82036e-10
1.01291e-07
3.27405e-10
1.01208e-07
5.04249e-10
1.01103e-07
6.70527e-10
1.00958e-07
8.60168e-10
1.00787e-07
1.06964e-09
1.00597e-07
1.31877e-09
1.00407e-07
1.59542e-09
1.00246e-07
1.90964e-09
1.00113e-07
2.23531e-09
2.57679e-09
1.09532e-07
8.43927e-11
1.09473e-07
2.41341e-10
1.09403e-07
3.97163e-10
1.09314e-07
5.92894e-10
1.09201e-07
7.84247e-10
1.0906e-07
1.0005e-09
1.08897e-07
1.23234e-09
1.08724e-07
1.49191e-09
1.08558e-07
1.76204e-09
1.08424e-07
2.04382e-09
1.08324e-07
2.33462e-09
2.61573e-09
1.18301e-07
1.00384e-10
1.18248e-07
2.94329e-10
1.18169e-07
4.76277e-10
1.18073e-07
6.8846e-10
1.17955e-07
9.02257e-10
1.17819e-07
1.13661e-09
1.17669e-07
1.38259e-09
1.17516e-07
1.64485e-09
1.17374e-07
1.90338e-09
1.17264e-07
2.15415e-09
1.17191e-07
2.40727e-09
2.63779e-09
1.27772e-07
1.17826e-10
1.27721e-07
3.45338e-10
1.27639e-07
5.57604e-10
1.2754e-07
7.87682e-10
1.27422e-07
1.02078e-09
1.27291e-07
1.26674e-09
1.27155e-07
1.51901e-09
1.27023e-07
1.77668e-09
1.26909e-07
2.01731e-09
1.26821e-07
2.24267e-09
1.26767e-07
2.46055e-09
2.64668e-09
1.38001e-07
1.36294e-10
1.3795e-07
3.96655e-10
1.3787e-07
6.37588e-10
1.37771e-07
8.86343e-10
1.37657e-07
1.13555e-09
1.37535e-07
1.38834e-09
1.37414e-07
1.64029e-09
1.37302e-07
1.88822e-09
1.37214e-07
2.10551e-09
1.37147e-07
2.30945e-09
1.37114e-07
2.49397e-09
2.64536e-09
1.70997e-07
1.58126e-10
1.70936e-07
4.56981e-10
1.70846e-07
7.28223e-10
1.70735e-07
9.96751e-10
1.70611e-07
1.2595e-09
1.70484e-07
1.5158e-09
1.70363e-07
1.76132e-09
1.70262e-07
1.98921e-09
1.70182e-07
2.18574e-09
1.70124e-07
2.3666e-09
1.70098e-07
2.52034e-09
2.63258e-09
2.15445e-07
1.82754e-10
2.15378e-07
5.2423e-10
2.15279e-07
8.27126e-10
2.15162e-07
1.11342e-09
2.15037e-07
1.38467e-09
2.14914e-07
1.63907e-09
2.14804e-07
1.87089e-09
2.14723e-07
2.07052e-09
2.14654e-07
2.25449e-09
2.14612e-07
2.40856e-09
2.14601e-07
2.53135e-09
2.60904e-09
2.71451e-07
2.06261e-10
2.71389e-07
5.86348e-10
2.71299e-07
9.17693e-10
2.71194e-07
1.21791e-09
2.71086e-07
1.4924e-09
2.70989e-07
1.73662e-09
2.70918e-07
1.94211e-09
2.70854e-07
2.13469e-09
2.70809e-07
2.29893e-09
2.70787e-07
2.43039e-09
2.7079e-07
2.52877e-09
2.58202e-09
3.42025e-07
3.41993e-07
3.41947e-07
3.41895e-07
3.41843e-07
3.41812e-07
3.41779e-07
3.41756e-07
3.41743e-07
3.41739e-07
3.41745e-07
)
;

boundaryField
{
    top
    {
        type            calculated;
        value           nonuniform List<scalar> 
62
(
2.20998e-09
2.38292e-09
2.55487e-09
2.73123e-09
2.90827e-09
3.08223e-09
3.24637e-09
3.39666e-09
3.53974e-09
3.63719e-09
3.72293e-09
3.7652e-09
3.79253e-09
3.79287e-09
3.77544e-09
3.73018e-09
3.68738e-09
3.60758e-09
3.54287e-09
3.43885e-09
3.34745e-09
3.2469e-09
3.14457e-09
3.04256e-09
2.95097e-09
2.87107e-09
2.79161e-09
2.7265e-09
2.6461e-09
2.60675e-09
2.51044e-09
2.39849e-09
2.339e-09
2.25217e-09
2.1832e-09
2.06725e-09
2.05848e-09
1.95593e-09
1.89712e-09
1.78003e-09
1.70764e-09
1.59262e-09
1.52001e-09
1.40509e-09
1.36984e-09
1.25917e-09
1.23916e-09
1.15273e-09
1.11593e-09
1.01572e-09
2.18525e-10
6.18075e-10
9.63545e-10
1.27015e-09
1.54459e-09
1.76759e-09
1.9746e-09
2.15779e-09
2.31188e-09
2.43418e-09
2.52359e-09
2.56903e-09
)
;
    }
    inlet
    {
        type            calculated;
        value           nonuniform List<scalar> 
14
(
-1.71018e-07
-2.1547e-07
-2.71475e-07
-3.42037e-07
-6.90099e-08
-7.45348e-08
-8.05021e-08
-8.6947e-08
-9.3908e-08
-1.01426e-07
-1.09546e-07
-1.18317e-07
-1.27789e-07
-1.3802e-07
)
;
    }
    outlet
    {
        type            calculated;
        value           nonuniform List<scalar> 
14
(
1.71626e-07
2.1612e-07
2.72085e-07
3.42392e-07
9.41954e-09
3.04468e-08
5.262e-08
7.27696e-08
8.84274e-08
1.00028e-07
1.09591e-07
1.18755e-07
1.28315e-07
1.38561e-07
)
;
    }
    plate
    {
        type            calculated;
        value           uniform 0;
    }
    symmBound
    {
        type            calculated;
        value           nonuniform List<scalar> 
12
(
9.3747e-11
4.86816e-11
-5.80428e-11
-4.99298e-11
-1.45877e-10
-8.1141e-11
-2.1327e-10
-1.30967e-10
-2.8074e-10
-2.3304e-10
-5.04374e-10
-6.94873e-10
)
;
    }
    frontAndBack
    {
        type            empty;
        value           nonuniform 0();
    }
}


// ************************************************************************* //
