/*--------------------------------*- C++ -*----------------------------------*\
| =========                 |                                                 |
| \\      /  F ield         | OpenFOAM: The Open Source CFD Toolbox           |
|  \\    /   O peration     | Version:  2.3.0                                 |
|   \\  /    A nd           | Web:      www.OpenFOAM.org                      |
|    \\/     M anipulation  |                                                 |
\*---------------------------------------------------------------------------*/
FoamFile
{
    version     2.0;
    format      ascii;
    class       volScalarField;
    location    "0.65";
    object      p;
}
// * * * * * * * * * * * * * * * * * * * * * * * * * * * * * * * * * * * * * //

dimensions      [0 2 -2 0 0 0 0];

internalField   nonuniform List<scalar> 
3375
(
0.00251389
0.00218225
0.00157521
0.00101254
0.000549468
0.000158222
-0.000172468
-0.000426319
-0.000584263
-0.000650461
-0.000650361
-0.000614365
-0.000565908
-0.000518889
-0.000479614
-0.000449416
-0.000427017
-0.000410279
-0.000397191
-0.000386224
-0.000376362
-0.000367008
-0.000357854
-0.000348774
-0.000339744
-0.000330784
-0.000321929
-0.000313213
-0.000304663
-0.000296295
-0.000288118
-0.000280138
-0.000272351
-0.000264757
-0.000257351
-0.00025013
-0.000243088
-0.000236223
-0.000229532
-0.000223011
-0.000216659
-0.000210475
-0.000204455
-0.000198601
-0.00019291
-0.000187382
-0.000182014
-0.000176807
-0.000171756
-0.000166862
-0.00016212
-0.000157531
-0.00015309
-0.000148796
-0.000144646
-0.000140637
-0.000136766
-0.00013303
-0.000129424
-0.000125945
-0.000122588
-0.000119352
-0.000116229
-0.000113217
-0.00011031
-0.000107504
-0.000104792
-0.000102171
-9.96297e-05
-9.71695e-05
-9.47752e-05
-9.24501e-05
-9.01751e-05
-8.79558e-05
-8.57688e-05
-8.36224e-05
-8.14869e-05
-7.93773e-05
-7.72536e-05
-7.51401e-05
-7.29823e-05
-7.0819e-05
-6.85748e-05
-6.63054e-05
-6.39156e-05
-6.14816e-05
-5.88764e-05
-5.62094e-05
-5.33087e-05
-5.03272e-05
-4.70344e-05
-4.36426e-05
-3.98531e-05
-3.59507e-05
-3.15272e-05
-2.69808e-05
-2.17524e-05
-1.64169e-05
-1.01733e-05
-3.9385e-06
0.00208027
0.00190052
0.00146754
0.000979833
0.000543753
0.000173766
-0.000134578
-0.000371321
-0.000524889
-0.000597153
-0.000607015
-0.00058077
-0.00054056
-0.000499957
-0.000465389
-0.000438415
-0.000418117
-0.000402738
-0.00039056
-0.000380248
-0.000370899
-0.000361975
-0.000353198
-0.000344458
-0.000335734
-0.00032705
-0.000318445
-0.000309954
-0.000301605
-0.000293421
-0.000285411
-0.000277582
-0.000269934
-0.000262468
-0.00025518
-0.000248067
-0.000241127
-0.000234356
-0.000227752
-0.000221314
-0.000215039
-0.000208926
-0.000202975
-0.000197184
-0.000191553
-0.000186082
-0.000180767
-0.00017561
-0.000170608
-0.000165759
-0.00016106
-0.000156511
-0.000152109
-0.000147852
-0.000143737
-0.000139762
-0.000135923
-0.000132218
-0.000128641
-0.00012519
-0.00012186
-0.000118649
-0.000115551
-0.000112563
-0.000109679
-0.000106895
-0.000104204
-0.000101603
-9.90815e-05
-9.66406e-05
-9.42644e-05
-9.19574e-05
-8.96992e-05
-8.74971e-05
-8.53258e-05
-8.31956e-05
-8.10748e-05
-7.89807e-05
-7.68705e-05
-7.47719e-05
-7.26265e-05
-7.04778e-05
-6.82452e-05
-6.59895e-05
-6.36104e-05
-6.11898e-05
-5.85939e-05
-5.59403e-05
-5.30476e-05
-5.00793e-05
-4.6793e-05
-4.34138e-05
-3.9629e-05
-3.57398e-05
-3.13182e-05
-2.67859e-05
-2.15546e-05
-1.62349e-05
-9.98316e-06
-3.78225e-06
0.00177822
0.00166834
0.00136479
0.000958882
0.000559754
0.000214605
-6.82037e-05
-0.000286269
-0.000436146
-0.000518978
-0.000546031
-0.000536303
-0.000509095
-0.000478052
-0.000449864
-0.000426764
-0.000408667
-0.00039453
-0.000383115
-0.000373354
-0.000364477
-0.000356
-0.000347661
-0.000339346
-0.000331027
-0.000322721
-0.000314461
-0.000306281
-0.000298212
-0.000290276
-0.000282487
-0.000274855
-0.000267383
-0.000260075
-0.000252929
-0.000245946
-0.000239123
-0.00023246
-0.000225956
-0.000219608
-0.000213418
-0.000207384
-0.000201505
-0.000195783
-0.000190215
-0.000184803
-0.000179545
-0.00017444
-0.000169487
-0.000164685
-0.00016003
-0.000155523
-0.00015116
-0.000146941
-0.000142861
-0.00013892
-0.000135113
-0.000131438
-0.00012789
-0.000124467
-0.000121163
-0.000117978
-0.000114904
-0.00011194
-0.000109078
-0.000106316
-0.000103645
-0.000101064
-9.8562e-05
-9.61401e-05
-9.37814e-05
-9.14924e-05
-8.92506e-05
-8.70655e-05
-8.49095e-05
-8.27956e-05
-8.0689e-05
-7.86106e-05
-7.65136e-05
-7.44306e-05
-7.22971e-05
-7.01639e-05
-6.79423e-05
-6.57018e-05
-6.33329e-05
-6.09276e-05
-5.83405e-05
-5.5703e-05
-5.28177e-05
-4.98665e-05
-4.65858e-05
-4.32241e-05
-3.94433e-05
-3.55742e-05
-3.11536e-05
-2.66441e-05
-2.14102e-05
-1.6115e-05
-9.87332e-06
-3.71742e-06
0.0015698
0.00148341
0.00126006
0.00093042
0.000577598
0.000260869
7.12878e-07
-0.000200825
-0.000344974
-0.00043399
-0.000475046
-0.000481246
-0.000467833
-0.000447112
-0.000426193
-0.000408068
-0.000393346
-0.000381525
-0.000371753
-0.000363225
-0.000355332
-0.000347687
-0.000340082
-0.000332427
-0.000324706
-0.000316938
-0.000309158
-0.000301406
-0.000293715
-0.000286114
-0.000278622
-0.000271255
-0.000264021
-0.000256927
-0.000249975
-0.000243168
-0.000236507
-0.000229992
-0.000223624
-0.000217403
-0.000211329
-0.000205403
-0.000199625
-0.000193996
-0.000188516
-0.000183186
-0.000178004
-0.000172971
-0.000168085
-0.000163345
-0.00015875
-0.000154298
-0.000149987
-0.000145817
-0.000141784
-0.000137887
-0.000134121
-0.000130486
-0.000126975
-0.000123588
-0.000120318
-0.000117165
-0.000114122
-0.000111187
-0.000108353
-0.000105618
-0.000102973
-0.000100417
-9.79379e-05
-9.55393e-05
-9.32021e-05
-9.09348e-05
-8.87131e-05
-8.65484e-05
-8.44113e-05
-8.23168e-05
-8.02278e-05
-7.81682e-05
-7.60874e-05
-7.40231e-05
-7.19046e-05
-6.97901e-05
-6.75827e-05
-6.53606e-05
-6.30051e-05
-6.06188e-05
-5.80437e-05
-5.54266e-05
-5.25523e-05
-4.96228e-05
-4.6352e-05
-4.30131e-05
-3.92414e-05
-3.53988e-05
-3.09861e-05
-2.65062e-05
-2.1281e-05
-1.60167e-05
-9.81133e-06
-3.70653e-06
0.00140544
0.00132735
0.00115214
0.000886573
0.000583885
0.000299177
6.03506e-05
-0.000126772
-0.000264326
-0.000355672
-0.000406124
-0.000424823
-0.000423308
-0.000412051
-0.000398106
-0.000385027
-0.000373966
-0.000364829
-0.000357061
-0.000350075
-0.00034342
-0.000336814
-0.000330117
-0.000323276
-0.000316292
-0.000309194
-0.000302021
-0.000294816
-0.000287617
-0.000280458
-0.000273363
-0.000266353
-0.00025944
-0.000252636
-0.000245948
-0.000239381
-0.000232939
-0.000226626
-0.000220444
-0.000214394
-0.000208479
-0.000202701
-0.00019706
-0.000191559
-0.000186198
-0.000180979
-0.000175902
-0.000170967
-0.000166172
-0.000161519
-0.000157005
-0.00015263
-0.000148392
-0.000144289
-0.00014032
-0.000136484
-0.000132776
-0.000129195
-0.000125735
-0.000122397
-0.000119174
-0.000116064
-0.000113063
-0.000110168
-0.000107372
-0.000104673
-0.000102062
-9.95394e-05
-9.7092e-05
-9.4724e-05
-9.24155e-05
-9.01767e-05
-8.79816e-05
-8.58435e-05
-8.37314e-05
-8.16619e-05
-7.95963e-05
-7.75608e-05
-7.55016e-05
-7.34611e-05
-7.13629e-05
-6.92723e-05
-6.70844e-05
-6.48859e-05
-6.25494e-05
-6.01874e-05
-5.76302e-05
-5.50395e-05
-5.21825e-05
-4.92815e-05
-4.6028e-05
-4.2719e-05
-3.8966e-05
-3.51576e-05
-3.07661e-05
-2.63235e-05
-2.11274e-05
-1.59026e-05
-9.76421e-06
-3.71922e-06
0.00126596
0.00119241
0.00104776
0.000832388
0.00057794
0.000327293
0.000109737
-6.43405e-05
-0.000195211
-0.000286398
-0.000342633
-0.000370638
-0.00037897
-0.000376161
-0.000368731
-0.000360482
-0.000352994
-0.000346528
-0.000340791
-0.000335385
-0.000330001
-0.000324462
-0.000318691
-0.00031268
-0.000306453
-0.000300048
-0.000293512
-0.000286889
-0.000280221
-0.000273544
-0.000266889
-0.000260278
-0.00025373
-0.000247259
-0.000240876
-0.00023459
-0.000228407
-0.000222334
-0.000216373
-0.00021053
-0.000204807
-0.000199208
-0.000193736
-0.000188392
-0.000183179
-0.000178099
-0.000173151
-0.000168339
-0.00016366
-0.000159116
-0.000154705
-0.000150426
-0.00014628
-0.000142263
-0.000138377
-0.000134618
-0.000130983
-0.000127472
-0.000124079
-0.000120803
-0.000117639
-0.000114586
-0.000111639
-0.000108794
-0.000106047
-0.000103394
-0.000100829
-9.8348e-05
-9.5941e-05
-9.36119e-05
-9.13404e-05
-8.91377e-05
-8.69767e-05
-8.48721e-05
-8.27919e-05
-8.0754e-05
-7.87182e-05
-7.67131e-05
-7.46817e-05
-7.26713e-05
-7.05994e-05
-6.85388e-05
-6.63764e-05
-6.42078e-05
-6.18967e-05
-5.95656e-05
-5.70334e-05
-5.44761e-05
-5.16448e-05
-4.87797e-05
-4.55541e-05
-4.22825e-05
-3.85622e-05
-3.47957e-05
-3.04449e-05
-2.60477e-05
-2.09084e-05
-1.57346e-05
-9.69754e-06
-3.726e-06
0.00114429
0.00107494
0.00095195
0.000775094
0.000562935
0.000345838
0.000149999
-1.1315e-05
-0.00013557
-0.000225326
-0.00028487
-0.000319558
-0.00033583
-0.000340423
-0.000339011
-0.00033534
-0.000331275
-0.000327398
-0.000323661
-0.00031984
-0.000315749
-0.000311297
-0.00030647
-0.000301298
-0.000295831
-0.000290123
-0.000284224
-0.000278186
-0.000272051
-0.000265862
-0.00025965
-0.000253445
-0.000247268
-0.000241138
-0.000235068
-0.000229073
-0.000223158
-0.000217334
-0.000211606
-0.000205982
-0.000200463
-0.000195057
-0.000189765
-0.000184592
-0.00017954
-0.000174612
-0.000169808
-0.000165132
-0.000160583
-0.000156161
-0.000151866
-0.000147698
-0.000143656
-0.000139739
-0.000135947
-0.000132277
-0.000128728
-0.000125298
-0.000121982
-0.00011878
-0.000115686
-0.000112699
-0.000109815
-0.000107031
-0.000104342
-0.000101744
-9.92308e-05
-9.68004e-05
-9.44413e-05
-9.21586e-05
-8.99307e-05
-8.77711e-05
-8.56504e-05
-8.3586e-05
-8.15433e-05
-7.95434e-05
-7.75429e-05
-7.55741e-05
-7.35757e-05
-7.16013e-05
-6.95613e-05
-6.75363e-05
-6.54053e-05
-6.32729e-05
-6.09936e-05
-5.86994e-05
-5.62001e-05
-5.36827e-05
-5.08869e-05
-4.8064e-05
-4.48793e-05
-4.16518e-05
-3.79815e-05
-3.42638e-05
-2.99774e-05
-2.56343e-05
-2.05832e-05
-1.54746e-05
-9.57365e-06
-3.69117e-06
0.00103717
0.00097233
0.000866171
0.000718935
0.000541912
0.000355759
0.00018166
3.34342e-05
-8.39926e-05
-0.000171555
-0.000232761
-0.000272074
-0.000294528
-0.000305389
-0.000309384
-0.000309971
-0.000309144
-0.000307744
-0.000305954
-0.000303711
-0.000300932
-0.000297597
-0.000293739
-0.000289426
-0.000284732
-0.000279725
-0.000274467
-0.000269014
-0.000263413
-0.00025771
-0.000251942
-0.000246143
-0.000240336
-0.000234547
-0.000228792
-0.000223086
-0.00021744
-0.000211868
-0.000206374
-0.000200968
-0.000195656
-0.000190444
-0.000185335
-0.000180336
-0.000175447
-0.000170675
-0.000166018
-0.000161483
-0.000157066
-0.000152771
-0.000148597
-0.000144544
-0.000140611
-0.000136799
-0.000133107
-0.000129532
-0.000126074
-0.00012273
-0.000119497
-0.000116374
-0.000113355
-0.00011044
-0.000107624
-0.000104906
-0.000102279
-9.97416e-05
-9.72853e-05
-9.49105e-05
-9.26033e-05
-9.03717e-05
-8.81915e-05
-8.60795e-05
-8.40028e-05
-8.1983e-05
-7.99813e-05
-7.80237e-05
-7.6062e-05
-7.41337e-05
-7.21718e-05
-7.0238e-05
-6.82337e-05
-6.62485e-05
-6.41536e-05
-6.20618e-05
-5.98202e-05
-5.75669e-05
-5.51086e-05
-5.26351e-05
-4.98855e-05
-4.71089e-05
-4.39794e-05
-4.08003e-05
-3.71985e-05
-3.35355e-05
-2.93375e-05
-2.50583e-05
-2.01256e-05
-1.50988e-05
-9.36551e-06
-3.58913e-06
0.000942395
0.000882304
0.000789898
0.000665712
0.000517167
0.000358243
0.000205081
7.03138e-05
-3.97914e-05
-0.000124494
-0.000186191
-0.000228538
-0.000255606
-0.000271556
-0.000280231
-0.000284673
-0.000286856
-0.000287797
-0.000287877
-0.000287178
-0.000285709
-0.000283504
-0.000280633
-0.000277194
-0.000273281
-0.00026898
-0.000264365
-0.000259497
-0.000254431
-0.000249216
-0.000243893
-0.000238501
-0.000233067
-0.000227621
-0.000222181
-0.000216767
-0.000211393
-0.000206072
-0.000200814
-0.00019563
-0.000190525
-0.000185508
-0.000180584
-0.000175759
-0.000171036
-0.00016642
-0.000161912
-0.000157518
-0.000153236
-0.000149069
-0.000145017
-0.000141081
-0.000137259
-0.000133553
-0.000129961
-0.000126484
-0.000123117
-0.000119862
-0.000116712
-0.00011367
-0.000110728
-0.000107888
-0.000105141
-0.000102491
-9.9928e-05
-9.74526e-05
-9.50543e-05
-9.27372e-05
-9.04832e-05
-8.83047e-05
-8.61734e-05
-8.41111e-05
-8.20794e-05
-8.01061e-05
-7.81464e-05
-7.62333e-05
-7.43119e-05
-7.2426e-05
-7.05025e-05
-6.86108e-05
-6.66452e-05
-6.47008e-05
-6.2646e-05
-6.05964e-05
-5.83977e-05
-5.61867e-05
-5.37766e-05
-5.13482e-05
-4.86546e-05
-4.59262e-05
-4.28649e-05
-3.97376e-05
-3.62199e-05
-3.26174e-05
-2.85281e-05
-2.43243e-05
-1.95348e-05
-1.46078e-05
-9.06793e-06
-3.41966e-06
0.00085813
0.000802792
0.000721863
0.00061598
0.000490391
0.000354743
0.000220979
9.97175e-05
-2.49583e-06
-8.36347e-05
-0.000144886
-0.000189034
-0.000219386
-0.000239292
-0.000251863
-0.000259689
-0.000264614
-0.000267738
-0.00026959
-0.000270378
-0.00027019
-0.000269105
-0.000267222
-0.00026466
-0.00026153
-0.000257936
-0.000253961
-0.000249679
-0.000245147
-0.000240421
-0.000235546
-0.000230563
-0.000225506
-0.000220406
-0.000215286
-0.000210169
-0.000205069
-0.000200006
-0.000194987
-0.000190027
-0.000185133
-0.000180316
-0.000175579
-0.000170932
-0.000166376
-0.00016192
-0.000157563
-0.000153313
-0.000149167
-0.000145131
-0.000141202
-0.000137385
-0.000133675
-0.000130078
-0.000126588
-0.000123209
-0.000119935
-0.00011677
-0.000113705
-0.000110746
-0.000107881
-0.000105116
-0.00010244
-9.98589e-05
-9.73598e-05
-9.49476e-05
-9.26076e-05
-9.03491e-05
-8.81485e-05
-8.60239e-05
-8.39418e-05
-8.19297e-05
-7.99435e-05
-7.80171e-05
-7.61e-05
-7.42315e-05
-7.23513e-05
-7.05078e-05
-6.86242e-05
-6.67744e-05
-6.48498e-05
-6.29454e-05
-6.09343e-05
-5.89264e-05
-5.67751e-05
-5.46058e-05
-5.22502e-05
-4.98668e-05
-4.72368e-05
-4.45574e-05
-4.15745e-05
-3.85027e-05
-3.50802e-05
-3.15448e-05
-2.75781e-05
-2.34625e-05
-1.88341e-05
-1.4026e-05
-8.69811e-06
-3.20661e-06
0.000782756
0.000732017
0.000660791
0.000569748
0.000462779
0.000346747
0.000230412
0.000122254
2.83595e-05
-4.85173e-05
-0.000108496
-0.000153456
-0.000186001
-0.000208849
-0.000224537
-0.000235236
-0.0002426
-0.000247726
-0.000251231
-0.000253426
-0.000254466
-0.000254469
-0.000253557
-0.000251861
-0.000249508
-0.000246615
-0.000243277
-0.000239575
-0.000235576
-0.00023134
-0.000226913
-0.000222344
-0.000217666
-0.000212917
-0.000208121
-0.000203305
-0.000198486
-0.000193684
-0.00018891
-0.00018418
-0.000179502
-0.000174888
-0.000170343
-0.000165878
-0.000161494
-0.000157202
-0.000153
-0.000148897
-0.000144891
-0.000140989
-0.000137187
-0.000133492
-0.000129898
-0.000126412
-0.000123027
-0.000119749
-0.000116571
-0.000113498
-0.00011052
-0.000107645
-0.000104859
-0.000102172
-9.95682e-05
-9.70575e-05
-9.46238e-05
-9.22763e-05
-8.99959e-05
-8.77968e-05
-8.5651e-05
-8.35808e-05
-8.15493e-05
-7.95877e-05
-7.76484e-05
-7.5769e-05
-7.38958e-05
-7.20717e-05
-7.02344e-05
-6.84326e-05
-6.65915e-05
-6.47827e-05
-6.29019e-05
-6.10362e-05
-5.90724e-05
-5.71056e-05
-5.50055e-05
-5.28778e-05
-5.05818e-05
-4.82437e-05
-4.56826e-05
-4.30542e-05
-4.01564e-05
-3.71458e-05
-3.38252e-05
-3.03648e-05
-2.65288e-05
-2.25145e-05
-1.80583e-05
-1.3389e-05
-8.28509e-06
-2.98193e-06
0.000714904
0.000668528
0.000605605
0.000526813
0.00043512
0.000335549
0.000234549
0.000138707
5.32833e-05
-1.87378e-05
-7.66975e-05
-0.000121637
-0.00015548
-0.000180401
-0.000198481
-0.000211532
-0.000220999
-0.000227916
-0.000232936
-0.000236436
-0.000238629
-0.000239669
-0.00023969
-0.000238837
-0.000237245
-0.000235041
-0.00023233
-0.000229204
-0.000225732
-0.000221982
-0.000218004
-0.000213848
-0.000209553
-0.000205158
-0.00020069
-0.000196179
-0.000191645
-0.000187109
-0.000182584
-0.000178089
-0.000173632
-0.000169227
-0.000164879
-0.000160601
-0.000156395
-0.000152271
-0.000148229
-0.000144279
-0.000140418
-0.000136654
-0.000132983
-0.000129414
-0.00012594
-0.000122568
-0.000119293
-0.00011612
-0.000113041
-0.000110063
-0.000107176
-0.000104388
-0.000101684
-9.90765e-05
-9.65481e-05
-9.41102e-05
-9.17448e-05
-8.94639e-05
-8.72458e-05
-8.51079e-05
-8.30192e-05
-8.10047e-05
-7.90266e-05
-7.71163e-05
-7.52264e-05
-7.33946e-05
-7.15683e-05
-6.97889e-05
-6.79973e-05
-6.62372e-05
-6.44419e-05
-6.26741e-05
-6.08405e-05
-5.90135e-05
-5.71005e-05
-5.51754e-05
-5.31299e-05
-5.10455e-05
-4.88129e-05
-4.65228e-05
-4.40342e-05
-4.14606e-05
-3.86515e-05
-3.57096e-05
-3.24953e-05
-2.91196e-05
-2.54185e-05
-2.15183e-05
-1.72401e-05
-1.27292e-05
-7.85629e-06
-2.76949e-06
0.000653446
0.000611166
0.000555429
0.000486899
0.000407889
0.000322152
0.00023448
0.000149924
7.28328e-05
6.07673e-06
-4.92201e-05
-9.34174e-05
-0.000127807
-0.000154066
-0.000173888
-0.000188784
-0.000199996
-0.000208466
-0.000214838
-0.000219524
-0.000222779
-0.000224782
-0.000225685
-0.000225637
-0.000224779
-0.000223245
-0.000221147
-0.000218583
-0.000215631
-0.00021236
-0.000208827
-0.000205083
-0.00020117
-0.00019713
-0.000192993
-0.00018879
-0.000184544
-0.000180278
-0.000176008
-0.000171752
-0.000167521
-0.00016333
-0.000159185
-0.000155098
-0.000151074
-0.000147124
-0.000143247
-0.000139454
-0.000135743
-0.000132122
-0.000128588
-0.000125149
-0.0001218
-0.000118547
-0.000115385
-0.000112321
-0.000109346
-0.000106468
-0.000103675
-0.000100978
-9.83606e-05
-9.58358e-05
-9.33864e-05
-9.10244e-05
-8.87311e-05
-8.65191e-05
-8.43672e-05
-8.22927e-05
-8.02648e-05
-7.83078e-05
-7.63867e-05
-7.45295e-05
-7.26926e-05
-7.09097e-05
-6.91338e-05
-6.74006e-05
-6.56583e-05
-6.39411e-05
-6.21952e-05
-6.04701e-05
-5.8687e-05
-5.69006e-05
-5.50417e-05
-5.31611e-05
-5.11729e-05
-4.91352e-05
-4.69693e-05
-4.47318e-05
-4.23186e-05
-3.98058e-05
-3.70877e-05
-3.42233e-05
-3.11182e-05
-2.78379e-05
-2.42743e-05
-2.05008e-05
-1.64032e-05
-1.2068e-05
-7.42957e-06
-2.57899e-06
0.000597457
0.000559004
0.000509545
0.000449716
0.000381344
0.000307282
0.000231124
0.000156729
8.76002e-05
2.63081e-05
-2.58186e-05
-6.86516e-05
-0.000102943
-0.000129912
-0.000150903
-0.000167166
-0.000179763
-0.000189527
-0.000197068
-0.000202802
-0.00020701
-0.000209891
-0.000211609
-0.000212315
-0.000212154
-0.000211261
-0.000209754
-0.000207736
-0.000205289
-0.000202489
-0.000199392
-0.000196056
-0.000192522
-0.000188836
-0.00018503
-0.000181137
-0.000177182
-0.000173189
-0.000169177
-0.000165164
-0.000161164
-0.00015719
-0.000153252
-0.000149363
-0.000145527
-0.000141754
-0.000138048
-0.000134417
-0.000130861
-0.000127388
-0.000123996
-0.000120692
-0.000117472
-0.000114344
-0.000111301
-0.00010835
-0.000105483
-0.000102708
-0.000100015
-9.74125e-05
-9.48862e-05
-9.24481e-05
-9.0082e-05
-8.77993e-05
-8.55822e-05
-8.34425e-05
-8.13607e-05
-7.93525e-05
-7.73896e-05
-7.54928e-05
-7.36324e-05
-7.18309e-05
-7.00511e-05
-6.83194e-05
-6.65977e-05
-6.49132e-05
-6.32238e-05
-6.15521e-05
-5.98591e-05
-5.81796e-05
-5.64501e-05
-5.47082e-05
-5.29064e-05
-5.10743e-05
-4.91462e-05
-4.71604e-05
-4.5064e-05
-4.28851e-05
-4.05498e-05
-3.81055e-05
-3.54806e-05
-3.27024e-05
-2.97093e-05
-2.65353e-05
-2.31118e-05
-1.94771e-05
-1.55616e-05
-1.14157e-05
-7.01271e-06
-2.40936e-06
0.000546176
0.000511286
0.000467351
0.00041497
0.000355605
0.000291447
0.000225219
0.000159871
9.81851e-05
4.23649e-05
-6.23892e-06
-4.71936e-05
-8.08293e-05
-0.000107965
-0.000129622
-0.000146817
-0.000160445
-0.000171236
-0.000179743
-0.000186374
-0.000191414
-0.000195075
-0.000197529
-0.000198928
-0.000199416
-0.000199127
-0.000198182
-0.000196687
-0.000194728
-0.000192382
-0.000189712
-0.000186774
-0.000183615
-0.00018028
-0.000176803
-0.00017322
-0.000169556
-0.000165838
-0.000162086
-0.00015832
-0.000154554
-0.000150802
-0.000147076
-0.000143388
-0.000139744
-0.000136155
-0.000132624
-0.000129161
-0.000125765
-0.000122446
-0.0001192
-0.000116037
-0.000112952
-0.000109952
-0.000107032
-0.000104199
-0.000101446
-9.87793e-05
-9.61901e-05
-9.36868e-05
-9.1256e-05
-8.89088e-05
-8.66304e-05
-8.44307e-05
-8.22944e-05
-8.02307e-05
-7.82232e-05
-7.62846e-05
-7.43907e-05
-7.25578e-05
-7.0762e-05
-6.90192e-05
-6.73003e-05
-6.56235e-05
-6.39594e-05
-6.23271e-05
-6.0694e-05
-5.90717e-05
-5.74349e-05
-5.58052e-05
-5.41321e-05
-5.24395e-05
-5.06979e-05
-4.89194e-05
-4.7054e-05
-4.51263e-05
-4.3102e-05
-4.09887e-05
-3.8734e-05
-3.63664e-05
-3.38374e-05
-3.11541e-05
-2.82761e-05
-2.52188e-05
-2.19387e-05
-1.84536e-05
-1.47221e-05
-1.07753e-05
-6.60707e-06
-2.25525e-06
0.000498963
0.000467379
0.000428333
0.000382379
0.000330698
0.000274991
0.000217336
0.000159996
0.000105163
5.46744e-05
9.79585e-06
-2.88823e-05
-6.13907e-05
-8.82176e-05
-0.000110098
-0.000127831
-0.000142158
-0.000153706
-0.000162973
-0.000170337
-0.000176078
-0.000180413
-0.000183513
-0.000185533
-0.000186612
-0.000186883
-0.000186464
-0.000185463
-0.000183968
-0.000182059
-0.0001798
-0.00017725
-0.000174456
-0.000171465
-0.000168314
-0.000165038
-0.000161665
-0.000158224
-0.000154733
-0.000151216
-0.000147686
-0.000144161
-0.00014065
-0.000137168
-0.000133721
-0.00013032
-0.000126969
-0.000123678
-0.000120448
-0.000117286
-0.000114193
-0.000111176
-0.00010823
-0.000105365
-0.000102573
-9.98633e-05
-9.72283e-05
-9.46745e-05
-9.21943e-05
-8.97946e-05
-8.7464e-05
-8.52121e-05
-8.30261e-05
-8.09136e-05
-7.88623e-05
-7.68786e-05
-7.49501e-05
-7.30849e-05
-7.12638e-05
-6.94989e-05
-6.77718e-05
-6.60915e-05
-6.44368e-05
-6.28192e-05
-6.12165e-05
-5.96404e-05
-5.80664e-05
-5.64984e-05
-5.49212e-05
-5.33458e-05
-5.17317e-05
-5.00942e-05
-4.84161e-05
-4.66965e-05
-4.48968e-05
-4.30337e-05
-4.10849e-05
-3.90438e-05
-3.68731e-05
-3.45903e-05
-3.2161e-05
-2.95806e-05
-2.68218e-05
-2.38904e-05
-2.07581e-05
-1.74317e-05
-1.3887e-05
-1.01458e-05
-6.21119e-06
-2.11138e-06
0.000455277
0.000426752
0.000392049
0.000351678
0.0003066
0.000258145
0.000207911
0.000157641
0.000109055
6.36599e-05
2.25809e-05
-1.35369e-05
-4.45323e-05
-7.06407e-05
-9.23527e-05
-0.000110269
-0.000124986
-0.000137034
-0.000146849
-0.000154776
-0.000161081
-0.000165974
-0.000169626
-0.000172186
-0.000173792
-0.000174569
-0.000174634
-0.000174092
-0.000173034
-0.000171538
-0.000169672
-0.000167493
-0.000165054
-0.000162399
-0.000159567
-0.000156594
-0.00015351
-0.000150344
-0.000147115
-0.000143848
-0.000140557
-0.00013726
-0.000133968
-0.000130695
-0.000127449
-0.000124241
-0.000121075
-0.000117961
-0.000114902
-0.000111904
-0.000108968
-0.000106101
-0.0001033
-0.000100574
-9.79162e-05
-9.53344e-05
-9.28227e-05
-9.03869e-05
-8.80208e-05
-8.57295e-05
-8.35038e-05
-8.13518e-05
-7.9263e-05
-7.72423e-05
-7.52803e-05
-7.3381e-05
-7.15358e-05
-6.97486e-05
-6.80041e-05
-6.63114e-05
-6.46569e-05
-6.30438e-05
-6.14566e-05
-5.99025e-05
-5.83651e-05
-5.68501e-05
-5.53382e-05
-5.3829e-05
-5.23152e-05
-5.07993e-05
-4.92471e-05
-4.76702e-05
-4.60593e-05
-4.44041e-05
-4.26737e-05
-4.08817e-05
-3.90122e-05
-3.70499e-05
-3.49675e-05
-3.2777e-05
-3.04521e-05
-2.79821e-05
-2.53475e-05
-2.25503e-05
-1.95707e-05
-1.64109e-05
-1.30562e-05
-9.52462e-06
-5.82292e-06
-1.97403e-06
0.000414662
0.000388956
0.000358123
0.000322628
0.00028326
0.000241062
0.000197274
0.000153243
0.000110317
6.97173e-05
3.24126e-05
-9.65071e-07
-3.01473e-05
-5.51907e-05
-7.63891e-05
-9.41687e-05
-0.000108992
-0.000121295
-0.000131451
-0.000139769
-0.000146494
-0.000151824
-0.000155925
-0.00015894
-0.000160999
-0.000162224
-0.000162724
-0.000162602
-0.000161946
-0.000160837
-0.000159341
-0.000157517
-0.000155417
-0.000153087
-0.000150566
-0.000147891
-0.000145092
-0.000142198
-0.000139231
-0.000136214
-0.000133163
-0.000130096
-0.000127026
-0.000123966
-0.000120924
-0.000117912
-0.000114936
-0.000112004
-0.000109119
-0.00010629
-0.000103516
-0.000100805
-9.8155e-05
-9.55724e-05
-9.30541e-05
-9.06056e-05
-8.82225e-05
-8.59097e-05
-8.36627e-05
-8.14849e-05
-7.93692e-05
-7.73219e-05
-7.53348e-05
-7.34108e-05
-7.15428e-05
-6.97326e-05
-6.79748e-05
-6.62703e-05
-6.46067e-05
-6.29908e-05
-6.14125e-05
-5.98716e-05
-5.8356e-05
-5.68695e-05
-5.5401e-05
-5.39523e-05
-5.25061e-05
-5.10605e-05
-4.96138e-05
-4.81625e-05
-4.6676e-05
-4.51652e-05
-4.36256e-05
-4.204e-05
-4.03833e-05
-3.86685e-05
-3.6883e-05
-3.50057e-05
-3.30166e-05
-3.09256e-05
-2.87104e-05
-2.63578e-05
-2.38531e-05
-2.11976e-05
-1.83763e-05
-1.53896e-05
-1.22285e-05
-8.90946e-06
-5.44019e-06
-1.84073e-06
0.000376733
0.000353625
0.000326251
0.000295039
0.000260634
0.000223863
0.000185689
0.000147162
0.000109342
7.32085e-05
3.95773e-05
9.02844e-06
-1.81237e-05
-4.18199e-05
-6.22055e-05
-7.95613e-05
-9.42288e-05
-0.000106554
-0.00011685
-0.000125386
-0.000132383
-0.000138025
-0.000142466
-0.000145843
-0.000148277
-0.000149882
-0.000150762
-0.000151015
-0.000150725
-0.000149972
-0.00014882
-0.00014733
-0.000145552
-0.000143534
-0.000141314
-0.000138929
-0.000136409
-0.000133783
-0.000131075
-0.000128308
-0.000125498
-0.000122663
-0.000119816
-0.000116972
-0.000114138
-0.000111327
-0.000108544
-0.000105799
-0.000103094
-0.000100438
-9.78317e-05
-9.52812e-05
-9.27869e-05
-9.03537e-05
-8.79798e-05
-8.56699e-05
-8.34207e-05
-8.12362e-05
-7.91133e-05
-7.70542e-05
-7.50536e-05
-7.31162e-05
-7.12355e-05
-6.94131e-05
-6.76438e-05
-6.59278e-05
-6.42618e-05
-6.26446e-05
-6.10664e-05
-5.95324e-05
-5.80341e-05
-5.65697e-05
-5.51304e-05
-5.37166e-05
-5.23205e-05
-5.09426e-05
-4.95666e-05
-4.81897e-05
-4.68141e-05
-4.54319e-05
-4.40155e-05
-4.25767e-05
-4.11127e-05
-3.96018e-05
-3.80236e-05
-3.63926e-05
-3.46958e-05
-3.29095e-05
-3.10194e-05
-2.90349e-05
-2.69354e-05
-2.47067e-05
-2.2338e-05
-1.98312e-05
-1.7174e-05
-1.4366e-05
-1.14024e-05
-8.29831e-06
-5.06135e-06
-1.70952e-06
0.000341152
0.000320453
0.000296197
0.000268773
0.000238712
0.000206671
0.000173406
0.000139739
0.000106506
7.44938e-05
4.43748e-05
1.66606e-05
-8.32844e-06
-3.04657e-05
-4.97924e-05
-6.64742e-05
-8.07489e-05
-9.28802e-05
-0.000103123
-0.000111706
-0.000118825
-0.000124647
-0.000129315
-0.000132954
-0.000135677
-0.00013759
-0.000138788
-0.000139362
-0.000139395
-0.000138961
-0.000138124
-0.000136943
-0.000135467
-0.000133744
-0.000131812
-0.000129706
-0.000127458
-0.000125097
-0.000122645
-0.000120126
-0.000117556
-0.000114953
-0.000112332
-0.000109706
-0.000107083
-0.000104476
-0.000101891
-9.93362e-05
-9.68164e-05
-9.43385e-05
-9.19049e-05
-8.95208e-05
-8.71874e-05
-8.49092e-05
-8.2685e-05
-8.05192e-05
-7.84093e-05
-7.63587e-05
-7.43654e-05
-7.24301e-05
-7.05497e-05
-6.87278e-05
-6.69585e-05
-6.52429e-05
-6.3577e-05
-6.19605e-05
-6.03912e-05
-5.88659e-05
-5.73775e-05
-5.59308e-05
-5.45172e-05
-5.31336e-05
-5.17745e-05
-5.0439e-05
-4.91201e-05
-4.7817e-05
-4.65152e-05
-4.52129e-05
-4.39132e-05
-4.26042e-05
-4.12625e-05
-3.99019e-05
-3.85185e-05
-3.70868e-05
-3.55927e-05
-3.40517e-05
-3.24493e-05
-3.07596e-05
-2.89746e-05
-2.71035e-05
-2.51259e-05
-2.30277e-05
-2.08014e-05
-1.84498e-05
-1.59625e-05
-1.33387e-05
-1.05763e-05
-7.68961e-06
-4.68547e-06
-1.57925e-06
0.000301199
0.000283217
0.000262357
0.000238968
0.000213482
0.000186401
0.000158289
0.000129756
0.00010143
7.39094e-05
4.77226e-05
2.32975e-05
9.3662e-07
-1.9192e-05
-3.70465e-05
-5.269e-05
-6.62599e-05
-7.79351e-05
-8.79059e-05
-9.63556e-05
-0.000103449
-0.000109332
-0.000114132
-0.000117961
-0.00012092
-0.000123104
-0.000124598
-0.000125487
-0.000125844
-0.00012574
-0.000125235
-0.000124385
-0.000123239
-0.000121843
-0.000120233
-0.000118445
-0.000116508
-0.000114451
-0.000112297
-0.000110069
-0.000107782
-0.000105456
-0.000103103
-0.000100738
-9.83692e-05
-9.60081e-05
-9.36622e-05
-9.13395e-05
-8.90446e-05
-8.67845e-05
-8.4562e-05
-8.23817e-05
-8.0246e-05
-7.81584e-05
-7.6119e-05
-7.4131e-05
-7.21931e-05
-7.03084e-05
-6.84757e-05
-6.66942e-05
-6.4963e-05
-6.32847e-05
-6.16544e-05
-6.00719e-05
-5.85348e-05
-5.70427e-05
-5.55944e-05
-5.41847e-05
-5.28084e-05
-5.1471e-05
-5.01643e-05
-4.88831e-05
-4.76242e-05
-4.63871e-05
-4.51668e-05
-4.39583e-05
-4.27493e-05
-4.15419e-05
-4.03392e-05
-3.91228e-05
-3.78751e-05
-3.66144e-05
-3.53335e-05
-3.40021e-05
-3.26144e-05
-3.1188e-05
-2.97047e-05
-2.81372e-05
-2.64847e-05
-2.47563e-05
-2.29315e-05
-2.09959e-05
-1.89469e-05
-1.67874e-05
-1.4509e-05
-1.21102e-05
-9.59194e-06
-6.96694e-06
-4.24132e-06
-1.42668e-06
0.000256987
0.000241995
0.000224752
0.000205552
0.000184735
0.000162678
0.000139786
0.00011649
9.32299e-05
7.04371e-05
4.85076e-05
2.77814e-05
8.52394e-06
-9.08469e-06
-2.49519e-05
-3.90663e-05
-5.14828e-05
-6.23031e-05
-7.16536e-05
-7.96683e-05
-8.64766e-05
-9.21983e-05
-9.69408e-05
-0.000100801
-0.000103866
-0.000106216
-0.000107926
-0.000109068
-0.000109707
-0.000109905
-0.000109719
-0.000109198
-0.00010839
-0.000107336
-0.000106072
-0.000104629
-0.000103037
-0.000101322
-9.95076e-05
-9.76134e-05
-9.56561e-05
-9.36533e-05
-9.16183e-05
-8.95637e-05
-8.74992e-05
-8.54348e-05
-8.33785e-05
-8.13378e-05
-7.93176e-05
-7.73243e-05
-7.53613e-05
-7.34326e-05
-7.15412e-05
-6.969e-05
-6.78801e-05
-6.61138e-05
-6.43904e-05
-6.27133e-05
-6.10815e-05
-5.94935e-05
-5.79497e-05
-5.6452e-05
-5.49967e-05
-5.3583e-05
-5.22086e-05
-5.08742e-05
-4.95789e-05
-4.83164e-05
-4.70834e-05
-4.58849e-05
-4.47135e-05
-4.35647e-05
-4.24342e-05
-4.13221e-05
-4.02282e-05
-3.91431e-05
-3.80529e-05
-3.69671e-05
-3.58895e-05
-3.47937e-05
-3.36673e-05
-3.25355e-05
-3.13863e-05
-3.01849e-05
-2.89352e-05
-2.76564e-05
-2.63251e-05
-2.4915e-05
-2.34325e-05
-2.18865e-05
-2.02549e-05
-1.85251e-05
-1.6699e-05
-1.47797e-05
-1.27597e-05
-1.06375e-05
-8.41655e-06
-6.10778e-06
-3.71599e-06
-1.24912e-06
0.000212858
0.000200749
0.000186923
0.000171608
0.000155065
0.000137574
0.000119422
0.000100906
8.23276e-05
6.39894e-05
4.61797e-05
2.91591e-05
1.31469e-05
-1.68988e-06
-1.52423e-05
-2.74599e-05
-3.83458e-05
-4.79454e-05
-5.63328e-05
-6.35976e-05
-6.98342e-05
-7.51354e-05
-7.95874e-05
-8.32699e-05
-8.62542e-05
-8.86068e-05
-9.03897e-05
-9.16623e-05
-9.24808e-05
-9.28971e-05
-9.29594e-05
-9.27125e-05
-9.21979e-05
-9.14526e-05
-9.05089e-05
-8.93959e-05
-8.814e-05
-8.67654e-05
-8.52926e-05
-8.37404e-05
-8.21239e-05
-8.04596e-05
-7.87597e-05
-7.70357e-05
-7.52971e-05
-7.35529e-05
-7.18109e-05
-7.00777e-05
-6.83583e-05
-6.66589e-05
-6.49823e-05
-6.33326e-05
-6.17128e-05
-6.01252e-05
-5.85718e-05
-5.7054e-05
-5.55715e-05
-5.41281e-05
-5.27225e-05
-5.13532e-05
-5.00218e-05
-4.87289e-05
-4.74716e-05
-4.62499e-05
-4.50613e-05
-4.39068e-05
-4.27858e-05
-4.16915e-05
-4.06232e-05
-3.95846e-05
-3.85679e-05
-3.75705e-05
-3.65895e-05
-3.56228e-05
-3.46727e-05
-3.37297e-05