/*--------------------------------*- C++ -*----------------------------------*\
| =========                 |                                                 |
| \\      /  F ield         | OpenFOAM: The Open Source CFD Toolbox           |
|  \\    /   O peration     | Version:  2.3.0                                 |
|   \\  /    A nd           | Web:      www.OpenFOAM.org                      |
|    \\/     M anipulation  |                                                 |
\*---------------------------------------------------------------------------*/
FoamFile
{
    version     2.0;
    format      ascii;
    class       volVectorField;
    location    "0.85";
    object      U;
}
// * * * * * * * * * * * * * * * * * * * * * * * * * * * * * * * * * * * * * //

dimensions      [0 1 -1 0 0 0 0];

internalField   nonuniform List<vector> 
8750
(
(0.171304 0.0059541 0)
(0.154858 0.00602821 0)
(0.139045 0.00561179 0)
(0.124052 0.00501478 0)
(0.110293 0.0043548 0)
(0.097936 0.00368526 0)
(0.0869938 0.0030429 0)
(0.0774321 0.00245315 0)
(0.0691952 0.00193149 0)
(0.0621983 0.00148576 0)
(0.0563281 0.00111764 0)
(0.0514517 0.000823667 0)
(0.0474286 0.000596472 0)
(0.0441199 0.000426348 0)
(0.0413956 0.000302788 0)
(0.03914 0.000215676 0)
(0.0372543 0.000156033 0)
(0.0356568 0.000116361 0)
(0.0342829 9.06983e-05 0)
(0.033082 7.45008e-05 0)
(0.032016 6.44421e-05 0)
(0.0310567 5.81862e-05 0)
(0.0301831 5.41633e-05 0)
(0.0293798 5.13691e-05 0)
(0.0286357 4.91962e-05 0)
(0.0279423 4.73022e-05 0)
(0.0272932 4.55123e-05 0)
(0.0266835 4.37508e-05 0)
(0.0261089 4.19968e-05 0)
(0.0255663 4.02553e-05 0)
(0.0250526 3.85417e-05 0)
(0.0245654 3.68725e-05 0)
(0.0241025 3.52617e-05 0)
(0.0236618 3.37192e-05 0)
(0.0232418 3.22508e-05 0)
(0.0228406 3.0859e-05 0)
(0.022457 2.95436e-05 0)
(0.0220897 2.83029e-05 0)
(0.0217374 2.71336e-05 0)
(0.0213991 2.6032e-05 0)
(0.021074 2.49942e-05 0)
(0.020761 2.40159e-05 0)
(0.0204594 2.30932e-05 0)
(0.0201685 2.22221e-05 0)
(0.0198877 2.13991e-05 0)
(0.0196163 2.06206e-05 0)
(0.0193538 1.98837e-05 0)
(0.0190997 1.91854e-05 0)
(0.0188535 1.8523e-05 0)
(0.0186148 1.78942e-05 0)
(0.0183832 1.72965e-05 0)
(0.0181583 1.67281e-05 0)
(0.0179399 1.6187e-05 0)
(0.0177275 1.56715e-05 0)
(0.0175209 1.51799e-05 0)
(0.0173197 1.47107e-05 0)
(0.0171239 1.42628e-05 0)
(0.0169331 1.38346e-05 0)
(0.016747 1.34252e-05 0)
(0.0165656 1.30334e-05 0)
(0.0163885 1.26582e-05 0)
(0.0162156 1.22988e-05 0)
(0.0160467 1.19542e-05 0)
(0.0158817 1.16237e-05 0)
(0.0157204 1.13064e-05 0)
(0.0155627 1.10019e-05 0)
(0.0154083 1.07093e-05 0)
(0.0152573 1.04282e-05 0)
(0.0151094 1.01579e-05 0)
(0.0149645 9.89802e-06 0)
(0.0148226 9.64802e-06 0)
(0.0146835 9.40744e-06 0)
(0.0145472 9.1759e-06 0)
(0.0144134 8.95305e-06 0)
(0.0142822 8.73852e-06 0)
(0.0141534 8.53196e-06 0)
(0.014027 8.33311e-06 0)
(0.0139029 8.14171e-06 0)
(0.0137809 7.95749e-06 0)
(0.013661 7.78024e-06 0)
(0.0135432 7.60977e-06 0)
(0.0134274 7.44591e-06 0)
(0.0133134 7.2885e-06 0)
(0.0132013 7.13743e-06 0)
(0.0130909 6.99265e-06 0)
(0.0129822 6.85407e-06 0)
(0.0128752 6.72168e-06 0)
(0.0127696 6.59554e-06 0)
(0.0126656 6.47581e-06 0)
(0.0125629 6.36268e-06 0)
(0.0124616 6.25661e-06 0)
(0.0123616 6.15837e-06 0)
(0.0122626 6.06935e-06 0)
(0.0121647 5.99225e-06 0)
(0.0120677 5.93273e-06 0)
(0.0119713 5.90362e-06 0)
(0.011875 5.94273e-06 0)
(0.0117767 6.11207e-06 0)
(0.0116954 5.19178e-06 0)
(0.0114242 3.77573e-05 0)
(0.190147 0.00939862 0)
(0.187818 0.00990688 0)
(0.183876 0.00968224 0)
(0.178683 0.00918468 0)
(0.172741 0.00855254 0)
(0.166402 0.00783198 0)
(0.15989 0.0070609 0)
(0.153373 0.00627416 0)
(0.146984 0.00550094 0)
(0.140826 0.00476518 0)
(0.134966 0.0040856 0)
(0.129444 0.00347511 0)
(0.124279 0.00294051 0)
(0.119474 0.00248303 0)
(0.11502 0.00209927 0)
(0.110901 0.00178261 0)
(0.107097 0.00152452 0)
(0.103584 0.00131583 0)
(0.100337 0.0011476 0)
(0.0973322 0.00101175 0)
(0.0945467 0.000901352 0)
(0.0919588 0.000810741 0)
(0.0895489 0.000735427 0)
(0.0872992 0.000671949 0)
(0.0851938 0.000617693 0)
(0.0832186 0.000570708 0)
(0.081361 0.000529545 0)
(0.0796101 0.000493129 0)
(0.0779559 0.000460651 0)
(0.07639 0.000431496 0)
(0.0749046 0.000405182 0)
(0.0734931 0.000381328 0)
(0.0721492 0.000359623 0)
(0.0708678 0.000339808 0)
(0.0696438 0.000321664 0)
(0.0684731 0.000305004 0)
(0.0673518 0.000289667 0)
(0.0662762 0.000275511 0)
(0.0652434 0.000262416 0)
(0.0642503 0.000250272 0)
(0.0632945 0.000238987 0)
(0.0623735 0.000228477 0)
(0.0614851 0.00021867 0)
(0.0606274 0.000209502 0)
(0.0597986 0.000200914 0)
(0.058997 0.000192858 0)
(0.058221 0.000185287 0)
(0.0574693 0.000178162 0)
(0.0567406 0.000171446 0)
(0.0560336 0.000165108 0)
(0.0553472 0.000159119 0)
(0.0546804 0.000153452 0)
(0.0540323 0.000148083 0)
(0.0534018 0.000142992 0)
(0.0527883 0.000138158 0)
(0.0521908 0.000133564 0)
(0.0516088 0.000129195 0)
(0.0510414 0.000125034 0)
(0.050488 0.000121069 0)
(0.0499481 0.000117287 0)
(0.0494211 0.000113677 0)
(0.0489065 0.000110228 0)
(0.0484036 0.00010693 0)
(0.0479122 0.000103775 0)
(0.0474316 0.000100754 0)
(0.0469616 9.78606e-05 0)
(0.0465016 9.50866e-05 0)
(0.0460514 9.24257e-05 0)
(0.0456105 8.98721e-05 0)
(0.0451787 8.742e-05 0)
(0.0447555 8.50644e-05 0)
(0.0443408 8.28002e-05 0)
(0.0439341 8.06232e-05 0)
(0.0435353 7.85292e-05 0)
(0.043144 7.65142e-05 0)
(0.04276 7.45748e-05 0)
(0.042383 7.27076e-05 0)
(0.0420129 7.09096e-05 0)
(0.0416493 6.9178e-05 0)
(0.0412921 6.75102e-05 0)
(0.040941 6.5904e-05 0)
(0.0405959 6.43572e-05 0)
(0.0402566 6.28677e-05 0)
(0.0399228 6.14342e-05 0)
(0.0395944 6.0055e-05 0)
(0.0392711 5.87291e-05 0)
(0.0389528 5.74555e-05 0)
(0.0386394 5.62337e-05 0)
(0.0383305 5.50639e-05 0)
(0.0380261 5.39465e-05 0)
(0.0377259 5.28833e-05 0)
(0.0374297 5.1878e-05 0)
(0.0371373 5.09376e-05 0)
(0.0368484 5.00764e-05 0)
(0.0365626 4.93258e-05 0)
(0.0362794 4.87619e-05 0)
(0.0359976 4.85926e-05 0)
(0.0357132 4.9344e-05 0)
(0.0354495 5.43728e-05 0)
(0.0349015 0.00013069 0)
(0.193133 0.00903268 0)
(0.193916 0.0099877 0)
(0.194034 0.0103177 0)
(0.19334 0.0103195 0)
(0.191953 0.0100935 0)
(0.189996 0.00967786 0)
(0.187563 0.00911764 0)
(0.184745 0.00846244 0)
(0.181635 0.00775751 0)
(0.178324 0.00704112 0)
(0.174889 0.00634403 0)
(0.171395 0.00568887 0)
(0.167894 0.00509009 0)
(0.164425 0.00455473 0)
(0.161017 0.00408387 0)
(0.157689 0.00367431 0)
(0.154455 0.00332029 0)
(0.151322 0.00301485 0)
(0.148293 0.00275086 0)
(0.14537 0.0025217 0)
(0.14255 0.00232156 0)
(0.139832 0.00214555 0)
(0.137213 0.00198967 0)
(0.134689 0.00185071 0)
(0.132258 0.00172608 0)
(0.129915 0.00161375 0)
(0.127657 0.00151204 0)
(0.125481 0.00141962 0)
(0.123383 0.00133536 0)
(0.12136 0.00125835 0)
(0.119408 0.00118778 0)
(0.117524 0.00112298 0)
(0.115704 0.00106334 0)
(0.113947 0.00100835 0)
(0.112249 0.000957551 0)
(0.110607 0.000910533 0)
(0.109019 0.000866935 0)
(0.107482 0.000826437 0)
(0.105993 0.000788751 0)
(0.104551 0.000753623 0)
(0.103152 0.000720824 0)
(0.101796 0.000690149 0)
(0.10048 0.000661418 0)
(0.0992023 0.000634465 0)
(0.0979609 0.000609143 0)
(0.0967543 0.00058532 0)
(0.095581 0.000562878 0)
(0.0944395 0.000541708 0)
(0.0933283 0.000521714 0)
(0.0922462 0.000502808 0)
(0.0911919 0.000484909 0)
(0.0901642 0.000467946 0)
(0.0891621 0.000451852 0)
(0.0881845 0.000436567 0)
(0.0872303 0.000422036 0)
(0.0862987 0.00040821 0)
(0.0853888 0.000395041 0)
(0.0844997 0.000382488 0)
(0.0836306 0.000370512 0)
(0.0827808 0.000359077 0)
(0.0819495 0.00034815 0)
(0.0811361 0.000337701 0)
(0.0803399 0.000327701 0)
(0.0795604 0.000318125 0)
(0.0787969 0.000308949 0)
(0.0780488 0.00030015 0)
(0.0773157 0.000291708 0)
(0.0765971 0.000283604 0)
(0.0758924 0.000275819 0)
(0.0752012 0.000268338 0)
(0.074523 0.000261144 0)
(0.0738575 0.000254224 0)
(0.0732043 0.000247564 0)
(0.0725628 0.000241152 0)
(0.0719329 0.000234976 0)
(0.0713141 0.000229025 0)
(0.0707061 0.000223291 0)
(0.0701086 0.000217762 0)
(0.0695212 0.000212432 0)
(0.0689436 0.000207291 0)
(0.0683756 0.000202333 0)
(0.0678169 0.000197552 0)
(0.0672671 0.00019294 0)
(0.066726 0.000188494 0)
(0.0661934 0.000184208 0)
(0.0656689 0.000180078 0)
(0.0651524 0.000176102 0)
(0.0646435 0.000172276 0)
(0.0641419 0.000168601 0)
(0.0636475 0.000165076 0)
(0.06316 0.000161705 0)
(0.062679 0.000158496 0)
(0.0622043 0.000155465 0)
(0.0617354 0.000152645 0)
(0.0612718 0.000150111 0)
(0.0608129 0.000148047 0)
(0.0603573 0.000146955 0)
(0.0599007 0.000148381 0)
(0.0594585 0.000164162 0)
(0.0587479 0.000259855 0)
(0.194158 0.00839528 0)
(0.195325 0.00944952 0)
(0.196376 0.0100038 0)
(0.197094 0.0102429 0)
(0.197457 0.01025 0)
(0.197475 0.0100574 0)
(0.197145 0.00970088 0)
(0.196476 0.00922345 0)
(0.195494 0.00866701 0)
(0.194238 0.00806892 0)
(0.192753 0.0074609 0)
(0.191083 0.00686813 0)
(0.189269 0.00630861 0)
(0.187349 0.0057934 0)
(0.185354 0.00532762 0)
(0.183311 0.00491183 0)
(0.181238 0.00454344 0)
(0.179153 0.00421804 0)
(0.177065 0.00393043 0)
(0.174983 0.00367533 0)
(0.172913 0.00344783 0)
(0.17086 0.00324361 0)
(0.168826 0.00305903 0)
(0.166815 0.0028911 0)
(0.164829 0.00273738 0)
(0.162868 0.00259595 0)
(0.160934 0.00246526 0)
(0.159029 0.00234405 0)
(0.157153 0.00223132 0)
(0.155307 0.00212622 0)
(0.153492 0.00202805 0)
(0.151707 0.0019362 0)
(0.149954 0.00185015 0)
(0.148233 0.00176943 0)
(0.146542 0.00169363 0)
(0.144884 0.00162237 0)
(0.143256 0.00155531 0)
(0.141659 0.00149214 0)
(0.140093 0.00143258 0)
(0.138557 0.00137637 0)
(0.137051 0.00132328 0)
(0.135574 0.00127308 0)
(0.134126 0.00122557 0)
(0.132707 0.00118057 0)
(0.131315 0.00113792 0)
(0.12995 0.00109745 0)
(0.128611 0.00105903 0)
(0.127299 0.00102251 0)
(0.126012 0.000987782 0)
(0.124749 0.000954726 0)
(0.123511 0.000923238 0)
(0.122296 0.000893223 0)
(0.121104 0.000864589 0)
(0.119935 0.000837255 0)
(0.118787 0.000811142 0)
(0.11766 0.00078618 0)
(0.116554 0.000762301 0)
(0.115468 0.000739445 0)
(0.114402 0.000717552 0)
(0.113355 0.000696571 0)
(0.112326 0.00067645 0)
(0.111315 0.000657143 0)
(0.110322 0.000638607 0)
(0.109346 0.000620802 0)
(0.108387 0.000603689 0)
(0.107444 0.000587232 0)
(0.106517 0.0005714 0)
(0.105606 0.000556161 0)
(0.104709 0.000541485 0)
(0.103827 0.000527347 0)
(0.10296 0.00051372 0)
(0.102106 0.00050058 0)
(0.101266 0.000487906 0)
(0.100439 0.000475677 0)
(0.0996249 0.000463873 0)
(0.0988235 0.000452476 0)
(0.0980345 0.000441469 0)
(0.0972574 0.000430837 0)
(0.0964919 0.000420564 0)
(0.0957379 0.000410636 0)
(0.094995 0.000401042 0)
(0.094263 0.00039177 0)
(0.0935415 0.00038281 0)
(0.0928303 0.000374151 0)
(0.0921291 0.000365785 0)
(0.0914378 0.000357706 0)
(0.0907559 0.000349908 0)
(0.0900833 0.000342386 0)
(0.0894197 0.000335138 0)
(0.0887648 0.000328165 0)
(0.0881183 0.000321472 0)
(0.0874799 0.000315071 0)
(0.0868493 0.000308989 0)
(0.0862261 0.00030328 0)
(0.0856098 0.000298066 0)
(0.0849996 0.00029365 0)
(0.084394 0.000290865 0)
(0.0837897 0.000292506 0)
(0.0831975 0.000314534 0)
(0.0823763 0.000408243 0)
(0.194869 0.00789294 0)
(0.195912 0.00888911 0)
(0.197019 0.00948434 0)
(0.198019 0.00979863 0)
(0.198868 0.00990554 0)
(0.199549 0.00983494 0)
(0.200037 0.00961316 0)
(0.20031 0.00927273 0)
(0.200359 0.00884749 0)
(0.200192 0.00836911 0)
(0.199824 0.00786574 0)
(0.199275 0.00736099 0)
(0.198571 0.00687294 0)
(0.197736 0.00641396 0)
(0.196794 0.00599111 0)
(0.195765 0.00560716 0)
(0.194666 0.00526168 0)
(0.193513 0.0049522 0)
(0.192315 0.00467508 0)
(0.191082 0.00442631 0)
(0.189819 0.00420192 0)
(0.188533 0.00399829 0)
(0.187227 0.0038123 0)
(0.185905 0.00364131 0)
(0.184568 0.00348318 0)
(0.183221 0.00333618 0)
(0.181865 0.0031989 0)
(0.180501 0.00307024 0)
(0.179132 0.00294928 0)
(0.17776 0.00283529 0)
(0.176386 0.00272764 0)
(0.175012 0.0026258 0)
(0.173639 0.00252932 0)
(0.172269 0.00243781 0)
(0.170902 0.00235091 0)
(0.16954 0.0022683 0)
(0.168184 0.0021897 0)
(0.166835 0.00211485 0)
(0.165493 0.00204352 0)
(0.16416 0.00197548 0)
(0.162835 0.00191054 0)
(0.161521 0.00184851 0)
(0.160217 0.00178923 0)
(0.158923 0.00173254 0)
(0.157641 0.00167829 0)
(0.15637 0.00162635 0)
(0.155111 0.00157659 0)
(0.153864 0.0015289 0)
(0.152629 0.00148316 0)
(0.151408 0.00143928 0)
(0.150198 0.00139715 0)
(0.149002 0.0013567 0)
(0.147818 0.00131783 0)
(0.146648 0.00128047 0)
(0.145491 0.00124453 0)
(0.144346 0.00120996 0)
(0.143215 0.00117669 0)
(0.142096 0.00114465 0)
(0.140991 0.00111378 0)
(0.139899 0.00108404 0)
(0.138819 0.00105536 0)
(0.137752 0.00102771 0)
(0.136698 0.00100103 0)
(0.135656 0.000975274 0)
(0.134627 0.00095041 0)
(0.13361 0.000926395 0)
(0.132605 0.000903191 0)
(0.131613 0.000880765 0)
(0.130632 0.000859084 0)
(0.129663 0.000838115 0)
(0.128706 0.00081783 0)
(0.12776 0.0007982 0)
(0.126826 0.0007792 0)
(0.125903 0.000760804 0)
(0.124991 0.00074299 0)
(0.124089 0.000725735 0)
(0.123199 0.000709018 0)
(0.122319 0.00069282 0)
(0.12145 0.000677124 0)
(0.120591 0.000661911 0)
(0.119742 0.000647167 0)
(0.118903 0.000632877 0)
(0.118073 0.000619028 0)
(0.117254 0.000605608 0)
(0.116444 0.000592606 0)
(0.115643 0.000580014 0)
(0.114851 0.000567825 0)
(0.114068 0.000556034 0)
(0.113294 0.000544638 0)
(0.112529 0.000533639 0)
(0.111771 0.000523046 0)
(0.111022 0.000512875 0)
(0.110281 0.000503165 0)
(0.109547 0.000493992 0)
(0.10882 0.000485527 0)
(0.1081 0.000478182 0)
(0.107384 0.000473092 0)
(0.106672 0.000473973 0)
(0.105974 0.000496573 0)
(0.105082 0.000573791 0)
(0.19547 0.00746152 0)
(0.196345 0.00836103 0)
(0.197334 0.00894641 0)
(0.198305 0.00928744 0)
(0.199212 0.00944229 0)
(0.200036 0.00943864 0)
(0.200754 0.00929813 0)
(0.201342 0.00904697 0)
(0.201784 0.00871341 0)
(0.202076 0.00832456 0)
(0.202221 0.00790496 0)
(0.202227 0.00747568 0)
(0.202107 0.00705348 0)
(0.201876 0.00665043 0)
(0.201549 0.00627414 0)
(0.201141 0.00592839 0)
(0.200665 0.00561403 0)
(0.200131 0.00532986 0)
(0.199549 0.00507344 0)
(0.198924 0.00484176 0)
(0.198263 0.00463163 0)
(0.197568 0.00444007 0)
(0.196844 0.00426437 0)
(0.196092 0.00410222 0)
(0.195315 0.00395169 0)
(0.194514 0.00381119 0)
(0.193691 0.00367943 0)
(0.192848 0.00355536 0)
(0.191985 0.00343814 0)
(0.191103 0.00332707 0)
(0.190206 0.00322157 0)
(0.189292 0.00312116 0)
(0.188365 0.00302543 0)
(0.187424 0.00293403 0)
(0.186471 0.00284663 0)
(0.185507 0.00276297 0)
(0.184533 0.00268281 0)
(0.183551 0.00260591 0)
(0.18256 0.00253208 0)
(0.181562 0.00246114 0)
(0.180559 0.00239293 0)
(0.17955 0.00232729 0)
(0.178537 0.00226409 0)
(0.17752 0.0022032 0)
(0.1765 0.0021445 0)
(0.175478 0.00208788 0)
(0.174454 0.00203324 0)
(0.173429 0.00198049 0)
(0.172404 0.00192954 0)
(0.17138 0.00188031 0)
(0.170356 0.00183272 0)
(0.169333 0.0017867 0)
(0.168312 0.00174218 0)
(0.167293 0.0016991 0)
(0.166277 0.0016574 0)
(0.165264 0.00161703 0)
(0.164254 0.00157792 0)
(0.163247 0.00154003 0)
(0.162245 0.00150331 0)
(0.161247 0.00146771 0)
(0.160253 0.0014332 0)
(0.159264 0.00139972 0)
(0.158281 0.00136724 0)
(0.157302 0.00133573 0)
(0.156329 0.00130514 0)
(0.155361 0.00127545 0)
(0.154399 0.00124662 0)
(0.153443 0.00121861 0)
(0.152493 0.00119141 0)
(0.151549 0.00116498 0)
(0.150612 0.0011393 0)
(0.149681 0.00111433 0)
(0.148756 0.00109007 0)
(0.147838 0.00106647 0)
(0.146926 0.00104353 0)
(0.146021 0.00102122 0)
(0.145123 0.000999522 0)
(0.144231 0.000978416 0)
(0.143346 0.000957887 0)
(0.142468 0.000937918 0)
(0.141597 0.000918495 0)
(0.140732 0.000899603 0)
(0.139875 0.000881231 0)
(0.139024 0.000863367 0)
(0.138179 0.000846002 0)
(0.137342 0.000829129 0)
(0.136511 0.000812741 0)
(0.135687 0.000796835 0)
(0.134869 0.000781412 0)
(0.134058 0.000766477 0)
(0.133253 0.000752041 0)
(0.132455 0.000738131 0)
(0.131663 0.000724795 0)
(0.130876 0.000712132 0)
(0.130095 0.000700352 0)
(0.129319 0.000689956 0)
(0.128548 0.000682257 0)
(0.127781 0.000681196 0)
(0.127031 0.000699513 0)
(0.126116 0.000751896 0)
(0.195994 0.00709212 0)
(0.196732 0.00789492 0)
(0.19759 0.00845394 0)
(0.198469 0.00880247 0)
(0.199322 0.00898207 0)
(0.200128 0.00901757 0)
(0.200866 0.00892828 0)
(0.201518 0.00873651 0)
(0.20207 0.00846661 0)
(0.202514 0.00814227 0)
(0.202851 0.00778511 0)
(0.203084 0.00741386 0)
(0.203221 0.0070438 0)
(0.203272 0.0066863 0)
(0.203248 0.00634898 0)
(0.20316 0.00603612 0)
(0.203017 0.00574937 0)
(0.202827 0.00548842 0)
(0.202597 0.00525172 0)
(0.202332 0.00503702 0)
(0.202037 0.0048418 0)
(0.201714 0.00466354 0)
(0.201365 0.00449992 0)
(0.200992 0.00434886 0)
(0.200596 0.00420862 0)
(0.200178 0.00407771 0)
(0.199738 0.00395492 0)
(0.199278 0.00383923 0)
(0.198798 0.00372983 0)
(0.198298 0.00362605 0)
(0.197779 0.00352731 0)
(0.197242 0.00343315 0)
(0.196687 0.00334317 0)
(0.196115 0.00325702 0)
(0.195527 0.00317441 0)
(0.194922 0.00309507 0)
(0.194302 0.00301877 0)
(0.193668 0.00294531 0)
(0.193019 0.0028745 0)
(0.192357 0.00280618 0)
(0.191682 0.00274019 0)
(0.190995 0.00267641 0)
(0.190296 0.00261471 0)
(0.189586 0.00255498 0)
(0.188866 0.00249712 0)
(0.188135 0.00244102 0)
(0.187396 0.00238661 0)
(0.186647 0.00233382 0)
(0.18589 0.00228255 0)
(0.185125 0.00223276 0)
(0.184353 0.00218436 0)
(0.183574 0.00213732 0)
(0.182789 0.00209157 0)
(0.181999 0.00204705 0)
(0.181203 0.00200374 0)
(0.180402 0.00196157 0)
(0.179596 0.00192051 0)
(0.178787 0.00188051 0)
(0.177974 0.00184155 0)
(0.177157 0.00180358 0)
(0.176338 0.00176657 0)
(0.175517 0.00173049 0)
(0.174693 0.00169531 0)
(0.173868 0.001661 0)
(0.173041 0.00162753 0)
(0.172213 0.00159488 0)
(0.171384 0.00156303 0)
(0.170555 0.00153194 0)
(0.169725 0.00150159 0)
(0.168896 0.00147197 0)
(0.168067 0.00144305 0)
(0.167238 0.00141482 0)
(0.16641 0.00138725 0)
(0.165583 0.00136033 0)
(0.164758 0.00133404 0)
(0.163934 0.00130836 0)
(0.163111 0.00128329 0)
(0.16229 0.0012588 0)
(0.161471 0.00123488 0)
(0.160655 0.00121153 0)
(0.15984 0.00118872 0)
(0.159028 0.00116645 0)
(0.158219 0.00114471 0)
(0.157412 0.0011235 0)
(0.156608 0.0011028 0)
(0.155807 0.00108262 0)
(0.155008 0.00106295 0)
(0.154213 0.00104379 0)
(0.153421 0.00102514 0)
(0.152632 0.00100703 0)
(0.151847 0.000989457 0)
(0.151064 0.000972466 0)
(0.150285 0.000956115 0)
(0.149508 0.00094052 0)
(0.148735 0.000925919 0)
(0.147964 0.000912851 0)
(0.147196 0.000902636 0)
(0.146432 0.000898736 0)
(0.145687 0.000909554 0)
(0.144798 0.000934162 0)
(0.196455 0.00677339 0)
(0.197087 0.00748697 0)
(0.197832 0.00801092 0)
(0.198615 0.00835573 0)
(0.199393 0.00854863 0)
(0.200141 0.00861044 0)
(0.200841 0.00855831 0)
(0.201477 0.0084113 0)
(0.202036 0.00819038 0)
(0.202512 0.0079163 0)
(0.202904 0.00760822 0)
(0.203214 0.00728297 0)
(0.203448 0.00695447 0)
(0.203614 0.00663344 0)
(0.20372 0.00632738 0)
(0.203775 0.00604091 0)
(0.203787 0.00577623 0)
(0.203763 0.00553375 0)
(0.203708 0.00531263 0)
(0.203628 0.00511129 0)
(0.203524 0.00492776 0)
(0.203401 0.00475996 0)
(0.20326 0.00460592 0)
(0.203101 0.00446381 0)
(0.202926 0.00433204 0)
(0.202735 0.00420923 0)
(0.202529 0.00409425 0)
(0.202307 0.00398613 0)
(0.20207 0.00388405 0)
(0.201818 0.00378736 0)
(0.201551 0.0036955 0)
(0.201269 0.00360798 0)
(0.200972 0.00352441 0)
(0.200661 0.00344443 0)
(0.200335 0.00336775 0)
(0.199995 0.00329409 0)
(0.199641 0.00322324 0)
(0.199273 0.00315496 0)
(0.198891 0.0030891 0)
(0.198496 0.00302546 0)
(0.198087 0.00296392 0)
(0.197666 0.00290434 0)
(0.197231 0.00284658 0)
(0.196784 0.00279055 0)
(0.196325 0.00273615 0)
(0.195854 0.00268328 0)
(0.195371 0.00263187 0)
(0.194877 0.00258183 0)
(0.194372 0.00253311 0)
(0.193856 0.00248563 0)
(0.19333 0.00243934 0)
(0.192793 0.00239418 0)
(0.192247 0.00235012 0)
(0.191691 0.00230709 0)
(0.191126 0.00226507 0)
(0.190552 0.00222401 0)
(0.189969 0.00218387 0)
(0.189378 0.00214462 0)
(0.18878 0.00210624 0)
(0.188173 0.00206868 0)
(0.18756 0.00203193 0)
(0.186939 0.00199595 0)
(0.186312 0.00196073 0)
(0.185678 0.00192624 0)
(0.185038 0.00189246 0)
(0.184393 0.00185936 0)
(0.183742 0.00182694 0)
(0.183086 0.00179516 0)
(0.182425 0.00176403 0)
(0.181759 0.0017335 0)
(0.181089 0.00170359 0)
(0.180415 0.00167426 0)
(0.179737 0.0016455 0)
(0.179055 0.00161731 0)
(0.17837 0.00158967 0)
(0.177682 0.00156257 0)
(0.176991 0.00153599 0)
(0.176297 0.00150994 0)
(0.175601 0.0014844 0)
(0.174903 0.00145936 0)
(0.174203 0.00143482 0)
(0.173501 0.00141077 0)
(0.172798 0.00138721 0)
(0.172093 0.00136413 0)
(0.171386 0.00134153 0)
(0.170679 0.00131942 0)
(0.169971 0.00129779 0)
(0.169262 0.00127665 0)
(0.168553 0.00125602 0)
(0.167843 0.0012359 0)
(0.167132 0.00121632 0)
(0.166422 0.00119733 0)
(0.165711 0.001179 0)
(0.164999 0.00116144 0)
(0.164288 0.00114491 0)
(0.163577 0.00112993 0)
(0.162866 0.00111765 0)
(0.162158 0.00111057 0)
(0.161468 0.00111259 0)
(0.160651 0.00111109 0)
(0.196864 0.00649282 0)
(0.197413 0.00712648 0)
(0.198063 0.00761167 0)
(0.198759 0.00794615 0)
(0.199463 0.00814587 0)
(0.200149 0.00822706 0)
(0.200799 0.00820435 0)
(0.201398 0.00809389 0)
(0.201934 0.00791358 0)
(0.202402 0.00768152 0)
(0.2028 0.00741469 0)
(0.20313 0.00712822 0)
(0.203395 0.00683484 0)
(0.203603 0.00654463 0)
(0.20376 0.00626491 0)
(0.203874 0.00600049 0)
(0.203953 0.00575402 0)
(0.204001 0.00552649 0)
(0.204025 0.00531767 0)
(0.204029 0.00512657 0)
(0.204016 0.00495172 0)
(0.203988 0.00479148 0)
(0.203948 0.0046442 0)
(0.203896 0.0045083 0)
(0.203834 0.00438238 0)
(0.203761 0.00426518 0)
(0.203678 0.00415565 0)
(0.203586 0.00405286 0)
(0.203484 0.00395605 0)
(0.203372 0.00386457 0)
(0.20325 0.00377785 0)
(0.203118 0.00369543 0)
(0.202976 0.00361691 0)
(0.202824 0.00354191 0)
(0.202662 0.00347015 0)
(0.202489 0.00340135 0)
(0.202307 0.00333526 0)
(0.202114 0.00327168 0)
(0.20191 0.00321042 0)
(0.201696 0.0031513 0)
(0.201472 0.00309417 0)
(0.201237 0.00303889 0)
(0.200992 0.00298533 0)
(0.200736 0.00293339 0)
(0.20047 0.00288296 0)
(0.200193 0.00283394 0)
(0.199906 0.00278625 0)
(0.199609 0.00273982 0)
(0.199301 0.00269457 0)
(0.198983 0.00265044 0)
(0.198655 0.00260736 0)
(0.198318 0.00256529 0)
(0.19797 0.00252417 0)
(0.197613 0.00248396 0)
(0.197246 0.00244461 0)
(0.196869 0.0024061 0)
(0.196483 0.00236837 0)
(0.196088 0.00233141 0)
(0.195684 0.00229517 0)
(0.195271 0.00225963 0)
(0.19485 0.00222477 0)
(0.194419 0.00219056 0)
(0.193981 0.00215697 0)
(0.193534 0.00212399 0)
(0.193079 0.00209159 0)
(0.192616 0.00205976 0)
(0.192146 0.00202849 0)
(0.191668 0.00199775 0)
(0.191182 0.00196753 0)
(0.19069 0.00193782 0)
(0.190191 0.00190861 0)
(0.189685 0.00187988 0)
(0.189173 0.00185162 0)
(0.188654 0.00182382 0)
(0.188129 0.00179648 0)
(0.187598 0.00176959 0)
(0.187062 0.00174313 0)
(0.186519 0.00171711 0)
(0.185972 0.00169151 0)
(0.185419 0.00166634 0)
(0.184862 0.00164159 0)
(0.184299 0.00161726 0)
(0.183732 0.00159334 0)
(0.183161 0.00156984 0)
(0.182585 0.00154675 0)
(0.182005 0.0015241 0)
(0.181421 0.00150187 0)
(0.180833 0.00148008 0)
(0.180242 0.00145875 0)
(0.179647 0.00143789 0)
(0.179049 0.00141755 0)
(0.178447 0.00139775 0)
(0.177842 0.00137858 0)
(0.177234 0.00136018 0)
(0.176623 0.00134276 0)
(0.17601 0.00132678 0)
(0.175395 0.0013131 0)
(0.174781 0.00130304 0)
(0.174183 0.00129667 0)
(0.173471 0.00127407 0)
(0.197227 0.00624161 0)
(0.19771 0.00680513 0)
(0.198282 0.00725124 0)
(0.198902 0.00757137 0)
(0.199538 0.0077733 0)
(0.200164 0.00786875 0)
(0.200764 0.00786978 0)
(0.201323 0.00778992 0)
(0.201829 0.00764436 0)
(0.202278 0.00744876 0)
(0.202667 0.00721809 0)
(0.202996 0.00696588 0)
(0.203269 0.00670377 0)
(0.203491 0.00644112 0)
(0.203669 0.00618504 0)
(0.203807 0.00594039 0)
(0.203914 0.00571017 0)
(0.203994 0.00549583 0)
(0.204052 0.00529765 0)
(0.204093 0.00511515 0)
(0.20412 0.00494732 0)
(0.204135 0.00479293 0)
(0.204141 0.00465064 0)
(0.204138 0.00451912 0)
(0.204127 0.00439717 0)
(0.20411 0.00428367 0)
(0.204086 0.00417766 0)
(0.204056 0.00407829 0)
(0.204021 0.00398483 0)
(0.203979 0.00389667 0)
(0.203931 0.00381327 0)
(0.203878 0.00373417 0)
(0.203818 0.00365896 0)
(0.203752 0.0035873 0)
(0.20368 0.00351888 0)
(0.203601 0.00345343 0)
(0.203516 0.00339071 0)
(0.203424 0.0033305 0)
(0.203326 0.00327261 0)
(0.203221 0.00321686 0)
(0.203108 0.00316309 0)
(0.202989 0.00311117 0)
(0.202862 0.00306096 0)
(0.202728 0.00301235 0)
(0.202587 0.00296522 0)
(0.202438 0.00291949 0)
(0.202281 0.00287505 0)
(0.202117 0.00283183 0)
(0.201945 0.00278975 0)
(0.201765 0.00274875 0)
(0.201578 0.00270876 0)
(0.201382 0.00266972 0)
(0.201178 0.00263158 0)
(0.200967 0.00259429 0)
(0.200747 0.00255781 0)
(0.20052 0.00252209 0)
(0.200284 0.0024871 0)
(0.20004 0.0024528 0)
(0.199788 0.00241916 0)
(0.199529 0.00238615 0)
(0.199261 0.00235373 0)
(0.198985 0.00232189 0)
(0.198701 0.0022906 0)
(0.19841 0.00225983 0)
(0.19811 0.00222958 0)
(0.197803 0.00219981 0)
(0.197488 0.00217051 0)
(0.197166 0.00214167 0)
(0.196836 0.00211327 0)
(0.196498 0.0020853 0)
(0.196153 0.00205774 0)
(0.195801 0.00203058 0)
(0.195441 0.00200382 0)
(0.195075 0.00197743 0)
(0.194701 0.00195143 0)
(0.19432 0.00192579 0)
(0.193932 0.00190051 0)
(0.193538 0.00187559 0)
(0.193137 0.00185102 0)
(0.19273 0.0018268 0)
(0.192316 0.00180293 0)
(0.191896 0.0017794 0)
(0.19147 0.00175622 0)
(0.191037 0.0017334 0)
(0.190599 0.00171092 0)
(0.190155 0.00168881 0)
(0.189705 0.00166706 0)
(0.189249 0.0016457 0)
(0.188788 0.00162474 0)
(0.188322 0.00160421 0)
(0.18785 0.00158413 0)
(0.187373 0.00156457 0)
(0.186891 0.00154558 0)
(0.186404 0.0015273 0)
(0.185912 0.00150993 0)
(0.185415 0.00149381 0)
(0.184916 0.00147941 0)
(0.184416 0.001467 0)
(0.183928 0.00145381 0)
(0.183338 0.00141692 0)
(0.197552 0.00601371 0)
(0.197982 0.00651627 0)
(0.198487 0.00692483 0)
(0.199041 0.00722825 0)
(0.199616 0.00742882 0)
(0.200188 0.00753436 0)
(0.20074 0.00755448 0)
(0.201259 0.00750038 0)
(0.201736 0.00738483 0)
(0.202163 0.00722129 0)
(0.202538 0.00702285 0)
(0.20286 0.00680157 0)
(0.203133 0.00656797 0)
(0.203359 0.00633075 0)
(0.203545 0.00609667 0)
(0.203695 0.0058706 0)
(0.203816 0.00565574 0)
(0.203911 0.00545388 0)
(0.203986 0.00526575 0)
(0.204045 0.00509128 0)
(0.20409 0.00492989 0)
(0.204125 0.00478069 0)
(0.20415 0.00464265 0)
(0.204169 0.0045147 0)
(0.204182 0.0043958 0)
(0.204189 0.004285 0)
(0.204192 0.00418144 0)
(0.20419 0.00408435 0)
(0.204185 0.00399306 0)
(0.204175 0.003907 0)
(0.204162 0.00382565 0)
(0.204146 0.00374859 0)
(0.204125 0.00367541 0)
(0.204101 0.00360579 0)
(0.204073 0.00353942 0)
(0.204042 0.00347603 0)
(0.204007 0.0034154 0)
(0.203968 0.00335731 0)
(0.203925 0.00330156 0)
(0.203877 0.00324798 0)
(0.203826 0.00319641 0)
(0.20377 0.00314672 0)
(0.20371 0.00309876 0)
(0.203646 0.00305242 0)
(0.203576 0.00300759 0)
(0.203502 0.00296416 0)
(0.203423 0.00292206 0)
(0.203339 0.00288119 0)
(0.20325 0.00284147 0)
(0.203156 0.00280284 0)
(0.203056 0.00276522 0)
(0.202951 0.00272856 0)
(0.20284 0.0026928 0)
(0.202724 0.00265789 0)
(0.202602 0.00262377 0)
(0.202474 0.00259042 0)
(0.20234 0.00255778 0)
(0.2022 0.00252581 0)
(0.202054 0.00249448 0)
(0.201902 0.00246376 0)
(0.201744 0.00243362 0)
(0.20158 0.00240403 0)
(0.201409 0.00237496 0)
(0.201232 0.00234639 0)
(0.201048 0.00231829 0)
(0.200858 0.00229064 0)
(0.200662 0.00226344 0)
(0.200459 0.00223664 0)
(0.200249 0.00221025 0)
(0.200033 0.00218425 0)
(0.199811 0.00215861 0)
(0.199582 0.00213334 0)
(0.199346 0.00210841 0)
(0.199104 0.00208381 0)
(0.198855 0.00205955 0)
(0.1986 0.0020356 0)
(0.198338 0.00201197 0)
(0.19807 0.00198865 0)
(0.197795 0.00196562 0)
(0.197514 0.0019429 0)
(0.197226 0.00192047 0)
(0.196932 0.00189834 0)
(0.196632 0.00187651 0)
(0.196325 0.00185498 0)
(0.196012 0.00183375 0)
(0.195693 0.00181284 0)
(0.195367 0.00179224 0)
(0.195035 0.00177199 0)
(0.194698 0.00175209 0)
(0.194354 0.00173258 0)
(0.194004 0.00171348 0)
(0.193648 0.00169484 0)
(0.193286 0.00167674 0)
(0.192919 0.00165929 0)
(0.192546 0.00164263 0)
(0.192167 0.00162698 0)
(0.191785 0.00161248 0)
(0.191401 0.0015985 0)
(0.191024 0.00158063 0)
(0.190559 0.00153644 0)
(0.197843 0.0058048 0)
(0.198229 0.00625455 0)
(0.19868 0.00662802 0)
(0.199176 0.00691359 0)
(0.199695 0.00711015 0)
(0.200218 0.00722241 0)
(0.200726 0.00725771 0)
(0.201208 0.00722521 0)
(0.201655 0.00713557 0)
(0.20206 0.00700024 0)
(0.202419 0.00683063 0)
(0.202733 0.00663738 0)
(0.203002 0.00642998 0)
(0.203229 0.00621643 0)
(0.203419 0.00600311 0)
(0.203575 0.0057948 0)
(0.203704 0.00559481 0)
(0.203808 0.00540518 0)
(0.203893 0.00522699 0)
(0.203962 0.00506051 0)
(0.204017 0.00490552 0)
(0.204062 0.00476145 0)
(0.204099 0.00462756 0)
(0.204128 0.00450298 0)
(0.204152 0.00438689 0)
(0.204171 0.00427846 0)
(0.204186 0.00417694 0)
(0.204197 0.00408166 0)
(0.204205 0.00399201 0)
(0.20421 0.00390745 0)
(0.204212 0.00382752 0)
(0.204212 0.0037518 0)
(0.204209 0.00367993 0)
(0.204204 0.00361159 0)
(0.204197 0.00354648 0)
(0.204187 0.00348435 0)
(0.204175 0.00342498 0)
(0.204161 0.00336815 0)
(0.204144 0.00331368 0)
(0.204126 0.0032614 0)
(0.204104 0.00321115 0)
(0.20408 0.0031628 0)
(0.204054 0.0031162 0)
(0.204025 0.00307126 0)
(0.203993 0.00302785 0)
(0.203959 0.00298587 0)
(0.203922 0.00294524 0)
(0.203881 0.00290587 0)
(0.203838 0.00286769 0)
(0.203791 0.00283061 0)
(0.203742 0.00279458 0)
(0.203688 0.00275952 0)
(0.203632 0.00272539 0)
(0.203571 0.00269213 0)
(0.203508 0.00265969 0)
(0.20344 0.00262803 0)
(0.203368 0.00259709 0)
(0.203293 0.00256684 0)
(0.203213 0.00253725 0)
(0.20313 0.00250828 0)
(0.203042 0.00247989 0)
(0.202949 0.00245206 0)
(0.202852 0.00242476 0)
(0.202751 0.00239795 0)
(0.202645 0.00237163 0)
(0.202535 0.00234575 0)
(0.202419 0.00232031 0)
(0.202299 0.00229528 0)
(0.202174 0.00227065 0)
(0.202044 0.00224639 0)
(0.201909 0.00222249 0)
(0.201769 0.00219895 0)
(0.201624 0.00217573 0)
(0.201473 0.00215284 0)
(0.201317 0.00213026 0)
(0.201156 0.00210798 0)
(0.200989 0.00208599 0)
(0.200817 0.0020643 0)
(0.20064 0.00204288 0)
(0.200457 0.00202174 0)
(0.200269 0.00200087 0)
(0.200074 0.00198028 0)
(0.199875 0.00195996 0)
(0.19967 0.00193992 0)
(0.199459 0.00192015 0)
(0.199242 0.00190067 0)
(0.19902 0.00188149 0)
(0.198792 0.00186263 0)
(0.198558 0.00184409 0)
(0.198319 0.0018259 0)
(0.198073 0.00180811 0)
(0.197822 0.00179075 0)
(0.197566 0.00177389 0)
(0.197303 0.00175761 0)
(0.197035 0.00174202 0)
(0.196762 0.0017272 0)
(0.196485 0.00171301 0)
(0.196205 0.00169823 0)
(0.195929 0.00167787 0)