/*--------------------------------*- C++ -*----------------------------------*\
| =========                 |                                                 |
| \\      /  F ield         | OpenFOAM: The Open Source CFD Toolbox           |
|  \\    /   O peration     | Version:  2.3.0                                 |
|   \\  /    A nd           | Web:      www.OpenFOAM.org                      |
|    \\/     M anipulation  |                                                 |
\*---------------------------------------------------------------------------*/
FoamFile
{
    version     2.0;
    format      ascii;
    class       volVectorField;
    location    "0.7";
    object      U;
}
// * * * * * * * * * * * * * * * * * * * * * * * * * * * * * * * * * * * * * //

dimensions      [0 1 -1 0 0 0 0];

internalField   nonuniform List<vector> 
2945
(
(0.160511 0.00669138 0)
(0.120812 0.0065779 0)
(0.0888039 0.00451961 0)
(0.0664375 0.00255188 0)
(0.0523235 0.00105574 0)
(0.0435589 0.000332541 0)
(0.0381181 0.000101803 0)
(0.0346985 6.47985e-05 0)
(0.0323448 5.84579e-05 0)
(0.0305436 6.75513e-05 0)
(0.0289925 8.3604e-05 0)
(0.0275566 8.49679e-05 0)
(0.0262713 7.30262e-05 0)
(0.0251719 5.78305e-05 0)
(0.0242201 4.98599e-05 0)
(0.0233527 4.8691e-05 0)
(0.022546 4.49159e-05 0)
(0.0218099 3.97777e-05 0)
(0.0211329 3.79108e-05 0)
(0.0205002 3.53331e-05 0)
(0.0199216 3.01949e-05 0)
(0.019394 2.75099e-05 0)
(0.018897 2.7382e-05 0)
(0.0184257 2.4999e-05 0)
(0.0179889 2.23386e-05 0)
(0.0175803 2.15992e-05 0)
(0.0171915 2.03142e-05 0)
(0.0168235 1.88544e-05 0)
(0.0164791 1.73208e-05 0)
(0.0161554 1.59042e-05 0)
(0.0158485 1.51859e-05 0)
(0.015556 1.43385e-05 0)
(0.0152761 1.37295e-05 0)
(0.0150054 1.3641e-05 0)
(0.0147451 1.27275e-05 0)
(0.0145016 1.10973e-05 0)
(0.0142722 1.05743e-05 0)
(0.01405 1.0603e-05 0)
(0.0138335 1.0313e-05 0)
(0.0136251 9.7954e-06 0)
(0.0134258 9.12426e-06 0)
(0.0132371 8.31175e-06 0)
(0.0130569 7.99276e-06 0)
(0.0128833 7.62835e-06 0)
(0.0127153 7.33567e-06 0)
(0.0125511 7.38363e-06 0)
(0.0123913 7.05675e-06 0)
(0.0122395 6.34251e-06 0)
(0.0120932 6.29209e-06 0)
(0.0119507 6.12655e-06 0)
(0.0118129 5.74313e-06 0)
(0.0116797 5.65888e-06 0)
(0.011551 5.3142e-06 0)
(0.0114274 4.97999e-06 0)
(0.0113093 4.66738e-06 0)
(0.011194 4.6816e-06 0)
(0.0110806 4.66157e-06 0)
(0.0109711 4.29134e-06 0)
(0.0108665 4.06866e-06 0)
(0.0107632 4.22551e-06 0)
(0.0106631 3.86319e-06 0)
(0.0105674 3.6489e-06 0)
(0.0104756 3.4953e-06 0)
(0.0103844 3.62462e-06 0)
(0.0102961 3.32148e-06 0)
(0.0102103 3.31748e-06 0)
(0.0101268 3.12389e-06 0)
(0.0100461 3.17097e-06 0)
(0.00996355 3.12681e-06 0)
(0.0098918 2.62712e-06 0)
(0.00980635 3.39076e-06 0)
(0.00974813 2.02463e-06 0)
(0.00964702 4.11399e-06 0)
(0.00962562 -5.11523e-07 0)
(0.00950296 6.25026e-06 0)
(0.191815 0.0121515 0)
(0.184171 0.0143293 0)
(0.171479 0.01224 0)
(0.156507 0.00895111 0)
(0.141653 0.0060873 0)
(0.128137 0.00407207 0)
(0.11644 0.00255566 0)
(0.106974 0.00165635 0)
(0.0994651 0.0011655 0)
(0.0933531 0.000928048 0)
(0.0882567 0.000818018 0)
(0.0838544 0.000728794 0)
(0.0800201 0.000628909 0)
(0.0767084 0.000533252 0)
(0.0737804 0.000470851 0)
(0.0711103 0.000435318 0)
(0.0686551 0.000395607 0)
(0.0664092 0.000355439 0)
(0.0643489 0.000328735 0)
(0.0624446 0.000302494 0)
(0.0606917 0.000270796 0)
(0.0590686 0.000248682 0)
(0.0575492 0.000235826 0)
(0.056122 0.00021757 0)
(0.0547867 0.000199383 0)
(0.0535365 0.000188005 0)
(0.0523551 0.000176171 0)
(0.0512359 0.000164363 0)
(0.0501835 0.000152795 0)
(0.0491885 0.000142642 0)
(0.048242 0.000135012 0)
(0.0473416 0.000127355 0)
(0.0464809 0.00012095 0)
(0.0456556 0.000116259 0)
(0.0448673 0.00010931 0)
(0.0441201 0.000100681 0)
(0.0434069 9.57935e-05 0)
(0.0427204 9.25685e-05 0)
(0.0420591 8.85394e-05 0)
(0.0414251 8.40553e-05 0)
(0.0408178 7.93659e-05 0)
(0.0402373 7.44394e-05 0)
(0.0396794 7.12359e-05 0)
(0.0391425 6.80201e-05 0)
(0.0386229 6.52508e-05 0)
(0.0381189 6.3438e-05 0)
(0.0376323 6.0472e-05 0)
(0.0371664 5.6582e-05 0)
(0.0367155 5.49103e-05 0)
(0.0362795 5.27733e-05 0)
(0.0358576 5.01642e-05 0)
(0.0354501 4.84562e-05 0)
(0.0350571 4.60236e-05 0)
(0.0346777 4.37916e-05 0)
(0.0343127 4.16525e-05 0)
(0.0339572 4.06409e-05 0)
(0.0336116 3.94096e-05 0)
(0.0332779 3.71922e-05 0)
(0.0329567 3.55533e-05 0)
(0.0326427 3.5086e-05 0)
(0.0323402 3.29313e-05 0)
(0.0320483 3.14465e-05 0)
(0.0317675 3.01364e-05 0)
(0.0314916 2.98206e-05 0)
(0.0312258 2.80206e-05 0)
(0.0309675 2.74016e-05 0)
(0.0307168 2.60194e-05 0)
(0.0304754 2.56403e-05 0)
(0.0302329 2.47171e-05 0)
(0.0300163 2.27674e-05 0)
(0.0297697 2.45625e-05 0)
(0.0295912 1.96623e-05 0)
(0.0293113 2.62016e-05 0)
(0.0292226 1.00737e-05 0)
(0.028872 3.17493e-05 0)
(0.191693 0.0110808 0)
(0.194142 0.0130346 0)
(0.194735 0.0139075 0)
(0.191669 0.0125463 0)
(0.186112 0.00964371 0)
(0.178659 0.00742728 0)
(0.170042 0.00594054 0)
(0.16178 0.00476842 0)
(0.154405 0.0037965 0)
(0.147608 0.00312698 0)
(0.141296 0.00266588 0)
(0.135461 0.00229202 0)
(0.130147 0.00195937 0)
(0.125419 0.00167952 0)
(0.121172 0.00149109 0)
(0.117244 0.00136611 0)
(0.113561 0.00124042 0)
(0.110119 0.00111878 0)
(0.106923 0.00102654 0)
(0.103956 0.000941874 0)
(0.101202 0.000854167 0)
(0.0986306 0.000787152 0)
(0.0962131 0.000738301 0)
(0.0939326 0.000683171 0)
(0.0917812 0.000630394 0)
(0.0897587 0.000591088 0)
(0.0878469 0.000553767 0)
(0.0860283 0.000517963 0)
(0.0843098 0.000483245 0)
(0.0826787 0.00045315 0)
(0.0811204 0.000428322 0)
(0.0796351 0.000403978 0)
(0.0782143 0.000382958 0)
(0.076852 0.000365326 0)
(0.0755498 0.00034439 0)
(0.0743086 0.000321631 0)
(0.0731191 0.000305982 0)
(0.0719749 0.00029316 0)
(0.0708736 0.000279329 0)
(0.0698165 0.00026526 0)
(0.0688019 0.00025142 0)
(0.0678287 0.000237597 0)
(0.0668913 0.000227128 0)
(0.0659886 0.000216907 0)
(0.0651148 0.000207907 0)
(0.0642686 0.000200445 0)
(0.0634523 0.000191028 0)
(0.062668 0.000180576 0)
(0.0619081 0.00017427 0)
(0.0611743 0.000167015 0)
(0.0604637 0.000159338 0)
(0.0597764 0.000153207 0)
(0.0591136 0.000145988 0)
(0.0584717 0.000139439 0)
(0.0578533 0.000133091 0)
(0.057252 0.00012893 0)
(0.0566684 0.00012423 0)
(0.0561046 0.000117985 0)
(0.0555607 0.000112994 0)
(0.0550308 0.000110036 0)
(0.0545203 0.000104045 0)
(0.0540265 9.95712e-05 0)
(0.0535512 9.54173e-05 0)
(0.0530862 9.31849e-05 0)
(0.0526386 8.81715e-05 0)
(0.0522035 8.56346e-05 0)
(0.0517825 8.1478e-05 0)
(0.0513768 7.95573e-05 0)
(0.0509739 7.61498e-05 0)
(0.0506074 7.18729e-05 0)
(0.0502047 7.33369e-05 0)
(0.0498965 6.39776e-05 0)
(0.0494525 7.39365e-05 0)
(0.0492761 4.53923e-05 0)
(0.0487054 8.01743e-05 0)
(0.192362 0.00910557 0)
(0.194399 0.0132613 0)
(0.197025 0.0123006 0)
(0.199607 0.0120522 0)
(0.200067 0.00978712 0)
(0.198161 0.00908682 0)
(0.194568 0.00768304 0)
(0.190405 0.00637907 0)
(0.186172 0.00538251 0)
(0.18177 0.00482426 0)
(0.177216 0.00443807 0)
(0.172549 0.00401867 0)
(0.167889 0.00354275 0)
(0.163464 0.00308694 0)
(0.15937 0.00276513 0)
(0.155515 0.00255958 0)
(0.151768 0.00236286 0)
(0.148089 0.00216315 0)
(0.144528 0.00199545 0)
(0.141128 0.00183692 0)
(0.137916 0.00167834 0)
(0.134882 0.00155462 0)
(0.131998 0.00146074 0)
(0.129233 0.00135917 0)
(0.126579 0.00126091 0)
(0.124051 0.00118266 0)
(0.121645 0.00110992 0)
(0.11934 0.00104166 0)
(0.117146 0.000975368 0)
(0.11505 0.000917664 0)
(0.113031 0.000868957 0)
(0.111091 0.000820994 0)
(0.109223 0.000778566 0)
(0.107426 0.000741725 0)
(0.105702 0.000700834 0)
(0.104052 0.000658376 0)
(0.102464 0.00062702 0)
(0.100929 0.000599845 0)
(0.0994457 0.000571478 0)
(0.0980164 0.000543227 0)
(0.096642 0.000515954 0)
(0.0953197 0.000489255 0)
(0.0940419 0.000467886 0)
(0.0928075 0.000447095 0)
(0.0916108 0.000428488 0)
(0.0904503 0.000412202 0)
(0.0893291 0.000393158 0)
(0.0882487 0.000373126 0)
(0.0872006 0.000359478 0)
(0.0861871 0.000344451 0)
(0.0852043 0.000329196 0)
(0.0842513 0.000316257 0)
(0.0833309 0.000301887 0)
(0.0824379 0.000288824 0)
(0.0815756 0.000276063 0)
(0.0807369 0.000266775 0)
(0.0799223 0.000256662 0)
(0.0791341 0.000244368 0)
(0.0783727 0.000234176 0)
(0.0776312 0.00022703 0)
(0.0769157 0.000215395 0)
(0.0762226 0.000206248 0)
(0.0755547 0.000197637 0)
(0.0749023 0.000192029 0)
(0.0742738 0.000182239 0)
(0.0736628 0.000176418 0)
(0.0730723 0.000167989 0)
(0.072502 0.000163338 0)
(0.0719399 0.000155935 0)
(0.0714209 0.000148365 0)
(0.0708671 0.000147869 0)
(0.0704218 0.000133867 0)
(0.0698246 0.0001445 0)
(0.0695482 0.000106898 0)
(0.0687623 0.000147343 0)
(0.19331 0.00919696 0)
(0.194713 0.0110979 0)
(0.197199 0.0126862 0)
(0.199918 0.0109852 0)
(0.201442 0.0114931 0)
(0.20216 0.00832138 0)
(0.201726 0.00776468 0)
(0.200572 0.00724717 0)
(0.199002 0.00641537 0)
(0.197146 0.00583203 0)
(0.19505 0.00545325 0)
(0.192588 0.00508524 0)
(0.189737 0.00464266 0)
(0.186725 0.00415933 0)
(0.183827 0.00378477 0)
(0.181104 0.00355427 0)
(0.178402 0.00335465 0)
(0.17559 0.00315145 0)
(0.172675 0.00296811 0)
(0.169709 0.00277055 0)
(0.16678 0.00255556 0)
(0.163962 0.00238236 0)
(0.161258 0.00225487 0)
(0.158616 0.00212078 0)
(0.156003 0.00198763 0)
(0.153445 0.00187504 0)
(0.15096 0.00176671 0)
(0.148546 0.00166559 0)
(0.146226 0.00156744 0)
(0.143992 0.00148187 0)
(0.141816 0.0014098 0)
(0.139693 0.00133832 0)
(0.137618 0.00127337 0)
(0.135596 0.00121492 0)
(0.133642 0.00115062 0)
(0.131764 0.00108531 0)
(0.12995 0.00103655 0)
(0.128185 0.00099384 0)
(0.126457 0.000948996 0)
(0.124778 0.000903643 0)
(0.123157 0.000859814 0)
(0.121594 0.000817584 0)
(0.120076 0.000783315 0)
(0.118602 0.000749818 0)
(0.117164 0.000719299 0)
(0.115765 0.000691962 0)
(0.114407 0.000660884 0)
(0.113095 0.000628905 0)
(0.111818 0.000605879 0)
(0.11058 0.000581024 0)
(0.109376 0.000556259 0)
(0.108205 0.000534721 0)
(0.10707 0.000511244 0)
(0.105966 0.000489899 0)
(0.104896 0.00046891 0)
(0.103854 0.000452911 0)
(0.102839 0.000435801 0)
(0.101853 0.000415656 0)
(0.1009 0.000398628 0)
(0.0999699 0.00038585 0)
(0.0990702 0.000366964 0)
(0.0981967 0.000351634 0)
(0.0973531 0.000337077 0)
(0.0965289 0.000326744 0)
(0.0957334 0.000310709 0)
(0.0949592 0.000300332 0)
(0.0942105 0.000286222 0)
(0.0934853 0.000277701 0)
(0.0927735 0.000264866 0)
(0.0921084 0.000253001 0)
(0.0914132 0.000248939 0)
(0.0908322 0.000230329 0)
(0.0900929 0.000238162 0)
(0.0897155 0.00019608 0)
(0.0887225 0.000234457 0)
(0.194058 0.00867232 0)
(0.195238 0.010432 0)
(0.197387 0.0120031 0)
(0.199645 0.0109551 0)
(0.201173 0.00912679 0)
(0.20201 0.0104128 0)
(0.202803 0.00757305 0)
(0.202751 0.00704706 0)
(0.202298 0.00641023 0)
(0.201833 0.00595705 0)
(0.201359 0.00576698 0)
(0.200564 0.00559877 0)
(0.199277 0.0053028 0)
(0.197647 0.00485172 0)
(0.196 0.00443017 0)
(0.194538 0.00416562 0)
(0.193145 0.00397517 0)
(0.191625 0.0038106 0)
(0.189898 0.00367885 0)
(0.187937 0.0035129 0)
(0.185818 0.00328879 0)
(0.183694 0.00308446 0)
(0.181654 0.0029367 0)
(0.179644 0.00279177 0)
(0.177595 0.00265256 0)
(0.175506 0.00253355 0)
(0.173395 0.00240671 0)
(0.171286 0.00228147 0)
(0.169222 0.00215798 0)
(0.167222 0.00205156 0)
(0.165259 0.00196492 0)
(0.16331 0.00187975 0)
(0.16136 0.00180126 0)
(0.15941 0.00172755 0)
(0.157488 0.00164197 0)
(0.155626 0.00155307 0)
(0.153828 0.00148767 0)
(0.152067 0.00143332 0)
(0.150317 0.00137636 0)
(0.148582 0.00131552 0)
(0.146888 0.00125431 0)
(0.145249 0.00119539 0)
(0.143654 0.00114845 0)
(0.142092 0.00110303 0)
(0.140555 0.00106096 0)
(0.139045 0.00102243 0)
(0.137569 0.000978522 0)
(0.136134 0.000933497 0)
(0.134733 0.000900244 0)
(0.133368 0.000864675 0)
(0.132036 0.000829577 0)
(0.130733 0.000798779 0)
(0.129464 0.000765208 0)
(0.128225 0.000734665 0)
(0.12702 0.000704477 0)
(0.12584 0.000681048 0)
(0.124685 0.000656194 0)
(0.123559 0.000627043 0)
(0.122465 0.000602066 0)
(0.121396 0.000582725 0)
(0.120358 0.00055547 0)
(0.119346 0.000532943 0)
(0.118366 0.000511385 0)
(0.117406 0.000495332 0)
(0.116476 0.000471858 0)
(0.11557 0.000455963 0)
(0.114692 0.000435048 0)
(0.113838 0.000421833 0)
(0.113001 0.000402328 0)
(0.11221 0.000385459 0)
(0.111395 0.000376233 0)
(0.110694 0.000353659 0)
(0.109832 0.000354697 0)
(0.109363 0.000313028 0)
(0.108185 0.000342366 0)
(0.194397 0.00857987 0)
(0.195754 0.010198 0)
(0.197586 0.0109756 0)
(0.199562 0.0103336 0)
(0.200838 0.00942002 0)
(0.20158 0.00912776 0)
(0.202716 0.0073946 0)
(0.202939 0.00697837 0)
(0.202701 0.00647295 0)
(0.202662 0.00615056 0)
(0.202768 0.00590269 0)
(0.202698 0.00577222 0)
(0.202255 0.00553928 0)
(0.201485 0.00513318 0)
(0.200643 0.00469126 0)
(0.199998 0.00438552 0)
(0.19951 0.00422107 0)
(0.19899 0.00409895 0)
(0.198312 0.00404322 0)
(0.19736 0.00395271 0)
(0.196134 0.00377122 0)
(0.1948 0.00356345 0)
(0.19352 0.00340422 0)
(0.192284 0.00325545 0)
(0.191005 0.00312612 0)
(0.189641 0.00303169 0)
(0.188179 0.00291816 0)
(0.186639 0.00278938 0)
(0.185088 0.00265038 0)
(0.183568 0.00252844 0)
(0.182079 0.00243547 0)
(0.180588 0.00235054 0)
(0.179056 0.00227528 0)
(0.177465 0.00220257 0)
(0.175834 0.00210698 0)
(0.174218 0.00199825 0)
(0.172658 0.00191685 0)
(0.17114 0.00185559 0)
(0.169609 0.00179656 0)
(0.168047 0.00172948 0)
(0.166482 0.0016553 0)
(0.164951 0.0015806 0)
(0.163461 0.00152236 0)
(0.161996 0.00146812 0)
(0.160539 0.00141854 0)
(0.159084 0.00137243 0)
(0.157643 0.00131784 0)
(0.156227 0.00126073 0)
(0.154837 0.00121799 0)
(0.153475 0.0011724 0)
(0.152138 0.00112765 0)
(0.150821 0.00108848 0)
(0.149532 0.00104536 0)
(0.148265 0.00100599 0)
(0.147026 0.000966868 0)
(0.145807 0.000936611 0)
(0.144605 0.000904641 0)
(0.143424 0.000866574 0)
(0.142269 0.000833565 0)
(0.141136 0.00080758 0)
(0.14003 0.00077161 0)
(0.138948 0.000741682 0)
(0.137894 0.000712934 0)
(0.136857 0.000690943 0)
(0.135848 0.000659413 0)
(0.134861 0.000637544 0)
(0.133902 0.000609201 0)
(0.132965 0.000591106 0)
(0.132046 0.0005641 0)
(0.131169 0.000542179 0)
(0.130272 0.00052628 0)
(0.129483 0.000501378 0)
(0.128532 0.000491495 0)
(0.127995 0.000455045 0)
(0.126677 0.00046968 0)
(0.194701 0.00751859 0)
(0.196081 0.00949578 0)
(0.197815 0.0101229 0)
(0.199544 0.0101072 0)
(0.200623 0.00956366 0)
(0.201335 0.00793376 0)
(0.20241 0.00799628 0)
(0.2028 0.00687401 0)
(0.20265 0.00639697 0)
(0.202683 0.00603048 0)
(0.202875 0.00576132 0)
(0.202927 0.00572329 0)
(0.202782 0.00564732 0)
(0.202422 0.00533572 0)
(0.201973 0.00485817 0)
(0.201698 0.00451604 0)
(0.201626 0.00423336 0)
(0.201596 0.00414708 0)
(0.201506 0.0041564 0)
(0.201201 0.00415245 0)
(0.200628 0.00403109 0)
(0.199903 0.00383655 0)
(0.199204 0.00367069 0)
(0.198564 0.00351498 0)
(0.197928 0.00339202 0)
(0.197232 0.00332796 0)
(0.196415 0.00324596 0)
(0.195476 0.0031382 0)
(0.194477 0.00300153 0)
(0.193485 0.00286699 0)
(0.192526 0.002765 0)
(0.191578 0.00268478 0)
(0.190588 0.00262565 0)
(0.189508 0.00257315 0)
(0.188328 0.00248628 0)
(0.187101 0.00236726 0)
(0.18591 0.00227043 0)
(0.184773 0.00220281 0)
(0.183627 0.00215012 0)
(0.182419 0.00209029 0)
(0.181156 0.002014 0)
(0.179887 0.00192819 0)
(0.178646 0.0018606 0)
(0.17743 0.00180025 0)
(0.176212 0.00174829 0)
(0.174976 0.00170146 0)
(0.173722 0.00164225 0)
(0.172469 0.00157698 0)
(0.171224 0.00152731 0)
(0.169996 0.00147393 0)
(0.168782 0.00142159 0)
(0.167577 0.00137626 0)
(0.166389 0.00132564 0)
(0.165213 0.00127925 0)
(0.164055 0.00123271 0)
(0.162908 0.00119751 0)
(0.161767 0.00116055 0)
(0.160635 0.00111527 0)
(0.159518 0.00107565 0)
(0.158412 0.00104415 0)
(0.157326 0.00100008 0)
(0.156258 0.000963422 0)
(0.155214 0.000928327 0)
(0.154177 0.000901327 0)
(0.153161 0.000862151 0)
(0.152162 0.000834589 0)
(0.151188 0.000798744 0)
(0.150231 0.000776372 0)
(0.14929 0.000741636 0)
(0.148383 0.000715553 0)
(0.147458 0.000691783 0)
(0.146631 0.000667168 0)
(0.145642 0.000642967 0)
(0.14507 0.000615767 0)
(0.143678 0.000612178 0)
(0.195097 0.00719014 0)
(0.19631 0.0088516 0)
(0.197969 0.00949671 0)
(0.19947 0.00962815 0)
(0.200533 0.00886597 0)
(0.201297 0.00805062 0)
(0.202051 0.00789614 0)
(0.202556 0.00654559 0)
(0.202515 0.00630861 0)
(0.20259 0.00599341 0)
(0.202792 0.00580148 0)
(0.202838 0.00577381 0)
(0.202722 0.00570157 0)
(0.202517 0.00543276 0)
(0.202259 0.00494334 0)
(0.202127 0.00449333 0)
(0.202152 0.00428375 0)
(0.202269 0.00412921 0)
(0.202405 0.00416038 0)
(0.202372 0.0042166 0)
(0.202139 0.00415513 0)
(0.201779 0.00397248 0)
(0.201421 0.00380214 0)
(0.201109 0.0036274 0)
(0.200845 0.00350446 0)
(0.200581 0.0034702 0)
(0.200224 0.00341483 0)
(0.199743 0.0033308 0)
(0.199181 0.003213 0)
(0.198605 0.00307659 0)
(0.19807 0.00296059 0)
(0.197574 0.00287842 0)
(0.197062 0.00283458 0)
(0.196466 0.00281069 0)
(0.195744 0.00275048 0)
(0.194926 0.00263547 0)
(0.194118 0.00252497 0)
(0.193377 0.00244718 0)
(0.192649 0.00240186 0)
(0.191856 0.00235901 0)
(0.190977 0.00229407 0)
(0.190049 0.00220522 0)
(0.189126 0.00213101 0)
(0.188228 0.00206555 0)
(0.187336 0.00201385 0)
(0.186417 0.00197244 0)
(0.185459 0.00191669 0)
(0.184472 0.00184991 0)
(0.183472 0.00179746 0)
(0.182475 0.00173967 0)
(0.18148 0.00168279 0)
(0.180485 0.00163409 0)
(0.179495 0.00157866 0)
(0.178508 0.00152777 0)
(0.17753 0.00147628 0)
(0.176553 0.00143882 0)
(0.175571 0.00139979 0)
(0.174585 0.0013502 0)
(0.173603 0.00130689 0)
(0.172617 0.00127238 0)
(0.171638 0.00122194 0)
(0.170669 0.00117993 0)
(0.169717 0.00114007 0)
(0.168765 0.00111 0)
(0.167822 0.00106487 0)
(0.166885 0.00103296 0)
(0.165967 0.000990176 0)
(0.16506 0.000964746 0)
(0.164163 0.000922623 0)
(0.163294 0.00089413 0)
(0.162405 0.000862045 0)
(0.161599 0.000840759 0)
(0.160634 0.00080064 0)
(0.160069 0.000785249 0)
(0.15869 0.000762694 0)
(0.195538 0.00681401 0)
(0.196634 0.00826054 0)
(0.198077 0.00921144 0)
(0.199435 0.00872892 0)
(0.200465 0.00928593 0)
(0.201221 0.00790135 0)
(0.20182 0.00712051 0)
(0.202226 0.00709562 0)
(0.202353 0.0061035 0)
(0.202478 0.00582597 0)
(0.202662 0.00580482 0)
(0.202659 0.00581584 0)
(0.202561 0.00572075 0)
(0.202466 0.00548181 0)
(0.202341 0.0049782 0)
(0.20226 0.00448968 0)
(0.202275 0.00421347 0)
(0.202373 0.00406504 0)
(0.202522 0.00413471 0)
(0.202557 0.00423102 0)
(0.202468 0.00422017 0)
(0.2023 0.00404916 0)
(0.202118 0.00388011 0)
(0.201941 0.00368061 0)
(0.201822 0.00353249 0)
(0.20176 0.00352168 0)
(0.201644 0.00349413 0)
(0.201432 0.00342814 0)
(0.201143 0.00332092 0)
(0.20083 0.00318543 0)
(0.200557 0.00305659 0)
(0.200348 0.00296697 0)
(0.200151 0.0029339 0)
(0.199897 0.00293638 0)
(0.199524 0.00290611 0)
(0.199037 0.0028059 0)
(0.19854 0.00268633 0)
(0.198117 0.00259471 0)
(0.197732 0.00255241 0)
(0.197301 0.00252718 0)
(0.196776 0.00248314 0)
(0.196177 0.002401 0)
(0.195563 0.00232348 0)
(0.194969 0.00225202 0)
(0.194393 0.00219976 0)
(0.193803 0.00216577 0)
(0.193167 0.00211953 0)
(0.192482 0.00205858 0)
(0.191766 0.00200819 0)
(0.191039 0.00194938 0)
(0.190306 0.00189103 0)
(0.189564 0.00184182 0)
(0.18882 0.00178414 0)
(0.188075 0.0017307 0)
(0.187333 0.0016766 0)
(0.186586 0.00163974 0)
(0.185823 0.00160142 0)
(0.185048 0.00155041 0)
(0.184267 0.00150685 0)
(0.183472 0.00147284 0)
(0.182667 0.00141881 0)
(0.181862 0.00137329 0)
(0.181067 0.00133047 0)
(0.180267 0.00129955 0)
(0.179466 0.00125105 0)
(0.178658 0.0012172 0)
(0.177859 0.00116891 0)
(0.177063 0.00114205 0)
(0.176273 0.00109331 0)
(0.175502 0.00106427 0)
(0.174711 0.00102454 0)
(0.173986 0.00100925 0)
(0.173108 0.000954054 0)
(0.172593 0.00095119 0)
(0.171315 0.000911867 0)
(0.195999 0.00654249 0)
(0.196964 0.00778435 0)
(0.19817 0.00877281 0)
(0.199433 0.00824052 0)
(0.200334 0.00911261 0)
(0.201086 0.0075359 0)
(0.20166 0.00703021 0)
(0.20198 0.00693801 0)
(0.202162 0.00612991 0)
(0.202338 0.00574321 0)
(0.202521 0.00572555 0)
(0.202503 0.00580019 0)
(0.202431 0.00571746 0)
(0.202394 0.0055292 0)
(0.202349 0.00500843 0)
(0.202317 0.00455382 0)
(0.202317 0.00423181 0)
(0.202369 0.00403687 0)
(0.202464 0.00410239 0)
(0.202499 0.00424047 0)
(0.20245 0.00423 0)
(0.202379 0.00408051 0)
(0.202289 0.00393005 0)
(0.202151 0.00372806 0)
(0.202061 0.0035384 0)
(0.202067 0.00353375 0)
(0.20204 0.00351803 0)
(0.201945 0.00347878 0)
(0.201798 0.00339253 0)
(0.201632 0.00324193 0)
(0.201497 0.00309458 0)
(0.201427 0.00298995 0)
(0.201385 0.00295824 0)
(0.20131 0.00298929 0)
(0.201143 0.00299061 0)
(0.200874 0.00290293 0)
(0.200589 0.00277399 0)
(0.200377 0.00266752 0)
(0.200217 0.00262655 0)
(0.200031 0.00261552 0)
(0.199762 0.00259228 0)
(0.199416 0.00252305 0)
(0.199044 0.00244755 0)
(0.198687 0.00236846 0)
(0.198357 0.00231239 0)
(0.198032 0.00228435 0)
(0.197671 0.00224894 0)
(0.197256 0.00219852 0)
(0.1968 0.00215477 0)
(0.196325 0.00209783 0)
(0.195838 0.00203991 0)
(0.195339 0.00199194 0)
(0.194832 0.00193395 0)
(0.194325 0.00187888 0)
(0.193824 0.00182339 0)
(0.193316 0.0017894 0)
(0.192785 0.0017538 0)
(0.192236 0.0017032 0)
(0.191679 0.00166193 0)
(0.191103 0.0016316 0)
(0.190505 0.00157745 0)
(0.189896 0.00153063 0)
(0.189291 0.00148636 0)
(0.188678 0.00145626 0)
(0.188058 0.00140694 0)
(0.187423 0.00137387 0)
(0.186785 0.00132243 0)
(0.186141 0.00129591 0)
(0.185498 0.00124189 0)
(0.184867 0.00121341 0)
(0.184217 0.00116758 0)
(0.183618 0.00115982 0)
(0.182878 0.00109274 0)
(0.182448 0.00110115 0)
(0.181347 0.0010498 0)
(0.196395 0.00615581 0)
(0.197229 0.00772055 0)
(0.198305 0.00765643 0)
(0.199364 0.0086556 0)
(0.200223 0.0079837 0)
(0.200936 0.00784495 0)
(0.20151 0.00682368 0)
(0.201781 0.00674597 0)
(0.202013 0.00599658 0)
(0.202226 0.00550388 0)
(0.202382 0.00574007 0)
(0.202379 0.00583028 0)
(0.20233 0.00575577 0)
(0.202294 0.00556713 0)
(0.202336 0.0050113 0)
(0.202366 0.00451241 0)
(0.20232 0.00417579 0)
(0.202327 0.00401994 0)
(0.202371 0.00409448 0)
(0.202382 0.00424062 0)
(0.202363 0.00425488 0)
(0.202353 0.00408968 0)
(0.2023 0.00397361 0)
(0.202172 0.00375015 0)
(0.202098 0.00354243 0)
(0.202107 0.00353656 0)
(0.202081 0.00353619 0)
(0.202019 0.00350068 0)
(0.201947 0.00341997 0)
(0.201866 0.00328254 0)
(0.201797 0.00310266 0)
(0.201775 0.00299576 0)
(0.201781 0.00296931 0)
(0.201773 0.00300385 0)
(0.201697 0.00303443 0)
(0.201547 0.00296275 0)
(0.201395 0.00282151 0)
(0.201307 0.00269469 0)
(0.201264 0.00264716 0)
(0.201204 0.00265289 0)
(0.201079 0.00264913 0)
(0.200891 0.00258969 0)
(0.200682 0.00252023 0)
(0.200482 0.00243479 0)
(0.20031 0.0023707 0)
(0.200157 0.00234562 0)
(0.199984 0.0023201 0)
(0.199768 0.00228009 0)
(0.19951 0.00224467 0)
(0.199228 0.0021925 0)
(0.198936 0.0021365 0)
(0.19863 0.00209028 0)
(0.198314 0.00203244 0)
(0.198001 0.00197498 0)
(0.197701 0.00191798 0)
(0.197398 0.00188842 0)
(0.197071 0.0018569 0)
(0.196722 0.00180725 0)
(0.196366 0.00176906 0)
(0.195994 0.00174382 0)
(0.195595 0.00169237 0)
(0.195179 0.00164679 0)
(0.19476 0.00160239 0)
(0.194333 0.00157358 0)
(0.193896 0.00152532 0)
(0.193443 0.001495 0)
(0.192979 0.00144312 0)
(0.192501 0.0014185 0)
(0.192017 0.00136108 0)
(0.191541 0.00133331 0)
(0.191051 0.00128334 0)
(0.190599 0.00128281 0)
(0.190024 0.0012088 0)
(0.189696 0.0012254 0)
(0.188819 0.00116819 0)
(0.196725 0.00580761 0)
(0.197501 0.00735957 0)
(0.198426 0.00715159 0)
(0.199277 0.00846239 0)
(0.200155 0.00739268 0)
(0.200778 0.00810283 0)
(0.20132 0.00661399 0)
(0.201675 0.00626629 0)
(0.201929 0.00605298 0)
(0.202112 0.00551542 0)
(0.202211 0.00567065 0)
(0.202246 0.00580138 0)
(0.202196 0.00584345 0)
(0.202199 0.0055874 0)
(0.202377 0.0048675 0)
(0.202407 0.00459925 0)
(0.202286 0.0042118 0)
(0.202246 0.00401578 0)
(0.202262 0.0040669 0)
(0.20227 0.0042577 0)
(0.202283 0.00421854 0)
(0.202303 0.00411294 0)
(0.202263 0.00401929 0)
(0.202148 0.00375034 0)
(0.202092 0.00356416 0)
(0.202089 0.00355262 0)
(0.202044 0.00352591 0)
(0.201987 0.00350978 0)
(0.201952 0.00344582 0)
(0.201913 0.00329752 0)
(0.201873 0.00313139 0)
(0.20185 0.00299566 0)
(0.201858 0.00296009 0)
(0.201862 0.00301719 0)
(0.201817 0.00305287 0)
(0.201731 0.00300063 0)
(0.201663 0.00284278 0)
(0.201636 0.00269305 0)
(0.201635 0.00265796 0)
(0.201622 0.00266932 0)
(0.201559 0.0026829 0)
(0.201454 0.00262754 0)
(0.201343 0.00255926 0)
(0.201235 0.00247063 0)
(0.201146 0.00239818 0)
(0.20108 0.00237068 0)
(0.201012 0.00235303 0)
(0.200916 0.00232328 0)
(0.200785 0.00229311 0)
(0.200632 0.0022461 0)
(0.20047 0.00219382 0)
(0.200297 0.00215001 0)
(0.200111 0.00209286 0)
(0.19993 0.00203086 0)
(0.199772 0.00197049 0)
(0.199619 0.00194516 0)
(0.199442 0.00191888 0)
(0.199244 0.00187077 0)
(0.199041 0.00183526 0)
(0.198827 0.00181458 0)
(0.198588 0.00176644 0)
(0.198332 0.00172367 0)
(0.198071 0.00168102 0)
(0.1978 0.00165288 0)
(0.197521 0.00160645 0)
(0.197229 0.00157968 0)
(0.196922 0.00152977 0)
(0.196597 0.00150797 0)
(0.196261 0.00144934 0)
(0.195929 0.00142145 0)
(0.195587 0.00136952 0)
(0.195276 0.00137391 0)
(0.194867 0.0012985 0)
(0.19464 0.00131927 0)
(0.193996 0.00126226 0)
(0.197038 0.00547084 0)
(0.197762 0.00714905 0)
(0.198528 0.00679483 0)
(0.199222 0.00788606 0)
(0.200071 0.00766796 0)
(0.200658 0.00727527 0)
(0.20113 0.00673078 0)
(0.20162 0.00628037 0)
(0.20192 0.00581984 0)
(0.20193 0.00547992 0)
(0.201973 0.00575838 0)
(0.202126 0.0057148 0)
(0.202116 0.00574075 0)
(0.202159 0.00547787 0)
(0.20238 0.00490601 0)
(0.202372 0.00463497 0)
(0.202216 0.00422057 0)
(0.20216 0.00403806 0)
(0.202167 0.00405943 0)
(0.202188 0.00425718 0)
(0.202218 0.00423013 0)
(0.202251 0.00409808 0)
(0.202204 0.00403953 0)
(0.202112 0.00379357 0)
(0.202078 0.00355734 0)
(0.202042 0.00358757 0)
(0.201977 0.00358797 0)
(0.201944 0.00350115 0)
(0.201931 0.00344544 0)
(0.201905 0.0032975 0)
(0.201877 0.00313405 0)
(0.201847 0.00299506 0)
(0.201845 0.00297048 0)
(0.201842 0.00300909 0)
(0.2018 0.00308516 0)
(0.201754 0.0030107 0)
(0.201739 0.0028364 0)
(0.201729 0.00270554 0)
(0.20173 0.00265702 0)
(0.20173 0.00267484 0)
(0.201683 0.0027003 0)
(0.201617 0.00265205 0)
(0.201563 0.00258413 0)
(0.201505 0.00248828 0)
(0.20145 0.00241335 0)
(0.201415 0.00238105 0)
(0.201391 0.00236398 0)
(0.201358 0.0023441 0)
(0.201298 0.00231908 0)
(0.201218 0.00227329 0)
(0.201131 0.0022249 0)
(0.201037 0.00218397 0)
(0.20093 0.00212927 0)
(0.200826 0.00205965 0)
(0.200751 0.00199526 0)
(0.200692 0.00197304 0)
(0.200612 0.00195045 0)
(0.200512 0.00190486 0)
(0.200408 0.00187206 0)
(0.200296 0.00185516 0)
(0.200165 0.00180995 0)
(0.200025 0.00176869 0)
(0.199879 0.00172933 0)
(0.199722 0.00170173 0)
(0.199559 0.0016566 0)
(0.199388 0.00163256 0)
(0.199204 0.00158664 0)
(0.199003 0.00156791 0)
(0.198786 0.00151028 0)
(0.19857 0.00148076 0)
(0.198349 0.00142897 0)
(0.198153 0.00143468 0)
(0.197885 0.00136227 0)
(0.197745 0.00138339 0)
(0.197309 0.00133143 0)
(0.197343 0.00528076 0)
(0.197985 0.00684513 0)
(0.198636 0.00656309 0)
(0.199219 0.00737244 0)
(0.199984 0.00757416 0)
(0.200595 0.00691951 0)
(0.201047 0.00658477 0)
(0.201488 0.00646656 0)
(0.20179 0.00564489 0)
(0.201787 0.00537034 0)
(0.201818 0.00552444 0)
(0.201981 0.00583828 0)
(0.202069 0.00573655 0)
(0.202161 0.00539815 0)
(0.202347 0.00487918 0)
(0.202286 0.0046382 0)
(0.202122 0.00424335 0)
(0.202074 0.0040537 0)
(0.20209 0.00405016 0)
(0.20213 0.00424503 0)
(0.202166 0.00419286 0)
(0.2022 0.00411733 0)
(0.202143 0.00407791 0)
(0.202063 0.00378367 0)
(0.202048 0.00361031 0)
(0.20199 0.00356434 0)
(0.201915 0.00353017 0)
(0.201906 0.00354341 0)
(0.201896 0.00348459 0)
(0.20188 0.00331625 0)
(0.201863 0.00313747 0)
(0.201832 0.00301247 0)
(0.201809 0.00294771 0)
(0.201787 0.00306772 0)
(0.201755 0.00306821 0)
(0.201741 0.00300411 0)
(0.201745 0.00285659 0)
(0.201735 0.0027099 0)
(0.201733 0.00264996 0)
(0.201729 0.0026823 0)
(0.201681 0.0027122 0)
(0.201636 0.00265677 0)
(0.201615 0.00260268 0)
(0.20158 0.00250511 0)
(0.201537 0.00242009 0)
(0.201505 0.00238759 0)
(0.201492 0.002368 0)
(0.201486 0.00235132 0)
(0.201461 0.00233468 0)
(0.201418 0.00229042 0)
(0.20137 0.00224144 0)
(0.201318 0.00220255 0)
(0.201254 0.00215084 0)
(0.201189 0.00208234 0)
(0.201157 0.00200081 0)
(0.201145 0.00198187 0)
(0.201118 0.00196243 0)
(0.201075 0.00191949 0)
(0.201026 0.00188984 0)
(0.200969 0.00187453 0)
(0.200899 0.00183349 0)
(0.20083 0.00179314 0)
(0.20076 0.00175571 0)
(0.200677 0.00172956 0)
(0.200587 0.00168589 0)
(0.200494 0.00166186 0)
(0.200394 0.00162028 0)
(0.20028 0.00160456 0)
(0.200148 0.00155045 0)
(0.200015 0.00151767 0)
(0.19988 0.00146799 0)
(0.199765 0.00147131 0)
(0.199602 0.00140437 0)
(0.199526 0.00142222 0)
(0.199253 0.00137846 0)
(0.197622 0.00501506 0)
(0.198189 0.00652525 0)
(0.198764 0.00631937 0)
(0.199249 0.00700627 0)
(0.199934 0.00741297 0)
(0.200569 0.00661104 0)
(0.200941 0.00663933 0)
(0.201338 0.00609735 0)
(0.201674 0.00554466 0)
(0.20166 0.00550542 0)
(0.201674 0.00541484 0)
(0.201865 0.00562392 0)
(0.202024 0.00573414 0)
(0.202156 0.00535789 0)
(0.202273 0.00494118 0)
(0.202174 0.00471824 0)
(0.202024 0.00425147 0)
(0.201991 0.00408713 0)
(0.202019 0.00399572 0)
(0.202069 0.00433414 0)
(0.202135 0.00409906 0)
(0.202142 0.00419345 0)
(0.20207 0.00402213 0)
(0.202019 0.00377541 0)
(0.202002 0.00365816 0)
(0.201933 0.00358332 0)
(0.201878 0.00360233 0)
(0.201862 0.00354554 0)
(0.201853 0.00346221 0)
(0.201854 0.00329239 0)
(0.20184 0.00315573 0)
(0.201807 0.00300506 0)
(0.201769 0.00298975 0)
(0.201731 0.00302173 0)
(0.201711 0.00307793 0)
(0.201714 0.00302277 0)
(0.201726 0.00285274 0)
(0.201721 0.00271827 0)
(0.20171 0.00265354 0)
(0.201692 0.00269274 0)
(0.201643 0.00273807 0)
(0.201615 0.00265547 0)
(0.20161 0.00259979 0)
(0.201584 0.00252007 0)
(0.201546 0.00243511 0)
(0.20151 0.00239355 0)
(0.201493 0.00236581 0)
(0.201494 0.00235286 0)
(0.201484 0.00233828 0)
(0.201461 0.00230046 0)
(0.201432 0.00225363 0)
(0.201401 0.00221418 0)
(0.201361 0.0021677 0)
(0.201313 0.00207629 0)
(0.201299 0.00200398 0)
(0.201306 0.00198605 0)
(0.201303 0.00197119 0)
(0.201288 0.00192693 0)
(0.201267 0.00190273 0)
(0.201233 0.0018858 0)
(0.20119 0.0018391 0)
(0.20116 0.00180603 0)
(0.201134 0.00176945 0)
(0.201092 0.00174348 0)
(0.201042 0.00170355 0)
(0.200994 0.00167745 0)
(0.200944 0.00163892 0)
(0.200884 0.00162388 0)
(0.200807 0.00157618 0)
(0.200727 0.00153881 0)
(0.200646 0.00149315 0)
(0.200581 0.0014914 0)
(0.200486 0.00143176 0)
(0.200449 0.00144306 0)
(0.20029 0.00140814 0)
(0.197882 0.0048654 0)