/*--------------------------------*- C++ -*----------------------------------*\
| =========                 |                                                 |
| \\      /  F ield         | OpenFOAM: The Open Source CFD Toolbox           |
|  \\    /   O peration     | Version:  2.3.0                                 |
|   \\  /    A nd           | Web:      www.OpenFOAM.org                      |
|    \\/     M anipulation  |                                                 |
\*---------------------------------------------------------------------------*/
FoamFile
{
    version     2.0;
    format      ascii;
    class       surfaceScalarField;
    location    "1";
    object      phi_0;
}
// * * * * * * * * * * * * * * * * * * * * * * * * * * * * * * * * * * * * * //

dimensions      [0 3 -1 0 0 0 0];

internalField   nonuniform List<scalar> 
5764
(
2.00244e-08
5.01078e-09
-2.50352e-08
1.48944e-08
5.13002e-09
1.09257e-08
3.96867e-09
8.23213e-09
2.6936e-09
6.59098e-09
1.64115e-09
5.64063e-09
9.50354e-10
5.07055e-09
5.70078e-10
4.69078e-09
3.79768e-10
4.40169e-09
2.89092e-10
4.15913e-09
2.42561e-10
3.94674e-09
2.12389e-10
3.75881e-09
1.87931e-10
3.59226e-09
1.66547e-10
3.44424e-09
1.48026e-10
3.31184e-09
1.32398e-10
3.19251e-09
1.1933e-10
3.08412e-09
1.08394e-10
2.98502e-09
9.90975e-11
2.8939e-09
9.1119e-11
2.80975e-09
8.4148e-11
2.73171e-09
7.80395e-11
2.65911e-09
7.26037e-11
2.59132e-09
6.77841e-11
2.52788e-09
6.34401e-11
2.46833e-09
5.95584e-11
2.41231e-09
5.60205e-11
2.35946e-09
5.28411e-11
2.30955e-09
4.99117e-11
2.26228e-09
4.72714e-11
2.21747e-09
4.48109e-11
2.17488e-09
4.2593e-11
2.13437e-09
4.0503e-11
2.09575e-09
3.86214e-11
2.05892e-09
3.68292e-11
2.0237e-09
3.52207e-11
1.99003e-09
3.36688e-11
1.95775e-09
3.22876e-11
1.92682e-09
3.09309e-11
1.89708e-09
2.97398e-11
1.86853e-09
2.85459e-11
1.84102e-09
2.75141e-11
1.81456e-09
2.64555e-11
1.789e-09
2.55625e-11
1.76439e-09
2.4612e-11
1.74054e-09
2.38436e-11
1.71756e-09
2.29811e-11
1.69524e-09
2.23208e-11
1.67371e-09
2.15343e-11
1.65274e-09
2.09683e-11
1.63249e-09
2.02434e-11
1.61273e-09
1.97675e-11
1.59364e-09
1.90856e-11
1.57494e-09
1.86989e-11
1.5569e-09
1.80457e-11
1.53915e-09
1.77465e-11
1.52204e-09
1.71101e-11
1.50514e-09
1.68999e-11
1.48887e-09
1.62668e-11
1.47272e-09
1.61495e-11
1.45722e-09
1.55061e-11
1.44173e-09
1.54913e-11
1.42691e-09
1.48177e-11
1.41198e-09
1.49251e-11
1.39779e-09
1.41974e-11
1.38334e-09
1.44494e-11
1.36969e-09
1.36428e-11
1.35562e-09
1.40713e-11
1.34247e-09
1.31504e-11
1.32867e-09
1.38052e-11
1.31595e-09
1.27217e-11
1.30226e-09
1.3681e-11
1.2899e-09
1.23616e-11
1.27615e-09
1.37568e-11
1.26404e-09
1.211e-11
1.53947e-11
2.69243e-08
4.90543e-09
-2.6819e-08
2.55752e-08
6.47915e-09
2.35612e-08
5.98264e-09
2.14034e-08
4.85139e-09
1.93766e-08
3.66798e-09
1.76078e-08
2.71915e-09
1.61241e-08
2.05378e-09
1.4906e-08
1.59783e-09
1.39101e-08
1.28498e-09
1.30871e-08
1.06561e-09
1.23931e-08
9.0634e-10
1.17956e-08
7.85399e-10
1.12725e-08
6.8972e-10
1.08086e-08
6.11907e-10
1.03933e-08
5.4771e-10
1.00185e-08
4.94134e-10
9.67784e-09
4.49029e-10
9.36638e-09
4.10559e-10
9.08006e-09
3.77446e-10
8.81563e-09
3.48573e-10
8.57041e-09
3.23255e-10
8.34221e-09
3.00808e-10
8.12913e-09
2.80868e-10
7.9296e-09
2.62967e-10
7.74225e-09
2.46912e-10
7.56592e-09
2.3235e-10
7.39957e-09
2.19191e-10
7.24233e-09
2.07145e-10
7.09341e-09
1.96199e-10
6.95212e-09
1.86092e-10
6.81784e-09
1.76875e-10
6.69005e-09
1.683e-10
6.56821e-09
1.60457e-10
6.45193e-09
1.53111e-10
6.34077e-09
1.46382e-10
6.2344e-09
1.40034e-10
6.13247e-09
1.34222e-10
6.03471e-09
1.28692e-10
5.9408e-09
1.23643e-10
5.85055e-09
1.18797e-10
5.76368e-09
1.14387e-10
5.68002e-09
1.10114e-10
5.59933e-09
1.0625e-10
5.52149e-09
1.02452e-10
5.44627e-09
9.90651e-11
5.37359e-09
9.56653e-11
5.30322e-09
9.26885e-11
5.23512e-09
8.96349e-11
5.16908e-09
8.70106e-11
5.10507e-09
8.42519e-11
5.04289e-09
8.1947e-11
4.98255e-09
7.94268e-11
4.92383e-09
7.74199e-11
4.86678e-09
7.50938e-11
4.81116e-09
7.33641e-11
4.75707e-09
7.11966e-11
4.70424e-09
6.9732e-11
4.65282e-09
6.76872e-11
4.60249e-09
6.64819e-11
4.55347e-09
6.4528e-11
4.50537e-09
6.35885e-11
4.4585e-09
6.16839e-11
4.41239e-09
6.10406e-11
4.36745e-09
5.91367e-11
4.32307e-09
5.88269e-11
4.27984e-09
5.68794e-11
4.23695e-09
5.69592e-11
4.19519e-09
5.49095e-11
4.15352e-09
5.54714e-11
4.113e-09
5.32469e-11
4.07224e-09
5.44366e-11
4.03266e-09
5.19421e-11
3.99241e-09
5.40052e-11
3.95329e-09
5.12321e-11
5.73179e-11
2.83081e-08
4.27277e-09
-2.76755e-08
2.86202e-08
6.16711e-09
2.83091e-08
6.29369e-09
2.75909e-08
5.56957e-09
2.66289e-08
4.62998e-09
2.55489e-08
3.79915e-09
2.44385e-08
3.16419e-09
2.33503e-08
2.68609e-09
2.23183e-08
2.3169e-09
2.13595e-08
2.02449e-09
2.0477e-08
1.78885e-09
1.96672e-08
1.5951e-09
1.89246e-08
1.43236e-09
1.8243e-08
1.29348e-09
1.76167e-08
1.17408e-09
1.70399e-08
1.07093e-09
1.65073e-08
9.81579e-10
1.60142e-08
9.03704e-10
1.55561e-08
8.35506e-10
1.51294e-08
7.75313e-10
1.47307e-08
7.21949e-10
1.43572e-08
6.74283e-10
1.40065e-08
6.31584e-10
1.36764e-08
5.93063e-10
1.3365e-08
5.58258e-10
1.30708e-08
5.26593e-10
1.27922e-08
4.97775e-10
1.2528e-08
4.71365e-10
1.2277e-08
4.47186e-10
1.20382e-08
4.24885e-10
1.18107e-08
4.04373e-10
1.15937e-08
3.85349e-10
1.13863e-08
3.67778e-10
1.1188e-08
3.51412e-10
1.09982e-08
3.36237e-10
1.08162e-08
3.2205e-10
1.06415e-08
3.08858e-10
1.04738e-08
2.96476e-10
1.03125e-08
2.84939e-10
1.01572e-08
2.74075e-10
1.00076e-08
2.63926e-10
9.8634e-09
2.5435e-10
9.72427e-09
2.45384e-10
9.58983e-09
2.36892e-10
9.45994e-09
2.28951e-10
9.33422e-09
2.21385e-10
9.21259e-09
2.1432e-10
9.09466e-09
2.07566e-10
8.98042e-09
2.01251e-10
8.86947e-09
1.95204e-10
8.76186e-09
1.89551e-10
8.65718e-09
1.84106e-10
8.55555e-09
1.7905e-10
8.45652e-09
1.74123e-10
8.36028e-09
1.69604e-10
8.26635e-09
1.65132e-10
8.17498e-09
1.61102e-10
8.08564e-09
1.57025e-10
7.99868e-09
1.53448e-10
7.91348e-09
1.49721e-10
7.83049e-09
1.46579e-10
7.74903e-09
1.43148e-10
7.66961e-09
1.40457e-10
7.59148e-09
1.37263e-10
7.51526e-09
1.35049e-10
7.44009e-09
1.32053e-10
7.36668e-09
1.30364e-10
7.29408e-09
1.27518e-10
7.22309e-09
1.26453e-10
7.15263e-09
1.23711e-10
7.08363e-09
1.23438e-10
7.01482e-09
1.20746e-10
6.9472e-09
1.21627e-10
6.87942e-09
1.19018e-10
1.25701e-10
2.91277e-08
3.86334e-09
-2.87183e-08
2.97211e-08
5.5737e-09
3.0007e-08
6.00788e-09
3.00098e-08
5.56669e-09
2.97924e-08
4.84737e-09
2.94114e-08
4.18018e-09
2.89155e-08
3.66009e-09
2.83405e-08
3.26111e-09
2.77173e-08
2.94011e-09
2.70701e-08
2.6717e-09
2.64151e-08
2.44383e-09
2.57625e-08
2.24775e-09
2.51189e-08
2.07592e-09
2.44896e-08
1.9228e-09
2.38785e-08
1.78519e-09
2.32883e-08
1.66108e-09
2.27208e-08
1.5491e-09
2.21766e-08
1.44787e-09
2.16559e-08
1.3562e-09
2.11583e-08
1.27293e-09
2.06831e-08
1.19713e-09
2.02295e-08
1.12791e-09
1.97965e-08
1.0646e-09
1.9383e-08
1.00654e-09
1.89881e-08
9.532e-10
1.86106e-08
9.04077e-10
1.82496e-08
8.58742e-10
1.79042e-08
8.16832e-10
1.75734e-08
7.77991e-10
1.72563e-08
7.41957e-10
1.69522e-08
7.08429e-10
1.66603e-08
6.77237e-10
1.638e-08
6.48093e-10
1.61105e-08
6.20933e-10
1.58513e-08
5.95441e-10
1.56017e-08
5.71663e-10
1.53613e-08
5.49249e-10
1.51294e-08
5.28329e-10
1.49059e-08
5.0852e-10
1.46899e-08
4.90047e-10
1.44814e-08
4.7245e-10
1.42796e-08
4.56085e-10
1.40846e-08
4.40388e-10
1.38957e-08
4.25833e-10
1.37129e-08
4.11787e-10
1.35354e-08
3.98803e-10
1.33636e-08
3.86174e-10
1.31966e-08
3.74589e-10
1.30346e-08
3.63171e-10
1.2877e-08
3.52826e-10
1.27241e-08
3.4247e-10
1.2575e-08
3.3321e-10
1.24302e-08
3.23796e-10
1.22889e-08
3.15502e-10
1.21516e-08
3.06914e-10
1.20172e-08
2.99497e-10
1.18867e-08
2.9164e-10
1.17587e-08
2.85022e-10
1.16343e-08
2.77815e-10
1.15121e-08
2.71943e-10
1.13933e-08
2.65323e-10
1.12763e-08
2.60141e-10
1.11627e-08
2.54093e-10
1.10504e-08
2.4955e-10
1.09414e-08
2.44065e-10
1.08333e-08
2.40143e-10
1.07284e-08
2.35241e-10
1.0624e-08
2.31927e-10
1.05228e-08
2.27689e-10
1.04215e-08
2.24981e-10
1.03233e-08
2.21602e-10
1.02246e-08
2.19463e-10
1.01287e-08
2.17541e-10
1.00319e-08
2.15868e-10
2.21126e-10
3.00301e-08
3.62078e-09
-2.97876e-08
3.05685e-08
5.03538e-09
3.09672e-08
5.60913e-09
3.11776e-08
5.35633e-09
3.12441e-08
4.78084e-09
3.1202e-08
4.22226e-09
3.10726e-08
3.78947e-09
3.08703e-08
3.46343e-09
3.0609e-08
3.20144e-09
3.03021e-08
2.9786e-09
2.99601e-08
2.78576e-09
2.95903e-08
2.61763e-09
2.91975e-08
2.46863e-09
2.87866e-08
2.3337e-09
2.83622e-08
2.20964e-09
2.79285e-08
2.09474e-09
2.74896e-08
1.98802e-09
2.70487e-08
1.88875e-09
2.66087e-08
1.7962e-09
2.61719e-08
1.70977e-09
2.57401e-08
1.62887e-09
2.53149e-08
1.5531e-09
2.48976e-08
1.48199e-09
2.44888e-08
1.41531e-09
2.40894e-08
1.35261e-09
2.36997e-08
1.29379e-09
2.33201e-08
1.23837e-09
2.29505e-08
1.18636e-09
2.25913e-08
1.13725e-09
2.22421e-08
1.09116e-09
2.1903e-08
1.04753e-09
2.15736e-08
1.0066e-09
2.1254e-08
9.67727e-10
2.09436e-08
9.31316e-10
2.06425e-08
8.96581e-10
2.035e-08
8.64122e-10
2.00662e-08
8.33002e-10
1.97906e-08
8.04006e-10
1.9523e-08
7.76043e-10
1.9263e-08
7.5011e-10
1.90105e-08
7.24892e-10
1.8765e-08
7.01675e-10
1.85265e-08
6.78864e-10
1.82943e-08
6.58041e-10
1.80687e-08
6.37354e-10
1.78488e-08
6.18663e-10
1.76352e-08
5.99821e-10
1.74267e-08
5.8307e-10
1.72241e-08
5.65816e-10
1.70261e-08
5.50827e-10
1.68336e-08
5.34969e-10
1.66452e-08
5.21559e-10
1.64621e-08
5.06933e-10
1.62826e-08
4.9497e-10
1.61081e-08
4.81411e-10
1.59368e-08
4.70799e-10
1.57703e-08
4.58165e-10
1.56065e-08
4.48822e-10
1.54473e-08
4.36984e-10
1.52904e-08
4.28864e-10
1.5138e-08
4.17711e-10
1.49874e-08
4.10773e-10
1.48412e-08
4.00249e-10
1.46963e-08
3.94461e-10
1.45559e-08
3.84515e-10
1.44161e-08
3.79895e-10
1.42808e-08
3.70513e-10
1.41457e-08
3.67087e-10
1.4015e-08
3.58343e-10
1.38839e-08
3.56141e-10
1.37572e-08
3.483e-10
1.36294e-08
3.47235e-10
1.35057e-08
3.41235e-10
1.33806e-08
3.41007e-10
3.43014e-10
3.1001e-08
3.46185e-09
-3.08421e-08
3.14451e-08
4.59123e-09
3.18421e-08
5.21212e-09
3.20895e-08
5.109e-09
3.22238e-08
4.64649e-09
3.2288e-08
4.15811e-09
3.23003e-08
3.77714e-09
3.22676e-08
3.49616e-09
3.2195e-08
3.27402e-09
3.20888e-08
3.08476e-09
3.19547e-08
2.91994e-09
3.17955e-08
2.77674e-09
3.16129e-08
2.65123e-09
3.14079e-08
2.53878e-09
3.11819e-08
2.43563e-09
3.09369e-08
2.33973e-09
3.06751e-08
2.2498e-09
3.03986e-08
2.16523e-09
3.01096e-08
2.0852e-09
2.981e-08
2.00937e-09
2.95019e-08
1.93703e-09
2.91868e-08
1.86813e-09
2.88668e-08
1.80207e-09
2.8543e-08
1.73906e-09
2.82172e-08
1.67847e-09
2.78903e-08
1.62069e-09
2.75636e-08
1.56501e-09
2.7238e-08
1.51201e-09
2.69144e-08
1.46082e-09
2.65933e-08
1.41221e-09
2.62757e-08
1.36517e-09
2.59616e-08
1.32064e-09
2.56519e-08
1.27742e-09
2.53466e-08
1.23669e-09
2.50462e-08
1.19696e-09
2.47506e-08
1.15975e-09
2.44603e-08
1.12324e-09
2.41751e-08
1.08927e-09
2.38954e-08
1.05571e-09
2.36207e-08
1.02476e-09
2.33518e-08
9.93854e-10
2.30878e-08
9.65704e-10
2.28294e-08
9.37201e-10
2.25758e-08
9.11612e-10
2.23279e-08
8.85295e-10
2.20845e-08
8.62071e-10
2.18466e-08
8.37693e-10
2.1613e-08
8.16698e-10
2.13848e-08
7.94013e-10
2.11605e-08
7.75106e-10
2.09416e-08
7.53924e-10
2.07262e-08
7.36951e-10
2.0516e-08
7.17102e-10
2.0309e-08
7.01957e-10
2.01072e-08
6.83253e-10
1.99081e-08
6.69866e-10
1.97141e-08
6.52142e-10
1.95225e-08
6.40455e-10
1.93359e-08
6.2355e-10
1.91512e-08
6.1355e-10
1.89716e-08
5.97317e-10
1.87934e-08
5.88995e-10
1.86203e-08
5.73347e-10
1.84481e-08
5.66704e-10
1.8281e-08
5.51562e-10
1.81143e-08
5.46659e-10
1.79528e-08
5.31991e-10
1.7791e-08
5.28886e-10
1.76345e-08
5.14791e-10
1.74772e-08
5.13518e-10
1.73251e-08
5.00383e-10
1.71715e-08
5.0077e-10
1.70229e-08
4.89891e-10
1.68724e-08
4.91502e-10
4.8889e-10
3.20115e-08
3.3407e-09
-3.18904e-08
3.23677e-08
4.23501e-09
3.27398e-08
4.84009e-09
3.29919e-08
4.85686e-09
3.31373e-08
4.50113e-09
3.32233e-08
4.07206e-09
3.32748e-08
3.72565e-09
3.32987e-08
3.47222e-09
3.32979e-08
3.2749e-09
3.32761e-08
3.10658e-09
3.32376e-08
2.95839e-09
3.31848e-08
2.82951e-09
3.31181e-08
2.71795e-09
3.30368e-08
2.62008e-09
3.29406e-08
2.53185e-09
3.28293e-08
2.45098e-09
3.27035e-08
2.37564e-09
3.25634e-08
2.30532e-09
3.24098e-08
2.23882e-09
3.22431e-08
2.17602e-09
3.20644e-08
2.11578e-09
3.18742e-08
2.05833e-09
3.16736e-08
2.00261e-09
3.14635e-08
1.94923e-09
3.12449e-08
1.89707e-09
3.10185e-08
1.84705e-09
3.07856e-08
1.79789e-09
3.05468e-08
1.75082e-09
3.03033e-08
1.70434e-09
3.00555e-08
1.65998e-09
2.98047e-08
1.616e-09
2.95511e-08
1.57424e-09
2.92959e-08
1.53262e-09
2.90392e-08
1.49341e-09
2.87821e-08
1.45405e-09
2.85245e-08
1.41732e-09
2.82676e-08
1.38015e-09
2.8011e-08
1.34584e-09
2.7756e-08
1.31077e-09
2.75019e-08
1.27884e-09
2.725e-08
1.24574e-09
2.69996e-08
1.21615e-09
2.67519e-08
1.18491e-09
2.65059e-08
1.15756e-09
2.62631e-08
1.12808e-09
2.60223e-08
1.1029e-09
2.5785e-08
1.07502e-09
2.55497e-08
1.052e-09
2.53181e-08
1.02554e-09
2.50886e-08
1.00462e-09
2.48631e-08
9.79435e-10
2.46395e-08
9.60541e-10
2.44201e-08
9.36498e-10
2.42025e-08
9.19595e-10
2.39892e-08
8.96527e-10
2.37775e-08
8.81608e-10
2.35703e-08
8.59358e-10
2.33643e-08
8.46415e-10
2.3163e-08
8.24823e-10
2.29627e-08
8.13904e-10
2.27672e-08
7.92812e-10
2.25722e-08
7.83962e-10
2.23823e-08
7.6328e-10
2.21924e-08
7.56542e-10
2.20078e-08
7.36193e-10
2.18228e-08
7.31669e-10
2.16432e-08
7.11641e-10
2.14626e-08
7.09412e-10
2.12876e-08
6.89869e-10
2.11111e-08
6.89954e-10
2.09401e-08
6.71443e-10
2.07672e-08
6.73594e-10
2.05994e-08
6.57711e-10
2.04295e-08
6.6146e-10
6.53656e-10
3.30507e-08
3.23274e-09
-3.29427e-08
3.33342e-08
3.95153e-09
3.3671e-08
4.50327e-09
3.39218e-08
4.60611e-09
3.40711e-08
4.35175e-09
3.41602e-08
3.98297e-09
3.42199e-08
3.66595e-09
3.42597e-08
3.43241e-09
3.42817e-08
3.25291e-09
3.42886e-08
3.09975e-09
3.42845e-08
2.96248e-09
3.42725e-08
2.84152e-09
3.42537e-08
2.73668e-09
3.42278e-08
2.64605e-09
3.4194e-08
2.56556e-09
3.41519e-08
2.49311e-09
3.41013e-08
2.4263e-09
3.40416e-08
2.36494e-09
3.39731e-08
2.30738e-09
3.38952e-08
2.25391e-09
3.38081e-08
2.20283e-09
3.37116e-08
2.15483e-09
3.36061e-08
2.10817e-09
3.34913e-08
2.06403e-09
3.33678e-08
2.02051e-09
3.32357e-08
1.97923e-09
3.30955e-08
1.93803e-09
3.29474e-08
1.89899e-09
3.27921e-08
1.85963e-09
3.26296e-08
1.82245e-09
3.2461e-08
1.78461e-09
3.22861e-08
1.74912e-09
3.21061e-08
1.71262e-09
3.19208e-08
1.67876e-09
3.17313e-08
1.64349e-09
3.15374e-08
1.61119e-09
3.13405e-08
1.57712e-09
3.11399e-08
1.5464e-09
3.09372e-08
1.51349e-09
3.07316e-08
1.4844e-09
3.05248e-08
1.4526e-09
3.03157e-08
1.4252e-09
3.01061e-08
1.39447e-09
2.98949e-08
1.36876e-09
2.96839e-08
1.33909e-09
2.94717e-08
1.31509e-09
2.92604e-08
1.2864e-09
2.90482e-08
1.26421e-09
2.88373e-08
1.23637e-09
2.86259e-08
1.21604e-09
2.84164e-08
1.18898e-09
2.82064e-08
1.1705e-09
2.79988e-08
1.14413e-09
2.77908e-08
1.12757e-09
2.75856e-08
1.10176e-09
2.738e-08
1.08719e-09
2.71775e-08
1.06182e-09
2.69746e-08
1.04929e-09
2.67752e-08
1.02424e-09
2.65753e-08
1.01387e-09
2.63791e-08
9.88982e-10
2.61822e-08
9.80876e-10
2.59893e-08
9.56106e-10
2.57955e-08
9.50351e-10
2.56061e-08
9.25654e-10
2.54154e-08
9.22386e-10
2.52292e-08
8.97813e-10
2.50415e-08
8.97123e-10
2.48584e-08
8.72941e-10
2.46735e-08
8.74828e-10
2.44932e-08
8.51754e-10
2.43109e-08
8.55927e-10
2.41328e-08
8.35781e-10
2.39524e-08
8.4183e-10
8.29303e-10
3.41127e-08
3.12804e-09
-3.4008e-08
3.43422e-08
3.72204e-09
3.4639e-08
4.20653e-09
3.48828e-08
4.3623e-09
3.50365e-08
4.19798e-09
3.51272e-08
3.89226e-09
3.51885e-08
3.60468e-09
3.52331e-08
3.38782e-09
3.52632e-08
3.22285e-09
3.528e-08
3.08294e-09
3.52872e-08
2.95524e-09
3.52884e-08
2.84036e-09
3.52857e-08
2.73935e-09
3.52794e-08
2.65233e-09
3.52695e-08
2.57549e-09
3.52554e-08
2.50723e-09
3.52371e-08
2.44453e-09
3.52144e-08
2.38773e-09
3.51871e-08
2.33463e-09
3.51548e-08
2.28624e-09
3.51175e-08
2.24016e-09
3.50745e-08
2.19783e-09
3.5026e-08
2.15667e-09
3.49713e-08
2.11868e-09
3.49108e-08
2.08099e-09
3.48439e-08
2.04618e-09
3.47709e-08
2.01098e-09
3.46913e-08
1.97857e-09
3.46058e-08
1.9452e-09
3.45136e-08
1.91463e-09
3.44156e-08
1.88261e-09
3.43111e-08
1.85357e-09
3.42012e-08
1.82257e-09
3.40851e-08
1.79489e-09
3.39639e-08
1.76468e-09
3.38369e-08
1.73821e-09
3.37053e-08
1.70868e-09
3.35683e-08
1.68335e-09
3.34274e-08
1.6544e-09
3.32816e-08
1.63026e-09
3.31324e-08
1.60178e-09
3.29787e-08
1.5789e-09
3.28223e-08
1.55086e-09
3.26618e-08
1.52921e-09
3.24993e-08
1.50161e-09
3.23332e-08
1.48125e-09
3.21656e-08
1.45401e-09
3.19947e-08
1.43509e-09
3.18229e-08
1.4081e-09
3.16483e-08
1.39073e-09
3.14733e-08
1.36394e-09
3.12956e-08
1.34815e-09
3.11183e-08
1.32151e-09
3.09384e-08
1.30742e-09
3.07594e-08
1.28083e-09
3.0578e-08
1.26857e-09
3.03978e-08
1.24196e-09
3.02155e-08
1.23162e-09
3.00349e-08
1.20489e-09
2.98521e-08
1.19665e-09
2.96714e-08
1.16968e-09
2.94885e-08
1.1637e-09
2.93082e-08
1.13649e-09
2.91256e-08
1.13288e-09
2.89458e-08
1.10546e-09
2.87639e-08
1.10435e-09
2.85848e-08
1.07687e-09
2.84036e-08
1.07835e-09
2.82253e-08
1.0512e-09
2.80449e-08
1.05526e-09
2.78673e-08
1.02931e-09
2.76876e-08
1.03565e-09
2.75105e-08
1.01286e-09
2.73312e-08
1.02118e-09
1.00545e-09
3.51959e-08
3.02501e-09
-3.50929e-08
3.5388e-08
3.52995e-09
3.56453e-08
3.94927e-09
3.58765e-08
4.1311e-09
3.60334e-08
4.04106e-09
3.61273e-08
3.79837e-09
3.61894e-08
3.54255e-09
3.6236e-08
3.3413e-09
3.62701e-08
3.18867e-09
3.62921e-08
3.061e-09
3.63043e-08
2.94298e-09
3.63102e-08
2.83447e-09
3.63127e-08
2.7369e-09
3.63125e-08
2.65246e-09
3.63103e-08
2.57771e-09
3.63057e-08
2.5119e-09
3.62989e-08
2.45126e-09
3.62898e-08
2.39682e-09
3.62788e-08
2.34567e-09
3.62653e-08
2.29974e-09
3.62496e-08
2.25584e-09
3.62311e-08
2.21635e-09
3.621e-08
2.17774e-09
3.61857e-08
2.14304e-09
3.61584e-08
2.10828e-09
3.61273e-08
2.07723e-09
3.6093e-08
2.04533e-09
3.60544e-08
2.01709e-09
3.60123e-08
1.98735e-09
3.59656e-08
1.96131e-09
3.59151e-08
1.93313e-09
3.58597e-08
1.90891e-09
3.58004e-08
1.88187e-09
3.57361e-08
1.85923e-09
3.56678e-08
1.83302e-09
3.55943e-08
1.81167e-09
3.55169e-08
1.78611e-09
3.54343e-08
1.76591e-09
3.5348e-08
1.74076e-09
3.52565e-08
1.72173e-09
3.51615e-08
1.69681e-09
3.50614e-08
1.67895e-09
3.49581e-08
1.65419e-09
3.48499e-08
1.6374e-09
3.47387e-08
1.61277e-09
3.46229e-08
1.59707e-09
3.45045e-08
1.5724e-09
3.43817e-08
1.55796e-09
3.42566e-08
1.53313e-09
3.41273e-08
1.52004e-09
3.39963e-08
1.49501e-09
3.38611e-08
1.48328e-09
3.37247e-08
1.45797e-09
3.35843e-08
1.44774e-09
3.34431e-08
1.42205e-09
3.32982e-08
1.41348e-09
3.31528e-08
1.38738e-09
3.30039e-08
1.38053e-09
3.28548e-08
1.35394e-09
3.27025e-08
1.34903e-09
3.25503e-08
1.32184e-09
3.2395e-08
1.31903e-09
3.22401e-08
1.29134e-09
3.20823e-08
1.2907e-09
3.19252e-08
1.2626e-09
3.17652e-08
1.26428e-09
3.16061e-08
1.23601e-09
3.14444e-08
1.24004e-09
3.12835e-08
1.21214e-09
3.11202e-08
1.21851e-09
3.09576e-08
1.19197e-09
3.07928e-08
1.20038e-09
3.06285e-08
1.1772e-09
3.04621e-08
1.18753e-09
1.17088e-09
3.63014e-08
2.92512e-09
-3.62016e-08
3.64678e-08
3.36357e-09
3.669e-08
3.72705e-09
3.69045e-08
3.9166e-09
3.70619e-08
3.8837e-09
3.71599e-08
3.70037e-09
3.72235e-08
3.47896e-09
3.72711e-08
3.29371e-09
3.7308e-08
3.15181e-09
3.73337e-08
3.03526e-09
3.73496e-08
2.92705e-09
3.73584e-08
2.82572e-09
3.73632e-08
2.73212e-09
3.73653e-08
2.65033e-09
3.73657e-08
2.57733e-09
3.73641e-08
2.5135e-09
3.7361e-08
2.45428e-09
3.73564e-08
2.40147e-09
3.73507e-08
2.35132e-09
3.73437e-08
2.30675e-09
3.73359e-08
2.26368e-09
3.73266e-08
2.22562e-09
3.73164e-08
2.18793e-09
3.73046e-08
2.15487e-09
3.72917e-08
2.12121e-09
3.72769e-08
2.09206e-09
3.72607e-08
2.06149e-09
3.72423e-08
2.03547e-09
3.72223e-08
2.00733e-09
3.71998e-08
1.98386e-09
3.71754e-08
1.95753e-09
3.71481e-08
1.93625e-09
3.71186e-08
1.9113e-09
3.7086e-08
1.89191e-09
3.70509e-08
1.86803e-09
3.70124e-08
1.85022e-09
3.69713e-08
1.82717e-09
3.69265e-08
1.81076e-09
3.6879e-08
1.78823e-09
3.68275e-08
1.77323e-09
3.67734e-08
1.75095e-09
3.6715e-08
1.73728e-09
3.6654e-08
1.71521e-09
3.65887e-08
1.70269e-09
3.65208e-08
1.68072e-09
3.64485e-08
1.66935e-09
3.63737e-08
1.64723e-09
3.62945e-08
1.63715e-09
3.62129e-08
1.61473e-09
3.6127e-08
1.60597e-09
3.60387e-08
1.58323e-09
3.59463e-08
1.57576e-09
3.58517e-08
1.55253e-09
3.5753e-08
1.54649e-09
3.56523e-08
1.52266e-09
3.55477e-08
1.51814e-09
3.54413e-08
1.49376e-09
3.53311e-08
1.49078e-09
3.52193e-08
1.46574e-09
3.51038e-08
1.46451e-09
3.49869e-08
1.43869e-09
3.48666e-08
1.43934e-09
3.4745e-08
1.41295e-09
3.46202e-08
1.41549e-09
3.44941e-08
1.38867e-09
3.43652e-08
1.3932e-09
3.42349e-08
1.36628e-09
3.41022e-08
1.37276e-09
3.3968e-08
1.34637e-09
3.38317e-08
1.35482e-09
3.36936e-08
1.33007e-09
3.35538e-08
1.34017e-09
3.3412e-08
1.31896e-09
3.32687e-08
1.33084e-09
1.31571e-09
3.74316e-08
2.83007e-09
-3.73365e-08
3.75793e-08
3.21582e-09
3.77723e-08
3.53404e-09
3.79682e-08
3.72074e-09
3.81228e-08
3.72909e-09
3.82246e-08
3.59851e-09
3.82905e-08
3.41305e-09
3.8339e-08
3.24523e-09
3.83776e-08
3.11318e-09
3.84064e-08
3.00649e-09
3.84257e-08
2.90781e-09
3.84371e-08
2.81431e-09
3.84438e-08
2.72544e-09
3.84473e-08
2.64675e-09
3.84491e-08
2.5756e-09
3.84488e-08
2.51372e-09
3.84473e-08
2.45586e-09
3.84442e-08
2.40457e-09
3.84403e-08
2.35519e-09
3.84353e-08
2.31168e-09
3.843e-08
2.26903e-09
3.84238e-08
2.23187e-09
3.84172e-08
2.19447e-09
3.84098e-08
2.1623e-09
3.84021e-08
2.12891e-09
3.83934e-08
2.10073e-09
3.83844e-08
2.07048e-09
3.83744e-08
2.04555e-09
3.83638e-08
2.01785e-09
3.8352e-08
1.99568e-09
3.83396e-08
1.96993e-09
3.83257e-08
1.9502e-09
3.8311e-08
1.92598e-09
3.82945e-08
1.9084e-09
3.8277e-08
1.88547e-09
3.82576e-08
1.86971e-09
3.82369e-08
1.84782e-09
3.82139e-08
1.83374e-09
3.81896e-08
1.81252e-09
3.81627e-08
1.80013e-09
3.81343e-08
1.77934e-09
3.81031e-08
1.76849e-09
3.80702e-08
1.7481e-09
3.80344e-08
1.73857e-09
3.79966e-08
1.71844e-09
3.79557e-08
1.71027e-09
3.79129e-08
1.69004e-09
3.78667e-08
1.68332e-09
3.78186e-08
1.6629e-09
3.7767e-08
1.65756e-09
3.77133e-08
1.63693e-09
3.76561e-08
1.63292e-09
3.75968e-08
1.61184e-09
3.7534e-08
1.60929e-09
3.7469e-08
1.58763e-09
3.74006e-08
1.58653e-09
3.733e-08
1.56443e-09
3.7256e-08
1.56475e-09
3.71797e-08
1.54204e-09
3.71002e-08
1.54399e-09
3.70183e-08
1.52057e-09
3.69335e-08
1.52414e-09
3.68462e-08
1.50032e-09
3.67562e-08
1.50549e-09
3.66634e-08
1.48143e-09
3.65684e-08
1.48823e-09
3.64703e-08
1.46435e-09
3.63704e-08
1.47267e-09
3.62672e-08
1.44959e-09
3.61625e-08
1.4595e-09
3.60541e-08
1.43844e-09
3.59447e-08
1.44963e-09
3.58314e-08
1.43225e-09
3.57171e-08
1.4451e-09
1.43348e-09
3.85886e-08
2.74075e-09
-3.84993e-08
3.87217e-08
3.08276e-09
3.88911e-08
3.36467e-09
3.90683e-08
3.54351e-09
3.92172e-08
3.58013e-09
3.93217e-08
3.49404e-09
3.93905e-08
3.34429e-09
3.94401e-08
3.19566e-09
3.94799e-08
3.07338e-09
3.9511e-08
2.97539e-09
3.95332e-08
2.88559e-09
3.95472e-08
2.80024e-09
3.95559e-08
2.71682e-09
3.95608e-08
2.64178e-09
3.95637e-08
2.57274e-09
3.95645e-08
2.51291e-09
3.95639e-08
2.45647e-09
3.95617e-08
2.40678e-09
3.95586e-08
2.35826e-09
3.95545e-08
2.31579e-09
3.955e-08
2.27352e-09
3.95448e-08
2.23711e-09
3.95394e-08
2.19985e-09
3.95334e-08
2.16833e-09
3.95273e-08
2.13495e-09
3.95207e-08
2.10735e-09
3.95141e-08
2.07707e-09
3.9507e-08
2.05269e-09
3.94999e-08
2.02497e-09
3.94921e-08
2.00344e-09
3.94844e-08
1.97767e-09
3.94759e-08
1.95869e-09
3.94673e-08
1.93453e-09
3.94579e-08
1.91782e-09
3.94483e-08
1.8951e-09
3.94377e-08
1.88031e-09
3.94267e-08
1.85877e-09
3.94146e-08
1.84587e-09
3.9402e-08
1.8251e-09
3.9388e-08
1.81412e-09
3.93734e-08
1.79394e-09
3.93573e-08
1.78463e-09
3.93402e-08
1.76512e-09
3.93216e-08
1.75726e-09
3.93018e-08
1.73818e-09
3.92802e-08
1.7319e-09
3.92574e-08
1.71286e-09
3.92325e-08
1.70819e-09
3.92062e-08
1.68918e-09
3.91778e-08
1.68594e-09
3.91478e-08
1.66698e-09
3.91155e-08
1.66517e-09
3.90815e-08
1.64593e-09
3.90451e-08
1.64564e-09
3.90067e-08
1.62602e-09
3.89661e-08
1.62712e-09
3.89231e-08
1.60739e-09
3.88781e-08
1.60983e-09
3.88304e-08
1.58971e-09
3.87807e-08
1.5937e-09
3.87281e-08
1.57314e-09
3.86737e-08
1.57851e-09
3.86162e-08
1.55791e-09
3.8557e-08
1.56465e-09
3.84943e-08
1.54415e-09
3.84303e-08
1.5522e-09
3.83623e-08
1.53231e-09
3.82935e-08
1.54155e-09
3.82203e-08
1.52278e-09
3.81465e-08
1.5333e-09
3.80679e-08
1.51701e-09
3.79889e-08
1.5286e-09
3.79051e-08
1.51605e-09
3.78209e-08
1.52929e-09
1.52227e-09
3.97747e-08
2.65726e-09
-3.96912e-08
3.98954e-08
2.96211e-09
4.00456e-08
3.21443e-09
4.02054e-08
3.38367e-09
4.03467e-08
3.43889e-09
4.0452e-08
3.38877e-09
4.05236e-08
3.27262e-09
4.05747e-08
3.14461e-09
4.06154e-08
3.03271e-09
4.06481e-08
2.94262e-09
4.06728e-08
2.86088e-09
4.06895e-08
2.78359e-09
4.07001e-08
2.70617e-09
4.07066e-08
2.63532e-09
4.07106e-08
2.56876e-09
4.07124e-08
2.51108e-09
4.07127e-08
2.45621e-09
4.07113e-08
2.40817e-09
4.07088e-08
2.36069e-09
4.07053e-08
2.31931e-09
4.07013e-08
2.27753e-09
4.06966e-08
2.24184e-09
4.06916e-08
2.20479e-09
4.06861e-08
2.17381e-09
4.06806e-08
2.14048e-09
4.06747e-08
2.11327e-09
4.06688e-08
2.08295e-09
4.06626e-08
2.05888e-09
4.06566e-08
2.03104e-09
4.06502e-08
2.00982e-09
4.0644e-08
1.98388e-09
4.06374e-08
1.96524e-09
4.0631e-08
1.94092e-09
4.06243e-08
1.92454e-09
4.06176e-08
1.90177e-09
4.06106e-08
1.88732e-09
4.06036e-08
1.8658e-09
4.05961e-08
1.85336e-09
4.05886e-08
1.83264e-09
4.05805e-08
1.82223e-09
4.05721e-08
1.80226e-09
4.05632e-08
1.79352e-09
4.05539e-08
1.77445e-09
4.05439e-08
1.76723e-09
4.05334e-08
1.74873e-09
4.0522e-08
1.74325e-09
4.051e-08
1.72493e-09
4.0497e-08
1.72112e-09
4.04831e-08
1.70313e-09
4.04683e-08
1.70072e-09
4.04522e-08
1.68307e-09
4.04352e-08
1.68218e-09
4.04167e-08
1.66442e-09
4.03972e-08
1.66513e-09
4.03759e-08
1.64731e-09
4.03538e-08
1.64926e-09
4.03295e-08
1.63174e-09
4.03043e-08
1.63499e-09
4.02767e-08
1.61735e-09
4.02482e-08
1.62211e-09
4.0217e-08
1.60443e-09
4.01851e-08
1.61034e-09
4.015e-08
1.59304e-09
4.01145e-08
1.60018e-09
4.00752e-08
1.5834e-09
4.00358e-08
1.5916e-09
3.99922e-08
1.57589e-09
3.99487e-08
1.5851e-09
3.99006e-08
1.57084e-09
3.98528e-08
1.58112e-09
3.98e-08
1.56978e-09
3.97475e-08
1.58116e-09
3.969e-08
1.5735e-09
3.96326e-08
1.58667e-09
1.58435e-09
4.09915e-08
2.5793e-09
-4.09135e-08
4.11013e-08
2.85233e-09
4.12358e-08
3.07994e-09
4.138e-08
3.23944e-09
4.15124e-08
3.30649e-09
4.16166e-08
3.28456e-09
4.16907e-08
3.19856e-09
4.17435e-08
3.09179e-09
4.17849e-08
2.99123e-09
4.18189e-08
2.90869e-09
4.18455e-08
2.83421e-09
4.18646e-08
2.76456e-09
4.18773e-08
2.69348e-09
4.18853e-08
2.6273e-09
4.18904e-08
2.56365e-09
4.18932e-08
2.50825e-09
4.18944e-08
2.45508e-09
4.18938e-08
2.40875e-09
4.1892e-08
2.36247e-09
4.18891e-08
2.32224e-09
4.18855e-08
2.28112e-09
4.18812e-08
2.24615e-09
4.18766e-08
2.20943e-09
4.18714e-08
2.17893e-09
4.18662e-08
2.14576e-09
4.18606e-08
2.11885e-09
4.18549e-08
2.08859e-09
4.18491e-08
2.06468e-09
4.18434e-08
2.0368e-09
4.18375e-08
2.01572e-09
4.18317e-08
1.98967e-09
4.18258e-08
1.97112e-09
4.182e-08
1.9467e-09
4.18143e-08
1.9303e-09
4.18085e-08
1.90753e-09
4.18028e-08
1.89302e-09
4.17971e-08
1.87149e-09
4.17914e-08
1.85908e-09
4.17857e-08
1.83834e-09
4.178e-08
1.82797e-09
4.17741e-08
1.80815e-09
4.17683e-08
1.79933e-09
4.17621e-08
1.78061e-09
4.1756e-08
1.77332e-09
4.17495e-08
1.75522e-09
4.1743e-08
1.74979e-09
4.17359e-08
1.73201e-09
4.17288e-08
1.7282e-09
4.17209e-08
1.71106e-09
4.17131e-08
1.70854e-09
4.17042e-08
1.69197e-09
4.16953e-08
1.69103e-09
4.16852e-08
1.67451e-09
4.16752e-08
1.67518e-09
4.16635e-08
1.65896e-09
4.16521e-08
1.66068e-09
4.16387e-08
1.64513e-09
4.16256e-08
1.64813e-09
4.16102e-08
1.63272e-09
4.15952e-08
1.63717e-09
4.15774e-08
1.62215e-09
4.15602e-08
1.62755e-09
4.154e-08
1.6133e-09
4.15203e-08
1.61985e-09
4.14972e-08
1.60651e-09
4.14748e-08
1.61396e-09
4.14486e-08
1.60209e-09
4.14232e-08
1.61055e-09
4.13937e-08
1.60037e-09
4.1365e-08
1.6098e-09
4.13319e-08
1.60285e-09
4.12994e-08
1.61365e-09
4.12627e-08
1.61024e-09
4.12263e-08
1.62306e-09
1.62482e-09
4.22403e-08
2.50642e-09
-4.21675e-08
4.23405e-08
2.75217e-09
4.24617e-08
2.95872e-09
4.25922e-08
3.10895e-09
4.27154e-08
3.18328e-09
4.2817e-08
3.18298e-09
4.28925e-08
3.12304e-09
4.29472e-08
3.03713e-09
4.29895e-08
2.94889e-09
4.30243e-08
2.87394e-09
4.30524e-08
2.80608e-09
4.30735e-08
2.7435e-09
4.30881e-08
2.67882e-09
4.30978e-08
2.61766e-09
4.3104e-08
2.55736e-09
4.31079e-08
2.50441e-09
4.31099e-08
2.45311e-09
4.31101e-08
2.40848e-09
4.3109e-08
2.36358e-09
4.31067e-08
2.32455e-09
4.31036e-08
2.28426e-09
4.30997e-08
2.25e-09
4.30954e-08
2.21376e-09
4.30906e-08
2.18369e-09
4.30855e-08
2.15085e-09
4.30802e-08
2.12415e-09
4.30747e-08
2.0941e-09
4.30692e-08
2.07025e-09
4.30635e-08
2.04244e-09
4.30579e-08
2.02138e-09
4.30522e-08
1.99532e-09
4.30466e-08
1.9767e-09
4.3041e-08
1.95232e-09
4.30356e-08
1.9357e-09
4.30301e-08
1.91304e-09
4.30248e-08
1.89826e-09
4.30195e-08
1.87679e-09
4.30145e-08
1.86416e-09
4.30093e-08
1.84348e-09
4.30045e-08
1.83282e-09
4.29994e-08
1.81325e-09
4.29947e-08
1.80396e-09
4.29897e-08
1.78564e-09
4.29852e-08
1.77788e-09
4.29802e-08
1.76017e-09
4.29757e-08
1.75435e-09
4.29706e-08
1.73709e-09
4.29661e-08
1.73272e-09
4.29607e-08
1.71643e-09
4.2956e-08
1.7132e-09
4.29504e-08
1.69762e-09
4.29453e-08
1.69606e-09
4.29392e-08
1.68062e-09
4.29338e-08
1.68059e-09
4.29269e-08
1.66583e-09
4.2921e-08
1.66662e-09
4.29133e-08
1.65282e-09
4.29065e-08
1.65491e-09
4.28978e-08
1.64142e-09
4.28901e-08
1.64489e-09
4.28801e-08
1.63218e-09
4.28712e-08
1.63644e-09
4.28597e-08
1.62478e-09
4.28494e-08
1.63018e-09
4.28362e-08
1.61974e-09
4.28242e-08
1.62594e-09
4.2809e-08
1.61723e-09
4.2795e-08
1.62457e-09
4.27777e-08
1.61772e-09
4.27614e-08
1.62602e-09
4.27417e-08
1.62255e-09
4.27228e-08
1.63263e-09
4.27005e-08
1.63251e-09
4.26787e-08
1.64485e-09
1.64972e-09
4.35226e-08
2.43821e-09
-4.34544e-08
4.36142e-08
2.66054e-09
4.3724e-08
2.84893e-09
4.38425e-08
2.9905e-09
4.39567e-08
3.06911e-09
4.40545e-08
3.08517e-09
4.41303e-08
3.04715e-09
4.41866e-08
2.98086e-09
4.42299e-08
2.90558e-09
4.42653e-08
2.83853e-09
4.42945e-08
2.77694e-09
4.43172e-08
2.72077e-09
4.43337e-08
2.66236e-09
4.43449e-08
2.60639e-09
4.43524e-08
2.54988e-09
4.43573e-08
2.49957e-09
4.43601e-08
2.45032e-09
4.43611e-08
2.4074e-09
4.43607e-08
2.36402e-09
4.4359e-08
2.32621e-09
4.43564e-08
2.28692e-09
4.4353e-08
2.25339e-09
4.4349e-08
2.21778e-09
4.43446e-08
2.18809e-09
4.43397e-08