/*--------------------------------*- C++ -*----------------------------------*\
| =========                 |                                                 |
| \\      /  F ield         | OpenFOAM: The Open Source CFD Toolbox           |
|  \\    /   O peration     | Version:  2.3.0                                 |
|   \\  /    A nd           | Web:      www.OpenFOAM.org                      |
|    \\/     M anipulation  |                                                 |
\*---------------------------------------------------------------------------*/
FoamFile
{
    version     2.0;
    format      ascii;
    class       surfaceScalarField;
    location    "0.5";
    object      phi;
}
// * * * * * * * * * * * * * * * * * * * * * * * * * * * * * * * * * * * * * //

dimensions      [0 3 -1 0 0 0 0];

internalField   nonuniform List<scalar> 
17305
(
2.83201e-08
2.88365e-09
-3.12038e-08
2.54537e-08
2.86641e-09
2.27641e-08
2.68965e-09
2.02849e-08
2.47919e-09
1.80323e-08
2.25263e-09
1.60168e-08
2.01548e-09
1.42408e-08
1.77592e-09
1.26991e-08
1.54173e-09
1.13796e-08
1.31949e-09
1.02651e-08
1.11455e-09
9.33421e-09
9.30855e-10
8.56352e-09
7.70691e-10
7.92884e-09
6.34685e-10
7.40684e-09
5.21995e-10
6.97619e-09
4.30652e-10
6.61821e-09
3.57978e-10
6.31723e-09
3.00982e-10
6.06053e-09
2.56697e-10
5.83813e-09
2.22407e-10
5.64235e-09
1.95776e-10
5.46746e-09
1.74895e-10
5.30919e-09
1.58267e-10
5.16443e-09
1.44762e-10
5.03088e-09
1.33548e-10
4.90685e-09
1.2403e-10
4.79106e-09
1.15789e-10
4.68252e-09
1.08534e-10
4.58046e-09
1.02062e-10
4.48423e-09
9.62314e-11
4.39329e-09
9.09411e-11
4.30717e-09
8.61159e-11
4.22548e-09
8.1698e-11
4.14784e-09
7.76409e-11
4.07393e-09
7.39058e-11
4.00347e-09
7.04596e-11
3.9362e-09
6.72731e-11
3.87188e-09
6.43205e-11
3.8103e-09
6.15789e-11
3.75127e-09
5.90278e-11
3.69462e-09
5.6649e-11
3.64019e-09
5.44262e-11
3.58785e-09
5.23447e-11
3.53746e-09
5.03916e-11
3.4889e-09
4.85553e-11
3.44208e-09
4.68255e-11
3.39688e-09
4.51928e-11
3.35324e-09
4.3649e-11
3.31105e-09
4.21865e-11
3.27025e-09
4.07987e-11
3.23077e-09
3.94795e-11
3.19255e-09
3.82233e-11
3.15552e-09
3.70252e-11
3.11964e-09
3.58807e-11
3.08486e-09
3.47855e-11
3.05112e-09
3.37359e-11
3.01839e-09
3.27283e-11
2.98663e-09
3.17596e-11
2.95581e-09
3.08268e-11
2.92588e-09
2.99272e-11
2.89682e-09
2.90581e-11
2.8686e-09
2.82172e-11
2.8412e-09
2.74024e-11
2.81459e-09
2.66114e-11
2.78875e-09
2.58425e-11
2.76365e-09
2.50939e-11
2.73929e-09
2.43637e-11
2.71564e-09
2.36505e-11
2.69269e-09
2.29527e-11
2.67042e-09
2.22689e-11
2.64882e-09
2.15978e-11
2.62788e-09
2.09381e-11
2.60759e-09
2.02886e-11
2.58794e-09
1.96482e-11
2.56893e-09
1.90159e-11
2.55054e-09
1.83907e-11
2.53277e-09
1.77715e-11
2.51561e-09
1.71577e-11
2.49906e-09
1.65483e-11
2.48312e-09
1.59427e-11
2.46778e-09
1.53403e-11
2.45304e-09
1.47408e-11
2.43889e-09
1.41439e-11
2.42534e-09
1.35494e-11
2.41239e-09
1.29576e-11
2.40002e-09
1.23684e-11
2.38824e-09
1.17819e-11
2.37704e-09
1.11974e-11
2.36642e-09
1.06138e-11
2.35639e-09
1.00292e-11
2.34695e-09
9.44075e-12
2.33811e-09
8.84547e-12
2.32987e-09
8.24095e-12
2.32224e-09
7.62718e-12
2.31523e-09
7.0093e-12
2.30883e-09
6.40157e-12
2.303e-09
5.83397e-12
2.29763e-09
5.36768e-12
2.2925e-09
5.13075e-12
2.28726e-09
5.23454e-12
1.41449e-11
3.33549e-08
3.15958e-09
-3.36309e-08
3.27653e-08
3.45607e-09
3.19436e-08
3.51129e-09
3.09667e-08
3.45609e-09
2.989e-08
3.32933e-09
2.87591e-08
3.1464e-09
2.76109e-08
2.92415e-09
2.64737e-08
2.67897e-09
2.53683e-08
2.42483e-09
2.43096e-08
2.17328e-09
2.3307e-08
1.93346e-09
2.23658e-08
1.71191e-09
2.14879e-08
1.51258e-09
2.06728e-08
1.33707e-09
1.99183e-08
1.18512e-09
1.92212e-08
1.05514e-09
1.85773e-08
9.44804e-10
1.79826e-08
8.5142e-10
1.74327e-08
7.72317e-10
1.69235e-08
7.05032e-10
1.64509e-08
6.47416e-10
1.60115e-08
5.97675e-10
1.56019e-08
5.54346e-10
1.52192e-08
5.16267e-10
1.48607e-08
4.82524e-10
1.45241e-08
4.52401e-10
1.42073e-08
4.25335e-10
1.39085e-08
4.00883e-10
1.3626e-08
3.78691e-10
1.33585e-08
3.5847e-10
1.31046e-08
3.39982e-10
1.28633e-08
3.23028e-10
1.26335e-08
3.07439e-10
1.24143e-08
2.93067e-10
1.2205e-08
2.79785e-10
1.20048e-08
2.67482e-10
1.18131e-08
2.5606e-10
1.16292e-08
2.45433e-10
1.14527e-08
2.35524e-10
1.12831e-08
2.26264e-10
1.11199e-08
2.17594e-10
1.09628e-08
2.0946e-10
1.08114e-08
2.01813e-10
1.06653e-08
1.94612e-10
1.05244e-08
1.87817e-10
1.03882e-08
1.81394e-10
1.02565e-08
1.75312e-10
1.01291e-08
1.69543e-10
1.00059e-08
1.64062e-10
9.88651e-09
1.58845e-10
9.77086e-09
1.53872e-10
9.65876e-09
1.49124e-10
9.55006e-09
1.44584e-10
9.44461e-09
1.40235e-10
9.34228e-09
1.36062e-10
9.24296e-09
1.32053e-10
9.14652e-09
1.28194e-10
9.05287e-09
1.24475e-10
8.96192e-09
1.20883e-10
8.87357e-09
1.1741e-10
8.78774e-09
1.14045e-10
8.70436e-09
1.1078e-10
8.62337e-09
1.07607e-10
8.54469e-09
1.04518e-10
8.46828e-09
1.01506e-10
8.39408e-09
9.85629e-11
8.32205e-09
9.56832e-11
8.25214e-09
9.28603e-11
8.18432e-09
9.00885e-11
8.11855e-09
8.73621e-11
8.05482e-09
8.46758e-11
7.99308e-09
8.20244e-11
7.93333e-09
7.94033e-11
7.87553e-09
7.68078e-11
7.81969e-09
7.42336e-11
7.76579e-09
7.16765e-11
7.71381e-09
6.91328e-11
7.66376e-09
6.65989e-11
7.61563e-09
6.40717e-11
7.56942e-09
6.15484e-11
7.52514e-09
5.90267e-11
7.48278e-09
5.65049e-11
7.44234e-09
5.39817e-11
7.40385e-09
5.14561e-11
7.36729e-09
4.89269e-11
7.33268e-09
4.63927e-11
7.30002e-09
4.38511e-11
7.26934e-09
4.12985e-11
7.24064e-09
3.87302e-11
7.21394e-09
3.61413e-11
7.18925e-09
3.35285e-11
7.1666e-09
3.08939e-11
7.14598e-09
2.825e-11
7.12736e-09
2.56272e-11
7.11068e-09
2.30848e-11
7.09578e-09
2.07282e-11
7.0824e-09
1.87506e-11
7.06999e-09
1.75368e-11
7.05664e-09
1.85864e-11
3.39897e-11
3.47501e-08
3.00968e-09
-3.46002e-08
3.48111e-08
3.39506e-09
3.47457e-08
3.57664e-09
3.45596e-08
3.64226e-09
3.42632e-08
3.6257e-09
3.38709e-08
3.53868e-09
3.34002e-08
3.39493e-09
3.28687e-08
3.21043e-09
3.22933e-08
3.00027e-09
3.16888e-08
2.77778e-09
3.1068e-08
2.55425e-09
3.04413e-08
2.33854e-09
2.98171e-08
2.13687e-09
2.92012e-08
1.9529e-09
2.85982e-08
1.78815e-09
2.80109e-08
1.64248e-09
2.7441e-08
1.51466e-09
2.68896e-08
1.40284e-09
2.6357e-08
1.30494e-09
2.58431e-08
1.21888e-09
2.53477e-08
1.14277e-09
2.48704e-08
1.07499e-09
2.44106e-08
1.01417e-09
2.39677e-08
9.5919e-10
2.3541e-08
9.09171e-10
2.313e-08
8.63404e-10
2.2734e-08
8.21326e-10
2.23524e-08
7.82486e-10
2.19846e-08
7.46519e-10
2.163e-08
7.13122e-10
2.12879e-08
6.82042e-10
2.09579e-08
6.53061e-10
2.06393e-08
6.2599e-10
2.03317e-08
6.00662e-10
2.00346e-08
5.76929e-10
1.97474e-08
5.54659e-10
1.94697e-08
5.33731e-10
1.92011e-08
5.14036e-10
1.89412e-08
4.95476e-10
1.86895e-08
4.77961e-10
1.84457e-08
4.6141e-10
1.82094e-08
4.45749e-10
1.79803e-08
4.30908e-10
1.77581e-08
4.16827e-10
1.75424e-08
4.03448e-10
1.73331e-08
3.90719e-10
1.71298e-08
3.78593e-10
1.69323e-08
3.67025e-10
1.67404e-08
3.55975e-10
1.65539e-08
3.45405e-10
1.63725e-08
3.35282e-10
1.6196e-08
3.25572e-10
1.60243e-08
3.16246e-10
1.58573e-08
3.07277e-10
1.56947e-08
2.98639e-10
1.55365e-08
2.90308e-10
1.53824e-08
2.82261e-10
1.52324e-08
2.74477e-10
1.50864e-08
2.66937e-10
1.49441e-08
2.59621e-10
1.48057e-08
2.52512e-10
1.46709e-08
2.45593e-10
1.45396e-08
2.38849e-10
1.44119e-08
2.32263e-10
1.42876e-08
2.25823e-10
1.41666e-08
2.19513e-10
1.4049e-08
2.13321e-10
1.39346e-08
2.07235e-10
1.38234e-08
2.01242e-10
1.37155e-08
1.9533e-10
1.36107e-08
1.89489e-10
1.3509e-08
1.83707e-10
1.34104e-08
1.77975e-10
1.33149e-08
1.72283e-10
1.32225e-08
1.6662e-10
1.31332e-08
1.60979e-10
1.3047e-08
1.55351e-10
1.29639e-08
1.49728e-10
1.28839e-08
1.44103e-10
1.28069e-08
1.38469e-10
1.27331e-08
1.32821e-10
1.26625e-08
1.27154e-10
1.2595e-08
1.21465e-10
1.25307e-08
1.1575e-10
1.24696e-08
1.10006e-10
1.24118e-08
1.04229e-10
1.23572e-08
9.8417e-11
1.2306e-08
9.25635e-11
1.2258e-08
8.66647e-11
1.22135e-08
8.07184e-11
1.21723e-08
7.47294e-11
1.21344e-08
6.87149e-11
1.21e-08
6.27143e-11
1.20688e-08
5.6801e-11
1.20408e-08
5.10997e-11
1.20157e-08
4.58158e-11
1.19931e-08
4.13077e-11
1.19724e-08
3.83179e-11
1.19513e-08
3.96543e-11
5.76329e-11
3.55844e-08
2.8208e-09
-3.53955e-08
3.57766e-08
3.20287e-09
3.59275e-08
3.4257e-09
3.60248e-08
3.54499e-09
3.60618e-08
3.58872e-09
3.60345e-08
3.56591e-09
3.59436e-08
3.48584e-09
3.57931e-08
3.36094e-09
3.55893e-08
3.2041e-09
3.53396e-08
3.02742e-09
3.50522e-08
2.84168e-09
3.47349e-08
2.65589e-09
3.43948e-08
2.4769e-09
3.40384e-08
2.30934e-09
3.36708e-08
2.15577e-09
3.32962e-08
2.01711e-09
3.29177e-08
1.89308e-09
3.25379e-08
1.78264e-09
3.21585e-08
1.68432e-09
3.17809e-08
1.59655e-09
3.14059e-08
1.51778e-09
3.10342e-08
1.44662e-09
3.06665e-08
1.38188e-09
3.03032e-08
1.32257e-09
2.99444e-08
1.26788e-09
2.95907e-08
1.21717e-09
2.92421e-08
1.16992e-09
2.88989e-08
1.12572e-09
2.85611e-08
1.08424e-09
2.82291e-08
1.0452e-09
2.79027e-08
1.00839e-09
2.75822e-08
9.73607e-10
2.72675e-08
9.4069e-10
2.69586e-08
9.09494e-10
2.66557e-08
8.7989e-10
2.63586e-08
8.51764e-10
2.60673e-08
8.25011e-10
2.57818e-08
7.99535e-10
2.5502e-08
7.75251e-10
2.52279e-08
7.52078e-10
2.49594e-08
7.29942e-10
2.46963e-08
7.08776e-10
2.44387e-08
6.88516e-10
2.41864e-08
6.69105e-10
2.39394e-08
6.50489e-10
2.36975e-08
6.32616e-10
2.34607e-08
6.15441e-10
2.32288e-08
5.98918e-10
2.30017e-08
5.83008e-10
2.27795e-08
5.6767e-10
2.25619e-08
5.52869e-10
2.23489e-08
5.38571e-10
2.21404e-08
5.24743e-10
2.19363e-08
5.11355e-10
2.17366e-08
4.98376e-10
2.15411e-08
4.85781e-10
2.13498e-08
4.73541e-10
2.11627e-08
4.61633e-10
2.09796e-08
4.50032e-10
2.08005e-08
4.38714e-10
2.06253e-08
4.27658e-10
2.04541e-08
4.16842e-10
2.02867e-08
4.06246e-10
2.01231e-08
3.95849e-10
1.99633e-08
3.85632e-10
1.98072e-08
3.75576e-10
1.96549e-08
3.65663e-10
1.95062e-08
3.55876e-10
1.93613e-08
3.46196e-10
1.922e-08
3.36607e-10
1.90824e-08
3.27093e-10
1.89485e-08
3.17638e-10
1.88182e-08
3.08225e-10
1.86917e-08
2.98841e-10
1.85688e-08
2.89469e-10
1.84497e-08
2.80098e-10
1.83343e-08
2.70712e-10
1.82228e-08
2.613e-10
1.8115e-08
2.5185e-10
1.80111e-08
2.42352e-10
1.79112e-08
2.32796e-10
1.78151e-08
2.23174e-10
1.77231e-08
2.13481e-10
1.76352e-08
2.03708e-10
1.75513e-08
1.93853e-10
1.74716e-08
1.8391e-10
1.73962e-08
1.73875e-10
1.7325e-08
1.63745e-10
1.72581e-08
1.5352e-10
1.71957e-08
1.43208e-10
1.71376e-08
1.32828e-10
1.70838e-08
1.22424e-10
1.70345e-08
1.12073e-10
1.69894e-08
1.01901e-10
1.69484e-08
9.21087e-11
1.69112e-08
8.30081e-11
1.68774e-08
7.5126e-11
1.68461e-08
6.95529e-11
1.6816e-08
6.9769e-11
8.67661e-11
3.63351e-08
2.65555e-09
-3.61699e-08
3.653e-08
3.00795e-09
3.67188e-08
3.23695e-09
3.68886e-08
3.37517e-09
3.70319e-08
3.44539e-09
3.71416e-08
3.45626e-09
3.72125e-08
3.41487e-09
3.72426e-08
3.33084e-09
3.7232e-08
3.21472e-09
3.71827e-08
3.07676e-09
3.7098e-08
2.92635e-09
3.69823e-08
2.77165e-09
3.684e-08
2.61918e-09
3.66757e-08
2.47366e-09
3.64934e-08
2.33804e-09
3.62967e-08
2.21382e-09
3.60884e-08
2.10131e-09
3.5871e-08
2.00005e-09
3.56463e-08
1.90909e-09
3.54156e-08
1.82726e-09
3.518e-08
1.75333e-09
3.49405e-08
1.68616e-09
3.46976e-08
1.62472e-09
3.4452e-08
1.56814e-09
3.42042e-08
1.51568e-09
3.39546e-08
1.46677e-09
3.37036e-08
1.42091e-09
3.34516e-08
1.37774e-09
3.31989e-08
1.33695e-09
3.29458e-08
1.29828e-09
3.26927e-08
1.26153e-09
3.24398e-08
1.22653e-09
3.21873e-08
1.19314e-09
3.19356e-08
1.16123e-09
3.16848e-08
1.13068e-09
3.14352e-08
1.1014e-09
3.11869e-08
1.07331e-09
3.09401e-08
1.04632e-09
3.0695e-08
1.02036e-09
3.04517e-08
9.95371e-10
3.02103e-08
9.71283e-10
2.99711e-08
9.48045e-10
2.9734e-08
9.25606e-10
2.94992e-08
9.03916e-10
2.92667e-08
8.82932e-10
2.90367e-08
8.62613e-10
2.88092e-08
8.42919e-10
2.85843e-08
8.23814e-10
2.83621e-08
8.05263e-10
2.81425e-08
7.87233e-10
2.79257e-08
7.69694e-10
2.77117e-08
7.52614e-10
2.75004e-08
7.35967e-10
2.72921e-08
7.19724e-10
2.70866e-08
7.0386e-10
2.6884e-08
6.88349e-10
2.66844e-08
6.73165e-10
2.64877e-08
6.58286e-10
2.62941e-08
6.43688e-10
2.61034e-08
6.29349e-10
2.59159e-08
6.15244e-10
2.57313e-08
6.01354e-10
2.55499e-08
5.87656e-10
2.53717e-08
5.7413e-10
2.51965e-08
5.60753e-10
2.50246e-08
5.47505e-10
2.48559e-08
5.34367e-10
2.46905e-08
5.21316e-10
2.45283e-08
5.08334e-10
2.43695e-08
4.95401e-10
2.42141e-08
4.82496e-10
2.40622e-08
4.696e-10
2.39137e-08
4.56694e-10
2.37688e-08
4.43759e-10
2.36275e-08
4.30776e-10
2.34898e-08
4.17728e-10
2.3356e-08
4.04598e-10
2.32259e-08
3.91369e-10
2.30997e-08
3.78026e-10
2.29775e-08
3.64556e-10
2.28594e-08
3.50945e-10
2.27453e-08
3.37182e-10
2.26356e-08
3.2326e-10
2.25301e-08
3.0917e-10
2.24291e-08
2.94905e-10
2.23325e-08
2.80463e-10
2.22405e-08
2.65839e-10
2.21532e-08
2.51037e-10
2.20707e-08
2.36065e-10
2.1993e-08
2.20945e-10
2.19201e-08
2.05719e-10
2.1852e-08
1.9046e-10
2.17888e-08
1.7529e-10
2.17303e-08
1.60392e-10
2.16764e-08
1.46041e-10
2.16267e-08
1.32651e-10
2.1581e-08
1.20891e-10
2.15385e-08
1.12084e-10
2.14985e-08
1.09754e-10
1.2244e-10
3.70792e-08
2.51643e-09
-3.69401e-08
3.72535e-08
2.83368e-09
3.74346e-08
3.05585e-09
3.76104e-08
3.19931e-09
3.77747e-08
3.28114e-09
3.79213e-08
3.30969e-09
3.8045e-08
3.29112e-09
3.81426e-08
3.23327e-09
3.82123e-08
3.14502e-09
3.82539e-08
3.03512e-09
3.82686e-08
2.91169e-09
3.82583e-08
2.78194e-09
3.82257e-08
2.6518e-09
3.81736e-08
2.52573e-09
3.81049e-08
2.40676e-09
3.80221e-08
2.2966e-09
3.79274e-08
2.19595e-09
3.78228e-08
2.10471e-09
3.77096e-08
2.02231e-09
3.75889e-08
1.94791e-09
3.74617e-08
1.88053e-09
3.73286e-08
1.81924e-09
3.71902e-08
1.76315e-09
3.70469e-08
1.71149e-09
3.6899e-08
1.66359e-09
3.67468e-08
1.61892e-09
3.65907e-08
1.57703e-09
3.64309e-08
1.53754e-09
3.62676e-08
1.50018e-09
3.61012e-08
1.46469e-09
3.59319e-08
1.43089e-09
3.57598e-08
1.39859e-09
3.55853e-08
1.36767e-09
3.54085e-08
1.338e-09
3.52297e-08
1.30948e-09
3.50491e-08
1.28202e-09
3.48669e-08
1.25554e-09
3.46832e-08
1.22997e-09
3.44983e-08
1.20524e-09
3.43124e-08
1.18129e-09
3.41256e-08
1.15807e-09
3.39382e-08
1.13553e-09
3.37501e-08
1.11362e-09
3.35618e-08
1.09231e-09
3.33731e-08
1.07155e-09
3.31844e-08
1.05132e-09
3.29958e-08
1.03157e-09
3.28073e-08
1.01227e-09
3.26192e-08
9.93407e-10
3.24315e-08
9.74938e-10
3.22443e-08
9.5684e-10
3.20578e-08
9.39088e-10
3.18722e-08
9.21659e-10
3.16874e-08
9.04527e-10
3.15035e-08
8.8767e-10
3.13208e-08
8.71066e-10
3.11393e-08
8.54692e-10
3.09591e-08
8.38527e-10
3.07802e-08
8.2255e-10
3.06028e-08
8.06739e-10
3.0427e-08
7.91074e-10
3.02528e-08
7.75533e-10
3.00804e-08
7.60095e-10
2.99097e-08
7.4474e-10
2.97411e-08
7.29446e-10
2.95744e-08
7.14192e-10
2.94098e-08
6.98957e-10
2.92474e-08
6.83719e-10
2.90873e-08
6.68457e-10
2.89295e-08
6.53149e-10
2.87742e-08
6.37774e-10
2.86215e-08
6.2231e-10
2.84715e-08
6.06735e-10
2.83242e-08
5.91028e-10
2.81798e-08
5.75168e-10
2.80384e-08
5.59134e-10
2.79001e-08
5.42906e-10
2.7765e-08
5.26465e-10
2.76332e-08
5.09793e-10
2.75049e-08
4.92873e-10
2.73802e-08
4.75692e-10
2.72591e-08
4.58235e-10
2.71419e-08
4.40492e-10
2.70286e-08
4.22455e-10
2.69194e-08
4.04118e-10
2.68144e-08
3.85479e-10
2.67137e-08
3.66538e-10
2.66174e-08
3.47306e-10
2.65257e-08
3.27802e-10
2.64386e-08
3.08065e-10
2.63561e-08
2.88161e-10
2.62784e-08
2.68199e-10
2.62053e-08
2.48341e-10
2.61369e-08
2.28828e-10
2.60729e-08
2.10002e-10
2.60132e-08
1.92357e-10
2.59574e-08
1.76663e-10
2.59052e-08
1.64311e-10
2.58566e-08
1.58377e-10
1.6418e-10
3.78286e-08
2.39761e-09
-3.77098e-08
3.79815e-08
2.68078e-09
3.81465e-08
2.89092e-09
3.83118e-08
3.03394e-09
3.84716e-08
3.12137e-09
3.86207e-08
3.16054e-09
3.87549e-08
3.15698e-09
3.88709e-08
3.11726e-09
3.8967e-08
3.04894e-09
3.90425e-08
2.95963e-09
3.90977e-08
2.85648e-09
3.91338e-08
2.74586e-09
3.91524e-08
2.63315e-09
3.91556e-08
2.52252e-09
3.91455e-08
2.41693e-09
3.91238e-08
2.31823e-09
3.90925e-08
2.2273e-09
3.90528e-08
2.14437e-09
3.9006e-08
2.06913e-09
3.89529e-08
2.00099e-09
3.88942e-08
1.93921e-09
3.88305e-08
1.88303e-09
3.87619e-08
1.83168e-09
3.86889e-08
1.7845e-09
3.86116e-08
1.74088e-09
3.85302e-08
1.70032e-09
3.84449e-08
1.66239e-09
3.83557e-08
1.62676e-09
3.82627e-08
1.59312e-09
3.81662e-08
1.56123e-09
3.80661e-08
1.53091e-09
3.79628e-08
1.50199e-09
3.78561e-08
1.47431e-09
3.77464e-08
1.44776e-09
3.76336e-08
1.42224e-09
3.7518e-08
1.39765e-09
3.73996e-08
1.37392e-09
3.72786e-08
1.35096e-09
3.71551e-08
1.32872e-09
3.70293e-08
1.30713e-09
3.69012e-08
1.28614e-09
3.6771e-08
1.26571e-09
3.66389e-08
1.24579e-09
3.65048e-08
1.22633e-09
3.63691e-08
1.20731e-09
3.62317e-08
1.18868e-09
3.60929e-08
1.17041e-09
3.59527e-08
1.15248e-09
3.58112e-08
1.13486e-09
3.56686e-08
1.11752e-09
3.5525e-08
1.10042e-09
3.53806e-08
1.08356e-09
3.52353e-08
1.0669e-09
3.50894e-08
1.05042e-09
3.4943e-08
1.03411e-09
3.47961e-08
1.01793e-09
3.4649e-08
1.00187e-09
3.45016e-08
9.85903e-10
3.43541e-08
9.70013e-10
3.42067e-08
9.54177e-10
3.40594e-08
9.38374e-10
3.39123e-08
9.22582e-10
3.37656e-08
9.06781e-10
3.36194e-08
8.90949e-10
3.34738e-08
8.75063e-10
3.33289e-08
8.59103e-10
3.31848e-08
8.43045e-10
3.30417e-08
8.26866e-10
3.28996e-08
8.10544e-10
3.27587e-08
7.94055e-10
3.26191e-08
7.77376e-10
3.24809e-08
7.60482e-10
3.23443e-08
7.43351e-10
3.22094e-08
7.25957e-10
3.20763e-08
7.08277e-10
3.19451e-08
6.90288e-10
3.1816e-08
6.71968e-10
3.16892e-08
6.53294e-10
3.15648e-08
6.34246e-10
3.14428e-08
6.14806e-10
3.13236e-08
5.94957e-10
3.12071e-08
5.74685e-10
3.10936e-08
5.53977e-10
3.09833e-08
5.32825e-10
3.08761e-08
5.11224e-10
3.07725e-08
4.89175e-10
3.06723e-08
4.66683e-10
3.05758e-08
4.43767e-10
3.04832e-08
4.20459e-10
3.03944e-08
3.96816e-10
3.03097e-08
3.72928e-10
3.02289e-08
3.48935e-10
3.01522e-08
3.25039e-10
3.00795e-08
3.01528e-10
3.00107e-08
2.78798e-10
2.99457e-08
2.57402e-10
2.98842e-08
2.38149e-10
2.98262e-08
2.22354e-10
2.97722e-08
2.1233e-10
2.10006e-10
3.85851e-08
2.29399e-09
-3.84814e-08
3.87196e-08
2.54625e-09
3.88683e-08
2.74224e-09
3.90204e-08
2.88183e-09
3.91698e-08
2.97189e-09
3.93121e-08
3.01827e-09
3.94433e-08
3.02579e-09
3.95606e-08
2.99999e-09
3.96622e-08
2.94729e-09
3.97476e-08
2.87431e-09
3.98167e-08
2.78735e-09
3.98704e-08
2.69212e-09
3.99101e-08
2.59349e-09
3.99372e-08
2.49536e-09
3.99536e-08
2.40058e-09
3.99607e-08
2.31107e-09
3.99602e-08
2.22788e-09
3.99531e-08
2.15145e-09
3.99405e-08
2.0817e-09
3.99232e-08
2.01829e-09
3.99018e-08
1.96066e-09
3.98766e-08
1.9082e-09
3.9848e-08
1.86029e-09
3.98161e-08
1.81634e-09
3.97812e-08
1.77583e-09
3.97432e-08
1.73829e-09
3.97023e-08
1.70333e-09
3.96584e-08
1.67062e-09
3.96117e-08
1.63988e-09
3.9562e-08
1.61087e-09
3.95096e-08
1.58339e-09
3.94543e-08
1.55728e-09
3.93962e-08
1.53238e-09
3.93354e-08
1.50859e-09
3.92718e-08
1.48578e-09
3.92056e-08
1.46387e-09
3.91368e-08
1.44276e-09
3.90653e-08
1.42239e-09
3.89914e-08
1.40267e-09
3.89149e-08
1.38356e-09
3.88361e-08
1.365e-09
3.87549e-08
1.34693e-09
3.86714e-08
1.3293e-09
3.85856e-08
1.31208e-09
3.84977e-08
1.29523e-09
3.84077e-08
1.2787e-09
3.83156e-08
1.26246e-09
3.82216e-08
1.24649e-09
3.81257e-08
1.23074e-09
3.80281e-08
1.21519e-09
3.79287e-08
1.19982e-09
3.78276e-08
1.1846e-09
3.7725e-08
1.16949e-09
3.7621e-08
1.15449e-09
3.75155e-08
1.13956e-09
3.74088e-08
1.12467e-09
3.73008e-08
1.10982e-09
3.71918e-08
1.09497e-09
3.70817e-08
1.0801e-09
3.69707e-08
1.06519e-09
3.68588e-08
1.05021e-09
3.67463e-08
1.03515e-09
3.66331e-08
1.01997e-09
3.65194e-08
1.00466e-09
3.64052e-08
9.89196e-10
3.62908e-08
9.73545e-10
3.61761e-08
9.57687e-10
3.60614e-08
9.41595e-10
3.59467e-08
9.25245e-10
3.58322e-08
9.0861e-10
3.57179e-08
8.91663e-10
3.5604e-08
8.74379e-10
3.54906e-08
8.56729e-10
3.53779e-08
8.38687e-10
3.52659e-08
8.20227e-10
3.51549e-08
8.01321e-10
3.50449e-08
7.81945e-10
3.49361e-08
7.62074e-10
3.48287e-08
7.41684e-10
3.47227e-08
7.20755e-10
3.46184e-08
6.99267e-10
3.45159e-08
6.77204e-10
3.44153e-08
6.54554e-10
3.43168e-08
6.31308e-10
3.42206e-08
6.07462e-10
3.41268e-08
5.83018e-10
3.40355e-08
5.57989e-10
3.39468e-08
5.324e-10
3.3861e-08
5.06296e-10
3.37781e-08
4.79749e-10
3.36981e-08
4.52873e-10
3.36212e-08
4.25833e-10
3.35474e-08
3.98864e-10
3.34766e-08
3.7229e-10
3.34089e-08
3.46545e-10
3.33441e-08
3.22211e-10
3.32821e-08
3.00087e-10
3.32232e-08
2.81303e-10
3.31682e-08
2.67306e-10
2.5711e-10
3.9349e-08
2.20193e-09
-3.92569e-08
3.94683e-08
2.42695e-09
3.96023e-08
2.60823e-09
3.97415e-08
2.74257e-09
3.98801e-08
2.83333e-09
4.00136e-08
2.88479e-09
4.01384e-08
2.90098e-09
4.02519e-08
2.88652e-09
4.03523e-08
2.84684e-09
4.0439e-08
2.78763e-09
4.05119e-08
2.71446e-09
4.05716e-08
2.6324e-09
4.06192e-08
2.54586e-09
4.06561e-08
2.45848e-09
4.06837e-08
2.37299e-09
4.07035e-08
2.29132e-09
4.07167e-08
2.21467e-09
4.07245e-08
2.14361e-09
4.07279e-08
2.0783e-09
4.07276e-08
2.01857e-09
4.07242e-08
1.96404e-09
4.07182e-08
1.91427e-09
4.07097e-08
1.86875e-09
4.06991e-08
1.82699e-09
4.06864e-08
1.78853e-09
4.06717e-08
1.75296e-09
4.06551e-08
1.71993e-09
4.06366e-08
1.68913e-09
4.06162e-08
1.66029e-09
4.05939e-08
1.63318e-09
4.05696e-08
1.60761e-09
4.05435e-08
1.58342e-09
4.05154e-08
1.56047e-09
4.04854e-08
1.53862e-09
4.04534e-08
1.51777e-09
4.04194e-08
1.49782e-09
4.03835e-08
1.47868e-09
4.03456e-08
1.46028e-09
4.03058e-08
1.44254e-09
4.02639e-08
1.4254e-09
4.02201e-08
1.4088e-09
4.01744e-08
1.39269e-09
4.01267e-08
1.37701e-09
4.0077e-08
1.36173e-09
4.00255e-08
1.34679e-09
3.9972e-08
1.33216e-09
3.99167e-08
1.3178e-09
3.98595e-08
1.30368e-09
3.98005e-08
1.28975e-09
3.97396e-08
1.276e-09
3.96771e-08
1.26239e-09
3.96128e-08
1.24888e-09
3.95468e-08
1.23546e-09
3.94792e-08
1.22209e-09
3.941e-08
1.20875e-09
3.93393e-08
1.19541e-09
3.92671e-08
1.18204e-09
3.91934e-08
1.16862e-09
3.91184e-08
1.15513e-09
3.90421e-08
1.14153e-09
3.89644e-08
1.12781e-09
3.88857e-08
1.11393e-09
3.88058e-08
1.09987e-09
3.87248e-08
1.0856e-09
3.86429e-08
1.0711e-09
3.85601e-08
1.05634e-09
3.84765e-08
1.04128e-09
3.83922e-08
1.02591e-09
3.83073e-08
1.01018e-09
3.82218e-08
9.94079e-10
3.81359e-08
9.77568e-10
3.80497e-08
9.60618e-10
3.79632e-08
9.43199e-10
3.78766e-08
9.25281e-10
3.779e-08
9.06832e-10
3.77035e-08
8.87823e-10
3.76172e-08
8.68225e-10
3.75313e-08
8.4801e-10
3.74458e-08
8.27151e-10
3.73609e-08
8.05625e-10
3.72768e-08
7.8341e-10
3.71935e-08
7.60488e-10
3.71112e-08
7.36844e-10
3.70301e-08
7.1247e-10
3.69502e-08
6.87361e-10
3.68717e-08
6.61524e-10
3.67947e-08
6.34974e-10
3.67193e-08
6.07743e-10
3.66457e-08
5.79888e-10
3.6574e-08
5.51495e-10
3.65042e-08
5.22693e-10
3.64363e-08
4.93669e-10
3.63705e-08
4.64681e-10
3.63067e-08
4.36077e-10
3.6245e-08
4.08312e-10
3.61852e-08
3.81971e-10
3.61275e-08
3.57803e-10
3.60721e-08
3.36705e-10
3.60201e-08
3.19336e-10
3.02714e-10
4.01209e-08
2.11892e-09
-4.00379e-08
4.02276e-08
2.32022e-09
4.03487e-08
2.48712e-09
4.04762e-08
2.61509e-09
4.06044e-08
2.70514e-09
4.07291e-08
2.76008e-09
4.08469e-08
2.78313e-09
4.09553e-08
2.77811e-09
4.10526e-08
2.74953e-09
4.1138e-08
2.70229e-09
4.12112e-08
2.64123e-09
4.12728e-08
2.57086e-09
4.13235e-08
2.49516e-09
4.13645e-08
2.41747e-09
4.13971e-08
2.34041e-09
4.14225e-08
2.26588e-09
4.1442e-08
2.19516e-09
4.14566e-08
2.12897e-09
4.14673e-08
2.0676e-09
4.14748e-08
2.01107e-09
4.14797e-08
1.95915e-09
4.14825e-08
1.91154e-09
4.14834e-08
1.86785e-09
4.14827e-08
1.82767e-09
4.14806e-08
1.79063e-09
4.14772e-08
1.75638e-09
4.14725e-08
1.72458e-09
4.14667e-08
1.69497e-09
4.14597e-08
1.6673e-09
4.14515e-08
1.64136e-09
4.14421e-08
1.61696e-09
4.14316e-08
1.59394e-09
4.14199e-08
1.57218e-09
4.1407e-08
1.55153e-09
4.13929e-08
1.53191e-09
4.13775e-08
1.5132e-09
4.13608e-08
1.49533e-09
4.13429e-08
1.47821e-09
4.13237e-08
1.46177e-09
4.13031e-08
1.44595e-09
4.12812e-08
1.43069e-09
4.1258e-08
1.41594e-09
4.12333e-08
1.40163e-09
4.12073e-08
1.38773e-09
4.11799e-08
1.37419e-09
4.11511e-08
1.36097e-09
4.11209e-08
1.34802e-09
4.10893e-08
1.33532e-09
4.10562e-08
1.32281e-09
4.10217e-08
1.31048e-09
4.09858e-08
1.29829e-09
4.09485e-08
1.2862e-09
4.09098e-08
1.27419e-09
4.08696e-08
1.26222e-09
4.08281e-08
1.25026e-09
4.07852e-08
1.23829e-09
4.0741e-08
1.22628e-09
4.06954e-08
1.2142e-09
4.06485e-08
1.20202e-09
4.06004e-08
1.1897e-09
4.05509e-08
1.17723e-09
4.05003e-08
1.16457e-09
4.04485e-08
1.1517e-09
4.03955e-08
1.13857e-09
4.03414e-08
1.12517e-09
4.02863e-08
1.11146e-09
4.02302e-08
1.09741e-09
4.01731e-08
1.08299e-09
4.01151e-08
1.06817e-09
4.00563e-08
1.0529e-09
3.99967e-08
1.03716e-09
3.99364e-08
1.02092e-09
3.98755e-08
1.00413e-09
3.9814e-08
9.86773e-10
3.9752e-08
9.68805e-10
3.96896e-08
9.50195e-10
3.96269e-08
9.30909e-10
3.9564e-08
9.10918e-10
3.9501e-08
8.90191e-10
3.94379e-08
8.68701e-10
3.93749e-08
8.46424e-10
3.93121e-08
8.23339e-10
3.92495e-08
7.99431e-10
3.91873e-08
7.74689e-10
3.91255e-08
7.49111e-10
3.90643e-08
7.22703e-10
3.90038e-08
6.95485e-10
3.89441e-08
6.67496e-10
3.88851e-08
6.38798e-10
3.88272e-08
6.09489e-10
3.87701e-08
5.7971e-10
3.87141e-08
5.49663e-10
3.86592e-08
5.19619e-10
3.86053e-08
4.89939e-10
3.85526e-08
4.61081e-10
3.85009e-08
4.33616e-10
3.84505e-08
4.08217e-10
3.84017e-08
3.85555e-10
3.83553e-08
3.65696e-10
3.44707e-10
4.09014e-08
2.04317e-09
-4.08256e-08
4.09977e-08
2.22392e-09
4.11075e-08
2.37723e-09
4.12244e-08
2.49828e-09
4.13429e-08
2.58656e-09
4.14593e-08
2.6437e-09
4.15703e-08
2.67212e-09
4.16735e-08
2.67493e-09
4.17672e-08
2.65588e-09
4.18503e-08
2.61911e-09
4.19228e-08
2.56881e-09
4.19847e-08
2.50896e-09
4.20367e-08
2.44313e-09
4.20798e-08
2.37439e-09
4.2115e-08
2.30519e-09
4.21435e-08
2.23741e-09
4.21663e-08
2.17233e-09
4.21845e-08
2.11079e-09
4.21989e-08
2.05321e-09
4.22102e-08
1.99972e-09
4.22191e-08
1.95027e-09
4.2226e-08
1.90465e-09
4.22312e-08
1.86258e-09
4.22351e-08
1.82376e-09
4.22379e-08
1.78788e-09
4.22397e-08
1.75462e-09
4.22405e-08
1.72373e-09
4.22405e-08
1.69494e-09
4.22398e-08
1.66805e-09
4.22383e-08
1.64284e-09
4.22361e-08
1.61917e-09
4.22332e-08
1.59687e-09
4.22295e-08
1.57581e-09
4.22252e-08
1.55588e-09
4.22201e-08
1.53697e-09
4.22143e-08
1.519e-09
4.22078e-08
1.50187e-09
4.22005e-08
1.4855e-09
4.21924e-08
1.46984e-09
4.21836e-08
1.45482e-09
4.21739e-08
1.44037e-09
4.21634e-08
1.42644e-09
4.2152e-08
1.41298e-09
4.21398e-08
1.39995e-09
4.21267e-08
1.38729e-09
4.21127e-08
1.37497e-09
4.20978e-08
1.36294e-09
4.20819e-08
1.35117e-09
4.20651e-08
1.33962e-09
4.20473e-08
1.32826e-09
4.20286e-08
1.31705e-09
4.20088e-08
1.30595e-09
4.19881e-08
1.29494e-09
4.19663e-08
1.28398e-09
4.19435e-08
1.27304e-09
4.19197e-08
1.2621e-09
4.18949e-08
1.25111e-09
4.18691e-08
1.24006e-09
4.18422e-08
1.2289e-09
4.18143e-08
1.21761e-09
4.17853e-08
1.20616e-09
4.17554e-08
1.19451e-09
4.17245e-08
1.18264e-09
4.16925e-08
1.1705e-09
4.16596e-08
1.15808e-09
4.16258e-08
1.14532e-09
4.1591e-08
1.13221e-09
4.15553e-08
1.1187e-09
4.15187e-08
1.10476e-09
4.14812e-08
1.09035e-09
4.14429e-08
1.07543e-09
4.14039e-08
1.05998e-09
4.13641e-08
1.04394e-09
4.13236e-08
1.02729e-09
4.12824e-08
1.00999e-09
4.12406e-08
9.91993e-10
4.11982e-08
9.73273e-10
4.11553e-08
9.53793e-10
4.1112e-08
9.3352e-10
4.10683e-08
9.12426e-10
4.10242e-08
8.90483e-10
4.09799e-08
8.67669e-10
4.09354e-08
8.43966e-10
4.08907e-08
8.19365e-10
4.08459e-08
7.93861e-10
4.08012e-08
7.67464e-10
4.07565e-08
7.40196e-10
4.07119e-08
7.12099e-10
4.06674e-08
6.83243e-10
4.06232e-08
6.53731e-10
4.05792e-08
6.23714e-10
4.05354e-08
5.934e-10
4.0492e-08
5.63069e-10
4.04488e-08
5.3308e-10
4.0406e-08
5.03886e-10
4.03636e-08
4.76027e-10
4.03217e-08
4.50095e-10
4.02807e-08
4.26572e-10
4.02413e-08
4.05172e-10
3.81921e-10
4.16911e-08
1.97341e-09
-4.16213e-08
4.17787e-08
2.13634e-09
4.18788e-08
2.2771e-09
4.1986e-08
2.39104e-09
4.20958e-08
2.47681e-09
4.22044e-08
2.53509e-09
4.23089e-08
2.56764e-09
4.24069e-08
2.57692e-09
4.24968e-08
2.56601e-09
4.25775e-08
2.53839e-09
4.26486e-08
2.49765e-09
4.27103e-08
2.44729e-09
4.27629e-08
2.3905e-09
4.28073e-08
2.33006e-09
4.28442e-08
2.26826e-09
4.28747e-08
2.2069e-09
4.28997e-08
2.14729e-09
4.29202e-08
2.0903e-09
4.2937e-08
2.03647e-09
4.29507e-08
1.98604e-09
4.29619e-08
1.93906e-09
4.29711e-08
1.89544e-09
4.29787e-08
1.855e-09
4.29849e-08
1.81751e-09
4.29901e-08
1.78272e-09
4.29943e-08
1.75039e-09
4.29977e-08
1.72029e-09
4.30005e-08
1.69219e-09
4.30026e-08
1.66592e-09
4.30042e-08
1.64127e-09
4.30052e-08
1.61812e-09
4.30058e-08
1.59631e-09
4.30059e-08
1.57572e-09
4.30055e-08
1.55624e-09
4.30047e-08
1.53778e-09
4.30035e-08
1.52024e-09
4.30018e-08
1.50355e-09
4.29997e-08
1.48763e-09
4.29971e-08
1.47242e-09
4.29941e-08
1.45784e-09
4.29906e-08
1.44386e-09
4.29866e-08
1.4304e-09
4.29822e-08
1.41743e-09
4.29772e-08
1.40489e-09
4.29718e-08
1.39275e-09
4.29658e-08
1.38095e-09
4.29593e-08
1.36946e-09
4.29522e-08
1.35825e-09
4.29445e-08
1.34727e-09
4.29363e-08
1.33649e-09
4.29275e-08
1.32587e-09
4.2918e-08
1.31539e-09
4.2908e-08
1.30501e-09
4.28972e-08
1.29469e-09
4.28859e-08
1.28441e-09
4.28738e-08
1.27414e-09
4.28611e-08
1.26383e-09
4.28477e-08
1.25347e-09
4.28336e-08
1.24301e-09
4.28188e-08
1.23243e-09
4.28032e-08
1.2217e-09
4.2787e-08
1.21078e-09
4.277e-08
1.19963e-09
4.27522e-08
1.18823e-09
4.27338e-08
1.17654e-09
4.27146e-08
1.16452e-09
4.26947e-08
1.15213e-09
4.2674e-08
1.13935e-09
4.26526e-08
1.12614e-09
4.26305e-08
1.11244e-09
4.26077e-08
1.09824e-09
4.25842e-08
1.08348e-09
4.256e-08
1.06813e-09
4.25352e-08
1.05215e-09
4.25097e-08
1.0355e-09
4.24835e-08
1.01814e-09
4.24568e-08
1.00003e-09
4.24294e-08
9.81136e-10
4.24015e-08
9.61427e-10
4.23731e-08
9.4087e-10
4.23441e-08
9.19436e-10
4.23147e-08
8.97101e-10
4.22848e-08
8.73848e-10
4.22545e-08
8.49665e-10
4.22238e-08
8.24551e-10
4.21928e-08
7.98513e-10
4.21614e-08
7.71579e-10
4.21297e-08
7.43793e-10
4.20977e-08
7.15228e-10
4.20655e-08
6.85993e-10
4.20329e-08
6.56243e-10
4.20001e-08
6.2619e-10
4.19671e-08
5.96111e-10
4.19338e-08
5.66362e-10
4.19003e-08
5.37379e-10
4.18667e-08
5.09663e-10
4.1833e-08
4.83733e-10
4.17997e-08
4.59934e-10
4.1767e-08
4.37847e-10
4.1408e-10
4.24907e-08
1.90867e-09
-4.2426e-08
4.25709e-08
2.05614e-09
4.26625e-08
2.18545e-09
4.27612e-08
2.29238e-09
4.28629e-08
2.37512e-09
4.29643e-08
2.43372e-09
4.30626e-08
2.46935e-09
4.31556e-08
2.48392e-09
4.32416e-08
2.47992e-09
4.33198e-08
2.46025e-09
4.33894e-08
2.428e-09
4.34505e-08
2.38618e-09
4.35034e-08
2.33765e-09
4.35486e-08
2.2849e-09
4.35868e-08
2.23006e-09
4.36188e-08
2.17483e-09
4.36456e-08
2.12051e-09
4.36679e-08
2.06801e-09
4.36865e-08
2.01792e-09
4.37019e-08
1.97058e-09
4.37148e-08
1.92614e-09
4.37257e-08
1.8846e-09
4.37348e-08
1.84585e-09