/*--------------------------------*- C++ -*----------------------------------*\
| =========                 |                                                 |
| \\      /  F ield         | OpenFOAM: The Open Source CFD Toolbox           |
|  \\    /   O peration     | Version:  2.3.0                                 |
|   \\  /    A nd           | Web:      www.OpenFOAM.org                      |
|    \\/     M anipulation  |                                                 |
\*---------------------------------------------------------------------------*/
FoamFile
{
    version     2.0;
    format      ascii;
    class       surfaceScalarField;
    location    "0.45";
    object      phi_0;
}
// * * * * * * * * * * * * * * * * * * * * * * * * * * * * * * * * * * * * * //

dimensions      [0 3 -1 0 0 0 0];

internalField   nonuniform List<scalar> 
3859
(
2.88224e-08
2.77016e-09
-3.15925e-08
2.53576e-08
3.46476e-09
2.19161e-08
3.44152e-09
1.87288e-08
3.18728e-09
1.58281e-08
2.90075e-09
1.32919e-08
2.53613e-09
1.12144e-08
2.07755e-09
9.60952e-09
1.60488e-09
8.43948e-09
1.17004e-09
7.61843e-09
8.21044e-10
7.04832e-09
5.70119e-10
6.64486e-09
4.03454e-10
6.34581e-09
2.99047e-10
6.1086e-09
2.37212e-10
5.905e-09
2.03606e-10
5.71875e-09
1.8625e-10
5.54237e-09
1.76382e-10
5.37352e-09
1.68843e-10
5.21227e-09
1.61255e-10
5.05937e-09
1.52895e-10
4.91553e-09
1.43846e-10
4.78104e-09
1.34488e-10
4.6558e-09
1.25234e-10
4.5394e-09
1.16403e-10
4.43121e-09
1.08187e-10
4.33056e-09
1.00657e-10
4.23672e-09
9.3837e-11
4.14899e-09
8.77264e-11
4.06672e-09
8.22793e-11
3.98929e-09
7.74218e-11
3.91624e-09
7.30519e-11
3.84715e-09
6.90945e-11
3.78164e-09
6.55071e-11
3.71939e-09
6.22454e-11
3.66013e-09
5.92651e-11
3.60362e-09
5.65133e-11
3.54968e-09
5.39408e-11
3.49814e-09
5.15391e-11
3.44884e-09
4.92918e-11
3.40166e-09
4.71849e-11
3.35646e-09
4.52039e-11
3.31313e-09
4.33211e-11
3.27159e-09
4.15427e-11
3.23172e-09
3.98746e-11
3.19344e-09
3.82823e-11
3.15667e-09
3.67633e-11
3.12134e-09
3.53344e-11
3.08736e-09
3.39777e-11
3.05468e-09
3.26828e-11
3.02327e-09
3.14118e-11
2.9931e-09
3.01663e-11
2.96409e-09
2.90071e-11
2.93615e-09
2.79399e-11
2.90928e-09
2.68693e-11
2.88347e-09
2.58152e-11
2.85864e-09
2.48247e-11
2.83477e-09
2.38684e-11
2.81189e-09
2.28883e-11
2.78995e-09
2.19403e-11
2.76892e-09
2.1026e-11
2.74879e-09
2.01284e-11
2.72955e-09
1.92426e-11
2.71114e-09
1.84106e-11
2.69355e-09
1.75869e-11
2.67679e-09
1.67591e-11
2.66088e-09
1.59152e-11
2.6458e-09
1.50756e-11
2.63156e-09
1.4239e-11
2.61813e-09
1.34355e-11
2.60547e-09
1.26554e-11
2.59358e-09
1.18944e-11
2.58245e-09
1.1131e-11
2.57208e-09
1.03643e-11
2.56249e-09
9.58691e-12
2.55367e-09
8.82543e-12
2.5456e-09
8.07094e-12
2.53825e-09
7.34575e-12
2.53161e-09
6.64097e-12
2.52565e-09
5.96237e-12
2.52035e-09
5.29498e-12
2.51572e-09
4.63779e-12
2.51171e-09
4.00502e-12
2.50834e-09
3.36743e-12
2.50556e-09
2.78248e-12
2.50337e-09
2.19482e-12
2.50167e-09
1.69621e-12
2.50048e-09
1.19007e-12
2.49968e-09
8.03086e-13
2.49929e-09
3.91536e-13
2.49916e-09
1.26758e-13
2.49932e-09
-1.62177e-13
2.49957e-09
-2.47038e-13
2.49998e-09
-4.08727e-13
2.50029e-09
-3.0943e-13
2.50063e-09
-3.47841e-13
2.50071e-09
-7.69791e-14
2.50074e-09
-2.88575e-14
2.50039e-09
3.49317e-13
2.49999e-09
4.05143e-13
9.13951e-13
3.62385e-08
2.47137e-09
-3.59397e-08
3.60733e-08
3.62997e-09
3.53697e-08
4.14509e-09
3.43832e-08
4.1738e-09
3.32268e-08
4.05718e-09
3.19205e-08
3.84238e-09
3.04881e-08
3.51001e-09
2.90062e-08
3.08674e-09
2.75503e-08
2.62594e-09
2.61749e-08
2.19647e-09
2.49038e-08
1.84121e-09
2.37389e-08
1.56828e-09
2.26775e-08
1.36053e-09
2.17178e-08
1.19684e-09
2.08505e-08
1.07089e-09
2.00651e-08
9.71665e-10
1.93515e-08
8.90015e-10
1.87006e-08
8.19775e-10
1.81045e-08
7.57314e-10
1.75567e-08
7.00681e-10
1.70517e-08
6.48884e-10
1.65847e-08
6.01468e-10
1.61517e-08
5.58205e-10
1.57492e-08
5.18915e-10
1.5374e-08
4.8336e-10
1.50235e-08
4.51223e-10
1.46951e-08
4.22229e-10
1.43867e-08
3.96133e-10
1.40963e-08
3.72647e-10
1.38223e-08
3.51452e-10
1.35631e-08
3.322e-10
1.33176e-08
3.14633e-10
1.30845e-08
2.98575e-10
1.28629e-08
2.83848e-10
1.26519e-08
2.70275e-10
1.24507e-08
2.57689e-10
1.22587e-08
2.45942e-10
1.20753e-08
2.34977e-10
1.18999e-08
2.24707e-10
1.1732e-08
2.15064e-10
1.15712e-08
2.05996e-10
1.14171e-08
1.97428e-10
1.12693e-08
1.89342e-10
1.11275e-08
1.81713e-10
1.09913e-08
1.74451e-10
1.08605e-08
1.67552e-10
1.07348e-08
1.61038e-10
1.0614e-08
1.54832e-10
1.04977e-08
1.48892e-10
1.0386e-08
1.43137e-10
1.02786e-08
1.3758e-10
1.01753e-08
1.32328e-10
1.00759e-08
1.27364e-10
9.98026e-09
1.22475e-10
9.88836e-09
1.17716e-10
9.80002e-09
1.13169e-10
9.71513e-09
1.08757e-10
9.63366e-09
1.04352e-10
9.55552e-09
1.00082e-10
9.48062e-09
9.59304e-11
9.40888e-09
9.18619e-11
9.34027e-09
8.78602e-11
9.27466e-09
8.40138e-11
9.21204e-09
8.02063e-11
9.15238e-09
7.64182e-11
9.09568e-09
7.26171e-11
9.0419e-09
6.88568e-11
8.99101e-09
6.51263e-11
8.94295e-09
6.15004e-11
8.89766e-09
5.79414e-11
8.85511e-09
5.44491e-11
8.81528e-09
5.09624e-11
8.77814e-09
4.74986e-11
8.7437e-09
4.40299e-11
8.71189e-09
4.06388e-11
8.68267e-09
3.72853e-11
8.65597e-09
3.40475e-11
8.63174e-09
3.08752e-11
8.60988e-09
2.78185e-11
8.59037e-09
2.48088e-11
8.57311e-09
2.18968e-11
8.55804e-09
1.90712e-11
8.54507e-09
1.6334e-11
8.5341e-09
1.37621e-11
8.52498e-09
1.13084e-11
8.51756e-09
9.11301e-12
8.51171e-09
7.04945e-12
8.50719e-09
5.32151e-12
8.50386e-09
3.71575e-12
8.50147e-09
2.52261e-12
8.49985e-09
1.45493e-12
8.49869e-09
9.17677e-13
8.49787e-09
4.02176e-13
8.49706e-09
5.03011e-13
8.49624e-09
4.7632e-13
8.49505e-09
1.10685e-12
8.49363e-09
1.39906e-12
8.49162e-09
2.35429e-12
8.48934e-09
2.6828e-12
3.91544e-12
4.0279e-08
2.34647e-09
-4.01541e-08
4.07061e-08
3.20289e-09
4.09724e-08
3.87879e-09
4.10476e-08
4.09859e-09
4.10079e-08
4.09696e-09
4.0849e-08
4.00121e-09
4.05356e-08
3.82347e-09
4.00674e-08
3.55491e-09
3.94741e-08
3.21922e-09
3.87991e-08
2.87145e-09
3.80794e-08
2.56097e-09
3.73385e-08
2.30915e-09
3.65894e-08
2.10962e-09
3.58383e-08
1.94791e-09
3.50934e-08
1.81586e-09
3.43595e-08
1.70556e-09
3.36396e-08
1.60993e-09
3.29355e-08
1.52384e-09
3.22487e-08
1.44414e-09
3.15802e-08
1.36912e-09
3.09312e-08
1.29797e-09
3.03022e-08
1.23038e-09
2.96941e-08
1.16633e-09
2.91072e-08
1.10582e-09
2.85417e-08
1.04883e-09
2.79977e-08
9.95239e-10
2.7475e-08
9.44985e-10
2.69731e-08
8.98006e-10
2.64916e-08
8.54162e-10
2.60298e-08
8.13256e-10
2.5587e-08
7.75001e-10
2.51624e-08
7.39182e-10
2.47553e-08
7.05663e-10
2.43649e-08
6.74283e-10
2.39903e-08
6.44863e-10
2.36308e-08
6.17202e-10
2.32856e-08
5.91118e-10
2.29541e-08
5.66543e-10
2.26354e-08
5.43354e-10
2.2329e-08
5.21433e-10
2.20343e-08
5.00696e-10
2.17507e-08
4.81046e-10
2.14776e-08
4.62437e-10
2.12146e-08
4.44772e-10
2.09611e-08
4.27888e-10
2.07169e-08
4.11801e-10
2.04814e-08
3.96557e-10
2.02542e-08
3.81991e-10
2.00351e-08
3.67975e-10
1.98239e-08
3.54398e-10
1.96201e-08
3.41318e-10
1.94236e-08
3.2886e-10
1.9234e-08
3.16951e-10
1.90512e-08
3.0527e-10
1.8875e-08
2.93921e-10
1.87052e-08
2.82992e-10
1.85416e-08
2.72349e-10
1.83841e-08
2.61804e-10
1.82327e-08
2.51551e-10
1.80871e-08
2.41537e-10
1.79472e-08
2.31711e-10
1.7813e-08
2.22045e-10
1.76844e-08
2.1268e-10
1.75612e-08
2.0341e-10
1.74434e-08
1.94214e-10
1.7331e-08
1.85018e-10
1.72239e-08
1.75924e-10
1.71221e-08
1.66897e-10
1.70255e-08
1.58083e-10
1.69341e-08
1.49392e-10
1.68477e-08
1.40854e-10
1.67663e-08
1.32328e-10
1.66899e-08
1.23893e-10
1.66185e-08
1.15452e-10
1.65519e-08
1.07208e-10
1.64902e-08
9.90259e-11
1.64331e-08
9.11267e-11
1.63807e-08
8.33289e-11
1.63326e-08
7.58376e-11
1.6289e-08
6.84146e-11
1.62496e-08
6.13026e-11
1.62144e-08
5.43235e-11
1.6183e-08
4.76873e-11
1.61555e-08
4.13126e-11
1.61314e-08
3.538e-11
1.61107e-08
2.98581e-11
1.60929e-08
2.48603e-11
1.60778e-08
2.03808e-11
1.6065e-08
1.64742e-11
1.60544e-08
1.31867e-11
1.60453e-08
1.05338e-11
1.60376e-08
8.62908e-12
1.60307e-08
7.24743e-12
1.60246e-08
6.66839e-12
1.60186e-08
6.40433e-12
1.60128e-08
6.91371e-12
1.60069e-08
7.37707e-12
1.60006e-08
8.61336e-12
1.59941e-08
9.1919e-12
1.08975e-11
4.47481e-08
2.29237e-09
-4.4694e-08
4.50651e-08
2.88585e-09
4.54673e-08
3.47665e-09
4.578e-08
3.78589e-09
4.60208e-08
3.85614e-09
4.62165e-08
3.80552e-09
4.63453e-08
3.69461e-09
4.63805e-08
3.51971e-09
4.6312e-08
3.28776e-09
4.61536e-08
3.02982e-09
4.59311e-08
2.78352e-09
4.56651e-08
2.5751e-09
4.53671e-08
2.40767e-09
4.50414e-08
2.27361e-09
4.46935e-08
2.16373e-09
4.43281e-08
2.07102e-09
4.39479e-08
1.99009e-09
4.35549e-08
1.91688e-09
4.31503e-08
1.84868e-09
4.27356e-08
1.78385e-09
4.23121e-08
1.72148e-09
4.18812e-08
1.66121e-09
4.14446e-08
1.60296e-09
4.10037e-08
1.54676e-09
4.05599e-08
1.49259e-09
4.01147e-08
1.44042e-09
3.96695e-08
1.39026e-09
3.92253e-08
1.34215e-09
3.87834e-08
1.29605e-09
3.83448e-08
1.25189e-09
3.79103e-08
1.20951e-09
3.74806e-08
1.16884e-09
3.70564e-08
1.12986e-09
3.66382e-08
1.09249e-09
3.62265e-08
1.05662e-09
3.58216e-08
1.02207e-09
3.5424e-08
9.88722e-10
3.50339e-08
9.56603e-10
3.46517e-08
9.25625e-10
3.42774e-08
8.95726e-10
3.39112e-08
8.66877e-10
3.35532e-08
8.39062e-10
3.32033e-08
8.12306e-10
3.28616e-08
7.86476e-10
3.25281e-08
7.61361e-10
3.22029e-08
7.37041e-10
3.18858e-08
7.13648e-10
3.15768e-08
6.91016e-10
3.12758e-08
6.68967e-10
3.09828e-08
6.47335e-10
3.06979e-08
6.26302e-10
3.04206e-08
6.06084e-10
3.01511e-08
5.86517e-10
2.98892e-08
5.67164e-10
2.96349e-08
5.48242e-10
2.9388e-08
5.29834e-10
2.91486e-08
5.11741e-10
2.89167e-08
4.93764e-10
2.8692e-08
4.76216e-10
2.84746e-08
4.58948e-10
2.82644e-08
4.41909e-10
2.80614e-08
4.25056e-10
2.78654e-08
4.08615e-10
2.76766e-08
3.92258e-10
2.74948e-08
3.76016e-10
2.73201e-08
3.59724e-10
2.71524e-08
3.43582e-10
2.69919e-08
3.27475e-10
2.68382e-08
3.11701e-10
2.66916e-08
2.96037e-10
2.65518e-08
2.80638e-10
2.6419e-08
2.65173e-10
2.62929e-08
2.49906e-10
2.61739e-08
2.34535e-10
2.60615e-08
2.19552e-10
2.5956e-08
2.04545e-10
2.5857e-08
1.90099e-10
2.57647e-08
1.75665e-10
2.56787e-08
1.61877e-10
2.5599e-08
1.4803e-10
2.55254e-08
1.34895e-10
2.5458e-08
1.21763e-10
2.53962e-08
1.09474e-10
2.53402e-08
9.73392e-11
2.52893e-08
8.62703e-11
2.52436e-08
7.55209e-11
2.52024e-08
6.60674e-11
2.51658e-08
5.70173e-11
2.51328e-08
4.94455e-11
2.51037e-08
4.23312e-11
2.50773e-08
3.69051e-11
2.50539e-08
3.20082e-11
2.50324e-08
2.87704e-11
2.5013e-08
2.60376e-11
2.49947e-08
2.47642e-11
2.49777e-08
2.38757e-11
2.49612e-08
2.39378e-11
2.49454e-08
2.44003e-11
2.49297e-08
2.49097e-11
2.60502e-11
4.96977e-08
2.23035e-09
-4.96357e-08
4.99145e-08
2.66906e-09
5.02703e-08
3.1209e-09
5.06123e-08
3.44389e-09
5.08948e-08
3.57364e-09
5.11343e-08
3.56601e-09
5.13429e-08
3.48594e-09
5.15049e-08
3.35773e-09
5.16033e-08
3.18939e-09
5.16366e-08
2.99651e-09
5.1618e-08
2.8021e-09
5.15656e-08
2.62748e-09
5.14902e-08
2.48314e-09
5.13958e-08
2.36798e-09
5.12855e-08
2.27404e-09
5.11617e-08
2.1948e-09
5.1026e-08
2.12578e-09
5.08791e-08
2.06382e-09
5.0721e-08
2.00675e-09
5.05518e-08
1.95306e-09
5.03715e-08
1.90182e-09
5.01801e-08
1.85254e-09
4.99781e-08
1.80498e-09
4.97658e-08
1.75906e-09
4.95437e-08
1.7147e-09
4.93123e-08
1.6718e-09
4.90722e-08
1.63034e-09
4.88241e-08
1.59029e-09
4.85686e-08
1.55157e-09
4.83064e-08
1.51411e-09
4.80381e-08
1.47774e-09
4.77645e-08
1.44246e-09
4.74861e-08
1.4083e-09
4.72033e-08
1.37521e-09
4.69168e-08
1.34313e-09
4.6627e-08
1.31188e-09
4.63344e-08
1.28133e-09
4.60395e-08
1.25152e-09
4.57428e-08
1.22227e-09
4.54451e-08
1.19352e-09
4.51467e-08
1.16526e-09
4.48482e-08
1.13756e-09
4.45499e-08
1.11059e-09
4.42521e-08
1.08426e-09
4.39552e-08
1.05832e-09
4.36594e-08
1.03285e-09
4.33651e-08
1.00792e-09
4.30728e-08
9.83311e-10
4.27829e-08
9.58847e-10
4.24959e-08
9.34367e-10
4.2212e-08
9.10227e-10
4.19312e-08
8.86829e-10
4.16538e-08
8.63963e-10
4.13799e-08
8.41004e-10
4.11099e-08
8.1826e-10
4.0844e-08
7.95727e-10
4.05826e-08
7.73132e-10
4.03261e-08
7.50288e-10
4.00745e-08
7.27818e-10
3.98279e-08
7.05499e-10
3.95865e-08
6.83354e-10
3.93503e-08
6.61216e-10
3.91196e-08
6.39402e-10
3.88945e-08
6.17283e-10
3.86754e-08
5.951e-10
3.84626e-08
5.72549e-10
3.8256e-08
5.50169e-10
3.80559e-08
5.27636e-10
3.7862e-08
5.0557e-10
3.76747e-08
4.83335e-10
3.74939e-08
4.61415e-10
3.73201e-08
4.39025e-10
3.7153e-08
4.16941e-10
3.69932e-08
3.94376e-10
3.68403e-08
3.725e-10
3.66946e-08
3.50239e-10
3.65557e-08
3.28973e-10
3.64241e-08
3.07284e-10
3.62992e-08
2.86758e-10
3.61816e-08
2.65638e-10
3.60706e-08
2.45881e-10
3.59668e-08
2.25538e-10
3.58694e-08
2.06891e-10
3.57789e-08
1.87804e-10
3.56943e-08
1.7086e-10
3.56163e-08
1.53564e-10
3.55435e-08
1.38862e-10
3.54768e-08
1.23762e-10
3.54146e-08
1.11655e-10
3.53578e-08
9.90509e-11
3.53048e-08
8.99036e-11
3.52566e-08
8.02005e-11
3.52113e-08
7.41184e-11
3.517e-08
6.73482e-11
3.51306e-08
6.41261e-11
3.50945e-08
5.99483e-11
3.50596e-08
5.88394e-11
3.50274e-08
5.66119e-11
3.49957e-08
5.6666e-11
5.53333e-11
5.51403e-08
2.1555e-09
-5.50654e-08
5.53097e-08
2.49957e-09
5.55951e-08
2.83554e-09
5.59115e-08
3.12751e-09
5.61958e-08
3.2893e-09
5.64347e-08
3.3271e-09
5.66402e-08
3.28053e-09
5.68127e-08
3.1852e-09
5.6943e-08
3.05908e-09
5.70262e-08
2.91335e-09
5.70674e-08
2.76086e-09
5.70791e-08
2.61579e-09
5.70728e-08
2.4894e-09
5.7055e-08
2.38583e-09
5.70284e-08
2.3006e-09
5.69949e-08
2.2283e-09
5.69557e-08
2.16497e-09
5.69115e-08
2.108e-09
5.68626e-08
2.05573e-09
5.68087e-08
2.00698e-09
5.67495e-08
1.96093e-09
5.6685e-08
1.91711e-09
5.66147e-08
1.87522e-09
5.65387e-08
1.83511e-09
5.64567e-08
1.79665e-09
5.63688e-08
1.75971e-09
5.62749e-08
1.72426e-09
5.6175e-08
1.6902e-09
5.60691e-08
1.6574e-09
5.59575e-08
1.62575e-09
5.58402e-08
1.59504e-09
5.57174e-08
1.56526e-09
5.55892e-08
1.53647e-09
5.54558e-08
1.50864e-09
5.53172e-08
1.48174e-09
5.51735e-08
1.45563e-09
5.50246e-08
1.43017e-09
5.48708e-08
1.40537e-09
5.47121e-08
1.38095e-09
5.45488e-08
1.35676e-09
5.43814e-08
1.33274e-09
5.421e-08
1.30893e-09
5.4035e-08
1.28558e-09
5.38565e-08
1.2627e-09
5.36748e-08
1.24009e-09
5.34897e-08
1.21795e-09
5.33013e-08
1.19629e-09
5.31099e-08
1.1747e-09
5.29159e-08
1.15283e-09
5.27199e-08
1.13036e-09
5.25224e-08
1.1077e-09
5.23238e-08
1.08546e-09
5.21241e-08
1.06371e-09
5.19232e-08
1.04187e-09
5.1721e-08
1.02043e-09
5.15177e-08
9.99005e-10
5.13139e-08
9.7698e-10
5.11104e-08
9.53759e-10
5.09079e-08
9.30367e-10
5.07067e-08
9.06656e-10
5.05067e-08
8.83333e-10
5.03078e-08
8.60187e-10
5.01094e-08
8.37739e-10
4.99124e-08
8.14353e-10
4.97172e-08
7.90278e-10
4.95251e-08
7.64665e-10
4.93362e-08
7.39028e-10
4.91509e-08
7.12953e-10
4.89685e-08
6.87994e-10
4.87892e-08
6.62598e-10
4.86129e-08
6.37673e-10
4.84407e-08
6.11288e-10
4.82725e-08
5.85107e-10
4.81094e-08
5.57489e-10
4.79509e-08
5.30963e-10
4.77978e-08
5.03383e-10
4.76492e-08
4.7757e-10
4.75059e-08
4.50554e-10
4.73672e-08
4.25489e-10
4.72342e-08
3.98671e-10
4.7106e-08
3.74057e-10
4.6984e-08
3.47485e-10
4.68672e-08
3.23782e-10
4.67566e-08
2.98314e-10
4.66509e-08
2.76612e-10
4.65513e-08
2.53182e-10
4.64559e-08
2.34252e-10
4.63663e-08
2.133e-10
4.62806e-08
1.97398e-10
4.62006e-08
1.79072e-10
4.6124e-08
1.66496e-10
4.60529e-08
1.51257e-10
4.59848e-08
1.4224e-10
4.59218e-08
1.30332e-10
4.58611e-08
1.24896e-10
4.58049e-08
1.16064e-10
4.57502e-08
1.13563e-10
4.56998e-08
1.0698e-10
4.565e-08
1.06509e-10
1.01055e-10
6.113e-08
2.07605e-09
-6.10505e-08
6.12767e-08
2.35286e-09
6.14995e-08
2.61273e-09
6.17744e-08
2.85261e-09
6.20423e-08
3.02142e-09
6.22774e-08
3.09197e-09
6.24754e-08
3.08251e-09
6.26404e-08
3.02027e-09
6.27719e-08
2.92755e-09
6.28675e-08
2.8177e-09
6.29286e-08
2.69982e-09
6.29615e-08
2.5828e-09
6.29759e-08
2.47509e-09
6.29795e-08
2.38222e-09
6.29762e-08
2.3039e-09
6.29679e-08
2.23659e-09
6.29558e-08
2.17702e-09
6.2941e-08
2.12289e-09
6.29238e-08
2.07284e-09
6.29048e-08
2.026e-09
6.2884e-08
1.98176e-09
6.28613e-08
1.9398e-09
6.28367e-08
1.89984e-09
6.28101e-08
1.86173e-09
6.27814e-08
1.82533e-09
6.27506e-08
1.79053e-09
6.27176e-08
1.75728e-09
6.26823e-08
1.72549e-09
6.26447e-08
1.69501e-09
6.26047e-08
1.66571e-09
6.25624e-08
1.63737e-09
6.25176e-08
1.61e-09
6.24705e-08
1.58362e-09
6.24209e-08
1.55824e-09
6.23688e-08
1.53383e-09
6.23141e-08
1.51036e-09
6.22565e-08
1.48768e-09
6.21961e-08
1.46584e-09
6.21326e-08
1.44444e-09
6.2066e-08
1.42331e-09
6.19965e-08
1.40231e-09
6.1924e-08
1.38143e-09
6.18487e-08
1.36089e-09
6.17706e-08
1.34072e-09
6.16899e-08
1.32086e-09
6.16062e-08
1.30162e-09
6.15194e-08
1.28314e-09
6.14292e-08
1.26485e-09
6.13358e-08
1.24629e-09
6.12393e-08
1.22683e-09
6.11402e-08
1.20682e-09
6.10389e-08
1.18671e-09
6.09357e-08
1.1669e-09
6.08306e-08
1.14702e-09
6.07228e-08
1.12818e-09
6.06122e-08
1.10968e-09
6.04983e-08
1.09082e-09
6.0382e-08
1.07006e-09
6.02639e-08
1.04848e-09
6.01452e-08
1.02534e-09
6.00262e-08
1.00237e-09
5.99067e-08
9.79616e-10
5.97855e-08
9.59007e-10
5.96619e-08
9.37906e-10
5.95359e-08
9.1632e-10
5.94092e-08
8.91368e-10
5.92829e-08
8.65286e-10
5.91584e-08
8.37512e-10
5.90346e-08
8.11789e-10
5.89111e-08
7.86015e-10
5.87869e-08
7.61883e-10
5.86627e-08
7.3554e-10
5.85385e-08
7.09255e-10
5.84161e-08
6.79909e-10
5.82954e-08
6.51691e-10
5.81775e-08
6.21288e-10
5.80614e-08
5.93648e-10
5.79479e-08
5.64047e-10
5.78356e-08
5.37808e-10
5.77257e-08
5.08561e-10
5.76171e-08
4.82701e-10
5.75117e-08
4.52851e-10
5.74085e-08
4.2698e-10
5.73096e-08
3.97236e-10
5.72133e-08
3.72914e-10
5.71213e-08
3.45149e-10
5.70315e-08
3.24048e-10
5.69455e-08
2.99264e-10
5.68612e-08
2.81742e-10
5.67806e-08
2.59677e-10
5.67016e-08
2.45473e-10
5.66268e-08
2.26113e-10
5.65538e-08
2.15208e-10
5.64852e-08
1.9892e-10
5.64184e-08
1.91737e-10
5.63558e-08
1.78608e-10
5.62943e-08
1.75048e-10
5.62371e-08
1.64253e-10
5.618e-08
1.63538e-10
1.5411e-10
6.773e-08
1.9977e-09
-6.76517e-08
6.78589e-08
2.22399e-09
6.80394e-08
2.43224e-09
6.82675e-08
2.62454e-09
6.85077e-08
2.78116e-09
6.87312e-08
2.86851e-09
6.89231e-08
2.89061e-09
6.90815e-08
2.86184e-09
6.92091e-08
2.79991e-09
6.93076e-08
2.71922e-09
6.93779e-08
2.62951e-09
6.94231e-08
2.53761e-09
6.9449e-08
2.44922e-09
6.94624e-08
2.36878e-09
6.94682e-08
2.2981e-09
6.94687e-08
2.23608e-09
6.94653e-08
2.1805e-09
6.94587e-08
2.12942e-09
6.94499e-08
2.08162e-09
6.94395e-08
2.03642e-09
6.94279e-08
1.99341e-09
6.94153e-08
1.95242e-09
6.94018e-08
1.91328e-09
6.93876e-08
1.8759e-09
6.93728e-08
1.84017e-09
6.93574e-08
1.80597e-09
6.93414e-08
1.77328e-09
6.93248e-08
1.74201e-09
6.93078e-08
1.71201e-09
6.92904e-08
1.68317e-09
6.92724e-08
1.65531e-09
6.9254e-08
1.62842e-09
6.92351e-08
1.6025e-09
6.92158e-08
1.57758e-09
6.9196e-08
1.55364e-09
6.91757e-08
1.53069e-09
6.91547e-08
1.50865e-09
6.9133e-08
1.48756e-09
6.91104e-08
1.46701e-09
6.90869e-08
1.44683e-09
6.90623e-08
1.42685e-09
6.90367e-08
1.40704e-09
6.90101e-08
1.38752e-09
6.89825e-08
1.36832e-09
6.89539e-08
1.34945e-09
6.89243e-08
1.33125e-09
6.88934e-08
1.31404e-09
6.8861e-08
1.29722e-09
6.88269e-08
1.28042e-09
6.8791e-08
1.26268e-09
6.87534e-08
1.24441e-09
6.87146e-08
1.22555e-09
6.86747e-08
1.2068e-09
6.8634e-08
1.18771e-09
6.85919e-08
1.17023e-09
6.85482e-08
1.15341e-09
6.8502e-08
1.13701e-09
6.84536e-08
1.11853e-09
6.84029e-08
1.09921e-09
6.83511e-08
1.07712e-09
6.82987e-08
1.05474e-09
6.82466e-08
1.03172e-09
6.81936e-08
1.01202e-09
6.81387e-08
9.92827e-10
6.80802e-08
9.74776e-10
6.80191e-08
9.52479e-10
6.79565e-08
9.27903e-10
6.78945e-08
8.99489e-10
6.78331e-08
8.73143e-10
6.7772e-08
8.47134e-10
6.77094e-08
8.24494e-10
6.7645e-08
7.99958e-10
6.75784e-08
7.75832e-10
6.7511e-08
7.47328e-10
6.74431e-08
7.19605e-10
6.73761e-08
6.88258e-10
6.73095e-08
6.6026e-10
6.72441e-08
6.2947e-10
6.71782e-08
6.03671e-10
6.71127e-08
5.74064e-10
6.70459e-08
5.495e-10
6.69795e-08
5.19316e-10
6.69124e-08
4.94015e-10
6.68469e-08
4.62737e-10
6.67822e-08
4.37623e-10
6.67198e-08
4.07548e-10
6.66584e-08
3.85414e-10
6.6599e-08
3.58733e-10
6.65398e-08
3.40964e-10
6.64818e-08
3.17656e-10
6.64237e-08
3.03567e-10
6.63669e-08
2.82858e-10
6.63107e-08
2.71476e-10
6.62564e-08
2.53184e-10
6.62032e-08
2.44893e-10
6.61527e-08
2.29206e-10
6.61029e-08
2.24802e-10
6.60559e-08
2.11288e-10
6.60089e-08
2.10526e-10
1.98511e-10
6.79285e-08
1.93246e-09
-6.78632e-08
6.80298e-08
2.12266e-09
6.8167e-08
2.29509e-09
6.83371e-08
2.45436e-09
6.85265e-08
2.59182e-09
6.8712e-08
2.68302e-09
6.88785e-08
2.72407e-09
6.90192e-08
2.72114e-09
6.91337e-08
2.68544e-09
6.92239e-08
2.62897e-09
6.9292e-08
2.56146e-09
6.934e-08
2.48961e-09
6.93713e-08
2.41797e-09
6.93901e-08
2.3499e-09
6.94008e-08
2.28747e-09
6.94059e-08
2.231e-09
6.94068e-08
2.17951e-09
6.94046e-08
2.13162e-09
6.94e-08
2.08629e-09
6.93935e-08
2.04294e-09
6.93855e-08
2.00132e-09
6.93766e-08
1.96136e-09
6.93669e-08
1.923e-09
6.93566e-08
1.8862e-09
6.93459e-08
1.8509e-09
6.93348e-08
1.81701e-09
6.93236e-08
1.78451e-09
6.93122e-08
1.75335e-09
6.93009e-08
1.72334e-09
6.92896e-08
1.69445e-09
6.92784e-08
1.66651e-09
6.92673e-08
1.63953e-09
6.92564e-08
1.61347e-09
6.92455e-08
1.58839e-09
6.92349e-08
1.56425e-09
6.92245e-08
1.54109e-09
6.92143e-08
1.51885e-09
6.92043e-08
1.49757e-09
6.91945e-08
1.47685e-09
6.91848e-08
1.45658e-09
6.9175e-08
1.43663e-09
6.91651e-08
1.41692e-09
6.91551e-08
1.39749e-09
6.91451e-08
1.3783e-09
6.91351e-08
1.35952e-09
6.9125e-08
1.34133e-09
6.91149e-08
1.32417e-09
6.91046e-08
1.30743e-09
6.90941e-08
1.29098e-09
6.90831e-08
1.27365e-09
6.90714e-08
1.25607e-09
6.90594e-08
1.23763e-09
6.90469e-08
1.21927e-09
6.90344e-08
1.20023e-09
6.90216e-08
1.18301e-09
6.90087e-08
1.1663e-09
6.8995e-08
1.15071e-09
6.89804e-08
1.13308e-09
6.89646e-08
1.11509e-09
6.89479e-08
1.09379e-09
6.89305e-08
1.0721e-09
6.89136e-08
1.04868e-09
6.88968e-08
1.0288e-09
6.88798e-08
1.00979e-09
6.88611e-08
9.93481e-10
6.88404e-08
9.73231e-10
6.88178e-08
9.50429e-10
6.8795e-08
9.2235e-10
6.87726e-08
8.95568e-10
6.87506e-08
8.69067e-10
6.87283e-08
8.46812e-10
6.87048e-08
8.23477e-10
6.86795e-08
8.01096e-10
6.86528e-08
7.74015e-10
6.8625e-08
7.4745e-10
6.8597e-08
7.16238e-10
6.85688e-08
6.88498e-10
6.85411e-08
6.57116e-10
6.8513e-08
6.31802e-10
6.84849e-08
6.02186e-10
6.84553e-08
5.79045e-10
6.8425e-08
5.49635e-10
6.83933e-08
5.25744e-10
6.83612e-08
4.94848e-10
6.83289e-08
4.69928e-10
6.82971e-08
4.39277e-10
6.82661e-08
4.16496e-10
6.82358e-08
3.88998e-10
6.82058e-08
3.70949e-10
6.8176e-08
3.47487e-10
6.81458e-08
3.33764e-10
6.81152e-08
3.13465e-10
6.80844e-08
3.023e-10
6.80534e-08
2.84134e-10
6.80229e-08
2.75405e-10
6.79932e-08
2.58917e-10
6.7964e-08
2.53998e-10
6.79362e-08
2.39056e-10
6.79083e-08
2.38405e-10
2.24726e-10
7.51824e-08
1.87015e-09
-7.512e-08
7.52728e-08
2.0322e-09
7.5391e-08
2.17687e-09
7.55346e-08
2.31082e-09
7.56973e-08
2.42909e-09
7.5862e-08
2.51828e-09
7.6016e-08
2.57007e-09
7.61506e-08
2.58652e-09
7.62626e-08
2.57348e-09
7.63524e-08
2.53914e-09
7.64222e-08
2.49165e-09
7.64744e-08
2.43749e-09
7.65113e-08
2.38105e-09
7.6536e-08
2.32521e-09
7.65516e-08
2.27181e-09
7.65609e-08
2.22171e-09
7.65656e-08
2.17486e-09
7.65666e-08
2.13061e-09
7.65647e-08
2.0882e-09
7.65605e-08
2.04714e-09
7.65545e-08
2.00731e-09
7.65471e-08
1.96871e-09
7.65388e-08
1.93135e-09
7.65297e-08
1.89529e-09
7.65201e-08
1.86052e-09
7.65101e-08
1.827e-09
7.64999e-08
1.79472e-09
7.64896e-08
1.76365e-09
7.64793e-08
1.73362e-09
7.64691e-08
1.70459e-09
7.64591e-08
1.67651e-09
7.64493e-08
1.64937e-09
7.64397e-08
1.62308e-09
7.64303e-08
1.59773e-09
7.64213e-08
1.57327e-09
7.64127e-08
1.54974e-09
7.64044e-08
1.52711e-09
7.63966e-08
1.50539e-09
7.63892e-08
1.48424e-09
7.63822e-08
1.46356e-09
7.63755e-08
1.44332e-09
7.6369e-08
1.4234e-09
7.63627e-08
1.40378e-09
7.63567e-08
1.38435e-09
7.63508e-08
1.36543e-09
7.63451e-08
1.34696e-09
7.63399e-08
1.32946e-09
7.63351e-08
1.31222e-09
7.63306e-08
1.29548e-09
7.63263e-08
1.27797e-09
7.63217e-08
1.2606e-09
7.63171e-08
1.24222e-09
7.63123e-08
1.22407e-09
7.63076e-08
1.20496e-09
7.6303e-08
1.18765e-09
7.62989e-08
1.17036e-09
7.6295e-08
1.15459e-09
7.62913e-08
1.13685e-09
7.6287e-08
1.11936e-09
7.62823e-08
1.09849e-09
7.62768e-08
1.0776e-09
7.62712e-08
1.05426e-09
7.6266e-08
1.03406e-09
7.62614e-08
1.01434e-09
7.62569e-08
9.98014e-10
7.62516e-08
9.78531e-10
7.6245e-08
9.56956e-10
7.62375e-08
9.29933e-10
7.62297e-08
9.03283e-10
7.62222e-08
8.76616e-10
7.62151e-08
8.53931e-10
7.62077e-08
8.30877e-10
7.61996e-08
8.09123e-10
7.61906e-08
7.83093e-10
7.61804e-08
7.57603e-10
7.61697e-08
7.26997e-10
7.61583e-08
6.99883e-10
7.61471e-08
6.68282e-10
7.61356e-08
6.43309e-10
7.61243e-08
6.13521e-10
7.61121e-08
5.91159e-10
7.60993e-08
5.62481e-10
7.60853e-08
5.39734e-10
7.60702e-08
5.09984e-10
7.60545e-08
4.85613e-10
7.60383e-08
4.55454e-10
7.60225e-08
4.32267e-10
7.60071e-08
4.04442e-10
7.59923e-08
3.85745e-10
7.59776e-08
3.62152e-10
7.59631e-08
3.48285e-10
7.59478e-08
3.28776e-10
7.59323e-08
3.17835e-10
7.59156e-08
3.00753e-10
7.5899e-08
2.92061e-10
7.58822e-08
2.75704e-10
7.58654e-08
2.7077e-10
7.58496e-08
2.54919e-10
7.58334e-08
2.54552e-10
2.39534e-10
8.31899e-08
1.81214e-09
-8.31319e-08
8.327e-08
1.9521e-09
8.33716e-08
2.07526e-09
8.34927e-08
2.18975e-09
8.36299e-08
2.29188e-09
8.3772e-08
2.37618e-09
8.3909e-08
2.43301e-09
8.40331e-08
2.46242e-09
8.41396e-08
2.46707e-09
8.4227e-08
2.45173e-09
8.42964e-08
2.42217e-09
8.43501e-08
2.38382e-09
8.43902e-08
2.34094e-09
8.4419e-08
2.29641e-09
8.44388e-08
2.25199e-09
8.44519e-08
2.20869e-09
8.44598e-08
2.16693e-09
8.44638e-08
2.12663e-09
8.44645e-08
2.08743e-09
8.44627e-08
2.049e-09
8.44587e-08
2.01129e-09
8.44531e-08
1.97433e-09
8.44462e-08
1.93822e-09
8.44384e-08
1.9031e-09
8.44299e-08
1.86901e-09
8.44209e-08
1.83598e-09
8.44117e-08
1.804e-09
8.44022e-08
1.77308e-09
8.43928e-08
1.74309e-09
8.43834e-08
1.71399e-09
8.43741e-08
1.6858e-09
8.43649e-08
1.65853e-09
8.43559e-08
1.63205e-09
8.43472e-08
1.60645e-09
8.43388e-08
1.58167e-09
8.43308e-08
1.55779e-09
8.43231e-08
1.53478e-09
8.43159e-08
1.5126e-09
8.43092e-08
1.49098e-09
8.43029e-08
1.46984e-09
8.4297e-08
1.44924e-09
8.42913e-08
1.42903e-09
8.4286e-08
1.40917e-09
8.42809e-08
1.38943e-09
8.4276e-08
1.37033e-09
8.42714e-08
1.35156e-09
8.42672e-08
1.33364e-09
8.42636e-08
1.31576e-09
8.42606e-08
1.29853e-09
8.42579e-08
1.28065e-09
8.42552e-08
1.26328e-09
8.42527e-08
1.24478e-09
8.425e-08
1.22676e-09
8.42473e-08
1.20768e-09
8.42446e-08
1.19032e-09
8.42427e-08
1.17229e-09
8.42413e-08
1.15595e-09
8.42405e-08
1.13763e-09
8.42398e-08
1.12009e-09
8.42389e-08
1.09937e-09
8.42373e-08
1.07926e-09
8.42351e-08
1.05647e-09
8.42329e-08
1.03626e-09
8.42314e-08
1.01575e-09
8.42311e-08
9.98394e-10
8.4231e-08
9.78598e-10
8.42305e-08
9.57449e-10
8.42287e-08
9.31771e-10
8.42261e-08
9.05831e-10
8.42231e-08
8.79625e-10
8.42207e-08
8.56311e-10
8.42186e-08
8.32966e-10
8.42169e-08
8.10907e-10
8.42146e-08
7.85318e-10
8.42117e-08
7.60556e-10
8.4208e-08
7.30667e-10
8.42035e-08
7.04419e-10
8.41988e-08
6.72944e-10
8.41938e-08
6.4834e-10
8.4189e-08
6.1831e-10
8.4184e-08
5.96136e-10
8.41787e-08
5.67809e-10
8.41728e-08
5.45603e-10
8.41658e-08
5.1704e-10
8.41581e-08
4.9327e-10
8.41494e-08
4.64158e-10
8.41407e-08
4.4094e-10
8.4132e-08
4.13124e-10
8.41241e-08
3.9372e-10
8.41165e-08
3.69713e-10
8.41096e-08
3.55214e-10
8.41023e-08
3.36085e-10
8.4095e-08
3.25112e-10
8.40866e-08
3.09106e-10
8.4078e-08
3.00753e-10
8.40688e-08
2.84812e-10
8.40592e-08
2.8043e-10
8.40502e-08
2.63871e-10
8.40407e-08
2.64109e-10
2.4792e-10
9.20322e-08
1.76039e-09
-9.19804e-08
9.21011e-08
1.88314e-09
9.21867e-08
1.98966e-09
9.22873e-08
2.08919e-09
9.24001e-08
2.17904e-09
9.25193e-08
2.257e-09
9.26369e-08
2.31544e-09
9.27466e-08
2.35271e-09
9.28437e-08
2.36992e-09
9.29259e-08
2.36958e-09
9.29928e-08
2.35528e-09
9.30456e-08
2.33094e-09
9.30864e-08
2.30017e-09
9.3117e-08
2.26579e-09
9.31393e-08
2.22971e-09
9.31549e-08
2.19307e-09
9.31654e-08
2.15648e-09
9.31718e-08
2.12024e-09
9.31749e-08
2.08433e-09
9.31752e-08
2.04864e-09
9.31733e-08
2.0132e-09
9.31696e-08
1.97809e-09
9.31643e-08
1.94345e-09
9.3158e-08
1.90941e-09
9.31509e-08
1.8761e-09
9.31433e-08
1.84366e-09
9.31352e-08
1.81207e-09
9.31269e-08
1.78137e-09
9.31185e-08
1.7515e-09
9.311e-08
1.72244e-09
9.31016e-08
1.6942e-09
9.30934e-08
1.66681e-09
9.30853e-08
1.64017e-09
9.30773e-08
1.61438e-09
9.30697e-08
1.58935e-09
9.30623e-08
1.56519e-09
9.30552e-08
1.54182e-09
9.30486e-08
1.51919e-09
9.30425e-08
1.49714e-09
9.30367e-08
1.47562e-09
9.30312e-08
1.45469e-09
9.30261e-08
1.4342e-09
9.30212e-08
1.41407e-09
9.30166e-08
1.39403e-09
9.30122e-08
1.37473e-09
9.30081e-08
1.35565e-09
9.30043e-08
1.33736e-09
9.30012e-08
1.31893e-09
9.29985e-08
1.30121e-09
9.29962e-08
1.28293e-09
9.2994e-08
1.26546e-09
9.29921e-08
1.24677e-09
9.299e-08
1.22884e-09
9.29878e-08
1.20983e-09
9.29857e-08
1.19244e-09
9.29843e-08
1.17373e-09
9.29834e-08
1.15678e-09
9.29832e-08
1.13786e-09
9.29832e-08
1.12009e-09
9.29832e-08
1.09937e-09
9.29826e-08
1.07985e-09
9.29814e-08
1.05769e-09
9.298e-08
1.03766e-09
9.29791e-08
1.01664e-09
9.29794e-08
9.98097e-10
9.29804e-08
9.77577e-10
9.29816e-08
9.56319e-10
9.29815e-08
9.31841e-10
9.29805e-08
9.06776e-10
9.29788e-08
8.814e-10
9.29774e-08
8.57628e-10
9.29765e-08
8.33901e-10
9.29762e-08
8.11202e-10
9.29759e-08
7.85678e-10
9.29751e-08
7.61351e-10
9.29737e-08
7.32072e-10
9.29714e-08
7.06721e-10
9.29687e-08
6.75552e-10
9.29657e-08
6.51402e-10
9.29628e-08
6.21193e-10
9.296e-08
5.98962e-10
9.29571e-08
5.7072e-10
9.2954e-08
5.48649e-10
9.295e-08
5.21048e-10
9.29455e-08
4.97822e-10
9.29397e-08
4.69891e-10
9.29337e-08
4.46976e-10
9.29274e-08
4.19395e-10
9.29216e-08
3.99541e-10
9.29163e-08
3.74968e-10
9.29118e-08
3.59723e-10
9.29075e-08
3.40446e-10
9.29034e-08
3.29224e-10
9.28987e-08
3.13816e-10
9.28936e-08
3.05826e-10
9.28882e-08
2.90185e-10
9.2882e-08
2.86619e-10
9.28763e-08
2.69544e-10
9.28699e-08
2.70594e-10
2.53598e-10
1.01798e-07
1.71656e-09
-1.01754e-07
1.01855e-07
1.8263e-09
1.01924e-07
1.92031e-09
1.02005e-07
2.0086e-09
1.02095e-07
2.08925e-09
1.02191e-07
2.16098e-09
1.02287e-07
2.21911e-09
1.02379e-07
2.26068e-09
1.02463e-07
2.28612e-09
1.02536e-07
2.29665e-09
1.02597e-07
2.29432e-09
1.02646e-07
2.28166e-09
1.02685e-07
2.26138e-09
1.02715e-07
2.2359e-09
1.02737e-07
2.20715e-09
1.02754e-07
2.17647e-09
1.02766e-07
2.14469e-09
1.02774e-07
2.11229e-09
1.02778e-07
2.07951e-09
1.02781e-07
2.04647e-09
1.0278e-07
2.01326e-09
1.02779e-07
1.98e-09
1.02775e-07
1.94688e-09
1.02771e-07
1.914e-09
1.02765e-07