/*--------------------------------*- C++ -*----------------------------------*\
| =========                 |                                                 |
| \\      /  F ield         | OpenFOAM: The Open Source CFD Toolbox           |
|  \\    /   O peration     | Version:  2.3.0                                 |
|   \\  /    A nd           | Web:      www.OpenFOAM.org                      |
|    \\/     M anipulation  |                                                 |
\*---------------------------------------------------------------------------*/
FoamFile
{
    version     2.0;
    format      ascii;
    class       volVectorField;
    location    "0.45";
    object      U;
}
// * * * * * * * * * * * * * * * * * * * * * * * * * * * * * * * * * * * * * //

dimensions      [0 1 -1 0 0 0 0];

internalField   nonuniform List<vector> 
2000
(
(0.175527 0.00442125 0)
(0.154837 0.00604537 0)
(0.136039 0.0061987 0)
(0.11769 0.00557954 0)
(0.0999809 0.00475247 0)
(0.0837968 0.00383714 0)
(0.0702357 0.00284631 0)
(0.0596833 0.00180365 0)
(0.051912 0.000897399 0)
(0.046355 0.000287285 0)
(0.0424293 -3.13889e-05 0)
(0.0396514 -0.000151828 0)
(0.0376332 -0.000161941 0)
(0.03609 -0.000122369 0)
(0.0348196 -6.59098e-05 0)
(0.0336949 -1.19865e-05 0)
(0.032648 2.95381e-05 0)
(0.0316503 5.64956e-05 0)
(0.0306955 7.10289e-05 0)
(0.0297861 7.66404e-05 0)
(0.0289269 7.65992e-05 0)
(0.0281208 7.34103e-05 0)
(0.0273686 6.87759e-05 0)
(0.0266688 6.37424e-05 0)
(0.0260183 5.88642e-05 0)
(0.0254134 5.43604e-05 0)
(0.02485 5.03094e-05 0)
(0.0243241 4.6733e-05 0)
(0.0238315 4.35977e-05 0)
(0.0233688 4.08365e-05 0)
(0.0229328 3.83567e-05 0)
(0.0225208 3.61052e-05 0)
(0.0221306 3.40709e-05 0)
(0.0217603 3.22313e-05 0)
(0.021408 3.05525e-05 0)
(0.0210723 2.89969e-05 0)
(0.0207521 2.7536e-05 0)
(0.0204462 2.61774e-05 0)
(0.0201537 2.49074e-05 0)
(0.0198739 2.3711e-05 0)
(0.0196059 2.25856e-05 0)
(0.0193491 2.15165e-05 0)
(0.0191029 2.05115e-05 0)
(0.0188667 1.95766e-05 0)
(0.01864 1.86807e-05 0)
(0.0184222 1.78255e-05 0)
(0.018213 1.70352e-05 0)
(0.0180119 1.62931e-05 0)
(0.0178184 1.55882e-05 0)
(0.0176324 1.48864e-05 0)
(0.0174536 1.41908e-05 0)
(0.0172818 1.356e-05 0)
(0.0171164 1.3006e-05 0)
(0.0169573 1.24394e-05 0)
(0.0168043 1.1877e-05 0)
(0.0166572 1.13665e-05 0)
(0.0165158 1.08841e-05 0)
(0.0163799 1.03723e-05 0)
(0.0162496 9.88233e-06 0)
(0.0161247 9.42006e-06 0)
(0.0160051 8.96938e-06 0)
(0.0158906 8.52441e-06 0)
(0.0157811 8.12694e-06 0)
(0.0156764 7.74032e-06 0)
(0.0155765 7.35156e-06 0)
(0.0154814 6.94867e-06 0)
(0.0153911 6.54669e-06 0)
(0.0153057 6.14421e-06 0)
(0.015225 5.76776e-06 0)
(0.0151491 5.41341e-06 0)
(0.0150775 5.07737e-06 0)
(0.0150104 4.74189e-06 0)
(0.0149476 4.4028e-06 0)
(0.0148893 4.05294e-06 0)
(0.0148355 3.71167e-06 0)
(0.0147861 3.37365e-06 0)
(0.0147409 3.05419e-06 0)
(0.0146999 2.74965e-06 0)
(0.014663 2.45993e-06 0)
(0.0146299 2.17731e-06 0)
(0.0146008 1.89156e-06 0)
(0.0145752 1.6201e-06 0)
(0.0145536 1.32749e-06 0)
(0.0145351 1.06589e-06 0)
(0.0145206 7.79618e-07 0)
(0.0145086 5.51511e-07 0)
(0.0145003 3.05087e-07 0)
(0.0144937 1.53778e-07 0)
(0.0144907 -2.5644e-08 0)
(0.0144881 -1.00298e-07 0)
(0.014489 -2.83481e-07 0)
(0.0144889 -3.0745e-07 0)
(0.0144921 -4.23776e-07 0)
(0.0144925 -3.37478e-07 0)
(0.0144963 -3.82371e-07 0)
(0.0144952 -2.04958e-07 0)
(0.0144983 -2.40939e-07 0)
(0.0144941 2.73841e-08 0)
(0.0144957 1.96297e-08 0)
(0.0144875 3.88214e-07 0)
(0.190922 0.00782986 0)
(0.189233 0.0109754 0)
(0.186863 0.012092 0)
(0.183194 0.0119534 0)
(0.177963 0.0113238 0)
(0.171355 0.0104227 0)
(0.163988 0.00925606 0)
(0.156315 0.00782222 0)
(0.148688 0.00627465 0)
(0.141321 0.00483421 0)
(0.134344 0.00364573 0)
(0.127865 0.00274217 0)
(0.121933 0.00209082 0)
(0.116572 0.00164547 0)
(0.111749 0.00135338 0)
(0.107406 0.00116371 0)
(0.103478 0.00103563 0)
(0.0999075 0.000941478 0)
(0.0966455 0.000865027 0)
(0.0936524 0.000797877 0)
(0.090896 0.000736271 0)
(0.0883497 0.000678947 0)
(0.0859911 0.00062573 0)
(0.0838006 0.000576781 0)
(0.081761 0.000532234 0)
(0.0798572 0.000492018 0)
(0.0780757 0.000455964 0)
(0.0764047 0.000423821 0)
(0.0748332 0.000395214 0)
(0.0733518 0.000369728 0)
(0.0719522 0.00034687 0)
(0.0706273 0.000326217 0)
(0.0693707 0.000307476 0)
(0.0681768 0.000290402 0)
(0.0670408 0.000274785 0)
(0.0659584 0.000260396 0)
(0.0649258 0.000246986 0)
(0.0639397 0.000234473 0)
(0.0629971 0.000222791 0)
(0.0620953 0.000211877 0)
(0.0612319 0.000201647 0)
(0.0604046 0.000191977 0)
(0.0596114 0.000182872 0)
(0.0588503 0.000174345 0)
(0.0581199 0.000166261 0)
(0.0574183 0.000158582 0)
(0.0567443 0.000151366 0)
(0.0560963 0.00014455 0)
(0.0554731 0.000138081 0)
(0.0548739 0.000131825 0)
(0.0542978 0.000125771 0)
(0.0537437 0.000120089 0)
(0.0532106 0.00011481 0)
(0.0526977 0.000109633 0)
(0.0522045 0.000104601 0)
(0.0517304 9.98551e-05 0)
(0.0512746 9.53134e-05 0)
(0.050837 9.07784e-05 0)
(0.0504168 8.64087e-05 0)
(0.050014 8.22107e-05 0)
(0.0496279 7.81326e-05 0)
(0.0492584 7.41457e-05 0)
(0.0489048 7.03847e-05 0)
(0.0485672 6.67206e-05 0)
(0.0482449 6.31129e-05 0)
(0.0479383 5.95125e-05 0)
(0.0476468 5.59742e-05 0)
(0.0473709 5.24861e-05 0)
(0.0471097 4.91415e-05 0)
(0.0468635 4.59167e-05 0)
(0.0466315 4.28071e-05 0)
(0.046414 3.97446e-05 0)
(0.0462105 3.67288e-05 0)
(0.0460213 3.37259e-05 0)
(0.0458459 3.08163e-05 0)
(0.0456843 2.7969e-05 0)
(0.0455362 2.52542e-05 0)
(0.045401 2.26405e-05 0)
(0.0452789 2.01539e-05 0)
(0.0451687 1.77462e-05 0)
(0.0450713 1.54204e-05 0)
(0.0449846 1.32078e-05 0)
(0.0449105 1.10384e-05 0)
(0.0448455 9.05194e-06 0)
(0.0447929 7.11371e-06 0)
(0.044747 5.45141e-06 0)
(0.044713 3.84442e-06 0)
(0.0446828 2.61055e-06 0)
(0.0446642 1.40501e-06 0)
(0.0446454 6.36451e-07 0)
(0.0446382 -2.08277e-07 0)
(0.044626 -4.87934e-07 0)
(0.044626 -9.12089e-07 0)
(0.0446152 -6.55141e-07 0)
(0.0446182 -6.91487e-07 0)
(0.0446043 4.55546e-08 0)
(0.0446075 2.16588e-07 0)
(0.0445867 1.21333e-06 0)
(0.044589 1.42344e-06 0)
(0.04456 2.65948e-06 0)
(0.192158 0.0075304 0)
(0.192532 0.0100946 0)
(0.193533 0.0116819 0)
(0.194627 0.0122192 0)
(0.195213 0.012136 0)
(0.194973 0.0117027 0)
(0.193885 0.0109734 0)
(0.192036 0.00998213 0)
(0.189555 0.00883505 0)
(0.186586 0.00769086 0)
(0.183263 0.00667514 0)
(0.179725 0.00583827 0)
(0.176085 0.0051679 0)
(0.172439 0.00463482 0)
(0.168835 0.00420439 0)
(0.165294 0.00384575 0)
(0.161826 0.00353597 0)
(0.158435 0.00326028 0)
(0.155127 0.00301007 0)
(0.151904 0.00278057 0)
(0.14877 0.00256915 0)
(0.14573 0.00237438 0)
(0.142786 0.00219542 0)
(0.139942 0.00203157 0)
(0.137199 0.00188203 0)
(0.134558 0.00174587 0)
(0.132019 0.00162226 0)
(0.129581 0.00151041 0)
(0.12724 0.00140934 0)
(0.124995 0.00131792 0)
(0.122843 0.00123498 0)
(0.120779 0.00115952 0)
(0.1188 0.00109078 0)
(0.116902 0.00102797 0)
(0.115082 0.000970387 0)
(0.113336 0.000917422 0)
(0.111659 0.000868492 0)
(0.110049 0.000823175 0)
(0.108501 0.000781001 0)
(0.107014 0.000741665 0)
(0.105584 0.000705006 0)
(0.104208 0.000670693 0)
(0.102883 0.000638479 0)
(0.101607 0.000608246 0)
(0.100377 0.000579747 0)
(0.0991928 0.000552875 0)
(0.0980509 0.000527597 0)
(0.0969494 0.000503641 0)
(0.095887 0.000480874 0)
(0.0948624 0.000459098 0)
(0.0938743 0.000438258 0)
(0.0929211 0.000418533 0)
(0.0920015 0.00039993 0)
(0.0911147 0.000381912 0)
(0.0902595 0.000364519 0)
(0.0894352 0.000347936 0)
(0.0886408 0.000332013 0)
(0.0878759 0.00031639 0)
(0.0871395 0.000301335 0)
(0.0864316 0.000286822 0)
(0.0857509 0.000272744 0)
(0.0850977 0.000259016 0)
(0.0844707 0.000245874 0)
(0.0838702 0.000233065 0)
(0.083295 0.000220532 0)
(0.0827459 0.000208165 0)
(0.0822218 0.000196069 0)
(0.0817233 0.000184192 0)
(0.0812494 0.000172722 0)
(0.0808004 0.000161584 0)
(0.0803752 0.000150796 0)
(0.0799743 0.000140201 0)
(0.0795969 0.000129847 0)
(0.0792432 0.000119629 0)
(0.0789129 0.00010975 0)
(0.0786054 0.000100092 0)
(0.078321 9.08601e-05 0)
(0.0780578 8.19124e-05 0)
(0.0778175 7.34069e-05 0)
(0.0775965 6.51512e-05 0)
(0.0773983 5.72924e-05 0)
(0.0772171 4.97561e-05 0)
(0.0770589 4.25955e-05 0)
(0.0769142 3.59073e-05 0)
(0.076793 2.96592e-05 0)
(0.0766808 2.40577e-05 0)
(0.0765923 1.89281e-05 0)
(0.0765071 1.45771e-05 0)
(0.0764466 1.06879e-05 0)
(0.0763818 7.7086e-06 0)
(0.0763434 5.18885e-06 0)
(0.0762918 3.7493e-06 0)
(0.0762695 2.54614e-06 0)
(0.0762232 2.53239e-06 0)
(0.0762114 2.46211e-06 0)
(0.0761633 3.59747e-06 0)
(0.076158 4.27411e-06 0)
(0.0761027 6.07286e-06 0)
(0.0761014 6.79029e-06 0)
(0.0760372 9.06771e-06 0)
(0.193332 0.00709763 0)
(0.193654 0.00885931 0)
(0.194572 0.0102888 0)
(0.195987 0.0110386 0)
(0.197504 0.0112039 0)
(0.198781 0.0109923 0)
(0.199652 0.0105219 0)
(0.200068 0.00985629 0)
(0.200034 0.00906645 0)
(0.199586 0.00824758 0)
(0.19878 0.00749026 0)
(0.197696 0.00684588 0)
(0.196414 0.00632146 0)
(0.195003 0.00589528 0)
(0.193505 0.00554061 0)
(0.191942 0.00523523 0)
(0.190323 0.00496328 0)
(0.188653 0.00471433 0)
(0.186934 0.00448191 0)
(0.18517 0.00426215 0)
(0.183365 0.00405281 0)
(0.181523 0.00385285 0)
(0.179653 0.00366187 0)
(0.17776 0.00347977 0)
(0.175851 0.0033064 0)
(0.173933 0.0031415 0)
(0.172012 0.00298497 0)
(0.170093 0.00283682 0)
(0.168181 0.00269689 0)
(0.166281 0.00256487 0)
(0.164398 0.00244017 0)
(0.162533 0.00232235 0)
(0.160692 0.00221113 0)
(0.158875 0.00210617 0)
(0.157085 0.00200698 0)
(0.155323 0.00191312 0)
(0.153593 0.0018242 0)
(0.151894 0.00174012 0)
(0.150229 0.00166059 0)
(0.148597 0.0015852 0)
(0.147 0.00151376 0)
(0.145438 0.00144611 0)
(0.143912 0.00138205 0)
(0.14242 0.0013212 0)
(0.140964 0.00126314 0)
(0.139544 0.00120795 0)
(0.138159 0.00115582 0)
(0.136808 0.00110625 0)
(0.135492 0.00105881 0)
(0.134211 0.00101316 0)
(0.132965 0.000969392 0)
(0.131752 0.000927737 0)
(0.130573 0.000888075 0)
(0.129426 0.000849697 0)
(0.128312 0.00081275 0)
(0.127231 0.000777353 0)
(0.126182 0.000743202 0)
(0.125165 0.000709778 0)
(0.124179 0.000677458 0)
(0.123225 0.000646151 0)
(0.122301 0.000615792 0)
(0.12141 0.000586257 0)
(0.120548 0.00055786 0)
(0.119717 0.000530126 0)
(0.118916 0.000502967 0)
(0.118146 0.000476164 0)
(0.117406 0.000449957 0)
(0.116697 0.000424246 0)
(0.116017 0.00039938 0)
(0.115368 0.000375149 0)
(0.114748 0.000351647 0)
(0.114158 0.000328501 0)
(0.113598 0.000305918 0)
(0.113067 0.0002836 0)
(0.112567 0.000262063 0)
(0.112094 0.000240931 0)
(0.111652 0.000220763 0)
(0.111235 0.000201061 0)
(0.110851 0.000182377 0)
(0.110488 0.000164073 0)
(0.110159 0.000146783 0)
(0.109848 0.000129973 0)
(0.109573 0.000114237 0)
(0.10931 9.91822e-05 0)
(0.109085 8.54019e-05 0)
(0.108866 7.25456e-05 0)
(0.108687 6.11398e-05 0)
(0.108505 5.0791e-05 0)
(0.108368 4.19826e-05 0)
(0.108215 3.43263e-05 0)
(0.108115 2.83043e-05 0)
(0.107983 2.35799e-05 0)
(0.107912 2.02942e-05 0)
(0.107792 1.82757e-05 0)
(0.107745 1.73428e-05 0)
(0.107629 1.75152e-05 0)
(0.107601 1.8088e-05 0)
(0.107481 1.97736e-05 0)
(0.107468 2.06236e-05 0)
(0.10734 2.33064e-05 0)
(0.194317 0.00677537 0)
(0.194609 0.00806481 0)
(0.195293 0.00923009 0)
(0.19639 0.00999432 0)
(0.197714 0.0102807 0)
(0.19901 0.0101921 0)
(0.200108 0.00985399 0)
(0.200939 0.00935554 0)
(0.201492 0.00876256 0)
(0.201777 0.00813743 0)
(0.201824 0.0075414 0)
(0.201675 0.00701731 0)
(0.201384 0.00658015 0)
(0.201 0.00622098 0)
(0.200556 0.00592175 0)
(0.20007 0.00566524 0)
(0.19955 0.00543851 0)
(0.198994 0.00523264 0)
(0.198399 0.00504167 0)
(0.197763 0.00486171 0)
(0.197084 0.00469025 0)
(0.19636 0.00452582 0)
(0.195593 0.00436764 0)
(0.194784 0.00421532 0)
(0.193935 0.00406854 0)
(0.193049 0.00392696 0)
(0.192128 0.00379049 0)
(0.191173 0.003659 0)
(0.190189 0.00353232 0)
(0.189177 0.00341032 0)
(0.18814 0.00329258 0)
(0.187081 0.00317892 0)
(0.186002 0.0030694 0)
(0.184905 0.002964 0)
(0.183793 0.00286247 0)
(0.182667 0.00276434 0)
(0.181529 0.00266921 0)
(0.180381 0.00257716 0)
(0.179226 0.00248803 0)
(0.178064 0.00240164 0)
(0.176899 0.00231792 0)
(0.175732 0.00223693 0)
(0.174566 0.00215897 0)
(0.173402 0.00208374 0)
(0.17224 0.0020105 0)
(0.171082 0.00193931 0)
(0.169929 0.0018706 0)
(0.168783 0.00180409 0)
(0.167645 0.00173941 0)
(0.166517 0.00167615 0)
(0.165401 0.00161472 0)
(0.164298 0.00155567 0)
(0.163207 0.00149861 0)
(0.16213 0.0014424 0)
(0.161067 0.00138753 0)
(0.16002 0.0013343 0)
(0.158988 0.00128237 0)
(0.157976 0.00123127 0)
(0.156982 0.0011817 0)
(0.156008 0.00113317 0)
(0.155054 0.0010855 0)
(0.15412 0.00103855 0)
(0.153207 0.000993049 0)
(0.152315 0.000948382 0)
(0.151446 0.000904653 0)
(0.150601 0.000861289 0)
(0.14978 0.000818645 0)
(0.148984 0.000776358 0)
(0.148213 0.000735242 0)
(0.147466 0.00069483 0)
(0.146747 0.000655635 0)
(0.14605 0.000616787 0)
(0.145384 0.000578953 0)
(0.144741 0.000541212 0)
(0.144131 0.000504782 0)
(0.143542 0.000468576 0)
(0.142988 0.0004341 0)
(0.142452 0.000399949 0)
(0.141955 0.00036777 0)
(0.141472 0.000335744 0)
(0.141032 0.000305786 0)
(0.140599 0.00027599 0)
(0.140216 0.000248499 0)
(0.139833 0.000221341 0)
(0.139505 0.000196915 0)
(0.139166 0.000173039 0)
(0.138892 0.000152391 0)
(0.138592 0.000132353 0)
(0.138367 0.000115905 0)
(0.1381 0.000100001 0)
(0.137922 8.80402e-05 0)
(0.137679 7.65876e-05 0)
(0.137544 6.90402e-05 0)
(0.137318 6.1832e-05 0)
(0.137222 5.81762e-05 0)
(0.137004 5.45923e-05 0)
(0.136942 5.35931e-05 0)
(0.136724 5.27132e-05 0)
(0.136694 5.28454e-05 0)
(0.136469 5.35982e-05 0)
(0.195159 0.00650324 0)
(0.195429 0.00750464 0)
(0.195965 0.00843511 0)
(0.196793 0.00912813 0)
(0.197829 0.00947626 0)
(0.198912 0.0094954 0)
(0.199898 0.00927358 0)
(0.200705 0.00889946 0)
(0.201308 0.00843956 0)
(0.201716 0.00794442 0)
(0.201949 0.00745695 0)
(0.202039 0.00701112 0)
(0.202024 0.00662496 0)
(0.201942 0.00629913 0)
(0.201824 0.006024 0)
(0.201687 0.00578723 0)
(0.201542 0.00557828 0)
(0.201387 0.0053894 0)
(0.201222 0.00521531 0)
(0.201043 0.0050525 0)
(0.200846 0.00489859 0)
(0.20063 0.00475218 0)
(0.200393 0.00461233 0)
(0.200135 0.00447856 0)
(0.199856 0.00435042 0)
(0.199555 0.00422738 0)
(0.199233 0.00410923 0)
(0.19889 0.00399571 0)
(0.198526 0.00388639 0)
(0.198141 0.003781 0)
(0.197736 0.00367901 0)
(0.19731 0.00358028 0)
(0.196866 0.00348486 0)
(0.196403 0.00339267 0)
(0.195922 0.00330361 0)
(0.195422 0.00321731 0)
(0.194904 0.00313335 0)
(0.194369 0.00305173 0)
(0.193816 0.002972 0)
(0.193246 0.00289382 0)
(0.192661 0.00281703 0)
(0.192061 0.00274161 0)
(0.191448 0.00266814 0)
(0.190822 0.00259673 0)
(0.190184 0.00252679 0)
(0.189535 0.0024584 0)
(0.188875 0.00239178 0)
(0.188203 0.00232626 0)
(0.187521 0.00226125 0)
(0.18683 0.00219611 0)
(0.186133 0.00213165 0)
(0.185432 0.00206921 0)
(0.184726 0.00200879 0)
(0.184017 0.00194885 0)
(0.183304 0.00188985 0)
(0.182587 0.00183161 0)
(0.181866 0.00177329 0)
(0.181144 0.0017142 0)
(0.180424 0.00165619 0)
(0.179708 0.00159916 0)
(0.178998 0.0015434 0)
(0.178291 0.00148817 0)
(0.177589 0.00143405 0)
(0.176888 0.0013793 0)
(0.176194 0.00132462 0)
(0.175505 0.00126944 0)
(0.174831 0.00121534 0)
(0.174165 0.00116142 0)
(0.173516 0.00110916 0)
(0.172872 0.0010568 0)
(0.172246 0.00100562 0)
(0.171623 0.000953616 0)
(0.171025 0.000902905 0)
(0.17043 0.000851449 0)
(0.169866 0.000802209 0)
(0.169304 0.000752399 0)
(0.168779 0.000705377 0)
(0.168249 0.000657571 0)
(0.167762 0.000612864 0)
(0.167264 0.000566971 0)
(0.166817 0.000524617 0)
(0.166353 0.000481044 0)
(0.16595 0.000441728 0)
(0.16552 0.000401375 0)
(0.165165 0.000366119 0)
(0.164766 0.000329768 0)
(0.164457 0.000299338 0)
(0.164086 0.000267548 0)
(0.163822 0.000242422 0)
(0.163473 0.000215606 0)
(0.163254 0.000196282 0)
(0.162925 0.000175064 0)
(0.16275 0.000161612 0)
(0.162435 0.000145954 0)
(0.162305 0.000137914 0)
(0.161997 0.000127132 0)
(0.16191 0.000123198 0)
(0.161601 0.000116044 0)
(0.161558 0.000114731 0)
(0.161239 0.000109626 0)
(0.195895 0.00625242 0)
(0.196141 0.00704656 0)
(0.19657 0.00778591 0)
(0.197201 0.00837458 0)
(0.197995 0.00872942 0)
(0.198861 0.00882883 0)
(0.199691 0.00871415 0)
(0.200407 0.00845162 0)
(0.200971 0.00810168 0)
(0.20138 0.00771067 0)
(0.201646 0.00731357 0)
(0.201796 0.0069369 0)
(0.201856 0.00659756 0)
(0.201858 0.00630133 0)
(0.201825 0.00604503 0)
(0.201778 0.00582108 0)
(0.201726 0.00562157 0)
(0.201673 0.00544005 0)
(0.201619 0.00527206 0)
(0.201563 0.00511469 0)
(0.201501 0.00496597 0)
(0.201434 0.00482485 0)
(0.20136 0.00469056 0)
(0.201278 0.00456265 0)
(0.20119 0.00444073 0)
(0.201094 0.0043243 0)
(0.200991 0.00421308 0)
(0.200882 0.0041068 0)
(0.200765 0.00400496 0)
(0.20064 0.00390721 0)
(0.200508 0.0038129 0)
(0.200369 0.00372191 0)
(0.200221 0.00363421 0)
(0.200066 0.0035497 0)
(0.199903 0.0034683 0)
(0.199731 0.00338989 0)
(0.199552 0.00331415 0)
(0.199363 0.00324107 0)
(0.199165 0.00316985 0)
(0.198956 0.00309999 0)
(0.198738 0.00303122 0)
(0.19851 0.00296344 0)
(0.198274 0.00289706 0)
(0.198027 0.00283228 0)
(0.197772 0.00276879 0)
(0.197509 0.0027071 0)
(0.197236 0.00264748 0)
(0.196953 0.00258901 0)
(0.196659 0.00253081 0)
(0.196354 0.00247161 0)
(0.196041 0.00241188 0)
(0.195719 0.00235285 0)
(0.19539 0.00229528 0)
(0.195055 0.00223815 0)
(0.194715 0.00218305 0)
(0.194366 0.00212937 0)
(0.194007 0.00207558 0)
(0.193637 0.0020191 0)
(0.193262 0.00196179 0)
(0.192879 0.00190314 0)
(0.192497 0.00184556 0)
(0.192113 0.00178923 0)
(0.19173 0.00173653 0)
(0.191336 0.00168327 0)
(0.19094 0.00162918 0)
(0.19053 0.0015709 0)
(0.190127 0.00151204 0)
(0.189717 0.00145205 0)
(0.189324 0.00139577 0)
(0.188921 0.00133981 0)
(0.188532 0.00128636 0)
(0.188125 0.00123009 0)
(0.187736 0.0011746 0)
(0.187328 0.00111569 0)
(0.186949 0.0010595 0)
(0.186551 0.00100124 0)
(0.18619 0.000947697 0)
(0.185804 0.000892103 0)
(0.185461 0.000841611 0)
(0.185082 0.000787615 0)
(0.184755 0.000738793 0)
(0.184383 0.000685611 0)
(0.184078 0.000638722 0)
(0.183717 0.000587887 0)
(0.183442 0.000545315 0)
(0.183095 0.000499063 0)
(0.182851 0.000462479 0)
(0.182515 0.00042157 0)
(0.182299 0.000390999 0)
(0.181969 0.000355071 0)
(0.181783 0.000330384 0)
(0.181457 0.000299865 0)
(0.181304 0.000281328 0)
(0.180982 0.000256685 0)
(0.180866 0.000244541 0)
(0.180546 0.000225459 0)
(0.180467 0.000218838 0)
(0.180143 0.000203771 0)
(0.180103 0.000201236 0)
(0.179769 0.000188182 0)
(0.196544 0.00600914 0)
(0.196761 0.00664296 0)
(0.197107 0.00723078 0)
(0.197592 0.00771811 0)
(0.198198 0.00804891 0)
(0.198874 0.008195 0)
(0.19955 0.0081671 0)
(0.200161 0.00800385 0)
(0.200668 0.00775153 0)
(0.201054 0.00745089 0)
(0.201325 0.0071332 0)
(0.201497 0.00682105 0)
(0.20159 0.00652938 0)
(0.201628 0.00626578 0)
(0.201631 0.00603102 0)
(0.201616 0.00582154 0)
(0.201592 0.00563211 0)
(0.201566 0.00545779 0)
(0.201539 0.00529501 0)
(0.201511 0.00514145 0)
(0.20148 0.00499561 0)
(0.201447 0.00485682 0)
(0.20141 0.00472456 0)
(0.201371 0.00459843 0)
(0.201329 0.00447811 0)
(0.201284 0.00436328 0)
(0.201238 0.00425374 0)
(0.20119 0.00414916 0)
(0.201142 0.00404906 0)
(0.201091 0.00395306 0)
(0.20104 0.00386053 0)
(0.200987 0.00377136 0)
(0.200933 0.00368548 0)
(0.200877 0.00360285 0)
(0.20082 0.00352337 0)
(0.200761 0.00344704 0)
(0.200701 0.00337364 0)
(0.20064 0.00330326 0)
(0.200576 0.00323497 0)
(0.200509 0.00316828 0)
(0.200439 0.00310282 0)
(0.200366 0.00303848 0)
(0.200291 0.00297539 0)
(0.200212 0.00291354 0)
(0.200129 0.00285284 0)
(0.200045 0.00279418 0)
(0.199958 0.00273827 0)
(0.199866 0.00268399 0)
(0.19977 0.00263047 0)
(0.199668 0.00257584 0)
(0.199562 0.00252043 0)
(0.199451 0.00246453 0)
(0.199336 0.00240942 0)
(0.199216 0.00235421 0)
(0.199098 0.00230219 0)
(0.198973 0.00225238 0)
(0.198845 0.00220395 0)
(0.198706 0.00215243 0)
(0.198565 0.00209976 0)
(0.198412 0.00204312 0)
(0.198262 0.00198617 0)
(0.198105 0.00192877 0)
(0.197957 0.00187738 0)
(0.197797 0.00182754 0)
(0.19764 0.00177996 0)
(0.197461 0.00172615 0)
(0.197287 0.00166923 0)
(0.197096 0.00160674 0)
(0.196923 0.00154819 0)
(0.196736 0.00149064 0)
(0.196567 0.00143907 0)
(0.196372 0.00138489 0)
(0.196195 0.00133212 0)
(0.195987 0.00127299 0)
(0.195804 0.001216 0)
(0.195591 0.00115412 0)
(0.195413 0.00109825 0)
(0.195201 0.00103891 0)
(0.195031 0.000987684 0)
(0.194817 0.000931363 0)
(0.194652 0.000883 0)
(0.194429 0.000827031 0)
(0.194267 0.000779049 0)
(0.194038 0.000723132 0)
(0.193886 0.000677442 0)
(0.193658 0.000625153 0)
(0.193522 0.000585624 0)
(0.193297 0.000539764 0)
(0.193178 0.000507711 0)
(0.19295 0.000467764 0)
(0.192843 0.000441918 0)
(0.192609 0.000406816 0)
(0.192516 0.000386132 0)
(0.192277 0.000355868 0)
(0.192202 0.000341015 0)
(0.191962 0.000315895 0)
(0.19191 0.000307371 0)
(0.191666 0.000286374 0)
(0.19164 0.000283223 0)
(0.191386 0.00026431 0)
(0.19709 0.00578355 0)
(0.197279 0.00629689 0)
(0.197561 0.00677285 0)
(0.197942 0.0071775 0)
(0.198411 0.00747507 0)
(0.198939 0.00764138 0)
(0.199481 0.00767347 0)
(0.199991 0.00758938 0)
(0.200433 0.00741958 0)
(0.200786 0.00719631 0)
(0.201047 0.00694701 0)
(0.201227 0.00669212 0)
(0.201338 0.00644537 0)
(0.201398 0.00621474 0)
(0.201424 0.00600311 0)
(0.201428 0.00580965 0)
(0.201421 0.00563157 0)
(0.201408 0.00546556 0)
(0.201392 0.00530893 0)
(0.201374 0.00515989 0)
(0.201353 0.00501738 0)
(0.20133 0.00488097 0)
(0.201304 0.00475042 0)
(0.201275 0.00462554 0)
(0.201244 0.00450605 0)
(0.201212 0.00439171 0)
(0.201179 0.00428243 0)
(0.201146 0.00417795 0)
(0.201113 0.00407772 0)
(0.20108 0.00398147 0)
(0.201047 0.00388868 0)
(0.201014 0.00379926 0)
(0.200982 0.003713 0)
(0.200951 0.00362995 0)
(0.200919 0.00354997 0)
(0.200888 0.00347313 0)
(0.200859 0.00339926 0)
(0.20083 0.00332857 0)
(0.200801 0.00326014 0)
(0.200772 0.00319346 0)
(0.200743 0.00312818 0)
(0.200715 0.00306415 0)
(0.200687 0.00300143 0)
(0.200658 0.00293989 0)
(0.200628 0.00287957 0)
(0.200598 0.00282106 0)
(0.20057 0.00276553 0)
(0.20054 0.0027118 0)
(0.20051 0.0026594 0)
(0.200478 0.00260604 0)
(0.200447 0.00255255 0)
(0.200412 0.00249795 0)
(0.200377 0.00244381 0)
(0.200338 0.00238865 0)
(0.200303 0.00233716 0)
(0.200264 0.00228782 0)
(0.200228 0.00224157 0)
(0.200184 0.00219253 0)
(0.200145 0.00214327 0)
(0.200093 0.00208848 0)
(0.200047 0.00203275 0)
(0.199991 0.00197404 0)
(0.199947 0.00192194 0)
(0.199892 0.00187246 0)
(0.199849 0.00182901 0)
(0.199786 0.00177993 0)
(0.199731 0.001727 0)
(0.199655 0.00166475 0)
(0.199597 0.00160474 0)
(0.199522 0.00154536 0)
(0.199468 0.00149436 0)
(0.199392 0.00144239 0)
(0.199333 0.00139329 0)
(0.199247 0.00133674 0)
(0.199179 0.00128178 0)
(0.199085 0.00121949 0)
(0.199016 0.0011635 0)
(0.198919 0.0011023 0)
(0.198855 0.00105149 0)
(0.198754 0.000994657 0)
(0.198692 0.000948646 0)
(0.198583 0.000893512 0)
(0.198518 0.000847732 0)
(0.198398 0.000791589 0)
(0.198332 0.000745753 0)
(0.198208 0.000691406 0)
(0.198148 0.000650374 0)
(0.198024 0.000602314 0)
(0.197972 0.000569665 0)
(0.197847 0.000528881 0)
(0.197801 0.000503587 0)
(0.197669 0.00046838 0)
(0.197625 0.000447769 0)
(0.197488 0.000416588 0)
(0.197448 0.000400576 0)
(0.197307 0.000373051 0)
(0.197277 0.000363219 0)
(0.197132 0.000339133 0)
(0.197117 0.000335555 0)
(0.196966 0.000313852 0)
(0.197562 0.00558342 0)
(0.197724 0.00600806 0)
(0.197954 0.00640181 0)
(0.198256 0.00674194 0)
(0.198621 0.00700539 0)
(0.199034 0.00717401 0)
(0.199464 0.007241 0)
(0.19988 0.00721319 0)
(0.200254 0.00710847 0)
(0.200567 0.00694972 0)
(0.200811 0.00675907 0)
(0.200988 0.00655454 0)
(0.201108 0.00634892 0)
(0.201182 0.00615026 0)
(0.201223 0.00596248 0)
(0.201241 0.00578636 0)
(0.201246 0.00562097 0)
(0.201243 0.0054646 0)
(0.201235 0.00531537 0)
(0.201224 0.005172 0)
(0.20121 0.00503389 0)
(0.201193 0.00490078 0)
(0.201173 0.00477255 0)
(0.201151 0.00464934 0)
(0.201126 0.00453105 0)
(0.2011 0.00441744 0)
(0.201073 0.00430838 0)
(0.201045 0.00420382 0)
(0.201018 0.00410327 0)
(0.20099 0.00400649 0)
(0.200964 0.00391313 0)
(0.200937 0.00382309 0)
(0.200912 0.00373611 0)
(0.200887 0.00365226 0)
(0.200863 0.00357136 0)
(0.200839 0.00349352 0)
(0.200817 0.00341862 0)
(0.200796 0.00334683 0)
(0.200776 0.00327735 0)
(0.200756 0.00320973 0)
(0.200738 0.00314371 0)
(0.200721 0.00307907 0)
(0.200706 0.00301582 0)
(0.200688 0.00295374 0)
(0.200672 0.00289321 0)
(0.200657 0.00283412 0)
(0.200644 0.00277776 0)
(0.20063 0.00272305 0)
(0.200617 0.00267027 0)
(0.200604 0.00261663 0)
(0.200595 0.00256361 0)
(0.200583 0.00250918 0)
(0.200571 0.00245544 0)
(0.200556 0.00239998 0)
(0.200546 0.0023484 0)
(0.200533 0.00229812 0)
(0.200524 0.00225184 0)
(0.20051 0.00220283 0)
(0.200505 0.00215483 0)
(0.200489 0.00210097 0)
(0.20048 0.00204681 0)
(0.200461 0.001988 0)
(0.200451 0.00193508 0)
(0.200431 0.00188415 0)
(0.200426 0.00184119 0)
(0.200408 0.0017942 0)
(0.200399 0.00174422 0)
(0.200374 0.00168383 0)
(0.20036 0.00162372 0)
(0.200333 0.00156338 0)
(0.20032 0.00151155 0)
(0.200294 0.0014602 0)
(0.200281 0.00141281 0)
(0.200252 0.00135844 0)
(0.200235 0.00130568 0)
(0.200199 0.00124431 0)
(0.200179 0.00118925 0)
(0.200139 0.00112727 0)
(0.20012 0.00107685 0)
(0.200077 0.00101956 0)
(0.200061 0.000975065 0)
(0.200013 0.000921263 0)
(0.199994 0.000877683 0)
(0.19994 0.000823275 0)
(0.199917 0.000778297 0)
(0.199856 0.000724239 0)
(0.199832 0.000682364 0)
(0.199771 0.000633388 0)
(0.199751 0.000599701 0)
(0.199691 0.000558632 0)
(0.199674 0.000533274 0)
(0.199613 0.000499224 0)
(0.199595 0.000478981 0)
(0.19953 0.000449074 0)
(0.19951 0.000432901 0)
(0.199441 0.000404999 0)
(0.199423 0.000394727 0)
(0.19935 0.000368818 0)
(0.199341 0.000365222 0)
(0.199263 0.00034173 0)
(0.197993 0.00540007 0)
(0.198128 0.00575531 0)
(0.198313 0.00608473 0)
(0.198549 0.00637287 0)
(0.198832 0.00660448 0)
(0.199149 0.00676665 0)
(0.199484 0.00685263 0)
(0.199815 0.006864 0)
(0.200121 0.00681017 0)
(0.200387 0.00670574 0)
(0.200604 0.00656683 0)
(0.200771 0.00640809 0)
(0.20089 0.00624097 0)
(0.200971 0.00607329 0)
(0.201022 0.00590962 0)
(0.20105 0.00575189 0)
(0.201065 0.00560042 0)
(0.20107 0.0054548 0)
(0.201069 0.00531404 0)
(0.201063 0.00517737 0)
(0.201055 0.00504463 0)
(0.201043 0.00491581 0)
(0.201029 0.00479082 0)
(0.201012 0.00466991 0)
(0.200993 0.00455321 0)
(0.200971 0.00444068 0)
(0.200949 0.0043322 0)
(0.200927 0.00422781 0)
(0.200904 0.00412711 0)
(0.20088 0.00402994 0)
(0.200858 0.00393609 0)
(0.200836 0.00384546 0)
(0.200814 0.0037577 0)
(0.200793 0.00367309 0)
(0.200772 0.00359141 0)
(0.200752 0.00351269 0)
(0.200734 0.00343677 0)
(0.200716 0.00336368 0)
(0.2007 0.00329285 0)
(0.200683 0.00322407 0)
(0.200669 0.00315723 0)
(0.200655 0.00309192 0)
(0.200644 0.00302798 0)
(0.20063 0.002965 0)
(0.200618 0.002904 0)
(0.200606 0.00284435 0)
(0.200597 0.00278717 0)
(0.200587 0.00273106 0)
(0.200579 0.00267724 0)
(0.20057 0.00262268 0)
(0.200566 0.00256947 0)
(0.20056 0.00251471 0)
(0.200555 0.00246131 0)
(0.200545 0.00240596 0)
(0.200542 0.00235439 0)
(0.200535 0.00230271 0)
(0.200532 0.00225528 0)
(0.200526 0.00220505 0)
(0.200528 0.00215698 0)
(0.200523 0.00210339 0)
(0.200524 0.00205076 0)
(0.200516 0.00199294 0)
(0.200515 0.00194003 0)
(0.200505 0.00188762 0)
(0.200507 0.00184289 0)
(0.200502 0.00179547 0)
(0.200507 0.00174644 0)
(0.2005 0.00168846 0)
(0.2005 0.00162957 0)
(0.200489 0.00156987 0)
(0.200486 0.00151692 0)
(0.200476 0.00146507 0)
(0.200475 0.00141739 0)
(0.200467 0.00136394 0)
(0.200465 0.00131266 0)
(0.200453 0.0012525 0)
(0.200449 0.00119892 0)
(0.200432 0.00113702 0)
(0.200427 0.00108715 0)
(0.200407 0.00102934 0)
(0.200404 0.00098521 0)
(0.200383 0.000932106 0)
(0.200379 0.000889624 0)
(0.200355 0.000837269 0)
(0.200347 0.000793337 0)
(0.200319 0.000740824 0)
(0.200307 0.000698772 0)
(0.200277 0.000649643 0)
(0.200266 0.00061473 0)
(0.200237 0.000573048 0)
(0.200229 0.000546656 0)
(0.200203 0.00051333 0)
(0.200195 0.000493028 0)
(0.200168 0.000464784 0)
(0.200157 0.000449113 0)
(0.200126 0.000421657 0)
(0.200114 0.000412056 0)
(0.200079 0.000384836 0)
(0.200073 0.000381972 0)
(0.200033 0.0003568 0)
(0.19839 0.00523518 0)
(0.198499 0.00553599 0)
(0.198644 0.00581502 0)
(0.198825 0.0060617 0)
(0.199039 0.0062657 0)
(0.199278 0.00641802 0)
(0.199532 0.00651312 0)
(0.199786 0.00655039 0)
(0.200028 0.00653426 0)
(0.200245 0.00647327 0)
(0.200429 0.00637816 0)
(0.200577 0.00625979 0)
(0.200689 0.00612761 0)
(0.200769 0.00598883 0)
(0.200823 0.00584831 0)
(0.200857 0.00570883 0)
(0.200878 0.00557165 0)
(0.200888 0.00543724 0)
(0.200892 0.00530551 0)
(0.200892 0.00517622 0)
(0.200888 0.00504945 0)
(0.200881 0.00492544 0)
(0.200871 0.00480434 0)
(0.200859 0.00468634 0)
(0.200845 0.00457165 0)
(0.200829 0.00446055 0)
(0.200812 0.00435305 0)
(0.200794 0.00424914 0)
(0.200775 0.00414852 0)
(0.200756 0.00405111 0)
(0.200738 0.00395695 0)
(0.200719 0.003866 0)
(0.200702 0.00377776 0)
(0.200685 0.00369243 0)
(0.200668 0.00360992 0)
(0.200651 0.00353035 0)
(0.200635 0.0034536 0)
(0.200621 0.00337949 0)
(0.200607 0.00330752 0)
(0.200593 0.00323752 0)
(0.200581 0.00316972 0)
(0.20057 0.00310367 0)
(0.20056 0.00303912 0)
(0.200549 0.00297535 0)
(0.200539 0.00291383 0)
(0.20053 0.00285363 0)
(0.200523 0.00279577 0)
(0.200514 0.00273827 0)
(0.200508 0.0026831 0)
(0.200501 0.00262755 0)
(0.200498 0.00257418 0)
(0.200494 0.00251897 0)
(0.20049 0.00246563 0)
(0.200483 0.00241045 0)
(0.200481 0.00235902 0)
(0.200476 0.00230608 0)
(0.200474 0.00225742 0)
(0.20047 0.00220585 0)
(0.200473 0.0021571 0)
(0.20047 0.00210322 0)
(0.200473 0.00205162 0)
(0.200468 0.00199521 0)
(0.20047 0.001943 0)
(0.200462 0.00188993 0)
(0.200465 0.00184296 0)
(0.200462 0.00179391 0)
(0.200469 0.00174429 0)
(0.200467 0.00168836 0)
(0.20047 0.00163119 0)
(0.200464 0.00157325 0)
(0.200463 0.00151969 0)
(0.200458 0.00146713 0)
(0.200458 0.00141823 0)
(0.200456 0.00136469 0)
(0.200457 0.00131417 0)
(0.200452 0.00125504 0)
(0.200452 0.00120312 0)
(0.200443 0.00114179 0)
(0.200441 0.00109277 0)
(0.20043 0.00103472 0)
(0.200429 0.000990428 0)
(0.200417 0.000937456 0)
(0.200416 0.000895089 0)
(0.200404 0.000844327 0)
(0.2004 0.00080125 0)
(0.200385 0.000750639 0)
(0.200376 0.000709028 0)
(0.200358 0.000660237 0)
(0.200349 0.000624479 0)
(0.200332 0.000581941 0)
(0.200326 0.000554165 0)
(0.200312 0.000520758 0)
(0.200307 0.000499978 0)
(0.200294 0.000472859 0)
(0.200288 0.000457854 0)
(0.200272 0.000430879 0)