/*--------------------------------*- C++ -*----------------------------------*\
| =========                 |                                                 |
| \\      /  F ield         | OpenFOAM: The Open Source CFD Toolbox           |
|  \\    /   O peration     | Version:  2.3.0                                 |
|   \\  /    A nd           | Web:      www.OpenFOAM.org                      |
|    \\/     M anipulation  |                                                 |
\*---------------------------------------------------------------------------*/
FoamFile
{
    version     2.0;
    format      ascii;
    class       surfaceScalarField;
    location    "0.85";
    object      phi_0;
}
// * * * * * * * * * * * * * * * * * * * * * * * * * * * * * * * * * * * * * //

dimensions      [0 3 -1 0 0 0 0];

internalField   nonuniform List<scalar> 
3203
(
3.95879e-08
3.6093e-09
-4.31972e-08
3.50009e-08
4.58694e-09
3.04302e-08
4.57071e-09
2.61245e-08
4.30571e-09
2.21116e-08
4.01287e-09
1.85137e-08
3.5979e-09
1.55038e-08
3.00996e-09
1.31618e-08
2.342e-09
1.14719e-08
1.68986e-09
1.03121e-08
1.1598e-09
9.52432e-09
7.8779e-10
8.97638e-09
5.47939e-10
8.57524e-09
4.01146e-10
8.25783e-09
3.17404e-10
7.98319e-09
2.74647e-10
7.72934e-09
2.53849e-10
7.48735e-09
2.41984e-10
7.25509e-09
2.32267e-10
7.03325e-09
2.21831e-10
6.82326e-09
2.09998e-10
6.62595e-09
1.97308e-10
6.4417e-09
1.84251e-10
6.27006e-09
1.71641e-10
6.11036e-09
1.59695e-10
5.96155e-09
1.48817e-10
5.82254e-09
1.39007e-10
5.69239e-09
1.30151e-10
5.57003e-09
1.2236e-10
5.45474e-09
1.15284e-10
5.34577e-09
1.08972e-10
5.24246e-09
1.03311e-10
5.14441e-09
9.80464e-11
5.05102e-09
9.33909e-11
4.96204e-09
8.89817e-11
4.87709e-09
8.49506e-11
4.79577e-09
8.13224e-11
4.71803e-09
7.77372e-11
4.64339e-09
7.46435e-11
4.57182e-09
7.15702e-11
4.50299e-09
6.88229e-11
4.43685e-09
6.6148e-11
4.37302e-09
6.38253e-11
4.3117e-09
6.13224e-11
4.25223e-09
5.94631e-11
4.19508e-09
5.71541e-11
4.13955e-09
5.55331e-11
4.086e-09
5.35456e-11
4.03389e-09
5.21119e-11
3.98358e-09
5.03095e-11
3.93434e-09
4.92369e-11
3.88698e-09
4.73653e-11
3.84007e-09
4.69119e-11
3.79524e-09
4.48297e-11
3.75037e-09
4.48699e-11
3.70737e-09
4.2995e-11
3.66405e-09
4.33262e-11
3.62263e-09
4.14122e-11
3.57984e-09
4.27914e-11
3.53947e-09
4.03723e-11
4.69068e-11
4.67201e-08
3.26589e-09
-4.63767e-08
4.64278e-08
4.87923e-09
4.54699e-08
5.52854e-09
4.416e-08
5.61561e-09
4.26153e-08
5.55764e-09
4.08521e-08
5.36107e-09
3.89114e-08
4.95065e-09
3.6905e-08
4.34844e-09
3.49486e-08
3.64619e-09
3.31276e-08
2.9808e-09
3.14705e-08
2.44497e-09
2.99685e-08
2.04988e-09
2.86115e-08
1.75814e-09
2.73914e-08
1.53748e-09
2.6292e-08
1.37404e-09
2.52976e-08
1.24834e-09
2.43936e-08
1.14597e-09
2.35678e-08
1.05804e-09
2.28099e-08
9.79755e-10
2.21116e-08
9.08301e-10
2.14658e-08
8.43045e-10
2.08672e-08
7.82897e-10
2.03105e-08
7.2837e-10
1.97916e-08
6.78536e-10
1.93066e-08
6.33876e-10
1.88521e-08
5.93459e-10
1.8425e-08
5.57224e-10
1.80228e-08
5.24551e-10
1.7643e-08
4.95144e-10
1.72837e-08
4.68265e-10
1.69428e-08
4.44234e-10
1.66192e-08
4.21635e-10
1.63109e-08
4.01644e-10
1.60175e-08
3.82452e-10
1.5737e-08
3.65359e-10
1.54693e-08
3.49066e-10
1.52128e-08
3.34205e-10
1.49674e-08
3.20072e-10
1.47316e-08
3.07351e-10
1.45057e-08
2.94775e-10
1.4288e-08
2.83824e-10
1.4079e-08
2.72773e-10
1.38774e-08
2.6302e-10
1.36834e-08
2.53433e-10
1.34957e-08
2.44813e-10
1.33151e-08
2.36119e-10
1.31398e-08
2.28849e-10
1.29711e-08
2.20804e-10
1.28069e-08
2.14593e-10
1.26486e-08
2.07448e-10
1.24942e-08
2.01786e-10
1.23452e-08
1.95976e-10
1.21994e-08
1.90596e-10
1.20584e-08
1.85848e-10
1.19198e-08
1.81634e-10
1.17856e-08
1.7746e-10
1.16529e-08
1.74159e-10
1.15235e-08
1.72147e-10
1.13948e-08
1.6914e-10
1.76614e-10
4.92817e-08
3.07687e-09
-4.90927e-08
4.9754e-08
4.40692e-09
4.99573e-08
5.32531e-09
4.99538e-08
5.61905e-09
4.98288e-08
5.68263e-09
4.95604e-08
5.6295e-09
4.90895e-08
5.42156e-09
4.8415e-08
5.02293e-09
4.75795e-08
4.48172e-09
4.66493e-08
3.91094e-09
4.56786e-08
3.41573e-09
4.46953e-08
3.03313e-09
4.37093e-08
2.74414e-09
4.27277e-08
2.5191e-09
4.17596e-08
2.34212e-09
4.08105e-08
2.19742e-09
3.98831e-08
2.07342e-09
3.89795e-08
1.96166e-09
3.81009e-08
1.85832e-09
3.72491e-08
1.76015e-09
3.64246e-08
1.6675e-09
3.56289e-08
1.57857e-09
3.48621e-08
1.49522e-09
3.41249e-08
1.41572e-09
3.34166e-08
1.34217e-09
3.27375e-08
1.27261e-09
3.2086e-08
1.20867e-09
3.14621e-08
1.14843e-09
3.08639e-08
1.09336e-09
3.02912e-08
1.04099e-09
2.97417e-08
9.93761e-10
2.92154e-08
9.47896e-10
2.87098e-08
9.07251e-10
2.82252e-08
8.66997e-10
2.7759e-08
8.31636e-10
2.73117e-08
7.96365e-10
2.68805e-08
7.65408e-10
2.64665e-08
7.34076e-10
2.60665e-08
7.0734e-10
2.56822e-08
6.79006e-10
2.53102e-08
6.55904e-10
2.49526e-08
6.30367e-10
2.46055e-08
6.10061e-10
2.42719e-08
5.87074e-10
2.39473e-08
5.69419e-10
2.36354e-08
5.48023e-10
2.33309e-08
5.33328e-10
2.30387e-08
5.13043e-10
2.27524e-08
5.00832e-10
2.24779e-08
4.81944e-10
2.22082e-08
4.71563e-10
2.19497e-08
4.54423e-10
2.16946e-08
4.45663e-10
2.14506e-08
4.29876e-10
2.12084e-08
4.23837e-10
2.0977e-08
4.0888e-10
2.07458e-08
4.05317e-10
2.05243e-08
3.93695e-10
2.03016e-08
3.91822e-10
3.92013e-10
5.19721e-08
3.0139e-09
-5.19091e-08
5.23561e-08
4.02296e-09
5.27539e-08
4.92745e-09
5.30293e-08
5.34363e-09
5.32561e-08
5.45584e-09
5.34504e-08
5.43522e-09
5.35622e-08
5.3098e-09
5.35451e-08
5.03999e-09
5.33867e-08
4.64018e-09
5.31125e-08
4.18515e-09
5.27618e-08
3.76642e-09
5.23638e-08
3.43107e-09
5.19282e-08
3.17977e-09
5.14595e-08
2.98781e-09
5.09641e-08
2.83753e-09
5.0448e-08
2.71353e-09
4.99137e-08
2.60766e-09
4.93641e-08
2.51124e-09
4.88005e-08
2.42201e-09
4.82254e-08
2.33518e-09
4.76403e-08
2.25261e-09
4.70484e-08
2.17051e-09
4.64509e-08
2.09267e-09
4.58515e-08
2.01519e-09
4.52508e-08
1.94283e-09
4.46525e-08
1.87095e-09
4.40566e-08
1.80456e-09
4.34664e-08
1.73859e-09
4.28815e-08
1.67826e-09
4.23049e-08
1.61758e-09
4.17356e-08
1.56311e-09
4.11765e-08
1.50695e-09
4.06259e-08
1.45787e-09
4.00871e-08
1.40583e-09
3.95573e-08
1.36144e-09
3.90402e-08
1.31343e-09
3.85324e-08
1.27322e-09
3.80378e-08
1.22862e-09
3.75524e-08
1.19278e-09
3.70806e-08
1.15084e-09
3.66173e-08
1.11913e-09
3.61679e-08
1.07978e-09
3.57264e-08
1.05157e-09
3.52988e-08
1.0147e-09
3.48782e-08
9.9003e-10
3.44716e-08
9.54592e-10
3.40709e-08
9.33987e-10
3.36844e-08
8.99563e-10
3.33027e-08
8.82506e-10
3.29353e-08
8.49377e-10
3.25714e-08
8.35515e-10
3.2222e-08
8.03832e-10
3.18747e-08
7.92923e-10
3.15418e-08
7.62793e-10
3.12099e-08
7.55707e-10
3.08921e-08
7.26666e-10
3.05737e-08
7.23698e-10
3.02687e-08
6.987e-10
2.99613e-08
6.99257e-10
6.86139e-10
5.48239e-08
2.97325e-09
-5.47833e-08
5.50935e-08
3.75342e-09
5.54803e-08
4.54067e-09
5.58067e-08
5.01722e-09
5.60777e-08
5.18479e-09
5.63348e-08
5.17818e-09
5.65652e-08
5.07933e-09
5.67312e-08
4.87401e-09
5.68047e-08
4.56668e-09
5.67891e-08
4.20078e-09
5.6711e-08
3.8445e-09
5.65959e-08
3.54617e-09
5.64538e-08
3.32183e-09
5.62888e-08
3.15287e-09
5.61023e-08
3.02398e-09
5.58982e-08
2.91764e-09
5.56766e-08
2.82921e-09
5.54392e-08
2.74872e-09
5.51844e-08
2.67677e-09
5.49136e-08
2.60599e-09
5.46254e-08
2.54086e-09
5.43217e-08
2.47418e-09
5.40014e-08
2.41296e-09
5.36675e-08
2.34908e-09
5.33187e-08
2.29162e-09
5.29587e-08
2.23096e-09
5.2586e-08
2.17728e-09
5.22044e-08
2.12016e-09
5.18123e-08
2.07033e-09
5.14137e-08
2.01622e-09
5.10065e-08
1.97029e-09
5.05952e-08
1.91824e-09
5.0177e-08
1.87607e-09
4.97572e-08
1.82568e-09
4.93319e-08
1.78677e-09
4.8907e-08
1.73831e-09
4.84781e-08
1.70208e-09
4.80515e-08
1.65527e-09
4.76221e-08
1.6222e-09
4.71966e-08
1.57628e-09
4.67692e-08
1.54655e-09
4.63474e-08
1.50153e-09
4.59243e-08
1.4747e-09
4.55082e-08
1.43078e-09
4.50913e-08
1.407e-09
4.46825e-08
1.36333e-09
4.42732e-08
1.34337e-09
4.38731e-08
1.29962e-09
4.34723e-08
1.2833e-09
4.30821e-08
1.23958e-09
4.26906e-08
1.22703e-09
4.23107e-08
1.18376e-09
4.19294e-08
1.17422e-09
4.15596e-08
1.13259e-09
4.11884e-08
1.12686e-09
4.08291e-08
1.08597e-09
4.04672e-08
1.08562e-09
4.01173e-08
1.04862e-09
3.97634e-08
1.05314e-09
1.02691e-09
5.78034e-08
2.922e-09
-5.77522e-08
5.80016e-08
3.55524e-09
5.83356e-08
4.20662e-09
5.86639e-08
4.68896e-09
5.89401e-08
4.90861e-09
5.91868e-08
4.9315e-09
5.94158e-08
4.85032e-09
5.96065e-08
4.68326e-09
5.97339e-08
4.43935e-09
5.97932e-08
4.14143e-09
5.97995e-08
3.83825e-09
5.97767e-08
3.56895e-09
5.97369e-08
3.36168e-09
5.96862e-08
3.2035e-09
5.96248e-08
3.0854e-09
5.95556e-08
2.9869e-09
5.94778e-08
2.90702e-09
5.93933e-08
2.83319e-09
5.92998e-08
2.77025e-09
5.91986e-08
2.70721e-09
5.90866e-08
2.65286e-09
5.89656e-08
2.59516e-09
5.88325e-08
2.54607e-09
5.86899e-08
2.49165e-09
5.85347e-08
2.44685e-09
5.83701e-08
2.39555e-09
5.81929e-08
2.35444e-09
5.80068e-08
2.3063e-09
5.78084e-08
2.26872e-09
5.76016e-08
2.22305e-09
5.73827e-08
2.1892e-09
5.71563e-08
2.14463e-09
5.6918e-08
2.11434e-09
5.66734e-08
2.07027e-09
5.64174e-08
2.04279e-09
5.61559e-08
1.99973e-09
5.58839e-08
1.97412e-09
5.56075e-08
1.93171e-09
5.53211e-08
1.90861e-09
5.50316e-08
1.86579e-09
5.47326e-08
1.8455e-09
5.44319e-08
1.80224e-09
5.41225e-08
1.78403e-09
5.38124e-08
1.7409e-09
5.34946e-08
1.72484e-09
5.31771e-08
1.68086e-09
5.28525e-08
1.66795e-09
5.25295e-08
1.62265e-09
5.21998e-08
1.61297e-09
5.1873e-08
1.56637e-09
5.15399e-08
1.56011e-09
5.12106e-08
1.5131e-09
5.08761e-08
1.50868e-09
5.05451e-08
1.46361e-09
5.02099e-08
1.46208e-09
4.98788e-08
1.41702e-09
4.95432e-08
1.42122e-09
4.92122e-08
1.37969e-09
4.88764e-08
1.38886e-09
1.35719e-09
6.09108e-08
2.85988e-09
-6.08487e-08
6.10718e-08
3.39429e-09
6.13476e-08
3.93079e-09
6.16556e-08
4.38091e-09
6.19311e-08
4.63315e-09
6.21677e-08
4.69493e-09
6.238e-08
4.63803e-09
6.25627e-08
4.50054e-09
6.26979e-08
4.30413e-09
6.27789e-08
4.06037e-09
6.28116e-08
3.8056e-09
6.28155e-08
3.56505e-09
6.28043e-08
3.37284e-09
6.27868e-08
3.22099e-09
6.27634e-08
3.10882e-09
6.27369e-08
3.0134e-09
6.27063e-08
2.93759e-09
6.26745e-08
2.86505e-09
6.26391e-08
2.80567e-09
6.26023e-08
2.74398e-09
6.25609e-08
2.69425e-09
6.25171e-08
2.63899e-09
6.24673e-08
2.5958e-09
6.24143e-08
2.54471e-09
6.23545e-08
2.50665e-09
6.22908e-08
2.45917e-09
6.22199e-08
2.42536e-09
6.21449e-08
2.38133e-09
6.20621e-08
2.35148e-09
6.1975e-08
2.31014e-09
6.18796e-08
2.2847e-09
6.17796e-08
2.24457e-09
6.16707e-08
2.22321e-09
6.15574e-08
2.18364e-09
6.14349e-08
2.16529e-09
6.13076e-08
2.12702e-09
6.11711e-08
2.11062e-09
6.10299e-08
2.07286e-09
6.08793e-08
2.05923e-09
6.07242e-08
2.02086e-09
6.05598e-08
2.00998e-09
6.03907e-08
1.97126e-09
6.0213e-08
1.96181e-09
6.00306e-08
1.92329e-09
5.98397e-08
1.9157e-09
5.96447e-08
1.87591e-09
5.94414e-08
1.87118e-09
5.92343e-08
1.82981e-09
5.90196e-08
1.82767e-09
5.88011e-08
1.78478e-09
5.85756e-08
1.78564e-09
5.83465e-08
1.74222e-09
5.81119e-08
1.74326e-09
5.78727e-08
1.70282e-09
5.76289e-08
1.7059e-09
5.73808e-08
1.6651e-09
5.71286e-08
1.67346e-09
5.6872e-08
1.63626e-09
5.66117e-08
1.64918e-09
1.62167e-09
6.4157e-08
2.79331e-09
-6.40904e-08
6.42986e-08
3.25268e-09
6.45252e-08
3.70418e-09
6.48026e-08
4.10352e-09
6.50686e-08
4.36715e-09
6.52996e-08
4.46397e-09
6.54987e-08
4.43887e-09
6.56696e-08
4.3297e-09
6.58024e-08
4.17126e-09
6.58917e-08
3.97114e-09
6.59376e-08
3.75969e-09
6.59535e-08
3.5491e-09
6.59527e-08
3.37364e-09
6.59454e-08
3.22831e-09
6.59333e-08
3.12095e-09
6.59191e-08
3.02755e-09
6.59019e-08
2.95482e-09
6.58845e-08
2.88242e-09
6.58653e-08
2.82489e-09
6.58468e-08
2.76248e-09
6.58266e-08
2.71449e-09
6.58066e-08
2.659e-09
6.57843e-08
2.61811e-09
6.57616e-08
2.56741e-09
6.57361e-08
2.53207e-09
6.57101e-08
2.48521e-09
6.56809e-08
2.45453e-09
6.56509e-08
2.4113e-09
6.56176e-08
2.38487e-09
6.55832e-08
2.34453e-09
6.55449e-08
2.32298e-09
6.55052e-08
2.28427e-09
6.54613e-08
2.26712e-09
6.54153e-08
2.22957e-09
6.53652e-08
2.21548e-09
6.53123e-08
2.17988e-09
6.52547e-08
2.16826e-09
6.51943e-08
2.13323e-09
6.51287e-08
2.12486e-09
6.50597e-08
2.08982e-09
6.49858e-08
2.08392e-09
6.49073e-08
2.04977e-09
6.48243e-08
2.0448e-09
6.47364e-08
2.01121e-09
6.46434e-08
2.00869e-09
6.45454e-08
1.9739e-09
6.44426e-08
1.97392e-09
6.43337e-08
1.93872e-09
6.42209e-08
1.9405e-09
6.41016e-08
1.9041e-09
6.39779e-08
1.90933e-09
6.38471e-08
1.87305e-09
6.37138e-08
1.8765e-09
6.35719e-08
1.84474e-09
6.34274e-08
1.85035e-09
6.32742e-08
1.81837e-09
6.3119e-08
1.82864e-09
6.29547e-08
1.80055e-09
6.27885e-08
1.81538e-09
1.79725e-09
6.75544e-08
2.7263e-09
-6.74873e-08
6.76822e-08
3.12481e-09
6.78738e-08
3.51258e-09
6.81174e-08
3.85994e-09
6.83661e-08
4.1185e-09
6.85903e-08
4.23975e-09
6.8781e-08
4.24818e-09
6.89417e-08
4.16897e-09
6.90697e-08
4.04328e-09
6.91619e-08
3.87893e-09
6.92169e-08
3.70471e-09
6.92423e-08
3.52361e-09
6.92489e-08
3.36705e-09
6.92471e-08
3.23012e-09
6.92403e-08
3.12779e-09
6.92311e-08
3.03673e-09
6.92189e-08
2.96704e-09
6.9206e-08
2.89534e-09
6.91914e-08
2.8395e-09
6.91772e-08
2.77664e-09
6.91624e-08
2.72925e-09
6.9148e-08
2.6734e-09
6.91331e-08
2.63307e-09
6.91181e-08
2.58235e-09
6.91025e-08
2.54772e-09
6.9087e-08
2.50072e-09
6.90706e-08
2.47095e-09
6.90543e-08
2.42759e-09
6.90371e-08
2.40204e-09
6.902e-08
2.36164e-09
6.9002e-08
2.34096e-09
6.89836e-08
2.30267e-09
6.89646e-08
2.2862e-09
6.89443e-08
2.24982e-09
6.89237e-08
2.23615e-09
6.89014e-08
2.2021e-09
6.88781e-08
2.19161e-09
6.88534e-08
2.15793e-09
6.88273e-08
2.15094e-09
6.87988e-08
2.11836e-09
6.87699e-08
2.11284e-09
6.87368e-08
2.08277e-09
6.87036e-08
2.07807e-09
6.86666e-08
2.04822e-09
6.86281e-08
2.04715e-09
6.85854e-08
2.0166e-09
6.85423e-08
2.01699e-09
6.84929e-08
1.98811e-09
6.84436e-08
1.98983e-09
6.83885e-08
1.95923e-09
6.83322e-08
1.9656e-09
6.82685e-08
1.93678e-09
6.82058e-08
1.93917e-09
6.81348e-08
1.91577e-09
6.80634e-08
1.9217e-09
6.79833e-08
1.89849e-09
6.79034e-08
1.90858e-09
6.78145e-08
1.88947e-09
6.77252e-08
1.90465e-09
1.89565e-09
7.11133e-08
2.66053e-09
-7.10476e-08
7.12296e-08
3.00855e-09
7.13965e-08
3.34573e-09
7.16083e-08
3.64807e-09
7.18353e-08
3.89155e-09
7.20486e-08
4.02638e-09
7.22327e-08
4.06417e-09
7.23859e-08
4.01571e-09
7.25089e-08
3.92033e-09
7.26012e-08
3.78656e-09
7.26622e-08
3.6437e-09
7.26958e-08
3.49001e-09
7.27096e-08
3.35329e-09
7.27127e-08
3.22704e-09
7.271e-08
3.13048e-09
7.27042e-08
3.04249e-09
7.26954e-08
2.97585e-09
7.26851e-08
2.90571e-09
7.26729e-08
2.85166e-09
7.26601e-08
2.78943e-09
7.26473e-08
2.74209e-09
7.26341e-08
2.68662e-09
7.26212e-08
2.64597e-09
7.26078e-08
2.59569e-09
7.25947e-08
2.56083e-09
7.25816e-08
2.51387e-09
7.25685e-08
2.48399e-09
7.25554e-08
2.44068e-09
7.25427e-08
2.41478e-09
7.25299e-08
2.37446e-09
7.25177e-08
2.35307e-09
7.2505e-08
2.31537e-09
7.24936e-08
2.29765e-09
7.24808e-08
2.26258e-09
7.24696e-08
2.24738e-09
7.24572e-08
2.21449e-09
7.24454e-08
2.20339e-09
7.24329e-08
2.17046e-09
7.24212e-08
2.16265e-09
7.24072e-08
2.13233e-09
7.23956e-08
2.12446e-09
7.23804e-08
2.09793e-09
7.2367e-08
2.0915e-09
7.23513e-08
2.06391e-09
7.23361e-08
2.06232e-09
7.23176e-08
2.03509e-09
7.23016e-08
2.03304e-09
7.22802e-08
2.00947e-09
7.22607e-08
2.00939e-09
7.22375e-08
1.98242e-09
7.22151e-08
1.98798e-09
7.21865e-08
1.96537e-09
7.21607e-08
1.96502e-09
7.2129e-08
1.94739e-09
7.2098e-08
1.95275e-09
7.20607e-08
1.9358e-09
7.20244e-08
1.94485e-09
7.19817e-08
1.93215e-09
7.19394e-08
1.94701e-09
1.94425e-09
7.48437e-08
2.59648e-09
-7.47797e-08
7.49498e-08
2.90243e-09
7.50975e-08
3.19802e-09
7.52822e-08
3.46338e-09
7.54862e-08
3.68759e-09
7.56849e-08
3.82768e-09
7.58613e-08
3.88779e-09
7.60088e-08
3.86818e-09
7.61276e-08
3.80157e-09
7.62187e-08
3.69541e-09
7.62832e-08
3.57922e-09
7.63231e-08
3.45013e-09
7.63436e-08
3.33272e-09
7.63516e-08
3.21904e-09
7.63529e-08
3.12922e-09
7.63502e-08
3.04521e-09
7.63444e-08
2.98165e-09
7.63363e-08
2.91379e-09
7.63263e-08
2.86161e-09
7.63147e-08
2.80108e-09
7.63032e-08
2.75363e-09
7.62906e-08
2.6992e-09
7.62786e-08
2.65792e-09
7.62658e-08
2.6085e-09
7.62536e-08
2.57308e-09
7.6241e-08
2.52641e-09
7.6229e-08
2.49603e-09
7.62166e-08
2.45306e-09
7.6205e-08
2.42633e-09
7.61931e-08
2.3864e-09
7.61825e-08
2.36368e-09
7.6171e-08
2.32685e-09
7.61615e-08
2.30714e-09
7.61506e-08
2.27351e-09
7.61417e-08
2.25625e-09
7.6132e-08
2.22426e-09
7.61233e-08
2.21206e-09
7.61141e-08
2.17966e-09
7.61065e-08
2.17023e-09
7.60968e-08
2.14202e-09
7.60902e-08
2.13106e-09
7.6081e-08
2.10718e-09
7.60736e-08
2.09891e-09
7.60651e-08
2.07237e-09
7.60578e-08
2.06964e-09
7.60478e-08
2.04503e-09
7.60411e-08
2.0398e-09
7.60307e-08
2.01986e-09
7.60218e-08
2.01826e-09
7.60112e-08
1.99303e-09
7.60022e-08
1.99697e-09
7.59886e-08
1.97903e-09
7.59774e-08
1.97615e-09
7.59633e-08
1.96149e-09
7.59495e-08
1.96654e-09
7.59321e-08
1.95321e-09
7.59157e-08
1.96124e-09
7.58955e-08
1.95241e-09
7.58755e-08
1.96698e-09
1.96761e-09
7.87551e-08
2.53445e-09
-7.86931e-08
7.88522e-08
2.80538e-09
7.89838e-08
3.06636e-09
7.91458e-08
3.30139e-09
7.93275e-08
3.50589e-09
7.95093e-08
3.64585e-09
7.9676e-08
3.72115e-09
7.98179e-08
3.72623e-09
7.99333e-08
3.6862e-09
8.00228e-08
3.60589e-09
8.00889e-08
3.51314e-09
8.01331e-08
3.40589e-09
8.01594e-08
3.30642e-09
8.01723e-08
3.20615e-09
8.01774e-08
3.12412e-09
8.01776e-08
3.04501e-09
8.01746e-08
2.98469e-09
8.01687e-08
2.91963e-09
8.0161e-08
2.86937e-09
8.01507e-08
2.8113e-09
8.01404e-08
2.76397e-09
8.01287e-08
2.71094e-09
8.01174e-08
2.66916e-09
8.01052e-08
2.62072e-09
8.00935e-08
2.58476e-09
8.00814e-08
2.53849e-09
8.007e-08
2.50751e-09
8.0058e-08
2.46504e-09
8.00469e-08
2.43744e-09
8.00353e-08
2.39796e-09
8.00251e-08
2.37387e-09
8.00141e-08
2.33788e-09
8.0005e-08
2.31623e-09
7.99947e-08
2.28381e-09
7.99863e-08
2.26471e-09
7.99773e-08
2.23326e-09
7.99693e-08
2.22001e-09
7.9961e-08
2.188e-09
7.99543e-08
2.17692e-09
7.9946e-08
2.15035e-09
7.99402e-08
2.13681e-09
7.99329e-08
2.11448e-09
7.99269e-08
2.10493e-09
7.99204e-08
2.07885e-09
7.99152e-08
2.07485e-09
7.9908e-08
2.05219e-09
7.99033e-08
2.04447e-09
7.98969e-08
2.02634e-09
7.9891e-08
2.02408e-09
7.98843e-08
1.99974e-09
7.98795e-08
2.00185e-09
7.98714e-08
1.98708e-09
7.98647e-08
1.98287e-09
7.98569e-08
1.96924e-09
7.9849e-08
1.97448e-09
7.98392e-08
1.96299e-09
7.98301e-08
1.97036e-09
7.98188e-08
1.96375e-09
7.98074e-08
1.97835e-09
1.98058e-09
8.28574e-08
2.47488e-09
-8.27979e-08
8.29461e-08
2.71668e-09
8.30638e-08
2.94874e-09
8.32065e-08
3.15863e-09
8.33676e-08
3.34479e-09
8.3532e-08
3.48147e-09
8.3687e-08
3.56617e-09
8.38223e-08
3.59088e-09
8.39342e-08
3.57429e-09
8.40221e-08
3.51803e-09
8.40886e-08
3.44663e-09
8.41356e-08
3.35894e-09
8.41662e-08
3.2758e-09
8.41835e-08
3.18877e-09
8.41923e-08
3.11536e-09
8.41953e-08
3.04199e-09
8.41948e-08
2.9852e-09
8.41911e-08
2.92334e-09
8.41854e-08
2.87507e-09
8.41769e-08
2.81981e-09
8.41678e-08
2.77308e-09
8.41572e-08
2.72157e-09
8.41467e-08
2.67966e-09
8.41352e-08
2.63217e-09
8.41241e-08
2.59585e-09
8.41126e-08
2.55003e-09
8.41016e-08
2.51849e-09
8.40901e-08
2.4765e-09
8.40794e-08
2.44819e-09
8.40683e-08
2.40905e-09
8.40583e-08
2.38384e-09
8.40478e-08
2.34843e-09
8.40388e-08
2.32523e-09
8.4029e-08
2.29357e-09
8.40206e-08
2.27307e-09
8.4012e-08
2.24192e-09
8.40043e-08
2.22767e-09
8.39963e-08
2.19598e-09
8.39897e-08
2.18356e-09
8.39822e-08
2.15786e-09
8.39762e-08
2.14279e-09
8.39697e-08
2.12098e-09
8.39641e-08
2.11059e-09
8.3958e-08
2.08492e-09
8.39532e-08
2.07961e-09
8.39473e-08
2.05816e-09
8.39425e-08
2.04922e-09
8.39374e-08
2.03144e-09
8.39325e-08
2.029e-09
8.39267e-08
2.00558e-09
8.39227e-08
2.00586e-09
8.39168e-08
1.99297e-09
8.3911e-08
1.98864e-09
8.39052e-08
1.97507e-09
8.38989e-08
1.98077e-09
8.38916e-08
1.97022e-09
8.38847e-08
1.97725e-09
8.38764e-08
1.97206e-09
8.38679e-08
1.98693e-09
1.98991e-09
8.71609e-08
2.41825e-09
-8.71042e-08
8.72417e-08
2.63586e-09
8.73467e-08
2.84373e-09
8.74728e-08
3.03254e-09
8.76152e-08
3.20241e-09
8.77626e-08
3.33407e-09
8.79047e-08
3.42407e-09
8.80319e-08
3.46359e-09
8.81396e-08
3.46665e-09
8.82255e-08
3.43208e-09
8.82918e-08
3.38042e-09
8.83402e-08
3.31053e-09
8.83737e-08
3.24231e-09
8.83947e-08
3.16775e-09
8.84068e-08
3.10328e-09
8.84125e-08
3.03629e-09
8.84143e-08
2.98339e-09
8.84126e-08
2.92505e-09
8.84088e-08
2.87888e-09
8.84021e-08
2.82644e-09
8.83943e-08
2.78092e-09
8.8385e-08
2.73091e-09
8.83753e-08
2.68934e-09
8.83647e-08
2.64271e-09
8.83544e-08
2.60622e-09
8.83435e-08
2.5609e-09
8.83331e-08
2.52894e-09
8.83223e-08
2.48729e-09
8.83119e-08
2.45853e-09
8.83014e-08
2.41954e-09
8.82917e-08
2.39356e-09
8.82817e-08
2.3584e-09
8.82729e-08
2.33411e-09
8.82637e-08
2.30278e-09
8.82555e-08
2.28125e-09
8.82471e-08
2.25027e-09
8.82398e-08
2.23504e-09
8.82321e-08
2.20361e-09
8.82254e-08
2.19027e-09
8.82186e-08
2.16465e-09
8.82124e-08
2.14899e-09
8.82064e-08
2.12705e-09
8.8201e-08
2.11594e-09
8.81951e-08
2.09087e-09
8.81903e-08
2.08433e-09
8.81852e-08
2.06334e-09
8.81801e-08
2.05431e-09
8.81755e-08
2.03603e-09
8.81711e-08
2.0334e-09
8.81654e-08
2.01124e-09
8.81614e-08
2.00989e-09
8.81565e-08
1.99785e-09
8.81509e-08
1.99422e-09
8.81456e-08
1.98041e-09
8.81398e-08
1.98657e-09
8.81334e-08
1.97658e-09
8.81272e-08
1.98346e-09
8.81199e-08
1.97935e-09
8.81123e-08
1.99458e-09
1.99796e-09
9.1676e-08
2.36532e-09
-9.16231e-08
9.17491e-08
2.56283e-09
9.18425e-08
2.75028e-09
9.19539e-08
2.92117e-09
9.20794e-08
3.07688e-09
9.22108e-08
3.20273e-09
9.23394e-08
3.29539e-09
9.24573e-08
3.34569e-09
9.25594e-08
3.36457e-09
9.26427e-08
3.34875e-09
9.2708e-08
3.31512e-09
9.2757e-08
3.2616e-09
9.27921e-08
3.20715e-09
9.28158e-08
3.1441e-09
9.28306e-08
3.08847e-09
9.28387e-08
3.02818e-09
9.28426e-08
2.9795e-09
9.28427e-08
2.9249e-09
9.28406e-08
2.881e-09
9.28358e-08
2.83121e-09
9.28294e-08
2.78737e-09
9.28214e-08
2.7389e-09
9.28127e-08
2.69805e-09
9.28032e-08
2.65224e-09
9.27936e-08
2.61574e-09
9.27835e-08
2.57099e-09
9.27737e-08
2.53875e-09
9.27637e-08
2.4973e-09
9.27539e-08
2.46833e-09
9.27441e-08
2.42933e-09
9.27348e-08
2.40287e-09
9.27255e-08
2.36772e-09
9.27169e-08
2.34271e-09
9.27083e-08
2.31142e-09
9.27004e-08
2.2891e-09
9.26924e-08
2.25827e-09
9.26854e-08
2.24205e-09
9.26782e-08
2.21081e-09
9.26715e-08
2.19692e-09
9.26654e-08
2.1708e-09
9.26592e-08
2.15519e-09
9.26534e-08
2.1328e-09
9.26484e-08
2.12095e-09
9.26427e-08
2.09663e-09
9.2638e-08
2.089e-09
9.26334e-08
2.06793e-09
9.26282e-08
2.05948e-09
9.26239e-08
2.0404e-09
9.26199e-08
2.03739e-09
9.26144e-08
2.01671e-09
9.26103e-08
2.014e-09
9.2606e-08
2.00217e-09
9.26006e-08
1.99961e-09
9.25955e-08
1.98554e-09
9.259e-08
1.99207e-09
9.2584e-08
1.98252e-09
9.25781e-08
1.98933e-09
9.25714e-08
1.98614e-09
9.25642e-08
2.00175e-09
2.00537e-09
9.79408e-08
2.31609e-09
-9.78915e-08
9.80073e-08
2.49628e-09
9.80916e-08
2.66604e-09
9.81912e-08
2.82151e-09
9.83031e-08
2.96495e-09
9.84212e-08
3.08471e-09
9.8538e-08
3.17854e-09
9.8647e-08
3.23669e-09
9.87435e-08
3.26812e-09
9.88241e-08
3.26813e-09
9.88885e-08
3.25069e-09
9.89378e-08
3.21232e-09
9.89741e-08
3.1708e-09
9.89998e-08
3.11849e-09
9.90168e-08
3.07143e-09
9.90271e-08
3.01785e-09
9.90329e-08
2.97369e-09
9.90348e-08
2.92301e-09
9.90343e-08
2.88158e-09
9.90312e-08
2.83428e-09
9.90261e-08
2.79245e-09
9.90194e-08
2.7456e-09
9.90117e-08
2.70575e-09
9.90032e-08
2.66076e-09
9.89945e-08
2.62444e-09
9.89852e-08
2.58031e-09
9.8976e-08
2.54795e-09
9.89667e-08
2.5066e-09
9.89574e-08
2.47755e-09
9.89483e-08
2.43847e-09
9.89394e-08
2.41173e-09
9.89307e-08
2.37647e-09
9.89225e-08
2.35095e-09
9.89143e-08
2.31957e-09
9.89068e-08
2.29659e-09
9.88992e-08
2.26589e-09
9.88925e-08
2.24875e-09
9.88857e-08
2.21762e-09
9.88792e-08
2.2034e-09
9.88735e-08
2.17651e-09
9.88675e-08
2.16121e-09
9.8862e-08
2.13829e-09
9.88573e-08
2.12568e-09
9.88518e-08
2.10212e-09
9.88472e-08
2.0936e-09
9.8843e-08
2.07214e-09
9.8838e-08
2.06448e-09
9.88337e-08
2.04468e-09
9.883e-08
2.04108e-09
9.88248e-08
2.0219e-09
9.88206e-08
2.01815e-09
9.88166e-08
2.00618e-09
9.88115e-08
2.00478e-09
9.88065e-08
1.99052e-09
9.88013e-08
1.99728e-09
9.87956e-08
1.98821e-09
9.879e-08
1.99495e-09
9.87836e-08
1.99256e-09
9.87768e-08
2.00856e-09
2.01236e-09
1.1002e-07
2.26619e-09
-1.0997e-07
1.10085e-07
2.43172e-09
1.10165e-07
2.58639e-09
1.10258e-07
2.72853e-09
1.10361e-07
2.86128e-09
1.10471e-07
2.97487e-09
1.1058e-07
3.06921e-09
1.10684e-07
3.13331e-09
1.10777e-07
3.17496e-09
1.10857e-07
3.18848e-09
1.10922e-07
3.1857e-09
1.10972e-07
3.16159e-09
1.11011e-07
3.13257e-09
1.11038e-07
3.09061e-09
1.11058e-07
3.05201e-09
1.11071e-07
3.00511e-09
1.11079e-07
2.96576e-09
1.11082e-07
2.91921e-09
1.11083e-07
2.88053e-09
1.11082e-07
2.83574e-09
1.11078e-07
2.79617e-09
1.11073e-07
2.75115e-09
1.11066e-07
2.71255e-09
1.11058e-07
2.6685e-09
1.1105e-07
2.63253e-09
1.11041e-07
2.58906e-09
1.11032e-07
2.55673e-09
1.11024e-07
2.51542e-09
1.11015e-07
2.4864e-09
1.11006e-07
2.44722e-09
1.10997e-07
2.4203e-09
1.10989e-07
2.38489e-09
1.10981e-07
2.35897e-09
1.10973e-07
2.32745e-09
1.10966e-07
2.3039e-09
1.10958e-07
2.27329e-09
1.10952e-07
2.25533e-09
1.10945e-07
2.2242e-09
1.10939e-07
2.20977e-09
1.10933e-07
2.18206e-09
1.10928e-07
2.16706e-09
1.10922e-07
2.14367e-09
1.10917e-07
2.13032e-09
1.10912e-07
2.10738e-09
1.10908e-07
2.09818e-09
1.10904e-07
2.07624e-09
1.10899e-07
2.06928e-09
1.10894e-07
2.04897e-09
1.10891e-07
2.04466e-09
1.10886e-07
2.02686e-09
1.10882e-07
2.02237e-09
1.10878e-07
2.01008e-09
1.10873e-07
2.00982e-09
1.10868e-07
1.99547e-09
1.10863e-07
2.00233e-09
1.10857e-07
1.99382e-09
1.10852e-07
2.0005e-09
1.10845e-07
1.99878e-09
1.10839e-07
2.0152e-09
2.01915e-09
1.23582e-07
2.21766e-09
-1.23533e-07
1.23643e-07
2.37039e-09
1.23717e-07
2.51244e-09
1.23802e-07
2.64356e-09
1.23896e-07
2.76754e-09
1.23995e-07
2.87565e-09
1.24094e-07
2.96991e-09
1.24189e-07
3.03841e-09
1.24276e-07
3.08804e-09
1.24352e-07
3.11261e-09
1.24415e-07
3.1224e-09
1.24466e-07
3.11113e-09
1.24505e-07
3.09378e-09
1.24534e-07
3.06165e-09
1.24554e-07
3.03119e-09
1.24569e-07
2.99067e-09
1.24579e-07
2.95613e-09
1.24584e-07
2.91365e-09
1.24587e-07
2.87783e-09
1.24587e-07
2.83557e-09
1.24585e-07
2.79828e-09
1.24581e-07
2.75527e-09
1.24575e-07
2.71807e-09
1.24569e-07
2.67509e-09
1.24561e-07
2.63971e-09
1.24554e-07
2.59688e-09
1.24546e-07
2.56475e-09
1.24538e-07
2.52343e-09
1.2453e-07
2.49447e-09
1.24522e-07
2.45523e-09
1.24514e-07
2.42816e-09
1.24506e-07
2.39267e-09
1.24498e-07
2.36639e-09
1.24491e-07
2.33476e-09
1.24484e-07
2.31074e-09
1.24478e-07
2.28012e-09
1.24471e-07
2.26153e-09
1.24465e-07
2.2303e-09
1.24459e-07
2.21568e-09
1.24454e-07
2.18729e-09
1.24449e-07
2.17244e-09
1.24444e-07
2.14867e-09
1.24439e-07
2.13475e-09
1.24434e-07
2.11215e-09
1.2443e-07
2.10251e-09
1.24426e-07
2.08011e-09
1.24422e-07
2.0736e-09
1.24418e-07
2.05307e-09
1.24414e-07
2.04805e-09
1.2441e-07
2.03134e-09
1.24406e-07
2.02644e-09
1.24402e-07
2.01374e-09
1.24398e-07
2.01453e-09
1.24393e-07
2.00017e-09
1.24388e-07
2.00699e-09
1.24383e-07
1.99917e-09
1.24378e-07
2.00575e-09
1.24372e-07
2.00453e-09
1.24366e-07
2.02143e-09
2.0255e-09
1.38808e-07
2.17302e-09
-1.38763e-07
1.38863e-07
2.31473e-09
1.3893e-07
2.44631e-09
1.39004e-07
2.56862e-09
1.39086e-07
2.68592e-09
1.39172e-07
2.78995e-09
1.39258e-07
2.88364e-09
1.39341e-07
2.95521e-09
1.39419e-07
3.01073e-09
1.39487e-07
3.04389e-09
1.39546e-07
3.06383e-09
1.39594e-07
3.06337e-09
1.39631e-07
3.05634e-09
1.3966e-07
3.03313e-09
1.3968e-07
3.01025e-09
1.39696e-07
2.97557e-09
1.39706e-07
2.94559e-09
1.39713e-07
2.90682e-09
1.39717e-07
2.8737e-09
1.39719e-07
2.83389e-09
1.39718e-07
2.79868e-09
1.39716e-07
2.75769e-09
1.39712e-07
2.72194e-09
1.39707e-07
2.68013e-09
1.39701e-07
2.64557e-09
1.39695e-07
2.6033e-09
1.39688e-07
2.57152e-09
1.39681e-07
2.53019e-09
1.39674e-07
2.5013e-09
1.39668e-07
2.46207e-09
1.39661e-07
2.43481e-09
1.39654e-07
2.39935e-09
1.39648e-07
2.37276e-09
1.39642e-07
2.34102e-09
1.39636e-07
2.31672e-09
1.3963e-07
2.28595e-09
1.39624e-07
2.26697e-09
1.39619e-07
2.23555e-09
1.39614e-07
2.22074e-09
1.39609e-07
2.1919e-09
1.39605e-07
2.17701e-09
1.39601e-07
2.15297e-09
1.39597e-07
2.13868e-09
1.39593e-07
2.11612e-09
1.39589e-07
2.10628e-09
1.39585e-07
2.08351e-09
1.39582e-07
2.07717e-09
1.39578e-07
2.05671e-09
1.39575e-07
2.05102e-09
1.39572e-07
2.03506e-09
1.39568e-07
2.03013e-09
1.39565e-07
2.01683e-09
1.39561e-07
2.01867e-09
1.39556e-07
2.00433e-09
1.39553e-07
2.01093e-09
1.39548e-07
2.00398e-09
1.39543e-07
2.01044e-09
1.39538e-07
2.00948e-09
1.39533e-07
2.02689e-09
2.03113e-09
1.55902e-07
2.13467e-09
-1.55864e-07
1.55949e-07
2.26735e-09
1.56005e-07
2.39089e-09
1.56066e-07
2.50692e-09
1.56133e-07
2.61976e-09
1.56201e-07
2.7213e-09
1.56271e-07
2.81424e-09
1.56338e-07
2.88768e-09
1.56402e-07
2.9472e-09
1.56459e-07
2.98655e-09
1.56509e-07
3.01399e-09
1.5655e-07
3.02182e-09
1.56584e-07
3.02308e-09
1.5661e-07
3.00726e-09
1.56629e-07
2.99088e-09
1.56643e-07
2.96118e-09
1.56654e-07
2.93516e-09
1.56661e-07
2.89948e-09
1.56666e-07
2.86862e-09
1.56669e-07
2.83095e-09
1.5667e-07
2.79744e-09
1.5667e-07
2.75829e-09
1.56668e-07
2.72386e-09
1.56665e-07
2.6832e-09
1.56661e-07
2.64959e-09
1.56656e-07
2.60777e-09
1.56651e-07
2.57648e-09
1.56646e-07
2.53512e-09
1.56641e-07
2.50627e-09
1.56636e-07
2.46716e-09
1.56632e-07
2.43965e-09
1.56627e-07
2.40435e-09
1.56622e-07
2.3775e-09
1.56617e-07
2.34567e-09
1.56613e-07
2.32129e-09
1.56608e-07
2.29023e-09
1.56604e-07
2.27112e-09
1.566e-07
2.23949e-09
1.56596e-07
2.22444e-09
1.56593e-07
2.19543e-09
1.5659e-07
2.18033e-09
1.56586e-07
2.15615e-09
1.56583e-07
2.14165e-09
1.56581e-07
2.11895e-09
1.56578e-07
2.10909e-09
1.56575e-07
2.08606e-09
1.56573e-07
2.07966e-09
1.5657e-07
2.0595e-09
1.56568e-07
2.05318e-09
1.56565e-07
2.0377e-09
1.56562e-07
2.03307e-09
1.5656e-07
2.01898e-09
1.56557e-07
2.02186e-09
1.56554e-07
2.00765e-09
1.56551e-07
2.01369e-09
1.56547e-07
2.00784e-09
1.56543e-07
2.01414e-09
1.56539e-07
2.0133e-09
1.56535e-07
2.03101e-09
2.03561e-09
1.75096e-07
2.10425e-09
-1.75066e-07
1.75132e-07
2.23135e-09
1.75172e-07
2.3509e-09
1.75215e-07
2.46375e-09
1.75261e-07
2.57423e-09
1.75308e-07
2.67457e-09
1.75355e-07
2.76669e-09
1.75402e-07
2.84105e-09
1.75446e-07
2.9028e-09
1.75487e-07
2.94591e-09
1.75523e-07
2.97799e-09
1.75554e-07
2.9911e-09
1.75579e-07
2.99787e-09
1.75599e-07
2.98713e-09
1.75614e-07
2.97535e-09
1.75626e-07
2.94921e-09
1.75636e-07
2.92608e-09
1.75642e-07
2.89257e-09
1.75648e-07
2.86324e-09
1.75652e-07
2.82714e-09
1.75654e-07
2.79476e-09
1.75656e-07
2.75703e-09
1.75656e-07