/*--------------------------------*- C++ -*----------------------------------*\
| =========                 |                                                 |
| \\      /  F ield         | OpenFOAM: The Open Source CFD Toolbox           |
|  \\    /   O peration     | Version:  2.3.0                                 |
|   \\  /    A nd           | Web:      www.OpenFOAM.org                      |
|    \\/     M anipulation  |                                                 |
\*---------------------------------------------------------------------------*/
FoamFile
{
    version     2.0;
    format      ascii;
    class       volVectorField;
    location    "0.85";
    object      U;
}
// * * * * * * * * * * * * * * * * * * * * * * * * * * * * * * * * * * * * * //

dimensions      [0 1 -1 0 0 0 0];

internalField   nonuniform List<vector> 
1650
(
(0.179796 0.00363168 0)
(0.159937 0.00494802 0)
(0.141187 0.00497917 0)
(0.122585 0.00448509 0)
(0.104425 0.0039042 0)
(0.0874752 0.0032398 0)
(0.0728716 0.00245938 0)
(0.0613134 0.00155603 0)
(0.0528693 0.000737356 0)
(0.0469791 0.000200695 0)
(0.0429034 -5.56532e-05 0)
(0.040061 -0.00014013 0)
(0.0380236 -0.000139764 0)
(0.0364783 -0.000103386 0)
(0.035202 -5.56112e-05 0)
(0.0340619 -1.21724e-05 0)
(0.0329919 1.97025e-05 0)
(0.0319671 3.95149e-05 0)
(0.0309852 4.95825e-05 0)
(0.0300501 5.29638e-05 0)
(0.0291686 5.24246e-05 0)
(0.0283417 4.98301e-05 0)
(0.0275717 4.64951e-05 0)
(0.0268531 4.29941e-05 0)
(0.026186 3.96975e-05 0)
(0.0255612 3.6737e-05 0)
(0.0249798 3.40126e-05 0)
(0.0244307 3.17039e-05 0)
(0.0239182 2.95393e-05 0)
(0.0234294 2.76804e-05 0)
(0.0229727 2.59803e-05 0)
(0.0225323 2.44263e-05 0)
(0.0221219 2.3041e-05 0)
(0.0217213 2.17664e-05 0)
(0.0213502 2.0537e-05 0)
(0.0209827 1.95527e-05 0)
(0.0206459 1.84199e-05 0)
(0.0203062 1.7618e-05 0)
(0.0199998 1.66479e-05 0)
(0.0196831 1.59473e-05 0)
(0.0194043 1.5092e-05 0)
(0.0191065 1.45563e-05 0)
(0.0188532 1.37052e-05 0)
(0.0185705 1.33651e-05 0)
(0.0183411 1.25436e-05 0)
(0.0180699 1.22885e-05 0)
(0.0178635 1.15645e-05 0)
(0.0176 1.1384e-05 0)
(0.0174165 1.06848e-05 0)
(0.0171568 1.06742e-05 0)
(0.0169966 9.86894e-06 0)
(0.0167362 1.01604e-05 0)
(0.0166003 9.17982e-06 0)
(0.0163342 9.70221e-06 0)
(0.0162243 8.73685e-06 0)
(0.0159457 9.40565e-06 0)
(0.0158653 8.28596e-06 0)
(0.0155647 9.44156e-06 0)
(0.0155203 8.04436e-06 0)
(0.0151756 1.15449e-05 0)
(0.193391 0.00633534 0)
(0.19169 0.00892499 0)
(0.189143 0.00966136 0)
(0.185162 0.00947987 0)
(0.179562 0.00904282 0)
(0.172515 0.00842096 0)
(0.164627 0.00754059 0)
(0.156418 0.0063484 0)
(0.148349 0.00499947 0)
(0.140679 0.00374492 0)
(0.133508 0.00274828 0)
(0.126906 0.0020227 0)
(0.120914 0.00151845 0)
(0.115541 0.00118692 0)
(0.110732 0.000978205 0)
(0.106412 0.000846535 0)
(0.102508 0.00075777 0)
(0.0989527 0.000691109 0)
(0.0957005 0.000635286 0)
(0.0927046 0.000584809 0)
(0.0899418 0.000538067 0)
(0.087377 0.000494252 0)
(0.0850004 0.000454069 0)
(0.0827801 0.000417298 0)
(0.0807155 0.00038443 0)
(0.078773 0.000355101 0)
(0.0769621 0.000328947 0)
(0.0752439 0.000305853 0)
(0.0736407 0.000285121 0)
(0.0721049 0.000266536 0)
(0.0706735 0.000249934 0)
(0.069288 0.000234572 0)
(0.0680012 0.000220934 0)
(0.0667406 0.000208118 0)
(0.0655783 0.000196495 0)
(0.0644222 0.000185848 0)
(0.0633692 0.00017576 0)
(0.0623005 0.000166679 0)
(0.0613449 0.000158092 0)
(0.0603493 0.00015015 0)
(0.0594819 0.000142751 0)
(0.0585466 0.000135974 0)
(0.057761 0.000129321 0)
(0.0568738 0.000123661 0)
(0.0561656 0.000117735 0)
(0.0553154 0.000112762 0)
(0.0546819 0.000107698 0)
(0.0538577 0.000103284 0)
(0.0532982 9.88133e-05 0)
(0.0524884 9.51737e-05 0)
(0.0520045 9.0901e-05 0)
(0.0511958 8.83437e-05 0)
(0.0507918 8.40625e-05 0)
(0.0499689 8.23487e-05 0)
(0.049651 7.86681e-05 0)
(0.0487957 7.74445e-05 0)
(0.0485733 7.40864e-05 0)
(0.0476608 7.43225e-05 0)
(0.0475505 7.0754e-05 0)
(0.0465432 7.78638e-05 0)
(0.194119 0.00582265 0)
(0.194354 0.00811109 0)
(0.195172 0.00937185 0)
(0.195957 0.00975158 0)
(0.196158 0.00972658 0)
(0.195505 0.0094717 0)
(0.194001 0.00893611 0)
(0.19173 0.00808505 0)
(0.188831 0.00702336 0)
(0.185456 0.00594572 0)
(0.181745 0.00501845 0)
(0.177836 0.00429181 0)
(0.173859 0.0037374 0)
(0.169908 0.003314 0)
(0.166035 0.00298257 0)
(0.162245 0.0027116 0)
(0.158557 0.00248023 0)
(0.154956 0.00227561 0)
(0.151464 0.00209115 0)
(0.14806 0.00192235 0)
(0.144775 0.00176831 0)
(0.141584 0.00162664 0)
(0.138524 0.00149812 0)
(0.135557 0.00138078 0)
(0.132729 0.00127546 0)
(0.129988 0.00118018 0)
(0.127391 0.0010949 0)
(0.124865 0.00101793 0)
(0.122487 0.000949057 0)
(0.120161 0.000886216 0)
(0.117986 0.000830302 0)
(0.115839 0.000778212 0)
(0.113849 0.000732172 0)
(0.111863 0.000688578 0)
(0.110042 0.000649895 0)
(0.108194 0.000613219 0)
(0.106529 0.000580316 0)
(0.1048 0.000548869 0)
(0.103278 0.000521059 0)
(0.101651 0.000493576 0)
(0.100262 0.000469893 0)
(0.0987198 0.000445967 0)
(0.0974576 0.000425355 0)
(0.095983 0.000404539 0)
(0.0948434 0.000386723 0)
(0.0934205 0.000368022 0)
(0.0924016 0.000353042 0)
(0.0910145 0.000336016 0)
(0.0901165 0.000323312 0)
(0.0887486 0.000308088 0)
(0.0879752 0.000296969 0)
(0.0866064 0.000283866 0)
(0.0859663 0.000274016 0)
(0.0845731 0.000262481 0)
(0.0840767 0.000254897 0)
(0.0826346 0.000244366 0)
(0.0822939 0.000238594 0)
(0.0807719 0.000230988 0)
(0.0806044 0.000225842 0)
(0.0789654 0.000228871 0)
(0.194904 0.00548125 0)
(0.195101 0.00720613 0)
(0.195946 0.00850825 0)
(0.197247 0.00911665 0)
(0.198571 0.00925637 0)
(0.19961 0.00912608 0)
(0.200253 0.00876222 0)
(0.200441 0.00815849 0)
(0.20017 0.00737341 0)
(0.19944 0.00653355 0)
(0.198319 0.00577217 0)
(0.19688 0.0051571 0)
(0.195243 0.00468687 0)
(0.193465 0.00432208 0)
(0.191622 0.00402863 0)
(0.189696 0.00378004 0)
(0.187737 0.00356168 0)
(0.185696 0.00336233 0)
(0.183633 0.00317771 0)
(0.181488 0.00300227 0)
(0.179339 0.00283694 0)
(0.177116 0.00267784 0)
(0.174913 0.0025281 0)
(0.172646 0.00238436 0)
(0.170428 0.00225049 0)
(0.168151 0.00212284 0)
(0.165952 0.00200481 0)
(0.16369 0.00189256 0)
(0.161538 0.00178951 0)
(0.159311 0.00169078 0)
(0.157225 0.00160129 0)
(0.15505 0.00151426 0)
(0.153043 0.00143653 0)
(0.150928 0.0013599 0)
(0.149014 0.00129209 0)
(0.14696 0.00122475 0)
(0.14515 0.00116557 0)
(0.143155 0.00110587 0)
(0.141455 0.00105478 0)
(0.139517 0.00100132 0)
(0.13793 0.000957165 0)
(0.136043 0.000909433 0)
(0.134576 0.000870948 0)
(0.13273 0.000828197 0)
(0.131387 0.000795024 0)
(0.12957 0.000755812 0)
(0.128358 0.000727963 0)
(0.126557 0.000691595 0)
(0.125481 0.000668179 0)
(0.123683 0.000634788 0)
(0.122752 0.000614896 0)
(0.120934 0.000584502 0)
(0.120165 0.000567928 0)
(0.118303 0.000539878 0)
(0.117707 0.000527378 0)
(0.115781 0.000501384 0)
(0.115371 0.000492283 0)
(0.11335 0.000470917 0)
(0.113144 0.000464001 0)
(0.110993 0.00045452 0)
(0.195552 0.00532412 0)
(0.195741 0.00666438 0)
(0.196404 0.00785808 0)
(0.197508 0.00855229 0)
(0.19881 0.00877148 0)
(0.200016 0.00867856 0)
(0.201028 0.00837045 0)
(0.201761 0.00788086 0)
(0.202234 0.00725372 0)
(0.202387 0.0065684 0)
(0.202282 0.00592559 0)
(0.201915 0.00538848 0)
(0.201417 0.0049736 0)
(0.200782 0.00465271 0)
(0.200128 0.00439888 0)
(0.199382 0.0041849 0)
(0.198643 0.00399973 0)
(0.197798 0.0038303 0)
(0.196959 0.0036751 0)
(0.195992 0.00352571 0)
(0.195039 0.00338573 0)
(0.193944 0.00324762 0)
(0.19288 0.0031178 0)
(0.191664 0.00298855 0)
(0.190503 0.00286833 0)
(0.189178 0.00274837 0)
(0.187941 0.00263778 0)
(0.186521 0.00252727 0)
(0.185226 0.00242628 0)
(0.183726 0.00232431 0)
(0.182389 0.00223259 0)
(0.180824 0.00213801 0)
(0.179462 0.0020549 0)
(0.177843 0.00196713 0)
(0.176476 0.00189171 0)
(0.174809 0.00181062 0)
(0.173455 0.00174215 0)
(0.171749 0.00166694 0)
(0.170424 0.00160554 0)
(0.168684 0.00153529 0)
(0.167401 0.00148056 0)
(0.165631 0.00141507 0)
(0.164408 0.00136623 0)
(0.162606 0.00130521 0)
(0.161458 0.00126223 0)
(0.159622 0.00120444 0)
(0.158562 0.00116761 0)
(0.15669 0.00111268 0)
(0.155731 0.00108118 0)
(0.153815 0.0010292 0)
(0.152975 0.00100272 0)
(0.150999 0.000953604 0)
(0.150299 0.000931562 0)
(0.148249 0.000885684 0)
(0.147701 0.00086846 0)
(0.145565 0.000825323 0)
(0.145185 0.000813133 0)
(0.142939 0.0007753 0)
(0.142746 0.000767272 0)
(0.140366 0.000740865 0)
(0.196095 0.00520399 0)
(0.196283 0.00629787 0)
(0.196833 0.00732812 0)
(0.197722 0.0080276 0)
(0.198853 0.00830816 0)
(0.199951 0.00826136 0)
(0.200945 0.00799972 0)
(0.201704 0.00758421 0)
(0.202297 0.00706235 0)
(0.202629 0.00648408 0)
(0.202808 0.00592594 0)
(0.202755 0.00544005 0)
(0.202645 0.00505533 0)
(0.202398 0.00475324 0)
(0.202199 0.00451765 0)
(0.201904 0.00431911 0)
(0.201692 0.00415091 0)
(0.201365 0.00399601 0)
(0.201125 0.00385772 0)
(0.200739 0.00372321 0)
(0.200448 0.00360128 0)
(0.199984 0.00347865 0)
(0.199632 0.00336762 0)
(0.199081 0.00325331 0)
(0.198667 0.00315131 0)
(0.198027 0.00304474 0)
(0.197554 0.00295073 0)
(0.196823 0.0028517 0)
(0.196295 0.0027653 0)
(0.195474 0.0026727 0)
(0.194896 0.0025938 0)
(0.193987 0.00250592 0)
(0.193365 0.00243394 0)
(0.192368 0.00235003 0)
(0.191711 0.00228392 0)
(0.190627 0.00220429 0)
(0.189946 0.00214297 0)
(0.188776 0.00206705 0)
(0.18808 0.00201101 0)
(0.186826 0.0019377 0)
(0.186127 0.00188698 0)
(0.18479 0.0018162 0)
(0.1841 0.00177005 0)
(0.18268 0.0017021 0)
(0.182012 0.0016605 0)
(0.18051 0.00159437 0)
(0.179876 0.001558 0)
(0.178292 0.00149337 0)
(0.177706 0.00146194 0)
(0.176036 0.00139874 0)
(0.175514 0.0013723 0)
(0.173751 0.0013112 0)
(0.173312 0.0012883 0)
(0.171451 0.00123084 0)
(0.171103 0.00121226 0)
(0.169141 0.00115702 0)
(0.168898 0.00114434 0)
(0.166823 0.00109414 0)
(0.1667 0.00108654 0)
(0.164502 0.00104657 0)
(0.196573 0.00508604 0)
(0.196751 0.00600069 0)
(0.197227 0.00687278 0)
(0.197941 0.00752221 0)
(0.198906 0.00784049 0)
(0.19986 0.00784892 0)
(0.200783 0.00764393 0)
(0.201484 0.00729389 0)
(0.202077 0.0068556 0)
(0.202416 0.00636436 0)
(0.20267 0.00588003 0)
(0.202692 0.00543945 0)
(0.202709 0.00508003 0)
(0.202564 0.0047886 0)
(0.202511 0.00456187 0)
(0.202335 0.00436814 0)
(0.202296 0.0042067 0)
(0.202119 0.00405506 0)
(0.202093 0.00392301 0)
(0.201897 0.0037917 0)
(0.201866 0.00367737 0)
(0.201634 0.00355933 0)
(0.201587 0.00345787 0)
(0.201311 0.00334946 0)
(0.201248 0.00325822 0)
(0.200922 0.00315818 0)
(0.200841 0.0030754 0)
(0.200461 0.00298306 0)
(0.20036 0.00290805 0)
(0.199922 0.002822 0)
(0.199802 0.00275486 0)
(0.199302 0.00267303 0)
(0.199162 0.00261295 0)
(0.198595 0.00253438 0)
(0.198436 0.00247979 0)
(0.197798 0.00240506 0)
(0.197622 0.00235457 0)
(0.196909 0.00228274 0)
(0.19672 0.00223702 0)
(0.195928 0.0021667 0)
(0.19573 0.00212566 0)
(0.194856 0.00205696 0)
(0.194651 0.00201926 0)
(0.193696 0.00195272 0)
(0.193489 0.00191846 0)
(0.192449 0.00185274 0)
(0.192247 0.00182283 0)
(0.191121 0.00175748 0)
(0.190929 0.00173172 0)
(0.189715 0.00166678 0)
(0.189542 0.00164505 0)
(0.188235 0.00158175 0)
(0.188091 0.00156178 0)
(0.186693 0.00150251 0)
(0.186577 0.00148579 0)
(0.185089 0.0014279 0)
(0.185009 0.00141685 0)
(0.183428 0.0013637 0)
(0.183389 0.00135748 0)
(0.181714 0.00131351 0)
(0.197 0.00496571 0)
(0.197164 0.00573931 0)
(0.197585 0.00647704 0)
(0.198162 0.00705563 0)
(0.198981 0.0073867 0)
(0.199793 0.00744665 0)
(0.200636 0.00730323 0)
(0.201271 0.00701554 0)
(0.201845 0.00664837 0)
(0.202167 0.0062294 0)
(0.202448 0.00581164 0)
(0.202494 0.00541568 0)
(0.202567 0.00508358 0)
(0.202456 0.00480329 0)
(0.202456 0.00458395 0)
(0.202309 0.00439238 0)
(0.202322 0.00423485 0)
(0.202179 0.004083 0)
(0.202215 0.00395364 0)
(0.202065 0.00382111 0)
(0.202111 0.0037095 0)
(0.201944 0.00359094 0)
(0.201993 0.00349327 0)
(0.201805 0.00338546 0)
(0.201857 0.00329888 0)
(0.201644 0.00320005 0)
(0.201701 0.00312254 0)
(0.20146 0.00303172 0)
(0.201521 0.0029624 0)
(0.201251 0.00287807 0)
(0.201314 0.00281726 0)
(0.201011 0.00273753 0)
(0.201075 0.00268421 0)
(0.200735 0.00260819 0)
(0.2008 0.00256036 0)
(0.20042 0.00248877 0)
(0.200483 0.0024453 0)
(0.200057 0.00237654 0)
(0.200121 0.00233814 0)
(0.199646 0.00227112 0)
(0.199707 0.00223705 0)
(0.199181 0.00217239 0)
(0.199237 0.00214082 0)
(0.198658 0.00207852 0)
(0.198711 0.00205034 0)
(0.198073 0.0019886 0)
(0.198124 0.00196432 0)
(0.197427 0.00190321 0)
(0.19747 0.0018821 0)
(0.196717 0.00182149 0)
(0.196757 0.00180405 0)
(0.195937 0.00174519 0)
(0.195975 0.00172759 0)
(0.195096 0.00167377 0)
(0.195126 0.00165889 0)
(0.194186 0.00160611 0)
(0.194209 0.00159619 0)
(0.193209 0.0015481 0)
(0.193225 0.00154265 0)
(0.192167 0.00150344 0)
(0.197383 0.00484415 0)
(0.197533 0.00550339 0)
(0.197906 0.00613094 0)
(0.198378 0.00663838 0)
(0.199073 0.00696364 0)
(0.199758 0.00706355 0)
(0.200513 0.00697948 0)
(0.201086 0.00675172 0)
(0.201631 0.00644765 0)
(0.201939 0.00608998 0)
(0.202228 0.00573072 0)
(0.202294 0.00537803 0)
(0.202395 0.00507504 0)
(0.202313 0.00480857 0)
(0.202337 0.00459743 0)
(0.202211 0.00440838 0)
(0.202236 0.00425445 0)
(0.20211 0.0041025 0)
(0.202155 0.00397527 0)
(0.202026 0.00384142 0)
(0.202081 0.0037308 0)
(0.201942 0.00361103 0)
(0.202003 0.00351443 0)
(0.201853 0.00340601 0)
(0.201919 0.00332087 0)
(0.201757 0.00322154 0)
(0.201832 0.00314579 0)
(0.201656 0.00305456 0)
(0.201741 0.00298706 0)
(0.201551 0.00290242 0)
(0.201646 0.00284355 0)
(0.201441 0.00276406 0)
(0.201543 0.00271263 0)
(0.201324 0.00263769 0)
(0.201431 0.00259153 0)
(0.201195 0.00252156 0)
(0.201309 0.00248043 0)
(0.201051 0.00241323 0)
(0.201173 0.00237742 0)
(0.200891 0.00231297 0)
(0.201014 0.00228066 0)
(0.200713 0.00222015 0)
(0.200832 0.00218998 0)
(0.200507 0.00213173 0)
(0.200627 0.00210584 0)
(0.20027 0.00204839 0)
(0.200389 0.0020256 0)
(0.200007 0.00197043 0)
(0.200113 0.00195002 0)
(0.199704 0.00189516 0)
(0.199805 0.00187922 0)
(0.19936 0.00182713 0)
(0.199449 0.00180895 0)
(0.198978 0.0017628 0)
(0.199049 0.00174804 0)
(0.198546 0.00170307 0)
(0.198597 0.00169275 0)
(0.198063 0.00165243 0)
(0.198093 0.00164659 0)
(0.197529 0.00161543 0)
(0.197723 0.00472374 0)
(0.197863 0.00528865 0)
(0.19819 0.00582719 0)
(0.198585 0.00627053 0)
(0.199171 0.00657894 0)
(0.199751 0.00670465 0)
(0.200413 0.00667171 0)
(0.20093 0.00650016 0)
(0.201435 0.00625342 0)
(0.201735 0.00594979 0)
(0.202018 0.00564142 0)
(0.202106 0.00532958 0)
(0.202219 0.00505598 0)
(0.202171 0.00480609 0)
(0.202203 0.00460444 0)
(0.202105 0.0044194 0)
(0.202127 0.00426931 0)
(0.202024 0.00411842 0)
(0.202059 0.00399337 0)
(0.201954 0.00385967 0)
(0.201996 0.00374927 0)
(0.201886 0.00362932 0)
(0.201928 0.0035324 0)
(0.201812 0.00342392 0)
(0.201857 0.00333863 0)
(0.201735 0.0032389 0)
(0.201787 0.00316318 0)
(0.201657 0.00307158 0)
(0.201718 0.00300386 0)
(0.201582 0.00291891 0)
(0.201651 0.00285947 0)
(0.201511 0.00278029 0)
(0.201584 0.00272774 0)
(0.201442 0.002654 0)
(0.201519 0.00260643 0)
(0.201373 0.00253763 0)
(0.201457 0.0024961 0)
(0.201301 0.00242975 0)
(0.201393 0.00239336 0)
(0.201229 0.00233134 0)
(0.201322 0.00229696 0)
(0.201157 0.00224032 0)
(0.201247 0.00220856 0)
(0.201073 0.00215305 0)
(0.201169 0.00212684 0)
(0.20098 0.00207304 0)
(0.201074 0.00204816 0)
(0.200882 0.00199868 0)
(0.200964 0.00197651 0)
(0.200763 0.00192584 0)
(0.200846 0.00190921 0)
(0.200628 0.00186353 0)
(0.200697 0.00184264 0)
(0.200474 0.0018027 0)
(0.200531 0.00178706 0)
(0.200293 0.00174864 0)
(0.200333 0.00173706 0)
(0.200082 0.00170325 0)
(0.200105 0.00169649 0)
(0.19984 0.00167211 0)
(0.198026 0.00460597 0)
(0.198158 0.00509297 0)
(0.198443 0.00555891 0)
(0.198779 0.00594672 0)
(0.199271 0.00623304 0)
(0.199764 0.00637237 0)
(0.200333 0.0063794 0)
(0.2008 0.00625829 0)
(0.201257 0.00606376 0)
(0.201551 0.00580939 0)
(0.201819 0.00554587 0)
(0.20193 0.00527195 0)
(0.202044 0.00502683 0)
(0.202031 0.00479553 0)
(0.202063 0.0046047 0)
(0.201997 0.00442545 0)
(0.202011 0.00427961 0)
(0.201934 0.00413111 0)
(0.201954 0.00400829 0)
(0.201876 0.00387642 0)
(0.201897 0.00376588 0)
(0.201818 0.00364696 0)
(0.201836 0.0035491 0)
(0.201753 0.00344129 0)
(0.201772 0.00335517 0)
(0.201684 0.00325544 0)
(0.201708 0.00317896 0)
(0.201616 0.0030875 0)
(0.201645 0.00301866 0)
(0.201552 0.00293393 0)
(0.201585 0.00287275 0)
(0.201492 0.00279442 0)
(0.201528 0.0027394 0)
(0.201437 0.00266722 0)
(0.201475 0.00261716 0)
(0.201385 0.00254928 0)
(0.201429 0.00250647 0)
(0.201334 0.00244069 0)
(0.201384 0.00240235 0)
(0.20129 0.00234283 0)
(0.201338 0.00230485 0)
(0.201249 0.00225134 0)
(0.201295 0.00221746 0)
(0.201203 0.00216327 0)
(0.201257 0.00213576 0)
(0.201159 0.00208501 0)
(0.20121 0.00205656 0)
(0.201117 0.00201133 0)
(0.201161 0.00198735 0)
(0.201063 0.00193878 0)
(0.201111 0.00192043 0)
(0.201009 0.00187987 0)
(0.201046 0.00185611 0)
(0.200944 0.00181966 0)
(0.200975 0.00180333 0)
(0.200867 0.00176903 0)
(0.200889 0.00175617 0)
(0.200775 0.00172648 0)
(0.200787 0.00171905 0)
(0.200666 0.00169872 0)
(0.198296 0.00449203 0)
(0.198422 0.0049147 0)
(0.198666 0.00532046 0)
(0.198956 0.00566096 0)
(0.199367 0.00592362 0)
(0.19979 0.00606803 0)
(0.200273 0.00610403 0)
(0.20069 0.00602598 0)
(0.201097 0.0058782 0)
(0.201383 0.00566931 0)
(0.201633 0.00544617 0)
(0.201761 0.00520727 0)
(0.201874 0.00498909 0)
(0.201889 0.00477731 0)
(0.201922 0.00459842 0)
(0.201883 0.00442658 0)
(0.201891 0.00428552 0)
(0.201838 0.00414056 0)
(0.201845 0.00402003 0)
(0.20179 0.00389126 0)
(0.201795 0.00378066 0)
(0.20174 0.00366353 0)
(0.201742 0.00356473 0)
(0.201683 0.00345798 0)
(0.201683 0.00337094 0)
(0.201621 0.00327143 0)
(0.201624 0.00319393 0)
(0.201559 0.0031029 0)
(0.201565 0.00303272 0)
(0.201501 0.00294847 0)
(0.201509 0.0028853 0)
(0.201447 0.00280799 0)
(0.201456 0.00275029 0)
(0.201398 0.00267957 0)
(0.201408 0.00262712 0)
(0.201351 0.00255978 0)
(0.201367 0.00251565 0)
(0.201308 0.00245031 0)
(0.201327 0.00240975 0)
(0.201271 0.00235241 0)
(0.201289 0.00231108 0)
(0.201238 0.00225952 0)
(0.201257 0.0022241 0)
(0.201203 0.00217037 0)
(0.201228 0.00214132 0)
(0.201174 0.00209302 0)
(0.201195 0.0020614 0)
(0.201146 0.00201849 0)
(0.201166 0.00199362 0)
(0.201113 0.00194603 0)
(0.201137 0.0019256 0)
(0.201083 0.00188868 0)
(0.2011 0.00186316 0)
(0.201047 0.001828 0)
(0.201062 0.00181151 0)
(0.201006 0.00177949 0)
(0.201017 0.00176569 0)
(0.200957 0.00173831 0)
(0.200963 0.00173069 0)
(0.200899 0.00171229 0)
(0.198538 0.00438286 0)
(0.198657 0.00475226 0)
(0.198866 0.00510764 0)
(0.199117 0.00540807 0)
(0.19946 0.00564761 0)
(0.199821 0.00579176 0)
(0.200229 0.00584762 0)
(0.200598 0.00580469 0)
(0.200955 0.00569764 0)
(0.201227 0.00553043 0)
(0.201458 0.00534417 0)
(0.201597 0.00513762 0)
(0.201708 0.00494478 0)
(0.201744 0.00475251 0)
(0.20178 0.00458633 0)
(0.201762 0.00442316 0)
(0.201768 0.00428746 0)
(0.201733 0.00414695 0)
(0.201732 0.00402887 0)
(0.201695 0.00390386 0)
(0.201691 0.00379373 0)
(0.201652 0.00367863 0)
(0.201644 0.00357935 0)
(0.201602 0.00347373 0)
(0.201592 0.00338596 0)
(0.201546 0.00328675 0)
(0.201538 0.00320824 0)
(0.201491 0.00311767 0)
(0.201484 0.0030463 0)
(0.201437 0.00296247 0)
(0.201432 0.00289755 0)
(0.201388 0.00282103 0)
(0.201383 0.00276106 0)
(0.201342 0.00269131 0)
(0.20134 0.00263697 0)
(0.201298 0.00256986 0)
(0.2013 0.00252449 0)
(0.20126 0.00245949 0)
(0.201264 0.00241703 0)
(0.201226 0.00236103 0)
(0.20123 0.00231746 0)
(0.201195 0.00226667 0)
(0.201201 0.00223025 0)
(0.201165 0.00217683 0)
(0.201174 0.00214623 0)
(0.201141 0.00209953 0)
(0.201148 0.00206609 0)
(0.201115 0.00202382 0)
(0.201126 0.00199864 0)
(0.201089 0.00195192 0)
(0.201101 0.00192947 0)
(0.201067 0.00189471 0)
(0.201075 0.00186873 0)
(0.201039 0.00183377 0)
(0.201046 0.00181742 0)
(0.201009 0.00178659 0)
(0.201014 0.00177226 0)
(0.200973 0.00174623 0)
(0.200976 0.00173873 0)
(0.200932 0.00172116 0)
(0.198755 0.00427924 0)
(0.198865 0.00460444 0)
(0.199044 0.00491752 0)
(0.19926 0.00518404 0)
(0.199546 0.00540203 0)
(0.199854 0.00554272 0)
(0.200198 0.0056116 0)
(0.20052 0.00559627 0)
(0.200832 0.00552364 0)
(0.201083 0.00539374 0)
(0.201296 0.00524129 0)
(0.201438 0.00506463 0)
(0.201548 0.00489565 0)
(0.201597 0.00472234 0)
(0.201637 0.00456924 0)
(0.201633 0.00441561 0)
(0.201641 0.00428581 0)
(0.201619 0.00415043 0)
(0.201616 0.00403512 0)
(0.20159 0.00391402 0)
(0.201582 0.00380515 0)
(0.201554 0.00369207 0)
(0.201543 0.00359293 0)
(0.20151 0.0034884 0)
(0.201498 0.00340014 0)
(0.201461 0.00330133 0)
(0.201449 0.00322193 0)
(0.201411 0.00313167 0)
(0.201399 0.00305943 0)
(0.201363 0.00297576 0)
(0.201352 0.00290954 0)
(0.201317 0.0028334 0)
(0.201308 0.00277175 0)
(0.201274 0.00270245 0)
(0.201268 0.00264666 0)
(0.201235 0.00257963 0)
(0.201231 0.00253302 0)
(0.2012 0.00246827 0)
(0.201197 0.00242448 0)
(0.201169 0.00236882 0)
(0.201167 0.00232416 0)
(0.201139 0.00227336 0)
(0.201141 0.00223605 0)
(0.201113 0.00218315 0)
(0.201115 0.00215114 0)
(0.20109 0.00210509 0)
(0.201093 0.00207115 0)
(0.201066 0.00202859 0)
(0.201073 0.00200309 0)
(0.201044 0.00195753 0)
(0.20105 0.00193335 0)
(0.201023 0.00189956 0)
(0.201028 0.00187398 0)
(0.200999 0.00183888 0)
(0.201002 0.00182282 0)
(0.200973 0.00179256 0)
(0.200976 0.00177796 0)
(0.200942 0.00175296 0)
(0.200944 0.00174569 0)
(0.200908 0.00172846 0)
(0.19895 0.00418191 0)
(0.19905 0.00447052 0)
(0.199202 0.00474819 0)
(0.199386 0.00498598 0)
(0.199626 0.00518446 0)
(0.199886 0.00531979 0)
(0.200175 0.00539674 0)
(0.200453 0.00540241 0)
(0.200723 0.00535802 0)
(0.20095 0.00526048 0)
(0.201145 0.00513864 0)
(0.201283 0.00498949 0)
(0.201391 0.00484299 0)
(0.201448 0.00468778 0)
(0.201492 0.00454788 0)
(0.201499 0.00440426 0)
(0.201509 0.00428084 0)
(0.201496 0.00415109 0)
(0.201494 0.00403898 0)
(0.201475 0.00392162 0)
(0.201468 0.00381482 0)
(0.201445 0.00370376 0)
(0.201435 0.00360535 0)
(0.201408 0.00350188 0)
(0.201397 0.00341339 0)
(0.201366 0.00331508 0)
(0.201353 0.00323504 0)
(0.201322 0.00314487 0)
(0.201309 0.00307206 0)
(0.201278 0.00298831 0)
(0.201266 0.00292119 0)
(0.201237 0.00284506 0)
(0.201227 0.00278224 0)
(0.201197 0.00271298 0)
(0.201191 0.00265604 0)
(0.201162 0.00258909 0)
(0.201157 0.00254123 0)
(0.201131 0.00247659 0)
(0.201126 0.00243199 0)
(0.201102 0.00237588 0)
(0.2011 0.00233094 0)
(0.201074 0.00227975 0)
(0.201076 0.00224149 0)
(0.201052 0.0021893 0)
(0.201051 0.0021561 0)
(0.201031 0.00210996 0)
(0.201032 0.00207639 0)
(0.201007 0.00203313 0)
(0.201014 0.0020071 0)
(0.200988 0.00196296 0)
(0.200992 0.00193738 0)
(0.200969 0.00190382 0)
(0.200973 0.00187907 0)
(0.200948 0.00184375 0)
(0.200949 0.00182802 0)
(0.200924 0.0017981 0)
(0.200926 0.00178327 0)
(0.200896 0.00175918 0)
(0.200898 0.00175219 0)
(0.200866 0.00173511 0)
(0.199126 0.00409084 0)
(0.199214 0.00434905 0)
(0.199342 0.00459711 0)
(0.199498 0.00481046 0)
(0.199697 0.00499161 0)
(0.199915 0.00512056 0)
(0.200157 0.00520205 0)
(0.200393 0.0052233 0)
(0.200626 0.00520154 0)
(0.200826 0.00513128 0)
(0.201002 0.00503664 0)
(0.201131 0.00491264 0)
(0.201236 0.0047873 0)
(0.201296 0.00464929 0)
(0.201343 0.00452254 0)
(0.201357 0.00438912 0)
(0.201371 0.0042725 0)
(0.201365 0.00414871 0)
(0.201364 0.00404028 0)
(0.20135 0.00392652 0)
(0.201345 0.00382239 0)
(0.201327 0.00371351 0)
(0.201319 0.00361635 0)
(0.201296 0.00351401 0)
(0.201286 0.00342556 0)
(0.20126 0.00332791 0)
(0.201249 0.00324749 0)
(0.201222 0.00315727 0)
(0.20121 0.0030841 0)
(0.201184 0.00300013 0)
(0.201172 0.00293243 0)
(0.201146 0.00285608 0)
(0.201138 0.00279243 0)
(0.201111 0.00272299 0)
(0.201106 0.00266507 0)
(0.20108 0.0025982 0)
(0.201075 0.00254913 0)
(0.201053 0.00248449 0)
(0.201047 0.00243943 0)
(0.201026 0.0023824 0)
(0.201024 0.00233763 0)
(0.201001 0.0022859 0)
(0.201002 0.00224662 0)
(0.200982 0.00219522 0)
(0.20098 0.00216102 0)
(0.200963 0.00211439 0)
(0.200963 0.00208156 0)
(0.200941 0.00203758 0)
(0.200947 0.00201078 0)
(0.200925 0.00196818 0)
(0.200928 0.00194147 0)
(0.200907 0.0019077 0)
(0.20091 0.001884 0)
(0.200888 0.00184845 0)
(0.200889 0.00183292 0)
(0.200866 0.00180343 0)
(0.200869 0.00178837 0)
(0.200842 0.00176499 0)
(0.200843 0.00175833 0)
(0.200815 0.00174137 0)
(0.19929 0.00400391 0)
(0.199365 0.00423586 0)
(0.199471 0.00445857 0)
(0.199598 0.00465082 0)
(0.199762 0.00481661 0)
(0.19994 0.0049389 0)
(0.200141 0.00502265 0)
(0.200338 0.00505559 0)
(0.200534 0.00505206 0)
(0.200706 0.00500472 0)
(0.200861 0.00493419 0)
(0.200979 0.00483328 0)
(0.201076 0.0047281 0)
(0.201137 0.00460666 0)
(0.201185 0.00449307 0)
(0.201204 0.00436999 0)
(0.201221 0.00426057 0)
(0.201219 0.00414303 0)
(0.201221 0.00403875 0)
(0.201211 0.00392857 0)
(0.201208 0.00382755 0)
(0.201194 0.00372114 0)
(0.201188 0.00362567 0)
(0.201169 0.00352463 0)
(0.201162 0.00343656 0)
(0.20114 0.00333974 0)
(0.20113 0.00325924 0)
(0.201108 0.00316893 0)
(0.201097 0.0030956 0)
(0.201075 0.00301135 0)
(0.201065 0.00294326 0)
(0.201043 0.00286662 0)
(0.201035 0.00280232 0)
(0.201012 0.00273263 0)
(0.201008 0.00267385 0)
(0.200985 0.00260704 0)
(0.20098 0.00255685 0)
(0.200962 0.00249209 0)
(0.200956 0.00244678 0)
(0.200938 0.00238865 0)
(0.200937 0.00234415 0)
(0.200916 0.00229193 0)
(0.200918 0.00225159 0)
(0.2009 0.00220091 0)
(0.200898 0.00216594 0)
(0.200884 0.0021186 0)
(0.200884 0.00208656 0)
(0.200865 0.00204201 0)
(0.20087 0.00201428 0)
(0.20085 0.00197314 0)
(0.200853 0.00194565 0)
(0.200835 0.00191136 0)
(0.200837 0.00188875 0)
(0.200819 0.00185311 0)
(0.200819 0.00183757 0)
(0.200799 0.00180859 0)
(0.200801 0.0017934 0)
(0.200778 0.00177053 0)
(0.200779 0.00176422 0)
(0.200754 0.00174738 0)
(0.199444 0.00391955 0)
(0.199505 0.00412815 0)
(0.199589 0.00432886 0)
(0.19969 0.00450297 0)
(0.199819 0.00465555 0)
(0.199962 0.00477161 0)
(0.200123 0.00485655 0)
(0.200282 0.00489859 0)
(0.200443 0.00490993 0)
(0.200586 0.00488185 0)
(0.200718 0.00483248 0)
(0.200821 0.00475261 0)
(0.200909 0.0046664 0)
(0.200966 0.00456087 0)
(0.201013 0.00446032 0)
(0.201034 0.00434751 0)
(0.201053 0.00424557 0)
(0.201055 0.00413438 0)
(0.201059 0.00403453 0)
(0.201053 0.00392802 0)
(0.201052 0.00383027 0)
(0.201041 0.00372663 0)
(0.201038 0.00363311 0)
(0.201023 0.0035336 0)
(0.201018 0.00344625 0)
(0.201 0.0033504 0)
(0.200993 0.00327013 0)
(0.200975 0.00317976 0)
(0.200966 0.0031064 0)
(0.200948 0.00302193 0)
(0.20094 0.00295352 0)
(0.200921 0.00287664 0)
(0.200915 0.00281178 0)
(0.200895 0.00274185 0)
(0.200892 0.00268231 0)
(0.200873 0.0026155 0)
(0.200869 0.00256438 0)
(0.200854 0.00249937 0)
(0.200849 0.00245386 0)
(0.200834 0.00239473 0)
(0.200833 0.00235035 0)
(0.200816 0.00229773 0)
(0.200817 0.00225648 0)
(0.200802 0.00220623 0)
(0.2008 0.00217073 0)
(0.200789 0.00212269 0)
(0.200789 0.00209116 0)
(0.200773 0.00204637 0)
(0.200778 0.00201768 0)
(0.20076 0.00197767 0)
(0.200764 0.00194975 0)
(0.200748 0.00191492 0)
(0.20075 0.00189319 0)
(0.200735 0.00185762 0)
(0.200735 0.00184199 0)
(0.200718 0.0018135 0)
(0.200721 0.00179826 0)
(0.2007 0.00177583 0)
(0.200701 0.0017698 0)
(0.200681 0.00175311 0)
(0.199586 0.00383952 0)
(0.199632 0.00402775 0)
(0.199696 0.00420988 0)
(0.199771 0.00436893 0)
(0.199869 0.0045109 0)
(0.199978 0.00462187 0)
(0.200102 0.00470761 0)
(0.200225 0.00475685 0)
(0.200352 0.00478006 0)
(0.200465 0.00476772 0)
(0.200572 0.00473606 0)
(0.200657 0.00467443 0)
(0.200732 0.00460521 0)
(0.200782 0.00451428 0)
(0.200825 0.00442608 0)
(0.200847 0.00432298 0)
(0.200866 0.00422844 0)
(0.20087 0.00412336 0)
(0.200876 0.0040279 0)
(0.200873 0.00392512 0)
(0.200874 0.0038305 0)
(0.200866 0.00372976 0)
(0.200865 0.00363828 0)
(0.200853 0.00354043 0)
(0.200851 0.00345416 0)
(0.200838 0.00335926 0)
(0.200832 0.00327953 0)
(0.200819 0.00318922 0)
(0.200812 0.00311592 0)
(0.200798 0.00303139 0)
(0.200793 0.00296268 0)
(0.200777 0.0028857 0)
(0.200774 0.00282035 0)
(0.200758 0.00275023 0)
(0.200756 0.00269012 0)
(0.200741 0.00262317 0)
(0.200738 0.00257138 0)
(0.200726 0.00250608 0)
(0.200723 0.0024603 0)
(0.200711 0.00240045 0)
(0.200711 0.00235598 0)
(0.200697 0.00230301 0)
(0.200698 0.00226113 0)
(0.200687 0.00221095 0)
(0.200685 0.00217512 0)
(0.200677 0.00212655 0)
(0.200676 0.00209517 0)
(0.200664 0.00205038 0)
(0.200668 0.00202086 0)
(0.200654 0.00198162 0)
(0.200658 0.00195353 0)
(0.200645 0.00191815 0)
(0.200646 0.00189721 0)
(0.200635 0.0018617 0)
(0.200635 0.00184592 0)
(0.200621 0.00181801 0)
(0.200624 0.00180266 0)
(0.200608 0.00178061 0)
(0.200609 0.00177492 0)
(0.200593 0.00175832 0)
(0.199715 0.00376765 0)
(0.199747 0.00393879 0)
(0.199791 0.00410591 0)
(0.199842 0.00425311 0)
(0.19991 0.00438717 0)
(0.199987 0.00449458 0)
(0.200076 0.00458108 0)
(0.200165 0.00463594 0)
(0.200257 0.00466819 0)
(0.200341 0.00466809 0)
(0.200421 0.00465036 0)
(0.200485 0.00460338 0)
(0.200543 0.00454837 0)
(0.200584 0.00446986 0)
(0.200619 0.00439257 0)
(0.200638 0.00429805 0)
(0.200656 0.00421034 0)
(0.200662 0.00411078 0)
(0.200668 0.00401935 0)
(0.200667 0.00392012 0)
(0.20067 0.00382829 0)
(0.200665 0.0037303 0)
(0.200666 0.00364082 0)
(0.200658 0.0035446 0)
(0.200658 0.0034597 0)
(0.20065 0.00336564 0)
(0.200647 0.00328671 0)
(0.200638 0.00319655 0)
(0.200633 0.00312341 0)
(0.200624 0.00303902 0)
(0.200621 0.00297004 0)
(0.20061 0.00289312 0)
(0.200608 0.00282742 0)
(0.200597 0.00275712 0)
(0.200596 0.00269677 0)
(0.200586 0.0026295 0)
(0.200584 0.0025774 0)
(0.200576 0.00251177 0)
(0.200574 0.00246573 0)
(0.200566 0.00240545 0)
(0.200566 0.00236076 0)
(0.200556 0.00230748 0)
(0.200558 0.00226526 0)
(0.20055 0.00221489 0)
(0.200549 0.00217894 0)
(0.200543 0.00212993 0)
(0.200543 0.00209851 0)
(0.200535 0.00205386 0)
(0.200538 0.00202362 0)
(0.200528 0.00198483 0)
(0.200531 0.00195694 0)
(0.200523 0.00192071 0)
(0.200522 0.00190077 0)
(0.200516 0.00186522 0)
(0.200516 0.00184905 0)
(0.200506 0.00182198 0)
(0.200509 0.00180648 0)
(0.200497 0.00178446 0)
(0.200497 0.00177944 0)
(0.200487 0.00176274 0)
(0.199831 0.00371033 0)
(0.199849 0.0038681 0)
(0.199874 0.00402399 0)
(0.199903 0.00416275 0)
(0.199944 0.00429143 0)
(0.19999 0.00439672 0)
(0.200044 0.00448389 0)
(0.200099 0.00454274 0)
(0.200156 0.0045812 0)
(0.200208 0.00458967 0)
(0.200259 0.0045817 0)
(0.200301 0.00454513 0)
(0.200339 0.00450056 0)