/*--------------------------------*- C++ -*----------------------------------*\
| =========                 |                                                 |
| \\      /  F ield         | OpenFOAM: The Open Source CFD Toolbox           |
|  \\    /   O peration     | Version:  2.3.0                                 |
|   \\  /    A nd           | Web:      www.OpenFOAM.org                      |
|    \\/     M anipulation  |                                                 |
\*---------------------------------------------------------------------------*/
FoamFile
{
    version     2.0;
    format      ascii;
    class       volVectorField;
    location    "0.85";
    object      U_0;
}
// * * * * * * * * * * * * * * * * * * * * * * * * * * * * * * * * * * * * * //

dimensions      [0 1 -1 0 0 0 0];

internalField   nonuniform List<vector> 
1650
(
(0.179796 0.00363169 0)
(0.159937 0.00494803 0)
(0.141187 0.00497917 0)
(0.122585 0.00448509 0)
(0.104425 0.0039042 0)
(0.0874752 0.0032398 0)
(0.0728716 0.00245938 0)
(0.0613135 0.00155603 0)
(0.0528693 0.000737356 0)
(0.0469792 0.000200694 0)
(0.0429034 -5.56526e-05 0)
(0.040061 -0.000140132 0)
(0.0380237 -0.000139762 0)
(0.0364783 -0.000103387 0)
(0.035202 -5.56109e-05 0)
(0.0340619 -1.21738e-05 0)
(0.0329919 1.97011e-05 0)
(0.0319671 3.95163e-05 0)
(0.0309852 4.95794e-05 0)
(0.0300501 5.29639e-05 0)
(0.0291687 5.24242e-05 0)
(0.0283418 4.98292e-05 0)
(0.0275717 4.64951e-05 0)
(0.0268532 4.29907e-05 0)
(0.0261861 3.96998e-05 0)
(0.0255613 3.67335e-05 0)
(0.0249799 3.40121e-05 0)
(0.0244309 3.17041e-05 0)
(0.0239184 2.95352e-05 0)
(0.0234296 2.76825e-05 0)
(0.0229729 2.59769e-05 0)
(0.0225326 2.44251e-05 0)
(0.0221221 2.30414e-05 0)
(0.0217216 2.17607e-05 0)
(0.0213505 2.05393e-05 0)
(0.0209831 1.95488e-05 0)
(0.0206462 1.84168e-05 0)
(0.0203066 1.76186e-05 0)
(0.0200002 1.66436e-05 0)
(0.0196836 1.59448e-05 0)
(0.0194048 1.5092e-05 0)
(0.0191071 1.45501e-05 0)
(0.0188537 1.37045e-05 0)
(0.0185712 1.33631e-05 0)
(0.0183417 1.25371e-05 0)
(0.0180707 1.22889e-05 0)
(0.0178643 1.15591e-05 0)
(0.017601 1.13802e-05 0)
(0.0174174 1.06838e-05 0)
(0.0171579 1.06659e-05 0)
(0.0169977 9.87005e-06 0)
(0.0167375 1.01537e-05 0)
(0.0166015 9.17352e-06 0)
(0.0163357 9.70392e-06 0)
(0.0162257 8.7292e-06 0)
(0.0159474 9.4e-06 0)
(0.015867 8.28616e-06 0)
(0.0155667 9.43574e-06 0)
(0.0155223 8.04033e-06 0)
(0.0151779 1.15387e-05 0)
(0.193391 0.00633535 0)
(0.19169 0.00892499 0)
(0.189143 0.00966137 0)
(0.185162 0.00947986 0)
(0.179562 0.0090428 0)
(0.172515 0.00842096 0)
(0.164627 0.00754058 0)
(0.156418 0.0063484 0)
(0.148349 0.00499947 0)
(0.140679 0.00374493 0)
(0.133508 0.00274828 0)
(0.126906 0.00202269 0)
(0.120914 0.00151845 0)
(0.115541 0.00118692 0)
(0.110732 0.000978204 0)
(0.106412 0.000846531 0)
(0.102508 0.000757765 0)
(0.0989528 0.000691111 0)
(0.0957006 0.000635275 0)
(0.0927047 0.000584806 0)
(0.0899419 0.000538063 0)
(0.0873772 0.000494247 0)
(0.0850006 0.000454066 0)
(0.0827803 0.000417284 0)
(0.0807157 0.000384432 0)
(0.0787733 0.000355087 0)
(0.0769624 0.00032894 0)
(0.0752443 0.000305849 0)
(0.073641 0.000285103 0)
(0.0721054 0.000266536 0)
(0.0706739 0.000249917 0)
(0.0692885 0.000234561 0)
(0.0680017 0.000220928 0)
(0.0667413 0.000208092 0)
(0.0655789 0.000196492 0)
(0.0644231 0.000185827 0)
(0.0633699 0.000175739 0)
(0.0623015 0.000166669 0)
(0.0613458 0.000158066 0)
(0.0603505 0.000150129 0)
(0.0594831 0.000142736 0)
(0.0585481 0.000135939 0)
(0.0577623 0.000129301 0)
(0.0568756 0.000123637 0)
(0.0561672 0.000117696 0)
(0.0553176 0.000112741 0)
(0.0546839 0.000107659 0)
(0.0538602 0.000103248 0)
(0.0533007 9.87837e-05 0)
(0.0524914 9.5122e-05 0)
(0.0520074 9.08744e-05 0)
(0.0511994 8.82919e-05 0)
(0.0507953 8.40117e-05 0)
(0.0499732 8.23182e-05 0)
(0.0496551 7.86092e-05 0)
(0.0488006 7.73897e-05 0)
(0.0485782 7.40473e-05 0)
(0.0476665 7.42638e-05 0)
(0.0475561 7.07023e-05 0)
(0.0465498 7.78041e-05 0)
(0.194119 0.00582266 0)
(0.194354 0.0081111 0)
(0.195172 0.00937186 0)
(0.195957 0.00975158 0)
(0.196158 0.00972656 0)
(0.195505 0.0094717 0)
(0.194001 0.0089361 0)
(0.19173 0.00808504 0)
(0.188831 0.00702335 0)
(0.185456 0.00594572 0)
(0.181745 0.00501846 0)
(0.177836 0.0042918 0)
(0.173859 0.00373741 0)
(0.169908 0.003314 0)
(0.166035 0.00298256 0)
(0.162245 0.00271159 0)
(0.158557 0.00248022 0)
(0.154956 0.00227561 0)
(0.151464 0.00209113 0)
(0.14806 0.00192235 0)
(0.144776 0.0017683 0)
(0.141584 0.00162663 0)
(0.138524 0.00149811 0)
(0.135557 0.00138075 0)
(0.132729 0.00127546 0)
(0.129989 0.00118015 0)
(0.127391 0.00109488 0)
(0.124866 0.00101792 0)
(0.122488 0.000949019 0)
(0.120161 0.000886205 0)
(0.117986 0.000830264 0)
(0.11584 0.000778181 0)
(0.11385 0.000732146 0)
(0.111864 0.000688524 0)
(0.110043 0.000649872 0)
(0.108195 0.000613167 0)
(0.10653 0.000580263 0)
(0.104802 0.000548831 0)
(0.103279 0.000520994 0)
(0.101653 0.000493515 0)
(0.100264 0.00046984 0)
(0.0987217 0.000445881 0)
(0.0974593 0.000425289 0)
(0.0959854 0.000404463 0)
(0.0948455 0.00038662 0)
(0.0934234 0.000367947 0)
(0.0924043 0.000352933 0)
(0.0910179 0.000335908 0)
(0.0901198 0.00032321 0)
(0.0887528 0.000307947 0)
(0.0879791 0.000296864 0)
(0.0866114 0.000283717 0)
(0.085971 0.000273866 0)
(0.084579 0.000262356 0)
(0.0840825 0.000254725 0)
(0.0826415 0.000244194 0)
(0.0823008 0.000238443 0)
(0.0807801 0.000230802 0)
(0.0806125 0.000225666 0)
(0.078975 0.000228681 0)
(0.194904 0.00548127 0)
(0.195101 0.00720615 0)
(0.195946 0.00850826 0)
(0.197247 0.00911665 0)
(0.198571 0.00925635 0)
(0.19961 0.00912607 0)
(0.200253 0.0087622 0)
(0.200441 0.00815847 0)
(0.20017 0.00737339 0)
(0.19944 0.00653355 0)
(0.198319 0.00577217 0)
(0.19688 0.00515709 0)
(0.195243 0.00468688 0)
(0.193465 0.00432207 0)
(0.191622 0.00402863 0)
(0.189696 0.00378001 0)
(0.187737 0.00356166 0)
(0.185697 0.00336232 0)
(0.183633 0.00317768 0)
(0.181489 0.00300226 0)
(0.179339 0.00283693 0)
(0.177116 0.00267782 0)
(0.174913 0.00252808 0)
(0.172646 0.00238432 0)
(0.170428 0.00225048 0)
(0.168151 0.0021228 0)
(0.165952 0.00200478 0)
(0.16369 0.00189253 0)
(0.161538 0.00178945 0)
(0.159312 0.00169075 0)
(0.157225 0.00160123 0)
(0.15505 0.00151421 0)
(0.153044 0.00143648 0)
(0.150928 0.00135982 0)
(0.149015 0.00129204 0)
(0.146961 0.00122467 0)
(0.14515 0.00116548 0)
(0.143156 0.0011058 0)
(0.141456 0.00105467 0)
(0.139518 0.00100121 0)
(0.137932 0.000957068 0)
(0.136045 0.000909289 0)
(0.134578 0.000870826 0)
(0.132732 0.00082806 0)
(0.131389 0.000794845 0)
(0.129573 0.000755667 0)
(0.128361 0.000727773 0)
(0.126561 0.000691394 0)
(0.125484 0.00066799 0)
(0.123687 0.000634541 0)
(0.122756 0.000614682 0)
(0.12094 0.000584234 0)
(0.12017 0.000567653 0)
(0.11831 0.000539615 0)
(0.117713 0.000527063 0)
(0.115789 0.000501059 0)
(0.115378 0.000491971 0)
(0.113359 0.000470559 0)
(0.113152 0.000463651 0)
(0.111004 0.000454148 0)
(0.195552 0.00532414 0)
(0.195741 0.0066644 0)
(0.196404 0.0078581 0)
(0.197508 0.00855229 0)
(0.19881 0.00877146 0)
(0.200016 0.00867854 0)
(0.201028 0.00837042 0)
(0.201761 0.00788084 0)
(0.202234 0.00725369 0)
(0.202387 0.0065684 0)
(0.202282 0.00592559 0)
(0.201915 0.00538847 0)
(0.201416 0.00497361 0)
(0.200782 0.0046527 0)
(0.200127 0.00439889 0)
(0.199382 0.00418487 0)
(0.198643 0.00399972 0)
(0.197798 0.00383028 0)
(0.196959 0.00367506 0)
(0.195992 0.00352569 0)
(0.195039 0.00338571 0)
(0.193944 0.00324761 0)
(0.19288 0.00311777 0)
(0.191664 0.00298852 0)
(0.190503 0.00286831 0)
(0.189178 0.00274831 0)
(0.187941 0.00263774 0)
(0.186521 0.00252722 0)
(0.185226 0.00242622 0)
(0.183726 0.00232427 0)
(0.182389 0.00223251 0)
(0.180824 0.00213795 0)
(0.179462 0.00205482 0)
(0.177843 0.00196703 0)
(0.176476 0.00189164 0)
(0.17481 0.0018105 0)
(0.173456 0.00174204 0)
(0.17175 0.00166683 0)
(0.170424 0.0016054 0)
(0.168685 0.00153514 0)
(0.167402 0.00148041 0)
(0.165633 0.00141487 0)
(0.164409 0.00136606 0)
(0.162608 0.00130501 0)
(0.16146 0.00126198 0)
(0.159624 0.00120422 0)
(0.158564 0.00116734 0)
(0.156693 0.00111238 0)
(0.155733 0.00108089 0)
(0.153818 0.00102887 0)
(0.152978 0.00100239 0)
(0.151004 0.000953199 0)
(0.150303 0.000931177 0)
(0.148254 0.000885271 0)
(0.147706 0.000867986 0)
(0.145572 0.000824847 0)
(0.145191 0.000812646 0)
(0.142947 0.000774752 0)
(0.142754 0.000766735 0)
(0.140375 0.000740291 0)
(0.196095 0.00520403 0)
(0.196283 0.00629789 0)
(0.196833 0.00732815 0)
(0.197722 0.00802759 0)
(0.198853 0.00830815 0)
(0.199951 0.00826134 0)
(0.200945 0.00799968 0)
(0.201704 0.0075842 0)
(0.202297 0.00706231 0)
(0.202629 0.00648408 0)
(0.202808 0.00592593 0)
(0.202755 0.00544005 0)
(0.202645 0.00505535 0)
(0.202399 0.00475323 0)
(0.202199 0.00451767 0)
(0.201904 0.00431908 0)
(0.201691 0.0041509 0)
(0.201365 0.00399599 0)
(0.201125 0.00385766 0)
(0.200739 0.00372318 0)
(0.200448 0.00360124 0)
(0.199984 0.00347864 0)
(0.199632 0.0033676 0)
(0.199082 0.00325329 0)
(0.198667 0.00315129 0)
(0.198027 0.00304466 0)
(0.197554 0.00295069 0)
(0.196823 0.00285162 0)
(0.196295 0.00276524 0)
(0.195475 0.00267266 0)
(0.194896 0.0025937 0)
(0.193988 0.00250587 0)
(0.193365 0.00243383 0)
(0.192369 0.00234991 0)
(0.191711 0.00228384 0)
(0.190628 0.00220413 0)
(0.189946 0.00214284 0)
(0.188777 0.00206691 0)
(0.18808 0.00201083 0)
(0.186827 0.00193752 0)
(0.186127 0.0018868 0)
(0.184791 0.00181595 0)
(0.1841 0.00176984 0)
(0.182682 0.00170184 0)
(0.182013 0.00166021 0)
(0.180512 0.00159409 0)
(0.179878 0.00155767 0)
(0.178294 0.00149302 0)
(0.177707 0.00146155 0)
(0.176039 0.00139832 0)
(0.175516 0.00137188 0)
(0.173755 0.00131066 0)
(0.173315 0.00128783 0)
(0.171455 0.0012303 0)
(0.171107 0.00121162 0)
(0.169146 0.00115641 0)
(0.168903 0.0011437 0)
(0.16683 0.00109341 0)
(0.166706 0.00108583 0)
(0.164509 0.0010458 0)
(0.196573 0.00508607 0)
(0.196751 0.00600072 0)
(0.197227 0.00687281 0)
(0.197941 0.00752221 0)
(0.198906 0.00784049 0)
(0.19986 0.0078489 0)
(0.200783 0.00764389 0)
(0.201484 0.00729388 0)
(0.202077 0.00685555 0)
(0.202416 0.00636436 0)
(0.20267 0.00588002 0)
(0.202692 0.00543945 0)
(0.202709 0.00508006 0)
(0.202564 0.00478858 0)
(0.202511 0.0045619 0)
(0.202335 0.00436812 0)
(0.202296 0.00420669 0)
(0.202119 0.00405504 0)
(0.202093 0.00392294 0)
(0.201897 0.00379166 0)
(0.201866 0.00367731 0)
(0.201634 0.00355931 0)
(0.201587 0.00345784 0)
(0.201312 0.00334943 0)
(0.201248 0.00325822 0)
(0.200922 0.00315809 0)
(0.20084 0.00307536 0)
(0.200461 0.00298296 0)
(0.20036 0.00290796 0)
(0.199923 0.00282197 0)
(0.199802 0.00275475 0)
(0.199302 0.00267298 0)
(0.199162 0.00261283 0)
(0.198595 0.00253423 0)
(0.198436 0.00247972 0)
(0.197798 0.00240488 0)
(0.197622 0.00235442 0)
(0.196909 0.00228259 0)
(0.19672 0.00223681 0)
(0.195929 0.0021665 0)
(0.19573 0.00212547 0)
(0.194857 0.00205666 0)
(0.194652 0.00201903 0)
(0.193697 0.00195242 0)
(0.19349 0.00191812 0)
(0.19245 0.00185242 0)
(0.192248 0.00182243 0)
(0.191122 0.00175708 0)
(0.19093 0.00173127 0)
(0.189717 0.00166629 0)
(0.189543 0.00164457 0)
(0.188238 0.00158108 0)
(0.188092 0.00156124 0)
(0.186695 0.00150189 0)
(0.18658 0.00148503 0)
(0.185092 0.00142717 0)
(0.185012 0.00141608 0)
(0.183432 0.00136284 0)
(0.183393 0.00135663 0)
(0.181719 0.00131259 0)
(0.197 0.00496574 0)
(0.197165 0.00573934 0)
(0.197585 0.00647707 0)
(0.198162 0.00705563 0)
(0.198981 0.0073867 0)
(0.199793 0.00744663 0)
(0.200636 0.00730318 0)
(0.201271 0.00701552 0)
(0.201845 0.00664831 0)
(0.202167 0.0062294 0)
(0.202448 0.00581163 0)
(0.202494 0.00541567 0)
(0.202567 0.00508361 0)
(0.202456 0.00480327 0)
(0.202456 0.00458398 0)
(0.202309 0.00439236 0)
(0.202322 0.00423483 0)
(0.202179 0.004083 0)
(0.202214 0.00395357 0)
(0.202065 0.00382105 0)
(0.202111 0.00370944 0)
(0.201944 0.00359091 0)
(0.201993 0.00349325 0)
(0.201805 0.00338543 0)
(0.201857 0.00329889 0)
(0.201644 0.00319997 0)
(0.201701 0.0031225 0)
(0.201461 0.00303161 0)
(0.201521 0.00296229 0)
(0.201251 0.00287804 0)
(0.201314 0.00281715 0)
(0.201011 0.00273747 0)
(0.201075 0.0026841 0)
(0.200736 0.00260802 0)
(0.2008 0.00256029 0)
(0.20042 0.00248859 0)
(0.200483 0.00244512 0)
(0.200058 0.00237639 0)
(0.200121 0.00233793 0)
(0.199646 0.00227089 0)
(0.199707 0.00223688 0)
(0.199182 0.00217205 0)
(0.199237 0.00214056 0)
(0.198659 0.00207823 0)
(0.198711 0.00204996 0)
(0.198074 0.00198825 0)
(0.198124 0.00196391 0)
(0.197428 0.00190276 0)
(0.197471 0.00188159 0)
(0.196718 0.001821 0)
(0.196757 0.00180354 0)
(0.195938 0.00174441 0)
(0.195976 0.00172701 0)
(0.195098 0.00167312 0)
(0.195128 0.00165806 0)
(0.194188 0.00160529 0)
(0.194211 0.00159532 0)
(0.193212 0.00154714 0)
(0.193227 0.00154173 0)
(0.19217 0.00150241 0)
(0.197383 0.00484417 0)
(0.197533 0.00550341 0)
(0.197906 0.00613097 0)
(0.198378 0.00663838 0)
(0.199073 0.00696365 0)
(0.199758 0.00706353 0)
(0.200513 0.00697942 0)
(0.201087 0.00675171 0)
(0.201631 0.00644759 0)
(0.201939 0.00608997 0)
(0.202228 0.00573072 0)
(0.202294 0.00537802 0)
(0.202395 0.00507508 0)
(0.202313 0.00480855 0)
(0.202336 0.00459744 0)
(0.202211 0.00440838 0)
(0.202236 0.00425442 0)
(0.20211 0.0041025 0)
(0.202155 0.00397522 0)
(0.202026 0.00384133 0)
(0.202081 0.00373076 0)
(0.201943 0.00361098 0)
(0.202003 0.00351441 0)
(0.201853 0.00340598 0)
(0.201919 0.00332085 0)
(0.201757 0.00322147 0)
(0.201832 0.00314576 0)
(0.201656 0.00305445 0)
(0.201741 0.00298694 0)
(0.201551 0.00290237 0)
(0.201646 0.00284345 0)
(0.201441 0.00276398 0)
(0.201543 0.00271254 0)
(0.201324 0.0026375 0)
(0.201431 0.00259143 0)
(0.201196 0.00252142 0)
(0.201309 0.00248022 0)
(0.201052 0.00241305 0)
(0.201173 0.00237724 0)
(0.200891 0.00231267 0)
(0.201014 0.00228053 0)
(0.200713 0.00221981 0)
(0.200832 0.00218964 0)
(0.200507 0.00213147 0)
(0.200627 0.00210545 0)
(0.20027 0.00204796 0)
(0.20039 0.00202522 0)
(0.200007 0.00196995 0)
(0.200113 0.00194941 0)
(0.199705 0.00189469 0)
(0.199806 0.00187876 0)
(0.199361 0.00182623 0)
(0.19945 0.00180829 0)
(0.198978 0.00176217 0)
(0.19905 0.00174719 0)
(0.198547 0.0017022 0)
(0.198598 0.00169181 0)
(0.198064 0.0016514 0)
(0.198094 0.00164563 0)
(0.19753 0.00161435 0)
(0.197723 0.00472373 0)
(0.197863 0.00528865 0)
(0.19819 0.00582721 0)
(0.198585 0.00627052 0)
(0.199171 0.00657897 0)
(0.199751 0.00670463 0)
(0.200413 0.00667164 0)
(0.20093 0.00650015 0)
(0.201435 0.00625337 0)
(0.201735 0.00594977 0)
(0.202018 0.00564141 0)
(0.202106 0.00532957 0)
(0.202219 0.00505603 0)
(0.202171 0.00480607 0)
(0.202203 0.00460441 0)
(0.202105 0.00441942 0)
(0.202127 0.00426927 0)
(0.202024 0.00411842 0)
(0.202059 0.00399337 0)
(0.201954 0.00385953 0)
(0.201996 0.00374923 0)
(0.201886 0.00362927 0)
(0.201928 0.00353239 0)
(0.201812 0.00342391 0)
(0.201857 0.00333857 0)
(0.201735 0.00323883 0)
(0.201787 0.00316315 0)
(0.201658 0.00307147 0)
(0.201718 0.00300374 0)
(0.201583 0.00291884 0)
(0.201651 0.00285938 0)
(0.201511 0.00278018 0)
(0.201585 0.00272768 0)
(0.201442 0.0026538 0)
(0.201519 0.00260629 0)
(0.201373 0.00253755 0)
(0.201457 0.00249586 0)
(0.201301 0.00242953 0)
(0.201394 0.00239325 0)
(0.201229 0.00233095 0)
(0.201323 0.00229684 0)
(0.201157 0.00224004 0)
(0.201247 0.00220811 0)
(0.201074 0.00215282 0)
(0.201169 0.00212651 0)
(0.20098 0.00207249 0)
(0.201075 0.00204782 0)
(0.200882 0.00199827 0)
(0.200964 0.00197576 0)
(0.200764 0.00192535 0)
(0.200846 0.00190889 0)
(0.200628 0.00186256 0)
(0.200698 0.00184188 0)
(0.200475 0.00180209 0)
(0.200531 0.00178625 0)
(0.200294 0.00174774 0)
(0.200333 0.00173607 0)
(0.200082 0.00170218 0)
(0.200105 0.00169553 0)
(0.199841 0.00167102 0)
(0.198025 0.00460594 0)
(0.198158 0.00509294 0)
(0.198442 0.00555894 0)
(0.198779 0.00594668 0)
(0.199271 0.00623309 0)
(0.199764 0.00637236 0)
(0.200333 0.00637933 0)
(0.2008 0.00625828 0)
(0.201257 0.00606372 0)
(0.201551 0.00580936 0)
(0.201819 0.00554587 0)
(0.20193 0.00527195 0)
(0.202044 0.00502689 0)
(0.202031 0.00479552 0)
(0.202063 0.00460463 0)
(0.201997 0.00442549 0)
(0.202011 0.00427956 0)
(0.201934 0.00413109 0)
(0.201954 0.00400837 0)
(0.201876 0.00387623 0)
(0.201897 0.00376583 0)
(0.201818 0.0036469 0)
(0.201837 0.00354907 0)
(0.201753 0.00344133 0)
(0.201772 0.00335506 0)
(0.201684 0.00325537 0)
(0.201708 0.00317895 0)
(0.201616 0.00308739 0)
(0.201645 0.00301855 0)
(0.201552 0.00293382 0)
(0.201585 0.0028727 0)
(0.201492 0.00279427 0)
(0.201528 0.00273935 0)
(0.201437 0.00266704 0)
(0.201475 0.00261694 0)
(0.201385 0.00254927 0)
(0.201428 0.00250621 0)
(0.201335 0.0024404 0)
(0.201384 0.00240234 0)
(0.20129 0.00234237 0)
(0.201338 0.00230469 0)
(0.201249 0.00225119 0)
(0.201295 0.00221689 0)
(0.201204 0.00216301 0)
(0.201257 0.00213554 0)
(0.201159 0.00208434 0)
(0.20121 0.0020562 0)
(0.201117 0.00201106 0)
(0.201161 0.00198649 0)
(0.201064 0.00193819 0)
(0.201112 0.00192026 0)
(0.201009 0.00187891 0)
(0.201046 0.0018552 0)
(0.200945 0.00181907 0)
(0.200976 0.00180258 0)
(0.200868 0.00176811 0)
(0.20089 0.00175515 0)
(0.200775 0.00172541 0)
(0.200788 0.00171809 0)
(0.200667 0.00169763 0)
(0.198296 0.00449198 0)
(0.198422 0.00491462 0)
(0.198666 0.00532049 0)
(0.198957 0.00566089 0)
(0.199367 0.00592369 0)
(0.19979 0.00606802 0)
(0.200273 0.00610394 0)
(0.200691 0.00602596 0)
(0.201097 0.00587817 0)
(0.201383 0.00566928 0)
(0.201633 0.00544616 0)
(0.201761 0.00520727 0)
(0.201874 0.00498916 0)
(0.201889 0.00477733 0)
(0.201922 0.00459831 0)
(0.201883 0.00442662 0)
(0.201891 0.00428547 0)
(0.201838 0.0041405 0)
(0.201845 0.0040202 0)
(0.20179 0.00389104 0)
(0.201795 0.00378057 0)
(0.20174 0.00366348 0)
(0.201742 0.00356468 0)
(0.201684 0.00345807 0)
(0.201683 0.00337078 0)
(0.201621 0.00327133 0)
(0.201624 0.00319393 0)
(0.20156 0.00310279 0)
(0.201565 0.00303263 0)
(0.201501 0.00294833 0)
(0.201509 0.00288527 0)
(0.201447 0.00280781 0)
(0.201457 0.00275024 0)
(0.201398 0.00267944 0)
(0.201408 0.00262682 0)
(0.201351 0.00255982 0)
(0.201367 0.00251541 0)
(0.201308 0.00244994 0)
(0.201328 0.00240984 0)
(0.201271 0.00235191 0)
(0.201289 0.00231085 0)
(0.201238 0.00225947 0)
(0.201256 0.00222347 0)
(0.201204 0.00217006 0)
(0.201228 0.00214123 0)
(0.201174 0.00209229 0)
(0.201195 0.00206097 0)
(0.201147 0.00201834 0)
(0.201166 0.00199273 0)
(0.201113 0.0019453 0)
(0.201137 0.00192554 0)
(0.201084 0.0018878 0)
(0.201101 0.00186213 0)
(0.201048 0.00182741 0)
(0.201062 0.00181083 0)
(0.201007 0.00177854 0)
(0.201017 0.00176465 0)
(0.200957 0.00173725 0)
(0.200963 0.00172973 0)
(0.200899 0.00171121 0)
(0.198538 0.00438281 0)
(0.198657 0.00475213 0)
(0.198866 0.00510767 0)
(0.199117 0.00540799 0)
(0.19946 0.0056477 0)
(0.199821 0.00579176 0)
(0.200229 0.00584751 0)
(0.200598 0.00580465 0)
(0.200956 0.00569764 0)
(0.201227 0.00553042 0)
(0.201458 0.00534414 0)
(0.201597 0.00513764 0)
(0.201708 0.00494486 0)
(0.201744 0.00475256 0)
(0.20178 0.0045862 0)
(0.201762 0.00442319 0)
(0.201768 0.00428742 0)
(0.201733 0.00414684 0)
(0.201732 0.00402912 0)
(0.201695 0.00390365 0)
(0.201691 0.00379359 0)
(0.201652 0.00367858 0)
(0.201644 0.00357929 0)
(0.201602 0.00347386 0)
(0.201592 0.00338576 0)
(0.201546 0.00328662 0)
(0.201538 0.00320824 0)
(0.201491 0.00311757 0)
(0.201484 0.00304622 0)
(0.201437 0.0029623 0)
(0.201432 0.00289754 0)
(0.201388 0.00282083 0)
(0.201384 0.00276101 0)
(0.201342 0.00269122 0)
(0.20134 0.00263662 0)
(0.201299 0.00256992 0)
(0.201301 0.00252427 0)
(0.20126 0.00245907 0)
(0.201264 0.00241717 0)
(0.201226 0.00236053 0)
(0.20123 0.00231716 0)
(0.201195 0.00226668 0)
(0.201201 0.00222961 0)
(0.201166 0.00217645 0)
(0.201175 0.0021462 0)
(0.201141 0.00209879 0)
(0.201148 0.00206558 0)
(0.201116 0.00202373 0)
(0.201126 0.0019978 0)
(0.201089 0.00195107 0)
(0.201101 0.00192941 0)
(0.201067 0.00189393 0)
(0.201075 0.00186764 0)
(0.201039 0.00183314 0)
(0.201046 0.00181679 0)
(0.201009 0.00178561 0)
(0.201014 0.00177121 0)
(0.200973 0.00174521 0)
(0.200976 0.00173779 0)
(0.200932 0.00172007 0)
(0.198755 0.0042792 0)
(0.198865 0.00460426 0)
(0.199044 0.00491754 0)
(0.19926 0.00518394 0)
(0.199546 0.00540214 0)
(0.199854 0.00554273 0)
(0.200198 0.00561146 0)
(0.20052 0.0055962 0)
(0.200832 0.00552366 0)
(0.201083 0.00539377 0)
(0.201296 0.00524124 0)
(0.201438 0.00506465 0)
(0.201548 0.00489574 0)
(0.201597 0.00472239 0)
(0.201637 0.00456911 0)
(0.201633 0.00441563 0)
(0.201641 0.00428578 0)
(0.201619 0.00415029 0)
(0.201616 0.00403541 0)
(0.20159 0.00391383 0)
(0.201582 0.00380497 0)
(0.201554 0.003692 0)
(0.201543 0.00359287 0)
(0.20151 0.00348854 0)
(0.201498 0.00339993 0)
(0.201461 0.00330117 0)
(0.201449 0.00322193 0)
(0.201411 0.00313158 0)
(0.2014 0.00305937 0)
(0.201363 0.00297557 0)
(0.201352 0.00290955 0)
(0.201317 0.00283318 0)
(0.201308 0.0027717 0)
(0.201274 0.00270237 0)
(0.201268 0.00264628 0)
(0.201235 0.00257969 0)
(0.201231 0.00253282 0)
(0.2012 0.00246783 0)
(0.201197 0.00242462 0)
(0.201169 0.00236833 0)
(0.201167 0.00232383 0)
(0.201139 0.00227336 0)
(0.201141 0.00223544 0)
(0.201113 0.00218273 0)
(0.201115 0.00215109 0)
(0.201091 0.0021044 0)
(0.201093 0.00207059 0)
(0.201066 0.00202846 0)
(0.201073 0.00200233 0)
(0.201044 0.00195662 0)
(0.20105 0.00193322 0)
(0.201023 0.00189888 0)
(0.201028 0.00187289 0)
(0.200999 0.00183822 0)
(0.201002 0.00182221 0)
(0.200973 0.00179155 0)
(0.200976 0.00177691 0)
(0.200942 0.00175198 0)
(0.200944 0.00174475 0)
(0.200908 0.00172737 0)
(0.19895 0.00418188 0)
(0.19905 0.00447029 0)
(0.199202 0.00474819 0)
(0.199386 0.00498586 0)
(0.199626 0.00518457 0)
(0.199886 0.00531982 0)
(0.200175 0.00539658 0)
(0.200453 0.00540231 0)
(0.200723 0.00535805 0)
(0.20095 0.00526054 0)
(0.201145 0.00513857 0)
(0.201283 0.0049895 0)
(0.201391 0.00484308 0)
(0.201448 0.00468784 0)
(0.201492 0.00454777 0)
(0.201499 0.00440426 0)
(0.201509 0.00428082 0)
(0.201496 0.00415093 0)
(0.201494 0.00403927 0)
(0.201475 0.00392147 0)
(0.201468 0.00381462 0)
(0.201445 0.00370367 0)
(0.201435 0.00360529 0)
(0.201408 0.00350202 0)
(0.201397 0.00341317 0)
(0.201366 0.00331492 0)
(0.201353 0.00323502 0)
(0.201322 0.00314478 0)
(0.201309 0.003072 0)
(0.201278 0.0029881 0)
(0.201266 0.00292121 0)
(0.201237 0.00284483 0)
(0.201227 0.00278218 0)
(0.201198 0.00271291 0)
(0.201191 0.00265567 0)
(0.201162 0.00258913 0)
(0.201157 0.00254102 0)
(0.201131 0.00247618 0)
(0.201126 0.00243209 0)
(0.201102 0.00237541 0)
(0.2011 0.00233063 0)
(0.201074 0.00227969 0)
(0.201076 0.00224093 0)
(0.201052 0.00218888 0)
(0.201051 0.00215597 0)
(0.201031 0.00210935 0)
(0.201032 0.00207583 0)
(0.201008 0.00203291 0)
(0.201014 0.00200645 0)
(0.200988 0.00196205 0)
(0.200993 0.00193713 0)
(0.200969 0.00190321 0)
(0.200973 0.00187801 0)
(0.200948 0.00184305 0)
(0.200949 0.00182741 0)
(0.200924 0.00179707 0)
(0.200926 0.00178223 0)
(0.200896 0.00175823 0)
(0.200898 0.00175126 0)
(0.200866 0.00173402 0)
(0.199126 0.00409083 0)
(0.199214 0.00434881 0)
(0.199342 0.00459709 0)
(0.199498 0.00481033 0)
(0.199697 0.0049917 0)
(0.199915 0.0051206 0)
(0.200157 0.00520189 0)
(0.200393 0.00522319 0)
(0.200626 0.00520156 0)
(0.200826 0.00513138 0)
(0.201002 0.00503656 0)
(0.201131 0.00491265 0)
(0.201236 0.00478738 0)
(0.201296 0.00464935 0)
(0.201343 0.00452246 0)
(0.201357 0.00438911 0)
(0.201371 0.0042725 0)
(0.201364 0.00414856 0)
(0.201364 0.00404053 0)
(0.20135 0.0039264 0)
(0.201345 0.0038222 0)
(0.201327 0.00371341 0)
(0.201319 0.00361629 0)
(0.201296 0.00351411 0)
(0.201286 0.00342535 0)
(0.20126 0.00332775 0)
(0.201249 0.00324744 0)
(0.201222 0.00315718 0)
(0.20121 0.00308405 0)
(0.201184 0.00299991 0)
(0.201172 0.00293245 0)
(0.201147 0.00285584 0)
(0.201138 0.00279237 0)
(0.201111 0.0027229 0)
(0.201106 0.00266472 0)
(0.20108 0.00259823 0)
(0.201075 0.0025489 0)
(0.201053 0.00248413 0)
(0.201047 0.00243948 0)
(0.201027 0.00238194 0)
(0.201024 0.00233736 0)
(0.201001 0.00228575 0)
(0.201003 0.00224611 0)
(0.200982 0.00219484 0)
(0.20098 0.00216079 0)
(0.200963 0.00211385 0)
(0.200963 0.00208103 0)
(0.200942 0.00203723 0)
(0.200948 0.00201022 0)
(0.200924 0.00196731 0)
(0.200928 0.00194109 0)
(0.200907 0.00190715 0)
(0.200911 0.001883 0)
(0.200888 0.00184771 0)
(0.200889 0.00183231 0)
(0.200867 0.00180237 0)
(0.200869 0.00178733 0)
(0.200842 0.00176408 0)
(0.200843 0.00175741 0)
(0.200815 0.00174028 0)
(0.19929 0.00400389 0)
(0.199365 0.00423563 0)
(0.199471 0.00445854 0)
(0.199598 0.00465068 0)
(0.199762 0.00481667 0)
(0.19994 0.00493892 0)
(0.200141 0.0050225 0)
(0.200338 0.00505549 0)
(0.200534 0.00505206 0)
(0.200706 0.00500483 0)
(0.200861 0.00493412 0)
(0.200979 0.00483331 0)
(0.201076 0.00472817 0)
(0.201137 0.00460671 0)
(0.201185 0.00449304 0)
(0.201204 0.00436997 0)
(0.201221 0.00426059 0)
(0.201219 0.0041429 0)
(0.201221 0.00403893 0)
(0.201211 0.00392847 0)
(0.201208 0.00382739 0)
(0.201194 0.00372104 0)
(0.201188 0.00362559 0)
(0.201169 0.00352468 0)
(0.201162 0.00343635 0)
(0.20114 0.00333962 0)
(0.20113 0.00325915 0)
(0.201108 0.00316884 0)
(0.201097 0.00309555 0)
(0.201075 0.00301113 0)
(0.201065 0.00294329 0)
(0.201043 0.00286636 0)
(0.201035 0.00280226 0)
(0.201012 0.00273253 0)
(0.201008 0.00267351 0)
(0.200985 0.00260706 0)
(0.200981 0.00255659 0)
(0.200962 0.0024918 0)
(0.200956 0.00244677 0)
(0.200939 0.00238819 0)
(0.200937 0.00234393 0)
(0.200916 0.00229168 0)
(0.200918 0.00225112 0)
(0.2009 0.00220057 0)
(0.200898 0.0021656 0)
(0.200884 0.00211811 0)
(0.200883 0.00208607 0)
(0.200865 0.00204154 0)
(0.20087 0.00201378 0)
(0.20085 0.00197232 0)
(0.200853 0.00194514 0)
(0.200835 0.00191085 0)
(0.200837 0.00188781 0)
(0.200819 0.00185233 0)
(0.200819 0.00183696 0)
(0.200799 0.00180752 0)
(0.200802 0.00179236 0)
(0.200778 0.00176966 0)
(0.200779 0.0017633 0)
(0.200755 0.00174628 0)
(0.199444 0.00391954 0)
(0.199505 0.00412794 0)
(0.199589 0.00432883 0)
(0.19969 0.00450281 0)
(0.199819 0.00465557 0)
(0.199962 0.0047716 0)
(0.200123 0.00485643 0)
(0.200282 0.00489852 0)
(0.200443 0.00490991 0)
(0.200587 0.00488196 0)
(0.200718 0.00483242 0)
(0.200821 0.00475264 0)
(0.200909 0.00466645 0)
(0.200966 0.00456091 0)
(0.201013 0.00446033 0)
(0.201034 0.00434748 0)
(0.201053 0.00424561 0)
(0.201055 0.00413426 0)
(0.201059 0.00403466 0)
(0.201053 0.00392792 0)
(0.201052 0.00383015 0)
(0.201041 0.00372653 0)
(0.201038 0.00363302 0)
(0.201023 0.00353361 0)
(0.201018 0.00344605 0)
(0.201 0.0033503 0)
(0.200993 0.00327001 0)
(0.200975 0.00317966 0)
(0.200966 0.00310635 0)
(0.200948 0.0030217 0)
(0.20094 0.00295356 0)
(0.200921 0.00287638 0)
(0.200915 0.00281172 0)
(0.200895 0.00274174 0)
(0.200892 0.002682 0)
(0.200873 0.00261551 0)
(0.200869 0.00256409 0)
(0.200854 0.00249913 0)
(0.200849 0.0024538 0)
(0.200835 0.00239427 0)
(0.200833 0.00235018 0)
(0.200816 0.00229741 0)
(0.200818 0.00225602 0)
(0.200802 0.00220593 0)
(0.200801 0.00217031 0)
(0.200789 0.00212224 0)
(0.200789 0.00209072 0)
(0.200773 0.00204579 0)
(0.200778 0.00201721 0)
(0.20076 0.00197692 0)
(0.200764 0.00194914 0)
(0.200748 0.00191443 0)
(0.20075 0.00189231 0)
(0.200735 0.00185681 0)
(0.200735 0.00184137 0)
(0.200718 0.00181243 0)
(0.200721 0.00179722 0)
(0.2007 0.00177499 0)
(0.200702 0.00176889 0)
(0.200681 0.00175201 0)
(0.199586 0.0038395 0)
(0.199632 0.00402756 0)
(0.199696 0.00420986 0)
(0.199771 0.00436877 0)
(0.199869 0.0045109 0)
(0.199978 0.00462181 0)
(0.200102 0.00470752 0)
(0.200225 0.00475682 0)
(0.200352 0.00478002 0)
(0.200466 0.00476781 0)
(0.200572 0.004736 0)
(0.200657 0.00467449 0)
(0.200732 0.00460524 0)
(0.200782 0.00451432 0)
(0.200825 0.00442612 0)
(0.200847 0.00432294 0)
(0.200866 0.0042285 0)
(0.20087 0.00412325 0)
(0.200876 0.00402799 0)
(0.200873 0.00392501 0)
(0.200874 0.0038304 0)
(0.200866 0.00372967 0)
(0.200865 0.00363816 0)
(0.200853 0.00354041 0)
(0.200851 0.00345396 0)
(0.200838 0.00335919 0)
(0.200833 0.0032794 0)
(0.200819 0.00318911 0)
(0.200812 0.00311587 0)
(0.200799 0.00303115 0)
(0.200792 0.00296272 0)
(0.200778 0.00288543 0)
(0.200774 0.00282029 0)
(0.200758 0.00275011 0)
(0.200756 0.00268982 0)
(0.200741 0.00262317 0)
(0.200738 0.00257108 0)
(0.200727 0.00250586 0)
(0.200723 0.00246022 0)
(0.200711 0.00239998 0)
(0.200711 0.00235584 0)
(0.200697 0.00230265 0)
(0.200699 0.00226068 0)
(0.200686 0.00221068 0)
(0.200685 0.00217465 0)
(0.200677 0.00212611 0)
(0.200676 0.00209477 0)
(0.200664 0.00204974 0)
(0.200668 0.00202041 0)
(0.200654 0.00198091 0)
(0.200658 0.00195285 0)
(0.200645 0.00191768 0)
(0.200646 0.00189638 0)
(0.200636 0.00186084 0)
(0.200635 0.00184531 0)
(0.200621 0.00181694 0)
(0.200624 0.0018016 0)
(0.200608 0.0017798 0)
(0.200609 0.00177402 0)
(0.200593 0.00175721 0)
(0.199715 0.00376764 0)
(0.199747 0.00393862 0)
(0.199791 0.0041059 0)
(0.199842 0.00425296 0)
(0.199911 0.00438717 0)
(0.199987 0.0044945 0)
(0.200076 0.00458101 0)
(0.200165 0.00463593 0)
(0.200257 0.00466814 0)
(0.200341 0.00466818 0)
(0.200421 0.0046503 0)
(0.200485 0.00460347 0)
(0.200543 0.00454838 0)
(0.200584 0.0044699 0)
(0.200619 0.00439263 0)
(0.200638 0.004298 0)
(0.200656 0.00421043 0)
(0.200662 0.00411066 0)
(0.200668 0.00401942 0)
(0.200667 0.00392 0)
(0.20067 0.0038282 0)
(0.200665 0.00373022 0)
(0.200666 0.00364067 0)
(0.200658 0.00354457 0)
(0.200658 0.00345949 0)
(0.20065 0.00336557 0)
(0.200647 0.00328657 0)
(0.200638 0.00319643 0)
(0.200633 0.00312338 0)
(0.200624 0.00303877 0)
(0.200621 0.00297007 0)
(0.20061 0.00289285 0)
(0.200608 0.00282734 0)
(0.200597 0.002757 0)
(0.200596 0.00269647 0)
(0.200586 0.0026295 0)
(0.200584 0.00257709 0)
(0.200576 0.00251156 0)
(0.200574 0.00246564 0)
(0.200566 0.00240498 0)
(0.200566 0.00236063 0)
(0.200556 0.0023071 0)
(0.200558 0.00226482 0)
(0.200549 0.00221463 0)
(0.200549 0.00217845 0)
(0.200544 0.00212948 0)
(0.200543 0.00209813 0)
(0.200535 0.00205318 0)
(0.200538 0.00202317 0)
(0.200528 0.00198417 0)
(0.200531 0.0019562 0)
(0.200523 0.00192025 0)
(0.200522 0.00189998 0)
(0.200516 0.00186431 0)
(0.200516 0.00184845 0)
(0.200506 0.00182092 0)
(0.200509 0.00180539 0)
(0.200497 0.00178368 0)
(0.200497 0.00177855 0)
(0.200487 0.00176163 0)
(0.199831 0.00371033 0)
(0.199849 0.00386795 0)
(0.199874 0.004024 0)
(0.199903 0.00416261 0)
(0.199944 0.00429144 0)
(0.19999 0.00439664 0)
(0.200044 0.00448384 0)
(0.200099 0.00454274 0)
(0.200156 0.00458114 0)
(0.200208 0.00458977 0)
(0.200259 0.00458163 0)
(0.200301 0.00454523 0)