/*--------------------------------*- C++ -*----------------------------------*\
| =========                 |                                                 |
| \\      /  F ield         | OpenFOAM: The Open Source CFD Toolbox           |
|  \\    /   O peration     | Version:  2.3.0                                 |
|   \\  /    A nd           | Web:      www.OpenFOAM.org                      |
|    \\/     M anipulation  |                                                 |
\*---------------------------------------------------------------------------*/
FoamFile
{
    version     2.0;
    format      ascii;
    class       volVectorField;
    location    "0.9";
    object      U;
}
// * * * * * * * * * * * * * * * * * * * * * * * * * * * * * * * * * * * * * //

dimensions      [0 1 -1 0 0 0 0];

internalField   nonuniform List<vector> 
8750
(
(0.171611 0.00593575 0)
(0.155187 0.00601769 0)
(0.139393 0.00560539 0)
(0.124413 0.00501121 0)
(0.110663 0.00435346 0)
(0.0983132 0.00368563 0)
(0.0873757 0.00304454 0)
(0.0778166 0.00245566 0)
(0.0695802 0.00193452 0)
(0.0625823 0.00148896 0)
(0.0567103 0.00112073 0)
(0.0518319 0.000826419 0)
(0.0478071 0.000598738 0)
(0.0444975 0.000428055 0)
(0.0417735 0.000303924 0)
(0.0395197 0.000216271 0)
(0.0376371 0.000156148 0)
(0.0360443 0.00011607 0)
(0.0346763 9.0083e-05 0)
(0.0334825 7.36387e-05 0)
(0.0324246 6.34032e-05 0)
(0.031474 5.70296e-05 0)
(0.0306097 5.29358e-05 0)
(0.0298162 5.01055e-05 0)
(0.0290821 4.79206e-05 0)
(0.028399 4.60303e-05 0)
(0.0277604 4.42531e-05 0)
(0.0271611 4.25091e-05 0)
(0.0265972 4.07741e-05 0)
(0.0260652 3.90516e-05 0)
(0.0255623 3.73559e-05 0)
(0.0250859 3.57033e-05 0)
(0.0246338 3.41076e-05 0)
(0.024204 3.25789e-05 0)
(0.0237948 3.11233e-05 0)
(0.0234045 2.97434e-05 0)
(0.0230318 2.84394e-05 0)
(0.0226754 2.72096e-05 0)
(0.0223341 2.60511e-05 0)
(0.0220068 2.49602e-05 0)
(0.0216925 2.39331e-05 0)
(0.0213905 2.29655e-05 0)
(0.0210999 2.20536e-05 0)
(0.0208199 2.11934e-05 0)
(0.02055 2.03814e-05 0)
(0.0202895 1.96142e-05 0)
(0.0200379 1.88887e-05 0)
(0.0197947 1.82019e-05 0)
(0.0195593 1.75512e-05 0)
(0.0193314 1.69342e-05 0)
(0.0191106 1.63485e-05 0)
(0.0188965 1.57922e-05 0)
(0.0186887 1.52633e-05 0)
(0.0184869 1.47601e-05 0)
(0.0182909 1.4281e-05 0)
(0.0181003 1.38244e-05 0)
(0.017915 1.33891e-05 0)
(0.0177345 1.29737e-05 0)
(0.0175588 1.25771e-05 0)
(0.0173877 1.21982e-05 0)
(0.0172208 1.18359e-05 0)
(0.0170581 1.14894e-05 0)
(0.0168993 1.11578e-05 0)
(0.0167442 1.08403e-05 0)
(0.0165928 1.0536e-05 0)
(0.0164449 1.02445e-05 0)
(0.0163003 9.96497e-06 0)
(0.0161589 9.69676e-06 0)
(0.0160206 9.43946e-06 0)
(0.0158852 9.19251e-06 0)
(0.0157526 8.95526e-06 0)
(0.0156228 8.72751e-06 0)
(0.0154956 8.50869e-06 0)
(0.0153709 8.29843e-06 0)
(0.0152486 8.09641e-06 0)
(0.0151287 7.90222e-06 0)
(0.015011 7.71566e-06 0)
(0.0148954 7.53636e-06 0)
(0.014782 7.36408e-06 0)
(0.0146705 7.19856e-06 0)
(0.014561 7.03965e-06 0)
(0.0144533 6.88711e-06 0)
(0.0143474 6.74074e-06 0)
(0.0142433 6.60042e-06 0)
(0.0141407 6.46602e-06 0)
(0.0140397 6.33747e-06 0)
(0.0139403 6.21463e-06 0)
(0.0138422 6.09751e-06 0)
(0.0137456 5.98611e-06 0)
(0.0136502 5.88053e-06 0)
(0.0135561 5.78098e-06 0)
(0.0134632 5.68795e-06 0)
(0.0133713 5.60239e-06 0)
(0.0132804 5.52624e-06 0)
(0.0131904 5.46398e-06 0)
(0.0131011 5.42636e-06 0)
(0.013012 5.44711e-06 0)
(0.0129213 5.57513e-06 0)
(0.0128457 4.65405e-06 0)
(0.0125992 3.49562e-05 0)
(0.19047 0.00937942 0)
(0.188169 0.00989404 0)
(0.184258 0.0096711 0)
(0.179095 0.00917443 0)
(0.173182 0.00854334 0)
(0.166873 0.00782397 0)
(0.16039 0.00705412 0)
(0.153902 0.00626857 0)
(0.147542 0.00549643 0)
(0.141412 0.00476153 0)
(0.13558 0.00408252 0)
(0.130085 0.00347227 0)
(0.124947 0.00293761 0)
(0.120169 0.00247979 0)
(0.115742 0.0020955 0)
(0.11165 0.00177819 0)
(0.107873 0.0015194 0)
(0.104386 0.00131002 0)
(0.101166 0.00114115 0)
(0.098189 0.00100475 0)
(0.0954309 0.00089389 0)
(0.0928707 0.000802917 0)
(0.0904886 0.000727329 0)
(0.088267 0.000663653 0)
(0.0861899 0.00060926 0)
(0.0842432 0.000562186 0)
(0.0824144 0.00052097 0)
(0.0806923 0.000484528 0)
(0.0790673 0.000452043 0)
(0.0775307 0.000422894 0)
(0.0760748 0.000396597 0)
(0.0746929 0.000372767 0)
(0.0733788 0.00035109 0)
(0.0721273 0.000331309 0)
(0.0709334 0.000313202 0)
(0.0697929 0.000296582 0)
(0.0687018 0.000281288 0)
(0.0676567 0.00026718 0)
(0.0666543 0.000254134 0)
(0.0656918 0.000242044 0)
(0.0647665 0.000230815 0)
(0.0638762 0.000220364 0)
(0.0630185 0.000210618 0)
(0.0621915 0.000201514 0)
(0.0613934 0.000192993 0)
(0.0606226 0.000185005 0)
(0.0598774 0.000177505 0)
(0.0591564 0.000170453 0)
(0.0584584 0.000163812 0)
(0.057782 0.000157551 0)
(0.0571263 0.000151641 0)
(0.0564901 0.000146054 0)
(0.0558724 0.000140768 0)
(0.0552724 0.00013576 0)
(0.0546892 0.000131012 0)
(0.0541219 0.000126505 0)
(0.05357 0.000122223 0)
(0.0530326 0.000118152 0)
(0.0525091 0.000114277 0)
(0.0519989 0.000110587 0)
(0.0515015 0.000107069 0)
(0.0510162 0.000103713 0)
(0.0505426 0.00010051 0)
(0.0500802 9.74508e-05 0)
(0.0496285 9.45264e-05 0)
(0.0491871 9.17294e-05 0)
(0.0487556 8.9053e-05 0)
(0.0483336 8.64901e-05 0)
(0.0479208 8.4035e-05 0)
(0.0475167 8.1682e-05 0)
(0.0471211 7.94255e-05 0)
(0.0467336 7.7261e-05 0)
(0.0463539 7.51837e-05 0)
(0.0459818 7.31895e-05 0)
(0.0456169 7.12744e-05 0)
(0.0452591 6.94347e-05 0)
(0.044908 6.76671e-05 0)
(0.0445634 6.59685e-05 0)
(0.0442251 6.43359e-05 0)
(0.0438928 6.27665e-05 0)
(0.0435664 6.1258e-05 0)
(0.0432455 5.98081e-05 0)
(0.0429301 5.84146e-05 0)
(0.04262 5.70757e-05 0)
(0.0423148 5.57897e-05 0)
(0.0420145 5.45552e-05 0)
(0.0417189 5.33708e-05 0)
(0.0414277 5.22356e-05 0)
(0.0411408 5.1149e-05 0)
(0.0408579 5.01105e-05 0)
(0.0405791 4.91209e-05 0)
(0.0403039 4.8182e-05 0)
(0.0400322 4.72982e-05 0)
(0.0397639 4.64798e-05 0)
(0.0394985 4.5751e-05 0)
(0.0392356 4.51745e-05 0)
(0.0389744 4.49295e-05 0)
(0.0387113 4.54784e-05 0)
(0.0384667 4.98648e-05 0)
(0.037968 0.000119154 0)
(0.193456 0.00899875 0)
(0.194262 0.00995785 0)
(0.194405 0.010289 0)
(0.193739 0.0102915 0)
(0.19238 0.0100664 0)
(0.190454 0.00965202 0)
(0.188053 0.00909308 0)
(0.185268 0.00843914 0)
(0.182193 0.00773532 0)
(0.178918 0.00701981 0)
(0.17552 0.00632328 0)
(0.172064 0.00566837 0)
(0.168601 0.00506953 0)
(0.165171 0.00453387 0)
(0.161802 0.00406254 0)
(0.158515 0.00365242 0)
(0.155322 0.00329782 0)
(0.15223 0.00299182 0)
(0.149244 0.00272735 0)
(0.146362 0.00249779 0)
(0.143586 0.00229733 0)
(0.140911 0.00212109 0)
(0.138336 0.00196504 0)
(0.135857 0.00182596 0)
(0.13347 0.00170127 0)
(0.131172 0.00158891 0)
(0.12896 0.00148719 0)
(0.126829 0.00139478 0)
(0.124777 0.00131056 0)
(0.1228 0.00123359 0)
(0.120894 0.00116307 0)
(0.119056 0.00109832 0)
(0.117284 0.00103875 0)
(0.115574 0.000983838 0)
(0.113923 0.00093312 0)
(0.112328 0.000886191 0)
(0.110787 0.00084269 0)
(0.109298 0.000802297 0)
(0.107857 0.000764724 0)
(0.106462 0.000729717 0)
(0.105112 0.000697046 0)
(0.103804 0.000666508 0)
(0.102536 0.00063792 0)
(0.101307 0.000611119 0)
(0.100114 0.000585955 0)
(0.0989559 0.000562298 0)
(0.0978312 0.000540028 0)
(0.0967383 0.000519038 0)
(0.0956758 0.000499229 0)
(0.0946423 0.000480515 0)
(0.0936367 0.000462814 0)
(0.0926576 0.000446055 0)
(0.0917041 0.00043017 0)
(0.090775 0.000415101 0)
(0.0898694 0.000400791 0)
(0.0889861 0.00038719 0)
(0.0881245 0.000374253 0)
(0.0872836 0.000361936 0)
(0.0864625 0.0003502 0)
(0.0856606 0.00033901 0)
(0.0848771 0.000328332 0)
(0.0841112 0.000318136 0)
(0.0833624 0.000308393 0)
(0.08263 0.000299078 0)
(0.0819134 0.000290167 0)
(0.0812119 0.000281635 0)
(0.0805252 0.000273464 0)
(0.0798527 0.000265633 0)
(0.0791937 0.000258125 0)
(0.078548 0.000250923 0)
(0.077915 0.00024401 0)
(0.0772943 0.000237374 0)
(0.0766855 0.000230999 0)
(0.0760881 0.000224874 0)
(0.0755018 0.000218986 0)
(0.0749263 0.000213325 0)
(0.0743611 0.000207881 0)
(0.073806 0.000202644 0)
(0.0732605 0.000197605 0)
(0.0727244 0.000192756 0)
(0.0721974 0.000188089 0)
(0.0716791 0.000183598 0)
(0.0711693 0.000179276 0)
(0.0706677 0.000175117 0)
(0.070174 0.000171116 0)
(0.0696879 0.000167267 0)
(0.0692093 0.000163568 0)
(0.0687377 0.000160014 0)
(0.068273 0.000156603 0)
(0.0678148 0.000153333 0)
(0.067363 0.000150204 0)
(0.0669173 0.000147221 0)
(0.0664773 0.000144393 0)
(0.0660427 0.000141743 0)
(0.0656132 0.000139327 0)
(0.0651881 0.000137297 0)
(0.0647662 0.000136079 0)
(0.0643443 0.000137049 0)
(0.0639353 0.000150868 0)
(0.0632889 0.000235935 0)
(0.194483 0.00835143 0)
(0.195669 0.00940844 0)
(0.19674 0.00996333 0)
(0.19748 0.0102023 0)
(0.197867 0.0102094 0)
(0.19791 0.0100169 0)
(0.197607 0.00966067 0)
(0.196968 0.00918356 0)
(0.196017 0.00862742 0)
(0.194795 0.0080295 0)
(0.193345 0.00742146 0)
(0.191711 0.00682844 0)
(0.189935 0.00626843 0)
(0.188054 0.00575254 0)
(0.186099 0.00528595 0)
(0.184097 0.00486928 0)
(0.182067 0.00449999 0)
(0.180025 0.00417375 0)
(0.177982 0.00388538 0)
(0.175947 0.00362963 0)
(0.173924 0.00340158 0)
(0.171919 0.00319693 0)
(0.169935 0.00301202 0)
(0.167975 0.00284384 0)
(0.16604 0.00268996 0)
(0.164131 0.00254842 0)
(0.162251 0.00241767 0)
(0.1604 0.00229645 0)
(0.158578 0.00218373 0)
(0.156788 0.00207868 0)
(0.155029 0.00198058 0)
(0.153301 0.00188882 0)
(0.151606 0.00180287 0)
(0.149942 0.00172227 0)
(0.14831 0.0016466 0)
(0.146711 0.00157549 0)
(0.145142 0.00150859 0)
(0.143606 0.00144559 0)
(0.1421 0.00138622 0)
(0.140625 0.00133021 0)
(0.13918 0.00127733 0)
(0.137765 0.00122735 0)
(0.136379 0.00118008 0)
(0.135021 0.00113534 0)
(0.133692 0.00109295 0)
(0.132389 0.00105275 0)
(0.131114 0.00101462 0)
(0.129865 0.000978398 0)
(0.128641 0.000943979 0)
(0.127442 0.000911246 0)
(0.126267 0.000880094 0)
(0.125116 0.000850425 0)
(0.123988 0.000822149 0)
(0.122882 0.000795184 0)
(0.121798 0.000769451 0)
(0.120736 0.00074488 0)
(0.119694 0.000721403 0)
(0.118672 0.000698958 0)
(0.117669 0.000677487 0)
(0.116686 0.000656937 0)
(0.115721 0.000637257 0)
(0.114774 0.0006184 0)
(0.113845 0.000600323 0)
(0.112932 0.000582985 0)
(0.112036 0.000566348 0)
(0.111156 0.000550376 0)
(0.110292 0.000535035 0)
(0.109443 0.000520295 0)
(0.108608 0.000506125 0)
(0.107788 0.0004925 0)
(0.106982 0.000479392 0)
(0.10619 0.000466778 0)
(0.105411 0.000454635 0)
(0.104644 0.000442941 0)
(0.10389 0.000431678 0)
(0.103149 0.000420827 0)
(0.102419 0.000410369 0)
(0.1017 0.000400289 0)
(0.100993 0.000390572 0)
(0.100296 0.000381203 0)
(0.0996105 0.000372169 0)
(0.0989349 0.000363457 0)
(0.0982692 0.000355057 0)
(0.0976133 0.000346958 0)
(0.0969667 0.000339151 0)
(0.0963293 0.000331626 0)
(0.0957007 0.000324377 0)
(0.0950807 0.000317397 0)
(0.094469 0.000310681 0)
(0.0938653 0.000304226 0)
(0.0932693 0.000298032 0)
(0.0926808 0.000292104 0)
(0.0920995 0.000286458 0)
(0.0915249 0.00028113 0)
(0.0909567 0.000276214 0)
(0.0903942 0.000271954 0)
(0.0898363 0.000269053 0)
(0.0892802 0.000269978 0)
(0.0887354 0.000288874 0)
(0.0879902 0.000370357 0)
(0.195195 0.00784035 0)
(0.196255 0.0088384 0)
(0.197381 0.00943391 0)
(0.1984 0.00974759 0)
(0.199268 0.0098537 0)
(0.199971 0.00978237 0)
(0.200481 0.00955993 0)
(0.200778 0.00921889 0)
(0.200853 0.00879305 0)
(0.200714 0.008314 0)
(0.200375 0.00780985 0)
(0.199857 0.00730415 0)
(0.199186 0.00681499 0)
(0.198385 0.00635474 0)
(0.197478 0.00593052 0)
(0.196486 0.00554516 0)
(0.195425 0.00519827 0)
(0.194311 0.00488743 0)
(0.193154 0.00460904 0)
(0.191963 0.00435912 0)
(0.190745 0.0041337 0)
(0.189504 0.00392918 0)
(0.188245 0.00374241 0)
(0.186971 0.00357075 0)
(0.185685 0.00341206 0)
(0.184388 0.00326458 0)
(0.183084 0.0031269 0)
(0.181775 0.00299791 0)
(0.180461 0.00287669 0)
(0.179145 0.00276248 0)
(0.177829 0.00265466 0)
(0.176513 0.0025527 0)
(0.1752 0.00245614 0)
(0.17389 0.00236458 0)
(0.172585 0.00227767 0)
(0.171286 0.00219509 0)
(0.169994 0.00211655 0)
(0.168709 0.00204179 0)
(0.167433 0.00197058 0)
(0.166166 0.00190269 0)
(0.164909 0.00183793 0)
(0.163663 0.00177611 0)
(0.162427 0.00171706 0)
(0.161203 0.00166063 0)
(0.159991 0.00160667 0)
(0.158791 0.00155504 0)
(0.157603 0.00150562 0)
(0.156428 0.00145828 0)
(0.155266 0.00141293 0)
(0.154117 0.00136945 0)
(0.152981 0.00132776 0)
(0.151859 0.00128775 0)
(0.150749 0.00124935 0)
(0.149653 0.00121248 0)
(0.148571 0.00117706 0)
(0.147502 0.00114302 0)
(0.146446 0.0011103 0)
(0.145403 0.00107883 0)
(0.144373 0.00104856 0)
(0.143357 0.00101942 0)
(0.142353 0.000991372 0)
(0.141362 0.00096436 0)
(0.140384 0.000938339 0)
(0.139419 0.000913263 0)
(0.138466 0.000889092 0)
(0.137525 0.000865785 0)
(0.136597 0.000843306 0)
(0.13568 0.000821618 0)
(0.134775 0.000800689 0)
(0.133882 0.000780486 0)
(0.133 0.00076098 0)
(0.13213 0.000742142 0)
(0.131271 0.000723945 0)
(0.130422 0.000706364 0)
(0.129585 0.000689376 0)
(0.128758 0.000672956 0)
(0.127941 0.000657085 0)
(0.127134 0.000641742 0)
(0.126338 0.000626907 0)
(0.125551 0.000612564 0)
(0.124773 0.000598695 0)
(0.124006 0.000585286 0)
(0.123247 0.000572321 0)
(0.122497 0.000559788 0)
(0.121757 0.000547674 0)
(0.121025 0.000535968 0)
(0.120301 0.000524661 0)
(0.119585 0.000513745 0)
(0.118878 0.000503214 0)
(0.118178 0.000493063 0)
(0.117486 0.000483294 0)
(0.116801 0.000473914 0)
(0.116124 0.000464944 0)
(0.115453 0.000456438 0)
(0.114788 0.000448521 0)
(0.11413 0.000441525 0)
(0.113476 0.000436396 0)
(0.112826 0.000436359 0)
(0.112189 0.000455081 0)
(0.111385 0.000519978 0)
(0.195797 0.00740036 0)
(0.196689 0.008301 0)
(0.197695 0.00888643 0)
(0.198684 0.00922665 0)
(0.19961 0.00938039 0)
(0.200453 0.00937556 0)
(0.20119 0.00923385 0)
(0.201798 0.00898145 0)
(0.202263 0.00864662 0)
(0.202578 0.00825641 0)
(0.202747 0.00783535 0)
(0.202778 0.00740447 0)
(0.202685 0.00698052 0)
(0.202483 0.00657561 0)
(0.202185 0.00619736 0)
(0.201808 0.00584962 0)
(0.201364 0.00553327 0)
(0.200864 0.00524716 0)
(0.200316 0.00498889 0)
(0.199727 0.00475546 0)
(0.199103 0.00454372 0)
(0.198448 0.00435066 0)
(0.197764 0.0041736 0)
(0.197055 0.00401021 0)
(0.196321 0.00385855 0)
(0.195565 0.00371703 0)
(0.194789 0.00358435 0)
(0.193994 0.00345945 0)
(0.19318 0.00334148 0)
(0.192351 0.00322973 0)
(0.191506 0.00312362 0)
(0.190646 0.00302268 0)
(0.189774 0.00292647 0)
(0.188891 0.00283465 0)
(0.187996 0.00274689 0)
(0.187092 0.00266293 0)
(0.186179 0.00258251 0)
(0.185259 0.00250542 0)
(0.184332 0.00243145 0)
(0.1834 0.00236042 0)
(0.182462 0.00229217 0)
(0.181521 0.00222653 0)
(0.180576 0.00216338 0)
(0.179629 0.00210259 0)
(0.17868 0.00204403 0)
(0.177729 0.0019876 0)
(0.176778 0.00193319 0)
(0.175827 0.00188071 0)
(0.174877 0.00183007 0)
(0.173928 0.0017812 0)
(0.17298 0.001734 0)
(0.172035 0.00168841 0)
(0.171092 0.00164436 0)
(0.170152 0.00160179 0)
(0.169215 0.00156063 0)
(0.168282 0.00152083 0)
(0.167353 0.00148233 0)
(0.166428 0.00144508 0)
(0.165507 0.00140904 0)
(0.164591 0.00137415 0)
(0.163681 0.00134037 0)
(0.162775 0.00130766 0)
(0.161875 0.00127598 0)
(0.16098 0.0012453 0)
(0.160091 0.00121557 0)
(0.159208 0.00118676 0)
(0.158331 0.00115883 0)
(0.15746 0.00113177 0)
(0.156595 0.00110552 0)
(0.155737 0.00108008 0)
(0.154884 0.0010554 0)
(0.154039 0.00103147 0)
(0.153199 0.00100826 0)
(0.152366 0.000985738 0)
(0.15154 0.000963891 0)
(0.15072 0.000942695 0)
(0.149906 0.000922129 0)
(0.149099 0.000902174 0)
(0.148299 0.000882811 0)
(0.147505 0.000864025 0)
(0.146717 0.000845797 0)
(0.145936 0.000828114 0)
(0.145161 0.000810961 0)
(0.144393 0.000794326 0)
(0.14363 0.000778196 0)
(0.142874 0.000762561 0)
(0.142124 0.000747412 0)
(0.14138 0.000732742 0)
(0.140642 0.000718546 0)
(0.13991 0.000704821 0)
(0.139184 0.000691571 0)
(0.138463 0.000678807 0)
(0.137748 0.000666558 0)
(0.137037 0.00065489 0)
(0.136332 0.000643959 0)
(0.135632 0.000634156 0)
(0.134935 0.00062656 0)
(0.134243 0.000624504 0)
(0.133568 0.0006387 0)
(0.13275 0.000679807 0)
(0.196322 0.00702247 0)
(0.197077 0.00782581 0)
(0.197952 0.00838463 0)
(0.198848 0.00873225 0)
(0.199719 0.0089106 0)
(0.200542 0.00894469 0)
(0.201299 0.00885389 0)
(0.20197 0.00866051 0)
(0.202541 0.00838892 0)
(0.203006 0.00806278 0)
(0.203364 0.00770369 0)
(0.20362 0.00733038 0)
(0.20378 0.00695811 0)
(0.203856 0.00659828 0)
(0.203857 0.00625854 0)
(0.203794 0.00594322 0)
(0.203678 0.005654 0)
(0.203516 0.00539061 0)
(0.203315 0.00515155 0)
(0.203081 0.00493457 0)
(0.202817 0.00473718 0)
(0.202526 0.00455686 0)
(0.202211 0.0043913 0)
(0.201873 0.00423843 0)
(0.201514 0.00409648 0)
(0.201134 0.00396398 0)
(0.200734 0.00383968 0)
(0.200315 0.00372259 0)
(0.199877 0.00361188 0)
(0.199421 0.00350687 0)
(0.198947 0.00340699 0)
(0.198457 0.00331176 0)
(0.197951 0.00322078 0)
(0.197429 0.00313372 0)
(0.196892 0.00305026 0)
(0.19634 0.00297015 0)
(0.195775 0.00289315 0)
(0.195196 0.00281906 0)
(0.194605 0.00274769 0)
(0.194002 0.00267887 0)
(0.193387 0.00261246 0)
(0.192761 0.00254832 0)
(0.192125 0.00248632 0)
(0.19148 0.00242636 0)
(0.190825 0.00236832 0)
(0.190162 0.00231213 0)
(0.18949 0.00225768 0)
(0.188811 0.00220489 0)
(0.188125 0.00215371 0)
(0.187433 0.00210405 0)
(0.186734 0.00205585 0)
(0.18603 0.00200906 0)
(0.185321 0.00196361 0)
(0.184607 0.00191946 0)
(0.183889 0.00187656 0)
(0.183166 0.00183486 0)
(0.182441 0.00179432 0)
(0.181712 0.0017549 0)
(0.180981 0.00171656 0)
(0.180247 0.00167927 0)
(0.179512 0.00164298 0)
(0.178775 0.00160767 0)
(0.178036 0.0015733 0)
(0.177296 0.00153985 0)
(0.176556 0.00150729 0)
(0.175815 0.00147559 0)
(0.175074 0.00144472 0)
(0.174333 0.00141466 0)
(0.173593 0.00138539 0)
(0.172852 0.00135688 0)
(0.172113 0.00132911 0)
(0.171374 0.00130206 0)
(0.170637 0.00127572 0)
(0.169901 0.00125005 0)
(0.169166 0.00122506 0)
(0.168433 0.00120071 0)
(0.167701 0.00117699 0)
(0.166972 0.00115388 0)
(0.166245 0.00113138 0)
(0.165519 0.00110946 0)
(0.164796 0.00108812 0)
(0.164075 0.00106735 0)
(0.163357 0.00104712 0)
(0.162641 0.00102744 0)
(0.161928 0.00100829 0)
(0.161217 0.00098967 0)
(0.160509 0.000971567 0)
(0.159804 0.00095398 0)
(0.159102 0.000936907 0)
(0.158402 0.000920349 0)
(0.157705 0.000904313 0)
(0.15701 0.000888817 0)
(0.156318 0.000873897 0)
(0.155629 0.000859628 0)
(0.154942 0.000846185 0)
(0.154258 0.000833977 0)
(0.153576 0.000824058 0)
(0.152898 0.000819243 0)
(0.152238 0.000826194 0)
(0.151455 0.000841438 0)
(0.196785 0.00669522 0)
(0.197433 0.00740884 0)
(0.198194 0.00793232 0)
(0.198994 0.00827611 0)
(0.199789 0.00846763 0)
(0.200555 0.00852789 0)
(0.201273 0.00847406 0)
(0.201927 0.00832523 0)
(0.202505 0.00810237 0)
(0.203001 0.00782622 0)
(0.203413 0.00751594 0)
(0.203743 0.00718833 0)
(0.203999 0.00685733 0)
(0.204186 0.00653369 0)
(0.204315 0.00622492 0)
(0.204393 0.00593566 0)
(0.204429 0.00566818 0)
(0.204429 0.00542292 0)
(0.204399 0.00519906 0)
(0.204344 0.00499504 0)
(0.204268 0.00480891 0)
(0.204173 0.00463862 0)
(0.20406 0.00448217 0)
(0.203931 0.00433776 0)
(0.203787 0.00420379 0)
(0.203628 0.00407888 0)
(0.203455 0.00396189 0)
(0.203268 0.00385184 0)
(0.203066 0.00374793 0)
(0.202851 0.00364949 0)
(0.202623 0.00355595 0)
(0.20238 0.00346685 0)
(0.202125 0.00338176 0)
(0.201856 0.00330035 0)
(0.201573 0.00322231 0)
(0.201279 0.00314738 0)
(0.200971 0.00307532 0)
(0.200651 0.00300592 0)
(0.200318 0.00293901 0)
(0.199973 0.00287441 0)
(0.199617 0.00281197 0)
(0.199249 0.00275157 0)
(0.19887 0.00269308 0)
(0.198479 0.00263639 0)
(0.198078 0.00258141 0)
(0.197666 0.00252803 0)
(0.197244 0.00247618 0)
(0.196812 0.00242579 0)
(0.196371 0.00237678 0)
(0.19592 0.00232909 0)
(0.19546 0.00228267 0)
(0.194991 0.00223745 0)
(0.194513 0.0021934 0)
(0.194028 0.00215045 0)
(0.193534 0.00210858 0)
(0.193033 0.00206774 0)
(0.192525 0.0020279 0)
(0.19201 0.00198901 0)
(0.191488 0.00195106 0)
(0.190959 0.001914 0)
(0.190425 0.00187781 0)
(0.189884 0.00184246 0)
(0.189338 0.00180793 0)
(0.188787 0.00177419 0)
(0.18823 0.00174122 0)
(0.187669 0.001709 0)
(0.187103 0.00167751 0)
(0.186533 0.00164674 0)
(0.185959 0.00161665 0)
(0.185381 0.00158724 0)
(0.184799 0.00155848 0)
(0.184214 0.00153037 0)
(0.183626 0.00150289 0)
(0.183035 0.00147602 0)
(0.182441 0.00144975 0)
(0.181845 0.00142407 0)
(0.181247 0.00139896 0)
(0.180646 0.00137443 0)
(0.180043 0.00135044 0)
(0.179438 0.00132701 0)
(0.178832 0.00130411 0)
(0.178224 0.00128173 0)
(0.177615 0.00125989 0)
(0.177005 0.00123856 0)
(0.176394 0.00121774 0)
(0.175781 0.00119743 0)
(0.175168 0.00117762 0)
(0.174554 0.00115832 0)
(0.17394 0.00113953 0)
(0.173324 0.00112125 0)
(0.172709 0.0011035 0)
(0.172093 0.0010863 0)
(0.171476 0.00106969 0)
(0.170859 0.00105375 0)
(0.170242 0.00103865 0)
(0.169624 0.00102478 0)
(0.169007 0.00101302 0)
(0.168392 0.00100525 0)
(0.167794 0.00100406 0)
(0.167089 0.000995682 0)
(0.197195 0.00640606 0)
(0.19776 0.00703933 0)
(0.198426 0.00752376 0)
(0.199139 0.00785706 0)
(0.199859 0.00805529 0)
(0.200563 0.00813478 0)
(0.20123 0.00811023 0)
(0.201847 0.0079978 0)
(0.202402 0.00781537 0)
(0.20289 0.00758107 0)
(0.203307 0.00731186 0)
(0.203656 0.00702285 0)
(0.203942 0.00672681 0)
(0.20417 0.0064338 0)
(0.204349 0.00615118 0)
(0.204485 0.00588379 0)
(0.204585 0.00563432 0)
(0.204656 0.00540378 0)
(0.204703 0.00519198 0)
(0.20473 0.00499794 0)
(0.204741 0.00482021 0)
(0.204739 0.00465716 0)
(0.204724 0.00450715 0)
(0.204699 0.0043686 0)
(0.204663 0.00424011 0)
(0.204618 0.00412043 0)
(0.204565 0.00400849 0)
(0.204502 0.00390337 0)
(0.20443 0.00380431 0)
(0.20435 0.00371065 0)
(0.204261 0.00362183 0)
(0.204163 0.00353738 0)
(0.204056 0.0034569 0)
(0.20394 0.00338002 0)
(0.203815 0.00330645 0)
(0.203681 0.00323591 0)
(0.203538 0.00316817 0)
(0.203385 0.00310301 0)
(0.203224 0.00304024 0)
(0.203053 0.00297969 0)
(0.202873 0.00292121 0)
(0.202684 0.00286466 0)
(0.202485 0.00280992 0)
(0.202278 0.00275687 0)
(0.202061 0.00270541 0)
(0.201835 0.00265545 0)
(0.201601 0.0026069 0)
(0.201357 0.00255969 0)
(0.201105 0.00251374 0)
(0.200843 0.00246899 0)
(0.200573 0.00242539 0)
(0.200295 0.00238287 0)
(0.200007 0.00234139 0)
(0.199712 0.0023009 0)
(0.199408 0.00226136 0)
(0.199096 0.00222272 0)
(0.198776 0.00218497 0)
(0.198449 0.00214805 0)
(0.198113 0.00211194 0)
(0.19777 0.00207661 0)
(0.19742 0.00204204 0)
(0.197062 0.0020082 0)
(0.196697 0.00197506 0)
(0.196325 0.0019426 0)
(0.195946 0.00191081 0)
(0.195561 0.00187967 0)
(0.195169 0.00184915 0)
(0.194771 0.00181924 0)
(0.194366 0.00178993 0)
(0.193956 0.0017612 0)
(0.19354 0.00173303 0)
(0.193118 0.00170542 0)
(0.19269 0.00167835 0)
(0.192258 0.00165182 0)
(0.19182 0.0016258 0)
(0.191376 0.0016003 0)
(0.190929 0.0015753 0)
(0.190476 0.00155079 0)
(0.190019 0.00152677 0)
(0.189557 0.00150324 0)
(0.189091 0.00148018 0)
(0.188621 0.00145759 0)
(0.188146 0.00143547 0)
(0.187668 0.00141382 0)
(0.187186 0.00139263 0)
(0.186701 0.0013719 0)
(0.186212 0.00135164 0)
(0.185719 0.00133185 0)
(0.185223 0.00131253 0)
(0.184724 0.0012937 0)
(0.184222 0.00127536 0)
(0.183716 0.00125755 0)
(0.183208 0.00124031 0)
(0.182697 0.00122373 0)
(0.182183 0.00120794 0)
(0.181666 0.00119328 0)
(0.181148 0.00118033 0)
(0.180631 0.00116993 0)
(0.180127 0.00116126 0)
(0.17953 0.00113452 0)
(0.197559 0.00614616 0)
(0.198058 0.00670891 0)
(0.198645 0.00715398 0)
(0.199281 0.00747274 0)
(0.199934 0.00767304 0)
(0.200578 0.00776665 0)
(0.201196 0.0077657 0)
(0.201772 0.00768372 0)
(0.202297 0.00753591 0)
(0.202765 0.00733791 0)
(0.203173 0.00710472 0)
(0.203522 0.00684985 0)
(0.203815 0.00658494 0)
(0.204057 0.00631938 0)
(0.204255 0.00606028 0)
(0.204414 0.00581255 0)
(0.204542 0.0055792 0)
(0.204644 0.00536171 0)
(0.204724 0.0051604 0)
(0.204788 0.00497479 0)
(0.204838 0.00480389 0)
(0.204876 0.00464649 0)
(0.204905 0.00450125 0)
(0.204927 0.00436685 0)
(0.204941 0.00424208 0)
(0.20495 0.00412583 0)
(0.204952 0.00401713 0)
(0.20495 0.00391515 0)
(0.204942 0.00381914 0)
(0.204928 0.00372849 0)
(0.20491 0.00364267 0)
(0.204886 0.0035612 0)
(0.204857 0.0034837 0)
(0.204823 0.00340981 0)
(0.204783 0.00333923 0)
(0.204738 0.00327168 0)
(0.204687 0.00320694 0)
(0.204631 0.00314477 0)
(0.204569 0.00308499 0)
(0.204501 0.00302743 0)
(0.204427 0.00297194 0)
(0.204347 0.00291835 0)
(0.20426 0.00286656 0)
(0.204168 0.00281645 0)
(0.204069 0.0027679 0)
(0.203964 0.00272082 0)
(0.203852 0.00267512 0)
(0.203734 0.00263073 0)
(0.203609 0.00258756 0)
(0.203478 0.00254555 0)
(0.20334 0.00250464 0)
(0.203195 0.00246477 0)
(0.203044 0.00242588 0)
(0.202885 0.00238794 0)
(0.20272 0.00235088 0)
(0.202549 0.00231468 0)
(0.20237 0.0022793 0)
(0.202185 0.0022447 0)
(0.201993 0.00221084 0)
(0.201794 0.0021777 0)
(0.201589 0.00214525 0)
(0.201377 0.00211346 0)
(0.201158 0.00208231 0)
(0.200932 0.00205177 0)
(0.200701 0.00202183 0)
(0.200462 0.00199247 0)
(0.200217 0.00196367 0)
(0.199966 0.00193541 0)
(0.199708 0.00190767 0)
(0.199444 0.00188045 0)
(0.199174 0.00185373 0)
(0.198897 0.00182749 0)
(0.198615 0.00180173 0)
(0.198326 0.00177644 0)
(0.198032 0.0017516 0)
(0.197732 0.00172721 0)
(0.197426 0.00170326 0)
(0.197114 0.00167975 0)
(0.196796 0.00165666 0)
(0.196473 0.00163399 0)
(0.196145 0.00161175 0)
(0.195811 0.00158992 0)
(0.195472 0.0015685 0)
(0.195128 0.0015475 0)
(0.194779 0.00152691 0)
(0.194424 0.00150673 0)
(0.194065 0.00148698 0)
(0.1937 0.00146765 0)
(0.193331 0.00144875 0)
(0.192957 0.0014303 0)
(0.192579 0.00141231 0)
(0.192195 0.00139482 0)
(0.191807 0.00137785 0)
(0.191415 0.0013615 0)
(0.191018 0.00134587 0)
(0.190617 0.00133119 0)
(0.190213 0.00131772 0)
(0.189809 0.00130535 0)
(0.189414 0.00129089 0)
(0.188938 0.00125248 0)
(0.197884 0.00590947 0)
(0.198329 0.00641091 0)
(0.198851 0.00681815 0)
(0.199421 0.00712 0)
(0.200012 0.00731877 0)
(0.200602 0.00742233 0)
(0.201172 0.00744032 0)
(0.201709 0.00738395 0)
(0.202203 0.00726601 0)
(0.202649 0.00709994 0)
(0.203043 0.00689885 0)
(0.203385 0.00667479 0)
(0.203677 0.00643828 0)
(0.203924 0.00619805 0)
(0.20413 0.00596086 0)
(0.204301 0.00573162 0)
(0.204442 0.00551353 0)
(0.204559 0.00530843 0)
(0.204656 0.00511706 0)
(0.204736 0.00493936 0)
(0.204804 0.00477478 0)
(0.204861 0.00462242 0)
(0.20491 0.00448128 0)
(0.204953 0.00435028 0)
(0.204989 0.0042284 0)
(0.205021 0.00411467 0)
(0.205049 0.00400823 0)
(0.205073 0.00390832 0)
(0.205094 0.00381427 0)
(0.205111 0.0037255 0)
(0.205125 0.00364151 0)
(0.205136 0.00356185 0)
(0.205144 0.00348614 0)
(0.205149 0.00341404 0)
(0.205151 0.00334525 0)
(0.20515 0.00327951 0)
(0.205146 0.00321659 0)
(0.205139 0.00315626 0)
(0.205129 0.00309835 0)
(0.205115 0.00304267 0)
(0.205098 0.00298907 0)
(0.205077 0.00293741 0)
(0.205052 0.00288757 0)
(0.205024 0.00283941 0)
(0.204993 0.00279284 0)
(0.204957 0.00274776 0)
(0.204917 0.00270407 0)
(0.204874 0.0026617 0)
(0.204826 0.00262056 0)
(0.204774 0.00258059 0)
(0.204717 0.00254171 0)
(0.204656 0.00250388 0)
(0.204591 0.00246704 0)
(0.204521 0.00243113 0)
(0.204446 0.00239611 0)
(0.204367 0.00236193 0)
(0.204283 0.00232856 0)
(0.204193 0.00229596 0)
(0.204099 0.00226408 0)
(0.204 0.00223291 0)
(0.203896 0.0022024 0)
(0.203787 0.00217254 0)
(0.203672 0.00214329 0)
(0.203553 0.00211464 0)
(0.203428 0.00208655 0)
(0.203298 0.00205901 0)
(0.203163 0.002032 0)
(0.203022 0.00200551 0)
(0.202876 0.0019795 0)
(0.202725 0.00195398 0)
(0.202568 0.00192892 0)
(0.202406 0.00190431 0)
(0.202238 0.00188014 0)
(0.202066 0.0018564 0)
(0.201887 0.00183308 0)
(0.201704 0.00181017 0)
(0.201515 0.00178766 0)
(0.20132 0.00176555 0)
(0.201121 0.00174382 0)
(0.200916 0.00172248 0)
(0.200705 0.00170152 0)
(0.200489 0.00168094 0)
(0.200268 0.00166074 0)
(0.200042 0.00164091 0)
(0.19981 0.00162146 0)
(0.199573 0.00160239 0)
(0.199331 0.00158371 0)
(0.199084 0.00156541 0)
(0.198831 0.00154752 0)
(0.198573 0.00153004 0)
(0.198311 0.001513 0)
(0.198042 0.00149641 0)
(0.197769 0.00148032 0)
(0.197491 0.00146479 0)
(0.197208 0.00144989 0)
(0.19692 0.00143574 0)
(0.196628 0.0014223 0)
(0.196336 0.00140873 0)
(0.196048 0.0013906 0)
(0.195691 0.00134714 0)
(0.198176 0.00569164 0)
(0.198577 0.00613995 0)
(0.199044 0.00651183 0)
(0.199556 0.00679562 0)
(0.200092 0.00699021 0)
(0.200632 0.00710032 0)
(0.201158 0.00713333 0)
(0.201658 0.00709842 0)
(0.202123 0.00700624 0)
(0.202546 0.00686825 0)
(0.202924 0.00669585 0)
(0.203257 0.00649971 0)
(0.203546 0.0062893 0)
(0.203793 0.00607264 0)
(0.204003 0.00585613 0)
(0.20418 0.00564456 0)
(0.20433 0.00544126 0)
(0.204455 0.00524831 0)
(0.204562 0.00506677 0)
(0.204652 0.00489697 0)
(0.20473 0.00473869 0)
(0.204798 0.00459136 0)
(0.204857 0.00445424 0)
(0.20491 0.0043265 0)
(0.204957 0.00420728 0)
(0.205 0.00409578 0)
(0.205039 0.00399124 0)
(0.205075 0.00389299 0)
(0.205108 0.00380043 0)
(0.205139 0.00371301 0)
(0.205168 0.00363027 0)
(0.205194 0.00355179 0)
(0.205219 0.00347721 0)
(0.205242 0.00340622 0)
(0.205263 0.00333851 0)
(0.205282 0.00327384 0)
(0.2053 0.00321198 0)
(0.205315 0.00315273 0)
(0.205329 0.00309589 0)
(0.205342 0.00304131 0)
(0.205352 0.00298882 0)
(0.205361 0.00293828 0)
(0.205367 0.00288958 0)
(0.205372 0.0028426 0)
(0.205375 0.00279722 0)
(0.205375 0.00275334 0)
(0.205374 0.00271089 0)
(0.20537 0.00266977 0)
(0.205363 0.00262991 0)
(0.205355 0.00259124 0)
(0.205344 0.0025537 0)
(0.20533 0.00251721 0)
(0.205314 0.00248173 0)
(0.205295 0.0024472 0)
(0.205273 0.00241358 0)
(0.205248 0.00238082 0)
(0.205221 0.00234888 0)
(0.20519 0.00231772 0)
(0.205156 0.0022873 0)
(0.205119 0.00225759 0)
(0.205078 0.00222856 0)
(0.205034 0.00220018 0)
(0.204987 0.00217241 0)
(0.204936 0.00214525 0)
(0.204882 0.00211865 0)
(0.204824 0.0020926 0)
(0.204762 0.00206708 0)
(0.204696 0.00204207 0)
(0.204627 0.00201756 0)
(0.204553 0.00199351 0)
(0.204476 0.00196992 0)
(0.204395 0.00194678 0)
(0.204309 0.00192407 0)
(0.204219 0.00190178 0)
(0.204126 0.0018799 0)
(0.204027 0.00185841 0)
(0.203925 0.00183732 0)
(0.203818 0.0018166 0)
(0.203707 0.00179626 0)
(0.203592 0.00177629 0)
(0.203472 0.00175669 0)
(0.203348 0.00173745 0)
(0.203219 0.00171857 0)
(0.203085 0.00170005 0)
(0.202947 0.00168189 0)
(0.202804 0.00166409 0)
(0.202657 0.00164666 0)
(0.202505 0.00162961 0)
(0.202348 0.00161294 0)
(0.202187 0.00159667 0)
(0.202021 0.00158081 0)
(0.20185 0.00156539 0)
(0.201674 0.00155044 0)
(0.201493 0.00153601 0)
(0.201308 0.00152213 0)
(0.201118 0.0015088 0)
(0.200925 0.00149575 0)
(0.200729 0.00148171 0)
(0.200535 0.00146192 0)
(0.200285 0.00141885 0)