/*--------------------------------*- C++ -*----------------------------------*\
| =========                 |                                                 |
| \\      /  F ield         | OpenFOAM: The Open Source CFD Toolbox           |
|  \\    /   O peration     | Version:  2.3.0                                 |
|   \\  /    A nd           | Web:      www.OpenFOAM.org                      |
|    \\/     M anipulation  |                                                 |
\*---------------------------------------------------------------------------*/
FoamFile
{
    version     2.0;
    format      ascii;
    class       volScalarField;
    location    "0.85";
    object      p;
}
// * * * * * * * * * * * * * * * * * * * * * * * * * * * * * * * * * * * * * //

dimensions      [0 2 -2 0 0 0 0];

internalField   nonuniform List<scalar> 
2250
(
0.00158095
0.00129959
0.00106957
0.000917489
0.000802138
0.000698325
0.000600158
0.000507264
0.000419003
0.000334442
0.000253032
0.000174682
9.95774e-05
2.80416e-05
-3.95252e-05
-0.000102683
-0.000160989
-0.000214031
-0.00026146
-0.000303015
-0.000338542
-0.000368007
-0.000391501
-0.000409235
-0.00042153
-0.000428801
-0.000431539
-0.000430285
-0.000425605
-0.000418071
-0.000408239
-0.000396633
-0.000383728
-0.00036995
-0.000355663
-0.000341172
-0.000326726
-0.000312519
-0.000298697
-0.000285364
-0.000272589
-0.00026041
-0.000248844
-0.000237891
-0.000227536
-0.000217756
-0.000208522
-0.000199802
-0.000191564
-0.000183776
-0.000176404
-0.000169422
-0.0001628
-0.000156515
-0.000150544
-0.000144867
-0.000139466
-0.000134325
-0.00012943
-0.000124766
-0.000120323
-0.000116088
-0.000112051
-0.000108202
-0.000104532
-0.000101031
-9.76906e-05
-9.45019e-05
-9.14561e-05
-8.85447e-05
-8.57591e-05
-8.30908e-05
-8.05311e-05
-7.80715e-05
-7.5703e-05
-7.34169e-05
-7.12043e-05
-6.90558e-05
-6.69622e-05
-6.49139e-05
-6.2901e-05
-6.09133e-05
-5.89399e-05
-5.69699e-05
-5.49915e-05
-5.29923e-05
-5.09591e-05
-4.88779e-05
-4.6733e-05
-4.45081e-05
-4.21844e-05
-3.97414e-05
-3.71553e-05
-3.43981e-05
-3.14355e-05
-2.82232e-05
-2.46991e-05
-2.07557e-05
-1.62289e-05
-1.23427e-05
0.00129024
0.00113819
0.000992775
0.000879474
0.000783417
0.000691734
0.000601748
0.000514213
0.000429453
0.000347259
0.000267504
0.000190332
0.000116065
4.51116e-05
-2.20757e-05
-8.50248e-05
-0.000143271
-0.000196388
-0.000244012
-0.000285872
-0.000321802
-0.000351756
-0.000375811
-0.000394164
-0.000407125
-0.000415096
-0.000418555
-0.000418032
-0.000414082
-0.00040727
-0.000398144
-0.000387221
-0.000374973
-0.000361821
-0.000348125
-0.000334191
-0.000320265
-0.000306541
-0.000293166
-0.000280243
-0.000267844
-0.000256009
-0.000244757
-0.000234088
-0.000223991
-0.000214446
-0.000205426
-0.000196902
-0.000188842
-0.000181215
-0.000173993
-0.000167146
-0.00016065
-0.00015448
-0.000148615
-0.000143036
-0.000137726
-0.000132669
-0.000127851
-0.000123261
-0.000118885
-0.000114713
-0.000110735
-0.000106941
-0.000103323
-9.98711e-05
-9.65765e-05
-9.3431e-05
-9.04261e-05
-8.75533e-05
-8.48043e-05
-8.21708e-05
-7.96442e-05
-7.7216e-05
-7.48775e-05
-7.26202e-05
-7.0435e-05
-6.83128e-05
-6.62446e-05
-6.42206e-05
-6.22311e-05
-6.02659e-05
-5.83143e-05
-5.63654e-05
-5.44074e-05
-5.2428e-05
-5.0414e-05
-4.83514e-05
-4.62247e-05
-4.40175e-05
-4.17112e-05
-3.92851e-05
-3.67154e-05
-3.39743e-05
-3.10272e-05
-2.78293e-05
-2.43181e-05
-2.03723e-05
-1.57059e-05
-1.30098e-05
0.00114039
0.00105272
0.000945497
0.000844658
0.000752509
0.000664565
0.00057895
0.000495878
0.000415585
0.000337928
0.000262747
0.000190074
0.000120111
5.31629e-05
-1.04013e-05
-7.01779e-05
-0.000125754
-0.000176734
-0.000222772
-0.000263591
-0.000299003
-0.000328926
-0.000353385
-0.000372516
-0.000386559
-0.000395844
-0.000400777
-0.000401819
-0.000399466
-0.000394229
-0.000386611
-0.000377098
-0.000366137
-0.000354137
-0.000341455
-0.000328396
-0.000315213
-0.000302112
-0.000289252
-0.000276752
-0.000264696
-0.000253139
-0.000242111
-0.000231625
-0.000221676
-0.000212252
-0.000203334
-0.000194897
-0.000186914
-0.000179357
-0.0001722
-0.000165415
-0.000158979
-0.000152867
-0.00014706
-0.000141538
-0.000136284
-0.000131283
-0.00012652
-0.000121983
-0.000117659
-0.000113538
-0.00010961
-0.000105865
-0.000102293
-9.88852e-05
-9.56336e-05
-9.25293e-05
-8.95638e-05
-8.67287e-05
-8.40158e-05
-8.14167e-05
-7.89229e-05
-7.65259e-05
-7.42172e-05
-7.19882e-05
-6.98299e-05
-6.77334e-05
-6.56895e-05
-6.36888e-05
-6.17214e-05
-5.97772e-05
-5.78457e-05
-5.59159e-05
-5.39762e-05
-5.20142e-05
-5.00168e-05
-4.79702e-05
-4.58588e-05
-4.36663e-05
-4.13743e-05
-3.89622e-05
-3.64066e-05
-3.36802e-05
-3.07498e-05
-2.75737e-05
-2.40968e-05
-2.02285e-05
-1.5999e-05
-1.58202e-05
0.000993412
0.000934551
0.000855253
0.000773343
0.000694683
0.000618436
0.000543425
0.000469648
0.000397425
0.000326909
0.000258173
0.000191369
0.000126758
6.46711e-05
5.47906e-06
-5.04261e-05
-0.000102652
-0.000150827
-0.00019462
-0.000233761
-0.000268059
-0.00029741
-0.000321804
-0.000341331
-0.00035617
-0.000366588
-0.000372919
-0.000375555
-0.000374925
-0.000371475
-0.000365659
-0.000357913
-0.000348654
-0.00033826
-0.000327073
-0.000315386
-0.000303451
-0.000291473
-0.000279616
-0.000268006
-0.000256736
-0.000245872
-0.000235453
-0.000225501
-0.000216024
-0.000207017
-0.000198467
-0.000190359
-0.00018267
-0.000175377
-0.000168459
-0.000161891
-0.000155653
-0.000149723
-0.000144083
-0.000138716
-0.000133605
-0.000128736
-0.000124097
-0.000119674
-0.000115458
-0.000111437
-0.000107602
-0.000103944
-0.000100455
-9.71244e-05
-9.39453e-05
-9.09092e-05
-8.8008e-05
-8.52336e-05
-8.2578e-05
-8.00331e-05
-7.75908e-05
-7.52426e-05
-7.29804e-05
-7.07956e-05
-6.86796e-05
-6.66235e-05
-6.46182e-05
-6.26545e-05
-6.07227e-05
-5.88128e-05
-5.69143e-05
-5.50163e-05
-5.31074e-05
-5.11753e-05
-4.92069e-05
-4.71886e-05
-4.51051e-05
-4.29402e-05
-4.06758e-05
-3.82921e-05
-3.57667e-05
-3.30744e-05
-3.01865e-05
-2.70727e-05
-2.37094e-05
-2.01272e-05
-1.69333e-05
-1.99338e-05
0.000867712
0.000827373
0.000771109
0.000708059
0.000643143
0.000577603
0.000511616
0.000445613
0.000380172
0.000315739
0.000252622
0.000191099
0.000131478
7.40926e-05
1.92912e-05
-3.25738e-05
-8.11579e-05
-0.000126137
-0.000167225
-0.000204184
-0.00023684
-0.000265092
-0.000288918
-0.000308377
-0.000323605
-0.000334812
-0.00034227
-0.000346302
-0.000347266
-0.000345545
-0.000341527
-0.000335596
-0.000328122
-0.000319447
-0.000309884
-0.000299708
-0.000289159
-0.000278437
-0.000267708
-0.000257102
-0.000246721
-0.000236639
-0.000226909
-0.000217562
-0.000208617
-0.00020008
-0.000191948
-0.000184212
-0.000176858
-0.00016987
-0.000163229
-0.000156917
-0.000150916
-0.000145208
-0.000139775
-0.000134604
-0.000129678
-0.000124984
-0.000120511
-0.000116247
-0.00011218
-0.000108302
-0.000104602
-0.000101072
-9.77043e-05
-9.44893e-05
-9.14193e-05
-8.84866e-05
-8.56832e-05
-8.30015e-05
-8.04336e-05
-7.79716e-05
-7.56078e-05
-7.3334e-05
-7.11423e-05
-6.90244e-05
-6.69718e-05
-6.49761e-05
-6.30282e-05
-6.11192e-05
-5.92396e-05
-5.73796e-05
-5.55289e-05
-5.36768e-05
-5.18121e-05
-4.99227e-05
-4.79957e-05
-4.60178e-05
-4.39741e-05
-4.18488e-05
-3.96248e-05
-3.72833e-05
-3.48045e-05
-3.21676e-05
-2.93541e-05
-2.63572e-05
-2.32174e-05
-2.01629e-05
-1.8364e-05
-2.40089e-05
0.000758305
0.000728854
0.000687545
0.000638488
0.000585068
0.00052925
0.000472027
0.000414102
0.000356111
0.000298575
0.000241898
0.00018642
0.00013247
8.03788e-05
3.04795e-05
-1.69019e-05
-6.14512e-05
-0.000102876
-0.000140918
-0.00017536
-0.00020604
-0.000232856
-0.000255771
-0.000274818
-0.000290094
-0.000301761
-0.000310033
-0.000315171
-0.000317472
-0.000317255
-0.000314849
-0.000310587
-0.00030479
-0.000297763
-0.000289787
-0.000281117
-0.000271976
-0.000262556
-0.000253019
-0.000243497
-0.000234094
-0.000224893
-0.000215951
-0.000207312
-0.000199001
-0.000191034
-0.000183416
-0.000176145
-0.000169214
-0.000162613
-0.000156327
-0.000150344
-0.000144648
-0.000139225
-0.00013406
-0.000129139
-0.00012445
-0.00011998
-0.000115718
-0.000111654
-0.000107777
-0.000104079
-0.00010055
-9.71817e-05
-9.39669e-05
-9.08973e-05
-8.79654e-05
-8.51635e-05
-8.24842e-05
-7.99202e-05
-7.74641e-05
-7.51083e-05
-7.28453e-05
-7.06674e-05
-6.85669e-05
-6.65359e-05
-6.45663e-05
-6.26496e-05
-6.07775e-05
-5.89409e-05
-5.71308e-05
-5.53375e-05
-5.35512e-05
-5.17611e-05
-4.99565e-05
-4.81255e-05
-4.62557e-05
-4.43339e-05
-4.23461e-05
-4.02772e-05
-3.81113e-05
-3.58321e-05
-3.34236e-05
-3.08727e-05
-2.81767e-05
-2.53642e-05
-2.25587e-05
-2.01792e-05
-1.96718e-05
-2.64236e-05
0.000660951
0.000638186
0.000606877
0.000568646
0.000525459
0.000479036
0.000430533
0.000380739
0.000330293
0.000279744
0.000229553
0.000180121
0.000131811
8.49674e-05
3.99217e-05
-3.01177e-06
-4.35383e-05
-8.13884e-05
-0.000116325
-0.000148149
-0.000176708
-0.000201903
-0.000223689
-0.000242076
-0.000257132
-0.000268979
-0.000277784
-0.000283757
-0.000287137
-0.000288188
-0.000287188
-0.000284416
-0.000280151
-0.000274659
-0.000268189
-0.000260971
-0.000253208
-0.000245082
-0.000236745
-0.000228327
-0.000219933
-0.000211649
-0.000203538
-0.000195649
-0.000188016
-0.000180661
-0.000173598
-0.00016683
-0.000160359
-0.000154178
-0.00014828
-0.000142656
-0.000137294
-0.000132182
-0.00012731
-0.000122665
-0.000118236
-0.000114012
-0.000109984
-0.000106142
-0.000102477
-9.8979e-05
-9.56412e-05
-9.24555e-05
-8.9414e-05
-8.65094e-05
-8.37345e-05
-8.10822e-05
-7.85453e-05
-7.61168e-05
-7.37897e-05
-7.15568e-05
-6.9411e-05
-6.73448e-05
-6.5351e-05
-6.34218e-05
-6.15495e-05
-5.97261e-05
-5.79433e-05
-5.61926e-05
-5.44651e-05
-5.27515e-05
-5.10422e-05
-4.93268e-05
-4.75948e-05
-4.58348e-05
-4.40347e-05
-4.21822e-05
-4.02638e-05
-3.82657e-05
-3.61741e-05
-3.39755e-05
-3.16596e-05
-2.92233e-05
-2.66834e-05
-2.41067e-05
-2.1688e-05
-1.99431e-05
-2.02085e-05
-2.62869e-05
0.00057255
0.000554363
0.000530097
0.000500153
0.000465498
0.000427373
0.000386814
0.000344594
0.000301334
0.000257575
0.000213793
0.000170404
0.000127783
8.62721e-05
4.61904e-05
7.83454e-06
-2.85221e-05
-6.26327e-05
-9.42804e-05
-0.000123284
-0.0001495
-0.000172832
-0.000193225
-0.000210676
-0.000225225
-0.000236959
-0.000246006
-0.000252527
-0.000256715
-0.000258781
-0.000258955
-0.000257469
-0.000254559
-0.000250454
-0.00024537
-0.00023951
-0.000233059
-0.000226182
-0.000219021
-0.000211701
-0.000204325
-0.000196978
-0.000189727
-0.000182626
-0.000175712
-0.000169015
-0.000162553
-0.000156337
-0.000150372
-0.000144659
-0.000139194
-0.000133972
-0.000128986
-0.000124226
-0.000119684
-0.00011535
-0.000111215
-0.00010727
-0.000103506
-9.99139e-05
-9.64861e-05
-9.32146e-05
-9.00918e-05
-8.71104e-05
-8.42632e-05
-8.15435e-05
-7.89443e-05
-7.64591e-05
-7.40813e-05
-7.18041e-05
-6.96209e-05
-6.7525e-05
-6.55096e-05
-6.35678e-05
-6.16925e-05
-5.98765e-05
-5.81124e-05
-5.63925e-05
-5.4709e-05
-5.30536e-05
-5.14177e-05
-4.97925e-05
-4.81686e-05
-4.65361e-05
-4.48848e-05
-4.32038e-05
-4.14817e-05
-3.97068e-05
-3.78667e-05
-3.59493e-05
-3.39431e-05
-3.18386e-05
-2.96317e-05
-2.73303e-05
-2.4969e-05
-2.26418e-05
-2.05722e-05
-1.92397e-05
-1.95852e-05
-2.36847e-05
0.000491156
0.000476371
0.000457281
0.000433712
0.000406045
0.000375106
0.000341719
0.000306546
0.000270138
0.000232982
0.000195519
0.000158147
0.000121222
8.50723e-05
4.99981e-05
1.62765e-05
-1.58395e-05
-4.61227e-05
-7.43736e-05
-0.000100424
-0.00012414
-0.000145425
-0.000164219
-0.000180503
-0.000194297
-0.000205659
-0.00021468
-0.000221484
-0.000226218
-0.000229052
-0.000230169
-0.00022976
-0.000228021
-0.000225144
-0.000221315
-0.00021671
-0.000211491
-0.000205807
-0.000199788
-0.00019355
-0.00018719
-0.000180792
-0.000174424
-0.000168139
-0.00016198
-0.000155979
-0.00015016
-0.000144539
-0.000139124
-0.00013392
-0.00012893
-0.00012415
-0.000119577
-0.000115205
-0.000111027
-0.000107037
-0.000103227
-9.95893e-05
-9.61164e-05
-9.28011e-05
-8.9636e-05
-8.66142e-05
-8.37289e-05
-8.09734e-05
-7.83413e-05
-7.58262e-05
-7.34219e-05
-7.11222e-05
-6.89209e-05
-6.68119e-05
-6.4789e-05
-6.28458e-05
-6.09761e-05
-5.91732e-05
-5.74307e-05
-5.57417e-05
-5.40992e-05
-5.24959e-05
-5.09243e-05
-4.93766e-05
-4.78446e-05
-4.63198e-05
-4.47933e-05
-4.32556e-05
-4.1697e-05
-4.01071e-05
-3.84754e-05
-3.67908e-05
-3.50424e-05
-3.322e-05
-3.13147e-05
-2.93213e-05
-2.7242e-05
-2.50932e-05
-2.29194e-05
-2.08172e-05
-1.89755e-05
-1.77139e-05
-1.74684e-05
-1.90286e-05
0.000415284
0.000403201
0.000388093
0.000369532
0.00034759
0.00032279
0.000295737
0.000266951
0.000236882
0.000205942
0.000174516
0.000142957
0.000111592
8.07196e-05
5.06134e-05
2.15257e-05
-6.31393e-06
-3.26997e-05
-5.74508e-05
-8.04136e-05
-0.000101463
-0.000120506
-0.000137479
-0.000152354
-0.000165132
-0.000175849
-0.000184566
-0.000191373
-0.000196382
-0.000199722
-0.000201537
-0.000201981
-0.000201212
-0.000199388
-0.000196665
-0.000193192
-0.00018911
-0.000184546
-0.000179619
-0.000174433
-0.000169077
-0.000163631
-0.000158159
-0.000152716
-0.000147344
-0.000142079
-0.000136946
-0.000131964
-0.000127147
-0.000122502
-0.000118033
-0.000113743
-0.00010963
-0.000105691
-0.000101922
-9.83184e-05
-9.48738e-05
-9.15826e-05
-8.84387e-05
-8.54358e-05
-8.2568e-05
-7.98289e-05
-7.72128e-05
-7.47137e-05
-7.23259e-05
-7.00435e-05
-6.78609e-05
-6.57726e-05
-6.37728e-05
-6.1856e-05
-6.00163e-05
-5.82479e-05
-5.65449e-05
-5.49013e-05
-5.33107e-05
-5.17668e-05
-5.02629e-05
-4.87921e-05
-4.7347e-05
-4.59202e-05
-4.45038e-05
-4.30893e-05
-4.16681e-05
-4.02309e-05
-3.87681e-05
-3.72696e-05
-3.57251e-05
-3.41242e-05
-3.24566e-05
-3.07134e-05
-2.88878e-05
-2.69775e-05
-2.49887e-05
-2.29412e-05
-2.08766e-05
-1.88671e-05
-1.70161e-05
-1.5425e-05
-1.40938e-05
-1.32725e-05
0.000359237
0.000348971
0.00033639
0.000321027
0.000302839
0.000282193
0.000259544
0.000235301
0.000209834
0.000183488
0.000156595
0.000129466
0.00010239
7.56355e-05
4.94488e-05
2.40576e-05
-3.31425e-07
-2.35325e-05
-4.53822e-05
-6.57408e-05
-8.44934e-05
-0.000101552
-0.000116855
-0.000130368
-0.000142086
-0.000152029
-0.000160242
-0.000166792
-0.000171766
-0.000175269
-0.000177416
-0.000178334
-0.000178153
-0.000177007
-0.000175028
-0.000172343
-0.000169074
-0.000165334
-0.000161228
-0.000156847
-0.000152276
-0.000147586
-0.000142838
-0.000138084
-0.000133366
-0.000128719
-0.000124169
-0.000119735
-0.000115434
-0.000111276
-0.000107265
-0.000103407
-9.97013e-05
-9.61474e-05
-9.27427e-05
-8.94838e-05
-8.63664e-05
-8.33858e-05
-8.05371e-05
-7.7815e-05
-7.52143e-05
-7.27297e-05
-7.0356e-05
-6.80879e-05
-6.59202e-05
-6.38479e-05
-6.18658e-05
-5.99688e-05
-5.81518e-05
-5.64096e-05
-5.4737e-05
-5.31286e-05
-5.15791e-05
-5.00828e-05
-4.86341e-05
-4.72269e-05
-4.58553e-05
-4.45126e-05
-4.31923e-05
-4.18873e-05
-4.05902e-05
-3.92934e-05
-3.79886e-05
-3.66674e-05
-3.53207e-05
-3.39392e-05
-3.25134e-05
-3.10337e-05
-2.94908e-05
-2.78766e-05
-2.61852e-05
-2.44145e-05
-2.25693e-05
-2.06646e-05
-1.87293e-05
-1.68064e-05
-1.494e-05
-1.31332e-05
-1.12795e-05
-9.59816e-06
0.000316846
0.00030788
0.000297045
0.000283887
0.00026832
0.000250616
0.000231135
0.00021021
0.000188148
0.000165246
0.000141792
0.000118061
9.43098e-05
7.07797e-05
4.76933e-05
2.52555e-05
3.65292e-06
-1.69468e-05
-3.63962e-05
-5.45687e-05
-7.13603e-05
-8.66898e-05
-0.000100499
-0.000112756
-0.000123449
-0.000132591
-0.000140216
-0.000146379
-0.00015115
-0.000154615
-0.000156871
-0.000158023
-0.000158183
-0.000157464
-0.000155979
-0.00015384
-0.000151153
-0.000148017
-0.000144523
-0.000140757
-0.000136792
-0.000132695
-0.000128521
-0.00012432
-0.000120131
-0.000115988
-0.000111917
-0.000107937
-0.000104065
-0.000100312
-9.66854e-05
-9.31891e-05
-8.98257e-05
-8.65954e-05
-8.34968e-05
-8.05277e-05
-7.76849e-05
-7.49647e-05
-7.23629e-05
-6.98751e-05
-6.74968e-05
-6.52234e-05
-6.30501e-05
-6.09724e-05
-5.89856e-05
-5.7085e-05
-5.52661e-05
-5.35242e-05
-5.18547e-05
-5.02529e-05
-4.87142e-05
-4.72338e-05
-4.58068e-05
-4.44283e-05
-4.30932e-05
-4.17964e-05
-4.05324e-05
-3.92956e-05
-3.80803e-05
-3.68806e-05
-3.56901e-05
-3.45024e-05
-3.33106e-05
-3.21079e-05
-3.08869e-05
-2.96402e-05
-2.83602e-05
-2.70396e-05
-2.56713e-05
-2.42489e-05
-2.27675e-05
-2.12242e-05
-1.96187e-05
-1.79541e-05
-1.62347e-05
-1.44616e-05
-1.26188e-05
-1.0652e-05
-8.454e-06
-6.06719e-06
0.000273337
0.000265618
0.000256402
0.000245287
0.00023217
0.000217251
0.000200809
0.000183107
0.000164395
0.000144917
0.000124915
0.000104624
8.4265e-05
6.40474e-05
4.41649e-05
2.47966e-05
6.10607e-06
-1.176e-05
-2.8672e-05
-4.45187e-05
-5.92079e-05
-7.26667e-05
-8.48425e-05
-9.57028e-05
-0.000105235
-0.000113446
-0.000120359
-0.000126017
-0.000130475
-0.000133802
-0.000136075
-0.000137383
-0.000137816
-0.000137469
-0.000136436
-0.000134812
-0.000132687
-0.000130145
-0.000127268
-0.000124127
-0.000120788
-0.000117311
-0.000113746
-0.000110138
-0.000106522
-0.000102931
-9.93881e-05
-9.59147e-05
-9.25256e-05
-8.92323e-05
-8.6043e-05
-8.2963e-05
-7.99954e-05
-7.71414e-05
-7.4401e-05
-7.17726e-05
-6.92542e-05
-6.68429e-05
-6.45355e-05
-6.23283e-05
-6.02176e-05
-5.81995e-05
-5.62699e-05
-5.44249e-05
-5.26603e-05
-5.09722e-05
-4.93565e-05
-4.7809e-05
-4.63259e-05
-4.49028e-05
-4.35358e-05
-4.22205e-05
-4.09528e-05
-3.97283e-05
-3.85425e-05
-3.73909e-05
-3.62687e-05
-3.51712e-05
-3.40932e-05
-3.30295e-05
-3.19747e-05
-3.09231e-05
-2.9869e-05
-2.88063e-05
-2.77288e-05
-2.66299e-05
-2.55034e-05
-2.43428e-05
-2.31417e-05
-2.18941e-05
-2.05944e-05
-1.92373e-05
-1.78176e-05
-1.63288e-05
-1.47606e-05
-1.30937e-05
-1.12924e-05
-9.293e-06
-6.98979e-06
-4.24128e-06
0.000228513
0.00022207
0.000214458
0.000205343
0.00019462
0.00018243
0.000168981
0.000154476
0.000139109
0.000123072
0.000106563
8.97732e-05
7.28857e-05
5.60753e-05
3.9505e-05
2.33261e-05
7.67698e-06
-7.31768e-06
-2.15476e-05
-3.49176e-05
-4.73484e-05
-5.87767e-05
-6.91559e-05
-7.84559e-05
-8.66627e-05
-9.37782e-05
-9.9819e-05
-0.000104816
-0.00010881
-0.000111856
-0.000114016
-0.000115356
-0.000115952
-0.000115879
-0.000115213
-0.000114033
-0.000112411
-0.000110419
-0.000108124
-0.000105587
-0.000102864
-0.000100005
-9.70552e-05
-9.40523e-05
-9.10295e-05
-8.80142e-05
-8.50294e-05
-8.20933e-05
-7.92205e-05
-7.64221e-05
-7.37064e-05
-7.10789e-05
-6.85433e-05
-6.61016e-05
-6.37544e-05
-6.1501e-05
-5.93403e-05
-5.72701e-05
-5.5288e-05
-5.33913e-05
-5.15769e-05
-4.98416e-05
-4.81821e-05
-4.65951e-05
-4.50771e-05
-4.36246e-05
-4.22344e-05
-4.09029e-05
-3.96266e-05
-3.8402e-05
-3.72257e-05
-3.60939e-05
-3.50032e-05
-3.39497e-05
-3.29298e-05
-3.19395e-05
-3.09749e-05
-3.00318e-05
-2.91059e-05
-2.8193e-05
-2.72884e-05
-2.63874e-05
-2.54851e-05
-2.45764e-05
-2.36563e-05
-2.27192e-05
-2.17598e-05
-2.07726e-05
-1.97519e-05
-1.86921e-05
-1.75876e-05
-1.64317e-05
-1.52172e-05
-1.3934e-05
-1.25674e-05
-1.10943e-05
-9.47737e-06
-7.65502e-06
-5.52405e-06
-2.92602e-06
0.000182116
0.000176978
0.000170964
0.000163807
0.000155415
0.000145885
0.000135367
0.00012401
0.000111957
9.93561e-05
8.63569e-05
7.31086e-05
5.97559e-05
4.64366e-05
3.32807e-05
2.04094e-05
7.93361e-06
-4.0461e-06
-1.54407e-05
-2.61731e-05
-3.61785e-05
-4.54051e-05
-5.38138e-05
-6.13784e-05
-6.80856e-05
-7.39343e-05
-7.89351e-05
-8.31091e-05
-8.64872e-05
-8.91087e-05
-9.10199e-05
-9.22726e-05
-9.29226e-05
-9.30284e-05
-9.26496e-05
-9.18457e-05
-9.0675e-05
-8.91935e-05
-8.74542e-05
-8.55064e-05
-8.33952e-05
-8.11615e-05
-7.88415e-05
-7.64671e-05
-7.40658e-05
-7.16608e-05
-6.92716e-05
-6.69141e-05
-6.46013e-05
-6.23429e-05
-6.01467e-05
-5.80179e-05
-5.59605e-05
-5.39765e-05
-5.2067e-05
-5.0232e-05
-4.8471e-05
-4.67826e-05
-4.51651e-05
-4.36165e-05
-4.21344e-05
-4.07163e-05
-3.93598e-05
-3.80621e-05
-3.68205e-05
-3.56323e-05
-3.44947e-05
-3.34049e-05
-3.236e-05
-3.13574e-05
-3.0394e-05
-2.9467e-05
-2.85735e-05
-2.77104e-05
-2.68748e-05
-2.60635e-05
-2.52732e-05
-2.45007e-05
-2.37426e-05
-2.29953e-05
-2.22552e-05
-2.15185e-05
-2.07814e-05
-2.00398e-05
-1.92896e-05
-1.85266e-05
-1.77463e-05
-1.69444e-05
-1.61161e-05
-1.52566e-05
-1.43607e-05
-1.34221e-05
-1.24334e-05
-1.13842e-05
-1.026e-05
-9.03834e-06
-7.68455e-06
-6.14395e-06
-4.3323e-06
-2.12874e-06
0.000133792
0.000130017
0.000125623
0.000120424
0.000114348
0.000107457
9.9852e-05
9.16348e-05
8.29045e-05
7.37638e-05
6.43191e-05
5.46771e-05
4.49422e-05
3.52145e-05
2.55893e-05
1.61553e-05
6.99469e-06
-1.81838e-06
-1.02178e-05
-1.8146e-05
-2.55546e-05
-3.24043e-05
-3.86653e-05
-4.43171e-05
-4.93482e-05
-5.37562e-05
-5.7547e-05
-6.07345e-05
-6.33392e-05
-6.53881e-05
-6.69132e-05
-6.7951e-05
-6.85407e-05
-6.87238e-05
-6.8543e-05
-6.8041e-05
-6.72599e-05
-6.62405e-05
-6.50216e-05
-6.36394e-05
-6.21274e-05
-6.05161e-05
-5.88328e-05
-5.71015e-05
-5.53432e-05
-5.35758e-05
-5.18145e-05
-5.00719e-05
-4.83581e-05
-4.66811e-05
-4.50472e-05
-4.3461e-05
-4.19258e-05
-4.04436e-05
-3.90156e-05
-3.76422e-05
-3.63232e-05
-3.50578e-05
-3.38449e-05
-3.26832e-05
-3.1571e-05
-3.05066e-05
-2.94882e-05
-2.85138e-05
-2.75813e-05
-2.66889e-05
-2.58343e-05
-2.50156e-05
-2.42307e-05
-2.34774e-05
-2.27536e-05
-2.20572e-05
-2.1386e-05
-2.07377e-05
-2.011e-05
-1.95008e-05
-1.89075e-05
-1.83277e-05
-1.77589e-05
-1.71985e-05
-1.66439e-05
-1.60922e-05
-1.55405e-05
-1.4986e-05
-1.44256e-05
-1.38563e-05
-1.32746e-05
-1.26773e-05
-1.20609e-05
-1.14214e-05
-1.07547e-05
-1.00554e-05
-9.31735e-06
-8.53136e-06
-7.68479e-06
-6.75899e-06
-5.72598e-06
-4.5446e-06
-3.15708e-06
-1.48533e-06
8.27427e-05
8.04024e-05
7.76904e-05
7.44957e-05
7.07749e-05
6.65619e-05
6.19153e-05
5.68938e-05
5.15558e-05
4.59622e-05
4.01768e-05
3.42639e-05
2.8287e-05
2.23072e-05
1.6383e-05
1.0569e-05
4.91596e-06
-5.30225e-07
-5.72851e-06
-1.06431e-05
-1.52438e-05
-1.95059e-05
-2.34105e-05
-2.69442e-05
-3.00996e-05
-3.28742e-05
-3.5271e-05
-3.72975e-05
-3.89657e-05
-4.02912e-05
-4.12929e-05
-4.19923e-05
-4.2413e-05
-4.25798e-05
-4.25185e-05
-4.22549e-05
-4.18146e-05
-4.12225e-05
-4.05024e-05
-3.96768e-05
-3.87663e-05
-3.77899e-05
-3.67647e-05
-3.57059e-05
-3.46268e-05
-3.35388e-05
-3.24517e-05
-3.13735e-05
-3.0311e-05
-2.92694e-05
-2.82529e-05
-2.72648e-05
-2.63071e-05
-2.53816e-05
-2.44891e-05
-2.36299e-05
-2.28042e-05
-2.20116e-05
-2.12514e-05
-2.0523e-05
-1.98254e-05
-1.91575e-05
-1.85182e-05
-1.79064e-05
-1.73208e-05
-1.67602e-05
-1.62233e-05
-1.57088e-05
-1.52155e-05
-1.47419e-05
-1.42868e-05
-1.38489e-05
-1.34268e-05
-1.3019e-05
-1.26242e-05
-1.2241e-05
-1.18678e-05
-1.15031e-05
-1.11454e-05
-1.07931e-05
-1.04444e-05
-1.00978e-05
-9.75133e-06
-9.40328e-06
-9.05173e-06
-8.6948e-06
-8.33042e-06
-7.95642e-06
-7.57059e-06
-7.1705e-06
-6.75322e-06
-6.31518e-06
-5.85203e-06
-5.35759e-06
-4.82314e-06
-4.23633e-06
-3.57923e-06
-2.82657e-06
-1.94463e-06
-8.89263e-07
2.83847e-05
2.75759e-05
2.66292e-05
2.55177e-05
2.42295e-05
2.27753e-05
2.1174e-05
1.94454e-05
1.76092e-05
1.56861e-05
1.36977e-05
1.16661e-05
9.61289e-06
7.55916e-06
5.52491e-06
3.52894e-06
1.58861e-06
-2.80315e-07
-2.06379e-06
-3.74961e-06
-5.32744e-06
-6.78894e-06
-8.12767e-06
-9.33919e-06
-1.0421e-05
-1.13722e-05
-1.21941e-05
-1.28891e-05
-1.34614e-05
-1.39164e-05
-1.42604e-05
-1.45009e-05
-1.46459e-05
-1.47037e-05
-1.46833e-05
-1.45933e-05
-1.44426e-05
-1.42396e-05
-1.39924e-05
-1.37088e-05
-1.33957e-05
-1.30598e-05
-1.27068e-05
-1.2342e-05
-1.19699e-05
-1.15947e-05
-1.12195e-05
-1.08472e-05
-1.04802e-05
-1.01202e-05
-9.76889e-06
-9.4272e-06
-9.096e-06
-8.77582e-06
-8.46702e-06
-8.16973e-06
-7.88398e-06
-7.60966e-06
-7.34657e-06
-7.09446e-06
-6.85301e-06
-6.62186e-06
-6.40063e-06
-6.1889e-06
-5.98626e-06
-5.79228e-06
-5.60651e-06
-5.42851e-06
-5.25783e-06
-5.09401e-06
-4.9366e-06
-4.78513e-06
-4.63913e-06
-4.49813e-06
-4.36163e-06
-4.22913e-06
-4.10013e-06
-3.9741e-06
-3.85052e-06
-3.7288e-06
-3.60838e-06
-3.4887e-06
-3.36916e-06
-3.2491e-06
-3.12785e-06
-3.00478e-06
-2.87924e-06
-2.75044e-06
-2.61756e-06
-2.47976e-06
-2.33603e-06
-2.18503e-06
-2.02517e-06
-1.85423e-06
-1.66904e-06
-1.46515e-06
-1.2362e-06
-9.73195e-07
-6.63758e-07
-2.90495e-07
0.000126328
0.000129177
0.000135501
0.000144865
0.000156909
0.00017155
0.000188838
0.000208855
0.000231705
0.000257525
0.000286501
0.000318869
0.000354934
0.000395085
0.000439824
0.000489817
0.000545957
0.000609481
0.00068216
0.000766634
0.000867065
0.000990481
0.00114988
0.00137376
0.00172252
0.000125613
0.000128293
0.000134424
0.000143584
0.000155406
0.000169799
0.000186805
0.0002065
0.00022898
0.000254372
0.000282848
0.000314627
0.000349987
0.000389281
0.000432963
0.000481617
0.000536014
0.000597189
0.000666552
0.000746061
0.000838435
0.0009473
0.00107648
0.00122474
0.00136201
0.000124401
0.00012699
0.00013298
0.000141974
0.000153602
0.000167766
0.000184503
0.000203883
0.000225994
0.00025095
0.000278908
0.000310065
0.000344668
0.000383025
0.000425521
0.00047264
0.000524993
0.000583349
0.000648666
0.000722078
0.000804754
0.000897293
0.000997826
0.00109683
0.00116646
0.000122579
0.000125079
0.000130893
0.000139658
0.000151007
0.00016484
0.000181186
0.000200106
0.000221674
0.000245992
0.000273192
0.000303438
0.000336936
0.00037393
0.000414714
0.000459635
0.000509099
0.000563552
0.000623431
0.000689031
0.00076016
0.000835373
0.000910389
0.000975384
0.00101212
0.000120029
0.000122437
0.00012805
0.000136538
0.000147549
0.000160974
0.000176836
0.000195184
0.000216078
0.000239599
0.000265849
0.000294958
0.000327074
0.000362368
0.000401027
0.000443244
0.0004892
0.00053901
0.000592631
0.000649668
0.000709027
0.000768306
0.000822903
0.000865074
0.000883939
0.000116624
0.00011893
0.000124312
0.00013247
0.000143064
0.000155985
0.000171242
0.000188872
0.000208919
0.000231438
0.0002565
0.000284189
0.000314592
0.000347797
0.000383875
0.000422863
0.000464723
0.00050928
0.000556111
0.000604374
0.000652539
0.000698049
0.000736968
0.000763908
0.000772747
0.000112218
0.000114408
0.000119524
0.000127287
0.000137378
0.000149683
0.000164202
0.000180957
0.000199971
0.000221275
0.000244903
0.000270889
0.000299259
0.000330013
0.000363114
0.000398452
0.000435807
0.000474785
0.000514723
0.000554567
0.000592722
0.000626914
0.000654152
0.00067095
0.00067398
0.000106652
0.000108709
0.000113514
0.000120811
0.0001303
0.000141867
0.000155499
0.000171205
0.000188986
0.000208845
0.00023078
0.000254777
0.0002808
0.000308771
0.000338554
0.000369926
0.000402536
0.000435854
0.000469116
0.000501244
0.0005308
0.000555969
0.000574641
0.000584668
0.000584298
9.97564e-05
0.000101659
0.000106102
0.000112854
0.000121633
0.000132326
0.000144912
0.000159382
0.000175718
0.000193897
0.000213882
0.000235616
0.000259007
0.000283916
0.000310134
0.000337358
0.000365165
0.000392977
0.000420032
0.000445356
0.000467767
0.000485916
0.000498397
0.000503938
0.000501653
9.1357e-05
9.30761e-05
9.70991e-05
0.000103215
0.000111164
0.000120837
0.000132204
0.000145242
0.000159916
0.000176179
0.000193966
0.000213184
0.000233702
0.000255336
0.000277834
0.000300856
0.000323962
0.000346593
0.000368061
0.000387559
0.000404183
0.000416986
0.000425072
0.000427719
0.000424507
8.34896e-05
8.50472e-05
8.86956e-05
9.42393e-05
0.000101441
0.000110196
0.000120471
0.000132234
0.00014544
0.000160027
0.000175917
0.000192998
0.000211123
0.000230092
0.00024964
0.000269431
0.000289043
0.000307966
0.000325601
0.00034128
0.000354292
0.000363935
0.00036959
0.000370804
0.000367381
7.6768e-05
7.81944e-05
8.15312e-05
8.65976e-05
9.31751e-05
0.000101166
0.000110533
0.000121239
0.000133233
0.000146448
0.000160796
0.000176157
0.000192377
0.00020925
0.000226516
0.000243849
0.000260854
0.000277068
0.000291969
0.000304991
0.00031556
0.000323135
0.000327264
0.000327645
0.000324171
6.89458e-05
7.02222e-05
7.32024e-05
7.77246e-05
8.35921e-05
9.07144e-05
9.90527e-05
0.000108568
0.000119206
0.000130894
0.00014354
0.000157025
0.000171191
0.00018584
0.000200721
0.000215534
0.000229922
0.00024348
0.000255766
0.000266321
0.000274693
0.000280478
0.000283358
0.000283139
0.000279779
5.98721e-05
6.09768e-05
6.35511e-05
6.74546e-05
7.2516e-05
7.86543e-05
8.58313e-05
9.40073e-05
0.000103128
0.000113121
0.000123897
0.000135339
0.0001473
0.000159593
0.000171993
0.000184233
0.000196008
0.000206977
0.000216783
0.000225065
0.000231485
0.00023575
0.000237647
0.00023706
0.000233986
4.9393e-05
5.0302e-05
5.24157e-05
5.56181e-05
5.97674e-05
6.47948e-05
7.06655e-05
7.73422e-05
8.47742e-05
9.2896e-05
0.000101625
0.000110856
0.000120459
0.000130273
0.000140107
0.000149739
0.00015892
0.000167383
0.000174852
0.00018106
0.000185763
0.000188763
0.000189922
0.000189176
0.000186542
3.73609e-05
3.80479e-05
3.96408e-05
4.20516e-05
4.5173e-05
4.89516e-05
5.33591e-05
5.83641e-05
6.39247e-05
6.99868e-05
7.64828e-05
8.33283e-05
9.04193e-05
9.76299e-05
0.000104813
0.0001118
0.000118407
0.000124442
0.000129709
0.000134025
0.000137227
0.000139189
0.000139829
0.000139117
0.000137077
2.36507e-05
2.40865e-05
2.50931e-05
2.66141e-05
2.85819e-05
3.09619e-05
3.37352e-05
3.68805e-05
4.03694e-05
4.41653e-05
4.82231e-05
5.24868e-05
5.68881e-05
6.13453e-05
6.57643e-05
7.00392e-05
7.40561e-05
7.76968e-05
8.08453e-05
8.3394e-05
8.52511e-05
8.63469e-05
8.66392e-05
8.61168e-05
8.47988e-05
8.18411e-06
8.3367e-06
8.68702e-06
9.21526e-06
9.89803e-06
1.07234e-05
1.16847e-05
1.27743e-05
1.3982e-05
1.52947e-05
1.66965e-05
1.81672e-05
1.96827e-05
2.12143e-05
2.27289e-05
2.41897e-05
2.55574e-05
2.67915e-05
2.78529e-05
2.87055e-05
2.93191e-05
2.96713e-05
2.97496e-05
2.95517e-05
2.90869e-05
)
;

boundaryField
{
    top
    {
        type            fixedValue;
        value           uniform 0;
    }
    inlet
    {
        type            zeroGradient;
    }
    outlet
    {
        type            fixedValue;
        value           uniform 0;
    }
    plate
    {
        type            zeroGradient;
    }
    symmBound
    {
        type            zeroGradient;
    }
    frontAndBack
    {
        type            empty;
    }
}


// ************************************************************************* //
