/*--------------------------------*- C++ -*----------------------------------*\
| =========                 |                                                 |
| \\      /  F ield         | OpenFOAM: The Open Source CFD Toolbox           |
|  \\    /   O peration     | Version:  2.3.0                                 |
|   \\  /    A nd           | Web:      www.OpenFOAM.org                      |
|    \\/     M anipulation  |                                                 |
\*---------------------------------------------------------------------------*/
FoamFile
{
    version     2.0;
    format      ascii;
    class       surfaceScalarField;
    location    "0.85";
    object      phi;
}
// * * * * * * * * * * * * * * * * * * * * * * * * * * * * * * * * * * * * * //

dimensions      [0 3 -1 0 0 0 0];

internalField   nonuniform List<scalar> 
4357
(
4.9962e-08
2.04763e-09
-5.20096e-08
4.78071e-08
2.15488e-09
4.56424e-08
2.16468e-09
4.34936e-08
2.14876e-09
4.13729e-08
2.1207e-09
3.92912e-08
2.08175e-09
3.72571e-08
2.03407e-09
3.52775e-08
1.97961e-09
3.33578e-08
1.91968e-09
3.15028e-08
1.85501e-09
2.97167e-08
1.78609e-09
2.80034e-08
1.71335e-09
2.63661e-08
1.63726e-09
2.48078e-08
1.55827e-09
2.33309e-08
1.47691e-09
2.19372e-08
1.39376e-09
2.06277e-08
1.30946e-09
1.9403e-08
1.22467e-09
1.82629e-08
1.14013e-09
1.72063e-08
1.05657e-09
1.62316e-08
9.74726e-10
1.53363e-08
8.95296e-10
1.45174e-08
8.18939e-10
1.37711e-08
7.46238e-10
1.30934e-08
6.77686e-10
1.24798e-08
6.1367e-10
1.19253e-08
5.54465e-10
1.14251e-08
5.00227e-10
1.09741e-08
4.50999e-10
1.05674e-08
4.06717e-10
1.02001e-08
3.67222e-10
9.86787e-09
3.32277e-10
9.56628e-09
3.01584e-10
9.29148e-09
2.748e-10
9.03993e-09
2.51556e-10
8.80846e-09
2.31471e-10
8.59429e-09
2.14169e-10
8.39501e-09
1.99284e-10
8.20853e-09
1.86475e-10
8.0331e-09
1.75428e-10
7.86724e-09
1.65861e-10
7.70972e-09
1.57526e-10
7.55951e-09
1.50206e-10
7.41579e-09
1.43719e-10
7.27788e-09
1.37911e-10
7.14522e-09
1.32656e-10
7.01737e-09
1.27852e-10
6.89396e-09
1.23416e-10
6.77467e-09
1.19283e-10
6.65927e-09
1.15404e-10
6.54753e-09
1.11741e-10
6.43926e-09
1.08263e-10
6.33431e-09
1.0495e-10
6.23253e-09
1.01786e-10
6.13377e-09
9.87567e-11
6.03792e-09
9.58546e-11
5.94485e-09
9.30717e-11
5.85444e-09
9.04022e-11
5.7666e-09
8.7841e-11
5.68122e-09
8.53833e-11
5.59819e-09
8.30248e-11
5.51743e-09
8.07613e-11
5.43884e-09
7.85885e-11
5.36234e-09
7.65021e-11
5.28784e-09
7.4498e-11
5.21527e-09
7.2572e-11
5.14455e-09
7.07198e-11
5.07562e-09
6.89375e-11
5.00839e-09
6.7221e-11
4.94283e-09
6.55665e-11
4.87886e-09
6.39704e-11
4.81643e-09
6.24291e-11
4.75549e-09
6.09394e-11
4.69599e-09
5.94982e-11
4.63789e-09
5.81027e-11
4.58114e-09
5.67503e-11
4.5257e-09
5.54385e-11
4.47153e-09
5.41652e-11
4.41861e-09
5.29286e-11
4.36688e-09
5.17268e-11
4.31632e-09
5.05585e-11
4.2669e-09
4.94223e-11
4.21858e-09
4.83175e-11
4.17134e-09
4.72431e-11
4.12514e-09
4.6199e-11
4.07995e-09
4.51848e-11
4.03575e-09
4.4201e-11
3.9925e-09
4.32485e-11
3.95018e-09
4.23287e-11
3.90873e-09
4.14441e-11
3.86813e-09
4.0599e-11
3.82833e-09
3.97996e-11
3.78928e-09
3.90569e-11
3.75089e-09
3.839e-11
3.71305e-09
3.78348e-11
3.67558e-09
3.74675e-11
3.63811e-09
3.74711e-11
3.59988e-09
3.82342e-11
3.55791e-09
4.19647e-11
9.6425e-11
5.77078e-08
2.15836e-09
-5.78185e-08
5.74645e-08
2.3981e-09
5.70869e-08
2.54233e-09
5.65957e-08
2.64e-09
5.60053e-08
2.71102e-09
5.53275e-08
2.75958e-09
5.45732e-08
2.78834e-09
5.37527e-08
2.80014e-09
5.28753e-08
2.79712e-09
5.19496e-08
2.78063e-09
5.09841e-08
2.75167e-09
4.99863e-08
2.7111e-09
4.89638e-08
2.65978e-09
4.79234e-08
2.59862e-09
4.68718e-08
2.52854e-09
4.5815e-08
2.45059e-09
4.47586e-08
2.36586e-09
4.37077e-08
2.27554e-09
4.2667e-08
2.18087e-09
4.16404e-08
2.08313e-09
4.06316e-08
1.98358e-09
3.96434e-08
1.8835e-09
3.86782e-08
1.78406e-09
3.77381e-08
1.68636e-09
3.68244e-08
1.59137e-09
3.59382e-08
1.49992e-09
3.508e-08
1.41269e-09
3.425e-08
1.33016e-09
3.34483e-08
1.25269e-09
3.26746e-08
1.18046e-09
3.19283e-08
1.1135e-09
3.12088e-08
1.05175e-09
3.05154e-08
9.95019e-10
2.98472e-08
9.43053e-10
2.92032e-08
8.9554e-10
2.85825e-08
8.52134e-10
2.79842e-08
8.12473e-10
2.74073e-08
7.7619e-10
2.68508e-08
7.42932e-10
2.63139e-08
7.12362e-10
2.57956e-08
6.84172e-10
2.5295e-08
6.58079e-10
2.48114e-08
6.33833e-10
2.43439e-08
6.11212e-10
2.38918e-08
5.9003e-10
2.34543e-08
5.70122e-10
2.30308e-08
5.51351e-10
2.26207e-08
5.33599e-10
2.22232e-08
5.16767e-10
2.18378e-08
5.00775e-10
2.1464e-08
4.85552e-10
2.11012e-08
4.71042e-10
2.0749e-08
4.57196e-10
2.04068e-08
4.4397e-10
2.00742e-08
4.31329e-10
1.97508e-08
4.19239e-10
1.94362e-08
4.07672e-10
1.913e-08
3.96601e-10
1.88319e-08
3.86001e-10
1.85414e-08
3.75847e-10
1.82583e-08
3.66119e-10
1.79823e-08
3.56793e-10
1.7713e-08
3.47849e-10
1.74503e-08
3.39267e-10
1.71937e-08
3.31029e-10
1.69432e-08
3.23115e-10
1.66984e-08
3.15507e-10
1.64591e-08
3.08189e-10
1.62252e-08
3.01145e-10
1.59964e-08
2.94359e-10
1.57726e-08
2.87816e-10
1.55535e-08
2.81503e-10
1.5339e-08
2.75407e-10
1.5129e-08
2.69515e-10
1.49233e-08
2.63818e-10
1.47218e-08
2.58304e-10
1.45242e-08
2.52964e-10
1.43306e-08
2.4779e-10
1.41408e-08
2.42773e-10
1.39546e-08
2.37907e-10
1.37719e-08
2.33186e-10
1.35928e-08
2.28603e-10
1.34169e-08
2.24155e-10
1.32443e-08
2.19839e-10
1.30749e-08
2.1565e-10
1.29085e-08
2.11589e-10
1.2745e-08
2.07654e-10
1.25844e-08
2.03847e-10
1.24266e-08
2.00171e-10
1.22714e-08
1.96634e-10
1.21187e-08
1.93245e-10
1.19685e-08
1.90023e-10
1.18206e-08
1.86998e-10
1.16747e-08
1.84226e-10
1.15308e-08
1.81812e-10
1.13883e-08
1.79979e-10
1.12465e-08
1.79261e-10
1.11034e-08
1.81336e-10
1.09494e-08
1.9594e-10
2.74467e-10
6.27562e-08
2.15117e-09
-6.2749e-08
6.27677e-08
2.3866e-09
6.27509e-08
2.55917e-09
6.26974e-08
2.69348e-09
6.26038e-08
2.80459e-09
6.24669e-08
2.8965e-09
6.22848e-08
2.97045e-09
6.2057e-08
3.02793e-09
6.17839e-08
3.07026e-09
6.14663e-08
3.09824e-09
6.11055e-08
3.11239e-09
6.07035e-08
3.11318e-09
6.02622e-08
3.10106e-09
5.97842e-08
3.07661e-09
5.92722e-08
3.04051e-09
5.87293e-08
2.99357e-09
5.81584e-08
2.93675e-09
5.75628e-08
2.87113e-09
5.69457e-08
2.79793e-09
5.63104e-08
2.71846e-09
5.56599e-08
2.63406e-09
5.49973e-08
2.54611e-09
5.43254e-08
2.45599e-09
5.36468e-08
2.36497e-09
5.29639e-08
2.27427e-09
5.22788e-08
2.18495e-09
5.15936e-08
2.09793e-09
5.09098e-08
2.01397e-09
5.02288e-08
1.93364e-09
4.95519e-08
1.85735e-09
4.88801e-08
1.78537e-09
4.8214e-08
1.7178e-09
4.75544e-08
1.65462e-09
4.69017e-08
1.59572e-09
4.62564e-08
1.54092e-09
4.56186e-08
1.48995e-09
4.49885e-08
1.44253e-09
4.43663e-08
1.39836e-09
4.37521e-08
1.35713e-09
4.3146e-08
1.31854e-09
4.25478e-08
1.28229e-09
4.19578e-08
1.24813e-09
4.13758e-08
1.21581e-09
4.08019e-08
1.18513e-09
4.0236e-08
1.1559e-09
3.96782e-08
1.12797e-09
3.91283e-08
1.10118e-09
3.85865e-08
1.07545e-09
3.80526e-08
1.05066e-09
3.75266e-08
1.02674e-09
3.70086e-08
1.00363e-09
3.64983e-08
9.81272e-10
3.59959e-08
9.59627e-10
3.55012e-08
9.38657e-10
3.50142e-08
9.1833e-10
3.45348e-08
8.98621e-10
3.4063e-08
8.79507e-10
3.35986e-08
8.60965e-10
3.31417e-08
8.42976e-10
3.2692e-08
8.25521e-10
3.22495e-08
8.08584e-10
3.18142e-08
7.92145e-10
3.13858e-08
7.76189e-10
3.09644e-08
7.60698e-10
3.05498e-08
7.45655e-10
3.01418e-08
7.31045e-10
2.97405e-08
7.16851e-10
2.93456e-08
7.03057e-10
2.89571e-08
6.89648e-10
2.85749e-08
6.7661e-10
2.81988e-08
6.63927e-10
2.78287e-08
6.51585e-10
2.74645e-08
6.39572e-10
2.71061e-08
6.27875e-10
2.67535e-08
6.16482e-10
2.64064e-08
6.05381e-10
2.60648e-08
5.94563e-10
2.57286e-08
5.84017e-10
2.53976e-08
5.73734e-10
2.50718e-08
5.63708e-10
2.47511e-08
5.5393e-10
2.44353e-08
5.44395e-10
2.41243e-08
5.35099e-10
2.38181e-08
5.26037e-10
2.35166e-08
5.17207e-10
2.32196e-08
5.08609e-10
2.2927e-08
5.00246e-10
2.26387e-08
4.9212e-10
2.23546e-08
4.8424e-10
2.20746e-08
4.7662e-10
2.17986e-08
4.69281e-10
2.15264e-08
4.62256e-10
2.12578e-08
4.55603e-10
2.09926e-08
4.49421e-10
2.07305e-08
4.43901e-10
2.0471e-08
4.39449e-10
2.02132e-08
4.37056e-10
1.99547e-08
4.39842e-10
1.96902e-08
4.60497e-10
5.32429e-10
6.79981e-08
2.1752e-09
-6.80221e-08
6.80021e-08
2.38255e-09
6.80089e-08
2.55237e-09
6.80095e-08
2.69296e-09
6.80008e-08
2.8132e-09
6.79805e-08
2.91681e-09
6.79459e-08
3.00504e-09
6.78949e-08
3.07894e-09
6.78257e-08
3.13952e-09
6.77364e-08
3.18746e-09
6.76257e-08
3.22315e-09
6.7492e-08
3.24683e-09
6.73344e-08
3.25873e-09
6.71518e-08
3.25912e-09
6.6944e-08
3.24839e-09
6.67105e-08
3.227e-09
6.64517e-08
3.19561e-09
6.61678e-08
3.15498e-09
6.58597e-08
3.10603e-09
6.55284e-08
3.0498e-09
6.5175e-08
2.98743e-09
6.4801e-08
2.92011e-09
6.44079e-08
2.84905e-09
6.39974e-08
2.77548e-09
6.35712e-08
2.70053e-09
6.31308e-08
2.62529e-09
6.26781e-08
2.5507e-09
6.22144e-08
2.4776e-09
6.17414e-08
2.40667e-09
6.12603e-08
2.33842e-09
6.07725e-08
2.27324e-09
6.02789e-08
2.21138e-09
5.97805e-08
2.15296e-09
5.92783e-08
2.09799e-09
5.87728e-08
2.04639e-09
5.82647e-08
1.99802e-09
5.77546e-08
1.95269e-09
5.72428e-08
1.91018e-09
5.67296e-08
1.87024e-09
5.62156e-08
1.83262e-09
5.57008e-08
1.79709e-09
5.51855e-08
1.7634e-09
5.467e-08
1.73134e-09
5.41544e-08
1.70073e-09
5.36389e-08
1.67139e-09
5.31237e-08
1.64316e-09
5.2609e-08
1.61592e-09
5.20948e-08
1.58956e-09
5.15815e-08
1.56399e-09
5.10691e-08
1.53913e-09
5.05578e-08
1.51492e-09
5.00478e-08
1.49131e-09
4.95392e-08
1.46825e-09
4.90321e-08
1.44572e-09
4.85268e-08
1.42368e-09
4.80233e-08
1.40212e-09
4.75218e-08
1.38101e-09
4.70224e-08
1.36034e-09
4.65253e-08
1.34009e-09
4.60305e-08
1.32024e-09
4.55383e-08
1.3008e-09
4.50487e-08
1.28173e-09
4.45619e-08
1.26304e-09
4.40779e-08
1.2447e-09
4.35968e-08
1.22671e-09
4.31188e-08
1.20906e-09
4.26439e-08
1.19173e-09
4.21723e-08
1.17472e-09
4.17039e-08
1.15801e-09
4.12389e-08
1.1416e-09
4.07774e-08
1.12547e-09
4.03193e-08
1.10962e-09
3.98649e-08
1.09403e-09
3.94141e-08
1.07871e-09
3.89669e-08
1.06363e-09
3.85235e-08
1.0488e-09
3.80838e-08
1.03421e-09
3.7648e-08
1.01986e-09
3.7216e-08
1.00574e-09
3.67878e-08
9.91845e-10
3.63636e-08
9.78177e-10
3.59433e-08
9.64736e-10
3.55268e-08
9.5152e-10
3.51143e-08
9.38534e-10
3.47058e-08
9.2578e-10
3.43011e-08
9.13265e-10
3.39004e-08
9.00998e-10
3.35035e-08
8.88993e-10
3.31105e-08
8.77266e-10
3.27212e-08
8.65843e-10
3.23358e-08
8.54762e-10
3.19539e-08
8.44076e-10
3.15757e-08
8.33875e-10
3.12008e-08
8.24307e-10
3.0829e-08
8.15647e-10
3.046e-08
8.08462e-10
3.0093e-08
8.04084e-10
2.97267e-08
8.06146e-10
2.93625e-08
8.24721e-10
8.7164e-10
7.36401e-08
2.23434e-09
-7.36992e-08
7.36094e-08
2.41322e-09
7.35911e-08
2.57068e-09
7.35769e-08
2.70717e-09
7.35635e-08
2.82652e-09
7.3549e-08
2.93133e-09
7.35313e-08
3.02273e-09
7.35088e-08
3.10151e-09
7.34799e-08
3.1684e-09
7.34434e-08
3.22398e-09
7.33979e-08
3.26865e-09
7.33421e-08
3.30264e-09
7.32746e-08
3.32617e-09
7.31943e-08
3.33948e-09
7.30998e-08
3.34284e-09
7.29902e-08
3.33662e-09
7.28645e-08
3.3213e-09
7.2722e-08
3.29745e-09
7.25623e-08
3.26578e-09
7.2385e-08
3.2271e-09
7.21901e-08
3.1823e-09
7.19779e-08
3.13237e-09
7.17486e-08
3.0783e-09
7.1503e-08
3.02113e-09
7.12417e-08
2.96184e-09
7.09655e-08
2.9014e-09
7.06756e-08
2.84068e-09
7.03727e-08
2.78045e-09
7.0058e-08
2.72138e-09
6.97324e-08
2.66402e-09
6.93969e-08
2.60878e-09
6.90523e-08
2.55598e-09
6.86994e-08
2.5058e-09
6.83391e-08
2.45834e-09
6.79719e-08
2.41362e-09
6.75983e-08
2.37156e-09
6.72189e-08
2.33206e-09
6.68341e-08
2.29497e-09
6.64443e-08
2.26011e-09
6.60496e-08
2.22728e-09
6.56504e-08
2.19629e-09
6.52469e-08
2.16694e-09
6.48392e-08
2.13905e-09
6.44274e-08
2.11245e-09
6.40119e-08
2.08697e-09
6.35925e-08
2.06248e-09
6.31696e-08
2.03887e-09
6.27431e-08
2.01601e-09
6.23133e-08
1.99382e-09
6.18802e-08
1.97223e-09
6.1444e-08
1.95117e-09
6.10047e-08
1.93058e-09
6.05625e-08
1.91043e-09
6.01175e-08
1.89068e-09
5.96699e-08
1.8713e-09
5.92198e-08
1.85225e-09
5.87673e-08
1.83353e-09
5.83125e-08
1.81511e-09
5.78556e-08
1.79697e-09
5.73968e-08
1.7791e-09
5.69361e-08
1.76149e-09
5.64737e-08
1.74413e-09
5.60097e-08
1.72699e-09
5.55443e-08
1.71008e-09
5.50777e-08
1.69337e-09
5.46099e-08
1.67686e-09
5.41411e-08
1.66054e-09
5.36714e-08
1.64439e-09
5.3201e-08
1.62841e-09
5.273e-08
1.61258e-09
5.22586e-08
1.59691e-09
5.17868e-08
1.58137e-09
5.13149e-08
1.56597e-09
5.08429e-08
1.55069e-09
5.0371e-08
1.53554e-09
4.98993e-08
1.5205e-09
4.94279e-08
1.50558e-09
4.8957e-08
1.49077e-09
4.84867e-08
1.47606e-09
4.80171e-08
1.46147e-09
4.75483e-08
1.44699e-09
4.70804e-08
1.43262e-09
4.66135e-08
1.41837e-09
4.61478e-08
1.40425e-09
4.56833e-08
1.39026e-09
4.52202e-08
1.37642e-09
4.47584e-08
1.36275e-09
4.42981e-08
1.34926e-09
4.38394e-08
1.33599e-09
4.33823e-08
1.32296e-09
4.29268e-08
1.31024e-09
4.2473e-08
1.2979e-09
4.20208e-08
1.28605e-09
4.15703e-08
1.27487e-09
4.11212e-08
1.26471e-09
4.06735e-08
1.2562e-09
4.02269e-08
1.25067e-09
3.9782e-08
1.25102e-09
3.93446e-08
1.26217e-09
1.27946e-09
7.97303e-08
2.31968e-09
-7.98157e-08
7.96696e-08
2.47398e-09
7.9624e-08
2.61628e-09
7.95866e-08
2.74454e-09
7.95536e-08
2.85951e-09
7.95226e-08
2.96231e-09
7.94918e-08
3.05359e-09
7.94595e-08
3.13378e-09
7.94246e-08
3.20329e-09
7.93861e-08
3.2625e-09
7.9343e-08
3.31174e-09
7.92944e-08
3.35124e-09
7.92393e-08
3.38123e-09
7.91769e-08
3.40194e-09
7.9106e-08
3.41366e-09
7.9026e-08
3.4167e-09
7.89358e-08
3.41149e-09
7.88347e-08
3.39852e-09
7.87221e-08
3.37838e-09
7.85975e-08
3.35173e-09
7.84604e-08
3.31934e-09
7.83108e-08
3.282e-09
7.81485e-08
3.24056e-09
7.79738e-08
3.19588e-09
7.77868e-08
3.14882e-09
7.7588e-08
3.10021e-09
7.73779e-08
3.0508e-09
7.7157e-08
3.00131e-09
7.69261e-08
2.95235e-09
7.66856e-08
2.90445e-09
7.64364e-08
2.85802e-09
7.6179e-08
2.81339e-09
7.5914e-08
2.77079e-09
7.56419e-08
2.73038e-09
7.53634e-08
2.6922e-09
7.50786e-08
2.65628e-09
7.47882e-08
2.62255e-09
7.44922e-08
2.59092e-09
7.4191e-08
2.56128e-09
7.38848e-08
2.53348e-09
7.35738e-08
2.50737e-09
7.32579e-08
2.48278e-09
7.29374e-08
2.45957e-09
7.26123e-08
2.43759e-09
7.22825e-08
2.4167e-09
7.19483e-08
2.39677e-09
7.16094e-08
2.37769e-09
7.12661e-08
2.35935e-09
7.09182e-08
2.34168e-09
7.05659e-08
2.32459e-09
7.0209e-08
2.30802e-09
6.98477e-08
2.29191e-09
6.94819e-08
2.27621e-09
6.91117e-08
2.26088e-09
6.87371e-08
2.24589e-09
6.83581e-08
2.23121e-09
6.79749e-08
2.2168e-09
6.75873e-08
2.20265e-09
6.71956e-08
2.18874e-09
6.67996e-08
2.17504e-09
6.63996e-08
2.16154e-09
6.59955e-08
2.14821e-09
6.55874e-08
2.13506e-09
6.51755e-08
2.12204e-09
6.47597e-08
2.10917e-09
6.43401e-08
2.09641e-09
6.39169e-08
2.08375e-09
6.34901e-08
2.07119e-09
6.30598e-08
2.0587e-09
6.26261e-08
2.04628e-09
6.21891e-08
2.03392e-09
6.17489e-08
2.02159e-09
6.13055e-08
2.00931e-09
6.08592e-08
1.99704e-09
6.04099e-08
1.98479e-09
5.99579e-08
1.97256e-09
5.95031e-08
1.96032e-09
5.90458e-08
1.94809e-09
5.8586e-08
1.93586e-09
5.81239e-08
1.92362e-09
5.76595e-08
1.91138e-09
5.7193e-08
1.89914e-09
5.67244e-08
1.88691e-09
5.6254e-08
1.87469e-09
5.57818e-08
1.86249e-09
5.53078e-08
1.85034e-09
5.48324e-08
1.83824e-09
5.43554e-08
1.82622e-09
5.38771e-08
1.81432e-09
5.33975e-08
1.80258e-09
5.29166e-08
1.79106e-09
5.24347e-08
1.77985e-09
5.19517e-08
1.76907e-09
5.14676e-08
1.75893e-09
5.09826e-08
1.74976e-09
5.04966e-08
1.74212e-09
5.00103e-08
1.73699e-09
4.95255e-08
1.73583e-09
4.90488e-08
1.73888e-09
1.73353e-09
8.6305e-08
2.42591e-09
-8.64113e-08
8.62187e-08
2.56031e-09
8.6147e-08
2.68798e-09
8.6085e-08
2.8066e-09
8.6029e-08
2.91547e-09
8.59767e-08
3.01462e-09
8.59262e-08
3.10413e-09
8.58758e-08
3.18411e-09
8.58244e-08
3.25468e-09
8.57709e-08
3.31602e-09
8.57143e-08
3.36832e-09
8.56538e-08
3.41174e-09
8.55886e-08
3.44648e-09
8.55178e-08
3.47273e-09
8.54407e-08
3.49074e-09
8.53566e-08
3.5008e-09
8.52648e-08
3.50329e-09
8.51647e-08
3.49862e-09
8.50558e-08
3.4873e-09
8.49376e-08
3.46991e-09
8.48099e-08
3.44709e-09
8.46724e-08
3.4195e-09
8.45251e-08
3.38789e-09
8.4368e-08
3.35298e-09
8.42013e-08
3.31551e-09
8.40253e-08
3.27622e-09
8.38403e-08
3.23577e-09
8.36468e-08
3.1948e-09
8.34453e-08
3.15388e-09
8.32362e-08
3.11349e-09
8.30202e-08
3.07407e-09
8.27976e-08
3.03593e-09
8.25691e-08
2.99934e-09
8.2335e-08
2.96447e-09
8.20958e-08
2.93143e-09
8.18518e-08
2.90029e-09
8.16033e-08
2.87105e-09
8.13505e-08
2.84366e-09
8.10938e-08
2.81805e-09
8.08331e-08
2.79414e-09
8.05687e-08
2.7718e-09
8.03005e-08
2.75093e-09
8.00287e-08
2.73141e-09
7.97532e-08
2.7131e-09
7.9474e-08
2.6959e-09
7.9191e-08
2.6797e-09
7.89043e-08
2.6644e-09
7.86138e-08
2.64989e-09
7.83193e-08
2.63611e-09
7.8021e-08
2.62298e-09
7.77186e-08
2.61042e-09
7.74121e-08
2.5984e-09
7.71014e-08
2.58684e-09
7.67866e-08
2.57572e-09
7.64675e-08
2.565e-09
7.61441e-08
2.55463e-09
7.58163e-08
2.54458e-09
7.54841e-08
2.53484e-09
7.51475e-08
2.52536e-09
7.48064e-08
2.51614e-09
7.44608e-08
2.50714e-09
7.41107e-08
2.49835e-09
7.3756e-08
2.48974e-09
7.33967e-08
2.4813e-09
7.30329e-08
2.473e-09
7.26645e-08
2.46483e-09
7.22914e-08
2.45676e-09
7.19138e-08
2.44879e-09
7.15317e-08
2.44089e-09
7.11449e-08
2.43304e-09
7.07536e-08
2.42524e-09
7.03577e-08
2.41746e-09
6.99573e-08
2.4097e-09
6.95524e-08
2.40193e-09
6.91431e-08
2.39415e-09
6.87293e-08
2.38635e-09
6.83111e-08
2.37851e-09
6.78885e-08
2.37064e-09
6.74617e-08
2.36271e-09
6.70306e-08
2.35474e-09
6.65953e-08
2.34671e-09
6.61558e-08
2.33862e-09
6.57122e-08
2.33049e-09
6.52646e-08
2.32231e-09
6.4813e-08
2.31409e-09
6.43575e-08
2.30584e-09
6.38981e-08
2.29759e-09
6.3435e-08
2.28936e-09
6.29681e-08
2.28118e-09
6.24976e-08
2.2731e-09
6.20235e-08
2.26518e-09
6.15458e-08
2.25751e-09
6.10647e-08
2.25021e-09
6.05801e-08
2.24346e-09
6.00924e-08
2.23752e-09
5.96017e-08
2.23279e-09
5.9109e-08
2.22969e-09
5.86165e-08
2.22829e-09
5.81292e-08
2.22626e-09
2.21096e-09
9.34025e-08
2.55091e-09
-9.35275e-08
9.32933e-08
2.66951e-09
9.3197e-08
2.78427e-09
9.31104e-08
2.89323e-09
9.30306e-08
2.99526e-09
9.29554e-08
3.0898e-09
9.2883e-08
3.17654e-09
9.28118e-08
3.2553e-09
9.27405e-08
3.326e-09
9.26679e-08
3.38861e-09
9.25931e-08
3.44317e-09
9.25151e-08
3.48977e-09
9.2433e-08
3.52849e-09
9.23463e-08
3.5595e-09
9.2254e-08
3.58297e-09
9.21557e-08
3.59915e-09
9.20506e-08
3.60835e-09
9.19383e-08
3.61092e-09
9.18183e-08
3.60728e-09
9.16903e-08
3.59793e-09
9.1554e-08
3.58339e-09
9.14093e-08
3.56426e-09
9.1256e-08
3.54113e-09
9.10943e-08
3.51466e-09
9.09244e-08
3.48547e-09
9.07464e-08
3.4542e-09
9.05607e-08
3.42144e-09
9.03678e-08
3.38778e-09
9.01679e-08
3.35373e-09
8.99617e-08
3.31975e-09
8.97495e-08
3.28624e-09
8.95319e-08
3.25355e-09
8.93093e-08
3.22193e-09
8.90821e-08
3.19161e-09
8.88508e-08
3.16273e-09
8.86157e-08
3.13539e-09
8.83772e-08
3.10963e-09
8.81353e-08
3.08547e-09
8.78905e-08
3.06289e-09
8.76428e-08
3.04183e-09
8.73924e-08
3.02224e-09
8.71393e-08
3.00403e-09
8.68836e-08
2.98712e-09
8.66252e-08
2.97142e-09
8.63643e-08
2.95683e-09
8.61008e-08
2.94327e-09
8.58345e-08
2.93066e-09
8.55655e-08
2.91891e-09
8.52936e-08
2.90796e-09
8.50189e-08
2.89773e-09
8.47411e-08
2.88818e-09
8.44603e-08
2.87924e-09
8.41763e-08
2.87087e-09
8.3889e-08
2.86302e-09
8.35983e-08
2.85565e-09
8.33042e-08
2.84873e-09
8.30065e-08
2.84223e-09
8.27053e-08
2.83612e-09
8.24003e-08
2.83036e-09
8.20915e-08
2.82494e-09
8.17788e-08
2.81982e-09
8.14622e-08
2.81499e-09
8.11415e-08
2.81042e-09
8.08167e-08
2.80609e-09
8.04877e-08
2.80197e-09
8.01545e-08
2.79805e-09
7.9817e-08
2.7943e-09
7.94751e-08
2.79071e-09
7.91287e-08
2.78725e-09
7.87778e-08
2.7839e-09
7.84224e-08
2.78065e-09
7.80624e-08
2.77748e-09
7.76977e-08
2.77437e-09
7.73283e-08
2.77131e-09
7.69542e-08
2.76828e-09
7.65753e-08
2.76526e-09
7.61916e-08
2.76224e-09
7.5803e-08
2.75922e-09
7.54095e-08
2.75618e-09
7.50111e-08
2.75311e-09
7.46078e-08
2.75002e-09
7.41996e-08
2.74688e-09
7.37863e-08
2.74372e-09
7.33681e-08
2.74052e-09
7.29449e-08
2.73729e-09
7.25167e-08
2.73404e-09
7.20835e-08
2.73079e-09
7.16453e-08
2.72757e-09
7.12021e-08
2.7244e-09
7.07539e-08
2.72132e-09
7.03007e-08
2.71839e-09
6.98425e-08
2.71569e-09
6.93794e-08
2.71332e-09
6.89114e-08
2.71142e-09
6.84388e-08
2.71015e-09
6.7962e-08
2.70965e-09
6.74818e-08
2.70987e-09
6.7e-08
2.71006e-09
6.65188e-08
2.70749e-09
2.69436e-09
1.01065e-07
2.69408e-09
-1.01208e-07
1.00934e-07
2.80021e-09
1.00814e-07
2.90409e-09
1.00703e-07
3.00422e-09
1.00599e-07
3.09948e-09
1.005e-07
3.1891e-09
1.00404e-07
3.27256e-09
1.0031e-07
3.3495e-09
1.00216e-07
3.41967e-09
1.00122e-07
3.48289e-09
1.00026e-07
3.53909e-09
9.99272e-08
3.58824e-09
9.98254e-08
3.63036e-09
9.97193e-08
3.66552e-09
9.96084e-08
3.69386e-09
9.9492e-08
3.71555e-09
9.93696e-08
3.73082e-09
9.92405e-08
3.73997e-09
9.91045e-08
3.74334e-09
9.89611e-08
3.74132e-09
9.88101e-08
3.73438e-09
9.86514e-08
3.72298e-09
9.84849e-08
3.70765e-09
9.83106e-08
3.68893e-09
9.81287e-08
3.66736e-09
9.79394e-08
3.64349e-09
9.7743e-08
3.61786e-09
9.75398e-08
3.59096e-09
9.73303e-08
3.56328e-09
9.71148e-08
3.53524e-09
9.68938e-08
3.50723e-09
9.66677e-08
3.47959e-09
9.64371e-08
3.45258e-09
9.62023e-08
3.42643e-09
9.59636e-08
3.40134e-09
9.57216e-08
3.37742e-09
9.54765e-08
3.35476e-09
9.52285e-08
3.33343e-09
9.4978e-08
3.31343e-09
9.4725e-08
3.29477e-09
9.44699e-08
3.27742e-09
9.42126e-08
3.26133e-09
9.39532e-08
3.24646e-09
9.36919e-08
3.23275e-09
9.34286e-08
3.22013e-09
9.31633e-08
3.20854e-09
9.2896e-08
3.19792e-09
9.26268e-08
3.18819e-09
9.23554e-08
3.17931e-09
9.20819e-08
3.17122e-09
9.18062e-08
3.16386e-09
9.15283e-08
3.15719e-09
9.1248e-08
3.15117e-09
9.09653e-08
3.14575e-09
9.068e-08
3.1409e-09
9.03921e-08
3.13659e-09
9.01016e-08
3.13278e-09
8.98083e-08
3.12944e-09
8.95121e-08
3.12656e-09
8.92129e-08
3.12409e-09
8.89107e-08
3.12202e-09
8.86054e-08
3.12033e-09
8.82968e-08
3.11899e-09
8.79849e-08
3.11797e-09
8.76696e-08
3.11726e-09
8.73509e-08
3.11683e-09
8.70285e-08
3.11667e-09
8.67024e-08
3.11675e-09
8.63726e-08
3.11705e-09
8.6039e-08
3.11755e-09
8.57014e-08
3.11824e-09
8.53598e-08
3.11909e-09
8.50141e-08
3.12009e-09
8.46642e-08
3.12122e-09
8.431e-08
3.12246e-09
8.39514e-08
3.1238e-09
8.35885e-08
3.12523e-09
8.3221e-08
3.12672e-09
8.28489e-08
3.12828e-09
8.24721e-08
3.12989e-09
8.20906e-08
3.13154e-09
8.17042e-08
3.13323e-09
8.1313e-08
3.13496e-09
8.09168e-08
3.13672e-09
8.05155e-08
3.13852e-09
8.01092e-08
3.14037e-09
7.96977e-08
3.14228e-09
7.9281e-08
3.14427e-09
7.8859e-08
3.14637e-09
7.84317e-08
3.14862e-09
7.79991e-08
3.15105e-09
7.7561e-08
3.15374e-09
7.71176e-08
3.15676e-09
7.66688e-08
3.16018e-09
7.62149e-08
3.16406e-09
7.57562e-08
3.16835e-09
7.52933e-08
3.17274e-09
7.48271e-08
3.17628e-09
7.43575e-08
3.17711e-09
3.17263e-09
1.09337e-07
2.85569e-09
-1.09499e-07
1.09186e-07
2.95207e-09
1.09043e-07
3.04707e-09
1.08907e-07
3.13961e-09
1.08778e-07
3.22872e-09
1.08653e-07
3.31362e-09
1.08532e-07
3.39372e-09
1.08413e-07
3.46856e-09
1.08295e-07
3.53779e-09
1.08177e-07
3.60116e-09
1.08057e-07
3.65849e-09
1.07936e-07
3.70967e-09
1.07812e-07
3.75464e-09
1.07684e-07
3.79341e-09
1.07552e-07
3.82605e-09
1.07414e-07
3.85267e-09
1.07272e-07
3.87343e-09
1.07123e-07
3.88856e-09
1.06968e-07
3.89832e-09
1.06807e-07
3.90305e-09
1.06638e-07
3.90309e-09
1.06462e-07
3.89884e-09
1.06279e-07
3.89075e-09
1.06089e-07
3.87926e-09
1.05891e-07
3.86483e-09
1.05687e-07
3.84795e-09
1.05475e-07
3.82906e-09
1.05258e-07
3.80862e-09
1.05034e-07
3.78706e-09
1.04804e-07
3.76476e-09
1.0457e-07
3.7421e-09
1.0433e-07
3.7194e-09
1.04085e-07
3.69692e-09
1.03837e-07
3.67493e-09
1.03585e-07
3.6536e-09
1.03329e-07
3.63309e-09
1.0307e-07
3.61354e-09
1.02809e-07
3.59502e-09
1.02544e-07
3.57758e-09
1.02278e-07
3.56127e-09
1.02009e-07
3.54609e-09
1.01739e-07
3.53204e-09
1.01466e-07
3.51909e-09
1.01191e-07
3.50722e-09
1.00915e-07
3.49638e-09
1.00637e-07
3.48654e-09
1.00358e-07
3.47765e-09
1.00076e-07
3.46966e-09
9.97928e-08
3.46254e-09
9.95078e-08
3.45623e-09
9.9221e-08
3.4507e-09
9.89323e-08
3.4459e-09
9.86416e-08
3.4418e-09
9.8349e-08
3.43836e-09
9.80544e-08
3.43555e-09
9.77576e-08
3.43334e-09
9.74587e-08
3.4317e-09
9.71575e-08
3.43061e-09
9.6854e-08
3.43003e-09
9.65482e-08
3.42994e-09
9.62399e-08
3.43032e-09
9.59291e-08
3.43116e-09
9.56156e-08
3.43241e-09
9.52995e-08
3.43407e-09
9.49807e-08
3.43611e-09
9.4659e-08
3.43852e-09
9.43344e-08
3.44127e-09
9.40068e-08
3.44434e-09
9.36762e-08
3.44771e-09
9.33423e-08
3.45137e-09
9.30053e-08
3.45529e-09
9.26649e-08
3.45947e-09
9.23211e-08
3.46387e-09
9.19739e-08
3.4685e-09
9.1623e-08
3.47332e-09
9.12685e-08
3.47832e-09
9.09102e-08
3.4835e-09
9.05481e-08
3.48884e-09
9.0182e-08
3.49433e-09
8.9812e-08
3.49996e-09
8.94378e-08
3.50572e-09
8.90594e-08
3.5116e-09
8.86768e-08
3.51761e-09
8.82897e-08
3.52375e-09
8.78982e-08
3.53001e-09
8.75022e-08
3.53641e-09
8.71015e-08
3.54295e-09
8.66962e-08
3.54965e-09
8.6286e-08
3.55654e-09
8.5871e-08
3.56364e-09
8.5451e-08
3.57099e-09
8.50261e-08
3.57863e-09
8.45963e-08
3.58661e-09
8.41615e-08
3.59494e-09
8.37219e-08
3.60364e-09
8.32777e-08
3.61257e-09
8.28291e-08
3.6214e-09
8.23759e-08
3.62945e-09
8.19173e-08
3.63571e-09
3.63963e-09
6.85646e-08
2.72285e-09
-6.84317e-08
6.8704e-08
2.81269e-09
6.88496e-08
2.90141e-09
6.90011e-08
2.98811e-09
6.91579e-08
3.07194e-09
6.93193e-08
3.15218e-09
6.94848e-08
3.22825e-09
6.96537e-08
3.29967e-09
6.98254e-08
3.36609e-09
6.99994e-08
3.42721e-09
7.0175e-08
3.48283e-09
7.03519e-08
3.5328e-09
7.05295e-08
3.57704e-09
7.07074e-08
3.61553e-09
7.08851e-08
3.6483e-09
7.10624e-08
3.67543e-09
7.12387e-08
3.69705e-09
7.1414e-08
3.71335e-09
7.15877e-08
3.72457e-09
7.17598e-08
3.73097e-09
7.193e-08
3.73287e-09
7.20982e-08
3.73063e-09
7.22643e-08
3.72463e-09
7.24283e-08
3.71528e-09
7.25902e-08
3.70298e-09
7.27499e-08
3.68817e-09
7.29077e-08
3.67125e-09
7.30637e-08
3.65266e-09
7.3218e-08
3.63277e-09
7.33708e-08
3.61195e-09
7.35224e-08
3.59056e-09
7.36729e-08
3.56889e-09
7.38226e-08
3.54722e-09
7.39717e-08
3.5258e-09
7.41205e-08
3.50481e-09
7.42692e-08
3.48442e-09
7.44179e-08
3.46478e-09
7.4567e-08
3.44597e-09
7.47164e-08
3.42808e-09
7.48666e-08
3.41116e-09
7.50174e-08
3.39523e-09
7.51692e-08
3.3803e-09
7.53219e-08
3.36638e-09
7.54756e-08
3.35345e-09
7.56305e-08
3.34149e-09
7.57866e-08
3.33047e-09
7.59439e-08
3.32036e-09
7.61024e-08
3.31112e-09
7.62622e-08
3.30273e-09
7.64233e-08
3.29513e-09
7.65857e-08
3.28831e-09
7.67494e-08
3.28222e-09
7.69144e-08
3.27683e-09
7.70806e-08
3.27211e-09
7.72482e-08
3.26803e-09
7.74169e-08
3.26457e-09
7.75869e-08
3.26169e-09
7.77582e-08
3.25938e-09
7.79306e-08
3.2576e-09
7.81042e-08
3.25634e-09
7.82789e-08
3.25558e-09
7.84548e-08
3.25528e-09
7.86318e-08
3.25544e-09
7.88098e-08
3.25604e-09
7.89889e-08
3.25705e-09
7.91689e-08
3.25845e-09
7.935e-08
3.26023e-09
7.95319e-08
3.26238e-09
7.97148e-08
3.26486e-09
7.98985e-08
3.26768e-09
8.0083e-08
3.27081e-09
8.02682e-08
3.27423e-09
8.04541e-08
3.27794e-09
8.06407e-08
3.28192e-09
8.08279e-08
3.28616e-09
8.10156e-08
3.29064e-09
8.12037e-08
3.29536e-09
8.13922e-08
3.30031e-09
8.15811e-08
3.30548e-09
8.17702e-08
3.31087e-09
8.19594e-08
3.31647e-09
8.21487e-08
3.32228e-09
8.2338e-08
3.32831e-09
8.25272e-08
3.33456e-09
8.27162e-08
3.34103e-09
8.29049e-08
3.34774e-09
8.30931e-08
3.3547e-09
8.32808e-08
3.36193e-09
8.34679e-08
3.36947e-09
8.36542e-08
3.37733e-09
8.38397e-08
3.38554e-09
8.40242e-08
3.39415e-09
8.42076e-08
3.40318e-09
8.43899e-08
3.41263e-09
8.45711e-08
3.42246e-09
8.47511e-08
3.43256e-09
8.49298e-08
3.44268e-09
8.51069e-08
3.4524e-09
8.52815e-08
3.46103e-09
3.46766e-09
7.5772e-08
2.57768e-09
-7.56268e-08
7.59232e-08
2.66144e-09
7.60804e-08
2.74427e-09
7.6243e-08
2.82543e-09
7.64108e-08
2.90417e-09
7.65831e-08
2.97984e-09
7.67595e-08
3.05189e-09
7.69393e-08
3.11985e-09
7.71221e-08
3.18335e-09
7.73072e-08
3.24209e-09
7.74942e-08
3.29584e-09
7.76826e-08
3.34442e-09
7.78719e-08
3.38773e-09
7.80617e-08
3.42572e-09
7.82516e-08
3.45839e-09
7.84412e-08
3.48579e-09
7.86302e-08
3.50802e-09
7.88184e-08
3.52523e-09
7.90053e-08
3.53762e-09
7.91909e-08
3.54542e-09
7.93748e-08
3.54891e-09
7.95571e-08
3.54839e-09
7.97375e-08
3.5442e-09
7.99161e-08
3.5367e-09
8.00928e-08
3.52626e-09
8.02677e-08
3.51326e-09
8.04409e-08
3.49808e-09
8.06124e-08
3.4811e-09
8.07825e-08
3.46267e-09
8.09513e-08
3.44315e-09
8.11191e-08
3.42284e-09
8.12859e-08
3.40206e-09
8.14521e-08
3.38105e-09
8.16178e-08
3.36007e-09
8.17833e-08
3.3393e-09
8.19488e-08
3.31893e-09
8.21145e-08
3.2991e-09
8.22805e-08
3.27991e-09
8.24471e-08
3.26147e-09
8.26145e-08
3.24384e-09
8.27826e-08
3.22706e-09
8.29518e-08
3.21116e-09
8.3122e-08
3.19616e-09
8.32934e-08
3.18205e-09
8.34661e-08
3.16884e-09
8.364e-08
3.15651e-09
8.38153e-08
3.14504e-09
8.39921e-08
3.1344e-09
8.41702e-08
3.12456e-09
8.43499e-08
3.11551e-09
8.4531e-08
3.10721e-09
8.47135e-08
3.09963e-09
8.48976e-08
3.09274e-09
8.50832e-08
3.08653e-09
8.52703e-08
3.08095e-09
8.54589e-08
3.07599e-09
8.56489e-08
3.07162e-09
8.58405e-08
3.06782e-09
8.60335e-08
3.06456e-09
8.62281e-08
3.06183e-09
8.6424e-08
3.0596e-09
8.66215e-08
3.05786e-09
8.68203e-08
3.05658e-09
8.70206e-08
3.05575e-09
8.72223e-08
3.05534e-09
8.74254e-08
3.05535e-09
8.76299e-08
3.05575e-09
8.78357e-08
3.05653e-09
8.80429e-08
3.05767e-09
8.82514e-08
3.05917e-09
8.84613e-08
3.061e-09
8.86723e-08
3.06315e-09
8.88847e-08
3.06561e-09
8.90982e-08
3.06837e-09
8.9313e-08
3.07142e-09
8.95289e-08
3.07475e-09
8.97459e-08
3.07836e-09
8.99639e-08
3.08223e-09
9.01831e-08
3.08637e-09
9.04032e-08
3.09076e-09
9.06242e-08
3.09542e-09
9.08462e-08
3.10034e-09
9.10689e-08
3.10554e-09
9.12925e-08
3.11101e-09
9.15167e-08
3.11676e-09
9.17417e-08
3.12282e-09
9.19671e-08
3.12921e-09
9.21931e-08
3.13593e-09
9.24196e-08
3.14303e-09
9.26464e-08
3.15053e-09
9.28735e-08
3.15846e-09
9.31008e-08
3.16685e-09
9.33282e-08
3.17572e-09
9.35558e-08
3.18508e-09
9.37833e-08
3.1949e-09
9.40108e-08
3.20511e-09
9.42379e-08
3.21555e-09
9.44644e-08
3.22593e-09
9.46897e-08
3.2357e-09
3.24435e-09
8.37336e-08
2.41934e-09
-8.35753e-08
8.38976e-08
2.49743e-09
8.40672e-08
2.57473e-09
8.4242e-08
2.65063e-09
8.44217e-08
2.72447e-09
8.46058e-08
2.79568e-09
8.4794e-08
2.86374e-09
8.49856e-08
2.92821e-09
8.51802e-08
2.98872e-09
8.53774e-08
3.04496e-09
8.55765e-08
3.09668e-09
8.57773e-08
3.14369e-09
8.59791e-08
3.18588e-09
8.61817e-08
3.22315e-09
8.63846e-08
3.25548e-09
8.65875e-08
3.28289e-09
8.67901e-08
3.30546e-09
8.6992e-08
3.3233e-09
8.7193e-08
3.33657e-09
8.7393e-08
3.34547e-09
8.75917e-08
3.35023e-09
8.77889e-08
3.35112e-09
8.79847e-08
3.34843e-09
8.81789e-08
3.34248e-09
8.83716e-08
3.3336e-09