/*--------------------------------*- C++ -*----------------------------------*\
| =========                 |                                                 |
| \\      /  F ield         | OpenFOAM: The Open Source CFD Toolbox           |
|  \\    /   O peration     | Version:  2.3.0                                 |
|   \\  /    A nd           | Web:      www.OpenFOAM.org                      |
|    \\/     M anipulation  |                                                 |
\*---------------------------------------------------------------------------*/
FoamFile
{
    version     2.0;
    format      ascii;
    class       surfaceScalarField;
    location    "1";
    object      phi;
}
// * * * * * * * * * * * * * * * * * * * * * * * * * * * * * * * * * * * * * //

dimensions      [0 3 -1 0 0 0 0];

internalField   nonuniform List<scalar> 
17305
(
2.83718e-08
2.87929e-09
-3.12511e-08
2.5508e-08
2.86379e-09
2.28205e-08
2.68754e-09
2.0343e-08
2.47749e-09
1.80917e-08
2.25136e-09
1.6077e-08
2.01463e-09
1.43016e-08
1.77545e-09
1.276e-08
1.5416e-09
1.14403e-08
1.31963e-09
1.03255e-08
1.11488e-09
9.39418e-09
9.31278e-10
8.62307e-09
7.71111e-10
7.98806e-09
6.35017e-10
7.46588e-09
5.22171e-10
7.03526e-09
4.30627e-10
6.67753e-09
3.5773e-10
6.37702e-09
3.00511e-10
6.121e-09
2.56019e-10
5.89945e-09
2.21547e-10
5.70468e-09
1.94765e-10
5.53092e-09
1.73765e-10
5.37387e-09
1.57048e-10
5.23039e-09
1.43479e-10
5.09817e-09
1.32222e-10
4.97549e-09
1.22679e-10
4.86107e-09
1.14425e-10
4.7539e-09
1.07167e-10
4.6532e-09
1.00698e-10
4.55833e-09
9.48761e-11
4.46873e-09
8.95978e-11
4.38394e-09
8.47872e-11
4.30356e-09
8.03861e-11
4.22721e-09
7.63478e-11
4.15457e-09
7.26333e-11
4.08536e-09
6.92095e-11
4.01932e-09
6.60473e-11
3.9562e-09
6.3121e-11
3.89579e-09
6.04079e-11
3.8379e-09
5.78875e-11
3.78236e-09
5.55418e-11
3.729e-09
5.33544e-11
3.67769e-09
5.1311e-11
3.62829e-09
4.93987e-11
3.58069e-09
4.76059e-11
3.53477e-09
4.59224e-11
3.49043e-09
4.4339e-11
3.44758e-09
4.28476e-11
3.40614e-09
4.14408e-11
3.36603e-09
4.0112e-11
3.32717e-09
3.88553e-11
3.28951e-09
3.76652e-11
3.25297e-09
3.6537e-11
3.2175e-09
3.54663e-11
3.18305e-09
3.44491e-11
3.14957e-09
3.34817e-11
3.11701e-09
3.25609e-11
3.08533e-09
3.16836e-11
3.05448e-09
3.08471e-11
3.02443e-09
3.00487e-11
2.99515e-09
2.92862e-11
2.96659e-09
2.85575e-11
2.93873e-09
2.78605e-11
2.91153e-09
2.71935e-11
2.88498e-09
2.65547e-11
2.85904e-09
2.59426e-11
2.83368e-09
2.53558e-11
2.80889e-09
2.47929e-11
2.78464e-09
2.42527e-11
2.7609e-09
2.37341e-11
2.73767e-09
2.32359e-11
2.71491e-09
2.27574e-11
2.69261e-09
2.22974e-11
2.67076e-09
2.18552e-11
2.64933e-09
2.143e-11
2.6283e-09
2.10212e-11
2.60768e-09
2.06279e-11
2.58743e-09
2.02496e-11
2.56754e-09
1.98859e-11
2.54801e-09
1.95361e-11
2.52881e-09
1.91997e-11
2.50993e-09
1.88764e-11
2.49136e-09
1.85658e-11
2.4731e-09
1.82676e-11
2.45511e-09
1.79815e-11
2.43741e-09
1.77072e-11
2.41996e-09
1.74445e-11
2.40277e-09
1.71934e-11
2.38582e-09
1.69539e-11
2.36909e-09
1.67257e-11
2.35258e-09
1.65093e-11
2.33628e-09
1.63051e-11
2.32016e-09
1.6114e-11
2.30422e-09
1.59375e-11
2.28844e-09
1.57797e-11
2.2728e-09
1.56489e-11
2.25723e-09
1.55668e-11
2.24163e-09
1.55969e-11
2.22574e-09
1.5896e-11
2.20924e-09
1.64951e-11
5.00054e-11
3.34102e-08
3.15069e-09
-3.36816e-08
3.28251e-08
3.44887e-09
3.20081e-08
3.50459e-09
3.10358e-08
3.44973e-09
2.99638e-08
3.32338e-09
2.88375e-08
3.1409e-09
2.76939e-08
2.9191e-09
2.65611e-08
2.67434e-09
2.54602e-08
2.42057e-09
2.44058e-08
2.1693e-09
2.34074e-08
1.92966e-09
2.24703e-08
1.70818e-09
2.15965e-08
1.50883e-09
2.07855e-08
1.3332e-09
2.0035e-08
1.18108e-09
1.93419e-08
1.05091e-09
1.8702e-08
9.40367e-10
1.81112e-08
8.46787e-10
1.75653e-08
7.6751e-10
1.706e-08
7.00078e-10
1.65914e-08
6.42346e-10
1.61559e-08
5.92517e-10
1.57503e-08
5.49128e-10
1.53715e-08
5.11013e-10
1.50169e-08
4.77252e-10
1.46842e-08
4.47126e-10
1.43713e-08
4.20072e-10
1.40763e-08
3.95642e-10
1.37977e-08
3.73481e-10
1.3534e-08
3.53299e-10
1.3284e-08
3.34858e-10
1.30464e-08
3.17958e-10
1.28203e-08
3.0243e-10
1.26048e-08
2.88126e-10
1.23991e-08
2.7492e-10
1.22025e-08
2.627e-10
1.20142e-08
2.5137e-10
1.18338e-08
2.40842e-10
1.16606e-08
2.31042e-10
1.14943e-08
2.219e-10
1.13343e-08
2.13358e-10
1.11802e-08
2.05361e-10
1.10317e-08
1.97863e-10
1.08885e-08
1.9082e-10
1.07503e-08
1.84196e-10
1.06166e-08
1.77955e-10
1.04874e-08
1.72068e-10
1.03624e-08
1.66507e-10
1.02412e-08
1.61247e-10
1.01238e-08
1.56267e-10
1.00099e-08
1.51545e-10
9.8994e-09
1.47063e-10
9.79207e-09
1.42805e-10
9.68776e-09
1.38756e-10
9.58634e-09
1.34902e-10
9.48767e-09
1.31229e-10
9.39163e-09
1.27727e-10
9.29809e-09
1.24384e-10
9.20695e-09
1.21192e-10
9.11809e-09
1.1814e-10
9.03143e-09
1.15222e-10
8.94686e-09
1.12428e-10
8.8643e-09
1.09752e-10
8.78367e-09
1.07187e-10
8.70489e-09
1.04727e-10
8.62788e-09
1.02368e-10
8.55257e-09
1.00102e-10
8.47889e-09
9.79266e-11
8.40679e-09
9.58361e-11
8.3362e-09
9.38266e-11
8.26706e-09
9.18943e-11
8.19932e-09
9.00356e-11
8.13293e-09
8.82471e-11
8.06784e-09
8.65257e-11
8.00399e-09
8.48686e-11
7.94134e-09
8.32732e-11
7.87986e-09
8.17369e-11
7.81948e-09
8.02576e-11
7.76019e-09
7.88331e-11
7.70193e-09
7.74616e-11
7.64466e-09
7.61413e-11
7.58836e-09
7.48707e-11
7.53297e-09
7.36484e-11
7.47848e-09
7.24732e-11
7.42485e-09
7.13439e-11
7.37203e-09
7.02598e-11
7.32e-09
6.92202e-11
7.26873e-09
6.82248e-11
7.21819e-09
6.72731e-11
7.16833e-09
6.63659e-11
7.11913e-09
6.55043e-11
7.07055e-09
6.46907e-11
7.02256e-09
6.39305e-11
6.9751e-09
6.32354e-11
6.92812e-09
6.26325e-11
6.8815e-09
6.21922e-11
6.83498e-09
6.21112e-11
6.78796e-09
6.29185e-11
6.73483e-09
6.96289e-11
1.25886e-10
3.48057e-08
2.9974e-09
-3.46524e-08
3.48706e-08
3.38393e-09
3.48094e-08
3.56577e-09
3.46277e-08
3.63142e-09
3.43362e-08
3.61496e-09
3.39489e-08
3.52812e-09
3.34835e-08
3.38459e-09
3.29575e-08
3.20032e-09
3.23877e-08
2.99036e-09
3.1789e-08
2.76802e-09
3.1174e-08
2.54456e-09
3.05534e-08
2.32884e-09
2.99352e-08
2.12706e-09
2.93255e-08
1.94291e-09
2.87286e-08
1.77793e-09
2.81475e-08
1.632e-09
2.7584e-08
1.50392e-09
2.70389e-08
1.39186e-09
2.65127e-08
1.29373e-09
2.60053e-08
1.20749e-09
2.55164e-08
1.13124e-09
2.50455e-08
1.06336e-09
2.45922e-08
1.00246e-09
2.41558e-08
9.47447e-10
2.37356e-08
8.97417e-10
2.33311e-08
8.51663e-10
2.29415e-08
8.09619e-10
2.25663e-08
7.70831e-10
2.22049e-08
7.34931e-10
2.18566e-08
7.01617e-10
2.15208e-08
6.70634e-10
2.1197e-08
6.41763e-10
2.08846e-08
6.14817e-10
2.05831e-08
5.89628e-10
2.0292e-08
5.66049e-10
2.00107e-08
5.43948e-10
1.97389e-08
5.23205e-10
1.9476e-08
5.03712e-10
1.92217e-08
4.85373e-10
1.89755e-08
4.68098e-10
1.8737e-08
4.51806e-10
1.8506e-08
4.36425e-10
1.8282e-08
4.21886e-10
1.80646e-08
4.0813e-10
1.78537e-08
3.951e-10
1.76489e-08
3.82746e-10
1.745e-08
3.71021e-10
1.72566e-08
3.59883e-10
1.70686e-08
3.49292e-10
1.68856e-08
3.39213e-10
1.67076e-08
3.29613e-10
1.65342e-08
3.2046e-10
1.63652e-08
3.11729e-10
1.62006e-08
3.03392e-10
1.60401e-08
2.95426e-10
1.58835e-08
2.87809e-10
1.57307e-08
2.80521e-10
1.55815e-08
2.73543e-10
1.54359e-08
2.66857e-10
1.52936e-08
2.60448e-10
1.51545e-08
2.543e-10
1.50185e-08
2.48399e-10
1.48855e-08
2.42733e-10
1.47554e-08
2.37289e-10
1.46281e-08
2.32056e-10
1.45035e-08
2.27024e-10
1.43814e-08
2.22182e-10
1.42618e-08
2.17522e-10
1.41446e-08
2.13035e-10
1.40297e-08
2.08713e-10
1.3917e-08
2.04549e-10
1.38065e-08
2.00536e-10
1.36981e-08
1.96666e-10
1.35917e-08
1.92936e-10
1.34872e-08
1.89338e-10
1.33846e-08
1.85867e-10
1.32839e-08
1.82519e-10
1.31848e-08
1.7929e-10
1.30875e-08
1.76174e-10
1.29918e-08
1.73169e-10
1.28977e-08
1.70271e-10
1.2805e-08
1.67476e-10
1.27139e-08
1.64782e-10
1.26242e-08
1.62186e-10
1.25359e-08
1.59687e-10
1.24488e-08
1.57282e-10
1.23631e-08
1.5497e-10
1.22786e-08
1.5275e-10
1.21952e-08
1.50621e-10
1.2113e-08
1.48585e-10
1.20319e-08
1.46643e-10
1.19517e-08
1.448e-10
1.18726e-08
1.43066e-10
1.17944e-08
1.41463e-10
1.1717e-08
1.40041e-10
1.16402e-08
1.38935e-10
1.15638e-08
1.38524e-10
1.14866e-08
1.40089e-10
1.14035e-08
1.52794e-10
2.14299e-10
3.56408e-08
2.80563e-09
-3.5449e-08
3.58363e-08
3.18842e-09
3.59907e-08
3.41134e-09
3.60917e-08
3.53043e-09
3.61327e-08
3.57397e-09
3.61098e-08
3.55101e-09
3.60236e-08
3.47085e-09
3.5878e-08
3.34586e-09
3.56795e-08
3.18894e-09
3.54353e-08
3.01214e-09
3.51537e-08
2.82624e-09
3.48423e-08
2.64022e-09
3.45084e-08
2.46093e-09
3.41583e-08
2.29301e-09
3.37972e-08
2.13904e-09
3.34292e-08
1.99997e-09
3.30576e-08
1.87553e-09
3.26848e-08
1.76469e-09
3.23125e-08
1.66601e-09
3.19421e-08
1.57792e-09
3.15744e-08
1.49888e-09
3.12103e-08
1.4275e-09
3.08502e-08
1.36258e-09
3.04945e-08
1.30314e-09
3.01435e-08
1.24836e-09
2.97976e-08
1.19759e-09
2.94569e-08
1.15031e-09
2.91216e-08
1.10612e-09
2.87919e-08
1.06468e-09
2.84678e-08
1.0257e-09
2.81494e-08
9.88981e-10
2.78369e-08
9.54314e-10
2.75302e-08
9.21539e-10
2.72293e-08
8.90512e-10
2.69342e-08
8.61105e-10
2.6645e-08
8.33204e-10
2.63615e-08
8.06704e-10
2.60837e-08
7.81513e-10
2.58115e-08
7.57545e-10
2.55449e-08
7.3472e-10
2.52837e-08
7.12967e-10
2.50279e-08
6.9222e-10
2.47774e-08
6.72418e-10
2.4532e-08
6.53503e-10
2.42917e-08
6.35424e-10
2.40563e-08
6.18133e-10
2.38257e-08
6.01584e-10
2.35999e-08
5.85737e-10
2.33786e-08
5.70551e-10
2.31619e-08
5.55993e-10
2.29494e-08
5.42026e-10
2.27413e-08
5.28622e-10
2.25373e-08
5.15749e-10
2.23373e-08
5.03382e-10
2.21412e-08
4.91494e-10
2.1949e-08
4.80061e-10
2.17604e-08
4.69061e-10
2.15755e-08
4.58473e-10
2.13941e-08
4.48277e-10
2.12161e-08
4.38455e-10
2.10414e-08
4.28989e-10
2.08699e-08
4.19862e-10
2.07016e-08
4.1106e-10
2.05363e-08
4.02568e-10
2.0374e-08
3.94372e-10
2.02145e-08
3.86459e-10
2.00579e-08
3.78818e-10
1.9904e-08
3.71436e-10
1.97527e-08
3.64304e-10
1.9604e-08
3.57411e-10
1.94578e-08
3.50748e-10
1.93141e-08
3.44306e-10
1.91726e-08
3.38076e-10
1.90335e-08
3.32051e-10
1.88966e-08
3.26224e-10
1.87619e-08
3.20586e-10
1.86293e-08
3.15133e-10
1.84987e-08
3.09859e-10
1.83702e-08
3.04756e-10
1.82435e-08
2.99822e-10
1.81187e-08
2.95051e-10
1.79958e-08
2.90438e-10
1.78746e-08
2.8598e-10
1.77551e-08
2.81674e-10
1.76373e-08
2.77517e-10
1.7521e-08
2.73506e-10
1.74064e-08
2.6964e-10
1.72932e-08
2.65917e-10
1.71815e-08
2.62338e-10
1.70712e-08
2.58903e-10
1.69622e-08
2.55616e-10
1.68545e-08
2.52484e-10
1.6748e-08
2.49522e-10
1.66427e-08
2.46763e-10
1.65385e-08
2.44285e-10
1.64351e-08
2.42286e-10
1.63323e-08
2.41342e-10
1.62289e-08
2.43486e-10
1.61228e-08
2.58928e-10
3.13869e-10
3.63927e-08
2.63765e-09
-3.62247e-08
3.65906e-08
2.99047e-09
3.67825e-08
3.21947e-09
3.69555e-08
3.35738e-09
3.71023e-08
3.42723e-09
3.72156e-08
3.43773e-09
3.72904e-08
3.39598e-09
3.73247e-08
3.31159e-09
3.73185e-08
3.19511e-09
3.72739e-08
3.05677e-09
3.71942e-08
2.90594e-09
3.70837e-08
2.75076e-09
3.69468e-08
2.59777e-09
3.67882e-08
2.45167e-09
3.66118e-08
2.31545e-09
3.64211e-08
2.19061e-09
3.62192e-08
2.07748e-09
3.60082e-08
1.97563e-09
3.57901e-08
1.88411e-09
3.55663e-08
1.80176e-09
3.53378e-08
1.72737e-09
3.51055e-08
1.65979e-09
3.48701e-08
1.59799e-09
3.46321e-08
1.5411e-09
3.43921e-08
1.48838e-09
3.41504e-08
1.43925e-09
3.39075e-08
1.39323e-09
3.36637e-08
1.34993e-09
3.34193e-08
1.30905e-09
3.31747e-08
1.27034e-09
3.29301e-08
1.23359e-09
3.26858e-08
1.19863e-09
3.2442e-08
1.16531e-09
3.2199e-08
1.13352e-09
3.1957e-08
1.10313e-09
3.17161e-08
1.07406e-09
3.14766e-08
1.04621e-09
3.12386e-08
1.01952e-09
3.10023e-08
9.93905e-10
3.07677e-08
9.69306e-10
3.0535e-08
9.45664e-10
3.03043e-08
9.22927e-10
3.00756e-08
9.01044e-10
2.98492e-08
8.79971e-10
2.96249e-08
8.59667e-10
2.9403e-08
8.40092e-10
2.91833e-08
8.21211e-10
2.89661e-08
8.0299e-10
2.87512e-08
7.85399e-10
2.85388e-08
7.68409e-10
2.83289e-08
7.51992e-10
2.81214e-08
7.36124e-10
2.79163e-08
7.2078e-10
2.77138e-08
7.05938e-10
2.75137e-08
6.91577e-10
2.73161e-08
6.77677e-10
2.71209e-08
6.64219e-10
2.69282e-08
6.51187e-10
2.67379e-08
6.38562e-10
2.655e-08
6.26329e-10
2.63646e-08
6.14473e-10
2.61814e-08
6.02981e-10
2.60007e-08
5.91837e-10
2.58222e-08
5.8103e-10
2.5646e-08
5.70548e-10
2.54721e-08
5.60379e-10
2.53004e-08
5.50511e-10
2.51309e-08
5.40935e-10
2.49636e-08
5.31641e-10
2.47984e-08
5.22619e-10
2.46353e-08
5.13861e-10
2.44742e-08
5.05358e-10
2.43152e-08
4.97103e-10
2.41581e-08
4.89088e-10
2.40031e-08
4.81306e-10
2.38499e-08
4.7375e-10
2.36986e-08
4.66415e-10
2.35492e-08
4.59295e-10
2.34016e-08
4.52384e-10
2.32557e-08
4.45677e-10
2.31116e-08
4.39171e-10
2.29692e-08
4.32861e-10
2.28284e-08
4.26744e-10
2.26892e-08
4.20817e-10
2.25517e-08
4.15077e-10
2.24157e-08
4.09523e-10
2.22812e-08
4.04153e-10
2.21481e-08
3.98967e-10
2.20165e-08
3.93965e-10
2.18862e-08
3.89151e-10
2.17573e-08
3.8453e-10
2.16297e-08
3.80111e-10
2.15033e-08
3.75917e-10
2.13781e-08
3.7199e-10
2.12539e-08
3.68433e-10
2.11307e-08
3.65499e-10
2.10081e-08
3.6391e-10
2.08856e-08
3.66049e-10
2.07637e-08
3.80795e-10
4.2191e-10
3.7138e-08
2.49586e-09
-3.69962e-08
3.73152e-08
2.81329e-09
3.74993e-08
3.03537e-09
3.76782e-08
3.17846e-09
3.78456e-08
3.25983e-09
3.79954e-08
3.28788e-09
3.81226e-08
3.26879e-09
3.82238e-08
3.21041e-09
3.82973e-08
3.1216e-09
3.8343e-08
3.01111e-09
3.83618e-08
2.88706e-09
3.8356e-08
2.75663e-09
3.8328e-08
2.62576e-09
3.82807e-08
2.49893e-09
3.8217e-08
2.37916e-09
3.81394e-08
2.26819e-09
3.80502e-08
2.16673e-09
3.79511e-08
2.0747e-09
3.78437e-08
1.99154e-09
3.7729e-08
1.91641e-09
3.7608e-08
1.84836e-09
3.74814e-08
1.78645e-09
3.73496e-08
1.72979e-09
3.72131e-08
1.67761e-09
3.70722e-08
1.62925e-09
3.69273e-08
1.58416e-09
3.67786e-08
1.54191e-09
3.66264e-08
1.50211e-09
3.6471e-08
1.46449e-09
3.63125e-08
1.42879e-09
3.61513e-08
1.39482e-09
3.59875e-08
1.36241e-09
3.58214e-08
1.33143e-09
3.56532e-08
1.30176e-09
3.5483e-08
1.27329e-09
3.53111e-08
1.24593e-09
3.51377e-08
1.21962e-09
3.4963e-08
1.19427e-09
3.47871e-08
1.16983e-09
3.46101e-08
1.14624e-09
3.44323e-08
1.12345e-09
3.42539e-08
1.10141e-09
3.40748e-08
1.08008e-09
3.38954e-08
1.05942e-09
3.37156e-08
1.03941e-09
3.35357e-08
1.02e-09
3.33558e-08
1.00117e-09
3.31759e-08
9.82894e-10
3.29961e-08
9.65145e-10
3.28166e-08
9.47901e-10
3.26375e-08
9.31141e-10
3.24587e-08
9.14846e-10
3.22805e-08
8.98996e-10
3.21029e-08
8.83577e-10
3.19259e-08
8.6857e-10
3.17496e-08
8.53962e-10
3.15741e-08
8.39739e-10
3.13994e-08
8.25886e-10
3.12256e-08
8.12393e-10
3.10526e-08
7.99248e-10
3.08807e-08
7.86438e-10
3.07097e-08
7.73955e-10
3.05398e-08
7.61787e-10
3.03709e-08
7.49925e-10
3.0203e-08
7.38361e-10
3.00363e-08
7.27087e-10
2.98708e-08
7.16093e-10
2.97063e-08
7.05373e-10
2.9543e-08
6.94919e-10
2.93809e-08
6.84724e-10
2.922e-08
6.74783e-10
2.90603e-08
6.65088e-10
2.89018e-08
6.55635e-10
2.87444e-08
6.46417e-10
2.85883e-08
6.37431e-10
2.84334e-08
6.2867e-10
2.82797e-08
6.20131e-10
2.81271e-08
6.11809e-10
2.79758e-08
6.03702e-10
2.78257e-08
5.95806e-10
2.76768e-08
5.88118e-10
2.7529e-08
5.80635e-10
2.73824e-08
5.73356e-10
2.72369e-08
5.6628e-10
2.70926e-08
5.59405e-10
2.69494e-08
5.52731e-10
2.68073e-08
5.46258e-10
2.66662e-08
5.39989e-10
2.65263e-08
5.33925e-10
2.63874e-08
5.28072e-10
2.62495e-08
5.22438e-10
2.61125e-08
5.17036e-10
2.59766e-08
5.11894e-10
2.58415e-08
5.07064e-10
2.57072e-08
5.02664e-10
2.55738e-08
4.98982e-10
2.54409e-08
4.96782e-10
2.53086e-08
4.98298e-10
2.51796e-08
5.09799e-10
5.3378e-10
3.78887e-08
2.37438e-09
-3.77672e-08
3.80444e-08
2.65753e-09
3.82123e-08
2.86747e-09
3.83807e-08
3.01008e-09
3.85435e-08
3.09699e-09
3.86958e-08
3.13558e-09
3.88332e-08
3.13141e-09
3.89526e-08
3.09104e-09
3.90522e-08
3.02204e-09
3.91313e-08
2.93201e-09
3.91902e-08
2.82808e-09
3.92302e-08
2.71665e-09
3.92529e-08
2.60307e-09
3.92603e-08
2.49153e-09
3.92545e-08
2.38501e-09
3.92373e-08
2.28534e-09
3.92106e-08
2.19345e-09
3.91757e-08
2.10957e-09
3.91339e-08
2.03339e-09
3.90859e-08
1.96436e-09
3.90325e-08
1.90173e-09
3.89743e-08
1.84473e-09
3.89114e-08
1.79263e-09
3.88443e-08
1.74473e-09
3.87731e-08
1.70044e-09
3.8698e-08
1.65927e-09
3.86191e-08
1.62079e-09
3.85366e-08
1.58465e-09
3.84505e-08
1.55055e-09
3.8361e-08
1.51827e-09
3.82682e-08
1.4876e-09
3.81723e-08
1.45839e-09
3.80732e-08
1.43048e-09
3.79712e-08
1.40376e-09
3.78664e-08
1.37814e-09
3.77588e-08
1.35351e-09
3.76486e-08
1.3298e-09
3.75359e-08
1.30695e-09
3.74209e-08
1.28488e-09
3.73036e-08
1.26355e-09
3.71841e-08
1.24291e-09
3.70626e-08
1.2229e-09
3.69392e-08
1.2035e-09
3.68139e-08
1.18467e-09
3.6687e-08
1.16637e-09
3.65584e-08
1.14857e-09
3.64283e-08
1.13125e-09
3.62969e-08
1.11438e-09
3.61641e-08
1.09794e-09
3.603e-08
1.08191e-09
3.58949e-08
1.06628e-09
3.57587e-08
1.05102e-09
3.56216e-08
1.03612e-09
3.54836e-08
1.02157e-09
3.53448e-08
1.00735e-09
3.52054e-08
9.93447e-10
3.50652e-08
9.79856e-10
3.49246e-08
9.66564e-10
3.47834e-08
9.53561e-10
3.46418e-08
9.40838e-10
3.44999e-08
9.28388e-10
3.43576e-08
9.16202e-10
3.42151e-08
9.04272e-10
3.40725e-08
8.92594e-10
3.39297e-08
8.81159e-10
3.37868e-08
8.69962e-10
3.36439e-08
8.58998e-10
3.3501e-08
8.48261e-10
3.33582e-08
8.37747e-10
3.32154e-08
8.27452e-10
3.30728e-08
8.1737e-10
3.29304e-08
8.07499e-10
3.27882e-08
7.97835e-10
3.26463e-08
7.88375e-10
3.25046e-08
7.79116e-10
3.23632e-08
7.70055e-10
3.22221e-08
7.6119e-10
3.20814e-08
7.5252e-10
3.19411e-08
7.44042e-10
3.18011e-08
7.35756e-10
3.16616e-08
7.2766e-10
3.15225e-08
7.19755e-10
3.13838e-08
7.1204e-10
3.12456e-08
7.04516e-10
3.11078e-08
6.97184e-10
3.09705e-08
6.90046e-10
3.08336e-08
6.83105e-10
3.06973e-08
6.76364e-10
3.05614e-08
6.69828e-10
3.04259e-08
6.63505e-10
3.02909e-08
6.57406e-10
3.01564e-08
6.51549e-10
3.00224e-08
6.45965e-10
2.98887e-08
6.40712e-10
2.97555e-08
6.35915e-10
2.96226e-08
6.31859e-10
2.94901e-08
6.29236e-10
2.93587e-08
6.29748e-10
2.92318e-08
6.36676e-10
6.4365e-10
3.86463e-08
2.26807e-09
-3.854e-08
3.87837e-08
2.52015e-09
3.89354e-08
2.71583e-09
3.90905e-08
2.85495e-09
3.9243e-08
2.94444e-09
3.93884e-08
2.99018e-09
3.95228e-08
2.99702e-09
3.96434e-08
2.97049e-09
3.97484e-08
2.91701e-09
3.98372e-08
2.84322e-09
3.99099e-08
2.7554e-09
3.99673e-08
2.65926e-09
4.00107e-08
2.55967e-09
4.00417e-08
2.46053e-09
4.0062e-08
2.36472e-09
4.00731e-08
2.27414e-09
4.00767e-08
2.18989e-09
4.00739e-08
2.11239e-09
4.00657e-08
2.04159e-09
4.00529e-08
1.97715e-09
4.00361e-08
1.91852e-09
4.00157e-08
1.86511e-09
3.99921e-08
1.81628e-09
3.99653e-08
1.77147e-09
3.99356e-08
1.73013e-09
3.99031e-08
1.69181e-09
3.98678e-08
1.65613e-09
3.98297e-08
1.62274e-09
3.97889e-08
1.59136e-09
3.97454e-08
1.56178e-09
3.96992e-08
1.53378e-09
3.96504e-08
1.50721e-09
3.95989e-08
1.48192e-09
3.95449e-08
1.45778e-09
3.94883e-08
1.43471e-09
3.94292e-08
1.4126e-09
3.93677e-08
1.39137e-09
3.93037e-08
1.37094e-09
3.92373e-08
1.35127e-09
3.91686e-08
1.33229e-09
3.90975e-08
1.31394e-09
3.90242e-08
1.29619e-09
3.89488e-08
1.27898e-09
3.88711e-08
1.26229e-09
3.87914e-08
1.24608e-09
3.87097e-08
1.23032e-09
3.86259e-08
1.21499e-09
3.85403e-08
1.20004e-09
3.84527e-08
1.18548e-09
3.83634e-08
1.17126e-09
3.82723e-08
1.15738e-09
3.81795e-08
1.14382e-09
3.8085e-08
1.13056e-09
3.7989e-08
1.11758e-09
3.78915e-08
1.10489e-09
3.77925e-08
1.09245e-09
3.76921e-08
1.08027e-09
3.75903e-08
1.06833e-09
3.74872e-08
1.05662e-09
3.73829e-08
1.04514e-09
3.72775e-08
1.03387e-09
3.71708e-08
1.02282e-09
3.70631e-08
1.01197e-09
3.69544e-08
1.00132e-09
3.68447e-08
9.90862e-10
3.67341e-08
9.80593e-10
3.66226e-08
9.70508e-10
3.65102e-08
9.60602e-10
3.63971e-08
9.50874e-10
3.62832e-08
9.41319e-10
3.61687e-08
9.31934e-10
3.60534e-08
9.22718e-10
3.59376e-08
9.13668e-10
3.58212e-08
9.04782e-10
3.57043e-08
8.96059e-10
3.55868e-08
8.87497e-10
3.54689e-08
8.79097e-10
3.53506e-08
8.70857e-10
3.52318e-08
8.62777e-10
3.51127e-08
8.54858e-10
3.49933e-08
8.47102e-10
3.48735e-08
8.39508e-10
3.47535e-08
8.32078e-10
3.46332e-08
8.24816e-10
3.45127e-08
8.17724e-10
3.43919e-08
8.10805e-10
3.42709e-08
8.04065e-10
3.41498e-08
7.97509e-10
3.40285e-08
7.91144e-10
3.3907e-08
7.8498e-10
3.37854e-08
7.79031e-10
3.36636e-08
7.73318e-10
3.35417e-08
7.67872e-10
3.34197e-08
7.62756e-10
3.32975e-08
7.58087e-10
3.31752e-08
7.54113e-10
3.30531e-08
7.51358e-10
3.29321e-08
7.50804e-10
3.28157e-08
7.53015e-10
7.45745e-10
3.94115e-08
2.1733e-09
-3.93168e-08
3.95337e-08
2.39799e-09
3.96707e-08
2.57885e-09
3.9813e-08
2.71265e-09
3.99546e-08
2.80278e-09
4.00913e-08
2.85354e-09
4.02193e-08
2.86898e-09
4.03361e-08
2.85373e-09
4.04399e-08
2.8132e-09
4.053e-08
2.75312e-09
4.06064e-08
2.67901e-09
4.06697e-08
2.59596e-09
4.07209e-08
2.5084e-09
4.07615e-08
2.41994e-09
4.07929e-08
2.33335e-09
4.08165e-08
2.25056e-09
4.08336e-08
2.17276e-09
4.08454e-08
2.10056e-09
4.08529e-08
2.03411e-09
4.08568e-08
1.97326e-09
4.08577e-08
1.91765e-09
4.0856e-08
1.86681e-09
4.0852e-08
1.82027e-09
4.0846e-08
1.77751e-09
4.0838e-08
1.73811e-09
4.08281e-08
1.70164e-09
4.08165e-08
1.66775e-09
4.08031e-08
1.63613e-09
4.0788e-08
1.60652e-09
4.07711e-08
1.57869e-09
4.07524e-08
1.55247e-09
4.07319e-08
1.52767e-09
4.07097e-08
1.50417e-09
4.06856e-08
1.48184e-09
4.06597e-08
1.46057e-09
4.06321e-08
1.44028e-09
4.06026e-08
1.42087e-09
4.05712e-08
1.40228e-09
4.0538e-08
1.38445e-09
4.0503e-08
1.3673e-09
4.04662e-08
1.35079e-09
4.04275e-08
1.33487e-09
4.0387e-08
1.3195e-09
4.03446e-08
1.30463e-09
4.03005e-08
1.29024e-09
4.02545e-08
1.27629e-09
4.02068e-08
1.26274e-09
4.01572e-08
1.24958e-09
4.01059e-08
1.23678e-09
4.00529e-08
1.22431e-09
3.99981e-08
1.21216e-09
3.99416e-08
1.2003e-09
3.98834e-08
1.18873e-09
3.98236e-08
1.17742e-09
3.97621e-08
1.16636e-09
3.9699e-08
1.15554e-09
3.96344e-08
1.14495e-09
3.95681e-08
1.13457e-09
3.95003e-08
1.1244e-09
3.94311e-08
1.11442e-09
3.93603e-08
1.10463e-09
3.92881e-08
1.09502e-09
3.92145e-08
1.08559e-09
3.91395e-08
1.07632e-09
3.90631e-08
1.06721e-09
3.89855e-08
1.05827e-09
3.89065e-08
1.04947e-09
3.88263e-08
1.04082e-09
3.87448e-08
1.03232e-09
3.86622e-08
1.02396e-09
3.85784e-08
1.01574e-09
3.84934e-08
1.00766e-09
3.84074e-08
9.99709e-10
3.83203e-08
9.91893e-10
3.82321e-08
9.8421e-10
3.8143e-08
9.7666e-10
3.80528e-08
9.6924e-10
3.79617e-08
9.61953e-10
3.78697e-08
9.54798e-10
3.77768e-08
9.47777e-10
3.7683e-08
9.40892e-10
3.75884e-08
9.34143e-10
3.74929e-08
9.27535e-10
3.73967e-08
9.2107e-10
3.72996e-08
9.14752e-10
3.72019e-08
9.08587e-10
3.71033e-08
9.0258e-10
3.70041e-08
8.96739e-10
3.69042e-08
8.91072e-10
3.68036e-08
8.85591e-10
3.67023e-08
8.8031e-10
3.66004e-08
8.75252e-10
3.64978e-08
8.7045e-10
3.63946e-08
8.65961e-10
3.62908e-08
8.61885e-10
3.61865e-08
8.58406e-10
3.6082e-08
8.55832e-10
3.59784e-08
8.54414e-10
3.58788e-08
8.52653e-10
8.35454e-10
4.01847e-08
2.08753e-09
-4.00989e-08
4.02943e-08
2.28838e-09
4.04184e-08
2.45475e-09
4.0549e-08
2.58211e-09
4.06803e-08
2.67146e-09
4.08082e-08
2.72563e-09
4.09293e-08
2.74787e-09
4.1041e-08
2.74198e-09
4.11417e-08
2.71251e-09
4.12305e-08
2.66432e-09
4.13073e-08
2.60226e-09
4.13724e-08
2.53085e-09
4.14267e-08
2.45406e-09
4.14714e-08
2.37525e-09
4.15078e-08
2.29703e-09
4.1537e-08
2.22132e-09
4.15603e-08
2.14941e-09
4.15789e-08
2.08201e-09
4.15936e-08
2.01945e-09
4.16051e-08
1.96173e-09
4.16141e-08
1.90865e-09
4.1621e-08
1.8599e-09
4.16262e-08
1.8151e-09
4.16298e-08
1.77385e-09
4.16322e-08
1.73577e-09
4.16333e-08
1.70051e-09
4.16333e-08
1.66776e-09
4.16322e-08
1.63723e-09
4.163e-08
1.60869e-09
4.16268e-08
1.58192e-09
4.16225e-08
1.55675e-09
4.16171e-08
1.53302e-09
4.16107e-08
1.51059e-09
4.16032e-08
1.48935e-09
4.15946e-08
1.46919e-09
4.15848e-08
1.45002e-09
4.15739e-08
1.43176e-09
4.15619e-08
1.41434e-09
4.15486e-08
1.39769e-09
4.15342e-08
1.38174e-09
4.15185e-08
1.36646e-09
4.15016e-08
1.35178e-09
4.14834e-08
1.33767e-09
4.1464e-08
1.32408e-09
4.14433e-08
1.31098e-09
4.14212e-08
1.29833e-09
4.13979e-08
1.2861e-09
4.13732e-08
1.27427e-09
4.13471e-08
1.26281e-09
4.13197e-08
1.2517e-09
4.1291e-08
1.2409e-09
4.12609e-08
1.23041e-09
4.12294e-08
1.22021e-09
4.11965e-08
1.21028e-09
4.11623e-08
1.20059e-09
4.11267e-08
1.19115e-09
4.10897e-08
1.18194e-09
4.10514e-08
1.17293e-09
4.10116e-08
1.16413e-09
4.09705e-08
1.15553e-09
4.0928e-08
1.1471e-09
4.08842e-08
1.13885e-09
4.0839e-08
1.13077e-09
4.07925e-08
1.12285e-09
4.07446e-08
1.11508e-09
4.06954e-08
1.10746e-09
4.06449e-08
1.09998e-09
4.05931e-08
1.09264e-09
4.054e-08
1.08543e-09
4.04856e-08
1.07835e-09
4.043e-08
1.0714e-09
4.03731e-08
1.06457e-09
4.03149e-08
1.05786e-09
4.02555e-08
1.05127e-09
4.01949e-08
1.0448e-09
4.01332e-08
1.03844e-09
4.00702e-08
1.0322e-09
4.00061e-08
1.02608e-09
3.99408e-08
1.02008e-09
3.98744e-08
1.01419e-09
3.98068e-08
1.00843e-09
3.97382e-08
1.00279e-09
3.96685e-08
9.97268e-10
3.95976e-08
9.91879e-10
3.95258e-08
9.86624e-10
3.94529e-08
9.81508e-10
3.93789e-08
9.76537e-10
3.93039e-08
9.7172e-10
3.92279e-08
9.67065e-10
3.91509e-08
9.62586e-10
3.90729e-08
9.58298e-10
3.8994e-08
9.54221e-10
3.8914e-08
9.50389e-10
3.88331e-08
9.46847e-10
3.87514e-08
9.43672e-10
3.86688e-08
9.40972e-10
3.85858e-08
9.38831e-10
3.85033e-08
9.36899e-10
3.84236e-08
9.32398e-10
9.09991e-10
4.09665e-08
2.009e-09
-4.0888e-08
4.10657e-08
2.18916e-09
4.11786e-08
2.34185e-09
4.12985e-08
2.46219e-09
4.14203e-08
2.54971e-09
4.15399e-08
2.60601e-09
4.16542e-08
2.63355e-09
4.17608e-08
2.63544e-09
4.18578e-08
2.61542e-09
4.19445e-08
2.57764e-09
4.20205e-08
2.52628e-09
4.2086e-08
2.46533e-09
4.21417e-08
2.39837e-09
4.21885e-08
2.32845e-09
4.22275e-08
2.25804e-09
4.22598e-08
2.18903e-09
4.22865e-08
2.12271e-09
4.23086e-08
2.05991e-09
4.23269e-08
2.00108e-09
4.23423e-08
1.94636e-09
4.23553e-08
1.89569e-09
4.23663e-08
1.84887e-09
4.23758e-08
1.80563e-09
4.2384e-08
1.76567e-09
4.23911e-08
1.72867e-09
4.23972e-08
1.69434e-09
4.24026e-08
1.66241e-09
4.24072e-08
1.63263e-09
4.24111e-08
1.60478e-09
4.24143e-08
1.57867e-09
4.24169e-08
1.55414e-09
4.24189e-08
1.53104e-09
4.24203e-08
1.50923e-09
4.2421e-08
1.48861e-09
4.24211e-08
1.46908e-09
4.24206e-08
1.45055e-09
4.24194e-08
1.43294e-09
4.24176e-08
1.41618e-09
4.24151e-08
1.40021e-09
4.24118e-08
1.38496e-09
4.24079e-08
1.37039e-09
4.24032e-08
1.35645e-09
4.23978e-08
1.34309e-09
4.23916e-08
1.33027e-09
4.23846e-08
1.31796e-09
4.23768e-08
1.30613e-09
4.23682e-08
1.29474e-09
4.23587e-08
1.28376e-09
4.23484e-08
1.27317e-09
4.23371e-08
1.26294e-09
4.2325e-08
1.25306e-09
4.23119e-08
1.2435e-09
4.22979e-08
1.23424e-09
4.22829e-08
1.22526e-09
4.22669e-08
1.21656e-09
4.22499e-08
1.20811e-09
4.2232e-08
1.19989e-09
4.2213e-08
1.19191e-09
4.2193e-08
1.18414e-09
4.2172e-08
1.17658e-09
4.21499e-08
1.16921e-09
4.21267e-08
1.16202e-09
4.21025e-08
1.15501e-09
4.20771e-08
1.14817e-09
4.20507e-08
1.14149e-09
4.20232e-08
1.13496e-09
4.19946e-08
1.12858e-09
4.19649e-08
1.12235e-09
4.19341e-08
1.11625e-09
4.19021e-08
1.11029e-09
4.18691e-08
1.10445e-09
4.18349e-08
1.09874e-09
4.17996e-08
1.09316e-09
4.17632e-08
1.08769e-09
4.17257e-08
1.08234e-09
4.1687e-08
1.07711e-09
4.16472e-08
1.072e-09
4.16063e-08
1.067e-09
4.15642e-08
1.06211e-09
4.15211e-08
1.05735e-09
4.14768e-08
1.0527e-09
4.14314e-08
1.04817e-09
4.13849e-08
1.04377e-09
4.13373e-08
1.03949e-09
4.12886e-08
1.03535e-09
4.12388e-08
1.03134e-09
4.11878e-08
1.02747e-09
4.11358e-08
1.02376e-09
4.10826e-08
1.02021e-09
4.10284e-08
1.01683e-09
4.09731e-08
1.01364e-09
4.09166e-08
1.01066e-09
4.08591e-08
1.00791e-09
4.08005e-08
1.00544e-09
4.07409e-08
1.00329e-09
4.06804e-08
1.00149e-09
4.06193e-08
9.99929e-10
4.05583e-08
9.97853e-10
4.04988e-08
9.91949e-10
9.68521e-10
4.17575e-08
1.93639e-09
-4.16849e-08
4.18481e-08
2.09864e-09
4.19512e-08
2.23867e-09
4.20616e-08
2.35182e-09
4.21746e-08
2.43674e-09
4.22865e-08
2.49412e-09
4.23943e-08
2.52572e-09
4.24957e-08
2.53401e-09
4.25891e-08
2.52207e-09
4.26734e-08
2.49336e-09
4.27481e-08
2.45151e-09
4.28135e-08
2.4e-09
4.28698e-08
2.34201e-09
4.29179e-08
2.28034e-09
4.29587e-08
2.21729e-09
4.29931e-08
2.15465e-09
4.3022e-08
2.09375e-09
4.30465e-08
2.03546e-09
4.30672e-08
1.98033e-09
4.3085e-08
1.92862e-09
4.31003e-08
1.88036e-09
4.31137e-08
1.83549e-09
4.31255e-08
1.79382e-09
4.3136e-08
1.75512e-09
4.31456e-08
1.71916e-09
4.31542e-08
1.6857e-09
4.31621e-08
1.65449e-09
4.31694e-08
1.62534e-09
4.31762e-08
1.59804e-09
4.31824e-08
1.57242e-09
4.31882e-08
1.54834e-09
4.31936e-08
1.52566e-09
4.31986e-08
1.50425e-09
4.32032e-08
1.48401e-09
4.32074e-08
1.46485e-09
4.32113e-08
1.44669e-09
4.32148e-08
1.42945e-09
4.32179e-08
1.41306e-09
4.32206e-08
1.39745e-09
4.3223e-08
1.38259e-09
4.3225e-08
1.3684e-09
4.32266e-08
1.35486e-09
4.32278e-08
1.3419e-09
4.32285e-08
1.32951e-09
4.32289e-08
1.31764e-09
4.32288e-08
1.30625e-09
4.32282e-08
1.29533e-09
4.32271e-08
1.28483e-09
4.32255e-08
1.27474e-09
4.32234e-08
1.26503e-09
4.32208e-08
1.25568e-09
4.32177e-08
1.24667e-09
4.32139e-08
1.23797e-09
4.32096e-08
1.22959e-09
4.32047e-08
1.22148e-09
4.31991e-08
1.21365e-09
4.31929e-08
1.20608e-09
4.31861e-08
1.19875e-09
4.31786e-08
1.19165e-09
4.31704e-08
1.18478e-09
4.31615e-08
1.17811e-09
4.31518e-08
1.17165e-09
4.31415e-08
1.16537e-09
4.31304e-08
1.15929e-09
4.31185e-08
1.15337e-09
4.31058e-08
1.14763e-09
4.30924e-08
1.14205e-09
4.30781e-08
1.13662e-09
4.3063e-08
1.13135e-09
4.30471e-08
1.12622e-09
4.30303e-08
1.12123e-09
4.30126e-08
1.11638e-09
4.29941e-08
1.11167e-09
4.29747e-08
1.10708e-09
4.29544e-08
1.10263e-09
4.29333e-08
1.0983e-09
4.29112e-08
1.0941e-09
4.28881e-08
1.09003e-09
4.28642e-08
1.08608e-09
4.28393e-08
1.08225e-09
4.28134e-08
1.07855e-09
4.27866e-08
1.07499e-09
4.27588e-08
1.07155e-09
4.27301e-08
1.06825e-09
4.27003e-08
1.06508e-09
4.26696e-08
1.06207e-09
4.26379e-08
1.0592e-09
4.26051e-08
1.05649e-09
4.25714e-08
1.05395e-09
4.25366e-08
1.0516e-09
4.25008e-08
1.04944e-09
4.2464e-08
1.04749e-09
4.24261e-08
1.04578e-09
4.23873e-08
1.04432e-09
4.23474e-08
1.04315e-09
4.23067e-08
1.04222e-09
4.22653e-08
1.04129e-09
4.22238e-08
1.03938e-09
4.21825e-08
1.03324e-09
1.01188e-09
4.25585e-08
1.86878e-09
-4.24909e-08
4.26417e-08
2.01545e-09
4.27364e-08
2.14393e-09
4.28382e-08
2.24998e-09
4.29432e-08
2.3318e-09
4.30479e-08
2.38943e-09
4.31496e-08
2.42403e-09
4.3246e-08
2.43754e-09
4.33357e-08
2.43243e-09
4.34174e-08
2.41163e-09
4.34907e-08
2.37819e-09
4.35556e-08
2.33516e-09
4.36122e-08
2.28538e-09
4.36612e-08
2.23134e-09
4.37033e-08
2.1752e-09
4.37393e-08
2.11864e-09
4.37701e-08
2.06298e-09
4.37964e-08
2.00913e-09
4.3819e-08
1.9577e-09
4.38386e-08
1.90902e-09
4.38557e-08
1.86326e-09
4.38708e-08
1.8204e-09
4.38843e-08
1.78036e-09
4.38964e-08
1.743e-09