/*--------------------------------*- C++ -*----------------------------------*\
| =========                 |                                                 |
| \\      /  F ield         | OpenFOAM: The Open Source CFD Toolbox           |
|  \\    /   O peration     | Version:  2.3.0                                 |
|   \\  /    A nd           | Web:      www.OpenFOAM.org                      |
|    \\/     M anipulation  |                                                 |
\*---------------------------------------------------------------------------*/
FoamFile
{
    version     2.0;
    format      ascii;
    class       volVectorField;
    location    "1";
    object      U_0;
}
// * * * * * * * * * * * * * * * * * * * * * * * * * * * * * * * * * * * * * //

dimensions      [0 1 -1 0 0 0 0];

internalField   nonuniform List<vector> 
8750
(
(0.171611 0.00593575 0)
(0.155187 0.0060177 0)
(0.139392 0.0056054 0)
(0.124413 0.00501122 0)
(0.110663 0.00435347 0)
(0.098313 0.00368563 0)
(0.0873756 0.00304454 0)
(0.0778164 0.00245566 0)
(0.06958 0.00193452 0)
(0.0625822 0.00148896 0)
(0.0567101 0.00112073 0)
(0.0518317 0.000826419 0)
(0.0478069 0.000598738 0)
(0.0444973 0.000428056 0)
(0.0417733 0.000303925 0)
(0.0395195 0.000216272 0)
(0.0376369 0.000156149 0)
(0.0360441 0.000116072 0)
(0.034676 9.00846e-05 0)
(0.0334822 7.36404e-05 0)
(0.0324243 6.34051e-05 0)
(0.0314737 5.70316e-05 0)
(0.0306093 5.29379e-05 0)
(0.0298158 5.01077e-05 0)
(0.0290818 4.79229e-05 0)
(0.0283986 4.60327e-05 0)
(0.02776 4.42556e-05 0)
(0.0271607 4.25117e-05 0)
(0.0265968 4.07768e-05 0)
(0.0260648 3.90544e-05 0)
(0.0255618 3.73589e-05 0)
(0.0250854 3.57064e-05 0)
(0.0246332 3.41109e-05 0)
(0.0242034 3.25823e-05 0)
(0.0237942 3.11268e-05 0)
(0.0234039 2.97471e-05 0)
(0.0230312 2.84433e-05 0)
(0.0226747 2.72137e-05 0)
(0.0223333 2.60554e-05 0)
(0.022006 2.49647e-05 0)
(0.0216917 2.39377e-05 0)
(0.0213896 2.29704e-05 0)
(0.0210989 2.20587e-05 0)
(0.0208189 2.11988e-05 0)
(0.0205489 2.03871e-05 0)
(0.0202884 1.96201e-05 0)
(0.0200367 1.88949e-05 0)
(0.0197934 1.82084e-05 0)
(0.019558 1.7558e-05 0)
(0.01933 1.69412e-05 0)
(0.0191091 1.63559e-05 0)
(0.0188949 1.58e-05 0)
(0.018687 1.52714e-05 0)
(0.0184851 1.47686e-05 0)
(0.018289 1.42899e-05 0)
(0.0180983 1.38337e-05 0)
(0.0179128 1.33988e-05 0)
(0.0177323 1.29838e-05 0)
(0.0175565 1.25877e-05 0)
(0.0173852 1.22092e-05 0)
(0.0172181 1.18475e-05 0)
(0.0170552 1.15015e-05 0)
(0.0168963 1.11704e-05 0)
(0.0167411 1.08534e-05 0)
(0.0165895 1.05498e-05 0)
(0.0164414 1.02588e-05 0)
(0.0162966 9.97991e-06 0)
(0.0161549 9.71236e-06 0)
(0.0160164 9.4557e-06 0)
(0.0158808 9.20935e-06 0)
(0.0157479 8.97288e-06 0)
(0.0156178 8.74584e-06 0)
(0.0154903 8.52773e-06 0)
(0.0153654 8.31821e-06 0)
(0.0152428 8.11693e-06 0)
(0.0151225 7.92349e-06 0)
(0.0150045 7.73769e-06 0)
(0.0148886 7.55917e-06 0)
(0.0147747 7.38766e-06 0)
(0.0146629 7.22293e-06 0)
(0.0145529 7.06475e-06 0)
(0.0144448 6.91293e-06 0)
(0.0143384 6.76727e-06 0)
(0.0142338 6.62764e-06 0)
(0.0141307 6.49395e-06 0)
(0.0140292 6.36592e-06 0)
(0.0139292 6.24359e-06 0)
(0.0138306 6.12694e-06 0)
(0.0137333 6.01583e-06 0)
(0.0136373 5.91041e-06 0)
(0.0135426 5.81097e-06 0)
(0.013449 5.71783e-06 0)
(0.0133564 5.63182e-06 0)
(0.0132648 5.55506e-06 0)
(0.0131741 5.49202e-06 0)
(0.013084 5.4533e-06 0)
(0.0129942 5.47279e-06 0)
(0.0129027 5.59941e-06 0)
(0.0128267 4.65937e-06 0)
(0.0125774 3.53384e-05 0)
(0.19047 0.00937943 0)
(0.188169 0.00989404 0)
(0.184258 0.00967111 0)
(0.179094 0.00917444 0)
(0.173182 0.00854335 0)
(0.166873 0.00782397 0)
(0.16039 0.00705412 0)
(0.153901 0.00626858 0)
(0.147542 0.00549644 0)
(0.141412 0.00476154 0)
(0.135579 0.00408253 0)
(0.130085 0.00347227 0)
(0.124947 0.00293762 0)
(0.120168 0.0024798 0)
(0.115741 0.00209551 0)
(0.11165 0.0017782 0)
(0.107872 0.00151941 0)
(0.104386 0.00131003 0)
(0.101166 0.00114116 0)
(0.0981885 0.00100476 0)
(0.0954303 0.000893903 0)
(0.0928701 0.000802931 0)
(0.090488 0.000727344 0)
(0.0882663 0.000663668 0)
(0.0861892 0.000609276 0)
(0.0842424 0.000562203 0)
(0.0824135 0.000520988 0)
(0.0806914 0.000484547 0)
(0.0790663 0.000452063 0)
(0.0775296 0.000422915 0)
(0.0760737 0.000396619 0)
(0.0746917 0.00037279 0)
(0.0733776 0.000351115 0)
(0.0721259 0.000331334 0)
(0.070932 0.000313229 0)
(0.0697914 0.000296611 0)
(0.0687002 0.000281318 0)
(0.067655 0.000267211 0)
(0.0666525 0.000254167 0)
(0.0656898 0.000242078 0)
(0.0647645 0.000230851 0)
(0.063874 0.000220402 0)
(0.0630161 0.000210658 0)
(0.062189 0.000201556 0)
(0.0613908 0.000193037 0)
(0.0606198 0.000185052 0)
(0.0598744 0.000177554 0)
(0.0591532 0.000170505 0)
(0.058455 0.000163867 0)
(0.0577784 0.000157609 0)
(0.0571225 0.000151701 0)
(0.056486 0.000146117 0)
(0.0558681 0.000140834 0)
(0.0552678 0.00013583 0)
(0.0546843 0.000131085 0)
(0.0541168 0.000126582 0)
(0.0535645 0.000122304 0)
(0.0530267 0.000118237 0)
(0.0525029 0.000114367 0)
(0.0519923 0.000110681 0)
(0.0514945 0.000107168 0)
(0.0510088 0.000103817 0)
(0.0505347 0.00010062 0)
(0.0500718 9.75656e-05 0)
(0.0496196 9.4647e-05 0)
(0.0491776 9.1856e-05 0)
(0.0487456 8.91858e-05 0)
(0.0483229 8.66295e-05 0)
(0.0479094 8.41813e-05 0)
(0.0475046 8.18353e-05 0)
(0.0471083 7.95864e-05 0)
(0.04672 7.74297e-05 0)
(0.0463395 7.53605e-05 0)
(0.0459665 7.33746e-05 0)
(0.0456007 7.14682e-05 0)
(0.0452419 6.96374e-05 0)
(0.0448897 6.78791e-05 0)
(0.044544 6.61901e-05 0)
(0.0442046 6.45673e-05 0)
(0.0438711 6.30081e-05 0)
(0.0435433 6.15099e-05 0)
(0.0432212 6.00706e-05 0)
(0.0429043 5.86879e-05 0)
(0.0425926 5.736e-05 0)
(0.0422859 5.60852e-05 0)
(0.0419839 5.48617e-05 0)
(0.0416865 5.36883e-05 0)
(0.0413934 5.25641e-05 0)
(0.0411046 5.1488e-05 0)
(0.0408198 5.04599e-05 0)
(0.0405388 4.94801e-05 0)
(0.0402614 4.85503e-05 0)
(0.0399875 4.76746e-05 0)
(0.0397167 4.68632e-05 0)
(0.0394489 4.61403e-05 0)
(0.0391835 4.55687e-05 0)
(0.0389197 4.53285e-05 0)
(0.0386539 4.58856e-05 0)
(0.0384068 5.03217e-05 0)
(0.0379021 0.000120522 0)
(0.193456 0.00899877 0)
(0.194261 0.00995787 0)
(0.194405 0.0102891 0)
(0.193738 0.0102915 0)
(0.19238 0.0100664 0)
(0.190454 0.00965203 0)
(0.188053 0.0090931 0)
(0.185268 0.00843916 0)
(0.182193 0.00773534 0)
(0.178918 0.00701982 0)
(0.17552 0.0063233 0)
(0.172064 0.00566839 0)
(0.168601 0.00506955 0)
(0.165171 0.0045339 0)
(0.161802 0.00406256 0)
(0.158515 0.00365245 0)
(0.155322 0.00329785 0)
(0.15223 0.00299185 0)
(0.149243 0.00272739 0)
(0.146362 0.00249783 0)
(0.143585 0.00229737 0)
(0.14091 0.00212112 0)
(0.138335 0.00196508 0)
(0.135856 0.001826 0)
(0.133469 0.00170132 0)
(0.131171 0.00158895 0)
(0.128959 0.00148724 0)
(0.126828 0.00139483 0)
(0.124776 0.00131061 0)
(0.122798 0.00123364 0)
(0.120892 0.00116313 0)
(0.119055 0.00109838 0)
(0.117282 0.00103882 0)
(0.115572 0.000983907 0)
(0.113921 0.000933192 0)
(0.112326 0.000886267 0)
(0.110785 0.000842771 0)
(0.109295 0.000802382 0)
(0.107854 0.000764814 0)
(0.10646 0.000729811 0)
(0.105109 0.000697146 0)
(0.103801 0.000666613 0)
(0.102533 0.000638031 0)
(0.101304 0.000611235 0)
(0.10011 0.000586078 0)
(0.0989522 0.000562428 0)
(0.0978272 0.000540165 0)
(0.096734 0.000519182 0)
(0.0956712 0.000499381 0)
(0.0946374 0.000480675 0)
(0.0936314 0.000462983 0)
(0.0926521 0.000446233 0)
(0.0916982 0.000430358 0)
(0.0907687 0.000415299 0)
(0.0898626 0.000401 0)
(0.0889789 0.00038741 0)
(0.0881168 0.000374485 0)
(0.0872754 0.00036218 0)
(0.0864538 0.000350457 0)
(0.0856513 0.000339281 0)
(0.0848672 0.000328618 0)
(0.0841007 0.000318437 0)
(0.0833512 0.000308711 0)
(0.082618 0.000299413 0)
(0.0819006 0.000290519 0)
(0.0811984 0.000282006 0)
(0.0805108 0.000273854 0)
(0.0798373 0.000266044 0)
(0.0791774 0.000258557 0)
(0.0785306 0.000251377 0)
(0.0778965 0.000244488 0)
(0.0772746 0.000237876 0)
(0.0766645 0.000231527 0)
(0.0760658 0.000225429 0)
(0.0754781 0.000219569 0)
(0.074901 0.000213937 0)
(0.0743342 0.000208523 0)
(0.0737773 0.000203318 0)
(0.0732301 0.000198311 0)
(0.0726921 0.000193496 0)
(0.072163 0.000188864 0)
(0.0716426 0.000184409 0)
(0.0711305 0.000180124 0)
(0.0706265 0.000176003 0)
(0.0701303 0.00017204 0)
(0.0696416 0.000168231 0)
(0.0691601 0.000164572 0)
(0.0686855 0.000161058 0)
(0.0682177 0.000157687 0)
(0.0677563 0.000154457 0)
(0.067301 0.000151368 0)
(0.0668516 0.000148424 0)
(0.0664079 0.000145632 0)
(0.0659693 0.000143016 0)
(0.0655357 0.000140634 0)
(0.0651063 0.000138633 0)
(0.06468 0.000137447 0)
(0.0642534 0.000138462 0)
(0.0638398 0.000152485 0)
(0.0631854 0.000238733 0)
(0.194483 0.00835145 0)
(0.195669 0.00940846 0)
(0.19674 0.00996335 0)
(0.19748 0.0102023 0)
(0.197867 0.0102094 0)
(0.19791 0.0100169 0)
(0.197607 0.00966069 0)
(0.196967 0.00918359 0)
(0.196017 0.00862745 0)
(0.194795 0.00802953 0)
(0.193344 0.00742149 0)
(0.191711 0.00682847 0)
(0.189934 0.00626846 0)
(0.188053 0.00575258 0)
(0.186099 0.00528599 0)
(0.184097 0.00486932 0)
(0.182067 0.00450004 0)
(0.180025 0.0041738 0)
(0.177982 0.00388544 0)
(0.175946 0.00362968 0)
(0.173924 0.00340164 0)
(0.171919 0.00319699 0)
(0.169935 0.00301208 0)
(0.167974 0.00284391 0)
(0.166039 0.00269003 0)
(0.16413 0.0025485 0)
(0.16225 0.00241775 0)
(0.160398 0.00229654 0)
(0.158577 0.00218383 0)
(0.156787 0.00207878 0)
(0.155027 0.00198068 0)
(0.1533 0.00188893 0)
(0.151604 0.00180299 0)
(0.14994 0.00172239 0)
(0.148308 0.00164673 0)
(0.146708 0.00157563 0)
(0.14514 0.00150873 0)
(0.143603 0.00144575 0)
(0.142097 0.00138638 0)
(0.140622 0.00133038 0)
(0.139177 0.0012775 0)
(0.137762 0.00122754 0)
(0.136375 0.00118028 0)
(0.135018 0.00113555 0)
(0.133688 0.00109317 0)
(0.132385 0.00105299 0)
(0.13111 0.00101486 0)
(0.12986 0.000978658 0)
(0.128636 0.000944254 0)
(0.127437 0.000911536 0)
(0.126261 0.0008804 0)
(0.12511 0.000850748 0)
(0.123981 0.000822491 0)
(0.122875 0.000795545 0)
(0.121791 0.000769832 0)
(0.120728 0.000745282 0)
(0.119685 0.000721828 0)
(0.118663 0.000699406 0)
(0.11766 0.000677961 0)
(0.116676 0.000657437 0)
(0.11571 0.000637785 0)
(0.114762 0.000618958 0)
(0.113832 0.000600912 0)
(0.112919 0.000583606 0)
(0.112022 0.000567003 0)
(0.111141 0.000551067 0)
(0.110275 0.000535764 0)
(0.109425 0.000521064 0)
(0.108589 0.000506936 0)
(0.107768 0.000493354 0)
(0.106961 0.000480293 0)
(0.106167 0.000467727 0)
(0.105386 0.000455635 0)
(0.104618 0.000443995 0)
(0.103862 0.000432787 0)
(0.103119 0.000421994 0)
(0.102387 0.000411596 0)
(0.101666 0.00040158 0)
(0.100957 0.000391928 0)
(0.100258 0.000382627 0)
(0.0995694 0.000373664 0)
(0.0988911 0.000365027 0)
(0.0982227 0.000356703 0)
(0.0975637 0.000348682 0)
(0.0969139 0.000340956 0)
(0.0962731 0.000333514 0)
(0.0956409 0.00032635 0)
(0.0950171 0.000319456 0)
(0.0944014 0.000312827 0)
(0.0937935 0.00030646 0)
(0.0931932 0.000300354 0)
(0.0926 0.000294514 0)
(0.0920137 0.000288953 0)
(0.091434 0.000283709 0)
(0.0908604 0.000278873 0)
(0.0902923 0.00027469 0)
(0.0897285 0.00027187 0)
(0.0891662 0.000272907 0)
(0.0886151 0.000292139 0)
(0.0878606 0.000374812 0)
(0.195195 0.00784038 0)
(0.196255 0.00883843 0)
(0.197381 0.00943394 0)
(0.1984 0.00974761 0)
(0.199268 0.00985373 0)
(0.19997 0.0097824 0)
(0.200481 0.00955996 0)
(0.200778 0.00921892 0)
(0.200853 0.00879309 0)
(0.200714 0.00831404 0)
(0.200375 0.0078099 0)
(0.199857 0.0073042 0)
(0.199185 0.00681504 0)
(0.198385 0.00635479 0)
(0.197477 0.00593058 0)
(0.196485 0.00554522 0)
(0.195425 0.00519833 0)
(0.194311 0.00488749 0)
(0.193154 0.00460912 0)
(0.191963 0.0043592 0)
(0.190745 0.00413379 0)
(0.189504 0.00392927 0)
(0.188245 0.0037425 0)
(0.18697 0.00357085 0)
(0.185684 0.00341216 0)
(0.184387 0.00326469 0)
(0.183083 0.00312702 0)
(0.181774 0.00299804 0)
(0.18046 0.00287682 0)
(0.179144 0.00276262 0)
(0.177827 0.00265481 0)
(0.176512 0.00255286 0)
(0.175199 0.00245631 0)
(0.173889 0.00236476 0)
(0.172584 0.00227786 0)
(0.171284 0.00219529 0)
(0.169992 0.00211676 0)
(0.168707 0.00204201 0)
(0.167431 0.00197081 0)
(0.166164 0.00190294 0)
(0.164907 0.00183819 0)
(0.16366 0.00177638 0)
(0.162424 0.00171735 0)
(0.1612 0.00166094 0)
(0.159987 0.00160699 0)
(0.158787 0.00155538 0)
(0.157599 0.00150598 0)
(0.156424 0.00145867 0)
(0.155261 0.00141334 0)
(0.154112 0.00136988 0)
(0.152976 0.00132821 0)
(0.151853 0.00128823 0)
(0.150743 0.00124986 0)
(0.149647 0.00121302 0)
(0.148563 0.00117763 0)
(0.147494 0.00114363 0)
(0.146437 0.00111094 0)
(0.145394 0.00107951 0)
(0.144363 0.00104927 0)
(0.143346 0.00102018 0)
(0.142342 0.000992171 0)
(0.14135 0.000965205 0)
(0.140371 0.000939232 0)
(0.139405 0.000914207 0)
(0.138451 0.000890089 0)
(0.137509 0.000866839 0)
(0.13658 0.000844419 0)
(0.135662 0.000822794 0)
(0.134756 0.000801931 0)
(0.133861 0.000781797 0)
(0.132978 0.000762364 0)
(0.132106 0.000743603 0)
(0.131245 0.000725487 0)
(0.130395 0.000707991 0)
(0.129556 0.000691091 0)
(0.128726 0.000674765 0)
(0.127908 0.000658991 0)
(0.127099 0.000643749 0)
(0.1263 0.000629021 0)
(0.12551 0.000614789 0)
(0.12473 0.000601036 0)
(0.123959 0.000587746 0)
(0.123198 0.000574906 0)
(0.122445 0.000562502 0)
(0.121701 0.000550522 0)
(0.120965 0.000538954 0)
(0.120237 0.000527789 0)
(0.119517 0.000517018 0)
(0.118805 0.000506635 0)
(0.118101 0.000496634 0)
(0.117404 0.000487017 0)
(0.116714 0.000477789 0)
(0.116031 0.000468971 0)
(0.115354 0.000460614 0)
(0.114683 0.000452844 0)
(0.114018 0.000445992 0)
(0.113358 0.000441015 0)
(0.1127 0.000441173 0)
(0.112056 0.000460322 0)
(0.111242 0.000526256 0)
(0.195797 0.00740039 0)
(0.196689 0.00830103 0)
(0.197695 0.00888646 0)
(0.198684 0.00922669 0)
(0.199609 0.00938043 0)
(0.200452 0.0093756 0)
(0.20119 0.00923389 0)
(0.201798 0.00898149 0)
(0.202262 0.00864666 0)
(0.202578 0.00825646 0)
(0.202747 0.00783541 0)
(0.202778 0.00740453 0)
(0.202685 0.00698058 0)
(0.202482 0.00657567 0)
(0.202185 0.00619743 0)
(0.201808 0.00584969 0)
(0.201364 0.00553335 0)
(0.200864 0.00524724 0)
(0.200316 0.00498898 0)
(0.199727 0.00475555 0)
(0.199103 0.00454382 0)
(0.198447 0.00435077 0)
(0.197764 0.00417371 0)
(0.197054 0.00401033 0)
(0.19632 0.00385869 0)
(0.195565 0.00371717 0)
(0.194788 0.0035845 0)
(0.193993 0.00345961 0)
(0.19318 0.00334164 0)
(0.19235 0.00322991 0)
(0.191505 0.00312381 0)
(0.190645 0.00302288 0)
(0.189773 0.00292668 0)
(0.188889 0.00283487 0)
(0.187995 0.00274713 0)
(0.187091 0.00266318 0)
(0.186178 0.00258278 0)
(0.185257 0.00250571 0)
(0.18433 0.00243175 0)
(0.183398 0.00236074 0)
(0.18246 0.0022925 0)
(0.181518 0.00222689 0)
(0.180573 0.00216376 0)
(0.179626 0.00210299 0)
(0.178676 0.00204446 0)
(0.177726 0.00198805 0)
(0.176775 0.00193367 0)
(0.175823 0.00188122 0)
(0.174873 0.00183061 0)
(0.173923 0.00178177 0)
(0.172975 0.0017346 0)
(0.17203 0.00168905 0)
(0.171086 0.00164504 0)
(0.170146 0.0016025 0)
(0.169208 0.00156139 0)
(0.168275 0.00152163 0)
(0.167345 0.00148318 0)
(0.166419 0.00144598 0)
(0.165498 0.00140999 0)
(0.164582 0.00137516 0)
(0.16367 0.00134144 0)
(0.162764 0.0013088 0)
(0.161863 0.00127719 0)
(0.160968 0.00124657 0)
(0.160078 0.00121691 0)
(0.159194 0.00118818 0)
(0.158315 0.00116034 0)
(0.157443 0.00113336 0)
(0.156577 0.00110721 0)
(0.155717 0.00108186 0)
(0.154864 0.00105729 0)
(0.154016 0.00103346 0)
(0.153175 0.00101036 0)
(0.152341 0.000987962 0)
(0.151512 0.00096624 0)
(0.15069 0.000945175 0)
(0.149875 0.000924746 0)
(0.149065 0.000904935 0)
(0.148262 0.000885724 0)
(0.147466 0.000867094 0)
(0.146675 0.000849032 0)
(0.145891 0.00083152 0)
(0.145113 0.000814546 0)
(0.144342 0.000798097 0)
(0.143576 0.000782159 0)
(0.142816 0.000766724 0)
(0.142062 0.000751781 0)
(0.141314 0.000737323 0)
(0.140571 0.000723344 0)
(0.139834 0.000709841 0)
(0.139103 0.000696816 0)
(0.138377 0.000684279 0)
(0.137656 0.000672259 0)
(0.136939 0.000660818 0)
(0.136228 0.000650113 0)
(0.135521 0.000640535 0)
(0.134817 0.000633173 0)
(0.134118 0.000631397 0)
(0.133434 0.000646071 0)
(0.132607 0.000687986 0)
(0.196322 0.0070225 0)
(0.197077 0.00782584 0)
(0.197952 0.00838466 0)
(0.198848 0.00873229 0)
(0.199719 0.00891064 0)
(0.200542 0.00894473 0)
(0.201299 0.00885393 0)
(0.20197 0.00866056 0)
(0.202541 0.00838897 0)
(0.203006 0.00806284 0)
(0.203364 0.00770375 0)
(0.20362 0.00733045 0)
(0.20378 0.00695818 0)
(0.203855 0.00659835 0)
(0.203857 0.00625862 0)
(0.203794 0.00594331 0)
(0.203678 0.00565409 0)
(0.203516 0.00539071 0)
(0.203315 0.00515165 0)
(0.20308 0.00493468 0)
(0.202816 0.0047373 0)
(0.202526 0.00455699 0)
(0.20221 0.00439144 0)
(0.201873 0.00423858 0)
(0.201513 0.00409664 0)
(0.201133 0.00396414 0)
(0.200733 0.00383986 0)
(0.200314 0.00372278 0)
(0.199876 0.00361208 0)
(0.19942 0.00350708 0)
(0.198947 0.00340721 0)
(0.198456 0.00331199 0)
(0.19795 0.00322104 0)
(0.197428 0.00313399 0)
(0.19689 0.00305054 0)
(0.196339 0.00297045 0)
(0.195773 0.00289347 0)
(0.195195 0.0028194 0)
(0.194603 0.00274805 0)
(0.194 0.00267925 0)
(0.193385 0.00261287 0)
(0.192759 0.00254875 0)
(0.192123 0.00248678 0)
(0.191477 0.00242684 0)
(0.190822 0.00236884 0)
(0.190159 0.00231267 0)
(0.189487 0.00225826 0)
(0.188808 0.00220551 0)
(0.188122 0.00215436 0)
(0.187429 0.00210474 0)
(0.18673 0.00205659 0)
(0.186026 0.00200984 0)
(0.185316 0.00196444 0)
(0.184602 0.00192034 0)
(0.183883 0.00187749 0)
(0.18316 0.00183585 0)
(0.182435 0.00179537 0)
(0.181705 0.00175602 0)
(0.180974 0.00171774 0)
(0.180239 0.00168052 0)
(0.179503 0.00164431 0)
(0.178765 0.00160907 0)
(0.178026 0.00157479 0)
(0.177286 0.00154143 0)
(0.176544 0.00150896 0)
(0.175803 0.00147736 0)
(0.175061 0.0014466 0)
(0.174319 0.00141665 0)
(0.173577 0.00138749 0)
(0.172836 0.00135911 0)
(0.172095 0.00133147 0)
(0.171355 0.00130456 0)
(0.170616 0.00127836 0)
(0.169878 0.00125285 0)
(0.169142 0.00122801 0)
(0.168407 0.00120383 0)
(0.167674 0.00118029 0)
(0.166942 0.00115737 0)
(0.166212 0.00113507 0)
(0.165485 0.00111336 0)
(0.164759 0.00109223 0)
(0.164036 0.00107168 0)
(0.163314 0.00105169 0)
(0.162595 0.00103225 0)
(0.161879 0.00101335 0)
(0.161165 0.000994995 0)
(0.160453 0.000977165 0)
(0.159744 0.000959859 0)
(0.159037 0.000943075 0)
(0.158332 0.000926813 0)
(0.15763 0.00091108 0)
(0.156931 0.000895891 0)
(0.156234 0.00088128 0)
(0.155539 0.000867323 0)
(0.154846 0.000854189 0)
(0.154155 0.000842292 0)
(0.153466 0.000832693 0)
(0.152781 0.000828238 0)
(0.152114 0.000835681 0)
(0.151322 0.000851491 0)
(0.196785 0.00669526 0)
(0.197433 0.00740888 0)
(0.198194 0.00793236 0)
(0.198994 0.00827615 0)
(0.199789 0.00846768 0)
(0.200555 0.00852794 0)
(0.201273 0.00847411 0)
(0.201927 0.00832529 0)
(0.202505 0.00810243 0)
(0.203001 0.00782628 0)
(0.203412 0.00751601 0)
(0.203743 0.0071884 0)
(0.203999 0.00685741 0)
(0.204186 0.00653377 0)
(0.204315 0.006225 0)
(0.204393 0.00593576 0)
(0.204428 0.00566828 0)
(0.204428 0.00542302 0)
(0.204399 0.00519917 0)
(0.204344 0.00499516 0)
(0.204268 0.00480904 0)
(0.204172 0.00463876 0)
(0.204059 0.00448232 0)
(0.203931 0.00433792 0)
(0.203786 0.00420396 0)
(0.203628 0.00407906 0)
(0.203454 0.00396208 0)
(0.203267 0.00385205 0)
(0.203066 0.00374815 0)
(0.202851 0.00364972 0)
(0.202622 0.0035562 0)
(0.202379 0.00346711 0)
(0.202124 0.00338204 0)
(0.201855 0.00330065 0)
(0.201573 0.00322263 0)
(0.201277 0.00314772 0)
(0.20097 0.00307568 0)
(0.200649 0.00300631 0)
(0.200317 0.00293942 0)
(0.199972 0.00287484 0)
(0.199615 0.00281243 0)
(0.199247 0.00275206 0)
(0.198868 0.0026936 0)
(0.198477 0.00263695 0)
(0.198076 0.00258199 0)
(0.197664 0.00252865 0)
(0.197242 0.00247685 0)
(0.19681 0.0024265 0)
(0.196368 0.00237753 0)
(0.195917 0.00232989 0)
(0.195456 0.00228351 0)
(0.194987 0.00223835 0)
(0.19451 0.00219435 0)
(0.194024 0.00215147 0)
(0.19353 0.00210966 0)
(0.193029 0.00206889 0)
(0.19252 0.00202911 0)
(0.192004 0.0019903 0)
(0.191482 0.00195243 0)
(0.190953 0.00191545 0)
(0.190418 0.00187935 0)
(0.189877 0.0018441 0)
(0.18933 0.00180967 0)
(0.188778 0.00177603 0)
(0.188221 0.00174318 0)
(0.187659 0.00171108 0)
(0.187092 0.00167972 0)
(0.186521 0.00164907 0)
(0.185946 0.00161913 0)
(0.185367 0.00158986 0)
(0.184784 0.00156127 0)
(0.184198 0.00153332 0)
(0.183609 0.00150601 0)
(0.183017 0.00147933 0)
(0.182421 0.00145325 0)
(0.181824 0.00142778 0)
(0.181223 0.00140289 0)
(0.180621 0.00137858 0)
(0.180016 0.00135483 0)
(0.179409 0.00133164 0)
(0.178801 0.00130901 0)
(0.178191 0.00128691 0)
(0.177579 0.00126535 0)
(0.176966 0.00124432 0)
(0.176352 0.00122381 0)
(0.175737 0.00120382 0)
(0.17512 0.00118435 0)
(0.174503 0.0011654 0)
(0.173884 0.00114697 0)
(0.173265 0.00112906 0)
(0.172645 0.00111169 0)
(0.172024 0.00109487 0)
(0.171403 0.00107865 0)
(0.170781 0.0010631 0)
(0.170158 0.0010484 0)
(0.169535 0.00103492 0)
(0.168911 0.00102356 0)
(0.168291 0.00101622 0)
(0.167686 0.00101552 0)
(0.166973 0.00100749 0)
(0.197195 0.00640611 0)
(0.19776 0.00703937 0)
(0.198425 0.00752381 0)
(0.199138 0.00785711 0)
(0.199859 0.00805534 0)
(0.200563 0.00813484 0)
(0.20123 0.00811029 0)
(0.201847 0.00799786 0)
(0.202402 0.00781544 0)
(0.202889 0.00758114 0)
(0.203307 0.00731193 0)
(0.203656 0.00702293 0)
(0.203942 0.00672689 0)
(0.20417 0.00643389 0)
(0.204349 0.00615128 0)
(0.204484 0.00588389 0)
(0.204585 0.00563443 0)
(0.204655 0.0054039 0)
(0.204702 0.00519211 0)
(0.20473 0.00499807 0)
(0.204741 0.00482035 0)
(0.204738 0.00465731 0)
(0.204724 0.00450731 0)
(0.204698 0.00436877 0)
(0.204663 0.00424029 0)
(0.204618 0.00412062 0)
(0.204564 0.0040087 0)
(0.204501 0.0039036 0)
(0.20443 0.00380455 0)
(0.20435 0.0037109 0)
(0.20426 0.0036221 0)
(0.204162 0.00353767 0)
(0.204055 0.0034572 0)
(0.203939 0.00338035 0)
(0.203814 0.0033068 0)
(0.20368 0.00323628 0)
(0.203537 0.00316856 0)
(0.203384 0.00310342 0)
(0.203222 0.00304068 0)
(0.203052 0.00298016 0)
(0.202872 0.00292171 0)
(0.202682 0.0028652 0)
(0.202484 0.00281049 0)
(0.202276 0.00275747 0)
(0.202059 0.00270605 0)
(0.201834 0.00265613 0)
(0.201599 0.00260763 0)
(0.201355 0.00256046 0)
(0.201102 0.00251457 0)
(0.200841 0.00246987 0)
(0.200571 0.00242632 0)
(0.200292 0.00238386 0)
(0.200005 0.00234244 0)
(0.199709 0.00230202 0)
(0.199405 0.00226255 0)
(0.199093 0.00222399 0)
(0.198772 0.00218631 0)
(0.198444 0.00214948 0)
(0.198109 0.00211346 0)
(0.197765 0.00207823 0)
(0.197414 0.00204376 0)
(0.197056 0.00201002 0)
(0.196691 0.001977 0)
(0.196318 0.00194466 0)
(0.195939 0.001913 0)
(0.195553 0.00188199 0)
(0.19516 0.00185162 0)
(0.194762 0.00182186 0)
(0.194356 0.00179271 0)
(0.193945 0.00176415 0)
(0.193528 0.00173616 0)
(0.193105 0.00170874 0)
(0.192677 0.00168188 0)
(0.192243 0.00165555 0)
(0.191804 0.00162976 0)
(0.19136 0.00160449 0)
(0.19091 0.00157974 0)
(0.190456 0.0015555 0)
(0.189997 0.00153176 0)
(0.189534 0.00150851 0)
(0.189066 0.00148576 0)
(0.188594 0.00146349 0)
(0.188118 0.0014417 0)
(0.187637 0.0014204 0)
(0.187153 0.00139957 0)
(0.186665 0.00137922 0)
(0.186173 0.00135935 0)
(0.185678 0.00133997 0)
(0.185179 0.00132107 0)
(0.184676 0.00130267 0)
(0.18417 0.00128478 0)
(0.183661 0.00126743 0)
(0.183149 0.00125065 0)
(0.182633 0.00123454 0)
(0.182115 0.00121923 0)
(0.181593 0.00120503 0)
(0.18107 0.00119255 0)
(0.180548 0.00118263 0)
(0.180039 0.00117444 0)
(0.179434 0.00114788 0)
(0.197559 0.00614621 0)
(0.198058 0.00670895 0)
(0.198645 0.00715403 0)
(0.199281 0.0074728 0)
(0.199934 0.0076731 0)
(0.200578 0.00776671 0)
(0.201195 0.00776576 0)
(0.201772 0.00768379 0)
(0.202297 0.00753598 0)
(0.202765 0.00733799 0)
(0.203173 0.0071048 0)
(0.203521 0.00684994 0)
(0.203814 0.00658503 0)
(0.204057 0.00631948 0)
(0.204255 0.00606038 0)
(0.204414 0.00581266 0)
(0.204542 0.00557932 0)
(0.204644 0.00536184 0)
(0.204724 0.00516053 0)
(0.204788 0.00497493 0)
(0.204837 0.00480405 0)
(0.204876 0.00464665 0)
(0.204905 0.00450142 0)
(0.204926 0.00436703 0)
(0.204941 0.00424227 0)
(0.204949 0.00412604 0)
(0.204952 0.00401736 0)
(0.204949 0.00391538 0)
(0.204941 0.00381939 0)
(0.204928 0.00372876 0)
(0.204909 0.00364295 0)
(0.204885 0.00356151 0)
(0.204856 0.00348402 0)
(0.204822 0.00341016 0)
(0.204782 0.0033396 0)
(0.204737 0.00327208 0)
(0.204686 0.00320735 0)
(0.20463 0.00314521 0)
(0.204568 0.00308547 0)
(0.2045 0.00302794 0)
(0.204426 0.00297247 0)
(0.204345 0.00291892 0)
(0.204259 0.00286717 0)
(0.204166 0.00281709 0)
(0.204068 0.00276859 0)
(0.203962 0.00272155 0)
(0.20385 0.0026759 0)
(0.203732 0.00263156 0)
(0.203607 0.00258844 0)
(0.203476 0.00254649 0)
(0.203338 0.00250564 0)
(0.203193 0.00246583 0)
(0.203041 0.00242701 0)
(0.202883 0.00238914 0)
(0.202718 0.00235216 0)
(0.202546 0.00231605 0)
(0.202367 0.00228075 0)
(0.202182 0.00224624 0)
(0.201989 0.00221248 0)
(0.20179 0.00217944 0)
(0.201585 0.0021471 0)
(0.201372 0.00211543 0)
(0.201153 0.0020844 0)
(0.200927 0.002054 0)
(0.200695 0.0020242 0)
(0.200456 0.00199499 0)
(0.200211 0.00196634 0)
(0.199959 0.00193825 0)
(0.1997 0.00191069 0)
(0.199436 0.00188366 0)
(0.199165 0.00185714 0)
(0.198888 0.00183111 0)
(0.198605 0.00180557 0)
(0.198315 0.00178051 0)
(0.19802 0.00175592 0)
(0.197719 0.00173179 0)
(0.197412 0.00170812 0)
(0.197099 0.0016849 0)
(0.19678 0.00166211 0)
(0.196456 0.00163977 0)
(0.196126 0.00161786 0)
(0.195791 0.00159639 0)
(0.195451 0.00157534 0)
(0.195105 0.00155473 0)
(0.194753 0.00153455 0)
(0.194397 0.0015148 0)
(0.194036 0.00149548 0)
(0.193669 0.00147661 0)
(0.193297 0.00145819 0)
(0.192921 0.00144023 0)
(0.192539 0.00142275 0)
(0.192153 0.00140577 0)
(0.191762 0.00138933 0)
(0.191366 0.00137351 0)
(0.190966 0.00135842 0)
(0.190561 0.00134427 0)
(0.190153 0.00133133 0)
(0.189745 0.00131948 0)
(0.189346 0.00130548 0)
(0.188864 0.00126716 0)
(0.197884 0.00590952 0)
(0.198329 0.00641096 0)
(0.198851 0.00681821 0)
(0.199421 0.00712006 0)
(0.200012 0.00731884 0)
(0.200601 0.0074224 0)
(0.201171 0.00744038 0)
(0.201709 0.00738402 0)
(0.202203 0.00726609 0)
(0.202649 0.00710002 0)
(0.203043 0.00689893 0)
(0.203385 0.00667488 0)
(0.203677 0.00643838 0)
(0.203924 0.00619816 0)
(0.20413 0.00596098 0)
(0.204301 0.00573174 0)
(0.204442 0.00551366 0)
(0.204559 0.00530857 0)
(0.204655 0.0051172 0)
(0.204736 0.00493951 0)
(0.204804 0.00477494 0)
(0.204861 0.0046226 0)
(0.20491 0.00448147 0)
(0.204952 0.00435048 0)
(0.204989 0.0042286 0)
(0.205021 0.00411489 0)
(0.205049 0.00400846 0)
(0.205072 0.00390857 0)
(0.205093 0.00381454 0)
(0.20511 0.00372579 0)
(0.205124 0.00364181 0)
(0.205135 0.00356217 0)
(0.205144 0.00348648 0)
(0.205149 0.0034144 0)
(0.205151 0.00334564 0)
(0.20515 0.00327992 0)
(0.205146 0.00321702 0)
(0.205138 0.00315673 0)
(0.205128 0.00309884 0)
(0.205114 0.0030432 0)
(0.205097 0.00298963 0)
(0.205076 0.00293801 0)
(0.205051 0.0028882 0)
(0.205023 0.00284009 0)
(0.204991 0.00279357 0)
(0.204956 0.00274853 0)
(0.204916 0.00270489 0)
(0.204872 0.00266257 0)
(0.204824 0.00262148 0)
(0.204772 0.00258157 0)
(0.204715 0.00254276 0)
(0.204654 0.002505 0)
(0.204589 0.00246823 0)
(0.204519 0.00243239 0)
(0.204444 0.00239745 0)
(0.204364 0.00236337 0)
(0.20428 0.00233009 0)
(0.204191 0.00229758 0)
(0.204096 0.00226581 0)
(0.203997 0.00223474 0)
(0.203893 0.00220436 0)
(0.203783 0.00217462 0)
(0.203669 0.0021455 0)
(0.203549 0.00211699 0)
(0.203424 0.00208905 0)
(0.203293 0.00206167 0)
(0.203158 0.00203483 0)
(0.203017 0.00200851 0)
(0.20287 0.0019827 0)
(0.202719 0.00195737 0)
(0.202561 0.00193252 0)
(0.202399 0.00190814 0)
(0.202231 0.00188421 0)
(0.202057 0.00186072 0)
(0.201879 0.00183766 0)
(0.201694 0.00181503 0)
(0.201505 0.00179282 0)
(0.201309 0.00177102 0)
(0.201109 0.00174963 0)
(0.200903 0.00172864 0)
(0.200692 0.00170804 0)
(0.200475 0.00168785 0)
(0.200253 0.00166804 0)
(0.200025 0.00164864 0)
(0.199792 0.00162963 0)
(0.199554 0.00161102 0)
(0.19931 0.00159281 0)
(0.199061 0.00157502 0)
(0.198807 0.00155764 0)
(0.198547 0.0015407 0)
(0.198282 0.0015242 0)
(0.198012 0.00150818 0)
(0.197736 0.00149267 0)
(0.197455 0.00147772 0)
(0.19717 0.00146342 0)
(0.196879 0.00144985 0)
(0.196585 0.00143699 0)
(0.196289 0.00142397 0)
(0.195998 0.00140628 0)
(0.195637 0.00136287 0)
(0.198176 0.0056917 0)
(0.198577 0.00614001 0)
(0.199044 0.00651189 0)
(0.199556 0.00679569 0)
(0.200092 0.00699028 0)
(0.200631 0.00710039 0)
(0.201157 0.00713341 0)
(0.201657 0.0070985 0)
(0.202122 0.00700632 0)
(0.202546 0.00686834 0)
(0.202924 0.00669595 0)
(0.203257 0.00649981 0)
(0.203546 0.00628941 0)
(0.203793 0.00607275 0)
(0.204003 0.00585625 0)
(0.20418 0.00564468 0)
(0.204329 0.00544139 0)
(0.204455 0.00524845 0)
(0.204561 0.00506692 0)
(0.204652 0.00489713 0)
(0.20473 0.00473886 0)
(0.204797 0.00459154 0)
(0.204857 0.00445443 0)
(0.204909 0.0043267 0)
(0.204957 0.0042075 0)
(0.205 0.00409601 0)
(0.205039 0.00399149 0)
(0.205075 0.00389326 0)
(0.205108 0.00380071 0)
(0.205139 0.00371331 0)
(0.205167 0.00363058 0)
(0.205194 0.00355213 0)
(0.205218 0.00347757 0)
(0.205241 0.00340659 0)
(0.205262 0.00333891 0)
(0.205281 0.00327427 0)
(0.205299 0.00321244 0)
(0.205314 0.00315321 0)
(0.205328 0.00309641 0)
(0.205341 0.00304186 0)
(0.205351 0.0029894 0)
(0.20536 0.00293891 0)
(0.205366 0.00289025 0)
(0.205371 0.0028433 0)
(0.205373 0.00279796 0)
(0.205374 0.00275414 0)
(0.205372 0.00271174 0)
(0.205368 0.00267068 0)
(0.205362 0.00263087 0)
(0.205353 0.00259227 0)
(0.205342 0.00255478 0)
(0.205329 0.00251837 0)
(0.205312 0.00248296 0)
(0.205293 0.00244852 0)
(0.205271 0.00241498 0)
(0.205246 0.00238231 0)
(0.205218 0.00235046 0)
(0.205187 0.0023194 0)
(0.205153 0.00228909 0)
(0.205116 0.00225949 0)
(0.205075 0.00223059 0)
(0.205031 0.00220233 0)
(0.204984 0.00217471 0)
(0.204933 0.00214769 0)
(0.204878 0.00212124 0)
(0.20482 0.00209536 0)
(0.204758 0.00207002 0)
(0.204692 0.00204519 0)
(0.204622 0.00202087 0)
(0.204549 0.00199704 0)
(0.204471 0.00197367 0)
(0.204389 0.00195076 0)
(0.204303 0.0019283 0)
(0.204213 0.00190627 0)
(0.204119 0.00188467 0)
(0.204021 0.00186348 0)
(0.203918 0.00184269 0)
(0.20381 0.00182231 0)
(0.203699 0.00180231 0)
(0.203583 0.00178271 0)
(0.203462 0.00176349 0)
(0.203337 0.00174465 0)
(0.203207 0.0017262 0)
(0.203073 0.00170812 0)
(0.202934 0.00169042 0)
(0.202791 0.00167311 0)
(0.202642 0.00165619 0)
(0.202489 0.00163967 0)
(0.202331 0.00162354 0)
(0.202169 0.00160784 0)
(0.202001 0.00159256 0)
(0.201828 0.00157774 0)
(0.201651 0.00156341 0)
(0.201469 0.00154959 0)
(0.201282 0.00153634 0)
(0.20109 0.00152363 0)
(0.200895 0.00151119 0)
(0.200697 0.00149772 0)
(0.200501 0.00147838 0)