/*--------------------------------*- C++ -*----------------------------------*\
| =========                 |                                                 |
| \\      /  F ield         | OpenFOAM: The Open Source CFD Toolbox           |
|  \\    /   O peration     | Version:  2.3.0                                 |
|   \\  /    A nd           | Web:      www.OpenFOAM.org                      |
|    \\/     M anipulation  |                                                 |
\*---------------------------------------------------------------------------*/
FoamFile
{
    version     2.0;
    format      ascii;
    class       surfaceScalarField;
    location    "0.4";
    object      phi;
}
// * * * * * * * * * * * * * * * * * * * * * * * * * * * * * * * * * * * * * //

dimensions      [0 3 -1 0 0 0 0];

internalField   nonuniform List<scalar> 
4357
(
4.99641e-08
2.04735e-09
-5.20114e-08
4.78095e-08
2.15464e-09
4.5645e-08
2.16443e-09
4.34965e-08
2.14849e-09
4.13761e-08
2.12041e-09
3.92947e-08
2.08144e-09
3.7261e-08
2.03373e-09
3.52817e-08
1.97925e-09
3.33624e-08
1.91929e-09
3.15078e-08
1.85458e-09
2.97222e-08
1.78562e-09
2.80094e-08
1.71285e-09
2.63727e-08
1.63671e-09
2.4815e-08
1.55768e-09
2.33387e-08
1.47628e-09
2.19456e-08
1.39309e-09
2.06369e-08
1.30874e-09
1.9413e-08
1.22391e-09
1.82736e-08
1.13933e-09
1.72179e-08
1.05572e-09
1.62441e-08
9.7383e-10
1.53497e-08
8.94354e-10
1.45318e-08
8.17949e-10
1.37866e-08
7.45198e-10
1.311e-08
6.76593e-10
1.24975e-08
6.12522e-10
1.19442e-08
5.53256e-10
1.14452e-08
4.98953e-10
1.09956e-08
4.49654e-10
1.05903e-08
4.05294e-10
1.02246e-08
3.65715e-10
9.8939e-09
3.30678e-10
9.59402e-09
2.99885e-10
9.32103e-09
2.72992e-10
9.0714e-09
2.4963e-10
8.84198e-09
2.29419e-10
8.63e-09
2.1198e-10
8.43305e-09
1.96951e-10
8.24906e-09
1.83988e-10
8.07628e-09
1.72777e-10
7.91324e-09
1.63038e-10
7.75872e-09
1.5452e-10
7.61172e-09
1.47008e-10
7.4714e-09
1.40319e-10
7.3371e-09
1.34299e-10
7.20828e-09
1.28823e-10
7.08449e-09
1.23786e-10
6.96538e-09
1.19106e-10
6.85067e-09
1.14718e-10
6.74009e-09
1.10571e-10
6.63347e-09
1.06627e-10
6.53061e-09
1.02856e-10
6.43138e-09
9.92353e-11
6.33563e-09
9.57483e-11
6.24325e-09
9.2382e-11
6.15412e-09
8.91265e-11
6.06815e-09
8.59738e-11
5.98523e-09
8.29175e-11
5.90528e-09
7.99515e-11
5.82821e-09
7.70709e-11
5.75393e-09
7.42704e-11
5.68239e-09
7.15454e-11
5.6135e-09
6.8891e-11
5.5472e-09
6.63024e-11
5.48342e-09
6.37749e-11
5.42212e-09
6.13038e-11
5.36323e-09
5.88845e-11
5.30672e-09
5.65125e-11
5.25254e-09
5.41836e-11
5.20064e-09
5.18936e-11
5.151e-09
4.96389e-11
5.10359e-09
4.74158e-11
5.05837e-09
4.52207e-11
5.01532e-09
4.305e-11
4.97442e-09
4.08999e-11
4.93565e-09
3.87657e-11
4.89901e-09
3.66423e-11
4.86449e-09
3.45241e-11
4.83208e-09
3.24052e-11
4.8018e-09
3.02802e-11
4.77366e-09
2.81448e-11
4.74766e-09
2.5998e-11
4.72382e-09
2.38424e-11
4.70213e-09
2.16857e-11
4.68259e-09
1.9542e-11
4.66516e-09
1.74315e-11
4.64978e-09
1.53802e-11
4.63636e-09
1.34194e-11
4.62477e-09
1.15832e-11
4.61487e-09
9.90725e-12
4.60644e-09
8.42587e-12
4.59927e-09
7.17026e-12
4.5931e-09
6.16675e-12
4.58767e-09
5.43624e-12
4.58267e-09
4.99602e-12
4.5778e-09
4.867e-12
4.57271e-09
5.09406e-12
4.56694e-09
5.77447e-12
4.55952e-09
7.41937e-12
2.04379e-11
5.77101e-08
2.15783e-09
-5.78206e-08
5.74672e-08
2.39758e-09
5.70899e-08
2.54178e-09
5.65989e-08
2.63941e-09
5.6009e-08
2.71037e-09
5.53315e-08
2.75887e-09
5.45777e-08
2.78756e-09
5.37577e-08
2.79928e-09
5.28808e-08
2.79617e-09
5.19558e-08
2.7796e-09
5.09909e-08
2.75053e-09
4.99939e-08
2.70985e-09
4.89722e-08
2.65842e-09
4.79327e-08
2.59713e-09
4.68821e-08
2.52693e-09
4.58263e-08
2.44883e-09
4.47711e-08
2.36396e-09
4.37215e-08
2.27349e-09
4.26822e-08
2.17866e-09
4.16572e-08
2.08074e-09
4.065e-08
1.98103e-09
3.96636e-08
1.88075e-09
3.87004e-08
1.78112e-09
3.77624e-08
1.68321e-09
3.6851e-08
1.588e-09
3.59672e-08
1.49631e-09
3.51116e-08
1.40882e-09
3.42846e-08
1.32603e-09
3.3486e-08
1.24827e-09
3.27155e-08
1.17572e-09
3.19728e-08
1.10843e-09
3.12572e-08
1.04632e-09
3.05678e-08
9.89208e-10
2.9904e-08
9.36831e-10
2.92648e-08
8.8888e-10
2.86492e-08
8.45006e-10
2.80563e-08
8.04845e-10
2.74852e-08
7.6803e-10
2.6935e-08
7.34206e-10
2.64047e-08
7.03036e-10
2.58936e-08
6.74207e-10
2.54007e-08
6.47438e-10
2.49252e-08
6.22473e-10
2.44664e-08
5.99094e-10
2.40236e-08
5.7711e-10
2.35961e-08
5.56354e-10
2.31832e-08
5.36687e-10
2.27843e-08
5.17988e-10
2.23989e-08
5.00157e-10
2.20263e-08
4.8311e-10
2.16662e-08
4.66776e-10
2.13179e-08
4.51094e-10
2.09812e-08
4.36012e-10
2.06554e-08
4.21486e-10
2.03403e-08
4.07477e-10
2.00355e-08
3.9395e-10
1.97406e-08
3.80872e-10
1.94553e-08
3.68214e-10
1.91793e-08
3.55948e-10
1.89123e-08
3.4405e-10
1.86541e-08
3.32492e-10
1.84044e-08
3.21253e-10
1.8163e-08
3.10309e-10
1.79296e-08
2.99637e-10
1.77042e-08
2.89218e-10
1.74865e-08
2.79031e-10
1.72763e-08
2.69056e-10
1.70735e-08
2.59276e-10
1.6878e-08
2.49674e-10
1.66897e-08
2.40234e-10
1.65084e-08
2.30942e-10
1.6334e-08
2.21784e-10
1.61665e-08
2.12747e-10
1.60057e-08
2.03819e-10
1.58517e-08
1.94989e-10
1.57042e-08
1.86244e-10
1.55632e-08
1.77573e-10
1.54288e-08
1.68966e-10
1.53008e-08
1.60413e-10
1.51792e-08
1.51911e-10
1.50638e-08
1.43465e-10
1.49548e-08
1.35086e-10
1.48518e-08
1.26804e-10
1.47548e-08
1.18661e-10
1.46636e-08
1.10719e-10
1.4578e-08
1.03053e-10
1.44976e-08
9.57569e-11
1.44221e-08
8.89326e-11
1.4351e-08
8.26877e-11
1.42838e-08
7.71283e-11
1.42199e-08
7.23522e-11
1.41586e-08
6.84428e-11
1.40993e-08
6.54645e-11
1.40413e-08
6.34616e-11
1.39838e-08
6.24638e-11
1.39262e-08
6.25063e-11
1.38676e-08
6.36879e-11
1.3807e-08
6.63826e-11
1.37416e-08
7.28113e-11
9.4637e-11
6.27588e-08
2.15043e-09
-6.27514e-08
6.27705e-08
2.38583e-09
6.27539e-08
2.55835e-09
6.27008e-08
2.69259e-09
6.26075e-08
2.80362e-09
6.2471e-08
2.89543e-09
6.22892e-08
2.96928e-09
6.20619e-08
3.02664e-09
6.17892e-08
3.06882e-09
6.14722e-08
3.09665e-09
6.1112e-08
3.11065e-09
6.07106e-08
3.11125e-09
6.02701e-08
3.09895e-09
5.9793e-08
3.07429e-09
5.92819e-08
3.03797e-09
5.87399e-08
2.99079e-09
5.81702e-08
2.93372e-09
5.75758e-08
2.86783e-09
5.69602e-08
2.79435e-09
5.63263e-08
2.71456e-09
5.56775e-08
2.62983e-09
5.50168e-08
2.54154e-09
5.43468e-08
2.45104e-09
5.36704e-08
2.35963e-09
5.29899e-08
2.2685e-09
5.23075e-08
2.17872e-09
5.16251e-08
2.09121e-09
5.09444e-08
2.00672e-09
5.02668e-08
1.92583e-09
4.95936e-08
1.84894e-09
4.89258e-08
1.7763e-09
4.8264e-08
1.70803e-09
4.76092e-08
1.6441e-09
4.69616e-08
1.5844e-09
4.63217e-08
1.52873e-09
4.56899e-08
1.47684e-09
4.50663e-08
1.42843e-09
4.44511e-08
1.3832e-09
4.38445e-08
1.34085e-09
4.32465e-08
1.30105e-09
4.26572e-08
1.26352e-09
4.20766e-08
1.22799e-09
4.15049e-08
1.19422e-09
4.0942e-08
1.162e-09
4.0388e-08
1.13113e-09
3.98429e-08
1.10145e-09
3.93067e-08
1.07282e-09
3.87796e-08
1.04511e-09
3.82615e-08
1.01825e-09
3.77525e-08
9.92122e-10
3.72526e-08
9.66677e-10
3.67619e-08
9.4185e-10
3.62803e-08
9.17591e-10
3.58079e-08
8.93858e-10
3.53448e-08
8.70614e-10
3.48909e-08
8.47826e-10
3.44463e-08
8.25463e-10
3.4011e-08
8.03499e-10
3.35851e-08
7.81907e-10
3.31684e-08
7.60661e-10
3.27612e-08
7.39739e-10
3.23633e-08
7.19117e-10
3.19749e-08
6.98773e-10
3.15958e-08
6.78684e-10
3.12262e-08
6.58828e-10
3.08661e-08
6.39187e-10
3.05154e-08
6.19738e-10
3.01742e-08
6.00465e-10
2.98425e-08
5.8135e-10
2.95204e-08
5.62376e-10
2.92078e-08
5.43528e-10
2.89048e-08
5.24795e-10
2.86114e-08
5.06162e-10
2.83276e-08
4.87619e-10
2.80534e-08
4.69157e-10
2.77889e-08
4.50766e-10
2.7534e-08
4.3244e-10
2.72888e-08
4.14179e-10
2.70532e-08
3.95986e-10
2.68272e-08
3.77878e-10
2.66108e-08
3.59886e-10
2.64038e-08
3.4206e-10
2.62062e-08
3.24476e-10
2.60176e-08
3.07237e-10
2.58378e-08
2.90473e-10
2.56666e-08
2.74343e-10
2.55033e-08
2.59028e-10
2.53475e-08
2.44725e-10
2.51985e-08
2.31636e-10
2.50557e-08
2.19957e-10
2.49182e-08
2.09867e-10
2.47851e-08
2.01518e-10
2.46556e-08
1.95024e-10
2.45286e-08
1.90462e-10
2.44032e-08
1.8788e-10
2.42783e-08
1.87333e-10
2.4153e-08
1.8899e-10
2.40259e-08
1.93528e-10
2.38948e-08
2.03886e-10
2.28568e-10
6.80008e-08
2.17425e-09
-6.80246e-08
6.80051e-08
2.38155e-09
6.80121e-08
2.55129e-09
6.80129e-08
2.69179e-09
6.80046e-08
2.81193e-09
6.79846e-08
2.91542e-09
6.79504e-08
3.00351e-09
6.78998e-08
3.07726e-09
6.78309e-08
3.13767e-09
6.77422e-08
3.18542e-09
6.76319e-08
3.2209e-09
6.74988e-08
3.24436e-09
6.73418e-08
3.25601e-09
6.71599e-08
3.25613e-09
6.69528e-08
3.2451e-09
6.67202e-08
3.2234e-09
6.64622e-08
3.19167e-09
6.61794e-08
3.15067e-09
6.58724e-08
3.10133e-09
6.55423e-08
3.04467e-09
6.51903e-08
2.98184e-09
6.48178e-08
2.91403e-09
6.44264e-08
2.84245e-09
6.40177e-08
2.7683e-09
6.35935e-08
2.69275e-09
6.31553e-08
2.61685e-09
6.2705e-08
2.54156e-09
6.2244e-08
2.4677e-09
6.17739e-08
2.39594e-09
6.1296e-08
2.32681e-09
6.08117e-08
2.26068e-09
6.03219e-08
2.1978e-09
5.98277e-08
2.13827e-09
5.933e-08
2.08211e-09
5.88295e-08
2.02924e-09
5.83268e-08
1.9795e-09
5.78226e-08
1.9327e-09
5.73172e-08
1.88861e-09
5.6811e-08
1.84698e-09
5.63045e-08
1.80755e-09
5.5798e-08
1.77007e-09
5.52917e-08
1.73431e-09
5.47858e-08
1.70005e-09
5.42808e-08
1.66707e-09
5.37767e-08
1.6352e-09
5.32739e-08
1.60428e-09
5.27725e-08
1.57418e-09
5.22728e-08
1.54477e-09
5.17751e-08
1.51595e-09
5.12796e-08
1.48763e-09
5.07866e-08
1.45975e-09
5.02962e-08
1.43223e-09
4.98087e-08
1.40504e-09
4.93245e-08
1.37811e-09
4.88437e-08
1.35142e-09
4.83666e-08
1.32493e-09
4.78934e-08
1.2986e-09
4.74245e-08
1.27241e-09
4.69601e-08
1.24633e-09
4.65004e-08
1.22034e-09
4.60458e-08
1.1944e-09
4.55964e-08
1.16851e-09
4.51525e-08
1.14262e-09
4.47145e-08
1.11673e-09
4.42825e-08
1.09081e-09
4.38568e-08
1.06484e-09
4.34378e-08
1.0388e-09
4.30256e-08
1.01268e-09
4.26205e-08
9.86456e-10
4.22227e-08
9.6012e-10
4.18326e-08
9.33657e-10
4.14503e-08
9.07061e-10
4.10762e-08
8.80323e-10
4.07103e-08
8.53439e-10
4.03531e-08
8.26409e-10
4.00046e-08
7.99234e-10
3.96651e-08
7.71925e-10
3.93348e-08
7.44499e-10
3.90138e-08
7.16987e-10
3.87023e-08
6.89437e-10
3.84002e-08
6.61921e-10
3.81077e-08
6.3454e-10
3.78248e-08
6.07429e-10
3.75513e-08
5.80761e-10
3.7287e-08
5.54747e-10
3.70317e-08
5.29632e-10
3.6785e-08
5.05691e-10
3.65465e-08
4.83218e-10
3.63157e-08
4.6251e-10
3.60918e-08
4.43859e-10
3.58741e-08
4.27526e-10
3.56619e-08
4.13738e-10
3.54542e-08
4.0267e-10
3.52503e-08
3.94444e-10
3.5049e-08
3.89143e-10
3.48495e-08
3.86852e-10
3.46507e-08
3.87795e-10
3.44515e-08
3.92728e-10
3.42514e-08
4.04001e-10
4.25397e-10
7.36429e-08
2.23317e-09
-7.37019e-08
7.36125e-08
2.41197e-09
7.35945e-08
2.56934e-09
7.35805e-08
2.70572e-09
7.35675e-08
2.82495e-09
7.35533e-08
2.92961e-09
7.3536e-08
3.02086e-09
7.35138e-08
3.09946e-09
7.34853e-08
3.16616e-09
7.34492e-08
3.22152e-09
7.34041e-08
3.26595e-09
7.33488e-08
3.29968e-09
7.32819e-08
3.32292e-09
7.32021e-08
3.33591e-09
7.31083e-08
3.33893e-09
7.29993e-08
3.33234e-09
7.28744e-08
3.31662e-09
7.27327e-08
3.29233e-09
7.25739e-08
3.26019e-09
7.23975e-08
3.22099e-09
7.22037e-08
3.17565e-09
7.19926e-08
3.12512e-09
7.17647e-08
3.07041e-09
7.15204e-08
3.01254e-09
7.12607e-08
2.95251e-09
7.09863e-08
2.89126e-09
7.06982e-08
2.82967e-09
7.03974e-08
2.76849e-09
7.00849e-08
2.70841e-09
6.97618e-08
2.64994e-09
6.94289e-08
2.59352e-09
6.90873e-08
2.53943e-09
6.87377e-08
2.48787e-09
6.83809e-08
2.43892e-09
6.80176e-08
2.39258e-09
6.76483e-08
2.34879e-09
6.72735e-08
2.30743e-09
6.68938e-08
2.26833e-09
6.65095e-08
2.23131e-09
6.61209e-08
2.19616e-09
6.57283e-08
2.16268e-09
6.53319e-08
2.13066e-09
6.49321e-08
2.09991e-09
6.45289e-08
2.07023e-09
6.41226e-08
2.04147e-09
6.37134e-08
2.01348e-09
6.33015e-08
1.9861e-09
6.28871e-08
1.95923e-09
6.24702e-08
1.93276e-09
6.20513e-08
1.90659e-09
6.16304e-08
1.88065e-09
6.12077e-08
1.85487e-09
6.07836e-08
1.82919e-09
6.03582e-08
1.80355e-09
5.99317e-08
1.7779e-09
5.95044e-08
1.7522e-09
5.90766e-08
1.72642e-09
5.86485e-08
1.70051e-09
5.82204e-08
1.67444e-09
5.77925e-08
1.64818e-09
5.73653e-08
1.62169e-09
5.69388e-08
1.59494e-09
5.65135e-08
1.56791e-09
5.60897e-08
1.54056e-09
5.56677e-08
1.51286e-09
5.52477e-08
1.4848e-09
5.48301e-08
1.45635e-09
5.44153e-08
1.42748e-09
5.40036e-08
1.39818e-09
5.35953e-08
1.36843e-09
5.31907e-08
1.33822e-09
5.27903e-08
1.30753e-09
5.23942e-08
1.27636e-09
5.2003e-08
1.24471e-09
5.16168e-08
1.21259e-09
5.1236e-08
1.18e-09
5.0861e-08
1.14697e-09
5.04919e-08
1.11353e-09
5.01292e-08
1.07974e-09
4.97729e-08
1.04568e-09
4.94234e-08
1.01146e-09
4.90807e-08
9.7721e-10
4.8745e-08
9.43134e-10
4.84163e-08
9.09458e-10
4.80946e-08
8.7646e-10
4.77798e-08
8.44458e-10
4.74717e-08
8.138e-10
4.717e-08
7.84858e-10
4.68745e-08
7.58009e-10
4.65848e-08
7.33617e-10
4.63003e-08
7.12016e-10
4.60205e-08
6.93497e-10
4.57449e-08
6.78291e-10
4.54728e-08
6.66565e-10
4.52035e-08
6.5844e-10
4.49363e-08
6.54025e-10
4.46706e-08
6.5353e-10
4.44058e-08
6.57494e-10
4.41429e-08
6.66966e-10
6.81211e-10
7.97334e-08
2.31829e-09
-7.98185e-08
7.96728e-08
2.47248e-09
7.96275e-08
2.61467e-09
7.95904e-08
2.74281e-09
7.95578e-08
2.85763e-09
7.95271e-08
2.96027e-09
7.94966e-08
3.05138e-09
7.94647e-08
3.13137e-09
7.94302e-08
3.20066e-09
7.93921e-08
3.25963e-09
7.93494e-08
3.3086e-09
7.93013e-08
3.34781e-09
7.92467e-08
3.37748e-09
7.91848e-08
3.39785e-09
7.91146e-08
3.40918e-09
7.90351e-08
3.41181e-09
7.89456e-08
3.40615e-09
7.88452e-08
3.39269e-09
7.87334e-08
3.37202e-09
7.86095e-08
3.34481e-09
7.84734e-08
3.3118e-09
7.83247e-08
3.27379e-09
7.81635e-08
3.23163e-09
7.79899e-08
3.18617e-09
7.78041e-08
3.13826e-09
7.76067e-08
3.08873e-09
7.7398e-08
3.03833e-09
7.71787e-08
2.98777e-09
7.69495e-08
2.93765e-09
7.67109e-08
2.88849e-09
7.64637e-08
2.8407e-09
7.62085e-08
2.79461e-09
7.5946e-08
2.75043e-09
7.56766e-08
2.7083e-09
7.54009e-08
2.66828e-09
7.51193e-08
2.63035e-09
7.48323e-08
2.59447e-09
7.45401e-08
2.56053e-09
7.4243e-08
2.52839e-09
7.39413e-08
2.4979e-09
7.36351e-08
2.46889e-09
7.33245e-08
2.44119e-09
7.30098e-08
2.41464e-09
7.2691e-08
2.38906e-09
7.23681e-08
2.36432e-09
7.20414e-08
2.34025e-09
7.17107e-08
2.31674e-09
7.13763e-08
2.29366e-09
7.10381e-08
2.27091e-09
7.06963e-08
2.24839e-09
7.0351e-08
2.22601e-09
7.00022e-08
2.20369e-09
6.965e-08
2.18136e-09
6.92946e-08
2.15897e-09
6.8936e-08
2.13644e-09
6.85745e-08
2.11373e-09
6.82101e-08
2.09079e-09
6.78431e-08
2.06757e-09
6.74735e-08
2.04401e-09
6.71016e-08
2.02008e-09
6.67276e-08
1.99573e-09
6.63516e-08
1.97092e-09
6.59739e-08
1.94561e-09
6.55947e-08
1.91976e-09
6.52142e-08
1.89333e-09
6.48327e-08
1.86629e-09
6.44505e-08
1.8386e-09
6.40677e-08
1.81024e-09
6.36847e-08
1.78117e-09
6.33018e-08
1.75137e-09
6.29192e-08
1.72082e-09
6.25372e-08
1.6895e-09
6.21562e-08
1.65741e-09
6.17763e-08
1.62454e-09
6.1398e-08
1.59089e-09
6.10216e-08
1.55649e-09
6.06472e-08
1.52135e-09
6.02752e-08
1.48553e-09
5.99058e-08
1.4491e-09
5.95393e-08
1.41216e-09
5.9176e-08
1.37483e-09
5.88159e-08
1.3373e-09
5.84592e-08
1.29979e-09
5.81061e-08
1.26256e-09
5.77566e-08
1.22593e-09
5.74108e-08
1.19026e-09
5.70687e-08
1.15595e-09
5.67301e-08
1.12342e-09
5.6395e-08
1.09309e-09
5.60633e-08
1.06538e-09
5.57346e-08
1.04065e-09
5.54089e-08
1.01925e-09
5.50857e-08
1.00144e-09
5.47649e-08
9.87437e-10
5.44459e-08
9.77376e-10
5.41286e-08
9.71366e-10
5.38126e-08
9.69528e-10
5.34981e-08
9.72012e-10
5.31864e-08
9.78594e-10
9.85851e-10
8.63082e-08
2.42428e-09
-8.64142e-08
8.62221e-08
2.55856e-09
8.61507e-08
2.6861e-09
8.60889e-08
2.80457e-09
8.60333e-08
2.91328e-09
8.59813e-08
3.01224e-09
8.59311e-08
3.10156e-09
8.58812e-08
3.18132e-09
8.58302e-08
3.25165e-09
8.57771e-08
3.31272e-09
8.5721e-08
3.36473e-09
8.56609e-08
3.40783e-09
8.55962e-08
3.44222e-09
8.55259e-08
3.4681e-09
8.54494e-08
3.48569e-09
8.53659e-08
3.49531e-09
8.52748e-08
3.49731e-09
8.51753e-08
3.49212e-09
8.50671e-08
3.48023e-09
8.49497e-08
3.46223e-09
8.48228e-08
3.43873e-09
8.46861e-08
3.41042e-09
8.45398e-08
3.37802e-09
8.43837e-08
3.34226e-09
8.4218e-08
3.30388e-09
8.40432e-08
3.26358e-09
8.38595e-08
3.22206e-09
8.36673e-08
3.17992e-09
8.34672e-08
3.13774e-09
8.32597e-08
3.096e-09
8.30453e-08
3.05509e-09
8.28246e-08
3.01536e-09
8.25979e-08
2.97704e-09
8.23659e-08
2.94031e-09
8.21289e-08
2.90526e-09
8.18874e-08
2.87195e-09
8.16415e-08
2.84036e-09
8.13916e-08
2.81043e-09
8.11379e-08
2.7821e-09
8.08805e-08
2.75524e-09
8.06197e-08
2.72974e-09
8.03554e-08
2.70546e-09
8.00878e-08
2.68226e-09
7.98168e-08
2.66001e-09
7.95425e-08
2.63857e-09
7.9265e-08
2.61782e-09
7.89841e-08
2.59762e-09
7.86999e-08
2.57787e-09
7.84123e-08
2.55847e-09
7.81214e-08
2.53931e-09
7.78271e-08
2.5203e-09
7.75294e-08
2.50137e-09
7.72284e-08
2.48244e-09
7.69239e-08
2.46343e-09
7.66161e-08
2.44428e-09
7.63049e-08
2.42492e-09
7.59904e-08
2.4053e-09
7.56726e-08
2.38535e-09
7.53516e-08
2.36502e-09
7.50274e-08
2.34426e-09
7.47001e-08
2.323e-09
7.43698e-08
2.3012e-09
7.40366e-08
2.27881e-09
7.37006e-08
2.25578e-09
7.33619e-08
2.23205e-09
7.30206e-08
2.20758e-09
7.26769e-08
2.18234e-09
7.23308e-08
2.15627e-09
7.19827e-08
2.12934e-09
7.16325e-08
2.10152e-09
7.12806e-08
2.07277e-09
7.0927e-08
2.04308e-09
7.0572e-08
2.01243e-09
7.02157e-08
1.98081e-09
6.98583e-08
1.94822e-09
6.95002e-08
1.91468e-09
6.91413e-08
1.88022e-09
6.87819e-08
1.84488e-09
6.84223e-08
1.80875e-09
6.80625e-08
1.77194e-09
6.77028e-08
1.73458e-09
6.73432e-08
1.69687e-09
6.69839e-08
1.65904e-09
6.66251e-08
1.62137e-09
6.62669e-08
1.5842e-09
6.59092e-08
1.54791e-09
6.55523e-08
1.5129e-09
6.51961e-08
1.4796e-09
6.48407e-08
1.44846e-09
6.44862e-08
1.41991e-09
6.41325e-08
1.39435e-09
6.37796e-08
1.37213e-09
6.34275e-08
1.35354e-09
6.30762e-08
1.3388e-09
6.27255e-08
1.32807e-09
6.23754e-08
1.32141e-09
6.20261e-08
1.31884e-09
6.1678e-08
1.32013e-09
6.13322e-08
1.32433e-09
1.32761e-09
9.34058e-08
2.54905e-09
-9.35305e-08
9.32968e-08
2.66751e-09
9.32008e-08
2.78211e-09
9.31145e-08
2.89091e-09
9.3035e-08
2.99275e-09
9.29602e-08
3.08709e-09
9.28881e-08
3.17361e-09
9.28173e-08
3.25213e-09
9.27464e-08
3.32256e-09
9.26742e-08
3.38488e-09
9.25998e-08
3.43913e-09
9.25223e-08
3.48538e-09
9.24408e-08
3.52373e-09
9.23545e-08
3.55433e-09
9.22629e-08
3.57736e-09
9.21651e-08
3.59307e-09
9.20607e-08
3.60174e-09
9.19491e-08
3.60374e-09
9.18298e-08
3.5995e-09
9.17025e-08
3.58948e-09
9.1567e-08
3.57423e-09
9.14231e-08
3.55432e-09
9.12708e-08
3.53036e-09
9.11101e-08
3.50298e-09
9.09411e-08
3.47281e-09
9.07642e-08
3.44048e-09
9.05797e-08
3.40658e-09
9.0388e-08
3.37168e-09
9.01894e-08
3.33628e-09
8.99846e-08
3.30085e-09
8.97739e-08
3.26578e-09
8.95579e-08
3.23139e-09
8.93369e-08
3.19795e-09
8.91116e-08
3.16566e-09
8.88822e-08
3.13464e-09
8.86492e-08
3.105e-09
8.84128e-08
3.07676e-09
8.81733e-08
3.04992e-09
8.79309e-08
3.02444e-09
8.76859e-08
3.00028e-09
8.74383e-08
2.97733e-09
8.71883e-08
2.95551e-09
8.69358e-08
2.93471e-09
8.6681e-08
2.91483e-09
8.64238e-08
2.89575e-09
8.61643e-08
2.87736e-09
8.59024e-08
2.85956e-09
8.5638e-08
2.84225e-09
8.53711e-08
2.82533e-09
8.51017e-08
2.8087e-09
8.48298e-08
2.79228e-09
8.45551e-08
2.776e-09
8.42778e-08
2.75976e-09
8.39977e-08
2.74351e-09
8.37149e-08
2.72716e-09
8.34291e-08
2.71064e-09
8.31405e-08
2.69391e-09
8.2849e-08
2.67688e-09
8.25545e-08
2.6595e-09
8.22571e-08
2.6417e-09
8.19566e-08
2.62343e-09
8.16532e-08
2.60462e-09
8.13468e-08
2.58523e-09
8.10374e-08
2.56518e-09
8.0725e-08
2.54443e-09
8.04097e-08
2.52292e-09
8.00914e-08
2.5006e-09
7.97703e-08
2.47743e-09
7.94462e-08
2.45335e-09
7.91194e-08
2.42833e-09
7.87899e-08
2.40233e-09
7.84576e-08
2.37533e-09
7.81228e-08
2.3473e-09
7.77853e-08
2.31822e-09
7.74455e-08
2.2881e-09
7.71032e-08
2.25696e-09
7.67586e-08
2.22481e-09
7.64118e-08
2.19171e-09
7.60628e-08
2.15774e-09
7.57117e-08
2.12301e-09
7.53586e-08
2.08766e-09
7.50036e-08
2.05189e-09
7.46467e-08
2.01591e-09
7.42881e-08
1.98002e-09
7.39277e-08
1.94455e-09
7.35658e-08
1.90985e-09
7.32023e-08
1.87634e-09
7.28375e-08
1.84443e-09
7.24714e-08
1.81457e-09
7.21042e-08
1.78716e-09
7.17359e-08
1.76262e-09
7.13667e-08
1.74128e-09
7.09968e-08
1.72346e-09
7.06262e-08
1.70936e-09
7.02552e-08
1.69913e-09
6.98838e-08
1.69281e-09
6.95123e-08
1.69028e-09
6.91413e-08
1.69114e-09
6.87713e-08
1.69434e-09
1.69734e-09
1.01068e-07
2.69198e-09
-1.01211e-07
1.00938e-07
2.79796e-09
1.00818e-07
2.90166e-09
1.00707e-07
3.0016e-09
1.00604e-07
3.09666e-09
1.00505e-07
3.18606e-09
1.00409e-07
3.26928e-09
1.00315e-07
3.34596e-09
1.00222e-07
3.41583e-09
1.00128e-07
3.47874e-09
1.00032e-07
3.5346e-09
9.99345e-08
3.58337e-09
9.98331e-08
3.62509e-09
9.97276e-08
3.65982e-09
9.96173e-08
3.68768e-09
9.95015e-08
3.70886e-09
9.93797e-08
3.72358e-09
9.92513e-08
3.73212e-09
9.91159e-08
3.73484e-09
9.89733e-08
3.73213e-09
9.88231e-08
3.72442e-09
9.86652e-08
3.7122e-09
9.84996e-08
3.69598e-09
9.83263e-08
3.6763e-09
9.81454e-08
3.65369e-09
9.79572e-08
3.62871e-09
9.77619e-08
3.60186e-09
9.75599e-08
3.57366e-09
9.73516e-08
3.54457e-09
9.71375e-08
3.51501e-09
9.69179e-08
3.48536e-09
9.66934e-08
3.45593e-09
9.64643e-08
3.42701e-09
9.62312e-08
3.3988e-09
9.59943e-08
3.37147e-09
9.57542e-08
3.34514e-09
9.5511e-08
3.3199e-09
9.52652e-08
3.29577e-09
9.50169e-08
3.27276e-09
9.47663e-08
3.25085e-09
9.45136e-08
3.23001e-09
9.4259e-08
3.21017e-09
9.40024e-08
3.19126e-09
9.37441e-08
3.1732e-09
9.34839e-08
3.15591e-09
9.3222e-08
3.1393e-09
9.29582e-08
3.12329e-09
9.26927e-08
3.10779e-09
9.24253e-08
3.09271e-09
9.2156e-08
3.07797e-09
9.18848e-08
3.0635e-09
9.16116e-08
3.04921e-09
9.13363e-08
3.03503e-09
9.1059e-08
3.02089e-09
9.07794e-08
3.00672e-09
9.04976e-08
2.99245e-09
9.02135e-08
2.97801e-09
8.9927e-08
2.96335e-09
8.96381e-08
2.94839e-09
8.93467e-08
2.93308e-09
8.90528e-08
2.91734e-09
8.87563e-08
2.90113e-09
8.84572e-08
2.88437e-09
8.81554e-08
2.86701e-09
8.78508e-08
2.84899e-09
8.75435e-08
2.83026e-09
8.72333e-08
2.81075e-09
8.69203e-08
2.79042e-09
8.66044e-08
2.76923e-09
8.62857e-08
2.74711e-09
8.59639e-08
2.72405e-09
8.56393e-08
2.7e-09
8.53116e-08
2.67495e-09
8.4981e-08
2.64887e-09
8.46473e-08
2.62177e-09
8.43106e-08
2.59365e-09
8.39709e-08
2.56455e-09
8.36281e-08
2.53452e-09
8.32822e-08
2.50362e-09
8.29332e-08
2.47197e-09
8.25812e-08
2.43972e-09
8.2226e-08
2.40703e-09
8.18678e-08
2.37413e-09
8.15065e-08
2.34129e-09
8.11423e-08
2.30882e-09
8.07751e-08
2.27707e-09
8.0405e-08
2.2464e-09
8.00322e-08
2.21724e-09
7.96568e-08
2.18997e-09
7.92789e-08
2.16501e-09
7.88988e-08
2.14272e-09
7.85167e-08
2.12346e-09
7.81326e-08
2.10749e-09
7.7747e-08
2.09503e-09
7.73599e-08
2.0862e-09
7.69717e-08
2.08101e-09
7.65827e-08
2.07927e-09
7.61933e-08
2.08058e-09
7.58034e-08
2.08417e-09
2.08916e-09
1.09341e-07
2.85336e-09
-1.09502e-07
1.09189e-07
2.94956e-09
1.09046e-07
3.04438e-09
1.08911e-07
3.13671e-09
1.08782e-07
3.22559e-09
1.08658e-07
3.31025e-09
1.08537e-07
3.39009e-09
1.08419e-07
3.46464e-09
1.08301e-07
3.53356e-09
1.08183e-07
3.5966e-09
1.08064e-07
3.65356e-09
1.07943e-07
3.70433e-09
1.07819e-07
3.74888e-09
1.07692e-07
3.78718e-09
1.0756e-07
3.81932e-09
1.07424e-07
3.84539e-09
1.07282e-07
3.86556e-09
1.07134e-07
3.88005e-09
1.0698e-07
3.88912e-09
1.06819e-07
3.8931e-09
1.06651e-07
3.89234e-09
1.06476e-07
3.88723e-09
1.06293e-07
3.8782e-09
1.06104e-07
3.86569e-09
1.05908e-07
3.85018e-09
1.05704e-07
3.83211e-09
1.05494e-07
3.81196e-09
1.05278e-07
3.79015e-09
1.05055e-07
3.7671e-09
1.04827e-07
3.74322e-09
1.04593e-07
3.71884e-09
1.04355e-07
3.69428e-09
1.04112e-07
3.66981e-09
1.03865e-07
3.64566e-09
1.03615e-07
3.62201e-09
1.03361e-07
3.59901e-09
1.03104e-07
3.57676e-09
1.02844e-07
3.55534e-09
1.02582e-07
3.53479e-09
1.02318e-07
3.51512e-09
1.02052e-07
3.49634e-09
1.01784e-07
3.4784e-09
1.01514e-07
3.46129e-09
1.01242e-07
3.44494e-09
1.00968e-07
3.42929e-09
1.00693e-07
3.41429e-09
1.00417e-07
3.39986e-09
1.00139e-07
3.38594e-09
9.9859e-08
3.37246e-09
9.95777e-08
3.35933e-09
9.92947e-08
3.3465e-09
9.901e-08
3.3339e-09
9.87235e-08
3.32145e-09
9.84353e-08
3.30908e-09
9.81453e-08
3.29674e-09
9.78534e-08
3.28436e-09
9.75596e-08
3.27186e-09
9.72637e-08
3.2592e-09
9.69658e-08
3.2463e-09
9.66658e-08
3.23311e-09
9.63636e-08
3.21956e-09
9.60591e-08
3.20558e-09
9.57523e-08
3.19113e-09
9.54432e-08
3.17614e-09
9.51316e-08
3.16056e-09
9.48176e-08
3.14432e-09
9.45009e-08
3.12737e-09
9.41817e-08
3.10967e-09
9.38598e-08
3.09117e-09
9.35351e-08
3.07181e-09
9.32075e-08
3.05157e-09
9.28771e-08
3.03042e-09
9.25437e-08
3.00832e-09
9.22073e-08
2.98527e-09
9.18678e-08
2.96127e-09
9.15252e-08
2.93632e-09
9.11793e-08
2.91046e-09
9.083e-08
2.88374e-09
9.04774e-08
2.85623e-09
9.01214e-08
2.82804e-09
8.97618e-08
2.79929e-09
8.93987e-08
2.77016e-09
8.90319e-08
2.74086e-09
8.86616e-08
2.71163e-09
8.82876e-08
2.68276e-09
8.79101e-08
2.65458e-09
8.75291e-08
2.62742e-09
8.71447e-08
2.60166e-09
8.6757e-08
2.57768e-09
8.63662e-08
2.55583e-09
8.59724e-08
2.53648e-09
8.55759e-08
2.51993e-09
8.5177e-08
2.50644e-09
8.47758e-08
2.49621e-09
8.43727e-08
2.48933e-09
8.39679e-08
2.48581e-09
8.35617e-08
2.48546e-09
8.31543e-08
2.48796e-09
8.27457e-08
2.49279e-09
2.49982e-09
6.85665e-08
2.72038e-09
-6.84335e-08
6.8706e-08
2.81004e-09
6.88518e-08
2.89855e-09
6.90035e-08
2.98503e-09
6.91605e-08
3.06863e-09
6.93221e-08
3.14861e-09
6.94878e-08
3.2244e-09
6.96569e-08
3.29552e-09
6.98289e-08
3.36161e-09
7.00031e-08
3.42238e-09
7.0179e-08
3.47761e-09
7.03562e-08
3.52717e-09
7.05341e-08
3.57096e-09
7.07123e-08
3.60896e-09
7.08904e-08
3.6412e-09
7.10681e-08
3.66776e-09
7.12449e-08
3.68877e-09
7.14205e-08
3.70441e-09
7.15947e-08
3.7149e-09
7.17673e-08
3.72053e-09
7.1938e-08
3.7216e-09
7.21068e-08
3.71846e-09
7.22735e-08
3.71149e-09
7.24381e-08
3.70109e-09
7.26006e-08
3.68766e-09
7.27611e-08
3.67162e-09
7.29197e-08
3.6534e-09
7.30764e-08
3.63338e-09
7.32316e-08
3.61196e-09
7.33853e-08
3.5895e-09
7.35378e-08
3.56634e-09
7.36893e-08
3.54276e-09
7.38401e-08
3.51903e-09
7.39904e-08
3.49539e-09
7.41404e-08
3.47201e-09
7.42903e-08
3.44905e-09
7.44404e-08
3.42664e-09
7.45909e-08
3.40486e-09
7.47419e-08
3.38377e-09
7.48936e-08
3.36341e-09
7.50462e-08
3.34378e-09
7.51997e-08
3.32488e-09
7.53543e-08
3.30669e-09
7.55101e-08
3.28918e-09
7.5667e-08
3.27231e-09
7.58253e-08
3.25602e-09
7.59849e-08
3.24025e-09
7.61459e-08
3.22496e-09
7.63083e-08
3.21008e-09
7.64721e-08
3.19554e-09
7.66373e-08
3.18129e-09
7.68039e-08
3.16725e-09
7.6972e-08
3.15337e-09
7.71415e-08
3.13958e-09
7.73125e-08
3.12582e-09
7.74848e-08
3.11203e-09
7.76585e-08
3.09814e-09
7.78336e-08
3.0841e-09
7.80101e-08
3.06984e-09
7.81879e-08
3.0553e-09
7.8367e-08
3.04043e-09
7.85474e-08
3.02516e-09
7.87291e-08
3.00944e-09
7.89121e-08
2.99321e-09
7.90962e-08
2.97641e-09
7.92815e-08
2.959e-09
7.9468e-08
2.94091e-09
7.96556e-08
2.92211e-09
7.98442e-08
2.90254e-09
8.00338e-08
2.88217e-09
8.02244e-08
2.86097e-09
8.04159e-08
2.8389e-09
8.06083e-08
2.81595e-09
8.08015e-08
2.7921e-09
8.09954e-08
2.76737e-09
8.11899e-08
2.74177e-09
8.13851e-08
2.71532e-09
8.15807e-08
2.68809e-09
8.17768e-08
2.66015e-09
8.19733e-08
2.6316e-09
8.217e-08
2.60257e-09
8.23669e-08
2.57323e-09
8.2564e-08
2.54377e-09
8.27612e-08
2.51443e-09
8.29585e-08
2.48548e-09
8.31558e-08
2.45721e-09
8.33533e-08
2.42994e-09
8.3551e-08
2.404e-09
8.37489e-08
2.37974e-09
8.39473e-08
2.3575e-09
8.41461e-08
2.33759e-09
8.43458e-08
2.3203e-09
8.45464e-08
2.30585e-09
8.47482e-08
2.29442e-09
8.49514e-08
2.28608e-09
8.51564e-08
2.28083e-09
8.53633e-08
2.27851e-09
8.55725e-08
2.27884e-09
8.57839e-08
2.28138e-09
2.2854e-09
7.57739e-08
2.57507e-09
-7.56286e-08
7.59253e-08
2.65863e-09
7.60826e-08
2.74125e-09
7.62454e-08
2.82218e-09
7.64134e-08
2.90067e-09
7.65859e-08
2.97607e-09
7.67625e-08
3.04782e-09
7.69426e-08
3.11547e-09
7.71255e-08
3.17863e-09
7.73109e-08
3.23699e-09
7.74982e-08
3.29034e-09
7.76869e-08
3.33849e-09
7.78765e-08
3.38133e-09
7.80667e-08
3.41881e-09
7.82569e-08
3.45093e-09
7.8447e-08
3.47774e-09
7.86364e-08
3.49933e-09
7.8825e-08
3.51585e-09
7.90124e-08
3.52749e-09
7.91984e-08
3.53449e-09
7.93829e-08
3.53711e-09
7.95657e-08
3.53566e-09
7.97467e-08
3.53046e-09
7.99259e-08
3.52188e-09
8.01033e-08
3.51027e-09
8.02789e-08
3.49601e-09
8.04529e-08
3.47947e-09
8.06252e-08
3.46102e-09
8.07962e-08
3.44102e-09
8.09659e-08
3.41979e-09
8.11346e-08
3.39766e-09
8.13024e-08
3.37491e-09
8.14697e-08
3.35178e-09
8.16365e-08
3.32852e-09
8.18032e-08
3.3053e-09
8.197e-08
3.28228e-09
8.2137e-08
3.25961e-09
8.23045e-08
3.23737e-09
8.24727e-08
3.21565e-09
8.26416e-08
3.19449e-09
8.28114e-08
3.17393e-09
8.29823e-08
3.15396e-09
8.31544e-08
3.1346e-09
8.33278e-08
3.11582e-09
8.35025e-08
3.09759e-09
8.36786e-08
3.07989e-09
8.38562e-08
3.06265e-09
8.40354e-08
3.04584e-09
8.4216e-08
3.02941e-09
8.43983e-08
3.01329e-09
8.45821e-08
2.99744e-09
8.47676e-08
2.98179e-09
8.49547e-08
2.96629e-09
8.51434e-08
2.95088e-09
8.53337e-08
2.93549e-09
8.55256e-08
2.92007e-09
8.57192e-08
2.90456e-09
8.59144e-08
2.88891e-09
8.61112e-08
2.87304e-09
8.63096e-08
2.85691e-09
8.65096e-08
2.84045e-09
8.67111e-08
2.82362e-09
8.69142e-08
2.80635e-09
8.71188e-08
2.78859e-09
8.7325e-08
2.77029e-09
8.75326e-08
2.75139e-09
8.77416e-08
2.73185e-09
8.79521e-08
2.71163e-09
8.8164e-08
2.69068e-09
8.83772e-08
2.66897e-09
8.85917e-08
2.64646e-09
8.88074e-08
2.62314e-09
8.90244e-08
2.59899e-09
8.92425e-08
2.574e-09
8.94617e-08
2.54819e-09
8.96819e-08
2.52157e-09
8.9903e-08
2.49418e-09
9.0125e-08
2.46609e-09
9.03478e-08
2.43735e-09
9.05713e-08
2.40809e-09
9.07955e-08
2.37842e-09
9.10202e-08
2.34851e-09
9.12454e-08
2.31854e-09
9.14711e-08
2.28873e-09
9.16972e-08
2.25934e-09
9.19238e-08
2.23063e-09
9.21509e-08
2.2029e-09
9.23784e-08
2.17645e-09
9.26065e-08
2.1516e-09
9.28354e-08
2.12866e-09
9.30651e-08
2.1079e-09
9.32958e-08
2.08959e-09
9.35277e-08
2.07393e-09
9.3761e-08
2.06109e-09
9.3996e-08
2.05113e-09
9.42328e-08
2.04404e-09
9.44716e-08
2.03974e-09
9.47124e-08
2.03797e-09
9.49555e-08
2.03835e-09
2.04046e-09
8.37355e-08
2.41659e-09
-8.3577e-08
8.38997e-08
2.49447e-09
8.40694e-08
2.57155e-09
8.42444e-08
2.6472e-09
8.44242e-08
2.72079e-09
8.46086e-08
2.79171e-09
8.47969e-08
2.85946e-09
8.49888e-08
2.9236e-09
8.51837e-08
2.98375e-09
8.53811e-08
3.0396e-09
8.55805e-08
3.0909e-09
8.57815e-08
3.13747e-09
8.59837e-08
3.17916e-09
8.61866e-08
3.2159e-09
8.63899e-08
3.24766e-09
8.65932e-08
3.27446e-09
8.67961e-08
3.29636e-09
8.69985e-08
3.31349e-09
8.72e-08
3.32599e-09
8.74005e-08
3.33405e-09
8.75996e-08
3.33792e-09
8.77975e-08
3.33784e-09
8.79938e-08
3.33411e-09
8.81887e-08
3.32704e-09
8.8382e-08