/*--------------------------------*- C++ -*----------------------------------*\
| =========                 |                                                 |
| \\      /  F ield         | OpenFOAM: The Open Source CFD Toolbox           |
|  \\    /   O peration     | Version:  2.3.0                                 |
|   \\  /    A nd           | Web:      www.OpenFOAM.org                      |
|    \\/     M anipulation  |                                                 |
\*---------------------------------------------------------------------------*/
FoamFile
{
    version     2.0;
    format      ascii;
    class       surfaceScalarField;
    location    "0.4";
    object      phi_0;
}
// * * * * * * * * * * * * * * * * * * * * * * * * * * * * * * * * * * * * * //

dimensions      [0 3 -1 0 0 0 0];

internalField   nonuniform List<scalar> 
4357
(
4.99641e-08
2.04735e-09
-5.20115e-08
4.78095e-08
2.15463e-09
4.56451e-08
2.16443e-09
4.34966e-08
2.14849e-09
4.13762e-08
2.12041e-09
3.92947e-08
2.08144e-09
3.7261e-08
2.03373e-09
3.52817e-08
1.97925e-09
3.33625e-08
1.91928e-09
3.15079e-08
1.85457e-09
2.97223e-08
1.78561e-09
2.80094e-08
1.71284e-09
2.63727e-08
1.63671e-09
2.48151e-08
1.55768e-09
2.33388e-08
1.47628e-09
2.19457e-08
1.39308e-09
2.0637e-08
1.30873e-09
1.94131e-08
1.22391e-09
1.82737e-08
1.13932e-09
1.7218e-08
1.05571e-09
1.62442e-08
9.73821e-10
1.53499e-08
8.94344e-10
1.45319e-08
8.17939e-10
1.37867e-08
7.45187e-10
1.31101e-08
6.76582e-10
1.24976e-08
6.1251e-10
1.19444e-08
5.53244e-10
1.14455e-08
4.9894e-10
1.09958e-08
4.49641e-10
1.05905e-08
4.0528e-10
1.02248e-08
3.65699e-10
9.89417e-09
3.30662e-10
9.5943e-09
2.99867e-10
9.32133e-09
2.72973e-10
9.07172e-09
2.4961e-10
8.84232e-09
2.29398e-10
8.63036e-09
2.11958e-10
8.43344e-09
1.96927e-10
8.24947e-09
1.83962e-10
8.07672e-09
1.7275e-10
7.91371e-09
1.63009e-10
7.75922e-09
1.5449e-10
7.61225e-09
1.46976e-10
7.47196e-09
1.40285e-10
7.3377e-09
1.34263e-10
7.20892e-09
1.28784e-10
7.08517e-09
1.23745e-10
6.96611e-09
1.19063e-10
6.85144e-09
1.14672e-10
6.74091e-09
1.10523e-10
6.63434e-09
1.06576e-10
6.53153e-09
1.02802e-10
6.43236e-09
9.91789e-11
6.33667e-09
9.56888e-11
6.24435e-09
9.23194e-11
6.15529e-09
8.90606e-11
6.06938e-09
8.59046e-11
5.98654e-09
8.28447e-11
5.90666e-09
7.98751e-11
5.82967e-09
7.69906e-11
5.75549e-09
7.41862e-11
5.68403e-09
7.1457e-11
5.61523e-09
6.87984e-11
5.54902e-09
6.62054e-11
5.48535e-09
6.36733e-11
5.42415e-09
6.11975e-11
5.36538e-09
5.87734e-11
5.30898e-09
5.63964e-11
5.25492e-09
5.40624e-11
5.20315e-09
5.17672e-11
5.15365e-09
4.95071e-11
5.10637e-09
4.72785e-11
5.06129e-09
4.50778e-11
5.01839e-09
4.29013e-11
4.97764e-09
4.07449e-11
4.93904e-09
3.86041e-11
4.90257e-09
3.64734e-11
4.86822e-09
3.43471e-11
4.836e-09
3.22193e-11
4.80592e-09
3.00845e-11
4.77798e-09
2.79388e-11
4.7522e-09
2.57816e-11
4.72858e-09
2.3616e-11
4.70713e-09
2.14508e-11
4.68783e-09
1.93009e-11
4.67064e-09
1.71875e-11
4.6555e-09
1.51378e-11
4.64232e-09
1.31834e-11
4.63096e-09
1.13594e-11
4.62126e-09
9.70113e-12
4.61302e-09
8.24289e-12
4.606e-09
7.01514e-12
4.59996e-09
6.04312e-12
4.59461e-09
5.34631e-12
4.58967e-09
4.9403e-12
4.58483e-09
4.844e-12
4.57973e-09
5.10001e-12
4.57392e-09
5.80286e-12
4.56647e-09
7.45783e-12
2.05024e-11
5.77102e-08
2.15782e-09
-5.78206e-08
5.74672e-08
2.39757e-09
5.70899e-08
2.54177e-09
5.6599e-08
2.6394e-09
5.6009e-08
2.71036e-09
5.53316e-08
2.75887e-09
5.45778e-08
2.78755e-09
5.37577e-08
2.79927e-09
5.28809e-08
2.79616e-09
5.19558e-08
2.77958e-09
5.09909e-08
2.75052e-09
4.99939e-08
2.70984e-09
4.89722e-08
2.65841e-09
4.79328e-08
2.59711e-09
4.68822e-08
2.52691e-09
4.58264e-08
2.44882e-09
4.47712e-08
2.36394e-09
4.37217e-08
2.27347e-09
4.26824e-08
2.17864e-09
4.16573e-08
2.08072e-09
4.06502e-08
1.981e-09
3.96638e-08
1.88073e-09
3.87006e-08
1.78109e-09
3.77627e-08
1.68317e-09
3.68513e-08
1.58796e-09
3.59675e-08
1.49627e-09
3.5112e-08
1.40878e-09
3.42849e-08
1.32598e-09
3.34864e-08
1.24822e-09
3.2716e-08
1.17567e-09
3.19733e-08
1.10838e-09
3.12577e-08
1.04627e-09
3.05684e-08
9.89148e-10
2.99046e-08
9.36767e-10
2.92654e-08
8.88811e-10
2.86499e-08
8.44932e-10
2.80571e-08
8.04766e-10
2.7486e-08
7.67946e-10
2.69359e-08
7.34116e-10
2.64057e-08
7.02939e-10
2.58946e-08
6.74104e-10
2.54018e-08
6.47328e-10
2.49264e-08
6.22356e-10
2.44677e-08
5.98969e-10
2.4025e-08
5.76977e-10
2.35975e-08
5.56213e-10
2.31848e-08
5.36536e-10
2.2786e-08
5.17828e-10
2.24007e-08
4.99987e-10
2.20283e-08
4.82929e-10
2.16683e-08
4.66584e-10
2.13202e-08
4.5089e-10
2.09836e-08
4.35797e-10
2.0658e-08
4.21258e-10
2.03431e-08
4.07236e-10
2.00384e-08
3.93694e-10
1.97437e-08
3.80602e-10
1.94587e-08
3.67928e-10
1.91829e-08
3.55647e-10
1.89161e-08
3.43732e-10
1.86582e-08
3.32157e-10
1.84087e-08
3.209e-10
1.81676e-08
3.09937e-10
1.79346e-08
2.99246e-10
1.77094e-08
2.88807e-10
1.7492e-08
2.78599e-10
1.72822e-08
2.68603e-10
1.70798e-08
2.58801e-10
1.68847e-08
2.49176e-10
1.66967e-08
2.39713e-10
1.65158e-08
2.30397e-10
1.63419e-08
2.21214e-10
1.61748e-08
2.12153e-10
1.60145e-08
2.03199e-10
1.58609e-08
1.94343e-10
1.5714e-08
1.8557e-10
1.55736e-08
1.7687e-10
1.54397e-08
1.68232e-10
1.53123e-08
1.59649e-10
1.51912e-08
1.51116e-10
1.50765e-08
1.42639e-10
1.49681e-08
1.34233e-10
1.48658e-08
1.25928e-10
1.47694e-08
1.1777e-10
1.46789e-08
1.09823e-10
1.45939e-08
1.02166e-10
1.45142e-08
9.4894e-11
1.44393e-08
8.81109e-11
1.43687e-08
8.19252e-11
1.43019e-08
7.64426e-11
1.42384e-08
7.17595e-11
1.41775e-08
6.79566e-11
1.41184e-08
6.50946e-11
1.40606e-08
6.32133e-11
1.40032e-08
6.23369e-11
1.39455e-08
6.24945e-11
1.38868e-08
6.37782e-11
1.38261e-08
6.65538e-11
1.37605e-08
7.30342e-11
9.48563e-11
6.27588e-08
2.15042e-09
-6.27514e-08
6.27705e-08
2.38583e-09
6.2754e-08
2.55835e-09
6.27008e-08
2.69258e-09
6.26075e-08
2.80361e-09
6.2471e-08
2.89542e-09
6.22893e-08
2.96926e-09
6.20619e-08
3.02662e-09
6.17893e-08
3.06881e-09
6.14722e-08
3.09664e-09
6.11121e-08
3.11063e-09
6.07107e-08
3.11123e-09
6.02702e-08
3.09893e-09
5.9793e-08
3.07427e-09
5.9282e-08
3.03794e-09
5.87401e-08
2.99077e-09
5.81703e-08
2.93369e-09
5.7576e-08
2.8678e-09
5.69603e-08
2.79431e-09
5.63265e-08
2.71452e-09
5.56777e-08
2.62979e-09
5.5017e-08
2.54149e-09
5.4347e-08
2.45099e-09
5.36706e-08
2.35957e-09
5.29902e-08
2.26844e-09
5.23078e-08
2.17866e-09
5.16254e-08
2.09114e-09
5.09448e-08
2.00665e-09
5.02672e-08
1.92575e-09
4.95941e-08
1.84885e-09
4.89262e-08
1.77621e-09
4.82646e-08
1.70793e-09
4.76097e-08
1.64399e-09
4.69622e-08
1.58428e-09
4.63224e-08
1.5286e-09
4.56906e-08
1.4767e-09
4.50671e-08
1.42828e-09
4.4452e-08
1.38305e-09
4.38455e-08
1.34068e-09
4.32475e-08
1.30086e-09
4.26583e-08
1.26332e-09
4.20779e-08
1.22778e-09
4.15062e-08
1.194e-09
4.09434e-08
1.16176e-09
4.03895e-08
1.13087e-09
3.98446e-08
1.10117e-09
3.93086e-08
1.07252e-09
3.87816e-08
1.0448e-09
3.82637e-08
1.01791e-09
3.77549e-08
9.91765e-10
3.72552e-08
9.66296e-10
3.67646e-08
9.41444e-10
3.62832e-08
9.17159e-10
3.58111e-08
8.93399e-10
3.53482e-08
8.70126e-10
3.48946e-08
8.47307e-10
3.44503e-08
8.24912e-10
3.40153e-08
8.02914e-10
3.35897e-08
7.81286e-10
3.31734e-08
7.60004e-10
3.27665e-08
7.39044e-10
3.2369e-08
7.18382e-10
3.1981e-08
6.97995e-10
3.16023e-08
6.77863e-10
3.12332e-08
6.57962e-10
3.08735e-08
6.38273e-10
3.05233e-08
6.18776e-10
3.01827e-08
5.99453e-10
2.98516e-08
5.80286e-10
2.953e-08
5.61258e-10
2.92181e-08
5.42356e-10
2.89157e-08
5.23566e-10
2.8623e-08
5.04876e-10
2.83399e-08
4.86274e-10
2.80665e-08
4.67751e-10
2.78028e-08
4.49297e-10
2.75487e-08
4.30908e-10
2.73044e-08
4.12583e-10
2.70697e-08
3.94326e-10
2.68447e-08
3.76157e-10
2.66292e-08
3.58108e-10
2.64232e-08
3.40234e-10
2.62265e-08
3.22613e-10
2.60389e-08
3.05354e-10
2.58602e-08
2.88592e-10
2.56898e-08
2.7249e-10
2.55275e-08
2.57233e-10
2.53726e-08
2.4302e-10
2.52245e-08
2.30055e-10
2.50824e-08
2.18532e-10
2.49455e-08
2.08629e-10
2.4813e-08
2.0049e-10
2.46838e-08
1.94224e-10
2.45572e-08
1.899e-10
2.44319e-08
1.87556e-10
2.43072e-08
1.87236e-10
2.41819e-08
1.89098e-10
2.40546e-08
1.93803e-10
2.39234e-08
2.0427e-10
2.28925e-10
6.80008e-08
2.17424e-09
-6.80246e-08
6.80051e-08
2.38154e-09
6.80122e-08
2.55128e-09
6.8013e-08
2.69178e-09
6.80047e-08
2.81191e-09
6.79847e-08
2.9154e-09
6.79505e-08
3.0035e-09
6.78998e-08
3.07724e-09
6.7831e-08
3.13765e-09
6.77422e-08
3.1854e-09
6.7632e-08
3.22088e-09
6.74989e-08
3.24433e-09
6.73418e-08
3.25598e-09
6.716e-08
3.2561e-09
6.69529e-08
3.24507e-09
6.67203e-08
3.22337e-09
6.64623e-08
3.19163e-09
6.61795e-08
3.15062e-09
6.58725e-08
3.10128e-09
6.55424e-08
3.04462e-09
6.51904e-08
2.98178e-09
6.4818e-08
2.91396e-09
6.44266e-08
2.84238e-09
6.40179e-08
2.76823e-09
6.35937e-08
2.69267e-09
6.31556e-08
2.61676e-09
6.27053e-08
2.54146e-09
6.22443e-08
2.4676e-09
6.17742e-08
2.39583e-09
6.12964e-08
2.32669e-09
6.08121e-08
2.26055e-09
6.03223e-08
2.19766e-09
5.98282e-08
2.13812e-09
5.93305e-08
2.08195e-09
5.88301e-08
2.02906e-09
5.83275e-08
1.97931e-09
5.78233e-08
1.93249e-09
5.73179e-08
1.88838e-09
5.68119e-08
1.84673e-09
5.63055e-08
1.80729e-09
5.5799e-08
1.76979e-09
5.52928e-08
1.73401e-09
5.4787e-08
1.69972e-09
5.42821e-08
1.66672e-09
5.37781e-08
1.63483e-09
5.32754e-08
1.60388e-09
5.27742e-08
1.57375e-09
5.22747e-08
1.54431e-09
5.17772e-08
1.51545e-09
5.12818e-08
1.4871e-09
5.07889e-08
1.45918e-09
5.02988e-08
1.43163e-09
4.98115e-08
1.40439e-09
4.93275e-08
1.37742e-09
4.8847e-08
1.35068e-09
4.83701e-08
1.32414e-09
4.78973e-08
1.29776e-09
4.74287e-08
1.27151e-09
4.69646e-08
1.24538e-09
4.65053e-08
1.21932e-09
4.6051e-08
1.19332e-09
4.5602e-08
1.16736e-09
4.51586e-08
1.14141e-09
4.4721e-08
1.11544e-09
4.42895e-08
1.08945e-09
4.38644e-08
1.0634e-09
4.34459e-08
1.03728e-09
4.30343e-08
1.01107e-09
4.26298e-08
9.84765e-10
4.22327e-08
9.58338e-10
4.18433e-08
9.31784e-10
4.14618e-08
9.05092e-10
4.10884e-08
8.78256e-10
4.07234e-08
8.51273e-10
4.0367e-08
8.2414e-10
4.00194e-08
7.96862e-10
3.96809e-08
7.69449e-10
3.93516e-08
7.41919e-10
3.90316e-08
7.14305e-10
3.87211e-08
6.86659e-10
3.84201e-08
6.59057e-10
3.81288e-08
6.31603e-10
3.78469e-08
6.0444e-10
3.75745e-08
5.77747e-10
3.73114e-08
5.51739e-10
3.70572e-08
5.2667e-10
3.68116e-08
5.02818e-10
3.65742e-08
4.80481e-10
3.63443e-08
4.59957e-10
3.61213e-08
4.41535e-10
3.59044e-08
4.25475e-10
3.56929e-08
4.11994e-10
3.54859e-08
4.0126e-10
3.52824e-08
3.93382e-10
3.50815e-08
3.8843e-10
3.48823e-08
3.86476e-10
3.46836e-08
3.87726e-10
3.44845e-08
3.92915e-10
3.42844e-08
4.04362e-10
4.25764e-10
7.3643e-08
2.23316e-09
-7.37019e-08
7.36125e-08
2.41196e-09
7.35945e-08
2.56933e-09
7.35806e-08
2.70571e-09
7.35675e-08
2.82493e-09
7.35534e-08
2.92959e-09
7.3536e-08
3.02084e-09
7.35138e-08
3.09944e-09
7.34853e-08
3.16613e-09
7.34492e-08
3.2215e-09
7.34042e-08
3.26592e-09
7.33489e-08
3.29965e-09
7.3282e-08
3.32289e-09
7.32022e-08
3.33588e-09
7.31084e-08
3.33889e-09
7.29994e-08
3.3323e-09
7.28745e-08
3.31657e-09
7.27328e-08
3.29228e-09
7.2574e-08
3.26013e-09
7.23977e-08
3.22093e-09
7.22039e-08
3.17558e-09
7.19928e-08
3.12504e-09
7.17648e-08
3.07033e-09
7.15206e-08
3.01245e-09
7.12609e-08
2.95241e-09
7.09865e-08
2.89116e-09
7.06984e-08
2.82955e-09
7.03976e-08
2.76837e-09
7.00852e-08
2.70827e-09
6.97621e-08
2.64979e-09
6.94293e-08
2.59336e-09
6.90877e-08
2.53926e-09
6.87381e-08
2.48768e-09
6.83813e-08
2.43871e-09
6.8018e-08
2.39236e-09
6.76488e-08
2.34855e-09
6.72741e-08
2.30717e-09
6.68944e-08
2.26805e-09
6.65102e-08
2.23101e-09
6.61216e-08
2.19584e-09
6.57291e-08
2.16233e-09
6.53328e-08
2.13028e-09
6.4933e-08
2.0995e-09
6.45299e-08
2.0698e-09
6.41238e-08
2.041e-09
6.37147e-08
2.01297e-09
6.33029e-08
1.98555e-09
6.28885e-08
1.95864e-09
6.24719e-08
1.93213e-09
6.2053e-08
1.90591e-09
6.16323e-08
1.87993e-09
6.12098e-08
1.85409e-09
6.07859e-08
1.82835e-09
6.03606e-08
1.80265e-09
5.99344e-08
1.77694e-09
5.95073e-08
1.75118e-09
5.90798e-08
1.72533e-09
5.86519e-08
1.69934e-09
5.82241e-08
1.6732e-09
5.77966e-08
1.64685e-09
5.73696e-08
1.62027e-09
5.69435e-08
1.59344e-09
5.65186e-08
1.56631e-09
5.60952e-08
1.53886e-09
5.56736e-08
1.51106e-09
5.52541e-08
1.48289e-09
5.48371e-08
1.45433e-09
5.44228e-08
1.42534e-09
5.40117e-08
1.39592e-09
5.3604e-08
1.36604e-09
5.32e-08
1.3357e-09
5.28003e-08
1.30488e-09
5.24049e-08
1.27357e-09
5.20144e-08
1.24179e-09
5.1629e-08
1.20952e-09
5.12491e-08
1.17679e-09
5.0875e-08
1.14361e-09
5.05068e-08
1.11004e-09
5.0145e-08
1.07611e-09
4.97898e-08
1.04192e-09
4.94412e-08
1.00758e-09
4.90996e-08
9.73239e-10
4.8765e-08
9.39095e-10
4.84373e-08
9.05386e-10
4.81167e-08
8.72395e-10
4.78029e-08
8.40449e-10
4.74958e-08
8.09901e-10
4.71952e-08
7.81126e-10
4.69006e-08
7.54502e-10
4.66118e-08
7.30391e-10
4.63281e-08
7.09124e-10
4.60491e-08
6.90981e-10
4.57742e-08
6.76184e-10
4.55027e-08
6.64887e-10
4.52339e-08
6.57194e-10
4.49672e-08
6.53199e-10
4.47018e-08
6.5309e-10
4.44374e-08
6.57382e-10
4.41746e-08
6.67091e-10
6.81423e-10
7.97334e-08
2.31827e-09
-7.98185e-08
7.96729e-08
2.47247e-09
7.96276e-08
2.61465e-09
7.95905e-08
2.74279e-09
7.95578e-08
2.85761e-09
7.95271e-08
2.96025e-09
7.94966e-08
3.05135e-09
7.94647e-08
3.13134e-09
7.94302e-08
3.20063e-09
7.93921e-08
3.2596e-09
7.93495e-08
3.30857e-09
7.93014e-08
3.34777e-09
7.92468e-08
3.37744e-09
7.91849e-08
3.3978e-09
7.91146e-08
3.40913e-09
7.90352e-08
3.41176e-09
7.89457e-08
3.4061e-09
7.88453e-08
3.39263e-09
7.87335e-08
3.37196e-09
7.86097e-08
3.34474e-09
7.84735e-08
3.31172e-09
7.83249e-08
3.27371e-09
7.81636e-08
3.23154e-09
7.799e-08
3.18607e-09
7.78043e-08
3.13815e-09
7.76068e-08
3.08861e-09
7.73982e-08
3.0382e-09
7.71789e-08
2.98763e-09
7.69497e-08
2.9375e-09
7.67112e-08
2.88833e-09
7.6464e-08
2.84052e-09
7.62088e-08
2.79441e-09
7.59463e-08
2.75022e-09
7.5677e-08
2.70807e-09
7.54013e-08
2.66803e-09
7.51198e-08
2.63009e-09
7.48327e-08
2.59418e-09
7.45406e-08
2.56022e-09
7.42435e-08
2.52805e-09
7.39419e-08
2.49753e-09
7.36357e-08
2.46849e-09
7.33252e-08
2.44076e-09
7.30105e-08
2.41417e-09
7.26918e-08
2.38856e-09
7.2369e-08
2.36378e-09
7.20423e-08
2.33967e-09
7.17117e-08
2.31611e-09
7.13774e-08
2.29299e-09
7.10393e-08
2.27018e-09
7.06976e-08
2.24761e-09
7.03524e-08
2.22516e-09
7.00037e-08
2.20278e-09
6.96517e-08
2.18039e-09
6.92964e-08
2.15793e-09
6.8938e-08
2.13533e-09
6.85767e-08
2.11254e-09
6.82125e-08
2.08951e-09
6.78456e-08
2.0662e-09
6.74763e-08
2.04255e-09
6.71046e-08
2.01851e-09
6.67308e-08
1.99406e-09
6.63551e-08
1.96914e-09
6.59777e-08
1.94372e-09
6.55988e-08
1.91775e-09
6.52187e-08
1.89119e-09
6.48376e-08
1.86402e-09
6.44557e-08
1.83619e-09
6.40734e-08
1.80768e-09
6.36908e-08
1.77846e-09
6.33083e-08
1.74851e-09
6.29262e-08
1.7178e-09
6.25448e-08
1.68632e-09
6.21643e-08
1.65406e-09
6.17851e-08
1.62101e-09
6.14074e-08
1.58719e-09
6.10316e-08
1.55261e-09
6.06579e-08
1.5173e-09
6.02866e-08
1.48132e-09
5.9918e-08
1.44472e-09
5.95523e-08
1.40762e-09
5.91897e-08
1.37016e-09
5.88305e-08
1.33252e-09
5.84746e-08
1.29492e-09
5.81224e-08
1.25764e-09
5.77738e-08
1.22102e-09
5.74288e-08
1.18541e-09
5.70875e-08
1.15122e-09
5.67497e-08
1.11887e-09
5.64154e-08
1.08879e-09
5.60844e-08
1.06138e-09
5.57566e-08
1.03701e-09
5.54315e-08
1.01602e-09
5.5109e-08
9.98667e-10
5.47888e-08
9.85134e-10
5.44704e-08
9.75551e-10
5.41536e-08
9.70007e-10
5.38381e-08
9.68601e-10
5.3524e-08
9.71462e-10
5.32128e-08
9.78333e-10
9.8577e-10
8.63082e-08
2.42427e-09
-8.64142e-08
8.62222e-08
2.55854e-09
8.61507e-08
2.68608e-09
8.6089e-08
2.80455e-09
8.60333e-08
2.91326e-09
8.59814e-08
3.01222e-09
8.59312e-08
3.10154e-09
8.58812e-08
3.18129e-09
8.58302e-08
3.25162e-09
8.57771e-08
3.31269e-09
8.5721e-08
3.36469e-09
8.5661e-08
3.40779e-09
8.55963e-08
3.44218e-09
8.5526e-08
3.46805e-09
8.54495e-08
3.48564e-09
8.5366e-08
3.49526e-09
8.52749e-08
3.49725e-09
8.51754e-08
3.49205e-09
8.50672e-08
3.48016e-09
8.49498e-08
3.46215e-09
8.48229e-08
3.43864e-09
8.46863e-08
3.41033e-09
8.45399e-08
3.37792e-09
8.43838e-08
3.34215e-09
8.42182e-08
3.30376e-09
8.40434e-08
3.26345e-09
8.38597e-08
3.22192e-09
8.36675e-08
3.17977e-09
8.34674e-08
3.13758e-09
8.32599e-08
3.09582e-09
8.30456e-08
3.0549e-09
8.28248e-08
3.01515e-09
8.25982e-08
2.97681e-09
8.23662e-08
2.94006e-09
8.21293e-08
2.905e-09
8.18877e-08
2.87166e-09
8.16419e-08
2.84004e-09
8.1392e-08
2.81009e-09
8.11383e-08
2.78173e-09
8.0881e-08
2.75484e-09
8.06202e-08
2.72931e-09
8.03559e-08
2.70499e-09
8.00883e-08
2.68176e-09
7.98174e-08
2.65947e-09
7.95432e-08
2.63799e-09
7.92657e-08
2.61718e-09
7.89849e-08
2.59694e-09
7.87007e-08
2.57714e-09
7.84133e-08
2.55768e-09
7.81224e-08
2.53845e-09
7.78282e-08
2.51939e-09
7.75306e-08
2.50039e-09
7.72296e-08
2.48138e-09
7.69252e-08
2.46229e-09
7.66175e-08
2.44306e-09
7.63064e-08
2.42361e-09
7.5992e-08
2.40389e-09
7.56744e-08
2.38385e-09
7.53535e-08
2.36341e-09
7.50295e-08
2.34254e-09
7.47024e-08
2.32116e-09
7.43723e-08
2.29924e-09
7.40393e-08
2.27672e-09
7.37035e-08
2.25355e-09
7.3365e-08
2.22968e-09
7.3024e-08
2.20507e-09
7.26805e-08
2.17966e-09
7.23347e-08
2.15343e-09
7.19869e-08
2.12634e-09
7.1637e-08
2.09834e-09
7.12854e-08
2.06941e-09
7.09322e-08
2.03954e-09
7.05776e-08
2.0087e-09
7.02217e-08
1.97688e-09
6.98648e-08
1.9441e-09
6.9507e-08
1.91036e-09
6.91486e-08
1.8757e-09
6.87898e-08
1.84018e-09
6.84306e-08
1.80387e-09
6.80714e-08
1.76688e-09
6.77122e-08
1.72937e-09
6.73531e-08
1.69154e-09
6.69944e-08
1.65361e-09
6.66362e-08
1.6159e-09
6.62785e-08
1.57873e-09
6.59214e-08
1.54248e-09
6.5565e-08
1.50759e-09
6.52094e-08
1.47447e-09
6.48547e-08
1.44358e-09
6.45007e-08
1.41534e-09
6.41476e-08
1.39014e-09
6.37953e-08
1.36834e-09
6.34437e-08
1.3502e-09
6.30929e-08
1.33595e-09
6.27428e-08
1.3257e-09
6.23932e-08
1.31953e-09
6.20444e-08
1.31741e-09
6.16968e-08
1.3191e-09
6.13515e-08
1.32363e-09
1.32716e-09
9.34058e-08
2.54903e-09
-9.35306e-08
9.32969e-08
2.66749e-09
9.32008e-08
2.78209e-09
9.31145e-08
2.89088e-09
9.3035e-08
2.99273e-09
9.29602e-08
3.08706e-09
9.28882e-08
3.17358e-09
9.28173e-08
3.2521e-09
9.27464e-08
3.32253e-09
9.26743e-08
3.38485e-09
9.25999e-08
3.43909e-09
9.25223e-08
3.48534e-09
9.24408e-08
3.52369e-09
9.23546e-08
3.55428e-09
9.22629e-08
3.5773e-09
9.21652e-08
3.593e-09
9.20608e-08
3.60167e-09
9.19492e-08
3.60367e-09
9.18299e-08
3.59942e-09
9.17027e-08
3.5894e-09
9.15672e-08
3.57414e-09
9.14233e-08
3.55422e-09
9.12709e-08
3.53025e-09
9.11102e-08
3.50286e-09
9.09413e-08
3.47268e-09
9.07644e-08
3.44034e-09
9.05799e-08
3.40643e-09
9.03882e-08
3.37151e-09
9.01896e-08
3.33611e-09
8.99848e-08
3.30066e-09
8.97741e-08
3.26557e-09
8.95581e-08
3.23117e-09
8.93372e-08
3.19771e-09
8.91119e-08
3.16539e-09
8.88825e-08
3.13435e-09
8.86495e-08
3.10468e-09
8.84131e-08
3.07642e-09
8.81737e-08
3.04955e-09
8.79313e-08
3.02405e-09
8.76863e-08
2.99985e-09
8.74388e-08
2.97687e-09
8.71887e-08
2.95501e-09
8.69363e-08
2.93418e-09
8.66816e-08
2.91425e-09
8.64244e-08
2.89512e-09
8.61649e-08
2.87669e-09
8.5903e-08
2.85884e-09
8.56387e-08
2.84147e-09
8.53719e-08
2.82449e-09
8.51025e-08
2.8078e-09
8.48306e-08
2.79131e-09
8.4556e-08
2.77495e-09
8.42788e-08
2.75864e-09
8.39988e-08
2.7423e-09
8.37159e-08
2.72586e-09
8.34303e-08
2.70926e-09
8.31418e-08
2.69242e-09
8.28503e-08
2.67529e-09
8.25559e-08
2.6578e-09
8.22586e-08
2.63988e-09
8.19583e-08
2.62149e-09
8.1655e-08
2.60255e-09
8.13487e-08
2.58302e-09
8.10394e-08
2.56283e-09
8.07272e-08
2.54192e-09
8.0412e-08
2.52026e-09
8.00938e-08
2.49777e-09
7.97729e-08
2.47443e-09
7.9449e-08
2.45017e-09
7.91224e-08
2.42497e-09
7.8793e-08
2.39878e-09
7.8461e-08
2.37158e-09
7.81263e-08
2.34334e-09
7.77892e-08
2.31406e-09
7.74495e-08
2.28374e-09
7.71075e-08
2.25239e-09
7.67632e-08
2.22003e-09
7.64166e-08
2.18674e-09
7.60679e-08
2.15258e-09
7.57171e-08
2.11767e-09
7.53643e-08
2.08216e-09
7.50096e-08
2.04626e-09
7.4653e-08
2.01019e-09
7.42947e-08
1.97424e-09
7.39347e-08
1.93876e-09
7.3573e-08
1.90411e-09
7.32099e-08
1.8707e-09
7.28454e-08
1.83896e-09
7.24797e-08
1.80933e-09
7.21128e-08
1.78222e-09
7.17449e-08
1.75803e-09
7.13761e-08
1.73709e-09
7.10066e-08
1.71971e-09
7.06365e-08
1.70608e-09
7.02659e-08
1.69633e-09
6.98949e-08
1.69048e-09
6.95239e-08
1.6884e-09
6.91534e-08
1.68966e-09
6.87838e-08
1.69321e-09
1.69651e-09
1.01068e-07
2.69196e-09
-1.01211e-07
1.00938e-07
2.79794e-09
1.00818e-07
2.90164e-09
1.00707e-07
3.00158e-09
1.00604e-07
3.09663e-09
1.00505e-07
3.18603e-09
1.00409e-07
3.26925e-09
1.00315e-07
3.34592e-09
1.00222e-07
3.41579e-09
1.00128e-07
3.4787e-09
1.00033e-07
3.53455e-09
9.99345e-08
3.58332e-09
9.98332e-08
3.62504e-09
9.97277e-08
3.65976e-09
9.96174e-08
3.68762e-09
9.95016e-08
3.70879e-09
9.93798e-08
3.7235e-09
9.92514e-08
3.73204e-09
9.91161e-08
3.73475e-09
9.89734e-08
3.73203e-09
9.88232e-08
3.72432e-09
9.86654e-08
3.71209e-09
9.84998e-08
3.69586e-09
9.83265e-08
3.67617e-09
9.81456e-08
3.65355e-09
9.79574e-08
3.62856e-09
9.77621e-08
3.6017e-09
9.75601e-08
3.57349e-09
9.73518e-08
3.54438e-09
9.71377e-08
3.5148e-09
9.69181e-08
3.48513e-09
9.66936e-08
3.45569e-09
9.64646e-08
3.42674e-09
9.62315e-08
3.39851e-09
9.59946e-08
3.37116e-09
9.57545e-08
3.34481e-09
9.55114e-08
3.31954e-09
9.52656e-08
3.29538e-09
9.50173e-08
3.27234e-09
9.47667e-08
3.25041e-09
9.45141e-08
3.22953e-09
9.42594e-08
3.20965e-09
9.40029e-08
3.19069e-09
9.37446e-08
3.17259e-09
9.34844e-08
3.15526e-09
9.32225e-08
3.1386e-09
9.29588e-08
3.12254e-09
9.26933e-08
3.10698e-09
9.2426e-08
3.09184e-09
9.21567e-08
3.07703e-09
9.18855e-08
3.06249e-09
9.16124e-08
3.04812e-09
9.13372e-08
3.03386e-09
9.10598e-08
3.01964e-09
9.07803e-08
3.00538e-09
9.04986e-08
2.99101e-09
9.02145e-08
2.97648e-09
8.99281e-08
2.9617e-09
8.96392e-08
2.94663e-09
8.93479e-08
2.9312e-09
8.90541e-08
2.91534e-09
8.87576e-08
2.89899e-09
8.84586e-08
2.88209e-09
8.81568e-08
2.86458e-09
8.78523e-08
2.84641e-09
8.75451e-08
2.82751e-09
8.7235e-08
2.80784e-09
8.69221e-08
2.78733e-09
8.66063e-08
2.76595e-09
8.62876e-08
2.74365e-09
8.5966e-08
2.7204e-09
8.56414e-08
2.69615e-09
8.53139e-08
2.67089e-09
8.49833e-08
2.64461e-09
8.46498e-08
2.6173e-09
8.43132e-08
2.58897e-09
8.39736e-08
2.55967e-09
8.36309e-08
2.52943e-09
8.32851e-08
2.49835e-09
8.29362e-08
2.46653e-09
8.25843e-08
2.43411e-09
8.22293e-08
2.40129e-09
8.18711e-08
2.3683e-09
8.151e-08
2.3354e-09
8.11458e-08
2.30292e-09
8.07787e-08
2.2712e-09
8.04088e-08
2.24064e-09
8.00361e-08
2.21162e-09
7.96609e-08
2.18457e-09
7.92832e-08
2.15988e-09
7.89033e-08
2.13792e-09
7.85214e-08
2.11903e-09
7.81376e-08
2.10347e-09
7.77523e-08
2.09146e-09
7.73655e-08
2.08308e-09
7.69777e-08
2.07833e-09
7.6589e-08
2.07703e-09
7.61999e-08
2.07874e-09
7.58105e-08
2.0827e-09
2.08799e-09
1.09341e-07
2.85333e-09
-1.09502e-07
1.09189e-07
2.94954e-09
1.09046e-07
3.04435e-09
1.08911e-07
3.13668e-09
1.08782e-07
3.22556e-09
1.08658e-07
3.31022e-09
1.08537e-07
3.39005e-09
1.08419e-07
3.4646e-09
1.08301e-07
3.53352e-09
1.08183e-07
3.59655e-09
1.08064e-07
3.65351e-09
1.07943e-07
3.70428e-09
1.07819e-07
3.74882e-09
1.07692e-07
3.78712e-09
1.0756e-07
3.81925e-09
1.07424e-07
3.84531e-09
1.07282e-07
3.86548e-09
1.07134e-07
3.87996e-09
1.0698e-07
3.88903e-09
1.06819e-07
3.893e-09
1.06651e-07
3.89223e-09
1.06476e-07
3.88711e-09
1.06294e-07
3.87807e-09
1.06104e-07
3.86556e-09
1.05908e-07
3.85003e-09
1.05704e-07
3.83195e-09
1.05494e-07
3.81178e-09
1.05278e-07
3.78996e-09
1.05055e-07
3.7669e-09
1.04827e-07
3.743e-09
1.04594e-07
3.7186e-09
1.04355e-07
3.69402e-09
1.04112e-07
3.66953e-09
1.03866e-07
3.64536e-09
1.03615e-07
3.62169e-09
1.03361e-07
3.59866e-09
1.03104e-07
3.57639e-09
1.02845e-07
3.55494e-09
1.02583e-07
3.53435e-09
1.02319e-07
3.51465e-09
1.02052e-07
3.49583e-09
1.01784e-07
3.47786e-09
1.01514e-07
3.4607e-09
1.01242e-07
3.44431e-09
1.00969e-07
3.42861e-09
1.00694e-07
3.41356e-09
1.00417e-07
3.39908e-09
1.00139e-07
3.3851e-09
9.98596e-08
3.37155e-09
9.95783e-08
3.35836e-09
9.92953e-08
3.34546e-09
9.90107e-08
3.33278e-09
9.87243e-08
3.32025e-09
9.84361e-08
3.3078e-09
9.81461e-08
3.29537e-09
9.78543e-08
3.28289e-09
9.75605e-08
3.27029e-09
9.72646e-08
3.25752e-09
9.69668e-08
3.24451e-09
9.66668e-08
3.23119e-09
9.63646e-08
3.21751e-09
9.60602e-08
3.20341e-09
9.57535e-08
3.18881e-09
9.54444e-08
3.17368e-09
9.51328e-08
3.15794e-09
9.48188e-08
3.14154e-09
9.45022e-08
3.12442e-09
9.4183e-08
3.10655e-09
9.38611e-08
3.08786e-09
9.35365e-08
3.06832e-09
9.3209e-08
3.04788e-09
9.28786e-08
3.02653e-09
9.25452e-08
3.00424e-09
9.22089e-08
2.98099e-09
9.18694e-08
2.95678e-09
9.15267e-08
2.93163e-09
9.11808e-08
2.90557e-09
9.08316e-08
2.87866e-09
9.0479e-08
2.85096e-09
9.01229e-08
2.8226e-09
8.97633e-08
2.7937e-09
8.94002e-08
2.76445e-09
8.90334e-08
2.73505e-09
8.8663e-08
2.70577e-09
8.82891e-08
2.67689e-09
8.79115e-08
2.64874e-09
8.75305e-08
2.62167e-09
8.71461e-08
2.59605e-09
8.67584e-08
2.57225e-09
8.63676e-08
2.55066e-09
8.59739e-08
2.5316e-09
8.55776e-08
2.51539e-09
8.51788e-08
2.50228e-09
8.47778e-08
2.49246e-09
8.43748e-08
2.486e-09
8.39703e-08
2.4829e-09
8.35643e-08
2.48297e-09
8.31572e-08
2.48586e-09
8.27489e-08
2.49106e-09
2.49841e-09
6.85665e-08
2.72036e-09
-6.84335e-08
6.8706e-08
2.81001e-09
6.88518e-08
2.89852e-09
6.90035e-08
2.985e-09
6.91605e-08
3.06859e-09
6.93221e-08
3.14857e-09
6.94878e-08
3.22436e-09
6.96569e-08
3.29548e-09
6.98289e-08
3.36157e-09
7.00031e-08
3.42233e-09
7.01791e-08
3.47756e-09
7.03562e-08
3.52711e-09
7.05342e-08
3.5709e-09
7.07124e-08
3.6089e-09
7.08905e-08
3.64113e-09
7.10681e-08
3.66768e-09
7.12449e-08
3.68869e-09
7.14206e-08
3.70432e-09
7.15948e-08
3.71481e-09
7.17674e-08
3.72043e-09
7.19381e-08
3.72149e-09
7.21069e-08
3.71834e-09
7.22736e-08
3.71136e-09
7.24382e-08
3.70094e-09
7.26007e-08
3.6875e-09
7.27612e-08
3.67145e-09
7.29198e-08
3.65322e-09
7.30766e-08
3.63319e-09
7.32317e-08
3.61175e-09
7.33854e-08
3.58928e-09
7.35379e-08
3.56609e-09
7.36895e-08
3.54249e-09
7.38403e-08
3.51874e-09
7.39905e-08
3.49508e-09
7.41405e-08
3.47168e-09
7.42905e-08
3.4487e-09
7.44406e-08
3.42626e-09
7.45911e-08
3.40445e-09
7.47422e-08
3.38332e-09
7.48939e-08
3.36292e-09
7.50465e-08
3.34326e-09
7.52e-08
3.32432e-09
7.53546e-08
3.30609e-09
7.55104e-08
3.28854e-09
7.56674e-08
3.27161e-09
7.58257e-08
3.25527e-09
7.59853e-08
3.23945e-09
7.61463e-08
3.2241e-09
7.63087e-08
3.20915e-09
7.64725e-08
3.19455e-09
7.66378e-08
3.18022e-09
7.68044e-08
3.16611e-09
7.69725e-08
3.15215e-09
7.71421e-08
3.13827e-09
7.7313e-08
3.12442e-09
7.74854e-08
3.11053e-09
7.76591e-08
3.09654e-09
7.78343e-08
3.08239e-09
7.80108e-08
3.06801e-09
7.81886e-08
3.05336e-09
7.83677e-08
3.03836e-09
7.85482e-08
3.02296e-09
7.87299e-08
3.00709e-09
7.89129e-08
2.99072e-09
7.9097e-08
2.97377e-09
7.92824e-08
2.95619e-09
7.94689e-08
2.93794e-09
7.96565e-08
2.91896e-09
7.98451e-08
2.89922e-09
8.00348e-08
2.87866e-09
8.02254e-08
2.85727e-09
8.04169e-08
2.83501e-09
8.06093e-08
2.81186e-09
8.08024e-08
2.78782e-09
8.09963e-08
2.76289e-09
8.11909e-08
2.73709e-09
8.1386e-08
2.71045e-09
8.15816e-08
2.68304e-09
8.17776e-08
2.65492e-09
8.1974e-08
2.62621e-09
8.21707e-08
2.59704e-09
8.23676e-08
2.56759e-09
8.25646e-08
2.53804e-09
8.27617e-08
2.50865e-09
8.29589e-08
2.47969e-09
8.31562e-08
2.45144e-09
8.33536e-08
2.42425e-09
8.35512e-08
2.39844e-09
8.37491e-08
2.37436e-09
8.39474e-08
2.35234e-09
8.41463e-08
2.3327e-09
8.4346e-08
2.31572e-09
8.45466e-08
2.30162e-09
8.47485e-08
2.29056e-09
8.49519e-08
2.28261e-09
8.51571e-08
2.27775e-09
8.53642e-08
2.27582e-09
8.55736e-08
2.27653e-09
8.57852e-08
2.27943e-09
2.2838e-09
7.57739e-08
2.57504e-09
-7.56286e-08
7.59253e-08
2.6586e-09
7.60826e-08
2.74122e-09
7.62455e-08
2.82214e-09
7.64134e-08
2.90063e-09
7.6586e-08
2.97603e-09
7.67625e-08
3.04778e-09
7.69426e-08
3.11542e-09
7.71256e-08
3.17858e-09
7.7311e-08
3.23694e-09
7.74982e-08
3.29028e-09
7.76869e-08
3.33843e-09
7.78766e-08
3.38127e-09
7.80667e-08
3.41874e-09
7.8257e-08
3.45086e-09
7.8447e-08
3.47766e-09
7.86365e-08
3.49924e-09
7.8825e-08
3.51576e-09
7.90124e-08
3.52739e-09
7.91985e-08
3.53438e-09
7.9383e-08
3.53699e-09
7.95658e-08
3.53553e-09
7.97468e-08
3.53032e-09
7.9926e-08
3.52173e-09
8.01034e-08
3.51011e-09
8.02791e-08
3.49583e-09
8.0453e-08
3.47928e-09
8.06254e-08
3.46082e-09
8.07963e-08
3.4408e-09
8.0966e-08
3.41956e-09
8.11347e-08
3.39741e-09
8.13026e-08
3.37463e-09
8.14698e-08
3.35149e-09
8.16367e-08
3.3282e-09
8.18034e-08
3.30495e-09
8.19702e-08
3.28191e-09
8.21373e-08
3.25921e-09
8.23048e-08
3.23694e-09
8.24729e-08
3.21519e-09
8.26418e-08
3.19399e-09
8.28117e-08
3.17339e-09
8.29826e-08
3.15339e-09
8.31547e-08
3.13398e-09
8.33281e-08
3.11516e-09
8.35029e-08
3.09688e-09
8.3679e-08
3.07912e-09
8.38566e-08
3.06183e-09
8.40358e-08
3.04496e-09
8.42165e-08
3.02846e-09
8.43987e-08
3.01228e-09
8.45826e-08
2.99635e-09
8.47681e-08
2.98063e-09
8.49552e-08
2.96505e-09
8.51439e-08
2.94954e-09
8.53343e-08
2.93407e-09
8.55262e-08
2.91855e-09
8.57198e-08
2.90294e-09
8.5915e-08
2.88717e-09
8.61119e-08
2.87119e-09
8.63103e-08
2.85494e-09
8.65103e-08
2.83836e-09
8.67118e-08
2.82139e-09
8.6915e-08
2.80398e-09
8.71196e-08
2.78608e-09
8.73257e-08
2.76762e-09
8.75334e-08
2.74857e-09
8.77424e-08
2.72887e-09
8.79529e-08
2.70847e-09
8.81648e-08
2.68735e-09
8.8378e-08
2.66546e-09
8.85925e-08
2.64277e-09
8.88082e-08
2.61926e-09
8.90252e-08
2.59492e-09
8.92433e-08
2.56974e-09
8.94624e-08
2.54374e-09
8.96826e-08
2.51693e-09
8.99037e-08
2.48937e-09
9.01256e-08
2.46109e-09
9.03483e-08
2.4322e-09
9.05718e-08
2.40278e-09
9.07958e-08
2.37299e-09
9.10204e-08
2.34297e-09
9.12456e-08
2.31292e-09
9.14711e-08
2.28307e-09
9.16972e-08
2.25367e-09
9.19236e-08
2.22499e-09
9.21505e-08
2.19733e-09
9.2378e-08
2.171e-09
9.2606e-08
2.14631e-09
9.28348e-08
2.12358e-09
9.30644e-08
2.10307e-09
9.32951e-08
2.08504e-09
9.3527e-08
2.06971e-09
9.37604e-08
2.0572e-09
9.39954e-08
2.0476e-09
9.42323e-08
2.04088e-09
9.44711e-08
2.03694e-09
9.47121e-08
2.03553e-09
9.49553e-08
2.03627e-09
2.03872e-09
8.37355e-08
2.41656e-09
-8.35771e-08
8.38997e-08
2.49444e-09
8.40694e-08
2.57152e-09
8.42444e-08
2.64717e-09
8.44243e-08
2.72075e-09
8.46086e-08
2.79167e-09
8.4797e-08
2.85942e-09
8.49888e-08
2.92355e-09
8.51837e-08
2.9837e-09
8.53811e-08
3.03955e-09
8.55806e-08
3.09084e-09
8.57816e-08
3.1374e-09
8.59838e-08
3.17909e-09
8.61867e-08
3.21583e-09
8.639e-08
3.24758e-09
8.65932e-08
3.27437e-09
8.67962e-08
3.29627e-09
8.69986e-08
3.31339e-09
8.72001e-08
3.32588e-09
8.74005e-08
3.33394e-09
8.75997e-08
3.33779e-09
8.77975e-08
3.33771e-09
8.79939e-08
3.33397e-09
8.81888e-08
3.32688e-09