/*--------------------------------*- C++ -*----------------------------------*\
| =========                 |                                                 |
| \\      /  F ield         | OpenFOAM: The Open Source CFD Toolbox           |
|  \\    /   O peration     | Version:  2.3.0                                 |
|   \\  /    A nd           | Web:      www.OpenFOAM.org                      |
|    \\/     M anipulation  |                                                 |
\*---------------------------------------------------------------------------*/
FoamFile
{
    version     2.0;
    format      ascii;
    class       volVectorField;
    location    "0.35";
    object      U;
}
// * * * * * * * * * * * * * * * * * * * * * * * * * * * * * * * * * * * * * //

dimensions      [0 1 -1 0 0 0 0];

internalField   nonuniform List<vector> 
3375
(
(0.173408 0.00612065 0)
(0.156946 0.00611024 0)
(0.141077 0.00565603 0)
(0.126071 0.00504274 0)
(0.112322 0.00437284 0)
(0.0999757 0.00369681 0)
(0.08904 0.00305053 0)
(0.0794825 0.00245828 0)
(0.0712488 0.00193458 0)
(0.0642548 0.00148676 0)
(0.0583883 0.00111629 0)
(0.0535177 0.000819704 0)
(0.049504 0.000589781 0)
(0.0462091 0.000417023 0)
(0.0435039 0.000291138 0)
(0.0412728 0.000202177 0)
(0.0394165 0.000141262 0)
(0.0378531 0.00010091 0)
(0.0365168 7.5112e-05 0)
(0.0353563 5.92264e-05 0)
(0.0343327 4.9811e-05 0)
(0.0334167 4.44132e-05 0)
(0.0325869 4.13606e-05 0)
(0.0318273 3.95672e-05 0)
(0.0311263 3.83672e-05 0)
(0.0304753 3.7381e-05 0)
(0.0298678 3.64139e-05 0)
(0.0292986 3.53834e-05 0)
(0.0287636 3.42703e-05 0)
(0.0282596 3.30866e-05 0)
(0.0277836 3.18571e-05 0)
(0.0273332 3.06085e-05 0)
(0.0269062 2.93648e-05 0)
(0.0265008 2.81446e-05 0)
(0.0261152 2.69614e-05 0)
(0.0257478 2.58241e-05 0)
(0.0253972 2.47375e-05 0)
(0.0250623 2.37038e-05 0)
(0.0247418 2.27231e-05 0)
(0.0244348 2.17939e-05 0)
(0.0241403 2.09142e-05 0)
(0.0238576 2.00813e-05 0)
(0.0235858 1.92922e-05 0)
(0.0233244 1.8544e-05 0)
(0.0230726 1.78336e-05 0)
(0.0228301 1.71582e-05 0)
(0.0225962 1.65153e-05 0)
(0.0223707 1.59021e-05 0)
(0.0221529 1.53165e-05 0)
(0.0219427 1.47563e-05 0)
(0.0217397 1.42194e-05 0)
(0.0215435 1.3704e-05 0)
(0.0213541 1.32084e-05 0)
(0.0211711 1.27311e-05 0)
(0.0209943 1.22705e-05 0)
(0.0208236 1.18255e-05 0)
(0.0206588 1.13946e-05 0)
(0.0204998 1.09768e-05 0)
(0.0203465 1.05709e-05 0)
(0.0201988 1.01758e-05 0)
(0.0200567 9.79071e-06 0)
(0.01992 9.41464e-06 0)
(0.0197889 9.04687e-06 0)
(0.0196631 8.68685e-06 0)
(0.0195428 8.33414e-06 0)
(0.0194279 7.98837e-06 0)
(0.0193185 7.64906e-06 0)
(0.0192147 7.31535e-06 0)
(0.0191163 6.98546e-06 0)
(0.0190236 6.65621e-06 0)
(0.0189367 6.32251e-06 0)
(0.0188556 5.97694e-06 0)
(0.0187807 5.6099e-06 0)
(0.0187122 5.21008e-06 0)
(0.0186504 4.76587e-06 0)
(0.0185957 4.26703e-06 0)
(0.0185483 3.70695e-06 0)
(0.0185088 3.08485e-06 0)
(0.0184771 2.40982e-06 0)
(0.0184534 1.71377e-06 0)
(0.0184375 1.07119e-06 0)
(0.018429 5.46085e-07 0)
(0.0184271 1.50218e-07 0)
(0.0184299 -2.08434e-07 0)
(0.0184355 -4.63095e-07 0)
(0.0184431 -6.20744e-07 0)
(0.0184517 -7.00323e-07 0)
(0.0184607 -7.22155e-07 0)
(0.0184699 -7.01038e-07 0)
(0.0184787 -6.61684e-07 0)
(0.0184872 -6.11537e-07 0)
(0.0184951 -5.54272e-07 0)
(0.0185024 -4.97833e-07 0)
(0.0185092 -4.44168e-07 0)
(0.0185154 -3.93297e-07 0)
(0.018521 -3.4605e-07 0)
(0.0185262 -3.01317e-07 0)
(0.0185309 -2.67296e-07 0)
(0.0185349 -3.37969e-07 0)
(0.0185464 -1.40997e-06 0)
(0.192285 0.00952757 0)
(0.190142 0.00993604 0)
(0.186381 0.00968258 0)
(0.181398 0.00918093 0)
(0.175685 0.00854809 0)
(0.169577 0.00782772 0)
(0.163291 0.00705774 0)
(0.156994 0.0062723 0)
(0.150817 0.0054999 0)
(0.144862 0.00476407 0)
(0.139194 0.00408337 0)
(0.133855 0.0034707 0)
(0.128864 0.00293304 0)
(0.124224 0.00247189 0)
(0.119928 0.0020842 0)
(0.115959 0.00176364 0)
(0.1123 0.00150197 0)
(0.108925 0.00129016 0)
(0.105813 0.00111937 0)
(0.102938 0.000981556 0)
(0.100279 0.000869764 0)
(0.0978154 0.000778269 0)
(0.0955269 0.000702503 0)
(0.0933965 0.000638923 0)
(0.0914084 0.000584834 0)
(0.0895487 0.000538212 0)
(0.0878051 0.00049755 0)
(0.0861667 0.000461724 0)
(0.0846236 0.000429892 0)
(0.0831673 0.000401412 0)
(0.0817901 0.000375787 0)
(0.0804854 0.000352624 0)
(0.079247 0.000331603 0)
(0.0780695 0.000312461 0)
(0.0769483 0.000294974 0)
(0.0758788 0.000278953 0)
(0.0748574 0.000264234 0)
(0.0738806 0.000250672 0)
(0.0729451 0.000238143 0)
(0.0720482 0.000226537 0)
(0.0711875 0.000215756 0)
(0.0703605 0.000205714 0)
(0.0695652 0.000196337 0)
(0.0687998 0.000187556 0)
(0.0680627 0.000179312 0)
(0.0673521 0.000171552 0)
(0.0666669 0.000164228 0)
(0.0660058 0.000157297 0)
(0.0653676 0.000150723 0)
(0.0647514 0.000144469 0)
(0.0641562 0.000138505 0)
(0.0635813 0.000132803 0)
(0.063026 0.000127336 0)
(0.0624897 0.000122082 0)
(0.0619718 0.000117018 0)
(0.0614719 0.000112125 0)
(0.0609895 0.000107383 0)
(0.0605244 0.000102777 0)
(0.0600762 9.82904e-05 0)
(0.0596449 9.39082e-05 0)
(0.0592303 8.96172e-05 0)
(0.0588322 8.54048e-05 0)
(0.0584506 8.12596e-05 0)
(0.0580857 7.71713e-05 0)
(0.0577374 7.31302e-05 0)
(0.0574058 6.91273e-05 0)
(0.0570912 6.51531e-05 0)
(0.0567937 6.11969e-05 0)
(0.0565136 5.72458e-05 0)
(0.0562512 5.32835e-05 0)
(0.056007 4.92899e-05 0)
(0.0557813 4.52414e-05 0)
(0.0555748 4.11136e-05 0)
(0.0553879 3.68846e-05 0)
(0.0552212 3.25412e-05 0)
(0.0550751 2.80854e-05 0)
(0.0549501 2.35409e-05 0)
(0.0548461 1.89563e-05 0)
(0.0547629 1.44068e-05 0)
(0.0546997 1.00001e-05 0)
(0.0546553 5.89223e-06 0)
(0.054628 2.25214e-06 0)
(0.0546158 -6.68282e-07 0)
(0.0546169 -2.66167e-06 0)
(0.0546262 -3.76111e-06 0)
(0.0546408 -4.35447e-06 0)
(0.0546586 -4.63944e-06 0)
(0.0546781 -4.70345e-06 0)
(0.0546983 -4.59094e-06 0)
(0.0547185 -4.37931e-06 0)
(0.0547382 -4.10616e-06 0)
(0.0547571 -3.79727e-06 0)
(0.0547751 -3.48876e-06 0)
(0.0547921 -3.1947e-06 0)
(0.0548081 -2.91964e-06 0)
(0.0548231 -2.67069e-06 0)
(0.0548373 -2.45519e-06 0)
(0.0548507 -2.32122e-06 0)
(0.0548633 -2.55843e-06 0)
(0.0548835 -4.48778e-06 0)
(0.195217 0.00893509 0)
(0.196165 0.00984478 0)
(0.196457 0.0101726 0)
(0.195976 0.0101858 0)
(0.194838 0.00997119 0)
(0.193155 0.00956613 0)
(0.191014 0.00901613 0)
(0.188497 0.00837045 0)
(0.185696 0.00767376 0)
(0.182697 0.00696402 0)
(0.179573 0.00627188 0)
(0.176387 0.00562007 0)
(0.173189 0.00502327 0)
(0.170018 0.00448881 0)
(0.166902 0.00401812 0)
(0.163861 0.0036083 0)
(0.160906 0.00325382 0)
(0.158046 0.00294787 0)
(0.155284 0.00268345 0)
(0.152621 0.00245396 0)
(0.150055 0.00225362 0)
(0.147585 0.00207753 0)
(0.145208 0.00192168 0)
(0.14292 0.00178285 0)
(0.140719 0.00165844 0)
(0.138601 0.00154638 0)
(0.136563 0.00144502 0)
(0.134601 0.001353 0)
(0.132712 0.0012692 0)
(0.130894 0.00119269 0)
(0.129142 0.00112268 0)
(0.127454 0.00105848 0)
(0.125827 0.000999483 0)
(0.124258 0.000945174 0)
(0.122745 0.000895081 0)
(0.121284 0.00084879 0)
(0.119874 0.000805929 0)
(0.118512 0.000766167 0)
(0.117195 0.000729204 0)
(0.115923 0.000694774 0)
(0.114692 0.000662637 0)
(0.113501 0.000632575 0)
(0.112348 0.000604395 0)
(0.111232 0.000577921 0)
(0.110151 0.000552993 0)
(0.109103 0.000529468 0)
(0.108087 0.000507215 0)
(0.107103 0.000486117 0)
(0.106148 0.000466064 0)
(0.105223 0.000446958 0)
(0.104326 0.000428709 0)
(0.103456 0.000411234 0)
(0.102613 0.000394455 0)
(0.101796 0.000378301 0)
(0.101004 0.000362709 0)
(0.100237 0.000347615 0)
(0.0994956 0.000332964 0)
(0.0987783 0.000318703 0)
(0.0980852 0.000304781 0)
(0.0974163 0.000291154 0)
(0.0967715 0.000277777 0)
(0.0961509 0.000264612 0)
(0.0955546 0.00025162 0)
(0.0949828 0.000238767 0)
(0.0944358 0.000226022 0)
(0.093914 0.000213353 0)
(0.0934176 0.000200729 0)
(0.0929472 0.00018812 0)
(0.0925033 0.000175492 0)
(0.0920866 0.000162807 0)
(0.0916977 0.000150028 0)
(0.0913372 0.000137118 0)
(0.091006 0.000124051 0)
(0.0907047 0.000110816 0)
(0.0904339 9.74352e-05 0)
(0.090194 8.39754e-05 0)
(0.089985 7.05577e-05 0)
(0.0898067 5.73639e-05 0)
(0.0896582 4.46308e-05 0)
(0.0895381 3.26323e-05 0)
(0.0894442 2.1642e-05 0)
(0.0893738 1.18993e-05 0)
(0.0893233 3.62592e-06 0)
(0.0892905 -2.89261e-06 0)
(0.0892764 -7.35622e-06 0)
(0.0892756 -9.89573e-06 0)
(0.0892837 -1.11294e-05 0)
(0.0892979 -1.16054e-05 0)
(0.089316 -1.16033e-05 0)
(0.0893365 -1.13301e-05 0)
(0.0893584 -1.08761e-05 0)
(0.089381 -1.02982e-05 0)
(0.0894036 -9.67489e-06 0)
(0.0894261 -9.04746e-06 0)
(0.0894481 -8.43906e-06 0)
(0.0894696 -7.87564e-06 0)
(0.0894905 -7.38316e-06 0)
(0.0895109 -7.04602e-06 0)
(0.0895304 -7.22599e-06 0)
(0.0895543 -8.64338e-06 0)
(0.196238 0.00823113 0)
(0.197526 0.00924397 0)
(0.198697 0.00977946 0)
(0.199561 0.0100124 0)
(0.200107 0.0100178 0)
(0.200339 0.00982681 0)
(0.200251 0.00947516 0)
(0.199847 0.00900477 0)
(0.19915 0.00845631 0)
(0.198196 0.0078661 0)
(0.197025 0.0072652 0)
(0.195677 0.00667837 0)
(0.194192 0.00612348 0)
(0.192604 0.00561171 0)
(0.190944 0.00514842 0)
(0.189236 0.00473445 0)
(0.1875 0.00436756 0)
(0.18575 0.0040436 0)
(0.183998 0.00375757 0)
(0.18225 0.0035043 0)
(0.180512 0.00327893 0)
(0.178789 0.00307715 0)
(0.177083 0.00289525 0)
(0.175397 0.0027302 0)
(0.173732 0.0025795 0)
(0.172089 0.00244116 0)
(0.17047 0.00231358 0)
(0.168876 0.00219547 0)
(0.167306 0.00208579 0)
(0.165762 0.00198368 0)
(0.164245 0.00188842 0)
(0.162754 0.0017994 0)
(0.161289 0.00171608 0)
(0.159852 0.00163798 0)
(0.158442 0.0015647 0)
(0.157058 0.00149585 0)
(0.155702 0.00143108 0)
(0.154372 0.00137007 0)
(0.153068 0.00131255 0)
(0.151792 0.00125823 0)
(0.150541 0.00120688 0)
(0.149316 0.00115826 0)
(0.148116 0.00111216 0)
(0.146942 0.00106838 0)
(0.145792 0.00102674 0)
(0.144667 0.000987078 0)
(0.143567 0.000949221 0)
(0.142491 0.000913026 0)
(0.141438 0.000878353 0)
(0.140409 0.000845071 0)
(0.139404 0.000813058 0)
(0.138422 0.000782197 0)
(0.137463 0.000752379 0)
(0.136527 0.000723501 0)
(0.135615 0.000695465 0)
(0.134726 0.000668177 0)
(0.13386 0.000641549 0)
(0.133017 0.000615497 0)
(0.132199 0.000589941 0)
(0.131404 0.000564804 0)
(0.130634 0.000540016 0)
(0.129888 0.000515506 0)
(0.129168 0.000491212 0)
(0.128474 0.000467072 0)
(0.127806 0.000443029 0)
(0.127165 0.000419028 0)
(0.126552 0.000395016 0)
(0.125968 0.000370939 0)
(0.125413 0.000346746 0)
(0.124889 0.000322385 0)
(0.124396 0.000297811 0)
(0.123935 0.000272991 0)
(0.123508 0.000247915 0)
(0.123116 0.000222614 0)
(0.122758 0.000197172 0)
(0.122435 0.000171751 0)
(0.122147 0.000146599 0)
(0.121894 0.000122055 0)
(0.121676 9.85379e-05 0)
(0.121489 7.65271e-05 0)
(0.121333 5.65122e-05 0)
(0.121204 3.89219e-05 0)
(0.121099 2.39534e-05 0)
(0.121016 1.14946e-05 0)
(0.120948 1.51204e-06 0)
(0.120898 -6.08463e-06 0)
(0.120867 -1.14218e-05 0)
(0.12085 -1.46625e-05 0)
(0.120844 -1.63408e-05 0)
(0.120846 -1.70433e-05 0)
(0.120853 -1.71508e-05 0)
(0.120865 -1.6885e-05 0)
(0.12088 -1.64221e-05 0)
(0.120898 -1.58479e-05 0)
(0.120917 -1.52107e-05 0)
(0.120937 -1.4563e-05 0)
(0.120959 -1.3951e-05 0)
(0.120981 -1.34575e-05 0)
(0.121003 -1.32947e-05 0)
(0.121027 -1.32891e-05 0)
(0.196966 0.00764177 0)
(0.198104 0.00859252 0)
(0.199299 0.00916 0)
(0.200399 0.0094595 0)
(0.201371 0.0095581 0)
(0.202197 0.00948385 0)
(0.202853 0.00926269 0)
(0.203316 0.00892621 0)
(0.203579 0.00850702 0)
(0.203645 0.00803564 0)
(0.203528 0.00753933 0)
(0.203247 0.00704103 0)
(0.202823 0.00655849 0)
(0.20228 0.00610396 0)
(0.201639 0.00568466 0)
(0.200919 0.00530358 0)
(0.200136 0.00496058 0)
(0.199305 0.00465346 0)
(0.198434 0.00437879 0)
(0.197533 0.00413271 0)
(0.196607 0.00391133 0)
(0.19566 0.00371105 0)
(0.194698 0.00352874 0)
(0.193721 0.00336172 0)
(0.192732 0.00320781 0)
(0.191734 0.00306521 0)
(0.190728 0.00293249 0)
(0.189715 0.00280849 0)
(0.188697 0.00269225 0)
(0.187676 0.00258301 0)
(0.186652 0.0024801 0)
(0.185627 0.00238299 0)
(0.184601 0.00229119 0)
(0.183577 0.00220428 0)
(0.182554 0.00212189 0)
(0.181534 0.00204368 0)
(0.180517 0.00196935 0)
(0.179505 0.00189861 0)
(0.178498 0.00183121 0)
(0.177496 0.00176691 0)
(0.176501 0.00170548 0)
(0.175514 0.00164671 0)
(0.174533 0.00159043 0)
(0.173561 0.00153644 0)
(0.172598 0.00148457 0)
(0.171644 0.00143468 0)
(0.170699 0.00138659 0)
(0.169765 0.00134018 0)
(0.168842 0.0012953 0)
(0.16793 0.00125182 0)
(0.167029 0.00120963 0)
(0.166141 0.00116859 0)
(0.165265 0.0011286 0)
(0.164403 0.00108954 0)
(0.163554 0.00105131 0)
(0.16272 0.0010138 0)
(0.1619 0.000976911 0)
(0.161097 0.000940544 0)
(0.160309 0.000904604 0)
(0.159539 0.000868999 0)
(0.158787 0.000833642 0)
(0.158053 0.000798446 0)
(0.157338 0.000763329 0)
(0.156644 0.000728214 0)
(0.155972 0.000693025 0)
(0.155322 0.000657691 0)
(0.154695 0.000622142 0)
(0.154093 0.000586313 0)
(0.153517 0.000550141 0)
(0.152967 0.000513572 0)
(0.152447 0.000476568 0)
(0.151955 0.000439112 0)
(0.151494 0.000401233 0)
(0.151064 0.000363017 0)
(0.150667 0.000324634 0)
(0.150303 0.000286351 0)
(0.149971 0.000248551 0)
(0.149672 0.000211726 0)
(0.149406 0.000176463 0)
(0.14917 0.000143405 0)
(0.148963 0.000113188 0)
(0.148784 8.63651e-05 0)
(0.14863 6.32915e-05 0)
(0.148498 4.40252e-05 0)
(0.148386 2.81568e-05 0)
(0.148292 1.50756e-05 0)
(0.148211 4.58363e-06 0)
(0.148144 -3.4828e-06 0)
(0.148092 -9.58245e-06 0)
(0.148054 -1.3932e-05 0)
(0.148029 -1.67421e-05 0)
(0.148013 -1.84219e-05 0)
(0.148004 -1.93612e-05 0)
(0.148002 -1.98247e-05 0)
(0.148005 -1.99789e-05 0)
(0.148013 -1.99456e-05 0)
(0.148024 -1.97986e-05 0)
(0.148037 -1.95955e-05 0)
(0.148053 -1.93151e-05 0)
(0.148071 -1.78258e-05 0)
(0.197592 0.00711728 0)
(0.198549 0.00796941 0)
(0.19961 0.00852471 0)
(0.20066 0.00884822 0)
(0.201657 0.00899217 0)
(0.202585 0.00898222 0)
(0.20342 0.00883951 0)
(0.20414 0.0085895 0)
(0.204732 0.00825943 0)
(0.20519 0.00787537 0)
(0.205517 0.00746098 0)
(0.205722 0.00703664 0)
(0.205814 0.00661868 0)
(0.205808 0.00621896 0)
(0.205718 0.00584515 0)
(0.205557 0.0055012 0)
(0.205338 0.00518821 0)
(0.20507 0.00490525 0)
(0.204762 0.00465014 0)
(0.20442 0.00442004 0)
(0.204049 0.00421189 0)
(0.203652 0.00402277 0)
(0.203232 0.00385 0)
(0.202792 0.00369126 0)
(0.202332 0.00354459 0)
(0.201854 0.00340834 0)
(0.20136 0.00328119 0)
(0.200849 0.00316202 0)
(0.200324 0.00304995 0)
(0.199784 0.00294423 0)
(0.199231 0.00284424 0)
(0.198665 0.00274946 0)
(0.198088 0.00265943 0)
(0.1975 0.00257377 0)
(0.196902 0.00249212 0)
(0.196295 0.00241417 0)
(0.195678 0.00233965 0)
(0.195054 0.00226829 0)
(0.194423 0.00219987 0)
(0.193786 0.00213416 0)
(0.193142 0.00207096 0)
(0.192494 0.00201009 0)
(0.191841 0.00195136 0)
(0.191184 0.00189462 0)
(0.190524 0.00183971 0)
(0.189862 0.00178648 0)
(0.189198 0.00173479 0)
(0.188533 0.0016845 0)
(0.187867 0.00163548 0)
(0.187201 0.00158762 0)
(0.186537 0.00154078 0)
(0.185873 0.00149486 0)
(0.185213 0.00144974 0)
(0.184555 0.0014053 0)
(0.183901 0.00136143 0)
(0.183251 0.00131804 0)
(0.182606 0.00127501 0)
(0.181968 0.00123223 0)
(0.181337 0.00118961 0)
(0.180714 0.00114705 0)
(0.180099 0.00110445 0)
(0.179494 0.00106171 0)
(0.178901 0.00101874 0)
(0.178319 0.000975456 0)
(0.17775 0.000931768 0)
(0.177195 0.000887596 0)
(0.176655 0.000842864 0)
(0.176133 0.000797499 0)
(0.175628 0.000751441 0)
(0.175142 0.00070464 0)
(0.174677 0.000657075 0)
(0.174233 0.00060876 0)
(0.173812 0.000559768 0)
(0.173415 0.000510248 0)
(0.173043 0.000460455 0)
(0.172696 0.000410758 0)
(0.172374 0.00036166 0)
(0.172079 0.000313782 0)
(0.171808 0.000267844 0)
(0.171562 0.000224609 0)
(0.17134 0.000184813 0)
(0.171141 0.00014907 0)
(0.170964 0.000117774 0)
(0.170806 9.10059e-05 0)
(0.170667 6.85151e-05 0)
(0.170545 4.99336e-05 0)
(0.170439 3.47291e-05 0)
(0.170345 2.21835e-05 0)
(0.170264 1.17714e-05 0)
(0.170191 3.32125e-06 0)
(0.170129 -3.40395e-06 0)
(0.170079 -8.77012e-06 0)
(0.170039 -1.29348e-05 0)
(0.170009 -1.60284e-05 0)
(0.169987 -1.8294e-05 0)
(0.169972 -1.99672e-05 0)
(0.169963 -2.12138e-05 0)
(0.16996 -2.211e-05 0)
(0.169961 -2.24631e-05 0)
(0.169965 -2.0519e-05 0)
(0.198144 0.00665847 0)
(0.198957 0.00741134 0)
(0.199879 0.00793758 0)
(0.200825 0.00826608 0)
(0.201753 0.00843303 0)
(0.202641 0.00846104 0)
(0.203471 0.00836867 0)
(0.204224 0.00817733 0)
(0.204889 0.00791027 0)
(0.205457 0.0075901 0)
(0.20593 0.00723751 0)
(0.206311 0.00687052 0)
(0.206608 0.0065039 0)
(0.206828 0.0061488 0)
(0.206984 0.00581284 0)
(0.207084 0.00550045 0)
(0.207138 0.00521355 0)
(0.207153 0.00495212 0)
(0.207137 0.00471489 0)
(0.207094 0.00449986 0)
(0.207029 0.00430467 0)
(0.206943 0.00412692 0)
(0.206839 0.00396436 0)
(0.206719 0.00381495 0)
(0.206583 0.00367692 0)
(0.206433 0.00354876 0)
(0.206268 0.00342923 0)
(0.206089 0.00331726 0)
(0.205897 0.003212 0)
(0.205692 0.00311272 0)
(0.205473 0.00301881 0)
(0.205242 0.00292975 0)
(0.204999 0.0028451 0)
(0.204743 0.00276446 0)
(0.204476 0.00268751 0)
(0.204197 0.00261392 0)
(0.203908 0.00254343 0)
(0.203607 0.00247578 0)
(0.203297 0.00241074 0)
(0.202976 0.0023481 0)
(0.202646 0.00228766 0)
(0.202307 0.00222924 0)
(0.201958 0.00217266 0)
(0.201602 0.00211777 0)
(0.201237 0.00206441 0)
(0.200865 0.00201243 0)
(0.200486 0.0019617 0)
(0.2001 0.00191207 0)
(0.199708 0.00186343 0)
(0.19931 0.00181564 0)
(0.198908 0.00176859 0)
(0.1985 0.00172215 0)
(0.198089 0.0016762 0)
(0.197674 0.00163064 0)
(0.197256 0.00158534 0)
(0.196836 0.0015402 0)
(0.196415 0.0014951 0)
(0.195993 0.00144993 0)
(0.19557 0.00140458 0)
(0.195149 0.00135894 0)
(0.194729 0.00131292 0)
(0.194311 0.00126639 0)
(0.193896 0.00121927 0)
(0.193486 0.00117145 0)
(0.193081 0.00112285 0)
(0.192682 0.00107337 0)
(0.19229 0.00102293 0)
(0.191907 0.000971463 0)
(0.191533 0.000918904 0)
(0.191169 0.00086522 0)
(0.190817 0.000810405 0)
(0.190478 0.000754506 0)
(0.190152 0.000697639 0)
(0.189841 0.00064001 0)
(0.189545 0.000581943 0)
(0.189265 0.000523889 0)
(0.189001 0.000466439 0)
(0.188754 0.000410306 0)
(0.188523 0.000356294 0)
(0.188309 0.000305243 0)
(0.188111 0.000257943 0)
(0.187928 0.000215043 0)
(0.187761 0.000176954 0)
(0.187609 0.00014379 0)
(0.187471 0.000115361 0)
(0.187346 9.13002e-05 0)
(0.187235 7.1098e-05 0)
(0.187135 5.42294e-05 0)
(0.187045 4.02383e-05 0)
(0.186965 2.85886e-05 0)
(0.186894 1.87187e-05 0)
(0.186831 1.02579e-05 0)
(0.186773 3.06361e-06 0)
(0.186723 -3.01312e-06 0)
(0.186681 -8.14445e-06 0)
(0.186647 -1.23983e-05 0)
(0.186619 -1.58607e-05 0)
(0.186598 -1.86183e-05 0)
(0.186582 -2.04608e-05 0)
(0.18657 -1.97303e-05 0)
(0.198634 0.00625116 0)
(0.199335 0.00691106 0)
(0.200138 0.00739829 0)
(0.200981 0.00772007 0)
(0.201825 0.00789877 0)
(0.202645 0.00795276 0)
(0.203425 0.007898 0)
(0.204148 0.00775235 0)
(0.204802 0.00753542 0)
(0.205382 0.00726672 0)
(0.205886 0.00696436 0)
(0.206318 0.00664431 0)
(0.206681 0.00631996 0)
(0.206983 0.00600172 0)
(0.207233 0.00569706 0)
(0.207438 0.00541072 0)
(0.207606 0.0051452 0)
(0.207744 0.0049012 0)
(0.207857 0.00467823 0)
(0.20795 0.00447498 0)
(0.208026 0.00428972 0)
(0.208089 0.00412054 0)
(0.208139 0.00396559 0)
(0.208179 0.0038231 0)
(0.208209 0.00369153 0)
(0.208229 0.00356952 0)
(0.20824 0.00345588 0)
(0.208242 0.00334965 0)
(0.208236 0.00324998 0)
(0.20822 0.00315616 0)
(0.208196 0.00306759 0)
(0.208164 0.00298376 0)
(0.208122 0.00290422 0)
(0.208072 0.00282857 0)
(0.208013 0.00275647 0)
(0.207946 0.00268761 0)
(0.20787 0.00262169 0)
(0.207785 0.00255848 0)
(0.207692 0.00249773 0)
(0.207591 0.00243922 0)
(0.207481 0.00238275 0)
(0.207363 0.00232813 0)
(0.207237 0.00227519 0)
(0.207103 0.00222376 0)
(0.206961 0.00217368 0)
(0.206811 0.0021248 0)
(0.206654 0.00207697 0)
(0.20649 0.00203005 0)
(0.206318 0.00198392 0)
(0.20614 0.00193843 0)
(0.205955 0.00189346 0)
(0.205764 0.00184888 0)
(0.205567 0.00180457 0)
(0.205364 0.0017604 0)
(0.205156 0.00171626 0)
(0.204943 0.00167202 0)
(0.204726 0.00162756 0)
(0.204504 0.00158276 0)
(0.204279 0.0015375 0)
(0.20405 0.00149167 0)
(0.203819 0.00144515 0)
(0.203586 0.00139782 0)
(0.203351 0.00134958 0)
(0.203116 0.00130031 0)
(0.202881 0.00124993 0)
(0.202646 0.00119832 0)
(0.202412 0.00114542 0)
(0.20218 0.00109113 0)
(0.201952 0.00103542 0)
(0.201726 0.000978243 0)
(0.201505 0.000919624 0)
(0.201289 0.00085963 0)
(0.201079 0.00079841 0)
(0.200875 0.000736214 0)
(0.200678 0.000673411 0)
(0.200488 0.000610504 0)
(0.200306 0.000548134 0)
(0.200131 0.000487061 0)
(0.199965 0.000428128 0)
(0.199807 0.000372203 0)
(0.199658 0.000320093 0)
(0.199517 0.000272456 0)
(0.199385 0.000229717 0)
(0.199262 0.000192014 0)
(0.199148 0.000159206 0)
(0.199044 0.000130966 0)
(0.198948 0.000106843 0)
(0.19886 8.63436e-05 0)
(0.19878 6.89735e-05 0)
(0.198708 5.42263e-05 0)
(0.198643 4.16744e-05 0)
(0.198583 3.0972e-05 0)
(0.19853 2.17439e-05 0)
(0.198482 1.36321e-05 0)
(0.198437 6.43436e-06 0)
(0.198397 7.72617e-08 0)
(0.198363 -5.48457e-06 0)
(0.198333 -1.0225e-05 0)
(0.198308 -1.39301e-05 0)
(0.198286 -1.56528e-05 0)
(0.199069 0.0058816 0)
(0.199684 0.00645779 0)
(0.200388 0.00690195 0)
(0.201139 0.00720999 0)
(0.201902 0.00739368 0)
(0.202654 0.00746653 0)
(0.203376 0.00744165 0)
(0.204054 0.00733371 0)
(0.204678 0.00715904 0)
(0.205241 0.00693429 0)
(0.205741 0.00667521 0)
(0.206179 0.00639595 0)
(0.20656 0.00610858 0)
(0.206889 0.00582276 0)
(0.207172 0.00554572 0)
(0.207417 0.00528236 0)
(0.20763 0.00503558 0)
(0.207816 0.0048067 0)
(0.207982 0.00459582 0)
(0.208131 0.00440228 0)
(0.208267 0.00422488 0)
(0.208392 0.00406222 0)
(0.208509 0.0039128 0)
(0.208618 0.00377517 0)
(0.20872 0.00364799 0)
(0.208817 0.00353005 0)
(0.208909 0.00342029 0)
(0.208995 0.00331781 0)
(0.209077 0.00322181 0)
(0.209153 0.00313162 0)
(0.209225 0.00304666 0)
(0.209291 0.0029664 0)
(0.209353 0.00289043 0)
(0.209409 0.00281833 0)
(0.209461 0.00274976 0)
(0.209507 0.00268441 0)
(0.209548 0.00262199 0)
(0.209584 0.00256224 0)
(0.209615 0.00250493 0)
(0.20964 0.00244982 0)
(0.209659 0.00239671 0)
(0.209673 0.00234541 0)
(0.209682 0.00229574 0)
(0.209685 0.00224752 0)
(0.209683 0.00220058 0)
(0.209674 0.00215477 0)
(0.209661 0.00210994 0)
(0.209641 0.00206594 0)
(0.209617 0.00202263 0)
(0.209586 0.00197988 0)
(0.209551 0.00193753 0)
(0.209509 0.00189547 0)
(0.209463 0.00185355 0)
(0.209411 0.00181166 0)
(0.209355 0.00176965 0)
(0.209293 0.00172739 0)
(0.209227 0.00168477 0)
(0.209156 0.00164164 0)
(0.20908 0.00159788 0)
(0.209001 0.00155337 0)
(0.208917 0.00150798 0)
(0.20883 0.00146159 0)
(0.20874 0.00141408 0)
(0.208646 0.00136533 0)
(0.20855 0.00131523 0)
(0.208451 0.0012637 0)
(0.208351 0.00121062 0)
(0.208248 0.00115594 0)
(0.208145 0.0010996 0)
(0.208041 0.00104159 0)
(0.207936 0.000981913 0)
(0.207831 0.000920676 0)
(0.207726 0.000858043 0)
(0.207622 0.000794287 0)
(0.207518 0.000729801 0)
(0.207415 0.000665107 0)
(0.207314 0.000600862 0)
(0.207214 0.000537832 0)
(0.207115 0.000476857 0)
(0.207019 0.000418793 0)
(0.206925 0.000364433 0)
(0.206834 0.000314423 0)
(0.206746 0.000269189 0)
(0.206663 0.000228893 0)
(0.206584 0.000193443 0)
(0.20651 0.00016256 0)
(0.20644 0.000135845 0)
(0.206376 0.000112839 0)
(0.206316 9.30769e-05 0)
(0.206262 7.60974e-05 0)
(0.206212 6.14812e-05 0)
(0.206166 4.88566e-05 0)
(0.206124 3.78761e-05 0)
(0.206086 2.82655e-05 0)
(0.206051 1.97956e-05 0)
(0.20602 1.22288e-05 0)
(0.20599 5.40574e-06 0)
(0.205963 -6.86314e-07 0)
(0.20594 -5.92876e-06 0)
(0.205917 -1.01881e-05 0)
(0.199458 0.00554053 0)
(0.200004 0.00604325 0)
(0.200627 0.00644413 0)
(0.201297 0.00673408 0)
(0.201987 0.00691755 0)
(0.202674 0.00700351 0)
(0.203341 0.00700225 0)
(0.203973 0.00692565 0)
(0.204562 0.00678714 0)
(0.2051 0.00660073 0)
(0.205586 0.00638001 0)
(0.206019 0.00613739 0)
(0.206402 0.00588366 0)
(0.206739 0.0056277 0)
(0.207035 0.00537639 0)
(0.207297 0.00513463 0)
(0.207529 0.00490561 0)
(0.207736 0.00469107 0)
(0.207925 0.00449166 0)
(0.208098 0.00430721 0)
(0.208259 0.00413705 0)
(0.20841 0.00398019 0)
(0.208554 0.00383549 0)
(0.208691 0.00370179 0)
(0.208824 0.00357797 0)
(0.208952 0.003463 0)
(0.209077 0.00335595 0)
(0.209198 0.00325599 0)
(0.209316 0.00316239 0)
(0.209432 0.00307453 0)
(0.209544 0.00299184 0)
(0.209654 0.00291385 0)
(0.209761 0.00284011 0)
(0.209866 0.00277026 0)
(0.209967 0.00270394 0)
(0.210067 0.00264085 0)
(0.210163 0.00258069 0)
(0.210256 0.00252322 0)
(0.210347 0.0024682 0)
(0.210434 0.00241539 0)
(0.210519 0.00236459 0)
(0.2106 0.00231561 0)
(0.210678 0.00226826 0)
(0.210753 0.00222237 0)
(0.210825 0.00217776 0)
(0.210893 0.00213427 0)
(0.210958 0.00209176 0)
(0.211019 0.00205007 0)
(0.211077 0.00200905 0)
(0.211131 0.00196856 0)
(0.211182 0.00192846 0)
(0.211229 0.00188861 0)
(0.211272 0.00184888 0)
(0.211312 0.00180912 0)
(0.211348 0.00176921 0)
(0.21138 0.001729 0)
(0.211408 0.00168836 0)
(0.211433 0.00164716 0)
(0.211454 0.00160526 0)
(0.211471 0.00156254 0)
(0.211485 0.00151885 0)
(0.211495 0.00147408 0)
(0.211501 0.00142809 0)
(0.211504 0.00138077 0)
(0.211504 0.001332 0)
(0.2115 0.00128169 0)
(0.211493 0.00122974 0)
(0.211482 0.00117608 0)
(0.211469 0.00112065 0)
(0.211453 0.00106346 0)
(0.211433 0.00100452 0)
(0.211411 0.000943945 0)
(0.211386 0.000881908 0)
(0.211358 0.00081869 0)
(0.211326 0.000754688 0)
(0.211292 0.00069042 0)
(0.211256 0.000626528 0)
(0.211216 0.000563753 0)
(0.211174 0.000502902 0)
(0.21113 0.000444792 0)
(0.211084 0.000390175 0)
(0.211038 0.000339669 0)
(0.210991 0.000293693 0)
(0.210944 0.000252425 0)
(0.210899 0.000215815 0)
(0.210855 0.000183637 0)
(0.210814 0.000155545 0)
(0.210774 0.000131128 0)
(0.210737 0.000109958 0)
(0.210703 9.16055e-05 0)
(0.210671 7.56714e-05 0)
(0.210642 6.18009e-05 0)
(0.210615 4.96725e-05 0)
(0.21059 3.90133e-05 0)
(0.210567 2.9588e-05 0)
(0.210546 2.11922e-05 0)
(0.210526 1.36635e-05 0)
(0.210508 6.86514e-06 0)
(0.210492 6.94533e-07 0)
(0.210475 -5.30155e-06 0)
(0.199806 0.00522153 0)
(0.200297 0.00566051 0)
(0.200852 0.00601998 0)
(0.201453 0.00628935 0)
(0.202077 0.00646854 0)
(0.202705 0.00656284 0)
(0.203319 0.00657991 0)
(0.203908 0.00652918 0)
(0.204462 0.00642155 0)
(0.204975 0.00626869 0)
(0.205443 0.00608213 0)
(0.205867 0.00587267 0)
(0.206246 0.00564988 0)
(0.206585 0.0054218 0)
(0.206887 0.0051949 0)
(0.207157 0.00497396 0)
(0.207399 0.00476232 0)
(0.207619 0.00456204 0)
(0.20782 0.00437416 0)
(0.208006 0.00419896 0)
(0.20818 0.00403618 0)
(0.208344 0.00388521 0)
(0.208501 0.00374526 0)
(0.208651 0.00361542 0)
(0.208797 0.00349481 0)
(0.208939 0.00338256 0)
(0.209077 0.00327787 0)
(0.209213 0.00318001 0)
(0.209346 0.00308833 0)
(0.209477 0.00300224 0)
(0.209606 0.00292124 0)
(0.209733 0.00284486 0)
(0.209859 0.0027727 0)
(0.209983 0.00270438 0)
(0.210105 0.00263957 0)
(0.210226 0.00257799 0)
(0.210345 0.00251933 0)
(0.210462 0.00246337 0)
(0.210578 0.00240984 0)
(0.210693 0.00235855 0)
(0.210805 0.00230928 0)
(0.210917 0.00226184 0)
(0.211026 0.00221603 0)
(0.211133 0.0021717 0)
(0.211239 0.00212867 0)
(0.211343 0.00208678 0)
(0.211445 0.00204587 0)
(0.211545 0.0020058 0)
(0.211643 0.00196642 0)
(0.211739 0.00192757 0)
(0.211833 0.00188913 0)
(0.211924 0.00185095 0)
(0.212013 0.0018129 0)
(0.2121 0.00177483 0)
(0.212184 0.0017366 0)
(0.212266 0.00169809 0)
(0.212346 0.00165915 0)
(0.212422 0.00161965 0)
(0.212496 0.00157945 0)
(0.212567 0.00153842 0)
(0.212636 0.00149643 0)
(0.212701 0.00145334 0)
(0.212763 0.00140904 0)
(0.212823 0.00136339 0)
(0.212879 0.0013163 0)
(0.212931 0.00126764 0)
(0.212981 0.00121735 0)
(0.213026 0.00116535 0)
(0.213068 0.00111158 0)
(0.213107 0.00105606 0)
(0.213141 0.000998815 0)
(0.213171 0.000939951 0)
(0.213197 0.000879651 0)
(0.213218 0.000818194 0)
(0.213235 0.000755965 0)
(0.213247 0.000693463 0)
(0.213254 0.000631295 0)
(0.213256 0.000570161 0)
(0.213254 0.000510813 0)
(0.213247 0.000454011 0)
(0.213237 0.000400454 0)
(0.213223 0.00035072 0)
(0.213207 0.00030521 0)
(0.213189 0.000264113 0)
(0.21317 0.000227416 0)
(0.21315 0.000194939 0)
(0.213131 0.000166388 0)
(0.213112 0.000141403 0)
(0.213094 0.000119596 0)
(0.213077 0.000100575 0)
(0.213061 8.39678e-05 0)
(0.213046 6.94396e-05 0)
(0.213032 5.6685e-05 0)
(0.213019 4.544e-05 0)
(0.213007 3.54794e-05 0)
(0.212996 2.66084e-05 0)
(0.212986 1.866e-05 0)
(0.212976 1.148e-05 0)
(0.212968 4.84782e-06 0)
(0.212958 -1.91631e-06 0)
(0.200119 0.00492 0)
(0.200564 0.0053039 0)
(0.201063 0.00562488 0)
(0.201604 0.00587266 0)
(0.20217 0.00604466 0)
(0.202744 0.0061434 0)
(0.20331 0.0061743 0)
(0.203858 0.00614463 0)
(0.204379 0.00606314 0)
(0.204866 0.00593939 0)
(0.205316 0.00578311 0)
(0.205727 0.00560355 0)
(0.206101 0.00540912 0)
(0.206439 0.00520705 0)
(0.206743 0.0050033 0)
(0.207018 0.00480249 0)
(0.207268 0.00460796 0)
(0.207496 0.00442198 0)
(0.207706 0.00424588 0)
(0.207901 0.0040803 0)
(0.208084 0.00392532 0)
(0.208257 0.00378067 0)
(0.208422 0.00364584 0)
(0.20858 0.00352021 0)
(0.208733 0.00340307 0)
(0.208883 0.00329373 0)
(0.209028 0.00319153 0)
(0.209171 0.00309583 0)
(0.209311 0.00300606 0)
(0.209449 0.0029217 0)
(0.209586 0.00284227 0)
(0.20972 0.00276736 0)
(0.209853 0.00269658 0)
(0.209985 0.00262957 0)
(0.210116 0.00256603 0)
(0.210245 0.00250566 0)
(0.210373 0.0024482 0)
(0.2105 0.0023934 0)
(0.210626 0.00234103 0)
(0.210751 0.00229088 0)
(0.210875 0.00224274 0)
(0.210998 0.00219643 0)
(0.21112 0.00215176 0)
(0.211241 0.00210857 0)
(0.21136 0.00206668 0)
(0.211479 0.00202595 0)
(0.211596 0.00198621 0)
(0.211712 0.00194732 0)
(0.211827 0.00190913 0)
(0.211941 0.0018715 0)
(0.212053 0.00183429 0)
(0.212164 0.00179736 0)
(0.212274 0.00176057 0)
(0.212382 0.0017238 0)
(0.212488 0.00168689 0)
(0.212593 0.00164973 0)
(0.212696 0.00161216 0)
(0.212797 0.00157407 0)
(0.212896 0.00153531 0)
(0.212993 0.00149575 0)
(0.213088 0.00145527 0)
(0.21318 0.00141373 0)
(0.21327 0.00137101 0)
(0.213358 0.00132701 0)
(0.213442 0.0012816 0)
(0.213524 0.00123468 0)
(0.213602 0.00118619 0)
(0.213677 0.00113605 0)
(0.213749 0.00108422 0)
(0.213816 0.00103071 0)
(0.21388 0.000975565 0)
(0.213939 0.000918887 0)
(0.213993 0.000860861 0)
(0.214042 0.000801756 0)
(0.214086 0.000741939 0)
(0.214125 0.00068188 0)
(0.214158 0.000622146 0)
(0.214185 0.000563382 0)
(0.214206 0.000506279 0)
(0.214223 0.000451531 0)
(0.214234 0.000399778 0)
(0.214242 0.000351553 0)
(0.214245 0.000307232 0)
(0.214246 0.00026701 0)
(0.214245 0.0002309 0)
(0.214242 0.000198766 0)
(0.214238 0.000170362 0)
(0.214233 0.000145374 0)