/*--------------------------------*- C++ -*----------------------------------*\
| =========                 |                                                 |
| \\      /  F ield         | OpenFOAM: The Open Source CFD Toolbox           |
|  \\    /   O peration     | Version:  2.3.0                                 |
|   \\  /    A nd           | Web:      www.OpenFOAM.org                      |
|    \\/     M anipulation  |                                                 |
\*---------------------------------------------------------------------------*/
FoamFile
{
    version     2.0;
    format      ascii;
    class       surfaceScalarField;
    location    "0.45";
    object      phi_0;
}
// * * * * * * * * * * * * * * * * * * * * * * * * * * * * * * * * * * * * * //

dimensions      [0 3 -1 0 0 0 0];

internalField   nonuniform List<scalar> 
3203
(
3.95965e-08
3.60775e-09
-4.32043e-08
3.50088e-08
4.5877e-09
3.04354e-08
4.57342e-09
2.61277e-08
4.30773e-09
2.2116e-08
4.01172e-09
1.85213e-08
3.59465e-09
1.55146e-08
3.00673e-09
1.31743e-08
2.34029e-09
1.14851e-08
1.68924e-09
1.0326e-08
1.15903e-09
9.53921e-09
7.86835e-10
8.99224e-09
5.46977e-10
8.59254e-09
3.99696e-10
8.2768e-09
3.15744e-10
8.00392e-09
2.72876e-10
7.75244e-09
2.51477e-10
7.51326e-09
2.39179e-10
7.28401e-09
2.29251e-10
7.0653e-09
2.18716e-10
6.85841e-09
2.06888e-10
6.66533e-09
1.93075e-10
6.48607e-09
1.79262e-10
6.31862e-09
1.6745e-10
6.16284e-09
1.55784e-10
6.01963e-09
1.43209e-10
5.88764e-09
1.31992e-10
5.76413e-09
1.23506e-10
5.6478e-09
1.16332e-10
5.53975e-09
1.08047e-10
5.44017e-09
9.95843e-11
5.34686e-09
9.3304e-11
5.25878e-09
8.80864e-11
5.17595e-09
8.28285e-11
5.09843e-09
7.75202e-11
5.02658e-09
7.18517e-11
4.96019e-09
6.63869e-11
4.89778e-09
6.24136e-11
4.83928e-09
5.84938e-11
4.78553e-09
5.37539e-11
4.73642e-09
4.91049e-11
4.69115e-09
4.52731e-11
4.64947e-09
4.16811e-11
4.61186e-09
3.76133e-11
4.57845e-09
3.34114e-11
4.54909e-09
2.93552e-11
4.52352e-09
2.55722e-11
4.50155e-09
2.1972e-11
4.48282e-09
1.87259e-11
4.46741e-09
1.54129e-11
4.45542e-09
1.19886e-11
4.44679e-09
8.62512e-12
4.44115e-09
5.64651e-12
4.4385e-09
2.64998e-12
4.43787e-09
6.24834e-13
4.43917e-09
-1.29796e-12
4.44103e-09
-1.8629e-12
4.44356e-09
-2.52328e-12
4.44512e-09
-1.56644e-12
4.44649e-09
-1.36792e-12
3.11382e-13
4.6728e-08
3.26287e-09
-4.63831e-08
4.6436e-08
4.8797e-09
4.54771e-08
5.5323e-09
4.41652e-08
5.61971e-09
4.26192e-08
5.55772e-09
4.08572e-08
5.35666e-09
3.89201e-08
4.94374e-09
3.69184e-08
4.342e-09
3.49668e-08
3.64087e-09
3.31498e-08
2.97597e-09
3.14958e-08
2.44084e-09
2.99967e-08
2.04608e-09
2.86433e-08
1.75317e-09
2.74273e-08
1.53166e-09
2.63328e-08
1.36745e-09
2.53441e-08
1.24017e-09
2.44467e-08
1.13651e-09
2.36282e-08
1.04779e-09
2.28782e-08
9.68768e-10
2.21883e-08
8.9673e-10
2.15527e-08
8.28676e-10
2.09652e-08
7.66774e-10
2.04197e-08
7.12989e-10
1.99127e-08
6.628e-10
1.94421e-08
6.13771e-10
1.90042e-08
5.69845e-10
1.85945e-08
5.33264e-10
1.82101e-08
5.00731e-10
1.78509e-08
4.67272e-10
1.75155e-08
4.34899e-10
1.72009e-08
4.07908e-10
1.69051e-08
3.83925e-10
1.66272e-08
3.60745e-10
1.63668e-08
3.37865e-10
1.6124e-08
3.14722e-10
1.58974e-08
2.92932e-10
1.56851e-08
2.74708e-10
1.54871e-08
2.56528e-10
1.5304e-08
2.36872e-10
1.51353e-08
2.17817e-10
1.49798e-08
2.0074e-10
1.48373e-08
1.84193e-10
1.4708e-08
1.6689e-10
1.45919e-08
1.49491e-10
1.44886e-08
1.32634e-10
1.43978e-08
1.16464e-10
1.43187e-08
1.01037e-10
1.4251e-08
8.64114e-11
1.41944e-08
7.20128e-11
1.41488e-08
5.76038e-11
1.41134e-08
4.40391e-11
1.40874e-08
3.16507e-11
1.40697e-08
2.03596e-11
1.40585e-08
1.1783e-11
1.40526e-08
4.63149e-12
1.40496e-08
1.09867e-12
1.40486e-08
-1.47619e-12
1.40472e-08
-1.63159e-13
1.40457e-08
7.36513e-14
3.82053e-12
4.92884e-08
3.07252e-09
-4.90981e-08
4.97615e-08
4.40663e-09
4.99647e-08
5.32905e-09
4.99602e-08
5.62421e-09
4.98333e-08
5.68465e-09
4.95636e-08
5.62633e-09
4.90936e-08
5.41371e-09
4.84223e-08
5.01337e-09
4.75916e-08
4.47158e-09
4.66668e-08
3.90077e-09
4.57007e-08
3.40687e-09
4.47209e-08
3.02591e-09
4.37382e-08
2.73588e-09
4.27602e-08
2.50962e-09
4.17969e-08
2.33081e-09
4.08536e-08
2.18349e-09
3.99331e-08
2.05701e-09
3.90374e-08
1.94346e-09
3.81681e-08
1.83803e-09
3.73266e-08
1.73821e-09
3.65145e-08
1.64079e-09
3.57323e-08
1.54905e-09
3.49801e-08
1.46515e-09
3.42587e-08
1.38418e-09
3.35688e-08
1.30368e-09
3.29104e-08
1.2282e-09
3.22823e-08
1.16144e-09
3.16828e-08
1.10017e-09
3.11125e-08
1.03756e-09
3.05711e-08
9.76379e-10
3.00568e-08
9.22184e-10
2.95685e-08
8.72208e-10
2.9105e-08
8.24273e-10
2.86661e-08
7.76742e-10
2.82524e-08
7.28391e-10
2.78627e-08
6.82684e-10
2.74945e-08
6.42918e-10
2.7148e-08
6.03041e-10
2.68238e-08
5.61013e-10
2.65216e-08
5.20002e-10
2.62403e-08
4.8211e-10
2.59797e-08
4.44734e-10
2.574e-08
4.06654e-10
2.5521e-08
3.68415e-10
2.53223e-08
3.31365e-10
2.51437e-08
2.95021e-10
2.49843e-08
2.60497e-10
2.48439e-08
2.26754e-10
2.47218e-08
1.94199e-10
2.4618e-08
1.61363e-10
2.45308e-08
1.31209e-10
2.446e-08
1.02458e-10
2.4403e-08
7.73971e-11
2.43586e-08
5.61507e-11
2.43238e-08
3.9472e-11
2.42971e-08
2.78045e-11
2.42752e-08
2.04058e-11
2.42569e-08
1.81125e-11
2.424e-08
1.6953e-11
1.96635e-11
5.1977e-08
3.00813e-09
-5.19126e-08
5.2362e-08
4.02167e-09
5.27606e-08
4.93041e-09
5.30361e-08
5.34873e-09
5.32618e-08
5.45891e-09
5.34546e-08
5.43357e-09
5.35658e-08
5.3025e-09
5.35498e-08
5.02936e-09
5.33944e-08
4.62697e-09
5.31245e-08
4.17072e-09
5.27785e-08
3.75279e-09
5.23842e-08
3.42024e-09
5.19514e-08
3.16869e-09
5.14848e-08
2.97617e-09
5.09925e-08
2.82319e-09
5.04801e-08
2.69582e-09
4.9951e-08
2.58615e-09
4.94072e-08
2.48725e-09
4.88507e-08
2.39456e-09
4.82834e-08
2.30545e-09
4.77083e-08
2.21593e-09
4.71274e-08
2.12994e-09
4.65434e-08
2.04912e-09
4.59588e-08
1.96878e-09
4.53748e-08
1.88769e-09
4.47938e-08
1.80921e-09
4.42189e-08
1.73639e-09
4.3652e-08
1.667e-09
4.30956e-08
1.59404e-09
4.25501e-08
1.52182e-09
4.20158e-08
1.45646e-09
4.1494e-08
1.3941e-09
4.0985e-08
1.33324e-09
4.04908e-08
1.27096e-09
4.00145e-08
1.20468e-09
3.9557e-08
1.14017e-09
3.91166e-08
1.08326e-09
3.8694e-08
1.02565e-09
3.82897e-08
9.65356e-10
3.79044e-08
9.05327e-10
3.75381e-08
8.4837e-10
3.71932e-08
7.89619e-10
3.687e-08
7.2985e-10
3.65693e-08
6.69194e-10
3.62893e-08
6.11302e-10
3.60313e-08
5.53078e-10
3.57936e-08
4.98182e-10
3.55781e-08
4.42227e-10
3.53834e-08
3.88856e-10
3.52115e-08
3.33292e-10
3.5059e-08
2.83707e-10
3.49275e-08
2.33929e-10
3.48126e-08
1.92388e-10
3.47154e-08
1.53312e-10
3.46306e-08
1.24273e-10
3.45601e-08
9.83455e-11
3.44973e-08
8.31943e-11
3.44447e-08
7.06823e-11
3.43955e-08
6.61789e-11
6.1387e-11
5.48268e-08
2.96631e-09
-5.4785e-08
5.50974e-08
3.75102e-09
5.54858e-08
4.54205e-09
5.58134e-08
5.02116e-09
5.60847e-08
5.18761e-09
5.6341e-08
5.17726e-09
5.65709e-08
5.07262e-09
5.67368e-08
4.86337e-09
5.68119e-08
4.55186e-09
5.67987e-08
4.184e-09
5.67243e-08
3.82721e-09
5.66124e-08
3.53209e-09
5.64731e-08
3.30803e-09
5.63094e-08
3.13985e-09
5.61249e-08
3.00772e-09
5.59227e-08
2.89796e-09
5.57046e-08
2.80427e-09
5.54708e-08
2.72108e-09
5.52207e-08
2.6446e-09
5.49544e-08
2.57181e-09
5.46727e-08
2.49755e-09
5.43759e-08
2.42679e-09
5.40647e-08
2.36029e-09
5.37413e-08
2.29223e-09
5.34058e-08
2.22319e-09
5.30582e-08
2.15683e-09
5.27e-08
2.09458e-09
5.23332e-08
2.03373e-09
5.19613e-08
1.96598e-09
5.15865e-08
1.89658e-09
5.12094e-08
1.83359e-09
5.08298e-08
1.77367e-09
5.04461e-08
1.71697e-09
5.00591e-08
1.65798e-09
4.96729e-08
1.59085e-09
4.92926e-08
1.52049e-09
4.89199e-08
1.456e-09
4.85571e-08
1.38842e-09
4.82016e-08
1.32087e-09
4.78512e-08
1.25567e-09
4.75045e-08
1.19512e-09
4.71681e-08
1.126e-09
4.68463e-08
1.05162e-09
4.65435e-08
9.72038e-10
4.62559e-08
8.98877e-10
4.59836e-08
8.25358e-10
4.5723e-08
7.58845e-10
4.54781e-08
6.87144e-10
4.52482e-08
6.18696e-10
4.5039e-08
5.42539e-10
4.48463e-08
4.76397e-10
4.46744e-08
4.05768e-10
4.45166e-08
3.50274e-10
4.43771e-08
2.92786e-10
4.42479e-08
2.53479e-10
4.41351e-08
2.11102e-10
4.40297e-08
1.88575e-10
4.39391e-08
1.61337e-10
4.38524e-08
1.52874e-10
1.3474e-10
5.78047e-08
2.91425e-09
-5.77527e-08
5.80038e-08
3.55198e-09
5.834e-08
4.20587e-09
5.86703e-08
4.69084e-09
5.89479e-08
4.90995e-09
5.91948e-08
4.93035e-09
5.94238e-08
4.84369e-09
5.96142e-08
4.67296e-09
5.97425e-08
4.4235e-09
5.98027e-08
4.1238e-09
5.98111e-08
3.81881e-09
5.97907e-08
3.55252e-09
5.97536e-08
3.3451e-09
5.97043e-08
3.1892e-09
5.96449e-08
3.06715e-09
5.95768e-08
2.966e-09
5.95015e-08
2.87962e-09
5.94195e-08
2.80303e-09
5.93297e-08
2.73442e-09
5.92306e-08
2.67093e-09
5.91229e-08
2.60519e-09
5.90061e-08
2.54359e-09
5.88786e-08
2.48782e-09
5.87412e-08
2.42961e-09
5.85951e-08
2.36932e-09
5.84392e-08
2.31273e-09
5.82722e-08
2.26158e-09
5.80939e-08
2.21207e-09
5.7906e-08
2.15386e-09
5.7712e-08
2.09059e-09
5.75138e-08
2.03176e-09
5.73114e-08
1.97609e-09
5.70999e-08
1.92844e-09
5.68778e-08
1.88009e-09
5.66458e-08
1.8228e-09
5.64084e-08
1.75789e-09
5.61682e-08
1.69626e-09
5.59336e-08
1.62299e-09
5.57049e-08
1.5496e-09
5.54774e-08
1.48313e-09
5.52396e-08
1.4329e-09
5.49938e-08
1.37181e-09
5.47471e-08
1.29839e-09
5.45128e-08
1.20627e-09
5.42914e-08
1.12029e-09
5.40814e-08
1.03537e-09
5.38735e-08
9.66779e-10
5.3669e-08
8.91628e-10
5.34667e-08
8.21002e-10
5.32756e-08
7.33607e-10
5.30933e-08
6.58676e-10
5.29276e-08
5.71517e-10
5.27706e-08
5.07207e-10
5.26288e-08
4.34628e-10
5.24924e-08
3.89839e-10
5.23688e-08
3.34723e-10
5.2249e-08
3.08445e-10
5.21418e-08
2.68486e-10
5.20371e-08
2.57563e-10
2.25648e-10
6.09116e-08
2.85161e-09
-6.08489e-08
6.10727e-08
3.39081e-09
6.13507e-08
3.92787e-09
6.16614e-08
4.38018e-09
6.19393e-08
4.63207e-09
6.21769e-08
4.69272e-09
6.23898e-08
4.63084e-09
6.2572e-08
4.49069e-09
6.27082e-08
4.28736e-09
6.27893e-08
4.04266e-09
6.28228e-08
3.78535e-09
6.2828e-08
3.5473e-09
6.28195e-08
3.35354e-09
6.28034e-08
3.20538e-09
6.27824e-08
3.0881e-09
6.27574e-08
2.99105e-09
6.27288e-08
2.90814e-09
6.26989e-08
2.83295e-09
6.26673e-08
2.76607e-09
6.26318e-08
2.70645e-09
6.25933e-08
2.6436e-09
6.25527e-08
2.58423e-09
6.25072e-08
2.53334e-09
6.2456e-08
2.48077e-09
6.24015e-08
2.42389e-09
6.23439e-08
2.37026e-09
6.22809e-08
2.32461e-09
6.2211e-08
2.282e-09
6.21337e-08
2.23118e-09
6.20516e-08
2.17268e-09
6.19675e-08
2.11586e-09
6.18834e-08
2.06011e-09
6.17937e-08
2.01823e-09
6.16958e-08
1.97799e-09
6.15881e-08
1.93052e-09
6.1473e-08
1.87292e-09
6.1349e-08
1.82032e-09
6.12253e-08
1.7466e-09
6.11082e-08
1.66676e-09
6.09991e-08
1.59221e-09
6.08819e-08
1.55006e-09
6.07479e-08
1.50584e-09
6.05977e-08
1.44856e-09
6.04488e-08
1.35524e-09
6.03104e-08
1.25862e-09
6.01849e-08
1.16093e-09
6.0061e-08
1.09064e-09
5.99341e-08
1.01858e-09
5.97991e-08
9.55948e-10
5.96644e-08
8.68302e-10
5.95292e-08
7.93874e-10
5.94035e-08
6.97215e-10
5.92819e-08
6.28885e-10
5.91706e-08
5.45918e-10
5.90624e-08
4.97994e-10
5.89613e-08
4.35814e-10
5.88615e-08
4.08285e-10
5.87683e-08
3.61719e-10
5.86754e-08
3.50458e-10
3.09167e-10
6.41581e-08
2.78451e-09
-6.4091e-08
6.42992e-08
3.24974e-09
6.45275e-08
3.69956e-09
6.48078e-08
4.09987e-09
6.50768e-08
4.36301e-09
6.53094e-08
4.46017e-09
6.55095e-08
4.4307e-09
6.56799e-08
4.32035e-09
6.58137e-08
4.15352e-09
6.5903e-08
3.95339e-09
6.59489e-08
3.73947e-09
6.59653e-08
3.53086e-09
6.5967e-08
3.35181e-09
6.5961e-08
3.21137e-09
6.59516e-08
3.09751e-09
6.59396e-08
3.00312e-09
6.59244e-08
2.92334e-09
6.59086e-08
2.84873e-09
6.58933e-08
2.78133e-09
6.58765e-08
2.7233e-09
6.58584e-08
2.6617e-09
6.58411e-08
2.6015e-09
6.58227e-08
2.55175e-09
6.58011e-08
2.50234e-09
6.57784e-08
2.44664e-09
6.57566e-08
2.39199e-09
6.57337e-08
2.34755e-09
6.57087e-08
2.30695e-09
6.56799e-08
2.25999e-09
6.56483e-08
2.20435e-09
6.56153e-08
2.1488e-09
6.55853e-08
2.09017e-09
6.55533e-08
2.05017e-09
6.55182e-08
2.01312e-09
6.54775e-08
1.97125e-09
6.54336e-08
1.91681e-09
6.53812e-08
1.87267e-09
6.53252e-08
1.80265e-09
6.5272e-08
1.71996e-09
6.52304e-08
1.63375e-09
6.51904e-08
1.59007e-09
6.5138e-08
1.55826e-09
6.50656e-08
1.52093e-09
6.49843e-08
1.43658e-09
6.49083e-08
1.3346e-09
6.48442e-08
1.22507e-09
6.47857e-08
1.14908e-09
6.47254e-08
1.07893e-09
6.46554e-08
1.02591e-09
6.458e-08
9.43724e-10
6.4498e-08
8.75886e-10
6.44185e-08
7.76752e-10
6.43391e-08
7.08226e-10
6.42649e-08
6.20158e-10
6.4194e-08
5.68916e-10
6.41259e-08
5.03887e-10
6.40597e-08
4.7446e-10
6.39953e-08
4.26105e-10
6.39305e-08
4.15292e-10
3.69421e-10
6.75562e-08
2.71661e-09
-6.74883e-08
6.76832e-08
3.12273e-09
6.78757e-08
3.50708e-09
6.81221e-08
3.85345e-09
6.83741e-08
4.11097e-09
6.86002e-08
4.2341e-09
6.8792e-08
4.23887e-09
6.89524e-08
4.15996e-09
6.90813e-08
4.02467e-09
6.91739e-08
3.86079e-09
6.92285e-08
3.68483e-09
6.9254e-08
3.50536e-09
6.92628e-08
3.34305e-09
6.92624e-08
3.2117e-09
6.92581e-08
3.10181e-09
6.92515e-08
3.00975e-09
6.92415e-08
2.9333e-09
6.92302e-08
2.86008e-09
6.92193e-08
2.79225e-09
6.92076e-08
2.73494e-09
6.91946e-08
2.6747e-09
6.91826e-08
2.61356e-09
6.9171e-08
2.56333e-09
6.91579e-08
2.51543e-09
6.91438e-08
2.46071e-09
6.91316e-08
2.40421e-09
6.91199e-08
2.35926e-09
6.91092e-08
2.31763e-09
6.90973e-08
2.27189e-09
6.9084e-08
2.21769e-09
6.90688e-08
2.16402e-09
6.90561e-08
2.10279e-09
6.90433e-08
2.06301e-09
6.9031e-08
2.02543e-09
6.90167e-08
1.98557e-09
6.90031e-08
1.93035e-09
6.89853e-08
1.89049e-09
6.89633e-08
1.82469e-09
6.89391e-08
1.74412e-09
6.89225e-08
1.65033e-09
6.8913e-08
1.59962e-09
6.89001e-08
1.5711e-09
6.88742e-08
1.54683e-09
6.88359e-08
1.47487e-09
6.8797e-08
1.37358e-09
6.87641e-08
1.25797e-09
6.87381e-08
1.17503e-09
6.87138e-08
1.10321e-09
6.86841e-08
1.05565e-09
6.86494e-08
9.78377e-10
6.86068e-08
9.18483e-10
6.85621e-08
8.21475e-10
6.85148e-08
7.55531e-10
6.84676e-08
6.67398e-10
6.84239e-08
6.12591e-10
6.83806e-08
5.47201e-10
6.83412e-08
5.1387e-10
6.83019e-08
4.65333e-10
6.8263e-08
4.54273e-10
4.0619e-10
7.11156e-08
2.64962e-09
-7.10486e-08
7.12315e-08
3.00682e-09
7.13987e-08
3.33992e-09
7.16128e-08
3.63935e-09
7.18431e-08
3.8807e-09
7.20584e-08
4.01876e-09
7.22436e-08
4.05372e-09
7.23969e-08
4.0066e-09
7.25204e-08
3.90115e-09
7.26134e-08
3.76781e-09
7.26742e-08
3.62401e-09
7.27078e-08
3.47182e-09
7.27232e-08
3.32762e-09
7.2728e-08
3.20688e-09
7.27276e-08
3.1023e-09
7.27244e-08
3.01289e-09
7.27182e-08
2.93957e-09
7.27097e-08
2.86856e-09
7.27005e-08
2.80141e-09
7.26909e-08
2.74452e-09
7.26798e-08
2.6858e-09
7.26687e-08
2.62464e-09
7.26584e-08
2.57363e-09
7.26479e-08
2.52598e-09
7.26362e-08
2.47237e-09
7.2626e-08
2.4145e-09
7.26165e-08
2.36875e-09
7.26094e-08
2.3247e-09
7.26024e-08
2.27889e-09
7.25949e-08
2.22517e-09
7.25851e-08
2.17381e-09
7.25763e-08
2.1116e-09
7.25672e-08
2.07216e-09
7.25608e-08
2.03183e-09
7.25545e-08
1.99183e-09
7.25504e-08
1.93445e-09
7.25457e-08
1.89519e-09
7.2539e-08
1.83139e-09
7.25274e-08
1.75567e-09
7.25164e-08
1.6614e-09
7.25116e-08
1.60438e-09
7.25101e-08
1.57265e-09
7.25056e-08
1.55126e-09
7.24911e-08
1.48936e-09
7.24721e-08
1.39264e-09
7.24517e-08
1.27835e-09
7.24358e-08
1.1909e-09
7.24237e-08
1.11534e-09
7.24111e-08
1.06825e-09
7.2397e-08
9.92413e-10
7.23767e-08
9.38874e-10
7.23523e-08
8.45815e-10
7.23237e-08
7.84146e-10
7.22914e-08
6.99663e-10
7.2262e-08
6.42002e-10
7.22314e-08
5.77778e-10
7.22061e-08
5.39243e-10
7.21812e-08
4.9018e-10
7.21577e-08
4.77822e-10
4.2771e-10
7.48458e-08
2.58449e-09
-7.47807e-08
7.49526e-08
2.90002e-09
7.51007e-08
3.19181e-09
7.52868e-08
3.45327e-09
7.54935e-08
3.67399e-09
7.56943e-08
3.81801e-09
7.58718e-08
3.8762e-09
7.602e-08
3.85839e-09
7.6139e-08
3.78211e-09
7.62307e-08
3.67615e-09
7.62953e-08
3.55938e-09
7.63355e-08
3.43169e-09
7.63572e-08
3.30591e-09
7.63671e-08
3.19694e-09
7.63703e-08
3.09906e-09
7.637e-08
3.0132e-09
7.63669e-08
2.94265e-09
7.63612e-08
2.87427e-09
7.63535e-08
2.80912e-09
7.63454e-08
2.75263e-09
7.63358e-08
2.69546e-09
7.63252e-08
2.63514e-09
7.63153e-08
2.5836e-09
7.63058e-08
2.53549e-09
7.62952e-08
2.48292e-09
7.62856e-08
2.42415e-09
7.62765e-08
2.37777e-09
7.62702e-08
2.33101e-09
7.62643e-08
2.28485e-09
7.62585e-08
2.23092e-09
7.62508e-08
2.18157e-09
7.62425e-08
2.11987e-09
7.62331e-08
2.08157e-09
7.62276e-08
2.03727e-09
7.62236e-08
1.99591e-09
7.62213e-08
1.93674e-09
7.62201e-08
1.89633e-09
7.62195e-08
1.83201e-09
7.6214e-08
1.76122e-09
7.62036e-08
1.67175e-09
7.61963e-08
1.61169e-09
7.61945e-08
1.57451e-09
7.61973e-08
1.54845e-09
7.61941e-08
1.4925e-09
7.61852e-08
1.40154e-09
7.61696e-08
1.29397e-09
7.6155e-08
1.20549e-09
7.61443e-08
1.12605e-09
7.61363e-08
1.07631e-09
7.613e-08
9.98708e-10
7.61195e-08
9.49309e-10
7.61051e-08
8.60211e-10
7.60858e-08
8.03506e-10
7.60609e-08
7.24576e-10
7.60376e-08
6.65269e-10
7.60122e-08
6.03183e-10
7.5992e-08
5.5946e-10
7.59729e-08
5.09211e-10
7.59557e-08
4.95098e-10
4.42371e-10
7.87569e-08
2.52192e-09
-7.86943e-08
7.88555e-08
2.80139e-09
7.89882e-08
3.05908e-09
7.91509e-08
3.29059e-09
7.93344e-08
3.49048e-09
7.95183e-08
3.63413e-09
7.96862e-08
3.70834e-09
7.98293e-08
3.71526e-09
7.99448e-08
3.66663e-09
8.00344e-08
3.58646e-09
8.01009e-08
3.49291e-09
8.0146e-08
3.38666e-09
8.0173e-08
3.27884e-09
8.01878e-08
3.18217e-09
8.01949e-08
3.09201e-09
8.01972e-08
3.01088e-09
8.01968e-08
2.94307e-09
8.01937e-08
2.87736e-09
8.01876e-08
2.81516e-09
8.0181e-08
2.75926e-09
8.01728e-08
2.70371e-09
8.0163e-08
2.6449e-09
8.01535e-08
2.59312e-09
8.01447e-08
2.54423e-09
8.0135e-08
2.49264e-09
8.0126e-08
2.43317e-09
8.01174e-08
2.38632e-09
8.01113e-08
2.3371e-09
8.01054e-08
2.29082e-09
8.01001e-08
2.23623e-09
8.00934e-08
2.18825e-09
8.00853e-08
2.12791e-09
8.00755e-08
2.0914e-09
8.00702e-08
2.04254e-09
8.00669e-08
1.99927e-09
8.00645e-08
1.93916e-09
8.00635e-08
1.89725e-09
8.00647e-08
1.83089e-09
8.00619e-08
1.76396e-09
8.00523e-08
1.68141e-09
8.00431e-08
1.62086e-09
8.00389e-08
1.57867e-09
8.00427e-08
1.54467e-09
8.00436e-08
1.49161e-09
8.00393e-08
1.40581e-09
8.0026e-08
1.30727e-09
8.00114e-08
1.22013e-09
7.99998e-08
1.13767e-09
7.99919e-08
1.0842e-09
7.99874e-08
1.00322e-09
7.99804e-08
9.56296e-10
7.99702e-08
8.70395e-10
7.99551e-08
8.1859e-10
7.99341e-08
7.45564e-10
7.99137e-08
6.85671e-10
7.98907e-08
6.26228e-10
7.98719e-08
5.78263e-10
7.98545e-08
5.26587e-10
7.98385e-08
5.1107e-10
4.55352e-10
8.2859e-08
2.46232e-09
-8.27994e-08
8.29496e-08
2.71074e-09
8.30691e-08
2.93962e-09
8.32123e-08
3.14735e-09
8.33743e-08
3.32853e-09
8.35405e-08
3.46788e-09
8.36968e-08
3.55202e-09
8.38336e-08
3.57852e-09
8.39456e-08
3.55458e-09
8.40334e-08
3.49864e-09
8.41004e-08
3.42597e-09
8.41486e-08
3.33847e-09
8.41799e-08
3.24755e-09
8.41989e-08
3.16317e-09
8.42096e-08
3.08127e-09
8.42146e-08
3.00584e-09
8.42165e-08
2.9412e-09
8.42157e-08
2.87814e-09
8.42115e-08
2.81935e-09
8.42064e-08
2.76435e-09
8.41996e-08
2.71056e-09
8.41908e-08
2.6537e-09
8.41819e-08
2.60202e-09
8.4174e-08
2.55215e-09
8.41652e-08
2.50146e-09
8.41567e-08
2.44161e-09
8.41487e-08
2.39432e-09
8.4143e-08
2.34284e-09
8.41369e-08
2.29693e-09
8.41316e-08
2.24154e-09
8.41256e-08
2.19424e-09
8.41179e-08
2.13553e-09
8.41083e-08
2.10106e-09
8.41033e-08
2.04753e-09
8.41002e-08
2.00236e-09
8.40974e-08
1.94199e-09
8.40959e-08
1.89868e-09
8.4097e-08
1.82983e-09
8.40953e-08
1.76568e-09
8.40868e-08
1.68992e-09
8.40777e-08
1.6299e-09
8.40723e-08
1.58413e-09
8.40749e-08
1.54204e-09
8.40761e-08
1.49045e-09
8.40734e-08
1.4085e-09
8.40616e-08
1.31901e-09
8.40476e-08
1.2341e-09
8.40357e-08
1.14965e-09
8.40272e-08
1.09271e-09
8.40224e-08
1.00801e-09
8.40161e-08
9.62599e-10
8.40075e-08
8.7896e-10
8.39945e-08
8.31563e-10
8.39762e-08
7.63844e-10
8.39579e-08
7.04039e-10
8.39368e-08
6.47343e-10
8.39186e-08
5.96451e-10
8.39016e-08
5.43558e-10
8.38851e-08
5.27524e-10
4.68916e-10
8.71626e-08
2.40583e-09
-8.71061e-08
8.72452e-08
2.6281e-09
8.73524e-08
2.83245e-09
8.74793e-08
3.02044e-09
8.76219e-08
3.18595e-09
8.77707e-08
3.31904e-09
8.79143e-08
3.40847e-09
8.80429e-08
3.44992e-09
8.81507e-08
3.44676e-09
8.82367e-08
3.41263e-09
8.83033e-08
3.35938e-09
8.8353e-08
3.28871e-09
8.83873e-08
3.21327e-09
8.84097e-08
3.14078e-09
8.84236e-08
3.06736e-09
8.84314e-08
2.99804e-09
8.84355e-08
2.93717e-09
8.84365e-08
2.8771e-09
8.84341e-08
2.82173e-09
8.84306e-08
2.76787e-09
8.84252e-08
2.71598e-09
8.84177e-08
2.66114e-09
8.84095e-08
2.6102e-09
8.84023e-08
2.55941e-09
8.83946e-08
2.50914e-09
8.83869e-08
2.44932e-09
8.83793e-08
2.40194e-09
8.8374e-08
2.34813e-09
8.8368e-08
2.30287e-09
8.83627e-08
2.24683e-09
8.83571e-08
2.19985e-09
8.835e-08
2.14265e-09
8.8341e-08
2.11004e-09
8.83364e-08
2.05212e-09
8.83333e-08
2.00547e-09
8.83302e-08
1.9451e-09
8.83284e-08
1.90048e-09
8.83289e-08
1.82937e-09
8.83273e-08
1.7673e-09
8.832e-08
1.69721e-09
8.83122e-08
1.63768e-09
8.83066e-08
1.58977e-09
8.83077e-08
1.54093e-09
8.83076e-08
1.49052e-09
8.8305e-08
1.41109e-09
8.82944e-08
1.32957e-09
8.82817e-08
1.24684e-09
8.82701e-08
1.1613e-09
8.82612e-08
1.10161e-09
8.82556e-08
1.01355e-09
8.82491e-08
9.69145e-10
8.82411e-08
8.86897e-10
8.82295e-08
8.43232e-10
8.82135e-08
7.79804e-10
8.81971e-08
7.20437e-10
8.81781e-08
6.66331e-10
8.81608e-08
6.1381e-10
8.81442e-08
5.60159e-10
8.8127e-08
5.44676e-10
4.83646e-10
9.16781e-08
2.35279e-09
-9.16251e-08
9.17529e-08
2.55332e-09
9.18482e-08
2.73713e-09
9.19609e-08
2.90781e-09
9.20864e-08
3.06037e-09
9.22185e-08
3.18694e-09
9.23488e-08
3.27825e-09
9.24677e-08
3.33095e-09
9.25699e-08
3.3446e-09
9.26536e-08
3.3289e-09
9.27193e-08
3.2937e-09
9.27693e-08
3.23868e-09
9.28055e-08
3.1771e-09
9.28305e-08
3.11584e-09
9.28468e-08
3.05104e-09
9.2857e-08
2.98782e-09
9.28631e-08
2.93106e-09
9.28656e-08
2.87459e-09
9.28649e-08
2.8224e-09
9.28631e-08
2.76974e-09
9.2859e-08
2.7201e-09
9.2853e-08
2.66708e-09
9.28458e-08
2.61747e-09
9.28389e-08
2.56622e-09
9.28325e-08
2.51562e-09
9.28259e-08
2.45591e-09
9.28186e-08
2.40919e-09
9.28135e-08
2.35322e-09
9.28081e-08
2.30834e-09
9.28032e-08
2.25175e-09
9.27977e-08
2.20531e-09
9.27909e-08
2.14941e-09
9.2783e-08
2.11797e-09
9.2779e-08
2.05613e-09
9.27757e-08
2.00879e-09
9.27724e-08
1.94836e-09
9.27705e-08
1.90236e-09
9.27704e-08
1.82953e-09
9.27685e-08
1.76915e-09
9.27624e-08
1.70334e-09
9.27562e-08
1.6439e-09
9.27509e-08
1.59506e-09
9.27507e-08
1.54107e-09
9.27492e-08
1.49204e-09
9.27462e-08
1.4141e-09
9.27365e-08
1.33925e-09
9.27252e-08
1.25821e-09
9.27141e-08
1.17232e-09
9.27051e-08
1.11065e-09
9.26989e-08
1.01979e-09
9.26919e-08
9.76112e-10
9.26843e-08
8.94531e-10
9.26736e-08
8.53882e-10
9.26598e-08
7.93617e-10
9.26454e-08
7.34833e-10
9.26287e-08
6.83016e-10
9.26126e-08
6.29965e-10
9.25966e-08
5.76084e-10
9.25792e-08
5.62147e-10
4.99372e-10
9.79433e-08
2.30274e-09
-9.78933e-08
9.80119e-08
2.48474e-09
9.80975e-08
2.6516e-09
9.81984e-08
2.80692e-09
9.83107e-08
2.94807e-09
9.84287e-08
3.06885e-09
9.85469e-08
3.1601e-09
9.8657e-08
3.2209e-09
9.87533e-08
3.24825e-09
9.88346e-08
3.24755e-09
9.88997e-08
3.22865e-09
9.89497e-08
3.1887e-09
9.89871e-08
3.13964e-09
9.90142e-08
3.08876e-09
9.90324e-08
3.03282e-09
9.90447e-08
2.97553e-09
9.90528e-08
2.92297e-09
9.90568e-08
2.87062e-09
9.90577e-08
2.82145e-09
9.90574e-08
2.77006e-09
9.90545e-08
2.72306e-09
9.90499e-08
2.67167e-09
9.90437e-08
2.6236e-09
9.90375e-08
2.57244e-09
9.90319e-08
2.52125e-09
9.90264e-08
2.46142e-09
9.90197e-08
2.41582e-09
9.90147e-08
2.35829e-09
9.90096e-08
2.31341e-09
9.90054e-08
2.25595e-09
9.9e-08
2.21072e-09
9.89934e-08
2.15606e-09
9.89866e-08
2.12469e-09
9.89833e-08
2.0595e-09
9.89795e-08
2.01258e-09
9.89761e-08
1.95175e-09
9.89744e-08
1.90402e-09
9.89738e-08
1.83013e-09
9.89717e-08
1.7713e-09
9.89666e-08
1.70843e-09
9.89618e-08
1.64868e-09
9.8957e-08
1.59991e-09
9.89559e-08
1.54212e-09
9.89532e-08
1.49472e-09
9.89497e-08
1.4176e-09
9.89406e-08
1.34837e-09
9.89303e-08
1.2685e-09
9.89198e-08
1.18282e-09
9.89107e-08
1.11983e-09
9.89038e-08
1.02665e-09
9.88964e-08
9.83522e-10
9.88889e-08
9.02033e-10
9.8879e-08
8.63786e-10
9.8867e-08
8.05623e-10
9.88544e-08
7.47452e-10
9.88398e-08
6.97573e-10
9.8825e-08
6.44822e-10
9.88098e-08
5.91214e-10
9.87923e-08
5.79655e-10
5.15888e-10
1.10025e-07
2.25273e-09
-1.09975e-07
1.10091e-07
2.41875e-09
1.10172e-07
2.57133e-09
1.10265e-07
2.71339e-09
1.10369e-07
2.84383e-09
1.10479e-07
2.95931e-09
1.10589e-07
3.05018e-09
1.10693e-07
3.1163e-09
1.10787e-07
3.15513e-09
1.10867e-07
3.16723e-09
1.10933e-07
3.16246e-09
1.10984e-07
3.13754e-09
1.11023e-07
3.10062e-09
1.11053e-07
3.05904e-09
1.11073e-07
3.01227e-09
1.11088e-07
2.96096e-09
1.11098e-07
2.91267e-09
1.11104e-07
2.865e-09
1.11107e-07
2.81876e-09
1.11108e-07
2.76893e-09
1.11106e-07
2.72484e-09
1.11103e-07
2.67483e-09
1.11098e-07
2.6286e-09
1.11092e-07
2.57797e-09
1.11087e-07
2.52659e-09
1.11082e-07
2.46649e-09
1.11076e-07
2.42149e-09
1.11071e-07
2.36306e-09
1.11066e-07
2.31842e-09
1.11063e-07
2.25946e-09
1.11058e-07
2.21613e-09
1.11051e-07
2.16288e-09
1.11045e-07
2.13033e-09
1.11042e-07
2.06235e-09
1.11038e-07
2.01712e-09
1.11034e-07
1.95524e-09
1.11033e-07
1.90524e-09
1.11032e-07
1.83101e-09
1.1103e-07
1.77378e-09
1.11025e-07
1.71273e-09
1.11022e-07
1.65229e-09
1.11017e-07
1.60441e-09
1.11016e-07
1.54376e-09
1.11012e-07
1.49826e-09
1.11008e-07
1.42157e-09
1.10999e-07
1.35737e-09
1.10989e-07
1.27817e-09
1.10979e-07
1.19323e-09
1.10969e-07
1.12946e-09
1.10962e-07
1.03432e-09
1.10954e-07
9.91617e-10
1.10946e-07
9.09724e-10
1.10936e-07
8.73388e-10
1.10925e-07
8.16413e-10
1.10914e-07
7.58815e-10
1.10901e-07
7.10563e-10
1.10887e-07
6.58703e-10
1.10873e-07
6.05884e-10
1.10855e-07
5.97434e-10
5.33402e-10
1.23591e-07
2.20493e-09
-1.23543e-07
1.23652e-07
2.35749e-09
1.23726e-07
2.49775e-09
1.2381e-07
2.629e-09
1.23904e-07
2.75011e-09
1.24003e-07
2.8602e-09
1.24102e-07
2.95121e-09
1.24198e-07
3.02031e-09
1.24285e-07
3.06768e-09
1.24362e-07
3.09115e-09
1.24426e-07
3.09756e-09
1.24478e-07
3.08645e-09
1.24516e-07
3.06167e-09
1.24548e-07
3.02787e-09
1.2457e-07
2.99016e-09
1.24585e-07
2.9452e-09
1.24597e-07
2.90075e-09
1.24605e-07
2.85768e-09
1.24609e-07
2.81431e-09
1.24612e-07
2.76638e-09
1.24611e-07
2.72532e-09
1.2461e-07
2.67652e-09
1.24606e-07
2.63231e-09
1.24602e-07
2.58215e-09
1.24597e-07
2.53124e-09
1.24592e-07
2.47143e-09
1.24588e-07
2.42599e-09
1.24584e-07
2.3667e-09
1.24579e-07
2.32306e-09
1.24576e-07
2.26263e-09
1.24571e-07
2.22146e-09
1.24565e-07
2.16915e-09
1.2456e-07
2.13453e-09
1.24558e-07
2.06488e-09
1.24553e-07
2.02231e-09
1.24549e-07
1.95845e-09
1.24549e-07
1.90594e-09
1.24548e-07
1.83215e-09
1.24545e-07
1.77633e-09
1.24542e-07
1.71604e-09
1.24539e-07
1.65475e-09
1.24535e-07
1.60838e-09
1.24534e-07
1.54557e-09
1.2453e-07
1.50215e-09
1.24526e-07
1.42563e-09
1.24517e-07
1.366e-09
1.24508e-07
1.28708e-09
1.24498e-07
1.20331e-09
1.24488e-07
1.13919e-09
1.2448e-07
1.0425e-09
1.24471e-07
1.0002e-09
1.24464e-07
9.17494e-10
1.24454e-07
8.82546e-10
1.24445e-07
8.25911e-10
1.24435e-07
7.68745e-10
1.24424e-07
7.21755e-10
1.24411e-07
6.71109e-10
1.24398e-07
6.19572e-10
1.2438e-07
6.14743e-10
5.5102e-10
1.38822e-07
2.16178e-09
-1.38778e-07
1.38875e-07
2.30371e-09
1.3894e-07
2.43345e-09
1.39013e-07
2.5558e-09
1.39093e-07
2.66973e-09
1.39179e-07
2.77442e-09
1.39265e-07
2.86549e-09
1.39348e-07
2.93656e-09
1.39427e-07
2.98937e-09
1.39495e-07
3.02242e-09
1.39555e-07
3.03766e-09
1.39604e-07
3.03754e-09
1.39642e-07
3.02433e-09
1.39672e-07
2.99739e-09
1.39695e-07
2.96757e-09
1.3971e-07
2.92952e-09
1.39723e-07
2.8886e-09
1.39732e-07
2.84863e-09
1.39738e-07
2.80814e-09
1.39741e-07
2.76272e-09
1.39742e-07
2.72456e-09
1.39741e-07
2.67724e-09
1.39739e-07
2.63451e-09
1.39737e-07
2.58392e-09
1.39734e-07
2.53451e-09
1.3973e-07
2.47614e-09
1.39726e-07
2.42973e-09
1.39724e-07
2.36892e-09
1.3972e-07
2.32612e-09
1.39718e-07
2.26547e-09
1.39712e-07
2.22708e-09
1.39707e-07
2.17377e-09
1.39705e-07
2.13649e-09
1.39703e-07
2.06772e-09
1.39697e-07
2.02821e-09
1.39694e-07
1.96067e-09
1.39695e-07
1.90589e-09
1.39693e-07
1.83356e-09
1.39691e-07
1.77863e-09
1.39689e-07
1.71818e-09
1.39687e-07
1.65618e-09
1.39684e-07
1.61165e-09
1.39682e-07
1.54707e-09
1.39679e-07
1.50586e-09
1.39675e-07
1.42934e-09
1.39667e-07
1.37367e-09
1.3966e-07
1.29483e-09
1.3965e-07
1.21264e-09
1.39641e-07
1.14847e-09
1.39633e-07
1.05061e-09
1.39624e-07
1.00882e-09
1.39617e-07
9.2502e-10
1.39608e-07
8.90978e-10
1.396e-07
8.3404e-10
1.39592e-07
7.77162e-10
1.39583e-07
7.3099e-10
1.39572e-07
6.8162e-10
1.3956e-07
6.31636e-10
1.39544e-07
6.30691e-10
5.67741e-10
1.5592e-07
2.12597e-09
-1.55884e-07
1.55964e-07
2.26016e-09
1.56016e-07
2.38143e-09
1.56074e-07
2.49695e-09
1.56138e-07
2.60585e-09
1.56207e-07
2.70582e-09
1.56276e-07
2.79636e-09
1.56344e-07
2.86896e-09
1.56408e-07
2.92491e-09
1.56466e-07
2.96445e-09
1.56517e-07
2.98709e-09
1.56559e-07
2.99504e-09
1.56593e-07
2.99078e-09
1.5662e-07
2.97054e-09
1.56641e-07
2.94626e-09
1.56656e-07
2.91415e-09
1.56667e-07
2.87795e-09
1.56676e-07
2.83923e-09
1.56683e-07
2.80108e-09
1.56688e-07
2.75849e-09
1.5669e-07
2.72183e-09
1.56691e-07
2.67673e-09
1.5669e-07
2.63524e-09
1.56691e-07
2.58322e-09
1.56688e-07
2.53683e-09
1.56684e-07
2.48011e-09
1.56682e-07
2.43194e-09
1.56682e-07
2.36955e-09
1.56681e-07
2.32641e-09
1.5668e-07
2.26728e-09
1.56673e-07
2.23366e-09
1.5667e-07
2.17651e-09
1.56671e-07
2.13533e-09
1.56668e-07
2.07061e-09
1.56662e-07
2.03433e-09
1.56662e-07
1.96121e-09
1.56663e-07
1.90498e-09
1.56661e-07
1.83524e-09
1.56659e-07
1.7804e-09
1.56659e-07
1.71894e-09
1.56658e-07
1.65673e-09
1.56656e-07
1.61396e-09
1.56655e-07
1.54771e-09
1.56652e-07
1.50869e-09
1.56649e-07
1.43233e-09
1.56643e-07
1.37978e-09
1.56637e-07
1.30092e-09
1.56629e-07
1.22053e-09
1.56621e-07
1.15649e-09
1.56614e-07
1.05776e-09
1.56606e-07
1.01667e-09
1.56599e-07
9.31669e-10
1.56592e-07
8.98065e-10
1.56586e-07
8.40469e-10
1.56579e-07
7.83837e-10
1.56572e-07
7.38083e-10
1.56564e-07
6.89913e-10
1.56554e-07
6.41553e-10
1.56541e-07
6.44003e-10
5.82534e-10
1.75116e-07
2.10102e-09
-1.75091e-07
1.75146e-07
2.23055e-09
1.75181e-07
2.34564e-09
1.75221e-07
2.45693e-09
1.75264e-07
2.56269e-09
1.75311e-07
2.65917e-09
1.75359e-07
2.74885e-09
1.75405e-07
2.82219e-09
1.7545e-07
2.88008e-09
1.75492e-07
2.9228e-09
1.75528e-07
2.95074e-09
1.75559e-07
2.96421e-09
1.75585e-07
2.96458e-09
1.75606e-07
2.95013e-09
1.75622e-07
2.92953e-09
1.75636e-07
2.90077e-09
1.75644e-07
2.86955e-09
1.75653e-07
2.83065e-09
1.7566e-07
2.79397e-09
1.75664e-07
2.75446e-09
1.75668e-07
2.7173e-09
1.75671e-07
2.67465e-09
1.75671e-07
2.63493e-09
1.75673e-07
2.58056e-09