/*--------------------------------*- C++ -*----------------------------------*\
| =========                 |                                                 |
| \\      /  F ield         | OpenFOAM: The Open Source CFD Toolbox           |
|  \\    /   O peration     | Version:  2.3.0                                 |
|   \\  /    A nd           | Web:      www.OpenFOAM.org                      |
|    \\/     M anipulation  |                                                 |
\*---------------------------------------------------------------------------*/
FoamFile
{
    version     2.0;
    format      ascii;
    class       surfaceScalarField;
    location    "0.35";
    object      phi_0;
}
// * * * * * * * * * * * * * * * * * * * * * * * * * * * * * * * * * * * * * //

dimensions      [0 3 -1 0 0 0 0];

internalField   nonuniform List<scalar> 
5644
(
2.86529e-08
2.77179e-09
-3.14247e-08
2.5812e-08
2.84093e-09
2.31216e-08
2.69039e-09
2.06347e-08
2.48688e-09
1.83692e-08
2.2655e-09
1.63365e-08
2.03272e-09
1.45403e-08
1.79626e-09
1.29763e-08
1.56392e-09
1.16339e-08
1.34243e-09
1.04966e-08
1.13728e-09
9.54407e-09
9.5255e-10
8.75331e-09
7.90758e-10
8.10056e-09
6.52756e-10
7.56263e-09
5.37925e-10
7.11815e-09
4.44483e-10
6.74826e-09
3.69887e-10
6.43703e-09
3.11231e-10
6.17146e-09
2.65575e-10
5.94126e-09
2.30194e-10
5.73855e-09
2.02716e-10
5.55736e-09
1.81187e-10
5.3933e-09
1.64058e-10
5.24315e-09
1.50152e-10
5.10455e-09
1.386e-10
4.97577e-09
1.28779e-10
4.85552e-09
1.20248e-10
4.74282e-09
1.12705e-10
4.63688e-09
1.0594e-10
4.53707e-09
9.98089e-11
4.44286e-09
9.42092e-11
4.35379e-09
8.90675e-11
4.26946e-09
8.43278e-11
4.18952e-09
7.99456e-11
4.11364e-09
7.5884e-11
4.04152e-09
7.21111e-11
3.97293e-09
6.85989e-11
3.9076e-09
6.53222e-11
3.84534e-09
6.22585e-11
3.78596e-09
5.93874e-11
3.72927e-09
5.66905e-11
3.67512e-09
5.41512e-11
3.62336e-09
5.17545e-11
3.57387e-09
4.94872e-11
3.52654e-09
4.73369e-11
3.48124e-09
4.5293e-11
3.4379e-09
4.33455e-11
3.39641e-09
4.14855e-11
3.35671e-09
3.97051e-11
3.31871e-09
3.7997e-11
3.28236e-09
3.63545e-11
3.24758e-09
3.47714e-11
3.21434e-09
3.32423e-11
3.18258e-09
3.17619e-11
3.15225e-09
3.03256e-11
3.12333e-09
2.89288e-11
3.09576e-09
2.75675e-11
3.06952e-09
2.62378e-11
3.04458e-09
2.4936e-11
3.02093e-09
2.3659e-11
2.99852e-09
2.24038e-11
2.97735e-09
2.11677e-11
2.95741e-09
1.99485e-11
2.93866e-09
1.87448e-11
2.92111e-09
1.75549e-11
2.90473e-09
1.63774e-11
2.88952e-09
1.52103e-11
2.87547e-09
1.40495e-11
2.86258e-09
1.2888e-11
2.85087e-09
1.17139e-11
2.84036e-09
1.05092e-11
2.83111e-09
9.24947e-12
2.8232e-09
7.90392e-12
2.81676e-09
6.44027e-12
2.81193e-09
4.8293e-12
2.8089e-09
3.03707e-12
2.80782e-09
1.08234e-12
2.80845e-09
-6.39188e-13
2.81038e-09
-1.92876e-12
2.8133e-09
-2.91643e-12
2.81695e-09
-3.64948e-12
2.8211e-09
-4.15072e-12
2.82554e-09
-4.43532e-12
2.83008e-09
-4.54283e-12
2.83459e-09
-4.51164e-12
2.83895e-09
-4.36146e-12
2.84308e-09
-4.13309e-12
2.84694e-09
-3.856e-12
2.85048e-09
-3.54462e-12
2.8537e-09
-3.2149e-12
2.85658e-09
-2.88261e-12
2.85914e-09
-2.55843e-12
2.86139e-09
-2.24663e-12
2.86334e-09
-1.9484e-12
2.865e-09
-1.6633e-12
2.86639e-09
-1.38784e-12
2.8675e-09
-1.11589e-12
2.86834e-09
-8.38492e-13
2.86889e-09
-5.44072e-13
2.86911e-09
-2.21737e-13
7.23688e-13
3.44052e-08
3.04298e-09
-3.46763e-08
3.38407e-08
3.40542e-09
3.30327e-08
3.49839e-09
3.20619e-08
3.45768e-09
3.09858e-08
3.34154e-09
2.985e-08
3.16855e-09
2.86917e-08
2.95456e-09
2.75399e-08
2.7157e-09
2.64163e-08
2.46609e-09
2.53361e-08
2.21747e-09
2.43095e-08
1.97915e-09
2.33423e-08
1.7579e-09
2.24371e-08
1.55797e-09
2.15938e-08
1.38123e-09
2.08106e-08
1.22769e-09
2.00845e-08
1.09596e-09
1.94119e-08
9.83833e-10
1.87888e-08
8.88715e-10
1.8211e-08
8.07965e-10
1.76746e-08
7.39123e-10
1.71758e-08
6.80027e-10
1.6711e-08
6.28861e-10
1.6277e-08
5.84141e-10
1.58709e-08
5.44686e-10
1.54901e-08
5.09568e-10
1.51323e-08
4.78063e-10
1.47954e-08
4.49607e-10
1.44776e-08
4.23756e-10
1.41772e-08
4.00158e-10
1.38929e-08
3.78527e-10
1.36233e-08
3.58629e-10
1.33674e-08
3.40268e-10
1.31241e-08
3.23276e-10
1.28925e-08
3.0751e-10
1.26717e-08
2.92842e-10
1.24612e-08
2.79161e-10
1.22601e-08
2.66371e-10
1.2068e-08
2.54382e-10
1.18843e-08
2.43117e-10
1.17084e-08
2.32507e-10
1.15401e-08
2.2249e-10
1.13788e-08
2.13009e-10
1.12243e-08
2.04015e-10
1.10762e-08
1.95462e-10
1.09342e-08
1.8731e-10
1.0798e-08
1.79522e-10
1.06674e-08
1.72065e-10
1.05422e-08
1.64908e-10
1.04222e-08
1.58022e-10
1.03072e-08
1.51383e-10
1.0197e-08
1.44968e-10
1.00915e-08
1.38753e-10
9.9905e-09
1.32719e-10
9.89398e-09
1.26848e-10
9.80179e-09
1.21121e-10
9.71383e-09
1.15522e-10
9.63003e-09
1.10036e-10
9.55032e-09
1.04648e-10
9.47464e-09
9.93449e-11
9.40292e-09
9.41145e-11
9.33515e-09
8.89454e-11
9.27127e-09
8.38275e-11
9.21126e-09
7.87517e-11
9.15511e-09
7.3709e-11
9.10279e-09
6.86896e-11
9.05432e-09
6.3681e-11
9.00971e-09
5.86659e-11
8.96898e-09
5.36191e-11
8.93218e-09
4.85058e-11
8.89941e-09
4.32808e-11
8.87077e-09
3.78908e-11
8.84639e-09
3.22815e-11
8.82642e-09
2.64107e-11
8.81099e-09
2.0266e-11
8.80016e-09
1.38689e-11
8.794e-09
7.23949e-12
8.79251e-09
8.5062e-13
8.7949e-09
-4.31726e-12
8.80002e-09
-8.04283e-12
8.8071e-09
-1.07216e-11
8.81549e-09
-1.25423e-11
8.82467e-09
-1.36172e-11
8.83421e-09
-1.40889e-11
8.84379e-09
-1.40883e-11
8.85313e-09
-1.36983e-11
8.86204e-09
-1.30409e-11
8.87039e-09
-1.22078e-11
8.8781e-09
-1.12537e-11
8.88511e-09
-1.02314e-11
8.89142e-09
-9.18853e-12
8.89702e-09
-8.15792e-12
8.90193e-09
-7.15543e-12
8.90617e-09
-6.18739e-12
8.90976e-09
-5.25412e-12
8.91272e-09
-4.34757e-12
8.91505e-09
-3.45225e-12
8.91676e-09
-2.54391e-12
8.9178e-09
-1.58158e-12
8.91805e-09
-4.77018e-13
1.5491e-12
3.65079e-08
2.89544e-09
-3.63604e-08
3.65923e-08
3.32105e-09
3.65527e-08
3.53803e-09
3.63885e-08
3.62189e-09
3.61111e-08
3.61886e-09
3.57345e-08
3.5452e-09
3.52752e-08
3.41384e-09
3.47509e-08
3.24003e-09
3.41782e-08
3.03877e-09
3.35722e-08
2.82342e-09
3.2946e-08
2.60534e-09
3.23104e-08
2.39355e-09
3.16739e-08
2.1945e-09
3.1043e-08
2.01213e-09
3.04224e-08
1.84823e-09
2.98155e-08
1.70289e-09
2.92243e-08
1.57506e-09
2.865e-08
1.463e-09
2.80932e-08
1.36469e-09
2.75543e-08
1.27809e-09
2.7033e-08
1.20132e-09
2.65291e-08
1.13273e-09
2.60423e-08
1.07095e-09
2.55721e-08
1.01487e-09
2.51181e-08
9.63578e-10
2.46798e-08
9.16382e-10
2.42567e-08
8.7272e-10
2.38483e-08
8.32152e-10
2.34541e-08
7.94323e-10
2.30737e-08
7.58942e-10
2.27066e-08
7.25769e-10
2.23522e-08
6.94598e-10
2.20103e-08
6.65253e-10
2.16802e-08
6.37575e-10
2.13616e-08
6.11426e-10
2.10541e-08
5.8668e-10
2.07572e-08
5.63222e-10
2.04707e-08
5.40948e-10
2.0194e-08
5.19762e-10
1.9927e-08
4.99578e-10
1.96691e-08
4.80315e-10
1.94202e-08
4.61899e-10
1.918e-08
4.44262e-10
1.89481e-08
4.27339e-10
1.87244e-08
4.11073e-10
1.85085e-08
3.95409e-10
1.83002e-08
3.80296e-10
1.80995e-08
3.65687e-10
1.79059e-08
3.51537e-10
1.77195e-08
3.37804e-10
1.754e-08
3.2445e-10
1.73674e-08
3.11436e-10
1.72013e-08
2.98729e-10
1.70419e-08
2.86294e-10
1.68889e-08
2.74101e-10
1.67423e-08
2.62117e-10
1.6602e-08
2.50316e-10
1.6468e-08
2.3867e-10
1.63402e-08
2.27153e-10
1.62186e-08
2.15741e-10
1.61031e-08
2.04411e-10
1.59938e-08
1.93142e-10
1.58906e-08
1.81914e-10
1.57937e-08
1.70706e-10
1.57028e-08
1.59496e-10
1.56183e-08
1.48259e-10
1.554e-08
1.3696e-10
1.5468e-08
1.25558e-10
1.54025e-08
1.13999e-10
1.53436e-08
1.02226e-10
1.52913e-08
9.01786e-11
1.52458e-08
7.78167e-11
1.5207e-08
6.51428e-11
1.51751e-08
5.2241e-11
1.51496e-08
3.93209e-11
1.51301e-08
2.67216e-11
1.51163e-08
1.468e-11
1.51086e-08
3.33976e-12
1.51067e-08
-6.13907e-12
1.5109e-08
-1.30107e-11
1.51144e-08
-1.78666e-11
1.51218e-08
-2.1054e-11
1.51306e-08
-2.29077e-11
1.51402e-08
-2.37099e-11
1.51502e-08
-2.36467e-11
1.51601e-08
-2.29606e-11
1.51697e-08
-2.18359e-11
1.51789e-08
-2.03932e-11
1.51874e-08
-1.87438e-11
1.51952e-08
-1.69856e-11
1.52022e-08
-1.51901e-11
1.52085e-08
-1.33976e-11
1.52139e-08
-1.16299e-11
1.52185e-08
-9.89643e-12
1.52224e-08
-8.19115e-12
1.52254e-08
-6.49446e-12
1.52276e-08
-4.76951e-12
1.5229e-08
-2.93997e-12
1.52294e-08
-8.45226e-13
2.35136e-12
3.80875e-08
2.70621e-09
-3.78983e-08
3.82966e-08
3.11194e-09
3.84716e-08
3.36301e-09
3.85928e-08
3.50071e-09
3.86533e-08
3.55839e-09
3.8649e-08
3.54949e-09
3.85796e-08
3.48322e-09
3.84485e-08
3.37117e-09
3.82614e-08
3.2259e-09
3.80254e-08
3.05939e-09
3.77484e-08
2.8823e-09
3.74383e-08
2.70367e-09
3.71024e-08
2.53044e-09
3.67471e-08
2.36742e-09
3.63779e-08
2.21743e-09
3.59992e-08
2.08158e-09
3.56145e-08
1.95978e-09
3.52264e-08
1.85111e-09
3.48369e-08
1.75421e-09
3.44474e-08
1.66754e-09
3.40592e-08
1.58959e-09
3.36729e-08
1.51898e-09
3.32894e-08
1.45451e-09
3.2909e-08
1.39518e-09
3.25324e-08
1.34019e-09
3.21599e-08
1.2889e-09
3.17918e-08
1.24078e-09
3.14286e-08
1.19544e-09
3.10703e-08
1.15256e-09
3.07174e-08
1.11187e-09
3.037e-08
1.07317e-09
3.00283e-08
1.03627e-09
2.96925e-08
1.00103e-09
2.93628e-08
9.67314e-10
2.90392e-08
9.35001e-10
2.87219e-08
9.03988e-10
2.8411e-08
8.7418e-10
2.81064e-08
8.45489e-10
2.78083e-08
8.17834e-10
2.75168e-08
7.91141e-10
2.72318e-08
7.65339e-10
2.69533e-08
7.40364e-10
2.66814e-08
7.16154e-10
2.64161e-08
6.92652e-10
2.61574e-08
6.69802e-10
2.59052e-08
6.47553e-10
2.56596e-08
6.25855e-10
2.54207e-08
6.04661e-10
2.51883e-08
5.83926e-10
2.49625e-08
5.63605e-10
2.47433e-08
5.43657e-10
2.45307e-08
5.2404e-10
2.43247e-08
5.04715e-10
2.41253e-08
4.85643e-10
2.39327e-08
4.66786e-10
2.37467e-08
4.48107e-10
2.35674e-08
4.29572e-10
2.33949e-08
4.11144e-10
2.32293e-08
3.92792e-10
2.30706e-08
3.74483e-10
2.29188e-08
3.56186e-10
2.27741e-08
3.37871e-10
2.26365e-08
3.1951e-10
2.25061e-08
3.01073e-10
2.23831e-08
2.82526e-10
2.22675e-08
2.63833e-10
2.21595e-08
2.4495e-10
2.20592e-08
2.25826e-10
2.19668e-08
2.06406e-10
2.18824e-08
1.86634e-10
2.18061e-08
1.66476e-10
2.1738e-08
1.45938e-10
2.1678e-08
1.25102e-10
2.16261e-08
1.04173e-10
2.15819e-08
8.3513e-11
2.1545e-08
6.36419e-11
2.15145e-08
4.51517e-11
2.14894e-08
2.84793e-11
2.14698e-08
1.34672e-11
2.14566e-08
1.79365e-13
2.14491e-08
-1.03823e-11
2.14459e-08
-1.78792e-11
2.1446e-08
-2.30151e-11
2.14486e-08
-2.62544e-11
2.14528e-08
-2.79075e-11
2.14582e-08
-2.83703e-11
2.14643e-08
-2.79403e-11
2.14708e-08
-2.68235e-11
2.14772e-08
-2.52107e-11
2.14835e-08
-2.32689e-11
2.14895e-08
-2.11262e-11
2.14949e-08
-1.88639e-11
2.14998e-08
-1.65342e-11
2.15041e-08
-1.41695e-11
2.15077e-08
-1.17788e-11
2.15106e-08
-9.3505e-12
2.15126e-08
-6.8477e-12
2.15139e-08
-4.1686e-12
2.15141e-08
-1.10438e-12
3.3975e-12
3.96266e-08
2.53743e-09
-3.94578e-08
3.98348e-08
2.90371e-09
4.00436e-08
3.1542e-09
4.02345e-08
3.30977e-09
4.03991e-08
3.39384e-09
4.05302e-08
3.41831e-09
4.06227e-08
3.39078e-09
4.06736e-08
3.32022e-09
4.06828e-08
3.21678e-09
4.06517e-08
3.09048e-09
4.05834e-08
2.95054e-09
4.04821e-08
2.80501e-09
4.03521e-08
2.6604e-09
4.0198e-08
2.52151e-09
4.0024e-08
2.39147e-09
3.98336e-08
2.27194e-09
3.963e-08
2.1634e-09
3.94156e-08
2.06552e-09
3.91923e-08
1.97747e-09
3.89617e-08
1.89812e-09
3.8725e-08
1.82631e-09
3.84831e-08
1.7609e-09
3.82367e-08
1.70088e-09
3.79865e-08
1.64537e-09
3.77331e-08
1.59364e-09
3.74769e-08
1.5451e-09
3.72184e-08
1.49928e-09
3.6958e-08
1.45579e-09
3.66962e-08
1.41434e-09
3.64334e-08
1.37469e-09
3.617e-08
1.33664e-09
3.59062e-08
1.30003e-09
3.56425e-08
1.26471e-09
3.53793e-08
1.23059e-09
3.51167e-08
1.19754e-09
3.48552e-08
1.16549e-09
3.4595e-08
1.13436e-09
3.43365e-08
1.10406e-09
3.40798e-08
1.07453e-09
3.38252e-08
1.04571e-09
3.3573e-08
1.01755e-09
3.33234e-08
9.89977e-10
3.30766e-08
9.62954e-10
3.28328e-08
9.36428e-10
3.25922e-08
9.10352e-10
3.23551e-08
8.84682e-10
3.21216e-08
8.59375e-10
3.18919e-08
8.34387e-10
3.16661e-08
8.09679e-10
3.14445e-08
7.8521e-10
3.12272e-08
7.60939e-10
3.10144e-08
7.36828e-10
3.08063e-08
7.12838e-10
3.0603e-08
6.8893e-10
3.04048e-08
6.65065e-10
3.02117e-08
6.41206e-10
3.00239e-08
6.17315e-10
2.98417e-08
5.93355e-10
2.96652e-08
5.69289e-10
2.94946e-08
5.45082e-10
2.93301e-08
5.20698e-10
2.91719e-08
4.96105e-10
2.90201e-08
4.71267e-10
2.8875e-08
4.4615e-10
2.87368e-08
4.20714e-10
2.86057e-08
3.94919e-10
2.8482e-08
3.68718e-10
2.83657e-08
3.42061e-10
2.82572e-08
3.14902e-10
2.81567e-08
2.8721e-10
2.80642e-08
2.58991e-10
2.79798e-08
2.30313e-10
2.79035e-08
2.01351e-10
2.78353e-08
1.72421e-10
2.77748e-08
1.44006e-10
2.77217e-08
1.16737e-10
2.76755e-08
9.13011e-11
2.76358e-08
6.82519e-11
2.76014e-08
4.78862e-11
2.75712e-08
3.0305e-11
2.75456e-08
1.52573e-11
2.75253e-08
2.40527e-12
2.75102e-08
-7.85885e-12
2.74991e-08
-1.52352e-11
2.74914e-08
-2.02146e-11
2.74864e-08
-2.33455e-11
2.74835e-08
-2.50076e-11
2.74821e-08
-2.54793e-11
2.7482e-08
-2.5031e-11
2.74826e-08
-2.39022e-11
2.74837e-08
-2.2284e-11
2.74852e-08
-2.03055e-11
2.74867e-08
-1.80593e-11
2.74882e-08
-1.56118e-11
2.74894e-08
-1.29983e-11
2.74903e-08
-1.02297e-11
2.74907e-08
-7.28913e-12
2.74906e-08
-4.08598e-12
2.74899e-08
-3.59499e-13
5.32689e-12
4.12016e-08
2.39239e-09
-4.10566e-08
4.13879e-08
2.71743e-09
4.15865e-08
2.95562e-09
4.17813e-08
3.11494e-09
4.19645e-08
3.21067e-09
4.213e-08
3.25284e-09
4.22725e-08
3.24827e-09
4.23884e-08
3.20434e-09
4.24757e-08
3.12948e-09
4.2534e-08
3.03215e-09
4.25643e-08
2.92029e-09
4.25683e-08
2.80093e-09
4.25488e-08
2.67993e-09
4.25085e-08
2.56179e-09
4.24504e-08
2.44963e-09
4.2377e-08
2.34531e-09
4.22907e-08
2.24967e-09
4.21935e-08
2.16276e-09
4.20869e-08
2.08412e-09
4.1972e-08
2.01299e-09
4.18498e-08
1.94845e-09
4.17211e-08
1.88961e-09
4.15864e-08
1.83559e-09
4.14462e-08
1.78562e-09
4.13008e-08
1.73907e-09
4.11505e-08
1.69537e-09
4.09957e-08
1.65408e-09
4.08366e-08
1.61483e-09
4.06736e-08
1.57734e-09
4.0507e-08
1.54137e-09
4.03369e-08
1.50672e-09
4.01637e-08
1.47322e-09
3.99877e-08
1.44075e-09
3.98091e-08
1.40919e-09
3.96282e-08
1.37844e-09
3.94452e-08
1.34841e-09
3.92606e-08
1.31903e-09
3.90744e-08
1.29021e-09
3.8887e-08
1.26191e-09
3.86987e-08
1.23406e-09
3.85096e-08
1.2066e-09
3.83201e-08
1.17949e-09
3.81304e-08
1.15267e-09
3.79407e-08
1.1261e-09
3.77514e-08
1.09974e-09
3.75625e-08
1.07353e-09
3.73744e-08
1.04745e-09
3.71874e-08
1.02145e-09
3.70016e-08
9.95486e-10
3.68173e-08
9.69522e-10
3.66347e-08
9.43518e-10
3.64541e-08
9.17433e-10
3.62757e-08
8.91228e-10
3.60997e-08
8.64862e-10
3.59265e-08
8.38297e-10
3.57562e-08
8.11491e-10
3.55891e-08
7.84406e-10
3.54255e-08
7.57e-10
3.52655e-08
7.29235e-10
3.51096e-08
7.01073e-10
3.49578e-08
6.72474e-10
3.48105e-08
6.43402e-10
3.46679e-08
6.13818e-10
3.45304e-08
5.83684e-10
3.43982e-08
5.52959e-10
3.42715e-08
5.216e-10
3.41506e-08
4.89565e-10
3.40359e-08
4.56813e-10
3.39275e-08
4.23317e-10
3.38256e-08
3.89075e-10
3.37304e-08
3.54139e-10
3.36421e-08
3.18643e-10
3.35606e-08
2.82844e-10
3.34859e-08
2.47145e-10
3.34178e-08
2.12114e-10
3.33561e-08
1.78444e-10
3.33005e-08
1.46858e-10
3.32508e-08
1.17967e-10
3.32065e-08
9.21606e-11
3.31672e-08
6.9608e-11
3.31322e-08
5.02684e-11
3.31006e-08
3.40262e-11
3.30721e-08
2.0627e-11
3.30472e-08
9.65962e-12
3.30262e-08
8.07303e-13
3.30088e-08
-5.92911e-12
3.29944e-08
-1.06143e-11
3.29825e-08
-1.36184e-11
3.29728e-08
-1.52878e-11
3.29648e-08
-1.59111e-11
3.29582e-08
-1.57172e-11
3.29528e-08
-1.48661e-11
3.29482e-08
-1.34832e-11
3.29443e-08
-1.16682e-11
3.29408e-08
-9.48714e-12
3.29375e-08
-6.98199e-12
3.29344e-08
-4.17132e-12
3.29314e-08
-1.05905e-12
3.29282e-08
2.84253e-12
9.14774e-12
4.28253e-08
2.26602e-09
-4.26989e-08
4.29898e-08
2.55293e-09
4.31707e-08
2.77472e-09
4.33538e-08
2.93183e-09
4.35314e-08
3.03309e-09
4.3698e-08
3.08622e-09
4.38491e-08
3.09714e-09
4.39814e-08
3.07207e-09
4.40928e-08
3.01806e-09
4.41826e-08
2.94237e-09
4.4251e-08
2.85188e-09
4.42992e-08
2.75278e-09
4.43288e-08
2.65033e-09
4.43419e-08
2.54868e-09
4.43407e-08
2.45085e-09
4.43272e-08
2.35881e-09
4.43032e-08
2.2736e-09
4.42704e-08
2.19557e-09
4.423e-08
2.12454e-09
4.41829e-08
2.06003e-09
4.413e-08
2.00139e-09
4.40717e-08
1.94788e-09
4.40085e-08
1.8988e-09
4.39407e-08
1.85348e-09
4.38684e-08
1.81135e-09
4.37918e-08
1.77191e-09
4.37112e-08
1.73473e-09
4.36265e-08
1.69946e-09
4.35381e-08
1.66582e-09
4.34459e-08
1.63357e-09
4.33501e-08
1.60252e-09
4.32508e-08
1.57249e-09
4.31482e-08
1.54334e-09
4.30424e-08
1.51497e-09
4.29336e-08
1.48725e-09
4.28219e-08
1.4601e-09
4.27075e-08
1.43343e-09
4.25906e-08
1.40718e-09
4.24712e-08
1.38127e-09
4.23496e-08
1.35564e-09
4.2226e-08
1.33023e-09
4.21005e-08
1.30498e-09
4.19733e-08
1.27985e-09
4.18446e-08
1.25478e-09
4.17146e-08
1.22973e-09
4.15835e-08
1.20465e-09
4.14515e-08
1.17949e-09
4.13187e-08
1.15421e-09
4.11854e-08
1.12876e-09
4.10519e-08
1.10311e-09
4.09182e-08
1.07721e-09
4.07846e-08
1.051e-09
4.06514e-08
1.02446e-09
4.05187e-08
9.97527e-10
4.03868e-08
9.70166e-10
4.0256e-08
9.4233e-10
4.01264e-08
9.13974e-10
3.99984e-08
8.85053e-10
3.98721e-08
8.55524e-10
3.97478e-08
8.25342e-10
3.96258e-08
7.94466e-10
3.95064e-08
7.62852e-10
3.93897e-08
7.30459e-10
3.92762e-08
6.97246e-10
3.9166e-08
6.6317e-10
3.90594e-08
6.2819e-10
3.89567e-08
5.92269e-10
3.88581e-08
5.55378e-10
3.87639e-08
5.1751e-10
3.86743e-08
4.78696e-10
3.85894e-08
4.3903e-10
3.85093e-08
3.987e-10
3.84342e-08
3.58021e-10
3.83639e-08
3.17457e-10
3.82984e-08
2.7762e-10
3.82376e-08
2.3923e-10
3.81814e-08
2.03019e-10
3.81298e-08
1.69611e-10
3.80825e-08
1.39435e-10
3.80394e-08
1.12713e-10
3.80002e-08
8.94792e-11
3.79645e-08
6.96472e-11
3.79322e-08
5.29813e-11
3.79027e-08
3.91791e-11
3.78755e-08
2.79621e-11
3.78506e-08
1.90011e-11
3.7828e-08
1.19903e-11
3.78077e-08
6.64692e-12
3.77897e-08
2.68523e-12
3.77739e-08
-7.57918e-14
3.77599e-08
-1.7472e-12
3.77475e-08
-2.47253e-12
3.77365e-08
-2.41549e-12
3.77265e-08
-1.70786e-12
3.77175e-08
-4.77126e-13
3.77093e-08
1.20008e-12
3.77018e-08
3.33856e-12
3.76947e-08
6.06457e-12
3.76877e-08
9.80792e-12
1.57251e-11
4.45004e-08
2.15377e-09
-4.43881e-08
4.46463e-08
2.407e-09
4.48098e-08
2.61118e-09
4.49787e-08
2.76294e-09
4.51454e-08
2.86645e-09
4.53045e-08
2.92706e-09
4.5452e-08
2.94964e-09
4.55847e-08
2.93935e-09
4.57007e-08
2.90207e-09
4.57991e-08
2.84396e-09
4.588e-08
2.77099e-09
4.59442e-08
2.68861e-09
4.5993e-08
2.60151e-09
4.60281e-08
2.51354e-09
4.60514e-08
2.42759e-09
4.60646e-08
2.34565e-09
4.60692e-08
2.26893e-09
4.60668e-08
2.19797e-09
4.60585e-08
2.13287e-09
4.60452e-08
2.07338e-09
4.60275e-08
2.01907e-09
4.6006e-08
1.96938e-09
4.5981e-08
1.92375e-09
4.59529e-08
1.88163e-09
4.59217e-08
1.84253e-09
4.58876e-08
1.806e-09
4.58507e-08
1.77165e-09
4.5811e-08
1.73917e-09
4.57686e-08
1.70826e-09
4.57234e-08
1.67871e-09
4.56756e-08
1.65031e-09
4.56252e-08
1.6229e-09
4.55722e-08
1.59634e-09
4.55167e-08
1.5705e-09
4.54587e-08
1.54527e-09
4.53982e-08
1.52055e-09
4.53354e-08
1.49625e-09
4.52703e-08
1.47231e-09
4.52029e-08
1.44863e-09
4.51334e-08
1.42516e-09
4.50618e-08
1.40182e-09
4.49882e-08
1.37856e-09
4.49127e-08
1.35533e-09
4.48355e-08
1.33206e-09
4.47565e-08
1.3087e-09
4.46759e-08
1.2852e-09
4.45939e-08
1.2615e-09
4.45106e-08
1.23756e-09
4.4426e-08
1.21333e-09
4.43404e-08
1.18876e-09
4.42538e-08
1.16379e-09
4.41664e-08
1.13837e-09
4.40784e-08
1.11246e-09
4.39899e-08
1.086e-09
4.39011e-08
1.05895e-09
4.38122e-08
1.03124e-09
4.37234e-08
1.00284e-09
4.36347e-08
9.73684e-10
4.35465e-08
9.43728e-10
4.34589e-08
9.12922e-10
4.33722e-08
8.81216e-10
4.32865e-08
8.48565e-10
4.3202e-08
8.14921e-10
4.3119e-08
7.8024e-10
4.30377e-08
7.44479e-10
4.29583e-08
7.07599e-10
4.2881e-08
6.6957e-10
4.2806e-08
6.30375e-10
4.27335e-08
5.90025e-10
4.26636e-08
5.48578e-10
4.25965e-08
5.06162e-10
4.25322e-08
4.63e-10
4.24708e-08
4.19446e-10
4.24122e-08
3.75989e-10
4.23566e-08
3.33256e-10
4.23039e-08
2.9196e-10
4.22541e-08
2.52819e-10
4.22072e-08
2.16452e-10
4.21634e-08
1.83304e-10
4.21224e-08
1.53627e-10
4.20844e-08
1.27497e-10
4.20492e-08
1.04861e-10
4.20167e-08
8.55319e-11
4.19866e-08
6.9249e-11
4.19588e-08
5.57395e-11
4.19331e-08
4.46755e-11
4.19094e-08
3.57322e-11
4.18874e-08
2.86245e-11
4.1867e-08
2.3094e-11
4.1848e-08
1.89141e-11
4.18304e-08
1.58859e-11
4.18141e-08
1.38547e-11
4.17989e-08
1.26912e-11
4.1785e-08
1.22876e-11
4.17719e-08
1.25656e-11
4.17596e-08
1.3473e-11
4.1748e-08
1.49952e-11
4.17368e-08
1.72204e-11
4.17262e-08
2.04303e-11
2.50721e-11
4.62287e-08
2.05239e-09
-4.61273e-08
4.63592e-08
2.27648e-09
4.65071e-08
2.46327e-09
4.66622e-08
2.60787e-09
4.68172e-08
2.7114e-09
4.69672e-08
2.77714e-09
4.7108e-08
2.80883e-09
4.72367e-08
2.81068e-09
4.73512e-08
2.78749e-09
4.74507e-08
2.74445e-09
4.75351e-08
2.68667e-09
4.76048e-08
2.61889e-09
4.7661e-08
2.54534e-09
4.7705e-08
2.46949e-09
4.77385e-08
2.39409e-09
4.77631e-08
2.32111e-09
4.77801e-08
2.25187e-09
4.7791e-08
2.18708e-09
4.77968e-08
2.12703e-09
4.77985e-08
2.07169e-09
4.77968e-08
2.0208e-09
4.77922e-08
1.97399e-09
4.77851e-08
1.93085e-09
4.77758e-08
1.89094e-09
4.77645e-08
1.85383e-09
4.77513e-08
1.81915e-09
4.77364e-08
1.78657e-09
4.77198e-08
1.75578e-09
4.77015e-08
1.72654e-09
4.76816e-08
1.69863e-09
4.76601e-08
1.67185e-09
4.76369e-08
1.64606e-09
4.76122e-08
1.6211e-09
4.75858e-08
1.59685e-09
4.75579e-08
1.5732e-09
4.75284e-08
1.55006e-09
4.74973e-08
1.52734e-09
4.74646e-08
1.50494e-09
4.74305e-08
1.4828e-09
4.73948e-08
1.46085e-09
4.73576e-08
1.43901e-09
4.73189e-08
1.41722e-09
4.72788e-08
1.39543e-09
4.72373e-08
1.37356e-09
4.71945e-08
1.35157e-09
4.71503e-08
1.32939e-09
4.71048e-08
1.30697e-09
4.70581e-08
1.28425e-09
4.70103e-08
1.26118e-09
4.69613e-08
1.2377e-09
4.69114e-08
1.21375e-09
4.68604e-08
1.18928e-09
4.68087e-08
1.16424e-09
4.67561e-08
1.13856e-09
4.67029e-08
1.11218e-09
4.66491e-08
1.08506e-09
4.65948e-08
1.05714e-09
4.65401e-08
1.02835e-09
4.64852e-08
9.98637e-10
4.64302e-08
9.67956e-10
4.63751e-08
9.36248e-10
4.63202e-08
9.03461e-10
4.62656e-08
8.69547e-10
4.62114e-08
8.34457e-10
4.61577e-08
7.98151e-10
4.61047e-08
7.6059e-10
4.60525e-08
7.21752e-10
4.60013e-08
6.81631e-10
4.59511e-08
6.40254e-10
4.59019e-08
5.97699e-10
4.5854e-08
5.54115e-10
4.58072e-08
5.09748e-10
4.57617e-08
4.64964e-10
4.57174e-08
4.20257e-10
4.56745e-08
3.76238e-10
4.56328e-08
3.33593e-10
4.55926e-08
2.93005e-10
4.5554e-08
2.55073e-10
4.55171e-08
2.20242e-10
4.54819e-08
1.88783e-10
4.54486e-08
1.60804e-10
4.54172e-08
1.36281e-10
4.53877e-08
1.1507e-10
4.536e-08
9.69488e-11
4.5334e-08
8.16655e-11
4.53098e-08
6.8922e-11
4.52871e-08
5.84133e-11
4.52659e-08
4.98636e-11
4.52459e-08
4.30202e-11
4.52272e-08
3.7653e-11
4.52095e-08
3.35562e-11
4.51928e-08
3.05634e-11
4.5177e-08
2.85398e-11
4.51619e-08
2.73766e-11
4.51475e-08
2.69952e-11
4.51336e-08
2.73445e-11
4.51202e-08
2.84054e-11
4.51072e-08
3.02208e-11
4.50947e-08
3.28926e-11
3.61916e-11
4.80123e-08
1.95961e-09
-4.79195e-08
4.813e-08
2.15873e-09
4.82642e-08
2.32912e-09
4.84064e-08
2.46563e-09
4.85502e-08
2.56755e-09
4.86908e-08
2.63657e-09
4.88243e-08
2.67537e-09
4.89477e-08
2.68724e-09
4.90591e-08
2.67608e-09
4.91574e-08
2.64617e-09
4.92423e-08
2.60183e-09
4.9314e-08
2.54718e-09
4.93734e-08
2.48593e-09
4.94216e-08
2.42123e-09
4.94601e-08
2.35564e-09
4.94901e-08
2.29108e-09
4.95131e-08
2.22891e-09
4.95302e-08
2.16996e-09
4.95425e-08
2.11468e-09
4.9551e-08
2.06321e-09
4.95564e-08
2.01545e-09
4.95591e-08
1.9712e-09
4.95598e-08
1.93016e-09
4.95588e-08
1.89201e-09
4.95562e-08
1.85641e-09
4.95523e-08
1.82306e-09
4.95472e-08
1.79166e-09
4.9541e-08
1.76196e-09
4.95338e-08
1.73373e-09
4.95257e-08
1.70678e-09
4.95166e-08
1.68094e-09
4.95066e-08
1.65604e-09
4.94957e-08
1.63196e-09
4.9484e-08
1.60859e-09
4.94714e-08
1.5858e-09
4.94579e-08
1.56352e-09
4.94436e-08
1.54165e-09
4.94284e-08
1.52011e-09
4.94124e-08
1.49882e-09
4.93955e-08
1.47772e-09
4.93778e-08
1.45673e-09
4.93593e-08
1.43579e-09
4.93398e-08
1.41484e-09
4.93196e-08
1.39382e-09
4.92985e-08
1.37266e-09
4.92766e-08
1.35131e-09
4.92539e-08
1.3297e-09
4.92303e-08
1.30778e-09
4.9206e-08
1.2855e-09
4.91809e-08
1.26278e-09
4.91551e-08
1.23958e-09
4.91285e-08
1.21583e-09
4.91013e-08
1.19148e-09
4.90734e-08
1.16645e-09
4.90449e-08
1.1407e-09
4.90158e-08
1.11416e-09
4.89861e-08
1.08677e-09
4.8956e-08
1.05847e-09
4.89255e-08
1.02919e-09
4.88945e-08
9.98893e-10
4.88633e-08
9.67509e-10
4.88317e-08
9.34986e-10
4.88e-08
9.01274e-10
4.87681e-08
8.66325e-10
4.87362e-08
8.30099e-10
4.87042e-08
7.92563e-10
4.86723e-08
7.53699e-10
4.86404e-08
7.13514e-10
4.86086e-08
6.72047e-10
4.85769e-08
6.29389e-10
4.85453e-08
5.85702e-10
4.85138e-08
5.41241e-10
4.84824e-08
4.96369e-10
4.84511e-08
4.51565e-10
4.84199e-08
4.07408e-10
4.8389e-08
3.64538e-10
4.83584e-08
3.23596e-10
4.83283e-08
2.85147e-10
4.8299e-08
2.49624e-10
4.82704e-08
2.17307e-10
4.82429e-08
1.88327e-10
4.82165e-08
1.62689e-10
4.81913e-08
1.40287e-10
4.81673e-08
1.20936e-10
4.81445e-08
1.04411e-10
4.8123e-08
9.04481e-11
4.81027e-08
7.87699e-11
4.80834e-08
6.9118e-11
4.80652e-08
6.12525e-11
4.80479e-08
5.49525e-11
4.80314e-08
5.00196e-11
4.80157e-08
4.62886e-11
4.80006e-08
4.36245e-11
4.79861e-08
4.19182e-11
4.7972e-08
4.1088e-11
4.79582e-08
4.10775e-11
4.79448e-08
4.18548e-11
4.79316e-08
4.34123e-11
4.79188e-08
4.56982e-11
4.80905e-11
4.98533e-08
1.87382e-09
-4.97676e-08
4.99604e-08
2.05165e-09
5.00825e-08
2.207e-09
5.02131e-08
2.33511e-09
5.03463e-08
2.4343e-09
5.04778e-08
2.50511e-09
5.06038e-08
2.54931e-09
5.07217e-08
2.5694e-09
5.08293e-08
2.56846e-09
5.09255e-08
2.54998e-09
5.10097e-08
2.51757e-09
5.10821e-08
2.47477e-09
5.11433e-08
2.42479e-09
5.1194e-08
2.37046e-09
5.12355e-08
2.31414e-09
5.1269e-08
2.25765e-09
5.12955e-08
2.20236e-09
5.13163e-08
2.14917e-09
5.13324e-08
2.09864e-09
5.13445e-08
2.05105e-09
5.13535e-08
2.00644e-09
5.136e-08
1.96475e-09
5.13644e-08
1.92578e-09
5.13671e-08
1.88932e-09
5.13683e-08
1.85513e-09
5.13685e-08
1.82294e-09
5.13676e-08
1.79253e-09
5.13659e-08
1.76368e-09
5.13634e-08
1.7362e-09
5.13603e-08
1.70992e-09
5.13565e-08
1.68467e-09
5.13523e-08
1.66032e-09
5.13475e-08
1.63675e-09
5.13422e-08
1.61385e-09
5.13365e-08
1.59152e-09
5.13304e-08
1.56966e-09
5.13238e-08
1.54821e-09
5.13168e-08
1.52707e-09
5.13095e-08
1.50618e-09
5.13017e-08
1.48547e-09
5.12936e-08
1.46487e-09
5.12851e-08
1.44432e-09
5.12762e-08
1.42375e-09
5.12669e-08
1.40312e-09
5.12572e-08
1.38235e-09
5.12471e-08
1.36139e-09
5.12366e-08
1.34018e-09
5.12257e-08
1.31866e-09
5.12145e-08
1.29677e-09
5.12028e-08
1.27446e-09
5.11907e-08
1.25166e-09
5.11782e-08
1.22831e-09
5.11653e-08
1.20436e-09
5.11521e-08
1.17974e-09
5.11384e-08
1.15438e-09
5.11243e-08
1.12823e-09
5.11098e-08
1.10123e-09
5.1095e-08
1.07331e-09
5.10798e-08
1.04441e-09
5.10642e-08
1.01448e-09
5.10482e-08
9.83461e-10
5.10319e-08
9.51293e-10
5.10153e-08
9.17928e-10
5.09983e-08
8.83323e-10
5.09809e-08
8.4744e-10
5.09632e-08
8.10252e-10
5.09452e-08
7.71749e-10
5.09268e-08
7.31945e-10
5.09079e-08
6.90891e-10
5.08886e-08
6.48688e-10
5.08688e-08
6.05504e-10
5.08485e-08
5.61592e-10
5.08275e-08
5.17304e-10
5.0806e-08
4.73091e-10
5.07839e-08
4.29492e-10
5.07614e-08
3.87096e-10
5.07385e-08
3.46491e-10
5.07154e-08
3.08203e-10
5.06924e-08
2.72644e-10
5.06696e-08
2.40097e-10
5.06472e-08
2.10707e-10
5.06254e-08
1.84504e-10
5.06043e-08
1.61416e-10
5.05839e-08
1.41294e-10
5.05644e-08
1.23943e-10
5.05457e-08
1.09132e-10
5.05279e-08
9.66133e-11
5.05108e-08
8.615e-11
5.04946e-08
7.75189e-11
5.0479e-08
7.05129e-11
5.04641e-08
6.49456e-11
5.04497e-08
6.06589e-11
5.04358e-08
5.75218e-11
5.04223e-08
5.54279e-11
5.04091e-08
5.42948e-11
5.03961e-08
5.40618e-11
5.03833e-08
5.46831e-11
5.03706e-08
5.61094e-11
5.03581e-08
5.81922e-11
6.0202e-11
5.17544e-08
1.79391e-09
-5.16745e-08
5.18525e-08
1.95358e-09
5.1964e-08
2.09541e-09
5.20839e-08
2.21523e-09
5.22072e-08
2.31097e-09
5.23299e-08
2.38241e-09
5.24487e-08
2.43058e-09
5.25608e-08
2.4573e-09
5.26643e-08
2.46497e-09
5.27579e-08
2.45637e-09
5.28409e-08
2.43451e-09
5.29134e-08
2.40234e-09
5.29755e-08
2.36266e-09
5.3028e-08
2.31797e-09
5.30717e-08
2.2704e-09
5.31077e-08
2.22166e-09
5.3137e-08
2.17308e-09
5.31606e-08
2.1256e-09
5.31793e-08
2.07987e-09
5.31941e-08
2.03626e-09
5.32056e-08
1.99493e-09
5.32145e-08
1.95591e-09
5.32211e-08
1.91914e-09
5.3226e-08
1.88447e-09
5.32294e-08
1.85174e-09
5.32315e-08
1.82076e-09
5.32327e-08
1.79135e-09
5.32331e-08
1.76334e-09
5.32327e-08
1.73656e-09
5.32318e-08
1.71086e-09
5.32303e-08
1.68612e-09
5.32284e-08
1.6622e-09
5.32262e-08
1.639e-09
5.32236e-08
1.61641e-09
5.32208e-08
1.59436e-09
5.32177e-08
1.57274e-09
5.32144e-08
1.5515e-09
5.32109e-08
1.53055e-09
5.32073e-08
1.50983e-09
5.32035e-08
1.48927e-09
5.31995e-08
1.46881e-09
5.31955e-08
1.44839e-09
5.31913e-08
1.42795e-09
5.3187e-08
1.40743e-09
5.31825e-08
1.38678e-09
5.3178e-08
1.36594e-09
5.31733e-08
1.34486e-09
5.31685e-08
1.32346e-09
5.31636e-08
1.30171e-09
5.31585e-08
1.27953e-09
5.31533e-08
1.25688e-09
5.31479e-08
1.23369e-09
5.31424e-08
1.2099e-09
5.31366e-08
1.18545e-09
5.31307e-08
1.16028e-09
5.31246e-08
1.13434e-09
5.31183e-08
1.10755e-09
5.31118e-08
1.07986e-09
5.3105e-08
1.05122e-09
5.30979e-08
1.02156e-09
5.30905e-08
9.90828e-10
5.30828e-08
9.58975e-10
5.30748e-08
9.25953e-10
5.30664e-08
8.91722e-10
5.30576e-08
8.56249e-10
5.30483e-08
8.19514e-10
5.30386e-08
7.81516e-10
5.30282e-08
7.42278e-10
5.30173e-08
7.01858e-10
5.30056e-08
6.60364e-10
5.29931e-08
6.17967e-10
5.29798e-08
5.74913e-10
5.29656e-08
5.31537e-10
5.29504e-08
4.88259e-10
5.29343e-08
4.45571e-10
5.29174e-08
4.04012e-10
5.28998e-08
3.64115e-10
5.28816e-08
3.26364e-10
5.28631e-08
2.91149e-10
5.28445e-08
2.58744e-10
5.28259e-08
2.29306e-10
5.28075e-08
2.02885e-10
5.27895e-08
1.79438e-10
5.27719e-08
1.58848e-10
5.27549e-08
1.40951e-10
5.27385e-08
1.25548e-10
5.27227e-08
1.1242e-10
5.27075e-08
1.01354e-10
5.26929e-08
9.21446e-11
5.26788e-08
8.4601e-11
5.26652e-08
7.85501e-11
5.2652e-08
7.38429e-11
5.26391e-08
7.0355e-11
5.26266e-08
6.79841e-11
5.26142e-08
6.66493e-11
5.2602e-08
6.6287e-11
5.25899e-08
6.68407e-11
5.25777e-08
6.82343e-11
5.25656e-08
7.02791e-11
7.23149e-11
5.3718e-08
1.71907e-09
-5.36432e-08
5.38083e-08
1.86326e-09
5.39107e-08
1.99307e-09
5.40209e-08
2.10498e-09
5.4135e-08
2.19687e-09
5.42494e-08
2.26805e-09
5.43609e-08
2.31901e-09
5.44672e-08
2.351e-09
5.45664e-08
2.36584e-09
5.4657e-08
2.36572e-09
5.47384e-08
2.35309e-09
5.48104e-08
2.33042e-09
5.48729e-08
2.3001e-09
5.49266e-08
2.26431e-09
5.4972e-08
2.22494e-09
5.50101e-08
2.1836e-09
5.50416e-08
2.14153e-09
5.50675e-08
2.0997e-09
5.50886e-08
2.05879e-09
5.51056e-08
2.01924e-09