/*--------------------------------*- C++ -*----------------------------------*\
| =========                 |                                                 |
| \\      /  F ield         | OpenFOAM: The Open Source CFD Toolbox           |
|  \\    /   O peration     | Version:  2.3.0                                 |
|   \\  /    A nd           | Web:      www.OpenFOAM.org                      |
|    \\/     M anipulation  |                                                 |
\*---------------------------------------------------------------------------*/
FoamFile
{
    version     2.0;
    format      ascii;
    class       volVectorField;
    location    "0.4";
    object      U;
}
// * * * * * * * * * * * * * * * * * * * * * * * * * * * * * * * * * * * * * //

dimensions      [0 1 -1 0 0 0 0];

internalField   nonuniform List<vector> 
2889
(
(0.178999 0.00424529 0)
(0.158139 0.00589572 0)
(0.139366 0.00610991 0)
(0.121237 0.00553719 0)
(0.103777 0.00474671 0)
(0.0877136 0.00387756 0)
(0.0740443 0.00293912 0)
(0.0632148 0.00194259 0)
(0.0551007 0.00105087 0)
(0.049215 0.000423604 0)
(0.0450027 7.57884e-05 0)
(0.0419899 -7.39051e-05 0)
(0.0397902 -0.000108874 0)
(0.0381139 -8.82256e-05 0)
(0.0367515 -4.59042e-05 0)
(0.0355675 -1.97871e-06 0)
(0.0344852 3.31598e-05 0)
(0.0334679 5.65855e-05 0)
(0.0325023 6.95882e-05 0)
(0.0315858 7.49274e-05 0)
(0.0307194 7.5333e-05 0)
(0.0299039 7.29405e-05 0)
(0.0291388 6.9203e-05 0)
(0.0284221 6.5002e-05 0)
(0.0277508 6.08221e-05 0)
(0.0271215 5.68924e-05 0)
(0.0265304 5.32925e-05 0)
(0.0259741 5.00268e-05 0)
(0.0254492 4.70671e-05 0)
(0.0249529 4.43764e-05 0)
(0.0244826 4.19169e-05 0)
(0.0240361 3.96564e-05 0)
(0.0236114 3.75672e-05 0)
(0.0232069 3.5627e-05 0)
(0.0228212 3.38175e-05 0)
(0.0224529 3.21246e-05 0)
(0.022101 3.05355e-05 0)
(0.0217644 2.90413e-05 0)
(0.0214422 2.76331e-05 0)
(0.0211336 2.63042e-05 0)
(0.0208379 2.50488e-05 0)
(0.0205544 2.38612e-05 0)
(0.0202826 2.27362e-05 0)
(0.0200217 2.16705e-05 0)
(0.0197713 2.06589e-05 0)
(0.0195309 1.9698e-05 0)
(0.0193002 1.87845e-05 0)
(0.0190786 1.79146e-05 0)
(0.0188658 1.70855e-05 0)
(0.0186615 1.62943e-05 0)
(0.0184653 1.55381e-05 0)
(0.018277 1.48146e-05 0)
(0.0180963 1.41215e-05 0)
(0.0179229 1.34576e-05 0)
(0.0177567 1.28173e-05 0)
(0.0175974 1.22056e-05 0)
(0.0174449 1.16095e-05 0)
(0.0172989 1.10464e-05 0)
(0.0171595 1.0485e-05 0)
(0.0170261 9.96698e-06 0)
(0.0168992 9.431e-06 0)
(0.016778 8.95748e-06 0)
(0.0166631 8.43687e-06 0)
(0.0165536 8.00715e-06 0)
(0.0164504 7.4959e-06 0)
(0.0163522 7.10651e-06 0)
(0.0162604 6.60281e-06 0)
(0.0161733 6.24511e-06 0)
(0.0160927 5.75219e-06 0)
(0.0160163 5.40939e-06 0)
(0.0159467 4.94231e-06 0)
(0.0158809 4.59657e-06 0)
(0.0158221 4.16484e-06 0)
(0.0157667 3.80166e-06 0)
(0.0157184 3.40328e-06 0)
(0.0156731 3.02128e-06 0)
(0.0156353 2.62656e-06 0)
(0.0155999 2.24149e-06 0)
(0.0155724 1.81307e-06 0)
(0.0155466 1.44654e-06 0)
(0.0155289 9.81276e-07 0)
(0.0155122 6.63955e-07 0)
(0.0155036 2.53635e-07 0)
(0.0154947 2.54237e-08 0)
(0.0154937 -2.38435e-07 0)
(0.0154906 -4.35291e-07 0)
(0.0154947 -6.45384e-07 0)
(0.0154946 -7.08759e-07 0)
(0.0155012 -7.86436e-07 0)
(0.0155012 -6.51734e-07 0)
(0.0155077 -6.52653e-07 0)
(0.0155056 -3.97259e-07 0)
(0.0155103 -3.8989e-07 0)
(0.0155052 -1.26041e-07 0)
(0.0155078 -9.78793e-08 0)
(0.0154997 1.45212e-07 0)
(0.0155007 1.36992e-07 0)
(0.0154897 4.20374e-07 0)
(0.0154894 3.49556e-07 0)
(0.0154751 7.18123e-07 0)
(0.194777 0.00761552 0)
(0.192829 0.010728 0)
(0.190204 0.0118614 0)
(0.186384 0.0117273 0)
(0.181048 0.0111019 0)
(0.174327 0.0102272 0)
(0.166797 0.00910831 0)
(0.158945 0.00773333 0)
(0.151156 0.00623599 0)
(0.14367 0.00482649 0)
(0.136624 0.00365202 0)
(0.13012 0.00275317 0)
(0.124203 0.00210054 0)
(0.118883 0.00164956 0)
(0.114121 0.00135043 0)
(0.109851 0.00115497 0)
(0.106002 0.00102356 0)
(0.10251 0.000928638 0)
(0.0993223 0.000853502 0)
(0.0963945 0.00078915 0)
(0.0936923 0.000731279 0)
(0.0911878 0.000678134 0)
(0.0888581 0.000629166 0)
(0.0866842 0.000584258 0)
(0.0846496 0.000543354 0)
(0.0827403 0.000506311 0)
(0.0809442 0.000472869 0)
(0.0792504 0.000442694 0)
(0.0776496 0.000415416 0)
(0.0761336 0.000390675 0)
(0.0746952 0.000368136 0)
(0.0733282 0.000347508 0)
(0.072027 0.00032854 0)
(0.0707868 0.00031102 0)
(0.0696033 0.000294773 0)
(0.0684726 0.000279654 0)
(0.0673915 0.000265539 0)
(0.0663567 0.000252327 0)
(0.0653657 0.00023993 0)
(0.0644158 0.000228274 0)
(0.063505 0.000217293 0)
(0.0626309 0.000206931 0)
(0.0617919 0.000197135 0)
(0.0609862 0.000187861 0)
(0.0602122 0.000179066 0)
(0.0594686 0.000170712 0)
(0.0587539 0.000162768 0)
(0.0580671 0.000155198 0)
(0.0574069 0.000147976 0)
(0.0567724 0.000141074 0)
(0.0561628 0.00013447 0)
(0.0555769 0.000128138 0)
(0.0550144 0.00012206 0)
(0.0544741 0.000116219 0)
(0.0539559 0.00011059 0)
(0.0534586 0.000105173 0)
(0.0529823 9.99223e-05 0)
(0.0525259 9.48803e-05 0)
(0.0520896 8.99462e-05 0)
(0.0516722 8.52389e-05 0)
(0.0512745 8.05623e-05 0)
(0.0508946 7.61619e-05 0)
(0.0505343 7.16897e-05 0)
(0.0501906 6.75759e-05 0)
(0.0498667 6.32711e-05 0)
(0.0495583 5.94177e-05 0)
(0.04927 5.52623e-05 0)
(0.0489958 5.16333e-05 0)
(0.0487426 4.7632e-05 0)
(0.048502 4.41702e-05 0)
(0.0482831 4.03701e-05 0)
(0.0480753 3.70212e-05 0)
(0.0478901 3.346e-05 0)
(0.0477144 3.01871e-05 0)
(0.0475621 2.68752e-05 0)
(0.0474177 2.36965e-05 0)
(0.0472972 2.05743e-05 0)
(0.0471829 1.75836e-05 0)
(0.0470929 1.45887e-05 0)
(0.0470068 1.19183e-05 0)
(0.0469452 9.09194e-06 0)
(0.0468842 6.86578e-06 0)
(0.0468477 4.47359e-06 0)
(0.0468072 2.80293e-06 0)
(0.0467905 1.17382e-06 0)
(0.0467644 7.52465e-08 0)
(0.046761 -8.27522e-07 0)
(0.0467424 -1.19402e-06 0)
(0.0467456 -1.46494e-06 0)
(0.046728 -9.93727e-07 0)
(0.0467325 -8.99864e-07 0)
(0.0467112 7.15006e-08 0)
(0.046714 2.67356e-07 0)
(0.0466872 1.21722e-06 0)
(0.0466879 1.42578e-06 0)
(0.0466556 2.2956e-06 0)
(0.0466547 2.365e-06 0)
(0.0466168 3.3392e-06 0)
(0.0466153 3.20654e-06 0)
(0.0465714 4.28018e-06 0)
(0.195793 0.00731416 0)
(0.196101 0.00990093 0)
(0.197034 0.0115268 0)
(0.198082 0.012071 0)
(0.198585 0.0119878 0)
(0.198188 0.011567 0)
(0.19687 0.0108591 0)
(0.194744 0.00988189 0)
(0.191965 0.0087296 0)
(0.188693 0.00755931 0)
(0.185075 0.00650429 0)
(0.181258 0.0056258 0)
(0.17736 0.00491824 0)
(0.17348 0.00435521 0)
(0.169672 0.00390467 0)
(0.165959 0.00353689 0)
(0.162351 0.00322818 0)
(0.158851 0.00296173 0)
(0.155462 0.00272664 0)
(0.152183 0.00251616 0)
(0.149016 0.00232613 0)
(0.145961 0.00215392 0)
(0.143018 0.0019977 0)
(0.140186 0.0018561 0)
(0.137464 0.00172787 0)
(0.13485 0.00161181 0)
(0.132339 0.00150675 0)
(0.12993 0.00141152 0)
(0.127618 0.00132503 0)
(0.125399 0.00124626 0)
(0.123269 0.0011743 0)
(0.121224 0.00110833 0)
(0.11926 0.00104765 0)
(0.117372 0.000991644 0)
(0.115557 0.000939771 0)
(0.113812 0.000891583 0)
(0.112133 0.000846683 0)
(0.110517 0.000804736 0)
(0.108961 0.00076545 0)
(0.107462 0.000728569 0)
(0.106018 0.000693871 0)
(0.104625 0.00066116 0)
(0.103283 0.000630262 0)
(0.101989 0.000601024 0)
(0.100741 0.000573306 0)
(0.0995372 0.000546978 0)
(0.0983763 0.000521938 0)
(0.0972563 0.00049807 0)
(0.0961763 0.000475294 0)
(0.0951346 0.000453511 0)
(0.0941306 0.000432657 0)
(0.0931625 0.000412647 0)
(0.0922301 0.000393434 0)
(0.0913315 0.00037494 0)
(0.0904671 0.000357117 0)
(0.0896348 0.000339928 0)
(0.0888353 0.00032329 0)
(0.0880664 0.000307234 0)
(0.0873295 0.000291593 0)
(0.0866216 0.000276536 0)
(0.0859454 0.000261732 0)
(0.0852965 0.000247567 0)
(0.0846795 0.000233453 0)
(0.084088 0.000220102 0)
(0.083529 0.000206578 0)
(0.0829935 0.000193963 0)
(0.0824918 0.000180967 0)
(0.0820109 0.000169 0)
(0.0815657 0.000156532 0)
(0.0811386 0.000145103 0)
(0.0807491 0.00013324 0)
(0.0803748 0.000122255 0)
(0.0800401 0.00011108 0)
(0.0797175 0.000100494 0)
(0.0794362 9.00539e-05 0)
(0.0791642 7.99428e-05 0)
(0.0789346 7.01926e-05 0)
(0.0787111 6.08045e-05 0)
(0.0785309 5.17349e-05 0)
(0.0783527 4.34291e-05 0)
(0.0782184 3.52403e-05 0)
(0.0780805 2.83358e-05 0)
(0.0779869 2.15369e-05 0)
(0.0778823 1.62421e-05 0)
(0.0778217 1.14593e-05 0)
(0.0777419 8.01357e-06 0)
(0.077705 5.45594e-06 0)
(0.0776402 4.00935e-06 0)
(0.0776179 3.10603e-06 0)
(0.0775589 3.59142e-06 0)
(0.0775439 3.65805e-06 0)
(0.0774839 5.29281e-06 0)
(0.0774717 5.74158e-06 0)
(0.0774074 7.39496e-06 0)
(0.0773969 7.8516e-06 0)
(0.0773272 9.33099e-06 0)
(0.0773189 9.57227e-06 0)
(0.0772428 1.11712e-05 0)
(0.0772378 1.11199e-05 0)
(0.0771545 1.26965e-05 0)
(0.196746 0.00687638 0)
(0.19705 0.00872528 0)
(0.198015 0.0102488 0)
(0.199547 0.0110368 0)
(0.201176 0.0112134 0)
(0.202504 0.0110167 0)
(0.20335 0.0105623 0)
(0.203681 0.00989723 0)
(0.203512 0.00908214 0)
(0.202887 0.00821552 0)
(0.201867 0.00739833 0)
(0.200535 0.00669204 0)
(0.198978 0.00611087 0)
(0.197273 0.00563657 0)
(0.195469 0.00524365 0)
(0.193594 0.00491005 0)
(0.191661 0.00461907 0)
(0.189678 0.00435881 0)
(0.187653 0.00412115 0)
(0.185591 0.00390086 0)
(0.183499 0.00369469 0)
(0.181384 0.00350079 0)
(0.179254 0.00331807 0)
(0.177117 0.00314591 0)
(0.174979 0.00298386 0)
(0.172847 0.00283151 0)
(0.170727 0.00268838 0)
(0.168624 0.00255397 0)
(0.166543 0.00242775 0)
(0.164487 0.00230918 0)
(0.16246 0.00219771 0)
(0.160465 0.00209285 0)
(0.158503 0.00199412 0)
(0.156577 0.00190106 0)
(0.154688 0.00181326 0)
(0.152838 0.00173035 0)
(0.151027 0.00165196 0)
(0.149255 0.00157778 0)
(0.147524 0.00150749 0)
(0.145833 0.00144084 0)
(0.144183 0.00137755 0)
(0.142573 0.00131739 0)
(0.141004 0.00126014 0)
(0.139475 0.00120559 0)
(0.137985 0.00115356 0)
(0.136535 0.00110385 0)
(0.135124 0.00105632 0)
(0.133752 0.0010108 0)
(0.132418 0.000967163 0)
(0.131121 0.000925248 0)
(0.129862 0.000884976 0)
(0.128639 0.000846173 0)
(0.127454 0.000808801 0)
(0.126304 0.000772694 0)
(0.125191 0.000737814 0)
(0.124112 0.000704036 0)
(0.12307 0.000671297 0)
(0.122061 0.00063956 0)
(0.121088 0.000608643 0)
(0.120148 0.000578697 0)
(0.119245 0.000549325 0)
(0.118372 0.000520985 0)
(0.117538 0.000492912 0)
(0.116731 0.000466019 0)
(0.115967 0.000439071 0)
(0.115226 0.000413494 0)
(0.114531 0.000387565 0)
(0.113855 0.000363151 0)
(0.113229 0.000338239 0)
(0.112618 0.000314827 0)
(0.112061 0.000291048 0)
(0.111514 0.000268503 0)
(0.111025 0.000246002 0)
(0.110543 0.000224302 0)
(0.110121 0.000203179 0)
(0.109702 0.000182496 0)
(0.109345 0.000162745 0)
(0.108987 0.000143536 0)
(0.108693 0.000125231 0)
(0.108393 0.000108126 0)
(0.108158 9.16803e-05 0)
(0.10791 7.72532e-05 0)
(0.107729 6.35488e-05 0)
(0.107526 5.22059e-05 0)
(0.107391 4.224e-05 0)
(0.107223 3.4349e-05 0)
(0.107123 2.83912e-05 0)
(0.106981 2.41727e-05 0)
(0.106907 2.13396e-05 0)
(0.10678 2.05591e-05 0)
(0.106724 1.96854e-05 0)
(0.106602 2.10294e-05 0)
(0.106559 2.11176e-05 0)
(0.106437 2.26999e-05 0)
(0.106404 2.30927e-05 0)
(0.106279 2.44589e-05 0)
(0.106255 2.47539e-05 0)
(0.106125 2.63113e-05 0)
(0.106112 2.63173e-05 0)
(0.105973 2.77565e-05 0)
(0.197473 0.00655233 0)
(0.197778 0.00796372 0)
(0.198547 0.00926743 0)
(0.199831 0.0101037 0)
(0.201372 0.0104036 0)
(0.202849 0.0103129 0)
(0.204072 0.0099725 0)
(0.204981 0.00946269 0)
(0.205575 0.0088377 0)
(0.205868 0.00816108 0)
(0.205885 0.00750387 0)
(0.205669 0.00691956 0)
(0.205277 0.0064299 0)
(0.204761 0.00602781 0)
(0.204157 0.0056948 0)
(0.203485 0.00541283 0)
(0.202755 0.0051678 0)
(0.201968 0.00494941 0)
(0.201124 0.00475028 0)
(0.200223 0.00456529 0)
(0.199264 0.00439104 0)
(0.19825 0.0042254 0)
(0.197183 0.00406711 0)
(0.196067 0.00391545 0)
(0.194906 0.00376998 0)
(0.193702 0.00363041 0)
(0.192462 0.00349648 0)
(0.191187 0.00336793 0)
(0.189883 0.00324448 0)
(0.188553 0.00312587 0)
(0.187202 0.00301183 0)
(0.185831 0.00290213 0)
(0.184446 0.00279652 0)
(0.183049 0.0026948 0)
(0.181643 0.00259677 0)
(0.180231 0.00250226 0)
(0.178817 0.00241111 0)
(0.177402 0.00232316 0)
(0.17599 0.00223827 0)
(0.174581 0.0021563 0)
(0.17318 0.00207715 0)
(0.171787 0.00200066 0)
(0.170405 0.00192675 0)
(0.169034 0.00185526 0)
(0.167678 0.00178614 0)
(0.166337 0.0017192 0)
(0.165013 0.00165443 0)
(0.163706 0.00159162 0)
(0.162419 0.00153078 0)
(0.161151 0.0014717 0)
(0.159906 0.0014144 0)
(0.158681 0.00135864 0)
(0.157481 0.00130451 0)
(0.156302 0.00125173 0)
(0.15515 0.00120041 0)
(0.154021 0.00115028 0)
(0.152921 0.00110144 0)
(0.151842 0.00105368 0)
(0.150797 0.001007 0)
(0.149772 0.000961375 0)
(0.148783 0.000916551 0)
(0.147814 0.000872869 0)
(0.146885 0.000829641 0)
(0.145972 0.000787747 0)
(0.145105 0.000745916 0)
(0.144251 0.000705674 0)
(0.143448 0.000665148 0)
(0.142653 0.000626384 0)
(0.141917 0.000587192 0)
(0.141183 0.000549741 0)
(0.140514 0.000512071 0)
(0.139842 0.000475782 0)
(0.139241 0.000439871 0)
(0.138633 0.000404786 0)
(0.1381 0.000370817 0)
(0.137556 0.000337243 0)
(0.13709 0.000305281 0)
(0.136609 0.00027392 0)
(0.136209 0.000244145 0)
(0.135788 0.000215918 0)
(0.135452 0.000188983 0)
(0.135088 0.000164724 0)
(0.134811 0.00014189 0)
(0.134496 0.000122168 0)
(0.134273 0.000104825 0)
(0.134 9.01695e-05 0)
(0.133821 7.87246e-05 0)
(0.133582 6.94704e-05 0)
(0.13344 6.2793e-05 0)
(0.133224 5.8663e-05 0)
(0.133112 5.52835e-05 0)
(0.132909 5.4501e-05 0)
(0.132822 5.31213e-05 0)
(0.132624 5.29887e-05 0)
(0.13256 5.26517e-05 0)
(0.132362 5.2445e-05 0)
(0.132318 5.24002e-05 0)
(0.132116 5.26698e-05 0)
(0.132093 5.25436e-05 0)
(0.131882 5.26939e-05 0)
(0.198068 0.00628248 0)
(0.198376 0.00743237 0)
(0.19902 0.00852811 0)
(0.200061 0.00932743 0)
(0.201362 0.00969776 0)
(0.20269 0.00969399 0)
(0.203866 0.0094391 0)
(0.204815 0.00902866 0)
(0.20553 0.00852212 0)
(0.206025 0.00796731 0)
(0.206324 0.00741472 0)
(0.206458 0.00690852 0)
(0.206464 0.00647299 0)
(0.206384 0.00611007 0)
(0.206249 0.00580858 0)
(0.206077 0.00555429 0)
(0.205877 0.00533487 0)
(0.205648 0.00514106 0)
(0.20539 0.00496611 0)
(0.205099 0.00480523 0)
(0.204773 0.00465505 0)
(0.20441 0.00451331 0)
(0.20401 0.00437851 0)
(0.203572 0.00424967 0)
(0.203096 0.00412612 0)
(0.202584 0.00400739 0)
(0.202036 0.00389309 0)
(0.201452 0.00378287 0)
(0.200834 0.0036764 0)
(0.200183 0.00357335 0)
(0.1995 0.00347346 0)
(0.198787 0.00337643 0)
(0.198045 0.00328207 0)
(0.197275 0.00319014 0)
(0.19648 0.0031005 0)
(0.195661 0.00301296 0)
(0.194819 0.00292744 0)
(0.193956 0.00284379 0)
(0.193074 0.00276197 0)
(0.192174 0.00268182 0)
(0.191259 0.00260335 0)
(0.190329 0.00252641 0)
(0.189388 0.00245105 0)
(0.188436 0.0023771 0)
(0.187476 0.00230463 0)
(0.186507 0.00223344 0)
(0.185535 0.00216367 0)
(0.184557 0.00209505 0)
(0.183579 0.0020278 0)
(0.182597 0.00196155 0)
(0.18162 0.00189662 0)
(0.180641 0.00183256 0)
(0.17967 0.00176978 0)
(0.1787 0.00170771 0)
(0.177742 0.00164689 0)
(0.176785 0.00158665 0)
(0.175845 0.00152759 0)
(0.174906 0.00146903 0)
(0.173991 0.00141152 0)
(0.173075 0.00135452 0)
(0.172188 0.00129837 0)
(0.1713 0.00124285 0)
(0.170448 0.00118785 0)
(0.16959 0.00113377 0)
(0.168778 0.0010798 0)
(0.167954 0.00102709 0)
(0.167186 0.000974118 0)
(0.1664 0.000922709 0)
(0.16568 0.000870849 0)
(0.164936 0.000820637 0)
(0.164267 0.000770204 0)
(0.163568 0.000721086 0)
(0.162952 0.000672458 0)
(0.162303 0.000624567 0)
(0.161741 0.000578078 0)
(0.161144 0.000531867 0)
(0.160636 0.000487714 0)
(0.160092 0.000444134 0)
(0.15964 0.000402635 0)
(0.159147 0.000362896 0)
(0.158752 0.000324936 0)
(0.158308 0.000290117 0)
(0.157968 0.000257311 0)
(0.157568 0.000228102 0)
(0.157279 0.00020223 0)
(0.15692 0.000179276 0)
(0.156676 0.000160956 0)
(0.156351 0.000144739 0)
(0.15615 0.000132741 0)
(0.155849 0.000123078 0)
(0.155687 0.000115811 0)
(0.155402 0.000110635 0)
(0.155275 0.000106661 0)
(0.154999 0.000102708 0)
(0.154905 0.0001008 0)
(0.154632 9.72684e-05 0)
(0.154567 9.62643e-05 0)
(0.154292 9.36434e-05 0)
(0.154257 9.30627e-05 0)
(0.153971 9.02849e-05 0)
(0.198589 0.00603415 0)
(0.198891 0.00699979 0)
(0.199446 0.00791998 0)
(0.200302 0.00863956 0)
(0.201386 0.00903611 0)
(0.202536 0.00910673 0)
(0.203599 0.00893442 0)
(0.20449 0.00860902 0)
(0.205188 0.00819413 0)
(0.205705 0.00773333 0)
(0.206062 0.00726472 0)
(0.206286 0.00682267 0)
(0.206409 0.00643053 0)
(0.206462 0.00609591 0)
(0.206472 0.00581406 0)
(0.206459 0.00557484 0)
(0.206432 0.005368 0)
(0.206394 0.00518538 0)
(0.206345 0.00502106 0)
(0.206281 0.00487083 0)
(0.206203 0.00473172 0)
(0.206108 0.00460158 0)
(0.205995 0.00447891 0)
(0.205863 0.00436263 0)
(0.205712 0.00425196 0)
(0.205541 0.00414628 0)
(0.205351 0.00404511 0)
(0.205139 0.00394798 0)
(0.204907 0.00385452 0)
(0.204654 0.00376431 0)
(0.20438 0.00367704 0)
(0.204084 0.00359232 0)
(0.203769 0.00350995 0)
(0.203431 0.00342958 0)
(0.203073 0.00335109 0)
(0.202693 0.00327418 0)
(0.202294 0.00319879 0)
(0.201874 0.00312466 0)
(0.201436 0.0030518 0)
(0.200976 0.00297995 0)
(0.2005 0.0029092 0)
(0.200004 0.00283924 0)
(0.199493 0.00277026 0)
(0.198962 0.00270192 0)
(0.198419 0.00263447 0)
(0.197857 0.00256748 0)
(0.197285 0.00250137 0)
(0.196695 0.00243556 0)
(0.196098 0.0023706 0)
(0.195484 0.00230578 0)
(0.194867 0.00224186 0)
(0.194232 0.00217786 0)
(0.193598 0.00211483 0)
(0.192948 0.00205153 0)
(0.192302 0.00198927 0)
(0.191639 0.00192655 0)
(0.190987 0.00186495 0)
(0.190316 0.00180273 0)
(0.189663 0.00174162 0)
(0.188986 0.00167987 0)
(0.188338 0.00161914 0)
(0.187661 0.00155787 0)
(0.187022 0.00149732 0)
(0.186348 0.00143664 0)
(0.185725 0.0013762 0)
(0.185058 0.00131619 0)
(0.184455 0.00125584 0)
(0.183801 0.00119655 0)
(0.18322 0.00113647 0)
(0.182584 0.0010779 0)
(0.18203 0.00101855 0)
(0.181417 0.000960663 0)
(0.180892 0.000902639 0)
(0.180308 0.000845571 0)
(0.179813 0.000789453 0)
(0.179261 0.000733718 0)
(0.1788 0.00067995 0)
(0.178282 0.000626687 0)
(0.177858 0.000575724 0)
(0.177373 0.000526443 0)
(0.17699 0.00047931 0)
(0.176537 0.000435365 0)
(0.176195 0.000393899 0)
(0.175774 0.000356095 0)
(0.175471 0.000322509 0)
(0.17508 0.000291463 0)
(0.174816 0.000266638 0)
(0.17445 0.000242788 0)
(0.174227 0.000225566 0)
(0.173879 0.000209113 0)
(0.173696 0.000197841 0)
(0.173359 0.000186743 0)
(0.173214 0.00017952 0)
(0.172885 0.000170289 0)
(0.172776 0.000165943 0)
(0.172455 0.000158032 0)
(0.172378 0.000155714 0)
(0.172052 0.000148986 0)
(0.17201 0.000148007 0)
(0.171668 0.000140534 0)
(0.199042 0.00579693 0)
(0.199333 0.0066184 0)
(0.199818 0.00739507 0)
(0.200534 0.00802635 0)
(0.20144 0.00841816 0)
(0.202426 0.00854324 0)
(0.203371 0.00844631 0)
(0.204191 0.008199 0)
(0.204852 0.00786272 0)
(0.205356 0.00748055 0)
(0.205723 0.0070846 0)
(0.205975 0.00670163 0)
(0.206139 0.00635183 0)
(0.206238 0.00604518 0)
(0.206298 0.00578161 0)
(0.206335 0.00555488 0)
(0.206359 0.00535714 0)
(0.206377 0.00518153 0)
(0.206388 0.00502296 0)
(0.206392 0.00487786 0)
(0.20639 0.00474373 0)
(0.206379 0.0046187 0)
(0.206361 0.00450142 0)
(0.206334 0.00439079 0)
(0.206299 0.00428603 0)
(0.206254 0.00418645 0)
(0.206202 0.00409159 0)
(0.206139 0.0040009 0)
(0.206068 0.00391404 0)
(0.205986 0.00383054 0)
(0.205895 0.00375012 0)
(0.205793 0.00367232 0)
(0.205682 0.003597 0)
(0.205558 0.0035237 0)
(0.205425 0.00345236 0)
(0.205279 0.00338258 0)
(0.205123 0.00331437 0)
(0.204953 0.00324731 0)
(0.204774 0.00318154 0)
(0.20458 0.00311659 0)
(0.204376 0.00305273 0)
(0.204157 0.00298938 0)
(0.203929 0.00292698 0)
(0.203685 0.00286484 0)
(0.203433 0.00280355 0)
(0.203163 0.00274225 0)
(0.202888 0.00268181 0)
(0.202593 0.00262107 0)
(0.202296 0.00256121 0)
(0.201977 0.00250075 0)
(0.201658 0.00244128 0)
(0.201316 0.00238086 0)
(0.200978 0.00232161 0)
(0.200614 0.00226102 0)
(0.20026 0.00220183 0)
(0.199874 0.0021409 0)
(0.199507 0.00208163 0)
(0.199102 0.00202029 0)
(0.198723 0.00196072 0)
(0.198301 0.00189892 0)
(0.197916 0.00183888 0)
(0.197478 0.00177673 0)
(0.197089 0.00171591 0)
(0.196638 0.00165362 0)
(0.196249 0.00159186 0)
(0.195788 0.00152969 0)
(0.195402 0.00146684 0)
(0.194937 0.00140494 0)
(0.194554 0.0013412 0)
(0.194089 0.00127963 0)
(0.193711 0.00121558 0)
(0.193253 0.00115416 0)
(0.192882 0.00109082 0)
(0.192435 0.0010295 0)
(0.192072 0.00096778 0)
(0.191639 0.000906876 0)
(0.19129 0.000847548 0)
(0.19087 0.000788375 0)
(0.190539 0.000731833 0)
(0.190133 0.000676332 0)
(0.189825 0.000623506 0)
(0.189432 0.000573468 0)
(0.189148 0.000526141 0)
(0.188771 0.000482202 0)
(0.188512 0.000443247 0)
(0.188151 0.000405844 0)
(0.187919 0.000376741 0)
(0.187568 0.000345868 0)
(0.187371 0.000325134 0)
(0.187027 0.000301999 0)
(0.186865 0.000287816 0)
(0.186526 0.000271361 0)
(0.186392 0.000260755 0)
(0.18606 0.000246542 0)
(0.185955 0.000238881 0)
(0.185633 0.000226383 0)
(0.185561 0.000223183 0)
(0.185229 0.00021199 0)
(0.185192 0.000211887 0)
(0.184835 0.000199124 0)
(0.199428 0.00556681 0)
(0.199704 0.00627109 0)
(0.200132 0.00693278 0)
(0.20074 0.00748352 0)
(0.201503 0.00785489 0)
(0.202347 0.00801466 0)
(0.20318 0.00798117 0)
(0.203926 0.00780466 0)
(0.204546 0.0075385 0)
(0.205032 0.00722434 0)
(0.205398 0.00689181 0)
(0.205663 0.00656307 0)
(0.205848 0.00625485 0)
(0.205974 0.0059773 0)
(0.206059 0.00573317 0)
(0.206119 0.00551951 0)
(0.206165 0.00533096 0)
(0.206202 0.00516208 0)
(0.206233 0.00500864 0)
(0.206257 0.00486764 0)
(0.206276 0.00473702 0)
(0.20629 0.00461516 0)
(0.206298 0.00450092 0)
(0.206301 0.00439327 0)
(0.2063 0.00429146 0)
(0.206293 0.00419478 0)
(0.206283 0.00410281 0)
(0.206268 0.00401497 0)
(0.20625 0.00393098 0)
(0.206226 0.00385034 0)
(0.2062 0.00377287 0)
(0.206168 0.00369803 0)
(0.206133 0.00362581 0)
(0.206092 0.00355563 0)
(0.206049 0.00348758 0)
(0.205998 0.00342108 0)
(0.205945 0.00335637 0)
(0.205884 0.00329278 0)
(0.205821 0.0032307 0)
(0.205749 0.00316936 0)
(0.205675 0.00310937 0)
(0.20559 0.00304972 0)
(0.205505 0.00299133 0)
(0.205407 0.00293295 0)
(0.20531 0.00287577 0)
(0.205198 0.00281818 0)
(0.205089 0.00276188 0)
(0.204961 0.00270476 0)
(0.20484 0.00264905 0)
(0.204696 0.00259202 0)
(0.204563 0.00253666 0)
(0.204402 0.00247938 0)
(0.204258 0.00242416 0)
(0.20408 0.00236635 0)
(0.203924 0.00231103 0)
(0.203728 0.00225246 0)
(0.203564 0.00219684 0)
(0.203348 0.00213742 0)
(0.203176 0.00208119 0)
(0.202942 0.00202087 0)
(0.202763 0.00196366 0)
(0.202511 0.00190271 0)
(0.202326 0.00184398 0)
(0.202058 0.00178272 0)
(0.201868 0.00172209 0)
(0.201586 0.00166104 0)
(0.20139 0.00159814 0)
(0.201099 0.00153744 0)
(0.200896 0.00147252 0)
(0.2006 0.00141209 0)
(0.200388 0.00134596 0)
(0.200092 0.00128516 0)
(0.199874 0.00121952 0)
(0.199579 0.00115787 0)
(0.199356 0.00109409 0)
(0.199061 0.00103148 0)
(0.19884 0.000970482 0)
(0.198543 0.000908619 0)
(0.198329 0.000850266 0)
(0.198031 0.000791745 0)
(0.197825 0.000736516 0)
(0.197529 0.000683816 0)
(0.197331 0.000633552 0)
(0.197038 0.000586357 0)
(0.196852 0.000544741 0)
(0.196562 0.000502871 0)
(0.196395 0.000472532 0)
(0.196102 0.00043594 0)
(0.195961 0.00041391 0)
(0.195665 0.000385504 0)
(0.19555 0.000369214 0)
(0.195256 0.000350085 0)
(0.195152 0.000336187 0)
(0.194866 0.000318989 0)
(0.194779 0.00030778 0)
(0.194499 0.000290474 0)
(0.194446 0.000287373 0)
(0.194154 0.000271775 0)
(0.194133 0.000274321 0)
(0.19381 0.000258053 0)
(0.199751 0.0053431 0)
(0.200012 0.0059516 0)
(0.200391 0.00652165 0)
(0.200913 0.00700382 0)
(0.201561 0.00734883 0)
(0.202285 0.00752738 0)
(0.203015 0.00754327 0)
(0.203688 0.00742835 0)
(0.204264 0.00722491 0)
(0.20473 0.00697072 0)
(0.205091 0.00669384 0)
(0.205363 0.00641402 0)
(0.205562 0.00614545 0)
(0.205706 0.00589737 0)
(0.20581 0.00567392 0)
(0.205887 0.00547456 0)
(0.205947 0.0052962 0)
(0.205996 0.00513488 0)
(0.206037 0.00498729 0)
(0.206071 0.00485089 0)
(0.206099 0.00472404 0)
(0.206121 0.00460532 0)
(0.206138 0.00449384 0)
(0.20615 0.0043886 0)
(0.206159 0.00428901 0)
(0.206164 0.00419429 0)
(0.206166 0.00410414 0)
(0.206165 0.0040179 0)
(0.206162 0.00393544 0)
(0.206155 0.00385614 0)
(0.206148 0.00378003 0)
(0.206137 0.0037064 0)
(0.206126 0.00363545 0)
(0.206111 0.00356644 0)
(0.206097 0.00349969 0)
(0.206078 0.00343436 0)
(0.206061 0.00337105 0)
(0.206037 0.00330868 0)
(0.206017 0.0032481 0)
(0.205989 0.00318807 0)
(0.205966 0.00312976 0)
(0.205932 0.0030715 0)
(0.205905 0.00301493 0)
(0.205866 0.00295802 0)
(0.205836 0.00290287 0)
(0.20579 0.00284679 0)
(0.205756 0.00279271 0)
(0.205702 0.00273711 0)
(0.205664 0.00268384 0)
(0.205601 0.00262829 0)
(0.20556 0.00257559 0)
(0.205487 0.00251972 0)
(0.205443 0.00246735 0)
(0.205359 0.00241083 0)
(0.205312 0.00235854 0)
(0.205214 0.00230111 0)
(0.205165 0.0022486 0)
(0.205054 0.00219024 0)
(0.205003 0.00213705 0)
(0.204877 0.00207783 0)
(0.204825 0.00202334 0)
(0.204684 0.00196375 0)
(0.204628 0.00190709 0)
(0.204475 0.00184767 0)
(0.204414 0.00178815 0)
(0.204252 0.00172968 0)
(0.204182 0.00166678 0)
(0.204015 0.0016093 0)
(0.203933 0.00154344 0)
(0.203763 0.00148648 0)
(0.203668 0.00141903 0)
(0.203497 0.001361 0)
(0.20339 0.00129456 0)
(0.203217 0.00123442 0)
(0.203103 0.00117092 0)
(0.202923 0.00110823 0)
(0.202807 0.00104822 0)
(0.202617 0.000985538 0)
(0.202501 0.000927784 0)
(0.202303 0.000868561 0)
(0.202188 0.000812755 0)
(0.201987 0.000760069 0)
(0.20187 0.000708927 0)
(0.201666 0.000660733 0)
(0.201552 0.000618847 0)
(0.201341 0.000573636 0)
(0.201242 0.000544536 0)
(0.201019 0.000503599 0)
(0.200939 0.000481649 0)
(0.200711 0.000450415 0)
(0.200643 0.000431701 0)
(0.200421 0.000413291 0)
(0.200349 0.00039622 0)
(0.200133 0.000378221 0)
(0.200068 0.000364436 0)
(0.199854 0.000341763 0)
(0.199824 0.000339699 0)
(0.199595 0.000319917 0)
(0.199593 0.000325736 0)
(0.199337 0.000309303 0)
(0.20002 0.00512652 0)
(0.200264 0.00565692 0)
(0.2006 0.0061532 0)
(0.201052 0.00657827 0)
(0.201608 0.00689598 0)
(0.202231 0.00708212 0)
(0.202869 0.00713386 0)
(0.203472 0.00706993 0)
(0.204003 0.00692153 0)
(0.204444 0.00672055 0)
(0.204797 0.00649291 0)
(0.20507 0.00625694 0)
(0.205278 0.00602528 0)
(0.205435 0.00580617 0)
(0.205554 0.0056042 0)
(0.205645 0.00542033 0)
(0.205718 0.00525332 0)
(0.205777 0.00510063 0)
(0.205826 0.00495985 0)
(0.205867 0.00482892 0)
(0.205901 0.00470656 0)
(0.205929 0.00459153 0)
(0.205952 0.00448317 0)
(0.205969 0.00438056 0)
(0.205983 0.00428328 0)
(0.205992 0.00419048 0)
(0.205999 0.00410207 0)
(0.206002 0.00401725 0)
(0.206005 0.00393606 0)
(0.206003 0.00385777 0)
(0.206002 0.00378263 0)
(0.205997 0.00370971 0)
(0.205994 0.00363952 0)
(0.205986 0.00357105 0)
(0.205981 0.00350494 0)
(0.205971 0.00344 0)
(0.205965 0.00337729 0)
(0.205952 0.00331525 0)
(0.205946 0.00325526 0)
(0.205931 0.00319549 0)
(0.205924 0.00313785 0)
(0.205907 0.00307983 0)
(0.2059 0.00302401 0)
(0.20588 0.0029673 0)
(0.205874 0.00291307 0)
(0.20585 0.00285714 0)
(0.205845 0.00280416 0)
(0.205817 0.00274868 0)
(0.205812 0.00269673 0)
(0.205779 0.00264122 0)
(0.205777 0.00259009 0)
(0.205737 0.00253418 0)
(0.205737 0.00248364 0)
(0.205689 0.00242702 0)
(0.205691 0.00237679 0)
(0.205635 0.00231922 0)
(0.205641 0.0022689 0)
(0.205574 0.00221053 0)
(0.205583 0.00215945 0)
(0.205505 0.00210055 0)
(0.205516 0.0020478 0)
(0.205429 0.00198924 0)
(0.20544 0.00193355 0)
(0.205346 0.00187612 0)
(0.205351 0.0018165 0)
(0.205255 0.00176124 0)
(0.205251 0.00169714 0)
(0.205155 0.00164377 0)
(0.205137 0.00157612 0)
(0.205045 0.00152347 0)
(0.205012 0.00145451 0)
(0.204921 0.00139977 0)
(0.204878 0.0013331 0)
(0.204783 0.0012746 0)
(0.204735 0.00121264 0)
(0.20463 0.00115006 0)
(0.204581 0.00109235 0)
(0.204463 0.0010296 0)
(0.204413 0.000973344 0)
(0.204287 0.000914843 0)
(0.204232 0.000858861 0)
(0.204104 0.000807687 0)
(0.204042 0.000756628 0)
(0.203909 0.000708624 0)
(0.203846 0.000668247 0)
(0.2037 0.000620163 0)
(0.203652 0.000593557 0)
(0.20349 0.000549378 0)
(0.203457 0.000527463 0)
(0.203293 0.000496075 0)
(0.203259 0.000473991 0)
(0.203107 0.000459057 0)
(0.203058 0.000439096 0)
(0.20291 0.00042135 0)
(0.202865 0.000406624 0)
(0.202713 0.00037799 0)
(0.202703 0.000377479 0)
(0.202538 0.000354088 0)
(0.20255 0.000362377 0)
(0.202365 0.000348762 0)
(0.200239 0.004918 0)
(0.200467 0.00538448 0)
(0.200767 0.00582065 0)
(0.20116 0.00619819 0)
(0.201639 0.00648997 0)
(0.202177 0.00667663 0)
(0.202735 0.006753 0)
(0.203272 0.00672952 0)
(0.203757 0.00662807 0)
(0.204172 0.00647408 0)
(0.204512 0.00629031 0)
(0.204784 0.00609374 0)
(0.204997 0.00589607 0)
(0.205163 0.00570479 0)
(0.205293 0.00552451 0)
(0.205395 0.00535703 0)
(0.205478 0.00520243 0)
(0.205545 0.00505935 0)
(0.205602 0.00492631 0)
(0.205649 0.00480167 0)
(0.20569 0.00468455 0)
(0.205722 0.00457382 0)
(0.20575 0.00446909 0)
(0.205771 0.0043695 0)
(0.205789 0.00427484 0)
(0.205801 0.00418422 0)
(0.205812 0.00409773 0)
(0.205818 0.00401447 0)
(0.205824 0.00393468 0)
(0.205825 0.00385746 0)
(0.205827 0.00378333 0)
(0.205825 0.00371112 0)
(0.205824 0.00364165 0)
(0.205819 0.00357361 0)
(0.205817 0.00350805 0)
(0.20581 0.00344332 0)
(0.205808 0.00338104 0)
(0.205798 0.00331906 0)
(0.205796 0.00325944 0)
(0.205785 0.00319959 0)
(0.205784 0.00314232 0)
(0.205771 0.0030841 0)
(0.205771 0.0030287 0)
(0.205756 0.00297168 0)
(0.205757 0.00291796 0)
(0.20574 0.00286161 0)
(0.205744 0.00280928 0)
(0.205724 0.00275325 0)
(0.205731 0.00270215 0)
(0.205707 0.00264595 0)
(0.205718 0.00259589 0)
(0.205688 0.00253917 0)
(0.205705 0.00248993 0)
(0.205668 0.0024324 0)
(0.20569 0.00238368 0)
(0.205647 0.00232522 0)
(0.205675 0.00227643 0)
(0.205623 0.00221741 0)
(0.205657 0.00216768 0)
(0.205598 0.00210865 0)
(0.205635 0.00205668 0)
(0.20557 0.001999 0)
(0.205607 0.0019431 0)
(0.20554 0.00188782 0)
(0.205572 0.00182679 0)
(0.205507 0.00177511 0)
(0.205529 0.00170854 0)
(0.20547 0.00165964 0)
(0.205478 0.00158925 0)
(0.205426 0.00154101 0)
(0.20542 0.00147022 0)
(0.205372 0.00141845 0)
(0.205357 0.00135183 0)
(0.205305 0.00129433 0)
(0.205288 0.00123449 0)
(0.205225 0.0011716 0)
(0.20521 0.00111659 0)
(0.205134 0.00105399 0)
(0.205118 0.000999174 0)
(0.205034 0.000942195 0)
(0.205011 0.000885719 0)
(0.204928 0.000836641 0)
(0.204897 0.000785836 0)
(0.20481 0.000738356 0)
(0.204777 0.000700558 0)
(0.204674 0.000649875 0)
(0.204655 0.000626018 0)
(0.204536 0.000579351 0)
(0.204529 0.00055649 0)
(0.204414 0.000526969 0)
(0.204399 0.000500764 0)
(0.204298 0.000490888 0)
(0.204262 0.000468584 0)
(0.204164 0.000450945 0)
(0.204134 0.000436633 0)