/*--------------------------------*- C++ -*----------------------------------*\
| =========                 |                                                 |
| \\      /  F ield         | OpenFOAM: The Open Source CFD Toolbox           |
|  \\    /   O peration     | Version:  2.3.0                                 |
|   \\  /    A nd           | Web:      www.OpenFOAM.org                      |
|    \\/     M anipulation  |                                                 |
\*---------------------------------------------------------------------------*/
FoamFile
{
    version     2.0;
    format      ascii;
    class       volScalarField;
    location    "0.1";
    object      p;
}
// * * * * * * * * * * * * * * * * * * * * * * * * * * * * * * * * * * * * * //

dimensions      [0 2 -2 0 0 0 0];

internalField   nonuniform List<scalar> 
3375
(
0.00235826
0.00201866
0.00141912
0.000866057
0.000375306
-2.09085e-05
-0.000299582
-0.00054238
-0.000718433
-0.000774822
-0.000777429
-0.000771867
-0.000746093
-0.000705087
-0.000676371
-0.000660544
-0.000642893
-0.000621981
-0.000608558
-0.000599523
-0.000588481
-0.000576964
-0.00055955
-0.000542215
-0.000527773
-0.000504793
-0.000476098
-0.000448221
-0.000414761
-0.000376887
-0.000338209
-0.000302053
-0.000269866
-0.000242448
-0.000219573
-0.000199899
-0.000183205
-0.000168851
-0.000156069
-0.000144491
-0.000133602
-0.000123248
-0.000113734
-0.000104712
-9.634e-05
-8.8729e-05
-8.17668e-05
-7.52135e-05
-6.9263e-05
-6.39168e-05
-5.89072e-05
-5.42197e-05
-4.99835e-05
-4.60634e-05
-4.23412e-05
-3.89258e-05
-3.58334e-05
-3.29349e-05
-3.02145e-05
-2.77384e-05
-2.54762e-05
-2.33633e-05
-2.14022e-05
-1.96092e-05
-1.79597e-05
-1.64286e-05
-1.50159e-05
-1.37207e-05
-1.2529e-05
-1.14287e-05
-1.04169e-05
-9.48883e-06
-8.63682e-06
-7.8536e-06
-7.13542e-06
-6.47758e-06
-5.8751e-06
-5.32324e-06
-4.81802e-06
-4.35588e-06
-3.9328e-06
-3.54574e-06
-3.19129e-06
-2.86701e-06
-2.56971e-06
-2.29762e-06
-2.04763e-06
-1.81856e-06
-1.60754e-06
-1.41366e-06
-1.23417e-06
-1.06851e-06
-9.14032e-07
-7.70337e-07
-6.35053e-07
-5.08021e-07
-3.86746e-07
-2.71292e-07
-1.59848e-07
-5.26273e-08
0.00199335
0.00175256
0.00131083
0.000848639
0.000397486
1.81687e-05
-0.000247625
-0.000482988
-0.000666576
-0.000725557
-0.000736964
-0.000744849
-0.000726067
-0.000686786
-0.000662374
-0.000651568
-0.000636458
-0.000615561
-0.000603044
-0.000595565
-0.000585018
-0.00057479
-0.000557277
-0.000539879
-0.000527328
-0.000504743
-0.000475596
-0.000448784
-0.000416712
-0.000377768
-0.000338824
-0.000302538
-0.000270176
-0.000242593
-0.000219701
-0.000199932
-0.000183212
-0.000168877
-0.00015609
-0.000144541
-0.000133665
-0.000123277
-0.000113777
-0.000104736
-9.63572e-05
-8.8736e-05
-8.17917e-05
-7.52165e-05
-6.92592e-05
-6.39306e-05
-5.89209e-05
-5.42195e-05
-4.99896e-05
-4.60776e-05
-4.23454e-05
-3.8926e-05
-3.58413e-05
-3.29432e-05
-3.02163e-05
-2.77406e-05
-2.54818e-05
-2.33678e-05
-2.14044e-05
-1.96119e-05
-1.79632e-05
-1.64313e-05
-1.50179e-05
-1.37229e-05
-1.25313e-05
-1.14306e-05
-1.04186e-05
-9.49048e-06
-8.63843e-06
-7.85502e-06
-7.1367e-06
-6.4788e-06
-5.87624e-06
-5.32429e-06
-4.81897e-06
-4.35678e-06
-3.93361e-06
-3.54649e-06
-3.19196e-06
-2.86764e-06
-2.57026e-06
-2.29814e-06
-2.04808e-06
-1.81898e-06
-1.60791e-06
-1.41399e-06
-1.23446e-06
-1.06876e-06
-9.14248e-07
-7.705e-07
-6.35188e-07
-5.08113e-07
-3.86937e-07
-2.71278e-07
-1.5977e-07
-5.26934e-08
0.00180555
0.0015777
0.00122051
0.000853872
0.000422348
8.97645e-05
-0.000165469
-0.000403804
-0.00058764
-0.000646243
-0.000671148
-0.00069837
-0.000693658
-0.000660488
-0.000642127
-0.000637464
-0.00062519
-0.000604111
-0.000592878
-0.000587749
-0.000577615
-0.000569244
-0.000551789
-0.000533926
-0.000523491
-0.000501297
-0.000471882
-0.000446504
-0.000415547
-0.000376032
-0.000338229
-0.000302461
-0.000269692
-0.000242789
-0.000219979
-0.000200039
-0.000183291
-0.000168936
-0.000156074
-0.000144535
-0.000133671
-0.000123232
-0.000113786
-0.000104669
-9.63134e-05
-8.86924e-05
-8.17757e-05
-7.51695e-05
-6.92106e-05
-6.39009e-05
-5.88947e-05
-5.41831e-05
-4.99632e-05
-4.60596e-05
-4.23182e-05
-3.89e-05
-3.58253e-05
-3.29275e-05
-3.0196e-05
-2.77244e-05
-2.54705e-05
-2.33555e-05
-2.13915e-05
-1.96015e-05
-1.79545e-05
-1.64224e-05
-1.50095e-05
-1.37158e-05
-1.2525e-05
-1.14245e-05
-1.04129e-05
-9.48559e-06
-8.63403e-06
-7.85094e-06
-7.133e-06
-6.47556e-06
-5.87332e-06
-5.32171e-06
-4.81662e-06
-4.35472e-06
-3.93177e-06
-3.54486e-06
-3.19052e-06
-2.86638e-06
-2.56914e-06
-2.29717e-06
-2.04725e-06
-1.81825e-06
-1.60731e-06
-1.41347e-06
-1.23407e-06
-1.06842e-06
-9.14039e-07
-7.70287e-07
-6.35215e-07
-5.07898e-07
-3.86751e-07
-2.71234e-07
-1.59647e-07
-5.32452e-08
0.00158386
0.00141444
0.00113486
0.000819484
0.000443629
0.000114713
-9.07521e-05
-0.000327106
-0.000523234
-0.000554951
-0.000596226
-0.000637986
-0.000643785
-0.000620306
-0.000609461
-0.000612411
-0.000605223
-0.000583812
-0.000573663
-0.000572361
-0.000562852
-0.000556089
-0.000539076
-0.000521407
-0.000513108
-0.000491307
-0.000462447
-0.000439151
-0.000409077
-0.000371203
-0.000335742
-0.000301196
-0.000268663
-0.000242781
-0.000220266
-0.000200174
-0.000183399
-0.000169016
-0.000156009
-0.000144426
-0.000133584
-0.000123139
-0.000113644
-0.000104729
-9.61735e-05
-8.8592e-05
-8.16975e-05
-7.51032e-05
-6.91473e-05
-6.38504e-05
-5.88378e-05
-5.41216e-05
-4.99129e-05
-4.60126e-05
-4.22643e-05
-3.88529e-05
-3.57894e-05
-3.28897e-05
-3.01568e-05
-2.7693e-05
-2.54446e-05
-2.33285e-05
-2.13656e-05
-1.958e-05
-1.79351e-05
-1.64032e-05
-1.49918e-05
-1.37007e-05
-1.25111e-05
-1.14112e-05
-1.04009e-05
-9.47501e-06
-8.62441e-06
-7.84204e-06
-7.12499e-06
-6.46846e-06
-5.86695e-06
-5.31599e-06
-4.81148e-06
-4.35015e-06
-3.9277e-06
-3.54123e-06
-3.1873e-06
-2.86354e-06
-2.56665e-06
-2.29499e-06
-2.04538e-06
-1.81663e-06
-1.60596e-06
-1.41234e-06
-1.23317e-06
-1.06769e-06
-9.13517e-07
-7.69891e-07
-6.35058e-07
-5.07656e-07
-3.86577e-07
-2.71308e-07
-1.59808e-07
-5.3915e-08
0.00140536
0.00126641
0.00103317
0.000756254
0.000468861
0.000139295
-3.88852e-05
-0.000230081
-0.00045425
-0.000485285
-0.000527481
-0.000584355
-0.000589526
-0.000575259
-0.0005725
-0.000580298
-0.000579188
-0.000557419
-0.000546902
-0.000550583
-0.000543094
-0.000538379
-0.0005201
-0.000503085
-0.000496742
-0.000474467
-0.000447599
-0.000427137
-0.000397976
-0.000362586
-0.000330311
-0.000297677
-0.000266727
-0.000242019
-0.000220075
-0.000199959
-0.000183263
-0.000168915
-0.000155748
-0.000144107
-0.000133308
-0.000122884
-0.000113348
-0.000104678
-9.59811e-05
-8.84065e-05
-8.15556e-05
-7.50048e-05
-6.9042e-05
-6.37607e-05
-5.87388e-05
-5.4026e-05
-4.98295e-05
-4.59265e-05
-4.21747e-05
-3.87782e-05
-3.57269e-05
-3.28231e-05
-3.00927e-05
-2.76415e-05
-2.53991e-05
-2.3282e-05
-2.13227e-05
-1.95437e-05
-1.79015e-05
-1.63704e-05
-1.49622e-05
-1.36748e-05
-1.24872e-05
-1.13885e-05
-1.03805e-05
-9.45693e-06
-8.60791e-06
-7.82682e-06
-7.1113e-06
-6.45627e-06
-5.856e-06
-5.3061e-06
-4.80261e-06
-4.34224e-06
-3.92065e-06
-3.53493e-06
-3.1817e-06
-2.85859e-06
-2.56229e-06
-2.29117e-06
-2.04207e-06
-1.81376e-06
-1.60354e-06
-1.4103e-06
-1.2315e-06
-1.06634e-06
-9.12472e-07
-7.69143e-07
-6.34509e-07
-5.07429e-07
-3.86493e-07
-2.71319e-07
-1.59822e-07
-5.47257e-08
0.00125677
0.00113388
0.000933284
0.000712976
0.000463081
0.000177801
3.39937e-06
-0.000163704
-0.000348388
-0.00043584
-0.000469239
-0.000523576
-0.000540286
-0.000529854
-0.00054106
-0.000544338
-0.000535701
-0.000536145
-0.000527773
-0.00052717
-0.000516002
-0.000516576
-0.000500993
-0.000484431
-0.000477827
-0.000453597
-0.000430393
-0.000412947
-0.00038348
-0.000351637
-0.00032364
-0.000292713
-0.000263234
-0.000240181
-0.000219008
-0.000199057
-0.000182657
-0.000168431
-0.000155127
-0.000143469
-0.000132738
-0.00012234
-0.000112905
-0.000104251
-9.57299e-05
-8.81565e-05
-8.13433e-05
-7.48006e-05
-6.88602e-05
-6.35959e-05
-5.85713e-05
-5.38761e-05
-4.97033e-05
-4.57867e-05
-4.20342e-05
-3.86643e-05
-3.5627e-05
-3.27169e-05
-2.99936e-05
-2.75616e-05
-2.53262e-05
-2.32087e-05
-2.12563e-05
-1.94867e-05
-1.78482e-05
-1.6319e-05
-1.4916e-05
-1.36343e-05
-1.24495e-05
-1.13531e-05
-1.03485e-05
-9.42849e-06
-8.58192e-06
-7.80288e-06
-7.08973e-06
-6.43703e-06
-5.83864e-06
-5.29041e-06
-4.78853e-06
-4.32964e-06
-3.90936e-06
-3.52483e-06
-3.17271e-06
-2.85059e-06
-2.55524e-06
-2.28492e-06
-2.03664e-06
-1.80902e-06
-1.59949e-06
-1.40682e-06
-1.22862e-06
-1.06395e-06
-9.1068e-07
-7.6766e-07
-6.33426e-07
-5.06687e-07
-3.86051e-07
-2.71062e-07
-1.5977e-07
-5.54767e-08
0.00113194
0.00102279
0.000847377
0.000665315
0.00044302
0.000214608
3.8818e-05
-0.00011466
-0.000256911
-0.0003901
-0.000411529
-0.000460635
-0.000489492
-0.000486943
-0.000504233
-0.000506914
-0.000502576
-0.000516948
-0.000506972
-0.000498566
-0.000493937
-0.00048294
-0.000482828
-0.000469088
-0.000458913
-0.000429814
-0.000413146
-0.000398757
-0.000367657
-0.00034004
-0.000316229
-0.000286308
-0.000258533
-0.000237531
-0.00021714
-0.000197457
-0.000181552
-0.000167526
-0.000154118
-0.000142506
-0.000131883
-0.000121547
-0.000112214
-0.000103658
-9.52886e-05
-8.77665e-05
-8.09926e-05
-7.44803e-05
-6.85831e-05
-6.33422e-05
-5.83205e-05
-5.36541e-05
-4.95077e-05
-4.55835e-05
-4.18338e-05
-3.84995e-05
-3.54798e-05
-3.25651e-05
-2.9853e-05
-2.74457e-05
-2.52203e-05
-2.31043e-05
-2.11616e-05
-1.94045e-05
-1.77716e-05
-1.62459e-05
-1.48502e-05
-1.35761e-05
-1.23956e-05
-1.13024e-05
-1.03028e-05
-9.38774e-06
-8.54462e-06
-7.76857e-06
-7.05878e-06
-6.40933e-06
-5.81361e-06
-5.26777e-06
-4.76817e-06
-4.31137e-06
-3.89299e-06
-3.51014e-06
-3.15961e-06
-2.83889e-06
-2.54488e-06
-2.27573e-06
-2.02859e-06
-1.80195e-06
-1.59339e-06
-1.40154e-06
-1.22417e-06
-1.0602e-06
-9.07611e-07
-7.65204e-07
-6.31536e-07
-5.05303e-07
-3.85112e-07
-2.70504e-07
-1.59558e-07
-5.59547e-08
0.00102249
0.000921115
0.000765028
0.000618827
0.000432013
0.000229508
7.17621e-05
-6.50691e-05
-0.000213613
-0.000327797
-0.000355358
-0.00040879
-0.000430864
-0.000453046
-0.000463879
-0.000477534
-0.000483115
-0.000473561
-0.000481545
-0.000473893
-0.000468939
-0.000456371
-0.000457382
-0.000452536
-0.00044315
-0.000406123
-0.000399556
-0.000383816
-0.000350773
-0.000328638
-0.000308297
-0.000278893
-0.000253107
-0.000234198
-0.00021447
-0.000195208
-0.000180004
-0.000166202
-0.000152709
-0.00014123
-0.000130764
-0.000120503
-0.000111324
-0.000102896
-9.46477e-05
-8.72222e-05
-8.05018e-05
-7.4031e-05
-6.81951e-05
-6.29886e-05
-5.79762e-05
-5.33487e-05
-4.92402e-05
-4.53115e-05
-4.1567e-05
-3.8277e-05
-3.52813e-05
-3.2364e-05
-2.96663e-05
-2.72896e-05
-2.50781e-05
-2.29657e-05
-2.10358e-05
-1.92945e-05
-1.76693e-05
-1.61487e-05
-1.47627e-05
-1.34985e-05
-1.23236e-05
-1.12351e-05
-1.0242e-05
-9.33341e-06
-8.49486e-06
-7.7228e-06
-7.01746e-06
-6.37229e-06
-5.78012e-06
-5.23743e-06
-4.74087e-06
-4.28685e-06
-3.87097e-06
-3.49036e-06
-3.14192e-06
-2.82308e-06
-2.53083e-06
-2.26324e-06
-2.0176e-06
-1.79229e-06
-1.58498e-06
-1.39426e-06
-1.21793e-06
-1.05492e-06
-9.03222e-07
-7.61644e-07
-6.28714e-07
-5.03182e-07
-3.83586e-07
-2.69552e-07
-1.59107e-07
-5.61261e-08
0.000924698
0.000826898
0.000696348
0.000570335
0.000420077
0.000238126
8.98522e-05
-1.83021e-05
-0.00017275
-0.000276496
-0.000305924
-0.000362079
-0.000382353
-0.000414741
-0.000426226
-0.000445809
-0.000452218
-0.00043581
-0.000458837
-0.00044987
-0.000438913
-0.000435107
-0.000436437
-0.000430265
-0.000407822
-0.000393197
-0.000389912
-0.000366957
-0.00033403
-0.000318608
-0.000299912
-0.000270645
-0.000247238
-0.000230354
-0.000211077
-0.000192389
-0.000178005
-0.000164376
-0.000150863
-0.000139667
-0.000129414
-0.000119231
-0.000110241
-0.000101952
-9.38133e-05
-8.65122e-05
-7.98617e-05
-7.34433e-05
-6.76875e-05
-6.25291e-05
-5.75316e-05
-5.29523e-05
-4.88934e-05
-4.49647e-05
-4.12278e-05
-3.79914e-05
-3.50273e-05
-3.21098e-05
-2.943e-05
-2.70899e-05
-2.48966e-05
-2.27902e-05
-2.08762e-05
-1.91542e-05
-1.75391e-05
-1.60256e-05
-1.46518e-05
-1.33999e-05
-1.22322e-05
-1.11496e-05
-1.01648e-05
-9.2644e-06
-8.43158e-06
-7.66459e-06
-6.96491e-06
-6.32515e-06
-5.73745e-06
-5.19873e-06
-4.70602e-06
-4.25554e-06
-3.84281e-06
-3.46504e-06
-3.11925e-06
-2.8028e-06
-2.51277e-06
-2.24718e-06
-2.00341e-06
-1.77979e-06
-1.57405e-06
-1.38475e-06
-1.20976e-06
-1.04796e-06
-8.97381e-07
-7.56858e-07
-6.24862e-07
-5.00236e-07
-3.81414e-07
-2.68144e-07
-1.58385e-07
-5.60377e-08
0.00083066
0.000745669
0.000636855
0.000517926
0.000406936
0.000244617
9.89322e-05
1.54365e-05
-0.000119307
-0.000240207
-0.000260828
-0.000316903
-0.000353536
-0.000369977
-0.000388279
-0.000409231
-0.000417519
-0.000419645
-0.00042641
-0.000419904
-0.000421666
-0.000409894
-0.000414313
-0.000397054
-0.000377424
-0.000389257
-0.000375251
-0.000346103
-0.000318578
-0.000310488
-0.000290567
-0.000261307
-0.000240812
-0.000225883
-0.000206928
-0.000189043
-0.000175561
-0.000162025
-0.000148568
-0.000137834
-0.000127833
-0.000117708
-0.000108929
-0.000100798
-9.27742e-05
-8.56255e-05
-7.90644e-05
-7.27097e-05
-6.70517e-05
-6.19565e-05
-5.69781e-05
-5.24561e-05
-4.84603e-05
-4.45363e-05
-4.08081e-05
-3.76364e-05
-3.47128e-05
-3.17982e-05
-2.91396e-05
-2.68427e-05
-2.46722e-05
-2.25747e-05
-2.06799e-05
-1.89811e-05
-1.73785e-05
-1.58741e-05
-1.45154e-05
-1.32786e-05
-1.21195e-05
-1.10442e-05
-1.007e-05
-9.17948e-06
-8.35358e-06
-7.59279e-06
-6.90014e-06
-6.26703e-06
-5.68478e-06
-5.15093e-06
-4.66297e-06
-4.21684e-06
-3.80798e-06
-3.43369e-06
-3.09115e-06
-2.77766e-06
-2.49035e-06
-2.22722e-06
-1.98573e-06
-1.7642e-06
-1.56037e-06
-1.37283e-06
-1.19946e-06
-1.03916e-06
-8.89958e-07
-7.50724e-07
-6.19889e-07
-4.96384e-07
-3.78542e-07
-2.66233e-07
-1.57363e-07
-5.57405e-08
0.000748983
0.000677124
0.000577032
0.000477715
0.000387806
0.00024244
0.000114804
3.41652e-05
-8.54624e-05
-0.000209343
-0.000213306
-0.000266066
-0.000328166
-0.000328987
-0.000354064
-0.000378404
-0.000372892
-0.000400461
-0.000398401
-0.00039937
-0.000399716
-0.000389725
-0.000386119
-0.00037545
-0.00036697
-0.000369093
-0.00035436
-0.000319202
-0.000308247
-0.000303305
-0.000280297
-0.00025161
-0.000234306
-0.000220738
-0.00020191
-0.000185178
-0.000172704
-0.000159161
-0.000145812
-0.000135709
-0.000125938
-0.000115867
-0.000107367
-9.94397e-05
-9.15291e-05
-8.45549e-05
-7.81027e-05
-7.18215e-05
-6.62775e-05
-6.12596e-05
-5.63045e-05
-5.1851e-05
-4.79347e-05
-4.40193e-05
-4.02984e-05
-3.72053e-05
-3.43322e-05
-3.14236e-05
-2.879e-05
-2.65438e-05
-2.44014e-05
-2.23156e-05
-2.04438e-05
-1.87722e-05
-1.71846e-05
-1.56916e-05
-1.43516e-05
-1.31327e-05
-1.19834e-05
-1.09171e-05
-9.95578e-06
-9.07728e-06
-8.25947e-06
-7.50613e-06
-6.82206e-06
-6.19696e-06
-5.62121e-06
-5.09321e-06
-4.61097e-06
-4.17009e-06
-3.76587e-06
-3.39578e-06
-3.05715e-06
-2.74721e-06
-2.46315e-06
-2.203e-06
-1.96424e-06
-1.74522e-06
-1.54369e-06
-1.35827e-06
-1.18686e-06
-1.02834e-06
-8.80808e-07
-7.43117e-07
-6.13698e-07
-4.91538e-07
-3.74913e-07
-2.63771e-07
-1.56008e-07
-5.52724e-08
0.000678157
0.000611478
0.000529241
0.000441073
0.000353616
0.000245388
0.000129249
3.81598e-05
-4.87004e-05
-0.000166263
-0.000179433
-0.000219681
-0.000302495
-0.000296256
-0.000319146
-0.000344782
-0.000343022
-0.000372819
-0.000373881
-0.000378063
-0.00036957
-0.000369667
-0.000365969
-0.000355329
-0.000344562
-0.000345356
-0.000335402
-0.000296866
-0.000300512
-0.000291851
-0.000267847
-0.000241642
-0.000228217
-0.000215137
-0.000196138
-0.000180812
-0.000169347
-0.000155751
-0.000142698
-0.000133446
-0.000123773
-0.000113686
-0.000105556
-9.78862e-05
-9.00705e-05
-8.32787e-05
-7.69592e-05
-7.07686e-05
-6.53627e-05
-6.04333e-05
-5.54989e-05
-5.11284e-05
-4.73131e-05
-4.34077e-05
-3.96872e-05
-3.66918e-05
-3.38814e-05
-3.0981e-05
-2.83759e-05
-2.61895e-05
-2.40804e-05
-2.2009e-05
-2.01643e-05
-1.85244e-05
-1.69544e-05
-1.54752e-05
-1.41579e-05
-1.296e-05
-1.18219e-05
-1.07662e-05
-9.82068e-06
-8.95635e-06
-8.14777e-06
-7.40319e-06
-6.72948e-06
-6.11391e-06
-5.54575e-06
-5.02466e-06
-4.54925e-06
-4.11459e-06
-3.71584e-06
-3.35071e-06
-3.0167e-06
-2.71098e-06
-2.43077e-06
-2.17413e-06
-1.93861e-06
-1.72256e-06
-1.52375e-06
-1.34083e-06
-1.17173e-06
-1.01534e-06
-8.69774e-07
-7.33909e-07
-6.06181e-07
-4.85612e-07
-3.70462e-07
-2.60709e-07
-1.54293e-07
-5.46537e-08
0.000618033
0.000550846
0.000488589
0.000402427
0.000323517
0.000243173
0.000116688
4.69539e-05
-3.46676e-06
-0.000127512
-0.000156789
-0.000184517
-0.000266072
-0.000271026
-0.000280346
-0.000304237
-0.000331583
-0.000340827
-0.000346656
-0.000349374
-0.000344679
-0.000353264
-0.000342358
-0.000336801
-0.000322607
-0.000326867
-0.000318675
-0.000284962
-0.000282752
-0.000277744
-0.000254462
-0.000230945
-0.000221619
-0.000208441
-0.000189796
-0.000176387
-0.000165585
-0.000151561
-0.000139014
-0.000130928
-0.00012132
-0.000111162
-0.000103481
-9.61052e-05
-8.83912e-05
-8.17839e-05
-7.56063e-05
-6.95255e-05
-6.43011e-05
-5.94753e-05
-5.45485e-05
-5.028e-05
-4.65935e-05
-4.26937e-05
-3.89589e-05
-3.60903e-05
-3.33563e-05
-3.04647e-05
-2.78919e-05
-2.57758e-05
-2.37054e-05
-2.16509e-05
-1.98381e-05
-1.82348e-05
-1.66845e-05
-1.52218e-05
-1.39323e-05
-1.27586e-05
-1.16323e-05
-1.05892e-05
-9.66306e-06
-8.8152e-06
-8.01688e-06
-7.28252e-06
-6.62121e-06
-6.01683e-06
-5.45739e-06
-4.94433e-06
-4.47697e-06
-4.0496e-06
-3.6572e-06
-3.29788e-06
-2.96927e-06
-2.66847e-06
-2.39275e-06
-2.14023e-06
-1.90848e-06
-1.69589e-06
-1.50027e-06
-1.32026e-06
-1.15387e-06
-9.99945e-07
-8.5669e-07
-7.22964e-07
-5.97219e-07
-4.78516e-07
-3.65116e-07
-2.56999e-07
-1.52188e-07
-5.38898e-08
0.000560549
0.000492096
0.000451125
0.000370949
0.000295655
0.000229147
9.87713e-05
7.36377e-05
1.73484e-05
-0.000104087
-0.00012247
-0.000157208
-0.000228183
-0.000243186
-0.000249442
-0.000275214
-0.000306165
-0.000311088
-0.000323024
-0.000318789
-0.000325144
-0.000328425
-0.000320306
-0.000316195
-0.000305382
-0.000298072
-0.000316562
-0.000273834
-0.00026044
-0.000260858
-0.000239146
-0.000220899
-0.000214999
-0.000200332
-0.000182648
-0.000171651
-0.000161283
-0.000146685
-0.000134912
-0.000127937
-0.000118322
-0.000108265
-0.000101209
-9.40735e-05
-8.64654e-05
-8.00889e-05
-7.40551e-05
-6.8078e-05
-6.30778e-05
-5.83699e-05
-5.34321e-05
-4.93025e-05
-4.57757e-05
-4.18641e-05
-3.80913e-05
-3.53963e-05
-3.27524e-05
-2.9867e-05
-2.73315e-05
-2.52991e-05
-2.32726e-05
-2.12367e-05
-1.94614e-05
-1.79001e-05
-1.63714e-05
-1.49284e-05
-1.36726e-05
-1.25263e-05
-1.14122e-05
-1.03838e-05
-9.48129e-06
-8.65228e-06
-7.86506e-06
-7.14252e-06
-6.49601e-06
-5.90461e-06
-5.35504e-06
-4.85125e-06
-4.39329e-06
-3.97437e-06
-3.58927e-06
-3.23663e-06
-2.91428e-06
-2.61919e-06
-2.34864e-06
-2.10086e-06
-1.87347e-06
-1.66489e-06
-1.47294e-06
-1.2963e-06
-1.13304e-06
-9.81975e-07
-8.41388e-07
-7.10139e-07
-5.86695e-07
-4.70157e-07
-3.58802e-07
-2.52594e-07
-1.49666e-07
-5.29768e-08
0.000506147
0.000447262
0.000412722
0.000343715
0.000268081
0.000210897
0.000112903
7.63471e-05
2.7068e-05
-7.10911e-05
-0.000110208
-0.000136637
-0.00020096
-0.000208959
-0.000223585
-0.000254704
-0.000271676
-0.000278827
-0.000303445
-0.000295165
-0.000295662
-0.000301506
-0.000301619
-0.000286893
-0.000293717
-0.000286096
-0.000274164
-0.00026514
-0.000259244
-0.000245924
-0.00022557
-0.000211751
-0.000207117
-0.000191091
-0.000175361
-0.000166603
-0.00015609
-0.000141363
-0.000131278
-0.00012505
-0.000114715
-0.000104835
-9.8765e-05
-9.18085e-05
-8.41992e-05
-7.81162e-05
-7.22891e-05
-6.64468e-05
-6.17153e-05
-5.70988e-05
-5.21035e-05
-4.81966e-05
-4.48752e-05
-4.09107e-05
-3.70581e-05
-3.46093e-05
-3.20655e-05
-2.91805e-05
-2.66903e-05
-2.47568e-05
-2.27772e-05
-2.07612e-05
-1.90305e-05
-1.75169e-05
-1.6011e-05
-1.45914e-05
-1.33768e-05
-1.22608e-05
-1.11584e-05
-1.01475e-05
-9.27381e-06
-8.46594e-06
-7.69039e-06
-6.98148e-06
-6.35261e-06
-5.77611e-06
-5.23754e-06
-4.74435e-06
-4.29733e-06
-3.88809e-06
-3.51127e-06
-3.16629e-06
-2.85113e-06
-2.56256e-06
-2.29793e-06
-2.0556e-06
-1.83321e-06
-1.6292e-06
-1.44147e-06
-1.26868e-06
-1.109e-06
-9.6122e-07
-8.23688e-07
-6.95281e-07
-5.74486e-07
-4.60436e-07
-3.51443e-07
-2.47447e-07
-1.46695e-07
-5.19058e-08
0.000431513
0.000422072
0.000385268
0.000313414
0.000242542
0.000201508
0.000110969
8.48474e-05
3.84756e-05
-3.61659e-05
-0.000103212
-0.000120519
-0.000171529
-0.000188921
-0.000198122
-0.000238594
-0.000240594
-0.000247869
-0.00026391
-0.00027846
-0.000274051
-0.000285604
-0.000270733
-0.000272539
-0.000277644
-0.000273175
-0.000226233
-0.000257747
-0.000256002
-0.000232367
-0.000213304
-0.000205932
-0.00019934
-0.000180611
-0.000168288
-0.000161562
-0.000149899
-0.000134221
-0.000127186
-0.000121945
-0.00011082
-0.000101099
-9.6136e-05
-8.93627e-05
-8.17251e-05
-7.58638e-05
-7.01742e-05
-6.45533e-05
-6.02339e-05
-5.56909e-05
-5.05272e-05
-4.69375e-05
-4.38761e-05
-3.98242e-05
-3.58413e-05
-3.37363e-05
-3.12841e-05
-2.83947e-05
-2.5967e-05
-2.41492e-05
-2.22147e-05
-2.02183e-05
-1.85419e-05
-1.70819e-05
-1.55989e-05
-1.42077e-05
-1.30434e-05
-1.19595e-05
-1.08675e-05
-9.87778e-06
-9.03923e-06
-8.25448e-06
-7.49077e-06
-6.79763e-06
-6.18976e-06
-5.6302e-06
-5.10366e-06
-4.62255e-06
-4.1882e-06
-3.78997e-06
-3.42245e-06
-3.08617e-06
-2.77921e-06
-2.49806e-06
-2.24014e-06
-2.00398e-06
-1.78728e-06
-1.58846e-06
-1.40553e-06
-1.23712e-06
-1.08151e-06
-9.37467e-07
-8.03408e-07
-6.78238e-07
-5.60466e-07
-4.49251e-07
-3.42964e-07
-2.41507e-07
-1.43244e-07
-5.06664e-08
0.000374775
0.000396329
0.00035691
0.000278534
0.000222386
0.00019836
0.000121532
7.94347e-05
4.21738e-05
-1.40626e-05
-8.67735e-05
-0.000104552
-0.000138632
-0.000180438
-0.00017675
-0.000210847
-0.000214513
-0.000228488
-0.000234476
-0.00024992
-0.000258992
-0.000258085
-0.000251368
-0.000260175
-0.000255781
-0.000246766
-0.000232466
-0.000241045
-0.000232451
-0.000211504
-0.000199852
-0.000202265
-0.000190997
-0.000168544
-0.000162071
-0.000155246
-0.000143264
-0.000127884
-0.000123365
-0.00011716
-0.000105918
-9.74271e-05
-9.34282e-05
-8.63946e-05
-7.90295e-05
-7.35898e-05
-6.7799e-05
-6.23776e-05
-5.85428e-05
-5.40756e-05
-4.87799e-05
-4.56396e-05
-4.2709e-05
-3.85137e-05
-3.44383e-05
-3.28151e-05
-3.03956e-05
-2.74915e-05
-2.51588e-05
-2.34754e-05
-2.15796e-05
-1.96019e-05
-1.7993e-05
-1.65916e-05
-1.51301e-05
-1.37744e-05
-1.26711e-05
-1.16197e-05
-1.05358e-05
-9.5721e-06
-8.77643e-06
-8.01611e-06
-7.26391e-06
-6.58911e-06
-6.00632e-06
-5.46571e-06
-4.95212e-06
-4.48474e-06
-4.06505e-06
-3.67918e-06
-3.32201e-06
-2.99555e-06
-2.69788e-06
-2.4251e-06
-2.17475e-06
-1.94556e-06
-1.73527e-06
-1.54232e-06
-1.36479e-06
-1.20133e-06
-1.05031e-06
-9.10497e-07
-7.80362e-07
-6.5885e-07
-5.44503e-07
-4.36499e-07
-3.33286e-07
-2.34721e-07
-1.39281e-07
-4.92482e-08
0.000355321
0.000350416
0.000318919
0.000247992
0.000208252
0.000192362
0.000133197
6.14351e-05
4.3116e-05
1.86384e-06
-7.47757e-05
-8.795e-05
-0.000112421
-0.000168007
-0.000145039
-0.000184861
-0.000191722
-0.000205937
-0.00021908
-0.000225935
-0.00023476
-0.000225155
-0.00024151
-0.000237558
-0.000235947
-0.000230025
-0.000226892
-0.000218527
-0.000213456
-0.000191803
-0.000188573
-0.000192139
-0.000180174
-0.000156209
-0.000156074
-0.000149062
-0.000134356
-0.000121955
-0.000121089
-0.000111848
-9.9235e-05
-9.36537e-05
-9.07787e-05
-8.27955e-05
-7.581e-05
-7.11427e-05
-6.51073e-05
-6.00906e-05
-5.68189e-05
-5.1986e-05
-4.65654e-05
-4.44807e-05
-4.16197e-05
-3.67928e-05
-3.28518e-05
-3.18657e-05
-2.94132e-05
-2.64878e-05
-2.42795e-05
-2.27318e-05
-2.08612e-05
-1.89035e-05
-1.73807e-05
-1.60409e-05
-1.45983e-05
-1.32889e-05
-1.22595e-05
-1.12385e-05
-1.01588e-05
-9.22815e-06
-8.48467e-06
-7.74885e-06
-7.00719e-06
-6.35406e-06
-5.80128e-06
-5.28149e-06
-4.78151e-06
-4.32983e-06
-3.92706e-06
-3.55491e-06
-3.20911e-06
-2.89371e-06
-2.60653e-06
-2.34311e-06
-2.10123e-06
-1.87985e-06
-1.67678e-06
-1.4904e-06
-1.31893e-06
-1.16103e-06
-1.01516e-06
-8.80088e-07
-7.5436e-07
-6.36957e-07
-5.26464e-07
-4.22075e-07
-3.22326e-07
-2.27033e-07
-1.34779e-07
-4.76398e-08
0.000320229
0.00031635
0.000281745
0.000227859
0.000195696
0.000173861
0.000127186
6.34722e-05
3.9272e-05
5.11183e-06
-6.43896e-05
-6.70437e-05
-8.29751e-05
-0.000135069
-0.000137556
-0.000149399
-0.000180564
-0.000187494
-0.000193324
-0.000210418
-0.000209884
-0.000211925
-0.000224429
-0.000211723
-0.000210387
-0.000212255
-0.000217626
-0.000196329
-0.000193506
-0.000181798
-0.000180836
-0.000178643
-0.000166335
-0.000147673
-0.000148086
-0.000139987
-0.000120135
-0.000119682
-0.000117955
-0.000106383
-9.37579e-05
-9.0921e-05
-8.74515e-05
-7.84869e-05
-7.23663e-05
-6.85263e-05
-6.18095e-05
-5.74227e-05
-5.4896e-05
-4.99638e-05
-4.40698e-05
-4.26894e-05
-4.05283e-05
-3.49544e-05
-3.15545e-05
-3.07649e-05
-2.82045e-05
-2.53902e-05
-2.33719e-05
-2.19253e-05
-2.00489e-05
-1.81169e-05
-1.67064e-05
-1.54257e-05
-1.39974e-05
-1.27505e-05
-1.18073e-05
-1.08113e-05
-9.73127e-06
-8.84431e-06
-8.16383e-06
-7.45035e-06
-6.7176e-06
-6.0907e-06
-5.57393e-06
-5.07633e-06
-4.59033e-06
-4.15676e-06
-3.7735e-06
-3.41631e-06
-3.08291e-06
-2.77993e-06
-2.50453e-06
-2.25151e-06
-2.01906e-06
-1.80641e-06
-1.61137e-06
-1.43233e-06
-1.26761e-06
-1.11592e-06
-9.75782e-07
-8.46018e-07
-7.25214e-07
-6.124e-07
-5.06217e-07
-4.05875e-07
-3.10003e-07
-2.18383e-07
-1.29717e-07
-4.58293e-08
0.000297656
0.000279788
0.000244969
0.000214072
0.000176111
0.000157007
0.000123965
6.62224e-05
2.77919e-05
8.76144e-06
-5.47968e-05
-5.13411e-05
-5.97399e-05
-0.000106667
-0.000131648
-0.000122778
-0.000168295
-0.000166671
-0.000165199
-0.000184045
-0.000193405
-0.000194066
-0.000195363
-0.000197142
-0.000191438
-0.000193515
-0.000190289
-0.000183731
-0.000183781
-0.000169495
-0.000167441
-0.000162414
-0.000150478
-0.000139963
-0.000140707
-0.000129068
-0.000111917
-0.000119039
-0.000110262
-9.61914e-05
-8.94017e-05
-8.8962e-05
-8.32894e-05
-7.37446e-05
-6.91016e-05
-6.55775e-05
-5.77055e-05
-5.53736e-05
-5.24061e-05
-4.5762e-05
-4.27663e-05
-4.19035e-05
-3.7611e-05
-3.20394e-05
-3.09611e-05
-2.96865e-05
-2.67308e-05
-2.41076e-05
-2.24499e-05
-2.10672e-05
-1.913e-05
-1.72219e-05
-1.59656e-05
-1.47394e-05
-1.3325e-05
-1.21654e-05
-1.13158e-05
-1.03339e-05
-9.24651e-06
-8.42031e-06
-7.81451e-06
-7.11771e-06
-6.39136e-06
-5.7974e-06
-5.32397e-06
-4.84891e-06
-4.3769e-06
-3.9646e-06
-3.60373e-06
-3.26253e-06
-2.94252e-06
-2.6535e-06
-2.39127e-06
-2.14973e-06
-1.9277e-06
-1.72475e-06
-1.53864e-06
-1.36773e-06
-1.2105e-06
-1.06571e-06
-9.31938e-07
-8.08066e-07
-6.92731e-07
-5.85018e-07
-4.83628e-07
-3.87792e-07
-2.96236e-07
-2.08707e-07
-1.2407e-07
-4.38043e-08
0.000268289
0.00023223
0.000212736
0.000194616
0.000151186
0.000143828
0.0001107
4.40503e-05
4.16892e-05
2.1813e-05
-3.31123e-05
-4.94421e-05
-5.26889e-05
-9.5974e-05
-0.000100598
-0.000103274
-0.00013469
-0.0001368
-0.00014329
-0.000161811
-0.000171607
-0.000165449
-0.000165266
-0.000177162
-0.000175475
-0.00016926
-0.000162445
-0.000177545
-0.000169322
-0.00015123
-0.000150441
-0.000146582
-0.000134576
-0.000134204
-0.000125337
-0.00011342
-0.00011291
-0.000110395
-9.59529e-05
-8.5043e-05
-8.86164e-05
-8.56427e-05
-7.46572e-05
-6.73758e-05
-6.52564e-05
-6.29715e-05
-5.23579e-05
-5.19927e-05
-5.01443e-05
-4.04095e-05
-4.06047e-05
-4.00224e-05
-3.4318e-05
-2.91666e-05
-3.02595e-05
-2.80779e-05
-2.49851e-05
-2.24414e-05
-2.12505e-05
-1.99141e-05
-1.79239e-05
-1.60121e-05
-1.4987e-05
-1.38065e-05
-1.24199e-05
-1.1419e-05
-1.06777e-05
-9.699e-06
-8.59151e-06
-7.87366e-06
-7.36701e-06
-6.67774e-06
-5.95466e-06
-5.41213e-06
-4.99968e-06
-4.54993e-06
-4.09454e-06
-3.71263e-06
-3.38186e-06
-3.06043e-06
-2.75757e-06
-2.48729e-06
-2.24246e-06
-2.01586e-06
-1.80749e-06
-1.61732e-06
-1.44292e-06
-1.28269e-06
-1.1353e-06
-9.99577e-07
-8.74168e-07
-7.58037e-07
-6.499e-07
-5.48892e-07
-4.53811e-07
-3.63911e-07
-2.78044e-07
-1.95902e-07
-1.16594e-07
-4.11002e-08
0.000229088
0.000197704
0.00018343
0.00016533
0.00013747
0.000121228
9.82031e-05
6.19558e-05
3.94432e-05
2.17897e-05
-1.18323e-05
-4.16207e-05
-5.02335e-05
-7.39048e-05
-9.7042e-05
-8.80999e-05
-0.000102232
-0.000116778
-0.000124703
-0.000134154
-0.000140733
-0.000144112
-0.000144518
-0.000149479
-0.000150542
-0.000145063
-0.000145269
-0.000145079
-0.000140763
-0.000137422
-0.000133434
-0.000128343
-0.000119402
-0.000117214
-0.000107554
-0.000105007
-0.000101553
-9.40043e-05
-8.4813e-05
-8.45837e-05
-7.77197e-05
-7.09513e-05
-6.64146e-05
-6.63704e-05
-5.75471e-05
-5.29972e-05
-5.0503e-05
-4.63864e-05
-4.27591e-05
-3.92922e-05
-3.73345e-05
-3.32944e-05
-3.01177e-05
-2.89181e-05
-2.88189e-05
-2.43179e-05
-2.21634e-05
-2.11456e-05
-1.9955e-05
-1.82113e-05
-1.63608e-05
-1.44128e-05
-1.36933e-05
-1.25184e-05
-1.11671e-05
-1.05137e-05
-9.83249e-06
-8.81089e-06
-7.66423e-06
-7.17822e-06
-6.77804e-06
-6.07277e-06
-5.34512e-06
-4.90203e-06
-4.57307e-06
-4.14437e-06
-3.70989e-06
-3.37594e-06
-3.08536e-06
-2.78721e-06
-2.50723e-06
-2.26324e-06
-2.04189e-06
-1.8351e-06
-1.64512e-06
-1.47224e-06
-1.31362e-06
-1.16777e-06
-1.03363e-06
-9.10139e-07
-7.96011e-07
-6.90319e-07
-5.919e-07
-4.99947e-07
-4.13387e-07
-3.31527e-07
-2.53344e-07
-1.78529e-07
-1.0635e-07
-3.74529e-08
0.000179096
0.000160299
0.000153357
0.000142554
0.000120938
9.57396e-05
7.84485e-05
5.97842e-05
3.60141e-05
1.99566e-05
-2.03575e-06
-2.18488e-05
-3.20538e-05
-4.98788e-05
-7.51631e-05
-7.63569e-05
-7.82144e-05
-9.65286e-05
-0.000103548
-0.000108722
-0.000120081
-0.000127033
-0.00011411
-0.000120191
-0.0001237
-0.000120623
-0.000120137
-0.000119622
-0.000116751
-0.000116732
-0.000111967
-0.000104235
-0.000101149
-0.000100555
-9.67417e-05
-9.07967e-05
-8.5414e-05
-8.14986e-05
-7.62023e-05
-7.25883e-05
-6.37803e-05
-6.38606e-05
-5.96591e-05
-5.56624e-05
-5.02253e-05
-5.05404e-05
-4.54541e-05
-3.77799e-05
-3.5399e-05
-3.76085e-05
-3.27846e-05
-2.70036e-05
-2.83151e-05
-2.72936e-05
-2.38507e-05
-2.03087e-05
-2.07616e-05
-1.88072e-05
-1.77284e-05
-1.66379e-05
-1.3515e-05
-1.27649e-05
-1.25409e-05
-1.04587e-05
-9.81282e-06
-9.4929e-06
-8.94425e-06
-7.58814e-06
-6.6454e-06
-6.51127e-06
-6.06598e-06
-5.3129e-06
-4.55973e-06
-4.32038e-06
-4.07066e-06