/*--------------------------------*- C++ -*----------------------------------*\
| =========                 |                                                 |
| \\      /  F ield         | OpenFOAM: The Open Source CFD Toolbox           |
|  \\    /   O peration     | Version:  2.3.0                                 |
|   \\  /    A nd           | Web:      www.OpenFOAM.org                      |
|    \\/     M anipulation  |                                                 |
\*---------------------------------------------------------------------------*/
FoamFile
{
    version     2.0;
    format      ascii;
    class       volScalarField;
    location    "0.8";
    object      p;
}
// * * * * * * * * * * * * * * * * * * * * * * * * * * * * * * * * * * * * * //

dimensions      [0 2 -2 0 0 0 0];

internalField   nonuniform List<scalar> 
2700
(
0.008396
0.00627181
0.00514733
0.00464664
0.00426331
0.00388688
0.0035414
0.00324271
0.00298897
0.00277543
0.00259878
0.00245587
0.00234273
0.00225466
0.00218672
0.00213421
0.00209296
0.00205947
0.00203103
0.00200562
0.00198182
0.00195873
0.00193577
0.00191265
0.00188921
0.00186543
0.00184132
0.00181693
0.00179232
0.00176753
0.00174261
0.0017176
0.00169252
0.0016674
0.00164224
0.00161706
0.00159186
0.00156665
0.00154143
0.0015162
0.00149096
0.00146572
0.00144047
0.00141522
0.00138996
0.0013647
0.00133944
0.00131418
0.00128893
0.00126367
0.00123842
0.00121318
0.00118794
0.0011627
0.00113748
0.00111226
0.00108705
0.00106185
0.00103665
0.00101147
0.000986296
0.00096113
0.000935972
0.000910823
0.000885682
0.000860549
0.000835423
0.000810303
0.00078519
0.000760081
0.000734978
0.000709878
0.000684781
0.000659686
0.000634593
0.0006095
0.000584407
0.000559313
0.000534217
0.000509118
0.000484015
0.000458908
0.000433796
0.000408678
0.000383554
0.000358422
0.000333283
0.000308136
0.000282981
0.000257817
0.000232645
0.000207463
0.000182273
0.000157073
0.000131866
0.00010665
8.1431e-05
5.62241e-05
3.1163e-05
4.05416e-06
0.00726892
0.00603973
0.00512409
0.00463856
0.00426884
0.00390761
0.00357048
0.00327505
0.00302218
0.00280818
0.00263016
0.00248527
0.00236979
0.00227923
0.00220878
0.00215385
0.00211033
0.00207479
0.00204451
0.00201749
0.0019923
0.001968
0.00194402
0.00192002
0.00189584
0.00187143
0.00184678
0.00182192
0.0017969
0.00177176
0.00174653
0.00172124
0.00169592
0.00167057
0.00164522
0.00161986
0.0015945
0.00156914
0.00154378
0.00151843
0.00149308
0.00146773
0.00144238
0.00141704
0.0013917
0.00136636
0.00134103
0.00131571
0.00129039
0.00126507
0.00123977
0.00121447
0.00118918
0.0011639
0.00113863
0.00111337
0.00108812
0.00106288
0.00103765
0.00101243
0.000987226
0.00096203
0.000936843
0.000911667
0.000886499
0.000861341
0.000836191
0.000811048
0.000785913
0.000760783
0.000735659
0.00071054
0.000685424
0.000660312
0.000635201
0.000610092
0.000584983
0.000559874
0.000534762
0.000509649
0.000484533
0.000459413
0.000434288
0.000409157
0.000384021
0.000358878
0.000333728
0.00030857
0.000283405
0.000258231
0.000233049
0.000207858
0.000182658
0.00015745
0.000132234
0.000107011
8.17843e-05
5.65751e-05
3.16202e-05
3.89432e-06
0.0064883
0.00583038
0.00510223
0.0046145
0.00424822
0.00390667
0.00358669
0.00330238
0.00305651
0.00284641
0.0026695
0.00252342
0.00240511
0.00231071
0.002236
0.00217683
0.0021294
0.00209045
0.00205733
0.00202802
0.00200105
0.00197539
0.00195037
0.00192558
0.00190081
0.00187592
0.0018509
0.00182574
0.00180045
0.00177508
0.00174965
0.00172417
0.00169868
0.00167318
0.00164767
0.00162218
0.00159669
0.00157121
0.00154575
0.00152029
0.00149484
0.0014694
0.00144397
0.00141855
0.00139314
0.00136774
0.00134235
0.00131696
0.00129158
0.00126622
0.00124087
0.00121552
0.00119019
0.00116487
0.00113956
0.00111427
0.00108899
0.00106372
0.00103846
0.00101321
0.000987978
0.000962756
0.000937545
0.000912346
0.000887157
0.000861978
0.000836808
0.000811646
0.000786493
0.000761345
0.000736205
0.00071107
0.000685939
0.000660812
0.000635688
0.000610565
0.000585443
0.000560322
0.000535198
0.000510074
0.000484946
0.000459815
0.00043468
0.00040954
0.000384394
0.000359242
0.000334083
0.000308917
0.000283743
0.000258561
0.00023337
0.000208172
0.000182965
0.00015775
0.000132526
0.000107295
8.20577e-05
5.6833e-05
3.17379e-05
2.70357e-06
0.00593819
0.0055618
0.00500289
0.00455015
0.00420198
0.00388807
0.00359285
0.00332574
0.00309135
0.0028886
0.00271555
0.00257032
0.00245053
0.00235305
0.00227432
0.00221072
0.00215887
0.00211578
0.00207896
0.00204645
0.00201677
0.00198885
0.00196198
0.00193568
0.00190966
0.00188376
0.00185789
0.00183203
0.00180615
0.00178027
0.0017544
0.00172854
0.00170271
0.00167691
0.00165114
0.0016254
0.0015997
0.00157403
0.00154838
0.00152277
0.00149717
0.0014716
0.00144605
0.00142051
0.00139499
0.00136949
0.00134401
0.00131854
0.00129309
0.00126765
0.00124223
0.00121682
0.00119143
0.00116606
0.0011407
0.00111536
0.00109003
0.00106472
0.00103942
0.00101413
0.000988864
0.000963608
0.000938366
0.000913137
0.000887919
0.000862713
0.000837517
0.000812331
0.000787154
0.000761985
0.000736824
0.000711669
0.000686519
0.000661374
0.000636232
0.000611093
0.000585955
0.000560818
0.00053568
0.000510541
0.0004854
0.000460257
0.000435109
0.000409957
0.000384799
0.000359636
0.000334466
0.00030929
0.000284106
0.000258914
0.000233715
0.000208507
0.000183292
0.000158067
0.000132834
0.00010759
8.23306e-05
5.70421e-05
3.15411e-05
8.16524e-07
0.00551128
0.00527798
0.00486333
0.00447117
0.00415035
0.00386324
0.0035925
0.0033435
0.00312167
0.00292749
0.00275966
0.00261673
0.00249681
0.00239738
0.00231548
0.00224804
0.0021921
0.00214498
0.00210441
0.00206855
0.00203595
0.00200556
0.00197662
0.00194859
0.00192114
0.00189404
0.00186717
0.00184045
0.00181385
0.00178734
0.00176091
0.00173456
0.00170829
0.00168209
0.00165596
0.0016299
0.00160389
0.00157795
0.00155205
0.0015262
0.00150039
0.00147462
0.00144889
0.00142319
0.00139752
0.00137188
0.00134626
0.00132067
0.00129511
0.00126957
0.00124405
0.00121855
0.00119308
0.00116762
0.00114219
0.00111678
0.00109139
0.00106601
0.00104066
0.00101532
0.000990005
0.000964702
0.000939416
0.000914145
0.000888888
0.000863645
0.000838414
0.000813195
0.000787986
0.000762788
0.000737598
0.000712416
0.00068724
0.00066207
0.000636905
0.000611744
0.000586584
0.000561427
0.00053627
0.000511113
0.000485954
0.000460793
0.000435629
0.000410461
0.000385289
0.000360111
0.000334927
0.000309737
0.00028454
0.000259336
0.000234124
0.000208906
0.000183678
0.000158442
0.000133196
0.000107933
8.26313e-05
5.72097e-05
3.11188e-05
-1.15088e-06
0.00516709
0.00501363
0.00470862
0.00438092
0.00409153
0.00382958
0.00358218
0.0033518
0.00314358
0.00295906
0.00279767
0.00265833
0.00253959
0.00243944
0.00235548
0.00228512
0.00222581
0.00217522
0.00213129
0.00209233
0.00205697
0.00202417
0.00199315
0.00196336
0.00193442
0.00190606
0.00187811
0.00185047
0.00182306
0.00179585
0.0017688
0.00174189
0.00171512
0.00168846
0.00166192
0.00163547
0.00160912
0.00158285
0.00155666
0.00153053
0.00150447
0.00147847
0.00145251
0.00142661
0.00140075
0.00137493
0.00134915
0.00132341
0.0012977
0.00127203
0.00124639
0.00122078
0.00119519
0.00116964
0.00114411
0.00111861
0.00109314
0.00106768
0.00104226
0.00101685
0.000991465
0.000966101
0.000940757
0.000915431
0.000890122
0.000864829
0.000839552
0.000814289
0.000789039
0.000763801
0.000738574
0.000713356
0.000688147
0.000662945
0.000637749
0.000612558
0.000587371
0.000562187
0.000537004
0.000511823
0.000486641
0.000461458
0.000436272
0.000411084
0.000385892
0.000360695
0.000335493
0.000310285
0.000285071
0.000259851
0.000234624
0.00020939
0.000184148
0.000158897
0.000133632
0.000108341
8.29792e-05
5.73756e-05
3.06871e-05
-2.46002e-06
0.00488151
0.0047753
0.00454859
0.00427979
0.00402431
0.00378755
0.00356287
0.00335138
0.00315746
0.00298334
0.00282918
0.00269433
0.00257773
0.00247785
0.00239276
0.00232033
0.00225839
0.00220493
0.00215811
0.0021164
0.00207852
0.00204347
0.00201049
0.001979
0.00194859
0.00191897
0.00188994
0.00186136
0.00183313
0.0018052
0.00177751
0.00175002
0.00172273
0.0016956
0.00166862
0.00164178
0.00161506
0.00158845
0.00156194
0.00153552
0.00150919
0.00148293
0.00145674
0.00143062
0.00140455
0.00137854
0.00135258
0.00132667
0.0013008
0.00127498
0.00124919
0.00122345
0.00119774
0.00117207
0.00114644
0.00112083
0.00109526
0.00106972
0.0010442
0.00101871
0.000993252
0.000967815
0.000942402
0.00091701
0.000891639
0.000866288
0.000840955
0.000815639
0.000790339
0.000765053
0.00073978
0.000714518
0.000689267
0.000664026
0.000638792
0.000613566
0.000588344
0.000563127
0.000537913
0.000512701
0.00048749
0.000462279
0.000437067
0.000411853
0.000386636
0.000361416
0.000336191
0.000310961
0.000285726
0.000260486
0.000235239
0.000209986
0.000184725
0.000159455
0.000134168
0.000108843
8.34116e-05
5.76298e-05
3.05252e-05
-2.51144e-06
0.0046389
0.00456216
0.00439078
0.00417231
0.00395089
0.0037393
0.00353642
0.00334342
0.00316396
0.00300063
0.0028542
0.00272449
0.0026108
0.00251202
0.00242662
0.0023529
0.00228903
0.00223328
0.00218406
0.00213998
0.00209987
0.00206279
0.00202799
0.0019949
0.00196309
0.00193226
0.00190218
0.00187268
0.00184364
0.00181498
0.00178665
0.00175859
0.00173078
0.00170317
0.00167576
0.00164851
0.00162142
0.00159447
0.00156763
0.00154092
0.0015143
0.00148778
0.00146135
0.001435
0.00140872
0.0013825
0.00135635
0.00133027
0.00130423
0.00127825
0.00125233
0.00122644
0.00120061
0.00117481
0.00114906
0.00112335
0.00109767
0.00107203
0.00104642
0.00102085
0.000995301
0.000969785
0.000944296
0.000918833
0.000893395
0.000867979
0.000842585
0.00081721
0.000791854
0.000766515
0.000741191
0.000715881
0.000690584
0.000665298
0.000640022
0.000614755
0.000589494
0.00056424
0.00053899
0.000513744
0.0004885
0.000463257
0.000438014
0.00041277
0.000387525
0.000362277
0.000337025
0.00031177
0.00028651
0.000261246
0.000235976
0.000210701
0.000185419
0.000160126
0.000134814
0.000109455
8.3962e-05
5.80623e-05
3.08436e-05
-1.09582e-06
0.00442912
0.00437173
0.00423986
0.0040627
0.00387324
0.00368607
0.00350394
0.00332869
0.00316358
0.00301127
0.002873
0.00274897
0.00263886
0.00254189
0.00245693
0.00238261
0.00231744
0.00225997
0.00220881
0.00216274
0.00212069
0.0020818
0.00204535
0.00201078
0.00197766
0.00194567
0.00191457
0.00188417
0.00185434
0.00182498
0.00179601
0.00176738
0.00173904
0.00171096
0.00168311
0.00165547
0.001628
0.0016007
0.00157355
0.00154653
0.00151963
0.00149285
0.00146617
0.00143959
0.00141309
0.00138668
0.00136034
0.00133407
0.00130787
0.00128174
0.00125566
0.00122964
0.00120367
0.00117775
0.00115188
0.00112605
0.00110027
0.00107453
0.00104882
0.00102316
0.000997527
0.00097193
0.000946364
0.000920827
0.000895318
0.000869836
0.000844378
0.000818942
0.000793528
0.000768133
0.000742757
0.000717396
0.00069205
0.000666718
0.000641397
0.000616087
0.000590785
0.000565491
0.000540203
0.00051492
0.00048964
0.000464363
0.000439088
0.000413812
0.000388536
0.000363258
0.000337978
0.000312695
0.000287408
0.000262117
0.000236822
0.000211523
0.000186217
0.000160901
0.000135565
0.000110176
8.46468e-05
5.87234e-05
3.17031e-05
1.54839e-06
0.00424526
0.00420119
0.00409799
0.00395398
0.00379313
0.00362903
0.0034665
0.00330818
0.00315709
0.00301586
0.00288601
0.00276811
0.00266212
0.00256758
0.00248369
0.0024094
0.00234352
0.00228484
0.00223219
0.0021845
0.00214081
0.00210034
0.0020624
0.00202648
0.00199215
0.00195907
0.00192699
0.00189572
0.00186512
0.00183506
0.00180547
0.00177627
0.00174742
0.00171887
0.00169058
0.00166253
0.0016347
0.00160705
0.00157957
0.00155226
0.00152508
0.00149804
0.00147111
0.0014443
0.00141759
0.00139097
0.00136444
0.00133799
0.00131162
0.00128533
0.0012591
0.00123294
0.00120683
0.00118079
0.0011548
0.00112886
0.00110297
0.00107713
0.00105133
0.00102557
0.000999857
0.000974178
0.000948534
0.000922923
0.000897344
0.000871794
0.000846272
0.000820775
0.000795303
0.000769852
0.000744421
0.000719009
0.000693614
0.000668235
0.000642869
0.000617515
0.000592171
0.000566837
0.00054151
0.000516189
0.000490874
0.000465562
0.000440252
0.000414944
0.000389636
0.000364327
0.000339017
0.000313705
0.000288391
0.000263073
0.000237752
0.000212427
0.000187098
0.000161759
0.0001364
0.000110993
8.54594e-05
5.96071e-05
3.30135e-05
4.88192e-06
0.00408248
0.0040479
0.00396591
0.00384829
0.00371228
0.00356941
0.0034252
0.00328285
0.00314527
0.003015
0.0028937
0.00278222
0.00268078
0.00258919
0.00250694
0.00243325
0.0023672
0.00230781
0.00225409
0.00220513
0.0021601
0.00211828
0.00207905
0.00204191
0.00200646
0.00197236
0.00193936
0.00190727
0.00187591
0.00184518
0.00181497
0.00178522
0.00175586
0.00172684
0.00169812
0.00166967
0.00164146
0.00161347
0.00158567
0.00155805
0.00153059
0.00150329
0.00147612
0.00144907
0.00142214
0.00139532
0.0013686
0.00134197
0.00131543
0.00128898
0.0012626
0.00123629
0.00121006
0.00118389
0.00115778
0.00113173
0.00110573
0.00107979
0.00105389
0.00102805
0.00100224
0.000976481
0.000950759
0.000925075
0.000899425
0.000873808
0.000848221
0.000822663
0.000797132
0.000771625
0.000746141
0.000720678
0.000695234
0.000669808
0.000644396
0.000618999
0.000593613
0.000568239
0.000542873
0.000517515
0.000492163
0.000466816
0.000441473
0.000416132
0.000390792
0.000365453
0.000340113
0.000314772
0.000289429
0.000264084
0.000238736
0.000213386
0.000188033
0.000162672
0.000137296
0.000111882
8.6374e-05
6.06609e-05
3.45942e-05
8.30792e-06
0.00393722
0.00390962
0.00384361
0.00374697
0.00363212
0.00350836
0.00338104
0.0032536
0.00312887
0.00300928
0.00289654
0.00279167
0.00269511
0.00260691
0.00252678
0.00245419
0.00238846
0.0023288
0.00227443
0.00222455
0.00217846
0.00213553
0.00209519
0.00205698
0.00202052
0.00198549
0.00195164
0.00191875
0.00188668
0.0018553
0.00182449
0.00179419
0.00176433
0.00173484
0.00170569
0.00167684
0.00164827
0.00161993
0.00159181
0.00156389
0.00153615
0.00150858
0.00148116
0.00145388
0.00142673
0.00139971
0.0013728
0.00134599
0.00131928
0.00129266
0.00126613
0.00123968
0.00121331
0.00118701
0.00116078
0.00113462
0.00110852
0.00108247
0.00105648
0.00103054
0.00100465
0.00097881
0.00095301
0.000927251
0.000901531
0.000875847
0.000850196
0.000824577
0.000798988
0.000773426
0.000747888
0.000722374
0.000696881
0.000671408
0.000645951
0.000620511
0.000595084
0.000569669
0.000544265
0.00051887
0.000493482
0.000468101
0.000442724
0.00041735
0.000391978
0.000366608
0.000341238
0.000315868
0.000290497
0.000265125
0.000239751
0.000214376
0.000188999
0.000163619
0.000138229
0.000112817
8.73552e-05
6.18112e-05
3.62526e-05
1.13693e-05
0.00380679
0.00378446
0.00373071
0.0036508
0.00355377
0.00344689
0.00333494
0.00322129
0.00310866
0.00299933
0.00289502
0.00279684
0.00270539
0.00262091
0.00254331
0.00247226
0.00240728
0.00234778
0.00229312
0.00224266
0.00219581
0.002152
0.00211074
0.00207162
0.00203427
0.0019984
0.00196375
0.00193014
0.00189739
0.00186538
0.001834
0.00180316
0.0017728
0.00174286
0.00171329
0.00168405
0.0016551
0.00162642
0.00159798
0.00156976
0.00154173
0.0015139
0.00148623
0.00145872
0.00143135
0.00140412
0.00137701
0.00135002
0.00132314
0.00129636
0.00126968
0.00124309
0.00121658
0.00119016
0.00116381
0.00113753
0.00111132
0.00108517
0.00105908
0.00103305
0.00100708
0.00098115
0.000955271
0.000929438
0.000903647
0.000877896
0.000852181
0.000826501
0.000800853
0.000775235
0.000749645
0.00072408
0.000698538
0.000673018
0.000647517
0.000622033
0.000596565
0.000571111
0.000545668
0.000520236
0.000494813
0.000469396
0.000443986
0.00041858
0.000393177
0.000367776
0.000342377
0.000316977
0.000291578
0.000266178
0.000240779
0.000215379
0.000189979
0.00016458
0.00013918
0.000113776
8.83672e-05
6.29868e-05
3.78375e-05
1.38305e-05
0.00368913
0.00367085
0.00362665
0.00356016
0.00347804
0.00338587
0.00328773
0.0031867
0.00308534
0.00298577
0.00288965
0.00279813
0.00271194
0.00263143
0.00255668
0.00248754
0.00242369
0.00236472
0.00231012
0.0022594
0.00221204
0.00216759
0.00212562
0.00208574
0.00204763
0.00201101
0.00197565
0.00194136
0.00190799
0.00187538
0.00184345
0.00181211
0.00178127
0.00175088
0.00172089
0.00169126
0.00166195
0.00163292
0.00160416
0.00157564
0.00154734
0.00151923
0.00149132
0.00146357
0.00143599
0.00140855
0.00138124
0.00135407
0.00132702
0.00130008
0.00127324
0.0012465
0.00121986
0.00119331
0.00116683
0.00114044
0.00111412
0.00108787
0.00106169
0.00103556
0.0010095
0.000983491
0.000957534
0.000931626
0.000905764
0.000879945
0.000854167
0.000828425
0.000802719
0.000777045
0.000751402
0.000725786
0.000700195
0.000674629
0.000649083
0.000623556
0.000598047
0.000572553
0.000547072
0.000521603
0.000496144
0.000470693
0.00044525
0.000419811
0.000394377
0.000368946
0.000343516
0.000318088
0.000292661
0.000267234
0.000241808
0.000216383
0.000190961
0.000165543
0.000140133
0.000114738
8.93792e-05
6.41316e-05
3.92583e-05
1.56555e-05
0.00358261
0.0035675
0.00353083
0.00347518
0.00340548
0.00332602
0.00324015
0.00315057
0.00305961
0.00296921
0.00288096
0.00279598
0.00271508
0.0026387
0.00256704
0.00250011
0.00243773
0.00237961
0.0023254
0.0022747
0.00222711
0.00218225
0.00213974
0.00209926
0.00206052
0.00202327
0.00198728
0.00195239
0.00191842
0.00188527
0.00185282
0.00182098
0.00178969
0.00175887
0.00172847
0.00169846
0.00166878
0.00163942
0.00161035
0.00158153
0.00155294
0.00152458
0.00149641
0.00146843
0.00144062
0.00141298
0.00138548
0.00135812
0.00133089
0.00130379
0.0012768
0.00124992
0.00122314
0.00119645
0.00116986
0.00114335
0.00111692
0.00109057
0.00106429
0.00103807
0.00101192
0.000985828
0.000959792
0.00093381
0.000907877
0.00088199
0.000856147
0.000830344
0.000804579
0.00077885
0.000753153
0.000727486
0.000701847
0.000676234
0.000650643
0.000625074
0.000599523
0.000573989
0.000548471
0.000522965
0.000497471
0.000471986
0.000446509
0.000421038
0.000395572
0.000370111
0.000344652
0.000319194
0.000293739
0.000268284
0.000242831
0.000217381
0.000191937
0.0001665
0.00014108
0.00011569
9.03676e-05
6.52088e-05
4.04791e-05
1.69325e-05
0.00348591
0.00347332
0.00344267
0.00339581
0.00333646
0.00326791
0.00319283
0.00311354
0.00303209
0.00295025
0.00286945
0.00279082
0.00271516
0.00264299
0.00257461
0.00251012
0.00244947
0.00239249
0.00233894
0.00228854
0.00224096
0.00219589
0.00215304
0.00211212
0.00207288
0.0020351
0.00199858
0.00196314
0.00192866
0.001895
0.00186207
0.00182977
0.00179803
0.00176679
0.001736
0.00170562
0.0016756
0.00164591
0.00161651
0.0015874
0.00155854
0.00152991
0.0015015
0.00147328
0.00144526
0.0014174
0.00138971
0.00136217
0.00133477
0.0013075
0.00128035
0.00125333
0.00122641
0.00119959
0.00117288
0.00114625
0.00111971
0.00109326
0.00106688
0.00104057
0.00101433
0.000988155
0.000962041
0.000935983
0.000909979
0.000884024
0.000858117
0.000832253
0.00080643
0.000780644
0.000754894
0.000729176
0.000703489
0.000677829
0.000652194
0.000626581
0.00060099
0.000575416
0.00054986
0.000524317
0.000498787
0.000473268
0.000447758
0.000422255
0.000396758
0.000371266
0.000345777
0.000320291
0.000294807
0.000269324
0.000243845
0.000218369
0.0001929
0.000167444
0.00014201
0.000116619
9.13152e-05
6.61982e-05
4.15012e-05
1.77965e-05
0.00339799
0.00338741
0.0033616
0.00332192
0.00327121
0.00321198
0.00314634
0.00307622
0.00300339
0.00292943
0.00285565
0.00278309
0.00271256
0.00264461
0.0025796
0.00251772
0.00245902
0.00240342
0.00235077
0.00230089
0.00225354
0.00220848
0.00216546
0.00212426
0.00208465
0.00204645
0.00200948
0.00197358
0.00193863
0.00190452
0.00187114
0.00183841
0.00180626
0.00177462
0.00174346
0.00171272
0.00168235
0.00165234
0.00162264
0.00159324
0.0015641
0.00153521
0.00150656
0.00147811
0.00144987
0.00142181
0.00139392
0.00136619
0.00133862
0.00131119
0.00128389
0.00125672
0.00122966
0.00120272
0.00117588
0.00114914
0.00112249
0.00109593
0.00106945
0.00104305
0.00101672
0.000990466
0.000964273
0.00093814
0.000912065
0.000886043
0.000860071
0.000834146
0.000808264
0.000782423
0.00075662
0.000730852
0.000705116
0.000679409
0.00065373
0.000628075
0.000602442
0.00057683
0.000551235
0.000525656
0.000500091
0.000474538
0.000448995
0.00042346
0.000397931
0.000372409
0.00034689
0.000321375
0.000295862
0.000270351
0.000244844
0.000219342
0.000193848
0.00016837
0.000142918
0.000117517
9.22114e-05
6.70928e-05
4.23467e-05
1.83766e-05
0.00331796
0.00330901
0.00328715
0.00325336
0.00320985
0.00315855
0.0031011
0.00303909
0.00297403
0.00290728
0.00284002
0.00277322
0.00270764
0.00264385
0.00258226
0.0025231
0.0024665
0.00241246
0.00236093
0.00231178
0.00226486
0.00221998
0.00217696
0.00213562
0.00209577
0.00205726
0.00201993
0.00198365
0.00194831
0.00191378
0.00188
0.00184687
0.00181434
0.00178234
0.00175081
0.00171972
0.00168903
0.00165871
0.00162871
0.00159902
0.00156962
0.00154048
0.00151158
0.00148291
0.00145444
0.00142618
0.0013981
0.00137019
0.00134245
0.00131485
0.0012874
0.00126008
0.00123289
0.00120582
0.00117885
0.001152
0.00112524
0.00109858
0.001072
0.00104551
0.00101909
0.000992754
0.000966482
0.000940275
0.000914128
0.000888039
0.000862003
0.000836017
0.000810077
0.000784181
0.000758325
0.000732507
0.000706722
0.00068097
0.000655246
0.000629549
0.000603876
0.000578224
0.000552592
0.000526977
0.000501377
0.00047579
0.000450214
0.000424647
0.000399087
0.000373534
0.000347986
0.000322441
0.000296899
0.000271361
0.000245825
0.000220296
0.000194775
0.000169272
0.000143797
0.000118375
9.30486e-05
6.78924e-05
4.30434e-05
1.87715e-05
0.00324513
0.0032375
0.00321885
0.00318993
0.00315244
0.00310788
0.00305752
0.00300265
0.00294452
0.00288431
0.00282306
0.00276165
0.00270079
0.00264105
0.00258284
0.00252645
0.00247205
0.00241972
0.00236946
0.00232121
0.00227488
0.00223035
0.00218748
0.00214614
0.00210617
0.00206746
0.00202987
0.00199328
0.0019576
0.00192273
0.00188859
0.00185511
0.00182222
0.00178987
0.00175801
0.00172659
0.00169559
0.00166496
0.00163468
0.00160472
0.00157505
0.00154566
0.00151653
0.00148763
0.00145896
0.00143049
0.00140222
0.00137414
0.00134622
0.00131846
0.00129086
0.0012634
0.00123607
0.00120887
0.00118179
0.00115482
0.00112795
0.00110119
0.00107452
0.00104793
0.00102143
0.000995009
0.000968659
0.000942378
0.000916161
0.000890006
0.000863906
0.00083786
0.000811863
0.000785912
0.000760004
0.000734136
0.000708304
0.000682506
0.000656739
0.000631
0.000605287
0.000579597
0.000553927
0.000528276
0.000502642
0.000477021
0.000451412
0.000425814
0.000400224
0.00037464
0.000349062
0.000323488
0.000297918
0.00027235
0.000246786
0.000221228
0.000195679
0.000170147
0.000144643
0.000119191
9.38254e-05
6.86046e-05
4.36218e-05
1.90482e-05
0.00317891
0.00317234
0.00315631
0.00313139
0.00309894
0.00306009
0.00301584
0.00296722
0.00291525
0.00286095
0.0028052
0.0027488
0.0026924
0.00263655
0.00258166
0.00252804
0.00247591
0.00242537
0.0023765
0.00232929
0.00228369
0.00223965
0.00219707
0.00215584
0.00211587
0.00207705
0.00203928
0.00200246
0.00196651
0.00193134
0.00189689
0.00186309
0.00182988
0.00179721
0.00176503
0.00173331
0.00170201
0.0016711
0.00164054
0.00161031
0.00158039
0.00155076
0.0015214
0.00149228
0.0014634
0.00143474
0.00140628
0.00137802
0.00134993
0.00132202
0.00129427
0.00126666
0.0012392
0.00121188
0.00118467
0.00115759
0.00113062
0.00110375
0.00107699
0.00105031
0.00102372
0.00099722
0.000970794
0.00094444
0.000918154
0.000891932
0.000865771
0.000839665
0.000813612
0.000787607
0.000761647
0.00073573
0.000709851
0.000684008
0.000658198
0.000632418
0.000606665
0.000580937
0.000555231
0.000529545
0.000503876
0.000478222
0.000452582
0.000426952
0.000401331
0.000375718
0.000350111
0.000324507
0.000298908
0.000273311
0.000247718
0.00022213
0.00019655
0.000170986
0.000145448
0.000119955
9.45369e-05
6.92326e-05
4.41029e-05
1.92404e-05
0.00310754
0.00310202
0.00308857
0.00306761
0.00304015
0.00300703
0.00296898
0.00292678
0.00288125
0.00283318
0.00278333
0.00273238
0.00268092
0.00262944
0.00257835
0.00252796
0.00247852
0.00243019
0.00238307
0.00233721
0.00229263
0.00224931
0.00220721
0.00216626
0.00212641
0.00208758
0.0020497
0.0020127
0.0019765
0.00194106
0.00190629
0.00187216
0.00183862
0.00180561
0.00177309
0.00174103
0.0017094
0.00167817
0.0016473
0.00161677
0.00158657
0.00155666
0.00152703
0.00149767
0.00146855
0.00143966
0.00141099
0.00138252
0.00135424
0.00132615
0.00129822
0.00127045
0.00124284
0.00121537
0.00118803
0.00116081
0.00113372
0.00110673
0.00107985
0.00105307
0.00102639
0.00099979
0.000973274
0.000946836
0.00092047
0.000894172
0.000867938
0.000841763
0.000815644
0.000789577
0.000763558
0.000737583
0.00071165
0.000685755
0.000659895
0.000634068
0.000608269
0.000582497
0.000556748
0.000531021
0.000505312
0.00047962
0.000453942
0.000428276
0.00040262
0.000376972
0.000351329
0.000325692
0.000300057
0.000274426
0.000248797
0.000223172
0.000197554
0.000171947
0.000146362
0.000120811
9.53158e-05
6.9898e-05
4.45915e-05
1.94021e-05
0.00303383
0.00302932
0.00301826
0.00300092
0.00297808
0.00295034
0.00291819
0.0028822
0.00284298
0.00280114
0.00275729
0.00271199
0.00266573
0.00261896
0.00257205
0.0025253
0.00247897
0.00243325
0.00238828
0.00234415
0.00230093
0.00225863
0.00221728
0.00217684
0.0021373
0.00209862
0.00206075
0.00202367
0.00198731
0.00195163
0.00191659
0.00188216
0.00184828
0.00181492
0.00178206
0.00174965
0.00171767
0.00168609
0.00165488
0.00162403
0.00159351
0.00156329
0.00153337
0.00150373
0.00147434
0.0014452
0.00141628
0.00138758
0.00135909
0.00133078
0.00130266
0.00127471
0.00124692
0.00121928
0.00119178
0.00116442
0.00113718
0.00111006
0.00108306
0.00105616
0.00102936
0.00100265
0.000976037
0.000949502
0.000923045
0.000896661
0.000870344
0.000844091
0.000817898
0.00079176
0.000765673
0.000739634
0.00071364
0.000687686
0.00066177
0.000635888
0.000610038
0.000584216
0.000558419
0.000532646
0.000506893
0.000481158
0.000455437
0.00042973
0.000404034
0.000378345
0.000352664
0.000326986
0.000301312
0.000275639
0.000249968
0.000224298
0.00019863
0.000172968
0.000147318
0.000121687
9.60859e-05
7.0523e-05
4.50136e-05
1.95265e-05
0.00296682
0.00296309
0.00295395
0.00293957
0.00292052
0.00289724
0.00287006
0.00283938
0.00280563
0.00276929
0.00273081
0.00269064
0.0026492
0.00260685
0.00256394
0.00252074
0.00247752
0.00243446
0.00239173
0.00234946
0.00230774
0.00226663
0.00222618
0.00218641
0.00214733
0.00210894
0.00207122
0.00203416
0.00199773
0.00196191
0.00192668
0.00189199
0.00185784
0.00182418
0.001791
0.00175827
0.00172597
0.00169406
0.00166253
0.00163136
0.00160053
0.00157002
0.00153982
0.0015099
0.00148024
0.00145085
0.00142169
0.00139276
0.00136405
0.00133554
0.00130722
0.00127908
0.00125111
0.0012233
0.00119564
0.00116813
0.00114075
0.0011135
0.00108637
0.00105935
0.00103244
0.00100562
0.000978902
0.000952269
0.000925719
0.000899247
0.000872847
0.000846514
0.000820245
0.000794035
0.000767879
0.000741775
0.000715717
0.000689703
0.00066373
0.000637793
0.000611889
0.000586016
0.000560171
0.00053435
0.000508551
0.000482771
0.000457007
0.000431257
0.000405519
0.000379789
0.000354066
0.000328347
0.00030263
0.000276913
0.000251194
0.000225473
0.000199749
0.000174022
0.000148294
0.000122567
9.68449e-05
7.11259e-05
4.54181e-05
1.96725e-05
0.00290794
0.00290484
0.0028972
0.00288515
0.00286913
0.00284943
0.00282629
0.00279995
0.00277075
0.00273902
0.00270512
0.00266939
0.00263217
0.00259376
0.00255448
0.00251456
0.00247425
0.00243374
0.00239321
0.0023528
0.00231262
0.00227277
0.00223332
0.00219432
0.00215581
0.00211782
0.00208035
0.00204342
0.00200702
0.00197114
0.00193579
0.00190093
0.00186657
0.00183267
0.00179923
0.00176622
0.00173363
0.00170143
0.00166961
0.00163816
0.00160705
0.00157626
0.00154579
0.00151561
0.00148571
0.00145608
0.00142669
0.00139755
0.00136863
0.00133992
0.00131141
0.0012831
0.00125496
0.00122699
0.00119919
0.00117153
0.00114402
0.00111664
0.00108938
0.00106225
0.00103523
0.00100831
0.000981495
0.000954771
0.000928134
0.000901578
0.0008751
0.000848693
0.000822353
0.000796075
0.000769855
0.00074369
0.000717574
0.000691504
0.000665477
0.000639489
0.000613536
0.000587616
0.000561726
0.000535861
0.000510019
0.000484198
0.000458394
0.000432605
0.000406827
0.000381059
0.000355297
0.000329538
0.00030378
0.000278019
0.000252254
0.000226481
0.000200697
0.000174901
0.000149088
0.000123257
9.74046e-05
7.15275e-05
4.5638e-05
1.9702e-05
0.00285902
0.00285638
0.00284988
0.00283961
0.00282589
0.00280894
0.00278892
0.00276599
0.00274038
0.00271234
0.00268215
0.00265006
0.00261635
0.00258129
0.0025451
0.00250804
0.0024703
0.00243209
0.00239357
0.00235489
0.00231619
0.00227757
0.00223912
0.00220092
0.00216303
0.0021255
0.00208835
0.00205163
0.00201533
0.00197948
0.00194408
0.00190912
0.00187461
0.00184053
0.00180688
0.00177365
0.00174082
0.00170838
0.00167631
0.00164461
0.00161325
0.00158222
0.00155151
0.0015211
0.00149098
0.00146113
0.00143154
0.00140219
0.00137308
0.00134419
0.00131551
0.00128703
0.00125874
0.00123063
0.00120268
0.00117489
0.00114725
0.00111975
0.00109238
0.00106514
0.00103802
0.001011
0.000984095
0.000957283
0.000930563
0.000903929
0.000877376
0.000850897
0.000824489
0.000798146
0.000771865
0.00074564
0.000719467
0.000693344
0.000667265
0.000641227
0.000615226
0.00058926
0.000563325
0.000537417
0.000511534
0.000485672
0.000459828
0.000434
0.000408184
0.000382377
0.000356575
0.000330777
0.000304977
0.000279172
0.000253359
0.000227531
0.000201684
0.000175812
0.000149908
0.000123963
9.79705e-05
7.19237e-05
4.58426e-05
1.97113e-05
0.00282246
0.00282014
0.00281443
0.00280537
0.00279325
0.00277821
0.00276036
0.00273983
0.00271677
0.00269137
0.00266385
0.00263442
0.0026033
0.00257071
0.00253686
0.00250196
0.00246621
0.00242978
0.00239284
0.00235555
0.00231804
0.00228043
0.00224282
0.00220531
0.00216796
0.00213084
0.002094
0.00205748
0.00202131
0.00198552
0.00195011
0.00191511
0.00188051
0.00184631
0.00181252
0.00177913
0.00174613
0.00171351
0.00168126
0.00164937
0.00161782
0.00158661
0.00155571
0.00152513
0.00149483
0.00146482
0.00143507
0.00140557
0.00137632
0.00134729
0.00131848
0.00128987
0.00126146
0.00123323
0.00120517
0.00117728
0.00114955
0.00112196
0.0010945
0.00106718
0.00103998
0.00101289
0.000985915
0.000959038
0.000932256
0.000905563
0.000878953
0.000852422
0.000825963
0.000799572
0.000773245
0.000746977
0.000720763
0.000694599
0.000668483
0.000642408
0.000616373
0.000590373
0.000564406
0.000538467
0.000512553
0.000486662
0.000460789