/*--------------------------------*- C++ -*----------------------------------*\
| =========                 |                                                 |
| \\      /  F ield         | OpenFOAM: The Open Source CFD Toolbox           |
|  \\    /   O peration     | Version:  2.3.0                                 |
|   \\  /    A nd           | Web:      www.OpenFOAM.org                      |
|    \\/     M anipulation  |                                                 |
\*---------------------------------------------------------------------------*/
FoamFile
{
    version     2.0;
    format      ascii;
    class       volScalarField;
    location    "0.65";
    object      p;
}
// * * * * * * * * * * * * * * * * * * * * * * * * * * * * * * * * * * * * * //

dimensions      [0 2 -2 0 0 0 0];

internalField   nonuniform List<scalar> 
8750
(
0.00327759
0.00268458
0.00220031
0.0018509
0.00156186
0.00130177
0.00107049
0.000872612
0.000709631
0.000580532
0.000482741
0.000412466
0.00036506
0.000335565
0.000319253
0.000312011
0.000310526
0.000312314
0.000315639
0.000319372
0.000322845
0.00032571
0.000327828
0.000329184
0.00032983
0.000329848
0.000329324
0.000328338
0.000326962
0.000325252
0.000323256
0.000321008
0.000318539
0.000315869
0.000313016
0.000309995
0.000306817
0.000303492
0.000300029
0.000296435
0.000292717
0.000288881
0.000284932
0.000280876
0.000276717
0.000272459
0.000268108
0.000263666
0.000259136
0.000254523
0.00024983
0.000245059
0.000240213
0.000235294
0.000230307
0.000225252
0.000220133
0.000214952
0.000209711
0.000204412
0.000199059
0.000193653
0.000188196
0.000182692
0.000177143
0.000171551
0.000165919
0.000160249
0.000154546
0.000148812
0.000143051
0.000137265
0.000131459
0.000125637
0.000119804
0.000113963
0.00010812
0.00010228
9.64505e-05
9.06363e-05
8.48449e-05
7.90839e-05
7.33616e-05
6.7687e-05
6.20699e-05
5.65209e-05
5.1052e-05
4.56758e-05
4.04064e-05
3.52591e-05
3.02511e-05
2.54006e-05
2.07287e-05
1.6258e-05
1.20154e-05
8.0308e-06
4.34239e-06
1.00095e-06
-1.79332e-06
-5.92448e-06
0.00299728
0.0025742
0.0021765
0.00185935
0.00158455
0.00133169
0.00110355
0.000906311
0.000742512
0.000611711
0.000511673
0.000438849
0.000388781
0.000356655
0.000337849
0.000328314
0.000324773
0.000324756
0.00032652
0.000328921
0.000331265
0.000333179
0.000334496
0.000335178
0.000335253
0.000334783
0.00033384
0.000332492
0.0003308
0.000328812
0.000326569
0.000324102
0.000321435
0.000318588
0.000315575
0.000312407
0.000309096
0.000305649
0.000302074
0.000298376
0.000294563
0.000290638
0.000286607
0.000282474
0.000278244
0.00027392
0.000269506
0.000265005
0.000260421
0.000255756
0.000251013
0.000246196
0.000241307
0.000236347
0.000231321
0.000226229
0.000221075
0.00021586
0.000210588
0.000205259
0.000199877
0.000194443
0.00018896
0.000183431
0.000177857
0.000172242
0.000166588
0.000160898
0.000155174
0.000149421
0.00014364
0.000137837
0.000132013
0.000126174
0.000120324
0.000114468
0.000108609
0.000102755
9.6911e-05
9.10831e-05
8.52782e-05
7.95042e-05
7.37693e-05
6.80824e-05
6.24534e-05
5.68929e-05
5.14128e-05
4.60257e-05
4.07458e-05
3.55882e-05
3.05703e-05
2.57104e-05
2.10294e-05
1.655e-05
1.22993e-05
8.30759e-06
4.61351e-06
1.27012e-06
-1.43487e-06
-6.00395e-06
0.00279307
0.00247667
0.00213926
0.00184681
0.00158761
0.00134839
0.00113092
0.000940701
0.000780482
0.000650333
0.000548648
0.000472588
0.000418399
0.00038187
0.000358825
0.000345502
0.00033876
0.000336153
0.000335891
0.000336743
0.00033792
0.000338955
0.000339606
0.000339771
0.000339435
0.000338629
0.000337401
0.000335806
0.000333893
0.000331708
0.000329285
0.000326653
0.000323835
0.000320847
0.000317705
0.000314419
0.000310998
0.000307449
0.00030378
0.000299996
0.000296101
0.000292102
0.000288001
0.000283804
0.000279513
0.000275133
0.000270666
0.000266116
0.000261485
0.000256777
0.000251993
0.000247137
0.000242211
0.000237218
0.000232159
0.000227036
0.000221852
0.00021661
0.000211311
0.000205957
0.000200551
0.000195094
0.00018959
0.000184039
0.000178446
0.000172811
0.000167139
0.000161431
0.00015569
0.00014992
0.000144124
0.000138305
0.000132467
0.000126614
0.00012075
0.00011488
0.000109009
0.000103143
9.72863e-05
9.14465e-05
8.56301e-05
7.98448e-05
7.40989e-05
6.84012e-05
6.27616e-05
5.71907e-05
5.17004e-05
4.63033e-05
4.10135e-05
3.58463e-05
3.08188e-05
2.59493e-05
2.12588e-05
1.67699e-05
1.25094e-05
8.50701e-06
4.79969e-06
1.43873e-06
-1.35834e-06
-6.89044e-06
0.00262039
0.00237285
0.00208678
0.00182278
0.00158375
0.00136206
0.00115874
0.000978488
0.000824261
0.000696664
0.000594718
0.000516291
0.000458356
0.000417367
0.00038968
0.000371907
0.000361139
0.000355034
0.000351822
0.000350236
0.000349425
0.000348849
0.000348197
0.000347304
0.000346104
0.000344584
0.00034276
0.000340662
0.00033832
0.000335763
0.000333017
0.000330101
0.000327031
0.000323819
0.000320476
0.00031701
0.000313425
0.000309729
0.000305925
0.000302017
0.00029801
0.000293907
0.000289711
0.000285426
0.000281054
0.000276597
0.00027206
0.000267445
0.000262753
0.000257987
0.000253151
0.000248245
0.000243272
0.000238234
0.000233133
0.000227971
0.00022275
0.000217473
0.000212141
0.000206755
0.000201319
0.000195834
0.000190303
0.000184727
0.000179109
0.000173451
0.000167756
0.000162027
0.000156266
0.000150477
0.000144662
0.000138825
0.000132969
0.0001271
0.00012122
0.000115334
0.000109448
0.000103567
9.7696e-05
9.18423e-05
8.60124e-05
8.02139e-05
7.44549e-05
6.87445e-05
6.30924e-05
5.75092e-05
5.20066e-05
4.65974e-05
4.12955e-05
3.61162e-05
3.10766e-05
2.61947e-05
2.14916e-05
1.69894e-05
1.27141e-05
8.69324e-06
4.95779e-06
1.53837e-06
-1.55249e-06
-8.3934e-06
0.00246778
0.00226972
0.00202954
0.00179536
0.00157725
0.00137292
0.00118379
0.00101402
0.00086667
0.000742743
0.00064173
0.000562046
0.000501274
0.000456469
0.000424516
0.000402435
0.000387595
0.000377823
0.000371419
0.000367123
0.000364048
0.000361601
0.000359405
0.000357238
0.000354978
0.000352568
0.00034999
0.000347244
0.00034434
0.00034129
0.000338108
0.000334804
0.000331387
0.000327863
0.000324238
0.000320516
0.000316701
0.000312794
0.000308798
0.000304715
0.000300548
0.000296297
0.000291967
0.000287556
0.00028307
0.000278508
0.000273872
0.000269166
0.000264389
0.000259545
0.000254635
0.00024966
0.000244623
0.000239525
0.000234368
0.000229154
0.000223883
0.000218559
0.000213183
0.000207756
0.00020228
0.000196758
0.000191191
0.000185582
0.000179932
0.000174244
0.000168521
0.000162764
0.000156977
0.000151163
0.000145324
0.000139464
0.000133586
0.000127696
0.000121795
0.00011589
0.000109985
0.000104086
9.81971e-05
9.23261e-05
8.64794e-05
8.06645e-05
7.48895e-05
6.91633e-05
6.34956e-05
5.78969e-05
5.2379e-05
4.69544e-05
4.16372e-05
3.64423e-05
3.13868e-05
2.64886e-05
2.17682e-05
1.72471e-05
1.29496e-05
8.89891e-06
5.11308e-06
1.57385e-06
-1.97974e-06
-1.019e-05
0.00233659
0.00217432
0.00197206
0.00176538
0.00156714
0.00137919
0.00120375
0.00104456
0.000904609
0.000785137
0.000686006
0.000606069
0.000543421
0.000495649
0.00046012
0.00043425
0.000415701
0.000402485
0.000393001
0.000386026
0.000380662
0.00037628
0.000372458
0.000368921
0.000365505
0.000362111
0.000358688
0.000355209
0.000351663
0.000348047
0.00034436
0.000340604
0.000336779
0.000332887
0.000328928
0.000324901
0.000320807
0.000316645
0.000312416
0.000308118
0.000303753
0.000299321
0.000294822
0.000290256
0.000285625
0.000280929
0.000276169
0.000271346
0.000266462
0.000261517
0.000256513
0.000251451
0.000246331
0.000241156
0.000235927
0.000230644
0.00022531
0.000219925
0.000214492
0.000209012
0.000203486
0.000197916
0.000192304
0.000186652
0.000180961
0.000175235
0.000169475
0.000163684
0.000157864
0.000152018
0.000146149
0.00014026
0.000134355
0.000128438
0.000122513
0.000116584
0.000110655
0.000104733
9.88228e-05
9.29307e-05
8.70634e-05
8.12285e-05
7.54339e-05
6.96883e-05
6.40016e-05
5.83841e-05
5.28474e-05
4.74038e-05
4.20675e-05
3.68531e-05
3.17775e-05
2.68582e-05
2.21151e-05
1.75685e-05
1.32399e-05
9.14584e-06
5.28412e-06
1.56722e-06
-2.52915e-06
-1.18636e-05
0.00222353
0.00208701
0.00191504
0.00173291
0.00155346
0.00138113
0.00121886
0.00107014
0.000937765
0.000823177
0.000726541
0.000647088
0.000583352
0.000533375
0.000494956
0.000465873
0.000444066
0.000427737
0.000415402
0.00040589
0.000398315
0.000392031
0.000386582
0.00038166
0.00037706
0.000372649
0.000368346
0.000364099
0.000359878
0.000355662
0.00035144
0.000347203
0.000342943
0.000338655
0.000334335
0.000329979
0.000325582
0.000321142
0.000316655
0.000312121
0.000307536
0.0003029
0.000298212
0.000293471
0.000288677
0.000283828
0.000278926
0.000273971
0.000268962
0.000263901
0.000258788
0.000253623
0.000248407
0.000243141
0.000237826
0.000232463
0.000227053
0.000221597
0.000216096
0.000210551
0.000204965
0.000199338
0.000193672
0.000187968
0.000182229
0.000176456
0.000170652
0.000164819
0.000158959
0.000153075
0.00014717
0.000141247
0.000135309
0.000129361
0.000123405
0.000117447
0.00011149
0.000105541
9.96049e-05
9.36876e-05
8.7796e-05
8.19372e-05
7.61192e-05
7.03508e-05
6.46414e-05
5.90014e-05
5.34421e-05
4.79759e-05
4.26165e-05
3.73784e-05
3.22781e-05
2.73326e-05
2.2561e-05
1.79818e-05
1.36128e-05
9.46179e-06
5.5022e-06
1.5752e-06
-3.03243e-06
-1.29997e-05
0.00212502
0.00200746
0.00185966
0.00169912
0.00153721
0.00137959
0.00122981
0.00109116
0.000966316
0.000856813
0.000763078
0.000684665
0.000620477
0.000568949
0.000528254
0.000496501
0.000471886
0.0004528
0.00043788
0.000426022
0.000416366
0.000408262
0.000401238
0.000394957
0.000389183
0.000383757
0.000378569
0.000373547
0.00036864
0.000363816
0.000359047
0.000354318
0.000349612
0.000344918
0.000340227
0.000335529
0.000330819
0.00032609
0.000321337
0.000316555
0.000311741
0.000306892
0.000302006
0.000297079
0.000292112
0.000287102
0.000282048
0.000276951
0.000271809
0.000266623
0.000261391
0.000256115
0.000250795
0.000245431
0.000240022
0.000234571
0.000229078
0.000223543
0.000217967
0.000212352
0.000206698
0.000201007
0.000195281
0.000189519
0.000183726
0.000177901
0.000172048
0.000166167
0.000160263
0.000154336
0.00014839
0.000142428
0.000136453
0.000130468
0.000124478
0.000118487
0.000112499
0.000106519
0.000100554
9.4608e-05
8.86886e-05
8.28029e-05
7.69585e-05
7.1164e-05
6.54288e-05
5.97632e-05
5.41782e-05
4.86859e-05
4.32999e-05
3.80343e-05
3.29051e-05
2.79287e-05
2.31229e-05
1.85045e-05
1.40868e-05
9.86797e-06
5.7982e-06
1.66399e-06
-3.32806e-06
-1.33172e-05
0.00203838
0.00193525
0.00180682
0.00166497
0.00151911
0.00137518
0.00123711
0.00110806
0.000990588
0.000886271
0.000795735
0.000718805
0.000654693
0.000602171
0.000559744
0.000525811
0.00049881
0.000477312
0.000460076
0.000446075
0.000434482
0.000424661
0.000416129
0.000408531
0.00040161
0.000395182
0.000389116
0.000383321
0.000377729
0.000372293
0.000366976
0.00036175
0.000356595
0.000351491
0.000346425
0.000341383
0.000336356
0.000331334
0.00032631
0.000321277
0.00031623
0.000311164
0.000306075
0.00030096
0.000295815
0.00029064
0.000285431
0.000280188
0.000274909
0.000269593
0.00026424
0.000258849
0.00025342
0.000247953
0.000242448
0.000236904
0.000231324
0.000225706
0.000220052
0.000214362
0.000208638
0.00020288
0.000197089
0.000191267
0.000185416
0.000179536
0.00017363
0.000167699
0.000161746
0.000155774
0.000149784
0.00014378
0.000137765
0.000131743
0.000125716
0.000119689
0.000113667
0.000107655
0.000101658
9.56813e-05
8.97321e-05
8.38172e-05
7.79442e-05
7.21216e-05
6.63585e-05
6.06649e-05
5.50518e-05
4.95309e-05
4.41155e-05
3.88193e-05
3.36578e-05
2.86465e-05
2.38021e-05
1.91389e-05
1.46662e-05
1.03735e-05
6.1935e-06
1.88665e-06
-3.31005e-06
-1.27405e-05
0.0019615
0.00186973
0.00175694
0.00163112
0.00149971
0.00136842
0.00124126
0.00112133
0.001011
0.000911894
0.000824769
0.000749668
0.00068607
0.000633034
0.000589349
0.000553679
0.00052468
0.000501094
0.000481804
0.00046586
0.000452482
0.000441052
0.000431087
0.000422224
0.000414189
0.000406781
0.000399851
0.00039329
0.000387016
0.00038097
0.000375105
0.000369383
0.000363777
0.000358262
0.00035282
0.000347433
0.000342087
0.000336771
0.000331475
0.000326189
0.000320907
0.000315622
0.000310329
0.000305023
0.0002997
0.000294357
0.000288991
0.0002836
0.000278182
0.000272736
0.000267259
0.000261752
0.000256212
0.000250641
0.000245037
0.0002394
0.000233731
0.000228029
0.000222295
0.000216529
0.000210732
0.000204905
0.000199049
0.000193165
0.000187254
0.000181317
0.000175357
0.000169374
0.000163373
0.000157353
0.000151318
0.000145271
0.000139215
0.000133153
0.000127088
0.000121025
0.000114968
0.000108922
0.000102891
9.68831e-05
9.09029e-05
8.49578e-05
7.9055e-05
7.32029e-05
6.74105e-05
6.16876e-05
5.60448e-05
5.04936e-05
4.50468e-05
3.97179e-05
3.45214e-05
2.94723e-05
2.45858e-05
1.98741e-05
1.53428e-05
1.09751e-05
6.69549e-06
2.26935e-06
-2.94922e-06
-1.13943e-05
0.00189278
0.00181018
0.00171015
0.00159803
0.00147952
0.0013598
0.00124277
0.00113141
0.00102797
0.000934026
0.000850448
0.000777449
0.000714727
0.000661585
0.000617063
0.000580053
0.000549414
0.000524047
0.000502953
0.000485266
0.000470256
0.000457329
0.000446015
0.000435945
0.000426836
0.000418474
0.000410697
0.000403381
0.000396433
0.000389781
0.000383369
0.000377153
0.000371096
0.00036517
0.00035935
0.000353616
0.000347951
0.00034234
0.00033677
0.000331231
0.000325713
0.000320208
0.000314709
0.000309211
0.000303709
0.000298198
0.000292674
0.000287134
0.000281576
0.000275998
0.000270397
0.000264772
0.000259121
0.000253445
0.000247741
0.00024201
0.000236251
0.000230464
0.000224649
0.000218806
0.000212937
0.00020704
0.000201118
0.00019517
0.000189199
0.000183205
0.00017719
0.000171155
0.000165103
0.000159036
0.000152956
0.000146865
0.000140767
0.000134664
0.000128561
0.000122461
0.000116369
0.000110288
0.000104225
9.81839e-05
9.21721e-05
8.61961e-05
8.02629e-05
7.43808e-05
6.85584e-05
6.28052e-05
5.71318e-05
5.15492e-05
4.60698e-05
4.07064e-05
3.54732e-05
3.03842e-05
2.54532e-05
2.06907e-05
1.60996e-05
1.16599e-05
7.29755e-06
2.80874e-06
-2.28562e-06
-9.5332e-06
0.00183091
0.00175591
0.00166644
0.00156601
0.00145894
0.00134973
0.00124206
0.00113873
0.00104186
0.000952993
0.000873037
0.000802347
0.000740799
0.000687903
0.000642911
0.000604921
0.00057297
0.000546108
0.000523452
0.000504217
0.000487727
0.000473422
0.000460845
0.000449631
0.000439494
0.000430211
0.000421608
0.000413552
0.000405939
0.000398688
0.000391733
0.000385024
0.000378518
0.000372181
0.000365984
0.000359903
0.000353917
0.00034801
0.000342165
0.000336371
0.000330615
0.000324889
0.000319184
0.000313493
0.00030781
0.000302129
0.000296446
0.000290757
0.000285058
0.000279346
0.00027362
0.000267876
0.000262114
0.000256331
0.000250527
0.000244701
0.000238852
0.000232979
0.000227083
0.000221163
0.000215219
0.000209253
0.000203263
0.000197252
0.00019122
0.000185169
0.000179098
0.000173011
0.000166909
0.000160794
0.000154668
0.000148533
0.000142393
0.00013625
0.000130108
0.00012397
0.000117842
0.000111727
0.00010563
9.95563e-05
9.35127e-05
8.75054e-05
8.15415e-05
7.56288e-05
6.97758e-05
6.39919e-05
5.8287e-05
5.26721e-05
4.7159e-05
4.17602e-05
3.64889e-05
3.13584e-05
2.63813e-05
2.15668e-05
1.69162e-05
1.24099e-05
7.98308e-06
3.47904e-06
-1.40193e-06
-7.44864e-06
0.00177489
0.00170629
0.00162566
0.00153525
0.00143828
0.00133858
0.00123951
0.00114367
0.00105304
0.000969104
0.000892795
0.000824563
0.00076443
0.000712076
0.000666936
0.000628285
0.000595322
0.000567234
0.000543245
0.000522652
0.000504836
0.000489272
0.000475524
0.000463236
0.000452121
0.000441952
0.000432551
0.000423773
0.000415508
0.000407665
0.000400174
0.000392976
0.000386023
0.000379276
0.000372702
0.000366274
0.000359968
0.000353763
0.000347643
0.000341593
0.000335599
0.00032965
0.000323737
0.000317852
0.000311986
0.000306134
0.000300291
0.00029445
0.000288609
0.000282764
0.000276911
0.000271048
0.000265172
0.000259283
0.000253377
0.000247455
0.000241514
0.000235555
0.000229577
0.000223579
0.000217561
0.000211523
0.000205467
0.000199392
0.000193298
0.000187188
0.000181063
0.000174922
0.00016877
0.000162606
0.000156433
0.000150254
0.000144071
0.000137888
0.000131707
0.000125532
0.000119367
0.000113216
0.000107085
0.000100979
9.49032e-05
8.88643e-05
8.28691e-05
7.69254e-05
7.10412e-05
6.52258e-05
5.94888e-05
5.38408e-05
4.82931e-05
4.28575e-05
3.75469e-05
3.23736e-05
2.73493e-05
2.24823e-05
1.77735e-05
1.32064e-05
8.73076e-06
4.2431e-06
-3.93297e-07
-5.39244e-06
0.00172389
0.00166079
0.00158764
0.00150585
0.00141778
0.00132664
0.00123544
0.00114656
0.00106183
0.000982649
0.000909967
0.000844295
0.000785766
0.000734201
0.00068919
0.000650163
0.000616459
0.000587392
0.000562288
0.00054052
0.000521529
0.000504828
0.000490004
0.000476713
0.000464676
0.000453664
0.000443494
0.000434017
0.000425116
0.000416694
0.000408674
0.000400993
0.000393596
0.000386442
0.000379494
0.000372719
0.000366092
0.000359591
0.000353194
0.000346887
0.000340653
0.000334481
0.000328359
0.000322278
0.000316229
0.000310205
0.000304199
0.000298206
0.000292221
0.000286241
0.00028026
0.000274276
0.000268286
0.000262289
0.000256281
0.000250261
0.000244229
0.000238182
0.00023212
0.000226043
0.00021995
0.000213841
0.000207716
0.000201576
0.000195421
0.000189252
0.00018307
0.000176876
0.000170672
0.000164459
0.000158239
0.000152015
0.000145789
0.000139564
0.000133344
0.00012713
0.000120929
0.000114743
0.000108577
0.000102437
9.63287e-05
9.02574e-05
8.42303e-05
7.82548e-05
7.23388e-05
6.64911e-05
6.07211e-05
5.50389e-05
4.94554e-05
4.39821e-05
3.86309e-05
3.34136e-05
2.83411e-05
2.34213e-05
1.86557e-05
1.40327e-05
9.51911e-06
5.06234e-06
6.55182e-07
-3.5366e-06
0.00167724
0.00161892
0.00155218
0.00147784
0.00139761
0.00131417
0.00123015
0.00114769
0.00106851
0.000993899
0.000924788
0.000861732
0.00080495
0.000754378
0.000709734
0.000670579
0.000636381
0.000606563
0.000580547
0.000557781
0.000537762
0.000520043
0.00050424
0.000490024
0.000477124
0.000465314
0.000454409
0.00044426
0.000434742
0.000425755
0.000417217
0.00040906
0.000401227
0.000393669
0.000386348
0.000379229
0.000372283
0.000365484
0.000358812
0.000352247
0.000345773
0.000339377
0.000333045
0.000326767
0.000320533
0.000314335
0.000308166
0.00030202
0.00029589
0.000289773
0.000283663
0.000277557
0.000271452
0.000265345
0.000259233
0.000253115
0.000246989
0.000240854
0.000234708
0.000228551
0.000222381
0.0002162
0.000210006
0.0002038
0.000197582
0.000191353
0.000185114
0.000178865
0.000172608
0.000166346
0.000160078
0.000153809
0.000147539
0.000141272
0.000135011
0.000128759
0.000122519
0.000116297
0.000110096
0.000103922
9.77796e-05
9.16752e-05
8.56153e-05
7.96071e-05
7.36583e-05
6.77772e-05
6.1973e-05
5.62555e-05
5.06351e-05
4.51226e-05
3.97295e-05
3.4467e-05
2.93453e-05
2.43723e-05
1.95509e-05
1.48752e-05
1.03292e-05
5.90315e-06
1.67985e-06
-1.96745e-06
0.00163439
0.00158027
0.00151908
0.00145121
0.0013779
0.00130135
0.00122386
0.00114735
0.00107336
0.0010031
0.000937476
0.000877058
0.000822128
0.000772711
0.000728633
0.000689568
0.000655094
0.000624734
0.000597995
0.000574398
0.000553494
0.000534878
0.000518193
0.000503131
0.00048943
0.00047687
0.000465269
0.000454476
0.000444364
0.00043483
0.000425787
0.000417164
0.000408901
0.000400946
0.000393256
0.000385796
0.000378532
0.000371438
0.00036449
0.000357668
0.000350954
0.000344333
0.00033779
0.000331314
0.000324895
0.000318522
0.000312189
0.000305888
0.000299612
0.000293357
0.000287116
0.000280887
0.000274665
0.000268448
0.000262231
0.000256014
0.000249793
0.000243568
0.000237337
0.000231098
0.000224852
0.000218596
0.000212332
0.000206059
0.000199778
0.000193488
0.00018719
0.000180886
0.000174576
0.000168263
0.000161947
0.00015563
0.000149316
0.000143006
0.000136703
0.000130411
0.000124134
0.000117874
0.000111637
0.000105427
9.92503e-05
9.31118e-05
8.70181e-05
8.09761e-05
7.49932e-05
6.90777e-05
6.32381e-05
5.74839e-05
5.18251e-05
4.62721e-05
4.08357e-05
3.55265e-05
3.03545e-05
2.53277e-05
2.04508e-05
1.57239e-05
1.11459e-05
6.73966e-06
2.64051e-06
-7.02171e-07
0.00159488
0.00154449
0.00148813
0.00142593
0.00135873
0.00128836
0.0012168
0.00114575
0.0010766
0.00101048
0.000948236
0.000890447
0.000837438
0.000789305
0.00074596
0.000707173
0.000672616
0.000641902
0.000614616
0.000590345
0.000568694
0.000549296
0.000531827
0.000515997
0.00050156
0.000488303
0.000476047
0.000464642
0.000453961
0.000443899
0.000434368
0.000425291
0.000416607
0.000408261
0.000400209
0.00039241
0.000384832
0.000377445
0.000370223
0.000363145
0.000356191
0.000349345
0.000342591
0.000335917
0.000329312
0.000322764
0.000316266
0.000309809
0.000303386
0.000296991
0.000290619
0.000284266
0.000277926
0.000271596
0.000265274
0.000258956
0.000252639
0.000246323
0.000240005
0.000233684
0.000227359
0.000221029
0.000214694
0.000208353
0.000202006
0.000195654
0.000189298
0.000182937
0.000176573
0.000170208
0.000163842
0.000157478
0.000151118
0.000144764
0.000138419
0.000132086
0.000125769
0.000119471
0.000113197
0.000106951
0.000100738
9.45641e-05
8.84354e-05
8.23584e-05
7.63402e-05
7.03887e-05
6.45124e-05
5.87201e-05
5.30215e-05
4.74263e-05
4.1945e-05
3.65877e-05
3.13642e-05
2.62827e-05
2.13499e-05
1.65712e-05
1.19577e-05
7.55395e-06
3.51704e-06
2.86266e-07
0.00155832
0.00151126
0.00145915
0.00140193
0.00134015
0.00127531
0.00120913
0.00114309
0.00107846
0.00101625
0.000957259
0.000902066
0.000851018
0.000804264
0.000761788
0.000723439
0.000688969
0.00065807
0.000630398
0.000605601
0.000583332
0.000563267
0.000545109
0.000528592
0.000513485
0.000499584
0.000486716
0.000474735
0.000463513
0.000452945
0.000442942
0.000433426
0.000424332
0.000415604
0.000407196
0.000399065
0.000391176
0.000383498
0.000376005
0.000368672
0.00036148
0.000354409
0.000347445
0.000340573
0.000333781
0.000327057
0.000320393
0.000313779
0.000307209
0.000300674
0.00029417
0.000287691
0.000281232
0.000274789
0.00026836
0.00026194
0.000255527
0.000249118
0.000242713
0.000236308
0.000229904
0.000223498
0.00021709
0.00021068
0.000204267
0.000197852
0.000191435
0.000185017
0.000178598
0.00017218
0.000165763
0.000159351
0.000152944
0.000146545
0.000140157
0.000133782
0.000127424
0.000121087
0.000114774
0.00010849
0.000102241
9.60303e-05
8.98653e-05
8.37519e-05
7.76971e-05
7.17084e-05
6.57938e-05
5.99619e-05
5.42218e-05
4.85829e-05
4.30552e-05
3.76482e-05
3.23716e-05
2.72342e-05
2.22443e-05
1.74118e-05
1.27566e-05
8.33497e-06
4.30387e-06
1.04573e-06
0.00152438
0.00148031
0.00143198
0.00137915
0.00132218
0.00126231
0.001201
0.00113957
0.00107912
0.00102059
0.000964722
0.00091207
0.000862998
0.000817694
0.000776196
0.000738418
0.000704183
0.00067325
0.000645338
0.00062015
0.000597386
0.000576762
0.00055801
0.000540886
0.000525175
0.000510686
0.000497252
0.00048473
0.000472998
0.000461949
0.000451493
0.000441553
0.000432062
0.000422963
0.000414206
0.000405749
0.000397555
0.000389591
0.000381829
0.000374244
0.000366814
0.000359521
0.000352347
0.000345277
0.000338299
0.000331399
0.000324569
0.000317798
0.000311079
0.000304404
0.000297766
0.000291161
0.000284582
0.000278026
0.000271488
0.000264965
0.000258454
0.000251952
0.000245458
0.000238969
0.000232484
0.000226001
0.00021952
0.00021304
0.00020656
0.000200081
0.000193603
0.000187126
0.00018065
0.000174178
0.00016771
0.000161248
0.000154793
0.000148348
0.000141915
0.000135498
0.000129098
0.00012272
0.000116368
0.000110045
0.000103757
9.75094e-05
9.13068e-05
8.51558e-05
7.90629e-05
7.30354e-05
6.7081e-05
6.12079e-05
5.54247e-05
4.97405e-05
4.41646e-05
3.87064e-05
3.33752e-05
2.81803e-05
2.31314e-05
1.82418e-05
1.35369e-05
9.07691e-06
5.00463e-06
1.62803e-06
0.00149279
0.00145142
0.00140644
0.00135751
0.00130483
0.00124942
0.00119253
0.00113532
0.00107875
0.00102368
0.000970786
0.000920605
0.000873504
0.000829695
0.000789259
0.000752165
0.000718292
0.000687457
0.000659437
0.000633983
0.000610841
0.000589761
0.000570505
0.000552853
0.000536605
0.000521583
0.00050763
0.000494607
0.000482396
0.000470892
0.000460005
0.000449659
0.000439785
0.000430325
0.00042123
0.000412455
0.000403961
0.000395715
0.000387689
0.000379855
0.00037219
0.000364676
0.000357293
0.000350027
0.000342862
0.000335787
0.000328791
0.000321863
0.000314994
0.000308178
0.000301407
0.000294674
0.000287975
0.000281304
0.000274657
0.00026803
0.00026142
0.000254825
0.000248241
0.000241666
0.000235099
0.000228538
0.000221983
0.000215432
0.000208884
0.00020234
0.000195799
0.000189262
0.00018273
0.000176203
0.000169682
0.000163169
0.000156665
0.000150173
0.000143695
0.000137233
0.00013079
0.000124371
0.000117978
0.000111615
0.000105288
9.90008e-05
9.27592e-05
8.65691e-05
8.04368e-05
7.4369e-05
6.83734e-05
6.24574e-05
5.66295e-05
5.08982e-05
4.52725e-05
3.97612e-05
3.43737e-05
2.91195e-05
2.40093e-05
1.90585e-05
1.42951e-05
9.7778e-06
5.62779e-06
2.07939e-06
0.00146329
0.00142438
0.0013824
0.00133696
0.00128811
0.00123671
0.00118383
0.00113047
0.0010775
0.00102566
0.000975599
0.000927809
0.000882655
0.000840367
0.000801058
0.000764736
0.000731333
0.000700713
0.000672702
0.000647097
0.000623684
0.000602246
0.000582573
0.000564469
0.00054775
0.000532252
0.000517827
0.000504344
0.000491687
0.000479756
0.000468462
0.000457727
0.000447486
0.00043768
0.000428256
0.000419171
0.000410385
0.000401864
0.000393577
0.000385498
0.000377602
0.000369868
0.000362279
0.000354817
0.000347468
0.000340217
0.000333055
0.00032597
0.000318953
0.000311995
0.000305089
0.000298229
0.000291408
0.000284622
0.000277865
0.000271134
0.000264425
0.000257734
0.00025106
0.000244398
0.000237749
0.000231109
0.000224478
0.000217855
0.000211238
0.000204628
0.000198024
0.000191427
0.000184836
0.000178253
0.000171678
0.000165113
0.000158559
0.000152019
0.000145494
0.000138987
0.000132501
0.000126038
0.000119603
0.000113199
0.000106831
0.000100504
9.42221e-05
8.79915e-05
8.18182e-05
7.57088e-05
6.96702e-05
6.37098e-05
5.78355e-05
5.20555e-05
4.63781e-05
4.08121e-05
3.53665e-05
3.00507e-05
2.48764e-05
1.98599e-05
1.50294e-05
1.04381e-05
6.18367e-06
2.43666e-06
0.00143568
0.00139902
0.00135974
0.00131741
0.001272
0.00122421
0.00117497
0.00112514
0.00107549
0.00102668
0.000979298
0.000933809
0.000890565
0.000849807
0.000811668
0.000776191
0.000743347
0.000713043
0.000685146
0.000659493
0.000635907
0.000614203
0.000594197
0.000575714
0.00055859
0.000542672
0.000527823
0.00051392
0.000500853
0.000488523
0.000476846
0.000465744
0.000455153
0.000445014
0.000435274
0.000425889
0.000416819
0.000408029
0.000399488
0.000391167
0.000383043
0.000375094
0.0003673
0.000359644
0.000352111
0.000344687
0.000337359
0.000330117
0.000322951
0.000315852
0.000308812
0.000301824
0.000294882
0.000287979
0.000281112
0.000274276
0.000267466
0.00026068
0.000253914
0.000247165
0.000240433
0.000233713
0.000227006
0.000220309
0.000213623
0.000206945
0.000200277
0.000193618
0.000186968
0.000180328
0.000173698
0.00016708
0.000160476
0.000153886
0.000147313
0.00014076
0.000134228
0.000127722
0.000121244
0.000114797
0.000108388
0.000102018
9.56949e-05
8.94224e-05
8.32067e-05
7.70541e-05
7.0971e-05
6.49646e-05
5.90423e-05
5.32117e-05
4.7481e-05
4.18584e-05
3.63526e-05
3.09732e-05
2.57318e-05
2.06447e-05
1.57389e-05
1.106e-05
6.68263e-06
2.72718e-06
0.00140978
0.00137516
0.00133833
0.0012988
0.00125648
0.00121195
0.00116602
0.00111942
0.00107283
0.00102685
0.000982004
0.00093872
0.00089734
0.000858105
0.000821165
0.000786589
0.000754377
0.000724474
0.000696783
0.000671176
0.000647508
0.000625622
0.000605362
0.000586572
0.000569105
0.000552823
0.000537599
0.000523317
0.000509874
0.000497177
0.000485141
0.000473695
0.000462772
0.000452315
0.000442272
0.000432598
0.000423253
0.000414202
0.000405412
0.000396855
0.000388508
0.000380346
0.00037235
0.000364503
0.000356788
0.000349191
0.0003417
0.000334302
0.000326987
0.000319747
0.000312573
0.000305457
0.000298392
0.000291374
0.000284396
0.000277454
0.000270543
0.000263661
0.000256802
0.000249966
0.000243149
0.000236349
0.000229564
0.000222794
0.000216036
0.000209291
0.000202558
0.000195836
0.000189125
0.000182427
0.000175742
0.00016907
0.000162414
0.000155773
0.000149152
0.000142551
0.000135973
0.000129421
0.000122899
0.000116409
0.000109956
0.000103544
9.71772e-05
9.08614e-05
8.46019e-05
7.84045e-05
7.22755e-05
6.62214e-05
6.02493e-05
5.43666e-05
4.85807e-05
4.28997e-05
3.73317e-05
3.18862e-05
2.65745e-05
2.14123e-05
1.64237e-05
1.16461e-05
7.13409e-06
2.97029e-06
0.00138542
0.00135269
0.00131807
0.00128107
0.00124154
0.00119996
0.00115703
0.00111339
0.00106964
0.00102629
0.000983829
0.000942651
0.000903079
0.00086535
0.000829624
0.000795988
0.000764469
0.000735039
0.000707634
0.000682155
0.000658487
0.000636499
0.000616058
0.000597028
0.000579279
0.000562687
0.000547135
0.000532517
0.000518734
0.0005057
0.000493334
0.000481565
0.000470329
0.000459571
0.000449239
0.000439288
0.000429678
0.000420373
0.000411342
0.000402556
0.000393989
0.000385619
0.000377426
0.00036939
0.000361495
0.000353727
0.000346073
0.00033852
0.000331058
0.000323677
0.000316369
0.000309125
0.000301939
0.000294804
0.000287715
0.000280667
0.000273655
0.000266675
0.000259724
0.000252799
0.000245897
0.000239016
0.000232153
0.000225308
0.000218479
0.000211665
0.000204865
0.000198079
0.000191308
0.000184551
0.000177809
0.000171082
0.000164372
0.000157681
0.000151009
0.00014436
0.000137735
0.000131136
0.000124568
0.000118034
0.000111536
0.000105079
9.86686e-05
9.23081e-05
8.60033e-05
7.97596e-05
7.3583e-05
6.74797e-05
6.14563e-05
5.55196e-05
4.96768e-05
4.39353e-05
3.83031e-05
3.27891e-05
2.7404e-05
2.21621e-05
1.70844e-05
1.21999e-05
7.54614e-06
3.17929e-06
0.00136247
0.00133147
0.00129886
0.00126415
0.00122714
0.00118824
0.00114805
0.00110712
0.00106598
0.00102509
0.000984874
0.000945701
0.000907874
0.000871624
0.000837115
0.000804448
0.000773667
0.000744772
0.00071772
0.000692443
0.000668848
0.00064683
0.000626277
0.000607071
0.000589099
0.000572249
0.000556416
0.000541503
0.000527417
0.000514078
0.000501408
0.00048934
0.000477812
0.00046677
0.000456163
0.000445948
0.000436084
0.000426535
0.000417271
0.000408262
0.000399482
0.000390908
0.00038252
0.000374299
0.000366227
0.000358291
0.000350475
0.000342769
0.00033516
0.00032764
0.000320198
0.000312826
0.000305519
0.000298267
0.000291067
0.000283913
0.000276799
0.000269722
0.000262678
0.000255663
0.000248676
0.000241712
0.000234771
0.00022785
0.000220949