/*--------------------------------*- C++ -*----------------------------------*\
| =========                 |                                                 |
| \\      /  F ield         | OpenFOAM: The Open Source CFD Toolbox           |
|  \\    /   O peration     | Version:  2.3.0                                 |
|   \\  /    A nd           | Web:      www.OpenFOAM.org                      |
|    \\/     M anipulation  |                                                 |
\*---------------------------------------------------------------------------*/
FoamFile
{
    version     2.0;
    format      ascii;
    class       surfaceScalarField;
    location    "0.65";
    object      phi_0;
}
// * * * * * * * * * * * * * * * * * * * * * * * * * * * * * * * * * * * * * //

dimensions      [0 3 -1 0 0 0 0];

internalField   nonuniform List<scalar> 
17305
(
2.83721e-08
2.87926e-09
-3.12513e-08
2.55083e-08
2.86377e-09
2.28208e-08
2.68752e-09
2.03433e-08
2.47747e-09
1.8092e-08
2.25134e-09
1.60774e-08
2.01461e-09
1.43019e-08
1.77543e-09
1.27604e-08
1.54158e-09
1.14407e-08
1.31962e-09
1.03259e-08
1.11487e-09
9.39462e-09
9.31264e-10
8.62352e-09
7.71096e-10
7.98852e-09
6.35001e-10
7.46637e-09
5.22153e-10
7.03576e-09
4.30607e-10
6.67805e-09
3.57707e-10
6.37757e-09
3.00486e-10
6.12158e-09
2.55991e-10
5.90006e-09
2.21516e-10
5.70533e-09
1.94731e-10
5.5316e-09
1.73727e-10
5.37459e-09
1.57007e-10
5.23116e-09
1.43435e-10
5.09898e-09
1.32176e-10
4.97635e-09
1.22629e-10
4.86198e-09
1.14373e-10
4.75487e-09
1.07111e-10
4.65423e-09
1.00639e-10
4.55942e-09
9.48135e-11
4.46989e-09
8.95315e-11
4.38517e-09
8.4717e-11
4.30486e-09
8.03118e-11
4.22859e-09
7.6269e-11
4.15604e-09
7.25499e-11
4.08692e-09
6.91212e-11
4.02096e-09
6.59537e-11
3.95794e-09
6.3022e-11
3.89764e-09
6.0303e-11
3.83986e-09
5.77764e-11
3.78444e-09
5.54241e-11
3.73121e-09
5.32297e-11
3.68003e-09
5.1179e-11
3.63077e-09
4.92588e-11
3.58331e-09
4.74577e-11
3.53755e-09
4.57654e-11
3.49337e-09
4.41727e-11
3.4507e-09
4.26715e-11
3.40945e-09
4.12542e-11
3.36953e-09
3.99144e-11
3.33089e-09
3.86459e-11
3.29344e-09
3.74435e-11
3.25714e-09
3.63022e-11
3.22192e-09
3.52176e-11
3.18774e-09
3.41856e-11
3.15454e-09
3.32027e-11
3.12227e-09
3.22654e-11
3.0909e-09
3.13707e-11
3.06038e-09
3.05157e-11
3.03069e-09
2.96979e-11
3.00177e-09
2.89148e-11
2.97361e-09
2.81643e-11
2.94616e-09
2.74443e-11
2.91941e-09
2.6753e-11
2.89332e-09
2.60886e-11
2.86787e-09
2.54494e-11
2.84304e-09
2.48341e-11
2.8188e-09
2.42411e-11
2.79513e-09
2.36692e-11
2.77201e-09
2.31173e-11
2.74943e-09
2.2584e-11
2.72736e-09
2.20685e-11
2.70579e-09
2.15698e-11
2.6847e-09
2.10869e-11
2.66408e-09
2.06191e-11
2.64392e-09
2.01655e-11
2.62419e-09
1.97254e-11
2.60489e-09
1.92983e-11
2.58601e-09
1.88835e-11
2.56753e-09
1.84806e-11
2.54944e-09
1.8089e-11
2.53173e-09
1.77084e-11
2.51439e-09
1.73386e-11
2.49741e-09
1.69792e-11
2.48078e-09
1.66301e-11
2.46449e-09
1.62912e-11
2.44853e-09
1.59628e-11
2.43288e-09
1.56448e-11
2.41755e-09
1.53378e-11
2.4025e-09
1.50422e-11
2.38775e-09
1.47589e-11
2.37326e-09
1.44891e-11
2.35902e-09
1.42346e-11
2.34502e-09
1.39983e-11
2.33124e-09
1.37851e-11
2.31763e-09
1.36044e-11
2.30416e-09
1.34774e-11
2.2907e-09
1.34616e-11
2.277e-09
1.37004e-11
2.26276e-09
1.42386e-11
4.09958e-11
3.34105e-08
3.15063e-09
-3.36819e-08
3.28254e-08
3.44881e-09
3.20084e-08
3.50454e-09
3.10362e-08
3.44967e-09
2.99642e-08
3.32332e-09
2.8838e-08
3.14084e-09
2.76944e-08
2.91904e-09
2.65617e-08
2.67428e-09
2.54608e-08
2.4205e-09
2.44065e-08
2.16923e-09
2.34081e-08
1.92959e-09
2.24711e-08
1.70811e-09
2.15974e-08
1.50875e-09
2.07864e-08
1.33312e-09
2.0036e-08
1.18099e-09
1.93429e-08
1.05082e-09
1.87031e-08
9.40264e-10
1.81124e-08
8.46676e-10
1.75666e-08
7.67391e-10
1.70613e-08
6.9995e-10
1.65929e-08
6.4221e-10
1.61575e-08
5.92372e-10
1.5752e-08
5.48974e-10
1.53733e-08
5.10848e-10
1.50188e-08
4.77077e-10
1.46863e-08
4.4694e-10
1.43735e-08
4.19874e-10
1.40787e-08
3.95432e-10
1.38003e-08
3.73258e-10
1.35367e-08
3.53063e-10
1.32869e-08
3.34607e-10
1.30495e-08
3.17692e-10
1.28236e-08
3.02147e-10
1.26083e-08
2.87825e-10
1.24028e-08
2.74601e-10
1.22064e-08
2.62362e-10
1.20184e-08
2.5101e-10
1.18383e-08
2.40461e-10
1.16654e-08
2.30637e-10
1.14994e-08
2.2147e-10
1.13397e-08
2.12901e-10
1.1186e-08
2.04876e-10
1.10379e-08
1.97348e-10
1.08951e-08
1.90274e-10
1.07573e-08
1.83615e-10
1.06241e-08
1.77339e-10
1.04953e-08
1.71414e-10
1.03708e-08
1.65812e-10
1.02502e-08
1.6051e-10
1.01334e-08
1.55483e-10
1.00201e-08
1.50713e-10
9.91021e-09
1.4618e-10
9.80356e-09
1.41868e-10
9.69998e-09
1.37761e-10
9.59934e-09
1.33845e-10
9.5015e-09
1.30107e-10
9.40633e-09
1.26536e-10
9.31373e-09
1.2312e-10
9.22358e-09
1.1985e-10
9.13578e-09
1.16716e-10
9.05023e-09
1.13709e-10
8.96685e-09
1.10823e-10
8.88556e-09
1.08048e-10
8.80627e-09
1.0538e-10
8.7289e-09
1.0281e-10
8.65341e-09
1.00334e-10
8.5797e-09
9.7945e-11
8.50773e-09
9.56389e-11
8.43744e-09
9.34105e-11
8.36877e-09
9.12552e-11
8.30167e-09
8.9169e-11
8.23609e-09
8.71478e-11
8.17199e-09
8.5188e-11
8.10932e-09
8.32861e-11
8.04805e-09
8.1439e-11
7.98813e-09
7.96436e-11
7.92953e-09
7.78973e-11
7.87222e-09
7.61975e-11
7.81615e-09
7.45419e-11
7.76132e-09
7.29284e-11
7.70767e-09
7.13552e-11
7.65519e-09
6.98208e-11
7.60384e-09
6.83237e-11
7.55361e-09
6.68631e-11
7.50446e-09
6.54383e-11
7.45638e-09
6.4049e-11
7.40932e-09
6.26952e-11
7.36328e-09
6.13778e-11
7.31823e-09
6.0098e-11
7.27413e-09
5.88583e-11
7.23096e-09
5.76621e-11
7.18868e-09
5.65149e-11
7.14725e-09
5.54255e-11
7.10662e-09
5.44094e-11
7.06673e-09
5.34965e-11
7.02745e-09
5.27549e-11
6.98856e-09
5.23614e-11
6.94947e-09
5.27892e-11
6.90568e-09
5.8023e-11
1.02364e-10
3.48059e-08
2.99731e-09
-3.46526e-08
3.48709e-08
3.38384e-09
3.48098e-08
3.56568e-09
3.46281e-08
3.63132e-09
3.43366e-08
3.61487e-09
3.39494e-08
3.52802e-09
3.3484e-08
3.38448e-09
3.2958e-08
3.2002e-09
3.23883e-08
2.99024e-09
3.17896e-08
2.76789e-09
3.11748e-08
2.54443e-09
3.05542e-08
2.32869e-09
2.99361e-08
2.1269e-09
2.93264e-08
1.94274e-09
2.87297e-08
1.77775e-09
2.81487e-08
1.63181e-09
2.75852e-08
1.50371e-09
2.70403e-08
1.39164e-09
2.65142e-08
1.2935e-09
2.60069e-08
1.20724e-09
2.55181e-08
1.13097e-09
2.50474e-08
1.06307e-09
2.45942e-08
1.00216e-09
2.4158e-08
9.47122e-10
2.3738e-08
8.97071e-10
2.33336e-08
8.51295e-10
2.29443e-08
8.09227e-10
2.25693e-08
7.70414e-10
2.2208e-08
7.34488e-10
2.186e-08
7.01145e-10
2.15244e-08
6.70132e-10
2.12009e-08
6.4123e-10
2.08888e-08
6.14249e-10
2.05876e-08
5.89024e-10
2.02968e-08
5.65407e-10
2.00159e-08
5.43265e-10
1.97444e-08
5.22479e-10
1.94819e-08
5.02941e-10
1.9228e-08
4.84552e-10
1.89823e-08
4.67225e-10
1.87443e-08
4.50878e-10
1.85137e-08
4.35437e-10
1.82902e-08
4.20836e-10
1.80735e-08
4.07013e-10
1.78632e-08
3.93912e-10
1.76591e-08
3.81482e-10
1.74608e-08
3.69677e-10
1.72682e-08
3.58453e-10
1.70809e-08
3.47771e-10
1.68988e-08
3.37595e-10
1.67216e-08
3.27892e-10
1.65492e-08
3.1863e-10
1.63812e-08
3.09782e-10
1.62177e-08
3.01321e-10
1.60583e-08
2.93224e-10
1.59029e-08
2.85467e-10
1.57515e-08
2.7803e-10
1.56037e-08
2.70893e-10
1.54595e-08
2.6404e-10
1.53188e-08
2.57452e-10
1.51814e-08
2.51114e-10
1.50472e-08
2.45012e-10
1.49161e-08
2.39131e-10
1.4788e-08
2.3346e-10
1.46628e-08
2.27986e-10
1.45405e-08
2.22697e-10
1.44208e-08
2.17584e-10
1.43038e-08
2.12636e-10
1.41894e-08
2.07844e-10
1.40774e-08
2.03199e-10
1.39679e-08
1.98693e-10
1.38608e-08
1.94317e-10
1.37559e-08
1.90065e-10
1.36532e-08
1.8593e-10
1.35528e-08
1.81904e-10
1.34544e-08
1.77982e-10
1.33582e-08
1.74159e-10
1.32639e-08
1.70428e-10
1.31717e-08
1.66785e-10
1.30814e-08
1.63226e-10
1.2993e-08
1.59746e-10
1.29065e-08
1.56342e-10
1.28218e-08
1.5301e-10
1.27389e-08
1.49748e-10
1.26578e-08
1.46555e-10
1.25784e-08
1.43429e-10
1.25007e-08
1.4037e-10
1.24247e-08
1.37378e-10
1.23504e-08
1.34456e-10
1.22776e-08
1.31607e-10
1.22065e-08
1.28838e-10
1.21368e-08
1.26159e-10
1.20687e-08
1.23585e-10
1.20019e-08
1.21145e-10
1.19365e-08
1.18896e-10
1.18723e-08
1.16966e-10
1.1809e-08
1.15692e-10
1.17456e-08
1.16165e-10
1.1678e-08
1.25606e-10
1.73653e-10
3.56411e-08
2.80552e-09
-3.54493e-08
3.58366e-08
3.18831e-09
3.59911e-08
3.41122e-09
3.60921e-08
3.53031e-09
3.61331e-08
3.57384e-09
3.61102e-08
3.55088e-09
3.6024e-08
3.4707e-09
3.58785e-08
3.3457e-09
3.568e-08
3.18876e-09
3.5436e-08
3.01196e-09
3.51543e-08
2.82604e-09
3.4843e-08
2.64001e-09
3.45092e-08
2.46071e-09
3.41592e-08
2.29277e-09
3.37982e-08
2.13878e-09
3.34303e-08
1.99968e-09
3.30588e-08
1.87522e-09
3.26861e-08
1.76436e-09
3.23139e-08
1.66566e-09
3.19436e-08
1.57755e-09
3.15761e-08
1.49848e-09
3.12121e-08
1.42707e-09
3.08521e-08
1.36212e-09
3.04966e-08
1.30264e-09
3.01458e-08
1.24783e-09
2.98001e-08
1.19703e-09
2.94596e-08
1.14971e-09
2.91246e-08
1.10548e-09
2.8795e-08
1.06399e-09
2.84712e-08
1.02498e-09
2.81531e-08
9.88205e-10
2.78409e-08
9.53487e-10
2.75345e-08
9.20658e-10
2.72339e-08
8.89573e-10
2.69392e-08
8.60104e-10
2.66504e-08
8.32137e-10
2.63673e-08
8.05568e-10
2.60899e-08
7.80302e-10
2.58182e-08
7.56254e-10
2.55521e-08
7.33345e-10
2.52915e-08
7.11502e-10
2.50362e-08
6.90659e-10
2.47863e-08
6.70754e-10
2.45416e-08
6.51731e-10
2.4302e-08
6.33536e-10
2.40673e-08
6.16121e-10
2.38376e-08
5.99441e-10
2.36126e-08
5.83453e-10
2.33922e-08
5.68119e-10
2.31764e-08
5.53401e-10
2.29651e-08
5.39266e-10
2.2758e-08
5.25681e-10
2.25552e-08
5.12616e-10
2.23564e-08
5.00044e-10
2.21617e-08
4.87938e-10
2.19709e-08
4.76273e-10
2.17839e-08
4.65027e-10
2.16006e-08
4.54176e-10
2.1421e-08
4.437e-10
2.12449e-08
4.3358e-10
2.10722e-08
4.23796e-10
2.09029e-08
4.14333e-10
2.07368e-08
4.05172e-10
2.0574e-08
3.96298e-10
2.04143e-08
3.87696e-10
2.02576e-08
3.79352e-10
2.01039e-08
3.71253e-10
1.99532e-08
3.63385e-10
1.98053e-08
3.55736e-10
1.96602e-08
3.48294e-10
1.95178e-08
3.41049e-10
1.93782e-08
3.33989e-10
1.92411e-08
3.27105e-10
1.91067e-08
3.20387e-10
1.89748e-08
3.13825e-10
1.88453e-08
3.07412e-10
1.87184e-08
3.01138e-10
1.85938e-08
2.94997e-10
1.84716e-08
2.8898e-10
1.83517e-08
2.83082e-10
1.82342e-08
2.77296e-10
1.81189e-08
2.71617e-10
1.80059e-08
2.6604e-10
1.78951e-08
2.6056e-10
1.77864e-08
2.55175e-10
1.768e-08
2.49884e-10
1.75757e-08
2.44684e-10
1.74735e-08
2.39577e-10
1.73734e-08
2.34566e-10
1.72753e-08
2.29655e-10
1.71793e-08
2.24854e-10
1.70853e-08
2.20178e-10
1.69932e-08
2.15651e-10
1.6903e-08
2.11315e-10
1.68147e-08
2.07255e-10
1.6728e-08
2.03662e-10
1.66426e-08
2.01039e-10
1.65577e-08
2.01079e-10
1.64715e-08
2.11826e-10
2.54153e-10
3.63929e-08
2.63753e-09
-3.6225e-08
3.65909e-08
2.99034e-09
3.67828e-08
3.21933e-09
3.69559e-08
3.35723e-09
3.71027e-08
3.42707e-09
3.7216e-08
3.43756e-09
3.72909e-08
3.3958e-09
3.73252e-08
3.31139e-09
3.73191e-08
3.1949e-09
3.72745e-08
3.05654e-09
3.71948e-08
2.90569e-09
3.70843e-08
2.7505e-09
3.69476e-08
2.59748e-09
3.6789e-08
2.45136e-09
3.66126e-08
2.31512e-09
3.64221e-08
2.19025e-09
3.62202e-08
2.0771e-09
3.60093e-08
1.97521e-09
3.57914e-08
1.88366e-09
3.55676e-08
1.80128e-09
3.53392e-08
1.72685e-09
3.51071e-08
1.65923e-09
3.48718e-08
1.59739e-09
3.4634e-08
1.54045e-09
3.43941e-08
1.48769e-09
3.41527e-08
1.43851e-09
3.39099e-08
1.39244e-09
3.36663e-08
1.34908e-09
3.34222e-08
1.30815e-09
3.31778e-08
1.26937e-09
3.29334e-08
1.23255e-09
3.26894e-08
1.19752e-09
3.24459e-08
1.16413e-09
3.22032e-08
1.13225e-09
3.19616e-08
1.10178e-09
3.17211e-08
1.07262e-09
3.1482e-08
1.04468e-09
3.12444e-08
1.01788e-09
3.10085e-08
9.92152e-10
3.07744e-08
9.67435e-10
3.05423e-08
9.43667e-10
3.03121e-08
9.20794e-10
3.00841e-08
8.98768e-10
2.98583e-08
8.77542e-10
2.96348e-08
8.57074e-10
2.94135e-08
8.37325e-10
2.91947e-08
8.18258e-10
2.89783e-08
7.99839e-10
2.87644e-08
7.82037e-10
2.8553e-08
7.64821e-10
2.83441e-08
7.48164e-10
2.81378e-08
7.32039e-10
2.79339e-08
7.16421e-10
2.77327e-08
7.01288e-10
2.7534e-08
6.86616e-10
2.73379e-08
6.72384e-10
2.71444e-08
6.58573e-10
2.69534e-08
6.45164e-10
2.67649e-08
6.32138e-10
2.6579e-08
6.19477e-10
2.63957e-08
6.07165e-10
2.62148e-08
5.95187e-10
2.60365e-08
5.83526e-10
2.58606e-08
5.72168e-10
2.56872e-08
5.61098e-10
2.55162e-08
5.50304e-10
2.53477e-08
5.39771e-10
2.51816e-08
5.29488e-10
2.50179e-08
5.19441e-10
2.48566e-08
5.0962e-10
2.46976e-08
5.00012e-10
2.4541e-08
4.90606e-10
2.43867e-08
4.81392e-10
2.42348e-08
4.72359e-10
2.40851e-08
4.63498e-10
2.39377e-08
4.54798e-10
2.37926e-08
4.46252e-10
2.36497e-08
4.37849e-10
2.35091e-08
4.29583e-10
2.33708e-08
4.21445e-10
2.32346e-08
4.13428e-10
2.31007e-08
4.05526e-10
2.2969e-08
3.97733e-10
2.28395e-08
3.90046e-10
2.27123e-08
3.82459e-10
2.25872e-08
3.74971e-10
2.24643e-08
3.67581e-10
2.23436e-08
3.60291e-10
2.2225e-08
3.53104e-10
2.21086e-08
3.46028e-10
2.19944e-08
3.39075e-10
2.18823e-08
3.32264e-10
2.17724e-08
3.25628e-10
2.16645e-08
3.19223e-10
2.15586e-08
3.1316e-10
2.14545e-08
3.07681e-10
2.13522e-08
3.03417e-10
2.12509e-08
3.02334e-10
2.11513e-08
3.11459e-10
3.42073e-10
3.71383e-08
2.49572e-09
-3.69965e-08
3.73155e-08
2.81314e-09
3.74996e-08
3.03521e-09
3.76785e-08
3.17829e-09
3.7846e-08
3.25965e-09
3.79958e-08
3.28768e-09
3.81231e-08
3.26858e-09
3.82243e-08
3.21019e-09
3.82978e-08
3.12136e-09
3.83435e-08
3.01084e-09
3.83624e-08
2.88677e-09
3.83566e-08
2.75632e-09
3.83286e-08
2.62543e-09
3.82814e-08
2.49857e-09
3.82178e-08
2.37877e-09
3.81403e-08
2.26777e-09
3.80511e-08
2.16627e-09
3.79521e-08
2.0742e-09
3.78448e-08
1.991e-09
3.77302e-08
1.91584e-09
3.76093e-08
1.84775e-09
3.74827e-08
1.78578e-09
3.73511e-08
1.72907e-09
3.72147e-08
1.67684e-09
3.70739e-08
1.62842e-09
3.69292e-08
1.58328e-09
3.67807e-08
1.54096e-09
3.66286e-08
1.50109e-09
3.64734e-08
1.46339e-09
3.63152e-08
1.42762e-09
3.61541e-08
1.39356e-09
3.59906e-08
1.36107e-09
3.58247e-08
1.32999e-09
3.56568e-08
1.30021e-09
3.54869e-08
1.27164e-09
3.53154e-08
1.24417e-09
3.51423e-08
1.21773e-09
3.49679e-08
1.19225e-09
3.47924e-08
1.16767e-09
3.46159e-08
1.14393e-09
3.44386e-08
1.12097e-09
3.42607e-08
1.09876e-09
3.40822e-08
1.07725e-09
3.39033e-08
1.0564e-09
3.37242e-08
1.03617e-09
3.3545e-08
1.01654e-09
3.33658e-08
9.97475e-10
3.31867e-08
9.78944e-10
3.30078e-08
9.60923e-10
3.28292e-08
9.43389e-10
3.26511e-08
9.26319e-10
3.24734e-08
9.09692e-10
3.22964e-08
8.93489e-10
3.212e-08
8.77692e-10
3.19443e-08
8.62283e-10
3.17694e-08
8.47245e-10
3.15954e-08
8.32563e-10
3.14224e-08
8.18221e-10
3.12503e-08
8.04205e-10
3.10793e-08
7.90502e-10
3.09094e-08
7.77098e-10
3.07406e-08
7.63979e-10
3.0573e-08
7.51135e-10
3.04066e-08
7.38551e-10
3.02414e-08
7.26218e-10
3.00776e-08
7.14123e-10
2.99151e-08
7.02255e-10
2.9754e-08
6.90604e-10
2.95943e-08
6.79159e-10
2.9436e-08
6.67909e-10
2.92792e-08
6.56844e-10
2.91238e-08
6.45954e-10
2.897e-08
6.3523e-10
2.88177e-08
6.24662e-10
2.8667e-08
6.14241e-10
2.85178e-08
6.03958e-10
2.83702e-08
5.93804e-10
2.82243e-08
5.83771e-10
2.80801e-08
5.73851e-10
2.79375e-08
5.64036e-10
2.77966e-08
5.54321e-10
2.76574e-08
5.44697e-10
2.752e-08
5.35161e-10
2.73843e-08
5.25707e-10
2.72504e-08
5.16333e-10
2.71184e-08
5.07037e-10
2.69881e-08
4.97819e-10
2.68597e-08
4.88681e-10
2.67332e-08
4.79629e-10
2.66086e-08
4.70673e-10
2.64858e-08
4.61829e-10
2.6365e-08
4.53121e-10
2.6246e-08
4.44589e-10
2.61289e-08
4.36301e-10
2.60137e-08
4.28387e-10
2.59003e-08
4.21122e-10
2.57885e-08
4.15181e-10
2.56784e-08
4.12407e-10
2.55721e-08
4.17809e-10
4.33821e-10
3.78889e-08
2.37421e-09
-3.77674e-08
3.80447e-08
2.65736e-09
3.82127e-08
2.86729e-09
3.83811e-08
3.00989e-09
3.85439e-08
3.09678e-09
3.86962e-08
3.13536e-09
3.88337e-08
3.13117e-09
3.89531e-08
3.09078e-09
3.90527e-08
3.02176e-09
3.91318e-08
2.93171e-09
3.91908e-08
2.82776e-09
3.92308e-08
2.7163e-09
3.92536e-08
2.60269e-09
3.9261e-08
2.49113e-09
3.92552e-08
2.38457e-09
3.92381e-08
2.28486e-09
3.92114e-08
2.19294e-09
3.91766e-08
2.10901e-09
3.91348e-08
2.0328e-09
3.9087e-08
1.96371e-09
3.90337e-08
1.90103e-09
3.89755e-08
1.84398e-09
3.89127e-08
1.79182e-09
3.88457e-08
1.74386e-09
3.87746e-08
1.69951e-09
3.86996e-08
1.65827e-09
3.86209e-08
1.61971e-09
3.85385e-08
1.58349e-09
3.84525e-08
1.54931e-09
3.83632e-08
1.51694e-09
3.82706e-08
1.48617e-09
3.81748e-08
1.45685e-09
3.8076e-08
1.42883e-09
3.79742e-08
1.402e-09
3.78696e-08
1.37624e-09
3.77623e-08
1.35148e-09
3.76524e-08
1.32763e-09
3.754e-08
1.30461e-09
3.74253e-08
1.28238e-09
3.73084e-08
1.26087e-09
3.71893e-08
1.24004e-09
3.70682e-08
1.21983e-09
3.69453e-08
1.20021e-09
3.68205e-08
1.18114e-09
3.66941e-08
1.16259e-09
3.65661e-08
1.14453e-09
3.64367e-08
1.12692e-09
3.63059e-08
1.10975e-09
3.61738e-08
1.09298e-09
3.60406e-08
1.07661e-09
3.59063e-08
1.0606e-09
3.57711e-08
1.04494e-09
3.56349e-08
1.02962e-09
3.5498e-08
1.01461e-09
3.53604e-08
9.99904e-10
3.52222e-08
9.85484e-10
3.50834e-08
9.71337e-10
3.49442e-08
9.57452e-10
3.48045e-08
9.43815e-10
3.46646e-08
9.30415e-10
3.45245e-08
9.17241e-10
3.43842e-08
9.04282e-10
3.42438e-08
8.91528e-10
3.41034e-08
8.78969e-10
3.3963e-08
8.66594e-10
3.38227e-08
8.54394e-10
3.36826e-08
8.42359e-10
3.35427e-08
8.30481e-10
3.34032e-08
8.1875e-10
3.32639e-08
8.07158e-10
3.31251e-08
7.95694e-10
3.29867e-08
7.84352e-10
3.28488e-08
7.73121e-10
3.27114e-08
7.61993e-10
3.25747e-08
7.50961e-10
3.24387e-08
7.40015e-10
3.23033e-08
7.29148e-10
3.21687e-08
7.18353e-10
3.2035e-08
7.07622e-10
3.1902e-08
6.96948e-10
3.177e-08
6.86325e-10
3.1639e-08
6.75747e-10
3.15089e-08
6.6521e-10
3.13799e-08
6.54709e-10
3.1252e-08
6.44242e-10
3.11253e-08
6.33808e-10
3.09997e-08
6.23409e-10
3.08753e-08
6.13049e-10
3.07522e-08
6.02735e-10
3.06304e-08
5.9248e-10
3.05099e-08
5.82301e-10
3.03908e-08
5.7223e-10
3.02731e-08
5.62311e-10
3.01568e-08
5.52622e-10
3.00419e-08
5.43302e-10
2.99283e-08
5.34632e-10
2.98163e-08
5.2723e-10
2.97062e-08
5.22528e-10
2.96008e-08
5.23197e-10
5.24575e-10
3.86466e-08
2.26788e-09
-3.85403e-08
3.87841e-08
2.51995e-09
3.89357e-08
2.71562e-09
3.90909e-08
2.85474e-09
3.92434e-08
2.94421e-09
3.93889e-08
2.98993e-09
3.95233e-08
2.99675e-09
3.96439e-08
2.9702e-09
3.97489e-08
2.91671e-09
3.98377e-08
2.84289e-09
3.99104e-08
2.75505e-09
3.99679e-08
2.65888e-09
4.00113e-08
2.55926e-09
4.00423e-08
2.46009e-09
4.00627e-08
2.36424e-09
4.00739e-08
2.27363e-09
4.00775e-08
2.18933e-09
4.00747e-08
2.11178e-09
4.00666e-08
2.04094e-09
4.00539e-08
1.97644e-09
4.00371e-08
1.91777e-09
4.00168e-08
1.86429e-09
3.99932e-08
1.8154e-09
3.99666e-08
1.77052e-09
3.9937e-08
1.72911e-09
3.99045e-08
1.69072e-09
3.98693e-08
1.65495e-09
3.98313e-08
1.62147e-09
3.97906e-08
1.59e-09
3.97473e-08
1.56032e-09
3.97012e-08
1.53221e-09
3.96525e-08
1.50552e-09
3.96013e-08
1.48011e-09
3.95474e-08
1.45584e-09
3.9491e-08
1.43262e-09
3.94322e-08
1.41036e-09
3.93708e-08
1.38896e-09
3.93071e-08
1.36837e-09
3.92409e-08
1.34851e-09
3.91725e-08
1.32932e-09
3.91018e-08
1.31076e-09
3.90288e-08
1.29278e-09
3.89537e-08
1.27533e-09
3.88765e-08
1.25838e-09
3.87972e-08
1.24188e-09
3.87159e-08
1.22582e-09
3.86327e-08
1.21016e-09
3.85475e-08
1.19487e-09
3.84606e-08
1.17993e-09
3.83719e-08
1.16532e-09
3.82815e-08
1.15101e-09
3.81894e-08
1.137e-09
3.80958e-08
1.12325e-09
3.80006e-08
1.10976e-09
3.7904e-08
1.0965e-09
3.78061e-08
1.08347e-09
3.77068e-08
1.07065e-09
3.76062e-08
1.05803e-09
3.75044e-08
1.04559e-09
3.74015e-08
1.03333e-09
3.72975e-08
1.02123e-09
3.71925e-08
1.00928e-09
3.70866e-08
9.9748e-10
3.69797e-08
9.8581e-10
3.6872e-08
9.74264e-10
3.67636e-08
9.62831e-10
3.66545e-08
9.51504e-10
3.65447e-08
9.40273e-10
3.64343e-08
9.29129e-10
3.63234e-08
9.18064e-10
3.6212e-08
9.07068e-10
3.61002e-08
8.96135e-10
3.59881e-08
8.85254e-10
3.58757e-08
8.74418e-10
3.5763e-08
8.63619e-10
3.56502e-08
8.52849e-10
3.55372e-08
8.421e-10
3.54242e-08
8.31364e-10
3.53112e-08
8.20635e-10
3.51982e-08
8.09905e-10
3.50854e-08
7.99168e-10
3.49727e-08
7.8842e-10
3.48603e-08
7.77654e-10
3.47481e-08
7.66869e-10
3.46363e-08
7.56062e-10
3.45249e-08
7.45232e-10
3.44139e-08
7.34382e-10
3.43034e-08
7.23517e-10
3.41935e-08
7.12647e-10
3.40842e-08
7.01784e-10
3.39756e-08
6.90952e-10
3.38676e-08
6.80183e-10
3.37604e-08
6.69527e-10
3.3654e-08
6.59064e-10
3.35483e-08
6.48934e-10
3.34436e-08
6.39393e-10
3.33399e-08
6.30931e-10
3.3238e-08
6.24415e-10
3.31408e-08
6.20384e-10
6.09386e-10
3.94118e-08
2.17309e-09
-3.9317e-08
3.9534e-08
2.39777e-09
3.9671e-08
2.57863e-09
3.98133e-08
2.71241e-09
3.9955e-08
2.80252e-09
4.00917e-08
2.85327e-09
4.02197e-08
2.86869e-09
4.03365e-08
2.85342e-09
4.04404e-08
2.81287e-09
4.05305e-08
2.75276e-09
4.06069e-08
2.67862e-09
4.06703e-08
2.59555e-09
4.07216e-08
2.50795e-09
4.07622e-08
2.41946e-09
4.07936e-08
2.33283e-09
4.08172e-08
2.24999e-09
4.08344e-08
2.17215e-09
4.08463e-08
2.09991e-09
4.08538e-08
2.03341e-09
4.08578e-08
1.97251e-09
4.08587e-08
1.91683e-09
4.0857e-08
1.86594e-09
4.08531e-08
1.81932e-09
4.08471e-08
1.7765e-09
4.08392e-08
1.73702e-09
4.08295e-08
1.70046e-09
4.0818e-08
1.66648e-09
4.08046e-08
1.63477e-09
4.07896e-08
1.60506e-09
4.07728e-08
1.57713e-09
4.07542e-08
1.55079e-09
4.07339e-08
1.52587e-09
4.07117e-08
1.50223e-09
4.06878e-08
1.47976e-09
4.06621e-08
1.45834e-09
4.06346e-08
1.43788e-09
4.06053e-08
1.4183e-09
4.05741e-08
1.39952e-09
4.05411e-08
1.38148e-09
4.05063e-08
1.36411e-09
4.04697e-08
1.34737e-09
4.04313e-08
1.3312e-09
4.03911e-08
1.31556e-09
4.0349e-08
1.30041e-09
4.03052e-08
1.28571e-09
4.02596e-08
1.27143e-09
4.02122e-08
1.25753e-09
4.01631e-08
1.24399e-09
4.01123e-08
1.23078e-09
4.00597e-08
1.21788e-09
4.00055e-08
1.20526e-09
3.99496e-08
1.19291e-09
3.9892e-08
1.1808e-09
3.98328e-08
1.16892e-09
3.97721e-08
1.15725e-09
3.97098e-08
1.14577e-09
3.9646e-08
1.13447e-09
3.95806e-08
1.12334e-09
3.95139e-08
1.11236e-09
3.94457e-08
1.10152e-09
3.93761e-08
1.09081e-09
3.93052e-08
1.08021e-09
3.92329e-08
1.06972e-09
3.91594e-08
1.05932e-09
3.90847e-08
1.04901e-09
3.90087e-08
1.03877e-09
3.89316e-08
1.02859e-09
3.88534e-08
1.01847e-09
3.87742e-08
1.00838e-09
3.86939e-08
9.98339e-10
3.86127e-08
9.88318e-10
3.85305e-08
9.78313e-10
3.84474e-08
9.68315e-10
3.83635e-08
9.58314e-10
3.82788e-08
9.48303e-10
3.81934e-08
9.38272e-10
3.81073e-08
9.28213e-10
3.80206e-08
9.18118e-10
3.79332e-08
9.07979e-10
3.78453e-08
8.97788e-10
3.7757e-08
8.8754e-10
3.76682e-08
8.77227e-10
3.7579e-08
8.66846e-10
3.74894e-08
8.56392e-10
3.73996e-08
8.45864e-10
3.73096e-08
8.3526e-10
3.72194e-08
8.24584e-10
3.71291e-08
8.13842e-10
3.70387e-08
8.03042e-10
3.69483e-08
7.922e-10
3.68579e-08
7.81341e-10
3.67676e-08
7.70498e-10
3.66774e-08
7.59724e-10
3.65873e-08
7.49097e-10
3.64975e-08
7.38747e-10
3.6408e-08
7.28882e-10
3.63191e-08
7.19827e-10
3.62317e-08
7.11877e-10
3.61481e-08
7.03946e-10
6.8423e-10
4.0185e-08
2.08731e-09
-4.00992e-08
4.02946e-08
2.28814e-09
4.04188e-08
2.4545e-09
4.05493e-08
2.58184e-09
4.06807e-08
2.67118e-09
4.08086e-08
2.72534e-09
4.09297e-08
2.74755e-09
4.10415e-08
2.74164e-09
4.11422e-08
2.71214e-09
4.12311e-08
2.66393e-09
4.13078e-08
2.60184e-09
4.1373e-08
2.5304e-09
4.14274e-08
2.45358e-09
4.14721e-08
2.37473e-09
4.15085e-08
2.29647e-09
4.15377e-08
2.22072e-09
4.15611e-08
2.14876e-09
4.15797e-08
2.08131e-09
4.15944e-08
2.0187e-09
4.1606e-08
1.96092e-09
4.16151e-08
1.90779e-09
4.1622e-08
1.85897e-09
4.16273e-08
1.8141e-09
4.1631e-08
1.77277e-09
4.16334e-08
1.73461e-09
4.16346e-08
1.69927e-09
4.16346e-08
1.66642e-09
4.16336e-08
1.6358e-09
4.16315e-08
1.60715e-09
4.16284e-08
1.58027e-09
4.16242e-08
1.55498e-09
4.16189e-08
1.53111e-09
4.16126e-08
1.50855e-09
4.16052e-08
1.48715e-09
4.15967e-08
1.46683e-09
4.15871e-08
1.44749e-09
4.15764e-08
1.42905e-09
4.15645e-08
1.41143e-09
4.15514e-08
1.39456e-09
4.15371e-08
1.37839e-09
4.15216e-08
1.36285e-09
4.15049e-08
1.34791e-09
4.1487e-08
1.33352e-09
4.14678e-08
1.31962e-09
4.14473e-08
1.3062e-09
4.14255e-08
1.2932e-09
4.14024e-08
1.2806e-09
4.1378e-08
1.26837e-09
4.13524e-08
1.25647e-09
4.13253e-08
1.24489e-09
4.1297e-08
1.23361e-09
4.12673e-08
1.22259e-09
4.12363e-08
1.21181e-09
4.1204e-08
1.20127e-09
4.11703e-08
1.19093e-09
4.11352e-08
1.18079e-09
4.10989e-08
1.17082e-09
4.10612e-08
1.16101e-09
4.10222e-08
1.15135e-09
4.09819e-08
1.14182e-09
4.09404e-08
1.1324e-09
4.08975e-08
1.12309e-09
4.08533e-08
1.11388e-09
4.08079e-08
1.10474e-09
4.07612e-08
1.09567e-09
4.07134e-08
1.08665e-09
4.06643e-08
1.07768e-09
4.0614e-08
1.06875e-09
4.05625e-08
1.05984e-09
4.05099e-08
1.05094e-09
4.04562e-08
1.04204e-09
4.04014e-08
1.03313e-09
4.03455e-08
1.0242e-09
4.02886e-08
1.01524e-09
4.02306e-08
1.00625e-09
4.01717e-08
9.97199e-10
4.01118e-08
9.88094e-10
4.0051e-08
9.78919e-10
3.99893e-08
9.69668e-10
3.99268e-08
9.6033e-10
3.98634e-08
9.509e-10
3.97993e-08
9.41368e-10
3.97344e-08
9.31731e-10
3.96688e-08
9.21983e-10
3.96026e-08
9.12121e-10
3.95357e-08
9.02146e-10
3.94682e-08
8.92058e-10
3.94002e-08
8.81863e-10
3.93317e-08
8.71572e-10
3.92627e-08
8.612e-10
3.91932e-08
8.50771e-10
3.91234e-08
8.4032e-10
3.90532e-08
8.29899e-10
3.89827e-08
8.19581e-10
3.8912e-08
8.09476e-10
3.88412e-08
7.99737e-10
3.87705e-08
7.90516e-10
3.87007e-08
7.81639e-10
3.86336e-08
7.71022e-10
7.46632e-10
4.09668e-08
2.00875e-09
-4.08882e-08
4.1066e-08
2.18891e-09
4.1179e-08
2.34158e-09
4.12989e-08
2.46191e-09
4.14207e-08
2.5494e-09
4.15403e-08
2.60568e-09
4.16547e-08
2.63321e-09
4.17612e-08
2.63507e-09
4.18584e-08
2.61503e-09
4.19451e-08
2.57722e-09
4.20211e-08
2.52583e-09
4.20866e-08
2.46485e-09
4.21423e-08
2.39785e-09
4.21892e-08
2.32789e-09
4.22282e-08
2.25745e-09
4.22605e-08
2.18839e-09
4.22873e-08
2.12202e-09
4.23094e-08
2.05917e-09
4.23278e-08
2.00029e-09
4.23432e-08
1.94551e-09
4.23563e-08
1.89478e-09
4.23673e-08
1.84789e-09
4.23769e-08
1.80458e-09
4.23851e-08
1.76453e-09
4.23923e-08
1.72745e-09
4.23985e-08
1.69304e-09
4.24039e-08
1.66101e-09
4.24086e-08
1.63113e-09
4.24126e-08
1.60317e-09
4.24159e-08
1.57694e-09
4.24186e-08
1.55228e-09
4.24207e-08
1.52904e-09
4.24221e-08
1.50709e-09
4.2423e-08
1.48632e-09
4.24232e-08
1.46662e-09
4.24228e-08
1.44791e-09
4.24217e-08
1.43011e-09
4.242e-08
1.41314e-09
4.24176e-08
1.39694e-09
4.24145e-08
1.38146e-09
4.24107e-08
1.36663e-09
4.24062e-08
1.35242e-09
4.2401e-08
1.33876e-09
4.2395e-08
1.32563e-09
4.23882e-08
1.31298e-09
4.23806e-08
1.30078e-09
4.23722e-08
1.289e-09
4.2363e-08
1.2776e-09
4.23529e-08
1.26657e-09
4.23419e-08
1.25586e-09
4.23301e-08
1.24546e-09
4.23173e-08
1.23534e-09
4.23036e-08
1.22549e-09
4.2289e-08
1.21588e-09
4.22735e-08
1.20649e-09
4.2257e-08
1.1973e-09
4.22395e-08
1.1883e-09
4.2221e-08
1.17948e-09
4.22016e-08
1.17081e-09
4.21811e-08
1.16227e-09
4.21596e-08
1.15386e-09
4.21372e-08
1.14557e-09
4.21137e-08
1.13737e-09
4.20892e-08
1.12925e-09
4.20636e-08
1.1212e-09
4.20371e-08
1.11321e-09
4.20095e-08
1.10527e-09
4.19809e-08
1.09736e-09
4.19513e-08
1.08946e-09
4.19206e-08
1.08158e-09
4.1889e-08
1.0737e-09
4.18563e-08
1.06579e-09
4.18226e-08
1.05787e-09
4.1788e-08
1.0499e-09
4.17523e-08
1.04188e-09
4.17157e-08
1.03381e-09
4.16782e-08
1.02566e-09
4.16397e-08
1.01743e-09
4.16002e-08
1.00911e-09
4.15599e-08
1.00068e-09
4.15186e-08
9.92149e-10
4.14765e-08
9.83496e-10
4.14335e-08
9.74718e-10
4.13897e-08
9.65809e-10
4.1345e-08
9.56765e-10
4.12996e-08
9.47586e-10
4.12534e-08
9.38272e-10
4.12064e-08
9.28829e-10
4.11587e-08
9.19266e-10
4.11103e-08
9.09599e-10
4.10612e-08
8.99851e-10
4.10115e-08
8.90057e-10
4.09611e-08
8.80264e-10
4.09102e-08
8.7054e-10
4.08587e-08
8.60973e-10
4.08068e-08
8.51657e-10
4.07547e-08
8.42597e-10
4.0703e-08
8.33299e-10
4.06528e-08
8.21274e-10
7.95821e-10
4.17579e-08
1.93613e-09
-4.16852e-08
4.18484e-08
2.09837e-09
4.19516e-08
2.23838e-09
4.2062e-08
2.35152e-09
4.2175e-08
2.43641e-09
4.22869e-08
2.49377e-09
4.23947e-08
2.52535e-09
4.24962e-08
2.53362e-09
4.25896e-08
2.52164e-09
4.26739e-08
2.49291e-09
4.27487e-08
2.45103e-09
4.28141e-08
2.39948e-09
4.28705e-08
2.34146e-09
4.29186e-08
2.27975e-09
4.29594e-08
2.21665e-09
4.29938e-08
2.15397e-09
4.30228e-08
2.09301e-09
4.30473e-08
2.03468e-09
4.30681e-08
1.97949e-09
4.30859e-08
1.92772e-09
4.31013e-08
1.8794e-09
4.31147e-08
1.83445e-09
4.31266e-08
1.79271e-09
4.31372e-08
1.75393e-09
4.31468e-08
1.71789e-09
4.31555e-08
1.68433e-09
4.31635e-08
1.65302e-09
4.31708e-08
1.62376e-09
4.31776e-08
1.59635e-09
4.3184e-08
1.57062e-09
4.31898e-08
1.5464e-09
4.31953e-08
1.52358e-09
4.32004e-08
1.50202e-09
4.32051e-08
1.48162e-09
4.32094e-08
1.46229e-09
4.32134e-08
1.44395e-09
4.3217e-08
1.4265e-09
4.32202e-08
1.4099e-09
4.32231e-08
1.39407e-09
4.32256e-08
1.37895e-09
4.32277e-08
1.36451e-09
4.32294e-08
1.35068e-09
4.32308e-08
1.33743e-09
4.32317e-08
1.32471e-09
4.32322e-08
1.31249e-09
4.32323e-08
1.30073e-09
4.32319e-08
1.2894e-09
4.3231e-08
1.27847e-09
4.32296e-08
1.26792e-09
4.32278e-08
1.25772e-09
4.32254e-08
1.24783e-09
4.32225e-08
1.23825e-09
4.3219e-08
1.22895e-09
4.3215e-08
1.2199e-09
4.32104e-08
1.2111e-09
4.32052e-08
1.20251e-09
4.31994e-08
1.19413e-09
4.31929e-08
1.18593e-09
4.31858e-08
1.17791e-09
4.3178e-08
1.17003e-09
4.31696e-08
1.1623e-09
4.31605e-08
1.15469e-09
4.31507e-08
1.14719e-09
4.31401e-08
1.13978e-09
4.31289e-08
1.13246e-09
4.31169e-08
1.1252e-09
4.31041e-08
1.118e-09
4.30907e-08
1.11085e-09
4.30764e-08
1.10372e-09
4.30614e-08
1.09661e-09
4.30456e-08
1.0895e-09
4.3029e-08
1.08239e-09
4.30116e-08
1.07525e-09
4.29934e-08
1.06808e-09
4.29744e-08
1.06086e-09
4.29547e-08
1.05359e-09
4.29341e-08
1.04624e-09
4.29127e-08
1.03882e-09
4.28905e-08
1.0313e-09
4.28675e-08
1.02368e-09
4.28437e-08
1.01595e-09
4.28191e-08
1.0081e-09
4.27937e-08
1.00011e-09
4.27675e-08
9.91999e-10
4.27405e-08
9.83744e-10
4.27128e-08
9.75348e-10
4.26842e-08
9.66811e-10
4.26549e-08
9.58139e-10
4.26249e-08
9.4934e-10
4.2594e-08
9.40429e-10
4.25624e-08
9.31431e-10
4.25301e-08
9.22376e-10
4.24971e-08
9.1331e-10
4.24633e-08
9.04291e-10
4.24289e-08
8.95384e-10
4.23939e-08
8.86634e-10
4.23586e-08
8.77938e-10
4.23233e-08
8.68642e-10
4.22882e-08
8.56312e-10
8.32467e-10
4.25588e-08
1.8685e-09
-4.24912e-08
4.2642e-08
2.01516e-09
4.27368e-08
2.14362e-09
4.28386e-08
2.24965e-09
4.29436e-08
2.33145e-09
4.30483e-08
2.38905e-09
4.315e-08
2.42364e-09
4.32465e-08
2.43711e-09
4.33362e-08
2.43198e-09
4.34179e-08
2.41115e-09
4.34913e-08
2.37768e-09
4.35562e-08
2.33461e-09
4.36128e-08
2.28479e-09
4.36619e-08
2.23071e-09
4.3704e-08
2.17452e-09
4.374e-08
2.11792e-09
4.37709e-08
2.06221e-09
4.37972e-08
2.0083e-09
4.38199e-08
1.95681e-09
4.38396e-08
1.90807e-09
4.38567e-08
1.86224e-09
4.38719e-08
1.81931e-09
4.38854e-08
1.7792e-09
4.38975e-08
1.74175e-09
4.39086e-08