/*--------------------------------*- C++ -*----------------------------------*\
| =========                 |                                                 |
| \\      /  F ield         | OpenFOAM: The Open Source CFD Toolbox           |
|  \\    /   O peration     | Version:  2.3.0                                 |
|   \\  /    A nd           | Web:      www.OpenFOAM.org                      |
|    \\/     M anipulation  |                                                 |
\*---------------------------------------------------------------------------*/
FoamFile
{
    version     2.0;
    format      ascii;
    class       volVectorField;
    location    "0.65";
    object      U;
}
// * * * * * * * * * * * * * * * * * * * * * * * * * * * * * * * * * * * * * //

dimensions      [0 1 -1 0 0 0 0];

internalField   nonuniform List<vector> 
8750
(
(0.171612 0.00593564 0)
(0.155189 0.00601763 0)
(0.139394 0.00560535 0)
(0.124415 0.00501118 0)
(0.110665 0.00435344 0)
(0.098315 0.00368562 0)
(0.0873777 0.00304453 0)
(0.0778186 0.00245566 0)
(0.0695823 0.00193451 0)
(0.0625845 0.00148896 0)
(0.0567125 0.00112073 0)
(0.0518342 0.000826416 0)
(0.0478095 0.000598734 0)
(0.0445 0.000428049 0)
(0.0417761 0.000303915 0)
(0.0395224 0.00021626 0)
(0.03764 0.000156133 0)
(0.0360473 0.000116053 0)
(0.0346794 9.00629e-05 0)
(0.0334858 7.36162e-05 0)
(0.0324281 6.33785e-05 0)
(0.0314777 5.70029e-05 0)
(0.0306136 5.29074e-05 0)
(0.0298203 5.00755e-05 0)
(0.0290865 4.7889e-05 0)
(0.0284037 4.59972e-05 0)
(0.0277654 4.42185e-05 0)
(0.0271664 4.2473e-05 0)
(0.0266028 4.07364e-05 0)
(0.0260712 3.90123e-05 0)
(0.0255686 3.73148e-05 0)
(0.0250926 3.56604e-05 0)
(0.0246409 3.40628e-05 0)
(0.0242115 3.2532e-05 0)
(0.0238028 3.10742e-05 0)
(0.023413 2.9692e-05 0)
(0.0230409 2.83857e-05 0)
(0.022685 2.71533e-05 0)
(0.0223442 2.59921e-05 0)
(0.0220175 2.48985e-05 0)
(0.0217039 2.38684e-05 0)
(0.0214026 2.28978e-05 0)
(0.0211127 2.19826e-05 0)
(0.0208335 2.11191e-05 0)
(0.0205644 2.03036e-05 0)
(0.0203048 1.95327e-05 0)
(0.0200541 1.88033e-05 0)
(0.0198118 1.81124e-05 0)
(0.0195774 1.74575e-05 0)
(0.0193506 1.68361e-05 0)
(0.019131 1.62458e-05 0)
(0.018918 1.56846e-05 0)
(0.0187116 1.51507e-05 0)
(0.0185112 1.46422e-05 0)
(0.0183166 1.41575e-05 0)
(0.0181276 1.36952e-05 0)
(0.0179438 1.32538e-05 0)
(0.0177651 1.28321e-05 0)
(0.0175912 1.2429e-05 0)
(0.017422 1.20432e-05 0)
(0.0172571 1.16739e-05 0)
(0.0170966 1.132e-05 0)
(0.01694 1.09807e-05 0)
(0.0167874 1.06552e-05 0)
(0.0166386 1.03428e-05 0)
(0.0164934 1.00426e-05 0)
(0.0163516 9.75421e-06 0)
(0.0162133 9.4769e-06 0)
(0.0160781 9.21004e-06 0)
(0.0159461 8.95328e-06 0)
(0.0158171 8.70605e-06 0)
(0.0156911 8.46786e-06 0)
(0.0155679 8.23842e-06 0)
(0.0154474 8.01726e-06 0)
(0.0153296 7.80408e-06 0)
(0.0152143 7.59858e-06 0)
(0.0151016 7.40046e-06 0)
(0.0149913 7.20948e-06 0)
(0.0148833 7.02545e-06 0)
(0.0147776 6.84815e-06 0)
(0.0146742 6.67744e-06 0)
(0.0145729 6.51322e-06 0)
(0.0144738 6.3554e-06 0)
(0.0143766 6.20396e-06 0)
(0.0142815 6.05887e-06 0)
(0.0141882 5.92021e-06 0)
(0.0140969 5.7881e-06 0)
(0.0140073 5.66273e-06 0)
(0.0139195 5.54437e-06 0)
(0.0138333 5.43341e-06 0)
(0.0137488 5.33044e-06 0)
(0.0136657 5.23638e-06 0)
(0.0135841 5.15258e-06 0)
(0.0135038 5.08157e-06 0)
(0.0134246 5.02811e-06 0)
(0.0133463 5.00294e-06 0)
(0.0132686 5.03724e-06 0)
(0.0131897 5.183e-06 0)
(0.0131219 4.55315e-06 0)
(0.0129177 2.91842e-05 0)
(0.190471 0.00937931 0)
(0.188171 0.00989395 0)
(0.18426 0.00967102 0)
(0.179096 0.00917435 0)
(0.173184 0.00854326 0)
(0.166875 0.00782388 0)
(0.160393 0.00705403 0)
(0.153904 0.00626849 0)
(0.147545 0.00549635 0)
(0.141415 0.00476144 0)
(0.135583 0.00408243 0)
(0.130089 0.00347218 0)
(0.124951 0.00293751 0)
(0.120173 0.00247969 0)
(0.115746 0.00209539 0)
(0.111655 0.00177807 0)
(0.107878 0.00151927 0)
(0.104392 0.00130988 0)
(0.101173 0.001141 0)
(0.098196 0.00100458 0)
(0.0954384 0.000893717 0)
(0.0928787 0.000802733 0)
(0.0904972 0.000727133 0)
(0.0882762 0.000663445 0)
(0.0861997 0.00060904 0)
(0.0842537 0.000561954 0)
(0.0824256 0.000520726 0)
(0.0807043 0.000484271 0)
(0.0790801 0.000451773 0)
(0.0775443 0.000422609 0)
(0.0760894 0.000396297 0)
(0.0747084 0.000372451 0)
(0.0733954 0.000350759 0)
(0.072145 0.000330959 0)
(0.0709523 0.000312834 0)
(0.069813 0.000296196 0)
(0.0687232 0.000280882 0)
(0.0676795 0.000266753 0)
(0.0666786 0.000253684 0)
(0.0657177 0.000241571 0)
(0.0647941 0.000230317 0)
(0.0639055 0.00021984 0)
(0.0630498 0.000210067 0)
(0.0622248 0.000200934 0)
(0.0614289 0.000192382 0)
(0.0606603 0.000184363 0)
(0.0599175 0.000176829 0)
(0.0591991 0.000169742 0)
(0.0585038 0.000163064 0)
(0.0578304 0.000156764 0)
(0.0571778 0.000150812 0)
(0.0565448 0.000145182 0)
(0.0559307 0.00013985 0)
(0.0553344 0.000134795 0)
(0.0547551 0.000129996 0)
(0.0541921 0.000125436 0)
(0.0536446 0.000121099 0)
(0.0531119 0.000116969 0)
(0.0525935 0.000113033 0)
(0.0520887 0.000109278 0)
(0.0515969 0.000105692 0)
(0.0511177 0.000102265 0)
(0.0506505 9.89877e-05 0)
(0.0501949 9.58497e-05 0)
(0.0497505 9.28431e-05 0)
(0.0493168 8.996e-05 0)
(0.0488934 8.71932e-05 0)
(0.0484801 8.4536e-05 0)
(0.0480764 8.1982e-05 0)
(0.0476821 7.95255e-05 0)
(0.0472969 7.71613e-05 0)
(0.0469204 7.48839e-05 0)
(0.0465524 7.26891e-05 0)
(0.0461926 7.05724e-05 0)
(0.0458409 6.85298e-05 0)
(0.0454969 6.65576e-05 0)
(0.0451605 6.46525e-05 0)
(0.0448315 6.28112e-05 0)
(0.0445097 6.10311e-05 0)
(0.0441949 5.93094e-05 0)
(0.043887 5.76438e-05 0)
(0.0435857 5.60324e-05 0)
(0.0432909 5.44735e-05 0)
(0.0430025 5.29656e-05 0)
(0.0427203 5.15076e-05 0)
(0.0424442 5.00987e-05 0)
(0.0421741 4.87387e-05 0)
(0.0419097 4.74276e-05 0)
(0.0416509 4.61663e-05 0)
(0.0413977 4.49562e-05 0)
(0.0411498 4.37998e-05 0)
(0.040907 4.27016e-05 0)
(0.0406692 4.16687e-05 0)
(0.0404361 4.07141e-05 0)
(0.0402074 3.98641e-05 0)
(0.0399825 3.91792e-05 0)
(0.0397607 3.88214e-05 0)
(0.0395389 3.92114e-05 0)
(0.0393317 4.28389e-05 0)
(0.0389234 9.86535e-05 0)
(0.193458 0.00899856 0)
(0.194263 0.00995767 0)
(0.194407 0.0102888 0)
(0.19374 0.0102913 0)
(0.192382 0.0100662 0)
(0.190456 0.0096518 0)
(0.188056 0.00909286 0)
(0.185271 0.00843892 0)
(0.182196 0.00773509 0)
(0.178921 0.00701956 0)
(0.175524 0.00632303 0)
(0.172068 0.0056681 0)
(0.168605 0.00506925 0)
(0.165176 0.00453358 0)
(0.161808 0.00406222 0)
(0.158521 0.00365208 0)
(0.155328 0.00329746 0)
(0.152237 0.00299144 0)
(0.149251 0.00272695 0)
(0.14637 0.00249736 0)
(0.143594 0.00229688 0)
(0.14092 0.0021206 0)
(0.138346 0.00196453 0)
(0.135867 0.00182542 0)
(0.133482 0.0017007 0)
(0.131185 0.0015883 0)
(0.128973 0.00148656 0)
(0.126844 0.00139411 0)
(0.124793 0.00130985 0)
(0.122816 0.00123284 0)
(0.120912 0.00116228 0)
(0.119076 0.00109749 0)
(0.117305 0.00103787 0)
(0.115596 0.000982907 0)
(0.113947 0.000932137 0)
(0.112354 0.000885154 0)
(0.110815 0.000841597 0)
(0.109327 0.000801143 0)
(0.107888 0.000763507 0)
(0.106496 0.000728432 0)
(0.105148 0.000695691 0)
(0.103843 0.000665078 0)
(0.102578 0.000636412 0)
(0.101351 0.000609526 0)
(0.100161 0.000584275 0)
(0.0990062 0.000560526 0)
(0.0978849 0.000538158 0)
(0.0967956 0.000517065 0)
(0.095737 0.000497147 0)
(0.0947077 0.000478318 0)
(0.0937065 0.000460496 0)
(0.0927322 0.000443609 0)
(0.0917837 0.000427591 0)
(0.09086 0.000412379 0)
(0.08996 0.00039792 0)
(0.0890829 0.000384161 0)
(0.0882277 0.000371057 0)
(0.0873937 0.000358564 0)
(0.08658 0.000346644 0)
(0.0857859 0.000335259 0)
(0.0850107 0.000324376 0)
(0.0842537 0.000313964 0)
(0.0835144 0.000303994 0)
(0.0827921 0.000294439 0)
(0.0820862 0.000285275 0)
(0.0813962 0.000276479 0)
(0.0807216 0.000268029 0)
(0.080062 0.000259906 0)
(0.0794169 0.00025209 0)
(0.0787859 0.000244564 0)
(0.0781685 0.000237313 0)
(0.0775644 0.000230321 0)
(0.0769733 0.000223574 0)
(0.0763947 0.000217058 0)
(0.0758284 0.000210763 0)
(0.0752742 0.000204676 0)
(0.0747316 0.000198787 0)
(0.0742004 0.000193085 0)
(0.0736804 0.000187563 0)
(0.0731714 0.000182211 0)
(0.0726731 0.000177023 0)
(0.0721853 0.000171991 0)
(0.0717078 0.00016711 0)
(0.0712404 0.000162374 0)
(0.0707829 0.000157779 0)
(0.0703352 0.000153322 0)
(0.0698971 0.000149001 0)
(0.0694683 0.000144815 0)
(0.0690488 0.000140764 0)
(0.0686383 0.00013685 0)
(0.0682367 0.00013308 0)
(0.0678437 0.000129463 0)
(0.067459 0.000126014 0)
(0.0670825 0.000122765 0)
(0.0667137 0.000119776 0)
(0.066352 0.000117193 0)
(0.0659964 0.000115396 0)
(0.0656438 0.000115579 0)
(0.0653036 0.00012629 0)
(0.0647766 0.000194178 0)
(0.194484 0.00835117 0)
(0.19567 0.00940819 0)
(0.196742 0.00996306 0)
(0.197482 0.010202 0)
(0.197869 0.0102091 0)
(0.197912 0.0100166 0)
(0.19761 0.00966034 0)
(0.19697 0.00918321 0)
(0.19602 0.00862704 0)
(0.194798 0.0080291 0)
(0.193348 0.00742104 0)
(0.191714 0.00682799 0)
(0.189939 0.00626796 0)
(0.188058 0.00575204 0)
(0.186104 0.00528542 0)
(0.184102 0.00486871 0)
(0.182073 0.00449939 0)
(0.180031 0.0041731 0)
(0.177989 0.00388469 0)
(0.175954 0.00362889 0)
(0.173932 0.0034008 0)
(0.171928 0.0031961 0)
(0.169945 0.00301114 0)
(0.167985 0.00284291 0)
(0.166051 0.00268897 0)
(0.164143 0.00254738 0)
(0.162264 0.00241657 0)
(0.160414 0.00229528 0)
(0.158594 0.0021825 0)
(0.156805 0.00207738 0)
(0.155047 0.0019792 0)
(0.153321 0.00188736 0)
(0.151627 0.00180133 0)
(0.149964 0.00172064 0)
(0.148335 0.00164488 0)
(0.146737 0.00157367 0)
(0.14517 0.00150667 0)
(0.143636 0.00144356 0)
(0.142132 0.00138407 0)
(0.14066 0.00132794 0)
(0.139218 0.00127493 0)
(0.137805 0.00122481 0)
(0.136422 0.0011774 0)
(0.135068 0.0011325 0)
(0.133742 0.00108995 0)
(0.132443 0.00104958 0)
(0.131172 0.00101126 0)
(0.129926 0.000974856 0)
(0.128707 0.000940235 0)
(0.127513 0.000907289 0)
(0.126343 0.00087591 0)
(0.125198 0.000846002 0)
(0.124075 0.000817475 0)
(0.122976 0.000790243 0)
(0.121898 0.000764229 0)
(0.120843 0.00073936 0)
(0.119808 0.000715568 0)
(0.118795 0.000692791 0)
(0.117801 0.00067097 0)
(0.116827 0.00065005 0)
(0.115871 0.000629979 0)
(0.114935 0.00061071 0)
(0.114017 0.000592198 0)
(0.113116 0.000574401 0)
(0.112233 0.00055728 0)
(0.111366 0.000540797 0)
(0.110517 0.000524918 0)
(0.109683 0.000509611 0)
(0.108865 0.000494844 0)
(0.108063 0.00048059 0)
(0.107276 0.000466821 0)
(0.106503 0.000453512 0)
(0.105745 0.000440638 0)
(0.105002 0.000428178 0)
(0.104272 0.000416109 0)
(0.103556 0.000404413 0)
(0.102854 0.000393071 0)
(0.102165 0.000382066 0)
(0.101489 0.00037138 0)
(0.100826 0.000361001 0)
(0.100175 0.000350913 0)
(0.0995375 0.000341105 0)
(0.098912 0.000331565 0)
(0.0982986 0.000322284 0)
(0.0976973 0.000313254 0)
(0.0971079 0.000304467 0)
(0.0965303 0.000295919 0)
(0.0959643 0.000287607 0)
(0.0954098 0.000279531 0)
(0.0948666 0.000271695 0)
(0.0943345 0.000264106 0)
(0.0938135 0.000256779 0)
(0.0933033 0.00024974 0)
(0.0928036 0.000243038 0)
(0.092314 0.000236775 0)
(0.0918341 0.000231182 0)
(0.0913627 0.000226886 0)
(0.0908975 0.000225971 0)
(0.0904454 0.000239759 0)
(0.0898363 0.000304126 0)
(0.195196 0.00784004 0)
(0.196256 0.00883809 0)
(0.197383 0.00943359 0)
(0.198402 0.00974724 0)
(0.19927 0.00985333 0)
(0.199973 0.00978197 0)
(0.200483 0.0095595 0)
(0.20078 0.00921843 0)
(0.200856 0.00879257 0)
(0.200717 0.00831348 0)
(0.200378 0.0078093 0)
(0.199861 0.00730356 0)
(0.199189 0.00681436 0)
(0.198389 0.00635407 0)
(0.197482 0.0059298 0)
(0.19649 0.00554438 0)
(0.19543 0.00519744 0)
(0.194316 0.00488654 0)
(0.19316 0.0046081 0)
(0.19197 0.00435811 0)
(0.190752 0.00413262 0)
(0.189512 0.00392803 0)
(0.188253 0.00374119 0)
(0.18698 0.00356946 0)
(0.185694 0.00341068 0)
(0.184399 0.00326311 0)
(0.183096 0.00312535 0)
(0.181787 0.00299626 0)
(0.180474 0.00287494 0)
(0.17916 0.00276063 0)
(0.177844 0.00265269 0)
(0.17653 0.00255062 0)
(0.175219 0.00245393 0)
(0.17391 0.00236224 0)
(0.172607 0.00227519 0)
(0.17131 0.00219246 0)
(0.170019 0.00211377 0)
(0.168737 0.00203884 0)
(0.167463 0.00196746 0)
(0.166198 0.00189938 0)
(0.164944 0.00183443 0)
(0.1637 0.0017724 0)
(0.162468 0.00171314 0)
(0.161247 0.00165647 0)
(0.160038 0.00160227 0)
(0.158841 0.00155038 0)
(0.157658 0.00150068 0)
(0.156487 0.00145306 0)
(0.155329 0.00140739 0)
(0.154185 0.00136359 0)
(0.153054 0.00132155 0)
(0.151937 0.00128118 0)
(0.150833 0.0012424 0)
(0.149744 0.00120512 0)
(0.148668 0.00116927 0)
(0.147606 0.00113477 0)
(0.146558 0.00110157 0)
(0.145523 0.00106959 0)
(0.144502 0.00103877 0)
(0.143495 0.00100907 0)
(0.142502 0.000980413 0)
(0.141522 0.000952762 0)
(0.140556 0.000926065 0)
(0.139603 0.000900275 0)
(0.138663 0.00087535 0)
(0.137736 0.000851247 0)
(0.136823 0.000827926 0)
(0.135923 0.000805351 0)
(0.135035 0.000783485 0)
(0.134161 0.000762294 0)
(0.133299 0.000741747 0)
(0.13245 0.000721811 0)
(0.131613 0.000702459 0)
(0.130789 0.000683662 0)
(0.129978 0.000665394 0)
(0.129178 0.00064763 0)
(0.128391 0.000630346 0)
(0.127616 0.000613521 0)
(0.126853 0.000597134 0)
(0.126103 0.000581165 0)
(0.125364 0.000565596 0)
(0.124637 0.00055041 0)
(0.123922 0.000535594 0)
(0.123219 0.000521134 0)
(0.122528 0.000507018 0)
(0.121848 0.000493238 0)
(0.121181 0.000479787 0)
(0.120525 0.000466661 0)
(0.119881 0.00045386 0)
(0.119248 0.000441389 0)
(0.118627 0.000429259 0)
(0.118017 0.000417491 0)
(0.117419 0.00040612 0)
(0.116832 0.000395217 0)
(0.116256 0.000384918 0)
(0.115691 0.00037554 0)
(0.115135 0.000367919 0)
(0.114588 0.000364751 0)
(0.114057 0.000377002 0)
(0.113395 0.000427118 0)
(0.195798 0.0074 0)
(0.196691 0.00830063 0)
(0.197697 0.00888604 0)
(0.198686 0.00922624 0)
(0.199611 0.00937995 0)
(0.200455 0.00937509 0)
(0.201192 0.00923334 0)
(0.201801 0.00898091 0)
(0.202265 0.00864604 0)
(0.20258 0.0082558 0)
(0.20275 0.00783469 0)
(0.202781 0.00740376 0)
(0.202689 0.00697976 0)
(0.202486 0.00657479 0)
(0.202189 0.00619648 0)
(0.201812 0.00584867 0)
(0.201368 0.00553226 0)
(0.200869 0.00524607 0)
(0.200321 0.00498773 0)
(0.199733 0.00475422 0)
(0.199109 0.00454239 0)
(0.198454 0.00434924 0)
(0.197771 0.00417209 0)
(0.197062 0.0040086 0)
(0.196329 0.00385684 0)
(0.195574 0.00371521 0)
(0.194799 0.00358241 0)
(0.194004 0.00345738 0)
(0.193192 0.00333928 0)
(0.192363 0.00322739 0)
(0.191519 0.00312114 0)
(0.190661 0.00302003 0)
(0.18979 0.00292366 0)
(0.188907 0.00283166 0)
(0.188014 0.00274373 0)
(0.187112 0.00265957 0)
(0.186201 0.00257894 0)
(0.185282 0.00250163 0)
(0.184357 0.00242743 0)
(0.183427 0.00235615 0)
(0.182492 0.00228763 0)
(0.181553 0.00222173 0)
(0.18061 0.00215828 0)
(0.179666 0.00209718 0)
(0.17872 0.00203829 0)
(0.177773 0.00198151 0)
(0.176825 0.00192673 0)
(0.175878 0.00187386 0)
(0.174932 0.00182281 0)
(0.173987 0.00177349 0)
(0.173044 0.00172583 0)
(0.172104 0.00167975 0)
(0.171166 0.00163517 0)
(0.170232 0.00159205 0)
(0.169301 0.0015503 0)
(0.168375 0.00150988 0)
(0.167453 0.00147072 0)
(0.166535 0.00143278 0)
(0.165623 0.00139599 0)
(0.164716 0.00136032 0)
(0.163815 0.00132572 0)
(0.16292 0.00129214 0)
(0.16203 0.00125953 0)
(0.161148 0.00122786 0)
(0.160271 0.00119709 0)
(0.159402 0.00116719 0)
(0.158539 0.0011381 0)
(0.157684 0.00110981 0)
(0.156836 0.00108227 0)
(0.155995 0.00105545 0)
(0.155162 0.00102933 0)
(0.154337 0.00100387 0)
(0.15352 0.000979048 0)
(0.15271 0.000954831 0)
(0.151909 0.000931196 0)
(0.151116 0.000908116 0)
(0.150332 0.000885569 0)
(0.149556 0.000863531 0)
(0.148789 0.000841981 0)
(0.14803 0.000820898 0)
(0.147281 0.000800265 0)
(0.14654 0.000780064 0)
(0.145809 0.000760279 0)
(0.145087 0.000740897 0)
(0.144374 0.000721907 0)
(0.14367 0.000703298 0)
(0.142977 0.000685066 0)
(0.142293 0.000667208 0)
(0.141618 0.000649725 0)
(0.140954 0.000632624 0)
(0.140299 0.000615922 0)
(0.139655 0.000599647 0)
(0.13902 0.000583845 0)
(0.138395 0.000568604 0)
(0.137781 0.000554095 0)
(0.137176 0.000540693 0)
(0.13658 0.000529352 0)
(0.135993 0.000522854 0)
(0.135426 0.000529848 0)
(0.134747 0.000559517 0)
(0.196324 0.00702206 0)
(0.197079 0.00782538 0)
(0.197954 0.00838418 0)
(0.19885 0.00873178 0)
(0.19972 0.0089101 0)
(0.200544 0.00894415 0)
(0.201301 0.00885332 0)
(0.201972 0.0086599 0)
(0.202544 0.00838826 0)
(0.203009 0.00806208 0)
(0.203367 0.00770294 0)
(0.203623 0.00732957 0)
(0.203783 0.00695724 0)
(0.203859 0.00659735 0)
(0.20386 0.00625754 0)
(0.203798 0.00594215 0)
(0.203682 0.00565284 0)
(0.20352 0.00538937 0)
(0.20332 0.00515022 0)
(0.203085 0.00493315 0)
(0.202822 0.00473565 0)
(0.202531 0.00455524 0)
(0.202217 0.00438956 0)
(0.20188 0.00423657 0)
(0.201521 0.0040945 0)
(0.201141 0.00396186 0)
(0.200742 0.00383742 0)
(0.200323 0.00372018 0)
(0.199886 0.00360931 0)
(0.199431 0.00350413 0)
(0.198958 0.00340407 0)
(0.198469 0.00330866 0)
(0.197964 0.00321748 0)
(0.197443 0.0031302 0)
(0.196907 0.00304652 0)
(0.196356 0.00296617 0)
(0.195792 0.00288892 0)
(0.195215 0.00281455 0)
(0.194625 0.0027429 0)
(0.194024 0.00267378 0)
(0.193411 0.00260705 0)
(0.192787 0.00254257 0)
(0.192153 0.00248021 0)
(0.19151 0.00241986 0)
(0.190858 0.00236142 0)
(0.190197 0.00230479 0)
(0.189529 0.00224988 0)
(0.188853 0.00219662 0)
(0.18817 0.00214491 0)
(0.187481 0.00209471 0)
(0.186787 0.00204593 0)
(0.186087 0.00199852 0)
(0.185382 0.00195242 0)
(0.184673 0.00190758 0)
(0.18396 0.00186395 0)
(0.183244 0.00182147 0)
(0.182524 0.00178011 0)
(0.181802 0.00173981 0)
(0.181078 0.00170054 0)
(0.180352 0.00166226 0)
(0.179625 0.00162493 0)
(0.178897 0.00158852 0)
(0.178168 0.00155298 0)
(0.177439 0.00151829 0)
(0.176709 0.00148441 0)
(0.175981 0.00145132 0)
(0.175253 0.00141898 0)
(0.174525 0.00138736 0)
(0.1738 0.00135644 0)
(0.173076 0.00132618 0)
(0.172353 0.00129657 0)
(0.171633 0.00126757 0)
(0.170916 0.00123917 0)
(0.170201 0.00121133 0)
(0.169489 0.00118404 0)
(0.168781 0.00115727 0)
(0.168076 0.00113101 0)
(0.167375 0.00110522 0)
(0.166678 0.00107989 0)
(0.165985 0.00105501 0)
(0.165297 0.00103056 0)
(0.164613 0.00100652 0)
(0.163935 0.000982877 0)
(0.163262 0.00095962 0)
(0.162594 0.000936741 0)
(0.161933 0.000914232 0)
(0.161277 0.00089209 0)
(0.160627 0.000870316 0)
(0.159984 0.000848914 0)
(0.159348 0.000827897 0)
(0.158718 0.000807286 0)
(0.158095 0.000787116 0)
(0.15748 0.000767448 0)
(0.156871 0.000748382 0)
(0.15627 0.00073011 0)
(0.155676 0.000713036 0)
(0.15509 0.000698098 0)
(0.154512 0.000687668 0)
(0.153954 0.000687187 0)
(0.153299 0.000694453 0)
(0.196787 0.00669476 0)
(0.197435 0.00740836 0)
(0.198196 0.00793182 0)
(0.198996 0.00827558 0)
(0.199791 0.00846707 0)
(0.200557 0.00852729 0)
(0.201275 0.00847342 0)
(0.201929 0.00832455 0)
(0.202508 0.00810164 0)
(0.203003 0.00782544 0)
(0.203415 0.0075151 0)
(0.203746 0.00718743 0)
(0.204002 0.00685637 0)
(0.204189 0.00653265 0)
(0.204318 0.00622381 0)
(0.204396 0.00593448 0)
(0.204432 0.00566691 0)
(0.204433 0.00542155 0)
(0.204403 0.00519759 0)
(0.204349 0.00499347 0)
(0.204273 0.00480723 0)
(0.204178 0.00463682 0)
(0.204065 0.00448025 0)
(0.203937 0.0043357 0)
(0.203793 0.00420159 0)
(0.203635 0.00407653 0)
(0.203462 0.00395938 0)
(0.203275 0.00384916 0)
(0.203074 0.00374508 0)
(0.20286 0.00364645 0)
(0.202632 0.00355271 0)
(0.20239 0.00346338 0)
(0.202135 0.00337807 0)
(0.201867 0.00329642 0)
(0.201586 0.00321812 0)
(0.201292 0.00314291 0)
(0.200985 0.00307056 0)
(0.200666 0.00300086 0)
(0.200335 0.00293361 0)
(0.199991 0.00286866 0)
(0.199636 0.00280586 0)
(0.19927 0.00274506 0)
(0.198892 0.00268615 0)
(0.198503 0.00262902 0)
(0.198104 0.00257356 0)
(0.197694 0.00251968 0)
(0.197275 0.0024673 0)
(0.196845 0.00241634 0)
(0.196406 0.00236673 0)
(0.195958 0.0023184 0)
(0.195501 0.0022713 0)
(0.195035 0.00222536 0)
(0.194562 0.00218054 0)
(0.19408 0.00213679 0)
(0.193591 0.00209405 0)
(0.193095 0.0020523 0)
(0.192591 0.00201148 0)
(0.192081 0.00197156 0)
(0.191565 0.00193251 0)
(0.191043 0.00189428 0)
(0.190515 0.00185686 0)
(0.189982 0.0018202 0)
(0.189444 0.00178428 0)
(0.188901 0.00174906 0)
(0.188354 0.00171453 0)
(0.187802 0.00168066 0)
(0.187247 0.00164741 0)
(0.186688 0.00161477 0)
(0.186127 0.00158271 0)
(0.185562 0.00155121 0)
(0.184995 0.00152025 0)
(0.184426 0.0014898 0)
(0.183854 0.00145984 0)
(0.183281 0.00143036 0)
(0.182707 0.00140133 0)
(0.182132 0.00137274 0)
(0.181555 0.00134456 0)
(0.180979 0.00131678 0)
(0.180402 0.00128939 0)
(0.179825 0.00126236 0)
(0.179249 0.00123568 0)
(0.178673 0.00120935 0)
(0.178099 0.00118334 0)
(0.177526 0.00115766 0)
(0.176954 0.00113229 0)
(0.176384 0.00110722 0)
(0.175816 0.00108247 0)
(0.175251 0.00105804 0)
(0.174688 0.00103393 0)
(0.174129 0.00101016 0)
(0.173572 0.000986754 0)
(0.173019 0.000963763 0)
(0.172469 0.000941252 0)
(0.171924 0.000919333 0)
(0.171382 0.000898204 0)
(0.170845 0.000878254 0)
(0.170312 0.000860285 0)
(0.169786 0.000845939 0)
(0.169279 0.000837405 0)
(0.168685 0.000824036 0)
(0.197196 0.00640555 0)
(0.197761 0.00703879 0)
(0.198427 0.0075232 0)
(0.19914 0.00785647 0)
(0.199861 0.00805467 0)
(0.200565 0.00813412 0)
(0.201232 0.00810953 0)
(0.201849 0.00799704 0)
(0.202405 0.00781457 0)
(0.202892 0.00758021 0)
(0.203309 0.00731094 0)
(0.203659 0.00702187 0)
(0.203945 0.00672575 0)
(0.204173 0.00643267 0)
(0.204352 0.00614998 0)
(0.204488 0.0058825 0)
(0.204588 0.00563294 0)
(0.20466 0.0054023 0)
(0.204707 0.0051904 0)
(0.204734 0.00499624 0)
(0.204746 0.00481839 0)
(0.204743 0.00465522 0)
(0.204729 0.00450507 0)
(0.204704 0.00436638 0)
(0.204669 0.00423774 0)
(0.204624 0.00411789 0)
(0.204571 0.00400578 0)
(0.204509 0.00390049 0)
(0.204438 0.00380123 0)
(0.204358 0.00370736 0)
(0.204269 0.00361832 0)
(0.204172 0.00353364 0)
(0.204065 0.00345291 0)
(0.20395 0.00337577 0)
(0.203825 0.00330191 0)
(0.203692 0.00323107 0)
(0.20355 0.00316301 0)
(0.203398 0.00309751 0)
(0.203237 0.00303437 0)
(0.203067 0.00297344 0)
(0.202889 0.00291455 0)
(0.202701 0.00285757 0)
(0.202503 0.00280236 0)
(0.202297 0.00274882 0)
(0.202082 0.00269684 0)
(0.201858 0.00264632 0)
(0.201625 0.00259718 0)
(0.201383 0.00254933 0)
(0.201133 0.00250271 0)
(0.200873 0.00245725 0)
(0.200606 0.00241289 0)
(0.20033 0.00236956 0)
(0.200045 0.00232722 0)
(0.199753 0.00228582 0)
(0.199452 0.00224531 0)
(0.199144 0.00220565 0)
(0.198828 0.0021668 0)
(0.198504 0.00212871 0)
(0.198173 0.00209137 0)
(0.197835 0.00205473 0)
(0.19749 0.00201876 0)
(0.197137 0.00198343 0)
(0.196778 0.00194872 0)
(0.196413 0.0019146 0)
(0.196042 0.00188103 0)
(0.195664 0.001848 0)
(0.19528 0.00181549 0)
(0.194891 0.00178346 0)
(0.194496 0.0017519 0)
(0.194097 0.00172079 0)
(0.193692 0.0016901 0)
(0.193282 0.00165982 0)
(0.192868 0.00162993 0)
(0.192449 0.0016004 0)
(0.192027 0.00157122 0)
(0.1916 0.00154237 0)
(0.19117 0.00151384 0)
(0.190737 0.00148561 0)
(0.1903 0.00145766 0)
(0.189861 0.00142999 0)
(0.189419 0.00140257 0)
(0.188975 0.00137541 0)
(0.188529 0.00134848 0)
(0.18808 0.00132178 0)
(0.187631 0.00129532 0)
(0.18718 0.00126908 0)
(0.186728 0.00124306 0)
(0.186275 0.00121729 0)
(0.185822 0.00119176 0)
(0.185368 0.00116651 0)
(0.184915 0.00114156 0)
(0.184461 0.00111696 0)
(0.184008 0.00109279 0)
(0.183556 0.00106916 0)
(0.183105 0.00104627 0)
(0.182655 0.00102444 0)
(0.182207 0.00100426 0)
(0.181764 0.000986548 0)
(0.181335 0.000970759 0)
(0.18083 0.000941216 0)
(0.19756 0.0061456 0)
(0.198059 0.00670832 0)
(0.198646 0.00715337 0)
(0.199283 0.0074721 0)
(0.199936 0.00767236 0)
(0.20058 0.00776593 0)
(0.201197 0.00776493 0)
(0.201774 0.0076829 0)
(0.202299 0.00753503 0)
(0.202767 0.00733698 0)
(0.203175 0.00710372 0)
(0.203524 0.00684879 0)
(0.203817 0.0065838 0)
(0.20406 0.00631817 0)
(0.204258 0.00605898 0)
(0.204418 0.00581116 0)
(0.204546 0.00557772 0)
(0.204648 0.00536013 0)
(0.204728 0.0051587 0)
(0.204792 0.00497297 0)
(0.204842 0.00480196 0)
(0.204881 0.00464442 0)
(0.20491 0.00449903 0)
(0.204932 0.00436449 0)
(0.204947 0.00423956 0)
(0.204955 0.00412314 0)
(0.204958 0.00401426 0)
(0.204956 0.00391208 0)
(0.204948 0.00381587 0)
(0.204935 0.003725 0)
(0.204917 0.00363894 0)
(0.204894 0.00355723 0)
(0.204866 0.00347946 0)
(0.204832 0.00340529 0)
(0.204793 0.00333441 0)
(0.204748 0.00326655 0)
(0.204698 0.00320146 0)
(0.204642 0.00313893 0)
(0.204581 0.00307877 0)
(0.204513 0.0030208 0)
(0.20444 0.00296486 0)
(0.204361 0.00291081 0)
(0.204276 0.00285853 0)
(0.204184 0.00280788 0)
(0.204086 0.00275877 0)
(0.203982 0.00271109 0)
(0.203872 0.00266476 0)
(0.203755 0.00261968 0)
(0.203632 0.00257579 0)
(0.203502 0.00253302 0)
(0.203366 0.00249129 0)
(0.203223 0.00245054 0)
(0.203074 0.00241073 0)
(0.202918 0.0023718 0)
(0.202755 0.0023337 0)
(0.202586 0.00229638 0)
(0.20241 0.00225981 0)
(0.202228 0.00222394 0)
(0.202039 0.00218874 0)
(0.201844 0.00215417 0)
(0.201642 0.0021202 0)
(0.201434 0.00208679 0)
(0.20122 0.00205392 0)
(0.201 0.00202156 0)
(0.200773 0.00198969 0)
(0.20054 0.00195827 0)
(0.200301 0.00192728 0)
(0.200057 0.00189669 0)
(0.199806 0.0018665 0)
(0.19955 0.00183666 0)
(0.199288 0.00180717 0)
(0.199021 0.00177799 0)
(0.198748 0.00174912 0)
(0.19847 0.00172053 0)
(0.198187 0.0016922 0)
(0.1979 0.00166412 0)
(0.197607 0.00163627 0)
(0.19731 0.00160863 0)
(0.197008 0.00158119 0)
(0.196702 0.00155394 0)
(0.196392 0.00152686 0)
(0.196078 0.00149995 0)
(0.19576 0.00147319 0)
(0.195438 0.00144657 0)
(0.195114 0.00142011 0)
(0.194786 0.00139379 0)
(0.194455 0.00136761 0)
(0.194121 0.0013416 0)
(0.193784 0.00131576 0)
(0.193445 0.00129011 0)
(0.193104 0.0012647 0)
(0.192761 0.00123958 0)
(0.192416 0.00121482 0)
(0.192069 0.00119053 0)
(0.191721 0.00116688 0)
(0.191372 0.00114414 0)
(0.191023 0.00112263 0)
(0.190676 0.00110241 0)
(0.190339 0.00108105 0)
(0.189935 0.00104111 0)
(0.197885 0.00590886 0)
(0.198331 0.00641027 0)
(0.198852 0.00681748 0)
(0.199423 0.00711929 0)
(0.200014 0.00731803 0)
(0.200603 0.00742154 0)
(0.201173 0.00743948 0)
(0.201711 0.00738306 0)
(0.202206 0.00726506 0)
(0.202651 0.00709893 0)
(0.203045 0.00689777 0)
(0.203388 0.00667364 0)
(0.20368 0.00643706 0)
(0.203927 0.00619675 0)
(0.204133 0.00595948 0)
(0.204304 0.00573014 0)
(0.204446 0.00551195 0)
(0.204563 0.00530674 0)
(0.204659 0.00511525 0)
(0.20474 0.00493744 0)
(0.204808 0.00477272 0)
(0.204866 0.00462023 0)
(0.204915 0.00447894 0)
(0.204958 0.00434779 0)
(0.204995 0.00422574 0)
(0.205027 0.00411183 0)
(0.205055 0.0040052 0)
(0.205079 0.00390509 0)
(0.2051 0.00381083 0)
(0.205118 0.00372183 0)
(0.205132 0.0036376 0)
(0.205144 0.00355768 0)
(0.205152 0.00348169 0)
(0.205158 0.0034093 0)
(0.20516 0.0033402 0)
(0.20516 0.00327413 0)
(0.205156 0.00321085 0)
(0.205149 0.00315014 0)
(0.20514 0.00309182 0)
(0.205126 0.00303572 0)
(0.20511 0.00298166 0)
(0.20509 0.00292952 0)
(0.205066 0.00287915 0)
(0.205039 0.00283045 0)
(0.205008 0.00278329 0)
(0.204973 0.00273758 0)
(0.204935 0.00269322 0)
(0.204892 0.00265013 0)
(0.204845 0.00260823 0)
(0.204794 0.00256745 0)
(0.204739 0.00252772 0)
(0.20468 0.00248897 0)
(0.204616 0.00245115 0)
(0.204547 0.0024142 0)
(0.204474 0.00237807 0)
(0.204397 0.00234272 0)
(0.204315 0.00230809 0)
(0.204228 0.00227415 0)
(0.204136 0.00224086 0)
(0.204039 0.00220817 0)
(0.203938 0.00217606 0)
(0.203832 0.00214448 0)
(0.203721 0.00211341 0)
(0.203605 0.00208282 0)
(0.203483 0.00205267 0)
(0.203357 0.00202295 0)
(0.203227 0.00199361 0)
(0.203091 0.00196464 0)
(0.20295 0.00193601 0)
(0.202804 0.0019077 0)
(0.202653 0.00187968 0)
(0.202498 0.00185194 0)
(0.202337 0.00182444 0)
(0.202172 0.00179718 0)
(0.202002 0.00177012 0)
(0.201827 0.00174326 0)
(0.201647 0.00171657 0)
(0.201463 0.00169004 0)
(0.201275 0.00166365 0)
(0.201082 0.00163738 0)
(0.200884 0.00161123 0)
(0.200682 0.00158518 0)
(0.200476 0.00155922 0)
(0.200266 0.00153335 0)
(0.200052 0.00150756 0)
(0.199834 0.00148186 0)
(0.199612 0.00145624 0)
(0.199387 0.00143072 0)
(0.199158 0.00140531 0)
(0.198925 0.00138004 0)
(0.198689 0.00135495 0)
(0.19845 0.00133009 0)
(0.198207 0.00130552 0)
(0.197962 0.00128136 0)
(0.197714 0.00125775 0)
(0.197463 0.00123486 0)
(0.197211 0.00121279 0)
(0.196959 0.001191 0)
(0.196713 0.0011661 0)
(0.196409 0.00112153 0)
(0.198177 0.00569098 0)
(0.198579 0.00613926 0)
(0.199045 0.00651111 0)
(0.199558 0.00679486 0)
(0.200094 0.0069894 0)
(0.200633 0.00709946 0)
(0.201159 0.00713242 0)
(0.20166 0.00709746 0)
(0.202125 0.00700522 0)
(0.202548 0.00686717 0)
(0.202927 0.0066947 0)
(0.20326 0.00649848 0)
(0.203549 0.006288 0)
(0.203796 0.00607125 0)
(0.204006 0.00585465 0)
(0.204184 0.00564298 0)
(0.204333 0.00543958 0)
(0.204459 0.00524651 0)
(0.204565 0.00506486 0)
(0.204656 0.00489494 0)
(0.204734 0.00473652 0)
(0.204802 0.00458905 0)
(0.204862 0.00445178 0)
(0.204915 0.00432387 0)
(0.204962 0.00420448 0)
(0.205005 0.0040928 0)
(0.205045 0.00398807 0)
(0.205081 0.00388961 0)
(0.205115 0.00379683 0)
(0.205146 0.00370917 0)
(0.205175 0.00362618 0)
(0.205202 0.00354744 0)
(0.205227 0.00347258 0)
(0.20525 0.00340128 0)
(0.205271 0.00333325 0)
(0.205291 0.00326824 0)
(0.205309 0.00320601 0)
(0.205325 0.00314637 0)
(0.20534 0.00308912 0)
(0.205352 0.00303409 0)
(0.205363 0.00298113 0)
(0.205373 0.00293009 0)
(0.20538 0.00288085 0)
(0.205385 0.0028333 0)
(0.205389 0.00278731 0)
(0.20539 0.00274279 0)
(0.205389 0.00269964 0)
(0.205386 0.00265779 0)
(0.205381 0.00261715 0)
(0.205373 0.00257764 0)
(0.205363 0.0025392 0)
(0.205351 0.00250177 0)
(0.205336 0.00246528 0)
(0.205318 0.00242968 0)
(0.205297 0.00239491 0)
(0.205274 0.00236093 0)
(0.205248 0.00232769 0)
(0.205218 0.00229514 0)
(0.205186 0.00226325 0)
(0.205151 0.00223197 0)
(0.205112 0.00220127 0)
(0.205071 0.0021711 0)
(0.205026 0.00214145 0)
(0.204977 0.00211227 0)
(0.204926 0.00208353 0)
(0.20487 0.00205521 0)
(0.204812 0.00202727 0)
(0.204749 0.00199969 0)
(0.204683 0.00197243 0)
(0.204614 0.00194548 0)
(0.20454 0.00191881 0)
(0.204463 0.0018924 0)
(0.204383 0.00186621 0)
(0.204298 0.00184024 0)
(0.20421 0.00181446 0)
(0.204118 0.00178884 0)
(0.204022 0.00176337 0)
(0.203922 0.00173803 0)
(0.203818 0.0017128 0)
(0.203711 0.00168767 0)
(0.2036 0.00166262 0)
(0.203485 0.00163764 0)
(0.203366 0.00161272 0)
(0.203243 0.00158786 0)
(0.203117 0.00156304 0)
(0.202987 0.00153826 0)
(0.202853 0.00151354 0)
(0.202715 0.00148888 0)
(0.202574 0.00146429 0)
(0.202429 0.00143981 0)
(0.202281 0.00141547 0)
(0.202129 0.00139131 0)
(0.201973 0.00136741 0)
(0.201814 0.00134387 0)
(0.201652 0.00132078 0)
(0.201487 0.00129825 0)
(0.201319 0.00127618 0)
(0.201151 0.0012537 0)
(0.200984 0.00122717 0)