/*--------------------------------*- C++ -*----------------------------------*\
| =========                 |                                                 |
| \\      /  F ield         | OpenFOAM: The Open Source CFD Toolbox           |
|  \\    /   O peration     | Version:  2.3.0                                 |
|   \\  /    A nd           | Web:      www.OpenFOAM.org                      |
|    \\/     M anipulation  |                                                 |
\*---------------------------------------------------------------------------*/
FoamFile
{
    version     2.0;
    format      ascii;
    class       surfaceScalarField;
    location    "0.85";
    object      phi;
}
// * * * * * * * * * * * * * * * * * * * * * * * * * * * * * * * * * * * * * //

dimensions      [0 3 -1 0 0 0 0];

internalField   nonuniform List<scalar> 
2863
(
2.8889e-08
2.77934e-09
-3.16684e-08
2.54109e-08
3.47819e-09
2.19511e-08
3.45979e-09
1.87415e-08
3.20958e-09
1.58153e-08
2.92617e-09
1.32526e-08
2.5627e-09
1.11508e-08
2.10182e-09
9.52634e-09
1.62444e-09
8.34246e-09
1.18388e-09
7.51273e-09
8.29738e-10
6.93769e-09
5.75034e-10
6.53193e-09
4.05763e-10
6.23245e-09
2.99479e-10
5.996e-09
2.36448e-10
5.79391e-09
2.02095e-10
5.60973e-09
1.84176e-10
5.43597e-09
1.73765e-10
5.2703e-09
1.65662e-10
5.11279e-09
1.57516e-10
4.96413e-09
1.48659e-10
4.82491e-09
1.39216e-10
4.69533e-09
1.2958e-10
4.57518e-09
1.20149e-10
4.46395e-09
1.11231e-10
4.36094e-09
1.03016e-10
4.26535e-09
9.55903e-11
4.17638e-09
8.89626e-11
4.09329e-09
8.30972e-11
4.01536e-09
7.79237e-11
3.942e-09
7.33615e-11
3.87268e-09
6.93231e-11
3.80695e-09
6.57316e-11
3.74443e-09
6.25138e-11
3.68482e-09
5.9613e-11
3.62784e-09
5.69759e-11
3.57328e-09
5.45661e-11
3.52093e-09
5.23466e-11
3.47064e-09
5.02965e-11
3.42225e-09
4.83896e-11
3.37563e-09
4.66153e-11
3.33068e-09
4.49537e-11
3.28728e-09
4.34009e-11
3.24534e-09
4.19397e-11
3.20477e-09
4.05709e-11
3.16549e-09
3.92778e-11
3.12742e-09
3.80649e-11
3.09051e-09
3.69144e-11
3.05467e-09
3.58345e-11
3.01987e-09
3.48054e-11
2.98603e-09
3.3839e-11
2.95312e-09
3.29128e-11
2.92107e-09
3.20431e-11
2.88987e-09
3.12037e-11
2.85945e-09
3.04163e-11
2.8298e-09
2.965e-11
2.80087e-09
2.89329e-11
2.77264e-09
2.82281e-11
2.74507e-09
2.75713e-11
2.71815e-09
2.69182e-11
2.69184e-09
2.63138e-11
2.66613e-09
2.57042e-11
2.64099e-09
2.51459e-11
2.61642e-09
2.45729e-11
2.59236e-09
2.40559e-11
2.56885e-09
2.35136e-11
2.54581e-09
2.30338e-11
2.5233e-09
2.25174e-11
2.50122e-09
2.2072e-11
2.47965e-09
2.15764e-11
2.45848e-09
2.1164e-11
2.4378e-09
2.06845e-11
2.41749e-09
2.03039e-11
2.39766e-09
1.98366e-11
2.37817e-09
1.94872e-11
2.35914e-09
1.90282e-11
2.34043e-09
1.87108e-11
2.32218e-09
1.82552e-11
2.3042e-09
1.79723e-11
2.28669e-09
1.75155e-11
2.26942e-09
1.72701e-11
2.25261e-09
1.68079e-11
2.23601e-09
1.66045e-11
2.21987e-09
1.61319e-11
2.2039e-09
1.59781e-11
2.18841e-09
1.54887e-11
2.17301e-09
1.5395e-11
2.15813e-09
1.48831e-11
2.14327e-09
1.48623e-11
2.12895e-09
1.43203e-11
2.11455e-09
1.43942e-11
2.10074e-09
1.38087e-11
2.08674e-09
1.40074e-11
2.07337e-09
1.33628e-11
2.05965e-09
1.37268e-11
2.04665e-09
1.30005e-11
2.03306e-09
1.35903e-11
2.02031e-09
1.27432e-11
2.00664e-09
1.36774e-11
1.99398e-09
1.26522e-11
1.58406e-11
3.63144e-08
2.4895e-09
-3.60245e-08
3.61382e-08
3.65434e-09
3.54207e-08
4.17734e-09
3.44173e-08
4.21301e-09
3.32406e-08
4.10279e-09
3.19107e-08
3.89264e-09
3.04509e-08
3.56162e-09
2.89391e-08
3.13625e-09
2.74524e-08
2.6706e-09
2.60471e-08
2.23505e-09
2.47481e-08
1.87394e-09
2.3558e-08
1.59591e-09
2.24749e-08
1.38256e-09
2.14976e-08
1.21374e-09
2.06167e-08
1.08302e-09
1.98216e-08
9.79273e-10
1.9102e-08
8.93344e-10
1.84486e-08
8.19125e-10
1.7853e-08
7.53089e-10
1.73083e-08
6.93386e-10
1.68084e-08
6.39085e-10
1.63483e-08
5.89712e-10
1.59234e-08
5.44973e-10
1.553e-08
5.04627e-10
1.51647e-08
4.68407e-10
1.48242e-08
4.36003e-10
1.45061e-08
4.07078e-10
1.42079e-08
3.81289e-10
1.39276e-08
3.58282e-10
1.36632e-08
3.37715e-10
1.34133e-08
3.19267e-10
1.31764e-08
3.02653e-10
1.29513e-08
2.87616e-10
1.27369e-08
2.73944e-10
1.25325e-08
2.61449e-10
1.2337e-08
2.49983e-10
1.215e-08
2.39414e-10
1.19706e-08
2.29641e-10
1.17984e-08
2.20571e-10
1.16329e-08
2.12138e-10
1.14736e-08
2.0427e-10
1.13201e-08
1.96925e-10
1.1172e-08
1.90046e-10
1.10289e-08
1.83604e-10
1.08907e-08
1.7755e-10
1.07569e-08
1.71866e-10
1.06273e-08
1.66507e-10
1.05016e-08
1.61463e-10
1.03798e-08
1.56691e-10
1.02614e-08
1.52189e-10
1.01464e-08
1.47912e-10
1.00346e-08
1.43868e-10
9.92578e-09
1.40011e-10
9.81984e-09
1.36355e-10
9.71664e-09
1.32852e-10
9.61605e-09
1.29527e-10
9.51795e-09
1.26323e-10
9.42224e-09
1.2328e-10
9.32883e-09
1.20332e-10
9.23761e-09
1.17531e-10
9.14852e-09
1.148e-10
9.06145e-09
1.1221e-10
8.97636e-09
1.09666e-10
8.89316e-09
1.0726e-10
8.81179e-09
1.04876e-10
8.7322e-09
1.02632e-10
8.65433e-09
1.00387e-10
8.57811e-09
9.82862e-11
8.50353e-09
9.61599e-11
8.4305e-09
9.41901e-11
8.35902e-09
9.21647e-11
8.28901e-09
9.03139e-11
8.22047e-09
8.8375e-11
8.15333e-09
8.66334e-11
8.08759e-09
8.47677e-11
8.02317e-09
8.31294e-11
7.9601e-09
8.13235e-11
7.89829e-09
7.97868e-11
7.83777e-09
7.8029e-11
7.77845e-09
7.65941e-11
7.72038e-09
7.48757e-11
7.66344e-09
7.35459e-11
7.60771e-09
7.18593e-11
7.55305e-09
7.06453e-11
7.49955e-09
6.89824e-11
7.44705e-09
6.79014e-11
7.39567e-09
6.62601e-11
7.3452e-09
6.53342e-11
7.2958e-09
6.3714e-11
7.24721e-09
6.29841e-11
7.19964e-09
6.13799e-11
7.15275e-09
6.09036e-11
7.10679e-09
5.93179e-11
7.06135e-09
5.91692e-11
7.01674e-09
5.76097e-11
6.97243e-09
5.78937e-11
6.92881e-09
5.63716e-11
6.88515e-09
5.73313e-11
6.84181e-09
5.59915e-11
6.08889e-11
4.03647e-08
2.37497e-09
-4.02502e-08
4.07802e-08
3.23888e-09
4.10341e-08
3.92338e-09
4.10957e-08
4.1514e-09
4.10412e-08
4.15734e-09
4.08658e-08
4.06807e-09
4.05328e-08
3.89462e-09
4.00419e-08
3.62712e-09
3.94232e-08
3.28925e-09
3.87213e-08
2.93703e-09
3.7974e-08
2.62124e-09
3.72061e-08
2.3638e-09
3.64307e-08
2.15797e-09
3.56548e-08
1.98965e-09
3.4887e-08
1.85081e-09
3.41326e-08
1.73362e-09
3.33949e-08
1.63106e-09
3.26758e-08
1.53819e-09
3.19769e-08
1.45206e-09
3.12991e-08
1.37113e-09
3.06435e-08
1.29471e-09
3.00106e-08
1.22255e-09
2.9401e-08
1.15458e-09
2.88149e-08
1.09079e-09
2.82521e-08
1.03116e-09
2.77125e-08
9.75616e-10
2.71956e-08
9.24026e-10
2.67006e-08
8.76226e-10
2.62269e-08
8.32005e-10
2.57735e-08
7.91116e-10
2.53395e-08
7.53307e-10
2.49238e-08
7.1832e-10
2.45255e-08
6.85916e-10
2.41436e-08
6.55861e-10
2.37771e-08
6.27953e-10
2.34251e-08
6.01995e-10
2.30867e-08
5.77825e-10
2.2761e-08
5.55281e-10
2.24474e-08
5.34233e-10
2.21449e-08
5.14548e-10
2.18531e-08
4.96124e-10
2.15712e-08
4.78848e-10
2.12986e-08
4.62639e-10
2.10348e-08
4.474e-10
2.07793e-08
4.33066e-10
2.05316e-08
4.19553e-10
2.02913e-08
4.0681e-10
2.0058e-08
3.94762e-10
1.98313e-08
3.83371e-10
1.96109e-08
3.72567e-10
1.93965e-08
3.62326e-10
1.91878e-08
3.52581e-10
1.89845e-08
3.4332e-10
1.87864e-08
3.34478e-10
1.85932e-08
3.26052e-10
1.84047e-08
3.17982e-10
1.82208e-08
3.10274e-10
1.80412e-08
3.02866e-10
1.78657e-08
2.95775e-10
1.76943e-08
2.88938e-10
1.75267e-08
2.82381e-10
1.73629e-08
2.76039e-10
1.72026e-08
2.69945e-10
1.70459e-08
2.64033e-10
1.68924e-08
2.58345e-10
1.67422e-08
2.52807e-10
1.65951e-08
2.47474e-10
1.64511e-08
2.42264e-10
1.63101e-08
2.37242e-10
1.61719e-08
2.32321e-10
1.60365e-08
2.27573e-10
1.59039e-08
2.22905e-10
1.57739e-08
2.18401e-10
1.56466e-08
2.13955e-10
1.55217e-08
2.09668e-10
1.53994e-08
2.0542e-10
1.52794e-08
2.01327e-10
1.51619e-08
1.97257e-10
1.50466e-08
1.93341e-10
1.49338e-08
1.89434e-10
1.4823e-08
1.85685e-10
1.47146e-08
1.8193e-10
1.46081e-08
1.78346e-10
1.4504e-08
1.74741e-10
1.44016e-08
1.71323e-10
1.43017e-08
1.67877e-10
1.42033e-08
1.64643e-10
1.41073e-08
1.61368e-10
1.40126e-08
1.58351e-10
1.39203e-08
1.55287e-10
1.38292e-08
1.5252e-10
1.37403e-08
1.49732e-10
1.36524e-08
1.47278e-10
1.35667e-08
1.44852e-10
1.34815e-08
1.42795e-10
1.33985e-08
1.40885e-10
1.33156e-08
1.39296e-10
1.32345e-08
1.38445e-10
1.3153e-08
1.37498e-10
1.41303e-10
4.48458e-08
2.3322e-09
-4.4803e-08
4.51503e-08
2.93436e-09
4.55395e-08
3.53415e-09
4.58386e-08
3.85233e-09
4.60654e-08
3.93053e-09
4.62466e-08
3.88687e-09
4.63599e-08
3.78135e-09
4.63778e-08
3.60918e-09
4.62902e-08
3.37687e-09
4.61113e-08
3.11598e-09
4.58674e-08
2.8651e-09
4.55801e-08
2.65114e-09
4.52607e-08
2.47738e-09
4.4914e-08
2.33627e-09
4.45461e-08
2.2188e-09
4.41616e-08
2.11812e-09
4.37636e-08
2.02898e-09
4.33542e-08
1.94757e-09
4.29349e-08
1.8714e-09
4.2507e-08
1.79904e-09
4.20719e-08
1.72976e-09
4.16312e-08
1.66325e-09
4.11864e-08
1.59941e-09
4.0739e-08
1.53824e-09
4.02903e-08
1.47981e-09
3.98418e-08
1.42411e-09
3.93947e-08
1.37116e-09
3.895e-08
1.32092e-09
3.85087e-08
1.27332e-09
3.80716e-08
1.22823e-09
3.76393e-08
1.18555e-09
3.72126e-08
1.14508e-09
3.67917e-08
1.10673e-09
3.63773e-08
1.07032e-09
3.59695e-08
1.03576e-09
3.55686e-08
1.00288e-09
3.51748e-08
9.71629e-10
3.47882e-08
9.41851e-10
3.44089e-08
9.13521e-10
3.4037e-08
8.86489e-10
3.36724e-08
8.60756e-10
3.3315e-08
8.36169e-10
3.29649e-08
8.12755e-10
3.2622e-08
7.90352e-10
3.2286e-08
7.69011e-10
3.1957e-08
7.4856e-10
3.16347e-08
7.29073e-10
3.13191e-08
7.10362e-10
3.101e-08
6.92531e-10
3.07072e-08
6.75367e-10
3.04105e-08
6.5901e-10
3.01199e-08
6.43219e-10
2.9835e-08
6.28171e-10
2.95559e-08
6.13596e-10
2.92822e-08
5.99711e-10
2.9014e-08
5.86207e-10
2.87509e-08
5.73355e-10
2.8493e-08
5.60795e-10
2.82399e-08
5.4886e-10
2.79917e-08
5.37132e-10
2.77481e-08
5.26012e-10
2.75091e-08
5.15014e-10
2.72744e-08
5.04621e-10
2.70442e-08
4.94264e-10
2.6818e-08
4.8452e-10
2.65961e-08
4.74722e-10
2.6378e-08
4.65563e-10
2.6164e-08
4.5625e-10
2.59537e-08
4.47615e-10
2.57473e-08
4.38725e-10
2.55443e-08
4.30564e-10
2.53452e-08
4.22036e-10
2.51492e-08
4.14308e-10
2.49571e-08
4.06084e-10
2.4768e-08
3.9876e-10
2.45827e-08
3.9079e-10
2.44001e-08
3.83841e-10
2.42213e-08
3.76083e-10
2.40452e-08
3.69493e-10
2.38727e-08
3.61907e-10
2.37027e-08
3.55675e-10
2.35364e-08
3.48222e-10
2.33724e-08
3.4236e-10
2.32121e-08
3.35019e-10
2.30539e-08
3.29547e-10
2.28995e-08
3.22306e-10
2.27468e-08
3.17275e-10
2.25981e-08
3.10128e-10
2.24508e-08
3.0561e-10
2.23075e-08
2.98595e-10
2.21654e-08
2.94668e-10
2.20272e-08
2.87865e-10
2.18899e-08
2.84644e-10
2.17565e-08
2.78189e-10
2.16235e-08
2.75792e-10
2.14944e-08
2.69983e-10
2.13652e-08
2.68474e-10
2.12395e-08
2.64233e-10
2.11131e-08
2.63846e-10
2.63948e-10
4.98102e-08
2.28244e-09
-4.97604e-08
5.00134e-08
2.73117e-09
5.03548e-08
3.19271e-09
5.06816e-08
3.5255e-09
5.09484e-08
3.66377e-09
5.11719e-08
3.66334e-09
5.13643e-08
3.58893e-09
5.15095e-08
3.464e-09
5.15903e-08
3.29605e-09
5.16055e-08
3.10084e-09
5.15686e-08
2.90199e-09
5.14982e-08
2.72149e-09
5.14053e-08
2.57029e-09
5.12942e-08
2.44738e-09
5.1168e-08
2.34501e-09
5.10293e-08
2.25686e-09
5.08796e-08
2.17867e-09
5.07196e-08
2.10751e-09
5.05496e-08
2.04147e-09
5.03694e-08
1.97926e-09
5.0179e-08
1.92014e-09
4.99786e-08
1.86363e-09
4.97685e-08
1.80953e-09
4.9549e-08
1.75769e-09
4.93207e-08
1.7081e-09
4.90842e-08
1.66068e-09
4.88399e-08
1.61547e-09
4.85884e-08
1.57235e-09
4.83304e-08
1.53133e-09
4.80664e-08
1.49223e-09
4.77969e-08
1.45503e-09
4.75225e-08
1.41951e-09
4.72436e-08
1.38565e-09
4.69607e-08
1.3532e-09
4.66743e-08
1.32219e-09
4.63848e-08
1.29238e-09
4.60926e-08
1.26383e-09
4.57981e-08
1.23629e-09
4.55018e-08
1.20988e-09
4.5204e-08
1.18432e-09
4.49049e-08
1.15979e-09
4.46051e-08
1.13598e-09
4.43047e-08
1.11313e-09
4.40042e-08
1.09089e-09
4.37037e-08
1.06954e-09
4.34035e-08
1.04869e-09
4.31039e-08
1.02871e-09
4.28051e-08
1.00912e-09
4.25073e-08
9.90359e-10
4.22108e-08
9.71892e-10
4.19156e-08
9.5425e-10
4.1622e-08
9.36794e-10
4.133e-08
9.20163e-10
4.104e-08
9.03613e-10
4.07518e-08
8.87902e-10
4.04658e-08
8.72162e-10
4.01819e-08
8.57292e-10
3.99004e-08
8.42274e-10
3.96211e-08
8.28175e-10
3.93444e-08
8.13799e-10
3.907e-08
8.00409e-10
3.87984e-08
7.86603e-10
3.85292e-08
7.73867e-10
3.82629e-08
7.60563e-10
3.7999e-08
7.48435e-10
3.77381e-08
7.35565e-10
3.74797e-08
7.2401e-10
3.72244e-08
7.11508e-10
3.69716e-08
7.0049e-10
3.6722e-08
6.88301e-10
3.64748e-08
6.77789e-10
3.62309e-08
6.65852e-10
3.59894e-08
6.55829e-10
3.57514e-08
6.44079e-10
3.55156e-08
6.34534e-10
3.52835e-08
6.22915e-10
3.50535e-08
6.13839e-10
3.48273e-08
6.02298e-10
3.46031e-08
5.93694e-10
3.43828e-08
5.82178e-10
3.41644e-08
5.74069e-10
3.39501e-08
5.62524e-10
3.37376e-08
5.54947e-10
3.35292e-08
5.43341e-10
3.33224e-08
5.36339e-10
3.31201e-08
5.24657e-10
3.29191e-08
5.18313e-10
3.27226e-08
5.06546e-10
3.25273e-08
5.00966e-10
3.23367e-08
4.89176e-10
3.21469e-08
4.84464e-10
3.1962e-08
4.72778e-10
3.17776e-08
4.6908e-10
3.1598e-08
4.5772e-10
3.14186e-08
4.55179e-10
3.1244e-08
4.44594e-10
3.10691e-08
4.4335e-10
3.08988e-08
4.34608e-10
3.07275e-08
4.35113e-10
4.29805e-10
5.52712e-08
2.221e-09
-5.52097e-08
5.54256e-08
2.57671e-09
5.56946e-08
2.92379e-09
5.59936e-08
3.22646e-09
5.62596e-08
3.39781e-09
5.64796e-08
3.44335e-09
5.66659e-08
3.40258e-09
5.68192e-08
3.31068e-09
5.69301e-08
3.18514e-09
5.69939e-08
3.03707e-09
5.70161e-08
2.87975e-09
5.70097e-08
2.72795e-09
5.69864e-08
2.59355e-09
5.69529e-08
2.4809e-09
5.6912e-08
2.38591e-09
5.68655e-08
2.30336e-09
5.68146e-08
2.22961e-09
5.67598e-08
2.16226e-09
5.67013e-08
2.09995e-09
5.66389e-08
2.04165e-09
5.65723e-08
1.98681e-09
5.6501e-08
1.93489e-09
5.64248e-08
1.88571e-09
5.63436e-08
1.83895e-09
5.6257e-08
1.79462e-09
5.61653e-08
1.75247e-09
5.60681e-08
1.71262e-09
5.59656e-08
1.67481e-09
5.58578e-08
1.63915e-09
5.57447e-08
1.60532e-09
5.56263e-08
1.57345e-09
5.55027e-08
1.54313e-09
5.53738e-08
1.51453e-09
5.52398e-08
1.48719e-09
5.51007e-08
1.46136e-09
5.49565e-08
1.43653e-09
5.48073e-08
1.41303e-09
5.46533e-08
1.3903e-09
5.44944e-08
1.36876e-09
5.43309e-08
1.34779e-09
5.41628e-08
1.32792e-09
5.39903e-08
1.30845e-09
5.38135e-08
1.29002e-09
5.36325e-08
1.27182e-09
5.34475e-08
1.25461e-09
5.32587e-08
1.23749e-09
5.3066e-08
1.22135e-09
5.287e-08
1.20515e-09
5.26704e-08
1.18994e-09
5.24678e-08
1.1745e-09
5.22619e-08
1.1601e-09
5.20534e-08
1.14531e-09
5.1842e-08
1.13161e-09
5.16282e-08
1.11736e-09
5.14119e-08
1.10427e-09
5.11936e-08
1.09046e-09
5.09729e-08
1.07792e-09
5.07508e-08
1.06446e-09
5.05265e-08
1.05241e-09
5.03011e-08
1.03922e-09
5.00739e-08
1.02761e-09
4.98459e-08
1.01463e-09
4.96163e-08
1.00342e-09
4.93863e-08
9.9058e-10
4.9155e-08
9.79753e-10
4.89236e-08
9.66985e-10
4.8691e-08
9.56522e-10
4.84588e-08
9.43768e-10
4.82256e-08
9.33653e-10
4.79931e-08
9.20866e-10
4.77598e-08
9.11087e-10
4.75274e-08
8.98209e-10
4.72945e-08
8.88774e-10
4.70628e-08
8.7574e-10
4.68307e-08
8.66664e-10
4.66002e-08
8.53419e-10
4.63693e-08
8.44712e-10
4.61404e-08
8.31212e-10
4.59112e-08
8.22898e-10
4.56843e-08
8.09092e-10
4.54571e-08
8.01216e-10
4.52326e-08
7.87053e-10
4.50078e-08
7.79676e-10
4.4786e-08
7.6514e-10
4.45641e-08
7.58316e-10
4.43453e-08
7.43417e-10
4.41264e-08
7.37251e-10
4.39109e-08
7.21999e-10
4.36953e-08
7.16624e-10
4.34833e-08
7.01127e-10
4.32711e-08
6.96669e-10
4.30628e-08
6.81115e-10
4.28541e-08
6.77758e-10
4.26494e-08
6.62444e-10
4.24441e-08
6.60399e-10
4.22429e-08
6.45864e-10
4.20408e-08
6.45462e-10
4.18427e-08
6.32675e-10
4.16433e-08
6.34479e-10
6.24479e-10
6.12844e-08
2.15649e-09
-6.12199e-08
6.1414e-08
2.44703e-09
6.1618e-08
2.71988e-09
6.18725e-08
2.97192e-09
6.21187e-08
3.1516e-09
6.23312e-08
3.23082e-09
6.25062e-08
3.22759e-09
6.26481e-08
3.16883e-09
6.27567e-08
3.07651e-09
6.28299e-08
2.96385e-09
6.28693e-08
2.84031e-09
6.28821e-08
2.71524e-09
6.28777e-08
2.59786e-09
6.28646e-08
2.49405e-09
6.28464e-08
2.40412e-09
6.2825e-08
2.32475e-09
6.28015e-08
2.25313e-09
6.27766e-08
2.1871e-09
6.27509e-08
2.1257e-09
6.27245e-08
2.06806e-09
6.26973e-08
2.01398e-09
6.26693e-08
1.96288e-09
6.26402e-08
1.91478e-09
6.261e-08
1.86918e-09
6.25784e-08
1.82626e-09
6.25453e-08
1.78557e-09
6.25105e-08
1.74739e-09
6.24741e-08
1.71123e-09
6.24358e-08
1.67745e-09
6.23956e-08
1.64547e-09
6.23534e-08
1.6157e-09
6.2309e-08
1.58746e-09
6.22623e-08
1.56122e-09
6.22133e-08
1.53619e-09
6.21617e-08
1.51298e-09
6.21076e-08
1.49069e-09
6.20506e-08
1.47004e-09
6.19908e-08
1.45005e-09
6.1928e-08
1.4316e-09
6.18622e-08
1.41355e-09
6.17932e-08
1.39696e-09
6.17211e-08
1.38054e-09
6.16456e-08
1.36555e-09
6.15669e-08
1.3505e-09
6.14846e-08
1.33686e-09
6.13992e-08
1.32295e-09
6.131e-08
1.31048e-09
6.12177e-08
1.29751e-09
6.11216e-08
1.28604e-09
6.10222e-08
1.27383e-09
6.09191e-08
1.2632e-09
6.08128e-08
1.2516e-09
6.07028e-08
1.24169e-09
6.05896e-08
1.23056e-09
6.04726e-08
1.22125e-09
6.03526e-08
1.21046e-09
6.02288e-08
1.20168e-09
6.01022e-08
1.19111e-09
5.99718e-08
1.18277e-09
5.98387e-08
1.17232e-09
5.9702e-08
1.16436e-09
5.95626e-08
1.15394e-09
5.94198e-08
1.1463e-09
5.92745e-08
1.13583e-09
5.91258e-08
1.12848e-09
5.89749e-08
1.11787e-09
5.88206e-08
1.11078e-09
5.86644e-08
1.09995e-09
5.8505e-08
1.0931e-09
5.83439e-08
1.08198e-09
5.81796e-08
1.07534e-09
5.8014e-08
1.06388e-09
5.78453e-08
1.05745e-09
5.76755e-08
1.04556e-09
5.75028e-08
1.03936e-09
5.73292e-08
1.02698e-09
5.71529e-08
1.02099e-09
5.69761e-08
1.00808e-09
5.67966e-08
1.00233e-09
5.66169e-08
9.8884e-10
5.64347e-08
9.83357e-10
5.62525e-08
9.69238e-10
5.60682e-08
9.64076e-10
5.5884e-08
9.49335e-10
5.56977e-08
9.44522e-10
5.5512e-08
9.29202e-10
5.53244e-08
9.24858e-10
5.51374e-08
9.08967e-10
5.49488e-08
9.05225e-10
5.4761e-08
8.8892e-10
5.45718e-08
8.8591e-10
5.43834e-08
8.69432e-10
5.41938e-08
8.67377e-10
5.40052e-08
8.51069e-10
5.38153e-08
8.50255e-10
5.36265e-08
8.34686e-10
5.34363e-08
8.35627e-10
5.32474e-08
8.21588e-10
5.30572e-08
8.24761e-10
8.13516e-10
6.79146e-08
2.09504e-09
-6.78531e-08
6.80238e-08
2.33781e-09
6.81823e-08
2.56133e-09
6.83864e-08
2.76787e-09
6.86007e-08
2.93728e-09
6.87968e-08
3.03474e-09
6.89604e-08
3.06394e-09
6.90906e-08
3.03869e-09
6.91905e-08
2.9766e-09
6.92623e-08
2.89202e-09
6.93074e-08
2.79521e-09
6.93293e-08
2.6934e-09
6.9334e-08
2.59316e-09
6.93287e-08
2.49935e-09
6.93181e-08
2.41466e-09
6.93046e-08
2.33827e-09
6.92891e-08
2.26862e-09
6.92725e-08
2.20378e-09
6.92551e-08
2.14308e-09
6.92375e-08
2.08561e-09
6.922e-08
2.03151e-09
6.92027e-08
1.98017e-09
6.91856e-08
1.93191e-09
6.91687e-08
1.88607e-09
6.91519e-08
1.84308e-09
6.91352e-08
1.80222e-09
6.91186e-08
1.76405e-09
6.9102e-08
1.7278e-09
6.90853e-08
1.69412e-09
6.90687e-08
1.66212e-09
6.90518e-08
1.63256e-09
6.90349e-08
1.60441e-09
6.90175e-08
1.57854e-09
6.9e-08
1.55377e-09
6.89818e-08
1.53112e-09
6.89632e-08
1.50926e-09
6.89439e-08
1.4894e-09
6.89239e-08
1.47002e-09
6.8903e-08
1.45257e-09
6.88812e-08
1.43532e-09
6.88582e-08
1.41995e-09
6.88342e-08
1.40451e-09
6.88088e-08
1.39094e-09
6.87823e-08
1.37703e-09
6.87541e-08
1.36502e-09
6.87247e-08
1.35241e-09
6.86934e-08
1.34175e-09
6.86607e-08
1.33022e-09
6.8626e-08
1.32074e-09
6.85897e-08
1.31009e-09
6.85513e-08
1.30162e-09
6.85112e-08
1.29169e-09
6.84688e-08
1.28409e-09
6.84247e-08
1.27473e-09
6.8378e-08
1.26788e-09
6.83296e-08
1.25895e-09
6.82785e-08
1.25275e-09
6.82255e-08
1.2441e-09
6.81698e-08
1.23847e-09
6.81121e-08
1.22999e-09
6.80516e-08
1.22483e-09
6.79891e-08
1.21644e-09
6.79238e-08
1.21167e-09
6.78563e-08
1.20326e-09
6.7786e-08
1.19885e-09
6.77136e-08
1.1903e-09
6.76381e-08
1.18621e-09
6.75606e-08
1.17744e-09
6.74801e-08
1.17359e-09
6.73976e-08
1.16455e-09
6.7312e-08
1.16091e-09
6.72244e-08
1.1515e-09
6.71338e-08
1.14806e-09
6.70412e-08
1.13819e-09
6.69456e-08
1.13493e-09
6.6848e-08
1.12455e-09
6.67476e-08
1.12143e-09
6.66452e-08
1.1105e-09
6.654e-08
1.10748e-09
6.64329e-08
1.09597e-09
6.63231e-08
1.0931e-09
6.62114e-08
1.08092e-09
6.60973e-08
1.0782e-09
6.59812e-08
1.06541e-09
6.58629e-08
1.06282e-09
6.57427e-08
1.04946e-09
6.56204e-08
1.04715e-09
6.54962e-08
1.03321e-09
6.53701e-08
1.03127e-09
6.52421e-08
1.01697e-09
6.51125e-08
1.0155e-09
6.49808e-08
1.00108e-09
6.48478e-08
1.00037e-09
6.47127e-08
9.86213e-10
6.45764e-08
9.86566e-10
6.44378e-08
9.73216e-10
6.42982e-08
9.75233e-10
6.41565e-08
9.63369e-10
6.40138e-08
9.67459e-10
9.5866e-10
6.76202e-08
2.04851e-09
-6.75736e-08
6.76995e-08
2.25852e-09
6.78122e-08
2.44857e-09
6.79559e-08
2.62424e-09
6.81158e-08
2.77734e-09
6.82696e-08
2.88092e-09
6.84037e-08
2.92982e-09
6.85124e-08
2.93004e-09
6.85959e-08
2.89308e-09
6.86569e-08
2.83104e-09
6.86977e-08
2.75441e-09
6.87209e-08
2.6702e-09
6.873e-08
2.58401e-09
6.87297e-08
2.49966e-09
6.8724e-08
2.42042e-09
6.87153e-08
2.34693e-09
6.87048e-08
2.27909e-09
6.86932e-08
2.21541e-09
6.86808e-08
2.15549e-09
6.86681e-08
2.09834e-09
6.86552e-08
2.04434e-09
6.86426e-08
1.9928e-09
6.86302e-08
1.94431e-09
6.86182e-08
1.89808e-09
6.86065e-08
1.85477e-09
6.85952e-08
1.81349e-09
6.85843e-08
1.775e-09
6.85738e-08
1.73829e-09
6.85636e-08
1.70429e-09
6.85539e-08
1.67184e-09
6.85445e-08
1.64198e-09
6.85355e-08
1.61339e-09
6.85267e-08
1.58728e-09
6.85184e-08
1.56213e-09
6.85102e-08
1.53932e-09
6.85023e-08
1.51716e-09
6.84944e-08
1.49724e-09
6.84868e-08
1.47766e-09
6.84791e-08
1.46027e-09
6.84715e-08
1.44292e-09
6.84637e-08
1.42772e-09
6.8456e-08
1.41228e-09
6.84479e-08
1.39899e-09
6.84398e-08
1.38518e-09
6.84312e-08
1.37356e-09
6.84225e-08
1.36114e-09
6.84133e-08
1.35099e-09
6.84037e-08
1.33974e-09
6.83936e-08
1.33088e-09
6.83831e-08
1.3206e-09
6.83718e-08
1.31285e-09
6.83601e-08
1.3034e-09
6.83476e-08
1.29662e-09
6.83345e-08
1.28783e-09
6.83205e-08
1.2819e-09
6.83058e-08
1.27362e-09
6.82901e-08
1.26845e-09
6.82737e-08
1.26054e-09
6.82561e-08
1.25602e-09
6.82377e-08
1.24839e-09
6.82182e-08
1.24442e-09
6.81976e-08
1.23697e-09
6.81758e-08
1.23346e-09
6.8153e-08
1.22609e-09
6.81288e-08
1.22302e-09
6.81035e-08
1.21559e-09
6.80769e-08
1.21289e-09
6.80489e-08
1.20536e-09
6.80196e-08
1.20294e-09
6.79889e-08
1.19525e-09
6.79568e-08
1.19305e-09
6.79232e-08
1.18509e-09
6.78881e-08
1.18312e-09
6.78515e-08
1.1748e-09
6.78134e-08
1.17301e-09
6.77737e-08
1.1643e-09
6.77325e-08
1.1626e-09
6.76895e-08
1.15348e-09
6.76452e-08
1.15184e-09
6.75989e-08
1.14223e-09
6.75513e-08
1.1407e-09
6.75017e-08
1.13055e-09
6.74508e-08
1.12906e-09
6.73977e-08
1.11848e-09
6.73436e-08
1.117e-09
6.72871e-08
1.10593e-09
6.72296e-08
1.10467e-09
6.71696e-08
1.09318e-09
6.71087e-08
1.09211e-09
6.70453e-08
1.08044e-09
6.6981e-08
1.07972e-09
6.69141e-08
1.06805e-09
6.68465e-08
1.06799e-09
6.67759e-08
1.05677e-09
6.67048e-08
1.05766e-09
6.66306e-08
1.04738e-09
6.6556e-08
1.04983e-09
6.64783e-08
1.04108e-09
6.63999e-08
1.0459e-09
1.03977e-09
8.54424e-08
2.00075e-09
-8.53946e-08
8.55162e-08
2.18471e-09
8.56169e-08
2.34789e-09
8.57421e-08
2.49907e-09
8.58855e-08
2.63387e-09
8.60259e-08
2.74053e-09
8.61527e-08
2.80305e-09
8.62582e-08
2.82455e-09
8.63401e-08
2.81114e-09
8.64003e-08
2.77089e-09
8.64418e-08
2.71287e-09
8.64679e-08
2.64413e-09
8.64814e-08
2.5705e-09
8.64856e-08
2.49548e-09
8.64837e-08
2.42234e-09
8.64782e-08
2.3524e-09
8.64705e-08
2.28678e-09
8.64613e-08
2.22463e-09
8.64509e-08
2.16591e-09
8.64397e-08
2.10954e-09
8.6428e-08
2.05598e-09
8.64163e-08
2.00449e-09
8.64048e-08
1.95586e-09
8.63936e-08
1.90927e-09
8.63828e-08
1.86561e-09
8.63724e-08
1.82387e-09
8.63624e-08
1.785e-09
8.63528e-08
1.74784e-09
8.63437e-08
1.71344e-09
8.6335e-08
1.68051e-09
8.63268e-08
1.65022e-09
8.6319e-08
1.62114e-09
8.63117e-08
1.5946e-09
8.63048e-08
1.56897e-09
8.62984e-08
1.54579e-09
8.62923e-08
1.5232e-09
8.62866e-08
1.50296e-09
8.62813e-08
1.48302e-09
8.62762e-08
1.46537e-09
8.62714e-08
1.44772e-09
8.62668e-08
1.43232e-09
8.62624e-08
1.41665e-09
8.62582e-08
1.40321e-09
8.62541e-08
1.38925e-09
8.62501e-08
1.37754e-09
8.62462e-08
1.36502e-09
8.62424e-08
1.35484e-09
8.62386e-08
1.34355e-09
8.62348e-08
1.33469e-09
8.62309e-08
1.32446e-09
8.6227e-08
1.31675e-09
8.6223e-08
1.30742e-09
8.62189e-08
1.30071e-09
8.62146e-08
1.29211e-09
8.62102e-08
1.2863e-09
8.62056e-08
1.27828e-09
8.62008e-08
1.27326e-09
8.61956e-08
1.26569e-09
8.61903e-08
1.26135e-09
8.61845e-08
1.25416e-09
8.61786e-08
1.25036e-09
8.61721e-08
1.24347e-09
8.61654e-08
1.24016e-09
8.61581e-08
1.23342e-09
8.61505e-08
1.23059e-09
8.61422e-08
1.22389e-09
8.61337e-08
1.22142e-09
8.61243e-08
1.21476e-09
8.61147e-08
1.21254e-09
8.6104e-08
1.20586e-09
8.60932e-08
1.20388e-09
8.60813e-08
1.19703e-09
8.60691e-08
1.19528e-09
8.60557e-08
1.18821e-09
8.60421e-08
1.1866e-09
8.60271e-08
1.17933e-09
8.60119e-08
1.17774e-09
8.59952e-08
1.17022e-09
8.59784e-08
1.16868e-09
8.59598e-08
1.16078e-09
8.59412e-08
1.15935e-09
8.59206e-08
1.15111e-09
8.59001e-08
1.14959e-09
8.58774e-08
1.14114e-09
8.58548e-08
1.13961e-09
8.583e-08
1.13074e-09
8.58053e-08
1.12942e-09
8.57781e-08
1.12038e-09
8.5751e-08
1.11913e-09
8.57214e-08
1.11009e-09
8.56919e-08
1.1092e-09
8.56597e-08
1.10028e-09
8.56277e-08
1.10001e-09
8.55927e-08
1.09179e-09
8.55578e-08
1.09247e-09
8.55199e-08
1.08527e-09
8.54822e-08
1.08755e-09
8.54412e-08
1.08209e-09
8.54004e-08
1.08673e-09
1.08347e-09
1.07982e-07
1.96081e-09
-1.07942e-07
1.0804e-07
2.1262e-09
1.08117e-07
2.27099e-09
1.0821e-07
2.40563e-09
1.08318e-07
2.52653e-09
1.08426e-07
2.63261e-09
1.08525e-07
2.70385e-09
1.0861e-07
2.73938e-09
1.08678e-07
2.74331e-09
1.08728e-07
2.72041e-09
1.08764e-07
2.67744e-09
1.08787e-07
2.62063e-09
1.08802e-07
2.55618e-09
1.08809e-07
2.48815e-09
1.08811e-07
2.42014e-09
1.0881e-07
2.35368e-09
1.08806e-07
2.29035e-09
1.08801e-07
2.22984e-09
1.08794e-07
2.17246e-09
1.08787e-07
2.11716e-09
1.08779e-07
2.06434e-09
1.0877e-07
2.0132e-09
1.08761e-07
1.96459e-09
1.08753e-07
1.91782e-09
1.08744e-07
1.87385e-09
1.08736e-07
1.8318e-09
1.08729e-07
1.79262e-09
1.08721e-07
1.75517e-09
1.08714e-07
1.72044e-09
1.08708e-07
1.6872e-09
1.08701e-07
1.65655e-09
1.08695e-07
1.62713e-09
1.0869e-07
1.6002e-09
1.08685e-07
1.57424e-09
1.0868e-07
1.55067e-09
1.08675e-07
1.52778e-09
1.08671e-07
1.50719e-09
1.08667e-07
1.48699e-09
1.08663e-07
1.46901e-09
1.0866e-07
1.45116e-09
1.08657e-07
1.43546e-09
1.08654e-07
1.41964e-09
1.08651e-07
1.40592e-09
1.08648e-07
1.39185e-09
1.08646e-07
1.37989e-09
1.08644e-07
1.36731e-09
1.08642e-07
1.35689e-09
1.0864e-07
1.34558e-09
1.08638e-07
1.3365e-09
1.08636e-07
1.32631e-09
1.08634e-07
1.31836e-09
1.08633e-07
1.30912e-09
1.08631e-07
1.30218e-09
1.0863e-07
1.29372e-09
1.08628e-07
1.28768e-09
1.08627e-07
1.27983e-09
1.08625e-07
1.27458e-09
1.08624e-07
1.26726e-09
1.08622e-07
1.26266e-09
1.08621e-07
1.25578e-09
1.08619e-07
1.25171e-09
1.08618e-07
1.24518e-09
1.08616e-07
1.2416e-09
1.08614e-07
1.23526e-09
1.08613e-07
1.23215e-09
1.08611e-07
1.22593e-09
1.08609e-07
1.22313e-09
1.08607e-07
1.21706e-09
1.08605e-07
1.21447e-09
1.08602e-07
1.20844e-09
1.086e-07
1.20609e-09
1.08597e-07
1.19994e-09
1.08595e-07
1.19781e-09
1.08591e-07
1.19154e-09
1.08588e-07
1.18949e-09
1.08585e-07
1.18313e-09
1.08581e-07
1.18108e-09
1.08577e-07
1.17453e-09
1.08573e-07
1.17256e-09
1.08568e-07
1.16567e-09
1.08564e-07
1.16378e-09
1.08558e-07
1.15671e-09
1.08553e-07
1.15466e-09
1.08547e-07
1.14746e-09
1.08541e-07
1.14548e-09
1.08534e-07
1.13788e-09
1.08527e-07
1.13608e-09
1.08519e-07
1.12849e-09
1.08511e-07
1.12673e-09
1.08502e-07
1.11919e-09
1.08494e-07
1.11792e-09
1.08483e-07
1.11055e-09
1.08473e-07
1.10989e-09
1.08462e-07
1.10335e-09
1.08451e-07
1.10376e-09
1.08438e-07
1.09824e-09
1.08425e-07
1.10038e-09
1.0841e-07
1.09673e-09
1.08396e-07
1.1012e-09
1.09918e-09
1.36515e-07
-1.36501e-07
1.36538e-07
1.36567e-07
1.36604e-07
1.36646e-07
1.36691e-07
1.36734e-07
1.36771e-07
1.36803e-07
1.36827e-07
1.36845e-07
1.36857e-07
1.36866e-07
1.36871e-07
1.36874e-07
1.36876e-07
1.36876e-07
1.36876e-07
1.36875e-07
1.36873e-07
1.36871e-07
1.36868e-07
1.36865e-07
1.36863e-07
1.3686e-07
1.36858e-07
1.36855e-07
1.36853e-07
1.36851e-07
1.36849e-07
1.36847e-07
1.36845e-07
1.36843e-07
1.36841e-07
1.3684e-07
1.36838e-07
1.36837e-07
1.36836e-07
1.36835e-07
1.36834e-07
1.36833e-07
1.36832e-07
1.36831e-07
1.36831e-07
1.3683e-07
1.36829e-07
1.36829e-07
1.36829e-07
1.36828e-07
1.36828e-07
1.36828e-07
1.36827e-07
1.36827e-07
1.36827e-07
1.36827e-07
1.36827e-07
1.36827e-07
1.36826e-07
1.36826e-07
1.36826e-07
1.36826e-07
1.36826e-07
1.36826e-07
1.36826e-07
1.36826e-07
1.36826e-07
1.36826e-07
1.36826e-07
1.36826e-07
1.36826e-07
1.36826e-07
1.36825e-07
1.36825e-07
1.36825e-07
1.36825e-07
1.36824e-07
1.36824e-07
1.36824e-07
1.36823e-07
1.36823e-07
1.36822e-07
1.36822e-07
1.36821e-07
1.3682e-07
1.3682e-07
1.36818e-07
1.36818e-07
1.36816e-07
1.36815e-07
1.36814e-07
1.36812e-07
1.3681e-07
1.36808e-07
1.36806e-07
1.36804e-07
1.36801e-07
1.36798e-07
1.36795e-07
1.36792e-07
3.44473e-08
8.81013e-11
3.44492e-08
-6.21383e-11
3.44458e-08
7.40981e-11
3.44491e-08
-5.82146e-11
3.4442e-08
6.83008e-11
3.44404e-08
-4.6704e-11
3.44288e-08
6.81788e-11
3.44228e-08
-3.21654e-11
3.4406e-08
7.12846e-11
3.43946e-08
-1.34115e-11
3.43704e-08
8.05408e-11
3.43532e-08
1.34211e-11
3.43194e-08
9.75539e-11
3.42906e-08
4.82323e-11
3.42446e-08
1.20235e-10
3.42006e-08
9.3153e-11
3.41376e-08
1.52603e-10
3.40727e-08
1.53725e-10
3.39859e-08
1.99521e-10
3.38892e-08
2.3847e-10
3.37607e-08
2.76027e-10
3.35859e-08
3.9043e-10
3.33145e-08
4.85048e-10
3.27395e-08
9.52952e-10
1.57503e-09
3.80435e-08
9.32803e-11
3.80445e-08
-6.31203e-11
3.80403e-08
7.83547e-11
3.80398e-08
-5.77698e-11
3.80338e-08
7.43521e-11
3.80274e-08
-4.03656e-11
3.80199e-08
7.5704e-11
3.80063e-08
-1.8589e-11
3.79969e-08
8.07323e-11
3.79732e-08
1.02332e-11
3.79604e-08
9.33818e-11
3.79246e-08
4.92273e-11
3.79061e-08
1.16051e-10
3.78534e-08
1.00964e-10
3.78263e-08
1.47298e-10
3.77508e-08
1.686e-10
3.77115e-08
1.91992e-10
3.76044e-08
2.60755e-10
3.75457e-08
2.5827e-10
3.73901e-08
3.94087e-10
3.7286e-08
3.80061e-10
3.70271e-08
6.4939e-10
3.67646e-08
7.47507e-10
3.63232e-08
1.39435e-09
1.8737e-09
4.20233e-08
7.91545e-11
4.20021e-08
-4.19085e-11
4.20192e-08
6.12062e-11
4.19957e-08
-3.41793e-11
4.20122e-08
5.77677e-11
4.19819e-08
-1.00626e-11
4.19963e-08
6.13748e-11
4.1959e-08
1.87079e-11
4.19694e-08
7.02664e-11
4.19239e-08
5.5815e-11
4.19277e-08
8.95287e-11
4.18722e-08
1.04727e-10
4.18652e-08
1.23091e-10
4.1798e-08
1.68126e-10
4.1773e-08
1.72327e-10
4.16925e-08
2.49067e-10
4.16398e-08
2.44665e-10
4.15434e-08
3.57162e-10
4.14462e-08
3.55519e-10
4.13223e-08
5.17992e-10
4.11376e-08
5.64709e-10
4.0949e-08
8.38013e-10
4.06304e-08
1.06613e-09
4.04437e-08
1.58103e-09
2.06722e-09
4.64055e-08
5.55567e-11