/*--------------------------------*- C++ -*----------------------------------*\
| =========                 |                                                 |
| \\      /  F ield         | OpenFOAM: The Open Source CFD Toolbox           |
|  \\    /   O peration     | Version:  2.3.0                                 |
|   \\  /    A nd           | Web:      www.OpenFOAM.org                      |
|    \\/     M anipulation  |                                                 |
\*---------------------------------------------------------------------------*/
FoamFile
{
    version     2.0;
    format      ascii;
    class       surfaceScalarField;
    location    "0.05";
    object      phi;
}
// * * * * * * * * * * * * * * * * * * * * * * * * * * * * * * * * * * * * * //

dimensions      [0 3 -1 0 0 0 0];

internalField   nonuniform List<scalar> 
5764
(
1.80141e-08
5.85782e-09
-2.38719e-08
1.27491e-08
5.26496e-09
9.19871e-09
3.5504e-09
7.18943e-09
2.00927e-09
6.1705e-09
1.01893e-09
5.66304e-09
5.07459e-10
5.38074e-09
2.823e-10
5.19514e-09
1.85605e-10
5.06726e-09
1.27878e-10
4.98797e-09
7.92905e-11
4.9486e-09
3.93747e-11
4.9348e-09
1.37998e-11
4.93243e-09
2.36767e-12
4.93275e-09
-3.1759e-13
4.93328e-09
-5.30025e-13
4.93439e-09
-1.10951e-12
4.93676e-09
-2.37072e-12
4.94034e-09
-3.57999e-12
4.94441e-09
-4.07321e-12
4.94831e-09
-3.89872e-12
4.95156e-09
-3.25265e-12
4.95404e-09
-2.47815e-12
4.95582e-09
-1.78436e-12
4.95707e-09
-1.24783e-12
4.95794e-09
-8.64933e-13
4.95854e-09
-6.00671e-13
4.95896e-09
-4.1945e-13
4.95925e-09
-2.94314e-13
4.95946e-09
-2.07177e-13
4.9596e-09
-1.45645e-13
4.95971e-09
-1.01775e-13
4.95978e-09
-7.11855e-14
4.95983e-09
-4.93692e-14
4.95986e-09
-3.40268e-14
4.95988e-09
-2.36806e-14
4.9599e-09
-1.65748e-14
4.95991e-09
-1.19209e-14
4.95992e-09
-8.98685e-15
4.95993e-09
-7.24511e-15
4.95993e-09
-6.32026e-15
4.95994e-09
-5.9271e-15
4.95995e-09
-5.87559e-15
4.95995e-09
-6.01669e-15
4.95996e-09
-6.25745e-15
4.95997e-09
-6.52436e-15
4.95997e-09
-6.77151e-15
4.95998e-09
-6.97429e-15
4.95999e-09
-7.1148e-15
4.95999e-09
-7.18545e-15
4.96e-09
-7.18513e-15
4.96001e-09
-7.10576e-15
4.96001e-09
-6.96628e-15
4.96002e-09
-6.75982e-15
4.96003e-09
-6.51135e-15
4.96003e-09
-6.20862e-15
4.96004e-09
-5.87312e-15
4.96005e-09
-5.50181e-15
4.96005e-09
-5.10317e-15
4.96006e-09
-4.68255e-15
4.96006e-09
-4.23741e-15
4.96006e-09
-3.78009e-15
4.96007e-09
-3.30617e-15
4.96007e-09
-2.82591e-15
4.96007e-09
-2.32853e-15
4.96007e-09
-1.81926e-15
4.96007e-09
-1.28396e-15
4.96008e-09
-7.2876e-16
4.96008e-09
-1.48296e-16
4.96008e-09
4.72329e-16
4.96007e-09
1.07614e-15
4.96007e-09
1.86122e-15
4.96007e-09
2.06446e-15
4.96007e-09
4.03807e-15
4.96007e-09
-2.35711e-15
1.17607e-14
2.75987e-08
5.83089e-09
-2.75718e-08
2.61069e-08
6.7568e-09
2.37503e-08
5.90702e-09
2.13731e-08
4.38647e-09
1.93795e-08
3.01246e-09
1.78511e-08
2.03585e-09
1.67324e-08
1.401e-09
1.59381e-08
9.79941e-10
1.53915e-08
6.74471e-10
1.50314e-08
4.39381e-10
1.48059e-08
2.64923e-10
1.46692e-08
1.50474e-10
1.45847e-08
8.69048e-11
1.45284e-08
5.5986e-11
1.44887e-08
3.91499e-11
1.44617e-08
2.58229e-11
1.44458e-08
1.35464e-11
1.44385e-08
3.71587e-12
1.44366e-08
-2.11407e-12
1.44371e-08
-4.41507e-12
1.44381e-08
-4.27072e-12
1.44387e-08
-3.06646e-12
1.44386e-08
-1.70037e-12
1.4438e-08
-5.82976e-13
1.44369e-08
1.97117e-13
1.44356e-08
6.9186e-13
1.44342e-08
9.83061e-13
1.44328e-08
1.13906e-12
1.44313e-08
1.20774e-12
1.443e-08
1.22056e-12
1.44287e-08
1.19762e-12
1.44275e-08
1.15157e-12
1.44263e-08
1.09182e-12
1.44253e-08
1.0242e-12
1.44243e-08
9.52622e-13
1.44234e-08
8.80229e-13
1.44226e-08
8.08881e-13
1.44218e-08
7.39898e-13
1.44211e-08
6.74144e-13
1.44205e-08
6.12143e-13
1.442e-08
5.54186e-13
1.44194e-08
5.00374e-13
1.4419e-08
4.50696e-13
1.44186e-08
4.05056e-13
1.44182e-08
3.63302e-13
1.44179e-08
3.25248e-13
1.44176e-08
2.90675e-13
1.44173e-08
2.59359e-13
1.44171e-08
2.31074e-13
1.44169e-08
2.05588e-13
1.44167e-08
1.82686e-13
1.44165e-08
1.62141e-13
1.44164e-08
1.43759e-13
1.44162e-08
1.27342e-13
1.44161e-08
1.12718e-13
1.4416e-08
9.97214e-14
1.44159e-08
8.8194e-14
1.44158e-08
7.80058e-14
1.44157e-08
6.90194e-14
1.44157e-08
6.11281e-14
1.44156e-08
5.42151e-14
1.44156e-08
4.81875e-14
1.44155e-08
4.29576e-14
1.44155e-08
3.84561e-14
1.44154e-08
3.46197e-14
1.44154e-08
3.13965e-14
1.44154e-08
2.87354e-14
1.44154e-08
2.65881e-14
1.44153e-08
2.49314e-14
1.44153e-08
2.3674e-14
1.44153e-08
2.29406e-14
1.44153e-08
2.18971e-14
1.44153e-08
2.29507e-14
1.44152e-08
1.18352e-14
3.40595e-14
2.90391e-08
5.05664e-09
-2.82648e-08
2.96466e-08
6.14933e-09
2.95498e-08
6.00377e-09
2.88349e-08
5.10134e-09
2.78031e-08
4.04433e-09
2.67058e-08
3.13313e-09
2.56882e-08
2.41861e-09
2.4815e-08
1.85315e-09
2.41045e-08
1.38492e-09
2.35509e-08
9.93038e-10
2.31337e-08
6.82059e-10
2.2825e-08
4.59156e-10
2.25958e-08
3.16173e-10
2.24225e-08
2.29263e-10
2.22904e-08
1.712e-10
2.21921e-08
1.24164e-10
2.21229e-08
8.27337e-11
2.20778e-08
4.87981e-11
2.20507e-08
2.5069e-11
2.20349e-08
1.13309e-11
2.20254e-08
5.22872e-12
2.20188e-08
3.57722e-12
2.20132e-08
3.85756e-12
2.2008e-08
4.60889e-12
2.2003e-08
5.21531e-12
2.19982e-08
5.53086e-12
2.19935e-08
5.59463e-12
2.19892e-08
5.48488e-12
2.19851e-08
5.26831e-12
2.19814e-08
4.99103e-12
2.19779e-08
4.68257e-12
2.19747e-08
4.36127e-12
2.19717e-08
4.03938e-12
2.1969e-08
3.72443e-12
2.19666e-08
3.42106e-12
2.19643e-08
3.13246e-12
2.19623e-08
2.86029e-12
2.19604e-08
2.60541e-12
2.19587e-08
2.36806e-12
2.19572e-08
2.14805e-12
2.19558e-08
1.94494e-12
2.19545e-08
1.75804e-12
2.19534e-08
1.58656e-12
2.19524e-08
1.42964e-12
2.19514e-08
1.28639e-12
2.19506e-08
1.15591e-12
2.19499e-08
1.03729e-12
2.19492e-08
9.29671e-13
2.19486e-08
8.32207e-13
2.1948e-08
7.44089e-13
2.19476e-08
6.64558e-13
2.19471e-08
5.92879e-13
2.19467e-08
5.28385e-13
2.19464e-08
4.70449e-13
2.19461e-08
4.18488e-13
2.19458e-08
3.71968e-13
2.19456e-08
3.30379e-13
2.19454e-08
2.93276e-13
2.19452e-08
2.60226e-13
2.1945e-08
2.30854e-13
2.19449e-08
2.04798e-13
2.19447e-08
1.81741e-13
2.19446e-08
1.61395e-13
2.19445e-08
1.43505e-13
2.19444e-08
1.27845e-13
2.19443e-08
1.14207e-13
2.19442e-08
1.0241e-13
2.19442e-08
9.22812e-14
2.19441e-08
8.36872e-14
2.19441e-08
7.64536e-14
2.1944e-08
7.05426e-14
2.1944e-08
6.51721e-14
2.19439e-08
6.21171e-14
2.19439e-08
4.7568e-14
6.79353e-14
2.9601e-08
4.55989e-09
-2.91043e-08
3.02942e-08
5.45615e-09
3.08445e-08
5.45344e-09
3.10764e-08
4.86948e-09
3.09988e-08
4.12193e-09
3.07048e-08
3.4271e-09
3.02927e-08
2.83071e-09
2.98356e-08
2.31027e-09
2.9381e-08
1.83944e-09
2.89591e-08
1.41503e-09
2.85862e-08
1.05493e-09
2.82673e-08
7.78027e-10
2.79984e-08
5.85076e-10
2.77719e-08
4.55755e-10
2.7582e-08
3.61152e-10
2.74263e-08
2.7978e-10
2.73046e-08
2.04442e-10
2.72151e-08
1.38346e-10
2.71532e-08
8.69967e-11
2.71121e-08
5.23456e-11
2.70852e-08
3.2222e-11
2.70666e-08
2.21704e-11
2.70526e-08
1.78163e-11
2.70411e-08
1.60743e-11
2.70311e-08
1.5242e-11
2.70221e-08
1.45807e-11
2.70138e-08
1.38601e-11
2.70062e-08
1.30556e-11
2.69993e-08
1.22008e-11
2.6993e-08
1.13324e-11
2.69872e-08
1.0477e-11
2.69819e-08
9.65061e-12
2.6977e-08
8.86308e-12
2.69727e-08
8.11939e-12
2.69686e-08
7.42175e-12
2.6965e-08
6.77081e-12
2.69617e-08
6.16597e-12
2.69587e-08
5.60592e-12
2.6956e-08
5.08887e-12
2.69535e-08
4.61278e-12
2.69513e-08
4.1754e-12
2.69493e-08
3.77442e-12
2.69475e-08
3.40751e-12
2.69458e-08
3.07237e-12
2.69443e-08
2.76676e-12
2.6943e-08
2.48854e-12
2.69418e-08
2.23564e-12
2.69407e-08
2.00611e-12
2.69398e-08
1.79809e-12
2.69389e-08
1.60985e-12
2.69381e-08
1.43973e-12
2.69374e-08
1.28619e-12
2.69368e-08
1.14782e-12
2.69362e-08
1.02329e-12
2.69358e-08
9.11369e-13
2.69353e-08
8.10946e-13
2.69349e-08
7.20954e-13
2.69346e-08
6.40449e-13
2.69343e-08
5.68529e-13
2.6934e-08
5.04397e-13
2.69338e-08
4.47302e-13
2.69335e-08
3.96571e-13
2.69333e-08
3.51598e-13
2.69332e-08
3.1183e-13
2.6933e-08
2.76778e-13
2.69329e-08
2.45986e-13
2.69328e-08
2.19058e-13
2.69327e-08
1.95622e-13
2.69326e-08
1.75367e-13
2.69325e-08
1.57971e-13
2.69324e-08
1.43201e-13
2.69324e-08
1.30281e-13
2.69323e-08
1.20282e-13
2.69323e-08
1.02214e-13
1.13049e-13
3.04481e-08
4.20377e-09
-3.0092e-08
3.09356e-08
4.96859e-09
3.1394e-08
4.99511e-09
3.17332e-08
4.53028e-09
3.19328e-08
3.92232e-09
3.20081e-08
3.35181e-09
3.19851e-08
2.85368e-09
3.18878e-08
2.40761e-09
3.17361e-08
1.99114e-09
3.15496e-08
1.60152e-09
3.1348e-08
1.25653e-09
3.11474e-08
9.78554e-10
3.09574e-08
7.75101e-10
3.07813e-08
6.31844e-10
3.06204e-08
5.22123e-10
3.04767e-08
4.23471e-10
3.03536e-08
3.27478e-10
3.02539e-08
2.38115e-10
3.01774e-08
1.63473e-10
3.01213e-08
1.08413e-10
3.00811e-08
7.24565e-11
3.00519e-08
5.13512e-11
3.00299e-08
3.98572e-11
3.00123e-08
3.36756e-11
2.99975e-08
3.00396e-11
2.99846e-08
2.74794e-11
2.99731e-08
2.53412e-11
2.99628e-08
2.3384e-11
2.99534e-08
2.15395e-11
2.9945e-08
1.97965e-11
2.99373e-08
1.81573e-11
2.99303e-08
1.66238e-11
2.9924e-08
1.51956e-11
2.99182e-08
1.38699e-11
2.9913e-08
1.26425e-11
2.99083e-08
1.15088e-11
2.9904e-08
1.04637e-11
2.99001e-08
9.50194e-12
2.98965e-08
8.61825e-12
2.98933e-08
7.80756e-12
2.98904e-08
7.06491e-12
2.98878e-08
6.38555e-12
2.98855e-08
5.7649e-12
2.98834e-08
5.19866e-12
2.98814e-08
4.68272e-12
2.98797e-08
4.21323e-12
2.98782e-08
3.78656e-12
2.98768e-08
3.39931e-12
2.98755e-08
3.0483e-12
2.98744e-08
2.73053e-12
2.98734e-08
2.44322e-12
2.98725e-08
2.18377e-12
2.98717e-08
1.94977e-12
2.9871e-08
1.73903e-12
2.98703e-08
1.54946e-12
2.98698e-08
1.3792e-12
2.98693e-08
1.22647e-12
2.98688e-08
1.08967e-12
2.98684e-08
9.67314e-13
2.98681e-08
8.58049e-13
2.98678e-08
7.60625e-13
2.98675e-08
6.73913e-13
2.98672e-08
5.9689e-13
2.9867e-08
5.28623e-13
2.98668e-08
4.68278e-13
2.98667e-08
4.15081e-13
2.98665e-08
3.68355e-13
2.98664e-08
3.27468e-13
2.98663e-08
2.91882e-13
2.98662e-08
2.61074e-13
2.98661e-08
2.34588e-13
2.9866e-08
2.11648e-13
2.98659e-08
1.92509e-13
2.98658e-08
1.70242e-13
1.67033e-13
3.1407e-08
3.89973e-09
-3.11029e-08
3.18037e-08
4.57183e-09
3.21607e-08
4.63814e-09
3.24251e-08
4.26589e-09
3.26042e-08
3.74325e-09
3.27193e-08
3.23673e-09
3.2786e-08
2.78693e-09
3.28113e-08
2.38232e-09
3.27971e-08
2.00537e-09
3.27468e-08
1.65177e-09
3.2669e-08
1.33432e-09
3.25752e-08
1.07235e-09
3.24754e-08
8.74903e-10
3.23755e-08
7.31805e-10
3.22778e-08
6.19782e-10
3.21841e-08
5.17188e-10
3.20968e-08
4.14789e-10
3.20189e-08
3.15992e-10
3.19528e-08
2.2959e-10
3.18991e-08
1.62144e-10
3.18567e-08
1.14869e-10
3.18235e-08
8.45498e-11
3.17971e-08
6.61713e-11
3.17757e-08
5.51026e-11
3.17577e-08
4.80405e-11
3.17422e-08
4.30168e-11
3.17285e-08
3.90151e-11
3.17163e-08
3.55674e-11
3.17054e-08
3.24745e-11
3.16955e-08
2.96534e-11
3.16866e-08
2.7065e-11
3.16786e-08
2.46861e-11
3.16713e-08
2.24993e-11
3.16646e-08
2.04895e-11
3.16586e-08
1.86433e-11
3.16532e-08
1.69482e-11
3.16483e-08
1.53929e-11
3.16438e-08
1.3967e-11
3.16398e-08
1.26606e-11
3.16361e-08
1.1465e-11
3.16328e-08
1.03717e-11
3.16298e-08
9.37288e-12
3.16271e-08
8.46137e-12
3.16247e-08
7.6304e-12
3.16225e-08
6.87366e-12
3.16205e-08
6.18529e-12
3.16187e-08
5.55983e-12
3.16171e-08
4.9922e-12
3.16157e-08
4.47764e-12
3.16144e-08
4.01176e-12
3.16133e-08
3.59045e-12
3.16123e-08
3.20989e-12
3.16113e-08
2.86655e-12
3.16105e-08
2.55721e-12
3.16098e-08
2.27883e-12
3.16091e-08
2.02868e-12
3.16086e-08
1.80416e-12
3.16081e-08
1.60296e-12
3.16076e-08
1.42288e-12
3.16072e-08
1.26194e-12
3.16068e-08
1.11834e-12
3.16065e-08
9.9042e-13
3.16062e-08
8.76679e-13
3.1606e-08
7.75749e-13
3.16058e-08
6.86403e-13
3.16056e-08
6.07504e-13
3.16054e-08
5.38049e-13
3.16053e-08
4.77116e-13
3.16051e-08
4.23899e-13
3.1605e-08
3.77652e-13
3.16049e-08
3.37665e-13
3.16048e-08
3.03179e-13
3.16047e-08
2.7353e-13
3.16047e-08
2.46201e-13
2.27089e-13
3.2391e-08
3.63441e-09
-3.21257e-08
3.2742e-08
4.22091e-09
3.30596e-08
4.32052e-09
3.32898e-08
4.03566e-09
3.34395e-08
3.59359e-09
3.35336e-08
3.14258e-09
3.35922e-08
2.72831e-09
3.36252e-08
2.34934e-09
3.36347e-08
1.99587e-09
3.36208e-08
1.66571e-09
3.35864e-08
1.36873e-09
3.35383e-08
1.12045e-09
3.34842e-08
9.28942e-10
3.34295e-08
7.86519e-10
3.33758e-08
6.73539e-10
3.33225e-08
5.70494e-10
3.32692e-08
4.68013e-10
3.3217e-08
3.68183e-10
3.31678e-08
2.78796e-10
3.31235e-08
2.06474e-10
3.30851e-08
1.53272e-10
3.30527e-08
1.16993e-10
3.30255e-08
9.33435e-11
3.30026e-08
7.79798e-11
3.29831e-08
6.75639e-11
3.29662e-08
5.99432e-11
3.29513e-08
5.3896e-11
3.29381e-08
4.87885e-11
3.29262e-08
4.43066e-11
3.29156e-08
4.02929e-11
3.2906e-08
3.66617e-11
3.28973e-08
3.33592e-11
3.28895e-08
3.03475e-11
3.28824e-08
2.75964e-11
3.28759e-08
2.50812e-11
3.28701e-08
2.27805e-11
3.28648e-08
2.06758e-11
3.286e-08
1.87507e-11
3.28557e-08
1.69904e-11
3.28518e-08
1.53815e-11
3.28482e-08
1.3912e-11
3.2845e-08
1.25708e-11
3.28422e-08
1.13476e-11
3.28396e-08
1.02331e-11
3.28372e-08
9.21845e-12
3.28351e-08
8.29574e-12
3.28332e-08
7.45746e-12
3.28315e-08
6.69674e-12
3.283e-08
6.00715e-12
3.28286e-08
5.38275e-12
3.28274e-08
4.81802e-12
3.28263e-08
4.30784e-12
3.28253e-08
3.84749e-12
3.28244e-08
3.43262e-12
3.28236e-08
3.0592e-12
3.28229e-08
2.72354e-12
3.28223e-08
2.4222e-12
3.28218e-08
2.15204e-12
3.28213e-08
1.91017e-12
3.28209e-08
1.69392e-12
3.28205e-08
1.50088e-12
3.28201e-08
1.32883e-12
3.28198e-08
1.17577e-12
3.28196e-08
1.03986e-12
3.28193e-08
9.1945e-13
3.28191e-08
8.13015e-13
3.28189e-08
7.19206e-13
3.28188e-08
6.36787e-13
3.28186e-08
5.64667e-13
3.28185e-08
5.0186e-13
3.28184e-08
4.4739e-13
3.28183e-08
4.00522e-13
3.28182e-08
3.59646e-13
3.28182e-08
3.26395e-13
2.9108e-13
3.33976e-08
3.40269e-09
-3.31659e-08
3.37086e-08
3.90992e-09
3.4e-08
4.02907e-09
3.42184e-08
3.81723e-09
3.43629e-08
3.44915e-09
3.44526e-08
3.05283e-09
3.45059e-08
2.67506e-09
3.45339e-08
2.32128e-09
3.45416e-08
1.98817e-09
3.45307e-08
1.67663e-09
3.45039e-08
1.39554e-09
3.44668e-08
1.1576e-09
3.4426e-08
9.6965e-10
3.43867e-08
8.25818e-10
3.43502e-08
7.1006e-10
3.4315e-08
6.05707e-10
3.42791e-08
5.03967e-10
3.42416e-08
4.05664e-10
3.42034e-08
3.16938e-10
3.41664e-08
2.43532e-10
3.4132e-08
1.87602e-10
3.41014e-08
1.47638e-10
3.40746e-08
1.201e-10
3.40515e-08
1.0115e-10
3.40314e-08
8.76703e-11
3.40138e-08
7.75215e-11
3.39983e-08
6.94015e-11
3.39845e-08
6.25754e-11
3.39722e-08
5.6642e-11
3.39611e-08
5.13792e-11
3.39511e-08
4.66561e-11
3.39421e-08
4.23878e-11
3.39339e-08
3.85144e-11
3.39265e-08
3.49899e-11
3.39198e-08
3.17772e-11
3.39137e-08
2.88457e-11
3.39082e-08
2.61689e-11
3.39033e-08
2.37242e-11
3.38988e-08
2.14914e-11
3.38947e-08
1.94527e-11
3.3891e-08
1.7592e-11
3.38877e-08
1.58947e-11
3.38847e-08
1.43474e-11
3.3882e-08
1.2938e-11
3.38795e-08
1.16554e-11
3.38774e-08
1.04891e-11
3.38754e-08
9.42959e-12
3.38736e-08
8.46817e-12
3.3872e-08
7.59667e-12
3.38706e-08
6.80752e-12
3.38693e-08
6.09374e-12
3.38682e-08
5.44885e-12
3.38672e-08
4.86688e-12
3.38662e-08
4.34234e-12
3.38654e-08
3.87014e-12
3.38647e-08
3.44561e-12
3.38641e-08
3.06442e-12
3.38635e-08
2.72261e-12
3.3863e-08
2.4165e-12
3.38625e-08
2.14277e-12
3.38622e-08
1.89834e-12
3.38618e-08
1.68043e-12
3.38615e-08
1.4865e-12
3.38612e-08
1.31422e-12
3.3861e-08
1.16152e-12
3.38608e-08
1.02646e-12
3.38606e-08
9.07326e-13
3.38604e-08
8.02566e-13
3.38603e-08
7.10791e-13
3.38601e-08
6.30766e-13
3.386e-08
5.61239e-13
3.38599e-08
5.01492e-13
3.38598e-08
4.49007e-13
3.38597e-08
4.0906e-13
3.57834e-13
3.443e-08
3.19866e-09
-3.42259e-08
3.47045e-08
3.63533e-09
3.49702e-08
3.7634e-09
3.51779e-08
3.60958e-09
3.53214e-08
3.30558e-09
3.54143e-08
2.95995e-09
3.54709e-08
2.61852e-09
3.55009e-08
2.29122e-09
3.55099e-08
1.97923e-09
3.55006e-08
1.68595e-09
3.54763e-08
1.4198e-09
3.54424e-08
1.19147e-09
3.54053e-08
1.00676e-09
3.53698e-08
8.61291e-10
3.53376e-08
7.42264e-10
3.53075e-08
6.35897e-10
3.5277e-08
5.34378e-10
3.5245e-08
4.37658e-10
3.52117e-08
3.50314e-10
3.51782e-08
2.76988e-10
3.51462e-08
2.19595e-10
3.51168e-08
1.77035e-10
3.50905e-08
1.4639e-10
3.50674e-08
1.24334e-10
3.5047e-08
1.08037e-10
3.5029e-08
9.54618e-11
3.50132e-08
8.52913e-11
3.4999e-08
7.67326e-11
3.49863e-08
6.93203e-11
3.49749e-08
6.2778e-11
3.49646e-08
5.69337e-11
3.49554e-08
5.16729e-11
3.4947e-08
4.69137e-11
3.49394e-08
4.25938e-11
3.49325e-08
3.86639e-11
3.49262e-08
3.50835e-11
3.49206e-08
3.18184e-11
3.49155e-08
2.88393e-11
3.49108e-08
2.61206e-11
3.49066e-08
2.36399e-11
3.49029e-08
2.13768e-11
3.48994e-08
1.93132e-11
3.48964e-08
1.74326e-11
3.48936e-08
1.57201e-11
3.48911e-08
1.41617e-11
3.48888e-08
1.27448e-11
3.48868e-08
1.14579e-11
3.4885e-08
1.02901e-11
3.48833e-08
9.23144e-12
3.48819e-08
8.27285e-12
3.48806e-08
7.40577e-12
3.48794e-08
6.62234e-12
3.48783e-08
5.91529e-12
3.48774e-08
5.27796e-12
3.48766e-08
4.70417e-12
3.48758e-08
4.18824e-12
3.48752e-08
3.72492e-12
3.48746e-08
3.3094e-12
3.48741e-08
2.93724e-12
3.48736e-08
2.60438e-12
3.48732e-08
2.3071e-12
3.48728e-08
2.04201e-12
3.48725e-08
1.80604e-12
3.48722e-08
1.59636e-12
3.4872e-08
1.41044e-12
3.48717e-08
1.24594e-12
3.48716e-08
1.10076e-12
3.48714e-08
9.73024e-13
3.48712e-08
8.61034e-13
3.48711e-08
7.63297e-13
3.4871e-08
6.7829e-13
3.48709e-08
6.05288e-13
3.48708e-08
5.40925e-13
3.48707e-08
4.93618e-13
4.26837e-13
3.54889e-08
3.01734e-09
-3.53076e-08
3.57317e-08
3.39253e-09
3.59729e-08
3.52222e-09
3.61685e-08
3.41389e-09
3.63096e-08
3.16457e-09
3.64048e-08
2.86467e-09
3.64655e-08
2.55785e-09
3.64997e-08
2.25703e-09
3.65124e-08
1.96652e-09
3.65068e-08
1.69152e-09
3.64865e-08
1.44015e-09
3.64563e-08
1.22161e-09
3.64222e-08
1.04087e-09
3.63887e-08
8.94768e-10
3.63578e-08
7.73227e-10
3.63286e-08
6.65047e-10
3.62995e-08
5.63496e-10
3.62692e-08
4.68006e-10
3.62376e-08
3.81908e-10
3.62057e-08
3.08839e-10
3.61749e-08
2.50391e-10
3.61462e-08
2.05713e-10
3.61203e-08
1.72377e-10
3.60971e-08
1.47514e-10
3.60765e-08
1.28582e-10
3.60583e-08
1.13669e-10
3.60421e-08
1.01481e-10
3.60277e-08
9.11903e-11
3.60147e-08
8.2285e-11
3.60031e-08
7.44433e-11
3.59925e-08
6.74567e-11
3.5983e-08
6.11825e-11
3.59744e-08
5.55178e-11
3.59666e-08
5.03844e-11
3.59596e-08
4.57205e-11
3.59532e-08
4.14758e-11
3.59474e-08
3.76082e-11
3.59421e-08
3.40817e-11
3.59374e-08
3.08653e-11
3.59331e-08
2.79316e-11
3.59292e-08
2.52562e-11
3.59257e-08
2.28172e-11
3.59226e-08
2.05951e-11
3.59197e-08
1.85717e-11
3.59171e-08
1.67308e-11
3.59148e-08
1.50571e-11
3.59127e-08
1.3537e-11
3.59109e-08
1.21576e-11
3.59092e-08
1.09072e-11
3.59077e-08
9.77493e-12
3.59064e-08
8.75071e-12
3.59052e-08
7.82525e-12
3.59041e-08
6.98999e-12
3.59031e-08
6.23704e-12
3.59023e-08
5.55911e-12
3.59015e-08
4.94949e-12
3.59008e-08
4.40198e-12
3.59002e-08
3.91091e-12
3.58997e-08
3.47103e-12
3.58992e-08
3.07756e-12
3.58988e-08
2.7261e-12
3.58984e-08
2.41265e-12
3.58981e-08
2.13359e-12
3.58978e-08
1.88558e-12
3.58976e-08
1.6656e-12
3.58973e-08
1.47092e-12
3.58971e-08
1.29904e-12
3.5897e-08
1.14775e-12
3.58968e-08
1.01504e-12
3.58967e-08
8.99145e-13
3.58966e-08
7.98274e-13
3.58964e-08
7.11677e-13
3.58964e-08
6.35186e-13
3.58963e-08
5.79953e-13
4.97857e-13
3.65751e-08
2.85482e-09
-3.64125e-08
3.67904e-08
3.17717e-09
3.7009e-08
3.3036e-09
3.71925e-08
3.23043e-09
3.73296e-08
3.02747e-09
3.74257e-08
2.76856e-09
3.74894e-08
2.49419e-09
3.75272e-08
2.21916e-09
3.75438e-08
1.94996e-09
3.75424e-08
1.69295e-09
3.75264e-08
1.45612e-09
3.75005e-08
1.24751e-09
3.74698e-08
1.07153e-09
3.74386e-08
9.2597e-10
3.74089e-08
8.02998e-10
3.73803e-08
6.93607e-10
3.73517e-08
5.92103e-10
3.73221e-08
4.97632e-10
3.72914e-08
4.12574e-10
3.72605e-08
3.39738e-10
3.72305e-08
2.804e-10
3.72023e-08
2.33873e-10
3.71766e-08
1.98126e-10
3.71534e-08
1.70679e-10
3.71327e-08
1.49261e-10
3.71143e-08
1.32096e-10
3.70979e-08
1.17927e-10
3.70831e-08
1.05914e-10
3.70699e-08
9.55092e-11
3.7058e-08
8.63542e-11
3.70472e-08
7.82083e-11
3.70375e-08
7.09032e-11
3.70287e-08
6.43157e-11
3.70208e-08
5.83523e-11
3.70135e-08
5.2939e-11
3.7007e-08
4.80157e-11
3.70011e-08
4.35323e-11
3.69957e-08
3.94463e-11
3.69909e-08
3.57208e-11
3.69865e-08
3.23237e-11
3.69825e-08
2.92265e-11
3.69789e-08
2.64036e-11
3.69757e-08
2.38319e-11
3.69728e-08
2.14905e-11
3.69701e-08
1.93604e-11
3.69678e-08
1.74239e-11
3.69656e-08
1.56651e-11
3.69637e-08
1.40692e-11
3.6962e-08
1.26225e-11
3.69605e-08
1.13124e-11
3.69591e-08
1.01274e-11
3.69579e-08
9.05655e-12
3.69568e-08
8.09005e-12
3.69558e-08
7.21876e-12
3.69549e-08
6.43423e-12
3.69541e-08
5.72871e-12
3.69534e-08
5.09503e-12
3.69528e-08
4.52663e-12
3.69523e-08
4.01743e-12
3.69518e-08
3.56191e-12
3.69514e-08
3.15499e-12
3.6951e-08
2.79205e-12
3.69506e-08
2.46888e-12
3.69503e-08
2.18162e-12
3.69501e-08
1.92679e-12
3.69498e-08
1.70121e-12
3.69496e-08
1.502e-12
3.69495e-08
1.3266e-12
3.69493e-08
1.17267e-12
3.69492e-08
1.0382e-12
3.6949e-08
9.21098e-13
3.69489e-08
8.20573e-13
3.69488e-08
7.31699e-13
3.69488e-08
6.68062e-13
5.70753e-13
3.76894e-08
2.70809e-09
-3.75426e-08
3.78811e-08
2.98542e-09
3.80792e-08
3.10554e-09
3.82505e-08
3.05908e-09
3.83829e-08
2.89511e-09
3.84787e-08
2.67272e-09
3.85444e-08
2.42853e-09
3.85852e-08
2.1783e-09
3.86053e-08
1.92992e-09
3.86077e-08
1.69052e-09
3.85959e-08
1.4679e-09
3.85742e-08
1.26929e-09
3.8547e-08
1.09868e-09
3.85183e-08
9.54686e-10
3.849e-08
8.31303e-10
3.84622e-08
7.21367e-10
3.84342e-08
6.20124e-10
3.84052e-08
5.26592e-10
3.83754e-08
4.42441e-10
3.83453e-08
3.69813e-10
3.8316e-08
3.09706e-10
3.82883e-08
2.61545e-10
3.82628e-08
2.23621e-10
3.82397e-08
1.93789e-10
3.8219e-08
1.70027e-10
3.82004e-08
1.50697e-10
3.81837e-08
1.34593e-10
3.81687e-08
1.20874e-10
3.81553e-08
1.08969e-10
3.81431e-08
9.84924e-11
3.81322e-08
8.91742e-11
3.81222e-08
8.08234e-11
3.81133e-08
7.32981e-11
3.81051e-08
6.64899e-11
3.80978e-08
6.03131e-11
3.80911e-08
5.46978e-11
3.8085e-08
4.95861e-11
3.80795e-08
4.49288e-11
3.80746e-08
4.06835e-11
3.80701e-08
3.68132e-11
3.8066e-08
3.32851e-11
3.80624e-08
3.00698e-11
3.8059e-08
2.71409e-11
3.80561e-08
2.44745e-11
3.80534e-08
2.20487e-11
3.8051e-08
1.98436e-11
3.80488e-08
1.78409e-11
3.80468e-08
1.60236e-11
3.80451e-08
1.43762e-11
3.80435e-08
1.28844e-11
3.80421e-08
1.15349e-11
3.80408e-08
1.03154e-11
3.80397e-08
9.21476e-12
3.80387e-08
8.22248e-12
3.80378e-08
7.32896e-12
3.8037e-08
6.5254e-12
3.80363e-08
5.80362e-12
3.80357e-08
5.15614e-12
3.80351e-08
4.57607e-12
3.80346e-08
4.05712e-12
3.80342e-08
3.5935e-12
3.80338e-08
3.17995e-12
3.80335e-08
2.81168e-12
3.80332e-08
2.4843e-12
3.80329e-08
2.19383e-12
3.80326e-08
1.93666e-12
3.80324e-08
1.70951e-12
3.80323e-08
1.50946e-12
3.80321e-08
1.33384e-12
3.8032e-08
1.18037e-12
3.80318e-08
1.04668e-12
3.80317e-08
9.31902e-13
3.80316e-08
8.30387e-13
3.80315e-08
7.57936e-13
6.45404e-13
3.88328e-08
2.5748e-09
-3.86995e-08
3.90043e-08
2.81398e-09
3.91837e-08
2.92612e-09
3.93432e-08
2.8996e-09
3.94702e-08
2.76808e-09
3.95649e-08
2.578e-09
3.96318e-08
2.36166e-09
3.96751e-08
2.13502e-09
3.96982e-08
1.9068e-09
3.97042e-08
1.68453e-09
3.96963e-08
1.47578e-09
3.96784e-08
1.28717e-09
3.96547e-08
1.12244e-09
3.96285e-08
9.80874e-10
3.96018e-08
8.57976e-10
3.95751e-08
7.48118e-10
3.95478e-08
6.47391e-10
3.95196e-08
5.54798e-10
3.94905e-08
4.71484e-10
3.94613e-08
3.99065e-10
3.94327e-08
3.38303e-10
3.94055e-08
2.88702e-10
3.93803e-08
2.48815e-10
3.93573e-08
2.16789e-10
3.93365e-08
1.90825e-10
3.93178e-08
1.69423e-10
3.9301e-08
1.51436e-10
3.92858e-08
1.36036e-10
3.92721e-08
1.2264e-10
3.92598e-08
1.10837e-10
3.92486e-08
1.00338e-10
3.92385e-08
9.09299e-11
3.92294e-08
8.24541e-11
3.92211e-08
7.47881e-11
3.92136e-08
6.78349e-11
3.92067e-08
6.15154e-11
3.92006e-08
5.57637e-11
3.9195e-08
5.05243e-11
3.91899e-08
4.57492e-11
3.91853e-08
4.13962e-11
3.91812e-08
3.74284e-11
3.91774e-08
3.38127e-11
3.9174e-08
3.05193e-11
3.9171e-08
2.75211e-11
3.91683e-08
2.47936e-11
3.91658e-08
2.23143e-11
3.91636e-08
2.00625e-11
3.91616e-08
1.80192e-11
3.91598e-08
1.61669e-11
3.91582e-08
1.44895e-11
3.91567e-08
1.29721e-11
3.91555e-08
1.16009e-11
3.91543e-08
1.03632e-11
3.91533e-08
9.24741e-12
3.91524e-08
8.24261e-12
3.91516e-08
7.33893e-12
3.91508e-08
6.52718e-12
3.91502e-08
5.79896e-12
3.91496e-08
5.14653e-12
3.91491e-08
4.56279e-12
3.91487e-08
4.04128e-12
3.91483e-08
3.57605e-12
3.91479e-08
3.16173e-12
3.91476e-08
2.79337e-12
3.91473e-08
2.46652e-12
3.91471e-08
2.17708e-12
3.91469e-08
1.92141e-12
3.91467e-08
1.69618e-12
3.91465e-08
1.49842e-12
3.91464e-08
1.32555e-12
3.91463e-08
1.17492e-12
3.91461e-08
1.04557e-12
3.9146e-08
9.31162e-13
3.91459e-08
8.49544e-13
7.21697e-13
4.00066e-08
2.45314e-09
-3.98849e-08
4.01605e-08
2.66006e-09
4.03231e-08
2.7635e-09
4.04711e-08
2.75158e-09
4.05924e-08
2.64684e-09
4.06852e-08
2.48512e-09
4.07526e-08
2.29428e-09
4.07978e-08
2.08987e-09
4.08236e-08
1.88099e-09
4.08328e-08
1.67528e-09
4.08286e-08
1.48003e-09
4.08144e-08
1.3014e-09
4.07939e-08
1.14295e-09
4.07702e-08
1.00454e-09
4.07453e-08
8.82908e-10
4.07197e-08
7.73699e-10
4.06933e-08
6.7376e-10
4.06659e-08
5.82154e-10
4.06378e-08
4.99655e-10
4.06094e-08
4.27469e-10
4.05815e-08
3.66165e-10
4.05549e-08
3.15306e-10
4.05301e-08
2.73659e-10
4.05072e-08
2.39621e-10
4.04865e-08
2.11599e-10
4.04677e-08
1.88223e-10
4.04507e-08
1.68414e-10
4.04354e-08
1.51365e-10
4.04215e-08
1.36491e-10
4.0409e-08
1.23366e-10
4.03976e-08
1.11681e-10
4.03874e-08
1.01207e-10
4.0378e-08
9.17708e-11
4.03696e-08
8.3236e-11
4.03619e-08
7.54952e-11
4.0355e-08
6.84605e-11
4.03487e-08
6.20584e-11
4.0343e-08
5.62268e-11
4.03378e-08
5.09123e-11
4.03331e-08
4.60679e-11
4.03289e-08
4.16524e-11
4.03251e-08
3.76287e-11
4.03217e-08
3.39638e-11
4.03186e-08
3.06276e-11
4.03158e-08
2.75925e-11
4.03132e-08
2.48336e-11
4.0311e-08
2.23279e-11
4.03089e-08
2.00541e-11
4.03071e-08
1.79929e-11
4.03055e-08
1.61263e-11
4.0304e-08
1.44377e-11
4.03027e-08
1.29118e-11
4.03015e-08
1.15344e-11
4.03005e-08
1.02926e-11
4.02996e-08
9.1743e-12
4.02987e-08
8.16852e-12
4.0298e-08
7.26503e-12
4.02973e-08
6.45448e-12
4.02967e-08
5.72825e-12
4.02962e-08
5.07846e-12
4.02958e-08
4.4979e-12
4.02954e-08
3.97998e-12
4.0295e-08
3.51869e-12
4.02947e-08
3.10855e-12
4.02944e-08
2.74459e-12
4.02942e-08
2.42226e-12
4.0294e-08
2.13749e-12
4.02938e-08
1.88659e-12
4.02936e-08
1.66625e-12
4.02935e-08
1.4736e-12
4.02933e-08
1.30569e-12
4.02932e-08
1.16148e-12
4.02931e-08
1.03392e-12
4.0293e-08
9.42826e-13
7.99517e-13
4.12117e-08
2.34169e-09
-4.11003e-08
4.13505e-08
2.52131e-09
4.1498e-08
2.61596e-09
4.16351e-08
2.61452e-09
4.17502e-08
2.53169e-09
4.18407e-08
2.39467e-09
4.19079e-08
2.22701e-09
4.19544e-08
2.04336e-09
4.19825e-08
1.85287e-09
4.19947e-08
1.66308e-09
4.19938e-08
1.48094e-09
4.1983e-08
1.31223e-09
4.19656e-08
1.16037e-09
4.19444e-08
1.02573e-09
4.19213e-08
9.06024e-10
4.1897e-08
7.97981e-10
4.18717e-08
6.99105e-10
4.18452e-08
6.08571e-10
4.1818e-08
5.26902e-10
4.17905e-08
4.54994e-10
4.17634e-08
3.93263e-10
4.17374e-08
3.41317e-10
4.17129e-08
2.98101e-10
4.16903e-08
2.62228e-10
4.16696e-08
2.3229e-10
4.16508e-08
2.07043e-10
4.16337e-08
1.8548e-10
4.16183e-08
1.66824e-10
4.16043e-08
1.50492e-10
4.15916e-08
1.36052e-10
4.15801e-08
1.23182e-10
4.15697e-08
1.11638e-10
4.15602e-08
1.01233e-10
4.15516e-08
9.18208e-11
4.15438e-08
8.32831e-11
4.15368e-08
7.55235e-11
4.15304e-08
6.84616e-11
4.15246e-08
6.20289e-11
4.15193e-08
5.61664e-11
4.15145e-08
5.08226e-11
4.15102e-08
4.59517e-11
4.15064e-08
4.15132e-11
4.15029e-08
3.74704e-11
4.14997e-08
3.37901e-11
4.14968e-08
3.0442e-11
4.14943e-08
2.73986e-11
4.1492e-08
2.46343e-11
4.14899e-08
2.2126e-11
4.1488e-08
1.98522e-11
4.14864e-08
1.77929e-11
4.14849e-08
1.593e-11
4.14835e-08
1.42465e-11
4.14824e-08
1.27269e-11
4.14813e-08
1.13568e-11
4.14803e-08
1.0123e-11
4.14795e-08
9.01324e-12
4.14787e-08
8.01634e-12
4.14781e-08
7.12195e-12
4.14775e-08
6.32057e-12
4.1477e-08
5.60353e-12
4.14765e-08
4.96285e-12
4.14761e-08
4.39127e-12
4.14757e-08
3.88216e-12
4.14754e-08
3.42948e-12
4.14751e-08
3.02773e-12
4.14749e-08
2.67191e-12
4.14746e-08
2.35751e-12
4.14745e-08
2.08047e-12
4.14743e-08
1.83714e-12
4.14741e-08
1.62434e-12
4.1474e-08
1.43885e-12
4.14739e-08
1.27949e-12
4.14738e-08
1.13853e-12
4.14737e-08
1.0377e-12
8.78745e-13
4.24494e-08
2.2393e-09
-4.23471e-08
4.2575e-08
2.39579e-09
4.2709e-08
2.48193e-09
4.28357e-08
2.48784e-09
4.29446e-08
2.42279e-09
4.30321e-08
2.30714e-09
4.30987e-08
2.1604e-09
4.31461e-08
1.99599e-09
4.31761e-08
1.82285e-09
4.31909e-08
1.64826e-09
4.31931e-08
1.47881e-09
4.31854e-08
1.31989e-09
4.31709e-08
1.17486e-09
4.31522e-08
1.04447e-09
4.31309e-08
9.27274e-10
4.3108e-08
8.2086e-10
4.30838e-08
7.23319e-10
4.30584e-08
6.3397e-10
4.30321e-08
5.53175e-10
4.30055e-08
4.81608e-10
4.29792e-08
4.19565e-10
4.29539e-08
3.66695e-10
4.29299e-08
3.22092e-10
4.29075e-08
2.84555e-10
4.2887e-08
2.52842e-10
4.28682e-08
2.25831e-10
4.28511e-08
2.02587e-10
4.28355e-08
1.82369e-10
4.28214e-08
1.64608e-10
4.28086e-08
1.48867e-10
4.2797e-08
1.34816e-10
4.27864e-08
1.22201e-10
4.27768e-08
1.10824e-10
4.27681e-08
1.00528e-10
4.27602e-08
9.11856e-11
4.2753e-08
8.26934e-11
4.27465e-08
7.49637e-11
4.27407e-08
6.7922e-11
4.27353e-08
6.1504e-11
4.27305e-08
5.56534e-11
4.27261e-08
5.03205e-11
4.27222e-08
4.54608e-11
4.27186e-08
4.10342e-11
4.27154e-08
3.70044e-11
4.27125e-08
3.33383e-11
4.27099e-08
3.00057e-11
4.27075e-08
2.69788e-11
4.27054e-08
2.42321e-11
4.27035e-08
2.17421e-11
4.27019e-08
1.9487e-11
4.27003e-08
1.74469e-11
4.2699e-08
1.56033e-11
4.26978e-08
1.39391e-11
4.26967e-08
1.24386e-11
4.26957e-08
1.10874e-11
4.26949e-08
9.87195e-12
4.26941e-08
8.78008e-12
4.26934e-08
7.80047e-12
4.26928e-08
6.92271e-12
4.26923e-08
6.13729e-12
4.26918e-08
5.4355e-12
4.26914e-08
4.80937e-12
4.2691e-08
4.25165e-12
4.26907e-08
3.75572e-12
4.26904e-08
3.31556e-12
4.26902e-08
2.92568e-12
4.26899e-08
2.58117e-12
4.26897e-08
2.27756e-12
4.26896e-08
2.01086e-12
4.26894e-08
1.77758e-12
4.26893e-08
1.5742e-12
4.26891e-08
1.39944e-12
4.2689e-08
1.24484e-12
4.26889e-08
1.13405e-12
9.59253e-13
4.3721e-08
2.14503e-09
-4.36267e-08
4.38349e-08
2.28185e-09
4.39568e-08
2.35999e-09
4.40738e-08
2.3709e-09
4.41764e-08
2.32021e-09
4.42606e-08
2.2229e-09
4.43261e-08
2.0949e-09
4.43739e-08
1.94821e-09
4.44054e-08
1.79133e-09
4.44225e-08
1.63118e-09
4.44274e-08
1.47393e-09
4.44226e-08
1.32464e-09
4.44109e-08
1.18659e-09
4.43945e-08
1.06085e-09
4.43751e-08
9.46634e-10
4.43537e-08
8.42258e-10
4.43308e-08
7.46312e-10
4.43065e-08
6.58277e-10
4.42812e-08
5.78426e-10
4.42555e-08
5.07274e-10
4.42301e-08