/*--------------------------------*- C++ -*----------------------------------*\
| =========                 |                                                 |
| \\      /  F ield         | OpenFOAM: The Open Source CFD Toolbox           |
|  \\    /   O peration     | Version:  2.3.0                                 |
|   \\  /    A nd           | Web:      www.OpenFOAM.org                      |
|    \\/     M anipulation  |                                                 |
\*---------------------------------------------------------------------------*/
FoamFile
{
    version     2.0;
    format      ascii;
    class       volScalarField;
    location    "0.25";
    object      p;
}
// * * * * * * * * * * * * * * * * * * * * * * * * * * * * * * * * * * * * * //

dimensions      [0 2 -2 0 0 0 0];

internalField   nonuniform List<scalar> 
1650
(
0.00195656
0.00167353
0.00121119
0.000797965
0.000426941
8.06786e-05
-0.000216988
-0.000441378
-0.000582053
-0.000640646
-0.000630709
-0.000582474
-0.000525857
-0.000475474
-0.000435674
-0.000408026
-0.000390212
-0.000376819
-0.000364672
-0.000353898
-0.000344685
-0.000336309
-0.00032819
-0.000319857
-0.000310903
-0.000301543
-0.000292183
-0.000282673
-0.000272621
-0.00026178
-0.000249894
-0.000236726
-0.000222236
-0.000206444
-0.000189278
-0.00017104
-0.000152033
-0.000133304
-0.000115534
-9.93536e-05
-8.50268e-05
-7.25546e-05
-6.17736e-05
-5.24154e-05
-4.42601e-05
-3.71447e-05
-3.09422e-05
-2.55558e-05
-2.0896e-05
-1.689e-05
-1.34633e-05
-1.05627e-05
-8.13267e-06
-6.13181e-06
-4.50597e-06
-3.2065e-06
-2.1752e-06
-1.35942e-06
-7.17638e-07
-1.96438e-07
0.00163023
0.00148823
0.00114769
0.000776501
0.000419344
8.66715e-05
-0.000194054
-0.000404297
-0.000542304
-0.000606483
-0.000603412
-0.00056108
-0.000509862
-0.000463958
-0.000427321
-0.000401785
-0.000385402
-0.000372869
-0.000361203
-0.000350796
-0.000341924
-0.000333852
-0.000326031
-0.000317986
-0.00030927
-0.000300107
-0.000290948
-0.000281646
-0.000271787
-0.000261127
-0.00024941
-0.000236394
-0.000222043
-0.000206375
-0.000189369
-0.0001711
-0.000152166
-0.000133464
-0.000115674
-9.94727e-05
-8.51287e-05
-7.26433e-05
-6.18547e-05
-5.2488e-05
-4.43242e-05
-3.72001e-05
-3.09895e-05
-2.55955e-05
-2.09291e-05
-1.69171e-05
-1.34852e-05
-1.05797e-05
-8.14566e-06
-6.1414e-06
-4.51314e-06
-3.21171e-06
-2.17938e-06
-1.36228e-06
-7.20415e-07
-1.97926e-07
0.001417
0.0013341
0.00108422
0.000759974
0.000424202
0.000109743
-0.000149914
-0.000343294
-0.000476994
-0.000549722
-0.000561231
-0.00053213
-0.000490524
-0.00045118
-0.00041851
-0.000395127
-0.000379841
-0.000367854
-0.000356467
-0.00034626
-0.00033763
-0.000329873
-0.000322404
-0.000314679
-0.000306222
-0.000297316
-0.00028845
-0.000279451
-0.000269871
-0.000259473
-0.000248005
-0.000235217
-0.000221079
-0.000205622
-0.000188767
-0.000170622
-0.00015187
-0.000133248
-0.000115548
-9.94152e-05
-8.5115e-05
-7.26546e-05
-6.1887e-05
-5.25285e-05
-4.4369e-05
-3.72451e-05
-3.10326e-05
-2.56351e-05
-2.09641e-05
-1.69469e-05
-1.35091e-05
-1.0598e-05
-8.15892e-06
-6.15079e-06
-4.51986e-06
-3.21662e-06
-2.18318e-06
-1.36489e-06
-7.21558e-07
-1.9732e-07
0.00125874
0.0011952
0.00100649
0.000733949
0.000431218
0.000138956
-0.000102496
-0.000280669
-0.000407652
-0.000485638
-0.000510499
-0.000495407
-0.000464119
-0.000431634
-0.00040375
-0.000383314
-0.000369504
-0.000358543
-0.000348227
-0.000338847
-0.000330666
-0.000323269
-0.000316244
-0.000308962
-0.000300861
-0.000292248
-0.000283666
-0.000274962
-0.000265688
-0.000255595
-0.000244435
-0.000231968
-0.000218177
-0.000203087
-0.000186623
-0.000168892
-0.000150553
-0.000132297
-0.000114933
-9.90232e-05
-8.48838e-05
-7.25147e-05
-6.18229e-05
-5.25089e-05
-4.43797e-05
-3.7276e-05
-3.10774e-05
-2.56889e-05
-2.1023e-05
-1.7007e-05
-1.3567e-05
-1.06506e-05
-8.20479e-06
-6.18897e-06
-4.55093e-06
-3.24132e-06
-2.20246e-06
-1.3793e-06
-7.30097e-07
-2.00194e-07
0.00112664
0.00106954
0.000920794
0.000697934
0.000433559
0.00016588
-5.93862e-05
-0.000224577
-0.000343938
-0.000423925
-0.0004589
-0.00045609
-0.000434665
-0.00040906
-0.000385956
-0.000368337
-0.000355913
-0.000346135
-0.00033717
-0.000328756
-0.000321051
-0.000314058
-0.00030749
-0.000300612
-0.000292875
-0.000284606
-0.000276312
-0.000267881
-0.000258918
-0.000249164
-0.000238368
-0.000226323
-0.000213008
-0.000198436
-0.00018256
-0.000165521
-0.00014787
-0.000130252
-0.00011345
-9.80091e-05
-8.42092e-05
-7.21086e-05
-6.1521e-05
-5.23125e-05
-4.42628e-05
-3.72181e-05
-3.10659e-05
-2.57117e-05
-2.10717e-05
-1.70731e-05
-1.36435e-05
-1.07305e-05
-8.28287e-06
-6.2606e-06
-4.61408e-06
-3.29448e-06
-2.24559e-06
-1.41251e-06
-7.51997e-07
-2.10879e-07
0.00101171
0.000958094
0.000835762
0.000653212
0.000427595
0.00018782
-2.05294e-05
-0.000174575
-0.000286702
-0.000366481
-0.000408853
-0.000416548
-0.000404225
-0.000385221
-0.000366827
-0.00035208
-0.000340987
-0.000332196
-0.000324479
-0.000317092
-0.000309953
-0.000303356
-0.000297122
-0.000290513
-0.000283119
-0.00027524
-0.000267232
-0.00025902
-0.000250326
-0.000240891
-0.00023046
-0.000218855
-0.000206059
-0.000192089
-0.000176929
-0.000160719
-0.000143926
-0.00012717
-0.000111139
-9.63215e-05
-8.29857e-05
-7.12034e-05
-6.08613e-05
-5.18308e-05
-4.39173e-05
-3.69839e-05
-3.09142e-05
-2.56287e-05
-2.10437e-05
-1.70879e-05
-1.3691e-05
-1.07998e-05
-8.36507e-06
-6.34615e-06
-4.69653e-06
-3.36848e-06
-2.30843e-06
-1.46247e-06
-7.86557e-07
-2.28981e-07
0.000909206
0.000858323
0.000754914
0.000604178
0.000415065
0.000205512
1.48925e-05
-0.000129851
-0.000235881
-0.000314289
-0.000361712
-0.000377747
-0.000373233
-0.000360437
-0.000346747
-0.000334918
-0.000325161
-0.000317297
-0.000310763
-0.000304391
-0.000297849
-0.000291705
-0.000285825
-0.000279436
-0.000272341
-0.000264878
-0.000257193
-0.000249193
-0.000240746
-0.000231626
-0.000221557
-0.000210397
-0.000198144
-0.000184805
-0.000170394
-0.000155067
-0.000139225
-0.000123407
-0.000108208
-9.40821e-05
-8.12892e-05
-6.99117e-05
-5.98758e-05
-5.10699e-05
-4.33353e-05
-3.65472e-05
-3.05999e-05
-2.54134e-05
-2.09092e-05
-1.70187e-05
-1.36747e-05
-1.08238e-05
-8.41833e-06
-6.41652e-06
-4.77399e-06
-3.44429e-06
-2.37654e-06
-1.51881e-06
-8.26465e-07
-2.49947e-07
0.000816638
0.000768535
0.000680519
0.000555675
0.000398288
0.000217518
4.47033e-05
-9.10442e-05
-0.000191195
-0.00026719
-0.00031758
-0.000339922
-0.000342017
-0.00033499
-0.000325843
-0.000316896
-0.000308579
-0.000301695
-0.00029627
-0.000290857
-0.000284933
-0.000279304
-0.000273858
-0.000267722
-0.000260907
-0.000253859
-0.000246528
-0.000238768
-0.000230582
-0.000221789
-0.000212102
-0.000201411
-0.000189714
-0.000177017
-0.000163373
-0.000148951
-0.000134068
-0.000119186
-0.000104837
-9.14424e-05
-7.92393e-05
-6.8311e-05
-5.86177e-05
-5.00738e-05
-4.25521e-05
-3.594e-05
-3.01402e-05
-2.50753e-05
-2.06719e-05
-1.68645e-05
-1.35891e-05
-1.07928e-05
-8.4291e-06
-6.45604e-06
-4.83032e-06
-3.50692e-06
-2.43696e-06
-1.57119e-06
-8.64069e-07
-2.692e-07
0.000733325
0.000688178
0.000613222
0.000509154
0.000377299
0.000222155
6.79501e-05
-5.74834e-05
-0.000151453
-0.000224393
-0.00027643
-0.000303711
-0.000311213
-0.000309117
-0.00030423
-0.000298186
-0.000291371
-0.00028548
-0.000281114
-0.000276608
-0.000271297
-0.000266217
-0.000261279
-0.000255477
-0.000248958
-0.000242299
-0.000235338
-0.000227864
-0.000219968
-0.000211525
-0.000202254
-0.000192058
-0.000180932
-0.000168892
-0.000156028
-0.000142501
-0.000128561
-0.000114608
-0.000101119
-8.84734e-05
-7.68837e-05
-6.64364e-05
-5.71197e-05
-4.8872e-05
-4.15922e-05
-3.51807e-05
-2.95493e-05
-2.46254e-05
-2.034e-05
-1.66305e-05
-1.34368e-05
-1.0707e-05
-8.39519e-06
-6.46006e-06
-4.85918e-06
-3.54926e-06
-2.48281e-06
-1.61358e-06
-8.95039e-07
-2.84565e-07
0.000658444
0.000616025
0.000551599
0.000464115
0.000353109
0.000220908
8.55518e-05
-2.87406e-05
-0.000116444
-0.000185947
-0.000238516
-0.000269458
-0.000281151
-0.000283067
-0.000282124
-0.000278972
-0.000273581
-0.000268645
-0.000265357
-0.000261707
-0.000256963
-0.000252472
-0.000248108
-0.000242702
-0.000236514
-0.000230236
-0.000223638
-0.000216489
-0.000208936
-0.000200871
-0.000192035
-0.000182362
-0.000171838
-0.000160467
-0.000148376
-0.000135735
-0.000122736
-0.000109709
-9.70769e-05
-8.51858e-05
-7.42309e-05
-6.42955e-05
-5.5387e-05
-4.74665e-05
-4.04565e-05
-3.42707e-05
-2.88293e-05
-2.40651e-05
-1.99144e-05
-1.63174e-05
-1.32176e-05
-1.05652e-05
-8.31465e-06
-6.42605e-06
-4.8576e-06
-3.56793e-06
-2.51085e-06
-1.64309e-06
-9.17682e-07
-2.95728e-07
0.000590552
0.000550599
0.000494572
0.000420897
0.000327754
0.000215597
9.76429e-05
-5.37969e-06
-8.63559e-05
-0.000151742
-0.000203583
-0.000237052
-0.000252214
-0.000257323
-0.000259635
-0.000259226
-0.000255271
-0.000251228
-0.000249029
-0.000246234
-0.000241991
-0.000238087
-0.000234342
-0.00022936
-0.00022355
-0.00021768
-0.000211428
-0.000204619
-0.000197472
-0.000189826
-0.000181436
-0.000172312
-0.000162421
-0.00015173
-0.00014041
-0.000128656
-0.000116598
-0.000104485
-9.27011e-05
-8.1573e-05
-7.12754e-05
-6.18804e-05
-5.34095e-05
-4.58474e-05
-3.91372e-05
-3.32032e-05
-2.79735e-05
-2.33885e-05
-1.93897e-05
-1.59207e-05
-1.29277e-05
-1.03635e-05
-8.18407e-06
-6.35084e-06
-4.8226e-06
-3.56022e-06
-2.51875e-06
-1.65802e-06
-9.31227e-07
-3.02829e-07
0.000528334
0.000490817
0.000441987
0.000380206
0.00030205
0.000206711
0.000104419
1.28309e-05
-6.07605e-05
-0.000121518
-0.000171729
-0.00020665
-0.000224558
-0.000232099
-0.000236849
-0.000238998
-0.000236652
-0.00023339
-0.00023214
-0.000230234
-0.000226441
-0.000223042
-0.00021996
-0.00021545
-0.000210028
-0.000204608
-0.000198725
-0.000192248
-0.00018554
-0.000178374
-0.000170455
-0.000161886
-0.000152655
-0.000142672
-0.000132127
-0.000121252
-0.000110128
-9.89217e-05
-8.79814e-05
-7.76247e-05
-6.80054e-05
-5.91785e-05
-5.11751e-05
-4.40027e-05
-3.76219e-05
-3.1966e-05
-2.69713e-05
-2.25862e-05
-1.87578e-05
-1.5433e-05
-1.25606e-05
-1.00966e-05
-7.99913e-06
-6.23063e-06
-4.75102e-06
-3.52349e-06
-2.50469e-06
-1.65707e-06
-9.35049e-07
-3.05939e-07
0.000470915
0.00043593
0.000393481
0.000341904
0.000276145
0.000194964
0.000106889
2.64939e-05
-3.95166e-05
-9.53235e-05
-0.000143152
-0.000178254
-0.000197945
-0.000207572
-0.000214302
-0.000218508
-0.000217725
-0.000215216
-0.000214716
-0.000213693
-0.000210368
-0.000207351
-0.000204936
-0.00020099
-0.000195941
-0.000190978
-0.000185535
-0.000179389
-0.000173103
-0.000166481
-0.000159092
-0.000151076
-0.000142516
-0.000133278
-0.000123515
-0.000113502
-0.000103305
-9.30062e-05
-8.2908e-05
-7.33288e-05
-6.44078e-05
-5.6176e-05
-4.86686e-05
-4.19163e-05
-3.58955e-05
-3.0546e-05
-2.58113e-05
-2.16483e-05
-1.801e-05
-1.48464e-05
-1.21096e-05
-9.75907e-06
-7.75488e-06
-6.06121e-06
-4.63939e-06
-3.45493e-06
-2.4664e-06
-1.63883e-06
-9.28392e-07
-3.05044e-07
0.000417837
0.000385171
0.000348049
0.00030548
0.000250756
0.000181483
0.000105627
3.57372e-05
-2.24846e-05
-7.27648e-05
-0.000117613
-0.000152161
-0.000172677
-0.000183835
-0.000192259
-0.000197936
-0.000198373
-0.000196722
-0.000196903
-0.000196626
-0.000193801
-0.000191083
-0.000189239
-0.000185951
-0.000181313
-0.000176761
-0.000171825
-0.000166062
-0.000160151
-0.000154091
-0.000147326
-0.000139897
-0.000131989
-0.000123506
-0.000114545
-0.000105394
-9.61174e-05
-8.67241e-05
-7.74668e-05
-6.8672e-05
-6.04691e-05
-5.28587e-05
-4.58759e-05
-3.95749e-05
-3.39459e-05
-2.89315e-05
-2.44821e-05
-2.0564e-05
-1.71364e-05
-1.41525e-05
-1.15675e-05
-9.34461e-06
-7.44615e-06
-5.8383e-06
-4.48423e-06
-3.35181e-06
-2.40185e-06
-1.60192e-06
-9.10484e-07
-3.00078e-07
0.00036885
0.000337837
0.000304925
0.000270468
0.000226245
0.000167142
0.000101137
4.08942e-05
-9.24832e-06
-5.35575e-05
-9.50245e-05
-0.000128741
-0.00014921
-0.000160651
-0.000170456
-0.000177672
-0.000178872
-0.000177811
-0.000178745
-0.000179115
-0.000176714
-0.000174296
-0.00017292
-0.000170276
-0.000166118
-0.000161952
-0.000157548
-0.00015227
-0.000146716
-0.000141169
-0.0001351
-0.000128338
-0.000121071
-0.000113318
-0.000105178
-9.69096e-05
-8.85519e-05
-8.00539e-05
-7.16389e-05
-6.3644e-05
-5.61821e-05
-4.92174e-05
-4.27861e-05
-3.69671e-05
-3.17609e-05
-2.711e-05
-2.29717e-05
-1.93229e-05
-1.6128e-05
-1.33432e-05
-1.09273e-05
-8.84709e-06
-7.06775e-06
-5.55764e-06
-4.28209e-06
-3.21141e-06
-2.30899e-06
-1.54498e-06
-8.80622e-07
-2.90963e-07
0.00032345
0.000293437
0.000263576
0.000235915
0.000201833
0.000152648
9.46139e-05
4.23463e-05
2.03983e-07
-3.76036e-05
-7.49212e-05
-0.000107408
-0.000127675
-0.000138231
-0.000148473
-0.000157629
-0.000159529
-0.000158276
-0.000159933
-0.000161187
-0.000158996
-0.000156771
-0.00015593
-0.000153876
-0.000150168
-0.000146414
-0.000142553
-0.000137848
-0.000132724
-0.00012763
-0.00012223
-0.000116233
-0.000109676
-0.000102625
-9.52927e-05
-8.7947e-05
-8.05378e-05
-7.29315e-05
-6.53592e-05
-5.81878e-05
-5.14965e-05
-4.52042e-05
-3.93544e-05
-3.40537e-05
-2.93071e-05
-2.50533e-05
-2.12567e-05
-1.79051e-05
-1.4968e-05
-1.24043e-05
-1.01768e-05
-8.25636e-06
-6.61138e-06
-5.21248e-06
-4.02758e-06
-3.02956e-06
-2.18474e-06
-1.46597e-06
-8.37632e-07
-2.77393e-07
0.000279948
0.000250939
0.000222787
0.000200357
0.000175958
0.000137583
8.69312e-05
4.05533e-05
5.98204e-06
-2.4339e-05
-5.64885e-05
-8.71294e-05
-0.000107497
-0.000116689
-0.000125621
-0.00013656
-0.000140001
-0.000137848
-0.000139524
-0.000142199
-0.000140292
-0.000137787
-0.000137541
-0.000136242
-0.000132902
-0.000129574
-0.000126301
-0.00012217
-0.000117594
-0.000113026
-0.000108233
-0.00010305
-9.73668e-05
-9.1068e-05
-8.45103e-05
-7.81383e-05
-7.17698e-05
-6.50878e-05
-5.83669e-05
-5.20642e-05
-4.62094e-05
-4.06458e-05
-3.54294e-05
-3.07036e-05
-2.64724e-05
-2.26646e-05
-1.92536e-05
-1.62396e-05
-1.3597e-05
-1.12869e-05
-9.27639e-06
-7.54096e-06
-6.05222e-06
-4.78358e-06
-3.70601e-06
-2.79537e-06
-2.02136e-06
-1.35972e-06
-7.78627e-07
-2.58205e-07
0.000236517
0.000209801
0.00018241
0.00016355
0.000147454
0.000120342
7.83046e-05
3.66977e-05
8.20705e-06
-1.4119e-05
-3.99187e-05
-6.7547e-05
-8.78407e-05
-9.61309e-05
-0.000102215
-0.000113412
-0.000119512
-0.000116761
-0.000116961
-0.000121143
-0.000120376
-0.000117091
-0.000116998
-0.000116756
-0.000113846
-0.000110917
-0.00010835
-0.000104734
-0.000100718
-9.68887e-05
-9.27389e-05
-8.8332e-05
-8.3699e-05
-7.83193e-05
-7.2513e-05
-6.71143e-05
-6.19044e-05
-5.62429e-05
-5.04141e-05
-4.50448e-05
-4.01213e-05
-3.53689e-05
-3.08537e-05
-2.6773e-05
-2.31286e-05
-1.98321e-05
-1.68655e-05
-1.42433e-05
-1.19442e-05
-9.93082e-06
-8.1754e-06
-6.65843e-06
-5.35542e-06
-4.24282e-06
-3.29534e-06
-2.49207e-06
-1.80673e-06
-1.21819e-06
-6.99113e-07
-2.32939e-07
0.000191282
0.000169336
0.000143205
0.000126352
0.000116393
9.97541e-05
6.80686e-05
3.18108e-05
7.47708e-06
-7.4828e-06
-2.58907e-05
-4.91022e-05
-6.82726e-05
-7.63328e-05
-7.94018e-05
-8.84521e-05
-9.70342e-05
-9.52195e-05
-9.29259e-05
-9.74029e-05
-9.87361e-05
-9.4997e-05
-9.43249e-05
-9.51449e-05
-9.28324e-05
-9.01576e-05
-8.84465e-05
-8.55012e-05
-8.19809e-05
-7.90114e-05
-7.56458e-05
-7.1942e-05
-6.84062e-05
-6.41654e-05
-5.91884e-05
-5.47336e-05
-5.07659e-05
-4.62743e-05
-4.14238e-05
-3.70382e-05
-3.31212e-05
-2.927e-05
-2.55391e-05
-2.21825e-05
-1.92041e-05
-1.64944e-05
-1.40405e-05
-1.18712e-05
-9.97027e-06
-8.30227e-06
-6.84478e-06
-5.58392e-06
-4.49954e-06
-3.57193e-06
-2.77991e-06
-2.10671e-06
-1.5302e-06
-1.03359e-06
-5.93376e-07
-1.9704e-07
0.000142402
0.000127227
0.00010477
8.97614e-05
8.37861e-05
7.53472e-05
5.44552e-05
2.57971e-05
5.32599e-06
-3.97157e-06
-1.50221e-05
-3.25269e-05
-4.87478e-05
-5.6269e-05
-5.74182e-05
-6.29514e-05
-7.1928e-05
-7.21237e-05
-6.81236e-05
-7.13623e-05
-7.44976e-05
-7.11607e-05
-6.96572e-05
-7.12528e-05
-6.98054e-05
-6.71918e-05
-6.6147e-05
-6.41973e-05
-6.13665e-05
-5.9249e-05
-5.67654e-05
-5.37453e-05
-5.12118e-05
-4.82862e-05
-4.44159e-05
-4.09612e-05
-3.82099e-05
-3.49888e-05
-3.12551e-05
-2.79233e-05
-2.50724e-05
-2.22266e-05
-1.93952e-05
-1.68557e-05
-1.4624e-05
-1.2582e-05
-1.07182e-05
-9.07083e-06
-7.62958e-06
-6.36283e-06
-5.25339e-06
-4.29271e-06
-3.4656e-06
-2.7568e-06
-2.1501e-06
-1.63293e-06
-1.18865e-06
-8.04553e-07
-4.63421e-07
-1.53108e-07
8.89387e-05
8.07677e-05
6.53542e-05
5.40368e-05
5.06266e-05
4.74072e-05
3.60773e-05
1.7613e-05
3.0979e-06
-2.24032e-06
-7.44951e-06
-1.82047e-05
-2.93276e-05
-3.50597e-05
-3.54462e-05
-3.78078e-05
-4.44716e-05
-4.598e-05
-4.23344e-05
-4.38689e-05
-4.71405e-05
-4.48584e-05
-4.30616e-05
-4.4741e-05
-4.42909e-05
-4.21404e-05
-4.14567e-05
-4.04647e-05
-3.85598e-05
-3.72299e-05
-3.57391e-05
-3.37089e-05
-3.2159e-05
-3.05096e-05
-2.8006e-05
-2.56963e-05
-2.40606e-05
-2.21457e-05
-1.97521e-05
-1.7619e-05
-1.58763e-05
-1.41198e-05
-1.23194e-05
-1.07055e-05
-9.30415e-06
-8.01759e-06
-6.83415e-06
-5.78788e-06
-4.87419e-06
-4.06971e-06
-3.36341e-06
-2.75088e-06
-2.22306e-06
-1.76997e-06
-1.38167e-06
-1.05009e-06
-7.64788e-07
-5.17676e-07
-2.99006e-07
-1.06211e-07
3.0511e-05
2.80922e-05
2.25338e-05
1.81551e-05
1.70088e-05
1.62841e-05
1.27792e-05
6.46513e-06
1.04065e-06
-8.82048e-07
-2.20382e-06
-5.72015e-06
-9.85948e-06
-1.21309e-05
-1.20891e-05
-1.25827e-05
-1.52017e-05
-1.61044e-05
-1.44517e-05
-1.47922e-05
-1.64083e-05
-1.56466e-05
-1.4605e-05
-1.52403e-05
-1.53677e-05
-1.46524e-05
-1.43757e-05
-1.39721e-05
-1.31932e-05
-1.27405e-05
-1.2331e-05
-1.1661e-05
-1.11272e-05
-1.05725e-05
-9.67051e-06
-8.82753e-06
-8.28842e-06
-7.67085e-06
-6.84432e-06
-6.09654e-06
-5.50161e-06
-4.90009e-06
-4.27076e-06
-3.70645e-06
-3.22135e-06
-2.77635e-06
-2.36523e-06
-2.00247e-06
-1.68659e-06
-1.40912e-06
-1.16514e-06
-9.53838e-07
-7.70965e-07
-6.13865e-07
-4.78054e-07
-3.62048e-07
-2.61295e-07
-1.74015e-07
-9.43491e-08
-1.93677e-08
0.000230013
0.000222079
0.000244291
0.000266397
0.000309177
0.00035405
0.000413764
0.000470857
0.000554377
0.000637513
0.000751375
0.00089228
0.00109295
0.00135173
0.00169064
0.000227643
0.000222496
0.000243412
0.000266406
0.000307666
0.000353702
0.000409811
0.00047062
0.000547779
0.000636133
0.0007452
0.000886214
0.0010642
0.00129308
0.00150711
0.000224894
0.000223804
0.000242022
0.000265976
0.000305207
0.000352512
0.000405619
0.000467872
0.000541318
0.000631698
0.000735196
0.000869363
0.00102442
0.00120999
0.0013522
0.000221715
0.000224025
0.00024039
0.000264897
0.000302329
0.00035019
0.000401229
0.000462998
0.000534262
0.000623294
0.00072191
0.000843348
0.000978252
0.00112333
0.00122591
0.000218028
0.000223526
0.000238642
0.000263075
0.000299051
0.000346467
0.000396217
0.000456363
0.000525984
0.000611396
0.000704289
0.000811256
0.00092692
0.00103971
0.00111378
0.000214009
0.000222085
0.000236676
0.00026042
0.000295238
0.000341478
0.000390205
0.0004481
0.000515783
0.000596223
0.00068208
0.000775002
0.000872103
0.000959902
0.00101196
0.000209769
0.000219552
0.000234208
0.000256932
0.000290743
0.000335389
0.000382868
0.000438137
0.00050321
0.000577986
0.000655932
0.000735567
0.000815694
0.000884316
0.000919158
0.000205286
0.000215876
0.000230937
0.000252629
0.000285371
0.000328271
0.000374059
0.000426331
0.000488062
0.000556979
0.000626433
0.00069376
0.000759169
0.000812459
0.000833815
0.000200445
0.000211143
0.000226674
0.000247465
0.000278937
0.000320042
0.000363694
0.000412599
0.000470368
0.000533303
0.000594233
0.000650484
0.000703102
0.000743714
0.000755117
0.000195099
0.000205451
0.000221279
0.000241344
0.000271289
0.000310507
0.000351757
0.000396951
0.000450187
0.000507116
0.000560029
0.000606289
0.000647684
0.00067813
0.000682763
0.000189084
0.000198842
0.000214667
0.000234134
0.000262344
0.00029947
0.000338181
0.000379439
0.000427711
0.000478668
0.000524196
0.000561579
0.000593434
0.000615934
0.000615998
0.000182232
0.000191306
0.000206792
0.000225694
0.000252072
0.00028679
0.000322815
0.000360138
0.000403255
0.000448226
0.000486926
0.000516748
0.000540865
0.000557071
0.000553951
0.000174399
0.000182791
0.000197632
0.000215861
0.000240422
0.000272439
0.000305517
0.000339035
0.000377133
0.000416199
0.000448477
0.000471911
0.000490065
0.00050147
0.000496101
0.000165466
0.000173234
0.000187177
0.000204447
0.000227279
0.000256521
0.00028627
0.000315967
0.000349523
0.000383156
0.000409328
0.000426992
0.000440664
0.000449004
0.000442328
0.000155328
0.000162534
0.000175432
0.000191344
0.000212427
0.000239117
0.000265268
0.000290799
0.000320305
0.00034954
0.000370212
0.000382148
0.000392026
0.000399118
0.00039259
0.000143795
0.000150446
0.000162289
0.000176477
0.000195493
0.000219951
0.000242663
0.000263519
0.000288922
0.000314928
0.000331396
0.000337747
0.000343475
0.000350342
0.000345859
0.00013032
0.000136308
0.000147124
0.000159374
0.000175696
0.000197925
0.000217766
0.00023364
0.000254191
0.000277464
0.000291436
0.000293172
0.000293942
0.000300093
0.000299249
0.000114285
0.0001194
0.000129095
0.000139441
0.000152399
0.000171857
0.000189493
0.000200754
0.000215568
0.000235691
0.000248575
0.000247636
0.000243442
0.000247317
0.000250309
9.53e-05
9.93341e-05
0.000107594
0.000116193
0.000125556
0.000141313
0.000156919
0.000164698
0.000173608
0.000189584
0.00020176
0.000200326
0.000192725
0.000193186
0.000198345
7.29098e-05
7.57691e-05
8.21298e-05
8.89122e-05
9.50287e-05
0.000106296
0.000119128
0.00012459
0.000128649
0.000139686
0.000150314
0.000149746
0.000141366
0.000138865
0.000143871
4.66656e-05
4.83641e-05
5.23987e-05
5.69293e-05
6.03613e-05
6.69485e-05
7.56153e-05
7.91803e-05
8.0343e-05
8.64814e-05
9.39736e-05
9.42882e-05
8.78494e-05
8.4466e-05
8.77334e-05
1.62732e-05
1.68362e-05
1.82231e-05
1.98575e-05
2.09669e-05
2.30965e-05
2.62027e-05
2.75128e-05
2.76251e-05
2.95166e-05
3.22633e-05
3.25766e-05
3.01554e-05
2.85593e-05
2.96299e-05
)
;

boundaryField
{
    top
    {
        type            fixedValue;
        value           uniform 0;
    }
    inlet
    {
        type            zeroGradient;
    }
    outlet
    {
        type            fixedValue;
        value           uniform 0;
    }
    plate
    {
        type            zeroGradient;
    }
    symmBound
    {
        type            zeroGradient;
    }
    frontAndBack
    {
        type            empty;
    }
}


// ************************************************************************* //
