/*--------------------------------*- C++ -*----------------------------------*\
| =========                 |                                                 |
| \\      /  F ield         | OpenFOAM: The Open Source CFD Toolbox           |
|  \\    /   O peration     | Version:  2.3.0                                 |
|   \\  /    A nd           | Web:      www.OpenFOAM.org                      |
|    \\/     M anipulation  |                                                 |
\*---------------------------------------------------------------------------*/
FoamFile
{
    version     2.0;
    format      ascii;
    class       volScalarField;
    location    "0.25";
    object      p;
}
// * * * * * * * * * * * * * * * * * * * * * * * * * * * * * * * * * * * * * //

dimensions      [0 2 -2 0 0 0 0];

internalField   nonuniform List<scalar> 
8750
(
0.0030884
0.00249438
0.00200911
0.0016589
0.00136913
0.00110829
0.000876258
0.0006776
0.000513815
0.000383882
0.000285229
0.000214062
0.000165735
0.000135294
0.00011801
0.000109769
0.000107257
0.000107989
0.000110224
0.000112832
0.000115139
0.000116796
0.000117661
0.000117718
0.000117018
0.00011564
0.000113673
0.000111197
0.000108284
0.000104994
0.000101375
9.74672e-05
9.33036e-05
8.89117e-05
8.43159e-05
7.95383e-05
7.46005e-05
6.95236e-05
6.43299e-05
5.90426e-05
5.36869e-05
4.82902e-05
4.28827e-05
3.74976e-05
3.21713e-05
2.69441e-05
2.18605e-05
1.69695e-05
1.23267e-05
7.99534e-06
4.04933e-06
5.76296e-07
-2.319e-06
-4.51318e-06
-5.86535e-06
-6.2255e-06
-5.45007e-06
-3.42086e-06
-7.67233e-08
4.56652e-06
1.02463e-05
1.67658e-05
2.37599e-05
3.08963e-05
3.78914e-05
4.45167e-05
5.06065e-05
5.6054e-05
6.08004e-05
6.48262e-05
6.81398e-05
7.07695e-05
7.27553e-05
7.41435e-05
7.49822e-05
7.53189e-05
7.51976e-05
7.46591e-05
7.374e-05
7.24724e-05
7.08853e-05
6.90034e-05
6.68492e-05
6.44422e-05
6.17999e-05
5.89382e-05
5.58712e-05
5.26122e-05
4.91734e-05
4.55663e-05
4.1802e-05
3.7891e-05
3.38435e-05
2.96694e-05
2.53783e-05
2.09794e-05
1.6482e-05
1.18943e-05
7.22445e-06
2.49744e-06
0.0028077
0.00238382
0.00198524
0.00166732
0.0013918
0.00113822
0.000909321
0.000711299
0.000546693
0.000415056
0.000314152
0.000240431
0.000189438
0.000156362
0.000136579
0.00012604
0.000121469
0.00012039
0.00012106
0.00012233
0.000123503
0.000124204
0.000124263
0.00012364
0.000122362
0.000120491
0.000118098
0.000115253
0.000112016
0.00010844
0.000104566
0.00010043
9.60591e-05
9.14792e-05
8.67114e-05
8.17756e-05
7.66914e-05
7.14785e-05
6.61576e-05
6.07509e-05
5.52825e-05
4.97791e-05
4.42699e-05
3.87875e-05
3.33678e-05
2.80505e-05
2.28796e-05
1.79037e-05
1.31777e-05
8.76401e-06
4.7357e-06
1.17927e-06
-1.80173e-06
-4.08498e-06
-5.52989e-06
-5.98467e-06
-5.30022e-06
-3.35532e-06
-8.14996e-08
4.44289e-06
1.00959e-05
1.65955e-05
2.35916e-05
3.0735e-05
3.77381e-05
4.43719e-05
5.04713e-05
5.59291e-05
6.06857e-05
6.47214e-05
6.80445e-05
7.06828e-05
7.26765e-05
7.40721e-05
7.49176e-05
7.52605e-05
7.51449e-05
7.46117e-05
7.36974e-05
7.24343e-05
7.08513e-05
6.89733e-05
6.68226e-05
6.44188e-05
6.17795e-05
5.89204e-05
5.58558e-05
5.2599e-05
4.91621e-05
4.55568e-05
4.1794e-05
3.78844e-05
3.38381e-05
2.9665e-05
2.53748e-05
2.09768e-05
1.648e-05
1.18931e-05
7.22429e-06
2.50625e-06
0.00260334
0.00228626
0.00194807
0.00165486
0.00139495
0.001155
0.000936776
0.000745774
0.000584749
0.000453765
0.000351215
0.000274259
0.000219145
0.000181663
0.000157638
0.000143307
0.000135528
0.000131854
0.000130491
0.000130206
0.000130206
0.000130022
0.000129408
0.000128263
0.00012657
0.000124358
0.000121675
0.000118578
0.000115116
0.000111336
0.000107276
0.000102969
9.84399e-05
9.37129e-05
8.8808e-05
8.37445e-05
7.85407e-05
7.32157e-05
6.77893e-05
6.22829e-05
5.67201e-05
5.11266e-05
4.55314e-05
3.99662e-05
3.44667e-05
2.90718e-05
2.38251e-05
1.87747e-05
1.3975e-05
9.48768e-06
5.38535e-06
1.75396e-06
-1.30321e-06
-3.6638e-06
-5.18656e-06
-5.71825e-06
-5.107e-06
-3.22599e-06
2.85556e-09
4.57055e-06
1.02562e-05
1.66942e-05
2.36152e-05
3.07191e-05
3.77073e-05
4.43334e-05
5.04268e-05
5.58804e-05
6.06346e-05
6.46696e-05
6.79932e-05
7.06329e-05
7.26286e-05
7.40266e-05
7.48748e-05
7.52205e-05
7.51079e-05
7.45777e-05
7.36664e-05
7.24062e-05
7.0826e-05
6.89507e-05
6.68026e-05
6.44013e-05
6.17642e-05
5.89072e-05
5.58446e-05
5.25894e-05
4.91541e-05
4.55501e-05
4.17886e-05
3.78799e-05
3.38344e-05
2.9662e-05
2.53723e-05
2.09748e-05
1.64787e-05
1.18932e-05
7.22909e-06
2.53121e-06
0.00243055
0.0021824
0.00189563
0.00163091
0.00139117
0.00116876
0.000964706
0.000783688
0.000628666
0.000500243
0.000397442
0.000318127
0.000259274
0.000217336
0.000188673
0.000169895
0.000158091
0.000150918
0.000146604
0.00014388
0.000141891
0.000140096
0.000138179
0.000135976
0.000133418
0.000130491
0.000127214
0.000123613
0.000119722
0.000115571
0.000111187
0.000106595
0.000101814
9.68617e-05
9.17546e-05
8.65082e-05
8.11384e-05
7.56617e-05
7.0096e-05
6.4461e-05
5.87788e-05
5.30738e-05
4.73738e-05
4.17096e-05
3.61157e-05
3.06305e-05
2.52966e-05
2.01616e-05
1.5279e-05
1.07104e-05
6.52788e-06
2.81738e-06
-3.17596e-07
-2.75414e-06
-4.35021e-06
-4.95143e-06
-4.4048e-06
-2.58332e-06
5.81634e-07
5.06141e-06
1.07203e-05
1.71939e-05
2.40433e-05
3.10011e-05
3.78751e-05
4.44272e-05
5.04696e-05
5.58861e-05
6.06123e-05
6.46275e-05
6.79379e-05
7.05695e-05
7.2561e-05
7.39575e-05
7.48063e-05
7.5154e-05
7.50443e-05
7.45175e-05
7.361e-05
7.23538e-05
7.07776e-05
6.89064e-05
6.67622e-05
6.43648e-05
6.17313e-05
5.88779e-05
5.58185e-05
5.25664e-05
4.9134e-05
4.55325e-05
4.17732e-05
3.78666e-05
3.38228e-05
2.96519e-05
2.53635e-05
2.0967e-05
1.64723e-05
1.18898e-05
7.23499e-06
2.57034e-06
0.00227788
0.00207925
0.00183843
0.00160356
0.00138477
0.00117975
0.000989885
0.000819366
0.000671237
0.000546498
0.000444644
0.000364086
0.000302409
0.000256669
0.00022375
0.000200674
0.000184808
0.000173977
0.00016648
0.000161054
0.00015681
0.000153151
0.0001497
0.000146232
0.000142624
0.00013882
0.000134799
0.000130563
0.000126122
0.000121492
0.000116686
0.00011172
0.000106605
0.000101354
9.59796e-05
9.04921e-05
8.49046e-05
7.92309e-05
7.34864e-05
6.76887e-05
6.18579e-05
5.60168e-05
5.01915e-05
4.44115e-05
3.87098e-05
3.31236e-05
2.76946e-05
2.24694e-05
1.75008e-05
1.285e-05
8.58877e-06
4.80293e-06
1.59567e-06
-9.10682e-07
-2.57545e-06
-3.24666e-06
-2.77535e-06
-1.04047e-06
2.01755e-06
6.3594e-06
1.18261e-05
1.81115e-05
2.48896e-05
3.17615e-05
3.84448e-05
4.48108e-05
5.07097e-05
5.60238e-05
6.06741e-05
6.46334e-05
6.79033e-05
7.05066e-05
7.24795e-05
7.38646e-05
7.47072e-05
7.50525e-05
7.49431e-05
7.44185e-05
7.35144e-05
7.22624e-05
7.0691e-05
6.88248e-05
6.66859e-05
6.42939e-05
6.16658e-05
5.88176e-05
5.57634e-05
5.25164e-05
4.90887e-05
4.54918e-05
4.17367e-05
3.7834e-05
3.37938e-05
2.9626e-05
2.53403e-05
2.09465e-05
1.64546e-05
1.18769e-05
7.23502e-06
2.61431e-06
0.00214666
0.00198385
0.00178099
0.00157366
0.00137476
0.00118614
0.00100998
0.000850066
0.000709349
0.000589083
0.000489127
0.000408334
0.000344799
0.000296109
0.000259631
0.000232783
0.000213224
0.000198965
0.000188404
0.000180315
0.000173799
0.000168224
0.000163164
0.000158348
0.000153605
0.000148839
0.000143997
0.000139053
0.000133997
0.000128827
0.000123546
0.000118158
0.000112668
0.000107081
0.000101406
9.5648e-05
8.98179e-05
8.39259e-05
7.79849e-05
7.20101e-05
6.60197e-05
6.00345e-05
5.40788e-05
4.81806e-05
4.23714e-05
3.6687e-05
3.1168e-05
2.58598e-05
2.08146e-05
1.60929e-05
1.17659e-05
7.91855e-06
4.65242e-06
2.08711e-06
3.58754e-07
-3.87506e-07
-1.19794e-08
1.59539e-06
4.48326e-06
8.60505e-06
1.37992e-05
1.97865e-05
2.62469e-05
3.28863e-05
3.94215e-05
4.55887e-05
5.12681e-05
5.63988e-05
6.09083e-05
6.47631e-05
6.79549e-05
7.05004e-05
7.24315e-05
7.37875e-05
7.46104e-05
7.49431e-05
7.48263e-05
7.42981e-05
7.33932e-05
7.21424e-05
7.05735e-05
6.8711e-05
6.65765e-05
6.41894e-05
6.15668e-05
5.87244e-05
5.56761e-05
5.24351e-05
4.90135e-05
4.54226e-05
4.16733e-05
3.77762e-05
3.37413e-05
2.95785e-05
2.52974e-05
2.09078e-05
1.64203e-05
1.18487e-05
7.22053e-06
2.64309e-06
0.0020336
0.00189656
0.00172402
0.00154127
0.00136119
0.0011882
0.00102525
0.000875803
0.000742686
0.000627322
0.00052988
0.00044959
0.000384987
0.000334112
0.000294764
0.000264723
0.000241926
0.000224575
0.000211184
0.00020058
0.000191875
0.000184421
0.000177762
0.000171587
0.000165689
0.000159938
0.000154249
0.000148573
0.00014288
0.000137151
0.000131377
0.000125551
0.000119673
0.00011374
0.000107755
0.00010172
9.56431e-05
8.95303e-05
8.33924e-05
7.72423e-05
7.10959e-05
6.49723e-05
5.88941e-05
5.28874e-05
4.69823e-05
4.12132e-05
3.56192e-05
3.02448e-05
2.51412e-05
2.03678e-05
1.59945e-05
1.21043e-05
8.79569e-06
6.18323e-06
4.39543e-06
3.56702e-06
3.82475e-06
5.26489e-06
7.92466e-06
1.17537e-05
1.6598e-05
2.22042e-05
2.82787e-05
3.45431e-05
4.07357e-05
4.66583e-05
5.21386e-05
5.70526e-05
6.13674e-05
6.50683e-05
6.81423e-05
7.05985e-05
7.24624e-05
7.37683e-05
7.45547e-05
7.48612e-05
7.4726e-05
7.41852e-05
7.32721e-05
7.20165e-05
7.04454e-05
6.85826e-05
6.64494e-05
6.40648e-05
6.14457e-05
5.86076e-05
5.55643e-05
5.23287e-05
4.8913e-05
4.53283e-05
4.15854e-05
3.76946e-05
3.3666e-05
2.95092e-05
2.52339e-05
2.08498e-05
1.63676e-05
1.18022e-05
7.18449e-06
2.63116e-06
0.00193511
0.00181704
0.00166869
0.00150757
0.00134505
0.00118679
0.00103634
0.000896996
0.000771423
0.000661164
0.000566642
0.000487413
0.000422378
0.000369973
0.000328372
0.000295682
0.000270099
0.000250014
0.000234062
0.000221137
0.000210377
0.000201132
0.000192928
0.000185425
0.000178389
0.000171659
0.000165125
0.000158716
0.000152382
0.000146092
0.000139823
0.000133559
0.000127291
0.000121013
0.00011472
0.000108412
0.000102092
9.57639e-05
8.94358e-05
8.31184e-05
7.68256e-05
7.05744e-05
6.43857e-05
5.8284e-05
5.22978e-05
4.646e-05
4.08084e-05
3.53861e-05
3.0243e-05
2.54369e-05
2.10358e-05
1.71197e-05
1.37825e-05
1.1132e-05
9.28675e-06
8.36913e-06
8.49125e-06
9.73495e-06
1.2127e-05
1.56154e-05
2.00575e-05
2.52269e-05
3.08584e-05
3.66916e-05
4.24868e-05
4.80502e-05
5.32323e-05
5.79229e-05
6.20389e-05
6.55589e-05
6.84833e-05
7.0822e-05
7.25955e-05
7.38322e-05
7.45658e-05
7.48323e-05
7.46671e-05
7.4104e-05
7.31745e-05
7.19072e-05
7.03278e-05
6.84596e-05
6.63233e-05
6.39374e-05
6.13186e-05
5.8482e-05
5.54415e-05
5.22096e-05
4.87983e-05
4.52186e-05
4.14813e-05
3.75965e-05
3.35741e-05
2.94235e-05
2.51543e-05
2.0776e-05
1.62992e-05
1.17389e-05
7.12486e-06
2.56179e-06
0.0018485
0.00174488
0.00161592
0.00147352
0.00132706
0.00118252
0.00104379
0.000914073
0.000795889
0.000690835
0.000599533
0.000521807
0.000456869
0.000403493
0.000360181
0.000325335
0.00029739
0.000274916
0.000256674
0.000241632
0.000228965
0.000218033
0.000208353
0.000199568
0.000191422
0.000183729
0.000176361
0.000169224
0.000162255
0.000155405
0.000148643
0.000141944
0.000135289
0.000128668
0.000122071
0.000115494
0.000108936
0.000102399
9.58871e-05
8.94098e-05
8.29786e-05
7.66089e-05
7.03197e-05
6.41338e-05
5.80781e-05
5.2184e-05
4.64877e-05
4.10308e-05
3.58616e-05
3.1036e-05
2.66193e-05
2.26877e-05
1.93295e-05
1.66444e-05
1.47404e-05
1.37266e-05
1.37002e-05
1.47295e-05
1.68322e-05
1.99564e-05
2.39718e-05
2.86774e-05
3.38353e-05
3.92072e-05
4.45725e-05
4.97471e-05
5.45868e-05
5.89823e-05
6.28712e-05
6.62037e-05
6.89658e-05
7.11685e-05
7.28333e-05
7.39846e-05
7.46518e-05
7.48666e-05
7.46613e-05
7.40671e-05
7.31136e-05
7.18278e-05
7.02344e-05
6.83557e-05
6.62117e-05
6.38206e-05
6.11986e-05
5.83605e-05
5.53199e-05
5.20893e-05
4.86805e-05
4.51042e-05
4.13711e-05
3.74912e-05
3.3474e-05
2.9329e-05
2.50655e-05
2.06926e-05
1.62206e-05
1.1663e-05
7.04504e-06
2.43757e-06
0.00177168
0.00167942
0.00156612
0.00143977
0.00130779
0.0011759
0.00104811
0.000927515
0.000816504
0.00071668
0.000628808
0.000552933
0.000488531
0.000434662
0.000390116
0.000353556
0.000323637
0.000299102
0.000278831
0.000261875
0.000247452
0.000234942
0.000223863
0.00021385
0.000204628
0.000195997
0.000187809
0.000179954
0.000172354
0.00016495
0.000157698
0.000150564
0.000143526
0.000136564
0.000129666
0.000122822
0.000116029
0.000109285
0.000102594
9.59604e-05
8.93954e-05
8.2912e-05
7.65275e-05
7.02631e-05
6.41439e-05
5.81998e-05
5.24654e-05
4.69806e-05
4.17917e-05
3.69522e-05
3.25244e-05
2.85802e-05
2.52015e-05
2.24798e-05
2.05122e-05
1.93947e-05
1.92107e-05
2.0016e-05
2.18208e-05
2.45746e-05
2.8159e-05
3.23959e-05
3.70729e-05
4.19736e-05
4.68956e-05
5.16664e-05
5.61472e-05
6.02329e-05
6.38563e-05
6.69697e-05
6.95585e-05
7.16208e-05
7.31669e-05
7.42213e-05
7.4811e-05
7.49644e-05
7.47106e-05
7.40779e-05
7.30938e-05
7.17838e-05
7.01713e-05
6.82775e-05
6.61219e-05
6.3722e-05
6.10935e-05
5.8251e-05
5.52079e-05
5.19762e-05
4.85677e-05
4.4993e-05
4.12624e-05
3.73859e-05
3.33729e-05
2.92325e-05
2.49737e-05
2.06054e-05
1.6137e-05
1.15802e-05
6.95198e-06
2.27888e-06
0.00170301
0.00161994
0.00151943
0.00140679
0.00128773
0.00116742
0.00104979
0.000937787
0.000833678
0.00073904
0.000654737
0.000580984
0.000517481
0.00046353
0.000418169
0.000380294
0.00034876
0.00032247
0.000300423
0.000281752
0.000265727
0.000251754
0.000239359
0.000228176
0.00021792
0.000208378
0.000199388
0.000190828
0.000182605
0.000174651
0.000166912
0.000159347
0.000151926
0.000144624
0.000137425
0.000130315
0.000123288
0.000116338
0.000109468
0.000102679
9.59812e-05
8.93851e-05
8.29064e-05
7.65645e-05
7.03831e-05
6.43901e-05
5.86186e-05
5.31065e-05
4.78981e-05
4.30442e-05
3.86036e-05
3.46435e-05
3.12397e-05
2.8475e-05
2.64361e-05
2.5207e-05
2.48584e-05
2.54352e-05
2.69416e-05
2.93288e-05
3.24897e-05
3.62663e-05
4.04692e-05
4.49028e-05
4.93821e-05
5.37458e-05
5.78621e-05
6.16294e-05
6.49783e-05
6.78612e-05
7.02573e-05
7.21618e-05
7.35821e-05
7.45338e-05
7.50385e-05
7.51228e-05
7.48132e-05
7.41356e-05
7.31154e-05
7.17762e-05
7.01401e-05
6.82275e-05
6.60567e-05
6.36447e-05
6.1007e-05
5.81575e-05
5.51094e-05
5.18747e-05
4.84645e-05
4.48897e-05
4.11601e-05
3.72857e-05
3.32755e-05
2.91386e-05
2.48835e-05
2.05189e-05
1.6053e-05
1.14951e-05
6.85352e-06
2.11236e-06
0.00164122
0.00156576
0.00147581
0.00137489
0.00126729
0.00115752
0.00104926
0.000945306
0.000847791
0.000758244
0.000677584
0.000606162
0.000543855
0.000490173
0.000444367
0.000405536
0.000372716
0.000344958
0.000321377
0.000301188
0.000283715
0.000268396
0.000254774
0.000242484
0.000231241
0.00022082
0.000211051
0.0002018
0.000192965
0.000184467
0.000176245
0.000168252
0.000160449
0.000152809
0.000145309
0.000137933
0.00013067
0.000123514
0.000116463
0.000109518
0.000102686
9.59752e-05
8.94005e-05
8.29793e-05
7.67335e-05
7.06894e-05
6.4878e-05
5.93354e-05
5.41035e-05
4.92304e-05
4.47712e-05
4.07883e-05
3.73512e-05
3.45346e-05
3.24155e-05
3.10665e-05
3.05475e-05
3.08941e-05
3.21054e-05
3.41348e-05
3.68853e-05
4.02165e-05
4.39595e-05
4.79378e-05
5.19823e-05
5.59433e-05
5.96959e-05
6.31423e-05
6.62125e-05
6.88584e-05
7.10549e-05
7.2793e-05
7.40755e-05
7.49145e-05
7.53284e-05
7.53382e-05
7.4967e-05
7.42391e-05
7.31778e-05
7.18049e-05
7.01413e-05
6.82061e-05
6.6017e-05
6.35902e-05
6.09406e-05
5.80819e-05
5.50267e-05
5.17869e-05
4.83735e-05
4.47968e-05
4.10668e-05
3.7193e-05
3.31845e-05
2.90499e-05
2.47976e-05
2.04356e-05
1.59714e-05
1.14113e-05
6.75644e-06
1.95965e-06
0.00158529
0.00151624
0.00143515
0.00134426
0.00124678
0.00114653
0.00104689
0.000950447
0.000859195
0.0007746
0.000697608
0.000628668
0.000567798
0.000514682
0.000468752
0.000429286
0.00039548
0.000366523
0.000341638
0.000320121
0.000301353
0.000284809
0.000270052
0.000256726
0.000244546
0.000233284
0.000222762
0.000212839
0.000203405
0.000194373
0.000185674
0.000177256
0.000169074
0.000161096
0.000153295
0.000145652
0.000138154
0.00013079
0.000123556
0.000116453
0.000109483
0.000102656
9.59819e-05
8.94778e-05
8.31637e-05
7.7064e-05
7.12079e-05
6.56294e-05
6.0368e-05
5.54687e-05
5.09829e-05
4.69683e-05
4.34882e-05
4.06097e-05
3.84007e-05
3.6924e-05
3.62297e-05
3.63455e-05
3.72667e-05
3.89487e-05
4.1304e-05
4.4207e-05
4.75071e-05
5.10451e-05
5.46667e-05
5.82331e-05
6.16265e-05
6.47532e-05
6.75434e-05
6.99487e-05
7.19405e-05
7.35063e-05
7.4645e-05
7.53648e-05
7.56798e-05
7.56081e-05
7.51703e-05
7.43874e-05
7.32805e-05
7.18698e-05
7.01749e-05
6.82138e-05
6.60034e-05
6.3559e-05
6.08952e-05
5.80249e-05
5.49608e-05
5.1714e-05
4.82956e-05
4.47156e-05
4.09838e-05
3.71094e-05
3.31013e-05
2.8968e-05
2.47175e-05
2.03573e-05
1.58939e-05
1.13315e-05
6.66564e-06
1.83252e-06
0.00153439
0.00147085
0.00139726
0.001315
0.00122643
0.00113477
0.00104302
0.000953549
0.000868213
0.0007884
0.000715057
0.000648698
0.000589455
0.000537152
0.000491377
0.000451559
0.000417041
0.000387132
0.000361161
0.0003385
0.00031859
0.000300942
0.000285146
0.000270857
0.000257795
0.000245734
0.00023449
0.000223918
0.000213901
0.000204346
0.00019518
0.000186341
0.000177784
0.00016947
0.00016137
0.000153461
0.000145725
0.000138152
0.000130735
0.00012347
0.000116361
0.000109413
0.000102636
9.6045e-05
8.96578e-05
8.34974e-05
7.75909e-05
7.197e-05
6.66718e-05
6.17383e-05
5.72171e-05
5.31612e-05
4.9628e-05
4.66775e-05
4.43693e-05
4.27575e-05
4.18836e-05
4.17687e-05
4.24053e-05
4.37509e-05
4.5726e-05
4.82183e-05
5.10932e-05
5.42069e-05
5.74187e-05
6.06003e-05
6.3641e-05
6.6451e-05
6.89618e-05
7.11244e-05
7.29081e-05
7.4297e-05
7.52866e-05
7.58814e-05
7.60921e-05
7.59336e-05
7.54235e-05
7.45804e-05
7.34233e-05
7.1971e-05
7.02413e-05
6.82511e-05
6.60163e-05
6.35518e-05
6.08712e-05
5.79874e-05
5.49122e-05
5.16568e-05
4.82317e-05
4.46469e-05
4.09118e-05
3.70356e-05
3.30268e-05
2.88937e-05
2.4644e-05
2.02847e-05
1.58216e-05
1.12572e-05
6.58405e-06
1.73378e-06
0.00148786
0.00142911
0.00136194
0.00128714
0.00120644
0.00112249
0.00103792
0.00095491
0.000875139
0.000799914
0.000730163
0.000666443
0.000608972
0.000557685
0.000512301
0.000472383
0.000437396
0.000406766
0.000379913
0.000356285
0.00033538
0.00031675
0.000300011
0.000284836
0.000270953
0.000258138
0.000246207
0.000235012
0.000224432
0.000214369
0.000204744
0.000195494
0.000186567
0.000177921
0.000169523
0.000161348
0.000153376
0.000145593
0.00013799
0.000130562
0.00012331
0.000116238
0.000109355
0.000102672
9.62074e-05
8.99807e-05
8.40176e-05
7.83477e-05
7.30052e-05
6.80293e-05
6.34637e-05
5.93569e-05
5.57607e-05
5.27285e-05
5.03125e-05
4.85587e-05
4.75017e-05
4.71568e-05
4.75144e-05
4.8534e-05
5.01433e-05
5.22417e-05
5.47084e-05
5.74136e-05
6.02292e-05
6.30365e-05
6.57316e-05
6.82291e-05
7.04618e-05
7.2381e-05
7.39539e-05
7.51621e-05
7.59981e-05
7.6463e-05
7.65642e-05
7.63139e-05
7.57266e-05
7.48188e-05
7.36074e-05
7.21093e-05
7.03411e-05
6.83185e-05
6.60565e-05
6.35691e-05
6.08695e-05
5.79698e-05
5.48816e-05
5.16157e-05
4.81824e-05
4.45913e-05
4.08516e-05
3.69722e-05
3.29615e-05
2.88276e-05
2.45777e-05
2.02186e-05
1.57553e-05
1.11897e-05
6.51298e-06
1.66079e-06
0.00144513
0.0013906
0.00132898
0.00126068
0.00118691
0.00110987
0.00103185
0.000954796
0.000880237
0.000809389
0.000743147
0.000682087
0.000626491
0.000576385
0.000531593
0.000491791
0.000456556
0.000425412
0.000397867
0.00037344
0.000351683
0.000332191
0.000314608
0.000298626
0.000283984
0.000270464
0.000257885
0.000246096
0.000234975
0.000224421
0.000214352
0.000204699
0.000195409
0.000186436
0.000177744
0.000169305
0.000161097
0.000153104
0.000145314
0.000137722
0.000130325
0.000123126
0.000116132
0.000109354
0.000102807
9.65083e-05
9.04826e-05
8.47568e-05
7.93626e-05
7.43361e-05
6.97175e-05
6.55506e-05
6.1882e-05
5.87591e-05
5.62272e-05
5.43257e-05
5.30826e-05
5.25088e-05
5.25927e-05
5.32962e-05
5.45533e-05
5.62735e-05
5.83482e-05
6.06603e-05
6.30928e-05
6.55361e-05
6.78933e-05
7.00828e-05
7.20397e-05
7.37152e-05
7.50755e-05
7.61e-05
7.67783e-05
7.71087e-05
7.70959e-05
7.67488e-05
7.60798e-05
7.51028e-05
7.38329e-05
7.22853e-05
7.04751e-05
6.8417e-05
6.61248e-05
6.36119e-05
6.08907e-05
5.7973e-05
5.48698e-05
5.15916e-05
4.81483e-05
4.45493e-05
4.08035e-05
3.69197e-05
3.29059e-05
2.877e-05
2.4519e-05
2.01594e-05
1.56957e-05
1.11295e-05
6.45264e-06
1.60852e-06
0.00140576
0.00135496
0.00129819
0.00123557
0.00116792
0.00109708
0.00102501
0.000953439
0.000883746
0.000817054
0.000754213
0.000695805
0.000642154
0.000593355
0.000549322
0.000509825
0.000474536
0.000443067
0.000415006
0.000389937
0.000367467
0.00034723
0.0003289
0.000312191
0.000296855
0.000282682
0.000269495
0.000257145
0.000245509
0.000234484
0.000223984
0.000213941
0.000204297
0.000195003
0.000186022
0.000177322
0.00016888
0.000160677
0.0001527
0.000144942
0.000137398
0.00013007
0.000122963
0.000116085
0.00010945
0.000103075
9.69812e-05
9.11931e-05
8.57401e-05
8.06553e-05
7.59752e-05
7.17395e-05
6.79899e-05
6.4768e-05
6.21133e-05
6.00588e-05
5.86273e-05
5.78258e-05
5.76415e-05
5.80382e-05
5.89557e-05
6.03123e-05
6.20102e-05
6.39436e-05
6.60057e-05
6.80954e-05
7.01222e-05
7.20088e-05
7.36923e-05
7.51246e-05
7.6271e-05
7.71091e-05
7.76263e-05
7.78182e-05
7.76868e-05
7.72386e-05
7.64834e-05
7.5433e-05
7.41005e-05
7.24996e-05
7.0644e-05
6.8547e-05
6.62218e-05
6.36808e-05
6.09356e-05
5.79977e-05
5.48774e-05
5.1585e-05
4.813e-05
4.45215e-05
4.07682e-05
3.68785e-05
3.28604e-05
2.87214e-05
2.44685e-05
2.01076e-05
1.56432e-05
1.1077e-05
6.40252e-06
1.57202e-06
0.00136935
0.00132189
0.00126939
0.00121175
0.00114954
0.00108425
0.00101758
0.000951041
0.000885879
0.000823116
0.000763553
0.000707763
0.000656096
0.000608703
0.000565565
0.000526533
0.000491359
0.000459736
0.000431319
0.000405756
0.000382702
0.000361834
0.000342854
0.000325498
0.000309535
0.000294763
0.000281012
0.000268136
0.000256012
0.000244537
0.000233626
0.000223205
0.000213217
0.00020361
0.000194345
0.000185389
0.000176716
0.000168305
0.000160142
0.000152217
0.000144525
0.000137065
0.000129842
0.000122861
0.000116134
0.000109678
0.000103509
9.76529e-05
9.21343e-05
8.69837e-05
8.22344e-05
7.79219e-05
7.40832e-05
7.07549e-05
6.79709e-05
6.57591e-05
6.41375e-05
6.31098e-05
6.26625e-05
6.27612e-05
6.33508e-05
6.43574e-05
6.56929e-05
6.72612e-05
6.89651e-05
7.07113e-05
7.24153e-05
7.40041e-05
7.54171e-05
7.6607e-05
7.75387e-05
7.81883e-05
7.85413e-05
7.8591e-05
7.8337e-05
7.77834e-05
7.69377e-05
7.58098e-05
7.44108e-05
7.27529e-05
7.08484e-05
6.87095e-05
6.63483e-05
6.37763e-05
6.10048e-05
5.80443e-05
5.4905e-05
5.15965e-05
4.8128e-05
4.45084e-05
4.07461e-05
3.68492e-05
3.28255e-05
2.86824e-05
2.44264e-05
2.00635e-05
1.55981e-05
1.10323e-05
6.36183e-06
1.54723e-06
0.00133557
0.00129112
0.0012424
0.00118917
0.00113178
0.00107147
0.0010097
0.000947779
0.000886824
0.000827763
0.000771342
0.000718116
0.00066845
0.000622532
0.000580398
0.000541965
0.000507055
0.000475427
0.000446802
0.000420881
0.000397368
0.000375977
0.000356441
0.000338518
0.000321994
0.000306679
0.000292409
0.000279044
0.000266462
0.000254562
0.000243258
0.000232476
0.000222155
0.000212245
0.000202704
0.000193496
0.000184595
0.000175978
0.00016763
0.000159539
0.000151698
0.000144105
0.000136763
0.000129675
0.000122854
0.000116311
0.000110063
0.000104132
9.85417e-05
9.33186e-05
8.84927e-05
8.40959e-05
8.01608e-05
7.67195e-05
7.38008e-05
7.14279e-05
6.96149e-05
6.83629e-05
6.76576e-05
6.74666e-05
6.77392e-05
6.84086e-05
6.93949e-05
7.06112e-05
7.19684e-05
7.33808e-05
7.47697e-05
7.6066e-05
7.72117e-05
7.81604e-05
7.88769e-05
7.93363e-05
7.95224e-05
7.94266e-05
7.90463e-05
7.83833e-05
7.74431e-05
7.62337e-05
7.47644e-05
7.30459e-05
7.10891e-05
6.89051e-05
6.65049e-05
6.38994e-05
6.1099e-05
5.81137e-05
5.49531e-05
5.16266e-05
4.81428e-05
4.45105e-05
4.07376e-05
3.68322e-05
3.28016e-05
2.8653e-05
2.4393e-05
2.00274e-05
1.55606e-05
1.09954e-05
6.32968e-06
1.53116e-06
0.00130414
0.00126241
0.00121705
0.00116775
0.00111466
0.00105882
0.00100149
0.000943802
0.000886749
0.000831166
0.000777744
0.000727013
0.000679341
0.000634943
0.000593899
0.000556176
0.000521657
0.000490158
0.000461456
0.000435304
0.000411447
0.000389636
0.000369635
0.000351225
0.000334207
0.000318405
0.000303663
0.000289847
0.00027684
0.00026454
0.000252864
0.000241737
0.000231098
0.000220895
0.000211085
0.000201633
0.000192508
0.000183689
0.000175158
0.000166901
0.000158911
0.000151184
0.00014372
0.000136524
0.000129603
0.00012297
0.000116639
0.000110628
0.000104959
9.9657e-05
9.47478e-05
9.02599e-05
8.62219e-05
8.26615e-05
7.96034e-05
7.70664e-05
7.50612e-05
7.35869e-05
7.26285e-05
7.21556e-05
7.21216e-05
7.24655e-05
7.31152e-05
7.39915e-05
7.50133e-05
7.61014e-05
7.71827e-05
7.81918e-05
7.90736e-05
7.97826e-05
8.0284e-05
8.05518e-05
8.05688e-05
8.03245e-05
7.98143e-05
7.90383e-05
7.79999e-05
7.67051e-05
7.51619e-05
7.33792e-05
7.13667e-05
6.91344e-05
6.66924e-05
6.40506e-05
6.12188e-05
5.82064e-05
5.50225e-05
5.16759e-05
4.81751e-05
4.45283e-05
4.07433e-05
3.68278e-05
3.2789e-05
2.86339e-05
2.43688e-05
1.99996e-05
1.55309e-05
1.09661e-05
6.30527e-06
1.52172e-06
0.00127483
0.00123556
0.00119322
0.00114741
0.00109817
0.00104636
0.000993051
0.000939242
0.0008858
0.000833477
0.000782906
0.000734589
0.000688889
0.000646037
0.000606145
0.000569224
0.000535203
0.00050395
0.000475289
0.000449019
0.000424926
0.000402795
0.000382416
0.000363594
0.000346149
0.000329916
0.00031475
0.000300523
0.000287123
0.000274452
0.000262426
0.000250972
0.00024003
0.000229546
0.000219478
0.000209788
0.000200446
0.000191428
0.000182716
0.000174295
0.000166156
0.000158294
0.000150708
0.000143401
0.000136378
0.000129651
0.000123231
0.000117136
0.000111383
0.000105996
0.000100998
9.64123e-05
9.22654e-05
8.85808e-05
8.5379e-05
8.26755e-05
8.04778e-05
7.87833e-05
7.75768e-05
7.68294e-05
7.64983e-05
7.65279e-05
7.68526e-05
7.74006e-05
7.80975e-05
7.88705e-05
7.96514e-05
8.0379e-05
8.10004e-05
8.14716e-05
8.17581e-05
8.18335e-05
8.16794e-05
8.1284e-05
8.06409e-05
7.97483e-05
7.8608e-05
7.72243e-05
7.56035e-05
7.37532e-05
7.16818e-05
6.93982e-05
6.69114e-05
6.42307e-05
6.1365e-05
5.83231e-05
5.51137e-05
5.1745e-05
4.82253e-05
4.45623e-05
4.07636e-05
3.68365e-05
3.27882e-05
2.86253e-05
2.43541e-05
1.99804e-05
1.55091e-05
1.09444e-05
6.28788e-06
1.51751e-06
0.00124741
0.0012104
0.00117078
0.00112809
0.00108231
0.00103412
0.000984469
0.00093421
0.000884108
0.000834833
0.000786965
0.000740972
0.000697207
0.00065591
0.000617215
0.000581167
0.000547735
0.000516828
0.000488313
0.000462029
0.000437799
0.000415438
0.000394765
0.000375606
0.000357798
0.00034119
0.000325649
0.000311052
0.000297293
0.000284279
0.000271927
0.000260167
0.000248937
0.000238186
0.00022787
0.000217951
0.000208398
0.000199187
0.000190297
0.000181714
0.000173427
0.00016543
0.000157721
0.000150301
0.000143174
0.000136348
0.000129836
0.000123651
0.000117811
0.000112333
0.000107239
0.000102551
9.82904e-05
9.44769e-05
9.1128e-05
8.8256e-05
8.58659e-05
8.39534e-05
8.25035e-05
8.14888e-05
8.08696e-05
8.05953e-05
8.06061e-05
8.08366e-05
8.12188e-05
8.16856e-05
8.21735e-05
8.26249e-05
8.29896e-05
8.32252e-05
8.32975e-05
8.31799e-05
8.28532e-05
8.23043e-05
8.15254e-05
8.05131e-05
7.92676e-05
7.77915e-05
7.60898e-05
7.41685e-05
7.2035e-05
6.96969e-05
6.71626e-05
6.44402e-05
6.1538e-05
5.84643e-05
5.52272e-05
5.18345e-05
4.82939e-05
4.4613e-05
4.07989e-05
3.68588e-05
3.27995e-05
2.86276e-05
2.43491e-05
1.997e-05
1.54953e-05
1.09299e-05
6.2769e-06
1.51761e-06
0.00122171
0.00118676
0.00114959
0.00110972
0.00106705
0.00102214
0.000975808
0.0009288
0.000881784
0.000835357
0.000790043
0.000746278
0.000704401
0.000664653
0.000627184
0.000592064
0.000559294
0.000528819
0.000500543
0.000474338
0.000450061
0.000427557
0.000406668
0.000387243
0.000369135
0.000352208
0.000336338
0.000321413
0.000307331
0.000294003
0.000281351
0.000269304
0.000257805
0.000246801
0.000236248
0.00022611
0.000216353
0.000206954
0.000197891
0.000189149
0.000180716
0.000172585
0.000164752
0.000157217
0.000149983
0.000143058
0.00013645
0.000130172
0.000124238
0.000118665
0.000113471
0.000108675
0.000104295
0.000100349
9.68504e-05
9.38084e-05
9.12262e-05
8.90984e-05
8.74097e-05
8.61344e-05
8.52357e-05
8.46672e-05
8.43746e-05
8.4298e-05
8.43752e-05
8.45442e-05
8.47462e-05
8.49271e-05
8.5039e-05
8.50413e-05
8.49003e-05
8.45894e-05
8.40889e-05
8.33845e-05
8.24673e-05
8.13325e-05
7.99785e-05
7.84068e-05
7.66208e-05
7.46254e-05
7.24266e-05
7.00312e-05
6.74464e-05
6.46796e-05
6.17385e-05
5.86307e-05
5.53637e-05
5.19449e-05
4.83815e-05
4.46808e-05
4.08497e-05
3.6895e-05
3.28233e-05
2.8641e-05
2.43541e-05
1.99685e-05
1.54895e-05
1.09226e-05
6.27186e-06
1.52139e-06
0.00119757
0.00116451
0.00112957
0.00109225
0.00105237
0.00101043
0.000967123
0.000923093
0.000878927
0.000835155
0.000792251
0.000750615
0.00071057
0.000672354
0.000636126
0.000601975
0.000569927
0.000539956
0.000511998
0.000485956
0.000461714
0.000439144
0.000418114
0.00039849
0.000380143
0.000362951
0.000346801
0.000331588
0.000317218
0.000303608
0.00029068
0.00027837
0.00026662
0.000255378
0.000244602
0.000234253
0.000224302
0.000214721
0.00020549
0.000196592
0.000188015
0.000179751
0.000171794
0.000164144
0.000156802
0.000149774
0.000143067
0.000136692
0.000130661
0.000124988
0.00011969
0.000114782
0.00011028
0.000106197
0.000102546
9.93331e-05
9.65595e-05
9.42189e-05
9.22961e-05
9.07666e-05
8.95966e-05
8.87432e-05
8.81569e-05
8.7783e-05
8.75644e-05
8.7444e-05
8.73671e-05
8.72829e-05
8.71461e-05
8.69176e-05
8.65645e-05
8.60605e-05
8.53852e-05
8.45238e-05
8.3466e-05
8.22059e-05
8.07406e-05
7.90702e-05
7.71969e-05
7.51242e-05
7.28571e-05
7.04014e-05
6.77633e-05
6.49495e-05
6.1967e-05
5.88227e-05
5.55236e-05
5.20766e-05
4.84885e-05
4.47663e-05
4.09165e-05
3.69456e-05
3.286e-05
2.86659e-05
2.43693e-05
1.99761e-05
1.54918e-05
1.09223e-05
6.27238e-06
1.52841e-06
0.00117484
0.00114353
0.00111062
0.00107559
0.00103826
0.000999013
0.000958456
0.000917156
0.000875623
0.000834326
0.00079369
0.000754083
0.000715807
0.000679096
0.000644112
0.000610957
0.000579678
0.000550272
0.0005227
0.000496893
0.000472761
0.000450198
0.000429095
0.000409336
0.000390808
0.000373404
0.000357019
0.00034156
0.000326939
0.000313076
0.000299901
0.00028735
0.000275367
0.000263903
0.000252917
0.00024237
0.000232233
0.000222478
0.000213084
0.000204035
0.000195317
0.000186921
0.000178841
0.000171075
0.000163624
0.000156491
0.000149683
0.000143208
0.000137076
0.0001313
0.000125894
0.00012087
0.000116241
0.00011202
0.000108214
0.00010483
0.000101866
9.93156e-05
9.71632e-05
9.53859e-05
9.3952e-05
9.28226e-05
9.19519e-05