/*--------------------------------*- C++ -*----------------------------------*\
| =========                 |                                                 |
| \\      /  F ield         | OpenFOAM: The Open Source CFD Toolbox           |
|  \\    /   O peration     | Version:  2.3.0                                 |
|   \\  /    A nd           | Web:      www.OpenFOAM.org                      |
|    \\/     M anipulation  |                                                 |
\*---------------------------------------------------------------------------*/
FoamFile
{
    version     2.0;
    format      ascii;
    class       surfaceScalarField;
    location    "0.2";
    object      phi_0;
}
// * * * * * * * * * * * * * * * * * * * * * * * * * * * * * * * * * * * * * //

dimensions      [0 3 -1 0 0 0 0];

internalField   nonuniform List<scalar> 
5764
(
1.78706e-08
5.91351e-09
-2.37841e-08
1.25623e-08
5.30831e-09
8.97518e-09
3.58715e-09
6.9298e-09
2.04538e-09
5.86596e-09
1.06384e-09
5.29815e-09
5.67812e-10
4.93698e-09
3.61167e-10
4.65219e-09
2.84793e-10
4.40271e-09
2.49475e-10
4.18098e-09
2.21732e-10
3.98552e-09
1.9546e-10
3.81365e-09
1.71873e-10
3.66174e-09
1.51907e-10
3.52641e-09
1.35334e-10
3.40493e-09
1.21479e-10
3.29523e-09
1.09699e-10
3.19572e-09
9.95064e-11
3.10517e-09
9.05519e-11
3.02258e-09
8.25865e-11
2.94716e-09
7.54264e-11
2.87823e-09
6.89302e-11
2.81524e-09
6.29844e-11
2.75775e-09
5.74956e-11
2.70536e-09
5.23853e-11
2.65777e-09
4.75872e-11
2.61473e-09
4.30453e-11
2.57601e-09
3.87137e-11
2.54146e-09
3.45532e-11
2.51093e-09
3.05283e-11
2.48433e-09
2.66026e-11
2.46159e-09
2.27411e-11
2.44267e-09
1.89222e-11
2.42751e-09
1.51592e-11
2.41599e-09
1.15207e-11
2.40785e-09
8.13448e-12
2.40269e-09
5.16347e-12
2.39994e-09
2.75299e-12
2.39896e-09
9.80141e-13
2.39912e-09
-1.67259e-13
2.39992e-09
-7.92214e-13
2.40099e-09
-1.06918e-12
2.40215e-09
-1.16404e-12
2.40336e-09
-1.2083e-12
2.40463e-09
-1.275e-12
2.40602e-09
-1.38552e-12
2.40755e-09
-1.52898e-12
2.40921e-09
-1.66237e-12
2.41098e-09
-1.77348e-12
2.41283e-09
-1.84519e-12
2.4147e-09
-1.86965e-12
2.41656e-09
-1.8612e-12
2.41838e-09
-1.82184e-12
2.42014e-09
-1.75541e-12
2.42181e-09
-1.67002e-12
2.42338e-09
-1.57031e-12
2.42484e-09
-1.46369e-12
2.4262e-09
-1.35757e-12
2.42745e-09
-1.25572e-12
2.42861e-09
-1.15809e-12
2.42967e-09
-1.06151e-12
2.43064e-09
-9.62586e-13
2.4315e-09
-8.60195e-13
2.43225e-09
-7.56184e-13
2.43291e-09
-6.54535e-13
2.43347e-09
-5.59511e-13
2.43394e-09
-4.74213e-13
2.43434e-09
-3.99926e-13
2.43468e-09
-3.36416e-13
2.43496e-09
-2.82325e-13
2.4352e-09
-2.36714e-13
2.43539e-09
-1.97039e-13
2.43556e-09
-1.6657e-13
2.4357e-09
-1.36535e-13
2.43581e-09
-1.13175e-13
-1.06781e-13
2.74692e-08
5.93302e-09
-2.74887e-08
2.59006e-08
6.87694e-09
2.34399e-08
6.04788e-09
2.09351e-08
4.55019e-09
1.87895e-08
3.20941e-09
1.70793e-08
2.27801e-09
1.57416e-08
1.69881e-09
1.46823e-08
1.34413e-09
1.38194e-08
1.11234e-09
1.30955e-08
9.45662e-10
1.24737e-08
8.17208e-10
1.19308e-08
7.14768e-10
1.14512e-08
6.31583e-10
1.10235e-08
5.62968e-10
1.06396e-08
5.05431e-10
1.02929e-08
4.56391e-10
9.97844e-09
4.13956e-10
9.69226e-09
3.76732e-10
9.43117e-09
3.43678e-10
9.1926e-09
3.14003e-10
8.97444e-09
2.87091e-10
8.77497e-09
2.62447e-10
8.5928e-09
2.39672e-10
8.42675e-09
2.18434e-10
8.27588e-09
1.98456e-10
8.13941e-09
1.79513e-10
8.0167e-09
1.61421e-10
7.90722e-09
1.44032e-10
7.81053e-09
1.2722e-10
7.72625e-09
1.10885e-10
7.65403e-09
9.49593e-11
7.5935e-09
7.94506e-11
7.54417e-09
6.44923e-11
7.50531e-09
5.03793e-11
7.4759e-09
3.75464e-11
7.45459e-09
2.64739e-11
7.4398e-09
1.75388e-11
7.4299e-09
1.08799e-11
7.4234e-09
6.33207e-12
7.41913e-09
3.48403e-12
7.41628e-09
1.77985e-12
7.41443e-09
6.88123e-13
7.4134e-09
-1.80041e-13
7.41317e-09
-1.04258e-12
7.41373e-09
-1.95225e-12
7.41508e-09
-2.87202e-12
7.41711e-09
-3.69165e-12
7.41971e-09
-4.37387e-12
7.42274e-09
-4.88142e-12
7.42608e-09
-5.20435e-12
7.4296e-09
-5.38329e-12
7.43321e-09
-5.4333e-12
7.43683e-09
-5.37229e-12
7.44038e-09
-5.22555e-12
7.44382e-09
-5.00967e-12
7.4471e-09
-4.74569e-12
7.4502e-09
-4.45369e-12
7.45309e-09
-4.1458e-12
7.45576e-09
-3.82655e-12
7.45819e-09
-3.49497e-12
7.46038e-09
-3.1508e-12
7.46232e-09
-2.79886e-12
7.46401e-09
-2.44953e-12
7.46547e-09
-2.11589e-12
7.46672e-09
-1.80947e-12
7.46779e-09
-1.53728e-12
7.46869e-09
-1.3011e-12
7.46945e-09
-1.09876e-12
7.47009e-09
-9.25705e-13
7.47064e-09
-7.78174e-13
7.47109e-09
-6.50168e-13
7.47147e-09
-5.48108e-13
7.47178e-09
-4.48938e-13
7.47206e-09
-3.94486e-13
-3.12419e-13
2.89346e-08
5.17792e-09
-2.81795e-08
2.95064e-08
6.30518e-09
2.93431e-08
6.21112e-09
2.85248e-08
5.36859e-09
2.735e-08
4.38419e-09
2.60662e-08
3.56175e-09
2.48126e-08
2.95245e-09
2.36479e-08
2.50888e-09
2.2587e-08
2.17322e-09
2.16266e-08
1.90606e-09
2.07577e-08
1.68613e-09
1.99703e-08
1.50211e-09
1.92552e-08
1.34671e-09
1.86039e-08
1.21429e-09
1.8009e-08
1.10031e-09
1.74642e-08
1.00117e-09
1.69642e-08
9.14002e-10
1.65043e-08
8.36585e-10
1.60809e-08
7.67142e-10
1.56906e-08
7.0426e-10
1.53309e-08
6.46796e-10
1.49995e-08
5.93817e-10
1.46947e-08
5.44545e-10
1.44148e-08
4.98332e-10
1.41586e-08
4.54637e-10
1.39251e-08
4.13015e-10
1.37134e-08
3.73104e-10
1.35228e-08
3.3462e-10
1.33527e-08
2.9734e-10
1.32025e-08
2.61109e-10
1.30716e-08
2.25864e-10
1.29593e-08
1.917e-10
1.28649e-08
1.58944e-10
1.2787e-08
1.28197e-10
1.27243e-08
1.00277e-10
1.26747e-08
7.60462e-11
1.26361e-08
5.61535e-11
1.26062e-08
4.08104e-11
1.25828e-08
2.96854e-11
1.25643e-08
2.19955e-11
1.25494e-08
1.67102e-11
1.25373e-08
1.28339e-11
1.25275e-08
9.60976e-12
1.25198e-08
6.60361e-12
1.25142e-08
3.6822e-12
1.25104e-08
8.84668e-13
1.25083e-08
-1.61113e-12
1.25077e-08
-3.74551e-12
1.25083e-08
-5.46124e-12
1.25098e-08
-6.7485e-12
1.25121e-08
-7.68572e-12
1.2515e-08
-8.31074e-12
1.25183e-08
-8.66658e-12
1.25219e-08
-8.80348e-12
1.25256e-08
-8.75291e-12
1.25294e-08
-8.54988e-12
1.25332e-08
-8.22613e-12
1.25369e-08
-7.80325e-12
1.25403e-08
-7.29561e-12
1.25436e-08
-6.71426e-12
1.25465e-08
-6.07516e-12
1.25491e-08
-5.40306e-12
1.25514e-08
-4.72929e-12
1.25533e-08
-4.08526e-12
1.2555e-08
-3.4953e-12
1.25565e-08
-2.97273e-12
1.25577e-08
-2.52005e-12
1.25587e-08
-2.13214e-12
1.25596e-08
-1.80004e-12
1.25603e-08
-1.51574e-12
1.25609e-08
-1.26919e-12
1.25615e-08
-1.06894e-12
1.25619e-08
-8.76384e-13
1.25623e-08
-7.91578e-13
-5.76165e-13
2.9493e-08
4.69863e-09
-2.90137e-08
3.01697e-08
5.62846e-09
3.06977e-08
5.68319e-09
3.08903e-08
5.17598e-09
3.07486e-08
4.52588e-09
3.03589e-08
3.95144e-09
2.98129e-08
3.49843e-09
2.91783e-08
3.14349e-09
2.84981e-08
2.85336e-09
2.77996e-08
2.60463e-09
2.71005e-08
2.38516e-09
2.64133e-08
2.1894e-09
2.57458e-08
2.01414e-09
2.51033e-08
1.85677e-09
2.44888e-08
1.71487e-09
2.39037e-08
1.58628e-09
2.33485e-08
1.46914e-09
2.28233e-08
1.36181e-09
2.23275e-08
1.2629e-09
2.18606e-08
1.17119e-09
2.14218e-08
1.08563e-09
2.10103e-08
1.00528e-09
2.06255e-08
9.29339e-10
2.02668e-08
8.57087e-10
1.99335e-08
7.87903e-10
1.96253e-08
7.21264e-10
1.93416e-08
6.5674e-10
1.90822e-08
5.93997e-10
1.88468e-08
5.32797e-10
1.86349e-08
4.73008e-10
1.84461e-08
4.14649e-10
1.82798e-08
3.57971e-10
1.81352e-08
3.03546e-10
1.80111e-08
2.52301e-10
1.7906e-08
2.05436e-10
1.78178e-08
1.64186e-10
1.77445e-08
1.29489e-10
1.76836e-08
1.01687e-10
1.76329e-08
8.03775e-11
1.75904e-08
6.45103e-11
1.75545e-08
5.26603e-11
1.75239e-08
4.33967e-11
1.74979e-08
3.55749e-11
1.7476e-08
2.84854e-11
1.74579e-08
2.18437e-11
1.74431e-08
1.56467e-11
1.74314e-08
1.00595e-11
1.74225e-08
5.17964e-12
1.7416e-08
1.05975e-12
1.74115e-08
-2.27645e-12
1.74088e-08
-4.95128e-12
1.74075e-08
-7.03067e-12
1.74074e-08
-8.59391e-12
1.74084e-08
-9.73056e-12
1.74101e-08
-1.04952e-11
1.74125e-08
-1.0938e-11
1.74154e-08
-1.1094e-11
1.74185e-08
-1.09807e-11
1.74219e-08
-1.06109e-11
1.74252e-08
-1.0005e-11
1.74283e-08
-9.20428e-12
1.74312e-08
-8.27183e-12
1.74337e-08
-7.28278e-12
1.74359e-08
-6.30859e-12
1.74378e-08
-5.40312e-12
1.74395e-08
-4.59653e-12
1.74408e-08
-3.89714e-12
1.7442e-08
-3.29842e-12
1.7443e-08
-2.78655e-12
1.74438e-08
-2.34833e-12
1.74445e-08
-1.96866e-12
1.74451e-08
-1.65737e-12
1.74456e-08
-1.35983e-12
1.7446e-08
-1.24777e-12
-8.65326e-13
3.0336e-08
4.36243e-09
-2.99998e-08
3.08037e-08
5.16072e-09
3.12456e-08
5.24132e-09
3.15696e-08
4.85196e-09
3.17519e-08
4.34359e-09
3.18037e-08
3.8997e-09
3.17466e-08
3.55551e-09
3.16005e-08
3.28954e-09
3.13805e-08
3.07334e-09
3.10989e-08
2.88628e-09
3.0767e-08
2.71701e-09
3.0396e-08
2.5604e-09
2.9996e-08
2.41414e-09
2.9576e-08
2.27684e-09
2.91434e-08
2.14742e-09
2.87047e-08
2.025e-09
2.8265e-08
1.90882e-09
2.78286e-08
1.79821e-09
2.7399e-08
1.69256e-09
2.69789e-08
1.5913e-09
2.65706e-08
1.49391e-09
2.6176e-08
1.39986e-09
2.57967e-08
1.30867e-09
2.54339e-08
1.21988e-09
2.50887e-08
1.13306e-09
2.47621e-08
1.04786e-09
2.44549e-08
9.63967e-10
2.41677e-08
8.8118e-10
2.39011e-08
7.99383e-10
2.36556e-08
7.18597e-10
2.34312e-08
6.39032e-10
2.3228e-08
5.61183e-10
2.30456e-08
4.85917e-10
2.28834e-08
4.14502e-10
2.27403e-08
3.48492e-10
2.26151e-08
2.89456e-10
2.25059e-08
2.38603e-10
2.24112e-08
1.96442e-10
2.2329e-08
1.62611e-10
2.22575e-08
1.35968e-10
2.21953e-08
1.14889e-10
2.2141e-08
9.76742e-11
2.20937e-08
8.29032e-11
2.20525e-08
6.96282e-11
2.2017e-08
5.73941e-11
2.19865e-08
4.61053e-11
2.19607e-08
3.58734e-11
2.19391e-08
2.6793e-11
2.19212e-08
1.89103e-11
2.19067e-08
1.22207e-11
2.18952e-08
6.599e-12
2.18862e-08
1.94098e-12
2.18795e-08
-1.86016e-12
2.18747e-08
-4.94963e-12
2.18716e-08
-7.42823e-12
2.18701e-08
-9.38272e-12
2.18698e-08
-1.08554e-11
2.18707e-08
-1.18395e-11
2.18724e-08
-1.23102e-11
2.18747e-08
-1.22597e-11
2.18772e-08
-1.17328e-11
2.18797e-08
-1.08326e-11
2.18822e-08
-9.70065e-12
2.18843e-08
-8.48189e-12
2.18862e-08
-7.29361e-12
2.18878e-08
-6.20945e-12
2.18892e-08
-5.26049e-12
2.18904e-08
-4.4472e-12
2.18913e-08
-3.7538e-12
2.18921e-08
-3.16192e-12
2.18928e-08
-2.65054e-12
2.18934e-08
-2.22968e-12
2.18939e-08
-1.82868e-12
2.18943e-08
-1.69457e-12
-1.13712e-12
3.1295e-08
4.0777e-09
-3.10103e-08
3.16697e-08
4.78604e-09
3.20053e-08
4.90572e-09
3.22511e-08
4.60618e-09
3.24162e-08
4.17846e-09
3.25236e-08
3.79234e-09
3.25898e-08
3.48935e-09
3.26221e-08
3.25718e-09
3.26214e-08
3.07403e-09
3.25858e-08
2.92187e-09
3.25141e-08
2.78877e-09
3.24066e-08
2.66793e-09
3.22652e-08
2.55554e-09
3.20928e-08
2.44921e-09
3.18929e-08
2.34726e-09
3.16694e-08
2.24851e-09
3.14261e-08
2.15214e-09
3.11668e-08
2.05755e-09
3.0895e-08
1.96431e-09
3.06143e-08
1.87204e-09
3.03277e-08
1.78046e-09
3.00383e-08
1.6893e-09
2.97486e-08
1.59831e-09
2.94613e-08
1.50726e-09
2.91784e-08
1.41594e-09
2.89021e-08
1.32418e-09
2.86341e-08
1.23189e-09
2.83763e-08
1.13902e-09
2.813e-08
1.04565e-09
2.78966e-08
9.52021e-10
2.76771e-08
8.58564e-10
2.74722e-08
7.6605e-10
2.72825e-08
6.75655e-10
2.7108e-08
5.88972e-10
2.69486e-08
5.07874e-10
2.68039e-08
4.34218e-10
2.6673e-08
3.69453e-10
2.65552e-08
3.14261e-10
2.64494e-08
2.6839e-10
2.63546e-08
2.30735e-10
2.62699e-08
1.99651e-10
2.61942e-08
1.73368e-10
2.61267e-08
1.50366e-10
2.60668e-08
1.29585e-10
2.60137e-08
1.1047e-10
2.59669e-08
9.28585e-11
2.5926e-08
7.68096e-11
2.58904e-08
6.23968e-11
2.58597e-08
4.96424e-11
2.58334e-08
3.85087e-11
2.58111e-08
2.88655e-11
2.57924e-08
2.05962e-11
2.5777e-08
1.35761e-11
2.57644e-08
7.63039e-12
2.57544e-08
2.58702e-12
2.57468e-08
-1.71763e-12
2.57413e-08
-5.37742e-12
2.57378e-08
-8.37358e-12
2.57361e-08
-1.06125e-11
2.57358e-08
-1.19952e-11
2.57366e-08
-1.25012e-11
2.5738e-08
-1.22268e-11
2.57397e-08
-1.13691e-11
2.57414e-08
-1.0169e-11
2.57429e-08
-8.84751e-12
2.57443e-08
-7.56441e-12
2.57454e-08
-6.40726e-12
2.57464e-08
-5.405e-12
2.57472e-08
-4.55064e-12
2.57478e-08
-3.82449e-12
2.57484e-08
-3.20011e-12
2.57488e-08
-2.6866e-12
2.57492e-08
-2.19837e-12
2.57496e-08
-2.04934e-12
-1.33794e-12
3.228e-08
3.83049e-09
-3.20328e-08
3.26099e-08
4.45616e-09
3.29055e-08
4.61018e-09
3.31141e-08
4.39751e-09
3.3245e-08
4.04756e-09
3.33263e-08
3.71103e-09
3.33814e-08
3.43432e-09
3.34235e-08
3.21502e-09
3.34577e-08
3.03986e-09
3.34835e-08
2.89607e-09
3.34984e-08
2.77382e-09
3.34999e-08
2.66649e-09
3.34856e-08
2.5698e-09
3.34541e-08
2.4807e-09
3.34046e-08
2.39683e-09
3.33367e-08
2.31641e-09
3.32508e-08
2.23804e-09
3.31476e-08
2.16067e-09
3.30285e-08
2.08349e-09
3.28946e-08
2.00586e-09
3.27478e-08
1.92727e-09
3.25898e-08
1.84732e-09
3.24225e-08
1.76566e-09
3.22477e-08
1.68203e-09
3.20674e-08
1.5962e-09
3.18836e-08
1.50805e-09
3.1698e-08
1.41749e-09
3.15124e-08
1.32458e-09
3.13286e-08
1.22949e-09
3.1148e-08
1.13254e-09
3.09723e-08
1.03433e-09
3.08025e-08
9.35818e-10
3.06398e-08
8.38386e-10
3.04849e-08
7.43858e-10
3.03384e-08
6.54343e-10
3.02007e-08
5.71917e-10
3.0072e-08
4.98219e-10
2.99521e-08
4.34091e-10
2.98411e-08
3.79404e-10
2.97387e-08
3.33147e-10
2.96446e-08
2.93744e-10
2.95585e-08
2.5948e-10
2.948e-08
2.28863e-10
2.94087e-08
2.00849e-10
2.93443e-08
1.74888e-10
2.92864e-08
1.50819e-10
2.92345e-08
1.28708e-10
2.91882e-08
1.08638e-10
2.91472e-08
9.06238e-11
2.91111e-08
7.45994e-11
2.90796e-08
6.04211e-11
2.90522e-08
4.79721e-11
2.90286e-08
3.71472e-11
2.90085e-08
2.77835e-11
2.89914e-08
1.96571e-11
2.89772e-08
1.25027e-11
2.89657e-08
6.11988e-12
2.89569e-08
4.77102e-13
2.89505e-08
-4.29016e-12
2.89465e-08
-7.95784e-12
2.89444e-08
-1.03577e-11
2.89436e-08
-1.14872e-11
2.89438e-08
-1.15331e-11
2.89444e-08
-1.08092e-11
2.89452e-08
-9.65678e-12
2.8946e-08
-8.35996e-12
2.89467e-08
-7.10504e-12
2.89473e-08
-5.98322e-12
2.89478e-08
-5.01776e-12
2.89481e-08
-4.19858e-12
2.89484e-08
-3.49806e-12
2.89487e-08
-2.92428e-12
2.89489e-08
-2.38016e-12
2.8949e-08
-2.22523e-12
-1.41002e-12
3.32876e-08
3.61598e-09
-3.30731e-08
3.3579e-08
4.1648e-09
3.38498e-08
4.33937e-09
3.40477e-08
4.19959e-09
3.41733e-08
3.92199e-09
3.42482e-08
3.63614e-09
3.42935e-08
3.38901e-09
3.43239e-08
3.18457e-09
3.43479e-08
3.0159e-09
3.4369e-08
2.87498e-09
3.43881e-08
2.7547e-09
3.44049e-08
2.64971e-09
3.44184e-08
2.55629e-09
3.44274e-08
2.47166e-09
3.44307e-08
2.39358e-09
3.44269e-08
2.32017e-09
3.44151e-08
2.24989e-09
3.43943e-08
2.18146e-09
3.4364e-08
2.11382e-09
3.43238e-08
2.04606e-09
3.42736e-08
1.97743e-09
3.42136e-08
1.90728e-09
3.41443e-08
1.83504e-09
3.4066e-08
1.76027e-09
3.39796e-08
1.68257e-09
3.3886e-08
1.60169e-09
3.3786e-08
1.51746e-09
3.36808e-08
1.42985e-09
3.35713e-08
1.33896e-09
3.34587e-08
1.24511e-09
3.33441e-08
1.14889e-09
3.32287e-08
1.05125e-09
3.31135e-08
9.53645e-10
3.29994e-08
8.57959e-10
3.28873e-08
7.66398e-10
3.27781e-08
6.8115e-10
3.26723e-08
6.03971e-10
3.25706e-08
5.35817e-10
3.24733e-08
4.76661e-10
3.23809e-08
4.2558e-10
3.22936e-08
3.81076e-10
3.22115e-08
3.41506e-10
3.21349e-08
3.05456e-10
3.20638e-08
2.71954e-10
3.19982e-08
2.40517e-10
3.1938e-08
2.11053e-10
3.1883e-08
1.83692e-10
3.1833e-08
1.58587e-10
3.17879e-08
1.3579e-10
3.17472e-08
1.15231e-10
3.17109e-08
9.67546e-11
3.16786e-08
8.02407e-11
3.16502e-08
6.5622e-11
3.16252e-08
5.27934e-11
3.16033e-08
4.15395e-11
3.15843e-08
3.1519e-11
3.1568e-08
2.23883e-11
3.15545e-08
1.3986e-11
3.15438e-08
6.42499e-12
3.15358e-08
3.06217e-14
3.15303e-08
-4.85198e-12
3.15268e-08
-8.0425e-12
3.15249e-08
-9.62249e-12
3.1524e-08
-9.90707e-12
3.15237e-08
-9.32678e-12
3.15236e-08
-8.29633e-12
3.15236e-08
-7.12815e-12
3.15237e-08
-6.00796e-12
3.15237e-08
-5.01579e-12
3.15236e-08
-4.16818e-12
3.15236e-08
-3.44557e-12
3.15235e-08
-2.85713e-12
3.15234e-08
-2.30104e-12
3.15234e-08
-2.1515e-12
-1.30476e-12
3.43214e-08
3.42837e-09
-3.41338e-08
3.45776e-08
3.90863e-09
3.4824e-08
4.0929e-09
3.50129e-08
4.0107e-09
3.51395e-08
3.79538e-09
3.52191e-08
3.55658e-09
3.52682e-08
3.33995e-09
3.52991e-08
3.15361e-09
3.53201e-08
2.99492e-09
3.53358e-08
2.85931e-09
3.53486e-08
2.74188e-09
3.53599e-08
2.63844e-09
3.53702e-08
2.54591e-09
3.53799e-08
2.46197e-09
3.53888e-08
2.38472e-09
3.53964e-08
2.31253e-09
3.54023e-08
2.24401e-09
3.54058e-08
2.17798e-09
3.54062e-08
2.11339e-09
3.54029e-08
2.04935e-09
3.53953e-08
1.98502e-09
3.53829e-08
1.91968e-09
3.53653e-08
1.85267e-09
3.53421e-08
1.78342e-09
3.53133e-08
1.71143e-09
3.52786e-08
1.63633e-09
3.52383e-08
1.55784e-09
3.51923e-08
1.47581e-09
3.5141e-08
1.39027e-09
3.50847e-08
1.30142e-09
3.50238e-08
1.20974e-09
3.4959e-08
1.11611e-09
3.48908e-08
1.02185e-09
3.48199e-08
9.28807e-10
3.47472e-08
8.39132e-10
3.46733e-08
7.55014e-10
3.45991e-08
6.78246e-10
3.4525e-08
6.09839e-10
3.44519e-08
5.49828e-10
3.43801e-08
4.97339e-10
3.43103e-08
4.50911e-10
3.42428e-08
4.08934e-10
3.41783e-08
3.7004e-10
3.41169e-08
3.33322e-10
3.4059e-08
2.98374e-10
3.40049e-08
2.65195e-10
3.39546e-08
2.34014e-10
3.39081e-08
2.05088e-10
3.38653e-08
1.78555e-10
3.38262e-08
1.5438e-10
3.37905e-08
1.32404e-10
3.37582e-08
1.12499e-10
3.37292e-08
9.46274e-11
3.37033e-08
7.87601e-11
3.36801e-08
6.47436e-11
3.36594e-08
5.222e-11
3.3641e-08
4.07286e-11
3.36251e-08
2.99444e-11
3.36116e-08
1.98709e-11
3.36008e-08
1.08546e-11
3.35926e-08
3.39552e-12
3.35866e-08
-2.11996e-12
3.35826e-08
-5.60641e-12
3.358e-08
-7.30119e-12
3.35783e-08
-7.65903e-12
3.35772e-08
-7.19064e-12
3.35764e-08
-6.32913e-12
3.35758e-08
-5.36732e-12
3.35752e-08
-4.46051e-12
3.35747e-08
-3.66813e-12
3.35743e-08
-2.99012e-12
3.35739e-08
-2.44101e-12
3.35735e-08
-1.92371e-12
3.35731e-08
-1.79372e-12
-9.9628e-13
3.53821e-08
3.26268e-09
-3.52164e-08
3.56076e-08
3.68311e-09
3.58309e-08
3.86961e-09
3.60094e-08
3.83223e-09
3.61352e-08
3.66955e-09
3.62191e-08
3.47274e-09
3.6274e-08
3.28504e-09
3.63101e-08
3.11745e-09
3.63346e-08
2.97046e-09
3.63518e-08
2.84212e-09
3.63643e-08
2.72934e-09
3.63738e-08
2.62892e-09
3.63814e-08
2.53829e-09
3.63879e-08
2.45549e-09
3.63938e-08
2.37887e-09
3.63993e-08
2.30704e-09
3.64045e-08
2.23878e-09
3.64094e-08
2.17305e-09
3.64139e-08
2.10893e-09
3.64176e-08
2.0456e-09
3.64203e-08
1.98231e-09
3.64216e-08
1.91837e-09
3.64212e-08
1.85316e-09
3.64185e-08
1.78611e-09
3.64132e-08
1.71672e-09
3.64049e-08
1.64459e-09
3.63933e-08
1.56943e-09
3.63781e-08
1.49104e-09
3.6359e-08
1.4094e-09
3.63358e-08
1.32463e-09
3.63084e-08
1.23712e-09
3.62769e-08
1.14759e-09
3.62415e-08
1.05725e-09
3.62025e-08
9.678e-10
3.61604e-08
8.81279e-10
3.61156e-08
7.9981e-10
3.60687e-08
7.25164e-10
3.60201e-08
6.58368e-10
3.59705e-08
5.99481e-10
3.59202e-08
5.47637e-10
3.58697e-08
5.01363e-10
3.58196e-08
4.5903e-10
3.57704e-08
4.1926e-10
3.57226e-08
3.81169e-10
3.56765e-08
3.44404e-10
3.56327e-08
3.09044e-10
3.55913e-08
2.75421e-10
3.55524e-08
2.4391e-10
3.55163e-08
2.14753e-10
3.54827e-08
1.87981e-10
3.54516e-08
1.63452e-10
3.54231e-08
1.41025e-10
3.5397e-08
1.20673e-10
3.53734e-08
1.0243e-10
3.53519e-08
8.62222e-11
3.53324e-08
7.17264e-11
3.53147e-08
5.84218e-11
3.52988e-08
4.58424e-11
3.52848e-08
3.38493e-11
3.52729e-08
2.27316e-11
3.52633e-08
1.30586e-11
3.52558e-08
5.38549e-12
3.52502e-08
-1.54635e-14
3.52461e-08
-3.25633e-12
3.52432e-08
-4.75509e-12
3.52411e-08
-5.06316e-12
3.52395e-08
-4.69938e-12
3.52381e-08
-4.0501e-12
3.5237e-08
-3.34701e-12
3.52361e-08
-2.70001e-12
3.52352e-08
-2.13722e-12
3.52345e-08
-1.68296e-12
3.52338e-08
-1.25467e-12
3.52332e-08
-1.16145e-12
-4.87194e-13
3.64704e-08
3.11502e-09
-3.63228e-08
3.66696e-08
3.48392e-09
3.68717e-08
3.66757e-09
3.70394e-08
3.66454e-09
3.71628e-08
3.54607e-09
3.72491e-08
3.38648e-09
3.73084e-08
3.22569e-09
3.73493e-08
3.07654e-09
3.7378e-08
2.94183e-09
3.73985e-08
2.82161e-09
3.74135e-08
2.71435e-09
3.74246e-08
2.61782e-09
3.74329e-08
2.52994e-09
3.74394e-08
2.44906e-09
3.74445e-08
2.37376e-09
3.74487e-08
2.30281e-09
3.74524e-08
2.23511e-09
3.74557e-08
2.16974e-09
3.74588e-08
2.10585e-09
3.74617e-08
2.0427e-09
3.74644e-08
1.97963e-09
3.74667e-08
1.91601e-09
3.74686e-08
1.85127e-09
3.74698e-08
1.7849e-09
3.74701e-08
1.71645e-09
3.74691e-08
1.64557e-09
3.74665e-08
1.572e-09
3.7462e-08
1.49556e-09
3.74552e-08
1.41623e-09
3.74457e-08
1.3341e-09
3.74333e-08
1.2495e-09
3.74179e-08
1.16308e-09
3.73992e-08
1.0759e-09
3.73775e-08
9.89532e-10
3.73529e-08
9.05898e-10
3.73256e-08
8.27043e-10
3.72961e-08
7.54704e-10
3.72645e-08
6.89907e-10
3.72313e-08
6.32714e-10
3.71967e-08
5.82249e-10
3.71611e-08
5.36995e-10
3.71248e-08
4.95262e-10
3.70885e-08
4.55621e-10
3.70525e-08
4.17171e-10
3.70173e-08
3.79584e-10
3.69833e-08
3.43001e-10
3.69509e-08
3.07847e-10
3.69202e-08
2.74605e-10
3.68913e-08
2.43627e-10
3.68643e-08
2.1502e-10
3.68391e-08
1.88676e-10
3.68156e-08
1.6445e-10
3.6794e-08
1.42308e-10
3.67741e-08
1.22315e-10
3.67559e-08
1.04464e-10
3.67391e-08
8.84867e-11
3.67237e-08
7.38564e-11
3.67095e-08
6.00192e-11
3.66967e-08
4.67084e-11
3.66853e-08
3.41173e-11
3.66755e-08
2.28092e-11
3.66675e-08
1.34275e-11
3.66611e-08
6.38729e-12
3.66561e-08
1.71138e-12
3.66523e-08
-9.41099e-13
3.66493e-08
-2.11321e-12
3.6647e-08
-2.36448e-12
3.66451e-08
-2.14402e-12
3.66435e-08
-1.74506e-12
3.66421e-08
-1.32442e-12
3.66409e-08
-9.41091e-13
3.66399e-08
-6.31687e-13
3.6639e-08
-3.35626e-13
3.66381e-08
-2.98755e-13
1.96461e-13
3.75873e-08
2.98235e-09
-3.74546e-08
3.7764e-08
3.30724e-09
3.79467e-08
3.48481e-09
3.81037e-08
3.50758e-09
3.82239e-08
3.42586e-09
3.83113e-08
3.29908e-09
3.83738e-08
3.16314e-09
3.84185e-08
3.03185e-09
3.84507e-08
2.90963e-09
3.84743e-08
2.79801e-09
3.84919e-08
2.69678e-09
3.85051e-08
2.60458e-09
3.85152e-08
2.51989e-09
3.85229e-08
2.44134e-09
3.85289e-08
2.36777e-09
3.85336e-08
2.2981e-09
3.85374e-08
2.23135e-09
3.85405e-08
2.16666e-09
3.8543e-08
2.10329e-09
3.85452e-08
2.04054e-09
3.8547e-08
1.97778e-09
3.85486e-08
1.91446e-09
3.85498e-08
1.85005e-09
3.85506e-08
1.78408e-09
3.85509e-08
1.71616e-09
3.85505e-08
1.64599e-09
3.85491e-08
1.57335e-09
3.85466e-08
1.49811e-09
3.85425e-08
1.42027e-09
3.85367e-08
1.33994e-09
3.85288e-08
1.2574e-09
3.85186e-08
1.17323e-09
3.85061e-08
1.08842e-09
3.84912e-08
1.00441e-09
3.84741e-08
9.23049e-10
3.84548e-08
8.46311e-10
3.84336e-08
7.75912e-10
3.84106e-08
7.12879e-10
3.83861e-08
6.57279e-10
3.83601e-08
6.0821e-10
3.8333e-08
5.64103e-10
3.83051e-08
5.23187e-10
3.82767e-08
4.83964e-10
3.82484e-08
4.45492e-10
3.82206e-08
4.07452e-10
3.81935e-08
3.7004e-10
3.81676e-08
3.33761e-10
3.8143e-08
2.99198e-10
3.81198e-08
2.66803e-10
3.80981e-08
2.36761e-10
3.80778e-08
2.09013e-10
3.80588e-08
1.83418e-10
3.80412e-08
1.5993e-10
3.80249e-08
1.38617e-10
3.80098e-08
1.19507e-10
3.79959e-08
1.02385e-10
3.7983e-08
8.67484e-11
3.7971e-08
7.20102e-11
3.79599e-08
5.78158e-11
3.79498e-08
4.42612e-11
3.79407e-08
3.18551e-11
3.79329e-08
2.12586e-11
3.79263e-08
1.29657e-11
3.79209e-08
7.10146e-12
3.79166e-08
3.4097e-12
3.79131e-08
1.39022e-12
3.79102e-08
4.82505e-13
3.79079e-08
2.07908e-13
3.79059e-08
2.33544e-13
3.79042e-08
3.66465e-13
3.79028e-08
5.19765e-13
3.79015e-08
6.44454e-13
3.79004e-08
7.7547e-13
3.78993e-08
7.35319e-13
1.01702e-12
3.87336e-08
2.86231e-09
-3.86136e-08
3.88911e-08
3.14981e-09
3.90564e-08
3.31943e-09
3.92029e-08
3.36112e-09
3.93192e-08
3.30959e-09
3.94068e-08
3.21148e-09
3.94716e-08
3.09831e-09
3.95194e-08
2.9841e-09
3.95546e-08
2.87436e-09
3.95809e-08
2.77169e-09
3.96009e-08
2.67686e-09
3.96161e-08
2.58936e-09
3.96278e-08
2.50816e-09
3.96369e-08
2.43223e-09
3.9644e-08
2.36063e-09
3.96497e-08
2.29246e-09
3.96542e-08
2.22687e-09
3.96577e-08
2.16309e-09
3.96606e-08
2.10043e-09
3.96629e-08
2.03826e-09
3.96647e-08
1.97601e-09
3.9666e-08
1.91314e-09
3.96668e-08
1.84918e-09
3.96672e-08
1.78371e-09
3.9667e-08
1.71636e-09
3.96661e-08
1.64687e-09
3.96644e-08
1.57508e-09
3.96616e-08
1.50089e-09
3.96576e-08
1.42432e-09
3.9652e-08
1.34549e-09
3.96448e-08
1.26466e-09
3.96356e-08
1.18236e-09
3.96246e-08
1.09948e-09
3.96116e-08
1.0174e-09
3.95967e-08
9.37892e-10
3.95802e-08
8.6289e-10
3.9562e-08
7.94103e-10
3.95423e-08
7.32568e-10
3.95212e-08
6.78351e-10
3.94989e-08
6.30526e-10
3.94755e-08
5.87461e-10
3.94514e-08
5.47304e-10
3.94269e-08
5.08475e-10
3.94024e-08
4.6999e-10
3.93783e-08
4.31536e-10
3.9355e-08
3.93359e-10
3.93327e-08
3.56047e-10
3.93116e-08
3.20276e-10
3.92919e-08
2.86587e-10
3.92734e-08
2.55244e-10
3.92561e-08
2.2624e-10
3.92401e-08
1.99453e-10
3.92252e-08
1.74825e-10
3.92114e-08
1.52412e-10
3.91987e-08
1.32248e-10
3.91869e-08
1.14154e-10
3.9176e-08
9.76659e-11
3.91658e-08
8.22e-11
3.91563e-08
6.73561e-11
3.91474e-08
5.31502e-11
3.91392e-08
4.0018e-11
3.91319e-08
2.85896e-11
3.91255e-08
1.93827e-11
3.912e-08
1.25846e-11
3.91154e-08
8.01033e-12
3.91116e-08
5.21339e-12
3.91084e-08
3.65764e-12
3.91057e-08
2.86201e-12
3.91035e-08
2.47492e-12
3.91016e-08
2.27998e-12
3.90999e-08
2.16805e-12
3.90985e-08
2.07935e-12
3.90972e-08
2.02298e-12
3.90961e-08
1.88631e-12
1.93808e-12
3.99106e-08
2.75309e-09
-3.98014e-08
4.00515e-08
3.00887e-09
4.02013e-08
3.16964e-09
4.03376e-08
3.22482e-09
4.04494e-08
3.19779e-09
4.05364e-08
3.1245e-09
4.06027e-08
3.03198e-09
4.06529e-08
2.93391e-09
4.06908e-08
2.83646e-09
4.07196e-08
2.7429e-09
4.07417e-08
2.65479e-09
4.07588e-08
2.57229e-09
4.07721e-08
2.49486e-09
4.07825e-08
2.4218e-09
4.07907e-08
2.35239e-09
4.07973e-08
2.28591e-09
4.08025e-08
2.22163e-09
4.08067e-08
2.15889e-09
4.08101e-08
2.09708e-09
4.08127e-08
2.03561e-09
4.08147e-08
1.97398e-09
4.08162e-08
1.91168e-09
4.08171e-08
1.84828e-09
4.08174e-08
1.78339e-09
4.08171e-08
1.7167e-09
4.0816e-08
1.64797e-09
4.0814e-08
1.57708e-09
4.08109e-08
1.50396e-09
4.08066e-08
1.42866e-09
4.08008e-08
1.35128e-09
4.07934e-08
1.27207e-09
4.07842e-08
1.1915e-09
4.07733e-08
1.1104e-09
4.07607e-08
1.03006e-09
4.07463e-08
9.52217e-10
4.07305e-08
8.78774e-10
4.07131e-08
8.11446e-10
4.06944e-08
7.51281e-10
4.06744e-08
6.98344e-10
4.06533e-08
6.51677e-10
4.06311e-08
6.0958e-10
4.06083e-08
5.70111e-10
4.05852e-08
5.31612e-10
4.05621e-08
4.93054e-10
4.05395e-08
4.54133e-10
4.05177e-08
4.15153e-10
4.0497e-08
3.76782e-10
4.04775e-08
3.39791e-10
4.04593e-08
3.04806e-10
4.04423e-08
2.72168e-10
4.04267e-08
2.41926e-10
4.04121e-08
2.13982e-10
4.03987e-08
1.88275e-10
4.03863e-08
1.64838e-10
4.03748e-08
1.43699e-10
4.03643e-08
1.24698e-10
4.03545e-08
1.07406e-10
4.03455e-08
9.12649e-11
4.0337e-08
7.58581e-11
4.0329e-08
6.11445e-11
4.03215e-08
4.74859e-11
4.03146e-08
3.54578e-11
4.03084e-08
2.5565e-11
4.0303e-08
1.80235e-11
4.02983e-08
1.27006e-11
4.02943e-08
9.2019e-12
4.0291e-08
7.02664e-12
4.02881e-08
5.70761e-12
4.02857e-08
4.88959e-12
4.02836e-08
4.34349e-12
4.02819e-08
3.94395e-12
4.02803e-08
3.62257e-12
4.0279e-08
3.36453e-12
4.02777e-08
3.11403e-12
2.9309e-12
4.11193e-08
2.65326e-09
-4.10194e-08
4.12461e-08
2.88208e-09
4.13819e-08
3.03376e-09
4.15085e-08
3.09822e-09
4.16155e-08
3.09083e-09
4.17012e-08
3.03882e-09
4.17683e-08
2.96488e-09
4.18203e-08
2.8819e-09
4.18604e-08
2.79634e-09
4.18914e-08
2.71192e-09
4.19155e-08
2.63072e-09
4.19343e-08
2.55347e-09
4.19491e-08
2.48006e-09
4.19608e-08
2.4101e-09
4.19701e-08
2.34308e-09
4.19775e-08
2.27846e-09
4.19835e-08
2.21566e-09
4.19883e-08
2.1541e-09
4.19921e-08
2.09324e-09
4.19952e-08
2.03258e-09
4.19975e-08
1.97165e-09
4.19992e-08
1.91e-09
4.20002e-08
1.84724e-09
4.20006e-08
1.78301e-09
4.20003e-08
1.71703e-09
4.19991e-08
1.64911e-09
4.19971e-08
1.57916e-09
4.19939e-08
1.50715e-09
4.19894e-08
1.43313e-09
4.19835e-08
1.3572e-09
4.1976e-08
1.27959e-09
4.19668e-08
1.20071e-09
4.19558e-08
1.12131e-09
4.19433e-08
1.04264e-09
4.19291e-08
9.66384e-10
4.19134e-08
8.94436e-10
4.18964e-08
8.28521e-10
4.18779e-08
7.69702e-10
4.18582e-08
7.18039e-10
4.18374e-08
6.72531e-10
4.18156e-08
6.31399e-10
4.17931e-08
5.9261e-10
4.17703e-08
5.5442e-10
4.17476e-08
5.1576e-10
4.17253e-08
4.76337e-10
4.1704e-08
4.36515e-10
4.16837e-08
3.97052e-10
4.16647e-08
3.5881e-10
4.1647e-08
3.22503e-10
4.16306e-08
2.88545e-10
4.16155e-08
2.57042e-10
4.16016e-08
2.27928e-10
4.15887e-08
2.0114e-10
4.15768e-08
1.76692e-10
4.15659e-08
1.54596e-10
4.15559e-08
1.34699e-10
4.15467e-08
1.16605e-10
4.15382e-08
9.97849e-11
4.15303e-08
8.38248e-11
4.15228e-08
6.8644e-11
4.15157e-08
5.45387e-11
4.15091e-08
4.20226e-11
4.15031e-08
3.15685e-11
4.14978e-08
2.33996e-11
4.1493e-08
1.74188e-11
4.1489e-08
1.32768e-11
4.14855e-08
1.05107e-11
4.14825e-08
8.67475e-12
4.148e-08
7.41902e-12
4.14778e-08
6.50905e-12
4.1476e-08
5.80819e-12
4.14743e-08
5.24133e-12
4.14729e-08
4.77256e-12
4.14717e-08
4.39366e-12
3.97606e-12
4.23608e-08
2.56167e-09
-4.22692e-08
4.24754e-08
2.76753e-09
4.25989e-08
2.91026e-09
4.27163e-08
2.9808e-09
4.28182e-08
2.98896e-09
4.2902e-08
2.95501e-09
4.29692e-08
2.89763e-09
4.30225e-08
2.82861e-09
4.30644e-08
2.75444e-09
4.30973e-08
2.67903e-09
4.31232e-08
2.60483e-09
4.31436e-08
2.533e-09
4.31599e-08
2.46382e-09
4.31728e-08
2.39716e-09
4.31832e-08
2.33273e-09
4.31915e-08
2.27015e-09
4.31982e-08
2.20897e-09
4.32036e-08
2.14871e-09
4.32079e-08
2.08893e-09
4.32113e-08
2.02917e-09
4.32139e-08
1.96903e-09
4.32158e-08
1.90811e-09
4.3217e-08
1.84604e-09
4.32175e-08
1.78253e-09
4.32172e-08
1.71731e-09
4.32161e-08
1.65025e-09
4.32139e-08
1.58127e-09
4.32107e-08
1.51039e-09
4.32062e-08
1.43765e-09
4.32002e-08
1.36318e-09
4.31927e-08
1.28714e-09
4.31835e-08
1.2099e-09
4.31726e-08
1.13216e-09
4.31601e-08
1.05511e-09
4.31461e-08
9.80391e-10
4.31307e-08
9.09906e-10
4.31138e-08
8.45395e-10
4.30956e-08
7.87937e-10
4.3076e-08
7.3758e-10
4.30553e-08
6.93272e-10
4.30335e-08
6.53147e-10
4.30111e-08
6.15068e-10
4.29883e-08
5.77207e-10
4.29656e-08
5.3845e-10
4.29434e-08
4.98521e-10
4.29221e-08
4.57846e-10
4.29019e-08
4.17275e-10
4.28829e-08
3.77767e-10
4.28653e-08
3.40122e-10
4.2849e-08
3.04827e-10
4.2834e-08
2.72043e-10
4.28202e-08
2.4174e-10
4.28075e-08
2.13857e-10
4.27958e-08
1.88392e-10
4.2785e-08
1.65337e-10
4.27752e-08
1.44542e-10
4.27662e-08
1.25634e-10
4.27578e-08
1.08117e-10
4.27501e-08
9.1585e-11
4.27428e-08
7.59308e-11
4.27359e-08
6.13948e-11
4.27295e-08
4.84304e-11
4.27236e-08
3.74718e-11
4.27183e-08
2.87365e-11
4.27135e-08
2.21514e-11
4.27094e-08
1.7405e-11
4.27059e-08
1.40701e-11
4.27028e-08
1.17251e-11
4.27002e-08
1.00299e-11
4.2698e-08
8.74902e-12
4.2696e-08
7.73818e-12
4.26943e-08
6.91698e-12
4.26929e-08
6.23124e-12
4.26916e-08
5.7121e-12
5.06161e-12
4.36364e-08
2.47739e-09
-4.35521e-08
4.37403e-08
2.6636e-09
4.38528e-08
2.79777e-09
4.39616e-08
2.87201e-09
4.40583e-08
2.89231e-09
4.41398e-08
2.87353e-09
4.42066e-08
2.83079e-09
4.42606e-08
2.77458e-09
4.43039e-08
2.71116e-09
4.43384e-08
2.64454e-09
4.43659e-08
2.57734e-09
4.43878e-08
2.51104e-09
4.44054e-08
2.44623e-09
4.44196e-08
2.38303e-09