/*--------------------------------*- C++ -*----------------------------------*\
| =========                 |                                                 |
| \\      /  F ield         | OpenFOAM: The Open Source CFD Toolbox           |
|  \\    /   O peration     | Version:  2.3.0                                 |
|   \\  /    A nd           | Web:      www.OpenFOAM.org                      |
|    \\/     M anipulation  |                                                 |
\*---------------------------------------------------------------------------*/
FoamFile
{
    version     2.0;
    format      ascii;
    class       volVectorField;
    location    "0.8";
    object      U;
}
// * * * * * * * * * * * * * * * * * * * * * * * * * * * * * * * * * * * * * //

dimensions      [0 1 -1 0 0 0 0];

internalField   nonuniform List<vector> 
5940
(
(0.17215 0.00510069 0)
(0.150949 0.00684234 0)
(0.132599 0.00710939 0)
(0.115184 0.00644347 0)
(0.0985096 0.00546236 0)
(0.0833664 0.00438875 0)
(0.0706837 0.00326744 0)
(0.0607335 0.00215361 0)
(0.0532467 0.00120796 0)
(0.0477354 0.000550625 0)
(0.0437226 0.000174481 0)
(0.0407984 3.00155e-07 0)
(0.0386228 -5.27257e-05 0)
(0.0369364 -4.3758e-05 0)
(0.0355538 -9.48462e-06 0)
(0.0343552 2.84454e-05 0)
(0.0332708 5.92072e-05 0)
(0.0322652 7.95648e-05 0)
(0.0313226 9.04461e-05 0)
(0.0304368 9.42873e-05 0)
(0.0296053 9.35711e-05 0)
(0.0288262 9.02631e-05 0)
(0.0280972 8.57157e-05 0)
(0.0274152 8.0773e-05 0)
(0.0267766 7.59071e-05 0)
(0.0261777 7.13432e-05 0)
(0.0256148 6.71607e-05 0)
(0.0250846 6.33625e-05 0)
(0.0245837 5.99177e-05 0)
(0.0241095 5.67842e-05 0)
(0.0236594 5.39201e-05 0)
(0.0232314 5.12882e-05 0)
(0.0228236 4.88574e-05 0)
(0.0224343 4.6602e-05 0)
(0.0220622 4.45015e-05 0)
(0.021706 4.25392e-05 0)
(0.0213645 4.07012e-05 0)
(0.0210369 3.89763e-05 0)
(0.0207221 3.73548e-05 0)
(0.0204194 3.58285e-05 0)
(0.020128 3.439e-05 0)
(0.0198473 3.3033e-05 0)
(0.0195766 3.17516e-05 0)
(0.0193153 3.05405e-05 0)
(0.019063 2.93948e-05 0)
(0.0188192 2.83101e-05 0)
(0.0185833 2.72822e-05 0)
(0.018355 2.63073e-05 0)
(0.0181339 2.53817e-05 0)
(0.0179197 2.45025e-05 0)
(0.0177119 2.36663e-05 0)
(0.0175104 2.28706e-05 0)
(0.0173147 2.21126e-05 0)
(0.0171247 2.13903e-05 0)
(0.01694 2.07011e-05 0)
(0.0167604 2.00433e-05 0)
(0.0165858 1.94148e-05 0)
(0.0164159 1.88143e-05 0)
(0.0162504 1.82395e-05 0)
(0.0160893 1.76898e-05 0)
(0.0159323 1.71629e-05 0)
(0.0157792 1.66585e-05 0)
(0.01563 1.61745e-05 0)
(0.0154844 1.57107e-05 0)
(0.0153424 1.52651e-05 0)
(0.0152037 1.48378e-05 0)
(0.0150683 1.44267e-05 0)
(0.0149361 1.40323e-05 0)
(0.0148068 1.36523e-05 0)
(0.0146805 1.32876e-05 0)
(0.014557 1.29357e-05 0)
(0.0144361 1.2598e-05 0)
(0.014318 1.22715e-05 0)
(0.0142023 1.19584e-05 0)
(0.0140891 1.1655e-05 0)
(0.0139782 1.13641e-05 0)
(0.0138696 1.10817e-05 0)
(0.0137632 1.08112e-05 0)
(0.013659 1.05478e-05 0)
(0.0135568 1.0296e-05 0)
(0.0134566 1.00501e-05 0)
(0.0133583 9.81535e-06 0)
(0.013262 9.58524e-06 0)
(0.0131674 9.36625e-06 0)
(0.0130746 9.15054e-06 0)
(0.0129835 8.94612e-06 0)
(0.0128941 8.74359e-06 0)
(0.0128063 8.55266e-06 0)
(0.0127201 8.36209e-06 0)
(0.0126353 8.18366e-06 0)
(0.0125521 8.00393e-06 0)
(0.0124703 7.83723e-06 0)
(0.0123899 7.66739e-06 0)
(0.0123108 7.51171e-06 0)
(0.0122331 7.35074e-06 0)
(0.0121566 7.20543e-06 0)
(0.0120814 7.05242e-06 0)
(0.0120074 6.91703e-06 0)
(0.0119346 6.77115e-06 0)
(0.0118629 6.64528e-06 0)
(0.0117924 6.5056e-06 0)
(0.0117229 6.38896e-06 0)
(0.0116546 6.25466e-06 0)
(0.0115871 6.14711e-06 0)
(0.011521 6.01731e-06 0)
(0.0114554 5.91879e-06 0)
(0.0113913 5.79258e-06 0)
(0.0113276 5.70325e-06 0)
(0.0112654 5.57969e-06 0)
(0.0112035 5.49973e-06 0)
(0.011143 5.37776e-06 0)
(0.0110828 5.30763e-06 0)
(0.0110241 5.18615e-06 0)
(0.0109654 5.1265e-06 0)
(0.0109085 5.00422e-06 0)
(0.0108513 4.95588e-06 0)
(0.0107959 4.83137e-06 0)
(0.0107401 4.79553e-06 0)
(0.0106864 4.66707e-06 0)
(0.0106318 4.64517e-06 0)
(0.0105796 4.51083e-06 0)
(0.0105262 4.50478e-06 0)
(0.0104756 4.36219e-06 0)
(0.0104232 4.37439e-06 0)
(0.0103741 4.22072e-06 0)
(0.0103226 4.25424e-06 0)
(0.010275 4.08603e-06 0)
(0.0102243 4.14465e-06 0)
(0.0101782 3.95767e-06 0)
(0.0101282 4.04625e-06 0)
(0.0100836 3.83523e-06 0)
(0.010034 3.9599e-06 0)
(0.00999103 3.71824e-06 0)
(0.00994159 3.88686e-06 0)
(0.00990034 3.60614e-06 0)
(0.0098508 3.82887e-06 0)
(0.00981139 3.49824e-06 0)
(0.00976139 3.78836e-06 0)
(0.00972404 3.3936e-06 0)
(0.00967311 3.76884e-06 0)
(0.00963812 3.291e-06 0)
(0.00958561 3.77557e-06 0)
(0.00955348 3.1884e-06 0)
(0.00949848 3.81783e-06 0)
(0.00946998 3.08132e-06 0)
(0.00941105 3.91668e-06 0)
(0.00938757 2.96055e-06 0)
(0.00932199 4.13587e-06 0)
(0.00930671 2.90953e-06 0)
(0.00922415 5.89195e-06 0)
(0.18943 0.00904176 0)
(0.187371 0.0124024 0)
(0.184771 0.0137445 0)
(0.181053 0.0136303 0)
(0.175798 0.0128557 0)
(0.169173 0.0117511 0)
(0.161765 0.0103785 0)
(0.154064 0.00877864 0)
(0.146424 0.00710802 0)
(0.139066 0.00556321 0)
(0.132138 0.00427243 0)
(0.125747 0.00327088 0)
(0.119943 0.00253386 0)
(0.114731 0.00201537 0)
(0.11007 0.0016619 0)
(0.105899 0.00142255 0)
(0.102151 0.00125609 0)
(0.0987614 0.00113346 0)
(0.0956783 0.00103648 0)
(0.0928568 0.000954783 0)
(0.0902609 0.000882989 0)
(0.0878611 0.000818483 0)
(0.0856331 0.000760061 0)
(0.083557 0.000707128 0)
(0.0816158 0.000659289 0)
(0.0797953 0.000616163 0)
(0.078083 0.000577329 0)
(0.0764682 0.000542337 0)
(0.0749417 0.00051074 0)
(0.0734954 0.000482113 0)
(0.0721223 0.000456074 0)
(0.0708162 0.000432288 0)
(0.0695715 0.000410468 0)
(0.0683835 0.000390372 0)
(0.0672479 0.000371797 0)
(0.0661609 0.000354572 0)
(0.0651191 0.000338553 0)
(0.0641193 0.00032362 0)
(0.0631589 0.000309667 0)
(0.0622353 0.000296606 0)
(0.0613462 0.000284358 0)
(0.0604896 0.000272853 0)
(0.0596634 0.000262031 0)
(0.058866 0.000251837 0)
(0.0580958 0.000242222 0)
(0.0573512 0.000233141 0)
(0.0566309 0.000224555 0)
(0.0559336 0.000216428 0)
(0.0552581 0.000208726 0)
(0.0546034 0.00020142 0)
(0.0539684 0.000194482 0)
(0.0533521 0.000187887 0)
(0.0527538 0.000181611 0)
(0.0521725 0.000175636 0)
(0.0516076 0.000169941 0)
(0.0510582 0.000164508 0)
(0.0505237 0.000159322 0)
(0.0500034 0.000154368 0)
(0.0494968 0.00014963 0)
(0.0490033 0.000145099 0)
(0.0485224 0.00014076 0)
(0.0480535 0.000136606 0)
(0.0475962 0.000132622 0)
(0.04715 0.000128803 0)
(0.0467145 0.000125136 0)
(0.0462893 0.000121618 0)
(0.0458741 0.000118236 0)
(0.0454683 0.000114989 0)
(0.0450718 0.000111863 0)
(0.0446842 0.000108859 0)
(0.0443051 0.000105965 0)
(0.0439343 0.000103181 0)
(0.0435715 0.000100496 0)
(0.0432164 9.79128e-05 0)
(0.0428688 9.54173e-05 0)
(0.0425283 9.30158e-05 0)
(0.0421949 9.06926e-05 0)
(0.0418681 8.84566e-05 0)
(0.041548 8.62904e-05 0)
(0.0412341 8.42058e-05 0)
(0.0409264 8.21828e-05 0)
(0.0406245 8.02368e-05 0)
(0.0403286 7.83445e-05 0)
(0.040038 7.65254e-05 0)
(0.0397531 7.47525e-05 0)
(0.0394732 7.30503e-05 0)
(0.0391986 7.13869e-05 0)
(0.0389288 6.97924e-05 0)
(0.038664 6.82291e-05 0)
(0.0384036 6.6734e-05 0)
(0.038148 6.52624e-05 0)
(0.0378966 6.38594e-05 0)
(0.0376498 6.2472e-05 0)
(0.0374068 6.11547e-05 0)
(0.0371683 5.98441e-05 0)
(0.0369333 5.86066e-05 0)
(0.0367027 5.73663e-05 0)
(0.0364753 5.62037e-05 0)
(0.0362521 5.50277e-05 0)
(0.0360319 5.39354e-05 0)
(0.0358158 5.28177e-05 0)
(0.0356024 5.17919e-05 0)
(0.0353932 5.07272e-05 0)
(0.0351862 4.97648e-05 0)
(0.0349834 4.87477e-05 0)
(0.0347825 4.78463e-05 0)
(0.034586 4.68717e-05 0)
(0.0343909 4.60293e-05 0)
(0.0342003 4.50922e-05 0)
(0.0340107 4.43076e-05 0)
(0.0338259 4.34028e-05 0)
(0.0336415 4.26755e-05 0)
(0.0334622 4.17979e-05 0)
(0.0332827 4.11283e-05 0)
(0.0331087 4.02723e-05 0)
(0.0329338 3.96617e-05 0)
(0.0327651 3.88216e-05 0)
(0.0325945 3.82722e-05 0)
(0.0324308 3.74415e-05 0)
(0.0322643 3.69568e-05 0)
(0.0321056 3.61284e-05 0)
(0.0319427 3.57133e-05 0)
(0.0317889 3.48793e-05 0)
(0.0316294 3.45402e-05 0)
(0.0314804 3.36912e-05 0)
(0.0313239 3.34369e-05 0)
(0.0311798 3.25621e-05 0)
(0.0310258 3.24035e-05 0)
(0.0308868 3.14898e-05 0)
(0.0307348 3.14413e-05 0)
(0.0306008 3.0473e-05 0)
(0.0304503 3.05527e-05 0)
(0.0303216 2.95105e-05 0)
(0.0301719 2.97418e-05 0)
(0.0300489 2.86019e-05 0)
(0.0298991 2.90146e-05 0)
(0.0297822 2.77471e-05 0)
(0.0296312 2.83797e-05 0)
(0.0295213 2.69468e-05 0)
(0.0293675 2.78497e-05 0)
(0.0292656 2.62032e-05 0)
(0.0291073 2.74424e-05 0)
(0.0290149 2.55205e-05 0)
(0.0288492 2.71871e-05 0)
(0.028769 2.49066e-05 0)
(0.0285916 2.71429e-05 0)
(0.028528 2.4391e-05 0)
(0.0283311 2.74967e-05 0)
(0.0282932 2.42952e-05 0)
(0.0280583 3.15883e-05 0)
(0.190548 0.0089913 0)
(0.191004 0.0117539 0)
(0.192105 0.013542 0)
(0.193312 0.0141533 0)
(0.193908 0.0140102 0)
(0.193522 0.0134436 0)
(0.192154 0.012565 0)
(0.189952 0.0114351 0)
(0.187093 0.0101638 0)
(0.183747 0.00889603 0)
(0.180064 0.00774551 0)
(0.17619 0.00676371 0)
(0.172244 0.00595048 0)
(0.168319 0.00528466 0)
(0.16447 0.00473788 0)
(0.160723 0.0042828 0)
(0.157094 0.00389699 0)
(0.15359 0.00356382 0)
(0.150212 0.00327168 0)
(0.146963 0.00301274 0)
(0.14384 0.00278164 0)
(0.140842 0.00257457 0)
(0.137968 0.00238868 0)
(0.135213 0.00222162 0)
(0.132574 0.00207138 0)
(0.130047 0.00193613 0)
(0.127627 0.00181418 0)
(0.125309 0.00170401 0)
(0.123088 0.00160422 0)
(0.12096 0.00151358 0)
(0.118918 0.00143098 0)
(0.116959 0.00135547 0)
(0.115077 0.00128621 0)
(0.113268 0.00122248 0)
(0.111528 0.00116367 0)
(0.109853 0.00110923 0)
(0.10824 0.0010587 0)
(0.106684 0.00101169 0)
(0.105183 0.000967857 0)
(0.103734 0.000926896 0)
(0.102333 0.000888544 0)
(0.100979 0.000852571 0)
(0.0996689 0.000818771 0)
(0.0984004 0.000786964 0)
(0.0971714 0.000756985 0)
(0.0959801 0.000728693 0)
(0.0948247 0.000701954 0)
(0.0937035 0.000676653 0)
(0.0926149 0.000652682 0)
(0.0915574 0.000629947 0)
(0.0905296 0.000608359 0)
(0.0895303 0.000587841 0)
(0.0885581 0.000568319 0)
(0.087612 0.00054973 0)
(0.0866909 0.000532009 0)
(0.0857937 0.000515106 0)
(0.0849195 0.000498966 0)
(0.0840673 0.000483547 0)
(0.0832364 0.000468801 0)
(0.0824258 0.000454693 0)
(0.0816348 0.000441182 0)
(0.0808627 0.00042824 0)
(0.0801088 0.000415829 0)
(0.0793723 0.000403926 0)
(0.0786528 0.000392497 0)
(0.0779495 0.000381525 0)
(0.077262 0.000370978 0)
(0.0765895 0.000360842 0)
(0.0759318 0.000351088 0)
(0.0752882 0.000341707 0)
(0.0746583 0.000332669 0)
(0.0740416 0.00032397 0)
(0.0734378 0.000315579 0)
(0.0728463 0.000307499 0)
(0.0722668 0.000299697 0)
(0.0716989 0.000292178 0)
(0.0711424 0.000284911 0)
(0.0705966 0.000277904 0)
(0.0700615 0.000271124 0)
(0.0695366 0.000264586 0)
(0.0690218 0.000258251 0)
(0.0685164 0.000252141 0)
(0.0680206 0.000246212 0)
(0.0675337 0.000240495 0)
(0.0670559 0.000234938 0)
(0.0665864 0.000229582 0)
(0.0661257 0.000224367 0)
(0.0656726 0.000219343 0)
(0.0652279 0.000214442 0)
(0.0647904 0.000209725 0)
(0.0643609 0.000205111 0)
(0.0639381 0.000200677 0)
(0.063523 0.000196329 0)
(0.0631142 0.000192157 0)
(0.0627128 0.000188052 0)
(0.0623172 0.000184125 0)
(0.0619289 0.000180243 0)
(0.0615458 0.000176543 0)
(0.0611699 0.000172868 0)
(0.0607987 0.00016938 0)
(0.0604347 0.000165893 0)
(0.0600748 0.000162605 0)
(0.0597221 0.000159292 0)
(0.0593729 0.000156191 0)
(0.0590312 0.000153036 0)
(0.0586921 0.000150113 0)
(0.0583608 0.000147104 0)
(0.0580314 0.00014435 0)
(0.0577102 0.000141472 0)
(0.05739 0.000138881 0)
(0.0570784 0.000136122 0)
(0.0567669 0.000133688 0)
(0.0564647 0.000131035 0)
(0.0561614 0.000128755 0)
(0.0558683 0.000126196 0)
(0.0555727 0.000124068 0)
(0.0552885 0.00012159 0)
(0.0550002 0.000119615 0)
(0.0547246 0.000117205 0)
(0.054443 0.000115385 0)
(0.0541761 0.00011303 0)
(0.0539007 0.000111369 0)
(0.0536423 0.000109054 0)
(0.0533725 0.000107562 0)
(0.0531226 0.00010527 0)
(0.0528577 0.000103957 0)
(0.0526164 0.000101672 0)
(0.0523558 0.000100554 0)
(0.0521233 9.82543e-05 0)
(0.0518661 9.73501e-05 0)
(0.0516427 9.50135e-05 0)
(0.0513878 9.43499e-05 0)
(0.0511741 9.1949e-05 0)
(0.0509203 9.1559e-05 0)
(0.050717 8.90619e-05 0)
(0.0504628 8.89875e-05 0)
(0.0502708 8.63567e-05 0)
(0.0500143 8.66505e-05 0)
(0.0498351 8.38427e-05 0)
(0.0495738 8.45695e-05 0)
(0.0494093 8.15368e-05 0)
(0.0491399 8.27745e-05 0)
(0.0489932 7.94698e-05 0)
(0.0487109 8.13103e-05 0)
(0.0485864 7.76982e-05 0)
(0.0482843 8.0263e-05 0)
(0.0481892 7.63577e-05 0)
(0.0478559 7.99681e-05 0)
(0.0478026 7.61218e-05 0)
(0.0474188 8.46674e-05 0)
(0.191703 0.0085025 0)
(0.192128 0.010426 0)
(0.193233 0.0120179 0)
(0.194902 0.0128594 0)
(0.196639 0.0130337 0)
(0.198021 0.01278 0)
(0.198866 0.0122487 0)
(0.199157 0.0115161 0)
(0.198933 0.0106534 0)
(0.198252 0.00975073 0)
(0.197182 0.0088924 0)
(0.195802 0.00812925 0)
(0.194192 0.00747476 0)
(0.192422 0.00691777 0)
(0.190541 0.00643983 0)
(0.188579 0.00602349 0)
(0.186557 0.0056546 0)
(0.184487 0.0053225 0)
(0.182381 0.00501948 0)
(0.180248 0.00474021 0)
(0.178096 0.00448112 0)
(0.175934 0.00423981 0)
(0.173768 0.00401464 0)
(0.171607 0.00380442 0)
(0.169457 0.00360815 0)
(0.167323 0.00342493 0)
(0.16521 0.00325391 0)
(0.163124 0.00309426 0)
(0.161066 0.00294518 0)
(0.15904 0.0028059 0)
(0.157049 0.00267568 0)
(0.155094 0.00255385 0)
(0.153176 0.00243976 0)
(0.151297 0.00233283 0)
(0.149456 0.00223251 0)
(0.147655 0.00213829 0)
(0.145892 0.00204972 0)
(0.144169 0.00196637 0)
(0.142485 0.00188786 0)
(0.140838 0.00181384 0)
(0.13923 0.00174397 0)
(0.137658 0.00167796 0)
(0.136123 0.00161553 0)
(0.134623 0.00155643 0)
(0.133158 0.00150042 0)
(0.131726 0.00144731 0)
(0.130328 0.00139688 0)
(0.128962 0.00134897 0)
(0.127626 0.0013034 0)
(0.126321 0.00126002 0)
(0.125046 0.00121869 0)
(0.123799 0.00117929 0)
(0.12258 0.00114169 0)
(0.121387 0.00110579 0)
(0.120221 0.00107148 0)
(0.119081 0.00103867 0)
(0.117965 0.00100726 0)
(0.116872 0.000977195 0)
(0.115804 0.00094838 0)
(0.114757 0.000920755 0)
(0.113733 0.000894248 0)
(0.112729 0.000868808 0)
(0.111746 0.00084437 0)
(0.110784 0.000820891 0)
(0.10984 0.000798312 0)
(0.108916 0.000776599 0)
(0.10801 0.000755696 0)
(0.107121 0.000735577 0)
(0.10625 0.00071619 0)
(0.105396 0.000697514 0)
(0.104558 0.000679501 0)
(0.103735 0.000662137 0)
(0.102929 0.000645372 0)
(0.102137 0.000629202 0)
(0.10136 0.000613575 0)
(0.100597 0.000598493 0)
(0.0998483 0.000583905 0)
(0.0991125 0.000569818 0)
(0.0983902 0.000556179 0)
(0.0976803 0.000543004 0)
(0.0969832 0.000530235 0)
(0.0962978 0.000517898 0)
(0.0956246 0.000505927 0)
(0.0949624 0.000494359 0)
(0.0943119 0.000483121 0)
(0.0936718 0.000472261 0)
(0.0930429 0.000461698 0)
(0.0924237 0.000451493 0)
(0.0918154 0.00044155 0)
(0.0912161 0.000431949 0)
(0.0906274 0.000422579 0)
(0.090047 0.000413537 0)
(0.089477 0.000404695 0)
(0.0889147 0.000396171 0)
(0.0883625 0.000387817 0)
(0.0878174 0.000379775 0)
(0.0872823 0.000371871 0)
(0.0867534 0.000364277 0)
(0.0862347 0.000356789 0)
(0.0857214 0.000349614 0)
(0.0852184 0.000342509 0)
(0.08472 0.000335726 0)
(0.084232 0.000328976 0)
(0.0837477 0.00032256 0)
(0.0832742 0.000316137 0)
(0.0828034 0.000310067 0)
(0.0823439 0.000303946 0)
(0.0818859 0.000298204 0)
(0.0814399 0.000292359 0)
(0.0809941 0.000286929 0)
(0.0805612 0.000281339 0)
(0.080127 0.000276207 0)
(0.0797069 0.000270849 0)
(0.0792835 0.000266004 0)
(0.0788759 0.000260859 0)
(0.0784628 0.000256292 0)
(0.0780675 0.000251338 0)
(0.077664 0.000247045 0)
(0.0772808 0.000242263 0)
(0.0768862 0.000238241 0)
(0.076515 0.00023361 0)
(0.0761286 0.00022986 0)
(0.0757694 0.00022536 0)
(0.0753903 0.000221886 0)
(0.0750433 0.000217498 0)
(0.0746707 0.000214309 0)
(0.074336 0.00021001 0)
(0.0739687 0.00020712 0)
(0.0736468 0.000202887 0)
(0.0732838 0.000200313 0)
(0.0729753 0.000196123 0)
(0.0726149 0.000193891 0)
(0.0723206 0.000189718 0)
(0.0719612 0.000187857 0)
(0.0716824 0.000183675 0)
(0.0713216 0.000182225 0)
(0.0710599 0.000178008 0)
(0.0706951 0.000177012 0)
(0.0704527 0.000172738 0)
(0.0700802 0.000172247 0)
(0.0698603 0.000167905 0)
(0.0694754 0.000167968 0)
(0.0692822 0.000163576 0)
(0.0688786 0.000164234 0)
(0.0687181 0.000159859 0)
(0.068287 0.000161182 0)
(0.0681681 0.000156953 0)
(0.0676967 0.00015936 0)
(0.0676321 0.000155709 0)
(0.0671034 0.000162954 0)
(0.192685 0.00806852 0)
(0.193077 0.00949961 0)
(0.193942 0.0108081 0)
(0.195303 0.0116631 0)
(0.196903 0.0119791 0)
(0.198418 0.0118835 0)
(0.199656 0.0115254 0)
(0.200561 0.0110008 0)
(0.201145 0.010371 0)
(0.201432 0.00969471 0)
(0.201452 0.00903074 0)
(0.201244 0.0084229 0)
(0.200854 0.00789063 0)
(0.200325 0.00743216 0)
(0.199691 0.00703612 0)
(0.198972 0.00668976 0)
(0.19818 0.00638201 0)
(0.197321 0.00610411 0)
(0.1964 0.00584934 0)
(0.195418 0.00561277 0)
(0.194379 0.00539094 0)
(0.193288 0.00518151 0)
(0.192146 0.00498291 0)
(0.19096 0.00479409 0)
(0.189733 0.0046143 0)
(0.18847 0.00444298 0)
(0.187175 0.00427961 0)
(0.185851 0.00412376 0)
(0.184504 0.00397501 0)
(0.183137 0.00383297 0)
(0.181754 0.00369728 0)
(0.180357 0.00356758 0)
(0.178951 0.00344356 0)
(0.177538 0.00332492 0)
(0.17612 0.0032114 0)
(0.1747 0.00310272 0)
(0.173281 0.00299866 0)
(0.171864 0.00289899 0)
(0.170452 0.00280351 0)
(0.169046 0.00271201 0)
(0.167647 0.00262432 0)
(0.166257 0.00254025 0)
(0.164878 0.00245963 0)
(0.16351 0.00238232 0)
(0.162154 0.00230814 0)
(0.160811 0.00223697 0)
(0.159482 0.00216865 0)
(0.158167 0.00210306 0)
(0.156868 0.00204006 0)
(0.155584 0.00197955 0)
(0.154315 0.0019214 0)
(0.153062 0.0018655 0)
(0.151826 0.00181175 0)
(0.150606 0.00176005 0)
(0.149403 0.0017103 0)
(0.148216 0.00166242 0)
(0.147045 0.00161632 0)
(0.145892 0.00157192 0)
(0.144754 0.00152913 0)
(0.143633 0.0014879 0)
(0.142529 0.00144815 0)
(0.14144 0.00140982 0)
(0.140368 0.00137283 0)
(0.139311 0.00133714 0)
(0.138271 0.00130268 0)
(0.137245 0.00126942 0)
(0.136235 0.00123728 0)
(0.13524 0.00120623 0)
(0.134261 0.00117621 0)
(0.133295 0.0011472 0)
(0.132344 0.00111913 0)
(0.131408 0.001092 0)
(0.130485 0.00106572 0)
(0.129576 0.00104031 0)
(0.128681 0.00101568 0)
(0.127799 0.000991852 0)
(0.126931 0.000968751 0)
(0.126074 0.000946385 0)
(0.125231 0.000924687 0)
(0.1244 0.000903673 0)
(0.123582 0.000883272 0)
(0.122774 0.000863509 0)
(0.12198 0.000844307 0)
(0.121196 0.000825702 0)
(0.120424 0.000807608 0)
(0.119662 0.000790077 0)
(0.118913 0.000773011 0)
(0.118172 0.000756475 0)
(0.117444 0.000740361 0)
(0.116724 0.000724751 0)
(0.116017 0.00070952 0)
(0.115317 0.00069477 0)
(0.114629 0.000680358 0)
(0.113948 0.00066641 0)
(0.11328 0.000652759 0)
(0.112617 0.000639557 0)
(0.111967 0.000626613 0)
(0.111322 0.000614109 0)
(0.11069 0.000601821 0)
(0.110062 0.000589969 0)
(0.109447 0.000578291 0)
(0.108836 0.00056705 0)
(0.108237 0.00055594 0)
(0.107642 0.000545272 0)
(0.10706 0.000534689 0)
(0.106479 0.000524561 0)
(0.105912 0.000514467 0)
(0.105346 0.000504849 0)
(0.104795 0.00049521 0)
(0.104242 0.000486074 0)
(0.103707 0.000476857 0)
(0.103166 0.00046818 0)
(0.102646 0.000459355 0)
(0.102118 0.000451115 0)
(0.101612 0.000442654 0)
(0.101096 0.000434835 0)
(0.100604 0.00042671 0)
(0.100099 0.000419297 0)
(0.099622 0.000411483 0)
(0.0991262 0.000404465 0)
(0.0986643 0.000396938 0)
(0.0981774 0.000390309 0)
(0.0977303 0.000383045 0)
(0.0972514 0.000376801 0)
(0.0968195 0.000369779 0)
(0.0963474 0.00036392 0)
(0.0959312 0.00035712 0)
(0.0954646 0.000351651 0)
(0.0950648 0.000345054 0)
(0.094602 0.000339982 0)
(0.0942196 0.000333572 0)
(0.0937588 0.00032891 0)
(0.0933951 0.000322675 0)
(0.0929341 0.000318438 0)
(0.0925908 0.00031237 0)
(0.0921266 0.000308578 0)
(0.0918061 0.000302679 0)
(0.0913351 0.00029935 0)
(0.0910405 0.00029364 0)
(0.0905583 0.000290788 0)
(0.0902935 0.000285313 0)
(0.0897945 0.000282944 0)
(0.0895648 0.000277795 0)
(0.0890415 0.000275912 0)
(0.0888539 0.000271216 0)
(0.0882967 0.00026992 0)
(0.0881604 0.0002658 0)
(0.0875568 0.000265691 0)
(0.0874838 0.000262524 0)
(0.0868188 0.000266754 0)
(0.193498 0.00771439 0)
(0.193876 0.00886057 0)
(0.194592 0.00993646 0)
(0.195678 0.0107294 0)
(0.196998 0.0111132 0)
(0.19833 0.0111264 0)
(0.199503 0.0108837 0)
(0.200449 0.0104841 0)
(0.201165 0.00999118 0)
(0.201674 0.00945105 0)
(0.202 0.00890646 0)
(0.20217 0.00839352 0)
(0.202214 0.00793363 0)
(0.202164 0.007532 0)
(0.202044 0.00718343 0)
(0.201871 0.00687891 0)
(0.201655 0.0066095 0)
(0.201399 0.00636768 0)
(0.201103 0.0061475 0)
(0.200767 0.00594442 0)
(0.200391 0.00575507 0)
(0.199976 0.00557706 0)
(0.19952 0.00540866 0)
(0.199025 0.00524865 0)
(0.198491 0.00509612 0)
(0.19792 0.00495036 0)
(0.197312 0.00481081 0)
(0.19667 0.00467694 0)
(0.195995 0.00454833 0)
(0.195287 0.00442457 0)
(0.19455 0.00430531 0)
(0.193783 0.00419023 0)
(0.19299 0.00407905 0)
(0.192171 0.00397154 0)
(0.191328 0.00386746 0)
(0.190464 0.00376665 0)
(0.189578 0.00366893 0)
(0.188674 0.00357415 0)
(0.187753 0.00348221 0)
(0.186815 0.00339297 0)
(0.185864 0.00330634 0)
(0.1849 0.00322222 0)
(0.183925 0.00314054 0)
(0.182939 0.00306121 0)
(0.181945 0.00298416 0)
(0.180944 0.00290933 0)
(0.179937 0.00283664 0)
(0.178924 0.00276603 0)
(0.177908 0.00269744 0)
(0.176889 0.00263082 0)
(0.175868 0.00256611 0)
(0.174847 0.00250326 0)
(0.173825 0.0024422 0)
(0.172804 0.0023829 0)
(0.171784 0.00232529 0)
(0.170767 0.00226934 0)
(0.169753 0.00221498 0)
(0.168742 0.00216219 0)
(0.167735 0.0021109 0)
(0.166733 0.00206108 0)
(0.165736 0.00201268 0)
(0.164744 0.00196566 0)
(0.163758 0.00191998 0)
(0.162778 0.0018756 0)
(0.161805 0.00183247 0)
(0.160839 0.00179057 0)
(0.15988 0.00174984 0)
(0.158928 0.00171027 0)
(0.157984 0.0016718 0)
(0.157047 0.00163441 0)
(0.156119 0.00159806 0)
(0.155198 0.00156273 0)
(0.154286 0.00152837 0)
(0.153381 0.00149496 0)
(0.152486 0.00146246 0)
(0.151598 0.00143087 0)
(0.15072 0.00140012 0)
(0.149849 0.00137022 0)
(0.148988 0.00134111 0)
(0.148134 0.00131281 0)
(0.14729 0.00128524 0)
(0.146453 0.00125843 0)
(0.145626 0.0012323 0)
(0.144806 0.00120689 0)
(0.143997 0.00118212 0)
(0.143194 0.00115802 0)
(0.142401 0.00113451 0)
(0.141615 0.00111165 0)
(0.140839 0.00108933 0)
(0.140069 0.00106763 0)
(0.13931 0.00104642 0)
(0.138556 0.00102581 0)
(0.137814 0.00100565 0)
(0.137076 0.000986049 0)
(0.13635 0.00096687 0)
(0.135628 0.00094823 0)
(0.134917 0.000929969 0)
(0.13421 0.00091223 0)
(0.133516 0.000894831 0)
(0.132824 0.000877939 0)
(0.132145 0.000861347 0)
(0.131467 0.000845254 0)
(0.130804 0.000829419 0)
(0.13014 0.000814077 0)
(0.129493 0.000798953 0)
(0.128842 0.000784321 0)
(0.128209 0.000769863 0)
(0.127572 0.000755901 0)
(0.126954 0.00074207 0)
(0.126329 0.000728742 0)
(0.125727 0.000715499 0)
(0.125114 0.000702773 0)
(0.124526 0.000690084 0)
(0.123924 0.000677929 0)
(0.123352 0.000665761 0)
(0.122761 0.000654152 0)
(0.122203 0.000642476 0)
(0.121622 0.000631389 0)
(0.12108 0.000620177 0)
(0.120508 0.000609592 0)
(0.119982 0.000598821 0)
(0.119417 0.000588719 0)
(0.118908 0.000578369 0)
(0.11835 0.000568736 0)
(0.117857 0.00055879 0)
(0.117305 0.000549612 0)
(0.11683 0.000540058 0)
(0.116282 0.000531326 0)
(0.115826 0.000522156 0)
(0.11528 0.000513861 0)
(0.114844 0.000505075 0)
(0.114298 0.00049721 0)
(0.113885 0.000488817 0)
(0.113336 0.000481376 0)
(0.112947 0.000473396 0)
(0.112392 0.00046637 0)
(0.112031 0.000458841 0)
(0.111465 0.000452218 0)
(0.111135 0.000445202 0)
(0.110555 0.000438967 0)
(0.11026 0.000432557 0)
(0.109658 0.000426694 0)
(0.109405 0.000421013 0)
(0.108774 0.000415547 0)
(0.10857 0.000410714 0)
(0.107901 0.00040584 0)
(0.107754 0.000401932 0)
(0.107035 0.000398362 0)
(0.106957 0.000395727 0)
(0.106174 0.000395833 0)
(0.194196 0.00741329 0)
(0.194558 0.00836248 0)
(0.195172 0.00925348 0)
(0.196058 0.00995264 0)
(0.197138 0.0103516 0)
(0.198267 0.0104418 0)
(0.199307 0.0102934 0)
(0.200184 0.00999122 0)
(0.200879 0.00959861 0)
(0.201409 0.00915824 0)
(0.201796 0.00870375 0)
(0.202062 0.00826375 0)
(0.202232 0.00785849 0)
(0.20233 0.00749705 0)
(0.202377 0.00717911 0)
(0.202389 0.00689931 0)
(0.202374 0.00665098 0)
(0.202338 0.00642801 0)
(0.202281 0.00622547 0)
(0.202205 0.00603955 0)
(0.202108 0.00586732 0)
(0.201991 0.00570659 0)
(0.201852 0.00555568 0)
(0.201691 0.00541334 0)
(0.201509 0.00527857 0)
(0.201304 0.00515056 0)
(0.201077 0.00502865 0)
(0.200827 0.00491223 0)
(0.200555 0.00480079 0)
(0.20026 0.00469384 0)
(0.199943 0.00459098 0)
(0.199604 0.00449182 0)
(0.199242 0.00439603 0)
(0.198859 0.00430333 0)
(0.198453 0.00421345 0)
(0.198027 0.00412617 0)
(0.19758 0.00404131 0)
(0.197112 0.00395869 0)
(0.196625 0.00387817 0)
(0.196118 0.00379963 0)
(0.195592 0.00372294 0)
(0.195048 0.00364803 0)
(0.194487 0.00357481 0)
(0.193909 0.0035032 0)
(0.193314 0.00343314 0)
(0.192705 0.00336458 0)
(0.19208 0.00329746 0)
(0.191441 0.00323175 0)
(0.190789 0.0031674 0)
(0.190124 0.00310437 0)
(0.189448 0.00304264 0)
(0.18876 0.00298218 0)
(0.188062 0.00292295 0)
(0.187354 0.00286494 0)
(0.186638 0.00280812 0)
(0.185912 0.00275246 0)
(0.18518 0.00269795 0)
(0.18444 0.00264457 0)
(0.183694 0.00259229 0)
(0.182942 0.0025411 0)
(0.182185 0.00249098 0)
(0.181423 0.00244192 0)
(0.180658 0.00239388 0)
(0.179889 0.00234686 0)
(0.179117 0.00230084 0)
(0.178342 0.00225581 0)
(0.177566 0.00221173 0)
(0.176788 0.0021686 0)
(0.176009 0.0021264 0)
(0.175229 0.00208512 0)
(0.17445 0.00204473 0)
(0.17367 0.00200522 0)
(0.172891 0.00196657 0)
(0.172112 0.00192877 0)
(0.171335 0.00189179 0)
(0.170559 0.00185563 0)
(0.169786 0.00182025 0)
(0.169013 0.00178566 0)
(0.168244 0.00175182 0)
(0.167476 0.00171874 0)
(0.166712 0.00168637 0)
(0.16595 0.00165473 0)
(0.165192 0.00162377 0)
(0.164436 0.00159351 0)
(0.163685 0.00156389 0)
(0.162936 0.00153494 0)
(0.162193 0.00150661 0)
(0.161451 0.00147891 0)
(0.160716 0.0014518 0)
(0.159983 0.0014253 0)
(0.159257 0.00139936 0)
(0.158531 0.00137399 0)
(0.157814 0.00134915 0)
(0.157097 0.00132487 0)
(0.15639 0.00130108 0)
(0.155682 0.00127783 0)
(0.154985 0.00125505 0)
(0.154286 0.00123277 0)
(0.153599 0.00121094 0)
(0.152909 0.00118958 0)
(0.152233 0.00116866 0)
(0.151551 0.00114819 0)
(0.150886 0.00112812 0)
(0.150214 0.00110848 0)
(0.14956 0.00108924 0)
(0.148897 0.00107039 0)
(0.148254 0.00105192 0)
(0.1476 0.00103383 0)
(0.146969 0.0010161 0)
(0.146323 0.000998721 0)
(0.145704 0.000981695 0)
(0.145066 0.000964996 0)
(0.14446 0.000948645 0)
(0.14383 0.000932589 0)
(0.143237 0.000916884 0)
(0.142614 0.000901439 0)
(0.142035 0.000886355 0)
(0.141418 0.000871491 0)
(0.140853 0.000857008 0)
(0.140242 0.000842695 0)
(0.139692 0.000828797 0)
(0.139086 0.000815007 0)
(0.138551 0.000801683 0)
(0.137949 0.00078839 0)
(0.137431 0.000775634 0)
(0.136832 0.000762813 0)
(0.136332 0.000750627 0)
(0.135733 0.000738251 0)
(0.135253 0.000726646 0)
(0.134652 0.000714689 0)
(0.134194 0.000703685 0)
(0.13359 0.000692121 0)
(0.133155 0.000681751 0)
(0.132545 0.000670552 0)
(0.132137 0.000660866 0)
(0.131516 0.000650003 0)
(0.131138 0.000641068 0)
(0.130504 0.000630511 0)
(0.130159 0.000622416 0)
(0.129506 0.000612143 0)
(0.1292 0.000604999 0)
(0.128521 0.000595012 0)
(0.128261 0.000588935 0)
(0.127549 0.000579316 0)
(0.12734 0.000574395 0)
(0.126587 0.000565425 0)
(0.126438 0.000561733 0)
(0.125633 0.00055412 0)
(0.125555 0.000551988 0)
(0.124686 0.00054738 0)
(0.194806 0.00714307 0)
(0.195148 0.00793908 0)
(0.195681 0.00868127 0)
(0.196417 0.00928325 0)
(0.197308 0.00966558 0)
(0.198259 0.00980303 0)
(0.199167 0.00973094 0)
(0.199959 0.00951188 0)
(0.20061 0.00920293 0)
(0.201122 0.00884489 0)
(0.201513 0.00846684 0)
(0.201804 0.00809168 0)
(0.202013 0.00773679 0)
(0.20216 0.00741241 0)
(0.202261 0.00712143 0)
(0.202331 0.00686168 0)
(0.20238 0.0066288 0)
(0.202412 0.00641827 0)
(0.202432 0.00622625 0)
(0.202439 0.00604972 0)
(0.202435 0.00588633 0)
(0.202421 0.00573426 0)
(0.202395 0.00559205 0)
(0.202359 0.00545852 0)
(0.202312 0.00533271 0)
(0.202255 0.00521384 0)
(0.202186 0.00510121 0)
(0.202106 0.00499423 0)
(0.202015 0.00489237 0)
(0.201912 0.00479512 0)
(0.201798 0.00470207 0)
(0.201671 0.00461281 0)
(0.201532 0.00452699 0)
(0.20138 0.0044443 0)
(0.201216 0.00436444 0)
(0.201038 0.00428718 0)
(0.200848 0.00421228 0)
(0.200644 0.00413955 0)
(0.200426 0.00406882 0)
(0.200195 0.00399993 0)
(0.199951 0.00393275 0)
(0.199692 0.00386715 0)
(0.199421 0.00380302 0)
(0.199135 0.00374028 0)
(0.198836 0.00367883 0)
(0.198523 0.0036186 0)
(0.198197 0.00355953 0)
(0.197857 0.00350156 0)
(0.197505 0.00344463 0)
(0.197139 0.0033887 0)
(0.196762 0.00333373 0)
(0.196371 0.00327968 0)
(0.195969 0.00322652 0)
(0.195554 0.00317422 0)
(0.195128 0.00312276 0)
(0.194691 0.00307212 0)
(0.194242 0.00302227 0)
(0.193783 0.0029732 0)
(0.193314 0.00292489 0)
(0.192835 0.00287733 0)
(0.192346 0.00283051 0)
(0.191848 0.0027844 0)
(0.191342 0.00273902 0)
(0.190826 0.00269434 0)
(0.190303 0.00265035 0)
(0.189771 0.00260706 0)
(0.189233 0.00256444 0)
(0.188687 0.00252249 0)
(0.188135 0.00248122 0)
(0.187576 0.00244059 0)
(0.187011 0.00240063 0)
(0.186441 0.0023613 0)
(0.185866 0.00232262 0)
(0.185285 0.00228456 0)
(0.1847 0.00224714 0)
(0.18411 0.00221032 0)
(0.183518 0.00217413 0)
(0.18292 0.00213853 0)
(0.182321 0.00210354 0)
(0.181717 0.00206912 0)
(0.181112 0.00203531 0)
(0.180502 0.00200205 0)
(0.179893 0.00196938 0)
(0.179279 0.00193725 0)
(0.178667 0.0019057 0)
(0.178049 0.00187466 0)
(0.177434 0.00184419 0)
(0.176814 0.00181421 0)
(0.176198 0.0017848 0)
(0.175577 0.00175585 0)
(0.17496 0.00172746 0)
(0.174338 0.0016995 0)
(0.173722 0.0016721 0)
(0.173099 0.00164511 0)
(0.172485 0.00161867 0)
(0.171862 0.0015926 0)
(0.17125 0.00156708 0)
(0.170628 0.0015419 0)
(0.170019 0.00151728 0)
(0.169399 0.00149296 0)
(0.168793 0.0014692 0)
(0.168175 0.0014457 0)
(0.167573 0.00142278 0)
(0.166957 0.00140007 0)
(0.16636 0.00137796 0)
(0.165746 0.00135599 0)
(0.165155 0.00133466 0)
(0.164543 0.00131342 0)
(0.163959 0.00129284 0)
(0.16335 0.00127228 0)
(0.162773 0.00125245 0)
(0.162165 0.00123253 0)
(0.161597 0.00121342 0)
(0.160991 0.00119412 0)
(0.160431 0.00117571 0)
(0.159828 0.00115699 0)
(0.159278 0.00113927 0)
(0.158676 0.0011211 0)
(0.158136 0.00110407 0)
(0.157535 0.00108642 0)
(0.157007 0.00107006 0)
(0.156406 0.00105289 0)
(0.155892 0.00103722 0)
(0.155289 0.00102051 0)
(0.154789 0.00100554 0)
(0.154184 0.000989232 0)
(0.153701 0.00097498 0)
(0.153092 0.000959052 0)