/*--------------------------------*- C++ -*----------------------------------*\
| =========                 |                                                 |
| \\      /  F ield         | OpenFOAM: The Open Source CFD Toolbox           |
|  \\    /   O peration     | Version:  2.3.0                                 |
|   \\  /    A nd           | Web:      www.OpenFOAM.org                      |
|    \\/     M anipulation  |                                                 |
\*---------------------------------------------------------------------------*/
FoamFile
{
    version     2.0;
    format      ascii;
    class       surfaceScalarField;
    location    "0.25";
    object      phi_0;
}
// * * * * * * * * * * * * * * * * * * * * * * * * * * * * * * * * * * * * * //

dimensions      [0 3 -1 0 0 0 0];

internalField   nonuniform List<scalar> 
4357
(
4.9973e-08
2.04611e-09
-5.20192e-08
4.78195e-08
2.15357e-09
4.56561e-08
2.16334e-09
4.35088e-08
2.14732e-09
4.13896e-08
2.11916e-09
3.93096e-08
2.08009e-09
3.72773e-08
2.03226e-09
3.52996e-08
1.97765e-09
3.33821e-08
1.91754e-09
3.15294e-08
1.85267e-09
2.97459e-08
1.78354e-09
2.80353e-08
1.7106e-09
2.6401e-08
1.63428e-09
2.4846e-08
1.55506e-09
2.33725e-08
1.47347e-09
2.19824e-08
1.39007e-09
2.06769e-08
1.30552e-09
1.94564e-08
1.22048e-09
1.83207e-08
1.13569e-09
1.72688e-08
1.05187e-09
1.62991e-08
9.69768e-10
1.5409e-08
8.90074e-10
1.45956e-08
8.13447e-10
1.38551e-08
7.40466e-10
1.31835e-08
6.71621e-10
1.25762e-08
6.07296e-10
1.20284e-08
5.4776e-10
1.15352e-08
4.93167e-10
1.10917e-08
4.43553e-10
1.06928e-08
3.98852e-10
1.03339e-08
3.589e-10
1.00105e-08
3.23459e-10
9.71826e-09
2.92226e-10
9.4534e-09
2.64857e-10
9.21242e-09
2.40981e-10
8.9922e-09
2.20217e-10
8.79002e-09
2.02187e-10
8.60349e-09
1.86527e-10
8.4306e-09
1.72894e-10
8.26962e-09
1.60976e-10
8.11913e-09
1.50489e-10
7.97795e-09
1.41185e-10
7.8451e-09
1.32849e-10
7.7198e-09
1.25298e-10
7.60142e-09
1.18377e-10
7.48947e-09
1.11958e-10
7.38353e-09
1.05937e-10
7.2833e-09
1.00232e-10
7.18852e-09
9.47786e-11
7.09899e-09
8.95243e-11
7.01457e-09
8.44281e-11
6.93511e-09
7.94533e-11
6.86055e-09
7.45638e-11
6.79083e-09
6.97202e-11
6.72595e-09
6.48789e-11
6.66596e-09
5.99945e-11
6.61093e-09
5.5026e-11
6.56098e-09
4.99453e-11
6.51624e-09
4.47475e-11
6.47678e-09
3.94585e-11
6.44264e-09
3.41399e-11
6.41375e-09
2.88871e-11
6.38993e-09
2.38219e-11
6.37085e-09
1.90777e-11
6.35607e-09
1.47828e-11
6.34503e-09
1.10411e-11
6.33711e-09
7.91626e-12
6.33169e-09
5.42166e-12
6.32816e-09
3.53383e-12
6.32592e-09
2.23208e-12
6.3244e-09
1.52293e-12
6.32297e-09
1.43092e-12
6.32098e-09
1.98549e-12
6.3178e-09
3.18625e-12
6.31282e-09
4.97873e-12
6.30559e-09
7.23043e-12
6.29585e-09
9.73679e-12
6.28351e-09
1.23416e-11
6.26861e-09
1.49017e-11
6.25132e-09
1.72925e-11
6.23189e-09
1.94277e-11
6.21063e-09
2.12606e-11
6.18786e-09
2.27703e-11
6.1639e-09
2.39591e-11
6.13905e-09
2.48472e-11
6.11358e-09
2.54664e-11
6.08773e-09
2.58546e-11
6.06168e-09
2.60509e-11
6.03559e-09
2.60922e-11
6.00958e-09
2.60116e-11
5.98374e-09
2.58369e-11
5.95815e-09
2.55908e-11
5.93286e-09
2.52922e-11
5.9079e-09
2.49578e-11
5.88329e-09
2.46032e-11
5.85904e-09
2.4251e-11
5.83509e-09
2.3954e-11
5.81127e-09
2.38149e-11
5.78706e-09
2.42191e-11
4.57113e-11
5.77201e-08
2.15554e-09
-5.78296e-08
5.74784e-08
2.39533e-09
5.71023e-08
2.53941e-09
5.66128e-08
2.63684e-09
5.60244e-08
2.70755e-09
5.53487e-08
2.75578e-09
5.45968e-08
2.78414e-09
5.3779e-08
2.79551e-09
5.29045e-08
2.79202e-09
5.19821e-08
2.77501e-09
5.10202e-08
2.74549e-09
5.00265e-08
2.70431e-09
4.90084e-08
2.65235e-09
4.7973e-08
2.59048e-09
4.69268e-08
2.51967e-09
4.58759e-08
2.44094e-09
4.48261e-08
2.35539e-09
4.37823e-08
2.2642e-09
4.27494e-08
2.16861e-09
4.17314e-08
2.0699e-09
4.07318e-08
1.96934e-09
3.97537e-08
1.86819e-09
3.87995e-08
1.76761e-09
3.78713e-08
1.66871e-09
3.69705e-08
1.57244e-09
3.60981e-08
1.47963e-09
3.5255e-08
1.39094e-09
3.44413e-08
1.30686e-09
3.36571e-08
1.22773e-09
3.29022e-08
1.15371e-09
3.21763e-08
1.08484e-09
3.14787e-08
1.02103e-09
3.08089e-08
9.62093e-10
3.0166e-08
9.07767e-10
2.95492e-08
8.57731e-10
2.89578e-08
8.1163e-10
2.83909e-08
7.69092e-10
2.78477e-08
7.29745e-10
2.73273e-08
6.93226e-10
2.68291e-08
6.59191e-10
2.63523e-08
6.27319e-10
2.58962e-08
5.97319e-10
2.54601e-08
5.68934e-10
2.50434e-08
5.41935e-10
2.46457e-08
5.16117e-10
2.42663e-08
4.91308e-10
2.39049e-08
4.67358e-10
2.3561e-08
4.44137e-10
2.32343e-08
4.21536e-10
2.29243e-08
3.99459e-10
2.26309e-08
3.77818e-10
2.23539e-08
3.56529e-10
2.20929e-08
3.35507e-10
2.1848e-08
3.14662e-10
2.16189e-08
2.93906e-10
2.14058e-08
2.73158e-10
2.12084e-08
2.52363e-10
2.10269e-08
2.31507e-10
2.0861e-08
2.10644e-10
2.07105e-08
1.89905e-10
2.05752e-08
1.69508e-10
2.04543e-08
1.49747e-10
2.03472e-08
1.30974e-10
2.02527e-08
1.13556e-10
2.01696e-08
9.78403e-11
2.00966e-08
8.41044e-11
2.00319e-08
7.25311e-11
1.99742e-08
6.31989e-11
1.99216e-08
5.61129e-11
1.98726e-08
5.12622e-11
1.98254e-08
4.86611e-11
1.97785e-08
4.83328e-11
1.97303e-08
5.02479e-11
1.96792e-08
5.42657e-11
1.9624e-08
6.01099e-11
1.95639e-08
6.73821e-11
1.9498e-08
7.55905e-11
1.94261e-08
8.42456e-11
1.93481e-08
9.28917e-11
1.92643e-08
1.01138e-10
1.9175e-08
1.08701e-10
1.90809e-08
1.1541e-10
1.89825e-08
1.21174e-10
1.88805e-08
1.25978e-10
1.87754e-08
1.29862e-10
1.8668e-08
1.32904e-10
1.85586e-08
1.35208e-10
1.84478e-08
1.36884e-10
1.83359e-08
1.38041e-10
1.82231e-08
1.38779e-10
1.81098e-08
1.39185e-10
1.7996e-08
1.39332e-10
1.7882e-08
1.39283e-10
1.77679e-08
1.39093e-10
1.76537e-08
1.38814e-10
1.75394e-08
1.38517e-10
1.7425e-08
1.38342e-10
1.73101e-08
1.38728e-10
1.71913e-08
1.42978e-10
1.67639e-10
6.27694e-08
2.14723e-09
-6.27611e-08
6.27822e-08
2.38252e-09
6.27668e-08
2.55482e-09
6.27149e-08
2.68875e-09
6.2623e-08
2.7994e-09
6.2488e-08
2.89078e-09
6.2308e-08
2.96414e-09
6.20826e-08
3.02095e-09
6.18121e-08
3.06253e-09
6.14974e-08
3.08969e-09
6.11399e-08
3.10295e-09
6.07415e-08
3.10274e-09
6.03043e-08
3.08956e-09
5.98308e-08
3.06395e-09
5.93239e-08
3.02661e-09
5.87865e-08
2.97833e-09
5.82218e-08
2.92007e-09
5.76331e-08
2.85292e-09
5.70236e-08
2.77808e-09
5.63967e-08
2.69684e-09
5.57555e-08
2.61057e-09
5.5103e-08
2.52063e-09
5.44423e-08
2.42836e-09
5.37759e-08
2.33505e-09
5.31065e-08
2.24189e-09
5.24362e-08
2.14994e-09
5.1767e-08
2.06009e-09
5.11008e-08
1.97308e-09
5.0439e-08
1.88949e-09
4.97831e-08
1.80969e-09
4.9134e-08
1.73392e-09
4.84927e-08
1.66228e-09
4.78601e-08
1.59473e-09
4.72367e-08
1.53114e-09
4.66231e-08
1.4713e-09
4.60198e-08
1.41493e-09
4.54272e-08
1.36174e-09
4.48456e-08
1.31138e-09
4.42752e-08
1.26354e-09
4.37166e-08
1.21788e-09
4.31698e-08
1.17409e-09
4.26352e-08
1.13189e-09
4.21131e-08
1.09101e-09
4.16039e-08
1.05121e-09
4.11077e-08
1.01228e-09
4.0625e-08
9.7403e-10
4.0156e-08
9.3629e-10
3.97013e-08
8.98918e-10
3.9261e-08
8.61786e-10
3.88357e-08
8.2478e-10
3.84257e-08
7.87793e-10
3.80315e-08
7.50723e-10
3.76536e-08
7.1347e-10
3.72923e-08
6.75938e-10
3.69481e-08
6.38043e-10
3.66216e-08
5.99733e-10
3.63129e-08
5.61004e-10
3.60225e-08
5.21931e-10
3.57505e-08
4.82695e-10
3.54968e-08
4.43593e-10
3.52612e-08
4.05046e-10
3.50434e-08
3.67582e-10
3.48426e-08
3.31798e-10
3.46578e-08
2.98314e-10
3.44879e-08
2.67708e-10
3.43316e-08
2.40471e-10
3.41871e-08
2.16963e-10
3.40529e-08
1.97414e-10
3.39271e-08
1.81958e-10
3.38077e-08
1.70679e-10
3.36927e-08
1.63644e-10
3.35801e-08
1.6087e-10
3.34681e-08
1.62259e-10
3.33549e-08
1.67532e-10
3.32388e-08
1.76208e-10
3.31185e-08
1.87632e-10
3.29931e-08
2.01028e-10
3.28617e-08
2.15599e-10
3.2724e-08
2.30587e-10
3.25798e-08
2.45327e-10
3.24292e-08
2.5931e-10
3.22725e-08
2.72176e-10
3.211e-08
2.83698e-10
3.19422e-08
2.9377e-10
3.17696e-08
3.02384e-10
3.15929e-08
3.0961e-10
3.14126e-08
3.15566e-10
3.12291e-08
3.20397e-10
3.10428e-08
3.24259e-10
3.08543e-08
3.27303e-10
3.06638e-08
3.29669e-10
3.04717e-08
3.31482e-10
3.02781e-08
3.3285e-10
3.00833e-08
3.33874e-10
2.98875e-08
3.34652e-10
2.96907e-08
3.35314e-10
2.94929e-08
3.36117e-10
2.92938e-08
3.37882e-10
2.90927e-08
3.44056e-10
3.60065e-10
6.80122e-08
2.17014e-09
-6.80351e-08
6.80175e-08
2.3772e-09
6.80257e-08
2.54664e-09
6.80277e-08
2.68674e-09
6.80207e-08
2.80641e-09
6.80021e-08
2.90937e-09
6.79694e-08
2.99686e-09
6.79204e-08
3.06992e-09
6.78534e-08
3.12956e-09
6.77666e-08
3.17647e-09
6.76585e-08
3.21101e-09
6.75278e-08
3.23343e-09
6.73735e-08
3.24395e-09
6.71946e-08
3.24284e-09
6.69907e-08
3.23046e-09
6.67617e-08
3.2073e-09
6.65078e-08
3.17398e-09
6.62295e-08
3.13128e-09
6.59275e-08
3.08009e-09
6.56029e-08
3.02145e-09
6.5257e-08
2.95648e-09
6.48912e-08
2.88636e-09
6.45073e-08
2.81229e-09
6.41069e-08
2.73547e-09
6.36917e-08
2.65703e-09
6.32636e-08
2.57802e-09
6.28244e-08
2.49938e-09
6.23755e-08
2.4219e-09
6.19188e-08
2.34623e-09
6.14556e-08
2.27289e-09
6.09873e-08
2.20221e-09
6.05152e-08
2.13441e-09
6.00403e-08
2.06959e-09
5.95637e-08
2.00773e-09
5.90863e-08
1.94871e-09
5.86089e-08
1.89235e-09
5.81322e-08
1.83844e-09
5.76569e-08
1.78671e-09
5.71835e-08
1.73688e-09
5.67128e-08
1.68865e-09
5.62451e-08
1.64175e-09
5.57811e-08
1.59589e-09
5.53213e-08
1.55083e-09
5.48662e-08
1.5063e-09
5.44164e-08
1.4621e-09
5.39724e-08
1.41801e-09
5.35348e-08
1.37386e-09
5.31042e-08
1.32949e-09
5.26813e-08
1.28474e-09
5.22666e-08
1.23948e-09
5.18608e-08
1.19358e-09
5.14646e-08
1.14693e-09
5.10786e-08
1.09942e-09
5.07036e-08
1.05095e-09
5.03402e-08
1.00145e-09
4.9989e-08
9.50928e-10
4.96506e-08
8.9943e-10
4.93254e-08
8.47125e-10
4.90138e-08
7.94308e-10
4.8716e-08
7.41418e-10
4.8432e-08
6.89036e-10
4.81617e-08
6.37862e-10
4.79048e-08
5.88677e-10
4.76609e-08
5.42278e-10
4.74291e-08
4.99423e-10
4.72088e-08
4.6077e-10
4.6999e-08
4.26846e-10
4.67983e-08
3.98038e-10
4.66057e-08
3.74624e-10
4.64195e-08
3.56803e-10
4.62385e-08
3.44711e-10
4.6061e-08
3.38381e-10
4.58855e-08
3.37684e-10
4.57108e-08
3.42269e-10
4.55355e-08
3.51549e-10
4.53584e-08
3.64735e-10
4.51785e-08
3.80901e-10
4.4995e-08
3.99078e-10
4.48073e-08
4.1833e-10
4.46148e-08
4.37815e-10
4.44172e-08
4.56852e-10
4.42145e-08
4.74926e-10
4.40065e-08
4.91677e-10
4.37934e-08
5.0689e-10
4.35753e-08
5.20476e-10
4.33525e-08
5.32442e-10
4.31252e-08
5.42868e-10
4.28937e-08
5.51878e-10
4.26583e-08
5.59621e-10
4.24194e-08
5.66251e-10
4.21771e-08
5.71919e-10
4.19318e-08
5.76766e-10
4.16838e-08
5.8092e-10
4.14331e-08
5.84504e-10
4.11801e-08
5.87646e-10
4.09249e-08
5.90511e-10
4.06677e-08
5.93402e-10
4.04085e-08
5.97079e-10
4.01494e-08
6.03158e-10
6.08632e-10
7.3655e-08
2.22813e-09
-7.3713e-08
7.36256e-08
2.40659e-09
7.36087e-08
2.56356e-09
7.3596e-08
2.69946e-09
7.35843e-08
2.81814e-09
7.35714e-08
2.92218e-09
7.35556e-08
3.01273e-09
7.35349e-08
3.09054e-09
7.35081e-08
3.15636e-09
7.34739e-08
3.21075e-09
7.34308e-08
3.2541e-09
7.33776e-08
3.28664e-09
7.33129e-08
3.30859e-09
7.32356e-08
3.32015e-09
7.31445e-08
3.32161e-09
7.30384e-08
3.31332e-09
7.29167e-08
3.29574e-09
7.27785e-08
3.26944e-09
7.26235e-08
3.23512e-09
7.24514e-08
3.19356e-09
7.22622e-08
3.14565e-09
7.20562e-08
3.09235e-09
7.18339e-08
3.03464e-09
7.15958e-08
2.97353e-09
7.13428e-08
2.90999e-09
7.10759e-08
2.84495e-09
7.07961e-08
2.77925e-09
7.05043e-08
2.71363e-09
7.02018e-08
2.64874e-09
6.98896e-08
2.58508e-09
6.95688e-08
2.52303e-09
6.92403e-08
2.46287e-09
6.89052e-08
2.40473e-09
6.85642e-08
2.34869e-09
6.82183e-08
2.29469e-09
6.7868e-08
2.24264e-09
6.7514e-08
2.19237e-09
6.71571e-08
2.14368e-09
6.67976e-08
2.09633e-09
6.64362e-08
2.05009e-09
6.60733e-08
2.00468e-09
6.57093e-08
1.95985e-09
6.53448e-08
1.91536e-09
6.49801e-08
1.87097e-09
6.46157e-08
1.82645e-09
6.42522e-08
1.78159e-09
6.38898e-08
1.7362e-09
6.35292e-08
1.6901e-09
6.31708e-08
1.64312e-09
6.28152e-08
1.59511e-09
6.24629e-08
1.54592e-09
6.21144e-08
1.49544e-09
6.17702e-08
1.44355e-09
6.1431e-08
1.39017e-09
6.10972e-08
1.33525e-09
6.07693e-08
1.27881e-09
6.04478e-08
1.22097e-09
6.01329e-08
1.16196e-09
5.98251e-08
1.10213e-09
5.95245e-08
1.042e-09
5.92314e-08
9.8223e-10
5.89456e-08
9.23604e-10
5.86673e-08
8.66978e-10
5.83964e-08
8.13236e-10
5.81326e-08
7.63224e-10
5.78756e-08
7.17698e-10
5.76252e-08
6.77292e-10
5.73807e-08
6.42507e-10
5.71416e-08
6.13726e-10
5.69072e-08
5.91234e-10
5.66767e-08
5.75215e-10
5.64493e-08
5.65725e-10
5.62244e-08
5.62631e-10
5.60011e-08
5.65573e-10
5.57787e-08
5.73954e-10
5.55564e-08
5.8697e-10
5.53337e-08
6.03675e-10
5.51097e-08
6.23065e-10
5.48838e-08
6.44158e-10
5.46556e-08
6.66053e-10
5.44245e-08
6.87988e-10
5.419e-08
7.09362e-10
5.3952e-08
7.29731e-10
5.37101e-08
7.48801e-10
5.34641e-08
7.66404e-10
5.32141e-08
7.8248e-10
5.29599e-08
7.97049e-10
5.27016e-08
8.10186e-10
5.24392e-08
8.21999e-10
5.21729e-08
8.32612e-10
5.19026e-08
8.42153e-10
5.16287e-08
8.50745e-10
5.13511e-08
8.58507e-10
5.107e-08
8.65554e-10
5.07857e-08
8.72008e-10
5.04982e-08
8.78022e-10
5.02077e-08
8.83827e-10
4.9915e-08
8.89774e-10
4.96225e-08
8.95662e-10
8.95323e-10
7.97461e-08
2.31229e-09
-7.98302e-08
7.96866e-08
2.46605e-09
7.96424e-08
2.60774e-09
7.96066e-08
2.73532e-09
7.95752e-08
2.84951e-09
7.9546e-08
2.95144e-09
7.95169e-08
3.04175e-09
7.94866e-08
3.12087e-09
7.94538e-08
3.18918e-09
7.94175e-08
3.24707e-09
7.93767e-08
3.29486e-09
7.93306e-08
3.33276e-09
7.92782e-08
3.361e-09
7.92185e-08
3.3798e-09
7.91507e-08
3.38941e-09
7.90739e-08
3.39017e-09
7.89871e-08
3.38248e-09
7.88898e-08
3.3668e-09
7.87812e-08
3.34372e-09
7.86608e-08
3.31389e-09
7.85284e-08
3.27804e-09
7.83838e-08
3.23695e-09
7.8227e-08
3.19145e-09
7.80582e-08
3.14237e-09
7.78776e-08
3.09055e-09
7.76858e-08
3.03677e-09
7.74833e-08
2.98177e-09
7.72707e-08
2.92623e-09
7.70487e-08
2.87071e-09
7.68181e-08
2.81571e-09
7.65795e-08
2.76159e-09
7.63338e-08
2.70865e-09
7.60814e-08
2.65706e-09
7.58232e-08
2.60692e-09
7.55596e-08
2.55824e-09
7.52913e-08
2.51098e-09
7.50187e-08
2.46501e-09
7.47422e-08
2.42019e-09
7.44622e-08
2.37633e-09
7.4179e-08
2.33322e-09
7.38931e-08
2.29064e-09
7.36045e-08
2.24836e-09
7.33138e-08
2.20614e-09
7.3021e-08
2.16377e-09
7.27264e-08
2.12101e-09
7.24303e-08
2.07767e-09
7.2133e-08
2.03354e-09
7.18347e-08
1.98844e-09
7.15356e-08
1.94219e-09
7.12361e-08
1.89464e-09
7.09364e-08
1.84563e-09
7.06368e-08
1.79505e-09
7.03375e-08
1.74278e-09
7.00389e-08
1.68875e-09
6.97412e-08
1.63295e-09
6.94446e-08
1.57541e-09
6.91493e-08
1.51628e-09
6.88555e-08
1.4558e-09
6.85632e-08
1.39437e-09
6.82727e-08
1.33251e-09
6.79841e-08
1.27089e-09
6.76974e-08
1.21029e-09
6.74128e-08
1.15155e-09
6.71305e-08
1.09556e-09
6.68505e-08
1.04318e-09
6.65731e-08
9.95179e-10
6.62981e-08
9.52239e-10
6.60257e-08
9.14915e-10
6.57558e-08
8.83647e-10
6.54882e-08
8.58763e-10
6.5223e-08
8.40477e-10
6.49598e-08
8.28859e-10
6.46987e-08
8.23796e-10
6.44393e-08
8.24959e-10
6.41815e-08
8.31799e-10
6.39248e-08
8.43575e-10
6.36691e-08
8.59409e-10
6.34138e-08
8.78357e-10
6.31585e-08
8.99481e-10
6.29026e-08
9.21905e-10
6.26458e-08
9.44868e-10
6.23874e-08
9.67745e-10
6.21271e-08
9.90059e-10
6.18644e-08
1.01147e-09
6.1599e-08
1.03175e-09
6.13307e-08
1.05079e-09
6.10592e-08
1.06856e-09
6.07843e-08
1.08508e-09
6.05059e-08
1.10041e-09
6.02239e-08
1.11463e-09
5.99382e-08
1.12783e-09
5.96489e-08
1.1401e-09
5.93558e-08
1.15154e-09
5.90592e-08
1.16223e-09
5.87589e-08
1.17226e-09
5.84552e-08
1.18174e-09
5.81482e-08
1.19076e-09
5.78388e-08
1.19926e-09
5.75282e-08
1.20618e-09
1.20627e-09
8.63214e-08
2.4173e-09
-8.64265e-08
8.62364e-08
2.55106e-09
8.61662e-08
2.67801e-09
8.61056e-08
2.79584e-09
8.60513e-08
2.90383e-09
8.60008e-08
3.00199e-09
8.59521e-08
3.09043e-09
8.59037e-08
3.16922e-09
8.58544e-08
3.23847e-09
8.58032e-08
3.29837e-09
8.57489e-08
3.34908e-09
8.56909e-08
3.39077e-09
8.56283e-08
3.42361e-09
8.55603e-08
3.44779e-09
8.54862e-08
3.46354e-09
8.54052e-08
3.47115e-09
8.53167e-08
3.47096e-09
8.52201e-08
3.46339e-09
8.5115e-08
3.44892e-09
8.50007e-08
3.4281e-09
8.48772e-08
3.40156e-09
8.47442e-08
3.36995e-09
8.46017e-08
3.33398e-09
8.44497e-08
3.29434e-09
8.42885e-08
3.25176e-09
8.41184e-08
3.20692e-09
8.39397e-08
3.16046e-09
8.37529e-08
3.11299e-09
8.35586e-08
3.06503e-09
8.33573e-08
3.01703e-09
8.31495e-08
2.96936e-09
8.29358e-08
2.92231e-09
8.27168e-08
2.87607e-09
8.2493e-08
2.83078e-09
8.22647e-08
2.78648e-09
8.20325e-08
2.74319e-09
8.17967e-08
2.70082e-09
8.15576e-08
2.65929e-09
8.13155e-08
2.61844e-09
8.10706e-08
2.57812e-09
8.08231e-08
2.53813e-09
8.05732e-08
2.49829e-09
8.0321e-08
2.45838e-09
8.00665e-08
2.4182e-09
7.981e-08
2.37755e-09
7.95514e-08
2.33624e-09
7.92909e-08
2.29407e-09
7.90284e-08
2.25087e-09
7.87642e-08
2.20646e-09
7.84981e-08
2.1607e-09
7.82303e-08
2.11344e-09
7.79608e-08
2.06456e-09
7.76896e-08
2.01397e-09
7.74168e-08
1.96161e-09
7.71422e-08
1.90748e-09
7.6866e-08
1.85164e-09
7.6588e-08
1.79425e-09
7.63083e-08
1.73555e-09
7.60267e-08
1.67592e-09
7.57434e-08
1.61586e-09
7.54583e-08
1.556e-09
7.51715e-08
1.49706e-09
7.48832e-08
1.43982e-09
7.45937e-08
1.38512e-09
7.43031e-08
1.33375e-09
7.40118e-08
1.28647e-09
7.37201e-08
1.24394e-09
7.34283e-08
1.20673e-09
7.31367e-08
1.17528e-09
7.28455e-08
1.14994e-09
7.2555e-08
1.13094e-09
7.22655e-08
1.11834e-09
7.19772e-08
1.11208e-09
7.16903e-08
1.11186e-09
7.14049e-08
1.11721e-09
7.1121e-08
1.12749e-09
7.08385e-08
1.14193e-09
7.05572e-08
1.15969e-09
7.02767e-08
1.17993e-09
6.99968e-08
1.20183e-09
6.9717e-08
1.22469e-09
6.94368e-08
1.2479e-09
6.91559e-08
1.27098e-09
6.88738e-08
1.29358e-09
6.85901e-08
1.31544e-09
6.83045e-08
1.33641e-09
6.80166e-08
1.35642e-09
6.77263e-08
1.37544e-09
6.74332e-08
1.3935e-09
6.71372e-08
1.41063e-09
6.68381e-08
1.4269e-09
6.65359e-08
1.44236e-09
6.62303e-08
1.45707e-09
6.59215e-08
1.47109e-09
6.56093e-08
1.48446e-09
6.52938e-08
1.49724e-09
6.49751e-08
1.50938e-09
6.46538e-08
1.52063e-09
6.433e-08
1.52998e-09
1.53468e-09
9.34194e-08
2.54107e-09
-9.35431e-08
9.33115e-08
2.65893e-09
9.32166e-08
2.77286e-09
9.31316e-08
2.88092e-09
9.30534e-08
2.98196e-09
9.298e-08
3.07541e-09
9.29095e-08
3.16096e-09
9.28403e-08
3.23842e-09
9.27711e-08
3.30768e-09
9.27007e-08
3.36872e-09
9.26282e-08
3.42157e-09
9.25527e-08
3.46629e-09
9.24734e-08
3.50298e-09
9.23894e-08
3.53176e-09
9.23001e-08
3.55282e-09
9.22049e-08
3.56638e-09
9.21031e-08
3.57273e-09
9.19943e-08
3.5722e-09
9.1878e-08
3.56522e-09
9.17539e-08
3.55223e-09
9.16217e-08
3.53376e-09
9.14812e-08
3.51037e-09
9.13326e-08
3.48263e-09
9.11758e-08
3.45117e-09
9.10109e-08
3.41658e-09
9.08384e-08
3.37947e-09
9.06585e-08
3.3404e-09
9.04715e-08
3.2999e-09
9.02781e-08
3.25846e-09
9.00786e-08
3.2165e-09
8.98736e-08
3.17436e-09
8.96636e-08
3.13234e-09
8.9449e-08
3.09066e-09
8.92303e-08
3.04946e-09
8.9008e-08
3.00885e-09
8.87823e-08
2.96886e-09
8.85537e-08
2.92946e-09
8.83223e-08
2.89062e-09
8.80886e-08
2.85223e-09
8.78525e-08
2.81417e-09
8.76143e-08
2.7763e-09
8.73742e-08
2.73846e-09
8.71321e-08
2.70049e-09
8.6888e-08
2.66221e-09
8.66421e-08
2.62345e-09
8.63944e-08
2.58403e-09
8.61446e-08
2.54379e-09
8.58929e-08
2.50256e-09
8.56392e-08
2.46019e-09
8.53834e-08
2.41655e-09
8.51253e-08
2.3715e-09
8.48649e-08
2.32496e-09
8.4602e-08
2.27683e-09
8.43366e-08
2.2271e-09
8.40683e-08
2.17576e-09
8.3797e-08
2.1229e-09
8.35226e-08
2.06866e-09
8.32449e-08
2.01329e-09
8.29636e-08
1.95714e-09
8.26788e-08
1.90067e-09
8.23904e-08
1.84444e-09
8.20984e-08
1.78908e-09
8.18029e-08
1.7353e-09
8.15042e-08
1.68384e-09
8.12025e-08
1.63543e-09
8.08982e-08
1.59075e-09
8.05917e-08
1.55043e-09
8.02835e-08
1.515e-09
7.99738e-08
1.4849e-09
7.96633e-08
1.46046e-09
7.93524e-08
1.4419e-09
7.90414e-08
1.42932e-09
7.87308e-08
1.42264e-09
7.8421e-08
1.42164e-09
7.81123e-08
1.42594e-09
7.78048e-08
1.43498e-09
7.74986e-08
1.44811e-09
7.71937e-08
1.46462e-09
7.68899e-08
1.48376e-09
7.65869e-08
1.50482e-09
7.62844e-08
1.52715e-09
7.59821e-08
1.5502e-09
7.56796e-08
1.57349e-09
7.53765e-08
1.59667e-09
7.50725e-08
1.61948e-09
7.47672e-08
1.64174e-09
7.44602e-08
1.66335e-09
7.41514e-08
1.68425e-09
7.38405e-08
1.70443e-09
7.35272e-08
1.7239e-09
7.32114e-08
1.74268e-09
7.2893e-08
1.76081e-09
7.25717e-08
1.77832e-09
7.22476e-08
1.79523e-09
7.19205e-08
1.81157e-09
7.15904e-08
1.82732e-09
7.12574e-08
1.84239e-09
7.09215e-08
1.85653e-09
7.05823e-08
1.86921e-09
1.87977e-09
1.01082e-07
2.68301e-09
-1.01224e-07
1.00952e-07
2.7883e-09
1.00834e-07
2.89126e-09
1.00725e-07
2.99038e-09
1.00622e-07
3.08454e-09
1.00524e-07
3.17297e-09
1.0043e-07
3.25512e-09
1.00338e-07
3.33064e-09
1.00247e-07
3.39924e-09
1.00154e-07
3.46077e-09
1.00061e-07
3.51512e-09
9.9965e-08
3.56226e-09
9.98657e-08
3.6022e-09
9.97625e-08
3.635e-09
9.96546e-08
3.66076e-09
9.95413e-08
3.67966e-09
9.94221e-08
3.69192e-09
9.92965e-08
3.69779e-09
9.91641e-08
3.69762e-09
9.90245e-08
3.69178e-09
9.88776e-08
3.68069e-09
9.87232e-08
3.66481e-09
9.85612e-08
3.64464e-09
9.83916e-08
3.62069e-09
9.82147e-08
3.59347e-09
9.80307e-08
3.5635e-09
9.78398e-08
3.53128e-09
9.76425e-08
3.49727e-09
9.7439e-08
3.46191e-09
9.72299e-08
3.42559e-09
9.70156e-08
3.38864e-09
9.67966e-08
3.35135e-09
9.65733e-08
3.31394e-09
9.63462e-08
3.2766e-09
9.61156e-08
3.23944e-09
9.58819e-08
3.20253e-09
9.56455e-08
3.16591e-09
9.54066e-08
3.12955e-09
9.51654e-08
3.09341e-09
9.49221e-08
3.05741e-09
9.4677e-08
3.02146e-09
9.443e-08
2.98544e-09
9.41813e-08
2.94922e-09
9.39308e-08
2.91267e-09
9.36786e-08
2.87563e-09
9.34247e-08
2.83797e-09
9.31689e-08
2.79955e-09
9.29112e-08
2.76023e-09
9.26515e-08
2.71989e-09
9.23897e-08
2.6784e-09
9.21255e-08
2.63568e-09
9.18588e-08
2.59163e-09
9.15894e-08
2.54621e-09
9.13171e-08
2.49941e-09
9.10416e-08
2.45124e-09
9.07627e-08
2.4018e-09
9.04801e-08
2.35124e-09
9.01936e-08
2.29979e-09
8.9903e-08
2.24777e-09
8.96081e-08
2.19558e-09
8.93088e-08
2.14372e-09
8.90052e-08
2.09274e-09
8.86972e-08
2.04326e-09
8.83851e-08
1.99593e-09
8.80692e-08
1.95138e-09
8.77497e-08
1.91023e-09
8.74271e-08
1.87304e-09
8.71018e-08
1.84031e-09
8.67742e-08
1.81243e-09
8.6445e-08
1.78972e-09
8.61145e-08
1.77239e-09
8.57833e-08
1.76053e-09
8.54518e-08
1.75411e-09
8.51205e-08
1.75293e-09
8.47898e-08
1.75669e-09
8.44598e-08
1.76494e-09
8.41308e-08
1.77714e-09
8.38027e-08
1.79268e-09
8.34755e-08
1.81092e-09
8.31491e-08
1.83124e-09
8.28232e-08
1.85308e-09
8.24975e-08
1.87591e-09
8.21717e-08
1.8993e-09
8.18454e-08
1.92291e-09
8.15184e-08
1.94647e-09
8.11904e-08
1.96978e-09
8.0861e-08
1.99272e-09
8.05301e-08
2.0152e-09
8.01973e-08
2.0372e-09
7.98625e-08
2.05869e-09
7.95255e-08
2.07967e-09
7.91862e-08
2.10015e-09
7.88444e-08
2.12014e-09
7.84999e-08
2.13965e-09
7.81528e-08
2.15868e-09
7.7803e-08
2.17718e-09
7.74503e-08
2.19507e-09
7.70946e-08
2.21222e-09
7.67353e-08
2.22852e-09
2.24419e-09
1.09354e-07
2.8434e-09
-1.09515e-07
1.09204e-07
2.93885e-09
1.09062e-07
3.03284e-09
1.08928e-07
3.12427e-09
1.08801e-07
3.21218e-09
1.08678e-07
3.29577e-09
1.08558e-07
3.37445e-09
1.08441e-07
3.44775e-09
1.08325e-07
3.51531e-09
1.08209e-07
3.57686e-09
1.08092e-07
3.63221e-09
1.07973e-07
3.68124e-09
1.07851e-07
3.72389e-09
1.07726e-07
3.76015e-09
1.07597e-07
3.79006e-09
1.07463e-07
3.81373e-09
1.07324e-07
3.8313e-09
1.07178e-07
3.84298e-09
1.07027e-07
3.84902e-09
1.06869e-07
3.84972e-09
1.06704e-07
3.84541e-09
1.06533e-07
3.83648e-09
1.06354e-07
3.82333e-09
1.06168e-07
3.80637e-09
1.05976e-07
3.78606e-09
1.05776e-07
3.76283e-09
1.05571e-07
3.73709e-09
1.05359e-07
3.70928e-09
1.05141e-07
3.67977e-09
1.04917e-07
3.64892e-09
1.04689e-07
3.61704e-09
1.04456e-07
3.58441e-09
1.04219e-07
3.55127e-09
1.03977e-07
3.51779e-09
1.03733e-07
3.48413e-09
1.03485e-07
3.45037e-09
1.03234e-07
3.41658e-09
1.02981e-07
3.38279e-09
1.02725e-07
3.34899e-09
1.02468e-07
3.31513e-09
1.02208e-07
3.28118e-09
1.01946e-07
3.24704e-09
1.01683e-07
3.21263e-09
1.01418e-07
3.17785e-09
1.01151e-07
3.14259e-09
1.00882e-07
3.10674e-09
1.00611e-07
3.07019e-09
1.00339e-07
3.03283e-09
1.00064e-07
2.99456e-09
9.97872e-08
2.9553e-09
9.95079e-08
2.91497e-09
9.9226e-08
2.87352e-09
9.89413e-08
2.83092e-09
9.86535e-08
2.78717e-09
9.83624e-08
2.74232e-09
9.80678e-08
2.69647e-09
9.77693e-08
2.64975e-09
9.74667e-08
2.60239e-09
9.71598e-08
2.55468e-09
9.68484e-08
2.50698e-09
9.65324e-08
2.4597e-09
9.62118e-08
2.41335e-09
9.58866e-08
2.36845e-09
9.5557e-08
2.32555e-09
9.52231e-08
2.28522e-09
9.48854e-08
2.24798e-09
9.45441e-08
2.21434e-09
9.41996e-08
2.18474e-09
9.38525e-08
2.15955e-09
9.35032e-08
2.13905e-09
9.31521e-08
2.12344e-09
9.27999e-08
2.1128e-09
9.24468e-08
2.10713e-09
9.20935e-08
2.10628e-09
9.17402e-08
2.11001e-09
9.13872e-08
2.11794e-09
9.10347e-08
2.12965e-09
9.06827e-08
2.14462e-09
9.03313e-08
2.16232e-09
8.99803e-08
2.18222e-09
8.96296e-08
2.20381e-09
8.92789e-08
2.22662e-09
8.89279e-08
2.25026e-09
8.85765e-08
2.27439e-09
8.82242e-08
2.29875e-09
8.78708e-08
2.32313e-09
8.75162e-08
2.34739e-09
8.71599e-08
2.37143e-09
8.68019e-08
2.39518e-09
8.6442e-08
2.41861e-09
8.608e-08
2.4417e-09
8.57157e-08
2.46443e-09
8.53491e-08
2.4868e-09
8.49799e-08
2.5088e-09
8.46082e-08
2.53043e-09
8.42337e-08
2.55164e-09
8.38564e-08
2.57239e-09
8.3476e-08
2.59263e-09
8.30921e-08
2.61237e-09
2.63179e-09
6.85743e-08
2.70983e-09
-6.84408e-08
6.87145e-08
2.79868e-09
6.8861e-08
2.88632e-09
6.90134e-08
2.97185e-09
6.91712e-08
3.05441e-09
6.93337e-08
3.13328e-09
6.95003e-08
3.20785e-09
6.96704e-08
3.27766e-09
6.98434e-08
3.34232e-09
7.00187e-08
3.40154e-09
7.01958e-08
3.45509e-09
7.03742e-08
3.50282e-09
7.05535e-08
3.54465e-09
7.07331e-08
3.58052e-09
7.09127e-08
3.61045e-09
7.10919e-08
3.63452e-09
7.12704e-08
3.65283e-09
7.14478e-08
3.66556e-09
7.16239e-08
3.67292e-09
7.17985e-08
3.67516e-09
7.19713e-08
3.67257e-09
7.21423e-08
3.66549e-09
7.23114e-08
3.65427e-09
7.24785e-08
3.63929e-09
7.26436e-08
3.62093e-09
7.28068e-08
3.59958e-09
7.29683e-08
3.57564e-09
7.31281e-08
3.54947e-09
7.32865e-08
3.52143e-09
7.34435e-08
3.49185e-09
7.35995e-08
3.46103e-09
7.37547e-08
3.42923e-09
7.39093e-08
3.39668e-09
7.40635e-08
3.36356e-09
7.42176e-08
3.33002e-09
7.43718e-08
3.29617e-09
7.45263e-08
3.26209e-09
7.46813e-08
3.22782e-09
7.48369e-08
3.19337e-09
7.49933e-08
3.15873e-09
7.51506e-08
3.12388e-09
7.53089e-08
3.08874e-09
7.54683e-08
3.05327e-09
7.56288e-08
3.01737e-09
7.57904e-08
2.98097e-09
7.59531e-08
2.94398e-09
7.6117e-08
2.90631e-09
7.6282e-08
2.86787e-09
7.64479e-08
2.8286e-09
7.66148e-08
2.78841e-09
7.67826e-08
2.74725e-09
7.6951e-08
2.7051e-09
7.712e-08
2.66195e-09
7.72893e-08
2.61781e-09
7.74589e-08
2.57274e-09
7.76285e-08
2.52685e-09
7.7798e-08
2.4803e-09
7.79671e-08
2.43328e-09
7.81357e-08
2.38607e-09
7.83037e-08
2.33901e-09
7.84709e-08
2.29247e-09
7.86373e-08
2.2469e-09
7.8803e-08
2.20278e-09
7.8968e-08
2.16058e-09
7.91324e-08
2.12081e-09
7.92964e-08
2.08395e-09
7.94603e-08
2.05044e-09
7.96244e-08
2.02067e-09
7.9789e-08
1.99497e-09
7.99544e-08
1.97361e-09
8.01211e-08
1.95674e-09
8.02894e-08
1.94446e-09
8.04598e-08
1.93675e-09
8.06326e-08
1.93348e-09
8.08082e-08
1.93446e-09
8.09867e-08
1.93937e-09
8.11686e-08
1.94784e-09
8.13538e-08
1.95943e-09
8.15424e-08
1.97367e-09
8.17345e-08
1.99012e-09
8.193e-08
2.00831e-09
8.21288e-08
2.02784e-09
8.23307e-08
2.04834e-09
8.25356e-08
2.06948e-09
8.27433e-08
2.09102e-09
8.29537e-08
2.11274e-09
8.31666e-08
2.1345e-09
8.33819e-08
2.15619e-09
8.35993e-08
2.17772e-09
8.38189e-08
2.19905e-09
8.40404e-08
2.22015e-09
8.42639e-08
2.24098e-09
8.44891e-08
2.26154e-09
8.47161e-08
2.28181e-09
8.49448e-08
2.30177e-09
8.5175e-08
2.32142e-09
8.54067e-08
2.34073e-09
8.56396e-08
2.3597e-09
8.58736e-08
2.37832e-09
2.39654e-09
7.57818e-08
2.56392e-09
-7.56359e-08
7.59339e-08
2.64663e-09
7.60919e-08
2.72832e-09
7.62555e-08
2.80824e-09
7.64242e-08
2.88565e-09
7.65976e-08
2.95988e-09
7.67751e-08
3.03036e-09
7.69561e-08
3.09662e-09
7.71402e-08
3.15829e-09
7.73267e-08
3.21504e-09
7.75151e-08
3.26663e-09
7.77051e-08
3.31289e-09
7.7896e-08
3.35368e-09
7.80876e-08
3.38895e-09
7.82794e-08
3.41868e-09
7.8471e-08
3.4429e-09
7.86621e-08
3.4617e-09
7.88525e-08
3.47522e-09
7.90418e-08
3.48362e-09
7.92298e-08
3.48712e-09
7.94164e-08
3.48597e-09
7.96014e-08
3.48046e-09
7.97848e-08
3.47089e-09
7.99665e-08
3.4576e-09
8.01465e-08
3.44092e-09
8.03249e-08
3.42121e-09
8.05017e-08
3.39882e-09
8.06771e-08
3.37407e-09
8.08512e-08
3.3473e-09
8.10243e-08
3.31881e-09
8.11964e-08
3.28888e-09
8.13679e-08
3.25775e-09
8.15389e-08
3.22566e-09
8.17097e-08
3.19277e-09
8.18805e-08
3.15925e-09
8.20514e-08
3.12521e-09
8.22228e-08
3.09075e-09
8.23947e-08
3.05592e-09
8.25673e-08
3.02075e-09
8.27407e-08
2.98526e-09
8.29152e-08
2.94942e-09
8.30907e-08
2.91321e-09
8.32674e-08
2.87659e-09
8.34453e-08
2.8395e-09
8.36244e-08
2.80187e-09
8.38047e-08
2.76365e-09
8.39863e-08
2.72476e-09
8.4169e-08
2.68515e-09
8.43528e-08
2.64474e-09
8.45377e-08
2.60351e-09
8.47236e-08
2.56142e-09
8.49102e-08
2.51844e-09
8.50976e-08
2.4746e-09
8.52855e-08
2.42992e-09
8.54737e-08
2.38449e-09
8.56622e-08
2.3384e-09
8.58507e-08
2.29182e-09
8.6039e-08
2.24494e-09
8.6227e-08
2.19803e-09
8.64147e-08
2.15139e-09
8.66018e-08
2.10537e-09
8.67883e-08
2.06037e-09
8.69743e-08
2.01679e-09
8.71598e-08
1.97509e-09
8.73449e-08
1.93569e-09
8.75298e-08
1.89903e-09
8.77148e-08
1.86549e-09
8.79e-08
1.83542e-09
8.80859e-08
1.80911e-09
8.82727e-08
1.7868e-09
8.84608e-08
1.76862e-09
8.86506e-08
1.75466e-09
8.88425e-08
1.7449e-09
8.90367e-08
1.73924e-09
8.92337e-08
1.7375e-09
8.94336e-08
1.73943e-09
8.96367e-08
1.74469e-09
8.98433e-08
1.75292e-09
9.00532e-08
1.76373e-09
9.02666e-08
1.7767e-09
9.04835e-08
1.79144e-09
9.07037e-08
1.8076e-09
9.09273e-08
1.82482e-09
9.11539e-08
1.84283e-09
9.13836e-08
1.86136e-09
9.16161e-08
1.88022e-09
9.18513e-08
1.89926e-09
9.20892e-08
1.91836e-09
9.23295e-08
1.93743e-09
9.25721e-08
1.95641e-09
9.2817e-08
1.97525e-09
9.30641e-08
1.99392e-09
9.33132e-08
2.01239e-09
9.35643e-08
2.03065e-09
9.38174e-08
2.04868e-09
9.40724e-08
2.06648e-09
9.43291e-08
2.08403e-09
9.45875e-08
2.10133e-09
9.48474e-08
2.11836e-09
2.1351e-09
8.37434e-08
2.40485e-09
-8.35843e-08
8.39082e-08
2.48183e-09
8.40786e-08
2.55794e-09
8.42543e-08
2.63254e-09
8.4435e-08
2.70498e-09
8.46202e-08
2.77468e-09
8.48094e-08
2.8411e-09
8.50022e-08
2.9038e-09
8.51981e-08
2.96239e-09
8.53966e-08
3.01655e-09
8.55972e-08
3.06603e-09
8.57995e-08
3.11063e-09
8.6003e-08
3.1502e-09
8.62073e-08
3.18464e-09
8.6412e-08
3.21393e-09
8.66169e-08
3.23805e-09
8.68215e-08
3.25708e-09
8.70256e-08
3.2711e-09
8.7229e-08
3.28025e-09
8.74314e-08
3.28472e-09
8.76327e-08
3.2847e-09
8.78327e-08
3.28045e-09
8.80313e-08
3.27223e-09