/*--------------------------------*- C++ -*----------------------------------*\
| =========                 |                                                 |
| \\      /  F ield         | OpenFOAM: The Open Source CFD Toolbox           |
|  \\    /   O peration     | Version:  2.3.0                                 |
|   \\  /    A nd           | Web:      www.OpenFOAM.org                      |
|    \\/     M anipulation  |                                                 |
\*---------------------------------------------------------------------------*/
FoamFile
{
    version     2.0;
    format      ascii;
    class       volVectorField;
    location    "0.25";
    object      U;
}
// * * * * * * * * * * * * * * * * * * * * * * * * * * * * * * * * * * * * * //

dimensions      [0 1 -1 0 0 0 0];

internalField   nonuniform List<vector> 
2250
(
(0.184684 0.0040718 1.18548e-06)
(0.177493 0.00444303 3.05811e-06)
(0.170094 0.00453485 4.37418e-06)
(0.162525 0.00449296 5.41618e-06)
(0.154978 0.00438223 6.23722e-06)
(0.147553 0.00422705 6.78081e-06)
(0.140279 0.00404144 7.02352e-06)
(0.133172 0.00383622 6.97188e-06)
(0.12625 0.00361907 6.62961e-06)
(0.119534 0.00339503 5.99283e-06)
(0.113043 0.00316755 5.05883e-06)
(0.106792 0.00293917 3.83147e-06)
(0.100796 0.00271192 2.32196e-06)
(0.0950671 0.00248751 5.48491e-07)
(0.0896171 0.00226745 -1.46369e-06)
(0.084455 0.00205317 -3.68234e-06)
(0.0795881 0.00184602 -6.06875e-06)
(0.0750208 0.00164732 -8.57881e-06)
(0.0707554 0.00145827 -1.11646e-05)
(0.0667912 0.00128001 -1.37761e-05)
(0.0631248 0.0011135 -1.63638e-05)
(0.05975 0.000959542 -1.88802e-05)
(0.0566581 0.000818681 -2.12823e-05)
(0.0538379 0.000691228 -2.35333e-05)
(0.0512762 0.000577225 -2.56039e-05)
(0.0489578 0.000476452 -2.74732e-05)
(0.0468664 0.000388452 -2.91288e-05)
(0.0449846 0.00031256 -3.05671e-05)
(0.0432947 0.000247944 -3.17917e-05)
(0.0417788 0.000193661 -3.28132e-05)
(0.0404193 0.000148694 -3.36474e-05)
(0.0391992 0.000111999 -3.43139e-05)
(0.0381028 8.25419e-05 -3.4835e-05)
(0.0371149 5.93213e-05 -3.52337e-05)
(0.0362222 4.13931e-05 -3.55333e-05)
(0.0354124 2.78836e-05 -3.57561e-05)
(0.0346746 1.79987e-05 -3.59224e-05)
(0.0339993 1.10299e-05 -3.60507e-05)
(0.0333785 6.35517e-06 -3.61566e-05)
(0.0328051 3.43888e-06 -3.62535e-05)
(0.0322733 1.82767e-06 -3.63517e-05)
(0.0317782 1.14919e-06 -3.64595e-05)
(0.0313159 1.10917e-06 -3.65824e-05)
(0.0308831 1.47595e-06 -3.67239e-05)
(0.0304773 2.07177e-06 -3.68854e-05)
(0.0300964 2.7646e-06 -3.70667e-05)
(0.0297388 3.46063e-06 -3.72656e-05)
(0.0294033 4.09711e-06 -3.74787e-05)
(0.0290888 4.63555e-06 -3.77009e-05)
(0.0287947 5.05476e-06 -3.79259e-05)
(0.0285203 5.34387e-06 -3.81459e-05)
(0.0282653 5.49533e-06 -3.83515e-05)
(0.0280293 5.49873e-06 -3.85315e-05)
(0.0278123 5.33636e-06 -3.86721e-05)
(0.0276143 4.9818e-06 -3.87569e-05)
(0.0274354 4.40204e-06 -3.87661e-05)
(0.0272761 3.56291e-06 -3.86764e-05)
(0.027137 2.43685e-06 -3.84615e-05)
(0.0270187 1.01116e-06 -3.80929e-05)
(0.0269219 -7.05037e-07 -3.75415e-05)
(0.026847 -2.67669e-06 -3.67803e-05)
(0.0267943 -4.84294e-06 -3.57872e-05)
(0.0267635 -7.12187e-06 -3.45472e-05)
(0.0267539 -9.41963e-06 -3.30553e-05)
(0.026764 -1.16425e-05 -3.13175e-05)
(0.0267922 -1.3711e-05 -2.93506e-05)
(0.0268361 -1.55765e-05 -2.71809e-05)
(0.0268932 -1.72395e-05 -2.48418e-05)
(0.0269611 -1.87258e-05 -2.23707e-05)
(0.0270373 -2.00159e-05 -1.98073e-05)
(0.0271194 -2.10178e-05 -1.71943e-05)
(0.0272049 -2.16284e-05 -1.45784e-05)
(0.027291 -2.18521e-05 -1.20116e-05)
(0.027375 -2.18174e-05 -9.54951e-06)
(0.0274541 -2.16604e-05 -7.24775e-06)
(0.0275259 -2.13808e-05 -5.15694e-06)
(0.0275886 -2.08284e-05 -3.31546e-06)
(0.0276412 -2.00436e-05 -1.74556e-06)
(0.0276835 -1.91697e-05 -4.55629e-07)
(0.0277157 -1.83202e-05 5.59693e-07)
(0.0277387 -1.75661e-05 1.31756e-06)
(0.0277535 -1.69373e-05 1.84245e-06)
(0.0277614 -1.64442e-05 2.16369e-06)
(0.0277639 -1.60859e-05 2.31328e-06)
(0.0277623 -1.58543e-05 2.32339e-06)
(0.0277578 -1.57356e-05 2.22446e-06)
(0.0277516 -1.5713e-05 2.04386e-06)
(0.0277448 -1.57685e-05 1.80522e-06)
(0.027738 -1.58846e-05 1.52818e-06)
(0.0277319 -1.60451e-05 1.22857e-06)
(0.0277272 -1.6236e-05 9.18868e-07)
(0.0277241 -1.64454e-05 6.0872e-07)
(0.0277231 -1.6664e-05 3.05612e-07)
(0.0277244 -1.68846e-05 1.52607e-08)
(0.0277281 -1.71033e-05 -2.57641e-07)
(0.0277344 -1.73149e-05 -5.08451e-07)
(0.0277432 -1.74946e-05 -7.3168e-07)
(0.0277541 -1.75875e-05 -9.16529e-07)
(0.0277695 -1.74251e-05 -1.03378e-06)
(0.0277248 6.2001e-06 -1.41201e-06)
(0.193904 0.00624881 8.22798e-07)
(0.193752 0.00684274 2.4055e-06)
(0.193114 0.00706154 3.74991e-06)
(0.191991 0.00712256 4.80447e-06)
(0.190486 0.00711121 5.59712e-06)
(0.188671 0.00705009 6.1285e-06)
(0.186583 0.00694946 6.39057e-06)
(0.18425 0.00681781 6.38708e-06)
(0.181702 0.00666094 6.12578e-06)
(0.178969 0.00648222 5.61095e-06)
(0.176078 0.00628377 4.8455e-06)
(0.173057 0.00606736 3.83498e-06)
(0.169931 0.00583476 2.58922e-06)
(0.166724 0.0055878 1.12271e-06)
(0.163459 0.00532854 -5.45283e-07)
(0.160157 0.00505917 -2.39051e-06)
(0.156838 0.00478212 -4.38388e-06)
(0.153521 0.00449995 -6.49207e-06)
(0.150223 0.00421535 -8.67848e-06)
(0.146959 0.00393103 -1.09045e-05)
(0.143741 0.0036497 -1.3131e-05)
(0.140583 0.00337394 -1.53198e-05)
(0.137494 0.00310618 -1.74356e-05)
(0.134481 0.00284858 -1.94469e-05)
(0.131552 0.00260302 -2.13274e-05)
(0.128711 0.00237099 -2.30571e-05)
(0.125961 0.00215364 -2.46222e-05)
(0.123305 0.0019517 -2.60159e-05)
(0.120745 0.00176555 -2.72374e-05)
(0.118279 0.00159519 -2.82916e-05)
(0.115908 0.00144033 -2.91881e-05)
(0.11363 0.00130039 -2.99404e-05)
(0.111444 0.00117458 -3.05644e-05)
(0.109348 0.00106196 -3.10779e-05)
(0.107339 0.00096145 -3.14991e-05)
(0.105415 0.000871948 -3.18461e-05)
(0.103574 0.000792317 -3.21361e-05)
(0.101813 0.000721443 -3.23849e-05)
(0.100129 0.000658264 -3.26065e-05)
(0.0985206 0.000601786 -3.2813e-05)
(0.0969851 0.0005511 -3.30143e-05)
(0.0955204 0.000505381 -3.32183e-05)
(0.0941245 0.000463888 -3.34307e-05)
(0.0927956 0.000425975 -3.36554e-05)
(0.091532 0.000391088 -3.38944e-05)
(0.0903321 0.000358753 -3.41481e-05)
(0.0891947 0.000328572 -3.44153e-05)
(0.0881184 0.000300212 -3.46933e-05)
(0.0871024 0.000273396 -3.49779e-05)
(0.0861456 0.000247893 -3.52635e-05)
(0.0852474 0.000223504 -3.55434e-05)
(0.0844073 0.000200052 -3.58089e-05)
(0.0836249 0.000177365 -3.60496e-05)
(0.0829 0.000155269 -3.6253e-05)
(0.0822327 0.000133586 -3.64034e-05)
(0.0816231 0.00011214 -3.64822e-05)
(0.0810716 9.07781e-05 -3.6467e-05)
(0.0805786 6.93969e-05 -3.63324e-05)
(0.0801442 4.79729e-05 -3.60505e-05)
(0.0797686 2.65873e-05 -3.55928e-05)
(0.0794512 5.43877e-06 -3.49326e-05)
(0.0791909 -1.51635e-05 -3.40473e-05)
(0.0789857 -3.48264e-05 -3.29216e-05)
(0.0788328 -5.31188e-05 -3.15498e-05)
(0.0787284 -6.96275e-05 -2.99368e-05)
(0.0786677 -8.40153e-05 -2.80985e-05)
(0.0786454 -9.60662e-05 -2.60598e-05)
(0.0786559 -0.000105706 -2.38529e-05)
(0.078693 -0.000112973 -2.15133e-05)
(0.0787506 -0.000117939 -1.9079e-05)
(0.0788222 -0.000120611 -1.65903e-05)
(0.0789015 -0.000120943 -1.40924e-05)
(0.0789819 -0.000118989 -1.16367e-05)
(0.0790573 -0.000115056 -9.2776e-06)
(0.0791219 -0.000109678 -7.06811e-06)
(0.0791711 -0.000103401 -5.05398e-06)
(0.0792012 -9.65667e-05 -3.27358e-06)
(0.0792096 -8.9512e-05 -1.75284e-06)
(0.0791953 -8.26073e-05 -5.00205e-07)
(0.0791582 -7.61473e-05 4.88942e-07)
(0.0790993 -7.03253e-05 1.22972e-06)
(0.0790203 -6.52877e-05 1.74517e-06)
(0.0789235 -6.11117e-05 2.06359e-06)
(0.0788114 -5.77987e-05 2.21569e-06)
(0.0786862 -5.52937e-05 2.23233e-06)
(0.0785506 -5.35067e-05 2.14279e-06)
(0.0784066 -5.23302e-05 1.97346e-06)
(0.0782563 -5.16532e-05 1.74714e-06)
(0.0781012 -5.13711e-05 1.4828e-06)
(0.0779429 -5.13913e-05 1.19577e-06)
(0.0777823 -5.16363e-05 8.98092e-07)
(0.0776205 -5.20451e-05 5.99103e-07)
(0.0774582 -5.25733e-05 3.06007e-07)
(0.0772959 -5.31879e-05 2.44358e-08)
(0.0771341 -5.38521e-05 -2.41196e-07)
(0.0769729 -5.451e-05 -4.86922e-07)
(0.0768123 -5.50337e-05 -7.08609e-07)
(0.0766517 -5.50008e-05 -8.99537e-07)
(0.0764948 -5.13913e-05 -1.07407e-06)
(0.0762433 -1.44367e-05 -2.17066e-06)
(0.195009 0.00543228 6.54004e-07)
(0.195429 0.00603246 1.99512e-06)
(0.195816 0.00644276 3.20039e-06)
(0.196078 0.00675495 4.13332e-06)
(0.196204 0.0070059 4.81392e-06)
(0.1962 0.00720013 5.28016e-06)
(0.196062 0.00733887 5.53388e-06)
(0.195785 0.00742602 5.57033e-06)
(0.195365 0.00746578 5.39275e-06)
(0.194805 0.00746146 5.00686e-06)
(0.194107 0.00741582 4.41697e-06)
(0.193275 0.0073316 3.6276e-06)
(0.192317 0.0072117 2.64561e-06)
(0.191237 0.00705919 1.48106e-06)
(0.190045 0.00687735 1.47408e-07)
(0.188749 0.00666968 -1.33841e-06)
(0.187357 0.00643984 -2.95601e-06)
(0.18588 0.00619169 -4.68176e-06)
(0.184327 0.00592916 -6.48932e-06)
(0.18271 0.00565623 -8.35032e-06)
(0.181037 0.00537681 -1.02353e-05)
(0.179319 0.00509467 -1.21148e-05)
(0.177565 0.00481332 -1.39602e-05)
(0.175783 0.00453595 -1.57452e-05)
(0.173983 0.00426537 -1.74464e-05)
(0.172171 0.00400392 -1.90442e-05)
(0.170354 0.00375345 -2.05236e-05)
(0.168539 0.00351535 -2.18743e-05)
(0.166731 0.00329051 -2.30909e-05)
(0.164934 0.00307941 -2.41725e-05)
(0.163152 0.0028821 -2.51225e-05)
(0.16139 0.00269833 -2.5948e-05)
(0.159649 0.00252756 -2.66589e-05)
(0.157932 0.00236907 -2.72671e-05)
(0.156242 0.00222199 -2.77863e-05)
(0.15458 0.00208537 -2.82305e-05)
(0.152947 0.00195822 -2.86138e-05)
(0.151345 0.00183958 -2.89499e-05)
(0.149776 0.00172851 -2.92513e-05)
(0.14824 0.00162414 -2.95294e-05)
(0.146738 0.00152566 -2.97939e-05)
(0.145272 0.00143235 -3.00528e-05)
(0.143843 0.00134354 -3.03124e-05)
(0.142453 0.00125867 -3.05773e-05)
(0.141101 0.00117724 -3.08507e-05)
(0.13979 0.0010988 -3.11339e-05)
(0.138522 0.00102299 -3.14269e-05)
(0.137297 0.000949471 -3.17279e-05)
(0.136117 0.000877973 -3.20339e-05)
(0.134984 0.00080824 -3.23405e-05)
(0.133899 0.000740038 -3.26415e-05)
(0.132865 0.000673142 -3.29293e-05)
(0.131882 0.000607328 -3.31944e-05)
(0.130954 0.000542367 -3.34247e-05)
(0.130083 0.00047804 -3.36059e-05)
(0.129269 0.000414157 -3.37201e-05)
(0.128516 0.000350596 -3.37466e-05)
(0.127824 0.000287345 -3.36617e-05)
(0.127195 0.00022455 -3.34396e-05)
(0.126631 0.000162549 -3.3054e-05)
(0.126131 0.00010188 -3.248e-05)
(0.125695 4.32713e-05 -3.16969e-05)
(0.125322 -1.24185e-05 -3.06905e-05)
(0.125009 -6.42773e-05 -2.94547e-05)
(0.124754 -0.00011144 -2.79934e-05)
(0.124552 -0.000153187 -2.632e-05)
(0.124399 -0.000189018 -2.44563e-05)
(0.124289 -0.000218674 -2.24304e-05)
(0.124216 -0.00024209 -2.02747e-05)
(0.124174 -0.000259293 -1.80245e-05)
(0.124155 -0.000270346 -1.5718e-05)
(0.124153 -0.000275373 -1.33973e-05)
(0.124161 -0.000274634 -1.11094e-05)
(0.124172 -0.000268609 -8.90478e-06)
(0.124179 -0.000258057 -6.83378e-06)
(0.124176 -0.000243999 -4.94076e-06)
(0.12416 -0.000227616 -3.25942e-06)
(0.124126 -0.000210036 -1.81236e-06)
(0.124072 -0.000192237 -6.10551e-07)
(0.123996 -0.000175013 3.47237e-07)
(0.123898 -0.000158981 1.07265e-06)
(0.123778 -0.000144603 1.58638e-06)
(0.123638 -0.000132157 1.91418e-06)
(0.123478 -0.000121742 2.08381e-06)
(0.123301 -0.000113318 2.1235e-06)
(0.123108 -0.000106738 2.06026e-06)
(0.122901 -0.000101798 1.91865e-06)
(0.122682 -9.82621e-05 1.72009e-06)
(0.122454 -9.58922e-05 1.48262e-06)
(0.122217 -9.44665e-05 1.2209e-06)
(0.121972 -9.37889e-05 9.46626e-07)
(0.121722 -9.36944e-05 6.68881e-07)
(0.121468 -9.40499e-05 3.94696e-07)
(0.121209 -9.47493e-05 1.2968e-07)
(0.120947 -9.56842e-05 -1.22197e-07)
(0.120682 -9.67007e-05 -3.59339e-07)
(0.120415 -9.74853e-05 -5.84752e-07)
(0.120146 -9.70196e-05 -8.21917e-07)
(0.119876 -8.9961e-05 -1.27196e-06)
(0.11953 -5.93004e-05 -3.13656e-06)
(0.195705 0.00517178 4.70923e-07)
(0.196041 0.00575755 1.44649e-06)
(0.19643 0.00621311 2.41377e-06)
(0.196808 0.00657122 3.25674e-06)
(0.197157 0.00685854 3.93104e-06)
(0.197476 0.0070868 4.43919e-06)
(0.197761 0.00726236 4.77444e-06)
(0.198007 0.00739106 4.92301e-06)
(0.198205 0.0074779 4.88e-06)
(0.198352 0.00752635 4.64922e-06)
(0.198441 0.00753874 4.23697e-06)
(0.198469 0.00751683 3.65005e-06)
(0.198431 0.00746222 2.89656e-06)
(0.198325 0.00737658 1.98654e-06)
(0.198147 0.00726175 9.3211e-07)
(0.197898 0.00711985 -2.52748e-07)
(0.197575 0.00695334 -1.55216e-06)
(0.197181 0.00676498 -2.94845e-06)
(0.196716 0.00655783 -4.42229e-06)
(0.196182 0.00633518 -5.95307e-06)
(0.195584 0.00610043 -7.51928e-06)
(0.194924 0.00585704 -9.09906e-06)
(0.194207 0.00560838 -1.06708e-05)
(0.193438 0.00535768 -1.22139e-05)
(0.192621 0.00510789 -1.37094e-05)
(0.191762 0.00486163 -1.51402e-05)
(0.190865 0.00462115 -1.64925e-05)
(0.189936 0.00438827 -1.77551e-05)
(0.188979 0.00416436 -1.89203e-05)
(0.187999 0.00395041 -1.9984e-05)
(0.187 0.00374698 -2.09452e-05)
(0.185986 0.0035543 -2.18058e-05)
(0.18496 0.00337229 -2.25708e-05)
(0.183925 0.00320062 -2.32469e-05)
(0.182885 0.00303877 -2.38428e-05)
(0.181841 0.00288607 -2.4368e-05)
(0.180797 0.00274179 -2.48329e-05)
(0.179753 0.0026051 -2.52479e-05)
(0.178713 0.0024752 -2.56229e-05)
(0.177678 0.00235128 -2.59674e-05)
(0.176649 0.00223257 -2.62899e-05)
(0.175629 0.00211836 -2.65978e-05)
(0.174619 0.00200797 -2.68975e-05)
(0.173621 0.00190082 -2.71938e-05)
(0.172636 0.00179636 -2.74904e-05)
(0.171667 0.00169412 -2.77893e-05)
(0.170715 0.00159369 -2.80913e-05)
(0.169782 0.00149469 -2.83958e-05)
(0.16887 0.0013968 -2.87008e-05)
(0.167982 0.00129973 -2.90029e-05)
(0.167119 0.00120321 -2.9297e-05)
(0.166284 0.001107 -2.95766e-05)
(0.16548 0.00101085 -2.9833e-05)
(0.164708 0.000914555 -3.00557e-05)
(0.163971 0.00081794 -3.02317e-05)
(0.163272 0.000720899 -3.03454e-05)
(0.162612 0.000623447 -3.03791e-05)
(0.161994 0.000525767 -3.03128e-05)
(0.16142 0.000428259 -3.01253e-05)
(0.160891 0.000331571 -2.97952e-05)
(0.160407 0.000236599 -2.93025e-05)
(0.15997 0.000144451 -2.86305e-05)
(0.159579 5.63794e-05 -2.77671e-05)
(0.159233 -2.63296e-05 -2.67066e-05)
(0.158931 -0.000102467 -2.54508e-05)
(0.158671 -0.000171008 -2.40084e-05)
(0.15845 -0.000231186 -2.23953e-05)
(0.158265 -0.000282503 -2.06331e-05)
(0.158112 -0.000324681 -1.87479e-05)
(0.157988 -0.000357588 -1.67703e-05)
(0.157887 -0.000381193 -1.47344e-05)
(0.157805 -0.000395604 -1.26781e-05)
(0.157736 -0.000401169 -1.06422e-05)
(0.157677 -0.000398553 -8.6693e-06)
(0.157621 -0.000388762 -6.80107e-06)
(0.157566 -0.000373073 -5.07617e-06)
(0.157506 -0.000352947 -3.52631e-06)
(0.15744 -0.000329884 -2.17401e-06)
(0.157363 -0.000305307 -1.03155e-06)
(0.157275 -0.000280478 -1.0146e-07)
(0.157172 -0.000256476 6.24945e-07)
(0.157055 -0.000234129 1.16363e-06)
(0.156922 -0.000213988 1.53352e-06)
(0.156774 -0.000196353 1.75628e-06)
(0.156611 -0.000181321 1.85509e-06)
(0.156434 -0.00016883 1.85292e-06)
(0.156242 -0.000158711 1.77135e-06)
(0.156037 -0.000150727 1.62974e-06)
(0.155821 -0.000144611 1.44487e-06)
(0.155593 -0.000140093 1.23083e-06)
(0.155355 -0.000136919 9.99127e-07)
(0.155108 -0.000134856 7.58914e-07)
(0.154852 -0.000133697 5.17271e-07)
(0.154589 -0.000133257 2.79246e-07)
(0.154318 -0.000133353 4.76236e-08)
(0.154042 -0.000133742 -1.80113e-07)
(0.15376 -0.000133963 -4.205e-07)
(0.153473 -0.000132716 -7.44426e-07)
(0.153185 -0.000125851 -1.45406e-06)
(0.152839 -0.000110319 -3.27344e-06)
(0.196296 0.00493615 3.43782e-07)
(0.196533 0.00543345 1.07011e-06)
(0.196828 0.00584528 1.8524e-06)
(0.197146 0.00618215 2.5981e-06)
(0.197469 0.00646096 3.22675e-06)
(0.197794 0.00669204 3.71434e-06)
(0.198116 0.00688062 4.05575e-06)
(0.198431 0.00703039 4.24302e-06)
(0.198736 0.00714441 4.27103e-06)
(0.199026 0.00722495 4.14189e-06)
(0.199297 0.00727353 3.86182e-06)
(0.199546 0.00729129 3.43781e-06)
(0.199769 0.00727926 2.87722e-06)
(0.199963 0.00723856 2.18823e-06)
(0.200124 0.00717047 1.3801e-06)
(0.200249 0.00707653 4.63058e-07)
(0.200336 0.00695858 -5.51677e-07)
(0.200381 0.00681876 -1.6519e-06)
(0.200383 0.00665949 -2.82443e-06)
(0.200341 0.00648343 -4.05518e-06)
(0.200254 0.00629342 -5.32933e-06)
(0.200123 0.00609241 -6.6315e-06)
(0.199948 0.00588333 -7.94609e-06)
(0.19973 0.00566906 -9.25759e-06)
(0.199472 0.00545233 -1.0551e-05)
(0.199174 0.00523559 -1.18121e-05)
(0.198841 0.00502105 -1.30281e-05)
(0.198475 0.00481055 -1.4188e-05)
(0.198078 0.00460558 -1.52824e-05)
(0.197653 0.00440728 -1.63047e-05)
(0.197204 0.0042164 -1.72502e-05)
(0.196733 0.00403341 -1.81168e-05)
(0.196243 0.00385846 -1.89046e-05)
(0.195735 0.00369146 -1.96159e-05)
(0.195213 0.00353211 -2.02546e-05)
(0.194678 0.00337997 -2.08264e-05)
(0.194133 0.00323446 -2.13376e-05)
(0.193579 0.00309496 -2.17957e-05)
(0.193017 0.00296079 -2.22082e-05)
(0.192449 0.00283125 -2.25827e-05)
(0.191877 0.00270568 -2.29267e-05)
(0.191301 0.00258344 -2.32467e-05)
(0.190723 0.00246391 -2.3549e-05)
(0.190145 0.00234654 -2.38385e-05)
(0.189567 0.00223081 -2.4119e-05)
(0.188991 0.00211627 -2.43935e-05)
(0.188419 0.0020025 -2.46635e-05)
(0.187851 0.00188913 -2.49294e-05)
(0.187289 0.00177582 -2.51901e-05)
(0.186734 0.00166229 -2.54432e-05)
(0.186189 0.00154826 -2.56848e-05)
(0.185655 0.00143348 -2.59094e-05)
(0.185134 0.00131773 -2.61097e-05)
(0.184627 0.00120084 -2.62768e-05)
(0.184136 0.00108269 -2.63999e-05)
(0.183663 0.000963269 -2.64667e-05)
(0.18321 0.000842724 -2.64634e-05)
(0.182777 0.000721397 -2.63752e-05)
(0.182366 0.000599877 -2.61868e-05)
(0.181978 0.000479021 -2.58833e-05)
(0.181614 0.000359949 -2.54507e-05)
(0.181275 0.000243998 -2.48774e-05)
(0.18096 0.000132647 -2.41547e-05)
(0.18067 2.74053e-05 -2.32781e-05)
(0.180405 -7.02967e-05 -2.22472e-05)
(0.180165 -0.000159216 -2.10668e-05)
(0.179948 -0.000238362 -1.97465e-05)
(0.179753 -0.000307019 -1.8301e-05)
(0.17958 -0.000364707 -1.67496e-05)
(0.179425 -0.000411138 -1.51165e-05)
(0.179288 -0.000446191 -1.34295e-05)
(0.179166 -0.000469952 -1.17193e-05)
(0.179057 -0.000482798 -1.00178e-05)
(0.178957 -0.000485471 -8.3574e-06)
(0.178866 -0.000479085 -6.76956e-06)
(0.178781 -0.000465079 -5.28361e-06)
(0.1787 -0.000445104 -3.92468e-06)
(0.178619 -0.000420884 -2.71228e-06)
(0.178538 -0.00039408 -1.6595e-06)
(0.178455 -0.000366187 -7.72405e-07)
(0.178367 -0.00033846 -5.05253e-08)
(0.178273 -0.000311894 5.14047e-07)
(0.178172 -0.000287215 9.33302e-07)
(0.178062 -0.000264883 1.22177e-06)
(0.177944 -0.000245134 1.39599e-06)
(0.177816 -0.000228021 1.47343e-06)
(0.177678 -0.000213464 1.47139e-06)
(0.17753 -0.000201293 1.40616e-06)
(0.177371 -0.000191289 1.29252e-06)
(0.177203 -0.000183212 1.14343e-06)
(0.177026 -0.000176823 9.69917e-07)
(0.176838 -0.000171892 7.81054e-07)
(0.176642 -0.000168207 5.83893e-07)
(0.176437 -0.000165565 3.83059e-07)
(0.176224 -0.000163758 1.79621e-07)
(0.176003 -0.000162515 -3.31347e-08)
(0.175775 -0.000161364 -2.8294e-07)
(0.175542 -0.000159304 -6.55388e-07)
(0.175307 -0.000154847 -1.3439e-06)
(0.175025 -0.00015409 -2.2037e-06)
(0.196814 0.0047577 2.40253e-07)
(0.196987 0.00517849 7.46195e-07)
(0.19721 0.00554874 1.30697e-06)
(0.197465 0.00586727 1.87432e-06)
(0.197738 0.00613981 2.38477e-06)
(0.198021 0.00637128 2.80815e-06)
(0.19831 0.00656454 3.13532e-06)
(0.1986 0.00672176 3.35743e-06)
(0.19889 0.00684507 3.46505e-06)
(0.199176 0.00693642 3.45351e-06)
(0.199455 0.00699744 3.3232e-06)
(0.199725 0.00702951 3.077e-06)
(0.199985 0.00703388 2.71885e-06)
(0.200231 0.00701183 2.25364e-06)
(0.200462 0.00696471 1.68728e-06)
(0.200674 0.00689399 1.02656e-06)
(0.200866 0.00680132 2.79051e-07)
(0.201035 0.00668855 -5.47023e-07)
(0.20118 0.00655772 -1.44274e-06)
(0.201299 0.00641105 -2.3985e-06)
(0.201391 0.00625088 -3.40403e-06)
(0.201454 0.00607965 -4.44846e-06)
(0.20149 0.00589983 -5.52038e-06)
(0.201497 0.00571382 -6.60804e-06)
(0.201477 0.00552396 -7.69953e-06)
(0.201429 0.00533239 -8.78305e-06)
(0.201356 0.00514103 -9.84722e-06)
(0.201259 0.00495158 -1.08814e-05)
(0.201138 0.00476543 -1.18761e-05)
(0.200997 0.00458368 -1.28232e-05)
(0.200837 0.00440715 -1.37162e-05)
(0.200659 0.00423638 -1.45502e-05)
(0.200466 0.00407165 -1.53225e-05)
(0.200258 0.00391302 -1.60319e-05)
(0.200038 0.00376036 -1.66792e-05)
(0.199807 0.00361339 -1.72664e-05)
(0.199566 0.00347172 -1.77972e-05)
(0.199316 0.00333484 -1.8276e-05)
(0.199059 0.00320222 -1.87079e-05)
(0.198795 0.00307329 -1.90984e-05)
(0.198525 0.00294746 -1.94534e-05)
(0.198249 0.00282416 -1.97781e-05)
(0.19797 0.00270284 -2.00778e-05)
(0.197686 0.00258296 -2.03569e-05)
(0.1974 0.00246405 -2.06192e-05)
(0.197111 0.00234564 -2.08675e-05)
(0.19682 0.00222732 -2.11037e-05)
(0.196529 0.00210871 -2.13287e-05)
(0.196237 0.00198947 -2.15419e-05)
(0.195945 0.00186929 -2.17417e-05)
(0.195654 0.0017479 -2.19253e-05)
(0.195366 0.00162504 -2.20883e-05)
(0.19508 0.00150053 -2.2225e-05)
(0.194798 0.00137422 -2.23286e-05)
(0.19452 0.00124604 -2.2391e-05)
(0.194247 0.00111608 -2.24034e-05)
(0.19398 0.000984565 -2.23564e-05)
(0.193719 0.000851934 -2.22403e-05)
(0.193465 0.000718879 -2.20459e-05)
(0.193218 0.000586348 -2.17642e-05)
(0.192979 0.000455539 -2.13872e-05)
(0.192747 0.000327854 -2.09082e-05)
(0.192525 0.000204821 -2.03217e-05)
(0.192311 8.80007e-05 -1.96241e-05)
(0.192107 -2.11234e-05 -1.88142e-05)
(0.191913 -0.000121235 -1.78932e-05)
(0.19173 -0.000211251 -1.68656e-05)
(0.191556 -0.000290338 -1.57399e-05)
(0.191394 -0.000357903 -1.45288e-05)
(0.191242 -0.000413562 -1.32498e-05)
(0.1911 -0.000457136 -1.19233e-05)
(0.190968 -0.000488686 -1.05719e-05)
(0.190846 -0.000508579 -9.21848e-06)
(0.190734 -0.000517538 -7.88548e-06)
(0.19063 -0.000516654 -6.59467e-06)
(0.190535 -0.000507329 -5.3668e-06)
(0.190447 -0.000491177 -4.22092e-06)
(0.190365 -0.000469899 -3.17357e-06)
(0.190288 -0.00044516 -2.23793e-06)
(0.190215 -0.000418483 -1.42249e-06)
(0.190145 -0.000391169 -7.32295e-07)
(0.190075 -0.00036427 -1.67322e-07)
(0.190004 -0.000338593 2.78299e-07)
(0.189932 -0.000314707 6.13268e-07)
(0.189857 -0.000292956 8.47815e-07)
(0.189777 -0.000273502 9.93712e-07)
(0.189693 -0.000256365 1.06363e-06)
(0.189604 -0.000241466 1.07033e-06)
(0.189508 -0.000228667 1.02611e-06)
(0.189405 -0.000217794 9.42254e-07)
(0.189296 -0.000208662 8.28813e-07)
(0.18918 -0.000201088 6.94301e-07)
(0.189057 -0.000194895 5.45393e-07)
(0.188927 -0.000189908 3.86198e-07)
(0.188789 -0.000185941 2.16582e-07)
(0.188645 -0.000182763 2.84058e-08)
(0.188495 -0.000180048 -2.03142e-07)
(0.188339 -0.000177416 -5.243e-07)
(0.188182 -0.000175632 -9.05605e-07)
(0.187986 -0.000183815 -5.5439e-07)
(0.197274 0.00461052 1.50989e-07)
(0.197406 0.00496806 4.68607e-07)
(0.197577 0.00529495 8.3362e-07)
(0.197779 0.00558597 1.23257e-06)
(0.198003 0.00584098 1.62661e-06)
(0.198241 0.00606143 1.98491e-06)
(0.198488 0.00624872 2.29015e-06)
(0.198741 0.00640417 2.52933e-06)
(0.198997 0.00652921 2.69057e-06)
(0.199253 0.00662525 2.76569e-06)
(0.199506 0.0066936 2.75138e-06)
(0.199755 0.00673544 2.64762e-06)
(0.199998 0.00675189 2.45606e-06)
(0.200233 0.00674406 2.1793e-06)
(0.200458 0.00671317 1.82072e-06)
(0.200672 0.0066605 1.38425e-06)
(0.200872 0.00658751 8.74287e-07)
(0.201057 0.00649578 2.95562e-07)
(0.201227 0.00638707 -3.46797e-07)
(0.201379 0.00626327 -1.04719e-06)
(0.201512 0.00612639 -1.79947e-06)
(0.201627 0.00597851 -2.59681e-06)
(0.201722 0.00582173 -3.43173e-06)
(0.201798 0.00565814 -4.29606e-06)
(0.201855 0.00548976 -5.18099e-06)
(0.201894 0.00531848 -6.07729e-06)
(0.201915 0.00514602 -6.97546e-06)
(0.201918 0.00497392 -7.86601e-06)
(0.201906 0.00480347 -8.73977e-06)
(0.20188 0.00463576 -9.58823e-06)
(0.20184 0.00447159 -1.04038e-05)
(0.201789 0.00431157 -1.118e-05)
(0.201726 0.00415607 -1.19117e-05)
(0.201654 0.00400525 -1.25955e-05)
(0.201574 0.00385911 -1.3229e-05)
(0.201487 0.00371751 -1.38118e-05)
(0.201393 0.00358017 -1.43444e-05)
(0.201294 0.00344673 -1.48286e-05)
(0.20119 0.00331678 -1.52672e-05)
(0.201081 0.00318982 -1.56635e-05)
(0.200969 0.00306539 -1.60214e-05)
(0.200854 0.00294297 -1.6345e-05)
(0.200735 0.00282207 -1.66382e-05)
(0.200614 0.00270221 -1.69048e-05)
(0.200491 0.00258294 -1.71481e-05)
(0.200365 0.00246382 -1.73709e-05)
(0.200237 0.00234447 -1.75749e-05)
(0.200108 0.0022245 -1.77614e-05)
(0.199976 0.0021036 -1.79305e-05)
(0.199843 0.00198145 -1.80814e-05)
(0.199709 0.00185779 -1.8212e-05)
(0.199573 0.0017324 -1.83193e-05)
(0.199437 0.00160511 -1.83995e-05)
(0.199299 0.00147582 -1.84476e-05)
(0.19916 0.00134451 -1.84583e-05)
(0.199019 0.00121131 -1.84258e-05)
(0.198878 0.0010765 -1.83446e-05)
(0.198736 0.000940558 -1.82095e-05)
(0.198592 0.000804184 -1.80156e-05)
(0.198446 0.000668318 -1.77588e-05)
(0.1983 0.000534118 -1.74357e-05)
(0.198152 0.000402922 -1.70431e-05)
(0.198003 0.000276183 -1.65784e-05)
(0.197854 0.000155383 -1.60392e-05)
(0.197706 4.19485e-05 -1.54239e-05)
(0.197558 -6.28323e-05 -1.47318e-05)
(0.197412 -0.000157866 -1.39642e-05)
(0.197269 -0.00024228 -1.31252e-05)
(0.197129 -0.000315426 -1.22222e-05)
(0.196994 -0.00037687 -1.12663e-05)
(0.196864 -0.000426398 -1.02711e-05)
(0.19674 -0.000464045 -9.25159e-06)
(0.196622 -0.000490137 -8.2225e-06)
(0.196512 -0.000505334 -7.19799e-06)
(0.19641 -0.000510622 -6.19172e-06)
(0.196316 -0.000507271 -5.21728e-06)
(0.19623 -0.000496752 -4.28822e-06)
(0.196152 -0.000480626 -3.41774e-06)
(0.196082 -0.000460441 -2.61798e-06)
(0.196018 -0.000437639 -1.89894e-06)
(0.19596 -0.000413483 -1.26795e-06)
(0.195907 -0.000389012 -7.30202e-07)
(0.195857 -0.000365042 -2.86397e-07)
(0.195809 -0.000342182 6.70397e-08)
(0.195762 -0.00032084 3.35683e-07)
(0.195715 -0.000301257 5.26536e-07)
(0.195668 -0.000283534 6.47981e-07)
(0.195619 -0.000267677 7.09341e-07)
(0.195567 -0.000253625 7.20251e-07)
(0.195513 -0.000241276 6.90118e-07)
(0.195455 -0.000230512 6.27682e-07)
(0.195393 -0.000221208 5.40642e-07)
(0.195327 -0.000213237 4.35207e-07)
(0.195257 -0.000206475 3.15399e-07)
(0.195182 -0.000200794 1.81902e-07)
(0.195102 -0.000196057 3.07753e-08)
(0.195018 -0.000192161 -1.44218e-07)
(0.19493 -0.000189309 -3.22486e-07)
(0.19484 -0.000189336 -2.96665e-07)
(0.19472 -0.000200047 8.62079e-07)
(0.197685 0.00448656 7.15739e-08)
(0.197789 0.00479204 2.26046e-07)
(0.197922 0.00507809 4.20768e-07)
(0.198083 0.00533941 6.58947e-07)
(0.198264 0.0055737 9.21385e-07)
(0.198462 0.00578034 1.18509e-06)
(0.19867 0.00595941 1.4328e-06)
(0.198886 0.00611125 1.65159e-06)
(0.199106 0.00623641 1.83034e-06)
(0.199329 0.0063356 1.9601e-06)
(0.199551 0.00640961 2.03506e-06)
(0.199772 0.00645927 2.05212e-06)
(0.199988 0.00648546 2.00979e-06)
(0.200199 0.0064891 1.90752e-06)
(0.200402 0.00647124 1.74537e-06)
(0.200597 0.00643303 1.52386e-06)
(0.200782 0.00637574 1.24385e-06)
(0.200955 0.00630077 9.06493e-07)
(0.201117 0.00620966 5.13254e-07)
(0.201264 0.00610406 6.60404e-08)
(0.201398 0.00598571 -4.32669e-07)
(0.201517 0.00585643 -9.79679e-07)
(0.201622 0.00571803 -1.57095e-06)
(0.201712 0.00557234 -2.20154e-06)
(0.201787 0.00542113 -2.86555e-06)
(0.201848 0.00526608 -3.55622e-06)
(0.201896 0.00510873 -4.26604e-06)
(0.201931 0.00495047 -4.98696e-06)
(0.201954 0.00479253 -5.71069e-06)
(0.201966 0.00463591 -6.42894e-06)
(0.201969 0.00448145 -7.13377e-06)
(0.201963 0.00432977 -7.81788e-06)
(0.201949 0.00418131 -8.47483e-06)
(0.201929 0.00403634 -9.09931e-06)
(0.201903 0.00389494 -9.68717e-06)
(0.201872 0.0037571 -1.02356e-05)
(0.201838 0.00362268 -1.07429e-05)
(0.2018 0.00349142 -1.12087e-05)
(0.20176 0.00336303 -1.16336e-05)
(0.201718 0.00323715 -1.2019e-05)
(0.201673 0.00311338 -1.2367e-05)
(0.201628 0.00299131 -1.26802e-05)
(0.201581 0.00287053 -1.29614e-05)
(0.201533 0.00275062 -1.32132e-05)
(0.201484 0.00263117 -1.34384e-05)
(0.201435 0.0025118 -1.36392e-05)
(0.201384 0.00239216 -1.38173e-05)
(0.201332 0.0022719 -1.39741e-05)
(0.201279 0.00215071 -1.41099e-05)
(0.201224 0.00202833 -1.42245e-05)
(0.201168 0.00190451 -1.43168e-05)
(0.201111 0.00177906 -1.43851e-05)
(0.201051 0.00165184 -1.44268e-05)
(0.200989 0.00152279 -1.4439e-05)
(0.200924 0.00139194 -1.44188e-05)
(0.200856 0.00125945 -1.43631e-05)
(0.200785 0.0011256 -1.42694e-05)
(0.200709 0.000990874 -1.41358e-05)
(0.200629 0.000855949 -1.39609e-05)
(0.200544 0.000721693 -1.37442e-05)
(0.200455 0.000589166 -1.34852e-05)
(0.20036 0.000459579 -1.31837e-05)
(0.20026 0.000334243 -1.2839e-05)
(0.200156 0.0002145 -1.245e-05)
(0.200047 0.000101649 -1.2015e-05)
(0.199936 -3.11612e-06 -1.15324e-05)
(0.199822 -9.87638e-05 -1.10015e-05)
(0.199706 -0.000184451 -1.04228e-05)
(0.199591 -0.000259536 -9.79968e-06)
(0.199476 -0.000323583 -9.13763e-06)
(0.199363 -0.000376373 -8.44426e-06)
(0.199254 -0.00041792 -7.72796e-06)
(0.199149 -0.000448512 -6.99689e-06)
(0.199049 -0.000468723 -6.2586e-06)
(0.198955 -0.000479413 -5.52052e-06)
(0.198869 -0.00048169 -4.79058e-06)
(0.19879 -0.00047684 -4.07774e-06)
(0.198719 -0.000466242 -3.39185e-06)
(0.198655 -0.000451278 -2.74334e-06)
(0.198599 -0.000433253 -2.14232e-06)
(0.198549 -0.000413333 -1.59774e-06)
(0.198505 -0.000392505 -1.11679e-06)
(0.198466 -0.000371562 -7.04197e-07)
(0.198431 -0.000351111 -3.61515e-07)
(0.1984 -0.000331587 -8.71356e-08)
(0.198371 -0.000313278 1.22545e-07)
(0.198343 -0.000296345 2.72384e-07)
(0.198316 -0.000280857 3.68517e-07)
(0.198289 -0.000266816 4.17928e-07)
(0.198262 -0.000254183 4.27945e-07)
(0.198234 -0.000242894 4.05778e-07)
(0.198204 -0.000232876 3.58159e-07)
(0.198173 -0.000224055 2.9102e-07)
(0.198139 -0.00021636 2.09342e-07)
(0.198103 -0.000209734 1.17601e-07)
(0.198065 -0.00020416 2.26724e-08)
(0.198024 -0.000199755 -5.41268e-08)
(0.197981 -0.000197078 -3.5428e-08)
(0.197935 -0.000197974 3.30783e-07)
(0.197869 -0.000207008 1.65483e-06)
(0.198056 0.00437745 -3.09238e-10)
(0.198138 0.00464048 8.91663e-09)
(0.198244 0.00489064 5.28583e-08)
(0.198371 0.00512357 1.42142e-07)
(0.198517 0.00533643 2.71919e-07)
(0.198678 0.00552759 4.30302e-07)
(0.198851 0.0056962 6.05043e-07)
(0.199032 0.00584185 7.85233e-07)
(0.199219 0.00596446 9.60779e-07)
(0.199409 0.00606421 1.12254e-06)
(0.1996 0.00614146 1.26301e-06)
(0.199791 0.00619671 1.37648e-06)
(0.199979 0.00623057 1.45866e-06)
(0.200164 0.00624378 1.50615e-06)
(0.200343 0.00623717 1.51614e-06)
(0.200516 0.00621169 1.48621e-06)
(0.20068 0.00616843 1.41426e-06)
(0.200836 0.00610856 1.29841e-06)
(0.200982 0.0060334 1.13708e-06)
(0.201117 0.00594435 9.29062e-07)
(0.201241 0.0058429 6.73683e-07)
(0.201353 0.00573059 3.70982e-07)