/*--------------------------------*- C++ -*----------------------------------*\
| =========                 |                                                 |
| \\      /  F ield         | OpenFOAM: The Open Source CFD Toolbox           |
|  \\    /   O peration     | Version:  2.3.0                                 |
|   \\  /    A nd           | Web:      www.OpenFOAM.org                      |
|    \\/     M anipulation  |                                                 |
\*---------------------------------------------------------------------------*/
FoamFile
{
    version     2.0;
    format      ascii;
    class       volVectorField;
    location    "1";
    object      U;
}
// * * * * * * * * * * * * * * * * * * * * * * * * * * * * * * * * * * * * * //

dimensions      [0 1 -1 0 0 0 0];

internalField   nonuniform List<vector> 
1500
(
(0.17595 0.00442376 0)
(0.15519 0.00605632 0)
(0.136302 0.00621988 0)
(0.117836 0.00560896 0)
(0.0999866 0.00478771 0)
(0.083642 0.00387352 0)
(0.0699252 0.0028776 0)
(0.0592447 0.00182273 0)
(0.0513817 0.000902631 0)
(0.0457642 0.000283192 0)
(0.0418011 -3.93928e-05 0)
(0.0390021 -0.000160344 0)
(0.0369757 -0.000169993 0)
(0.0354332 -0.000129536 0)
(0.0341691 -7.20829e-05 0)
(0.0330547 -1.7418e-05 0)
(0.0320215 2.44537e-05 0)
(0.0310408 5.14615e-05 0)
(0.0301062 6.59031e-05 0)
(0.0292202 7.14175e-05 0)
(0.0283869 7.13479e-05 0)
(0.0276086 6.82268e-05 0)
(0.0268856 6.37348e-05 0)
(0.0262156 5.88997e-05 0)
(0.0255953 5.42594e-05 0)
(0.0250202 5.00584e-05 0)
(0.0244858 4.63507e-05 0)
(0.0239874 4.31276e-05 0)
(0.023521 4.03211e-05 0)
(0.0230827 3.78765e-05 0)
(0.0226693 3.57192e-05 0)
(0.0222779 3.38104e-05 0)
(0.0219063 3.20927e-05 0)
(0.0215521 3.05472e-05 0)
(0.0212142 2.91295e-05 0)
(0.0208906 2.78357e-05 0)
(0.0205808 2.66293e-05 0)
(0.0202829 2.55177e-05 0)
(0.0199968 2.44682e-05 0)
(0.019721 2.34965e-05 0)
(0.0194555 2.25706e-05 0)
(0.0191989 2.17127e-05 0)
(0.0189515 2.08892e-05 0)
(0.0187117 2.0128e-05 0)
(0.0184802 1.93921e-05 0)
(0.0182553 1.87151e-05 0)
(0.0180379 1.80552e-05 0)
(0.0178262 1.74519e-05 0)
(0.0176214 1.68577e-05 0)
(0.0174215 1.63187e-05 0)
(0.017228 1.57809e-05 0)
(0.0170386 1.52978e-05 0)
(0.0168553 1.48079e-05 0)
(0.0166753 1.43734e-05 0)
(0.0165013 1.39237e-05 0)
(0.0163299 1.35317e-05 0)
(0.0161643 1.31158e-05 0)
(0.0160007 1.27612e-05 0)
(0.015843 1.23736e-05 0)
(0.0156865 1.20523e-05 0)
(0.015536 1.16884e-05 0)
(0.015386 1.13976e-05 0)
(0.0152423 1.10535e-05 0)
(0.0150983 1.0791e-05 0)
(0.014961 1.04633e-05 0)
(0.0148224 1.02277e-05 0)
(0.0146911 9.91309e-06 0)
(0.0145577 9.70364e-06 0)
(0.0144321 9.39911e-06 0)
(0.0143032 9.21561e-06 0)
(0.0141832 8.91827e-06 0)
(0.0140585 8.76087e-06 0)
(0.0139438 8.46777e-06 0)
(0.0138229 8.33733e-06 0)
(0.0137133 8.04519e-06 0)
(0.0135958 7.9433e-06 0)
(0.0134914 7.64858e-06 0)
(0.0133767 7.57754e-06 0)
(0.0132774 7.27625e-06 0)
(0.0131651 7.23938e-06 0)
(0.0130709 6.92692e-06 0)
(0.0129605 6.92871e-06 0)
(0.0128716 6.59973e-06 0)
(0.0127625 6.64623e-06 0)
(0.012679 6.2942e-06 0)
(0.0125704 6.3937e-06 0)
(0.0124927 6.01033e-06 0)
(0.0123837 6.17399e-06 0)
(0.0123121 5.74836e-06 0)
(0.0122018 5.99159e-06 0)
(0.0121369 5.50878e-06 0)
(0.0120237 5.85377e-06 0)
(0.0119664 5.292e-06 0)
(0.0118485 5.77209e-06 0)
(0.0118001 5.09576e-06 0)
(0.0116747 5.76747e-06 0)
(0.0116375 4.9138e-06 0)
(0.0115001 5.88268e-06 0)
(0.0114787 4.8746e-06 0)
(0.0113144 7.95981e-06 0)
(0.19135 0.00786945 0)
(0.189609 0.0110281 0)
(0.187175 0.0121608 0)
(0.183425 0.0120375 0)
(0.178096 0.0114217 0)
(0.171367 0.0105297 0)
(0.163862 0.00936491 0)
(0.156038 0.00792259 0)
(0.148255 0.00635783 0)
(0.14073 0.00489651 0)
(0.133602 0.00368853 0)
(0.12698 0.00276842 0)
(0.120922 0.00210434 0)
(0.115455 0.00164976 0)
(0.11055 0.00135092 0)
(0.106145 0.00115599 0)
(0.102177 0.00102341 0)
(0.0985846 0.00092528 0)
(0.0953181 0.000845393 0)
(0.0923348 0.000775514 0)
(0.0896009 0.000711953 0)
(0.0870866 0.000653409 0)
(0.0847681 0.000599584 0)
(0.0826231 0.000550569 0)
(0.0806338 0.000506407 0)
(0.0787824 0.000467049 0)
(0.0770552 0.000432214 0)
(0.0754379 0.000401552 0)
(0.0739201 0.000374562 0)
(0.0724902 0.000350781 0)
(0.0711407 0.000329694 0)
(0.0698623 0.00031091 0)
(0.0686498 0.000294016 0)
(0.0674956 0.000278754 0)
(0.0663964 0.000264823 0)
(0.0653457 0.000252079 0)
(0.0643417 0.000240304 0)
(0.0633786 0.000229434 0)
(0.0624559 0.000219301 0)
(0.0615679 0.000209895 0)
(0.0607152 0.000201072 0)
(0.0598923 0.000192859 0)
(0.0591006 0.000185118 0)
(0.0583343 0.000177901 0)
(0.0575959 0.00017107 0)
(0.0568794 0.000164699 0)
(0.0561882 0.00015864 0)
(0.0555154 0.00015299 0)
(0.054866 0.000147589 0)
(0.0542322 0.000142553 0)
(0.0536201 0.00013771 0)
(0.0530209 0.0001332 0)
(0.0524423 0.00012883 0)
(0.0518743 0.00012477 0)
(0.0513261 0.000120804 0)
(0.050786 0.00011713 0)
(0.0502655 0.000113507 0)
(0.0497508 0.000110169 0)
(0.0492557 0.000106841 0)
(0.048764 0.000103797 0)
(0.0482924 0.000100723 0)
(0.0478217 9.7939e-05 0)
(0.047372 9.50855e-05 0)
(0.0469205 9.25344e-05 0)
(0.0464913 8.98729e-05 0)
(0.0460573 8.75332e-05 0)
(0.0456474 8.50389e-05 0)
(0.0452295 8.28937e-05 0)
(0.044838 8.05446e-05 0)
(0.0444346 7.85807e-05 0)
(0.0440607 7.63576e-05 0)
(0.0436705 7.45641e-05 0)
(0.0433136 7.24494e-05 0)
(0.0429352 7.08192e-05 0)
(0.0425949 6.8796e-05 0)
(0.042227 6.73252e-05 0)
(0.0419031 6.53771e-05 0)
(0.0415442 6.40649e-05 0)
(0.0412366 6.2176e-05 0)
(0.0408851 6.10256e-05 0)
(0.0405941 5.91797e-05 0)
(0.0402484 5.81985e-05 0)
(0.0399743 5.6379e-05 0)
(0.0396326 5.55796e-05 0)
(0.0393761 5.37689e-05 0)
(0.039036 5.31713e-05 0)
(0.0387982 5.13493e-05 0)
(0.038457 5.09822e-05 0)
(0.0382394 4.91254e-05 0)
(0.0378938 4.90291e-05 0)
(0.0376986 4.71085e-05 0)
(0.0373443 4.734e-05 0)
(0.0371743 4.53186e-05 0)
(0.0368056 4.59577e-05 0)
(0.0366653 4.37854e-05 0)
(0.0362742 4.49475e-05 0)
(0.0361705 4.25692e-05 0)
(0.0357441 4.45328e-05 0)
(0.0356898 4.19426e-05 0)
(0.0352032 4.96665e-05 0)
(0.192594 0.00760062 0)
(0.192917 0.0101823 0)
(0.193861 0.0117895 0)
(0.194892 0.0123479 0)
(0.19541 0.0122848 0)
(0.195093 0.0118677 0)
(0.193918 0.0111476 0)
(0.191968 0.0101559 0)
(0.189376 0.00899962 0)
(0.186284 0.00784036 0)
(0.182832 0.00680768 0)
(0.179162 0.00595326 0)
(0.175392 0.00526567 0)
(0.171622 0.00471572 0)
(0.167903 0.00426848 0)
(0.164258 0.00389313 0)
(0.160699 0.00356698 0)
(0.15723 0.00327567 0)
(0.153857 0.00301103 0)
(0.150583 0.00276876 0)
(0.147412 0.00254648 0)
(0.144347 0.00234284 0)
(0.141391 0.00215681 0)
(0.138545 0.00198756 0)
(0.135811 0.0018342 0)
(0.133187 0.00169583 0)
(0.130673 0.00157139 0)
(0.128265 0.00145981 0)
(0.125961 0.00135982 0)
(0.123754 0.00127027 0)
(0.121643 0.00118989 0)
(0.119621 0.00111763 0)
(0.117685 0.00105242 0)
(0.115828 0.000993405 0)
(0.114048 0.000939743 0)
(0.112338 0.000890832 0)
(0.110696 0.000846012 0)
(0.109115 0.000804881 0)
(0.107595 0.000766927 0)
(0.106127 0.000731897 0)
(0.104715 0.000699381 0)
(0.103348 0.000669231 0)
(0.10203 0.000641101 0)
(0.100751 0.000614923 0)
(0.0995168 0.000590387 0)
(0.098316 0.000567484 0)
(0.0971569 0.000545925 0)
(0.0960258 0.000525747 0)
(0.0949337 0.00050667 0)
(0.0938648 0.000488776 0)
(0.092833 0.000471782 0)
(0.0918201 0.00045581 0)
(0.0908428 0.000440573 0)
(0.0898804 0.00042623 0)
(0.0889529 0.000412481 0)
(0.0880362 0.000399528 0)
(0.0871544 0.000387049 0)
(0.086279 0.00037529 0)
(0.0854394 0.000363903 0)
(0.0846018 0.000353179 0)
(0.0838013 0.000342738 0)
(0.0829982 0.000332919 0)
(0.0822342 0.000323302 0)
(0.0814625 0.00031428 0)
(0.0807329 0.000305388 0)
(0.0799899 0.000297076 0)
(0.0792929 0.000288822 0)
(0.078576 0.000281147 0)
(0.07791 0.00027346 0)
(0.0772169 0.00026636 0)
(0.0765808 0.000259178 0)
(0.075909 0.000252602 0)
(0.075302 0.000245871 0)
(0.0746492 0.000239776 0)
(0.0740707 0.000233449 0)
(0.0734344 0.000227802 0)
(0.0728843 0.000221837 0)
(0.0722622 0.00021661 0)
(0.0717404 0.000210973 0)
(0.0711298 0.000206148 0)
(0.070637 0.000200806 0)
(0.070035 0.000196374 0)
(0.0695721 0.000191302 0)
(0.0689754 0.000187259 0)
(0.0685439 0.000182439 0)
(0.0679485 0.000178795 0)
(0.0675506 0.000174211 0)
(0.066952 0.000170987 0)
(0.0665906 0.000166633 0)
(0.065983 0.000163863 0)
(0.065662 0.000159743 0)
(0.0650383 0.000157478 0)
(0.0647632 0.000153609 0)
(0.064114 0.000151919 0)
(0.0638924 0.000148334 0)
(0.0632052 0.000147357 0)
(0.0630476 0.000144039 0)
(0.0623053 0.00014448 0)
(0.0622259 0.000141201 0)
(0.0614062 0.000149643 0)
(0.193782 0.00719954 0)
(0.194053 0.00898239 0)
(0.194916 0.0104344 0)
(0.196271 0.0112073 0)
(0.197728 0.0113946 0)
(0.198943 0.0112014 0)
(0.199748 0.0107431 0)
(0.200094 0.0100817 0)
(0.199984 0.00928798 0)
(0.199452 0.00845918 0)
(0.198557 0.00768816 0)
(0.19738 0.00702818 0)
(0.196004 0.00648661 0)
(0.194499 0.00604185 0)
(0.192911 0.00566736 0)
(0.191262 0.00534141 0)
(0.189564 0.00504861 0)
(0.18782 0.00477914 0)
(0.186035 0.00452705 0)
(0.18421 0.00428902 0)
(0.182352 0.00406316 0)
(0.180464 0.00384857 0)
(0.178555 0.00364474 0)
(0.17663 0.00345153 0)
(0.174698 0.00326881 0)
(0.172761 0.00309656 0)
(0.17083 0.00293457 0)
(0.168904 0.00278264 0)
(0.166994 0.00264031 0)
(0.165098 0.00250716 0)
(0.163224 0.0023826 0)
(0.161369 0.00226614 0)
(0.159543 0.00215716 0)
(0.15774 0.00205519 0)
(0.155968 0.00195969 0)
(0.154222 0.00187025 0)
(0.152511 0.00178639 0)
(0.150825 0.00170779 0)
(0.149177 0.00163401 0)
(0.147553 0.0015648 0)
(0.145968 0.00149977 0)
(0.144408 0.00143869 0)
(0.142886 0.00138123 0)
(0.141387 0.00132721 0)
(0.139927 0.0012763 0)
(0.138488 0.00122837 0)
(0.137089 0.00118313 0)
(0.135706 0.00114045 0)
(0.134365 0.00110009 0)
(0.133037 0.00106193 0)
(0.131751 0.00102577 0)
(0.130475 0.000991511 0)
(0.129242 0.000958968 0)
(0.128015 0.000928063 0)
(0.126832 0.00089864 0)
(0.125649 0.000870631 0)
(0.124514 0.000843909 0)
(0.123375 0.000818408 0)
(0.122285 0.000794035 0)
(0.121184 0.000770718 0)
(0.120138 0.000748398 0)
(0.119074 0.000726991 0)
(0.11807 0.000706477 0)
(0.11704 0.000686748 0)
(0.116075 0.000667833 0)
(0.115077 0.000649587 0)
(0.114151 0.000632093 0)
(0.113181 0.000615166 0)
(0.112292 0.000598945 0)
(0.111348 0.000583192 0)
(0.110497 0.00056812 0)
(0.109576 0.000553417 0)
(0.108762 0.000539388 0)
(0.107861 0.000525629 0)
(0.107083 0.000512553 0)
(0.106201 0.000499645 0)
(0.10546 0.000487451 0)
(0.104592 0.000475313 0)
(0.103889 0.000463942 0)
(0.103032 0.000452507 0)
(0.102368 0.000441915 0)
(0.101518 0.000431126 0)
(0.100896 0.000421287 0)
(0.100048 0.000411098 0)
(0.0994702 0.000402004 0)
(0.09862 0.00039238 0)
(0.0980893 0.000384043 0)
(0.0972304 0.000374967 0)
(0.0967516 0.000367419 0)
(0.0958764 0.000358892 0)
(0.0954553 0.000352189 0)
(0.0945547 0.000344249 0)
(0.0941986 0.000338451 0)
(0.0932613 0.000331219 0)
(0.0929793 0.000326333 0)
(0.0919913 0.000320172 0)
(0.0917945 0.000315993 0)
(0.0907392 0.000312178 0)
(0.0906395 0.000308476 0)
(0.089499 0.000312736 0)
(0.194785 0.006911 0)
(0.195027 0.00822515 0)
(0.195655 0.00941541 0)
(0.196692 0.010204 0)
(0.197955 0.0105126 0)
(0.199189 0.0104424 0)
(0.200225 0.0101169 0)
(0.200991 0.00962393 0)
(0.201477 0.00902917 0)
(0.201694 0.00839595 0)
(0.201671 0.00778713 0)
(0.20145 0.00724712 0)
(0.201089 0.00679168 0)
(0.200636 0.00641226 0)
(0.200127 0.00609124 0)
(0.19958 0.00581204 0)
(0.199003 0.00556222 0)
(0.198393 0.00533347 0)
(0.197751 0.00512039 0)
(0.197069 0.00491962 0)
(0.19635 0.00472903 0)
(0.195588 0.0045473 0)
(0.194789 0.0043736 0)
(0.193949 0.00420747 0)
(0.193076 0.00404862 0)
(0.192165 0.00389688 0)
(0.191228 0.00375208 0)
(0.190256 0.00361404 0)
(0.189263 0.00348253 0)
(0.18824 0.00335727 0)
(0.187201 0.00323794 0)
(0.186135 0.00312419 0)
(0.185057 0.0030157 0)
(0.183956 0.00291211 0)
(0.182847 0.00281318 0)
(0.181718 0.00271855 0)
(0.180586 0.00262806 0)
(0.179434 0.0025414 0)
(0.178286 0.00245847 0)
(0.177119 0.00237896 0)
(0.175959 0.00230284 0)
(0.174782 0.00222978 0)
(0.173617 0.00215983 0)
(0.172434 0.00209263 0)
(0.171269 0.00202829 0)
(0.170085 0.00196641 0)
(0.168923 0.00190718 0)
(0.167743 0.00185014 0)
(0.166588 0.00179555 0)
(0.165414 0.00174291 0)
(0.164271 0.00169255 0)
(0.163104 0.00164388 0)
(0.161976 0.00159736 0)
(0.16082 0.00155231 0)
(0.159708 0.00150928 0)
(0.158564 0.00146749 0)
(0.157471 0.00142763 0)
(0.15634 0.00138879 0)
(0.155268 0.00135182 0)
(0.154152 0.00131565 0)
(0.153102 0.00128132 0)
(0.152 0.00124757 0)
(0.150975 0.00121565 0)
(0.149887 0.00118407 0)
(0.148887 0.00115436 0)
(0.147813 0.00112476 0)
(0.146841 0.00109708 0)
(0.14578 0.00106925 0)
(0.144836 0.00104346 0)
(0.143787 0.00101723 0)
(0.142873 0.000993178 0)
(0.141835 0.00096839 0)
(0.140952 0.000945969 0)
(0.139923 0.000922472 0)
(0.139074 0.000901585 0)
(0.138052 0.000879243 0)
(0.137239 0.000859814 0)
(0.13622 0.0008385 0)
(0.135445 0.000820472 0)
(0.134427 0.000800073 0)
(0.133694 0.000783409 0)
(0.132673 0.000763822 0)
(0.131984 0.00074851 0)
(0.130956 0.000729647 0)
(0.130315 0.000715694 0)
(0.129274 0.000697489 0)
(0.128687 0.000684927 0)
(0.127627 0.000667343 0)
(0.1271 0.000656222 0)
(0.126013 0.000639273 0)
(0.125551 0.000629644 0)
(0.124429 0.000613432 0)
(0.124041 0.00060532 0)
(0.122872 0.000590103 0)
(0.122568 0.000583447 0)
(0.12134 0.000569793 0)
(0.121128 0.000564401 0)
(0.119827 0.000553666 0)
(0.119719 0.000549789 0)
(0.11833 0.000545839 0)
(0.195651 0.00667573 0)
(0.19587 0.0077059 0)
(0.19635 0.0086645 0)
(0.197116 0.00938399 0)
(0.198089 0.00975543 0)
(0.199107 0.00979329 0)
(0.200026 0.00958428 0)
(0.200764 0.009216 0)
(0.2013 0.00875459 0)
(0.201639 0.0082511 0)
(0.201805 0.00774966 0)
(0.201828 0.00728559 0)
(0.201751 0.00687812 0)
(0.201609 0.00652871 0)
(0.201437 0.00622851 0)
(0.201249 0.00596588 0)
(0.201061 0.00573093 0)
(0.200865 0.0055164 0)
(0.200667 0.00531766 0)
(0.200454 0.00513161 0)
(0.200232 0.00495641 0)
(0.199988 0.00479066 0)
(0.199732 0.00463357 0)
(0.199451 0.00448432 0)
(0.199158 0.00434258 0)
(0.198838 0.00420778 0)
(0.198508 0.0040798 0)
(0.19815 0.0039581 0)
(0.197783 0.00384261 0)
(0.197387 0.00373273 0)
(0.196983 0.00362837 0)
(0.196548 0.00352884 0)
(0.196108 0.00343412 0)
(0.195636 0.00334347 0)
(0.19516 0.00325697 0)
(0.194651 0.00317386 0)
(0.19414 0.00309435 0)
(0.193595 0.00301767 0)
(0.193051 0.00294418 0)
(0.19247 0.00287304 0)
(0.191894 0.00280478 0)
(0.191279 0.00273847 0)
(0.190674 0.00267481 0)
(0.190027 0.00261276 0)
(0.189394 0.00255317 0)
(0.188716 0.0024949 0)
(0.188058 0.00243897 0)
(0.187351 0.00238407 0)
(0.186671 0.00233143 0)
(0.185937 0.00227956 0)
(0.185237 0.00222992 0)
(0.184478 0.00218078 0)
(0.183761 0.00213388 0)
(0.182979 0.00208721 0)
(0.182248 0.00204284 0)
(0.181445 0.00199842 0)
(0.180702 0.00195638 0)
(0.179879 0.00191402 0)
(0.179128 0.00187417 0)
(0.178287 0.00183369 0)
(0.17753 0.00179589 0)
(0.176672 0.00175714 0)
(0.175913 0.00172128 0)
(0.17504 0.00168412 0)
(0.174282 0.00165012 0)
(0.173393 0.00161443 0)
(0.172639 0.0015822 0)
(0.171736 0.00154785 0)
(0.170988 0.00151734 0)
(0.170071 0.00148422 0)
(0.169334 0.00145538 0)
(0.168403 0.00142338 0)
(0.167679 0.00139618 0)
(0.166733 0.00136518 0)
(0.166027 0.00133959 0)
(0.165066 0.00130951 0)
(0.16438 0.0012855 0)
(0.163402 0.00125623 0)
(0.162741 0.00123383 0)
(0.161744 0.00120528 0)
(0.161113 0.00118447 0)
(0.160094 0.00115657 0)
(0.159497 0.0011374 0)
(0.158453 0.00111007 0)
(0.157896 0.00109257 0)
(0.156823 0.0010658 0)
(0.156311 0.00105003 0)
(0.155205 0.00102381 0)
(0.154744 0.00100983 0)
(0.153599 0.000984266 0)
(0.153196 0.000972128 0)
(0.152005 0.000947396 0)
(0.151667 0.000937145 0)
(0.150423 0.000913586 0)
(0.150158 0.000905246 0)
(0.14885 0.000883451 0)
(0.148667 0.000877107 0)
(0.147287 0.000858217 0)
(0.147193 0.000854539 0)
(0.145729 0.000840745 0)
(0.196419 0.00646591 0)
(0.196612 0.00729367 0)
(0.196984 0.00806517 0)
(0.197551 0.00868345 0)
(0.198279 0.00906398 0)
(0.199073 0.00918368 0)
(0.199831 0.00908276 0)
(0.200472 0.00882642 0)
(0.200964 0.00847462 0)
(0.201298 0.00807394 0)
(0.201496 0.00766052 0)
(0.201575 0.00726205 0)
(0.201574 0.00689709 0)
(0.201515 0.00657256 0)
(0.201433 0.00628654 0)
(0.201337 0.00603219 0)
(0.201248 0.00580253 0)
(0.201157 0.00559152 0)
(0.201077 0.00539552 0)
(0.200991 0.00521174 0)
(0.200913 0.00503906 0)
(0.200823 0.00487607 0)
(0.200738 0.00472246 0)
(0.200639 0.00457716 0)
(0.200545 0.00444015 0)
(0.200435 0.00431043 0)
(0.200333 0.00418819 0)
(0.200211 0.0040724 0)
(0.200099 0.00396342 0)
(0.199965 0.00386011 0)
(0.199842 0.00376289 0)
(0.199694 0.00367049 0)
(0.199558 0.00358348 0)
(0.199394 0.00350042 0)
(0.199245 0.00342207 0)
(0.199063 0.00334689 0)
(0.198898 0.00327587 0)
(0.198697 0.00320732 0)
(0.198515 0.00314249 0)
(0.198293 0.00307955 0)
(0.198095 0.00302 0)
(0.19785 0.00296181 0)
(0.197633 0.00290679 0)
(0.197365 0.00285264 0)
(0.197129 0.00280152 0)
(0.196836 0.00275082 0)
(0.196582 0.00270307 0)
(0.196264 0.00265533 0)
(0.195991 0.00261052 0)
(0.195646 0.00256531 0)
(0.195355 0.00252307 0)
(0.194983 0.00248002 0)
(0.194674 0.00244004 0)
(0.194275 0.00239885 0)
(0.193949 0.00236087 0)
(0.193523 0.00232127 0)
(0.19318 0.0022851 0)
(0.192726 0.00224686 0)
(0.192368 0.00221232 0)
(0.191886 0.00217524 0)
(0.191515 0.00214221 0)
(0.191004 0.00210614 0)
(0.190621 0.00207451 0)
(0.190082 0.0020393 0)
(0.189689 0.002009 0)
(0.189122 0.00197453 0)
(0.18872 0.00194551 0)
(0.188124 0.00191168 0)
(0.187717 0.00188389 0)
(0.187091 0.0018506 0)
(0.186681 0.00182405 0)
(0.186025 0.00179121 0)
(0.185614 0.00176589 0)
(0.184928 0.00173343 0)
(0.18452 0.00170934 0)
(0.183801 0.00167719 0)
(0.183399 0.00165435 0)
(0.182649 0.00162246 0)
(0.182256 0.00160091 0)
(0.181471 0.00156922 0)
(0.181091 0.00154901 0)
(0.180271 0.0015175 0)
(0.179908 0.00149867 0)
(0.179051 0.00146735 0)
(0.178709 0.00144997 0)
(0.177812 0.00141886 0)
(0.177496 0.001403 0)
(0.176556 0.0013722 0)
(0.176271 0.00135795 0)
(0.175285 0.00132761 0)
(0.175036 0.00131508 0)
(0.174 0.00128544 0)
(0.173791 0.00127477 0)
(0.172703 0.0012462 0)
(0.172539 0.00123757 0)
(0.171393 0.00121066 0)
(0.17128 0.00120443 0)
(0.17007 0.00118012 0)
(0.170014 0.00117708 0)
(0.168736 0.00115643 0)
(0.197109 0.00626932 0)
(0.197272 0.00694248 0)
(0.197559 0.00756739 0)
(0.197976 0.0080882 0)
(0.198511 0.00844782 0)
(0.199108 0.00861658 0)
(0.199706 0.00860406 0)
(0.200235 0.00844748 0)
(0.200662 0.00819272 0)
(0.200966 0.00788044 0)
(0.201163 0.00754328 0)
(0.201259 0.00720498 0)
(0.201289 0.00688258 0)
(0.201264 0.00658494 0)
(0.201219 0.00631485 0)
(0.201154 0.00606935 0)
(0.201096 0.00584471 0)
(0.201033 0.00563617 0)
(0.200984 0.00544134 0)
(0.200928 0.00525756 0)
(0.200885 0.00508451 0)
(0.200831 0.00492067 0)
(0.20079 0.00476645 0)
(0.200734 0.00462042 0)
(0.200693 0.00448319 0)
(0.200635 0.00435319 0)
(0.200596 0.00423123 0)
(0.200538 0.00411562 0)
(0.200499 0.00400738 0)
(0.20044 0.00390464 0)
(0.200403 0.00380863 0)
(0.200341 0.00371724 0)
(0.200305 0.00363193 0)
(0.20024 0.00355037 0)
(0.200203 0.00347427 0)
(0.200134 0.00340109 0)
(0.200096 0.00333288 0)
(0.200021 0.00326681 0)
(0.199981 0.00320533 0)
(0.199899 0.00314531 0)
(0.199855 0.0030896 0)
(0.199764 0.00303472 0)
(0.199717 0.00298397 0)
(0.199616 0.00293348 0)
(0.199564 0.00288701 0)
(0.199451 0.00284026 0)
(0.199394 0.00279749 0)
(0.199268 0.0027539 0)
(0.199205 0.00271435 0)
(0.199065 0.00267344 0)
(0.198995 0.00263668 0)
(0.19884 0.00259804 0)
(0.198764 0.00256371 0)
(0.198592 0.00252697 0)
(0.198508 0.00249476 0)
(0.198318 0.00245959 0)
(0.198228 0.00242925 0)
(0.198019 0.00239539 0)
(0.197922 0.00236671 0)
(0.197692 0.00233391 0)
(0.197588 0.0023067 0)
(0.197337 0.00227476 0)
(0.197226 0.00224889 0)
(0.196953 0.00221763 0)
(0.196836 0.00219299 0)
(0.196538 0.00216225 0)
(0.196416 0.00213874 0)
(0.196094 0.0021084 0)
(0.195967 0.00208594 0)
(0.195619 0.00205589 0)
(0.195488 0.00203445 0)
(0.195113 0.00200457 0)
(0.194979 0.0019841 0)
(0.194576 0.00195433 0)
(0.194441 0.00193481 0)
(0.194008 0.00190507 0)
(0.193873 0.0018865 0)
(0.193409 0.00185673 0)
(0.193276 0.00183911 0)
(0.19278 0.0018093 0)
(0.19265 0.00179263 0)
(0.192122 0.00176277 0)
(0.191996 0.0017471 0)
(0.191434 0.00171722 0)
(0.191315 0.00170258 0)
(0.190717 0.00167274 0)
(0.190607 0.0016592 0)
(0.189972 0.00162952 0)
(0.189873 0.00161719 0)
(0.1892 0.00158785 0)
(0.189114 0.00157686 0)
(0.188401 0.00154814 0)
(0.18833 0.00153869 0)
(0.187576 0.00151097 0)
(0.187521 0.00150336 0)
(0.186725 0.0014772 0)
(0.186688 0.00147196 0)
(0.185848 0.00144817 0)
(0.185831 0.00144601 0)
(0.184946 0.001425 0)
(0.197704 0.00609747 0)
(0.197837 0.00665737 0)
(0.198057 0.0071764 0)
(0.198364 0.00761896 0)
(0.198758 0.00794827 0)
(0.1992 0.00813882 0)
(0.199657 0.00818676 0)
(0.200074 0.00810848 0)
(0.200428 0.00793434 0)
(0.20069 0.00769622 0)
(0.200871 0.00742329 0)
(0.200969 0.00713705 0)
(0.201014 0.00685389 0)
(0.201009 0.00658303 0)
(0.200985 0.00633006 0)
(0.20094 0.00609475 0)
(0.2009 0.00587631 0)
(0.200851 0.00567123 0)
(0.200817 0.00547844 0)
(0.200773 0.00529533 0)
(0.200743 0.00512232 0)
(0.200701 0.00495767 0)
(0.200673 0.00480249 0)
(0.200631 0.00465502 0)
(0.200604 0.00451653 0)
(0.200561 0.00438498 0)
(0.200538 0.0042618 0)
(0.200496 0.00414469 0)
(0.200476 0.00403534 0)
(0.200436 0.00393121 0)
(0.20042 0.00383423 0)
(0.20038 0.00374159 0)
(0.200368 0.00365553 0)
(0.200328 0.00357295 0)
(0.200319 0.0034964 0)
(0.20028 0.00342248 0)
(0.200274 0.00335415 0)
(0.200233 0.00328766 0)
(0.20023 0.00322642 0)
(0.200187 0.00316629 0)
(0.200186 0.00311116 0)
(0.200141 0.00305648 0)
(0.200141 0.00300664 0)
(0.200093 0.00295664 0)
(0.200095 0.00291139 0)
(0.200042 0.00286539 0)
(0.200045 0.00282413 0)
(0.199986 0.00278156 0)
(0.19999 0.00274378 0)
(0.199926 0.00270412 0)
(0.19993 0.00266939 0)
(0.199858 0.00263221 0)
(0.199862 0.00260013 0)
(0.199783 0.00256506 0)
(0.199787 0.00253531 0)
(0.199699 0.00250201 0)
(0.199703 0.00247432 0)
(0.199605 0.0024425 0)
(0.199608 0.00241661 0)
(0.199499 0.00238604 0)
(0.199502 0.00236175 0)
(0.199381 0.00233219 0)
(0.199384 0.00230935 0)
(0.19925 0.00228061 0)
(0.199252 0.00225907 0)
(0.199105 0.00223099 0)
(0.199106 0.00221063 0)
(0.198944 0.00218308 0)
(0.198944 0.00216378 0)
(0.198767 0.00213664 0)
(0.198766 0.00211833 0)
(0.198573 0.00209148 0)
(0.198571 0.00207408 0)
(0.198361 0.00204747 0)
(0.198359 0.00203091 0)
(0.19813 0.00200445 0)
(0.198127 0.0019887 0)
(0.197879 0.00196234 0)
(0.197877 0.00194736 0)
(0.197609 0.00192109 0)
(0.197606 0.00190685 0)
(0.197318 0.00188066 0)
(0.197316 0.00186717 0)
(0.197006 0.0018411 0)
(0.197004 0.00182836 0)
(0.196672 0.00180248 0)
(0.196671 0.00179055 0)
(0.196316 0.00176499 0)
(0.196316 0.00175396 0)
(0.195938 0.00172892 0)
(0.195938 0.00171891 0)
(0.195537 0.00169466 0)
(0.195538 0.00168592 0)
(0.195112 0.00166283 0)
(0.195114 0.00165572 0)
(0.194664 0.00163435 0)
(0.194666 0.0016294 0)
(0.194192 0.00161047 0)
(0.194194 0.00160826 0)
(0.193696 0.00159201 0)
(0.198276 0.00595657 0)
(0.198375 0.0064322 0)
(0.198534 0.00687227 0)
(0.198749 0.00725218 0)
(0.199024 0.0075482 0)
(0.199333 0.0077407 0)
(0.19966 0.00782264 0)
(0.199966 0.00779917 0)
(0.200237 0.00768818 0)
(0.200445 0.00751175 0)
(0.200598 0.00729381 0)
(0.200687 0.00705326 0)
(0.200736 0.00680606 0)
(0.200743 0.00656153 0)
(0.200736 0.00632686 0)
(0.200707 0.00610362 0)
(0.200682 0.00589329 0)
(0.200647 0.00569363 0)
(0.200623 0.00550473 0)
(0.200591 0.00532416 0)
(0.200571 0.00515285 0)
(0.200539 0.0049889 0)
(0.20052 0.0048339 0)
(0.200488 0.00468594 0)
(0.200469 0.00454677 0)
(0.200437 0.00441414 0)
(0.200421 0.0042899 0)
(0.200389 0.00417148 0)
(0.200376 0.00406092 0)
(0.200346 0.00395536 0)
(0.200336 0.00385711 0)
(0.200307 0.00376303 0)
(0.2003 0.00367572 0)
(0.200272 0.00359175 0)
(0.200269 0.00351406 0)
(0.200242 0.0034389 0)
(0.200242 0.0033696 0)
(0.200215 0.00330206 0)
(0.200217 0.00324004 0)
(0.20019 0.00317907 0)
(0.200196 0.00312336 0)
(0.200168 0.00306806 0)
(0.200176 0.00301781 0)
(0.200148 0.00296739 0)
(0.200158 0.00292191 0)
(0.200128 0.00287569 0)
(0.200141 0.00283436 0)
(0.200109 0.00279175 0)
(0.200124 0.00275405 0)
(0.20009 0.00271455 0)
(0.200107 0.00268001 0)
(0.200071 0.00264319 0)
(0.20009 0.00261142 0)
(0.20005 0.00257688 0)
(0.200071 0.00254756 0)
(0.200028 0.00251497 0)
(0.200051 0.00248779 0)
(0.200004 0.00245689 0)
(0.200028 0.00243159 0)
(0.199977 0.00240212 0)
(0.200003 0.00237849 0)
(0.199947 0.00235024 0)
(0.199974 0.00232812 0)
(0.199914 0.00230088 0)
(0.199942 0.0022801 0)
(0.199876 0.00225375 0)
(0.199905 0.00223414 0)
(0.199833 0.00220855 0)
(0.199863 0.00219002 0)
(0.199785 0.00216505 0)
(0.199815 0.0021475 0)
(0.19973 0.00212306 0)
(0.199762 0.00210638 0)
(0.19967 0.00208241 0)
(0.199701 0.00206653 0)
(0.199602 0.00204295 0)
(0.199633 0.00202781 0)
(0.199526 0.00200459 0)
(0.199557 0.00199011 0)
(0.199441 0.00196724 0)
(0.199473 0.00195341 0)
(0.199348 0.00193087 0)
(0.199379 0.00191767 0)
(0.199245 0.0018955 0)
(0.199275 0.00188293 0)
(0.199132 0.00186121 0)
(0.19916 0.00184931 0)
(0.199007 0.00182815 0)
(0.199033 0.00181703 0)
(0.198871 0.00179662 0)
(0.198895 0.00178642 0)
(0.198723 0.00176703 0)
(0.198743 0.00175802 0)
(0.198561 0.00174001 0)
(0.198578 0.00173255 0)
(0.198386 0.00171647 0)
(0.198398 0.0017111 0)
(0.198196 0.00169755 0)
(0.198202 0.00169475 0)
(0.19799 0.0016841 0)
(0.198891 0.00584122 0)
(0.198952 0.00624967 0)
(0.199046 0.00662704 0)
(0.199172 0.00695597 0)
(0.199333 0.00722064 0)
(0.199516 0.00740632 0)
(0.199712 0.00750604 0)
(0.1999 0.00751972 0)
(0.200073 0.0074568 0)
(0.200211 0.0073309 0)
(0.200318 0.00715983 0)
(0.200385 0.00695919 0)
(0.200427 0.00674395 0)
(0.20044 0.00652369 0)
(0.200442 0.00630667 0)
(0.200429 0.0060959 0)
(0.200417 0.0058944 0)
(0.200398 0.00570122 0)
(0.200385 0.00551729 0)
(0.200366 0.00534061 0)
(0.200355 0.00517224 0)
(0.200336 0.00501042 0)
(0.200325 0.00485675 0)
(0.200306 0.00470954 0)
(0.200295 0.00457057 0)
(0.200275 0.00443787 0)
(0.200266 0.00431323 0)
(0.200246 0.00419433 0)
(0.200238 0.00408305 0)
(0.20022 0.00397679 0)
(0.200213 0.00387761 0)
(0.200196 0.0037827 0)
(0.200192 0.00369434 0)
(0.200175 0.00360949 0)
(0.200173 0.00353071 0)
(0.200157 0.00345471 0)
(0.200156 0.00338434 0)
(0.200141 0.00331606 0)
(0.200142 0.00325303 0)
(0.200127 0.00319145 0)
(0.200129 0.00313479 0)
(0.200115 0.00307902 0)
(0.200119 0.0030279 0)
(0.200104 0.00297713 0)
(0.20011 0.00293084 0)
(0.200095 0.0028844 0)
(0.200102 0.00284232 0)
(0.200087 0.00279963 0)
(0.200095 0.0027612 0)
(0.200079 0.00272176 0)
(0.200089 0.00268652 0)
(0.200072 0.00264989 0)
(0.200083 0.00261744 0)
(0.200066 0.00258322 0)
(0.200078 0.00255323 0)
(0.20006 0.0025211 0)
(0.200073 0.00249325 0)
(0.200054 0.00246295 0)
(0.200068 0.00243697 0)
(0.200048 0.00240825 0)
(0.200063 0.00238394 0)
(0.200042 0.00235656 0)
(0.200057 0.00233374 0)
(0.200035 0.00230754 0)
(0.200051 0.00228602 0)
(0.200028 0.00226087 0)
(0.200045 0.0022405 0)
(0.200019 0.00221625 0)
(0.200037 0.00219694 0)
(0.20001 0.00217347 0)
(0.200029 0.00215509 0)
(0.2 0.00213235 0)
(0.200019 0.00211479 0)
(0.199989 0.00209267 0)
(0.200008 0.0020759 0)
(0.199976 0.00205433 0)
(0.199995 0.00203826 0)
(0.199961 0.00201723 0)
(0.19998 0.00200179 0)
(0.199944 0.00198126 0)
(0.199963 0.00196646 0)
(0.199925 0.00194643 0)
(0.199943 0.00193224 0)
(0.199903 0.00191274 0)
(0.19992 0.00189919 0)
(0.199878 0.00188027 0)
(0.199895 0.00186743 0)
(0.19985 0.0018492 0)
(0.199865 0.00183717 0)
(0.199818 0.00181982 0)
(0.199832 0.00180879 0)
(0.199782 0.00179255 0)
(0.199794 0.00178283 0)
(0.199742 0.00176808 0)
(0.199751 0.00176005 0)
(0.199696 0.00174728 0)
(0.199703 0.00174149 0)
(0.199645 0.00173122 0)
(0.199649 0.00172814 0)
(0.199588 0.00172084 0)
(0.199568 0.00577552 0)
(0.199585 0.0061428 0)
(0.199613 0.00648143 0)
(0.199652 0.00677831 0)
(0.199703 0.00702123 0)
(0.199761 0.00719862 0)
(0.199825 0.00730401 0)
(0.199888 0.00733544 0)
(0.199948 0.00729821 0)
(0.199998 0.00720129 0)
(0.200039 0.00705824 0)
(0.200066 0.00688216 0)
(0.200086 0.00668679 0)
(0.200094 0.00648196 0)
(0.200099 0.00627633 0)
(0.200097 0.00607399 0)
(0.200096 0.00587859 0)
(0.200091 0.0056902 0)
(0.20009 0.00550997 0)
(0.200085 0.00533648 0)
(0.200083 0.00517058 0)
(0.200078 0.00501088 0)
(0.200077 0.00485863 0)
(0.200071 0.0047126 0)
(0.20007 0.00457425 0)
(0.200064 0.00444212 0)
(0.200062 0.00431765 0)
(0.200057 0.00419902 0)
(0.200055 0.00408766 0)
(0.20005 0.00398151 0)
(0.200049 0.00388207 0)
(0.200044 0.00378715 0)
(0.200043 0.0036984 0)
(0.200038 0.00361348 0)
(0.200039 0.00353423 0)
(0.200034 0.00345815 0)
(0.200035 0.00338728 0)
(0.20003 0.00331894 0)
(0.200031 0.00325539 0)
(0.200027 0.00319381 0)
(0.200028 0.00313663 0)
(0.200024 0.00308091 0)
(0.200026 0.00302928 0)
(0.200022 0.00297862 0)
(0.200024 0.00293182 0)
(0.20002 0.00288556 0)
(0.200023 0.00284295 0)
(0.200018 0.00280051 0)
(0.200022 0.00276154 0)
(0.200017 0.00272241 0)
(0.200021 0.00268662 0)
(0.200016 0.00265035 0)
(0.20002 0.00261736 0)
(0.200015 0.00258355 0)
(0.20002 0.00255299 0)
(0.200015 0.00252134 0)
(0.200019 0.00249289 0)
(0.200014 0.00246314 0)
(0.200019 0.00243653 0)
(0.200014 0.0024084 0)
(0.200019 0.00238345 0)
(0.200013 0.00235672 0)
(0.200018 0.00233323 0)
(0.200013 0.00230775 0)
(0.200018 0.00228551 0)
(0.200012 0.00226115 0)
(0.200018 0.00224004 0)
(0.200012 0.00221662 0)
(0.200018 0.00219655 0)
(0.200011 0.00217397 0)
(0.200017 0.00215479 0)
(0.200011 0.002133 0)
(0.200017 0.00211463 0)
(0.20001 0.0020935 0)
(0.200016 0.0020759 0)
(0.200009 0.00205539 0)
(0.200015 0.00203846 0)
(0.200008 0.00201854 0)
(0.200014 0.00200225 0)
(0.200006 0.00198287 0)
(0.200012 0.00196722 0)
(0.200004 0.00194837 0)
(0.20001 0.00193334 0)
(0.200002 0.00191507 0)
(0.200007 0.0019007 0)
(0.199999 0.00188304 0)
(0.200004 0.0018694 0)
(0.199996 0.00185248 0)
(0.2 0.0018397 0)
(0.199991 0.00182368 0)
(0.199995 0.00181197 0)
(0.199986 0.0017971 0)
(0.19999 0.00178676 0)
(0.19998 0.00177343 0)
(0.199983 0.00176487 0)
(0.199973 0.00175352 0)
(0.199975 0.00174727 0)
(0.199964 0.00173843 0)
(0.199965 0.00173498 0)
(0.199954 0.00172922 0)
(0.204161 9.56508e-05 0)
(0.195609 -7.8049e-05 0)
(0.20441 9.13918e-05 0)