/*--------------------------------*- C++ -*----------------------------------*\
| =========                 |                                                 |
| \\      /  F ield         | OpenFOAM: The Open Source CFD Toolbox           |
|  \\    /   O peration     | Version:  2.3.0                                 |
|   \\  /    A nd           | Web:      www.OpenFOAM.org                      |
|    \\/     M anipulation  |                                                 |
\*---------------------------------------------------------------------------*/
FoamFile
{
    version     2.0;
    format      ascii;
    class       surfaceScalarField;
    location    "0.1";
    object      phi;
}
// * * * * * * * * * * * * * * * * * * * * * * * * * * * * * * * * * * * * * //

dimensions      [0 3 -1 0 0 0 0];

internalField   nonuniform List<scalar> 
5764
(
1.98188e-08
4.99825e-09
-2.48171e-08
1.47225e-08
5.09628e-09
1.08759e-08
3.84663e-09
8.25459e-09
2.62132e-09
6.62191e-09
1.63267e-09
5.68525e-09
9.3666e-10
5.13093e-09
5.54325e-10
4.75329e-09
3.77639e-10
4.47202e-09
2.81269e-10
4.25294e-09
2.19077e-10
4.06767e-09
1.85277e-10
3.90468e-09
1.62991e-10
3.77247e-09
1.32203e-10
3.66047e-09
1.12e-10
3.56241e-09
9.80602e-11
3.48538e-09
7.70276e-11
3.42166e-09
6.37228e-11
3.36827e-09
5.33901e-11
3.33722e-09
3.10473e-11
3.32289e-09
1.43351e-11
3.31753e-09
5.35972e-12
3.32568e-09
-8.15501e-12
3.34607e-09
-2.03872e-11
3.36473e-09
-1.86573e-11
3.37975e-09
-1.5024e-11
3.3939e-09
-1.41504e-11
3.40391e-09
-1.00097e-11
3.40984e-09
-5.9237e-12
3.41538e-09
-5.5389e-12
3.42065e-09
-5.27354e-12
3.42542e-09
-4.76592e-12
3.42958e-09
-4.1678e-12
3.43305e-09
-3.46824e-12
3.43607e-09
-3.01454e-12
3.43889e-09
-2.82285e-12
3.44121e-09
-2.32363e-12
3.44308e-09
-1.86544e-12
3.44483e-09
-1.75483e-12
3.44641e-09
-1.57746e-12
3.44771e-09
-1.30489e-12
3.44894e-09
-1.22173e-12
3.45007e-09
-1.13016e-12
3.451e-09
-9.2978e-13
3.45184e-09
-8.42432e-13
3.45267e-09
-8.31745e-13
3.45339e-09
-7.20921e-13
3.45399e-09
-5.98012e-13
3.45455e-09
-5.60096e-13
3.45508e-09
-5.30175e-13
3.45554e-09
-4.59684e-13
3.45594e-09
-4.00486e-13
3.45631e-09
-3.67538e-13
3.45664e-09
-3.36324e-13
3.45694e-09
-2.95274e-13
3.4572e-09
-2.63885e-13
3.45744e-09
-2.35396e-13
3.45765e-09
-2.12872e-13
3.45784e-09
-1.87077e-13
3.45801e-09
-1.67325e-13
3.45815e-09
-1.47909e-13
3.45828e-09
-1.31211e-13
3.4584e-09
-1.15799e-13
3.4585e-09
-1.01646e-13
3.45859e-09
-8.92207e-14
3.45867e-09
-7.76364e-14
3.45874e-09
-6.75839e-14
3.45879e-09
-5.75966e-14
3.45884e-09
-4.98212e-14
3.45889e-09
-4.08426e-14
3.45892e-09
-3.48976e-14
3.45895e-09
-2.63517e-14
3.45897e-09
-2.35014e-14
3.45898e-09
-1.33135e-14
3.459e-09
-1.55075e-14
-5.29153e-16
2.70671e-08
5.12828e-09
-2.71971e-08
2.55884e-08
6.57501e-09
2.35608e-08
5.87416e-09
2.12972e-08
4.88498e-09
1.92292e-08
3.70058e-09
1.75163e-08
2.6496e-09
1.60998e-08
1.97082e-09
1.49383e-08
1.53917e-09
1.40018e-08
1.21774e-09
1.32463e-08
9.74556e-10
1.26289e-08
8.02745e-10
1.21144e-08
6.77447e-10
1.16874e-08
5.59192e-10
1.13248e-08
4.74661e-10
1.10179e-08
4.04903e-10
1.07694e-08
3.25519e-10
1.05658e-08
2.67306e-10
1.04058e-08
2.13449e-10
1.03014e-08
1.35422e-10
1.02402e-08
7.55989e-11
1.02104e-08
3.50627e-11
1.02146e-08
-1.22594e-11
1.02412e-08
-4.70334e-11
1.0269e-08
-4.65043e-11
1.02936e-08
-3.95593e-11
1.0316e-08
-3.65966e-11
1.03321e-08
-2.61141e-11
1.0343e-08
-1.67897e-11
1.03533e-08
-1.5796e-11
1.0363e-08
-1.50357e-11
1.0372e-08
-1.37518e-11
1.03797e-08
-1.18976e-11
1.03861e-08
-9.8556e-12
1.03916e-08
-8.47914e-12
1.03965e-08
-7.7093e-12
1.04005e-08
-6.31725e-12
1.04037e-08
-5.14751e-12
1.04068e-08
-4.76365e-12
1.04094e-08
-4.23306e-12
1.04117e-08
-3.55613e-12
1.04137e-08
-3.30368e-12
1.04156e-08
-3.00999e-12
1.04172e-08
-2.51252e-12
1.04187e-08
-2.29209e-12
1.042e-08
-2.22236e-12
1.04213e-08
-1.92585e-12
1.04223e-08
-1.62317e-12
1.04232e-08
-1.51426e-12
1.04241e-08
-1.41888e-12
1.04249e-08
-1.23667e-12
1.04256e-08
-1.08518e-12
1.04262e-08
-9.93421e-13
1.04268e-08
-9.06381e-13
1.04273e-08
-7.99154e-13
1.04277e-08
-7.15713e-13
1.04281e-08
-6.3893e-13
1.04285e-08
-5.77665e-13
1.04288e-08
-5.08767e-13
1.04291e-08
-4.55905e-13
1.04294e-08
-4.03009e-13
1.04296e-08
-3.58314e-13
1.04298e-08
-3.16135e-13
1.043e-08
-2.78016e-13
1.04301e-08
-2.44026e-13
1.04303e-08
-2.12479e-13
1.04304e-08
-1.84784e-13
1.04305e-08
-1.57632e-13
1.04306e-08
-1.35732e-13
1.04306e-08
-1.1135e-13
1.04307e-08
-9.41456e-14
1.04307e-08
-7.12531e-14
1.04308e-08
-6.14448e-14
1.04308e-08
-3.48354e-14
1.04308e-08
-3.65872e-14
1.02106e-15
2.85221e-08
4.55194e-09
-2.79457e-08
2.90268e-08
6.07028e-09
2.85752e-08
6.32575e-09
2.77752e-08
5.68495e-09
2.67605e-08
4.71534e-09
2.56539e-08
3.75619e-09
2.45222e-08
3.10249e-09
2.34399e-08
2.62145e-09
2.24384e-08
2.21922e-09
2.15224e-08
1.89062e-09
2.07044e-08
1.62072e-09
1.99896e-08
1.39225e-09
1.93725e-08
1.17629e-09
1.88273e-08
1.01991e-09
1.83508e-08
8.8135e-10
1.79503e-08
7.26052e-10
1.76123e-08
6.05316e-10
1.73362e-08
4.89503e-10
1.71351e-08
3.36555e-10
1.69941e-08
2.16576e-10
1.68964e-08
1.3281e-10
1.68476e-08
3.65199e-11
1.6838e-08
-3.74237e-11
1.68427e-08
-5.12401e-11
1.68517e-08
-4.85798e-11
1.6864e-08
-4.88764e-11
1.68731e-08
-3.51947e-11
1.68791e-08
-2.27753e-11
1.68862e-08
-2.2912e-11
1.68943e-08
-2.31409e-11
1.69029e-08
-2.24017e-11
1.6911e-08
-1.99386e-11
1.69178e-08
-1.67202e-11
1.69236e-08
-1.42349e-11
1.69286e-08
-1.26644e-11
1.69324e-08
-1.01783e-11
1.69355e-08
-8.19219e-12
1.69382e-08
-7.50762e-12
1.69406e-08
-6.61313e-12
1.69426e-08
-5.5316e-12
1.69444e-08
-5.13316e-12
1.6946e-08
-4.65573e-12
1.69474e-08
-3.86586e-12
1.69486e-08
-3.52672e-12
1.69498e-08
-3.42495e-12
1.69509e-08
-2.96357e-12
1.69517e-08
-2.49351e-12
1.69525e-08
-2.3266e-12
1.69533e-08
-2.18216e-12
1.6954e-08
-1.903e-12
1.69546e-08
-1.67104e-12
1.69551e-08
-1.53111e-12
1.69556e-08
-1.39924e-12
1.6956e-08
-1.2354e-12
1.69564e-08
-1.10855e-12
1.69568e-08
-9.9056e-13
1.69571e-08
-8.9772e-13
1.69574e-08
-7.91386e-13
1.69576e-08
-7.10806e-13
1.69579e-08
-6.28744e-13
1.69581e-08
-5.6011e-13
1.69582e-08
-4.94597e-13
1.69584e-08
-4.35289e-13
1.69585e-08
-3.82287e-13
1.69587e-08
-3.32787e-13
1.69588e-08
-2.8917e-13
1.69588e-08
-2.46228e-13
1.69589e-08
-2.11269e-13
1.6959e-08
-1.72345e-13
1.6959e-08
-1.44177e-13
1.69591e-08
-1.08078e-13
1.69591e-08
-8.99095e-14
1.69591e-08
-4.71902e-14
1.69591e-08
-4.7843e-14
9.64909e-15
2.93079e-08
4.1657e-09
-2.89217e-08
2.97944e-08
5.58378e-09
3.02035e-08
5.91671e-09
3.03027e-08
5.58571e-09
3.00392e-08
4.9788e-09
2.96903e-08
4.10509e-09
2.91942e-08
3.5986e-09
2.8638e-08
3.17765e-09
2.80278e-08
2.82945e-09
2.73769e-08
2.54155e-09
2.6725e-08
2.2726e-09
2.61113e-08
2.00592e-09
2.55603e-08
1.72732e-09
2.50468e-08
1.5334e-09
2.45664e-08
1.36177e-09
2.41347e-08
1.15771e-09
2.37511e-08
9.88969e-10
2.34205e-08
8.20047e-10
2.31593e-08
5.97811e-10
2.29527e-08
4.23131e-10
2.27851e-08
3.0039e-10
2.26632e-08
1.58422e-10
2.25859e-08
3.98848e-11
2.25358e-08
-1.10329e-12
2.25052e-08
-1.79504e-11
2.24882e-08
-3.19038e-11
2.24746e-08
-2.15806e-11
2.24626e-08
-1.07627e-11
2.24554e-08
-1.57602e-11
2.24527e-08
-2.0474e-11
2.24543e-08
-2.39373e-11
2.24581e-08
-2.37775e-11
2.24628e-08
-2.13598e-11
2.24671e-08
-1.85924e-11
2.24708e-08
-1.63475e-11
2.24733e-08
-1.26377e-11
2.24748e-08
-9.76471e-12
2.24761e-08
-8.81853e-12
2.24772e-08
-7.65222e-12
2.24779e-08
-6.27052e-12
2.24786e-08
-5.85242e-12
2.24793e-08
-5.31403e-12
2.24797e-08
-4.31302e-12
2.24801e-08
-3.92251e-12
2.24806e-08
-3.87437e-12
2.2481e-08
-3.33596e-12
2.24812e-08
-2.76195e-12
2.24815e-08
-2.59047e-12
2.24818e-08
-2.4528e-12
2.2482e-08
-2.13125e-12
2.24822e-08
-1.86488e-12
2.24824e-08
-1.71622e-12
2.24825e-08
-1.57779e-12
2.24827e-08
-1.39284e-12
2.24828e-08
-1.25372e-12
2.2483e-08
-1.12217e-12
2.24831e-08
-1.02301e-12
2.24832e-08
-9.01884e-13
2.24833e-08
-8.13816e-13
2.24834e-08
-7.20597e-13
2.24835e-08
-6.43991e-13
2.24836e-08
-5.69519e-13
2.24836e-08
-5.01554e-13
2.24837e-08
-4.40797e-13
2.24837e-08
-3.83211e-13
2.24838e-08
-3.32566e-13
2.24838e-08
-2.81406e-13
2.24838e-08
-2.40249e-13
2.24839e-08
-1.9277e-13
2.24839e-08
-1.58424e-13
2.24839e-08
-1.13781e-13
2.24839e-08
-8.99427e-14
2.24839e-08
-3.69791e-14
2.24839e-08
-3.67681e-14
3.54007e-14
3.02054e-08
3.88674e-09
-2.99264e-08
3.06648e-08
5.12439e-09
3.10247e-08
5.55679e-09
3.13817e-08
5.22873e-09
3.13904e-08
4.97005e-09
3.14063e-08
4.08925e-09
3.13462e-08
3.65869e-09
3.12121e-08
3.31176e-09
3.09962e-08
3.04528e-09
3.06908e-08
2.84703e-09
3.03335e-08
2.62986e-09
2.99619e-08
2.37751e-09
2.96248e-08
2.06439e-09
2.92989e-08
1.85938e-09
2.89681e-08
1.69253e-09
2.86411e-08
1.48473e-09
2.83272e-08
1.30286e-09
2.80396e-08
1.1076e-09
2.77997e-08
8.37775e-10
2.75947e-08
6.28106e-10
2.74086e-08
4.86502e-10
2.72481e-08
3.18864e-10
2.71214e-08
1.66656e-10
2.7023e-08
9.72596e-11
2.69514e-08
5.36834e-11
2.69015e-08
1.79763e-11
2.68609e-08
1.89857e-11
2.68258e-08
2.4315e-11
2.67981e-08
1.19552e-11
2.67774e-08
2.64561e-13
2.67636e-08
-1.01551e-11
2.67569e-08
-1.70819e-11
2.67554e-08
-1.98084e-11
2.6756e-08
-1.92683e-11
2.67572e-08
-1.74665e-11
2.67574e-08
-1.28656e-11
2.67567e-08
-9.05899e-12
2.67558e-08
-7.89251e-12
2.67547e-08
-6.59755e-12
2.67535e-08
-5.08301e-12
2.67525e-08
-4.84797e-12
2.67517e-08
-4.46128e-12
2.67507e-08
-3.40644e-12
2.67499e-08
-3.08513e-12
2.67492e-08
-3.21289e-12
2.67486e-08
-2.7184e-12
2.6748e-08
-2.14184e-12
2.67475e-08
-2.05094e-12
2.6747e-08
-2.0015e-12
2.67466e-08
-1.71345e-12
2.67462e-08
-1.48099e-12
2.67459e-08
-1.38424e-12
2.67456e-08
-1.29434e-12
2.67453e-08
-1.13859e-12
2.67451e-08
-1.03284e-12
2.67449e-08
-9.28126e-13
2.67448e-08
-8.59582e-13
2.67446e-08
-7.564e-13
2.67445e-08
-6.908e-13
2.67444e-08
-6.12542e-13
2.67443e-08
-5.51718e-13
2.67442e-08
-4.8937e-13
2.67442e-08
-4.3141e-13
2.67441e-08
-3.7974e-13
2.6744e-08
-3.28783e-13
2.6744e-08
-2.84324e-13
2.67439e-08
-2.36424e-13
2.67439e-08
-1.99566e-13
2.67439e-08
-1.52286e-13
2.67438e-08
-1.20492e-13
2.67438e-08
-7.37034e-14
2.67437e-08
-5.09237e-14
2.67437e-08
7.4735e-15
2.67437e-08
5.2393e-15
8.51039e-14
3.11556e-08
3.67165e-09
-3.09405e-08
3.15859e-08
4.6941e-09
3.18975e-08
5.2452e-09
3.22348e-08
4.89148e-09
3.23539e-08
4.85085e-09
3.23018e-08
4.14138e-09
3.24484e-08
3.5121e-09
3.25295e-08
3.23064e-09
3.2522e-08
3.05277e-09
3.24287e-08
2.94033e-09
3.22894e-08
2.76917e-09
3.21164e-08
2.55049e-09
3.19682e-08
2.2126e-09
3.18275e-08
2.00011e-09
3.16727e-08
1.84736e-09
3.1495e-08
1.6624e-09
3.13028e-08
1.49509e-09
3.11109e-08
1.29949e-09
3.09445e-08
1.00416e-09
3.07945e-08
7.78114e-10
3.0645e-08
6.36004e-10
3.04983e-08
4.65556e-10
3.03659e-08
2.9901e-10
3.02521e-08
2.11053e-10
3.01626e-08
1.43225e-10
3.0096e-08
8.45604e-11
3.00406e-08
7.43778e-11
2.99917e-08
7.31914e-11
2.99497e-08
5.39696e-11
2.99137e-08
3.62545e-11
2.98847e-08
1.89142e-11
2.98657e-08
1.88019e-12
2.98545e-08
-8.57719e-12
2.98489e-08
-1.36448e-11
2.98462e-08
-1.47917e-11
2.98436e-08
-1.02549e-11
2.98402e-08
-5.71272e-12
2.98367e-08
-4.41188e-12
2.98333e-08
-3.10647e-12
2.98298e-08
-1.64171e-12
2.98268e-08
-1.8369e-12
2.98242e-08
-1.86572e-12
2.98218e-08
-9.67008e-13
2.98196e-08
-8.75132e-13
2.98177e-08
-1.32506e-12
2.9816e-08
-1.01231e-12
2.98144e-08
-5.48083e-13
2.9813e-08
-6.3415e-13
2.98117e-08
-7.61906e-13
2.98106e-08
-5.9141e-13
2.98096e-08
-4.67665e-13
2.98087e-08
-4.88278e-13
2.98079e-08
-5.07427e-13
2.98072e-08
-4.35559e-13
2.98066e-08
-4.13047e-13
2.9806e-08
-3.78873e-13
2.98055e-08
-3.81208e-13
2.98051e-08
-3.31653e-13
2.98047e-08
-3.2088e-13
2.98044e-08
-2.86272e-13
2.98041e-08
-2.66868e-13
2.98039e-08
-2.39604e-13
2.98037e-08
-2.12153e-13
2.98035e-08
-1.87771e-13
2.98033e-08
-1.59567e-13
2.98032e-08
-1.357e-13
2.9803e-08
-1.03637e-13
2.98029e-08
-8.24512e-14
2.98028e-08
-4.53455e-14
2.98027e-08
-2.4886e-14
2.98026e-08
1.62161e-14
2.98025e-08
3.1739e-14
2.98025e-08
8.67433e-14
2.98024e-08
8.36119e-14
1.60297e-13
3.21566e-08
3.48563e-09
-3.19706e-08
3.2499e-08
4.35166e-09
3.2828e-08
4.91619e-09
3.3145e-08
4.57453e-09
3.33061e-08
4.68976e-09
3.3286e-08
4.16143e-09
3.33948e-08
3.40335e-09
3.35057e-08
3.11972e-09
3.35473e-08
3.01119e-09
3.35382e-08
2.94937e-09
3.34936e-08
2.81386e-09
3.34307e-08
2.61337e-09
3.33854e-08
2.25793e-09
3.33469e-08
2.03854e-09
3.33059e-08
1.88833e-09
3.32381e-08
1.73022e-09
3.31476e-08
1.58561e-09
3.30434e-08
1.40371e-09
3.29502e-08
1.09737e-09
3.28614e-08
8.66915e-10
3.27654e-08
7.31945e-10
3.26591e-08
5.71924e-10
3.25519e-08
4.06194e-10
3.24517e-08
3.11225e-10
3.23685e-08
2.26482e-10
3.2304e-08
1.49032e-10
3.22489e-08
1.29496e-10
3.21995e-08
1.22578e-10
3.21554e-08
9.80489e-11
3.21144e-08
7.72305e-11
3.2078e-08
5.52994e-11
3.20504e-08
2.9523e-11
3.20311e-08
1.07701e-11
3.20189e-08
-1.50164e-12
3.20117e-08
-7.63344e-12
3.2006e-08
-4.48538e-12
3.20001e-08
1.95475e-13
3.19943e-08
1.40953e-12
3.19885e-08
2.63017e-12
3.1983e-08
3.91449e-12
3.1978e-08
3.07347e-12
3.19738e-08
2.38294e-12
3.19699e-08
2.90983e-12
3.19665e-08
2.59547e-12
3.19635e-08
1.67343e-12
3.19608e-08
1.6766e-12
3.19583e-08
1.91967e-12
3.19561e-08
1.56498e-12
3.19542e-08
1.17927e-12
3.19524e-08
1.15811e-12
3.19508e-08
1.10579e-12
3.19494e-08
9.08385e-13
3.19482e-08
7.264e-13
3.19471e-08
6.65945e-13
3.19461e-08
5.60939e-13
3.19453e-08
4.85537e-13
3.19445e-08
3.76586e-13
3.19438e-08
3.40873e-13
3.19432e-08
2.68169e-13
3.19427e-08
2.33659e-13
3.19423e-08
1.88881e-13
3.19419e-08
1.60668e-13
3.19415e-08
1.39464e-13
3.19412e-08
1.20471e-13
3.19409e-08
1.11584e-13
3.19407e-08
1.0216e-13
3.19405e-08
1.07113e-13
3.19403e-08
1.02642e-13
3.19401e-08
1.20561e-13
3.194e-08
1.22265e-13
3.19399e-08
1.50131e-13
3.19397e-08
1.53583e-13
3.19396e-08
1.98048e-13
3.19395e-08
1.93273e-13
2.58212e-13
3.31858e-08
3.31901e-09
-3.30192e-08
3.34382e-08
4.09933e-09
3.37926e-08
4.56172e-09
3.40518e-08
4.31537e-09
3.42715e-08
4.47008e-09
3.42627e-08
4.17024e-09
3.43415e-08
3.32455e-09
3.44525e-08
3.00865e-09
3.44941e-08
2.96966e-09
3.45187e-08
2.92473e-09
3.44947e-08
2.83786e-09
3.44746e-08
2.63348e-09
3.44648e-08
2.26767e-09
3.44688e-08
2.03457e-09
3.44731e-08
1.88401e-09
3.44559e-08
1.74749e-09
3.44182e-08
1.62324e-09
3.43665e-08
1.45543e-09
3.43204e-08
1.14345e-09
3.42712e-08
9.16176e-10
3.4215e-08
7.88084e-10
3.41451e-08
6.41886e-10
3.4068e-08
4.8328e-10
3.39909e-08
3.88301e-10
3.39243e-08
2.93121e-10
3.38705e-08
2.02778e-10
3.38226e-08
1.77475e-10
3.37793e-08
1.65849e-10
3.37406e-08
1.36774e-10
3.37029e-08
1.14845e-10
3.36673e-08
9.09555e-11
3.36375e-08
5.93262e-11
3.36141e-08
3.41765e-11
3.35974e-08
1.51974e-11
3.35864e-08
3.32534e-12
3.35778e-08
4.12849e-12
3.35697e-08
8.27436e-12
3.35621e-08
9.04737e-12
3.35546e-08
1.00732e-11
3.35475e-08
1.11019e-11
3.35411e-08
9.47277e-12
3.35355e-08
7.94757e-12
3.35305e-08
7.93575e-12
3.3526e-08
7.05774e-12
3.35222e-08
5.53038e-12
3.35187e-08
5.12132e-12
3.35156e-08
5.05557e-12
3.35128e-08
4.35636e-12
3.35103e-08
3.64988e-12
3.35081e-08
3.38199e-12
3.35061e-08
3.10218e-12
3.35043e-08
2.68187e-12
3.35027e-08
2.29628e-12
3.35013e-08
2.06725e-12
3.35001e-08
1.80127e-12
3.3499e-08
1.5867e-12
3.3498e-08
1.3442e-12
3.34972e-08
1.19948e-12
3.34964e-08
1.02172e-12
3.34958e-08
8.98951e-13
3.34952e-08
7.72848e-13
3.34947e-08
6.73883e-13
3.34942e-08
5.9038e-13
3.34938e-08
5.15971e-13
3.34935e-08
4.5922e-13
3.34932e-08
4.06999e-13
3.34929e-08
3.7637e-13
3.34927e-08
3.38846e-13
3.34924e-08
3.30814e-13
3.34923e-08
3.08302e-13
3.34921e-08
3.17253e-13
3.34919e-08
3.0514e-13
3.34918e-08
3.3391e-13
3.34917e-08
3.26067e-13
3.74026e-13
3.42401e-08
3.16604e-09
-3.40872e-08
3.44351e-08
3.90431e-09
3.47718e-08
4.22509e-09
3.50094e-08
4.07773e-09
3.52583e-08
4.2212e-09
3.52636e-08
4.16492e-09
3.53303e-08
3.25785e-09
3.5421e-08
2.91797e-09
3.54598e-08
2.93085e-09
3.54894e-08
2.8951e-09
3.54798e-08
2.84745e-09
3.54741e-08
2.63923e-09
3.54867e-08
2.25504e-09
3.55006e-08
2.02068e-09
3.55075e-08
1.87711e-09
3.55042e-08
1.75079e-09
3.54816e-08
1.64586e-09
3.54568e-08
1.48027e-09
3.54342e-08
1.16602e-09
3.54025e-08
9.47864e-10
3.53659e-08
8.24686e-10
3.53169e-08
6.90923e-10
3.52608e-08
5.39374e-10
3.52021e-08
4.46934e-10
3.51502e-08
3.45031e-10
3.51061e-08
2.46877e-10
3.50644e-08
2.19217e-10
3.50269e-08
2.03321e-10
3.49944e-08
1.69305e-10
3.49624e-08
1.46808e-10
3.49311e-08
1.22248e-10
3.49033e-08
8.71293e-11
3.48794e-08
5.81593e-11
3.48605e-08
3.40933e-11
3.4847e-08
1.68045e-11
3.48362e-08
1.49306e-11
3.48264e-08
1.802e-11
3.48175e-08
1.79385e-11
3.4809e-08
1.86267e-11
3.48007e-08
1.93476e-11
3.47934e-08
1.68478e-11
3.47869e-08
1.44049e-11
3.47811e-08
1.37638e-11
3.47759e-08
1.22061e-11
3.47715e-08
9.97129e-12
3.47675e-08
9.08081e-12
3.47639e-08
8.64332e-12
3.47608e-08
7.54143e-12
3.47579e-08
6.47118e-12
3.47554e-08
5.92178e-12
3.47531e-08
5.37948e-12
3.47511e-08
4.70419e-12
3.47493e-08
4.0879e-12
3.47477e-08
3.66672e-12
3.47463e-08
3.21744e-12
3.4745e-08
2.84389e-12
3.47439e-08
2.44996e-12
3.47429e-08
2.18066e-12
3.47421e-08
1.88354e-12
3.47413e-08
1.65991e-12
3.47407e-08
1.44112e-12
3.47401e-08
1.2614e-12
3.47396e-08
1.10658e-12
3.47391e-08
9.68878e-13
3.47387e-08
8.57154e-13
3.47384e-08
7.55935e-13
3.4738e-08
6.84145e-13
3.47378e-08
6.08773e-13
3.47375e-08
5.70344e-13
3.47373e-08
5.20075e-13
3.47371e-08
5.06468e-13
3.4737e-08
4.76378e-13
3.47368e-08
4.86586e-13
3.47367e-08
4.73898e-13
5.02583e-13
3.53154e-08
3.03444e-09
-3.51838e-08
3.55045e-08
3.71524e-09
3.57698e-08
3.95984e-09
3.6034e-08
3.81349e-09
3.62087e-08
4.04652e-09
3.62666e-08
4.10695e-09
3.635e-08
3.17445e-09
3.64188e-08
2.84921e-09
3.64589e-08
2.89076e-09
3.64835e-08
2.87051e-09
3.64831e-08
2.84786e-09
3.6489e-08
2.63325e-09
3.65309e-08
2.21322e-09
3.65353e-08
2.01625e-09
3.65358e-08
1.87655e-09
3.65306e-08
1.75599e-09
3.65056e-08
1.67088e-09
3.65037e-08
1.48217e-09
3.64844e-08
1.18533e-09
3.64596e-08
9.72701e-10
3.64275e-08
8.56765e-10
3.63876e-08
7.30811e-10
3.6343e-08
5.84018e-10
3.62949e-08
4.95039e-10
3.62517e-08
3.88199e-10
3.62127e-08
2.8588e-10
3.61738e-08
2.58124e-10
3.61395e-08
2.3759e-10
3.61111e-08
1.97732e-10
3.60834e-08
1.74535e-10
3.60563e-08
1.49342e-10
3.60314e-08
1.11947e-10
3.60084e-08
8.12355e-11
3.59888e-08
5.37058e-11
3.59738e-08
3.17373e-11
3.59614e-08
2.73033e-11
3.59505e-08
2.90039e-11
3.59407e-08
2.76574e-11
3.59315e-08
2.78425e-11
3.59227e-08
2.81972e-11
3.59148e-08
2.47696e-11
3.59078e-08
2.1394e-11
3.59014e-08
2.01026e-11
3.58958e-08
1.77928e-11
3.5891e-08
1.47817e-11
3.58867e-08
1.33712e-11
3.58829e-08
1.25196e-11
3.58794e-08
1.09712e-11
3.58764e-08
9.50981e-12
3.58737e-08
8.65946e-12
3.58712e-08
7.83198e-12
3.5869e-08
6.88012e-12
3.58671e-08
6.01636e-12
3.58654e-08
5.38893e-12
3.58639e-08
4.74225e-12
3.58625e-08
4.19724e-12
3.58613e-08
3.64071e-12
3.58603e-08
3.23733e-12
3.58593e-08
2.81189e-12
3.58585e-08
2.47965e-12
3.58578e-08
2.16112e-12
3.58572e-08
1.89454e-12
3.58566e-08
1.66283e-12
3.58561e-08
1.45702e-12
3.58557e-08
1.28594e-12
3.58553e-08
1.13195e-12
3.5855e-08
1.01559e-12
3.58547e-08
8.99458e-13
3.58544e-08
8.27958e-13
3.58542e-08
7.47745e-13
3.5854e-08
7.09544e-13
3.58538e-08
6.59748e-13
3.58536e-08
6.50284e-13
3.58535e-08
6.30828e-13
6.39883e-13
3.64159e-08
2.90823e-09
-3.62897e-08
3.66041e-08
3.52699e-09
3.68093e-08
3.75468e-09
3.70691e-08
3.55372e-09
3.71901e-08
3.92546e-09
3.7312e-08
3.98505e-09
3.73581e-08
3.12844e-09
3.74546e-08
2.75269e-09
3.74892e-08
2.85612e-09
3.75107e-08
2.84901e-09
3.75198e-08
2.83878e-09
3.75405e-08
2.61255e-09
3.75927e-08
2.161e-09
3.75851e-08
2.0239e-09
3.75835e-08
1.87817e-09
3.75745e-08
1.76489e-09
3.75541e-08
1.6913e-09
3.75524e-08
1.48394e-09
3.75426e-08
1.19513e-09
3.7519e-08
9.96237e-10
3.74861e-08
8.89668e-10
3.74506e-08
7.66368e-10
3.74113e-08
6.23268e-10
3.73679e-08
5.3842e-10
3.73287e-08
4.27408e-10
3.72912e-08
3.23419e-10
3.72527e-08
2.96643e-10
3.72198e-08
2.70495e-10
3.71935e-08
2.23936e-10
3.71681e-08
1.99999e-10
3.71438e-08
1.73667e-10
3.71213e-08
1.3439e-10
3.70992e-08
1.03321e-10
3.70795e-08
7.34764e-11
3.70637e-08
4.75142e-11
3.70501e-08
4.08397e-11
3.70382e-08
4.09524e-11
3.70279e-08
3.79601e-11
3.70183e-08
3.74729e-11
3.70091e-08
3.7382e-11
3.70009e-08
3.29651e-11
3.69936e-08
2.86785e-11
3.69869e-08
2.67615e-11
3.69811e-08
2.36588e-11
3.6976e-08
1.98293e-11
3.69715e-08
1.78832e-11
3.69674e-08
1.65881e-11
3.69639e-08
1.45578e-11
3.69607e-08
1.26881e-11
3.69578e-08
1.15266e-11
3.69552e-08
1.03981e-11
3.6953e-08
9.15412e-12
3.6951e-08
8.03231e-12
3.69492e-08
7.19008e-12
3.69476e-08
6.33667e-12
3.69461e-08
5.61192e-12
3.69449e-08
4.88554e-12
3.69438e-08
4.34211e-12
3.69428e-08
3.78254e-12
3.6942e-08
3.33676e-12
3.69412e-08
2.9139e-12
3.69406e-08
2.55664e-12
3.694e-08
2.24444e-12
3.69395e-08
1.9675e-12
3.6939e-08
1.73428e-12
3.69386e-08
1.52514e-12
3.69383e-08
1.36207e-12
3.6938e-08
1.20332e-12
3.69377e-08
1.09716e-12
3.69375e-08
9.8553e-13
3.69373e-08
9.21712e-13
3.69371e-08
8.508e-13
3.69369e-08
8.21587e-13
3.69367e-08
7.93486e-13
7.83433e-13
3.75612e-08
2.76463e-09
-3.74176e-08
3.7708e-08
3.38016e-09
3.78989e-08
3.56376e-09
3.81155e-08
3.33717e-09
3.82469e-08
3.79401e-09
3.838e-08
3.85192e-09
3.84695e-08
3.03894e-09
3.85233e-08
2.69893e-09
3.85576e-08
2.82186e-09
3.85723e-08
2.83422e-09
3.85875e-08
2.82358e-09
3.8626e-08
2.57409e-09
3.86719e-08
2.11507e-09
3.86628e-08
2.03302e-09
3.8659e-08
1.88196e-09
3.86463e-08
1.77759e-09
3.86422e-08
1.69548e-09
3.86331e-08
1.49298e-09
3.86232e-08
1.20501e-09
3.85993e-08
1.0202e-09
3.85666e-08
9.22332e-10
3.85352e-08
7.97734e-10
3.8499e-08
6.59507e-10
3.84578e-08
5.79642e-10
3.84203e-08
4.64917e-10
3.83823e-08
3.61353e-10
3.83431e-08
3.35839e-10
3.83109e-08
3.02725e-10
3.8286e-08
2.48801e-10
3.82617e-08
2.24377e-10
3.8239e-08
1.96319e-10
3.82181e-08
1.55283e-10
3.81966e-08
1.24832e-10
3.81767e-08
9.33504e-11
3.81604e-08
6.38678e-11
3.81459e-08
5.53192e-11
3.81332e-08
5.37058e-11
3.81224e-08
4.87191e-11
3.81125e-08
4.74087e-11
3.81031e-08
4.67762e-11
3.80947e-08
4.12917e-11
3.80873e-08
3.61324e-11
3.80804e-08
3.36373e-11
3.80743e-08
2.97171e-11
3.80691e-08
2.50453e-11
3.80645e-08
2.25634e-11
3.80602e-08
2.08016e-11
3.80565e-08
1.8258e-11
3.80533e-08
1.59691e-11
3.80503e-08
1.44912e-11
3.80476e-08
1.30484e-11
3.80453e-08
1.14995e-11
3.80432e-08
1.01122e-11
3.80414e-08
9.04934e-12
3.80397e-08
7.98206e-12
3.80383e-08
7.07125e-12
3.8037e-08
6.16967e-12
3.80358e-08
5.48192e-12
3.80348e-08
4.78388e-12
3.80339e-08
4.22096e-12
3.80332e-08
3.69042e-12
3.80325e-08
3.23969e-12
3.80319e-08
2.84439e-12
3.80314e-08
2.49413e-12
3.80309e-08
2.19674e-12
3.80305e-08
1.93074e-12
3.80301e-08
1.71946e-12
3.80298e-08
1.51671e-12
3.80295e-08
1.37486e-12
3.80293e-08
1.23061e-12
3.80291e-08
1.14071e-12
3.80289e-08
1.04737e-12
3.80287e-08
9.98799e-13
3.80285e-08
9.60347e-13
9.31886e-13
3.87272e-08
2.62507e-09
-3.85876e-08
3.88492e-08
3.25816e-09
3.90038e-08
3.40918e-09
3.92201e-08
3.1209e-09
3.9315e-08
3.69906e-09
3.94992e-08
3.66768e-09
3.95891e-08
2.94912e-09
3.96274e-08
2.66055e-09
3.96574e-08
2.79187e-09
3.96628e-08
2.82883e-09
3.96851e-08
2.80131e-09
3.97474e-08
2.5118e-09
3.97836e-08
2.07888e-09
3.97723e-08
2.04432e-09
3.97609e-08
1.89335e-09
3.97524e-08
1.78611e-09
3.97503e-08
1.69752e-09
3.97495e-08
1.49385e-09
3.97315e-08
1.22294e-09
3.971e-08
1.04176e-09
3.96788e-08
9.53529e-10
3.96505e-08
8.2602e-10
3.96151e-08
6.94871e-10
3.95751e-08
6.19622e-10
3.95386e-08
5.01457e-10
3.94997e-08
4.00292e-10
3.94597e-08
3.75827e-10
3.94282e-08
3.34186e-10
3.94046e-08
2.72443e-10
3.93809e-08
2.48044e-10
3.93595e-08
2.17743e-10
3.93396e-08
1.75208e-10
3.93181e-08
1.46271e-10
3.9298e-08
1.13499e-10
3.92811e-08
8.07206e-11
3.92658e-08
7.06147e-11
3.92524e-08
6.71342e-11
3.92413e-08
5.98323e-11
3.92311e-08
5.75924e-11
3.92215e-08
5.63248e-11
3.92132e-08
4.96831e-11
3.92056e-08
4.36999e-11
3.91985e-08
4.06825e-11
3.91923e-08
3.59236e-11
3.9187e-08
3.03981e-11
3.91822e-08
2.73896e-11
3.91778e-08
2.5139e-11
3.9174e-08
2.20523e-11
3.91707e-08
1.93378e-11
3.91676e-08
1.75404e-11
3.91649e-08
1.57705e-11
3.91625e-08
1.39048e-11
3.91603e-08
1.22462e-11
3.91584e-08
1.09581e-11
3.91567e-08
9.67057e-12
3.91552e-08
8.56817e-12
3.91539e-08
7.48685e-12
3.91528e-08
6.65123e-12
3.91517e-08
5.81101e-12
3.91508e-08
5.12791e-12
3.915e-08
4.48681e-12
3.91493e-08
3.94031e-12
3.91487e-08
3.45969e-12
3.91482e-08
3.03427e-12
3.91477e-08
2.67106e-12
3.91473e-08
2.34671e-12
3.91469e-08
2.08602e-12
3.91466e-08
1.83803e-12
3.91463e-08
1.65977e-12
3.91461e-08
1.48176e-12
3.91458e-08
1.36558e-12
3.91456e-08
1.24853e-12
3.91455e-08
1.18112e-12
3.91453e-08
1.13085e-12
1.08453e-12
3.99073e-08
2.50698e-09
-3.97892e-08
4.00286e-08
3.13682e-09
4.01427e-08
3.29508e-09
4.03578e-08
2.90583e-09
4.04545e-08
3.60235e-09
4.06075e-08
3.51465e-09
4.06887e-08
2.86794e-09
4.07629e-08
2.58638e-09
4.0781e-08
2.77373e-09
4.07864e-08
2.82345e-09
4.08254e-08
2.7623e-09
4.09043e-08
2.43285e-09
4.09226e-08
2.06066e-09
4.09093e-08
2.05757e-09
4.08914e-08
1.91129e-09
4.0893e-08
1.78445e-09
4.08903e-08
1.70021e-09
4.08988e-08
1.48536e-09
4.0874e-08
1.24772e-09
4.08537e-08
1.06211e-09
4.08232e-08
9.84016e-10
4.07974e-08
8.51795e-10
4.0763e-08
7.29294e-10
4.07245e-08
6.58088e-10
4.06883e-08
5.3772e-10
4.06478e-08
4.40786e-10
4.06068e-08
4.16768e-10
4.05763e-08
3.64672e-10
4.05541e-08
2.94741e-10
4.05312e-08
2.70862e-10
4.05112e-08
2.378e-10
4.04919e-08
1.9447e-10
4.04701e-08
1.68116e-10
4.04494e-08
1.34187e-10
4.0432e-08
9.80944e-11
4.0416e-08
8.66335e-11
4.0402e-08
8.10776e-11
4.03907e-08
7.11602e-11
4.03804e-08
6.79594e-11
4.03707e-08
6.59906e-11
4.03623e-08
5.81096e-11
4.03546e-08
5.13652e-11
4.03474e-08
4.78803e-11
4.03411e-08
4.22572e-11
4.03356e-08
3.58739e-11
4.03306e-08
3.23532e-11
4.03262e-08
2.95893e-11
4.03223e-08
2.59305e-11
4.03188e-08
2.27883e-11
4.03157e-08
2.06694e-11
4.03129e-08
1.85589e-11
4.03105e-08
1.63647e-11
4.03083e-08
1.443e-11
4.03063e-08
1.29125e-11
4.03046e-08
1.13987e-11
4.03031e-08
1.00995e-11
4.03017e-08
8.83431e-12
4.03005e-08
7.84754e-12
4.02995e-08
6.86171e-12
4.02985e-08
6.05561e-12
4.02977e-08
5.30135e-12
4.0297e-08
4.65696e-12
4.02964e-08
4.08902e-12
4.02958e-08
3.58673e-12
4.02953e-08
3.15618e-12
4.02949e-08
2.77211e-12
4.02945e-08
2.46098e-12
4.02942e-08
2.16657e-12
4.02939e-08
1.95131e-12
4.02937e-08
1.73841e-12
4.02934e-08
1.59586e-12
4.02932e-08
1.45389e-12
4.0293e-08
1.3681e-12
4.02929e-08
1.30482e-12
1.24093e-12
4.11186e-08
2.39581e-09
-4.10074e-08
4.1223e-08
3.03244e-09
4.13488e-08
3.16926e-09
4.15073e-08
2.74738e-09
4.16427e-08
3.46692e-09
4.17534e-08
3.40394e-09
4.18592e-08
2.76211e-09
4.18738e-08
2.57183e-09
4.19235e-08
2.72402e-09
4.19532e-08
2.79378e-09
4.20109e-08
2.7046e-09
4.20874e-08
2.35631e-09
4.20873e-08
2.06081e-09
4.20791e-08
2.06572e-09
4.20512e-08
1.93921e-09
4.20653e-08
1.7703e-09
4.20701e-08
1.69547e-09
4.20779e-08
1.47754e-09
4.20531e-08
1.27251e-09
4.20295e-08
1.08575e-09
4.19977e-08
1.0158e-09
4.19757e-08
8.73815e-10
4.19444e-08
7.60548e-10
4.19082e-08
6.94343e-10
4.18713e-08
5.74578e-10
4.18287e-08
4.83352e-10
4.17868e-08
4.58715e-10
4.17576e-08
3.93909e-10
4.17364e-08
3.15912e-10
4.17145e-08
2.92775e-10
4.1696e-08
2.56229e-10
4.16773e-08
2.13194e-10
4.16548e-08
1.90659e-10
4.16334e-08
1.55576e-10
4.16155e-08
1.15998e-10
4.15988e-08
1.03295e-10
4.15845e-08
9.53692e-11
4.15731e-08
8.25475e-11
4.15627e-08
7.84346e-11
4.15529e-08
7.5731e-11
4.15445e-08
6.65504e-11
4.15367e-08
5.91308e-11
4.15294e-08
5.52292e-11
4.15229e-08
4.87075e-11
4.15173e-08
4.14688e-11
4.15122e-08
3.74505e-11
4.15077e-08
3.41435e-11
4.15037e-08
2.98845e-11
4.15002e-08
2.63175e-11
4.1497e-08
2.38757e-11
4.14941e-08
2.14101e-11
4.14916e-08
1.88759e-11
4.14894e-08
1.66612e-11
4.14874e-08
1.49105e-11
4.14856e-08
1.31644e-11
4.14841e-08
1.16631e-11
4.14827e-08
1.02103e-11
4.14815e-08
9.06928e-12
4.14804e-08
7.93459e-12
4.14794e-08
7.0028e-12
4.14786e-08
6.13291e-12
4.14779e-08
5.38864e-12
4.14772e-08
4.73149e-12
4.14767e-08
4.15073e-12
4.14762e-08
3.65145e-12
4.14757e-08
3.20635e-12
4.14754e-08
2.84382e-12
4.1475e-08
2.50184e-12
4.14747e-08
2.24907e-12
4.14745e-08
2.00019e-12
4.14742e-08
1.83122e-12
4.1474e-08
1.66321e-12
4.14738e-08
1.55938e-12
4.14737e-08
1.48213e-12
1.40076e-12
4.2358e-08
2.28674e-09
-4.22489e-08
4.2452e-08
2.93841e-09
4.25943e-08
3.02691e-09
4.27134e-08
2.62832e-09
4.2874e-08
3.30635e-09
4.29559e-08
3.32206e-09
4.30732e-08
2.64477e-09
4.31231e-08
2.52197e-09
4.31067e-08
2.74043e-09
4.3137e-08
2.76345e-09
4.32293e-08
2.61233e-09
4.32927e-08
2.29289e-09
4.32818e-08
2.07167e-09
4.32805e-08
2.06705e-09
4.32466e-08
1.97307e-09
4.32746e-08
1.74228e-09
4.32887e-08
1.68139e-09
4.32855e-08
1.48075e-09
4.32632e-08
1.29485e-09
4.32414e-08
1.10747e-09
4.32064e-08
1.05089e-09
4.31866e-08
8.93593e-10
4.31588e-08
7.88328e-10
4.31249e-08
7.28249e-10
4.30879e-08
6.11594e-10
4.30443e-08
5.26974e-10
4.30021e-08
5.00881e-10
4.29743e-08
4.2172e-10
4.2953e-08
3.37192e-10
4.29314e-08
3.14361e-10
4.29147e-08
2.72952e-10
4.28965e-08
2.31393e-10
4.28732e-08
2.13898e-10
4.28513e-08
1.77565e-10
4.2833e-08
1.34294e-10
4.28158e-08
1.2048e-10
4.28013e-08
1.09858e-10
4.279e-08
9.38787e-11
4.27794e-08
8.89816e-11
4.27696e-08
8.55244e-11
4.27612e-08
7.49962e-11
4.27533e-08
6.70109e-11
4.27458e-08
6.27323e-11
4.27392e-08
5.52673e-11
4.27335e-08
4.71833e-11
4.27283e-08
4.26793e-11
4.27236e-08
3.87911e-11
4.27196e-08
3.39056e-11
4.2716e-08
2.9923e-11
4.27127e-08
2.7157e-11
4.27098e-08
2.43201e-11
4.27073e-08
2.1435e-11
4.2705e-08
1.89374e-11
4.27029e-08
1.695e-11
4.27011e-08
1.49653e-11
4.26995e-08
1.3257e-11
4.26981e-08
1.1613e-11
4.26969e-08
1.03149e-11
4.26958e-08
9.02824e-12
4.26948e-08
7.96822e-12
4.2694e-08
6.9804e-12
4.26932e-08
6.13437e-12
4.26926e-08
5.38626e-12
4.2692e-08
4.7255e-12
4.26915e-08
4.1562e-12
4.26911e-08
3.64883e-12
4.26907e-08
3.23405e-12
4.26903e-08
2.84339e-12
4.269e-08
2.55266e-12
4.26898e-08
2.26676e-12
4.26895e-08
2.07131e-12
4.26893e-08
1.87628e-12
4.26891e-08
1.7546e-12
4.26889e-08
1.66265e-12
1.56372e-12
4.36245e-08
2.19201e-09
-4.35298e-08
4.3725e-08
2.83795e-09
4.386e-08
2.8919e-09
4.39717e-08
2.51666e-09
4.4119e-08
3.15901e-09
4.42048e-08
3.23624e-09
4.42844e-08
2.5652e-09
4.4357e-08
2.44937e-09
4.43329e-08
2.76452e-09
4.43877e-08
2.70869e-09
4.44809e-08
2.51912e-09
4.45273e-08