/*--------------------------------*- C++ -*----------------------------------*\
| =========                 |                                                 |
| \\      /  F ield         | OpenFOAM: The Open Source CFD Toolbox           |
|  \\    /   O peration     | Version:  2.3.0                                 |
|   \\  /    A nd           | Web:      www.OpenFOAM.org                      |
|    \\/     M anipulation  |                                                 |
\*---------------------------------------------------------------------------*/
FoamFile
{
    version     2.0;
    format      ascii;
    class       volScalarField;
    location    "0.85";
    object      p;
}
// * * * * * * * * * * * * * * * * * * * * * * * * * * * * * * * * * * * * * //

dimensions      [0 2 -2 0 0 0 0];

internalField   nonuniform List<scalar> 
8750
(
0.00329056
0.00269758
0.00221334
0.00186396
0.00157494
0.00131486
0.0010836
0.000885742
0.000722782
0.000593703
0.000495934
0.000425682
0.000378299
0.000348827
0.000332539
0.000325322
0.000323862
0.000325676
0.000329028
0.000332789
0.000336291
0.000339186
0.000341334
0.000342723
0.000343403
0.000343455
0.000342967
0.000342019
0.000340682
0.000339013
0.000337059
0.000334855
0.000332432
0.000329809
0.000327006
0.000324036
0.000320911
0.000317641
0.000314235
0.000310701
0.000307044
0.000303271
0.000299388
0.000295399
0.00029131
0.000287125
0.000282848
0.000278483
0.000274033
0.000269501
0.000264891
0.000260206
0.000255448
0.00025062
0.000245724
0.000240763
0.000235739
0.000230655
0.000225512
0.000220312
0.000215058
0.000209752
0.000204395
0.00019899
0.000193539
0.000188042
0.000182504
0.000176925
0.000171308
0.000165654
0.000159966
0.000154247
0.000148498
0.000142722
0.000136921
0.000131098
0.000125255
0.000119397
0.000113525
0.000107642
0.000101753
9.58611e-05
8.99697e-05
8.40831e-05
7.82059e-05
7.23427e-05
6.64988e-05
6.06795e-05
5.4891e-05
4.91395e-05
4.34322e-05
3.77768e-05
3.2182e-05
2.66575e-05
2.12148e-05
1.58687e-05
1.06384e-05
5.55575e-06
8.36222e-07
-5.96957e-06
0.00301027
0.00258721
0.00218953
0.0018724
0.00159762
0.00134479
0.00111666
0.000919441
0.000755663
0.000624883
0.000524867
0.000452065
0.00040202
0.000369918
0.000351136
0.000341625
0.00033811
0.000338119
0.00033991
0.000342338
0.000344712
0.000346656
0.000348004
0.000348718
0.000348826
0.000348391
0.000347485
0.000346174
0.000344521
0.000342574
0.000340374
0.000337951
0.00033533
0.000332531
0.000329567
0.000326451
0.000323193
0.000319801
0.000316283
0.000312645
0.000308893
0.000305032
0.000301066
0.000297002
0.000292842
0.00028859
0.000284251
0.000279827
0.000275322
0.000270739
0.000266081
0.00026135
0.000256549
0.00025168
0.000246745
0.000241748
0.000236689
0.000231572
0.000226398
0.000221168
0.000215886
0.000210553
0.00020517
0.000199741
0.000194266
0.000188747
0.000183187
0.000177588
0.000171951
0.000166279
0.000160573
0.000154836
0.00014907
0.000143278
0.000137462
0.000131625
0.000125768
0.000119896
0.000114011
0.000108116
0.000102215
9.6311e-05
9.04084e-05
8.45111e-05
7.86235e-05
7.27504e-05
6.68969e-05
6.10684e-05
5.5271e-05
4.95111e-05
4.37957e-05
3.81325e-05
3.25303e-05
2.69988e-05
2.15497e-05
1.6198e-05
1.09638e-05
5.88126e-06
1.27374e-06
-6.03241e-06
0.00280606
0.00248968
0.0021523
0.00185986
0.00160068
0.00136148
0.00114403
0.000953829
0.000793631
0.000663503
0.000561839
0.000485802
0.000431636
0.000395131
0.00037211
0.000358811
0.000352095
0.000349514
0.000349279
0.00035016
0.000351366
0.000352431
0.000353113
0.00035331
0.000353008
0.000352237
0.000351045
0.000349488
0.000347615
0.00034547
0.00034309
0.000340502
0.00033773
0.00033479
0.000331697
0.000328463
0.000325095
0.000321602
0.00031799
0.000314265
0.000310433
0.000306497
0.000302462
0.000298333
0.000294112
0.000289805
0.000285413
0.00028094
0.000276389
0.000271762
0.000267063
0.000262294
0.000257456
0.000252553
0.000247586
0.000242558
0.000237471
0.000232326
0.000227125
0.000221871
0.000216566
0.00021121
0.000205806
0.000200356
0.000194861
0.000189324
0.000183746
0.00017813
0.000172477
0.000166789
0.000161068
0.000155317
0.000149537
0.000143732
0.000137903
0.000132053
0.000126185
0.000120301
0.000114405
0.0001085
0.000102588
9.66749e-05
9.07627e-05
8.48562e-05
7.89598e-05
7.30781e-05
6.72163e-05
6.13797e-05
5.55746e-05
4.9807e-05
4.40843e-05
3.84139e-05
3.28047e-05
2.72663e-05
2.181e-05
1.64502e-05
1.12052e-05
6.10819e-06
1.40014e-06
-7.04088e-06
0.00263339
0.00238586
0.00209981
0.00183583
0.00159682
0.00137514
0.00117184
0.000991614
0.000837407
0.00070983
0.000607906
0.000529502
0.00047159
0.000430624
0.000402961
0.000385213
0.00037447
0.000368392
0.000365207
0.000363649
0.000362867
0.000362322
0.0003617
0.00036084
0.000359674
0.000358189
0.000356401
0.000354341
0.000352038
0.000349522
0.000346819
0.000343947
0.000340923
0.000337759
0.000334466
0.00033105
0.000327519
0.000323878
0.000320132
0.000316284
0.000312338
0.000308299
0.000304169
0.000299952
0.00029565
0.000291267
0.000286805
0.000282266
0.000277654
0.000272971
0.000268218
0.000263399
0.000258514
0.000253567
0.000248559
0.000243492
0.000238367
0.000233187
0.000227954
0.000222669
0.000217333
0.00021195
0.000206519
0.000201044
0.000195525
0.000189965
0.000184366
0.000178728
0.000173055
0.000167348
0.000161609
0.000155841
0.000150045
0.000144223
0.000138379
0.000132514
0.000126632
0.000120735
0.000114826
0.000108908
0.000102984
9.70588e-05
9.11353e-05
8.52178e-05
7.93107e-05
7.34187e-05
6.75469e-05
6.17006e-05
5.58859e-05
5.0109e-05
4.43771e-05
3.86977e-05
3.30793e-05
2.75312e-05
2.2064e-05
1.66896e-05
1.14196e-05
6.26431e-06
1.21833e-06
-8.76829e-06
0.00248077
0.00228273
0.00204257
0.0018084
0.00159031
0.00138601
0.00119689
0.00102714
0.000879812
0.000755905
0.000654914
0.000575252
0.000514502
0.000469721
0.000437792
0.000415735
0.000400921
0.000391176
0.000384798
0.00038053
0.000377485
0.000375068
0.000372903
0.000370768
0.000368541
0.000366167
0.000363625
0.000360916
0.000358051
0.000355043
0.000351903
0.000348643
0.000345271
0.000341795
0.00033822
0.000334549
0.000330787
0.000326935
0.000322997
0.000318973
0.000314867
0.000310681
0.000306415
0.000302073
0.000297657
0.000293167
0.000288607
0.000283977
0.000279281
0.000274518
0.000269692
0.000264804
0.000259855
0.000254848
0.000249783
0.000244663
0.000239489
0.000234262
0.000228985
0.000223658
0.000218283
0.000212862
0.000207396
0.000201887
0.000196337
0.000190746
0.000185118
0.000179454
0.000173754
0.000168023
0.00016226
0.000156469
0.000150651
0.000144809
0.000138945
0.000133061
0.000127161
0.000121246
0.00011532
0.000109385
0.000103446
9.75055e-05
9.15674e-05
8.56357e-05
7.97148e-05
7.38094e-05
6.79245e-05
6.20654e-05
5.62383e-05
5.0449e-05
4.47049e-05
3.90132e-05
3.33819e-05
2.78199e-05
2.23358e-05
1.69368e-05
1.16196e-05
6.33776e-06
7.55365e-07
-1.08363e-05
0.00234959
0.00218733
0.00198509
0.00177842
0.0015802
0.00139227
0.00121684
0.00105768
0.000917747
0.000798296
0.000699185
0.00061927
0.000556644
0.000508895
0.00047339
0.000447545
0.000429021
0.00041583
0.000406374
0.000399427
0.000394092
0.00038974
0.000385948
0.000382443
0.00037906
0.000375701
0.000372314
0.000368872
0.000365365
0.000361789
0.000358144
0.000354432
0.000350653
0.000346808
0.000342898
0.000338922
0.000334881
0.000330774
0.000326601
0.000322363
0.000318059
0.000313689
0.000309255
0.000304757
0.000300196
0.000295572
0.000290886
0.00028614
0.000281335
0.000276472
0.000271551
0.000266574
0.000261543
0.000256457
0.00025132
0.000246131
0.000240892
0.000235604
0.000230269
0.000224888
0.000219462
0.000213992
0.000208481
0.000202928
0.000197337
0.000191707
0.000186042
0.000180342
0.000174609
0.000168845
0.000163052
0.000157232
0.000151386
0.000145517
0.000139627
0.000133719
0.000127795
0.000121858
0.00011591
0.000109954
0.000103995
9.80351e-05
9.2078e-05
8.6128e-05
8.01893e-05
7.42666e-05
6.83647e-05
6.24891e-05
5.66455e-05
5.08401e-05
4.50797e-05
3.93714e-05
3.37227e-05
2.81412e-05
2.26327e-05
1.71965e-05
1.18064e-05
6.33363e-06
1.23896e-07
-1.27626e-05
0.00223653
0.00210002
0.00192807
0.00174595
0.00156652
0.00139421
0.00123196
0.00108325
0.000950899
0.000836331
0.000739715
0.000660284
0.00059657
0.000546616
0.000508219
0.000479161
0.000457379
0.000441076
0.000428767
0.000419283
0.000411736
0.000405481
0.000400064
0.000395173
0.000390605
0.000386229
0.000381961
0.000377751
0.000373568
0.000369393
0.000365213
0.000361018
0.000356803
0.000352562
0.000348291
0.000343984
0.00033964
0.000335253
0.000330823
0.000326347
0.000321823
0.000317249
0.000312625
0.000307951
0.000303225
0.000298448
0.000293619
0.00028874
0.000283809
0.000278828
0.000273797
0.000268716
0.000263587
0.00025841
0.000253186
0.000247915
0.000242599
0.000237238
0.000231834
0.000226388
0.0002209
0.000215371
0.000209804
0.000204198
0.000198556
0.000192879
0.000187168
0.000181425
0.00017565
0.000169847
0.000164016
0.000158159
0.000152279
0.000146377
0.000140455
0.000134517
0.000128563
0.000122597
0.000116622
0.000110641
0.000104656
9.86715e-05
9.26906e-05
8.67175e-05
8.07563e-05
7.48116e-05
6.88882e-05
6.29914e-05
5.71269e-05
5.13006e-05
4.55193e-05
3.97895e-05
3.4118e-05
2.85107e-05
2.29694e-05
1.74836e-05
1.19987e-05
6.30094e-06
-4.91917e-07
-1.40723e-05
0.00213802
0.00202047
0.00187268
0.00171216
0.00155027
0.00139267
0.0012429
0.00110427
0.000979445
0.000869962
0.000776247
0.000697856
0.000633689
0.000582183
0.000541511
0.000509781
0.000485191
0.000466131
0.000451237
0.000439406
0.000429778
0.000421704
0.00041471
0.00040846
0.000402718
0.000397325
0.000392172
0.000387187
0.000382318
0.000377533
0.000372806
0.000368119
0.000363457
0.000358809
0.000354165
0.000349517
0.000344858
0.000340182
0.000335484
0.000330759
0.000326005
0.000321217
0.000316394
0.000311533
0.000306633
0.000301693
0.000296712
0.000291688
0.000286623
0.000281515
0.000276365
0.000271172
0.000265936
0.000260658
0.000255339
0.000249978
0.000244577
0.000239135
0.000233655
0.000228135
0.000222577
0.000216983
0.000211353
0.000205687
0.000199988
0.000194256
0.000188493
0.0001827
0.000176877
0.000171028
0.000165154
0.000159255
0.000153335
0.000147394
0.000141435
0.000135461
0.000129473
0.000123474
0.000117467
0.000111454
0.000105439
9.94253e-05
9.3416e-05
8.74152e-05
8.1427e-05
7.54558e-05
6.95064e-05
6.35839e-05
5.76939e-05
5.18422e-05
4.60351e-05
4.02787e-05
3.45789e-05
2.89395e-05
2.3358e-05
1.78129e-05
1.22226e-05
6.30817e-06
-9.08607e-07
-1.44457e-05
0.00205137
0.00194827
0.00181984
0.00167801
0.00153216
0.00138825
0.0012502
0.00112117
0.00100371
0.000899415
0.0008089
0.000731989
0.000667898
0.000615399
0.000572994
0.000539085
0.000512108
0.000490635
0.000473425
0.00045945
0.000447886
0.000438093
0.00042959
0.000422023
0.000415134
0.000408739
0.000402708
0.000396948
0.000391394
0.000385996
0.000380719
0.000375535
0.000370423
0.000365364
0.000360345
0.000355352
0.000350375
0.000345405
0.000340435
0.000335458
0.000330469
0.000325463
0.000320435
0.000315384
0.000310306
0.000305199
0.00030006
0.00029489
0.000289685
0.000284446
0.000279172
0.000273862
0.000268516
0.000263133
0.000257714
0.000252259
0.000246768
0.000241241
0.000235679
0.000230082
0.000224451
0.000218786
0.000213089
0.000207359
0.000201599
0.000195808
0.000189988
0.000184141
0.000178267
0.000172369
0.000166446
0.000160502
0.000154537
0.000148554
0.000142554
0.00013654
0.000130514
0.000124478
0.000118435
0.000112387
0.000106338
0.000100292
9.42503e-05
8.82181e-05
8.21991e-05
7.61976e-05
7.02183e-05
6.42663e-05
5.83468e-05
5.24655e-05
4.66283e-05
4.08409e-05
3.5108e-05
2.94313e-05
2.3804e-05
1.81951e-05
1.25031e-05
6.41825e-06
-9.99752e-07
-1.37977e-05
0.0019745
0.00188274
0.00176996
0.00164416
0.00151276
0.00138149
0.00125435
0.00113443
0.00102412
0.000925034
0.000837928
0.000762847
0.00069927
0.000646255
0.000602592
0.000566945
0.00053797
0.000514408
0.000495144
0.000479226
0.000465876
0.000454473
0.000444538
0.000435705
0.000427701
0.000420326
0.000413429
0.000406903
0.000400666
0.000394658
0.000388832
0.000383152
0.000377588
0.000372117
0.00036672
0.00036138
0.000356084
0.000350819
0.000345575
0.000340344
0.000335119
0.000329892
0.000324659
0.000319416
0.000314157
0.000308881
0.000303584
0.000298263
0.000292918
0.000287546
0.000282146
0.000276717
0.000271258
0.000265769
0.000260249
0.000254697
0.000249114
0.0002435
0.000237855
0.000232178
0.000226471
0.000220734
0.000214967
0.000209171
0.000203347
0.000197495
0.000191617
0.000185714
0.000179786
0.000173835
0.000167863
0.00016187
0.000155859
0.00014983
0.000143787
0.000137731
0.000131664
0.000125589
0.000119507
0.000113422
0.000107337
0.000101255
9.51788e-05
8.91125e-05
8.30599e-05
7.70253e-05
7.10133e-05
6.50286e-05
5.90765e-05
5.31625e-05
4.72919e-05
4.14698e-05
3.57001e-05
2.99825e-05
2.43066e-05
1.8635e-05
1.28572e-05
6.6706e-06
-7.22542e-07
-1.2269e-05
0.00190577
0.00182319
0.00172317
0.00161106
0.00149257
0.00137286
0.00125586
0.00114451
0.00104108
0.000947161
0.000863601
0.000790622
0.00072792
0.0006748
0.000630299
0.000593312
0.000562696
0.000537353
0.000516284
0.000498623
0.000483639
0.000470741
0.000459455
0.000449414
0.000440336
0.000432006
0.000424262
0.00041698
0.000410068
0.000403453
0.00039708
0.000390904
0.000384888
0.000379005
0.00037323
0.000367543
0.000361925
0.000356364
0.000350846
0.000345359
0.000339896
0.000334448
0.000329009
0.000323572
0.000318132
0.000312685
0.000307228
0.000301757
0.000296269
0.000290763
0.000285236
0.000279687
0.000274114
0.000268517
0.000262894
0.000257245
0.00025157
0.000245867
0.000240137
0.00023438
0.000228596
0.000222785
0.000216948
0.000211084
0.000205195
0.000199282
0.000193344
0.000187383
0.0001814
0.000175396
0.000169372
0.000163329
0.00015727
0.000151196
0.000145108
0.000139008
0.000132899
0.000126782
0.000120661
0.000114537
0.000108414
0.000102295
9.6182e-05
9.00798e-05
8.39917e-05
7.79221e-05
7.18752e-05
6.58558e-05
5.98688e-05
5.39196e-05
4.8013e-05
4.21538e-05
3.63447e-05
3.05842e-05
2.48596e-05
1.91307e-05
1.32903e-05
7.07438e-06
-1.1218e-07
-1.01484e-05
0.00184391
0.00176892
0.00167945
0.00157904
0.00147198
0.00136279
0.00125514
0.00115183
0.00105498
0.000966122
0.000886184
0.000815514
0.000753986
0.00070111
0.00065614
0.000618172
0.000586243
0.000559405
0.000536774
0.000517564
0.000501101
0.000486823
0.000474274
0.000463089
0.000452982
0.00044373
0.000435159
0.000427137
0.000419559
0.000412344
0.000405427
0.000398757
0.000392291
0.000385996
0.000379843
0.000373807
0.000367868
0.000362009
0.000356215
0.000350472
0.00034477
0.000339099
0.000333452
0.000327819
0.000322197
0.000316579
0.00031096
0.000305337
0.000299706
0.000294065
0.00028841
0.00028274
0.000277052
0.000271346
0.00026562
0.000259872
0.000254103
0.000248311
0.000242496
0.000236658
0.000230796
0.000224911
0.000219002
0.00021307
0.000207116
0.000201139
0.000195141
0.000189121
0.000183082
0.000177024
0.000170948
0.000164855
0.000158748
0.000152626
0.000146492
0.000140348
0.000134196
0.000128037
0.000121875
0.000115711
0.000109549
0.000103391
9.72409e-05
9.11014e-05
8.49766e-05
7.88705e-05
7.27873e-05
6.67316e-05
6.07082e-05
5.4722e-05
4.87777e-05
4.28796e-05
3.70297e-05
3.12256e-05
2.54539e-05
1.96759e-05
1.37974e-05
7.61297e-06
7.45895e-07
-7.76806e-06
0.00178788
0.0017193
0.00163867
0.00154828
0.00145132
0.00135164
0.00125258
0.00115676
0.00106615
0.000982227
0.000905936
0.000837724
0.00077761
0.000725276
0.000680157
0.000641528
0.000608587
0.000580522
0.000556557
0.000535989
0.000518199
0.000502661
0.000488941
0.000476681
0.000465595
0.000455457
0.000446087
0.000437343
0.000429112
0.000421305
0.00041385
0.00040669
0.000399777
0.000393071
0.000386539
0.000380155
0.000373894
0.000367737
0.000361666
0.000355665
0.000349723
0.000343829
0.000337971
0.000332143
0.000326336
0.000320545
0.000314764
0.000308987
0.000303212
0.000297434
0.00029165
0.000285858
0.000280054
0.000274238
0.000268407
0.00026256
0.000256696
0.000250814
0.000244913
0.000238993
0.000233052
0.000227092
0.000221111
0.00021511
0.000209089
0.000203049
0.000196989
0.000190911
0.000184815
0.000178702
0.000172574
0.00016643
0.000160273
0.000154103
0.000147923
0.000141734
0.000135538
0.000129336
0.000123132
0.000116928
0.000110726
0.000104529
9.83397e-05
9.21621e-05
8.59996e-05
7.9856e-05
7.37354e-05
6.76422e-05
6.15811e-05
5.55567e-05
4.95734e-05
4.36351e-05
3.77436e-05
3.1896e-05
2.60799e-05
2.02614e-05
1.4366e-05
8.25431e-06
1.74915e-06
-5.41757e-06
0.00173688
0.00167379
0.00160065
0.00151887
0.00143082
0.0013397
0.00124851
0.00115964
0.00107493
0.000995767
0.000923103
0.000857449
0.000798938
0.000747394
0.000702403
0.000663397
0.000629716
0.000600671
0.00057559
0.000553847
0.000534881
0.000518205
0.000503408
0.000490145
0.000478137
0.000467155
0.000457016
0.000447571
0.000438703
0.000430316
0.000422332
0.000414688
0.00040733
0.000400216
0.000393308
0.000386577
0.000379994
0.000373538
0.000367189
0.00036093
0.000354747
0.000348627
0.000342559
0.000336533
0.000330541
0.000324575
0.00031863
0.000312699
0.000306778
0.000300862
0.000294948
0.000289032
0.000283111
0.000277184
0.000271247
0.0002653
0.00025934
0.000253366
0.000247378
0.000241374
0.000235354
0.000229318
0.000223264
0.000217193
0.000211105
0.000205
0.000198879
0.000192741
0.000186587
0.000180419
0.000174237
0.000168041
0.000161834
0.000155616
0.000149388
0.000143154
0.000136913
0.000130668
0.000124422
0.000118176
0.000111933
0.000105696
9.94674e-05
9.32508e-05
8.70496e-05
8.08677e-05
7.47087e-05
6.8577e-05
6.24771e-05
5.64134e-05
5.03901e-05
4.44109e-05
3.84772e-05
3.25868e-05
2.67292e-05
2.08776e-05
1.49802e-05
8.96146e-06
2.80367e-06
-3.29674e-06
0.00169023
0.00163192
0.00156519
0.00149086
0.00141065
0.00132722
0.00124321
0.00116077
0.0010816
0.00100701
0.000937917
0.000874879
0.000818116
0.000767563
0.000722938
0.000683804
0.000649627
0.000619832
0.000593839
0.000571096
0.000551102
0.000533409
0.000517632
0.000503443
0.000490571
0.00047879
0.000467916
0.000457797
0.000448312
0.000439359
0.000430857
0.000422736
0.00041494
0.000407421
0.00040014
0.000393062
0.000386159
0.000379405
0.000372778
0.000366261
0.000359836
0.00035349
0.00034721
0.000340985
0.000334806
0.000328665
0.000322554
0.000316467
0.000310399
0.000304344
0.000298297
0.000292257
0.000286218
0.000280178
0.000274134
0.000268085
0.000262028
0.000255962
0.000249886
0.000243798
0.000237697
0.000231583
0.000225455
0.000219314
0.000213157
0.000206987
0.000200803
0.000194604
0.000188392
0.000182168
0.000175931
0.000169683
0.000163425
0.000157157
0.000150882
0.000144601
0.000138314
0.000132026
0.000125736
0.000119448
0.000113163
0.000106885
0.000100617
9.43602e-05
8.81196e-05
8.18982e-05
7.56999e-05
6.95288e-05
6.33892e-05
5.72852e-05
5.1221e-05
4.52e-05
3.9224e-05
3.32914e-05
2.73945e-05
2.15153e-05
1.56242e-05
9.70015e-06
3.83779e-06
-1.50766e-06
0.00164737
0.00159327
0.00153208
0.00146423
0.00139093
0.0013144
0.00123692
0.00116042
0.00108644
0.00101621
0.000950598
0.000890198
0.000835285
0.000785888
0.000741829
0.000702785
0.000668331
0.000637993
0.000611277
0.000587703
0.000566823
0.000548231
0.000531572
0.000516536
0.000502862
0.000490331
0.00047876
0.000467997
0.000457917
0.000448416
0.000439407
0.00043082
0.000422592
0.000414675
0.000407024
0.000399604
0.000392381
0.00038533
0.000378427
0.000371651
0.000364984
0.000358412
0.000351919
0.000345495
0.000339129
0.000332811
0.000326533
0.000320289
0.000314072
0.000307877
0.000301697
0.00029553
0.000289371
0.000283218
0.000277066
0.000270914
0.000264759
0.000258599
0.000252433
0.00024626
0.000240077
0.000233885
0.000227682
0.000221468
0.000215243
0.000209006
0.000202758
0.000196498
0.000190227
0.000183945
0.000177653
0.000171351
0.000165041
0.000158723
0.0001524
0.000146071
0.000139738
0.000133405
0.000127071
0.000120739
0.000114413
0.000108093
0.000101783
9.5486e-05
8.92049e-05
8.29433e-05
7.67047e-05
7.04932e-05
6.43127e-05
5.81675e-05
5.20615e-05
4.59981e-05
3.99793e-05
3.40049e-05
2.80705e-05
2.21665e-05
1.62837e-05
1.04427e-05
4.8054e-06
-7.2386e-08
0.00160786
0.00155748
0.00150113
0.00143894
0.00137176
0.0013014
0.00122985
0.00115881
0.00108968
0.00102358
0.000961351
0.000903579
0.000850588
0.000802473
0.000759147
0.00072038
0.000685843
0.00065515
0.000627886
0.000603638
0.00058201
0.000562637
0.000545192
0.000529388
0.000514978
0.000501748
0.000489521
0.000478146
0.000467496
0.000457466
0.000447968
0.000438925
0.000430276
0.000421967
0.000413952
0.000406193
0.000398655
0.000391309
0.00038413
0.000377096
0.000370188
0.000363389
0.000356684
0.00035006
0.000343505
0.00033701
0.000330565
0.000324163
0.000317796
0.000311459
0.000305145
0.000298851
0.000292571
0.000286302
0.000280041
0.000273784
0.00026753
0.000261276
0.000255019
0.000248759
0.000242493
0.000236222
0.000229943
0.000223656
0.000217361
0.000211057
0.000204743
0.000198421
0.000192089
0.000185749
0.000179401
0.000173045
0.000166682
0.000160313
0.000153939
0.000147562
0.000141183
0.000134803
0.000128424
0.000122049
0.000115679
0.000109316
0.000102964
9.66256e-05
9.03031e-05
8.40002e-05
7.77203e-05
7.14674e-05
6.52452e-05
5.90577e-05
5.29089e-05
4.68023e-05
4.07404e-05
3.47242e-05
2.87529e-05
2.28248e-05
1.6947e-05
1.11692e-05
5.68274e-06
1.03901e-06
0.0015713
0.00152424
0.00147215
0.00141494
0.00135317
0.00128835
0.00122218
0.00115616
0.00109154
0.00102934
0.000970367
0.00091519
0.000864159
0.000817424
0.000774966
0.000736636
0.000702186
0.000671308
0.000643657
0.000618881
0.000596635
0.000576594
0.00055846
0.000541969
0.000526887
0.000513013
0.000500174
0.000488221
0.000477029
0.000466493
0.000456521
0.000447038
0.000437978
0.000429286
0.000420914
0.000412821
0.000404971
0.000397333
0.000389881
0.000382591
0.000375443
0.000368418
0.0003615
0.000354676
0.000347933
0.000341259
0.000334646
0.000328085
0.000321568
0.000315088
0.000308639
0.000302216
0.000295815
0.00028943
0.000283058
0.000276696
0.000270341
0.000263991
0.000257643
0.000251295
0.000244945
0.000238593
0.000232237
0.000225876
0.000219509
0.000213137
0.000206757
0.000200371
0.000193978
0.000187579
0.000181173
0.000174762
0.000168345
0.000161925
0.0001555
0.000149074
0.000142646
0.00013622
0.000129795
0.000123374
0.00011696
0.000110554
0.000104159
9.77777e-05
9.14128e-05
8.50676e-05
7.87454e-05
7.24499e-05
6.61849e-05
5.99542e-05
5.37617e-05
4.7611e-05
4.15053e-05
3.5447e-05
2.94384e-05
2.34847e-05
1.76053e-05
1.18665e-05
6.46259e-06
1.88162e-06
0.00153736
0.0014933
0.00144497
0.00139215
0.00133519
0.00127534
0.00121404
0.00115262
0.00109219
0.00103368
0.000977822
0.000925186
0.000876131
0.000830844
0.000789364
0.000751605
0.00071739
0.000686477
0.000658585
0.000633418
0.000610677
0.000590076
0.000571347
0.000554248
0.000538562
0.000524098
0.000510692
0.000498198
0.000486495
0.000475476
0.000465052
0.000455143
0.000445685
0.00043662
0.000427899
0.000419478
0.000411321
0.000403396
0.000395674
0.00038813
0.000380743
0.000373493
0.000366364
0.00035934
0.000352408
0.000345557
0.000338776
0.000332055
0.000325387
0.000318763
0.000312178
0.000305626
0.000299101
0.000292599
0.000286116
0.000279648
0.000273191
0.000266744
0.000260303
0.000253866
0.000247432
0.000240998
0.000234564
0.000228127
0.000221688
0.000215246
0.0002088
0.000202349
0.000195894
0.000189435
0.000182971
0.000176503
0.000170032
0.000163558
0.000157082
0.000150605
0.000144129
0.000137654
0.000131182
0.000124716
0.000118256
0.000111806
0.000105367
9.89415e-05
9.25332e-05
8.61446e-05
7.9779e-05
7.344e-05
6.7131e-05
6.0856e-05
5.46188e-05
4.84231e-05
4.22727e-05
3.61713e-05
3.01242e-05
2.41419e-05
1.8252e-05
1.25276e-05
7.14839e-06
2.51594e-06
0.00150575
0.0014644
0.00141943
0.00137051
0.00131784
0.00126244
0.00120557
0.00114837
0.00109181
0.00103676
0.000983878
0.000933713
0.000886628
0.000842836
0.000802418
0.000765342
0.000731487
0.000700672
0.000672672
0.000647239
0.000624118
0.00060306
0.000583827
0.000566199
0.000549975
0.000534979
0.000521052
0.000508057
0.000495873
0.000484398
0.000473542
0.000463226
0.000453384
0.000443957
0.000434896
0.000426156
0.000417698
0.00040949
0.000401502
0.000393707
0.000386084
0.000378611
0.000371271
0.000364048
0.000356928
0.000349899
0.000342949
0.000336069
0.000329249
0.000322482
0.000315761
0.000309078
0.00030243
0.00029581
0.000289214
0.000282639
0.00027608
0.000269534
0.000262999
0.000256473
0.000249952
0.000243436
0.000236922
0.00023041
0.000223898
0.000217385
0.00021087
0.000204354
0.000197836
0.000191315
0.000184792
0.000178267
0.00017174
0.000165212
0.000158683
0.000152155
0.000145629
0.000139105
0.000132586
0.000126072
0.000119567
0.000113071
0.000106586
0.000100117
9.36637e-05
8.72307e-05
8.08206e-05
7.44369e-05
6.8083e-05
6.17625e-05
5.54795e-05
4.92377e-05
4.30415e-05
3.68959e-05
3.08083e-05
2.47931e-05
1.88825e-05
1.31494e-05
7.74933e-06
2.99639e-06
0.00147625
0.00143736
0.00139539
0.00134995
0.00130112
0.00124973
0.00119686
0.00114351
0.00109055
0.00103873
0.000988684
0.000940909
0.000895771
0.000853499
0.000814206
0.000777903
0.000744517
0.000713916
0.000685925
0.00066034
0.000636947
0.000615531
0.00059588
0.000577799
0.000561104
0.00054563
0.000531231
0.000517774
0.000505144
0.000493241
0.000481976
0.000471271
0.000461061
0.000451286
0.000441895
0.000432844
0.000424093
0.000415608
0.000407358
0.000399316
0.000391459
0.000383765
0.000376217
0.000368796
0.00036149
0.000354283
0.000347165
0.000340125
0.000333154
0.000326243
0.000319384
0.000312571
0.000305798
0.00029906
0.000292351
0.000285667
0.000279005
0.00027236
0.000265731
0.000259114
0.000252506
0.000245906
0.000239312
0.000232723
0.000226136
0.000219552
0.000212969
0.000206386
0.000199803
0.00019322
0.000186637
0.000180053
0.00017347
0.000166887
0.000160305
0.000153725
0.000147147
0.000140574
0.000134006
0.000127444
0.000120891
0.000114348
0.000107818
0.000101302
9.4804e-05
8.83255e-05
8.18699e-05
7.54404e-05
6.90403e-05
6.26733e-05
5.63432e-05
5.00542e-05
4.38109e-05
3.76194e-05
3.14888e-05
2.54358e-05
1.94942e-05
1.37318e-05
8.27689e-06
3.36667e-06
0.00144864
0.00141199
0.00137272
0.0013304
0.001285
0.00123722
0.00118799
0.00113818
0.00108854
0.00103974
0.000992374
0.000946899
0.000903671
0.000862928
0.000824806
0.000789347
0.000756519
0.000726233
0.000698355
0.000672722
0.000649156
0.000627473
0.000607488
0.000589028
0.000571926
0.000556032
0.000541208
0.00052733
0.000514289
0.000501986
0.000490337
0.000479264
0.000468703
0.000458593
0.000448885
0.000439533
0.000430496
0.00042174
0.000413234
0.00040495
0.000396863
0.000388952
0.000381196
0.00037358
0.000366088
0.000358705
0.00035142
0.00034422
0.000337098
0.000330042
0.000323046
0.000316103
0.000309205
0.000302348
0.000295525
0.000288732
0.000281966
0.000275222
0.000268497
0.000261788
0.000255092
0.000248408
0.000241733
0.000235065
0.000228404
0.000221747
0.000215094
0.000208444
0.000201796
0.00019515
0.000188505
0.000181862
0.000175221
0.000168582
0.000161946
0.000155313
0.000148683
0.000142059
0.000135441
0.000128831
0.000122229
0.000115639
0.000109061
0.000102499
9.59539e-05
8.94288e-05
8.29265e-05
7.64501e-05
7.00027e-05
6.35879e-05
5.72096e-05
5.0872e-05
4.45801e-05
3.83408e-05
3.21642e-05
2.60682e-05
2.00856e-05
1.42766e-05
8.74273e-06
3.65932e-06
0.00142273
0.00138813
0.0013513
0.00131178
0.00126947
0.00122496
0.00117903
0.00113245
0.00108587
0.00103991
0.000995071
0.000951801
0.000910436
0.000871216
0.000834292
0.000799733
0.000767538
0.000737652
0.000709979
0.000684391
0.000660742
0.000638877
0.000618637
0.000599868
0.000582423
0.000566164
0.000550964
0.000536707
0.000523289
0.000510617
0.000498609
0.00048719
0.000476295
0.000465867
0.000455854
0.000446212
0.000436899
0.00042788
0.000419124
0.000410602
0.000402289
0.000394164
0.000386205
0.000378396
0.000370719
0.000363161
0.00035571
0.000348352
0.000341078
0.000333879
0.000326746
0.000319671
0.000312649
0.000305671
0.000298734
0.000291833
0.000284961
0.000278117
0.000271296
0.000264494
0.00025771
0.000250941
0.000244184
0.000237437
0.0002307
0.00022397
0.000217246
0.000210527
0.000203813
0.000197103
0.000190397
0.000183693
0.000176994
0.000170298
0.000163606
0.000156919
0.000150237
0.000143561
0.000136892
0.000130231
0.000123581
0.000116942
0.000110316
0.000103706
9.7113e-05
9.05402e-05
8.39901e-05
7.74655e-05
7.09697e-05
6.4506e-05
5.80781e-05
5.16906e-05
4.53485e-05
3.90592e-05
3.28333e-05
2.66888e-05
2.06563e-05
1.47867e-05
9.15751e-06
3.8974e-06
0.00139837
0.00136565
0.00133103
0.00129404
0.00125452
0.00121296
0.00117004
0.00112641
0.00108267
0.00103934
0.000996888
0.000955723
0.000916165
0.00087845
0.00084274
0.00080912
0.000777617
0.000748205
0.000720817
0.000695356
0.000671706
0.000649738
0.000629316
0.000610307
0.000592579
0.000576009
0.00056048
0.000545885
0.000532127
0.000519118
0.000506777
0.000495034
0.000483826
0.000473096
0.000462792
0.000452871
0.000443291
0.000434018
0.000425019
0.000416266
0.000407732
0.000399397
0.000391238
0.000383238
0.000375379
0.000367648
0.000360031
0.000352516
0.000345092
0.00033775
0.00033048
0.000323274
0.000316126
0.00030903
0.000301978
0.000294966
0.00028799
0.000281045
0.000274127
0.000267233
0.000260359
0.000253504
0.000246664
0.000239838
0.000233023
0.000226219
0.000219423
0.000212636
0.000205855
0.00019908
0.00019231
0.000185546
0.000178787
0.000172034
0.000165285
0.000158543
0.000151807
0.000145078
0.000138357
0.000131646
0.000124945
0.000118257
0.000111582
0.000104922
9.82809e-05
9.16593e-05
8.50603e-05
7.84865e-05
7.1941e-05
6.5427e-05
5.89484e-05
5.25093e-05
4.61153e-05
3.97737e-05
3.34953e-05
2.72971e-05
2.12065e-05
1.52652e-05
9.5304e-06
4.09682e-06
0.00137541
0.00134442
0.00131182
0.00127712
0.00124013
0.00120123
0.00116105
0.00112014
0.00107901
0.00103813
0.000997923
0.000958763
0.00092095
0.000884714
0.000850219
0.000817567
0.000786803
0.000757923
0.000730889
0.000705629
0.000682052
0.000660053
0.000639518
0.000620332
0.00060238
0.000585552
0.000569741
0.00055485
0.000540788
0.000527471
0.000514826
0.000502783
0.000491282
0.000480266
0.000469687
0.000459499
0.000449664
0.000440146
0.000430912
0.000421933
0.000413185
0.000404644
0.000396289
0.000388101
0.000380064
0.000372162
0.000364381
0.00035671
0.000349137
0.000341652
0.000334245
0.00032691
0.000319637
0.00031242
0.000305254
0.000298133
0.000291051
0.000284004
0.000276989
0.000270001
0.000263038
0.000256096
0.000249172
0.000242266
0.000235374
0.000228494
0.000221627