/*--------------------------------*- C++ -*----------------------------------*\
| =========                 |                                                 |
| \\      /  F ield         | OpenFOAM: The Open Source CFD Toolbox           |
|  \\    /   O peration     | Version:  2.3.0                                 |
|   \\  /    A nd           | Web:      www.OpenFOAM.org                      |
|    \\/     M anipulation  |                                                 |
\*---------------------------------------------------------------------------*/
FoamFile
{
    version     2.0;
    format      ascii;
    class       surfaceScalarField;
    location    "0.85";
    object      phi;
}
// * * * * * * * * * * * * * * * * * * * * * * * * * * * * * * * * * * * * * //

dimensions      [0 3 -1 0 0 0 0];

internalField   nonuniform List<scalar> 
17305
(
2.83719e-08
2.87929e-09
-3.12512e-08
2.55081e-08
2.86379e-09
2.28205e-08
2.68754e-09
2.03431e-08
2.47748e-09
1.80917e-08
2.25136e-09
1.60771e-08
2.01462e-09
1.43016e-08
1.77545e-09
1.276e-08
1.5416e-09
1.14404e-08
1.31963e-09
1.03255e-08
1.11488e-09
9.39424e-09
9.31277e-10
8.62313e-09
7.71109e-10
7.98812e-09
6.35015e-10
7.46595e-09
5.22169e-10
7.03533e-09
4.30624e-10
6.6776e-09
3.57727e-10
6.37709e-09
3.00508e-10
6.12108e-09
2.56016e-10
5.89953e-09
2.21543e-10
5.70477e-09
1.94761e-10
5.53101e-09
1.7376e-10
5.37397e-09
1.57042e-10
5.2305e-09
1.43473e-10
5.09828e-09
1.32216e-10
4.97561e-09
1.22672e-10
4.86119e-09
1.14418e-10
4.75403e-09
1.07159e-10
4.65334e-09
1.0069e-10
4.55847e-09
9.48679e-11
4.46888e-09
8.95891e-11
4.38411e-09
8.4778e-11
4.30373e-09
8.03764e-11
4.22739e-09
7.63374e-11
4.15477e-09
7.26224e-11
4.08557e-09
6.91979e-11
4.01954e-09
6.6035e-11
3.95643e-09
6.3108e-11
3.89603e-09
6.03942e-11
3.83816e-09
5.7873e-11
3.78264e-09
5.55264e-11
3.7293e-09
5.33381e-11
3.678e-09
5.12938e-11
3.62862e-09
4.93804e-11
3.58104e-09
4.75865e-11
3.53513e-09
4.59019e-11
3.49082e-09
4.43173e-11
3.44799e-09
4.28246e-11
3.40658e-09
4.14165e-11
3.36649e-09
4.00862e-11
3.32766e-09
3.8828e-11
3.29003e-09
3.76363e-11
3.25352e-09
3.65065e-11
3.21809e-09
3.5434e-11
3.18367e-09
3.44149e-11
3.15022e-09
3.34455e-11
3.1177e-09
3.25225e-11
3.08606e-09
3.1643e-11
3.05526e-09
3.08041e-11
3.02525e-09
3.00032e-11
2.99601e-09
2.92381e-11
2.96751e-09
2.85066e-11
2.9397e-09
2.78067e-11
2.91256e-09
2.71365e-11
2.88607e-09
2.64945e-11
2.86019e-09
2.58789e-11
2.8349e-09
2.52885e-11
2.81018e-09
2.47218e-11
2.786e-09
2.41776e-11
2.76235e-09
2.36548e-11
2.7392e-09
2.31522e-11
2.71653e-09
2.2669e-11
2.69432e-09
2.22042e-11
2.67257e-09
2.17569e-11
2.65124e-09
2.13264e-11
2.63033e-09
2.0912e-11
2.60981e-09
2.05129e-11
2.58969e-09
2.01286e-11
2.56993e-09
1.97586e-11
2.55052e-09
1.94023e-11
2.53147e-09
1.90592e-11
2.51274e-09
1.87289e-11
2.49433e-09
1.84111e-11
2.47622e-09
1.81056e-11
2.45841e-09
1.78119e-11
2.44088e-09
1.753e-11
2.42362e-09
1.72595e-11
2.40662e-09
1.70006e-11
2.38986e-09
1.67533e-11
2.37335e-09
1.65174e-11
2.35705e-09
1.62935e-11
2.34097e-09
1.6082e-11
2.32509e-09
1.5884e-11
2.30939e-09
1.57012e-11
2.29385e-09
1.55377e-11
2.27845e-09
1.54022e-11
2.26313e-09
1.5316e-11
2.24779e-09
1.53419e-11
2.23215e-09
1.56351e-11
2.21593e-09
1.62268e-11
4.89103e-11
3.34102e-08
3.15069e-09
-3.36816e-08
3.28252e-08
3.44886e-09
3.20081e-08
3.50458e-09
3.10359e-08
3.44972e-09
2.99639e-08
3.32337e-09
2.88376e-08
3.14089e-09
2.7694e-08
2.91909e-09
2.65612e-08
2.67433e-09
2.54603e-08
2.42056e-09
2.44059e-08
2.16929e-09
2.34075e-08
1.92965e-09
2.24704e-08
1.70817e-09
2.15967e-08
1.50882e-09
2.07856e-08
1.33319e-09
2.00352e-08
1.18107e-09
1.9342e-08
1.0509e-09
1.87022e-08
9.40354e-10
1.81114e-08
8.46772e-10
1.75655e-08
7.67494e-10
1.70602e-08
7.00061e-10
1.65916e-08
6.42328e-10
1.61561e-08
5.92498e-10
1.57505e-08
5.49108e-10
1.53717e-08
5.10991e-10
1.50172e-08
4.77229e-10
1.46845e-08
4.47102e-10
1.43716e-08
4.20045e-10
1.40767e-08
3.95614e-10
1.37981e-08
3.73451e-10
1.35344e-08
3.53268e-10
1.32844e-08
3.34825e-10
1.30468e-08
3.17923e-10
1.28208e-08
3.02392e-10
1.26053e-08
2.88086e-10
1.23996e-08
2.74878e-10
1.2203e-08
2.62656e-10
1.20148e-08
2.51323e-10
1.18344e-08
2.40792e-10
1.16613e-08
2.30988e-10
1.14949e-08
2.21844e-10
1.1335e-08
2.13298e-10
1.1181e-08
2.05297e-10
1.10326e-08
1.97795e-10
1.08894e-08
1.90749e-10
1.07512e-08
1.8412e-10
1.06176e-08
1.77874e-10
1.04885e-08
1.71982e-10
1.03635e-08
1.66416e-10
1.02424e-08
1.61151e-10
1.01251e-08
1.56164e-10
1.00113e-08
1.51436e-10
9.90083e-09
1.46948e-10
9.79359e-09
1.42683e-10
9.68937e-09
1.38626e-10
9.58806e-09
1.34764e-10
9.4895e-09
1.31083e-10
9.39357e-09
1.27572e-10
9.30015e-09
1.2422e-10
9.20914e-09
1.21017e-10
9.12042e-09
1.17955e-10
9.0339e-09
1.15025e-10
8.94949e-09
1.12219e-10
8.8671e-09
1.09531e-10
8.78664e-09
1.06953e-10
8.70804e-09
1.04479e-10
8.63122e-09
1.02104e-10
8.55612e-09
9.98235e-11
8.48267e-09
9.76313e-11
8.4108e-09
9.55233e-11
8.34045e-09
9.34955e-11
8.27158e-09
9.15437e-11
8.20412e-09
8.96646e-11
8.13802e-09
8.78546e-11
8.07324e-09
8.61106e-11
8.00972e-09
8.44298e-11
7.94742e-09
8.28095e-11
7.8863e-09
8.12472e-11
7.82632e-09
7.97406e-11
7.76744e-09
7.82877e-11
7.70961e-09
7.68865e-11
7.6528e-09
7.55353e-11
7.59698e-09
7.42325e-11
7.54211e-09
7.29769e-11
7.48815e-09
7.17672e-11
7.43508e-09
7.06024e-11
7.38286e-09
6.94819e-11
7.33146e-09
6.8405e-11
7.28084e-09
6.73715e-11
7.23097e-09
6.63816e-11
7.18183e-09
6.54359e-11
7.13338e-09
6.45359e-11
7.08558e-09
6.36845e-11
7.03839e-09
6.28877e-11
6.99177e-09
6.21575e-11
6.94565e-09
6.15214e-11
6.89992e-09
6.10494e-11
6.85432e-09
6.09359e-11
6.80826e-09
6.17023e-11
6.75625e-09
6.82358e-11
1.23015e-10
3.48057e-08
2.99739e-09
-3.46524e-08
3.48707e-08
3.38392e-09
3.48095e-08
3.56575e-09
3.46278e-08
3.6314e-09
3.43362e-08
3.61495e-09
3.3949e-08
3.52811e-09
3.34835e-08
3.38458e-09
3.29576e-08
3.2003e-09
3.23878e-08
2.99034e-09
3.17891e-08
2.768e-09
3.11742e-08
2.54455e-09
3.05535e-08
2.32882e-09
2.99353e-08
2.12704e-09
2.93256e-08
1.94289e-09
2.87288e-08
1.7779e-09
2.81477e-08
1.63197e-09
2.75842e-08
1.50389e-09
2.70391e-08
1.39183e-09
2.65129e-08
1.2937e-09
2.60055e-08
1.20746e-09
2.55166e-08
1.13121e-09
2.50458e-08
1.06332e-09
2.45925e-08
1.00242e-09
2.41561e-08
9.47403e-10
2.37359e-08
8.97371e-10
2.33314e-08
8.51614e-10
2.29419e-08
8.09567e-10
2.25667e-08
7.70775e-10
2.22053e-08
7.34872e-10
2.1857e-08
7.01555e-10
2.15213e-08
6.70567e-10
2.11975e-08
6.41692e-10
2.08852e-08
6.14741e-10
2.05837e-08
5.89548e-10
2.02926e-08
5.65964e-10
2.00114e-08
5.43857e-10
1.97396e-08
5.23109e-10
1.94768e-08
5.03611e-10
1.92225e-08
4.85265e-10
1.89764e-08
4.67983e-10
1.8738e-08
4.51684e-10
1.8507e-08
4.36294e-10
1.82831e-08
4.21748e-10
1.80658e-08
4.07983e-10
1.7855e-08
3.94944e-10
1.76503e-08
3.8258e-10
1.74514e-08
3.70845e-10
1.72582e-08
3.59695e-10
1.70702e-08
3.49093e-10
1.68874e-08
3.39001e-10
1.67094e-08
3.29387e-10
1.65362e-08
3.2022e-10
1.63674e-08
3.11474e-10
1.62029e-08
3.03121e-10
1.60425e-08
2.95138e-10
1.58861e-08
2.87503e-10
1.57335e-08
2.80195e-10
1.55845e-08
2.73197e-10
1.5439e-08
2.66489e-10
1.52969e-08
2.60057e-10
1.5158e-08
2.53885e-10
1.50223e-08
2.47958e-10
1.48896e-08
2.42264e-10
1.47597e-08
2.36791e-10
1.46327e-08
2.31527e-10
1.45083e-08
2.26462e-10
1.43866e-08
2.21586e-10
1.42673e-08
2.16889e-10
1.41505e-08
2.12363e-10
1.4036e-08
2.08001e-10
1.39237e-08
2.03793e-10
1.38136e-08
1.99734e-10
1.37057e-08
1.95817e-10
1.35998e-08
1.92035e-10
1.34958e-08
1.88384e-10
1.33938e-08
1.84857e-10
1.32936e-08
1.8145e-10
1.31951e-08
1.78158e-10
1.30984e-08
1.74977e-10
1.30034e-08
1.71903e-10
1.291e-08
1.68933e-10
1.28182e-08
1.66064e-10
1.27279e-08
1.63292e-10
1.2639e-08
1.60615e-10
1.25516e-08
1.58032e-10
1.24656e-08
1.5554e-10
1.23808e-08
1.53138e-10
1.22974e-08
1.50826e-10
1.22151e-08
1.48604e-10
1.21341e-08
1.46472e-10
1.20542e-08
1.44433e-10
1.19754e-08
1.42493e-10
1.18976e-08
1.40663e-10
1.18208e-08
1.38965e-10
1.17449e-08
1.37451e-10
1.16697e-08
1.36254e-10
1.15949e-08
1.35748e-10
1.15194e-08
1.3719e-10
1.14381e-08
1.49502e-10
2.0932e-10
3.56408e-08
2.80561e-09
-3.54491e-08
3.58364e-08
3.1884e-09
3.59908e-08
3.41132e-09
3.60918e-08
3.53042e-09
3.61328e-08
3.57395e-09
3.61099e-08
3.551e-09
3.60236e-08
3.47082e-09
3.58781e-08
3.34583e-09
3.56795e-08
3.18891e-09
3.54354e-08
3.01212e-09
3.51538e-08
2.82621e-09
3.48424e-08
2.64019e-09
3.45085e-08
2.4609e-09
3.41584e-08
2.29298e-09
3.37973e-08
2.139e-09
3.34294e-08
1.99993e-09
3.30578e-08
1.87549e-09
3.2685e-08
1.76465e-09
3.23127e-08
1.66597e-09
3.19423e-08
1.57787e-09
3.15747e-08
1.49882e-09
3.12105e-08
1.42744e-09
3.08504e-08
1.36252e-09
3.04948e-08
1.30307e-09
3.01439e-08
1.24829e-09
2.9798e-08
1.19751e-09
2.94573e-08
1.15023e-09
2.9122e-08
1.10604e-09
2.87923e-08
1.06458e-09
2.84683e-08
1.02561e-09
2.815e-08
9.88877e-10
2.78374e-08
9.54204e-10
2.75308e-08
9.21422e-10
2.72299e-08
8.90387e-10
2.69349e-08
8.60972e-10
2.66457e-08
8.33062e-10
2.63623e-08
8.06553e-10
2.60845e-08
7.81353e-10
2.58124e-08
7.57374e-10
2.55459e-08
7.34538e-10
2.52848e-08
7.12774e-10
2.50291e-08
6.92014e-10
2.47786e-08
6.72198e-10
2.45333e-08
6.53269e-10
2.42931e-08
6.35175e-10
2.40578e-08
6.17867e-10
2.38273e-08
6.01302e-10
2.36016e-08
5.85436e-10
2.33805e-08
5.70231e-10
2.31638e-08
5.55651e-10
2.29515e-08
5.41663e-10
2.27435e-08
5.28235e-10
2.25397e-08
5.15337e-10
2.23398e-08
5.02943e-10
2.21439e-08
4.91027e-10
2.19519e-08
4.79564e-10
2.17636e-08
4.68532e-10
2.15788e-08
4.5791e-10
2.13976e-08
4.47678e-10
2.12199e-08
4.37817e-10
2.10455e-08
4.2831e-10
2.08743e-08
4.19139e-10
2.07063e-08
4.10291e-10
2.05413e-08
4.0175e-10
2.03793e-08
3.93502e-10
2.02203e-08
3.85534e-10
2.0064e-08
3.77834e-10
1.99105e-08
3.7039e-10
1.97597e-08
3.63192e-10
1.96114e-08
3.56229e-10
1.94657e-08
3.49492e-10
1.93225e-08
3.42971e-10
1.91817e-08
3.36659e-10
1.90432e-08
3.30546e-10
1.89069e-08
3.24626e-10
1.87729e-08
3.18892e-10
1.8641e-08
3.13336e-10
1.85112e-08
3.07953e-10
1.83834e-08
3.02737e-10
1.82577e-08
2.97683e-10
1.81338e-08
2.92786e-10
1.80118e-08
2.88042e-10
1.78917e-08
2.83446e-10
1.77733e-08
2.78997e-10
1.76566e-08
2.74689e-10
1.75417e-08
2.70523e-10
1.74283e-08
2.66495e-10
1.73165e-08
2.62606e-10
1.72063e-08
2.58855e-10
1.70975e-08
2.55244e-10
1.69901e-08
2.51778e-10
1.68842e-08
2.48464e-10
1.67795e-08
2.45319e-10
1.66761e-08
2.42378e-10
1.65738e-08
2.39718e-10
1.64726e-08
2.37538e-10
1.63719e-08
2.36404e-10
1.62708e-08
2.38306e-10
1.61671e-08
2.53179e-10
3.06523e-10
3.63927e-08
2.63764e-09
-3.62247e-08
3.65907e-08
2.99045e-09
3.67825e-08
3.21945e-09
3.69556e-08
3.35736e-09
3.71023e-08
3.42721e-09
3.72156e-08
3.4377e-09
3.72905e-08
3.39595e-09
3.73248e-08
3.31156e-09
3.73186e-08
3.19508e-09
3.7274e-08
3.05673e-09
3.71943e-08
2.9059e-09
3.70838e-08
2.75073e-09
3.69469e-08
2.59773e-09
3.67883e-08
2.45163e-09
3.66119e-08
2.3154e-09
3.64212e-08
2.19056e-09
3.62193e-08
2.07743e-09
3.60084e-08
1.97557e-09
3.57903e-08
1.88405e-09
3.55665e-08
1.8017e-09
3.5338e-08
1.7273e-09
3.51057e-08
1.65971e-09
3.48703e-08
1.59791e-09
3.46324e-08
1.54101e-09
3.43924e-08
1.48829e-09
3.41508e-08
1.43915e-09
3.39079e-08
1.39312e-09
3.36641e-08
1.34982e-09
3.34197e-08
1.30893e-09
3.31751e-08
1.27021e-09
3.29306e-08
1.23345e-09
3.26863e-08
1.19848e-09
3.24426e-08
1.16515e-09
3.21996e-08
1.13335e-09
3.19576e-08
1.10295e-09
3.17168e-08
1.07387e-09
3.14774e-08
1.04601e-09
3.12394e-08
1.0193e-09
3.10031e-08
9.93672e-10
3.07686e-08
9.69057e-10
3.0536e-08
9.45399e-10
3.03053e-08
9.22643e-10
3.00768e-08
9.00742e-10
2.98504e-08
8.79649e-10
2.96263e-08
8.59323e-10
2.94044e-08
8.39725e-10
2.91849e-08
8.2082e-10
2.89678e-08
8.02573e-10
2.8753e-08
7.84955e-10
2.85408e-08
7.67935e-10
2.83309e-08
7.51486e-10
2.81236e-08
7.35584e-10
2.79187e-08
7.20204e-10
2.77163e-08
7.05324e-10
2.75164e-08
6.90923e-10
2.7319e-08
6.7698e-10
2.71241e-08
6.63476e-10
2.69316e-08
6.50394e-10
2.67415e-08
6.37717e-10
2.65539e-08
6.25429e-10
2.63687e-08
6.13514e-10
2.61859e-08
6.01959e-10
2.60055e-08
5.90748e-10
2.58273e-08
5.7987e-10
2.56515e-08
5.69312e-10
2.5478e-08
5.59062e-10
2.53067e-08
5.49109e-10
2.51377e-08
5.39442e-10
2.49708e-08
5.30052e-10
2.48061e-08
5.20928e-10
2.46435e-08
5.12061e-10
2.44831e-08
5.03444e-10
2.43247e-08
4.95067e-10
2.41683e-08
4.86923e-10
2.40139e-08
4.79004e-10
2.38615e-08
4.71304e-10
2.3711e-08
4.63817e-10
2.35624e-08
4.56535e-10
2.34157e-08
4.49455e-10
2.32708e-08
4.42569e-10
2.31277e-08
4.35875e-10
2.29864e-08
4.29368e-10
2.28468e-08
4.23043e-10
2.27089e-08
4.16899e-10
2.25727e-08
4.10932e-10
2.24381e-08
4.05141e-10
2.2305e-08
3.99524e-10
2.21735e-08
3.94082e-10
2.20436e-08
3.88816e-10
2.19151e-08
3.8373e-10
2.17881e-08
3.78829e-10
2.16624e-08
3.74125e-10
2.15381e-08
3.69641e-10
2.1415e-08
3.65423e-10
2.12932e-08
3.61573e-10
2.11724e-08
3.58344e-10
2.10523e-08
3.56446e-10
2.09324e-08
3.58207e-10
2.08133e-08
3.72269e-10
4.12043e-10
3.7138e-08
2.49584e-09
-3.69962e-08
3.73152e-08
2.81327e-09
3.74993e-08
3.03534e-09
3.76782e-08
3.17844e-09
3.78456e-08
3.25981e-09
3.79955e-08
3.28785e-09
3.81227e-08
3.26876e-09
3.82239e-08
3.21038e-09
3.82974e-08
3.12157e-09
3.8343e-08
3.01107e-09
3.83619e-08
2.88702e-09
3.83561e-08
2.75659e-09
3.83281e-08
2.62572e-09
3.82808e-08
2.49888e-09
3.82171e-08
2.37911e-09
3.81395e-08
2.26813e-09
3.80503e-08
2.16666e-09
3.79512e-08
2.07463e-09
3.78438e-08
1.99146e-09
3.77292e-08
1.91633e-09
3.76082e-08
1.84828e-09
3.74816e-08
1.78636e-09
3.73498e-08
1.72969e-09
3.72133e-08
1.6775e-09
3.70724e-08
1.62913e-09
3.69276e-08
1.58404e-09
3.67789e-08
1.54178e-09
3.66267e-08
1.50198e-09
3.64713e-08
1.46434e-09
3.63129e-08
1.42863e-09
3.61517e-08
1.39465e-09
3.5988e-08
1.36223e-09
3.58219e-08
1.33124e-09
3.56537e-08
1.30155e-09
3.54836e-08
1.27307e-09
3.53117e-08
1.2457e-09
3.51384e-08
1.21937e-09
3.49637e-08
1.194e-09
3.47878e-08
1.16954e-09
3.46109e-08
1.14593e-09
3.44332e-08
1.12312e-09
3.42548e-08
1.10105e-09
3.40758e-08
1.0797e-09
3.38965e-08
1.05902e-09
3.37168e-08
1.03898e-09
3.3537e-08
1.01954e-09
3.33571e-08
1.00068e-09
3.31773e-08
9.8237e-10
3.29977e-08
9.64585e-10
3.28183e-08
9.47303e-10
3.26393e-08
9.30502e-10
3.24607e-08
9.14163e-10
3.22827e-08
8.98268e-10
3.21052e-08
8.82798e-10
3.19284e-08
8.67739e-10
3.17523e-08
8.53075e-10
3.1577e-08
8.38791e-10
3.14025e-08
8.24875e-10
3.12289e-08
8.11314e-10
3.10562e-08
7.98096e-10
3.08845e-08
7.85209e-10
3.07139e-08
7.72642e-10
3.05442e-08
7.60387e-10
3.03757e-08
7.48432e-10
3.02082e-08
7.36768e-10
3.00419e-08
7.25388e-10
2.98767e-08
7.14281e-10
2.97127e-08
7.03441e-10
2.95499e-08
6.9286e-10
2.93883e-08
6.8253e-10
2.92279e-08
6.72445e-10
2.90688e-08
6.62597e-10
2.89108e-08
6.52982e-10
2.87542e-08
6.43592e-10
2.85988e-08
6.34423e-10
2.84446e-08
6.2547e-10
2.82917e-08
6.16726e-10
2.814e-08
6.08189e-10
2.79896e-08
5.99854e-10
2.78405e-08
5.91717e-10
2.76926e-08
5.83775e-10
2.75459e-08
5.76025e-10
2.74005e-08
5.68465e-10
2.72563e-08
5.61094e-10
2.71133e-08
5.53909e-10
2.69716e-08
5.46912e-10
2.6831e-08
5.40102e-10
2.66916e-08
5.33481e-10
2.65533e-08
5.27052e-10
2.64162e-08
5.20822e-10
2.62803e-08
5.14799e-10
2.61454e-08
5.08999e-10
2.60116e-08
5.0345e-10
2.58788e-08
4.98208e-10
2.5747e-08
4.93391e-10
2.56161e-08
4.89286e-10
2.54859e-08
4.86646e-10
2.53564e-08
4.87653e-10
2.52303e-08
4.98409e-10
5.21368e-10
3.78887e-08
2.37435e-09
-3.77672e-08
3.80445e-08
2.65751e-09
3.82124e-08
2.86744e-09
3.83807e-08
3.01005e-09
3.85436e-08
3.09696e-09
3.86959e-08
3.13555e-09
3.88333e-08
3.13137e-09
3.89527e-08
3.09101e-09
3.90522e-08
3.022e-09
3.91313e-08
2.93197e-09
3.91903e-08
2.82804e-09
3.92303e-08
2.7166e-09
3.9253e-08
2.60302e-09
3.92604e-08
2.49148e-09
3.92546e-08
2.38494e-09
3.92374e-08
2.28527e-09
3.92107e-08
2.19338e-09
3.91758e-08
2.10949e-09
3.9134e-08
2.03331e-09
3.90861e-08
1.96427e-09
3.90327e-08
1.90163e-09
3.89744e-08
1.84463e-09
3.89116e-08
1.79251e-09
3.88445e-08
1.74461e-09
3.87733e-08
1.70032e-09
3.86982e-08
1.65914e-09
3.86194e-08
1.62064e-09
3.85368e-08
1.58449e-09
3.84508e-08
1.55038e-09
3.83613e-08
1.51809e-09
3.82686e-08
1.48741e-09
3.81726e-08
1.45818e-09
3.80736e-08
1.43026e-09
3.79716e-08
1.40352e-09
3.78668e-08
1.37788e-09
3.77593e-08
1.35324e-09
3.76491e-08
1.32951e-09
3.75365e-08
1.30663e-09
3.74215e-08
1.28455e-09
3.73042e-08
1.26319e-09
3.71848e-08
1.24252e-09
3.70634e-08
1.22249e-09
3.694e-08
1.20306e-09
3.68149e-08
1.1842e-09
3.6688e-08
1.16586e-09
3.65595e-08
1.14803e-09
3.64295e-08
1.13067e-09
3.62981e-08
1.11376e-09
3.61654e-08
1.09728e-09
3.60315e-08
1.08121e-09
3.58965e-08
1.06553e-09
3.57604e-08
1.05021e-09
3.56234e-08
1.03526e-09
3.54856e-08
1.02065e-09
3.5347e-08
1.00636e-09
3.52076e-08
9.92392e-10
3.50677e-08
9.78728e-10
3.49272e-08
9.65358e-10
3.47863e-08
9.52273e-10
3.46449e-08
9.39462e-10
3.45032e-08
9.26917e-10
3.43612e-08
9.1463e-10
3.4219e-08
9.02593e-10
3.40766e-08
8.908e-10
3.39342e-08
8.79243e-10
3.37916e-08
8.67916e-10
3.36491e-08
8.56814e-10
3.35066e-08
8.4593e-10
3.33642e-08
8.35259e-10
3.32219e-08
8.24796e-10
3.30799e-08
8.14537e-10
3.2938e-08
8.04477e-10
3.27963e-08
7.94613e-10
3.2655e-08
7.8494e-10
3.2514e-08
7.75454e-10
3.23733e-08
7.66154e-10
3.2233e-08
7.57035e-10
3.20931e-08
7.48095e-10
3.19536e-08
7.39332e-10
3.18146e-08
7.30745e-10
3.1676e-08
7.22331e-10
3.15379e-08
7.14091e-10
3.14004e-08
7.06022e-10
3.12633e-08
6.98127e-10
3.11269e-08
6.90405e-10
3.09909e-08
6.82858e-10
3.08555e-08
6.75488e-10
3.07207e-08
6.683e-10
3.05865e-08
6.613e-10
3.04528e-08
6.54495e-10
3.03197e-08
6.47898e-10
3.01871e-08
6.41528e-10
3.00552e-08
6.35418e-10
2.99238e-08
6.29631e-10
2.97929e-08
6.24291e-10
2.96625e-08
6.19683e-10
2.95326e-08
6.16489e-10
2.94039e-08
6.16376e-10
2.92798e-08
6.22539e-10
6.28795e-10
3.86464e-08
2.26804e-09
-3.85401e-08
3.87838e-08
2.52012e-09
3.89354e-08
2.7158e-09
3.90905e-08
2.85492e-09
3.92431e-08
2.94441e-09
3.93885e-08
2.99015e-09
3.95229e-08
2.99698e-09
3.96435e-08
2.97045e-09
3.97485e-08
2.91697e-09
3.98373e-08
2.84317e-09
3.991e-08
2.75535e-09
3.99674e-08
2.65921e-09
4.00108e-08
2.55961e-09
4.00418e-08
2.46047e-09
4.00621e-08
2.36465e-09
4.00733e-08
2.27407e-09
4.00768e-08
2.18981e-09
4.0074e-08
2.1123e-09
4.00658e-08
2.0415e-09
4.0053e-08
1.97705e-09
4.00363e-08
1.91842e-09
4.00159e-08
1.865e-09
3.99922e-08
1.81616e-09
3.99655e-08
1.77134e-09
3.99358e-08
1.72999e-09
3.99033e-08
1.69166e-09
3.9868e-08
1.65596e-09
3.98299e-08
1.62256e-09
3.97891e-08
1.59118e-09
3.97456e-08
1.56158e-09
3.96995e-08
1.53357e-09
3.96507e-08
1.50698e-09
3.95993e-08
1.48167e-09
3.95453e-08
1.45752e-09
3.94887e-08
1.43443e-09
3.94297e-08
1.41229e-09
3.93681e-08
1.39104e-09
3.93042e-08
1.3706e-09
3.92378e-08
1.3509e-09
3.91691e-08
1.33189e-09
3.90981e-08
1.31351e-09
3.90249e-08
1.29573e-09
3.89495e-08
1.27849e-09
3.88719e-08
1.26177e-09
3.87922e-08
1.24552e-09
3.87105e-08
1.22972e-09
3.86269e-08
1.21434e-09
3.85413e-08
1.19935e-09
3.84538e-08
1.18474e-09
3.83645e-08
1.17047e-09
3.82735e-08
1.15653e-09
3.81808e-08
1.14291e-09
3.80865e-08
1.12959e-09
3.79906e-08
1.11654e-09
3.78932e-08
1.10377e-09
3.77943e-08
1.09126e-09
3.76941e-08
1.07899e-09
3.75925e-08
1.06696e-09
3.74896e-08
1.05516e-09
3.73855e-08
1.04358e-09
3.72802e-08
1.0322e-09
3.71738e-08
1.02103e-09
3.70663e-08
1.01006e-09
3.69578e-08
9.99274e-10
3.68484e-08
9.88674e-10
3.67381e-08
9.78254e-10
3.66269e-08
9.68008e-10
3.65149e-08
9.57931e-10
3.64021e-08
9.48019e-10
3.62886e-08
9.38269e-10
3.61745e-08
9.28677e-10
3.60597e-08
9.1924e-10
3.59444e-08
9.09954e-10
3.58285e-08
9.00818e-10
3.57121e-08
8.9183e-10
3.55953e-08
8.82986e-10
3.54781e-08
8.74286e-10
3.53604e-08
8.65729e-10
3.52425e-08
8.57313e-10
3.51242e-08
8.49038e-10
3.50056e-08
8.40905e-10
3.48868e-08
8.32913e-10
3.47677e-08
8.25065e-10
3.46485e-08
8.1736e-10
3.45291e-08
8.09803e-10
3.44095e-08
8.02396e-10
3.42899e-08
7.95144e-10
3.41701e-08
7.88053e-10
3.40503e-08
7.8113e-10
3.39304e-08
7.74386e-10
3.38105e-08
7.67836e-10
3.36905e-08
7.61502e-10
3.35705e-08
7.55419e-10
3.34505e-08
7.49652e-10
3.33305e-08
7.4432e-10
3.32105e-08
7.39672e-10
3.30907e-08
7.36229e-10
3.29722e-08
7.34954e-10
3.28583e-08
7.36401e-10
7.28659e-10
3.94116e-08
2.17327e-09
-3.93168e-08
3.95337e-08
2.39796e-09
3.96707e-08
2.57882e-09
3.9813e-08
2.71262e-09
3.99547e-08
2.80274e-09
4.00913e-08
2.8535e-09
4.02194e-08
2.86894e-09
4.03361e-08
2.85368e-09
4.04399e-08
2.81316e-09
4.05301e-08
2.75307e-09
4.06064e-08
2.67896e-09
4.06698e-08
2.59591e-09
4.0721e-08
2.50834e-09
4.07616e-08
2.41988e-09
4.0793e-08
2.33328e-09
4.08166e-08
2.25048e-09
4.08337e-08
2.17267e-09
4.08456e-08
2.10047e-09
4.08531e-08
2.03402e-09
4.08569e-08
1.97316e-09
4.08578e-08
1.91754e-09
4.08561e-08
1.86669e-09
4.08522e-08
1.82014e-09
4.08461e-08
1.77738e-09
4.08382e-08
1.73796e-09
4.08283e-08
1.70148e-09
4.08167e-08
1.66757e-09
4.08034e-08
1.63594e-09
4.07882e-08
1.60632e-09
4.07713e-08
1.57848e-09
4.07526e-08
1.55224e-09
4.07322e-08
1.52743e-09
4.071e-08
1.50391e-09
4.06859e-08
1.48156e-09
4.06601e-08
1.46027e-09
4.06324e-08
1.43995e-09
4.06029e-08
1.42053e-09
4.05716e-08
1.40191e-09
4.05385e-08
1.38405e-09
4.05035e-08
1.36687e-09
4.04667e-08
1.35033e-09
4.0428e-08
1.33438e-09
4.03876e-08
1.31897e-09
4.03453e-08
1.30407e-09
4.03012e-08
1.28963e-09
4.02552e-08
1.27564e-09
4.02075e-08
1.26204e-09
4.01581e-08
1.24883e-09
4.01068e-08
1.23598e-09
4.00538e-08
1.22345e-09
3.99991e-08
1.21124e-09
3.99427e-08
1.19932e-09
3.98846e-08
1.18767e-09
3.98249e-08
1.17629e-09
3.97635e-08
1.16515e-09
3.97005e-08
1.15424e-09
3.9636e-08
1.14356e-09
3.95698e-08
1.13308e-09
3.95022e-08
1.1228e-09
3.94331e-08
1.11271e-09
3.93625e-08
1.1028e-09
3.92904e-08
1.09306e-09
3.9217e-08
1.08349e-09
3.91422e-08
1.07407e-09
3.90661e-08
1.06481e-09
3.89886e-08
1.05569e-09
3.89099e-08
1.04672e-09
3.883e-08
1.03788e-09
3.87488e-08
1.02917e-09
3.86665e-08
1.0206e-09
3.8583e-08
1.01214e-09
3.84985e-08
1.00381e-09
3.84128e-08
9.95598e-10
3.83261e-08
9.87502e-10
3.82384e-08
9.7952e-10
3.81498e-08
9.71652e-10
3.80602e-08
9.63895e-10
3.79696e-08
9.5625e-10
3.78782e-08
9.48715e-10
3.7786e-08
9.41291e-10
3.76929e-08
9.33978e-10
3.7599e-08
9.26779e-10
3.75044e-08
9.19694e-10
3.74091e-08
9.12726e-10
3.7313e-08
9.05879e-10
3.72162e-08
8.99157e-10
3.71188e-08
8.92566e-10
3.70207e-08
8.86112e-10
3.69221e-08
8.79806e-10
3.68228e-08
8.73658e-10
3.67229e-08
8.67687e-10
3.66225e-08
8.61914e-10
3.65216e-08
8.56376e-10
3.64201e-08
8.51133e-10
3.63181e-08
8.46288e-10
3.62158e-08
8.4203e-10
3.61133e-08
8.38666e-10
3.60118e-08
8.36453e-10
3.59143e-08
8.33936e-10
8.16431e-10
4.01847e-08
2.0875e-09
-4.0099e-08
4.02944e-08
2.28834e-09
4.04185e-08
2.45471e-09
4.0549e-08
2.58207e-09
4.06803e-08
2.67142e-09
4.08082e-08
2.72559e-09
4.09294e-08
2.74782e-09
4.10411e-08
2.74194e-09
4.11418e-08
2.71245e-09
4.12306e-08
2.66427e-09
4.13074e-08
2.6022e-09
4.13725e-08
2.53078e-09
4.14268e-08
2.45399e-09
4.14715e-08
2.37517e-09
4.15079e-08
2.29695e-09
4.15371e-08
2.22124e-09
4.15605e-08
2.14932e-09
4.1579e-08
2.08191e-09
4.15937e-08
2.01935e-09
4.16052e-08
1.96162e-09
4.16142e-08
1.90853e-09
4.16211e-08
1.85977e-09
4.16263e-08
1.81496e-09
4.163e-08
1.7737e-09
4.16323e-08
1.73561e-09
4.16335e-08
1.70034e-09
4.16335e-08
1.66758e-09
4.16324e-08
1.63704e-09
4.16302e-08
1.60848e-09
4.1627e-08
1.5817e-09
4.16227e-08
1.55651e-09
4.16174e-08
1.53276e-09
4.1611e-08
1.51031e-09
4.16035e-08
1.48905e-09
4.15949e-08
1.46887e-09
4.15852e-08
1.44968e-09
4.15743e-08
1.4314e-09
4.15623e-08
1.41395e-09
4.1549e-08
1.39727e-09
4.15346e-08
1.38129e-09
4.1519e-08
1.36597e-09
4.15021e-08
1.35126e-09
4.14839e-08
1.33711e-09
4.14645e-08
1.32348e-09
4.14438e-08
1.31034e-09
4.14218e-08
1.29764e-09
4.13985e-08
1.28537e-09
4.13739e-08
1.27348e-09
4.13479e-08
1.26196e-09
4.13205e-08
1.25079e-09
4.12918e-08
1.23993e-09
4.12618e-08
1.22937e-09
4.12304e-08
1.21909e-09
4.11976e-08
1.20908e-09
4.11634e-08
1.19931e-09
4.11279e-08
1.18977e-09
4.1091e-08
1.18046e-09
4.10527e-08
1.17135e-09
4.10131e-08
1.16244e-09
4.09721e-08
1.15371e-09
4.09297e-08
1.14515e-09
4.0886e-08
1.13677e-09
4.0841e-08
1.12853e-09
4.07946e-08
1.12045e-09
4.07469e-08
1.11251e-09
4.06979e-08
1.10471e-09
4.06476e-08
1.09704e-09
4.0596e-08
1.08949e-09
4.05431e-08
1.08206e-09
4.04889e-08
1.07474e-09
4.04335e-08
1.06754e-09
4.03769e-08
1.06044e-09
4.03191e-08
1.05344e-09
4.026e-08
1.04655e-09
4.01998e-08
1.03975e-09
4.01384e-08
1.03305e-09
4.00758e-08
1.02645e-09
4.00121e-08
1.01994e-09
3.99473e-08
1.01352e-09
3.98814e-08
1.00719e-09
3.98144e-08
1.00096e-09
3.97464e-08
9.94823e-10
3.96773e-08
9.88783e-10
3.96072e-08
9.82843e-10
3.95361e-08
9.77006e-10
3.94639e-08
9.71278e-10
3.93908e-08
9.65664e-10
3.93168e-08
9.60172e-10
3.92418e-08
9.54812e-10
3.91658e-08
9.49596e-10
3.9089e-08
9.44543e-10
3.90112e-08
9.39674e-10
3.89326e-08
9.35024e-10
3.88531e-08
9.30644e-10
3.87727e-08
9.26614e-10
3.86917e-08
9.23048e-10
3.86104e-08
9.20038e-10
3.85295e-08
9.17254e-10
3.84515e-08
9.12004e-10
8.89369e-10
4.09665e-08
2.00896e-09
-4.0888e-08
4.10658e-08
2.18913e-09
4.11787e-08
2.34181e-09
4.12986e-08
2.46215e-09
4.14203e-08
2.54966e-09
4.154e-08
2.60596e-09
4.16543e-08
2.6335e-09
4.17608e-08
2.63539e-09
4.18579e-08
2.61537e-09
4.19446e-08
2.57758e-09
4.20206e-08
2.52622e-09
4.20861e-08
2.46526e-09
4.21418e-08
2.39829e-09
4.21886e-08
2.32837e-09
4.22276e-08
2.25796e-09
4.22599e-08
2.18894e-09
4.22866e-08
2.12261e-09
4.23087e-08
2.05981e-09
4.23271e-08
2.00097e-09
4.23425e-08
1.94625e-09
4.23554e-08
1.89556e-09
4.23665e-08
1.84873e-09
4.23759e-08
1.80549e-09
4.23841e-08
1.76551e-09
4.23912e-08
1.7285e-09
4.23974e-08
1.69416e-09
4.24028e-08
1.66222e-09
4.24074e-08
1.63242e-09
4.24113e-08
1.60456e-09
4.24146e-08
1.57844e-09
4.24172e-08
1.55389e-09
4.24192e-08
1.53076e-09
4.24205e-08
1.50894e-09
4.24213e-08
1.4883e-09
4.24214e-08
1.46875e-09
4.24209e-08
1.45019e-09
4.24198e-08
1.43256e-09
4.24179e-08
1.41577e-09
4.24154e-08
1.39977e-09
4.24122e-08
1.38449e-09
4.24083e-08
1.36989e-09
4.24037e-08
1.35591e-09
4.23983e-08
1.34251e-09
4.23921e-08
1.32965e-09
4.23851e-08
1.3173e-09
4.23774e-08
1.30541e-09
4.23688e-08
1.29397e-09
4.23593e-08
1.28293e-09
4.2349e-08
1.27228e-09
4.23378e-08
1.26199e-09
4.23257e-08
1.25204e-09
4.23126e-08
1.24241e-09
4.22987e-08
1.23307e-09
4.22837e-08
1.22401e-09
4.22678e-08
1.21521e-09
4.22509e-08
1.20667e-09
4.2233e-08
1.19835e-09
4.22141e-08
1.19026e-09
4.21942e-08
1.18237e-09
4.21732e-08
1.17468e-09
4.21512e-08
1.16717e-09
4.21281e-08
1.15984e-09
4.2104e-08
1.15267e-09
4.20788e-08
1.14566e-09
4.20525e-08
1.13881e-09
4.20251e-08
1.13209e-09
4.19967e-08
1.12551e-09
4.19671e-08
1.11905e-09
4.19364e-08
1.11272e-09
4.19047e-08
1.10651e-09
4.18718e-08
1.10041e-09
4.18378e-08
1.09441e-09
4.18027e-08
1.08852e-09
4.17666e-08
1.08273e-09
4.17293e-08
1.07704e-09
4.16909e-08
1.07145e-09
4.16514e-08
1.06594e-09
4.16108e-08
1.06053e-09
4.15691e-08
1.05521e-09
4.15263e-08
1.04997e-09
4.14825e-08
1.04483e-09
4.14375e-08
1.03978e-09
4.13915e-08
1.03482e-09
4.13444e-08
1.02995e-09
4.12962e-08
1.02519e-09
4.12469e-08
1.02052e-09
4.11966e-08
1.01597e-09
4.11453e-08
1.01153e-09
4.10929e-08
1.00723e-09
4.10394e-08
1.00306e-09
4.09849e-08
9.99048e-10
4.09293e-08
9.95216e-10
4.08728e-08
9.91593e-10
4.08152e-08
9.88219e-10
4.07567e-08
9.85145e-10
4.06973e-08
9.82413e-10
4.06374e-08
9.79928e-10
4.05777e-08
9.76962e-10
4.05194e-08
9.70308e-10
9.46655e-10
4.17576e-08
1.93636e-09
-4.1685e-08
4.18481e-08
2.0986e-09
4.19513e-08
2.23863e-09
4.20617e-08
2.35178e-09
4.21746e-08
2.43669e-09
4.22865e-08
2.49407e-09
4.23944e-08
2.52567e-09
4.24958e-08
2.53396e-09
4.25892e-08
2.52201e-09
4.26734e-08
2.4933e-09
4.27482e-08
2.45144e-09
4.28135e-08
2.39992e-09
4.28699e-08
2.34193e-09
4.2918e-08
2.28026e-09
4.29588e-08
2.2172e-09
4.29932e-08
2.15455e-09
4.30221e-08
2.09364e-09
4.30466e-08
2.03535e-09
4.30674e-08
1.98022e-09
4.30851e-08
1.92849e-09
4.31004e-08
1.88023e-09
4.31138e-08
1.83535e-09
4.31257e-08
1.79366e-09
4.31362e-08
1.75496e-09
4.31457e-08
1.71899e-09
4.31544e-08
1.68551e-09
4.31623e-08
1.65429e-09
4.31696e-08
1.62512e-09
4.31764e-08
1.59781e-09
4.31826e-08
1.57218e-09
4.31884e-08
1.54808e-09
4.31938e-08
1.52537e-09
4.31988e-08
1.50394e-09
4.32034e-08
1.48369e-09
4.32077e-08
1.46451e-09
4.32116e-08
1.44632e-09
4.32151e-08
1.42905e-09
4.32182e-08
1.41263e-09
4.3221e-08
1.397e-09
4.32234e-08
1.3821e-09
4.32254e-08
1.36788e-09
4.3227e-08
1.35429e-09
4.32282e-08
1.3413e-09
4.3229e-08
1.32886e-09
4.32294e-08
1.31694e-09
4.32293e-08
1.30551e-09
4.32287e-08
1.29453e-09
4.32276e-08
1.28398e-09
4.32261e-08
1.27382e-09
4.32241e-08
1.26405e-09
4.32215e-08
1.25463e-09
4.32183e-08
1.24554e-09
4.32146e-08
1.23677e-09
4.32104e-08
1.22829e-09
4.32055e-08
1.2201e-09
4.32e-08
1.21217e-09
4.31938e-08
1.20449e-09
4.3187e-08
1.19704e-09
4.31796e-08
1.18982e-09
4.31714e-08
1.18282e-09
4.31626e-08
1.17601e-09
4.3153e-08
1.1694e-09
4.31428e-08
1.16296e-09
4.31317e-08
1.1567e-09
4.31199e-08
1.1506e-09
4.31073e-08
1.14466e-09
4.3094e-08
1.13887e-09
4.30798e-08
1.13322e-09
4.30648e-08
1.1277e-09
4.3049e-08
1.12232e-09
4.30324e-08
1.11705e-09
4.30149e-08
1.11191e-09
4.29965e-08
1.10688e-09
4.29773e-08
1.10197e-09
4.29572e-08
1.09715e-09
4.29362e-08
1.09245e-09
4.29143e-08
1.08784e-09
4.28915e-08
1.08334e-09
4.28677e-08
1.07893e-09
4.28431e-08
1.07462e-09
4.28175e-08
1.07041e-09
4.2791e-08
1.06629e-09
4.27635e-08
1.06228e-09
4.27351e-08
1.05836e-09
4.27058e-08
1.05455e-09
4.26754e-08
1.05085e-09
4.26441e-08
1.04727e-09
4.26119e-08
1.04381e-09
4.25786e-08
1.04048e-09
4.25444e-08
1.0373e-09
4.25091e-08
1.03428e-09
4.24729e-08
1.03144e-09
4.24357e-08
1.0288e-09
4.23975e-08
1.02641e-09
4.23584e-08
1.02427e-09
4.23184e-08
1.02236e-09
4.22779e-08
1.02047e-09
4.22372e-08
1.01765e-09
4.21968e-08
1.01074e-09
9.89108e-10
4.25585e-08
1.86874e-09
-4.24909e-08
4.26417e-08
2.01541e-09
4.27364e-08
2.14389e-09
4.28383e-08
2.24994e-09
4.29432e-08
2.33175e-09
4.30479e-08
2.38937e-09
4.31496e-08
2.42398e-09
4.32461e-08
2.43748e-09
4.33357e-08
2.43237e-09
4.34175e-08
2.41156e-09
4.34908e-08
2.37812e-09
4.35556e-08
2.33509e-09
4.36123e-08
2.28529e-09
4.36613e-08
2.23125e-09
4.37034e-08
2.1751e-09
4.37394e-08
2.11854e-09
4.37702e-08
2.06287e-09
4.37965e-08
2.00901e-09
4.38192e-08
1.95757e-09
4.38388e-08
1.90889e-09
4.38559e-08
1.86311e-09
4.3871e-08
1.82025e-09
4.38844e-08
1.7802e-09