/*--------------------------------*- C++ -*----------------------------------*\
| =========                 |                                                 |
| \\      /  F ield         | OpenFOAM: The Open Source CFD Toolbox           |
|  \\    /   O peration     | Version:  2.3.0                                 |
|   \\  /    A nd           | Web:      www.OpenFOAM.org                      |
|    \\/     M anipulation  |                                                 |
\*---------------------------------------------------------------------------*/
FoamFile
{
    version     2.0;
    format      ascii;
    class       surfaceScalarField;
    location    "0.85";
    object      phi_0;
}
// * * * * * * * * * * * * * * * * * * * * * * * * * * * * * * * * * * * * * //

dimensions      [0 3 -1 0 0 0 0];

internalField   nonuniform List<scalar> 
17305
(
2.83719e-08
2.87929e-09
-3.12512e-08
2.55081e-08
2.86379e-09
2.28205e-08
2.68754e-09
2.03431e-08
2.47748e-09
1.80917e-08
2.25136e-09
1.60771e-08
2.01462e-09
1.43016e-08
1.77545e-09
1.276e-08
1.5416e-09
1.14404e-08
1.31963e-09
1.03255e-08
1.11488e-09
9.39424e-09
9.31277e-10
8.62314e-09
7.71109e-10
7.98812e-09
6.35015e-10
7.46595e-09
5.22169e-10
7.03533e-09
4.30624e-10
6.6776e-09
3.57727e-10
6.37709e-09
3.00508e-10
6.12108e-09
2.56016e-10
5.89953e-09
2.21543e-10
5.70477e-09
1.94761e-10
5.53101e-09
1.7376e-10
5.37397e-09
1.57042e-10
5.2305e-09
1.43473e-10
5.09828e-09
1.32216e-10
4.97561e-09
1.22672e-10
4.86119e-09
1.14418e-10
4.75403e-09
1.07159e-10
4.65334e-09
1.0069e-10
4.55847e-09
9.48678e-11
4.46889e-09
8.9589e-11
4.38411e-09
8.47779e-11
4.30373e-09
8.03763e-11
4.22739e-09
7.63373e-11
4.15477e-09
7.26222e-11
4.08557e-09
6.91978e-11
4.01954e-09
6.60349e-11
3.95643e-09
6.31079e-11
3.89604e-09
6.0394e-11
3.83816e-09
5.78728e-11
3.78264e-09
5.55262e-11
3.7293e-09
5.33379e-11
3.67801e-09
5.12935e-11
3.62863e-09
4.93802e-11
3.58104e-09
4.75863e-11
3.53514e-09
4.59016e-11
3.49082e-09
4.4317e-11
3.448e-09
4.28243e-11
3.40658e-09
4.14162e-11
3.3665e-09
4.00859e-11
3.32767e-09
3.88276e-11
3.29003e-09
3.7636e-11
3.25353e-09
3.65061e-11
3.21809e-09
3.54336e-11
3.18368e-09
3.44144e-11
3.15023e-09
3.34451e-11
3.11771e-09
3.25221e-11
3.08607e-09
3.16425e-11
3.05526e-09
3.08036e-11
3.02526e-09
3.00027e-11
2.99602e-09
2.92375e-11
2.96752e-09
2.8506e-11
2.93971e-09
2.7806e-11
2.91258e-09
2.71358e-11
2.88608e-09
2.64938e-11
2.8602e-09
2.58782e-11
2.83492e-09
2.52877e-11
2.8102e-09
2.47209e-11
2.78602e-09
2.41767e-11
2.76237e-09
2.36538e-11
2.73921e-09
2.31512e-11
2.71655e-09
2.26679e-11
2.69434e-09
2.22031e-11
2.67259e-09
2.17557e-11
2.65126e-09
2.13252e-11
2.63035e-09
2.09107e-11
2.60984e-09
2.05115e-11
2.58971e-09
2.01272e-11
2.56996e-09
1.97571e-11
2.55055e-09
1.94006e-11
2.5315e-09
1.90575e-11
2.51277e-09
1.87272e-11
2.49436e-09
1.84093e-11
2.47626e-09
1.81036e-11
2.45845e-09
1.78098e-11
2.44092e-09
1.75278e-11
2.42366e-09
1.72573e-11
2.40666e-09
1.69983e-11
2.38991e-09
1.67508e-11
2.3734e-09
1.65149e-11
2.35711e-09
1.62909e-11
2.34103e-09
1.60793e-11
2.32515e-09
1.58812e-11
2.30945e-09
1.56984e-11
2.29391e-09
1.55348e-11
2.27851e-09
1.53992e-11
2.2632e-09
1.5313e-11
2.24786e-09
1.53388e-11
2.23223e-09
1.56319e-11
2.21601e-09
1.62235e-11
4.88969e-11
3.34102e-08
3.15069e-09
-3.36816e-08
3.28252e-08
3.44886e-09
3.20081e-08
3.50458e-09
3.10359e-08
3.44972e-09
2.99639e-08
3.32337e-09
2.88376e-08
3.14089e-09
2.7694e-08
2.91909e-09
2.65612e-08
2.67433e-09
2.54603e-08
2.42056e-09
2.44059e-08
2.16929e-09
2.34075e-08
1.92965e-09
2.24705e-08
1.70817e-09
2.15967e-08
1.50881e-09
2.07856e-08
1.33319e-09
2.00352e-08
1.18107e-09
1.9342e-08
1.0509e-09
1.87022e-08
9.40353e-10
1.81114e-08
8.46772e-10
1.75655e-08
7.67494e-10
1.70602e-08
7.0006e-10
1.65916e-08
6.42328e-10
1.61561e-08
5.92498e-10
1.57505e-08
5.49107e-10
1.53717e-08
5.10991e-10
1.50172e-08
4.77228e-10
1.46845e-08
4.47101e-10
1.43716e-08
4.20045e-10
1.40767e-08
3.95614e-10
1.37981e-08
3.73451e-10
1.35344e-08
3.53267e-10
1.32844e-08
3.34825e-10
1.30468e-08
3.17923e-10
1.28208e-08
3.02392e-10
1.26053e-08
2.88086e-10
1.23996e-08
2.74877e-10
1.2203e-08
2.62655e-10
1.20148e-08
2.51322e-10
1.18344e-08
2.40792e-10
1.16613e-08
2.30988e-10
1.1495e-08
2.21843e-10
1.1335e-08
2.13297e-10
1.1181e-08
2.05297e-10
1.10326e-08
1.97794e-10
1.08894e-08
1.90748e-10
1.07512e-08
1.84119e-10
1.06176e-08
1.77873e-10
1.04885e-08
1.71981e-10
1.03635e-08
1.66415e-10
1.02424e-08
1.6115e-10
1.01251e-08
1.56163e-10
1.00113e-08
1.51435e-10
9.90085e-09
1.46946e-10
9.7936e-09
1.42681e-10
9.68939e-09
1.38625e-10
9.58808e-09
1.34762e-10
9.48952e-09
1.31081e-10
9.39359e-09
1.2757e-10
9.30018e-09
1.24218e-10
9.20916e-09
1.21015e-10
9.12045e-09
1.17953e-10
9.03393e-09
1.15023e-10
8.94952e-09
1.12217e-10
8.86713e-09
1.09528e-10
8.78667e-09
1.0695e-10
8.70807e-09
1.04476e-10
8.63126e-09
1.02101e-10
8.55616e-09
9.98201e-11
8.48271e-09
9.76278e-11
8.41084e-09
9.55196e-11
8.3405e-09
9.34915e-11
8.27163e-09
9.15395e-11
8.20418e-09
8.96601e-11
8.13808e-09
8.78499e-11
8.0733e-09
8.61056e-11
8.00979e-09
8.44245e-11
7.9475e-09
8.28039e-11
7.88638e-09
8.12413e-11
7.8264e-09
7.97344e-11
7.76752e-09
7.82811e-11
7.7097e-09
7.68795e-11
7.6529e-09
7.55279e-11
7.59708e-09
7.42248e-11
7.54222e-09
7.29687e-11
7.48827e-09
7.17586e-11
7.43521e-09
7.05935e-11
7.38299e-09
6.94724e-11
7.33159e-09
6.83951e-11
7.28098e-09
6.73612e-11
7.23113e-09
6.63708e-11
7.18199e-09
6.54246e-11
7.13355e-09
6.45241e-11
7.08576e-09
6.36723e-11
7.03858e-09
6.2875e-11
6.99197e-09
6.21443e-11
6.94586e-09
6.15078e-11
6.90014e-09
6.10355e-11
6.85456e-09
6.09215e-11
6.8085e-09
6.16874e-11
6.75651e-09
6.82188e-11
1.2298e-10
3.48057e-08
2.99738e-09
-3.46524e-08
3.48707e-08
3.38392e-09
3.48095e-08
3.56575e-09
3.46278e-08
3.6314e-09
3.43362e-08
3.61495e-09
3.3949e-08
3.52811e-09
3.34835e-08
3.38458e-09
3.29576e-08
3.2003e-09
3.23878e-08
2.99034e-09
3.17891e-08
2.768e-09
3.11742e-08
2.54455e-09
3.05535e-08
2.32882e-09
2.99353e-08
2.12704e-09
2.93256e-08
1.94289e-09
2.87288e-08
1.7779e-09
2.81477e-08
1.63197e-09
2.75842e-08
1.50389e-09
2.70391e-08
1.39183e-09
2.65129e-08
1.2937e-09
2.60055e-08
1.20746e-09
2.55166e-08
1.13121e-09
2.50458e-08
1.06332e-09
2.45925e-08
1.00242e-09
2.41561e-08
9.47403e-10
2.37359e-08
8.97371e-10
2.33314e-08
8.51613e-10
2.29419e-08
8.09566e-10
2.25667e-08
7.70775e-10
2.22053e-08
7.34872e-10
2.1857e-08
7.01554e-10
2.15213e-08
6.70566e-10
2.11975e-08
6.41692e-10
2.08852e-08
6.14741e-10
2.05837e-08
5.89547e-10
2.02926e-08
5.65963e-10
2.00114e-08
5.43856e-10
1.97396e-08
5.23108e-10
1.94768e-08
5.03609e-10
1.92226e-08
4.85263e-10
1.89764e-08
4.67981e-10
1.8738e-08
4.51682e-10
1.8507e-08
4.36293e-10
1.82831e-08
4.21746e-10
1.80658e-08
4.07981e-10
1.7855e-08
3.94942e-10
1.76503e-08
3.82578e-10
1.74515e-08
3.70843e-10
1.72582e-08
3.59693e-10
1.70702e-08
3.4909e-10
1.68874e-08
3.38998e-10
1.67095e-08
3.29384e-10
1.65362e-08
3.20218e-10
1.63674e-08
3.11471e-10
1.62029e-08
3.03117e-10
1.60425e-08
2.95134e-10
1.58861e-08
2.87499e-10
1.57335e-08
2.80191e-10
1.55845e-08
2.73193e-10
1.5439e-08
2.66485e-10
1.52969e-08
2.60052e-10
1.51581e-08
2.5388e-10
1.50224e-08
2.47953e-10
1.48896e-08
2.42259e-10
1.47598e-08
2.36785e-10
1.46327e-08
2.31521e-10
1.45084e-08
2.26456e-10
1.43866e-08
2.21579e-10
1.42674e-08
2.16882e-10
1.41505e-08
2.12355e-10
1.4036e-08
2.07992e-10
1.39238e-08
2.03784e-10
1.38137e-08
1.99724e-10
1.37058e-08
1.95806e-10
1.35999e-08
1.92024e-10
1.34959e-08
1.88372e-10
1.33939e-08
1.84845e-10
1.32937e-08
1.81437e-10
1.31953e-08
1.78144e-10
1.30986e-08
1.74962e-10
1.30036e-08
1.71888e-10
1.29102e-08
1.68917e-10
1.28184e-08
1.66047e-10
1.27281e-08
1.63274e-10
1.26392e-08
1.60596e-10
1.25518e-08
1.58012e-10
1.24658e-08
1.55519e-10
1.2381e-08
1.53116e-10
1.22976e-08
1.50803e-10
1.22154e-08
1.48579e-10
1.21344e-08
1.46446e-10
1.20545e-08
1.44406e-10
1.19757e-08
1.42465e-10
1.18979e-08
1.40634e-10
1.18211e-08
1.38935e-10
1.17452e-08
1.3742e-10
1.167e-08
1.36221e-10
1.15952e-08
1.35714e-10
1.15198e-08
1.37155e-10
1.14385e-08
1.49462e-10
2.09259e-10
3.56408e-08
2.80561e-09
-3.54491e-08
3.58364e-08
3.1884e-09
3.59908e-08
3.41132e-09
3.60918e-08
3.53042e-09
3.61328e-08
3.57395e-09
3.61099e-08
3.55099e-09
3.60236e-08
3.47082e-09
3.58781e-08
3.34583e-09
3.56795e-08
3.18891e-09
3.54354e-08
3.01212e-09
3.51538e-08
2.82621e-09
3.48424e-08
2.64019e-09
3.45085e-08
2.4609e-09
3.41584e-08
2.29298e-09
3.37973e-08
2.139e-09
3.34294e-08
1.99993e-09
3.30578e-08
1.87548e-09
3.2685e-08
1.76464e-09
3.23127e-08
1.66597e-09
3.19423e-08
1.57787e-09
3.15747e-08
1.49882e-09
3.12105e-08
1.42744e-09
3.08504e-08
1.36252e-09
3.04948e-08
1.30307e-09
3.01439e-08
1.24828e-09
2.9798e-08
1.19751e-09
2.94573e-08
1.15023e-09
2.9122e-08
1.10603e-09
2.87923e-08
1.06458e-09
2.84683e-08
1.02561e-09
2.815e-08
9.88876e-10
2.78375e-08
9.54203e-10
2.75308e-08
9.21421e-10
2.72299e-08
8.90386e-10
2.69349e-08
8.60971e-10
2.66457e-08
8.3306e-10
2.63623e-08
8.06552e-10
2.60845e-08
7.81351e-10
2.58124e-08
7.57372e-10
2.55459e-08
7.34536e-10
2.52848e-08
7.12771e-10
2.50291e-08
6.92011e-10
2.47786e-08
6.72195e-10
2.45333e-08
6.53266e-10
2.42931e-08
6.35172e-10
2.40578e-08
6.17864e-10
2.38274e-08
6.01298e-10
2.36016e-08
5.85432e-10
2.33805e-08
5.70227e-10
2.31638e-08
5.55647e-10
2.29516e-08
5.41659e-10
2.27436e-08
5.2823e-10
2.25397e-08
5.15333e-10
2.23399e-08
5.02938e-10
2.2144e-08
4.91021e-10
2.19519e-08
4.79558e-10
2.17636e-08
4.68526e-10
2.15789e-08
4.57903e-10
2.13977e-08
4.4767e-10
2.12199e-08
4.37809e-10
2.10455e-08
4.28301e-10
2.08743e-08
4.19131e-10
2.07063e-08
4.10282e-10
2.05414e-08
4.0174e-10
2.03794e-08
3.93491e-10
2.02203e-08
3.85523e-10
2.00641e-08
3.77822e-10
1.99106e-08
3.70377e-10
1.97598e-08
3.63179e-10
1.96115e-08
3.56215e-10
1.94658e-08
3.49477e-10
1.93226e-08
3.42955e-10
1.91818e-08
3.36642e-10
1.90433e-08
3.30528e-10
1.8907e-08
3.24607e-10
1.8773e-08
3.18871e-10
1.86411e-08
3.13315e-10
1.85113e-08
3.0793e-10
1.83836e-08
3.02713e-10
1.82578e-08
2.97657e-10
1.8134e-08
2.92759e-10
1.8012e-08
2.88013e-10
1.78919e-08
2.83416e-10
1.77735e-08
2.78964e-10
1.76569e-08
2.74655e-10
1.75419e-08
2.70487e-10
1.74286e-08
2.66457e-10
1.73168e-08
2.62566e-10
1.72066e-08
2.58813e-10
1.70978e-08
2.552e-10
1.69905e-08
2.51731e-10
1.68845e-08
2.48415e-10
1.67799e-08
2.45268e-10
1.66765e-08
2.42325e-10
1.65743e-08
2.39663e-10
1.6473e-08
2.37481e-10
1.63724e-08
2.36344e-10
1.62713e-08
2.38243e-10
1.61676e-08
2.53109e-10
3.06433e-10
3.63927e-08
2.63764e-09
-3.62247e-08
3.65907e-08
2.99045e-09
3.67825e-08
3.21945e-09
3.69556e-08
3.35736e-09
3.71023e-08
3.42721e-09
3.72156e-08
3.4377e-09
3.72905e-08
3.39595e-09
3.73248e-08
3.31156e-09
3.73186e-08
3.19508e-09
3.7274e-08
3.05673e-09
3.71943e-08
2.9059e-09
3.70838e-08
2.75073e-09
3.69469e-08
2.59773e-09
3.67883e-08
2.45163e-09
3.66119e-08
2.3154e-09
3.64213e-08
2.19056e-09
3.62193e-08
2.07743e-09
3.60084e-08
1.97557e-09
3.57903e-08
1.88405e-09
3.55665e-08
1.80169e-09
3.5338e-08
1.7273e-09
3.51057e-08
1.65971e-09
3.48703e-08
1.59791e-09
3.46324e-08
1.54101e-09
3.43924e-08
1.48828e-09
3.41508e-08
1.43915e-09
3.39079e-08
1.39312e-09
3.36641e-08
1.34982e-09
3.34197e-08
1.30893e-09
3.31751e-08
1.27021e-09
3.29306e-08
1.23345e-09
3.26863e-08
1.19848e-09
3.24426e-08
1.16515e-09
3.21996e-08
1.13335e-09
3.19576e-08
1.10295e-09
3.17168e-08
1.07386e-09
3.14774e-08
1.04601e-09
3.12394e-08
1.0193e-09
3.10031e-08
9.93669e-10
3.07686e-08
9.69054e-10
3.0536e-08
9.45396e-10
3.03054e-08
9.2264e-10
3.00768e-08
9.00738e-10
2.98504e-08
8.79645e-10
2.96263e-08
8.59319e-10
2.94044e-08
8.39721e-10
2.91849e-08
8.20815e-10
2.89678e-08
8.02568e-10
2.87531e-08
7.84949e-10
2.85408e-08
7.67929e-10
2.8331e-08
7.5148e-10
2.81236e-08
7.35578e-10
2.79187e-08
7.20198e-10
2.77164e-08
7.05317e-10
2.75165e-08
6.90915e-10
2.73191e-08
6.76971e-10
2.71241e-08
6.63467e-10
2.69316e-08
6.50385e-10
2.67416e-08
6.37707e-10
2.6554e-08
6.25418e-10
2.63688e-08
6.13503e-10
2.6186e-08
6.01946e-10
2.60055e-08
5.90735e-10
2.58274e-08
5.79856e-10
2.56516e-08
5.69297e-10
2.54781e-08
5.59046e-10
2.53068e-08
5.49092e-10
2.51377e-08
5.39424e-10
2.49709e-08
5.30033e-10
2.48062e-08
5.20908e-10
2.46436e-08
5.1204e-10
2.44832e-08
5.03421e-10
2.43248e-08
4.95042e-10
2.41684e-08
4.86897e-10
2.4014e-08
4.78976e-10
2.38616e-08
4.71275e-10
2.37112e-08
4.63785e-10
2.35626e-08
4.56502e-10
2.34159e-08
4.49419e-10
2.3271e-08
4.42532e-10
2.31279e-08
4.35836e-10
2.29866e-08
4.29326e-10
2.2847e-08
4.22999e-10
2.27091e-08
4.16852e-10
2.25729e-08
4.10882e-10
2.24383e-08
4.05088e-10
2.23053e-08
3.99468e-10
2.21739e-08
3.94023e-10
2.20439e-08
3.88754e-10
2.19154e-08
3.83664e-10
2.17884e-08
3.7876e-10
2.16628e-08
3.74053e-10
2.15385e-08
3.69565e-10
2.14155e-08
3.65344e-10
2.12936e-08
3.6149e-10
2.11729e-08
3.58257e-10
2.10529e-08
3.56355e-10
2.0933e-08
3.58112e-10
2.08139e-08
3.72165e-10
4.11923e-10
3.7138e-08
2.49584e-09
-3.69962e-08
3.73152e-08
2.81327e-09
3.74993e-08
3.03534e-09
3.76782e-08
3.17844e-09
3.78456e-08
3.25981e-09
3.79955e-08
3.28785e-09
3.81227e-08
3.26876e-09
3.82239e-08
3.21038e-09
3.82974e-08
3.12157e-09
3.8343e-08
3.01107e-09
3.83619e-08
2.88702e-09
3.83561e-08
2.75659e-09
3.83281e-08
2.62572e-09
3.82808e-08
2.49888e-09
3.82171e-08
2.3791e-09
3.81395e-08
2.26813e-09
3.80503e-08
2.16666e-09
3.79512e-08
2.07463e-09
3.78438e-08
1.99146e-09
3.77292e-08
1.91633e-09
3.76082e-08
1.84828e-09
3.74816e-08
1.78636e-09
3.73498e-08
1.72969e-09
3.72133e-08
1.6775e-09
3.70725e-08
1.62913e-09
3.69276e-08
1.58404e-09
3.67789e-08
1.54178e-09
3.66267e-08
1.50197e-09
3.64713e-08
1.46434e-09
3.63129e-08
1.42863e-09
3.61517e-08
1.39465e-09
3.5988e-08
1.36223e-09
3.58219e-08
1.33123e-09
3.56537e-08
1.30155e-09
3.54836e-08
1.27306e-09
3.53117e-08
1.2457e-09
3.51384e-08
1.21936e-09
3.49637e-08
1.194e-09
3.47878e-08
1.16954e-09
3.46109e-08
1.14593e-09
3.44332e-08
1.12311e-09
3.42548e-08
1.10105e-09
3.40758e-08
1.0797e-09
3.38965e-08
1.05902e-09
3.37168e-08
1.03897e-09
3.3537e-08
1.01954e-09
3.33571e-08
1.00067e-09
3.31774e-08
9.82364e-10
3.29977e-08
9.64579e-10
3.28184e-08
9.47296e-10
3.26393e-08
9.30495e-10
3.24608e-08
9.14155e-10
3.22827e-08
8.98259e-10
3.21052e-08
8.82789e-10
3.19284e-08
8.67729e-10
3.17523e-08
8.53064e-10
3.1577e-08
8.3878e-10
3.14025e-08
8.24863e-10
3.12289e-08
8.11301e-10
3.10563e-08
7.98082e-10
3.08846e-08
7.85194e-10
3.07139e-08
7.72627e-10
3.05443e-08
7.6037e-10
3.03757e-08
7.48414e-10
3.02083e-08
7.36749e-10
3.00419e-08
7.25367e-10
2.98768e-08
7.1426e-10
2.97128e-08
7.03418e-10
2.955e-08
6.92835e-10
2.93884e-08
6.82504e-10
2.9228e-08
6.72417e-10
2.90689e-08
6.62567e-10
2.8911e-08
6.5295e-10
2.87543e-08
6.43559e-10
2.85989e-08
6.34387e-10
2.84447e-08
6.25431e-10
2.82918e-08
6.16686e-10
2.81402e-08
6.08146e-10
2.79898e-08
5.99808e-10
2.78407e-08
5.91668e-10
2.76928e-08
5.83723e-10
2.75461e-08
5.7597e-10
2.74007e-08
5.68407e-10
2.72565e-08
5.61031e-10
2.71136e-08
5.53843e-10
2.69718e-08
5.46842e-10
2.68313e-08
5.40028e-10
2.66919e-08
5.33402e-10
2.65537e-08
5.2697e-10
2.64166e-08
5.20735e-10
2.62806e-08
5.14707e-10
2.61458e-08
5.08902e-10
2.6012e-08
5.03348e-10
2.58793e-08
4.981e-10
2.57475e-08
4.93279e-10
2.56166e-08
4.89169e-10
2.54864e-08
4.86523e-10
2.5357e-08
4.87524e-10
2.52309e-08
4.98271e-10
5.21217e-10
3.78887e-08
2.37435e-09
-3.77672e-08
3.80445e-08
2.65751e-09
3.82124e-08
2.86744e-09
3.83807e-08
3.01005e-09
3.85436e-08
3.09696e-09
3.86959e-08
3.13555e-09
3.88333e-08
3.13137e-09
3.89527e-08
3.091e-09
3.90522e-08
3.022e-09
3.91313e-08
2.93196e-09
3.91903e-08
2.82804e-09
3.92303e-08
2.7166e-09
3.9253e-08
2.60302e-09
3.92604e-08
2.49148e-09
3.92546e-08
2.38494e-09
3.92374e-08
2.28527e-09
3.92107e-08
2.19338e-09
3.91758e-08
2.10949e-09
3.9134e-08
2.03331e-09
3.90861e-08
1.96427e-09
3.90327e-08
1.90163e-09
3.89744e-08
1.84463e-09
3.89116e-08
1.79251e-09
3.88445e-08
1.74461e-09
3.87733e-08
1.70032e-09
3.86982e-08
1.65913e-09
3.86194e-08
1.62064e-09
3.85368e-08
1.58449e-09
3.84508e-08
1.55038e-09
3.83613e-08
1.51809e-09
3.82686e-08
1.48741e-09
3.81726e-08
1.45818e-09
3.80736e-08
1.43025e-09
3.79716e-08
1.40352e-09
3.78668e-08
1.37788e-09
3.77593e-08
1.35323e-09
3.76491e-08
1.32951e-09
3.75365e-08
1.30663e-09
3.74215e-08
1.28454e-09
3.73043e-08
1.26319e-09
3.71848e-08
1.24252e-09
3.70634e-08
1.22249e-09
3.694e-08
1.20306e-09
3.68149e-08
1.18419e-09
3.6688e-08
1.16586e-09
3.65595e-08
1.14802e-09
3.64295e-08
1.13066e-09
3.62981e-08
1.11375e-09
3.61654e-08
1.09727e-09
3.60315e-08
1.0812e-09
3.58965e-08
1.06552e-09
3.57604e-08
1.0502e-09
3.56235e-08
1.03525e-09
3.54856e-08
1.02063e-09
3.5347e-08
1.00635e-09
3.52077e-08
9.9238e-10
3.50677e-08
9.78715e-10
3.49273e-08
9.65344e-10
3.47863e-08
9.52257e-10
3.46449e-08
9.39445e-10
3.45032e-08
9.26899e-10
3.43612e-08
9.14611e-10
3.4219e-08
9.02573e-10
3.40767e-08
8.90778e-10
3.39342e-08
8.7922e-10
3.37917e-08
8.67892e-10
3.36492e-08
8.56787e-10
3.35067e-08
8.45902e-10
3.33643e-08
8.35229e-10
3.3222e-08
8.24764e-10
3.30799e-08
8.14503e-10
3.29381e-08
8.04441e-10
3.27964e-08
7.94574e-10
3.26551e-08
7.84898e-10
3.25141e-08
7.7541e-10
3.23734e-08
7.66107e-10
3.22331e-08
7.56985e-10
3.20932e-08
7.48042e-10
3.19537e-08
7.39276e-10
3.18147e-08
7.30685e-10
3.16762e-08
7.22267e-10
3.15381e-08
7.14023e-10
3.14006e-08
7.0595e-10
3.12636e-08
6.9805e-10
3.11271e-08
6.90323e-10
3.09911e-08
6.82771e-10
3.08558e-08
6.75396e-10
3.0721e-08
6.68203e-10
3.05868e-08
6.61197e-10
3.04531e-08
6.54386e-10
3.032e-08
6.47783e-10
3.01875e-08
6.41407e-10
3.00556e-08
6.35291e-10
2.99242e-08
6.29497e-10
2.97933e-08
6.2415e-10
2.96629e-08
6.19535e-10
2.95331e-08
6.16335e-10
2.94044e-08
6.16214e-10
2.92803e-08
6.22368e-10
6.28615e-10
3.86464e-08
2.26804e-09
-3.85401e-08
3.87838e-08
2.52012e-09
3.89354e-08
2.7158e-09
3.90905e-08
2.85492e-09
3.92431e-08
2.94441e-09
3.93885e-08
2.99015e-09
3.95229e-08
2.99698e-09
3.96435e-08
2.97045e-09
3.97485e-08
2.91697e-09
3.98373e-08
2.84317e-09
3.991e-08
2.75535e-09
3.99674e-08
2.65921e-09
4.00108e-08
2.55961e-09
4.00418e-08
2.46047e-09
4.00621e-08
2.36465e-09
4.00733e-08
2.27407e-09
4.00768e-08
2.18981e-09
4.0074e-08
2.1123e-09
4.00658e-08
2.0415e-09
4.0053e-08
1.97705e-09
4.00363e-08
1.91842e-09
4.00159e-08
1.86499e-09
3.99922e-08
1.81616e-09
3.99655e-08
1.77133e-09
3.99358e-08
1.72999e-09
3.99033e-08
1.69166e-09
3.9868e-08
1.65596e-09
3.98299e-08
1.62256e-09
3.97891e-08
1.59118e-09
3.97456e-08
1.56158e-09
3.96995e-08
1.53357e-09
3.96507e-08
1.50698e-09
3.95993e-08
1.48167e-09
3.95453e-08
1.45752e-09
3.94887e-08
1.43442e-09
3.94297e-08
1.41229e-09
3.93681e-08
1.39104e-09
3.93042e-08
1.37059e-09
3.92378e-08
1.3509e-09
3.91691e-08
1.33188e-09
3.90981e-08
1.31351e-09
3.90249e-08
1.29572e-09
3.89495e-08
1.27849e-09
3.88719e-08
1.26176e-09
3.87922e-08
1.24552e-09
3.87105e-08
1.22972e-09
3.86269e-08
1.21433e-09
3.85413e-08
1.19935e-09
3.84538e-08
1.18473e-09
3.83646e-08
1.17046e-09
3.82736e-08
1.15652e-09
3.81809e-08
1.1429e-09
3.80865e-08
1.12957e-09
3.79906e-08
1.11653e-09
3.78932e-08
1.10376e-09
3.77944e-08
1.09124e-09
3.76941e-08
1.07898e-09
3.75925e-08
1.06695e-09
3.74896e-08
1.05514e-09
3.73855e-08
1.04356e-09
3.72802e-08
1.03218e-09
3.71738e-08
1.02101e-09
3.70664e-08
1.01003e-09
3.69579e-08
9.99249e-10
3.68485e-08
9.88648e-10
3.67381e-08
9.78226e-10
3.66269e-08
9.67978e-10
3.65149e-08
9.57899e-10
3.64022e-08
9.47985e-10
3.62887e-08
9.38233e-10
3.61746e-08
9.28638e-10
3.60598e-08
9.19198e-10
3.59445e-08
9.0991e-10
3.58286e-08
9.00771e-10
3.57122e-08
8.91779e-10
3.55954e-08
8.82932e-10
3.54782e-08
8.74229e-10
3.53605e-08
8.65667e-10
3.52426e-08
8.57247e-10
3.51243e-08
8.48969e-10
3.50057e-08
8.40831e-10
3.48869e-08
8.32834e-10
3.47679e-08
8.2498e-10
3.46487e-08
8.17271e-10
3.45293e-08
8.09708e-10
3.44098e-08
8.02295e-10
3.42901e-08
7.95037e-10
3.41704e-08
7.87939e-10
3.40506e-08
7.81009e-10
3.39307e-08
7.74258e-10
3.38108e-08
7.67701e-10
3.36908e-08
7.61359e-10
3.35709e-08
7.55269e-10
3.34509e-08
7.49494e-10
3.33309e-08
7.44154e-10
3.32109e-08
7.39498e-10
3.30912e-08
7.36046e-10
3.29726e-08
7.34762e-10
3.28588e-08
7.362e-10
7.28452e-10
3.94116e-08
2.17327e-09
-3.93168e-08
3.95337e-08
2.39795e-09
3.96707e-08
2.57882e-09
3.9813e-08
2.71261e-09
3.99547e-08
2.80274e-09
4.00913e-08
2.8535e-09
4.02194e-08
2.86894e-09
4.03361e-08
2.85368e-09
4.04399e-08
2.81316e-09
4.05301e-08
2.75307e-09
4.06065e-08
2.67896e-09
4.06698e-08
2.59591e-09
4.0721e-08
2.50834e-09
4.07616e-08
2.41987e-09
4.0793e-08
2.33328e-09
4.08166e-08
2.25048e-09
4.08337e-08
2.17267e-09
4.08456e-08
2.10047e-09
4.08531e-08
2.03402e-09
4.0857e-08
1.97316e-09
4.08578e-08
1.91753e-09
4.08561e-08
1.86669e-09
4.08522e-08
1.82013e-09
4.08461e-08
1.77737e-09
4.08382e-08
1.73796e-09
4.08283e-08
1.70147e-09
4.08167e-08
1.66757e-09
4.08034e-08
1.63594e-09
4.07882e-08
1.60632e-09
4.07713e-08
1.57848e-09
4.07526e-08
1.55224e-09
4.07322e-08
1.52742e-09
4.071e-08
1.5039e-09
4.06859e-08
1.48155e-09
4.06601e-08
1.46027e-09
4.06324e-08
1.43995e-09
4.06029e-08
1.42052e-09
4.05716e-08
1.40191e-09
4.05385e-08
1.38404e-09
4.05035e-08
1.36687e-09
4.04667e-08
1.35033e-09
4.0428e-08
1.33437e-09
4.03876e-08
1.31896e-09
4.03453e-08
1.30406e-09
4.03012e-08
1.28963e-09
4.02552e-08
1.27563e-09
4.02075e-08
1.26204e-09
4.01581e-08
1.24882e-09
4.01068e-08
1.23597e-09
4.00538e-08
1.22344e-09
3.99991e-08
1.21123e-09
3.99427e-08
1.19931e-09
3.98846e-08
1.18766e-09
3.98249e-08
1.17628e-09
3.97635e-08
1.16514e-09
3.97005e-08
1.15423e-09
3.9636e-08
1.14354e-09
3.95699e-08
1.13306e-09
3.95022e-08
1.12278e-09
3.94331e-08
1.11269e-09
3.93625e-08
1.10278e-09
3.92905e-08
1.09304e-09
3.9217e-08
1.08346e-09
3.91422e-08
1.07405e-09
3.90661e-08
1.06478e-09
3.89887e-08
1.05566e-09
3.891e-08
1.04669e-09
3.883e-08
1.03785e-09
3.87489e-08
1.02914e-09
3.86665e-08
1.02056e-09
3.85831e-08
1.0121e-09
3.84985e-08
1.00376e-09
3.84129e-08
9.95549e-10
3.83262e-08
9.87449e-10
3.82385e-08
9.79464e-10
3.81498e-08
9.71592e-10
3.80602e-08
9.63831e-10
3.79697e-08
9.56181e-10
3.78783e-08
9.48642e-10
3.77861e-08
9.41213e-10
3.7693e-08
9.33896e-10
3.75992e-08
9.2669e-10
3.75046e-08
9.196e-10
3.74092e-08
9.12626e-10
3.73131e-08
9.05772e-10
3.72164e-08
8.99044e-10
3.7119e-08
8.92445e-10
3.70209e-08
8.85984e-10
3.69223e-08
8.7967e-10
3.6823e-08
8.73515e-10
3.67232e-08
8.67534e-10
3.66228e-08
8.61753e-10
3.65218e-08
8.56206e-10
3.64204e-08
8.50954e-10
3.63184e-08
8.461e-10
3.62161e-08
8.41832e-10
3.61137e-08
8.38459e-10
3.60122e-08
8.36235e-10
3.59147e-08
8.33709e-10
8.16201e-10
4.01847e-08
2.0875e-09
-4.0099e-08
4.02944e-08
2.28834e-09
4.04185e-08
2.45471e-09
4.0549e-08
2.58207e-09
4.06803e-08
2.67142e-09
4.08082e-08
2.72559e-09
4.09294e-08
2.74782e-09
4.10411e-08
2.74194e-09
4.11418e-08
2.71245e-09
4.12306e-08
2.66426e-09
4.13074e-08
2.6022e-09
4.13725e-08
2.53078e-09
4.14268e-08
2.45399e-09
4.14715e-08
2.37517e-09
4.15079e-08
2.29695e-09
4.15371e-08
2.22124e-09
4.15605e-08
2.14932e-09
4.1579e-08
2.08191e-09
4.15937e-08
2.01934e-09
4.16052e-08
1.96162e-09
4.16142e-08
1.90853e-09
4.16211e-08
1.85977e-09
4.16263e-08
1.81496e-09
4.163e-08
1.7737e-09
4.16323e-08
1.73561e-09
4.16335e-08
1.70034e-09
4.16335e-08
1.66757e-09
4.16324e-08
1.63703e-09
4.16302e-08
1.60848e-09
4.1627e-08
1.58169e-09
4.16227e-08
1.55651e-09
4.16174e-08
1.53276e-09
4.1611e-08
1.51031e-09
4.16035e-08
1.48905e-09
4.15949e-08
1.46887e-09
4.15852e-08
1.44968e-09
4.15743e-08
1.43139e-09
4.15623e-08
1.41394e-09
4.1549e-08
1.39726e-09
4.15346e-08
1.38129e-09
4.1519e-08
1.36597e-09
4.15021e-08
1.35126e-09
4.1484e-08
1.3371e-09
4.14645e-08
1.32347e-09
4.14438e-08
1.31033e-09
4.14218e-08
1.29763e-09
4.13985e-08
1.28536e-09
4.13739e-08
1.27347e-09
4.13479e-08
1.26195e-09
4.13205e-08
1.25078e-09
4.12918e-08
1.23992e-09
4.12618e-08
1.22936e-09
4.12304e-08
1.21908e-09
4.11976e-08
1.20906e-09
4.11634e-08
1.19929e-09
4.11279e-08
1.18976e-09
4.1091e-08
1.18044e-09
4.10527e-08
1.17133e-09
4.10131e-08
1.16242e-09
4.09721e-08
1.15369e-09
4.09298e-08
1.14513e-09
4.08861e-08
1.13674e-09
4.0841e-08
1.12851e-09
4.07946e-08
1.12042e-09
4.07469e-08
1.11248e-09
4.06979e-08
1.10468e-09
4.06476e-08
1.097e-09
4.0596e-08
1.08945e-09
4.05431e-08
1.08202e-09
4.0489e-08
1.0747e-09
4.04336e-08
1.06749e-09
4.03769e-08
1.06039e-09
4.03191e-08
1.05339e-09
4.02601e-08
1.04649e-09
4.01998e-08
1.03969e-09
4.01384e-08
1.03299e-09
4.00759e-08
1.02638e-09
4.00122e-08
1.01986e-09
3.99474e-08
1.01344e-09
3.98815e-08
1.00711e-09
3.98145e-08
1.00087e-09
3.97465e-08
9.94728e-10
3.96774e-08
9.88682e-10
3.96073e-08
9.82735e-10
3.95362e-08
9.76891e-10
3.94641e-08
9.71155e-10
3.9391e-08
9.65533e-10
3.93169e-08
9.60033e-10
3.92419e-08
9.54664e-10
3.9166e-08
9.4944e-10
3.90892e-08
9.44377e-10
3.90114e-08
9.39499e-10
3.89328e-08
9.34839e-10
3.88533e-08
9.30449e-10
3.8773e-08
9.26409e-10
3.8692e-08
9.22832e-10
3.86106e-08
9.19811e-10
3.85299e-08
9.17017e-10
3.84518e-08
9.11757e-10
8.8912e-10
4.09665e-08
2.00896e-09
-4.0888e-08
4.10658e-08
2.18913e-09
4.11787e-08
2.34181e-09
4.12986e-08
2.46215e-09
4.14203e-08
2.54966e-09
4.154e-08
2.60596e-09
4.16543e-08
2.6335e-09
4.17608e-08
2.63539e-09
4.18579e-08
2.61537e-09
4.19446e-08
2.57758e-09
4.20206e-08
2.52622e-09
4.20861e-08
2.46526e-09
4.21418e-08
2.39829e-09
4.21886e-08
2.32837e-09
4.22276e-08
2.25796e-09
4.22599e-08
2.18894e-09
4.22866e-08
2.12261e-09
4.23087e-08
2.05981e-09
4.23271e-08
2.00097e-09
4.23425e-08
1.94624e-09
4.23554e-08
1.89556e-09
4.23665e-08
1.84873e-09
4.23759e-08
1.80548e-09
4.23841e-08
1.76551e-09
4.23912e-08
1.7285e-09
4.23974e-08
1.69416e-09
4.24028e-08
1.66222e-09
4.24074e-08
1.63242e-09
4.24113e-08
1.60456e-09
4.24146e-08
1.57843e-09
4.24172e-08
1.55388e-09
4.24192e-08
1.53076e-09
4.24206e-08
1.50894e-09
4.24213e-08
1.4883e-09
4.24214e-08
1.46874e-09
4.24209e-08
1.45019e-09
4.24198e-08
1.43256e-09
4.24179e-08
1.41577e-09
4.24154e-08
1.39976e-09
4.24122e-08
1.38449e-09
4.24083e-08
1.36988e-09
4.24037e-08
1.3559e-09
4.23983e-08
1.3425e-09
4.23921e-08
1.32964e-09
4.23851e-08
1.31729e-09
4.23774e-08
1.3054e-09
4.23688e-08
1.29396e-09
4.23593e-08
1.28292e-09
4.2349e-08
1.27227e-09
4.23378e-08
1.26198e-09
4.23257e-08
1.25203e-09
4.23126e-08
1.24239e-09
4.22987e-08
1.23306e-09
4.22837e-08
1.224e-09
4.22678e-08
1.2152e-09
4.22509e-08
1.20665e-09
4.2233e-08
1.19833e-09
4.22141e-08
1.19024e-09
4.21942e-08
1.18235e-09
4.21732e-08
1.17465e-09
4.21512e-08
1.16715e-09
4.21282e-08
1.15981e-09
4.2104e-08
1.15264e-09
4.20788e-08
1.14563e-09
4.20525e-08
1.13877e-09
4.20251e-08
1.13205e-09
4.19967e-08
1.12547e-09
4.19671e-08
1.11901e-09
4.19365e-08
1.11268e-09
4.19047e-08
1.10646e-09
4.18718e-08
1.10036e-09
4.18379e-08
1.09436e-09
4.18028e-08
1.08847e-09
4.17666e-08
1.08268e-09
4.17293e-08
1.07698e-09
4.16909e-08
1.07138e-09
4.16514e-08
1.06587e-09
4.16108e-08
1.06045e-09
4.15692e-08
1.05512e-09
4.15264e-08
1.04988e-09
4.14825e-08
1.04473e-09
4.14376e-08
1.03968e-09
4.13916e-08
1.03471e-09
4.13444e-08
1.02984e-09
4.12963e-08
1.02506e-09
4.1247e-08
1.02039e-09
4.11967e-08
1.01583e-09
4.11454e-08
1.01139e-09
4.1093e-08
1.00707e-09
4.10395e-08
1.00289e-09
4.0985e-08
9.98873e-10
4.09295e-08
9.9503e-10
4.08729e-08
9.91396e-10
4.08154e-08
9.88011e-10
4.07569e-08
9.84927e-10
4.06975e-08
9.82183e-10
4.06376e-08
9.79687e-10
4.05779e-08
9.7671e-10
4.05196e-08
9.70046e-10
9.46391e-10
4.17576e-08
1.93636e-09
-4.1685e-08
4.18481e-08
2.0986e-09
4.19513e-08
2.23863e-09
4.20617e-08
2.35178e-09
4.21746e-08
2.43669e-09
4.22865e-08
2.49407e-09
4.23944e-08
2.52567e-09
4.24958e-08
2.53395e-09
4.25892e-08
2.522e-09
4.26734e-08
2.4933e-09
4.27482e-08
2.45144e-09
4.28135e-08
2.39992e-09
4.28699e-08
2.34193e-09
4.2918e-08
2.28026e-09
4.29588e-08
2.2172e-09
4.29932e-08
2.15455e-09
4.30221e-08
2.09364e-09
4.30466e-08
2.03535e-09
4.30674e-08
1.98021e-09
4.30851e-08
1.92849e-09
4.31004e-08
1.88023e-09
4.31138e-08
1.83534e-09
4.31257e-08
1.79366e-09
4.31362e-08
1.75495e-09
4.31457e-08
1.71898e-09
4.31544e-08
1.6855e-09
4.31623e-08
1.65429e-09
4.31696e-08
1.62512e-09
4.31764e-08
1.5978e-09
4.31826e-08
1.57217e-09
4.31884e-08
1.54807e-09
4.31938e-08
1.52537e-09
4.31988e-08
1.50394e-09
4.32034e-08
1.48368e-09
4.32077e-08
1.4645e-09
4.32116e-08
1.44631e-09
4.32151e-08
1.42904e-09
4.32182e-08
1.41262e-09
4.3221e-08
1.39699e-09
4.32234e-08
1.38209e-09
4.32254e-08
1.36787e-09
4.3227e-08
1.35429e-09
4.32282e-08
1.34129e-09
4.3229e-08
1.32886e-09
4.32294e-08
1.31694e-09
4.32293e-08
1.3055e-09
4.32287e-08
1.29452e-09
4.32277e-08
1.28397e-09
4.32261e-08
1.27381e-09
4.32241e-08
1.26404e-09
4.32215e-08
1.25462e-09
4.32183e-08
1.24553e-09
4.32146e-08
1.23675e-09
4.32104e-08
1.22828e-09
4.32055e-08
1.22008e-09
4.32e-08
1.21215e-09
4.31938e-08
1.20447e-09
4.31871e-08
1.19702e-09
4.31796e-08
1.1898e-09
4.31715e-08
1.18279e-09
4.31626e-08
1.17599e-09
4.31531e-08
1.16937e-09
4.31428e-08
1.16293e-09
4.31317e-08
1.15667e-09
4.31199e-08
1.15057e-09
4.31074e-08
1.14463e-09
4.3094e-08
1.13883e-09
4.30798e-08
1.13318e-09
4.30649e-08
1.12766e-09
4.3049e-08
1.12227e-09
4.30324e-08
1.117e-09
4.30149e-08
1.11186e-09
4.29965e-08
1.10683e-09
4.29773e-08
1.1019e-09
4.29572e-08
1.09709e-09
4.29362e-08
1.09238e-09
4.29143e-08
1.08777e-09
4.28915e-08
1.08326e-09
4.28678e-08
1.07884e-09
4.28431e-08
1.07453e-09
4.28176e-08
1.07031e-09
4.2791e-08
1.06619e-09
4.27636e-08
1.06217e-09
4.27352e-08
1.05824e-09
4.27058e-08
1.05443e-09
4.26755e-08
1.05072e-09
4.26442e-08
1.04713e-09
4.26119e-08
1.04366e-09
4.25787e-08
1.04032e-09
4.25445e-08
1.03713e-09
4.25092e-08
1.03409e-09
4.2473e-08
1.03124e-09
4.24358e-08
1.0286e-09
4.23976e-08
1.02619e-09
4.23585e-08
1.02404e-09
4.23186e-08
1.02212e-09
4.22781e-08
1.02022e-09
4.22374e-08
1.01738e-09
4.2197e-08
1.01047e-09
9.88833e-10
4.25585e-08
1.86874e-09
-4.24909e-08
4.26417e-08
2.01541e-09
4.27364e-08
2.14389e-09
4.28383e-08
2.24993e-09
4.29432e-08
2.33175e-09
4.30479e-08
2.38937e-09
4.31496e-08
2.42398e-09
4.32461e-08
2.43748e-09
4.33357e-08
2.43237e-09
4.34175e-08
2.41156e-09
4.34908e-08
2.37812e-09
4.35556e-08
2.33508e-09
4.36123e-08
2.28529e-09
4.36613e-08
2.23125e-09
4.37034e-08
2.1751e-09
4.37394e-08
2.11854e-09
4.37702e-08
2.06287e-09
4.37965e-08
2.00901e-09
4.38192e-08
1.95757e-09
4.38388e-08
1.90889e-09
4.38559e-08
1.86311e-09
4.3871e-08
1.82025e-09
4.38844e-08
1.7802e-09
4.38966e-08
1.74283e-09