/*--------------------------------*- C++ -*----------------------------------*\
| =========                 |                                                 |
| \\      /  F ield         | OpenFOAM: The Open Source CFD Toolbox           |
|  \\    /   O peration     | Version:  2.3.0                                 |
|   \\  /    A nd           | Web:      www.OpenFOAM.org                      |
|    \\/     M anipulation  |                                                 |
\*---------------------------------------------------------------------------*/
FoamFile
{
    version     2.0;
    format      ascii;
    class       volVectorField;
    location    "0.85";
    object      U_0;
}
// * * * * * * * * * * * * * * * * * * * * * * * * * * * * * * * * * * * * * //

dimensions      [0 1 -1 0 0 0 0];

internalField   nonuniform List<vector> 
8750
(
(0.171611 0.00593574 0)
(0.155187 0.00601769 0)
(0.139393 0.00560539 0)
(0.124413 0.00501121 0)
(0.110663 0.00435346 0)
(0.0983133 0.00368563 0)
(0.0873759 0.00304454 0)
(0.0778167 0.00245566 0)
(0.0695803 0.00193452 0)
(0.0625825 0.00148896 0)
(0.0567104 0.00112073 0)
(0.051832 0.000826419 0)
(0.0478073 0.000598738 0)
(0.0444976 0.000428055 0)
(0.0417737 0.000303923 0)
(0.0395199 0.000216271 0)
(0.0376373 0.000156147 0)
(0.0360446 0.000116069 0)
(0.0346765 9.00817e-05 0)
(0.0334827 7.36372e-05 0)
(0.0324248 6.34015e-05 0)
(0.0314742 5.70277e-05 0)
(0.0306099 5.29338e-05 0)
(0.0298165 5.01033e-05 0)
(0.0290824 4.79183e-05 0)
(0.0283993 4.60279e-05 0)
(0.0277607 4.42506e-05 0)
(0.0271615 4.25065e-05 0)
(0.0265976 4.07714e-05 0)
(0.0260657 3.90488e-05 0)
(0.0255627 3.7353e-05 0)
(0.0250863 3.57003e-05 0)
(0.0246343 3.41045e-05 0)
(0.0242045 3.25756e-05 0)
(0.0237953 3.11198e-05 0)
(0.0234051 2.97398e-05 0)
(0.0230325 2.84357e-05 0)
(0.0226761 2.72057e-05 0)
(0.0223348 2.6047e-05 0)
(0.0220075 2.49559e-05 0)
(0.0216933 2.39285e-05 0)
(0.0213913 2.29608e-05 0)
(0.0211008 2.20486e-05 0)
(0.0208209 2.11883e-05 0)
(0.020551 2.0376e-05 0)
(0.0202906 1.96086e-05 0)
(0.0200391 1.88828e-05 0)
(0.0197959 1.81957e-05 0)
(0.0195606 1.75447e-05 0)
(0.0193328 1.69274e-05 0)
(0.019112 1.63414e-05 0)
(0.018898 1.57848e-05 0)
(0.0186903 1.52555e-05 0)
(0.0184886 1.4752e-05 0)
(0.0182927 1.42724e-05 0)
(0.0181022 1.38155e-05 0)
(0.017917 1.33797e-05 0)
(0.0177367 1.29639e-05 0)
(0.0175611 1.25668e-05 0)
(0.0173901 1.21874e-05 0)
(0.0172233 1.18247e-05 0)
(0.0170607 1.14777e-05 0)
(0.0169021 1.11455e-05 0)
(0.0167473 1.08275e-05 0)
(0.016596 1.05228e-05 0)
(0.0164483 1.02306e-05 0)
(0.0163039 9.95042e-06 0)
(0.0161627 9.68171e-06 0)
(0.0160246 9.42367e-06 0)
(0.0158894 9.17604e-06 0)
(0.0157571 8.93818e-06 0)
(0.0156275 8.7097e-06 0)
(0.0155006 8.49018e-06 0)
(0.0153762 8.27918e-06 0)
(0.0152542 8.07641e-06 0)
(0.0151346 7.88151e-06 0)
(0.0150173 7.69418e-06 0)
(0.0149021 7.5141e-06 0)
(0.014789 7.34105e-06 0)
(0.014678 7.17481e-06 0)
(0.0145688 7.01514e-06 0)
(0.0144616 6.86184e-06 0)
(0.0143562 6.71475e-06 0)
(0.0142524 6.57375e-06 0)
(0.0141504 6.43874e-06 0)
(0.0140499 6.30956e-06 0)
(0.013951 6.18619e-06 0)
(0.0138536 6.06862e-06 0)
(0.0137575 5.95689e-06 0)
(0.0136628 5.85108e-06 0)
(0.0135693 5.75146e-06 0)
(0.013477 5.65853e-06 0)
(0.0133858 5.57326e-06 0)
(0.0132956 5.49766e-06 0)
(0.0132063 5.43621e-06 0)
(0.0131177 5.39967e-06 0)
(0.0130293 5.42153e-06 0)
(0.0129394 5.55089e-06 0)
(0.0128643 4.64851e-06 0)
(0.0126206 3.45791e-05 0)
(0.19047 0.00937941 0)
(0.18817 0.00989403 0)
(0.184258 0.00967109 0)
(0.179095 0.00917443 0)
(0.173182 0.00854334 0)
(0.166873 0.00782396 0)
(0.16039 0.00705411 0)
(0.153902 0.00626857 0)
(0.147542 0.00549643 0)
(0.141412 0.00476153 0)
(0.13558 0.00408251 0)
(0.130085 0.00347226 0)
(0.124947 0.0029376 0)
(0.120169 0.00247979 0)
(0.115742 0.0020955 0)
(0.11165 0.00177818 0)
(0.107873 0.00151939 0)
(0.104387 0.00131001 0)
(0.101167 0.00114114 0)
(0.0981895 0.00100473 0)
(0.0954315 0.000893878 0)
(0.0928713 0.000802904 0)
(0.0904893 0.000727315 0)
(0.0882677 0.000663638 0)
(0.0861906 0.000609244 0)
(0.084244 0.000562169 0)
(0.0824152 0.000520953 0)
(0.0806932 0.00048451 0)
(0.0790682 0.000452025 0)
(0.0775317 0.000422874 0)
(0.0760759 0.000396576 0)
(0.074694 0.000372745 0)
(0.07338 0.000351067 0)
(0.0721285 0.000331284 0)
(0.0709348 0.000313176 0)
(0.0697943 0.000296555 0)
(0.0687033 0.00028126 0)
(0.0676583 0.00026715 0)
(0.066656 0.000254103 0)
(0.0656936 0.000242011 0)
(0.0647685 0.00023078 0)
(0.0638782 0.000220327 0)
(0.0630207 0.00021058 0)
(0.0621939 0.000201473 0)
(0.061396 0.00019295 0)
(0.0606252 0.00018496 0)
(0.0598802 0.000177458 0)
(0.0591594 0.000170403 0)
(0.0584616 0.00016376 0)
(0.0577855 0.000157496 0)
(0.0571299 0.000151583 0)
(0.0564939 0.000145993 0)
(0.0558765 0.000140704 0)
(0.0552768 0.000135693 0)
(0.0546938 0.000130941 0)
(0.0541269 0.00012643 0)
(0.0535752 0.000122145 0)
(0.0530382 0.000118069 0)
(0.0525151 0.00011419 0)
(0.0520053 0.000110495 0)
(0.0515082 0.000106973 0)
(0.0510234 0.000103613 0)
(0.0505502 0.000100405 0)
(0.0500883 9.73397e-05 0)
(0.0496371 9.44097e-05 0)
(0.0491962 9.16068e-05 0)
(0.0487653 8.89241e-05 0)
(0.0483439 8.63551e-05 0)
(0.0479317 8.38932e-05 0)
(0.0475283 8.15331e-05 0)
(0.0471334 7.92694e-05 0)
(0.0467466 7.70973e-05 0)
(0.0463678 7.50122e-05 0)
(0.0459965 7.30097e-05 0)
(0.0456325 7.10861e-05 0)
(0.0452756 6.92376e-05 0)
(0.0449256 6.7461e-05 0)
(0.044582 6.57528e-05 0)
(0.0442448 6.41105e-05 0)
(0.0439138 6.25312e-05 0)
(0.0435886 6.10125e-05 0)
(0.0432691 5.9552e-05 0)
(0.0429551 5.81478e-05 0)
(0.0426464 5.67981e-05 0)
(0.0423428 5.55012e-05 0)
(0.0420442 5.42556e-05 0)
(0.0417502 5.30602e-05 0)
(0.0414608 5.19141e-05 0)
(0.0411758 5.08167e-05 0)
(0.040895 4.97678e-05 0)
(0.0406182 4.87683e-05 0)
(0.0403452 4.78202e-05 0)
(0.0400757 4.69279e-05 0)
(0.0398097 4.61021e-05 0)
(0.0395467 4.53671e-05 0)
(0.0392864 4.47855e-05 0)
(0.0390277 4.4535e-05 0)
(0.0387673 4.50753e-05 0)
(0.0385251 4.94123e-05 0)
(0.0380324 0.000117805 0)
(0.193456 0.00899874 0)
(0.194262 0.00995784 0)
(0.194405 0.010289 0)
(0.193739 0.0102915 0)
(0.19238 0.0100664 0)
(0.190454 0.009652 0)
(0.188053 0.00909307 0)
(0.185268 0.00843913 0)
(0.182194 0.0077353 0)
(0.178918 0.00701979 0)
(0.17552 0.00632326 0)
(0.172064 0.00566835 0)
(0.168601 0.00506951 0)
(0.165171 0.00453385 0)
(0.161803 0.00406252 0)
(0.158516 0.0036524 0)
(0.155323 0.00329779 0)
(0.152231 0.0029918 0)
(0.149244 0.00272733 0)
(0.146363 0.00249776 0)
(0.143586 0.0022973 0)
(0.140912 0.00212105 0)
(0.138337 0.001965 0)
(0.135857 0.00182592 0)
(0.133471 0.00170123 0)
(0.131173 0.00158886 0)
(0.128961 0.00148715 0)
(0.12683 0.00139474 0)
(0.124778 0.00131051 0)
(0.122801 0.00123353 0)
(0.120895 0.00116301 0)
(0.119058 0.00109826 0)
(0.117285 0.00103869 0)
(0.115575 0.000983772 0)
(0.113924 0.00093305 0)
(0.11233 0.000886118 0)
(0.110789 0.000842613 0)
(0.1093 0.000802216 0)
(0.107859 0.000764639 0)
(0.106465 0.000729626 0)
(0.105115 0.000696951 0)
(0.103807 0.000666408 0)
(0.102539 0.000637815 0)
(0.10131 0.000611007 0)
(0.100117 0.000585837 0)
(0.0989595 0.000562174 0)
(0.097835 0.000539897 0)
(0.0967424 0.000518899 0)
(0.0956801 0.000499083 0)
(0.094647 0.000480361 0)
(0.0936416 0.000462652 0)
(0.0926629 0.000445883 0)
(0.0917098 0.00042999 0)
(0.0907811 0.00041491 0)
(0.0898758 0.00040059 0)
(0.088993 0.000386978 0)
(0.0881318 0.000374029 0)
(0.0872914 0.0003617 0)
(0.0864708 0.000349951 0)
(0.0856695 0.000338748 0)
(0.0848865 0.000328056 0)
(0.0841213 0.000317845 0)
(0.0833731 0.000308087 0)
(0.0826414 0.000298755 0)
(0.0819255 0.000289826 0)
(0.0812249 0.000281277 0)
(0.0805391 0.000273087 0)
(0.0798674 0.000265236 0)
(0.0792095 0.000257707 0)
(0.0785647 0.000250482 0)
(0.0779328 0.000243547 0)
(0.0773133 0.000236886 0)
(0.0767057 0.000230487 0)
(0.0761096 0.000224335 0)
(0.0755247 0.00021842 0)
(0.0749507 0.000212731 0)
(0.074387 0.000207257 0)
(0.0738335 0.000201989 0)
(0.0732898 0.000196918 0)
(0.0727556 0.000192036 0)
(0.0722305 0.000187335 0)
(0.0717143 0.000182808 0)
(0.0712067 0.00017845 0)
(0.0707075 0.000174253 0)
(0.0702162 0.000170214 0)
(0.0697328 0.000166326 0)
(0.0692569 0.000162587 0)
(0.0687882 0.000158993 0)
(0.0683265 0.000155541 0)
(0.0678716 0.000152231 0)
(0.0674232 0.000149063 0)
(0.0669809 0.000146042 0)
(0.0665446 0.000143176 0)
(0.066114 0.00014049 0)
(0.0656885 0.000138042 0)
(0.0652675 0.000135981 0)
(0.0648501 0.00013473 0)
(0.0644327 0.000135653 0)
(0.0640282 0.000149269 0)
(0.0633897 0.000233179 0)
(0.194483 0.00835141 0)
(0.195669 0.00940842 0)
(0.196741 0.00996331 0)
(0.19748 0.0102023 0)
(0.197867 0.0102094 0)
(0.19791 0.0100169 0)
(0.197608 0.00966064 0)
(0.196968 0.00918353 0)
(0.196017 0.00862739 0)
(0.194795 0.00802947 0)
(0.193345 0.00742143 0)
(0.191711 0.0068284 0)
(0.189935 0.00626839 0)
(0.188054 0.0057525 0)
(0.186099 0.00528591 0)
(0.184097 0.00486923 0)
(0.182068 0.00449995 0)
(0.180026 0.00417371 0)
(0.177983 0.00388533 0)
(0.175947 0.00362957 0)
(0.173925 0.00340153 0)
(0.17192 0.00319687 0)
(0.169936 0.00301196 0)
(0.167976 0.00284377 0)
(0.16604 0.00268989 0)
(0.164132 0.00254835 0)
(0.162252 0.00241759 0)
(0.160401 0.00229637 0)
(0.15858 0.00218365 0)
(0.156789 0.00207859 0)
(0.15503 0.00198048 0)
(0.153303 0.00188871 0)
(0.151607 0.00180276 0)
(0.149944 0.00172216 0)
(0.148312 0.00164648 0)
(0.146712 0.00157536 0)
(0.145144 0.00150845 0)
(0.143608 0.00144545 0)
(0.142102 0.00138607 0)
(0.140627 0.00133005 0)
(0.139183 0.00127716 0)
(0.137768 0.00122717 0)
(0.136382 0.00117989 0)
(0.135025 0.00113514 0)
(0.133695 0.00109274 0)
(0.132393 0.00105253 0)
(0.131118 0.00101438 0)
(0.129869 0.000978149 0)
(0.128646 0.000943716 0)
(0.127447 0.000910968 0)
(0.126273 0.000879799 0)
(0.125122 0.000850114 0)
(0.123994 0.00082182 0)
(0.122889 0.000794836 0)
(0.121806 0.000769084 0)
(0.120743 0.000744492 0)
(0.119702 0.000720993 0)
(0.118681 0.000698525 0)
(0.117679 0.00067703 0)
(0.116696 0.000656454 0)
(0.115732 0.000636747 0)
(0.114786 0.000617862 0)
(0.113857 0.000599755 0)
(0.112945 0.000582385 0)
(0.11205 0.000565715 0)
(0.111171 0.000549707 0)
(0.110308 0.00053433 0)
(0.10946 0.000519551 0)
(0.108627 0.000505341 0)
(0.107808 0.000491672 0)
(0.107003 0.000478519 0)
(0.106212 0.000465858 0)
(0.105434 0.000453665 0)
(0.104669 0.00044192 0)
(0.103917 0.000430603 0)
(0.103177 0.000419695 0)
(0.102449 0.000409178 0)
(0.101733 0.000399037 0)
(0.101028 0.000389255 0)
(0.100334 0.000379818 0)
(0.0996501 0.000370715 0)
(0.0989771 0.000361931 0)
(0.0983142 0.000353456 0)
(0.0976611 0.00034528 0)
(0.0970177 0.000337392 0)
(0.0963835 0.000329786 0)
(0.0957584 0.000322453 0)
(0.0951421 0.000315387 0)
(0.0945342 0.000308584 0)
(0.0939347 0.000302042 0)
(0.093343 0.00029576 0)
(0.0927591 0.000289745 0)
(0.0921826 0.000284012 0)
(0.091613 0.000278601 0)
(0.0910501 0.000273604 0)
(0.0904931 0.000269263 0)
(0.089941 0.000266279 0)
(0.089391 0.000267092 0)
(0.0888523 0.000285653 0)
(0.0881162 0.000365972 0)
(0.195195 0.00784033 0)
(0.196255 0.00883838 0)
(0.197381 0.00943389 0)
(0.1984 0.00974756 0)
(0.199269 0.00985368 0)
(0.199971 0.00978234 0)
(0.200481 0.00955989 0)
(0.200778 0.00921885 0)
(0.200854 0.00879301 0)
(0.200714 0.00831396 0)
(0.200375 0.00780981 0)
(0.199858 0.00730411 0)
(0.199186 0.00681495 0)
(0.198385 0.00635469 0)
(0.197478 0.00593047 0)
(0.196486 0.0055451 0)
(0.195426 0.00519821 0)
(0.194312 0.00488736 0)
(0.193155 0.00460898 0)
(0.191964 0.00435905 0)
(0.190746 0.00413362 0)
(0.189505 0.0039291 0)
(0.188246 0.00374232 0)
(0.186972 0.00357066 0)
(0.185685 0.00341196 0)
(0.184389 0.00326447 0)
(0.183085 0.00312679 0)
(0.181775 0.0029978 0)
(0.180462 0.00287656 0)
(0.179146 0.00276235 0)
(0.17783 0.00265452 0)
(0.176514 0.00255255 0)
(0.175201 0.00245598 0)
(0.173892 0.00236442 0)
(0.172587 0.0022775 0)
(0.171288 0.0021949 0)
(0.169996 0.00211635 0)
(0.168711 0.00204158 0)
(0.167435 0.00197036 0)
(0.166169 0.00190246 0)
(0.164912 0.00183768 0)
(0.163666 0.00177585 0)
(0.16243 0.00171679 0)
(0.161206 0.00166034 0)
(0.159994 0.00160636 0)
(0.158795 0.00155471 0)
(0.157607 0.00150527 0)
(0.156433 0.00145791 0)
(0.155271 0.00141254 0)
(0.154122 0.00136904 0)
(0.152987 0.00132732 0)
(0.151864 0.00128729 0)
(0.150755 0.00124886 0)
(0.14966 0.00121196 0)
(0.148578 0.00117651 0)
(0.147509 0.00114244 0)
(0.146454 0.00110968 0)
(0.145411 0.00107818 0)
(0.144382 0.00104787 0)
(0.143367 0.00101869 0)
(0.142364 0.000990602 0)
(0.141374 0.000963546 0)
(0.140397 0.000937477 0)
(0.139432 0.000912353 0)
(0.13848 0.000888129 0)
(0.13754 0.000864768 0)
(0.136613 0.00084223 0)
(0.135697 0.000820481 0)
(0.134794 0.000799488 0)
(0.133902 0.000779217 0)
(0.133022 0.00075964 0)
(0.132153 0.000740727 0)
(0.131295 0.000722452 0)
(0.130448 0.000704789 0)
(0.129612 0.000687714 0)
(0.128787 0.000671204 0)
(0.127973 0.000655237 0)
(0.127168 0.000639795 0)
(0.126374 0.000624856 0)
(0.12559 0.000610404 0)
(0.124815 0.000596423 0)
(0.12405 0.000582895 0)
(0.123294 0.000569808 0)
(0.122548 0.000557147 0)
(0.121811 0.000544902 0)
(0.121082 0.00053306 0)
(0.120362 0.000521614 0)
(0.119651 0.000510554 0)
(0.118948 0.000499876 0)
(0.118253 0.000489577 0)
(0.117566 0.000479657 0)
(0.116886 0.000470125 0)
(0.116214 0.000461004 0)
(0.115548 0.000452348 0)
(0.11489 0.000444283 0)
(0.114238 0.00043714 0)
(0.113591 0.000431859 0)
(0.112947 0.000431626 0)
(0.112318 0.000449923 0)
(0.111523 0.000513805 0)
(0.195797 0.00740033 0)
(0.196689 0.00830097 0)
(0.197695 0.0088864 0)
(0.198684 0.00922662 0)
(0.19961 0.00938036 0)
(0.200453 0.00937553 0)
(0.20119 0.00923381 0)
(0.201799 0.00898141 0)
(0.202263 0.00864657 0)
(0.202578 0.00825637 0)
(0.202747 0.0078353 0)
(0.202779 0.00740442 0)
(0.202686 0.00698047 0)
(0.202483 0.00657555 0)
(0.202186 0.0061973 0)
(0.201809 0.00584955 0)
(0.201365 0.00553319 0)
(0.200864 0.00524708 0)
(0.200316 0.0049888 0)
(0.199728 0.00475537 0)
(0.199104 0.00454362 0)
(0.198448 0.00435056 0)
(0.197765 0.00417349 0)
(0.197055 0.00401009 0)
(0.196322 0.00385843 0)
(0.195566 0.0037169 0)
(0.19479 0.00358421 0)
(0.193995 0.0034593 0)
(0.193181 0.00334132 0)
(0.192352 0.00322956 0)
(0.191507 0.00312345 0)
(0.190648 0.00302249 0)
(0.189776 0.00292627 0)
(0.188892 0.00283443 0)
(0.187998 0.00274667 0)
(0.187094 0.00266269 0)
(0.186181 0.00258226 0)
(0.185261 0.00250515 0)
(0.184334 0.00243117 0)
(0.183402 0.00236012 0)
(0.182465 0.00229184 0)
(0.181523 0.00222619 0)
(0.180579 0.00216302 0)
(0.179631 0.00210221 0)
(0.178682 0.00204362 0)
(0.177732 0.00198717 0)
(0.176782 0.00193273 0)
(0.175831 0.00188023 0)
(0.174881 0.00182956 0)
(0.173932 0.00178065 0)
(0.172985 0.00173342 0)
(0.17204 0.0016878 0)
(0.171097 0.00164371 0)
(0.170158 0.0016011 0)
(0.169221 0.0015599 0)
(0.168289 0.00152005 0)
(0.16736 0.00148151 0)
(0.166435 0.00144421 0)
(0.165515 0.00140812 0)
(0.1646 0.00137317 0)
(0.16369 0.00133934 0)
(0.162785 0.00130657 0)
(0.161886 0.00127483 0)
(0.160992 0.00124407 0)
(0.160104 0.00121427 0)
(0.159222 0.00118538 0)
(0.158346 0.00115738 0)
(0.157476 0.00113023 0)
(0.156612 0.0011039 0)
(0.155755 0.00107836 0)
(0.154904 0.00105358 0)
(0.15406 0.00102954 0)
(0.153222 0.00100622 0)
(0.152391 0.000983586 0)
(0.151566 0.000961618 0)
(0.150748 0.000940294 0)
(0.149936 0.000919594 0)
(0.149132 0.000899499 0)
(0.148333 0.000879989 0)
(0.147542 0.000861048 0)
(0.146757 0.00084266 0)
(0.145979 0.000824808 0)
(0.145207 0.00080748 0)
(0.144442 0.000790662 0)
(0.143683 0.000774343 0)
(0.14293 0.000758512 0)
(0.142184 0.000743161 0)
(0.141444 0.000728282 0)
(0.140711 0.000713871 0)
(0.139983 0.000699927 0)
(0.139262 0.000686454 0)
(0.138546 0.000673464 0)
(0.137836 0.000660987 0)
(0.137132 0.000649092 0)
(0.136433 0.000637935 0)
(0.135739 0.000627906 0)
(0.13505 0.000620076 0)
(0.134365 0.000617737 0)
(0.133696 0.000631459 0)
(0.132888 0.000671774 0)
(0.196323 0.00702244 0)
(0.197077 0.00782578 0)
(0.197952 0.00838459 0)
(0.198848 0.00873221 0)
(0.199719 0.00891056 0)
(0.200542 0.00894465 0)
(0.201299 0.00885384 0)
(0.20197 0.00866047 0)
(0.202542 0.00838887 0)
(0.203007 0.00806273 0)
(0.203365 0.00770364 0)
(0.20362 0.00733032 0)
(0.20378 0.00695804 0)
(0.203856 0.00659821 0)
(0.203857 0.00625847 0)
(0.203795 0.00594314 0)
(0.203678 0.00565391 0)
(0.203516 0.00539052 0)
(0.203315 0.00515145 0)
(0.203081 0.00493447 0)
(0.202817 0.00473707 0)
(0.202526 0.00455675 0)
(0.202211 0.00439118 0)
(0.201874 0.0042383 0)
(0.201514 0.00409634 0)
(0.201134 0.00396382 0)
(0.200734 0.00383952 0)
(0.200315 0.00372242 0)
(0.199877 0.0036117 0)
(0.199422 0.00350667 0)
(0.198948 0.00340678 0)
(0.198458 0.00331154 0)
(0.197952 0.00322055 0)
(0.19743 0.00313347 0)
(0.196893 0.00304999 0)
(0.196341 0.00296986 0)
(0.195776 0.00289285 0)
(0.195197 0.00281874 0)
(0.194606 0.00274734 0)
(0.194003 0.00267851 0)
(0.193389 0.00261207 0)
(0.192763 0.00254791 0)
(0.192127 0.00248589 0)
(0.191482 0.0024259 0)
(0.190827 0.00236783 0)
(0.190164 0.0023116 0)
(0.189493 0.00225712 0)
(0.188814 0.00220431 0)
(0.188129 0.00215308 0)
(0.187436 0.00210339 0)
(0.186738 0.00205515 0)
(0.186034 0.00200831 0)
(0.185325 0.00196282 0)
(0.184612 0.00191862 0)
(0.183894 0.00187567 0)
(0.183172 0.00183392 0)
(0.182447 0.00179332 0)
(0.181719 0.00175384 0)
(0.180988 0.00171543 0)
(0.180255 0.00167806 0)
(0.17952 0.0016417 0)
(0.178783 0.00160632 0)
(0.178046 0.00157187 0)
(0.177307 0.00153833 0)
(0.176567 0.00150568 0)
(0.175827 0.00147388 0)
(0.175087 0.00144291 0)
(0.174347 0.00141274 0)
(0.173607 0.00138336 0)
(0.172868 0.00135473 0)
(0.17213 0.00132683 0)
(0.171393 0.00129965 0)
(0.170657 0.00127316 0)
(0.169922 0.00124735 0)
(0.169189 0.0012222 0)
(0.168458 0.00119768 0)
(0.167728 0.00117379 0)
(0.167001 0.0011505 0)
(0.166275 0.00112781 0)
(0.165552 0.00110569 0)
(0.164832 0.00108415 0)
(0.164114 0.00106315 0)
(0.163398 0.0010427 0)
(0.162685 0.00102277 0)
(0.161975 0.00100338 0)
(0.161268 0.000984497 0)
(0.160564 0.000966126 0)
(0.159862 0.000948263 0)
(0.159164 0.000930905 0)
(0.158468 0.000914055 0)
(0.157776 0.000897721 0)
(0.157086 0.000881921 0)
(0.1564 0.000866693 0)
(0.155716 0.000852115 0)
(0.155035 0.000838362 0)
(0.154357 0.000825844 0)
(0.153682 0.000815605 0)
(0.153011 0.000810429 0)
(0.152358 0.000816889 0)
(0.151584 0.000831578 0)
(0.196785 0.00669519 0)
(0.197433 0.0074088 0)
(0.198194 0.00793228 0)
(0.198994 0.00827607 0)
(0.199789 0.00846759 0)
(0.200555 0.00852784 0)
(0.201273 0.00847401 0)
(0.201928 0.00832518 0)
(0.202506 0.00810231 0)
(0.203001 0.00782616 0)
(0.203413 0.00751588 0)
(0.203744 0.00718826 0)
(0.203999 0.00685726 0)
(0.204187 0.00653361 0)
(0.204315 0.00622483 0)
(0.204393 0.00593558 0)
(0.204429 0.00566809 0)
(0.204429 0.00542282 0)
(0.204399 0.00519895 0)
(0.204345 0.00499492 0)
(0.204268 0.00480879 0)
(0.204173 0.00463848 0)
(0.20406 0.00448203 0)
(0.203932 0.00433761 0)
(0.203787 0.00420363 0)
(0.203629 0.00407871 0)
(0.203455 0.00396171 0)
(0.203268 0.00385165 0)
(0.203067 0.00374773 0)
(0.202852 0.00364927 0)
(0.202623 0.00355572 0)
(0.202381 0.0034666 0)
(0.202125 0.0033815 0)
(0.201856 0.00330007 0)
(0.201574 0.00322201 0)
(0.20128 0.00314706 0)
(0.200972 0.00307498 0)
(0.200652 0.00300556 0)
(0.200319 0.00293862 0)
(0.199975 0.002874 0)
(0.199618 0.00281154 0)
(0.199251 0.00275111 0)
(0.198871 0.00269259 0)
(0.198481 0.00263587 0)
(0.19808 0.00258085 0)
(0.197668 0.00252744 0)
(0.197246 0.00247555 0)
(0.196815 0.00242512 0)
(0.196373 0.00237607 0)
(0.195922 0.00232833 0)
(0.195463 0.00228186 0)
(0.194994 0.00223659 0)
(0.194517 0.00219248 0)
(0.194032 0.00214948 0)
(0.193539 0.00210755 0)
(0.193038 0.00206665 0)
(0.19253 0.00202673 0)
(0.192015 0.00198778 0)
(0.191493 0.00194974 0)
(0.190965 0.0019126 0)
(0.190431 0.00187632 0)
(0.189891 0.00184088 0)
(0.189346 0.00180626 0)
(0.188795 0.00177241 0)
(0.188239 0.00173934 0)
(0.187679 0.001707 0)
(0.187113 0.00167539 0)
(0.186544 0.00164449 0)
(0.185971 0.00161426 0)
(0.185394 0.0015847 0)
(0.184813 0.0015558 0)
(0.184229 0.00152753 0)
(0.183643 0.00149987 0)
(0.183053 0.00147282 0)
(0.18246 0.00144636 0)
(0.181866 0.00142048 0)
(0.181269 0.00139517 0)
(0.18067 0.00137041 0)
(0.180069 0.0013462 0)
(0.179466 0.00132252 0)
(0.178862 0.00129936 0)
(0.178256 0.00127672 0)
(0.17765 0.0012546 0)
(0.177042 0.00123297 0)
(0.176434 0.00121185 0)
(0.175824 0.00119122 0)
(0.175214 0.00117109 0)
(0.174604 0.00115144 0)
(0.173993 0.0011323 0)
(0.173381 0.00111366 0)
(0.17277 0.00109554 0)
(0.172158 0.00107796 0)
(0.171546 0.00106096 0)
(0.170934 0.00104463 0)
(0.170322 0.00102914 0)
(0.16971 0.00101488 0)
(0.169099 0.00100271 0)
(0.16849 0.000994516 0)
(0.167899 0.000992843 0)
(0.167201 0.000984116 0)
(0.197195 0.00640602 0)
(0.19776 0.00703929 0)
(0.198426 0.00752372 0)
(0.199139 0.00785701 0)
(0.19986 0.00805525 0)
(0.200563 0.00813473 0)
(0.201231 0.00811018 0)
(0.201848 0.00799774 0)
(0.202403 0.00781531 0)
(0.20289 0.007581 0)
(0.203307 0.00731179 0)
(0.203656 0.00702278 0)
(0.203942 0.00672673 0)
(0.204171 0.00643371 0)
(0.204349 0.00615109 0)
(0.204485 0.0058837 0)
(0.204585 0.00563422 0)
(0.204656 0.00540367 0)
(0.204703 0.00519187 0)
(0.204731 0.00499781 0)
(0.204742 0.00482007 0)
(0.204739 0.00465702 0)
(0.204724 0.00450699 0)
(0.204699 0.00436844 0)
(0.204664 0.00423994 0)
(0.204619 0.00412024 0)
(0.204565 0.00400829 0)
(0.204503 0.00390316 0)
(0.204431 0.00380409 0)
(0.204351 0.00371041 0)
(0.204262 0.00362158 0)
(0.204164 0.00353711 0)
(0.204057 0.00345661 0)
(0.203941 0.00337972 0)
(0.203816 0.00330613 0)
(0.203682 0.00323557 0)
(0.203538 0.0031678 0)
(0.203386 0.00310261 0)
(0.203225 0.00303982 0)
(0.203054 0.00297924 0)
(0.202874 0.00292073 0)
(0.202685 0.00286415 0)
(0.202487 0.00280938 0)
(0.202279 0.00275629 0)
(0.202063 0.0027048 0)
(0.201837 0.0026548 0)
(0.201603 0.00260621 0)
(0.201359 0.00255895 0)
(0.201107 0.00251296 0)
(0.200845 0.00246816 0)
(0.200576 0.0024245 0)
(0.200297 0.00238192 0)
(0.20001 0.00234038 0)
(0.199715 0.00229982 0)
(0.199411 0.00226021 0)
(0.1991 0.00222151 0)
(0.19878 0.00218367 0)
(0.198453 0.00214668 0)
(0.198118 0.00211048 0)
(0.197775 0.00207506 0)
(0.197425 0.00204039 0)
(0.197067 0.00200644 0)
(0.196703 0.00197319 0)
(0.196331 0.00194062 0)
(0.195953 0.00190871 0)
(0.195568 0.00187743 0)
(0.195177 0.00184677 0)
(0.194779 0.00181672 0)
(0.194376 0.00178725 0)
(0.193966 0.00175835 0)
(0.193551 0.00173001 0)
(0.19313 0.00170222 0)
(0.192703 0.00167495 0)
(0.192271 0.00164821 0)
(0.191834 0.00162198 0)
(0.191393 0.00159624 0)
(0.190946 0.001571 0)
(0.190495 0.00154624 0)
(0.190039 0.00152196 0)
(0.189579 0.00149814 0)
(0.189114 0.00147479 0)
(0.188646 0.00145189 0)
(0.188174 0.00142944 0)
(0.187698 0.00140745 0)
(0.187218 0.0013859 0)
(0.186735 0.00136481 0)
(0.186248 0.00134416 0)
(0.185759 0.00132397 0)
(0.185266 0.00130424 0)
(0.18477 0.00128497 0)
(0.184271 0.0012662 0)
(0.183769 0.00124794 0)
(0.183265 0.00123025 0)
(0.182758 0.00121319 0)
(0.182248 0.00119695 0)
(0.181736 0.00118182 0)
(0.181223 0.00116839 0)
(0.180711 0.00115751 0)
(0.180213 0.00114838 0)
(0.179622 0.00112144 0)
(0.197559 0.00614612 0)
(0.198058 0.00670886 0)
(0.198645 0.00715393 0)
(0.199282 0.0074727 0)
(0.199934 0.00767299 0)
(0.200578 0.0077666 0)
(0.201196 0.00776564 0)
(0.201772 0.00768366 0)
(0.202297 0.00753584 0)
(0.202765 0.00733784 0)
(0.203173 0.00710464 0)
(0.203522 0.00684977 0)
(0.203815 0.00658485 0)
(0.204057 0.00631929 0)
(0.204255 0.00606018 0)
(0.204415 0.00581245 0)
(0.204543 0.00557909 0)
(0.204644 0.0053616 0)
(0.204725 0.00516027 0)
(0.204788 0.00497465 0)
(0.204838 0.00480375 0)
(0.204877 0.00464634 0)
(0.204906 0.00450108 0)
(0.204927 0.00436668 0)
(0.204942 0.00424189 0)
(0.20495 0.00412563 0)
(0.204953 0.00401693 0)
(0.20495 0.00391492 0)
(0.204942 0.0038189 0)
(0.204929 0.00372824 0)
(0.20491 0.0036424 0)
(0.204887 0.00356091 0)
(0.204858 0.00348339 0)
(0.204824 0.00340949 0)
(0.204784 0.00333888 0)
(0.204739 0.00327131 0)
(0.204688 0.00320654 0)
(0.204632 0.00314435 0)
(0.20457 0.00308455 0)
(0.204502 0.00302696 0)
(0.204428 0.00297143 0)
(0.204348 0.00291782 0)
(0.204261 0.00286599 0)
(0.204169 0.00281584 0)
(0.20407 0.00276725 0)
(0.203965 0.00272013 0)
(0.203854 0.00267438 0)
(0.203735 0.00262994 0)
(0.203611 0.00258672 0)
(0.20348 0.00254466 0)
(0.203342 0.00250369 0)
(0.203197 0.00246375 0)
(0.203046 0.0024248 0)
(0.202888 0.00238679 0)
(0.202723 0.00234966 0)
(0.202551 0.00231338 0)
(0.202373 0.00227791 0)
(0.202188 0.00224322 0)
(0.201996 0.00220927 0)
(0.201798 0.00217603 0)
(0.201593 0.00214347 0)
(0.201381 0.00211156 0)
(0.201162 0.00208029 0)
(0.200937 0.00204963 0)
(0.200706 0.00201956 0)
(0.200468 0.00199005 0)
(0.200223 0.0019611 0)
(0.199972 0.00193267 0)
(0.199715 0.00190477 0)
(0.199452 0.00187737 0)
(0.199182 0.00185045 0)
(0.198906 0.00182401 0)
(0.198624 0.00179804 0)
(0.198337 0.00177252 0)
(0.198043 0.00174744 0)
(0.197744 0.00172279 0)
(0.197439 0.00169858 0)
(0.197128 0.00167478 0)
(0.196812 0.00165139 0)
(0.19649 0.00162841 0)
(0.196163 0.00160584 0)
(0.19583 0.00158366 0)
(0.195493 0.00156188 0)
(0.19515 0.0015405 0)
(0.194803 0.00151951 0)
(0.19445 0.00149892 0)
(0.194093 0.00147873 0)
(0.19373 0.00145895 0)
(0.193364 0.00143959 0)
(0.192992 0.00142066 0)
(0.192616 0.00140218 0)
(0.192236 0.00138417 0)
(0.191851 0.00136669 0)
(0.191461 0.00134981 0)
(0.191068 0.00133365 0)
(0.190671 0.00131844 0)
(0.190271 0.00130444 0)
(0.189871 0.00129155 0)
(0.18948 0.00127664 0)
(0.189009 0.00123813 0)
(0.197884 0.00590942 0)
(0.19833 0.00641086 0)
(0.198851 0.0068181 0)
(0.199421 0.00711995 0)
(0.200012 0.00731872 0)
(0.200602 0.00742227 0)
(0.201172 0.00744025 0)
(0.201709 0.00738388 0)
(0.202204 0.00726594 0)
(0.202649 0.00709986 0)
(0.203043 0.00689877 0)
(0.203385 0.0066747 0)
(0.203678 0.00643819 0)
(0.203924 0.00619796 0)
(0.20413 0.00596076 0)
(0.204301 0.00573151 0)
(0.204443 0.00551342 0)
(0.204559 0.00530831 0)
(0.204656 0.00511693 0)
(0.204737 0.00493922 0)
(0.204804 0.00477462 0)
(0.204862 0.00462226 0)
(0.204911 0.00448111 0)
(0.204953 0.0043501 0)
(0.20499 0.0042282 0)
(0.205022 0.00411446 0)
(0.205049 0.00400801 0)
(0.205073 0.00390808 0)
(0.205094 0.00381402 0)
(0.205111 0.00372524 0)
(0.205126 0.00364123 0)
(0.205137 0.00356155 0)
(0.205145 0.00348582 0)
(0.20515 0.00341369 0)
(0.205152 0.00334489 0)
(0.205151 0.00327912 0)
(0.205147 0.00321617 0)
(0.20514 0.00315582 0)
(0.205129 0.00309788 0)
(0.205116 0.00304217 0)
(0.205098 0.00298854 0)
(0.205078 0.00293685 0)
(0.205054 0.00288697 0)
(0.205026 0.00283877 0)
(0.204994 0.00279216 0)
(0.204958 0.00274703 0)
(0.204919 0.0027033 0)
(0.204875 0.00266087 0)
(0.204827 0.00261968 0)
(0.204775 0.00257965 0)
(0.204719 0.00254071 0)
(0.204658 0.00250282 0)
(0.204593 0.00246591 0)
(0.204523 0.00242992 0)
(0.204448 0.00239482 0)
(0.204369 0.00236057 0)
(0.204285 0.0023271 0)
(0.204196 0.00229441 0)
(0.204102 0.00226243 0)
(0.204003 0.00223115 0)
(0.203899 0.00220053 0)
(0.20379 0.00217055 0)
(0.203676 0.00214118 0)
(0.203557 0.00211238 0)
(0.203432 0.00208415 0)
(0.203302 0.00205646 0)
(0.203167 0.00202929 0)
(0.203027 0.00200262 0)
(0.202881 0.00197643 0)
(0.20273 0.00195071 0)
(0.202574 0.00192545 0)
(0.202413 0.00190062 0)
(0.202246 0.00187622 0)
(0.202073 0.00185224 0)
(0.201896 0.00182866 0)
(0.201713 0.00180548 0)
(0.201524 0.00178268 0)
(0.201331 0.00176026 0)
(0.201132 0.00173822 0)
(0.200928 0.00171654 0)
(0.200718 0.00169523 0)
(0.200503 0.00167427 0)
(0.200283 0.00165368 0)
(0.200058 0.00163344 0)
(0.199828 0.00161356 0)
(0.199592 0.00159404 0)
(0.199351 0.00157489 0)
(0.199106 0.0015561 0)
(0.198855 0.0015377 0)
(0.198599 0.0015197 0)
(0.198338 0.00150211 0)
(0.198072 0.00148497 0)
(0.197801 0.00146832 0)
(0.197525 0.00145221 0)
(0.197244 0.00143674 0)
(0.196959 0.001422 0)
(0.19667 0.00140799 0)
(0.19638 0.00139388 0)
(0.196095 0.00137529 0)
(0.195742 0.00133177 0)
(0.198176 0.00569159 0)
(0.198577 0.0061399 0)
(0.199044 0.00651178 0)
(0.199556 0.00679557 0)
(0.200093 0.00699015 0)
(0.200632 0.00710025 0)
(0.201158 0.00713326 0)
(0.201658 0.00709835 0)
(0.202123 0.00700616 0)
(0.202546 0.00686817 0)
(0.202925 0.00669577 0)
(0.203257 0.00649962 0)
(0.203546 0.00628921 0)
(0.203793 0.00607254 0)
(0.204003 0.00585602 0)
(0.204181 0.00564444 0)
(0.20433 0.00544113 0)
(0.204456 0.00524817 0)
(0.204562 0.00506663 0)
(0.204653 0.00489682 0)
(0.20473 0.00473853 0)
(0.204798 0.00459119 0)
(0.204857 0.00445406 0)
(0.20491 0.0043263 0)
(0.204957 0.00420707 0)
(0.205 0.00409556 0)
(0.20504 0.00399101 0)
(0.205076 0.00389275 0)
(0.205109 0.00380017 0)
(0.20514 0.00371273 0)
(0.205168 0.00362997 0)
(0.205195 0.00355147 0)
(0.20522 0.00347688 0)
(0.205242 0.00340586 0)
(0.205263 0.00333813 0)
(0.205283 0.00327344 0)
(0.2053 0.00321155 0)
(0.205316 0.00315227 0)
(0.20533 0.00309541 0)
(0.205342 0.00304079 0)
(0.205353 0.00298826 0)
(0.205361 0.0029377 0)
(0.205368 0.00288896 0)
(0.205373 0.00284193 0)
(0.205376 0.00279651 0)
(0.205376 0.00275259 0)
(0.205375 0.00271009 0)
(0.205371 0.00266892 0)
(0.205365 0.002629 0)
(0.205356 0.00259027 0)
(0.205345 0.00255266 0)
(0.205332 0.00251611 0)
(0.205315 0.00248056 0)
(0.205297 0.00244595 0)
(0.205275 0.00241225 0)
(0.20525 0.00237941 0)
(0.205223 0.00234737 0)
(0.205192 0.00231611 0)
(0.205158 0.00228559 0)
(0.205121 0.00225577 0)
(0.205081 0.00222662 0)
(0.205037 0.00219811 0)
(0.20499 0.00217022 0)
(0.204939 0.00214291 0)
(0.204885 0.00211616 0)
(0.204827 0.00208996 0)
(0.204765 0.00206427 0)
(0.2047 0.00203908 0)
(0.204631 0.00201437 0)
(0.204558 0.00199012 0)
(0.204481 0.00196632 0)
(0.2044 0.00194295 0)
(0.204314 0.00192 0)
(0.204225 0.00189745 0)
(0.204132 0.0018753 0)
(0.204034 0.00185353 0)
(0.203932 0.00183213 0)
(0.203826 0.0018111 0)
(0.203715 0.00179042 0)
(0.203601 0.0017701 0)
(0.203481 0.00175012 0)
(0.203357 0.00173049 0)
(0.203229 0.0017112 0)
(0.203097 0.00169224 0)
(0.202959 0.00167363 0)
(0.202818 0.00165536 0)
(0.202671 0.00163744 0)
(0.20252 0.00161987 0)
(0.202365 0.00160266 0)
(0.202204 0.00158583 0)
(0.202039 0.0015694 0)
(0.20187 0.0015534 0)
(0.201695 0.00153785 0)
(0.201516 0.0015228 0)
(0.201332 0.0015083 0)
(0.201145 0.00149436 0)
(0.200953 0.00148071 0)
(0.20076 0.00146611 0)
(0.200568 0.00144587 0)