/*--------------------------------*- C++ -*----------------------------------*\
| =========                 |                                                 |
| \\      /  F ield         | OpenFOAM: The Open Source CFD Toolbox           |
|  \\    /   O peration     | Version:  2.3.0                                 |
|   \\  /    A nd           | Web:      www.OpenFOAM.org                      |
|    \\/     M anipulation  |                                                 |
\*---------------------------------------------------------------------------*/
FoamFile
{
    version     2.0;
    format      ascii;
    class       volScalarField;
    location    "0.95";
    object      p;
}
// * * * * * * * * * * * * * * * * * * * * * * * * * * * * * * * * * * * * * //

dimensions      [0 2 -2 0 0 0 0];

internalField   nonuniform List<scalar> 
3105
(
0.00252359
0.00222486
0.00163323
0.0010699
0.000600203
0.000202359
-0.000133732
-0.000392587
-0.000555512
-0.000626105
-0.000629221
-0.000595212
-0.000547838
-0.000501375
-0.000462435
-0.000432555
-0.000410557
-0.000394328
-0.000381833
-0.00037151
-0.00036231
-0.000353608
-0.000345076
-0.000336579
-0.000328085
-0.000319614
-0.000311202
-0.000302887
-0.000294696
-0.000286651
-0.000278762
-0.000271037
-0.000263475
-0.000256077
-0.000248837
-0.000241755
-0.000234826
-0.000228049
-0.000221419
-0.000214937
-0.000208598
-0.000202406
-0.000196354
-0.000190448
-0.00018468
-0.000179057
-0.00017357
-0.000168226
-0.000163016
-0.000157947
-0.000153008
-0.000148208
-0.000143533
-0.000138994
-0.000134575
-0.000130289
-0.000126116
-0.000122072
-0.000118135
-0.000114323
-0.00011061
-0.000107017
-0.000103515
-0.000100129
-9.68233e-05
-9.36305e-05
-9.05073e-05
-8.74928e-05
-8.4536e-05
-8.16843e-05
-7.88773e-05
-7.6172e-05
-7.34966e-05
-7.09202e-05
-6.83571e-05
-6.58911e-05
-6.34194e-05
-6.10439e-05
-5.86409e-05
-5.63343e-05
-5.39752e-05
-5.17143e-05
-4.93713e-05
-4.71306e-05
-4.47729e-05
-4.25244e-05
-4.01169e-05
-3.78293e-05
-3.53319e-05
-3.29705e-05
-3.03363e-05
-2.78618e-05
-2.5035e-05
-2.24032e-05
-1.93151e-05
-1.64769e-05
-1.30374e-05
-9.94367e-06
-6.00582e-06
-2.65349e-06
0.00209756
0.00193922
0.00152261
0.00103696
0.000595043
0.000217948
-9.62853e-05
-0.000337963
-0.000496055
-0.000572352
-0.00058533
-0.000561115
-0.00052208
-0.000482123
-0.000447971
-0.000421383
-0.000401536
-0.000386698
-0.000375133
-0.000365476
-0.000356794
-0.000348525
-0.000340373
-0.000332216
-0.00032403
-0.000315837
-0.000307676
-0.000299587
-0.0002916
-0.00028374
-0.000276019
-0.000268446
-0.000261024
-0.000253754
-0.000246632
-0.00023966
-0.000232832
-0.00022615
-0.000219608
-0.000213208
-0.000206946
-0.000200826
-0.000194842
-0.000189
-0.000183292
-0.000177725
-0.000172291
-0.000166997
-0.000161834
-0.00015681
-0.000151914
-0.000147154
-0.000142517
-0.000138015
-0.00013363
-0.000129376
-0.000125235
-0.000121221
-0.000117312
-0.000113527
-0.000109839
-0.000106271
-0.000102791
-9.94284e-05
-9.61437e-05
-9.29718e-05
-8.98676e-05
-8.68724e-05
-8.3933e-05
-8.10992e-05
-7.83078e-05
-7.56191e-05
-7.2958e-05
-7.03972e-05
-6.7847e-05
-6.53955e-05
-6.29355e-05
-6.05737e-05
-5.81812e-05
-5.58876e-05
-5.35377e-05
-5.12891e-05
-4.89543e-05
-4.67254e-05
-4.43747e-05
-4.21376e-05
-3.97358e-05
-3.74595e-05
-3.49664e-05
-3.26161e-05
-2.99846e-05
-2.75215e-05
-2.46955e-05
-2.20756e-05
-1.89857e-05
-1.61608e-05
-1.27153e-05
-9.63743e-06
-5.69276e-06
-2.37755e-06
0.00180081
0.00170477
0.00141622
0.00101456
0.000611104
0.000258896
-3.02248e-05
-0.000253207
-0.00040711
-0.000493453
-0.000523425
-0.000515826
-0.000489969
-0.000459767
-0.000432172
-0.000409588
-0.00039202
-0.000378462
-0.000367672
-0.000358567
-0.000350353
-0.000342525
-0.000334806
-0.000327071
-0.000319288
-0.000311473
-0.000303659
-0.000295883
-0.000288177
-0.000280567
-0.000273068
-0.000265694
-0.000258449
-0.000251338
-0.00024436
-0.000237519
-0.000230809
-0.000224235
-0.000217792
-0.000211485
-0.000205307
-0.000199266
-0.000193355
-0.000187581
-0.000181936
-0.000176429
-0.000171051
-0.00016581
-0.000160696
-0.000155719
-0.000150865
-0.000146147
-0.000141549
-0.000137084
-0.000132733
-0.000128513
-0.000124402
-0.000120419
-0.000116537
-0.00011278
-0.000109117
-0.000105574
-0.000102117
-9.87773e-05
-9.55127e-05
-9.23623e-05
-8.92761e-05
-8.63009e-05
-8.33776e-05
-8.05624e-05
-7.77856e-05
-7.51144e-05
-7.24662e-05
-6.99219e-05
-6.73832e-05
-6.49475e-05
-6.24976e-05
-6.01509e-05
-5.77671e-05
-5.54883e-05
-5.31458e-05
-5.09118e-05
-4.85829e-05
-4.63686e-05
-4.40222e-05
-4.17999e-05
-3.9401e-05
-3.71399e-05
-3.4648e-05
-3.23136e-05
-2.96814e-05
-2.72352e-05
-2.44062e-05
-2.18049e-05
-1.87095e-05
-1.59052e-05
-1.24528e-05
-9.39738e-06
-5.47727e-06
-2.22731e-06
0.00159645
0.00151921
0.00130806
0.000983625
0.000628098
0.000305023
3.85322e-05
-0.000167957
-0.000315861
-0.00040797
-0.000451662
-0.000459957
-0.000448046
-0.000428361
-0.000408199
-0.000390709
-0.000376591
-0.000365391
-0.000356267
-0.000348405
-0.000341178
-0.000334184
-0.000327197
-0.000320123
-0.000312939
-0.000305664
-0.000298332
-0.000290986
-0.000283661
-0.000276389
-0.00026919
-0.000262084
-0.000255078
-0.000248183
-0.0002414
-0.000234736
-0.000228188
-0.000221764
-0.000215457
-0.000209277
-0.000203217
-0.000197285
-0.000191475
-0.000185795
-0.000180238
-0.000174814
-0.000169512
-0.000164343
-0.000159296
-0.000154382
-0.000149587
-0.000144925
-0.000140379
-0.000135964
-0.000131659
-0.000127484
-0.000123414
-0.00011947
-0.000115625
-0.000111904
-0.000108273
-0.000104764
-0.000101335
-9.80254e-05
-9.47867e-05
-9.16637e-05
-8.86007e-05
-8.56506e-05
-8.27482e-05
-7.99563e-05
-7.71981e-05
-7.45487e-05
-7.19171e-05
-6.93933e-05
-6.68694e-05
-6.44531e-05
-6.20163e-05
-5.96882e-05
-5.73159e-05
-5.5055e-05
-5.27225e-05
-5.0506e-05
-4.81857e-05
-4.59887e-05
-4.36496e-05
-4.14445e-05
-3.90514e-05
-3.68078e-05
-3.43204e-05
-3.20041e-05
-2.9375e-05
-2.69478e-05
-2.41206e-05
-2.15394e-05
-1.84454e-05
-1.56614e-05
-1.2216e-05
-9.18187e-06
-5.32399e-06
-2.15198e-06
0.0014349
0.00136323
0.0011974
0.000936908
0.000632864
0.000342858
9.80541e-05
-9.39823e-05
-0.000235181
-0.000329365
-0.00038221
-0.000402914
-0.000402974
-0.000392897
-0.000379846
-0.000367503
-0.000357113
-0.000348638
-0.000341542
-0.000335234
-0.00032925
-0.000323296
-0.000317217
-0.000310957
-0.00030451
-0.000297906
-0.000291183
-0.000284388
-0.000277557
-0.00027073
-0.000263931
-0.000257184
-0.000250502
-0.0002439
-0.000237383
-0.000230961
-0.000224635
-0.000218414
-0.000212295
-0.000206288
-0.000200388
-0.000194605
-0.000188933
-0.000183383
-0.000177947
-0.000172636
-0.000167439
-0.00016237
-0.000157416
-0.000152591
-0.000147878
-0.000143294
-0.00013882
-0.000134475
-0.000130235
-0.000126123
-0.00012211
-0.000118223
-0.000114429
-0.000110759
-0.000107174
-0.00010371
-0.000100323
-9.70544e-05
-9.38528e-05
-9.07675e-05
-8.77378e-05
-8.48222e-05
-8.19497e-05
-7.91896e-05
-7.64583e-05
-7.38382e-05
-7.12309e-05
-6.87343e-05
-6.62323e-05
-6.38415e-05
-6.14244e-05
-5.91203e-05
-5.67659e-05
-5.45279e-05
-5.22115e-05
-5.00169e-05
-4.77113e-05
-4.55355e-05
-4.32097e-05
-4.10255e-05
-3.86447e-05
-3.64218e-05
-3.39457e-05
-3.16502e-05
-2.90322e-05
-2.66257e-05
-2.38105e-05
-2.12494e-05
-1.81708e-05
-1.54051e-05
-1.19883e-05
-8.97518e-06
-5.21139e-06
-2.11956e-06
0.00129736
0.00122857
0.00109103
0.00087999
0.000625012
0.000370177
0.000147268
-3.15533e-05
-0.000166029
-0.000259934
-0.000318385
-0.000348287
-0.000358205
-0.000356667
-0.00035024
-0.00034282
-0.000336068
-0.000330306
-0.000325264
-0.000320549
-0.000315842
-0.000310955
-0.000305803
-0.000300372
-0.000294681
-0.000288772
-0.000282686
-0.000276475
-0.000270177
-0.000263835
-0.000257477
-0.000251133
-0.000244817
-0.000238552
-0.000232342
-0.000226204
-0.000220139
-0.00021416
-0.000208265
-0.000202467
-0.000196762
-0.000191162
-0.00018566
-0.00018027
-0.000174984
-0.000169814
-0.00016475
-0.000159808
-0.000154971
-0.000150258
-0.00014565
-0.000141167
-0.000136787
-0.000132532
-0.000128377
-0.000124345
-0.000120408
-0.000116595
-0.000112869
-0.000109265
-0.000105741
-0.000102338
-9.90062e-05
-9.57926e-05
-9.26411e-05
-8.96058e-05
-8.66214e-05
-8.37516e-05
-8.09203e-05
-7.82021e-05
-7.55082e-05
-7.29267e-05
-7.03535e-05
-6.78926e-05
-6.54217e-05
-6.30641e-05
-6.06756e-05
-5.84025e-05
-5.60744e-05
-5.38656e-05
-5.15737e-05
-4.94068e-05
-4.71241e-05
-4.49748e-05
-4.26708e-05
-4.0512e-05
-3.81525e-05
-3.59541e-05
-3.34995e-05
-3.12275e-05
-2.86325e-05
-2.62483e-05
-2.34595e-05
-2.09185e-05
-1.78743e-05
-1.51254e-05
-1.17629e-05
-8.77323e-06
-5.12711e-06
-2.1072e-06
0.00117709
0.00111135
0.000993734
0.000820323
0.000608003
0.000387654
0.000187194
2.14443e-05
-0.000106352
-0.000198779
-0.000260435
-0.00029692
-0.000314748
-0.000320655
-0.000320326
-0.000317565
-0.000314299
-0.000311166
-0.000308148
-0.000305031
-0.000301622
-0.000297825
-0.000293616
-0.000289025
-0.000284094
-0.00027888
-0.000273433
-0.000267807
-0.000262044
-0.000256192
-0.00025028
-0.000244345
-0.000238403
-0.000232481
-0.000226587
-0.000220742
-0.000214948
-0.000209222
-0.000203563
-0.000197987
-0.000192488
-0.000187084
-0.000181766
-0.000176552
-0.000171429
-0.000166416
-0.0001615
-0.000156698
-0.000151995
-0.000147409
-0.000142921
-0.000138554
-0.000134283
-0.000130133
-0.000126076
-0.000122141
-0.000118294
-0.000114567
-0.000110923
-0.000107399
-0.00010395
-0.000100619
-9.73555e-05
-9.42087e-05
-9.11193e-05
-8.81452e-05
-8.52176e-05
-8.24041e-05
-7.96248e-05
-7.69585e-05
-7.43124e-05
-7.17787e-05
-6.92495e-05
-6.6833e-05
-6.44028e-05
-6.20864e-05
-5.97358e-05
-5.75012e-05
-5.52087e-05
-5.30358e-05
-5.07777e-05
-4.86447e-05
-4.63944e-05
-4.4277e-05
-4.20051e-05
-3.98764e-05
-3.75492e-05
-3.53791e-05
-3.29586e-05
-3.07129e-05
-2.81553e-05
-2.5795e-05
-2.30502e-05
-2.05298e-05
-1.75414e-05
-1.48104e-05
-1.15282e-05
-8.56667e-06
-5.05355e-06
-2.08561e-06
0.00107096
0.00100886
0.000906765
0.000762139
0.000585036
0.00039632
0.000218308
6.60532e-05
-5.47813e-05
-0.000144981
-0.000208246
-0.00024928
-0.000273243
-0.000285425
-0.000290554
-0.000292115
-0.000292142
-0.000291526
-0.000290477
-0.000288949
-0.000286857
-0.000284178
-0.000280938
-0.000277206
-0.000273046
-0.000268535
-0.000263728
-0.000258689
-0.000253462
-0.000248099
-0.000242633
-0.000237105
-0.000231536
-0.000225958
-0.000220381
-0.000214829
-0.000209307
-0.000203836
-0.000198413
-0.000193061
-0.000187772
-0.000182566
-0.000177435
-0.000172398
-0.000167444
-0.000162592
-0.000157828
-0.000153172
-0.000148607
-0.000144155
-0.000139793
-0.000135548
-0.000131393
-0.000127355
-0.000123404
-0.000119571
-0.000115821
-0.00011219
-0.000108636
-0.000105199
-0.000101832
-9.85823e-05
-9.53948e-05
-9.23226e-05
-8.93035e-05
-8.63985e-05
-8.35359e-05
-8.07863e-05
-7.80672e-05
-7.54602e-05
-7.28701e-05
-7.03915e-05
-6.79146e-05
-6.55492e-05
-6.31681e-05
-6.08994e-05
-5.85951e-05
-5.6405e-05
-5.41567e-05
-5.20255e-05
-4.98102e-05
-4.77161e-05
-4.5508e-05
-4.34271e-05
-4.11976e-05
-3.91029e-05
-3.68197e-05
-3.46811e-05
-3.23077e-05
-3.00908e-05
-2.7586e-05
-2.52513e-05
-2.25682e-05
-2.00704e-05
-1.71582e-05
-1.44498e-05
-1.12703e-05
-8.34341e-06
-4.9706e-06
-2.03109e-06
0.000976869
0.000918799
0.000829443
0.000707162
0.000558475
0.000397454
0.000240993
0.000102641
-1.06685e-05
-9.79494e-05
-0.000161675
-0.000205695
-0.000234225
-0.000251482
-0.000261315
-0.000266775
-0.000269858
-0.000271618
-0.000272459
-0.000272485
-0.000271706
-0.000270158
-0.000267905
-0.000265044
-0.000261666
-0.000257861
-0.000253697
-0.000249244
-0.000244552
-0.000239679
-0.00023466
-0.000229542
-0.000224348
-0.000219115
-0.000213856
-0.000208599
-0.000203351
-0.000198136
-0.000192952
-0.000187825
-0.000182747
-0.000177741
-0.000172799
-0.000167942
-0.000163157
-0.000158468
-0.000153858
-0.000149351
-0.000144926
-0.000140609
-0.000136376
-0.000132256
-0.000128218
-0.000124295
-0.000120453
-0.000116727
-0.000113078
-0.000109544
-0.000106083
-0.000102737
-9.94577e-05
-9.62922e-05
-9.31852e-05
-9.01914e-05
-8.72473e-05
-8.44153e-05
-8.16227e-05
-7.89411e-05
-7.62874e-05
-7.37437e-05
-7.12151e-05
-6.87956e-05
-6.63767e-05
-6.40665e-05
-6.17405e-05
-5.95234e-05
-5.72719e-05
-5.51301e-05
-5.2933e-05
-5.08469e-05
-4.8682e-05
-4.66301e-05
-4.44725e-05
-4.24309e-05
-4.02531e-05
-3.81951e-05
-3.59662e-05
-3.38615e-05
-3.1547e-05
-2.93612e-05
-2.69221e-05
-2.46161e-05
-2.20091e-05
-1.95386e-05
-1.67186e-05
-1.40409e-05
-1.09797e-05
-8.09564e-06
-4.86355e-06
-1.93768e-06
0.000893004
0.000839101
0.000760418
0.00065587
0.000530024
0.000392586
0.000256015
0.000131599
2.64327e-05
-5.71879e-05
-0.000120436
-0.000166228
-0.000198006
-0.000219195
-0.000232927
-0.000241796
-0.000247655
-0.000251625
-0.000254256
-0.000255777
-0.000256282
-0.000255853
-0.000254587
-0.000252602
-0.000250006
-0.000246906
-0.000243383
-0.000239515
-0.000235358
-0.000230975
-0.000226404
-0.000221698
-0.000216882
-0.000211998
-0.000207061
-0.000202103
-0.000197133
-0.000192177
-0.000187237
-0.000182338
-0.000177475
-0.000172673
-0.000167923
-0.000163248
-0.000158637
-0.000154113
-0.00014966
-0.000145303
-0.000141022
-0.000136843
-0.000132742
-0.000128748
-0.000124832
-0.000121026
-0.000117296
-0.000113677
-0.000110132
-0.000106698
-0.000103333
-0.00010008
-9.68902e-05
-9.38111e-05
-9.07876e-05
-8.78743e-05
-8.50083e-05
-8.22513e-05
-7.95319e-05
-7.69203e-05
-7.43356e-05
-7.18572e-05
-6.93939e-05
-6.70353e-05
-6.46785e-05
-6.24253e-05
-6.01589e-05
-5.79951e-05
-5.58014e-05
-5.37094e-05
-5.15689e-05
-4.95295e-05
-4.74208e-05
-4.54126e-05
-4.33121e-05
-4.13114e-05
-3.91925e-05
-3.71728e-05
-3.50062e-05
-3.29374e-05
-3.06903e-05
-2.85386e-05
-2.61744e-05
-2.39014e-05
-2.13802e-05
-1.89441e-05
-1.62258e-05
-1.35897e-05
-1.06541e-05
-7.82301e-06
-4.72751e-06
-1.81717e-06
0.000817775
0.000767994
0.000698372
0.000608211
0.000500866
0.000383244
0.000264485
0.000153558
5.69769e-05
-2.22506e-05
-8.41795e-05
-0.000130761
-0.000164705
-0.000188812
-0.000205651
-0.000217402
-0.000225718
-0.00023171
-0.000236009
-0.000238943
-0.000240677
-0.000241336
-0.000241037
-0.000239916
-0.000238095
-0.000235695
-0.000232807
-0.00022952
-0.000225896
-0.000222001
-0.00021788
-0.000213587
-0.000209153
-0.000204621
-0.00020001
-0.000195356
-0.000190668
-0.000185977
-0.000181285
-0.000176619
-0.000171976
-0.000167382
-0.000162828
-0.000158341
-0.000153907
-0.000149553
-0.000145261
-0.000141059
-0.000136925
-0.000132888
-0.000128922
-0.000125058
-0.000121267
-0.00011758
-0.000113966
-0.000110458
-0.00010702
-0.000103689
-0.000100424
-9.72661e-05
-9.41688e-05
-9.11781e-05
-8.82416e-05
-8.54105e-05
-8.26261e-05
-7.99456e-05
-7.73029e-05
-7.47626e-05
-7.22504e-05
-6.98385e-05
-6.7444e-05
-6.51476e-05
-6.28566e-05
-6.06614e-05
-5.84584e-05
-5.63489e-05
-5.42169e-05
-5.21757e-05
-5.00961e-05
-4.81044e-05
-4.60565e-05
-4.40932e-05
-4.20543e-05
-4.0096e-05
-3.8041e-05
-3.60616e-05
-3.39623e-05
-3.19323e-05
-2.97578e-05
-2.76443e-05
-2.536e-05
-2.31262e-05
-2.06952e-05
-1.83026e-05
-1.56898e-05
-1.31073e-05
-1.02978e-05
-7.5311e-06
-4.56642e-06
-1.68926e-06
0.000749836
0.000704035
0.000642207
0.000563933
0.000471759
0.000370739
0.000267611
0.000169327
8.14742e-05
7.25415e-06
-5.25889e-05
-9.91226e-05
-0.000134344
-0.000160503
-0.000179717
-0.000193814
-0.000204239
-0.000212033
-0.000217856
-0.000222101
-0.000224989
-0.00022668
-0.000227312
-0.000227031
-0.000225967
-0.000224253
-0.000221991
-0.000219277
-0.000216179
-0.00021277
-0.000209097
-0.000205218
-0.000201166
-0.000196989
-0.000192707
-0.00018836
-0.00018396
-0.000179537
-0.000175098
-0.00017067
-0.000166252
-0.00016187
-0.000157519
-0.000153223
-0.000148973
-0.000144792
-0.000140667
-0.000136623
-0.000132643
-0.00012875
-0.000124925
-0.000121195
-0.000117534
-0.000113971
-0.000110476
-0.000107083
-0.000103756
-0.000100531
-9.73702e-05
-9.43105e-05
-9.13103e-05
-8.84107e-05
-8.55652e-05
-8.28187e-05
-8.01197e-05
-7.75179e-05
-7.49558e-05
-7.24888e-05
-7.00528e-05
-6.77092e-05
-6.53872e-05
-6.31544e-05
-6.09329e-05
-5.87972e-05
-5.66613e-05
-5.46075e-05
-5.25408e-05
-5.0552e-05
-4.85367e-05
-4.65943e-05
-4.46107e-05
-4.26941e-05
-4.07204e-05
-3.88068e-05
-3.68188e-05
-3.48828e-05
-3.28538e-05
-3.08667e-05
-2.87672e-05
-2.66975e-05
-2.44949e-05
-2.2308e-05
-1.99682e-05
-1.76292e-05
-1.51216e-05
-1.26047e-05
-9.91771e-06
-7.22726e-06
-4.38843e-06
-1.56988e-06
0.000688085
0.000646075
0.000591029
0.00052273
0.000443151
0.000356071
0.000266504
0.000179776
0.000100491
3.16941e-05
-2.54027e-05
-7.11567e-05
-0.000106903
-0.00013438
-0.000155316
-0.000171244
-0.00018341
-0.000192759
-0.000199938
-0.00020537
-0.000209317
-0.000211969
-0.000213477
-0.000213996
-0.000213662
-0.000212614
-0.000210961
-0.000208806
-0.000206225
-0.000203294
-0.000200065
-0.000196597
-0.000192927
-0.000189105
-0.000185155
-0.000181117
-0.000177007
-0.000172856
-0.000168674
-0.000164488
-0.0001603
-0.000156135
-0.000151991
-0.000147892
-0.00014383
-0.000139828
-0.000135875
-0.000131995
-0.000128172
-0.00012443
-0.000120751
-0.000117159
-0.000113632
-0.000110197
-0.000106828
-0.000103553
-0.000100343
-9.72273e-05
-9.41749e-05
-9.1217e-05
-8.83185e-05
-8.55133e-05
-8.27631e-05
-8.01045e-05
-7.74951e-05
-7.4975e-05
-7.24974e-05
-7.01065e-05
-6.77505e-05
-6.54779e-05
-6.32321e-05
-6.10656e-05
-5.8917e-05
-5.68433e-05
-5.47777e-05
-5.27821e-05
-5.07839e-05
-4.885e-05
-4.6902e-05
-4.50117e-05
-4.3095e-05
-4.12284e-05
-3.93221e-05
-3.7457e-05
-3.55379e-05
-3.36498e-05
-3.16924e-05
-2.97539e-05
-2.773e-05
-2.57111e-05
-2.35902e-05
-2.14587e-05
-1.92094e-05
-1.69342e-05
-1.45298e-05
-1.20894e-05
-9.52012e-06
-6.91727e-06
-4.20113e-06
-1.46578e-06
0.000631621
0.000593198
0.000544109
0.000484287
0.00041528
0.00033996
0.000262091
0.000185748
0.000114631
5.14515e-05
-2.3814e-06
-4.6722e-05
-8.23435e-05
-0.000110509
-0.000132593
-0.00014987
-0.000163407
-0.000174043
-0.000182387
-0.000188865
-0.000193761
-0.000197286
-0.000199602
-0.000200868
-0.000201225
-0.000200813
-0.000199746
-0.000198133
-0.000196055
-0.00019359
-0.000190796
-0.000187733
-0.000184443
-0.000180973
-0.000177355
-0.000173627
-0.000169809
-0.000165933
-0.000162011
-0.00015807
-0.000154116
-0.000150173
-0.000146241
-0.000142342
-0.000138473
-0.000134655
-0.00013088
-0.000127167
-0.000123508
-0.000119921
-0.000116393
-0.000112944
-0.000109558
-0.000106255
-0.000103017
-9.98639e-05
-9.67755e-05
-9.37741e-05
-9.08352e-05
-8.79832e-05
-8.5191e-05
-8.24844e-05
-7.98339e-05
-7.7267e-05
-7.47514e-05
-7.23168e-05
-6.99276e-05
-6.76164e-05
-6.53442e-05
-6.31461e-05
-6.09799e-05
-5.88832e-05
-5.68108e-05
-5.48026e-05
-5.28103e-05
-5.08766e-05
-4.89494e-05
-4.70742e-05
-4.51958e-05
-4.33617e-05
-4.15139e-05
-3.97017e-05
-3.78643e-05
-3.60528e-05
-3.42036e-05
-3.23692e-05
-3.04839e-05
-2.86004e-05
-2.66524e-05
-2.46917e-05
-2.26521e-05
-2.05846e-05
-1.84248e-05
-1.62229e-05
-1.39195e-05
-1.15651e-05
-9.10954e-06
-6.60425e-06
-4.00944e-06
-1.37621e-06
0.000579698
0.000544656
0.000500845
0.000448297
0.000388249
0.000322902
0.000255112
0.000187999
0.000124502
6.6937e-05
1.6725e-05
-2.56781e-05
-6.06093e-05
-8.89147e-05
-0.000111642
-0.000129829
-0.000144379
-0.000156026
-0.000165328
-0.000172695
-0.000178417
-0.000182713
-0.000185757
-0.000187708
-0.000188706
-0.000188891
-0.00018838
-0.000187284
-0.000185689
-0.000183675
-0.000181304
-0.000178637
-0.000175719
-0.000172599
-0.000169309
-0.000165891
-0.000162365
-0.000158765
-0.000155105
-0.000151413
-0.000147696
-0.000143978
-0.000140262
-0.000136569
-0.000132898
-0.000129267
-0.000125674
-0.000122135
-0.000118645
-0.000115218
-0.000111846
-0.000108545
-0.000105304
-0.000102139
-9.90359e-05
-9.60111e-05
-9.30491e-05
-9.01666e-05
-8.7346e-05
-8.46047e-05
-8.19233e-05
-7.93199e-05
-7.67734e-05
-7.43027e-05
-7.18849e-05
-6.95402e-05
-6.72433e-05
-6.50161e-05
-6.28312e-05
-6.07119e-05
-5.86286e-05
-5.66059e-05
-5.46126e-05
-5.26743e-05
-5.0758e-05
-4.88905e-05
-4.70368e-05
-4.52249e-05
-4.34181e-05
-4.16451e-05
-3.98678e-05
-3.81152e-05
-3.63481e-05
-3.45957e-05
-3.28176e-05
-3.10427e-05
-2.92304e-05
-2.74086e-05
-2.55367e-05
-2.36416e-05
-2.16834e-05
-1.96878e-05
-1.76173e-05
-1.54968e-05
-1.32933e-05
-1.10326e-05
-8.68884e-06
-6.28914e-06
-3.81572e-06
-1.29712e-06
0.00053168
0.000499825
0.000460725
0.000414479
0.000362083
0.000305242
0.000246142
0.000187183
0.000130685
7.85804e-05
3.21907e-05
-7.86942e-06
-4.16299e-05
-6.9595e-05
-9.25183e-05
-0.000111217
-0.000126442
-0.000138827
-0.000148873
-0.00015696
-0.000163373
-0.000168332
-0.000172014
-0.000174574
-0.000176155
-0.00017689
-0.000176898
-0.000176288
-0.000175151
-0.000173568
-0.000171604
-0.000169321
-0.000166766
-0.000163988
-0.000161023
-0.00015791
-0.000154675
-0.000151351
-0.000147955
-0.000144512
-0.000141035
-0.000137545
-0.000134049
-0.000130565
-0.000127096
-0.000123659
-0.000120253
-0.000116892
-0.000113575
-0.000110313
-0.000107103
-0.000103956
-0.000100865
-9.78427e-05
-9.48799e-05
-9.19883e-05
-8.91575e-05
-8.63992e-05
-8.37014e-05
-8.10761e-05
-7.85098e-05
-7.60147e-05
-7.35764e-05
-7.1207e-05
-6.88909e-05
-6.6641e-05
-6.444e-05
-6.23018e-05
-6.02076e-05
-5.81718e-05
-5.61747e-05
-5.42307e-05
-5.23195e-05
-5.04558e-05
-4.86182e-05
-4.68217e-05
-4.50439e-05
-4.33002e-05
-4.15672e-05
-3.98604e-05
-3.81556e-05
-3.64678e-05
-3.47728e-05
-3.3085e-05
-3.13794e-05
-2.96702e-05
-2.79321e-05
-2.61782e-05
-2.43838e-05
-2.25607e-05
-2.06852e-05
-1.87682e-05
-1.6788e-05
-1.47556e-05
-1.26526e-05
-1.04917e-05
-8.25964e-06
-5.97164e-06
-3.62067e-06
-1.22429e-06
0.000487014
0.000458169
0.000423313
0.000382575
0.000336767
0.000287221
0.000235628
0.000183849
0.000133715
8.68113e-05
4.43117e-05
6.88056e-06
-2.53168e-05
-5.2525e-05
-7.52471e-05
-9.40982e-05
-0.000109685
-0.000122546
-0.000133119
-0.000141752
-0.000148714
-0.000154219
-0.000158439
-0.000161528
-0.000163623
-0.000164853
-0.000165335
-0.000165177
-0.000164468
-0.000163292
-0.000161714
-0.000159798
-0.000157593
-0.000155148
-0.0001525
-0.000149688
-0.000146742
-0.000143692
-0.000140559
-0.000137367
-0.000134131
-0.000130872
-0.000127598
-0.000124327
-0.000121064
-0.000117824
-0.000114609
-0.000111432
-0.000108292
-0.000105201
-0.000102157
-9.91689e-05
-9.62335e-05
-9.33596e-05
-9.05421e-05
-8.77892e-05
-8.50945e-05
-8.24658e-05
-7.98956e-05
-7.73916e-05
-7.49451e-05
-7.25635e-05
-7.02377e-05
-6.79747e-05
-6.57645e-05
-6.36145e-05
-6.15134e-05
-5.9469e-05
-5.74692e-05
-5.55219e-05
-5.36142e-05
-5.17539e-05
-4.9928e-05
-4.81437e-05
-4.63877e-05
-4.46672e-05
-4.2968e-05
-4.12975e-05
-3.96409e-05
-3.80052e-05
-3.63752e-05
-3.47576e-05
-3.31368e-05
-3.15189e-05
-2.98882e-05
-2.82499e-05
-2.65883e-05
-2.49079e-05
-2.31932e-05
-2.1448e-05
-1.96574e-05
-1.78249e-05
-1.59371e-05
-1.39984e-05
-1.19976e-05
-9.94137e-06
-7.82262e-06
-5.65095e-06
-3.42411e-06
-1.15456e-06
0.000445197
0.00041921
0.000388213
0.000352345
0.000312261
0.00026901
0.000223918
0.000178451
0.000134063
9.20402e-05
5.33924e-05
1.87668e-05
-1.15642e-05
-3.7663e-05
-5.98327e-05
-7.85118e-05
-9.41726e-05
-0.000107258
-0.000118147
-0.000127151
-0.000134515
-0.000140441
-0.000145095
-0.000148624
-0.000151159
-0.000152823
-0.000153728
-0.000153979
-0.000153664
-0.000152866
-0.000151651
-0.000150083
-0.000148213
-0.000146088
-0.000143747
-0.000141231
-0.000138568
-0.000135789
-0.000132917
-0.000129976
-0.000126982
-0.000123954
-0.000120905
-0.00011785
-0.000114796
-0.000111757
-0.000108737
-0.000105748
-0.000102791
-9.98757e-05
-9.70024e-05
-9.41787e-05
-9.14036e-05
-8.86836e-05
-8.60164e-05
-8.34077e-05
-8.0854e-05
-7.83605e-05
-7.59228e-05
-7.35455e-05
-7.12234e-05
-6.89608e-05
-6.6752e-05
-6.46008e-05
-6.25008e-05
-6.04558e-05
-5.84586e-05
-5.65133e-05
-5.46117e-05
-5.27579e-05
-5.09433e-05
-4.91717e-05
-4.74344e-05
-4.57346e-05
-4.40634e-05
-4.24237e-05
-4.08062e-05
-3.92138e-05
-3.76365e-05
-3.60768e-05
-3.45247e-05
-3.2982e-05
-3.14384e-05
-2.98955e-05
-2.83423e-05
-2.67801e-05
-2.5198e-05
-2.35962e-05
-2.19643e-05
-2.03022e-05
-1.85995e-05
-1.68567e-05
-1.50643e-05
-1.3224e-05
-1.13282e-05
-9.38088e-06
-7.37785e-06
-5.32621e-06
-3.22554e-06
-1.08582e-06
0.000405785
0.000382496
0.00035505
0.000323559
0.000288504
0.000250718
0.000211278
0.000171364
0.000132138
9.46437e-05
5.97304e-05
2.79914e-05
-2.5636e-07
-2.49589e-05
-4.62713e-05
-6.44858e-05
-7.99538e-05
-9.30292e-05
-0.00010403
-0.000113226
-0.000120841
-0.00012706
-0.000132038
-0.000135912
-0.000138806
-0.000140836
-0.000142107
-0.000142719
-0.000142759
-0.000142306
-0.000141428
-0.000140186
-0.000138632
-0.000136813
-0.000134769
-0.000132538
-0.000130152
-0.00012764
-0.000125026
-0.000122335
-0.000119582
-0.000116788
-0.000113965
-0.000111128
-0.000108287
-0.000105452
-0.000102632
-9.98349e-05
-9.7065e-05
-9.43302e-05
-9.16327e-05
-8.89786e-05
-8.63689e-05
-8.38083e-05
-8.12964e-05
-7.88376e-05
-7.643e-05
-7.40773e-05
-7.1777e-05
-6.9532e-05
-6.73393e-05
-6.52012e-05
-6.31141e-05
-6.108e-05
-5.90947e-05
-5.71601e-05
-5.52712e-05
-5.343e-05
-5.16308e-05
-4.98755e-05
-4.81581e-05
-4.648e-05
-4.48353e-05
-4.32246e-05
-4.1642e-05
-4.00879e-05
-3.85557e-05
-3.7046e-05
-3.55516e-05
-3.40726e-05
-3.26018e-05
-3.11386e-05
-2.96758e-05
-2.82124e-05
-2.67404e-05
-2.5259e-05
-2.37598e-05
-2.22416e-05
-2.0696e-05
-1.91218e-05
-1.75108e-05
-1.58623e-05
-1.41689e-05
-1.24313e-05
-1.06439e-05
-8.8094e-06
-6.92504e-06
-4.99666e-06
-3.02445e-06
-1.01684e-06
0.000368474
0.000347575
0.000323472
0.000295987
0.000265397
0.000232404
0.000197918
0.000162904
0.000128305
9.49722e-05
6.3616e-05
3.47615e-05
8.72999e-06
-1.43599e-05
-3.45615e-05
-5.20543e-05
-6.70869e-05
-7.99311e-05
-9.08458e-05
-0.000100062
-0.000107775
-0.000114152
-0.000119336
-0.000123453
-0.000126618
-0.000128938
-0.000130511
-0.000131431
-0.00013178
-0.000131635
-0.000131061
-0.000130119
-0.000128859
-0.000127328
-0.000125567
-0.000123611
-0.000121494
-0.000119243
-0.000116884
-0.000114439
-0.000111927
-0.000109367
-0.000106771
-0.000104155
-0.000101528
-9.89023e-05
-9.62848e-05
-9.36843e-05
-9.1106e-05
-8.85568e-05
-8.604e-05
-8.3561e-05
-8.11217e-05
-7.87261e-05
-7.6375e-05
-7.40717e-05
-7.18156e-05
-6.96094e-05
-6.74519e-05
-6.53449e-05
-6.32867e-05
-6.12785e-05
-5.93183e-05
-5.74067e-05
-5.5541e-05
-5.3722e-05
-5.19461e-05
-5.02141e-05
-4.8522e-05
-4.68701e-05
-4.52544e-05
-4.36745e-05
-4.21266e-05
-4.06099e-05
-3.912e-05
-3.76561e-05
-3.62133e-05
-3.47909e-05
-3.33833e-05
-3.19895e-05
-3.06039e-05
-2.92249e-05
-2.78467e-05
-2.64674e-05
-2.50806e-05
-2.36845e-05
-2.22724e-05
-2.08422e-05
-1.93872e-05
-1.79053e-05
-1.63902e-05
-1.48404e-05
-1.32501e-05
-1.16194e-05
-9.94405e-06
-8.22608e-06
-6.46367e-06
-4.66163e-06
-2.82048e-06
-9.47063e-07
0.000325608
0.000307766
0.000287589
0.000264409
0.000238559
0.000210658
0.000181422
0.000151604
0.000121949
9.31396e-05
6.5755e-05
4.02421e-05
1.69027e-05
-4.10807e-06
-2.27669e-05
-3.91553e-05
-5.34244e-05
-6.5761e-05
-7.63593e-05
-8.54033e-05
-9.30572e-05
-9.94651e-05
-0.000104753
-0.000109033
-0.000112409
-0.000114977
-0.000116825
-0.000118038
-0.000118694
-0.000118862
-0.000118606
-0.000117982
-0.000117041
-0.000115827
-0.00011438
-0.000112735
-0.000110923
-0.000108973
-0.000106909
-0.000104753
-0.000102524
-0.000100239
-9.7914e-05
-9.55613e-05
-9.31923e-05
-9.08175e-05
-8.8445e-05
-8.6083e-05
-8.37374e-05
-8.14144e-05
-7.91182e-05
-7.68535e-05
-7.4623e-05
-7.24302e-05
-7.02766e-05
-6.81648e-05
-6.60954e-05
-6.40701e-05
-6.20888e-05
-6.01526e-05
-5.82607e-05
-5.64138e-05
-5.46105e-05
-5.28511e-05
-5.11338e-05
-4.94585e-05
-4.7823e-05
-4.6227e-05
-4.46678e-05
-4.3145e-05
-4.16556e-05
-4.01985e-05
-3.87711e-05
-3.73717e-05
-3.59972e-05
-3.46462e-05
-3.33147e-05
-3.20016e-05
-3.07024e-05
-2.94153e-05
-2.81361e-05
-2.68625e-05
-2.55899e-05
-2.4316e-05
-2.30356e-05
-2.17464e-05
-2.04429e-05
-1.91228e-05
-1.77807e-05
-1.64141e-05
-1.50182e-05
-1.3591e-05
-1.21283e-05
-1.06297e-05
-9.09218e-06
-7.51723e-06
-5.90392e-06
-4.25587e-06
-2.57402e-06
-8.6332e-07
0.000280332
0.000265008
0.000247612
0.000228477
0.000207533
0.000184938
0.000161113
0.000136623
0.00011207
8.80103e-05
6.49156e-05
4.3157e-05
2.29978e-05
4.5969e-06
-1.19815e-05
-2.67518e-05
-3.97871e-05
-5.11984e-05
-6.11153e-05
-6.96709e-05
-7.69923e-05
-8.31961e-05
-8.83873e-05
-9.2662e-05
-9.61082e-05
-9.88089e-05
-0.000100841
-0.000102279
-0.00010319
-0.000103638
-0.000103679
-0.000103366
-0.000102746
-0.000101861
-0.000100746
-9.94362e-05
-9.79605e-05
-9.63456e-05
-9.46147e-05
-9.27891e-05
-9.08872e-05
-8.89255e-05
-8.69183e-05
-8.48784e-05
-8.28167e-05
-8.07434e-05
-7.86665e-05
-7.65939e-05
-7.45313e-05
-7.24849e-05
-7.0459e-05
-6.8458e-05
-6.64849e-05
-6.45427e-05
-6.26336e-05
-6.07598e-05
-5.89223e-05
-5.71225e-05
-5.53608e-05
-5.36381e-05
-5.19541e-05
-5.03092e-05
-4.87026e-05
-4.71343e-05
-4.56031e-05
-4.41088e-05
-4.26495e-05
-4.1225e-05
-3.98331e-05
-3.84731e-05
-3.71429e-05
-3.58411e-05
-3.45655e-05
-3.33147e-05
-3.2086e-05
-3.0878e-05
-2.96874e-05
-2.85128e-05
-2.73506e-05
-2.6199e-05
-2.50545e-05
-2.39147e-05
-2.27761e-05
-2.16359e-05
-2.04903e-05
-1.93367e-05
-1.81709e-05
-1.69903e-05
-1.57908e-05
-1.45699e-05
-1.33238e-05
-1.20509e-05
-1.07478e-05
-9.4141e-06
-8.04772e-06
-6.64981e-06
-5.22006e-06
-3.76115e-06
-2.27403e-06
-7.62279e-07
0.000231515
0.000219303
0.000206224
0.00019161
0.000175355
0.000157605
0.000138692
0.000119069
9.92309e-05
7.96447e-05
6.07022e-05
4.27063e-05
2.58726e-05
1.03383e-05
-3.82536e-06
-1.66018e-05
-2.80168e-05
-3.81273e-05
-4.70103e-05
-5.47535e-05
-6.1447e-05
-6.71785e-05
-7.2031e-05
-7.60823e-05
-7.94051e-05
-8.20681e-05
-8.41361e-05
-8.56705e-05
-8.67289e-05
-8.73653e-05
-8.76296e-05
-8.75675e-05
-8.72202e-05
-8.66251e-05
-8.58156e-05
-8.48218e-05
-8.36705e-05
-8.23858e-05
-8.09891e-05
-7.94996e-05
-7.79345e-05
-7.6309e-05
-7.46361e-05
-7.2928e-05
-7.11947e-05
-6.94457e-05
-6.76887e-05
-6.59308e-05
-6.41776e-05
-6.24348e-05
-6.07067e-05
-5.89971e-05
-5.73092e-05
-5.56459e-05
-5.40092e-05
-5.24012e-05
-5.0823e-05
-4.92761e-05
-4.7761e-05
-4.62784e-05
-4.48283e-05
-4.34112e-05
-4.20265e-05
-4.06741e-05
-3.93533e-05
-3.80638e-05
-3.68042e-05
-3.55741e-05
-3.4372e-05
-3.3197e-05
-3.20474e-05
-3.09221e-05
-2.98193e-05
-2.87377e-05
-2.76749e-05
-2.66298e-05
-2.55996e-05
-2.45831e-05