/*--------------------------------*- C++ -*----------------------------------*\
| =========                 |                                                 |
| \\      /  F ield         | OpenFOAM: The Open Source CFD Toolbox           |
|  \\    /   O peration     | Version:  2.3.0                                 |
|   \\  /    A nd           | Web:      www.OpenFOAM.org                      |
|    \\/     M anipulation  |                                                 |
\*---------------------------------------------------------------------------*/
FoamFile
{
    version     2.0;
    format      ascii;
    class       surfaceScalarField;
    location    "0.95";
    object      phi;
}
// * * * * * * * * * * * * * * * * * * * * * * * * * * * * * * * * * * * * * //

dimensions      [0 3 -1 0 0 0 0];

internalField   nonuniform List<scalar> 
6068
(
2.91044e-08
2.73931e-09
-3.18437e-08
2.56759e-08
3.42848e-09
2.22598e-08
3.41608e-09
1.90908e-08
3.16901e-09
1.6203e-08
2.88783e-09
1.36683e-08
2.53466e-09
1.15758e-08
2.0925e-09
9.94496e-09
1.63085e-09
8.74348e-09
1.20148e-09
7.89077e-09
8.5271e-10
7.29206e-09
5.98706e-10
6.86475e-09
4.2731e-10
6.54682e-09
3.17938e-10
6.29521e-09
2.51605e-10
6.08132e-09
2.13891e-10
5.8884e-09
1.92925e-10
5.70824e-09
1.80156e-10
5.53768e-09
1.7056e-10
5.37595e-09
1.6173e-10
5.22312e-09
1.52831e-10
5.07934e-09
1.43778e-10
4.94455e-09
1.34794e-10
4.81842e-09
1.26126e-10
4.70044e-09
1.17984e-10
4.58996e-09
1.10471e-10
4.48633e-09
1.03639e-10
4.38887e-09
9.74547e-11
4.29699e-09
9.18843e-11
4.21014e-09
8.68463e-11
4.12785e-09
8.22923e-11
4.04971e-09
7.81398e-11
3.97535e-09
7.43549e-11
3.90449e-09
7.08671e-11
3.83682e-09
6.76617e-11
3.77215e-09
6.4679e-11
3.71022e-09
6.1921e-11
3.65089e-09
5.93338e-11
3.59396e-09
5.69327e-11
3.53929e-09
5.46655e-11
3.48673e-09
5.25582e-11
3.43618e-09
5.05566e-11
3.38748e-09
4.86965e-11
3.34056e-09
4.69195e-11
3.29529e-09
4.52706e-11
3.25161e-09
4.36853e-11
3.20939e-09
4.22184e-11
3.16859e-09
4.07976e-11
3.1291e-09
3.94888e-11
3.09089e-09
3.82097e-11
3.05385e-09
3.70389e-11
3.01797e-09
3.58821e-11
2.98314e-09
3.48325e-11
2.94936e-09
3.37815e-11
2.91652e-09
3.28391e-11
2.88464e-09
3.18796e-11
2.85361e-09
3.10327e-11
2.82345e-09
3.01527e-11
2.79406e-09
2.93916e-11
2.76548e-09
2.85804e-11
2.73758e-09
2.78971e-11
2.71044e-09
2.7145e-11
2.68391e-09
2.65331e-11
2.65807e-09
2.58315e-11
2.63279e-09
2.52858e-11
2.60816e-09
2.4627e-11
2.58402e-09
2.41435e-11
2.5605e-09
2.35202e-11
2.5374e-09
2.30959e-11
2.5149e-09
2.2501e-11
2.49277e-09
2.21343e-11
2.47121e-09
2.1561e-11
2.44995e-09
2.12514e-11
2.42926e-09
2.06928e-11
2.40882e-09
2.04408e-11
2.38893e-09
1.989e-11
2.36923e-09
1.96975e-11
2.35009e-09
1.9147e-11
2.33107e-09
1.90176e-11
2.31261e-09
1.84591e-11
2.29421e-09
1.83981e-11
2.27639e-09
1.78228e-11
2.25855e-09
1.78374e-11
2.24132e-09
1.72346e-11
2.22398e-09
1.7335e-11
2.20729e-09
1.66924e-11
2.1904e-09
1.68921e-11
2.1742e-09
1.61947e-11
2.15769e-09
1.65117e-11
2.14195e-09
1.57411e-11
2.12575e-09
1.61994e-11
2.11042e-09
1.5332e-11
2.09445e-09
1.59648e-11
2.07948e-09
1.49695e-11
2.06366e-09
1.58233e-11
2.049e-09
1.46578e-11
2.0332e-09
1.58029e-11
2.01879e-09
1.44046e-11
2.00281e-09
1.59802e-11
1.98851e-09
1.42996e-11
1.85199e-11
3.43483e-08
2.45642e-09
-3.40654e-08
3.41823e-08
3.59444e-09
3.35029e-08
4.09554e-09
3.25378e-08
4.13411e-09
3.14016e-08
4.02404e-09
3.01227e-08
3.81355e-09
2.87304e-08
3.48472e-09
2.72982e-08
3.06305e-09
2.58981e-08
2.60167e-09
2.4582e-08
2.16877e-09
2.33733e-08
1.80735e-09
2.2275e-08
1.52563e-09
2.12829e-08
1.31011e-09
2.03922e-08
1.14227e-09
1.95925e-08
1.01362e-09
1.88721e-08
9.13322e-10
1.822e-08
8.32269e-10
1.76264e-08
7.64159e-10
1.7083e-08
7.0505e-10
1.65832e-08
6.52672e-10
1.61213e-08
6.05692e-10
1.56927e-08
5.63364e-10
1.52937e-08
5.2516e-10
1.49209e-08
4.90719e-10
1.45717e-08
4.59675e-10
1.42436e-08
4.31725e-10
1.39346e-08
4.06505e-10
1.36428e-08
3.8373e-10
1.33665e-08
3.63066e-10
1.31045e-08
3.44285e-10
1.28556e-08
3.27107e-10
1.26186e-08
3.11375e-10
1.23926e-08
2.96865e-10
1.21767e-08
2.83482e-10
1.19704e-08
2.71047e-10
1.17728e-08
2.59513e-10
1.15834e-08
2.48727e-10
1.14016e-08
2.38684e-10
1.12271e-08
2.29242e-10
1.10592e-08
2.20427e-10
1.08976e-08
2.12103e-10
1.0742e-08
2.04318e-10
1.0592e-08
1.96934e-10
1.04472e-08
1.90025e-10
1.03075e-08
1.83442e-10
1.01724e-08
1.77283e-10
1.00418e-08
1.71387e-10
9.91545e-09
1.65875e-10
9.79309e-09
1.60572e-10
9.6745e-09
1.55623e-10
9.55955e-09
1.50833e-10
9.44801e-09
1.46376e-10
9.33976e-09
1.42031e-10
9.23459e-09
1.38007e-10
9.13242e-09
1.34052e-10
9.03304e-09
1.30411e-10
8.9364e-09
1.26797e-10
8.84229e-09
1.23497e-10
8.75069e-09
1.20182e-10
8.6614e-09
1.17188e-10
8.57441e-09
1.14136e-10
8.48952e-09
1.11419e-10
8.40676e-09
1.08597e-10
8.32591e-09
1.06131e-10
8.24703e-09
1.03512e-10
8.1699e-09
1.01276e-10
8.09458e-09
9.88331e-11
8.02087e-09
9.6811e-11
7.94885e-09
9.45211e-11
7.87828e-09
9.26992e-11
7.8093e-09
9.05408e-11
7.74165e-09
8.89087e-11
7.67548e-09
8.68615e-11
7.6105e-09
8.54124e-11
7.54694e-09
8.34569e-11
7.48445e-09
8.21875e-11
7.42329e-09
8.03048e-11
7.36309e-09
7.92151e-11
7.30417e-09
7.7386e-11
7.24608e-09
7.64802e-11
7.18922e-09
7.46856e-11
7.13309e-09
7.39721e-11
7.07813e-09
7.21912e-11
7.02378e-09
7.16841e-11
6.97058e-09
6.98948e-11
6.91786e-09
6.96147e-11
6.86626e-09
6.7792e-11
6.815e-09
6.77676e-11
6.76486e-09
6.58838e-11
6.7149e-09
6.61541e-11
6.66606e-09
6.41771e-11
6.61723e-09
6.47953e-11
6.56951e-09
6.26887e-11
6.52161e-09
6.37269e-11
6.47481e-09
6.14509e-11
6.4276e-09
6.30121e-11
6.38148e-09
6.05283e-11
6.33461e-09
6.28552e-11
6.28855e-09
6.03516e-11
6.70425e-11
3.58508e-08
2.32505e-09
-3.57194e-08
3.62371e-08
3.20819e-09
3.64697e-08
3.86293e-09
3.65177e-08
4.08607e-09
3.6446e-08
4.09571e-09
3.62542e-08
4.00536e-09
3.59157e-08
3.82329e-09
3.54344e-08
3.54436e-09
3.48391e-08
3.19691e-09
3.4171e-08
2.83685e-09
3.34653e-08
2.51304e-09
3.27448e-08
2.24615e-09
3.20228e-08
2.03215e-09
3.13066e-08
1.85849e-09
3.06033e-08
1.71685e-09
2.99173e-08
1.59931e-09
2.92508e-08
1.49881e-09
2.86048e-08
1.41013e-09
2.79801e-08
1.32981e-09
2.73769e-08
1.25588e-09
2.67954e-08
1.18719e-09
2.62356e-08
1.12317e-09
2.56973e-08
1.06344e-09
2.51802e-08
1.0078e-09
2.46838e-08
9.56037e-10
2.42076e-08
9.07982e-10
2.37507e-08
8.6336e-10
2.33125e-08
8.2197e-10
2.28921e-08
7.8351e-10
2.24886e-08
7.47785e-10
2.21012e-08
7.14504e-10
2.1729e-08
6.8351e-10
2.13713e-08
6.5454e-10
2.10273e-08
6.27483e-10
2.06963e-08
6.02104e-10
2.03775e-08
5.78336e-10
2.00702e-08
5.55967e-10
1.97739e-08
5.34969e-10
1.9488e-08
5.15144e-10
1.9212e-08
4.96498e-10
1.89452e-08
4.78841e-10
1.86873e-08
4.62208e-10
1.84379e-08
4.46411e-10
1.81964e-08
4.31514e-10
1.79625e-08
4.17324e-10
1.77358e-08
4.03932e-10
1.75161e-08
3.91138e-10
1.73029e-08
3.79058e-10
1.7096e-08
3.67481e-10
1.68951e-08
3.56553e-10
1.66999e-08
3.46042e-10
1.65101e-08
3.36128e-10
1.63256e-08
3.26557e-10
1.6146e-08
3.17541e-10
1.59713e-08
3.08799e-10
1.58011e-08
3.00582e-10
1.56353e-08
2.92576e-10
1.54738e-08
2.85072e-10
1.53162e-08
2.7772e-10
1.51626e-08
2.70857e-10
1.50126e-08
2.64086e-10
1.48662e-08
2.57801e-10
1.47233e-08
2.5155e-10
1.45836e-08
2.45787e-10
1.44471e-08
2.40001e-10
1.43137e-08
2.34713e-10
1.41832e-08
2.29343e-10
1.40555e-08
2.2449e-10
1.39305e-08
2.19491e-10
1.38082e-08
2.15039e-10
1.36884e-08
2.10371e-10
1.3571e-08
2.06291e-10
1.34559e-08
2.0192e-10
1.33432e-08
1.98188e-10
1.32325e-08
1.94082e-10
1.3124e-08
1.90678e-10
1.30175e-08
1.86808e-10
1.2913e-08
1.83719e-10
1.28104e-08
1.80058e-10
1.27096e-08
1.77276e-10
1.26105e-08
1.738e-10
1.25131e-08
1.71322e-10
1.24173e-08
1.68007e-10
1.23231e-08
1.65836e-10
1.22304e-08
1.62664e-10
1.21392e-08
1.6081e-10
1.20492e-08
1.57761e-10
1.19607e-08
1.56243e-10
1.18733e-08
1.53302e-10
1.17873e-08
1.52149e-10
1.17022e-08
1.49306e-10
1.16184e-08
1.48558e-10
1.15353e-08
1.4581e-10
1.14535e-08
1.45529e-10
1.13721e-08
1.42885e-10
1.12919e-08
1.43178e-10
1.12118e-08
1.40648e-10
1.11327e-08
1.41945e-10
1.10532e-08
1.39789e-10
1.46098e-10
3.7387e-08
2.27478e-09
-3.73367e-08
3.76773e-08
2.91782e-09
3.80256e-08
3.51468e-09
3.82938e-08
3.8178e-09
3.84997e-08
3.88989e-09
3.86584e-08
3.8466e-09
3.87494e-08
3.73231e-09
3.87488e-08
3.54495e-09
3.86501e-08
3.29559e-09
3.84676e-08
3.01936e-09
3.82237e-08
2.75699e-09
3.79375e-08
2.53236e-09
3.76202e-08
2.34941e-09
3.72778e-08
2.20088e-09
3.69162e-08
2.07848e-09
3.65399e-08
1.97557e-09
3.61521e-08
1.88661e-09
3.57549e-08
1.80735e-09
3.535e-08
1.73476e-09
3.49389e-08
1.66697e-09
3.45232e-08
1.60287e-09
3.41044e-08
1.54192e-09
3.36841e-08
1.48377e-09
3.32636e-08
1.42833e-09
3.28441e-08
1.37547e-09
3.24269e-08
1.32516e-09
3.2013e-08
1.27726e-09
3.16033e-08
1.23171e-09
3.11985e-08
1.18833e-09
3.07992e-08
1.14704e-09
3.04061e-08
1.10768e-09
3.00194e-08
1.07017e-09
2.96396e-08
1.03436e-09
2.92669e-08
1.0002e-09
2.89014e-08
9.67528e-10
2.85434e-08
9.36341e-10
2.81929e-08
9.06486e-10
2.78499e-08
8.77967e-10
2.75144e-08
8.50643e-10
2.71864e-08
8.24534e-10
2.68657e-08
7.99499e-10
2.65524e-08
7.75571e-10
2.62462e-08
7.52612e-10
2.5947e-08
7.30665e-10
2.56547e-08
7.09589e-10
2.53692e-08
6.89439e-10
2.50903e-08
6.70072e-10
2.48178e-08
6.51555e-10
2.45515e-08
6.3374e-10
2.42914e-08
6.16704e-10
2.40371e-08
6.00297e-10
2.37887e-08
5.84607e-10
2.35457e-08
5.69479e-10
2.33083e-08
5.55012e-10
2.3076e-08
5.41045e-10
2.28489e-08
5.27689e-10
2.26267e-08
5.14779e-10
2.24093e-08
5.02434e-10
2.21966e-08
4.90485e-10
2.19884e-08
4.79062e-10
2.17845e-08
4.67989e-10
2.15849e-08
4.57405e-10
2.13893e-08
4.47132e-10
2.11978e-08
4.37314e-10
2.101e-08
4.27772e-10
2.0826e-08
4.18655e-10
2.06456e-08
4.09782e-10
2.04688e-08
4.01307e-10
2.02952e-08
3.93048e-10
2.01251e-08
3.85161e-10
1.9958e-08
3.77467e-10
1.97942e-08
3.70121e-10
1.96332e-08
3.62951e-10
1.94752e-08
3.56103e-10
1.93199e-08
3.49418e-10
1.91676e-08
3.43031e-10
1.90176e-08
3.368e-10
1.88704e-08
3.30842e-10
1.87255e-08
3.25039e-10
1.85833e-08
3.19483e-10
1.8443e-08
3.14087e-10
1.83054e-08
3.08909e-10
1.81695e-08
3.03907e-10
1.80362e-08
2.99091e-10
1.79044e-08
2.94475e-10
1.77752e-08
2.90009e-10
1.76472e-08
2.85781e-10
1.75218e-08
2.81661e-10
1.73972e-08
2.77833e-10
1.72753e-08
2.74065e-10
1.7154e-08
2.70659e-10
1.70353e-08
2.67267e-10
1.69168e-08
2.64318e-10
1.68009e-08
2.61362e-10
1.66849e-08
2.58903e-10
1.65715e-08
2.56553e-10
1.64576e-08
2.54579e-10
1.6346e-08
2.53521e-10
1.62335e-08
2.52278e-10
2.56043e-10
3.89782e-08
2.22512e-09
-3.89286e-08
3.91777e-08
2.71837e-09
3.94846e-08
3.20774e-09
3.97731e-08
3.52935e-09
4.00145e-08
3.64843e-09
4.02258e-08
3.63537e-09
4.04077e-08
3.55033e-09
4.05429e-08
3.40974e-09
4.0617e-08
3.22154e-09
4.06303e-08
3.00603e-09
4.05956e-08
2.79168e-09
4.0527e-08
2.60103e-09
4.04332e-08
2.44318e-09
4.03188e-08
2.31525e-09
4.0187e-08
2.2103e-09
4.00402e-08
2.12233e-09
3.98801e-08
2.04671e-09
3.97075e-08
1.97994e-09
3.95229e-08
1.9194e-09
3.93266e-08
1.86331e-09
3.91189e-08
1.81049e-09
3.89006e-08
1.76028e-09
3.86721e-08
1.71224e-09
3.84342e-08
1.66618e-09
3.81878e-08
1.62194e-09
3.79335e-08
1.57943e-09
3.76723e-08
1.53853e-09
3.74048e-08
1.49916e-09
3.71319e-08
1.4612e-09
3.68544e-08
1.42458e-09
3.65729e-08
1.38918e-09
3.62881e-08
1.35494e-09
3.60007e-08
1.32176e-09
3.57113e-08
1.2896e-09
3.54205e-08
1.25838e-09
3.51287e-08
1.22808e-09
3.48366e-08
1.19865e-09
3.45445e-08
1.17006e-09
3.42528e-08
1.14227e-09
3.39621e-08
1.11527e-09
3.36726e-08
1.08903e-09
3.33846e-08
1.06353e-09
3.30985e-08
1.03876e-09
3.28144e-08
1.01469e-09
3.25327e-08
9.9132e-10
3.22536e-08
9.68603e-10
3.1977e-08
9.46576e-10
3.17034e-08
9.25154e-10
3.14328e-08
9.04404e-10
3.11653e-08
8.84214e-10
3.09009e-08
8.64682e-10
3.06398e-08
8.45661e-10
3.0382e-08
8.27287e-10
3.01277e-08
8.09374e-10
2.98766e-08
7.92099e-10
2.96291e-08
7.75232e-10
2.93848e-08
7.59001e-10
2.91442e-08
7.43117e-10
2.89068e-08
7.27876e-10
2.86729e-08
7.12915e-10
2.84423e-08
6.9861e-10
2.82152e-08
6.84512e-10
2.79912e-08
6.71093e-10
2.77707e-08
6.57801e-10
2.75533e-08
6.4522e-10
2.73393e-08
6.32677e-10
2.71282e-08
6.20891e-10
2.69204e-08
6.09043e-10
2.67155e-08
5.98012e-10
2.65138e-08
5.86805e-10
2.63148e-08
5.76494e-10
2.6119e-08
5.65878e-10
2.59257e-08
5.56258e-10
2.57356e-08
5.46183e-10
2.55478e-08
5.37229e-10
2.53632e-08
5.2765e-10
2.51807e-08
5.19344e-10
2.50013e-08
5.10215e-10
2.48238e-08
5.02546e-10
2.46494e-08
4.93827e-10
2.44767e-08
4.86792e-10
2.43072e-08
4.78442e-10
2.41391e-08
4.72048e-10
2.39741e-08
4.64032e-10
2.38103e-08
4.58295e-10
2.36497e-08
4.50584e-10
2.349e-08
4.45531e-10
2.33335e-08
4.38104e-10
2.31776e-08
4.33775e-10
2.3025e-08
4.26626e-10
2.28726e-08
4.2307e-10
2.27237e-08
4.16226e-10
2.25745e-08
4.13493e-10
2.24288e-08
4.0705e-10
2.22825e-08
4.05169e-10
2.21397e-08
3.9939e-10
2.19959e-08
3.98348e-10
2.18554e-08
3.94076e-10
2.17135e-08
3.9416e-10
3.9397e-10
4.05973e-08
2.1653e-09
-4.05374e-08
4.07502e-08
2.56544e-09
4.10002e-08
2.95777e-09
4.12674e-08
3.26211e-09
4.15044e-08
3.41145e-09
4.171e-08
3.42977e-09
4.18922e-08
3.36817e-09
4.20449e-08
3.257e-09
4.21575e-08
3.10892e-09
4.22267e-08
2.93682e-09
4.22591e-08
2.75926e-09
4.22655e-08
2.59473e-09
4.22543e-08
2.45436e-09
4.22304e-08
2.33912e-09
4.21963e-08
2.24439e-09
4.21536e-08
2.16501e-09
4.21034e-08
2.09698e-09
4.20459e-08
2.03736e-09
4.19814e-08
1.98397e-09
4.19095e-08
1.93522e-09
4.183e-08
1.88999e-09
4.17427e-08
1.84754e-09
4.16476e-08
1.80739e-09
4.15445e-08
1.7692e-09
4.14337e-08
1.73279e-09
4.13152e-08
1.69795e-09
4.11891e-08
1.66458e-09
4.10558e-08
1.63252e-09
4.09153e-08
1.60166e-09
4.0768e-08
1.57186e-09
4.06142e-08
1.54304e-09
4.04541e-08
1.51505e-09
4.02879e-08
1.48788e-09
4.01162e-08
1.46136e-09
3.9939e-08
1.43553e-09
3.97569e-08
1.41024e-09
3.957e-08
1.38555e-09
3.93787e-08
1.3613e-09
3.91834e-08
1.33761e-09
3.89844e-08
1.31429e-09
3.87819e-08
1.29151e-09
3.85764e-08
1.26904e-09
3.8368e-08
1.24711e-09
3.81573e-08
1.22544e-09
3.79443e-08
1.20433e-09
3.77294e-08
1.18343e-09
3.75129e-08
1.16311e-09
3.72951e-08
1.14296e-09
3.70761e-08
1.12342e-09
3.68563e-08
1.10399e-09
3.66358e-08
1.08522e-09
3.64149e-08
1.06651e-09
3.61937e-08
1.04851e-09
3.59726e-08
1.03049e-09
3.57514e-08
1.01325e-09
3.55308e-08
9.95913e-10
3.53103e-08
9.79416e-10
3.50907e-08
9.62744e-10
3.48716e-08
9.46993e-10
3.46536e-08
9.3096e-10
3.44362e-08
9.15949e-10
3.42202e-08
9.00531e-10
3.4005e-08
8.86252e-10
3.37914e-08
8.71421e-10
3.35788e-08
8.57869e-10
3.33678e-08
8.43595e-10
3.3158e-08
8.30763e-10
3.295e-08
8.17013e-10
3.27431e-08
8.04897e-10
3.25383e-08
7.91636e-10
3.23345e-08
7.80234e-10
3.2133e-08
7.67423e-10
3.19325e-08
7.56737e-10
3.17344e-08
7.44337e-10
3.15372e-08
7.34373e-10
3.13425e-08
7.22343e-10
3.11488e-08
7.1311e-10
3.09576e-08
7.01409e-10
3.07672e-08
6.92926e-10
3.05795e-08
6.8151e-10
3.03925e-08
6.73804e-10
3.02083e-08
6.6263e-10
3.00246e-08
6.55734e-10
2.98439e-08
6.44767e-10
2.96635e-08
6.38724e-10
2.94861e-08
6.27931e-10
2.93089e-08
6.22796e-10
2.91348e-08
6.12159e-10
2.89606e-08
6.07991e-10
2.87897e-08
5.97519e-10
2.86184e-08
5.94383e-10
2.84505e-08
5.8413e-10
2.82819e-08
5.82081e-10
2.81167e-08
5.72195e-10
2.79506e-08
5.71263e-10
2.77879e-08
5.62087e-10
2.7624e-08
5.62303e-10
2.74634e-08
5.54696e-10
2.73011e-08
5.56397e-10
5.51991e-10
4.22499e-08
2.09971e-09
-4.21843e-08
4.23792e-08
2.43612e-09
4.25813e-08
2.75575e-09
4.28171e-08
3.0263e-09
4.30409e-08
3.18763e-09
4.32367e-08
3.23395e-09
4.34074e-08
3.19751e-09
4.35533e-08
3.11104e-09
4.36694e-08
2.99286e-09
4.37521e-08
2.85411e-09
4.38042e-08
2.70713e-09
4.38333e-08
2.56561e-09
4.38475e-08
2.44018e-09
4.38522e-08
2.33448e-09
4.38501e-08
2.24647e-09
4.38429e-08
2.17221e-09
4.38316e-08
2.10829e-09
4.38168e-08
2.05214e-09
4.37987e-08
2.00203e-09
4.37774e-08
1.95657e-09
4.37525e-08
1.91486e-09
4.37239e-08
1.87612e-09
4.36914e-08
1.83993e-09
4.36547e-08
1.80585e-09
4.36138e-08
1.77373e-09
4.35685e-08
1.74325e-09
4.35187e-08
1.71439e-09
4.34644e-08
1.68683e-09
4.34054e-08
1.66062e-09
4.33418e-08
1.63543e-09
4.32735e-08
1.61135e-09
4.32006e-08
1.58803e-09
4.31228e-08
1.56562e-09
4.30404e-08
1.54377e-09
4.29532e-08
1.52269e-09
4.28615e-08
1.502e-09
4.27651e-08
1.48198e-09
4.26641e-08
1.46221e-09
4.25587e-08
1.44307e-09
4.24489e-08
1.42406e-09
4.23348e-08
1.40565e-09
4.22166e-08
1.38727e-09
4.20942e-08
1.3695e-09
4.19679e-08
1.35166e-09
4.18378e-08
1.33446e-09
4.17041e-08
1.31711e-09
4.15668e-08
1.30044e-09
4.14262e-08
1.28352e-09
4.12823e-08
1.26734e-09
4.11355e-08
1.25083e-09
4.09856e-08
1.23514e-09
4.08331e-08
1.219e-09
4.06778e-08
1.20379e-09
4.05203e-08
1.188e-09
4.03603e-08
1.17327e-09
4.01984e-08
1.15783e-09
4.00342e-08
1.14357e-09
3.98685e-08
1.12846e-09
3.97008e-08
1.11469e-09
3.95319e-08
1.09989e-09
3.93612e-08
1.08663e-09
3.91896e-08
1.07213e-09
3.90165e-08
1.05938e-09
3.88427e-08
1.04516e-09
3.86676e-08
1.03295e-09
3.84922e-08
1.01899e-09
3.83157e-08
1.00733e-09
3.81391e-08
9.93617e-10
3.79614e-08
9.82531e-10
3.7784e-08
9.69035e-10
3.76057e-08
9.58548e-10
3.74279e-08
9.45243e-10
3.72493e-08
9.35385e-10
3.70714e-08
9.22242e-10
3.68927e-08
9.13044e-10
3.6715e-08
9.00032e-10
3.65366e-08
8.91533e-10
3.63594e-08
8.78618e-10
3.61814e-08
8.70861e-10
3.60049e-08
8.58011e-10
3.58277e-08
8.51047e-10
3.56521e-08
8.3823e-10
3.54757e-08
8.32115e-10
3.53012e-08
8.19307e-10
3.51258e-08
8.14106e-10
3.49524e-08
8.01292e-10
3.47781e-08
7.97073e-10
3.4606e-08
7.84259e-10
3.44329e-08
7.81094e-10
3.42621e-08
7.6832e-10
3.40902e-08
7.66279e-10
3.39207e-08
7.53643e-10
3.375e-08
7.52787e-10
3.35817e-08
7.40488e-10
3.34121e-08
7.40869e-10
3.32449e-08
7.29297e-10
3.30762e-08
7.31025e-10
3.29099e-08
7.2097e-10
3.27419e-08
7.24373e-10
7.16805e-10
4.39448e-08
2.03335e-09
-4.38784e-08
4.40594e-08
2.32148e-09
4.42265e-08
2.58867e-09
4.44302e-08
2.8226e-09
4.46357e-08
2.98215e-09
4.48212e-08
3.04839e-09
4.4982e-08
3.03676e-09
4.51192e-08
2.97383e-09
4.52318e-08
2.88027e-09
4.53176e-08
2.76828e-09
4.53774e-08
2.64731e-09
4.5416e-08
2.52708e-09
4.54397e-08
2.4164e-09
4.54543e-08
2.31998e-09
4.54627e-08
2.23806e-09
4.54668e-08
2.16808e-09
4.54677e-08
2.10738e-09
4.54662e-08
2.05363e-09
4.54628e-08
2.00548e-09
4.54576e-08
1.96169e-09
4.54508e-08
1.92166e-09
4.54424e-08
1.88456e-09
4.54322e-08
1.85016e-09
4.54201e-08
1.81788e-09
4.54062e-08
1.78769e-09
4.53903e-08
1.75914e-09
4.53723e-08
1.73235e-09
4.53523e-08
1.70685e-09
4.53301e-08
1.68286e-09
4.53056e-08
1.65986e-09
4.52788e-08
1.63816e-09
4.52497e-08
1.61719e-09
4.5218e-08
1.59734e-09
4.51837e-08
1.57798e-09
4.51468e-08
1.55963e-09
4.51072e-08
1.54158e-09
4.50647e-08
1.52445e-09
4.50195e-08
1.50744e-09
4.49713e-08
1.49132e-09
4.49202e-08
1.47516e-09
4.48659e-08
1.45988e-09
4.48088e-08
1.44442e-09
4.47484e-08
1.42985e-09
4.46851e-08
1.41496e-09
4.46186e-08
1.40102e-09
4.45491e-08
1.38661e-09
4.44763e-08
1.37322e-09
4.44006e-08
1.35922e-09
4.43216e-08
1.34632e-09
4.42398e-08
1.33265e-09
4.41547e-08
1.32021e-09
4.40669e-08
1.30683e-09
4.39759e-08
1.29481e-09
4.38822e-08
1.28168e-09
4.37854e-08
1.27007e-09
4.36861e-08
1.25714e-09
4.35837e-08
1.24594e-09
4.3479e-08
1.23317e-09
4.33713e-08
1.22237e-09
4.32614e-08
1.20974e-09
4.31487e-08
1.19934e-09
4.3034e-08
1.18682e-09
4.29166e-08
1.17683e-09
4.27974e-08
1.1644e-09
4.26755e-08
1.15483e-09
4.2552e-08
1.14245e-09
4.2426e-08
1.13333e-09
4.22987e-08
1.12098e-09
4.21689e-08
1.11233e-09
4.20379e-08
1.09997e-09
4.19047e-08
1.09182e-09
4.17705e-08
1.07944e-09
4.1634e-08
1.07182e-09
4.14969e-08
1.05938e-09
4.13576e-08
1.05233e-09
4.12178e-08
1.0398e-09
4.1076e-08
1.03338e-09
4.09339e-08
1.02074e-09
4.07897e-08
1.01498e-09
4.06456e-08
1.0022e-09
4.04994e-08
9.97171e-10
4.03534e-08
9.84237e-10
4.02055e-08
9.79992e-10
4.0058e-08
9.66897e-10
3.99086e-08
9.63504e-10
3.97596e-08
9.50259e-10
3.96089e-08
9.47785e-10
3.94587e-08
9.34426e-10
3.93069e-08
9.32941e-10
3.91556e-08
9.19545e-10
3.90028e-08
9.19114e-10
3.88506e-08
9.05822e-10
3.86969e-08
9.06512e-10
3.85438e-08
8.93561e-10
3.83892e-08
8.95454e-10
3.82353e-08
8.83258e-10
3.80798e-08
8.86534e-10
3.7925e-08
8.75784e-10
3.77686e-08
8.80719e-10
8.72028e-10
4.56882e-08
1.96885e-09
-4.56237e-08
4.57914e-08
2.21825e-09
4.59342e-08
2.44591e-09
4.61093e-08
2.64751e-09
4.62941e-08
2.79732e-09
4.64676e-08
2.87491e-09
4.66198e-08
2.88453e-09
4.67497e-08
2.84394e-09
4.68578e-08
2.77216e-09
4.69437e-08
2.68238e-09
4.70076e-08
2.58344e-09
4.70521e-08
2.48254e-09
4.7082e-08
2.3865e-09
4.71021e-08
2.29989e-09
4.71157e-08
2.22445e-09
4.71249e-08
2.15893e-09
4.71307e-08
2.10157e-09
4.7134e-08
2.05029e-09
4.71354e-08
2.00407e-09
4.71354e-08
1.96174e-09
4.7134e-08
1.92299e-09
4.71316e-08
1.88697e-09
4.71281e-08
1.85366e-09
4.71236e-08
1.82234e-09
4.71182e-08
1.79319e-09
4.71118e-08
1.76554e-09
4.71044e-08
1.73973e-09
4.70961e-08
1.7151e-09
4.70869e-08
1.69209e-09
4.70768e-08
1.66996e-09
4.70657e-08
1.64929e-09
4.70536e-08
1.62924e-09
4.70404e-08
1.6105e-09
4.70263e-08
1.59215e-09
4.70109e-08
1.57502e-09
4.69944e-08
1.55806e-09
4.69766e-08
1.54228e-09
4.69576e-08
1.52648e-09
4.6937e-08
1.51184e-09
4.69152e-08
1.497e-09
4.68917e-08
1.48335e-09
4.68668e-08
1.46932e-09
4.68401e-08
1.45652e-09
4.68119e-08
1.44318e-09
4.67818e-08
1.43114e-09
4.675e-08
1.41837e-09
4.67163e-08
1.40701e-09
4.66807e-08
1.39472e-09
4.66431e-08
1.38398e-09
4.66036e-08
1.3721e-09
4.65619e-08
1.36192e-09
4.65184e-08
1.35039e-09
4.64724e-08
1.34073e-09
4.64247e-08
1.32948e-09
4.63744e-08
1.32031e-09
4.63223e-08
1.30928e-09
4.62676e-08
1.30058e-09
4.62111e-08
1.28972e-09
4.6152e-08
1.28147e-09
4.6091e-08
1.27074e-09
4.60274e-08
1.26294e-09
4.59619e-08
1.25229e-09
4.58938e-08
1.24492e-09
4.58239e-08
1.23431e-09
4.57514e-08
1.22738e-09
4.56771e-08
1.21676e-09
4.56001e-08
1.21028e-09
4.55215e-08
1.19963e-09
4.54402e-08
1.1936e-09
4.53573e-08
1.18287e-09
4.52718e-08
1.17733e-09
4.51847e-08
1.16648e-09
4.50951e-08
1.16143e-09
4.50041e-08
1.15043e-09
4.49105e-08
1.14592e-09
4.48155e-08
1.13475e-09
4.47181e-08
1.13079e-09
4.46195e-08
1.11942e-09
4.45184e-08
1.11606e-09
4.44161e-08
1.10448e-09
4.43115e-08
1.10176e-09
4.42058e-08
1.08995e-09
4.40979e-08
1.08792e-09
4.39889e-08
1.07591e-09
4.38777e-08
1.07461e-09
4.37656e-08
1.06242e-09
4.36515e-08
1.06191e-09
4.35363e-08
1.0496e-09
4.34193e-08
1.04993e-09
4.33013e-08
1.03761e-09
4.31815e-08
1.03883e-09
4.30607e-08
1.02667e-09
4.29383e-08
1.02886e-09
4.28148e-08
1.01712e-09
4.26898e-08
1.02039e-09
4.25636e-08
1.00948e-09
4.24361e-08
1.01404e-09
4.23073e-08
1.00455e-09
4.21774e-08
1.01063e-09
1.00303e-09
4.74847e-08
1.90697e-09
-4.74228e-08
4.75784e-08
2.12458e-09
4.77034e-08
2.32096e-09
4.78549e-08
2.49594e-09
4.80193e-08
2.63298e-09
4.8179e-08
2.71517e-09
4.83226e-08
2.7409e-09
4.84463e-08
2.72024e-09
4.85502e-08
2.66827e-09
4.86349e-08
2.59767e-09
4.87009e-08
2.51747e-09
4.87498e-08
2.43367e-09
4.87846e-08
2.35167e-09
4.88093e-08
2.27523e-09
4.88269e-08
2.20681e-09
4.88396e-08
2.14618e-09
4.88487e-08
2.09251e-09
4.8855e-08
2.04403e-09
4.8859e-08
2.00006e-09
4.88613e-08
1.95942e-09
4.88622e-08
1.92209e-09
4.8862e-08
1.88718e-09
4.88608e-08
1.8549e-09
4.88587e-08
1.82441e-09
4.88558e-08
1.79609e-09
4.88522e-08
1.76909e-09
4.8848e-08
1.74397e-09
4.88433e-08
1.71984e-09
4.88379e-08
1.69741e-09
4.88322e-08
1.67568e-09
4.8826e-08
1.65553e-09
4.88194e-08
1.63582e-09
4.88123e-08
1.61758e-09
4.88049e-08
1.59955e-09
4.8797e-08
1.58294e-09
4.87888e-08
1.56632e-09
4.87799e-08
1.55109e-09
4.87708e-08
1.53566e-09
4.8761e-08
1.52164e-09
4.87507e-08
1.50722e-09
4.87398e-08
1.49426e-09
4.87284e-08
1.48071e-09
4.87163e-08
1.46869e-09
4.87036e-08
1.45589e-09
4.869e-08
1.44472e-09
4.86758e-08
1.43258e-09
4.86606e-08
1.42219e-09
4.86447e-08
1.41061e-09
4.86277e-08
1.40095e-09
4.861e-08
1.38986e-09
4.8591e-08
1.38087e-09
4.85712e-08
1.3702e-09
4.85501e-08
1.36183e-09
4.85281e-08
1.35152e-09
4.85046e-08
1.34376e-09
4.84802e-08
1.33375e-09
4.84542e-08
1.32656e-09
4.84271e-08
1.31679e-09
4.83984e-08
1.31015e-09
4.83686e-08
1.30058e-09
4.83371e-08
1.29446e-09
4.83043e-08
1.28504e-09
4.82698e-08
1.27944e-09
4.8234e-08
1.27011e-09
4.81963e-08
1.26502e-09
4.81574e-08
1.25574e-09
4.81165e-08
1.25115e-09
4.80742e-08
1.24189e-09
4.803e-08
1.2378e-09
4.79844e-08
1.22851e-09
4.79368e-08
1.22493e-09
4.78877e-08
1.21556e-09
4.78366e-08
1.21249e-09
4.77841e-08
1.20303e-09
4.77295e-08
1.20048e-09
4.76733e-08
1.19089e-09
4.76152e-08
1.18888e-09
4.75555e-08
1.17915e-09
4.74939e-08
1.17769e-09
4.74306e-08
1.1678e-09
4.73654e-08
1.16692e-09
4.72985e-08
1.15689e-09
4.72298e-08
1.1566e-09
4.71592e-08
1.14645e-09
4.70871e-08
1.14678e-09
4.70129e-08
1.13655e-09
4.69373e-08
1.13754e-09
4.68596e-08
1.12731e-09
4.67805e-08
1.12899e-09
4.66992e-08
1.11889e-09
4.66168e-08
1.12131e-09
4.65319e-08
1.11151e-09
4.6446e-08
1.11474e-09
4.63577e-08
1.1055e-09
4.62684e-08
1.10968e-09
4.61765e-08
1.1014e-09
4.60837e-08
1.10676e-09
4.59884e-08
1.09993e-09
4.58923e-08
1.10668e-09
1.1017e-09
4.93382e-08
1.8477e-09
-4.92789e-08
4.94237e-08
2.03904e-09
4.95347e-08
2.21001e-09
4.96673e-08
2.36326e-09
4.98129e-08
2.48737e-09
4.99583e-08
2.56978e-09
5.00927e-08
2.60654e-09
5.02105e-08
2.60245e-09
5.03105e-08
2.56823e-09
5.03935e-08
2.51466e-09
5.04603e-08
2.45069e-09
5.05121e-08
2.38188e-09
5.05509e-08
2.31286e-09
5.05796e-08
2.24657e-09
5.06008e-08
2.18559e-09
5.06167e-08
2.13027e-09
5.06286e-08
2.08062e-09
5.06374e-08
2.03527e-09
5.06436e-08
1.99385e-09
5.06478e-08
1.95522e-09
5.06503e-08
1.91956e-09
5.06515e-08
1.88596e-09
5.06516e-08
1.85485e-09
5.06507e-08
1.82528e-09
5.0649e-08
1.79783e-09
5.06466e-08
1.7715e-09
5.06435e-08
1.74705e-09
5.06399e-08
1.72339e-09
5.06359e-08
1.70146e-09
5.06315e-08
1.68006e-09
5.06267e-08
1.66029e-09
5.06217e-08
1.6408e-09
5.06165e-08
1.62286e-09
5.0611e-08
1.60499e-09
5.06053e-08
1.58863e-09
5.05995e-08
1.57211e-09
5.05935e-08
1.55712e-09
5.05874e-08
1.54177e-09
5.05811e-08
1.52798e-09
5.05746e-08
1.51364e-09
5.0568e-08
1.50092e-09
5.05612e-08
1.48746e-09
5.05542e-08
1.47571e-09
5.05471e-08
1.46302e-09
5.05396e-08
1.45216e-09
5.0532e-08
1.44016e-09
5.05241e-08
1.43013e-09
5.0516e-08
1.41872e-09
5.05075e-08
1.40946e-09
5.04987e-08
1.3986e-09
5.04895e-08
1.39007e-09
5.048e-08
1.37968e-09
5.047e-08
1.37184e-09
5.04597e-08
1.36188e-09
5.04487e-08
1.3547e-09
5.04374e-08
1.34511e-09
5.04254e-08
1.33857e-09
5.04129e-08
1.3293e-09
5.03996e-08
1.32337e-09
5.03858e-08
1.31438e-09
5.03713e-08
1.30904e-09
5.0356e-08
1.30027e-09
5.034e-08
1.29551e-09
5.03231e-08
1.28694e-09
5.03054e-08
1.28274e-09
5.02868e-08
1.27431e-09
5.02673e-08
1.27066e-09
5.02469e-08
1.26235e-09
5.02254e-08
1.25924e-09
5.02029e-08
1.251e-09
5.01794e-08
1.24843e-09
5.01548e-08
1.24024e-09
5.01291e-08
1.23819e-09
5.01021e-08
1.23002e-09
5.00741e-08
1.22849e-09
5.00446e-08
1.22032e-09
5.00142e-08
1.21932e-09
4.99822e-08
1.21115e-09
4.99492e-08
1.21067e-09
4.99145e-08
1.20249e-09
4.98789e-08
1.20254e-09
4.98414e-08
1.19437e-09
4.98031e-08
1.19496e-09
4.97627e-08
1.18682e-09
4.97215e-08
1.18796e-09
4.96782e-08
1.17992e-09
4.96341e-08
1.18162e-09
4.95876e-08
1.17377e-09
4.95406e-08
1.17605e-09
4.94909e-08
1.16852e-09
4.94408e-08
1.17144e-09
4.93879e-08
1.16439e-09
4.93346e-08
1.16804e-09
4.92784e-08
1.16172e-09
4.92218e-08
1.16624e-09
4.91622e-08
1.16101e-09
4.91023e-08
1.16666e-09
4.90393e-08
1.16292e-09
4.89761e-08
1.16994e-09
1.16805e-09
5.12519e-08
1.79099e-09
-5.11952e-08
5.13304e-08
1.96054e-09
5.14298e-08
2.1106e-09
5.15472e-08
2.24592e-09
5.16763e-08
2.35821e-09
5.18078e-08
2.43834e-09
5.19323e-08
2.482e-09
5.20439e-08
2.49085e-09
5.21402e-08
2.47193e-09
5.22213e-08
2.43358e-09
5.2288e-08
2.38393e-09
5.23416e-08
2.32832e-09
5.23834e-08
2.27106e-09
5.24155e-08
2.21451e-09
5.24399e-08
2.16112e-09
5.24587e-08
2.11145e-09
5.24732e-08
2.06613e-09
5.24843e-08
2.02417e-09
5.24926e-08
1.98558e-09
5.24986e-08
1.94922e-09
5.25027e-08
1.91548e-09
5.25052e-08
1.88341e-09
5.25064e-08
1.85363e-09
5.25066e-08
1.82513e-09
5.25058e-08
1.79865e-09
5.25042e-08
1.7731e-09
5.25019e-08
1.74937e-09
5.2499e-08
1.72627e-09
5.24956e-08
1.70486e-09
5.24918e-08
1.68383e-09
5.24877e-08
1.66443e-09
5.24833e-08
1.64519e-09
5.24786e-08
1.62751e-09
5.24738e-08
1.60979e-09
5.24688e-08
1.59361e-09
5.24638e-08
1.57719e-09
5.24586e-08
1.56232e-09
5.24533e-08
1.54702e-09
5.2448e-08
1.53332e-09
5.24426e-08
1.51899e-09
5.24372e-08
1.50634e-09
5.24318e-08
1.49287e-09
5.24264e-08
1.48117e-09
5.24209e-08
1.46848e-09
5.24154e-08
1.45766e-09
5.24099e-08
1.44566e-09
5.24044e-08
1.43567e-09
5.23988e-08
1.42428e-09
5.23932e-08
1.41507e-09
5.23875e-08
1.40425e-09
5.23818e-08
1.39578e-09
5.2376e-08
1.38547e-09
5.23702e-08
1.3777e-09
5.23642e-08
1.36786e-09
5.23581e-08
1.36077e-09
5.23519e-08
1.35134e-09
5.23456e-08
1.34491e-09
5.2339e-08
1.33587e-09
5.23323e-08
1.33007e-09
5.23253e-08
1.32136e-09
5.23182e-08
1.31617e-09
5.23107e-08
1.30777e-09
5.2303e-08
1.30318e-09
5.22949e-08
1.29505e-09
5.22866e-08
1.29103e-09
5.22778e-08
1.28315e-09
5.22687e-08
1.2797e-09
5.2259e-08
1.27203e-09
5.22492e-08
1.26912e-09
5.22385e-08
1.26164e-09
5.22277e-08
1.25927e-09
5.2216e-08
1.25195e-09
5.22041e-08
1.2501e-09
5.21911e-08
1.24294e-09
5.2178e-08
1.2416e-09
5.21638e-08
1.23458e-09
5.21494e-08
1.23375e-09
5.21336e-08
1.22686e-09
5.21178e-08
1.22653e-09
5.21005e-08
1.2198e-09
5.2083e-08
1.21997e-09
5.2064e-08
1.21341e-09
5.20449e-08
1.21407e-09
5.2024e-08
1.20773e-09
5.2003e-08
1.20889e-09
5.19801e-08
1.20282e-09
5.19572e-08
1.2045e-09
5.19322e-08
1.19879e-09
5.19073e-08
1.20102e-09
5.188e-08
1.19579e-09
5.18528e-08
1.19864e-09
5.18231e-08
1.19404e-09
5.17936e-08
1.19761e-09
5.17614e-08
1.19388e-09
5.17293e-08
1.19833e-09
5.16946e-08
1.19577e-09
5.16598e-08
1.20137e-09
5.16224e-08
1.20035e-09
5.1585e-08
1.20738e-09
1.20819e-09
5.32292e-08
1.73689e-09
-5.31751e-08
5.33015e-08
1.88826e-09
5.33912e-08
2.02098e-09
5.34957e-08
2.14136e-09
5.36107e-08
2.24321e-09
5.37292e-08
2.31988e-09
5.38438e-08
2.36742e-09
5.39487e-08
2.38587e-09
5.40411e-08
2.37962e-09
5.412e-08
2.35461e-09
5.41862e-08
2.31773e-09
5.42407e-08
2.27387e-09
5.42845e-08
2.22719e-09
5.43193e-08
2.17976e-09
5.43466e-08
2.13383e-09
5.4368e-08
2.08999e-09
5.43849e-08
2.04925e-09
5.43982e-08
2.01092e-09
5.44084e-08
1.97534e-09
5.44162e-08
1.94148e-09
5.44218e-08
1.90986e-09
5.44256e-08
1.87954e-09
5.4428e-08
1.85124e-09
5.44292e-08
1.82398e-09