/*--------------------------------*- C++ -*----------------------------------*\
| =========                 |                                                 |
| \\      /  F ield         | OpenFOAM: The Open Source CFD Toolbox           |
|  \\    /   O peration     | Version:  2.3.0                                 |
|   \\  /    A nd           | Web:      www.OpenFOAM.org                      |
|    \\/     M anipulation  |                                                 |
\*---------------------------------------------------------------------------*/
FoamFile
{
    version     2.0;
    format      ascii;
    class       volVectorField;
    location    "0.95";
    object      U;
}
// * * * * * * * * * * * * * * * * * * * * * * * * * * * * * * * * * * * * * //

dimensions      [0 1 -1 0 0 0 0];

internalField   nonuniform List<vector> 
3105
(
(0.176796 0.0043445 0)
(0.156086 0.00594972 0)
(0.137389 0.00612155 0)
(0.119253 0.00553049 0)
(0.101762 0.00473147 0)
(0.0857168 0.00384853 0)
(0.0721542 0.00288943 0)
(0.0614937 0.00187652 0)
(0.0535645 0.000988281 0)
(0.0478415 0.000380515 0)
(0.0437585 5.37407e-05 0)
(0.0408418 -8.0763e-05 0)
(0.0387098 -0.000107106 0)
(0.0370776 -8.23824e-05 0)
(0.0357419 -3.8883e-05 0)
(0.0345733 4.31543e-06 0)
(0.0335007 3.7777e-05 0)
(0.0324914 5.93682e-05 0)
(0.0315341 7.07985e-05 0)
(0.0306272 7.49831e-05 0)
(0.0297717 7.46278e-05 0)
(0.0289679 7.18025e-05 0)
(0.0282151 6.78528e-05 0)
(0.0275105 6.35963e-05 0)
(0.0268512 5.94432e-05 0)
(0.0262331 5.55976e-05 0)
(0.0256527 5.20949e-05 0)
(0.025106 4.89443e-05 0)
(0.0245901 4.609e-05 0)
(0.0241015 4.35139e-05 0)
(0.0236383 4.11536e-05 0)
(0.0231978 3.90025e-05 0)
(0.0227785 3.70057e-05 0)
(0.0223781 3.51715e-05 0)
(0.021996 3.34502e-05 0)
(0.0216301 3.18624e-05 0)
(0.02128 3.03595e-05 0)
(0.0209438 2.8972e-05 0)
(0.0206217 2.76493e-05 0)
(0.0203116 2.64304e-05 0)
(0.0200139 2.52604e-05 0)
(0.0197268 2.41865e-05 0)
(0.0194509 2.31479e-05 0)
(0.019184 2.22e-05 0)
(0.0189274 2.12747e-05 0)
(0.0186787 2.04371e-05 0)
(0.0184393 1.96097e-05 0)
(0.0182067 1.88685e-05 0)
(0.0179828 1.81255e-05 0)
(0.0177646 1.74691e-05 0)
(0.0175546 1.67986e-05 0)
(0.0173494 1.62169e-05 0)
(0.017152 1.56086e-05 0)
(0.0169585 1.50932e-05 0)
(0.0167725 1.45382e-05 0)
(0.0165895 1.40821e-05 0)
(0.0164139 1.35726e-05 0)
(0.0162405 1.317e-05 0)
(0.0160744 1.26991e-05 0)
(0.0159095 1.23453e-05 0)
(0.0157522 1.19067e-05 0)
(0.0155951 1.15981e-05 0)
(0.0154458 1.1186e-05 0)
(0.0152958 1.09199e-05 0)
(0.015154 1.05291e-05 0)
(0.0150103 1.03034e-05 0)
(0.0148755 9.92888e-06 0)
(0.0147375 9.74226e-06 0)
(0.0146092 9.37909e-06 0)
(0.0144764 9.23122e-06 0)
(0.0143542 8.87457e-06 0)
(0.0142259 8.76579e-06 0)
(0.0141096 8.4106e-06 0)
(0.0139853 8.34214e-06 0)
(0.0138746 7.98315e-06 0)
(0.0137538 7.9573e-06 0)
(0.0136485 7.58876e-06 0)
(0.0135305 7.6088e-06 0)
(0.0134306 7.22426e-06 0)
(0.0133148 7.29487e-06 0)
(0.0132202 6.88718e-06 0)
(0.013106 7.01444e-06 0)
(0.0130168 6.57498e-06 0)
(0.0129035 6.76718e-06 0)
(0.0128198 6.28578e-06 0)
(0.0127066 6.55368e-06 0)
(0.0126287 6.01765e-06 0)
(0.0125146 6.3755e-06 0)
(0.0124429 5.76911e-06 0)
(0.0123268 6.23585e-06 0)
(0.0122619 5.53834e-06 0)
(0.0121424 6.14033e-06 0)
(0.0120852 5.32348e-06 0)
(0.0119604 6.09891e-06 0)
(0.0119122 5.12086e-06 0)
(0.0117795 6.13164e-06 0)
(0.0117424 4.92301e-06 0)
(0.0115975 6.28326e-06 0)
(0.0115763 4.84712e-06 0)
(0.0114047 8.4145e-06 0)
(0.192274 0.00771249 0)
(0.190396 0.0107982 0)
(0.187819 0.0118839 0)
(0.183959 0.0117273 0)
(0.178521 0.011094 0)
(0.171683 0.0102051 0)
(0.164057 0.00905896 0)
(0.156138 0.00765121 0)
(0.148308 0.00613249 0)
(0.140801 0.00472084 0)
(0.13375 0.00355874 0)
(0.127255 0.00267748 0)
(0.121358 0.002043 0)
(0.116069 0.00160847 0)
(0.111343 0.00132224 0)
(0.107109 0.00113546 0)
(0.103296 0.00100907 0)
(0.0998388 0.000916639 0)
(0.0966844 0.000842501 0)
(0.0937886 0.00077846 0)
(0.0911177 0.000720657 0)
(0.0886429 0.000667642 0)
(0.0863422 0.000618935 0)
(0.0841953 0.000574487 0)
(0.082187 0.000534166 0)
(0.0803018 0.000497836 0)
(0.0785288 0.000465136 0)
(0.0768557 0.000435755 0)
(0.0752745 0.000409236 0)
(0.0737755 0.000385278 0)
(0.0723532 0.000363467 0)
(0.0709993 0.000343592 0)
(0.0697103 0.000325321 0)
(0.0684792 0.000308538 0)
(0.0673039 0.000292975 0)
(0.066178 0.000278595 0)
(0.0651008 0.000265168 0)
(0.064066 0.000252715 0)
(0.0630743 0.000241022 0)
(0.0621193 0.000230155 0)
(0.0612026 0.000219901 0)
(0.0603178 0.000210365 0)
(0.0594675 0.000201325 0)
(0.0586448 0.000192918 0)
(0.0578536 0.000184909 0)
(0.0570862 0.000177469 0)
(0.0563478 0.000170342 0)
(0.0556298 0.000163735 0)
(0.0549387 0.000157365 0)
(0.054265 0.000151479 0)
(0.0536167 0.000145763 0)
(0.0529829 0.000140505 0)
(0.0523733 0.000135352 0)
(0.0517754 0.000130644 0)
(0.0512011 0.00012598 0)
(0.0506356 0.000121757 0)
(0.0500934 0.000117518 0)
(0.0495574 0.000113725 0)
(0.0490447 0.000109856 0)
(0.0485353 0.000106446 0)
(0.0480498 0.0001029 0)
(0.0475645 9.98347e-05 0)
(0.0471041 9.65683e-05 0)
(0.0466406 9.38157e-05 0)
(0.0462036 9.0792e-05 0)
(0.0457599 8.83253e-05 0)
(0.0453447 8.55107e-05 0)
(0.0449188 8.33079e-05 0)
(0.0445241 8.06716e-05 0)
(0.0441142 7.87157e-05 0)
(0.0437389 7.62299e-05 0)
(0.0433432 7.45079e-05 0)
(0.0429864 7.21458e-05 0)
(0.0426032 7.0649e-05 0)
(0.0422642 6.83852e-05 0)
(0.0418918 6.71092e-05 0)
(0.0415702 6.49187e-05 0)
(0.0412068 6.38634e-05 0)
(0.0409023 6.17207e-05 0)
(0.040546 6.0891e-05 0)
(0.0402586 5.87701e-05 0)
(0.0399076 5.81758e-05 0)
(0.0396374 5.60486e-05 0)
(0.0392895 5.57065e-05 0)
(0.0390372 5.35419e-05 0)
(0.0386898 5.34763e-05 0)
(0.0384563 5.12389e-05 0)
(0.0381067 5.1484e-05 0)
(0.0378933 4.91326e-05 0)
(0.0375381 4.97354e-05 0)
(0.0373468 4.72202e-05 0)
(0.0369816 4.82458e-05 0)
(0.0368154 4.55056e-05 0)
(0.0364348 4.70441e-05 0)
(0.0362977 4.40037e-05 0)
(0.0358941 4.6184e-05 0)
(0.035793 4.27625e-05 0)
(0.0353543 4.58502e-05 0)
(0.0353013 4.20787e-05 0)
(0.0348039 5.07036e-05 0)
(0.193243 0.007429 0)
(0.1936 0.0100279 0)
(0.194591 0.0116174 0)
(0.195636 0.0121307 0)
(0.196079 0.0120318 0)
(0.195591 0.0115967 0)
(0.194175 0.0108662 0)
(0.191951 0.00986124 0)
(0.189078 0.00868677 0)
(0.185719 0.00750697 0)
(0.182021 0.00645428 0)
(0.178132 0.0055832 0)
(0.174173 0.00488365 0)
(0.170242 0.00432724 0)
(0.16639 0.00388097 0)
(0.162638 0.00351516 0)
(0.158997 0.0032067 0)
(0.155469 0.00293962 0)
(0.152055 0.00270358 0)
(0.148757 0.0024923 0)
(0.145576 0.00230177 0)
(0.142509 0.00212951 0)
(0.13956 0.00197365 0)
(0.136724 0.00183282 0)
(0.134002 0.00170565 0)
(0.131388 0.00159095 0)
(0.128881 0.00148737 0)
(0.126476 0.00139379 0)
(0.12417 0.00130897 0)
(0.121955 0.00123198 0)
(0.119832 0.00116177 0)
(0.11779 0.00109764 0)
(0.115831 0.00103875 0)
(0.113945 0.00098464 0)
(0.112133 0.000934616 0)
(0.110385 0.000888395 0)
(0.108705 0.000845416 0)
(0.107082 0.000805532 0)
(0.10552 0.000768257 0)
(0.104008 0.000733552 0)
(0.102552 0.000700974 0)
(0.10114 0.000670568 0)
(0.0997794 0.000641911 0)
(0.0984575 0.000615119 0)
(0.0971833 0.000589769 0)
(0.0959427 0.000566043 0)
(0.0947468 0.000543507 0)
(0.0935798 0.000522406 0)
(0.0924552 0.000502281 0)
(0.0913549 0.000483441 0)
(0.0902953 0.000465393 0)
(0.0892557 0.000448514 0)
(0.0882557 0.000432266 0)
(0.0872712 0.000417098 0)
(0.086326 0.000402416 0)
(0.0853918 0.000388749 0)
(0.0844971 0.000375436 0)
(0.0836088 0.000363093 0)
(0.0827607 0.000350981 0)
(0.0819142 0.000339812 0)
(0.0811095 0.000328755 0)
(0.0803011 0.000318632 0)
(0.0795367 0.000308505 0)
(0.078763 0.000299321 0)
(0.0780364 0.000290014 0)
(0.0772942 0.000281675 0)
(0.0766033 0.000273092 0)
(0.0758894 0.000265519 0)
(0.0752322 0.000257574 0)
(0.0745439 0.000250702 0)
(0.0739189 0.00024332 0)
(0.0732534 0.000237092 0)
(0.0726593 0.000230204 0)
(0.0720137 0.000224575 0)
(0.0714496 0.000218119 0)
(0.0708212 0.000213054 0)
(0.0702866 0.000206974 0)
(0.0696725 0.000202446 0)
(0.069167 0.000196687 0)
(0.0685642 0.000192678 0)
(0.0680881 0.000187192 0)
(0.0674933 0.000183695 0)
(0.0670472 0.000178433 0)
(0.0664568 0.000175449 0)
(0.0660418 0.000170366 0)
(0.0654518 0.000167909 0)
(0.0650697 0.000162958 0)
(0.0644753 0.000161054 0)
(0.0641286 0.000156191 0)
(0.0635241 0.000154881 0)
(0.0632165 0.000150062 0)
(0.062595 0.000149404 0)
(0.0623313 0.000144595 0)
(0.061684 0.000144665 0)
(0.0614712 0.000139852 0)
(0.0607864 0.000140761 0)
(0.0606345 0.000135958 0)
(0.0598959 0.000138174 0)
(0.0598189 0.000133458 0)
(0.059005 0.000142907 0)
(0.194243 0.00700993 0)
(0.194571 0.0088771 0)
(0.195578 0.0103782 0)
(0.197117 0.0111336 0)
(0.198709 0.011288 0)
(0.199973 0.0110766 0)
(0.200749 0.0106065 0)
(0.201007 0.00992278 0)
(0.200766 0.0090909 0)
(0.200067 0.00821487 0)
(0.198973 0.00739668 0)
(0.19757 0.0066948 0)
(0.195948 0.00611879 0)
(0.194181 0.00564786 0)
(0.192319 0.00525595 0)
(0.190385 0.00492144 0)
(0.188396 0.00462814 0)
(0.186358 0.00436481 0)
(0.184279 0.00412374 0)
(0.182164 0.00390011 0)
(0.180022 0.00369085 0)
(0.177858 0.00349432 0)
(0.175683 0.00330942 0)
(0.173502 0.00313566 0)
(0.171325 0.00297248 0)
(0.169154 0.00281951 0)
(0.167 0.00267614 0)
(0.164863 0.00254194 0)
(0.162752 0.0024162 0)
(0.160666 0.0022985 0)
(0.158614 0.00218813 0)
(0.15659 0.00208471 0)
(0.154605 0.00198759 0)
(0.152653 0.00189648 0)
(0.150742 0.00181078 0)
(0.148864 0.00173028 0)
(0.147031 0.00165443 0)
(0.14523 0.00158309 0)
(0.143475 0.00151576 0)
(0.141752 0.00145238 0)
(0.140075 0.00139244 0)
(0.138428 0.00133595 0)
(0.136827 0.00128243 0)
(0.135254 0.00123195 0)
(0.133726 0.00118403 0)
(0.132223 0.0011388 0)
(0.130767 0.00109577 0)
(0.129332 0.00105512 0)
(0.127943 0.00101636 0)
(0.126571 0.000979739 0)
(0.125246 0.000944741 0)
(0.123935 0.000911657 0)
(0.122671 0.000879963 0)
(0.121416 0.000850006 0)
(0.12021 0.000821229 0)
(0.119008 0.000794041 0)
(0.117857 0.000767847 0)
(0.116703 0.000743119 0)
(0.115604 0.000719218 0)
(0.114497 0.000696683 0)
(0.113447 0.000674822 0)
(0.112382 0.000654249 0)
(0.111379 0.000634208 0)
(0.110353 0.000615395 0)
(0.109395 0.000596982 0)
(0.108405 0.000579752 0)
(0.10749 0.000562798 0)
(0.106532 0.000546998 0)
(0.10566 0.000531352 0)
(0.104731 0.000516849 0)
(0.103899 0.000502382 0)
(0.102996 0.000489059 0)
(0.102203 0.000475653 0)
(0.101323 0.00046341 0)
(0.10057 0.000450964 0)
(0.0997095 0.000439714 0)
(0.0989942 0.000428138 0)
(0.0981502 0.000417809 0)
(0.0974739 0.000407023 0)
(0.096642 0.000397553 0)
(0.0960054 0.00038749 0)
(0.0951815 0.00037883 0)
(0.094586 0.00036943 0)
(0.0937652 0.000361542 0)
(0.0932128 0.000352757 0)
(0.0923898 0.000345617 0)
(0.0918833 0.000337409 0)
(0.0910519 0.000331002 0)
(0.090595 0.000323348 0)
(0.0897478 0.000317673 0)
(0.0893457 0.000310567 0)
(0.0884737 0.00030564 0)
(0.088133 0.000299099 0)
(0.0872253 0.00029497 0)
(0.0869545 0.000289024 0)
(0.0859975 0.000285865 0)
(0.0858075 0.000280473 0)
(0.0847847 0.000279135 0)
(0.0846881 0.000274322 0)
(0.0835812 0.0002804 0)
(0.195074 0.00671328 0)
(0.195387 0.00813331 0)
(0.196179 0.00942145 0)
(0.197463 0.0102272 0)
(0.19897 0.0105009 0)
(0.20039 0.0103929 0)
(0.201552 0.0100392 0)
(0.202401 0.00951642 0)
(0.202938 0.00887915 0)
(0.203175 0.00819431 0)
(0.203137 0.00753468 0)
(0.202867 0.00695273 0)
(0.202425 0.00646692 0)
(0.20186 0.00606769 0)
(0.201211 0.00573567 0)
(0.200493 0.005453 0)
(0.199718 0.00520598 0)
(0.198883 0.00498479 0)
(0.197992 0.00478237 0)
(0.19704 0.00459396 0)
(0.196033 0.0044163 0)
(0.194967 0.0042475 0)
(0.193852 0.00408631 0)
(0.192684 0.00393217 0)
(0.191475 0.00378458 0)
(0.190221 0.00364333 0)
(0.188934 0.00350808 0)
(0.187609 0.00337864 0)
(0.18626 0.00325464 0)
(0.184881 0.0031359 0)
(0.183486 0.00302204 0)
(0.182067 0.00291294 0)
(0.18064 0.00280823 0)
(0.179194 0.00270784 0)
(0.177747 0.00261145 0)
(0.176287 0.002519 0)
(0.174831 0.0024302 0)
(0.173366 0.00234504 0)
(0.171912 0.00226325 0)
(0.170451 0.00218481 0)
(0.169007 0.00210948 0)
(0.167557 0.00203726 0)
(0.166129 0.00196791 0)
(0.164696 0.00190144 0)
(0.16329 0.00183761 0)
(0.16188 0.00177644 0)
(0.160501 0.00171771 0)
(0.159115 0.00166142 0)
(0.157766 0.00160737 0)
(0.156409 0.00155557 0)
(0.155093 0.00150582 0)
(0.153766 0.00145813 0)
(0.152485 0.00141233 0)
(0.151189 0.00136841 0)
(0.149943 0.00132622 0)
(0.148678 0.00128573 0)
(0.14747 0.00124685 0)
(0.146236 0.0012095 0)
(0.145066 0.00117364 0)
(0.143862 0.00113916 0)
(0.14273 0.00110606 0)
(0.141556 0.00107418 0)
(0.140461 0.00104361 0)
(0.139315 0.00101412 0)
(0.138259 0.000985852 0)
(0.13714 0.000958529 0)
(0.136122 0.000932384 0)
(0.135028 0.000907035 0)
(0.134049 0.000882836 0)
(0.132976 0.000859288 0)
(0.132036 0.00083688 0)
(0.130984 0.000814973 0)
(0.130083 0.00079422 0)
(0.129048 0.000773809 0)
(0.128187 0.000754592 0)
(0.127166 0.000735546 0)
(0.126347 0.00071776 0)
(0.125337 0.000699962 0)
(0.124559 0.000683521 0)
(0.123556 0.000666864 0)
(0.122823 0.000651699 0)
(0.121823 0.000636087 0)
(0.121137 0.000622143 0)
(0.120134 0.000607492 0)
(0.119498 0.000594735 0)
(0.118486 0.000580972 0)
(0.117904 0.000569385 0)
(0.116877 0.00055645 0)
(0.116354 0.000546038 0)
(0.115303 0.000533892 0)
(0.114845 0.000524677 0)
(0.113762 0.000513318 0)
(0.113376 0.00050533 0)
(0.112249 0.000494846 0)
(0.111945 0.000488076 0)
(0.110759 0.00047879 0)
(0.110547 0.000473107 0)
(0.109289 0.000466128 0)
(0.109181 0.000461687 0)
(0.107834 0.000461434 0)
(0.195756 0.00647525 0)
(0.196068 0.00762421 0)
(0.196726 0.00870577 0)
(0.197762 0.00947848 0)
(0.199033 0.0098219 0)
(0.200308 0.00979844 0)
(0.201426 0.00952984 0)
(0.202318 0.00910814 0)
(0.202981 0.00859123 0)
(0.203428 0.00802828 0)
(0.203682 0.00747152 0)
(0.203771 0.00696513 0)
(0.203737 0.00653146 0)
(0.203618 0.00617042 0)
(0.203449 0.00586968 0)
(0.203242 0.00561482 0)
(0.203009 0.00539374 0)
(0.202745 0.00519755 0)
(0.202453 0.00501979 0)
(0.202124 0.00485594 0)
(0.201763 0.00470281 0)
(0.20136 0.00455828 0)
(0.200923 0.00442091 0)
(0.200444 0.00428981 0)
(0.199931 0.00416433 0)
(0.199375 0.00404403 0)
(0.198789 0.0039285 0)
(0.19816 0.0038174 0)
(0.197504 0.0037104 0)
(0.196806 0.00360718 0)
(0.196084 0.00350746 0)
(0.195323 0.00341096 0)
(0.194541 0.0033175 0)
(0.193721 0.00322684 0)
(0.192886 0.00313888 0)
(0.192013 0.0030534 0)
(0.191131 0.00297038 0)
(0.190212 0.00288962 0)
(0.189288 0.00281116 0)
(0.188329 0.00273478 0)
(0.18737 0.00266059 0)
(0.186377 0.00258834 0)
(0.18539 0.00251822 0)
(0.184368 0.00244991 0)
(0.18336 0.00238367 0)
(0.182315 0.00231913 0)
(0.18129 0.00225663 0)
(0.180228 0.0021957 0)
(0.179192 0.00213678 0)
(0.178116 0.00207932 0)
(0.177074 0.00202383 0)
(0.17599 0.00196968 0)
(0.174947 0.00191749 0)
(0.173857 0.00186648 0)
(0.172817 0.00181745 0)
(0.171724 0.00176944 0)
(0.170691 0.00172341 0)
(0.169599 0.00167823 0)
(0.168576 0.00163507 0)
(0.167486 0.00159256 0)
(0.166477 0.00155211 0)
(0.165389 0.00151211 0)
(0.164397 0.00147425 0)
(0.163314 0.0014366 0)
(0.16234 0.00140119 0)
(0.161262 0.00136573 0)
(0.16031 0.00133264 0)
(0.159237 0.00129922 0)
(0.158309 0.00126833 0)
(0.15724 0.0012368 0)
(0.156338 0.001208 0)
(0.155273 0.00117822 0)
(0.1544 0.00115141 0)
(0.153336 0.00112322 0)
(0.152495 0.00109833 0)
(0.151431 0.00107161 0)
(0.150624 0.00104855 0)
(0.149558 0.00102317 0)
(0.148788 0.00100189 0)
(0.147717 0.000977713 0)
(0.146987 0.00095817 0)
(0.145906 0.000935095 0)
(0.145221 0.000917265 0)
(0.144126 0.00089518 0)
(0.143489 0.000879056 0)
(0.142376 0.000857868 0)
(0.141793 0.00084346 0)
(0.140654 0.000823096 0)
(0.14013 0.000810428 0)
(0.138959 0.000790851 0)
(0.138501 0.000779951 0)
(0.137288 0.000761195 0)
(0.136904 0.000752074 0)
(0.13564 0.000734305 0)
(0.135338 0.000726916 0)
(0.134011 0.000710578 0)
(0.133801 0.000704811 0)
(0.132399 0.000691056 0)
(0.132291 0.000687263 0)
(0.130799 0.000679214 0)
(0.196341 0.00626067 0)
(0.196645 0.0072182 0)
(0.19721 0.00812265 0)
(0.198059 0.00881838 0)
(0.199115 0.00918931 0)
(0.200217 0.00923907 0)
(0.201226 0.00905174 0)
(0.202063 0.00871487 0)
(0.202713 0.00829 0)
(0.203183 0.00782075 0)
(0.2035 0.0073463 0)
(0.203684 0.0069015 0)
(0.203772 0.00650885 0)
(0.203789 0.00617445 0)
(0.203771 0.0058924 0)
(0.203727 0.00565206 0)
(0.203675 0.00544328 0)
(0.203608 0.00525812 0)
(0.203534 0.00509099 0)
(0.20344 0.00493785 0)
(0.203337 0.00479595 0)
(0.203211 0.00466319 0)
(0.203073 0.00453823 0)
(0.202908 0.0044199 0)
(0.202733 0.0043076 0)
(0.202528 0.00420057 0)
(0.202312 0.0040985 0)
(0.202064 0.00400075 0)
(0.201807 0.00390713 0)
(0.201516 0.003817 0)
(0.201216 0.0037303 0)
(0.200881 0.00364641 0)
(0.200538 0.00356537 0)
(0.200158 0.00348659 0)
(0.199773 0.00341026 0)
(0.199348 0.00333575 0)
(0.198921 0.00326341 0)
(0.198451 0.00319257 0)
(0.197983 0.00312371 0)
(0.197471 0.0030561 0)
(0.196964 0.00299036 0)
(0.196409 0.00292566 0)
(0.195866 0.00286279 0)
(0.195271 0.00280077 0)
(0.194694 0.0027406 0)
(0.194061 0.00268111 0)
(0.193452 0.00262349 0)
(0.192784 0.0025664 0)
(0.192147 0.00251124 0)
(0.191446 0.00245646 0)
(0.190783 0.00240369 0)
(0.190052 0.00235112 0)
(0.189368 0.00230068 0)
(0.188608 0.00225025 0)
(0.187905 0.0022021 0)
(0.187119 0.00215374 0)
(0.186402 0.00210782 0)
(0.185592 0.00206145 0)
(0.184864 0.00201773 0)
(0.184032 0.00197329 0)
(0.183296 0.00193172 0)
(0.182444 0.00188912 0)
(0.181704 0.00184967 0)
(0.180833 0.00180884 0)
(0.180092 0.00177146 0)
(0.179204 0.00173231 0)
(0.178465 0.00169696 0)
(0.17756 0.00165941 0)
(0.176828 0.00162606 0)
(0.175906 0.00159 0)
(0.175183 0.00155863 0)
(0.174245 0.00152396 0)
(0.173535 0.00149454 0)
(0.17258 0.00146117 0)
(0.171887 0.00143367 0)
(0.170914 0.0014015 0)
(0.170242 0.00137591 0)
(0.169249 0.00134483 0)
(0.168603 0.00132116 0)
(0.167588 0.00129107 0)
(0.166971 0.00126932 0)
(0.165933 0.00124013 0)
(0.165349 0.00122032 0)
(0.164283 0.00119194 0)
(0.163738 0.0011741 0)
(0.162641 0.00114646 0)
(0.162141 0.00113064 0)
(0.161008 0.0011037 0)
(0.160557 0.00108992 0)
(0.159382 0.0010637 0)
(0.158988 0.00105199 0)
(0.157765 0.00102659 0)
(0.157435 0.00101697 0)
(0.156156 0.000992614 0)
(0.155896 0.000985047 0)
(0.154552 0.000962261 0)
(0.154372 0.000956749 0)
(0.152954 0.000936612 0)
(0.152862 0.00093363 0)
(0.151359 0.000918153 0)
(0.196852 0.00605744 0)
(0.197142 0.00686541 0)
(0.197635 0.00762386 0)
(0.198342 0.00823214 0)
(0.199221 0.00859969 0)
(0.200162 0.00870359 0)
(0.201058 0.00859039 0)
(0.201825 0.0083306 0)
(0.20244 0.007984 0)
(0.2029 0.00759288 0)
(0.20323 0.00718985 0)
(0.203443 0.00680205 0)
(0.203575 0.00644955 0)
(0.20364 0.00614126 0)
(0.203674 0.00587622 0)
(0.203681 0.00564747 0)
(0.203683 0.00544721 0)
(0.203673 0.00526855 0)
(0.203664 0.00510686 0)
(0.203641 0.00495853 0)
(0.20362 0.00482149 0)
(0.203581 0.00469366 0)
(0.203545 0.00457406 0)
(0.20349 0.00446128 0)
(0.203437 0.00435496 0)
(0.203364 0.00425399 0)
(0.203295 0.00415837 0)
(0.203202 0.00406707 0)
(0.203116 0.00398028 0)
(0.203003 0.00389694 0)
(0.202897 0.00381742 0)
(0.202762 0.00374059 0)
(0.202636 0.00366701 0)
(0.202477 0.0035955 0)
(0.20233 0.00352683 0)
(0.202146 0.00345971 0)
(0.201976 0.00339513 0)
(0.201765 0.00333169 0)
(0.201571 0.00327059 0)
(0.201332 0.00321028 0)
(0.201114 0.0031522 0)
(0.200845 0.0030946 0)
(0.200602 0.00303919 0)
(0.200303 0.00298397 0)
(0.200036 0.00293096 0)
(0.199706 0.00287787 0)
(0.199414 0.00282706 0)
(0.199053 0.00277589 0)
(0.198737 0.00272713 0)
(0.198344 0.00267773 0)
(0.198005 0.0026309 0)
(0.197581 0.00258314 0)
(0.197219 0.00253814 0)
(0.196764 0.00249191 0)
(0.196382 0.00244867 0)
(0.195895 0.00240388 0)
(0.195494 0.00236237 0)
(0.194976 0.00231893 0)
(0.194557 0.00227911 0)
(0.194009 0.00223695 0)
(0.193575 0.00219879 0)
(0.192997 0.00215784 0)
(0.19255 0.00212133 0)
(0.191942 0.00208153 0)
(0.191485 0.00204667 0)
(0.190847 0.00200795 0)
(0.190382 0.00197472 0)
(0.189715 0.00193702 0)
(0.189245 0.00190545 0)
(0.188548 0.00186869 0)
(0.188076 0.00183878 0)
(0.187349 0.00180289 0)
(0.186878 0.00177467 0)
(0.186122 0.00173959 0)
(0.185655 0.00171308 0)
(0.184868 0.00167874 0)
(0.18441 0.00165396 0)
(0.18359 0.00162029 0)
(0.183144 0.00159729 0)
(0.182291 0.00156422 0)
(0.181861 0.00154304 0)
(0.180972 0.00151053 0)
(0.180562 0.00149122 0)
(0.179637 0.00145921 0)
(0.179252 0.00144183 0)
(0.178286 0.00141031 0)
(0.17793 0.00139491 0)
(0.176921 0.00136391 0)
(0.1766 0.00135052 0)
(0.175544 0.00132012 0)
(0.175263 0.00130879 0)
(0.174156 0.00127915 0)
(0.17392 0.00126991 0)
(0.172757 0.00124133 0)
(0.172572 0.00123419 0)
(0.171347 0.00120724 0)
(0.171219 0.00120233 0)
(0.169927 0.00117797 0)
(0.169862 0.0011758 0)
(0.168497 0.00115523 0)
(0.197301 0.00586145 0)
(0.197574 0.00654807 0)
(0.198007 0.00718885 0)
(0.198604 0.00771616 0)
(0.199342 0.00806397 0)
(0.200143 0.00820254 0)
(0.200929 0.00815185 0)
(0.201624 0.00796168 0)
(0.2022 0.00768442 0)
(0.202642 0.00736061 0)
(0.202973 0.00702002 0)
(0.2032 0.00668479 0)
(0.203355 0.00637199 0)
(0.203447 0.00609094 0)
(0.203507 0.00584397 0)
(0.203537 0.0056272 0)
(0.203563 0.00543544 0)
(0.203571 0.00526284 0)
(0.203584 0.00510587 0)
(0.203581 0.00496114 0)
(0.203584 0.00482731 0)
(0.20357 0.00470225 0)
(0.203564 0.0045855 0)
(0.20354 0.00447536 0)
(0.203526 0.00437187 0)
(0.203491 0.00427351 0)
(0.20347 0.00418074 0)
(0.203427 0.00409205 0)
(0.203399 0.00400817 0)
(0.203347 0.00392752 0)
(0.203312 0.00385106 0)
(0.20325 0.00377709 0)
(0.203209 0.00370682 0)
(0.203135 0.00363839 0)
(0.203087 0.0035733 0)
(0.203002 0.0035095 0)
(0.202945 0.00344881 0)
(0.202847 0.00338892 0)
(0.202781 0.003332 0)
(0.202669 0.00327546 0)
(0.202593 0.00322181 0)
(0.202465 0.00316816 0)
(0.202379 0.00311741 0)
(0.202234 0.00306627 0)
(0.202136 0.0030181 0)
(0.201973 0.00296918 0)
(0.201863 0.00292334 0)
(0.20168 0.00287637 0)
(0.201557 0.00283266 0)
(0.201353 0.00278743 0)
(0.201218 0.00274568 0)
(0.200991 0.00270201 0)
(0.200843 0.00266208 0)
(0.200593 0.00261981 0)
(0.200432 0.0025816 0)
(0.200157 0.00254059 0)
(0.199983 0.00250401 0)
(0.199683 0.00246412 0)
(0.199497 0.00242911 0)
(0.19917 0.00239024 0)
(0.198973 0.00235674 0)
(0.198618 0.00231879 0)
(0.19841 0.00228676 0)
(0.198027 0.00224964 0)
(0.197809 0.00221906 0)
(0.197397 0.00218268 0)
(0.197171 0.00215354 0)
(0.196728 0.00211782 0)
(0.196495 0.00209012 0)
(0.196022 0.00205498 0)
(0.195784 0.00202871 0)
(0.195279 0.00199409 0)
(0.195037 0.00196928 0)
(0.194499 0.0019351 0)
(0.194256 0.00191178 0)
(0.193684 0.00187799 0)
(0.193442 0.00185618 0)
(0.192836 0.00182273 0)
(0.192597 0.00180246 0)
(0.191955 0.00176932 0)
(0.191723 0.00175064 0)
(0.191042 0.00171778 0)
(0.190819 0.00170073 0)
(0.190099 0.00166815 0)
(0.189888 0.00165278 0)
(0.189128 0.00162051 0)
(0.188932 0.00160687 0)
(0.188128 0.00157499 0)
(0.187952 0.00156311 0)
(0.187103 0.00153175 0)
(0.186948 0.00152167 0)
(0.186051 0.00149107 0)
(0.185922 0.00148283 0)
(0.184976 0.00145332 0)
(0.184874 0.001447 0)
(0.183876 0.00141914 0)
(0.183806 0.00141498 0)
(0.182752 0.00138966 0)
(0.182717 0.00138809 0)
(0.181606 0.00136596 0)
(0.197696 0.00567221 0)
(0.197951 0.0062596 0)
(0.198333 0.00680623 0)
(0.198844 0.00726394 0)
(0.199468 0.00758542 0)
(0.200149 0.0077427 0)
(0.200835 0.0077408 0)
(0.201458 0.00761116 0)
(0.201992 0.00739568 0)
(0.202414 0.00713094 0)
(0.202741 0.00684503 0)
(0.202974 0.00655731 0)
(0.203145 0.00628252 0)
(0.203255 0.00602916 0)
(0.203335 0.00580146 0)
(0.203381 0.0055978 0)
(0.203421 0.00541544 0)
(0.203441 0.00524967 0)
(0.203465 0.00509805 0)
(0.203471 0.00495734 0)
(0.203484 0.0048269 0)
(0.203479 0.00470445 0)
(0.203483 0.00459016 0)
(0.203468 0.00448197 0)
(0.203466 0.00438047 0)
(0.203443 0.00428366 0)
(0.203436 0.00419254 0)
(0.203407 0.00410508 0)
(0.203397 0.00402262 0)
(0.203362 0.003943 0)
(0.20335 0.00386786 0)
(0.203309 0.00379483 0)
(0.203295 0.00372589 0)
(0.20325 0.00365841 0)
(0.203234 0.00359473 0)
(0.203183 0.00353196 0)
(0.203166 0.00347282 0)
(0.203109 0.00341408 0)
(0.20309 0.00335888 0)
(0.203026 0.00330363 0)
(0.203006 0.00325192 0)
(0.202934 0.00319972 0)
(0.202912 0.00315111 0)
(0.202832 0.00310159 0)
(0.202807 0.00305579 0)
(0.202718 0.00300864 0)
(0.20269 0.00296539 0)
(0.20259 0.00292034 0)
(0.202559 0.00287942 0)
(0.202447 0.00283625 0)
(0.202413 0.00279749 0)
(0.202288 0.002756 0)
(0.202249 0.00271924 0)
(0.20211 0.00267924 0)
(0.202068 0.00264435 0)
(0.201913 0.00260567 0)
(0.201866 0.00257254 0)
(0.201694 0.00253505 0)
(0.201643 0.00250359 0)
(0.201453 0.00246713 0)
(0.201397 0.00243726 0)
(0.201188 0.00240172 0)
(0.201127 0.00237337 0)
(0.200897 0.00233863 0)
(0.200832 0.00231175 0)
(0.20058 0.00227771 0)
(0.200511 0.00225226 0)
(0.200236 0.00221881 0)
(0.200163 0.00219475 0)
(0.199864 0.00216181 0)
(0.199787 0.00213913 0)
(0.199462 0.00210661 0)
(0.199383 0.00208529 0)
(0.199032 0.00205313 0)
(0.198951 0.00203315 0)
(0.198571 0.0020013 0)
(0.19849 0.00198268 0)
(0.19808 0.00195109 0)
(0.197999 0.00193382 0)
(0.19756 0.00190247 0)
(0.19748 0.00188657 0)
(0.197008 0.00185545 0)
(0.196931 0.00184094 0)
(0.196427 0.00181007 0)
(0.196354 0.00179696 0)
(0.195815 0.00176641 0)
(0.195747 0.00175472 0)
(0.195173 0.00172459 0)
(0.195112 0.00171435 0)
(0.194502 0.00168481 0)
(0.194449 0.00167604 0)
(0.193801 0.00164735 0)
(0.193757 0.0016401 0)
(0.19307 0.00161261 0)
(0.193037 0.00160702 0)
(0.19231 0.00158126 0)
(0.192288 0.00157761 0)
(0.191521 0.00155436 0)
(0.191511 0.00155304 0)
(0.190704 0.00153264 0)
(0.198044 0.00549037 0)
(0.19828 0.00599667 0)
(0.19862 0.00646733 0)
(0.199059 0.00686664 0)
(0.199592 0.00716042 0)
(0.200174 0.00732504 0)
(0.20077 0.00735856 0)
(0.201323 0.00727906 0)
(0.201813 0.0071177 0)
(0.202211 0.00690516 0)
(0.202531 0.0066675 0)
(0.202766 0.00642229 0)
(0.202947 0.00618295 0)
(0.20307 0.0059569 0)
(0.203165 0.00574928 0)
(0.203225 0.00555985 0)
(0.203278 0.00538801 0)
(0.203307 0.00523005 0)
(0.203339 0.00508471 0)
(0.203352 0.00494882 0)
(0.203372 0.00482242 0)
(0.203372 0.00470307 0)
(0.203382 0.00459153 0)
(0.203372 0.00448545 0)
(0.203375 0.00438595 0)
(0.203357 0.00429061 0)
(0.203356 0.00420098 0)
(0.203331 0.00411451 0)
(0.203328 0.00403315 0)
(0.203298 0.00395417 0)
(0.203293 0.00387986 0)
(0.203259 0.00380724 0)
(0.203253 0.00373897 0)
(0.203216 0.00367176 0)
(0.20321 0.00360869 0)
(0.203169 0.00354611 0)
(0.203164 0.00348755 0)
(0.20312 0.00342899 0)
(0.203116 0.00337441 0)
(0.203068 0.00331935 0)
(0.203065 0.00326832 0)
(0.203014 0.00321636 0)
(0.203012 0.00316853 0)
(0.202956 0.00311932 0)
(0.202956 0.0030744 0)
(0.202895 0.00302765 0)
(0.202896 0.00298541 0)
(0.20283 0.00294087 0)
(0.202832 0.0029011 0)
(0.20276 0.00285855 0)
(0.202763 0.00282107 0)
(0.202685 0.00278032 0)
(0.202689 0.00274499 0)
(0.202603 0.00270586 0)
(0.202608 0.00267255 0)
(0.202513 0.00263487 0)
(0.202518 0.00260346 0)
(0.202414 0.00256709 0)
(0.20242 0.00253747 0)
(0.202305 0.00250227 0)
(0.202312 0.00247435 0)
(0.202186 0.00244019 0)
(0.202192 0.0024139 0)
(0.202054 0.00238066 0)
(0.20206 0.00235591 0)
(0.201908 0.0023235 0)
(0.201915 0.00230023 0)
(0.201748 0.00226853 0)
(0.201754 0.0022467 0)
(0.201572 0.00221562 0)
(0.201578 0.00219516 0)
(0.201378 0.00216462 0)
(0.201384 0.0021455 0)
(0.201167 0.00211545 0)
(0.201173 0.00209762 0)
(0.200937 0.00206799 0)
(0.200942 0.00205144 0)
(0.200686 0.00202219 0)
(0.200692 0.00200688 0)
(0.200415 0.00197801 0)
(0.20042 0.00196392 0)
(0.200121 0.00193543 0)
(0.200127 0.00192254 0)
(0.199805 0.00189447 0)
(0.199811 0.00188276 0)
(0.199466 0.00185519 0)
(0.199472 0.00184467 0)
(0.199102 0.0018177 0)
(0.199108 0.00180837 0)
(0.198714 0.00178218 0)
(0.19872 0.00177408 0)
(0.198301 0.00174891 0)
(0.198307 0.0017421 0)
(0.197861 0.00171829 0)
(0.197867 0.00171295 0)
(0.197396 0.00169099 0)
(0.1974 0.00168743 0)
(0.196903 0.00166796 0)
(0.196906 0.00166652 0)
(0.196383 0.00164977 0)
(0.19835 0.00531666 0)
(0.198568 0.00575643 0)
(0.198871 0.00616505 0)
(0.199252 0.00651549 0)
(0.19971 0.00678263 0)
(0.200209 0.0069473 0)
(0.200726 0.00700507 0)
(0.201216 0.00696533 0)
(0.201661 0.00685014 0)
(0.202033 0.00668356 0)
(0.20234 0.00648873 0)
(0.202575 0.00628162 0)
(0.202761 0.0060749 0)
(0.202893 0.00587513 0)
(0.202999 0.00568786 0)
(0.20307 0.00551357 0)
(0.203133 0.00535323 0)
(0.203171 0.00520405 0)
(0.203211 0.00506583 0)
(0.20323 0.00493557 0)
(0.203255 0.0048139 0)
(0.203261 0.00469826 0)
(0.203275 0.00458992 0)
(0.203269 0.00448633 0)
(0.203276 0.00438908 0)
(0.203262 0.00429546 0)
(0.203264 0.00420743 0)
(0.203243 0.00412212 0)
(0.203242 0.00404189 0)
(0.203216 0.00396364 0)
(0.203213 0.00389011 0)
(0.203183 0.00381791 0)
(0.203179 0.00375017 0)
(0.203147 0.00368317 0)
(0.203143 0.00362046 0)
(0.203107 0.00355795 0)
(0.203104 0.00349965 0)
(0.203066 0.00344106 0)
(0.203064 0.00338668 0)
(0.203024 0.00333154 0)
(0.203023 0.00328067 0)
(0.202981 0.00322861 0)
(0.202982 0.00318093 0)
(0.202938 0.00313163 0)
(0.202941 0.00308688 0)
(0.202894 0.00304006 0)
(0.2029 0.00299801 0)
(0.20285 0.00295345 0)
(0.202858 0.00291391 0)
(0.202805 0.00287141 0)
(0.202816 0.00283421 0)
(0.202759 0.00279359 0)
(0.202773 0.0027586 0)
(0.202712 0.00271968 0)
(0.202728 0.00268677 0)
(0.202663 0.00264942 0)
(0.202682 0.00261847 0)
(0.202612 0.00258255 0)
(0.202633 0.00255345 0)
(0.202558 0.00251883 0)
(0.202581 0.00249149 0)
(0.2025 0.00245805 0)
(0.202526 0.00243239 0)
(0.202438 0.00240002 0)
(0.202466 0.00237595 0)
(0.202371 0.00234456 0)
(0.2024 0.002322 0)
(0.202298 0.00229151 0)
(0.202329 0.0022704 0)
(0.202218 0.0022407 0)
(0.20225 0.00222097 0)
(0.20213 0.00219201 0)
(0.202164 0.0021736 0)
(0.202033 0.00214532 0)
(0.202068 0.00212817 0)
(0.201927 0.00210052 0)
(0.201962 0.0020846 0)
(0.201811 0.00205755 0)
(0.201846 0.0020428 0)
(0.201682 0.00201635 0)
(0.201717 0.00200272 0)
(0.201541 0.0019769 0)
(0.201576 0.00196436 0)
(0.201387 0.00193918 0)
(0.201421 0.00192772 0)
(0.201218 0.00190327 0)
(0.20125 0.00189285 0)
(0.201034 0.00186924 0)
(0.201064 0.00185989 0)
(0.200833 0.00183727 0)
(0.20086 0.00182904 0)
(0.200615 0.00180764 0)
(0.200638 0.00180062 0)
(0.200378 0.00178072 0)
(0.200397 0.00177512 0)
(0.200122 0.00175717 0)
(0.200136 0.00175331 0)
(0.199846 0.00173783 0)
(0.199854 0.00173604 0)
(0.199549 0.00172324 0)
(0.19862 0.00515152 0)