/*--------------------------------*- C++ -*----------------------------------*\
| =========                 |                                                 |
| \\      /  F ield         | OpenFOAM: The Open Source CFD Toolbox           |
|  \\    /   O peration     | Version:  2.3.0                                 |
|   \\  /    A nd           | Web:      www.OpenFOAM.org                      |
|    \\/     M anipulation  |                                                 |
\*---------------------------------------------------------------------------*/
FoamFile
{
    version     2.0;
    format      ascii;
    class       volVectorField;
    location    "0.95";
    object      U_0;
}
// * * * * * * * * * * * * * * * * * * * * * * * * * * * * * * * * * * * * * //

dimensions      [0 1 -1 0 0 0 0];

internalField   nonuniform List<vector> 
3105
(
(0.176796 0.0043445 0)
(0.156086 0.00594972 0)
(0.137389 0.00612155 0)
(0.119253 0.00553049 0)
(0.101762 0.00473147 0)
(0.0857168 0.00384853 0)
(0.0721542 0.00288943 0)
(0.0614937 0.00187652 0)
(0.0535645 0.000988281 0)
(0.0478415 0.000380515 0)
(0.0437585 5.37409e-05 0)
(0.0408418 -8.07629e-05 0)
(0.0387098 -0.000107106 0)
(0.0370776 -8.23825e-05 0)
(0.0357419 -3.8883e-05 0)
(0.0345733 4.31535e-06 0)
(0.0335008 3.77769e-05 0)
(0.0324914 5.93681e-05 0)
(0.0315341 7.07984e-05 0)
(0.0306272 7.49831e-05 0)
(0.0297717 7.46278e-05 0)
(0.0289679 7.18024e-05 0)
(0.0282151 6.78527e-05 0)
(0.0275105 6.35962e-05 0)
(0.0268512 5.94431e-05 0)
(0.0262331 5.55975e-05 0)
(0.0256527 5.20948e-05 0)
(0.025106 4.89442e-05 0)
(0.0245901 4.60899e-05 0)
(0.0241015 4.35137e-05 0)
(0.0236384 4.11535e-05 0)
(0.0231978 3.90023e-05 0)
(0.0227785 3.70056e-05 0)
(0.0223782 3.51713e-05 0)
(0.0219961 3.34501e-05 0)
(0.0216301 3.18622e-05 0)
(0.02128 3.03593e-05 0)
(0.0209439 2.89717e-05 0)
(0.0206217 2.76491e-05 0)
(0.0203116 2.64301e-05 0)
(0.020014 2.52602e-05 0)
(0.0197268 2.41863e-05 0)
(0.0194509 2.31476e-05 0)
(0.0191841 2.21997e-05 0)
(0.0189275 2.12745e-05 0)
(0.0186787 2.04368e-05 0)
(0.0184394 1.96094e-05 0)
(0.0182068 1.88682e-05 0)
(0.0179828 1.81252e-05 0)
(0.0177647 1.74687e-05 0)
(0.0175547 1.67983e-05 0)
(0.0173495 1.62164e-05 0)
(0.0171521 1.56083e-05 0)
(0.0169586 1.50927e-05 0)
(0.0167726 1.45378e-05 0)
(0.0165896 1.40816e-05 0)
(0.016414 1.35721e-05 0)
(0.0162406 1.31694e-05 0)
(0.0160745 1.26986e-05 0)
(0.0159096 1.23448e-05 0)
(0.0157523 1.19062e-05 0)
(0.0155952 1.15975e-05 0)
(0.0154459 1.11855e-05 0)
(0.015296 1.09192e-05 0)
(0.0151541 1.05285e-05 0)
(0.0150105 1.03026e-05 0)
(0.0148756 9.92825e-06 0)
(0.0147377 9.74147e-06 0)
(0.0146094 9.3784e-06 0)
(0.0144766 9.23037e-06 0)
(0.0143544 8.87383e-06 0)
(0.0142262 8.76489e-06 0)
(0.0141099 8.40981e-06 0)
(0.0139856 8.34117e-06 0)
(0.0138749 7.98232e-06 0)
(0.013754 7.95627e-06 0)
(0.0136488 7.58787e-06 0)
(0.0135308 7.6077e-06 0)
(0.0134309 7.22333e-06 0)
(0.0133151 7.29372e-06 0)
(0.0132205 6.88619e-06 0)
(0.0131064 7.01322e-06 0)
(0.0130172 6.57395e-06 0)
(0.0129039 6.7659e-06 0)
(0.0128202 6.28471e-06 0)
(0.012707 6.55234e-06 0)
(0.0126291 6.01655e-06 0)
(0.0125151 6.37412e-06 0)
(0.0124434 5.768e-06 0)
(0.0123274 6.23443e-06 0)
(0.0122624 5.53723e-06 0)
(0.012143 6.13888e-06 0)
(0.0120858 5.3224e-06 0)
(0.011961 6.09747e-06 0)
(0.0119128 5.11985e-06 0)
(0.0117802 6.13021e-06 0)
(0.0117431 4.92212e-06 0)
(0.0115983 6.28185e-06 0)
(0.011577 4.84626e-06 0)
(0.0114055 8.41199e-06 0)
(0.192274 0.00771249 0)
(0.190396 0.0107982 0)
(0.187819 0.0118839 0)
(0.183959 0.0117273 0)
(0.178521 0.011094 0)
(0.171683 0.0102051 0)
(0.164057 0.00905896 0)
(0.156138 0.00765121 0)
(0.148308 0.00613249 0)
(0.140801 0.00472084 0)
(0.13375 0.00355874 0)
(0.127255 0.00267748 0)
(0.121358 0.002043 0)
(0.116069 0.00160847 0)
(0.111343 0.00132224 0)
(0.107109 0.00113546 0)
(0.103296 0.00100907 0)
(0.0998388 0.000916639 0)
(0.0966844 0.000842501 0)
(0.0937887 0.000778459 0)
(0.0911177 0.000720656 0)
(0.0886429 0.000667641 0)
(0.0863422 0.000618935 0)
(0.0841953 0.000574486 0)
(0.082187 0.000534166 0)
(0.0803019 0.000497836 0)
(0.0785288 0.000465135 0)
(0.0768557 0.000435754 0)
(0.0752746 0.000409236 0)
(0.0737756 0.000385277 0)
(0.0723532 0.000363466 0)
(0.0709993 0.000343591 0)
(0.0697104 0.00032532 0)
(0.0684792 0.000308537 0)
(0.067304 0.000292974 0)
(0.066178 0.000278594 0)
(0.0651008 0.000265166 0)
(0.0640661 0.000252713 0)
(0.0630744 0.00024102 0)
(0.0621193 0.000230153 0)
(0.0612027 0.0002199 0)
(0.0603179 0.000210363 0)
(0.0594676 0.000201323 0)
(0.0586449 0.000192916 0)
(0.0578537 0.000184907 0)
(0.0570863 0.000177467 0)
(0.0563479 0.00017034 0)
(0.0556299 0.000163732 0)
(0.0549389 0.000157363 0)
(0.0542652 0.000151477 0)
(0.0536169 0.00014576 0)
(0.0529831 0.000140502 0)
(0.0523735 0.000135349 0)
(0.0517756 0.000130641 0)
(0.0512013 0.000125977 0)
(0.0506359 0.000121753 0)
(0.0500937 0.000117515 0)
(0.0495577 0.000113721 0)
(0.049045 0.000109852 0)
(0.0485356 0.000106442 0)
(0.0480501 0.000102896 0)
(0.0475648 9.98299e-05 0)
(0.0471044 9.65636e-05 0)
(0.046641 9.38105e-05 0)
(0.0462039 9.07869e-05 0)
(0.0457603 8.83196e-05 0)
(0.0453451 8.55051e-05 0)
(0.0449193 8.33017e-05 0)
(0.0445245 8.06656e-05 0)
(0.0441147 7.8709e-05 0)
(0.0437394 7.62233e-05 0)
(0.0433438 7.45006e-05 0)
(0.042987 7.21387e-05 0)
(0.0426039 7.06411e-05 0)
(0.0422649 6.83775e-05 0)
(0.0418926 6.71007e-05 0)
(0.041571 6.49104e-05 0)
(0.0412076 6.38543e-05 0)
(0.0409031 6.17118e-05 0)
(0.040547 6.08812e-05 0)
(0.0402595 5.87605e-05 0)
(0.0399086 5.81653e-05 0)
(0.0396385 5.60384e-05 0)
(0.0392906 5.56953e-05 0)
(0.0390383 5.35311e-05 0)
(0.0386911 5.34644e-05 0)
(0.0384576 5.12274e-05 0)
(0.0381081 5.14715e-05 0)
(0.0378947 4.91206e-05 0)
(0.0375396 4.97222e-05 0)
(0.0373483 4.72077e-05 0)
(0.0369833 4.8232e-05 0)
(0.0368171 4.54927e-05 0)
(0.0364367 4.70299e-05 0)
(0.0362996 4.39907e-05 0)
(0.0358962 4.61695e-05 0)
(0.035795 4.27496e-05 0)
(0.0353565 4.58355e-05 0)
(0.0353035 4.20658e-05 0)
(0.0348063 5.06859e-05 0)
(0.193243 0.007429 0)
(0.1936 0.0100279 0)
(0.194591 0.0116174 0)
(0.195636 0.0121307 0)
(0.196079 0.0120318 0)
(0.195591 0.0115967 0)
(0.194175 0.0108662 0)
(0.191951 0.00986123 0)
(0.189078 0.00868677 0)
(0.185719 0.00750697 0)
(0.182021 0.00645428 0)
(0.178132 0.0055832 0)
(0.174173 0.00488365 0)
(0.170242 0.00432724 0)
(0.16639 0.00388097 0)
(0.162638 0.00351516 0)
(0.158997 0.0032067 0)
(0.155469 0.00293962 0)
(0.152055 0.00270358 0)
(0.148757 0.0024923 0)
(0.145576 0.00230177 0)
(0.142509 0.00212951 0)
(0.13956 0.00197365 0)
(0.136724 0.00183282 0)
(0.134002 0.00170565 0)
(0.131388 0.00159095 0)
(0.128881 0.00148737 0)
(0.126476 0.00139379 0)
(0.12417 0.00130897 0)
(0.121955 0.00123197 0)
(0.119832 0.00116176 0)
(0.11779 0.00109764 0)
(0.115831 0.00103875 0)
(0.113945 0.000984637 0)
(0.112133 0.000934612 0)
(0.110385 0.000888391 0)
(0.108705 0.000845412 0)
(0.107082 0.000805528 0)
(0.10552 0.000768253 0)
(0.104008 0.000733548 0)
(0.102552 0.000700969 0)
(0.10114 0.000670563 0)
(0.0997795 0.000641906 0)
(0.0984577 0.000615113 0)
(0.0971835 0.000589763 0)
(0.0959429 0.000566037 0)
(0.094747 0.000543501 0)
(0.09358 0.000522399 0)
(0.0924554 0.000502274 0)
(0.0913551 0.000483433 0)
(0.0902956 0.000465386 0)
(0.0892559 0.000448506 0)
(0.088256 0.000432258 0)
(0.0872715 0.000417089 0)
(0.0863263 0.000402407 0)
(0.0853922 0.000388739 0)
(0.0844974 0.000375426 0)
(0.0836092 0.000363081 0)
(0.0827611 0.000350969 0)
(0.0819146 0.000339799 0)
(0.0811099 0.000328743 0)
(0.0803015 0.000318619 0)
(0.0795372 0.000308492 0)
(0.0787635 0.000299306 0)
(0.078037 0.000289999 0)
(0.0772948 0.000281658 0)
(0.0766039 0.000273075 0)
(0.0758901 0.000265501 0)
(0.0752329 0.000257556 0)
(0.0745447 0.000250682 0)
(0.0739197 0.0002433 0)
(0.0732542 0.00023707 0)
(0.0726602 0.000230182 0)
(0.0720147 0.000224552 0)
(0.0714506 0.000218096 0)
(0.0708223 0.000213029 0)
(0.0702877 0.000206948 0)
(0.0696737 0.000202418 0)
(0.0691683 0.000196659 0)
(0.0685656 0.000192649 0)
(0.0680895 0.000187162 0)
(0.0674948 0.000183663 0)
(0.0670487 0.000178401 0)
(0.0664585 0.000175415 0)
(0.0660436 0.000170332 0)
(0.0654537 0.000167872 0)
(0.0650716 0.000162921 0)
(0.0644774 0.000161015 0)
(0.0641307 0.000156152 0)
(0.0635265 0.000154839 0)
(0.0632188 0.000150021 0)
(0.0625976 0.00014936 0)
(0.0623339 0.000144552 0)
(0.0616869 0.000144619 0)
(0.0614741 0.000139808 0)
(0.0607895 0.000140713 0)
(0.0606377 0.000135912 0)
(0.0598994 0.000138125 0)
(0.0598224 0.000133412 0)
(0.0590088 0.000142854 0)
(0.194243 0.00700993 0)
(0.194571 0.0088771 0)
(0.195578 0.0103782 0)
(0.197117 0.0111336 0)
(0.198709 0.011288 0)
(0.199973 0.0110766 0)
(0.200749 0.0106065 0)
(0.201007 0.00992278 0)
(0.200766 0.0090909 0)
(0.200067 0.00821487 0)
(0.198973 0.00739667 0)
(0.19757 0.0066948 0)
(0.195948 0.00611879 0)
(0.194181 0.00564786 0)
(0.192319 0.00525595 0)
(0.190385 0.00492143 0)
(0.188396 0.00462814 0)
(0.186358 0.00436481 0)
(0.184279 0.00412373 0)
(0.182164 0.0039001 0)
(0.180022 0.00369085 0)
(0.177858 0.00349431 0)
(0.175683 0.00330942 0)
(0.173502 0.00313566 0)
(0.171325 0.00297248 0)
(0.169154 0.00281951 0)
(0.167 0.00267614 0)
(0.164863 0.00254193 0)
(0.162752 0.0024162 0)
(0.160666 0.00229849 0)
(0.158614 0.00218812 0)
(0.15659 0.0020847 0)
(0.154605 0.00198758 0)
(0.152653 0.00189647 0)
(0.150742 0.00181077 0)
(0.148864 0.00173027 0)
(0.147031 0.00165442 0)
(0.145231 0.00158309 0)
(0.143475 0.00151576 0)
(0.141752 0.00145237 0)
(0.140075 0.00139243 0)
(0.138428 0.00133594 0)
(0.136827 0.00128242 0)
(0.135254 0.00123194 0)
(0.133726 0.00118402 0)
(0.132224 0.00113879 0)
(0.130767 0.00109575 0)
(0.129332 0.0010551 0)
(0.127943 0.00101635 0)
(0.126571 0.000979725 0)
(0.125247 0.000944726 0)
(0.123935 0.000911642 0)
(0.122671 0.000879947 0)
(0.121416 0.000849989 0)
(0.12021 0.000821212 0)
(0.119008 0.000794022 0)
(0.117857 0.000767827 0)
(0.116704 0.000743098 0)
(0.115605 0.000719196 0)
(0.114497 0.00069666 0)
(0.113448 0.000674799 0)
(0.112382 0.000654224 0)
(0.11138 0.000634182 0)
(0.110353 0.000615367 0)
(0.109396 0.000596953 0)
(0.108405 0.000579721 0)
(0.107491 0.000562766 0)
(0.106533 0.000546964 0)
(0.10566 0.000531318 0)
(0.104732 0.000516812 0)
(0.103899 0.000502343 0)
(0.102997 0.000489018 0)
(0.102204 0.000475612 0)
(0.101325 0.000463365 0)
(0.100571 0.000450919 0)
(0.0997107 0.000439666 0)
(0.0989955 0.000428089 0)
(0.0981516 0.000417756 0)
(0.0974753 0.000406969 0)
(0.0966436 0.000397495 0)
(0.0960071 0.000387431 0)
(0.0951833 0.000378767 0)
(0.0945878 0.000369366 0)
(0.0937672 0.000361475 0)
(0.0932148 0.000352689 0)
(0.0923921 0.000345544 0)
(0.0918856 0.000337335 0)
(0.0910545 0.000330924 0)
(0.0905976 0.000323269 0)
(0.0897507 0.00031759 0)
(0.0893486 0.000310483 0)
(0.0884769 0.000305552 0)
(0.0881361 0.000299011 0)
(0.0872288 0.000294877 0)
(0.086958 0.000288932 0)
(0.0860014 0.000285768 0)
(0.0858114 0.000280378 0)
(0.084789 0.000279035 0)
(0.0846924 0.000274224 0)
(0.083586 0.000280294 0)
(0.195074 0.00671328 0)
(0.195387 0.0081333 0)
(0.196179 0.00942144 0)
(0.197463 0.0102272 0)
(0.19897 0.0105009 0)
(0.20039 0.0103929 0)
(0.201552 0.0100392 0)
(0.202401 0.00951642 0)
(0.202938 0.00887915 0)
(0.203175 0.00819431 0)
(0.203137 0.00753468 0)
(0.202867 0.00695273 0)
(0.202425 0.00646692 0)
(0.20186 0.00606769 0)
(0.201211 0.00573566 0)
(0.200493 0.005453 0)
(0.199718 0.00520598 0)
(0.198883 0.00498479 0)
(0.197992 0.00478237 0)
(0.19704 0.00459396 0)
(0.196033 0.0044163 0)
(0.194967 0.00424749 0)
(0.193852 0.00408631 0)
(0.192684 0.00393217 0)
(0.191475 0.00378457 0)
(0.190221 0.00364333 0)
(0.188934 0.00350807 0)
(0.187609 0.00337864 0)
(0.18626 0.00325463 0)
(0.184881 0.00313589 0)
(0.183486 0.00302204 0)
(0.182067 0.00291293 0)
(0.18064 0.00280823 0)
(0.179194 0.00270784 0)
(0.177747 0.00261144 0)
(0.176287 0.00251899 0)
(0.174832 0.00243019 0)
(0.173366 0.00234503 0)
(0.171912 0.00226324 0)
(0.170451 0.0021848 0)
(0.169007 0.00210947 0)
(0.167557 0.00203725 0)
(0.166129 0.0019679 0)
(0.164696 0.00190143 0)
(0.16329 0.0018376 0)
(0.16188 0.00177642 0)
(0.160501 0.00171769 0)
(0.159116 0.0016614 0)
(0.157767 0.00160735 0)
(0.15641 0.00155555 0)
(0.155094 0.0015058 0)
(0.153766 0.00145811 0)
(0.152485 0.00141231 0)
(0.151189 0.00136838 0)
(0.149944 0.00132619 0)
(0.148679 0.00128571 0)
(0.14747 0.00124682 0)
(0.146237 0.00120947 0)
(0.145066 0.00117361 0)
(0.143863 0.00113912 0)
(0.14273 0.00110602 0)
(0.141556 0.00107415 0)
(0.140462 0.00104357 0)
(0.139316 0.00101407 0)
(0.13826 0.000985809 0)
(0.137141 0.000958482 0)
(0.136123 0.000932336 0)
(0.135028 0.000906984 0)
(0.134049 0.000882783 0)
(0.132977 0.000859231 0)
(0.132037 0.000836822 0)
(0.130985 0.00081491 0)
(0.130084 0.000794156 0)
(0.129049 0.00077374 0)
(0.128188 0.000754521 0)
(0.127168 0.00073547 0)
(0.126348 0.000717682 0)
(0.125338 0.00069988 0)
(0.124561 0.000683436 0)
(0.123558 0.000666774 0)
(0.122825 0.000651606 0)
(0.121825 0.000635989 0)
(0.121139 0.000622043 0)
(0.120136 0.000607386 0)
(0.1195 0.000594626 0)
(0.118488 0.000580857 0)
(0.117906 0.000569267 0)
(0.11688 0.000556326 0)
(0.116356 0.000545911 0)
(0.115306 0.000533759 0)
(0.114848 0.000524541 0)
(0.113765 0.000513176 0)
(0.11338 0.000505186 0)
(0.112252 0.000494696 0)
(0.111949 0.000487924 0)
(0.110764 0.000478632 0)
(0.110552 0.000472949 0)
(0.109294 0.000465963 0)
(0.109185 0.000461523 0)
(0.107839 0.000461262 0)
(0.195756 0.00647524 0)
(0.196068 0.00762421 0)
(0.196726 0.00870577 0)
(0.197762 0.00947848 0)
(0.199033 0.00982189 0)
(0.200308 0.00979843 0)
(0.201426 0.00952984 0)
(0.202318 0.00910814 0)
(0.202981 0.00859122 0)
(0.203428 0.00802828 0)
(0.203682 0.00747152 0)
(0.203771 0.00696513 0)
(0.203737 0.00653146 0)
(0.203618 0.00617042 0)
(0.203449 0.00586968 0)
(0.203242 0.00561482 0)
(0.203009 0.00539374 0)
(0.202745 0.00519755 0)
(0.202453 0.00501978 0)
(0.202124 0.00485594 0)
(0.201763 0.00470281 0)
(0.20136 0.00455828 0)
(0.200924 0.00442091 0)
(0.200444 0.00428981 0)
(0.199931 0.00416433 0)
(0.199375 0.00404402 0)
(0.198789 0.00392849 0)
(0.19816 0.0038174 0)
(0.197504 0.00371039 0)
(0.196806 0.00360717 0)
(0.196084 0.00350745 0)
(0.195323 0.00341095 0)
(0.194541 0.00331749 0)
(0.193721 0.00322683 0)
(0.192886 0.00313887 0)
(0.192014 0.00305339 0)
(0.191131 0.00297037 0)
(0.190212 0.00288961 0)
(0.189288 0.00281115 0)
(0.188329 0.00273477 0)
(0.18737 0.00266057 0)
(0.186377 0.00258833 0)
(0.18539 0.0025182 0)
(0.184369 0.00244989 0)
(0.18336 0.00238365 0)
(0.182315 0.00231911 0)
(0.18129 0.0022566 0)
(0.180228 0.00219568 0)
(0.179192 0.00213676 0)
(0.178116 0.00207929 0)
(0.177074 0.00202381 0)
(0.17599 0.00196965 0)
(0.174947 0.00191746 0)
(0.173857 0.00186645 0)
(0.172817 0.00181742 0)
(0.171725 0.0017694 0)
(0.170692 0.00172337 0)
(0.169599 0.00167819 0)
(0.168577 0.00163502 0)
(0.167486 0.00159251 0)
(0.166477 0.00155207 0)
(0.16539 0.00151206 0)
(0.164397 0.0014742 0)
(0.163314 0.00143655 0)
(0.162341 0.00140113 0)
(0.161263 0.00136567 0)
(0.160311 0.00133258 0)
(0.159238 0.00129915 0)
(0.158309 0.00126826 0)
(0.157241 0.00123673 0)
(0.156339 0.00120792 0)
(0.155274 0.00117813 0)
(0.154401 0.00115132 0)
(0.153337 0.00112313 0)
(0.152496 0.00109823 0)
(0.151433 0.00107151 0)
(0.150625 0.00104844 0)
(0.14956 0.00102305 0)
(0.148789 0.00100177 0)
(0.147718 0.00097759 0)
(0.146988 0.000958043 0)
(0.145908 0.00093496 0)
(0.145222 0.000917126 0)
(0.144128 0.000895033 0)
(0.143491 0.000878904 0)
(0.142378 0.000857708 0)
(0.141795 0.000843295 0)
(0.140657 0.000822923 0)
(0.140133 0.00081025 0)
(0.138962 0.000790665 0)
(0.138504 0.00077976 0)
(0.137292 0.000760995 0)
(0.136907 0.00075187 0)
(0.135644 0.000734091 0)
(0.135342 0.000726699 0)
(0.134015 0.000710351 0)
(0.133805 0.000704583 0)
(0.132403 0.000690819 0)
(0.132295 0.000687025 0)
(0.130804 0.000678966 0)
(0.196341 0.00626066 0)
(0.196645 0.00721819 0)
(0.19721 0.00812265 0)
(0.198059 0.00881838 0)
(0.199115 0.0091893 0)
(0.200217 0.00923907 0)
(0.201226 0.00905174 0)
(0.202063 0.00871486 0)
(0.202713 0.00829 0)
(0.203183 0.00782075 0)
(0.2035 0.00734629 0)
(0.203684 0.00690149 0)
(0.203772 0.00650885 0)
(0.203789 0.00617445 0)
(0.203771 0.0058924 0)
(0.203727 0.00565206 0)
(0.203675 0.00544328 0)
(0.203608 0.00525812 0)
(0.203534 0.00509099 0)
(0.20344 0.00493785 0)
(0.203337 0.00479595 0)
(0.203211 0.00466319 0)
(0.203073 0.00453822 0)
(0.202908 0.0044199 0)
(0.202733 0.00430759 0)
(0.202528 0.00420056 0)
(0.202312 0.00409849 0)
(0.202065 0.00400074 0)
(0.201807 0.00390712 0)
(0.201516 0.00381699 0)
(0.201216 0.00373029 0)
(0.200881 0.0036464 0)
(0.200538 0.00356537 0)
(0.200158 0.00348658 0)
(0.199773 0.00341025 0)
(0.199348 0.00333574 0)
(0.198921 0.0032634 0)
(0.198451 0.00319256 0)
(0.197983 0.0031237 0)
(0.197471 0.00305608 0)
(0.196964 0.00299034 0)
(0.196409 0.00292564 0)
(0.195866 0.00286277 0)
(0.195271 0.00280075 0)
(0.194694 0.00274057 0)
(0.194061 0.00268108 0)
(0.193452 0.00262346 0)
(0.192784 0.00256637 0)
(0.192147 0.00251122 0)
(0.191446 0.00245642 0)
(0.190784 0.00240366 0)
(0.190052 0.00235108 0)
(0.189368 0.00230065 0)
(0.188608 0.00225022 0)
(0.187905 0.00220206 0)
(0.18712 0.00215369 0)
(0.186402 0.00210777 0)
(0.185593 0.00206141 0)
(0.184864 0.00201768 0)
(0.184033 0.00197323 0)
(0.183297 0.00193166 0)
(0.182445 0.00188906 0)
(0.181704 0.0018496 0)
(0.180834 0.00180877 0)
(0.180092 0.00177139 0)
(0.179204 0.00173223 0)
(0.178466 0.00169688 0)
(0.17756 0.00165932 0)
(0.176828 0.00162597 0)
(0.175906 0.00158991 0)
(0.175184 0.00155853 0)
(0.174245 0.00152386 0)
(0.173536 0.00149443 0)
(0.172581 0.00146105 0)
(0.171888 0.00143355 0)
(0.170915 0.00140137 0)
(0.170243 0.00137578 0)
(0.169251 0.00134469 0)
(0.168604 0.00132101 0)
(0.16759 0.00129092 0)
(0.166972 0.00126916 0)
(0.165934 0.00123996 0)
(0.16535 0.00122015 0)
(0.164285 0.00119175 0)
(0.16374 0.00117391 0)
(0.162643 0.00114626 0)
(0.162143 0.00113043 0)
(0.16101 0.00110348 0)
(0.160559 0.00108969 0)
(0.159385 0.00106346 0)
(0.158991 0.00105175 0)
(0.157768 0.00102633 0)
(0.157438 0.0010167 0)
(0.156159 0.000992338 0)
(0.1559 0.000984765 0)
(0.154556 0.000961967 0)
(0.154376 0.000956451 0)
(0.152958 0.000936302 0)
(0.152865 0.000933317 0)
(0.151363 0.000917828 0)
(0.196852 0.00605743 0)
(0.197142 0.0068654 0)
(0.197635 0.00762386 0)
(0.198342 0.00823214 0)
(0.199221 0.00859969 0)
(0.200162 0.00870359 0)
(0.201058 0.00859039 0)
(0.201825 0.0083306 0)
(0.20244 0.00798399 0)
(0.2029 0.00759288 0)
(0.20323 0.00718985 0)
(0.203443 0.00680205 0)
(0.203575 0.00644955 0)
(0.20364 0.00614126 0)
(0.203674 0.00587622 0)
(0.203681 0.00564747 0)
(0.203683 0.00544721 0)
(0.203673 0.00526854 0)
(0.203664 0.00510686 0)
(0.203641 0.00495853 0)
(0.20362 0.00482149 0)
(0.203581 0.00469365 0)
(0.203545 0.00457405 0)
(0.20349 0.00446127 0)
(0.203437 0.00435495 0)
(0.203364 0.00425399 0)
(0.203295 0.00415836 0)
(0.203203 0.00406707 0)
(0.203116 0.00398027 0)
(0.203003 0.00389694 0)
(0.202897 0.00381741 0)
(0.202762 0.00374058 0)
(0.202636 0.003667 0)
(0.202477 0.00359549 0)
(0.20233 0.00352681 0)
(0.202146 0.0034597 0)
(0.201976 0.00339512 0)
(0.201765 0.00333167 0)
(0.201571 0.00327058 0)
(0.201332 0.00321026 0)
(0.201114 0.00315218 0)
(0.200845 0.00309458 0)
(0.200603 0.00303917 0)
(0.200303 0.00298394 0)
(0.200036 0.00293094 0)
(0.199706 0.00287784 0)
(0.199414 0.00282703 0)
(0.199053 0.00277587 0)
(0.198737 0.0027271 0)
(0.198345 0.0026777 0)
(0.198005 0.00263086 0)
(0.197581 0.0025831 0)
(0.19722 0.0025381 0)
(0.196764 0.00249187 0)
(0.196382 0.00244863 0)
(0.195895 0.00240383 0)
(0.195494 0.00236232 0)
(0.194976 0.00231888 0)
(0.194557 0.00227905 0)
(0.194009 0.00223689 0)
(0.193575 0.00219872 0)
(0.192997 0.00215777 0)
(0.19255 0.00212126 0)
(0.191942 0.00208145 0)
(0.191485 0.00204659 0)
(0.190847 0.00200786 0)
(0.190382 0.00197463 0)
(0.189715 0.00193692 0)
(0.189245 0.00190535 0)
(0.188548 0.00186858 0)
(0.188076 0.00183867 0)
(0.18735 0.00180277 0)
(0.186879 0.00177455 0)
(0.186122 0.00173946 0)
(0.185656 0.00171294 0)
(0.184868 0.00167859 0)
(0.18441 0.0016538 0)
(0.183591 0.00162012 0)
(0.183144 0.00159712 0)
(0.182291 0.00156404 0)
(0.181861 0.00154285 0)
(0.180973 0.00151033 0)
(0.180563 0.00149101 0)
(0.179638 0.00145899 0)
(0.179253 0.0014416 0)
(0.178287 0.00141007 0)
(0.177932 0.00139466 0)
(0.176923 0.00136364 0)
(0.176602 0.00135025 0)
(0.175546 0.00131983 0)
(0.175265 0.0013085 0)
(0.174158 0.00127884 0)
(0.173922 0.00126959 0)
(0.172759 0.001241 0)
(0.172575 0.00123385 0)
(0.17135 0.00120688 0)
(0.171222 0.00120197 0)
(0.16993 0.0011776 0)
(0.169865 0.00117542 0)
(0.1685 0.00115484 0)
(0.197301 0.00586144 0)
(0.197574 0.00654806 0)
(0.198007 0.00718884 0)
(0.198604 0.00771616 0)
(0.199342 0.00806397 0)
(0.200143 0.00820253 0)
(0.200929 0.00815185 0)
(0.201624 0.00796168 0)
(0.2022 0.00768442 0)
(0.202642 0.00736061 0)
(0.202973 0.00702001 0)
(0.2032 0.00668478 0)
(0.203355 0.00637199 0)
(0.203447 0.00609093 0)
(0.203507 0.00584396 0)
(0.203537 0.0056272 0)
(0.203563 0.00543543 0)
(0.203571 0.00526284 0)
(0.203584 0.00510586 0)
(0.203581 0.00496114 0)
(0.203584 0.00482731 0)
(0.20357 0.00470224 0)
(0.203564 0.0045855 0)
(0.20354 0.00447535 0)
(0.203526 0.00437186 0)
(0.203491 0.00427351 0)
(0.20347 0.00418073 0)
(0.203427 0.00409204 0)
(0.203399 0.00400816 0)
(0.203347 0.00392751 0)
(0.203312 0.00385105 0)
(0.20325 0.00377708 0)
(0.203209 0.00370681 0)
(0.203135 0.00363837 0)
(0.203087 0.00357329 0)
(0.203002 0.00350949 0)
(0.202945 0.00344879 0)
(0.202847 0.00338891 0)
(0.202781 0.00333198 0)
(0.202669 0.00327544 0)
(0.202593 0.00322179 0)
(0.202465 0.00316814 0)
(0.202379 0.00311739 0)
(0.202234 0.00306625 0)
(0.202136 0.00301808 0)
(0.201973 0.00296915 0)
(0.201863 0.00292331 0)
(0.20168 0.00287634 0)
(0.201557 0.00283262 0)
(0.201353 0.0027874 0)
(0.201218 0.00274564 0)
(0.200991 0.00270197 0)
(0.200843 0.00266204 0)
(0.200593 0.00261977 0)
(0.200432 0.00258155 0)
(0.200157 0.00254054 0)
(0.199983 0.00250395 0)
(0.199683 0.00246406 0)
(0.199497 0.00242904 0)
(0.19917 0.00239017 0)
(0.198973 0.00235667 0)
(0.198618 0.00231871 0)
(0.19841 0.00228668 0)
(0.198027 0.00224956 0)
(0.197809 0.00221898 0)
(0.197397 0.00218259 0)
(0.197171 0.00215344 0)
(0.196729 0.00211772 0)
(0.196495 0.00209 0)
(0.196022 0.00205486 0)
(0.195784 0.00202859 0)
(0.195279 0.00199395 0)
(0.195037 0.00196914 0)
(0.194499 0.00193496 0)
(0.194256 0.00191162 0)
(0.193685 0.00187783 0)
(0.193443 0.001856 0)
(0.192836 0.00182255 0)
(0.192598 0.00180227 0)
(0.191955 0.00176912 0)
(0.191723 0.00175043 0)
(0.191043 0.00171755 0)
(0.19082 0.0017005 0)
(0.1901 0.0016679 0)
(0.189889 0.00165253 0)
(0.189129 0.00162024 0)
(0.188933 0.00160659 0)
(0.18813 0.00157469 0)
(0.187953 0.0015628 0)
(0.187104 0.00153143 0)
(0.186949 0.00152134 0)
(0.186053 0.00149071 0)
(0.185923 0.00148247 0)
(0.184977 0.00145294 0)
(0.184876 0.00144662 0)
(0.183878 0.00141874 0)
(0.183808 0.00141457 0)
(0.182754 0.00138922 0)
(0.18272 0.00138766 0)
(0.181609 0.0013655 0)
(0.197696 0.00567221 0)
(0.197951 0.00625959 0)
(0.198333 0.00680622 0)
(0.198844 0.00726393 0)
(0.199468 0.00758542 0)
(0.200149 0.0077427 0)
(0.200835 0.00774079 0)
(0.201458 0.00761115 0)
(0.201992 0.00739568 0)
(0.202414 0.00713093 0)
(0.202741 0.00684503 0)
(0.202974 0.0065573 0)
(0.203145 0.00628252 0)
(0.203255 0.00602916 0)
(0.203335 0.00580146 0)
(0.203381 0.0055978 0)
(0.203421 0.00541544 0)
(0.203441 0.00524967 0)
(0.203465 0.00509805 0)
(0.203471 0.00495734 0)
(0.203484 0.00482689 0)
(0.203479 0.00470445 0)
(0.203483 0.00459016 0)
(0.203468 0.00448197 0)
(0.203466 0.00438047 0)
(0.203443 0.00428365 0)
(0.203436 0.00419253 0)
(0.203407 0.00410507 0)
(0.203397 0.00402261 0)
(0.203362 0.00394299 0)
(0.20335 0.00386785 0)
(0.203309 0.00379482 0)
(0.203295 0.00372588 0)
(0.20325 0.00365839 0)
(0.203234 0.00359472 0)
(0.203183 0.00353195 0)
(0.203166 0.0034728 0)
(0.203109 0.00341406 0)
(0.20309 0.00335886 0)
(0.203026 0.00330361 0)
(0.203006 0.0032519 0)
(0.202934 0.00319969 0)
(0.202912 0.00315109 0)
(0.202832 0.00310157 0)
(0.202807 0.00305576 0)
(0.202718 0.00300861 0)
(0.20269 0.00296535 0)
(0.20259 0.0029203 0)
(0.202559 0.00287939 0)
(0.202447 0.00283621 0)
(0.202413 0.00279745 0)
(0.202288 0.00275595 0)
(0.202249 0.00271919 0)
(0.20211 0.00267919 0)
(0.202068 0.00264429 0)
(0.201913 0.00260562 0)
(0.201866 0.00257249 0)
(0.201694 0.00253499 0)
(0.201643 0.00250352 0)
(0.201453 0.00246706 0)
(0.201397 0.00243719 0)
(0.201188 0.00240164 0)
(0.201127 0.00237329 0)
(0.200897 0.00233854 0)
(0.200832 0.00231166 0)
(0.20058 0.00227761 0)
(0.200511 0.00225215 0)
(0.200236 0.0022187 0)
(0.200163 0.00219463 0)
(0.199864 0.00216169 0)
(0.199787 0.00213899 0)
(0.199462 0.00210647 0)
(0.199383 0.00208514 0)
(0.199032 0.00205297 0)
(0.198951 0.00203299 0)
(0.198571 0.00200113 0)
(0.19849 0.0019825 0)
(0.198081 0.00195089 0)
(0.198 0.00193362 0)
(0.19756 0.00190225 0)
(0.19748 0.00188635 0)
(0.197009 0.00185521 0)
(0.196932 0.00184069 0)
(0.196427 0.0018098 0)
(0.196354 0.00179669 0)
(0.195816 0.00176611 0)
(0.195748 0.00175442 0)
(0.195174 0.00172427 0)
(0.195113 0.00171401 0)
(0.194503 0.00168446 0)
(0.19445 0.00167568 0)
(0.193802 0.00164696 0)
(0.193758 0.00163971 0)
(0.193071 0.00161219 0)
(0.193038 0.00160659 0)
(0.192312 0.00158081 0)
(0.192289 0.00157716 0)
(0.191523 0.00155388 0)
(0.191513 0.00155256 0)
(0.190706 0.00153214 0)
(0.198044 0.00549036 0)
(0.19828 0.00599666 0)
(0.19862 0.00646733 0)
(0.199059 0.00686663 0)
(0.199592 0.00716041 0)
(0.200174 0.00732503 0)
(0.20077 0.00735856 0)
(0.201323 0.00727905 0)
(0.201813 0.0071177 0)
(0.202211 0.00690516 0)
(0.202531 0.0066675 0)
(0.202766 0.00642229 0)
(0.202947 0.00618295 0)
(0.20307 0.00595689 0)
(0.203165 0.00574927 0)
(0.203225 0.00555985 0)
(0.203278 0.00538801 0)
(0.203307 0.00523005 0)
(0.203339 0.0050847 0)
(0.203352 0.00494881 0)
(0.203372 0.00482241 0)
(0.203372 0.00470307 0)
(0.203382 0.00459153 0)
(0.203372 0.00448544 0)
(0.203375 0.00438594 0)
(0.203357 0.00429061 0)
(0.203356 0.00420097 0)
(0.203331 0.0041145 0)
(0.203328 0.00403314 0)
(0.203298 0.00395416 0)
(0.203293 0.00387986 0)
(0.203259 0.00380723 0)
(0.203253 0.00373896 0)
(0.203216 0.00367175 0)
(0.20321 0.00360867 0)
(0.203169 0.0035461 0)
(0.203164 0.00348754 0)
(0.20312 0.00342897 0)
(0.203116 0.00337439 0)
(0.203068 0.00331933 0)
(0.203065 0.0032683 0)
(0.203014 0.00321634 0)
(0.203012 0.00316851 0)
(0.202956 0.0031193 0)
(0.202956 0.00307437 0)
(0.202895 0.00302762 0)
(0.202896 0.00298538 0)
(0.20283 0.00294083 0)
(0.202832 0.00290106 0)
(0.20276 0.00285851 0)
(0.202763 0.00282103 0)
(0.202685 0.00278028 0)
(0.202689 0.00274494 0)
(0.202603 0.00270581 0)
(0.202608 0.00267249 0)
(0.202513 0.00263482 0)
(0.202518 0.0026034 0)
(0.202414 0.00256702 0)
(0.20242 0.0025374 0)
(0.202306 0.0025022 0)
(0.202312 0.00247427 0)
(0.202186 0.00244011 0)
(0.202193 0.00241381 0)
(0.202054 0.00238057 0)
(0.202061 0.00235582 0)
(0.201908 0.00232339 0)
(0.201915 0.00230012 0)
(0.201748 0.00226842 0)
(0.201754 0.00224657 0)
(0.201572 0.00221549 0)
(0.201578 0.00219503 0)
(0.201379 0.00216448 0)
(0.201385 0.00214535 0)
(0.201167 0.00211528 0)
(0.201173 0.00209745 0)
(0.200937 0.00206781 0)
(0.200942 0.00205124 0)
(0.200686 0.00202199 0)
(0.200692 0.00200667 0)
(0.200415 0.00197778 0)
(0.20042 0.00196368 0)
(0.200122 0.00193518 0)
(0.200127 0.00192228 0)
(0.199806 0.00189419 0)
(0.199811 0.00188248 0)
(0.199466 0.00185488 0)
(0.199472 0.00184435 0)
(0.199103 0.00181736 0)
(0.199109 0.00180802 0)
(0.198715 0.00178181 0)
(0.198721 0.0017737 0)
(0.198301 0.0017485 0)
(0.198307 0.00174169 0)
(0.197862 0.00171785 0)
(0.197868 0.0017125 0)
(0.197396 0.00169052 0)
(0.197401 0.00168695 0)
(0.196904 0.00166746 0)
(0.196907 0.00166601 0)
(0.196384 0.00164924 0)
(0.19835 0.00531665 0)
(0.198568 0.00575642 0)
(0.198871 0.00616504 0)
(0.199252 0.00651548 0)
(0.19971 0.00678262 0)
(0.200209 0.0069473 0)
(0.200726 0.00700506 0)
(0.201216 0.00696532 0)
(0.201661 0.00685013 0)
(0.202033 0.00668355 0)
(0.20234 0.00648873 0)
(0.202575 0.00628162 0)
(0.202761 0.0060749 0)
(0.202893 0.00587513 0)
(0.202999 0.00568786 0)
(0.20307 0.00551357 0)
(0.203133 0.00535323 0)
(0.203171 0.00520405 0)
(0.203211 0.00506582 0)
(0.20323 0.00493557 0)
(0.203255 0.00481389 0)
(0.203261 0.00469825 0)
(0.203275 0.00458991 0)
(0.203269 0.00448632 0)
(0.203276 0.00438907 0)
(0.203262 0.00429545 0)
(0.203264 0.00420742 0)
(0.203243 0.00412211 0)
(0.203242 0.00404188 0)
(0.203216 0.00396363 0)
(0.203213 0.0038901 0)
(0.203183 0.00381789 0)
(0.203179 0.00375016 0)
(0.203147 0.00368316 0)
(0.203143 0.00362044 0)
(0.203107 0.00355794 0)
(0.203104 0.00349963 0)
(0.203066 0.00344105 0)
(0.203064 0.00338666 0)
(0.203024 0.00333152 0)
(0.203023 0.00328065 0)
(0.202981 0.00322859 0)
(0.202982 0.00318091 0)
(0.202938 0.00313161 0)
(0.202941 0.00308685 0)
(0.202894 0.00304003 0)
(0.2029 0.00299798 0)
(0.20285 0.00295341 0)
(0.202858 0.00291388 0)
(0.202805 0.00287136 0)
(0.202816 0.00283417 0)
(0.202759 0.00279354 0)
(0.202773 0.00275855 0)
(0.202712 0.00271963 0)
(0.202728 0.00268672 0)
(0.202663 0.00264936 0)
(0.202682 0.00261841 0)
(0.202612 0.00258248 0)
(0.202633 0.00255338 0)
(0.202558 0.00251875 0)
(0.202581 0.00249141 0)
(0.2025 0.00245796 0)
(0.202526 0.0024323 0)
(0.202438 0.00239992 0)
(0.202466 0.00237585 0)
(0.202371 0.00234445 0)
(0.2024 0.00232189 0)
(0.202298 0.00229139 0)
(0.202329 0.00227027 0)
(0.202218 0.00224056 0)
(0.20225 0.00222083 0)
(0.20213 0.00219186 0)
(0.202164 0.00217345 0)
(0.202034 0.00214515 0)
(0.202068 0.002128 0)
(0.201927 0.00210033 0)
(0.201962 0.0020844 0)
(0.201811 0.00205734 0)
(0.201846 0.00204258 0)
(0.201683 0.00201612 0)
(0.201718 0.00200248 0)
(0.201542 0.00197664 0)
(0.201576 0.00196409 0)
(0.201387 0.0019389 0)
(0.201421 0.00192742 0)
(0.201219 0.00190295 0)
(0.201251 0.00189253 0)
(0.201034 0.00186889 0)
(0.201064 0.00185954 0)
(0.200834 0.00183689 0)
(0.200861 0.00182865 0)
(0.200615 0.00180722 0)
(0.200639 0.00180019 0)
(0.200379 0.00178027 0)
(0.200398 0.00177466 0)
(0.200123 0.00175668 0)
(0.200136 0.00175282 0)
(0.199846 0.00173731 0)
(0.199854 0.00173552 0)
(0.199549 0.00172269 0)