/*--------------------------------*- C++ -*----------------------------------*\
| =========                 |                                                 |
| \\      /  F ield         | OpenFOAM: The Open Source CFD Toolbox           |
|  \\    /   O peration     | Version:  2.3.0                                 |
|   \\  /    A nd           | Web:      www.OpenFOAM.org                      |
|    \\/     M anipulation  |                                                 |
\*---------------------------------------------------------------------------*/
FoamFile
{
    version     2.0;
    format      ascii;
    class       volScalarField;
    location    "0.35";
    object      p;
}
// * * * * * * * * * * * * * * * * * * * * * * * * * * * * * * * * * * * * * //

dimensions      [0 2 -2 0 0 0 0];

internalField   nonuniform List<scalar> 
2700
(
0.00798197
0.0063704
0.00516057
0.0044126
0.00389464
0.00343787
0.00299984
0.00260387
0.00228925
0.00207477
0.00195213
0.00189663
0.00188068
0.00188201
0.00188619
0.00188563
0.00187762
0.0018624
0.00184154
0.00181687
0.00178999
0.00176206
0.00173384
0.00170577
0.00167807
0.00165079
0.00162394
0.00159745
0.00157126
0.00154531
0.00151954
0.00149391
0.00146837
0.00144291
0.00141751
0.00139214
0.00136681
0.00134151
0.00131622
0.00129096
0.00126573
0.00124051
0.00121531
0.00119014
0.00116499
0.00113987
0.00111477
0.00108971
0.00106467
0.00103968
0.00101473
0.000989833
0.000964984
0.000940203
0.000915483
0.000890852
0.000866299
0.000841861
0.000817516
0.000793316
0.00076924
0.000745338
0.000721591
0.000698046
0.000674717
0.000651604
0.000628769
0.00060616
0.000583923
0.000561914
0.000540338
0.000519015
0.000498172
0.000477656
0.000457564
0.000437897
0.000418577
0.000399783
0.000381234
0.000363117
0.000345233
0.000327562
0.000310178
0.000292661
0.000275339
0.000257819
0.000240304
0.000222766
0.000204941
0.000187132
0.000169214
0.000151198
0.000133415
0.000115355
9.74018e-05
7.9471e-05
6.16128e-05
4.38747e-05
2.63861e-05
8.62072e-06
0.00698658
0.00601304
0.00506573
0.00436159
0.00385259
0.00342288
0.00301863
0.00265047
0.00234954
0.0021354
0.00200577
0.0019411
0.00191611
0.00190935
0.00190688
0.00190127
0.00188969
0.00187208
0.00184964
0.00182393
0.00179632
0.00176783
0.00173915
0.00171069
0.00168263
0.00165503
0.00162788
0.00160113
0.0015747
0.00154853
0.00152256
0.00149675
0.00147105
0.00144544
0.00141989
0.0013944
0.00136896
0.00134354
0.00131816
0.00129281
0.00126749
0.00124219
0.00121692
0.00119167
0.00116645
0.00114127
0.00111611
0.00109099
0.0010659
0.00104086
0.00101585
0.000990907
0.000966012
0.000941188
0.000916423
0.000891751
0.000867157
0.000842681
0.000818295
0.00079406
0.000769947
0.000746009
0.000722227
0.000698647
0.000675287
0.000652137
0.000629275
0.000606626
0.000584366
0.00056232
0.000540721
0.000519363
0.000498493
0.000477955
0.000457829
0.000438149
0.00041879
0.000399992
0.000381414
0.000363285
0.000345392
0.000327697
0.000310327
0.000292786
0.000275471
0.000257944
0.000240416
0.000222896
0.00020505
0.000187243
0.000169324
0.000151286
0.000133522
0.000115449
9.74873e-05
7.95601e-05
6.16898e-05
4.39508e-05
2.64757e-05
8.69244e-06
0.00625594
0.00567347
0.00496397
0.0043294
0.00382911
0.0034196
0.00305289
0.00272104
0.00244029
0.00222747
0.00208606
0.00200461
0.00196364
0.00194399
0.00193163
0.00191884
0.0019025
0.00188202
0.00185798
0.00183137
0.00180321
0.00177432
0.00174529
0.00171647
0.00168804
0.00166008
0.00163257
0.00160547
0.00157872
0.00155225
0.00152601
0.00149995
0.00147402
0.00144821
0.00142248
0.00139683
0.00137123
0.00134569
0.00132018
0.00129472
0.00126929
0.0012439
0.00121854
0.00119321
0.00116792
0.00114266
0.00111744
0.00109226
0.00106711
0.00104201
0.00101696
0.000991963
0.00096702
0.000942153
0.000917343
0.000892633
0.000867997
0.000843485
0.00081906
0.000794791
0.000770641
0.000746671
0.000722856
0.00069924
0.000675853
0.000652665
0.000629781
0.000607089
0.000584813
0.000562724
0.000541108
0.000519711
0.000498819
0.000478258
0.000458097
0.000438409
0.000419004
0.000400211
0.000381599
0.000363459
0.000345557
0.000327831
0.000310486
0.000292909
0.000275606
0.000258066
0.000240519
0.000223026
0.000205148
0.000187345
0.000169423
0.000151355
0.000133622
0.000115529
9.75541e-05
7.96321e-05
6.17402e-05
4.40013e-05
2.65354e-05
8.72255e-06
0.00570936
0.00534655
0.0048253
0.00427933
0.00380646
0.00341651
0.00308112
0.0027829
0.00252509
0.00231922
0.0021713
0.00207611
0.00202
0.00198706
0.00196431
0.00194386
0.00192207
0.00189784
0.00187127
0.00184295
0.00181359
0.0017838
0.00175402
0.00172455
0.00169553
0.001667
0.00163897
0.00161138
0.00158417
0.00155729
0.00153067
0.00150427
0.00147804
0.00145195
0.00142598
0.0014001
0.00137429
0.00134856
0.00132289
0.00129727
0.0012717
0.00124618
0.00122069
0.00119526
0.00116986
0.00114451
0.00111919
0.00109393
0.00106871
0.00104354
0.00101841
0.000993357
0.000968354
0.000943433
0.000918569
0.000893811
0.000869126
0.000844572
0.000820101
0.000795793
0.000771602
0.000747595
0.000723741
0.000700085
0.000676667
0.000653437
0.000630528
0.000607785
0.000585492
0.000563351
0.000541718
0.000520271
0.000499351
0.00047876
0.000458553
0.00043885
0.000419384
0.000400589
0.000381924
0.000363764
0.000345837
0.000328063
0.000310733
0.000293101
0.000275803
0.000258238
0.000240662
0.000223197
0.000205276
0.000187476
0.000169546
0.000151443
0.000133742
0.000115626
9.76316e-05
7.97128e-05
6.17876e-05
4.40479e-05
2.65819e-05
8.72905e-06
0.00527651
0.00503655
0.00465238
0.00420207
0.00377454
0.00340885
0.00309877
0.00282834
0.00259278
0.00239745
0.00224818
0.00214385
0.0020757
0.00203131
0.00199932
0.00197191
0.001945
0.00191702
0.00188774
0.00185746
0.00182667
0.00179578
0.00176512
0.00173487
0.00170514
0.00167596
0.00164731
0.00161914
0.00159139
0.001564
0.00153692
0.00151009
0.00148347
0.00145702
0.00143072
0.00140455
0.00137848
0.0013525
0.0013266
0.00130077
0.00127501
0.00124931
0.00122366
0.00119808
0.00117254
0.00114706
0.00112163
0.00109626
0.00107093
0.00104567
0.00102046
0.000995327
0.000970249
0.000945261
0.00092033
0.000895514
0.00087077
0.000846167
0.000821642
0.000797289
0.00077305
0.000749002
0.000725105
0.000701407
0.000677953
0.000654676
0.000631738
0.000608939
0.000586624
0.000564424
0.000542766
0.000521258
0.000500303
0.000479665
0.0004594
0.000439663
0.000420115
0.000401297
0.000382553
0.000364349
0.000346363
0.000328515
0.00031117
0.000293457
0.000276141
0.000258528
0.00024091
0.000223459
0.000205483
0.000187685
0.000169733
0.000151596
0.000133918
0.000115773
9.77551e-05
7.98299e-05
6.18594e-05
4.41151e-05
2.66332e-05
8.72888e-06
0.00492059
0.00475191
0.0044654
0.00410341
0.00373142
0.00339604
0.00310825
0.00285992
0.00264398
0.00246083
0.00231421
0.00220482
0.00212768
0.0020738
0.0020337
0.00200004
0.00196847
0.00193701
0.00190514
0.00187295
0.00184072
0.00180874
0.00177719
0.00174619
0.00171578
0.00168597
0.00165671
0.00162797
0.00159968
0.00157179
0.00154423
0.00151696
0.00148993
0.00146311
0.00143646
0.00140996
0.00138359
0.00135734
0.00133118
0.00130512
0.00127914
0.00125324
0.00122741
0.00120165
0.00117596
0.00115033
0.00112476
0.00109926
0.00107382
0.00104846
0.00102314
0.000997917
0.000972752
0.000947687
0.000922683
0.000897802
0.000872995
0.000848337
0.000823757
0.000799355
0.000775068
0.000750978
0.000727037
0.000703296
0.000679806
0.000656484
0.000633514
0.00061066
0.000588317
0.000566056
0.000544368
0.000522791
0.000501792
0.000481094
0.000460761
0.000440968
0.000421321
0.000402452
0.0003836
0.000365323
0.000347238
0.000329288
0.000311885
0.000294064
0.000276696
0.000259005
0.000241325
0.000223865
0.000205823
0.000188017
0.000170025
0.000151853
0.000134186
0.000116004
9.79586e-05
8.0011e-05
6.19798e-05
4.42263e-05
2.67099e-05
8.73988e-06
0.00462059
0.00449651
0.00427972
0.00399191
0.00367687
0.00337642
0.00311091
0.00288113
0.00268188
0.00251092
0.00236948
0.00225842
0.00217521
0.00211377
0.00206667
0.0020274
0.00199158
0.00195696
0.0019227
0.00188869
0.00185507
0.001822
0.00178958
0.00175783
0.00172676
0.00169633
0.0016665
0.00163721
0.0016084
0.00158002
0.001552
0.00152431
0.00149688
0.00146969
0.0014427
0.00141588
0.00138922
0.00136269
0.00133629
0.00130999
0.00128379
0.00125769
0.00123167
0.00120574
0.00117988
0.0011541
0.0011284
0.00110277
0.00107721
0.00105173
0.00102632
0.001001
0.000975749
0.000950605
0.00092553
0.000900583
0.000875716
0.000851003
0.000826373
0.000801926
0.000777596
0.000753466
0.000729489
0.00070571
0.000682186
0.000658826
0.000635825
0.000612925
0.000590551
0.000568235
0.000546513
0.000524869
0.000503819
0.000483052
0.000462644
0.000442776
0.000423019
0.00040407
0.00038509
0.000366713
0.000348493
0.000330417
0.000312908
0.000294961
0.000277504
0.00025971
0.000241947
0.000224446
0.000206332
0.000188502
0.000170455
0.000152242
0.000134567
0.000116344
9.8265e-05
8.02807e-05
6.21702e-05
4.43937e-05
2.68261e-05
8.7816e-06
0.00436389
0.00426989
0.00410297
0.00387435
0.00361187
0.00334831
0.00310643
0.0028938
0.00270902
0.00254948
0.00241456
0.00230444
0.00221779
0.00215076
0.00209786
0.00205366
0.00201403
0.00197655
0.00194012
0.00190443
0.00186949
0.00183535
0.00180204
0.00176954
0.00173781
0.00170677
0.00167637
0.00164655
0.00161724
0.00158839
0.00155993
0.00153182
0.00150401
0.00147646
0.00144914
0.00142201
0.00139506
0.00136827
0.00134162
0.00131509
0.00128868
0.00126238
0.00123618
0.00121008
0.00118407
0.00115814
0.0011323
0.00110655
0.00108088
0.00105529
0.00102978
0.00100437
0.000979046
0.000953827
0.000928688
0.00090368
0.000878761
0.000853997
0.000829327
0.000804839
0.000780475
0.00075631
0.000732305
0.000708497
0.000684945
0.000661556
0.000638527
0.000615595
0.000593186
0.00057083
0.000549065
0.000527369
0.000506261
0.000485422
0.000464939
0.000444982
0.00042512
0.00040606
0.000386947
0.000368449
0.000350075
0.00033186
0.0003142
0.000296124
0.000278546
0.000260635
0.000242773
0.000225192
0.000207014
0.000189137
0.00017103
0.00015277
0.000135052
0.000116792
9.86732e-05
8.06429e-05
6.24456e-05
4.46174e-05
2.69773e-05
8.86007e-06
0.00414172
0.00406893
0.0039382
0.00375575
0.00353881
0.00331138
0.00309434
0.00289886
0.00272732
0.00257828
0.00245036
0.00234295
0.00225509
0.00218437
0.00212697
0.0020786
0.00203562
0.00199558
0.00195722
0.00192001
0.00188383
0.00184866
0.00181449
0.00178124
0.00174884
0.0017172
0.00168625
0.0016559
0.0016261
0.00159679
0.0015679
0.00153939
0.0015112
0.0014833
0.00145565
0.00142823
0.001401
0.00137394
0.00134705
0.0013203
0.00129368
0.00126719
0.00124081
0.00121454
0.00118837
0.0011623
0.00113633
0.00111046
0.00108467
0.00105899
0.00103339
0.00100789
0.00098249
0.000957199
0.000932002
0.000906936
0.000881972
0.00085716
0.000832456
0.000807932
0.000783542
0.000759345
0.000735319
0.00071149
0.000687914
0.000664504
0.000641445
0.000618501
0.000596049
0.000573669
0.000551851
0.000530121
0.00050895
0.000488039
0.000467484
0.000447428
0.000427479
0.000408281
0.000389044
0.000370406
0.000351876
0.000333527
0.000315678
0.000297481
0.000279755
0.000261729
0.000243767
0.000226061
0.000207832
0.000189887
0.000171721
0.000153424
0.000135615
0.000117322
9.9159e-05
8.10737e-05
6.28052e-05
4.48926e-05
2.71433e-05
8.96035e-06
0.00394755
0.00389022
0.00378639
0.00363967
0.00346078
0.00326671
0.00307474
0.00289687
0.00273815
0.00259892
0.00247801
0.00237437
0.00228701
0.00221434
0.00215374
0.00210204
0.0020562
0.00201393
0.00197385
0.00193528
0.00189798
0.00186185
0.00182684
0.00179286
0.00175981
0.00172758
0.00169608
0.00166523
0.00163496
0.00160519
0.00157588
0.00154697
0.00151842
0.00149017
0.00146221
0.00143448
0.00140697
0.00137966
0.00135252
0.00132555
0.00129873
0.00127204
0.00124548
0.00121905
0.00119273
0.00116652
0.00114042
0.00111442
0.00108853
0.00106274
0.00103705
0.00101147
0.000985996
0.000960633
0.00093538
0.000910257
0.000885253
0.000860392
0.000835659
0.000811099
0.000786687
0.00076246
0.000738415
0.00071457
0.000690969
0.000667547
0.000644453
0.000621508
0.000599007
0.000576615
0.000554735
0.000532983
0.000511749
0.000490766
0.000470143
0.000449977
0.000429963
0.00041061
0.000391258
0.000372471
0.000353786
0.00033532
0.000317256
0.000298949
0.00028106
0.000262922
0.000244877
0.000227006
0.000208735
0.000190706
0.00017248
0.00015417
0.000136228
0.000117899
9.96897e-05
8.15349e-05
6.32257e-05
4.52131e-05
2.73082e-05
9.05784e-06
0.00377647
0.00373071
0.00364729
0.00352833
0.00338067
0.00321616
0.00304833
0.0028883
0.00274241
0.00261265
0.00249862
0.0023993
0.00231366
0.00224046
0.00217793
0.00212378
0.00207563
0.00203145
0.00198987
0.00195012
0.00191182
0.00187482
0.00183904
0.00180436
0.00177068
0.00173788
0.00170586
0.00167452
0.00164378
0.00161358
0.00158386
0.00155457
0.00152565
0.00149707
0.00146878
0.00144076
0.00141298
0.00138541
0.00135803
0.00133083
0.0013038
0.00127692
0.00125019
0.00122358
0.00119711
0.00117076
0.00114453
0.00111841
0.00109241
0.00106652
0.00104074
0.00101507
0.000989527
0.000964092
0.000938782
0.000913603
0.000888557
0.000863647
0.000838884
0.000814289
0.000789854
0.000765599
0.000741532
0.000717674
0.000694045
0.000670614
0.000647481
0.000624541
0.000601986
0.000579587
0.000557641
0.000535868
0.000514574
0.000493516
0.000472832
0.000452548
0.000432481
0.00041297
0.000393508
0.000374572
0.000355733
0.000337165
0.000318881
0.000300468
0.000282413
0.00026416
0.000246049
0.000227997
0.000209682
0.000191564
0.000173267
0.000154968
0.000136872
0.000118494
0.00010024
8.19983e-05
6.36709e-05
4.5563e-05
2.74682e-05
9.13782e-06
0.00362477
0.00358784
0.00352016
0.00342295
0.00330074
0.00316175
0.00301625
0.00287372
0.00274072
0.00262034
0.00251312
0.00241842
0.00233528
0.00226268
0.00219933
0.00214361
0.00209372
0.002048
0.00200517
0.00196439
0.00192524
0.00188748
0.001851
0.00181568
0.00178141
0.00174807
0.00171555
0.00168374
0.00165256
0.00162194
0.00159183
0.00156216
0.00153288
0.00150397
0.00147537
0.00144706
0.001419
0.00139117
0.00136356
0.00133614
0.0013089
0.00128183
0.00125491
0.00122814
0.00120152
0.00117502
0.00114866
0.00112242
0.00109631
0.00107031
0.00104444
0.00101869
0.000993067
0.00096756
0.000942192
0.000916955
0.000891865
0.000866907
0.000842111
0.000817481
0.000793019
0.000768737
0.000744645
0.000720773
0.000697114
0.000673675
0.000650499
0.000627562
0.000604954
0.000582545
0.000560535
0.000538736
0.000517385
0.00049625
0.000475509
0.000455104
0.000434987
0.00041532
0.000395752
0.000376674
0.00035768
0.000339016
0.000320519
0.000302002
0.000283788
0.000265415
0.000247244
0.000229012
0.000210645
0.000192441
0.000174062
0.000155779
0.000137533
0.000119091
0.000100795
8.24549e-05
6.41122e-05
4.59182e-05
2.76247e-05
9.20025e-06
0.00348954
0.00345946
0.00340408
0.00332411
0.0032226
0.00310527
0.00297979
0.00285388
0.00273364
0.00262266
0.00252226
0.00243236
0.00235225
0.00228106
0.00221781
0.00216134
0.00211033
0.00206346
0.00201961
0.001978
0.00193813
0.00189974
0.00186265
0.00182677
0.00179196
0.00175812
0.00172512
0.00169286
0.00166126
0.00163025
0.00159975
0.00156972
0.0015401
0.00151086
0.00148196
0.00145336
0.00142503
0.00139695
0.0013691
0.00134146
0.00131402
0.00128675
0.00125965
0.00123272
0.00120594
0.00117929
0.0011528
0.00112643
0.00110021
0.00107411
0.00104815
0.00102231
0.000996611
0.000971031
0.000945603
0.000920308
0.000895169
0.000870165
0.000845332
0.000820666
0.000796173
0.000771864
0.000747744
0.000723857
0.000700164
0.000676715
0.000653498
0.000630558
0.000607896
0.000585472
0.000563404
0.000541572
0.000520165
0.000498951
0.000478155
0.000457634
0.000437458
0.000417646
0.000397971
0.000378759
0.000359614
0.000340852
0.000322159
0.000303534
0.000285172
0.000266676
0.000248437
0.000230043
0.000211614
0.000193328
0.000174862
0.000156579
0.000138199
0.000119686
0.000101346
8.29062e-05
6.45356e-05
4.6258e-05
2.7779e-05
9.25205e-06
0.00336848
0.00334378
0.00329815
0.00323196
0.00314728
0.00304816
0.00294026
0.0028297
0.00272179
0.00262016
0.00252666
0.00244171
0.00236497
0.00229578
0.00223336
0.00217685
0.00212529
0.00207768
0.00203311
0.00199085
0.00195042
0.0019115
0.00187392
0.00183755
0.00180227
0.00176797
0.00173454
0.00170187
0.00166987
0.00163848
0.00160762
0.00157724
0.00154729
0.00151774
0.00148854
0.00145965
0.00143106
0.00140273
0.00137465
0.00134679
0.00131914
0.00129168
0.0012644
0.0012373
0.00121036
0.00118357
0.00115694
0.00113046
0.00110412
0.00107791
0.00105185
0.00102593
0.00100015
0.0009745
0.00094901
0.000923655
0.000898464
0.000873413
0.000848541
0.000823839
0.000799311
0.000774975
0.000750824
0.000726918
0.00070319
0.000679728
0.000656472
0.00063352
0.000610809
0.000588363
0.000566242
0.000544369
0.000522907
0.000501615
0.000480761
0.000460131
0.000439888
0.00041994
0.00040016
0.00038082
0.000361532
0.000342661
0.000323791
0.000305058
0.000286555
0.00026794
0.000249619
0.000231082
0.000212584
0.000194218
0.000175666
0.000157359
0.000138863
0.000120278
0.000101889
8.33547e-05
6.49376e-05
4.65714e-05
2.7931e-05
9.29986e-06
0.00325975
0.00323932
0.00320147
0.00314637
0.00307543
0.00299153
0.00289885
0.00280215
0.00270587
0.00261342
0.00252685
0.002447
0.00237388
0.00230709
0.00224604
0.00219008
0.0021385
0.00209056
0.00204555
0.00200286
0.00196201
0.00192271
0.00188474
0.00184797
0.00181229
0.00177759
0.00174376
0.00171071
0.00167835
0.0016466
0.0016154
0.00158469
0.00155443
0.00152457
0.00149508
0.00146593
0.00143707
0.0014085
0.00138019
0.00135211
0.00132425
0.0012966
0.00126915
0.00124187
0.00121478
0.00118785
0.00116109
0.00113448
0.00110802
0.00108171
0.00105556
0.00102954
0.00100369
0.00097796
0.000952405
0.00092699
0.000901746
0.000876648
0.000851733
0.000826993
0.000802427
0.000778064
0.000753881
0.000729953
0.000706189
0.000682709
0.000659416
0.000636444
0.000613687
0.000591213
0.000569044
0.000547124
0.000525605
0.000504237
0.000483324
0.000462593
0.000442273
0.000422199
0.000402315
0.000382852
0.000363429
0.000344442
0.000325412
0.00030657
0.000287934
0.000269204
0.000250786
0.000232123
0.000213553
0.000195106
0.000176473
0.000158116
0.00013952
0.000120868
0.00010242
8.38003e-05
6.53195e-05
4.68565e-05
2.80802e-05
9.34764e-06
0.00316183
0.00314482
0.00311324
0.00306711
0.00300741
0.00293621
0.00285657
0.00277219
0.00268667
0.00260302
0.00252333
0.00244867
0.00237937
0.00231528
0.002256
0.00220104
0.0021499
0.00210203
0.00205687
0.00201395
0.00197285
0.00193328
0.00189503
0.00185796
0.00182196
0.00178692
0.00175275
0.00171936
0.00168666
0.00165459
0.00162307
0.00159205
0.00156149
0.00153134
0.00150157
0.00147215
0.00144305
0.00141424
0.0013857
0.0013574
0.00132935
0.00130151
0.00127388
0.00124644
0.00121919
0.00119212
0.00116522
0.00113848
0.00111192
0.0010855
0.00105925
0.00103314
0.0010072
0.000981405
0.000955782
0.000930307
0.000905006
0.000879861
0.000854901
0.000830122
0.000805517
0.000781125
0.000756907
0.000732953
0.000709155
0.000685653
0.000662325
0.000639325
0.000616526
0.000594017
0.000571803
0.000549833
0.000528256
0.000506816
0.00048584
0.000465014
0.00044461
0.000424419
0.000404433
0.000384852
0.000365301
0.000346192
0.000327017
0.000308068
0.000289303
0.000270464
0.000251938
0.000233164
0.000214519
0.000195988
0.000177281
0.000158854
0.000140167
0.000121454
0.000102939
8.42404e-05
6.56836e-05
4.71165e-05
2.82262e-05
9.39691e-06
0.00307349
0.00305924
0.00303272
0.0029939
0.00294342
0.00288278
0.00281426
0.00274068
0.00266493
0.00258959
0.00251661
0.00244717
0.00238183
0.00232064
0.00226342
0.00220983
0.00215949
0.00211202
0.002067
0.00202407
0.00198288
0.00194317
0.00190475
0.00186747
0.00183122
0.00179591
0.00176146
0.00172777
0.00169477
0.0016624
0.00163059
0.00159928
0.00156844
0.00153802
0.00150799
0.00147831
0.00144897
0.00141992
0.00139116
0.00136266
0.00133441
0.00130638
0.00127858
0.00125097
0.00122357
0.00119635
0.00116932
0.00114246
0.00111578
0.00108926
0.00106291
0.00103672
0.00101069
0.000984823
0.000959132
0.000933595
0.000908237
0.000883044
0.000858036
0.000833218
0.000808572
0.000784149
0.000759896
0.000735912
0.00071208
0.000688551
0.00066519
0.000642158
0.000619319
0.000596771
0.000574514
0.00055249
0.000530853
0.000509345
0.000488302
0.000467389
0.000446896
0.000426597
0.00040651
0.000386815
0.000367143
0.00034791
0.000328604
0.000309547
0.000290658
0.000271713
0.000253075
0.000234199
0.000215481
0.000196861
0.000178083
0.000159574
0.000140805
0.000122034
0.000103445
8.46718e-05
6.60315e-05
4.73565e-05
2.83684e-05
9.44772e-06
0.0029937
0.00298169
0.00295929
0.00292642
0.00288353
0.00283168
0.00277259
0.00270839
0.00264139
0.00257375
0.00250719
0.00244291
0.00238159
0.00232347
0.00226852
0.00221655
0.00216731
0.00212053
0.00207591
0.00203317
0.00199206
0.00195234
0.00191385
0.00187645
0.00184003
0.00180452
0.00176984
0.0017359
0.00170265
0.00167001
0.00163793
0.00160636
0.00157525
0.00154458
0.0015143
0.00148438
0.0014548
0.00142553
0.00139656
0.00136786
0.00133941
0.0013112
0.00128323
0.00125546
0.00122791
0.00120055
0.00117339
0.00114641
0.00111961
0.00109298
0.00106654
0.00104025
0.00101415
0.000988203
0.000962442
0.000936844
0.000911428
0.000886187
0.00086113
0.00083627
0.000811583
0.000787126
0.000762838
0.000738822
0.000714957
0.000691396
0.000668004
0.000644934
0.000622057
0.000599467
0.000577167
0.000555089
0.000533393
0.00051182
0.000490705
0.000469712
0.000449127
0.000428727
0.000408542
0.000388735
0.000368949
0.000349592
0.000330165
0.000311002
0.000291995
0.000272947
0.000254195
0.000235225
0.000216433
0.000197722
0.000178875
0.000160278
0.000141431
0.000122606
0.000103938
8.50917e-05
6.63644e-05
4.75814e-05
2.85071e-05
9.49931e-06
0.00292161
0.00291142
0.00289237
0.00286439
0.00282774
0.00278322
0.00273209
0.00267598
0.00261673
0.0025561
0.00249558
0.0024363
0.002379
0.00232402
0.00227149
0.00222134
0.00217343
0.00212757
0.00208357
0.00204122
0.00200034
0.00196074
0.00192229
0.00188486
0.00184836
0.00181271
0.00177785
0.00174372
0.00171024
0.00167737
0.00164506
0.00161325
0.0015819
0.00155099
0.00152048
0.00149033
0.00146053
0.00143105
0.00140187
0.00137297
0.00134434
0.00131595
0.00128781
0.00125989
0.00123219
0.00120469
0.0011774
0.00115029
0.00112338
0.00109665
0.00107011
0.00104374
0.00101755
0.000991532
0.000965701
0.000940042
0.000914566
0.000889276
0.000864169
0.000839267
0.000814538
0.000790046
0.000765723
0.000741671
0.000717774
0.000694179
0.000670756
0.000647644
0.000624733
0.000602098
0.000579755
0.000557623
0.000535865
0.000514233
0.000493043
0.000471975
0.000451297
0.000430804
0.000410522
0.000390606
0.000370714
0.000351235
0.000331698
0.000312429
0.000293307
0.00027416
0.000255296
0.000236238
0.000217369
0.000198569
0.000179652
0.000160965
0.000142045
0.000123166
0.000104417
8.54977e-05
6.66819e-05
4.77943e-05
2.86422e-05
9.55113e-06
0.00285651
0.0028478
0.0028315
0.00280752
0.00277604
0.00273764
0.00269323
0.00264407
0.0025916
0.00253726
0.00248232
0.0024278
0.00237441
0.0023226
0.00227257
0.00222436
0.00217793
0.00213318
0.00208998
0.00204819
0.00200768
0.00196833
0.00193001
0.00189264
0.00185613
0.00182042
0.00178545
0.00175117
0.00171752
0.00168446
0.00165194
0.00161991
0.00158835
0.00155722
0.00152649
0.00149614
0.00146613
0.00143644
0.00140707
0.00137798
0.00134917
0.00132061
0.00129231
0.00126423
0.00123639
0.00120875
0.00118133
0.00115411
0.00112709
0.00110025
0.00107362
0.00104716
0.00102089
0.000994795
0.000968894
0.000943174
0.000917639
0.000892298
0.000867142
0.000842196
0.000817426
0.000792896
0.000768537
0.000744448
0.00072052
0.000696888
0.000673435
0.000650279
0.000627333
0.000604654
0.000582266
0.000560081
0.000538262
0.000516573
0.000495308
0.00047417
0.000453398
0.00043282
0.000412444
0.000392423
0.00037243
0.000352831
0.000333195
0.00031382
0.000294591
0.000275346
0.000256373
0.000237234
0.000218286
0.000199399
0.000180412
0.000161635
0.000142645
0.00012371
0.000104881
8.58887e-05
6.69849e-05
4.79976e-05
2.87728e-05
9.6016e-06
0.0027866
0.00277934
0.00276575
0.00274573
0.00271938
0.00268708
0.00264945
0.00260739
0.00256195
0.00251426
0.00246534
0.00241607
0.00236713
0.00231899
0.00227193
0.0022261
0.00218155
0.00213825
0.00209615
0.00205519
0.00201527
0.00197633
0.00193829
0.00190109
0.00186466
0.00182894
0.00179391
0.00175952
0.00172571
0.00169247
0.00165975
0.00162751
0.00159572
0.00156436
0.0015334
0.00150281
0.00147257
0.00144266
0.00141307
0.00138377
0.00135476
0.00132601
0.00129752
0.00126927
0.00124125
0.00121346
0.0011859
0.00115854
0.00113139
0.00110443
0.00107768
0.00105112
0.00102475
0.000998576
0.000972593
0.0009468
0.000921196
0.000895795
0.000870579
0.000845581
0.000820763
0.000796186
0.000771785
0.000747649
0.000723685
0.000700006
0.000676516
0.000653309
0.000630322
0.000607589
0.000585147
0.000562901
0.000541009
0.000519257
0.000497901
0.000476685
0.000455805
0.00043513
0.000414648
0.000394506
0.000374403
0.000354665
0.000334922
0.000315422
0.000296073
0.000276718
0.00025762
0.000238391
0.000219346
0.00020036
0.000181289
0.000162408
0.000143343
0.000124334
0.000105412
8.63352e-05
6.73268e-05
4.82308e-05
2.89255e-05
9.65869e-06
0.00271473
0.00270882
0.00269774
0.0026814
0.00265981
0.0026332
0.00260197
0.0025667
0.00252813
0.00248707
0.0024443
0.00240055
0.00235641
0.00231236
0.00226872
0.00222571
0.00218345
0.00214199
0.00210136
0.00206153
0.00202249
0.00198421
0.00194665
0.00190977
0.00187355
0.00183795
0.00180294
0.0017685
0.0017346
0.00170122
0.00166832
0.00163588
0.00160388
0.00157229
0.00154109
0.00151026
0.00147979
0.00144964
0.00141981
0.00139029
0.00136105
0.00133209
0.0013034
0.00127495
0.00124676
0.00121879
0.00119106
0.00116355
0.00113625
0.00110916
0.00108229
0.00105561
0.00102913
0.00100286
0.000976778
0.000950901
0.000925218
0.000899745
0.000874461
0.0008494
0.000824525
0.000799891
0.00077544
0.00075125
0.000727242
0.000703507
0.000679973
0.000656704
0.000633667
0.000610873
0.000588366
0.000566053
0.000544075
0.000522253
0.000500791
0.000479489
0.000458491
0.000437706
0.00041711
0.000396828
0.000376611
0.000356717
0.00033686
0.000317222
0.000297737
0.000278265
0.000259023
0.000239702
0.00022054
0.000201443
0.00018228
0.000163275
0.000144132
0.000125034
0.000106002
8.68334e-05
6.77049e-05
4.84912e-05
2.90993e-05
9.72538e-06
0.00264986
0.00264505
0.002636
0.00262261
0.00260488
0.0025829
0.00255692
0.00252732
0.00249457
0.00245925
0.00242195
0.00238324
0.00234362
0.00230353
0.0022633
0.00222317
0.00218332
0.00214386
0.00210485
0.00206634
0.00202835
0.00199088
0.00195394
0.00191753
0.00188163
0.00184625
0.00181136
0.00177696
0.00174304
0.00170958
0.00167656
0.00164397
0.0016118
0.00158002
0.00154861
0.00151757
0.00148688
0.00145652
0.00142647
0.00139673
0.00136729
0.00133813
0.00130923
0.0012806
0.00125223
0.00122409
0.0011962
0.00116854
0.00114109
0.00111387
0.00108687
0.00106007
0.00103349
0.00100711
0.000980939
0.000954977
0.000929214
0.000903667
0.000878314
0.000853188
0.000828253
0.00080356
0.000779058
0.00075481
0.000730755
0.000706963
0.00068338
0.000660051
0.00063696
0.000614105
0.000591528
0.00056915
0.000547086
0.000525192
0.000503626
0.000482239
0.000461128
0.000440234
0.000419528
0.000399109
0.000378784
0.00035874
0.000338773
0.000319
0.000299381
0.000279799
0.000260415
0.000241002
0.000221724
0.000202512
0.00018326
0.000164132
0.000144909
0.000125721
0.000106576
8.73177e-05
6.80708e-05
4.87453e-05
2.92687e-05
9.78799e-06
0.00259325
0.00258928
0.00258181
0.00257073
0.002556
0.00253766
0.00251585
0.00249081
0.00246284
0.00243232
0.00239969
0.00236539
0.00232984
0.00229339
0.00225637
0.00221903
0.00218156
0.00214411
0.00210679
0.00206967
0.00203281
0.00199625
0.00196004
0.00192418
0.0018887
0.00185361
0.00181892
0.00178464
0.00175076
0.00171728
0.0016842
0.00165151
0.0016192
0.00158727
0.00155569
0.00152447
0.00149359
0.00146304
0.0014328
0.00140287
0.00137323
0.00134388
0.00131481
0.001286
0.00125746
0.00122917
0.00120112
0.00117331
0.00114573
0.00111839
0.00109126
0.00106435
0.00103766
0.00101119
0.000984925
0.000958879
0.000933037
0.000907418
0.000881997
0.000856807
0.000831814
0.00080706
0.000782507
0.000758203
0.000734101
0.000710252
0.000686621
0.000663234
0.000640087
0.000617173
0.000594529
0.000572088
0.000549941
0.000527979
0.000506316
0.000484843
0.000463631
0.000442633
0.000421826
0.000401278
0.000380851
0.000360673
0.000340597
0.000320702
0.000300954
0.000281269
0.000261754
0.000242249
0.000222861
0.000203538
0.000184199
0.000164956
0.000145652
0.000126375
0.000107119
8.77753e-05
6.84202e-05
4.89892e-05
2.9428e-05
9.82814e-06
0.00254644
0.0025431
0.00253679
0.00252743
0.00251494
0.00249934
0.00248069
0.00245914
0.00243489
0.00240819
0.00237935
0.00234869
0.00231655
0.00228323
0.00224903
0.00221417
0.00217886
0.00214327
0.00210752
0.00207173
0.00203597
0.00200033
0.00196484
0.00192956
0.00189453
0.00185978
0.00182533
0.00179121
0.00175742
0.00172397
0.00169087
0.00165812
0.00162573
0.00159368
0.00156198
0.00153061
0.00149957
0.00146886
0.00143846
0.00140836
0.00137856
0.00134905
0.00131982
0.00129086
0.00126216
0.00123373
0.00120554
0.00117761
0.00114991
0.00112244
0.00109521
0.0010682
0.00104141
0.00101485
0.000988504
0.000962381
0.000936468
0.000910781
0.000885298
0.000860049
0.000835002
0.000810194
0.000785591
0.000761237
0.000737089
0.00071319
0.000689511
0.000666074
0.000642873
0.000619907
0.000597202
0.000574704
0.000552485
0.000530459
0.000508716
0.000487161
0.000465864
0.000444773
0.00042388
0.000403217
0.000382698
0.000362411
0.000342235
0.000322237
0.000302372
0.000282599
0.000262973
0.00024338
0.0002239
0.000204473
0.000185059
0.000165716
0.000146333
0.000126979
0.000107622
8.81959e-05
6.87495e-05
4.92243e-05
2.95972e-05
9.93585e-06
0.00251156
0.00250865
0.00250314
0.00249495
0.00248401
0.0024703
0.00245385
0.00243475
0.00241313
0.00238919
0.00236312
0.00233518
0.00230561
0.0022747
0.00224267
0.00220976
0.00217617
0.00214208
0.00210762
0.00207292
0.00203809
0.00200321
0.00196836
0.0019336
0.00189898
0.00186454
0.00183033
0.00179637
0.00176268
0.00172928
0.0016962
0.00166343
0.00163098
0.00159885
0.00156706
0.00153558
0.00150443
0.00147359
0.00144305
0.00141283
0.00138289
0.00135325
0.00132389
0.0012948
0.00126598
0.00123743
0.00120913
0.00118109
0.00115328
0.00112572
0.0010984
0.0010713
0.00104443
0.00101779
0.000991376
0.000965186
0.00093921
0.000913466
0.000887929
0.000862626
0.000837531
0.000812676
0.000788027
0.000763628
0.000739439