/*--------------------------------*- C++ -*----------------------------------*\
| =========                 |                                                 |
| \\      /  F ield         | OpenFOAM: The Open Source CFD Toolbox           |
|  \\    /   O peration     | Version:  2.3.0                                 |
|   \\  /    A nd           | Web:      www.OpenFOAM.org                      |
|    \\/     M anipulation  |                                                 |
\*---------------------------------------------------------------------------*/
FoamFile
{
    version     2.0;
    format      ascii;
    class       volVectorField;
    location    "0.3";
    object      U;
}
// * * * * * * * * * * * * * * * * * * * * * * * * * * * * * * * * * * * * * //

dimensions      [0 1 -1 0 0 0 0];

internalField   nonuniform List<vector> 
2945
(
(0.15383 0.00667903 0)
(0.125073 0.00576499 0)
(0.100494 0.00443505 0)
(0.0805262 0.00314337 0)
(0.0652973 0.00206604 0)
(0.0541939 0.00126825 0)
(0.0462941 0.000739076 0)
(0.0407126 0.000420356 0)
(0.0367229 0.000243656 0)
(0.0337808 0.000152426 0)
(0.031513 0.000107646 0)
(0.0296826 8.56501e-05 0)
(0.0281473 7.37348e-05 0)
(0.0268237 6.59e-05 0)
(0.0256616 5.96831e-05 0)
(0.024629 5.42303e-05 0)
(0.0237034 4.9306e-05 0)
(0.0228684 4.48606e-05 0)
(0.0221107 4.08743e-05 0)
(0.0214199 3.73174e-05 0)
(0.0207873 3.41483e-05 0)
(0.0202057 3.13207e-05 0)
(0.0196692 2.87897e-05 0)
(0.019173 2.65149e-05 0)
(0.0187128 2.44611e-05 0)
(0.0182852 2.25985e-05 0)
(0.0178872 2.09019e-05 0)
(0.0175162 1.93502e-05 0)
(0.0171701 1.79252e-05 0)
(0.016847 1.66117e-05 0)
(0.0165453 1.53964e-05 0)
(0.0162635 1.42682e-05 0)
(0.0160005 1.32171e-05 0)
(0.0157552 1.22347e-05 0)
(0.0155266 1.13134e-05 0)
(0.0153141 1.04467e-05 0)
(0.0151168 9.62898e-06 0)
(0.0149343 8.85494e-06 0)
(0.014766 8.11981e-06 0)
(0.0146115 7.41878e-06 0)
(0.0144706 6.74644e-06 0)
(0.0143429 6.09619e-06 0)
(0.0142284 5.45947e-06 0)
(0.0141272 4.82509e-06 0)
(0.0140392 4.17848e-06 0)
(0.0139648 3.5007e-06 0)
(0.0139046 2.76531e-06 0)
(0.013859 1.93212e-06 0)
(0.013829 9.82416e-07 0)
(0.0138156 1.96146e-07 0)
(0.013819 -5.92555e-07 0)
(0.013834 -1.18821e-06 0)
(0.0138578 -1.6526e-06 0)
(0.0138876 -1.95045e-06 0)
(0.0139211 -2.09848e-06 0)
(0.0139564 -2.12993e-06 0)
(0.0139917 -2.0758e-06 0)
(0.0140261 -1.96398e-06 0)
(0.0140586 -1.81758e-06 0)
(0.0140888 -1.65407e-06 0)
(0.0141165 -1.4863e-06 0)
(0.0141416 -1.32274e-06 0)
(0.0141642 -1.16846e-06 0)
(0.0141844 -1.0261e-06 0)
(0.0142024 -8.96625e-07 0)
(0.0142182 -7.7995e-07 0)
(0.0142322 -6.75365e-07 0)
(0.0142444 -5.81794e-07 0)
(0.0142551 -4.97956e-07 0)
(0.0142643 -4.22368e-07 0)
(0.0142722 -3.53242e-07 0)
(0.0142788 -2.88149e-07 0)
(0.0142843 -2.2391e-07 0)
(0.0142878 -1.68719e-07 0)
(0.0142976 -7.3931e-07 0)
(0.184677 0.0109619 0)
(0.17631 0.0104454 0)
(0.16535 0.00906449 0)
(0.153426 0.00746755 0)
(0.141785 0.00589498 0)
(0.131029 0.00449625 0)
(0.121372 0.00335682 0)
(0.112854 0.00249288 0)
(0.105426 0.00187209 0)
(0.0989823 0.00144065 0)
(0.0933928 0.00114374 0)
(0.0885261 0.000936511 0)
(0.0842623 0.000787103 0)
(0.0804997 0.000674935 0)
(0.0771545 0.00058742 0)
(0.0741591 0.000516983 0)
(0.0714593 0.00045897 0)
(0.0690116 0.000410375 0)
(0.0667808 0.000369137 0)
(0.0647383 0.000333761 0)
(0.0628607 0.000303124 0)
(0.0611285 0.000276358 0)
(0.0595255 0.000252783 0)
(0.0580383 0.000231864 0)
(0.0566554 0.000213171 0)
(0.0553671 0.00019636 0)
(0.0541651 0.000181151 0)
(0.0530423 0.000167316 0)
(0.0519926 0.000154663 0)
(0.0510107 0.000143033 0)
(0.0500921 0.000132294 0)
(0.0492329 0.000122329 0)
(0.0484296 0.000113043 0)
(0.0476793 0.00010435 0)
(0.0469795 9.61778e-05 0)
(0.0463281 8.84618e-05 0)
(0.0457233 8.1146e-05 0)
(0.0451635 7.41801e-05 0)
(0.0446475 6.75185e-05 0)
(0.0441743 6.1118e-05 0)
(0.0437432 5.49362e-05 0)
(0.0433537 4.89293e-05 0)
(0.0430056 4.30509e-05 0)
(0.0426988 3.72513e-05 0)
(0.0424336 3.14789e-05 0)
(0.0422105 2.56823e-05 0)
(0.0420299 1.98119e-05 0)
(0.0418923 1.38138e-05 0)
(0.0417978 7.63772e-06 0)
(0.041746 1.58473e-06 0)
(0.0417376 -3.75855e-06 0)
(0.0417631 -7.40893e-06 0)
(0.041812 -9.7978e-06 0)
(0.0418768 -1.12836e-05 0)
(0.0419514 -1.20135e-05 0)
(0.042031 -1.21343e-05 0)
(0.0421116 -1.18057e-05 0)
(0.0421907 -1.11771e-05 0)
(0.0422662 -1.03697e-05 0)
(0.0423371 -9.47337e-06 0)
(0.0424027 -8.55316e-06 0)
(0.0424627 -7.65231e-06 0)
(0.0425171 -6.79711e-06 0)
(0.0425662 -6.00175e-06 0)
(0.0426102 -5.27207e-06 0)
(0.0426493 -4.60863e-06 0)
(0.0426841 -4.00878e-06 0)
(0.0427147 -3.46799e-06 0)
(0.0427415 -2.98063e-06 0)
(0.0427649 -2.54012e-06 0)
(0.042785 -2.13889e-06 0)
(0.0428021 -1.76924e-06 0)
(0.0428165 -1.429e-06 0)
(0.0428274 -1.27157e-06 0)
(0.0428468 -2.65636e-06 0)
(0.19135 0.0115724 0)
(0.190711 0.0118739 0)
(0.187787 0.0110901 0)
(0.183067 0.00984432 0)
(0.177306 0.00842036 0)
(0.171036 0.00702366 0)
(0.164607 0.00579185 0)
(0.158258 0.00477927 0)
(0.152143 0.00397911 0)
(0.146344 0.00335581 0)
(0.140894 0.00286823 0)
(0.135797 0.00248104 0)
(0.131042 0.0021678 0)
(0.126611 0.00190994 0)
(0.122485 0.00169463 0)
(0.118642 0.00151279 0)
(0.11506 0.0013578 0)
(0.11172 0.00122466 0)
(0.108602 0.00110944 0)
(0.105687 0.00100904 0)
(0.102961 0.00092097 0)
(0.100407 0.000843213 0)
(0.098013 0.000774126 0)
(0.0957654 0.000712372 0)
(0.0936539 0.000656851 0)
(0.0916686 0.000606656 0)
(0.0898009 0.000561037 0)
(0.0880431 0.000519363 0)
(0.0863882 0.000481106 0)
(0.0848305 0.000445819 0)
(0.0833644 0.000413118 0)
(0.0819855 0.000382675 0)
(0.0806896 0.000354207 0)
(0.0794733 0.000327468 0)
(0.0783334 0.00030224 0)
(0.0772676 0.000278335 0)
(0.0762736 0.000255585 0)
(0.0753498 0.000233838 0)
(0.0744946 0.00021296 0)
(0.0737071 0.000192823 0)
(0.0729865 0.000173307 0)
(0.0723325 0.000154299 0)
(0.0717449 0.000135687 0)
(0.0712238 0.000117368 0)
(0.0707695 9.92555e-05 0)
(0.0703822 8.12901e-05 0)
(0.070062 6.34636e-05 0)
(0.0698082 4.58432e-05 0)
(0.0696194 2.85767e-05 0)
(0.0694914 1.18373e-05 0)
(0.0694186 -3.33159e-06 0)
(0.0694044 -1.49547e-05 0)
(0.0694327 -2.24177e-05 0)
(0.0694907 -2.69435e-05 0)
(0.0695685 -2.93633e-05 0)
(0.0696586 -3.016e-05 0)
(0.0697549 -2.97368e-05 0)
(0.0698529 -2.84709e-05 0)
(0.0699495 -2.66781e-05 0)
(0.0700424 -2.45968e-05 0)
(0.0701302 -2.24004e-05 0)
(0.0702121 -2.02063e-05 0)
(0.0702878 -1.80889e-05 0)
(0.070357 -1.60913e-05 0)
(0.0704201 -1.42352e-05 0)
(0.070477 -1.25277e-05 0)
(0.0705282 -1.09674e-05 0)
(0.0705739 -9.54713e-06 0)
(0.0706145 -8.2566e-06 0)
(0.0706502 -7.08291e-06 0)
(0.0706815 -6.01103e-06 0)
(0.0707085 -5.02831e-06 0)
(0.0707316 -4.14504e-06 0)
(0.0707502 -3.73985e-06 0)
(0.0707752 -5.32636e-06 0)
(0.193259 0.011029 0)
(0.194908 0.0118041 0)
(0.195351 0.0115182 0)
(0.194447 0.0106826 0)
(0.192471 0.00956262 0)
(0.189698 0.00836296 0)
(0.186368 0.00723741 0)
(0.182691 0.00626362 0)
(0.178834 0.00545666 0)
(0.174913 0.00479824 0)
(0.170999 0.00425933 0)
(0.167136 0.00381217 0)
(0.163349 0.00343471 0)
(0.159656 0.0031109 0)
(0.156069 0.00282948 0)
(0.152594 0.00258247 0)
(0.149237 0.00236407 0)
(0.146001 0.00216986 0)
(0.142888 0.00199633 0)
(0.139898 0.00184062 0)
(0.137029 0.00170035 0)
(0.134279 0.0015735 0)
(0.131647 0.00145835 0)
(0.129129 0.00135342 0)
(0.126722 0.00125746 0)
(0.124423 0.00116937 0)
(0.122228 0.00108821 0)
(0.120135 0.00101315 0)
(0.118141 0.000943478 0)
(0.116242 0.000878559 0)
(0.114436 0.00081784 0)
(0.112721 0.000760832 0)
(0.111094 0.000707101 0)
(0.109553 0.00065626 0)
(0.108097 0.000607964 0)
(0.106725 0.000561901 0)
(0.105436 0.000517793 0)
(0.104228 0.000475385 0)
(0.103101 0.000434446 0)
(0.102056 0.000394761 0)
(0.101092 0.000356132 0)
(0.100209 0.000318376 0)
(0.0994088 0.000281327 0)
(0.098691 0.000244852 0)
(0.0980564 0.000208866 0)
(0.0975053 0.00017336 0)
(0.0970374 0.000138448 0)
(0.0966514 0.000104424 0)
(0.0963446 7.18332e-05 0)
(0.0961116 4.13759e-05 0)
(0.0959428 1.37747e-05 0)
(0.095831 -9.70978e-06 0)
(0.0957837 -2.70272e-05 0)
(0.0957841 -3.81805e-05 0)
(0.0958193 -4.47229e-05 0)
(0.0958787 -4.79453e-05 0)
(0.0959544 -4.87284e-05 0)
(0.0960398 -4.77648e-05 0)
(0.0961303 -4.56261e-05 0)
(0.0962221 -4.27616e-05 0)
(0.0963128 -3.95094e-05 0)
(0.0964005 -3.61072e-05 0)
(0.0964841 -3.27136e-05 0)
(0.0965628 -2.94286e-05 0)
(0.0966363 -2.63103e-05 0)
(0.0967043 -2.33887e-05 0)
(0.0967668 -2.06751e-05 0)
(0.0968237 -1.81688e-05 0)
(0.0968753 -1.58614e-05 0)
(0.0969217 -1.37388e-05 0)
(0.0969631 -1.17826e-05 0)
(0.0969995 -9.97851e-06 0)
(0.0970314 -8.35233e-06 0)
(0.0970581 -7.39399e-06 0)
(0.0970881 -8.42295e-06 0)
(0.194101 0.0103717 0)
(0.196162 0.0113047 0)
(0.197706 0.011288 0)
(0.198418 0.010737 0)
(0.198345 0.00988238 0)
(0.197592 0.00890017 0)
(0.196278 0.00793317 0)
(0.19454 0.00706494 0)
(0.192507 0.00632304 0)
(0.190276 0.00570138 0)
(0.187915 0.00518028 0)
(0.185466 0.00473825 0)
(0.182959 0.0043571 0)
(0.180416 0.00402311 0)
(0.177853 0.00372651 0)
(0.175283 0.00346041 0)
(0.172719 0.00321982 0)
(0.17017 0.00300101 0)
(0.167647 0.00280107 0)
(0.165157 0.00261765 0)
(0.162706 0.00244878 0)
(0.160301 0.00229282 0)
(0.157945 0.00214834 0)
(0.155644 0.0020141 0)
(0.1534 0.00188904 0)
(0.151216 0.00177221 0)
(0.149095 0.00166276 0)
(0.147038 0.00155995 0)
(0.145048 0.00146311 0)
(0.143125 0.00137162 0)
(0.141271 0.00128493 0)
(0.139487 0.00120255 0)
(0.137774 0.00112402 0)
(0.136133 0.00104891 0)
(0.134565 0.000976832 0)
(0.133071 0.000907439 0)
(0.131652 0.000840399 0)
(0.130309 0.000775407 0)
(0.129045 0.000712179 0)
(0.127859 0.000650454 0)
(0.126754 0.000589992 0)
(0.125732 0.000530577 0)
(0.124794 0.000472036 0)
(0.123941 0.000414251 0)
(0.123176 0.000357195 0)
(0.122498 0.000300981 0)
(0.121908 0.000245919 0)
(0.121405 0.000192594 0)
(0.120985 0.000141957 0)
(0.120643 9.52938e-05 0)
(0.120373 5.3748e-05 0)
(0.120163 1.78032e-05 0)
(0.120004 -1.18162e-05 0)
(0.119907 -3.37567e-05 0)
(0.119859 -4.8225e-05 0)
(0.11985 -5.68425e-05 0)
(0.119868 -6.11889e-05 0)
(0.119908 -6.24637e-05 0)
(0.119962 -6.15688e-05 0)
(0.120025 -5.92015e-05 0)
(0.120095 -5.59041e-05 0)
(0.120168 -5.20769e-05 0)
(0.120242 -4.80018e-05 0)
(0.120315 -4.38699e-05 0)
(0.120386 -3.98049e-05 0)
(0.120454 -3.5883e-05 0)
(0.12052 -3.2148e-05 0)
(0.120581 -2.86214e-05 0)
(0.120638 -2.53098e-05 0)
(0.120691 -2.22085e-05 0)
(0.120739 -1.93046e-05 0)
(0.120783 -1.65874e-05 0)
(0.120822 -1.40913e-05 0)
(0.120856 -1.22863e-05 0)
(0.120891 -1.20218e-05 0)
(0.194683 0.00975026 0)
(0.196616 0.0107045 0)
(0.198365 0.0108311 0)
(0.199613 0.0104638 0)
(0.200329 0.009805 0)
(0.200543 0.00900306 0)
(0.200309 0.0081828 0)
(0.199708 0.00742489 0)
(0.19883 0.00676247 0)
(0.197748 0.00619723 0)
(0.196513 0.00571638 0)
(0.195161 0.00530346 0)
(0.193712 0.00494352 0)
(0.192183 0.00462485 0)
(0.190587 0.0043388 0)
(0.188934 0.00407922 0)
(0.187234 0.00384161 0)
(0.185496 0.00362265 0)
(0.183728 0.00341976 0)
(0.181938 0.00323092 0)
(0.180133 0.00305445 0)
(0.178319 0.00288897 0)
(0.176505 0.00273331 0)
(0.174694 0.00258645 0)
(0.172894 0.00244752 0)
(0.171108 0.00231576 0)
(0.169342 0.00219049 0)
(0.1676 0.00207108 0)
(0.165886 0.001957 0)
(0.164204 0.00184772 0)
(0.162558 0.0017428 0)
(0.160951 0.00164178 0)
(0.159387 0.00154427 0)
(0.157868 0.00144989 0)
(0.156399 0.00135829 0)
(0.154981 0.00126912 0)
(0.153619 0.00118207 0)
(0.152316 0.00109684 0)
(0.151073 0.00101316 0)
(0.149895 0.000930761 0)
(0.148784 0.000849417 0)
(0.147744 0.000768932 0)
(0.146778 0.00068917 0)
(0.145887 0.000610086 0)
(0.145075 0.000531769 0)
(0.144342 0.000454502 0)
(0.14369 0.00037884 0)
(0.143118 0.000305683 0)
(0.142624 0.000236339 0)
(0.142204 0.000172473 0)
(0.141853 0.000115737 0)
(0.141564 6.70235e-05 0)
(0.141326 2.60723e-05 0)
(0.14113 -7.17734e-06 0)
(0.140987 -3.22193e-05 0)
(0.14089 -4.94138e-05 0)
(0.14083 -6.01765e-05 0)
(0.140801 -6.61379e-05 0)
(0.140795 -6.86241e-05 0)
(0.140808 -6.86243e-05 0)
(0.140835 -6.68983e-05 0)
(0.140872 -6.40216e-05 0)
(0.140917 -6.04209e-05 0)
(0.140967 -5.64034e-05 0)
(0.14102 -5.21826e-05 0)
(0.141075 -4.7904e-05 0)
(0.14113 -4.36639e-05 0)
(0.141185 -3.95238e-05 0)
(0.141239 -3.55202e-05 0)
(0.141291 -3.16712e-05 0)
(0.14134 -2.79801e-05 0)
(0.141386 -2.44462e-05 0)
(0.141429 -2.11012e-05 0)
(0.141467 -1.82972e-05 0)
(0.141504 -1.61377e-05 0)
(0.195178 0.0091866 0)
(0.196873 0.0101102 0)
(0.198534 0.0103216 0)
(0.199878 0.0100793 0)
(0.200847 0.00956228 0)
(0.201449 0.00889862 0)
(0.20171 0.00819686 0)
(0.201682 0.0075321 0)
(0.20143 0.00693991 0)
(0.201009 0.00642726 0)
(0.200458 0.00598661 0)
(0.199804 0.00560556 0)
(0.199063 0.00527185 0)
(0.198246 0.0049753 0)
(0.197361 0.00470815 0)
(0.196412 0.00446467 0)
(0.195407 0.00424062 0)
(0.194349 0.00403283 0)
(0.193244 0.00383887 0)
(0.192098 0.00365683 0)
(0.190915 0.00348515 0)
(0.1897 0.00332258 0)
(0.188457 0.00316805 0)
(0.187193 0.00302067 0)
(0.18591 0.00287967 0)
(0.184614 0.00274439 0)
(0.183309 0.00261424 0)
(0.182 0.00248871 0)
(0.180691 0.00236733 0)
(0.179386 0.00224968 0)
(0.178089 0.00213534 0)
(0.176805 0.00202397 0)
(0.175536 0.0019152 0)
(0.174289 0.00180872 0)
(0.173065 0.00170421 0)
(0.17187 0.00160137 0)
(0.170707 0.00149992 0)
(0.16958 0.00139959 0)
(0.168493 0.00130013 0)
(0.16745 0.00120132 0)
(0.166455 0.00110296 0)
(0.165512 0.00100491 0)
(0.164624 0.000907109 0)
(0.163794 0.000809614 0)
(0.163026 0.00071266 0)
(0.162321 0.000616728 0)
(0.161681 0.000522621 0)
(0.161107 0.000431535 0)
(0.160596 0.000345082 0)
(0.160148 0.000265182 0)
(0.159758 0.000193723 0)
(0.159423 0.000131957 0)
(0.159138 8.01154e-05 0)
(0.158897 3.73852e-05 0)
(0.158687 2.972e-06 0)
(0.158516 -2.34349e-05 0)
(0.158384 -4.23956e-05 0)
(0.158285 -5.50298e-05 0)
(0.158215 -6.27909e-05 0)
(0.158169 -6.69342e-05 0)
(0.158143 -6.84382e-05 0)
(0.158133 -6.80404e-05 0)
(0.158136 -6.62988e-05 0)
(0.15815 -6.36322e-05 0)
(0.158172 -6.03483e-05 0)
(0.1582 -5.66698e-05 0)
(0.158234 -5.27552e-05 0)
(0.158271 -4.87159e-05 0)
(0.15831 -4.46286e-05 0)
(0.158351 -4.05428e-05 0)
(0.158392 -3.64864e-05 0)
(0.158433 -3.24727e-05 0)
(0.158472 -2.85203e-05 0)
(0.158508 -2.48029e-05 0)
(0.158544 -2.04713e-05 0)
(0.195623 0.00868807 0)
(0.197087 0.00955916 0)
(0.198586 0.00982353 0)
(0.199873 0.00967303 0)
(0.20088 0.00926356 0)
(0.201603 0.00870807 0)
(0.202059 0.00810136 0)
(0.202287 0.00751244 0)
(0.202335 0.00697777 0)
(0.202248 0.00650827 0)
(0.202061 0.00610069 0)
(0.201795 0.00574611 0)
(0.201464 0.00543466 0)
(0.201075 0.00515762 0)
(0.200633 0.004908 0)
(0.200141 0.00468045 0)
(0.199603 0.00447091 0)
(0.19902 0.0042763 0)
(0.198395 0.00409421 0)
(0.19773 0.00392275 0)
(0.197028 0.00376036 0)
(0.196291 0.00360581 0)
(0.195521 0.00345803 0)
(0.194722 0.00331616 0)
(0.193896 0.00317944 0)
(0.193046 0.00304723 0)
(0.192176 0.00291899 0)
(0.191288 0.0027942 0)
(0.190385 0.00267243 0)
(0.189471 0.00255329 0)
(0.188549 0.00243639 0)
(0.187623 0.0023214 0)
(0.186695 0.002208 0)
(0.18577 0.00209589 0)
(0.184851 0.00198476 0)
(0.183941 0.00187436 0)
(0.183045 0.00176441 0)
(0.182166 0.00165468 0)
(0.181308 0.00154494 0)
(0.180474 0.001435 0)
(0.179669 0.0013247 0)
(0.178896 0.00121396 0)
(0.178159 0.0011028 0)
(0.177461 0.000991395 0)
(0.176805 0.00088011 0)
(0.176194 0.000769616 0)
(0.175628 0.000660938 0)
(0.175109 0.000555514 0)
(0.174637 0.000455187 0)
(0.174212 0.000362053 0)
(0.17383 0.00027811 0)
(0.173492 0.000204765 0)
(0.173195 0.000142497 0)
(0.172935 9.09407e-05 0)
(0.172708 4.90032e-05 0)
(0.172508 1.53931e-05 0)
(0.172332 -1.08313e-05 0)
(0.172187 -3.04042e-05 0)
(0.172069 -4.42401e-05 0)
(0.171974 -5.34989e-05 0)
(0.171901 -5.92675e-05 0)
(0.171847 -6.24144e-05 0)
(0.171808 -6.36013e-05 0)
(0.171782 -6.3331e-05 0)
(0.171769 -6.19842e-05 0)
(0.171765 -5.98474e-05 0)
(0.171769 -5.71342e-05 0)
(0.171781 -5.40022e-05 0)
(0.171797 -5.05663e-05 0)
(0.171819 -4.69075e-05 0)
(0.171843 -4.30781e-05 0)
(0.17187 -3.91043e-05 0)
(0.171899 -3.49827e-05 0)
(0.171927 -3.06869e-05 0)
(0.171955 -2.43859e-05 0)
(0.196028 0.00824876 0)
(0.197291 0.00905748 0)
(0.198623 0.00935434 0)
(0.199811 0.00927535 0)
(0.20078 0.00895286 0)
(0.201518 0.00848662 0)
(0.202038 0.00795968 0)
(0.202368 0.00743487 0)
(0.202547 0.00694856 0)
(0.202616 0.00651468 0)
(0.202604 0.00613359 0)
(0.202532 0.00579949 0)
(0.202411 0.00550479 0)
(0.202249 0.00524222 0)
(0.202052 0.00500564 0)
(0.20182 0.00479017 0)
(0.201557 0.00459198 0)
(0.201262 0.00440808 0)
(0.200938 0.00423609 0)
(0.200583 0.00407413 0)
(0.200201 0.00392062 0)
(0.19979 0.0037743 0)
(0.199354 0.00363409 0)
(0.198891 0.00349908 0)
(0.198405 0.0033685 0)
(0.197895 0.00324168 0)
(0.197364 0.00311805 0)
(0.196814 0.00299708 0)
(0.196246 0.00287832 0)
(0.195662 0.00276136 0)
(0.195064 0.00264581 0)
(0.194455 0.00253133 0)
(0.193836 0.00241758 0)
(0.193211 0.00230424 0)
(0.192581 0.00219104 0)
(0.19195 0.00207769 0)
(0.19132 0.00196394 0)
(0.190695 0.00184953 0)
(0.190077 0.00173427 0)
(0.18947 0.00161797 0)
(0.188875 0.00150052 0)
(0.188298 0.00138188 0)
(0.187739 0.00126214 0)
(0.187203 0.00114155 0)
(0.186692 0.00102061 0)
(0.186207 0.00090014 0)
(0.18575 0.000781323 0)
(0.185322 0.000665772 0)
(0.184925 0.000555478 0)
(0.184557 0.000452635 0)
(0.184219 0.000359297 0)
(0.183912 0.00027693 0)
(0.183633 0.000206143 0)
(0.183383 0.000146756 0)
(0.18316 9.79494e-05 0)
(0.182961 5.85032e-05 0)
(0.182784 2.69475e-05 0)
(0.182623 2.04488e-06 0)
(0.182483 -1.70841e-05 0)
(0.182362 -3.12916e-05 0)
(0.18226 -4.14463e-05 0)
(0.182175 -4.84157e-05 0)
(0.182106 -5.29224e-05 0)
(0.182049 -5.55284e-05 0)
(0.182005 -5.66613e-05 0)
(0.181972 -5.66485e-05 0)
(0.181948 -5.57397e-05 0)
(0.181933 -5.41244e-05 0)
(0.181925 -5.19443e-05 0)
(0.181923 -4.93029e-05 0)
(0.181927 -4.62691e-05 0)
(0.181936 -4.28749e-05 0)
(0.181948 -3.90888e-05 0)
(0.181961 -3.46987e-05 0)
(0.181977 -2.70967e-05 0)
(0.196396 0.00785955 0)
(0.197489 0.00860262 0)
(0.198667 0.00891741 0)
(0.199749 0.0088956 0)
(0.200658 0.00864619 0)
(0.201375 0.00825653 0)
(0.201906 0.00779935 0)
(0.202273 0.00733141 0)
(0.202508 0.00688813 0)
(0.202647 0.00648557 0)
(0.202715 0.0061271 0)
(0.202732 0.0058097 0)
(0.202712 0.00552788 0)
(0.202661 0.00527586 0)
(0.202585 0.00504841 0)
(0.202486 0.0048412 0)
(0.202367 0.00465071 0)
(0.202228 0.00447413 0)
(0.20207 0.00430916 0)
(0.201894 0.00415396 0)
(0.201699 0.00400697 0)
(0.201485 0.00386691 0)
(0.201254 0.00373269 0)
(0.201006 0.00360338 0)
(0.20074 0.00347817 0)
(0.200457 0.00335637 0)
(0.200158 0.00323736 0)
(0.199844 0.0031206 0)
(0.199514 0.0030056 0)
(0.19917 0.0028919 0)
(0.198814 0.00277911 0)
(0.198446 0.00266683 0)
(0.198067 0.00255472 0)
(0.197679 0.00244244 0)
(0.197283 0.00232967 0)
(0.196881 0.00221611 0)
(0.196475 0.00210151 0)
(0.196067 0.00198559 0)
(0.195659 0.00186816 0)
(0.195252 0.00174904 0)
(0.194849 0.00162813 0)
(0.194451 0.00150542 0)
(0.194062 0.00138104 0)
(0.193682 0.00125532 0)
(0.193313 0.00112884 0)
(0.192958 0.00100251 0)
(0.192616 0.000877634 0)
(0.192289 0.000755905 0)
(0.191978 0.000639385 0)
(0.191684 0.000530296 0)
(0.191407 0.000430694 0)
(0.191147 0.000342071 0)
(0.190907 0.000265112 0)
(0.190686 0.000199748 0)
(0.190484 0.000145312 0)
(0.190301 0.00010073 0)
(0.190135 6.4723e-05 0)
(0.189984 3.59067e-05 0)
(0.189847 1.29924e-05 0)
(0.189722 -4.99902e-06 0)
(0.189611 -1.88364e-05 0)
(0.189513 -2.92165e-05 0)
(0.189428 -3.68024e-05 0)
(0.189354 -4.21717e-05 0)
(0.18929 -4.57822e-05 0)
(0.189237 -4.79872e-05 0)
(0.189192 -4.90571e-05 0)
(0.189155 -4.91985e-05 0)
(0.189126 -4.85676e-05 0)
(0.189104 -4.72788e-05 0)
(0.189087 -4.54076e-05 0)
(0.189077 -4.29835e-05 0)
(0.189071 -3.99445e-05 0)
(0.189068 -3.59378e-05 0)
(0.189068 -2.797e-05 0)
(0.19673 0.00751239 0)
(0.197682 0.00819069 0)
(0.198722 0.00851255 0)
(0.199702 0.00853631 0)
(0.200546 0.00834905 0)
(0.201229 0.00802623 0)
(0.201751 0.00763143 0)
(0.202129 0.00721546 0)
(0.20239 0.00681217 0)
(0.202561 0.00643891 0)
(0.202667 0.00610144 0)
(0.202727 0.0057991 0)
(0.202752 0.00552836 0)
(0.202753 0.00528481 0)
(0.202733 0.0050642 0)
(0.202698 0.00486278 0)
(0.202648 0.00467743 0)
(0.202586 0.00450555 0)
(0.202512 0.00434501 0)
(0.202426 0.00419404 0)
(0.20233 0.00405115 0)
(0.202224 0.00391507 0)
(0.202107 0.00378474 0)
(0.201979 0.00365922 0)
(0.201841 0.00353769 0)
(0.201693 0.00341945 0)
(0.201535 0.00330386 0)
(0.201366 0.00319035 0)
(0.201188 0.00307841 0)
(0.201 0.00296756 0)
(0.200802 0.00285736 0)
(0.200596 0.00274741 0)
(0.200381 0.00263732 0)
(0.200159 0.00252674 0)
(0.199929 0.00241532 0)
(0.199693 0.00230274 0)
(0.199451 0.00218871 0)
(0.199205 0.00207297 0)
(0.198956 0.0019553 0)
(0.198704 0.00183551 0)
(0.198451 0.00171352 0)
(0.198198 0.00158934 0)
(0.197945 0.00146312 0)
(0.197694 0.00133524 0)
(0.197446 0.00120632 0)
(0.197202 0.00107732 0)
(0.196961 0.000949588 0)
(0.196726 0.000824857 0)
(0.196496 0.000705178 0)
(0.196272 0.00059274 0)
(0.196056 0.000489557 0)
(0.195849 0.000397115 0)
(0.195653 0.000316152 0)
(0.195468 0.000246688 0)
(0.195295 0.000188166 0)
(0.195135 0.000139635 0)
(0.194988 9.99278e-05 0)
(0.194853 6.77803e-05 0)
(0.194728 4.19536e-05 0)
(0.194614 2.12926e-05 0)
(0.194508 4.84287e-06 0)
(0.194411 -8.1117e-06 0)
(0.194323 -1.81639e-05 0)
(0.194243 -2.58252e-05 0)
(0.194171 -3.1547e-05 0)
(0.194107 -3.56967e-05 0)
(0.19405 -3.85605e-05 0)
(0.194 -4.0357e-05 0)
(0.193956 -4.12497e-05 0)
(0.193918 -4.13572e-05 0)
(0.193886 -4.07551e-05 0)
(0.193859 -3.94651e-05 0)
(0.193837 -3.74e-05 0)
(0.19382 -3.41274e-05 0)
(0.193804 -2.67191e-05 0)
(0.197034 0.0072007 0)
(0.197866 0.00781747 0)
(0.198786 0.00813838 0)
(0.19967 0.00819779 0)
(0.20045 0.0080633 0)
(0.201094 0.00779909 0)
(0.201601 0.00746043 0)
(0.20198 0.00709254 0)
(0.202251 0.00672714 0)
(0.20244 0.00638221 0)
(0.202566 0.00606529 0)
(0.202648 0.00577768 0)
(0.202697 0.00551756 0)
(0.202723 0.00528182 0)
(0.20273 0.00506713 0)
(0.202724 0.00487037 0)
(0.202706 0.00468883 0)
(0.202679 0.00452019 0)
(0.202644 0.0043625 0)
(0.202602 0.00421411 0)
(0.202554 0.00407363 0)
(0.2025 0.00393984 0)
(0.20244 0.00381171 0)
(0.202375 0.00368833 0)
(0.202304 0.00356891 0)
(0.202228 0.00345274 0)
(0.202146 0.00333919 0)
(0.202059 0.00322767 0)
(0.201967 0.00311766 0)
(0.201869 0.00300869 0)
(0.201765 0.00290029 0)
(0.201656 0.00279204 0)
(0.201542 0.00268355 0)
(0.201423 0.00257442 0)
(0.201299 0.00246432 0)
(0.20117 0.00235289 0)
(0.201036 0.00223985 0)
(0.200898 0.0021249 0)
(0.200757 0.00200782 0)
(0.200611 0.00188844 0)
(0.200463 0.00176665 0)
(0.200311 0.0016425 0)
(0.200157 0.00151614 0)
(0.200001 0.00138797 0)
(0.199842 0.00125864 0)
(0.199682 0.00112912 0)
(0.19952 0.00100077 0)
(0.199356 0.000875278 0)
(0.199191 0.000754653 0)
(0.199026 0.000641 0)
(0.198862 0.000536255 0)
(0.198701 0.000441873 0)
(0.198545 0.000358622 0)
(0.198394 0.000286599 0)
(0.19825 0.000225348 0)
(0.198115 0.000174025 0)
(0.197988 0.000131561 0)
(0.19787 9.6787e-05 0)
(0.19776 6.85353e-05 0)
(0.197658 4.57182e-05 0)
(0.197562 2.73582e-05 0)
(0.197473 1.26095e-05 0)
(0.197389 8.13846e-07 0)
(0.197311 -8.54043e-06 0)
(0.197239 -1.58785e-05 0)
(0.197172 -2.15521e-05 0)
(0.19711 -2.58544e-05 0)
(0.197052 -2.90151e-05 0)
(0.197 -3.12067e-05 0)
(0.196953 -3.25518e-05 0)
(0.19691 -3.31251e-05 0)
(0.196872 -3.29416e-05 0)
(0.196838 -3.18994e-05 0)
(0.196809 -2.95507e-05 0)
(0.19678 -2.34022e-05 0)
(0.197311 0.00691906 0)
(0.198042 0.00747883 0)
(0.198855 0.00779307 0)
(0.199652 0.00787967 0)
(0.200369 0.00778969 0)
(0.200975 0.00757673 0)
(0.201462 0.00728859 0)
(0.201836 0.00696518 0)
(0.202113 0.00663585 0)
(0.202312 0.00631858 0)
(0.202451 0.00602216 0)
(0.202547 0.00574949 0)
(0.20261 0.00550019 0)
(0.20265 0.00527235 0)
(0.202671 0.00506349 0)
(0.202679 0.00487112 0)
(0.202677 0.00469295 0)
(0.202667 0.00452696 0)
(0.20265 0.0043714 0)
(0.202628 0.00422478 0)
(0.202602 0.00408579 0)
(0.202572 0.00395332 0)
(0.202539 0.00382637 0)
(0.202503 0.00370408 0)
(0.202464 0.00358569 0)
(0.202423 0.00347052 0)
(0.20238 0.00335794 0)
(0.202334 0.00324738 0)
(0.202286 0.00313834 0)
(0.202235 0.00303032 0)
(0.202182 0.00292287 0)
(0.202126 0.00281558 0)
(0.202068 0.00270802 0)
(0.202007 0.00259982 0)
(0.201943 0.00249063 0)
(0.201876 0.00238009 0)
(0.201806 0.00226789 0)
(0.201733 0.00215377 0)
(0.201657 0.00203748 0)
(0.201578 0.00191886 0)
(0.201495 0.00179783 0)
(0.201409 0.0016744 0)
(0.201319 0.00154878 0)
(0.201224 0.00142135 0)
(0.201125 0.00129277 0)
(0.201021 0.00116401 0)
(0.200913 0.00103639 0)
(0.200799 0.000911539 0)
(0.200681 0.00079138 0)
(0.200559 0.000677907 0)
(0.200435 0.000572957 0)
(0.200309 0.000477927 0)
(0.200184 0.000393602 0)
(0.200061 0.000320138 0)
(0.199942 0.000257174 0)
(0.199828 0.000203966 0)
(0.19972 0.000159543 0)
(0.199617 0.00012282 0)
(0.19952 9.26987e-05 0)
(0.199429 6.81452e-05 0)
(0.199343 4.82139e-05 0)
(0.199262 3.20804e-05 0)
(0.199185 1.90407e-05 0)
(0.199112 8.51067e-06 0)
(0.199042 3.72561e-08 0)
(0.198976 -6.7402e-06 0)
(0.198913 -1.21137e-05 0)
(0.198854 -1.63148e-05 0)
(0.198798 -1.95242e-05 0)
(0.198746 -2.18718e-05 0)
(0.198697 -2.34353e-05 0)
(0.198652 -2.42285e-05 0)
(0.19861 -2.41486e-05 0)
(0.198573 -2.27871e-05 0)
(0.198534 -1.82946e-05 0)
(0.197563 0.00666314 0)
(0.198208 0.00717095 0)
(0.198928 0.00747467 0)
(0.199646 0.00758135 0)
(0.200304 0.00752853 0)
(0.20087 0.00736021 0)
(0.201335 0.00711733 0)
(0.201701 0.00683492 0)
(0.201979 0.00653979 0)
(0.202185 0.00624946 0)
(0.202334 0.00597353 0)
(0.20244 0.00571612 0)
(0.202513 0.00547806 0)
(0.202562 0.0052585 0)
(0.202593 0.00505576 0)
(0.20261 0.00486795 0)
(0.202616 0.00469319 0)
(0.202615 0.00452978 0)
(0.202607 0.00437618 0)
(0.202595 0.00423105 0)
(0.202579 0.00409321 0)
(0.20256 0.00396162 0)
(0.202539 0.00383536 0)
(0.202517 0.00371362 0)
(0.202493 0.00359569 0)
(0.202468 0.00348089 0)
(0.202442 0.00336865 0)
(0.202415 0.00325842 0)
(0.202388 0.00314968 0)
(0.20236 0.00304198 0)
(0.202332 0.00293487 0)
(0.202302 0.00282794 0)
(0.202272 0.00272077 0)
(0.202241 0.00261301 0)
(0.202208 0.00250428 0)
(0.202174 0.00239426 0)
(0.202138 0.00228264 0)
(0.202101 0.00216916 0)
(0.202061 0.00205357 0)
(0.202019 0.00193574 0)
(0.201973 0.00181558 0)
(0.201924 0.00169313 0)
(0.201871 0.00156859 0)
(0.201813 0.00144237 0)
(0.20175 0.00131511 0)
(0.201682 0.00118776 0)
(0.201607 0.00106158 0)
(0.201525 0.000938142 0)
(0.201438 0.000819242 0)
(0.201344 0.000706756 0)
(0.201247 0.000602409 0)
(0.201145 0.000507533 0)
(0.201043 0.000422906 0)
(0.200941 0.000348738 0)
(0.20084 0.000284746 0)
(0.200742 0.000230285 0)
(0.200647 0.000184474 0)
(0.200557 0.000146314 0)
(0.200471 0.000114776 0)
(0.200388 8.88734e-05 0)
(0.20031 6.76957e-05 0)
(0.200236 5.04355e-05 0)
(0.200164 3.63931e-05 0)
(0.200096 2.49773e-05 0)
(0.20003 1.56955e-05 0)
(0.199966 8.14424e-06 0)
(0.199905 2.01037e-06 0)
(0.199846 -2.95143e-06 0)
(0.199789 -6.9309e-06 0)
(0.199734 -1.0063e-05 0)
(0.199682 -1.24303e-05 0)
(0.199634 -1.40514e-05 0)
(0.199588 -1.48372e-05 0)
(0.199546 -1.44558e-05 0)
(0.1995 -1.17461e-05 0)
(0.197793 0.0064294 0)
(0.198364 0.00689037 0)
(0.199003 0.00718118 0)
(0.199649 0.0073021 0)
(0.200251 0.00727998 0)
(0.200779 0.00715028 0)
(0.201221 0.00694775 0)
(0.201576 0.00670294 0)
(0.201852 0.00644003 0)
(0.202062 0.00617578 0)
(0.202217 0.00592019 0)
(0.202331 0.00567828 0)
(0.202413 0.0054519 0)
(0.202469 0.00524107 0)
(0.202507 0.00504487 0)
(0.202531 0.00486195 0)
(0.202544 0.00469086 0)
(0.202548 0.00453019 0)
(0.202546 0.00437864 0)
(0.202539 0.00423502 0)
(0.202529 0.00409828 0)
(0.202516 0.00396747 0)
(0.202501 0.00384174 0)
(0.202484 0.00372036 0)
(0.202467 0.00360263 0)
(0.20245 0.00348795 0)
(0.202432 0.00337574 0)
(0.202414 0.0032655 0)
(0.202396 0.00315673 0)
(0.202378 0.00304899 0)
(0.202361 0.00294186 0)
(0.202343 0.00283492 0)
(0.202326 0.0027278 0)
(0.202308 0.00262012 0)
(0.202291 0.00251156 0)
(0.202273 0.00240177 0)
(0.202254 0.00229048 0)
(0.202233 0.00217743 0)
(0.202212 0.0020624 0)
(0.202188 0.00194526 0)
(0.202162 0.00182594 0)
(0.202132 0.0017045 0)
(0.202099 0.00158115 0)
(0.202061 0.0014563 0)
(0.202018 0.00133057 0)
(0.201969 0.0012049 0)
(0.201913 0.00108048 0)
(0.201851 0.000958794 0)
(0.201782 0.000841532 0)
(0.201706 0.000730438 0)
(0.201625 0.00062712 0)
(0.20154 0.000532839 0)
(0.201452 0.00044836 0)
(0.201364 0.00037393 0)
(0.201276 0.000309338 0)
(0.201189 0.000254027 0)
(0.201104 0.000207205 0)
(0.201023 0.000167955 0)
(0.200944 0.000135314 0)
(0.200869 0.000108345 0)
(0.200797 8.61715e-05 0)
(0.200727 6.80048e-05 0)
(0.20066 5.31508e-05 0)
(0.200595 4.10119e-05 0)
(0.200532 3.10821e-05 0)
(0.200471 2.29417e-05 0)
(0.200411 1.62474e-05 0)
(0.200353 1.07238e-05 0)
(0.200296 6.16226e-06 0)
(0.200241 2.41532e-06 0)
(0.200188 -6.08631e-07 0)
(0.200138 -2.93726e-06 0)
(0.200089 -4.50351e-06 0)
(0.200045 -5.07022e-06 0)
(0.199995 -4.08922e-06 0)
(0.198003 0.00621501 0)
(0.19851 0.00663404 0)
(0.199079 0.00691063 0)
(0.199659 0.00704109 0)
(0.200209 0.00704403 0)
(0.2007 0.00694755 0)
(0.201117 0.0067808 0)
(0.20146 0.00657024 0)
(0.201732 0.00633749 0)
(0.201943 0.0060983 0)
(0.202104 0.00586274 0)
(0.202223 0.00563645 0)
(0.202312 0.00542207 0)
(0.202375 0.0052204 0)
(0.202419 0.00503114 0)
(0.202449 0.0048535 0)
(0.202466 0.0046864 0)
(0.202475 0.00452874 0)
(0.202478 0.00437943 0)
(0.202475 0.00423747 0)
(0.202468 0.00410192 0)
(0.202459 0.00397195 0)
(0.202447 0.00384678 0)
(0.202434 0.00372573 0)
(0.20242 0.00360816 0)
(0.202406 0.0034935 0)
(0.202392 0.00338123 0)
(0.202378 0.00327086 0)
(0.202364 0.00316191 0)
(0.202351 0.00305398 0)
(0.202338 0.00294665 0)
(0.202326 0.00283953 0)
(0.202314 0.00273227 0)
(0.202303 0.00262451 0)
(0.202292 0.00251592 0)
(0.20228 0.0024062 0)
(0.202269 0.00229509 0)
(0.202256 0.00218233 0)
(0.202243 0.00206773 0)
(0.202228 0.00195119 0)
(0.202211 0.00183264 0)
(0.202191 0.00171218 0)
(0.202167 0.00159001 0)
(0.202139 0.00146654 0)
(0.202106 0.0013424 0)
(0.202067 0.00121848 0)
(0.202022 0.00109591 0)
(0.20197 0.000976102 0)
(0.201911 0.000860615 0)
(0.201846 0.000751076 0)
(0.201776 0.00064898 0)
(0.2017 0.000555512 0)
(0.201622 0.000471418 0)
(0.201543 0.000396975 0)
(0.201463 0.000332034 0)
(0.201384 0.000276118 0)