/*--------------------------------*- C++ -*----------------------------------*\
| =========                 |                                                 |
| \\      /  F ield         | OpenFOAM: The Open Source CFD Toolbox           |
|  \\    /   O peration     | Version:  2.3.0                                 |
|   \\  /    A nd           | Web:      www.OpenFOAM.org                      |
|    \\/     M anipulation  |                                                 |
\*---------------------------------------------------------------------------*/
FoamFile
{
    version     2.0;
    format      ascii;
    class       surfaceScalarField;
    location    "0.45";
    object      phi_0;
}
// * * * * * * * * * * * * * * * * * * * * * * * * * * * * * * * * * * * * * //

dimensions      [0 3 -1 0 0 0 0];

internalField   nonuniform List<scalar> 
13570
(
2.82915e-08
2.88599e-09
-3.11775e-08
2.54238e-08
2.86774e-09
2.27331e-08
2.69068e-09
2.02531e-08
2.47998e-09
1.79999e-08
2.25316e-09
1.59842e-08
2.01576e-09
1.42082e-08
1.77597e-09
1.26666e-08
1.54157e-09
1.13475e-08
1.31916e-09
1.02334e-08
1.11411e-09
9.30301e-09
9.30354e-10
8.53283e-09
7.70184e-10
7.89861e-09
6.3422e-10
7.377e-09
5.21608e-10
6.94663e-09
4.30366e-10
6.58883e-09
3.57802e-10
6.28791e-09
3.00916e-10
6.03118e-09
2.56729e-10
5.80866e-09
2.22522e-10
5.61271e-09
1.95954e-10
5.43759e-09
1.75119e-10
5.27907e-09
1.5852e-10
5.13404e-09
1.45029e-10
5.00022e-09
1.33816e-10
4.87593e-09
1.2429e-10
4.7599e-09
1.16034e-10
4.65114e-09
1.08758e-10
4.54888e-09
1.02261e-10
4.45248e-09
9.64028e-11
4.36139e-09
9.10824e-11
4.27517e-09
8.62252e-11
4.1934e-09
8.17737e-11
4.11571e-09
7.76816e-11
4.0418e-09
7.39103e-11
3.97138e-09
7.04263e-11
3.90418e-09
6.72007e-11
3.83997e-09
6.42076e-11
3.77854e-09
6.14241e-11
3.71972e-09
5.88296e-11
3.66331e-09
5.64059e-11
3.60917e-09
5.41365e-11
3.55717e-09
5.2007e-11
3.50716e-09
5.00043e-11
3.45905e-09
4.81167e-11
3.41271e-09
4.63339e-11
3.36806e-09
4.46466e-11
3.32502e-09
4.30464e-11
3.28349e-09
4.15258e-11
3.24341e-09
4.00781e-11
3.20472e-09
3.8697e-11
3.16734e-09
3.73772e-11
3.13123e-09
3.61134e-11
3.09633e-09
3.49012e-11
3.06259e-09
3.37362e-11
3.02997e-09
3.26147e-11
2.99844e-09
3.1533e-11
2.96795e-09
3.04879e-11
2.93848e-09
2.94763e-11
2.90998e-09
2.84953e-11
2.88244e-09
2.75424e-11
2.85582e-09
2.66151e-11
2.83011e-09
2.5711e-11
2.80529e-09
2.48281e-11
2.78132e-09
2.39642e-11
2.7582e-09
2.31175e-11
2.73592e-09
2.22861e-11
2.71445e-09
2.14683e-11
2.69379e-09
2.06626e-11
2.67392e-09
1.98673e-11
2.65484e-09
1.90809e-11
2.63654e-09
1.83021e-11
2.61901e-09
1.75295e-11
2.60224e-09
1.6762e-11
2.58625e-09
1.59985e-11
2.57101e-09
1.52382e-11
2.55653e-09
1.44805e-11
2.5428e-09
1.37247e-11
2.52983e-09
1.29703e-11
2.51762e-09
1.22163e-11
2.50616e-09
1.14609e-11
2.49545e-09
1.07011e-11
2.48552e-09
9.93173e-12
2.47638e-09
9.14548e-12
2.46804e-09
8.33273e-12
2.46056e-09
7.48231e-12
2.45398e-09
6.58313e-12
2.44835e-09
5.627e-12
2.44374e-09
4.6125e-12
2.44019e-09
3.54954e-12
2.43773e-09
2.46248e-12
2.43634e-09
1.38955e-12
2.43593e-09
4.07292e-13
2.43625e-09
-3.2014e-13
2.43704e-09
-7.89948e-13
2.4381e-09
-1.06156e-12
2.43925e-09
-1.1509e-12
2.44031e-09
-1.05214e-12
2.44103e-09
-7.26524e-13
2.44115e-09
-1.15666e-13
2.82854e-12
3.33243e-08
3.16431e-09
-3.36027e-08
3.27323e-08
3.45982e-09
3.19082e-08
3.51472e-09
3.09289e-08
3.45928e-09
2.98498e-08
3.33223e-09
2.87166e-08
3.14899e-09
2.75661e-08
2.92644e-09
2.64268e-08
2.68096e-09
2.53194e-08
2.42657e-09
2.42587e-08
2.17481e-09
2.32542e-08
1.93484e-09
2.23111e-08
1.71321e-09
2.14315e-08
1.51385e-09
2.06148e-08
1.33835e-09
1.98587e-08
1.18643e-09
1.916e-08
1.05652e-09
1.85147e-08
9.46233e-10
1.79185e-08
8.52897e-10
1.73672e-08
7.73828e-10
1.68566e-08
7.06559e-10
1.63828e-08
6.4894e-10
1.59421e-08
5.99177e-10
1.55313e-08
5.5581e-10
1.51475e-08
5.17678e-10
1.47879e-08
4.83869e-10
1.44503e-08
4.53669e-10
1.41325e-08
4.26518e-10
1.38328e-08
4.01973e-10
1.35495e-08
3.7968e-10
1.32812e-08
3.59353e-10
1.30267e-08
3.40752e-10
1.27848e-08
3.2368e-10
1.25545e-08
3.07967e-10
1.2335e-08
2.93465e-10
1.21254e-08
2.80047e-10
1.19249e-08
2.67603e-10
1.17331e-08
2.56033e-10
1.15493e-08
2.45252e-10
1.13729e-08
2.35182e-10
1.12036e-08
2.25756e-10
1.10408e-08
2.16912e-10
1.08842e-08
2.08598e-10
1.07335e-08
2.00765e-10
1.05882e-08
1.93369e-10
1.04482e-08
1.86373e-10
1.03131e-08
1.79741e-10
1.01827e-08
1.73443e-10
1.00568e-08
1.67449e-10
9.9351e-09
1.61735e-10
9.81752e-09
1.56278e-10
9.70384e-09
1.51055e-10
9.59391e-09
1.46049e-10
9.48757e-09
1.4124e-10
9.38469e-09
1.36613e-10
9.28515e-09
1.32153e-10
9.18884e-09
1.27845e-10
9.09565e-09
1.23677e-10
9.00549e-09
1.19636e-10
8.91828e-09
1.15712e-10
8.83393e-09
1.11894e-10
8.75237e-09
1.08172e-10
8.67354e-09
1.04536e-10
8.59739e-09
1.00978e-10
8.52387e-09
9.74896e-11
8.45292e-09
9.40628e-11
8.38452e-09
9.06902e-11
8.31862e-09
8.73644e-11
8.25521e-09
8.40788e-11
8.19425e-09
8.08268e-11
8.13573e-09
7.76022e-11
8.07963e-09
7.43992e-11
8.02595e-09
7.12121e-11
7.97467e-09
6.8036e-11
7.9258e-09
6.48661e-11
7.87934e-09
6.16984e-11
7.8353e-09
5.8529e-11
7.79367e-09
5.53543e-11
7.75447e-09
5.21702e-11
7.71771e-09
4.89715e-11
7.68342e-09
4.57506e-11
7.65163e-09
4.24969e-11
7.62236e-09
3.91957e-11
7.59568e-09
3.58284e-11
7.57164e-09
3.23742e-11
7.55031e-09
2.88131e-11
7.53176e-09
2.51324e-11
7.51605e-09
2.13338e-11
7.50322e-09
1.74434e-11
7.49325e-09
1.35189e-11
7.48606e-09
9.65292e-12
7.48149e-09
5.96398e-12
7.4793e-09
2.59261e-12
7.4791e-09
-1.21837e-13
7.48027e-09
-1.95494e-12
7.48222e-09
-3.0134e-12
7.4845e-09
-3.43212e-12
7.48667e-09
-3.2235e-12
7.48821e-09
-2.26681e-12
7.48836e-09
-2.65289e-13
6.16195e-12
3.47193e-08
3.01622e-09
-3.45712e-08
3.47782e-08
3.40089e-09
3.47107e-08
3.58223e-09
3.45222e-08
3.64775e-09
3.42234e-08
3.63104e-09
3.38285e-08
3.54383e-09
3.33551e-08
3.39987e-09
3.28209e-08
3.21515e-09
3.22427e-08
3.00477e-09
3.16354e-08
2.7821e-09
3.10118e-08
2.55843e-09
3.03824e-08
2.34264e-09
2.97553e-08
2.14092e-09
2.91367e-08
1.95695e-09
2.85309e-08
1.79222e-09
2.79409e-08
1.64658e-09
2.73683e-08
1.51879e-09
2.68142e-08
1.40698e-09
2.6279e-08
1.30907e-09
2.57626e-08
1.22298e-09
2.52647e-08
1.14682e-09
2.47849e-08
1.07895e-09
2.43227e-08
1.01802e-09
2.38775e-08
9.62913e-10
2.34486e-08
9.12746e-10
2.30355e-08
8.66814e-10
2.26374e-08
8.24555e-10
2.22539e-08
7.85521e-10
2.18842e-08
7.49346e-10
2.15278e-08
7.15728e-10
2.11842e-08
6.84416e-10
2.08527e-08
6.5519e-10
2.05328e-08
6.27863e-10
2.0224e-08
6.02266e-10
1.99257e-08
5.78253e-10
1.96377e-08
5.55689e-10
1.93592e-08
5.34454e-10
1.90901e-08
5.14439e-10
1.88297e-08
4.95546e-10
1.85778e-08
4.77683e-10
1.83339e-08
4.6077e-10
1.80978e-08
4.44732e-10
1.7869e-08
4.29499e-10
1.76474e-08
4.15009e-10
1.74326e-08
4.01205e-10
1.72243e-08
3.88035e-10
1.70223e-08
3.75449e-10
1.68263e-08
3.63403e-10
1.66362e-08
3.51857e-10
1.64517e-08
3.40771e-10
1.62726e-08
3.3011e-10
1.60988e-08
3.19843e-10
1.59301e-08
3.09937e-10
1.57664e-08
3.00365e-10
1.56075e-08
2.911e-10
1.54532e-08
2.82117e-10
1.53035e-08
2.73392e-10
1.51582e-08
2.64902e-10
1.50173e-08
2.56628e-10
1.48806e-08
2.48549e-10
1.47482e-08
2.40645e-10
1.46198e-08
2.329e-10
1.44955e-08
2.25295e-10
1.43751e-08
2.17814e-10
1.42588e-08
2.10442e-10
1.41463e-08
2.03162e-10
1.40377e-08
1.95962e-10
1.3933e-08
1.88825e-10
1.3832e-08
1.81739e-10
1.3735e-08
1.74691e-10
1.36417e-08
1.67668e-10
1.35522e-08
1.60659e-10
1.34666e-08
1.53653e-10
1.33848e-08
1.46639e-10
1.33069e-08
1.39607e-10
1.32329e-08
1.32549e-10
1.31628e-08
1.25457e-10
1.30967e-08
1.18319e-10
1.30345e-08
1.11126e-10
1.29764e-08
1.03862e-10
1.29224e-08
9.65104e-11
1.28725e-08
8.90488e-11
1.28269e-08
8.14529e-11
1.27856e-08
7.37e-11
1.27486e-08
6.5776e-11
1.27161e-08
5.76857e-11
1.26879e-08
4.94663e-11
1.26642e-08
4.12008e-11
1.26447e-08
3.30291e-11
1.26292e-08
2.51507e-11
1.26173e-08
1.78085e-11
1.26087e-08
1.12373e-11
1.2603e-08
5.5971e-12
1.25999e-08
1.08368e-12
1.25989e-08
-1.96594e-12
1.2599e-08
-3.53673e-12
1.25995e-08
-3.79282e-12
1.25999e-08
-2.58327e-12
1.2599e-08
5.90713e-13
1.02879e-11
3.55531e-08
2.82884e-09
-3.53657e-08
3.57435e-08
3.21043e-09
3.58927e-08
3.4331e-09
3.5988e-08
3.5524e-09
3.60229e-08
3.59613e-09
3.59935e-08
3.57327e-09
3.59002e-08
3.49314e-09
3.57472e-08
3.36814e-09
3.55408e-08
3.21122e-09
3.52884e-08
3.03446e-09
3.49982e-08
2.84866e-09
3.4678e-08
2.66285e-09
3.43351e-08
2.48387e-09
3.39757e-08
2.31634e-09
3.36051e-08
2.16282e-09
3.32274e-08
2.02422e-09
3.2846e-08
1.90024e-09
3.24631e-08
1.78983e-09
3.20807e-08
1.69151e-09
3.17e-08
1.6037e-09
3.13219e-08
1.52487e-09
3.09472e-08
1.45361e-09
3.05765e-08
1.38874e-09
3.02102e-08
1.32926e-09
2.98485e-08
1.27438e-09
2.94919e-08
1.22345e-09
2.91405e-08
1.17595e-09
2.87945e-08
1.13148e-09
2.84542e-08
1.0897e-09
2.81196e-08
1.05035e-09
2.77908e-08
1.0132e-09
2.74679e-08
9.78054e-10
2.7151e-08
9.44753e-10
2.68401e-08
9.1315e-10
2.65353e-08
8.83117e-10
2.62364e-08
8.54538e-10
2.59436e-08
8.27309e-10
2.56567e-08
8.01333e-10
2.53757e-08
7.76525e-10
2.51006e-08
7.52801e-10
2.48313e-08
7.3009e-10
2.45677e-08
7.08322e-10
2.43097e-08
6.87432e-10
2.40574e-08
6.67364e-10
2.38105e-08
6.4806e-10
2.35691e-08
6.2947e-10
2.3333e-08
6.11545e-10
2.31022e-08
5.94242e-10
2.28765e-08
5.77516e-10
2.26559e-08
5.61328e-10
2.24404e-08
5.45641e-10
2.22298e-08
5.30419e-10
2.20242e-08
5.15627e-10
2.18233e-08
5.01233e-10
2.16272e-08
4.87206e-10
2.14358e-08
4.73518e-10
2.1249e-08
4.60138e-10
2.10669e-08
4.47041e-10
2.08893e-08
4.342e-10
2.07163e-08
4.21588e-10
2.05477e-08
4.09183e-10
2.03837e-08
3.96959e-10
2.02241e-08
3.84893e-10
2.00689e-08
3.72964e-10
1.99182e-08
3.61148e-10
1.9772e-08
3.49425e-10
1.96302e-08
3.37773e-10
1.94928e-08
3.26171e-10
1.93599e-08
3.14601e-10
1.92316e-08
3.03041e-10
1.91078e-08
2.91475e-10
1.89886e-08
2.79883e-10
1.8874e-08
2.68249e-10
1.87641e-08
2.56557e-10
1.86589e-08
2.44791e-10
1.85585e-08
2.32936e-10
1.8463e-08
2.20978e-10
1.83724e-08
2.08903e-10
1.82868e-08
1.96693e-10
1.82063e-08
1.84328e-10
1.81311e-08
1.71788e-10
1.80611e-08
1.59049e-10
1.79964e-08
1.46089e-10
1.79372e-08
1.32895e-10
1.78835e-08
1.19474e-10
1.78354e-08
1.05865e-10
1.77927e-08
9.21584e-11
1.77554e-08
7.85079e-11
1.77232e-08
6.51438e-11
1.7696e-08
5.23677e-11
1.76733e-08
4.05269e-11
1.76546e-08
2.99582e-11
1.76393e-08
2.09195e-11
1.76268e-08
1.35237e-11
1.76171e-08
7.77349e-12
1.76098e-08
3.73295e-12
1.76044e-08
1.65184e-12
1.76e-08
1.79289e-12
1.75955e-08
5.12559e-12
1.7091e-11
3.63031e-08
2.665e-09
-3.61393e-08
3.64965e-08
3.01707e-09
3.66836e-08
3.24598e-09
3.68518e-08
3.38424e-09
3.69934e-08
3.45454e-09
3.71012e-08
3.46547e-09
3.71702e-08
3.42413e-09
3.71982e-08
3.34013e-09
3.71853e-08
3.22405e-09
3.71337e-08
3.08612e-09
3.70466e-08
2.93576e-09
3.69283e-08
2.78113e-09
3.67834e-08
2.62876e-09
3.66164e-08
2.48334e-09
3.64314e-08
2.34784e-09
3.62319e-08
2.22373e-09
3.60208e-08
2.11132e-09
3.58005e-08
2.01013e-09
3.55728e-08
1.91921e-09
3.53391e-08
1.83739e-09
3.51006e-08
1.76343e-09
3.4858e-08
1.69619e-09
3.46121e-08
1.63463e-09
3.43635e-08
1.5779e-09
3.41126e-08
1.52525e-09
3.38599e-08
1.4761e-09
3.36059e-08
1.42998e-09
3.33509e-08
1.3865e-09
3.30952e-08
1.34537e-09
3.28392e-08
1.30633e-09
3.25833e-08
1.26918e-09
3.23276e-08
1.23374e-09
3.20725e-08
1.19987e-09
3.18182e-08
1.16745e-09
3.15649e-08
1.13636e-09
3.13129e-08
1.1065e-09
3.10625e-08
1.07779e-09
3.08136e-08
1.05015e-09
3.05667e-08
1.0235e-09
3.03217e-08
9.97775e-10
3.00789e-08
9.72916e-10
2.98383e-08
9.48865e-10
2.96002e-08
9.25569e-10
2.93646e-08
9.02981e-10
2.91316e-08
8.81053e-10
2.89013e-08
8.59742e-10
2.86738e-08
8.39009e-10
2.84493e-08
8.18815e-10
2.82277e-08
7.99123e-10
2.80091e-08
7.79898e-10
2.77936e-08
7.61108e-10
2.75813e-08
7.4272e-10
2.73723e-08
7.24703e-10
2.71665e-08
7.07027e-10
2.6964e-08
6.89664e-10
2.67649e-08
6.72585e-10
2.65693e-08
6.55762e-10
2.63772e-08
6.39169e-10
2.61886e-08
6.22777e-10
2.60036e-08
6.06562e-10
2.58223e-08
5.90497e-10
2.56447e-08
5.74556e-10
2.54709e-08
5.58714e-10
2.53009e-08
5.42946e-10
2.51348e-08
5.27225e-10
2.49727e-08
5.11529e-10
2.48147e-08
4.9583e-10
2.46607e-08
4.80107e-10
2.4511e-08
4.64333e-10
2.43656e-08
4.48485e-10
2.42245e-08
4.32541e-10
2.40879e-08
4.16477e-10
2.39559e-08
4.00271e-10
2.38285e-08
3.83904e-10
2.3706e-08
3.67355e-10
2.35883e-08
3.50606e-10
2.34756e-08
3.33636e-10
2.33681e-08
3.16428e-10
2.32658e-08
2.98961e-10
2.3169e-08
2.81213e-10
2.30776e-08
2.63164e-10
2.29918e-08
2.44795e-10
2.29118e-08
2.26093e-10
2.28377e-08
2.07066e-10
2.27694e-08
1.87751e-10
2.2707e-08
1.6823e-10
2.26505e-08
1.48652e-10
2.25998e-08
1.29244e-10
2.25546e-08
1.10318e-10
2.25147e-08
9.22612e-11
2.24798e-08
7.54967e-11
2.24493e-08
6.04254e-11
2.24229e-08
4.73489e-11
2.24e-08
3.64088e-11
2.23801e-08
2.76332e-11
2.23628e-08
2.10506e-11
2.23477e-08
1.67536e-11
2.23344e-08
1.50462e-11
2.23223e-08
1.72748e-11
2.89231e-11
3.70465e-08
2.52727e-09
-3.69088e-08
3.72193e-08
2.84431e-09
3.73988e-08
3.06643e-09
3.75731e-08
3.20995e-09
3.77358e-08
3.29189e-09
3.78807e-08
3.32056e-09
3.80027e-08
3.30211e-09
3.80985e-08
3.24438e-09
3.81663e-08
3.15624e-09
3.82059e-08
3.04646e-09
3.82185e-08
2.92317e-09
3.82061e-08
2.79357e-09
3.81713e-08
2.66359e-09
3.81169e-08
2.5377e-09
3.80458e-08
2.4189e-09
3.79606e-08
2.30892e-09
3.78635e-08
2.20842e-09
3.77564e-08
2.11731e-09
3.76406e-08
2.03501e-09
3.75173e-08
1.96067e-09
3.73874e-08
1.89331e-09
3.72516e-08
1.832e-09
3.71104e-08
1.77583e-09
3.69642e-08
1.72405e-09
3.68135e-08
1.676e-09
3.66585e-08
1.63112e-09
3.64995e-08
1.58897e-09
3.63368e-08
1.54919e-09
3.61707e-08
1.51149e-09
3.60014e-08
1.47562e-09
3.58292e-08
1.44138e-09
3.56543e-08
1.40861e-09
3.5477e-08
1.37716e-09
3.52976e-08
1.34693e-09
3.51161e-08
1.3178e-09
3.49329e-08
1.28967e-09
3.47483e-08
1.26248e-09
3.45623e-08
1.23614e-09
3.43752e-08
1.21059e-09
3.41872e-08
1.18577e-09
3.39985e-08
1.16163e-09
3.38092e-08
1.1381e-09
3.36196e-08
1.11516e-09
3.34299e-08
1.09274e-09
3.32401e-08
1.07082e-09
3.30505e-08
1.04936e-09
3.28612e-08
1.02832e-09
3.26723e-08
1.00766e-09
3.24841e-08
9.87357e-10
3.22966e-08
9.67378e-10
3.211e-08
9.47694e-10
3.19245e-08
9.28276e-10
3.17401e-08
9.09095e-10
3.1557e-08
8.90126e-10
3.13753e-08
8.7134e-10
3.11952e-08
8.52712e-10
3.10167e-08
8.34216e-10
3.08401e-08
8.15825e-10
3.06654e-08
7.97513e-10
3.04927e-08
7.79255e-10
3.03221e-08
7.61024e-10
3.01539e-08
7.42794e-10
2.99881e-08
7.24539e-10
2.98248e-08
7.06231e-10
2.96642e-08
6.87846e-10
2.95063e-08
6.69355e-10
2.93514e-08
6.50731e-10
2.91996e-08
6.31948e-10
2.90509e-08
6.12979e-10
2.89056e-08
5.93797e-10
2.87638e-08
5.74375e-10
2.86256e-08
5.54687e-10
2.84912e-08
5.3471e-10
2.83606e-08
5.14418e-10
2.82342e-08
4.93789e-10
2.8112e-08
4.728e-10
2.79942e-08
4.51429e-10
2.7881e-08
4.29656e-10
2.77725e-08
4.0746e-10
2.76689e-08
3.84819e-10
2.75703e-08
3.61717e-10
2.7477e-08
3.38144e-10
2.7389e-08
3.14104e-10
2.73064e-08
2.89627e-10
2.72294e-08
2.64784e-10
2.71579e-08
2.39705e-10
2.7092e-08
2.14593e-10
2.70315e-08
1.89741e-10
2.69763e-08
1.65528e-10
2.69261e-08
1.42403e-10
2.68808e-08
1.20845e-10
2.68399e-08
1.01294e-10
2.68032e-08
8.40852e-11
2.67702e-08
6.94015e-11
2.67405e-08
5.73057e-11
2.67137e-08
4.78207e-11
2.66895e-08
4.10112e-11
2.66673e-08
3.71897e-11
2.6647e-08
3.76408e-11
4.65616e-11
3.77952e-08
2.40985e-09
-3.76778e-08
3.79466e-08
2.6929e-09
3.811e-08
2.90302e-09
3.82738e-08
3.04612e-09
3.84321e-08
3.13368e-09
3.85796e-08
3.17301e-09
3.87121e-08
3.1696e-09
3.88265e-08
3.13004e-09
3.89208e-08
3.06189e-09
3.89945e-08
2.97276e-09
3.90479e-08
2.86979e-09
3.90821e-08
2.75938e-09
3.90988e-08
2.64688e-09
3.91e-08
2.53647e-09
3.90878e-08
2.43111e-09
3.90641e-08
2.33262e-09
3.90307e-08
2.24189e-09
3.89888e-08
2.15913e-09
3.89398e-08
2.08404e-09
3.88845e-08
2.01601e-09
3.88235e-08
1.9543e-09
3.87573e-08
1.89814e-09
3.86864e-08
1.84677e-09
3.8611e-08
1.79951e-09
3.85312e-08
1.75576e-09
3.84473e-08
1.71503e-09
3.83594e-08
1.67689e-09
3.82676e-08
1.64098e-09
3.8172e-08
1.60701e-09
3.80729e-08
1.57476e-09
3.79703e-08
1.54401e-09
3.78643e-08
1.5146e-09
3.7755e-08
1.48639e-09
3.76427e-08
1.45926e-09
3.75274e-08
1.43309e-09
3.74093e-08
1.40779e-09
3.72885e-08
1.38329e-09
3.71651e-08
1.3595e-09
3.70394e-08
1.33636e-09
3.69113e-08
1.31381e-09
3.67812e-08
1.29179e-09
3.6649e-08
1.27025e-09
3.6515e-08
1.24915e-09
3.63793e-08
1.22845e-09
3.62421e-08
1.20809e-09
3.61034e-08
1.18805e-09
3.59634e-08
1.16829e-09
3.58223e-08
1.14878e-09
3.56801e-08
1.12948e-09
3.55372e-08
1.11037e-09
3.53934e-08
1.09141e-09
3.52491e-08
1.07258e-09
3.51044e-08
1.05384e-09
3.49593e-08
1.03518e-09
3.48141e-08
1.01656e-09
3.46689e-08
9.97962e-10
3.45237e-08
9.79353e-10
3.43788e-08
9.60707e-10
3.42344e-08
9.42e-10
3.40904e-08
9.23202e-10
3.39471e-08
9.04287e-10
3.38047e-08
8.85227e-10
3.36633e-08
8.65994e-10
3.35229e-08
8.4656e-10
3.33839e-08
8.26894e-10
3.32463e-08
8.0697e-10
3.31102e-08
7.86755e-10
3.2976e-08
7.66222e-10
3.28436e-08
7.45339e-10
3.27133e-08
7.24078e-10
3.25853e-08
7.02409e-10
3.24597e-08
6.80303e-10
3.23367e-08
6.57731e-10
3.22164e-08
6.34667e-10
3.20991e-08
6.11086e-10
3.19849e-08
5.86961e-10
3.18741e-08
5.6227e-10
3.17668e-08
5.36991e-10
3.16631e-08
5.11102e-10
3.15634e-08
4.84587e-10
3.14676e-08
4.57434e-10
3.13761e-08
4.29645e-10
3.1289e-08
4.01242e-10
3.12064e-08
3.72278e-10
3.11283e-08
3.42859e-10
3.10548e-08
3.13153e-10
3.0986e-08
2.83413e-10
3.09218e-08
2.53983e-10
3.0862e-08
2.25291e-10
3.08066e-08
1.97832e-10
3.07553e-08
1.72117e-10
3.0708e-08
1.4861e-10
3.06644e-08
1.27672e-10
3.06243e-08
1.09516e-10
3.05874e-08
9.4235e-11
3.05533e-08
8.18689e-11
3.05218e-08
7.24851e-11
3.04927e-08
6.63606e-11
3.04658e-08
6.44652e-11
6.90481e-11
3.85509e-08
2.30763e-09
-3.84487e-08
3.86839e-08
2.55985e-09
3.88311e-08
2.75587e-09
3.89817e-08
2.89557e-09
3.91296e-08
2.98577e-09
3.92702e-08
3.03233e-09
3.93998e-08
3.04002e-09
3.95154e-08
3.01441e-09
3.96154e-08
2.96191e-09
3.96991e-08
2.88914e-09
3.97664e-08
2.8024e-09
3.98184e-08
2.7074e-09
3.98563e-08
2.60901e-09
3.98816e-08
2.51113e-09
3.98961e-08
2.4166e-09
3.99014e-08
2.32733e-09
3.98989e-08
2.24437e-09
3.98899e-08
2.16814e-09
3.98754e-08
2.09857e-09
3.98561e-08
2.03529e-09
3.98327e-08
1.97776e-09
3.98055e-08
1.92535e-09
3.97748e-08
1.87745e-09
3.97408e-08
1.83347e-09
3.97037e-08
1.79287e-09
3.96636e-08
1.75519e-09
3.96204e-08
1.72004e-09
3.95743e-08
1.68708e-09
3.95253e-08
1.65604e-09
3.94734e-08
1.62667e-09
3.94186e-08
1.59878e-09
3.9361e-08
1.5722e-09
3.93006e-08
1.54678e-09
3.92375e-08
1.52239e-09
3.91716e-08
1.49892e-09
3.91032e-08
1.47628e-09
3.90321e-08
1.45438e-09
3.89584e-08
1.43313e-09
3.88823e-08
1.41248e-09
3.88038e-08
1.39235e-09
3.87229e-08
1.37269e-09
3.86397e-08
1.35344e-09
3.85543e-08
1.33455e-09
3.84668e-08
1.31597e-09
3.83772e-08
1.29767e-09
3.82856e-08
1.2796e-09
3.81922e-08
1.26172e-09
3.8097e-08
1.244e-09
3.80001e-08
1.2264e-09
3.79016e-08
1.20889e-09
3.78015e-08
1.19144e-09
3.77001e-08
1.17401e-09
3.75974e-08
1.15658e-09
3.74934e-08
1.13911e-09
3.73884e-08
1.12158e-09
3.72824e-08
1.10395e-09
3.71756e-08
1.08621e-09
3.7068e-08
1.0683e-09
3.69597e-08
1.05022e-09
3.6851e-08
1.03192e-09
3.67419e-08
1.01338e-09
3.66326e-08
9.9456e-10
3.65232e-08
9.75437e-10
3.64137e-08
9.55975e-10
3.63045e-08
9.36143e-10
3.61956e-08
9.15908e-10
3.60871e-08
8.95236e-10
3.59792e-08
8.74095e-10
3.58721e-08
8.52449e-10
3.57659e-08
8.30267e-10
3.56608e-08
8.07514e-10
3.55569e-08
7.84158e-10
3.54545e-08
7.60168e-10
3.53537e-08
7.35513e-10
3.52546e-08
7.10164e-10
3.51575e-08
6.84094e-10
3.50624e-08
6.57278e-10
3.49697e-08
6.29693e-10
3.48795e-08
6.01319e-10
3.4792e-08
5.72142e-10
3.47072e-08
5.42159e-10
3.46255e-08
5.11382e-10
3.45469e-08
4.79849e-10
3.44715e-08
4.47636e-10
3.43995e-08
4.14875e-10
3.43309e-08
3.8177e-10
3.42657e-08
3.48607e-10
3.42039e-08
3.15766e-10
3.41455e-08
2.83708e-10
3.40904e-08
2.52952e-10
3.40385e-08
2.24027e-10
3.39897e-08
1.9741e-10
3.39439e-08
1.73477e-10
3.39009e-08
1.52463e-10
3.38607e-08
1.34487e-10
3.3823e-08
1.19604e-10
3.37876e-08
1.07877e-10
3.37544e-08
9.95003e-11
3.37239e-08
9.50018e-11
9.4655e-11
3.93141e-08
2.21699e-09
-3.92234e-08
3.94319e-08
2.44204e-09
3.95643e-08
2.6234e-09
3.9702e-08
2.75787e-09
3.9839e-08
2.8488e-09
3.99709e-08
2.90045e-09
4.00941e-08
2.91684e-09
4.02059e-08
2.90259e-09
4.03047e-08
2.86312e-09
4.03897e-08
2.80415e-09
4.04609e-08
2.73122e-09
4.05189e-08
2.6494e-09
4.05647e-08
2.56312e-09
4.05999e-08
2.476e-09
4.06257e-08
2.39077e-09
4.06437e-08
2.30936e-09
4.06551e-08
2.23294e-09
4.06611e-08
2.1621e-09
4.06627e-08
2.09698e-09
4.06606e-08
2.0374e-09
4.06554e-08
1.98299e-09
4.06475e-08
1.93329e-09
4.06371e-08
1.8878e-09
4.06246e-08
1.84602e-09
4.06099e-08
1.80749e-09
4.05933e-08
1.77181e-09
4.05747e-08
1.73861e-09
4.05543e-08
1.70758e-09
4.05318e-08
1.67845e-09
4.05075e-08
1.651e-09
4.04813e-08
1.62504e-09
4.04531e-08
1.60038e-09
4.0423e-08
1.5769e-09
4.03909e-08
1.55446e-09
4.03569e-08
1.53294e-09
4.03209e-08
1.51226e-09
4.02829e-08
1.49231e-09
4.02431e-08
1.47302e-09
4.02012e-08
1.45431e-09
4.01575e-08
1.43612e-09
4.01118e-08
1.41839e-09
4.00642e-08
1.40104e-09
4.00147e-08
1.38405e-09
3.99633e-08
1.36734e-09
3.99101e-08
1.35088e-09
3.98551e-08
1.33462e-09
3.97983e-08
1.31852e-09
3.97397e-08
1.30253e-09
3.96795e-08
1.28663e-09
3.96176e-08
1.27077e-09
3.95541e-08
1.25493e-09
3.94891e-08
1.23905e-09
3.94225e-08
1.22311e-09
3.93546e-08
1.20708e-09
3.92852e-08
1.19092e-09
3.92146e-08
1.17459e-09
3.91427e-08
1.15807e-09
3.90697e-08
1.14132e-09
3.89956e-08
1.12431e-09
3.89205e-08
1.107e-09
3.88446e-08
1.08936e-09
3.87678e-08
1.07135e-09
3.86903e-08
1.05294e-09
3.86122e-08
1.03409e-09
3.85336e-08
1.01476e-09
3.84545e-08
9.94918e-10
3.83753e-08
9.74528e-10
3.82958e-08
9.53549e-10
3.82163e-08
9.31943e-10
3.81369e-08
9.09673e-10
3.80577e-08
8.86702e-10
3.79789e-08
8.62992e-10
3.79005e-08
8.38508e-10
3.78228e-08
8.13217e-10
3.77459e-08
7.87086e-10
3.76699e-08
7.60084e-10
3.7595e-08
7.32186e-10
3.75213e-08
7.03366e-10
3.7449e-08
6.73607e-10
3.73783e-08
6.42899e-10
3.73092e-08
6.11243e-10
3.72419e-08
5.78662e-10
3.71766e-08
5.45207e-10
3.71132e-08
5.10974e-10
3.7052e-08
4.76114e-10
3.69929e-08
4.40853e-10
3.6936e-08
4.05502e-10
3.68813e-08
3.70459e-10
3.68288e-08
3.36202e-10
3.67785e-08
3.03258e-10
3.67304e-08
2.72157e-10
3.66844e-08
2.43382e-10
3.66406e-08
2.17313e-10
3.65988e-08
1.94203e-10
3.65591e-08
1.74189e-10
3.65214e-08
1.57337e-10
3.64856e-08
1.43694e-10
3.64518e-08
1.33342e-10
3.64204e-08
1.26358e-10
1.21451e-10
4.00852e-08
2.13542e-09
-4.00036e-08
4.01904e-08
2.33682e-09
4.031e-08
2.50384e-09
4.04359e-08
2.63197e-09
4.05625e-08
2.72221e-09
4.06855e-08
2.77736e-09
4.08017e-08
2.80063e-09
4.09085e-08
2.79584e-09
4.10041e-08
2.7675e-09
4.10877e-08
2.72051e-09
4.11593e-08
2.6597e-09
4.12191e-08
2.58959e-09
4.1268e-08
2.51415e-09
4.13073e-08
2.43673e-09
4.13381e-08
2.35994e-09
4.13618e-08
2.28567e-09
4.13796e-08
2.21519e-09
4.13924e-08
2.14922e-09
4.14014e-08
2.08804e-09
4.14071e-08
2.03167e-09
4.14102e-08
1.97988e-09
4.14112e-08
1.93235e-09
4.14103e-08
1.88869e-09
4.14078e-08
1.8485e-09
4.14039e-08
1.8114e-09
4.13987e-08
1.77704e-09
4.13922e-08
1.74508e-09
4.13845e-08
1.71525e-09
4.13757e-08
1.6873e-09
4.13656e-08
1.66102e-09
4.13545e-08
1.63623e-09
4.13421e-08
1.61275e-09
4.13285e-08
1.59046e-09
4.13138e-08
1.56922e-09
4.12978e-08
1.54892e-09
4.12806e-08
1.52947e-09
4.12621e-08
1.51078e-09
4.12424e-08
1.49276e-09
4.12213e-08
1.47534e-09
4.1199e-08
1.45844e-09
4.11754e-08
1.44202e-09
4.11504e-08
1.426e-09
4.11242e-08
1.41033e-09
4.10965e-08
1.39496e-09
4.10676e-08
1.37984e-09
4.10373e-08
1.36493e-09
4.10056e-08
1.35017e-09
4.09726e-08
1.33553e-09
4.09383e-08
1.32096e-09
4.09026e-08
1.30643e-09
4.08657e-08
1.29189e-09
4.08274e-08
1.27732e-09
4.07878e-08
1.26266e-09
4.0747e-08
1.24788e-09
4.0705e-08
1.23295e-09
4.06618e-08
1.21783e-09
4.06174e-08
1.20248e-09
4.05718e-08
1.18686e-09
4.05252e-08
1.17094e-09
4.04775e-08
1.15467e-09
4.04289e-08
1.13803e-09
4.03792e-08
1.12097e-09
4.03287e-08
1.10345e-09
4.02774e-08
1.08543e-09
4.02253e-08
1.06686e-09
4.01725e-08
1.04772e-09
4.01191e-08
1.02795e-09
4.00651e-08
1.00752e-09
4.00106e-08
9.8638e-10
3.99558e-08
9.64488e-10
3.99007e-08
9.41806e-10
3.98454e-08
9.18291e-10
3.979e-08
8.93906e-10
3.97346e-08
8.68611e-10
3.96794e-08
8.42372e-10
3.96243e-08
8.15157e-10
3.95695e-08
7.86935e-10
3.95152e-08
7.57684e-10
3.94614e-08
7.27386e-10
3.94083e-08
6.96032e-10
3.93559e-08
6.63632e-10
3.93044e-08
6.30214e-10
3.92537e-08
5.95841e-10
3.92041e-08
5.6062e-10
3.91555e-08
5.24718e-10
3.9108e-08
4.88374e-10
3.90615e-08
4.51909e-10
3.90163e-08
4.15729e-10
3.89722e-08
3.80309e-10
3.89293e-08
3.46173e-10
3.88876e-08
3.13844e-10
3.88472e-08
2.83796e-10
3.88081e-08
2.56411e-10
3.87703e-08
2.31949e-10
3.87339e-08
2.10563e-10
3.86989e-08
1.92324e-10
3.86654e-08
1.77255e-10
3.86334e-08
1.65326e-10
3.86035e-08
1.56244e-10
1.47779e-10
4.08649e-08
2.06114e-09
-4.07906e-08
4.09597e-08
2.24204e-09
4.1068e-08
2.39552e-09
4.11832e-08
2.51676e-09
4.13002e-08
2.60526e-09
4.14149e-08
2.66262e-09
4.15242e-08
2.69129e-09
4.16257e-08
2.69436e-09
4.17177e-08
2.67556e-09
4.17991e-08
2.63906e-09
4.18698e-08
2.58902e-09
4.19299e-08
2.52944e-09
4.19802e-08
2.46389e-09
4.20215e-08
2.39542e-09
4.2055e-08
2.32649e-09
4.20817e-08
2.25896e-09
4.21027e-08
2.19413e-09
4.21191e-08
2.1328e-09
4.21318e-08
2.07541e-09
4.21414e-08
2.02209e-09
4.21485e-08
1.97276e-09
4.21536e-08
1.92722e-09
4.21571e-08
1.88519e-09
4.21592e-08
1.84636e-09
4.21602e-08
1.81042e-09
4.21602e-08
1.77705e-09
4.21593e-08
1.74599e-09
4.21576e-08
1.71699e-09
4.2155e-08
1.68981e-09
4.21518e-08
1.66427e-09
4.21478e-08
1.64019e-09
4.21432e-08
1.61743e-09
4.21378e-08
1.59584e-09
4.21317e-08
1.5753e-09
4.21249e-08
1.55572e-09
4.21174e-08
1.53698e-09
4.21091e-08
1.51902e-09
4.21002e-08
1.50174e-09
4.20904e-08
1.48507e-09
4.20799e-08
1.46895e-09
4.20686e-08
1.4533e-09
4.20566e-08
1.43808e-09
4.20437e-08
1.42323e-09
4.20299e-08
1.40869e-09
4.20154e-08
1.39441e-09
4.19999e-08
1.38035e-09
4.19836e-08
1.36647e-09
4.19665e-08
1.3527e-09
4.19484e-08
1.33903e-09
4.19294e-08
1.32539e-09
4.19096e-08
1.31176e-09
4.18888e-08
1.29809e-09
4.18671e-08
1.28434e-09
4.18445e-08
1.27048e-09
4.1821e-08
1.25646e-09
4.17966e-08
1.24224e-09
4.17713e-08
1.22779e-09
4.17451e-08
1.21306e-09
4.1718e-08
1.19802e-09
4.169e-08
1.18262e-09
4.16612e-08
1.16682e-09
4.16316e-08
1.15058e-09
4.16012e-08
1.13386e-09
4.157e-08
1.11662e-09
4.15381e-08
1.0988e-09
4.15055e-08
1.08037e-09
4.14721e-08
1.06127e-09
4.14382e-08
1.04148e-09
4.14036e-08
1.02093e-09
4.13685e-08
9.9958e-10
4.1333e-08
9.77394e-10
4.12969e-08
9.54322e-10
4.12605e-08
9.30324e-10
4.12238e-08
9.05359e-10
4.11867e-08
8.79389e-10
4.11495e-08
8.52379e-10
4.11122e-08
8.243e-10
4.10747e-08
7.95128e-10
4.10372e-08
7.64845e-10
4.09998e-08
7.33447e-10
4.09625e-08
7.00946e-10
4.09254e-08
6.67378e-10
4.08884e-08
6.32813e-10
4.08516e-08
5.97366e-10
4.08151e-08
5.61212e-10
4.07789e-08
5.24595e-10
4.0743e-08
4.87838e-10
4.07074e-08
4.51341e-10
4.06721e-08
4.15571e-10
4.06373e-08
3.81034e-10
4.06029e-08
3.48235e-10
4.0569e-08
3.17637e-10
4.05358e-08
2.89613e-10
4.05033e-08
2.64429e-10
4.04717e-08
2.42246e-10
4.04409e-08
2.23136e-10
4.0411e-08
2.07098e-10
4.03823e-08
1.94012e-10
4.03552e-08
1.83345e-10
1.72545e-10
4.16538e-08
1.99286e-09
-4.15855e-08
4.17399e-08
2.156e-09
4.18384e-08
2.29697e-09
4.1944e-08
2.41114e-09
4.20521e-08
2.49715e-09
4.2159e-08
2.55569e-09
4.22618e-08
2.58851e-09
4.23581e-08
2.59807e-09
4.24462e-08
2.58743e-09
4.25252e-08
2.56009e-09
4.25946e-08
2.51963e-09
4.26545e-08
2.46956e-09
4.27053e-08
2.41305e-09
4.27479e-08
2.35288e-09
4.2783e-08
2.29136e-09
4.28117e-08
2.23026e-09
4.2835e-08
2.17088e-09
4.28537e-08
2.11411e-09
4.28686e-08
2.06047e-09
4.28805e-08
2.0102e-09
4.28899e-08
1.96334e-09
4.28973e-08
1.9198e-09
4.29031e-08
1.87939e-09
4.29076e-08
1.84188e-09
4.2911e-08
1.80703e-09
4.29135e-08
1.77459e-09
4.29151e-08
1.74432e-09
4.29161e-08
1.716e-09
4.29165e-08
1.68943e-09
4.29163e-08
1.66444e-09
4.29157e-08
1.64088e-09
4.29145e-08
1.61859e-09
4.29129e-08
1.59745e-09
4.29108e-08
1.57736e-09
4.29083e-08
1.5582e-09
4.29054e-08
1.53989e-09
4.29021e-08
1.52234e-09
4.28984e-08
1.50548e-09
4.28942e-08
1.48924e-09
4.28896e-08
1.47354e-09
4.28846e-08
1.45834e-09
4.28791e-08
1.44356e-09
4.28732e-08
1.42916e-09
4.28668e-08
1.41508e-09
4.28599e-08
1.40128e-09
4.28525e-08
1.38771e-09
4.28447e-08
1.37431e-09
4.28363e-08
1.36106e-09
4.28275e-08
1.3479e-09
4.28181e-08
1.3348e-09
4.28081e-08
1.32171e-09
4.27976e-08
1.30859e-09
4.27865e-08
1.29541e-09
4.27749e-08
1.28211e-09
4.27627e-08
1.26867e-09
4.27499e-08
1.25504e-09
4.27365e-08
1.24118e-09
4.27225e-08
1.22705e-09
4.27079e-08
1.2126e-09
4.26928e-08
1.1978e-09
4.2677e-08
1.18261e-09
4.26606e-08
1.16697e-09
4.26436e-08
1.15085e-09
4.2626e-08
1.1342e-09
4.26078e-08
1.11697e-09
4.25891e-08
1.09911e-09
4.25698e-08
1.08059e-09
4.25499e-08
1.06135e-09
4.25295e-08
1.04134e-09
4.25086e-08
1.02052e-09
4.24871e-08
9.98841e-10
4.24652e-08
9.76258e-10
4.24428e-08
9.52727e-10
4.24199e-08
9.28206e-10
4.23967e-08
9.02656e-10
4.2373e-08
8.76042e-10
4.2349e-08
8.48334e-10
4.23246e-08
8.19507e-10
4.22999e-08
7.89547e-10
4.22749e-08
7.58452e-10
4.22496e-08
7.26237e-10
4.2224e-08
6.92944e-10
4.21982e-08
6.58648e-10
4.21721e-08
6.23469e-10
4.21457e-08
5.87584e-10
4.21191e-08
5.51237e-10
4.20922e-08
5.14745e-10
4.2065e-08
4.78497e-10
4.20376e-08
4.42941e-10
4.20101e-08
4.0856e-10
4.19825e-08
3.75837e-10
4.19549e-08
3.45213e-10
4.19275e-08
3.17053e-10
4.19003e-08
2.91622e-10
4.18735e-08
2.69081e-10
4.18471e-08
2.49506e-10
4.18213e-08
2.32876e-10
4.17963e-08
2.1901e-10
4.17724e-08
2.0727e-10
1.95254e-10
4.24526e-08
1.92964e-09
-4.23894e-08
4.25312e-08
2.07736e-09
4.26213e-08
2.20693e-09
4.27183e-08
2.31412e-09
4.28183e-08
2.39714e-09
4.2918e-08
2.45603e-09
4.30145e-08
2.49195e-09
4.31058e-08
2.50681e-09
4.31901e-08
2.5031e-09
4.32665e-08
2.48374e-09
4.33343e-08
2.45178e-09
4.33936e-08
2.41026e-09
4.34446e-08
2.36202e-09
4.3488e-08
2.30955e-09
4.35243e-08
2.25499e-09
4.35546e-08
2.20002e-09
4.35795e-08
2.14594e-09
4.36e-08
2.09365e-09
4.36167e-08
2.04375e-09
4.36303e-08
1.99657e-09
4.36414e-08
1.95224e-09
4.36505e-08
1.91077e-09
4.36578e-08
1.87205e-09