/*--------------------------------*- C++ -*----------------------------------*\
| =========                 |                                                 |
| \\      /  F ield         | OpenFOAM: The Open Source CFD Toolbox           |
|  \\    /   O peration     | Version:  2.3.0                                 |
|   \\  /    A nd           | Web:      www.OpenFOAM.org                      |
|    \\/     M anipulation  |                                                 |
\*---------------------------------------------------------------------------*/
FoamFile
{
    version     2.0;
    format      ascii;
    class       volVectorField;
    location    "0.55";
    object      U;
}
// * * * * * * * * * * * * * * * * * * * * * * * * * * * * * * * * * * * * * //

dimensions      [0 1 -1 0 0 0 0];

internalField   nonuniform List<vector> 
3105
(
(0.1768 0.00434419 0)
(0.156091 0.00594945 0)
(0.137395 0.00612129 0)
(0.11926 0.00553022 0)
(0.101771 0.00473121 0)
(0.0857262 0.00384832 0)
(0.0721645 0.00288932 0)
(0.0615048 0.00187653 0)
(0.053576 0.000988362 0)
(0.0478533 0.000380577 0)
(0.0437707 5.37393e-05 0)
(0.0408543 -8.08374e-05 0)
(0.0387229 -0.000107234 0)
(0.0370914 -8.25486e-05 0)
(0.0357564 -3.90731e-05 0)
(0.0345888 4.10925e-06 0)
(0.0335173 3.7566e-05 0)
(0.0325091 5.91531e-05 0)
(0.031553 7.05849e-05 0)
(0.0306474 7.4766e-05 0)
(0.0297933 7.44111e-05 0)
(0.028991 7.15787e-05 0)
(0.0282397 6.76277e-05 0)
(0.0275368 6.3361e-05 0)
(0.0268792 5.92052e-05 0)
(0.026263 5.53462e-05 0)
(0.0256845 5.18391e-05 0)
(0.0251399 4.86722e-05 0)
(0.0246261 4.58124e-05 0)
(0.02414 4.32179e-05 0)
(0.0236792 4.08513e-05 0)
(0.0232414 3.86802e-05 0)
(0.0228248 3.66758e-05 0)
(0.0224276 3.48199e-05 0)
(0.0220485 3.30897e-05 0)
(0.0216861 3.14786e-05 0)
(0.0213394 2.99661e-05 0)
(0.0210072 2.85531e-05 0)
(0.0206887 2.72205e-05 0)
(0.0203831 2.59727e-05 0)
(0.0200896 2.47935e-05 0)
(0.0198075 2.36862e-05 0)
(0.0195362 2.26399e-05 0)
(0.019275 2.16532e-05 0)
(0.0190236 2.07224e-05 0)
(0.0187812 1.984e-05 0)
(0.0185476 1.90087e-05 0)
(0.018322 1.8218e-05 0)
(0.0181045 1.74714e-05 0)
(0.0178943 1.67618e-05 0)
(0.0176913 1.60866e-05 0)
(0.017495 1.54488e-05 0)
(0.0173054 1.48342e-05 0)
(0.0171218 1.42591e-05 0)
(0.0169444 1.3698e-05 0)
(0.0167725 1.31759e-05 0)
(0.0166064 1.26631e-05 0)
(0.0164453 1.21858e-05 0)
(0.0162897 1.17163e-05 0)
(0.0161386 1.12782e-05 0)
(0.0159928 1.08453e-05 0)
(0.0158511 1.04436e-05 0)
(0.0157144 1.00401e-05 0)
(0.0155814 9.67351e-06 0)
(0.0154534 9.29264e-06 0)
(0.0153287 8.95897e-06 0)
(0.0152089 8.59826e-06 0)
(0.0150921 8.29317e-06 0)
(0.0149801 7.95147e-06 0)
(0.0148706 7.6707e-06 0)
(0.0147662 7.34613e-06 0)
(0.0146638 7.08921e-06 0)
(0.0145667 6.77436e-06 0)
(0.0144711 6.54388e-06 0)
(0.014381 6.23527e-06 0)
(0.0142918 6.03122e-06 0)
(0.0142086 5.72878e-06 0)
(0.0141257 5.54848e-06 0)
(0.0140492 5.25358e-06 0)
(0.0139722 5.09353e-06 0)
(0.0139023 4.80502e-06 0)
(0.013831 4.66344e-06 0)
(0.0137677 4.37844e-06 0)
(0.0137018 4.26746e-06 0)
(0.0136448 3.97865e-06 0)
(0.013584 3.89745e-06 0)
(0.0135333 3.61092e-06 0)
(0.0134772 3.55748e-06 0)
(0.0134327 3.2748e-06 0)
(0.0133809 3.24777e-06 0)
(0.0133422 2.97112e-06 0)
(0.0132942 2.99111e-06 0)
(0.0132612 2.69407e-06 0)
(0.0132163 2.79231e-06 0)
(0.0131885 2.46974e-06 0)
(0.0131455 2.6687e-06 0)
(0.0131226 2.29802e-06 0)
(0.0130797 2.64218e-06 0)
(0.0130625 2.12027e-06 0)
(0.0130146 2.85283e-06 0)
(0.192278 0.00771188 0)
(0.190401 0.0107976 0)
(0.187824 0.0118832 0)
(0.183966 0.0117265 0)
(0.178529 0.0110931 0)
(0.171692 0.0102042 0)
(0.164069 0.00905811 0)
(0.156151 0.00765047 0)
(0.148324 0.0061319 0)
(0.140819 0.00472034 0)
(0.13377 0.00355827 0)
(0.127276 0.00267698 0)
(0.121382 0.00204244 0)
(0.116095 0.00160782 0)
(0.111371 0.00132147 0)
(0.10714 0.00113458 0)
(0.10333 0.0010081 0)
(0.0998753 0.000915587 0)
(0.0967237 0.000841381 0)
(0.0938313 0.00077726 0)
(0.0911635 0.000719396 0)
(0.0886924 0.000666298 0)
(0.0863953 0.000617529 0)
(0.0842527 0.00057299 0)
(0.0822484 0.000532603 0)
(0.0803681 0.000496173 0)
(0.0785996 0.0004634 0)
(0.076932 0.000433907 0)
(0.0753561 0.000407308 0)
(0.0738634 0.000383227 0)
(0.0724469 0.000361329 0)
(0.0711002 0.000341322 0)
(0.0698179 0.000322953 0)
(0.0685949 0.000306026 0)
(0.0674272 0.000290355 0)
(0.0663105 0.00027582 0)
(0.0652418 0.000262275 0)
(0.0642175 0.000249652 0)
(0.0632353 0.000237832 0)
(0.0622922 0.000226775 0)
(0.0613862 0.000216387 0)
(0.0605148 0.000206637 0)
(0.0596766 0.000197457 0)
(0.0588691 0.000188808 0)
(0.0580914 0.000180655 0)
(0.0573411 0.000172944 0)
(0.0566178 0.000165665 0)
(0.0559192 0.00015876 0)
(0.055245 0.000152226 0)
(0.0545932 0.000146018 0)
(0.0539637 0.000140118 0)
(0.0533544 0.000134516 0)
(0.0527658 0.000129158 0)
(0.0521956 0.00012408 0)
(0.0516446 0.000119196 0)
(0.0511102 0.000114567 0)
(0.0505939 0.0001101 0)
(0.0500928 0.000105857 0)
(0.0496088 0.000101754 0)
(0.0491387 9.78485e-05 0)
(0.0486848 9.40616e-05 0)
(0.0482435 9.04559e-05 0)
(0.047818 8.69359e-05 0)
(0.0474039 8.36031e-05 0)
(0.0470053 8.03076e-05 0)
(0.0466168 7.72198e-05 0)
(0.0462437 7.41217e-05 0)
(0.0458795 7.12478e-05 0)
(0.0455309 6.8328e-05 0)
(0.0451898 6.56392e-05 0)
(0.0448647 6.28774e-05 0)
(0.0445457 6.03596e-05 0)
(0.0442435 5.77216e-05 0)
(0.0439458 5.53723e-05 0)
(0.0436658 5.28377e-05 0)
(0.0433885 5.06477e-05 0)
(0.0431304 4.82087e-05 0)
(0.0428726 4.61624e-05 0)
(0.042636 4.38181e-05 0)
(0.0423971 4.18992e-05 0)
(0.0421816 3.96425e-05 0)
(0.041961 3.78432e-05 0)
(0.0417665 3.56646e-05 0)
(0.0415632 3.40218e-05 0)
(0.0413895 3.18991e-05 0)
(0.0412028 3.0413e-05 0)
(0.0410496 2.83689e-05 0)
(0.0408785 2.70373e-05 0)
(0.0407455 2.50834e-05 0)
(0.0405888 2.3912e-05 0)
(0.0404756 2.20665e-05 0)
(0.0403318 2.11331e-05 0)
(0.0402377 1.93323e-05 0)
(0.0401047 1.87521e-05 0)
(0.040029 1.70156e-05 0)
(0.0399038 1.6866e-05 0)
(0.0398461 1.52166e-05 0)
(0.0397226 1.55748e-05 0)
(0.0396858 1.40372e-05 0)
(0.039551 1.50054e-05 0)
(0.193247 0.00742799 0)
(0.193605 0.0100267 0)
(0.194597 0.0116162 0)
(0.195642 0.0121293 0)
(0.196085 0.0120302 0)
(0.195599 0.0115951 0)
(0.194184 0.0108645 0)
(0.191962 0.00985952 0)
(0.189091 0.00868508 0)
(0.185734 0.00750528 0)
(0.182038 0.00645255 0)
(0.178151 0.00558139 0)
(0.174194 0.00488173 0)
(0.170266 0.0043252 0)
(0.166416 0.00387878 0)
(0.162668 0.00351283 0)
(0.159029 0.00320423 0)
(0.155505 0.00293699 0)
(0.152095 0.00270081 0)
(0.148801 0.00248936 0)
(0.145623 0.00229867 0)
(0.142562 0.00212621 0)
(0.139617 0.00197016 0)
(0.136787 0.0018291 0)
(0.13407 0.00170172 0)
(0.131462 0.00158675 0)
(0.128962 0.00148294 0)
(0.126564 0.00138906 0)
(0.124265 0.00130398 0)
(0.122059 0.00122665 0)
(0.119943 0.00115616 0)
(0.117911 0.00109167 0)
(0.115961 0.00103247 0)
(0.114086 0.000977963 0)
(0.112284 0.00092759 0)
(0.110549 0.000880939 0)
(0.10888 0.000837576 0)
(0.107272 0.000797221 0)
(0.105723 0.000759528 0)
(0.104228 0.000724301 0)
(0.102786 0.00069127 0)
(0.101393 0.000660281 0)
(0.100049 0.00063114 0)
(0.098749 0.000603695 0)
(0.097493 0.000577828 0)
(0.0962774 0.000553376 0)
(0.095102 0.000530283 0)
(0.0939633 0.000508384 0)
(0.0928617 0.00048765 0)
(0.0917937 0.000467945 0)
(0.0907599 0.000449221 0)
(0.0897568 0.00043141 0)
(0.0887857 0.000414413 0)
(0.0878427 0.000398239 0)
(0.0869298 0.00038274 0)
(0.0860424 0.000367974 0)
(0.0851837 0.000353788 0)
(0.0843484 0.000340237 0)
(0.0835404 0.000327197 0)
(0.0827537 0.000314704 0)
(0.0819935 0.000302659 0)
(0.0812525 0.0002911 0)
(0.0805376 0.000279909 0)
(0.0798398 0.000269184 0)
(0.0791679 0.000258725 0)
(0.0785111 0.00024874 0)
(0.0778803 0.000238925 0)
(0.0772625 0.000229583 0)
(0.0766714 0.000220344 0)
(0.0760909 0.000211563 0)
(0.0755382 0.000202834 0)
(0.0749935 0.000194558 0)
(0.0744783 0.000186253 0)
(0.073968 0.000178454 0)
(0.0734894 0.000170518 0)
(0.0730123 0.000163156 0)
(0.0725699 0.00015556 0)
(0.0721249 0.000148592 0)
(0.0717182 0.000141321 0)
(0.0713042 0.000134702 0)
(0.070933 0.000127738 0)
(0.0705489 0.000121449 0)
(0.0702131 0.000114773 0)
(0.0698576 0.000108873 0)
(0.0695572 0.000102446 0)
(0.0692291 9.69394e-05 0)
(0.0689638 9.08091e-05 0)
(0.0686617 8.56972e-05 0)
(0.0684313 7.98993e-05 0)
(0.0681533 7.52076e-05 0)
(0.0679575 6.98005e-05 0)
(0.0677011 6.56813e-05 0)
(0.0675395 6.06032e-05 0)
(0.0673014 5.72673e-05 0)
(0.0671737 5.26612e-05 0)
(0.0669481 5.01853e-05 0)
(0.0668553 4.63617e-05 0)
(0.0666323 4.46575e-05 0)
(0.0665794 4.22486e-05 0)
(0.0663413 4.1146e-05 0)
(0.194247 0.00700857 0)
(0.194576 0.0088756 0)
(0.195583 0.0103765 0)
(0.197123 0.0111318 0)
(0.198715 0.011286 0)
(0.19998 0.0110744 0)
(0.200757 0.0106042 0)
(0.201016 0.00992038 0)
(0.200776 0.00908842 0)
(0.200078 0.00821229 0)
(0.198986 0.00739396 0)
(0.197585 0.0066919 0)
(0.195964 0.0061157 0)
(0.1942 0.00564454 0)
(0.192339 0.0052524 0)
(0.190408 0.00491763 0)
(0.188421 0.00462409 0)
(0.186386 0.00436048 0)
(0.18431 0.00411914 0)
(0.182199 0.0038952 0)
(0.18006 0.00368566 0)
(0.177901 0.00348877 0)
(0.17573 0.00330355 0)
(0.173554 0.00312939 0)
(0.171381 0.00296585 0)
(0.169217 0.00281242 0)
(0.167068 0.00266864 0)
(0.164939 0.00253393 0)
(0.162835 0.00240773 0)
(0.160758 0.00228945 0)
(0.158712 0.00217856 0)
(0.1567 0.00207452 0)
(0.154723 0.00197682 0)
(0.152783 0.00188502 0)
(0.150882 0.00179866 0)
(0.149019 0.0017174 0)
(0.147196 0.00164082 0)
(0.145413 0.00156865 0)
(0.14367 0.00150051 0)
(0.141966 0.00143619 0)
(0.140303 0.00137536 0)
(0.138678 0.00131783 0)
(0.137094 0.00126336 0)
(0.135546 0.0012117 0)
(0.134037 0.00116275 0)
(0.132564 0.00111621 0)
(0.131128 0.00107204 0)
(0.129726 0.00102995 0)
(0.128361 0.000989945 0)
(0.127028 0.000951761 0)
(0.12573 0.000915365 0)
(0.124462 0.000880595 0)
(0.123228 0.000847346 0)
(0.122023 0.000815563 0)
(0.120851 0.000785078 0)
(0.119706 0.000755893 0)
(0.118593 0.000727849 0)
(0.117504 0.000700927 0)
(0.116448 0.000675036 0)
(0.115414 0.0006501 0)
(0.114412 0.00062609 0)
(0.11343 0.000602913 0)
(0.112481 0.000580537 0)
(0.111549 0.000558929 0)
(0.11065 0.000537967 0)
(0.109766 0.000517751 0)
(0.108917 0.000498044 0)
(0.10808 0.00047904 0)
(0.107279 0.000460456 0)
(0.106487 0.000442507 0)
(0.105733 0.000424926 0)
(0.104985 0.000407922 0)
(0.104278 0.000391192 0)
(0.103571 0.000375066 0)
(0.102911 0.000359087 0)
(0.102246 0.000343757 0)
(0.101632 0.000328471 0)
(0.101006 0.000313849 0)
(0.100439 0.000299233 0)
(0.0998518 0.000285234 0)
(0.0993306 0.000271248 0)
(0.0987814 0.000257838 0)
(0.098307 0.000244454 0)
(0.097794 0.000231711 0)
(0.0973667 0.000218874 0)
(0.0968885 0.000206807 0)
(0.0965087 0.000194604 0)
(0.0960633 0.000183206 0)
(0.0957315 0.000171717 0)
(0.0953166 0.000161031 0)
(0.095033 0.000150389 0)
(0.0946453 0.000140623 0)
(0.0944107 0.000130834 0)
(0.094045 0.000122234 0)
(0.0938608 0.000113713 0)
(0.0935089 0.000106229 0)
(0.0933785 9.97481e-05 0)
(0.0930273 9.31516e-05 0)
(0.0929573 8.97483e-05 0)
(0.0925874 8.43125e-05 0)
(0.195077 0.00671158 0)
(0.195392 0.00813145 0)
(0.196184 0.00941943 0)
(0.197469 0.010225 0)
(0.198976 0.0104985 0)
(0.200397 0.0103903 0)
(0.201559 0.0100365 0)
(0.20241 0.00951356 0)
(0.202948 0.00887615 0)
(0.203185 0.00819114 0)
(0.203148 0.00753133 0)
(0.20288 0.00694913 0)
(0.202438 0.00646305 0)
(0.201875 0.00606352 0)
(0.201227 0.00573118 0)
(0.200511 0.00544817 0)
(0.199737 0.00520079 0)
(0.198905 0.0049792 0)
(0.198015 0.00477638 0)
(0.197066 0.00458752 0)
(0.196061 0.00440941 0)
(0.194999 0.0042401 0)
(0.193886 0.00407842 0)
(0.192723 0.0039237 0)
(0.191516 0.00377555 0)
(0.190268 0.00363366 0)
(0.188984 0.00349779 0)
(0.187667 0.00336763 0)
(0.186322 0.00324293 0)
(0.184951 0.00312337 0)
(0.18356 0.00300873 0)
(0.182152 0.00289872 0)
(0.18073 0.00279314 0)
(0.179296 0.00269175 0)
(0.177856 0.00259436 0)
(0.176409 0.00250082 0)
(0.174962 0.00241091 0)
(0.173513 0.00232455 0)
(0.172068 0.00224151 0)
(0.170626 0.00216173 0)
(0.169192 0.00208502 0)
(0.167764 0.00201129 0)
(0.166349 0.00194044 0)
(0.164942 0.00187227 0)
(0.163551 0.0018068 0)
(0.16217 0.00174373 0)
(0.160807 0.00168319 0)
(0.159458 0.00162481 0)
(0.158127 0.00156875 0)
(0.156811 0.00151466 0)
(0.155516 0.00146266 0)
(0.154236 0.0014125 0)
(0.152978 0.00136418 0)
(0.151736 0.00131756 0)
(0.150518 0.00127258 0)
(0.149315 0.00122915 0)
(0.148138 0.00118722 0)
(0.146975 0.00114663 0)
(0.14584 0.00110746 0)
(0.144717 0.00106942 0)
(0.143624 0.00103272 0)
(0.142542 0.000996978 0)
(0.141492 0.000962462 0)
(0.140451 0.000928815 0)
(0.139446 0.000896226 0)
(0.138445 0.000864451 0)
(0.137484 0.000833599 0)
(0.136524 0.000803472 0)
(0.135607 0.000774205 0)
(0.134688 0.000745518 0)
(0.133817 0.000717683 0)
(0.132938 0.000690293 0)
(0.132113 0.000663693 0)
(0.131274 0.000637507 0)
(0.130496 0.000612014 0)
(0.129697 0.000586916 0)
(0.128966 0.000562462 0)
(0.128206 0.000538324 0)
(0.127524 0.000514892 0)
(0.126802 0.000491592 0)
(0.126171 0.000469128 0)
(0.125487 0.00044662 0)
(0.124907 0.000425103 0)
(0.12426 0.000403486 0)
(0.123733 0.000382852 0)
(0.123121 0.000362138 0)
(0.122648 0.000342544 0)
(0.122069 0.000322693 0)
(0.121653 0.000304305 0)
(0.121104 0.000285345 0)
(0.120746 0.000268444 0)
(0.120224 0.000250581 0)
(0.119926 0.000235323 0)
(0.119423 0.00021877 0)
(0.11919 0.000205928 0)
(0.118697 0.000190511 0)
(0.118534 0.000181218 0)
(0.118036 0.00016689 0)
(0.117951 0.000162176 0)
(0.11743 0.000150106 0)
(0.19576 0.00647321 0)
(0.196072 0.00762199 0)
(0.196731 0.00870338 0)
(0.197768 0.00947591 0)
(0.199039 0.00981915 0)
(0.200315 0.00979551 0)
(0.201433 0.00952674 0)
(0.202326 0.00910487 0)
(0.20299 0.00858779 0)
(0.203438 0.00802465 0)
(0.203692 0.00746766 0)
(0.203782 0.00696101 0)
(0.203749 0.00652703 0)
(0.203632 0.00616566 0)
(0.203463 0.00586454 0)
(0.203258 0.00560928 0)
(0.203025 0.00538776 0)
(0.202764 0.0051911 0)
(0.202472 0.00501284 0)
(0.202146 0.00484846 0)
(0.201785 0.00469475 0)
(0.201386 0.0045496 0)
(0.200949 0.00441159 0)
(0.200474 0.00427978 0)
(0.199962 0.00415358 0)
(0.199411 0.00403247 0)
(0.198826 0.00391613 0)
(0.198203 0.00380413 0)
(0.197548 0.00369621 0)
(0.196858 0.00359197 0)
(0.196137 0.0034912 0)
(0.195385 0.00339357 0)
(0.194605 0.00329891 0)
(0.193796 0.003207 0)
(0.192963 0.00311769 0)
(0.192103 0.00303083 0)
(0.191223 0.00294629 0)
(0.19032 0.00286401 0)
(0.189399 0.00278385 0)
(0.188458 0.00270576 0)
(0.187504 0.00262968 0)
(0.186532 0.00255551 0)
(0.18555 0.0024833 0)
(0.184553 0.00241283 0)
(0.183551 0.0023443 0)
(0.182536 0.00227734 0)
(0.181518 0.00221231 0)
(0.18049 0.0021487 0)
(0.179463 0.00208696 0)
(0.178427 0.00202656 0)
(0.177396 0.0019679 0)
(0.176358 0.00191055 0)
(0.175327 0.0018548 0)
(0.174291 0.00180031 0)
(0.173266 0.00174732 0)
(0.172235 0.00169548 0)
(0.171219 0.00164511 0)
(0.170198 0.00159571 0)
(0.169195 0.0015478 0)
(0.168187 0.00150065 0)
(0.167201 0.001455 0)
(0.166207 0.00140995 0)
(0.165241 0.00136636 0)
(0.164266 0.00132326 0)
(0.163322 0.00128154 0)
(0.162367 0.00124024 0)
(0.16145 0.00120025 0)
(0.160516 0.00116054 0)
(0.159627 0.00112217 0)
(0.158717 0.00108386 0)
(0.157859 0.001047 0)
(0.156974 0.00100996 0)
(0.15615 0.000974429 0)
(0.155291 0.000938607 0)
(0.154504 0.000904285 0)
(0.153672 0.000869554 0)
(0.152924 0.000836407 0)
(0.152119 0.000802629 0)
(0.151413 0.000770687 0)
(0.150636 0.000737729 0)
(0.149975 0.000706959 0)
(0.149226 0.000674777 0)
(0.148612 0.000645202 0)
(0.147892 0.000613925 0)
(0.147327 0.000585498 0)
(0.146634 0.000555134 0)
(0.146123 0.000528145 0)
(0.145454 0.00049859 0)
(0.145 0.000473352 0)
(0.144354 0.000444583 0)
(0.143961 0.000421591 0)
(0.143333 0.000393787 0)
(0.143005 0.000373355 0)
(0.142388 0.000346741 0)
(0.142131 0.000329928 0)
(0.141515 0.000304379 0)
(0.141336 0.000292437 0)
(0.140708 0.000268355 0)
(0.140616 0.000262151 0)
(0.139958 0.000241551 0)
(0.196345 0.00625827 0)
(0.196649 0.00721561 0)
(0.197214 0.00811988 0)
(0.198065 0.00881542 0)
(0.199121 0.00918616 0)
(0.200224 0.00923575 0)
(0.201233 0.00904824 0)
(0.202071 0.00871119 0)
(0.202721 0.00828613 0)
(0.203193 0.00781669 0)
(0.20351 0.00734198 0)
(0.203696 0.00689691 0)
(0.203783 0.00650392 0)
(0.203803 0.00616917 0)
(0.203784 0.0058867 0)
(0.203743 0.00564595 0)
(0.20369 0.00543667 0)
(0.203625 0.00525103 0)
(0.20355 0.00508332 0)
(0.203461 0.0049296 0)
(0.203356 0.00478704 0)
(0.203234 0.00465361 0)
(0.203095 0.00452789 0)
(0.202935 0.00440879 0)
(0.202758 0.00429563 0)
(0.202559 0.00418772 0)
(0.202341 0.00408468 0)
(0.202101 0.00398592 0)
(0.201841 0.0038912 0)
(0.201558 0.00379994 0)
(0.201256 0.00371197 0)
(0.20093 0.0036268 0)
(0.200585 0.00354431 0)
(0.200216 0.00346411 0)
(0.199828 0.0033861 0)
(0.199415 0.00331003 0)
(0.198986 0.0032358 0)
(0.198531 0.00316322 0)
(0.198061 0.00309224 0)
(0.197566 0.00302268 0)
(0.197056 0.00295456 0)
(0.196522 0.00288766 0)
(0.195975 0.00282215 0)
(0.195405 0.00275763 0)
(0.194824 0.00269453 0)
(0.194221 0.00263222 0)
(0.193608 0.00257137 0)
(0.192974 0.00251114 0)
(0.192333 0.00245238 0)
(0.191671 0.00239415 0)
(0.191006 0.00233731 0)
(0.190319 0.00228098 0)
(0.189633 0.00222595 0)
(0.188924 0.00217141 0)
(0.18822 0.00211812 0)
(0.187494 0.00206524 0)
(0.186776 0.00201366 0)
(0.186035 0.00196229 0)
(0.185307 0.00191237 0)
(0.184554 0.0018624 0)
(0.183819 0.00181402 0)
(0.183058 0.00176538 0)
(0.18232 0.0017184 0)
(0.181553 0.00167102 0)
(0.180817 0.00162531 0)
(0.180047 0.00157913 0)
(0.179315 0.00153466 0)
(0.178544 0.0014895 0)
(0.177821 0.00144624 0)
(0.177053 0.00140196 0)
(0.176341 0.00135985 0)
(0.175577 0.00131635 0)
(0.174882 0.00127525 0)
(0.174124 0.00123254 0)
(0.173449 0.00119242 0)
(0.172699 0.00115042 0)
(0.172047 0.00111129 0)
(0.171307 0.00106986 0)
(0.170683 0.00103182 0)
(0.169953 0.000990828 0)
(0.16936 0.000953907 0)
(0.168643 0.00091334 0)
(0.168085 0.000877673 0)
(0.16738 0.000837694 0)
(0.166862 0.000803282 0)
(0.166169 0.000763876 0)
(0.165695 0.000731172 0)
(0.165013 0.000692178 0)
(0.164588 0.000661673 0)
(0.163914 0.00062304 0)
(0.163544 0.000595456 0)
(0.162875 0.000557383 0)
(0.162564 0.000533113 0)
(0.161894 0.000495961 0)
(0.161651 0.000476179 0)
(0.160971 0.000440069 0)
(0.160802 0.000425993 0)
(0.160102 0.000391816 0)
(0.160016 0.000384282 0)
(0.159283 0.000354575 0)
(0.196855 0.00605467 0)
(0.197146 0.00686243 0)
(0.197639 0.00762067 0)
(0.198348 0.00822877 0)
(0.199226 0.00859612 0)
(0.20017 0.00869986 0)
(0.201065 0.00858646 0)
(0.201834 0.00832651 0)
(0.202448 0.00797969 0)
(0.20291 0.00758839 0)
(0.203239 0.00718507 0)
(0.203455 0.00679701 0)
(0.203586 0.00644413 0)
(0.203654 0.00613551 0)
(0.203686 0.00586999 0)
(0.203696 0.00564084 0)
(0.203697 0.00544002 0)
(0.203691 0.00526089 0)
(0.20368 0.00509854 0)
(0.203661 0.00494966 0)
(0.203637 0.00481186 0)
(0.203604 0.00468337 0)
(0.203565 0.0045629 0)
(0.203515 0.00444935 0)
(0.20346 0.00434204 0)
(0.203393 0.00424019 0)
(0.20332 0.00414345 0)
(0.203236 0.00405113 0)
(0.203144 0.00396308 0)
(0.203041 0.00387858 0)
(0.20293 0.0037976 0)
(0.202805 0.00371946 0)
(0.202673 0.0036442 0)
(0.202527 0.00357123 0)
(0.202373 0.0035006 0)
(0.202202 0.00343186 0)
(0.202025 0.00336506 0)
(0.20183 0.00329982 0)
(0.201628 0.00323621 0)
(0.201407 0.00317388 0)
(0.20118 0.00311299 0)
(0.200933 0.00305308 0)
(0.20068 0.00299453 0)
(0.200406 0.00293666 0)
(0.200127 0.00288017 0)
(0.199826 0.00282405 0)
(0.199521 0.00276939 0)
(0.199193 0.00271483 0)
(0.198863 0.00266176 0)
(0.198508 0.00260862 0)
(0.198154 0.00255692 0)
(0.197774 0.00250506 0)
(0.197396 0.00245454 0)
(0.19699 0.00240382 0)
(0.196591 0.00235439 0)
(0.196161 0.00230462 0)
(0.195742 0.00225626 0)
(0.195289 0.00220728 0)
(0.194852 0.00215994 0)
(0.194378 0.00211163 0)
(0.193924 0.00206521 0)
(0.19343 0.00201749 0)
(0.192963 0.00197184 0)
(0.192451 0.00192467 0)
(0.191973 0.00187965 0)
(0.191445 0.00183295 0)
(0.190958 0.00178858 0)
(0.190415 0.00174223 0)
(0.189924 0.00169854 0)
(0.189368 0.00165238 0)
(0.188874 0.00160936 0)
(0.188307 0.00156327 0)
(0.187815 0.00152075 0)
(0.187237 0.00147479 0)
(0.186751 0.00143279 0)
(0.186165 0.00138696 0)
(0.185688 0.00134559 0)
(0.185095 0.00129976 0)
(0.18463 0.00125917 0)
(0.184032 0.00121308 0)
(0.183584 0.00117335 0)
(0.182982 0.00112703 0)
(0.182555 0.00108846 0)
(0.181949 0.00104215 0)
(0.181548 0.00100479 0)
(0.180938 0.00095848 0)
(0.180567 0.000922855 0)
(0.179952 0.000876332 0)
(0.179616 0.000843085 0)
(0.178997 0.000796309 0)
(0.178702 0.000766411 0)
(0.178074 0.000719625 0)
(0.177826 0.000693433 0)
(0.177185 0.000647372 0)
(0.176991 0.000625925 0)
(0.176332 0.000581009 0)
(0.176197 0.000565471 0)
(0.175513 0.000522854 0)
(0.175445 0.000514497 0)
(0.174726 0.000477054 0)
(0.197304 0.00585829 0)
(0.197578 0.00654469 0)
(0.198011 0.00718522 0)
(0.19861 0.00771236 0)
(0.199347 0.00805995 0)
(0.20015 0.00819838 0)
(0.200935 0.00814748 0)
(0.201632 0.00795718 0)
(0.202207 0.00767966 0)
(0.202653 0.00735569 0)
(0.202982 0.00701476 0)
(0.203212 0.00667931 0)
(0.203366 0.00636607 0)
(0.203461 0.00608472 0)
(0.203519 0.00583721 0)
(0.203553 0.00562008 0)
(0.203576 0.00542767 0)
(0.203589 0.00525465 0)
(0.203599 0.00509692 0)
(0.203601 0.00495169 0)
(0.203601 0.00481698 0)
(0.203593 0.00469132 0)
(0.203582 0.00457358 0)
(0.203565 0.00446272 0)
(0.203546 0.00435811 0)
(0.20352 0.00425891 0)
(0.203493 0.00416486 0)
(0.203459 0.0040752 0)
(0.203425 0.00398989 0)
(0.203383 0.00390812 0)
(0.203341 0.00383004 0)
(0.203291 0.0037548 0)
(0.203241 0.00368264 0)
(0.203182 0.00361279 0)
(0.203123 0.00354551 0)
(0.203054 0.00348014 0)
(0.202986 0.00341692 0)
(0.202906 0.0033553 0)
(0.202828 0.00329551 0)
(0.202736 0.00323702 0)
(0.202646 0.00318016 0)
(0.202541 0.00312427 0)
(0.202439 0.00306995 0)
(0.20232 0.00301618 0)
(0.202205 0.00296407 0)
(0.202071 0.00291208 0)
(0.201942 0.00286189 0)
(0.201792 0.00281144 0)
(0.201648 0.00276287 0)
(0.201482 0.00271378 0)
(0.201323 0.00266654 0)
(0.201139 0.00261863 0)
(0.200965 0.00257247 0)
(0.200763 0.00252554 0)
(0.200574 0.0024803 0)
(0.200353 0.00243409 0)
(0.20015 0.00238972 0)
(0.19991 0.00234399 0)
(0.199692 0.00230044 0)
(0.199433 0.00225502 0)
(0.199201 0.00221214 0)
(0.198924 0.00216694 0)
(0.198679 0.00212454 0)
(0.198382 0.00207949 0)
(0.198125 0.00203736 0)
(0.19781 0.00199231 0)
(0.197543 0.00195045 0)
(0.19721 0.00190524 0)
(0.196934 0.00186375 0)
(0.196582 0.00181823 0)
(0.1963 0.00177713 0)
(0.195931 0.00173113 0)
(0.195643 0.00169009 0)
(0.195258 0.00164367 0)
(0.194968 0.00160271 0)
(0.194566 0.00155585 0)
(0.194277 0.00151517 0)
(0.19386 0.00146784 0)
(0.193574 0.00142776 0)
(0.193142 0.00137947 0)
(0.192861 0.00133994 0)
(0.192415 0.00129062 0)
(0.192145 0.00125212 0)
(0.191684 0.00120221 0)
(0.191427 0.00116473 0)
(0.190953 0.00111441 0)
(0.190712 0.00107847 0)
(0.190224 0.00102732 0)
(0.190004 0.000993688 0)
(0.189501 0.000941592 0)
(0.189307 0.000911594 0)
(0.188786 0.000858904 0)
(0.188623 0.000832431 0)
(0.188083 0.000780671 0)
(0.187955 0.000758638 0)
(0.187394 0.000708313 0)
(0.187303 0.000691978 0)
(0.186716 0.000643707 0)
(0.186672 0.000635107 0)
(0.186054 0.000592959 0)
(0.197698 0.00566864 0)
(0.197955 0.0062558 0)
(0.198337 0.00680214 0)
(0.198849 0.00725968 0)
(0.199473 0.00758092 0)
(0.200157 0.0077381 0)
(0.200841 0.00773596 0)
(0.201467 0.00760623 0)
(0.201999 0.00739046 0)
(0.202424 0.0071256 0)
(0.202749 0.00683931 0)
(0.202986 0.0065514 0)
(0.203155 0.0062761 0)
(0.203268 0.00602249 0)
(0.203346 0.00579416 0)
(0.203397 0.00559019 0)
(0.203434 0.00540709 0)
(0.203459 0.00524095 0)
(0.203479 0.00508846 0)
(0.203491 0.00494731 0)
(0.2035 0.00481587 0)
(0.203501 0.0046929 0)
(0.203501 0.00457749 0)
(0.203493 0.00446865 0)
(0.203485 0.00436589 0)
(0.203471 0.00426829 0)
(0.203458 0.00417577 0)
(0.203439 0.00408738 0)
(0.203421 0.00400335 0)
(0.203398 0.00392266 0)
(0.203377 0.00384574 0)
(0.203349 0.0037715 0)
(0.203326 0.0037005 0)
(0.203294 0.00363167 0)
(0.203268 0.00356559 0)
(0.203233 0.00350134 0)
(0.203204 0.00343941 0)
(0.203165 0.00337905 0)
(0.203132 0.00332068 0)
(0.203089 0.00326361 0)
(0.203053 0.00320836 0)
(0.203005 0.00315403 0)
(0.202964 0.00310153 0)
(0.202911 0.00304945 0)
(0.202866 0.00299939 0)
(0.202806 0.00294918 0)
(0.202756 0.00290126 0)
(0.202688 0.00285269 0)
(0.202633 0.00280657 0)
(0.202557 0.00275948 0)
(0.202496 0.00271483 0)
(0.202412 0.00266905 0)
(0.202344 0.00262556 0)
(0.20225 0.00258086 0)
(0.202175 0.00253838 0)
(0.20207 0.00249441 0)
(0.201989 0.00245291 0)
(0.201872 0.00240937 0)
(0.201783 0.00236874 0)
(0.201654 0.00232545 0)
(0.201558 0.00228554 0)
(0.201416 0.00224239 0)
(0.201312 0.0022029 0)
(0.201157 0.00215985 0)
(0.201046 0.00212057 0)
(0.200876 0.00207734 0)
(0.200758 0.00203823 0)
(0.200574 0.00199457 0)
(0.20045 0.00195577 0)
(0.20025 0.00191153 0)
(0.200121 0.00187311 0)
(0.199906 0.00182819 0)
(0.199771 0.00178959 0)
(0.19954 0.00174398 0)
(0.199402 0.00170517 0)
(0.199156 0.00165877 0)
(0.199015 0.00161998 0)
(0.198753 0.00157278 0)
(0.198612 0.00153473 0)
(0.198333 0.00148609 0)
(0.198193 0.00144846 0)
(0.197897 0.00139811 0)
(0.197761 0.00136132 0)
(0.197447 0.00131006 0)
(0.197317 0.00127391 0)
(0.196988 0.0012222 0)
(0.196863 0.0011874 0)
(0.196517 0.00113438 0)
(0.196402 0.00110182 0)
(0.196039 0.00104712 0)
(0.195938 0.00101847 0)
(0.195553 0.000962998 0)
(0.195468 0.00093692 0)
(0.195066 0.00088298 0)
(0.194998 0.000860835 0)
(0.194576 0.000808695 0)
(0.194527 0.000792405 0)
(0.194079 0.00074126 0)
(0.194058 0.000732548 0)
(0.193587 0.000689117 0)
(0.198046 0.00548636 0)
(0.198284 0.00599243 0)
(0.198623 0.00646276 0)
(0.199065 0.00686191 0)
(0.199597 0.00715542 0)
(0.200181 0.00731997 0)
(0.200776 0.00735324 0)
(0.201332 0.0072737 0)
(0.201821 0.00711202 0)
(0.202222 0.0068994 0)
(0.202539 0.00666129 0)
(0.202778 0.00641595 0)
(0.202957 0.00617602 0)
(0.203083 0.00594979 0)
(0.203176 0.00574143 0)
(0.20324 0.00555177 0)
(0.203289 0.00537905 0)
(0.203324 0.00522081 0)
(0.203353 0.00507446 0)
(0.203372 0.00493822 0)
(0.203387 0.00481069 0)
(0.203394 0.00469089 0)
(0.203399 0.0045781 0)
(0.203397 0.00447144 0)
(0.203394 0.00437055 0)
(0.203385 0.00427448 0)
(0.203377 0.00418333 0)
(0.203362 0.00409597 0)
(0.203351 0.00401292 0)
(0.203333 0.0039329 0)
(0.203319 0.00385669 0)
(0.203298 0.0037829 0)
(0.203282 0.00371242 0)
(0.203259 0.00364394 0)
(0.203242 0.00357827 0)
(0.203218 0.00351433 0)
(0.2032 0.00345274 0)
(0.203174 0.00339269 0)
(0.203156 0.00333467 0)
(0.203128 0.00327793 0)
(0.203109 0.00322309 0)
(0.20308 0.00316909 0)
(0.203061 0.00311714 0)
(0.20303 0.0030654 0)
(0.20301 0.00301606 0)
(0.202977 0.00296621 0)
(0.202957 0.00291917 0)
(0.202921 0.00287102 0)
(0.2029 0.0028259 0)
(0.20286 0.00277934 0)
(0.202839 0.00273577 0)
(0.202796 0.00269068 0)
(0.202773 0.00264836 0)
(0.202726 0.00260448 0)
(0.202701 0.0025633 0)
(0.202649 0.00252022 0)
(0.202622 0.00248018 0)
(0.202565 0.00243756 0)
(0.202536 0.00239855 0)
(0.202472 0.0023562 0)
(0.202442 0.00231801 0)
(0.202371 0.00227589 0)
(0.202338 0.00223817 0)
(0.20226 0.00219625 0)
(0.202224 0.00215882 0)
(0.202137 0.0021167 0)
(0.202099 0.00207955 0)
(0.202003 0.00203688 0)
(0.201962 0.00200011 0)
(0.201856 0.00195675 0)
(0.201814 0.00192045 0)
(0.201696 0.00187653 0)
(0.201652 0.00183992 0)
(0.201523 0.00179534 0)
(0.201476 0.00175838 0)
(0.201337 0.00171289 0)
(0.201287 0.00167583 0)
(0.201136 0.00162918 0)
(0.201087 0.00159334 0)
(0.200921 0.00154504 0)
(0.200872 0.00150964 0)
(0.200692 0.00145928 0)
(0.200644 0.00142442 0)
(0.20045 0.00137329 0)
(0.200403 0.0013385 0)
(0.200196 0.00128712 0)
(0.200149 0.00125374 0)
(0.199928 0.00120066 0)
(0.199885 0.00116969 0)
(0.199647 0.00111422 0)
(0.199611 0.00108728 0)
(0.199355 0.00103168 0)
(0.199324 0.00100584 0)
(0.199053 0.000952354 0)
(0.199027 0.000930102 0)
(0.198742 0.000878498 0)
(0.198723 0.000863159 0)
(0.198415 0.000811424 0)
(0.198409 0.000802253 0)
(0.198086 0.000759961 0)
(0.198352 0.00531219 0)
(0.198572 0.00575172 0)
(0.198874 0.00615997 0)
(0.199258 0.00651027 0)
(0.199715 0.00677711 0)
(0.200216 0.00694176 0)
(0.200732 0.00699925 0)
(0.201224 0.00695952 0)
(0.201668 0.00684397 0)
(0.202043 0.00667737 0)
(0.202348 0.00648204 0)
(0.202586 0.00627486 0)
(0.20277 0.00606747 0)
(0.202906 0.00586758 0)
(0.20301 0.00567947 0)
(0.203085 0.00550501 0)
(0.203144 0.00534368 0)
(0.203188 0.00519429 0)
(0.203224 0.00505493 0)
(0.203249 0.00492439 0)
(0.20327 0.00480147 0)
(0.203282 0.00468544 0)
(0.203292 0.00457574 0)
(0.203293 0.0044716 0)
(0.203295 0.00437288 0)
(0.203289 0.00427854 0)
(0.203284 0.00418892 0)
(0.203273 0.0041027 0)
(0.203265 0.00402073 0)
(0.20325 0.00394142 0)
(0.203239 0.0038659 0)
(0.203221 0.00379254 0)
(0.203208 0.00372248 0)
(0.203188 0.00365426 0)
(0.203175 0.00358879 0)
(0.203153 0.00352501 0)
(0.203139 0.00346347 0)
(0.203117 0.00340351 0)
(0.203103 0.00334546 0)
(0.203081 0.00328873 0)
(0.203067 0.00323388 0)
(0.203044 0.00317979 0)
(0.203031 0.00312791 0)
(0.203007 0.00307598 0)
(0.202995 0.00302682 0)
(0.202971 0.00297672 0)
(0.20296 0.00292994 0)
(0.202934 0.00288155 0)
(0.202924 0.00283671 0)
(0.202898 0.00279001 0)
(0.202889 0.0027467 0)
(0.202861 0.0027016 0)
(0.202853 0.00265955 0)
(0.202824 0.00261575 0)
(0.202817 0.00257494 0)
(0.202786 0.00253195 0)
(0.202779 0.00249244 0)
(0.202747 0.00244992 0)
(0.202741 0.00241157 0)
(0.202705 0.00236937 0)
(0.2027 0.00233189 0)
(0.202661 0.00229006 0)
(0.202656 0.00225305 0)
(0.202614 0.00221156 0)
(0.202609 0.00217496 0)
(0.202563 0.00213328 0)
(0.202558 0.00209715 0)
(0.202507 0.00205485 0)
(0.202503 0.00201922 0)
(0.202445 0.0019762 0)
(0.202442 0.00194106 0)
(0.202378 0.00189782 0)
(0.202375 0.00186222 0)
(0.202305 0.00181849 0)
(0.2023 0.00178258 0)
(0.202224 0.0017379 0)
(0.202218 0.001702 0)
(0.202134 0.00165567 0)
(0.20213 0.00162151 0)
(0.202036 0.00157359 0)
(0.202033 0.00153993 0)
(0.201928 0.00149 0)
(0.201925 0.00145642 0)
(0.201812 0.00140624 0)
(0.201807 0.00137219 0)
(0.201686 0.00132187 0)
(0.20168 0.00128958 0)
(0.201547 0.00123719 0)
(0.201543 0.00120771 0)
(0.201397 0.00115244 0)
(0.201396 0.00112677 0)
(0.201237 0.00107275 0)
(0.201234 0.00104678 0)
(0.201065 0.000995053 0)
(0.201061 0.000972625 0)
(0.200882 0.000922342 0)
(0.200881 0.000908475 0)