/*--------------------------------*- C++ -*----------------------------------*\
| =========                 |                                                 |
| \\      /  F ield         | OpenFOAM: The Open Source CFD Toolbox           |
|  \\    /   O peration     | Version:  2.3.0                                 |
|   \\  /    A nd           | Web:      www.OpenFOAM.org                      |
|    \\/     M anipulation  |                                                 |
\*---------------------------------------------------------------------------*/
FoamFile
{
    version     2.0;
    format      ascii;
    class       surfaceScalarField;
    location    "0.9";
    object      phi_0;
}
// * * * * * * * * * * * * * * * * * * * * * * * * * * * * * * * * * * * * * //

dimensions      [0 3 -1 0 0 0 0];

internalField   nonuniform List<scalar> 
6598
(
2.86377e-08
2.90244e-09
-3.15401e-08
2.57717e-08
2.866e-09
2.30853e-08
2.68645e-09
2.06092e-08
2.47606e-09
1.83597e-08
2.24951e-09
1.63472e-08
2.01247e-09
1.4574e-08
1.77327e-09
1.30344e-08
1.53952e-09
1.17168e-08
1.31764e-09
1.06039e-08
1.11288e-09
9.67478e-09
9.29131e-10
8.90612e-09
7.68663e-10
8.27398e-09
6.32131e-10
7.75524e-09
5.18748e-10
7.32861e-09
4.26623e-10
6.97546e-09
3.53155e-10
6.68003e-09
2.95424e-10
6.42952e-09
2.50514e-10
6.21378e-09
2.15737e-10
6.02502e-09
1.88767e-10
5.85733e-09
1.67687e-10
5.70635e-09
1.50984e-10
5.56884e-09
1.37501e-10
5.44246e-09
1.26384e-10
5.32544e-09
1.17016e-10
5.21649e-09
1.08958e-10
5.11458e-09
1.01904e-10
5.01894e-09
9.56415e-11
4.92892e-09
9.00224e-11
4.84398e-09
8.49409e-11
4.76366e-09
8.03199e-11
4.68756e-09
7.61012e-11
4.61532e-09
7.22385e-11
4.54662e-09
6.86939e-11
4.48119e-09
6.54347e-11
4.41876e-09
6.24327e-11
4.35909e-09
5.96626e-11
4.30199e-09
5.71021e-11
4.24726e-09
5.47308e-11
4.19473e-09
5.25307e-11
4.14425e-09
5.04855e-11
4.09566e-09
4.85807e-11
4.04886e-09
4.68031e-11
4.00372e-09
4.51412e-11
3.96014e-09
4.35845e-11
3.91801e-09
4.21236e-11
3.87726e-09
4.07504e-11
3.8378e-09
3.94573e-11
3.79957e-09
3.82377e-11
3.76248e-09
3.70856e-11
3.72649e-09
3.59956e-11
3.69152e-09
3.4963e-11
3.65754e-09
3.39833e-11
3.62449e-09
3.30526e-11
3.59232e-09
3.21674e-11
3.561e-09
3.13244e-11
3.53047e-09
3.05207e-11
3.50072e-09
2.97536e-11
3.4717e-09
2.90206e-11
3.44338e-09
2.83196e-11
3.41573e-09
2.76485e-11
3.38873e-09
2.70055e-11
3.36234e-09
2.63887e-11
3.33654e-09
2.57967e-11
3.31131e-09
2.5228e-11
3.28663e-09
2.46812e-11
3.26248e-09
2.41552e-11
3.23883e-09
2.36487e-11
3.21567e-09
2.31607e-11
3.19298e-09
2.26902e-11
3.17074e-09
2.22364e-11
3.14894e-09
2.17983e-11
3.12757e-09
2.13753e-11
3.1066e-09
2.09665e-11
3.08603e-09
2.05713e-11
3.06584e-09
2.0189e-11
3.04602e-09
1.98192e-11
3.02656e-09
1.94611e-11
3.00745e-09
1.91143e-11
2.98867e-09
1.87784e-11
2.97021e-09
1.84529e-11
2.95208e-09
1.81374e-11
2.93425e-09
1.78314e-11
2.91671e-09
1.75347e-11
2.89946e-09
1.72469e-11
2.8825e-09
1.69676e-11
2.8658e-09
1.66966e-11
2.84937e-09
1.64336e-11
2.83319e-09
1.61783e-11
2.81726e-09
1.59303e-11
2.80157e-09
1.56895e-11
2.78611e-09
1.54556e-11
2.77088e-09
1.52289e-11
2.75587e-09
1.50103e-11
2.74107e-09
1.48037e-11
2.72645e-09
1.46217e-11
2.71194e-09
1.45081e-11
2.69739e-09
1.45504e-11
2.68226e-09
1.51262e-11
4.25228e-11
3.43414e-08
3.1579e-09
-3.45969e-08
3.37732e-08
3.43423e-09
3.29743e-08
3.48535e-09
3.20195e-08
3.43089e-09
3.09639e-08
3.3051e-09
2.9853e-08
3.12331e-09
2.87238e-08
2.90251e-09
2.76045e-08
2.65887e-09
2.6516e-08
2.40611e-09
2.54732e-08
2.15565e-09
2.44858e-08
1.91654e-09
2.35591e-08
1.69533e-09
2.26953e-08
1.49598e-09
2.18939e-08
1.32017e-09
2.11528e-08
1.16771e-09
2.04688e-08
1.03714e-09
1.9838e-08
9.26196e-10
1.92563e-08
8.32257e-10
1.87193e-08
7.52695e-10
1.8223e-08
6.85064e-10
1.77635e-08
6.27222e-10
1.73371e-08
5.77362e-10
1.69406e-08
5.3401e-10
1.6571e-08
4.95989e-10
1.62256e-08
4.62366e-10
1.59022e-08
4.32415e-10
1.55985e-08
4.05564e-10
1.53128e-08
3.81361e-10
1.50434e-08
3.59447e-10
1.47888e-08
3.39531e-10
1.45477e-08
3.21374e-10
1.43191e-08
3.04773e-10
1.41017e-08
2.8956e-10
1.38949e-08
2.75585e-10
1.36976e-08
2.62722e-10
1.35091e-08
2.50857e-10
1.33289e-08
2.39892e-10
1.31563e-08
2.29738e-10
1.29907e-08
2.20317e-10
1.28317e-08
2.1156e-10
1.26787e-08
2.03404e-10
1.25315e-08
1.95795e-10
1.23896e-08
1.88683e-10
1.22528e-08
1.82024e-10
1.21206e-08
1.75778e-10
1.19928e-08
1.6991e-10
1.18691e-08
1.64389e-10
1.17494e-08
1.59186e-10
1.16334e-08
1.54275e-10
1.15208e-08
1.49633e-10
1.14116e-08
1.4524e-10
1.13055e-08
1.41077e-10
1.12023e-08
1.37126e-10
1.1102e-08
1.33372e-10
1.10044e-08
1.29801e-10
1.09093e-08
1.264e-10
1.08167e-08
1.23158e-10
1.07264e-08
1.20064e-10
1.06383e-08
1.17107e-10
1.05523e-08
1.1428e-10
1.04684e-08
1.11574e-10
1.03864e-08
1.08981e-10
1.03063e-08
1.06495e-10
1.0228e-08
1.04109e-10
1.01514e-08
1.01816e-10
1.00765e-08
9.96132e-11
1.00031e-08
9.74937e-11
9.93132e-09
9.54533e-11
9.861e-09
9.34878e-11
9.79209e-09
9.15931e-11
9.72457e-09
8.97655e-11
9.65836e-09
8.80016e-11
9.59344e-09
8.62983e-11
9.52975e-09
8.46524e-11
9.46726e-09
8.30613e-11
9.40593e-09
8.15224e-11
9.34572e-09
8.00333e-11
9.28658e-09
7.85916e-11
9.2285e-09
7.71955e-11
9.17144e-09
7.58427e-11
9.11536e-09
7.45317e-11
9.06024e-09
7.32606e-11
9.00604e-09
7.20278e-11
8.95274e-09
7.0832e-11
8.90032e-09
6.96716e-11
8.84874e-09
6.85454e-11
8.79799e-09
6.74521e-11
8.74803e-09
6.63905e-11
8.69885e-09
6.53595e-11
8.65042e-09
6.43579e-11
8.60272e-09
6.33847e-11
8.55574e-09
6.24391e-11
8.50945e-09
6.15216e-11
8.46382e-09
6.06352e-11
8.41884e-09
5.97922e-11
8.37442e-09
5.90339e-11
8.33044e-09
5.84908e-11
8.28641e-09
5.85784e-11
8.23766e-09
6.38818e-11
1.08093e-10
3.64349e-08
2.97444e-09
-3.62515e-08
3.65273e-08
3.34191e-09
3.64962e-08
3.51646e-09
3.63462e-08
3.58081e-09
3.60869e-08
3.5644e-09
3.57319e-08
3.4783e-09
3.52982e-08
3.33623e-09
3.48032e-08
3.15386e-09
3.42634e-08
2.94591e-09
3.36936e-08
2.72546e-09
3.31065e-08
2.50362e-09
3.25127e-08
2.28919e-09
3.19203e-08
2.08838e-09
3.13355e-08
1.90491e-09
3.07629e-08
1.74039e-09
3.02052e-08
1.59479e-09
2.96644e-08
1.46698e-09
2.91415e-08
1.35519e-09
2.86368e-08
1.25739e-09
2.81503e-08
1.17155e-09
2.76818e-08
1.09577e-09
2.72307e-08
1.02843e-09
2.67966e-08
9.68139e-10
2.63788e-08
9.13773e-10
2.59767e-08
8.64426e-10
2.55898e-08
8.19378e-10
2.52173e-08
7.78053e-10
2.48586e-08
7.39993e-10
2.45133e-08
7.04828e-10
2.41805e-08
6.72252e-10
2.38599e-08
6.4201e-10
2.35508e-08
6.13884e-10
2.32527e-08
5.87687e-10
2.2965e-08
5.63252e-10
2.26873e-08
5.40432e-10
2.24191e-08
5.19095e-10
2.21598e-08
4.99119e-10
2.19092e-08
4.80397e-10
2.16667e-08
4.6283e-10
2.14319e-08
4.46327e-10
2.12045e-08
4.30806e-10
2.09841e-08
4.16192e-10
2.07704e-08
4.02416e-10
2.0563e-08
3.89415e-10
2.03616e-08
3.77132e-10
2.0166e-08
3.65514e-10
1.99759e-08
3.54513e-10
1.9791e-08
3.44085e-10
1.96111e-08
3.34189e-10
1.94359e-08
3.24788e-10
1.92653e-08
3.15849e-10
1.9099e-08
3.07341e-10
1.89369e-08
2.99233e-10
1.87788e-08
2.91501e-10
1.86245e-08
2.84119e-10
1.84738e-08
2.77066e-10
1.83267e-08
2.7032e-10
1.81829e-08
2.63863e-10
1.80423e-08
2.57677e-10
1.79048e-08
2.51745e-10
1.77703e-08
2.46054e-10
1.76387e-08
2.40588e-10
1.75099e-08
2.35335e-10
1.73837e-08
2.30283e-10
1.72601e-08
2.2542e-10
1.7139e-08
2.20737e-10
1.70203e-08
2.16224e-10
1.69039e-08
2.11872e-10
1.67897e-08
2.07673e-10
1.66776e-08
2.03618e-10
1.65677e-08
1.99701e-10
1.64598e-08
1.95915e-10
1.63538e-08
1.92254e-10
1.62498e-08
1.88711e-10
1.61476e-08
1.85282e-10
1.60471e-08
1.81961e-10
1.59484e-08
1.78744e-10
1.58514e-08
1.75625e-10
1.5756e-08
1.726e-10
1.56621e-08
1.69667e-10
1.55699e-08
1.66821e-10
1.54791e-08
1.64058e-10
1.53897e-08
1.61375e-10
1.53018e-08
1.5877e-10
1.52152e-08
1.56239e-10
1.513e-08
1.5378e-10
1.5046e-08
1.5139e-10
1.49634e-08
1.49067e-10
1.48819e-08
1.46809e-10
1.48017e-08
1.44612e-10
1.47226e-08
1.42476e-10
1.46446e-08
1.40398e-10
1.45677e-08
1.38379e-10
1.4492e-08
1.36425e-10
1.44172e-08
1.34559e-10
1.43434e-08
1.32859e-10
1.42703e-08
1.31582e-10
1.41971e-08
1.31776e-10
1.412e-08
1.40993e-10
1.86344e-10
3.80068e-08
2.75183e-09
-3.77842e-08
3.82312e-08
3.11754e-09
3.84166e-08
3.33104e-09
3.85513e-08
3.44606e-09
3.86282e-08
3.48755e-09
3.86427e-08
3.46379e-09
3.85949e-08
3.38403e-09
3.84884e-08
3.26039e-09
3.83289e-08
3.10535e-09
3.81237e-08
2.93065e-09
3.78806e-08
2.74679e-09
3.76072e-08
2.5626e-09
3.73107e-08
2.38487e-09
3.69974e-08
2.21819e-09
3.66726e-08
2.06521e-09
3.63404e-08
1.92695e-09
3.60042e-08
1.80323e-09
3.56663e-08
1.69308e-09
3.53285e-08
1.59515e-09
3.49922e-08
1.50787e-09
3.46582e-08
1.42974e-09
3.43273e-08
1.35937e-09
3.39999e-08
1.29557e-09
3.36763e-08
1.23732e-09
3.33569e-08
1.18382e-09
3.30419e-08
1.13438e-09
3.27315e-08
1.08848e-09
3.24258e-08
1.0457e-09
3.21249e-08
1.0057e-09
3.1829e-08
9.6819e-10
3.1538e-08
9.32945e-10
3.12521e-08
8.9977e-10
3.09713e-08
8.68495e-10
3.06956e-08
8.38975e-10
3.0425e-08
8.11079e-10
3.01594e-08
7.8469e-10
2.98988e-08
7.59702e-10
2.96432e-08
7.36018e-10
2.93924e-08
7.13549e-10
2.91466e-08
6.92216e-10
2.89054e-08
6.71941e-10
2.8669e-08
6.52658e-10
2.84371e-08
6.34301e-10
2.82097e-08
6.16812e-10
2.79867e-08
6.00136e-10
2.7768e-08
5.84223e-10
2.75535e-08
5.69026e-10
2.7343e-08
5.54502e-10
2.71366e-08
5.4061e-10
2.69341e-08
5.27312e-10
2.67354e-08
5.14575e-10
2.65403e-08
5.02365e-10
2.63489e-08
4.90653e-10
2.6161e-08
4.7941e-10
2.59765e-08
4.6861e-10
2.57954e-08
4.58229e-10
2.56174e-08
4.48245e-10
2.54427e-08
4.38635e-10
2.5271e-08
4.2938e-10
2.51022e-08
4.20462e-10
2.49364e-08
4.11862e-10
2.47735e-08
4.03565e-10
2.46132e-08
3.95556e-10
2.44557e-08
3.87821e-10
2.43008e-08
3.80345e-10
2.41484e-08
3.73116e-10
2.39985e-08
3.66124e-10
2.3851e-08
3.59356e-10
2.37059e-08
3.52802e-10
2.3563e-08
3.46453e-10
2.34224e-08
3.40299e-10
2.3284e-08
3.34333e-10
2.31477e-08
3.28545e-10
2.30135e-08
3.22928e-10
2.28813e-08
3.17475e-10
2.27511e-08
3.1218e-10
2.26228e-08
3.07036e-10
2.24964e-08
3.02036e-10
2.23718e-08
2.97176e-10
2.2249e-08
2.92451e-10
2.2128e-08
2.87854e-10
2.20087e-08
2.83382e-10
2.1891e-08
2.7903e-10
2.1775e-08
2.74794e-10
2.16606e-08
2.7067e-10
2.15477e-08
2.66655e-10
2.14363e-08
2.62745e-10
2.13265e-08
2.58936e-10
2.12181e-08
2.55225e-10
2.11111e-08
2.51609e-10
2.10055e-08
2.48085e-10
2.09012e-08
2.44651e-10
2.07983e-08
2.41309e-10
2.06966e-08
2.38065e-10
2.05962e-08
2.34956e-10
2.0497e-08
2.32096e-10
2.03987e-08
2.29871e-10
2.03006e-08
2.2986e-10
2.02019e-08
2.39722e-10
2.75603e-10
3.95407e-08
2.55453e-09
-3.93434e-08
3.97676e-08
2.89066e-09
3.99896e-08
3.10901e-09
4.01949e-08
3.24084e-09
4.03756e-08
3.30684e-09
4.05244e-08
3.31498e-09
4.06361e-08
3.27229e-09
4.07084e-08
3.18813e-09
4.0741e-08
3.07271e-09
4.07358e-08
2.93589e-09
4.06958e-08
2.78675e-09
4.06252e-08
2.6332e-09
4.05284e-08
2.48163e-09
4.04099e-08
2.33669e-09
4.02738e-08
2.20137e-09
4.01235e-08
2.07723e-09
3.9962e-08
1.96468e-09
3.97918e-08
1.86337e-09
3.96145e-08
1.77243e-09
3.94316e-08
1.69075e-09
3.92442e-08
1.61716e-09
3.9053e-08
1.55052e-09
3.88588e-08
1.48981e-09
3.86619e-08
1.43416e-09
3.84629e-08
1.38283e-09
3.82621e-08
1.33521e-09
3.80598e-08
1.29081e-09
3.78562e-08
1.24923e-09
3.76518e-08
1.21017e-09
3.74466e-08
1.17334e-09
3.7241e-08
1.13855e-09
3.70352e-08
1.10561e-09
3.68293e-08
1.07437e-09
3.66236e-08
1.0447e-09
3.64182e-08
1.01647e-09
3.62133e-08
9.8959e-10
3.6009e-08
9.63962e-10
3.58055e-08
9.39504e-10
3.56029e-08
9.16138e-10
3.54013e-08
8.93794e-10
3.52009e-08
8.72409e-10
3.50016e-08
8.51923e-10
3.48036e-08
8.32281e-10
3.4607e-08
8.13433e-10
3.44118e-08
7.95332e-10
3.42181e-08
7.77936e-10
3.40259e-08
7.61205e-10
3.38353e-08
7.45102e-10
3.36463e-08
7.29591e-10
3.3459e-08
7.14642e-10
3.32734e-08
7.00225e-10
3.30894e-08
6.86311e-10
3.29072e-08
6.72875e-10
3.27267e-08
6.59893e-10
3.2548e-08
6.47343e-10
3.2371e-08
6.35202e-10
3.21958e-08
6.23452e-10
3.20224e-08
6.12074e-10
3.18507e-08
6.01051e-10
3.16808e-08
5.90366e-10
3.15126e-08
5.80004e-10
3.13463e-08
5.6995e-10
3.11816e-08
5.60192e-10
3.10187e-08
5.50716e-10
3.08576e-08
5.4151e-10
3.06981e-08
5.32564e-10
3.05404e-08
5.23865e-10
3.03843e-08
5.15406e-10
3.02299e-08
5.07175e-10
3.00772e-08
4.99164e-10
2.99262e-08
4.91364e-10
2.97767e-08
4.83768e-10
2.96289e-08
4.76367e-10
2.94827e-08
4.69156e-10
2.9338e-08
4.62126e-10
2.91949e-08
4.55272e-10
2.90534e-08
4.48587e-10
2.89134e-08
4.42066e-10
2.87748e-08
4.35703e-10
2.86378e-08
4.29494e-10
2.85022e-08
4.23432e-10
2.83681e-08
4.17515e-10
2.82354e-08
4.11737e-10
2.81041e-08
4.06095e-10
2.79742e-08
4.00585e-10
2.78456e-08
3.95202e-10
2.77184e-08
3.89944e-10
2.75925e-08
3.84807e-10
2.7468e-08
3.79788e-10
2.73447e-08
3.74883e-10
2.72227e-08
3.7009e-10
2.71019e-08
3.65405e-10
2.69824e-08
3.60832e-10
2.68641e-08
3.56382e-10
2.6747e-08
3.52096e-10
2.66309e-08
3.48115e-10
2.65159e-08
3.44899e-10
2.64017e-08
3.44111e-10
2.62899e-08
3.51525e-10
3.71974e-10
4.1115e-08
2.38438e-09
-4.09448e-08
4.13213e-08
2.68435e-09
4.15356e-08
2.89471e-09
4.17459e-08
3.03047e-09
4.19458e-08
3.10696e-09
4.2129e-08
3.13184e-09
4.22902e-08
3.1111e-09
4.2426e-08
3.05232e-09
4.25347e-08
2.964e-09
4.2616e-08
2.85454e-09
4.2671e-08
2.73175e-09
4.27017e-08
2.60256e-09
4.27106e-08
2.47273e-09
4.27006e-08
2.34665e-09
4.26746e-08
2.22735e-09
4.26353e-08
2.11659e-09
4.25848e-08
2.01516e-09
4.25251e-08
1.92308e-09
4.24576e-08
1.83988e-09
4.23836e-08
1.76479e-09
4.23038e-08
1.69691e-09
4.2219e-08
1.63533e-09
4.21297e-08
1.57919e-09
4.20361e-08
1.52774e-09
4.19386e-08
1.4803e-09
4.18375e-08
1.43633e-09
4.17329e-08
1.39537e-09
4.16251e-08
1.35704e-09
4.15142e-08
1.32104e-09
4.14005e-08
1.28712e-09
4.1284e-08
1.25506e-09
4.11649e-08
1.22469e-09
4.10434e-08
1.19586e-09
4.09197e-08
1.16845e-09
4.07938e-08
1.14234e-09
4.0666e-08
1.11743e-09
4.05363e-08
1.09363e-09
4.04049e-08
1.07088e-09
4.0272e-08
1.04908e-09
4.01376e-08
1.02818e-09
4.00019e-08
1.00812e-09
3.98649e-08
9.88849e-10
3.97269e-08
9.70308e-10
3.95879e-08
9.52455e-10
3.9448e-08
9.35247e-10
3.93073e-08
9.18646e-10
3.91659e-08
9.02617e-10
3.90238e-08
8.87124e-10
3.88813e-08
8.7214e-10
3.87383e-08
8.57634e-10
3.85949e-08
8.43582e-10
3.84513e-08
8.29958e-10
3.83074e-08
8.16741e-10
3.81634e-08
8.0391e-10
3.80193e-08
7.91445e-10
3.78752e-08
7.79329e-10
3.77311e-08
7.67544e-10
3.75871e-08
7.56076e-10
3.74432e-08
7.4491e-10
3.72996e-08
7.34032e-10
3.71561e-08
7.2343e-10
3.7013e-08
7.13092e-10
3.68702e-08
7.03008e-10
3.67277e-08
6.93165e-10
3.65857e-08
6.83556e-10
3.64441e-08
6.74171e-10
3.63029e-08
6.65002e-10
3.61623e-08
6.56039e-10
3.60222e-08
6.47277e-10
3.58827e-08
6.38708e-10
3.57437e-08
6.30326e-10
3.56053e-08
6.22123e-10
3.54676e-08
6.14095e-10
3.53305e-08
6.06235e-10
3.51941e-08
5.98538e-10
3.50584e-08
5.91e-10
3.49234e-08
5.83616e-10
3.4789e-08
5.76382e-10
3.46555e-08
5.69292e-10
3.45226e-08
5.62345e-10
3.43905e-08
5.55535e-10
3.42592e-08
5.48859e-10
3.41286e-08
5.42315e-10
3.39988e-08
5.35899e-10
3.38697e-08
5.29609e-10
3.37415e-08
5.23441e-10
3.36141e-08
5.17394e-10
3.34874e-08
5.11464e-10
3.33615e-08
5.05649e-10
3.32365e-08
4.99946e-10
3.31122e-08
4.94354e-10
3.29888e-08
4.8887e-10
3.28661e-08
4.83497e-10
3.27442e-08
4.78248e-10
3.26232e-08
4.73167e-10
3.25029e-08
4.68395e-10
3.23834e-08
4.64361e-10
3.22652e-08
4.62365e-10
3.21513e-08
4.65421e-10
4.68926e-10
4.27421e-08
2.23497e-09
-4.25927e-08
4.29271e-08
2.49933e-09
4.31256e-08
2.69625e-09
4.33256e-08
2.83043e-09
4.35208e-08
2.91177e-09
4.37058e-08
2.94685e-09
4.38761e-08
2.94087e-09
4.40283e-08
2.90007e-09
4.41607e-08
2.83158e-09
4.42726e-08
2.74262e-09
4.43644e-08
2.63998e-09
4.44372e-08
2.52976e-09
4.44928e-08
2.41713e-09
4.45333e-08
2.30618e-09
4.45608e-08
2.19983e-09
4.45774e-08
2.09998e-09
4.45849e-08
2.00764e-09
4.45849e-08
1.92311e-09
4.45786e-08
1.84622e-09
4.45669e-08
1.77648e-09
4.45506e-08
1.71323e-09
4.45301e-08
1.65575e-09
4.4506e-08
1.60335e-09
4.44783e-08
1.55537e-09
4.44474e-08
1.51122e-09
4.44133e-08
1.47041e-09
4.43762e-08
1.43251e-09
4.43361e-08
1.39717e-09
4.4293e-08
1.36408e-09
4.42471e-08
1.33301e-09
4.41984e-08
1.30375e-09
4.4147e-08
1.27611e-09
4.40929e-08
1.24996e-09
4.40362e-08
1.22516e-09
4.39769e-08
1.2016e-09
4.39152e-08
1.17918e-09
4.3851e-08
1.15781e-09
4.37845e-08
1.13741e-09
4.37156e-08
1.11791e-09
4.36446e-08
1.09925e-09
4.35713e-08
1.08135e-09
4.3496e-08
1.06418e-09
4.34186e-08
1.04767e-09
4.33393e-08
1.03179e-09
4.32581e-08
1.01648e-09
4.3175e-08
1.00172e-09
4.30902e-08
9.87461e-10
4.30036e-08
9.73676e-10
4.29154e-08
9.60335e-10
4.28256e-08
9.4741e-10
4.27343e-08
9.34874e-10
4.26416e-08
9.22705e-10
4.25475e-08
9.1088e-10
4.2452e-08
8.9938e-10
4.23552e-08
8.88186e-10
4.22573e-08
8.77281e-10
4.21582e-08
8.6665e-10
4.2058e-08
8.56277e-10
4.19568e-08
8.4615e-10
4.18545e-08
8.36256e-10
4.17514e-08
8.26583e-10
4.16473e-08
8.17121e-10
4.15425e-08
8.07861e-10
4.14369e-08
7.98792e-10
4.13305e-08
7.89907e-10
4.12235e-08
7.81197e-10
4.11158e-08
7.72656e-10
4.10076e-08
7.64277e-10
4.08988e-08
7.56053e-10
4.07895e-08
7.47979e-10
4.06798e-08
7.40049e-10
4.05697e-08
7.32259e-10
4.04592e-08
7.24603e-10
4.03483e-08
7.17078e-10
4.02372e-08
7.09679e-10
4.01258e-08
7.02403e-10
4.00142e-08
6.95247e-10
3.99023e-08
6.88206e-10
3.97904e-08
6.81279e-10
3.96782e-08
6.74463e-10
3.9566e-08
6.67755e-10
3.94537e-08
6.61153e-10
3.93414e-08
6.54655e-10
3.9229e-08
6.4826e-10
3.91167e-08
6.41965e-10
3.90043e-08
6.35769e-10
3.88921e-08
6.2967e-10
3.87799e-08
6.23668e-10
3.86677e-08
6.1776e-10
3.85557e-08
6.11944e-10
3.84439e-08
6.0622e-10
3.83322e-08
6.00586e-10
3.82206e-08
5.95044e-10
3.81093e-08
5.89606e-10
3.79981e-08
5.8431e-10
3.78872e-08
5.79267e-10
3.77768e-08
5.74775e-10
3.76677e-08
5.71503e-10
3.75634e-08
5.69756e-10
5.58676e-10
4.44249e-08
2.10083e-09
-4.42907e-08
4.45915e-08
2.33266e-09
4.4774e-08
2.51378e-09
4.49612e-08
2.64325e-09
4.51465e-08
2.72643e-09
4.53251e-08
2.76834e-09
4.54926e-08
2.77337e-09
4.5646e-08
2.74663e-09
4.57835e-08
2.69404e-09
4.59044e-08
2.62175e-09
4.60087e-08
2.53567e-09
4.60973e-08
2.44117e-09
4.61715e-08
2.34289e-09
4.62331e-08
2.24459e-09
4.62839e-08
2.14909e-09
4.63255e-08
2.05834e-09
4.63597e-08
1.9735e-09
4.63877e-08
1.89509e-09
4.64107e-08
1.82318e-09
4.64297e-08
1.75754e-09
4.64452e-08
1.69771e-09
4.64578e-08
1.64316e-09
4.64678e-08
1.59334e-09
4.64755e-08
1.5477e-09
4.64809e-08
1.50573e-09
4.64844e-08
1.46701e-09
4.64857e-08
1.43114e-09
4.64851e-08
1.39779e-09
4.64825e-08
1.36668e-09
4.64779e-08
1.33758e-09
4.64714e-08
1.31029e-09
4.64629e-08
1.28463e-09
4.64524e-08
1.26045e-09
4.64399e-08
1.23762e-09
4.64255e-08
1.21603e-09
4.64091e-08
1.19558e-09
4.63907e-08
1.17618e-09
4.63704e-08
1.15774e-09
4.63481e-08
1.1402e-09
4.63239e-08
1.12348e-09
4.62977e-08
1.10752e-09
4.62696e-08
1.09227e-09
4.62396e-08
1.07767e-09
4.62077e-08
1.06368e-09
4.6174e-08
1.05025e-09
4.61383e-08
1.03735e-09
4.61009e-08
1.02493e-09
4.60616e-08
1.01296e-09
4.60205e-08
1.00142e-09
4.59776e-08
9.90265e-10
4.5933e-08
9.79476e-10
4.58867e-08
9.69027e-10
4.58387e-08
9.58895e-10
4.5789e-08
9.49059e-10
4.57377e-08
9.395e-10
4.56848e-08
9.302e-10
4.56303e-08
9.21142e-10
4.55742e-08
9.12312e-10
4.55167e-08
9.03694e-10
4.54577e-08
8.95277e-10
4.53972e-08
8.87048e-10
4.53353e-08
8.78996e-10
4.52721e-08
8.71111e-10
4.52075e-08
8.63383e-10
4.51416e-08
8.55804e-10
4.50744e-08
8.48367e-10
4.5006e-08
8.41063e-10
4.49364e-08
8.33886e-10
4.48656e-08
8.2683e-10
4.47937e-08
8.19888e-10
4.47207e-08
8.13057e-10
4.46467e-08
8.06331e-10
4.45716e-08
7.99705e-10
4.44955e-08
7.93176e-10
4.44184e-08
7.86739e-10
4.43404e-08
7.80393e-10
4.42615e-08
7.74133e-10
4.41818e-08
7.67956e-10
4.41012e-08
7.61862e-10
4.40198e-08
7.55846e-10
4.39377e-08
7.49908e-10
4.38548e-08
7.44045e-10
4.37712e-08
7.38257e-10
4.36869e-08
7.32542e-10
4.36019e-08
7.26898e-10
4.35164e-08
7.21326e-10
4.34302e-08
7.15823e-10
4.33435e-08
7.1039e-10
4.32562e-08
7.05026e-10
4.31685e-08
6.99728e-10
4.30802e-08
6.94497e-10
4.29914e-08
6.8933e-10
4.29023e-08
6.84228e-10
4.28127e-08
6.79199e-10
4.27227e-08
6.74264e-10
4.26325e-08
6.69482e-10
4.25423e-08
6.64962e-10
4.24531e-08
6.60696e-10
4.23679e-08
6.54957e-10
6.34203e-10
4.61649e-08
1.97807e-09
-4.60422e-08
4.63164e-08
2.18115e-09
4.64844e-08
2.34584e-09
4.66591e-08
2.46857e-09
4.6834e-08
2.55147e-09
4.70044e-08
2.59793e-09
4.71663e-08
2.61145e-09
4.73168e-08
2.59616e-09
4.74539e-08
2.55691e-09
4.75768e-08
2.49888e-09
4.76853e-08
2.42714e-09
4.77801e-08
2.34639e-09
4.78622e-08
2.26078e-09
4.79331e-08
2.17375e-09
4.79942e-08
2.08797e-09
4.80472e-08
2.00538e-09
4.80934e-08
1.92725e-09
4.81342e-08
1.85427e-09
4.81707e-08
1.78671e-09
4.82037e-08
1.72453e-09
4.82339e-08
1.66749e-09
4.82619e-08
1.61521e-09
4.82879e-08
1.56727e-09
4.83124e-08
1.52324e-09
4.83354e-08
1.4827e-09
4.83572e-08
1.44528e-09
4.83777e-08
1.41063e-09
4.8397e-08
1.37846e-09
4.84152e-08
1.34852e-09
4.84322e-08
1.32057e-09
4.8448e-08
1.29443e-09
4.84627e-08
1.26993e-09
4.84763e-08
1.24693e-09
4.84886e-08
1.2253e-09
4.84997e-08
1.20492e-09
4.85096e-08
1.1857e-09
4.85182e-08
1.16754e-09
4.85256e-08
1.15037e-09
4.85317e-08
1.1341e-09
4.85365e-08
1.11868e-09
4.854e-08
1.10404e-09
4.85421e-08
1.09012e-09
4.85429e-08
1.07687e-09
4.85424e-08
1.06423e-09
4.85404e-08
1.05218e-09
4.85371e-08
1.04066e-09
4.85324e-08
1.02963e-09
4.85263e-08
1.01907e-09
4.85188e-08
1.00893e-09
4.85099e-08
9.99195e-10
4.84995e-08
9.89826e-10
4.84878e-08
9.808e-10
4.84746e-08
9.72093e-10
4.84599e-08
9.63682e-10
4.84439e-08
9.55548e-10
4.84264e-08
9.47671e-10
4.84075e-08
9.40033e-10
4.83872e-08
9.32618e-10
4.83655e-08
9.25411e-10
4.83424e-08
9.18397e-10
4.83179e-08
9.11564e-10
4.8292e-08
9.04899e-10
4.82647e-08
8.98391e-10
4.8236e-08
8.9203e-10
4.8206e-08
8.85807e-10
4.81747e-08
8.79713e-10
4.8142e-08
8.73739e-10
4.8108e-08
8.67878e-10
4.80727e-08
8.62124e-10
4.80361e-08
8.56469e-10
4.79983e-08
8.50908e-10
4.79592e-08
8.45436e-10
4.79188e-08
8.40048e-10
4.78773e-08
8.34738e-10
4.78345e-08
8.29504e-10
4.77906e-08
8.24341e-10
4.77455e-08
8.19246e-10
4.76992e-08
8.14216e-10
4.76518e-08
8.09249e-10
4.76033e-08
8.04341e-10
4.75537e-08
7.99491e-10
4.75031e-08
7.94696e-10
4.74514e-08
7.89956e-10
4.73986e-08
7.8527e-10
4.73449e-08
7.80635e-10
4.72902e-08
7.76051e-10
4.72345e-08
7.71518e-10
4.71778e-08
7.67034e-10
4.71203e-08
7.62599e-10
4.70618e-08
7.58211e-10
4.70024e-08
7.53869e-10
4.69422e-08
7.4957e-10
4.68811e-08
7.45313e-10
4.68192e-08
7.41097e-10
4.67565e-08
7.36922e-10
4.66932e-08
7.32782e-10
4.66296e-08
7.28596e-10
4.65665e-08
7.2382e-10
4.65058e-08
7.15617e-10
6.90886e-10
4.79644e-08
1.864e-09
-4.78504e-08
4.81035e-08
2.04206e-09
4.82587e-08
2.19068e-09
4.84218e-08
2.30547e-09
4.85868e-08
2.38648e-09
4.8749e-08
2.43566e-09
4.89048e-08
2.45566e-09
4.90513e-08
2.44971e-09
4.91864e-08
2.42175e-09
4.93092e-08
2.37607e-09
4.94194e-08
2.31697e-09
4.95173e-08
2.24853e-09
4.96036e-08
2.17442e-09
4.96796e-08
2.09776e-09
4.97466e-08
2.02103e-09
4.98058e-08
1.94615e-09
4.98586e-08
1.87441e-09
4.99063e-08
1.80664e-09
4.99497e-08
1.74327e-09
4.99898e-08
1.68442e-09
5.00273e-08
1.63001e-09
5.00627e-08
1.57981e-09
5.00964e-08
1.53353e-09
5.01288e-08
1.49085e-09
5.01601e-08
1.45144e-09
5.01904e-08
1.41498e-09
5.02198e-08
1.38118e-09
5.02485e-08
1.34978e-09
5.02765e-08
1.32055e-09
5.03037e-08
1.29329e-09
5.03304e-08
1.26781e-09
5.03563e-08
1.24397e-09
5.03816e-08
1.22162e-09
5.04063e-08
1.20065e-09
5.04303e-08
1.18094e-09
5.04536e-08
1.16239e-09
5.04762e-08
1.14493e-09
5.04981e-08
1.12846e-09
5.05193e-08
1.11292e-09
5.05397e-08
1.09824e-09
5.05594e-08
1.08435e-09
5.05783e-08
1.07121e-09
5.05964e-08
1.05875e-09
5.06137e-08
1.04693e-09
5.06302e-08
1.03571e-09
5.06458e-08
1.02504e-09
5.06606e-08
1.01488e-09
5.06744e-08
1.0052e-09
5.06874e-08
9.95963e-10
5.06995e-08
9.87143e-10
5.07106e-08
9.78708e-10
5.07207e-08
9.70631e-10
5.07299e-08
9.62888e-10
5.07382e-08
9.55456e-10
5.07454e-08
9.48314e-10
5.07516e-08
9.41441e-10
5.07569e-08
9.34819e-10
5.0761e-08
9.28431e-10
5.07642e-08
9.22261e-10
5.07663e-08
9.16293e-10
5.07673e-08
9.10515e-10
5.07673e-08
9.04913e-10
5.07662e-08
8.99475e-10
5.07641e-08
8.9419e-10
5.07608e-08
8.89048e-10
5.07565e-08
8.8404e-10
5.07511e-08
8.79156e-10
5.07446e-08
8.74388e-10
5.0737e-08
8.69729e-10
5.07283e-08
8.65171e-10
5.07185e-08
8.60708e-10
5.07076e-08
8.56334e-10
5.06956e-08
8.52043e-10
5.06825e-08
8.47831e-10
5.06683e-08
8.43691e-10
5.0653e-08
8.39621e-10
5.06367e-08
8.35615e-10
5.06192e-08
8.31671e-10
5.06007e-08
8.27786e-10
5.05811e-08
8.23955e-10
5.05604e-08
8.20177e-10
5.05386e-08
8.1645e-10
5.05158e-08
8.12771e-10
5.04919e-08
8.09138e-10
5.0467e-08
8.05551e-10
5.04411e-08
8.02009e-10
5.04141e-08
7.98509e-10
5.03861e-08
7.95051e-10
5.0357e-08
7.91634e-10
5.0327e-08
7.88255e-10
5.02959e-08
7.84914e-10
5.02639e-08
7.81606e-10
5.02309e-08
7.78325e-10
5.01969e-08
7.75062e-10
5.0162e-08
7.71795e-10
5.01264e-08
7.68458e-10
5.00901e-08
7.6482e-10
5.00539e-08
7.60029e-10
5.00185e-08
7.51018e-10
7.27203e-10
4.98258e-08
1.75671e-09
-4.97185e-08
4.99548e-08
1.9131e-09
5.00988e-08
2.04662e-09
5.02514e-08
2.1529e-09
5.04071e-08
2.23082e-09
5.05615e-08
2.28123e-09
5.07112e-08
2.30598e-09
5.08533e-08
2.30755e-09
5.0986e-08
2.28907e-09
5.1108e-08
2.25403e-09
5.12189e-08
2.20607e-09
5.13188e-08
2.14868e-09
5.14082e-08
2.08506e-09
5.14879e-08
2.01801e-09
5.15591e-08
1.94982e-09
5.16229e-08
1.88232e-09
5.16805e-08
1.81683e-09
5.17329e-08
1.75423e-09
5.17811e-08
1.69507e-09
5.1826e-08
1.63961e-09
5.18681e-08
1.58791e-09
5.1908e-08
1.53986e-09
5.19462e-08
1.4953e-09
5.19831e-08
1.454e-09
5.20188e-08
1.41569e-09
5.20537e-08
1.38014e-09
5.20877e-08
1.34711e-09
5.21212e-08
1.31636e-09
5.2154e-08
1.28771e-09
5.21863e-08
1.26096e-09
5.22182e-08
1.23596e-09
5.22496e-08
1.21256e-09
5.22806e-08
1.19064e-09
5.23112e-08
1.17007e-09
5.23413e-08
1.15076e-09
5.23711e-08
1.13261e-09
5.24005e-08
1.11554e-09
5.24295e-08
1.09948e-09
5.24581e-08
1.08434e-09
5.24862e-08
1.07006e-09
5.2514e-08
1.05659e-09
5.25414e-08
1.04387e-09
5.25683e-08
1.03184e-09
5.25947e-08
1.02047e-09
5.26207e-08
1.0097e-09
5.26463e-08
9.99501e-10
5.26713e-08
9.89825e-10
5.26959e-08
9.80641e-10
5.27199e-08
9.71915e-10
5.27434e-08
9.63617e-10
5.27664e-08
9.55718e-10
5.27889e-08
9.48192e-10
5.28107e-08
9.41013e-10
5.2832e-08
9.34159e-10
5.28528e-08
9.27608e-10
5.28729e-08
9.21341e-10
5.28923e-08
9.15338e-10
5.29112e-08
9.09582e-10
5.29294e-08
9.04057e-10
5.29469e-08
8.98748e-10
5.29638e-08
8.93641e-10
5.298e-08
8.88722e-10
5.29955e-08
8.8398e-10
5.30103e-08
8.79402e-10
5.30243e-08
8.74979e-10
5.30377e-08
8.70701e-10
5.30503e-08
8.66558e-10
5.30621e-08
8.62541e-10
5.30732e-08
8.58643e-10
5.30835e-08
8.54855e-10
5.30931e-08
8.51172e-10
5.31018e-08
8.47587e-10
5.31098e-08
8.44094e-10
5.31169e-08
8.40686e-10
5.31232e-08
8.3736e-10
5.31288e-08
8.3411e-10
5.31334e-08
8.30931e-10
5.31373e-08
8.27821e-10
5.31403e-08
8.24775e-10
5.31425e-08
8.21789e-10
5.31438e-08
8.18862e-10
5.31442e-08
8.1599e-10
5.31438e-08
8.13171e-10
5.31426e-08
8.10403e-10
5.31404e-08
8.07684e-10
5.31374e-08
8.05012e-10
5.31336e-08
8.02387e-10
5.31288e-08
7.99807e-10
5.31232e-08
7.9727e-10
5.31166e-08
7.94775e-10
5.31092e-08
7.92318e-10
5.3101e-08
7.89894e-10
5.30918e-08
7.87495e-10
5.30817e-08
7.85102e-10
5.30709e-08
7.82674e-10
5.30592e-08
7.80102e-10
5.3047e-08
7.7707e-10
5.30344e-08
7.7265e-10
5.30212e-08
7.64165e-10
7.44437e-10
5.17516e-08
1.65485e-09
-5.16497e-08
5.18722e-08
1.79248e-09
5.20067e-08
1.91211e-09
5.21499e-08
2.00975e-09
5.2297e-08
2.08375e-09
5.2444e-08
2.1342e-09
5.25877e-08
2.16223e-09
5.27256e-08
2.16971e-09
5.28556e-08
2.15908e-09
5.29765e-08
2.13315e-09
5.30876e-08
2.09493e-09
5.31889e-08
2.04738e-09
5.32807e-08
1.99329e-09
5.33636e-08
1.93511e-09
5.34384e-08
1.87496e-09
5.35062e-08
1.81453e-09
5.35679e-08
1.75512e-09
5.36245e-08
1.69766e-09
5.36768e-08
1.64278e-09
5.37256e-08
1.59083e-09
5.37715e-08
1.54197e-09
5.38151e-08
1.49623e-09
5.38569e-08
1.45353e-09
5.38972e-08
1.41373e-09
5.39362e-08
1.37665e-09
5.39743e-08
1.3421e-09
5.40115e-08
1.3099e-09
5.4048e-08
1.27985e-09
5.40839e-08
1.25179e-09
5.41193e-08
1.22556e-09
5.41542e-08
1.20102e-09
5.41888e-08
1.17802e-09
5.42229e-08
1.15647e-09
5.42568e-08
1.13624e-09
5.42903e-08
1.11725e-09
5.43235e-08
1.09941e-09
5.43564e-08
1.08262e-09
5.4389e-08
1.06683e-09
5.44214e-08
1.05196e-09
5.44535e-08
1.03795e-09
5.44854e-08
1.02475e-09
5.45169e-08
1.01229e-09
5.45483e-08
1.00052e-09
5.45793e-08
9.89414e-10
5.46101e-08
9.78912e-10
5.46406e-08
9.6898e-10
5.46709e-08
9.59578e-10
5.47008e-08
9.50673e-10
5.47305e-08
9.42232e-10
5.47599e-08
9.34225e-10
5.4789e-08
9.26624e-10
5.48178e-08
9.19402e-10
5.48463e-08
9.12536e-10
5.48744e-08
9.06002e-10
5.49023e-08
8.9978e-10
5.49298e-08
8.93849e-10
5.49569e-08
8.88191e-10
5.49837e-08
8.82789e-10
5.50101e-08
8.77627e-10
5.50362e-08
8.7269e-10
5.50619e-08
8.67964e-10
5.50871e-08
8.63436e-10
5.5112e-08
8.59094e-10
5.51365e-08
8.54926e-10
5.51606e-08
8.50922e-10
5.51842e-08
8.47072e-10
5.52074e-08
8.43367e-10
5.52301e-08
8.39799e-10
5.52524e-08
8.36358e-10
5.52742e-08
8.33039e-10
5.52956e-08
8.29833e-10
5.53164e-08
8.26735e-10
5.53368e-08
8.23738e-10
5.53566e-08
8.20836e-10
5.5376e-08
8.18025e-10
5.53948e-08
8.153e-10
5.5413e-08
8.12656e-10
5.54308e-08
8.10089e-10
5.5448e-08
8.07595e-10
5.54646e-08
8.05171e-10
5.54806e-08
8.02814e-10
5.54961e-08
8.00521e-10
5.5511e-08
7.98289e-10
5.55253e-08
7.96118e-10
5.55389e-08
7.94004e-10
5.5552e-08
7.91946e-10
5.55645e-08
7.89943e-10
5.55763e-08
7.87993e-10
5.55874e-08
7.86094e-10
5.5598e-08
7.84246e-10
5.56078e-08
7.82443e-10
5.56171e-08
7.8068e-10
5.56256e-08
7.78946e-10
5.56335e-08
7.77217e-10
5.56407e-08
7.75438e-10
5.56474e-08
7.73479e-10
5.56534e-08
7.71008e-10
5.56589e-08
7.67188e-10
5.5663e-08
7.60055e-10
7.45706e-10
5.37445e-08
1.55738e-09
-5.36471e-08
5.38583e-08
1.67875e-09
5.39846e-08
1.78575e-09
5.41194e-08
1.87495e-09
5.42587e-08
1.94452e-09
5.43988e-08
1.99405e-09
5.45369e-08
2.02415e-09
5.46705e-08
2.03615e-09
5.47976e-08
2.0319e-09
5.49171e-08
2.01366e-09
5.50282e-08
1.98388e-09
5.51305e-08
1.94503e-09
5.52243e-08
1.89951e-09
5.53099e-08
1.84948e-09
5.53881e-08
1.79682e-09
5.54595e-08
1.74311e-09
5.5525e-08
1.68959e-09
5.55855e-08
1.63721e-09
5.56416e-08
1.58662e-09
5.56942e-08
1.53827e-09
5.57438e-08
1.4924e-09
5.57909e-08
1.44913e-09
5.5836e-08
1.40845e-09
5.58794e-08