/*--------------------------------*- C++ -*----------------------------------*\
| =========                 |                                                 |
| \\      /  F ield         | OpenFOAM: The Open Source CFD Toolbox           |
|  \\    /   O peration     | Version:  2.3.0                                 |
|   \\  /    A nd           | Web:      www.OpenFOAM.org                      |
|    \\/     M anipulation  |                                                 |
\*---------------------------------------------------------------------------*/
FoamFile
{
    version     2.0;
    format      ascii;
    class       volVectorField;
    location    "0.9";
    object      U;
}
// * * * * * * * * * * * * * * * * * * * * * * * * * * * * * * * * * * * * * //

dimensions      [0 1 -1 0 0 0 0];

internalField   nonuniform List<vector> 
3375
(
(0.173408 0.00612068 0)
(0.156945 0.00611027 0)
(0.141076 0.00565605 0)
(0.126071 0.00504276 0)
(0.112321 0.00437286 0)
(0.099975 0.00369683 0)
(0.0890392 0.00305055 0)
(0.0794816 0.0024583 0)
(0.0712478 0.00193461 0)
(0.0642537 0.00148678 0)
(0.058387 0.00111631 0)
(0.0535164 0.000819728 0)
(0.0495025 0.000589807 0)
(0.0462074 0.000417051 0)
(0.043502 0.000291167 0)
(0.0412707 0.00020221 0)
(0.0394142 0.000141296 0)
(0.0378505 0.000100949 0)
(0.0365139 7.51539e-05 0)
(0.035353 5.92724e-05 0)
(0.034329 4.98616e-05 0)
(0.0334126 4.44687e-05 0)
(0.0325823 4.14214e-05 0)
(0.0318221 3.96336e-05 0)
(0.0311205 3.84397e-05 0)
(0.0304689 3.746e-05 0)
(0.0298606 3.65e-05 0)
(0.0292905 3.54772e-05 0)
(0.0287546 3.43724e-05 0)
(0.0282495 3.31976e-05 0)
(0.0277724 3.19777e-05 0)
(0.0273207 3.07397e-05 0)
(0.0268924 2.95072e-05 0)
(0.0264854 2.82993e-05 0)
(0.026098 2.71294e-05 0)
(0.0257287 2.60064e-05 0)
(0.025376 2.49352e-05 0)
(0.0250387 2.3918e-05 0)
(0.0247156 2.29551e-05 0)
(0.0244058 2.20452e-05 0)
(0.0241081 2.1186e-05 0)
(0.0238219 2.03752e-05 0)
(0.0235463 1.96097e-05 0)
(0.0232806 1.88867e-05 0)
(0.0230242 1.82033e-05 0)
(0.0227766 1.75568e-05 0)
(0.0225371 1.69446e-05 0)
(0.0223053 1.63642e-05 0)
(0.0220808 1.58134e-05 0)
(0.0218631 1.52901e-05 0)
(0.0216519 1.47924e-05 0)
(0.0214468 1.43187e-05 0)
(0.0212475 1.38671e-05 0)
(0.0210538 1.34365e-05 0)
(0.0208653 1.30253e-05 0)
(0.0206818 1.26323e-05 0)
(0.020503 1.22564e-05 0)
(0.0203288 1.18966e-05 0)
(0.0201589 1.15518e-05 0)
(0.0199932 1.12213e-05 0)
(0.0198314 1.09043e-05 0)
(0.0196734 1.05998e-05 0)
(0.0195191 1.03073e-05 0)
(0.0193682 1.00262e-05 0)
(0.0192207 9.75572e-06 0)
(0.0190764 9.49543e-06 0)
(0.0189353 9.2448e-06 0)
(0.0187971 9.00332e-06 0)
(0.0186618 8.77056e-06 0)
(0.0185292 8.54609e-06 0)
(0.0183993 8.32953e-06 0)
(0.0182721 8.12051e-06 0)
(0.0181472 7.9187e-06 0)
(0.0180248 7.72375e-06 0)
(0.0179048 7.5354e-06 0)
(0.0177869 7.35331e-06 0)
(0.0176713 7.17729e-06 0)
(0.0175577 7.00703e-06 0)
(0.0174462 6.84232e-06 0)
(0.0173366 6.68297e-06 0)
(0.017229 6.52873e-06 0)
(0.0171232 6.37942e-06 0)
(0.0170192 6.23488e-06 0)
(0.016917 6.09491e-06 0)
(0.0168165 5.95936e-06 0)
(0.0167175 5.8281e-06 0)
(0.0166202 5.70093e-06 0)
(0.0165244 5.5777e-06 0)
(0.0164302 5.4583e-06 0)
(0.0163373 5.34255e-06 0)
(0.0162459 5.23032e-06 0)
(0.0161559 5.12153e-06 0)
(0.0160672 5.01622e-06 0)
(0.0159797 4.91495e-06 0)
(0.0158936 4.81949e-06 0)
(0.0158085 4.73571e-06 0)
(0.0157244 4.68697e-06 0)
(0.0156401 4.65966e-06 0)
(0.0155682 3.87098e-06 0)
(0.0153527 2.94889e-05 0)
(0.192284 0.00952761 0)
(0.190142 0.00993608 0)
(0.186381 0.00968263 0)
(0.181397 0.00918098 0)
(0.175684 0.00854816 0)
(0.169576 0.00782779 0)
(0.16329 0.00705782 0)
(0.156992 0.00627239 0)
(0.150816 0.0055 0)
(0.14486 0.00476418 0)
(0.139192 0.00408349 0)
(0.133853 0.00347083 0)
(0.128861 0.00293319 0)
(0.124221 0.00247206 0)
(0.119924 0.00208438 0)
(0.115956 0.00176385 0)
(0.112295 0.0015022 0)
(0.10892 0.00129041 0)
(0.105807 0.00111966 0)
(0.102932 0.000981876 0)
(0.100272 0.00087012 0)
(0.0978071 0.000778664 0)
(0.0955174 0.000702942 0)
(0.0933857 0.00063941 0)
(0.0913962 0.000585372 0)
(0.089535 0.000538808 0)
(0.0877896 0.000498208 0)
(0.0861492 0.000462452 0)
(0.0846039 0.000430696 0)
(0.0831451 0.000402299 0)
(0.0817651 0.000376765 0)
(0.0804573 0.000353701 0)
(0.0792154 0.000332789 0)
(0.0780341 0.000313766 0)
(0.0769085 0.00029641 0)
(0.0758343 0.000280533 0)
(0.0748075 0.00026597 0)
(0.0738246 0.000252579 0)
(0.0728825 0.000240237 0)
(0.0719782 0.000228834 0)
(0.0711092 0.000218276 0)
(0.0702731 0.000208476 0)
(0.0694677 0.000199362 0)
(0.0686911 0.000190868 0)
(0.0679414 0.000182935 0)
(0.067217 0.000175513 0)
(0.0665165 0.000168555 0)
(0.0658384 0.000162022 0)
(0.0651814 0.000155878 0)
(0.0645445 0.00015009 0)
(0.0639264 0.000144629 0)
(0.0633263 0.000139469 0)
(0.0627432 0.000134587 0)
(0.0621762 0.000129963 0)
(0.0616245 0.000125577 0)
(0.0610875 0.000121412 0)
(0.0605643 0.000117452 0)
(0.0600545 0.000113684 0)
(0.0595573 0.000110094 0)
(0.0590722 0.00010667 0)
(0.0585988 0.000103402 0)
(0.0581364 0.00010028 0)
(0.0576847 9.72952e-05 0)
(0.0572431 9.44385e-05 0)
(0.0568114 9.17025e-05 0)
(0.0563891 8.90803e-05 0)
(0.0559759 8.65653e-05 0)
(0.0555713 8.41514e-05 0)
(0.0551752 8.18331e-05 0)
(0.0547871 7.96052e-05 0)
(0.0544068 7.74629e-05 0)
(0.0540341 7.54016e-05 0)
(0.0536686 7.34174e-05 0)
(0.0533101 7.15062e-05 0)
(0.0529584 6.96646e-05 0)
(0.0526133 6.7889e-05 0)
(0.0522745 6.61765e-05 0)
(0.0519419 6.4524e-05 0)
(0.0516151 6.29288e-05 0)
(0.0512942 6.13884e-05 0)
(0.0509788 5.99004e-05 0)
(0.0506689 5.84625e-05 0)
(0.0503641 5.70726e-05 0)
(0.0500645 5.57287e-05 0)
(0.0497698 5.44289e-05 0)
(0.0494799 5.31715e-05 0)
(0.0491947 5.19549e-05 0)
(0.0489139 5.07773e-05 0)
(0.0486376 4.96372e-05 0)
(0.0483655 4.85331e-05 0)
(0.0480976 4.74637e-05 0)
(0.0478337 4.64278e-05 0)
(0.0475736 4.54253e-05 0)
(0.0473174 4.4459e-05 0)
(0.0470649 4.35396e-05 0)
(0.0468157 4.27042e-05 0)
(0.0465695 4.20737e-05 0)
(0.0463242 4.19739e-05 0)
(0.0460943 4.55502e-05 0)
(0.0456587 0.000101997 0)
(0.195216 0.00893517 0)
(0.196164 0.00984486 0)
(0.196457 0.0101727 0)
(0.195975 0.0101859 0)
(0.194837 0.00997132 0)
(0.193155 0.00956628 0)
(0.191013 0.0090163 0)
(0.188496 0.00837064 0)
(0.185695 0.00767398 0)
(0.182695 0.00696426 0)
(0.179571 0.00627215 0)
(0.176385 0.00562038 0)
(0.173187 0.00502361 0)
(0.170016 0.0044892 0)
(0.166899 0.00401855 0)
(0.163857 0.00360879 0)
(0.160902 0.00325437 0)
(0.158041 0.00294849 0)
(0.155278 0.00268414 0)
(0.152614 0.00245474 0)
(0.150047 0.00225448 0)
(0.147576 0.0020785 0)
(0.145197 0.00192276 0)
(0.142908 0.00178405 0)
(0.140706 0.00165978 0)
(0.138586 0.00154787 0)
(0.136545 0.00144668 0)
(0.134581 0.00135484 0)
(0.13269 0.00127125 0)
(0.130868 0.00119497 0)
(0.129112 0.0011252 0)
(0.127421 0.00106127 0)
(0.125789 0.00100258 0)
(0.124215 0.000948607 0)
(0.122696 0.000898882 0)
(0.12123 0.000852996 0)
(0.119812 0.00081058 0)
(0.118443 0.000771306 0)
(0.117118 0.000734881 0)
(0.115835 0.000701041 0)
(0.114594 0.00066955 0)
(0.11339 0.000640196 0)
(0.112224 0.000612792 0)
(0.111092 0.000587165 0)
(0.109994 0.000563164 0)
(0.108928 0.000540652 0)
(0.107891 0.000519504 0)
(0.106884 0.00049961 0)
(0.105903 0.000480868 0)
(0.104949 0.000463189 0)
(0.10402 0.00044649 0)
(0.103115 0.000430697 0)
(0.102233 0.000415742 0)
(0.101372 0.000401565 0)
(0.100532 0.000388109 0)
(0.099713 0.000375324 0)
(0.0989126 0.000363164 0)
(0.0981308 0.000351587 0)
(0.0973666 0.000340553 0)
(0.0966194 0.000330027 0)
(0.0958886 0.000319978 0)
(0.0951736 0.000310374 0)
(0.0944737 0.000301189 0)
(0.0937884 0.000292397 0)
(0.0931171 0.000283976 0)
(0.0924594 0.000275902 0)
(0.0918148 0.000268157 0)
(0.0911829 0.000260723 0)
(0.0905632 0.000253581 0)
(0.0899552 0.000246717 0)
(0.0893587 0.000240115 0)
(0.0887733 0.000233762 0)
(0.0881985 0.000227645 0)
(0.0876341 0.000221752 0)
(0.0870797 0.000216072 0)
(0.086535 0.000210595 0)
(0.0859998 0.000205312 0)
(0.0854737 0.000200212 0)
(0.0849566 0.000195288 0)
(0.084448 0.000190532 0)
(0.0839478 0.000185936 0)
(0.0834557 0.000181494 0)
(0.0829716 0.000177198 0)
(0.0824951 0.000173044 0)
(0.0820261 0.000169024 0)
(0.0815644 0.000165134 0)
(0.0811097 0.000161368 0)
(0.0806619 0.000157722 0)
(0.0802208 0.000154191 0)
(0.0797862 0.000150769 0)
(0.0793579 0.000147454 0)
(0.0789358 0.000144241 0)
(0.0785197 0.00014113 0)
(0.0781095 0.000138126 0)
(0.0777049 0.000135255 0)
(0.0773056 0.000132606 0)
(0.0769111 0.000130471 0)
(0.0765194 0.000129986 0)
(0.0761393 0.000140437 0)
(0.0755744 0.000206165 0)
(0.196237 0.00823124 0)
(0.197525 0.00924409 0)
(0.198696 0.00977959 0)
(0.199561 0.0100125 0)
(0.200107 0.010018 0)
(0.200338 0.00982702 0)
(0.20025 0.0094754 0)
(0.199846 0.00900505 0)
(0.199149 0.00845663 0)
(0.198195 0.00786646 0)
(0.197024 0.00726561 0)
(0.195676 0.00667883 0)
(0.19419 0.00612401 0)
(0.192602 0.00561231 0)
(0.190941 0.00514909 0)
(0.189233 0.00473522 0)
(0.187497 0.00436842 0)
(0.185746 0.00404457 0)
(0.183993 0.00375866 0)
(0.182244 0.00350553 0)
(0.180505 0.00328031 0)
(0.178781 0.0030787 0)
(0.177074 0.00289699 0)
(0.175387 0.00273214 0)
(0.17372 0.00258167 0)
(0.172076 0.00244359 0)
(0.170454 0.00231629 0)
(0.168858 0.0021985 0)
(0.167285 0.00208917 0)
(0.165739 0.00198745 0)
(0.164218 0.00189262 0)
(0.162723 0.00180407 0)
(0.161254 0.00172127 0)
(0.159812 0.00164376 0)
(0.158396 0.00157111 0)
(0.157006 0.00150297 0)
(0.155642 0.00143898 0)
(0.154305 0.00137884 0)
(0.152993 0.00132227 0)
(0.151706 0.001269 0)
(0.150444 0.0012188 0)
(0.149206 0.00117144 0)
(0.147992 0.00112674 0)
(0.146802 0.00108449 0)
(0.145635 0.00104453 0)
(0.144491 0.0010067 0)
(0.143368 0.000970864 0)
(0.142267 0.000936874 0)
(0.141187 0.000904612 0)
(0.140127 0.000873964 0)
(0.139087 0.000844823 0)
(0.138067 0.000817093 0)
(0.137066 0.000790683 0)
(0.136083 0.000765509 0)
(0.135118 0.000741496 0)
(0.13417 0.000718571 0)
(0.13324 0.000696668 0)
(0.132326 0.000675727 0)
(0.131428 0.000655689 0)
(0.130546 0.000636504 0)
(0.129679 0.000618121 0)
(0.128827 0.000600494 0)
(0.127989 0.000583583 0)
(0.127166 0.000567348 0)
(0.126356 0.000551751 0)
(0.12556 0.000536759 0)
(0.124777 0.00052234 0)
(0.124006 0.000508464 0)
(0.123248 0.000495104 0)
(0.122502 0.000482234 0)
(0.121767 0.000469829 0)
(0.121044 0.000457867 0)
(0.120332 0.000446327 0)
(0.119631 0.000435188 0)
(0.118941 0.000424433 0)
(0.118261 0.000414043 0)
(0.117591 0.000404002 0)
(0.116931 0.000394295 0)
(0.11628 0.000384907 0)
(0.115639 0.000375824 0)
(0.115008 0.000367035 0)
(0.114385 0.000358526 0)
(0.113771 0.000350287 0)
(0.113165 0.000342307 0)
(0.112568 0.000334574 0)
(0.111979 0.000327081 0)
(0.111398 0.000319818 0)
(0.110825 0.000312776 0)
(0.110259 0.000305947 0)
(0.109701 0.000299322 0)
(0.10915 0.000292895 0)
(0.108606 0.000286659 0)
(0.108069 0.000280611 0)
(0.107539 0.000274761 0)
(0.107015 0.000269149 0)
(0.106498 0.000263918 0)
(0.105987 0.000259552 0)
(0.10548 0.000258033 0)
(0.104984 0.000270588 0)
(0.104339 0.000327704 0)
(0.196966 0.00764191 0)
(0.198104 0.00859266 0)
(0.199298 0.00916017 0)
(0.200399 0.00945969 0)
(0.20137 0.00955832 0)
(0.202196 0.00948411 0)
(0.202852 0.00926298 0)
(0.203315 0.00892655 0)
(0.203578 0.00850741 0)
(0.203644 0.00803609 0)
(0.203527 0.00753984 0)
(0.203246 0.00704162 0)
(0.202822 0.00655916 0)
(0.202278 0.00610473 0)
(0.201637 0.00568553 0)
(0.200916 0.00530457 0)
(0.200133 0.0049617 0)
(0.199301 0.00465472 0)
(0.19843 0.00438023 0)
(0.197528 0.00413433 0)
(0.196601 0.00391315 0)
(0.195654 0.0037131 0)
(0.19469 0.00353105 0)
(0.193713 0.00336432 0)
(0.192723 0.00321072 0)
(0.191723 0.00306848 0)
(0.190715 0.00293616 0)
(0.189701 0.00281259 0)
(0.188681 0.00269684 0)
(0.187657 0.00258814 0)
(0.18663 0.00248584 0)
(0.185602 0.0023894 0)
(0.184573 0.00229834 0)
(0.183544 0.00221226 0)
(0.182517 0.00213078 0)
(0.181491 0.00205359 0)
(0.180469 0.00198038 0)
(0.17945 0.00191088 0)
(0.178435 0.00184484 0)
(0.177425 0.00178205 0)
(0.17642 0.00172229 0)
(0.175421 0.00166537 0)
(0.174428 0.00161111 0)
(0.173442 0.00155935 0)
(0.172463 0.00150994 0)
(0.171491 0.00146274 0)
(0.170527 0.00141762 0)
(0.16957 0.00137446 0)
(0.168622 0.00133315 0)
(0.167681 0.00129358 0)
(0.166749 0.00125565 0)
(0.165826 0.00121929 0)
(0.164911 0.00118439 0)
(0.164004 0.00115089 0)
(0.163107 0.00111871 0)
(0.162218 0.00108778 0)
(0.161338 0.00105803 0)
(0.160467 0.00102941 0)
(0.159604 0.00100186 0)
(0.158751 0.000975332 0)
(0.157906 0.000949767 0)
(0.15707 0.000925121 0)
(0.156243 0.000901352 0)
(0.155425 0.000878418 0)
(0.154615 0.000856279 0)
(0.153814 0.0008349 0)
(0.153021 0.000814246 0)
(0.152237 0.000794284 0)
(0.151461 0.000774983 0)
(0.150694 0.000756315 0)
(0.149935 0.000738252 0)
(0.149184 0.00072077 0)
(0.148441 0.000703842 0)
(0.147707 0.000687446 0)
(0.14698 0.000671561 0)
(0.146261 0.000656166 0)
(0.14555 0.000641241 0)
(0.144846 0.000626769 0)
(0.14415 0.00061273 0)
(0.143462 0.00059911 0)
(0.14278 0.000585893 0)
(0.142106 0.000573063 0)
(0.14144 0.000560606 0)
(0.14078 0.00054851 0)
(0.140127 0.000536762 0)
(0.139481 0.000525349 0)
(0.138842 0.00051426 0)
(0.13821 0.000503484 0)
(0.137584 0.00049301 0)
(0.136965 0.000482828 0)
(0.136352 0.000472928 0)
(0.135746 0.000463303 0)
(0.135145 0.000453949 0)
(0.134551 0.000444877 0)
(0.133963 0.000436141 0)
(0.13338 0.000427928 0)
(0.132803 0.000420865 0)
(0.132232 0.000417346 0)
(0.131674 0.000427074 0)
(0.130996 0.000464301 0)
(0.197592 0.00711744 0)
(0.198549 0.00796958 0)
(0.19961 0.0085249 0)
(0.200659 0.00884844 0)
(0.201657 0.00899243 0)
(0.202584 0.00898252 0)
(0.203419 0.00883986 0)
(0.204139 0.0085899 0)
(0.204731 0.00825989 0)
(0.205189 0.00787589 0)
(0.205516 0.00746158 0)
(0.20572 0.00703733 0)
(0.205812 0.00661946 0)
(0.205806 0.00621986 0)
(0.205716 0.00584616 0)
(0.205555 0.00550235 0)
(0.205336 0.00518952 0)
(0.205068 0.00490674 0)
(0.204759 0.00465183 0)
(0.204417 0.00442194 0)
(0.204045 0.00421404 0)
(0.203648 0.0040252 0)
(0.203227 0.00385275 0)
(0.202786 0.00369436 0)
(0.202325 0.00354807 0)
(0.201846 0.00341226 0)
(0.201351 0.00328559 0)
(0.200839 0.00316697 0)
(0.200312 0.0030555 0)
(0.19977 0.00295046 0)
(0.199215 0.00285122 0)
(0.198647 0.00275727 0)
(0.198067 0.00266817 0)
(0.197476 0.00258354 0)
(0.196875 0.00250304 0)
(0.196263 0.00242637 0)
(0.195643 0.00235326 0)
(0.195014 0.00228347 0)
(0.194377 0.00221678 0)
(0.193732 0.00215299 0)
(0.193082 0.00209191 0)
(0.192424 0.00203339 0)
(0.191762 0.00197726 0)
(0.191094 0.00192339 0)
(0.190422 0.00187163 0)
(0.189746 0.00182188 0)
(0.189066 0.00177401 0)
(0.188383 0.00172794 0)
(0.187697 0.00168355 0)
(0.187009 0.00164076 0)
(0.186319 0.0015995 0)
(0.185628 0.00155967 0)
(0.184935 0.00152122 0)
(0.184241 0.00148406 0)
(0.183547 0.00144815 0)
(0.182852 0.00141343 0)
(0.182158 0.00137983 0)
(0.181464 0.00134731 0)
(0.18077 0.00131582 0)
(0.180077 0.00128531 0)
(0.179386 0.00125574 0)
(0.178695 0.00122708 0)
(0.178006 0.00119928 0)
(0.177319 0.00117231 0)
(0.176633 0.00114614 0)
(0.17595 0.00112073 0)
(0.175269 0.00109606 0)
(0.17459 0.00107209 0)
(0.173913 0.0010488 0)
(0.17324 0.00102617 0)
(0.172568 0.00100417 0)
(0.1719 0.000982773 0)
(0.171235 0.000961964 0)
(0.170573 0.00094172 0)
(0.169914 0.000922022 0)
(0.169258 0.000902851 0)
(0.168606 0.00088419 0)
(0.167957 0.000866021 0)
(0.167312 0.000848328 0)
(0.16667 0.000831097 0)
(0.166031 0.000814312 0)
(0.165397 0.000797961 0)
(0.164766 0.000782029 0)
(0.164138 0.000766504 0)
(0.163515 0.000751374 0)
(0.162895 0.000736627 0)
(0.162279 0.000722253 0)
(0.161666 0.000708241 0)
(0.161058 0.000694579 0)
(0.160454 0.000681258 0)
(0.159853 0.000668268 0)
(0.159256 0.0006556 0)
(0.158663 0.000643253 0)
(0.158074 0.00063124 0)
(0.157489 0.000619622 0)
(0.156907 0.000608602 0)
(0.15633 0.000598834 0)
(0.155757 0.000592477 0)
(0.1552 0.000595771 0)
(0.154546 0.000608138 0)
(0.198144 0.00665865 0)
(0.198956 0.00741154 0)
(0.199878 0.0079378 0)
(0.200824 0.00826633 0)
(0.201752 0.00843332 0)
(0.202641 0.00846138 0)
(0.20347 0.00836906 0)
(0.204224 0.00817778 0)
(0.204888 0.00791078 0)
(0.205456 0.00759068 0)
(0.205929 0.00723818 0)
(0.20631 0.00687128 0)
(0.206606 0.00650477 0)
(0.206827 0.00614979 0)
(0.206982 0.00581396 0)
(0.207082 0.00550173 0)
(0.207136 0.005215 0)
(0.207151 0.00495376 0)
(0.207135 0.00471676 0)
(0.207092 0.00450197 0)
(0.207026 0.00430706 0)
(0.206939 0.00412963 0)
(0.206835 0.00396742 0)
(0.206715 0.0038184 0)
(0.206578 0.0036808 0)
(0.206427 0.00355314 0)
(0.206262 0.00343415 0)
(0.206082 0.00332281 0)
(0.205889 0.00321823 0)
(0.205682 0.00311972 0)
(0.205462 0.00302666 0)
(0.205229 0.00293856 0)
(0.204984 0.00285497 0)
(0.204727 0.00277553 0)
(0.204457 0.00269989 0)
(0.204176 0.00262778 0)
(0.203883 0.00255892 0)
(0.20358 0.00249308 0)
(0.203265 0.00243006 0)
(0.20294 0.00236965 0)
(0.202605 0.00231169 0)
(0.202259 0.00225602 0)
(0.201905 0.00220248 0)
(0.201541 0.00215095 0)
(0.201167 0.0021013 0)
(0.200786 0.00205342 0)
(0.200396 0.0020072 0)
(0.199997 0.00196256 0)
(0.199591 0.00191939 0)
(0.199178 0.00187763 0)
(0.198757 0.0018372 0)
(0.198329 0.00179802 0)
(0.197895 0.00176004 0)
(0.197455 0.00172319 0)
(0.197008 0.00168742 0)
(0.196556 0.00165268 0)
(0.196098 0.00161892 0)
(0.195635 0.00158609 0)
(0.195167 0.00155417 0)
(0.194694 0.0015231 0)
(0.194217 0.00149285 0)
(0.193736 0.00146339 0)
(0.19325 0.0014347 0)
(0.192761 0.00140672 0)
(0.192269 0.00137945 0)
(0.191773 0.00135286 0)
(0.191274 0.00132691 0)
(0.190773 0.0013016 0)
(0.190269 0.00127689 0)
(0.189762 0.00125277 0)
(0.189253 0.00122921 0)
(0.188742 0.0012062 0)
(0.18823 0.00118373 0)
(0.187716 0.00116177 0)
(0.1872 0.00114031 0)
(0.186683 0.00111933 0)
(0.186165 0.00109883 0)
(0.185646 0.00107879 0)
(0.185126 0.00105919 0)
(0.184605 0.00104002 0)
(0.184084 0.00102128 0)
(0.183562 0.00100295 0)
(0.18304 0.000985024 0)
(0.182518 0.000967488 0)
(0.181996 0.000950333 0)
(0.181474 0.000933552 0)
(0.180953 0.000917135 0)
(0.180431 0.000901075 0)
(0.17991 0.000885361 0)
(0.179389 0.000869987 0)
(0.178869 0.000854943 0)
(0.17835 0.000840224 0)
(0.177831 0.000825827 0)
(0.177313 0.000811766 0)
(0.176796 0.0007981 0)
(0.176281 0.00078501 0)
(0.175767 0.000773027 0)
(0.175256 0.000763565 0)
(0.17476 0.000758882 0)
(0.174184 0.000747291 0)
(0.198633 0.00625137 0)
(0.199335 0.00691129 0)
(0.200137 0.00739854 0)
(0.20098 0.00772035 0)
(0.201824 0.0078991 0)
(0.202645 0.00795314 0)
(0.203424 0.00789843 0)
(0.204147 0.00775283 0)
(0.204801 0.00753597 0)
(0.205381 0.00726736 0)
(0.205886 0.00696508 0)
(0.206317 0.00664514 0)
(0.20668 0.0063209 0)
(0.206982 0.00600279 0)
(0.207232 0.00569827 0)
(0.207436 0.0054121 0)
(0.207604 0.00514676 0)
(0.207742 0.00490297 0)
(0.207855 0.00468024 0)
(0.207947 0.00447725 0)
(0.208024 0.00429228 0)
(0.208086 0.00412344 0)
(0.208136 0.00396886 0)
(0.208176 0.0038268 0)
(0.208205 0.0036957 0)
(0.208225 0.00357421 0)
(0.208235 0.00346117 0)
(0.208237 0.00335559 0)
(0.20823 0.00325666 0)
(0.208213 0.00316367 0)
(0.208189 0.00307603 0)
(0.208155 0.00299324 0)
(0.208112 0.00291485 0)
(0.208061 0.00284049 0)
(0.208001 0.00276982 0)
(0.207931 0.00270256 0)
(0.207854 0.00263842 0)
(0.207767 0.00257719 0)
(0.207671 0.00251864 0)
(0.207567 0.00246257 0)
(0.207454 0.00240882 0)
(0.207333 0.00235722 0)
(0.207203 0.00230762 0)
(0.207064 0.00225989 0)
(0.206917 0.0022139 0)
(0.206761 0.00216954 0)
(0.206598 0.0021267 0)
(0.206426 0.0020853 0)
(0.206246 0.00204524 0)
(0.206058 0.00200645 0)
(0.205862 0.00196884 0)
(0.205658 0.00193236 0)
(0.205447 0.00189693 0)
(0.205228 0.0018625 0)
(0.205001 0.00182902 0)
(0.204768 0.00179644 0)
(0.204527 0.0017647 0)
(0.20428 0.00173378 0)
(0.204025 0.00170363 0)
(0.203764 0.00167421 0)
(0.203496 0.0016455 0)
(0.203222 0.00161746 0)
(0.202942 0.00159006 0)
(0.202656 0.00156327 0)
(0.202363 0.00153708 0)
(0.202065 0.00151145 0)
(0.201762 0.00148637 0)
(0.201452 0.00146182 0)
(0.201138 0.00143778 0)
(0.200818 0.00141423 0)
(0.200494 0.00139115 0)
(0.200164 0.00136854 0)
(0.19983 0.00134637 0)
(0.199491 0.00132463 0)
(0.199148 0.00130332 0)
(0.198801 0.00128241 0)
(0.19845 0.0012619 0)
(0.198094 0.00124178 0)
(0.197735 0.00122203 0)
(0.197372 0.00120266 0)
(0.197006 0.00118364 0)
(0.196636 0.00116498 0)
(0.196263 0.00114666 0)
(0.195887 0.00112868 0)
(0.195508 0.00111103 0)
(0.195126 0.00109371 0)
(0.194742 0.0010767 0)
(0.194354 0.00106001 0)
(0.193965 0.00104362 0)
(0.193573 0.00102753 0)
(0.193178 0.00101174 0)
(0.192782 0.000996237 0)
(0.192383 0.000981019 0)
(0.191983 0.000966098 0)
(0.19158 0.000951515 0)
(0.191177 0.000937392 0)
(0.190773 0.000924022 0)
(0.19037 0.000911858 0)
(0.189978 0.000899731 0)
(0.189521 0.000869677 0)
(0.199069 0.00588182 0)
(0.199684 0.00645804 0)
(0.200388 0.00690223 0)
(0.201138 0.00721031 0)
(0.201902 0.00739404 0)
(0.202653 0.00746694 0)
(0.203375 0.00744211 0)
(0.204054 0.00733424 0)
(0.204677 0.00715964 0)
(0.20524 0.00693497 0)
(0.20574 0.00667599 0)
(0.206178 0.00639683 0)
(0.206559 0.00610958 0)
(0.206888 0.0058239 0)
(0.207171 0.00554701 0)
(0.207416 0.00528382 0)
(0.207628 0.00503724 0)
(0.207815 0.00480857 0)
(0.20798 0.00459794 0)
(0.208129 0.00440467 0)
(0.208265 0.00422758 0)
(0.20839 0.00406527 0)
(0.208506 0.00391624 0)
(0.208615 0.00377904 0)
(0.208717 0.00365235 0)
(0.208814 0.00353496 0)
(0.208905 0.00342582 0)
(0.208991 0.00332403 0)
(0.209072 0.0032288 0)
(0.209148 0.00313948 0)
(0.209219 0.00305548 0)
(0.209285 0.0029763 0)
(0.209346 0.00290153 0)
(0.209401 0.00283078 0)
(0.209452 0.00276371 0)
(0.209497 0.00270003 0)
(0.209537 0.00263948 0)
(0.209572 0.0025818 0)
(0.209601 0.0025268 0)
(0.209625 0.00247426 0)
(0.209643 0.002424 0)
(0.209655 0.00237587 0)
(0.209661 0.00232971 0)
(0.209662 0.00228538 0)
(0.209656 0.00224275 0)
(0.209645 0.00220172 0)
(0.209628 0.00216216 0)
(0.209604 0.00212399 0)
(0.209575 0.00208712 0)
(0.209539 0.00205145 0)
(0.209498 0.00201691 0)
(0.20945 0.00198344 0)
(0.209396 0.00195096 0)
(0.209336 0.00191941 0)
(0.20927 0.00188875 0)
(0.209197 0.00185892 0)
(0.209119 0.00182987 0)
(0.209034 0.00180156 0)
(0.208943 0.00177395 0)
(0.208846 0.00174701 0)
(0.208744 0.00172069 0)
(0.208635 0.00169496 0)
(0.20852 0.00166981 0)
(0.208399 0.00164519 0)
(0.208272 0.0016211 0)
(0.20814 0.00159749 0)
(0.208001 0.00157436 0)
(0.207857 0.00155167 0)
(0.207708 0.00152942 0)
(0.207553 0.00150759 0)
(0.207392 0.00148616 0)
(0.207226 0.00146512 0)
(0.207054 0.00144445 0)
(0.206877 0.00142413 0)
(0.206695 0.00140417 0)
(0.206508 0.00138455 0)
(0.206315 0.00136526 0)
(0.206118 0.00134628 0)
(0.205916 0.00132762 0)
(0.205709 0.00130926 0)
(0.205497 0.00129119 0)
(0.20528 0.00127342 0)
(0.205059 0.00125593 0)
(0.204834 0.00123872 0)
(0.204604 0.00122178 0)
(0.204369 0.00120511 0)
(0.204131 0.0011887 0)
(0.203888 0.00117255 0)
(0.203642 0.00115665 0)
(0.203391 0.00114101 0)
(0.203136 0.0011256 0)
(0.202878 0.00111044 0)
(0.202616 0.00109551 0)
(0.20235 0.00108081 0)
(0.202081 0.00106637 0)
(0.201809 0.00105221 0)
(0.201535 0.00103835 0)
(0.20126 0.00102435 0)
(0.200992 0.00100679 0)
(0.200672 0.000966226 0)
(0.199458 0.00554077 0)
(0.200004 0.00604352 0)
(0.200626 0.00644444 0)
(0.201296 0.00673443 0)
(0.201986 0.00691794 0)
(0.202673 0.00700395 0)
(0.20334 0.00700276 0)
(0.203973 0.00692622 0)
(0.204561 0.00678778 0)
(0.2051 0.00660146 0)
(0.205585 0.00638084 0)
(0.206018 0.00613833 0)
(0.206401 0.00588472 0)
(0.206738 0.0056289 0)
(0.207034 0.00537775 0)
(0.207295 0.00513616 0)
(0.207527 0.00490734 0)
(0.207735 0.00469303 0)
(0.207923 0.00449387 0)
(0.208096 0.00430971 0)
(0.208257 0.00413986 0)
(0.208408 0.00398336 0)
(0.208552 0.00383906 0)
(0.208689 0.0037058 0)
(0.208821 0.00358249 0)
(0.208949 0.00346808 0)
(0.209073 0.00336166 0)
(0.209194 0.00326241 0)
(0.209312 0.0031696 0)
(0.209427 0.00308262 0)
(0.209539 0.00300092 0)
(0.209649 0.00292403 0)
(0.209756 0.00285153 0)
(0.20986 0.00278305 0)
(0.209961 0.00271826 0)
(0.210059 0.00265688 0)
(0.210155 0.00259863 0)
(0.210248 0.00254328 0)
(0.210337 0.00249061 0)
(0.210424 0.00244043 0)
(0.210508 0.00239255 0)
(0.210588 0.0023468 0)
(0.210665 0.00230304 0)
(0.210739 0.00226113 0)
(0.210809 0.00222093 0)
(0.210876 0.00218233 0)
(0.210939 0.00214522 0)
(0.210999 0.0021095 0)
(0.211055 0.00207507 0)
(0.211107 0.00204185 0)
(0.211155 0.00200975 0)
(0.2112 0.00197872 0)
(0.21124 0.00194867 0)
(0.211276 0.00191955 0)
(0.211308 0.00189129 0)
(0.211336 0.00186386 0)
(0.21136 0.00183718 0)
(0.21138 0.00181123 0)
(0.211395 0.00178596 0)
(0.211406 0.00176132 0)
(0.211413 0.00173729 0)
(0.211415 0.00171383 0)
(0.211413 0.0016909 0)
(0.211406 0.00166849 0)
(0.211395 0.00164656 0)
(0.211379 0.00162509 0)
(0.211358 0.00160405 0)
(0.211334 0.00158344 0)
(0.211304 0.00156322 0)
(0.21127 0.00154337 0)
(0.211232 0.00152389 0)
(0.211189 0.00150476 0)
(0.211141 0.00148596 0)
(0.211089 0.00146747 0)
(0.211032 0.0014493 0)
(0.210971 0.00143142 0)
(0.210905 0.00141383 0)
(0.210834 0.00139651 0)
(0.210759 0.00137946 0)
(0.21068 0.00136267 0)
(0.210596 0.00134613 0)
(0.210507 0.00132984 0)
(0.210415 0.00131379 0)
(0.210317 0.00129797 0)
(0.210216 0.00128239 0)
(0.21011 0.00126702 0)
(0.21 0.00125188 0)
(0.209885 0.00123695 0)
(0.209766 0.00122224 0)
(0.209643 0.00120773 0)
(0.209516 0.00119343 0)
(0.209385 0.00117932 0)
(0.209249 0.00116539 0)
(0.20911 0.00115164 0)
(0.208966 0.00113805 0)
(0.208819 0.00112456 0)
(0.208669 0.00111094 0)
(0.208518 0.00109613 0)
(0.208369 0.00107577 0)
(0.208182 0.00103267 0)
(0.199806 0.0052218 0)
(0.200297 0.00566081 0)
(0.200852 0.00602031 0)
(0.201452 0.00628972 0)
(0.202077 0.00646896 0)
(0.202704 0.00656332 0)
(0.203319 0.00658045 0)
(0.203908 0.00652979 0)
(0.204462 0.00642224 0)
(0.204975 0.00626946 0)
(0.205443 0.00608301 0)
(0.205866 0.00587366 0)
(0.206245 0.00565099 0)
(0.206584 0.00542306 0)
(0.206886 0.00519632 0)
(0.207156 0.00497556 0)
(0.207398 0.00476413 0)
(0.207618 0.00456408 0)
(0.207819 0.00437646 0)
(0.208005 0.00420155 0)
(0.208178 0.00403909 0)
(0.208342 0.00388849 0)
(0.208499 0.00374893 0)
(0.208649 0.00361956 0)
(0.208795 0.00349946 0)
(0.208936 0.00338778 0)
(0.209074 0.00328373 0)
(0.20921 0.00318658 0)
(0.209343 0.0030957 0)
(0.209473 0.00301051 0)
(0.209602 0.00293051 0)
(0.209729 0.00285524 0)
(0.209854 0.00278432 0)
(0.209978 0.00271739 0)
(0.2101 0.00265413 0)
(0.21022 0.00259427 0)
(0.210339 0.00253753 0)
(0.210456 0.0024837 0)
(0.210572 0.00243255 0)
(0.210686 0.0023839 0)
(0.210798 0.00233756 0)
(0.210909 0.00229337 0)
(0.211018 0.00225118 0)
(0.211125 0.00221085 0)
(0.21123 0.00217225 0)
(0.211334 0.00213526 0)
(0.211435 0.00209978 0)
(0.211535 0.0020657 0)
(0.211632 0.00203293 0)
(0.211728 0.00200139 0)
(0.211821 0.00197098 0)
(0.211913 0.00194165 0)
(0.212001 0.00191331 0)
(0.212088 0.00188591 0)
(0.212172 0.00185939 0)
(0.212254 0.00183369 0)
(0.212334 0.00180877 0)
(0.212411 0.00178457 0)
(0.212485 0.00176105 0)
(0.212557 0.00173818 0)
(0.212626 0.00171591 0)
(0.212693 0.00169421 0)
(0.212756 0.00167305 0)
(0.212817 0.0016524 0)
(0.212875 0.00163223 0)
(0.21293 0.00161251 0)
(0.212982 0.00159323 0)
(0.213031 0.00157435 0)
(0.213077 0.00155586 0)
(0.21312 0.00153774 0)
(0.21316 0.00151998 0)
(0.213197 0.00150254 0)
(0.21323 0.00148543 0)
(0.21326 0.00146863 0)
(0.213288 0.00145211 0)
(0.213311 0.00143588 0)
(0.213332 0.00141992 0)
(0.213349 0.00140421 0)
(0.213363 0.00138876 0)
(0.213373 0.00137355 0)
(0.21338 0.00135857 0)
(0.213384 0.00134382 0)
(0.213384 0.00132928 0)
(0.21338 0.00131496 0)
(0.213374 0.00130085 0)
(0.213363 0.00128694 0)
(0.213349 0.00127322 0)
(0.213332 0.00125971 0)
(0.213311 0.00124638 0)
(0.213287 0.00123323 0)
(0.213259 0.00122026 0)
(0.213227 0.00120746 0)
(0.213192 0.00119482 0)
(0.213154 0.0011823 0)
(0.213112 0.00116987 0)
(0.213066 0.00115739 0)
(0.213018 0.00114445 0)
(0.212968 0.00112973 0)
(0.212917 0.00110901 0)
(0.212841 0.00106948 0)
(0.200119 0.00492029 0)
(0.200564 0.00530422 0)
(0.201063 0.00562523 0)
(0.201604 0.00587306 0)
(0.20217 0.00604511 0)
(0.202743 0.00614391 0)
(0.20331 0.00617487 0)
(0.203858 0.00614528 0)
(0.204378 0.00606386 0)
(0.204865 0.00594021 0)
(0.205315 0.00578403 0)
(0.205727 0.00560459 0)
(0.2061 0.00541028 0)
(0.206438 0.00520837 0)
(0.206742 0.00500478 0)
(0.207017 0.00480415 0)
(0.207267 0.00460983 0)
(0.207495 0.00442408 0)
(0.207705 0.00424825 0)
(0.2079 0.00408296 0)
(0.208082 0.00392831 0)
(0.208255 0.00378403 0)
(0.20842 0.00364962 0)
(0.208578 0.00352444 0)
(0.208731 0.00340782 0)
(0.20888 0.00329906 0)
(0.209026 0.0031975 0)
(0.209168 0.00310253 0)
(0.209308 0.00301356 0)
(0.209446 0.0029301 0)
(0.209583 0.00285168 0)
(0.209717 0.00277788 0)
(0.20985 0.00270835 0)
(0.209981 0.00264273 0)
(0.210112 0.00258074 0)
(0.210241 0.00252209 0)
(0.210369 0.00246655 0)
(0.210496 0.00241388 0)
(0.210622 0.00236388 0)
(0.210746 0.00231636 0)
(0.21087 0.00227115 0)
(0.210993 0.00222808 0)
(0.211115 0.002187 0)
(0.211235 0.00214779 0)
(0.211355 0.00211031 0)
(0.211474 0.00207445 0)
(0.211592 0.00204009 0)
(0.211708 0.00200715 0)
(0.211824 0.00197552 0)
(0.211938 0.00194512 0)
(0.212051 0.00191587 0)
(0.212163 0.0018877 0)
(0.212274 0.00186054 0)
(0.212384 0.00183432 0)
(0.212492 0.00180899 0)
(0.212599 0.00178449 0)
(0.212705 0.00176077 0)
(0.212809 0.00173779 0)
(0.212912 0.0017155 0)
(0.213014 0.00169385 0)
(0.213114 0.00167282 0)
(0.213213 0.00165237 0)
(0.21331 0.00163247 0)
(0.213405 0.00161308 0)
(0.213499 0.00159417 0)
(0.213592 0.00157573 0)
(0.213682 0.00155772 0)
(0.213771 0.00154013 0)
(0.213858 0.00152292 0)
(0.213944 0.0015061 0)
(0.214027 0.00148962 0)
(0.214109 0.00147349 0)
(0.214189 0.00145768 0)
(0.214267 0.00144217 0)
(0.214342 0.00142696 0)
(0.214416 0.00141202 0)
(0.214488 0.00139736 0)
(0.214558 0.00138296 0)
(0.214625 0.0013688 0)
(0.214691 0.00135489 0)
(0.214754 0.0013412 0)
(0.214815 0.00132774 0)
(0.214874 0.00131449 0)
(0.21493 0.00130145 0)
(0.214984 0.00128861 0)
(0.215036 0.00127597 0)
(0.215086 0.00126353 0)
(0.215132 0.00125127 0)
(0.215177 0.0012392 0)
(0.215219 0.0012273 0)
(0.215258 0.00121557 0)
(0.215295 0.001204 0)
(0.21533 0.00119257 0)
(0.215362 0.00118125 0)
(0.215391 0.00116996 0)
(0.215418 0.00115853 0)
(0.215442 0.00114646 0)
(0.215464 0.00113246 0)
(0.215483 0.00111316 0)
(0.215492 0.00108064 0)