/*--------------------------------*- C++ -*----------------------------------*\
| =========                 |                                                 |
| \\      /  F ield         | OpenFOAM: The Open Source CFD Toolbox           |
|  \\    /   O peration     | Version:  2.3.0                                 |
|   \\  /    A nd           | Web:      www.OpenFOAM.org                      |
|    \\/     M anipulation  |                                                 |
\*---------------------------------------------------------------------------*/
FoamFile
{
    version     2.0;
    format      ascii;
    class       volVectorField;
    location    "0.75";
    object      U_0;
}
// * * * * * * * * * * * * * * * * * * * * * * * * * * * * * * * * * * * * * //

dimensions      [0 1 -1 0 0 0 0];

internalField   nonuniform List<vector> 
8750
(
(0.171306 0.00595394 0)
(0.15486 0.00602812 0)
(0.139047 0.00561173 0)
(0.124055 0.00501473 0)
(0.110295 0.00435477 0)
(0.0979388 0.00368524 0)
(0.0869967 0.00304289 0)
(0.0774351 0.00245315 0)
(0.0691982 0.0019315 0)
(0.0622014 0.00148577 0)
(0.0563312 0.00111765 0)
(0.0514549 0.000823675 0)
(0.0474319 0.000596476 0)
(0.0441232 0.000426349 0)
(0.041399 0.000302786 0)
(0.0391436 0.00021567 0)
(0.0372579 0.000156023 0)
(0.0356606 0.000116347 0)
(0.0342868 9.06815e-05 0)
(0.0330861 7.44813e-05 0)
(0.0320203 6.44204e-05 0)
(0.0310612 5.81627e-05 0)
(0.0301877 5.41383e-05 0)
(0.0293847 5.13429e-05 0)
(0.0286408 4.9169e-05 0)
(0.0279477 4.72741e-05 0)
(0.0272989 4.54833e-05 0)
(0.0266893 4.3721e-05 0)
(0.0261151 4.19661e-05 0)
(0.0255727 4.02237e-05 0)
(0.0250593 3.85092e-05 0)
(0.0245724 3.68391e-05 0)
(0.0241098 3.52273e-05 0)
(0.0236696 3.36838e-05 0)
(0.0232498 3.22142e-05 0)
(0.0228491 3.08212e-05 0)
(0.0224659 2.95047e-05 0)
(0.0220989 2.82626e-05 0)
(0.0217471 2.7092e-05 0)
(0.0214093 2.59891e-05 0)
(0.0210846 2.49498e-05 0)
(0.0207721 2.397e-05 0)
(0.020471 2.30458e-05 0)
(0.0201806 2.21731e-05 0)
(0.0199004 2.13484e-05 0)
(0.0196295 2.05683e-05 0)
(0.0193676 1.98297e-05 0)
(0.0191141 1.91295e-05 0)
(0.0188686 1.84652e-05 0)
(0.0186306 1.78344e-05 0)
(0.0183997 1.72348e-05 0)
(0.0181756 1.66643e-05 0)
(0.0179579 1.61211e-05 0)
(0.0177464 1.56033e-05 0)
(0.0175406 1.51094e-05 0)
(0.0173404 1.4638e-05 0)
(0.0171455 1.41875e-05 0)
(0.0169556 1.37569e-05 0)
(0.0167706 1.33449e-05 0)
(0.0165902 1.29505e-05 0)
(0.0164142 1.25726e-05 0)
(0.0162425 1.22103e-05 0)
(0.0160748 1.18629e-05 0)
(0.015911 1.15294e-05 0)
(0.015751 1.12092e-05 0)
(0.0155947 1.09015e-05 0)
(0.0154418 1.06058e-05 0)
(0.0152922 1.03214e-05 0)
(0.0151459 1.00478e-05 0)
(0.0150026 9.78456e-06 0)
(0.0148624 9.53112e-06 0)
(0.0147251 9.2871e-06 0)
(0.0145906 9.05207e-06 0)
(0.0144587 8.82565e-06 0)
(0.0143295 8.60758e-06 0)
(0.0142028 8.39744e-06 0)
(0.0140786 8.19504e-06 0)
(0.0139567 8.00009e-06 0)
(0.0138371 7.81236e-06 0)
(0.0137196 7.63167e-06 0)
(0.0136044 7.45785e-06 0)
(0.0134912 7.29076e-06 0)
(0.01338 7.13029e-06 0)
(0.0132707 6.97636e-06 0)
(0.0131632 6.82894e-06 0)
(0.0130576 6.68804e-06 0)
(0.0129537 6.55373e-06 0)
(0.0128514 6.42608e-06 0)
(0.0127507 6.30537e-06 0)
(0.0126516 6.19192e-06 0)
(0.0125538 6.08629e-06 0)
(0.0124574 5.98934e-06 0)
(0.0123622 5.90264e-06 0)
(0.0122681 5.82904e-06 0)
(0.012175 5.77425e-06 0)
(0.0120825 5.75098e-06 0)
(0.0119902 5.79617e-06 0)
(0.011896 5.97133e-06 0)
(0.0118173 5.14251e-06 0)
(0.0115613 3.57692e-05 0)
(0.190149 0.00939845 0)
(0.18782 0.00990677 0)
(0.183879 0.00968213 0)
(0.178685 0.00918457 0)
(0.172744 0.00855243 0)
(0.166406 0.00783187 0)
(0.159894 0.0070608 0)
(0.153377 0.00627406 0)
(0.146989 0.00550085 0)
(0.140831 0.00476509 0)
(0.134971 0.00408552 0)
(0.129449 0.00347502 0)
(0.124285 0.00294042 0)
(0.11948 0.00248293 0)
(0.115026 0.00209917 0)
(0.110908 0.00178249 0)
(0.107105 0.0015244 0)
(0.103592 0.0013157 0)
(0.100345 0.00114746 0)
(0.097341 0.0010116 0)
(0.0945559 0.000901189 0)
(0.0919686 0.000810568 0)
(0.0895592 0.000735245 0)
(0.0873101 0.000671759 0)
(0.0852053 0.000617495 0)
(0.0832307 0.000570502 0)
(0.0813738 0.000529331 0)
(0.0796235 0.000492906 0)
(0.0779701 0.00046042 0)
(0.076405 0.000431256 0)
(0.0749204 0.000404933 0)
(0.0735097 0.00038107 0)
(0.0721667 0.000359356 0)
(0.0708861 0.000339531 0)
(0.0696632 0.000321376 0)
(0.0684935 0.000304706 0)
(0.0673731 0.000289357 0)
(0.0662987 0.000275191 0)
(0.065267 0.000262083 0)
(0.0642752 0.000249927 0)
(0.0633206 0.000238629 0)
(0.0624009 0.000228106 0)
(0.0615139 0.000218286 0)
(0.0606576 0.000209103 0)
(0.0598303 0.000200501 0)
(0.0590303 0.000192429 0)
(0.058256 0.000184842 0)
(0.057506 0.0001777 0)
(0.0567791 0.000170968 0)
(0.056074 0.000164612 0)
(0.0553896 0.000158604 0)
(0.0547249 0.000152917 0)
(0.0540789 0.000147529 0)
(0.0534508 0.000142417 0)
(0.0528396 0.000137562 0)
(0.0522447 0.000132946 0)
(0.0516652 0.000128554 0)
(0.0511006 0.000124369 0)
(0.0505501 0.00012038 0)
(0.0500133 0.000116572 0)
(0.0494894 0.000112935 0)
(0.048978 0.000109459 0)
(0.0484786 0.000106133 0)
(0.0479908 0.000102948 0)
(0.047514 9.98972e-05 0)
(0.0470479 9.69719e-05 0)
(0.0465921 9.41652e-05 0)
(0.0461462 9.14707e-05 0)
(0.0457099 8.88823e-05 0)
(0.0452828 8.63942e-05 0)
(0.0448646 8.40014e-05 0)
(0.044455 8.16991e-05 0)
(0.0440538 7.94827e-05 0)
(0.0436606 7.7348e-05 0)
(0.0432753 7.52914e-05 0)
(0.0428975 7.33091e-05 0)
(0.042527 7.13979e-05 0)
(0.0421637 6.9555e-05 0)
(0.0418072 6.77774e-05 0)
(0.0414574 6.60627e-05 0)
(0.0411141 6.44087e-05 0)
(0.0407771 6.28135e-05 0)
(0.0404462 6.12751e-05 0)
(0.0401212 5.97922e-05 0)
(0.039802 5.83637e-05 0)
(0.0394883 5.69885e-05 0)
(0.03918 5.56662e-05 0)
(0.0388769 5.43967e-05 0)
(0.0385788 5.31805e-05 0)
(0.0382856 5.20189e-05 0)
(0.0379969 5.09141e-05 0)
(0.0377128 4.98706e-05 0)
(0.0374327 4.88964e-05 0)
(0.0371566 4.80064e-05 0)
(0.036884 4.72325e-05 0)
(0.0366143 4.66491e-05 0)
(0.0363465 4.64571e-05 0)
(0.0360766 4.71646e-05 0)
(0.0358257 5.19206e-05 0)
(0.0353101 0.000123377 0)
(0.193135 0.0090324 0)
(0.193918 0.00998744 0)
(0.194036 0.0103175 0)
(0.193343 0.0103193 0)
(0.191956 0.0100932 0)
(0.189999 0.00967758 0)
(0.187567 0.00911736 0)
(0.184748 0.00846217 0)
(0.181639 0.00775723 0)
(0.178328 0.00704084 0)
(0.174894 0.00634374 0)
(0.171401 0.00568857 0)
(0.1679 0.00508978 0)
(0.164431 0.00455441 0)
(0.161024 0.00408353 0)
(0.157697 0.00367395 0)
(0.154463 0.00331991 0)
(0.151331 0.00301445 0)
(0.148303 0.00275044 0)
(0.145379 0.00252127 0)
(0.14256 0.0023211 0)
(0.139843 0.00214507 0)
(0.137225 0.00198917 0)
(0.134702 0.00185019 0)
(0.132272 0.00172555 0)
(0.12993 0.00161319 0)
(0.127673 0.00151146 0)
(0.125498 0.00141901 0)
(0.123401 0.00133474 0)
(0.121378 0.0012577 0)
(0.119427 0.0011871 0)
(0.117544 0.00112227 0)
(0.115727 0.00106261 0)
(0.113971 0.00100759 0)
(0.112274 0.000956758 0)
(0.110633 0.000909708 0)
(0.109047 0.000866077 0)
(0.107511 0.000825545 0)
(0.106024 0.000787824 0)
(0.104583 0.000752659 0)
(0.103187 0.000719822 0)
(0.101833 0.000689108 0)
(0.100519 0.000660335 0)
(0.0992428 0.000633339 0)
(0.0980036 0.000607973 0)
(0.0967994 0.000584105 0)
(0.0956285 0.000561614 0)
(0.0944895 0.000540395 0)
(0.093381 0.000520349 0)
(0.0923016 0.000501388 0)
(0.0912503 0.000483434 0)
(0.0902257 0.000466412 0)
(0.0892268 0.000450258 0)
(0.0882526 0.00043491 0)
(0.087302 0.000420314 0)
(0.0863741 0.00040642 0)
(0.0854681 0.000393181 0)
(0.0845831 0.000380555 0)
(0.0837183 0.000368503 0)
(0.082873 0.000356988 0)
(0.0820465 0.000345979 0)
(0.0812381 0.000335445 0)
(0.0804471 0.000325357 0)
(0.0796731 0.00031569 0)
(0.0789153 0.000306418 0)
(0.0781733 0.00029752 0)
(0.0774465 0.000288976 0)
(0.0767345 0.000280765 0)
(0.0760367 0.00027287 0)
(0.0753528 0.000265274 0)
(0.0746823 0.000257961 0)
(0.0740248 0.000250918 0)
(0.07338 0.000244131 0)
(0.0727474 0.000237587 0)
(0.0721267 0.000231275 0)
(0.0715176 0.000225184 0)
(0.0709197 0.000219304 0)
(0.0703329 0.000213625 0)
(0.0697566 0.000208141 0)
(0.0691908 0.000202841 0)
(0.068635 0.000197721 0)
(0.0680891 0.000192773 0)
(0.0675528 0.000187991 0)
(0.0670257 0.000183371 0)
(0.0665078 0.000178908 0)
(0.0659987 0.000174599 0)
(0.0654983 0.000170442 0)
(0.0650061 0.000166436 0)
(0.0645222 0.00016258 0)
(0.064046 0.000158877 0)
(0.0635775 0.000155332 0)
(0.0631164 0.000151954 0)
(0.0626622 0.000148762 0)
(0.0622147 0.00014579 0)
(0.0617733 0.000143115 0)
(0.0613373 0.000140916 0)
(0.0609054 0.000139675 0)
(0.0604735 0.00014087 0)
(0.0600555 0.000155553 0)
(0.0593881 0.000244795 0)
(0.19416 0.00839491 0)
(0.195328 0.00944917 0)
(0.196379 0.0100034 0)
(0.197096 0.0102425 0)
(0.19746 0.0102496 0)
(0.197478 0.010057 0)
(0.197148 0.00970045 0)
(0.196479 0.00922301 0)
(0.195498 0.00866656 0)
(0.194243 0.00806845 0)
(0.192758 0.00746041 0)
(0.191088 0.00686762 0)
(0.189275 0.00630807 0)
(0.187355 0.00579283 0)
(0.185361 0.00532703 0)
(0.183318 0.0049112 0)
(0.181246 0.00454278 0)
(0.179161 0.00421734 0)
(0.177073 0.0039297 0)
(0.174992 0.00367456 0)
(0.172923 0.00344703 0)
(0.170871 0.00324277 0)
(0.168838 0.00305816 0)
(0.166828 0.00289018 0)
(0.164842 0.00273643 0)
(0.162882 0.00259496 0)
(0.160949 0.00246422 0)
(0.159045 0.00234297 0)
(0.15717 0.0022302 0)
(0.155326 0.00212505 0)
(0.153512 0.00202683 0)
(0.151729 0.00193494 0)
(0.149977 0.00184883 0)
(0.148257 0.00176806 0)
(0.146568 0.0016922 0)
(0.144911 0.00162088 0)
(0.143285 0.00155376 0)
(0.14169 0.00149053 0)
(0.140126 0.0014309 0)
(0.138592 0.00137463 0)
(0.137088 0.00132146 0)
(0.135613 0.00127118 0)
(0.134168 0.0012236 0)
(0.13275 0.00117852 0)
(0.131361 0.00113579 0)
(0.129999 0.00109523 0)
(0.128663 0.00105671 0)
(0.127354 0.0010201 0)
(0.12607 0.000985271 0)
(0.12481 0.000952112 0)
(0.123576 0.000920517 0)
(0.122364 0.000890389 0)
(0.121176 0.000861639 0)
(0.120011 0.000834183 0)
(0.118867 0.000807945 0)
(0.117745 0.000782851 0)
(0.116644 0.000758836 0)
(0.115563 0.000735837 0)
(0.114502 0.000713797 0)
(0.11346 0.000692661 0)
(0.112437 0.00067238 0)
(0.111432 0.000652907 0)
(0.110446 0.000634198 0)
(0.109476 0.000616212 0)
(0.108524 0.000598912 0)
(0.107589 0.00058226 0)
(0.106669 0.000566225 0)
(0.105766 0.000550775 0)
(0.104878 0.00053588 0)
(0.104005 0.000521514 0)
(0.103147 0.00050765 0)
(0.102303 0.000494265 0)
(0.101473 0.000481336 0)
(0.100657 0.000468842 0)
(0.0998549 0.000456764 0)
(0.0990657 0.000445082 0)
(0.0982893 0.00043378 0)
(0.0975256 0.000422842 0)
(0.0967742 0.000412254 0)
(0.096035 0.000402 0)
(0.0953076 0.00039207 0)
(0.0945918 0.000382452 0)
(0.0938873 0.000373135 0)
(0.0931941 0.000364111 0)
(0.0925117 0.000355371 0)
(0.09184 0.000346911 0)
(0.0911788 0.000338724 0)
(0.0905278 0.000330808 0)
(0.0898869 0.000323163 0)
(0.0892557 0.000315792 0)
(0.088634 0.000308703 0)
(0.0880215 0.00030191 0)
(0.0874179 0.000295444 0)
(0.0868229 0.000289363 0)
(0.0862359 0.00028379 0)
(0.0856561 0.000279019 0)
(0.0850822 0.00027585 0)
(0.084511 0.00027693 0)
(0.0839522 0.000297143 0)
(0.0831809 0.00038422 0)
(0.194871 0.0078925 0)
(0.195914 0.00888868 0)
(0.197022 0.00948389 0)
(0.198021 0.00979816 0)
(0.19887 0.00990505 0)
(0.199552 0.00983442 0)
(0.20004 0.00961261 0)
(0.200313 0.00927216 0)
(0.200363 0.00884689 0)
(0.200196 0.00836847 0)
(0.199828 0.00786508 0)
(0.19928 0.00736029 0)
(0.198576 0.00687221 0)
(0.197742 0.00641318 0)
(0.1968 0.00599029 0)
(0.195771 0.00560629 0)
(0.194673 0.00526077 0)
(0.19352 0.00495123 0)
(0.192323 0.00467407 0)
(0.19109 0.00442524 0)
(0.189828 0.0042008 0)
(0.188543 0.00399712 0)
(0.187237 0.00381106 0)
(0.185916 0.00364002 0)
(0.18458 0.00348183 0)
(0.183234 0.00333476 0)
(0.181878 0.00319742 0)
(0.180516 0.00306869 0)
(0.179148 0.00294767 0)
(0.177777 0.0028336 0)
(0.176404 0.00272587 0)
(0.175031 0.00262396 0)
(0.17366 0.0025274 0)
(0.172291 0.0024358 0)
(0.170925 0.00234881 0)
(0.169565 0.00226611 0)
(0.16821 0.00218742 0)
(0.166863 0.00211247 0)
(0.165523 0.00204103 0)
(0.164192 0.00197289 0)
(0.16287 0.00190784 0)
(0.161557 0.00184569 0)
(0.160255 0.00178629 0)
(0.158964 0.00172947 0)
(0.157684 0.00167509 0)
(0.156416 0.00162301 0)
(0.15516 0.00157311 0)
(0.153916 0.00152527 0)
(0.152685 0.00147938 0)
(0.151467 0.00143533 0)
(0.150261 0.00139304 0)
(0.149068 0.00135241 0)
(0.147889 0.00131336 0)
(0.146723 0.0012758 0)
(0.14557 0.00123967 0)
(0.14443 0.00120489 0)
(0.143304 0.0011714 0)
(0.142191 0.00113914 0)
(0.141091 0.00110804 0)
(0.140004 0.00107805 0)
(0.13893 0.00104912 0)
(0.13787 0.0010212 0)
(0.136823 0.000994246 0)
(0.135788 0.000968206 0)
(0.134766 0.000943043 0)
(0.133757 0.000918716 0)
(0.132761 0.000895188 0)
(0.131777 0.000872424 0)
(0.130806 0.000850391 0)
(0.129847 0.000829056 0)
(0.1289 0.00080839 0)
(0.127965 0.000788364 0)
(0.127042 0.000768951 0)
(0.126131 0.000750127 0)
(0.125232 0.000731866 0)
(0.124344 0.000714148 0)
(0.123467 0.00069695 0)
(0.122602 0.000680254 0)
(0.121749 0.00066404 0)
(0.120906 0.000648291 0)
(0.120074 0.000632992 0)
(0.119253 0.000618129 0)
(0.118443 0.000603688 0)
(0.117644 0.000589659 0)
(0.116855 0.000576031 0)
(0.116076 0.000562796 0)
(0.115307 0.000549949 0)
(0.114549 0.000537487 0)
(0.113801 0.00052541 0)
(0.113062 0.000513722 0)
(0.112333 0.000502436 0)
(0.111614 0.000491572 0)
(0.110903 0.000481174 0)
(0.110202 0.000471323 0)
(0.109509 0.000462189 0)
(0.108823 0.000454178 0)
(0.108145 0.000448371 0)
(0.107471 0.000448276 0)
(0.106812 0.000468563 0)
(0.105974 0.000539873 0)
(0.195472 0.00746101 0)
(0.196347 0.00836051 0)
(0.197336 0.00894589 0)
(0.198307 0.00928689 0)
(0.199215 0.00944171 0)
(0.200039 0.00943803 0)
(0.200757 0.00929749 0)
(0.201345 0.00904629 0)
(0.201788 0.00871269 0)
(0.20208 0.0083238 0)
(0.202225 0.00790416 0)
(0.202231 0.00747483 0)
(0.202111 0.00705258 0)
(0.20188 0.00664948 0)
(0.201554 0.00627313 0)
(0.201147 0.00592733 0)
(0.200671 0.00561291 0)
(0.200138 0.00532867 0)
(0.199555 0.00507219 0)
(0.198931 0.00484043 0)
(0.19827 0.00463024 0)
(0.197576 0.0044386 0)
(0.196852 0.00426282 0)
(0.196101 0.00410059 0)
(0.195325 0.00394998 0)
(0.194525 0.0038094 0)
(0.193703 0.00367755 0)
(0.19286 0.00355339 0)
(0.191998 0.00343608 0)
(0.191118 0.00332491 0)
(0.190221 0.00321931 0)
(0.189309 0.00311879 0)
(0.188382 0.00302295 0)
(0.187442 0.00293143 0)
(0.186491 0.00284392 0)
(0.185528 0.00276013 0)
(0.184556 0.00267983 0)
(0.183575 0.0026028 0)
(0.182586 0.00252883 0)
(0.18159 0.00245774 0)
(0.180588 0.00238938 0)
(0.179581 0.00232358 0)
(0.17857 0.00226021 0)
(0.177556 0.00219914 0)
(0.176538 0.00214026 0)
(0.175518 0.00208345 0)
(0.174497 0.00202861 0)
(0.173476 0.00197565 0)
(0.172454 0.00192449 0)
(0.171432 0.00187503 0)
(0.170412 0.00182721 0)
(0.169393 0.00178094 0)
(0.168375 0.00173617 0)
(0.167361 0.00169283 0)
(0.166349 0.00165085 0)
(0.16534 0.00161018 0)
(0.164335 0.00157078 0)
(0.163333 0.00153257 0)
(0.162336 0.00149552 0)
(0.161344 0.00145958 0)
(0.160356 0.00142471 0)
(0.159373 0.00139086 0)
(0.158396 0.001358 0)
(0.157425 0.00132608 0)
(0.156459 0.00129507 0)
(0.155499 0.00126494 0)
(0.154545 0.00123565 0)
(0.153598 0.00120717 0)
(0.152657 0.00117947 0)
(0.151723 0.00115252 0)
(0.150796 0.00112629 0)
(0.149876 0.00110076 0)
(0.148962 0.00107591 0)
(0.148056 0.0010517 0)
(0.147157 0.00102812 0)
(0.146266 0.00100515 0)
(0.145382 0.000982761 0)
(0.144505 0.000960939 0)
(0.143636 0.000939665 0)
(0.142774 0.000918922 0)
(0.141921 0.000898697 0)
(0.141075 0.000878975 0)
(0.140237 0.000859743 0)
(0.139406 0.000840992 0)
(0.138584 0.000822711 0)
(0.137769 0.000804895 0)
(0.136962 0.000787539 0)
(0.136163 0.000770642 0)
(0.135372 0.000754207 0)
(0.134589 0.000738243 0)
(0.133814 0.000722766 0)
(0.133046 0.000707807 0)
(0.132286 0.000693421 0)
(0.131534 0.000679711 0)
(0.130788 0.000666892 0)
(0.13005 0.000655449 0)
(0.129317 0.000646639 0)
(0.128591 0.000644172 0)
(0.127882 0.000659907 0)
(0.12702 0.000707563 0)
(0.195996 0.00709154 0)
(0.196734 0.00789433 0)
(0.197593 0.00845334 0)
(0.198472 0.00880183 0)
(0.199325 0.00898141 0)
(0.200131 0.00901687 0)
(0.200869 0.00892754 0)
(0.201521 0.00873573 0)
(0.202073 0.00846578 0)
(0.202518 0.0081414 0)
(0.202855 0.00778419 0)
(0.203088 0.00741289 0)
(0.203225 0.00704277 0)
(0.203277 0.00668521 0)
(0.203253 0.00634782 0)
(0.203165 0.0060349 0)
(0.203022 0.00574808 0)
(0.202833 0.00548705 0)
(0.202603 0.00525027 0)
(0.202339 0.00503549 0)
(0.202044 0.00484018 0)
(0.201721 0.00466184 0)
(0.201372 0.00449812 0)
(0.201 0.00434697 0)
(0.200604 0.00420663 0)
(0.200187 0.00407562 0)
(0.199748 0.00395271 0)
(0.199288 0.00383691 0)
(0.198809 0.0037274 0)
(0.19831 0.00362349 0)
(0.197792 0.00352463 0)
(0.197256 0.00343034 0)
(0.196702 0.00334022 0)
(0.196131 0.00325393 0)
(0.195543 0.00317116 0)
(0.19494 0.00309166 0)
(0.194321 0.0030152 0)
(0.193688 0.00294157 0)
(0.193041 0.00287058 0)
(0.19238 0.00280207 0)
(0.191707 0.00273589 0)
(0.191021 0.00267191 0)
(0.190324 0.00261 0)
(0.189616 0.00255004 0)
(0.188898 0.00249195 0)
(0.188169 0.00243561 0)
(0.187432 0.00238095 0)
(0.186686 0.00232789 0)
(0.185931 0.00227635 0)
(0.185169 0.00222627 0)
(0.1844 0.00217758 0)
(0.183625 0.00213022 0)
(0.182843 0.00208414 0)
(0.182056 0.00203929 0)
(0.181263 0.00199561 0)
(0.180466 0.00195307 0)
(0.179665 0.00191162 0)
(0.17886 0.00187122 0)
(0.178052 0.00183184 0)
(0.177241 0.00179343 0)
(0.176427 0.00175596 0)
(0.175611 0.0017194 0)
(0.174793 0.00168371 0)
(0.173974 0.00164888 0)
(0.173154 0.00161487 0)
(0.172333 0.00158164 0)
(0.171512 0.00154919 0)
(0.170691 0.00151748 0)
(0.16987 0.00148648 0)
(0.169049 0.00145619 0)
(0.16823 0.00142656 0)
(0.167411 0.00139759 0)
(0.166594 0.00136926 0)
(0.165778 0.00134153 0)
(0.164965 0.00131441 0)
(0.164153 0.00128786 0)
(0.163344 0.00126188 0)
(0.162537 0.00123645 0)
(0.161733 0.00121155 0)
(0.160932 0.00118717 0)
(0.160135 0.0011633 0)
(0.15934 0.00113994 0)
(0.158549 0.00111706 0)
(0.157762 0.00109466 0)
(0.156979 0.00107274 0)
(0.1562 0.0010513 0)
(0.155425 0.00103033 0)
(0.154654 0.00100984 0)
(0.153887 0.000989833 0)
(0.153126 0.000970325 0)
(0.152368 0.000951339 0)
(0.151616 0.000932915 0)
(0.150868 0.000915122 0)
(0.150125 0.000898081 0)
(0.149386 0.000882035 0)
(0.148652 0.000867509 0)
(0.147922 0.000855766 0)
(0.147197 0.000850065 0)
(0.146493 0.000858228 0)
(0.145655 0.000879417 0)
(0.196458 0.00677274 0)
(0.19709 0.0074863 0)
(0.197834 0.00801024 0)
(0.198618 0.00835502 0)
(0.199396 0.00854788 0)
(0.200144 0.00860966 0)
(0.200844 0.00855749 0)
(0.20148 0.00841043 0)
(0.20204 0.00818946 0)
(0.202516 0.00791533 0)
(0.202908 0.0076072 0)
(0.203218 0.00728189 0)
(0.203453 0.00695332 0)
(0.203619 0.00663223 0)
(0.203725 0.0063261 0)
(0.20378 0.00603955 0)
(0.203792 0.00577479 0)
(0.203768 0.00553223 0)
(0.203714 0.00531102 0)
(0.203634 0.00510959 0)
(0.203531 0.00492596 0)
(0.203408 0.00475807 0)
(0.203267 0.00460392 0)
(0.203108 0.0044617 0)
(0.202934 0.00432982 0)
(0.202743 0.0042069 0)
(0.202537 0.00409179 0)
(0.202316 0.00398354 0)
(0.20208 0.00388133 0)
(0.201828 0.0037845 0)
(0.201562 0.00369249 0)
(0.201281 0.00360481 0)
(0.200985 0.00352108 0)
(0.200674 0.00344094 0)
(0.200349 0.00336408 0)
(0.20001 0.00329024 0)
(0.199657 0.00321919 0)
(0.19929 0.00315071 0)
(0.198909 0.00308463 0)
(0.198515 0.00302078 0)
(0.198108 0.00295901 0)
(0.197687 0.00289918 0)
(0.197254 0.00284118 0)
(0.196809 0.00278489 0)
(0.196351 0.00273021 0)
(0.195882 0.00267705 0)
(0.195401 0.00262534 0)
(0.194909 0.00257499 0)
(0.194406 0.00252593 0)
(0.193892 0.00247811 0)
(0.193368 0.00243146 0)
(0.192834 0.00238593 0)
(0.19229 0.00234147 0)
(0.191737 0.00229804 0)
(0.191175 0.00225558 0)
(0.190605 0.00221407 0)
(0.190025 0.00217347 0)
(0.189438 0.00213373 0)
(0.188844 0.00209483 0)
(0.188242 0.00205674 0)
(0.187632 0.00201943 0)
(0.187017 0.00198287 0)
(0.186394 0.00194704 0)
(0.185766 0.00191191 0)
(0.185132 0.00187747 0)
(0.184493 0.00184368 0)
(0.183848 0.00181052 0)
(0.183199 0.00177799 0)
(0.182545 0.00174606 0)
(0.181887 0.00171471 0)
(0.181225 0.00168392 0)
(0.18056 0.00165369 0)
(0.179891 0.00162399 0)
(0.179219 0.00159482 0)
(0.178545 0.00156615 0)
(0.177868 0.00153797 0)
(0.177189 0.00151028 0)
(0.176508 0.00148306 0)
(0.175825 0.00145631 0)
(0.175141 0.00143001 0)
(0.174455 0.00140415 0)
(0.173769 0.00137874 0)
(0.173082 0.00135376 0)
(0.172395 0.00132921 0)
(0.171708 0.00130509 0)
(0.17102 0.0012814 0)
(0.170333 0.00125815 0)
(0.169646 0.00123534 0)
(0.16896 0.00121299 0)
(0.168274 0.00119112 0)
(0.16759 0.00116976 0)
(0.166907 0.00114895 0)
(0.166225 0.00112878 0)
(0.165544 0.00110937 0)
(0.164864 0.00109099 0)
(0.164186 0.00107414 0)
(0.16351 0.00105993 0)
(0.162839 0.00105071 0)
(0.162187 0.00105013 0)
(0.161415 0.00104642 0)
(0.196866 0.0064921 0)
(0.197415 0.00712574 0)
(0.198065 0.00761091 0)
(0.198762 0.00794535 0)
(0.199466 0.00814504 0)
(0.200152 0.00822619 0)
(0.200802 0.00820344 0)
(0.201401 0.00809293 0)
(0.201938 0.00791257 0)
(0.202406 0.00768045 0)
(0.202804 0.00741357 0)
(0.203134 0.00712703 0)
(0.203399 0.00683359 0)
(0.203607 0.00654331 0)
(0.203765 0.00626351 0)
(0.203879 0.00599901 0)
(0.203958 0.00575245 0)
(0.204006 0.00552483 0)
(0.204031 0.00531593 0)
(0.204035 0.00512473 0)
(0.204022 0.00494977 0)
(0.203995 0.00478943 0)
(0.203955 0.00464203 0)
(0.203903 0.00450602 0)
(0.203841 0.00437997 0)
(0.203769 0.00426264 0)
(0.203686 0.00415297 0)
(0.203594 0.00405005 0)
(0.203493 0.00395309 0)
(0.203381 0.00386145 0)
(0.20326 0.00377457 0)
(0.203128 0.00369199 0)
(0.202987 0.00361328 0)
(0.202836 0.0035381 0)
(0.202674 0.00346614 0)
(0.202502 0.00339713 0)
(0.202321 0.00333083 0)
(0.202128 0.00326703 0)
(0.201926 0.00320553 0)
(0.201713 0.00314616 0)
(0.201489 0.00308877 0)
(0.201255 0.00303322 0)
(0.201011 0.00297938 0)
(0.200756 0.00292715 0)
(0.200491 0.0028764 0)
(0.200216 0.00282706 0)
(0.19993 0.00277903 0)
(0.199635 0.00273224 0)
(0.199329 0.00268662 0)
(0.199013 0.00264209 0)
(0.198687 0.0025986 0)
(0.198351 0.0025561 0)
(0.198005 0.00251454 0)
(0.19765 0.00247386 0)
(0.197286 0.00243402 0)
(0.196912 0.00239499 0)
(0.196529 0.00235673 0)
(0.196137 0.0023192 0)
(0.195736 0.00228238 0)
(0.195326 0.00224622 0)
(0.194908 0.00221071 0)
(0.194481 0.00217583 0)
(0.194047 0.00214153 0)
(0.193604 0.00210781 0)
(0.193154 0.00207465 0)
(0.192696 0.00204201 0)
(0.192231 0.00200989 0)
(0.191759 0.00197827 0)
(0.191279 0.00194713 0)
(0.190793 0.00191645 0)
(0.190301 0.00188623 0)
(0.189802 0.00185644 0)
(0.189297 0.00182708 0)
(0.188787 0.00179814 0)
(0.188271 0.00176959 0)
(0.187749 0.00174144 0)
(0.187222 0.00171368 0)
(0.18669 0.00168628 0)
(0.186154 0.00165926 0)
(0.185613 0.0016326 0)
(0.185068 0.0016063 0)
(0.184519 0.00158036 0)
(0.183966 0.00155477 0)
(0.183409 0.00152953 0)
(0.182849 0.00150465 0)
(0.182286 0.00148012 0)
(0.18172 0.00145597 0)
(0.181151 0.00143219 0)
(0.18058 0.00140882 0)
(0.180006 0.00138587 0)
(0.17943 0.00136338 0)
(0.178852 0.0013414 0)
(0.178272 0.00132003 0)
(0.17769 0.00129939 0)
(0.177107 0.00127973 0)
(0.176523 0.0012615 0)
(0.175938 0.00124552 0)
(0.175356 0.00123307 0)
(0.17479 0.0012242 0)
(0.174117 0.00120037 0)
(0.197229 0.00624082 0)
(0.197713 0.00680431 0)
(0.198284 0.0072504 0)
(0.198904 0.00757049 0)
(0.19954 0.00777239 0)
(0.200167 0.00786779 0)
(0.200767 0.00786877 0)
(0.201326 0.00778887 0)
(0.201833 0.00764325 0)
(0.202282 0.00744759 0)
(0.202671 0.00721686 0)
(0.203 0.00696459 0)
(0.203273 0.00670241 0)
(0.203496 0.00643969 0)
(0.203673 0.00618352 0)
(0.203812 0.0059388 0)
(0.203919 0.00570849 0)
(0.203999 0.00549405 0)
(0.204058 0.00529578 0)
(0.204099 0.00511317 0)
(0.204126 0.00494524 0)
(0.204142 0.00479073 0)
(0.204147 0.00464832 0)
(0.204144 0.00451668 0)
(0.204134 0.0043946 0)
(0.204117 0.00428096 0)
(0.204094 0.00417481 0)
(0.204065 0.00407529 0)
(0.204029 0.00398167 0)
(0.203988 0.00389335 0)
(0.203941 0.00380977 0)
(0.203887 0.00373049 0)
(0.203828 0.00365509 0)
(0.203763 0.00358323 0)
(0.203691 0.0035146 0)
(0.203613 0.00344893 0)
(0.203529 0.00338598 0)
(0.203437 0.00332552 0)
(0.20334 0.00326738 0)
(0.203235 0.00321136 0)
(0.203123 0.00315732 0)
(0.203005 0.0031051 0)
(0.202879 0.00305459 0)
(0.202746 0.00300565 0)
(0.202606 0.00295819 0)
(0.202458 0.00291209 0)
(0.202302 0.00286728 0)
(0.202139 0.00282367 0)
(0.201968 0.00278119 0)
(0.20179 0.00273976 0)
(0.201604 0.00269932 0)
(0.201409 0.00265981 0)
(0.201207 0.00262118 0)
(0.200998 0.00258338 0)
(0.20078 0.00254635 0)
(0.200554 0.00251007 0)
(0.200321 0.00247449 0)
(0.200079 0.00243956 0)
(0.19983 0.00240527 0)
(0.199573 0.00237157 0)
(0.199308 0.00233844 0)
(0.199035 0.00230585 0)
(0.198754 0.00227378 0)
(0.198466 0.00224219 0)
(0.19817 0.00221108 0)
(0.197867 0.00218041 0)
(0.197556 0.00215017 0)
(0.197238 0.00212034 0)
(0.196912 0.00209091 0)
(0.19658 0.00206185 0)
(0.19624 0.00203316 0)
(0.195893 0.00200482 0)
(0.195539 0.00197682 0)
(0.195179 0.00194914 0)
(0.194812 0.00192178 0)
(0.194439 0.00189473 0)
(0.194059 0.00186798 0)
(0.193673 0.00184151 0)
(0.19328 0.00181533 0)
(0.192882 0.00178943 0)
(0.192478 0.00176381 0)
(0.192069 0.00173846 0)
(0.191654 0.00171338 0)
(0.191233 0.00168858 0)
(0.190808 0.00166406 0)
(0.190377 0.00163983 0)
(0.189942 0.00161589 0)
(0.189501 0.00159226 0)
(0.189056 0.00156897 0)
(0.188607 0.00154604 0)
(0.188153 0.00152351 0)
(0.187695 0.00150144 0)
(0.187234 0.00147991 0)
(0.186768 0.00145906 0)
(0.186298 0.00143911 0)
(0.185826 0.00142039 0)
(0.185351 0.00140339 0)
(0.184877 0.0013884 0)
(0.184415 0.00137283 0)
(0.183858 0.00133534 0)
(0.197554 0.00601285 0)
(0.197984 0.00651538 0)
(0.19849 0.00692391 0)
(0.199044 0.00722729 0)
(0.199618 0.00742782 0)
(0.200191 0.00753332 0)
(0.200743 0.00755338 0)
(0.201263 0.00749923 0)
(0.201739 0.00738363 0)
(0.202166 0.00722003 0)
(0.202541 0.00702152 0)
(0.202864 0.00680018 0)
(0.203137 0.00656651 0)
(0.203364 0.00632921 0)
(0.20355 0.00609505 0)
(0.2037 0.00586889 0)
(0.20382 0.00565393 0)
(0.203916 0.00545198 0)
(0.203991 0.00526375 0)
(0.20405 0.00508917 0)
(0.204096 0.00492767 0)
(0.204131 0.00477835 0)
(0.204157 0.00464019 0)
(0.204176 0.00451211 0)
(0.204189 0.00439307 0)
(0.204196 0.00428213 0)
(0.204199 0.00417842 0)
(0.204198 0.00408117 0)
(0.204193 0.00398972 0)
(0.204184 0.00390349 0)
(0.204171 0.00382196 0)
(0.204155 0.0037447 0)
(0.204135 0.00367133 0)
(0.204111 0.00360149 0)
(0.204084 0.0035349 0)
(0.204053 0.00347129 0)
(0.204019 0.00341042 0)
(0.20398 0.00335207 0)
(0.203937 0.00329605 0)
(0.203891 0.00324219 0)
(0.20384 0.00319033 0)
(0.203785 0.00314032 0)
(0.203726 0.00309204 0)
(0.203662 0.00304536 0)
(0.203593 0.00300017 0)
(0.20352 0.00295637 0)
(0.203442 0.00291387 0)
(0.203359 0.00287259 0)
(0.203271 0.00283243 0)
(0.203177 0.00279335 0)
(0.203079 0.00275525 0)
(0.202975 0.00271809 0)
(0.202865 0.0026818 0)
(0.20275 0.00264634 0)
(0.20263 0.00261165 0)
(0.202503 0.00257769 0)
(0.202371 0.00254441 0)
(0.202233 0.00251178 0)
(0.202089 0.00247975 0)
(0.201939 0.0024483 0)
(0.201783 0.00241739 0)
(0.20162 0.00238699 0)
(0.201452 0.00235708 0)
(0.201277 0.00232762 0)
(0.201096 0.00229859 0)
(0.200909 0.00226998 0)
(0.200716 0.00224175 0)
(0.200516 0.00221389 0)
(0.20031 0.00218638 0)
(0.200098 0.0021592 0)
(0.199879 0.00213234 0)
(0.199654 0.00210578 0)
(0.199423 0.0020795 0)
(0.199185 0.0020535 0)
(0.198942 0.00202776 0)
(0.198692 0.00200228 0)
(0.198436 0.00197703 0)
(0.198174 0.00195202 0)
(0.197906 0.00192724 0)
(0.197631 0.00190268 0)
(0.197351 0.00187834 0)
(0.197065 0.00185421 0)
(0.196773 0.00183029 0)
(0.196476 0.0018066 0)
(0.196172 0.00178312 0)
(0.195863 0.00175988 0)
(0.195549 0.00173687 0)
(0.195229 0.00171412 0)
(0.194903 0.00169165 0)
(0.194573 0.00166948 0)
(0.194237 0.00164767 0)
(0.193896 0.00162626 0)
(0.193549 0.00160534 0)
(0.193198 0.00158504 0)
(0.192843 0.00156551 0)
(0.192483 0.00154699 0)
(0.192119 0.00152965 0)
(0.191756 0.00151294 0)
(0.191399 0.00149278 0)
(0.190959 0.00144832 0)
(0.197845 0.00580387 0)
(0.198231 0.00625358 0)
(0.198682 0.00662702 0)
(0.199178 0.00691255 0)
(0.199698 0.00710907 0)
(0.20022 0.00722128 0)
(0.200729 0.00725653 0)
(0.201211 0.00722397 0)
(0.201658 0.00713428 0)
(0.202063 0.00699889 0)
(0.202423 0.0068292 0)
(0.202737 0.00663588 0)
(0.203006 0.00642841 0)
(0.203233 0.00621478 0)
(0.203423 0.00600137 0)
(0.20358 0.00579297 0)
(0.203708 0.00559288 0)
(0.203813 0.00540316 0)
(0.203898 0.00522486 0)
(0.203967 0.00505827 0)
(0.204023 0.00490316 0)
(0.204068 0.00475898 0)
(0.204105 0.00462495 0)
(0.204135 0.00450025 0)
(0.204159 0.00438401 0)
(0.204178 0.00427543 0)
(0.204193 0.00417376 0)
(0.204205 0.00407832 0)
(0.204213 0.0039885 0)
(0.204218 0.00390376 0)
(0.204221 0.00382364 0)
(0.204221 0.00374773 0)
(0.204219 0.00367565 0)
(0.204214 0.00360709 0)
(0.204207 0.00354175 0)
(0.204198 0.00347939 0)
(0.204186 0.00341977 0)
(0.204173 0.00336267 0)
(0.204157 0.00330793 0)
(0.204138 0.00325535 0)
(0.204118 0.0032048 0)
(0.204094 0.00315612 0)
(0.204069 0.00310919 0)
(0.20404 0.00306389 0)
(0.204009 0.00302011 0)
(0.203975 0.00297774 0)
(0.203939 0.00293671 0)
(0.203899 0.00289691 0)
(0.203857 0.00285827 0)
(0.203811 0.00282072 0)
(0.203762 0.00278419 0)
(0.20371 0.00274861 0)
(0.203654 0.00271393 0)
(0.203595 0.00268009 0)
(0.203532 0.00264705 0)
(0.203466 0.00261475 0)
(0.203395 0.00258315 0)
(0.203321 0.0025522 0)
(0.203243 0.00252188 0)
(0.203161 0.00249214 0)
(0.203074 0.00246294 0)
(0.202984 0.00243426 0)
(0.202889 0.00240607 0)
(0.202789 0.00237833 0)
(0.202685 0.00235103 0)
(0.202577 0.00232413 0)
(0.202464 0.00229761 0)
(0.202346 0.00227146 0)
(0.202223 0.00224564 0)
(0.202096 0.00222015 0)
(0.201964 0.00219495 0)
(0.201827 0.00217004 0)
(0.201685 0.0021454 0)
(0.201538 0.00212101 0)
(0.201385 0.00209687 0)
(0.201228 0.00207295 0)
(0.201066 0.00204926 0)
(0.200898 0.00202577 0)
(0.200726 0.00200248 0)
(0.200548 0.00197938 0)
(0.200365 0.00195647 0)
(0.200177 0.00193375 0)
(0.199983 0.00191121 0)
(0.199784 0.00188886 0)
(0.19958 0.00186669 0)
(0.199371 0.00184472 0)
(0.199157 0.00182295 0)
(0.198937 0.00180141 0)
(0.198713 0.00178011 0)
(0.198483 0.00175909 0)
(0.198248 0.00173838 0)
(0.198007 0.00171804 0)
(0.197762 0.00169814 0)
(0.197511 0.00167879 0)
(0.197256 0.00166011 0)
(0.196996 0.00164222 0)
(0.196733 0.001625 0)
(0.196468 0.0016074 0)
(0.196206 0.00158479 0)