/*--------------------------------*- C++ -*----------------------------------*\
| =========                 |                                                 |
| \\      /  F ield         | OpenFOAM: The Open Source CFD Toolbox           |
|  \\    /   O peration     | Version:  2.3.0                                 |
|   \\  /    A nd           | Web:      www.OpenFOAM.org                      |
|    \\/     M anipulation  |                                                 |
\*---------------------------------------------------------------------------*/
FoamFile
{
    version     2.0;
    format      ascii;
    class       surfaceScalarField;
    location    "0.1";
    object      phi;
}
// * * * * * * * * * * * * * * * * * * * * * * * * * * * * * * * * * * * * * //

dimensions      [0 3 -1 0 0 0 0];

internalField   nonuniform List<scalar> 
3859
(
2.88998e-08
2.74586e-09
-3.16457e-08
2.54385e-08
3.46134e-09
2.19973e-08
3.44118e-09
1.882e-08
3.17731e-09
1.59372e-08
2.88275e-09
1.34213e-08
2.51598e-09
1.13606e-08
2.06067e-09
9.76769e-09
1.5929e-09
8.60749e-09
1.1602e-09
7.79791e-09
8.09578e-10
7.24182e-09
5.5609e-10
6.85467e-09
3.87148e-10
6.57442e-09
2.80254e-10
6.35943e-09
2.14985e-10
6.18196e-09
1.77477e-10
6.02552e-09
1.56438e-10
5.88267e-09
1.42847e-10
5.75146e-09
1.31207e-10
5.63139e-09
1.20078e-10
5.52266e-09
1.08727e-10
5.42664e-09
9.60239e-11
5.34429e-09
8.23422e-11
5.27564e-09
6.86564e-11
5.22064e-09
5.49987e-11
5.17926e-09
4.13728e-11
5.15069e-09
2.85758e-11
5.13379e-09
1.68955e-11
5.12887e-09
4.92305e-12
5.13416e-09
-5.28536e-12
5.14819e-09
-1.40344e-11
5.16836e-09
-2.01661e-11
5.19178e-09
-2.34239e-11
5.21612e-09
-2.43345e-11
5.23965e-09
-2.35325e-11
5.26124e-09
-2.15928e-11
5.2804e-09
-1.91547e-11
5.29704e-09
-1.66426e-11
5.3113e-09
-1.42591e-11
5.3234e-09
-1.21044e-11
5.33361e-09
-1.02101e-11
5.34219e-09
-8.57651e-12
5.34937e-09
-7.18145e-12
5.35537e-09
-6.00287e-12
5.36039e-09
-5.02105e-12
5.36461e-09
-4.21288e-12
5.36816e-09
-3.55297e-12
5.37117e-09
-3.01589e-12
5.37375e-09
-2.57795e-12
5.37597e-09
-2.21808e-12
5.37789e-09
-1.91898e-12
5.37956e-09
-1.66695e-12
5.38101e-09
-1.45177e-12
5.38227e-09
-1.266e-12
5.38338e-09
-1.10423e-12
5.38434e-09
-9.62787e-13
5.38518e-09
-8.38602e-13
5.38591e-09
-7.29514e-13
5.38654e-09
-6.33837e-13
5.38709e-09
-5.49907e-13
5.38757e-09
-4.76339e-13
5.38798e-09
-4.11981e-13
5.38834e-09
-3.55816e-13
5.38864e-09
-3.06902e-13
5.38891e-09
-2.64353e-13
5.38914e-09
-2.27367e-13
5.38933e-09
-1.95258e-13
5.3895e-09
-1.6745e-13
5.38964e-09
-1.43412e-13
5.38977e-09
-1.22642e-13
5.38987e-09
-1.04733e-13
5.38996e-09
-8.93253e-14
5.39004e-09
-7.60709e-14
5.3901e-09
-6.46939e-14
5.39015e-09
-5.4932e-14
5.3902e-09
-4.65779e-14
5.39024e-09
-3.94284e-14
5.39027e-09
-3.33256e-14
5.3903e-09
-2.81342e-14
5.39033e-09
-2.36894e-14
5.39035e-09
-1.99498e-14
5.39036e-09
-1.67142e-14
5.39038e-09
-1.40336e-14
5.39039e-09
-1.17184e-14
5.3904e-09
-9.77321e-15
5.39041e-09
-8.16768e-15
5.39041e-09
-6.73978e-15
5.39042e-09
-5.63493e-15
5.39042e-09
-4.64095e-15
5.39043e-09
-3.81999e-15
5.39043e-09
-3.17714e-15
5.39043e-09
-2.5839e-15
5.39044e-09
-2.1074e-15
5.39044e-09
-1.7604e-15
5.39044e-09
-1.37911e-15
5.39044e-09
-1.1485e-15
5.39044e-09
-9.65334e-16
5.39044e-09
-9.47752e-16
5.39044e-09
4.26497e-16
5.39044e-09
-1.57274e-15
-2.97144e-15
3.63125e-08
2.42558e-09
-3.59922e-08
3.61612e-08
3.61261e-09
3.54624e-08
4.14e-09
3.44808e-08
4.15888e-09
3.3341e-08
4.02257e-09
3.2066e-08
3.79097e-09
3.06696e-08
3.45705e-09
2.92206e-08
3.04193e-09
2.7799e-08
2.5818e-09
2.64655e-08
2.14312e-09
2.52438e-08
1.77773e-09
2.41359e-08
1.49507e-09
2.31376e-08
1.27852e-09
2.22474e-08
1.1052e-09
2.14579e-08
9.6703e-10
2.07597e-08
8.54564e-10
2.01435e-08
7.5903e-10
1.96005e-08
6.74223e-10
1.91235e-08
5.97093e-10
1.87067e-08
5.25554e-10
1.83452e-08
4.57468e-10
1.80354e-08
3.92234e-10
1.77738e-08
3.30201e-10
1.75582e-08
2.70635e-10
1.73861e-08
2.1347e-10
1.72541e-08
1.60552e-10
1.71591e-08
1.11927e-10
1.70977e-08
6.63193e-11
1.7068e-08
2.43754e-11
1.70643e-08
-1.03213e-11
1.70805e-08
-3.63997e-11
1.71102e-08
-5.30883e-11
1.71476e-08
-6.1784e-11
1.71883e-08
-6.41898e-11
1.72288e-08
-6.20526e-11
1.72669e-08
-5.73126e-11
1.73016e-08
-5.1357e-11
1.73324e-08
-4.50177e-11
1.73591e-08
-3.88187e-11
1.7382e-08
-3.30514e-11
1.74012e-08
-2.78726e-11
1.74174e-08
-2.33376e-11
1.74309e-08
-1.94575e-11
1.7442e-08
-1.62101e-11
1.74514e-08
-1.35396e-11
1.74592e-08
-1.13697e-11
1.74658e-08
-9.61614e-12
1.74714e-08
-8.19762e-12
1.74762e-08
-7.04097e-12
1.74804e-08
-6.08634e-12
1.7484e-08
-5.28655e-12
1.74872e-08
-4.6067e-12
1.74899e-08
-4.02151e-12
1.74923e-08
-3.51293e-12
1.74944e-08
-3.06855e-12
1.74963e-08
-2.67837e-12
1.74979e-08
-2.33549e-12
1.74993e-08
-2.03435e-12
1.75005e-08
-1.76975e-12
1.75016e-08
-1.53743e-12
1.75025e-08
-1.33377e-12
1.75033e-08
-1.15561e-12
1.7504e-08
-1e-12
1.75046e-08
-8.64269e-13
1.75051e-08
-7.45943e-13
1.75056e-08
-6.42921e-13
1.75059e-08
-5.53416e-13
1.75063e-08
-4.7577e-13
1.75066e-08
-4.0845e-13
1.75068e-08
-3.50206e-13
1.7507e-08
-2.999e-13
1.75072e-08
-2.56469e-13
1.75073e-08
-2.19042e-13
1.75075e-08
-1.86816e-13
1.75076e-08
-1.59119e-13
1.75077e-08
-1.35326e-13
1.75078e-08
-1.14937e-13
1.75078e-08
-9.74878e-14
1.75079e-08
-8.25418e-14
1.75079e-08
-6.98225e-14
1.7508e-08
-5.88902e-14
1.7508e-08
-4.96709e-14
1.75081e-08
-4.17536e-14
1.75081e-08
-3.50632e-14
1.75081e-08
-2.94195e-14
1.75081e-08
-2.45609e-14
1.75081e-08
-2.05611e-14
1.75081e-08
-1.71282e-14
1.75082e-08
-1.4207e-14
1.75082e-08
-1.18618e-14
1.75082e-08
-9.77774e-15
1.75082e-08
-8.04829e-15
1.75082e-08
-6.72934e-15
1.75082e-08
-5.39307e-15
1.75082e-08
-4.52643e-15
1.75082e-08
-3.68647e-15
1.75082e-08
-3.24121e-15
1.75082e-08
4.42345e-16
1.75082e-08
-3.69763e-15
-6.48074e-15
4.03452e-08
2.28891e-09
-4.02085e-08
4.07893e-08
3.16846e-09
4.10666e-08
3.86267e-09
4.11434e-08
4.08216e-09
4.11065e-08
4.05941e-09
4.09659e-08
3.93159e-09
4.06851e-08
3.73785e-09
4.02504e-08
3.47664e-09
3.96846e-08
3.1476e-09
3.90385e-08
2.78922e-09
3.83593e-08
2.45692e-09
3.76716e-08
2.18281e-09
3.69848e-08
1.96529e-09
3.6303e-08
1.78704e-09
3.56352e-08
1.63478e-09
3.4991e-08
1.49882e-09
3.43763e-08
1.3737e-09
3.37932e-08
1.25726e-09
3.32425e-08
1.14786e-09
3.27264e-08
1.04159e-09
3.22485e-08
9.35394e-10
3.18107e-08
8.30057e-10
3.14145e-08
7.26448e-10
3.10616e-08
6.23438e-10
3.07531e-08
5.22014e-10
3.04885e-08
4.25175e-10
3.0267e-08
3.33384e-10
3.00876e-08
2.45792e-10
2.99481e-08
1.63842e-10
2.98459e-08
9.19096e-11
2.97762e-08
3.32911e-11
2.97341e-08
-1.09875e-11
2.97144e-08
-4.21206e-11
2.97122e-08
-6.1975e-11
2.97227e-08
-7.25739e-11
2.97421e-08
-7.66696e-11
2.9767e-08
-7.62549e-11
2.97946e-08
-7.27013e-11
2.98229e-08
-6.70896e-11
2.98501e-08
-6.02465e-11
2.98751e-08
-5.28524e-11
2.98972e-08
-4.54449e-11
2.99162e-08
-3.84563e-11
2.99322e-08
-3.21866e-11
2.99454e-08
-2.67855e-11
2.99563e-08
-2.22774e-11
2.99653e-08
-1.85981e-11
2.99727e-08
-1.56337e-11
2.9979e-08
-1.32524e-11
2.99842e-08
-1.13294e-11
2.99887e-08
-9.75744e-12
2.99925e-08
-8.45262e-12
2.99958e-08
-7.35194e-12
2.99987e-08
-6.41045e-12
3.00013e-08
-5.59697e-12
3.00035e-08
-4.88788e-12
3.00054e-08
-4.26752e-12
3.00071e-08
-3.7237e-12
3.00086e-08
-3.24614e-12
3.00099e-08
-2.82666e-12
3.0011e-08
-2.45852e-12
3.0012e-08
-2.13589e-12
3.00128e-08
-1.85349e-12
3.00136e-08
-1.60657e-12
3.00142e-08
-1.39081e-12
3.00148e-08
-1.20246e-12
3.00153e-08
-1.03836e-12
3.00157e-08
-8.95576e-13
3.0016e-08
-7.71405e-13
3.00164e-08
-6.63645e-13
3.00166e-08
-5.70259e-13
3.00169e-08
-4.89381e-13
3.00171e-08
-4.19447e-13
3.00172e-08
-3.59033e-13
3.00174e-08
-3.06928e-13
3.00175e-08
-2.62003e-13
3.00176e-08
-2.23389e-13
3.00177e-08
-1.90174e-13
3.00178e-08
-1.61694e-13
3.00179e-08
-1.37278e-13
3.00179e-08
-1.16313e-13
3.0018e-08
-9.84963e-14
3.0018e-08
-8.31439e-14
3.0018e-08
-7.01999e-14
3.00181e-08
-5.90704e-14
3.00181e-08
-4.96657e-14
3.00181e-08
-4.1695e-14
3.00181e-08
-3.49254e-14
3.00181e-08
-2.9178e-14
3.00182e-08
-2.43915e-14
3.00182e-08
-2.03106e-14
3.00182e-08
-1.67835e-14
3.00182e-08
-1.41071e-14
3.00182e-08
-1.14188e-14
3.00182e-08
-9.67846e-15
3.00182e-08
-7.85469e-15
3.00182e-08
-6.85474e-15
3.00182e-08
-3.11514e-15
3.00182e-08
-5.51482e-15
-6.28145e-15
4.48097e-08
2.23306e-09
-4.47538e-08
4.51387e-08
2.83944e-09
4.55583e-08
3.44304e-09
4.58827e-08
3.75774e-09
4.61259e-08
3.81621e-09
4.63263e-08
3.73127e-09
4.64737e-08
3.59043e-09
4.6536e-08
3.41429e-09
4.649e-08
3.19362e-09
4.63475e-08
2.93166e-09
4.61445e-08
2.65997e-09
4.59101e-08
2.41722e-09
4.5655e-08
2.2204e-09
4.5377e-08
2.06499e-09
4.50784e-08
1.93343e-09
4.47681e-08
1.80909e-09
4.44556e-08
1.6862e-09
4.41444e-08
1.5685e-09
4.3834e-08
1.45818e-09
4.35258e-08
1.34985e-09
4.3223e-08
1.23818e-09
4.29291e-08
1.12394e-09
4.26471e-08
1.00849e-09
4.23796e-08
8.90883e-10
4.21292e-08
7.72456e-10
4.18978e-08
6.56605e-10
4.16868e-08
5.44333e-10
4.14973e-08
4.35336e-10
4.13296e-08
3.31505e-10
4.11842e-08
2.37273e-10
4.10613e-08
1.56258e-10
4.09604e-08
8.98955e-11
4.08801e-08
3.81685e-11
4.08188e-08
-6.51255e-13
4.07739e-08
-2.77012e-11
4.07434e-08
-4.61692e-11
4.07253e-08
-5.81231e-11
4.07176e-08
-6.50039e-11
4.07184e-08
-6.78701e-11
4.07255e-08
-6.74201e-11
4.0737e-08
-6.42991e-11
4.07507e-08
-5.91726e-11
4.0765e-08
-5.27951e-11
4.07788e-08
-4.59099e-11
4.07911e-08
-3.91331e-11
4.08017e-08
-3.29007e-11
4.08106e-08
-2.74564e-11
4.08178e-08
-2.28777e-11
4.08237e-08
-1.91242e-11
4.08285e-08
-1.6091e-11
4.08324e-08
-1.36481e-11
4.08356e-08
-1.16701e-11
4.08383e-08
-1.00493e-11
4.08406e-08
-8.70196e-12
4.08425e-08
-7.56564e-12
4.08443e-08
-6.59368e-12
4.08457e-08
-5.75466e-12
4.0847e-08
-5.02542e-12
4.08482e-08
-4.38826e-12
4.08492e-08
-3.82994e-12
4.08501e-08
-3.34029e-12
4.08508e-08
-2.91074e-12
4.08515e-08
-2.53406e-12
4.08521e-08
-2.20399e-12
4.08526e-08
-1.91481e-12
4.08531e-08
-1.66159e-12
4.08535e-08
-1.44024e-12
4.08539e-08
-1.24693e-12
4.08542e-08
-1.07822e-12
4.08544e-08
-9.31274e-13
4.08547e-08
-8.03407e-13
4.08549e-08
-6.92241e-13
4.0855e-08
-5.9573e-13
4.08552e-08
-5.12016e-13
4.08553e-08
-4.3952e-13
4.08554e-08
-3.76738e-13
4.08555e-08
-3.22567e-13
4.08556e-08
-2.75737e-13
4.08557e-08
-2.35443e-13
4.08558e-08
-2.00735e-13
4.08558e-08
-1.70793e-13
4.08559e-08
-1.45302e-13
4.08559e-08
-1.23129e-13
4.08559e-08
-1.04496e-13
4.0856e-08
-8.82611e-14
4.0856e-08
-7.45753e-14
4.0856e-08
-6.29125e-14
4.0856e-08
-5.2869e-14
4.0856e-08
-4.44913e-14
4.08561e-08
-3.72473e-14
4.08561e-08
-3.12706e-14
4.08561e-08
-2.59245e-14
4.08561e-08
-2.19144e-14
4.08561e-08
-1.78556e-14
4.08561e-08
-1.5266e-14
4.08561e-08
-1.24271e-14
4.08561e-08
-1.09792e-14
4.08561e-08
-1.08192e-14
4.08561e-08
-6.65054e-15
-1.05733e-15
4.97632e-08
2.17142e-09
-4.97016e-08
4.99869e-08
2.61582e-09
5.03586e-08
3.07133e-09
5.07199e-08
3.39643e-09
5.10132e-08
3.52293e-09
5.12545e-08
3.48997e-09
5.14697e-08
3.37522e-09
5.16491e-08
3.23487e-09
5.17676e-08
3.07508e-09
5.18166e-08
2.88271e-09
5.1811e-08
2.66553e-09
5.17756e-08
2.45266e-09
5.17246e-08
2.27142e-09
5.16591e-08
2.13045e-09
5.15772e-08
2.01529e-09
5.14822e-08
1.90409e-09
5.13806e-08
1.78788e-09
5.12752e-08
1.67384e-09
5.11654e-08
1.56797e-09
5.10502e-08
1.46505e-09
5.09302e-08
1.35822e-09
5.08067e-08
1.24737e-09
5.06813e-08
1.13397e-09
5.05546e-08
1.0175e-09
5.0428e-08
8.99117e-10
5.03027e-08
7.81843e-10
5.01801e-08
6.6695e-10
5.0061e-08
5.54425e-10
4.99461e-08
4.46455e-10
4.98363e-08
3.47058e-10
4.97336e-08
2.58971e-10
4.964e-08
1.83522e-10
4.9557e-08
1.21103e-10
4.94849e-08
7.14426e-11
4.94236e-08
3.36381e-11
4.93723e-08
5.16866e-12
4.93304e-08
-1.62222e-11
4.92973e-08
-3.19123e-11
4.92725e-08
-4.31182e-11
4.92554e-08
-5.03506e-11
4.92451e-08
-5.39692e-11
4.92403e-08
-5.43302e-11
4.92395e-08
-5.20172e-11
4.92414e-08
-4.77897e-11
4.92447e-08
-4.24488e-11
4.92485e-08
-3.67221e-11
4.92522e-08
-3.117e-11
4.92555e-08
-2.61483e-11
4.92582e-08
-2.18257e-11
4.92603e-08
-1.82315e-11
4.9262e-08
-1.53032e-11
4.92633e-08
-1.29407e-11
4.92642e-08
-1.10316e-11
4.9265e-08
-9.47801e-12
4.92657e-08
-8.19589e-12
4.92662e-08
-7.1226e-12
4.92666e-08
-6.21166e-12
4.9267e-08
-5.42955e-12
4.92674e-08
-4.75178e-12
4.92677e-08
-4.16039e-12
4.9268e-08
-3.64296e-12
4.92683e-08
-3.18848e-12
4.92686e-08
-2.78909e-12
4.92688e-08
-2.43803e-12
4.9269e-08
-2.12921e-12
4.92692e-08
-1.85757e-12
4.92694e-08
-1.61892e-12
4.92696e-08
-1.40934e-12
4.92697e-08
-1.22545e-12
4.92698e-08
-1.06438e-12
4.927e-08
-9.23371e-13
4.92701e-08
-8.0008e-13
4.92702e-08
-6.92395e-13
4.92703e-08
-5.98437e-13
4.92703e-08
-5.16558e-13
4.92704e-08
-4.45241e-13
4.92705e-08
-3.83302e-13
4.92705e-08
-3.29473e-13
4.92706e-08
-2.82813e-13
4.92706e-08
-2.42468e-13
4.92706e-08
-2.07346e-13
4.92707e-08
-1.77404e-13
4.92707e-08
-1.51085e-13
4.92707e-08
-1.28917e-13
4.92707e-08
-1.09483e-13
4.92708e-08
-9.29312e-14
4.92708e-08
-7.88966e-14
4.92708e-08
-6.65323e-14
4.92708e-08
-5.63985e-14
4.92708e-08
-4.73542e-14
4.92708e-08
-4.00424e-14
4.92708e-08
-3.33413e-14
4.92708e-08
-2.83379e-14
4.92708e-08
-2.32345e-14
4.92708e-08
-2.00114e-14
4.92709e-08
-1.6341e-14
4.92709e-08
-1.46338e-14
4.92709e-08
-1.64007e-14
4.92709e-08
-7.54474e-15
2.44946e-15
5.52155e-08
2.09452e-09
-5.51386e-08
5.53901e-08
2.44122e-09
5.56864e-08
2.77508e-09
5.60212e-08
3.06163e-09
5.63227e-08
3.22137e-09
5.65684e-08
3.24429e-09
5.67764e-08
3.16727e-09
5.69579e-08
3.05331e-09
5.71044e-08
2.92865e-09
5.72062e-08
2.78085e-09
5.72646e-08
2.60715e-09
5.729e-08
2.42726e-09
5.72972e-08
2.26419e-09
5.72968e-08
2.13093e-09
5.72901e-08
2.02195e-09
5.7276e-08
1.91818e-09
5.7256e-08
1.80786e-09
5.72325e-08
1.69733e-09
5.72061e-08
1.59443e-09
5.71761e-08
1.49503e-09
5.71422e-08
1.3921e-09
5.71042e-08
1.28541e-09
5.70615e-08
1.17663e-09
5.7014e-08
1.06502e-09
5.69619e-08
9.51258e-10
5.69054e-08
8.38275e-10
5.68449e-08
7.27482e-10
5.67805e-08
6.18861e-10
5.67126e-08
5.14304e-10
5.66425e-08
4.17151e-10
5.65719e-08
3.2962e-10
5.65027e-08
2.52703e-10
5.64369e-08
1.8691e-10
5.63758e-08
1.32511e-10
5.63204e-08
8.90297e-11
5.62707e-08
5.48394e-11
5.62266e-08
2.79735e-11
5.61878e-08
6.8392e-12
5.61545e-08
-9.79774e-12
5.61265e-08
-2.24167e-11
5.61039e-08
-3.12911e-11
5.60861e-08
-3.65706e-11
5.60727e-08
-3.86307e-11
5.6063e-08
-3.80566e-11
5.60561e-08
-3.55717e-11
5.60513e-08
-3.19384e-11
5.6048e-08
-2.78247e-11
5.60456e-08
-2.37343e-11
5.60437e-08
-1.9986e-11
5.60422e-08
-1.67404e-11
5.6041e-08
-1.40274e-11
5.60398e-08
-1.18142e-11
5.60388e-08
-1.00249e-11
5.60379e-08
-8.58168e-12
5.60371e-08
-7.404e-12
5.60365e-08
-6.43483e-12
5.60359e-08
-5.62299e-12
5.60354e-08
-4.93365e-12
5.6035e-08
-4.3398e-12
5.60346e-08
-3.82325e-12
5.60344e-08
-3.37215e-12
5.60341e-08
-2.97395e-12
5.6034e-08
-2.62259e-12
5.60338e-08
-2.31155e-12
5.60337e-08
-2.03604e-12
5.60337e-08
-1.79159e-12
5.60336e-08
-1.57483e-12
5.60336e-08
-1.38267e-12
5.60336e-08
-1.21251e-12
5.60336e-08
-1.06208e-12
5.60336e-08
-9.29019e-13
5.60336e-08
-8.11614e-13
5.60336e-08
-7.08065e-13
5.60336e-08
-6.16885e-13
5.60337e-08
-5.3662e-13
5.60337e-08
-4.66131e-13
5.60337e-08
-4.04243e-13
5.60337e-08
-3.50102e-13
5.60338e-08
-3.02608e-13
5.60338e-08
-2.61337e-13
5.60338e-08
-2.24967e-13
5.60338e-08
-1.93816e-13
5.60338e-08
-1.66163e-13
5.60338e-08
-1.42658e-13
5.60338e-08
-1.22013e-13
5.60339e-08
-1.04113e-13
5.60339e-08
-8.90383e-14
5.60339e-08
-7.54398e-14
5.60339e-08
-6.44104e-14
5.60339e-08
-5.43373e-14
5.60339e-08
-4.62518e-14
5.60339e-08
-3.87237e-14
5.60339e-08
-3.31035e-14
5.60339e-08
-2.72979e-14
5.60339e-08
-2.36682e-14
5.60339e-08
-1.93511e-14
5.60339e-08
-1.74247e-14
5.60339e-08
-1.79711e-14
5.60339e-08
-9.11856e-15
1.16634e-15
6.12146e-08
2.01072e-09
-6.11308e-08
6.13683e-08
2.28748e-09
6.16002e-08
2.54323e-09
6.18887e-08
2.7731e-09
6.2174e-08
2.93611e-09
6.242e-08
2.99833e-09
6.26218e-08
2.96541e-09
6.27937e-08
2.88143e-09
6.29389e-08
2.78339e-09
6.30524e-08
2.66737e-09
6.31325e-08
2.52704e-09
6.31811e-08
2.37868e-09
6.3206e-08
2.23926e-09
6.32213e-08
2.11563e-09
6.32349e-08
2.00837e-09
6.32446e-08
1.90854e-09
6.32475e-08
1.80489e-09
6.3246e-08
1.69892e-09
6.3242e-08
1.59839e-09
6.32356e-08
1.50141e-09
6.32266e-08
1.40109e-09
6.32148e-08
1.29719e-09
6.31989e-08
1.19259e-09
6.31775e-08
1.08645e-09
6.31507e-08
9.78e-10
6.31191e-08
8.69883e-10
6.30823e-08
7.64256e-10
6.30401e-08
6.61113e-10
6.29929e-08
5.61538e-10
6.29417e-08
4.68328e-10
6.28877e-08
3.83621e-10
6.28324e-08
3.08026e-10
6.27775e-08
2.41771e-10
6.27247e-08
1.85291e-10
6.26751e-08
1.38636e-10
6.26292e-08
1.00713e-10
6.25873e-08
6.99128e-11
6.25492e-08
4.49054e-11
6.25149e-08
2.44937e-11
6.24843e-08
8.19402e-12
6.24574e-08
-4.39223e-12
6.24342e-08
-1.33363e-11
6.24146e-08
-1.89919e-11
6.23983e-08
-2.18029e-11
6.23851e-08
-2.23649e-11
6.23745e-08
-2.13593e-11
6.23661e-08
-1.9412e-11
6.23594e-08
-1.70462e-11
6.23541e-08
-1.46363e-11
6.23497e-08
-1.24095e-11
6.23462e-08
-1.04741e-11
6.23432e-08
-8.85752e-12
6.23407e-08
-7.53821e-12
6.23386e-08
-6.47763e-12
6.23368e-08
-5.61504e-12
6.23353e-08
-4.91246e-12
6.2334e-08
-4.33316e-12
6.23329e-08
-3.84287e-12
6.2332e-08
-3.42175e-12
6.23313e-08
-3.05446e-12
6.23306e-08
-2.73251e-12
6.23301e-08
-2.4447e-12
6.23297e-08
-2.18758e-12
6.23293e-08
-1.95622e-12
6.2329e-08
-1.74809e-12
6.23288e-08
-1.56028e-12
6.23286e-08
-1.39047e-12
6.23284e-08
-1.23712e-12
6.23283e-08
-1.09924e-12
6.23282e-08
-9.75024e-13
6.23282e-08
-8.63366e-13
6.23281e-08
-7.63208e-13
6.23281e-08
-6.73442e-13
6.23281e-08
-5.93193e-13
6.23281e-08
-5.21475e-13
6.23281e-08
-4.57683e-13
6.2328e-08
-4.00745e-13
6.2328e-08
-3.50444e-13
6.23281e-08
-3.05562e-13
6.23281e-08
-2.66257e-13
6.23281e-08
-2.3111e-13
6.23281e-08
-2.00719e-13
6.23281e-08
-1.73483e-13
6.23281e-08
-1.49978e-13
6.23281e-08
-1.29324e-13
6.23281e-08
-1.11032e-13
6.23281e-08
-9.56823e-14
6.23281e-08
-8.15607e-14
6.23281e-08
-7.01062e-14
6.23281e-08
-5.95042e-14
6.23281e-08
-5.09637e-14
6.23281e-08
-4.29164e-14
6.23281e-08
-3.69213e-14
6.23281e-08
-3.05833e-14
6.23281e-08
-2.66854e-14
6.23281e-08
-2.18076e-14
6.23281e-08
-1.96374e-14
6.23281e-08
-1.79881e-14
6.23281e-08
-1.12247e-14
-2.49348e-15
6.78234e-08
1.92637e-09
-6.7739e-08
6.79608e-08
2.15001e-09
6.81494e-08
2.3547e-09
6.83871e-08
2.53541e-09
6.86427e-08
2.68046e-09
6.88796e-08
2.76142e-09
6.90774e-08
2.76765e-09
6.92429e-08
2.7159e-09
6.93842e-08
2.64211e-09
6.94987e-08
2.55282e-09
6.95862e-08
2.43958e-09
6.9648e-08
2.31688e-09
6.96858e-08
2.20147e-09
6.97095e-08
2.09189e-09
6.97304e-08
1.9875e-09
6.9748e-08
1.8909e-09
6.97579e-08
1.79501e-09
6.97621e-08
1.69473e-09
6.97641e-08
1.59636e-09
6.97635e-08
1.50204e-09
6.97595e-08
1.40507e-09
6.97528e-08
1.30386e-09
6.97426e-08
1.20289e-09
6.97268e-08
1.10224e-09
6.97056e-08
9.99204e-10
6.968e-08
8.95449e-10
6.96497e-08
7.94499e-10
6.96139e-08
6.96993e-10
6.95726e-08
6.02792e-10
6.95273e-08
5.13607e-10
6.94794e-08
4.31594e-10
6.94298e-08
3.57572e-10
6.93799e-08
2.91672e-10
6.93309e-08
2.34252e-10
6.92841e-08
1.85506e-10
6.924e-08
1.44757e-10
6.91991e-08
1.10808e-10
6.91615e-08
8.25072e-11
6.91271e-08
5.88978e-11
6.90959e-08
3.94362e-11
6.90677e-08
2.37842e-11
6.90426e-08
1.17374e-11
6.90206e-08
3.01364e-12
6.90017e-08
-2.85266e-12
6.89856e-08
-6.31194e-12
6.89722e-08
-7.97369e-12
6.89612e-08
-8.38108e-12
6.89522e-08
-8.02667e-12
6.89448e-08
-7.28212e-12
6.89388e-08
-6.40365e-12
6.89339e-08
-5.54755e-12
6.89298e-08
-4.78873e-12
6.89265e-08
-4.1517e-12
6.89236e-08
-3.64729e-12
6.89212e-08
-3.23532e-12
6.89192e-08
-2.90504e-12
6.89175e-08
-2.64322e-12
6.89161e-08
-2.4179e-12
6.89149e-08
-2.22328e-12
6.89139e-08
-2.05237e-12
6.89131e-08
-1.89394e-12
6.89124e-08
-1.74711e-12
6.89118e-08
-1.611e-12
6.89113e-08
-1.48135e-12
6.89109e-08
-1.3589e-12
6.89106e-08
-1.24366e-12
6.89104e-08
-1.13424e-12
6.89102e-08
-1.03131e-12
6.891e-08
-9.35421e-13
6.89099e-08
-8.45507e-13
6.89098e-08
-7.62284e-13
6.89097e-08
-6.85351e-13
6.89096e-08
-6.14322e-13
6.89096e-08
-5.49163e-13
6.89096e-08
-4.89443e-13
6.89095e-08
-4.35283e-13
6.89095e-08
-3.85801e-13
6.89095e-08
-3.41355e-13
6.89095e-08
-3.00801e-13
6.89095e-08
-2.6484e-13
6.89095e-08
-2.32127e-13
6.89095e-08
-2.03407e-13
6.89095e-08
-1.7742e-13
6.89095e-08
-1.54549e-13
6.89095e-08
-1.34418e-13
6.89095e-08
-1.16205e-13
6.89095e-08
-1.00878e-13
6.89095e-08
-8.65925e-14
6.89095e-08
-7.48872e-14
6.89095e-08
-6.39845e-14
6.89095e-08
-5.51274e-14
6.89096e-08
-4.66686e-14
6.89096e-08
-4.04157e-14
6.89096e-08
-3.35885e-14
6.89096e-08
-2.94807e-14
6.89096e-08
-2.40709e-14
6.89096e-08
-2.16525e-14
6.89096e-08
-1.81937e-14
6.89096e-08
-1.34036e-14
-6.20186e-15
6.80164e-08
1.85419e-09
-6.79442e-08
6.81268e-08
2.03954e-09
6.8273e-08
2.20859e-09
6.84511e-08
2.35723e-09
6.86515e-08
2.48005e-09
6.88496e-08
2.56336e-09
6.90237e-08
2.5936e-09
6.91711e-08
2.56849e-09
6.92979e-08
2.51531e-09
6.94022e-08
2.44847e-09
6.9483e-08
2.35879e-09
6.95445e-08
2.25538e-09
6.95884e-08
2.15762e-09
6.96174e-08
2.06291e-09
6.96397e-08
1.96517e-09
6.96592e-08
1.87142e-09
6.96725e-08
1.78167e-09
6.96792e-08
1.68798e-09
6.96829e-08
1.59271e-09
6.96841e-08
1.50079e-09
6.96818e-08
1.40743e-09
6.96763e-08
1.30929e-09
6.9668e-08
1.21118e-09
6.96552e-08
1.11513e-09
6.96369e-08
1.01745e-09
6.96145e-08
9.17885e-10
6.95883e-08
8.20641e-10
6.95577e-08
7.2759e-10
6.95227e-08
6.37869e-10
6.94842e-08
5.52065e-10
6.94434e-08
4.72371e-10
6.9401e-08
4.0001e-10
6.93577e-08
3.34941e-10
6.93148e-08
2.77195e-10
6.92733e-08
2.26995e-10
6.9234e-08
1.84052e-10
6.91973e-08
1.47498e-10
6.91634e-08
1.1638e-10
6.91323e-08
8.99978e-11
6.91039e-08
6.78618e-11
6.90781e-08
4.9619e-11
6.90548e-08
3.50005e-11
6.90341e-08
2.36925e-11
6.9016e-08
1.52852e-11
6.90003e-08
9.3355e-12
6.8987e-08
5.33205e-12
6.89759e-08
2.78494e-12
6.89666e-08
1.25445e-12
6.89589e-08
3.86012e-13
6.89526e-08
-8.36974e-14
6.89474e-08
-3.34237e-13
6.89431e-08
-4.71832e-13
6.89395e-08
-5.71295e-13
6.89365e-08
-6.56645e-13
6.8934e-08
-7.33058e-13
6.89319e-08
-8.05354e-13
6.89301e-08
-8.78617e-13
6.89286e-08
-9.36374e-13
6.89274e-08
-9.78361e-13
6.89264e-08
-1.01263e-12
6.89255e-08
-1.02562e-12
6.89248e-08
-1.02311e-12
6.89242e-08
-1.01196e-12
6.89237e-08
-9.87205e-13
6.89233e-08
-9.53438e-13
6.89229e-08
-9.12411e-13
6.89227e-08
-8.64983e-13
6.89225e-08
-8.14029e-13
6.89223e-08
-7.61567e-13
6.89221e-08
-7.07261e-13
6.8922e-08
-6.53088e-13
6.89219e-08
-6.00492e-13
6.89219e-08
-5.4898e-13
6.89218e-08
-4.99715e-13
6.89218e-08
-4.52602e-13
6.89218e-08
-4.08661e-13
6.89218e-08
-3.67086e-13
6.89217e-08
-3.28943e-13
6.89217e-08
-2.93147e-13
6.89217e-08
-2.60864e-13
6.89217e-08
-2.30929e-13
6.89217e-08
-2.04143e-13
6.89217e-08
-1.79642e-13
6.89217e-08
-1.57651e-13
6.89217e-08
-1.38192e-13
6.89217e-08
-1.20289e-13
6.89217e-08
-1.05078e-13
6.89217e-08
-9.08054e-14
6.89218e-08
-7.89434e-14
6.89218e-08
-6.78361e-14
6.89218e-08
-5.8771e-14
6.89218e-08
-4.99501e-14
6.89218e-08
-4.3514e-14
6.89218e-08
-3.62564e-14
6.89218e-08
-3.19681e-14
6.89218e-08
-2.60965e-14
6.89218e-08
-2.34622e-14
6.89218e-08
-1.88628e-14
6.89218e-08
-1.53241e-14
-8.98656e-15
7.52735e-08
1.78503e-09
-7.52043e-08
7.53731e-08
1.93988e-09
7.5501e-08
2.08074e-09
7.56521e-08
2.20608e-09
7.58233e-08
2.30887e-09
7.60005e-08
2.38612e-09
7.61644e-08
2.42972e-09
7.63053e-08
2.42762e-09
7.64282e-08
2.39236e-09
7.65329e-08
2.34379e-09
7.66143e-08
2.27742e-09
7.66769e-08
2.19274e-09
7.67269e-08
2.10769e-09
7.67637e-08
2.02611e-09
7.67901e-08
1.93878e-09
7.68116e-08
1.84985e-09
7.68278e-08
1.76548e-09
7.68369e-08
1.67895e-09
7.68421e-08
1.58743e-09
7.68457e-08
1.49718e-09
7.68452e-08
1.40799e-09
7.68396e-08
1.31493e-09
7.68307e-08
1.22008e-09
7.68185e-08
1.12726e-09
7.68018e-08
1.03422e-09
7.67805e-08
9.39135e-10
7.67556e-08
8.45536e-10
7.67267e-08
7.5653e-10
7.66932e-08
6.71328e-10
7.66561e-08
5.8921e-10
7.66167e-08
5.11775e-10
7.6576e-08
4.40682e-10
7.65347e-08
3.7619e-10
7.64938e-08
3.18174e-10
7.6454e-08
2.66806e-10
7.6416e-08
2.22038e-10
7.63802e-08
1.83268e-10
7.63468e-08
1.49736e-10
7.6316e-08
1.2087e-10
7.62876e-08
9.62511e-11
7.62617e-08
7.55465e-11
7.62382e-08
5.84676e-11
7.62172e-08
4.46975e-11
7.61986e-08
3.38559e-11
7.61824e-08
2.55257e-11
7.61685e-08
1.92606e-11
7.61567e-08
1.46222e-11
7.61467e-08
1.12164e-11
7.61384e-08
8.71122e-12
7.61314e-08
6.84499e-12
7.61257e-08
5.42415e-12
7.61209e-08
4.31145e-12
7.61169e-08
3.41247e-12
7.61136e-08
2.6707e-12
7.61108e-08
2.04835e-12
7.61085e-08
1.52253e-12
7.61065e-08
1.07642e-12
7.61049e-08
7.02473e-13
7.61035e-08
3.91679e-13
7.61024e-08
1.34851e-13
7.61014e-08
-6.83981e-14
7.61006e-08
-2.29105e-13
7.61e-08
-3.50722e-13
7.60994e-08
-4.43027e-13
7.6099e-08
-5.07389e-13
7.60986e-08
-5.45976e-13
7.60983e-08
-5.6693e-13
7.60981e-08
-5.744e-13
7.60979e-08
-5.67857e-13
7.60977e-08
-5.52758e-13
7.60976e-08
-5.30931e-13
7.60975e-08
-5.05172e-13
7.60974e-08
-4.74757e-13
7.60974e-08
-4.43176e-13
7.60973e-08
-4.09922e-13
7.60973e-08
-3.77354e-13
7.60973e-08
-3.44632e-13
7.60973e-08
-3.13487e-13
7.60972e-08
-2.83066e-13
7.60972e-08
-2.54927e-13
7.60972e-08
-2.2819e-13
7.60972e-08
-2.03651e-13
7.60972e-08
-1.80896e-13
7.60972e-08
-1.60023e-13
7.60972e-08
-1.41353e-13
7.60972e-08
-1.23944e-13
7.60972e-08
-1.0892e-13
7.60973e-08
-9.4761e-14
7.60973e-08
-8.28197e-14
7.60973e-08
-7.15274e-14
7.60973e-08
-6.23324e-14
7.60973e-08
-5.31483e-14
7.60973e-08
-4.65595e-14
7.60973e-08
-3.8895e-14
7.60973e-08
-3.44227e-14
7.60973e-08
-2.81131e-14
7.60973e-08
-2.52842e-14
7.60973e-08
-1.98912e-14
7.60973e-08
-1.71653e-14
-1.12029e-14
8.32823e-08
1.72102e-09
-8.32183e-08
8.33703e-08
1.85189e-09
8.34815e-08
1.96954e-09
8.36111e-08
2.0764e-09
8.37552e-08
2.16479e-09
8.39073e-08
2.23409e-09
8.40558e-08
2.2812e-09
8.41878e-08
2.29557e-09
8.4303e-08
2.27719e-09
8.44033e-08
2.24344e-09
8.44844e-08
2.19636e-09
8.45478e-08
2.12935e-09
8.46003e-08
2.05519e-09
8.46414e-08
1.98499e-09
8.46703e-08
1.90988e-09
8.46932e-08
1.82697e-09
8.47128e-08
1.74584e-09
8.47257e-08
1.66604e-09
8.47322e-08
1.58098e-09
8.47357e-08
1.49369e-09
8.47359e-08
1.40777e-09
8.47315e-08
1.31928e-09
8.47241e-08
1.22752e-09
8.4714e-08
1.13739e-09
8.46989e-08
1.04933e-09
8.4678e-08
9.60009e-10
8.46531e-08
8.70455e-10
8.46252e-08
7.84401e-10
8.45941e-08
7.02436e-10
8.456e-08
6.23334e-10
8.45239e-08
5.47855e-10
8.44866e-08
4.77931e-10
8.44486e-08
4.14257e-10
8.44102e-08
3.56503e-10
8.43725e-08
3.04532e-10
8.43362e-08
2.58377e-10
8.43017e-08
2.1774e-10
8.42694e-08
1.82071e-10
8.42393e-08
1.50913e-10
8.42116e-08
1.23951e-10
8.41863e-08
1.00914e-10
8.41632e-08
8.15198e-11
8.41425e-08
6.54458e-11
8.4124e-08
5.23281e-11
8.41077e-08
4.1775e-11
8.40936e-08
3.33826e-11
8.40815e-08
2.67583e-11
8.40711e-08
2.15455e-11
8.40624e-08
1.74361e-11
8.40551e-08
1.41756e-11
8.4049e-08
1.15627e-11
8.40438e-08
9.44347e-12
8.40395e-08
7.7035e-12
8.40359e-08
6.26012e-12
8.40329e-08
5.05257e-12
8.40304e-08
4.03844e-12
8.40283e-08
3.18516e-12
8.40265e-08
2.46783e-12
8.40251e-08
1.86792e-12
8.40238e-08
1.3694e-12
8.40228e-08
9.59056e-13
8.4022e-08
6.24698e-13
8.40212e-08
3.55426e-13
8.40207e-08
1.39327e-13
8.40202e-08
-2.7733e-14
8.40198e-08
-1.51413e-13
8.40195e-08
-2.47739e-13
8.40192e-08
-3.15267e-13
8.4019e-08
-3.59251e-13
8.40188e-08
-3.85227e-13
8.40187e-08
-3.98819e-13
8.40186e-08
-4.00933e-13
8.40185e-08
-3.933e-13
8.40185e-08
-3.81074e-13
8.40184e-08
-3.62715e-13
8.40184e-08
-3.42012e-13
8.40184e-08
-3.19086e-13
8.40183e-08
-2.95396e-13
8.40183e-08
-2.70906e-13
8.40183e-08
-2.47306e-13
8.40183e-08
-2.2399e-13
8.40183e-08
-2.01994e-13
8.40183e-08
-1.81183e-13
8.40183e-08
-1.61656e-13
8.40183e-08
-1.43874e-13
8.40183e-08
-1.27097e-13
8.40183e-08
-1.1235e-13
8.40183e-08
-9.83753e-14
8.40183e-08
-8.64459e-14
8.40183e-08
-7.49856e-14
8.40183e-08
-6.57284e-14
8.40183e-08
-5.6206e-14
8.40183e-08
-4.94831e-14
8.40183e-08
-4.14538e-14
8.40183e-08
-3.68e-14
8.40183e-08
-3.00808e-14
8.40183e-08
-2.70954e-14
8.40183e-08
-2.11189e-14
8.40183e-08
-1.89031e-14
-1.29613e-14
9.21221e-08
1.66395e-09
-9.2065e-08
9.21983e-08
1.77572e-09
9.22928e-08
1.87501e-09
9.24017e-08
1.96751e-09
9.25212e-08
2.04533e-09
9.26485e-08
2.10673e-09
9.27771e-08
2.15264e-09
9.28951e-08
2.17753e-09
9.29993e-08
2.17303e-09
9.30932e-08
2.14949e-09
9.31727e-08
2.11687e-09
9.32334e-08
2.06862e-09
9.32823e-08
2.00637e-09
9.33248e-08
1.9424e-09
9.33586e-08
1.87609e-09
9.33834e-08
1.80223e-09
9.34023e-08
1.72687e-09
9.34157e-08
1.65271e-09
9.34236e-08
1.57305e-09
9.34291e-08
1.48821e-09
9.34322e-08
1.40469e-09
9.34298e-08
1.32165e-09
9.34218e-08
1.23549e-09
9.34105e-08
1.1487e-09
9.33961e-08
1.06374e-09
9.33778e-08
9.78319e-10
9.33563e-08
8.91956e-10
9.33324e-08
8.08243e-10
9.33057e-08
7.29159e-10
9.32756e-08
6.53484e-10
9.32427e-08
5.8073e-10
9.32083e-08
5.12337e-10
9.31732e-08
4.49382e-10
9.31379e-08
3.91746e-10
9.31033e-08
3.39192e-10
9.30698e-08
2.9181e-10
9.3038e-08
2.49553e-10
9.3008e-08
2.12067e-10
9.298e-08
1.78971e-10
9.29539e-08
1.5e-10
9.29299e-08
1.24923e-10
9.2908e-08
1.03468e-10
9.28881e-08
8.53229e-11
9.28703e-08
7.01428e-11
9.28545e-08
5.75661e-11
9.28406e-08
4.72266e-11
9.28286e-08
3.87704e-11
9.28183e-08
3.18727e-11
9.28095e-08
2.62467e-11
9.2802e-08
2.16471e-11
9.27957e-08
1.78709e-11
9.27904e-08
1.47538e-11
9.27859e-08
1.21657e-11
9.27822e-08
1.00054e-11
9.2779e-08
8.19439e-12
9.27764e-08
6.67221e-12
9.27742e-08
5.39149e-12
9.27724e-08
4.31443e-12
9.27708e-08
3.41132e-12
9.27695e-08
2.65712e-12
9.27685e-08
2.0306e-12
9.27676e-08
1.5138e-12
9.27668e-08
1.09063e-12
9.27662e-08
7.4687e-13
9.27657e-08
4.71945e-13
9.27653e-08
2.54683e-13
9.2765e-08
8.33937e-14
9.27647e-08
-4.48931e-14
9.27645e-08
-1.40662e-13
9.27643e-08
-2.10722e-13
9.27642e-08
-2.59603e-13
9.27641e-08
-2.91411e-13
9.2764e-08
-3.0831e-13
9.27639e-08
-3.14748e-13
9.27639e-08
-3.12192e-13
9.27638e-08
-3.04392e-13
9.27638e-08
-2.91249e-13
9.27638e-08
-2.75169e-13
9.27638e-08
-2.57172e-13
9.27638e-08
-2.38251e-13
9.27638e-08
-2.18522e-13
9.27638e-08
-1.99247e-13
9.27638e-08
-1.8052e-13
9.27638e-08
-1.62503e-13
9.27638e-08
-1.45695e-13
9.27638e-08
-1.29651e-13
9.27638e-08
-1.1528e-13
9.27638e-08
-1.01534e-13
9.27638e-08
-8.97149e-14
9.27638e-08
-7.81173e-14
9.27638e-08
-6.8844e-14
9.27638e-08
-5.90372e-14
9.27638e-08
-5.21899e-14
9.27638e-08
-4.38483e-14
9.27638e-08
-3.90324e-14
9.27638e-08