/*--------------------------------*- C++ -*----------------------------------*\
| =========                 |                                                 |
| \\      /  F ield         | OpenFOAM: The Open Source CFD Toolbox           |
|  \\    /   O peration     | Version:  2.3.0                                 |
|   \\  /    A nd           | Web:      www.OpenFOAM.org                      |
|    \\/     M anipulation  |                                                 |
\*---------------------------------------------------------------------------*/
FoamFile
{
    version     2.0;
    format      ascii;
    class       volVectorField;
    location    "0.1";
    object      U;
}
// * * * * * * * * * * * * * * * * * * * * * * * * * * * * * * * * * * * * * //

dimensions      [0 1 -1 0 0 0 0];

internalField   nonuniform List<vector> 
2000
(
(0.175934 0.00436355 0)
(0.15529 0.00603863 0)
(0.136491 0.00619632 0)
(0.11818 0.00556497 0)
(0.100557 0.00473008 0)
(0.0844953 0.00381422 0)
(0.0710449 0.0028292 0)
(0.060572 0.00179465 0)
(0.0528581 0.000893618 0)
(0.047359 0.000283162 0)
(0.0435053 -4.08965e-05 0)
(0.0408158 -0.000169147 0)
(0.0389008 -0.00018506 0)
(0.0374762 -0.000149334 0)
(0.0363454 -9.58563e-05 0)
(0.0353831 -4.36439e-05 0)
(0.0345204 -4.11681e-06 0)
(0.0337289 1.87464e-05 0)
(0.0330021 2.80619e-05 0)
(0.0323406 3.10555e-05 0)
(0.0317485 3.13227e-05 0)
(0.0312321 2.90836e-05 0)
(0.0307955 2.59228e-05 0)
(0.0304384 2.24495e-05 0)
(0.0301609 1.87304e-05 0)
(0.0299597 1.53054e-05 0)
(0.0298302 1.17574e-05 0)
(0.0297692 7.86931e-06 0)
(0.0297729 -3.03108e-06 0)
(0.0298319 -1.13507e-05 0)
(0.0299334 -1.64369e-05 0)
(0.0300618 -1.88273e-05 0)
(0.0302018 -1.92535e-05 0)
(0.0303416 -1.82901e-05 0)
(0.030473 -1.64705e-05 0)
(0.0305914 -1.44094e-05 0)
(0.0306953 -1.24593e-05 0)
(0.0307848 -1.07264e-05 0)
(0.0308611 -9.21149e-06 0)
(0.0309256 -7.87463e-06 0)
(0.0309799 -6.686e-06 0)
(0.0310255 -5.63257e-06 0)
(0.0310636 -4.71514e-06 0)
(0.0310954 -3.93508e-06 0)
(0.0311221 -3.28503e-06 0)
(0.0311445 -2.75106e-06 0)
(0.0311635 -2.3161e-06 0)
(0.0311797 -1.96241e-06 0)
(0.0311936 -1.67324e-06 0)
(0.0312055 -1.43436e-06 0)
(0.0312159 -1.23451e-06 0)
(0.0312249 -1.06522e-06 0)
(0.0312328 -9.20218e-07 0)
(0.0312397 -7.95059e-07 0)
(0.0312456 -6.86656e-07 0)
(0.0312509 -5.92307e-07 0)
(0.0312554 -5.1017e-07 0)
(0.0312593 -4.38818e-07 0)
(0.0312628 -3.76868e-07 0)
(0.0312657 -3.23115e-07 0)
(0.0312683 -2.76558e-07 0)
(0.0312705 -2.36353e-07 0)
(0.0312725 -2.01701e-07 0)
(0.0312741 -1.71859e-07 0)
(0.0312755 -1.46189e-07 0)
(0.0312768 -1.24154e-07 0)
(0.0312778 -1.05287e-07 0)
(0.0312787 -8.91536e-08 0)
(0.0312795 -7.53668e-08 0)
(0.0312801 -6.36166e-08 0)
(0.0312807 -5.36259e-08 0)
(0.0312812 -4.51279e-08 0)
(0.0312816 -3.79183e-08 0)
(0.0312819 -3.18028e-08 0)
(0.0312822 -2.66339e-08 0)
(0.0312825 -2.22619e-08 0)
(0.0312827 -1.85773e-08 0)
(0.0312829 -1.54816e-08 0)
(0.031283 -1.28581e-08 0)
(0.0312831 -1.06878e-08 0)
(0.0312832 -8.81696e-09 0)
(0.0312833 -7.31017e-09 0)
(0.0312834 -6.00121e-09 0)
(0.0312835 -4.93614e-09 0)
(0.0312835 -4.06197e-09 0)
(0.0312836 -3.28537e-09 0)
(0.0312836 -2.72213e-09 0)
(0.0312836 -2.18106e-09 0)
(0.0312836 -1.77914e-09 0)
(0.0312837 -1.44472e-09 0)
(0.0312837 -1.14799e-09 0)
(0.0312837 -9.17758e-10 0)
(0.0312837 -7.43676e-10 0)
(0.0312837 -5.57234e-10 0)
(0.0312837 -4.39884e-10 0)
(0.0312837 -3.65515e-10 0)
(0.0312837 -4.23656e-10 0)
(0.0312837 2.31777e-11 0)
(0.0312837 -1.82771e-09 0)
(0.0312838 -2.16252e-09 0)
(0.191262 0.00773 0)
(0.189651 0.0109506 0)
(0.187338 0.0120923 0)
(0.183688 0.0119189 0)
(0.178496 0.0112493 0)
(0.172028 0.0103287 0)
(0.164856 0.00916733 0)
(0.157362 0.00774928 0)
(0.149898 0.0062028 0)
(0.142724 0.00475197 0)
(0.135988 0.0035578 0)
(0.129788 0.00265102 0)
(0.124176 0.00198725 0)
(0.119164 0.00152211 0)
(0.114726 0.00120917 0)
(0.110814 0.000997929 0)
(0.107374 0.000847123 0)
(0.104342 0.000729821 0)
(0.101673 0.000628741 0)
(0.0993361 0.000536682 0)
(0.0973034 0.000451637 0)
(0.0955464 0.000371814 0)
(0.0940505 0.000297272 0)
(0.0928022 0.000226773 0)
(0.0917895 0.000160502 0)
(0.0909948 0.000101184 0)
(0.0904042 5.05138e-05 0)
(0.0899984 6.14603e-06 0)
(0.0897641 -3.98502e-05 0)
(0.0896826 -7.91363e-05 0)
(0.0897216 -0.00010352 0)
(0.0898479 -0.000113523 0)
(0.0900293 -0.000112796 0)
(0.0902385 -0.000104811 0)
(0.0904546 -9.25768e-05 0)
(0.0906632 -7.9202e-05 0)
(0.0908559 -6.65959e-05 0)
(0.0910286 -5.55471e-05 0)
(0.0911799 -4.62552e-05 0)
(0.09131 -3.85728e-05 0)
(0.0914205 -3.22246e-05 0)
(0.0915133 -2.69426e-05 0)
(0.0915907 -2.25376e-05 0)
(0.0916551 -1.88798e-05 0)
(0.0917087 -1.58607e-05 0)
(0.0917535 -1.3381e-05 0)
(0.0917911 -1.13483e-05 0)
(0.091823 -9.67885e-06 0)
(0.0918503 -8.29873e-06 0)
(0.0918739 -7.14736e-06 0)
(0.0918943 -6.1756e-06 0)
(0.091912 -5.3467e-06 0)
(0.0919275 -4.63339e-06 0)
(0.091941 -4.01514e-06 0)
(0.0919528 -3.47772e-06 0)
(0.0919632 -3.00918e-06 0)
(0.0919722 -2.60068e-06 0)
(0.0919801 -2.24477e-06 0)
(0.091987 -1.93465e-06 0)
(0.0919929 -1.66487e-06 0)
(0.0919981 -1.43062e-06 0)
(0.0920027 -1.22762e-06 0)
(0.0920066 -1.05206e-06 0)
(0.09201 -9.00421e-07 0)
(0.0920129 -7.69502e-07 0)
(0.0920154 -6.56615e-07 0)
(0.0920176 -5.59521e-07 0)
(0.0920195 -4.76165e-07 0)
(0.0920211 -4.04645e-07 0)
(0.0920225 -3.43393e-07 0)
(0.0920237 -2.91033e-07 0)
(0.0920247 -2.46301e-07 0)
(0.0920256 -2.08165e-07 0)
(0.0920263 -1.75665e-07 0)
(0.092027 -1.48031e-07 0)
(0.0920275 -1.24544e-07 0)
(0.092028 -1.04629e-07 0)
(0.0920284 -8.77887e-08 0)
(0.0920287 -7.34852e-08 0)
(0.092029 -6.14951e-08 0)
(0.0920292 -5.12383e-08 0)
(0.0920294 -4.27469e-08 0)
(0.0920296 -3.55004e-08 0)
(0.0920298 -2.94362e-08 0)
(0.0920299 -2.44481e-08 0)
(0.09203 -2.00867e-08 0)
(0.0920301 -1.66728e-08 0)
(0.0920301 -1.36742e-08 0)
(0.0920302 -1.11855e-08 0)
(0.0920302 -9.25732e-09 0)
(0.0920303 -7.4738e-09 0)
(0.0920303 -6.09107e-09 0)
(0.0920304 -5.01707e-09 0)
(0.0920304 -3.9364e-09 0)
(0.0920304 -3.24812e-09 0)
(0.0920304 -2.63427e-09 0)
(0.0920304 -2.31589e-09 0)
(0.0920304 1.36797e-09 0)
(0.0920304 -3.60272e-09 0)
(0.0920305 -7.06131e-09 0)
(0.192438 0.00736777 0)
(0.192867 0.0100243 0)
(0.193963 0.0116665 0)
(0.195092 0.0121836 0)
(0.195663 0.0120335 0)
(0.195461 0.011525 0)
(0.194512 0.0107743 0)
(0.192841 0.0098144 0)
(0.190502 0.00867905 0)
(0.187644 0.00749984 0)
(0.184474 0.00643934 0)
(0.181164 0.00557458 0)
(0.17781 0.00487851 0)
(0.174479 0.00430788 0)
(0.171217 0.00383175 0)
(0.168068 0.00342407 0)
(0.165064 0.00306258 0)
(0.162215 0.00273319 0)
(0.159516 0.0024303 0)
(0.156977 0.00214642 0)
(0.154614 0.00187408 0)
(0.152436 0.00161386 0)
(0.150451 0.00136734 0)
(0.148668 0.00113047 0)
(0.147096 0.000904435 0)
(0.145733 0.000695275 0)
(0.144578 0.000502493 0)
(0.143628 0.000322746 0)
(0.142872 0.000162255 0)
(0.142299 2.64087e-05 0)
(0.141893 -7.62582e-05 0)
(0.141631 -0.00014599 0)
(0.141488 -0.00018644 0)
(0.14144 -0.000203591 0)
(0.141465 -0.000203098 0)
(0.14154 -0.000191194 0)
(0.14165 -0.000172791 0)
(0.141778 -0.000151382 0)
(0.141914 -0.000129535 0)
(0.142048 -0.00010888 0)
(0.142173 -9.03438e-05 0)
(0.142286 -7.43241e-05 0)
(0.142384 -6.09019e-05 0)
(0.142467 -4.99394e-05 0)
(0.142537 -4.1147e-05 0)
(0.142594 -3.41675e-05 0)
(0.142641 -2.86388e-05 0)
(0.14268 -2.42361e-05 0)
(0.142712 -2.06864e-05 0)
(0.142739 -1.7779e-05 0)
(0.142762 -1.53568e-05 0)
(0.142782 -1.33066e-05 0)
(0.142799 -1.15493e-05 0)
(0.142813 -1.00294e-05 0)
(0.142826 -8.70776e-06 0)
(0.142837 -7.55405e-06 0)
(0.142847 -6.54669e-06 0)
(0.142856 -5.66771e-06 0)
(0.142863 -4.90033e-06 0)
(0.14287 -4.23095e-06 0)
(0.142876 -3.64822e-06 0)
(0.142881 -3.14171e-06 0)
(0.142885 -2.70209e-06 0)
(0.142889 -2.32113e-06 0)
(0.142892 -1.99132e-06 0)
(0.142895 -1.70609e-06 0)
(0.142897 -1.45982e-06 0)
(0.1429 -1.24748e-06 0)
(0.142901 -1.06459e-06 0)
(0.142903 -9.07413e-07 0)
(0.142904 -7.72487e-07 0)
(0.142906 -6.56715e-07 0)
(0.142907 -5.57579e-07 0)
(0.142908 -4.72777e-07 0)
(0.142908 -4.00345e-07 0)
(0.142909 -3.38518e-07 0)
(0.14291 -2.85866e-07 0)
(0.14291 -2.41059e-07 0)
(0.14291 -2.02966e-07 0)
(0.142911 -1.70674e-07 0)
(0.142911 -1.432e-07 0)
(0.142911 -1.20058e-07 0)
(0.142912 -1.00396e-07 0)
(0.142912 -8.3859e-08 0)
(0.142912 -6.99271e-08 0)
(0.142912 -5.81597e-08 0)
(0.142912 -4.83309e-08 0)
(0.142912 -4.01215e-08 0)
(0.142912 -3.30896e-08 0)
(0.142912 -2.74591e-08 0)
(0.142912 -2.25664e-08 0)
(0.142912 -1.84593e-08 0)
(0.142912 -1.5366e-08 0)
(0.142913 -1.22658e-08 0)
(0.142913 -1.02786e-08 0)
(0.142913 -8.24664e-09 0)
(0.142913 -7.07785e-09 0)
(0.142913 -2.27797e-10 0)
(0.142913 -5.41606e-09 0)
(0.142913 -1.04296e-08 0)
(0.193592 0.0069269 0)
(0.193908 0.00873801 0)
(0.194919 0.0102178 0)
(0.196427 0.0109822 0)
(0.197958 0.0110964 0)
(0.199225 0.0107831 0)
(0.200149 0.0102499 0)
(0.200688 0.00959869 0)
(0.200769 0.00883919 0)
(0.200388 0.00800317 0)
(0.199642 0.00717934 0)
(0.198665 0.0064568 0)
(0.197551 0.00587434 0)
(0.196343 0.00540417 0)
(0.195054 0.0049952 0)
(0.193708 0.00461519 0)
(0.192349 0.0042539 0)
(0.191004 0.00391271 0)
(0.189668 0.0035936 0)
(0.188335 0.00328559 0)
(0.187019 0.00297545 0)
(0.185732 0.00266409 0)
(0.184489 0.0023559 0)
(0.183304 0.00204916 0)
(0.182186 0.00174532 0)
(0.181146 0.00145194 0)
(0.180192 0.00117246 0)
(0.17933 0.000906246 0)
(0.178558 0.000656217 0)
(0.177882 0.000433654 0)
(0.177301 0.000247705 0)
(0.176817 0.000100403 0)
(0.176426 -9.52485e-06 0)
(0.176122 -8.51497e-05 0)
(0.175895 -0.00013399 0)
(0.175735 -0.000163105 0)
(0.175632 -0.00017763 0)
(0.175579 -0.00018072 0)
(0.175566 -0.000175088 0)
(0.175586 -0.000163027 0)
(0.175629 -0.000146707 0)
(0.175686 -0.000128157 0)
(0.175748 -0.000109231 0)
(0.17581 -9.13857e-05 0)
(0.175867 -7.55361e-05 0)
(0.175917 -6.20954e-05 0)
(0.175959 -5.10772e-05 0)
(0.175993 -4.22441e-05 0)
(0.176021 -3.52363e-05 0)
(0.176044 -2.96754e-05 0)
(0.176062 -2.52206e-05 0)
(0.176078 -2.15988e-05 0)
(0.17609 -1.86021e-05 0)
(0.176101 -1.60816e-05 0)
(0.17611 -1.3934e-05 0)
(0.176118 -1.20841e-05 0)
(0.176125 -1.04815e-05 0)
(0.176131 -9.08865e-06 0)
(0.176136 -7.87529e-06 0)
(0.176141 -6.81696e-06 0)
(0.176145 -5.89459e-06 0)
(0.176148 -5.09179e-06 0)
(0.176151 -4.39356e-06 0)
(0.176154 -3.78665e-06 0)
(0.176157 -3.25952e-06 0)
(0.176159 -2.80229e-06 0)
(0.176161 -2.40648e-06 0)
(0.176162 -2.06414e-06 0)
(0.176164 -1.76811e-06 0)
(0.176165 -1.51272e-06 0)
(0.176166 -1.29276e-06 0)
(0.176167 -1.1034e-06 0)
(0.176168 -9.40558e-07 0)
(0.176168 -8.00701e-07 0)
(0.176169 -6.80791e-07 0)
(0.17617 -5.77991e-07 0)
(0.17617 -4.90178e-07 0)
(0.17617 -4.15034e-07 0)
(0.176171 -3.51031e-07 0)
(0.176171 -2.96412e-07 0)
(0.176171 -2.49835e-07 0)
(0.176172 -2.10471e-07 0)
(0.176172 -1.76694e-07 0)
(0.176172 -1.48495e-07 0)
(0.176172 -1.24224e-07 0)
(0.176172 -1.0399e-07 0)
(0.176172 -8.68242e-08 0)
(0.176172 -7.23444e-08 0)
(0.176172 -6.02112e-08 0)
(0.176172 -4.99952e-08 0)
(0.176172 -4.15223e-08 0)
(0.176173 -3.40965e-08 0)
(0.176173 -2.85593e-08 0)
(0.176173 -2.30155e-08 0)
(0.176173 -1.9464e-08 0)
(0.176173 -1.56876e-08 0)
(0.176173 -1.36169e-08 0)
(0.176173 -1.00355e-08 0)
(0.176173 -8.78003e-09 0)
(0.176173 -5.76032e-09 0)
(0.194575 0.00660439 0)
(0.194837 0.007916 0)
(0.195587 0.00910639 0)
(0.19679 0.00988963 0)
(0.198166 0.0101573 0)
(0.199467 0.00998154 0)
(0.200581 0.00955212 0)
(0.20147 0.00903631 0)
(0.202102 0.00847519 0)
(0.202454 0.00785399 0)
(0.20255 0.00719671 0)
(0.202453 0.00656988 0)
(0.20224 0.00604259 0)
(0.201964 0.00562834 0)
(0.201637 0.00528044 0)
(0.20126 0.00494451 0)
(0.200858 0.00460461 0)
(0.200451 0.00427759 0)
(0.200037 0.00397465 0)
(0.199603 0.00368301 0)
(0.199145 0.00338579 0)
(0.19867 0.00308141 0)
(0.198185 0.00277324 0)
(0.197693 0.00246115 0)
(0.197197 0.00214889 0)
(0.196705 0.00184401 0)
(0.196222 0.00154896 0)
(0.195749 0.00126303 0)
(0.19529 0.000991516 0)
(0.194849 0.000744511 0)
(0.19443 0.000529395 0)
(0.194042 0.000349586 0)
(0.193695 0.000205113 0)
(0.193391 9.51654e-05 0)
(0.193131 1.39107e-05 0)
(0.192911 -4.43216e-05 0)
(0.19273 -8.5077e-05 0)
(0.192584 -0.000113151 0)
(0.192472 -0.000130759 0)
(0.192391 -0.000139293 0)
(0.192339 -0.000139934 0)
(0.192311 -0.000133945 0)
(0.192302 -0.000123056 0)
(0.192306 -0.000109222 0)
(0.192317 -9.42672e-05 0)
(0.192332 -7.96568e-05 0)
(0.192347 -6.63714e-05 0)
(0.192361 -5.4909e-05 0)
(0.192373 -4.53829e-05 0)
(0.192382 -3.76594e-05 0)
(0.19239 -3.14717e-05 0)
(0.192395 -2.6523e-05 0)
(0.1924 -2.25371e-05 0)
(0.192403 -1.92875e-05 0)
(0.192406 -1.65989e-05 0)
(0.192408 -1.43396e-05 0)
(0.19241 -1.24192e-05 0)
(0.192412 -1.07713e-05 0)
(0.192413 -9.34726e-06 0)
(0.192415 -8.11097e-06 0)
(0.192416 -7.03481e-06 0)
(0.192417 -6.09746e-06 0)
(0.192418 -5.28142e-06 0)
(0.192419 -4.57082e-06 0)
(0.19242 -3.95162e-06 0)
(0.192421 -3.41222e-06 0)
(0.192422 -2.94318e-06 0)
(0.192422 -2.53595e-06 0)
(0.192423 -2.18247e-06 0)
(0.192423 -1.87598e-06 0)
(0.192424 -1.61064e-06 0)
(0.192424 -1.38125e-06 0)
(0.192425 -1.18311e-06 0)
(0.192425 -1.01207e-06 0)
(0.192425 -8.64679e-07 0)
(0.192426 -7.37645e-07 0)
(0.192426 -6.28566e-07 0)
(0.192426 -5.34752e-07 0)
(0.192426 -4.54434e-07 0)
(0.192426 -3.85643e-07 0)
(0.192427 -3.26521e-07 0)
(0.192427 -2.76536e-07 0)
(0.192427 -2.33157e-07 0)
(0.192427 -1.96993e-07 0)
(0.192427 -1.65582e-07 0)
(0.192427 -1.39232e-07 0)
(0.192427 -1.16963e-07 0)
(0.192427 -9.77349e-08 0)
(0.192427 -8.19758e-08 0)
(0.192427 -6.82028e-08 0)
(0.192427 -5.7078e-08 0)
(0.192427 -4.70731e-08 0)
(0.192427 -3.96119e-08 0)
(0.192428 -3.21678e-08 0)
(0.192428 -2.73839e-08 0)
(0.192428 -2.22003e-08 0)
(0.192428 -1.95624e-08 0)
(0.192428 -2.16199e-08 0)
(0.192428 -1.169e-08 0)
(0.192428 2.03874e-09 0)
(0.195422 0.00633317 0)
(0.195663 0.00734693 0)
(0.196242 0.00827287 0)
(0.197162 0.00896195 0)
(0.198257 0.0093113 0)
(0.199365 0.0092763 0)
(0.200376 0.00896209 0)
(0.201211 0.00854859 0)
(0.201848 0.00810582 0)
(0.202317 0.00761101 0)
(0.202625 0.00706979 0)
(0.202765 0.00652798 0)
(0.202783 0.00604013 0)
(0.202755 0.00564435 0)
(0.202709 0.00532106 0)
(0.202643 0.00500818 0)
(0.202563 0.00467916 0)
(0.202484 0.00435897 0)
(0.2024 0.00406407 0)
(0.202304 0.00377942 0)
(0.202194 0.00349082 0)
(0.20207 0.00319818 0)
(0.201927 0.00290122 0)
(0.201767 0.00259839 0)
(0.201592 0.00229606 0)
(0.201402 0.00200162 0)
(0.201196 0.00171524 0)
(0.200973 0.00143639 0)
(0.200737 0.00117126 0)
(0.200491 0.000928848 0)
(0.200239 0.000714189 0)
(0.199988 0.000528832 0)
(0.199746 0.000373705 0)
(0.19952 0.00024819 0)
(0.199313 0.000150205 0)
(0.199127 7.56055e-05 0)
(0.198961 1.90659e-05 0)
(0.198814 -2.43611e-05 0)
(0.198687 -5.7045e-05 0)
(0.198579 -8.04123e-05 0)
(0.19849 -9.52426e-05 0)
(0.198419 -0.000102064 0)
(0.198365 -0.000101924 0)
(0.198325 -9.63992e-05 0)
(0.198297 -8.73158e-05 0)
(0.198277 -7.64467e-05 0)
(0.198263 -6.52533e-05 0)
(0.198253 -5.47462e-05 0)
(0.198246 -4.54915e-05 0)
(0.198241 -3.76949e-05 0)
(0.198236 -3.13156e-05 0)
(0.198232 -2.61798e-05 0)
(0.198228 -2.20629e-05 0)
(0.198225 -1.87528e-05 0)
(0.198222 -1.60628e-05 0)
(0.198219 -1.38426e-05 0)
(0.198217 -1.19865e-05 0)
(0.198215 -1.04139e-05 0)
(0.198213 -9.06566e-06 0)
(0.198212 -7.90108e-06 0)
(0.198211 -6.88885e-06 0)
(0.19821 -6.00496e-06 0)
(0.19821 -5.23282e-06 0)
(0.198209 -4.55798e-06 0)
(0.198209 -3.96713e-06 0)
(0.198208 -3.44948e-06 0)
(0.198208 -2.99615e-06 0)
(0.198208 -2.59933e-06 0)
(0.198208 -2.25257e-06 0)
(0.198208 -1.95e-06 0)
(0.198208 -1.68581e-06 0)
(0.198208 -1.45558e-06 0)
(0.198208 -1.2553e-06 0)
(0.198208 -1.08117e-06 0)
(0.198208 -9.29952e-07 0)
(0.198208 -7.98757e-07 0)
(0.198208 -6.85102e-07 0)
(0.198209 -5.86714e-07 0)
(0.198209 -5.01635e-07 0)
(0.198209 -4.28492e-07 0)
(0.198209 -3.64952e-07 0)
(0.198209 -3.11092e-07 0)
(0.198209 -2.63866e-07 0)
(0.198209 -2.24232e-07 0)
(0.198209 -1.89711e-07 0)
(0.198209 -1.60286e-07 0)
(0.198209 -1.35628e-07 0)
(0.198209 -1.13783e-07 0)
(0.198209 -9.61549e-08 0)
(0.198209 -8.03106e-08 0)
(0.198209 -6.76742e-08 0)
(0.198209 -5.61082e-08 0)
(0.198209 -4.74651e-08 0)
(0.198209 -3.87934e-08 0)
(0.198209 -3.32568e-08 0)
(0.198209 -2.70309e-08 0)
(0.198209 -2.41942e-08 0)
(0.198209 -2.65837e-08 0)
(0.198209 -1.28789e-08 0)
(0.198209 3.64068e-09 0)
(0.19616 0.00607123 0)
(0.19638 0.00687124 0)
(0.196844 0.00759714 0)
(0.197561 0.00816126 0)
(0.198404 0.00851426 0)
(0.199282 0.00858687 0)
(0.200154 0.00839446 0)
(0.200911 0.00807981 0)
(0.201483 0.0077314 0)
(0.201929 0.00732737 0)
(0.202281 0.00687121 0)
(0.202489 0.00641271 0)
(0.202565 0.00598402 0)
(0.202597 0.00560788 0)
(0.202622 0.00528995 0)
(0.202629 0.00499127 0)
(0.202628 0.00467765 0)
(0.20263 0.00436542 0)
(0.202624 0.00407599 0)
(0.202606 0.0037973 0)
(0.202587 0.00351355 0)
(0.20256 0.00322755 0)
(0.202512 0.00294259 0)
(0.202448 0.002654 0)
(0.202374 0.00236352 0)
(0.202286 0.00207999 0)
(0.202176 0.0018064 0)
(0.202046 0.00154103 0)
(0.2019 0.00128796 0)
(0.201742 0.00105516 0)
(0.201572 0.000846806 0)
(0.201394 0.000663206 0)
(0.201214 0.000504783 0)
(0.201039 0.000372494 0)
(0.200874 0.000265962 0)
(0.200721 0.000181283 0)
(0.20058 0.000113906 0)
(0.200452 6.05643e-05 0)
(0.200336 1.83221e-05 0)
(0.200233 -1.44398e-05 0)
(0.200141 -3.83375e-05 0)
(0.200061 -5.41352e-05 0)
(0.199992 -6.2633e-05 0)
(0.199935 -6.50144e-05 0)
(0.199889 -6.27812e-05 0)
(0.199851 -5.75476e-05 0)
(0.199821 -5.07732e-05 0)
(0.199797 -4.35933e-05 0)
(0.199778 -3.67729e-05 0)
(0.199763 -3.0731e-05 0)
(0.199751 -2.56234e-05 0)
(0.199741 -2.14365e-05 0)
(0.199732 -1.80562e-05 0)
(0.199725 -1.53417e-05 0)
(0.199719 -1.31531e-05 0)
(0.199713 -1.13676e-05 0)
(0.199709 -9.8895e-06 0)
(0.199705 -8.64728e-06 0)
(0.199702 -7.58725e-06 0)
(0.199699 -6.67373e-06 0)
(0.199697 -5.87834e-06 0)
(0.199695 -5.17847e-06 0)
(0.199694 -4.56141e-06 0)
(0.199693 -4.01713e-06 0)
(0.199692 -3.53531e-06 0)
(0.199691 -3.1082e-06 0)
(0.19969 -2.72998e-06 0)
(0.19969 -2.39454e-06 0)
(0.199689 -2.09722e-06 0)
(0.199689 -1.83464e-06 0)
(0.199689 -1.6026e-06 0)
(0.199688 -1.39782e-06 0)
(0.199688 -1.21732e-06 0)
(0.199688 -1.05853e-06 0)
(0.199688 -9.18791e-07 0)
(0.199688 -7.96376e-07 0)
(0.199688 -6.89028e-07 0)
(0.199688 -5.95359e-07 0)
(0.199688 -5.13134e-07 0)
(0.199688 -4.41933e-07 0)
(0.199688 -3.79243e-07 0)
(0.199688 -3.25755e-07 0)
(0.199688 -2.78427e-07 0)
(0.199688 -2.38195e-07 0)
(0.199688 -2.03124e-07 0)
(0.199688 -1.72602e-07 0)
(0.199688 -1.47181e-07 0)
(0.199688 -1.24159e-07 0)
(0.199688 -1.05666e-07 0)
(0.199688 -8.87644e-08 0)
(0.199688 -7.52684e-08 0)
(0.199688 -6.2778e-08 0)
(0.199688 -5.34408e-08 0)
(0.199688 -4.389e-08 0)
(0.199688 -3.79073e-08 0)
(0.199688 -3.08038e-08 0)
(0.199688 -2.76664e-08 0)
(0.199688 -2.66802e-08 0)
(0.199688 -1.47311e-08 0)
(0.199688 -7.4179e-10 0)
(0.196809 0.00580878 0)
(0.197006 0.00644402 0)
(0.197371 0.00702189 0)
(0.197937 0.00747331 0)
(0.198594 0.00778401 0)
(0.199265 0.00791895 0)
(0.199978 0.00783795 0)
(0.200655 0.00761243 0)
(0.201168 0.00734284 0)
(0.201562 0.00702391 0)
(0.201911 0.0066405 0)
(0.202149 0.00624934 0)
(0.20225 0.00588724 0)
(0.202307 0.00554564 0)
(0.202367 0.00523066 0)
(0.202398 0.00494225 0)
(0.202409 0.00465116 0)
(0.202429 0.00435212 0)
(0.202445 0.00406867 0)
(0.202442 0.00379875 0)
(0.202437 0.00352168 0)
(0.202431 0.00323993 0)
(0.202405 0.00296531 0)
(0.202357 0.00269213 0)
(0.202304 0.00241374 0)
(0.202245 0.00213907 0)
(0.202166 0.00187684 0)
(0.202064 0.00162571 0)
(0.201948 0.00138528 0)
(0.201824 0.00116112 0)
(0.201688 0.00095857 0)
(0.201544 0.000778734 0)
(0.201396 0.000621238 0)
(0.201251 0.000486404 0)
(0.201111 0.000374159 0)
(0.200979 0.000282218 0)
(0.200855 0.000207183 0)
(0.200741 0.000145815 0)
(0.200637 9.54749e-05 0)
(0.200542 5.48541e-05 0)
(0.200456 2.32369e-05 0)
(0.200379 -2.09017e-07 0)
(0.200311 -1.62538e-05 0)
(0.200252 -2.58309e-05 0)
(0.200201 -3.02569e-05 0)
(0.200159 -3.0958e-05 0)
(0.200124 -2.92681e-05 0)
(0.200095 -2.63014e-05 0)
(0.200072 -2.28764e-05 0)
(0.200053 -1.95148e-05 0)
(0.200037 -1.65034e-05 0)
(0.200024 -1.39458e-05 0)
(0.200013 -1.18596e-05 0)
(0.200005 -1.01809e-05 0)
(0.199997 -8.82836e-06 0)
(0.199991 -7.73901e-06 0)
(0.199986 -6.84672e-06 0)
(0.199981 -6.09734e-06 0)
(0.199977 -5.45449e-06 0)
(0.199974 -4.89595e-06 0)
(0.199972 -4.40425e-06 0)
(0.199969 -3.96309e-06 0)
(0.199967 -3.56312e-06 0)
(0.199966 -3.20123e-06 0)
(0.199965 -2.87293e-06 0)
(0.199964 -2.57366e-06 0)
(0.199963 -2.3007e-06 0)
(0.199962 -2.05316e-06 0)
(0.199962 -1.8283e-06 0)
(0.199961 -1.6245e-06 0)
(0.199961 -1.44017e-06 0)
(0.199961 -1.27426e-06 0)
(0.199961 -1.12488e-06 0)
(0.19996 -9.91136e-07 0)
(0.19996 -8.71036e-07 0)
(0.19996 -7.63894e-07 0)
(0.19996 -6.68029e-07 0)
(0.19996 -5.83513e-07 0)
(0.19996 -5.07971e-07 0)
(0.19996 -4.41836e-07 0)
(0.19996 -3.82638e-07 0)
(0.19996 -3.31474e-07 0)
(0.19996 -2.85821e-07 0)
(0.19996 -2.46311e-07 0)
(0.19996 -2.1187e-07 0)
(0.19996 -1.81243e-07 0)
(0.19996 -1.55712e-07 0)
(0.19996 -1.32255e-07 0)
(0.19996 -1.13259e-07 0)
(0.19996 -9.57966e-08 0)
(0.19996 -8.1711e-08 0)
(0.19996 -6.85412e-08 0)
(0.19996 -5.87442e-08 0)
(0.19996 -4.84162e-08 0)
(0.19996 -4.21009e-08 0)
(0.19996 -3.4162e-08 0)
(0.19996 -3.05742e-08 0)
(0.19996 -2.63286e-08 0)
(0.19996 -1.76791e-08 0)
(0.19996 -6.45494e-09 0)
(0.197348 0.00556246 0)
(0.197523 0.00606929 0)
(0.197808 0.0065405 0)
(0.19826 0.00691222 0)
(0.198792 0.00717128 0)
(0.199311 0.00732667 0)
(0.199865 0.00732996 0)
(0.200448 0.00717912 0)
(0.200919 0.00696957 0)
(0.201262 0.00672965 0)
(0.201576 0.00641931 0)
(0.201828 0.00607895 0)
(0.201951 0.00576861 0)
(0.202017 0.00546932 0)
(0.202094 0.00516716 0)
(0.202146 0.00488749 0)
(0.202159 0.0046197 0)
(0.202182 0.00433787 0)
(0.202211 0.00405791 0)
(0.202214 0.00379479 0)
(0.202206 0.00352989 0)
(0.202206 0.00325529 0)
(0.20219 0.00298629 0)
(0.202145 0.00272505 0)
(0.202096 0.00246048 0)
(0.202048 0.00219578 0)
(0.201983 0.00194345 0)
(0.201894 0.00170547 0)
(0.201792 0.00147768 0)
(0.201687 0.0012623 0)
(0.201574 0.00106529 0)
(0.201451 0.000888565 0)
(0.201323 0.000731112 0)
(0.201196 0.000593124 0)
(0.201073 0.000475249 0)
(0.200956 0.000376317 0)
(0.200845 0.0002936 0)
(0.200742 0.00022442 0)
(0.200648 0.000166946 0)
(0.200562 0.000119758 0)
(0.200483 8.16593e-05 0)
(0.200412 5.1913e-05 0)
(0.200348 2.96936e-05 0)
(0.200292 1.4045e-05 0)
(0.200244 3.76671e-06 0)
(0.200202 -2.39045e-06 0)
(0.200167 -5.60528e-06 0)
(0.200137 -6.89467e-06 0)
(0.200113 -7.04847e-06 0)
(0.200093 -6.62472e-06 0)
(0.200076 -5.98535e-06 0)
(0.200063 -5.3313e-06 0)
(0.200052 -4.75929e-06 0)
(0.200042 -4.29717e-06 0)
(0.200034 -3.93615e-06 0)
(0.200028 -3.6603e-06 0)
(0.200022 -3.43938e-06 0)
(0.200017 -3.25097e-06 0)
(0.200014 -3.08511e-06 0)
(0.20001 -2.92629e-06 0)
(0.200008 -2.76672e-06 0)
(0.200005 -2.61093e-06 0)
(0.200003 -2.45206e-06 0)
(0.200002 -2.29042e-06 0)
(0.200001 -2.12939e-06 0)
(0.2 -1.97175e-06 0)
(0.199999 -1.81601e-06 0)
(0.199998 -1.66492e-06 0)
(0.199997 -1.52003e-06 0)
(0.199997 -1.3817e-06 0)
(0.199997 -1.25069e-06 0)
(0.199996 -1.12835e-06 0)
(0.199996 -1.01359e-06 0)
(0.199996 -9.07492e-07 0)
(0.199996 -8.09724e-07 0)
(0.199996 -7.20531e-07 0)
(0.199996 -6.38179e-07 0)
(0.199996 -5.64157e-07 0)
(0.199996 -4.96494e-07 0)
(0.199996 -4.36483e-07 0)
(0.199996 -3.81813e-07 0)
(0.199996 -3.33717e-07 0)
(0.199996 -2.90383e-07 0)
(0.199996 -2.52116e-07 0)
(0.199996 -2.18662e-07 0)
(0.199996 -1.88358e-07 0)
(0.199996 -1.62924e-07 0)
(0.199996 -1.3936e-07 0)
(0.199996 -1.19994e-07 0)
(0.199996 -1.0215e-07 0)
(0.199996 -8.76235e-08 0)
(0.199996 -7.38375e-08 0)
(0.199996 -6.36972e-08 0)
(0.199996 -5.26297e-08 0)
(0.199996 -4.60057e-08 0)
(0.199996 -3.72874e-08 0)
(0.199996 -3.32687e-08 0)
(0.199996 -2.69056e-08 0)
(0.199996 -2.07343e-08 0)
(0.199996 -1.11792e-08 0)
(0.197803 0.00534211 0)
(0.197965 0.00575321 0)
(0.198189 0.00614259 0)
(0.198537 0.0064572 0)
(0.198973 0.00667496 0)
(0.199393 0.00682096 0)
(0.199812 0.00687125 0)
(0.200286 0.00678685 0)
(0.200714 0.00662611 0)
(0.201016 0.00644254 0)
(0.201279 0.00620098 0)
(0.201528 0.00590953 0)
(0.201672 0.00563491 0)
(0.201739 0.00537633 0)
(0.201822 0.00510074 0)
(0.201894 0.00482894 0)
(0.201911 0.00457572 0)
(0.201925 0.00431502 0)
(0.201961 0.00404545 0)
(0.201977 0.00378849 0)
(0.201969 0.00353532 0)
(0.201966 0.00326976 0)
(0.201957 0.00300519 0)
(0.201918 0.00275463 0)
(0.201869 0.0025072 0)
(0.201828 0.00225575 0)
(0.201778 0.00201111 0)
(0.201702 0.00178116 0)
(0.201611 0.0015624 0)
(0.201518 0.00135309 0)
(0.201421 0.0011583 0)
(0.201315 0.000982324 0)
(0.201203 0.000825297 0)
(0.201093 0.000686447 0)
(0.200987 0.000565729 0)
(0.200885 0.000462424 0)
(0.200787 0.000374501 0)
(0.200696 0.000299728 0)
(0.200612 0.000236379 0)
(0.200534 0.000183134 0)
(0.200463 0.000139053 0)
(0.200398 0.000103394 0)
(0.200339 7.53522e-05 0)
(0.200288 5.39385e-05 0)
(0.200242 3.81098e-05 0)
(0.200203 2.67626e-05 0)
(0.200169 1.88371e-05 0)
(0.200141 1.34042e-05 0)
(0.200117 9.70376e-06 0)
(0.200097 7.15394e-06 0)
(0.200081 5.3433e-06 0)
(0.200067 3.9911e-06 0)
(0.200056 2.94081e-06 0)
(0.200046 2.08435e-06 0)
(0.200038 1.36155e-06 0)
(0.200032 7.50785e-07 0)
(0.200026 2.39095e-07 0)
(0.200021 -1.86904e-07 0)
(0.200017 -5.3655e-07 0)
(0.200014 -8.10683e-07 0)
(0.200012 -1.01675e-06 0)
(0.200009 -1.1667e-06 0)
(0.200007 -1.26772e-06 0)
(0.200006 -1.3222e-06 0)
(0.200005 -1.3395e-06 0)
(0.200003 -1.32775e-06 0)
(0.200003 -1.29661e-06 0)
(0.200002 -1.24816e-06 0)
(0.200001 -1.18749e-06 0)
(0.200001 -1.11825e-06 0)
(0.200001 -1.04353e-06 0)
(0.2 -9.67285e-07 0)
(0.2 -8.90201e-07 0)
(0.2 -8.14139e-07 0)
(0.2 -7.39765e-07 0)
(0.2 -6.69689e-07 0)
(0.2 -6.02493e-07 0)
(0.2 -5.40137e-07 0)
(0.2 -4.81095e-07 0)
(0.2 -4.27731e-07 0)
(0.199999 -3.78174e-07 0)
(0.199999 -3.33622e-07 0)
(0.199999 -2.92969e-07 0)
(0.2 -2.56361e-07 0)
(0.2 -2.24085e-07 0)
(0.2 -1.94419e-07 0)
(0.2 -1.69179e-07 0)
(0.2 -1.45702e-07 0)
(0.2 -1.26116e-07 0)
(0.2 -1.07923e-07 0)
(0.2 -9.3117e-08 0)
(0.2 -7.87398e-08 0)
(0.2 -6.83288e-08 0)
(0.2 -5.66e-08 0)
(0.2 -4.96797e-08 0)
(0.2 -4.02667e-08 0)
(0.2 -3.59186e-08 0)
(0.2 -2.82388e-08 0)
(0.2 -2.35844e-08 0)
(0.2 -1.47615e-08 0)
(0.198209 0.00514204 0)
(0.198358 0.00547573 0)
(0.198532 0.00579432 0)
(0.198795 0.00606517 0)
(0.199143 0.00625645 0)
(0.199485 0.00638001 0)
(0.199799 0.00644785 0)
(0.200165 0.00642177 0)
(0.200537 0.00630394 0)
(0.200802 0.00615417 0)
(0.201012 0.00597504 0)
(0.201237 0.00574234 0)
(0.201399 0.00549556 0)
(0.201471 0.00526475 0)
(0.201542 0.00502218 0)
(0.201621 0.00476562 0)
(0.201651 0.00452285 0)
(0.201662 0.00428458 0)
(0.201699 0.00403164 0)
(0.201723 0.00377786 0)
(0.201712 0.00353235 0)
(0.201704 0.00328245 0)
(0.201705 0.00302944 0)
(0.201682 0.00278673 0)
(0.201636 0.00255002 0)
(0.201595 0.00230839 0)
(0.201553 0.00206847 0)
(0.20149 0.00184291 0)
(0.201409 0.00163217 0)
(0.201329 0.00143166 0)
(0.201249 0.0012433 0)
(0.201163 0.0010718 0)
(0.20107 0.000917903 0)
(0.200977 0.000779849 0)
(0.200886 0.000656995 0)
(0.200798 0.0005493 0)
(0.200713 0.000455781 0)
(0.200633 0.000374804 0)
(0.200559 0.000305017 0)
(0.20049 0.000245503 0)
(0.200427 0.000195482 0)
(0.20037 0.000154132 0)
(0.200318 0.000120558 0)
(0.200271 9.3783e-05 0)
(0.20023 7.28019e-05 0)
(0.200194 5.65945e-05 0)
(0.200163 4.41961e-05 0)
(0.200136 3.47504e-05 0)
(0.200114 2.75356e-05 0)
(0.200095 2.19746e-05 0)
(0.200079 1.76275e-05 0)
(0.200066 1.41727e-05 0)
(0.200055 1.13773e-05 0)
(0.200045 9.08231e-06 0)
(0.200038 7.17913e-06 0)
(0.200031 5.59413e-06 0)
(0.200026 4.26899e-06 0)
(0.200021 3.16427e-06 0)
(0.200017 2.25275e-06 0)
(0.200014 1.50526e-06 0)
(0.200012 8.9682e-07 0)
(0.200009 4.12818e-07 0)
(0.200008 3.22339e-08 0)
(0.200006 -2.59155e-07 0)
(0.200005 -4.75728e-07 0)
(0.200004 -6.30421e-07 0)
(0.200003 -7.33977e-07 0)
(0.200002 -7.95499e-07 0)
(0.200002 -8.24262e-07 0)
(0.200001 -8.29334e-07 0)
(0.200001 -8.1696e-07 0)
(0.200001 -7.90416e-07 0)
(0.2 -7.53231e-07 0)
(0.2 -7.10341e-07 0)
(0.2 -6.62038e-07 0)
(0.2 -6.12121e-07 0)
(0.2 -5.60912e-07 0)
(0.2 -5.11414e-07 0)
(0.2 -4.62082e-07 0)
(0.2 -4.16006e-07 0)
(0.2 -3.72033e-07 0)
(0.2 -3.31522e-07 0)
(0.2 -2.93898e-07 0)
(0.2 -2.59288e-07 0)
(0.2 -2.28397e-07 0)
(0.2 -1.99694e-07 0)
(0.2 -1.74801e-07 0)
(0.2 -1.5157e-07 0)
(0.2 -1.31925e-07 0)
(0.2 -1.1342e-07 0)
(0.2 -9.8466e-08 0)
(0.2 -8.34885e-08 0)
(0.2 -7.28407e-08 0)
(0.2 -6.05124e-08 0)
(0.2 -5.32724e-08 0)
(0.2 -4.32171e-08 0)
(0.2 -3.8601e-08 0)
(0.2 -2.9951e-08 0)
(0.2 -2.62351e-08 0)
(0.2 -1.75984e-08 0)
(0.198571 0.00496137 0)
(0.198704 0.00523443 0)
(0.198847 0.00549692 0)
(0.199039 0.00572889 0)
(0.199297 0.00589902 0)
(0.199573 0.0060065 0)
(0.199821 0.00607534 0)
(0.200084 0.00608393 0)
(0.200374 0.00600713 0)
(0.200613 0.00588828 0)
(0.200791 0.00575351 0)
(0.200969 0.00557145 0)
(0.201121 0.00535443 0)
(0.2012 0.00514769 0)
(0.201263 0.00493849 0)
(0.201342 0.00470312 0)
(0.201384 0.00446686 0)
(0.201391 0.00424324 0)
(0.201415 0.00400989 0)
(0.201445 0.00376561 0)
(0.201446 0.00352837 0)
(0.201439 0.00329328 0)
(0.201441 0.00304964 0)
(0.201423 0.00280736 0)
(0.201379 0.00257517 0)
(0.201338 0.00234655 0)
(0.201308 0.00211974 0)
(0.201264 0.00190393 0)
(0.201202 0.00170299 0)
(0.201134 0.00151227 0)
(0.201069 0.00133013 0)
(0.200999 0.0011604 0)
(0.200922 0.00100583 0)
(0.200843 0.000865961 0)
(0.200767 0.000740102 0)
(0.200694 0.000628302 0)
(0.200624 0.000530107 0)
(0.200557 0.00044427 0)
(0.200494 0.000369552 0)
(0.200436 0.000305064 0)
(0.200382 0.000250032 0)
(0.200332 0.000203637 0)
(0.200287 0.000165007 0)
(0.200247 0.000133234 0)
(0.200211 0.000107393 0)
(0.200179 8.65677e-05 0)
(0.200151 6.98855e-05 0)
(0.200127 5.65599e-05 0)
(0.200107 4.59102e-05 0)
(0.200089 3.73686e-05 0)
(0.200075 3.04767e-05 0)
(0.200062 2.48736e-05 0)
(0.200052 2.0281e-05 0)
(0.200043 1.64906e-05 0)
(0.200036 1.33445e-05 0)
(0.20003 1.07237e-05 0)
(0.200024 8.53735e-06 0)
(0.20002 6.71586e-06 0)
(0.200016 5.20334e-06 0)
(0.200013 3.95234e-06 0)
(0.200011 2.92561e-06 0)
(0.200009 2.08956e-06 0)
(0.200007 1.41543e-06 0)
(0.200006 8.76308e-07 0)
(0.200005 4.51227e-07 0)