/*--------------------------------*- C++ -*----------------------------------*\
| =========                 |                                                 |
| \\      /  F ield         | OpenFOAM: The Open Source CFD Toolbox           |
|  \\    /   O peration     | Version:  2.3.0                                 |
|   \\  /    A nd           | Web:      www.OpenFOAM.org                      |
|    \\/     M anipulation  |                                                 |
\*---------------------------------------------------------------------------*/
FoamFile
{
    version     2.0;
    format      ascii;
    class       volVectorField;
    location    "0.1";
    object      U_0;
}
// * * * * * * * * * * * * * * * * * * * * * * * * * * * * * * * * * * * * * //

dimensions      [0 1 -1 0 0 0 0];

internalField   nonuniform List<vector> 
2000
(
(0.175961 0.00437863 0)
(0.155275 0.0060473 0)
(0.136471 0.00619387 0)
(0.118177 0.00556167 0)
(0.10057 0.00472875 0)
(0.084514 0.0038137 0)
(0.0710623 0.00282887 0)
(0.0605878 0.00179428 0)
(0.0528755 0.000893204 0)
(0.0473804 0.000282756 0)
(0.0435304 -4.12837e-05 0)
(0.0408435 -0.000169496 0)
(0.0389307 -0.00018555 0)
(0.0375091 -0.000150087 0)
(0.0363822 -9.66933e-05 0)
(0.0354244 -4.4508e-05 0)
(0.034567 -5.22457e-06 0)
(0.0337814 1.73518e-05 0)
(0.0330609 2.66431e-05 0)
(0.032406 3.00175e-05 0)
(0.0318212 3.0449e-05 0)
(0.0313133 2.83366e-05 0)
(0.0308861 2.53011e-05 0)
(0.0305394 2.18647e-05 0)
(0.0302731 1.82168e-05 0)
(0.0300835 1.48352e-05 0)
(0.0299663 1.11623e-05 0)
(0.0299184 6.7073e-06 0)
(0.0299354 -5.09327e-06 0)
(0.0300057 -1.28673e-05 0)
(0.0301161 -1.74104e-05 0)
(0.0302502 -1.93002e-05 0)
(0.0303928 -1.93358e-05 0)
(0.0305329 -1.81012e-05 0)
(0.0306629 -1.61414e-05 0)
(0.0307791 -1.40503e-05 0)
(0.0308803 -1.21117e-05 0)
(0.0309671 -1.04097e-05 0)
(0.0310408 -8.92169e-06 0)
(0.0311029 -7.60656e-06 0)
(0.031155 -6.439e-06 0)
(0.0311986 -5.40976e-06 0)
(0.031235 -4.52083e-06 0)
(0.0312654 -3.77151e-06 0)
(0.0312909 -3.15162e-06 0)
(0.0313124 -2.64508e-06 0)
(0.0313306 -2.23341e-06 0)
(0.0313462 -1.89844e-06 0)
(0.0313596 -1.62367e-06 0)
(0.0313712 -1.39556e-06 0)
(0.0313813 -1.20364e-06 0)
(0.0313901 -1.04023e-06 0)
(0.0313978 -8.99625e-07 0)
(0.0314045 -7.77876e-07 0)
(0.0314103 -6.72188e-07 0)
(0.0314154 -5.8006e-07 0)
(0.0314198 -4.99808e-07 0)
(0.0314237 -4.30065e-07 0)
(0.031427 -3.69488e-07 0)
(0.0314299 -3.16916e-07 0)
(0.0314325 -2.7137e-07 0)
(0.0314346 -2.32029e-07 0)
(0.0314365 -1.98108e-07 0)
(0.0314381 -1.68881e-07 0)
(0.0314395 -1.43729e-07 0)
(0.0314407 -1.22132e-07 0)
(0.0314417 -1.03633e-07 0)
(0.0314426 -8.78056e-08 0)
(0.0314434 -7.42737e-08 0)
(0.031444 -6.27365e-08 0)
(0.0314446 -5.29192e-08 0)
(0.0314451 -4.4562e-08 0)
(0.0314455 -3.74666e-08 0)
(0.0314458 -3.14447e-08 0)
(0.0314461 -2.63538e-08 0)
(0.0314463 -2.20463e-08 0)
(0.0314465 -1.84162e-08 0)
(0.0314467 -1.53606e-08 0)
(0.0314469 -1.27711e-08 0)
(0.031447 -1.06238e-08 0)
(0.0314471 -8.77432e-09 0)
(0.0314472 -7.28556e-09 0)
(0.0314473 -5.98394e-09 0)
(0.0314473 -4.93316e-09 0)
(0.0314474 -4.06029e-09 0)
(0.0314474 -3.29099e-09 0)
(0.0314474 -2.73367e-09 0)
(0.0314475 -2.18833e-09 0)
(0.0314475 -1.79298e-09 0)
(0.0314475 -1.45888e-09 0)
(0.0314475 -1.15946e-09 0)
(0.0314475 -9.35403e-10 0)
(0.0314476 -7.55147e-10 0)
(0.0314476 -5.70433e-10 0)
(0.0314476 -4.56962e-10 0)
(0.0314476 -3.83909e-10 0)
(0.0314476 -3.77927e-10 0)
(0.0314476 -6.19073e-11 0)
(0.0314476 -1.46543e-09 0)
(0.0314476 -1.63699e-09 0)
(0.191287 0.00774771 0)
(0.189657 0.0109715 0)
(0.187322 0.0120897 0)
(0.183666 0.011904 0)
(0.178499 0.0112398 0)
(0.172057 0.0103279 0)
(0.164885 0.00917029 0)
(0.157378 0.00774898 0)
(0.149914 0.00619801 0)
(0.14275 0.0047476 0)
(0.136025 0.00355579 0)
(0.129834 0.00264908 0)
(0.124229 0.00198421 0)
(0.119225 0.00151861 0)
(0.114797 0.00120531 0)
(0.110899 0.000993321 0)
(0.107473 0.000841691 0)
(0.104456 0.000723647 0)
(0.101803 0.000621861 0)
(0.099485 0.000529332 0)
(0.0974728 0.000443683 0)
(0.095738 0.000363367 0)
(0.0942669 0.000288377 0)
(0.0930457 0.000217312 0)
(0.0920618 0.000150832 0)
(0.091297 9.18465e-05 0)
(0.0907368 4.16112e-05 0)
(0.0903614 -3.30414e-06 0)
(0.0901577 -4.98692e-05 0)
(0.0901039 -8.73221e-05 0)
(0.0901651 -0.000108775 0)
(0.0903076 -0.00011603 0)
(0.0904993 -0.000113128 0)
(0.0907138 -0.000103599 0)
(0.0909313 -9.05089e-05 0)
(0.0911385 -7.68693e-05 0)
(0.0913281 -6.42985e-05 0)
(0.0914967 -5.34637e-05 0)
(0.0916432 -4.44344e-05 0)
(0.0917686 -3.70019e-05 0)
(0.0918744 -3.08743e-05 0)
(0.091963 -2.5789e-05 0)
(0.0920366 -2.15656e-05 0)
(0.0920978 -1.80754e-05 0)
(0.0921487 -1.5207e-05 0)
(0.0921913 -1.2858e-05 0)
(0.0922272 -1.09341e-05 0)
(0.0922578 -9.35174e-06 0)
(0.092284 -8.03933e-06 0)
(0.0923067 -6.93952e-06 0)
(0.0923263 -6.00671e-06 0)
(0.0923435 -5.20748e-06 0)
(0.0923585 -4.5171e-06 0)
(0.0923716 -3.91706e-06 0)
(0.0923831 -3.39447e-06 0)
(0.0923931 -2.93828e-06 0)
(0.0924019 -2.54029e-06 0)
(0.0924095 -2.19336e-06 0)
(0.0924162 -1.89095e-06 0)
(0.092422 -1.62782e-06 0)
(0.0924271 -1.3993e-06 0)
(0.0924315 -1.20122e-06 0)
(0.0924353 -1.02987e-06 0)
(0.0924386 -8.81795e-07 0)
(0.0924414 -7.53897e-07 0)
(0.0924439 -6.43584e-07 0)
(0.092446 -5.48681e-07 0)
(0.0924478 -4.67171e-07 0)
(0.0924494 -3.97197e-07 0)
(0.0924508 -3.37245e-07 0)
(0.0924519 -2.85967e-07 0)
(0.0924529 -2.42136e-07 0)
(0.0924538 -2.04748e-07 0)
(0.0924545 -1.7287e-07 0)
(0.0924552 -1.45758e-07 0)
(0.0924557 -1.22705e-07 0)
(0.0924561 -1.03156e-07 0)
(0.0924565 -8.66058e-08 0)
(0.0924569 -7.25473e-08 0)
(0.0924571 -6.07473e-08 0)
(0.0924574 -5.06525e-08 0)
(0.0924576 -4.2298e-08 0)
(0.0924577 -3.5142e-08 0)
(0.0924579 -2.91765e-08 0)
(0.092458 -2.42423e-08 0)
(0.0924581 -1.99376e-08 0)
(0.0924582 -1.65752e-08 0)
(0.0924583 -1.35887e-08 0)
(0.0924583 -1.11396e-08 0)
(0.0924584 -9.23088e-09 0)
(0.0924584 -7.44525e-09 0)
(0.0924584 -6.0945e-09 0)
(0.0924585 -5.00965e-09 0)
(0.0924585 -3.93315e-09 0)
(0.0924585 -3.26054e-09 0)
(0.0924585 -2.64562e-09 0)
(0.0924585 -2.17447e-09 0)
(0.0924585 5.71701e-10 0)
(0.0924586 -3.23247e-09 0)
(0.0924586 -5.50214e-09 0)
(0.192445 0.00739334 0)
(0.192885 0.0100612 0)
(0.193967 0.011676 0)
(0.195071 0.0121655 0)
(0.195647 0.0120055 0)
(0.195478 0.0115096 0)
(0.194551 0.0107813 0)
(0.19287 0.00982554 0)
(0.190506 0.0086756 0)
(0.187644 0.00748627 0)
(0.184493 0.00642858 0)
(0.181202 0.00556904 0)
(0.177855 0.00487313 0)
(0.174525 0.00429959 0)
(0.171267 0.00382077 0)
(0.168129 0.0034115 0)
(0.165143 0.00304899 0)
(0.162309 0.00271875 0)
(0.159624 0.00241477 0)
(0.157102 0.0021288 0)
(0.154761 0.0018542 0)
(0.152605 0.0015923 0)
(0.150645 0.00134383 0)
(0.14889 0.00110472 0)
(0.147348 0.000877538 0)
(0.146016 0.000667864 0)
(0.144893 0.000473865 0)
(0.143975 0.000293509 0)
(0.143251 0.000134695 0)
(0.14271 2.63869e-06 0)
(0.142332 -9.44829e-05 0)
(0.142095 -0.000158628 0)
(0.141974 -0.000193962 0)
(0.141943 -0.00020693 0)
(0.14198 -0.000203241 0)
(0.142065 -0.000189165 0)
(0.142181 -0.000169294 0)
(0.142313 -0.00014711 0)
(0.14245 -0.000124988 0)
(0.142582 -0.000104421 0)
(0.142705 -8.62202e-05 0)
(0.142814 -7.06852e-05 0)
(0.142908 -5.7817e-05 0)
(0.142987 -4.74087e-05 0)
(0.143052 -3.91224e-05 0)
(0.143106 -3.2575e-05 0)
(0.14315 -2.7396e-05 0)
(0.143186 -2.3265e-05 0)
(0.143217 -1.99205e-05 0)
(0.143242 -1.71661e-05 0)
(0.143264 -1.48579e-05 0)
(0.143283 -1.28936e-05 0)
(0.143299 -1.12028e-05 0)
(0.143313 -9.73574e-06 0)
(0.143325 -8.45726e-06 0)
(0.143336 -7.33965e-06 0)
(0.143346 -6.36315e-06 0)
(0.143354 -5.51062e-06 0)
(0.143361 -4.766e-06 0)
(0.143367 -4.11629e-06 0)
(0.143373 -3.55054e-06 0)
(0.143378 -3.05865e-06 0)
(0.143382 -2.63163e-06 0)
(0.143386 -2.26146e-06 0)
(0.143389 -1.94088e-06 0)
(0.143392 -1.66353e-06 0)
(0.143394 -1.42398e-06 0)
(0.143396 -1.21736e-06 0)
(0.143398 -1.03934e-06 0)
(0.143399 -8.86269e-07 0)
(0.143401 -7.54801e-07 0)
(0.143402 -6.41947e-07 0)
(0.143403 -5.45274e-07 0)
(0.143404 -4.62545e-07 0)
(0.143404 -3.91861e-07 0)
(0.143405 -3.31503e-07 0)
(0.143406 -2.80087e-07 0)
(0.143406 -2.36303e-07 0)
(0.143407 -1.9907e-07 0)
(0.143407 -1.6748e-07 0)
(0.143407 -1.406e-07 0)
(0.143407 -1.17949e-07 0)
(0.143408 -9.86779e-08 0)
(0.143408 -8.2484e-08 0)
(0.143408 -6.88112e-08 0)
(0.143408 -5.72729e-08 0)
(0.143408 -4.76287e-08 0)
(0.143408 -3.95517e-08 0)
(0.143408 -3.26466e-08 0)
(0.143408 -2.71176e-08 0)
(0.143408 -2.22735e-08 0)
(0.143408 -1.82563e-08 0)
(0.143409 -1.51871e-08 0)
(0.143409 -1.2117e-08 0)
(0.143409 -1.01747e-08 0)
(0.143409 -8.14697e-09 0)
(0.143409 -6.7674e-09 0)
(0.143409 -1.42934e-09 0)
(0.143409 -5.45445e-09 0)
(0.143409 -8.57426e-09 0)
(0.193577 0.00694047 0)
(0.193918 0.00876693 0)
(0.194944 0.0102361 0)
(0.196432 0.0109746 0)
(0.197945 0.0110639 0)
(0.199222 0.0107526 0)
(0.200173 0.0102482 0)
(0.200719 0.00961724 0)
(0.200781 0.00884925 0)
(0.200382 0.0079912 0)
(0.199643 0.00715558 0)
(0.198687 0.00643868 0)
(0.197587 0.00586712 0)
(0.196377 0.00539878 0)
(0.195081 0.00498252 0)
(0.193737 0.00459497 0)
(0.192391 0.00423095 0)
(0.19106 0.00389055 0)
(0.189732 0.00357139 0)
(0.188407 0.00326006 0)
(0.187101 0.00294559 0)
(0.185827 0.00263101 0)
(0.184599 0.00231977 0)
(0.18343 0.00200975 0)
(0.182329 0.00170369 0)
(0.181307 0.00140918 0)
(0.180373 0.00112861 0)
(0.179529 0.000861479 0)
(0.178777 0.000612612 0)
(0.178119 0.000394328 0)
(0.177558 0.000214478 0)
(0.177094 7.38905e-05 0)
(0.176723 -2.9232e-05 0)
(0.176436 -9.89151e-05 0)
(0.176224 -0.000143256 0)
(0.176077 -0.00016906 0)
(0.175987 -0.000180646 0)
(0.175944 -0.000181282 0)
(0.175941 -0.000173544 0)
(0.175968 -0.000159801 0)
(0.176015 -0.000142315 0)
(0.176074 -0.000123161 0)
(0.176136 -0.000104156 0)
(0.176196 -8.66326e-05 0)
(0.17625 -7.13524e-05 0)
(0.176297 -5.85834e-05 0)
(0.176336 -4.82285e-05 0)
(0.176368 -3.99834e-05 0)
(0.176394 -3.34601e-05 0)
(0.176414 -2.82784e-05 0)
(0.176431 -2.41117e-05 0)
(0.176445 -2.07058e-05 0)
(0.176457 -1.78709e-05 0)
(0.176467 -1.54739e-05 0)
(0.176476 -1.34228e-05 0)
(0.176483 -1.16503e-05 0)
(0.176489 -1.01116e-05 0)
(0.176495 -8.77248e-06 0)
(0.1765 -7.60469e-06 0)
(0.176504 -6.58541e-06 0)
(0.176508 -5.69665e-06 0)
(0.176512 -4.92276e-06 0)
(0.176515 -4.24938e-06 0)
(0.176517 -3.66382e-06 0)
(0.176519 -3.15502e-06 0)
(0.176521 -2.71357e-06 0)
(0.176523 -2.33127e-06 0)
(0.176525 -2.00045e-06 0)
(0.176526 -1.71425e-06 0)
(0.176527 -1.46726e-06 0)
(0.176528 -1.25443e-06 0)
(0.176529 -1.0711e-06 0)
(0.17653 -9.1339e-07 0)
(0.176531 -7.77892e-07 0)
(0.176531 -6.61676e-07 0)
(0.176532 -5.62012e-07 0)
(0.176532 -4.76847e-07 0)
(0.176533 -4.03926e-07 0)
(0.176533 -3.41805e-07 0)
(0.176533 -2.88739e-07 0)
(0.176533 -2.435e-07 0)
(0.176534 -2.05225e-07 0)
(0.176534 -1.72367e-07 0)
(0.176534 -1.44949e-07 0)
(0.176534 -1.21287e-07 0)
(0.176534 -1.01614e-07 0)
(0.176534 -8.48641e-08 0)
(0.176534 -7.07472e-08 0)
(0.176534 -5.89159e-08 0)
(0.176534 -4.89444e-08 0)
(0.176535 -4.06438e-08 0)
(0.176535 -3.34109e-08 0)
(0.176535 -2.79737e-08 0)
(0.176535 -2.25288e-08 0)
(0.176535 -1.90656e-08 0)
(0.176535 -1.52974e-08 0)
(0.176535 -1.3234e-08 0)
(0.176535 -9.7278e-09 0)
(0.176535 -8.41712e-09 0)
(0.176535 -5.63027e-09 0)
(0.194556 0.00661031 0)
(0.194838 0.00793367 0)
(0.195613 0.00912142 0)
(0.196811 0.00989107 0)
(0.198167 0.0101343 0)
(0.199459 0.00994639 0)
(0.200584 0.00953773 0)
(0.201488 0.00905209 0)
(0.202119 0.00849457 0)
(0.202461 0.00784936 0)
(0.202553 0.00716834 0)
(0.202463 0.00654051 0)
(0.202261 0.00602954 0)
(0.201989 0.005626 0)
(0.201656 0.00527178 0)
(0.201276 0.00492196 0)
(0.200879 0.00457484 0)
(0.20048 0.00424956 0)
(0.200072 0.00394901 0)
(0.199639 0.00365456 0)
(0.199183 0.0033518 0)
(0.198713 0.00304291 0)
(0.198233 0.00273108 0)
(0.197745 0.00241559 0)
(0.197255 0.00210106 0)
(0.196769 0.00179491 0)
(0.196291 0.00149865 0)
(0.195824 0.00121205 0)
(0.19537 0.000941839 0)
(0.194934 0.000698413 0)
(0.194522 0.000488575 0)
(0.194143 0.000315079 0)
(0.193805 0.000177395 0)
(0.193512 7.38768e-05 0)
(0.193261 -2.10376e-06 0)
(0.19305 -5.60693e-05 0)
(0.192877 -9.39472e-05 0)
(0.192739 -0.000119531 0)
(0.192635 -0.000134697 0)
(0.192562 -0.000140833 0)
(0.192516 -0.000139213 0)
(0.192494 -0.000131324 0)
(0.192488 -0.000119086 0)
(0.192494 -0.000104519 0)
(0.192506 -8.93918e-05 0)
(0.19252 -7.50356e-05 0)
(0.192534 -6.2265e-05 0)
(0.192546 -5.14278e-05 0)
(0.192557 -4.25272e-05 0)
(0.192565 -3.53638e-05 0)
(0.192571 -2.96427e-05 0)
(0.192576 -2.50651e-05 0)
(0.192579 -2.13661e-05 0)
(0.192582 -1.83359e-05 0)
(0.192584 -1.58155e-05 0)
(0.192586 -1.3687e-05 0)
(0.192588 -1.18705e-05 0)
(0.192589 -1.03066e-05 0)
(0.19259 -8.95186e-06 0)
(0.192592 -7.77362e-06 0)
(0.192593 -6.74657e-06 0)
(0.192594 -5.85113e-06 0)
(0.192595 -5.07096e-06 0)
(0.192595 -4.39105e-06 0)
(0.192596 -3.79813e-06 0)
(0.192597 -3.28131e-06 0)
(0.192598 -2.83172e-06 0)
(0.192598 -2.44115e-06 0)
(0.192599 -2.10188e-06 0)
(0.192599 -1.80757e-06 0)
(0.1926 -1.55262e-06 0)
(0.1926 -1.33211e-06 0)
(0.192601 -1.14153e-06 0)
(0.192601 -9.76932e-07 0)
(0.192601 -8.35029e-07 0)
(0.192601 -7.12678e-07 0)
(0.192602 -6.07582e-07 0)
(0.192602 -5.17138e-07 0)
(0.192602 -4.39695e-07 0)
(0.192602 -3.73285e-07 0)
(0.192602 -3.16233e-07 0)
(0.192603 -2.6794e-07 0)
(0.192603 -2.26002e-07 0)
(0.192603 -1.91077e-07 0)
(0.192603 -1.60628e-07 0)
(0.192603 -1.35185e-07 0)
(0.192603 -1.13581e-07 0)
(0.192603 -9.49545e-08 0)
(0.192603 -7.96931e-08 0)
(0.192603 -6.63173e-08 0)
(0.192603 -5.5508e-08 0)
(0.192603 -4.58056e-08 0)
(0.192603 -3.85319e-08 0)
(0.192603 -3.12723e-08 0)
(0.192603 -2.6613e-08 0)
(0.192603 -2.14446e-08 0)
(0.192603 -1.91333e-08 0)
(0.192603 -1.90911e-08 0)
(0.192603 -1.05541e-08 0)
(0.192603 -2.75633e-10 0)
(0.195409 0.00633678 0)
(0.195661 0.00735456 0)
(0.19626 0.00827692 0)
(0.197184 0.00896422 0)
(0.198266 0.00930063 0)
(0.199363 0.0092484 0)
(0.200374 0.00894233 0)
(0.201214 0.008556 0)
(0.20186 0.00812263 0)
(0.202336 0.00760935 0)
(0.202639 0.00704471 0)
(0.20277 0.00649691 0)
(0.202791 0.00602211 0)
(0.20277 0.00564023 0)
(0.202727 0.00531396 0)
(0.202658 0.00498569 0)
(0.202579 0.00464707 0)
(0.202502 0.00432864 0)
(0.20242 0.00403692 0)
(0.202324 0.00374993 0)
(0.202216 0.00345623 0)
(0.202092 0.00315915 0)
(0.201948 0.00285842 0)
(0.201787 0.00255251 0)
(0.201612 0.00224835 0)
(0.201421 0.00195268 0)
(0.201213 0.00166514 0)
(0.200988 0.00138608 0)
(0.20075 0.00112256 0)
(0.200503 0.00088335 0)
(0.20025 0.000672864 0)
(0.2 0.000492551 0)
(0.19976 0.000343147 0)
(0.199537 0.000223455 0)
(0.199335 0.000130816 0)
(0.199153 6.06603e-05 0)
(0.198991 7.04475e-06 0)
(0.198848 -3.39659e-05 0)
(0.198725 -6.44064e-05 0)
(0.198621 -8.54598e-05 0)
(0.198536 -9.78609e-05 0)
(0.198469 -0.000102322 0)
(0.198419 -0.000100168 0)
(0.198382 -9.3172e-05 0)
(0.198355 -8.32338e-05 0)
(0.198337 -7.20737e-05 0)
(0.198324 -6.10199e-05 0)
(0.198314 -5.09232e-05 0)
(0.198307 -4.22054e-05 0)
(0.198301 -3.49653e-05 0)
(0.198296 -2.90964e-05 0)
(0.198291 -2.43943e-05 0)
(0.198287 -2.06284e-05 0)
(0.198284 -1.75945e-05 0)
(0.198281 -1.51185e-05 0)
(0.198278 -1.30646e-05 0)
(0.198275 -1.13391e-05 0)
(0.198273 -9.87011e-06 0)
(0.198272 -8.60572e-06 0)
(0.19827 -7.51021e-06 0)
(0.198269 -6.55548e-06 0)
(0.198268 -5.71999e-06 0)
(0.198268 -4.98904e-06 0)
(0.198267 -4.34937e-06 0)
(0.198267 -3.7886e-06 0)
(0.198267 -3.2967e-06 0)
(0.198266 -2.86548e-06 0)
(0.198266 -2.48768e-06 0)
(0.198266 -2.15728e-06 0)
(0.198266 -1.86869e-06 0)
(0.198266 -1.61645e-06 0)
(0.198266 -1.3965e-06 0)
(0.198266 -1.20504e-06 0)
(0.198266 -1.03847e-06 0)
(0.198266 -8.93711e-07 0)
(0.198266 -7.68046e-07 0)
(0.198266 -6.59117e-07 0)
(0.198266 -5.64754e-07 0)
(0.198266 -4.83143e-07 0)
(0.198267 -4.12896e-07 0)
(0.198267 -3.51875e-07 0)
(0.198267 -3.00105e-07 0)
(0.198267 -2.54642e-07 0)
(0.198267 -2.16561e-07 0)
(0.198267 -1.83237e-07 0)
(0.198267 -1.54957e-07 0)
(0.198267 -1.31145e-07 0)
(0.198267 -1.10066e-07 0)
(0.198267 -9.30826e-08 0)
(0.198267 -7.77461e-08 0)
(0.198267 -6.55353e-08 0)
(0.198267 -5.43551e-08 0)
(0.198267 -4.59647e-08 0)
(0.198267 -3.75479e-08 0)
(0.198267 -3.21582e-08 0)
(0.198267 -2.59853e-08 0)
(0.198267 -2.34802e-08 0)
(0.198267 -2.32848e-08 0)
(0.198267 -1.18067e-08 0)
(0.198267 4.17546e-10 0)
(0.196152 0.00607189 0)
(0.196377 0.00687413 0)
(0.196858 0.00759522 0)
(0.197579 0.00816012 0)
(0.19841 0.00850999 0)
(0.199284 0.00856885 0)
(0.200157 0.00837551 0)
(0.200911 0.00807982 0)
(0.201488 0.00774075 0)
(0.201948 0.00732324 0)
(0.202301 0.00685016 0)
(0.202495 0.00638704 0)
(0.202566 0.00596517 0)
(0.202607 0.00559814 0)
(0.202638 0.00527973 0)
(0.202645 0.00496966 0)
(0.202643 0.00464672 0)
(0.202645 0.00433495 0)
(0.202637 0.00404838 0)
(0.20262 0.00376756 0)
(0.202602 0.00347898 0)
(0.202574 0.00318944 0)
(0.202524 0.00290177 0)
(0.202458 0.00261037 0)
(0.202382 0.00231789 0)
(0.202291 0.00203335 0)
(0.202177 0.00175904 0)
(0.202042 0.00149365 0)
(0.201893 0.00124212 0)
(0.201732 0.00101214 0)
(0.201559 0.000807142 0)
(0.201378 0.000627457 0)
(0.201197 0.00047377 0)
(0.201024 0.000346765 0)
(0.20086 0.000245183 0)
(0.200708 0.000164407 0)
(0.200569 0.000100285 0)
(0.200443 4.94911e-05 0)
(0.20033 9.41378e-06 0)
(0.200228 -2.11393e-05 0)
(0.200138 -4.27371e-05 0)
(0.20006 -5.62581e-05 0)
(0.199994 -6.26852e-05 0)
(0.19994 -6.34031e-05 0)
(0.199895 -6.00276e-05 0)
(0.19986 -5.41796e-05 0)
(0.199831 -4.72367e-05 0)
(0.199808 -4.0209e-05 0)
(0.19979 -3.3732e-05 0)
(0.199776 -2.81161e-05 0)
(0.199763 -2.3441e-05 0)
(0.199753 -1.96479e-05 0)
(0.199745 -1.66013e-05 0)
(0.199738 -1.41596e-05 0)
(0.199732 -1.21884e-05 0)
(0.199726 -1.0574e-05 0)
(0.199722 -9.23079e-06 0)
(0.199718 -8.09597e-06 0)
(0.199715 -7.12235e-06 0)
(0.199712 -6.27939e-06 0)
(0.19971 -5.54213e-06 0)
(0.199708 -4.89068e-06 0)
(0.199707 -4.31467e-06 0)
(0.199706 -3.80531e-06 0)
(0.199705 -3.35336e-06 0)
(0.199704 -2.9519e-06 0)
(0.199703 -2.5957e-06 0)
(0.199703 -2.27913e-06 0)
(0.199702 -1.99811e-06 0)
(0.199702 -1.74961e-06 0)
(0.199702 -1.52964e-06 0)
(0.199702 -1.33523e-06 0)
(0.199701 -1.1637e-06 0)
(0.199701 -1.01264e-06 0)
(0.199701 -8.79588e-07 0)
(0.199701 -7.62946e-07 0)
(0.199701 -6.60566e-07 0)
(0.199701 -5.71133e-07 0)
(0.199701 -4.92577e-07 0)
(0.199701 -4.24488e-07 0)
(0.199701 -3.64505e-07 0)
(0.199701 -3.13309e-07 0)
(0.199701 -2.67896e-07 0)
(0.199701 -2.29383e-07 0)
(0.199701 -1.95636e-07 0)
(0.199701 -1.66386e-07 0)
(0.199701 -1.41926e-07 0)
(0.199701 -1.19765e-07 0)
(0.199701 -1.02014e-07 0)
(0.199701 -8.56933e-08 0)
(0.199701 -7.26928e-08 0)
(0.199701 -6.06522e-08 0)
(0.199701 -5.16056e-08 0)
(0.199701 -4.23628e-08 0)
(0.199701 -3.65488e-08 0)
(0.199701 -2.95454e-08 0)
(0.199701 -2.66223e-08 0)
(0.199701 -2.38998e-08 0)
(0.199701 -1.39766e-08 0)
(0.199702 -3.2892e-09 0)
(0.196806 0.00580746 0)
(0.197003 0.00644518 0)
(0.197381 0.00701788 0)
(0.197953 0.00746763 0)
(0.198598 0.00778067 0)
(0.199266 0.00790952 0)
(0.199986 0.00782266 0)
(0.200658 0.00760643 0)
(0.201167 0.00734525 0)
(0.201576 0.00701692 0)
(0.201932 0.00662122 0)
(0.202156 0.00622915 0)
(0.202249 0.00587056 0)
(0.202316 0.00553063 0)
(0.202382 0.00521507 0)
(0.20241 0.00492123 0)
(0.202421 0.00462291 0)
(0.202442 0.00432238 0)
(0.202456 0.0040409 0)
(0.202453 0.00376891 0)
(0.20245 0.00348701 0)
(0.202443 0.00320274 0)
(0.202413 0.00292687 0)
(0.202362 0.00265104 0)
(0.202308 0.00237008 0)
(0.202247 0.00209462 0)
(0.202164 0.00183244 0)
(0.202057 0.00158158 0)
(0.201938 0.00134232 0)
(0.201811 0.0011205 0)
(0.201672 0.000921023 0)
(0.201525 0.00074472 0)
(0.201376 0.000591293 0)
(0.201231 0.000460925 0)
(0.201091 0.000353038 0)
(0.200959 0.000264829 0)
(0.200837 0.000192832 0)
(0.200724 0.000133838 0)
(0.200621 8.55922e-05 0)
(0.200527 4.70653e-05 0)
(0.200442 1.75876e-05 0)
(0.200367 -3.73662e-06 0)
(0.2003 -1.78e-05 0)
(0.200243 -2.57101e-05 0)
(0.200194 -2.8899e-05 0)
(0.200154 -2.88139e-05 0)
(0.20012 -2.67429e-05 0)
(0.200093 -2.37105e-05 0)
(0.200071 -2.04301e-05 0)
(0.200052 -1.73293e-05 0)
(0.200037 -1.46225e-05 0)
(0.200025 -1.23682e-05 0)
(0.200014 -1.0553e-05 0)
(0.200006 -9.10342e-06 0)
(0.199999 -7.94079e-06 0)
(0.199992 -7.00541e-06 0)
(0.199987 -6.23594e-06 0)
(0.199983 -5.58465e-06 0)
(0.199979 -5.02126e-06 0)
(0.199976 -4.52822e-06 0)
(0.199973 -4.09047e-06 0)
(0.199971 -3.69338e-06 0)
(0.199969 -3.33073e-06 0)
(0.199968 -3.00089e-06 0)
(0.199967 -2.69993e-06 0)
(0.199966 -2.42391e-06 0)
(0.199965 -2.17119e-06 0)
(0.199964 -1.94121e-06 0)
(0.199964 -1.73142e-06 0)
(0.199963 -1.54068e-06 0)
(0.199963 -1.36768e-06 0)
(0.199963 -1.2116e-06 0)
(0.199963 -1.07079e-06 0)
(0.199963 -9.44475e-07 0)
(0.199962 -8.30825e-07 0)
(0.199962 -7.29299e-07 0)
(0.199962 -6.38365e-07 0)
(0.199962 -5.58098e-07 0)
(0.199962 -4.86237e-07 0)
(0.199962 -4.23267e-07 0)
(0.199962 -3.66813e-07 0)
(0.199962 -3.18033e-07 0)
(0.199962 -2.7436e-07 0)
(0.199962 -2.36659e-07 0)
(0.199962 -2.03623e-07 0)
(0.199962 -1.74332e-07 0)
(0.199962 -1.49848e-07 0)
(0.199962 -1.27312e-07 0)
(0.199962 -1.09125e-07 0)
(0.199962 -9.23039e-08 0)
(0.199962 -7.87565e-08 0)
(0.199962 -6.60948e-08 0)
(0.199962 -5.66137e-08 0)
(0.199962 -4.66392e-08 0)
(0.199962 -4.05208e-08 0)
(0.199962 -3.27339e-08 0)
(0.199962 -2.93073e-08 0)
(0.199962 -2.42388e-08 0)
(0.199962 -1.70163e-08 0)
(0.199962 -7.95276e-09 0)
(0.197348 0.00555894 0)
(0.197519 0.00606892 0)
(0.197815 0.00653736 0)
(0.198275 0.00690455 0)
(0.198797 0.00716601 0)
(0.199308 0.00732222 0)
(0.199873 0.00731842 0)
(0.200458 0.00716829 0)
(0.200919 0.00696704 0)
(0.201268 0.00672265 0)
(0.201593 0.00640088 0)
(0.201837 0.00606029 0)
(0.20195 0.00575359 0)
(0.202024 0.0054518 0)
(0.202109 0.00514736 0)
(0.202156 0.00486667 0)
(0.202169 0.0045941 0)
(0.202194 0.00430825 0)
(0.202221 0.00402893 0)
(0.202222 0.00376528 0)
(0.202217 0.00349629 0)
(0.202217 0.00321883 0)
(0.202197 0.00294915 0)
(0.202149 0.00268611 0)
(0.202099 0.002419 0)
(0.202049 0.00215362 0)
(0.20198 0.00190213 0)
(0.201887 0.00166491 0)
(0.201783 0.001438 0)
(0.201675 0.00122449 0)
(0.20156 0.00103008 0)
(0.201434 0.000856203 0)
(0.201304 0.00070196 0)
(0.201177 0.000567687 0)
(0.201054 0.00045363 0)
(0.200936 0.000358107 0)
(0.200826 0.000278257 0)
(0.200725 0.000211525 0)
(0.200632 0.000156276 0)
(0.200547 0.000111183 0)
(0.200469 7.51464e-05 0)
(0.200399 4.74148e-05 0)
(0.200337 2.70516e-05 0)
(0.200282 1.29815e-05 0)
(0.200235 3.92478e-06 0)
(0.200195 -1.38402e-06 0)
(0.200161 -4.09494e-06 0)
(0.200133 -5.16072e-06 0)
(0.200109 -5.29246e-06 0)
(0.20009 -4.97409e-06 0)
(0.200074 -4.50621e-06 0)
(0.200061 -4.04562e-06 0)
(0.20005 -3.66886e-06 0)
(0.200041 -3.38279e-06 0)
(0.200034 -3.1724e-06 0)
(0.200027 -3.02255e-06 0)
(0.200022 -2.90397e-06 0)
(0.200017 -2.79925e-06 0)
(0.200014 -2.7017e-06 0)
(0.20001 -2.59824e-06 0)
(0.200008 -2.48563e-06 0)
(0.200005 -2.36807e-06 0)
(0.200004 -2.24105e-06 0)
(0.200002 -2.1072e-06 0)
(0.200001 -1.97048e-06 0)
(0.2 -1.83312e-06 0)
(0.199999 -1.69483e-06 0)
(0.199998 -1.5593e-06 0)
(0.199998 -1.42785e-06 0)
(0.199997 -1.30122e-06 0)
(0.199997 -1.18042e-06 0)
(0.199997 -1.06698e-06 0)
(0.199996 -9.60055e-07 0)
(0.199996 -8.60944e-07 0)
(0.199996 -7.69338e-07 0)
(0.199996 -6.85466e-07 0)
(0.199996 -6.07832e-07 0)
(0.199996 -5.37965e-07 0)
(0.199996 -4.73937e-07 0)
(0.199996 -4.17097e-07 0)
(0.199996 -3.65156e-07 0)
(0.199996 -3.19483e-07 0)
(0.199996 -2.7816e-07 0)
(0.199996 -2.4175e-07 0)
(0.199996 -2.09765e-07 0)
(0.199996 -1.8084e-07 0)
(0.199996 -1.56523e-07 0)
(0.199996 -1.33928e-07 0)
(0.199996 -1.15422e-07 0)
(0.199996 -9.82776e-08 0)
(0.199996 -8.43184e-08 0)
(0.199996 -7.10956e-08 0)
(0.199996 -6.12957e-08 0)
(0.199996 -5.06223e-08 0)
(0.199996 -4.42308e-08 0)
(0.199996 -3.57183e-08 0)
(0.199996 -3.18586e-08 0)
(0.199996 -2.52376e-08 0)
(0.199996 -2.00115e-08 0)
(0.199996 -1.18152e-08 0)
(0.197806 0.00533723 0)
(0.197963 0.00575173 0)
(0.198192 0.00614014 0)
(0.198549 0.00644959 0)
(0.19898 0.00666765 0)
(0.19939 0.00681745 0)
(0.199815 0.00686326 0)
(0.200298 0.00677466 0)
(0.200717 0.00661922 0)
(0.201016 0.00643518 0)
(0.201292 0.0061838 0)
(0.201539 0.0058904 0)
(0.201672 0.00562019 0)
(0.201744 0.00535899 0)
(0.201836 0.00507847 0)
(0.201903 0.00480636 0)
(0.201916 0.00455146 0)
(0.201934 0.00428654 0)
(0.201972 0.00401604 0)
(0.201984 0.00375927 0)
(0.201976 0.00350271 0)
(0.201975 0.00323369 0)
(0.201962 0.00296899 0)
(0.20192 0.00271844 0)
(0.201871 0.00246907 0)
(0.20183 0.00221627 0)
(0.201776 0.00197218 0)
(0.201696 0.00174309 0)
(0.201602 0.00152484 0)
(0.201508 0.00131667 0)
(0.201408 0.00112407 0)
(0.2013 0.00095089 0)
(0.201187 0.000796973 0)
(0.201077 0.000661509 0)
(0.200971 0.000544233 0)
(0.200868 0.000444068 0)
(0.200771 0.000358838 0)
(0.200681 0.000286394 0)
(0.200597 0.000225148 0)
(0.20052 0.000173901 0)
(0.20045 0.000131776 0)
(0.200386 9.80044e-05 0)
(0.200328 7.16933e-05 0)
(0.200278 5.17766e-05 0)
(0.200234 3.71551e-05 0)
(0.200196 2.67021e-05 0)
(0.200163 1.93776e-05 0)
(0.200136 1.42982e-05 0)
(0.200113 1.0761e-05 0)
(0.200094 8.24216e-06 0)
(0.200078 6.38038e-06 0)
(0.200065 4.93567e-06 0)
(0.200054 3.77126e-06 0)
(0.200045 2.79905e-06 0)
(0.200037 1.97135e-06 0)
(0.200031 1.26961e-06 0)
(0.200025 6.80738e-07 0)
(0.200021 1.89752e-07 0)
(0.200017 -2.13341e-07 0)
(0.200014 -5.30672e-07 0)
(0.200011 -7.72559e-07 0)
(0.200009 -9.54801e-07 0)
(0.200007 -1.0828e-06 0)
(0.200006 -1.15982e-06 0)
(0.200004 -1.19706e-06 0)
(0.200003 -1.20189e-06 0)
(0.200003 -1.18582e-06 0)
(0.200002 -1.15068e-06 0)
(0.200001 -1.10137e-06 0)
(0.200001 -1.04216e-06 0)
(0.200001 -9.76274e-07 0)
(0.2 -9.07991e-07 0)
(0.2 -8.37958e-07 0)
(0.2 -7.68174e-07 0)
(0.2 -6.99534e-07 0)
(0.2 -6.34544e-07 0)
(0.2 -5.71826e-07 0)
(0.2 -5.13424e-07 0)
(0.2 -4.57901e-07 0)
(0.2 -4.07686e-07 0)
(0.2 -3.60822e-07 0)
(0.2 -3.187e-07 0)
(0.2 -2.80079e-07 0)
(0.2 -2.45353e-07 0)
(0.2 -2.14597e-07 0)
(0.2 -1.86341e-07 0)
(0.2 -1.62274e-07 0)
(0.2 -1.39819e-07 0)
(0.2 -1.21124e-07 0)
(0.2 -1.03692e-07 0)
(0.2 -8.94804e-08 0)
(0.2 -7.57134e-08 0)
(0.2 -6.56731e-08 0)
(0.2 -5.43747e-08 0)
(0.2 -4.77208e-08 0)
(0.2 -3.8563e-08 0)
(0.2 -3.43859e-08 0)
(0.2 -2.67472e-08 0)
(0.2 -2.27347e-08 0)
(0.2 -1.47811e-08 0)
(0.198215 0.00513618 0)
(0.198356 0.00547239 0)
(0.198533 0.00579186 0)
(0.198804 0.0060596 0)
(0.199152 0.00624809 0)
(0.199482 0.00637454 0)
(0.199799 0.00644269 0)
(0.200177 0.00641072 0)
(0.200543 0.00629224 0)
(0.200799 0.00614524 0)
(0.201019 0.00596126 0)
(0.20125 0.00572332 0)
(0.201402 0.0054784 0)
(0.201472 0.00524722 0)
(0.201552 0.00499956 0)
(0.20163 0.00474158 0)
(0.201655 0.0044994 0)
(0.20167 0.00425785 0)
(0.20171 0.00400167 0)
(0.201729 0.0037477 0)
(0.201716 0.00350109 0)
(0.201712 0.00324865 0)
(0.201712 0.00299492 0)
(0.201684 0.00275225 0)
(0.201636 0.0025137 0)
(0.201595 0.00227006 0)
(0.201551 0.00203039 0)
(0.201483 0.00180634 0)
(0.201401 0.00159675 0)
(0.20132 0.00139745 0)
(0.201239 0.0012112 0)
(0.201151 0.00104238 0)
(0.201057 0.00089117 0)
(0.200963 0.000755799 0)
(0.200872 0.000635702 0)
(0.200784 0.000530665 0)
(0.200699 0.000439544 0)
(0.20062 0.000360739 0)
(0.200546 0.000293013 0)
(0.200478 0.000235506 0)
(0.200416 0.000187427 0)
(0.200359 0.000147909 0)
(0.200308 0.000115999 0)
(0.200262 9.06658e-05 0)
(0.200222 7.08676e-05 0)
(0.200187 5.55744e-05 0)
(0.200157 4.38392e-05 0)
(0.200132 3.48402e-05 0)
(0.20011 2.78989e-05 0)
(0.200092 2.24824e-05 0)
(0.200077 1.81905e-05 0)
(0.200064 1.47327e-05 0)
(0.200053 1.19047e-05 0)
(0.200044 9.56164e-06 0)
(0.200037 7.60527e-06 0)
(0.20003 5.96846e-06 0)
(0.200025 4.59575e-06 0)
(0.200021 3.45001e-06 0)
(0.200017 2.50351e-06 0)
(0.200014 1.72593e-06 0)
(0.200011 1.09294e-06 0)
(0.200009 5.86399e-07 0)
(0.200007 1.86172e-07 0)
(0.200006 -1.21408e-07 0)
(0.200005 -3.51568e-07 0)
(0.200004 -5.19739e-07 0)
(0.200003 -6.35184e-07 0)
(0.200002 -7.07638e-07 0)
(0.200002 -7.45241e-07 0)
(0.200001 -7.59022e-07 0)
(0.200001 -7.53679e-07 0)
(0.200001 -7.33753e-07 0)
(0.2 -7.02816e-07 0)
(0.2 -6.65534e-07 0)
(0.2 -6.22299e-07 0)
(0.2 -5.77044e-07 0)
(0.2 -5.30095e-07 0)
(0.2 -4.84364e-07 0)
(0.2 -4.38377e-07 0)
(0.2 -3.95375e-07 0)
(0.2 -3.54051e-07 0)
(0.2 -3.1596e-07 0)
(0.2 -2.80378e-07 0)
(0.2 -2.4767e-07 0)
(0.2 -2.18352e-07 0)
(0.2 -1.91085e-07 0)
(0.2 -1.67408e-07 0)
(0.2 -1.45253e-07 0)
(0.2 -1.26519e-07 0)
(0.2 -1.08835e-07 0)
(0.2 -9.45013e-08 0)
(0.2 -8.01742e-08 0)
(0.2 -6.99377e-08 0)
(0.2 -5.80714e-08 0)
(0.2 -5.11297e-08 0)
(0.2 -4.13799e-08 0)
(0.2 -3.69513e-08 0)
(0.2 -2.85082e-08 0)
(0.2 -2.52445e-08 0)
(0.2 -1.71715e-08 0)
(0.198577 0.00495494 0)
(0.198704 0.00522995 0)
(0.198846 0.00549427 0)
(0.199044 0.00572445 0)
(0.199305 0.00589085 0)
(0.199575 0.00599953 0)
(0.19982 0.00607055 0)
(0.20009 0.00607415 0)
(0.200382 0.00599361 0)
(0.200614 0.00587772 0)
(0.200794 0.0057412 0)
(0.200978 0.00555249 0)
(0.201125 0.00533537 0)
(0.201202 0.00513056 0)
(0.201272 0.00491686 0)
(0.201351 0.00467743 0)
(0.201386 0.00444214 0)
(0.201394 0.00421775 0)
(0.201424 0.00398091 0)
(0.201451 0.00373562 0)
(0.20145 0.00349839 0)
(0.201445 0.00326084 0)
(0.201446 0.00301477 0)
(0.201423 0.00277231 0)
(0.201377 0.00254015 0)
(0.201339 0.00231087 0)
(0.201308 0.00208446 0)
(0.201261 0.00187025 0)
(0.201196 0.00167057 0)
(0.201128 0.00148057 0)
(0.201061 0.00129961 0)
(0.200989 0.00113183 0)
(0.200911 0.000979535 0)
(0.200832 0.000842039 0)
(0.200756 0.000718672 0)
(0.200683 0.000609372 0)
(0.200612 0.00051351 0)
(0.200546 0.000429811 0)
(0.200483 0.000357112 0)
(0.200425 0.000294565 0)
(0.200372 0.000241384 0)
(0.200323 0.000196717 0)
(0.200279 0.000159653 0)
(0.200239 0.00012925 0)
(0.200204 0.000104558 0)
(0.200173 8.46569e-05 0)
(0.200146 6.86862e-05 0)
(0.200123 5.58845e-05 0)
(0.200103 4.56025e-05 0)
(0.200086 3.7305e-05 0)
(0.200072 3.05643e-05 0)
(0.20006 2.50461e-05 0)
(0.20005 2.0495e-05 0)
(0.200042 1.67181e-05 0)
(0.200035 1.35689e-05 0)
(0.200029 1.09364e-05 0)
(0.200024 8.73484e-06 0)
(0.20002 6.89733e-06 0)
(0.200016 5.36937e-06 0)
(0.200013 4.10417e-06 0)
(0.200011 3.06435e-06 0)
(0.200009 2.21757e-06 0)
(0.200007 1.53358e-06 0)
(0.200006 9.85376e-07 0)
(0.200004 5.52266e-07 0)