/*--------------------------------*- C++ -*----------------------------------*\
| =========                 |                                                 |
| \\      /  F ield         | OpenFOAM: The Open Source CFD Toolbox           |
|  \\    /   O peration     | Version:  2.3.0                                 |
|   \\  /    A nd           | Web:      www.OpenFOAM.org                      |
|    \\/     M anipulation  |                                                 |
\*---------------------------------------------------------------------------*/
FoamFile
{
    version     2.0;
    format      ascii;
    class       volScalarField;
    location    "0.15";
    object      p;
}
// * * * * * * * * * * * * * * * * * * * * * * * * * * * * * * * * * * * * * //

dimensions      [0 2 -2 0 0 0 0];

internalField   nonuniform List<scalar> 
2000
(
0.00206279
0.00148659
0.00101958
0.000685451
0.000411554
0.000167878
-4.5289e-05
-0.000223261
-0.000364581
-0.00047053
-0.000544161
-0.000589874
-0.000612929
-0.000618809
-0.000612624
-0.000598712
-0.000580466
-0.000560334
-0.000539948
-0.00052029
-0.000501872
-0.00048489
-0.000469346
-0.000455135
-0.000442099
-0.000430066
-0.000418865
-0.000408334
-0.000398321
-0.000388679
-0.000379259
-0.000369899
-0.000360413
-0.000350574
-0.00034011
-0.000328691
-0.000315913
-0.000301316
-0.000284539
-0.000265175
-0.000243624
-0.000220338
-0.000196225
-0.000172104
-0.000148772
-0.000126869
-0.000106811
-8.88046e-05
-7.28935e-05
-5.90123e-05
-4.70301e-05
-3.67826e-05
-2.80937e-05
-2.0789e-05
-1.47033e-05
-9.6847e-06
-5.59502e-06
-2.31023e-06
2.80733e-07
2.27716e-06
3.76779e-06
4.8319e-06
5.54025e-06
5.95593e-06
6.13491e-06
6.12652e-06
5.9739e-06
5.71437e-06
5.37971e-06
4.99654e-06
4.5867e-06
4.16767e-06
3.75259e-06
3.35349e-06
2.97547e-06
2.623e-06
2.29948e-06
2.00623e-06
1.74272e-06
1.50772e-06
1.2996e-06
1.11655e-06
9.56273e-07
8.16629e-07
6.95385e-07
5.90418e-07
4.99761e-07
4.21611e-07
3.54336e-07
2.96483e-07
2.46752e-07
2.03987e-07
1.67132e-07
1.35275e-07
1.07576e-07
8.33184e-08
6.18259e-08
4.24957e-08
2.47621e-08
7.99806e-09
0.00177263
0.00137097
0.000993639
0.000693592
0.000435167
0.000199568
-9.93531e-06
-0.000186962
-0.000328957
-0.000436589
-0.000512552
-0.000560978
-0.000586912
-0.00059567
-0.000592243
-0.000580888
-0.000564953
-0.000546867
-0.000528262
-0.000510137
-0.000493028
-0.000477161
-0.000462566
-0.000449165
-0.000436828
-0.000425403
-0.000414735
-0.000404678
-0.00039509
-0.000385836
-0.000376773
-0.000367749
-0.000358585
-0.000349062
-0.000338911
-0.000327797
-0.000315326
-0.000301041
-0.000284438
-0.000265531
-0.000244235
-0.000221036
-0.000196878
-0.00017268
-0.000149276
-0.00012731
-0.000107197
-8.91407e-05
-7.3185e-05
-5.92643e-05
-4.72472e-05
-3.69688e-05
-2.82526e-05
-2.09239e-05
-1.48171e-05
-9.77999e-06
-5.67423e-06
-2.37552e-06
2.27382e-07
2.23396e-06
3.73312e-06
4.80431e-06
5.51847e-06
5.93885e-06
6.12157e-06
6.11615e-06
5.96587e-06
5.70815e-06
5.37489e-06
4.99281e-06
4.58385e-06
4.16568e-06
3.75228e-06
3.35272e-06
2.97446e-06
2.62165e-06
2.2982e-06
2.00509e-06
1.74172e-06
1.50686e-06
1.29884e-06
1.11591e-06
9.55742e-07
8.16196e-07
6.95036e-07
5.9014e-07
4.99544e-07
4.21444e-07
3.5421e-07
2.9639e-07
2.46687e-07
2.03945e-07
1.67108e-07
1.35266e-07
1.07578e-07
8.33286e-08
6.18432e-08
4.25176e-08
2.47894e-08
8.02067e-09
0.00154952
0.00126312
0.000951921
0.00068004
0.000439932
0.000220401
2.34946e-05
-0.000145314
-0.000283257
-0.000390406
-0.000468677
-0.00052131
-0.000552464
-0.000566702
-0.000568457
-0.000561645
-0.00054946
-0.000534326
-0.000517958
-0.000501484
-0.000485575
-0.000470582
-0.000456637
-0.00044374
-0.000431813
-0.000420742
-0.000410397
-0.000400645
-0.000391353
-0.00038239
-0.000373618
-0.000364884
-0.000356012
-0.000346784
-0.00033693
-0.000326112
-0.000313923
-0.000299892
-0.000283489
-0.000264277
-0.000242789
-0.000220012
-0.000196385
-0.000172526
-0.000149317
-0.000127473
-0.000107436
-8.94231e-05
-7.34843e-05
-5.95617e-05
-4.75305e-05
-3.72307e-05
-2.84893e-05
-2.1134e-05
-1.50009e-05
-9.93871e-06
-5.80982e-06
-2.49025e-06
1.31126e-07
2.15376e-06
3.66665e-06
4.7494e-06
5.47315e-06
5.90137e-06
6.09044e-06
6.09009e-06
5.94384e-06
5.68932e-06
5.35861e-06
4.97859e-06
4.57132e-06
4.15451e-06
3.74203e-06
3.34363e-06
2.96667e-06
2.61567e-06
2.29299e-06
2.00042e-06
1.7375e-06
1.50307e-06
1.29541e-06
1.11289e-06
9.53083e-07
8.13912e-07
6.93091e-07
5.88492e-07
4.98155e-07
4.20281e-07
3.5324e-07
2.95585e-07
2.46026e-07
2.03412e-07
1.66683e-07
1.34935e-07
1.07329e-07
8.31498e-08
6.17293e-08
4.24652e-08
2.48053e-08
8.17423e-09
0.00134909
0.00113817
0.000886025
0.000649034
0.000434337
0.000236937
5.80072e-05
-9.80118e-05
-0.000228193
-0.000331961
-0.000410435
-0.000465951
-0.00050173
-0.000521479
-0.000528947
-0.000527575
-0.000520279
-0.000509359
-0.000496518
-0.000482937
-0.000469374
-0.000456275
-0.000443861
-0.000432212
-0.000421315
-0.000411106
-0.000401496
-0.000392381
-0.000383653
-0.000375194
-0.000366879
-0.000358563
-0.000350075
-0.0003412
-0.000331666
-0.000321137
-0.000309204
-0.000295407
-0.000279305
-0.000260662
-0.000239557
-0.000216805
-0.000193619
-0.000170556
-0.00014805
-0.000126765
-0.000107163
-8.94721e-05
-7.37596e-05
-5.99857e-05
-4.80433e-05
-3.77879e-05
-2.90589e-05
-2.16937e-05
-1.55356e-05
-1.04388e-05
-6.26966e-06
-2.90701e-06
-2.41838e-07
1.82379e-06
3.37777e-06
4.49899e-06
5.2581e-06
5.71826e-06
5.93573e-06
5.96026e-06
5.83552e-06
5.59936e-06
5.28414e-06
4.91707e-06
4.52054e-06
4.11258e-06
3.70725e-06
3.31479e-06
2.9426e-06
2.59543e-06
2.27607e-06
1.98622e-06
1.72563e-06
1.49324e-06
1.28756e-06
1.10631e-06
9.47656e-07
8.09397e-07
6.89326e-07
5.85349e-07
4.95537e-07
4.18109e-07
3.51443e-07
2.94103e-07
2.44813e-07
2.02433e-07
1.65906e-07
1.34333e-07
1.06882e-07
8.28408e-08
6.15484e-08
4.24124e-08
2.49105e-08
8.65797e-09
0.00116487
0.00100787
0.000809827
0.000610925
0.000423866
0.00024931
8.91065e-05
-5.28924e-05
-0.000173721
-0.000272331
-0.000349231
-0.00040604
-0.000445185
-0.00046958
-0.000482283
-0.000486198
-0.000483869
-0.000477382
-0.000468349
-0.000457946
-0.000446985
-0.000435989
-0.000425268
-0.000414985
-0.000405199
-0.000395909
-0.000387072
-0.000378619
-0.000370468
-0.000362519
-0.000354659
-0.00034675
-0.000338626
-0.000330077
-0.000320842
-0.000310598
-0.000298969
-0.00028555
-0.000269991
-0.000252131
-0.000232125
-0.000210514
-0.000188214
-0.00016615
-0.000144808
-0.000124562
-0.000105809
-8.87874e-05
-7.35819e-05
-6.01775e-05
-4.84936e-05
-3.84101e-05
-2.97871e-05
-2.24785e-05
-1.6341e-05
-1.12385e-05
-7.04478e-06
-3.6445e-06
-9.32869e-07
1.18479e-06
2.79387e-06
3.97127e-06
4.78608e-06
5.30026e-06
5.5691e-06
5.64168e-06
5.56117e-06
5.36513e-06
5.08579e-06
4.75036e-06
4.3814e-06
3.99713e-06
3.61189e-06
3.23635e-06
2.87826e-06
2.5428e-06
2.2332e-06
1.95122e-06
1.69703e-06
1.46984e-06
1.26834e-06
1.09057e-06
9.34711e-07
7.98761e-07
6.80597e-07
5.78192e-07
4.8968e-07
4.13335e-07
3.47598e-07
2.91056e-07
2.42411e-07
2.00542e-07
1.64435e-07
1.33213e-07
1.06062e-07
8.22791e-08
6.12219e-08
4.2316e-08
2.50921e-08
9.41903e-09
0.00100227
0.000883336
0.000729503
0.000566094
0.000406108
0.000253973
0.000112615
-1.45399e-05
-0.000124725
-0.000216635
-0.000290305
-0.000346763
-0.000387754
-0.000415487
-0.000432374
-0.000440784
-0.000442871
-0.000440466
-0.000435046
-0.000427741
-0.000419374
-0.000410518
-0.000401548
-0.000392692
-0.000384074
-0.000375744
-0.000367704
-0.000359919
-0.000352332
-0.000344864
-0.000337413
-0.000329856
-0.000322036
-0.000313759
-0.000304786
-0.000294831
-0.000283575
-0.000270695
-0.000255932
-0.000239192
-0.000220641
-0.000200729
-0.000180067
-0.000159467
-0.000139549
-0.000120669
-0.000103094
-8.70363e-05
-7.25953e-05
-5.97803e-05
-4.85384e-05
-3.87771e-05
-3.0381e-05
-2.32251e-05
-1.71829e-05
-1.21316e-05
-7.9558e-06
-4.54813e-06
-1.81021e-06
3.47628e-07
2.00677e-06
3.24087e-06
4.11638e-06
4.69308e-06
5.02447e-06
5.15813e-06
5.13607e-06
4.99495e-06
4.76635e-06
4.4771e-06
4.14952e-06
3.80184e-06
3.44847e-06
3.10043e-06
2.7658e-06
2.4502e-06
2.15725e-06
1.88902e-06
1.64615e-06
1.42827e-06
1.23434e-06
1.06283e-06
9.12074e-07
7.80253e-07
6.65455e-07
5.65806e-07
4.79554e-07
4.0507e-07
3.40865e-07
2.85585e-07
2.37989e-07
1.96996e-07
1.61628e-07
1.31031e-07
1.0442e-07
8.11073e-08
6.04724e-08
4.19675e-08
2.51716e-08
1.00079e-08
0.000858704
0.000766342
0.000646732
0.000514661
0.000380705
0.00025066
0.000128156
1.63183e-05
-8.23526e-05
-0.000166423
-0.000235549
-0.000290252
-0.000331693
-0.000361473
-0.000381423
-0.000393421
-0.000399234
-0.000400425
-0.000398301
-0.000393908
-0.000388045
-0.000381299
-0.000374083
-0.000366673
-0.000359241
-0.000351884
-0.000344642
-0.000337517
-0.000330475
-0.000323461
-0.000316391
-0.000309156
-0.00030162
-0.000293611
-0.000284924
-0.000275321
-0.000264548
-0.000252362
-0.000238584
-0.000223171
-0.00020627
-0.000188239
-0.000169576
-0.000150834
-0.000132611
-0.000115285
-9.90844e-05
-8.41852e-05
-7.06921e-05
-5.86344e-05
-4.79847e-05
-3.8677e-05
-3.06209e-05
-2.37135e-05
-1.78467e-05
-1.29129e-05
-8.80897e-06
-5.43729e-06
-2.70734e-06
-5.35737e-07
1.15378e-06
2.43065e-06
3.3578e-06
3.99203e-06
4.38434e-06
4.5802e-06
4.61984e-06
4.5385e-06
4.36666e-06
4.13029e-06
3.85118e-06
3.54721e-06
3.23272e-06
2.9188e-06
2.61378e-06
2.32361e-06
2.05229e-06
1.80224e-06
1.57455e-06
1.36928e-06
1.18578e-06
1.0229e-06
8.79248e-07
7.53248e-07
6.43231e-07
5.47522e-07
4.64522e-07
3.92728e-07
3.3075e-07
2.7732e-07
2.31272e-07
1.91578e-07
1.57306e-07
1.27636e-07
1.01819e-07
7.91924e-08
5.9163e-08
4.12072e-08
2.49154e-08
1.01158e-08
0.000730803
0.000657781
0.000564543
0.000459246
0.000349354
0.000240378
0.000136113
3.94654e-05
-4.73107e-05
-0.000122758
-0.000186268
-0.000237965
-0.000278538
-0.000309079
-0.000330925
-0.00034551
-0.000354239
-0.000358402
-0.000359122
-0.00035733
-0.000353772
-0.00034902
-0.000343501
-0.000337519
-0.00033128
-0.000324916
-0.000318502
-0.000312068
-0.000305607
-0.000299084
-0.000292436
-0.000285574
-0.000278384
-0.000270722
-0.00026242
-0.000253291
-0.000243141
-0.000231796
-0.000219141
-0.000205164
-0.000189993
-0.000173906
-0.000157292
-0.000140588
-0.000124231
-0.000108577
-9.38649e-05
-8.02511e-05
-6.78373e-05
-5.66668e-05
-4.67331e-05
-3.79936e-05
-3.03811e-05
-2.38138e-05
-1.82022e-05
-1.34546e-05
-9.48072e-06
-6.19391e-06
-3.51249e-06
-1.3604e-06
3.32582e-07
1.63079e-06
2.59286e-06
3.27193e-06
3.71586e-06
3.96746e-06
4.06472e-06
4.04102e-06
3.92533e-06
3.74247e-06
3.51336e-06
3.25531e-06
2.98234e-06
2.70547e-06
2.43308e-06
2.17135e-06
1.92456e-06
1.69545e-06
1.4855e-06
1.29517e-06
1.1242e-06
9.71797e-07
8.36875e-07
7.18123e-07
6.14124e-07
5.23419e-07
4.44583e-07
3.7626e-07
3.17178e-07
2.6617e-07
2.22157e-07
1.84178e-07
1.51357e-07
1.22919e-07
9.81587e-08
7.64468e-08
5.72197e-08
3.9975e-08
2.42938e-08
9.85361e-09
0.000621406
0.000562484
0.00048875
0.000404668
0.00031515
0.00022472
0.000136882
5.4284e-05
-2.10558e-05
-8.77446e-05
-0.000145043
-0.000192808
-0.000231383
-0.000261469
-0.00028401
-0.000300071
-0.000310745
-0.000317071
-0.000319986
-0.000320299
-0.00031868
-0.000315666
-0.000311672
-0.00030701
-0.000301905
-0.000296512
-0.000290927
-0.000285204
-0.000279358
-0.000273373
-0.000267206
-0.00026079
-0.000254031
-0.000246815
-0.00023901
-0.000230472
-0.000221056
-0.000210642
-0.000199157
-0.000186609
-0.000173107
-0.00015887
-0.000144198
-0.000129433
-0.000114918
-0.000100946
-8.77346e-05
-7.54372e-05
-6.41539e-05
-5.39363e-05
-4.47924e-05
-3.66978e-05
-2.96047e-05
-2.34499e-05
-1.81608e-05
-1.36605e-05
-9.87166e-06
-6.71841e-06
-4.12825e-06
-2.03283e-06
-3.6848e-07
9.2357e-07
1.8972e-06
2.60144e-06
3.08062e-06
3.37453e-06
3.51856e-06
3.54392e-06
3.47778e-06
3.34353e-06
3.16099e-06
2.94665e-06
2.714e-06
2.47375e-06
2.2342e-06
2.00156e-06
1.78028e-06
1.57331e-06
1.38241e-06
1.20838e-06
1.05128e-06
9.10646e-07
7.85662e-07
6.75283e-07
5.78325e-07
4.93543e-07
4.19688e-07
3.55557e-07
3.00006e-07
2.51974e-07
2.10478e-07
1.74631e-07
1.43625e-07
1.16736e-07
9.33067e-08
7.27485e-08
5.45299e-08
3.81709e-08
2.32452e-08
9.35042e-09
0.000525126
0.000477289
0.000418665
0.000351653
0.000279353
0.000205197
0.00013215
6.25263e-05
-1.90852e-06
-5.98793e-05
-0.000110607
-0.000153784
-0.000189505
-0.000218177
-0.000240431
-0.000257035
-0.00026881
-0.000276572
-0.000281084
-0.000283027
-0.000282984
-0.000281441
-0.000278786
-0.000275322
-0.000271278
-0.000266819
-0.000262058
-0.000257063
-0.000251866
-0.000246469
-0.000240847
-0.000234952
-0.000228713
-0.000222043
-0.000214839
-0.000206996
-0.000198409
-0.000188997
-0.000178718
-0.00016759
-0.000155706
-0.000143237
-0.000130414
-0.000117502
-0.000104771
-9.24586e-05
-8.07554e-05
-6.97998e-05
-5.96875e-05
-5.0476e-05
-4.21841e-05
-3.48011e-05
-2.82949e-05
-2.26182e-05
-1.77134e-05
-1.35178e-05
-9.96594e-06
-6.99285e-06
-4.53524e-06
-2.53277e-06
-9.28674e-07
3.29868e-07
1.29156e-06
2.00094e-06
2.49844e-06
2.82046e-06
2.99952e-06
3.06432e-06
3.04001e-06
2.94829e-06
2.80764e-06
2.63356e-06
2.43877e-06
2.23354e-06
2.02589e-06
1.82193e-06
1.62615e-06
1.44161e-06
1.27029e-06
1.11321e-06
9.70704e-07
8.42579e-07
7.28276e-07
6.26985e-07
5.37743e-07
4.59504e-07
3.91193e-07
3.31759e-07
2.80188e-07
2.3553e-07
1.96902e-07
1.63496e-07
1.34574e-07
1.09471e-07
8.7583e-08
6.83635e-08
5.13174e-08
3.59899e-08
2.19614e-08
8.80261e-09
0.000435668
0.000397216
0.000351019
0.000298318
0.000240994
0.000181499
0.000122163
6.4892e-05
1.11722e-05
-3.78822e-05
-8.15243e-05
-0.000119365
-0.000151333
-0.000177623
-0.00019862
-0.000214847
-0.000226895
-0.000235379
-0.000240895
-0.000243994
-0.000245165
-0.000244826
-0.000243324
-0.00024094
-0.000237892
-0.000234345
-0.000230417
-0.000226185
-0.000221695
-0.000216962
-0.000211976
-0.000206707
-0.000201106
-0.000195109
-0.000188644
-0.000181634
-0.000174009
-0.000165717
-0.000156736
-0.00014709
-0.000136857
-0.000126167
-0.000115196
-0.000104146
-9.32248e-05
-8.26213e-05
-7.24947e-05
-6.29673e-05
-5.41254e-05
-4.60233e-05
-3.8689e-05
-3.2123e-05
-2.63055e-05
-2.12026e-05
-1.67707e-05
-1.296e-05
-9.71715e-06
-6.98784e-06
-4.71844e-06
-2.85713e-06
-1.35463e-06
-1.6472e-07
7.55504e-07
1.44549e-06
1.94119e-06
2.2751e-06
2.47634e-06
2.57071e-06
2.58087e-06
2.52647e-06
2.42432e-06
2.28858e-06
2.13098e-06
1.96103e-06
1.78628e-06
1.61255e-06
1.44416e-06
1.2842e-06
1.13469e-06
9.96839e-07
8.71158e-07
7.57675e-07
6.56054e-07
5.65703e-07
4.85868e-07
4.15696e-07
3.54294e-07
3.00767e-07
2.54243e-07
2.13896e-07
1.78952e-07
1.48698e-07
1.22478e-07
9.96993e-08
7.98198e-08
6.23469e-08
4.68305e-08
3.28525e-08
2.00201e-08
7.93806e-09
0.000351769
0.000321508
0.000285789
0.000245222
0.000200907
0.000154513
0.000107761
6.21274e-05
1.88002e-05
-2.12963e-05
-5.74997e-05
-8.94078e-05
-0.00011686
-0.000139904
-0.000158749
-0.000173724
-0.000185232
-0.000193714
-0.000199614
-0.000203357
-0.000205333
-0.000205886
-0.00020531
-0.00020385
-0.000201703
-0.000199021
-0.00019592
-0.000192478
-0.000188747
-0.000184751
-0.000180494
-0.000175961
-0.00017112
-0.00016593
-0.000160341
-0.000154302
-0.00014777
-0.000140712
-0.000133121
-0.000125023
-0.000116479
-0.000107588
-9.84811e-05
-8.93075e-05
-8.02232e-05
-7.13748e-05
-6.28894e-05
-5.4869e-05
-4.73893e-05
-4.05e-05
-3.42287e-05
-2.85853e-05
-2.35594e-05
-1.91286e-05
-1.52612e-05
-1.19194e-05
-9.0613e-06
-6.64329e-06
-4.62158e-06
-2.95326e-06
-1.59708e-06
-5.14027e-07
3.32351e-07
9.75774e-07
1.44712e-06
1.77441e-06
1.98283e-06
2.0948e-06
2.13006e-06
2.10581e-06
2.03683e-06
1.93562e-06
1.81264e-06
1.67641e-06
1.53378e-06
1.39007e-06
1.24934e-06
1.11451e-06
9.87609e-07
8.69882e-07
7.61988e-07
6.64121e-07
5.76132e-07
4.97624e-07
4.28037e-07
3.66706e-07
3.12913e-07
2.65921e-07
2.25005e-07
1.89466e-07
1.58646e-07
1.31933e-07
1.08761e-07
8.86134e-08
7.10173e-08
5.55396e-08
4.17809e-08
2.93672e-08
1.7943e-08
7.1348e-09
0.000271996
0.000249064
0.0002224
0.000192279
0.000159317
0.000124607
8.93453e-05
5.46024e-05
2.12718e-05
-9.92829e-06
-3.84562e-05
-6.395e-05
-8.62207e-05
-0.000105233
-0.00012108
-0.000133949
-0.000144098
-0.000151824
-0.000157439
-0.000161254
-0.000163562
-0.000164628
-0.000164685
-0.000163935
-0.00016254
-0.000160633
-0.000158315
-0.000155661
-0.000152721
-0.000149523
-0.000146079
-0.000142384
-0.000138423
-0.000134169
-0.000129593
-0.000124664
-0.000119355
-0.00011365
-0.00010755
-0.000101078
-9.428e-05
-8.72292e-05
-8.00189e-05
-7.27567e-05
-6.5555e-05
-5.85221e-05
-5.17545e-05
-4.53324e-05
-3.93177e-05
-3.37538e-05
-2.86663e-05
-2.40644e-05
-1.99467e-05
-1.63002e-05
-1.31036e-05
-1.03292e-05
-7.94586e-06
-5.9203e-06
-4.21854e-06
-2.80685e-06
-1.65243e-06
-7.2403e-07
7.78897e-09
5.70386e-07
9.88935e-07
1.28636e-06
1.48335e-06
1.59836e-06
1.6477e-06
1.64563e-06
1.60444e-06
1.53458e-06
1.44481e-06
1.34234e-06
1.23299e-06
1.12134e-06
1.01089e-06
9.04246e-07
8.0322e-07
7.08999e-07
6.22257e-07
5.4327e-07
4.72017e-07
4.08257e-07
3.51598e-07
3.01549e-07
2.57565e-07
2.19075e-07
1.85511e-07
1.56318e-07
1.3097e-07
1.08975e-07
8.98738e-08
7.32476e-08
5.87091e-08
4.59017e-08
3.44935e-08
2.41719e-08
1.46442e-08
5.65375e-09
0.000194942
0.000178766
0.000160175
0.00013928
0.000116411
9.22395e-05
6.75392e-05
4.30246e-05
1.93099e-05
-3.09571e-06
-2.37929e-05
-4.24972e-05
-5.90385e-05
-7.33512e-05
-8.54597e-05
-9.546e-05
-0.000103501
-0.000109768
-0.000114462
-0.000117792
-0.000119959
-0.000121151
-0.000121538
-0.000121266
-0.00012046
-0.000119222
-0.000117632
-0.000115752
-0.000113624
-0.000111276
-0.000108721
-0.000105961
-0.000102991
-9.9798e-05
-9.63645e-05
-9.26738e-05
-8.87124e-05
-8.44734e-05
-7.9961e-05
-7.51932e-05
-7.02038e-05
-6.50421e-05
-5.9771e-05
-5.44628e-05
-4.91933e-05
-4.4037e-05
-3.90615e-05
-3.43247e-05
-2.98725e-05
-2.57385e-05
-2.19439e-05
-1.84984e-05
-1.53985e-05
-1.26439e-05
-1.02205e-05
-8.10885e-06
-6.28755e-06
-4.7334e-06
-3.42217e-06
-2.32946e-06
-1.43138e-06
-7.04929e-07
-1.28347e-07
3.1873e-07
6.55122e-07
8.98039e-07
1.06306e-06
1.16415e-06
1.21368e-06
1.22251e-06
1.20004e-06
1.1543e-06
1.09208e-06
1.01896e-06
9.39515e-07
8.57365e-07
7.75319e-07
6.95482e-07
6.19365e-07
5.47983e-07
4.81955e-07
4.21579e-07
3.66914e-07
3.17838e-07
2.74104e-07
2.35374e-07
2.01264e-07
1.71358e-07
1.45238e-07
1.2249e-07
1.02717e-07
8.55446e-08
7.06239e-08
5.76309e-08
4.62659e-08
3.62504e-08
2.73215e-08
1.92261e-08
1.17152e-08
4.51781e-09
0.000118302
0.000108585
9.7513e-05
8.51208e-05
7.15708e-05
5.7225e-05
4.25134e-05
2.78425e-05
1.35693e-05
-3.59583e-09
-1.26323e-05
-2.41362e-05
-3.43988e-05
-4.3364e-05
-5.1029e-05
-5.74346e-05
-6.26552e-05
-6.67889e-05
-6.99478e-05
-7.22499e-05
-7.38126e-05
-7.47476e-05
-7.51568e-05
-7.51309e-05
-7.47476e-05
-7.40717e-05
-7.31552e-05
-7.20384e-05
-7.07505e-05
-6.93111e-05
-6.77317e-05
-6.60164e-05
-6.4164e-05
-6.21691e-05
-6.00244e-05
-5.7722e-05
-5.52561e-05
-5.26247e-05
-4.98317e-05
-4.68889e-05
-4.38164e-05
-4.06433e-05
-3.74057e-05
-3.41451e-05
-3.09057e-05
-2.77309e-05
-2.4661e-05
-2.1731e-05
-1.89697e-05
-1.63989e-05
-1.40341e-05
-1.18869e-05
-9.92892e-06
-8.19071e-06
-6.65893e-06
-5.32038e-06
-4.16248e-06
-3.17146e-06
-2.33268e-06
-1.63125e-06
-1.05248e-06
-5.82165e-07
-2.06752e-07
8.64674e-08
3.09284e-07
4.72506e-07
5.85941e-07
6.58389e-07
6.97665e-07
7.1063e-07
7.03235e-07
6.80571e-07
6.46936e-07
6.05896e-07
5.60357e-07
5.12638e-07
4.64544e-07
4.17436e-07
3.72301e-07
3.29813e-07
2.90392e-07
2.54258e-07
2.21477e-07
1.91998e-07
1.6569e-07
1.42364e-07
1.21796e-07
1.03745e-07
8.79618e-08
7.42018e-08
6.2228e-08
5.18163e-08
4.27564e-08
3.48531e-08
2.79242e-08
2.17982e-08
1.63092e-08
1.12905e-08
6.57189e-09
2.02777e-09
4.01085e-05
3.67901e-05
3.30141e-05
2.88034e-05
2.42128e-05
1.93585e-05
1.43801e-05
9.41123e-06
4.57027e-06
-4.14802e-08
-4.34163e-06
-8.26839e-06
-1.1781e-05
-1.48587e-05
-1.74986e-05
-1.97125e-05
-2.15236e-05
-2.29636e-05
-2.40691e-05
-2.48791e-05
-2.54329e-05
-2.5768e-05
-2.5919e-05
-2.59168e-05
-2.57881e-05
-2.55553e-05
-2.52365e-05
-2.48459e-05
-2.4394e-05
-2.38879e-05
-2.33319e-05
-2.27279e-05
-2.20762e-05
-2.13754e-05
-2.06236e-05
-1.98188e-05
-1.89597e-05
-1.8046e-05
-1.70797e-05
-1.60648e-05
-1.50084e-05
-1.392e-05
-1.28115e-05
-1.16965e-05
-1.05893e-05
-9.50421e-06
-8.4544e-06
-7.45147e-06
-6.50484e-06
-5.62146e-06
-4.80515e-06
-4.05435e-06
-3.39419e-06
-2.79703e-06
-2.26661e-06
-1.80203e-06
-1.3994e-06
-1.05416e-06
-7.61481e-07
-5.16414e-07
-3.14013e-07
-1.49466e-07
-1.8165e-08
8.4235e-08
1.61781e-07
2.18202e-07
2.56896e-07
2.8093e-07
2.93045e-07
2.9566e-07
2.90888e-07
2.80554e-07
2.66206e-07
2.49142e-07
2.30432e-07
2.10935e-07
1.91328e-07
1.72129e-07
1.53717e-07
1.36358e-07
1.20219e-07
1.05394e-07
9.19147e-08
7.97678e-08
6.89064e-08
5.92601e-08
5.07433e-08
4.32617e-08
3.67175e-08
3.10127e-08
2.60521e-08
2.17447e-08
1.80048e-08
1.47523e-08
1.19118e-08
9.41053e-09
7.17243e-09
5.09999e-09
3.00742e-09
3.91304e-10
6.70779e-05
6.96691e-05
7.55371e-05
8.43354e-05
9.58383e-05
0.000110108
0.000127341
0.000147773
0.000171679
0.000199379
0.000231255
0.000267756
0.000309422
0.000356907
0.000411031
0.000472849
0.000543768
0.00062573
0.000721537
0.000835432
0.000974249
0.00114993
0.00138589
0.00174064
0.00238932
6.68101e-05
6.93147e-05
7.5084e-05
8.37723e-05
9.51491e-05
0.000109273
0.000126335
0.000146569
0.000170241
0.000197666
0.000229216
0.00026533
0.00030653
0.000353448
0.000406869
0.000467797
0.000537555
0.000617949
0.000711533
0.000822073
0.000955374
0.00112079
0.00133367
0.00161583
0.00196975
6.63341e-05
6.87708e-05
7.44411e-05
8.30113e-05
9.4248e-05
0.000108205
0.000125069
0.000145068
0.000168464
0.000195563
0.000226725
0.000262374
0.000303009
0.000349232
0.000401778
0.000461577
0.00052983
0.000608136
0.000698681
0.000804518
0.000929947
0.0010808
0.00126328
0.00147476
0.00166584
6.56006e-05
6.79731e-05
7.3524e-05
8.19421e-05
9.29936e-05
0.000106727
0.000123323
0.000143004
0.000166022
0.000192672
0.000223299
0.000258304
0.000298156
0.000343408
0.00039473
0.000452942
0.000519076
0.000594447
0.000680743
0.000780096
0.00089501
0.00102765
0.00117687
0.00132859
0.00143268
6.45416e-05
6.68447e-05
7.22503e-05
8.04744e-05
9.12861e-05
0.000104727
0.000120971
0.000140233
0.000162752
0.00018881
0.000218728
0.00025288
0.000291692
0.000335658
0.000385355
0.000441467
0.000504805
0.00057633
0.000657134
0.000748321
0.000850586
0.000962987
0.00107981
0.00118367
0.00123525
6.30776e-05
6.5303e-05
7.05345e-05
7.85156e-05
8.9022e-05
0.000102088
0.000117879
0.000136598
0.000158472
0.000183761
0.000212762
0.000245809
0.000283278
0.000325584
0.000373195
0.000426625
0.000486429
0.000553164
0.000627289
0.000708902
0.000797153
0.000888979
0.000976677
0.00104416
0.00106411
6.11148e-05
6.32498e-05
6.82721e-05
7.5951e-05
8.60717e-05
9.86619e-05
0.000113876
0.000131903
0.000152953
0.000177263
0.000205095
0.000236741
0.00027251
0.000312732
0.000357741
0.000407863
0.000463373
0.000524418
0.00059085
0.000661916
0.000735673
0.000807986
0.000871071
0.000912055
0.000913392
5.85428e-05
6.05704e-05
6.53404e-05
7.26457e-05
8.22838e-05
9.42763e-05
0.000108764
0.000125921
0.000145936
0.000169015
0.000195387
0.000225287
0.000258956
0.000296621
0.000338476
0.00038465
0.000435142
0.000489717
0.000547726
0.000607811
0.000667441
0.00072229
0.000765589
0.000787974
0.000778828
5.53988e-05
5.73039e-05
6.17846e-05
6.8654e-05
7.77237e-05
8.901e-05
0.00010264
0.000118768
0.000137562
0.000159197
0.000183859
0.000211733
0.000242982
0.000277737
0.00031606
0.000357899
0.000403022
0.000450904
0.000500565
0.000550338
0.000597566
0.000638299
0.000667138
0.000677585
0.000663334
5.16512e-05
5.34176e-05
5.75683e-05
6.39357e-05
7.23471e-05
8.28138e-05
9.54476e-05
0.000110385
0.000127766
0.000147739
0.000170446
0.000196017
0.000224548
0.000256076
0.000290547
0.000327762
0.000367313
0.00040848
0.00045011
0.000490455
0.000527023
0.000556488
0.000574787
0.000577597
0.000561303
4.70168e-05
4.86173e-05
5.23735e-05
5.81377e-05
6.57544e-05
7.5231e-05
8.66626e-05
0.000100164
0.000115852
0.000133838
0.000154227
0.000177094
0.000202471
0.000230315
0.000260476
0.000292644
0.000326297
0.000360619
0.000394421
0.000426057
0.000453383
0.000473792
0.00048441
0.000482514
0.000466167
4.13517e-05
4.27544e-05
4.60412e-05
5.1085e-05
5.77505e-05
6.60414e-05
7.60357e-05
8.7826e-05
0.000101502
0.000117144
0.000134818
0.000154554
0.00017633
0.000200043
0.000225478
0.000252264
0.000279836
0.00030738
0.000333792
0.000357654
0.000377257
0.000390691
0.000396038
0.000391684
0.000376683
3.45117e-05
3.56796e-05
3.84112e-05
4.26018e-05
4.81393e-05
5.50247e-05
6.33181e-05
7.30899e-05
8.44042e-05
9.73136e-05
0.00011185
0.000128011
0.000145738
0.000164894
0.00018524
0.000206403
0.000227843
0.000248835
0.00026845
0.00028557
0.000298932
0.000307228
0.000309259
0.000304126
0.000291435
2.63658e-05
2.72576e-05
2.93383e-05
3.25282e-05
3.67424e-05
4.19803e-05
4.82846e-05
5.5704e-05
6.428e-05
7.40422e-05
8.50002e-05
9.71313e-05
0.000110365
0.000124565
0.000139512
0.000154881
0.000170231
0.000184989
0.000198462
0.000209851
0.00021831
0.000223016
0.000223272
0.000218623
0.000208948
1.6819e-05
1.73894e-05
1.87153e-05
2.07454e-05
2.34262e-05
2.67567e-05
3.07624e-05
3.54718e-05
4.09075e-05
4.70827e-05
5.39957e-05
6.16219e-05
6.9903e-05
7.87368e-05
8.79658e-05
9.73672e-05
0.000106647
0.000115437
0.000123307
0.000129784
0.000134384
0.000136663
0.000136271
0.000133007
0.000126861
5.84723e-06
6.04791e-06
6.51162e-06
7.2203e-06
8.15556e-06
9.31715e-06
1.07139e-05
1.23554e-05
1.4249e-05
1.63983e-05
1.88016e-05
2.14484e-05
2.43157e-05
2.7365e-05
3.05377e-05
3.37528e-05
3.69046e-05
3.98638e-05
4.24816e-05
4.45977e-05
4.60529e-05
4.67055e-05
4.6449e-05
4.52285e-05
4.30519e-05
)
;

boundaryField
{
    top
    {
        type            fixedValue;
        value           uniform 0;
    }
    inlet
    {
        type            zeroGradient;
    }
    outlet
    {
        type            fixedValue;
        value           uniform 0;
    }
    plate
    {
        type            zeroGradient;
    }
    symmBound
    {
        type            zeroGradient;
    }
    frontAndBack
    {
        type            empty;
    }
}


// ************************************************************************* //
