/*--------------------------------*- C++ -*----------------------------------*\
| =========                 |                                                 |
| \\      /  F ield         | OpenFOAM: The Open Source CFD Toolbox           |
|  \\    /   O peration     | Version:  2.3.0                                 |
|   \\  /    A nd           | Web:      www.OpenFOAM.org                      |
|    \\/     M anipulation  |                                                 |
\*---------------------------------------------------------------------------*/
FoamFile
{
    version     2.0;
    format      ascii;
    class       volScalarField;
    location    "0.95";
    object      p;
}
// * * * * * * * * * * * * * * * * * * * * * * * * * * * * * * * * * * * * * //

dimensions      [0 2 -2 0 0 0 0];

internalField   nonuniform List<scalar> 
868
(
0.00125355
0.00118833
0.000988022
0.000791368
0.000636106
0.000511264
0.000395804
0.000276123
0.000147677
1.15849e-05
-0.000126997
-0.000259793
-0.000375593
-0.000463413
-0.000516227
-0.000532841
-0.000518361
-0.000482061
-0.000433713
-0.000381645
-0.000331439
-0.000286672
-0.000248678
-0.000217818
-0.00019332
-0.000173868
-0.000158641
-0.000146246
-0.00013608
-0.00012746
-0.000119668
-0.000112851
-0.00010614
-9.99759e-05
-9.38607e-05
-8.781e-05
-8.20027e-05
-7.61188e-05
-7.04275e-05
-6.49743e-05
-5.92892e-05
-5.40567e-05
-4.84144e-05
-4.30024e-05
-3.72944e-05
-3.15882e-05
-2.53223e-05
-1.92023e-05
-1.18633e-05
-4.8309e-06
0.00102577
0.00101317
0.000910953
0.000763325
0.000618712
0.000491859
0.000376426
0.000261386
0.000140234
1.19614e-05
-0.000119266
-0.000245014
-0.000355109
-0.000439839
-0.000492459
-0.000511057
-0.000499565
-0.000466365
-0.000420896
-0.000371465
-0.000323372
-0.000280308
-0.000243589
-0.000213677
-0.000189879
-0.000170894
-0.000156065
-0.000143927
-0.000133977
-0.000125552
-0.000117872
-0.00011123
-0.000104599
-9.8565e-05
-9.25485e-05
-8.65698e-05
-8.08655e-05
-7.50366e-05
-6.94089e-05
-6.40406e-05
-5.8372e-05
-5.3228e-05
-4.75995e-05
-4.22422e-05
-3.65598e-05
-3.08966e-05
-2.46358e-05
-1.85687e-05
-1.12723e-05
-4.31476e-06
0.000892594
0.00089724
0.000843801
0.000736493
0.000606321
0.000478701
0.000360708
0.00024789
0.000133896
1.61421e-05
-0.000102709
-0.000216319
-0.000316502
-0.000395385
-0.000447247
-0.000469875
-0.000465476
-0.000440139
-0.000401577
-0.000357595
-0.000314032
-0.000274457
-0.000240018
-0.000211362
-0.000188106
-0.000169245
-0.000154389
-0.000142129
-0.000132079
-0.000123584
-0.000115841
-0.000109235
-0.00010261
-9.66653e-05
-9.07319e-05
-8.48401e-05
-7.92687e-05
-7.3534e-05
-6.8027e-05
-6.278e-05
-5.71942e-05
-5.21814e-05
-4.66335e-05
-4.1369e-05
-3.57862e-05
-3.01854e-05
-2.40295e-05
-1.80229e-05
-1.09541e-05
-4.18322e-06
0.000791462
0.000797694
0.000766884
0.000689712
0.000579646
0.000459553
0.000343574
0.000233784
0.000126927
2.01971e-05
-8.56824e-05
-0.000186451
-0.000275906
-0.000347855
-0.000397534
-0.000422672
-0.000424248
-0.000406493
-0.000375509
-0.000338113
-0.000299615
-0.000263775
-0.000231965
-0.000205051
-0.000182879
-0.000164695
-0.000150251
-0.000138247
-0.000128389
-0.000120042
-0.000112432
-0.000105968
-9.94863e-05
-9.37079e-05
-8.79467e-05
-8.22301e-05
-7.68569e-05
-7.13016e-05
-6.59875e-05
-6.09021e-05
-5.54921e-05
-5.06283e-05
-4.52521e-05
-4.01125e-05
-3.47064e-05
-2.92017e-05
-2.32577e-05
-1.73427e-05
-1.06231e-05
-4.07332e-06
0.00070148
0.000705868
0.000685367
0.000628837
0.000540338
0.000434584
0.000325974
0.00022137
0.000121577
2.49117e-05
-6.89413e-05
-0.000157601
-0.000236739
-0.000301688
-0.000348545
-0.000375095
-0.00038145
-0.000370405
-0.000346626
-0.000315732
-0.000282382
-0.000250392
-0.000221426
-0.000196515
-0.000175718
-0.00015849
-0.000144641
-0.000133062
-0.000123489
-0.000115348
-0.000107928
-0.000101602
-9.53246e-05
-8.97089e-05
-8.41542e-05
-7.86561e-05
-7.35044e-05
-6.82009e-05
-6.3125e-05
-5.82351e-05
-5.3089e-05
-4.83918e-05
-4.32821e-05
-3.83104e-05
-3.31554e-05
-2.78277e-05
-2.2178e-05
-1.64393e-05
-1.01287e-05
-3.78868e-06
0.000618361
0.000620698
0.000606
0.000564112
0.00049459
0.000405399
0.00030801
0.000211147
0.000118605
3.07261e-05
-5.27368e-05
-0.000130611
-0.000200239
-0.000258375
-0.000301969
-0.00032901
-0.000339033
-0.000333704
-0.000316435
-0.000291677
-0.000263433
-0.000235372
-0.000209376
-0.00018657
-0.00016727
-0.000151122
-0.00013796
-0.000126912
-0.000117679
-0.000109807
-0.000102628
-9.64515e-05
-9.04411e-05
-8.49785e-05
-7.96704e-05
-7.44114e-05
-6.94793e-05
-6.44905e-05
-5.96448e-05
-5.49877e-05
-5.01538e-05
-4.56272e-05
-4.08489e-05
-3.60818e-05
-3.11995e-05
-2.61488e-05
-2.08202e-05
-1.53449e-05
-9.46379e-06
-3.37126e-06
0.000540932
0.000541702
0.000530952
0.000499885
0.000445914
0.000372746
0.000288434
0.000201322
0.00011677
3.69282e-05
-3.76774e-05
-0.000106265
-0.000167373
-0.000218964
-0.000258859
-0.00028541
-0.000297857
-0.000297073
-0.000285437
-0.000266309
-0.000243006
-0.000218885
-0.000195931
-0.000175302
-0.000157577
-0.00014259
-0.0001302
-0.000119773
-0.000110963
-0.000103445
-9.65849e-05
-9.06131e-05
-8.49383e-05
-7.96654e-05
-7.46511e-05
-6.96612e-05
-6.49646e-05
-6.03431e-05
-5.57327e-05
-5.13457e-05
-4.68592e-05
-4.25205e-05
-3.81149e-05
-3.35916e-05
-2.89913e-05
-2.4294e-05
-1.93001e-05
-1.41534e-05
-8.72783e-06
-3.00495e-06
0.000468503
0.00046833
0.000460707
0.000437789
0.000396347
0.000337464
0.000266419
0.00019009
0.000114327
4.24155e-05
-2.42968e-05
-8.48831e-05
-0.000138429
-0.000183778
-0.000219576
-0.000244696
-0.000258322
-0.000260839
-0.000253841
-0.000239708
-0.00022106
-0.00020082
-0.000180965
-0.000162593
-0.000146514
-0.000132781
-0.000121254
-0.000111555
-0.000103267
-9.61949e-05
-8.97618e-05
-8.40739e-05
-7.88127e-05
-7.37884e-05
-6.91109e-05
-6.44543e-05
-6.00106e-05
-5.57934e-05
-5.14535e-05
-4.73631e-05
-4.32557e-05
-3.91429e-05
-3.51334e-05
-3.08964e-05
-2.65977e-05
-2.23097e-05
-1.76705e-05
-1.28984e-05
-7.96671e-06
-2.71238e-06
0.00040027
0.000399742
0.000394861
0.000378494
0.000347159
0.000300533
0.000241876
0.000176586
0.000110121
4.63019e-05
-1.29348e-05
-6.63058e-05
-0.000113042
-0.000152489
-0.00018395
-0.000206874
-0.000220586
-0.000225246
-0.000221866
-0.000211985
-0.000197583
-0.000181081
-0.000164348
-0.000148313
-0.00013397
-0.000121594
-0.000111023
-0.000102177
-9.45162e-05
-8.79931e-05
-8.20996e-05
-7.67813e-05
-7.20251e-05
-6.7317e-05
-6.30214e-05
-5.87699e-05
-5.46076e-05
-5.08325e-05
-4.67965e-05
-4.30371e-05
-3.93465e-05
-3.5493e-05
-3.19036e-05
-2.80099e-05
-2.40303e-05
-2.01902e-05
-1.59451e-05
-1.15879e-05
-7.18064e-06
-2.44328e-06
0.000335246
0.000334891
0.000332745
0.000322043
0.000299106
0.000262861
0.000215263
0.000160558
0.000103561
4.80522e-05
-3.77521e-06
-5.02875e-05
-9.06868e-05
-0.000124567
-0.00015166
-0.000171886
-0.000184812
-0.000190588
-0.000189819
-0.000183385
-0.000172707
-0.000159689
-0.000146022
-0.000132397
-0.000119891
-0.000108975
-9.94646e-05
-9.15932e-05
-8.46717e-05
-7.87971e-05
-7.35382e-05
-6.86854e-05
-6.45208e-05
-6.02023e-05
-5.63396e-05
-5.25522e-05
-4.87172e-05
-4.54327e-05
-4.17312e-05
-3.83381e-05
-3.5112e-05
-3.15598e-05
-2.84078e-05
-2.49137e-05
-2.12927e-05
-1.79255e-05
-1.41114e-05
-1.02185e-05
-6.36497e-06
-2.1684e-06
0.000267056
0.000267635
0.000268976
0.000263952
0.000248778
0.000221991
0.000184848
0.000140712
9.37184e-05
4.73321e-05
3.64496e-06
-3.55415e-05
-6.93462e-05
-9.75066e-05
-0.000120017
-0.000137075
-0.000148487
-0.000154542
-0.000155589
-0.000151987
-0.000144681
-0.00013504
-0.000124512
-0.000113505
-0.00010307
-9.38403e-05
-8.55937e-05
-7.88778e-05
-7.28735e-05
-6.77883e-05
-6.33028e-05
-5.90458e-05
-5.55926e-05
-5.1788e-05
-4.84385e-05
-4.52211e-05
-4.17989e-05
-3.90812e-05
-3.58069e-05
-3.28422e-05
-3.01558e-05
-2.69951e-05
-2.4341e-05
-2.13213e-05
-1.81408e-05
-1.53259e-05
-1.20138e-05
-8.65859e-06
-5.43815e-06
-1.85992e-06
0.000192131
0.000194005
0.000199147
0.000199808
0.000192077
0.000174365
0.000147551
0.00011448
7.8595e-05
4.28108e-05
8.83343e-06
-2.1721e-05
-4.79765e-05
-6.9721e-05
-8.71017e-05
-0.000100404
-0.000109545
-0.000115009
-0.000117026
-0.000115581
-0.000111269
-0.000104922
-9.76493e-05
-8.95676e-05
-8.15923e-05
-7.44387e-05
-6.78168e-05
-6.25458e-05
-5.77483e-05
-5.36856e-05
-5.01887e-05
-4.67243e-05
-4.41425e-05
-4.10702e-05
-3.83765e-05
-3.58943e-05
-3.3047e-05
-3.10122e-05
-2.83415e-05
-2.59147e-05
-2.38995e-05
-2.12814e-05
-1.92251e-05
-1.6843e-05
-1.42306e-05
-1.20865e-05
-9.44589e-06
-6.75226e-06
-4.28165e-06
-1.48376e-06
0.000112538
0.000115359
0.000122899
0.000127619
0.00012591
0.000116464
0.000100026
7.88896e-05
5.56102e-05
3.22622e-05
9.98227e-06
-1.01288e-05
-2.74059e-05
-4.16323e-05
-5.30195e-05
-6.18356e-05
-6.79455e-05
-7.1889e-05
-7.38767e-05
-7.36948e-05
-7.16901e-05
-6.82694e-05
-6.4157e-05
-5.92264e-05
-5.41187e-05
-4.94878e-05
-4.501e-05
-4.15503e-05
-3.8339e-05
-3.5604e-05
-3.33456e-05
-3.0961e-05
-2.93671e-05
-2.73071e-05
-2.54727e-05
-2.39e-05
-2.18994e-05
-2.06389e-05
-1.88336e-05
-1.71336e-05
-1.58989e-05
-1.40782e-05
-1.27268e-05
-1.11805e-05
-9.35718e-06
-7.98714e-06
-6.24102e-06
-4.4088e-06
-2.81141e-06
-9.5777e-07
3.38544e-05
3.56967e-05
4.05344e-05
4.4248e-05
4.50011e-05
4.23711e-05
3.68727e-05
2.94476e-05
2.11382e-05
1.27853e-05
4.81211e-06
-2.38306e-06
-8.56216e-06
-1.36322e-05
-1.76974e-05
-2.08762e-05
-2.30803e-05
-2.45664e-05
-2.54397e-05
-2.55565e-05
-2.50462e-05
-2.40248e-05
-2.27505e-05
-2.11199e-05
-1.93478e-05
-1.77336e-05
-1.61042e-05
-1.48733e-05
-1.37236e-05
-1.27326e-05
-1.19461e-05
-1.10606e-05
-1.0522e-05
-9.78126e-06
-9.10873e-06
-8.57481e-06
-7.81989e-06
-7.39733e-06
-6.75242e-06
-6.11141e-06
-5.70323e-06
-5.02762e-06
-4.54371e-06
-4.00263e-06
-3.31671e-06
-2.8453e-06
-2.2264e-06
-1.54614e-06
-9.83752e-07
-3.22616e-07
0.000172201
0.00020572
0.00022944
0.000262755
0.0003029
0.000358062
0.00042286
0.000507829
0.000610762
0.00074493
0.000904824
0.00109
0.000174904
0.000200416
0.000227788
0.000259482
0.00030183
0.000354172
0.000420436
0.000500396
0.000600448
0.000716371
0.000846333
0.000960369
0.000175962
0.000196605
0.000224459
0.00025643
0.000299024
0.000350317
0.000414448
0.000489588
0.000579942
0.00067754
0.000776244
0.000851965
0.000176149
0.000192698
0.00021963
0.000252161
0.000294063
0.000344247
0.000404435
0.000473547
0.000551553
0.000632384
0.000707518
0.000763043
0.000174586
0.000188724
0.00021401
0.000246269
0.000286827
0.000335045
0.000390449
0.000451936
0.000518124
0.000583935
0.000641643
0.000682248
0.000171324
0.000184095
0.000207505
0.0002385
0.000276968
0.000322144
0.000372202
0.000425646
0.000480912
0.000533729
0.000577723
0.000606329
0.000166407
0.000178192
0.000199772
0.00022868
0.000264215
0.000305346
0.000349694
0.000395284
0.00044063
0.000482265
0.000515118
0.000534333
0.000159777
0.000170626
0.000190265
0.000216516
0.000248358
0.000284728
0.000323154
0.000361307
0.000397789
0.000429899
0.00045373
0.000465799
0.000151234
0.000161065
0.000178524
0.000201655
0.000229277
0.000260473
0.000292937
0.000324181
0.000352862
0.000376928
0.000393486
0.000400206
0.00014045
0.000149158
0.00016415
0.000183802
0.000206918
0.00023278
0.0002594
0.000284332
0.000306287
0.000323621
0.000334222
0.000336828
0.000125975
0.000133406
0.000145528
0.000161179
0.000179326
0.000199506
0.000220122
0.000238918
0.000254714
0.000266215
0.000271733
0.000270391
0.000104877
0.000110779
0.000119524
0.000130523
0.000143125
0.000157166
0.0001715
0.000184199
0.0001942
0.000200459
0.000201474
0.000196703
7.36663e-05
7.77026e-05
8.28331e-05
8.89764e-05
9.5935e-05
0.000103812
0.000111877
0.000118789
0.000123788
0.000125953
0.000123983
0.000117438
2.79631e-05
2.96511e-05
3.13067e-05
3.30362e-05
3.48935e-05
3.70807e-05
3.94721e-05
4.14749e-05
4.27347e-05
4.27822e-05
4.08982e-05
3.6717e-05
)
;

boundaryField
{
    top
    {
        type            fixedValue;
        value           uniform 0;
    }
    inlet
    {
        type            zeroGradient;
    }
    outlet
    {
        type            fixedValue;
        value           uniform 0;
    }
    plate
    {
        type            zeroGradient;
    }
    symmBound
    {
        type            zeroGradient;
    }
    frontAndBack
    {
        type            empty;
    }
}


// ************************************************************************* //
