/*--------------------------------*- C++ -*----------------------------------*\
| =========                 |                                                 |
| \\      /  F ield         | OpenFOAM: The Open Source CFD Toolbox           |
|  \\    /   O peration     | Version:  2.3.0                                 |
|   \\  /    A nd           | Web:      www.OpenFOAM.org                      |
|    \\/     M anipulation  |                                                 |
\*---------------------------------------------------------------------------*/
FoamFile
{
    version     2.0;
    format      ascii;
    class       surfaceScalarField;
    location    "0.95";
    object      phi;
}
// * * * * * * * * * * * * * * * * * * * * * * * * * * * * * * * * * * * * * //

dimensions      [0 3 -1 0 0 0 0];

internalField   nonuniform List<scalar> 
1660
(
6.34764e-08
2.71388e-09
-6.61903e-08
5.9795e-08
3.68141e-09
5.5819e-08
3.976e-09
5.18724e-08
3.94656e-09
4.79742e-08
3.89822e-09
4.40851e-08
3.88905e-09
4.02074e-08
3.87774e-09
3.63797e-08
3.82773e-09
3.26651e-08
3.71454e-09
2.91432e-08
3.52189e-09
2.59004e-08
3.24284e-09
2.30019e-08
2.89852e-09
2.05085e-08
2.49335e-09
1.84559e-08
2.05266e-09
1.68382e-08
1.61772e-09
1.56102e-08
1.22799e-09
1.47005e-08
9.09698e-10
1.40337e-08
6.66802e-10
1.35405e-08
4.93201e-10
1.31639e-08
3.76559e-10
1.28628e-08
3.01059e-10
1.26047e-08
2.58175e-10
1.23677e-08
2.3695e-10
1.21369e-08
2.30795e-10
1.19073e-08
2.29649e-10
1.16764e-08
2.30897e-10
1.1444e-08
2.32338e-10
1.12139e-08
2.30178e-10
1.09853e-08
2.28581e-10
1.07629e-08
2.22415e-10
1.05462e-08
2.16639e-10
1.03371e-08
2.09177e-10
1.01371e-08
1.99915e-10
9.94439e-09
1.92745e-10
9.76175e-09
1.82639e-10
9.58678e-09
1.74973e-10
9.41978e-09
1.66998e-10
9.26123e-09
1.58557e-10
9.10803e-09
1.532e-10
8.96223e-09
1.45792e-10
8.82169e-09
1.40538e-10
8.68575e-09
1.35949e-10
8.55551e-09
1.3024e-10
8.42796e-09
1.27544e-10
8.30461e-09
1.23356e-10
8.18353e-09
1.21078e-10
8.06509e-09
1.18439e-10
7.947e-09
1.18087e-10
7.83176e-09
1.15246e-10
1.2881e-10
7.27396e-08
2.50194e-09
-7.25276e-08
7.28657e-08
3.55528e-09
7.25321e-08
4.30964e-09
7.18545e-08
4.62414e-09
7.09866e-08
4.76606e-09
6.99727e-08
4.90296e-09
6.87786e-08
5.07182e-09
6.73862e-08
5.22017e-09
6.58113e-08
5.2894e-09
6.40865e-08
5.24671e-09
6.22405e-08
5.08885e-09
6.03142e-08
4.82485e-09
5.83488e-08
4.45871e-09
5.63898e-08
4.01171e-09
5.44801e-08
3.52734e-09
5.26565e-08
3.05161e-09
5.09366e-08
2.62958e-09
4.93272e-08
2.27626e-09
4.78217e-08
1.99868e-09
4.6409e-08
1.78924e-09
4.50893e-08
1.62075e-09
4.38544e-08
1.49307e-09
4.26939e-08
1.39747e-09
4.16001e-08
1.32462e-09
4.05657e-08
1.264e-09
3.95871e-08
1.20956e-09
3.86572e-08
1.16223e-09
3.77765e-08
1.11088e-09
3.69368e-08
1.06825e-09
3.61412e-08
1.01802e-09
3.53818e-08
9.7599e-10
3.46616e-08
9.29417e-10
3.39746e-08
8.86915e-10
3.33221e-08
8.45275e-10
3.26991e-08
8.05575e-10
3.21076e-08
7.66469e-10
3.15402e-08
7.34407e-10
3.10021e-08
6.96678e-10
3.04822e-08
6.73098e-10
2.9989e-08
6.3899e-10
2.95104e-08
6.19113e-10
2.90549e-08
5.91469e-10
2.86112e-08
5.73972e-10
2.81876e-08
5.51142e-10
2.77717e-08
5.39287e-10
2.73743e-08
5.1845e-10
2.69804e-08
5.12367e-10
2.66016e-08
4.96858e-10
2.62231e-08
4.93691e-10
4.97412e-10
7.87688e-08
2.47115e-09
-7.8738e-08
7.90859e-08
3.23813e-09
7.93642e-08
4.03136e-09
7.94921e-08
4.49624e-09
7.95133e-08
4.74484e-09
7.94957e-08
4.92059e-09
7.94552e-08
5.11233e-09
7.93618e-08
5.31352e-09
7.91829e-08
5.4683e-09
7.88983e-08
5.53138e-09
7.85e-08
5.48708e-09
7.79873e-08
5.33755e-09
7.73597e-08
5.08636e-09
7.66283e-08
4.74306e-09
7.58105e-08
4.34517e-09
7.49341e-08
3.92802e-09
7.40206e-08
3.54304e-09
7.30904e-08
3.20655e-09
7.21492e-08
2.93986e-09
7.12108e-08
2.72763e-09
7.02674e-08
2.56412e-09
6.93286e-08
2.43188e-09
6.83916e-08
2.33447e-09
6.74617e-08
2.25456e-09
6.65343e-08
2.19135e-09
6.56141e-08
2.12982e-09
6.46963e-08
2.07996e-09
6.37884e-08
2.01883e-09
6.28836e-08
1.97307e-09
6.19924e-08
1.90922e-09
6.11055e-08
1.86281e-09
6.02361e-08
1.79888e-09
5.93731e-08
1.74988e-09
5.853e-08
1.68843e-09
5.76956e-08
1.63989e-09
5.68828e-08
1.57928e-09
5.60799e-08
1.5373e-09
5.53006e-08
1.47605e-09
5.45298e-08
1.44385e-09
5.37854e-08
1.38343e-09
5.30475e-08
1.35697e-09
5.23376e-08
1.30136e-09
5.16329e-08
1.27867e-09
5.09558e-08
1.22825e-09
5.02825e-08
1.21261e-09
4.96362e-08
1.16471e-09
4.89899e-08
1.15875e-09
4.83701e-08
1.11663e-09
4.77449e-08
1.11883e-09
1.09293e-09
8.53452e-08
2.47489e-09
-8.53489e-08
8.55133e-08
3.06996e-09
8.58076e-08
3.73715e-09
8.60618e-08
4.24201e-09
8.62356e-08
4.571e-09
8.63799e-08
4.77634e-09
8.65497e-08
4.94255e-09
8.67474e-08
5.1158e-09
8.69412e-08
5.27446e-09
8.71085e-08
5.36408e-09
8.72233e-08
5.37224e-09
8.72781e-08
5.28277e-09
8.72574e-08
5.10712e-09
8.71568e-08
4.84361e-09
8.69734e-08
4.5286e-09
8.67216e-08
4.17976e-09
8.64122e-08
3.85252e-09
8.60666e-08
3.5521e-09
8.56905e-08
3.31598e-09
8.52996e-08
3.1185e-09
8.48855e-08
2.97829e-09
8.44589e-08
2.85841e-09
8.40162e-08
2.7772e-09
8.3565e-08
2.70579e-09
8.31004e-08
2.65591e-09
8.26261e-08
2.60411e-09
8.2136e-08
2.57005e-09
8.16367e-08
2.5182e-09
8.11182e-08
2.49153e-09
8.05939e-08
2.43352e-09
8.00487e-08
2.408e-09
7.95001e-08
2.34752e-09
7.89322e-08
2.31781e-09
7.83607e-08
2.25991e-09
7.77749e-08
2.22567e-09
7.71852e-08
2.16894e-09
7.65839e-08
2.1386e-09
7.59816e-08
2.07834e-09
7.53663e-08
2.05924e-09
7.47554e-08
1.99425e-09
7.41303e-08
1.98205e-09
7.35118e-08
1.91989e-09
7.28817e-08
1.90877e-09
7.2257e-08
1.85294e-09
7.16237e-08
1.84595e-09
7.09968e-08
1.79164e-09
7.03598e-08
1.79569e-09
6.97312e-08
1.74527e-09
6.90919e-08
1.75816e-09
1.72203e-09
9.24388e-08
2.47217e-09
-9.24361e-08
9.25457e-08
2.96303e-09
9.27804e-08
3.50251e-09
9.30348e-08
3.98764e-09
9.32491e-08
4.35666e-09
9.34301e-08
4.59535e-09
9.36148e-08
4.75782e-09
9.38287e-08
4.90195e-09
9.40648e-08
5.03834e-09
9.43043e-08
5.12458e-09
9.45193e-08
5.15724e-09
9.47006e-08
5.10151e-09
9.48345e-08
4.97325e-09
9.49156e-08
4.76247e-09
9.49352e-08
4.50898e-09
9.49025e-08
4.21247e-09
9.48221e-08
3.93294e-09
9.47141e-08
3.66011e-09
9.45826e-08
3.44743e-09
9.44419e-08
3.25922e-09
9.42881e-08
3.13206e-09
9.4128e-08
3.01854e-09
9.39602e-08
2.94496e-09
9.37888e-08
2.87723e-09
9.36126e-08
2.83216e-09
9.34324e-08
2.78422e-09
9.32439e-08
2.75856e-09
9.30508e-08
2.71137e-09
9.28436e-08
2.69865e-09
9.26319e-08
2.64522e-09
9.2404e-08
2.63593e-09
9.21699e-08
2.58166e-09
9.19204e-08
2.56724e-09
9.16605e-08
2.51985e-09
9.13889e-08
2.49726e-09
9.1105e-08
2.45284e-09
9.08104e-08
2.43323e-09
9.05047e-08
2.38402e-09
9.01853e-08
2.37862e-09
8.98575e-08
2.32206e-09
8.95159e-08
2.32372e-09
8.91641e-08
2.27165e-09
8.88017e-08
2.27113e-09
8.84254e-08
2.2293e-09
8.8041e-08
2.23028e-09
8.76424e-08
2.1903e-09
8.72354e-08
2.20266e-09
8.68146e-08
2.16605e-09
8.63867e-08
2.18606e-09
2.16492e-09
1.00079e-07
2.4594e-09
-1.00066e-07
1.00162e-07
2.87958e-09
1.00343e-07
3.32243e-09
1.00571e-07
3.75893e-09
1.00797e-07
4.13125e-09
1.01e-07
4.39213e-09
1.01187e-07
4.57041e-09
1.01389e-07
4.70072e-09
1.01608e-07
4.81855e-09
1.01839e-07
4.89343e-09
1.02059e-07
4.93808e-09
1.02253e-07
4.90719e-09
1.02411e-07
4.81498e-09
1.02527e-07
4.64708e-09
1.02592e-07
4.44306e-09
1.02614e-07
4.19111e-09
1.02595e-07
3.95165e-09
1.02552e-07
3.70336e-09
1.02492e-07
3.50755e-09
1.02424e-07
3.32735e-09
1.02352e-07
3.20376e-09
1.02277e-07
3.09318e-09
1.02204e-07
3.01848e-09
1.0213e-07
2.95105e-09
1.02059e-07
2.90293e-09
1.0199e-07
2.8537e-09
1.01921e-07
2.82695e-09
1.01853e-07
2.77937e-09
1.01783e-07
2.76913e-09
1.0171e-07
2.71774e-09
1.01634e-07
2.71195e-09
1.01553e-07
2.66253e-09
1.0147e-07
2.65096e-09
1.01377e-07
2.61282e-09
1.01282e-07
2.59169e-09
1.01177e-07
2.55801e-09
1.01071e-07
2.53967e-09
1.00954e-07
2.50068e-09
1.00833e-07
2.49919e-09
1.00702e-07
2.45306e-09
1.00568e-07
2.45802e-09
1.0042e-07
2.41931e-09
1.00272e-07
2.41995e-09
1.00106e-07
2.39534e-09
9.99385e-08
2.39742e-09
9.97535e-08
2.37531e-09
9.95667e-08
2.38947e-09
9.93619e-08
2.37076e-09
9.91545e-08
2.39351e-09
2.39014e-09
1.08315e-07
2.43996e-09
-1.08296e-07
1.08389e-07
2.80577e-09
1.08527e-07
3.18483e-09
1.08727e-07
3.55889e-09
1.08945e-07
3.91366e-09
1.09157e-07
4.18e-09
1.09349e-07
4.37808e-09
1.09543e-07
4.50678e-09
1.09745e-07
4.61633e-09
1.09955e-07
4.68389e-09
1.1016e-07
4.73242e-09
1.10349e-07
4.71888e-09
1.10508e-07
4.65597e-09
1.10628e-07
4.52678e-09
1.10706e-07
4.3655e-09
1.10742e-07
4.15496e-09
1.10742e-07
3.95123e-09
1.10716e-07
3.72909e-09
1.10676e-07
3.54783e-09
1.10625e-07
3.37802e-09
1.10575e-07
3.25444e-09
1.10521e-07
3.14666e-09
1.10472e-07
3.06761e-09
1.10423e-07
2.99978e-09
1.1038e-07
2.9466e-09
1.10338e-07
2.89506e-09
1.10302e-07
2.86302e-09
1.10268e-07
2.81399e-09
1.10237e-07
2.79959e-09
1.10205e-07
2.7496e-09
1.10177e-07
2.74037e-09
1.10145e-07
2.69441e-09
1.10117e-07
2.67923e-09
1.10082e-07
2.64722e-09
1.10052e-07
2.62245e-09
1.10014e-07
2.59566e-09
1.0998e-07
2.57407e-09
1.09939e-07
2.54108e-09
1.09901e-07
2.53766e-09
1.09855e-07
2.49891e-09
1.09812e-07
2.50087e-09
1.0976e-07
2.47184e-09
1.09711e-07
2.46889e-09
1.0965e-07
2.45551e-09
1.09592e-07
2.45581e-09
1.09522e-07
2.44526e-09
1.09453e-07
2.45834e-09
1.09373e-07
2.45115e-09
1.09292e-07
2.47471e-09
2.48133e-09
1.172e-07
2.41648e-09
-1.17177e-07
1.17267e-07
2.73914e-09
1.17382e-07
3.06956e-09
1.17548e-07
3.39307e-09
1.1775e-07
3.71173e-09
1.17956e-07
3.97333e-09
1.18154e-07
4.1805e-09
1.18342e-07
4.31886e-09
1.18531e-07
4.42728e-09
1.1872e-07
4.49529e-09
1.18909e-07
4.54331e-09
1.19085e-07
4.54251e-09
1.19238e-07
4.50259e-09
1.19358e-07
4.40684e-09
1.19441e-07
4.28299e-09
1.19485e-07
4.11076e-09
1.19496e-07
3.93988e-09
1.1948e-07
3.74512e-09
1.1945e-07
3.57853e-09
1.19407e-07
3.42107e-09
1.19363e-07
3.29805e-09
1.19317e-07
3.19295e-09
1.19274e-07
3.10989e-09
1.19233e-07
3.04098e-09
1.19196e-07
2.98383e-09
1.19161e-07
2.93011e-09
1.19131e-07
2.89257e-09
1.19103e-07
2.84204e-09
1.19081e-07
2.822e-09
1.19058e-07
2.77262e-09
1.1904e-07
2.75864e-09
1.19019e-07
2.71468e-09
1.19004e-07
2.69511e-09
1.18985e-07
2.66611e-09
1.18969e-07
2.63776e-09
1.18951e-07
2.61406e-09
1.18935e-07
2.59001e-09
1.18917e-07
2.55937e-09
1.18901e-07
2.55314e-09
1.18882e-07
2.5185e-09
1.18866e-07
2.51654e-09
1.18845e-07
2.49284e-09
1.18827e-07
2.48685e-09
1.18804e-07
2.47836e-09
1.18782e-07
2.47769e-09
1.18755e-07
2.47233e-09
1.18729e-07
2.48483e-09
1.18697e-07
2.48281e-09
1.18665e-07
2.50666e-09
2.51733e-09
1.26787e-07
2.38808e-09
-1.26759e-07
1.26848e-07
2.67807e-09
1.26947e-07
2.97037e-09
1.27087e-07
3.25332e-09
1.27266e-07
3.53255e-09
1.27461e-07
3.77896e-09
1.27654e-07
3.98665e-09
1.27838e-07
4.13484e-09
1.28015e-07
4.25031e-09
1.28187e-07
4.32344e-09
1.28359e-07
4.37183e-09
1.2852e-07
4.38136e-09
1.28663e-07
4.35952e-09
1.28779e-07
4.29062e-09
1.28864e-07
4.19854e-09
1.28914e-07
4.06052e-09
1.28934e-07
3.91975e-09
1.28927e-07
3.75208e-09
1.28904e-07
3.60179e-09
1.28868e-07
3.45697e-09
1.28829e-07
3.33664e-09
1.28788e-07
3.23385e-09
1.2875e-07
3.14846e-09
1.28713e-07
3.07756e-09
1.28679e-07
3.01808e-09
1.28647e-07
2.96202e-09
1.28619e-07
2.92044e-09
1.28593e-07
2.86819e-09
1.28572e-07
2.84311e-09
1.28551e-07
2.79371e-09
1.28534e-07
2.77527e-09
1.28516e-07
2.73236e-09
1.28502e-07
2.70934e-09
1.28488e-07
2.68076e-09
1.28474e-07
2.6509e-09
1.28461e-07
2.62709e-09
1.28449e-07
2.60274e-09
1.28436e-07
2.57254e-09
1.28425e-07
2.56399e-09
1.28412e-07
2.53167e-09
1.28401e-07
2.5267e-09
1.28389e-07
2.50554e-09
1.28377e-07
2.49833e-09
1.28364e-07
2.4912e-09
1.28351e-07
2.49093e-09
1.28336e-07
2.48728e-09
1.28321e-07
2.50028e-09
1.28303e-07
2.5002e-09
1.28286e-07
2.52432e-09
2.53658e-09
1.37139e-07
2.37244e-09
-1.37123e-07
1.37187e-07
2.63007e-09
1.37273e-07
2.88406e-09
1.37395e-07
3.13107e-09
1.3755e-07
3.37783e-09
1.37728e-07
3.60116e-09
1.3791e-07
3.80448e-09
1.38085e-07
3.95973e-09
1.38252e-07
4.08378e-09
1.3841e-07
4.16529e-09
1.38563e-07
4.21824e-09
1.38708e-07
4.2368e-09
1.38838e-07
4.22987e-09
1.38946e-07
4.18189e-09
1.39029e-07
4.11537e-09
1.39083e-07
4.00647e-09
1.39111e-07
3.89243e-09
1.39113e-07
3.75033e-09
1.39096e-07
3.61789e-09
1.39067e-07
3.48593e-09
1.39034e-07
3.37003e-09
1.38999e-07
3.26944e-09
1.38964e-07
3.18339e-09
1.38931e-07
3.11e-09
1.389e-07
3.04938e-09
1.38871e-07
2.99054e-09
1.38845e-07
2.9465e-09
1.38821e-07
2.89254e-09
1.38801e-07
2.86309e-09
1.38781e-07
2.814e-09
1.38765e-07
2.79093e-09
1.38748e-07
2.74898e-09
1.38734e-07
2.72338e-09
1.38722e-07
2.69329e-09
1.38709e-07
2.66413e-09
1.38698e-07
2.63786e-09
1.38686e-07
2.61471e-09
1.38674e-07
2.58434e-09
1.38664e-07
2.57369e-09
1.38653e-07
2.54328e-09
1.38644e-07
2.53583e-09
1.38633e-07
2.51616e-09
1.38622e-07
2.50879e-09
1.38612e-07
2.50154e-09
1.38601e-07
2.50253e-09
1.38589e-07
2.49919e-09
1.38576e-07
2.51298e-09
1.38562e-07
2.51384e-09
1.38548e-07
2.53832e-09
2.55133e-09
1.70113e-07
2.32889e-09
-1.7007e-07
1.70183e-07
2.56067e-09
1.70281e-07
2.78565e-09
1.7041e-07
3.00266e-09
1.70565e-07
3.22193e-09
1.70742e-07
3.425e-09
1.7093e-07
3.61647e-09
1.7111e-07
3.77897e-09
1.71282e-07
3.9122e-09
1.71443e-07
4.00393e-09
1.71596e-07
4.06577e-09
1.71739e-07
4.09399e-09
1.71868e-07
4.1009e-09
1.71978e-07
4.07102e-09
1.72067e-07
4.02656e-09
1.7213e-07
3.94424e-09
1.72166e-07
3.8559e-09
1.72177e-07
3.73987e-09
1.72167e-07
3.62751e-09
1.72142e-07
3.51071e-09
1.7211e-07
3.40184e-09
1.72077e-07
3.30278e-09
1.72043e-07
3.21739e-09
1.72012e-07
3.14094e-09
1.71981e-07
3.07999e-09
1.71954e-07
3.01773e-09
1.71928e-07
2.97233e-09
1.71903e-07
2.91743e-09
1.71883e-07
2.88335e-09
1.71861e-07
2.83596e-09
1.71845e-07
2.80715e-09
1.71827e-07
2.76656e-09
1.71812e-07
2.73888e-09
1.718e-07
2.70531e-09
1.71785e-07
2.67905e-09
1.71775e-07
2.64814e-09
1.71762e-07
2.62727e-09
1.7175e-07
2.59671e-09
1.7174e-07
2.58325e-09
1.71728e-07
2.55572e-09
1.71718e-07
2.5453e-09
1.71708e-07
2.52704e-09
1.71696e-07
2.52017e-09
1.71686e-07
2.51189e-09
1.71673e-07
2.51488e-09
1.71661e-07
2.51129e-09
1.71649e-07
2.52575e-09
1.71635e-07
2.52757e-09
1.71621e-07
2.5523e-09
2.56586e-09
2.14572e-07
2.27335e-09
-2.14516e-07
2.14659e-07
2.47349e-09
2.14774e-07
2.67019e-09
2.14913e-07
2.86404e-09
2.1507e-07
3.065e-09
2.15238e-07
3.25684e-09
2.15413e-07
3.44167e-09
2.15584e-07
3.60736e-09
2.15749e-07
3.74737e-09
2.15904e-07
3.84901e-09
2.16048e-07
3.92208e-09
2.16181e-07
3.96092e-09
2.16302e-07
3.98027e-09
2.16407e-07
3.96525e-09
2.16495e-07
3.93855e-09
2.16561e-07
3.87818e-09
2.16605e-07
3.81204e-09
2.16625e-07
3.72033e-09
2.16624e-07
3.62811e-09
2.16608e-07
3.52694e-09
2.16581e-07
3.42913e-09
2.1655e-07
3.33324e-09
2.16519e-07
3.24845e-09
2.16492e-07
3.16782e-09
2.16465e-07
3.10725e-09
2.16442e-07
3.04108e-09
2.16419e-07
2.9948e-09
2.16396e-07
2.94079e-09
2.16378e-07
2.90137e-09
2.16356e-07
2.85795e-09
2.1634e-07
2.82263e-09
2.16323e-07
2.7836e-09
2.16307e-07
2.75495e-09
2.16297e-07
2.7157e-09
2.16281e-07
2.6945e-09
2.16272e-07
2.65735e-09
2.1626e-07
2.63905e-09
2.16248e-07
2.609e-09
2.1624e-07
2.59144e-09
2.16227e-07
2.56836e-09
2.16218e-07
2.55443e-09
2.16208e-07
2.53742e-09
2.16196e-07
2.53188e-09
2.16187e-07
2.52143e-09
2.16174e-07
2.52718e-09
2.16162e-07
2.52315e-09
2.1615e-07
2.53772e-09
2.16137e-07
2.54116e-09
2.16124e-07
2.56507e-09
2.57991e-09
2.70672e-07
2.19719e-09
-2.70596e-07
2.70779e-07
2.36653e-09
2.70906e-07
2.54321e-09
2.71043e-07
2.72658e-09
2.71184e-07
2.92407e-09
2.71322e-07
3.11925e-09
2.71453e-07
3.31065e-09
2.71585e-07
3.47535e-09
2.71717e-07
3.61485e-09
2.71843e-07
3.72324e-09
2.7196e-07
3.80543e-09
2.72067e-07
3.85361e-09
2.72164e-07
3.88284e-09
2.72251e-07
3.87868e-09
2.72325e-07
3.86442e-09
2.72384e-07
3.81931e-09
2.72427e-07
3.76877e-09
2.72452e-07
3.69585e-09
2.7246e-07
3.61937e-09
2.72456e-07
3.53166e-09
2.7244e-07
3.44501e-09
2.72419e-07
3.35434e-09
2.72393e-07
3.27432e-09
2.72373e-07
3.18709e-09
2.72355e-07
3.12612e-09
2.72339e-07
3.05645e-09
2.72325e-07
3.00927e-09
2.72307e-07
2.9581e-09
2.72296e-07
2.91324e-09
2.72278e-07
2.87538e-09
2.72267e-07
2.83397e-09
2.72254e-07
2.79638e-09
2.72241e-07
2.7682e-09
2.72234e-07
2.72243e-09
2.72222e-07
2.70705e-09
2.72215e-07
2.66365e-09
2.72207e-07
2.64715e-09
2.72197e-07
2.61888e-09
2.72193e-07
2.59617e-09
2.72182e-07
2.57868e-09
2.72175e-07
2.56138e-09
2.72168e-07
2.5449e-09
2.72158e-07
2.54145e-09
2.72151e-07
2.52832e-09
2.72142e-07
2.53654e-09
2.72132e-07
2.53269e-09
2.72124e-07
2.54627e-09
2.72113e-07
2.55156e-09
2.72103e-07
2.57596e-09
2.58938e-09
3.41608e-07
-3.41542e-07
3.41691e-07
3.41776e-07
3.41855e-07
3.41921e-07
3.41971e-07
3.42025e-07
3.42081e-07
3.42139e-07
3.42196e-07
3.4225e-07
3.42299e-07
3.42345e-07
3.42386e-07
3.42421e-07
3.4245e-07
3.42473e-07
3.42489e-07
3.42498e-07
3.42501e-07
3.42498e-07
3.42493e-07
3.42484e-07
3.42476e-07
3.4247e-07
3.42466e-07
3.42462e-07
3.42457e-07
3.42454e-07
3.42449e-07
3.42446e-07
3.42442e-07
3.42438e-07
3.42437e-07
3.42433e-07
3.42432e-07
3.42431e-07
3.42428e-07
3.42428e-07
3.42425e-07
3.42424e-07
3.42423e-07
3.4242e-07
3.42419e-07
3.42416e-07
3.42414e-07
3.42412e-07
3.42409e-07
3.42405e-07
6.90538e-08
-1.48664e-10
6.90468e-08
4.78561e-12
6.89765e-08
1.36396e-10
6.89136e-08
1.15346e-10
6.88283e-08
2.29826e-10
6.8743e-08
1.63078e-10
6.86295e-08
3.08058e-10
6.84976e-08
2.46025e-10
6.82649e-08
4.97099e-10
6.79342e-08
5.5407e-10
6.72719e-08
1.16343e-09
1.77566e-09
7.44566e-08
-7.04292e-11
7.44916e-08
-3.01909e-11
7.4412e-08
2.15934e-10
7.43789e-08
1.48448e-10
7.42655e-08
3.43293e-10
7.41858e-08
2.42756e-10
7.40268e-08
4.67008e-10
7.38651e-08
4.07745e-10
7.36022e-08
7.59974e-10
7.32342e-08
9.22085e-10
7.2811e-08
1.58662e-09
2.05906e-09
8.04277e-08
3.95827e-12
8.04146e-08
-1.70926e-11
8.03807e-08
2.4977e-10
8.03009e-08
2.28283e-10
8.02325e-08
4.11675e-10
8.00824e-08
3.92895e-10
7.99727e-08
5.76688e-10
7.97119e-08
6.6857e-10
7.95111e-08
9.60795e-10
7.91491e-08
1.284e-09
7.89711e-08
1.76471e-09
2.29214e-09
8.69115e-08
3.94929e-11
8.6849e-08
4.54016e-11
8.68394e-08
2.59419e-10
8.67429e-08
3.24781e-10
8.66767e-08
4.77844e-10
8.65163e-08
5.53319e-10
8.6374e-08
7.18988e-10
8.61403e-08
9.02231e-10
8.59189e-08
1.18218e-09
8.56629e-08
1.53998e-09
8.54914e-08
1.93629e-09
2.43459e-09
9.38881e-08
5.94058e-11
9.38173e-08
1.1623e-10
9.37928e-08
2.8389e-10
9.37064e-08
4.11179e-10
9.36198e-08
5.64468e-10
9.34689e-08
7.04174e-10
9.33005e-08
8.87348e-10
9.30943e-08
1.10843e-09
9.28819e-08
1.39464e-09
9.26867e-08
1.73515e-09
9.25219e-08
2.10111e-09
2.52038e-09
1.01409e-07
7.63955e-11
1.01348e-07
1.77073e-10
1.01297e-07
3.35262e-10
1.01217e-07
4.90764e-10
1.01114e-07
6.68172e-10
1.00972e-07
8.46185e-10
1.00799e-07
1.06044e-09
1.0061e-07
1.29726e-09
1.00418e-07
1.58629e-09
1.00257e-07
1.89646e-09
1.00124e-07
2.23414e-09
2.57799e-09
1.0953e-07
9.31552e-11
1.09477e-07
2.29955e-10
1.09409e-07
4.03213e-10
1.09323e-07
5.76709e-10
1.09211e-07
7.80283e-10
1.09073e-07
9.83687e-10
1.08909e-07
1.22459e-09
1.08737e-07
1.46984e-09
1.0857e-07
1.75324e-09
1.08434e-07
2.03189e-09
1.08335e-07
2.33354e-09
2.61669e-09
1.183e-07
1.10016e-10
1.1825e-07
2.79349e-10
1.18174e-07
4.79785e-10
1.1808e-07
6.70997e-10
1.17964e-07
8.96127e-10
1.17829e-07
1.11795e-09
1.17679e-07
1.37498e-09
1.17525e-07
1.6235e-09
1.17385e-07
1.89394e-09
1.17273e-07
2.14393e-09
1.17199e-07
2.40678e-09
2.63941e-09
1.27772e-07
1.27204e-10
1.27722e-07
3.29412e-10
1.27643e-07
5.58373e-10
1.27544e-07
7.70121e-10
1.27427e-07
1.0131e-09
1.27297e-07
1.24779e-09
1.27161e-07
1.51098e-09
1.27028e-07
1.75672e-09
1.26915e-07
2.00707e-09
1.26826e-07
2.23298e-09
1.2677e-07
2.46293e-09
2.65062e-09
1.38002e-07
1.45212e-10
1.3795e-07
3.81094e-10
1.37871e-07
6.37053e-10
1.37771e-07
8.70299e-10
1.37656e-07
1.12839e-09
1.37533e-07
1.37113e-09
1.37411e-07
1.63285e-09
1.37296e-07
1.87106e-09
1.37211e-07
2.09226e-09
1.37149e-07
2.29472e-09
1.37123e-07
2.48918e-09
2.65082e-09
1.70996e-07
1.6767e-10
1.7093e-07
4.46613e-10
1.70833e-07
7.34142e-10
1.70715e-07
9.88819e-10
1.70584e-07
1.25955e-09
1.7045e-07
1.50475e-09
1.70326e-07
1.75658e-09
1.70221e-07
1.97661e-09
1.70142e-07
2.17111e-09
1.70085e-07
2.3517e-09
1.70058e-07
2.51659e-09
2.6386e-09
2.15441e-07
1.96146e-10
2.15359e-07
5.29054e-10
2.1524e-07
8.52606e-10
2.15104e-07
1.12507e-09
2.14961e-07
1.40297e-09
2.14823e-07
1.64282e-09
2.14701e-07
1.87871e-09
2.1461e-07
2.06664e-09
2.14535e-07
2.24699e-09
2.14491e-07
2.39516e-09
2.14484e-07
2.52383e-09
2.60637e-09
2.71443e-07
2.27939e-10
2.71356e-07
6.16051e-10
2.7123e-07
9.78847e-10
2.71088e-07
1.26689e-09
2.70942e-07
1.54857e-09
2.70817e-07
1.76782e-09
2.7072e-07
1.9761e-09
2.70633e-07
2.15395e-09
2.7057e-07
2.3098e-09
2.7054e-07
2.42512e-09
2.70546e-07
2.51798e-09
2.55662e-09
3.42015e-07
3.41956e-07
3.41869e-07
3.41773e-07
3.41677e-07
3.4161e-07
3.41553e-07
3.41509e-07
3.41481e-07
3.41474e-07
3.41491e-07
)
;

boundaryField
{
    top
    {
        type            calculated;
        value           nonuniform List<scalar> 
62
(
2.13074e-09
2.28393e-09
2.4578e-09
2.64748e-09
2.85784e-09
3.0696e-09
3.25673e-09
3.41885e-09
3.55711e-09
3.6667e-09
3.75167e-09
3.8038e-09
3.83735e-09
3.83798e-09
3.82899e-09
3.79011e-09
3.74554e-09
3.68045e-09
3.61047e-09
3.52875e-09
3.44755e-09
3.35976e-09
3.28316e-09
3.19482e-09
3.13256e-09
3.06027e-09
3.01268e-09
2.96354e-09
2.91582e-09
2.88121e-09
2.83686e-09
2.79998e-09
2.77244e-09
2.72323e-09
2.71083e-09
2.66451e-09
2.64854e-09
2.62161e-09
2.59605e-09
2.58163e-09
2.56275e-09
2.54636e-09
2.54412e-09
2.52973e-09
2.53883e-09
2.53529e-09
2.54812e-09
2.55474e-09
2.57962e-09
2.59074e-09
2.49762e-10
6.75217e-10
1.06546e-09
1.36351e-09
1.64433e-09
1.83512e-09
2.03324e-09
2.19734e-09
2.3376e-09
2.4326e-09
2.50083e-09
2.50598e-09
)
;
    }
    inlet
    {
        type            calculated;
        value           nonuniform List<scalar> 
14
(
-1.71018e-07
-2.1547e-07
-2.71475e-07
-3.42037e-07
-6.90099e-08
-7.45348e-08
-8.05021e-08
-8.6947e-08
-9.3908e-08
-1.01426e-07
-1.09546e-07
-1.18317e-07
-1.27789e-07
-1.3802e-07
)
;
    }
    outlet
    {
        type            calculated;
        value           nonuniform List<scalar> 
14
(
1.71606e-07
2.1611e-07
2.72093e-07
3.42404e-07
7.70295e-09
2.58545e-08
4.71494e-08
6.84628e-08
8.59438e-08
9.89293e-08
1.092e-07
1.18629e-07
1.28266e-07
1.38534e-07
)
;
    }
    plate
    {
        type            calculated;
        value           uniform 0;
    }
    symmBound
    {
        type            calculated;
        value           nonuniform List<scalar> 
12
(
1.04768e-10
2.22095e-12
-6.61074e-11
-5.24354e-11
-1.44508e-10
-7.78176e-11
-1.94502e-10
-1.1421e-10
-2.64301e-10
-2.23408e-10
-5.01148e-10
-6.94015e-10
)
;
    }
    frontAndBack
    {
        type            empty;
        value           nonuniform 0();
    }
}


// ************************************************************************* //
