/*--------------------------------*- C++ -*----------------------------------*\
| =========                 |                                                 |
| \\      /  F ield         | OpenFOAM: The Open Source CFD Toolbox           |
|  \\    /   O peration     | Version:  2.3.0                                 |
|   \\  /    A nd           | Web:      www.OpenFOAM.org                      |
|    \\/     M anipulation  |                                                 |
\*---------------------------------------------------------------------------*/
FoamFile
{
    version     2.0;
    format      ascii;
    class       volVectorField;
    location    "0.45";
    object      U;
}
// * * * * * * * * * * * * * * * * * * * * * * * * * * * * * * * * * * * * * //

dimensions      [0 1 -1 0 0 0 0];

internalField   nonuniform List<vector> 
2945
(
(0.160871 0.00623882 0)
(0.121937 0.00658492 0)
(0.0902826 0.00468553 0)
(0.0671171 0.00259343 0)
(0.0524624 0.00111122 0)
(0.0437401 0.000363245 0)
(0.0384638 9.75007e-05 0)
(0.0351038 4.27154e-05 0)
(0.0327353 5.56014e-05 0)
(0.0308557 7.54627e-05 0)
(0.0292419 8.4171e-05 0)
(0.0278148 8.23046e-05 0)
(0.026547 7.52079e-05 0)
(0.0254204 6.7088e-05 0)
(0.0244156 5.9786e-05 0)
(0.0235139 5.36527e-05 0)
(0.0226984 4.85272e-05 0)
(0.0219556 4.41627e-05 0)
(0.021275 4.03801e-05 0)
(0.0206482 3.7047e-05 0)
(0.0200686 3.40816e-05 0)
(0.0195308 3.14246e-05 0)
(0.0190304 2.90463e-05 0)
(0.0185635 2.69041e-05 0)
(0.0181267 2.49716e-05 0)
(0.0177173 2.32172e-05 0)
(0.0173325 2.16402e-05 0)
(0.0169704 2.0211e-05 0)
(0.0166288 1.89037e-05 0)
(0.0163063 1.77036e-05 0)
(0.0160012 1.65968e-05 0)
(0.0157125 1.55619e-05 0)
(0.015439 1.45942e-05 0)
(0.0151799 1.36989e-05 0)
(0.0149341 1.28602e-05 0)
(0.0147009 1.20976e-05 0)
(0.0144793 1.1391e-05 0)
(0.0142686 1.07573e-05 0)
(0.014068 1.01585e-05 0)
(0.0138772 9.58771e-06 0)
(0.0136959 8.9931e-06 0)
(0.0135241 8.43154e-06 0)
(0.0133612 7.89869e-06 0)
(0.0132069 7.41749e-06 0)
(0.0130605 6.9812e-06 0)
(0.0129215 6.61892e-06 0)
(0.0127895 6.26467e-06 0)
(0.0126646 5.84968e-06 0)
(0.0125474 5.38955e-06 0)
(0.012438 4.93898e-06 0)
(0.0123358 4.59146e-06 0)
(0.01224 4.30657e-06 0)
(0.0121498 4.07611e-06 0)
(0.0120658 3.77726e-06 0)
(0.0119878 3.46388e-06 0)
(0.0119171 3.09629e-06 0)
(0.0118526 2.77078e-06 0)
(0.0117953 2.46084e-06 0)
(0.0117433 2.20132e-06 0)
(0.0116982 1.94763e-06 0)
(0.0116575 1.71053e-06 0)
(0.011624 1.44007e-06 0)
(0.0115947 1.19437e-06 0)
(0.0115731 8.79831e-07 0)
(0.0115549 6.47507e-07 0)
(0.0115448 3.2228e-07 0)
(0.0115365 1.49644e-07 0)
(0.0115358 -7.52546e-08 0)
(0.011534 -1.44436e-07 0)
(0.0115389 -3.15735e-07 0)
(0.0115389 -2.07693e-07 0)
(0.0115448 -2.91782e-07 0)
(0.0115424 -4.59121e-08 0)
(0.0115459 -1.14878e-07 0)
(0.0115387 2.29232e-07 0)
(0.190308 0.0112375 0)
(0.182794 0.013716 0)
(0.171689 0.0121769 0)
(0.157848 0.00926934 0)
(0.14343 0.0063184 0)
(0.12997 0.00403997 0)
(0.118247 0.00257084 0)
(0.108577 0.00172499 0)
(0.100796 0.00126285 0)
(0.0944948 0.00100497 0)
(0.089262 0.00084548 0)
(0.0847973 0.000731218 0)
(0.0809091 0.000639738 0)
(0.0774764 0.000563374 0)
(0.0744155 0.000499431 0)
(0.0716641 0.000446031 0)
(0.0691728 0.000401281 0)
(0.0669028 0.000363356 0)
(0.0648224 0.000330802 0)
(0.0629069 0.000302491 0)
(0.0611357 0.000277624 0)
(0.0594921 0.000255604 0)
(0.0579619 0.000236023 0)
(0.0565333 0.0002185 0)
(0.055196 0.000202757 0)
(0.0539416 0.000188534 0)
(0.052762 0.000175695 0)
(0.0516512 0.000164033 0)
(0.0506028 0.000153379 0)
(0.0496124 0.000143605 0)
(0.0486751 0.000134606 0)
(0.0477877 0.00012626 0)
(0.0469463 0.000118508 0)
(0.0461484 0.000111327 0)
(0.0453906 0.000104631 0)
(0.044671 9.8447e-05 0)
(0.0439866 9.26782e-05 0)
(0.0433359 8.73523e-05 0)
(0.0427165 8.23195e-05 0)
(0.0421276 7.75437e-05 0)
(0.0415679 7.28542e-05 0)
(0.0410365 6.84326e-05 0)
(0.040532 6.42383e-05 0)
(0.0400532 6.03336e-05 0)
(0.039599 5.66659e-05 0)
(0.0391681 5.33155e-05 0)
(0.03876 5.00504e-05 0)
(0.0383746 4.66815e-05 0)
(0.0380122 4.32627e-05 0)
(0.0376725 3.99797e-05 0)
(0.0373539 3.70895e-05 0)
(0.0370558 3.44441e-05 0)
(0.0367764 3.19874e-05 0)
(0.0365177 2.93463e-05 0)
(0.0362782 2.6699e-05 0)
(0.0360607 2.39423e-05 0)
(0.0358618 2.13783e-05 0)
(0.0356849 1.89265e-05 0)
(0.0355242 1.66771e-05 0)
(0.0353854 1.45046e-05 0)
(0.0352608 1.24196e-05 0)
(0.0351588 1.03108e-05 0)
(0.0350691 8.33274e-06 0)
(0.0350031 6.26339e-06 0)
(0.0349457 4.55121e-06 0)
(0.0349124 2.71939e-06 0)
(0.0348816 1.50884e-06 0)
(0.0348735 2.50671e-07 0)
(0.0348592 -2.31115e-07 0)
(0.0348655 -8.91718e-07 0)
(0.0348554 -5.38625e-07 0)
(0.0348652 -7.06831e-07 0)
(0.0348494 2.75126e-07 0)
(0.0348557 2.59612e-07 0)
(0.0348295 1.52408e-06 0)
(0.191283 0.0103297 0)
(0.192726 0.0140653 0)
(0.193377 0.0139428 0)
(0.191036 0.0119298 0)
(0.18578 0.00949261 0)
(0.178686 0.00739793 0)
(0.170828 0.0058226 0)
(0.163007 0.00467522 0)
(0.155627 0.00382546 0)
(0.148815 0.00318366 0)
(0.142562 0.00269329 0)
(0.136822 0.00231276 0)
(0.131554 0.00201085 0)
(0.12672 0.00176602 0)
(0.122282 0.00156437 0)
(0.118202 0.00139656 0)
(0.114443 0.00125568 0)
(0.110969 0.00113616 0)
(0.107748 0.00103366 0)
(0.104755 0.000944771 0)
(0.101964 0.000866975 0)
(0.0993567 0.000798327 0)
(0.0969138 0.000737405 0)
(0.0946205 0.000682976 0)
(0.0924629 0.000634112 0)
(0.0904298 0.000590002 0)
(0.0885101 0.000550118 0)
(0.0866955 0.000513858 0)
(0.0849773 0.000480731 0)
(0.0833491 0.000450343 0)
(0.0818037 0.000422368 0)
(0.0803365 0.000396471 0)
(0.0789414 0.000372449 0)
(0.077615 0.000350169 0)
(0.0763521 0.000329413 0)
(0.07515 0.000310142 0)
(0.0740046 0.000292129 0)
(0.0729133 0.000275367 0)
(0.0718729 0.000259531 0)
(0.0708817 0.000244514 0)
(0.0699376 0.000230004 0)
(0.0690392 0.000216314 0)
(0.0681844 0.000203319 0)
(0.0673715 0.000191104 0)
(0.0665991 0.000179524 0)
(0.0658653 0.000168695 0)
(0.0651693 0.000158162 0)
(0.0645108 0.000147637 0)
(0.0638895 0.000137215 0)
(0.0633053 0.00012725 0)
(0.0627556 0.00011811 0)
(0.0622408 0.000109519 0)
(0.0617575 0.000101299 0)
(0.0613095 9.28506e-05 0)
(0.0608926 8.44589e-05 0)
(0.0605131 7.6029e-05 0)
(0.060163 6.80303e-05 0)
(0.0598507 6.03919e-05 0)
(0.0595643 5.31709e-05 0)
(0.0593162 4.62535e-05 0)
(0.0590904 3.9538e-05 0)
(0.0589044 3.30053e-05 0)
(0.0587364 2.67789e-05 0)
(0.05861 2.07155e-05 0)
(0.0584945 1.54264e-05 0)
(0.0584215 1.03644e-05 0)
(0.0583485 6.61519e-06 0)
(0.0583172 3.2201e-06 0)
(0.058271 1.53334e-06 0)
(0.058265 1.10028e-08 0)
(0.0582275 4.14588e-07 0)
(0.0582315 2.41275e-07 0)
(0.0581882 2.0923e-06 0)
(0.0581926 2.38018e-06 0)
(0.0581369 4.80078e-06 0)
(0.191884 0.00900331 0)
(0.193601 0.0125659 0)
(0.196735 0.0132299 0)
(0.19888 0.0120124 0)
(0.198899 0.0102247 0)
(0.196979 0.00860751 0)
(0.193784 0.00735147 0)
(0.189934 0.00638066 0)
(0.185796 0.00559503 0)
(0.181536 0.00494005 0)
(0.177223 0.00439002 0)
(0.172898 0.00392533 0)
(0.168607 0.00352786 0)
(0.164391 0.00318336 0)
(0.160287 0.00288246 0)
(0.156318 0.00261899 0)
(0.152497 0.00238811 0)
(0.148832 0.00218519 0)
(0.145323 0.0020061 0)
(0.141971 0.00184719 0)
(0.13877 0.00170555 0)
(0.135718 0.00157879 0)
(0.132808 0.00146499 0)
(0.130035 0.00136239 0)
(0.127389 0.00126954 0)
(0.124867 0.00118512 0)
(0.122458 0.00110824 0)
(0.12016 0.00103792 0)
(0.117964 0.000973352 0)
(0.115867 0.000913891 0)
(0.113862 0.000858968 0)
(0.111946 0.000808007 0)
(0.110112 0.000760608 0)
(0.108359 0.000716498 0)
(0.106681 0.000675291 0)
(0.105075 0.000636849 0)
(0.103537 0.000600798 0)
(0.102066 0.000567112 0)
(0.100658 0.000535258 0)
(0.0993104 0.000505016 0)
(0.0980221 0.000475911 0)
(0.0967908 0.000448376 0)
(0.0956146 0.000422172 0)
(0.094492 0.000397401 0)
(0.0934214 0.000373829 0)
(0.0924011 0.000351614 0)
(0.0914298 0.000330027 0)
(0.0905074 0.000308684 0)
(0.0896329 0.000287663 0)
(0.0888073 0.000267544 0)
(0.0880266 0.000248757 0)
(0.0872932 0.000230969 0)
(0.0866011 0.000213766 0)
(0.0859575 0.000196412 0)
(0.0853535 0.000179166 0)
(0.0848013 0.000162091 0)
(0.0842859 0.000145671 0)
(0.083824 0.000130039 0)
(0.0833941 0.000115018 0)
(0.0830195 0.000100744 0)
(0.0826713 8.67548e-05 0)
(0.0823815 7.34164e-05 0)
(0.082111 6.05304e-05 0)
(0.0819024 4.83963e-05 0)
(0.0817023 3.74341e-05 0)
(0.0815671 2.74704e-05 0)
(0.0814244 1.95136e-05 0)
(0.0813485 1.28651e-05 0)
(0.081244 8.77515e-06 0)
(0.0812082 5.75701e-06 0)
(0.0811198 5.45268e-06 0)
(0.081106 5.04483e-06 0)
(0.0810152 7.26345e-06 0)
(0.0810117 7.80671e-06 0)
(0.0809091 1.10867e-05 0)
(0.192851 0.00822127 0)
(0.194059 0.0112147 0)
(0.196852 0.0122122 0)
(0.199717 0.0114752 0)
(0.201409 0.0100834 0)
(0.201707 0.0087682 0)
(0.200973 0.00775095 0)
(0.199647 0.00697321 0)
(0.197995 0.00633823 0)
(0.196117 0.00579396 0)
(0.194034 0.00532138 0)
(0.191755 0.00490866 0)
(0.189303 0.00454284 0)
(0.186714 0.00421272 0)
(0.184023 0.00391155 0)
(0.181263 0.00363609 0)
(0.178463 0.00338456 0)
(0.175644 0.00315484 0)
(0.172824 0.00294466 0)
(0.170017 0.00275164 0)
(0.167239 0.00257394 0)
(0.1645 0.00241009 0)
(0.16181 0.00225912 0)
(0.159178 0.00211995 0)
(0.156608 0.00199158 0)
(0.154103 0.00187288 0)
(0.151664 0.00176302 0)
(0.149293 0.00166099 0)
(0.146991 0.00156602 0)
(0.144759 0.0014775 0)
(0.142597 0.00139489 0)
(0.140506 0.00131761 0)
(0.138482 0.00124523 0)
(0.136527 0.00117741 0)
(0.134636 0.00111365 0)
(0.13281 0.00105369 0)
(0.131046 0.000997027 0)
(0.129344 0.000943714 0)
(0.127703 0.0008931 0)
(0.126123 0.000844887 0)
(0.124602 0.000798446 0)
(0.123138 0.000754341 0)
(0.121731 0.000712162 0)
(0.120379 0.000672036 0)
(0.119082 0.000633651 0)
(0.11784 0.000597305 0)
(0.11665 0.000561951 0)
(0.115514 0.000527145 0)
(0.11443 0.000492834 0)
(0.113402 0.000459919 0)
(0.112421 0.000428792 0)
(0.111497 0.000399232 0)
(0.110617 0.000370428 0)
(0.109796 0.000341692 0)
(0.109016 0.000313022 0)
(0.108301 0.000284881 0)
(0.107623 0.000257496 0)
(0.107013 0.000231512 0)
(0.106434 0.0002062 0)
(0.105928 0.000182318 0)
(0.105444 0.000158666 0)
(0.10504 0.000136435 0)
(0.104648 0.000114648 0)
(0.104341 9.45726e-05 0)
(0.104033 7.5877e-05 0)
(0.103816 5.94013e-05 0)
(0.103577 4.5389e-05 0)
(0.103436 3.41761e-05 0)
(0.103246 2.60743e-05 0)
(0.103163 2.05933e-05 0)
(0.102997 1.8237e-05 0)
(0.102953 1.69984e-05 0)
(0.102791 1.85175e-05 0)
(0.102773 1.90353e-05 0)
(0.102601 2.2326e-05 0)
(0.193644 0.00777134 0)
(0.19463 0.0102028 0)
(0.196848 0.0113398 0)
(0.19944 0.0109401 0)
(0.201372 0.00980994 0)
(0.202305 0.00865948 0)
(0.20245 0.00776267 0)
(0.202164 0.00709356 0)
(0.201677 0.0065583 0)
(0.201065 0.00609971 0)
(0.200321 0.00569874 0)
(0.199424 0.00534761 0)
(0.198365 0.00503635 0)
(0.197153 0.00475406 0)
(0.195802 0.00449303 0)
(0.194329 0.00424968 0)
(0.19275 0.0040228 0)
(0.191077 0.00381123 0)
(0.189322 0.0036135 0)
(0.187496 0.0034277 0)
(0.185609 0.00325219 0)
(0.183675 0.00308582 0)
(0.181704 0.00292824 0)
(0.179712 0.00277924 0)
(0.177705 0.00263872 0)
(0.175695 0.00250623 0)
(0.173684 0.00238134 0)
(0.17168 0.00226311 0)
(0.169688 0.00215093 0)
(0.167715 0.00204439 0)
(0.165763 0.00194317 0)
(0.163841 0.00184698 0)
(0.16195 0.00175574 0)
(0.160096 0.00166941 0)
(0.158276 0.00158753 0)
(0.156495 0.0015098 0)
(0.15475 0.0014355 0)
(0.153044 0.0013647 0)
(0.151379 0.00129674 0)
(0.149759 0.00123147 0)
(0.148185 0.0011683 0)
(0.146657 0.00110811 0)
(0.145174 0.00105024 0)
(0.143737 0.000994782 0)
(0.142343 0.000941206 0)
(0.140996 0.000890091 0)
(0.139696 0.000840077 0)
(0.138448 0.000790941 0)
(0.137246 0.000742367 0)
(0.136099 0.000695714 0)
(0.134993 0.000651046 0)
(0.133945 0.000608483 0)
(0.132934 0.00056658 0)
(0.131989 0.000525078 0)
(0.131079 0.000483427 0)
(0.130242 0.000442858 0)
(0.129434 0.000402923 0)
(0.128705 0.000365166 0)
(0.127997 0.000327841 0)
(0.127376 0.000292836 0)
(0.126767 0.00025771 0)
(0.126255 0.000225091 0)
(0.125742 0.000192607 0)
(0.125339 0.000163214 0)
(0.124913 0.000135027 0)
(0.12461 0.000110762 0)
(0.124258 8.88967e-05 0)
(0.124044 7.18971e-05 0)
(0.123747 5.79205e-05 0)
(0.123606 4.88816e-05 0)
(0.123342 4.26562e-05 0)
(0.123259 3.97826e-05 0)
(0.123004 3.89841e-05 0)
(0.122967 3.90468e-05 0)
(0.122704 4.09409e-05 0)
(0.194296 0.00746015 0)
(0.195168 0.0094122 0)
(0.196956 0.0105559 0)
(0.199169 0.0104199 0)
(0.200995 0.0095211 0)
(0.202057 0.00849923 0)
(0.20246 0.00767472 0)
(0.202504 0.00706487 0)
(0.202416 0.00658598 0)
(0.202283 0.00617675 0)
(0.202102 0.00581656 0)
(0.201845 0.00550129 0)
(0.201496 0.00522504 0)
(0.20105 0.00497811 0)
(0.200509 0.0047517 0)
(0.199878 0.00454087 0)
(0.199161 0.00434391 0)
(0.198361 0.00415976 0)
(0.19748 0.00398725 0)
(0.196521 0.00382448 0)
(0.195484 0.00366935 0)
(0.194374 0.00352007 0)
(0.193197 0.00337602 0)
(0.191963 0.00323709 0)
(0.190678 0.00310368 0)
(0.189351 0.00297605 0)
(0.187983 0.00285427 0)
(0.186581 0.00273733 0)
(0.185147 0.00262454 0)
(0.183688 0.00251551 0)
(0.182208 0.00240987 0)
(0.180717 0.00230735 0)
(0.179218 0.00220836 0)
(0.17772 0.00211344 0)
(0.176225 0.0020226 0)
(0.174735 0.00193579 0)
(0.17325 0.00185203 0)
(0.171773 0.00177115 0)
(0.170305 0.00169206 0)
(0.168855 0.00161475 0)
(0.167427 0.00153896 0)
(0.166027 0.00146643 0)
(0.164652 0.00139651 0)
(0.163306 0.00132941 0)
(0.161981 0.0012639 0)
(0.160685 0.0012006 0)
(0.159414 0.00113751 0)
(0.158188 0.00107523 0)
(0.156994 0.00101344 0)
(0.155852 0.000954494 0)
(0.154732 0.000897525 0)
(0.153664 0.000843024 0)
(0.152613 0.000788339 0)
(0.151631 0.000734226 0)
(0.150666 0.000679399 0)
(0.149783 0.000626509 0)
(0.148909 0.000573941 0)
(0.148124 0.000524546 0)
(0.147336 0.000474894 0)
(0.146648 0.000428529 0)
(0.145948 0.00038116 0)
(0.145365 0.000337631 0)
(0.144756 0.000293461 0)
(0.144281 0.000254235 0)
(0.143754 0.000215503 0)
(0.143381 0.000182951 0)
(0.142923 0.000151956 0)
(0.142643 0.000128503 0)
(0.142238 0.000106979 0)
(0.142043 9.35324e-05 0)
(0.141672 8.14938e-05 0)
(0.14155 7.62183e-05 0)
(0.141192 7.11772e-05 0)
(0.141136 7.03479e-05 0)
(0.140771 6.90784e-05 0)
(0.194864 0.00719774 0)
(0.195652 0.00877235 0)
(0.197122 0.00983414 0)
(0.198994 0.00988986 0)
(0.200657 0.00920901 0)
(0.201727 0.00831822 0)
(0.202222 0.0075578 0)
(0.202376 0.00699021 0)
(0.202407 0.00654957 0)
(0.202415 0.00617307 0)
(0.202415 0.00583731 0)
(0.202385 0.00554045 0)
(0.202309 0.0052811 0)
(0.202183 0.00505235 0)
(0.202006 0.00484542 0)
(0.201781 0.0046543 0)
(0.201508 0.00447679 0)
(0.201188 0.0043118 0)
(0.200818 0.00415846 0)
(0.200398 0.0040152 0)
(0.199922 0.00387964 0)
(0.19939 0.00374913 0)
(0.198801 0.00362242 0)
(0.198159 0.00349897 0)
(0.197466 0.00337904 0)
(0.196729 0.00326344 0)
(0.195947 0.00315296 0)
(0.195121 0.00304646 0)
(0.19425 0.00294289 0)
(0.19334 0.00284182 0)
(0.192388 0.00274255 0)
(0.191402 0.00264425 0)
(0.190385 0.00254731 0)
(0.189349 0.00245297 0)
(0.188293 0.00236174 0)
(0.187223 0.00227426 0)
(0.186137 0.00218982 0)
(0.185035 0.00210804 0)
(0.183912 0.00202654 0)
(0.182781 0.00194485 0)
(0.181645 0.00186264 0)
(0.180519 0.00178308 0)
(0.179398 0.00170598 0)
(0.178294 0.00163275 0)
(0.177187 0.00156138 0)
(0.176089 0.00149205 0)
(0.174982 0.00142046 0)
(0.173905 0.0013481 0)
(0.172842 0.00127521 0)
(0.17183 0.00120684 0)
(0.170818 0.0011411 0)
(0.16985 0.00107858 0)
(0.168865 0.00101399 0)
(0.167945 0.000949331 0)
(0.167017 0.000882485 0)
(0.166177 0.00081861 0)
(0.165322 0.000754777 0)
(0.164563 0.00069559 0)
(0.16377 0.000635152 0)
(0.163085 0.000578952 0)
(0.162355 0.000520095 0)
(0.161756 0.000466413 0)
(0.161099 0.0004106 0)
(0.160597 0.000362037 0)
(0.16001 0.000312637 0)
(0.159605 0.00027235 0)
(0.159073 0.000231907 0)
(0.158756 0.000202302 0)
(0.158265 0.000172314 0)
(0.158033 0.000154256 0)
(0.15757 0.000134854 0)
(0.157421 0.000126727 0)
(0.156971 0.000115671 0)
(0.156901 0.000113649 0)
(0.156443 0.000107558 0)
(0.195369 0.0069505 0)
(0.196085 0.0082429 0)
(0.197318 0.00918534 0)
(0.198899 0.00936601 0)
(0.200387 0.00888036 0)
(0.201431 0.00812623 0)
(0.201977 0.00743257 0)
(0.202192 0.00690142 0)
(0.202269 0.00649139 0)
(0.202318 0.006142 0)
(0.202367 0.00582616 0)
(0.202404 0.00554184 0)
(0.202415 0.00529119 0)
(0.202397 0.00507091 0)
(0.20235 0.00487336 0)
(0.20228 0.00469199 0)
(0.202188 0.00452428 0)
(0.202073 0.00436909 0)
(0.201935 0.00422576 0)
(0.201774 0.00409343 0)
(0.201583 0.00396995 0)
(0.20136 0.00385199 0)
(0.201104 0.00373782 0)
(0.200815 0.00362653 0)
(0.20049 0.00351774 0)
(0.200136 0.00341243 0)
(0.199751 0.0033125 0)
(0.199333 0.00321689 0)
(0.198878 0.0031239 0)
(0.198391 0.00303322 0)
(0.197864 0.00294406 0)
(0.197302 0.00285452 0)
(0.196705 0.00276433 0)
(0.196084 0.00267529 0)
(0.195436 0.00258824 0)
(0.194771 0.00250445 0)
(0.194082 0.0024241 0)
(0.193373 0.00234762 0)
(0.192628 0.00227083 0)
(0.191859 0.00219186 0)
(0.191064 0.00210936 0)
(0.190267 0.00202785 0)
(0.189459 0.00194739 0)
(0.188665 0.00187193 0)
(0.187855 0.00179997 0)
(0.187045 0.00173202 0)
(0.186191 0.00165912 0)
(0.185348 0.00158176 0)
(0.184492 0.00150002 0)
(0.183695 0.00142439 0)
(0.182881 0.00135344 0)
(0.18211 0.00128842 0)
(0.181285 0.00121933 0)
(0.180514 0.00114837 0)
(0.179701 0.00107202 0)
(0.178984 0.000999089 0)
(0.178226 0.000925949 0)
(0.177572 0.0008597 0)
(0.176853 0.000791491 0)
(0.176244 0.000728699 0)
(0.175554 0.000660853 0)
(0.175001 0.000599253 0)
(0.174356 0.000532985 0)
(0.173882 0.000476465 0)
(0.173288 0.000417094 0)
(0.172898 0.000370461 0)
(0.172344 0.000321307 0)
(0.172029 0.000286876 0)
(0.171498 0.000248685 0)
(0.171258 0.000226707 0)
(0.170742 0.000199307 0)
(0.170584 0.000188372 0)
(0.170075 0.000170191 0)
(0.170001 0.000166846 0)
(0.169482 0.000154948 0)
(0.195821 0.0067103 0)
(0.196471 0.00779531 0)
(0.197523 0.0086162 0)
(0.198863 0.00886796 0)
(0.200182 0.00854606 0)
(0.201176 0.00792787 0)
(0.201755 0.00730564 0)
(0.202018 0.00680913 0)
(0.202128 0.00642498 0)
(0.202197 0.00609986 0)
(0.202262 0.00580351 0)
(0.202319 0.00553151 0)
(0.202356 0.00528768 0)
(0.202372 0.00507233 0)
(0.202367 0.00487981 0)
(0.202347 0.00470345 0)
(0.202316 0.00454061 0)
(0.202274 0.0043901 0)
(0.20222 0.00425103 0)
(0.202159 0.00412333 0)
(0.202084 0.0040056 0)
(0.201995 0.00389396 0)
(0.20189 0.00378642 0)
(0.20177 0.00368223 0)
(0.201629 0.00358008 0)
(0.201474 0.00348055 0)
(0.201303 0.00338694 0)
(0.201116 0.00329871 0)
(0.200904 0.00321318 0)
(0.200675 0.00313029 0)
(0.200419 0.00304979 0)
(0.200137 0.00296865 0)
(0.199826 0.0028852 0)
(0.199499 0.00280194 0)
(0.199149 0.00271981 0)
(0.198785 0.00264017 0)
(0.198402 0.00256408 0)
(0.198009 0.00249433 0)
(0.197577 0.00242529 0)
(0.197121 0.00235315 0)
(0.196628 0.00227432 0)
(0.196131 0.00219462 0)
(0.195609 0.0021131 0)
(0.195105 0.00203657 0)
(0.194583 0.00196546 0)
(0.19407 0.00190364 0)
(0.19349 0.0018366 0)
(0.192906 0.00176088 0)
(0.192277 0.00167312 0)
(0.191716 0.00159074 0)
(0.191129 0.00151573 0)
(0.190597 0.00145244 0)
(0.189981 0.00138497 0)
(0.18941 0.00131354 0)
(0.188763 0.00123159 0)
(0.188211 0.0011518 0)
(0.187598 0.00107106 0)
(0.187097 0.00100003 0)
(0.18651 0.000927232 0)
(0.186032 0.000861815 0)
(0.185443 0.000788737 0)
(0.184987 0.000722739 0)
(0.184409 0.000648359 0)
(0.184007 0.00058594 0)
(0.183459 0.000517868 0)
(0.183126 0.000466524 0)
(0.182602 0.000410075 0)
(0.182329 0.000372698 0)
(0.181811 0.000327698 0)
(0.181596 0.000303299 0)
(0.181077 0.000268463 0)
(0.180931 0.000255282 0)
(0.18041 0.00022987 0)
(0.180342 0.00022515 0)
(0.179812 0.000207469 0)
(0.196226 0.00647897 0)
(0.196816 0.00740824 0)
(0.197725 0.00812174 0)
(0.198869 0.00840612 0)
(0.200029 0.00821334 0)
(0.200961 0.00772292 0)
(0.201553 0.00717609 0)
(0.201857 0.00671513 0)
(0.201998 0.00635384 0)
(0.202083 0.00605046 0)
(0.202157 0.00577366 0)
(0.202224 0.00551542 0)
(0.202273 0.00527915 0)
(0.202303 0.00506824 0)
(0.202313 0.00487956 0)
(0.20231 0.00470664 0)
(0.202297 0.00454702 0)
(0.202278 0.00439949 0)
(0.202251 0.00426244 0)
(0.202222 0.00413639 0)
(0.202187 0.00402109 0)
(0.202146 0.00391208 0)
(0.202098 0.00380719 0)
(0.202046 0.00370649 0)
(0.201981 0.00360779 0)
(0.201911 0.00351054 0)
(0.201835 0.00341944 0)
(0.201755 0.00333508 0)
(0.201659 0.0032534 0)
(0.201559 0.0031745 0)
(0.201445 0.00309942 0)
(0.201316 0.00302434 0)
(0.201166 0.00294546 0)
(0.201012 0.00286622 0)
(0.200838 0.00278783 0)
(0.20066 0.00271113 0)
(0.200466 0.00263704 0)
(0.200278 0.00257216 0)
(0.200057 0.00251029 0)
(0.199822 0.00244577 0)
(0.199546 0.00237176 0)
(0.199274 0.00229576 0)
(0.198966 0.00221457 0)
(0.198682 0.00213673 0)
(0.198378 0.00206456 0)
(0.198107 0.00200903 0)
(0.197761 0.00195194 0)
(0.19741 0.00188415 0)
(0.196981 0.00179416 0)
(0.196625 0.00170494 0)
(0.196238 0.00162449 0)
(0.195928 0.00156384 0)
(0.195519 0.00150229 0)
(0.195153 0.00143589 0)
(0.194681 0.00135305 0)
(0.194298 0.00126887 0)
(0.193842 0.00118187 0)
(0.193502 0.00110716 0)
(0.193067 0.00103186 0)
(0.192739 0.000967052 0)
(0.192284 0.00089254 0)
(0.191953 0.000826112 0)
(0.191478 0.000746784 0)
(0.191172 0.000680949 0)
(0.190706 0.00060588 0)
(0.190452 0.000551219 0)
(0.19 0.000489023 0)
(0.189793 0.000450386 0)
(0.189335 0.000400537 0)
(0.189167 0.000375553 0)
(0.188693 0.000334877 0)
(0.188576 0.000320383 0)
(0.188091 0.000288698 0)
(0.188038 0.000282531 0)
(0.187545 0.000260023 0)
(0.196589 0.00625983 0)
(0.197125 0.00706687 0)
(0.197917 0.00769097 0)
(0.198902 0.00798383 0)
(0.19992 0.00788754 0)
(0.20078 0.00751095 0)
(0.201371 0.00704119 0)
(0.201706 0.00661853 0)
(0.201877 0.00627892 0)
(0.201977 0.00599492 0)
(0.20206 0.0057371 0)
(0.202133 0.005494 0)
(0.20219 0.00526683 0)
(0.20223 0.00506105 0)
(0.202249 0.00487628 0)
(0.202254 0.00470654 0)
(0.202249 0.00454981 0)
(0.202239 0.00440514 0)
(0.20222 0.00426977 0)
(0.2022 0.00414444 0)
(0.202177 0.00403031 0)
(0.202151 0.00392244 0)
(0.202122 0.00381818 0)
(0.202094 0.00371908 0)
(0.202057 0.00362235 0)
(0.202018 0.0035257 0)
(0.201978 0.00343493 0)
(0.201939 0.00335231 0)
(0.201889 0.00327213 0)
(0.201843 0.00319435 0)
(0.20179 0.0031218 0)
(0.201733 0.00305056 0)
(0.201659 0.00297397 0)
(0.20159 0.00289665 0)
(0.201507 0.00282055 0)
(0.201425 0.00274568 0)
(0.201328 0.00267129 0)
(0.201251 0.00260845 0)
(0.201146 0.00255141 0)
(0.201042 0.00249328 0)
(0.200897 0.00242314 0)
(0.200769 0.00235105 0)
(0.200597 0.00227109 0)
(0.200455 0.00219196 0)
(0.200286 0.002116 0)
(0.200174 0.0020636 0)
(0.199993 0.00201634 0)
(0.199817 0.00196028 0)
(0.199542 0.00187214 0)
(0.199338 0.00177681 0)
(0.199095 0.00168883 0)
(0.19895 0.00162884 0)
(0.198708 0.00157442 0)
(0.198511 0.00151638 0)
(0.198194 0.00143687 0)
(0.197957 0.0013508 0)
(0.197641 0.00125884 0)
(0.197435 0.00118068 0)
(0.197139 0.00110356 0)
(0.196946 0.00104096 0)
(0.196627 0.000967661 0)
(0.196416 0.000904057 0)
(0.196058 0.000823028 0)
(0.195849 0.00075628 0)
(0.195481 0.000676257 0)
(0.195306 0.000619286 0)
(0.194946 0.00055269 0)
(0.194806 0.000513765 0)
(0.194436 0.000460857 0)
(0.194323 0.000436841 0)
(0.193926 0.000392377 0)
(0.193846 0.000377598 0)
(0.193432 0.000341366 0)
(0.193396 0.000333666 0)
(0.192977 0.000307835 0)
(0.196915 0.00605459 0)
(0.197401 0.00676162 0)
(0.198097 0.00731237 0)
(0.19895 0.00760047 0)
(0.199844 0.00757339 0)
(0.20063 0.0072937 0)
(0.201206 0.00689956 0)
(0.201563 0.00651842 0)
(0.20176 0.00620098 0)
(0.201877 0.00593449 0)
(0.201967 0.00569441 0)
(0.202046 0.00546714 0)
(0.20211 0.00525058 0)
(0.202157 0.00505101 0)
(0.202184 0.00487069 0)
(0.202195 0.00470432 0)
(0.202196 0.0045505 0)
(0.202191 0.00440897 0)
(0.202176 0.00427558 0)
(0.20216 0.00415088 0)
(0.202142 0.00403763 0)
(0.202121 0.00393051 0)
(0.202098 0.00382609 0)
(0.202078 0.00372767 0)
(0.202051 0.00363245 0)
(0.202023 0.00353601 0)
(0.201993 0.00344469 0)
(0.201968 0.00336285 0)
(0.201935 0.00328314 0)
(0.201908 0.00320494 0)
(0.201877 0.003133 0)
(0.201849 0.00306412 0)
(0.201806 0.00298833 0)
(0.201774 0.00291143 0)
(0.20173 0.00283649 0)
(0.201692 0.00276308 0)
(0.201637 0.00268717 0)
(0.201609 0.00262415 0)
(0.201558 0.0025694 0)
(0.20152 0.00251579 0)
(0.201443 0.00244781 0)
(0.201394 0.00237877 0)
(0.201299 0.00230051 0)
(0.201237 0.00222101 0)
(0.201137 0.00213983 0)
(0.20111 0.00208668 0)
(0.201023 0.0020461 0)
(0.200962 0.00200215 0)
(0.200793 0.00191903 0)
(0.200688 0.00181949 0)
(0.200536 0.00172321 0)
(0.200489 0.00166092 0)
(0.200358 0.00161229 0)
(0.200277 0.00156302 0)
(0.200081 0.00148947 0)
(0.19995 0.00140362 0)
(0.199742 0.00130822 0)
(0.19963 0.00122667 0)
(0.199443 0.00114757 0)
(0.199347 0.00108724 0)
(0.19914 0.00101618 0)
(0.199027 0.000957172 0)
(0.198775 0.000876982 0)
(0.198648 0.00081136 0)
(0.198375 0.000728546 0)
(0.198264 0.000670021 0)
(0.197994 0.000600121 0)
(0.19791 0.000561145 0)
(0.197631 0.000506308 0)
(0.197566 0.000484112 0)
(0.197259 0.000437679 0)
(0.197214 0.000423434 0)
(0.196886 0.000384629 0)
(0.196866 0.000375348 0)
(0.196536 0.000347805 0)
(0.197209 0.00586324 0)
(0.19765 0.0064863 0)
(0.198264 0.00697635 0)
(0.199008 0.00725339 0)
(0.199794 0.0072746 0)
(0.200507 0.00707454 0)
(0.201059 0.00675154 0)
(0.201427 0.00641434 0)
(0.201645 0.00612062 0)
(0.201779 0.00587052 0)
(0.201877 0.00564659 0)
(0.201962 0.00543506 0)
(0.202031 0.00523025 0)
(0.202085 0.00503806 0)
(0.202118 0.0048629 0)
(0.202136 0.00470024 0)
(0.202141 0.00454943 0)
(0.20214 0.00441123 0)
(0.202129 0.00428025 0)
(0.202117 0.00415641 0)
(0.202101 0.00404402 0)
(0.202084 0.00393772 0)
(0.202062 0.00383297 0)
(0.202046 0.00373479 0)
(0.202024 0.0036409 0)
(0.202 0.00354487 0)
(0.201974 0.00345284 0)
(0.201953 0.00337141 0)
(0.201924 0.00329186 0)
(0.201903 0.00321274 0)
(0.201879 0.0031403 0)
(0.201862 0.00307285 0)
(0.20183 0.00299715 0)
(0.201813 0.00291991 0)
(0.201784 0.00284544 0)
(0.201765 0.00277353 0)
(0.201725 0.00269602 0)
(0.201714 0.00263171 0)
(0.201683 0.00257725 0)
(0.201674 0.00252641 0)
(0.201627 0.00245902 0)
(0.201618 0.00239186 0)
(0.201562 0.00231535 0)
(0.201541 0.00223685 0)
(0.201472 0.00215096 0)
(0.201478 0.00209443 0)
(0.201434 0.00205631 0)
(0.201436 0.00202198 0)
(0.201335 0.00194538 0)
(0.201292 0.00184422 0)
(0.20119 0.00174096 0)
(0.201188 0.00167427 0)
(0.201118 0.00162893 0)
(0.201102 0.00158647 0)
(0.200988 0.00151957 0)
(0.200926 0.00143526 0)
(0.200795 0.00133812 0)
(0.20074 0.00125363 0)
(0.200624 0.00117229 0)
(0.200587 0.00111348 0)
(0.20046 0.00104439 0)
(0.20041 0.000990189 0)
(0.200244 0.00091226 0)
(0.200175 0.000849029 0)
(0.199982 0.000765412 0)
(0.199915 0.000706006 0)
(0.199719 0.000633743 0)
(0.199671 0.000594543 0)
(0.19947 0.000538181 0)
(0.19944 0.000517917 0)
(0.199215 0.000470645 0)
(0.199197 0.000457358 0)
(0.198952 0.000417702 0)
(0.198945 0.000406853 0)
(0.1987 0.000378999 0)
(0.197474 0.00568489 0)
(0.197874 0.00623661 0)
(0.198419 0.00667561 0)
(0.199071 0.00693915 0)
(0.199763 0.0069935 0)
(0.200408 0.00685723 0)
(0.200929 0.00659856 0)
(0.201299 0.00630611 0)
(0.201534 0.00603797 0)
(0.201682 0.00580401 0)
(0.201789 0.00559475 0)
(0.201878 0.00539826 0)
(0.201952 0.00520586 0)
(0.202011 0.0050221 0)
(0.202051 0.00485286 0)
(0.202074 0.00469439 0)
(0.202084 0.00454671 0)
(0.202088 0.00441192 0)
(0.20208 0.00428369 0)
(0.202071 0.00416105 0)
(0.202058 0.00404958 0)
(0.202043 0.00394425 0)
(0.202024 0.00383935 0)
(0.20201 0.00374119 0)
(0.201989 0.00364843 0)
(0.201969 0.00355315 0)
(0.201944 0.00346061 0)
(0.201926 0.0033794 0)
(0.201899 0.00329994 0)
(0.20188 0.00321997 0)
(0.201856 0.00314646 0)
(0.201844 0.00307977 0)
(0.201817 0.00300391 0)
(0.201806 0.0029262 0)
(0.201781 0.00285171 0)
(0.20177 0.0027814 0)
(0.201735 0.00270281 0)
(0.201729 0.00263703 0)
(0.201701 0.00258149 0)
(0.201705 0.00253204 0)
(0.20167 0.00246425 0)
(0.201679 0.00239802 0)
(0.20164 0.0023229 0)
(0.20164 0.00224657 0)
(0.201583 0.00215777 0)
(0.201597 0.00209709 0)
(0.201564 0.00205779 0)
(0.201595 0.00202903 0)
(0.201537 0.00195873 0)
(0.20153 0.00185847 0)
(0.201456 0.0017512 0)
(0.201466 0.00167958 0)
(0.201422 0.00163514 0)
(0.201434 0.0015963 0)
(0.201372 0.00153518 0)
(0.20135 0.00145295 0)
(0.201269 0.00135572 0)
(0.201243 0.00126927 0)
(0.20117 0.00118581 0)
(0.201159 0.00112764 0)
(0.201081 0.00105957 0)
(0.201067 0.00100934 0)
(0.20096 0.000934028 0)
(0.200927 0.000873672 0)
(0.200793 0.000790827 0)
(0.200752 0.000731213 0)
(0.200612 0.00065746 0)
(0.200583 0.000617819 0)
(0.200439 0.000559837 0)
(0.200429 0.000541116 0)
(0.200267 0.000493385 0)
(0.200267 0.000481073 0)
(0.200088 0.000441746 0)
(0.200091 0.000429385 0)
(0.199914 0.000402261 0)
(0.197714 0.00551846 0)
(0.198078 0.0060093 0)
(0.198562 0.00640469 0)
(0.199137 0.00665418 0)
(0.199748 0.00673102 0)
(0.200329 0.00664498 0)
(0.200816 0.0064426 0)
(0.20118 0.00619392 0)
(0.201426 0.00595293 0)
(0.201588 0.00573556 0)
(0.201702 0.00553987 0)
(0.201796 0.00535737 0)
(0.201873 0.00517754 0)
(0.201936 0.00500306 0)
(0.201981 0.00484047 0)
(0.20201 0.00468673 0)
(0.202025 0.00454243 0)
(0.202032 0.004411 0)
(0.202029 0.00428575 0)
(0.202022 0.00416474 0)
(0.202011 0.00405423 0)
(0.202 0.00394999 0)
(0.201983 0.00384528 0)
(0.20197 0.00374716 0)
(0.201952 0.0036552 0)
(0.201935 0.00356093 0)
(0.20191 0.00346823 0)
(0.201893 0.00338712 0)
(0.201868 0.0033077 0)
(0.201851 0.0032272 0)
(0.201826 0.00315241 0)
(0.201816 0.00308587 0)
(0.201792 0.0030098 0)
(0.201783 0.00293186 0)
(0.201759 0.00285704 0)
(0.201753 0.00278819 0)
(0.20172 0.00270919 0)
(0.201714 0.00264233 0)
(0.201686 0.00258487 0)
(0.201693 0.00253569 0)
(0.201665 0.00246707 0)
(0.201679 0.00240125 0)
(0.201648 0.00232695 0)
(0.201658 0.00225336 0)
(0.201608 0.00216375 0)
(0.201619 0.00209959 0)
(0.201586 0.00205676 0)
(0.201626 0.00202937 0)
(0.201593 0.00196399 0)
(0.201607 0.00186653 0)
(0.201549 0.00175883 0)
(0.201557 0.00168308 0)
(0.20152 0.00163785 0)
(0.201539 0.00159934 0)
(0.201507 0.0015423 0)
(0.201505 0.00146208 0)
(0.201457 0.00136617 0)
(0.201443 0.00127903 0)
(0.201393 0.00119395 0)
(0.20139 0.00113586 0)
(0.201338 0.00106777 0)
(0.201339 0.00102024 0)
(0.201269 0.000947195 0)
(0.201256 0.000889631 0)
(0.201162 0.000808628 0)
(0.201135 0.000749462 0)
(0.20103 0.000675031 0)
(0.201009 0.000634894 0)
(0.200902 0.000575012 0)
(0.2009 0.000557262 0)
(0.200781 0.000508911 0)