/*--------------------------------*- C++ -*----------------------------------*\
| =========                 |                                                 |
| \\      /  F ield         | OpenFOAM: The Open Source CFD Toolbox           |
|  \\    /   O peration     | Version:  2.3.0                                 |
|   \\  /    A nd           | Web:      www.OpenFOAM.org                      |
|    \\/     M anipulation  |                                                 |
\*---------------------------------------------------------------------------*/
FoamFile
{
    version     2.0;
    format      ascii;
    class       volVectorField;
    location    "0.7";
    object      U;
}
// * * * * * * * * * * * * * * * * * * * * * * * * * * * * * * * * * * * * * //

dimensions      [0 1 -1 0 0 0 0];

internalField   nonuniform List<vector> 
2700
(
(0.188981 0.00340193 0)
(0.175075 0.00574082 0)
(0.159252 0.00577886 0)
(0.141379 0.0053441 0)
(0.123026 0.00494623 0)
(0.105658 0.00441718 0)
(0.0904141 0.00366477 0)
(0.0777804 0.00271074 0)
(0.067771 0.00172817 0)
(0.060143 0.000921454 0)
(0.0544888 0.000379265 0)
(0.0503668 7.15488e-05 0)
(0.0473704 -7.26331e-05 0)
(0.0451513 -0.000113876 0)
(0.0434413 -9.84613e-05 0)
(0.0420469 -5.86862e-05 0)
(0.040838 -1.47231e-05 0)
(0.0397364 2.24382e-05 0)
(0.0387021 4.88821e-05 0)
(0.0377182 6.50093e-05 0)
(0.0367802 7.30437e-05 0)
(0.0358887 7.55084e-05 0)
(0.035045 7.45269e-05 0)
(0.0342495 7.16564e-05 0)
(0.0335015 6.79219e-05 0)
(0.0327988 6.39357e-05 0)
(0.032139 6.00381e-05 0)
(0.0315185 5.63752e-05 0)
(0.0309342 5.3012e-05 0)
(0.0303828 4.99464e-05 0)
(0.0298614 4.71589e-05 0)
(0.0293672 4.46237e-05 0)
(0.0288977 4.23039e-05 0)
(0.0284508 4.01807e-05 0)
(0.0280247 3.82236e-05 0)
(0.0276174 3.64149e-05 0)
(0.0272278 3.47405e-05 0)
(0.0268543 3.31787e-05 0)
(0.0264961 3.17255e-05 0)
(0.0261516 3.03659e-05 0)
(0.0258206 2.90887e-05 0)
(0.0255014 2.78974e-05 0)
(0.0251941 2.67679e-05 0)
(0.0248972 2.57145e-05 0)
(0.0246109 2.47142e-05 0)
(0.0243336 2.37758e-05 0)
(0.024066 2.28858e-05 0)
(0.0238061 2.20493e-05 0)
(0.0235551 2.12494e-05 0)
(0.0233109 2.05055e-05 0)
(0.0230748 1.97815e-05 0)
(0.0228445 1.91171e-05 0)
(0.0226219 1.84614e-05 0)
(0.0224042 1.78628e-05 0)
(0.0221938 1.72685e-05 0)
(0.0219875 1.67279e-05 0)
(0.0217883 1.61834e-05 0)
(0.0215922 1.56993e-05 0)
(0.0214032 1.51928e-05 0)
(0.0212164 1.47612e-05 0)
(0.0210368 1.42897e-05 0)
(0.0208585 1.38999e-05 0)
(0.0206877 1.34623e-05 0)
(0.0205171 1.31115e-05 0)
(0.0203544 1.2697e-05 0)
(0.0201909 1.23896e-05 0)
(0.0200358 1.19902e-05 0)
(0.0198786 1.17214e-05 0)
(0.0197309 1.1339e-05 0)
(0.0195794 1.11034e-05 0)
(0.0194385 1.07321e-05 0)
(0.0192922 1.05351e-05 0)
(0.019158 1.0166e-05 0)
(0.0190164 1.00079e-05 0)
(0.0188886 9.64015e-06 0)
(0.018751 9.51959e-06 0)
(0.0186295 9.1462e-06 0)
(0.0184954 9.0707e-06 0)
(0.0183802 8.68324e-06 0)
(0.0182489 8.6546e-06 0)
(0.0181401 8.2506e-06 0)
(0.018011 8.27265e-06 0)
(0.0179087 7.84253e-06 0)
(0.0177811 7.92495e-06 0)
(0.0176855 7.46071e-06 0)
(0.0175584 7.60974e-06 0)
(0.0174699 7.10308e-06 0)
(0.0173426 7.33282e-06 0)
(0.0172616 6.76779e-06 0)
(0.0171327 7.09626e-06 0)
(0.0170601 6.45956e-06 0)
(0.0169282 6.90695e-06 0)
(0.0168646 6.17831e-06 0)
(0.0167278 6.7812e-06 0)
(0.0166747 5.92664e-06 0)
(0.0165303 6.74177e-06 0)
(0.0164897 5.7096e-06 0)
(0.016333 6.81648e-06 0)
(0.0163093 5.6643e-06 0)
(0.0161268 8.75078e-06 0)
(0.200079 0.00563383 0)
(0.202857 0.0102961 0)
(0.203844 0.0111993 0)
(0.202051 0.0110639 0)
(0.197797 0.0108805 0)
(0.19183 0.0105331 0)
(0.184954 0.00983457 0)
(0.177637 0.00873304 0)
(0.170178 0.00736162 0)
(0.162811 0.00593906 0)
(0.155705 0.00464789 0)
(0.148988 0.00357826 0)
(0.14276 0.00274603 0)
(0.137063 0.00212692 0)
(0.1319 0.00168604 0)
(0.127238 0.00138492 0)
(0.123024 0.00118386 0)
(0.119197 0.00104772 0)
(0.115703 0.000950211 0)
(0.112495 0.000874258 0)
(0.109535 0.000810086 0)
(0.106793 0.00075272 0)
(0.104244 0.000699939 0)
(0.101867 0.000650955 0)
(0.0996443 0.0006056 0)
(0.0975616 0.000563856 0)
(0.0956055 0.000525733 0)
(0.0937638 0.000491076 0)
(0.0920266 0.000459709 0)
(0.090384 0.000431332 0)
(0.0888283 0.000405654 0)
(0.0873512 0.000382373 0)
(0.0859471 0.00036119 0)
(0.084609 0.000341863 0)
(0.0833329 0.000324158 0)
(0.0821127 0.000307872 0)
(0.0809457 0.000292865 0)
(0.0798265 0.000278955 0)
(0.0787535 0.000266065 0)
(0.0777218 0.00025406 0)
(0.0767306 0.000242863 0)
(0.0757751 0.000232413 0)
(0.0748557 0.000222611 0)
(0.0739673 0.000213438 0)
(0.0731112 0.000204815 0)
(0.0722819 0.000196706 0)
(0.0714821 0.000189077 0)
(0.0707055 0.000181881 0)
(0.0699558 0.000175083 0)
(0.0692262 0.00016868 0)
(0.0685216 0.000162588 0)
(0.067834 0.000156864 0)
(0.0671702 0.000151387 0)
(0.0665203 0.000146237 0)
(0.0658934 0.000141301 0)
(0.0652777 0.00013665 0)
(0.0646845 0.00013217 0)
(0.0640996 0.000127972 0)
(0.0635372 0.000123874 0)
(0.0629804 0.000120078 0)
(0.0624465 0.000116322 0)
(0.061915 0.000112865 0)
(0.0614074 0.00010942 0)
(0.060899 0.000106268 0)
(0.0604161 0.000103076 0)
(0.0599286 0.000100219 0)
(0.0594689 9.72382e-05 0)
(0.0590003 9.46406e-05 0)
(0.0585625 9.18605e-05 0)
(0.0581109 8.94887e-05 0)
(0.0576941 8.68767e-05 0)
(0.0572578 8.47328e-05 0)
(0.0568611 8.22498e-05 0)
(0.0564384 8.03195e-05 0)
(0.0560614 7.79549e-05 0)
(0.0556505 7.62213e-05 0)
(0.0552928 7.39455e-05 0)
(0.054892 7.24204e-05 0)
(0.0545535 7.02022e-05 0)
(0.0541609 6.88794e-05 0)
(0.0538419 6.67082e-05 0)
(0.0534555 6.55892e-05 0)
(0.0531565 6.34336e-05 0)
(0.0527741 6.2538e-05 0)
(0.052496 6.03753e-05 0)
(0.052115 5.97114e-05 0)
(0.051859 5.75206e-05 0)
(0.0514767 5.71218e-05 0)
(0.0512443 5.4863e-05 0)
(0.0508572 5.4772e-05 0)
(0.0506509 5.24223e-05 0)
(0.0502545 5.26852e-05 0)
(0.0500773 5.02135e-05 0)
(0.0496662 5.09159e-05 0)
(0.0495223 4.82834e-05 0)
(0.0490888 4.95386e-05 0)
(0.0489845 4.67287e-05 0)
(0.0485168 4.87677e-05 0)
(0.048463 4.57806e-05 0)
(0.0479403 5.27559e-05 0)
(0.200022 0.00371266 0)
(0.202939 0.0082724 0)
(0.206299 0.0100806 0)
(0.208905 0.0106228 0)
(0.210345 0.0108967 0)
(0.210713 0.0110315 0)
(0.210246 0.0108436 0)
(0.209068 0.0102394 0)
(0.207241 0.0093028 0)
(0.204832 0.00821026 0)
(0.201949 0.00713469 0)
(0.19872 0.00618211 0)
(0.195285 0.00538839 0)
(0.191761 0.00474331 0)
(0.188234 0.00422353 0)
(0.184753 0.00380453 0)
(0.181342 0.00346249 0)
(0.178011 0.00317638 0)
(0.174763 0.00293 0)
(0.171601 0.00271212 0)
(0.168528 0.00251569 0)
(0.165546 0.00233658 0)
(0.162655 0.00217237 0)
(0.159858 0.00202161 0)
(0.157155 0.00188337 0)
(0.154545 0.0017568 0)
(0.15203 0.00164122 0)
(0.149606 0.00153577 0)
(0.147273 0.00143975 0)
(0.145026 0.00135224 0)
(0.142865 0.00127248 0)
(0.140784 0.00119966 0)
(0.138781 0.00113307 0)
(0.136852 0.00107204 0)
(0.134995 0.00101598 0)
(0.133204 0.000964334 0)
(0.131478 0.000916705 0)
(0.129811 0.000872569 0)
(0.128205 0.000831693 0)
(0.12665 0.000793649 0)
(0.12515 0.000758243 0)
(0.123696 0.000725188 0)
(0.122293 0.000694292 0)
(0.12093 0.000665345 0)
(0.119613 0.000638226 0)
(0.118332 0.000612701 0)
(0.117094 0.000588755 0)
(0.115887 0.000566135 0)
(0.11472 0.000544853 0)
(0.113579 0.000524724 0)
(0.112477 0.000505708 0)
(0.111397 0.000487703 0)
(0.110355 0.000470648 0)
(0.10933 0.000454451 0)
(0.108342 0.000439102 0)
(0.107367 0.00042447 0)
(0.106429 0.000410583 0)
(0.1055 0.00039734 0)
(0.104609 0.000384701 0)
(0.103721 0.000372679 0)
(0.102873 0.00036115 0)
(0.102023 0.000350169 0)
(0.101215 0.000339638 0)
(0.1004 0.000329581 0)
(0.0996304 0.000319898 0)
(0.0988464 0.0003107 0)
(0.0981128 0.00030175 0)
(0.0973572 0.000293299 0)
(0.0966581 0.000285035 0)
(0.095928 0.000277234 0)
(0.095262 0.000269567 0)
(0.0945547 0.000262385 0)
(0.0939209 0.000255226 0)
(0.0932337 0.000248603 0)
(0.0926313 0.000241915 0)
(0.0919615 0.000235792 0)
(0.0913905 0.000229511 0)
(0.0907351 0.000223878 0)
(0.0901955 0.00021794 0)
(0.0895516 0.000212758 0)
(0.0890442 0.000207142 0)
(0.0884085 0.000202384 0)
(0.0879342 0.000197038 0)
(0.0873031 0.000192708 0)
(0.0868637 0.000187599 0)
(0.0862332 0.000183681 0)
(0.0858307 0.000178788 0)
(0.0851962 0.000175306 0)
(0.0848338 0.000170588 0)
(0.0841896 0.000167575 0)
(0.0838712 0.000163036 0)
(0.0832107 0.000160521 0)
(0.0829413 0.000156175 0)
(0.0822561 0.000154246 0)
(0.0820423 0.000150123 0)
(0.0813216 0.000148925 0)
(0.0811722 0.000145067 0)
(0.0804017 0.000145178 0)
(0.0803271 0.000141511 0)
(0.0794898 0.000148077 0)
(0.200008 0.00252624 0)
(0.201847 0.00633045 0)
(0.204533 0.00842029 0)
(0.207326 0.00932359 0)
(0.209692 0.00975032 0)
(0.211534 0.0100008 0)
(0.212949 0.0100237 0)
(0.213989 0.00973377 0)
(0.214631 0.00915296 0)
(0.214832 0.00839537 0)
(0.214587 0.00759726 0)
(0.213944 0.00685998 0)
(0.212989 0.00622963 0)
(0.21181 0.00571057 0)
(0.21048 0.00528556 0)
(0.209047 0.00493288 0)
(0.207537 0.00463422 0)
(0.205962 0.00437495 0)
(0.204333 0.00414397 0)
(0.202652 0.00393312 0)
(0.200929 0.00373697 0)
(0.199167 0.00355217 0)
(0.197374 0.00337691 0)
(0.195556 0.00321027 0)
(0.19372 0.00305195 0)
(0.191872 0.0029017 0)
(0.19002 0.00275954 0)
(0.188167 0.00262518 0)
(0.186321 0.00249858 0)
(0.184483 0.00237927 0)
(0.18266 0.00226707 0)
(0.180853 0.0021615 0)
(0.179068 0.00206225 0)
(0.177303 0.00196887 0)
(0.175565 0.00188109 0)
(0.17385 0.00179839 0)
(0.172166 0.00172066 0)
(0.170506 0.0016473 0)
(0.16888 0.00157833 0)
(0.167277 0.00151315 0)
(0.16571 0.00145178 0)
(0.164167 0.00139375 0)
(0.16266 0.00133902 0)
(0.161176 0.00128719 0)
(0.159729 0.00123831 0)
(0.158302 0.00119186 0)
(0.156914 0.00114809 0)
(0.155543 0.00110637 0)
(0.154211 0.00106702 0)
(0.152893 0.00102947 0)
(0.151616 0.00099398 0)
(0.15035 0.000960058 0)
(0.149125 0.000927988 0)
(0.147907 0.000897216 0)
(0.146732 0.00086817 0)
(0.14556 0.000840166 0)
(0.144433 0.00081376 0)
(0.143303 0.000788231 0)
(0.142223 0.000764124 0)
(0.141133 0.000740783 0)
(0.140097 0.000718746 0)
(0.139043 0.000697291 0)
(0.13805 0.000677127 0)
(0.137031 0.000657353 0)
(0.136078 0.000638814 0)
(0.13509 0.000620587 0)
(0.134178 0.000603486 0)
(0.133219 0.000586604 0)
(0.132345 0.000570852 0)
(0.131412 0.000555139 0)
(0.130576 0.000540587 0)
(0.129666 0.000525968 0)
(0.128869 0.000512471 0)
(0.127978 0.000498821 0)
(0.127219 0.000486323 0)
(0.126345 0.00047352 0)
(0.125625 0.000461918 0)
(0.124765 0.000449918 0)
(0.124083 0.000439119 0)
(0.123233 0.000427828 0)
(0.122592 0.000417806 0)
(0.121748 0.000407148 0)
(0.12115 0.000397835 0)
(0.120308 0.00038778 0)
(0.119755 0.000379145 0)
(0.118909 0.000369625 0)
(0.118405 0.000361659 0)
(0.117549 0.000352669 0)
(0.117098 0.00034534 0)
(0.116226 0.00033688 0)
(0.115833 0.000330228 0)
(0.114938 0.000322309 0)
(0.114608 0.000316372 0)
(0.113679 0.00030912 0)
(0.113421 0.00030392 0)
(0.112448 0.000297643 0)
(0.11227 0.00029313 0)
(0.111239 0.000288827 0)
(0.11115 0.00028501 0)
(0.110048 0.000287269 0)
(0.200008 0.00186501 0)
(0.201221 0.00499629 0)
(0.203187 0.00711728 0)
(0.205506 0.00824026 0)
(0.20772 0.00876879 0)
(0.209624 0.00902692 0)
(0.211244 0.00909399 0)
(0.21264 0.0089379 0)
(0.213824 0.00855317 0)
(0.214754 0.00800295 0)
(0.215398 0.00738673 0)
(0.215759 0.0067935 0)
(0.21588 0.00627445 0)
(0.215819 0.00584343 0)
(0.215634 0.00549083 0)
(0.215359 0.00519898 0)
(0.215019 0.00495229 0)
(0.214618 0.00473858 0)
(0.214162 0.00454897 0)
(0.213648 0.00437642 0)
(0.21308 0.00421602 0)
(0.212454 0.00406427 0)
(0.211775 0.00391918 0)
(0.211042 0.00377953 0)
(0.210261 0.00364496 0)
(0.20943 0.00351506 0)
(0.208559 0.00339007 0)
(0.207644 0.00326961 0)
(0.206696 0.00315399 0)
(0.20571 0.00304276 0)
(0.204699 0.00293615 0)
(0.203656 0.00283369 0)
(0.202595 0.0027355 0)
(0.201507 0.00264115 0)
(0.200407 0.00255079 0)
(0.199285 0.00246385 0)
(0.198157 0.0023807 0)
(0.197011 0.00230057 0)
(0.195864 0.00222401 0)
(0.194702 0.00215019 0)
(0.193544 0.00207964 0)
(0.192373 0.00201163 0)
(0.191213 0.00194665 0)
(0.190039 0.00188394 0)
(0.188881 0.00182414 0)
(0.187711 0.00176627 0)
(0.18656 0.00171123 0)
(0.185397 0.00165784 0)
(0.184259 0.00160713 0)
(0.183106 0.00155787 0)
(0.181983 0.00151112 0)
(0.180843 0.00146563 0)
(0.179739 0.00142254 0)
(0.178615 0.00138044 0)
(0.177532 0.00134073 0)
(0.176423 0.0013017 0)
(0.175363 0.00126506 0)
(0.174272 0.00122888 0)
(0.173237 0.00119499 0)
(0.172163 0.0011614 0)
(0.171154 0.00113007 0)
(0.170098 0.00109876 0)
(0.169116 0.00106982 0)
(0.168077 0.00104057 0)
(0.167123 0.00101377 0)
(0.1661 0.000986454 0)
(0.165176 0.00096159 0)
(0.164167 0.000935968 0)
(0.163274 0.000912972 0)
(0.162279 0.000888832 0)
(0.161417 0.000867535 0)
(0.160434 0.000844794 0)
(0.159606 0.000825032 0)
(0.158632 0.00080352 0)
(0.157838 0.000785254 0)
(0.156872 0.000764802 0)
(0.156115 0.000747913 0)
(0.155153 0.000728463 0)
(0.154434 0.000712842 0)
(0.153474 0.000694253 0)
(0.152796 0.000679897 0)
(0.151833 0.000662044 0)
(0.1512 0.000648882 0)
(0.15023 0.00063171 0)
(0.149644 0.000619715 0)
(0.148664 0.00060312 0)
(0.148129 0.000592295 0)
(0.147132 0.00057625 0)
(0.146654 0.000566564 0)
(0.145633 0.00055107 0)
(0.145218 0.00054256 0)
(0.144165 0.000527655 0)
(0.14382 0.000520336 0)
(0.142727 0.000506239 0)
(0.142458 0.000500079 0)
(0.141315 0.000487272 0)
(0.14113 0.0004822 0)
(0.139926 0.000471865 0)
(0.139832 0.000468189 0)
(0.138557 0.000463821 0)
(0.200007 0.00145135 0)
(0.200859 0.00404493 0)
(0.202315 0.00602764 0)
(0.204165 0.0072541 0)
(0.206079 0.00788505 0)
(0.207817 0.00817559 0)
(0.209329 0.00826794 0)
(0.21065 0.00818676 0)
(0.211814 0.00792868 0)
(0.212808 0.00752369 0)
(0.213612 0.00703838 0)
(0.214216 0.00654649 0)
(0.214645 0.00610053 0)
(0.214936 0.00572222 0)
(0.215139 0.00541018 0)
(0.215283 0.00515184 0)
(0.215392 0.00493424 0)
(0.215469 0.00474647 0)
(0.215522 0.00458107 0)
(0.215543 0.00443189 0)
(0.215537 0.00429476 0)
(0.215494 0.00416623 0)
(0.215421 0.0040444 0)
(0.215309 0.00392766 0)
(0.215166 0.00381563 0)
(0.214983 0.00370745 0)
(0.21477 0.00360348 0)
(0.214517 0.00350292 0)
(0.214237 0.00340634 0)
(0.213917 0.00331286 0)
(0.213573 0.00322305 0)
(0.213189 0.00313606 0)
(0.212785 0.00305236 0)
(0.212341 0.00297116 0)
(0.211881 0.002893 0)
(0.211383 0.00281691 0)
(0.210871 0.00274378 0)
(0.210322 0.00267228 0)
(0.209764 0.00260364 0)
(0.209168 0.0025364 0)
(0.208569 0.00247182 0)
(0.207931 0.0024085 0)
(0.207295 0.00234769 0)
(0.20662 0.00228794 0)
(0.205952 0.00223073 0)
(0.205244 0.00217426 0)
(0.204549 0.00212044 0)
(0.203812 0.00206708 0)
(0.203094 0.0020164 0)
(0.202332 0.00196601 0)
(0.201596 0.00191826 0)
(0.200812 0.00187064 0)
(0.200062 0.00182572 0)
(0.199259 0.00178063 0)
(0.198499 0.00173843 0)
(0.19768 0.00169569 0)
(0.196914 0.00165603 0)
(0.196082 0.00161557 0)
(0.195312 0.00157824 0)
(0.194468 0.00153991 0)
(0.193699 0.00150486 0)
(0.192846 0.0014684 0)
(0.192081 0.00143558 0)
(0.191219 0.00140088 0)
(0.19046 0.00137008 0)
(0.18959 0.00133709 0)
(0.188841 0.00130819 0)
(0.187964 0.0012767 0)
(0.187228 0.00124973 0)
(0.186344 0.00121953 0)
(0.185624 0.00119436 0)
(0.184732 0.00116546 0)
(0.18403 0.00114194 0)
(0.18313 0.00111415 0)
(0.18245 0.00109234 0)
(0.18154 0.0010655 0)
(0.180885 0.00104528 0)
(0.179964 0.00101937 0)
(0.179337 0.00100065 0)
(0.178404 0.000975505 0)
(0.177809 0.000958349 0)
(0.176859 0.000933834 0)
(0.1763 0.000918167 0)
(0.175332 0.000894263 0)
(0.174813 0.000880064 0)
(0.173822 0.000856658 0)
(0.173348 0.000843955 0)
(0.172331 0.000821042 0)
(0.171907 0.000809784 0)
(0.170858 0.000787412 0)
(0.17049 0.00077763 0)
(0.169402 0.000755886 0)
(0.169096 0.000747576 0)
(0.167965 0.00072677 0)
(0.167726 0.000719895 0)
(0.166543 0.000700601 0)
(0.166379 0.000695202 0)
(0.165136 0.000678603 0)
(0.165052 0.000675264 0)
(0.163741 0.000663835 0)
(0.200005 0.00116853 0)
(0.200632 0.00332717 0)
(0.201731 0.00509803 0)
(0.203193 0.00632498 0)
(0.204804 0.00703267 0)
(0.206348 0.00737932 0)
(0.207726 0.00750922 0)
(0.208933 0.00748454 0)
(0.209997 0.0073187 0)
(0.210921 0.00702771 0)
(0.211703 0.00665292 0)
(0.21233 0.00624997 0)
(0.212819 0.0058674 0)
(0.213193 0.00553177 0)
(0.213494 0.00524933 0)
(0.213746 0.00501302 0)
(0.213976 0.00481304 0)
(0.214187 0.00463967 0)
(0.214391 0.00448667 0)
(0.214579 0.00434862 0)
(0.214759 0.00422243 0)
(0.214919 0.0041049 0)
(0.215069 0.00399462 0)
(0.215196 0.00388971 0)
(0.215314 0.00379003 0)
(0.215406 0.00369425 0)
(0.215489 0.00360304 0)
(0.215543 0.00351504 0)
(0.21559 0.00343127 0)
(0.215606 0.00335027 0)
(0.215615 0.00327308 0)
(0.215593 0.00319828 0)
(0.215565 0.00312687 0)
(0.215503 0.00305741 0)
(0.215438 0.00299109 0)
(0.215336 0.00292615 0)
(0.215234 0.00286428 0)
(0.215092 0.00280325 0)
(0.214953 0.00274519 0)
(0.214772 0.00268765 0)
(0.214597 0.00263288 0)
(0.214378 0.00257844 0)
(0.214168 0.00252664 0)
(0.21391 0.00247486 0)
(0.213667 0.00242584 0)
(0.213371 0.0023764 0)
(0.213097 0.00232993 0)
(0.212765 0.00228267 0)
(0.21246 0.00223849 0)
(0.212094 0.00219329 0)
(0.211761 0.00215121 0)
(0.211361 0.00210788 0)
(0.211003 0.00206784 0)
(0.210571 0.00202615 0)
(0.21019 0.00198812 0)
(0.209726 0.00194793 0)
(0.209325 0.00191175 0)
(0.208832 0.00187306 0)
(0.208413 0.00183857 0)
(0.207891 0.00180128 0)
(0.207457 0.00176851 0)
(0.206909 0.00173237 0)
(0.206463 0.00170136 0)
(0.205887 0.00166633 0)
(0.205432 0.00163687 0)
(0.204832 0.001603 0)
(0.20437 0.00157506 0)
(0.203745 0.0015421 0)
(0.20328 0.00151582 0)
(0.202631 0.00148365 0)
(0.202166 0.00145887 0)
(0.201492 0.00142758 0)
(0.201031 0.00140423 0)
(0.200332 0.00137361 0)
(0.199878 0.00135186 0)
(0.199154 0.00132177 0)
(0.19871 0.00130148 0)
(0.197961 0.00127202 0)
(0.19753 0.00125313 0)
(0.196755 0.0012241 0)
(0.196342 0.00120677 0)
(0.195539 0.00117808 0)
(0.195147 0.00116219 0)
(0.194314 0.00113391 0)
(0.193947 0.00111947 0)
(0.193083 0.00109147 0)
(0.192746 0.00107854 0)
(0.191847 0.00105091 0)
(0.191545 0.0010394 0)
(0.190608 0.00101224 0)
(0.190345 0.00100222 0)
(0.189368 0.000975657 0)
(0.189149 0.000967122 0)
(0.188126 0.000941544 0)
(0.187956 0.000934516 0)
(0.186884 0.000910525 0)
(0.186767 0.000905207 0)
(0.185641 0.000883929 0)
(0.185582 0.000881067 0)
(0.184398 0.000864189 0)
(0.200004 0.00096094 0)
(0.200479 0.00276661 0)
(0.201323 0.0043178 0)
(0.202481 0.00548277 0)
(0.203818 0.00622925 0)
(0.205163 0.00663436 0)
(0.206408 0.00681174 0)
(0.207511 0.00683686 0)
(0.208483 0.00674085 0)
(0.20933 0.00653917 0)
(0.210062 0.00625805 0)
(0.210668 0.00593639 0)
(0.211162 0.00561489 0)
(0.211553 0.00532095 0)
(0.211878 0.0050666 0)
(0.212153 0.00484983 0)
(0.212409 0.0046645 0)
(0.212645 0.00450221 0)
(0.21288 0.00435796 0)
(0.213101 0.00422678 0)
(0.213323 0.00410668 0)
(0.213529 0.0039947 0)
(0.213737 0.00389021 0)
(0.213926 0.00379101 0)
(0.214118 0.00369753 0)
(0.214291 0.00360781 0)
(0.214467 0.0035231 0)
(0.214622 0.00344138 0)
(0.214782 0.0033643 0)
(0.214919 0.00328973 0)
(0.215063 0.00321938 0)
(0.215181 0.00315113 0)
(0.215308 0.00308673 0)
(0.215407 0.0030239 0)
(0.215516 0.00296475 0)
(0.215594 0.0029065 0)
(0.215686 0.00285193 0)
(0.215742 0.00279765 0)
(0.215814 0.00274694 0)
(0.215847 0.00269616 0)
(0.215901 0.00264876 0)
(0.21591 0.002601 0)
(0.215943 0.00255656 0)
(0.215927 0.0025113 0)
(0.21594 0.00246957 0)
(0.215898 0.00242646 0)
(0.215891 0.00238712 0)
(0.215822 0.00234594 0)
(0.215794 0.00230869 0)
(0.215698 0.00226927 0)
(0.21565 0.00223389 0)
(0.215526 0.00219598 0)
(0.215458 0.00216239 0)
(0.215306 0.0021257 0)
(0.215218 0.00209384 0)
(0.215038 0.00205823 0)
(0.214932 0.00202787 0)
(0.214722 0.00199336 0)
(0.214599 0.00196432 0)
(0.21436 0.00193072 0)
(0.21422 0.00190313 0)
(0.213953 0.00187015 0)
(0.213798 0.00184398 0)
(0.213501 0.0018117 0)
(0.213333 0.00178667 0)
(0.213007 0.00175509 0)
(0.212827 0.0017313 0)
(0.212471 0.00170009 0)
(0.212282 0.00167766 0)
(0.211896 0.00164683 0)
(0.211699 0.0016255 0)
(0.211283 0.00159516 0)
(0.21108 0.00157501 0)
(0.210634 0.00154483 0)
(0.210428 0.00152604 0)
(0.209952 0.00149603 0)
(0.209745 0.00147834 0)
(0.209237 0.00144866 0)
(0.209032 0.00143213 0)
(0.208493 0.00140249 0)
(0.208293 0.00138728 0)
(0.20772 0.00135773 0)
(0.207528 0.00134363 0)
(0.206922 0.00131427 0)
(0.20674 0.0013014 0)
(0.2061 0.00127209 0)
(0.20593 0.00126046 0)
(0.205255 0.0012314 0)
(0.205102 0.00122091 0)
(0.20439 0.00119223 0)
(0.204256 0.00118299 0)
(0.203505 0.00115486 0)
(0.203394 0.00114686 0)
(0.202603 0.00111972 0)
(0.202517 0.0011131 0)
(0.201685 0.00108753 0)
(0.201626 0.00108261 0)
(0.200751 0.00105969 0)
(0.200721 0.00105727 0)
(0.199801 0.00103816 0)
(0.200004 0.000800868 0)
(0.20037 0.00232334 0)
(0.201032 0.00367226 0)
(0.201953 0.00474554 0)
(0.203055 0.0054948 0)
(0.20421 0.00594531 0)
(0.205321 0.00617168 0)
(0.206325 0.00624376 0)
(0.207218 0.00620339 0)
(0.207997 0.00607116 0)
(0.20868 0.00586707 0)
(0.209256 0.00561753 0)
(0.209742 0.00535427 0)
(0.210137 0.00510216 0)
(0.210472 0.00487649 0)
(0.210755 0.00467936 0)
(0.211018 0.00450846 0)
(0.211257 0.00435694 0)
(0.211495 0.00422114 0)
(0.211718 0.00409634 0)
(0.211943 0.00398156 0)
(0.212153 0.00387389 0)
(0.212367 0.0037736 0)
(0.212564 0.00367815 0)
(0.212768 0.00358864 0)
(0.212954 0.00350251 0)
(0.213149 0.00342167 0)
(0.213325 0.00334338 0)
(0.213512 0.00327001 0)
(0.213677 0.00319873 0)
(0.213857 0.00313201 0)
(0.214013 0.00306697 0)
(0.214185 0.00300623 0)
(0.214331 0.00294658 0)
(0.214497 0.0028912 0)
(0.214633 0.00283618 0)
(0.214792 0.00278548 0)
(0.214918 0.00273455 0)
(0.21507 0.00268785 0)
(0.215185 0.00264055 0)
(0.215328 0.00259734 0)
(0.215431 0.00255314 0)
(0.215567 0.0025131 0)
(0.215657 0.00247149 0)
(0.215784 0.00243432 0)
(0.21586 0.00239495 0)
(0.215978 0.00236029 0)
(0.216038 0.00232293 0)
(0.216147 0.00229046 0)
(0.216191 0.00225489 0)
(0.21629 0.00222439 0)
(0.216317 0.00219031 0)
(0.216406 0.00216168 0)
(0.216415 0.00212878 0)
(0.216493 0.0021019 0)
(0.216484 0.00207005 0)
(0.216551 0.00204462 0)
(0.216521 0.00201381 0)
(0.216578 0.00198969 0)
(0.216528 0.0019596 0)
(0.216575 0.00193693 0)
(0.216502 0.00190733 0)
(0.216539 0.00188591 0)
(0.216444 0.00185695 0)
(0.216471 0.00183651 0)
(0.216353 0.00180804 0)
(0.21637 0.0017888 0)
(0.216228 0.00176045 0)
(0.216237 0.00174238 0)
(0.21607 0.00171433 0)
(0.21607 0.00169708 0)
(0.215878 0.00166932 0)
(0.215872 0.00165313 0)
(0.215654 0.00162525 0)
(0.215641 0.0016102 0)
(0.215396 0.00158241 0)
(0.215378 0.0015681 0)
(0.215107 0.00154047 0)
(0.215084 0.00152715 0)
(0.214786 0.00149934 0)
(0.21476 0.00148702 0)
(0.214433 0.00145928 0)
(0.214406 0.00144769 0)
(0.214051 0.00142001 0)
(0.214023 0.00140938 0)
(0.213639 0.00138167 0)
(0.213612 0.00137188 0)
(0.213199 0.00134444 0)
(0.213173 0.00133543 0)
(0.212732 0.00130832 0)
(0.212709 0.00130023 0)
(0.212237 0.00127371 0)
(0.212218 0.00126652 0)
(0.211717 0.00124099 0)
(0.211703 0.00123494 0)
(0.211173 0.001211 0)
(0.211163 0.00120647 0)
(0.210603 0.00118512 0)
(0.210599 0.00118292 0)
(0.210011 0.00116501 0)
(0.200003 0.000674251 0)
(0.200292 0.00196816 0)
(0.200817 0.00313876 0)
(0.201556 0.00411056 0)
(0.202463 0.00483548 0)
(0.203445 0.00531141 0)
(0.204424 0.00558011 0)
(0.205331 0.00569592 0)
(0.20615 0.00570256 0)
(0.206871 0.00562544 0)
(0.207507 0.00548368 0)
(0.208054 0.0052961 0)
(0.208526 0.00508666 0)
(0.208919 0.00487574 0)
(0.20926 0.00467953 0)
(0.209548 0.00450285 0)
(0.209815 0.00434691 0)
(0.210056 0.00420667 0)
(0.210293 0.00407995 0)
(0.210513 0.00396222 0)
(0.210736 0.00385333 0)
(0.210943 0.00375032 0)
(0.211154 0.0036543 0)
(0.211348 0.00356243 0)
(0.21155 0.00347652 0)
(0.211734 0.00339346 0)
(0.211928 0.00331579 0)
(0.212103 0.00324016 0)
(0.21229 0.00316958 0)
(0.212458 0.00310059 0)
(0.21264 0.00303638 0)
(0.212802 0.00297334 0)
(0.21298 0.00291493 0)
(0.213135 0.00285709 0)
(0.213311 0.00280394 0)
(0.21346 0.00275064 0)
(0.213633 0.00270213 0)
(0.213777 0.00265291 0)
(0.213946 0.0026084 0)
(0.214085 0.00256283 0)
(0.214252 0.0025219 0)
(0.214384 0.00247943 0)
(0.214549 0.00244179 0)
(0.214675 0.00240197 0)
(0.214837 0.00236728 0)
(0.214956 0.00232981 0)
(0.215115 0.00229772 0)
(0.215226 0.00226236 0)
(0.215382 0.00223257 0)
(0.215486 0.00219907 0)
(0.215638 0.00217139 0)
(0.215733 0.00213944 0)
(0.215882 0.00211377 0)
(0.215967 0.00208308 0)
(0.216112 0.00205922 0)
(0.216187 0.00202973 0)
(0.216328 0.00200734 0)
(0.216392 0.00197895 0)
(0.216529 0.001958 0)
(0.21658 0.00193033 0)
(0.216713 0.0019109 0)
(0.216752 0.00188383 0)
(0.216879 0.00186557 0)
(0.216905 0.00183927 0)
(0.217027 0.00182201 0)
(0.217039 0.00179616 0)
(0.217156 0.00178017 0)
(0.217153 0.00175447 0)
(0.217264 0.0017395 0)
(0.217246 0.00171428 0)
(0.217351 0.0017 0)
(0.217318 0.00167502 0)
(0.217418 0.00166184 0)
(0.217367 0.00163672 0)
(0.217461 0.00162444 0)
(0.217394 0.00159961 0)
(0.217482 0.00158786 0)
(0.217398 0.00156317 0)
(0.217479 0.00155231 0)
(0.217377 0.00152748 0)
(0.217453 0.00151732 0)
(0.217334 0.00149273 0)
(0.217403 0.00148303 0)
(0.217265 0.00145852 0)
(0.217329 0.00144957 0)
(0.217172 0.00142513 0)
(0.21723 0.00141666 0)
(0.217055 0.00139262 0)
(0.217106 0.00138468 0)
(0.216914 0.001361 0)
(0.216958 0.00135369 0)
(0.216748 0.00133074 0)
(0.216784 0.00132405 0)
(0.216558 0.00130215 0)
(0.216586 0.0012964 0)
(0.216343 0.00127614 0)
(0.216363 0.00127173 0)
(0.216104 0.00125399 0)
(0.216115 0.00125173 0)
(0.215841 0.00123726 0)
(0.200002 0.000572435 0)
(0.200233 0.00167896 0)
(0.200655 0.00269572 0)
(0.201253 0.00356693 0)
(0.202 0.00425048 0)
(0.202831 0.00473213 0)
(0.203684 0.00503144 0)
(0.204497 0.00518542 0)
(0.205245 0.00523299 0)
(0.205911 0.00520111 0)
(0.206504 0.00510988 0)
(0.207022 0.00497436 0)
(0.207477 0.00481299 0)
(0.207865 0.00464136 0)
(0.208206 0.00447478 0)
(0.208499 0.00431935 0)
(0.208769 0.00417908 0)
(0.209012 0.00405076 0)
(0.209249 0.00393376 0)
(0.209469 0.00382388 0)
(0.209689 0.00372164 0)
(0.209893 0.00362399 0)
(0.210101 0.00353272 0)
(0.210292 0.00344479 0)
(0.210489 0.00336264 0)
(0.210671 0.00328277 0)
(0.21086 0.00320823 0)
(0.211032 0.00313528 0)
(0.211215 0.00306733 0)
(0.211381 0.00300056 0)
(0.211559 0.00293859 0)
(0.211719 0.00287737 0)
(0.211893 0.00282094 0)
(0.212049 0.00276463 0)
(0.21222 0.00271324 0)
(0.212371 0.00266132 0)
(0.21254 0.00261438 0)
(0.212688 0.00256644 0)
(0.212855 0.00252341 0)
(0.212999 0.00247902 0)
(0.213165 0.00243955 0)
(0.213305 0.00239819 0)
(0.21347 0.002362 0)
(0.213607 0.00232329 0)
(0.213771 0.00229003 0)
(0.213904 0.00225371 0)
(0.214067 0.00222302 0)
(0.214197 0.00218886 0)
(0.214358 0.0021605 0)
(0.214485 0.00212822 0)
(0.214645 0.00210204 0)
(0.214767 0.00207134 0)
(0.214927 0.0020472 0)
(0.215044 0.00201787 0)
(0.215203 0.0019955 0)
(0.215316 0.00196753 0)
(0.215472 0.00194665 0)
(0.215581 0.00191981 0)
(0.215736 0.00190049 0)
(0.215838 0.00187441 0)
(0.215992 0.0018566 0)
(0.216089 0.00183134 0)
(0.21624 0.00181459 0)
(0.216331 0.00179026 0)
(0.216479 0.00177459 0)
(0.216565 0.00175069 0)
(0.21671 0.00173634 0)
(0.216788 0.00171281 0)
(0.21693 0.00169929 0)
(0.217002 0.00167648 0)
(0.21714 0.00166365 0)
(0.217204 0.00164106 0)
(0.217338 0.00162937 0)
(0.217395 0.00160684 0)
(0.217524 0.0015958 0)
(0.217574 0.00157383 0)
(0.217697 0.00156326 0)
(0.217739 0.00154144 0)
(0.217857 0.00153173 0)
(0.217891 0.00151001 0)
(0.218002 0.0015007 0)
(0.218028 0.00147947 0)
(0.218133 0.00147054 0)
(0.218151 0.00144943 0)
(0.218247 0.0014411 0)
(0.218257 0.00142031 0)
(0.218345 0.00141223 0)
(0.218348 0.00139197 0)
(0.218427 0.00138432 0)
(0.218422 0.00136453 0)
(0.21849 0.00135731 0)
(0.218479 0.00133841 0)
(0.218535 0.00133171 0)
(0.218518 0.0013139 0)
(0.218562 0.00130807 0)
(0.218538 0.00129195 0)
(0.218569 0.0012874 0)
(0.21854 0.00127372 0)
(0.218556 0.00127124 0)
(0.218524 0.00126072 0)
(0.200002 0.00048931 0)
(0.200188 0.00144028 0)
(0.20053 0.00232515 0)
(0.201019 0.00310159 0)
(0.201636 0.00373491 0)
(0.202337 0.00420685 0)
(0.203074 0.00452382 0)
(0.203796 0.00470827 0)
(0.204475 0.00479108 0)
(0.205089 0.00479734 0)
(0.205642 0.00474762 0)
(0.206131 0.00465542 0)
(0.206567 0.0045358 0)
(0.206946 0.0044004 0)
(0.207285 0.00426271 0)
(0.207581 0.00412895 0)
(0.207852 0.0040049 0)
(0.208098 0.00388907 0)
(0.208334 0.00378226 0)
(0.208554 0.00368081 0)
(0.208772 0.00358579 0)
(0.208976 0.00349413 0)
(0.20918 0.00340808 0)
(0.209371 0.00332454 0)
(0.209564 0.00324636 0)
(0.209744 0.00316998 0)
(0.209928 0.00309867 0)
(0.210101 0.0030286 0)
(0.210278 0.00296332 0)
(0.210444 0.00289893 0)
(0.210615 0.00283921 0)
(0.210776 0.00277994 0)
(0.210943 0.00272543 0)
(0.211099 0.00267076 0)
(0.211264 0.00262101 0)
(0.211416 0.00257056 0)
(0.211577 0.002525 0)
(0.211726 0.0024784 0)
(0.211886 0.0024366 0)
(0.212033 0.00239339 0)
(0.21219 0.00235509 0)
(0.212334 0.0023148 0)
(0.212491 0.0022797 0)
(0.212633 0.00224203 0)
(0.212788 0.00220973 0)
(0.212928 0.00217448 0)
(0.213083 0.00214466 0)
(0.213221 0.00211156 0)
(0.213374 0.00208404 0)
(0.21351 0.00205279 0)
(0.213663 0.00202744 0)
(0.213797 0.00199778 0)
(0.213949 0.00197441 0)
(0.214082 0.00194623 0)
(0.214232 0.00192452 0)
(0.214364 0.00189778 0)
(0.214512 0.00187755 0)
(0.214642 0.00185194 0)
(0.21479 0.00183332 0)
(0.214918 0.00180852 0)
(0.215064 0.00179129 0)
(0.215191 0.00176754 0)
(0.215335 0.00175123 0)
(0.215461 0.00172848 0)
(0.215603 0.00171335 0)
(0.215727 0.00169101 0)
(0.215867 0.00167717 0)
(0.215989 0.00165546 0)
(0.216126 0.00164223 0)
(0.216248 0.00162141 0)
(0.216381 0.00160894 0)
(0.216501 0.00158831 0)
(0.216631 0.00157696 0)
(0.216749 0.00155667 0)
(0.216875 0.00154572 0)
(0.216992 0.00152619 0)
(0.217113 0.00151574 0)
(0.217229 0.00149636 0)
(0.217344 0.00148674 0)
(0.217459 0.00146774 0)
(0.217569 0.00145829 0)
(0.217683 0.00143994 0)
(0.217786 0.00143093 0)
(0.217899 0.00141275 0)
(0.217994 0.00140423 0)
(0.218107 0.00138663 0)
(0.218193 0.00137824 0)
(0.218307 0.00136122 0)
(0.218384 0.00135331 0)
(0.218497 0.00133686 0)
(0.218563 0.00132929 0)
(0.218677 0.00131384 0)
(0.218732 0.00130683 0)
(0.218846 0.00129247 0)
(0.218889 0.00128636 0)
(0.219005 0.00127373 0)
(0.219034 0.00126892 0)
(0.219152 0.00125861 0)
(0.219167 0.00125589 0)
(0.219288 0.00124865 0)
(0.200002 0.000420535 0)
(0.200153 0.00124114 0)
(0.200433 0.00201274 0)