/*--------------------------------*- C++ -*----------------------------------*\
| =========                 |                                                 |
| \\      /  F ield         | OpenFOAM: The Open Source CFD Toolbox           |
|  \\    /   O peration     | Version:  2.3.0                                 |
|   \\  /    A nd           | Web:      www.OpenFOAM.org                      |
|    \\/     M anipulation  |                                                 |
\*---------------------------------------------------------------------------*/
FoamFile
{
    version     2.0;
    format      ascii;
    class       volScalarField;
    location    "0.35";
    object      p;
}
// * * * * * * * * * * * * * * * * * * * * * * * * * * * * * * * * * * * * * //

dimensions      [0 2 -2 0 0 0 0];

internalField   nonuniform List<scalar> 
1500
(
0.00223427
0.00191791
0.00132725
0.000782216
0.000334363
-4.43003e-05
-0.000361916
-0.000599168
-0.000735414
-0.000775607
-0.000747374
-0.0006834
-0.000608886
-0.000538818
-0.000479793
-0.000432789
-0.000395957
-0.000366706
-0.000342701
-0.000322074
-0.000303391
-0.000285754
-0.000268859
-0.000252787
-0.000237648
-0.000223371
-0.000209819
-0.000196982
-0.000184984
-0.000173932
-0.000163786
-0.000154385
-0.000145635
-0.000137572
-0.000130287
-0.000123809
-0.000118049
-0.000112875
-0.000108181
-0.000103845
-9.97917e-05
-9.60642e-05
-9.27009e-05
-8.96821e-05
-8.70097e-05
-8.46774e-05
-8.26118e-05
-8.07318e-05
-7.89943e-05
-7.73698e-05
-7.58312e-05
-7.43611e-05
-7.29466e-05
-7.1569e-05
-7.02112e-05
-6.8871e-05
-6.7548e-05
-6.62228e-05
-6.48655e-05
-6.34413e-05
-6.19095e-05
-6.02382e-05
-5.8413e-05
-5.64274e-05
-5.42802e-05
-5.19787e-05
-4.95308e-05
-4.69448e-05
-4.42279e-05
-4.13859e-05
-3.84263e-05
-3.53753e-05
-3.22627e-05
-2.91089e-05
-2.59847e-05
-2.29193e-05
-2.00073e-05
-1.72928e-05
-1.48355e-05
-1.26802e-05
-1.0853e-05
-9.35442e-06
-8.17534e-06
-7.28012e-06
-6.62976e-06
-6.16504e-06
-5.83421e-06
-5.5832e-06
-5.36546e-06
-5.14408e-06
-4.89286e-06
-4.59593e-06
-4.24453e-06
-3.83888e-06
-3.37812e-06
-2.87248e-06
-2.31623e-06
-1.7211e-06
-1.07048e-06
-3.77575e-07
0.00177833
0.00161845
0.00121101
0.000746546
0.000327865
-2.82645e-05
-0.000322047
-0.000540319
-0.000670912
-0.000716913
-0.000699139
-0.000645813
-0.000580505
-0.0005177
-0.000464104
-0.000420875
-0.000386514
-0.000358843
-0.000335887
-0.000316018
-0.000297927
-0.000280767
-0.00026427
-0.000248557
-0.000233765
-0.000219813
-0.000206543
-0.000193942
-0.000182151
-0.000171296
-0.000161338
-0.000152103
-0.000143486
-0.000135535
-0.000128355
-0.000121985
-0.000116334
-0.000111263
-0.000106668
-0.000102422
-9.8442e-05
-9.47801e-05
-9.14837e-05
-8.85276e-05
-8.59163e-05
-8.36496e-05
-8.16493e-05
-7.98293e-05
-7.81478e-05
-7.65765e-05
-7.50884e-05
-7.36669e-05
-7.22996e-05
-7.09679e-05
-6.96531e-05
-6.83542e-05
-6.70726e-05
-6.57888e-05
-6.44722e-05
-6.30881e-05
-6.15949e-05
-5.99595e-05
-5.8168e-05
-5.62144e-05
-5.4097e-05
-5.18235e-05
-4.9402e-05
-4.68405e-05
-4.4146e-05
-4.13236e-05
-3.8381e-05
-3.53453e-05
-3.22463e-05
-2.91203e-05
-2.59916e-05
-2.29231e-05
-2.00166e-05
-1.72996e-05
-1.48386e-05
-1.26788e-05
-1.08479e-05
-9.34595e-06
-8.1643e-06
-7.26697e-06
-6.61475e-06
-6.15144e-06
-5.82216e-06
-5.57327e-06
-5.35772e-06
-5.13857e-06
-4.88934e-06
-4.59405e-06
-4.24395e-06
-3.8393e-06
-3.37916e-06
-2.87412e-06
-2.31809e-06
-1.72326e-06
-1.07214e-06
-3.79633e-07
0.00144928
0.00135967
0.00109216
0.000720692
0.000346235
1.89705e-05
-0.000246501
-0.000444285
-0.000570808
-0.000628654
-0.000630407
-0.000595995
-0.000545673
-0.000493806
-0.000447255
-0.000408039
-0.000375771
-0.00034918
-0.00032685
-0.000307446
-0.000289795
-0.000273099
-0.000257095
-0.000241895
-0.000227627
-0.000214201
-0.000201438
-0.00018931
-0.000177941
-0.000167459
-0.000157832
-0.000148886
-0.00014052
-0.000132788
-0.000125803
-0.000119617
-0.000114137
-0.00010922
-0.000104765
-0.000100643
-9.67669e-05
-9.31978e-05
-8.99895e-05
-8.71123e-05
-8.45772e-05
-8.23922e-05
-8.04727e-05
-7.87271e-05
-7.71143e-05
-7.56059e-05
-7.41758e-05
-7.28099e-05
-7.14971e-05
-7.02176e-05
-6.89513e-05
-6.76984e-05
-6.64636e-05
-6.52271e-05
-6.39575e-05
-6.26202e-05
-6.11717e-05
-5.95774e-05
-5.78242e-05
-5.59068e-05
-5.38232e-05
-5.15819e-05
-4.9191e-05
-4.66592e-05
-4.39932e-05
-4.11976e-05
-3.82776e-05
-3.52613e-05
-3.2179e-05
-2.90638e-05
-2.59476e-05
-2.29062e-05
-1.99834e-05
-1.7268e-05
-1.48095e-05
-1.26505e-05
-1.08203e-05
-9.31944e-06
-8.13903e-06
-7.24352e-06
-6.59366e-06
-6.13291e-06
-5.80668e-06
-5.56106e-06
-5.34864e-06
-5.13228e-06
-4.88564e-06
-4.59238e-06
-4.2441e-06
-3.84088e-06
-3.38179e-06
-2.87824e-06
-2.32298e-06
-1.73002e-06
-1.07791e-06
-3.86383e-07
0.00121431
0.00114779
0.000965164
0.000681416
0.00036471
7.34903e-05
-0.0001656
-0.000345368
-0.000465963
-0.000530859
-0.000548369
-0.000532127
-0.000497593
-0.000457352
-0.000418716
-0.000384714
-0.000355931
-0.000331795
-0.000311259
-0.0002932
-0.000276652
-0.000260998
-0.000246023
-0.000231775
-0.000218324
-0.000205615
-0.000193545
-0.00018211
-0.000171389
-0.00016147
-0.000152321
-0.00014379
-0.000135789
-0.000128369
-0.000121652
-0.000115713
-0.000110482
-0.000105805
-0.00010157
-9.76418e-05
-9.39282e-05
-9.04947e-05
-8.74057e-05
-8.46435e-05
-8.22293e-05
-8.01702e-05
-7.8373e-05
-7.67416e-05
-7.52318e-05
-7.38132e-05
-7.24643e-05
-7.11768e-05
-6.99416e-05
-6.87385e-05
-6.75467e-05
-6.63667e-05
-6.52048e-05
-6.40412e-05
-6.28435e-05
-6.15769e-05
-6.01972e-05
-5.86689e-05
-5.69795e-05
-5.51245e-05
-5.31025e-05
-5.09222e-05
-4.85911e-05
-4.61183e-05
-4.35107e-05
-4.0772e-05
-3.7906e-05
-3.49409e-05
-3.1907e-05
-2.88358e-05
-2.57599e-05
-2.2749e-05
-1.98609e-05
-1.71696e-05
-1.47313e-05
-1.2588e-05
-1.07708e-05
-9.27881e-06
-8.10495e-06
-7.21287e-06
-6.5659e-06
-6.10662e-06
-5.78195e-06
-5.53767e-06
-5.3271e-06
-5.11248e-06
-4.86878e-06
-4.5781e-06
-4.23356e-06
-3.83381e-06
-3.37853e-06
-2.87978e-06
-2.32767e-06
-1.74077e-06
-1.08813e-06
-3.99323e-07
0.00102186
0.000964839
0.000831617
0.000619862
0.000365793
0.000117036
-9.47449e-05
-0.000257747
-0.000371286
-0.000439005
-0.000467105
-0.000464856
-0.000443701
-0.000414098
-0.000383115
-0.000354427
-0.000329437
-0.000308162
-0.00028984
-0.000273516
-0.000258425
-0.000244122
-0.000230447
-0.000217383
-0.000204936
-0.000193107
-0.000181921
-0.000171415
-0.000161585
-0.000152407
-0.000143858
-0.000135888
-0.000128451
-0.000121552
-0.000115268
-0.000109696
-0.000104796
-0.000100416
-9.64475e-05
-9.27936e-05
-8.93632e-05
-8.6169e-05
-8.32569e-05
-8.06435e-05
-7.83697e-05
-7.64437e-05
-7.47878e-05
-7.33092e-05
-7.19413e-05
-7.06411e-05
-6.93974e-05
-6.82106e-05
-6.70708e-05
-6.59587e-05
-6.48567e-05
-6.37666e-05
-6.26967e-05
-6.16298e-05
-6.0533e-05
-5.93686e-05
-5.80907e-05
-5.66636e-05
-5.50747e-05
-5.33205e-05
-5.14008e-05
-4.93256e-05
-4.7103e-05
-4.47423e-05
-4.22497e-05
-3.96287e-05
-3.68804e-05
-3.40317e-05
-3.1111e-05
-2.81507e-05
-2.51825e-05
-2.227e-05
-1.94746e-05
-1.68634e-05
-1.44951e-05
-1.24084e-05
-1.06359e-05
-9.17468e-06
-8.02267e-06
-7.14195e-06
-6.50065e-06
-6.04138e-06
-5.71579e-06
-5.46902e-06
-5.25797e-06
-5.04346e-06
-4.80348e-06
-4.51766e-06
-4.18086e-06
-3.79043e-06
-3.3446e-06
-2.85899e-06
-2.31617e-06
-1.74442e-06
-1.09776e-06
-4.17819e-07
0.000853072
0.000802758
0.000700965
0.000543368
0.000347453
0.00014447
-3.7547e-05
-0.00018331
-0.00028881
-0.000356152
-0.000390199
-0.000397803
-0.0003874
-0.00036723
-0.0003435
-0.000320045
-0.000298871
-0.000280537
-0.000264569
-0.000250146
-0.00023664
-0.000223762
-0.000211455
-0.00019969
-0.000188393
-0.00017756
-0.000167317
-0.000157779
-0.000148889
-0.000140517
-0.000132654
-0.000125377
-0.000118664
-0.00011241
-0.000106621
-0.000101451
-9.69472e-05
-9.29413e-05
-8.92859e-05
-8.59518e-05
-8.28764e-05
-7.99734e-05
-7.72694e-05
-7.48609e-05
-7.27833e-05
-7.10043e-05
-6.94853e-05
-6.81684e-05
-6.69581e-05
-6.579e-05
-6.46663e-05
-6.3596e-05
-6.25651e-05
-6.15589e-05
-6.05664e-05
-5.95844e-05
-5.86174e-05
-5.76552e-05
-5.66694e-05
-5.56226e-05
-5.44707e-05
-5.31777e-05
-5.17285e-05
-5.01208e-05
-4.83537e-05
-4.64349e-05
-4.43744e-05
-4.21842e-05
-3.98686e-05
-3.74329e-05
-3.48781e-05
-3.22262e-05
-2.95001e-05
-2.6735e-05
-2.39614e-05
-2.1234e-05
-1.86129e-05
-1.61607e-05
-1.3934e-05
-1.19642e-05
-1.02858e-05
-8.89417e-06
-7.79351e-06
-6.94303e-06
-6.31841e-06
-5.86423e-06
-5.53953e-06
-5.29024e-06
-5.07811e-06
-4.8652e-06
-4.63083e-06
-4.35576e-06
-4.03238e-06
-3.66135e-06
-3.23384e-06
-2.77361e-06
-2.25189e-06
-1.70768e-06
-1.08338e-06
-4.28614e-07
0.000701709
0.000657954
0.000578972
0.000461811
0.000314448
0.000155364
5.08115e-06
-0.000121328
-0.000216967
-0.000281466
-0.000318122
-0.000332145
-0.000329853
-0.000317578
-0.000300482
-0.00028215
-0.00026482
-0.000249465
-0.000235917
-0.000223491
-0.000211689
-0.00020038
-0.000189593
-0.000179272
-0.00016926
-0.00015954
-0.000150329
-0.000141825
-0.000133954
-0.000126482
-0.000119391
-0.000112864
-0.000106919
-0.00010137
-9.61561e-05
-9.14687e-05
-8.74376e-05
-8.38501e-05
-8.0487e-05
-7.744e-05
-7.47382e-05
-7.21712e-05
-6.9719e-05
-6.75681e-05
-6.57252e-05
-6.40901e-05
-6.2685e-05
-6.15105e-05
-6.0441e-05
-5.93947e-05
-5.83953e-05
-5.7454e-05
-5.65405e-05
-5.56427e-05
-5.47619e-05
-5.38877e-05
-5.30194e-05
-5.21587e-05
-5.12819e-05
-5.03516e-05
-4.93332e-05
-4.8192e-05
-4.69053e-05
-4.5473e-05
-4.38964e-05
-4.21774e-05
-4.03269e-05
-3.83601e-05
-3.62774e-05
-3.40872e-05
-3.17951e-05
-2.94159e-05
-2.69638e-05
-2.44772e-05
-2.19866e-05
-1.95329e-05
-1.71701e-05
-1.49569e-05
-1.29453e-05
-1.11558e-05
-9.62438e-06
-8.34705e-06
-7.33258e-06
-6.53839e-06
-5.94744e-06
-5.51057e-06
-5.19344e-06
-4.94736e-06
-4.73691e-06
-4.53129e-06
-4.30658e-06
-4.05067e-06
-3.74878e-06
-3.40862e-06
-3.01163e-06
-2.58923e-06
-2.1046e-06
-1.60053e-06
-1.01885e-06
-4.07806e-07
0.000564826
0.000527997
0.000467167
0.00038041
0.000271621
0.000151126
3.23564e-05
-7.24943e-05
-0.000155665
-0.000214725
-0.000251223
-0.000268812
-0.000272112
-0.000265972
-0.000254606
-0.000241088
-0.000227518
-0.000215101
-0.000203957
-0.000193572
-0.000183609
-0.000174078
-0.000165001
-0.000156222
-0.000147568
-0.000139104
-0.000131111
-0.000123793
-0.00011703
-0.000110524
-0.000104277
-9.85768e-05
-9.34663e-05
-8.87002e-05
-8.41548e-05
-8.00227e-05
-7.64992e-05
-7.33624e-05
-7.03389e-05
-6.76186e-05
-6.53105e-05
-6.30928e-05
-6.09118e-05
-5.9048e-05
-5.74728e-05
-5.60072e-05
-5.4727e-05
-5.36893e-05
-5.27485e-05
-5.18176e-05
-5.09434e-05
-5.01324e-05
-4.93339e-05
-4.85433e-05
-4.77793e-05
-4.70213e-05
-4.6257e-05
-4.54992e-05
-4.47287e-05
-4.39081e-05
-4.30169e-05
-4.20283e-05
-4.09149e-05
-3.96779e-05
-3.83173e-05
-3.68279e-05
-3.52232e-05
-3.35211e-05
-3.17143e-05
-2.9812e-05
-2.78269e-05
-2.57685e-05
-2.36454e-05
-2.14985e-05
-1.93546e-05
-1.72359e-05
-1.51896e-05
-1.32732e-05
-1.15317e-05
-9.97259e-06
-8.63129e-06
-7.5068e-06
-6.60887e-06
-5.89672e-06
-5.35768e-06
-4.95433e-06
-4.65542e-06
-4.42282e-06
-4.22084e-06
-4.03078e-06
-3.8234e-06
-3.59462e-06
-3.32474e-06
-3.02487e-06
-2.67232e-06
-2.29833e-06
-1.86798e-06
-1.41781e-06
-8.9858e-07
-3.50089e-07
0.000446605
0.000416497
0.000369779
0.000305191
0.000224885
0.000134863
4.37901e-05
-3.95518e-05
-0.000108462
-0.000159713
-0.000193424
-0.000211813
-0.000218144
-0.000216109
-0.000209061
-0.000199473
-0.000189171
-0.000179443
-0.000170591
-0.000162201
-0.000154065
-0.000146314
-0.00013895
-0.000131727
-0.000124486
-0.000117389
-0.000110722
-0.000104633
-9.89823e-05
-9.3478e-05
-8.81561e-05
-8.33567e-05
-7.91148e-05
-7.5136e-05
-7.12784e-05
-6.77483e-05
-6.47776e-05
-6.21356e-05
-5.95139e-05
-5.71618e-05
-5.52381e-05
-5.33606e-05
-5.14733e-05
-4.99161e-05
-4.86173e-05
-4.73453e-05
-4.62198e-05
-4.53323e-05
-4.45206e-05
-4.37035e-05
-4.2952e-05
-4.2269e-05
-4.15871e-05
-4.09079e-05
-4.02638e-05
-3.96261e-05
-3.89728e-05
-3.83243e-05
-3.76636e-05
-3.69551e-05
-3.61922e-05
-3.53535e-05
-3.44109e-05
-3.33727e-05
-3.22361e-05
-3.09848e-05
-2.96359e-05
-2.82123e-05
-2.66998e-05
-2.51066e-05
-2.34486e-05
-2.17273e-05
-1.99487e-05
-1.81592e-05
-1.63808e-05
-1.4616e-05
-1.2906e-05
-1.13079e-05
-9.85699e-06
-8.54823e-06
-7.41485e-06
-6.46211e-06
-5.69672e-06
-5.08366e-06
-4.61115e-06
-4.25557e-06
-3.98645e-06
-3.77703e-06
-3.59255e-06
-3.42405e-06
-3.24198e-06
-3.04497e-06
-2.81443e-06
-2.56003e-06
-2.26143e-06
-1.94286e-06
-1.57716e-06
-1.19023e-06
-7.47996e-07
-2.75946e-07
0.000332523
0.00030946
0.000275458
0.000229669
0.000173261
0.000109667
4.42855e-05
-1.71918e-05
-6.99521e-05
-0.000110958
-0.000139389
-0.000156279
-0.000163748
-0.000164366
-0.000160595
-0.000154339
-0.000147081
-0.000139993
-0.000133445
-0.000127117
-0.000120872
-0.000114941
-0.000109381
-0.000103899
-9.82803e-05
-9.27023e-05
-8.74658e-05
-8.27119e-05
-7.83224e-05
-7.40058e-05
-6.97794e-05
-6.59907e-05
-6.26864e-05
-5.95705e-05
-5.64927e-05
-5.36638e-05
-5.13416e-05
-4.92825e-05
-4.71471e-05
-4.52374e-05
-4.37564e-05
-4.22738e-05
-4.07284e-05
-3.95057e-05
-3.8509e-05
-3.7473e-05
-3.65472e-05
-3.58431e-05
-3.51893e-05
-3.45142e-05
-3.39086e-05
-3.33738e-05
-3.28287e-05
-3.22778e-05
-3.17653e-05
-3.12574e-05
-3.07285e-05
-3.02083e-05
-2.96795e-05
-2.91062e-05
-2.8496e-05
-2.78331e-05
-2.70841e-05
-2.62644e-05
-2.53748e-05
-2.43904e-05
-2.33272e-05
-2.22094e-05
-2.102e-05
-1.97692e-05
-1.84773e-05
-1.71333e-05
-1.57367e-05
-1.43374e-05
-1.29578e-05
-1.15839e-05
-1.02476e-05
-9.00339e-06
-7.87553e-06
-6.84957e-06
-5.95253e-06
-5.19817e-06
-4.58834e-06
-4.09516e-06
-3.70799e-06
-3.41527e-06
-3.19003e-06
-3.01355e-06
-2.85688e-06
-2.71616e-06
-2.56637e-06
-2.40667e-06
-2.22303e-06
-2.01995e-06
-1.78432e-06
-1.52952e-06
-1.24077e-06
-9.29596e-07
-5.81848e-07
-2.09955e-07
0.00020888
0.000194037
0.000173105
0.000145529
0.000111839
7.37615e-05
3.41303e-05
-3.90109e-06
-3.75293e-05
-6.46679e-05
-8.43552e-05
-9.68867e-05
-0.000103337
-0.000105058
-0.00010355
-0.000100194
-9.60005e-05
-9.16796e-05
-8.75423e-05
-8.35002e-05
-7.94945e-05
-7.56943e-05
-7.21864e-05
-6.87372e-05
-6.51036e-05
-6.14002e-05
-5.79131e-05
-5.48052e-05
-5.19848e-05
-4.91591e-05
-4.63085e-05
-4.37653e-05
-4.16238e-05
-3.96289e-05
-3.7591e-05
-3.5663e-05
-3.41276e-05
-3.28012e-05
-3.13389e-05
-3.00189e-05
-2.90748e-05
-2.81061e-05
-2.70346e-05
-2.62307e-05
-2.56085e-05
-2.49038e-05
-2.42574e-05
-2.37903e-05
-2.33539e-05
-2.28844e-05
-2.24702e-05
-2.21191e-05
-2.17544e-05
-2.13787e-05
-2.10401e-05
-2.07081e-05
-2.03517e-05
-2.00024e-05
-1.96492e-05
-1.9256e-05
-1.88374e-05
-1.83912e-05
-1.7887e-05
-1.73383e-05
-1.67508e-05
-1.61012e-05
-1.54004e-05
-1.46691e-05
-1.38876e-05
-1.30624e-05
-1.2216e-05
-1.13366e-05
-1.04165e-05
-9.49776e-06
-8.59853e-06
-7.69805e-06
-6.8156e-06
-5.99723e-06
-5.26036e-06
-4.58601e-06
-3.99216e-06
-3.49249e-06
-3.08821e-06
-2.75733e-06
-2.49292e-06
-2.29223e-06
-2.13524e-06
-2.01169e-06
-1.90128e-06
-1.80335e-06
-1.70169e-06
-1.59257e-06
-1.47056e-06
-1.33436e-06
-1.17832e-06
-1.00746e-06
-8.15283e-07
-6.06486e-07
-3.75953e-07
-1.29522e-07
7.20517e-05
6.68554e-05
5.97357e-05
5.05017e-05
3.92814e-05
2.65749e-05
1.32302e-05
2.78928e-07
-1.13466e-05
-2.09408e-05
-2.81412e-05
-3.29852e-05
-3.57204e-05
-3.66625e-05
-3.6316e-05
-3.52789e-05
-3.39414e-05
-3.24883e-05
-3.10437e-05
-2.96648e-05
-2.83336e-05
-2.70314e-05
-2.57652e-05
-2.45038e-05
-2.32074e-05
-2.19218e-05
-2.07215e-05
-1.96402e-05
-1.86446e-05
-1.76265e-05
-1.65828e-05
-1.56608e-05
-1.49074e-05
-1.42113e-05
-1.34778e-05
-1.27654e-05
-1.2218e-05
-1.17693e-05
-1.12447e-05
-1.07599e-05
-1.04418e-05
-1.01069e-05
-9.69886e-06
-9.39459e-06
-9.17382e-06
-8.91513e-06
-8.67814e-06
-8.5209e-06
-8.375e-06
-8.20573e-06
-8.05177e-06
-7.92323e-06
-7.78868e-06
-7.64628e-06
-7.51926e-06
-7.39925e-06
-7.27027e-06
-7.14554e-06
-7.02346e-06
-6.88896e-06
-6.74436e-06
-6.5881e-06
-6.40713e-06
-6.21029e-06
-5.99784e-06
-5.75668e-06
-5.49458e-06
-5.22793e-06
-4.94717e-06
-4.64755e-06
-4.34199e-06
-4.02901e-06
-3.70802e-06
-3.38902e-06
-3.07989e-06
-2.76419e-06
-2.45267e-06
-2.16169e-06
-1.90188e-06
-1.66248e-06
-1.44882e-06
-1.27015e-06
-1.12259e-06
-1.00333e-06
-9.03313e-07
-8.28962e-07
-7.68814e-07
-7.20751e-07
-6.78992e-07
-6.40061e-07
-6.03034e-07
-5.63053e-07
-5.18914e-07
-4.72015e-07
-4.16864e-07
-3.56782e-07
-2.89019e-07
-2.13567e-07
-1.32628e-07
-4.48198e-08
1.99624e-05
7.73486e-06
1.06964e-05
1.31939e-05
2.27846e-05
2.7329e-05
3.89674e-05
4.65305e-05
6.33352e-05
7.69038e-05
0.000101627
0.00012332
0.000157758
0.000190609
0.000239652
0.000288068
0.000357468
0.000428552
0.0005276
0.000634322
0.000783404
0.000955592
0.00120239
0.00150334
0.00190704
1.9295e-05
7.85822e-06
1.06716e-05
1.32602e-05
2.25363e-05
2.72907e-05
3.85258e-05
4.63963e-05
6.25587e-05
7.64973e-05
0.00010021
0.000122458
0.000155577
0.000189515
0.000236191
0.000286344
0.000352005
0.000425684
0.000518934
0.000628981
0.000767759
0.000940162
0.0011548
0.00141276
0.00165196
1.82003e-05
8.3291e-06
1.04953e-05
1.34515e-05
2.18148e-05
2.72985e-05
3.74904e-05
4.62617e-05
6.09685e-05
7.59482e-05
9.76863e-05
0.000121106
0.000152044
0.000187226
0.000231129
0.000282428
0.000344538
0.000418906
0.000507114
0.000615839
0.000744401
0.000903691
0.00108095
0.00127158
0.00140929
1.68987e-05
8.88915e-06
1.03037e-05
1.35144e-05
2.08438e-05
2.69819e-05
3.61935e-05
4.561e-05
5.9039e-05
7.4517e-05
9.46921e-05
0.00011849
0.000147717
0.000182966
0.000224828
0.000275475
0.000334994
0.000407205
0.000491284
0.000593508
0.00071096
0.000847278
0.000988531
0.00112077
0.00120356
1.532e-05
9.42277e-06
1.01399e-05
1.33936e-05
1.96791e-05
2.62051e-05
3.46148e-05
4.42938e-05
5.67044e-05
7.20767e-05
9.10579e-05
0.000114359
0.000142237
0.000176429
0.000216576
0.000265177
0.000322104
0.000390275
0.000469183
0.000561696
0.000665011
0.000776316
0.000884767
0.000975198
0.00102619
1.34875e-05
9.70772e-06
1.00173e-05
1.30439e-05
1.83768e-05
2.4865e-05
3.26765e-05
4.21876e-05
5.37938e-05
6.85187e-05
8.64267e-05
0.000108568
0.000135043
0.000167415
0.000205543
0.00025119
0.00030468
0.000367439
0.000439183
0.000520035
0.000607045
0.000695269
0.00077611
0.00083759
0.000866453
1.15639e-05
9.5688e-06
9.83263e-06
1.24255e-05
1.69263e-05
2.2958e-05
3.02389e-05
3.92074e-05
5.00419e-05
6.37298e-05
8.04185e-05
0.00010092
0.000125618
0.000155565
0.000190984
0.000232852
0.000281674
0.000337744
0.000400494
0.000468687
0.00053924
0.000607155
0.000665647
0.0007063
0.00071982
9.68027e-06
8.90034e-06
9.33597e-06
1.14864e-05
1.52483e-05
2.05494e-05
2.71608e-05
3.52936e-05
4.51851e-05
5.75455e-05
7.26718e-05
9.11083e-05
0.000113449
0.000140361
0.000172166
0.000209343
0.000252209
0.000300424
0.000353049
0.000408408
0.000463532
0.000514074
0.000554895
0.000580352
0.000584135
7.95256e-06
7.80289e-06
8.42801e-06
1.02231e-05
1.33202e-05
1.77854e-05
2.35303e-05
3.06142e-05
3.93143e-05
5.01351e-05
6.33628e-05
7.93968e-05
9.8858e-05
0.000122206
0.000149657
0.000181421
0.00021756
0.000257472
0.000300051
0.000343635
0.000385608
0.000422421
0.000450441
0.000465832
0.000464551
6.16923e-06
6.30147e-06
7.02035e-06
8.49863e-06
1.09157e-05
1.4428e-05
1.90596e-05
2.48074e-05
3.19454e-05
4.08449e-05
5.16824e-05
6.47523e-05
8.05956e-05
9.95349e-05
0.000121635
0.000146931
0.000175313
0.000206124
0.000238271
0.00027032
0.000300185
0.000325271
0.000343186
0.000351505
0.000347717
4.04434e-06
4.22903e-06
4.83461e-06
5.89955e-06
7.51772e-06
9.84366e-06
1.29579e-05
1.68492e-05
2.17394e-05
2.78972e-05
3.53736e-05
4.43334e-05
5.51574e-05
6.80369e-05
8.29275e-05
9.97711e-05
0.000118418
0.000138327
0.00015866
0.000178417
0.00019622
0.000210566
0.000220093
0.000223525
0.000219502
1.43772e-06
1.51622e-06
1.76103e-06
2.17346e-06
2.76922e-06
3.61085e-06
4.73787e-06
6.14632e-06
7.93493e-06
1.02211e-05
1.30001e-05
1.63104e-05
2.02908e-05
2.4999e-05
3.03918e-05
3.64297e-05
4.3039e-05
4.9997e-05
5.69871e-05
6.3658e-05
6.95398e-05
7.4119e-05
7.69639e-05
7.7702e-05
7.59383e-05
)
;

boundaryField
{
    top
    {
        type            fixedValue;
        value           uniform 0;
    }
    inlet
    {
        type            zeroGradient;
    }
    outlet
    {
        type            fixedValue;
        value           uniform 0;
    }
    plate
    {
        type            zeroGradient;
    }
    symmBound
    {
        type            zeroGradient;
    }
    frontAndBack
    {
        type            empty;
    }
}


// ************************************************************************* //
