/*--------------------------------*- C++ -*----------------------------------*\
| =========                 |                                                 |
| \\      /  F ield         | OpenFOAM: The Open Source CFD Toolbox           |
|  \\    /   O peration     | Version:  2.3.0                                 |
|   \\  /    A nd           | Web:      www.OpenFOAM.org                      |
|    \\/     M anipulation  |                                                 |
\*---------------------------------------------------------------------------*/
FoamFile
{
    version     2.0;
    format      ascii;
    class       volVectorField;
    location    "0.35";
    object      U;
}
// * * * * * * * * * * * * * * * * * * * * * * * * * * * * * * * * * * * * * //

dimensions      [0 1 -1 0 0 0 0];

internalField   nonuniform List<vector> 
1500
(
(0.175956 0.00442065 0)
(0.155201 0.00605469 0)
(0.136316 0.00622042 0)
(0.117847 0.00561064 0)
(0.0999942 0.0047883 0)
(0.0836488 0.00387267 0)
(0.0699338 0.00287637 0)
(0.0592568 0.00182239 0)
(0.0513967 0.000903178 0)
(0.0457807 0.000283535 0)
(0.0418184 -3.99007e-05 0)
(0.0390211 -0.000161344 0)
(0.0369973 -0.000170722 0)
(0.0354572 -0.000129771 0)
(0.0341946 -7.22417e-05 0)
(0.0330819 -1.7872e-05 0)
(0.032052 2.37217e-05 0)
(0.0310759 5.06765e-05 0)
(0.0301456 6.52421e-05 0)
(0.0292631 7.07861e-05 0)
(0.0284336 7.04945e-05 0)
(0.0276611 6.70688e-05 0)
(0.0269456 6.24963e-05 0)
(0.0262833 5.78746e-05 0)
(0.0256697 5.3482e-05 0)
(0.0251008 4.92415e-05 0)
(0.0245736 4.52579e-05 0)
(0.0240843 4.18062e-05 0)
(0.0236282 3.90068e-05 0)
(0.0232004 3.66879e-05 0)
(0.0227977 3.45113e-05 0)
(0.0224182 3.23417e-05 0)
(0.0220606 3.03421e-05 0)
(0.0217224 2.8666e-05 0)
(0.0214012 2.72967e-05 0)
(0.021095 2.60704e-05 0)
(0.0208028 2.48379e-05 0)
(0.020524 2.36255e-05 0)
(0.0202583 2.24267e-05 0)
(0.0200053 2.11648e-05 0)
(0.0197648 1.99739e-05 0)
(0.0195358 1.89825e-05 0)
(0.0193172 1.80633e-05 0)
(0.0191087 1.71588e-05 0)
(0.0189097 1.63458e-05 0)
(0.0187198 1.55701e-05 0)
(0.0185388 1.475e-05 0)
(0.0183667 1.39281e-05 0)
(0.0182034 1.31471e-05 0)
(0.0180486 1.23901e-05 0)
(0.0179021 1.16458e-05 0)
(0.0177638 1.09233e-05 0)
(0.0176334 1.02248e-05 0)
(0.0175108 9.53905e-06 0)
(0.0173959 8.87481e-06 0)
(0.0172885 8.25457e-06 0)
(0.0171882 7.66738e-06 0)
(0.017095 7.08957e-06 0)
(0.0170088 6.52035e-06 0)
(0.0169293 5.95e-06 0)
(0.0168568 5.36892e-06 0)
(0.0167911 4.79137e-06 0)
(0.0167321 4.22963e-06 0)
(0.0166797 3.68024e-06 0)
(0.0166336 3.14928e-06 0)
(0.0165937 2.64339e-06 0)
(0.0165596 2.15465e-06 0)
(0.0165312 1.68385e-06 0)
(0.016508 1.232e-06 0)
(0.0164898 8.14469e-07 0)
(0.0164764 4.48504e-07 0)
(0.0164672 1.51875e-07 0)
(0.016462 -9.2288e-08 0)
(0.0164602 -3.13735e-07 0)
(0.0164615 -6.5179e-07 0)
(0.0164651 -8.35243e-07 0)
(0.0164703 -9.45483e-07 0)
(0.0164765 -1.00317e-06 0)
(0.0164829 -9.90452e-07 0)
(0.0164891 -9.097e-07 0)
(0.0164944 -7.78309e-07 0)
(0.0164986 -6.14671e-07 0)
(0.0165015 -4.4748e-07 0)
(0.0165031 -3.06293e-07 0)
(0.0165034 -1.6042e-07 0)
(0.0165026 -3.32593e-08 0)
(0.016501 6.52558e-08 0)
(0.016499 1.22247e-07 0)
(0.0164968 1.51146e-07 0)
(0.0164945 1.53277e-07 0)
(0.0164925 1.38268e-07 0)
(0.0164908 1.15698e-07 0)
(0.0164895 8.78774e-08 0)
(0.0164885 6.94004e-08 0)
(0.0164878 4.83878e-08 0)
(0.0164874 5.02157e-08 0)
(0.0164869 3.84537e-08 0)
(0.0164867 6.16364e-08 0)
(0.0164862 4.78559e-08 0)
(0.016486 6.13012e-08 0)
(0.191355 0.00786638 0)
(0.189617 0.0110257 0)
(0.187187 0.0121598 0)
(0.183437 0.0120387 0)
(0.178108 0.0114236 0)
(0.171378 0.0105305 0)
(0.16387 0.00936327 0)
(0.156046 0.00791884 0)
(0.148267 0.00635442 0)
(0.14075 0.00489499 0)
(0.133631 0.00368778 0)
(0.127015 0.0027669 0)
(0.120961 0.00210239 0)
(0.115498 0.00164832 0)
(0.110596 0.00134946 0)
(0.106197 0.00115316 0)
(0.102236 0.00101914 0)
(0.0986528 0.000920943 0)
(0.0953964 0.000842057 0)
(0.0924237 0.000772494 0)
(0.0897005 0.000707648 0)
(0.0871995 0.000647208 0)
(0.0848962 0.000592485 0)
(0.0827678 0.000543882 0)
(0.0807943 0.000500324 0)
(0.0789599 0.000460579 0)
(0.0772518 0.000424556 0)
(0.0756575 0.000392785 0)
(0.0741646 0.000365302 0)
(0.0727618 0.000341299 0)
(0.0714405 0.000319501 0)
(0.0701941 0.000299283 0)
(0.0690167 0.000280955 0)
(0.0679023 0.000264786 0)
(0.066845 0.000250519 0)
(0.0658401 0.000237416 0)
(0.0648838 0.000224829 0)
(0.0639734 0.000212815 0)
(0.0631068 0.000201385 0)
(0.0622821 0.000190249 0)
(0.0614967 0.000179771 0)
(0.0607484 0.000170322 0)
(0.0600351 0.000161424 0)
(0.0593548 0.000152818 0)
(0.0587064 0.000144736 0)
(0.0580884 0.000137012 0)
(0.0575002 0.000129366 0)
(0.0569409 0.000121916 0)
(0.0564097 0.00011479 0)
(0.0559059 0.000107918 0)
(0.0554286 0.000101246 0)
(0.0549773 9.47889e-05 0)
(0.0545515 8.85445e-05 0)
(0.0541505 8.24674e-05 0)
(0.053774 7.65793e-05 0)
(0.0534213 7.09495e-05 0)
(0.0530918 6.55413e-05 0)
(0.052785 6.02748e-05 0)
(0.0525006 5.51459e-05 0)
(0.0522383 5.01258e-05 0)
(0.0519978 4.51865e-05 0)
(0.0517788 4.03788e-05 0)
(0.0515807 3.57529e-05 0)
(0.051403 3.13056e-05 0)
(0.0512451 2.7063e-05 0)
(0.0511061 2.30554e-05 0)
(0.0509853 1.92704e-05 0)
(0.0508818 1.57193e-05 0)
(0.0507947 1.24001e-05 0)
(0.0507228 9.33574e-06 0)
(0.0506652 6.5631e-06 0)
(0.0506205 4.1647e-06 0)
(0.0505873 2.1068e-06 0)
(0.050564 3.70706e-07 0)
(0.0505492 -1.17366e-06 0)
(0.050541 -2.22493e-06 0)
(0.0505378 -2.98592e-06 0)
(0.0505374 -3.24772e-06 0)
(0.0505386 -3.15628e-06 0)
(0.0505398 -2.77226e-06 0)
(0.0505402 -2.20175e-06 0)
(0.0505388 -1.54205e-06 0)
(0.0505356 -7.84412e-07 0)
(0.0505302 -1.53134e-07 0)
(0.0505232 4.05103e-07 0)
(0.0505149 8.1456e-07 0)
(0.0505058 1.09762e-06 0)
(0.0504966 1.21173e-06 0)
(0.0504876 1.20806e-06 0)
(0.0504796 1.10228e-06 0)
(0.0504724 9.32369e-07 0)
(0.0504666 7.42901e-07 0)
(0.0504618 5.37706e-07 0)
(0.0504585 3.83934e-07 0)
(0.0504558 2.27098e-07 0)
(0.0504544 1.84416e-07 0)
(0.0504529 9.55925e-08 0)
(0.0504524 1.73431e-07 0)
(0.0504513 1.34055e-07 0)
(0.0504509 1.69001e-07 0)
(0.192599 0.00759487 0)
(0.192924 0.0101778 0)
(0.193871 0.0117871 0)
(0.194903 0.012349 0)
(0.195422 0.012288 0)
(0.195105 0.0118702 0)
(0.193926 0.0111476 0)
(0.191974 0.010153 0)
(0.18938 0.00899457 0)
(0.186292 0.00783409 0)
(0.182847 0.00680064 0)
(0.179185 0.00594637 0)
(0.175424 0.00526037 0)
(0.171663 0.00471246 0)
(0.167951 0.00426601 0)
(0.164309 0.00388895 0)
(0.160751 0.00355938 0)
(0.157286 0.00326547 0)
(0.15392 0.00300049 0)
(0.150659 0.0027586 0)
(0.147504 0.00253529 0)
(0.144458 0.00232937 0)
(0.14152 0.00214181 0)
(0.138693 0.00197269 0)
(0.135977 0.00181953 0)
(0.133374 0.00167925 0)
(0.130881 0.00155123 0)
(0.128499 0.00143659 0)
(0.126225 0.00133531 0)
(0.124053 0.00124526 0)
(0.12198 0.00116323 0)
(0.12 0.00108738 0)
(0.118109 0.00101801 0)
(0.116303 0.000955569 0)
(0.114576 0.000899567 0)
(0.112925 0.000848696 0)
(0.111347 0.000801368 0)
(0.109836 0.000756917 0)
(0.108391 0.000714991 0)
(0.10701 0.000675012 0)
(0.105688 0.000637435 0)
(0.104423 0.000602841 0)
(0.103212 0.000570453 0)
(0.102052 0.000539686 0)
(0.100942 0.000510684 0)
(0.0998801 0.000482994 0)
(0.0988649 0.000456063 0)
(0.0978954 0.000430036 0)
(0.0969705 0.000405081 0)
(0.0960889 0.000381055 0)
(0.0952496 0.000357837 0)
(0.0944517 0.000335416 0)
(0.0936945 0.000313768 0)
(0.0929772 0.000292803 0)
(0.0922992 0.00027253 0)
(0.0916599 0.00025304 0)
(0.0910585 0.000234239 0)
(0.0904943 0.000215962 0)
(0.0899668 0.000198193 0)
(0.0894755 0.000180891 0)
(0.0890199 0.000164022 0)
(0.0885995 0.00014769 0)
(0.0882135 0.000131996 0)
(0.0878611 0.000116952 0)
(0.0875413 0.000102626 0)
(0.0872531 8.90868e-05 0)
(0.0869954 7.63257e-05 0)
(0.0867668 6.4378e-05 0)
(0.0865659 5.32601e-05 0)
(0.0863912 4.30033e-05 0)
(0.086241 3.36611e-05 0)
(0.0861132 2.53954e-05 0)
(0.0860061 1.81487e-05 0)
(0.0859171 1.20355e-05 0)
(0.0858441 7.07778e-06 0)
(0.0857843 3.356e-06 0)
(0.0857355 6.84116e-07 0)
(0.0856947 -7.49535e-07 0)
(0.0856602 -1.22589e-06 0)
(0.0856293 -8.90084e-07 0)
(0.0856009 -1.84712e-08 0)
(0.0855733 1.12198e-06 0)
(0.0855462 2.46025e-06 0)
(0.0855188 3.6493e-06 0)
(0.0854914 4.63694e-06 0)
(0.0854642 5.2332e-06 0)
(0.0854375 5.51966e-06 0)
(0.0854123 5.43302e-06 0)
(0.0853885 5.07654e-06 0)
(0.0853672 4.50777e-06 0)
(0.0853479 3.80414e-06 0)
(0.0853318 3.08385e-06 0)
(0.0853176 2.3413e-06 0)
(0.0853066 1.75029e-06 0)
(0.0852971 1.16734e-06 0)
(0.0852902 8.74771e-07 0)
(0.0852843 5.22034e-07 0)
(0.08528 5.22049e-07 0)
(0.0852768 4.13365e-07 0)
(0.0852729 3.84568e-07 0)
(0.193786 0.00719282 0)
(0.194059 0.00897741 0)
(0.194923 0.0104314 0)
(0.19628 0.0112075 0)
(0.197738 0.0113973 0)
(0.198953 0.0112039 0)
(0.199757 0.0107441 0)
(0.2001 0.0100804 0)
(0.199987 0.00928347 0)
(0.199456 0.00845131 0)
(0.198564 0.00767786 0)
(0.197391 0.00701672 0)
(0.196022 0.00647544 0)
(0.194527 0.00603254 0)
(0.192948 0.00566049 0)
(0.191306 0.00533556 0)
(0.189608 0.00504151 0)
(0.187863 0.00476958 0)
(0.186077 0.00451484 0)
(0.184254 0.00427315 0)
(0.182403 0.00404227 0)
(0.180529 0.00382304 0)
(0.178638 0.00361754 0)
(0.176735 0.00342606 0)
(0.174824 0.00324567 0)
(0.172909 0.00307261 0)
(0.170992 0.00290596 0)
(0.169082 0.00274773 0)
(0.167187 0.00260011 0)
(0.165315 0.00246313 0)
(0.163473 0.00233476 0)
(0.161662 0.00221365 0)
(0.159881 0.00210008 0)
(0.15813 0.00199401 0)
(0.156407 0.00189438 0)
(0.154715 0.0017998 0)
(0.153057 0.00170953 0)
(0.151435 0.00162374 0)
(0.149854 0.00154227 0)
(0.148316 0.00146462 0)
(0.14682 0.00139134 0)
(0.145364 0.00132244 0)
(0.143949 0.00125649 0)
(0.142573 0.00119311 0)
(0.141236 0.00113276 0)
(0.139938 0.00107484 0)
(0.138683 0.00101868 0)
(0.137469 0.000964468 0)
(0.136299 0.000912309 0)
(0.135172 0.000861917 0)
(0.134087 0.00081311 0)
(0.133044 0.000765776 0)
(0.132043 0.000719764 0)
(0.131084 0.000674962 0)
(0.130167 0.000631466 0)
(0.129292 0.000589462 0)
(0.128459 0.000548864 0)
(0.127667 0.000509431 0)
(0.126918 0.000471089 0)
(0.126211 0.000433735 0)
(0.125546 0.000397301 0)
(0.124922 0.000361931 0)
(0.124339 0.000327811 0)
(0.123797 0.000294994 0)
(0.123294 0.000263576 0)
(0.122829 0.000233691 0)
(0.122402 0.000205412 0)
(0.122012 0.000178818 0)
(0.121656 0.000153911 0)
(0.121335 0.000130772 0)
(0.121046 0.000109526 0)
(0.120787 9.04587e-05 0)
(0.120556 7.34684e-05 0)
(0.120352 5.87026e-05 0)
(0.120171 4.61849e-05 0)
(0.120011 3.61838e-05 0)
(0.119869 2.85177e-05 0)
(0.119743 2.30679e-05 0)
(0.119631 1.95131e-05 0)
(0.11953 1.76219e-05 0)
(0.119437 1.69313e-05 0)
(0.119352 1.70599e-05 0)
(0.119273 1.765e-05 0)
(0.119199 1.82723e-05 0)
(0.119129 1.87504e-05 0)
(0.119063 1.87553e-05 0)
(0.119001 1.8325e-05 0)
(0.118944 1.73566e-05 0)
(0.11889 1.59622e-05 0)
(0.118842 1.4258e-05 0)
(0.118797 1.23359e-05 0)
(0.118758 1.04171e-05 0)
(0.118723 8.49592e-06 0)
(0.118693 6.83007e-06 0)
(0.118667 5.29115e-06 0)
(0.118644 4.14632e-06 0)
(0.118627 3.18063e-06 0)
(0.118609 2.52438e-06 0)
(0.1186 2.18554e-06 0)
(0.118583 1.66437e-06 0)
(0.194789 0.00690367 0)
(0.19503 0.00821953 0)
(0.195659 0.00941142 0)
(0.196699 0.0102026 0)
(0.197962 0.0105142 0)
(0.199198 0.0104451 0)
(0.200233 0.0101189 0)
(0.200999 0.00962418 0)
(0.201483 0.00902604 0)
(0.2017 0.00838845 0)
(0.201677 0.00777581 0)
(0.201459 0.00723267 0)
(0.201101 0.0067754 0)
(0.200654 0.00639693 0)
(0.200153 0.00607922 0)
(0.199612 0.00580333 0)
(0.199037 0.00555491 0)
(0.198428 0.00532539 0)
(0.197783 0.00510974 0)
(0.197099 0.00490382 0)
(0.196378 0.00470552 0)
(0.19562 0.00451561 0)
(0.194829 0.00433609 0)
(0.194006 0.00416841 0)
(0.193152 0.00401121 0)
(0.192263 0.00386106 0)
(0.191339 0.00371574 0)
(0.190381 0.00357465 0)
(0.189391 0.00343795 0)
(0.188376 0.00330513 0)
(0.187343 0.00317504 0)
(0.1863 0.00304922 0)
(0.185251 0.00293135 0)
(0.184195 0.00282288 0)
(0.183129 0.00272197 0)
(0.18205 0.00262485 0)
(0.180957 0.00252842 0)
(0.179849 0.00243197 0)
(0.178733 0.00233527 0)
(0.177618 0.00223937 0)
(0.176513 0.002148 0)
(0.17542 0.00206285 0)
(0.174338 0.00198179 0)
(0.173264 0.00190342 0)
(0.172194 0.0018271 0)
(0.171127 0.00175101 0)
(0.170068 0.00167443 0)
(0.169021 0.00159862 0)
(0.167991 0.00152454 0)
(0.166983 0.00145226 0)
(0.165997 0.0013818 0)
(0.165034 0.00131315 0)
(0.164093 0.00124593 0)
(0.163175 0.00117976 0)
(0.16228 0.00111461 0)
(0.16141 0.00105058 0)
(0.160565 0.000987587 0)
(0.159747 0.000925511 0)
(0.158958 0.000864501 0)
(0.158199 0.000804634 0)
(0.157473 0.000746028 0)
(0.15678 0.0006889 0)
(0.156121 0.00063345 0)
(0.155495 0.000579785 0)
(0.154902 0.000528045 0)
(0.154342 0.000478276 0)
(0.153814 0.000430558 0)
(0.153318 0.000385141 0)
(0.152854 0.000342117 0)
(0.152421 0.000301638 0)
(0.152018 0.000263925 0)
(0.151645 0.000229404 0)
(0.151302 0.000197991 0)
(0.150985 0.000169949 0)
(0.150694 0.000145342 0)
(0.150427 0.000124496 0)
(0.150182 0.000107088 0)
(0.149956 9.31915e-05 0)
(0.149749 8.23263e-05 0)
(0.149558 7.42526e-05 0)
(0.149381 6.8254e-05 0)
(0.149218 6.38948e-05 0)
(0.149066 6.06166e-05 0)
(0.148926 5.79181e-05 0)
(0.148794 5.54105e-05 0)
(0.148673 5.26936e-05 0)
(0.148559 4.96794e-05 0)
(0.148454 4.61982e-05 0)
(0.148356 4.23423e-05 0)
(0.148267 3.81419e-05 0)
(0.148185 3.38653e-05 0)
(0.148109 2.94505e-05 0)
(0.148043 2.54144e-05 0)
(0.147979 2.13348e-05 0)
(0.147929 1.81053e-05 0)
(0.147874 1.4695e-05 0)
(0.14784 1.25847e-05 0)
(0.147791 9.8846e-06 0)
(0.147774 8.97395e-06 0)
(0.147725 6.79479e-06 0)
(0.195654 0.00666824 0)
(0.195873 0.00769986 0)
(0.196352 0.00866022 0)
(0.197121 0.00938176 0)
(0.198094 0.00975624 0)
(0.199113 0.00979597 0)
(0.200033 0.00958621 0)
(0.200773 0.00921591 0)
(0.201308 0.00875155 0)
(0.201648 0.00824373 0)
(0.201814 0.00773757 0)
(0.201837 0.00726947 0)
(0.20176 0.00685952 0)
(0.201623 0.00651024 0)
(0.201454 0.00621259 0)
(0.201272 0.00595373 0)
(0.201084 0.00572176 0)
(0.200893 0.00550829 0)
(0.200693 0.00530834 0)
(0.200481 0.00511783 0)
(0.200254 0.00493418 0)
(0.200011 0.00475766 0)
(0.199755 0.0045905 0)
(0.199485 0.00443535 0)
(0.199201 0.00429264 0)
(0.1989 0.00416004 0)
(0.198579 0.00403477 0)
(0.198236 0.00391428 0)
(0.197869 0.00379666 0)
(0.197477 0.00368003 0)
(0.197066 0.0035624 0)
(0.196639 0.0034453 0)
(0.196204 0.00333367 0)
(0.19576 0.0032312 0)
(0.195308 0.00313867 0)
(0.194843 0.00305362 0)
(0.194359 0.00297235 0)
(0.193851 0.00289164 0)
(0.193316 0.00280699 0)
(0.192761 0.00271612 0)
(0.192194 0.00262343 0)
(0.191624 0.00253398 0)
(0.191057 0.00244939 0)
(0.19049 0.00237143 0)
(0.189919 0.00229986 0)
(0.189333 0.00222964 0)
(0.188731 0.00215611 0)
(0.188114 0.00207873 0)
(0.18749 0.00199912 0)
(0.186866 0.00191913 0)
(0.186245 0.00184031 0)
(0.185629 0.00176315 0)
(0.185017 0.00168733 0)
(0.18441 0.0016125 0)
(0.183809 0.00153883 0)
(0.183213 0.00146635 0)
(0.182622 0.00139435 0)
(0.182035 0.00132202 0)
(0.181454 0.00124915 0)
(0.180881 0.00117573 0)
(0.18032 0.00110232 0)
(0.179773 0.00102978 0)
(0.179243 0.000958772 0)
(0.178731 0.000889666 0)
(0.178238 0.000822874 0)
(0.177763 0.000758426 0)
(0.177305 0.000696219 0)
(0.176865 0.000636358 0)
(0.176443 0.000578855 0)
(0.176038 0.000523828 0)
(0.175651 0.000471613 0)
(0.175282 0.000422865 0)
(0.174932 0.00037759 0)
(0.1746 0.000336264 0)
(0.174288 0.000299004 0)
(0.173993 0.000266433 0)
(0.173716 0.000237997 0)
(0.173454 0.000214039 0)
(0.173208 0.000193788 0)
(0.172976 0.00017726 0)
(0.172758 0.000163327 0)
(0.172552 0.000151816 0)
(0.172358 0.000141866 0)
(0.172176 0.000133086 0)
(0.172004 0.000124949 0)
(0.171844 0.000116902 0)
(0.171693 0.000109087 0)
(0.171551 0.000100762 0)
(0.17142 9.2769e-05 0)
(0.171295 8.39811e-05 0)
(0.171184 7.61608e-05 0)
(0.171074 6.72944e-05 0)
(0.170983 6.03324e-05 0)
(0.170884 5.18944e-05 0)
(0.170815 4.6423e-05 0)
(0.170724 3.87781e-05 0)
(0.170676 3.51212e-05 0)
(0.170589 2.83636e-05 0)
(0.170565 2.65649e-05 0)
(0.170477 2.06316e-05 0)
(0.196421 0.00645891 0)
(0.196614 0.00728767 0)
(0.196985 0.00806107 0)
(0.197554 0.00868092 0)
(0.198282 0.00906338 0)
(0.199078 0.0091847 0)
(0.199837 0.0090832 0)
(0.200481 0.00882507 0)
(0.200973 0.00847111 0)
(0.20131 0.00806675 0)
(0.201506 0.00764827 0)
(0.201586 0.00724574 0)
(0.201582 0.00687857 0)
(0.201527 0.00655332 0)
(0.201444 0.00626801 0)
(0.201352 0.00601657 0)
(0.201262 0.0057905 0)
(0.201178 0.00558188 0)
(0.201099 0.00538578 0)
(0.201019 0.00519837 0)
(0.200936 0.00501717 0)
(0.200849 0.00484274 0)
(0.20076 0.00467763 0)
(0.200669 0.00452433 0)
(0.200575 0.00438349 0)
(0.200477 0.00425411 0)
(0.200376 0.00413466 0)
(0.20027 0.00402248 0)
(0.200158 0.00391453 0)
(0.200035 0.0038076 0)
(0.199902 0.00369833 0)
(0.199762 0.00358694 0)
(0.199617 0.00347781 0)
(0.199471 0.00337595 0)
(0.199322 0.00328507 0)
(0.199173 0.00320538 0)
(0.199019 0.00313407 0)
(0.198854 0.00306706 0)
(0.198671 0.00299708 0)
(0.198471 0.00291791 0)
(0.198259 0.00283138 0)
(0.198039 0.00274264 0)
(0.197818 0.00265562 0)
(0.197602 0.00257604 0)
(0.197387 0.00250758 0)
(0.197166 0.00244637 0)
(0.196931 0.00238503 0)
(0.196679 0.00231821 0)
(0.196411 0.00224432 0)
(0.196134 0.00216577 0)
(0.195855 0.0020866 0)
(0.195574 0.00200903 0)
(0.195291 0.00193274 0)
(0.195006 0.00185681 0)
(0.19472 0.00178168 0)
(0.194434 0.00170833 0)
(0.194147 0.00163659 0)
(0.193856 0.0015653 0)
(0.193559 0.00149321 0)
(0.193258 0.00141914 0)
(0.192953 0.00134302 0)
(0.192647 0.00126576 0)
(0.192343 0.00118854 0)
(0.192044 0.00111228 0)
(0.191752 0.00103806 0)
(0.191466 0.000966377 0)
(0.191187 0.000897404 0)
(0.190915 0.000831199 0)
(0.190649 0.000767606 0)
(0.190387 0.000706409 0)
(0.190132 0.000647683 0)
(0.189882 0.000592031 0)
(0.18964 0.000539372 0)
(0.189403 0.000490555 0)
(0.189176 0.000445616 0)
(0.188956 0.000405723 0)
(0.188746 0.000369917 0)
(0.188543 0.000339146 0)
(0.188349 0.000312129 0)
(0.188162 0.000289415 0)
(0.187982 0.000269355 0)
(0.187811 0.000252031 0)
(0.187645 0.000236497 0)
(0.187488 0.000222102 0)
(0.187337 0.000208988 0)
(0.187193 0.000195478 0)
(0.187057 0.000183288 0)
(0.186924 0.000169554 0)
(0.186805 0.000157733 0)
(0.186682 0.000143578 0)
(0.186579 0.000132515 0)
(0.186465 0.000118269 0)
(0.186381 0.000108667 0)
(0.186274 9.48568e-05 0)
(0.186209 8.74657e-05 0)
(0.186106 7.45818e-05 0)
(0.186061 6.96664e-05 0)
(0.185959 5.78296e-05 0)
(0.185936 5.52859e-05 0)
(0.185831 4.44174e-05 0)
(0.197111 0.0062632 0)
(0.197275 0.00693682 0)
(0.197559 0.00756323 0)
(0.197978 0.00808522 0)
(0.198513 0.00844553 0)
(0.199113 0.0086154 0)
(0.199711 0.00860298 0)
(0.200244 0.00844516 0)
(0.200671 0.00818827 0)
(0.200978 0.00787283 0)
(0.201172 0.00753108 0)
(0.201271 0.00718898 0)
(0.201297 0.00686437 0)
(0.201274 0.00656581 0)
(0.201225 0.00629559 0)
(0.201165 0.00605223 0)
(0.201104 0.0058304 0)
(0.201049 0.00562389 0)
(0.201001 0.00542868 0)
(0.200955 0.00524169 0)
(0.200908 0.00506084 0)
(0.20086 0.0048868 0)
(0.200813 0.00472178 0)
(0.200765 0.00456753 0)
(0.200716 0.00442443 0)
(0.200667 0.0042926 0)
(0.200621 0.00417198 0)
(0.200579 0.0040603 0)
(0.200539 0.00395383 0)
(0.200497 0.00384893 0)
(0.200452 0.00374223 0)
(0.200405 0.00363326 0)
(0.200356 0.00352518 0)
(0.200307 0.0034225 0)
(0.200257 0.00332965 0)
(0.200209 0.00324853 0)
(0.200166 0.0031778 0)
(0.200123 0.00311421 0)
(0.200075 0.00305072 0)
(0.200022 0.00297949 0)
(0.199963 0.00289902 0)
(0.199897 0.00281235 0)
(0.199827 0.00272385 0)
(0.19976 0.00264088 0)
(0.199698 0.00256989 0)
(0.199637 0.00251037 0)
(0.199574 0.00245587 0)
(0.199503 0.00239814 0)
(0.199422 0.00233155 0)
(0.199334 0.00225674 0)
(0.199242 0.00217894 0)
(0.199148 0.00210226 0)
(0.199052 0.00202705 0)
(0.198954 0.00195183 0)
(0.198855 0.00187665 0)
(0.198756 0.00180311 0)
(0.198657 0.00173223 0)
(0.198556 0.00166347 0)
(0.198452 0.00159528 0)
(0.198341 0.0015254 0)
(0.198225 0.00145275 0)
(0.198103 0.00137745 0)
(0.197977 0.00130062 0)
(0.197848 0.00122332 0)
(0.19772 0.00114718 0)
(0.197591 0.00107304 0)
(0.197466 0.00100166 0)
(0.197341 0.000933347 0)
(0.19722 0.000868147 0)
(0.197098 0.000805737 0)
(0.196978 0.000745903 0)
(0.196858 0.000689077 0)
(0.19674 0.000634741 0)
(0.196622 0.000584059 0)
(0.196507 0.000536659 0)
(0.196393 0.000494364 0)
(0.196282 0.000455674 0)
(0.196173 0.000422293 0)
(0.196066 0.000392407 0)
(0.195962 0.00036707 0)
(0.19586 0.000344412 0)
(0.195761 0.000324311 0)
(0.195664 0.000306346 0)
(0.195568 0.00028873 0)
(0.195478 0.000273382 0)
(0.195387 0.000256407 0)
(0.195303 0.000242309 0)
(0.195216 0.000224905 0)
(0.195141 0.000211342 0)
(0.195057 0.000193281 0)
(0.194992 0.000180691 0)
(0.194911 0.000162362 0)
(0.194857 0.000151469 0)
(0.194777 0.000133389 0)
(0.194737 0.000125008 0)
(0.194657 0.000108051 0)
(0.19463 0.000102559 0)
(0.194549 8.6971e-05 0)
(0.194536 8.4169e-05 0)
(0.194451 6.96078e-05 0)
(0.197705 0.00609224 0)
(0.197839 0.00665211 0)
(0.198057 0.00717186 0)
(0.198366 0.00761539 0)
(0.198759 0.00794491 0)
(0.199205 0.00813603 0)
(0.199661 0.0081841 0)
(0.200083 0.00810469 0)
(0.200436 0.00792801 0)
(0.200701 0.00768745 0)
(0.200879 0.0074114 0)
(0.200981 0.00712212 0)
(0.20102 0.00683643 0)
(0.201018 0.0065647 0)
(0.20099 0.00631133 0)
(0.200949 0.00607707 0)
(0.200905 0.0058597 0)
(0.200865 0.00565544 0)
(0.20083 0.00546147 0)
(0.200796 0.00527568 0)
(0.200763 0.00509634 0)
(0.200729 0.00492336 0)
(0.200696 0.00475831 0)
(0.200661 0.00460301 0)
(0.200624 0.00445809 0)
(0.200588 0.00432377 0)
(0.200555 0.00420016 0)
(0.200528 0.00408531 0)
(0.200504 0.00397588 0)
(0.200482 0.00386908 0)
(0.20046 0.00376248 0)
(0.200438 0.00365516 0)
(0.200416 0.00354858 0)
(0.200391 0.00344592 0)
(0.200364 0.0033512 0)
(0.200339 0.00326679 0)
(0.200319 0.00319252 0)
(0.200305 0.00312626 0)
(0.200292 0.0030622 0)
(0.20028 0.00299303 0)
(0.200268 0.00291572 0)
(0.200251 0.00283157 0)
(0.200229 0.00274423 0)
(0.200206 0.00266021 0)
(0.200186 0.002586 0)
(0.200167 0.00252343 0)
(0.200152 0.00246869 0)
(0.200139 0.00241374 0)
(0.200123 0.00235102 0)
(0.200102 0.0022792 0)
(0.200078 0.00220293 0)
(0.200052 0.00212701 0)
(0.200025 0.00205249 0)
(0.199996 0.00197777 0)
(0.199967 0.00190244 0)
(0.199939 0.00182801 0)
(0.199911 0.00175635 0)
(0.199884 0.00168778 0)
(0.199857 0.00162122 0)
(0.199828 0.00155411 0)
(0.199795 0.0014849 0)
(0.199758 0.00141291 0)
(0.199716 0.00133886 0)
(0.19967 0.00126336 0)
(0.199622 0.00118811 0)
(0.199571 0.00111393 0)
(0.199521 0.00104206 0)
(0.199469 0.00097293 0)
(0.19942 0.000906946 0)
(0.19937 0.000843935 0)
(0.199323 0.000783765 0)
(0.199274 0.00072693 0)
(0.199228 0.000672529 0)
(0.19918 0.000621919 0)
(0.199135 0.000574145 0)
(0.199088 0.000531676 0)
(0.199042 0.000492455 0)
(0.198996 0.000458881 0)
(0.198951 0.000428531 0)
(0.198905 0.000402858 0)
(0.198859 0.000379891 0)
(0.198813 0.000359123 0)
(0.198767 0.000340857 0)
(0.198721 0.000321965 0)
(0.198677 0.000306247 0)
(0.198632 0.000287676 0)
(0.198591 0.000273341 0)
(0.198546 0.00025425 0)
(0.198509 0.00024043 0)
(0.198464 0.000220499 0)
(0.198432 0.000207574 0)
(0.198387 0.000187157 0)
(0.198361 0.000175928 0)
(0.198315 0.000155562 0)
(0.198297 0.00014683 0)
(0.198251 0.000127782 0)
(0.198239 0.000122139 0)
(0.198192 0.000104962 0)
(0.198186 0.000102153 0)
(0.198136 8.63336e-05 0)
(0.198276 0.00595208 0)
(0.198378 0.00642747 0)
(0.198534 0.00686757 0)
(0.198751 0.00724812 0)
(0.199025 0.00754414 0)
(0.199338 0.00773656 0)
(0.199663 0.00781796 0)
(0.199973 0.00779355 0)
(0.200242 0.00768038 0)
(0.200454 0.00750224 0)
(0.200604 0.00728217 0)
(0.200697 0.00703926 0)
(0.200741 0.00678951 0)
(0.200751 0.00654415 0)
(0.20074 0.00630841 0)
(0.200715 0.0060847 0)
(0.200685 0.00587413 0)
(0.200658 0.00567498 0)
(0.200634 0.00548431 0)
(0.200611 0.00530071 0)
(0.200586 0.00512379 0)
(0.200562 0.0049532 0)
(0.200538 0.00478965 0)
(0.200513 0.00463489 0)
(0.200486 0.00448978 0)
(0.200458 0.0043541 0)
(0.200433 0.00422744 0)
(0.200413 0.00410857 0)
(0.200397 0.00399538 0)
(0.200383 0.00388595 0)
(0.200368 0.00377868 0)
(0.200355 0.00367239 0)
(0.200342 0.00356737 0)
(0.200326 0.00346588 0)
(0.200307 0.0033711 0)
(0.200288 0.00328466 0)
(0.200275 0.00320634 0)
(0.200266 0.0031348 0)
(0.20026 0.00306636 0)
(0.200258 0.00299558 0)
(0.20026 0.00291924 0)
(0.200258 0.00283769 0)
(0.20025 0.00275362 0)
(0.200241 0.00267146 0)
(0.200231 0.00259596 0)
(0.20022 0.00252975 0)
(0.200215 0.00247126 0)
(0.200215 0.00241435 0)
(0.200217 0.0023522 0)
(0.200216 0.0022825 0)
(0.200213 0.00220827 0)
(0.200208 0.00213347 0)
(0.200202 0.00205951 0)
(0.200195 0.00198517 0)
(0.200188 0.00190996 0)
(0.200181 0.00183497 0)
(0.200175 0.00176226 0)
(0.20017 0.00169254 0)
(0.200167 0.00162548 0)
(0.200164 0.00155892 0)
(0.200162 0.00149145 0)
(0.200157 0.00142185 0)
(0.200149 0.00135072 0)
(0.200137 0.00127795 0)
(0.200122 0.00120497 0)
(0.200103 0.00113216 0)
(0.200084 0.00106106 0)
(0.200062 0.000991915 0)
(0.200042 0.000925466 0)
(0.200021 0.000861681 0)
(0.200005 0.000800609 0)
(0.199987 0.000743044 0)
(0.199973 0.000687977 0)
(0.199958 0.00063717 0)
(0.199946 0.000588943 0)
(0.199932 0.000546506 0)
(0.19992 0.000507098 0)
(0.199906 0.000473876 0)
(0.199892 0.000443601 0)
(0.199878 0.000418252 0)
(0.199862 0.000395651 0)
(0.199846 0.000374998 0)
(0.199829 0.000357117 0)
(0.199812 0.000337765 0)
(0.199795 0.000322259 0)
(0.199777 0.000302896 0)
(0.199761 0.000288756 0)
(0.199743 0.000268868 0)
(0.199728 0.000255193 0)
(0.199709 0.000234399 0)
(0.199697 0.000221488 0)
(0.199677 0.000200004 0)
(0.199668 0.00018864 0)
(0.199648 0.000167037 0)
(0.199642 0.000158021 0)
(0.199622 0.000137937 0)
(0.19962 0.000132059 0)
(0.199599 0.00011444 0)
(0.199599 0.000111585 0)
(0.199577 9.57056e-05 0)
(0.198891 0.00583737 0)
(0.198954 0.00624572 0)
(0.199047 0.00662276 0)
(0.199174 0.0069518 0)
(0.199334 0.00721615 0)
(0.199519 0.00740133 0)
(0.199715 0.00750008 0)
(0.199905 0.00751316 0)
(0.200077 0.00744869 0)
(0.200218 0.00732112 0)
(0.200322 0.00714772 0)
(0.200391 0.00694516 0)
(0.20043 0.00672791 0)
(0.200446 0.00650697 0)
(0.200445 0.00628868 0)
(0.200435 0.00607666 0)
(0.20042 0.00587378 0)
(0.200406 0.00568019 0)
(0.200392 0.00549353 0)
(0.200379 0.00531303 0)
(0.200365 0.00513958 0)
(0.200351 0.00497318 0)
(0.200338 0.00481323 0)
(0.200325 0.00466004 0)
(0.200308 0.00451474 0)
(0.200291 0.00437805 0)
(0.200275 0.00424966 0)
(0.200262 0.00412858 0)
(0.200253 0.0040129 0)
(0.200244 0.00390106 0)
(0.200235 0.0037927 0)
(0.200228 0.00368719 0)
(0.200221 0.00358394 0)
(0.200213 0.00348416 0)
(0.200201 0.00338992 0)
(0.200188 0.00330244 0)
(0.200179 0.00322119 0)
(0.200174 0.00314445 0)
(0.20017 0.00307069 0)
(0.20017 0.00299737 0)
(0.200174 0.00292101 0)
(0.200176 0.00284124 0)
(0.200174 0.00276083 0)
(0.20017 0.00268203 0)
(0.200165 0.00260686 0)
(0.200157 0.0025378 0)
(0.200153 0.00247476 0)
(0.200154 0.0024137 0)
(0.200157 0.00235002 0)
(0.20016 0.0022817 0)
(0.200162 0.00220984 0)
(0.200162 0.00213645 0)
(0.20016 0.00206273 0)
(0.200159 0.00198835 0)
(0.200157 0.00191318 0)
(0.200155 0.00183784 0)
(0.200153 0.00176426 0)
(0.200152 0.00169306 0)
(0.200154 0.00162448 0)
(0.200156 0.0015571 0)
(0.20016 0.00149025 0)
(0.200162 0.0014223 0)
(0.200165 0.00135379 0)
(0.200163 0.00128394 0)
(0.20016 0.00121386 0)
(0.200153 0.00114309 0)
(0.200145 0.00107334 0)
(0.200134 0.00100433 0)
(0.200125 0.000937328 0)
(0.200113 0.000872365 0)
(0.200106 0.000809855 0)
(0.200097 0.000750706 0)
(0.200093 0.000694225 0)
(0.200087 0.000642685 0)
(0.200086 0.000593777 0)
(0.200083 0.000551361 0)
(0.200082 0.000511839 0)
(0.20008 0.000479312 0)
(0.200078 0.000449265 0)
(0.200076 0.000424676 0)
(0.200072 0.000402494 0)
(0.200069 0.000382366 0)
(0.200063 0.000364818 0)
(0.200058 0.00034533 0)
(0.200052 0.000329994 0)
(0.200046 0.000310103 0)
(0.20004 0.000296067 0)
(0.200034 0.000275634 0)
(0.200029 0.000261988 0)
(0.200022 0.000240772 0)
(0.200018 0.000227687 0)
(0.200011 0.0002057 0)
(0.200008 0.000194005 0)
(0.200001 0.000171684 0)
(0.2 0.000162355 0)
(0.199994 0.000141737 0)
(0.199994 0.000135735 0)
(0.199988 0.000118103 0)
(0.199988 0.000115247 0)
(0.199982 9.97048e-05 0)
(0.199568 0.00577195 0)
(0.199586 0.00613924 0)
(0.199613 0.0064774 0)
(0.199652 0.0067741 0)
(0.199703 0.00701659 0)
(0.199762 0.00719345 0)
(0.199827 0.00729763 0)
(0.199891 0.00732805 0)
(0.19995 0.00728933 0)
(0.200001 0.00719098 0)
(0.20004 0.00704621 0)
(0.200069 0.00686916 0)
(0.200088 0.00667208 0)
(0.200097 0.00646555 0)
(0.2001 0.00625814 0)
(0.200099 0.00605451 0)
(0.200097 0.00585702 0)
(0.200095 0.00566681 0)
(0.200092 0.00548337 0)
(0.20009 0.00530628 0)
(0.200088 0.00513584 0)
(0.200086 0.0049722 0)
(0.200082 0.004815 0)
(0.200079 0.00466385 0)
(0.200074 0.00451959 0)
(0.20007 0.00438313 0)
(0.200066 0.00425399 0)
(0.200064 0.00413139 0)
(0.200062 0.0040138 0)
(0.20006 0.00390013 0)
(0.200058 0.00379142 0)
(0.200057 0.00368751 0)
(0.200056 0.00358685 0)
(0.200054 0.00348945 0)
(0.20005 0.00339622 0)
(0.200046 0.00330834 0)
(0.200044 0.00322539 0)
(0.200043 0.0031446 0)
(0.200043 0.0030658 0)
(0.200045 0.00298971 0)
(0.200048 0.00291307 0)
(0.200051 0.00283468 0)
(0.200051 0.00275788 0)
(0.200051 0.00268335 0)
(0.20005 0.00261022 0)
(0.200047 0.00254021 0)
(0.200046 0.00247399 0)
(0.200047 0.00240894 0)
(0.200049 0.00234278 0)
(0.200052 0.00227462 0)
(0.200054 0.00220462 0)
(0.200055 0.00213289 0)
(0.200056 0.00206002 0)
(0.200056 0.00198616 0)
(0.200056 0.00191168 0)
(0.200056 0.00183652 0)
(0.200056 0.00176234 0)
(0.200056 0.00168939 0)
(0.200058 0.00161847 0)
(0.200061 0.00154867 0)
(0.200065 0.00148072 0)
(0.200068 0.0014128 0)
(0.200073 0.00134606 0)
(0.200074 0.00127886 0)
(0.200076 0.00121235 0)
(0.200074 0.00114474 0)
(0.200072 0.00107805 0)
(0.200067 0.00101076 0)
(0.200065 0.000944434 0)
(0.200059 0.000878913 0)
(0.200057 0.000815076 0)
(0.200053 0.000754198 0)
(0.200054 0.000695433 0)
(0.200052 0.000642408 0)
(0.200054 0.000591445 0)
(0.200055 0.000548512 0)
(0.200058 0.000507814 0)
(0.200059 0.00047614 0)
(0.200061 0.00044603 0)
(0.200063 0.000422917 0)
(0.200063 0.000401426 0)
(0.200064 0.000382544 0)
(0.200062 0.000365904 0)
(0.200063 0.000346797 0)
(0.20006 0.000332288 0)
(0.20006 0.00031222 0)
(0.200057 0.00029874 0)
(0.200056 0.00027807 0)
(0.200054 0.000264678 0)
(0.200052 0.000243384 0)