/*--------------------------------*- C++ -*----------------------------------*\
| =========                 |                                                 |
| \\      /  F ield         | OpenFOAM: The Open Source CFD Toolbox           |
|  \\    /   O peration     | Version:  2.3.0                                 |
|   \\  /    A nd           | Web:      www.OpenFOAM.org                      |
|    \\/     M anipulation  |                                                 |
\*---------------------------------------------------------------------------*/
FoamFile
{
    version     2.0;
    format      ascii;
    class       volVectorField;
    location    "0.35";
    object      U_0;
}
// * * * * * * * * * * * * * * * * * * * * * * * * * * * * * * * * * * * * * //

dimensions      [0 1 -1 0 0 0 0];

internalField   nonuniform List<vector> 
1500
(
(0.175957 0.00442089 0)
(0.155202 0.00605522 0)
(0.136315 0.006221 0)
(0.117846 0.00561071 0)
(0.0999929 0.00478798 0)
(0.0836482 0.00387241 0)
(0.069934 0.00287638 0)
(0.0592574 0.00182257 0)
(0.0513972 0.000903261 0)
(0.045781 0.000283415 0)
(0.0418186 -4.00551e-05 0)
(0.0390214 -0.000161354 0)
(0.0369976 -0.000170597 0)
(0.0354572 -0.000129668 0)
(0.0341945 -7.225e-05 0)
(0.033082 -1.79403e-05 0)
(0.0320524 2.36744e-05 0)
(0.0310764 5.06777e-05 0)
(0.0301459 6.52509e-05 0)
(0.0292634 7.0746e-05 0)
(0.0284342 7.04159e-05 0)
(0.0276621 6.70234e-05 0)
(0.0269468 6.253e-05 0)
(0.0262843 5.79504e-05 0)
(0.0256704 5.35166e-05 0)
(0.0251015 4.92038e-05 0)
(0.0245745 4.51966e-05 0)
(0.0240855 4.17784e-05 0)
(0.0236295 3.90181e-05 0)
(0.0232017 3.66915e-05 0)
(0.0227991 3.44665e-05 0)
(0.0224201 3.22703e-05 0)
(0.0220628 3.02956e-05 0)
(0.0217248 2.86692e-05 0)
(0.0214036 2.73328e-05 0)
(0.0210973 2.60979e-05 0)
(0.0208051 2.48367e-05 0)
(0.0205265 2.35994e-05 0)
(0.0202612 2.23697e-05 0)
(0.0200087 2.10902e-05 0)
(0.0197687 1.99209e-05 0)
(0.01954 1.89555e-05 0)
(0.0193217 1.80439e-05 0)
(0.0191134 1.71504e-05 0)
(0.0189147 1.63446e-05 0)
(0.018725 1.5554e-05 0)
(0.0185443 1.47143e-05 0)
(0.0183727 1.38839e-05 0)
(0.0182099 1.30998e-05 0)
(0.0180556 1.23406e-05 0)
(0.0179097 1.15961e-05 0)
(0.0177719 1.08745e-05 0)
(0.017642 1.01757e-05 0)
(0.01752 9.48986e-06 0)
(0.0174057 8.82972e-06 0)
(0.0172989 8.21455e-06 0)
(0.0171992 7.62739e-06 0)
(0.0171066 7.04599e-06 0)
(0.0170209 6.47159e-06 0)
(0.0169421 5.8939e-06 0)
(0.0168703 5.30677e-06 0)
(0.0168053 4.72709e-06 0)
(0.0167471 4.16491e-06 0)
(0.0166954 3.61567e-06 0)
(0.0166501 3.08625e-06 0)
(0.016611 2.58156e-06 0)
(0.0165776 2.09299e-06 0)
(0.0165498 1.62169e-06 0)
(0.0165273 1.17024e-06 0)
(0.0165098 7.56948e-07 0)
(0.0164971 3.98327e-07 0)
(0.0164886 1.08885e-07 0)
(0.0164839 -1.29372e-07 0)
(0.0164827 -3.91013e-07 0)
(0.0164845 -7.03279e-07 0)
(0.0164884 -8.62466e-07 0)
(0.016494 -9.7155e-07 0)
(0.0165003 -1.01785e-06 0)
(0.0165069 -9.94389e-07 0)
(0.016513 -9.04198e-07 0)
(0.0165184 -7.66637e-07 0)
(0.0165224 -5.98345e-07 0)
(0.0165252 -4.32185e-07 0)
(0.0165267 -2.91879e-07 0)
(0.0165269 -1.44647e-07 0)
(0.016526 -2.23795e-08 0)
(0.0165244 7.16886e-08 0)
(0.0165224 1.2391e-07 0)
(0.0165202 1.49088e-07 0)
(0.016518 1.4817e-07 0)
(0.0165161 1.31374e-07 0)
(0.0165145 1.08033e-07 0)
(0.0165132 8.0504e-08 0)
(0.0165124 6.25193e-08 0)
(0.0165117 4.29386e-08 0)
(0.0165114 4.4853e-08 0)
(0.016511 3.42666e-08 0)
(0.0165109 5.6531e-08 0)
(0.0165104 4.38147e-08 0)
(0.0165102 5.66117e-08 0)
(0.191356 0.00786642 0)
(0.189618 0.011026 0)
(0.187187 0.0121605 0)
(0.183436 0.0120392 0)
(0.178106 0.0114236 0)
(0.171376 0.0105299 0)
(0.163869 0.0093625 0)
(0.156046 0.00791845 0)
(0.148268 0.00635463 0)
(0.140752 0.00489537 0)
(0.133633 0.0036879 0)
(0.127016 0.00276687 0)
(0.120961 0.00210249 0)
(0.115498 0.00164843 0)
(0.110596 0.0013493 0)
(0.106197 0.00115283 0)
(0.102236 0.001019 0)
(0.0986538 0.000921129 0)
(0.0953976 0.000842275 0)
(0.0924249 0.000772387 0)
(0.089702 0.000707242 0)
(0.0872013 0.000646873 0)
(0.0848982 0.000592486 0)
(0.0827696 0.000544107 0)
(0.0807959 0.000500453 0)
(0.0789617 0.000460474 0)
(0.077254 0.000424351 0)
(0.0756603 0.000392643 0)
(0.0741677 0.000365241 0)
(0.0727651 0.00034119 0)
(0.0714441 0.000319242 0)
(0.0701983 0.000298963 0)
(0.0690216 0.000280739 0)
(0.0679077 0.000264737 0)
(0.0668507 0.000250563 0)
(0.065846 0.000237398 0)
(0.06489 0.000224683 0)
(0.0639803 0.000212577 0)
(0.0631146 0.000201055 0)
(0.0622908 0.00018987 0)
(0.0615064 0.000179465 0)
(0.060759 0.000170096 0)
(0.0600465 0.000161206 0)
(0.0593671 0.000152615 0)
(0.0587195 0.000144542 0)
(0.0581025 0.000136759 0)
(0.0575154 0.000129041 0)
(0.0569574 0.000121557 0)
(0.0564276 0.000114416 0)
(0.0559252 0.000107531 0)
(0.0554494 0.000100851 0)
(0.0549997 9.43894e-05 0)
(0.0545755 8.81359e-05 0)
(0.0541763 8.20505e-05 0)
(0.0538014 7.61678e-05 0)
(0.0534504 7.05476e-05 0)
(0.0531227 6.51334e-05 0)
(0.0528178 5.985e-05 0)
(0.0525354 5.47002e-05 0)
(0.0522751 4.96538e-05 0)
(0.0520368 4.46937e-05 0)
(0.0518199 3.988e-05 0)
(0.051624 3.52559e-05 0)
(0.0514485 3.0814e-05 0)
(0.0512928 2.65832e-05 0)
(0.051156 2.25887e-05 0)
(0.0510373 1.88161e-05 0)
(0.0509359 1.52764e-05 0)
(0.0508508 1.19689e-05 0)
(0.0507809 8.92256e-06 0)
(0.0507252 6.18087e-06 0)
(0.0506822 3.81886e-06 0)
(0.0506507 1.79669e-06 0)
(0.0506289 5.63601e-08 0)
(0.0506154 -1.42322e-06 0)
(0.0506082 -2.45426e-06 0)
(0.0506057 -3.12466e-06 0)
(0.0506059 -3.32279e-06 0)
(0.0506075 -3.18288e-06 0)
(0.0506089 -2.75909e-06 0)
(0.0506093 -2.16469e-06 0)
(0.0506078 -1.49007e-06 0)
(0.0506045 -7.28451e-07 0)
(0.050599 -1.0547e-07 0)
(0.050592 4.42988e-07 0)
(0.0505836 8.33993e-07 0)
(0.0505746 1.09852e-06 0)
(0.0505656 1.19404e-06 0)
(0.0505568 1.17642e-06 0)
(0.050549 1.06028e-06 0)
(0.0505421 8.84998e-07 0)
(0.0505366 6.94053e-07 0)
(0.0505321 4.91217e-07 0)
(0.050529 3.40968e-07 0)
(0.0505265 1.91043e-07 0)
(0.0505253 1.51208e-07 0)
(0.050524 6.84326e-08 0)
(0.0505237 1.46746e-07 0)
(0.0505227 1.10397e-07 0)
(0.0505225 1.4583e-07 0)
(0.1926 0.00759518 0)
(0.192924 0.0101786 0)
(0.193871 0.0117883 0)
(0.194903 0.0123502 0)
(0.195422 0.0122884 0)
(0.195103 0.0118698 0)
(0.193924 0.0111467 0)
(0.191972 0.0101519 0)
(0.18938 0.00899375 0)
(0.186293 0.00783364 0)
(0.182849 0.00680065 0)
(0.179188 0.00594693 0)
(0.175426 0.00526126 0)
(0.171664 0.00471317 0)
(0.167951 0.00426607 0)
(0.164308 0.00388832 0)
(0.16075 0.00355856 0)
(0.157285 0.00326504 0)
(0.15392 0.00300049 0)
(0.150661 0.00275858 0)
(0.147507 0.00253503 0)
(0.144461 0.00232912 0)
(0.141523 0.00214189 0)
(0.138695 0.00197296 0)
(0.135979 0.0018195 0)
(0.133375 0.00167872 0)
(0.130883 0.0015506 0)
(0.128502 0.00143627 0)
(0.126228 0.00133532 0)
(0.124057 0.00124521 0)
(0.121985 0.00116276 0)
(0.120005 0.00108661 0)
(0.118115 0.00101731 0)
(0.116309 0.00095516 0)
(0.114582 0.000899417 0)
(0.112932 0.000848553 0)
(0.111354 0.000801024 0)
(0.109845 0.000756338 0)
(0.108401 0.000714163 0)
(0.107021 0.000674027 0)
(0.1057 0.000636534 0)
(0.104436 0.000602084 0)
(0.103226 0.000569742 0)
(0.102068 0.000539007 0)
(0.100959 0.00050999 0)
(0.0998985 0.000482158 0)
(0.098885 0.00045506 0)
(0.0979174 0.000428933 0)
(0.0969944 0.00040392 0)
(0.0961149 0.000379848 0)
(0.0952778 0.000356597 0)
(0.0944822 0.00033415 0)
(0.0937272 0.000312472 0)
(0.0930125 0.000291479 0)
(0.0923371 0.000271201 0)
(0.0917004 0.00025171 0)
(0.0911017 0.000232876 0)
(0.0905404 0.000214547 0)
(0.0900159 0.000196722 0)
(0.0895277 0.00017936 0)
(0.0890753 0.000162448 0)
(0.0886581 0.000146103 0)
(0.0882755 0.000130415 0)
(0.0879264 0.000115387 0)
(0.08761 0.000101093 0)
(0.0873252 8.75922e-05 0)
(0.0870708 7.48722e-05 0)
(0.0868455 6.29682e-05 0)
(0.0866478 5.18974e-05 0)
(0.0864762 4.16969e-05 0)
(0.086329 3.2437e-05 0)
(0.0862041 2.42675e-05 0)
(0.0860996 1.71261e-05 0)
(0.086013 1.11472e-05 0)
(0.0859421 6.33182e-06 0)
(0.0858841 2.72074e-06 0)
(0.0858369 2.41981e-07 0)
(0.0857973 -1.03239e-06 0)
(0.0857637 -1.38121e-06 0)
(0.0857334 -9.41355e-07 0)
(0.0857055 -5.31459e-09 0)
(0.0856782 1.17578e-06 0)
(0.0856513 2.52726e-06 0)
(0.0856241 3.70274e-06 0)
(0.0855969 4.65684e-06 0)
(0.08557 5.21147e-06 0)
(0.0855437 5.45583e-06 0)
(0.0855189 5.3291e-06 0)
(0.0854955 4.94329e-06 0)
(0.0854748 4.35497e-06 0)
(0.085456 3.64287e-06 0)
(0.0854404 2.9236e-06 0)
(0.0854267 2.18974e-06 0)
(0.0854162 1.61172e-06 0)
(0.0854071 1.04688e-06 0)
(0.0854007 7.67909e-07 0)
(0.0853951 4.30542e-07 0)
(0.0853911 4.40588e-07 0)
(0.0853882 3.36922e-07 0)
(0.0853847 3.15712e-07 0)
(0.193786 0.00719325 0)
(0.194059 0.00897832 0)
(0.194923 0.0104327 0)
(0.19628 0.0112089 0)
(0.197737 0.011398 0)
(0.198952 0.0112037 0)
(0.199755 0.0107434 0)
(0.200098 0.0100792 0)
(0.199986 0.009282 0)
(0.199456 0.00845007 0)
(0.198565 0.00767723 0)
(0.197394 0.00701683 0)
(0.196025 0.00647627 0)
(0.19453 0.0060338 0)
(0.19295 0.00566164 0)
(0.191305 0.00533609 0)
(0.189606 0.00504131 0)
(0.187861 0.00476887 0)
(0.186074 0.00451371 0)
(0.184253 0.00427169 0)
(0.182404 0.00404093 0)
(0.180532 0.00382252 0)
(0.178642 0.00361816 0)
(0.176739 0.00342732 0)
(0.174828 0.00324655 0)
(0.17291 0.00307245 0)
(0.170991 0.0029049 0)
(0.169081 0.00274642 0)
(0.167187 0.00259907 0)
(0.165317 0.00246239 0)
(0.163477 0.00233411 0)
(0.161668 0.00221309 0)
(0.159888 0.0020997 0)
(0.158136 0.00199373 0)
(0.156412 0.00189396 0)
(0.154719 0.00179904 0)
(0.153061 0.00170844 0)
(0.151441 0.00162248 0)
(0.149862 0.00154089 0)
(0.148326 0.00146323 0)
(0.146832 0.00139008 0)
(0.145377 0.00132119 0)
(0.143963 0.00125513 0)
(0.142587 0.00119171 0)
(0.141251 0.00113131 0)
(0.139955 0.0010732 0)
(0.138701 0.00101681 0)
(0.13749 0.000962462 0)
(0.136322 0.000910197 0)
(0.135197 0.000859714 0)
(0.134115 0.000810821 0)
(0.133074 0.000763382 0)
(0.132076 0.000717249 0)
(0.131119 0.000672349 0)
(0.130205 0.000628811 0)
(0.129332 0.00058679 0)
(0.128502 0.000546142 0)
(0.127714 0.000506624 0)
(0.126968 0.00046818 0)
(0.126265 0.000430712 0)
(0.125603 0.000394184 0)
(0.124983 0.000358768 0)
(0.124404 0.000324639 0)
(0.123866 0.000291832 0)
(0.123366 0.000260451 0)
(0.122906 0.000230624 0)
(0.122483 0.00020242 0)
(0.122096 0.000175906 0)
(0.121745 0.000151084 0)
(0.121427 0.000128054 0)
(0.121141 0.000106966 0)
(0.120886 8.80831e-05 0)
(0.120659 7.12908e-05 0)
(0.120457 5.67531e-05 0)
(0.120279 4.45031e-05 0)
(0.120122 3.48137e-05 0)
(0.119983 2.74279e-05 0)
(0.119859 2.22534e-05 0)
(0.119748 1.89389e-05 0)
(0.119648 1.72479e-05 0)
(0.119557 1.66979e-05 0)
(0.119473 1.69258e-05 0)
(0.119395 1.75552e-05 0)
(0.119321 1.81802e-05 0)
(0.119252 1.86218e-05 0)
(0.119187 1.85722e-05 0)
(0.119126 1.80803e-05 0)
(0.11907 1.7052e-05 0)
(0.119017 1.56117e-05 0)
(0.118969 1.38793e-05 0)
(0.118925 1.19442e-05 0)
(0.118887 1.00338e-05 0)
(0.118853 8.1281e-06 0)
(0.118824 6.49438e-06 0)
(0.118799 4.98643e-06 0)
(0.118777 3.87986e-06 0)
(0.11876 2.93967e-06 0)
(0.118743 2.31669e-06 0)
(0.118734 1.98618e-06 0)
(0.118718 1.48873e-06 0)
(0.194789 0.00690401 0)
(0.19503 0.00822042 0)
(0.195659 0.00941262 0)
(0.196699 0.010204 0)
(0.197962 0.0105153 0)
(0.199198 0.0104454 0)
(0.200233 0.0101184 0)
(0.200998 0.00962299 0)
(0.201482 0.00902428 0)
(0.2017 0.00838662 0)
(0.201678 0.0077744 0)
(0.20146 0.00723197 0)
(0.201102 0.00677575 0)
(0.200657 0.00639838 0)
(0.200155 0.00608123 0)
(0.199613 0.00580509 0)
(0.199036 0.00555584 0)
(0.198426 0.00532527 0)
(0.19778 0.00510845 0)
(0.197097 0.00490149 0)
(0.196376 0.00470285 0)
(0.195621 0.00451358 0)
(0.194832 0.00433548 0)
(0.194012 0.00416931 0)
(0.193157 0.0040129 0)
(0.192267 0.00386264 0)
(0.19134 0.00371654 0)
(0.190379 0.00357434 0)
(0.189387 0.00343649 0)
(0.188373 0.00330262 0)
(0.187342 0.00317201 0)
(0.186303 0.0030468 0)
(0.185257 0.00293044 0)
(0.184203 0.00282345 0)
(0.183137 0.00272314 0)
(0.182056 0.0026254 0)
(0.180959 0.00252765 0)
(0.179849 0.0024298 0)
(0.178733 0.00233207 0)
(0.177621 0.00223606 0)
(0.17652 0.00214554 0)
(0.17543 0.00206128 0)
(0.174351 0.00198066 0)
(0.173277 0.00190232 0)
(0.172206 0.00182555 0)
(0.171138 0.00174866 0)
(0.170078 0.0016714 0)
(0.169033 0.00159528 0)
(0.168006 0.00152111 0)
(0.167001 0.00144885 0)
(0.166018 0.00137845 0)
(0.165057 0.00130978 0)
(0.164118 0.00124245 0)
(0.163202 0.0011761 0)
(0.162309 0.00111077 0)
(0.161441 0.00104657 0)
(0.160598 0.000983354 0)
(0.159783 0.000921066 0)
(0.158996 0.000859876 0)
(0.158241 0.000799865 0)
(0.157519 0.000741166 0)
(0.15683 0.000684003 0)
(0.156174 0.000628552 0)
(0.155552 0.000574906 0)
(0.154962 0.000523192 0)
(0.154406 0.00047345 0)
(0.153881 0.000425784 0)
(0.153389 0.000380447 0)
(0.152928 0.00033752 0)
(0.152498 0.000297176 0)
(0.152099 0.000259672 0)
(0.15173 0.000225404 0)
(0.15139 0.000194277 0)
(0.151076 0.000166567 0)
(0.150789 0.000142345 0)
(0.150524 0.000121914 0)
(0.150282 0.000104912 0)
(0.150059 9.14182e-05 0)
(0.149854 8.09123e-05 0)
(0.149665 7.31464e-05 0)
(0.14949 6.7377e-05 0)
(0.149329 6.31946e-05 0)
(0.149179 6.0015e-05 0)
(0.14904 5.73663e-05 0)
(0.14891 5.48494e-05 0)
(0.14879 5.20985e-05 0)
(0.148677 4.90266e-05 0)
(0.148574 4.54914e-05 0)
(0.148477 4.15825e-05 0)
(0.148389 3.73632e-05 0)
(0.148308 3.30661e-05 0)
(0.148234 2.86794e-05 0)
(0.148169 2.46577e-05 0)
(0.148106 2.0642e-05 0)
(0.148057 1.74472e-05 0)
(0.148004 1.4112e-05 0)
(0.14797 1.20337e-05 0)
(0.147922 9.40433e-06 0)
(0.147905 8.51038e-06 0)
(0.147859 6.38557e-06 0)
(0.195654 0.00666849 0)
(0.195872 0.00770074 0)
(0.196352 0.00866138 0)
(0.197121 0.00938314 0)
(0.198094 0.00975744 0)
(0.199114 0.00979635 0)
(0.200034 0.00958568 0)
(0.200772 0.00921472 0)
(0.201308 0.00874978 0)
(0.201648 0.00824168 0)
(0.201814 0.00773577 0)
(0.201837 0.0072684 0)
(0.201761 0.00685959 0)
(0.201624 0.00651153 0)
(0.201456 0.00621478 0)
(0.201273 0.00595611 0)
(0.201085 0.00572357 0)
(0.200892 0.00550898 0)
(0.200692 0.00530754 0)
(0.200479 0.00511542 0)
(0.200252 0.00493066 0)
(0.200011 0.00475414 0)
(0.199756 0.00458822 0)
(0.199488 0.00443511 0)
(0.199205 0.00429431 0)
(0.198904 0.0041628 0)
(0.198582 0.0040375 0)
(0.198236 0.00391586 0)
(0.197866 0.00379632 0)
(0.197473 0.00367739 0)
(0.197062 0.00355788 0)
(0.196638 0.00344042 0)
(0.196206 0.00333019 0)
(0.195766 0.00323016 0)
(0.195316 0.00313994 0)
(0.194851 0.003056 0)
(0.194364 0.00297431 0)
(0.193851 0.0028917 0)
(0.193313 0.00280417 0)
(0.192757 0.002711 0)
(0.192193 0.00261782 0)
(0.191628 0.00252937 0)
(0.191066 0.00244662 0)
(0.190502 0.00237062 0)
(0.18993 0.00229988 0)
(0.189342 0.00222877 0)
(0.188737 0.00215348 0)
(0.188118 0.00207456 0)
(0.187495 0.0019941 0)
(0.186874 0.00191399 0)
(0.186256 0.00183537 0)
(0.185643 0.00175841 0)
(0.185033 0.00168269 0)
(0.184428 0.00160794 0)
(0.183828 0.00153436 0)
(0.183234 0.00146184 0)
(0.182643 0.00138951 0)
(0.182057 0.00131666 0)
(0.181477 0.0012432 0)
(0.180905 0.00116928 0)
(0.180346 0.00109558 0)
(0.179803 0.00102296 0)
(0.179276 0.000952016 0)
(0.178767 0.000883063 0)
(0.178277 0.000816448 0)
(0.177805 0.00075213 0)
(0.17735 0.000690009 0)
(0.176912 0.000630204 0)
(0.176492 0.000572739 0)
(0.176089 0.000517779 0)
(0.175705 0.000465737 0)
(0.175338 0.000417233 0)
(0.174992 0.000372272 0)
(0.174663 0.000331334 0)
(0.174353 0.000294555 0)
(0.174061 0.000262496 0)
(0.173786 0.000234571 0)
(0.173526 0.000211111 0)
(0.173283 0.000191306 0)
(0.173053 0.000175159 0)
(0.172836 0.000161512 0)
(0.172632 0.000150238 0)
(0.17244 0.000140425 0)
(0.17226 0.000131747 0)
(0.17209 0.000123623 0)
(0.171931 0.000115587 0)
(0.171782 0.000107725 0)
(0.171642 9.93868e-05 0)
(0.171512 9.13417e-05 0)
(0.171389 8.25753e-05 0)
(0.17128 7.47325e-05 0)
(0.171171 6.59388e-05 0)
(0.171081 5.89893e-05 0)
(0.170984 5.06637e-05 0)
(0.170915 4.5228e-05 0)
(0.170826 3.77036e-05 0)
(0.170779 3.40796e-05 0)
(0.170694 2.74298e-05 0)
(0.17067 2.56484e-05 0)
(0.170585 1.98067e-05 0)
(0.196421 0.00645906 0)
(0.196613 0.00728844 0)
(0.196985 0.00806209 0)
(0.197554 0.00868198 0)
(0.198283 0.00906431 0)
(0.199079 0.00918503 0)
(0.199838 0.00908274 0)
(0.200482 0.0088241 0)
(0.200973 0.00846965 0)
(0.20131 0.00806485 0)
(0.201506 0.00764646 0)
(0.201586 0.00724466 0)
(0.201582 0.00687845 0)
(0.201527 0.00655417 0)
(0.201445 0.0062698 0)
(0.201353 0.00601898 0)
(0.201262 0.0057927 0)
(0.201179 0.0055831 0)
(0.201099 0.00538545 0)
(0.201019 0.00519618 0)
(0.200935 0.00501348 0)
(0.200848 0.00483866 0)
(0.20076 0.00467451 0)
(0.200669 0.00452314 0)
(0.200576 0.00438446 0)
(0.200479 0.00425686 0)
(0.200378 0.00413821 0)
(0.200272 0.00402549 0)
(0.200158 0.00391571 0)
(0.200033 0.00380594 0)
(0.199899 0.0036937 0)
(0.19976 0.00358064 0)
(0.199617 0.00347193 0)
(0.199473 0.00337251 0)
(0.199327 0.00328503 0)
(0.199179 0.00320821 0)
(0.199025 0.00313813 0)
(0.198857 0.00307 0)
(0.19867 0.00299652 0)
(0.198467 0.00291324 0)
(0.198255 0.00282408 0)
(0.198037 0.00273484 0)
(0.197821 0.00264951 0)
(0.197609 0.00257329 0)
(0.197396 0.0025079 0)
(0.197174 0.00244758 0)
(0.196936 0.0023847 0)
(0.19668 0.00231509 0)
(0.196411 0.00223882 0)
(0.196136 0.00215924 0)
(0.195858 0.00208018 0)
(0.19558 0.00200297 0)
(0.195298 0.00192681 0)
(0.195015 0.00185097 0)
(0.194731 0.00177619 0)
(0.194446 0.0017033 0)
(0.19416 0.00163175 0)
(0.193868 0.00156016 0)
(0.193571 0.00148732 0)
(0.193269 0.00141229 0)
(0.192964 0.00133534 0)
(0.192659 0.00125756 0)
(0.192357 0.00118014 0)
(0.19206 0.00110396 0)
(0.19177 0.00103004 0)
(0.191487 0.000958699 0)
(0.19121 0.000890049 0)
(0.19094 0.00082408 0)
(0.190675 0.000760613 0)
(0.190415 0.00069947 0)
(0.190161 0.000640843 0)
(0.189912 0.000585329 0)
(0.189671 0.000532907 0)
(0.189436 0.000484437 0)
(0.189211 0.000439999 0)
(0.188993 0.000400655 0)
(0.188784 0.000365423 0)
(0.188583 0.000335218 0)
(0.18839 0.000308706 0)
(0.188205 0.000286432 0)
(0.188027 0.000266667 0)
(0.187856 0.000249613 0)
(0.187692 0.0002342 0)
(0.187536 0.000219948 0)
(0.187387 0.000206829 0)
(0.187244 0.000193371 0)
(0.187109 0.000181112 0)
(0.186978 0.0001674 0)
(0.18686 0.000155518 0)
(0.186739 0.000141427 0)
(0.186637 0.000130334 0)
(0.186525 0.000116207 0)
(0.186441 0.000106618 0)
(0.186336 9.29824e-05 0)
(0.186272 8.5643e-05 0)
(0.186171 7.29288e-05 0)
(0.186127 6.8059e-05 0)
(0.186026 5.63488e-05 0)
(0.186004 5.38241e-05 0)
(0.185901 4.30729e-05 0)
(0.197111 0.00626326 0)
(0.197274 0.00693737 0)
(0.197559 0.00756401 0)
(0.197978 0.00808592 0)
(0.198514 0.00844612 0)
(0.199114 0.00861572 0)
(0.199712 0.00860272 0)
(0.200245 0.00844437 0)
(0.200671 0.00818704 0)
(0.200978 0.00787122 0)
(0.201172 0.00752948 0)
(0.20127 0.00718799 0)
(0.201296 0.0068642 0)
(0.201274 0.00656642 0)
(0.201225 0.00629704 0)
(0.201165 0.00605428 0)
(0.201105 0.00583233 0)
(0.201051 0.00562499 0)
(0.201003 0.00542847 0)
(0.200955 0.00523984 0)
(0.200908 0.00505761 0)
(0.20086 0.00488309 0)
(0.200812 0.0047187 0)
(0.200764 0.00456593 0)
(0.200715 0.0044247 0)
(0.200668 0.00429475 0)
(0.200623 0.00417538 0)
(0.200581 0.0040636 0)
(0.200541 0.00395559 0)
(0.200498 0.00384799 0)
(0.200452 0.0037382 0)
(0.200404 0.00362704 0)
(0.200355 0.00351866 0)
(0.200306 0.00341781 0)
(0.200257 0.00332827 0)
(0.200211 0.00325054 0)
(0.200169 0.00318204 0)
(0.200126 0.00311843 0)
(0.200077 0.00305204 0)
(0.200022 0.00297631 0)
(0.199961 0.0028919 0)
(0.199895 0.00280322 0)
(0.199826 0.00271542 0)
(0.199762 0.00263579 0)
(0.199702 0.00256906 0)
(0.199642 0.00251224 0)
(0.199578 0.00245745 0)
(0.199505 0.0023968 0)
(0.199423 0.00232669 0)
(0.199334 0.00224977 0)
(0.199242 0.00217165 0)
(0.199149 0.00209535 0)
(0.199054 0.00202027 0)
(0.198957 0.00194497 0)
(0.198859 0.00187005 0)
(0.198762 0.00179724 0)
(0.198664 0.00172713 0)
(0.198563 0.00165868 0)
(0.198458 0.00159006 0)
(0.198347 0.00151915 0)
(0.198229 0.00144532 0)
(0.198106 0.00136902 0)
(0.19798 0.00129155 0)
(0.197852 0.00121403 0)
(0.197725 0.00113802 0)
(0.197598 0.00106423 0)
(0.197474 0.00099331 0)
(0.197351 0.000925436 0)
(0.19723 0.000860563 0)
(0.197109 0.000798339 0)
(0.196991 0.000738662 0)
(0.196871 0.000681938 0)
(0.196754 0.000627779 0)
(0.196636 0.000577369 0)
(0.196522 0.000530435 0)
(0.196409 0.000488674 0)
(0.196299 0.000450568 0)
(0.19619 0.000417791 0)
(0.196084 0.00038843 0)
(0.195981 0.000363588 0)
(0.195879 0.000341208 0)
(0.19578 0.000321395 0)
(0.195684 0.00030348 0)
(0.195589 0.000286021 0)
(0.195499 0.000270626 0)
(0.195409 0.000253727 0)
(0.195327 0.000239527 0)
(0.19524 0.000222146 0)
(0.195166 0.000208492 0)
(0.195083 0.000190509 0)
(0.195019 0.000177874 0)
(0.194939 0.000159687 0)
(0.194886 0.000148792 0)
(0.194807 0.000130922 0)
(0.194767 0.00012263 0)
(0.194689 0.000105888 0)
(0.194663 0.000100488 0)
(0.194583 8.50448e-05 0)
(0.194569 8.22604e-05 0)
(0.194486 6.78111e-05 0)
(0.197705 0.00609222 0)
(0.197839 0.0066524 0)
(0.198056 0.00717238 0)
(0.198367 0.00761586 0)
(0.19876 0.00794526 0)
(0.199206 0.00813622 0)
(0.199662 0.00818386 0)
(0.200084 0.00810393 0)
(0.200436 0.00792698 0)
(0.200701 0.00768633 0)
(0.200879 0.00741029 0)
(0.20098 0.00712131 0)
(0.20102 0.00683624 0)
(0.201017 0.00656518 0)
(0.20099 0.00631237 0)
(0.200949 0.00607846 0)
(0.200905 0.00586098 0)
(0.200866 0.00565614 0)
(0.200832 0.00546128 0)
(0.200798 0.00527433 0)
(0.200763 0.00509388 0)
(0.200729 0.00492033 0)
(0.200695 0.00475562 0)
(0.200659 0.00460143 0)
(0.200622 0.00445801 0)
(0.200587 0.00432527 0)
(0.200555 0.00420278 0)
(0.200529 0.00408793 0)
(0.200507 0.00397731 0)
(0.200485 0.00386841 0)
(0.200461 0.00375934 0)
(0.200439 0.00365 0)
(0.200415 0.00354273 0)
(0.20039 0.00344119 0)
(0.200363 0.00334906 0)
(0.200338 0.00326767 0)
(0.20032 0.00319575 0)
(0.200307 0.00313005 0)
(0.200294 0.00306395 0)
(0.200282 0.00299086 0)
(0.20027 0.0029096 0)
(0.200251 0.00282296 0)
(0.200228 0.00273552 0)
(0.200206 0.00265401 0)
(0.200186 0.00258377 0)
(0.200169 0.00252455 0)
(0.200155 0.00247058 0)
(0.200142 0.00241336 0)
(0.200125 0.00234702 0)
(0.200103 0.00227257 0)
(0.200078 0.00219555 0)
(0.200052 0.00211988 0)
(0.200025 0.00204542 0)
(0.199997 0.00197043 0)
(0.199969 0.00189511 0)
(0.199941 0.00182133 0)
(0.199914 0.00175069 0)
(0.199888 0.00168288 0)
(0.199861 0.00161635 0)
(0.199831 0.0015485 0)
(0.199798 0.00147816 0)
(0.19976 0.00140504 0)
(0.199717 0.00133009 0)
(0.199671 0.00125405 0)
(0.199622 0.00117864 0)
(0.199571 0.00110461 0)
(0.199522 0.0010331 0)
(0.199471 0.000964394 0)
(0.199423 0.000898808 0)
(0.199373 0.000836082 0)
(0.199327 0.00077619 0)
(0.199279 0.000719531 0)
(0.199234 0.000665356 0)
(0.199186 0.000615014 0)
(0.199141 0.000567716 0)
(0.199094 0.000525803 0)
(0.199049 0.000487202 0)
(0.199003 0.000454278 0)
(0.198957 0.000424461 0)
(0.198911 0.000399325 0)
(0.198865 0.000376591 0)
(0.198819 0.00035611 0)
(0.198774 0.000337797 0)
(0.198728 0.000319038 0)
(0.198684 0.000303216 0)
(0.198639 0.000284722 0)
(0.198599 0.000270262 0)
(0.198554 0.000251174 0)
(0.198518 0.000237233 0)
(0.198473 0.000217364 0)
(0.198442 0.000204366 0)
(0.198397 0.000184091 0)
(0.198372 0.00017284 0)
(0.198327 0.000152689 0)
(0.198309 0.000144084 0)
(0.198264 0.000125283 0)
(0.198252 0.000119808 0)
(0.198206 0.000102788 0)
(0.1982 0.00010003 0)
(0.198151 8.43011e-05 0)
(0.198276 0.00595203 0)
(0.198377 0.00642758 0)
(0.198534 0.00686784 0)
(0.198751 0.0072484 0)
(0.199025 0.00754428 0)
(0.199338 0.00773653 0)
(0.199664 0.0078177 0)
(0.199973 0.00779299 0)
(0.200243 0.00767966 0)
(0.200454 0.00750155 0)
(0.200604 0.00728146 0)
(0.200696 0.00703864 0)
(0.200741 0.0067893 0)
(0.200751 0.00654439 0)
(0.200739 0.00630891 0)
(0.200715 0.00608544 0)
(0.200686 0.00587498 0)
(0.200659 0.00567545 0)
(0.200636 0.00548401 0)
(0.200612 0.0052996 0)
(0.200587 0.00512194 0)
(0.200562 0.00495092 0)
(0.200538 0.0047876 0)
(0.200512 0.00463368 0)
(0.200484 0.00448962 0)
(0.200457 0.00435494 0)
(0.200433 0.00422897 0)
(0.200414 0.00411012 0)
(0.200399 0.00399613 0)
(0.200385 0.0038853 0)
(0.20037 0.00377631 0)
(0.200356 0.00366847 0)
(0.200342 0.00356275 0)
(0.200324 0.00346193 0)
(0.200305 0.00336893 0)
(0.200287 0.00328462 0)
(0.200275 0.00320803 0)
(0.200268 0.00313706 0)
(0.200263 0.00306733 0)
(0.200262 0.00299371 0)
(0.200263 0.00291425 0)
(0.200259 0.00283054 0)
(0.20025 0.00274606 0)
(0.200239 0.00266541 0)
(0.200229 0.00259282 0)
(0.20022 0.00252952 0)
(0.200216 0.00247217 0)
(0.200218 0.00241384 0)
(0.200219 0.00234876 0)
(0.200217 0.00227659 0)
(0.200214 0.00220136 0)
(0.200208 0.00212652 0)
(0.200202 0.00205246 0)
(0.200195 0.00197775 0)
(0.200188 0.00190234 0)
(0.200181 0.00182779 0)
(0.200176 0.00175599 0)
(0.200172 0.00168715 0)
(0.20017 0.00162043 0)
(0.200167 0.00155351 0)
(0.200165 0.00148521 0)
(0.200159 0.00141467 0)
(0.20015 0.00134266 0)
(0.200136 0.00126922 0)
(0.200121 0.00119584 0)
(0.200101 0.00112291 0)
(0.200082 0.00105195 0)
(0.20006 0.000983029 0)
(0.200042 0.00091687 0)
(0.200021 0.000853322 0)
(0.200006 0.000792566 0)
(0.199989 0.00073524 0)
(0.199975 0.000680507 0)
(0.19996 0.000630039 0)
(0.199949 0.000582372 0)
(0.199935 0.000540577 0)
(0.199923 0.000501873 0)
(0.199909 0.000469379 0)
(0.199895 0.000439658 0)
(0.19988 0.000414902 0)
(0.199864 0.000392496 0)
(0.199848 0.000372123 0)
(0.19983 0.000354091 0)
(0.199813 0.000334828 0)
(0.199796 0.000319149 0)
(0.199778 0.000299841 0)
(0.199762 0.000285559 0)
(0.199744 0.000265647 0)
(0.19973 0.00025183 0)
(0.199711 0.000231067 0)
(0.199699 0.00021805 0)
(0.19968 0.000196685 0)
(0.19967 0.000185278 0)
(0.199651 0.000163874 0)
(0.199646 0.000155023 0)
(0.199626 0.000135198 0)
(0.199624 0.000129574 0)
(0.199604 0.000112135 0)
(0.199603 0.000109378 0)
(0.199581 9.35875e-05 0)
(0.198891 0.00583732 0)
(0.198954 0.00624574 0)
(0.199047 0.00662282 0)
(0.199174 0.00695188 0)
(0.199334 0.00721613 0)
(0.199519 0.00740119 0)
(0.199715 0.00749989 0)
(0.199905 0.00751283 0)
(0.200077 0.00744819 0)
(0.200218 0.00732054 0)
(0.200322 0.00714717 0)
(0.200391 0.00694475 0)
(0.20043 0.00672782 0)
(0.200445 0.00650715 0)
(0.200445 0.00628889 0)
(0.200435 0.00607692 0)
(0.200421 0.00587413 0)
(0.200406 0.00568026 0)
(0.200393 0.005493 0)
(0.20038 0.00531204 0)
(0.200365 0.00513837 0)
(0.200351 0.00497181 0)
(0.200338 0.00481187 0)
(0.200324 0.00465902 0)
(0.200307 0.00451434 0)
(0.20029 0.0043783 0)
(0.200274 0.00425038 0)
(0.200263 0.00412929 0)
(0.200254 0.00401299 0)
(0.200246 0.00390019 0)
(0.200237 0.00379081 0)
(0.200229 0.00368433 0)
(0.200221 0.00358059 0)
(0.200212 0.00348115 0)
(0.200199 0.00338797 0)
(0.200187 0.00330177 0)
(0.200179 0.00322144 0)
(0.200175 0.00314493 0)
(0.200172 0.00307048 0)
(0.200172 0.00299541 0)
(0.200177 0.00291689 0)
(0.200178 0.00283563 0)
(0.200174 0.00275489 0)
(0.200169 0.00267682 0)
(0.200163 0.00260331 0)
(0.200156 0.00253619 0)
(0.200153 0.00247411 0)
(0.200155 0.00241235 0)
(0.200159 0.00234681 0)
(0.200162 0.00227664 0)
(0.200162 0.00220368 0)
(0.200162 0.00212981 0)
(0.20016 0.00205573 0)
(0.200159 0.00198091 0)
(0.200157 0.00190548 0)
(0.200155 0.00183038 0)
(0.200154 0.00175748 0)
(0.200153 0.00168705 0)
(0.200155 0.00161895 0)
(0.200158 0.00155161 0)
(0.200162 0.00148436 0)
(0.200164 0.0014158 0)
(0.200166 0.0013466 0)
(0.200163 0.00127609 0)
(0.20016 0.00120544 0)
(0.200152 0.00113426 0)
(0.200144 0.0010643 0)
(0.200132 0.000995203 0)
(0.200123 0.000928278 0)
(0.200112 0.000863425 0)
(0.200106 0.000801207 0)
(0.200097 0.000742341 0)
(0.200094 0.000686357 0)
(0.200089 0.000635304 0)
(0.200088 0.000587123 0)
(0.200085 0.000545478 0)
(0.200084 0.00050679 0)
(0.200082 0.000475075 0)
(0.20008 0.000445616 0)
(0.200077 0.000421659 0)
(0.200072 0.00039962 0)
(0.200069 0.000379749 0)
(0.200062 0.000361931 0)
(0.200058 0.00034249 0)
(0.200051 0.000326896 0)
(0.200046 0.000307032 0)
(0.20004 0.00029283 0)
(0.200034 0.000272342 0)
(0.200029 0.000258555 0)
(0.200022 0.000237325 0)
(0.200018 0.000224114 0)
(0.200011 0.000202216 0)
(0.200008 0.000190447 0)
(0.200002 0.00016833 0)
(0.200001 0.000159197 0)
(0.199994 0.000138865 0)
(0.199995 0.000133194 0)
(0.199989 0.000115749 0)
(0.199989 0.000113043 0)
(0.199983 9.75906e-05 0)
(0.199568 0.00577186 0)
(0.199586 0.00613915 0)
(0.199613 0.00647732 0)
(0.199652 0.00677407 0)
(0.199703 0.00701652 0)
(0.199762 0.00719328 0)
(0.199827 0.00729739 0)
(0.199891 0.00732777 0)
(0.19995 0.007289 0)
(0.2 0.00719064 0)
(0.20004 0.00704597 0)
(0.200069 0.00686899 0)
(0.200088 0.00667189 0)
(0.200097 0.00646545 0)
(0.200099 0.00625814 0)
(0.200099 0.00605447 0)
(0.200097 0.00585691 0)
(0.200095 0.00566655 0)
(0.200093 0.00548283 0)
(0.200091 0.00530552 0)
(0.200089 0.005135 0)
(0.200086 0.00497135 0)
(0.200082 0.00481417 0)
(0.200078 0.00466314 0)
(0.200074 0.00451918 0)
(0.20007 0.00438299 0)
(0.200066 0.00425398 0)
(0.200064 0.00413128 0)
(0.200063 0.00401322 0)
(0.200061 0.00389906 0)
(0.200059 0.00379001 0)
(0.200057 0.00368569 0)
(0.200056 0.00358471 0)
(0.200053 0.00348732 0)
(0.20005 0.00339447 0)
(0.200046 0.00330715 0)
(0.200044 0.00322438 0)
(0.200044 0.00314332 0)
(0.200044 0.00306419 0)
(0.200046 0.00298736 0)
(0.20005 0.00290951 0)
(0.200052 0.00283043 0)
(0.200051 0.00275367 0)
(0.20005 0.00267938 0)
(0.200049 0.00260683 0)
(0.200047 0.0025377 0)
(0.200046 0.0024719 0)
(0.200048 0.00240644 0)
(0.20005 0.00233931 0)
(0.200053 0.00227008 0)
(0.200054 0.00219916 0)
(0.200055 0.00212671 0)
(0.200056 0.00205326 0)
(0.200056 0.00197891 0)
(0.200056 0.00190408 0)
(0.200056 0.00182889 0)
(0.200056 0.00175501 0)
(0.200057 0.00168252 0)
(0.200059 0.001612 0)
(0.200062 0.0015425 0)
(0.200067 0.00147463 0)
(0.20007 0.00140661 0)
(0.200074 0.00133964 0)
(0.200075 0.00127205 0)
(0.200076 0.00120503 0)
(0.200073 0.00113688 0)
(0.200071 0.00106969 0)
(0.200066 0.00100188 0)
(0.200064 0.000935246 0)
(0.200058 0.000869496 0)
(0.200057 0.000805776 0)
(0.200053 0.000745056 0)
(0.200054 0.000686862 0)
(0.200052 0.000634407 0)
(0.200055 0.000584374 0)
(0.200056 0.000542394 0)
(0.200059 0.000502761 0)
(0.20006 0.000472099 0)
(0.200062 0.000442687 0)
(0.200063 0.000420338 0)
(0.200063 0.000398939 0)
(0.200064 0.000380347 0)
(0.200062 0.000363289 0)
(0.200063 0.00034421 0)
(0.20006 0.000329338 0)
(0.200059 0.00030924 0)
(0.200057 0.000295573 0)
(0.200056 0.000274786 0)
(0.200053 0.000261266 0)
(0.200052 0.000239896 0)
(0.20005 0.000226591 0)
(0.200049 0.000204221 0)