/*--------------------------------*- C++ -*----------------------------------*\
| =========                 |                                                 |
| \\      /  F ield         | OpenFOAM: The Open Source CFD Toolbox           |
|  \\    /   O peration     | Version:  2.3.0                                 |
|   \\  /    A nd           | Web:      www.OpenFOAM.org                      |
|    \\/     M anipulation  |                                                 |
\*---------------------------------------------------------------------------*/
FoamFile
{
    version     2.0;
    format      ascii;
    class       volVectorField;
    location    "0.65";
    object      U;
}
// * * * * * * * * * * * * * * * * * * * * * * * * * * * * * * * * * * * * * //

dimensions      [0 1 -1 0 0 0 0];

internalField   nonuniform List<vector> 
3375
(
(0.175653 0.00438951 0)
(0.155163 0.00597585 0)
(0.136587 0.00611686 0)
(0.118466 0.0055168 0)
(0.100948 0.00472086 0)
(0.0848941 0.00383684 0)
(0.0713746 0.00286952 0)
(0.0607926 0.00184852 0)
(0.0529492 0.000961825 0)
(0.0472998 0.000363312 0)
(0.0432741 4.60242e-05 0)
(0.0403997 -8.22124e-05 0)
(0.038298 -0.000105456 0)
(0.0366863 -7.95099e-05 0)
(0.0353639 -3.58851e-05 0)
(0.0342045 6.75448e-06 0)
(0.0331391 3.93758e-05 0)
(0.0321365 6.01349e-05 0)
(0.0311862 7.08986e-05 0)
(0.0302868 7.46081e-05 0)
(0.0294393 7.39587e-05 0)
(0.0286439 7.09678e-05 0)
(0.0278994 6.69496e-05 0)
(0.0272033 6.26749e-05 0)
(0.0265522 5.8541e-05 0)
(0.0259422 5.47209e-05 0)
(0.0253694 5.12556e-05 0)
(0.0248303 4.81335e-05 0)
(0.0243214 4.53144e-05 0)
(0.02384 4.27599e-05 0)
(0.0233836 4.04283e-05 0)
(0.0229498 3.82908e-05 0)
(0.0225369 3.63172e-05 0)
(0.0221432 3.44911e-05 0)
(0.0217673 3.27898e-05 0)
(0.0214078 3.12058e-05 0)
(0.0210637 2.97204e-05 0)
(0.0207339 2.83327e-05 0)
(0.0204177 2.70261e-05 0)
(0.020114 2.58034e-05 0)
(0.0198222 2.46489e-05 0)
(0.0195415 2.35674e-05 0)
(0.0192714 2.25441e-05 0)
(0.0190111 2.15847e-05 0)
(0.0187604 2.06754e-05 0)
(0.0185184 1.9822e-05 0)
(0.0182849 1.90113e-05 0)
(0.0180592 1.82497e-05 0)
(0.0178413 1.75236e-05 0)
(0.0176303 1.68416e-05 0)
(0.0174264 1.6189e-05 0)
(0.0172288 1.55762e-05 0)
(0.0170377 1.49882e-05 0)
(0.0168521 1.44354e-05 0)
(0.0166726 1.3904e-05 0)
(0.0164981 1.34035e-05 0)
(0.0163292 1.2921e-05 0)
(0.0161647 1.24661e-05 0)
(0.0160056 1.20258e-05 0)
(0.0158505 1.16114e-05 0)
(0.0157004 1.12084e-05 0)
(0.0155538 1.08305e-05 0)
(0.0154121 1.04603e-05 0)
(0.0152734 1.01144e-05 0)
(0.0151396 9.77343e-06 0)
(0.0150083 9.4555e-06 0)
(0.0148817 9.14014e-06 0)
(0.0147573 8.84751e-06 0)
(0.0146376 8.55408e-06 0)
(0.0145195 8.28709e-06 0)
(0.0144065 8.00994e-06 0)
(0.0142943 7.76899e-06 0)
(0.0141875 7.50476e-06 0)
(0.014081 7.28909e-06 0)
(0.0139801 7.03512e-06 0)
(0.0138787 6.8437e-06 0)
(0.0137836 6.59671e-06 0)
(0.0136871 6.43321e-06 0)
(0.0135976 6.18784e-06 0)
(0.0135056 6.05583e-06 0)
(0.0134215 5.80528e-06 0)
(0.0133336 5.71371e-06 0)
(0.0132548 5.44777e-06 0)
(0.0131705 5.40104e-06 0)
(0.0130971 5.11878e-06 0)
(0.013016 5.12477e-06 0)
(0.0129479 4.81422e-06 0)
(0.0128693 4.88864e-06 0)
(0.0128066 4.53578e-06 0)
(0.0127297 4.69609e-06 0)
(0.0126728 4.28399e-06 0)
(0.0125964 4.55354e-06 0)
(0.0125456 4.07457e-06 0)
(0.0124682 4.47977e-06 0)
(0.0124241 3.90017e-06 0)
(0.0123435 4.48993e-06 0)
(0.0123076 3.76395e-06 0)
(0.0122199 4.61004e-06 0)
(0.0121954 3.68226e-06 0)
(0.0120904 5.62296e-06 0)
(0.190876 0.00776568 0)
(0.189126 0.0108481 0)
(0.186659 0.0118904 0)
(0.182827 0.0117131 0)
(0.177359 0.0110789 0)
(0.170474 0.0101889 0)
(0.162817 0.00903292 0)
(0.154884 0.00761015 0)
(0.147057 0.00608152 0)
(0.13956 0.0046696 0)
(0.132525 0.00351419 0)
(0.12605 0.00264159 0)
(0.12018 0.00201559 0)
(0.11492 0.00158828 0)
(0.110223 0.00130745 0)
(0.106018 0.00112418 0)
(0.102233 0.000999798 0)
(0.0988036 0.000908373 0)
(0.0956749 0.000834693 0)
(0.0928043 0.000770834 0)
(0.0901572 0.000713148 0)
(0.0877058 0.000660247 0)
(0.0854272 0.000611724 0)
(0.0833022 0.00056749 0)
(0.0813145 0.000527438 0)
(0.07945 0.000491365 0)
(0.0776963 0.00045894 0)
(0.0760427 0.000429789 0)
(0.0744799 0.000403508 0)
(0.0729995 0.000379728 0)
(0.0715946 0.000358104 0)
(0.0702587 0.000338355 0)
(0.0689866 0.000320227 0)
(0.067773 0.00030353 0)
(0.0666141 0.000288079 0)
(0.0655055 0.000273754 0)
(0.0644443 0.000260416 0)
(0.0634269 0.000247991 0)
(0.062451 0.000236369 0)
(0.0615134 0.000225507 0)
(0.0606124 0.000215312 0)
(0.0597452 0.000205758 0)
(0.0589106 0.000196765 0)
(0.0581059 0.000188317 0)
(0.0573305 0.000180347 0)
(0.0565816 0.000172843 0)
(0.0558592 0.000165747 0)
(0.0551604 0.000159052 0)
(0.0544856 0.000152703 0)
(0.053832 0.000146703 0)
(0.0532004 0.000140999 0)
(0.0525877 0.000135599 0)
(0.0519953 0.000130456 0)
(0.0514198 0.000125577 0)
(0.0508632 0.000120922 0)
(0.0503217 0.000116495 0)
(0.0497979 0.000112264 0)
(0.0492876 0.000108232 0)
(0.0487941 0.00010437 0)
(0.0483125 0.000100685 0)
(0.0478469 9.71486e-05 0)
(0.0473919 9.37694e-05 0)
(0.0469524 9.05201e-05 0)
(0.0465219 8.74099e-05 0)
(0.0461068 8.44141e-05 0)
(0.0456992 8.15401e-05 0)
(0.0453069 7.87686e-05 0)
(0.0449207 7.61042e-05 0)
(0.0445501 7.35295e-05 0)
(0.0441838 7.10607e-05 0)
(0.0438337 6.86516e-05 0)
(0.0434861 6.63659e-05 0)
(0.0431557 6.41005e-05 0)
(0.0428257 6.19837e-05 0)
(0.0425142 5.98441e-05 0)
(0.0422006 5.7883e-05 0)
(0.0419074 5.58514e-05 0)
(0.0416093 5.40484e-05 0)
(0.0413339 5.21021e-05 0)
(0.0410501 5.04611e-05 0)
(0.0407923 4.85752e-05 0)
(0.0405218 4.71172e-05 0)
(0.0402815 4.52587e-05 0)
(0.0400228 4.39919e-05 0)
(0.0398001 4.21597e-05 0)
(0.0395518 4.11028e-05 0)
(0.039347 3.92652e-05 0)
(0.0391073 3.84619e-05 0)
(0.038921 3.65869e-05 0)
(0.0386874 3.60844e-05 0)
(0.0385208 3.41397e-05 0)
(0.0382901 3.40006e-05 0)
(0.0381449 3.19968e-05 0)
(0.0379125 3.22835e-05 0)
(0.0377914 3.01797e-05 0)
(0.0375506 3.09973e-05 0)
(0.0374583 2.87975e-05 0)
(0.0371986 3.02608e-05 0)
(0.0371444 2.80482e-05 0)
(0.0368459 3.19329e-05 0)
(0.191972 0.00748273 0)
(0.192394 0.0101044 0)
(0.193462 0.0116597 0)
(0.19453 0.012143 0)
(0.194951 0.0120332 0)
(0.194419 0.0115948 0)
(0.19296 0.010857 0)
(0.190699 0.00984015 0)
(0.187796 0.00865521 0)
(0.184412 0.00747086 0)
(0.180693 0.00641954 0)
(0.176786 0.00555223 0)
(0.172815 0.00485671 0)
(0.168877 0.0043035 0)
(0.16502 0.00385928 0)
(0.161267 0.0034945 0)
(0.157626 0.00318643 0)
(0.154101 0.00291941 0)
(0.150692 0.00268339 0)
(0.147401 0.00247216 0)
(0.144228 0.00228181 0)
(0.141174 0.00210983 0)
(0.138236 0.00195439 0)
(0.135414 0.00181405 0)
(0.132707 0.00168745 0)
(0.13011 0.00157331 0)
(0.12762 0.00147031 0)
(0.125233 0.00137725 0)
(0.122945 0.00129296 0)
(0.120751 0.0012164 0)
(0.118646 0.00114663 0)
(0.116625 0.00108284 0)
(0.114685 0.0010243 0)
(0.11282 0.000970428 0)
(0.111028 0.000920678 0)
(0.109303 0.000874625 0)
(0.107642 0.000831855 0)
(0.106042 0.00079207 0)
(0.1045 0.000754949 0)
(0.103012 0.000720282 0)
(0.101576 0.000687811 0)
(0.100189 0.000657383 0)
(0.0988492 0.000628792 0)
(0.0975528 0.00060192 0)
(0.0962998 0.0005766 0)
(0.0950858 0.000552737 0)
(0.0939117 0.000530195 0)
(0.0927726 0.000508894 0)
(0.0916703 0.000488725 0)
(0.0905996 0.000469622 0)
(0.089563 0.000451494 0)
(0.088555 0.000434286 0)
(0.0875787 0.000417928 0)
(0.0866281 0.000402361 0)
(0.0857075 0.000387543 0)
(0.0848098 0.0003734 0)
(0.0839406 0.000359923 0)
(0.0830918 0.000347024 0)
(0.0822704 0.000334718 0)
(0.0814668 0.000322909 0)
(0.08069 0.000311633 0)
(0.0799286 0.000300784 0)
(0.0791934 0.000290418 0)
(0.0784713 0.000280411 0)
(0.0777753 0.000270849 0)
(0.0770898 0.000261582 0)
(0.076431 0.000252733 0)
(0.0757799 0.000244119 0)
(0.0751562 0.000235901 0)
(0.0745375 0.00022788 0)
(0.0739475 0.000220209 0)
(0.0733591 0.000212729 0)
(0.0728014 0.000205542 0)
(0.0722416 0.000198549 0)
(0.0717154 0.000191795 0)
(0.0711824 0.000185241 0)
(0.0706868 0.000178873 0)
(0.070179 0.000172739 0)
(0.0697135 0.000166707 0)
(0.0692291 0.000160979 0)
(0.0687935 0.000155234 0)
(0.0683307 0.000149927 0)
(0.0679253 0.000144412 0)
(0.0674818 0.00013952 0)
(0.067107 0.000134244 0)
(0.0666803 0.000129774 0)
(0.0663374 0.000124703 0)
(0.0659243 0.000120706 0)
(0.0656147 0.000115817 0)
(0.0652112 0.000112341 0)
(0.0649375 0.000107636 0)
(0.064538 0.000104743 0)
(0.0643038 0.000100331 0)
(0.0639011 9.80573e-05 0)
(0.0637115 9.40102e-05 0)
(0.0632952 9.24344e-05 0)
(0.0631578 8.89804e-05 0)
(0.0627132 8.82444e-05 0)
(0.0626394 8.5742e-05 0)
(0.0621461 8.81874e-05 0)
(0.193009 0.00705808 0)
(0.193384 0.00895614 0)
(0.194457 0.0104391 0)
(0.196029 0.0111645 0)
(0.197613 0.0113011 0)
(0.198848 0.0110831 0)
(0.199591 0.0106084 0)
(0.199821 0.00991765 0)
(0.199554 0.0090781 0)
(0.198831 0.00819721 0)
(0.197714 0.00737815 0)
(0.19629 0.00667811 0)
(0.194648 0.00610439 0)
(0.192864 0.0056349 0)
(0.190985 0.00524344 0)
(0.189038 0.0049085 0)
(0.187035 0.00461429 0)
(0.184985 0.00434975 0)
(0.182894 0.00410744 0)
(0.180769 0.00388258 0)
(0.178617 0.00367225 0)
(0.176447 0.00347477 0)
(0.174266 0.00328913 0)
(0.172081 0.00311476 0)
(0.169901 0.00295114 0)
(0.167731 0.0027978 0)
(0.165577 0.0026542 0)
(0.163444 0.00251978 0)
(0.161337 0.00239394 0)
(0.159258 0.0022761 0)
(0.157211 0.0021657 0)
(0.155198 0.0020622 0)
(0.153221 0.00196508 0)
(0.151282 0.00187391 0)
(0.149382 0.00178823 0)
(0.14752 0.00170766 0)
(0.145699 0.00163182 0)
(0.143917 0.00156039 0)
(0.142176 0.00149305 0)
(0.140473 0.00142953 0)
(0.138812 0.00136955 0)
(0.137187 0.00131288 0)
(0.135604 0.00125928 0)
(0.134055 0.00120855 0)
(0.132546 0.0011605 0)
(0.131071 0.00111495 0)
(0.129634 0.00107174 0)
(0.128229 0.00103068 0)
(0.126861 0.000991683 0)
(0.125523 0.00095456 0)
(0.12422 0.00091925 0)
(0.122945 0.000885567 0)
(0.121704 0.000853498 0)
(0.120488 0.000822831 0)
(0.119307 0.000793617 0)
(0.118148 0.000765597 0)
(0.117023 0.000738896 0)
(0.115917 0.000713207 0)
(0.114845 0.000688721 0)
(0.11379 0.00066509 0)
(0.112769 0.000642569 0)
(0.111762 0.000620759 0)
(0.110789 0.000599985 0)
(0.109828 0.000579781 0)
(0.108902 0.000560564 0)
(0.107983 0.000541773 0)
(0.107101 0.000523945 0)
(0.106224 0.000506406 0)
(0.105385 0.000489817 0)
(0.104546 0.000473407 0)
(0.103748 0.000457908 0)
(0.102946 0.000442517 0)
(0.10219 0.000427995 0)
(0.101422 0.000413512 0)
(0.100706 0.000399877 0)
(0.0999713 0.0003862 0)
(0.0992943 0.000373374 0)
(0.0985906 0.00036044 0)
(0.0979532 0.000348344 0)
(0.0972781 0.000336105 0)
(0.0966807 0.000324669 0)
(0.0960318 0.000313108 0)
(0.0954753 0.000302266 0)
(0.0948496 0.000291334 0)
(0.0943356 0.000281123 0)
(0.0937296 0.000270783 0)
(0.0932602 0.000261193 0)
(0.0926696 0.000251468 0)
(0.0922479 0.000242522 0)
(0.091667 0.000233418 0)
(0.0912972 0.000225196 0)
(0.0907188 0.000216734 0)
(0.0904064 0.000209488 0)
(0.0898212 0.000201661 0)
(0.0895733 0.000195575 0)
(0.0889692 0.000188511 0)
(0.0887947 0.000183898 0)
(0.0881561 0.000178072 0)
(0.0880654 0.000175272 0)
(0.0873743 0.000173321 0)
(0.193872 0.00676144 0)
(0.194219 0.00820702 0)
(0.195062 0.0094886 0)
(0.196378 0.0102692 0)
(0.197886 0.0105223 0)
(0.199286 0.0104041 0)
(0.200422 0.010046 0)
(0.201249 0.00951918 0)
(0.201768 0.00887706 0)
(0.201988 0.0081882 0)
(0.201934 0.00752696 0)
(0.20165 0.00694562 0)
(0.201192 0.00646129 0)
(0.200614 0.00606314 0)
(0.199952 0.00573142 0)
(0.199222 0.00544828 0)
(0.198434 0.00520027 0)
(0.197588 0.00497774 0)
(0.196683 0.00477384 0)
(0.19572 0.00458386 0)
(0.194699 0.00440468 0)
(0.193623 0.00423439 0)
(0.192495 0.00407185 0)
(0.191318 0.00391642 0)
(0.190098 0.00376768 0)
(0.188836 0.00362533 0)
(0.187539 0.00348909 0)
(0.186209 0.00335868 0)
(0.184852 0.00323381 0)
(0.183471 0.00311418 0)
(0.182069 0.00299955 0)
(0.18065 0.00288964 0)
(0.179219 0.00278423 0)
(0.177776 0.0026831 0)
(0.176327 0.00258607 0)
(0.174872 0.00249293 0)
(0.173416 0.00240354 0)
(0.171959 0.00231771 0)
(0.170508 0.00223533 0)
(0.169058 0.00215623 0)
(0.167617 0.00208032 0)
(0.166182 0.00200743 0)
(0.16476 0.0019375 0)
(0.163346 0.00187033 0)
(0.161948 0.0018059 0)
(0.160559 0.00174397 0)
(0.159189 0.00168459 0)
(0.15783 0.00162747 0)
(0.156492 0.00157271 0)
(0.155165 0.00151999 0)
(0.153861 0.00146946 0)
(0.152568 0.00142074 0)
(0.151301 0.00137407 0)
(0.150044 0.00132899 0)
(0.148814 0.00128584 0)
(0.147593 0.00124405 0)
(0.146401 0.0012041 0)
(0.145218 0.00116528 0)
(0.144065 0.00112822 0)
(0.142918 0.0010921 0)
(0.141805 0.00105766 0)
(0.140694 0.00102396 0)
(0.139621 0.000991915 0)
(0.138547 0.000960393 0)
(0.137512 0.000930513 0)
(0.136474 0.000900929 0)
(0.135478 0.00087302 0)
(0.134475 0.00084517 0)
(0.133519 0.000819049 0)
(0.13255 0.000792772 0)
(0.131633 0.000768253 0)
(0.130697 0.000743397 0)
(0.129821 0.000720344 0)
(0.128915 0.000696746 0)
(0.12808 0.000675051 0)
(0.127205 0.000652557 0)
(0.126411 0.000632136 0)
(0.125564 0.000610635 0)
(0.124812 0.000591396 0)
(0.123992 0.000570799 0)
(0.123285 0.000552677 0)
(0.122489 0.000532917 0)
(0.121828 0.000515856 0)
(0.121052 0.000496828 0)
(0.12044 0.000480923 0)
(0.119681 0.000462519 0)
(0.119123 0.000447808 0)
(0.118375 0.000430017 0)
(0.117875 0.000416576 0)
(0.117133 0.00039936 0)
(0.116696 0.000387341 0)
(0.115951 0.000370708 0)
(0.115584 0.000360466 0)
(0.114827 0.000344451 0)
(0.114538 0.000336161 0)
(0.113756 0.000321098 0)
(0.113556 0.00031502 0)
(0.112735 0.000301795 0)
(0.112632 0.000298322 0)
(0.111755 0.000289448 0)
(0.194593 0.00652697 0)
(0.194929 0.0076946 0)
(0.195624 0.00877479 0)
(0.196688 0.00952887 0)
(0.19796 0.00985194 0)
(0.199221 0.00981577 0)
(0.200316 0.0095414 0)
(0.201188 0.00911654 0)
(0.201835 0.00859634 0)
(0.20227 0.00803005 0)
(0.202512 0.00747117 0)
(0.20259 0.00696434 0)
(0.202545 0.0065313 0)
(0.202417 0.00617097 0)
(0.202238 0.0058705 0)
(0.202024 0.00561527 0)
(0.201782 0.00539335 0)
(0.201511 0.00519595 0)
(0.201209 0.00501681 0)
(0.200873 0.00485146 0)
(0.200501 0.00469683 0)
(0.20009 0.00455079 0)
(0.199643 0.00441199 0)
(0.199156 0.00427948 0)
(0.198632 0.00415267 0)
(0.198069 0.00403106 0)
(0.197472 0.00391429 0)
(0.196837 0.00380195 0)
(0.19617 0.00369375 0)
(0.195468 0.0035893 0)
(0.194736 0.00348839 0)
(0.193971 0.00339068 0)
(0.19318 0.00329604 0)
(0.192359 0.0032042 0)
(0.191514 0.00311509 0)
(0.190643 0.00302847 0)
(0.189752 0.0029443 0)
(0.188836 0.00286239 0)
(0.187904 0.00278277 0)
(0.186951 0.00270521 0)
(0.185986 0.00262983 0)
(0.185001 0.00255639 0)
(0.184009 0.00248506 0)
(0.183 0.00241553 0)
(0.181987 0.00234807 0)
(0.180958 0.00228226 0)
(0.179929 0.00221847 0)
(0.178887 0.00215618 0)
(0.177848 0.00209588 0)
(0.176797 0.00203696 0)
(0.175754 0.00198 0)
(0.174699 0.00192428 0)
(0.173656 0.00187052 0)
(0.1726 0.00181781 0)
(0.171561 0.00176708 0)
(0.170509 0.00171719 0)
(0.169478 0.00166931 0)
(0.168433 0.00162207 0)
(0.167412 0.00157687 0)
(0.166377 0.00153211 0)
(0.16537 0.00148944 0)
(0.164346 0.00144697 0)
(0.163357 0.00140667 0)
(0.162347 0.0013663 0)
(0.161377 0.00132823 0)
(0.160381 0.00128977 0)
(0.159433 0.0012538 0)
(0.158454 0.00121707 0)
(0.15753 0.00118305 0)
(0.156568 0.00114793 0)
(0.155671 0.0011157 0)
(0.154726 0.00108203 0)
(0.153857 0.00105151 0)
(0.152931 0.00101912 0)
(0.152093 0.000990226 0)
(0.151183 0.000958939 0)
(0.150379 0.000931635 0)
(0.149486 0.000901316 0)
(0.148719 0.000875538 0)
(0.147841 0.000846075 0)
(0.147114 0.000821803 0)
(0.146249 0.000793094 0)
(0.145566 0.000770304 0)
(0.144711 0.000742204 0)
(0.144077 0.000721076 0)
(0.143229 0.000693427 0)
(0.142648 0.000674042 0)
(0.141802 0.000646841 0)
(0.141281 0.000629307 0)
(0.14043 0.000602524 0)
(0.139976 0.000587016 0)
(0.139114 0.000560726 0)
(0.138734 0.000547649 0)
(0.137852 0.000522001 0)
(0.137555 0.000511467 0)
(0.136642 0.000487021 0)
(0.136436 0.000479292 0)
(0.13548 0.00045721 0)
(0.135374 0.000452901 0)
(0.134361 0.000435363 0)
(0.195213 0.00631828 0)
(0.195535 0.00728902 0)
(0.196128 0.00819337 0)
(0.196999 0.00887554 0)
(0.198057 0.00922852 0)
(0.199148 0.00926461 0)
(0.200138 0.00906988 0)
(0.200956 0.00872934 0)
(0.201589 0.00830169 0)
(0.202049 0.00782954 0)
(0.202354 0.00735264 0)
(0.20253 0.00690648 0)
(0.202608 0.0065135 0)
(0.202619 0.00617917 0)
(0.202592 0.00589707 0)
(0.202543 0.00565625 0)
(0.202483 0.00544659 0)
(0.202412 0.00526023 0)
(0.20233 0.00509171 0)
(0.202232 0.00493711 0)
(0.202121 0.00479372 0)
(0.201991 0.0046595 0)
(0.201844 0.00453308 0)
(0.201676 0.00441338 0)
(0.20149 0.0042997 0)
(0.201283 0.00419137 0)
(0.201057 0.00408799 0)
(0.200808 0.00398898 0)
(0.20054 0.00389405 0)
(0.200248 0.00380265 0)
(0.199937 0.0037146 0)
(0.199601 0.00362939 0)
(0.199247 0.00354697 0)
(0.198868 0.00346686 0)
(0.198471 0.00338911 0)
(0.198048 0.00331328 0)
(0.197609 0.00323949 0)
(0.197143 0.0031673 0)
(0.196663 0.00309692 0)
(0.196156 0.00302789 0)
(0.195637 0.00296053 0)
(0.195091 0.00289433 0)
(0.194534 0.00282977 0)
(0.193951 0.0027662 0)
(0.19336 0.00270427 0)
(0.192742 0.00264317 0)
(0.19212 0.0025837 0)
(0.191469 0.00252489 0)
(0.190819 0.00246773 0)
(0.190139 0.00241106 0)
(0.189463 0.00235612 0)
(0.188758 0.00230153 0)
(0.18806 0.00224877 0)
(0.187332 0.00219618 0)
(0.186615 0.00214555 0)
(0.185867 0.00209483 0)
(0.185135 0.00204622 0)
(0.184369 0.00199725 0)
(0.183626 0.00195057 0)
(0.182846 0.00190329 0)
(0.182094 0.0018585 0)
(0.181302 0.00181283 0)
(0.180546 0.00176989 0)
(0.179744 0.00172568 0)
(0.178986 0.00168452 0)
(0.178177 0.00164163 0)
(0.177421 0.0016022 0)
(0.176607 0.00156052 0)
(0.175856 0.00152277 0)
(0.175037 0.00148222 0)
(0.174295 0.00144607 0)
(0.173474 0.00140653 0)
(0.172745 0.00137195 0)
(0.171922 0.00133327 0)
(0.171208 0.00130026 0)
(0.170384 0.00126226 0)
(0.169691 0.00123088 0)
(0.168865 0.00119345 0)
(0.168196 0.00116367 0)
(0.167369 0.0011267 0)
(0.166728 0.00109858 0)
(0.165898 0.00106197 0)
(0.165292 0.00103553 0)
(0.164456 0.000999148 0)
(0.16389 0.00097464 0)
(0.163046 0.000938331 0)
(0.162525 0.000915862 0)
(0.16167 0.000879697 0)
(0.161201 0.000859383 0)
(0.160331 0.000823403 0)
(0.159921 0.000805414 0)
(0.159029 0.0007698 0)
(0.158686 0.00075459 0)
(0.157766 0.000719613 0)
(0.157497 0.000707265 0)
(0.156541 0.000673656 0)
(0.156356 0.000664535 0)
(0.155353 0.000633605 0)
(0.155258 0.000628605 0)
(0.1542 0.000602193 0)
(0.195753 0.00612133 0)
(0.196058 0.00693846 0)
(0.196571 0.0076966 0)
(0.197295 0.00829451 0)
(0.198176 0.00864694 0)
(0.19911 0.00873752 0)
(0.199988 0.00861578 0)
(0.200739 0.00835138 0)
(0.201338 0.00800184 0)
(0.201788 0.00760806 0)
(0.202106 0.00720246 0)
(0.202313 0.00681271 0)
(0.202434 0.00645903 0)
(0.202495 0.00615012 0)
(0.202519 0.00588453 0)
(0.202522 0.00565505 0)
(0.202517 0.00545371 0)
(0.202504 0.00527375 0)
(0.202488 0.00511056 0)
(0.202463 0.00496072 0)
(0.202433 0.00482209 0)
(0.202394 0.00469278 0)
(0.202349 0.00457164 0)
(0.202293 0.00445747 0)
(0.202232 0.00434968 0)
(0.202159 0.00424742 0)
(0.20208 0.00415039 0)
(0.201989 0.00405785 0)
(0.201892 0.00396965 0)
(0.201782 0.00388506 0)
(0.201665 0.00380408 0)
(0.201533 0.00372595 0)
(0.201396 0.00365084 0)
(0.201241 0.00357801 0)
(0.201082 0.00350774 0)
(0.200903 0.00343929 0)
(0.20072 0.00337308 0)
(0.200516 0.00330828 0)
(0.200309 0.00324546 0)
(0.200078 0.0031837 0)
(0.199845 0.00312375 0)
(0.199587 0.00306457 0)
(0.199328 0.00300714 0)
(0.199042 0.00295025 0)
(0.198757 0.00289511 0)
(0.198443 0.00284028 0)
(0.198132 0.00278723 0)
(0.19779 0.00273421 0)
(0.197454 0.00268298 0)
(0.197084 0.00263152 0)
(0.196723 0.00258196 0)
(0.196325 0.00253193 0)
(0.19594 0.00248399 0)
(0.195516 0.00243532 0)
(0.195109 0.00238897 0)
(0.194659 0.00234152 0)
(0.194231 0.00229661 0)
(0.193755 0.0022502 0)
(0.193309 0.00220663 0)
(0.192809 0.00216118 0)
(0.192346 0.00211895 0)
(0.191823 0.00207442 0)
(0.191345 0.00203352 0)
(0.190801 0.00198978 0)
(0.19031 0.00195017 0)
(0.189746 0.00190704 0)
(0.189245 0.00186871 0)
(0.188662 0.00182608 0)
(0.188154 0.00178904 0)
(0.187552 0.00174686 0)
(0.187041 0.00171106 0)
(0.186421 0.00166926 0)
(0.185909 0.00163472 0)
(0.185273 0.00159313 0)
(0.184764 0.00155991 0)
(0.184111 0.00151834 0)
(0.183609 0.00148655 0)
(0.18294 0.00144493 0)
(0.18245 0.00141461 0)
(0.181763 0.00137285 0)
(0.181289 0.00134407 0)
(0.180584 0.00130211 0)
(0.180131 0.00127489 0)
(0.179407 0.00123266 0)
(0.178981 0.00120734 0)
(0.178236 0.00116471 0)
(0.177841 0.00114139 0)
(0.177074 0.00109852 0)
(0.176717 0.00107727 0)
(0.175924 0.00103432 0)
(0.175611 0.00101534 0)
(0.174789 0.000972636 0)
(0.174527 0.000956435 0)
(0.17367 0.000914256 0)
(0.173465 0.000900913 0)
(0.17257 0.00086015 0)
(0.172429 0.00085023 0)
(0.171489 0.000812333 0)
(0.171417 0.000806898 0)
(0.170426 0.00077338 0)
(0.196227 0.00593141 0)
(0.196512 0.00662421 0)
(0.19696 0.00726387 0)
(0.19757 0.00778267 0)
(0.198309 0.0081178 0)
(0.199104 0.00824409 0)
(0.199875 0.00818438 0)
(0.200556 0.00798874 0)
(0.201117 0.00770804 0)
(0.20155 0.00738156 0)
(0.201869 0.00703834 0)
(0.20209 0.00670085 0)
(0.202236 0.00638622 0)
(0.202323 0.00610394 0)
(0.202374 0.00585587 0)
(0.202401 0.00563807 0)
(0.202418 0.00544496 0)
(0.202425 0.00527096 0)
(0.202429 0.0051123 0)
(0.202426 0.00496599 0)
(0.202421 0.00483041 0)
(0.202407 0.00470381 0)
(0.202392 0.00458538 0)
(0.202369 0.0044738 0)
(0.202345 0.00436869 0)
(0.202314 0.004269 0)
(0.202283 0.00417466 0)
(0.202243 0.00408471 0)
(0.202205 0.00399928 0)
(0.202157 0.00391739 0)
(0.202112 0.00383934 0)
(0.202055 0.00376409 0)
(0.202002 0.00369215 0)
(0.201936 0.00362241 0)
(0.201875 0.00355558 0)
(0.201799 0.00349048 0)
(0.201728 0.00342798 0)
(0.20164 0.0033668 0)
(0.201559 0.00330797 0)
(0.201459 0.00325006 0)
(0.201367 0.00319434 0)
(0.201253 0.00313917 0)
(0.201148 0.00308615 0)
(0.20102 0.00303336 0)
(0.200902 0.00298278 0)
(0.200757 0.00293213 0)
(0.200626 0.00288375 0)
(0.200464 0.00283494 0)
(0.200318 0.00278847 0)
(0.200138 0.00274117 0)
(0.199978 0.00269632 0)
(0.199779 0.0026503 0)
(0.199603 0.002607 0)
(0.199384 0.00256215 0)
(0.199194 0.00252039 0)
(0.198955 0.00247656 0)
(0.198749 0.00243614 0)
(0.198489 0.00239308 0)
(0.198269 0.00235381 0)
(0.197988 0.00231133 0)
(0.197753 0.00227317 0)
(0.19745 0.00223124 0)
(0.197202 0.00219423 0)
(0.196878 0.00215269 0)
(0.196618 0.00211678 0)
(0.196272 0.00207539 0)
(0.196 0.00204051 0)
(0.195632 0.0019991 0)
(0.195351 0.00196529 0)
(0.19496 0.00192382 0)
(0.194672 0.001891 0)
(0.194259 0.00184939 0)
(0.193965 0.00181762 0)
(0.193529 0.00177569 0)
(0.193233 0.00174499 0)
(0.192774 0.00170252 0)
(0.192477 0.00167303 0)
(0.191995 0.00162993 0)
(0.191701 0.00160171 0)
(0.191195 0.001558 0)
(0.190907 0.00153107 0)
(0.190376 0.00148667 0)
(0.190099 0.00146097 0)
(0.189542 0.0014159 0)
(0.189279 0.00139183 0)
(0.188695 0.00134599 0)
(0.18845 0.0013237 0)
(0.187838 0.00127734 0)
(0.187615 0.00125674 0)
(0.186973 0.00121002 0)
(0.186777 0.00119128 0)
(0.186105 0.00114484 0)
(0.18594 0.00112878 0)
(0.185232 0.00108269 0)
(0.185103 0.00106914 0)
(0.184359 0.00102436 0)
(0.184271 0.00101416 0)
(0.183488 0.00097261 0)
(0.183443 0.000966968 0)
(0.182617 0.000929498 0)
(0.196646 0.0057482 0)
(0.196909 0.00633937 0)
(0.197303 0.00688402 0)
(0.197823 0.00733427 0)
(0.198447 0.00764489 0)
(0.199124 0.00779115 0)
(0.199796 0.00778024 0)
(0.200408 0.00764454 0)
(0.200927 0.00742501 0)
(0.20134 0.00715738 0)
(0.201655 0.00686873 0)
(0.201884 0.00657855 0)
(0.202045 0.00630146 0)
(0.202151 0.00604636 0)
(0.202221 0.00581702 0)
(0.202265 0.00561199 0)
(0.202297 0.00542799 0)
(0.202316 0.00526067 0)
(0.202331 0.00510717 0)
(0.202337 0.0049648 0)
(0.202341 0.00483241 0)
(0.202337 0.00470836 0)
(0.202332 0.00459219 0)
(0.202319 0.00448251 0)
(0.202308 0.0043792 0)
(0.202288 0.004281 0)
(0.202271 0.00418813 0)
(0.202246 0.00409937 0)
(0.202226 0.00401519 0)
(0.202197 0.0039343 0)
(0.202174 0.00385742 0)
(0.20214 0.00378311 0)
(0.202114 0.00371233 0)
(0.202077 0.00364356 0)
(0.202049 0.00357797 0)
(0.202008 0.00351392 0)
(0.201977 0.0034528 0)
(0.201931 0.00339279 0)
(0.201898 0.00333553 0)
(0.201847 0.00327896 0)
(0.20181 0.00322501 0)
(0.201754 0.00317134 0)
(0.201714 0.0031203 0)
(0.201651 0.00306915 0)
(0.201607 0.00302075 0)
(0.201537 0.00297189 0)
(0.201488 0.00292591 0)
(0.20141 0.00287904 0)
(0.201355 0.00283519 0)
(0.201268 0.00278996 0)
(0.201208 0.00274791 0)
(0.201111 0.00270401 0)
(0.201045 0.00266367 0)
(0.200936 0.00262095 0)
(0.200864 0.0025823 0)
(0.200743 0.00254067 0)
(0.200664 0.00250353 0)
(0.20053 0.00246268 0)
(0.200443 0.00242677 0)
(0.200295 0.00238643 0)
(0.200202 0.00235165 0)
(0.200039 0.00231175 0)
(0.199938 0.00227821 0)
(0.19976 0.00223858 0)
(0.199652 0.00220622 0)
(0.199456 0.00216656 0)
(0.199342 0.00213525 0)
(0.199129 0.00209532 0)
(0.199008 0.00206506 0)
(0.198776 0.00202485 0)
(0.19865 0.00199549 0)
(0.1984 0.00195493 0)
(0.198269 0.00192654 0)
(0.197998 0.00188544 0)
(0.197864 0.001858 0)
(0.197572 0.00181605 0)
(0.197437 0.00178971 0)
(0.197123 0.00174679 0)
(0.196987 0.00172152 0)
(0.19665 0.00167783 0)
(0.196516 0.00165363 0)
(0.196156 0.00160909 0)
(0.196025 0.00158569 0)
(0.195641 0.00154027 0)
(0.195516 0.00151826 0)
(0.195106 0.00147182 0)
(0.194989 0.00145133 0)
(0.194553 0.00140442 0)
(0.194447 0.00138518 0)
(0.193983 0.00133777 0)
(0.193889 0.00131965 0)
(0.193399 0.00127256 0)
(0.193321 0.0012573 0)
(0.192801 0.00121059 0)
(0.192739 0.0011973 0)
(0.192188 0.00115165 0)
(0.192146 0.00114117 0)
(0.191567 0.00109938 0)
(0.191545 0.00109383 0)
(0.190932 0.00105567 0)
(0.197017 0.00557242 0)
(0.19726 0.0060805 0)
(0.197607 0.00654841 0)
(0.198054 0.00694086 0)
(0.198585 0.00722505 0)
(0.199163 0.00737981 0)
(0.199747 0.00740465 0)
(0.200291 0.0073188 0)
(0.200767 0.00715284 0)
(0.201157 0.00693705 0)
(0.201464 0.0066964 0)
(0.201695 0.00644858 0)
(0.201866 0.00620658 0)
(0.201986 0.00597837 0)
(0.202072 0.00576861 0)
(0.202129 0.00557748 0)
(0.202173 0.00540366 0)
(0.202202 0.005244 0)
(0.202225 0.00509656 0)
(0.202238 0.0049589 0)
(0.202249 0.00483037 0)
(0.202251 0.00470933 0)
(0.202252 0.00459572 0)
(0.202244 0.00448806 0)
(0.202238 0.00438657 0)
(0.202223 0.00428976 0)
(0.202212 0.0041982 0)
(0.202192 0.00411036 0)
(0.202178 0.00402711 0)
(0.202154 0.0039468 0)
(0.202138 0.00387059 0)
(0.202112 0.00379664 0)
(0.202094 0.0037264 0)
(0.202066 0.00365787 0)
(0.202048 0.00359274 0)
(0.202017 0.00352886 0)
(0.201998 0.00346818 0)
(0.201966 0.00340833 0)
(0.201947 0.00335154 0)
(0.201913 0.00329516 0)
(0.201895 0.00324178 0)
(0.201858 0.00318834 0)
(0.201839 0.00313796 0)
(0.2018 0.0030871 0)
(0.201782 0.00303947 0)
(0.20174 0.00299096 0)
(0.201721 0.00294589 0)
(0.201676 0.00289948 0)
(0.201657 0.00285671 0)
(0.201607 0.00281203 0)
(0.201588 0.00277125 0)
(0.201534 0.00272796 0)
(0.201514 0.00268904 0)
(0.201455 0.00264698 0)
(0.201434 0.00260992 0)
(0.201368 0.00256903 0)
(0.201346 0.00253367 0)
(0.201274 0.00249368 0)
(0.201251 0.0024597 0)
(0.201171 0.00242029 0)
(0.201145 0.00238753 0)
(0.201057 0.00234857 0)
(0.20103 0.0023172 0)
(0.200932 0.00227852 0)
(0.200903 0.00224854 0)
(0.200795 0.00220982 0)
(0.200764 0.00218101 0)
(0.200645 0.002142 0)
(0.200612 0.00211429 0)
(0.200481 0.00207504 0)
(0.200446 0.00204821 0)
(0.200302 0.00200862 0)
(0.200265 0.00198278 0)
(0.200107 0.00194266 0)
(0.200069 0.00191777 0)
(0.199896 0.00187673 0)
(0.199858 0.00185292 0)
(0.199668 0.00181086 0)
(0.19963 0.00178791 0)
(0.199424 0.0017452 0)
(0.199385 0.00172317 0)
(0.199162 0.00167976 0)
(0.199124 0.00165818 0)
(0.198883 0.00161384 0)
(0.198846 0.00159354 0)
(0.198585 0.00154806 0)
(0.198552 0.00152902 0)
(0.198272 0.00148342 0)
(0.198241 0.00146535 0)
(0.19794 0.00141943 0)
(0.197912 0.00140165 0)
(0.197592 0.00135572 0)
(0.197571 0.00134127 0)
(0.197228 0.00129622 0)
(0.197211 0.00128336 0)
(0.196845 0.00123916 0)
(0.196834 0.00122802 0)
(0.19645 0.00118808 0)
(0.196445 0.00118297 0)
(0.196035 0.00114643 0)
(0.197348 0.0054048 0)
(0.19757 0.00584471 0)
(0.197878 0.00624988 0)
(0.198264 0.00659381 0)
(0.198719 0.00685226 0)
(0.199214 0.00700802 0)
(0.199721 0.00705754 0)
(0.200202 0.00701139 0)
(0.200634 0.00689117 0)
(0.200998 0.00672094 0)
(0.201295 0.00652281 0)
(0.201524 0.00631288 0)
(0.201701 0.0061032 0)
(0.20183 0.00590095 0)
(0.201927 0.00571111 0)
(0.201996 0.00553476 0)
(0.202049 0.00537212 0)
(0.202087 0.00522103 0)
(0.202118 0.0050805 0)
(0.202137 0.00494835 0)
(0.202154 0.00482435 0)
(0.20216 0.0047069 0)
(0.202166 0.00459631 0)
(0.202163 0.00449103 0)
(0.20216 0.00439162 0)
(0.202149 0.00429641 0)
(0.202142 0.00420631 0)
(0.202125 0.0041195 0)
(0.202114 0.00403725 0)
(0.202094 0.00395756 0)
(0.202081 0.00388201 0)
(0.202057 0.00380839 0)
(0.202043 0.00373858 0)
(0.202018 0.00367017 0)
(0.202003 0.00360531 0)
(0.201976 0.00354142 0)
(0.201961 0.00348089 0)
(0.201933 0.00342094 0)
(0.201919 0.00336425 0)
(0.20189 0.0033077 0)
(0.201877 0.00325443 0)
(0.201847 0.00320079 0)
(0.201834 0.00315055 0)
(0.201803 0.00309948 0)
(0.201792 0.00305201 0)
(0.20176 0.00300329 0)
(0.20175 0.00295842 0)
(0.201717 0.00291181 0)
(0.201709 0.00286933 0)
(0.201674 0.0028245 0)
(0.201667 0.00278412 0)
(0.20163 0.00274069 0)
(0.201625 0.00270229 0)
(0.201585 0.0026601 0)
(0.201582 0.00262364 0)
(0.20154 0.0025827 0)
(0.201538 0.00254804 0)
(0.201492 0.00250811 0)
(0.201491 0.00247493 0)
(0.201443 0.00243569 0)
(0.201442 0.0024038 0)
(0.20139 0.00236502 0)
(0.201391 0.00233468 0)
(0.201333 0.00229619 0)
(0.201335 0.0022674 0)
(0.201272 0.00222896 0)
(0.201275 0.00220144 0)
(0.201206 0.00216278 0)
(0.20121 0.00213636 0)
(0.201134 0.00209767 0)
(0.201138 0.0020721 0)
(0.201055 0.00203317 0)
(0.201059 0.00200862 0)
(0.200969 0.0019693 0)
(0.200973 0.00194574 0)
(0.200874 0.00190553 0)
(0.200879 0.0018831 0)
(0.20077 0.00184202 0)
(0.200775 0.00182021 0)
(0.200656 0.00177875 0)
(0.200662 0.00175775 0)
(0.200532 0.00171591 0)
(0.200537 0.00169517 0)
(0.200396 0.00165234 0)
(0.200402 0.00163298 0)
(0.200248 0.00158906 0)
(0.200255 0.00157059 0)
(0.200089 0.00152704 0)
(0.200095 0.00150944 0)
(0.199917 0.00146602 0)
(0.19992 0.00144821 0)
(0.199729 0.00140399 0)
(0.199735 0.00138992 0)
(0.199529 0.00134748 0)
(0.199534 0.00133496 0)
(0.199312 0.00129341 0)
(0.199314 0.00128136 0)
(0.199082 0.00124374 0)
(0.199085 0.00123928 0)