/*--------------------------------*- C++ -*----------------------------------*\
| =========                 |                                                 |
| \\      /  F ield         | OpenFOAM: The Open Source CFD Toolbox           |
|  \\    /   O peration     | Version:  2.3.0                                 |
|   \\  /    A nd           | Web:      www.OpenFOAM.org                      |
|    \\/     M anipulation  |                                                 |
\*---------------------------------------------------------------------------*/
FoamFile
{
    version     2.0;
    format      ascii;
    class       surfaceScalarField;
    location    "0.7";
    object      phi;
}
// * * * * * * * * * * * * * * * * * * * * * * * * * * * * * * * * * * * * * //

dimensions      [0 3 -1 0 0 0 0];

internalField   nonuniform List<scalar> 
13570
(
2.82868e-08
2.88649e-09
-3.11733e-08
2.54188e-08
2.86808e-09
2.27278e-08
2.69098e-09
2.02475e-08
2.48025e-09
1.79941e-08
2.25341e-09
1.59781e-08
2.01598e-09
1.4202e-08
1.77616e-09
1.26602e-08
1.54174e-09
1.13409e-08
1.31931e-09
1.02267e-08
1.11425e-09
9.29619e-09
9.30484e-10
8.52588e-09
7.70318e-10
7.89151e-09
6.34368e-10
7.36973e-09
5.21779e-10
6.93916e-09
4.30566e-10
6.58113e-09
3.58035e-10
6.27994e-09
3.01184e-10
6.02291e-09
2.57034e-10
5.80005e-09
2.22863e-10
5.60372e-09
1.9633e-10
5.42819e-09
1.75527e-10
5.26923e-09
1.5896e-10
5.12373e-09
1.45498e-10
4.98942e-09
1.34314e-10
4.8646e-09
1.24815e-10
4.74802e-09
1.16586e-10
4.63868e-09
1.09338e-10
4.53581e-09
1.02869e-10
4.43877e-09
9.70399e-11
4.34702e-09
9.17498e-11
4.2601e-09
8.69243e-11
4.17759e-09
8.25061e-11
4.09914e-09
7.84489e-11
4.02443e-09
7.47142e-11
3.95316e-09
7.1269e-11
3.88507e-09
6.8084e-11
3.81994e-09
6.51338e-11
3.75755e-09
6.23953e-11
3.6977e-09
5.98483e-11
3.64022e-09
5.74745e-11
3.58496e-09
5.52578e-11
3.53178e-09
5.31837e-11
3.48054e-09
5.12393e-11
3.43113e-09
4.94132e-11
3.38343e-09
4.76952e-11
3.33736e-09
4.6076e-11
3.29281e-09
4.45476e-11
3.24971e-09
4.31027e-11
3.20797e-09
4.17347e-11
3.16753e-09
4.04376e-11
3.12833e-09
3.92062e-11
3.09029e-09
3.80357e-11
3.05337e-09
3.69217e-11
3.01751e-09
3.58602e-11
2.98266e-09
3.48476e-11
2.94878e-09
3.38806e-11
2.91583e-09
3.29563e-11
2.88375e-09
3.20718e-11
2.85253e-09
3.12247e-11
2.82212e-09
3.04127e-11
2.79248e-09
2.96335e-11
2.7636e-09
2.88854e-11
2.73543e-09
2.81663e-11
2.70796e-09
2.74748e-11
2.68115e-09
2.68092e-11
2.65498e-09
2.6168e-11
2.62943e-09
2.55501e-11
2.60448e-09
2.49542e-11
2.5801e-09
2.43791e-11
2.55627e-09
2.38238e-11
2.53299e-09
2.32874e-11
2.51022e-09
2.27689e-11
2.48795e-09
2.22676e-11
2.46617e-09
2.17826e-11
2.44485e-09
2.13133e-11
2.42399e-09
2.08592e-11
2.40357e-09
2.04195e-11
2.38358e-09
1.99939e-11
2.364e-09
1.95819e-11
2.34482e-09
1.91831e-11
2.32602e-09
1.87972e-11
2.30759e-09
1.8424e-11
2.28953e-09
1.80633e-11
2.27182e-09
1.77151e-11
2.25444e-09
1.73794e-11
2.23738e-09
1.70564e-11
2.22063e-09
1.67462e-11
2.20418e-09
1.64494e-11
2.18802e-09
1.61666e-11
2.17212e-09
1.58988e-11
2.15647e-09
1.56473e-11
2.14106e-09
1.54144e-11
2.12585e-09
1.52034e-11
2.11083e-09
1.50202e-11
2.09596e-09
1.48762e-11
2.08116e-09
1.47968e-11
2.06631e-09
1.48497e-11
2.05111e-09
1.52035e-11
2.03517e-09
1.59339e-11
4.68609e-11
3.33194e-08
3.16532e-09
-3.35982e-08
3.27267e-08
3.46069e-09
3.19022e-08
3.51557e-09
3.09223e-08
3.46013e-09
2.98426e-08
3.33308e-09
2.87087e-08
3.14984e-09
2.75576e-08
2.92728e-09
2.64176e-08
2.68181e-09
2.53095e-08
2.42741e-09
2.4248e-08
2.17566e-09
2.32428e-08
1.93571e-09
2.2299e-08
1.71411e-09
2.14186e-08
1.51479e-09
2.0601e-08
1.33935e-09
1.98441e-08
1.1875e-09
1.91445e-08
1.05765e-09
1.84982e-08
9.47443e-10
1.79011e-08
8.54186e-10
1.73487e-08
7.75199e-10
1.68371e-08
7.08012e-10
1.63621e-08
6.50477e-10
1.59203e-08
6.00798e-10
1.55082e-08
5.57518e-10
1.51231e-08
5.19475e-10
1.47621e-08
4.85758e-10
1.44231e-08
4.55652e-10
1.41038e-08
4.28599e-10
1.38025e-08
4.04157e-10
1.35176e-08
3.81972e-10
1.32476e-08
3.61757e-10
1.29912e-08
3.43276e-10
1.27474e-08
3.26329e-10
1.25151e-08
3.10748e-10
1.22934e-08
2.96385e-10
1.20816e-08
2.83114e-10
1.18789e-08
2.70824e-10
1.16846e-08
2.59418e-10
1.14982e-08
2.48809e-10
1.13191e-08
2.38921e-10
1.11469e-08
2.29686e-10
1.09811e-08
2.21046e-10
1.08213e-08
2.12945e-10
1.06672e-08
2.05338e-10
1.05185e-08
1.9818e-10
1.03747e-08
1.91436e-10
1.02357e-08
1.85071e-10
1.01012e-08
1.79054e-10
9.97096e-09
1.73358e-10
9.84474e-09
1.67958e-10
9.72235e-09
1.62833e-10
9.60359e-09
1.57961e-10
9.4883e-09
1.53326e-10
9.37631e-09
1.4891e-10
9.26747e-09
1.44698e-10
9.16165e-09
1.40676e-10
9.0587e-09
1.36831e-10
8.9585e-09
1.33153e-10
8.86094e-09
1.2963e-10
8.76591e-09
1.26253e-10
8.67331e-09
1.23012e-10
8.58305e-09
1.199e-10
8.49502e-09
1.16908e-10
8.40916e-09
1.1403e-10
8.32538e-09
1.11259e-10
8.2436e-09
1.0859e-10
8.16375e-09
1.06015e-10
8.08577e-09
1.03531e-10
8.00959e-09
1.01132e-10
7.93515e-09
9.88146e-11
7.8624e-09
9.65734e-11
7.79129e-09
9.44051e-11
7.72175e-09
9.2306e-11
7.65374e-09
9.02727e-11
7.58722e-09
8.83024e-11
7.52215e-09
8.6392e-11
7.45847e-09
8.4539e-11
7.39614e-09
8.2741e-11
7.33514e-09
8.09959e-11
7.27542e-09
7.93018e-11
7.21695e-09
7.76569e-11
7.15969e-09
7.60598e-11
7.1036e-09
7.45093e-11
7.04866e-09
7.30045e-11
6.99483e-09
7.15447e-11
6.94208e-09
7.01297e-11
6.89038e-09
6.87595e-11
6.83969e-09
6.74347e-11
6.78998e-09
6.61564e-11
6.74122e-09
6.49265e-11
6.69337e-09
6.37477e-11
6.64639e-09
6.26243e-11
6.60025e-09
6.15631e-11
6.55487e-09
6.05746e-11
6.51022e-09
5.96777e-11
6.46618e-09
5.89085e-11
6.42263e-09
5.83497e-11
6.37927e-09
5.82131e-11
6.33542e-09
5.90485e-11
6.28586e-09
6.54991e-11
1.18108e-10
3.47143e-08
3.01761e-09
-3.45665e-08
3.47727e-08
3.4022e-09
3.47047e-08
3.58358e-09
3.45157e-08
3.64915e-09
3.42163e-08
3.6325e-09
3.38208e-08
3.54533e-09
3.33467e-08
3.40142e-09
3.28117e-08
3.21675e-09
3.22327e-08
3.00643e-09
3.16245e-08
2.78382e-09
3.1e-08
2.56023e-09
3.03696e-08
2.34452e-09
2.97415e-08
2.1429e-09
2.91218e-08
1.95904e-09
2.85149e-08
1.79443e-09
2.79236e-08
1.64893e-09
2.73498e-08
1.52128e-09
2.67943e-08
1.40962e-09
2.62577e-08
1.31186e-09
2.57398e-08
1.22593e-09
2.52403e-08
1.14993e-09
2.47589e-08
1.08223e-09
2.42949e-08
1.02147e-09
2.38479e-08
9.66542e-10
2.34171e-08
9.1656e-10
2.30019e-08
8.70821e-10
2.26017e-08
8.28764e-10
2.22159e-08
7.89941e-10
2.18439e-08
7.53988e-10
2.14851e-08
7.20605e-10
2.11388e-08
6.89539e-10
2.08046e-08
6.60574e-10
2.04818e-08
6.33521e-10
2.017e-08
6.08215e-10
1.98686e-08
5.84507e-10
1.95771e-08
5.62267e-10
1.92952e-08
5.41374e-10
1.90223e-08
5.2172e-10
1.8758e-08
5.03209e-10
1.85019e-08
4.85751e-10
1.82537e-08
4.69265e-10
1.8013e-08
4.53679e-10
1.77794e-08
4.38925e-10
1.75526e-08
4.24941e-10
1.73324e-08
4.11674e-10
1.71184e-08
3.99071e-10
1.69103e-08
3.87086e-10
1.6708e-08
3.75677e-10
1.65112e-08
3.64805e-10
1.63196e-08
3.54433e-10
1.6133e-08
3.44529e-10
1.59513e-08
3.35063e-10
1.57742e-08
3.26007e-10
1.56015e-08
3.17334e-10
1.54332e-08
3.09022e-10
1.5269e-08
3.01049e-10
1.51087e-08
2.93393e-10
1.49523e-08
2.86037e-10
1.47996e-08
2.78962e-10
1.46505e-08
2.72153e-10
1.45048e-08
2.65595e-10
1.43624e-08
2.59273e-10
1.42233e-08
2.53175e-10
1.40872e-08
2.47288e-10
1.39542e-08
2.41601e-10
1.38241e-08
2.36103e-10
1.36969e-08
2.30785e-10
1.35724e-08
2.25637e-10
1.34505e-08
2.20651e-10
1.33313e-08
2.15818e-10
1.32146e-08
2.11131e-10
1.31003e-08
2.06582e-10
1.29884e-08
2.02167e-10
1.28788e-08
1.97877e-10
1.27715e-08
1.93707e-10
1.26664e-08
1.89653e-10
1.25634e-08
1.8571e-10
1.24626e-08
1.81872e-10
1.23637e-08
1.78136e-10
1.22669e-08
1.74498e-10
1.2172e-08
1.70955e-10
1.2079e-08
1.67505e-10
1.19879e-08
1.64146e-10
1.18985e-08
1.60875e-10
1.1811e-08
1.57692e-10
1.17251e-08
1.54596e-10
1.1641e-08
1.51589e-10
1.15585e-08
1.48672e-10
1.14775e-08
1.45848e-10
1.13982e-08
1.43123e-10
1.13203e-08
1.40504e-10
1.12438e-08
1.38003e-10
1.11688e-08
1.35641e-10
1.1095e-08
1.33453e-10
1.10224e-08
1.31507e-10
1.09508e-08
1.29961e-10
1.08798e-08
1.29221e-10
1.08083e-08
1.30563e-10
1.07312e-08
1.42574e-10
2.01002e-10
3.5548e-08
2.83057e-09
-3.5361e-08
3.57381e-08
3.21213e-09
3.58868e-08
3.43486e-09
3.59817e-08
3.55425e-09
3.60161e-08
3.59808e-09
3.59861e-08
3.57532e-09
3.58923e-08
3.4953e-09
3.57386e-08
3.37042e-09
3.55314e-08
3.2136e-09
3.52783e-08
3.03697e-09
3.49872e-08
2.85131e-09
3.46661e-08
2.66565e-09
3.43221e-08
2.48684e-09
3.39617e-08
2.31949e-09
3.35899e-08
2.16617e-09
3.32111e-08
2.02778e-09
3.28283e-08
1.90402e-09
3.24441e-08
1.79383e-09
3.20602e-08
1.69576e-09
3.1678e-08
1.6082e-09
3.12983e-08
1.52963e-09
3.09218e-08
1.45864e-09
3.05493e-08
1.39404e-09
3.01809e-08
1.33486e-09
2.98172e-08
1.28028e-09
2.94584e-08
1.22966e-09
2.91046e-08
1.1825e-09
2.87562e-08
1.13837e-09
2.84132e-08
1.09696e-09
2.80759e-08
1.05799e-09
2.77441e-08
1.02125e-09
2.74182e-08
9.86527e-10
2.7098e-08
9.53675e-10
2.67837e-08
9.22546e-10
2.64752e-08
8.93015e-10
2.61725e-08
8.64966e-10
2.58756e-08
8.38296e-10
2.55844e-08
8.12913e-10
2.52989e-08
7.88731e-10
2.50189e-08
7.65671e-10
2.47445e-08
7.43662e-10
2.44756e-08
7.22637e-10
2.4212e-08
7.02535e-10
2.39536e-08
6.833e-10
2.37004e-08
6.64881e-10
2.34523e-08
6.47228e-10
2.3209e-08
6.30297e-10
2.29707e-08
6.14047e-10
2.2737e-08
5.98439e-10
2.2508e-08
5.83437e-10
2.22836e-08
5.69007e-10
2.20635e-08
5.55119e-10
2.18478e-08
5.41742e-10
2.16363e-08
5.2885e-10
2.14289e-08
5.16418e-10
2.12255e-08
5.0442e-10
2.1026e-08
4.92835e-10
2.08304e-08
4.81642e-10
2.06386e-08
4.7082e-10
2.04504e-08
4.60352e-10
2.02658e-08
4.50218e-10
2.00846e-08
4.40404e-10
1.99069e-08
4.30893e-10
1.97325e-08
4.2167e-10
1.95614e-08
4.12722e-10
1.93935e-08
4.04036e-10
1.92287e-08
3.95599e-10
1.90669e-08
3.87399e-10
1.89081e-08
3.79426e-10
1.87523e-08
3.71669e-10
1.85993e-08
3.64118e-10
1.84491e-08
3.56765e-10
1.83017e-08
3.49599e-10
1.81569e-08
3.42614e-10
1.80148e-08
3.35801e-10
1.78753e-08
3.29154e-10
1.77384e-08
3.22665e-10
1.76039e-08
3.16329e-10
1.74719e-08
3.10139e-10
1.73423e-08
3.04092e-10
1.72151e-08
2.98182e-10
1.70902e-08
2.92406e-10
1.69676e-08
2.8676e-10
1.68472e-08
2.81243e-10
1.67291e-08
2.75854e-10
1.66131e-08
2.70591e-10
1.64992e-08
2.65456e-10
1.63874e-08
2.60452e-10
1.62777e-08
2.55583e-10
1.61699e-08
2.50858e-10
1.60642e-08
2.46288e-10
1.59603e-08
2.41892e-10
1.58582e-08
2.377e-10
1.57579e-08
2.33766e-10
1.56592e-08
2.30193e-10
1.5562e-08
2.27217e-10
1.54657e-08
2.25454e-10
1.53694e-08
2.26923e-10
1.52706e-08
2.41379e-10
2.94682e-10
3.6298e-08
2.66704e-09
-3.61345e-08
3.6491e-08
3.01913e-09
3.66777e-08
3.24811e-09
3.68455e-08
3.38649e-09
3.69867e-08
3.45692e-09
3.7094e-08
3.46799e-09
3.71625e-08
3.4268e-09
3.719e-08
3.34296e-09
3.71765e-08
3.22704e-09
3.71242e-08
3.0893e-09
3.70364e-08
2.93913e-09
3.69173e-08
2.78471e-09
3.67716e-08
2.63257e-09
3.66037e-08
2.48739e-09
3.64177e-08
2.35216e-09
3.62171e-08
2.22833e-09
3.60049e-08
2.11622e-09
3.57834e-08
2.01535e-09
3.55544e-08
1.92476e-09
3.53194e-08
1.84328e-09
3.50793e-08
1.76968e-09
3.48351e-08
1.70281e-09
3.45875e-08
1.64164e-09
3.43371e-08
1.58531e-09
3.40843e-08
1.53309e-09
3.38296e-08
1.48438e-09
3.35733e-08
1.43873e-09
3.3316e-08
1.39575e-09
3.30578e-08
1.35513e-09
3.27992e-08
1.31663e-09
3.25404e-08
1.28005e-09
3.22817e-08
1.24522e-09
3.20233e-08
1.21199e-09
3.17656e-08
1.18024e-09
3.15088e-08
1.14986e-09
3.1253e-08
1.12076e-09
3.09984e-08
1.09285e-09
3.07453e-08
1.06605e-09
3.04938e-08
1.04029e-09
3.02439e-08
1.01551e-09
2.99959e-08
9.91646e-10
2.97499e-08
9.68655e-10
2.9506e-08
9.46482e-10
2.92642e-08
9.25084e-10
2.90246e-08
9.04418e-10
2.87874e-08
8.84447e-10
2.85526e-08
8.65135e-10
2.83202e-08
8.46448e-10
2.80903e-08
8.28357e-10
2.78629e-08
8.10832e-10
2.7638e-08
7.93846e-10
2.74158e-08
7.77375e-10
2.71961e-08
7.61393e-10
2.69791e-08
7.4588e-10
2.67647e-08
7.30814e-10
2.6553e-08
7.16175e-10
2.63438e-08
7.01944e-10
2.61374e-08
6.88104e-10
2.59336e-08
6.74638e-10
2.57324e-08
6.61529e-10
2.55338e-08
6.48762e-10
2.53379e-08
6.36323e-10
2.51446e-08
6.24199e-10
2.49539e-08
6.12375e-10
2.47658e-08
6.00839e-10
2.45803e-08
5.8958e-10
2.43973e-08
5.78586e-10
2.42168e-08
5.67845e-10
2.40389e-08
5.57348e-10
2.38635e-08
5.47085e-10
2.36905e-08
5.37046e-10
2.35201e-08
5.27223e-10
2.33521e-08
5.17605e-10
2.31865e-08
5.08187e-10
2.30234e-08
4.98959e-10
2.28626e-08
4.89915e-10
2.27042e-08
4.81047e-10
2.25482e-08
4.7235e-10
2.23945e-08
4.63818e-10
2.22432e-08
4.55446e-10
2.20941e-08
4.4723e-10
2.19473e-08
4.39165e-10
2.18029e-08
4.3125e-10
2.16606e-08
4.23481e-10
2.15206e-08
4.15858e-10
2.13828e-08
4.08383e-10
2.12472e-08
4.01056e-10
2.11138e-08
3.93883e-10
2.09825e-08
3.86871e-10
2.08533e-08
3.80031e-10
2.07262e-08
3.73379e-10
2.06012e-08
3.66941e-10
2.04781e-08
3.60758e-10
2.0357e-08
3.54901e-10
2.02377e-08
3.49508e-10
2.012e-08
3.44883e-10
2.00037e-08
3.41808e-10
1.98879e-08
3.42686e-10
1.9773e-08
3.56256e-10
3.97358e-10
3.70413e-08
2.52962e-09
-3.69039e-08
3.72137e-08
2.84671e-09
3.73929e-08
3.06892e-09
3.75668e-08
3.21256e-09
3.77291e-08
3.29466e-09
3.78736e-08
3.32349e-09
3.79952e-08
3.30521e-09
3.80904e-08
3.24768e-09
3.81577e-08
3.15975e-09
3.81968e-08
3.05019e-09
3.82088e-08
2.92714e-09
3.81958e-08
2.7978e-09
3.81602e-08
2.6681e-09
3.81051e-08
2.5425e-09
3.80332e-08
2.42403e-09
3.79472e-08
2.31439e-09
3.78492e-08
2.21425e-09
3.7741e-08
2.12353e-09
3.76241e-08
2.04163e-09
3.74997e-08
1.96771e-09
3.73685e-08
1.9008e-09
3.72314e-08
1.83995e-09
3.70888e-08
1.78427e-09
3.69411e-08
1.733e-09
3.67887e-08
1.68548e-09
3.66319e-08
1.64117e-09
3.6471e-08
1.59961e-09
3.63063e-08
1.56046e-09
3.6138e-08
1.52341e-09
3.59664e-08
1.48824e-09
3.57917e-08
1.45473e-09
3.56142e-08
1.42274e-09
3.54341e-08
1.39211e-09
3.52516e-08
1.36274e-09
3.5067e-08
1.33452e-09
3.48803e-08
1.30737e-09
3.4692e-08
1.2812e-09
3.45021e-08
1.25595e-09
3.43108e-08
1.23155e-09
3.41184e-08
1.20795e-09
3.39249e-08
1.1851e-09
3.37306e-08
1.16294e-09
3.35357e-08
1.14145e-09
3.33402e-08
1.12058e-09
3.31443e-08
1.1003e-09
3.29482e-08
1.08057e-09
3.27519e-08
1.06137e-09
3.25557e-08
1.04267e-09
3.23596e-08
1.02445e-09
3.21638e-08
1.00669e-09
3.19683e-08
9.89354e-10
3.17732e-08
9.72434e-10
3.15787e-08
9.5591e-10
3.13848e-08
9.39764e-10
3.11916e-08
9.2398e-10
3.09993e-08
9.08545e-10
3.08078e-08
8.93442e-10
3.06172e-08
8.7866e-10
3.04277e-08
8.64184e-10
3.02392e-08
8.50004e-10
3.00518e-08
8.36108e-10
2.98657e-08
8.22486e-10
2.96807e-08
8.09125e-10
2.94971e-08
7.96018e-10
2.93148e-08
7.83153e-10
2.91338e-08
7.70523e-10
2.89543e-08
7.58117e-10
2.87762e-08
7.45929e-10
2.85996e-08
7.33949e-10
2.84245e-08
7.2217e-10
2.8251e-08
7.10585e-10
2.8079e-08
6.99186e-10
2.79087e-08
6.87967e-10
2.774e-08
6.76921e-10
2.75729e-08
6.66041e-10
2.74075e-08
6.55323e-10
2.72437e-08
6.4476e-10
2.70817e-08
6.34349e-10
2.69215e-08
6.24083e-10
2.6763e-08
6.13961e-10
2.66062e-08
6.03977e-10
2.64513e-08
5.9413e-10
2.62981e-08
5.84419e-10
2.61467e-08
5.74842e-10
2.59972e-08
5.654e-10
2.58495e-08
5.56097e-10
2.57036e-08
5.46935e-10
2.55596e-08
5.37923e-10
2.54174e-08
5.2907e-10
2.5277e-08
5.20391e-10
2.51385e-08
5.11908e-10
2.50018e-08
5.03655e-10
2.48668e-08
4.95681e-10
2.47337e-08
4.88074e-10
2.46022e-08
4.80999e-10
2.44722e-08
4.74806e-10
2.43437e-08
4.70345e-10
2.42164e-08
4.69947e-10
2.40926e-08
4.80091e-10
5.05347e-10
3.77899e-08
2.4125e-09
-3.76727e-08
3.79409e-08
2.69563e-09
3.8104e-08
2.90586e-09
3.82675e-08
3.0491e-09
3.84253e-08
3.13682e-09
3.85725e-08
3.17633e-09
3.87045e-08
3.17312e-09
3.88184e-08
3.13378e-09
3.89123e-08
3.06586e-09
3.89855e-08
2.97698e-09
3.90384e-08
2.87429e-09
3.9072e-08
2.76416e-09
3.90882e-08
2.65198e-09
3.90888e-08
2.54191e-09
3.90759e-08
2.43691e-09
3.90515e-08
2.33881e-09
3.90172e-08
2.2485e-09
3.89746e-08
2.16617e-09
3.89247e-08
2.09154e-09
3.88684e-08
2.02399e-09
3.88064e-08
1.96279e-09
3.87392e-08
1.90717e-09
3.86671e-08
1.85637e-09
3.85904e-08
1.8097e-09
3.85093e-08
1.76659e-09
3.84239e-08
1.72652e-09
3.83344e-08
1.68907e-09
3.8241e-08
1.6539e-09
3.81437e-08
1.62072e-09
3.80426e-08
1.58929e-09
3.7938e-08
1.55941e-09
3.78298e-08
1.53092e-09
3.77182e-08
1.50369e-09
3.76034e-08
1.47758e-09
3.74854e-08
1.45251e-09
3.73644e-08
1.42837e-09
3.72405e-08
1.40509e-09
3.71138e-08
1.38261e-09
3.69845e-08
1.36085e-09
3.68527e-08
1.33976e-09
3.67185e-08
1.3193e-09
3.65821e-08
1.29941e-09
3.64434e-08
1.28007e-09
3.63028e-08
1.26122e-09
3.61603e-08
1.24284e-09
3.60159e-08
1.2249e-09
3.58699e-08
1.20738e-09
3.57224e-08
1.19024e-09
3.55734e-08
1.17346e-09
3.5423e-08
1.15703e-09
3.52714e-08
1.14092e-09
3.51187e-08
1.12513e-09
3.4965e-08
1.10962e-09
3.48104e-08
1.0944e-09
3.46549e-08
1.07944e-09
3.44988e-08
1.06473e-09
3.43419e-08
1.05026e-09
3.41846e-08
1.03602e-09
3.40268e-08
1.022e-09
3.38686e-08
1.00819e-09
3.37101e-08
9.94577e-10
3.35514e-08
9.81159e-10
3.33926e-08
9.67926e-10
3.32338e-08
9.5487e-10
3.3075e-08
9.41982e-10
3.29162e-08
9.29257e-10
3.27577e-08
9.16689e-10
3.25993e-08
9.04269e-10
3.24413e-08
8.91994e-10
3.22836e-08
8.79855e-10
3.21263e-08
8.6785e-10
3.19695e-08
8.55971e-10
3.18133e-08
8.44214e-10
3.16576e-08
8.32574e-10
3.15026e-08
8.21047e-10
3.13483e-08
8.09628e-10
3.11948e-08
7.98314e-10
3.1042e-08
7.87102e-10
3.08901e-08
7.75988e-10
3.07391e-08
7.6497e-10
3.0589e-08
7.54046e-10
3.044e-08
7.43216e-10
3.02919e-08
7.3248e-10
3.01449e-08
7.21838e-10
2.9999e-08
7.11294e-10
2.98542e-08
7.00852e-10
2.97107e-08
6.90519e-10
2.95683e-08
6.80304e-10
2.94271e-08
6.70222e-10
2.92872e-08
6.6029e-10
2.91486e-08
6.50536e-10
2.90113e-08
6.40999e-10
2.88752e-08
6.31739e-10
2.87404e-08
6.22855e-10
2.86069e-08
6.14528e-10
2.84746e-08
6.07119e-10
2.83435e-08
6.01435e-10
2.82141e-08
5.99363e-10
2.80895e-08
6.04681e-10
6.13574e-10
3.85455e-08
2.31058e-09
-3.84436e-08
3.86782e-08
2.56291e-09
3.8825e-08
2.75906e-09
3.89752e-08
2.89891e-09
3.91227e-08
2.98929e-09
3.9263e-08
3.03604e-09
3.93922e-08
3.04395e-09
3.95074e-08
3.01857e-09
3.96069e-08
2.96632e-09
3.96901e-08
2.89382e-09
3.9757e-08
2.80738e-09
3.98084e-08
2.7127e-09
3.98458e-08
2.61466e-09
3.98705e-08
2.51714e-09
3.98844e-08
2.423e-09
3.98891e-08
2.33415e-09
3.9886e-08
2.25164e-09
3.98762e-08
2.17588e-09
3.9861e-08
2.10682e-09
3.98409e-08
2.04407e-09
3.98166e-08
1.9871e-09
3.97885e-08
1.93529e-09
3.97568e-08
1.88802e-09
3.97218e-08
1.84469e-09
3.96836e-08
1.80479e-09
3.96423e-08
1.76785e-09
3.95979e-08
1.73348e-09
3.95504e-08
1.70135e-09
3.95e-08
1.67118e-09
3.94465e-08
1.64274e-09
3.93901e-08
1.61583e-09
3.93307e-08
1.59028e-09
3.92685e-08
1.56596e-09
3.92033e-08
1.54274e-09
3.91353e-08
1.52051e-09
3.90645e-08
1.49918e-09
3.89909e-08
1.47867e-09
3.89146e-08
1.45891e-09
3.88357e-08
1.43982e-09
3.87541e-08
1.42136e-09
3.86699e-08
1.40347e-09
3.85832e-08
1.3861e-09
3.8494e-08
1.36921e-09
3.84025e-08
1.35277e-09
3.83086e-08
1.33673e-09
3.82124e-08
1.32106e-09
3.81141e-08
1.30574e-09
3.80136e-08
1.29075e-09
3.7911e-08
1.27605e-09
3.78064e-08
1.26162e-09
3.76999e-08
1.24745e-09
3.75915e-08
1.23352e-09
3.74813e-08
1.21981e-09
3.73694e-08
1.20631e-09
3.72558e-08
1.193e-09
3.71407e-08
1.17987e-09
3.7024e-08
1.1669e-09
3.69059e-08
1.1541e-09
3.67865e-08
1.14144e-09
3.66658e-08
1.12892e-09
3.65438e-08
1.11653e-09
3.64207e-08
1.10426e-09
3.62965e-08
1.0921e-09
3.61714e-08
1.08005e-09
3.60453e-08
1.06809e-09
3.59183e-08
1.05623e-09
3.57905e-08
1.04446e-09
3.5662e-08
1.03277e-09
3.55329e-08
1.02115e-09
3.54031e-08
1.00961e-09
3.52728e-08
9.98129e-10
3.51421e-08
9.86712e-10
3.50109e-08
9.75352e-10
3.48795e-08
9.64045e-10
3.47477e-08
9.52788e-10
3.46158e-08
9.41578e-10
3.44837e-08
9.3041e-10
3.43515e-08
9.19284e-10
3.42193e-08
9.08196e-10
3.40871e-08
8.97146e-10
3.3955e-08
8.86133e-10
3.38231e-08
8.75157e-10
3.36914e-08
8.6422e-10
3.35599e-08
8.53323e-10
3.34287e-08
8.42471e-10
3.32979e-08
8.31671e-10
3.31675e-08
8.2093e-10
3.30375e-08
8.10262e-10
3.2908e-08
7.99682e-10
3.27791e-08
7.89213e-10
3.26508e-08
7.78886e-10
3.2523e-08
7.68745e-10
3.23959e-08
7.58856e-10
3.22694e-08
7.49325e-10
3.21436e-08
7.40334e-10
3.20185e-08
7.32222e-10
3.18943e-08
7.25656e-10
3.17718e-08
7.21872e-10
3.16544e-08
7.22106e-10
7.16679e-10
3.93085e-08
2.22025e-09
-3.92182e-08
3.9426e-08
2.44543e-09
3.95581e-08
2.62694e-09
3.96955e-08
2.76157e-09
3.98321e-08
2.85269e-09
3.99636e-08
2.90455e-09
4.00863e-08
2.92117e-09
4.01977e-08
2.90717e-09
4.02961e-08
2.86798e-09
4.03806e-08
2.8093e-09
4.04513e-08
2.73668e-09
4.05088e-08
2.6552e-09
4.05542e-08
2.56928e-09
4.05888e-08
2.48255e-09
4.06141e-08
2.39774e-09
4.06314e-08
2.31677e-09
4.06422e-08
2.24083e-09
4.06476e-08
2.17049e-09
4.06485e-08
2.10591e-09
4.06457e-08
2.04689e-09
4.06397e-08
1.99309e-09
4.0631e-08
1.94402e-09
4.06198e-08
1.8992e-09
4.06064e-08
1.85813e-09
4.05908e-08
1.82035e-09
4.05732e-08
1.78546e-09
4.05536e-08
1.7531e-09
4.0532e-08
1.72296e-09
4.05084e-08
1.69478e-09
4.04828e-08
1.66833e-09
4.04552e-08
1.64343e-09
4.04255e-08
1.61991e-09
4.03939e-08
1.59762e-09
4.03602e-08
1.57644e-09
4.03244e-08
1.55628e-09
4.02865e-08
1.53702e-09
4.02466e-08
1.5186e-09
4.02046e-08
1.50092e-09
4.01605e-08
1.48393e-09
4.01143e-08
1.46757e-09
4.0066e-08
1.45177e-09
4.00156e-08
1.43649e-09
3.99631e-08
1.42169e-09
3.99086e-08
1.40732e-09
3.98519e-08
1.39335e-09
3.97933e-08
1.37973e-09
3.97326e-08
1.36645e-09
3.96698e-08
1.35347e-09
3.96051e-08
1.34077e-09
3.95384e-08
1.32831e-09
3.94698e-08
1.31609e-09
3.93992e-08
1.30408e-09
3.93268e-08
1.29226e-09
3.92525e-08
1.28061e-09
3.91764e-08
1.26912e-09
3.90985e-08
1.25778e-09
3.90188e-08
1.24657e-09
3.89374e-08
1.23547e-09
3.88544e-08
1.22449e-09
3.87697e-08
1.21359e-09
3.86834e-08
1.20279e-09
3.85956e-08
1.19206e-09
3.85063e-08
1.1814e-09
3.84156e-08
1.1708e-09
3.83234e-08
1.16025e-09
3.82299e-08
1.14975e-09
3.81351e-08
1.13928e-09
3.8039e-08
1.12885e-09
3.79417e-08
1.11844e-09
3.78433e-08
1.10805e-09
3.77437e-08
1.09768e-09
3.76431e-08
1.08732e-09
3.75415e-08
1.07696e-09
3.7439e-08
1.0666e-09
3.73355e-08
1.05624e-09
3.72312e-08
1.04587e-09
3.71261e-08
1.03549e-09
3.70203e-08
1.0251e-09
3.69138e-08
1.01469e-09
3.68067e-08
1.00427e-09
3.6699e-08
9.93831e-10
3.65908e-08
9.83376e-10
3.64821e-08
9.72906e-10
3.6373e-08
9.62425e-10
3.62635e-08
9.51937e-10
3.61537e-08
9.4145e-10
3.60437e-08
9.30973e-10
3.59334e-08
9.20519e-10
3.5823e-08
9.10108e-10
3.57125e-08
8.99764e-10
3.56018e-08
8.8952e-10
3.54912e-08
8.79424e-10
3.53805e-08
8.69545e-10
3.52698e-08
8.59989e-10
3.51592e-08
8.50925e-10
3.50488e-08
8.42642e-10
3.49388e-08
8.35608e-10
3.48303e-08
8.30375e-10
3.47263e-08
8.26164e-10
8.10118e-10
4.00796e-08
2.13899e-09
-3.99983e-08
4.01845e-08
2.34053e-09
4.03037e-08
2.50772e-09
4.04292e-08
2.63604e-09
4.05554e-08
2.72648e-09
4.06781e-08
2.78186e-09
4.07939e-08
2.80537e-09
4.09002e-08
2.80085e-09
4.09954e-08
2.7728e-09
4.10786e-08
2.72612e-09
4.11496e-08
2.66564e-09
4.1209e-08
2.59588e-09
4.12574e-08
2.52083e-09
4.12961e-08
2.44382e-09
4.13264e-08
2.36746e-09
4.13495e-08
2.29366e-09
4.13667e-08
2.22368e-09
4.13789e-08
2.15824e-09
4.13872e-08
2.09762e-09
4.13923e-08
2.04184e-09
4.13947e-08
1.99068e-09
4.13949e-08
1.94382e-09
4.13932e-08
1.90086e-09
4.13899e-08
1.86142e-09
4.13852e-08
1.82512e-09
4.1379e-08
1.79159e-09
4.13716e-08
1.76052e-09
4.1363e-08
1.73163e-09
4.13531e-08
1.70468e-09
4.13419e-08
1.67946e-09
4.13296e-08
1.65579e-09
4.1316e-08
1.63351e-09
4.13011e-08
1.61248e-09
4.1285e-08
1.59259e-09
4.12675e-08
1.57372e-09
4.12488e-08
1.55579e-09
4.12286e-08
1.53871e-09
4.12072e-08
1.52241e-09
4.11843e-08
1.50681e-09
4.116e-08
1.49186e-09
4.11343e-08
1.4775e-09
4.11071e-08
1.46368e-09
4.10784e-08
1.45035e-09
4.10483e-08
1.43748e-09
4.10166e-08
1.42501e-09
4.09834e-08
1.41293e-09
4.09487e-08
1.40118e-09
4.09124e-08
1.38975e-09
4.08746e-08
1.3786e-09
4.08352e-08
1.36771e-09
4.07942e-08
1.35706e-09
4.07517e-08
1.34662e-09
4.07075e-08
1.33638e-09
4.06618e-08
1.32631e-09
4.06146e-08
1.31639e-09
4.05657e-08
1.30662e-09
4.05153e-08
1.29697e-09
4.04634e-08
1.28743e-09
4.04099e-08
1.27798e-09
4.03548e-08
1.26863e-09
4.02983e-08
1.25934e-09
4.02402e-08
1.25012e-09
4.01807e-08
1.24094e-09
4.01197e-08
1.23181e-09
4.00572e-08
1.22271e-09
3.99933e-08
1.21364e-09
3.9928e-08
1.20458e-09
3.98613e-08
1.19553e-09
3.97933e-08
1.18647e-09
3.9724e-08
1.17741e-09
3.96533e-08
1.16834e-09
3.95814e-08
1.15925e-09
3.95082e-08
1.15013e-09
3.94338e-08
1.14097e-09
3.93583e-08
1.13179e-09
3.92816e-08
1.12256e-09
3.92038e-08
1.11328e-09
3.91249e-08
1.10396e-09
3.9045e-08
1.09459e-09
3.89641e-08
1.08516e-09
3.88823e-08
1.07567e-09
3.87995e-08
1.06614e-09
3.87159e-08
1.05654e-09
3.86314e-08
1.0469e-09
3.85462e-08
1.03721e-09
3.84601e-08
1.02748e-09
3.83734e-08
1.01773e-09
3.82859e-08
1.00796e-09
3.81978e-08
9.98189e-10
3.81092e-08
9.88451e-10
3.80199e-08
9.78779e-10
3.79301e-08
9.69221e-10
3.78398e-08
9.59844e-10
3.7749e-08
9.5075e-10
3.76579e-08
9.42086e-10
3.75665e-08
9.34071e-10
3.74751e-08
9.2696e-10
3.73848e-08
9.20714e-10
3.72977e-08
9.13227e-10
8.90878e-10
4.08592e-08
2.06502e-09
-4.07852e-08
4.09537e-08
2.24608e-09
4.10616e-08
2.39974e-09
4.11765e-08
2.52119e-09
4.12931e-08
2.60991e-09
4.14074e-08
2.66751e-09
4.15163e-08
2.69644e-09
4.16174e-08
2.69979e-09
4.17089e-08
2.6813e-09
4.17899e-08
2.64512e-09
4.18601e-08
2.59544e-09
4.19197e-08
2.53623e-09
4.19695e-08
2.47108e-09
4.20103e-08
2.40304e-09
4.20432e-08
2.33457e-09
4.20693e-08
2.26753e-09
4.20898e-08
2.20321e-09
4.21056e-08
2.14244e-09
4.21175e-08
2.08563e-09
4.21265e-08
2.03293e-09
4.21329e-08
1.98425e-09
4.21373e-08
1.93941e-09
4.214e-08
1.89812e-09
4.21414e-08
1.86006e-09
4.21416e-08
1.82494e-09
4.21407e-08
1.79245e-09
4.21389e-08
1.76232e-09
4.21362e-08
1.73429e-09
4.21328e-08
1.70816e-09
4.21285e-08
1.68373e-09
4.21235e-08
1.66082e-09
4.21177e-08
1.6393e-09
4.21111e-08
1.61903e-09
4.21038e-08
1.5999e-09
4.20957e-08
1.58181e-09
4.20869e-08
1.56466e-09
4.20772e-08
1.54838e-09
4.20667e-08
1.53289e-09
4.20554e-08
1.51813e-09
4.20432e-08
1.50404e-09
4.20301e-08
1.49055e-09
4.20162e-08
1.47763e-09
4.20013e-08
1.46523e-09
4.19855e-08
1.45329e-09
4.19687e-08
1.44179e-09
4.19509e-08
1.43069e-09
4.19322e-08
1.41996e-09
4.19124e-08
1.40956e-09
4.18915e-08
1.39946e-09
4.18696e-08
1.38964e-09
4.18466e-08
1.38008e-09
4.18224e-08
1.37074e-09
4.17972e-08
1.36162e-09
4.17708e-08
1.35269e-09
4.17433e-08
1.34393e-09
4.17146e-08
1.33532e-09
4.16847e-08
1.32685e-09
4.16536e-08
1.3185e-09
4.16213e-08
1.31026e-09
4.15879e-08
1.30211e-09
4.15532e-08
1.29404e-09
4.15172e-08
1.28603e-09
4.14801e-08
1.27808e-09
4.14417e-08
1.27018e-09
4.14022e-08
1.26231e-09
4.13613e-08
1.25446e-09
4.13193e-08
1.24663e-09
4.1276e-08
1.2388e-09
4.12315e-08
1.23096e-09
4.11858e-08
1.22312e-09
4.11389e-08
1.21525e-09
4.10908e-08
1.20735e-09
4.10415e-08
1.19942e-09
4.09911e-08
1.19144e-09
4.09394e-08
1.18342e-09
4.08866e-08
1.17534e-09
4.08327e-08
1.1672e-09
4.07777e-08
1.159e-09
4.07215e-08
1.15073e-09
4.06643e-08
1.14238e-09
4.0606e-08
1.13396e-09
4.05467e-08
1.12547e-09
4.04863e-08
1.1169e-09
4.0425e-08
1.10826e-09
4.03626e-08
1.09956e-09
4.02993e-08
1.09079e-09
4.02351e-08
1.08196e-09
4.01699e-08
1.0731e-09
4.01039e-08
1.06423e-09
4.0037e-08
1.05536e-09
3.99692e-08
1.04653e-09
3.99007e-08
1.03779e-09
3.98313e-08
1.02921e-09
3.97612e-08
1.02087e-09
3.96904e-08
1.0129e-09
3.9619e-08
1.00544e-09
3.95474e-08
9.98551e-10
3.94764e-08
9.91771e-10
3.94072e-08
9.82345e-10
9.57714e-10
4.1648e-08
1.99705e-09
-4.15801e-08
4.17338e-08
2.16037e-09
4.1832e-08
2.30154e-09
4.19372e-08
2.41594e-09
4.20449e-08
2.50218e-09
4.21515e-08
2.56098e-09
4.22538e-08
2.59408e-09
4.23497e-08
2.60393e-09
4.24374e-08
2.59361e-09
4.25159e-08
2.56661e-09
4.25848e-08
2.52653e-09
4.26442e-08
2.47684e-09
4.26945e-08
2.42075e-09
4.27365e-08
2.36104e-09
4.27711e-08
2.29999e-09
4.27992e-08
2.23939e-09
4.28219e-08
2.18056e-09
4.284e-08
2.12436e-09
4.28543e-08
2.07133e-09
4.28655e-08
2.0217e-09
4.28742e-08
1.97552e-09
4.28809e-08
1.9327e-09
4.2886e-08
1.89305e-09
4.28897e-08
1.85636e-09
4.28923e-08
1.82236e-09
4.28939e-08
1.79082e-09
4.28947e-08
1.76151e-09
4.28948e-08
1.7342e-09
4.28943e-08
1.70872e-09
4.28931e-08
1.68487e-09
4.28914e-08
1.66252e-09
4.28892e-08
1.64152e-09
4.28865e-08
1.62175e-09
4.28833e-08
1.60311e-09
4.28796e-08
1.5855e-09
4.28754e-08
1.56883e-09
4.28708e-08
1.55302e-09
4.28656e-08
1.53802e-09
4.286e-08
1.52374e-09
4.28539e-08
1.51014e-09
4.28473e-08
1.49717e-09
4.28402e-08
1.48476e-09
4.28325e-08
1.47289e-09
4.28243e-08
1.4615e-09
4.28155e-08
1.45057e-09
4.28062e-08
1.44005e-09
4.27962e-08
1.42991e-09
4.27857e-08
1.42012e-09
4.27745e-08
1.41066e-09
4.27626e-08
1.4015e-09
4.27501e-08
1.3926e-09
4.27369e-08
1.38396e-09
4.27229e-08
1.37555e-09
4.27083e-08
1.36735e-09
4.26929e-08
1.35933e-09
4.26767e-08
1.35149e-09
4.26598e-08
1.3438e-09
4.2642e-08
1.33625e-09
4.26234e-08
1.32882e-09
4.2604e-08
1.3215e-09
4.25838e-08
1.31428e-09
4.25627e-08
1.30714e-09
4.25407e-08
1.30007e-09
4.25178e-08
1.29305e-09
4.24941e-08
1.28608e-09
4.24694e-08
1.27915e-09
4.24438e-08
1.27224e-09
4.24172e-08
1.26534e-09
4.23897e-08
1.25845e-09
4.23613e-08
1.25156e-09
4.23319e-08
1.24465e-09
4.23015e-08
1.23772e-09
4.22702e-08
1.23076e-09
4.22379e-08
1.22376e-09
4.22046e-08
1.21671e-09
4.21703e-08
1.20961e-09
4.2135e-08
1.20245e-09
4.20988e-08
1.19523e-09
4.20616e-08
1.18794e-09
4.20234e-08
1.18058e-09
4.19842e-08
1.17314e-09
4.19441e-08
1.16562e-09
4.1903e-08
1.15802e-09
4.18609e-08
1.15034e-09
4.18178e-08
1.1426e-09
4.17739e-08
1.13478e-09
4.17289e-08
1.12691e-09
4.1683e-08
1.11899e-09
4.16362e-08
1.11104e-09
4.15885e-08
1.1031e-09
4.15398e-08
1.09519e-09
4.14902e-08
1.08736e-09
4.14398e-08
1.07967e-09
4.13885e-08
1.07219e-09
4.13363e-08
1.06503e-09
4.12835e-08
1.05825e-09
4.12303e-08
1.05178e-09
4.11772e-08
1.04489e-09
4.11248e-08
1.03474e-09
1.01097e-09
4.24467e-08
1.93414e-09
-4.23838e-08
4.2525e-08
2.08207e-09
4.26147e-08
2.21185e-09
4.27114e-08
2.31928e-09
4.2811e-08
2.40255e-09
4.29103e-08
2.46171e-09
4.30064e-08
2.49793e-09
4.30973e-08
2.5131e-09
4.31811e-08
2.50973e-09
4.3257e-08
2.49073e-09
4.33244e-08
2.45915e-09
4.33832e-08
2.41805e-09
4.34337e-08
2.37024e-09
4.34765e-08
2.31824e-09
4.35123e-08
2.26417e-09
4.3542e-08
2.20973e-09
4.35663e-08
2.15621e-09
4.35862e-08
2.10452e-09
4.36022e-08
2.05525e-09
4.36152e-08
2.00873e-09
4.36256e-08
1.96511e-09
4.36339e-08
1.92439e-09
4.36405e-08
1.88645e-09
4.36457e-08
1.85117e-09