/*--------------------------------*- C++ -*----------------------------------*\
| =========                 |                                                 |
| \\      /  F ield         | OpenFOAM: The Open Source CFD Toolbox           |
|  \\    /   O peration     | Version:  2.3.0                                 |
|   \\  /    A nd           | Web:      www.OpenFOAM.org                      |
|    \\/     M anipulation  |                                                 |
\*---------------------------------------------------------------------------*/
FoamFile
{
    version     2.0;
    format      ascii;
    class       volVectorField;
    location    "0.7";
    object      U;
}
// * * * * * * * * * * * * * * * * * * * * * * * * * * * * * * * * * * * * * //

dimensions      [0 1 -1 0 0 0 0];

internalField   nonuniform List<vector> 
6875
(
(0.171144 0.00596345 0)
(0.154687 0.00603346 0)
(0.138865 0.00561486 0)
(0.123867 0.00501633 0)
(0.110104 0.00435517 0)
(0.0977447 0.00368471 0)
(0.0868014 0.00304168 0)
(0.0772399 0.00245148 0)
(0.0690042 0.00192957 0)
(0.0620095 0.00148375 0)
(0.0561418 0.00111571 0)
(0.0512682 0.000821922 0)
(0.0472477 0.000594989 0)
(0.0439412 0.000425163 0)
(0.0412186 0.000301903 0)
(0.038964 0.000215069 0)
(0.0370786 0.000155668 0)
(0.0354808 0.000116196 0)
(0.034106 9.06896e-05 0)
(0.0329037 7.46059e-05 0)
(0.0318361 6.46237e-05 0)
(0.0308749 5.84136e-05 0)
(0.0299991 5.44127e-05 0)
(0.0291937 5.16228e-05 0)
(0.0284474 4.94423e-05 0)
(0.0277518 4.7533e-05 0)
(0.0271006 4.57234e-05 0)
(0.0264888 4.39402e-05 0)
(0.0259124 4.21635e-05 0)
(0.0253679 4.03996e-05 0)
(0.0248525 3.86641e-05 0)
(0.0243638 3.69738e-05 0)
(0.0238995 3.53426e-05 0)
(0.0234576 3.37803e-05 0)
(0.0230364 3.22927e-05 0)
(0.0226343 3.08822e-05 0)
(0.0222498 2.95484e-05 0)
(0.0218818 2.82895e-05 0)
(0.021529 2.71024e-05 0)
(0.0211904 2.59831e-05 0)
(0.020865 2.49278e-05 0)
(0.0205521 2.39322e-05 0)
(0.0202506 2.29922e-05 0)
(0.0199601 2.2104e-05 0)
(0.0196798 2.12641e-05 0)
(0.0194091 2.04689e-05 0)
(0.0191475 1.97154e-05 0)
(0.0188945 1.90007e-05 0)
(0.0186496 1.83221e-05 0)
(0.0184123 1.76772e-05 0)
(0.0181824 1.70638e-05 0)
(0.0179594 1.64798e-05 0)
(0.017743 1.59234e-05 0)
(0.0175328 1.53928e-05 0)
(0.0173287 1.48864e-05 0)
(0.0171303 1.44028e-05 0)
(0.0169373 1.39405e-05 0)
(0.0167495 1.34984e-05 0)
(0.0165668 1.30753e-05 0)
(0.0163888 1.26702e-05 0)
(0.0162154 1.22819e-05 0)
(0.0160464 1.19097e-05 0)
(0.0158817 1.15527e-05 0)
(0.015721 1.121e-05 0)
(0.0155643 1.0881e-05 0)
(0.0154113 1.05649e-05 0)
(0.015262 1.02612e-05 0)
(0.0151161 9.96928e-06 0)
(0.0149737 9.68854e-06 0)
(0.0148345 9.41853e-06 0)
(0.0146984 9.15876e-06 0)
(0.0145654 8.90881e-06 0)
(0.0144354 8.66829e-06 0)
(0.0143082 8.43683e-06 0)
(0.0141837 8.2141e-06 0)
(0.014062 7.9998e-06 0)
(0.0139428 7.79368e-06 0)
(0.0138261 7.59545e-06 0)
(0.0137118 7.40495e-06 0)
(0.0135998 7.22197e-06 0)
(0.0134901 7.04635e-06 0)
(0.0133827 6.87804e-06 0)
(0.0132773 6.71687e-06 0)
(0.013174 6.56285e-06 0)
(0.0130726 6.41598e-06 0)
(0.0129732 6.27631e-06 0)
(0.0128756 6.14394e-06 0)
(0.0127797 6.01906e-06 0)
(0.0126855 5.90199e-06 0)
(0.0125929 5.79314e-06 0)
(0.0125018 5.69316e-06 0)
(0.0124121 5.60307e-06 0)
(0.0123237 5.52454e-06 0)
(0.0122365 5.46054e-06 0)
(0.0121502 5.41678e-06 0)
(0.0120646 5.40577e-06 0)
(0.0119792 5.46307e-06 0)
(0.0118919 5.65031e-06 0)
(0.0118182 4.94669e-06 0)
(0.0115835 3.29217e-05 0)
(0.189979 0.00940808 0)
(0.187635 0.00991296 0)
(0.183679 0.00968732 0)
(0.178471 0.00918919 0)
(0.172516 0.00855639 0)
(0.166163 0.00783511 0)
(0.159638 0.00706329 0)
(0.153107 0.00627584 0)
(0.146706 0.00550199 0)
(0.140536 0.00476572 0)
(0.134665 0.00408579 0)
(0.129131 0.00347511 0)
(0.123955 0.0029405 0)
(0.11914 0.00248313 0)
(0.114676 0.00209959 0)
(0.110548 0.0017832 0)
(0.106734 0.00152541 0)
(0.103211 0.001317 0)
(0.0999551 0.00114901 0)
(0.0969415 0.00101335 0)
(0.0941472 0.000903101 0)
(0.0915508 0.000812582 0)
(0.0891326 0.000737314 0)
(0.0868747 0.000673843 0)
(0.0847614 0.000619561 0)
(0.0827785 0.000572525 0)
(0.0809135 0.000531293 0)
(0.0791554 0.000494793 0)
(0.0774944 0.000462222 0)
(0.0759218 0.000432965 0)
(0.0744302 0.000406545 0)
(0.0730126 0.000382581 0)
(0.0716631 0.000360762 0)
(0.0703763 0.000340831 0)
(0.0691474 0.000322569 0)
(0.0679721 0.000305789 0)
(0.0668465 0.00029033 0)
(0.0657672 0.000276051 0)
(0.0647309 0.00026283 0)
(0.0637349 0.000250561 0)
(0.0627765 0.000239149 0)
(0.0618533 0.000228511 0)
(0.0609633 0.000218576 0)
(0.0601045 0.000209278 0)
(0.059275 0.000200561 0)
(0.0584731 0.000192375 0)
(0.0576975 0.000184674 0)
(0.0569466 0.000177418 0)
(0.0562192 0.000170573 0)
(0.0555141 0.000164105 0)
(0.0548301 0.000157986 0)
(0.0541663 0.00015219 0)
(0.0535217 0.000146693 0)
(0.0528953 0.000141473 0)
(0.0522865 0.000136512 0)
(0.0516943 0.000131792 0)
(0.051118 0.000127296 0)
(0.0505571 0.000123011 0)
(0.0500108 0.000118921 0)
(0.0494786 0.000115015 0)
(0.0489599 0.000111282 0)
(0.0484541 0.000107712 0)
(0.0479609 0.000104293 0)
(0.0474797 0.000101018 0)
(0.04701 9.78782e-05 0)
(0.0465515 9.48661e-05 0)
(0.0461038 9.19746e-05 0)
(0.0456665 8.91972e-05 0)
(0.0452392 8.65279e-05 0)
(0.0448217 8.3961e-05 0)
(0.0444135 8.14913e-05 0)
(0.0440145 7.9114e-05 0)
(0.0436243 7.68247e-05 0)
(0.0432427 7.46191e-05 0)
(0.0428694 7.24936e-05 0)
(0.0425041 7.04445e-05 0)
(0.0421467 6.84686e-05 0)
(0.0417968 6.6563e-05 0)
(0.0414543 6.47249e-05 0)
(0.041119 6.2952e-05 0)
(0.0407907 6.1242e-05 0)
(0.0404691 5.95932e-05 0)
(0.0401541 5.80037e-05 0)
(0.0398456 5.64725e-05 0)
(0.0395432 5.49983e-05 0)
(0.0392469 5.35807e-05 0)
(0.0389564 5.22194e-05 0)
(0.0386716 5.09147e-05 0)
(0.0383922 4.96674e-05 0)
(0.0381182 4.84793e-05 0)
(0.0378492 4.73536e-05 0)
(0.037585 4.62951e-05 0)
(0.0373254 4.53126e-05 0)
(0.0370701 4.44219e-05 0)
(0.0368185 4.36547e-05 0)
(0.0365703 4.30835e-05 0)
(0.0363241 4.29e-05 0)
(0.0360764 4.35902e-05 0)
(0.0358457 4.80325e-05 0)
(0.0353748 0.000113263 0)
(0.192965 0.00904945 0)
(0.193736 0.0100022 0)
(0.193841 0.0103314 0)
(0.193135 0.0103327 0)
(0.191734 0.0101059 0)
(0.189763 0.00968939 0)
(0.187315 0.00912828 0)
(0.184481 0.00847222 0)
(0.181355 0.0077665 0)
(0.178028 0.00704946 0)
(0.174577 0.00635188 0)
(0.171066 0.0056964 0)
(0.167549 0.00509746 0)
(0.164063 0.00456206 0)
(0.160639 0.00409123 0)
(0.157295 0.00368175 0)
(0.154045 0.00332781 0)
(0.150895 0.00302242 0)
(0.14785 0.00275845 0)
(0.144911 0.00252926 0)
(0.142075 0.00232904 0)
(0.139342 0.0021529 0)
(0.136707 0.00199686 0)
(0.134169 0.00185769 0)
(0.131723 0.00173284 0)
(0.129366 0.00162026 0)
(0.127094 0.00151829 0)
(0.124904 0.00142559 0)
(0.122793 0.00134104 0)
(0.120757 0.00126373 0)
(0.118792 0.00119286 0)
(0.116896 0.00112774 0)
(0.115065 0.00106778 0)
(0.113297 0.00101247 0)
(0.111589 0.000961339 0)
(0.109937 0.000913984 0)
(0.108339 0.000870044 0)
(0.106794 0.000829198 0)
(0.105297 0.000791161 0)
(0.103847 0.000755676 0)
(0.102442 0.000722517 0)
(0.101079 0.000691479 0)
(0.0997578 0.00066238 0)
(0.0984751 0.000635056 0)
(0.0972296 0.000609361 0)
(0.0960196 0.000585163 0)
(0.0948436 0.000562342 0)
(0.0937002 0.000540793 0)
(0.0925879 0.000520418 0)
(0.0915055 0.000501128 0)
(0.0904517 0.000482846 0)
(0.0894254 0.000465499 0)
(0.0884255 0.00044902 0)
(0.0874509 0.00043335 0)
(0.0865007 0.000418434 0)
(0.0855739 0.000404222 0)
(0.0846697 0.000390669 0)
(0.0837873 0.000377731 0)
(0.0829259 0.00036537 0)
(0.0820847 0.000353551 0)
(0.0812631 0.00034224 0)
(0.0804603 0.000331408 0)
(0.0796758 0.000321026 0)
(0.0789089 0.000311068 0)
(0.0781591 0.00030151 0)
(0.0774259 0.00029233 0)
(0.0767087 0.000283507 0)
(0.0760071 0.000275022 0)
(0.0753206 0.000266857 0)
(0.0746487 0.000258996 0)
(0.0739911 0.000251422 0)
(0.0733473 0.000244121 0)
(0.072717 0.000237081 0)
(0.0720997 0.000230288 0)
(0.0714953 0.000223731 0)
(0.0709032 0.0002174 0)
(0.0703233 0.000211284 0)
(0.0697552 0.000205373 0)
(0.0691986 0.000199661 0)
(0.0686532 0.000194139 0)
(0.0681189 0.0001888 0)
(0.0675952 0.000183639 0)
(0.067082 0.000178648 0)
(0.066579 0.000173825 0)
(0.066086 0.000169166 0)
(0.0656027 0.000164666 0)
(0.065129 0.000160326 0)
(0.0646645 0.000156144 0)
(0.064209 0.000152122 0)
(0.0637622 0.000148263 0)
(0.063324 0.000144573 0)
(0.0628939 0.000141064 0)
(0.0624717 0.000137757 0)
(0.0620569 0.000134688 0)
(0.0616491 0.000131932 0)
(0.0612474 0.000129664 0)
(0.0608506 0.000128343 0)
(0.0604548 0.000129358 0)
(0.060072 0.000142781 0)
(0.059463 0.000224254 0)
(0.193989 0.00841688 0)
(0.195147 0.00946946 0)
(0.196188 0.0100231 0)
(0.196894 0.010262 0)
(0.197247 0.0102688 0)
(0.197252 0.0100758 0)
(0.19691 0.00971883 0)
(0.196227 0.0092409 0)
(0.19523 0.00868397 0)
(0.19396 0.00808544 0)
(0.192459 0.00747709 0)
(0.190773 0.0068841 0)
(0.188942 0.00632447 0)
(0.187005 0.00580925 0)
(0.184993 0.00534353 0)
(0.182932 0.0049278 0)
(0.180842 0.00455946 0)
(0.178738 0.00423409 0)
(0.176632 0.00394644 0)
(0.174532 0.00369125 0)
(0.172444 0.00346359 0)
(0.170373 0.00325914 0)
(0.168321 0.00307427 0)
(0.166292 0.00290599 0)
(0.164287 0.00275189 0)
(0.162308 0.00261003 0)
(0.160356 0.00247887 0)
(0.158433 0.00235718 0)
(0.15654 0.00224393 0)
(0.154676 0.00213829 0)
(0.152844 0.00203957 0)
(0.151043 0.00194716 0)
(0.149274 0.00186052 0)
(0.147537 0.00177921 0)
(0.145831 0.0017028 0)
(0.144158 0.00163091 0)
(0.142516 0.00156322 0)
(0.140905 0.00149941 0)
(0.139326 0.0014392 0)
(0.137778 0.00138233 0)
(0.13626 0.00132856 0)
(0.134772 0.00127768 0)
(0.133314 0.00122948 0)
(0.131885 0.00118379 0)
(0.130484 0.00114044 0)
(0.129112 0.00109926 0)
(0.127766 0.00106012 0)
(0.126448 0.00102288 0)
(0.125156 0.000987425 0)
(0.123889 0.000953638 0)
(0.122647 0.000921416 0)
(0.12143 0.000890661 0)
(0.120237 0.000861286 0)
(0.119067 0.000833206 0)
(0.11792 0.000806345 0)
(0.116796 0.000780631 0)
(0.115693 0.000755999 0)
(0.114611 0.000732386 0)
(0.11355 0.000709736 0)
(0.11251 0.000687994 0)
(0.111489 0.000667112 0)
(0.110487 0.000647041 0)
(0.109505 0.00062774 0)
(0.108541 0.000609166 0)
(0.107595 0.000591283 0)
(0.106667 0.000574055 0)
(0.105755 0.000557449 0)
(0.104861 0.000541433 0)
(0.103984 0.000525978 0)
(0.103122 0.000511057 0)
(0.102277 0.000496645 0)
(0.101447 0.000482716 0)
(0.100632 0.00046925 0)
(0.0998317 0.000456224 0)
(0.0990464 0.00044362 0)
(0.0982754 0.000431418 0)
(0.0975184 0.000419601 0)
(0.0967753 0.000408155 0)
(0.0960457 0.000397063 0)
(0.0953294 0.000386313 0)
(0.0946262 0.000375892 0)
(0.0939359 0.000365789 0)
(0.0932582 0.000355995 0)
(0.0925929 0.0003465 0)
(0.0919398 0.000337299 0)
(0.0912986 0.000328385 0)
(0.0906693 0.000319755 0)
(0.0900514 0.000311407 0)
(0.0894449 0.000303343 0)
(0.0888495 0.000295569 0)
(0.0882649 0.000288093 0)
(0.0876908 0.000280935 0)
(0.087127 0.000274128 0)
(0.086573 0.000267732 0)
(0.0860282 0.000261872 0)
(0.085492 0.000256832 0)
(0.084963 0.000253372 0)
(0.0844379 0.000253958 0)
(0.0839255 0.000272174 0)
(0.0832204 0.000351749 0)
(0.194699 0.00791878 0)
(0.195733 0.00891371 0)
(0.196832 0.00950848 0)
(0.197822 0.00982275 0)
(0.198661 0.0099297 0)
(0.199333 0.00985907 0)
(0.19981 0.00963721 0)
(0.200072 0.00929666 0)
(0.200109 0.00887129 0)
(0.199929 0.00839278 0)
(0.199548 0.00788935 0)
(0.198985 0.0073846 0)
(0.198267 0.00689664 0)
(0.197417 0.00643779 0)
(0.19646 0.00601511 0)
(0.195415 0.00563134 0)
(0.1943 0.00528602 0)
(0.19313 0.00497664 0)
(0.191915 0.00469956 0)
(0.190665 0.00445075 0)
(0.189385 0.00422623 0)
(0.188081 0.0040224 0)
(0.186757 0.00383613 0)
(0.185417 0.00366478 0)
(0.184062 0.00350623 0)
(0.182696 0.00335874 0)
(0.181321 0.00322093 0)
(0.179939 0.00309168 0)
(0.178552 0.00297009 0)
(0.177161 0.00285543 0)
(0.175769 0.00274707 0)
(0.174376 0.00264449 0)
(0.172985 0.00254724 0)
(0.171597 0.00245492 0)
(0.170212 0.00236718 0)
(0.168833 0.00228371 0)
(0.16746 0.00220423 0)
(0.166094 0.00212847 0)
(0.164736 0.0020562 0)
(0.163387 0.0019872 0)
(0.162048 0.00192128 0)
(0.160719 0.00185826 0)
(0.1594 0.00179796 0)
(0.158094 0.00174024 0)
(0.156799 0.00168494 0)
(0.155516 0.00163193 0)
(0.154246 0.00158109 0)
(0.152989 0.0015323 0)
(0.151745 0.00148545 0)
(0.150515 0.00144045 0)
(0.149299 0.00139719 0)
(0.148096 0.00135559 0)
(0.146907 0.00131557 0)
(0.145732 0.00127704 0)
(0.144572 0.00123994 0)
(0.143425 0.00120418 0)
(0.142293 0.00116972 0)
(0.141175 0.00113648 0)
(0.140072 0.00110441 0)
(0.138982 0.00107345 0)
(0.137907 0.00104356 0)
(0.136846 0.00101467 0)
(0.135799 0.000986756 0)
(0.134766 0.000959761 0)
(0.133747 0.000933646 0)
(0.132742 0.000908373 0)
(0.13175 0.000883904 0)
(0.130773 0.000860204 0)
(0.129809 0.00083724 0)
(0.128858 0.00081498 0)
(0.127921 0.000793394 0)
(0.126997 0.000772454 0)
(0.126087 0.000752133 0)
(0.12519 0.000732406 0)
(0.124305 0.000713249 0)
(0.123434 0.000694639 0)
(0.122576 0.000676556 0)
(0.12173 0.00065898 0)
(0.120897 0.000641891 0)
(0.120076 0.000625275 0)
(0.119268 0.000609114 0)
(0.118472 0.000593395 0)
(0.117689 0.000578106 0)
(0.116918 0.000563235 0)
(0.116158 0.000548774 0)
(0.115411 0.000534717 0)
(0.114676 0.000521058 0)
(0.113952 0.000507797 0)
(0.11324 0.000494937 0)
(0.112539 0.000482484 0)
(0.11185 0.000470455 0)
(0.111172 0.000458875 0)
(0.110505 0.000447791 0)
(0.109848 0.000437289 0)
(0.109201 0.000427541 0)
(0.108564 0.000418938 0)
(0.107935 0.000412507 0)
(0.107313 0.000411506 0)
(0.106706 0.000429369 0)
(0.105937 0.000494507 0)
(0.195298 0.00749151 0)
(0.196166 0.00839012 0)
(0.197146 0.00897514 0)
(0.198109 0.0093162 0)
(0.199007 0.00947121 0)
(0.199823 0.00946772 0)
(0.200531 0.00932736 0)
(0.201109 0.00907633 0)
(0.201542 0.0087429 0)
(0.201823 0.0083542 0)
(0.201957 0.00793478 0)
(0.201951 0.00750574 0)
(0.201819 0.00708382 0)
(0.201575 0.0066811 0)
(0.201236 0.00630515 0)
(0.200815 0.00595973 0)
(0.200325 0.00564567 0)
(0.199777 0.00536175 0)
(0.19918 0.0051055 0)
(0.198541 0.0048739 0)
(0.197864 0.00466377 0)
(0.197154 0.00447211 0)
(0.196414 0.00429622 0)
(0.195646 0.00413379 0)
(0.194853 0.0039829 0)
(0.194035 0.00384196 0)
(0.193195 0.00370969 0)
(0.192334 0.00358505 0)
(0.191454 0.00346718 0)
(0.190555 0.00335541 0)
(0.18964 0.00324915 0)
(0.188709 0.00314793 0)
(0.187763 0.00305133 0)
(0.186805 0.00295901 0)
(0.185834 0.00287065 0)
(0.184853 0.00278598 0)
(0.183861 0.00270475 0)
(0.182862 0.00262676 0)
(0.181854 0.00255179 0)
(0.18084 0.00247967 0)
(0.17982 0.00241025 0)
(0.178795 0.00234336 0)
(0.177766 0.00227887 0)
(0.176734 0.00221666 0)
(0.175699 0.0021566 0)
(0.174663 0.0020986 0)
(0.173626 0.00204255 0)
(0.172589 0.00198836 0)
(0.171552 0.00193595 0)
(0.170516 0.00188523 0)
(0.169481 0.00183612 0)
(0.168449 0.00178856 0)
(0.167419 0.00174249 0)
(0.166393 0.00169783 0)
(0.16537 0.00165453 0)
(0.164351 0.00161253 0)
(0.163336 0.00157179 0)
(0.162327 0.00153224 0)
(0.161322 0.00149385 0)
(0.160323 0.00145656 0)
(0.15933 0.00142033 0)
(0.158343 0.00138513 0)
(0.157362 0.00135091 0)
(0.156388 0.00131764 0)
(0.155421 0.00128528 0)
(0.154461 0.00125379 0)
(0.153508 0.00122315 0)
(0.152563 0.00119332 0)
(0.151625 0.00116427 0)
(0.150696 0.00113598 0)
(0.149775 0.00110842 0)
(0.148862 0.00108155 0)
(0.147957 0.00105536 0)
(0.147061 0.00102982 0)
(0.146173 0.00100492 0)
(0.145295 0.000980618 0)
(0.144425 0.000956908 0)
(0.143564 0.000933768 0)
(0.142712 0.00091118 0)
(0.14187 0.000889127 0)
(0.141037 0.000867595 0)
(0.140213 0.000846571 0)
(0.139399 0.000826042 0)
(0.138594 0.000805999 0)
(0.137799 0.000786434 0)
(0.137013 0.000767342 0)
(0.136237 0.00074872 0)
(0.135471 0.00073057 0)
(0.134715 0.000712898 0)
(0.133968 0.000695716 0)
(0.133231 0.000679045 0)
(0.132503 0.000662922 0)
(0.131786 0.000647407 0)
(0.131077 0.000632611 0)
(0.130378 0.000618748 0)
(0.129687 0.000606291 0)
(0.129005 0.000596431 0)
(0.12833 0.000592619 0)
(0.127674 0.000605775 0)
(0.126879 0.000649021 0)
(0.195822 0.00712623 0)
(0.196552 0.0079284 0)
(0.197402 0.00848715 0)
(0.198273 0.00883572 0)
(0.199118 0.00901552 0)
(0.199915 0.00905126 0)
(0.200645 0.00896223 0)
(0.201288 0.00877072 0)
(0.20183 0.00850111 0)
(0.202265 0.00817709 0)
(0.202592 0.00782028 0)
(0.202815 0.00744943 0)
(0.202942 0.0070798 0)
(0.202983 0.00672276 0)
(0.202948 0.00638591 0)
(0.202848 0.00607352 0)
(0.202693 0.0057872 0)
(0.202492 0.00552662 0)
(0.20225 0.00529022 0)
(0.201973 0.00507574 0)
(0.201665 0.00488064 0)
(0.201328 0.00470241 0)
(0.200966 0.00453872 0)
(0.200579 0.0043875 0)
(0.200169 0.00424701 0)
(0.199737 0.00411575 0)
(0.199283 0.00399253 0)
(0.198808 0.00387633 0)
(0.198312 0.00376635 0)
(0.197797 0.00366189 0)
(0.197263 0.00356242 0)
(0.19671 0.00346745 0)
(0.196139 0.00337659 0)
(0.195551 0.0032895 0)
(0.194947 0.00320588 0)
(0.194326 0.00312546 0)
(0.19369 0.00304803 0)
(0.193039 0.00297337 0)
(0.192375 0.00290131 0)
(0.191697 0.00283168 0)
(0.191006 0.00276433 0)
(0.190303 0.00269913 0)
(0.189589 0.00263596 0)
(0.188863 0.0025747 0)
(0.188128 0.00251526 0)
(0.187383 0.00245755 0)
(0.186629 0.00240148 0)
(0.185867 0.00234697 0)
(0.185097 0.00229395 0)
(0.184319 0.00224236 0)
(0.183536 0.00219214 0)
(0.182745 0.00214322 0)
(0.18195 0.00209556 0)
(0.181149 0.0020491 0)
(0.180344 0.0020038 0)
(0.179535 0.00195962 0)
(0.178722 0.00191651 0)
(0.177906 0.00187444 0)
(0.177088 0.00183336 0)
(0.176267 0.00179325 0)
(0.175445 0.00175407 0)
(0.174622 0.00171579 0)
(0.173797 0.00167838 0)
(0.172973 0.00164181 0)
(0.172148 0.00160605 0)
(0.171323 0.00157108 0)
(0.170499 0.00153687 0)
(0.169677 0.0015034 0)
(0.168855 0.00147064 0)
(0.168035 0.00143858 0)
(0.167218 0.00140719 0)
(0.166402 0.00137644 0)
(0.165589 0.00134633 0)
(0.16478 0.00131683 0)
(0.163973 0.00128793 0)
(0.16317 0.0012596 0)
(0.162371 0.00123184 0)
(0.161575 0.00120462 0)
(0.160784 0.00117794 0)
(0.159998 0.00115178 0)
(0.159216 0.00112612 0)
(0.158439 0.00110097 0)
(0.157668 0.00107631 0)
(0.156902 0.00105213 0)
(0.156141 0.00102843 0)
(0.155387 0.00100521 0)
(0.154638 0.000982471 0)
(0.153896 0.00096022 0)
(0.15316 0.000938467 0)
(0.15243 0.000917231 0)
(0.151707 0.000896543 0)
(0.15099 0.000876447 0)
(0.150281 0.00085702 0)
(0.149578 0.000838391 0)
(0.148881 0.000820806 0)
(0.148191 0.000804778 0)
(0.147507 0.00079151 0)
(0.146831 0.00078405 0)
(0.146176 0.000789667 0)
(0.145398 0.000808187 0)
(0.196283 0.00681163 0)
(0.196907 0.00752481 0)
(0.197644 0.00804859 0)
(0.198419 0.00839347 0)
(0.199188 0.00858658 0)
(0.199928 0.00864868 0)
(0.20062 0.00859686 0)
(0.201247 0.00845019 0)
(0.201798 0.00822963 0)
(0.202265 0.00795595 0)
(0.202647 0.00764831 0)
(0.202948 0.00732353 0)
(0.203173 0.00699554 0)
(0.203329 0.00667505 0)
(0.203426 0.00636954 0)
(0.203471 0.0060836 0)
(0.203472 0.00581942 0)
(0.203438 0.0055774 0)
(0.203373 0.00535667 0)
(0.203281 0.00515564 0)
(0.203167 0.00497232 0)
(0.203033 0.00480466 0)
(0.20288 0.00465065 0)
(0.20271 0.00450847 0)
(0.202523 0.00437654 0)
(0.20232 0.00425349 0)
(0.202101 0.00413817 0)
(0.201867 0.00402961 0)
(0.201617 0.00392703 0)
(0.201352 0.00382974 0)
(0.201072 0.00373719 0)
(0.200776 0.00364891 0)
(0.200466 0.00356449 0)
(0.200141 0.00348359 0)
(0.199801 0.0034059 0)
(0.199447 0.00333117 0)
(0.199079 0.00325916 0)
(0.198696 0.00318966 0)
(0.1983 0.00312249 0)
(0.197891 0.00305748 0)
(0.197468 0.0029945 0)
(0.197032 0.00293339 0)
(0.196583 0.00287406 0)
(0.196122 0.00281638 0)
(0.195649 0.00276027 0)
(0.195165 0.00270562 0)
(0.194668 0.00265237 0)
(0.194161 0.00260043 0)
(0.193643 0.00254975 0)
(0.193114 0.00250025 0)
(0.192576 0.00245189 0)
(0.192028 0.00240461 0)
(0.19147 0.00235836 0)
(0.190903 0.0023131 0)
(0.190328 0.00226879 0)
(0.189745 0.00222539 0)
(0.189154 0.00218287 0)
(0.188555 0.00214119 0)
(0.187949 0.00210033 0)
(0.187336 0.00206025 0)
(0.186717 0.00202092 0)
(0.186092 0.00198233 0)
(0.185461 0.00194445 0)
(0.184825 0.00190725 0)
(0.184184 0.00187071 0)
(0.183539 0.00183482 0)
(0.182889 0.00179955 0)
(0.182235 0.00176488 0)
(0.181578 0.00173081 0)
(0.180918 0.0016973 0)
(0.180254 0.00166435 0)
(0.179589 0.00163194 0)
(0.178921 0.00160005 0)
(0.178251 0.00156868 0)
(0.177579 0.0015378 0)
(0.176907 0.00150741 0)
(0.176233 0.00147749 0)
(0.175559 0.00144803 0)
(0.174885 0.00141903 0)
(0.17421 0.00139048 0)
(0.173536 0.00136236 0)
(0.172863 0.00133468 0)
(0.17219 0.00130743 0)
(0.171519 0.0012806 0)
(0.170849 0.0012542 0)
(0.170181 0.00122823 0)
(0.169514 0.0012027 0)
(0.16885 0.00117762 0)
(0.168189 0.001153 0)
(0.16753 0.00112887 0)
(0.166873 0.00110528 0)
(0.16622 0.00108227 0)
(0.16557 0.00105994 0)
(0.164923 0.00103842 0)
(0.16428 0.00101798 0)
(0.16364 0.000999122 0)
(0.163004 0.000982905 0)
(0.162374 0.000971565 0)
(0.161764 0.000968561 0)
(0.161045 0.000963616 0)
(0.19669 0.00653523 0)
(0.197232 0.00716868 0)
(0.197874 0.00765381 0)
(0.198562 0.0079884 0)
(0.199258 0.00818837 0)
(0.199936 0.00826987 0)
(0.200577 0.00824751 0)
(0.201168 0.00813742 0)
(0.201696 0.00795752 0)
(0.202155 0.0077259 0)
(0.202544 0.00745955 0)
(0.202865 0.00717359 0)
(0.203121 0.00688076 0)
(0.20332 0.0065911 0)
(0.203468 0.00631195 0)
(0.203573 0.00604809 0)
(0.203641 0.00580215 0)
(0.20368 0.0055751 0)
(0.203695 0.00536671 0)
(0.203689 0.00517596 0)
(0.203666 0.00500138 0)
(0.203629 0.00484133 0)
(0.203578 0.00469414 0)
(0.203516 0.00455824 0)
(0.203443 0.00443222 0)
(0.20336 0.00431483 0)
(0.203267 0.00420502 0)
(0.203163 0.00410187 0)
(0.20305 0.0040046 0)
(0.202927 0.00391257 0)
(0.202793 0.00382522 0)
(0.20265 0.00374208 0)
(0.202496 0.00366274 0)
(0.202333 0.00358686 0)
(0.202159 0.00351412 0)
(0.201974 0.00344425 0)
(0.201779 0.00337702 0)
(0.201574 0.0033122 0)
(0.201358 0.00324962 0)
(0.201132 0.0031891 0)
(0.200895 0.00313049 0)
(0.200648 0.00307365 0)
(0.20039 0.00301846 0)
(0.200122 0.0029648 0)
(0.199843 0.00291257 0)
(0.199554 0.00286168 0)
(0.199255 0.00281204 0)
(0.198946 0.00276359 0)
(0.198627 0.00271624 0)
(0.198297 0.00266993 0)
(0.197958 0.00262462 0)
(0.197609 0.00258024 0)
(0.197251 0.00253674 0)
(0.196883 0.00249409 0)
(0.196506 0.00245223 0)
(0.19612 0.00241114 0)
(0.195725 0.00237077 0)
(0.195322 0.0023311 0)
(0.19491 0.0022921 0)
(0.19449 0.00225373 0)
(0.194061 0.00221597 0)
(0.193625 0.0021788 0)
(0.193181 0.0021422 0)
(0.19273 0.00210614 0)
(0.192272 0.00207061 0)
(0.191806 0.00203558 0)
(0.191334 0.00200105 0)
(0.190856 0.00196698 0)
(0.190371 0.00193337 0)
(0.189881 0.00190021 0)
(0.189385 0.00186748 0)
(0.188883 0.00183516 0)
(0.188376 0.00180325 0)
(0.187865 0.00177174 0)
(0.187349 0.0017406 0)
(0.186828 0.00170984 0)
(0.186303 0.00167945 0)
(0.185775 0.00164942 0)
(0.185243 0.00161973 0)
(0.184708 0.0015904 0)
(0.184169 0.0015614 0)
(0.183628 0.00153275 0)
(0.183085 0.00150443 0)
(0.182539 0.00147645 0)
(0.181991 0.00144882 0)
(0.181442 0.00142154 0)
(0.180891 0.00139462 0)
(0.180339 0.00136808 0)
(0.179786 0.00134194 0)
(0.179232 0.00131624 0)
(0.178678 0.00129102 0)
(0.178124 0.00126633 0)
(0.177569 0.00124229 0)
(0.177014 0.00121903 0)
(0.17646 0.00119681 0)
(0.175906 0.00117608 0)
(0.175354 0.00115765 0)
(0.174806 0.00114277 0)
(0.174274 0.00113161 0)
(0.173644 0.00110753 0)
(0.197053 0.00628825 0)
(0.197529 0.00685172 0)
(0.198092 0.00729788 0)
(0.198704 0.00761819 0)
(0.199332 0.0078204 0)
(0.199951 0.00791618 0)
(0.200542 0.00791759 0)
(0.201092 0.00783815 0)
(0.201591 0.00769303 0)
(0.202031 0.00749789 0)
(0.202411 0.00726771 0)
(0.202731 0.00701604 0)
(0.202995 0.00675447 0)
(0.203209 0.00649239 0)
(0.203377 0.00623686 0)
(0.203506 0.00599277 0)
(0.203604 0.00576308 0)
(0.203675 0.00554922 0)
(0.203724 0.00535146 0)
(0.203756 0.00516932 0)
(0.203773 0.00500177 0)
(0.203779 0.00484758 0)
(0.203775 0.00470539 0)
(0.203763 0.0045739 0)
(0.203743 0.00445188 0)
(0.203716 0.00433822 0)
(0.203682 0.00423196 0)
(0.203643 0.00413224 0)
(0.203597 0.00403836 0)
(0.203545 0.00394967 0)
(0.203487 0.00386566 0)
(0.203423 0.00378586 0)
(0.203353 0.00370986 0)
(0.203277 0.00363732 0)
(0.203194 0.00356793 0)
(0.203105 0.00350143 0)
(0.20301 0.00343756 0)
(0.202907 0.00337611 0)
(0.202798 0.0033169 0)
(0.202682 0.00325974 0)
(0.202559 0.00320447 0)
(0.202429 0.00315096 0)
(0.202291 0.00309907 0)
(0.202146 0.0030487 0)
(0.201994 0.00299972 0)
(0.201835 0.00295205 0)
(0.201667 0.00290559 0)
(0.201493 0.00286026 0)
(0.20131 0.002816 0)
(0.20112 0.00277272 0)
(0.200922 0.00273038 0)
(0.200717 0.0026889 0)
(0.200503 0.00264825 0)
(0.200282 0.00260837 0)
(0.200053 0.00256921 0)
(0.199817 0.00253074 0)
(0.199573 0.00249293 0)
(0.199321 0.00245572 0)
(0.199061 0.00241909 0)
(0.198794 0.00238302 0)
(0.198519 0.00234747 0)
(0.198237 0.00231242 0)
(0.197948 0.00227784 0)
(0.197651 0.00224371 0)
(0.197347 0.00221002 0)
(0.197036 0.00217674 0)
(0.196718 0.00214385 0)
(0.196393 0.00211133 0)
(0.196061 0.00207918 0)
(0.195723 0.00204737 0)
(0.195378 0.0020159 0)
(0.195027 0.00198474 0)
(0.19467 0.0019539 0)
(0.194307 0.00192335 0)
(0.193938 0.00189308 0)
(0.193563 0.0018631 0)
(0.193183 0.00183338 0)
(0.192797 0.00180393 0)
(0.192406 0.00177474 0)
(0.192011 0.0017458 0)
(0.19161 0.00171711 0)
(0.191205 0.00168866 0)
(0.190795 0.00166047 0)
(0.190381 0.00163254 0)
(0.189963 0.00160486 0)
(0.189542 0.00157745 0)
(0.189116 0.00155032 0)
(0.188688 0.0015235 0)
(0.188255 0.00149701 0)
(0.18782 0.00147088 0)
(0.187382 0.00144516 0)
(0.186941 0.00141993 0)
(0.186498 0.00139528 0)
(0.186052 0.00137136 0)
(0.185605 0.00134839 0)
(0.185155 0.00132674 0)
(0.184705 0.00130691 0)
(0.184257 0.00128922 0)
(0.183821 0.00127144 0)
(0.183297 0.00123422 0)
(0.197377 0.00606464 0)
(0.197799 0.0065673 0)
(0.198297 0.00697602 0)
(0.198843 0.00727967 0)
(0.19941 0.00748057 0)
(0.199974 0.00758649 0)
(0.200518 0.00760702 0)
(0.201029 0.00755336 0)
(0.201496 0.00743828 0)
(0.201915 0.00727522 0)
(0.202281 0.0070773 0)
(0.202595 0.00685655 0)
(0.202859 0.00662349 0)
(0.203076 0.00638683 0)
(0.203253 0.0061533 0)
(0.203394 0.00592776 0)
(0.203506 0.0057134 0)
(0.203592 0.00551201 0)
(0.203658 0.00532429 0)
(0.203708 0.00515016 0)
(0.203744 0.00498903 0)
(0.20377 0.00484002 0)
(0.203786 0.00470208 0)
(0.203796 0.00457415 0)
(0.203799 0.00445518 0)
(0.203797 0.00434422 0)
(0.203791 0.0042404 0)
(0.20378 0.00414296 0)
(0.203765 0.00405124 0)
(0.203746 0.00396466 0)
(0.203724 0.0038827 0)
(0.203697 0.00380492 0)
(0.203668 0.00373095 0)
(0.203634 0.00366044 0)
(0.203597 0.00359309 0)
(0.203556 0.00352864 0)
(0.203511 0.00346684 0)
(0.203462 0.0034075 0)
(0.20341 0.0033504 0)
(0.203353 0.00329539 0)
(0.203292 0.00324229 0)
(0.203227 0.00319097 0)
(0.203157 0.0031413 0)
(0.203083 0.00309315 0)
(0.203004 0.00304642 0)
(0.20292 0.00300101 0)
(0.202832 0.00295683 0)
(0.202739 0.00291379 0)
(0.20264 0.00287181 0)
(0.202537 0.00283082 0)
(0.202428 0.00279077 0)
(0.202314 0.00275158 0)
(0.202195 0.0027132 0)
(0.20207 0.00267559 0)
(0.20194 0.00263868 0)
(0.201804 0.00260244 0)
(0.201662 0.00256684 0)
(0.201515 0.00253182 0)
(0.201362 0.00249735 0)
(0.201203 0.0024634 0)
(0.201038 0.00242995 0)
(0.200867 0.00239695 0)
(0.20069 0.00236439 0)
(0.200508 0.00233224 0)
(0.200319 0.00230048 0)
(0.200125 0.00226908 0)
(0.199924 0.00223802 0)
(0.199718 0.0022073 0)
(0.199506 0.00217687 0)
(0.199288 0.00214674 0)
(0.199064 0.00211689 0)
(0.198834 0.00208729 0)
(0.198598 0.00205795 0)
(0.198357 0.00202884 0)
(0.19811 0.00199995 0)
(0.197858 0.00197128 0)
(0.1976 0.00194281 0)
(0.197336 0.00191454 0)
(0.197067 0.00188646 0)
(0.196793 0.00185857 0)
(0.196514 0.00183086 0)
(0.196229 0.00180333 0)
(0.19594 0.00177599 0)
(0.195646 0.00174883 0)
(0.195346 0.00172187 0)
(0.195043 0.00169511 0)
(0.194734 0.00166856 0)
(0.194421 0.00164226 0)
(0.194104 0.00161623 0)
(0.193783 0.0015905 0)
(0.193457 0.00156512 0)
(0.193127 0.00154018 0)
(0.192794 0.00151575 0)
(0.192456 0.00149199 0)
(0.192116 0.00146907 0)
(0.191772 0.00144726 0)
(0.191426 0.00142676 0)
(0.19108 0.00140716 0)
(0.190742 0.00138481 0)
(0.190326 0.0013407 0)
(0.197667 0.00586009 0)
(0.198046 0.00631006 0)
(0.198489 0.0066838 0)
(0.198977 0.00696969 0)
(0.199489 0.00716663 0)
(0.200003 0.0072793 0)
(0.200503 0.00731505 0)
(0.200977 0.00728303 0)
(0.201415 0.00719388 0)
(0.201811 0.00705906 0)
(0.202162 0.00688996 0)
(0.202467 0.00669725 0)
(0.202727 0.0064904 0)
(0.202946 0.00627739 0)
(0.203126 0.00606461 0)
(0.203274 0.00585681 0)
(0.203393 0.00565729 0)
(0.203489 0.00546811 0)
(0.203565 0.00529029 0)
(0.203625 0.00512413 0)
(0.203671 0.00496938 0)
(0.203707 0.00482548 0)
(0.203735 0.00469167 0)
(0.203755 0.00456709 0)
(0.20377 0.0044509 0)
(0.20378 0.00434228 0)
(0.203785 0.00424049 0)
(0.203787 0.00414484 0)
(0.203786 0.00405473 0)
(0.203782 0.00396963 0)
(0.203775 0.00388906 0)
(0.203766 0.00381261 0)
(0.203754 0.00373991 0)
(0.20374 0.00367065 0)
(0.203723 0.00360453 0)
(0.203705 0.0035413 0)
(0.203684 0.00348073 0)
(0.203661 0.00342262 0)
(0.203635 0.00336676 0)
(0.203607 0.003313 0)
(0.203577 0.00326118 0)
(0.203545 0.00321116 0)
(0.203509 0.0031628 0)
(0.203472 0.003116 0)
(0.203431 0.00307064 0)
(0.203388 0.00302662 0)
(0.203343 0.00298385 0)
(0.203294 0.00294224 0)
(0.203242 0.00290173 0)
(0.203187 0.00286223 0)
(0.203129 0.00282368 0)
(0.203068 0.00278602 0)
(0.203004 0.00274918 0)
(0.202936 0.00271313 0)
(0.202865 0.0026778 0)
(0.20279 0.00264315 0)
(0.202711 0.00260913 0)
(0.202629 0.00257572 0)
(0.202542 0.00254286 0)
(0.202452 0.00251053 0)
(0.202358 0.00247869 0)
(0.20226 0.00244731 0)
(0.202157 0.00241637 0)
(0.202051 0.00238583 0)
(0.20194 0.00235566 0)
(0.201825 0.00232586 0)
(0.201705 0.00229638 0)
(0.201582 0.00226722 0)
(0.201453 0.00223834 0)
(0.20132 0.00220974 0)
(0.201183 0.0021814 0)
(0.201041 0.00215329 0)
(0.200894 0.00212541 0)
(0.200743 0.00209773 0)
(0.200587 0.00207026 0)
(0.200427 0.00204296 0)
(0.200262 0.00201584 0)
(0.200092 0.00198889 0)
(0.199917 0.00196209 0)
(0.199738 0.00193544 0)
(0.199554 0.00190894 0)
(0.199366 0.00188259 0)
(0.199173 0.00185638 0)
(0.198975 0.00183031 0)
(0.198773 0.0018044 0)
(0.198566 0.00177865 0)
(0.198355 0.00175308 0)
(0.198139 0.00172771 0)
(0.197919 0.00170257 0)
(0.197694 0.00167769 0)
(0.197465 0.00165313 0)
(0.197232 0.00162896 0)
(0.196994 0.00160526 0)
(0.196753 0.00158216 0)
(0.196507 0.0015598 0)
(0.196257 0.00153834 0)
(0.196005 0.00151773 0)
(0.195752 0.00149707 0)
(0.195502 0.00147222 0)