/*--------------------------------*- C++ -*----------------------------------*\
| =========                 |                                                 |
| \\      /  F ield         | OpenFOAM: The Open Source CFD Toolbox           |
|  \\    /   O peration     | Version:  2.3.0                                 |
|   \\  /    A nd           | Web:      www.OpenFOAM.org                      |
|    \\/     M anipulation  |                                                 |
\*---------------------------------------------------------------------------*/
FoamFile
{
    version     2.0;
    format      ascii;
    class       surfaceScalarField;
    location    "0.05";
    object      phi_0;
}
// * * * * * * * * * * * * * * * * * * * * * * * * * * * * * * * * * * * * * //

dimensions      [0 3 -1 0 0 0 0];

internalField   nonuniform List<scalar> 
4357
(
5.02145e-08
1.99835e-09
-5.22128e-08
4.81025e-08
2.11201e-09
4.59828e-08
2.11971e-09
4.38835e-08
2.09927e-09
4.18179e-08
2.06557e-09
3.97983e-08
2.01959e-09
3.78351e-08
1.96324e-09
3.59367e-08
1.89836e-09
3.41107e-08
1.82599e-09
3.23642e-08
1.7465e-09
3.07043e-08
1.65992e-09
2.91383e-08
1.56597e-09
2.76742e-08
1.4641e-09
2.63208e-08
1.35345e-09
2.50878e-08
1.23294e-09
2.39858e-08
1.10206e-09
2.30241e-08
9.61701e-10
2.22092e-08
8.14879e-10
2.15423e-08
6.66905e-10
2.10176e-08
5.24714e-10
2.0622e-08
3.95536e-10
2.03367e-08
2.85376e-10
2.01388e-08
1.97862e-10
2.0005e-08
1.3378e-10
1.99137e-08
9.13424e-11
1.98467e-08
6.69508e-11
1.97906e-08
5.61536e-11
1.97361e-08
5.45309e-11
1.96778e-08
5.82922e-11
1.96132e-08
6.45594e-11
1.95418e-08
7.13778e-11
1.94642e-08
7.76155e-11
1.93814e-08
8.27629e-11
1.92947e-08
8.67131e-11
1.92051e-08
8.95824e-11
1.91136e-08
9.15808e-11
1.90206e-08
9.29308e-11
1.89268e-08
9.38264e-11
1.88324e-08
9.4418e-11
1.87376e-08
9.48127e-11
1.86425e-08
9.50824e-11
1.85472e-08
9.52726e-11
1.84518e-08
9.54109e-11
1.83563e-08
9.55132e-11
1.82607e-08
9.55889e-11
1.81651e-08
9.56429e-11
1.80694e-08
9.5678e-11
1.79737e-08
9.56957e-11
1.7878e-08
9.56969e-11
1.77823e-08
9.56819e-11
1.76867e-08
9.5651e-11
1.75911e-08
9.56042e-11
1.74955e-08
9.55413e-11
1.74001e-08
9.54623e-11
1.73047e-08
9.53669e-11
1.72094e-08
9.52548e-11
1.71143e-08
9.51257e-11
1.70193e-08
9.49794e-11
1.69245e-08
9.48155e-11
1.68299e-08
9.46336e-11
1.67354e-08
9.44335e-11
1.66412e-08
9.42147e-11
1.65473e-08
9.3977e-11
1.64535e-08
9.37199e-11
1.63601e-08
9.34432e-11
1.62669e-08
9.31465e-11
1.61741e-08
9.28296e-11
1.60816e-08
9.24921e-11
1.59895e-08
9.21338e-11
1.58977e-08
9.17543e-11
1.58064e-08
9.13535e-11
1.57155e-08
9.09311e-11
1.5625e-08
9.04869e-11
1.55349e-08
9.00207e-11
1.54454e-08
8.95323e-11
1.53564e-08
8.90217e-11
1.52679e-08
8.84888e-11
1.518e-08
8.79334e-11
1.50926e-08
8.73556e-11
1.50059e-08
8.67554e-11
1.49197e-08
8.6133e-11
1.48342e-08
8.54884e-11
1.47494e-08
8.48219e-11
1.46653e-08
8.41338e-11
1.45819e-08
8.34245e-11
1.44992e-08
8.26945e-11
1.44172e-08
8.19445e-11
1.4336e-08
8.11754e-11
1.42557e-08
8.03882e-11
1.41761e-08
7.95843e-11
1.40973e-08
7.87654e-11
1.40194e-08
7.79338e-11
1.39423e-08
7.70923e-11
1.3866e-08
7.62448e-11
1.37906e-08
7.53965e-11
1.37161e-08
7.45542e-11
1.36424e-08
7.37299e-11
1.35694e-08
7.29536e-11
1.34973e-08
7.2142e-11
8.51113e-11
5.79936e-08
2.06872e-09
-5.8064e-08
5.77968e-08
2.3088e-09
5.74707e-08
2.4459e-09
5.7038e-08
2.53189e-09
5.65154e-08
2.58824e-09
5.5916e-08
2.61892e-09
5.52533e-08
2.62596e-09
5.45402e-08
2.61149e-09
5.37894e-08
2.57678e-09
5.30139e-08
2.52198e-09
5.22274e-08
2.44647e-09
5.14443e-08
2.34906e-09
5.06803e-08
2.22812e-09
4.99518e-08
2.08192e-09
4.92754e-08
1.90938e-09
4.86661e-08
1.71135e-09
4.8136e-08
1.49175e-09
4.76927e-08
1.25825e-09
4.73376e-08
1.022e-09
4.70662e-08
7.96051e-10
4.68686e-08
5.93136e-10
4.67307e-08
4.23289e-10
4.66364e-08
2.92206e-10
4.65694e-08
2.00709e-10
4.65154e-08
1.45349e-10
4.64626e-08
1.19774e-10
4.64025e-08
1.16283e-10
4.63298e-08
1.27189e-10
4.62423e-08
1.45848e-10
4.61396e-08
1.6722e-10
4.6023e-08
1.87944e-10
4.58945e-08
2.06134e-10
4.57563e-08
2.21027e-10
4.56104e-08
2.326e-10
4.54587e-08
2.41241e-10
4.53028e-08
2.47515e-10
4.51437e-08
2.51998e-10
4.49823e-08
2.55196e-10
4.48192e-08
2.57516e-10
4.46548e-08
2.59257e-10
4.44893e-08
2.60629e-10
4.43228e-08
2.61774e-10
4.41554e-08
2.62783e-10
4.39872e-08
2.63711e-10
4.38182e-08
2.64591e-10
4.36484e-08
2.65445e-10
4.34778e-08
2.66282e-10
4.33064e-08
2.67108e-10
4.31341e-08
2.67926e-10
4.29611e-08
2.68738e-10
4.27872e-08
2.69543e-10
4.26124e-08
2.70341e-10
4.24369e-08
2.71131e-10
4.22604e-08
2.71913e-10
4.20831e-08
2.72684e-10
4.19049e-08
2.73444e-10
4.17258e-08
2.74192e-10
4.15459e-08
2.74926e-10
4.13651e-08
2.75644e-10
4.11833e-08
2.76347e-10
4.10007e-08
2.77031e-10
4.08173e-08
2.77697e-10
4.06329e-08
2.78343e-10
4.04477e-08
2.78967e-10
4.02615e-08
2.79569e-10
4.00745e-08
2.80148e-10
3.98867e-08
2.80702e-10
3.96979e-08
2.81231e-10
3.95083e-08
2.81733e-10
3.93179e-08
2.82207e-10
3.91266e-08
2.82654e-10
3.89344e-08
2.83071e-10
3.87415e-08
2.83458e-10
3.85477e-08
2.83815e-10
3.8353e-08
2.84141e-10
3.81576e-08
2.84434e-10
3.79614e-08
2.84695e-10
3.77644e-08
2.84924e-10
3.75667e-08
2.85119e-10
3.73682e-08
2.85281e-10
3.71689e-08
2.85409e-10
3.69689e-08
2.85504e-10
3.67681e-08
2.85565e-10
3.65667e-08
2.85593e-10
3.63645e-08
2.85589e-10
3.61616e-08
2.85553e-10
3.59581e-08
2.85486e-10
3.57539e-08
2.85391e-10
3.5549e-08
2.85269e-10
3.53435e-08
2.85122e-10
3.51373e-08
2.84955e-10
3.49304e-08
2.84773e-10
3.47229e-08
2.84582e-10
3.45148e-08
2.84391e-10
3.4306e-08
2.84213e-10
3.40965e-08
2.84063e-10
3.38862e-08
2.83967e-10
3.36752e-08
2.84009e-10
3.34621e-08
2.85221e-10
2.85697e-10
6.30576e-08
2.02784e-09
-6.30167e-08
6.31098e-08
2.25656e-09
6.31387e-08
2.41706e-09
6.31364e-08
2.5342e-09
6.31008e-08
2.62377e-09
6.30303e-08
2.68948e-09
6.29245e-08
2.7317e-09
6.27852e-08
2.75079e-09
6.26153e-08
2.7467e-09
6.24188e-08
2.71853e-09
6.22006e-08
2.66464e-09
6.19668e-08
2.58288e-09
6.17239e-08
2.47095e-09
6.14789e-08
2.32695e-09
6.1238e-08
2.15033e-09
6.10062e-08
1.94308e-09
6.07872e-08
1.71077e-09
6.05825e-08
1.46296e-09
6.0392e-08
1.2125e-09
6.02143e-08
9.73726e-10
6.00474e-08
7.60112e-10
5.98887e-08
5.8194e-10
5.97361e-08
4.44834e-10
5.95874e-08
3.49391e-10
5.94409e-08
2.91875e-10
5.9295e-08
2.65614e-10
5.91487e-08
2.62581e-10
5.90011e-08
2.74809e-10
5.88515e-08
2.95408e-10
5.86997e-08
3.19094e-10
5.85453e-08
3.42286e-10
5.83886e-08
3.62909e-10
5.82295e-08
3.80062e-10
5.80685e-08
3.93641e-10
5.79057e-08
4.04007e-10
5.77415e-08
4.11735e-10
5.75761e-08
4.17439e-10
5.74096e-08
4.21675e-10
5.72422e-08
4.24898e-10
5.7074e-08
4.27454e-10
5.6905e-08
4.29592e-10
5.67353e-08
4.31483e-10
5.65649e-08
4.33237e-10
5.63937e-08
4.34925e-10
5.62217e-08
4.36591e-10
5.60488e-08
4.3826e-10
5.58752e-08
4.39944e-10
5.57006e-08
4.41653e-10
5.55252e-08
4.43387e-10
5.53488e-08
4.45149e-10
5.51714e-08
4.46936e-10
5.4993e-08
4.48748e-10
5.48135e-08
4.50582e-10
5.4633e-08
4.52435e-10
5.44514e-08
4.54305e-10
5.42686e-08
4.5619e-10
5.40847e-08
4.58087e-10
5.38997e-08
4.59992e-10
5.37134e-08
4.61905e-10
5.35259e-08
4.63821e-10
5.33372e-08
4.65739e-10
5.31473e-08
4.67656e-10
5.2956e-08
4.69571e-10
5.27635e-08
4.71481e-10
5.25697e-08
4.73384e-10
5.23746e-08
4.75279e-10
5.21781e-08
4.77163e-10
5.19803e-08
4.79035e-10
5.17811e-08
4.80893e-10
5.15806e-08
4.82736e-10
5.13787e-08
4.84562e-10
5.11754e-08
4.86371e-10
5.09707e-08
4.8816e-10
5.07646e-08
4.89929e-10
5.05571e-08
4.91677e-10
5.03481e-08
4.93402e-10
5.01377e-08
4.95105e-10
4.99258e-08
4.96784e-10
4.97125e-08
4.98439e-10
4.94977e-08
5.0007e-10
4.92814e-08
5.01676e-10
4.90637e-08
5.03258e-10
4.88444e-08
5.04816e-10
4.86237e-08
5.0635e-10
4.84014e-08
5.07861e-10
4.81776e-08
5.09351e-10
4.79523e-08
5.10821e-10
4.77254e-08
5.12275e-10
4.74969e-08
5.13714e-10
4.72669e-08
5.15144e-10
4.70353e-08
5.1657e-10
4.68021e-08
5.18001e-10
4.65672e-08
5.19445e-10
4.63307e-08
5.20918e-10
4.60925e-08
5.22437e-10
4.58525e-08
5.24029e-10
4.56107e-08
5.25727e-10
4.53671e-08
5.276e-10
4.51228e-08
5.29597e-10
5.25844e-10
6.83185e-08
2.01908e-09
-6.83097e-08
6.83609e-08
2.21415e-09
6.84103e-08
2.36766e-09
6.84573e-08
2.48721e-09
6.84995e-08
2.58152e-09
6.85352e-08
2.65386e-09
6.85623e-08
2.70454e-09
6.85797e-08
2.73337e-09
6.85865e-08
2.73992e-09
6.8582e-08
2.72309e-09
6.85654e-08
2.68121e-09
6.85361e-08
2.6122e-09
6.8493e-08
2.51406e-09
6.84345e-08
2.38542e-09
6.83585e-08
2.22636e-09
6.82622e-08
2.03937e-09
6.81429e-08
1.83002e-09
6.79988e-08
1.60711e-09
6.78294e-08
1.38191e-09
6.76365e-08
1.16663e-09
6.7424e-08
9.72528e-10
6.71978e-08
8.08192e-10
6.69642e-08
6.78429e-10
6.67295e-08
5.84039e-10
6.6499e-08
5.22367e-10
6.62763e-08
4.88345e-10
6.60632e-08
4.7569e-10
6.586e-08
4.77984e-10
6.5666e-08
4.89475e-10
6.54795e-08
5.05542e-10
6.5299e-08
5.22848e-10
6.51226e-08
5.39261e-10
6.4949e-08
5.53642e-10
6.47771e-08
5.65574e-10
6.4606e-08
5.75109e-10
6.44352e-08
5.82556e-10
6.42643e-08
5.88325e-10
6.40931e-08
5.92831e-10
6.39216e-08
5.9644e-10
6.37496e-08
5.99448e-10
6.35771e-08
6.02078e-10
6.34041e-08
6.04494e-10
6.32305e-08
6.06804e-10
6.30564e-08
6.09084e-10
6.28816e-08
6.1138e-10
6.27061e-08
6.1372e-10
6.25299e-08
6.16119e-10
6.2353e-08
6.18587e-10
6.21753e-08
6.21126e-10
6.19967e-08
6.23735e-10
6.18172e-08
6.26413e-10
6.16368e-08
6.29156e-10
6.14554e-08
6.3196e-10
6.1273e-08
6.34821e-10
6.10896e-08
6.37735e-10
6.09051e-08
6.40698e-10
6.07195e-08
6.43704e-10
6.05327e-08
6.4675e-10
6.03448e-08
6.49832e-10
6.01557e-08
6.52946e-10
5.99653e-08
6.56088e-10
5.97737e-08
6.59255e-10
5.95809e-08
6.62443e-10
5.93867e-08
6.6565e-10
5.91912e-08
6.68871e-10
5.89944e-08
6.72106e-10
5.87962e-08
6.75351e-10
5.85966e-08
6.78603e-10
5.83956e-08
6.81862e-10
5.81933e-08
6.85123e-10
5.79894e-08
6.88386e-10
5.77842e-08
6.9165e-10
5.75774e-08
6.94911e-10
5.73692e-08
6.9817e-10
5.71594e-08
7.01425e-10
5.69481e-08
7.04674e-10
5.67353e-08
7.07917e-10
5.6521e-08
7.11154e-10
5.6305e-08
7.14383e-10
5.60875e-08
7.17605e-10
5.58683e-08
7.20819e-10
5.56476e-08
7.24026e-10
5.54252e-08
7.27227e-10
5.52011e-08
7.30423e-10
5.49753e-08
7.33614e-10
5.47479e-08
7.36804e-10
5.45187e-08
7.39994e-10
5.42878e-08
7.43189e-10
5.40551e-08
7.46393e-10
5.38206e-08
7.49611e-10
5.35844e-08
7.52853e-10
5.33462e-08
7.56127e-10
5.31062e-08
7.59449e-10
5.28643e-08
7.62836e-10
5.26204e-08
7.66313e-10
5.23746e-08
7.69912e-10
5.21266e-08
7.7367e-10
5.18766e-08
7.77595e-10
5.16249e-08
7.81301e-10
7.81302e-10
7.39764e-08
2.04559e-09
-7.40029e-08
7.39827e-08
2.2078e-09
7.40052e-08
2.34513e-09
7.40352e-08
2.45721e-09
7.40695e-08
2.54732e-09
7.41059e-08
2.61743e-09
7.41426e-08
2.66785e-09
7.41777e-08
2.69821e-09
7.42097e-08
2.70796e-09
7.42366e-08
2.69617e-09
7.42563e-08
2.66156e-09
7.42658e-08
2.60268e-09
7.42616e-08
2.51826e-09
7.42393e-08
2.40771e-09
7.4194e-08
2.27164e-09
7.41208e-08
2.11257e-09
7.40156e-08
1.93524e-09
7.3876e-08
1.74669e-09
7.37023e-08
1.55564e-09
7.34975e-08
1.37144e-09
7.32672e-08
1.2028e-09
7.30188e-08
1.05655e-09
7.27604e-08
9.36895e-10
7.24993e-08
8.45143e-10
7.22416e-08
7.79993e-10
7.19918e-08
7.38185e-10
7.17522e-08
7.15314e-10
7.15235e-08
7.06603e-10
7.13055e-08
7.07548e-10
7.10967e-08
7.14321e-10
7.08956e-08
7.23969e-10
7.07004e-08
7.34429e-10
7.05096e-08
7.44422e-10
7.03219e-08
7.53283e-10
7.01362e-08
7.60784e-10
6.99518e-08
7.66968e-10
6.97681e-08
7.72027e-10
6.95848e-08
7.76205e-10
6.94015e-08
7.79747e-10
6.9218e-08
7.82867e-10
6.90344e-08
7.85738e-10
6.88504e-08
7.8849e-10
6.8666e-08
7.91217e-10
6.84811e-08
7.93981e-10
6.82956e-08
7.96823e-10
6.81096e-08
7.9977e-10
6.79229e-08
8.02833e-10
6.77354e-08
8.06019e-10
6.75472e-08
8.09329e-10
6.73582e-08
8.1276e-10
6.71683e-08
8.16307e-10
6.69775e-08
8.19966e-10
6.67857e-08
8.2373e-10
6.6593e-08
8.27592e-10
6.63991e-08
8.31547e-10
6.62043e-08
8.35587e-10
6.60083e-08
8.39706e-10
6.58111e-08
8.43898e-10
6.56128e-08
8.48158e-10
6.54132e-08
8.5248e-10
6.52125e-08
8.56859e-10
6.50104e-08
8.61289e-10
6.48071e-08
8.65767e-10
6.46025e-08
8.70289e-10
6.43965e-08
8.74849e-10
6.41892e-08
8.79446e-10
6.39804e-08
8.84074e-10
6.37703e-08
8.88731e-10
6.35588e-08
8.93415e-10
6.33458e-08
8.98122e-10
6.31313e-08
9.02851e-10
6.29153e-08
9.07598e-10
6.26979e-08
9.12363e-10
6.24789e-08
9.17143e-10
6.22584e-08
9.21937e-10
6.20363e-08
9.26744e-10
6.18127e-08
9.31562e-10
6.15875e-08
9.36392e-10
6.13606e-08
9.41233e-10
6.11321e-08
9.46084e-10
6.0902e-08
9.50947e-10
6.06702e-08
9.55821e-10
6.04367e-08
9.60707e-10
6.02015e-08
9.65608e-10
5.99646e-08
9.70526e-10
5.9726e-08
9.75462e-10
5.94855e-08
9.80422e-10
5.92433e-08
9.85408e-10
5.89993e-08
9.90429e-10
5.87534e-08
9.9549e-10
5.85057e-08
1.0006e-09
5.8256e-08
1.00578e-09
5.80044e-08
1.01104e-09
5.77508e-08
1.0164e-09
5.74953e-08
1.02189e-09
5.72376e-08
1.02756e-09
5.69778e-08
1.03346e-09
5.67158e-08
1.03959e-09
5.64514e-08
1.04578e-09
1.05121e-09
8.00784e-08
2.09859e-09
-8.01314e-08
8.00536e-08
2.23259e-09
8.00473e-08
2.35138e-09
8.00523e-08
2.45222e-09
8.00644e-08
2.5352e-09
8.00811e-08
2.6008e-09
8.01e-08
2.64891e-09
8.01192e-08
2.67902e-09
8.01367e-08
2.69048e-09
8.01503e-08
2.68254e-09
8.01576e-08
2.65431e-09
8.01553e-08
2.60494e-09
8.01398e-08
2.5338e-09
8.01066e-08
2.44088e-09
8.00511e-08
2.32714e-09
7.99688e-08
2.19485e-09
7.98562e-08
2.04789e-09
7.97112e-08
1.89165e-09
7.95342e-08
1.73264e-09
7.93278e-08
1.57787e-09
7.90967e-08
1.43389e-09
7.88472e-08
1.30607e-09
7.85861e-08
1.19799e-09
7.832e-08
1.11118e-09
7.80547e-08
1.0453e-09
7.77945e-08
9.98458e-10
7.7542e-08
9.67779e-10
7.72987e-08
9.49922e-10
7.70647e-08
9.41553e-10
7.68393e-08
9.39684e-10
7.66214e-08
9.41858e-10
7.64096e-08
9.46221e-10
7.62026e-08
9.51489e-10
7.5999e-08
9.5686e-10
7.57979e-08
9.61905e-10
7.55984e-08
9.66451e-10
7.53999e-08
9.7049e-10
7.5202e-08
9.74102e-10
7.50044e-08
9.77406e-10
7.48067e-08
9.80523e-10
7.46089e-08
9.83561e-10
7.44108e-08
9.86609e-10
7.42122e-08
9.89735e-10
7.40132e-08
9.92984e-10
7.38137e-08
9.96387e-10
7.36135e-08
9.99963e-10
7.34126e-08
1.00372e-09
7.3211e-08
1.00766e-09
7.30085e-08
1.01178e-09
7.28052e-08
1.01608e-09
7.26009e-08
1.02055e-09
7.23957e-08
1.02518e-09
7.21895e-08
1.02996e-09
7.19822e-08
1.03488e-09
7.17738e-08
1.03994e-09
7.15643e-08
1.04512e-09
7.13536e-08
1.05042e-09
7.11417e-08
1.05582e-09
7.09285e-08
1.06133e-09
7.0714e-08
1.06693e-09
7.04983e-08
1.07262e-09
7.02812e-08
1.07839e-09
7.00627e-08
1.08424e-09
6.98428e-08
1.09015e-09
6.96215e-08
1.09613e-09
6.93988e-08
1.10217e-09
6.91746e-08
1.10826e-09
6.8949e-08
1.11441e-09
6.87218e-08
1.1206e-09
6.84931e-08
1.12684e-09
6.82628e-08
1.13312e-09
6.8031e-08
1.13943e-09
6.77975e-08
1.14579e-09
6.75625e-08
1.15218e-09
6.73258e-08
1.1586e-09
6.70875e-08
1.16505e-09
6.68476e-08
1.17153e-09
6.66059e-08
1.17804e-09
6.63626e-08
1.18459e-09
6.61175e-08
1.19116e-09
6.58707e-08
1.19776e-09
6.56221e-08
1.20439e-09
6.53718e-08
1.21106e-09
6.51196e-08
1.21776e-09
6.48656e-08
1.22449e-09
6.46098e-08
1.23127e-09
6.43522e-08
1.23809e-09
6.40926e-08
1.24497e-09
6.38311e-08
1.2519e-09
6.35677e-08
1.2589e-09
6.33023e-08
1.26598e-09
6.3035e-08
1.27316e-09
6.27656e-08
1.28045e-09
6.24941e-08
1.28789e-09
6.22205e-08
1.2955e-09
6.19447e-08
1.30334e-09
6.16667e-08
1.31148e-09
6.13862e-08
1.32e-09
6.1103e-08
1.32901e-09
1.33898e-09
8.66598e-08
2.17318e-09
-8.67344e-08
8.66081e-08
2.28431e-09
8.65738e-08
2.38563e-09
8.65518e-08
2.47428e-09
8.6538e-08
2.54896e-09
8.65297e-08
2.60908e-09
8.65245e-08
2.6541e-09
8.65202e-08
2.68335e-09
8.65145e-08
2.69618e-09
8.65051e-08
2.69194e-09
8.64894e-08
2.67005e-09
8.64643e-08
2.63001e-09
8.64264e-08
2.57166e-09
8.6372e-08
2.4953e-09
8.62972e-08
2.40198e-09
8.61983e-08
2.29371e-09
8.60726e-08
2.17355e-09
8.59187e-08
2.04557e-09
8.57368e-08
1.91461e-09
8.55288e-08
1.78581e-09
8.52986e-08
1.6641e-09
8.50511e-08
1.55361e-09
8.47917e-08
1.45735e-09
8.45259e-08
1.37694e-09
8.42586e-08
1.31262e-09
8.39936e-08
1.26352e-09
8.37334e-08
1.22789e-09
8.34798e-08
1.20355e-09
8.32333e-08
1.18811e-09
8.29936e-08
1.17932e-09
8.27603e-08
1.17523e-09
8.25322e-08
1.17424e-09
8.23086e-08
1.17516e-09
8.20883e-08
1.17716e-09
8.18705e-08
1.17969e-09
8.16545e-08
1.18244e-09
8.14397e-08
1.18528e-09
8.12257e-08
1.18815e-09
8.1012e-08
1.19106e-09
8.07985e-08
1.19406e-09
8.05848e-08
1.19718e-09
8.0371e-08
1.20048e-09
8.01567e-08
1.20398e-09
7.9942e-08
1.20772e-09
7.97267e-08
1.21171e-09
7.95107e-08
1.21596e-09
7.92939e-08
1.22046e-09
7.90764e-08
1.22521e-09
7.8858e-08
1.23022e-09
7.86386e-08
1.23545e-09
7.84182e-08
1.24092e-09
7.81968e-08
1.2466e-09
7.79743e-08
1.25248e-09
7.77506e-08
1.25855e-09
7.75257e-08
1.2648e-09
7.72996e-08
1.27121e-09
7.70723e-08
1.27779e-09
7.68436e-08
1.28451e-09
7.66136e-08
1.29136e-09
7.63821e-08
1.29835e-09
7.61493e-08
1.30545e-09
7.5915e-08
1.31267e-09
7.56793e-08
1.31999e-09
7.5442e-08
1.3274e-09
7.52033e-08
1.33491e-09
7.49629e-08
1.3425e-09
7.4721e-08
1.35017e-09
7.44775e-08
1.35792e-09
7.42324e-08
1.36573e-09
7.39856e-08
1.37362e-09
7.37372e-08
1.38156e-09
7.3487e-08
1.38957e-09
7.32352e-08
1.39763e-09
7.29816e-08
1.40575e-09
7.27263e-08
1.41392e-09
7.24692e-08
1.42214e-09
7.22103e-08
1.43041e-09
7.19496e-08
1.43874e-09
7.16871e-08
1.44711e-09
7.14227e-08
1.45552e-09
7.11565e-08
1.46399e-09
7.08884e-08
1.47251e-09
7.06183e-08
1.48109e-09
7.03464e-08
1.48972e-09
7.00725e-08
1.4984e-09
6.97966e-08
1.50716e-09
6.95187e-08
1.51598e-09
6.92388e-08
1.52488e-09
6.89568e-08
1.53386e-09
6.86728e-08
1.54294e-09
6.83866e-08
1.55213e-09
6.80983e-08
1.56145e-09
6.78079e-08
1.57092e-09
6.75152e-08
1.58057e-09
6.72202e-08
1.59046e-09
6.69229e-08
1.60062e-09
6.66233e-08
1.61117e-09
6.6321e-08
1.62224e-09
6.60159e-08
1.63412e-09
1.64753e-09
9.37579e-08
2.26776e-09
-9.38524e-08
9.36815e-08
2.36067e-09
9.36203e-08
2.4468e-09
9.35708e-08
2.52377e-09
9.35299e-08
2.58995e-09
9.34947e-08
2.64426e-09
9.34629e-08
2.68586e-09
9.34322e-08
2.71403e-09
9.34003e-08
2.72809e-09
9.33648e-08
2.72749e-09
9.3323e-08
2.71179e-09
9.32723e-08
2.68076e-09
9.32095e-08
2.63441e-09
9.31316e-08
2.57322e-09
9.30354e-08
2.49817e-09
9.29182e-08
2.41095e-09
9.27778e-08
2.31395e-09
9.26131e-08
2.21023e-09
9.24244e-08
2.10336e-09
9.22131e-08
1.99714e-09
9.19819e-08
1.89523e-09
9.17347e-08
1.80084e-09
9.14756e-08
1.71642e-09
9.1209e-08
1.64352e-09
9.09389e-08
1.58272e-09
9.06687e-08
1.53379e-09
9.04008e-08
1.4958e-09
9.01369e-08
1.46738e-09
8.98781e-08
1.44697e-09
8.96245e-08
1.43294e-09
8.93759e-08
1.42382e-09
8.91318e-08
1.41832e-09
8.88915e-08
1.41541e-09
8.86544e-08
1.41431e-09
8.84196e-08
1.41444e-09
8.81866e-08
1.41543e-09
8.79549e-08
1.41703e-09
8.77239e-08
1.41911e-09
8.74934e-08
1.42159e-09
8.7263e-08
1.42444e-09
8.70325e-08
1.42764e-09
8.68018e-08
1.43119e-09
8.65707e-08
1.43511e-09
8.6339e-08
1.43938e-09
8.61067e-08
1.44401e-09
8.58737e-08
1.44899e-09
8.56399e-08
1.45431e-09
8.54051e-08
1.45996e-09
8.51694e-08
1.46592e-09
8.49327e-08
1.47219e-09
8.46948e-08
1.47875e-09
8.44559e-08
1.48557e-09
8.42157e-08
1.49266e-09
8.39742e-08
1.49998e-09
8.37315e-08
1.50753e-09
8.34874e-08
1.51529e-09
8.3242e-08
1.52325e-09
8.29951e-08
1.5314e-09
8.27467e-08
1.53972e-09
8.24969e-08
1.5482e-09
8.22455e-08
1.55684e-09
8.19925e-08
1.56562e-09
8.1738e-08
1.57453e-09
8.14818e-08
1.58358e-09
8.1224e-08
1.59274e-09
8.09645e-08
1.60201e-09
8.07033e-08
1.61139e-09
8.04403e-08
1.62086e-09
8.01756e-08
1.63044e-09
7.99091e-08
1.6401e-09
7.96409e-08
1.64985e-09
7.93707e-08
1.65968e-09
7.90988e-08
1.66959e-09
7.8825e-08
1.67957e-09
7.85493e-08
1.68963e-09
7.82716e-08
1.69976e-09
7.79921e-08
1.70997e-09
7.77106e-08
1.72024e-09
7.74271e-08
1.73058e-09
7.71416e-08
1.741e-09
7.68541e-08
1.75148e-09
7.65646e-08
1.76204e-09
7.6273e-08
1.77267e-09
7.59794e-08
1.78338e-09
7.56836e-08
1.79418e-09
7.53857e-08
1.80506e-09
7.50856e-08
1.81604e-09
7.47834e-08
1.82712e-09
7.44789e-08
1.83831e-09
7.41722e-08
1.84963e-09
7.38633e-08
1.8611e-09
7.3552e-08
1.87273e-09
7.32384e-08
1.88454e-09
7.29224e-08
1.89659e-09
7.26039e-08
1.90891e-09
7.2283e-08
1.92157e-09
7.19594e-08
1.93468e-09
7.16333e-08
1.94842e-09
7.13042e-08
1.96314e-09
1.97935e-09
1.01414e-07
2.38223e-09
-1.01528e-07
1.01314e-07
2.46076e-09
1.01226e-07
2.53425e-09
1.01149e-07
2.6009e-09
1.0108e-07
2.65918e-09
1.01016e-07
2.70794e-09
1.00956e-07
2.74623e-09
1.00897e-07
2.77329e-09
1.00836e-07
2.78849e-09
1.00772e-07
2.79133e-09
1.00703e-07
2.78147e-09
1.00625e-07
2.75877e-09
1.00536e-07
2.72337e-09
1.00433e-07
2.67574e-09
1.00315e-07
2.61675e-09
1.00178e-07
2.54775e-09
1.00021e-07
2.4706e-09
9.98439e-08
2.38757e-09
9.96459e-08
2.30129e-09
9.94285e-08
2.21457e-09
9.91936e-08
2.13013e-09
9.8944e-08
2.05043e-09
9.8683e-08
1.97746e-09
9.84139e-08
1.91262e-09
9.81399e-08
1.85666e-09
9.7864e-08
1.80973e-09
9.75883e-08
1.77147e-09
9.73146e-08
1.74112e-09
9.70438e-08
1.71771e-09
9.67766e-08
1.70016e-09
9.6513e-08
1.68741e-09
9.62529e-08
1.67846e-09
9.59958e-08
1.67249e-09
9.57413e-08
1.6688e-09
9.54889e-08
1.66685e-09
9.52381e-08
1.66625e-09
9.49884e-08
1.66672e-09
9.47395e-08
1.66805e-09
9.4491e-08
1.67011e-09
9.42426e-08
1.67282e-09
9.39941e-08
1.67612e-09
9.37453e-08
1.67996e-09
9.34961e-08
1.68433e-09
9.32463e-08
1.68919e-09
9.29958e-08
1.69453e-09
9.27445e-08
1.70032e-09
9.24922e-08
1.70654e-09
9.2239e-08
1.71318e-09
9.19847e-08
1.72021e-09
9.17293e-08
1.72762e-09
9.14727e-08
1.73537e-09
9.12148e-08
1.74346e-09
9.09556e-08
1.75186e-09
9.0695e-08
1.76056e-09
9.0433e-08
1.76953e-09
9.01695e-08
1.77876e-09
8.99045e-08
1.78823e-09
8.9638e-08
1.79793e-09
8.93699e-08
1.80784e-09
8.91001e-08
1.81796e-09
8.88287e-08
1.82826e-09
8.85556e-08
1.83874e-09
8.82807e-08
1.84939e-09
8.80041e-08
1.86019e-09
8.77257e-08
1.87114e-09
8.74455e-08
1.88224e-09
8.71634e-08
1.89346e-09
8.68794e-08
1.90482e-09
8.65936e-08
1.91629e-09
8.63058e-08
1.92788e-09
8.60161e-08
1.93958e-09
8.57244e-08
1.95138e-09
8.54307e-08
1.96329e-09
8.5135e-08
1.97529e-09
8.48372e-08
1.98739e-09
8.45374e-08
1.99959e-09
8.42355e-08
2.01188e-09
8.39315e-08
2.02426e-09
8.36253e-08
2.03673e-09
8.3317e-08
2.0493e-09
8.30065e-08
2.06196e-09
8.26938e-08
2.07472e-09
8.23789e-08
2.08758e-09
8.20618e-08
2.10054e-09
8.17423e-08
2.11361e-09
8.14206e-08
2.12679e-09
8.10966e-08
2.1401e-09
8.07701e-08
2.15354e-09
8.04413e-08
2.16712e-09
8.01101e-08
2.18086e-09
7.97764e-08
2.19478e-09
7.94402e-08
2.2089e-09
7.91015e-08
2.22325e-09
7.87603e-08
2.23787e-09
7.84164e-08
2.2528e-09
7.80698e-08
2.26813e-09
7.77205e-08
2.28396e-09
7.73685e-08
2.30047e-09
7.70137e-08
2.31793e-09
2.33673e-09
1.09672e-07
2.51735e-09
-1.09808e-07
1.09549e-07
2.58466e-09
1.09435e-07
2.648e-09
1.0933e-07
2.70604e-09
1.09231e-07
2.75754e-09
1.09138e-07
2.8014e-09
1.09047e-07
2.83675e-09
1.08958e-07
2.86285e-09
1.08867e-07
2.87912e-09
1.08773e-07
2.88512e-09
1.08674e-07
2.88056e-09
1.08568e-07
2.86537e-09
1.08451e-07
2.83968e-09
1.08323e-07
2.80392e-09
1.08181e-07
2.75881e-09
1.08023e-07
2.7054e-09
1.07849e-07
2.64509e-09
1.07657e-07
2.57958e-09
1.07447e-07
2.51082e-09
1.07221e-07
2.44084e-09
1.0698e-07
2.37171e-09
1.06725e-07
2.30528e-09
1.06459e-07
2.24317e-09
1.06185e-07
2.18659e-09
1.05905e-07
2.13633e-09
1.05622e-07
2.09276e-09
1.05338e-07
2.05588e-09
1.05054e-07
2.02537e-09
1.04771e-07
2.00068e-09
1.0449e-07
1.98117e-09
1.04211e-07
1.96611e-09
1.03935e-07
1.95479e-09
1.03661e-07
1.94659e-09
1.03388e-07
1.94094e-09
1.03118e-07
1.93736e-09
1.02849e-07
1.93549e-09
1.0258e-07
1.93504e-09
1.02313e-07
1.93578e-09
1.02045e-07
1.93755e-09
1.01778e-07
1.94022e-09
1.0151e-07
1.94371e-09
1.01242e-07
1.94793e-09
1.00974e-07
1.95284e-09
1.00705e-07
1.95838e-09
1.00435e-07
1.96453e-09
1.00164e-07
1.97124e-09
9.98917e-08
1.97849e-09
9.96186e-08
1.98623e-09
9.93444e-08
1.99445e-09
9.90689e-08
2.00312e-09
9.8792e-08
2.01221e-09
9.85138e-08
2.02169e-09
9.82341e-08
2.03154e-09
9.7953e-08
2.04174e-09
9.76702e-08
2.05227e-09
9.73859e-08
2.0631e-09
9.70999e-08
2.07423e-09
9.68122e-08
2.08563e-09
9.65227e-08
2.09728e-09
9.62315e-08
2.10917e-09
9.59385e-08
2.12128e-09
9.56436e-08
2.13361e-09
9.53469e-08
2.14614e-09
9.50482e-08
2.15886e-09
9.47476e-08
2.17176e-09
9.4445e-08
2.18483e-09
9.41404e-08
2.19806e-09
9.38338e-08
2.21144e-09
9.35251e-08
2.22497e-09
9.32143e-08
2.23865e-09
9.29014e-08
2.25245e-09
9.25864e-08
2.26639e-09
9.22692e-08
2.28046e-09
9.19499e-08
2.29465e-09
9.16283e-08
2.30896e-09
9.13045e-08
2.32339e-09
9.09785e-08
2.33793e-09
9.06501e-08
2.35259e-09
9.03195e-08
2.36737e-09
8.99865e-08
2.38227e-09
8.96512e-08
2.39728e-09
8.93135e-08
2.41242e-09
8.89734e-08
2.42768e-09
8.86309e-08
2.44307e-09
8.82859e-08
2.4586e-09
8.79384e-08
2.47427e-09
8.75884e-08
2.49009e-09
8.72359e-08
2.50608e-09
8.68808e-08
2.52224e-09
8.6523e-08
2.5386e-09
8.61626e-08
2.55517e-09
8.57996e-08
2.57198e-09
8.54337e-08
2.58906e-09
8.50652e-08
2.60644e-09
8.46938e-08
2.62419e-09
8.43195e-08
2.64236e-09
8.39425e-08
2.66105e-09
8.35625e-08
2.68039e-09
8.31799e-08
2.70053e-09
2.72168e-09
6.87539e-08
2.36923e-09
-6.86058e-08
6.89094e-08
2.42917e-09
6.90719e-08
2.48551e-09
6.92407e-08
2.53716e-09
6.94152e-08
2.58304e-09
6.95944e-08
2.62218e-09
6.97774e-08
2.65376e-09
6.99632e-08
2.67713e-09
7.01505e-08
2.69174e-09
7.03384e-08
2.69721e-09
7.05257e-08
2.69331e-09
7.07111e-08
2.67999e-09
7.08934e-08
2.6574e-09
7.10714e-08
2.62592e-09
7.1244e-08
2.5862e-09
7.14102e-08
2.53915e-09
7.15693e-08
2.48595e-09
7.17209e-08
2.428e-09
7.18648e-08
2.36691e-09
7.20013e-08
2.30435e-09
7.2131e-08
2.24201e-09
7.22548e-08
2.18146e-09
7.2374e-08
2.12405e-09
7.24897e-08
2.07088e-09
7.26033e-08
2.0227e-09
7.27161e-08
1.97995e-09
7.28292e-08
1.94276e-09
7.29436e-08
1.91098e-09
7.306e-08
1.88431e-09
7.31789e-08
1.86228e-09
7.33006e-08
1.84437e-09
7.34254e-08
1.83004e-09
7.35532e-08
1.81876e-09
7.36841e-08
1.81008e-09
7.38178e-08
1.80358e-09
7.39544e-08
1.79893e-09
7.40936e-08
1.79584e-09
7.42353e-08
1.79409e-09
7.43793e-08
1.79351e-09
7.45256e-08
1.79396e-09
7.4674e-08
1.79534e-09
7.48243e-08
1.79755e-09
7.49766e-08
1.80054e-09
7.51308e-08
1.80424e-09
7.52867e-08
1.8086e-09
7.54444e-08
1.81358e-09
7.56037e-08
1.81914e-09
7.57647e-08
1.82524e-09
7.59273e-08
1.83185e-09
7.60915e-08
1.83893e-09
7.62573e-08
1.84647e-09
7.64245e-08
1.85442e-09
7.65933e-08
1.86276e-09
7.67636e-08
1.87147e-09
7.69353e-08
1.88052e-09
7.71085e-08
1.8899e-09
7.72832e-08
1.89957e-09
7.74593e-08
1.90953e-09
7.76368e-08
1.91975e-09
7.78158e-08
1.93021e-09
7.79962e-08
1.94091e-09
7.81779e-08
1.95183e-09
7.83611e-08
1.96295e-09
7.85457e-08
1.97426e-09
7.87317e-08
1.98575e-09
7.89192e-08
1.99742e-09
7.9108e-08
2.00924e-09
7.92982e-08
2.02122e-09
7.94898e-08
2.03335e-09
7.96829e-08
2.04561e-09
7.98773e-08
2.05801e-09
8.00732e-08
2.07054e-09
8.02704e-08
2.08319e-09
8.04691e-08
2.09596e-09
8.06692e-08
2.10885e-09
8.08708e-08
2.12185e-09
8.10737e-08
2.13497e-09
8.12781e-08
2.1482e-09
8.14839e-08
2.16155e-09
8.16912e-08
2.17501e-09
8.18999e-08
2.18858e-09
8.211e-08
2.20227e-09
8.23216e-08
2.21609e-09
8.25347e-08
2.23004e-09
8.27491e-08
2.24412e-09
8.29651e-08
2.25835e-09
8.31824e-08
2.27273e-09
8.34012e-08
2.28728e-09
8.36215e-08
2.30201e-09
8.38431e-08
2.31694e-09
8.40662e-08
2.3321e-09
8.42907e-08
2.3475e-09
8.45165e-08
2.36318e-09
8.47438e-08
2.37919e-09
8.49724e-08
2.39557e-09
8.52024e-08
2.41237e-09
8.54338e-08
2.42967e-09
8.56666e-08
2.44754e-09
8.59011e-08
2.46603e-09
2.4851e-09
7.59591e-08
2.20938e-09
-7.57993e-08
7.61258e-08
2.26252e-09
7.62989e-08
2.31238e-09
7.6478e-08
2.35807e-09
7.66624e-08
2.39865e-09
7.68513e-08
2.43327e-09
7.70438e-08
2.46123e-09
7.7239e-08
2.48192e-09
7.74359e-08
2.49486e-09
7.76334e-08
2.49973e-09
7.78304e-08
2.49631e-09
7.80258e-08
2.48459e-09
7.82185e-08
2.4647e-09
7.84074e-08
2.437e-09
7.85916e-08
2.40204e-09
7.87702e-08
2.36059e-09
7.89425e-08
2.31364e-09
7.91081e-08
2.26235e-09
7.9267e-08
2.20802e-09
7.94193e-08
2.15203e-09
7.95656e-08
2.09576e-09
7.97065e-08
2.0405e-09
7.98432e-08
1.98742e-09
7.99766e-08
1.93747e-09
8.01079e-08
1.89136e-09
8.02383e-08
1.84956e-09
8.03688e-08
1.81229e-09
8.05002e-08
1.77956e-09
8.06333e-08
1.75122e-09
8.07686e-08
1.72698e-09
8.09065e-08
1.70649e-09
8.10471e-08
1.68934e-09
8.11908e-08
1.67515e-09
8.13373e-08
1.66352e-09
8.14868e-08
1.65413e-09
8.1639e-08
1.64666e-09
8.1794e-08
1.64088e-09
8.19515e-08
1.63655e-09
8.21115e-08
1.63352e-09
8.22739e-08
1.63163e-09
8.24384e-08
1.63077e-09
8.26052e-08
1.63084e-09
8.27739e-08
1.63177e-09
8.29447e-08
1.63348e-09
8.31174e-08
1.63592e-09
8.32919e-08
1.63903e-09
8.34683e-08
1.64277e-09
8.36464e-08
1.64709e-09
8.38263e-08
1.65196e-09
8.40079e-08
1.65733e-09
8.41912e-08
1.66318e-09
8.43762e-08
1.66947e-09
8.45627e-08
1.67617e-09
8.4751e-08
1.68325e-09
8.49408e-08
1.6907e-09
8.51322e-08
1.69848e-09
8.53252e-08
1.70657e-09
8.55198e-08
1.71495e-09
8.57159e-08
1.72361e-09
8.59136e-08
1.73252e-09
8.61129e-08
1.74166e-09
8.63137e-08
1.75103e-09
8.6516e-08
1.7606e-09
8.67199e-08
1.77037e-09
8.69253e-08
1.78032e-09
8.71323e-08
1.79044e-09
8.73408e-08
1.80073e-09
8.75509e-08
1.81116e-09
8.77625e-08
1.82174e-09
8.79756e-08
1.83246e-09
8.81903e-08
1.84331e-09
8.84066e-08
1.85428e-09
8.86244e-08
1.86537e-09
8.88438e-08
1.87658e-09
8.90647e-08
1.8879e-09
8.92873e-08
1.89933e-09
8.95114e-08
1.91087e-09
8.9737e-08
1.92253e-09
8.99643e-08
1.93428e-09
9.01932e-08
1.94615e-09
9.04236e-08
1.95814e-09
9.06556e-08
1.97023e-09
9.08893e-08
1.98245e-09
9.11245e-08
1.9948e-09
9.13614e-08
2.00728e-09
9.15998e-08
2.0199e-09
9.18399e-08
2.03268e-09
9.20815e-08
2.04562e-09
9.23248e-08
2.05876e-09
9.25696e-08
2.07209e-09
9.28161e-08
2.08566e-09
9.30641e-08
2.09948e-09
9.33137e-08
2.11358e-09
9.35649e-08
2.12802e-09
9.38176e-08
2.14283e-09
9.40719e-08
2.15806e-09
9.43278e-08
2.17377e-09
9.45854e-08
2.18999e-09
9.48446e-08
2.20676e-09
2.22404e-09
8.39156e-08
2.03715e-09
-8.37433e-08
8.4094e-08
2.08404e-09
8.42785e-08
2.12793e-09
8.44685e-08
2.16807e-09
8.46634e-08
2.20368e-09
8.48627e-08
2.23404e-09
8.50654e-08
2.25852e-09
8.52707e-08
2.2766e-09
8.54777e-08
2.28785e-09
8.56854e-08
2.29199e-09
8.58929e-08
2.28885e-09
8.60991e-08
2.2784e-09
8.6303e-08
2.26078e-09
8.65037e-08
2.23629e-09
8.67004e-08
2.20539e-09
8.68922e-08
2.16875e-09
8.70787e-08
2.12716e-09
8.72595e-08
2.08158e-09
8.74344e-08
2.03307e-09
8.76037e-08
1.98274e-09
8.77677e-08
1.93173e-09
8.79271e-08
1.8811e-09
8.80827e-08