/*--------------------------------*- C++ -*----------------------------------*\
| =========                 |                                                 |
| \\      /  F ield         | OpenFOAM: The Open Source CFD Toolbox           |
|  \\    /   O peration     | Version:  2.3.0                                 |
|   \\  /    A nd           | Web:      www.OpenFOAM.org                      |
|    \\/     M anipulation  |                                                 |
\*---------------------------------------------------------------------------*/
FoamFile
{
    version     2.0;
    format      ascii;
    class       surfaceScalarField;
    location    "0.55";
    object      phi_0;
}
// * * * * * * * * * * * * * * * * * * * * * * * * * * * * * * * * * * * * * //

dimensions      [0 3 -1 0 0 0 0];

internalField   nonuniform List<scalar> 
3859
(
2.80019e-08
2.91595e-09
-3.09179e-08
2.51068e-08
2.89513e-09
2.23913e-08
2.71556e-09
1.98901e-08
2.50115e-09
1.76208e-08
2.26927e-09
1.55951e-08
2.02577e-09
1.38156e-08
1.77943e-09
1.22771e-08
1.53858e-09
1.09668e-08
1.31029e-09
9.86641e-09
1.10037e-09
8.95336e-09
9.13048e-10
8.20259e-09
7.50769e-10
7.58849e-09
6.14105e-10
7.08648e-09
5.02006e-10
6.67427e-09
4.12206e-10
6.33258e-09
3.41694e-10
6.04541e-09
2.87166e-10
5.80002e-09
2.45391e-10
5.58656e-09
2.13459e-10
5.39766e-09
1.88906e-10
5.2279e-09
1.69759e-10
5.07339e-09
1.54503e-10
4.93137e-09
1.42021e-10
4.79986e-09
1.31518e-10
4.67741e-09
1.22447e-10
4.56297e-09
1.14441e-10
4.45571e-09
1.07256e-10
4.35498e-09
1.00735e-10
4.2602e-09
9.47737e-11
4.1709e-09
8.93013e-11
4.08664e-09
8.42667e-11
4.00701e-09
7.96303e-11
3.93165e-09
7.53585e-11
3.86023e-09
7.14215e-11
3.79243e-09
6.77916e-11
3.72799e-09
6.44428e-11
3.66664e-09
6.13507e-11
3.60815e-09
5.84924e-11
3.5523e-09
5.58467e-11
3.49891e-09
5.33938e-11
3.44779e-09
5.11158e-11
3.39879e-09
4.89964e-11
3.35177e-09
4.70205e-11
3.3066e-09
4.5175e-11
3.26315e-09
4.34477e-11
3.22132e-09
4.18278e-11
3.18102e-09
4.03057e-11
3.14215e-09
3.88724e-11
3.10463e-09
3.75203e-11
3.06838e-09
3.62421e-11
3.03335e-09
3.50316e-11
2.99947e-09
3.38828e-11
2.96668e-09
3.27907e-11
2.93493e-09
3.17502e-11
2.90417e-09
3.07572e-11
2.87436e-09
2.98076e-11
2.84547e-09
2.88976e-11
2.81744e-09
2.8024e-11
2.79026e-09
2.71836e-11
2.76388e-09
2.63735e-11
2.73829e-09
2.55911e-11
2.71346e-09
2.48338e-11
2.68936e-09
2.40994e-11
2.66597e-09
2.33858e-11
2.64328e-09
2.26909e-11
2.62127e-09
2.2013e-11
2.59992e-09
2.13504e-11
2.57922e-09
2.07014e-11
2.55915e-09
2.00647e-11
2.53972e-09
1.94389e-11
2.52089e-09
1.88228e-11
2.50268e-09
1.82153e-11
2.48506e-09
1.76153e-11
2.46804e-09
1.70221e-11
2.4516e-09
1.64347e-11
2.43575e-09
1.58526e-11
2.42048e-09
1.52752e-11
2.40578e-09
1.4702e-11
2.39164e-09
1.41328e-11
2.37808e-09
1.35674e-11
2.36507e-09
1.30057e-11
2.35262e-09
1.24479e-11
2.34073e-09
1.18944e-11
2.32938e-09
1.13457e-11
2.31858e-09
1.08027e-11
2.30831e-09
1.02667e-11
2.29857e-09
9.73914e-12
2.28935e-09
9.22239e-12
2.28063e-09
8.71908e-12
2.2724e-09
8.23237e-12
2.26463e-09
7.76577e-12
2.25731e-09
7.3229e-12
2.2504e-09
6.90741e-12
2.24388e-09
6.52321e-12
2.2377e-09
6.17623e-12
2.23182e-09
5.87931e-12
2.22616e-09
5.66762e-12
2.22053e-09
5.62587e-12
2.21438e-09
6.15002e-12
1.48798e-11
3.59111e-08
3.19934e-09
-3.61945e-08
3.53027e-08
3.50345e-09
3.44505e-08
3.56781e-09
3.34323e-08
3.51929e-09
3.23053e-08
3.39632e-09
3.11166e-08
3.21446e-09
2.99049e-08
2.99113e-09
2.87e-08
2.74346e-09
2.75241e-08
2.48618e-09
2.6393e-08
2.23149e-09
2.5317e-08
1.98906e-09
2.4302e-08
1.76573e-09
2.33506e-08
1.56552e-09
2.24627e-08
1.38991e-09
2.16365e-08
1.23839e-09
2.08691e-08
1.1091e-09
2.01569e-08
9.99406e-10
1.94958e-08
9.06412e-10
1.8882e-08
8.27286e-10
1.83114e-08
7.59478e-10
1.77804e-08
7.00818e-10
1.72853e-08
6.49536e-10
1.68231e-08
6.04231e-10
1.63908e-08
5.63822e-10
1.59858e-08
5.27482e-10
1.56057e-08
4.94582e-10
1.52483e-08
4.64641e-10
1.49117e-08
4.37288e-10
1.45943e-08
4.12226e-10
1.42944e-08
3.89213e-10
1.40106e-08
3.68046e-10
1.37417e-08
3.48552e-10
1.34864e-08
3.30575e-10
1.32439e-08
3.13978e-10
1.3013e-08
2.98636e-10
1.2793e-08
2.84436e-10
1.25831e-08
2.71276e-10
1.23826e-08
2.59061e-10
1.21907e-08
2.47707e-10
1.20069e-08
2.37136e-10
1.18308e-08
2.27278e-10
1.16617e-08
2.1807e-10
1.14993e-08
2.09455e-10
1.13431e-08
2.0138e-10
1.11927e-08
1.93799e-10
1.10479e-08
1.86669e-10
1.09082e-08
1.79953e-10
1.07735e-08
1.73615e-10
1.06434e-08
1.67625e-10
1.05177e-08
1.61953e-10
1.03961e-08
1.56573e-10
1.02786e-08
1.51462e-10
1.01647e-08
1.46598e-10
1.00545e-08
1.41961e-10
9.94776e-09
1.37532e-10
9.84428e-09
1.33294e-10
9.74394e-09
1.29233e-10
9.64663e-09
1.25332e-10
9.55224e-09
1.21579e-10
9.46065e-09
1.17961e-10
9.37177e-09
1.14467e-10
9.28552e-09
1.11085e-10
9.20182e-09
1.07805e-10
9.12059e-09
1.04618e-10
9.04176e-09
1.01515e-10
8.96529e-09
9.8488e-11
8.89111e-09
9.55289e-11
8.81918e-09
9.26306e-11
8.74946e-09
8.97865e-11
8.68191e-09
8.69903e-11
8.61649e-09
8.42363e-11
8.55319e-09
8.15192e-11
8.49197e-09
7.88342e-11
8.43281e-09
7.61769e-11
8.37571e-09
7.35433e-11
8.32063e-09
7.093e-11
8.26757e-09
6.83341e-11
8.21652e-09
6.57531e-11
8.16747e-09
6.3185e-11
8.1204e-09
6.06286e-11
8.07533e-09
5.8083e-11
8.03223e-09
5.55482e-11
7.9911e-09
5.3025e-11
7.95193e-09
5.05149e-11
7.91471e-09
4.80208e-11
7.87943e-09
4.55467e-11
7.84607e-09
4.3098e-11
7.81461e-09
4.06817e-11
7.78502e-09
3.83063e-11
7.75727e-09
3.59815e-11
7.73132e-09
3.37179e-11
7.70712e-09
3.15267e-11
7.68461e-09
2.94196e-11
7.66372e-09
2.74112e-11
7.64437e-09
2.55249e-11
7.62644e-09
2.38103e-11
7.60972e-09
2.23885e-11
7.59374e-09
2.1599e-11
7.57655e-09
2.33428e-11
3.86878e-11
4.05734e-08
3.0272e-09
-4.04012e-08
4.06629e-08
3.41393e-09
4.06251e-08
3.60567e-09
4.04616e-08
3.68272e-09
4.01804e-08
3.67753e-09
3.97937e-08
3.60122e-09
3.93178e-08
3.46699e-09
3.87705e-08
3.29072e-09
3.8169e-08
3.08769e-09
3.7529e-08
2.87154e-09
3.68642e-08
2.65387e-09
3.61862e-08
2.44375e-09
3.55042e-08
2.24749e-09
3.48254e-08
2.06872e-09
3.41549e-08
1.90884e-09
3.34965e-08
1.76754e-09
3.28525e-08
1.6434e-09
3.22245e-08
1.53443e-09
3.16133e-08
1.43845e-09
3.10195e-08
1.35334e-09
3.04431e-08
1.27722e-09
2.98841e-08
1.20851e-09
2.93424e-08
1.14592e-09
2.88178e-08
1.08845e-09
2.83099e-08
1.03532e-09
2.78186e-08
9.85952e-10
2.73433e-08
9.39888e-10
2.68838e-08
8.96783e-10
2.64397e-08
8.56364e-10
2.60105e-08
8.18411e-10
2.55958e-08
7.82738e-10
2.51952e-08
7.49185e-10
2.48081e-08
7.17608e-10
2.44342e-08
6.87877e-10
2.4073e-08
6.59871e-10
2.3724e-08
6.33478e-10
2.33866e-08
6.08593e-10
2.30606e-08
5.85115e-10
2.27453e-08
5.62952e-10
2.24405e-08
5.42017e-10
2.21455e-08
5.22226e-10
2.18601e-08
5.03504e-10
2.15838e-08
4.85778e-10
2.13162e-08
4.6898e-10
2.10569e-08
4.53048e-10
2.08056e-08
4.37923e-10
2.0562e-08
4.2355e-10
2.03258e-08
4.09877e-10
2.00966e-08
3.96856e-10
1.98741e-08
3.84441e-10
1.96581e-08
3.72591e-10
1.94482e-08
3.61265e-10
1.92444e-08
3.50427e-10
1.90463e-08
3.40041e-10
1.88538e-08
3.30074e-10
1.86666e-08
3.20496e-10
1.84845e-08
3.11277e-10
1.83075e-08
3.02389e-10
1.81353e-08
2.93807e-10
1.79677e-08
2.85505e-10
1.78047e-08
2.77461e-10
1.76462e-08
2.69653e-10
1.74919e-08
2.6206e-10
1.73419e-08
2.54662e-10
1.71959e-08
2.47441e-10
1.7054e-08
2.40379e-10
1.69161e-08
2.3346e-10
1.67821e-08
2.26669e-10
1.66519e-08
2.1999e-10
1.65255e-08
2.13409e-10
1.64028e-08
2.06915e-10
1.62838e-08
2.00495e-10
1.61685e-08
1.94138e-10
1.60568e-08
1.87833e-10
1.59488e-08
1.81572e-10
1.58444e-08
1.75346e-10
1.57436e-08
1.69147e-10
1.56464e-08
1.62971e-10
1.55527e-08
1.56811e-10
1.54627e-08
1.50665e-10
1.53763e-08
1.44528e-10
1.52934e-08
1.38402e-10
1.52141e-08
1.32285e-10
1.51385e-08
1.26183e-10
1.50664e-08
1.20098e-10
1.49979e-08
1.14039e-10
1.4933e-08
1.08017e-10
1.48716e-08
1.02044e-10
1.48138e-08
9.61367e-11
1.47595e-08
9.03135e-11
1.47086e-08
8.45953e-11
1.46611e-08
7.90047e-11
1.4617e-08
7.35682e-11
1.4576e-08
6.83203e-11
1.45383e-08
6.33164e-11
1.45034e-08
5.86653e-11
1.44712e-08
5.46156e-11
1.44409e-08
5.18781e-11
1.44107e-08
5.35809e-11
7.0541e-11
4.50678e-08
2.81486e-09
-4.48554e-08
4.52969e-08
3.18477e-09
4.54913e-08
3.41134e-09
4.56348e-08
3.53916e-09
4.57185e-08
3.5939e-09
4.57354e-08
3.58432e-09
4.56835e-08
3.51886e-09
4.55651e-08
3.40913e-09
4.53852e-08
3.26753e-09
4.51509e-08
3.10583e-09
4.48702e-08
2.93456e-09
4.45515e-08
2.76253e-09
4.42025e-08
2.59645e-09
4.38304e-08
2.4408e-09
4.34412e-08
2.29804e-09
4.30397e-08
2.169e-09
4.26298e-08
2.05331e-09
4.22144e-08
1.94989e-09
4.17956e-08
1.85728e-09
4.1375e-08
1.7739e-09
4.09539e-08
1.69828e-09
4.05333e-08
1.6291e-09
4.0114e-08
1.56528e-09
3.96965e-08
1.50592e-09
3.92815e-08
1.45035e-09
3.88694e-08
1.39802e-09
3.84608e-08
1.34854e-09
3.80559e-08
1.30161e-09
3.76553e-08
1.257e-09
3.72592e-08
1.21451e-09
3.68679e-08
1.17401e-09
3.64817e-08
1.13537e-09
3.61008e-08
1.09848e-09
3.57255e-08
1.06325e-09
3.53558e-08
1.02959e-09
3.49918e-08
9.97418e-10
3.46338e-08
9.66652e-10
3.42816e-08
9.37221e-10
3.39355e-08
9.09056e-10
3.35955e-08
8.82088e-10
3.32614e-08
8.56255e-10
3.29335e-08
8.31495e-10
3.26115e-08
8.07751e-10
3.22955e-08
7.84968e-10
3.19854e-08
7.63093e-10
3.16813e-08
7.42077e-10
3.1383e-08
7.2187e-10
3.10904e-08
7.02429e-10
3.08036e-08
6.83709e-10
3.05223e-08
6.65668e-10
3.02467e-08
6.48267e-10
2.99765e-08
6.31468e-10
2.97117e-08
6.15233e-10
2.94522e-08
5.99527e-10
2.91979e-08
5.84316e-10
2.89489e-08
5.69567e-10
2.87049e-08
5.55249e-10
2.84659e-08
5.41331e-10
2.8232e-08
5.27784e-10
2.80029e-08
5.14579e-10
2.77787e-08
5.01688e-10
2.75592e-08
4.89085e-10
2.73445e-08
4.76745e-10
2.71346e-08
4.64642e-10
2.69293e-08
4.52753e-10
2.67286e-08
4.41054e-10
2.65325e-08
4.29524e-10
2.6341e-08
4.18141e-10
2.61541e-08
4.06885e-10
2.59718e-08
3.95736e-10
2.57941e-08
3.84676e-10
2.56209e-08
3.73687e-10
2.54523e-08
3.62753e-10
2.52882e-08
3.51858e-10
2.51288e-08
3.40989e-10
2.4974e-08
3.30133e-10
2.48239e-08
3.19278e-10
2.46784e-08
3.08416e-10
2.45377e-08
2.97536e-10
2.44018e-08
2.86635e-10
2.42706e-08
2.75708e-10
2.41442e-08
2.64753e-10
2.40227e-08
2.53773e-10
2.39061e-08
2.4277e-10
2.37945e-08
2.31755e-10
2.36878e-08
2.20738e-10
2.35861e-08
2.09736e-10
2.34893e-08
1.9877e-10
2.33976e-08
1.87865e-10
2.33109e-08
1.77051e-10
2.32291e-08
1.66362e-10
2.31523e-08
1.55838e-10
2.30803e-08
1.45526e-10
2.30132e-08
1.3549e-10
2.29506e-08
1.25833e-10
2.28926e-08
1.16736e-10
2.28386e-08
1.08587e-10
2.27881e-08
1.02411e-10
2.274e-08
1.0162e-10
1.14498e-10
4.99413e-08
2.63099e-09
-4.97574e-08
5.0169e-08
2.957e-09
5.03988e-08
3.18158e-09
5.06139e-08
3.32405e-09
5.0805e-08
3.40283e-09
5.09631e-08
3.42626e-09
5.10812e-08
3.40076e-09
5.11555e-08
3.33483e-09
5.11849e-08
3.23809e-09
5.11707e-08
3.12005e-09
5.11158e-08
2.98941e-09
5.10246e-08
2.85377e-09
5.09018e-08
2.71922e-09
5.07525e-08
2.59017e-09
5.05811e-08
2.46941e-09
5.03918e-08
2.35835e-09
5.01877e-08
2.25732e-09
4.99718e-08
2.16588e-09
4.97459e-08
2.08318e-09
4.95116e-08
2.00815e-09
4.92702e-08
1.93967e-09
4.90226e-08
1.87671e-09
4.87695e-08
1.81837e-09
4.85115e-08
1.7639e-09
4.82492e-08
1.71268e-09
4.7983e-08
1.66425e-09
4.77133e-08
1.61823e-09
4.74406e-08
1.57434e-09
4.71652e-08
1.53237e-09
4.68875e-08
1.49216e-09
4.6608e-08
1.45357e-09
4.63269e-08
1.4165e-09
4.60445e-08
1.38085e-09
4.57612e-08
1.34655e-09
4.54772e-08
1.31354e-09
4.51929e-08
1.28173e-09
4.49085e-08
1.25108e-09
4.46242e-08
1.22153e-09
4.43402e-08
1.19302e-09
4.40568e-08
1.1655e-09
4.37742e-08
1.13891e-09
4.34924e-08
1.11322e-09
4.32118e-08
1.08838e-09
4.29324e-08
1.06434e-09
4.26545e-08
1.04106e-09
4.2378e-08
1.0185e-09
4.21033e-08
9.96617e-10
4.18304e-08
9.75379e-10
4.15593e-08
9.54748e-10
4.12903e-08
9.34687e-10
4.10234e-08
9.15163e-10
4.07587e-08
8.96143e-10
4.04964e-08
8.77595e-10
4.02364e-08
8.59487e-10
3.99789e-08
8.41788e-10
3.9724e-08
8.24468e-10
3.94718e-08
8.07499e-10
3.92223e-08
7.90851e-10
3.89755e-08
7.74496e-10
3.87317e-08
7.58407e-10
3.84908e-08
7.42556e-10
3.8253e-08
7.26917e-10
3.80183e-08
7.11464e-10
3.77868e-08
6.96171e-10
3.75585e-08
6.81014e-10
3.73336e-08
6.65967e-10
3.71121e-08
6.51007e-10
3.68941e-08
6.3611e-10
3.66798e-08
6.21255e-10
3.64691e-08
6.06418e-10
3.62622e-08
5.91579e-10
3.60592e-08
5.76717e-10
3.58601e-08
5.61815e-10
3.56651e-08
5.46853e-10
3.54743e-08
5.31815e-10
3.52877e-08
5.16686e-10
3.51055e-08
5.01452e-10
3.49279e-08
4.86103e-10
3.47548e-08
4.7063e-10
3.45864e-08
4.55024e-10
3.44228e-08
4.39284e-10
3.42641e-08
4.23408e-10
3.41105e-08
4.07399e-10
3.3962e-08
3.91267e-10
3.38188e-08
3.75022e-10
3.36808e-08
3.58683e-10
3.35483e-08
3.42275e-10
3.34212e-08
3.25826e-10
3.32997e-08
3.09374e-10
3.31838e-08
2.92962e-10
3.30735e-08
2.7664e-10
3.29689e-08
2.6047e-10
3.28699e-08
2.44526e-10
3.27765e-08
2.2891e-10
3.26885e-08
2.13774e-10
3.26059e-08
1.99374e-10
3.25283e-08
1.86202e-10
3.24553e-08
1.75369e-10
3.23873e-08
1.69609e-10
1.7281e-10
5.53182e-08
2.47737e-09
-5.51646e-08
5.55198e-08
2.75546e-09
5.57373e-08
2.96404e-09
5.59541e-08
3.1073e-09
5.6161e-08
3.19592e-09
5.63503e-08
3.23689e-09
5.65156e-08
3.23554e-09
5.66521e-08
3.19829e-09
5.67575e-08
3.13265e-09
5.68313e-08
3.04625e-09
5.68745e-08
2.94627e-09
5.68892e-08
2.83907e-09
5.68785e-08
2.72996e-09
5.68456e-08
2.62298e-09
5.67941e-08
2.52095e-09
5.67269e-08
2.42554e-09
5.66467e-08
2.33749e-09
5.65558e-08
2.25685e-09
5.64557e-08
2.18324e-09
5.63479e-08
2.11599e-09
5.62332e-08
2.05434e-09
5.61124e-08
1.99751e-09
5.5986e-08
1.9448e-09
5.58543e-08
1.89557e-09
5.57177e-08
1.84931e-09
5.55763e-08
1.8056e-09
5.54305e-08
1.76409e-09
5.52803e-08
1.72453e-09
5.51259e-08
1.68671e-09
5.49676e-08
1.65046e-09
5.48055e-08
1.61565e-09
5.46399e-08
1.58219e-09
5.44707e-08
1.54998e-09
5.42983e-08
1.51894e-09
5.41229e-08
1.48902e-09
5.39445e-08
1.46014e-09
5.37633e-08
1.43225e-09
5.35795e-08
1.4053e-09
5.33933e-08
1.37924e-09
5.32048e-08
1.35402e-09
5.30141e-08
1.32959e-09
5.28214e-08
1.30591e-09
5.26268e-08
1.28294e-09
5.24306e-08
1.26063e-09
5.22327e-08
1.23895e-09
5.20333e-08
1.21786e-09
5.18326e-08
1.19731e-09
5.16307e-08
1.17728e-09
5.14277e-08
1.15773e-09
5.12238e-08
1.13863e-09
5.1019e-08
1.11994e-09
5.08135e-08
1.10162e-09
5.06075e-08
1.08366e-09
5.04009e-08
1.06601e-09
5.01941e-08
1.04864e-09
4.9987e-08
1.03153e-09
4.97799e-08
1.01465e-09
4.95728e-08
9.97957e-10
4.93658e-08
9.81435e-10
4.91592e-08
9.6505e-10
4.8953e-08
9.48774e-10
4.87473e-08
9.32579e-10
4.85423e-08
9.16436e-10
4.83382e-08
9.00318e-10
4.8135e-08
8.84198e-10
4.79329e-08
8.68049e-10
4.77321e-08
8.51843e-10
4.75326e-08
8.35555e-10
4.73347e-08
8.1916e-10
4.71385e-08
8.02631e-10
4.69442e-08
7.85946e-10
4.67518e-08
7.69081e-10
4.65616e-08
7.52014e-10
4.63737e-08
7.34724e-10
4.61883e-08
7.17191e-10
4.60056e-08
6.99399e-10
4.58258e-08
6.81331e-10
4.56489e-08
6.62974e-10
4.54752e-08
6.44318e-10
4.53049e-08
6.25355e-10
4.51381e-08
6.06083e-10
4.4975e-08
5.865e-10
4.48158e-08
5.66614e-10
4.46606e-08
5.46434e-10
4.45096e-08
5.25978e-10
4.43631e-08
5.05269e-10
4.4221e-08
4.84339e-10
4.40836e-08
4.63228e-10
4.3951e-08
4.41984e-10
4.38233e-08
4.20665e-10
4.37006e-08
3.99339e-10
4.3583e-08
3.7809e-10
4.34705e-08
3.57024e-10
4.33631e-08
3.36279e-10
4.32608e-08
3.16054e-10
4.31635e-08
2.96658e-10
4.30711e-08
2.7861e-10
4.29837e-08
2.62838e-10
4.29025e-08
2.50779e-10
2.41623e-10
6.12604e-08
2.34683e-09
-6.11299e-08
6.1435e-08
2.58087e-09
6.16309e-08
2.76808e-09
6.18326e-08
2.90567e-09
6.20305e-08
2.99802e-09
6.22175e-08
3.04983e-09
6.23878e-08
3.06526e-09
6.2537e-08
3.04912e-09
6.26625e-08
3.00714e-09
6.27634e-08
2.94536e-09
6.284e-08
2.86962e-09
6.28939e-08
2.78523e-09
6.29271e-08
2.69673e-09
6.29423e-08
2.60777e-09
6.29422e-08
2.52103e-09
6.29295e-08
2.4383e-09
6.29063e-08
2.36062e-09
6.28748e-08
2.2884e-09
6.28364e-08
2.22162e-09
6.27924e-08
2.15999e-09
6.27437e-08
2.10306e-09
6.26909e-08
2.05031e-09
6.26345e-08
2.00123e-09
6.25747e-08
1.95534e-09
6.25118e-08
1.91222e-09
6.24459e-08
1.87152e-09
6.2377e-08
1.83294e-09
6.23053e-08
1.79626e-09
6.22307e-08
1.76127e-09
6.21533e-08
1.72782e-09
6.20732e-08
1.69579e-09
6.19903e-08
1.66507e-09
6.19047e-08
1.63558e-09
6.18164e-08
1.60723e-09
6.17255e-08
1.57995e-09
6.16319e-08
1.5537e-09
6.15358e-08
1.5284e-09
6.14371e-08
1.504e-09
6.13359e-08
1.48046e-09
6.12322e-08
1.45772e-09
6.1126e-08
1.43574e-09
6.10175e-08
1.41446e-09
6.09066e-08
1.39385e-09
6.07933e-08
1.37386e-09
6.06778e-08
1.35445e-09
6.05601e-08
1.33559e-09
6.04402e-08
1.31722e-09
6.03182e-08
1.29931e-09
6.01941e-08
1.28183e-09
6.00679e-08
1.26474e-09
5.99399e-08
1.248e-09
5.98099e-08
1.23157e-09
5.96782e-08
1.21543e-09
5.95446e-08
1.19953e-09
5.94094e-08
1.18384e-09
5.92726e-08
1.16833e-09
5.91343e-08
1.15297e-09
5.89945e-08
1.13771e-09
5.88534e-08
1.12254e-09
5.87111e-08
1.10741e-09
5.85676e-08
1.09229e-09
5.8423e-08
1.07715e-09
5.82775e-08
1.06196e-09
5.81311e-08
1.04668e-09
5.7984e-08
1.03128e-09
5.78363e-08
1.01574e-09
5.76882e-08
1.00001e-09
5.75396e-08
9.84075e-10
5.73909e-08
9.67894e-10
5.72421e-08
9.5144e-10
5.70934e-08
9.34685e-10
5.69448e-08
9.17599e-10
5.67967e-08
9.00155e-10
5.66491e-08
8.82329e-10
5.65022e-08
8.64095e-10
5.63562e-08
8.45432e-10
5.62112e-08
8.2632e-10
5.60674e-08
8.06742e-10
5.5925e-08
7.86685e-10
5.57843e-08
7.66138e-10
5.56452e-08
7.45096e-10
5.55082e-08
7.23559e-10
5.53733e-08
7.01532e-10
5.52407e-08
6.79027e-10
5.51106e-08
6.56064e-10
5.49832e-08
6.32669e-10
5.48586e-08
6.08881e-10
5.47371e-08
5.84747e-10
5.46188e-08
5.60323e-10
5.45038e-08
5.35682e-10
5.43922e-08
5.10909e-10
5.42842e-08
4.86107e-10
5.41798e-08
4.61409e-10
5.40791e-08
4.36986e-10
5.39821e-08
4.13069e-10
5.38887e-08
3.89986e-10
5.37992e-08
3.68201e-10
5.37137e-08
3.48303e-10
5.3634e-08
3.30452e-10
3.11106e-10
6.7825e-08
2.2339e-09
-6.77121e-08
6.79756e-08
2.43029e-09
6.81486e-08
2.59503e-09
6.8331e-08
2.72328e-09
6.85135e-08
2.81551e-09
6.86893e-08
2.87408e-09
6.88527e-08
2.90185e-09
6.89996e-08
2.90226e-09
6.91272e-08
2.87953e-09
6.92343e-08
2.83827e-09
6.93208e-08
2.78309e-09
6.93877e-08
2.71833e-09
6.94366e-08
2.64779e-09
6.94697e-08
2.57467e-09
6.94893e-08
2.50147e-09
6.94976e-08
2.42998e-09
6.94968e-08
2.36141e-09
6.94888e-08
2.29644e-09
6.94751e-08
2.23535e-09
6.94569e-08
2.17815e-09
6.94353e-08
2.12468e-09
6.94109e-08
2.07466e-09
6.93844e-08
2.02778e-09
6.9356e-08
1.98372e-09
6.9326e-08
1.94218e-09
6.92947e-08
1.90289e-09
6.9262e-08
1.86562e-09
6.92281e-08
1.83018e-09
6.9193e-08
1.7964e-09
6.91566e-08
1.76416e-09
6.91191e-08
1.73334e-09
6.90803e-08
1.70384e-09
6.90403e-08
1.67558e-09
6.8999e-08
1.64849e-09
6.89565e-08
1.62249e-09
6.89127e-08
1.59754e-09
6.88675e-08
1.57358e-09
6.88209e-08
1.55054e-09
6.8773e-08
1.52839e-09
6.87237e-08
1.50706e-09
6.86729e-08
1.48652e-09
6.86206e-08
1.46671e-09
6.85669e-08
1.44759e-09
6.85117e-08
1.42912e-09
6.84549e-08
1.41124e-09
6.83965e-08
1.39393e-09
6.83366e-08
1.37714e-09
6.82751e-08
1.36082e-09
6.8212e-08
1.34493e-09
6.81473e-08
1.32944e-09
6.8081e-08
1.31431e-09
6.80131e-08
1.29949e-09
6.79436e-08
1.28495e-09
6.78724e-08
1.27066e-09
6.77997e-08
1.25656e-09
6.77254e-08
1.24263e-09
6.76496e-08
1.22882e-09
6.75722e-08
1.21511e-09
6.74933e-08
1.20144e-09
6.74129e-08
1.18779e-09
6.73311e-08
1.17411e-09
6.72478e-08
1.16037e-09
6.71633e-08
1.14654e-09
6.70774e-08
1.13257e-09
6.69902e-08
1.11842e-09
6.69019e-08
1.10406e-09
6.68125e-08
1.08945e-09
6.6722e-08
1.07456e-09
6.66305e-08
1.05935e-09
6.65382e-08
1.04378e-09
6.6445e-08
1.02782e-09
6.63512e-08
1.01144e-09
6.62568e-08
9.9459e-10
6.61618e-08
9.77254e-10
6.60665e-08
9.59397e-10
6.5971e-08
9.40994e-10
6.58753e-08
9.22018e-10
6.57796e-08
9.02448e-10
6.5684e-08
8.82265e-10
6.55887e-08
8.61457e-10
6.54938e-08
8.40014e-10
6.53994e-08
8.17932e-10
6.53057e-08
7.95216e-10
6.52129e-08
7.71877e-10
6.5121e-08
7.47933e-10
6.50302e-08
7.23415e-10
6.49408e-08
6.98362e-10
6.48527e-08
6.72826e-10
6.47661e-08
6.46872e-10
6.46812e-08
6.2058e-10
6.45981e-08
5.94048e-10
6.45168e-08
5.67397e-10
6.44374e-08
5.40779e-10
6.436e-08
5.14386e-10
6.42846e-08
4.88464e-10
6.42113e-08
4.6333e-10
6.41401e-08
4.39354e-10
6.40716e-08
4.16816e-10
6.40069e-08
3.95194e-10
3.70934e-10
6.7988e-08
2.14356e-09
-6.78977e-08
6.81069e-08
2.3114e-09
6.82452e-08
2.45678e-09
6.83935e-08
2.57496e-09
6.85443e-08
2.66466e-09
6.86918e-08
2.72661e-09
6.88311e-08
2.76253e-09
6.89585e-08
2.77483e-09
6.90715e-08
2.76655e-09
6.91686e-08
2.74115e-09
6.92495e-08
2.70225e-09
6.93145e-08
2.65334e-09
6.93647e-08
2.5976e-09
6.94016e-08
2.53777e-09
6.94269e-08
2.47612e-09
6.94425e-08
2.41438e-09
6.94501e-08
2.35383e-09
6.94512e-08
2.29528e-09
6.94473e-08
2.23924e-09
6.94396e-08
2.18594e-09
6.94288e-08
2.13543e-09
6.94158e-08
2.08762e-09
6.94012e-08
2.04239e-09
6.93854e-08
1.99954e-09
6.93687e-08
1.9589e-09
6.93513e-08
1.92028e-09
6.93334e-08
1.88353e-09
6.93151e-08
1.84849e-09
6.92964e-08
1.81505e-09
6.92775e-08
1.78309e-09
6.92583e-08
1.75252e-09
6.92389e-08
1.72326e-09
6.92193e-08
1.69524e-09
6.91993e-08
1.6684e-09
6.91792e-08
1.64267e-09
6.91587e-08
1.618e-09
6.9138e-08
1.59434e-09
6.91169e-08
1.57164e-09
6.90954e-08
1.54984e-09
6.90736e-08
1.52891e-09
6.90513e-08
1.50879e-09
6.90286e-08
1.48944e-09
6.90053e-08
1.47081e-09
6.89816e-08
1.45286e-09
6.89573e-08
1.43555e-09
6.89324e-08
1.41883e-09
6.89069e-08
1.40266e-09
6.88807e-08
1.387e-09
6.88538e-08
1.37181e-09
6.88262e-08
1.35704e-09
6.87979e-08
1.34265e-09
6.87687e-08
1.32861e-09
6.87388e-08
1.31487e-09
6.87081e-08
1.3014e-09
6.86765e-08
1.28815e-09
6.86441e-08
1.27507e-09
6.86107e-08
1.26214e-09
6.85765e-08
1.24932e-09
6.85414e-08
1.23655e-09
6.85054e-08
1.2238e-09
6.84685e-08
1.21103e-09
6.84306e-08
1.19821e-09
6.83919e-08
1.18528e-09
6.83523e-08
1.17221e-09
6.83117e-08
1.15895e-09
6.82703e-08
1.14547e-09
6.82281e-08
1.13173e-09
6.81849e-08
1.11768e-09
6.8141e-08
1.10328e-09
6.80963e-08
1.0885e-09
6.80508e-08
1.07329e-09
6.80046e-08
1.05763e-09
6.79578e-08
1.04145e-09
6.79103e-08
1.02475e-09
6.78622e-08
1.00747e-09
6.78136e-08
9.89594e-10
6.77645e-08
9.71086e-10
6.7715e-08
9.51922e-10
6.76652e-08
9.3208e-10
6.76151e-08
9.11543e-10
6.75649e-08
8.903e-10
6.75144e-08
8.68344e-10
6.7464e-08
8.45677e-10
6.74136e-08
8.22309e-10
6.73632e-08
7.98259e-10
6.73131e-08
7.73556e-10
6.72632e-08
7.48241e-10
6.72137e-08
7.22369e-10
6.71645e-08
6.96009e-10
6.71159e-08
6.69248e-10
6.70677e-08
6.42191e-10
6.70201e-08
6.14972e-10
6.69732e-08
5.87751e-10
6.69268e-08
5.60733e-10
6.68811e-08
5.34166e-10
6.68361e-08
5.08343e-10
6.67919e-08
4.83563e-10
6.67488e-08
4.59965e-10
6.67069e-08
4.37005e-10
4.12424e-10
7.52269e-08
2.06302e-09
-7.51464e-08
7.53311e-08
2.20724e-09
7.54526e-08
2.33522e-09
7.55846e-08
2.44301e-09
7.57206e-08
2.52867e-09
7.58553e-08
2.59192e-09
7.59842e-08
2.63357e-09
7.61039e-08
2.65511e-09
7.62119e-08
2.65864e-09
7.63064e-08
2.64665e-09
7.63867e-08
2.62188e-09
7.6453e-08
2.58703e-09
7.65059e-08
2.5447e-09
7.65465e-08
2.49718e-09
7.65762e-08
2.44647e-09
7.65964e-08
2.39418e-09
7.66087e-08
2.34155e-09
7.66144e-08
2.28951e-09
7.6615e-08
2.23868e-09
7.66115e-08
2.18946e-09
7.66048e-08
2.14208e-09
7.65958e-08
2.09664e-09
7.65851e-08
2.05314e-09
7.65731e-08
2.01154e-09
7.65602e-08
1.97177e-09
7.65467e-08
1.93372e-09
7.65329e-08
1.89732e-09
7.6519e-08
1.86248e-09
7.65049e-08
1.82911e-09
7.64908e-08
1.79713e-09
7.64769e-08
1.76649e-09
7.6463e-08
1.73711e-09
7.64493e-08
1.70894e-09
7.64358e-08
1.68193e-09
7.64225e-08
1.65602e-09
7.64093e-08
1.63118e-09
7.63963e-08
1.60735e-09
7.63834e-08
1.58448e-09
7.63707e-08
1.56254e-09
7.63582e-08
1.54148e-09
7.63457e-08
1.52126e-09
7.63333e-08
1.50182e-09
7.6321e-08
1.48314e-09
7.63087e-08
1.46516e-09
7.62964e-08
1.44785e-09
7.6284e-08
1.43115e-09
7.62717e-08
1.41504e-09
7.62592e-08
1.39946e-09
7.62466e-08
1.38438e-09
7.62339e-08
1.36975e-09
7.6221e-08
1.35553e-09
7.6208e-08
1.34168e-09
7.61947e-08
1.32817e-09
7.61811e-08
1.31494e-09
7.61673e-08
1.30196e-09
7.61532e-08
1.28918e-09
7.61388e-08
1.27657e-09
7.6124e-08
1.26409e-09
7.61089e-08
1.25168e-09
7.60934e-08
1.23932e-09
7.60775e-08
1.22695e-09
7.60611e-08
1.21454e-09
7.60444e-08
1.20204e-09
7.60272e-08
1.18941e-09
7.60095e-08
1.17661e-09
7.59914e-08
1.16359e-09
7.59728e-08
1.15032e-09
7.59537e-08
1.13675e-09
7.59342e-08
1.12283e-09
7.59141e-08
1.10853e-09
7.58936e-08
1.0938e-09
7.58727e-08
1.0786e-09
7.58512e-08
1.0629e-09
7.58293e-08
1.04665e-09
7.5807e-08
1.02982e-09
7.57842e-08
1.01238e-09
7.5761e-08
9.94292e-10
7.57374e-08
9.7553e-10
7.57134e-08
9.5607e-10
7.5689e-08
9.35893e-10
7.56643e-08
9.14987e-10
7.56393e-08
8.93343e-10
7.5614e-08
8.70962e-10
7.55885e-08
8.47853e-10
7.55627e-08
8.24036e-10
7.55367e-08
7.99539e-10
7.55106e-08
7.74405e-10
7.54843e-08
7.4869e-10
7.54578e-08
7.22468e-10
7.54312e-08
6.95828e-10
7.54045e-08
6.68883e-10
7.53777e-08
6.41773e-10
7.53508e-08
6.14666e-10
7.53238e-08
5.87768e-10
7.52966e-08
5.61324e-10
7.52694e-08
5.35608e-10
7.5242e-08
5.10884e-10
7.52147e-08
4.87288e-10
7.51871e-08
4.64573e-10
4.42018e-10
8.32224e-08
1.99194e-09
-8.31513e-08
8.33127e-08
2.11693e-09
8.3418e-08
2.22991e-09
8.35332e-08
2.32779e-09
8.36532e-08
2.40863e-09
8.37735e-08
2.47163e-09
8.38902e-08
2.51693e-09
8.39999e-08
2.54534e-09
8.41004e-08
2.55819e-09
8.41898e-08
2.5572e-09
8.42674e-08
2.54434e-09
8.43327e-08
2.52166e-09
8.43863e-08
2.49119e-09
8.44286e-08
2.45482e-09
8.44609e-08
2.41423e-09
8.44842e-08
2.37087e-09
8.44998e-08
2.32593e-09
8.45089e-08
2.28034e-09
8.45128e-08
2.23482e-09
8.45124e-08
2.18987e-09
8.45086e-08
2.14585e-09
8.45023e-08
2.103e-09
8.4494e-08
2.06145e-09
8.44842e-08
2.02129e-09
8.44735e-08
1.98253e-09
8.4462e-08
1.94518e-09
8.44501e-08
1.90921e-09
8.4438e-08
1.8746e-09
8.44258e-08
1.8413e-09
8.44136e-08
1.80928e-09
8.44016e-08
1.7785e-09
8.43898e-08
1.74893e-09
8.43782e-08
1.72051e-09
8.4367e-08
1.69321e-09
8.4356e-08
1.667e-09
8.43453e-08
1.64183e-09
8.4335e-08
1.61766e-09
8.4325e-08
1.59446e-09
8.43154e-08
1.57218e-09
8.43061e-08
1.55079e-09
8.42971e-08
1.53025e-09
8.42884e-08
1.5105e-09
8.428e-08
1.49152e-09
8.42719e-08
1.47326e-09
8.42641e-08
1.45569e-09
8.42565e-08
1.43875e-09
8.42491e-08
1.4224e-09
8.4242e-08
1.40662e-09
8.4235e-08
1.39134e-09
8.42282e-08
1.37655e-09
8.42216e-08
1.36218e-09
8.4215e-08
1.34821e-09
8.42086e-08
1.33458e-09
8.42023e-08
1.32126e-09
8.41961e-08
1.30821e-09
8.41899e-08
1.29539e-09
8.41837e-08
1.28274e-09
8.41775e-08
1.27024e-09
8.41714e-08
1.25784e-09
8.41652e-08
1.2455e-09
8.4159e-08
1.23317e-09
8.41527e-08
1.22081e-09
8.41463e-08
1.20839e-09
8.41399e-08
1.19584e-09
8.41334e-08
1.18314e-09
8.41267e-08
1.17024e-09
8.41199e-08
1.1571e-09
8.4113e-08
1.14366e-09
8.4106e-08
1.1299e-09
8.40987e-08
1.11576e-09
8.40913e-08
1.10121e-09
8.40837e-08
1.0862e-09
8.40759e-08
1.07069e-09
8.4068e-08
1.05464e-09
8.40598e-08
1.03803e-09
8.40513e-08
1.0208e-09
8.40427e-08
1.00294e-09
8.40338e-08
9.84414e-10
8.40247e-08
9.65194e-10
8.40153e-08
9.45264e-10
8.40057e-08
9.2461e-10
8.39958e-08
9.03225e-10
8.39856e-08
8.8111e-10
8.39752e-08
8.58274e-10
8.39645e-08
8.34737e-10
8.39535e-08
8.1053e-10
8.39422e-08
7.85697e-10
8.39306e-08
7.60296e-10
8.39187e-08
7.34404e-10
8.39064e-08
7.08115e-10
8.38938e-08
6.81546e-10
8.38807e-08
6.5484e-10
8.38672e-08
6.28172e-10
8.38532e-08
6.01747e-10
8.38387e-08
5.75806e-10
8.38237e-08
5.50616e-10
8.38082e-08
5.2644e-10
8.3792e-08
5.03491e-10
8.37746e-08
4.81879e-10
4.61946e-10
9.20545e-08
1.93062e-09
-9.19932e-08
9.21312e-08
2.04026e-09
9.22203e-08
2.14076e-09
9.23183e-08
2.22981e-09
9.24213e-08
2.30568e-09
9.25255e-08
2.36741e-09
9.26277e-08
2.41472e-09
9.27251e-08
2.44794e-09
9.28154e-08
2.46783e-09
9.28972e-08
2.47549e-09
9.29692e-08
2.4723e-09
9.30311e-08
2.45974e-09
9.30829e-08
2.43938e-09
9.3125e-08
2.41271e-09
9.31581e-08
2.38114e-09
9.31831e-08
2.34592e-09
9.32009e-08
2.30813e-09
9.32125e-08
2.26869e-09
9.3219e-08
2.22833e-09
9.32212e-08
2.18764e-09
9.322e-08
2.14706e-09
9.32161e-08
2.10694e-09
9.321e-08
2.06751e-09
9.32024e-08
2.02894e-09
9.31936e-08
1.99136e-09
9.31839e-08
1.95485e-09
9.31737e-08
1.91944e-09
9.31631e-08
1.88516e-09
9.31524e-08
1.85203e-09
9.31416e-08
1.82004e-09
9.31309e-08
1.78919e-09
9.31204e-08
1.75945e-09
9.31101e-08
1.73081e-09
9.31001e-08
1.70325e-09
9.30903e-08
1.67673e-09
9.30809e-08
1.65123e-09
9.30719e-08
1.62672e-09
9.30632e-08
1.60316e-09
9.30548e-08
1.58052e-09
9.30469e-08
1.55876e-09
9.30392e-08
1.53785e-09
9.3032e-08
1.51775e-09
9.30251e-08
1.49842e-09
9.30186e-08
1.47982e-09
9.30123e-08
1.4619e-09
9.30064e-08
1.44464e-09
9.30009e-08
1.42799e-09
9.29956e-08
1.4119e-09
9.29906e-08
1.39635e-09
9.29858e-08
1.38127e-09
9.29814e-08
1.36665e-09
9.29771e-08
1.35243e-09
9.29732e-08
1.33857e-09
9.29694e-08
1.32504e-09
9.29658e-08
1.31178e-09
9.29624e-08
1.29877e-09
9.29592e-08
1.28594e-09
9.29562e-08
1.27328e-09
9.29533e-08
1.26073e-09
9.29506e-08
1.24824e-09
9.2948e-08
1.23578e-09
9.29455e-08
1.22331e-09
9.29431e-08
1.21078e-09
9.29408e-08
1.19814e-09
9.29385e-08
1.18536e-09
9.29364e-08
1.1724e-09
9.29343e-08
1.15919e-09
9.29322e-08
1.14572e-09
9.29302e-08
1.13192e-09
9.29282e-08
1.11776e-09
9.29262e-08
1.1032e-09
9.29242e-08
1.0882e-09
9.29222e-08
1.07271e-09
9.29201e-08
1.05669e-09
9.29181e-08
1.04012e-09
9.29159e-08
1.02296e-09
9.29137e-08
1.00517e-09
9.29114e-08
9.86733e-10
9.29089e-08
9.67619e-10
9.29064e-08
9.47813e-10
9.29037e-08
9.273e-10
9.29008e-08
9.06077e-10
9.28978e-08
8.84144e-10
9.28946e-08
8.61512e-10
9.28911e-08
8.38203e-10
9.28874e-08
8.1425e-10
9.28834e-08
7.897e-10
9.28791e-08
7.64613e-10
9.28744e-08
7.39069e-10
9.28693e-08
7.13167e-10
9.28639e-08
6.87027e-10
9.28579e-08
6.60796e-10
9.28514e-08
6.34651e-10
9.28444e-08
6.088e-10
9.28367e-08
5.83482e-10
9.28283e-08
5.58964e-10
9.28193e-08
5.35533e-10
9.28093e-08
5.13487e-10
9.2798e-08
4.93182e-10
4.75402e-10
1.01812e-07
1.87982e-09
-1.01761e-07
1.01875e-07
1.97757e-09
1.01948e-07
2.06814e-09
1.02028e-07
2.1498e-09
1.02112e-07
2.22108e-09
1.02199e-07
2.28102e-09
1.02284e-07
2.32917e-09
1.02367e-07
2.36551e-09
1.02444e-07
2.39041e-09
1.02515e-07
2.40453e-09
1.02578e-07
2.40879e-09
1.02634e-07
2.40425e-09
1.02681e-07
2.39207e-09
1.0272e-07
2.37342e-09
1.02752e-07
2.34944e-09
1.02777e-07
2.32122e-09
1.02795e-07
2.28971e-09
1.02808e-07
2.25577e-09
1.02816e-07
2.22013e-09
1.02821e-07
2.18342e-09
1.02822e-07
2.14612e-09
1.0282e-07
2.10865e-09
1.02816e-07
2.07133e-09
1.02811e-07