/*--------------------------------*- C++ -*----------------------------------*\
| =========                 |                                                 |
| \\      /  F ield         | OpenFOAM: The Open Source CFD Toolbox           |
|  \\    /   O peration     | Version:  2.3.0                                 |
|   \\  /    A nd           | Web:      www.OpenFOAM.org                      |
|    \\/     M anipulation  |                                                 |
\*---------------------------------------------------------------------------*/
FoamFile
{
    version     2.0;
    format      ascii;
    class       volVectorField;
    location    "0.55";
    object      U;
}
// * * * * * * * * * * * * * * * * * * * * * * * * * * * * * * * * * * * * * //

dimensions      [0 1 -1 0 0 0 0];

internalField   nonuniform List<vector> 
2000
(
(0.170377 0.00604944 0)
(0.153677 0.00611298 0)
(0.137624 0.00568396 0)
(0.122422 0.00507062 0)
(0.108487 0.00439114 0)
(0.0959953 0.00370052 0)
(0.0849632 0.00303741 0)
(0.0753578 0.00242897 0)
(0.067121 0.00189199 0)
(0.0601624 0.0014351 0)
(0.0543607 0.00106026 0)
(0.0495739 0.000763717 0)
(0.0456519 0.000537424 0)
(0.0424473 0.000370792 0)
(0.0398233 0.000252428 0)
(0.0376591 0.000171443 0)
(0.0358529 0.000118242 0)
(0.0343219 8.48624e-05 0)
(0.0330012 6.5015e-05 0)
(0.0318418 5.39513e-05 0)
(0.030807 4.82473e-05 0)
(0.0298704 4.55548e-05 0)
(0.0290132 4.43536e-05 0)
(0.0282219 4.37262e-05 0)
(0.0274868 4.31692e-05 0)
(0.0268009 4.24457e-05 0)
(0.0261588 4.14785e-05 0)
(0.0255562 4.02765e-05 0)
(0.0249898 3.88883e-05 0)
(0.0244564 3.73744e-05 0)
(0.0239534 3.57927e-05 0)
(0.0234784 3.41919e-05 0)
(0.0230292 3.26091e-05 0)
(0.0226038 3.10708e-05 0)
(0.0222003 2.95942e-05 0)
(0.021817 2.81896e-05 0)
(0.0214524 2.68618e-05 0)
(0.0211049 2.5612e-05 0)
(0.0207735 2.44387e-05 0)
(0.0204567 2.33389e-05 0)
(0.0201537 2.23085e-05 0)
(0.0198634 2.13432e-05 0)
(0.019585 2.04383e-05 0)
(0.0193177 1.95892e-05 0)
(0.0190606 1.87916e-05 0)
(0.0188133 1.80413e-05 0)
(0.0185751 1.73344e-05 0)
(0.0183455 1.66674e-05 0)
(0.0181239 1.6037e-05 0)
(0.0179099 1.54402e-05 0)
(0.0177032 1.48742e-05 0)
(0.0175033 1.43365e-05 0)
(0.0173098 1.38248e-05 0)
(0.0171226 1.33372e-05 0)
(0.0169412 1.28715e-05 0)
(0.0167655 1.24262e-05 0)
(0.0165951 1.19996e-05 0)
(0.01643 1.15902e-05 0)
(0.0162698 1.11968e-05 0)
(0.0161143 1.08181e-05 0)
(0.0159635 1.04529e-05 0)
(0.0158171 1.01003e-05 0)
(0.0156751 9.75934e-06 0)
(0.0155372 9.42908e-06 0)
(0.0154035 9.10876e-06 0)
(0.0152737 8.79767e-06 0)
(0.0151478 8.49514e-06 0)
(0.0150256 8.20059e-06 0)
(0.0149072 7.91346e-06 0)
(0.0147925 7.63328e-06 0)
(0.0146813 7.3596e-06 0)
(0.0145737 7.09204e-06 0)
(0.0144696 6.83025e-06 0)
(0.014369 6.57393e-06 0)
(0.0142717 6.32285e-06 0)
(0.0141778 6.07682e-06 0)
(0.0140873 5.83569e-06 0)
(0.0140002 5.59937e-06 0)
(0.0139163 5.36781e-06 0)
(0.0138357 5.14103e-06 0)
(0.0137583 4.91906e-06 0)
(0.0136842 4.70203e-06 0)
(0.0136134 4.49017e-06 0)
(0.0135457 4.28371e-06 0)
(0.0134811 4.08315e-06 0)
(0.0134197 3.88905e-06 0)
(0.0133613 3.70227e-06 0)
(0.013306 3.524e-06 0)
(0.0132536 3.35576e-06 0)
(0.0132041 3.19937e-06 0)
(0.0131574 3.05692e-06 0)
(0.0131133 2.93053e-06 0)
(0.0130716 2.82213e-06 0)
(0.0130323 2.73344e-06 0)
(0.0129951 2.6667e-06 0)
(0.0129597 2.62728e-06 0)
(0.0129259 2.63302e-06 0)
(0.0128928 2.71416e-06 0)
(0.0128614 2.98042e-06 0)
(0.0127871 1.08309e-05 0)
(0.189594 0.00957229 0)
(0.187388 0.0101079 0)
(0.183617 0.0099071 0)
(0.178619 0.00942135 0)
(0.172873 0.00878919 0)
(0.166718 0.00805876 0)
(0.160368 0.00727024 0)
(0.153989 0.00646099 0)
(0.14771 0.00566267 0)
(0.141633 0.0049015 0)
(0.135824 0.00419813 0)
(0.130326 0.00356682 0)
(0.125157 0.00301516 0)
(0.120324 0.00254453 0)
(0.115822 0.00215126 0)
(0.111637 0.00182812 0)
(0.107752 0.00156583 0)
(0.104147 0.00135443 0)
(0.100801 0.00118431 0)
(0.0976932 0.00104687 0)
(0.0948026 0.00093483 0)
(0.0921102 0.000842317 0)
(0.0895985 0.000764763 0)
(0.0872514 0.000698717 0)
(0.0850542 0.000641628 0)
(0.0829938 0.000591635 0)
(0.0810584 0.000547387 0)
(0.0792371 0.0005079 0)
(0.0775206 0.000472441 0)
(0.0759002 0.000440454 0)
(0.074368 0.0004115 0)
(0.0729171 0.000385223 0)
(0.0715411 0.000361325 0)
(0.0702343 0.000339547 0)
(0.0689913 0.000319664 0)
(0.0678076 0.000301477 0)
(0.0666787 0.000284807 0)
(0.0656008 0.000269498 0)
(0.0645702 0.000255408 0)
(0.0635838 0.00024241 0)
(0.0626386 0.000230394 0)
(0.0617319 0.00021926 0)
(0.0608612 0.000208921 0)
(0.0600242 0.000199298 0)
(0.059219 0.000190322 0)
(0.0584436 0.000181933 0)
(0.0576962 0.000174076 0)
(0.0569754 0.000166702 0)
(0.0562796 0.000159769 0)
(0.0556075 0.000153238 0)
(0.0549579 0.000147075 0)
(0.0543296 0.000141248 0)
(0.0537216 0.000135729 0)
(0.053133 0.000130493 0)
(0.0525628 0.000125518 0)
(0.0520102 0.000120781 0)
(0.0514746 0.000116265 0)
(0.0509551 0.000111951 0)
(0.0504513 0.000107824 0)
(0.0499624 0.000103869 0)
(0.0494881 0.000100072 0)
(0.0490277 9.64208e-05 0)
(0.0485809 9.29046e-05 0)
(0.0481472 8.95124e-05 0)
(0.0477264 8.62348e-05 0)
(0.047318 8.30627e-05 0)
(0.0469218 7.9988e-05 0)
(0.0465375 7.70033e-05 0)
(0.0461649 7.41016e-05 0)
(0.0458038 7.12767e-05 0)
(0.045454 6.85228e-05 0)
(0.0451153 6.58349e-05 0)
(0.0447876 6.32081e-05 0)
(0.0444708 6.06383e-05 0)
(0.0441647 5.81219e-05 0)
(0.0438694 5.56556e-05 0)
(0.0435846 5.32368e-05 0)
(0.0433104 5.08633e-05 0)
(0.0430467 4.85332e-05 0)
(0.0427934 4.62455e-05 0)
(0.0425506 4.39994e-05 0)
(0.0423181 4.17946e-05 0)
(0.042096 3.96319e-05 0)
(0.0418841 3.75123e-05 0)
(0.0416825 3.5438e-05 0)
(0.0414911 3.34123e-05 0)
(0.0413098 3.14394e-05 0)
(0.0411386 2.95252e-05 0)
(0.0409772 2.76765e-05 0)
(0.0408255 2.59014e-05 0)
(0.0406833 2.42088e-05 0)
(0.0405504 2.26074e-05 0)
(0.0404266 2.11063e-05 0)
(0.0403114 1.97157e-05 0)
(0.0402045 1.84526e-05 0)
(0.0401054 1.73559e-05 0)
(0.0400132 1.65296e-05 0)
(0.0399265 1.62608e-05 0)
(0.0398455 1.81677e-05 0)
(0.0397039 3.74857e-05 0)
(0.192593 0.00910115 0)
(0.193396 0.0100697 0)
(0.193649 0.0104405 0)
(0.193188 0.0104848 0)
(0.192098 0.0102962 0)
(0.19048 0.00991096 0)
(0.188406 0.00937328 0)
(0.185953 0.00873341 0)
(0.183201 0.00803823 0)
(0.180229 0.00732792 0)
(0.177109 0.00663492 0)
(0.173901 0.00598308 0)
(0.170654 0.00538747 0)
(0.167407 0.00485523 0)
(0.16419 0.00438711 0)
(0.161022 0.00397941 0)
(0.157918 0.0036258 0)
(0.154888 0.00331888 0)
(0.151937 0.00305127 0)
(0.149068 0.00281625 0)
(0.146282 0.00260812 0)
(0.143579 0.00242222 0)
(0.140959 0.00225487 0)
(0.138422 0.00210321 0)
(0.135964 0.00196501 0)
(0.133586 0.00183856 0)
(0.131286 0.0017225 0)
(0.129061 0.00161576 0)
(0.126911 0.00151743 0)
(0.124833 0.00142674 0)
(0.122824 0.00134304 0)
(0.120884 0.00126571 0)
(0.11901 0.00119424 0)
(0.117199 0.00112812 0)
(0.11545 0.00106692 0)
(0.11376 0.0010102 0)
(0.112126 0.000957602 0)
(0.110548 0.000908767 0)
(0.109022 0.000863378 0)
(0.107546 0.000821141 0)
(0.106119 0.000781789 0)
(0.104738 0.000745077 0)
(0.103401 0.000710782 0)
(0.102107 0.000678702 0)
(0.100853 0.000648652 0)
(0.0996382 0.000620463 0)
(0.0984606 0.000593982 0)
(0.0973186 0.000569071 0)
(0.0962108 0.000545601 0)
(0.0951358 0.000523457 0)
(0.0940922 0.000502532 0)
(0.0930787 0.000482731 0)
(0.0920942 0.000463964 0)
(0.0911376 0.00044615 0)
(0.0902079 0.000429214 0)
(0.0893039 0.000413088 0)
(0.088425 0.000397709 0)
(0.0875701 0.000383018 0)
(0.0867386 0.000368963 0)
(0.0859297 0.000355495 0)
(0.0851428 0.000342566 0)
(0.0843771 0.000330136 0)
(0.0836323 0.000318166 0)
(0.0829076 0.000306619 0)
(0.0822028 0.000295463 0)
(0.0815173 0.000284667 0)
(0.0808509 0.000274202 0)
(0.080203 0.000264043 0)
(0.0795736 0.000254165 0)
(0.0789622 0.000244547 0)
(0.0783686 0.000235167 0)
(0.0777928 0.000226009 0)
(0.0772344 0.000217054 0)
(0.0766935 0.000208288 0)
(0.0761698 0.000199696 0)
(0.0756632 0.000191268 0)
(0.0751738 0.000182993 0)
(0.0747015 0.000174861 0)
(0.0742462 0.000166867 0)
(0.073808 0.000159003 0)
(0.0733868 0.000151267 0)
(0.0729826 0.000143656 0)
(0.0725955 0.000136171 0)
(0.0722254 0.000128813 0)
(0.0718724 0.000121588 0)
(0.0715364 0.000114502 0)
(0.0712174 0.000107567 0)
(0.0709153 0.000100795 0)
(0.07063 9.42043e-05 0)
(0.0703614 8.78127e-05 0)
(0.0701093 8.16411e-05 0)
(0.0698735 7.5711e-05 0)
(0.0696536 7.00464e-05 0)
(0.0694493 6.46783e-05 0)
(0.0692601 5.96587e-05 0)
(0.0690854 5.50978e-05 0)
(0.068924 5.1264e-05 0)
(0.0687741 4.895e-05 0)
(0.0686349 5.20154e-05 0)
(0.0684404 7.66484e-05 0)
(0.193704 0.00839492 0)
(0.194755 0.00942642 0)
(0.195769 0.0100036 0)
(0.196539 0.0102774 0)
(0.197032 0.0103226 0)
(0.197246 0.0101704 0)
(0.19717 0.00985438 0)
(0.196801 0.00941583 0)
(0.196152 0.00889582 0)
(0.195252 0.00833142 0)
(0.194134 0.00775428 0)
(0.192833 0.00718959 0)
(0.191385 0.00665533 0)
(0.189823 0.0061625 0)
(0.188175 0.0057161 0)
(0.186465 0.00531656 0)
(0.184711 0.00496121 0)
(0.182928 0.00464558 0)
(0.181127 0.00436453 0)
(0.179315 0.00411286 0)
(0.177499 0.00388584 0)
(0.175684 0.00367939 0)
(0.173872 0.00349012 0)
(0.172067 0.00331534 0)
(0.170271 0.00315293 0)
(0.168488 0.00300125 0)
(0.166718 0.00285905 0)
(0.164963 0.00272536 0)
(0.163226 0.00259941 0)
(0.161508 0.0024806 0)
(0.15981 0.0023684 0)
(0.158134 0.00226238 0)
(0.15648 0.00216215 0)
(0.154849 0.00206736 0)
(0.153243 0.0019777 0)
(0.151661 0.00189285 0)
(0.150104 0.00181254 0)
(0.148573 0.00173649 0)
(0.147067 0.00166447 0)
(0.145588 0.00159623 0)
(0.144135 0.00153154 0)
(0.142707 0.00147019 0)
(0.141306 0.00141199 0)
(0.13993 0.00135674 0)
(0.138581 0.00130425 0)
(0.137256 0.00125437 0)
(0.135957 0.00120693 0)
(0.134683 0.00116179 0)
(0.133434 0.00111879 0)
(0.132209 0.0010778 0)
(0.131009 0.00103871 0)
(0.129832 0.00100138 0)
(0.128678 0.000965706 0)
(0.127548 0.000931581 0)
(0.12644 0.000898904 0)
(0.125355 0.00086758 0)
(0.124292 0.00083752 0)
(0.12325 0.000808638 0)
(0.12223 0.000780856 0)
(0.121232 0.000754098 0)
(0.120254 0.000728293 0)
(0.119297 0.000703375 0)
(0.118361 0.00067928 0)
(0.117445 0.000655949 0)
(0.116549 0.000633328 0)
(0.115673 0.000611363 0)
(0.114817 0.000590005 0)
(0.113981 0.000569209 0)
(0.113165 0.000548932 0)
(0.112368 0.000529133 0)
(0.111591 0.000509776 0)
(0.110834 0.000490826 0)
(0.110096 0.000472252 0)
(0.109378 0.000454025 0)
(0.10868 0.000436118 0)
(0.108001 0.000418509 0)
(0.107343 0.000401177 0)
(0.106704 0.000384104 0)
(0.106086 0.000367275 0)
(0.105488 0.00035068 0)
(0.104911 0.00033431 0)
(0.104354 0.00031816 0)
(0.103818 0.000302228 0)
(0.103303 0.000286519 0)
(0.102809 0.00027104 0)
(0.102337 0.000255804 0)
(0.101886 0.000240828 0)
(0.101456 0.000226136 0)
(0.101048 0.000211755 0)
(0.100661 0.00019772 0)
(0.100296 0.000184067 0)
(0.0999514 0.000170838 0)
(0.0996283 0.000158082 0)
(0.0993261 0.000145866 0)
(0.0990441 0.000134295 0)
(0.0987819 0.000123577 0)
(0.0985381 0.000114173 0)
(0.0983113 0.000107372 0)
(0.0981009 0.000108035 0)
(0.0978439 0.000129892 0)
(0.19456 0.00783932 0)
(0.195415 0.00877156 0)
(0.196369 0.00936323 0)
(0.197272 0.00969576 0)
(0.198076 0.00983056 0)
(0.198761 0.00979682 0)
(0.199306 0.00961915 0)
(0.199685 0.00932723 0)
(0.19989 0.00895252 0)
(0.199918 0.00852481 0)
(0.19978 0.00807072 0)
(0.199491 0.00761258 0)
(0.199068 0.00716758 0)
(0.198532 0.00674746 0)
(0.197901 0.006359 0)
(0.197192 0.00600482 0)
(0.19642 0.00568455 0)
(0.195597 0.00539583 0)
(0.194732 0.00513525 0)
(0.193832 0.00489905 0)
(0.192902 0.00468356 0)
(0.191946 0.00448549 0)
(0.190967 0.00430204 0)
(0.189968 0.00413093 0)
(0.188952 0.00397036 0)
(0.187919 0.00381894 0)
(0.186872 0.00367557 0)
(0.185813 0.00353945 0)
(0.184742 0.00340992 0)
(0.183662 0.00328647 0)
(0.182573 0.00316869 0)
(0.181478 0.00305623 0)
(0.180377 0.00294878 0)
(0.179272 0.00284607 0)
(0.178164 0.00274783 0)
(0.177054 0.00265385 0)
(0.175943 0.00256389 0)
(0.174832 0.00247775 0)
(0.173723 0.00239523 0)
(0.172614 0.00231615 0)
(0.171509 0.00224031 0)
(0.170406 0.00216756 0)
(0.169308 0.00209773 0)
(0.168214 0.00203067 0)
(0.167126 0.00196624 0)
(0.166043 0.0019043 0)
(0.164966 0.00184471 0)
(0.163897 0.00178736 0)
(0.162834 0.00173213 0)
(0.161779 0.0016789 0)
(0.160733 0.00162756 0)
(0.159694 0.00157803 0)
(0.158665 0.00153018 0)
(0.157645 0.00148395 0)
(0.156634 0.00143923 0)
(0.155633 0.00139593 0)
(0.154642 0.00135399 0)
(0.153662 0.00131331 0)
(0.152693 0.00127382 0)
(0.151735 0.00123545 0)
(0.150788 0.00119813 0)
(0.149852 0.0011618 0)
(0.148929 0.00112638 0)
(0.148018 0.00109182 0)
(0.14712 0.00105806 0)
(0.146234 0.00102504 0)
(0.145362 0.000992714 0)
(0.144503 0.000961024 0)
(0.143658 0.000929923 0)
(0.142827 0.000899367 0)
(0.142011 0.000869312 0)
(0.14121 0.000839719 0)
(0.140424 0.000810549 0)
(0.139653 0.000781768 0)
(0.138899 0.000753345 0)
(0.138161 0.000725252 0)
(0.137439 0.000697465 0)
(0.136735 0.000669961 0)
(0.136049 0.000642724 0)
(0.135381 0.000615741 0)
(0.134731 0.000589004 0)
(0.1341 0.000562508 0)
(0.133489 0.000536257 0)
(0.132897 0.000510257 0)
(0.132325 0.000484523 0)
(0.131774 0.000459077 0)
(0.131244 0.000433947 0)
(0.130735 0.000409171 0)
(0.130248 0.000384792 0)
(0.129782 0.000360862 0)
(0.129338 0.000337442 0)
(0.128916 0.0003146 0)
(0.128516 0.000292422 0)
(0.128138 0.000271022 0)
(0.127781 0.000250577 0)
(0.127445 0.000231397 0)
(0.12713 0.000214116 0)
(0.126834 0.000200288 0)
(0.126558 0.000194361 0)
(0.126243 0.000204811 0)
(0.195317 0.00735984 0)
(0.195975 0.00815737 0)
(0.196751 0.00871352 0)
(0.197543 0.00906046 0)
(0.198304 0.0092381 0)
(0.19901 0.0092706 0)
(0.199642 0.00917731 0)
(0.20018 0.00898083 0)
(0.200611 0.00870606 0)
(0.200929 0.00837739 0)
(0.201135 0.00801703 0)
(0.201235 0.00764411 0)
(0.201239 0.00727395 0)
(0.201159 0.00691768 0)
(0.201007 0.00658248 0)
(0.200794 0.00627205 0)
(0.200531 0.00598745 0)
(0.200226 0.00572785 0)
(0.199886 0.00549126 0)
(0.199517 0.00527514 0)
(0.199122 0.00507682 0)
(0.198705 0.00489374 0)
(0.198267 0.00472363 0)
(0.19781 0.00456457 0)
(0.197336 0.00441499 0)
(0.196844 0.0042736 0)
(0.196335 0.00413942 0)
(0.195812 0.00401166 0)
(0.195273 0.00388969 0)
(0.19472 0.00377303 0)
(0.194153 0.00366127 0)
(0.193573 0.00355408 0)
(0.192981 0.00345119 0)
(0.192376 0.00335233 0)
(0.191761 0.00325728 0)
(0.191135 0.00316586 0)
(0.190499 0.00307785 0)
(0.189853 0.00299309 0)
(0.189198 0.00291141 0)
(0.188535 0.00283266 0)
(0.187865 0.00275668 0)
(0.187186 0.00268333 0)
(0.186501 0.00261248 0)
(0.18581 0.002544 0)
(0.185112 0.00247776 0)
(0.18441 0.00241365 0)
(0.183702 0.00235156 0)
(0.18299 0.00229139 0)
(0.182273 0.00223302 0)
(0.181553 0.00217636 0)
(0.18083 0.00212132 0)
(0.180104 0.0020678 0)
(0.179376 0.00201573 0)
(0.178646 0.00196502 0)
(0.177915 0.00191559 0)
(0.177182 0.00186736 0)
(0.176449 0.00182026 0)
(0.175716 0.00177422 0)
(0.174984 0.00172916 0)
(0.174252 0.00168502 0)
(0.173521 0.00164174 0)
(0.172792 0.00159925 0)
(0.172066 0.0015575 0)
(0.171342 0.00151643 0)
(0.170621 0.00147597 0)
(0.169903 0.00143609 0)
(0.16919 0.00139672 0)
(0.168481 0.00135781 0)
(0.167778 0.00131933 0)
(0.16708 0.00128122 0)
(0.166389 0.00124345 0)
(0.165704 0.00120598 0)
(0.165026 0.00116876 0)
(0.164357 0.00113178 0)
(0.163695 0.00109498 0)
(0.163043 0.00105836 0)
(0.162401 0.00102189 0)
(0.161769 0.00098554 0)
(0.161148 0.000949311 0)
(0.160538 0.000913188 0)
(0.15994 0.00087717 0)
(0.159355 0.000841259 0)
(0.158784 0.000805465 0)
(0.158226 0.000769807 0)
(0.157683 0.000734311 0)
(0.157155 0.000699011 0)
(0.156642 0.000663954 0)
(0.156146 0.000629193 0)
(0.155666 0.000594795 0)
(0.155204 0.000560836 0)
(0.154759 0.000527405 0)
(0.154332 0.000494606 0)
(0.153922 0.000462569 0)
(0.153531 0.000431466 0)
(0.153158 0.000401544 0)
(0.152803 0.000373203 0)
(0.152465 0.000347166 0)
(0.152145 0.000324893 0)
(0.151844 0.000309314 0)
(0.151507 0.000302247 0)
(0.195996 0.00695205 0)
(0.196504 0.00762255 0)
(0.197117 0.00812655 0)
(0.19777 0.00846756 0)
(0.19842 0.00866577 0)
(0.199043 0.00873869 0)
(0.19962 0.00870183 0)
(0.200136 0.00857284 0)
(0.200578 0.00837144 0)
(0.200942 0.00811746 0)
(0.201226 0.00782937 0)
(0.201434 0.00752333 0)
(0.201572 0.00721271 0)
(0.201647 0.00690775 0)
(0.201669 0.00661555 0)
(0.201646 0.00634046 0)
(0.201587 0.00608452 0)
(0.201498 0.00584807 0)
(0.201384 0.00563031 0)
(0.201251 0.00542974 0)
(0.201102 0.00524457 0)
(0.200938 0.00507291 0)
(0.200763 0.00491303 0)
(0.200576 0.00476333 0)
(0.20038 0.0046225 0)
(0.200173 0.0044894 0)
(0.199957 0.00436314 0)
(0.199732 0.00424297 0)
(0.199497 0.0041283 0)
(0.199254 0.00401866 0)
(0.199002 0.00391364 0)
(0.19874 0.00381292 0)
(0.19847 0.00371621 0)
(0.198192 0.00362327 0)
(0.197905 0.00353388 0)
(0.197609 0.00344783 0)
(0.197305 0.00336493 0)
(0.196993 0.00328502 0)
(0.196673 0.00320793 0)
(0.196344 0.0031335 0)
(0.196008 0.00306159 0)
(0.195664 0.00299206 0)
(0.195312 0.00292477 0)
(0.194953 0.0028596 0)
(0.194587 0.00279643 0)
(0.194213 0.00273514 0)
(0.193832 0.00267562 0)
(0.193444 0.00261777 0)
(0.19305 0.00256148 0)
(0.192649 0.00250665 0)
(0.192242 0.0024532 0)
(0.191828 0.00240104 0)
(0.191409 0.00235007 0)
(0.190984 0.00230023 0)
(0.190553 0.00225141 0)
(0.190117 0.00220356 0)
(0.189676 0.00215658 0)
(0.18923 0.00211042 0)
(0.18878 0.002065 0)
(0.188326 0.00202026 0)
(0.187868 0.00197612 0)
(0.187406 0.00193253 0)
(0.186941 0.00188942 0)
(0.186473 0.00184674 0)
(0.186002 0.00180442 0)
(0.18553 0.00176241 0)
(0.185055 0.00172067 0)
(0.18458 0.00167913 0)
(0.184103 0.00163774 0)
(0.183626 0.00159648 0)
(0.183148 0.00155528 0)
(0.182672 0.00151411 0)
(0.182196 0.00147293 0)
(0.181721 0.00143171 0)
(0.181249 0.00139041 0)
(0.180779 0.00134902 0)
(0.180311 0.00130751 0)
(0.179848 0.00126585 0)
(0.179389 0.00122405 0)
(0.178934 0.0011821 0)
(0.178485 0.00113999 0)
(0.178041 0.00109774 0)
(0.177604 0.00105536 0)
(0.177174 0.00101289 0)
(0.176752 0.000970359 0)
(0.176338 0.000927816 0)
(0.175933 0.000885324 0)
(0.175537 0.000842955 0)
(0.175152 0.000800798 0)
(0.174776 0.000758954 0)
(0.174411 0.000717543 0)
(0.174058 0.000676708 0)
(0.173716 0.000636622 0)
(0.173385 0.00059751 0)
(0.173066 0.000559683 0)
(0.17276 0.000523591 0)
(0.172465 0.000489932 0)
(0.172182 0.000459765 0)
(0.171915 0.00043412 0)
(0.171614 0.000409479 0)
(0.196604 0.00660241 0)
(0.197001 0.00716178 0)
(0.197482 0.00760624 0)
(0.198007 0.00792733 0)
(0.198545 0.00813208 0)
(0.199071 0.00823126 0)
(0.199567 0.00823637 0)
(0.20002 0.00816062 0)
(0.200421 0.00801906 0)
(0.200763 0.00782725 0)
(0.201044 0.00760013 0)
(0.201266 0.00735116 0)
(0.201433 0.0070918 0)
(0.20155 0.00683126 0)
(0.201625 0.00657637 0)
(0.201664 0.00633175 0)
(0.201673 0.00610016 0)
(0.201659 0.00588283 0)
(0.201626 0.00567994 0)
(0.201578 0.00549091 0)
(0.20152 0.00531475 0)
(0.201453 0.00515028 0)
(0.201378 0.00499628 0)
(0.201298 0.00485158 0)
(0.201213 0.00471515 0)
(0.201124 0.00458608 0)
(0.201031 0.00446361 0)
(0.200935 0.0043471 0)
(0.200834 0.00423601 0)
(0.200731 0.00412991 0)
(0.200623 0.00402841 0)
(0.200513 0.0039312 0)
(0.200398 0.00383799 0)
(0.20028 0.00374855 0)
(0.200159 0.00366265 0)
(0.200033 0.00358009 0)
(0.199904 0.00350067 0)
(0.199771 0.00342422 0)
(0.199634 0.00335058 0)
(0.199493 0.00327958 0)
(0.199348 0.00321107 0)
(0.199198 0.00314491 0)
(0.199044 0.00308096 0)
(0.198886 0.00301908 0)
(0.198724 0.00295916 0)
(0.198557 0.00290106 0)
(0.198385 0.00284468 0)
(0.198209 0.0027899 0)
(0.198028 0.00273662 0)
(0.197843 0.00268472 0)
(0.197652 0.00263412 0)
(0.197458 0.0025847 0)
(0.197258 0.00253639 0)
(0.197054 0.00248909 0)
(0.196845 0.00244272 0)
(0.196632 0.00239718 0)
(0.196414 0.00235241 0)
(0.196191 0.00230831 0)
(0.195964 0.00226481 0)
(0.195733 0.00222185 0)
(0.195498 0.00217933 0)
(0.195258 0.0021372 0)
(0.195014 0.00209539 0)
(0.194767 0.00205383 0)
(0.194515 0.00201245 0)
(0.194261 0.0019712 0)
(0.194002 0.00193001 0)
(0.193741 0.00188882 0)
(0.193477 0.00184759 0)
(0.19321 0.00180625 0)
(0.19294 0.00176476 0)
(0.192669 0.00172307 0)
(0.192395 0.00168115 0)
(0.19212 0.00163894 0)
(0.191843 0.00159641 0)
(0.191566 0.00155354 0)
(0.191288 0.0015103 0)
(0.191009 0.00146667 0)
(0.190731 0.00142264 0)
(0.190453 0.00137819 0)
(0.190177 0.00133334 0)
(0.189901 0.0012881 0)
(0.189627 0.00124248 0)
(0.189356 0.00119652 0)
(0.189087 0.00115026 0)
(0.188821 0.00110376 0)
(0.188558 0.0010571 0)
(0.1883 0.00101035 0)
(0.188045 0.000963634 0)
(0.187795 0.000917065 0)
(0.18755 0.000870791 0)
(0.18731 0.000824986 0)
(0.187076 0.00077986 0)
(0.186847 0.000735681 0)
(0.186624 0.000692794 0)
(0.186407 0.000651655 0)
(0.186196 0.000612847 0)
(0.185992 0.000576944 0)
(0.185797 0.000543544 0)
(0.18557 0.000507204 0)
(0.197122 0.00631028 0)
(0.197436 0.00678068 0)
(0.197816 0.00716977 0)
(0.198238 0.0074662 0)
(0.198678 0.00766973 0)
(0.199116 0.00778565 0)
(0.199536 0.00782159 0)
(0.199926 0.00778709 0)
(0.200277 0.00769328 0)
(0.200583 0.00755216 0)
(0.200842 0.00737562 0)
(0.201053 0.00717471 0)
(0.20122 0.00695918 0)
(0.201345 0.00673715 0)
(0.201434 0.006515 0)
(0.201492 0.00629741 0)
(0.201524 0.00608751 0)
(0.201536 0.0058872 0)
(0.201531 0.00569734 0)
(0.201513 0.00551812 0)
(0.201485 0.00534923 0)
(0.20145 0.00519008 0)
(0.201409 0.00503995 0)
(0.201365 0.00489809 0)
(0.201317 0.00476375 0)
(0.201268 0.00463626 0)
(0.201216 0.00451504 0)
(0.201164 0.00439955 0)
(0.20111 0.00428936 0)
(0.201056 0.00418407 0)
(0.201 0.00408335 0)
(0.200944 0.00398692 0)
(0.200888 0.00389452 0)
(0.20083 0.00380591 0)
(0.200772 0.00372088 0)
(0.200713 0.00363924 0)
(0.200653 0.00356081 0)
(0.200592 0.0034854 0)
(0.200531 0.00341287 0)
(0.200468 0.00334304 0)
(0.200404 0.00327577 0)
(0.200339 0.00321092 0)
(0.200272 0.00314833 0)
(0.200204 0.00308789 0)
(0.200134 0.00302945 0)
(0.200063 0.0029729 0)
(0.19999 0.0029181 0)
(0.199915 0.00286496 0)
(0.199838 0.00281334 0)
(0.199758 0.00276315 0)
(0.199677 0.00271428 0)
(0.199594 0.00266662 0)
(0.199508 0.00262008 0)
(0.19942 0.00257455 0)
(0.19933 0.00252996 0)
(0.199237 0.0024862 0)
(0.199141 0.00244318 0)
(0.199043 0.00240083 0)
(0.198943 0.00235905 0)
(0.198839 0.00231777 0)
(0.198733 0.0022769 0)
(0.198625 0.00223637 0)
(0.198514 0.0021961 0)
(0.1984 0.00215602 0)
(0.198283 0.00211605 0)
(0.198164 0.00207613 0)
(0.198043 0.00203619 0)
(0.197919 0.00199616 0)
(0.197792 0.00195599 0)
(0.197663 0.00191561 0)
(0.197532 0.00187496 0)
(0.197399 0.00183399 0)
(0.197264 0.00179266 0)
(0.197127 0.00175091 0)
(0.196988 0.0017087 0)
(0.196847 0.00166601 0)
(0.196705 0.00162279 0)
(0.196562 0.00157903 0)
(0.196417 0.0015347 0)
(0.196272 0.0014898 0)
(0.196126 0.00144432 0)
(0.195979 0.00139829 0)
(0.195832 0.00135171 0)
(0.195686 0.00130463 0)
(0.195539 0.00125708 0)
(0.195392 0.00120914 0)
(0.195247 0.00116088 0)
(0.195102 0.00111239 0)
(0.194958 0.0010638 0)
(0.194815 0.00101523 0)
(0.194674 0.00096686 0)
(0.194535 0.000918878 0)
(0.194397 0.000871521 0)
(0.19426 0.00082508 0)
(0.194126 0.000779913 0)
(0.193994 0.000736448 0)
(0.193863 0.000695142 0)
(0.193736 0.000656235 0)
(0.193611 0.000618827 0)
(0.19346 0.00057851 0)
(0.197582 0.00606411 0)
(0.197833 0.00646273 0)
(0.198134 0.00680188 0)
(0.198471 0.00707109 0)
(0.198827 0.00726701 0)
(0.199187 0.00739125 0)
(0.199536 0.00744835 0)
(0.199866 0.00744483 0)
(0.200167 0.00738874 0)
(0.200434 0.00728907 0)
(0.200665 0.00715509 0)
(0.200857 0.00699565 0)
(0.201014 0.00681887 0)
(0.201136 0.00663171 0)
(0.201227 0.00643995 0)
(0.201292 0.00624806 0)
(0.201333 0.00605932 0)
(0.201356 0.00587598 0)
(0.201363 0.00569944 0)
(0.201359 0.00553042 0)
(0.201345 0.00536917 0)
(0.201323 0.00521562 0)
(0.201297 0.00506948 0)
(0.201267 0.00493038 0)
(0.201234 0.00479788 0)
(0.201199 0.00467156 0)
(0.201163 0.00455098 0)
(0.201126 0.00443579 0)
(0.201089 0.00432564 0)
(0.201052 0.00422021 0)
(0.201015 0.00411925 0)
(0.200979 0.0040225 0)
(0.200943 0.00392973 0)
(0.200907 0.00384075 0)
(0.200872 0.00375536 0)
(0.200837 0.00367339 0)
(0.200802 0.00359465 0)
(0.200768 0.00351899 0)
(0.200735 0.00344625 0)
(0.200701 0.00337627 0)
(0.200669 0.00330891 0)
(0.200636 0.00324403 0)
(0.200603 0.00318149 0)
(0.200571 0.00312116 0)
(0.200539 0.0030629 0)
(0.200506 0.00300659 0)
(0.200474 0.0029521 0)
(0.200441 0.00289933 0)
(0.200408 0.00284815 0)
(0.200375 0.00279845 0)
(0.200342 0.00275012 0)
(0.200307 0.00270306 0)
(0.200273 0.00265717 0)
(0.200238 0.00261234 0)
(0.200202 0.00256848 0)
(0.200165 0.0025255 0)
(0.200127 0.00248329 0)
(0.200089 0.00244177 0)
(0.20005 0.00240086 0)
(0.200009 0.00236046 0)
(0.199968 0.00232049 0)
(0.199926 0.00228087 0)
(0.199882 0.00224151 0)
(0.199837 0.00220235 0)
(0.199791 0.00216329 0)
(0.199744 0.00212428 0)
(0.199696 0.00208523 0)
(0.199646 0.00204607 0)
(0.199596 0.00200674 0)
(0.199543 0.00196718 0)
(0.19949 0.00192731 0)
(0.199436 0.00188709 0)
(0.19938 0.00184645 0)
(0.199323 0.00180535 0)
(0.199264 0.00176373 0)
(0.199205 0.00172157 0)
(0.199144 0.00167882 0)
(0.199082 0.00163546 0)
(0.19902 0.00159146 0)
(0.198956 0.00154681 0)
(0.198891 0.00150152 0)
(0.198826 0.00145558 0)
(0.19876 0.00140902 0)
(0.198692 0.00136187 0)
(0.198625 0.00131418 0)
(0.198556 0.00126602 0)
(0.198488 0.00121746 0)
(0.198418 0.0011686 0)
(0.198349 0.00111957 0)
(0.198279 0.00107052 0)
(0.198208 0.00102162 0)
(0.198138 0.000973073 0)
(0.198067 0.000925138 0)
(0.197995 0.000878113 0)
(0.197924 0.000832352 0)
(0.197852 0.000788251 0)
(0.19778 0.000746185 0)
(0.197708 0.00070629 0)
(0.197635 0.000667896 0)
(0.197542 0.000628754 0)
(0.198002 0.00584486 0)
(0.198201 0.00618478 0)
(0.198437 0.00648042 0)
(0.198701 0.00672323 0)
(0.198984 0.00690885 0)
(0.199273 0.00703669 0)
(0.199558 0.00710891 0)
(0.199829 0.00712959 0)
(0.200081 0.00710429 0)
(0.200308 0.00703947 0)
(0.200508 0.00694211 0)
(0.200678 0.00681913 0)
(0.20082 0.00667708 0)
(0.200933 0.00652184 0)
(0.201022 0.00635845 0)
(0.201087 0.00619107 0)
(0.201132 0.00602295 0)
(0.201161 0.00585654 0)
(0.201176 0.00569357 0)
(0.201179 0.00553519 0)
(0.201174 0.00538209 0)
(0.201161 0.00523462 0)
(0.201143 0.0050929 0)
(0.201121 0.00495689 0)
(0.201097 0.00482645 0)
(0.20107 0.00470138 0)
(0.201042 0.00458147 0)
(0.201013 0.00446647 0)
(0.200984 0.00435618 0)
(0.200955 0.00425036 0)
(0.200926 0.00414882 0)
(0.200898 0.00405137 0)
(0.20087 0.00395781 0)
(0.200843 0.00386799 0)
(0.200816 0.00378172 0)
(0.200791 0.00369885 0)
(0.200766 0.00361922 0)
(0.200742 0.00354269 0)
(0.200718 0.00346909 0)
(0.200696 0.0033983 0)
(0.200674 0.00333016 0)
(0.200653 0.00326455 0)
(0.200632 0.00320132 0)
(0.200613 0.00314034 0)
(0.200594 0.0030815 0)
(0.200576 0.00302465 0)
(0.200558 0.00296969 0)
(0.20054 0.00291649 0)
(0.200524 0.00286493 0)
(0.200507 0.00281492 0)
(0.200491 0.00276632 0)
(0.200476 0.00271905 0)
(0.20046 0.00267299 0)
(0.200445 0.00262804 0)
(0.20043 0.00258411 0)
(0.200415 0.0025411 0)
(0.2004 0.00249891 0)
(0.200386 0.00245745 0)
(0.200371 0.00241663 0)
(0.200356 0.00237636 0)
(0.200342 0.00233656 0)
(0.200327 0.00229713 0)
(0.200312 0.00225801 0)
(0.200296 0.0022191 0)
(0.200281 0.00218033 0)
(0.200265 0.00214162 0)
(0.200249 0.00210289 0)
(0.200233 0.00206408 0)
(0.200216 0.00202511 0)
(0.200199 0.00198592 0)
(0.200182 0.00194643 0)
(0.200164 0.0019066 0)
(0.200145 0.00186636 0)
(0.200127 0.00182565 0)
(0.200107 0.00178444 0)
(0.200087 0.00174268 0)
(0.200067 0.00170032 0)
(0.200046 0.00165735 0)
(0.200024 0.00161374 0)
(0.200002 0.00156947 0)
(0.19998 0.00152454 0)
(0.199956 0.00147896 0)
(0.199932 0.00143275 0)
(0.199908 0.00138593 0)
(0.199883 0.00133857 0)
(0.199857 0.00129072 0)
(0.19983 0.00124247 0)
(0.199803 0.00119393 0)
(0.199775 0.00114521 0)
(0.199746 0.00109647 0)
(0.199716 0.0010479 0)
(0.199685 0.000999713 0)
(0.199653 0.000952163 0)
(0.199621 0.000905554 0)
(0.199587 0.000860231 0)
(0.199551 0.000816569 0)
(0.199515 0.000774916 0)
(0.199477 0.00073547 0)
(0.199437 0.00069807 0)
(0.199382 0.000662419 0)
(0.198391 0.0056537 0)
(0.198545 0.00594628 0)
(0.198726 0.00620503 0)
(0.198929 0.00642337 0)
(0.199147 0.00659708 0)
(0.199373 0.0067245 0)
(0.199597 0.00680624 0)
(0.199814 0.0068446 0)
(0.200018 0.00684315 0)
(0.200204 0.0068064 0)
(0.200371 0.00673941 0)
(0.200515 0.00664743 0)
(0.200638 0.00653562 0)
(0.200739 0.0064088 0)
(0.20082 0.00627128 0)
(0.200882 0.00612678 0)
(0.200927 0.00597839 0)
(0.200959 0.00582859 0)
(0.200978 0.00567929 0)
(0.200986 0.00553192 0)
(0.200987 0.0053875 0)
(0.200981 0.00524673 0)
(0.20097 0.00511005 0)
(0.200955 0.00497772 0)
(0.200937 0.00484987 0)
(0.200917 0.00472652 0)
(0.200895 0.00460763 0)
(0.200872 0.00449313 0)
(0.200849 0.00438293 0)
(0.200826 0.00427689 0)
(0.200803 0.0041749 0)
(0.20078 0.00407682 0)
(0.200757 0.00398252 0)
(0.200736 0.00389185 0)
(0.200714 0.00380468 0)
(0.200694 0.00372087 0)
(0.200674 0.00364028 0)
(0.200654 0.00356278 0)
(0.200636 0.00348823 0)
(0.200619 0.0034165 0)
(0.200602 0.00334744 0)
(0.200586 0.00328093 0)
(0.20057 0.00321685 0)
(0.200556 0.00315505 0)
(0.200542 0.00309541 0)
(0.200529 0.00303782 0)
(0.200517 0.00298215 0)
(0.200505 0.00292828 0)
(0.200494 0.00287611 0)
(0.200483 0.0028255 0)
(0.200474 0.00277636 0)
(0.200464 0.00272858 0)
(0.200455 0.00268205 0)
(0.200447 0.00263667 0)
(0.200439 0.00259235 0)
(0.200431 0.00254897 0)
(0.200424 0.00250646 0)
(0.200418 0.0024647 0)
(0.200411 0.00242362 0)
(0.200405 0.00238312 0)
(0.200399 0.00234311 0)
(0.200394 0.00230352 0)
(0.200389 0.00226424 0)
(0.200383 0.00222521 0)
(0.200379 0.00218635 0)
(0.200374 0.00214757 0)
(0.200369 0.0021088 0)
(0.200365 0.00206996 0)
(0.20036 0.002031 0)
(0.200356 0.00199182 0)
(0.200352 0.00195238 0)
(0.200347 0.00191262 0)
(0.200343 0.00187246 0)
(0.200339 0.00183186 0)
(0.200334 0.00179078 0)
(0.200329 0.00174916 0)
(0.200325 0.00170697 0)
(0.20032 0.00166419 0)
(0.200315 0.00162078 0)
(0.200309 0.00157674 0)
(0.200304 0.00153206 0)
(0.200298 0.00148676 0)
(0.200291 0.00144084 0)
(0.200284 0.00139435 0)
(0.200277 0.00134734 0)
(0.200269 0.00129987 0)
(0.200261 0.00125203 0)
(0.200252 0.00120393 0)
(0.200242 0.00115569 0)
(0.200232 0.00110749 0)
(0.20022 0.0010595 0)
(0.200208 0.00101194 0)
(0.200195 0.000965084 0)
(0.20018 0.000919226 0)
(0.200164 0.000874708 0)
(0.200147 0.000831896 0)
(0.200128 0.00079116 0)
(0.200108 0.000752825 0)