/*--------------------------------*- C++ -*----------------------------------*\
| =========                 |                                                 |
| \\      /  F ield         | OpenFOAM: The Open Source CFD Toolbox           |
|  \\    /   O peration     | Version:  2.3.0                                 |
|   \\  /    A nd           | Web:      www.OpenFOAM.org                      |
|    \\/     M anipulation  |                                                 |
\*---------------------------------------------------------------------------*/
FoamFile
{
    version     2.0;
    format      ascii;
    class       surfaceScalarField;
    location    "0.4";
    object      phi_0;
}
// * * * * * * * * * * * * * * * * * * * * * * * * * * * * * * * * * * * * * //

dimensions      [0 3 -1 0 0 0 0];

internalField   nonuniform List<scalar> 
396
(
1.32191e-07
2.87755e-09
-1.35068e-07
1.2824e-07
3.95123e-09
1.24014e-07
4.22525e-09
1.19963e-07
4.05126e-09
1.15676e-07
4.28713e-09
1.11053e-07
4.623e-09
1.06372e-07
4.68145e-09
1.01562e-07
4.80991e-09
9.65335e-08
5.02817e-09
9.14931e-08
5.04034e-09
8.65354e-08
4.95777e-09
8.13261e-08
5.20923e-09
7.56661e-08
5.66009e-09
7.01061e-08
5.55995e-09
6.51365e-08
4.96963e-09
6.04388e-08
4.69768e-09
5.56737e-08
4.76507e-09
5.13159e-08
4.35786e-09
4.78511e-08
3.46477e-09
4.53039e-08
2.54719e-09
4.36685e-08
1.63538e-09
4.31456e-08
5.22901e-10
4.35431e-08
-3.97441e-10
4.43993e-08
-8.56189e-10
-5.46876e-10
1.61874e-07
2.67784e-09
-1.61674e-07
1.62016e-07
3.8089e-09
1.61854e-07
4.38747e-09
1.61625e-07
4.28026e-09
1.61232e-07
4.68038e-09
1.60577e-07
5.27711e-09
1.59693e-07
5.56572e-09
1.58603e-07
5.89988e-09
1.57421e-07
6.20997e-09
1.56043e-07
6.41883e-09
1.54426e-07
6.57501e-09
1.52714e-07
6.92056e-09
1.50702e-07
7.67292e-09
1.48397e-07
7.86467e-09
1.45995e-07
7.37099e-09
1.4357e-07
7.12306e-09
1.40951e-07
7.3845e-09
1.38425e-07
6.88357e-09
1.36019e-07
5.87075e-09
1.33836e-07
4.72965e-09
1.3195e-07
3.52233e-09
1.30544e-07
1.92831e-09
1.29852e-07
2.94293e-10
1.29368e-07
-3.71322e-10
-3.95104e-10
1.92722e-07
2.50118e-09
-1.92545e-07
1.9303e-07
3.5004e-09
1.93312e-07
4.10585e-09
1.93487e-07
4.10535e-09
1.9358e-07
4.58727e-09
1.93634e-07
5.2228e-09
1.93615e-07
5.58503e-09
1.93547e-07
5.96798e-09
1.93537e-07
6.21989e-09
1.93488e-07
6.46762e-09
1.93269e-07
6.79359e-09
1.93104e-07
7.08636e-09
1.93008e-07
7.7682e-09
1.92781e-07
8.09152e-09
1.92328e-07
7.82393e-09
1.91849e-07
7.60294e-09
1.9131e-07
7.92315e-09
1.9074e-07
7.45403e-09
1.90104e-07
6.50605e-09
1.89442e-07
5.39197e-09
1.88785e-07
4.17927e-09
1.88076e-07
2.637e-09
1.87613e-07
7.57241e-10
1.87172e-07
7.02578e-11
-1.53693e-10
2.29471e-07
2.35556e-09
-2.29325e-07
2.29862e-07
3.10948e-09
2.30184e-07
3.78424e-09
2.30304e-07
3.98446e-09
2.30373e-07
4.51882e-09
2.30477e-07
5.11819e-09
2.30608e-07
5.45403e-09
2.30679e-07
5.89724e-09
2.30749e-07
6.15048e-09
2.30897e-07
6.31971e-09
2.31001e-07
6.68935e-09
2.31099e-07
6.98783e-09
2.31324e-07
7.54312e-09
2.31578e-07
7.8381e-09
2.317e-07
7.70174e-09
2.31752e-07
7.55119e-09
2.31875e-07
7.79946e-09
2.31975e-07
7.35414e-09
2.31992e-07
6.48912e-09
2.31859e-07
5.52567e-09
2.31702e-07
4.33556e-09
2.31422e-07
2.91764e-09
2.31035e-07
1.14421e-09
2.30644e-07
4.61195e-10
1.18676e-10
2.73351e-07
2.3431e-09
-2.73339e-07
2.7358e-07
2.88065e-09
2.73854e-07
3.50989e-09
2.74009e-07
3.83e-09
2.7416e-07
4.3673e-09
2.74261e-07
5.01795e-09
2.7432e-07
5.39409e-09
2.74442e-07
5.77524e-09
2.74555e-07
6.03812e-09
2.74671e-07
6.2037e-09
2.74752e-07
6.60826e-09
2.74873e-07
6.86712e-09
2.75174e-07
7.24214e-09
2.75464e-07
7.54763e-09
2.75621e-07
7.5447e-09
2.75757e-07
7.41526e-09
2.75997e-07
7.5598e-09
2.76197e-07
7.15393e-09
2.76333e-07
6.3529e-09
2.76307e-07
5.55197e-09
2.76222e-07
4.42042e-09
2.7601e-07
3.12927e-09
2.75667e-07
1.48743e-09
2.75327e-07
8.01603e-10
3.60777e-10
3.32404e-07
2.28349e-09
-3.32345e-07
3.32589e-07
2.69608e-09
3.32803e-07
3.29546e-09
3.32871e-07
3.7622e-09
3.32997e-07
4.24085e-09
3.33137e-07
4.87798e-09
3.33226e-07
5.30578e-09
3.33329e-07
5.67154e-09
3.33342e-07
6.02534e-09
3.33409e-07
6.1365e-09
3.33592e-07
6.42595e-09
3.33749e-07
6.71005e-09
3.33996e-07
6.99442e-09
3.3424e-07
7.30399e-09
3.34352e-07
7.43282e-09
3.34435e-07
7.3326e-09
3.3468e-07
7.31433e-09
3.34882e-07
6.95253e-09
3.35009e-07
6.22571e-09
3.35002e-07
5.55907e-09
3.34934e-07
4.4877e-09
3.34796e-07
3.26804e-09
3.34543e-07
1.74046e-09
3.34259e-07
1.0852e-09
6.39839e-10
6.66012e-07
-6.65998e-07
6.66082e-07
6.66302e-07
6.66329e-07
6.66393e-07
6.66541e-07
6.66561e-07
6.66692e-07
6.66883e-07
6.66941e-07
6.66968e-07
6.66971e-07
6.67083e-07
6.67345e-07
6.67568e-07
6.67682e-07
6.67777e-07
6.67891e-07
6.68049e-07
6.68071e-07
6.68016e-07
6.67853e-07
6.6764e-07
6.67442e-07
1.37318e-07
-1.61795e-10
1.37298e-07
-2.88088e-10
1.37014e-07
2.36823e-10
1.36601e-07
-1.83842e-10
1.3604e-07
9.16177e-10
2.09383e-09
1.63096e-07
-2.2426e-11
1.6287e-07
-6.12531e-11
1.62548e-07
5.58404e-10
1.61953e-07
4.11201e-10
1.61713e-07
1.1559e-09
2.13304e-09
1.94036e-07
6.27782e-11
1.93667e-07
3.07425e-10
1.93468e-07
7.5756e-10
1.92933e-07
9.46069e-10
1.92635e-07
1.45444e-09
2.22273e-09
2.30735e-07
1.78349e-10
2.30441e-07
6.01405e-10
2.30152e-07
1.04644e-09
2.29759e-07
1.33895e-09
2.29439e-07
1.77404e-09
2.33664e-09
2.74409e-07
2.97926e-10
2.74145e-07
8.65256e-10
2.73838e-07
1.35326e-09
2.73511e-07
1.66656e-09
2.73349e-07
1.93577e-09
2.34707e-09
3.33217e-07
4.13967e-10
3.32979e-07
1.10337e-09
3.32739e-07
1.5938e-09
3.32513e-07
1.89228e-09
3.32346e-07
2.10311e-09
2.34807e-09
6.66573e-07
6.66386e-07
6.6619e-07
6.66013e-07
6.65923e-07
)
;

boundaryField
{
    top
    {
        type            calculated;
        value           nonuniform List<scalar> 
31
(
2.26989e-09
2.62524e-09
3.07625e-09
3.73464e-09
4.17684e-09
4.73005e-09
5.28588e-09
5.54035e-09
5.83411e-09
6.07911e-09
6.39913e-09
6.70663e-09
6.88203e-09
7.0425e-09
7.20937e-09
7.2194e-09
7.21884e-09
6.8383e-09
6.06826e-09
5.53662e-09
4.54265e-09
3.43154e-09
1.95355e-09
1.28268e-09
7.90092e-10
5.07263e-10
1.29033e-09
1.78983e-09
2.0693e-09
2.19319e-09
2.27342e-09
)
;
    }
    inlet
    {
        type            calculated;
        value           nonuniform List<scalar> 7(-3.33333e-07 -6.66667e-07 -1.37264e-07 -1.63236e-07 -1.94121e-07 -2.3085e-07 -2.74529e-07);
    }
    outlet
    {
        type            calculated;
        value           nonuniform List<scalar> 7(3.3398e-07 6.67292e-07 4.49461e-08 1.29216e-07 1.8693e-07 2.30371e-07 2.75085e-07);
    }
    plate
    {
        type            calculated;
        value           uniform 0;
    }
    symmBound
    {
        type            calculated;
        value           nonuniform List<scalar> 6(1.0836e-10 3.08092e-10 4.71811e-11 5.96645e-10 -3.55201e-10 -1.12229e-09);
    }
    frontAndBack
    {
        type            empty;
        value           nonuniform 0();
    }
}


// ************************************************************************* //
