/*--------------------------------*- C++ -*----------------------------------*\
| =========                 |                                                 |
| \\      /  F ield         | OpenFOAM: The Open Source CFD Toolbox           |
|  \\    /   O peration     | Version:  2.3.0                                 |
|   \\  /    A nd           | Web:      www.OpenFOAM.org                      |
|    \\/     M anipulation  |                                                 |
\*---------------------------------------------------------------------------*/
FoamFile
{
    version     2.0;
    format      ascii;
    class       volVectorField;
    location    "0.4";
    object      U;
}
// * * * * * * * * * * * * * * * * * * * * * * * * * * * * * * * * * * * * * //

dimensions      [0 1 -1 0 0 0 0];

internalField   nonuniform List<vector> 
217
(
(0.195388 0.00134489 0)
(0.189083 0.00190178 0)
(0.183011 0.00204262 0)
(0.177671 0.00200932 0)
(0.171888 0.00212069 0)
(0.16526 0.00210493 0)
(0.158446 0.00201202 0)
(0.151579 0.00201843 0)
(0.144416 0.00201842 0)
(0.136924 0.00189069 0)
(0.129636 0.00181866 0)
(0.122387 0.00193292 0)
(0.114363 0.00191503 0)
(0.106003 0.00162935 0)
(0.0982998 0.0014061 0)
(0.0913065 0.00135602 0)
(0.0843232 0.00125773 0)
(0.0775661 0.000967306 0)
(0.0717968 0.0005731 0)
(0.0674303 0.000232145 0)
(0.0644861 -7.99097e-05 0)
(0.0629402 -0.000327557 0)
(0.0630017 -0.000456542 0)
(0.0637781 -0.000449048 0)
(0.0651952 -0.00020708 0)
(0.198925 0.00227979 0)
(0.198654 0.00315555 0)
(0.198043 0.00348602 0)
(0.197858 0.0032993 0)
(0.197651 0.00336269 0)
(0.197182 0.00362092 0)
(0.196421 0.00364457 0)
(0.19514 0.00363614 0)
(0.19373 0.0037304 0)
(0.192196 0.00375461 0)
(0.190215 0.00361805 0)
(0.188111 0.0036077 0)
(0.185903 0.00392162 0)
(0.183298 0.00398803 0)
(0.180386 0.00357069 0)
(0.177214 0.00322989 0)
(0.17418 0.00322846 0)
(0.170945 0.00302615 0)
(0.168158 0.00253313 0)
(0.165022 0.00198237 0)
(0.162993 0.00147045 0)
(0.160663 0.000805961 0)
(0.159556 0.000180021 0)
(0.158567 -0.000129082 0)
(0.158096 -0.000160204 0)
(0.199007 0.00187279 0)
(0.199013 0.00251859 0)
(0.198891 0.00278821 0)
(0.199032 0.00256939 0)
(0.199077 0.00277731 0)
(0.199279 0.00312395 0)
(0.199601 0.00324839 0)
(0.1996 0.00341074 0)
(0.199548 0.00348185 0)
(0.199513 0.00346711 0)
(0.199222 0.00349223 0)
(0.198938 0.00359724 0)
(0.198873 0.00394965 0)
(0.198799 0.00399775 0)
(0.198406 0.0036848 0)
(0.197749 0.00346868 0)
(0.197305 0.00359036 0)
(0.196793 0.00327354 0)
(0.196226 0.00274869 0)
(0.195442 0.00218472 0)
(0.195034 0.00159674 0)
(0.194327 0.000891577 0)
(0.193588 0.000108794 0)
(0.192993 -0.000143897 0)
(0.19249 -0.000148137 0)
(0.199154 0.00170124 0)
(0.199209 0.00225975 0)
(0.199202 0.00267432 0)
(0.19941 0.00269726 0)
(0.199293 0.00292282 0)
(0.199326 0.00321331 0)
(0.199755 0.00338809 0)
(0.199956 0.00355844 0)
(0.200036 0.00357954 0)
(0.200075 0.00362347 0)
(0.200045 0.00372926 0)
(0.200162 0.00377929 0)
(0.200285 0.00398101 0)
(0.200475 0.00398312 0)
(0.200653 0.00377955 0)
(0.200698 0.00366319 0)
(0.200708 0.00367862 0)
(0.201024 0.00334169 0)
(0.200963 0.00287259 0)
(0.200973 0.00235353 0)
(0.200856 0.00177994 0)
(0.20093 0.00116255 0)
(0.200417 0.000472793 0)
(0.199987 0.000220887 0)
(0.199522 6.61753e-05 0)
(0.199441 0.001728 0)
(0.199402 0.00209989 0)
(0.19932 0.00252948 0)
(0.19953 0.00258273 0)
(0.199527 0.00282009 0)
(0.199512 0.00319096 0)
(0.19978 0.00330695 0)
(0.199949 0.00345951 0)
(0.200108 0.00353652 0)
(0.200177 0.00351186 0)
(0.200072 0.00362421 0)
(0.200205 0.0036113 0)
(0.200378 0.00370184 0)
(0.200532 0.00381776 0)
(0.200667 0.00375104 0)
(0.200789 0.00350014 0)
(0.200894 0.00343927 0)
(0.20127 0.00319805 0)
(0.201226 0.00275707 0)
(0.201328 0.00227675 0)
(0.2013 0.00176253 0)
(0.201467 0.00123405 0)
(0.200995 0.000497543 0)
(0.200704 0.000168699 0)
(0.200362 3.29334e-05 0)
(0.199604 0.00168748 0)
(0.199706 0.00194298 0)
(0.199532 0.00231489 0)
(0.199623 0.00253269 0)
(0.19975 0.00275643 0)
(0.199618 0.00305163 0)
(0.199822 0.00320068 0)
(0.200061 0.00335561 0)
(0.200073 0.00345072 0)
(0.200078 0.00342479 0)
(0.200041 0.0035254 0)
(0.2002 0.00356727 0)
(0.200398 0.00362152 0)
(0.200471 0.0036792 0)
(0.200453 0.00356876 0)
(0.200591 0.00342296 0)
(0.200687 0.00339124 0)
(0.20099 0.00309731 0)
(0.200913 0.00264587 0)
(0.201044 0.00231682 0)
(0.200998 0.00184269 0)
(0.201123 0.00125017 0)
(0.200809 0.000635186 0)
(0.200679 0.000412612 0)
(0.200374 0.000233878 0)
(0.199905 0.00168717 0)
(0.19991 0.00189161 0)
(0.199827 0.00213329 0)
(0.199866 0.00248072 0)
(0.199895 0.00266576 0)
(0.199843 0.00292677 0)
(0.199943 0.00320182 0)
(0.200003 0.00327335 0)
(0.200037 0.00336239 0)
(0.200139 0.00339404 0)
(0.200057 0.00345717 0)
(0.200064 0.0035575 0)
(0.200194 0.00354927 0)
(0.200138 0.00347431 0)
(0.200125 0.00348978 0)
(0.200318 0.00341315 0)
(0.200344 0.0032571 0)
(0.20033 0.00300377 0)
(0.200404 0.00261842 0)
(0.200472 0.00228436 0)
(0.200383 0.00178947 0)
(0.200435 0.00133663 0)
(0.200379 0.000761368 0)
(0.20027 0.000466049 0)
(0.200161 0.000276541 0)
(0.193929 -4.24509e-05 0)
(0.205552 -9.16073e-05 0)
(0.194623 1.26384e-05 0)
(0.203634 -0.000208243 0)
(0.194877 0.000222502 0)
(0.202374 0.000780126 0)
(0.199206 -2.67765e-05 0)
(0.200348 -0.000111336 0)
(0.199307 0.000188845 0)
(0.199441 4.20418e-05 0)
(0.198712 0.000537794 0)
(0.198774 0.0013061 0)
(0.199945 1.03985e-05 0)
(0.19989 7.72704e-05 0)
(0.199761 0.000277182 0)
(0.199565 0.000350693 0)
(0.199138 0.00067996 0)
(0.198859 0.001306 0)
(0.199992 3.30009e-05 0)
(0.199896 0.000148878 0)
(0.199808 0.000339619 0)
(0.199741 0.000521618 0)
(0.199455 0.000840985 0)
(0.199099 0.00130987 0)
(0.199996 6.86317e-05 0)
(0.199934 0.000246008 0)
(0.199855 0.000473235 0)
(0.199803 0.000682194 0)
(0.199679 0.000937026 0)
(0.199462 0.00139047 0)
(0.199997 0.000104834 0)
(0.199961 0.000329909 0)
(0.199908 0.00057228 0)
(0.199888 0.000818986 0)
(0.19987 0.0010649 0)
(0.199662 0.001398 0)
(0.199998 0.000137077 0)
(0.199991 0.000414518 0)
(0.199978 0.000674778 0)
(0.199969 0.000935325 0)
(0.199972 0.00115323 0)
(0.199927 0.0013703 0)
)
;

boundaryField
{
    top
    {
        type            zeroGradient;
    }
    inlet
    {
        type            fixedValue;
        value           uniform (0.2 0 0);
    }
    outlet
    {
        type            zeroGradient;
    }
    plate
    {
        type            fixedValue;
        value           uniform (0 0 0);
    }
    symmBound
    {
        type            zeroGradient;
    }
    frontAndBack
    {
        type            empty;
    }
}


// ************************************************************************* //
