/*--------------------------------*- C++ -*----------------------------------*\
| =========                 |                                                 |
| \\      /  F ield         | OpenFOAM: The Open Source CFD Toolbox           |
|  \\    /   O peration     | Version:  2.3.0                                 |
|   \\  /    A nd           | Web:      www.OpenFOAM.org                      |
|    \\/     M anipulation  |                                                 |
\*---------------------------------------------------------------------------*/
FoamFile
{
    version     2.0;
    format      ascii;
    class       surfaceScalarField;
    location    "0.25";
    object      phi_0;
}
// * * * * * * * * * * * * * * * * * * * * * * * * * * * * * * * * * * * * * //

dimensions      [0 3 -1 0 0 0 0];

internalField   nonuniform List<scalar> 
5764
(
1.78633e-08
5.91488e-09
-2.37781e-08
1.25544e-08
5.30882e-09
8.96719e-09
3.58724e-09
6.92174e-09
2.04545e-09
5.85756e-09
1.06418e-09
5.28903e-09
5.68528e-10
4.92685e-09
3.62186e-10
4.64083e-09
2.8602e-10
4.38999e-09
2.50839e-10
4.16678e-09
2.2321e-10
3.96971e-09
1.97065e-10
3.79608e-09
1.73631e-10
3.64224e-09
1.53845e-10
3.50476e-09
1.37476e-10
3.38091e-09
1.23847e-10
3.2686e-09
1.12314e-10
3.16621e-09
1.02392e-10
3.07247e-09
9.37337e-11
2.98638e-09
8.60923e-11
2.90709e-09
7.92857e-11
2.83392e-09
7.31741e-11
2.76627e-09
6.76464e-11
2.70366e-09
6.2612e-11
2.64567e-09
5.79964e-11
2.59193e-09
5.37376e-11
2.54214e-09
4.97836e-11
2.49605e-09
4.60905e-11
2.45343e-09
4.2621e-11
2.41409e-09
3.9343e-11
2.37786e-09
3.62287e-11
2.34461e-09
3.32534e-11
2.31421e-09
3.03953e-11
2.28658e-09
2.76351e-11
2.26162e-09
2.49555e-11
2.23928e-09
2.23412e-11
2.2195e-09
1.97775e-11
2.20225e-09
1.72501e-11
2.18751e-09
1.47476e-11
2.17524e-09
1.22679e-11
2.16541e-09
9.8285e-12
2.15793e-09
7.47499e-12
2.15265e-09
5.28242e-12
2.14931e-09
3.34443e-12
2.14756e-09
1.74716e-12
2.14702e-09
5.37248e-13
2.14729e-09
-2.71122e-13
2.14803e-09
-7.33338e-13
2.14896e-09
-9.37769e-13
2.14996e-09
-9.90269e-13
2.15093e-09
-9.74007e-13
2.15189e-09
-9.59455e-13
2.15286e-09
-9.73609e-13
2.15388e-09
-1.02125e-12
2.15497e-09
-1.08722e-12
2.15613e-09
-1.15635e-12
2.15734e-09
-1.2148e-12
2.1586e-09
-1.25459e-12
2.15987e-09
-1.27108e-12
2.16113e-09
-1.26685e-12
2.16238e-09
-1.2445e-12
2.16358e-09
-1.20542e-12
2.16474e-09
-1.15573e-12
2.16584e-09
-1.09616e-12
2.16686e-09
-1.02837e-12
2.16782e-09
-9.53984e-13
2.16869e-09
-8.75025e-13
2.16949e-09
-7.94479e-13
2.1702e-09
-7.16053e-13
2.17085e-09
-6.42395e-13
2.17142e-09
-5.75644e-13
2.17194e-09
-5.13145e-13
2.1724e-09
-4.59855e-13
2.17281e-09
-4.11697e-13
2.17313e-09
-3.1956e-13
-3.77358e-13
2.74613e-08
5.93612e-09
-2.74826e-08
2.58904e-08
6.87976e-09
2.34271e-08
6.0505e-09
2.09198e-08
4.55277e-09
1.87717e-08
3.21227e-09
1.70589e-08
2.28134e-09
1.57184e-08
1.70264e-09
1.4656e-08
1.34844e-09
1.37897e-08
1.11713e-09
1.3062e-08
9.50963e-10
1.2436e-08
8.23083e-10
1.18883e-08
7.21292e-10
1.14033e-08
6.3884e-10
1.09697e-08
5.71044e-10
1.05792e-08
5.14417e-10
1.02251e-08
4.66387e-10
9.90242e-09
4.25072e-10
9.60707e-09
3.89087e-10
9.33576e-09
3.57404e-10
9.0858e-09
3.29242e-10
8.85498e-09
3.03994e-10
8.64144e-09
2.81181e-10
8.44364e-09
2.60414e-10
8.26027e-09
2.41374e-10
8.0902e-09
2.238e-10
7.93252e-09
2.07471e-10
7.78641e-09
1.92201e-10
7.65119e-09
1.77833e-10
7.5263e-09
1.64232e-10
7.41125e-09
1.51282e-10
7.30562e-09
1.38883e-10
7.20907e-09
1.26947e-10
7.1213e-09
1.154e-10
7.04208e-09
1.04179e-10
6.97119e-09
9.32333e-11
6.90844e-09
8.25231e-11
6.85367e-09
7.20217e-11
6.80669e-09
6.17265e-11
6.76728e-09
5.16798e-11
6.73512e-09
4.19923e-11
6.70974e-09
3.28568e-11
6.69048e-09
2.45351e-11
6.67652e-09
1.73099e-11
6.66685e-09
1.14106e-11
6.66045e-09
6.93602e-12
6.65636e-09
3.82586e-12
6.65376e-09
1.86221e-12
6.6521e-09
7.28587e-13
6.65102e-09
8.25662e-14
6.65039e-09
-3.4182e-13
6.65018e-09
-7.45525e-13
6.65041e-09
-1.20188e-12
6.6511e-09
-1.71473e-12
6.65225e-09
-2.23559e-12
6.65381e-09
-2.71843e-12
6.65572e-09
-3.12394e-12
6.6579e-09
-3.43355e-12
6.66027e-09
-3.64036e-12
6.66276e-09
-3.75576e-12
6.6653e-09
-3.79225e-12
6.66786e-09
-3.75893e-12
6.67038e-09
-3.67392e-12
6.67282e-09
-3.54267e-12
6.67517e-09
-3.37218e-12
6.67738e-09
-3.16919e-12
6.67945e-09
-2.94145e-12
6.68135e-09
-2.69866e-12
6.68309e-09
-2.45169e-12
6.68465e-09
-2.2089e-12
6.68605e-09
-1.9771e-12
6.68729e-09
-1.75288e-12
6.68839e-09
-1.55586e-12
6.68934e-09
-1.35673e-12
6.69017e-09
-1.1538e-12
-1.08137e-12
2.89275e-08
5.18183e-09
-2.81732e-08
2.94979e-08
6.3094e-09
2.93325e-08
6.21588e-09
2.85113e-08
5.37393e-09
2.73333e-08
4.39026e-09
2.6046e-08
3.56869e-09
2.47883e-08
2.96029e-09
2.36191e-08
2.51763e-09
2.25533e-08
2.18294e-09
2.15875e-08
1.91683e-09
2.07125e-08
1.69809e-09
1.99183e-08
1.51541e-09
1.91956e-08
1.36154e-09
1.85358e-08
1.23084e-09
1.79315e-08
1.11879e-09
1.73761e-08
1.02179e-09
1.68641e-08
9.37037e-10
1.63909e-08
8.62305e-10
1.59524e-08
7.95852e-10
1.55454e-08
7.36292e-10
1.51669e-08
6.8251e-10
1.48145e-08
6.33601e-10
1.4486e-08
5.8882e-10
1.41799e-08
5.47547e-10
1.38944e-08
5.09263e-10
1.36284e-08
4.73528e-10
1.33806e-08
4.39968e-10
1.31502e-08
4.08263e-10
1.29363e-08
3.78135e-10
1.27382e-08
3.49345e-10
1.25554e-08
3.21685e-10
1.23874e-08
2.94976e-10
1.22337e-08
2.69069e-10
1.2094e-08
2.43842e-10
1.19681e-08
2.19204e-10
1.18555e-08
1.95092e-10
1.1756e-08
1.71487e-10
1.16693e-08
1.48425e-10
1.1595e-08
1.2604e-10
1.15324e-08
1.04591e-10
1.14807e-08
8.44801e-11
1.14391e-08
6.62158e-11
1.14061e-08
5.03178e-11
1.13803e-08
3.71858e-11
1.13602e-08
2.6971e-11
1.13446e-08
1.95176e-11
1.1332e-08
1.43866e-11
1.13218e-08
1.09605e-11
1.13133e-08
8.5866e-12
1.13062e-08
6.73112e-12
1.13005e-08
5.02374e-12
1.12959e-08
3.30646e-12
1.12927e-08
1.56455e-12
1.12905e-08
-1.19013e-13
1.12895e-08
-1.65995e-12
1.12894e-08
-2.98804e-12
1.129e-08
-4.07183e-12
1.12913e-08
-4.9035e-12
1.1293e-08
-5.50865e-12
1.12951e-08
-5.91633e-12
1.12975e-08
-6.14959e-12
1.13001e-08
-6.2451e-12
1.13028e-08
-6.21787e-12
1.13055e-08
-6.08435e-12
1.13082e-08
-5.85908e-12
1.13108e-08
-5.55725e-12
1.13133e-08
-5.19659e-12
1.13156e-08
-4.79655e-12
1.13178e-08
-4.37394e-12
1.13198e-08
-3.94417e-12
1.13215e-08
-3.50883e-12
1.13231e-08
-3.11088e-12
1.13244e-08
-2.69014e-12
1.13256e-08
-2.39345e-12
-1.9971e-12
2.94857e-08
4.70322e-09
-2.90071e-08
3.01617e-08
5.63343e-09
3.06886e-08
5.68898e-09
3.08796e-08
5.18284e-09
3.07359e-08
4.53402e-09
3.03436e-08
3.96102e-09
2.97943e-08
3.50953e-09
2.91558e-08
3.15618e-09
2.8471e-08
2.86772e-09
2.7767e-08
2.62079e-09
2.70618e-08
2.40332e-09
2.63674e-08
2.20979e-09
2.56919e-08
2.03703e-09
2.50403e-08
1.88245e-09
2.44154e-08
1.74368e-09
2.38186e-08
1.61861e-09
2.32503e-08
1.50539e-09
2.27101e-08
1.40246e-09
2.21975e-08
1.30845e-09
2.17116e-08
1.22221e-09
2.12514e-08
1.14274e-09
2.08158e-08
1.06915e-09
2.04039e-08
1.00068e-09
2.00148e-08
9.36676e-10
1.96475e-08
8.76543e-10
1.93013e-08
8.19765e-10
1.89754e-08
7.65885e-10
1.86691e-08
7.14498e-10
1.8382e-08
6.65247e-10
1.81136e-08
6.17813e-10
1.78633e-08
5.71918e-10
1.7631e-08
5.27318e-10
1.74162e-08
4.83814e-10
1.72188e-08
4.41244e-10
1.70385e-08
3.995e-10
1.68751e-08
3.58523e-10
1.67283e-08
3.18328e-10
1.65977e-08
2.79029e-10
1.64828e-08
2.4088e-10
1.63831e-08
2.04322e-10
1.62976e-08
1.69986e-10
1.62252e-08
1.38639e-10
1.61644e-08
1.11049e-10
1.61138e-08
8.78066e-11
1.60716e-08
6.9145e-11
1.60363e-08
5.48547e-11
1.60064e-08
4.43101e-11
1.59807e-08
3.66112e-11
1.59585e-08
3.07883e-11
1.59393e-08
2.60101e-11
1.59226e-08
2.16875e-11
1.59084e-08
1.75296e-11
1.58965e-08
1.34764e-11
1.58867e-08
9.61222e-12
1.5879e-08
6.05518e-12
1.58731e-08
2.90716e-12
1.58688e-08
2.20179e-13
1.58659e-08
-1.99046e-12
1.58642e-08
-3.76484e-12
1.58634e-08
-5.1511e-12
1.58634e-08
-6.19003e-12
1.58641e-08
-6.94415e-12
1.58654e-08
-7.44349e-12
1.5867e-08
-7.72016e-12
1.58689e-08
-7.80069e-12
1.58711e-08
-7.70967e-12
1.58734e-08
-7.47228e-12
1.58757e-08
-7.11412e-12
1.5878e-08
-6.6581e-12
1.58802e-08
-6.12794e-12
1.58822e-08
-5.53395e-12
1.5884e-08
-4.95036e-12
1.58856e-08
-4.29165e-12
1.58872e-08
-3.93563e-12
-3.07189e-12
3.03284e-08
4.36781e-09
-2.9993e-08
3.07953e-08
5.16649e-09
3.12364e-08
5.24789e-09
3.15595e-08
4.85969e-09
3.17408e-08
4.35279e-09
3.17911e-08
3.91063e-09
3.17323e-08
3.56839e-09
3.15839e-08
3.30454e-09
3.1361e-08
3.09065e-09
3.10757e-08
2.90613e-09
3.07393e-08
2.73967e-09
3.03629e-08
2.58619e-09
2.99565e-08
2.44342e-09
2.95289e-08
2.31004e-09
2.90876e-08
2.185e-09
2.86387e-08
2.06748e-09
2.81873e-08
1.95678e-09
2.77375e-08
1.85231e-09
2.72924e-08
1.75351e-09
2.68547e-08
1.65991e-09
2.64264e-08
1.57104e-09
2.60091e-08
1.48647e-09
2.5604e-08
1.40579e-09
2.52121e-08
1.3286e-09
2.48341e-08
1.25454e-09
2.44706e-08
1.18323e-09
2.41221e-08
1.11435e-09
2.37891e-08
1.04758e-09
2.34717e-08
9.82629e-10
2.31703e-08
9.1922e-10
2.28851e-08
8.57107e-10
2.26163e-08
7.96075e-10
2.23642e-08
7.35944e-10
2.21288e-08
6.76583e-10
2.19104e-08
6.17918e-10
2.1709e-08
5.59948e-10
2.15246e-08
5.02767e-10
2.1357e-08
4.46604e-10
2.1206e-08
3.91867e-10
2.10711e-08
3.39189e-10
2.09517e-08
2.89429e-10
2.08467e-08
2.43596e-10
2.07551e-08
2.02691e-10
2.06754e-08
1.67496e-10
2.06062e-08
1.38361e-10
2.0546e-08
1.15094e-10
2.04933e-08
9.69819e-11
2.04469e-08
8.2943e-11
2.0406e-08
7.17686e-11
2.03696e-08
6.23697e-11
2.03374e-08
5.39322e-11
2.03089e-08
4.5995e-11
2.0284e-08
3.83996e-11
2.02624e-08
3.11906e-11
2.0244e-08
2.44938e-11
2.02284e-08
1.84374e-11
2.02155e-08
1.3101e-11
2.0205e-08
8.51097e-12
2.01966e-08
4.63151e-12
2.01901e-08
1.39837e-12
2.01851e-08
-1.2413e-12
2.01816e-08
-3.37929e-12
2.01792e-08
-5.06429e-12
2.01778e-08
-6.35069e-12
2.01773e-08
-7.28496e-12
2.01775e-08
-7.90854e-12
2.01783e-08
-8.25781e-12
2.01796e-08
-8.36176e-12
2.01811e-08
-8.24027e-12
2.01829e-08
-7.91343e-12
2.01848e-08
-7.39114e-12
2.01866e-08
-6.77785e-12
2.01883e-08
-5.96644e-12
2.019e-08
-5.63704e-12
-4.22811e-12
3.12872e-08
4.08387e-09
-3.10033e-08
3.1661e-08
4.79272e-09
3.19956e-08
4.91322e-09
3.22405e-08
4.61483e-09
3.24047e-08
4.18858e-09
3.25111e-08
3.80422e-09
3.25762e-08
3.50329e-09
3.26073e-08
3.27344e-09
3.26051e-08
3.09291e-09
3.25675e-08
2.94369e-09
3.24933e-08
2.81391e-09
3.23826e-08
2.69683e-09
3.22374e-08
2.58869e-09
3.20603e-08
2.48713e-09
3.18547e-08
2.39056e-09
3.16243e-08
2.29786e-09
3.13729e-08
2.20828e-09
3.11039e-08
2.1213e-09
3.08208e-08
2.03659e-09
3.05268e-08
1.95387e-09
3.02249e-08
1.87294e-09
2.99178e-08
1.79364e-09
2.96077e-08
1.71582e-09
2.9297e-08
1.63932e-09
2.89876e-08
1.56399e-09
2.86811e-08
1.48969e-09
2.83792e-08
1.41625e-09
2.80833e-08
1.34351e-09
2.77946e-08
1.27132e-09
2.75143e-08
1.19953e-09
2.72434e-08
1.12799e-09
2.69829e-08
1.05658e-09
2.67336e-08
9.85223e-10
2.64963e-08
9.13863e-10
2.62717e-08
8.42521e-10
2.60604e-08
7.71301e-10
2.58627e-08
7.00418e-10
2.56791e-08
6.30244e-10
2.55096e-08
5.61361e-10
2.53542e-08
4.94596e-10
2.52126e-08
4.31017e-10
2.50843e-08
3.71845e-10
2.49688e-08
3.18284e-10
2.4865e-08
2.71288e-10
2.4772e-08
2.31343e-10
2.46887e-08
1.9834e-10
2.46141e-08
1.71586e-10
2.45471e-08
1.49953e-10
2.44868e-08
1.32126e-10
2.44323e-08
1.16858e-10
2.4383e-08
1.03162e-10
2.43386e-08
9.04085e-11
2.42987e-08
7.83057e-11
2.42631e-08
6.68143e-11
2.42316e-08
5.60297e-11
2.42039e-08
4.60883e-11
2.41799e-08
3.71012e-11
2.41593e-08
2.91271e-11
2.41418e-08
2.21555e-11
2.4127e-08
1.61311e-11
2.41148e-08
1.09863e-11
2.41048e-08
6.62097e-12
2.40968e-08
2.96429e-12
2.40905e-08
-5.68181e-14
2.40857e-08
-2.51506e-12
2.40823e-08
-4.48094e-12
2.40801e-08
-6.01704e-12
2.40789e-08
-7.16536e-12
2.40786e-08
-7.93883e-12
2.4079e-08
-8.33478e-12
2.40799e-08
-8.33541e-12
2.40812e-08
-8.05184e-12
2.40826e-08
-7.34155e-12
2.40842e-08
-7.22691e-12
-5.31931e-12
3.2272e-08
3.83745e-09
-3.20256e-08
3.2601e-08
4.46375e-09
3.28956e-08
4.61866e-09
3.31032e-08
4.40719e-09
3.3233e-08
4.05873e-09
3.33133e-08
3.72398e-09
3.33672e-08
3.44933e-09
3.34083e-08
3.23238e-09
3.34413e-08
3.05991e-09
3.34658e-08
2.91919e-09
3.34792e-08
2.80045e-09
3.34789e-08
2.69715e-09
3.34626e-08
2.60505e-09
3.34285e-08
2.52116e-09
3.33759e-08
2.44323e-09
3.33042e-08
2.36952e-09
3.32137e-08
2.29875e-09
3.31051e-08
2.22995e-09
3.29792e-08
2.16242e-09
3.28375e-08
2.09562e-09
3.26812e-08
2.02918e-09
3.25121e-08
1.96278e-09
3.23317e-08
1.89621e-09
3.21417e-08
1.82929e-09
3.19439e-08
1.76186e-09
3.17398e-08
1.69379e-09
3.15311e-08
1.62496e-09
3.13193e-08
1.55527e-09
3.1106e-08
1.48461e-09
3.08926e-08
1.4129e-09
3.06806e-08
1.34007e-09
3.04711e-08
1.26606e-09
3.02655e-08
1.19086e-09
3.00648e-08
1.1145e-09
2.98702e-08
1.0371e-09
2.96827e-08
9.58861e-10
2.9503e-08
8.80109e-10
2.93319e-08
8.01356e-10
2.91699e-08
7.23335e-10
2.90175e-08
6.4704e-10
2.88748e-08
5.73707e-10
2.87419e-08
5.04722e-10
2.86187e-08
4.41441e-10
2.85051e-08
3.84958e-10
2.84005e-08
3.35889e-10
2.83046e-08
2.94244e-10
2.82168e-08
2.59433e-10
2.81363e-08
2.30406e-10
2.80626e-08
2.05878e-10
2.79949e-08
1.84574e-10
2.79326e-08
1.6542e-10
2.78753e-08
1.47654e-10
2.78228e-08
1.3084e-10
2.77748e-08
1.14818e-10
2.77312e-08
9.96079e-11
2.7692e-08
8.53288e-11
2.7657e-08
7.21215e-11
2.7626e-08
6.00992e-11
2.75988e-08
4.93098e-11
2.75752e-08
3.97399e-11
2.75549e-08
3.13355e-11
2.75375e-08
2.4002e-11
2.75228e-08
1.76595e-11
2.75105e-08
1.22268e-11
2.75004e-08
7.6147e-12
2.74922e-08
3.72017e-12
2.74857e-08
4.351e-13
2.74809e-08
-2.32321e-12
2.74775e-08
-4.57966e-12
2.74755e-08
-6.30404e-12
2.74746e-08
-7.4213e-12
2.74745e-08
-8.00429e-12
2.7475e-08
-7.83631e-12
2.74761e-08
-8.25065e-12
-6.09488e-12
3.32794e-08
3.62373e-09
-3.30657e-08
3.35699e-08
4.17329e-09
3.38397e-08
4.34884e-09
3.40366e-08
4.21033e-09
3.41611e-08
3.93427e-09
3.42348e-08
3.65025e-09
3.42789e-08
3.40521e-09
3.43081e-08
3.20318e-09
3.43308e-08
3.03723e-09
3.43506e-08
2.89943e-09
3.43683e-08
2.78272e-09
3.43836e-08
2.68182e-09
3.43956e-08
2.59309e-09
3.44029e-08
2.51383e-09
3.44043e-08
2.44186e-09
3.43984e-08
2.37542e-09
3.43841e-08
2.31306e-09
3.43604e-08
2.25361e-09
3.43267e-08
2.19612e-09
3.42825e-08
2.13981e-09
3.42277e-08
2.08406e-09
3.41621e-08
2.02834e-09
3.40861e-08
1.97221e-09
3.40001e-08
1.91532e-09
3.39046e-08
1.85736e-09
3.38003e-08
1.79806e-09
3.3688e-08
1.73721e-09
3.35687e-08
1.6746e-09
3.34432e-08
1.61007e-09
3.33127e-08
1.54349e-09
3.3178e-08
1.47476e-09
3.30402e-08
1.40379e-09
3.29005e-08
1.33058e-09
3.27598e-08
1.25518e-09
3.26192e-08
1.17773e-09
3.24796e-08
1.09846e-09
3.23419e-08
1.01776e-09
3.22071e-08
9.36237e-10
3.20757e-08
8.54694e-10
3.19485e-08
7.74225e-10
3.18261e-08
6.96166e-10
3.17088e-08
6.21995e-10
3.15971e-08
5.53153e-10
3.14912e-08
4.90816e-10
3.13914e-08
4.35694e-10
3.12977e-08
3.87913e-10
3.12102e-08
3.47026e-10
3.11284e-08
3.12142e-10
3.10522e-08
2.82119e-10
3.0981e-08
2.55777e-10
3.09143e-08
2.3205e-10
3.08519e-08
2.101e-10
3.07934e-08
1.89351e-10
3.07387e-08
1.69482e-10
3.06879e-08
1.50391e-10
3.06411e-08
1.32132e-10
3.05984e-08
1.14857e-10
3.05598e-08
9.87475e-11
3.05251e-08
8.39478e-11
3.04943e-08
7.05322e-11
3.04672e-08
5.85019e-11
3.04434e-08
4.77921e-11
3.04227e-08
3.83328e-11
3.04049e-08
3.00528e-11
3.03896e-08
2.28669e-11
3.03767e-08
1.6653e-11
3.03659e-08
1.12524e-11
3.0357e-08
6.51652e-12
3.03501e-08
2.37298e-12
3.03449e-08
-1.14906e-12
3.03414e-08
-3.91543e-12
3.03393e-08
-5.9197e-12
3.03383e-08
-6.82526e-12
3.03382e-08
-8.14772e-12
-6.22506e-12
3.4313e-08
3.43692e-09
-3.41262e-08
3.45683e-08
3.91802e-09
3.48138e-08
4.10335e-09
3.50017e-08
4.02248e-09
3.51272e-08
3.80878e-09
3.52055e-08
3.57186e-09
3.52534e-08
3.3574e-09
3.5283e-08
3.17352e-09
3.53026e-08
3.01763e-09
3.53168e-08
2.8852e-09
3.53282e-08
2.7714e-09
3.53379e-08
2.67211e-09
3.53466e-08
2.58432e-09
3.53547e-08
2.50578e-09
3.53619e-08
2.4347e-09
3.53677e-08
2.36953e-09
3.53718e-08
2.30899e-09
3.53734e-08
2.25202e-09
3.53718e-08
2.19769e-09
3.53664e-08
2.14523e-09
3.53565e-08
2.09396e-09
3.53416e-08
2.04327e-09
3.53212e-08
1.99263e-09
3.52949e-08
1.94159e-09
3.52625e-08
1.88972e-09
3.52239e-08
1.83664e-09
3.51791e-08
1.78202e-09
3.51282e-08
1.72555e-09
3.50713e-08
1.66696e-09
3.50088e-08
1.60603e-09
3.49409e-08
1.54257e-09
3.48683e-08
1.47643e-09
3.47913e-08
1.40754e-09
3.47106e-08
1.3359e-09
3.46267e-08
1.26161e-09
3.45403e-08
1.1849e-09
3.44519e-08
1.10614e-09
3.43623e-08
1.02591e-09
3.42719e-08
9.45046e-10
3.41815e-08
8.64649e-10
3.40916e-08
7.86062e-10
3.40028e-08
7.10774e-10
3.39157e-08
6.40231e-10
3.38309e-08
5.75624e-10
3.37489e-08
5.17697e-10
3.36702e-08
4.6665e-10
3.3595e-08
4.22171e-10
3.35236e-08
3.83554e-10
3.34559e-08
3.49873e-10
3.33915e-08
3.2013e-10
3.33302e-08
2.93364e-10
3.32716e-08
2.68722e-10
3.32154e-08
2.45502e-10
3.31617e-08
2.23196e-10
3.31106e-08
2.0151e-10
3.30624e-08
1.80372e-10
3.30173e-08
1.59899e-10
3.29757e-08
1.4033e-10
3.29377e-08
1.21929e-10
3.29034e-08
1.04905e-10
3.28725e-08
8.93636e-11
3.2845e-08
7.5306e-11
3.28206e-08
6.26941e-11
3.27992e-08
5.14825e-11
3.27805e-08
4.1612e-11
3.27641e-08
3.29695e-11
3.275e-08
2.5365e-11
3.2738e-08
1.8574e-11
3.27279e-08
1.24376e-11
3.27198e-08
6.94044e-12
3.27137e-08
2.25014e-12
3.27093e-08
-1.53818e-12
3.27064e-08
-3.95299e-12
3.27047e-08
-6.48927e-12
-5.41529e-12
3.53736e-08
3.27203e-09
-3.52087e-08
3.55982e-08
3.6934e-09
3.58205e-08
3.88104e-09
3.5998e-08
3.84506e-09
3.61227e-08
3.68405e-09
3.62054e-08
3.48919e-09
3.6259e-08
3.30372e-09
3.62939e-08
3.13867e-09
3.63169e-08
2.99457e-09
3.63326e-08
2.8695e-09
3.63436e-08
2.76042e-09
3.63515e-08
2.66422e-09
3.63574e-08
2.5784e-09
3.63622e-08
2.50105e-09
3.63662e-08
2.43064e-09
3.63699e-08
2.36585e-09
3.63733e-08
2.30558e-09
3.63764e-08
2.24889e-09
3.63791e-08
2.19499e-09
3.63812e-08
2.14318e-09
3.63823e-08
2.09284e-09
3.63821e-08
2.04344e-09
3.63803e-08
1.99445e-09
3.63765e-08
1.94543e-09
3.63703e-08
1.89594e-09
3.63613e-08
1.84558e-09
3.63493e-08
1.79399e-09
3.63341e-08
1.74081e-09
3.63153e-08
1.68572e-09
3.62929e-08
1.62845e-09
3.62667e-08
1.56874e-09
3.62368e-08
1.50639e-09
3.6203e-08
1.44128e-09
3.61656e-08
1.37335e-09
3.61245e-08
1.30265e-09
3.60801e-08
1.22935e-09
3.60324e-08
1.15378e-09
3.59819e-08
1.07648e-09
3.59287e-08
9.98235e-10
3.58732e-08
9.20084e-10
3.5816e-08
8.43321e-10
3.57574e-08
7.69371e-10
3.5698e-08
6.99625e-10
3.56384e-08
6.3522e-10
3.55792e-08
5.76875e-10
3.55211e-08
5.24811e-10
3.54644e-08
4.78805e-10
3.54097e-08
4.38324e-10
3.53569e-08
4.02674e-10
3.53059e-08
3.71097e-10
3.52564e-08
3.42808e-10
3.52082e-08
3.17001e-10
3.51608e-08
2.92877e-10
3.51143e-08
2.6972e-10
3.50688e-08
2.46989e-10
3.50248e-08
2.24409e-10
3.49827e-08
2.01997e-10
3.4943e-08
1.80011e-10
3.49061e-08
1.58832e-10
3.48721e-08
1.38833e-10
3.48412e-08
1.20268e-10
3.48133e-08
1.03246e-10
3.47882e-08
8.77864e-11
3.47658e-08
7.38803e-11
3.47459e-08
6.15075e-11
3.47283e-08
5.05883e-11
3.47127e-08
4.0931e-11
3.46991e-08
3.22535e-11
3.46872e-08
2.42989e-11
3.46772e-08
1.69646e-11
3.4669e-08
1.03975e-11
3.46627e-08
4.76314e-12
3.46581e-08
6.4702e-13
3.46548e-08
-3.21396e-12
-3.54574e-12
3.64618e-08
3.12517e-09
-3.63149e-08
3.66601e-08
3.49509e-09
3.68612e-08
3.67997e-09
3.70278e-08
3.67842e-09
3.71502e-08
3.56168e-09
3.72353e-08
3.40411e-09
3.72934e-08
3.24562e-09
3.7333e-08
3.09908e-09
3.73602e-08
2.96733e-09
3.73792e-08
2.85045e-09
3.73927e-08
2.74699e-09
3.74021e-08
2.65476e-09
3.74088e-08
2.57176e-09
3.74134e-08
2.4964e-09
3.74167e-08
2.42736e-09
3.74191e-08
2.36349e-09
3.74209e-08
2.3038e-09
3.74223e-08
2.24744e-09
3.74236e-08
2.19372e-09
3.74248e-08
2.14199e-09
3.74259e-08
2.09172e-09
3.74269e-08
2.04241e-09
3.74277e-08
1.99362e-09
3.74283e-08
1.94491e-09
3.74283e-08
1.8959e-09
3.74276e-08
1.84623e-09
3.74261e-08
1.79553e-09
3.74234e-08
1.74349e-09
3.74194e-08
1.68977e-09
3.74137e-08
1.63411e-09
3.74062e-08
1.57624e-09
3.73966e-08
1.51596e-09
3.73848e-08
1.4531e-09
3.73706e-08
1.38761e-09
3.73537e-08
1.3195e-09
3.73342e-08
1.2489e-09
3.73118e-08
1.17612e-09
3.72867e-08
1.10163e-09
3.72588e-08
1.02616e-09
3.72282e-08
9.50666e-10
3.71951e-08
8.76361e-10
3.71599e-08
8.04579e-10
3.71229e-08
7.36614e-10
3.70846e-08
6.73517e-10
3.70456e-08
6.15936e-10
3.70063e-08
5.64065e-10
3.69674e-08
5.17727e-10
3.69292e-08
4.76524e-10
3.68919e-08
4.39984e-10
3.68554e-08
4.07609e-10
3.68194e-08
3.78834e-10
3.67834e-08
3.52952e-10
3.67472e-08
3.29102e-10
3.67105e-08
3.06354e-10
3.66736e-08
2.83886e-10
3.66369e-08
2.61158e-10
3.66009e-08
2.38016e-10
3.65662e-08
2.14685e-10
3.65334e-08
1.91641e-10
3.65028e-08
1.69421e-10
3.64746e-08
1.48463e-10
3.64488e-08
1.29013e-10
3.64255e-08
1.11172e-10
3.64044e-08
9.4981e-11
3.63854e-08
8.04607e-11
3.63684e-08
6.75741e-11
3.63532e-08
5.61516e-11
3.63396e-08
4.58831e-11
3.63274e-08
3.64289e-11
3.63168e-08
2.75855e-11
3.63078e-08
1.94353e-11
3.63004e-08
1.21712e-11
3.62946e-08
6.43078e-12
3.629e-08
1.34396e-12
-7.22678e-13
3.75785e-08
2.9933e-09
-3.74466e-08
3.77543e-08
3.31931e-09
3.79361e-08
3.49818e-09
3.8092e-08
3.52249e-09
3.82111e-08
3.44258e-09
3.82973e-08
3.31788e-09
3.83586e-08
3.18431e-09
3.8402e-08
3.0557e-09
3.84328e-08
2.93651e-09
3.8455e-08
2.82832e-09
3.8471e-08
2.73096e-09
3.84826e-08
2.64314e-09
3.8491e-08
2.56339e-09
3.84969e-08
2.49044e-09
3.85011e-08
2.42319e-09
3.8504e-08
2.36063e-09
3.85059e-08
2.3019e-09
3.85071e-08
2.24624e-09
3.85078e-08
2.19298e-09
3.85082e-08
2.14155e-09
3.85085e-08
2.09146e-09
3.85087e-08
2.04223e-09
3.85089e-08
1.99345e-09
3.8509e-08
1.94475e-09
3.85092e-08
1.89576e-09
3.85092e-08
1.84615e-09
3.85092e-08
1.7956e-09
3.85089e-08
1.7438e-09
3.85082e-08
1.69046e-09
3.85069e-08
1.63533e-09
3.8505e-08
1.57817e-09
3.85022e-08
1.51879e-09
3.84983e-08
1.45704e-09
3.8493e-08
1.39287e-09
3.84862e-08
1.32629e-09
3.84776e-08
1.25745e-09
3.84672e-08
1.1866e-09
3.84546e-08
1.11421e-09
3.84398e-08
1.04093e-09
3.84228e-08
9.67665e-10
3.84036e-08
8.95541e-10
3.83824e-08
8.25794e-10
3.83594e-08
7.59623e-10
3.8335e-08
6.97978e-10
3.83095e-08
6.41423e-10
3.82834e-08
5.90099e-10
3.82573e-08
5.43841e-10
3.82315e-08
5.02356e-10
3.82061e-08
4.65374e-10
3.81811e-08
4.32655e-10
3.8156e-08
4.03872e-10
3.81305e-08
3.78453e-10
3.81041e-08
3.55502e-10
3.80766e-08
3.33892e-10
3.8048e-08
3.12503e-10
3.80186e-08
2.90488e-10
3.79892e-08
2.67477e-10
3.79602e-08
2.43614e-10
3.79325e-08
2.19433e-10
3.79062e-08
1.9563e-10
3.78819e-08
1.72827e-10
3.78595e-08
1.51434e-10
3.7839e-08
1.31656e-10
3.78204e-08
1.13592e-10
3.78035e-08
9.7299e-11
3.77883e-08
8.27806e-11
3.77746e-08
6.98986e-11
3.77621e-08
5.83399e-11
3.77508e-08
4.77104e-11
3.77407e-08
3.77176e-11
3.77318e-08
2.83602e-11
3.77241e-08
1.98224e-11
3.77178e-08
1.27246e-11
3.77125e-08
6.64902e-12
2.79606e-12
3.87247e-08
2.87407e-09
-3.86055e-08
3.88813e-08
3.16277e-09
3.90457e-08
3.33377e-09
3.91911e-08
3.37707e-09
3.93063e-08
3.32742e-09
3.93927e-08
3.23145e-09
3.94563e-08
3.12071e-09
3.95027e-08
3.00926e-09
3.95366e-08
2.90263e-09
3.95615e-08
2.80345e-09
3.95799e-08
2.71258e-09
3.95935e-08
2.62952e-09
3.96035e-08
2.55334e-09
3.96109e-08
2.48306e-09
3.96163e-08
2.41783e-09
3.96201e-08
2.35681e-09
3.96228e-08
2.29925e-09
3.96245e-08
2.24448e-09
3.96256e-08
2.19189e-09
3.96262e-08
2.14095e-09
3.96265e-08
2.09121e-09
3.96265e-08
2.04222e-09
3.96263e-08
1.99361e-09
3.96261e-08
1.945e-09
3.96257e-08
1.89608e-09
3.96254e-08
1.84651e-09
3.9625e-08
1.79601e-09
3.96245e-08
1.7443e-09
3.96238e-08
1.6911e-09
3.9623e-08
1.63619e-09
3.96218e-08
1.57936e-09
3.96201e-08
1.52043e-09
3.96179e-08
1.45929e-09
3.96149e-08
1.39589e-09
3.96109e-08
1.33028e-09
3.96057e-08
1.26258e-09
3.95993e-08
1.19307e-09
3.95913e-08
1.12218e-09
3.95817e-08
1.05054e-09
3.95704e-08
9.78991e-10
3.95573e-08
9.08583e-10
3.95426e-08
8.40478e-10
3.95265e-08
7.75781e-10
3.95091e-08
7.15355e-10
3.94909e-08
6.59675e-10
3.94721e-08
6.08824e-10
3.94533e-08
5.62636e-10
3.94348e-08
5.20905e-10
3.94166e-08
4.83543e-10
3.93987e-08
4.50561e-10
3.93807e-08
4.21876e-10
3.93621e-08
3.97061e-10
3.93424e-08
3.7521e-10
3.93213e-08
3.55016e-10
3.92987e-08
3.35058e-10
3.9275e-08
3.14175e-10
3.92507e-08
2.91751e-10
3.92265e-08
2.67819e-10
3.9203e-08
2.42945e-10
3.91807e-08
2.17962e-10
3.91598e-08
1.93678e-10
3.91406e-08
1.70672e-10
3.9123e-08
1.4927e-10
3.9107e-08
1.29634e-10
3.90924e-08
1.11859e-10
3.90792e-08
9.59754e-11
3.90672e-08
8.18746e-11
3.90563e-08
6.92542e-11
3.90463e-08
5.76932e-11
3.90372e-08
4.68349e-11
3.9029e-08
3.6597e-11
3.90217e-08
2.71346e-11
3.90154e-08
1.89989e-11
3.90098e-08
1.22028e-11
6.72584e-12
3.99016e-08
2.76566e-09
-3.97932e-08
4.00417e-08
3.02271e-09
4.01905e-08
3.18494e-09
4.03258e-08
3.2418e-09
4.04365e-08
3.21672e-09
4.05223e-08
3.14564e-09
4.05874e-08
3.05562e-09
4.06362e-08
2.96038e-09
4.06728e-08
2.8661e-09
4.07001e-08
2.77611e-09
4.07207e-08
2.69202e-09
4.07362e-08
2.61404e-09
4.07478e-08
2.54169e-09
4.07565e-08
2.47433e-09
4.0763e-08
2.41133e-09
4.07678e-08
2.35203e-09
4.07713e-08
2.29579e-09
4.07737e-08
2.24204e-09
4.07754e-08
2.19023e-09
4.07764e-08
2.13991e-09
4.0777e-08
2.09062e-09
4.07772e-08
2.04198e-09
4.07772e-08
1.99363e-09
4.0777e-08
1.94522e-09
4.07766e-08
1.89645e-09
4.07761e-08
1.84701e-09
4.07755e-08
1.79663e-09
4.07748e-08
1.74505e-09
4.07739e-08
1.69201e-09
4.07727e-08
1.63732e-09
4.07713e-08
1.58077e-09
4.07695e-08
1.52221e-09
4.07673e-08
1.46156e-09
4.07644e-08
1.39878e-09
4.07607e-08
1.33392e-09
4.07562e-08
1.26714e-09
4.07505e-08
1.19871e-09
4.07437e-08
1.12904e-09
4.07355e-08
1.05873e-09
4.07259e-08
9.88571e-10
4.07149e-08
9.19564e-10
4.07026e-08
8.52796e-10
4.06891e-08
7.89298e-10
4.06746e-08
7.29848e-10
4.06594e-08
6.74843e-10
4.06439e-08
6.24309e-10
4.06285e-08
5.78076e-10
4.06134e-08
5.36017e-10
4.05987e-08
4.98217e-10
4.05844e-08
4.64925e-10
4.05699e-08
4.36297e-10
4.05549e-08
4.12059e-10
4.05389e-08
3.91301e-10
4.05213e-08
3.72549e-10
4.05023e-08
3.54096e-10
4.0482e-08
3.34464e-10
4.0461e-08
3.12787e-10
4.04398e-08
2.88974e-10
4.04191e-08
2.63606e-10
4.03995e-08
2.3764e-10
4.03811e-08
2.12057e-10
4.03641e-08
1.8761e-10
4.03487e-08
1.6475e-10
4.03346e-08
1.43714e-10
4.03218e-08
1.24629e-10
4.03102e-08
1.07546e-10
4.02997e-08
9.23753e-11
4.02902e-08
7.88283e-11
4.02814e-08
6.64771e-11
4.02733e-08
5.49259e-11
4.02659e-08
4.40264e-11
4.02591e-08
3.38982e-11
4.02531e-08
2.49962e-11
4.02476e-08
1.76939e-11
1.08486e-11
4.11102e-08
2.66664e-09
-4.10112e-08
4.12361e-08
2.89681e-09
4.1371e-08
3.05002e-09
4.14966e-08
3.11623e-09
4.16024e-08
3.11085e-09
4.1687e-08
3.06111e-09
4.17528e-08
2.98974e-09
4.18036e-08
2.90966e-09
4.18423e-08
2.82735e-09
4.18719e-08
2.74656e-09
4.18944e-08
2.66945e-09
4.19117e-08
2.59678e-09
4.19249e-08
2.52851e-09
4.19349e-08
2.4643e-09
4.19425e-08
2.40373e-09
4.19482e-08
2.34632e-09
4.19525e-08
2.29155e-09
4.19556e-08
2.23894e-09
4.19578e-08
2.18803e-09
4.19593e-08
2.13839e-09
4.19603e-08
2.08965e-09
4.19608e-08
2.04143e-09
4.1961e-08
1.9934e-09
4.1961e-08
1.94525e-09
4.19608e-08
1.89669e-09
4.19604e-08
1.84743e-09
4.19598e-08
1.79723e-09
4.1959e-08
1.74583e-09
4.1958e-08
1.69301e-09
4.19567e-08
1.63857e-09
4.19552e-08
1.58233e-09
4.19532e-08
1.52417e-09
4.19507e-08
1.46401e-09
4.19477e-08
1.40184e-09
4.19439e-08
1.33771e-09
4.19392e-08
1.2718e-09
4.19336e-08
1.20436e-09
4.19268e-08
1.1358e-09
4.19189e-08
1.06669e-09
4.19097e-08
9.97784e-10
4.18992e-08
9.30022e-10
4.18876e-08
8.64435e-10
4.18749e-08
8.01984e-10
4.18614e-08
7.43372e-10
4.18473e-08
6.88925e-10
4.1833e-08
6.38613e-10
4.18188e-08
5.92262e-10
4.1805e-08
5.49821e-10
4.17917e-08
5.11541e-10
4.17787e-08
4.77903e-10
4.17657e-08
4.49292e-10
4.17522e-08
4.25582e-10
4.17376e-08
4.05865e-10
4.17216e-08
3.88505e-10
4.17042e-08
3.71519e-10
4.16856e-08
3.53123e-10
4.16661e-08
3.32206e-10
4.16466e-08
3.08551e-10
4.16274e-08
2.82748e-10
4.16092e-08
2.55864e-10
4.15922e-08
2.2905e-10
4.15766e-08
2.03225e-10
4.15624e-08
1.78974e-10
4.15495e-08
1.56609e-10
4.15378e-08
1.36294e-10
4.15273e-08
1.18091e-10
4.15177e-08
1.01921e-10
4.1509e-08
8.75072e-11
4.15011e-08
7.44252e-11
4.14938e-08
6.22594e-11
4.1487e-08
5.08123e-11
4.14807e-08
4.01705e-11
4.1475e-08
3.06858e-11
4.14697e-08
2.30103e-11
1.50439e-11
4.23516e-08
2.57586e-09
-4.22609e-08
4.24653e-08
2.78313e-09
4.25879e-08
2.92747e-09
4.27043e-08
2.99984e-09
4.28051e-08
3.01007e-09
4.28877e-08
2.97846e-09
4.29537e-08
2.92371e-09
4.30057e-08
2.85766e-09
4.30463e-08
2.78679e-09
4.30778e-08
2.71509e-09
4.31022e-08
2.64504e-09
4.31211e-08
2.57785e-09
4.31358e-08
2.51386e-09
4.31471e-08
2.453e-09
4.31557e-08
2.39504e-09
4.31624e-08
2.33968e-09
4.31674e-08
2.28653e-09
4.31712e-08
2.23518e-09
4.31739e-08
2.18527e-09
4.31759e-08
2.13642e-09
4.31772e-08
2.08829e-09
4.31781e-08
2.04056e-09
4.31786e-08
1.99291e-09
4.31788e-08
1.94507e-09
4.31787e-08
1.89677e-09
4.31784e-08
1.84774e-09
4.31779e-08
1.79775e-09
4.31771e-08
1.74657e-09
4.31761e-08
1.694e-09
4.31748e-08
1.63984e-09
4.31732e-08
1.58396e-09
4.31712e-08
1.52622e-09
4.31686e-08
1.46657e-09
4.31655e-08
1.405e-09
4.31616e-08
1.34161e-09
4.31568e-08
1.27655e-09
4.31511e-08
1.21009e-09
4.31443e-08
1.14261e-09
4.31363e-08
1.07465e-09
4.31272e-08
1.00693e-09
4.31168e-08
9.40343e-10
4.31054e-08
8.75864e-10
4.3093e-08
8.14392e-10
4.30798e-08
7.56562e-10
4.30661e-08
7.02627e-10
4.30522e-08
6.52509e-10
4.30385e-08
6.06027e-10
4.30251e-08
5.63205e-10
4.30122e-08
5.24454e-10
4.29996e-08
4.90478e-10
4.2987e-08
4.61884e-10
4.29739e-08
4.38688e-10
4.29598e-08
4.1998e-10
4.29443e-08
4.03966e-10
4.29274e-08
3.88396e-10
4.29094e-08
3.7119e-10
4.28906e-08
3.51e-10
4.28716e-08
3.27489e-10
4.28531e-08
3.0125e-10
4.28355e-08
2.7346e-10
4.28192e-08
2.45429e-10
4.28041e-08
2.18242e-10
4.27905e-08
1.92615e-10
4.27782e-08
1.68942e-10
4.2767e-08
1.47422e-10
4.2757e-08
1.28126e-10
4.27479e-08
1.1098e-10
4.27397e-08
9.57161e-11
4.27322e-08
8.19153e-11
4.27254e-08
6.91544e-11
4.2719e-08
5.72015e-11
4.2713e-08
4.61149e-11
4.27076e-08
3.61495e-11
4.27024e-08
2.8164e-11
1.92657e-11
4.36272e-08
2.49239e-09
-4.35437e-08
4.37302e-08
2.68008e-09
4.38418e-08
2.81592e-09
4.39496e-08
2.89205e-09
4.40451e-08
2.91449e-09
4.41255e-08
2.89812e-09
4.41911e-08
2.85808e-09
4.42439e-08
2.80489e-09
4.42858e-08
2.74485e-09
4.43189e-08
2.682e-09
4.43449e-08
2.61901e-09
4.43654e-08
2.5574e-09
4.43814e-08
2.49783e-09
4.4394e-08
2.44047e-09
4.44037e-08
2.3853e-09
4.44113e-08
2.33213e-09
4.44171e-08
2.28073e-09
4.44215e-08