/*--------------------------------*- C++ -*----------------------------------*\
| =========                 |                                                 |
| \\      /  F ield         | OpenFOAM: The Open Source CFD Toolbox           |
|  \\    /   O peration     | Version:  2.3.0                                 |
|   \\  /    A nd           | Web:      www.OpenFOAM.org                      |
|    \\/     M anipulation  |                                                 |
\*---------------------------------------------------------------------------*/
FoamFile
{
    version     2.0;
    format      ascii;
    class       volVectorField;
    location    "0.1";
    object      U;
}
// * * * * * * * * * * * * * * * * * * * * * * * * * * * * * * * * * * * * * //

dimensions      [0 1 -1 0 0 0 0];

internalField   nonuniform List<vector> 
3375
(
(0.170963 0.00597211 0)
(0.154477 0.00604132 0)
(0.138634 0.00561977 0)
(0.123624 0.00501701 0)
(0.109863 0.00435084 0)
(0.0975192 0.00367507 0)
(0.0866073 0.00302692 0)
(0.0770927 0.00243225 0)
(0.0689186 0.00190681 0)
(0.0619988 0.00145857 0)
(0.0562176 0.0010892 0)
(0.0514402 0.000795079 0)
(0.0475241 0.000568584 0)
(0.0443291 0.000399722 0)
(0.0417247 0.00027771 0)
(0.0395952 0.000192205 0)
(0.0378424 0.000134072 0)
(0.0363862 9.57293e-05 0)
(0.0351631 7.11978e-05 0)
(0.0341244 5.59552e-05 0)
(0.0332339 4.66747e-05 0)
(0.0324651 4.08928e-05 0)
(0.0317998 3.66726e-05 0)
(0.0312269 3.23729e-05 0)
(0.0307413 2.66603e-05 0)
(0.0303433 1.88614e-05 0)
(0.0300368 9.35535e-06 0)
(0.0298285 -1.12999e-06 0)
(0.0297277 -9.98053e-06 0)
(0.0297319 -1.52364e-05 0)
(0.0298019 -1.66471e-05 0)
(0.0299166 -1.84332e-05 0)
(0.0300591 -1.96854e-05 0)
(0.0302136 -1.95047e-05 0)
(0.0303672 -1.81973e-05 0)
(0.0305113 -1.63238e-05 0)
(0.0306416 -1.42844e-05 0)
(0.0307564 -1.23058e-05 0)
(0.0308557 -1.05004e-05 0)
(0.0309404 -8.91184e-06 0)
(0.0310122 -7.54395e-06 0)
(0.0310725 -6.38111e-06 0)
(0.0311231 -5.40065e-06 0)
(0.0311654 -4.57892e-06 0)
(0.0312008 -3.89185e-06 0)
(0.0312304 -3.3178e-06 0)
(0.0312553 -2.83953e-06 0)
(0.0312763 -2.44272e-06 0)
(0.0312942 -2.11487e-06 0)
(0.0313095 -1.84489e-06 0)
(0.0313227 -1.62292e-06 0)
(0.0313343 -1.44022e-06 0)
(0.0313446 -1.28918e-06 0)
(0.0313538 -1.16331e-06 0)
(0.031362 -1.0572e-06 0)
(0.0313696 -9.6642e-07 0)
(0.0313765 -8.87482e-07 0)
(0.0313829 -8.1767e-07 0)
(0.0313888 -7.54932e-07 0)
(0.0313943 -6.97767e-07 0)
(0.0313994 -6.45112e-07 0)
(0.0314041 -5.96231e-07 0)
(0.0314085 -5.50627e-07 0)
(0.0314126 -5.07974e-07 0)
(0.0314164 -4.6805e-07 0)
(0.03142 -4.30703e-07 0)
(0.0314232 -3.95814e-07 0)
(0.0314263 -3.63283e-07 0)
(0.0314291 -3.33012e-07 0)
(0.0314316 -3.04905e-07 0)
(0.031434 -2.78852e-07 0)
(0.0314362 -2.54751e-07 0)
(0.0314382 -2.32481e-07 0)
(0.0314401 -2.11933e-07 0)
(0.0314418 -1.92999e-07 0)
(0.0314433 -1.75558e-07 0)
(0.0314448 -1.59525e-07 0)
(0.0314461 -1.44772e-07 0)
(0.0314473 -1.31229e-07 0)
(0.0314483 -1.18783e-07 0)
(0.0314493 -1.07357e-07 0)
(0.0314502 -9.68717e-08 0)
(0.0314511 -8.72365e-08 0)
(0.0314518 -7.83974e-08 0)
(0.0314525 -7.02714e-08 0)
(0.0314531 -6.28048e-08 0)
(0.0314536 -5.59374e-08 0)
(0.0314541 -4.9604e-08 0)
(0.0314545 -4.37634e-08 0)
(0.0314549 -3.8348e-08 0)
(0.0314553 -3.33224e-08 0)
(0.0314556 -2.86294e-08 0)
(0.0314558 -2.42243e-08 0)
(0.031456 -2.00562e-08 0)
(0.0314562 -1.60538e-08 0)
(0.0314564 -1.21332e-08 0)
(0.0314565 -8.15743e-09 0)
(0.0314565 -4.12405e-09 0)
(0.0314566 -1.75603e-09 0)
(0.0314565 1.41527e-08 0)
(0.189889 0.00942667 0)
(0.187605 0.00993699 0)
(0.183726 0.00971306 0)
(0.178609 0.00921296 0)
(0.172752 0.00857517 0)
(0.166506 0.00784645 0)
(0.160094 0.00706536 0)
(0.153684 0.00626744 0)
(0.147413 0.00548249 0)
(0.141381 0.00473497 0)
(0.135659 0.00404394 0)
(0.13029 0.00342248 0)
(0.125293 0.00287741 0)
(0.120676 0.00240976 0)
(0.116433 0.00201589 0)
(0.112551 0.00168886 0)
(0.109014 0.00141986 0)
(0.105803 0.00119942 0)
(0.102898 0.00101842 0)
(0.10028 0.000868593 0)
(0.0979326 0.000742817 0)
(0.0958415 0.000635025 0)
(0.0939959 0.000539982 0)
(0.0923888 0.00045303 0)
(0.0910167 0.000370125 0)
(0.0898781 0.000288408 0)
(0.0889705 0.000207056 0)
(0.0882862 0.000126646 0)
(0.087806 4.84387e-05 0)
(0.087524 -2.40121e-05 0)
(0.0874721 -7.75342e-05 0)
(0.0875734 -0.000107023 0)
(0.0877689 -0.000118477 0)
(0.0880181 -0.000118178 0)
(0.0882903 -0.000110632 0)
(0.0885636 -9.92721e-05 0)
(0.0888237 -8.65342e-05 0)
(0.0890626 -7.39406e-05 0)
(0.0892762 -6.23233e-05 0)
(0.0894635 -5.20563e-05 0)
(0.0896251 -4.3234e-05 0)
(0.089763 -3.57954e-05 0)
(0.0898794 -2.96052e-05 0)
(0.0899768 -2.45023e-05 0)
(0.0900579 -2.0325e-05 0)
(0.090125 -1.69235e-05 0)
(0.0901805 -1.41659e-05 0)
(0.0902263 -1.19384e-05 0)
(0.0902641 -1.01445e-05 0)
(0.0902955 -8.70256e-06 0)
(0.0903218 -7.54377e-06 0)
(0.0903441 -6.61058e-06 0)
(0.090363 -5.85518e-06 0)
(0.0903795 -5.23827e-06 0)
(0.0903939 -4.72809e-06 0)
(0.0904067 -4.29937e-06 0)
(0.0904182 -3.93246e-06 0)
(0.0904287 -3.6124e-06 0)
(0.0904382 -3.32804e-06 0)
(0.090447 -3.07132e-06 0)
(0.0904552 -2.83656e-06 0)
(0.0904627 -2.61984e-06 0)
(0.0904697 -2.4185e-06 0)
(0.0904762 -2.23078e-06 0)
(0.0904823 -2.05548e-06 0)
(0.0904878 -1.89177e-06 0)
(0.090493 -1.73901e-06 0)
(0.0904978 -1.59667e-06 0)
(0.0905023 -1.46427e-06 0)
(0.0905064 -1.34134e-06 0)
(0.0905101 -1.22738e-06 0)
(0.0905136 -1.12191e-06 0)
(0.0905168 -1.02443e-06 0)
(0.0905198 -9.34438e-07 0)
(0.0905225 -8.51458e-07 0)
(0.090525 -7.74993e-07 0)
(0.0905273 -7.04617e-07 0)
(0.0905294 -6.39852e-07 0)
(0.0905313 -5.80314e-07 0)
(0.090533 -5.25582e-07 0)
(0.0905346 -4.75286e-07 0)
(0.0905361 -4.29085e-07 0)
(0.0905374 -3.86622e-07 0)
(0.0905386 -3.47612e-07 0)
(0.0905397 -3.11742e-07 0)
(0.0905407 -2.78745e-07 0)
(0.0905415 -2.48369e-07 0)
(0.0905423 -2.20349e-07 0)
(0.090543 -1.94476e-07 0)
(0.0905436 -1.70506e-07 0)
(0.0905442 -1.48246e-07 0)
(0.0905447 -1.27485e-07 0)
(0.0905451 -1.08019e-07 0)
(0.0905454 -8.96525e-08 0)
(0.0905457 -7.21395e-08 0)
(0.0905459 -5.52076e-08 0)
(0.0905461 -3.84915e-08 0)
(0.0905462 -2.16652e-08 0)
(0.0905462 -5.21748e-09 0)
(0.0905462 3.31462e-08 0)
(0.192875 0.00902991 0)
(0.19368 0.0099817 0)
(0.193852 0.0103134 0)
(0.193242 0.0103158 0)
(0.19196 0.0100879 0)
(0.190128 0.00966757 0)
(0.187835 0.00909976 0)
(0.18517 0.00843431 0)
(0.182228 0.00771686 0)
(0.179098 0.00698605 0)
(0.175858 0.00627285 0)
(0.172575 0.00559994 0)
(0.169304 0.00498161 0)
(0.166088 0.0044246 0)
(0.162959 0.00392958 0)
(0.159942 0.00349292 0)
(0.157055 0.00310844 0)
(0.154311 0.00276877 0)
(0.151721 0.00246636 0)
(0.149294 0.00219412 0)
(0.147037 0.00194557 0)
(0.144958 0.00171487 0)
(0.143066 0.00149675 0)
(0.141371 0.00128658 0)
(0.139881 0.00108078 0)
(0.138603 0.000877673 0)
(0.137541 0.000678115 0)
(0.136691 0.000485607 0)
(0.136045 0.000303779 0)
(0.135575 0.000134942 0)
(0.13524 -1.19165e-05 0)
(0.135082 -0.000121193 0)
(0.135069 -0.000189081 0)
(0.135164 -0.000223392 0)
(0.135335 -0.000233588 0)
(0.135555 -0.000227684 0)
(0.1358 -0.000211979 0)
(0.136055 -0.000191098 0)
(0.136305 -0.000168217 0)
(0.136543 -0.000145386 0)
(0.136762 -0.000123842 0)
(0.13696 -0.00010426 0)
(0.137136 -8.69423e-05 0)
(0.137289 -7.19523e-05 0)
(0.137419 -5.92069e-05 0)
(0.13753 -4.8537e-05 0)
(0.137622 -3.97284e-05 0)
(0.137698 -3.2548e-05 0)
(0.137761 -2.67613e-05 0)
(0.137811 -2.21445e-05 0)
(0.137852 -1.84909e-05 0)
(0.137884 -1.56163e-05 0)
(0.137911 -1.33603e-05 0)
(0.137932 -1.15874e-05 0)
(0.137949 -1.01855e-05 0)
(0.137964 -9.06419e-06 0)
(0.137975 -8.1525e-06 0)
(0.137986 -7.39582e-06 0)
(0.137994 -6.75323e-06 0)
(0.138002 -6.19482e-06 0)
(0.138009 -5.69932e-06 0)
(0.138015 -5.25196e-06 0)
(0.138021 -4.84275e-06 0)
(0.138026 -4.46505e-06 0)
(0.138031 -4.11453e-06 0)
(0.138036 -3.78833e-06 0)
(0.13804 -3.48449e-06 0)
(0.138044 -3.20157e-06 0)
(0.138047 -2.93839e-06 0)
(0.138051 -2.69392e-06 0)
(0.138054 -2.46714e-06 0)
(0.138056 -2.25709e-06 0)
(0.138059 -2.06276e-06 0)
(0.138061 -1.88319e-06 0)
(0.138064 -1.71743e-06 0)
(0.138066 -1.56454e-06 0)
(0.138068 -1.42363e-06 0)
(0.138069 -1.29383e-06 0)
(0.138071 -1.17434e-06 0)
(0.138072 -1.06436e-06 0)
(0.138074 -9.63169e-07 0)
(0.138075 -8.7008e-07 0)
(0.138076 -7.8443e-07 0)
(0.138077 -7.05613e-07 0)
(0.138078 -6.33056e-07 0)
(0.138079 -5.66201e-07 0)
(0.138079 -5.04558e-07 0)
(0.13808 -4.4762e-07 0)
(0.138081 -3.94949e-07 0)
(0.138081 -3.46096e-07 0)
(0.138082 -3.0065e-07 0)
(0.138082 -2.58214e-07 0)
(0.138082 -2.18381e-07 0)
(0.138083 -1.80772e-07 0)
(0.138083 -1.44949e-07 0)
(0.138083 -1.10428e-07 0)
(0.138083 -7.66548e-08 0)
(0.138083 -4.30302e-08 0)
(0.138083 -6.46555e-09 0)
(0.138083 5.42757e-08 0)
(0.193914 0.00836847 0)
(0.19507 0.0094097 0)
(0.196134 0.0099596 0)
(0.196891 0.010195 0)
(0.197318 0.0101971 0)
(0.197422 0.0099979 0)
(0.1972 0.00963265 0)
(0.19666 0.00914393 0)
(0.195827 0.00857341 0)
(0.194738 0.00795821 0)
(0.193439 0.00732984 0)
(0.191975 0.00671311 0)
(0.190388 0.0061256 0)
(0.188718 0.00557788 0)
(0.187 0.00507454 0)
(0.185264 0.00461552 0)
(0.183535 0.00419767 0)
(0.181833 0.00381592 0)
(0.180176 0.00346437 0)
(0.17858 0.00313686 0)
(0.177058 0.0028274 0)
(0.175625 0.00253028 0)
(0.174293 0.00224033 0)
(0.173075 0.00195327 0)
(0.171982 0.00166642 0)
(0.171021 0.00137963 0)
(0.170197 0.00109586 0)
(0.169509 0.000821107 0)
(0.168953 0.000563849 0)
(0.16852 0.000333218 0)
(0.168185 0.000133347 0)
(0.167923 -3.05474e-05 0)
(0.167758 -0.000151412 0)
(0.16768 -0.000230784 0)
(0.167679 -0.000276189 0)
(0.167741 -0.000295821 0)
(0.167851 -0.000296916 0)
(0.167995 -0.000285411 0)
(0.168163 -0.000265918 0)
(0.168342 -0.00024187 0)
(0.168526 -0.000215746 0)
(0.168705 -0.000189287 0)
(0.168876 -0.000163684 0)
(0.169035 -0.000139721 0)
(0.169179 -0.000117875 0)
(0.169307 -9.84024e-05 0)
(0.169418 -8.13905e-05 0)
(0.169513 -6.68016e-05 0)
(0.169592 -5.45074e-05 0)
(0.169658 -4.43174e-05 0)
(0.16971 -3.60023e-05 0)
(0.169752 -2.93144e-05 0)
(0.169785 -2.40041e-05 0)
(0.16981 -1.98327e-05 0)
(0.16983 -1.65818e-05 0)
(0.169844 -1.40586e-05 0)
(0.169855 -1.20991e-05 0)
(0.169863 -1.05678e-05 0)
(0.169869 -9.35616e-06 0)
(0.169873 -8.37994e-06 0)
(0.169877 -7.57531e-06 0)
(0.169879 -6.8954e-06 0)
(0.169882 -6.30666e-06 0)
(0.169883 -5.78572e-06 0)
(0.169885 -5.31672e-06 0)
(0.169886 -4.88911e-06 0)
(0.169888 -4.49596e-06 0)
(0.169889 -4.13264e-06 0)
(0.16989 -3.79602e-06 0)
(0.169891 -3.48385e-06 0)
(0.169892 -3.19435e-06 0)
(0.169893 -2.92603e-06 0)
(0.169894 -2.67753e-06 0)
(0.169894 -2.44757e-06 0)
(0.169895 -2.23497e-06 0)
(0.169896 -2.03852e-06 0)
(0.169896 -1.85714e-06 0)
(0.169897 -1.68974e-06 0)
(0.169897 -1.53529e-06 0)
(0.169898 -1.39285e-06 0)
(0.169898 -1.26149e-06 0)
(0.169899 -1.14036e-06 0)
(0.169899 -1.02863e-06 0)
(0.1699 -9.25543e-07 0)
(0.1699 -8.30379e-07 0)
(0.1699 -7.4243e-07 0)
(0.1699 -6.61077e-07 0)
(0.169901 -5.85682e-07 0)
(0.169901 -5.15676e-07 0)
(0.169901 -4.50499e-07 0)
(0.169901 -3.89609e-07 0)
(0.169901 -3.32503e-07 0)
(0.169901 -2.78652e-07 0)
(0.169901 -2.27566e-07 0)
(0.169901 -1.78705e-07 0)
(0.169901 -1.31467e-07 0)
(0.169901 -8.5287e-08 0)
(0.169901 -3.94041e-08 0)
(0.169901 1.26086e-08 0)
(0.169901 8.9971e-08 0)
(0.19465 0.00784574 0)
(0.195663 0.00881838 0)
(0.196754 0.00940188 0)
(0.197755 0.00970679 0)
(0.198622 0.00980392 0)
(0.199339 0.00972292 0)
(0.199881 0.00948955 0)
(0.200227 0.00913553 0)
(0.20037 0.00869397 0)
(0.200315 0.00819584 0)
(0.200079 0.00766861 0)
(0.199683 0.00713511 0)
(0.199152 0.00661268 0)
(0.198513 0.00611291 0)
(0.197789 0.00564209 0)
(0.197006 0.00520218 0)
(0.196182 0.00479196 0)
(0.195337 0.00440806 0)
(0.194485 0.00404588 0)
(0.19364 0.00370025 0)
(0.192814 0.00336587 0)
(0.192018 0.00303764 0)
(0.191263 0.00271106 0)
(0.190557 0.00238272 0)
(0.189906 0.00205118 0)
(0.189316 0.00171775 0)
(0.188788 0.00138692 0)
(0.188322 0.00106623 0)
(0.187918 0.00076553 0)
(0.187573 0.00049564 0)
(0.187284 0.00026435 0)
(0.187035 7.36621e-05 0)
(0.186825 -7.54809e-05 0)
(0.186663 -0.000183655 0)
(0.186551 -0.000255807 0)
(0.186485 -0.000298825 0)
(0.186462 -0.00031933 0)
(0.186475 -0.00032305 0)
(0.186517 -0.000314696 0)
(0.186582 -0.00029801 0)
(0.186663 -0.000275902 0)
(0.186754 -0.000250606 0)
(0.186851 -0.00022383 0)
(0.186949 -0.000196863 0)
(0.187044 -0.000170676 0)
(0.187134 -0.000145972 0)
(0.187216 -0.00012324 0)
(0.187289 -0.000102786 0)
(0.187352 -8.47631e-05 0)
(0.187405 -6.91951e-05 0)
(0.187449 -5.60026e-05 0)
(0.187485 -4.50277e-05 0)
(0.187512 -3.60583e-05 0)
(0.187532 -2.88502e-05 0)
(0.187547 -2.31472e-05 0)
(0.187557 -1.86969e-05 0)
(0.187563 -1.52635e-05 0)
(0.187567 -1.2636e-05 0)
(0.187568 -1.06326e-05 0)
(0.187568 -9.10208e-06 0)
(0.187567 -7.92293e-06 0)
(0.187565 -7.00035e-06 0)
(0.187563 -6.26262e-06 0)
(0.18756 -5.65703e-06 0)
(0.187558 -5.146e-06 0)
(0.187556 -4.70344e-06 0)
(0.187553 -4.31165e-06 0)
(0.187551 -3.9589e-06 0)
(0.187549 -3.63744e-06 0)
(0.187548 -3.34219e-06 0)
(0.187546 -3.06973e-06 0)
(0.187545 -2.81763e-06 0)
(0.187543 -2.58407e-06 0)
(0.187542 -2.36759e-06 0)
(0.187541 -2.16693e-06 0)
(0.18754 -1.98096e-06 0)
(0.187539 -1.80863e-06 0)
(0.187538 -1.64898e-06 0)
(0.187538 -1.50108e-06 0)
(0.187537 -1.36408e-06 0)
(0.187536 -1.23714e-06 0)
(0.187536 -1.1195e-06 0)
(0.187535 -1.01043e-06 0)
(0.187535 -9.09225e-07 0)
(0.187534 -8.15248e-07 0)
(0.187534 -7.27838e-07 0)
(0.187534 -6.46426e-07 0)
(0.187533 -5.70417e-07 0)
(0.187533 -4.99274e-07 0)
(0.187533 -4.32467e-07 0)
(0.187533 -3.69469e-07 0)
(0.187532 -3.09794e-07 0)
(0.187532 -2.52917e-07 0)
(0.187532 -1.98368e-07 0)
(0.187532 -1.45662e-07 0)
(0.187532 -9.43089e-08 0)
(0.187531 -4.34586e-08 0)
(0.187531 8.99029e-09 0)
(0.187531 7.03783e-08 0)
(0.187531 1.53519e-07 0)
(0.195278 0.00739462 0)
(0.196115 0.00826061 0)
(0.197071 0.00882742 0)
(0.198021 0.00915488 0)
(0.198918 0.00929694 0)
(0.199743 0.00928049 0)
(0.200474 0.00912644 0)
(0.201089 0.00885995 0)
(0.201573 0.00850824 0)
(0.201922 0.00809747 0)
(0.202141 0.0076512 0)
(0.202237 0.00718949 0)
(0.202224 0.00672812 0)
(0.202118 0.00627819 0)
(0.201936 0.00584636 0)
(0.201692 0.0054355 0)
(0.201401 0.00504548 0)
(0.201077 0.0046741 0)
(0.200729 0.00431783 0)
(0.200368 0.00397242 0)
(0.2 0.00363339 0)
(0.199634 0.00329639 0)
(0.199273 0.00295772 0)
(0.198921 0.00261491 0)
(0.198582 0.00226745 0)
(0.198255 0.0019175 0)
(0.19794 0.00157022 0)
(0.197638 0.00123346 0)
(0.197348 0.000917039 0)
(0.197072 0.000631357 0)
(0.196813 0.000385044 0)
(0.196574 0.000181369 0)
(0.196351 1.87425e-05 0)
(0.19615 -0.000105234 0)
(0.195977 -0.000194359 0)
(0.195834 -0.000254114 0)
(0.195721 -0.000290209 0)
(0.195636 -0.000307789 0)
(0.195576 -0.000311236 0)
(0.195538 -0.000304163 0)
(0.195519 -0.000289495 0)
(0.195515 -0.000269578 0)
(0.195523 -0.000246297 0)
(0.195539 -0.000221167 0)
(0.195561 -0.000195406 0)
(0.195586 -0.000169982 0)
(0.195611 -0.000145652 0)
(0.195636 -0.000122979 0)
(0.195659 -0.000102352 0)
(0.195679 -8.40045e-05 0)
(0.195695 -6.80335e-05 0)
(0.195707 -5.44189e-05 0)
(0.195716 -4.30476e-05 0)
(0.195722 -3.37379e-05 0)
(0.195724 -2.62634e-05 0)
(0.195724 -2.03744e-05 0)
(0.195722 -1.5817e-05 0)
(0.195718 -1.23482e-05 0)
(0.195714 -9.74591e-06 0)
(0.195708 -7.81599e-06 0)
(0.195702 -6.3951e-06 0)
(0.195696 -5.3505e-06 0)
(0.19569 -4.57788e-06 0)
(0.195684 -3.99793e-06 0)
(0.195678 -3.55225e-06 0)
(0.195672 -3.19908e-06 0)
(0.195667 -2.90942e-06 0)
(0.195663 -2.6637e-06 0)
(0.195658 -2.44902e-06 0)
(0.195654 -2.25704e-06 0)
(0.19565 -2.08243e-06 0)
(0.195647 -1.9218e-06 0)
(0.195644 -1.77295e-06 0)
(0.195641 -1.63439e-06 0)
(0.195639 -1.50506e-06 0)
(0.195636 -1.38414e-06 0)
(0.195634 -1.27096e-06 0)
(0.195632 -1.16493e-06 0)
(0.19563 -1.06554e-06 0)
(0.195629 -9.72313e-07 0)
(0.195627 -8.84801e-07 0)
(0.195626 -8.02589e-07 0)
(0.195625 -7.25276e-07 0)
(0.195624 -6.52452e-07 0)
(0.195623 -5.83762e-07 0)
(0.195622 -5.18803e-07 0)
(0.195621 -4.57235e-07 0)
(0.19562 -3.98684e-07 0)
(0.19562 -3.428e-07 0)
(0.195619 -2.89234e-07 0)
(0.195618 -2.37612e-07 0)
(0.195618 -1.87593e-07 0)
(0.195617 -1.38781e-07 0)
(0.195617 -9.07661e-08 0)
(0.195617 -4.30652e-08 0)
(0.195616 4.83857e-09 0)
(0.195616 5.40496e-08 0)
(0.195615 1.07291e-07 0)
(0.195615 1.69855e-07 0)
(0.195615 2.4663e-07 0)
(0.195828 0.00700717 0)
(0.196524 0.0077678 0)
(0.197339 0.00830144 0)
(0.198184 0.0086325 0)
(0.199011 0.00879717 0)
(0.199798 0.00881862 0)
(0.200526 0.00871513 0)
(0.201177 0.00850768 0)
(0.201738 0.00821928 0)
(0.202203 0.0078724 0)
(0.202572 0.00748744 0)
(0.202849 0.007082 0)
(0.203043 0.0066702 0)
(0.203163 0.00626236 0)
(0.203221 0.00586508 0)
(0.203228 0.00548169 0)
(0.203194 0.00511284 0)
(0.203127 0.00475724 0)
(0.203036 0.00441226 0)
(0.202925 0.00407453 0)
(0.2028 0.00374037 0)
(0.202664 0.00340624 0)
(0.202517 0.00306923 0)
(0.202361 0.00272764 0)
(0.202195 0.00238157 0)
(0.202016 0.00203354 0)
(0.201824 0.00168866 0)
(0.201617 0.00135435 0)
(0.201396 0.00103956 0)
(0.201163 0.000753547 0)
(0.200926 0.000504019 0)
(0.20069 0.000294993 0)
(0.200462 0.000125688 0)
(0.200244 -7.0323e-06 0)
(0.200041 -0.000106863 0)
(0.199857 -0.000178289 0)
(0.199693 -0.000226147 0)
(0.199551 -0.000254983 0)
(0.199429 -0.000268791 0)
(0.199326 -0.000270954 0)
(0.19924 -0.000264288 0)
(0.199169 -0.000251116 0)
(0.199111 -0.000233357 0)
(0.199065 -0.000212598 0)
(0.199028 -0.000190157 0)
(0.198999 -0.000167122 0)
(0.198975 -0.000144378 0)
(0.198956 -0.000122624 0)
(0.198941 -0.000102387 0)
(0.198928 -8.40331e-05 0)
(0.198916 -6.77786e-05 0)
(0.198905 -5.37115e-05 0)
(0.198894 -4.18088e-05 0)
(0.198884 -3.19602e-05 0)
(0.198874 -2.39916e-05 0)
(0.198863 -1.76877e-05 0)
(0.198853 -1.28132e-05 0)
(0.198843 -9.13023e-06 0)
(0.198832 -6.41228e-06 0)
(0.198822 -4.454e-06 0)
(0.198812 -3.07719e-06 0)
(0.198803 -2.13324e-06 0)
(0.198794 -1.50267e-06 0)
(0.198785 -1.09255e-06 0)
(0.198777 -8.32919e-07 0)
(0.19877 -6.72797e-07 0)
(0.198763 -5.76309e-07 0)
(0.198757 -5.19039e-07 0)
(0.198751 -4.84885e-07 0)
(0.198745 -4.63558e-07 0)
(0.19874 -4.48703e-07 0)
(0.198736 -4.36523e-07 0)
(0.198731 -4.24852e-07 0)
(0.198727 -4.12504e-07 0)
(0.198724 -3.98897e-07 0)
(0.198721 -3.83787e-07 0)
(0.198718 -3.6711e-07 0)
(0.198715 -3.48939e-07 0)
(0.198713 -3.29363e-07 0)
(0.198711 -3.08536e-07 0)
(0.198709 -2.86579e-07 0)
(0.198707 -2.63618e-07 0)
(0.198705 -2.39764e-07 0)
(0.198704 -2.15079e-07 0)
(0.198702 -1.89646e-07 0)
(0.198701 -1.63467e-07 0)
(0.1987 -1.36571e-07 0)
(0.198699 -1.08925e-07 0)
(0.198698 -8.04865e-08 0)
(0.198697 -5.11863e-08 0)
(0.198697 -2.08985e-08 0)
(0.198696 1.04977e-08 0)
(0.198695 4.32085e-08 0)
(0.198695 7.7497e-08 0)
(0.198694 1.13769e-07 0)
(0.198694 1.52597e-07 0)
(0.198693 1.94878e-07 0)
(0.198693 2.42353e-07 0)
(0.198692 2.98001e-07 0)
(0.198692 3.61643e-07 0)
(0.196314 0.00667143 0)
(0.1969 0.0073356 0)
(0.197596 0.00782731 0)
(0.198335 0.00815027 0)
(0.199076 0.00832601 0)
(0.199794 0.00837288 0)
(0.200471 0.00830658 0)
(0.20109 0.00814455 0)
(0.201641 0.00790605 0)
(0.202117 0.00761032 0)
(0.202518 0.00727508 0)
(0.202845 0.00691582 0)
(0.203106 0.00654523 0)
(0.203306 0.0061729 0)
(0.203455 0.00580532 0)
(0.20356 0.00544615 0)
(0.20363 0.00509667 0)
(0.203671 0.00475641 0)
(0.203689 0.00442358 0)
(0.203688 0.00409567 0)
(0.20367 0.00376984 0)
(0.203636 0.00344334 0)
(0.203587 0.00311403 0)
(0.20352 0.00278081 0)
(0.203434 0.00244421 0)
(0.203327 0.0021068 0)
(0.203195 0.00177328 0)
(0.203038 0.00145027 0)
(0.202856 0.00114555 0)
(0.202653 0.000867038 0)
(0.202434 0.000621298 0)
(0.202208 0.000412117 0)
(0.201981 0.000239752 0)
(0.20176 0.000101788 0)
(0.201548 -5.31007e-06 0)
(0.201348 -8.53539e-05 0)
(0.201164 -0.000142456 0)
(0.200996 -0.000180615 0)
(0.200845 -0.000203443 0)
(0.20071 -0.000214075 0)
(0.20059 -0.000215185 0)
(0.200484 -0.000209028 0)
(0.200391 -0.0001975 0)
(0.200311 -0.000182203 0)
(0.200241 -0.000164482 0)
(0.20018 -0.000145472 0)
(0.200128 -0.00012611 0)
(0.200083 -0.000107155 0)
(0.200044 -8.91984e-05 0)
(0.200011 -7.26733e-05 0)
(0.199981 -5.78658e-05 0)
(0.199955 -4.49305e-05 0)
(0.199932 -3.39083e-05 0)
(0.199912 -2.4747e-05 0)
(0.199893 -1.73233e-05 0)
(0.199876 -1.14645e-05 0)
(0.19986 -6.96899e-06 0)
(0.199845 -3.62427e-06 0)
(0.199831 -1.2218e-06 0)
(0.199818 4.32228e-07 0)
(0.199806 1.50998e-06 0)
(0.199795 2.15811e-06 0)
(0.199784 2.49668e-06 0)
(0.199775 2.62048e-06 0)
(0.199765 2.60182e-06 0)
(0.199757 2.49388e-06 0)
(0.199749 2.33437e-06 0)
(0.199742 2.14911e-06 0)
(0.199735 1.9551e-06 0)
(0.199729 1.76308e-06 0)
(0.199723 1.5795e-06 0)
(0.199718 1.40795e-06 0)
(0.199713 1.25014e-06 0)
(0.199709 1.10666e-06 0)
(0.199705 9.77404e-07 0)
(0.199701 8.61832e-07 0)
(0.199698 7.59217e-07 0)
(0.199695 6.68689e-07 0)
(0.199692 5.89385e-07 0)
(0.19969 5.20413e-07 0)
(0.199688 4.60947e-07 0)
(0.199686 4.102e-07 0)
(0.199684 3.67436e-07 0)
(0.199682 3.32015e-07 0)
(0.199681 3.03319e-07 0)
(0.199679 2.80847e-07 0)
(0.199678 2.64117e-07 0)
(0.199677 2.52744e-07 0)
(0.199676 2.46396e-07 0)
(0.199675 2.44794e-07 0)
(0.199674 2.47758e-07 0)
(0.199673 2.55137e-07 0)
(0.199673 2.66896e-07 0)
(0.199672 2.83046e-07 0)
(0.199671 3.03721e-07 0)
(0.199671 3.29259e-07 0)
(0.19967 3.60268e-07 0)
(0.19967 3.97857e-07 0)
(0.199669 4.43333e-07 0)
(0.199669 4.93108e-07 0)
(0.196744 0.00637461 0)
(0.197245 0.00695312 0)
(0.197841 0.00739965 0)
(0.198486 0.00770754 0)
(0.199144 0.00788747 0)
(0.199791 0.00795259 0)
(0.200408 0.00791567 0)
(0.200981 0.00779096 0)
(0.201499 0.0075944 0)
(0.201956 0.00734224 0)
(0.20235 0.00704981 0)
(0.202683 0.00673073 0)
(0.202958 0.00639639 0)
(0.203182 0.00605568 0)
(0.20336 0.0057149 0)
(0.2035 0.00537795 0)
(0.203608 0.00504665 0)
(0.203689 0.00472123 0)
(0.203748 0.0044007 0)
(0.203787 0.00408338 0)
(0.203809 0.00376721 0)
(0.203815 0.00345024 0)
(0.203803 0.00313099 0)
(0.203771 0.00280892 0)
(0.203718 0.00248482 0)
(0.20364 0.00216117 0)
(0.203536 0.00184218 0)
(0.203404 0.00153356 0)
(0.203246 0.00124193 0)
(0.203064 0.000973931 0)
(0.202864 0.000735099 0)
(0.202652 0.0005288 0)
(0.202436 0.000355723 0)
(0.202221 0.000214354 0)
(0.202012 0.000101911 0)
(0.201812 1.50097e-05 0)
(0.201625 -4.9845e-05 0)
(0.201451 -9.61178e-05 0)
(0.201291 -0.000127062 0)
(0.201145 -0.000145572 0)
(0.201012 -0.00015416 0)
(0.200894 -0.00015499 0)
(0.200787 -0.00014991 0)
(0.200693 -0.000140497 0)
(0.200609 -0.000128098 0)
(0.200535 -0.000113853 0)
(0.20047 -9.87149e-05 0)
(0.200414 -8.3466e-05 0)
(0.200364 -6.87255e-05 0)
(0.200321 -5.49606e-05 0)
(0.200283 -4.24967e-05 0)
(0.20025 -3.1532e-05 0)
(0.200221 -2.21534e-05 0)
(0.200195 -1.43555e-05 0)
(0.200172 -8.06077e-06 0)
(0.200152 -3.13962e-06 0)
(0.200133 5.7044e-07 0)
(0.200116 3.24828e-06 0)
(0.200101 5.07474e-06 0)
(0.200087 6.22156e-06 0)
(0.200073 6.84418e-06 0)
(0.200061 7.07727e-06 0)
(0.20005 7.03274e-06 0)
(0.20004 6.80002e-06 0)
(0.20003 6.44785e-06 0)
(0.200021 6.0272e-06 0)
(0.200013 5.57451e-06 0)
(0.200005 5.11488e-06 0)
(0.199998 4.66482e-06 0)
(0.199992 4.23463e-06 0)
(0.199986 3.83026e-06 0)
(0.19998 3.45468e-06 0)
(0.199975 3.10892e-06 0)
(0.199971 2.79275e-06 0)
(0.199967 2.50519e-06 0)
(0.199963 2.24482e-06 0)
(0.19996 2.01e-06 0)
(0.199957 1.799e-06 0)
(0.199954 1.61007e-06 0)
(0.199951 1.44151e-06 0)
(0.199949 1.29171e-06 0)
(0.199947 1.15914e-06 0)
(0.199945 1.04239e-06 0)
(0.199943 9.40171e-07 0)
(0.199941 8.51273e-07 0)
(0.19994 7.74644e-07 0)
(0.199939 7.09305e-07 0)
(0.199937 6.544e-07 0)
(0.199936 6.09179e-07 0)
(0.199935 5.72977e-07 0)
(0.199934 5.45261e-07 0)
(0.199934 5.25567e-07 0)
(0.199933 5.13568e-07 0)
(0.199932 5.09014e-07 0)
(0.199932 5.11801e-07 0)
(0.199931 5.22007e-07 0)
(0.19993 5.39911e-07 0)
(0.19993 5.65998e-07 0)
(0.199929 6.00269e-07 0)
(0.199929 6.37363e-07 0)
(0.197125 0.00610792 0)
(0.197558 0.00661198 0)
(0.198072 0.00701386 0)
(0.198635 0.00730262 0)
(0.199218 0.00748168 0)
(0.199798 0.00755943 0)
(0.200357 0.00754575 0)
(0.200881 0.00745206 0)
(0.201362 0.00729134 0)
(0.201792 0.00707719 0)
(0.202169 0.00682272 0)
(0.202493 0.0065398 0)
(0.202766 0.00623859 0)
(0.202994 0.00592723 0)
(0.203181 0.00561176 0)
(0.203332 0.0052962 0)
(0.203453 0.00498278 0)
(0.203548 0.00467231 0)
(0.203621 0.00436452 0)
(0.203675 0.00405845 0)
(0.203711 0.0037528 0)
(0.20373 0.00344631 0)
(0.20373 0.00313811 0)
(0.20371 0.0028281 0)
(0.203669 0.00251729 0)
(0.203604 0.002208 0)
(0.203514 0.00190397 0)
(0.203397 0.0016101 0)
(0.203254 0.00133194 0)
(0.203089 0.00107505 0)
(0.202906 0.000844076 0)
(0.20271 0.000641975 0)
(0.202508 0.000469651 0)
(0.202305 0.000326193 0)
(0.202106 0.000209525 0)
(0.201915 0.000116929 0)
(0.201733 4.53723e-05 0)
(0.201562 -8.19127e-06 0)
(0.201403 -4.66177e-05 0)
(0.201257 -7.25358e-05 0)
(0.201123 -8.82965e-05 0)
(0.201002 -9.59551e-05 0)
(0.200893 -9.72948e-05 0)
(0.200795 -9.38544e-05 0)
(0.200707 -8.69568e-05 0)
(0.200629 -7.77312e-05 0)
(0.20056 -6.71294e-05 0)
(0.200499 -5.59383e-05 0)
(0.200446 -4.47898e-05 0)
(0.200399 -3.41699e-05 0)
(0.200358 -2.44305e-05 0)
(0.200322 -1.58019e-05 0)
(0.200291 -8.4082e-06 0)
(0.200263 -2.28485e-06 0)
(0.200238 2.60391e-06 0)
(0.200216 6.34663e-06 0)
(0.200197 9.06707e-06 0)
(0.200179 1.09085e-05 0)
(0.200163 1.20207e-05 0)
(0.200148 1.25498e-05 0)
(0.200134 1.26304e-05 0)
(0.200122 1.23804e-05 0)
(0.20011 1.18993e-05 0)
(0.2001 1.12673e-05 0)
(0.20009 1.05469e-05 0)
(0.200081 9.78489e-06 0)
(0.200072 9.01504e-06 0)
(0.200065 8.26058e-06 0)
(0.200057 7.53675e-06 0)
(0.200051 6.85281e-06 0)
(0.200045 6.21379e-06 0)
(0.200039 5.62175e-06 0)
(0.200034 5.07678e-06 0)
(0.20003 4.5777e-06 0)
(0.200026 4.12255e-06 0)
(0.200022 3.70893e-06 0)
(0.200018 3.33421e-06 0)
(0.200015 2.99571e-06 0)
(0.200012 2.69078e-06 0)
(0.20001 2.41682e-06 0)
(0.200007 2.1714e-06 0)
(0.200005 1.95222e-06 0)
(0.200003 1.75713e-06 0)
(0.200002 1.58416e-06 0)
(0.2 1.43149e-06 0)
(0.199998 1.29748e-06 0)
(0.199997 1.18061e-06 0)
(0.199996 1.07954e-06 0)
(0.199995 9.93074e-07 0)
(0.199994 9.20138e-07 0)
(0.199993 8.59829e-07 0)
(0.199992 8.11345e-07 0)
(0.199991 7.74052e-07 0)
(0.199991 7.47424e-07 0)
(0.19999 7.31093e-07 0)
(0.199989 7.24858e-07 0)
(0.199989 7.28653e-07 0)
(0.199988 7.42413e-07 0)
(0.199988 7.65267e-07 0)
(0.199987 7.91406e-07 0)
(0.197464 0.00586547 0)
(0.197842 0.00630549 0)
(0.198288 0.0066652 0)
(0.19878 0.00693273 0)
(0.199295 0.00710708 0)
(0.199814 0.00719285 0)
(0.200318 0.00719723 0)
(0.200796 0.00712918 0)
(0.201239 0.00699913 0)
(0.20164 0.00681828 0)
(0.201997 0.0065977 0)
(0.202307 0.00634764 0)
(0.202573 0.00607705 0)
(0.202798 0.00579332 0)
(0.202986 0.00550215 0)
(0.20314 0.00520755 0)
(0.203266 0.00491204 0)
(0.203367 0.0046169 0)
(0.203446 0.00432244 0)
(0.203505 0.00402833 0)
(0.203545 0.00373392 0)
(0.203568 0.00343857 0)
(0.203573 0.00314192 0)
(0.203558 0.00284426 0)
(0.203522 0.00254672 0)
(0.203463 0.00225152 0)
(0.203381 0.00196196 0)
(0.203274 0.00168221 0)
(0.203145 0.00141697 0)
(0.202994 0.00117086 0)
(0.202827 0.000947801 0)
(0.202647 0.000750392 0)
(0.20246 0.000579636 0)
(0.202272 0.000435061 0)
(0.202085 0.000315136 0)
(0.201904 0.000217693 0)
(0.201731 0.000140226 0)
(0.201567 8.01222e-05 0)
(0.201414 3.48186e-05 0)
(0.201272 1.93179e-06 0)
(0.201142 -2.06916e-05 0)
(0.201023 -3.49729e-05 0)
(0.200915 -4.26081e-05 0)
(0.200817 -4.5084e-05 0)
(0.200729 -4.36893e-05 0)
(0.200651 -3.95314e-05 0)
(0.200582 -3.35503e-05 0)
(0.20052 -2.65292e-05 0)
(0.200466 -1.91047e-05 0)
(0.200418 -1.17758e-05 0)
(0.200376 -4.91455e-06 0)
(0.200339 1.22181e-06 0)
(0.200307 6.47699e-06 0)
(0.200278 1.07799e-05 0)
(0.200253 1.41278e-05 0)
(0.20023 1.657e-05 0)
(0.20021 1.81923e-05 0)
(0.200191 1.91032e-05 0)
(0.200175 1.94212e-05 0)
(0.20016 1.92652e-05 0)
(0.200146 1.87472e-05 0)
(0.200133 1.79671e-05 0)
(0.200121 1.70104e-05 0)
(0.200111 1.5947e-05 0)
(0.200101 1.48318e-05 0)
(0.200092 1.37065e-05 0)
(0.200083 1.26011e-05 0)
(0.200076 1.15362e-05 0)
(0.200068 1.05252e-05 0)
(0.200062 9.57587e-06 0)
(0.200056 8.69192e-06 0)
(0.200051 7.87428e-06 0)
(0.200046 7.12191e-06 0)
(0.200041 6.43255e-06 0)
(0.200037 5.80314e-06 0)
(0.200033 5.23021e-06 0)
(0.20003 4.71011e-06 0)
(0.200026 4.23913e-06 0)
(0.200024 3.81366e-06 0)
(0.200021 3.4302e-06 0)
(0.200019 3.08543e-06 0)
(0.200016 2.77626e-06 0)
(0.200014 2.49977e-06 0)
(0.200013 2.2533e-06 0)
(0.200011 2.03435e-06 0)
(0.20001 1.8407e-06 0)
(0.200008 1.67027e-06 0)
(0.200007 1.52121e-06 0)
(0.200006 1.39185e-06 0)
(0.200005 1.28071e-06 0)
(0.200004 1.18649e-06 0)
(0.200003 1.10805e-06 0)
(0.200003 1.04441e-06 0)
(0.200002 9.94781e-07 0)
(0.200001 9.58503e-07 0)
(0.200001 9.35095e-07 0)
(0.2 9.24157e-07 0)
(0.2 9.25178e-07 0)
(0.199999 9.36773e-07 0)
(0.199998 9.53482e-07 0)
(0.197766 0.00564311 0)
(0.198099 0.00602824 0)
(0.198488 0.00634924 0)
(0.198919 0.00659489 0)
(0.199374 0.00676183 0)
(0.199836 0.00685192 0)
(0.20029 0.00687002 0)
(0.200724 0.00682294 0)
(0.201131 0.00671895 0)
(0.201503 0.00656712 0)
(0.201837 0.0063767 0)
(0.202132 0.00615642 0)
(0.202388 0.00591409 0)
(0.202608 0.00565636 0)
(0.202793 0.0053885 0)
(0.202948 0.00511444 0)
(0.203075 0.00483687 0)
(0.203178 0.00455739 0)
(0.203259 0.0042768 0)
(0.20332 0.00399528 0)
(0.203363 0.00371275 0)
(0.203388 0.00342906 0)
(0.203394 0.0031443 0)
(0.203382 0.00285906 0)
(0.203349 0.00257458 0)
(0.203295 0.00229296 0)
(0.20322 0.00201713 0)
(0.203122 0.00175067 0)
(0.203003 0.00149755 0)
(0.202866 0.00126164 0)
(0.202713 0.00104627 0)
(0.202549 0.000853711 0)
(0.202377 0.000685011 0)
(0.202203 0.000540007 0)
(0.202029 0.00041761 0)
(0.20186 0.000316118 0)
(0.201697 0.000233467 0)
(0.201541 0.000167432 0)
(0.201396 0.000115787 0)
(0.20126 7.64003e-05 0)
(0.201134 4.72966e-05 0)
(0.201019 2.66819e-05 0)
(0.200914 1.29549e-05 0)
(0.200818 4.70107e-06 0)
(0.200732 6.80491e-07 0)
(0.200655 -1.82345e-07 0)
(0.200586 1.1921e-06 0)
(0.200525 4.02971e-06 0)
(0.200471 7.69439e-06 0)
(0.200423 1.16793e-05 0)
(0.200381 1.5597e-05 0)
(0.200343 1.91674e-05 0)
(0.20031 2.22052e-05 0)
(0.200281 2.46057e-05 0)
(0.200255 2.63304e-05 0)
(0.200232 2.73923e-05 0)
(0.200212 2.78415e-05 0)
(0.200193 2.7753e-05 0)
(0.200176 2.72146e-05 0)
(0.200161 2.63186e-05 0)
(0.200147 2.51544e-05 0)