/*--------------------------------*- C++ -*----------------------------------*\
| =========                 |                                                 |
| \\      /  F ield         | OpenFOAM: The Open Source CFD Toolbox           |
|  \\    /   O peration     | Version:  2.3.0                                 |
|   \\  /    A nd           | Web:      www.OpenFOAM.org                      |
|    \\/     M anipulation  |                                                 |
\*---------------------------------------------------------------------------*/
FoamFile
{
    version     2.0;
    format      ascii;
    class       surfaceScalarField;
    location    "0.2";
    object      phi;
}
// * * * * * * * * * * * * * * * * * * * * * * * * * * * * * * * * * * * * * //

dimensions      [0 3 -1 0 0 0 0];

internalField   nonuniform List<scalar> 
6598
(
2.81759e-08
2.89515e-09
-3.10711e-08
2.53014e-08
2.87451e-09
2.26053e-08
2.69611e-09
2.01214e-08
2.48392e-09
1.78661e-08
2.25531e-09
1.58501e-08
2.01595e-09
1.40759e-08
1.77418e-09
1.2538e-08
1.53793e-09
1.12241e-08
1.31392e-09
1.01165e-08
1.1076e-09
9.19352e-09
9.2298e-10
8.43115e-09
7.62363e-10
7.80483e-09
6.26326e-10
7.29089e-09
5.13939e-10
6.86776e-09
4.23127e-10
6.51666e-09
3.51099e-10
6.22189e-09
2.94768e-10
5.97081e-09
2.51089e-10
5.75351e-09
2.17295e-10
5.56249e-09
1.91019e-10
5.39215e-09
1.70342e-10
5.23838e-09
1.53769e-10
5.0982e-09
1.40179e-10
4.96945e-09
1.28755e-10
4.85053e-09
1.1892e-10
4.74026e-09
1.10268e-10
4.63774e-09
1.02524e-10
4.54224e-09
9.54941e-11
4.4532e-09
8.90468e-11
4.37011e-09
8.30866e-11
4.29257e-09
7.75424e-11
4.22021e-09
7.23588e-11
4.15272e-09
6.749e-11
4.08982e-09
6.28972e-11
4.03127e-09
5.85463e-11
3.97687e-09
5.44075e-11
3.92641e-09
5.04547e-11
3.87975e-09
4.6665e-11
3.83673e-09
4.30173e-11
3.79724e-09
3.94903e-11
3.76118e-09
3.60583e-11
3.7285e-09
3.26852e-11
3.69918e-09
2.93172e-11
3.6733e-09
2.58747e-11
3.65105e-09
2.22494e-11
3.63275e-09
1.83058e-11
3.61889e-09
1.38614e-11
3.61019e-09
8.69812e-12
3.60734e-09
2.85417e-12
3.60952e-09
-2.18098e-12
3.61539e-09
-5.87438e-12
3.62404e-09
-8.65378e-12
3.63471e-09
-1.06658e-11
3.64666e-09
-1.19516e-11
3.65926e-09
-1.2596e-11
3.67197e-09
-1.27169e-11
3.68442e-09
-1.24418e-11
3.69631e-09
-1.18919e-11
3.70748e-09
-1.11696e-11
3.71783e-09
-1.03556e-11
3.72734e-09
-9.50923e-12
3.73601e-09
-8.67092e-12
3.74388e-09
-7.8662e-12
3.75099e-09
-7.10948e-12
3.7574e-09
-6.40748e-12
3.76316e-09
-5.76188e-12
3.76833e-09
-5.17136e-12
3.77296e-09
-4.63295e-12
3.77711e-09
-4.14295e-12
3.7808e-09
-3.69751e-12
3.7841e-09
-3.2929e-12
3.78702e-09
-2.92573e-12
3.78961e-09
-2.59292e-12
3.79191e-09
-2.29175e-12
3.79393e-09
-2.01977e-12
3.7957e-09
-1.77481e-12
3.79726e-09
-1.55487e-12
3.79861e-09
-1.35813e-12
3.7998e-09
-1.18286e-12
3.80082e-09
-1.02744e-12
3.80171e-09
-8.9025e-13
3.80248e-09
-7.69775e-13
3.80315e-09
-6.64509e-13
3.80372e-09
-5.72978e-13
3.80422e-09
-4.93762e-13
3.80464e-09
-4.25484e-13
3.80501e-09
-3.66831e-13
3.80532e-09
-3.16572e-13
3.8056e-09
-2.73557e-13
3.80584e-09
-2.36746e-13
3.80604e-09
-2.05203e-13
3.80622e-09
-1.78109e-13
3.80637e-09
-1.54769e-13
3.80651e-09
-1.34614e-13
3.80662e-09
-1.17222e-13
3.80673e-09
-1.02391e-13
3.80682e-09
-9.0401e-14
3.8069e-09
-8.32636e-14
3.80699e-09
-9.0764e-14
-1.77842e-13
3.385e-08
3.17715e-09
-3.4132e-08
3.32519e-08
3.47259e-09
3.24195e-08
3.52854e-09
3.14297e-08
3.47369e-09
3.03386e-08
3.3465e-09
2.9192e-08
3.16248e-09
2.80275e-08
2.9387e-09
2.68737e-08
2.69176e-09
2.57518e-08
2.43583e-09
2.46767e-08
2.18264e-09
2.36582e-08
1.94147e-09
2.27017e-08
1.71889e-09
2.18092e-08
1.51884e-09
2.09803e-08
1.34283e-09
2.02129e-08
1.19051e-09
1.95038e-08
1.06019e-09
1.88492e-08
9.49415e-10
1.82448e-08
8.55439e-10
1.76866e-08
7.75532e-10
1.71704e-08
7.07201e-10
1.66925e-08
6.48288e-10
1.62492e-08
5.96997e-10
1.58375e-08
5.51882e-10
1.54545e-08
5.11792e-10
1.50976e-08
4.7583e-10
1.47646e-08
4.43294e-10
1.44535e-08
4.13632e-10
1.41625e-08
3.8641e-10
1.38903e-08
3.61275e-10
1.36355e-08
3.3794e-10
1.33968e-08
3.16162e-10
1.31735e-08
2.95735e-10
1.29645e-08
2.76479e-10
1.27691e-08
2.58237e-10
1.25868e-08
2.4087e-10
1.2417e-08
2.24251e-10
1.22591e-08
2.08271e-10
1.2113e-08
1.92827e-10
1.19782e-08
1.77822e-10
1.18545e-08
1.63159e-10
1.17418e-08
1.48731e-10
1.16401e-08
1.34409e-10
1.15494e-08
1.20033e-10
1.14699e-08
1.05405e-10
1.14018e-08
9.02954e-11
1.13457e-08
7.44721e-11
1.13018e-08
5.77502e-11
1.12704e-08
4.00378e-11
1.12521e-08
2.1173e-11
1.12474e-08
2.55571e-12
1.12541e-08
-1.25609e-11
1.12687e-08
-2.32546e-11
1.12888e-08
-3.08076e-11
1.13126e-08
-3.57709e-11
1.13386e-08
-3.8571e-11
1.13655e-08
-3.96301e-11
1.13924e-08
-3.93569e-11
1.14187e-08
-3.8127e-11
1.14437e-08
-3.62595e-11
1.14674e-08
-3.40093e-11
1.14895e-08
-3.15688e-11
1.15099e-08
-2.90746e-11
1.15286e-08
-2.66179e-11
1.15458e-08
-2.42555e-11
1.15614e-08
-2.20197e-11
1.15755e-08
-1.9926e-11
1.15883e-08
-1.79792e-11
1.15999e-08
-1.61776e-11
1.16103e-08
-1.45164e-11
1.16196e-08
-1.29889e-11
1.16279e-08
-1.15878e-11
1.16352e-08
-1.03062e-11
1.16418e-08
-9.13736e-12
1.16476e-08
-8.07475e-12
1.16527e-08
-7.11235e-12
1.16571e-08
-6.2443e-12
1.1661e-08
-5.46487e-12
1.16644e-08
-4.76842e-12
1.16674e-08
-4.14928e-12
1.167e-08
-3.60177e-12
1.16722e-08
-3.12018e-12
1.16741e-08
-2.6988e-12
1.16758e-08
-2.33197e-12
1.16773e-08
-2.01411e-12
1.16785e-08
-1.73983e-12
1.16796e-08
-1.50395e-12
1.16805e-08
-1.30157e-12
1.16813e-08
-1.12816e-12
1.1682e-08
-9.79567e-13
1.16826e-08
-8.52064e-13
1.16832e-08
-7.42363e-13
1.16836e-08
-6.47624e-13
1.16841e-08
-5.65447e-13
1.16844e-08
-4.93886e-13
1.16847e-08
-4.31476e-13
1.1685e-08
-3.7743e-13
1.16853e-08
-3.3232e-13
1.16855e-08
-3.009e-13
1.16857e-08
-3.03905e-13
-4.14777e-13
3.59332e-08
3.02514e-09
-3.57812e-08
3.59972e-08
3.40859e-09
3.59345e-08
3.59125e-09
3.57497e-08
3.65843e-09
3.5453e-08
3.64322e-09
3.50583e-08
3.55723e-09
3.45828e-08
3.41415e-09
3.40446e-08
3.22999e-09
3.34605e-08
3.01994e-09
3.28457e-08
2.79746e-09
3.22132e-08
2.57392e-09
3.15739e-08
2.35821e-09
3.09362e-08
2.15655e-09
3.03065e-08
1.97255e-09
2.96893e-08
1.80763e-09
2.90879e-08
1.66158e-09
2.85043e-08
1.53308e-09
2.79395e-08
1.42021e-09
2.73942e-08
1.32082e-09
2.68686e-08
1.23284e-09
2.63625e-08
1.15434e-09
2.58758e-08
1.08369e-09
2.54082e-08
1.01955e-09
2.49592e-08
9.60798e-10
2.45284e-08
9.06566e-10
2.41156e-08
8.56156e-10
2.37202e-08
8.0901e-10
2.33419e-08
7.64678e-10
2.29804e-08
7.22791e-10
2.26353e-08
6.83037e-10
2.23063e-08
6.45148e-10
2.19932e-08
6.08887e-10
2.16956e-08
5.74044e-10
2.14134e-08
5.40424e-10
2.11464e-08
5.07849e-10
2.08945e-08
4.76155e-10
2.06576e-08
4.45186e-10
2.04356e-08
4.14791e-10
2.02286e-08
3.84821e-10
2.00367e-08
3.55118e-10
1.98599e-08
3.25508e-10
1.96985e-08
2.9579e-10
1.95528e-08
2.65735e-10
1.94231e-08
2.35093e-10
1.93098e-08
2.03622e-10
1.92131e-08
1.7116e-10
1.91331e-08
1.37741e-10
1.90694e-08
1.0381e-10
1.90202e-08
7.03426e-11
1.89847e-08
3.80327e-11
1.89649e-08
7.21501e-12
1.89605e-08
-1.88622e-11
1.89677e-08
-3.79639e-11
1.89834e-08
-5.14394e-11
1.90051e-08
-6.03333e-11
1.9031e-08
-6.55216e-11
1.90595e-08
-6.77968e-11
1.90892e-08
-6.78717e-11
1.91193e-08
-6.63573e-11
1.91491e-08
-6.37553e-11
1.91779e-08
-6.04593e-11
1.92056e-08
-5.67648e-11
1.92319e-08
-5.28845e-11
1.92566e-08
-4.89653e-11
1.92797e-08
-4.51044e-11
1.93011e-08
-4.13637e-11
1.93209e-08
-3.77801e-11
1.93391e-08
-3.43746e-11
1.93558e-08
-3.11579e-11
1.93709e-08
-2.81345e-11
1.93846e-08
-2.53056e-11
1.9397e-08
-2.26701e-11
1.94081e-08
-2.0226e-11
1.9418e-08
-1.79703e-11
1.94268e-08
-1.58994e-11
1.94345e-08
-1.40086e-11
1.94414e-08
-1.22928e-11
1.94473e-08
-1.07453e-11
1.94525e-08
-9.35896e-12
1.94571e-08
-8.12511e-12
1.9461e-08
-7.03438e-12
1.94644e-08
-6.07655e-12
1.94673e-08
-5.24076e-12
1.94698e-08
-4.51582e-12
1.94719e-08
-3.89036e-12
1.94738e-08
-3.35319e-12
1.94754e-08
-2.89345e-12
1.94767e-08
-2.50087e-12
1.94779e-08
-2.16592e-12
1.9479e-08
-1.87993e-12
1.94798e-08
-1.63521e-12
1.94806e-08
-1.42504e-12
1.94813e-08
-1.2437e-12
1.94819e-08
-1.0865e-12
1.94824e-08
-9.49764e-13
1.94829e-08
-8.31094e-13
1.94833e-08
-7.30263e-13
1.94836e-08
-6.52435e-13
1.94839e-08
-6.19694e-13
-6.91735e-13
3.74914e-08
2.83302e-09
-3.72993e-08
3.76894e-08
3.21059e-09
3.78475e-08
3.43313e-09
3.79525e-08
3.55341e-09
3.79972e-08
3.59856e-09
3.79769e-08
3.57747e-09
3.78918e-08
3.49929e-09
3.77455e-08
3.37629e-09
3.75441e-08
3.22131e-09
3.72952e-08
3.0464e-09
3.70068e-08
2.8623e-09
3.6687e-08
2.67799e-09
3.63433e-08
2.50026e-09
3.59822e-08
2.33365e-09
3.56092e-08
2.18065e-09
3.52287e-08
2.04212e-09
3.48441e-08
1.91769e-09
3.4458e-08
1.80627e-09
3.40725e-08
1.70634e-09
3.3689e-08
1.61631e-09
3.33087e-08
1.53461e-09
3.29326e-08
1.45984e-09
3.25613e-08
1.39082e-09
3.21956e-08
1.32653e-09
3.1836e-08
1.26618e-09
3.1483e-08
1.20911e-09
3.11372e-08
1.1548e-09
3.07991e-08
1.10282e-09
3.04691e-08
1.05282e-09
3.01476e-08
1.00449e-09
2.98352e-08
9.5759e-10
2.95322e-08
9.11878e-10
2.92391e-08
8.67147e-10
2.89563e-08
8.23202e-10
2.86843e-08
7.79862e-10
2.84235e-08
7.36951e-10
2.81744e-08
6.943e-10
2.79374e-08
6.51738e-10
2.77132e-08
6.09092e-10
2.75021e-08
5.66174e-10
2.73048e-08
5.22778e-10
2.71219e-08
4.78681e-10
2.6954e-08
4.33644e-10
2.68017e-08
3.87446e-10
2.66654e-08
3.3994e-10
2.65454e-08
2.91149e-10
2.64417e-08
2.41416e-10
2.63539e-08
1.91569e-10
2.62813e-08
1.43005e-10
2.62219e-08
9.74281e-11
2.61732e-08
5.58546e-11
2.61366e-08
1.7765e-11
2.61139e-08
-1.52937e-11
2.61035e-08
-4.09583e-11
2.61029e-08
-5.97644e-11
2.61103e-08
-7.28842e-11
2.61238e-08
-8.13456e-11
2.6142e-08
-8.60937e-11
2.61636e-08
-8.79708e-11
2.61876e-08
-8.76969e-11
2.6213e-08
-8.58628e-11
2.62392e-08
-8.29355e-11
2.62655e-08
-7.92722e-11
2.62917e-08
-7.51391e-11
2.63173e-08
-7.07302e-11
2.63422e-08
-6.61841e-11
2.6366e-08
-6.15991e-11
2.63887e-08
-5.7045e-11
2.64101e-08
-5.25719e-11
2.64302e-08
-4.82167e-11
2.64489e-08
-4.40078e-11
2.64662e-08
-3.99677e-11
2.6482e-08
-3.61152e-11
2.64965e-08
-3.24659e-11
2.65097e-08
-2.90326e-11
2.65215e-08
-2.58259e-11
2.6532e-08
-2.2853e-11
2.65414e-08
-2.01184e-11
2.65497e-08
-1.76232e-11
2.65569e-08
-1.53654e-11
2.65632e-08
-1.33394e-11
2.65687e-08
-1.15366e-11
2.65734e-08
-9.94567e-12
2.65774e-08
-8.55286e-12
2.65809e-08
-7.34265e-12
2.65838e-08
-6.29828e-12
2.65863e-08
-5.4024e-12
2.65885e-08
-4.63762e-12
2.65903e-08
-3.98704e-12
2.65919e-08
-3.43468e-12
2.65932e-08
-2.96582e-12
2.65943e-08
-2.56725e-12
2.65953e-08
-2.2274e-12
2.65962e-08
-1.93644e-12
2.65969e-08
-1.68633e-12
2.65975e-08
-1.47107e-12
2.65981e-08
-1.28747e-12
2.65986e-08
-1.13765e-12
2.6599e-08
-1.03657e-12
-1.01833e-12
3.90093e-08
2.66518e-09
-3.88414e-08
3.92097e-08
3.01016e-09
3.94057e-08
3.2371e-09
3.95838e-08
3.37528e-09
3.97361e-08
3.44633e-09
3.98547e-08
3.45879e-09
3.99345e-08
3.41959e-09
3.99726e-08
3.33811e-09
3.99692e-08
3.22476e-09
3.9926e-08
3.08962e-09
3.98463e-08
2.94194e-09
3.97346e-08
2.78975e-09
3.95954e-08
2.63944e-09
3.94334e-08
2.49562e-09
3.92529e-08
2.36116e-09
3.90576e-08
2.23745e-09
3.88505e-08
2.12477e-09
3.86342e-08
2.0226e-09
3.84105e-08
1.92995e-09
3.81812e-08
1.84563e-09
3.79474e-08
1.76839e-09
3.77102e-08
1.69707e-09
3.74704e-08
1.63063e-09
3.72288e-08
1.56817e-09
3.6986e-08
1.50895e-09
3.67428e-08
1.45235e-09
3.64997e-08
1.39788e-09
3.62574e-08
1.34511e-09
3.60165e-08
1.2937e-09
3.57776e-08
1.24334e-09
3.55415e-08
1.19379e-09
3.53085e-08
1.14479e-09
3.50796e-08
1.09613e-09
3.48551e-08
1.04762e-09
3.46359e-08
9.99061e-10
3.44226e-08
9.50261e-10
3.42159e-08
9.01037e-10
3.40164e-08
8.51203e-10
3.3825e-08
8.00565e-10
3.36422e-08
7.48919e-10
3.34689e-08
6.96049e-10
3.33059e-08
6.41732e-10
3.31538e-08
5.85761e-10
3.30132e-08
5.27987e-10
3.28848e-08
4.68391e-10
3.27687e-08
4.07199e-10
3.26651e-08
3.45012e-10
3.25738e-08
2.82926e-10
3.24942e-08
2.22535e-10
3.2426e-08
1.6568e-10
3.23679e-08
1.13917e-10
3.23176e-08
6.80441e-11
3.22748e-08
2.75294e-11
3.22414e-08
-7.53082e-12
3.22175e-08
-3.58275e-11
3.2202e-08
-5.74025e-11
3.21939e-08
-7.32851e-11
3.21923e-08
-8.44258e-11
3.2196e-08
-9.17066e-11
3.22042e-08
-9.59169e-11
3.22161e-08
-9.77332e-11
3.22309e-08
-9.7714e-11
3.22479e-08
-9.63071e-11
3.22666e-08
-9.38627e-11
3.22865e-08
-9.06505e-11
3.23072e-08
-8.6876e-11
3.23283e-08
-8.26952e-11
3.23495e-08
-7.82277e-11
3.23705e-08
-7.3567e-11
3.23911e-08
-6.87878e-11
3.2411e-08
-6.39528e-11
3.24302e-08
-5.91159e-11
3.24484e-08
-5.43255e-11
3.24655e-08
-4.96254e-11
3.24816e-08
-4.50561e-11
3.24964e-08
-4.06544e-11
3.251e-08
-3.64535e-11
3.25224e-08
-3.24818e-11
3.25335e-08
-2.87631e-11
3.25434e-08
-2.53154e-11
3.25523e-08
-2.21507e-11
3.256e-08
-1.9275e-11
3.25667e-08
-1.66879e-11
3.25726e-08
-1.43836e-11
3.25776e-08
-1.23507e-11
3.25818e-08
-1.05738e-11
3.25855e-08
-9.03388e-12
3.25885e-08
-7.70967e-12
3.25911e-08
-6.57854e-12
3.25933e-08
-5.6175e-12
3.25952e-08
-4.80408e-12
3.25967e-08
-4.11705e-12
3.2598e-08
-3.53695e-12
3.25991e-08
-3.04647e-12
3.26001e-08
-2.63077e-12
3.26009e-08
-2.27775e-12
3.26016e-08
-1.97861e-12
3.26022e-08
-1.72905e-12
3.26027e-08
-1.53134e-12
-1.38337e-12
4.05656e-08
2.52414e-09
-4.04245e-08
4.07446e-08
2.83115e-09
4.09324e-08
3.04929e-09
4.1116e-08
3.19169e-09
4.12884e-08
3.27387e-09
4.14434e-08
3.30387e-09
4.15753e-08
3.28768e-09
4.16806e-08
3.23284e-09
4.17574e-08
3.14795e-09
4.18055e-08
3.04153e-09
4.18259e-08
2.92151e-09
4.18208e-08
2.79488e-09
4.17928e-08
2.66741e-09
4.1745e-08
2.54343e-09
4.16803e-08
2.42584e-09
4.16014e-08
2.3163e-09
4.15108e-08
2.21543e-09
4.14103e-08
2.12311e-09
4.13015e-08
2.03874e-09
4.11857e-08
1.96145e-09
4.10638e-08
1.89027e-09
4.09366e-08
1.82421e-09
4.08049e-08
1.76239e-09
4.0669e-08
1.70401e-09
4.05296e-08
1.64836e-09
4.03871e-08
1.59487e-09
4.02419e-08
1.54305e-09
4.00946e-08
1.49248e-09
3.99455e-08
1.44279e-09
3.97951e-08
1.39368e-09
3.9644e-08
1.34488e-09
3.94927e-08
1.29613e-09
3.93416e-08
1.2472e-09
3.91914e-08
1.19786e-09
3.90425e-08
1.14791e-09
3.88957e-08
1.09714e-09
3.87513e-08
1.04535e-09
3.86102e-08
9.9232e-10
3.84729e-08
9.3785e-10
3.83401e-08
8.81724e-10
3.82125e-08
8.23723e-10
3.80906e-08
7.63645e-10
3.7975e-08
7.01325e-10
3.78663e-08
6.36695e-10
3.77648e-08
5.69854e-10
3.76708e-08
5.01181e-10
3.75844e-08
4.31444e-10
3.75055e-08
3.61867e-10
3.74339e-08
2.94093e-10
3.73696e-08
2.29945e-10
3.73125e-08
1.71036e-10
3.72621e-08
1.18451e-10
3.7217e-08
7.26054e-11
3.71765e-08
3.30397e-11
3.71414e-08
-7.97888e-13
3.71126e-08
-2.85539e-11
3.70897e-08
-5.03756e-11
3.70723e-08
-6.70904e-11
3.70602e-08
-7.95126e-11
3.70526e-08
-8.83901e-11
3.70493e-08
-9.43841e-11
3.70496e-08
-9.80578e-11
3.70532e-08
-9.98758e-11
3.70595e-08
-1.00213e-10
3.70683e-08
-9.93664e-11
3.70789e-08
-9.75694e-11
3.70913e-08
-9.5005e-11
3.71048e-08
-9.18179e-11
3.71194e-08
-8.81247e-11
3.71346e-08
-8.40223e-11
3.71503e-08
-7.95941e-11
3.71661e-08
-7.49148e-11
3.71818e-08
-7.00537e-11
3.71973e-08
-6.50767e-11
3.72123e-08
-6.00475e-11
3.72266e-08
-5.50274e-11
3.72402e-08
-5.00756e-11
3.7253e-08
-4.52475e-11
3.72648e-08
-4.05943e-11
3.72757e-08
-3.61612e-11
3.72855e-08
-3.19867e-11
3.72944e-08
-2.8101e-11
3.73022e-08
-2.45259e-11
3.73091e-08
-2.12744e-11
3.73151e-08
-1.83505e-11
3.73203e-08
-1.57503e-11
3.73247e-08
-1.34622e-11
3.73284e-08
-1.14691e-11
3.73316e-08
-9.74886e-12
3.73343e-08
-8.27632e-12
3.73365e-08
-7.02463e-12
3.73383e-08
-5.96654e-12
3.73399e-08
-5.07555e-12
3.73412e-08
-4.32688e-12
3.73422e-08
-3.69815e-12
3.73431e-08
-3.16995e-12
3.73439e-08
-2.72624e-12
3.73445e-08
-2.35433e-12
3.7345e-08
-2.04186e-12
-1.74811e-12
4.21733e-08
2.40381e-09
-4.20529e-08
4.23301e-08
2.6743e-09
4.25011e-08
2.87832e-09
4.26736e-08
3.01915e-09
4.2841e-08
3.1065e-09
4.29978e-08
3.14712e-09
4.31392e-08
3.14625e-09
4.32619e-08
3.1101e-09
4.3364e-08
3.04584e-09
4.34448e-08
2.96074e-09
4.35046e-08
2.86168e-09
4.35447e-08
2.75479e-09
4.35669e-08
2.64522e-09
4.35734e-08
2.53699e-09
4.35662e-08
2.43295e-09
4.35477e-08
2.33486e-09
4.35195e-08
2.24358e-09
4.34834e-08
2.15929e-09
4.34404e-08
2.08168e-09
4.33917e-08
2.01016e-09
4.3338e-08
1.94399e-09
4.32798e-08
1.88237e-09
4.32177e-08
1.82453e-09
4.31519e-08
1.76977e-09
4.30828e-08
1.71746e-09
4.30107e-08
1.66704e-09
4.29357e-08
1.61803e-09
4.28582e-08
1.57002e-09
4.27783e-08
1.52264e-09
4.26964e-08
1.47558e-09
4.26127e-08
1.42854e-09
4.25276e-08
1.38125e-09
4.24414e-08
1.33346e-09
4.23543e-08
1.28493e-09
4.22668e-08
1.23543e-09
4.21792e-08
1.18474e-09
4.20919e-08
1.13262e-09
4.20054e-08
1.07887e-09
4.19199e-08
1.02326e-09
4.18361e-08
9.65574e-10
4.17542e-08
9.05599e-10
4.16747e-08
8.4316e-10
4.15979e-08
7.78138e-10
4.15241e-08
7.10531e-10
4.14534e-08
6.40528e-10
4.1386e-08
5.68599e-10
4.13218e-08
4.95581e-10
4.1261e-08
4.2272e-10
4.12035e-08
3.51599e-10
4.11495e-08
2.83938e-10
4.10992e-08
2.21281e-10
4.10529e-08
1.64749e-10
4.10106e-08
1.14942e-10
4.09717e-08
7.19366e-11
4.09357e-08
3.52418e-11
4.09029e-08
4.19953e-12
4.0874e-08
-2.14857e-11
4.0849e-08
-4.21006e-11
4.08279e-08
-5.83535e-11
4.08104e-08
-7.09231e-11
4.07964e-08
-8.04209e-11
4.07858e-08
-8.73778e-11
4.07781e-08
-9.22406e-11
4.07733e-08
-9.53756e-11
4.0771e-08
-9.70774e-11
4.0771e-08
-9.75805e-11
4.07731e-08
-9.70707e-11
4.0777e-08
-9.56962e-11
4.07824e-08
-9.35774e-11
4.07892e-08
-9.08147e-11
4.07971e-08
-8.74958e-11
4.08059e-08
-8.37003e-11
4.08153e-08
-7.95035e-11
4.08252e-08
-7.49794e-11
4.08354e-08
-7.02019e-11
4.08456e-08
-6.52453e-11
4.08557e-08
-6.01842e-11
4.08656e-08
-5.50927e-11
4.0875e-08
-5.00425e-11
4.0884e-08
-4.51017e-11
4.08923e-08
-4.03325e-11
4.09e-08
-3.57898e-11
4.0907e-08
-3.15191e-11
4.09133e-08
-2.75559e-11
4.09188e-08
-2.39247e-11
4.09237e-08
-2.06391e-11
4.0928e-08
-1.77021e-11
4.09316e-08
-1.51072e-11
4.09347e-08
-1.28397e-11
4.09373e-08
-1.08786e-11
4.09395e-08
-9.19806e-12
4.09413e-08
-7.76952e-12
4.09428e-08
-6.56317e-12
4.0944e-08
-5.54955e-12
4.0945e-08
-4.70073e-12
4.09458e-08
-3.99123e-12
4.09465e-08
-3.39847e-12
4.0947e-08
-2.90195e-12
4.09475e-08
-2.47691e-12
-2.05536e-12
4.38353e-08
2.29895e-09
-4.37304e-08
4.3973e-08
2.53658e-09
4.41269e-08
2.72442e-09
4.42855e-08
2.86053e-09
4.44421e-08
2.94994e-09
4.45915e-08
2.99772e-09
4.47295e-08
3.00825e-09
4.4853e-08
2.98661e-09
4.49601e-08
2.93874e-09
4.505e-08
2.87083e-09
4.51229e-08
2.78881e-09
4.51796e-08
2.69807e-09
4.52216e-08
2.60323e-09
4.52506e-08
2.50799e-09
4.52684e-08
2.41509e-09
4.52769e-08
2.32636e-09
4.52777e-08
2.24281e-09
4.52721e-08
2.16488e-09
4.52613e-08
2.09249e-09
4.52462e-08
2.0253e-09
4.52274e-08
1.96277e-09
4.52055e-08
1.90428e-09
4.51808e-08
1.84921e-09
4.51536e-08
1.79694e-09
4.51242e-08
1.74691e-09
4.50926e-08
1.69861e-09
4.5059e-08
1.65159e-09
4.50236e-08
1.60545e-09
4.49864e-08
1.55983e-09
4.49476e-08
1.51441e-09
4.49072e-08
1.46889e-09
4.48655e-08
1.42298e-09
4.48225e-08
1.37644e-09
4.47785e-08
1.329e-09
4.47334e-08
1.28044e-09
4.46877e-08
1.2305e-09
4.46413e-08
1.17897e-09
4.45946e-08
1.12561e-09
4.45476e-08
1.07021e-09
4.45007e-08
1.01254e-09
4.44538e-08
9.52429e-10
4.44073e-08
8.89713e-10
4.43611e-08
8.24322e-10
4.43153e-08
7.56305e-10
4.427e-08
6.85905e-10
4.42249e-08
6.13632e-10
4.41802e-08
5.40324e-10
4.41357e-08
4.67168e-10
4.40917e-08
3.95626e-10
4.40484e-08
3.27266e-10
4.40061e-08
2.63508e-10
4.39655e-08
2.05429e-10
4.39267e-08
1.53671e-10
4.38902e-08
1.08442e-10
4.38559e-08
6.95617e-11
4.38236e-08
3.65503e-11
4.37934e-08
8.71972e-12
4.37657e-08
-1.44349e-11
4.37407e-08
-3.33329e-11
4.37183e-08
-4.85624e-11
4.36986e-08
-6.06855e-11
4.36814e-08
-7.0195e-11
4.36667e-08
-7.75113e-11
4.36543e-08
-8.29835e-11
4.36441e-08
-8.68954e-11
4.3636e-08
-8.94744e-11
4.36298e-08
-9.09012e-11
4.36254e-08
-9.13199e-11
4.36227e-08
-9.08471e-11
4.36215e-08
-8.95794e-11
4.36216e-08
-8.76007e-11
4.36229e-08
-8.49873e-11
4.36252e-08
-8.18121e-11
4.36283e-08
-7.81478e-11
4.36322e-08
-7.40687e-11
4.36366e-08
-6.96519e-11
4.36414e-08
-6.49772e-11
4.36464e-08
-6.01266e-11
4.36516e-08
-5.51824e-11
4.36567e-08
-5.02258e-11
4.36617e-08
-4.53345e-11
4.36665e-08
-4.05801e-11
4.3671e-08
-3.60263e-11
4.36752e-08
-3.17268e-11
4.3679e-08
-2.77239e-11
4.36824e-08
-2.40479e-11
4.36854e-08
-2.07166e-11
4.3688e-08
-1.77362e-11
4.36903e-08
-1.51023e-11
4.36922e-08
-1.28014e-11
4.36938e-08
-1.08129e-11
4.36952e-08
-9.11072e-12
4.36963e-08
-7.66594e-12
4.36972e-08
-6.4481e-12
4.36979e-08
-5.42707e-12
4.36985e-08
-4.57417e-12
4.36989e-08
-3.86279e-12
4.36993e-08
-3.26731e-12
4.36996e-08
-2.75588e-12
-2.25424e-12
4.55535e-08
2.20587e-09
-4.54604e-08
4.56752e-08
2.41483e-09
4.58135e-08
2.58613e-09
4.59585e-08
2.71557e-09
4.61035e-08
2.80495e-09
4.62436e-08
2.85758e-09
4.63749e-08
2.87694e-09
4.64944e-08
2.86713e-09
4.66001e-08
2.83299e-09
4.66913e-08
2.7797e-09
4.67677e-08
2.71236e-09
4.68301e-08
2.63565e-09
4.68797e-08
2.55371e-09
4.69178e-08
2.46991e-09
4.6946e-08
2.38684e-09
4.6966e-08
2.30635e-09
4.69792e-08
2.22958e-09
4.6987e-08
2.15712e-09
4.69904e-08
2.08912e-09
4.69902e-08
2.02544e-09
4.69873e-08
1.96574e-09
4.6982e-08
1.90957e-09
4.69748e-08
1.85642e-09
4.69659e-08
1.80579e-09
4.69556e-08
1.75719e-09
4.6944e-08
1.71019e-09
4.69313e-08
1.66437e-09
4.69174e-08
1.61934e-09
4.69024e-08
1.57477e-09
4.68865e-08
1.53035e-09
4.68696e-08
1.48579e-09
4.68518e-08
1.4408e-09
4.68331e-08
1.39514e-09
4.68135e-08
1.34855e-09
4.67932e-08
1.30079e-09
4.67721e-08
1.25163e-09
4.67502e-08
1.20083e-09
4.67276e-08
1.14819e-09
4.67043e-08
1.09348e-09
4.66804e-08
1.03651e-09
4.66557e-08
9.77106e-10
4.66303e-08
9.1516e-10
4.6604e-08
8.5063e-10
4.65767e-08
7.83605e-10
4.65482e-08
7.14356e-10
4.65184e-08
6.43397e-10
4.64872e-08
5.71527e-10
4.64546e-08
4.99833e-10
4.64206e-08
4.29629e-10
4.63855e-08
3.62305e-10
4.63499e-08
2.9914e-10
4.63142e-08
2.4113e-10
4.6279e-08
1.88907e-10
4.62447e-08
1.42737e-10
4.62117e-08
1.02556e-10
4.61802e-08
6.80473e-11
4.61502e-08
3.87138e-11
4.61218e-08
1.39497e-11
4.60952e-08
-6.79047e-12
4.60707e-08
-2.39688e-11
4.6048e-08
-3.80686e-11
4.60274e-08
-4.95472e-11
4.60087e-08
-5.87981e-11
4.59918e-08
-6.61521e-11
4.59768e-08
-7.18808e-11
4.59636e-08
-7.62033e-11
4.5952e-08
-7.92946e-11
4.59419e-08
-8.12943e-11
4.59334e-08
-8.23148e-11
4.59263e-08
-8.24486e-11
4.59204e-08
-8.17754e-11
4.59158e-08
-8.0367e-11
4.59123e-08
-7.82924e-11
4.59098e-08
-7.56206e-11
4.59081e-08
-7.24229e-11
4.59073e-08
-6.8775e-11
4.5907e-08
-6.47564e-11
4.59074e-08
-6.04507e-11
4.59081e-08
-5.59437e-11
4.59092e-08
-5.13221e-11
4.59105e-08
-4.66707e-11
4.5912e-08
-4.20702e-11
4.59136e-08
-3.75945e-11
4.59152e-08
-3.33085e-11
4.59167e-08
-2.92661e-11
4.59182e-08
-2.55094e-11
4.59195e-08
-2.20674e-11
4.59208e-08
-1.89567e-11
4.59218e-08
-1.61821e-11
4.59228e-08
-1.37378e-11
4.59236e-08
-1.16093e-11
4.59242e-08
-9.77547e-12
4.59248e-08
-8.21041e-12
4.59252e-08
-6.88555e-12
4.59256e-08
-5.77144e-12
4.59258e-08
-4.8391e-12
4.5926e-08
-4.06078e-12
4.59262e-08
-3.40903e-12
4.59263e-08
-2.85083e-12
-2.32446e-12
4.733e-08
2.12208e-09
-4.72462e-08
4.74385e-08
2.30633e-09
4.75629e-08
2.46171e-09
4.76951e-08
2.5834e-09
4.78289e-08
2.67117e-09
4.79596e-08
2.72685e-09
4.80835e-08
2.75303e-09
4.81977e-08
2.75293e-09
4.83002e-08
2.73044e-09
4.83901e-08
2.68983e-09
4.84671e-08
2.63542e-09
4.85314e-08
2.57126e-09
4.85842e-08
2.50099e-09
4.86264e-08
2.42766e-09
4.86595e-08
2.35371e-09
4.8685e-08
2.28093e-09
4.8704e-08
2.21054e-09
4.87179e-08
2.14324e-09
4.87276e-08
2.07938e-09
4.87341e-08
2.01896e-09
4.8738e-08
1.96182e-09
4.87399e-08
1.90765e-09
4.87403e-08
1.85609e-09
4.87393e-08
1.80674e-09
4.87373e-08
1.75919e-09
4.87344e-08
1.71305e-09
4.87308e-08
1.66797e-09
4.87266e-08
1.62361e-09
4.87217e-08
1.57965e-09
4.87163e-08
1.53579e-09
4.87103e-08
1.49177e-09
4.87038e-08
1.44731e-09
4.86967e-08
1.40218e-09
4.86891e-08
1.35614e-09
4.8681e-08
1.30895e-09
4.86722e-08
1.26039e-09
4.86628e-08
1.21025e-09
4.86527e-08
1.15832e-09
4.86417e-08
1.1044e-09
4.86299e-08
1.04832e-09
4.86171e-08
9.89952e-10
4.8603e-08
9.29198e-10
4.85876e-08
8.66057e-10
4.85706e-08
8.00648e-10
4.85517e-08
7.33255e-10
4.85307e-08
6.64376e-10
4.85075e-08
5.9475e-10
4.84819e-08
5.25353e-10
4.84542e-08
4.57342e-10
4.84246e-08
3.91935e-10
4.83935e-08
3.30262e-10
4.83614e-08
2.73226e-10
4.83289e-08
2.21429e-10
4.82964e-08
1.75162e-10
4.82646e-08
1.34427e-10
4.82336e-08
9.9004e-11
4.82038e-08
6.85095e-11
4.81753e-08
4.24663e-11
4.81481e-08
2.03579e-11
4.81225e-08
1.68475e-12
4.80984e-08
-1.39933e-11
4.80759e-08
-2.70743e-11
4.80551e-08
-3.79238e-11
4.80358e-08
-4.68536e-11
4.8018e-08
-5.41223e-11
4.80017e-08
-5.99404e-11
4.79869e-08
-6.44772e-11
4.79735e-08
-6.78681e-11
4.79614e-08
-7.02221e-11
4.79506e-08
-7.16291e-11
4.7941e-08
-7.21657e-11
4.79325e-08
-7.19009e-11
4.79251e-08
-7.09005e-11
4.79187e-08
-6.92307e-11
4.79133e-08
-6.69604e-11
4.79087e-08
-6.41627e-11
4.79048e-08
-6.09159e-11
4.79017e-08
-5.73026e-11
4.78991e-08
-5.34089e-11
4.78971e-08
-4.93228e-11
4.78956e-08
-4.51313e-11
4.78944e-08
-4.09187e-11
4.78936e-08
-3.67634e-11
4.7893e-08
-3.27356e-11
4.78927e-08
-2.88955e-11
4.78925e-08
-2.52917e-11
4.78923e-08
-2.19602e-11
4.78923e-08
-1.89247e-11
4.78923e-08
-1.61966e-11
4.78924e-08
-1.37765e-11
4.78924e-08
-1.16555e-11
4.78925e-08
-9.8175e-12
4.78925e-08
-8.2407e-12
4.78925e-08
-6.89987e-12
4.78925e-08
-5.76804e-12
4.78925e-08
-4.81799e-12
4.78924e-08
-4.02302e-12
4.78924e-08
-3.35658e-12
4.78923e-08
-2.7888e-12
-2.27871e-12
4.91672e-08
2.04583e-09
-4.9091e-08
4.92647e-08
2.2089e-09
4.93769e-08
2.3495e-09
4.94973e-08
2.46298e-09
4.96205e-08
2.548e-09
4.9742e-08
2.60529e-09
4.98585e-08
2.6366e-09
4.9967e-08
2.64439e-09
5.00657e-08
2.63173e-09
5.01534e-08
2.60212e-09
5.02297e-08
2.55913e-09
5.02947e-08
2.50625e-09
5.03491e-08
2.44664e-09
5.03937e-08
2.38303e-09
5.04298e-08
2.31767e-09
5.04584e-08
2.25228e-09
5.04809e-08
2.18808e-09
5.04982e-08
2.12589e-09
5.05115e-08
2.06614e-09
5.05214e-08
2.00901e-09
5.05288e-08
1.95446e-09
5.05341e-08
1.90232e-09
5.05378e-08
1.85234e-09
5.05404e-08
1.80421e-09
5.05419e-08
1.75763e-09
5.05427e-08
1.71226e-09
5.05429e-08
1.66779e-09
5.05426e-08
1.62393e-09
5.05418e-08
1.5804e-09
5.05407e-08
1.53692e-09
5.05392e-08
1.49325e-09
5.05374e-08
1.44914e-09
5.05352e-08
1.40437e-09
5.05327e-08
1.3587e-09
5.05297e-08
1.31193e-09
5.05262e-08
1.26386e-09
5.05222e-08
1.21428e-09
5.05175e-08
1.163e-09
5.0512e-08
1.10987e-09
5.05056e-08
1.05472e-09
5.04981e-08
9.97465e-10
5.04893e-08
9.38036e-10
5.04789e-08
8.76462e-10
5.04666e-08
8.12882e-10
5.04523e-08
7.47585e-10
5.04356e-08
6.81042e-10
5.04165e-08
6.13927e-10
5.03947e-08
5.47107e-10
5.03705e-08
4.81592e-10
5.0344e-08
4.18441e-10
5.03156e-08
3.58641e-10
5.02858e-08
3.03001e-10
5.02552e-08
2.52082e-10
5.02241e-08
2.06181e-10
5.01932e-08
1.65349e-10
5.01628e-08
1.29435e-10
5.01332e-08
9.81373e-11
5.01046e-08
7.10647e-11
5.00771e-08
4.77812e-11
5.0051e-08
2.78461e-11
5.00261e-08
1.08359e-11
5.00027e-08
-3.63094e-12
4.99807e-08
-1.58851e-11
4.996e-08
-2.62145e-11
4.99408e-08
-3.48636e-11
4.99229e-08
-4.20332e-11
4.99063e-08
-4.7886e-11
4.98909e-08
-5.25532e-11
4.98769e-08
-5.61407e-11
4.9864e-08
-5.87356e-11
4.98522e-08
-6.04127e-11
4.98416e-08
-6.1239e-11
4.98319e-08
-6.12785e-11
4.98233e-08
-6.05955e-11
4.98156e-08
-5.9257e-11
4.98088e-08
-5.73346e-11
4.98028e-08
-5.49049e-11
4.97975e-08
-5.20494e-11
4.9793e-08
-4.88532e-11
4.9789e-08
-4.54037e-11
4.97857e-08
-4.1788e-11
4.97829e-08
-3.8091e-11
4.97805e-08
-3.43924e-11
4.97785e-08
-3.07643e-11
4.97769e-08
-2.72697e-11
4.97756e-08
-2.39604e-11
4.97745e-08
-2.08765e-11
4.97736e-08
-1.80458e-11
4.97729e-08
-1.54846e-11
4.97723e-08
-1.31983e-11
4.97718e-08
-1.11829e-11
4.97714e-08
-9.42676e-12
4.97711e-08
-7.91255e-12
4.97708e-08
-6.6189e-12
4.97706e-08
-5.52224e-12
4.97704e-08
-4.59821e-12
4.97702e-08
-3.82256e-12
4.977e-08
-3.17129e-12
4.97698e-08
-2.61969e-12
-2.14565e-12
5.10678e-08
1.97589e-09
-5.09979e-08
5.11559e-08
2.12082e-09
5.12574e-08
2.248e-09
5.13671e-08
2.35326e-09
5.14804e-08
2.43477e-09
5.15931e-08
2.49251e-09
5.17022e-08
2.52753e-09
5.1805e-08
2.54163e-09
5.18995e-08
2.53721e-09
5.19846e-08
2.51704e-09
5.20596e-08
2.4841e-09
5.21245e-08
2.44131e-09
5.21798e-08
2.39141e-09
5.2226e-08
2.33681e-09
5.22641e-08
2.27955e-09
5.22952e-08
2.22124e-09
5.23201e-08
2.16311e-09
5.234e-08
2.10599e-09
5.23557e-08
2.05042e-09
5.23681e-08
1.99668e-09
5.23777e-08
1.94485e-09
5.23851e-08
1.89487e-09
5.23909e-08
1.84659e-09
5.23953e-08
1.7998e-09
5.23987e-08
1.75427e-09
5.24012e-08
1.70972e-09
5.24031e-08
1.6659e-09
5.24045e-08
1.62256e-09
5.24054e-08
1.57946e-09
5.2406e-08
1.53634e-09
5.24062e-08
1.49299e-09
5.24062e-08
1.44919e-09
5.24058e-08
1.40473e-09
5.24051e-08
1.3594e-09
5.2404e-08
1.31301e-09
5.24025e-08
1.26538e-09
5.24004e-08
1.21633e-09
5.23977e-08
1.1657e-09
5.23943e-08
1.11334e-09
5.23899e-08
1.05914e-09
5.23843e-08
1.00302e-09
5.23774e-08
9.44947e-10
5.23689e-08
8.84977e-10
5.23585e-08
8.23264e-10
5.2346e-08
7.60094e-10
5.23311e-08
6.95909e-10
5.23137e-08
6.31316e-10
5.22937e-08
5.67083e-10
5.22713e-08
5.04088e-10
5.22464e-08
4.43248e-10
5.22197e-08
3.85423e-10
5.21913e-08
3.3133e-10
5.21619e-08
2.81484e-10
5.21319e-08
2.36181e-10
5.21018e-08
1.95501e-10
5.20719e-08
1.5935e-10
5.20425e-08
1.27493e-10
5.2014e-08
9.96089e-11
5.19864e-08
7.53267e-11
5.196e-08
5.42624e-11
5.19348e-08
3.6042e-11
5.19108e-08
2.03165e-11
5.18882e-08
6.77393e-12
5.18668e-08
-4.85523e-12
5.18468e-08
-1.47979e-11
5.1828e-08
-2.32431e-11
5.18104e-08
-3.0346e-11
5.17941e-08
-3.62322e-11
5.1779e-08
-4.10039e-11
5.1765e-08
-4.47456e-11
5.17521e-08
-4.75299e-11
5.17403e-08
-4.94221e-11
5.17295e-08
-5.04846e-11
5.17197e-08
-5.07803e-11
5.17108e-08
-5.03751e-11
5.17028e-08
-4.9339e-11
5.16956e-08
-4.77474e-11
5.16893e-08
-4.56804e-11
5.16836e-08
-4.32218e-11
5.16787e-08
-4.04578e-11
5.16744e-08
-3.74747e-11
5.16706e-08
-3.43566e-11
5.16674e-08
-3.1183e-11
5.16647e-08
-2.80265e-11
5.16624e-08
-2.49509e-11
5.16604e-08
-2.20097e-11
5.16588e-08
-1.92454e-11
5.16574e-08
-1.66886e-11
5.16563e-08
-1.43592e-11
5.16554e-08
-1.22665e-11
5.16546e-08
-1.04107e-11
5.1654e-08
-8.78459e-12
5.16534e-08
-7.37494e-12
5.1653e-08
-6.16453e-12
5.16526e-08
-5.13354e-12
5.16523e-08
-4.26103e-12
5.1652e-08
-3.52587e-12
5.16517e-08
-2.90738e-12
5.16515e-08
-2.38619e-12
-1.95262e-12
5.30345e-08
1.9114e-09
-5.297e-08
5.31145e-08