/*--------------------------------*- C++ -*----------------------------------*\
| =========                 |                                                 |
| \\      /  F ield         | OpenFOAM: The Open Source CFD Toolbox           |
|  \\    /   O peration     | Version:  2.3.0                                 |
|   \\  /    A nd           | Web:      www.OpenFOAM.org                      |
|    \\/     M anipulation  |                                                 |
\*---------------------------------------------------------------------------*/
FoamFile
{
    version     2.0;
    format      ascii;
    class       surfaceScalarField;
    location    "0.2";
    object      phi_0;
}
// * * * * * * * * * * * * * * * * * * * * * * * * * * * * * * * * * * * * * //

dimensions      [0 3 -1 0 0 0 0];

internalField   nonuniform List<scalar> 
6598
(
2.81762e-08
2.89511e-09
-3.10713e-08
2.53017e-08
2.87449e-09
2.26056e-08
2.69609e-09
2.01217e-08
2.48389e-09
1.78664e-08
2.25529e-09
1.58505e-08
2.01593e-09
1.40763e-08
1.77416e-09
1.25384e-08
1.53791e-09
1.12245e-08
1.3139e-09
1.01169e-08
1.10758e-09
9.19397e-09
9.22958e-10
8.43163e-09
7.62338e-10
7.80533e-09
6.263e-10
7.29142e-09
5.13911e-10
6.86833e-09
4.23095e-10
6.51727e-09
3.51063e-10
6.22254e-09
2.94727e-10
5.9715e-09
2.51044e-10
5.75425e-09
2.17244e-10
5.56329e-09
1.90963e-10
5.39301e-09
1.7028e-10
5.23931e-09
1.53701e-10
5.0992e-09
1.40105e-10
4.97053e-09
1.28676e-10
4.85169e-09
1.18833e-10
4.74152e-09
1.10175e-10
4.6391e-09
1.02422e-10
4.54371e-09
9.53844e-11
4.45478e-09
8.89283e-11
4.37182e-09
8.29585e-11
4.29442e-09
7.7404e-11
4.22221e-09
7.22093e-11
4.15488e-09
6.73284e-11
4.09216e-09
6.27226e-11
4.0338e-09
5.83579e-11
3.9796e-09
5.42045e-11
3.92936e-09
5.02366e-11
3.88293e-09
4.64311e-11
3.84016e-09
4.27667e-11
3.80094e-09
3.92214e-11
3.76517e-09
3.57675e-11
3.73281e-09
3.23657e-11
3.70385e-09
2.89573e-11
3.67839e-09
2.54567e-11
3.65664e-09
2.17495e-11
3.63895e-09
1.76932e-11
3.62586e-09
1.30913e-11
3.61813e-09
7.73396e-12
3.61629e-09
1.83381e-12
3.61926e-09
-2.9625e-12
3.62575e-09
-6.49495e-12
3.6349e-09
-9.14715e-12
3.64593e-09
-1.10286e-11
3.65812e-09
-1.21928e-11
3.67085e-09
-1.27313e-11
3.68362e-09
-1.27655e-11
3.69604e-09
-1.2424e-11
3.70787e-09
-1.18271e-11
3.71894e-09
-1.10744e-11
3.72918e-09
-1.0243e-11
3.73857e-09
-9.38864e-12
3.74712e-09
-8.54895e-12
3.75487e-09
-7.74703e-12
3.76186e-09
-6.99559e-12
3.76816e-09
-6.30015e-12
3.77383e-09
-5.66163e-12
3.7789e-09
-5.07822e-12
3.78345e-09
-4.5467e-12
3.78751e-09
-4.06325e-12
3.79114e-09
-3.62398e-12
3.79436e-09
-3.22519e-12
3.79723e-09
-2.8635e-12
3.79976e-09
-2.53588e-12
3.802e-09
-2.23963e-12
3.80397e-09
-1.97236e-12
3.80571e-09
-1.73189e-12
3.80722e-09
-1.51624e-12
3.80855e-09
-1.3236e-12
3.8097e-09
-1.15222e-12
3.8107e-09
-1.00046e-12
3.81157e-09
-8.66723e-13
3.81232e-09
-7.49456e-13
3.81296e-09
-6.47139e-13
3.81352e-09
-5.58292e-13
3.814e-09
-4.81488e-13
3.81442e-09
-4.15343e-13
3.81478e-09
-3.58553e-13
3.81509e-09
-3.0989e-13
3.81535e-09
-2.68221e-13
3.81559e-09
-2.32525e-13
3.81579e-09
-2.01883e-13
3.81596e-09
-1.75505e-13
3.81612e-09
-1.52717e-13
3.81625e-09
-1.32972e-13
3.81637e-09
-1.15872e-13
3.81647e-09
-1.01223e-13
3.81656e-09
-8.93051e-14
3.81664e-09
-8.20732e-14
3.81673e-09
-8.9044e-14
-1.73443e-13
3.38503e-08
3.17709e-09
-3.41323e-08
3.32522e-08
3.47253e-09
3.24198e-08
3.52848e-09
3.14301e-08
3.47363e-09
3.0339e-08
3.34643e-09
2.91925e-08
3.16241e-09
2.8028e-08
2.93863e-09
2.68742e-08
2.69168e-09
2.57524e-08
2.43574e-09
2.46774e-08
2.18256e-09
2.3659e-08
1.94137e-09
2.27026e-08
1.71879e-09
2.18101e-08
1.51873e-09
2.09813e-08
1.34271e-09
2.0214e-08
1.19038e-09
1.95051e-08
1.06004e-09
1.88505e-08
9.49257e-10
1.82463e-08
8.55265e-10
1.76882e-08
7.75342e-10
1.71722e-08
7.06993e-10
1.66944e-08
6.4806e-10
1.62514e-08
5.96749e-10
1.58399e-08
5.51611e-10
1.5457e-08
5.11496e-10
1.51004e-08
4.75507e-10
1.47676e-08
4.42941e-10
1.44568e-08
4.13248e-10
1.41662e-08
3.8599e-10
1.38943e-08
3.60817e-10
1.36398e-08
3.37439e-10
1.34016e-08
3.15615e-10
1.31787e-08
2.95138e-10
1.29702e-08
2.75827e-10
1.27753e-08
2.57526e-10
1.25936e-08
2.40093e-10
1.24244e-08
2.23405e-10
1.22673e-08
2.0735e-10
1.21219e-08
1.91825e-10
1.19879e-08
1.76732e-10
1.18652e-08
1.6197e-10
1.17535e-08
1.47428e-10
1.16529e-08
1.32969e-10
1.15635e-08
1.18426e-10
1.14853e-08
1.03591e-10
1.14188e-08
8.82298e-11
1.13644e-08
7.21125e-11
1.13224e-08
5.50683e-11
1.12932e-08
3.70201e-11
1.12772e-08
1.77893e-11
1.12748e-08
-5.07512e-13
1.12831e-08
-1.48618e-11
1.1299e-08
-2.50069e-11
1.132e-08
-3.20887e-11
1.13445e-08
-3.66465e-11
1.13709e-08
-3.91028e-11
1.1398e-08
-3.9881e-11
1.14249e-08
-3.93897e-11
1.14511e-08
-3.80004e-11
1.14761e-08
-3.60236e-11
1.14995e-08
-3.37044e-11
1.15214e-08
-3.1225e-11
1.15415e-08
-2.87135e-11
1.156e-08
-2.62541e-11
1.15769e-08
-2.38984e-11
1.15923e-08
-2.1675e-11
1.16062e-08
-1.95968e-11
1.16188e-08
-1.76671e-11
1.16302e-08
-1.58834e-11
1.16404e-08
-1.42402e-11
1.16495e-08
-1.27305e-11
1.16576e-08
-1.1347e-11
1.16648e-08
-1.00828e-11
1.16712e-08
-8.93106e-12
1.16768e-08
-7.88527e-12
1.16818e-08
-6.93936e-12
1.16862e-08
-6.08741e-12
1.169e-08
-5.32361e-12
1.16933e-08
-4.64224e-12
1.16962e-08
-4.0375e-12
1.16987e-08
-3.50363e-12
1.17008e-08
-3.03481e-12
1.17027e-08
-2.62525e-12
1.17043e-08
-2.26924e-12
1.17057e-08
-1.96115e-12
1.1707e-08
-1.69556e-12
1.1708e-08
-1.4673e-12
1.17089e-08
-1.27152e-12
1.17097e-08
-1.10373e-12
1.17104e-08
-9.59847e-13
1.1711e-08
-8.36229e-13
1.17115e-08
-7.29674e-13
1.1712e-08
-6.3744e-13
1.17124e-08
-5.57217e-13
1.17128e-08
-4.8714e-13
1.17131e-08
-4.25824e-13
1.17133e-08
-3.72521e-13
1.17136e-08
-3.2781e-13
1.17138e-08
-2.96307e-13
1.1714e-08
-2.98138e-13
-4.04656e-13
3.59334e-08
3.02505e-09
-3.57814e-08
3.59975e-08
3.4085e-09
3.59348e-08
3.59116e-09
3.57501e-08
3.65833e-09
3.54534e-08
3.64311e-09
3.50587e-08
3.55711e-09
3.45833e-08
3.41402e-09
3.40452e-08
3.22985e-09
3.34611e-08
3.01979e-09
3.28464e-08
2.7973e-09
3.2214e-08
2.57374e-09
3.15748e-08
2.35802e-09
3.09372e-08
2.15634e-09
3.03076e-08
1.97231e-09
2.96906e-08
1.80738e-09
2.90893e-08
1.6613e-09
2.85058e-08
1.53277e-09
2.79412e-08
1.41987e-09
2.73961e-08
1.32045e-09
2.68706e-08
1.23243e-09
2.63648e-08
1.15389e-09
2.58784e-08
1.08321e-09
2.54109e-08
1.01901e-09
2.49622e-08
9.6021e-10
2.45318e-08
9.05923e-10
2.41193e-08
8.5545e-10
2.37243e-08
8.08236e-10
2.33465e-08
7.63829e-10
2.29854e-08
7.21859e-10
2.26409e-08
6.82014e-10
2.23125e-08
6.44024e-10
2.19999e-08
6.07654e-10
2.17031e-08
5.7269e-10
2.14217e-08
5.38937e-10
2.11555e-08
5.06219e-10
2.09046e-08
4.74368e-10
2.06687e-08
4.43228e-10
2.04479e-08
4.12647e-10
2.02421e-08
3.82472e-10
2.00516e-08
3.52541e-10
1.98763e-08
3.22673e-10
1.97166e-08
2.92659e-10
1.95728e-08
2.62263e-10
1.94452e-08
2.31231e-10
1.93341e-08
1.99328e-10
1.92398e-08
1.66416e-10
1.91622e-08
1.32588e-10
1.91009e-08
9.83943e-11
1.90538e-08
6.48687e-11
1.90208e-08
3.24871e-11
1.90039e-08
2.06619e-12
1.90018e-08
-2.29238e-11
1.90107e-08
-4.101e-11
1.90277e-08
-5.36553e-11
1.90505e-08
-6.18525e-11
1.9077e-08
-6.64656e-11
1.91059e-08
-6.82817e-11
1.91359e-08
-6.8005e-11
1.91661e-08
-6.62321e-11
1.91959e-08
-6.3448e-11
1.92247e-08
-6.00299e-11
1.92522e-08
-5.62582e-11
1.92783e-08
-5.23332e-11
1.93028e-08
-4.8392e-11
1.93257e-08
-4.45247e-11
1.93469e-08
-4.07878e-11
1.93664e-08
-3.72149e-11
1.93843e-08
-3.38248e-11
1.94007e-08
-3.06268e-11
1.94156e-08
-2.76246e-11
1.94291e-08
-2.48189e-11
1.94412e-08
-2.22084e-11
1.94521e-08
-1.97908e-11
1.94618e-08
-1.7563e-11
1.94703e-08
-1.5521e-11
1.94779e-08
-1.366e-11
1.94846e-08
-1.19742e-11
1.94904e-08
-1.0457e-11
1.94954e-08
-9.10039e-12
1.94998e-08
-7.89552e-12
1.95036e-08
-6.83259e-12
1.95069e-08
-5.90101e-12
1.95097e-08
-5.08967e-12
1.95122e-08
-4.3871e-12
1.95142e-08
-3.78184e-12
1.9516e-08
-3.26258e-12
1.95176e-08
-2.81849e-12
1.95189e-08
-2.43937e-12
1.95201e-08
-2.11579e-12
1.95211e-08
-1.83928e-12
1.95219e-08
-1.60232e-12
1.95227e-08
-1.3984e-12
1.95234e-08
-1.22202e-12
1.9524e-08
-1.06867e-12
1.95245e-08
-9.34864e-13
1.95249e-08
-8.18328e-13
1.95253e-08
-7.18888e-13
1.95256e-08
-6.41563e-13
1.9526e-08
-6.07709e-13
-6.74937e-13
3.74916e-08
2.83291e-09
-3.72995e-08
3.76897e-08
3.21048e-09
3.78478e-08
3.43301e-09
3.79529e-08
3.55327e-09
3.79976e-08
3.59841e-09
3.79774e-08
3.57731e-09
3.78923e-08
3.49912e-09
3.7746e-08
3.3761e-09
3.75447e-08
3.2211e-09
3.72958e-08
3.04616e-09
3.70075e-08
2.86205e-09
3.66878e-08
2.67771e-09
3.63442e-08
2.49995e-09
3.59832e-08
2.33331e-09
3.56103e-08
2.18028e-09
3.52299e-08
2.04171e-09
3.48455e-08
1.91724e-09
3.44596e-08
1.80577e-09
3.40742e-08
1.7058e-09
3.36909e-08
1.61571e-09
3.33109e-08
1.53395e-09
3.2935e-08
1.45911e-09
3.2564e-08
1.39001e-09
3.21985e-08
1.32565e-09
3.18393e-08
1.26521e-09
3.14867e-08
1.20804e-09
3.11413e-08
1.15362e-09
3.08036e-08
1.10152e-09
3.04741e-08
1.05139e-09
3.01532e-08
1.00292e-09
2.98413e-08
9.55855e-10
2.9539e-08
9.09966e-10
2.92467e-08
8.6504e-10
2.89647e-08
8.20883e-10
2.86936e-08
7.77308e-10
2.84339e-08
7.34142e-10
2.81859e-08
6.9121e-10
2.79502e-08
6.48342e-10
2.77273e-08
6.05358e-10
2.75178e-08
5.62066e-10
2.73222e-08
5.18255e-10
2.71412e-08
4.73693e-10
2.69753e-08
4.28142e-10
2.68251e-08
3.81385e-10
2.66912e-08
3.33299e-10
2.65736e-08
2.83953e-10
2.64724e-08
2.33773e-10
2.63871e-08
1.83699e-10
2.63168e-08
1.35225e-10
2.62592e-08
9.00652e-11
2.62123e-08
4.89103e-11
2.61781e-08
1.13326e-11
2.61578e-08
-2.0679e-11
2.61492e-08
-4.50982e-11
2.61502e-08
-6.28702e-11
2.61589e-08
-7.5114e-11
2.61734e-08
-8.28498e-11
2.61924e-08
-8.70152e-11
2.62147e-08
-8.84375e-11
2.6239e-08
-8.78177e-11
2.62647e-08
-8.57263e-11
2.62911e-08
-8.26112e-11
2.63175e-08
-7.88132e-11
2.63437e-08
-7.4585e-11
2.63693e-08
-7.01098e-11
2.63941e-08
-6.55185e-11
2.64177e-08
-6.09038e-11
2.64403e-08
-5.63318e-11
2.64615e-08
-5.185e-11
2.64813e-08
-4.74939e-11
2.64998e-08
-4.32909e-11
2.65169e-08
-3.92631e-11
2.65325e-08
-3.54286e-11
2.65468e-08
-3.18029e-11
2.65596e-08
-2.83985e-11
2.65712e-08
-2.52251e-11
2.65815e-08
-2.22895e-11
2.65906e-08
-1.95954e-11
2.65987e-08
-1.71431e-11
2.66057e-08
-1.49294e-11
2.66118e-08
-1.29479e-11
2.66171e-08
-1.11891e-11
2.66217e-08
-9.64073e-12
2.66256e-08
-8.28833e-12
2.66289e-08
-7.11573e-12
2.66318e-08
-6.10575e-12
2.66342e-08
-5.24072e-12
2.66362e-08
-4.50313e-12
2.6638e-08
-3.87609e-12
2.66395e-08
-3.34377e-12
2.66408e-08
-2.89168e-12
2.66419e-08
-2.50691e-12
2.66429e-08
-2.17824e-12
2.66437e-08
-1.89618e-12
2.66444e-08
-1.65303e-12
2.6645e-08
-1.44307e-12
2.66456e-08
-1.26331e-12
2.66461e-08
-1.11583e-12
2.66465e-08
-1.015e-12
-9.92947e-13
3.90095e-08
2.66505e-09
-3.88417e-08
3.921e-08
3.01002e-09
3.9406e-08
3.23695e-09
3.95842e-08
3.37512e-09
3.97364e-08
3.44616e-09
3.98552e-08
3.45859e-09
3.99349e-08
3.41937e-09
3.99731e-08
3.33788e-09
3.99697e-08
3.2245e-09
3.99266e-08
3.08933e-09
3.9847e-08
2.94162e-09
3.97353e-08
2.7894e-09
3.95962e-08
2.63905e-09
3.94343e-08
2.49519e-09
3.92539e-08
2.36069e-09
3.90587e-08
2.23694e-09
3.88517e-08
2.1242e-09
3.86355e-08
2.02197e-09
3.8412e-08
1.92926e-09
3.81829e-08
1.84486e-09
3.79493e-08
1.76755e-09
3.77123e-08
1.69614e-09
3.74727e-08
1.6296e-09
3.72313e-08
1.56703e-09
3.69888e-08
1.50769e-09
3.67459e-08
1.45097e-09
3.65031e-08
1.39635e-09
3.62612e-08
1.34343e-09
3.60208e-08
1.29184e-09
3.57824e-08
1.24129e-09
3.55468e-08
1.19151e-09
3.53145e-08
1.14228e-09
3.50861e-08
1.09336e-09
3.48625e-08
1.04456e-09
3.46441e-08
9.95684e-10
3.44317e-08
9.46537e-10
3.4226e-08
8.96934e-10
3.40276e-08
8.46684e-10
3.38374e-08
7.95589e-10
3.3656e-08
7.4344e-10
3.34842e-08
6.90017e-10
3.33228e-08
6.35095e-10
3.31725e-08
5.78473e-10
3.30339e-08
5.20016e-10
3.29074e-08
4.59743e-10
3.27935e-08
3.97941e-10
3.26919e-08
3.35299e-10
3.26026e-08
2.73021e-10
3.2525e-08
2.12783e-10
3.24587e-08
1.56444e-10
3.24021e-08
1.05446e-10
3.23531e-08
6.03944e-11
3.23118e-08
2.06283e-11
3.22801e-08
-1.34507e-11
3.22578e-08
-4.05494e-11
3.22438e-08
-6.10727e-11
3.2237e-08
-7.60563e-11
3.22364e-08
-8.64456e-11
3.22411e-08
-9.3112e-11
3.22501e-08
-9.68289e-11
3.22626e-08
-9.82544e-11
3.22779e-08
-9.79282e-11
3.22954e-08
-9.62805e-11
3.23144e-08
-9.36469e-11
3.23346e-08
-9.02848e-11
3.23555e-08
-8.63904e-11
3.23767e-08
-8.21129e-11
3.23979e-08
-7.75669e-11
3.24189e-08
-7.28425e-11
3.24395e-08
-6.80128e-11
3.24593e-08
-6.3139e-11
3.24783e-08
-5.82746e-11
3.24964e-08
-5.34677e-11
3.25133e-08
-4.8762e-11
3.25291e-08
-4.41978e-11
3.25437e-08
-3.98115e-11
3.2557e-08
-3.56357e-11
3.25691e-08
-3.16981e-11
3.258e-08
-2.80214e-11
3.25897e-08
-2.46221e-11
3.25983e-08
-2.15108e-11
3.26058e-08
-1.86918e-11
3.26123e-08
-1.61632e-11
3.26179e-08
-1.39174e-11
3.26228e-08
-1.19416e-11
3.26269e-08
-1.02192e-11
3.26304e-08
-8.73014e-12
3.26333e-08
-7.45237e-12
3.26358e-08
-6.3628e-12
3.26379e-08
-5.43825e-12
3.26397e-08
-4.65628e-12
3.26411e-08
-3.99586e-12
3.26424e-08
-3.43789e-12
3.26435e-08
-2.9655e-12
3.26444e-08
-2.56433e-12
3.26452e-08
-2.22277e-12
3.26458e-08
-1.93238e-12
3.26464e-08
-1.68909e-12
3.26469e-08
-1.49492e-12
-1.3464e-12
4.05658e-08
2.52399e-09
-4.04248e-08
4.07449e-08
2.83099e-09
4.09327e-08
3.04912e-09
4.11163e-08
3.1915e-09
4.12888e-08
3.27366e-09
4.14438e-08
3.30364e-09
4.15757e-08
3.28743e-09
4.1681e-08
3.23256e-09
4.17579e-08
3.14764e-09
4.1806e-08
3.04119e-09
4.18265e-08
2.92114e-09
4.18214e-08
2.79448e-09
4.17935e-08
2.66697e-09
4.17458e-08
2.54294e-09
4.16812e-08
2.4253e-09
4.16024e-08
2.3157e-09
4.15118e-08
2.21477e-09
4.14114e-08
2.12238e-09
4.13028e-08
2.03793e-09
4.11871e-08
1.96056e-09
4.10653e-08
1.88928e-09
4.09383e-08
1.82313e-09
4.08067e-08
1.76119e-09
4.06711e-08
1.70268e-09
4.05319e-08
1.64689e-09
4.03896e-08
1.59325e-09
4.02447e-08
1.54126e-09
4.00976e-08
1.49049e-09
3.99489e-08
1.4406e-09
3.97989e-08
1.39126e-09
3.96482e-08
1.3422e-09
3.94973e-08
1.29316e-09
3.93468e-08
1.24392e-09
3.91971e-08
1.19424e-09
3.90489e-08
1.14391e-09
3.89027e-08
1.09272e-09
3.87591e-08
1.04047e-09
3.86189e-08
9.86949e-10
3.84825e-08
9.31935e-10
3.83508e-08
8.75214e-10
3.82242e-08
8.16567e-10
3.81035e-08
7.55793e-10
3.79893e-08
6.92739e-10
3.78819e-08
6.27359e-10
3.77819e-08
5.59798e-10
3.76893e-08
4.90501e-10
3.76043e-08
4.20322e-10
3.75267e-08
3.50581e-10
3.74565e-08
2.82989e-10
3.73936e-08
2.19377e-10
3.73377e-08
1.61283e-10
3.72884e-08
1.09684e-10
3.72442e-08
6.48667e-11
3.72045e-08
2.62188e-11
3.71707e-08
-6.66972e-12
3.71429e-08
-3.33581e-11
3.71211e-08
-5.4226e-11
3.71048e-08
-7.01203e-11
3.70935e-08
-8.18501e-11
3.70868e-08
-9.01516e-11
3.70843e-08
-9.56712e-11
3.70853e-08
-9.89554e-11
3.70895e-08
-1.00453e-10
3.70963e-08
-1.00525e-10
3.71055e-08
-9.94563e-11
3.71166e-08
-9.74703e-11
3.71292e-08
-9.47429e-11
3.71431e-08
-9.14137e-11
3.71578e-08
-8.75957e-11
3.71732e-08
-8.33838e-11
3.71889e-08
-7.88603e-11
3.72047e-08
-7.40997e-11
3.72204e-08
-6.91713e-11
3.72358e-08
-6.41416e-11
3.72507e-08
-5.90746e-11
3.72649e-08
-5.40323e-11
3.72784e-08
-4.90735e-11
3.72909e-08
-4.42536e-11
3.73025e-08
-3.96229e-11
3.73131e-08
-3.52254e-11
3.73227e-08
-3.1098e-11
3.73313e-08
-2.72689e-11
3.73389e-08
-2.37577e-11
3.73455e-08
-2.05749e-11
3.73513e-08
-1.77223e-11
3.73563e-08
-1.51936e-11
3.73605e-08
-1.29754e-11
3.73641e-08
-1.10487e-11
3.73672e-08
-9.39011e-12
3.73697e-08
-7.97355e-12
3.73718e-08
-6.77162e-12
3.73736e-08
-5.75687e-12
3.7375e-08
-4.90294e-12
3.73763e-08
-4.18535e-12
3.73773e-08
-3.58224e-12
3.73781e-08
-3.07475e-12
3.73788e-08
-2.64742e-12
3.73794e-08
-2.28807e-12
3.73799e-08
-1.9846e-12
-1.69623e-12
4.21736e-08
2.40364e-09
-4.20532e-08
4.23304e-08
2.67411e-09
4.25014e-08
2.87812e-09
4.2674e-08
3.01893e-09
4.28414e-08
3.10626e-09
4.29982e-08
3.14686e-09
4.31396e-08
3.14597e-09
4.32624e-08
3.1098e-09
4.33645e-08
3.0455e-09
4.34454e-08
2.96037e-09
4.35052e-08
2.86127e-09
4.35454e-08
2.75434e-09
4.35676e-08
2.64472e-09
4.35741e-08
2.53645e-09
4.35671e-08
2.43235e-09
4.35486e-08
2.3342e-09
4.35205e-08
2.24285e-09
4.34844e-08
2.15848e-09
4.34415e-08
2.08079e-09
4.33929e-08
2.00918e-09
4.33393e-08
1.9429e-09
4.32813e-08
1.88116e-09
4.32193e-08
1.8232e-09
4.31536e-08
1.7683e-09
4.30847e-08
1.71584e-09
4.30127e-08
1.66524e-09
4.29379e-08
1.61605e-09
4.28606e-08
1.56783e-09
4.27809e-08
1.52022e-09
4.26993e-08
1.4729e-09
4.26159e-08
1.42558e-09
4.25311e-08
1.37797e-09
4.24452e-08
1.32984e-09
4.23585e-08
1.28093e-09
4.22714e-08
1.23101e-09
4.21843e-08
1.17986e-09
4.20975e-08
1.12725e-09
4.20115e-08
1.07296e-09
4.19267e-08
1.01675e-09
4.18434e-08
9.58421e-10
4.17623e-08
8.97754e-10
4.16835e-08
8.34579e-10
4.16074e-08
7.68794e-10
4.15344e-08
7.00424e-10
4.14644e-08
6.29705e-10
4.13978e-08
5.57172e-10
4.13344e-08
4.83742e-10
4.12742e-08
4.1074e-10
4.12174e-08
3.39805e-10
4.11641e-08
2.7266e-10
4.11146e-08
2.10792e-10
4.1069e-08
1.55238e-10
4.10274e-08
1.06506e-10
4.0989e-08
6.45745e-11
4.09535e-08
2.88295e-11
4.09215e-08
-1.30271e-12
4.08933e-08
-2.60625e-11
4.08691e-08
-4.5858e-11
4.08486e-08
-6.14034e-11
4.08318e-08
-7.3371e-11
4.08185e-08
-8.23607e-11
4.08085e-08
-8.88897e-11
4.08014e-08
-9.33908e-11
4.07971e-08
-9.62172e-11
4.07953e-08
-9.76522e-11
4.07957e-08
-9.79209e-11
4.07982e-08
-9.72021e-11
4.08024e-08
-9.56386e-11
4.08082e-08
-9.33472e-11
4.08152e-08
-9.04266e-11
4.08233e-08
-8.69634e-11
4.08323e-08
-8.30372e-11
4.08418e-08
-7.87241e-11
4.08518e-08
-7.40993e-11
4.08619e-08
-6.92377e-11
4.08721e-08
-6.4215e-11
4.08821e-08
-5.91068e-11
4.08919e-08
-5.39876e-11
4.09012e-08
-4.89291e-11
4.091e-08
-4.39989e-11
4.09181e-08
-3.9258e-11
4.09256e-08
-3.47591e-11
4.09324e-08
-3.05458e-11
4.09385e-08
-2.66506e-11
4.09438e-08
-2.3095e-11
4.09485e-08
-1.98897e-11
4.09526e-08
-1.70347e-11
4.09561e-08
-1.4521e-11
4.0959e-08
-1.23315e-11
4.09615e-08
-1.04435e-11
4.09635e-08
-8.82978e-12
4.09652e-08
-7.46099e-12
4.09666e-08
-6.30695e-12
4.09678e-08
-5.33822e-12
4.09687e-08
-4.52719e-12
4.09695e-08
-3.84891e-12
4.09702e-08
-3.28143e-12
4.09707e-08
-2.80498e-12
4.09711e-08
-2.39557e-12
-1.98685e-12
4.38356e-08
2.29875e-09
-4.37307e-08
4.39733e-08
2.53637e-09
4.41272e-08
2.72419e-09
4.42859e-08
2.86028e-09
4.44425e-08
2.94968e-09
4.45919e-08
2.99743e-09
4.47299e-08
3.00794e-09
4.48535e-08
2.98627e-09
4.49606e-08
2.93837e-09
4.50506e-08
2.87042e-09
4.51235e-08
2.78836e-09
4.51802e-08
2.69758e-09
4.52223e-08
2.60269e-09
4.52513e-08
2.5074e-09
4.52692e-08
2.41444e-09
4.52778e-08
2.32564e-09
4.52786e-08
2.24202e-09
4.52731e-08
2.164e-09
4.52623e-08
2.09152e-09
4.52473e-08
2.02424e-09
4.52286e-08
1.9616e-09
4.52068e-08
1.90299e-09
4.51822e-08
1.84779e-09
4.51551e-08
1.79537e-09
4.51258e-08
1.74518e-09
4.50943e-08
1.6967e-09
4.50609e-08
1.64948e-09
4.50256e-08
1.60313e-09
4.49885e-08
1.55726e-09
4.49499e-08
1.51157e-09
4.49097e-08
1.46575e-09
4.48682e-08
1.41952e-09
4.48254e-08
1.37262e-09
4.47815e-08
1.32479e-09
4.47367e-08
1.27579e-09
4.46912e-08
1.22538e-09
4.46452e-08
1.17333e-09
4.45987e-08
1.11941e-09
4.45521e-08
1.0634e-09
4.45054e-08
1.00508e-09
4.44589e-08
9.44267e-10
4.44126e-08
8.8082e-10
4.43668e-08
8.1468e-10
4.43213e-08
7.45927e-10
4.42761e-08
6.74849e-10
4.42313e-08
6.02014e-10
4.41867e-08
5.28332e-10
4.41424e-08
4.55055e-10
4.40985e-08
3.83691e-10
4.40553e-08
3.15806e-10
4.40133e-08
2.52779e-10
4.3973e-08
1.95614e-10
4.39346e-08
1.44877e-10
4.38985e-08
1.007e-10
4.38645e-08
6.28293e-11
4.38324e-08
3.07257e-11
4.38027e-08
3.72378e-12
4.37754e-08
-1.8653e-11
4.37509e-08
-3.68575e-11
4.3729e-08
-5.14899e-11
4.37098e-08
-6.31012e-11
4.3693e-08
-7.21728e-11
4.36788e-08
-7.91128e-11
4.36668e-08
-8.42583e-11
4.3657e-08
-8.78827e-11
4.36493e-08
-9.02042e-11
4.36435e-08
-9.13968e-11
4.36395e-08
-9.15992e-11
4.36371e-08
-9.09245e-11
4.36361e-08
-8.94674e-11
4.36364e-08
-8.7311e-11
4.36379e-08
-8.45318e-11
4.36404e-08
-8.12039e-11
4.36437e-08
-7.74015e-11
4.36477e-08
-7.32007e-11
4.36521e-08
-6.86807e-11
4.3657e-08
-6.39231e-11
4.3662e-08
-5.90109e-11
4.36671e-08
-5.40276e-11
4.36721e-08
-4.90543e-11
4.36771e-08
-4.41681e-11
4.36817e-08
-3.94392e-11
4.36861e-08
-3.49292e-11
4.36902e-08
-3.06889e-11
4.36938e-08
-2.67575e-11
4.36971e-08
-2.31619e-11
4.37e-08
-1.99164e-11
4.37025e-08
-1.70239e-11
4.37046e-08
-1.44771e-11
4.37064e-08
-1.22599e-11
4.3708e-08
-1.03497e-11
4.37092e-08
-8.71904e-12
4.37102e-08
-7.33806e-12
4.37111e-08
-6.17596e-12
4.37118e-08
-5.20264e-12
4.37123e-08
-4.38979e-12
4.37127e-08
-3.7114e-12
4.37131e-08
-3.14266e-12
4.37133e-08
-2.65286e-12
-2.17059e-12
4.55538e-08
2.20565e-09
-4.54607e-08
4.56756e-08
2.4146e-09
4.58139e-08
2.58588e-09
4.59588e-08
2.7153e-09
4.61039e-08
2.80466e-09
4.6244e-08
2.85726e-09
4.63754e-08
2.8766e-09
4.64949e-08
2.86676e-09
4.66007e-08
2.83258e-09
4.66919e-08
2.77925e-09
4.67683e-08
2.71187e-09
4.68308e-08
2.63512e-09
4.68804e-08
2.55312e-09
4.69185e-08
2.46926e-09
4.69468e-08
2.38614e-09
4.69669e-08
2.30558e-09
4.69802e-08
2.22873e-09
4.6988e-08
2.15619e-09
4.69914e-08
2.0881e-09
4.69913e-08
2.02432e-09
4.69884e-08
1.96451e-09
4.69832e-08
1.90821e-09
4.69761e-08
1.85492e-09
4.69673e-08
1.80414e-09
4.69571e-08
1.75538e-09
4.69456e-08
1.7082e-09
4.69329e-08
1.66217e-09
4.69191e-08
1.61692e-09
4.69043e-08
1.57211e-09
4.68884e-08
1.52741e-09
4.68716e-08
1.48255e-09
4.68539e-08
1.43723e-09
4.68353e-08
1.39121e-09
4.68159e-08
1.34422e-09
4.67957e-08
1.29603e-09
4.67746e-08
1.24639e-09
4.67529e-08
1.19509e-09
4.67304e-08
1.14188e-09
4.67072e-08
1.08658e-09
4.66833e-08
1.02897e-09
4.66587e-08
9.68893e-10
4.66333e-08
9.06248e-10
4.6607e-08
8.41011e-10
4.65796e-08
7.733e-10
4.6551e-08
7.0343e-10
4.65211e-08
6.31965e-10
4.64896e-08
5.59764e-10
4.64567e-08
4.87969e-10
4.64225e-08
4.17927e-10
4.63872e-08
3.51031e-10
4.63515e-08
2.88524e-10
4.63158e-08
2.31343e-10
4.62806e-08
1.80056e-10
4.62464e-08
1.34864e-10
4.62136e-08
9.56415e-11
4.61823e-08
6.20325e-11
4.61525e-08
3.35139e-11
4.61244e-08
9.47371e-12
4.60982e-08
-1.0616e-11
4.60739e-08
-2.72157e-11
4.60516e-08
-4.08147e-11
4.60313e-08
-5.18602e-11
4.60129e-08
-6.0735e-11
4.59964e-08
-6.77588e-11
4.59817e-08
-7.31934e-11
4.59688e-08
-7.72495e-11
4.59575e-08
-8.00954e-11
4.59477e-08
-8.18655e-11
4.59395e-08
-8.26687e-11
4.59326e-08
-8.25956e-11
4.5927e-08
-8.17252e-11
4.59226e-08
-8.01298e-11
4.59193e-08
-7.78794e-11
4.59169e-08
-7.50449e-11
4.59154e-08
-7.17001e-11
4.59147e-08
-6.79228e-11
4.59145e-08
-6.37951e-11
4.59149e-08
-5.94023e-11
4.59157e-08
-5.48317e-11
4.59169e-08
-5.01706e-11
4.59182e-08
-4.55036e-11
4.59197e-08
-4.09106e-11
4.59212e-08
-3.64635e-11
4.59227e-08
-3.22246e-11
4.59242e-08
-2.82449e-11
4.59256e-08
-2.45626e-11
4.59269e-08
-2.12034e-11
4.59281e-08
-1.81801e-11
4.59291e-08
-1.5494e-11
4.593e-08
-1.31366e-11
4.59307e-08
-1.1091e-11
4.59313e-08
-9.33389e-12
4.59318e-08
-7.83832e-12
4.59322e-08
-6.57497e-12
4.59325e-08
-5.51415e-12
4.59328e-08
-4.6271e-12
4.59329e-08
-3.88653e-12
4.59331e-08
-3.26579e-12
4.59331e-08
-2.73314e-12
-2.22991e-12
4.73303e-08
2.12184e-09
-4.72465e-08
4.74388e-08
2.30607e-09
4.75633e-08
2.46144e-09
4.76955e-08
2.5831e-09
4.78293e-08
2.67084e-09
4.796e-08
2.7265e-09
4.8084e-08
2.75266e-09
4.81982e-08
2.75252e-09
4.83008e-08
2.72999e-09
4.83907e-08
2.68934e-09
4.84677e-08
2.63489e-09
4.85321e-08
2.57069e-09
4.85849e-08
2.50036e-09
4.86272e-08
2.42698e-09
4.86603e-08
2.35296e-09
4.86858e-08
2.28011e-09
4.87049e-08
2.20964e-09
4.87188e-08
2.14226e-09
4.87286e-08
2.0783e-09
4.87352e-08
2.01777e-09
4.87391e-08
1.96052e-09
4.87411e-08
1.90623e-09
4.87415e-08
1.85453e-09
4.87406e-08
1.80503e-09
4.87387e-08
1.75731e-09
4.87359e-08
1.71099e-09
4.87324e-08
1.66571e-09
4.87282e-08
1.62112e-09
4.87234e-08
1.57691e-09
4.8718e-08
1.53278e-09
4.87121e-08
1.48846e-09
4.87056e-08
1.44368e-09
4.86986e-08
1.3982e-09
4.86911e-08
1.35176e-09
4.8683e-08
1.30415e-09
4.86742e-08
1.25513e-09
4.86648e-08
1.20449e-09
4.86547e-08
1.15203e-09
4.86437e-08
1.09754e-09
4.86318e-08
1.04085e-09
4.86189e-08
9.81846e-10
4.86047e-08
9.2044e-10
4.85891e-08
8.56649e-10
4.85717e-08
7.90618e-10
4.85525e-08
7.22668e-10
4.85311e-08
6.53343e-10
4.85075e-08
5.83429e-10
4.84815e-08
5.13949e-10
4.84533e-08
4.46085e-10
4.84233e-08
3.81058e-10
4.83918e-08
3.19969e-10
4.83595e-08
2.63674e-10
4.83269e-08
2.12719e-10
4.82944e-08
1.67338e-10
4.82625e-08
1.27486e-10
4.82317e-08
9.29039e-11
4.8202e-08
6.31858e-11
4.81736e-08
3.7842e-11
4.81467e-08
1.63507e-11
4.81212e-08
-1.77844e-12
4.80974e-08
-1.69758e-11
4.80752e-08
-2.96367e-11
4.80545e-08
-4.01182e-11
4.80355e-08
-4.87222e-11
4.8018e-08
-5.56982e-11
4.8002e-08
-6.12489e-11
4.79874e-08
-6.5537e-11
4.79743e-08
-6.86932e-11
4.79624e-08
-7.08231e-11
4.79518e-08
-7.20145e-11
4.79425e-08
-7.23435e-11
4.79342e-08
-7.18796e-11
4.7927e-08
-7.06899e-11
4.79208e-08
-6.88427e-11
4.79155e-08
-6.64093e-11
4.79111e-08
-6.34657e-11
4.79074e-08
-6.00924e-11
4.79043e-08
-5.63745e-11
4.79019e-08
-5.23998e-11
4.79e-08
-4.82571e-11
4.78985e-08
-4.40338e-11
4.78974e-08
-3.98133e-11
4.78966e-08
-3.56725e-11
4.78961e-08
-3.16793e-11
4.78957e-08
-2.78908e-11
4.78955e-08
-2.43523e-11
4.78954e-08
-2.10962e-11
4.78954e-08
-1.81422e-11
4.78954e-08
-1.54985e-11
4.78954e-08
-1.31625e-11
4.78955e-08
-1.11227e-11
4.78955e-08
-9.36091e-12
4.78955e-08
-7.85383e-12
4.78955e-08
-6.57533e-12
4.78955e-08
-5.49802e-12
4.78954e-08
-4.5947e-12
4.78954e-08
-3.83905e-12
4.78953e-08
-3.20521e-12
4.78953e-08
-2.6645e-12
-2.17838e-12
4.91676e-08
2.04556e-09
-4.90913e-08
4.9265e-08
2.20862e-09
4.93773e-08
2.3492e-09
4.94977e-08
2.46265e-09
4.96209e-08
2.54765e-09
4.97425e-08
2.60491e-09
4.9859e-08
2.63619e-09
4.99675e-08
2.64395e-09
5.00663e-08
2.63125e-09
5.0154e-08
2.60159e-09
5.02304e-08
2.55856e-09
5.02954e-08
2.50563e-09
5.03498e-08
2.44597e-09
5.03945e-08
2.3823e-09
5.04306e-08
2.31687e-09
5.04593e-08
2.25141e-09
5.04818e-08
2.18713e-09
5.04992e-08
2.12485e-09
5.05125e-08
2.06501e-09
5.05225e-08
2.00777e-09
5.05299e-08
1.9531e-09
5.05353e-08
1.90084e-09
5.05391e-08
1.85072e-09
5.05417e-08
1.80244e-09
5.05433e-08
1.75569e-09
5.05441e-08
1.71013e-09
5.05444e-08
1.66546e-09
5.05441e-08
1.62138e-09
5.05434e-08
1.57761e-09
5.05423e-08
1.53386e-09
5.05409e-08
1.4899e-09
5.05391e-08
1.44547e-09
5.0537e-08
1.40035e-09
5.05344e-08
1.35431e-09
5.05314e-08
1.30714e-09
5.05279e-08
1.25862e-09
5.05239e-08
1.20856e-09
5.05191e-08
1.15678e-09
5.05136e-08
1.10311e-09
5.0507e-08
1.0474e-09
5.04993e-08
9.8955e-10
5.04902e-08
9.29523e-10
5.04795e-08
8.6736e-10
5.04669e-08
8.03224e-10
5.04521e-08
7.37435e-10
5.0435e-08
6.70504e-10
5.04153e-08
6.03144e-10
5.0393e-08
5.36258e-10
5.03682e-08
4.70876e-10
5.03412e-08
4.0806e-10
5.03124e-08
3.48774e-10
5.02822e-08
2.93789e-10
5.02513e-08
2.43619e-10
5.02202e-08
1.98515e-10
5.01892e-08
1.58483e-10
5.01587e-08
1.23338e-10
5.01292e-08
9.27603e-11
5.01007e-08
6.63428e-11
5.00734e-08
4.36456e-11
5.00474e-08
2.42278e-11
5.00227e-08
7.6721e-12
4.99995e-08
-6.39417e-12
4.99776e-08
-1.82933e-11
4.99572e-08
-2.8306e-11
4.99382e-08
-3.66685e-11
4.99205e-08
-4.35741e-11
4.99042e-08
-4.91797e-11
4.98891e-08
-5.36117e-11
4.98752e-08
-5.69727e-11
4.98626e-08
-5.93483e-11
4.9851e-08
-6.08126e-11
4.98406e-08
-6.14331e-11
4.98312e-08
-6.12755e-11
4.98227e-08
-6.04061e-11
4.98152e-08
-5.88946e-11
4.98086e-08
-5.68153e-11
4.98027e-08
-5.42477e-11
4.97976e-08
-5.12754e-11
4.97932e-08
-4.79855e-11
4.97894e-08
-4.44665e-11
4.97862e-08
-4.0806e-11
4.97835e-08
-3.70881e-11
4.97812e-08
-3.33912e-11
4.97793e-08
-2.97854e-11
4.97777e-08
-2.63308e-11
4.97765e-08
-2.30758e-11
4.97754e-08
-2.00572e-11
4.97746e-08
-1.72991e-11
4.97739e-08
-1.48144e-11
4.97733e-08
-1.26055e-11
4.97729e-08
-1.06656e-11
4.97725e-08
-8.98117e-12
4.97722e-08
-7.53311e-12
4.97719e-08
-6.29907e-12
4.97717e-08
-5.25496e-12
4.97714e-08
-4.37631e-12
4.97712e-08
-3.63912e-12
4.97711e-08
-3.01996e-12
4.97709e-08
-2.49509e-12
-2.04391e-12
5.10682e-08
1.97561e-09
-5.09982e-08
5.11563e-08
2.12052e-09
5.12578e-08
2.24767e-09
5.13675e-08
2.3529e-09
5.14808e-08
2.4344e-09
5.15936e-08
2.4921e-09
5.17027e-08
2.52709e-09
5.18055e-08
2.54116e-09
5.19001e-08
2.53669e-09
5.19852e-08
2.51648e-09
5.20602e-08
2.48349e-09
5.21252e-08
2.44066e-09
5.21805e-08
2.3907e-09
5.22268e-08
2.33603e-09
5.22649e-08
2.2787e-09
5.2296e-08
2.22032e-09
5.2321e-08
2.16211e-09
5.2341e-08
2.1049e-09
5.23568e-08
2.04924e-09
5.23691e-08
1.99539e-09
5.23788e-08
1.94344e-09
5.23863e-08
1.89333e-09
5.23921e-08
1.84492e-09
5.23966e-08
1.79798e-09
5.24e-08
1.75227e-09
5.24026e-08
1.70754e-09
5.24045e-08
1.66352e-09
5.24059e-08
1.61997e-09
5.24069e-08
1.57662e-09
5.24075e-08
1.53325e-09
5.24078e-08
1.48961e-09
5.24078e-08
1.4455e-09
5.24075e-08
1.40071e-09
5.24067e-08
1.35502e-09
5.24056e-08
1.30824e-09
5.24041e-08
1.26019e-09
5.24019e-08
1.21069e-09
5.23991e-08
1.15958e-09
5.23955e-08
1.10672e-09
5.23909e-08
1.052e-09
5.23851e-08
9.95334e-10
5.23779e-08
9.3672e-10
5.23691e-08
8.76222e-10
5.23583e-08
8.14017e-10
5.23453e-08
7.50417e-10
5.23299e-08
6.85896e-10
5.2312e-08
6.21097e-10
5.22914e-08
5.56813e-10
5.22683e-08
4.9394e-10
5.2243e-08
4.33394e-10
5.22158e-08
3.7602e-10
5.21871e-08
3.22504e-10
5.21574e-08
2.73321e-10
5.21271e-08
2.28726e-10
5.20969e-08
1.88765e-10
5.20669e-08
1.53311e-10
5.20375e-08
1.22112e-10
5.2009e-08
9.48318e-11
5.19816e-08
7.10947e-11
5.19553e-08
5.0516e-11
5.19303e-08
3.27255e-11
5.19065e-08
1.73799e-11
5.1884e-08
4.17528e-12
5.18629e-08
-7.14988e-12
5.1843e-08
-1.6815e-11
5.18244e-08
-2.50027e-11
5.18071e-08
-3.18625e-11
5.1791e-08
-3.75156e-11
5.17761e-08
-4.20613e-11
5.17623e-08
-4.55825e-11
5.17497e-08
-4.81514e-11
5.17381e-08
-4.9834e-11
5.17275e-08
-5.06944e-11
5.17179e-08
-5.07978e-11
5.17092e-08
-5.02125e-11
5.17014e-08
-4.90118e-11
5.16944e-08
-4.72735e-11
5.16882e-08
-4.50803e-11
5.16828e-08
-4.25179e-11
5.1678e-08
-3.96737e-11
5.16738e-08
-3.66344e-11
5.16702e-08
-3.34837e-11
5.16671e-08
-3.02998e-11
5.16645e-08
-2.71534e-11
5.16622e-08
-2.41057e-11
5.16604e-08
-2.12071e-11
5.16588e-08
-1.84966e-11
5.16575e-08
-1.60018e-11
5.16564e-08
-1.37391e-11
5.16556e-08
-1.17149e-11
5.16548e-08
-9.92678e-12
5.16542e-08
-8.36547e-12
5.16537e-08
-7.01622e-12
5.16532e-08
-5.86067e-12
5.16529e-08
-4.87841e-12
5.16525e-08
-4.04828e-12
5.16523e-08
-3.34928e-12
5.1652e-08
-2.76114e-12
5.16518e-08
-2.26521e-12
-1.85257e-12
5.30348e-08
1.91109e-09
-5.29703e-08
5.31149e-08