/*--------------------------------*- C++ -*----------------------------------*\
| =========                 |                                                 |
| \\      /  F ield         | OpenFOAM: The Open Source CFD Toolbox           |
|  \\    /   O peration     | Version:  2.3.0                                 |
|   \\  /    A nd           | Web:      www.OpenFOAM.org                      |
|    \\/     M anipulation  |                                                 |
\*---------------------------------------------------------------------------*/
FoamFile
{
    version     2.0;
    format      ascii;
    class       surfaceScalarField;
    location    "0.5";
    object      phi;
}
// * * * * * * * * * * * * * * * * * * * * * * * * * * * * * * * * * * * * * //

dimensions      [0 3 -1 0 0 0 0];

internalField   nonuniform List<scalar> 
17305
(
2.83728e-08
2.87917e-09
-3.1252e-08
2.55091e-08
2.8637e-09
2.28217e-08
2.68746e-09
2.03443e-08
2.47741e-09
1.8093e-08
2.25129e-09
1.60784e-08
2.01456e-09
1.4303e-08
1.77539e-09
1.27615e-08
1.54154e-09
1.14419e-08
1.31957e-09
1.03271e-08
1.11483e-09
9.39585e-09
9.31224e-10
8.6248e-09
7.71055e-10
7.98984e-09
6.34957e-10
7.46774e-09
5.22104e-10
7.03719e-09
4.30551e-10
6.67954e-09
3.57644e-10
6.37913e-09
3.00415e-10
6.12321e-09
2.55912e-10
5.90179e-09
2.21428e-10
5.70715e-09
1.94634e-10
5.53353e-09
1.73622e-10
5.37664e-09
1.56894e-10
5.23332e-09
1.43313e-10
5.10128e-09
1.32045e-10
4.97879e-09
1.2249e-10
4.86456e-09
1.14225e-10
4.75761e-09
1.06954e-10
4.65714e-09
1.00472e-10
4.5625e-09
9.46365e-11
4.47316e-09
8.93439e-11
4.38864e-09
8.45181e-11
4.30854e-09
8.01009e-11
4.23249e-09
7.60454e-11
4.16018e-09
7.23128e-11
4.09131e-09
6.88698e-11
4.02562e-09
6.56871e-11
3.96288e-09
6.27391e-11
3.90288e-09
6.0003e-11
3.84542e-09
5.74581e-11
3.79034e-09
5.50864e-11
3.73746e-09
5.28714e-11
3.68667e-09
5.07987e-11
3.63781e-09
4.88553e-11
3.59078e-09
4.70295e-11
3.54547e-09
4.53109e-11
3.50178e-09
4.36904e-11
3.45962e-09
4.21595e-11
3.41891e-09
4.07108e-11
3.37957e-09
3.93375e-11
3.34154e-09
3.80336e-11
3.30474e-09
3.67935e-11
3.26913e-09
3.56122e-11
3.23465e-09
3.44852e-11
3.20124e-09
3.34082e-11
3.16886e-09
3.23776e-11
3.13747e-09
3.13896e-11
3.10703e-09
3.04412e-11
3.0775e-09
2.95293e-11
3.04885e-09
2.86511e-11
3.02105e-09
2.78041e-11
2.99406e-09
2.69859e-11
2.96787e-09
2.61943e-11
2.94244e-09
2.54271e-11
2.91776e-09
2.46825e-11
2.8938e-09
2.39585e-11
2.87054e-09
2.32535e-11
2.84798e-09
2.25658e-11
2.82608e-09
2.18939e-11
2.80485e-09
2.12364e-11
2.78426e-09
2.05918e-11
2.7643e-09
1.99589e-11
2.74496e-09
1.93365e-11
2.72624e-09
1.87233e-11
2.70812e-09
1.81184e-11
2.6906e-09
1.75206e-11
2.67367e-09
1.6929e-11
2.65733e-09
1.63427e-11
2.64157e-09
1.57609e-11
2.62638e-09
1.51827e-11
2.61178e-09
1.46076e-11
2.59774e-09
1.40349e-11
2.58428e-09
1.34645e-11
2.57138e-09
1.28961e-11
2.55905e-09
1.23298e-11
2.54728e-09
1.17657e-11
2.53608e-09
1.1204e-11
2.52544e-09
1.06445e-11
2.51535e-09
1.00868e-11
2.50582e-09
9.52946e-12
2.49685e-09
8.97042e-12
2.48844e-09
8.40686e-12
2.48061e-09
7.83597e-12
2.47335e-09
7.25626e-12
2.46668e-09
6.66986e-12
2.46059e-09
6.08624e-12
2.45507e-09
5.52841e-12
2.45002e-09
5.04766e-12
2.44526e-09
4.75793e-12
2.44049e-09
4.76895e-12
1.25967e-11
3.34113e-08
3.15045e-09
-3.36826e-08
3.28263e-08
3.44866e-09
3.20094e-08
3.50438e-09
3.10373e-08
3.44951e-09
2.99654e-08
3.32316e-09
2.88393e-08
3.14067e-09
2.76959e-08
2.91887e-09
2.65633e-08
2.6741e-09
2.54626e-08
2.42032e-09
2.44083e-08
2.16904e-09
2.34102e-08
1.92939e-09
2.24733e-08
1.7079e-09
2.15997e-08
1.50853e-09
2.0789e-08
1.33289e-09
2.00388e-08
1.18074e-09
1.93459e-08
1.05055e-09
1.87063e-08
9.39976e-10
1.81159e-08
8.46366e-10
1.75702e-08
7.67058e-10
1.70653e-08
6.99594e-10
1.65971e-08
6.41829e-10
1.6162e-08
5.91965e-10
1.57568e-08
5.4854e-10
1.53784e-08
5.10387e-10
1.50243e-08
4.76586e-10
1.46921e-08
4.46419e-10
1.43798e-08
4.1932e-10
1.40854e-08
3.94843e-10
1.38074e-08
3.72632e-10
1.35443e-08
3.52397e-10
1.3295e-08
3.339e-10
1.30581e-08
3.16941e-10
1.28328e-08
3.01348e-10
1.26181e-08
2.86977e-10
1.24133e-08
2.73698e-10
1.22176e-08
2.61402e-10
1.20304e-08
2.4999e-10
1.1851e-08
2.39376e-10
1.1679e-08
2.29483e-10
1.15138e-08
2.20243e-10
1.13551e-08
2.11595e-10
1.12024e-08
2.03487e-10
1.10554e-08
1.9587e-10
1.09137e-08
1.88701e-10
1.07771e-08
1.81942e-10
1.06452e-08
1.75558e-10
1.05178e-08
1.69519e-10
1.03948e-08
1.63795e-10
1.02757e-08
1.58363e-10
1.01606e-08
1.53198e-10
1.00491e-08
1.4828e-10
9.94111e-09
1.43591e-10
9.83648e-09
1.39111e-10
9.73506e-09
1.34826e-10
9.63672e-09
1.30721e-10
9.54132e-09
1.26782e-10
9.44877e-09
1.22997e-10
9.35895e-09
1.19353e-10
9.27176e-09
1.1584e-10
9.18711e-09
1.12449e-10
9.10493e-09
1.09169e-10
9.02513e-09
1.05991e-10
8.94765e-09
1.02908e-10
8.87242e-09
9.9911e-11
8.79939e-09
9.69933e-11
8.72849e-09
9.41477e-11
8.65969e-09
9.13676e-11
8.59294e-09
8.86466e-11
8.5282e-09
8.59787e-11
8.46543e-09
8.33583e-11
8.40461e-09
8.078e-11
8.34571e-09
7.82384e-11
8.2887e-09
7.57288e-11
8.23357e-09
7.32463e-11
8.18031e-09
7.07866e-11
8.12889e-09
6.83454e-11
8.07932e-09
6.59186e-11
8.03157e-09
6.35026e-11
7.98566e-09
6.10939e-11
7.94158e-09
5.86897e-11
7.89933e-09
5.62872e-11
7.85891e-09
5.38845e-11
7.82032e-09
5.14802e-11
7.78358e-09
4.90731e-11
7.74868e-09
4.66624e-11
7.71564e-09
4.42473e-11
7.68446e-09
4.18262e-11
7.65515e-09
3.93967e-11
7.62772e-09
3.69552e-11
7.6022e-09
3.4497e-11
7.57859e-09
3.20178e-11
7.55691e-09
2.95164e-11
7.53716e-09
2.69988e-11
7.51935e-09
2.44849e-11
7.50342e-09
2.20188e-11
7.48926e-09
1.96857e-11
7.47666e-09
1.76504e-11
7.46516e-09
1.62567e-11
7.45308e-09
1.68455e-11
3.0167e-11
3.48067e-08
2.99706e-09
-3.46534e-08
3.48718e-08
3.38361e-09
3.48107e-08
3.56543e-09
3.46292e-08
3.63106e-09
3.43378e-08
3.61459e-09
3.39507e-08
3.52773e-09
3.34854e-08
3.38418e-09
3.29596e-08
3.19988e-09
3.239e-08
2.9899e-09
3.17915e-08
2.76753e-09
3.11769e-08
2.54405e-09
3.05565e-08
2.32829e-09
2.99386e-08
2.12647e-09
2.93292e-08
1.94228e-09
2.87327e-08
1.77725e-09
2.81519e-08
1.63128e-09
2.75888e-08
1.50314e-09
2.70441e-08
1.39102e-09
2.65183e-08
1.29284e-09
2.60114e-08
1.20654e-09
2.5523e-08
1.13022e-09
2.50527e-08
1.06227e-09
2.45999e-08
1.0013e-09
2.41641e-08
9.46212e-10
2.37446e-08
8.96102e-10
2.33407e-08
8.50263e-10
2.29519e-08
8.08129e-10
2.25775e-08
7.69245e-10
2.22169e-08
7.33244e-10
2.18695e-08
6.99822e-10
2.15347e-08
6.68723e-10
2.12119e-08
6.3973e-10
2.09006e-08
6.12653e-10
2.06002e-08
5.87324e-10
2.03103e-08
5.63597e-10
2.00304e-08
5.41337e-10
1.976e-08
5.20426e-10
1.94986e-08
5.00753e-10
1.92458e-08
4.82222e-10
1.90013e-08
4.64741e-10
1.87647e-08
4.48231e-10
1.85356e-08
4.32617e-10
1.83136e-08
4.1783e-10
1.80985e-08
4.03808e-10
1.789e-08
3.90496e-10
1.76877e-08
3.7784e-10
1.74914e-08
3.65794e-10
1.73009e-08
3.54312e-10
1.71159e-08
3.43355e-10
1.69362e-08
3.32886e-10
1.67616e-08
3.22869e-10
1.65919e-08
3.13273e-10
1.6427e-08
3.04068e-10
1.62666e-08
2.95227e-10
1.61106e-08
2.86724e-10
1.59588e-08
2.78534e-10
1.58112e-08
2.70635e-10
1.56675e-08
2.63007e-10
1.55277e-08
2.55628e-10
1.53917e-08
2.48482e-10
1.52593e-08
2.41548e-10
1.51305e-08
2.34812e-10
1.50052e-08
2.28256e-10
1.48832e-08
2.21867e-10
1.47646e-08
2.15628e-10
1.46492e-08
2.09527e-10
1.4537e-08
2.0355e-10
1.4428e-08
1.97685e-10
1.4322e-08
1.91919e-10
1.42191e-08
1.8624e-10
1.41193e-08
1.80638e-10
1.40224e-08
1.751e-10
1.39285e-08
1.69618e-10
1.38376e-08
1.6418e-10
1.37496e-08
1.58778e-10
1.36646e-08
1.53401e-10
1.35824e-08
1.48041e-10
1.35032e-08
1.42691e-10
1.3427e-08
1.37342e-10
1.33537e-08
1.31987e-10
1.32834e-08
1.26621e-10
1.3216e-08
1.21238e-10
1.31517e-08
1.15835e-10
1.30903e-08
1.10408e-10
1.3032e-08
1.04953e-10
1.29768e-08
9.94695e-11
1.29247e-08
9.39527e-11
1.28757e-08
8.83992e-11
1.28298e-08
8.28049e-11
1.27872e-08
7.71662e-11
1.27477e-08
7.14834e-11
1.27115e-08
6.57657e-11
1.26784e-08
6.00388e-11
1.26485e-08
5.4356e-11
1.26217e-08
4.88148e-11
1.25978e-08
4.3585e-11
1.25765e-08
3.8975e-11
1.25571e-08
3.56435e-11
1.25379e-08
3.60766e-11
5.12916e-11
3.56419e-08
2.80521e-09
-3.545e-08
3.58375e-08
3.188e-09
3.5992e-08
3.4109e-09
3.60931e-08
3.52997e-09
3.61342e-08
3.57347e-09
3.61115e-08
3.55048e-09
3.60254e-08
3.47027e-09
3.588e-08
3.34525e-09
3.56816e-08
3.18828e-09
3.54377e-08
3.01144e-09
3.51563e-08
2.82549e-09
3.48451e-08
2.63942e-09
3.45115e-08
2.46007e-09
3.41617e-08
2.29208e-09
3.3801e-08
2.13804e-09
3.34333e-08
1.99889e-09
3.30621e-08
1.87437e-09
3.26897e-08
1.76345e-09
3.23178e-08
1.66468e-09
3.19479e-08
1.57649e-09
3.15807e-08
1.49735e-09
3.12172e-08
1.42586e-09
3.08576e-08
1.36083e-09
3.05026e-08
1.30127e-09
3.01523e-08
1.24636e-09
2.98071e-08
1.19545e-09
2.94672e-08
1.14804e-09
2.91328e-08
1.10369e-09
2.88039e-08
1.06208e-09
2.84808e-08
1.02294e-09
2.81635e-08
9.8603e-10
2.78521e-08
9.51166e-10
2.75466e-08
9.18182e-10
2.72469e-08
8.86931e-10
2.69533e-08
8.57285e-10
2.66655e-08
8.29129e-10
2.63835e-08
8.02358e-10
2.61074e-08
7.76876e-10
2.5837e-08
7.52598e-10
2.55723e-08
7.29442e-10
2.53132e-08
7.07336e-10
2.50596e-08
6.86211e-10
2.48115e-08
6.66005e-10
2.45686e-08
6.4666e-10
2.4331e-08
6.28122e-10
2.40985e-08
6.10339e-10
2.3871e-08
5.93266e-10
2.36485e-08
5.76857e-10
2.34307e-08
5.61074e-10
2.32178e-08
5.45875e-10
2.30094e-08
5.31226e-10
2.28056e-08
5.17092e-10
2.26062e-08
5.03441e-10
2.24112e-08
4.90242e-10
2.22205e-08
4.77466e-10
2.20339e-08
4.65085e-10
2.18515e-08
4.53073e-10
2.16731e-08
4.41406e-10
2.14986e-08
4.30058e-10
2.13281e-08
4.19006e-10
2.11614e-08
4.0823e-10
2.09985e-08
3.97706e-10
2.08394e-08
3.87414e-10
2.06839e-08
3.77335e-10
2.05321e-08
3.67449e-10
2.03839e-08
3.57736e-10
2.02392e-08
3.48179e-10
2.00982e-08
3.3876e-10
1.99606e-08
3.29461e-10
1.98266e-08
3.20265e-10
1.96961e-08
3.11156e-10
1.95691e-08
3.02117e-10
1.94456e-08
2.93134e-10
1.93255e-08
2.84189e-10
1.92091e-08
2.75269e-10
1.90961e-08
2.66359e-10
1.89867e-08
2.57446e-10
1.88809e-08
2.48516e-10
1.87787e-08
2.39558e-10
1.86801e-08
2.30559e-10
1.85852e-08
2.21511e-10
1.8494e-08
2.12405e-10
1.84066e-08
2.03232e-10
1.8323e-08
1.93988e-10
1.82433e-08
1.84667e-10
1.81675e-08
1.75264e-10
1.80957e-08
1.65776e-10
1.80279e-08
1.56199e-10
1.79642e-08
1.46531e-10
1.79046e-08
1.36775e-10
1.78491e-08
1.26942e-10
1.77978e-08
1.17061e-10
1.77507e-08
1.07187e-10
1.77076e-08
9.74172e-11
1.76685e-08
8.79117e-11
1.76332e-08
7.89323e-11
1.76012e-08
7.0933e-11
1.7572e-08
6.48726e-11
1.75442e-08
6.38148e-11
7.75663e-11
3.63938e-08
2.63717e-09
-3.62257e-08
3.65918e-08
2.98997e-09
3.67838e-08
3.21894e-09
3.69569e-08
3.35682e-09
3.71038e-08
3.42662e-09
3.72172e-08
3.43708e-09
3.72922e-08
3.39528e-09
3.73266e-08
3.31083e-09
3.73206e-08
3.1943e-09
3.72761e-08
3.05589e-09
3.71966e-08
2.905e-09
3.70863e-08
2.74975e-09
3.69497e-08
2.59668e-09
3.67912e-08
2.45049e-09
3.66151e-08
2.31418e-09
3.64248e-08
2.18924e-09
3.62231e-08
2.07601e-09
3.60125e-08
1.97404e-09
3.57948e-08
1.8824e-09
3.55714e-08
1.79992e-09
3.53434e-08
1.72539e-09
3.51116e-08
1.65766e-09
3.48767e-08
1.59571e-09
3.46393e-08
1.53865e-09
3.43999e-08
1.48576e-09
3.41589e-08
1.43644e-09
3.39167e-08
1.39022e-09
3.36737e-08
1.34672e-09
3.34302e-08
1.30561e-09
3.31864e-08
1.26666e-09
3.29428e-08
1.22966e-09
3.26995e-08
1.19442e-09
3.24569e-08
1.16082e-09
3.22151e-08
1.12871e-09
3.19744e-08
1.09799e-09
3.1735e-08
1.06857e-09
3.1497e-08
1.04034e-09
3.12606e-08
1.01324e-09
3.1026e-08
9.87195e-10
3.07934e-08
9.62133e-10
3.05627e-08
9.37997e-10
3.03342e-08
9.1473e-10
3.01079e-08
8.92282e-10
2.9884e-08
8.70605e-10
2.96624e-08
8.49654e-10
2.94434e-08
8.29387e-10
2.92269e-08
8.09767e-10
2.9013e-08
7.90755e-10
2.88017e-08
7.72318e-10
2.85932e-08
7.54423e-10
2.83874e-08
7.37039e-10
2.81843e-08
7.20137e-10
2.79841e-08
7.03686e-10
2.77867e-08
6.87662e-10
2.75921e-08
6.72037e-10
2.74004e-08
6.56785e-10
2.72116e-08
6.41883e-10
2.70257e-08
6.27307e-10
2.68427e-08
6.13033e-10
2.66627e-08
5.99038e-10
2.64856e-08
5.85301e-10
2.63115e-08
5.71799e-10
2.61404e-08
5.58511e-10
2.59723e-08
5.45416e-10
2.58073e-08
5.32492e-10
2.56453e-08
5.1972e-10
2.54864e-08
5.07077e-10
2.53306e-08
4.94545e-10
2.5178e-08
4.82102e-10
2.50285e-08
4.6973e-10
2.48823e-08
4.57407e-10
2.47393e-08
4.45114e-10
2.45996e-08
4.32832e-10
2.44632e-08
4.20542e-10
2.43303e-08
4.08226e-10
2.42007e-08
3.95863e-10
2.40748e-08
3.83438e-10
2.39523e-08
3.70933e-10
2.38336e-08
3.58332e-10
2.37185e-08
3.4562e-10
2.36072e-08
3.32785e-10
2.34998e-08
3.19813e-10
2.33964e-08
3.06696e-10
2.32969e-08
2.93425e-10
2.32016e-08
2.79993e-10
2.31105e-08
2.66395e-10
2.30236e-08
2.52628e-10
2.29411e-08
2.3869e-10
2.28631e-08
2.24586e-10
2.27895e-08
2.10328e-10
2.27205e-08
1.95945e-10
2.26561e-08
1.81489e-10
2.25962e-08
1.6705e-10
2.25409e-08
1.52774e-10
2.24899e-08
1.38885e-10
2.24431e-08
1.25732e-10
2.24001e-08
1.13889e-10
2.23605e-08
1.04509e-10
2.23236e-08
1.00664e-10
1.09814e-10
3.71391e-08
2.4953e-09
-3.69973e-08
3.73164e-08
2.81271e-09
3.75006e-08
3.03475e-09
3.76796e-08
3.17781e-09
3.78471e-08
3.25913e-09
3.7997e-08
3.28713e-09
3.81243e-08
3.26798e-09
3.82256e-08
3.20954e-09
3.82992e-08
3.12066e-09
3.8345e-08
3.01009e-09
3.83641e-08
2.88596e-09
3.83584e-08
2.75545e-09
3.83306e-08
2.62449e-09
3.82835e-08
2.49755e-09
3.822e-08
2.37767e-09
3.81427e-08
2.26658e-09
3.80537e-08
2.16499e-09
3.79549e-08
2.07282e-09
3.78478e-08
1.98951e-09
3.77335e-08
1.91423e-09
3.76129e-08
1.84602e-09
3.74866e-08
1.78392e-09
3.73553e-08
1.72707e-09
3.72192e-08
1.67469e-09
3.70789e-08
1.62611e-09
3.69345e-08
1.5808e-09
3.67864e-08
1.5383e-09
3.66349e-08
1.49824e-09
3.64802e-08
1.46034e-09
3.63225e-08
1.42434e-09
3.61621e-08
1.39005e-09
3.59992e-08
1.3573e-09
3.58341e-08
1.32595e-09
3.56669e-08
1.29589e-09
3.54979e-08
1.267e-09
3.53273e-08
1.2392e-09
3.51552e-08
1.21241e-09
3.49819e-08
1.18655e-09
3.48076e-08
1.16156e-09
3.46323e-08
1.13738e-09
3.44563e-08
1.11396e-09
3.42798e-08
1.09125e-09
3.41029e-08
1.0692e-09
3.39257e-08
1.04777e-09
3.37485e-08
1.02693e-09
3.35712e-08
1.00664e-09
3.33941e-08
9.86864e-10
3.32173e-08
9.67575e-10
3.30409e-08
9.48741e-10
3.2865e-08
9.30336e-10
3.26897e-08
9.12332e-10
3.25151e-08
8.94706e-10
3.23414e-08
8.77432e-10
3.21685e-08
8.60486e-10
3.19967e-08
8.43847e-10
3.1826e-08
8.27492e-10
3.16565e-08
8.11398e-10
3.14883e-08
7.95546e-10
3.13214e-08
7.79912e-10
3.11559e-08
7.64478e-10
3.0992e-08
7.49221e-10
3.08297e-08
7.3412e-10
3.06691e-08
7.19156e-10
3.05102e-08
7.04307e-10
3.03531e-08
6.89552e-10
3.0198e-08
6.7487e-10
3.00448e-08
6.6024e-10
2.98937e-08
6.45641e-10
2.97448e-08
6.3105e-10
2.9598e-08
6.16448e-10
2.94536e-08
6.01811e-10
2.93116e-08
5.87119e-10
2.91721e-08
5.72349e-10
2.90352e-08
5.57479e-10
2.89009e-08
5.4249e-10
2.87694e-08
5.27358e-10
2.86408e-08
5.12064e-10
2.85151e-08
4.96588e-10
2.83926e-08
4.80912e-10
2.82732e-08
4.65017e-10
2.81571e-08
4.48887e-10
2.80444e-08
4.3251e-10
2.79352e-08
4.15872e-10
2.78296e-08
3.98965e-10
2.77279e-08
3.8178e-10
2.76299e-08
3.64314e-10
2.7536e-08
3.46564e-10
2.74462e-08
3.28534e-10
2.73605e-08
3.10238e-10
2.72791e-08
2.91699e-10
2.72021e-08
2.72966e-10
2.71295e-08
2.54118e-10
2.70612e-08
2.3528e-10
2.69974e-08
2.16645e-10
2.69378e-08
1.98495e-10
2.68823e-08
1.81248e-10
2.68306e-08
1.65562e-10
2.67825e-08
1.52633e-10
2.6738e-08
1.45092e-10
1.47307e-10
3.78898e-08
2.37374e-09
-3.77682e-08
3.80456e-08
2.65687e-09
3.82136e-08
2.86677e-09
3.83821e-08
3.00934e-09
3.8545e-08
3.09619e-09
3.86974e-08
3.13473e-09
3.88349e-08
3.13049e-09
3.89544e-08
3.09006e-09
3.90541e-08
3.02098e-09
3.91333e-08
2.93087e-09
3.91924e-08
2.82685e-09
3.92326e-08
2.71532e-09
3.92554e-08
2.60164e-09
3.9263e-08
2.48998e-09
3.92573e-08
2.38333e-09
3.92404e-08
2.28353e-09
3.92138e-08
2.1915e-09
3.91792e-08
2.10746e-09
3.91376e-08
2.03112e-09
3.90899e-08
1.96191e-09
3.90369e-08
1.89909e-09
3.89789e-08
1.84189e-09
3.89164e-08
1.78956e-09
3.88497e-08
1.74143e-09
3.87789e-08
1.6969e-09
3.87042e-08
1.65546e-09
3.86258e-08
1.6167e-09
3.85438e-08
1.58025e-09
3.84583e-08
1.54583e-09
3.83694e-08
1.5132e-09
3.82773e-08
1.48216e-09
3.81821e-08
1.45254e-09
3.80838e-08
1.42421e-09
3.79827e-08
1.39704e-09
3.78788e-08
1.37092e-09
3.77722e-08
1.34576e-09
3.76631e-08
1.32149e-09
3.75516e-08
1.29804e-09
3.74379e-08
1.27532e-09
3.73219e-08
1.2533e-09
3.7204e-08
1.23191e-09
3.70841e-08
1.21111e-09
3.69625e-08
1.19085e-09
3.68391e-08
1.1711e-09
3.67142e-08
1.15182e-09
3.65879e-08
1.13297e-09
3.64603e-08
1.11452e-09
3.63314e-08
1.09644e-09
3.62014e-08
1.07871e-09
3.60705e-08
1.06129e-09
3.59386e-08
1.04416e-09
3.5806e-08
1.02731e-09
3.56728e-08
1.0107e-09
3.5539e-08
9.9431e-10
3.54047e-08
9.78123e-10
3.52701e-08
9.62117e-10
3.51352e-08
9.4627e-10
3.50002e-08
9.30561e-10
3.48651e-08
9.1497e-10
3.47301e-08
8.99476e-10
3.45953e-08
8.84059e-10
3.44607e-08
8.68699e-10
3.43265e-08
8.53373e-10
3.41927e-08
8.38061e-10
3.40595e-08
8.22741e-10
3.3927e-08
8.07392e-10
3.37953e-08
7.91992e-10
3.36644e-08
7.76518e-10
3.35345e-08
7.60947e-10
3.34057e-08
7.45256e-10
3.32781e-08
7.29422e-10
3.31518e-08
7.13421e-10
3.30269e-08
6.97229e-10
3.29035e-08
6.80822e-10
3.27819e-08
6.64177e-10
3.26619e-08
6.47269e-10
3.25439e-08
6.30076e-10
3.24279e-08
6.12575e-10
3.23141e-08
5.94745e-10
3.22026e-08
5.76566e-10
3.20934e-08
5.58021e-10
3.19868e-08
5.39093e-10
3.18829e-08
5.19769e-10
3.17819e-08
5.00038e-10
3.16838e-08
4.79893e-10
3.15887e-08
4.59331e-10
3.1497e-08
4.38354e-10
3.14085e-08
4.1697e-10
3.13236e-08
3.95202e-10
3.12422e-08
3.73088e-10
3.11644e-08
3.50696e-10
3.10904e-08
3.28128e-10
3.10202e-08
3.05546e-10
3.09536e-08
2.8318e-10
3.08908e-08
2.61359e-10
3.08315e-08
2.40551e-10
3.07756e-08
2.21444e-10
3.07231e-08
2.0515e-10
3.06746e-08
1.93575e-10
1.87878e-10
3.86475e-08
2.26736e-09
-3.85411e-08
3.8785e-08
2.51941e-09
3.89367e-08
2.71505e-09
3.90919e-08
2.85412e-09
3.92446e-08
2.94355e-09
3.93901e-08
2.98923e-09
3.95245e-08
2.996e-09
3.96452e-08
2.96939e-09
3.97503e-08
2.91584e-09
3.98393e-08
2.84196e-09
3.99121e-08
2.75405e-09
3.99696e-08
2.6578e-09
4.00131e-08
2.55809e-09
4.00443e-08
2.45883e-09
4.00647e-08
2.36288e-09
4.00761e-08
2.27216e-09
4.00798e-08
2.18775e-09
4.00772e-08
2.11008e-09
4.00692e-08
2.03911e-09
4.00567e-08
1.97447e-09
4.00401e-08
1.91564e-09
4.002e-08
1.862e-09
3.99966e-08
1.81294e-09
3.99702e-08
1.76787e-09
3.99408e-08
1.72626e-09
3.99086e-08
1.68765e-09
3.98737e-08
1.65165e-09
3.9836e-08
1.61792e-09
3.97957e-08
1.58619e-09
3.97526e-08
1.55622e-09
3.9707e-08
1.52781e-09
3.96587e-08
1.50079e-09
3.96079e-08
1.47503e-09
3.95546e-08
1.45038e-09
3.94987e-08
1.42676e-09
3.94404e-08
1.40406e-09
3.93797e-08
1.3822e-09
3.93167e-08
1.3611e-09
3.92513e-08
1.3407e-09
3.91836e-08
1.32094e-09
3.91138e-08
1.30176e-09
3.90418e-08
1.28311e-09
3.89677e-08
1.26494e-09
3.88916e-08
1.24722e-09
3.88135e-08
1.2299e-09
3.87335e-08
1.21295e-09
3.86517e-08
1.19633e-09
3.85682e-08
1.18002e-09
3.84829e-08
1.16398e-09
3.8396e-08
1.14818e-09
3.83076e-08
1.13261e-09
3.82176e-08
1.11723e-09
3.81263e-08
1.10202e-09
3.80337e-08
1.08695e-09
3.79398e-08
1.07201e-09
3.78447e-08
1.05717e-09
3.77486e-08
1.0424e-09
3.76515e-08
1.02769e-09
3.75534e-08
1.01302e-09
3.74546e-08
9.98354e-10
3.73549e-08
9.83681e-10
3.72547e-08
9.68976e-10
3.71538e-08
9.54216e-10
3.70525e-08
9.39378e-10
3.69508e-08
9.24439e-10
3.68488e-08
9.09375e-10
3.67466e-08
8.94163e-10
3.66444e-08
8.78777e-10
3.65421e-08
8.63192e-10
3.644e-08
8.47383e-10
3.63381e-08
8.31324e-10
3.62365e-08
8.14989e-10
3.61354e-08
7.98351e-10
3.60349e-08
7.81383e-10
3.5935e-08
7.64059e-10
3.58359e-08
7.46352e-10
3.57377e-08
7.28236e-10
3.56406e-08
7.09686e-10
3.55447e-08
6.90678e-10
3.54501e-08
6.71191e-10
3.53569e-08
6.51203e-10
3.52653e-08
6.30697e-10
3.51754e-08
6.09657e-10
3.50874e-08
5.88074e-10
3.50013e-08
5.65938e-10
3.49174e-08
5.43249e-10
3.48357e-08
5.20011e-10
3.47565e-08
4.9624e-10
3.46797e-08
4.71965e-10
3.46056e-08
4.4724e-10
3.45341e-08
4.22147e-10
3.44654e-08
3.96813e-10
3.43995e-08
3.71425e-10
3.43365e-08
3.46245e-10
3.42762e-08
3.21635e-10
3.42187e-08
2.98085e-10
3.41638e-08
2.76271e-10
3.41119e-08
2.57129e-10
3.40637e-08
2.41768e-10
2.28657e-10
3.94127e-08
2.17252e-09
-3.93179e-08
3.95349e-08
2.39717e-09
3.9672e-08
2.57799e-09
3.98144e-08
2.71173e-09
3.99561e-08
2.8018e-09
4.00929e-08
2.8525e-09
4.0221e-08
2.86786e-09
4.03379e-08
2.85253e-09
4.04418e-08
2.81192e-09
4.0532e-08
2.75174e-09
4.06085e-08
2.67753e-09
4.0672e-08
2.59437e-09
4.07234e-08
2.50669e-09
4.07641e-08
2.4181e-09
4.07956e-08
2.33136e-09
4.08194e-08
2.24841e-09
4.08367e-08
2.17045e-09
4.08487e-08
2.09808e-09
4.08564e-08
2.03144e-09
4.08605e-08
1.97038e-09
4.08615e-08
1.91455e-09
4.08601e-08
1.86348e-09
4.08563e-08
1.81668e-09
4.08505e-08
1.77366e-09
4.08428e-08
1.73396e-09
4.08333e-08
1.69718e-09
4.0822e-08
1.66295e-09
4.0809e-08
1.63097e-09
4.07942e-08
1.60098e-09
4.07776e-08
1.57274e-09
4.07594e-08
1.54607e-09
4.07394e-08
1.5208e-09
4.07176e-08
1.49679e-09
4.06941e-08
1.47391e-09
4.06688e-08
1.45205e-09
4.06418e-08
1.43112e-09
4.06129e-08
1.41104e-09
4.05823e-08
1.39172e-09
4.05499e-08
1.3731e-09
4.05157e-08
1.35511e-09
4.04798e-08
1.33769e-09
4.04421e-08
1.3208e-09
4.04027e-08
1.30438e-09
4.03615e-08
1.28839e-09
4.03186e-08
1.27279e-09
4.0274e-08
1.25754e-09
4.02277e-08
1.24261e-09
4.01798e-08
1.22795e-09
4.01302e-08
1.21354e-09
4.0079e-08
1.19935e-09
4.00263e-08
1.18535e-09
3.9972e-08
1.1715e-09
3.99163e-08
1.15779e-09
3.9859e-08
1.14419e-09
3.98004e-08
1.13067e-09
3.97403e-08
1.11721e-09
3.96789e-08
1.10378e-09
3.96163e-08
1.09035e-09
3.95524e-08
1.07691e-09
3.94873e-08
1.06343e-09
3.94211e-08
1.04988e-09
3.93538e-08
1.03624e-09
3.92856e-08
1.02249e-09
3.92164e-08
1.00859e-09
3.91463e-08
9.94525e-10
3.90754e-08
9.80267e-10
3.90038e-08
9.65788e-10
3.89315e-08
9.51061e-10
3.88586e-08
9.36057e-10
3.87852e-08
9.20748e-10
3.87115e-08
9.05104e-10
3.86374e-08
8.89097e-10
3.8563e-08
8.72696e-10
3.84885e-08
8.55871e-10
3.8414e-08
8.38593e-10
3.83395e-08
8.20832e-10
3.82652e-08
8.02558e-10
3.81911e-08
7.83744e-10
3.81174e-08
7.64363e-10
3.80442e-08
7.44388e-10
3.79717e-08
7.23799e-10
3.78998e-08
7.02574e-10
3.78287e-08
6.80697e-10
3.77587e-08
6.58155e-10
3.76897e-08
6.34941e-10
3.76218e-08
6.11055e-10
3.75554e-08
5.86504e-10
3.74903e-08
5.61308e-10
3.74267e-08
5.35506e-10
3.73648e-08
5.0916e-10
3.73046e-08
4.82367e-10
3.72461e-08
4.55273e-10
3.71895e-08
4.28082e-10
3.71347e-08
4.01079e-10
3.70816e-08
3.74642e-10
3.70305e-08
3.49264e-10
3.69812e-08
3.25573e-10
3.6934e-08
3.04298e-10
3.68899e-08
2.8584e-10
2.66927e-10
4.01859e-08
2.08668e-09
-4.01001e-08
4.02956e-08
2.28748e-09
4.04198e-08
2.4538e-09
4.05504e-08
2.5811e-09
4.06818e-08
2.67039e-09
4.08098e-08
2.72449e-09
4.0931e-08
2.74665e-09
4.10429e-08
2.74068e-09
4.11437e-08
2.71111e-09
4.12326e-08
2.66282e-09
4.13095e-08
2.60066e-09
4.13747e-08
2.52912e-09
4.14292e-08
2.45221e-09
4.1474e-08
2.37326e-09
4.15105e-08
2.29489e-09
4.15399e-08
2.21903e-09
4.15634e-08
2.14694e-09
4.15821e-08
2.07936e-09
4.1597e-08
2.01659e-09
4.16087e-08
1.95866e-09
4.16179e-08
1.90535e-09
4.1625e-08
1.85636e-09
4.16304e-08
1.81129e-09
4.16343e-08
1.76975e-09
4.16369e-08
1.73137e-09
4.16383e-08
1.69579e-09
4.16385e-08
1.66268e-09
4.16377e-08
1.63178e-09
4.16359e-08
1.60283e-09
4.1633e-08
1.57563e-09
4.16291e-08
1.54999e-09
4.16241e-08
1.52576e-09
4.16181e-08
1.5028e-09
4.1611e-08
1.48098e-09
4.16029e-08
1.4602e-09
4.15936e-08
1.44037e-09
4.15833e-08
1.42139e-09
4.15718e-08
1.4032e-09
4.15592e-08
1.38571e-09
4.15454e-08
1.36888e-09
4.15304e-08
1.35264e-09
4.15143e-08
1.33694e-09
4.1497e-08
1.32172e-09
4.14784e-08
1.30694e-09
4.14586e-08
1.29257e-09
4.14376e-08
1.27855e-09
4.14154e-08
1.26485e-09
4.13919e-08
1.25143e-09
4.13672e-08
1.23827e-09
4.13412e-08
1.22532e-09
4.1314e-08
1.21256e-09
4.12856e-08
1.19996e-09
4.12559e-08
1.18748e-09
4.12249e-08
1.17511e-09
4.11928e-08
1.16281e-09
4.11595e-08
1.15055e-09
4.11249e-08
1.13831e-09
4.10892e-08
1.12605e-09
4.10524e-08
1.11377e-09
4.10144e-08
1.10141e-09
4.09753e-08
1.08897e-09
4.09351e-08
1.07641e-09
4.08939e-08
1.06371e-09
4.08517e-08
1.05083e-09
4.08085e-08
1.03774e-09
4.07643e-08
1.02443e-09
4.07192e-08
1.01085e-09
4.06733e-08
9.96975e-10
4.06266e-08
9.82779e-10
4.05791e-08
9.68227e-10
4.05309e-08
9.53287e-10
4.04821e-08
9.37927e-10
4.04327e-08
9.22113e-10
4.03828e-08
9.05811e-10
4.03324e-08
8.8899e-10
4.02816e-08
8.71616e-10
4.02305e-08
8.53656e-10
4.01791e-08
8.35079e-10
4.01276e-08
8.15856e-10
4.00761e-08
7.95959e-10
4.00245e-08
7.75362e-10
3.9973e-08
7.54042e-10
3.99218e-08
7.31982e-10
3.98707e-08
7.09168e-10
3.98201e-08
6.85591e-10
3.97699e-08
6.61253e-10
3.97202e-08
6.36163e-10
3.96712e-08
6.10345e-10
3.96229e-08
5.83845e-10
3.95753e-08
5.56731e-10
3.95285e-08
5.29113e-10
3.94827e-08
5.01147e-10
3.94377e-08
4.73051e-10
3.93937e-08
4.45119e-10
3.93506e-08
4.17734e-10
3.93085e-08
3.91376e-10
3.92674e-08
3.66607e-10
3.92278e-08
3.43957e-10
3.91903e-08
3.23328e-10
3.00737e-10
4.09677e-08
2.00807e-09
-4.08891e-08
4.1067e-08
2.18819e-09
4.118e-08
2.34081e-09
4.13e-08
2.4611e-09
4.14218e-08
2.54854e-09
4.15415e-08
2.60477e-09
4.1656e-08
2.63223e-09
4.17626e-08
2.63403e-09
4.18598e-08
2.61392e-09
4.19466e-08
2.57603e-09
4.20227e-08
2.52456e-09
4.20883e-08
2.46348e-09
4.21442e-08
2.39638e-09
4.21911e-08
2.32632e-09
4.22302e-08
2.25576e-09
4.22627e-08
2.18658e-09
4.22896e-08
2.12008e-09
4.23118e-08
2.05709e-09
4.23304e-08
1.99805e-09
4.23459e-08
1.94311e-09
4.23591e-08
1.8922e-09
4.23703e-08
1.84512e-09
4.238e-08
1.80161e-09
4.23884e-08
1.76135e-09
4.23957e-08
1.72404e-09
4.24021e-08
1.68937e-09
4.24077e-08
1.65707e-09
4.24126e-08
1.6269e-09
4.24168e-08
1.59863e-09
4.24204e-08
1.57208e-09
4.24233e-08
1.54706e-09
4.24256e-08
1.52343e-09
4.24274e-08
1.50107e-09
4.24285e-08
1.47986e-09
4.2429e-08
1.45968e-09
4.24289e-08
1.44046e-09
4.24282e-08
1.42211e-09
4.24268e-08
1.40455e-09
4.24248e-08
1.38772e-09
4.24222e-08
1.37155e-09
4.24188e-08
1.35598e-09
4.24148e-08
1.34097e-09
4.241e-08
1.32647e-09
4.24046e-08
1.31242e-09
4.23983e-08
1.29879e-09
4.23914e-08
1.28552e-09
4.23836e-08
1.2726e-09
4.23751e-08
1.25997e-09
4.23657e-08
1.24761e-09
4.23556e-08
1.23548e-09
4.23446e-08
1.22355e-09
4.23327e-08
1.21179e-09
4.23201e-08
1.20017e-09
4.23065e-08
1.18865e-09
4.22921e-08
1.17721e-09
4.22768e-08
1.16582e-09
4.22607e-08
1.15446e-09
4.22437e-08
1.14308e-09
4.22257e-08
1.13167e-09
4.2207e-08
1.1202e-09
4.21873e-08
1.10863e-09
4.21668e-08
1.09694e-09
4.21454e-08
1.0851e-09
4.21231e-08
1.07307e-09
4.21e-08
1.06083e-09
4.20761e-08
1.04834e-09
4.20514e-08
1.03558e-09
4.20259e-08
1.0225e-09
4.19996e-08
1.00908e-09
4.19725e-08
9.95283e-10
4.19447e-08
9.81069e-10
4.19162e-08
9.66407e-10
4.18871e-08
9.5126e-10
4.18573e-08
9.35593e-10
4.18269e-08
9.1937e-10
4.1796e-08
9.02555e-10
4.17645e-08
8.85113e-10
4.17326e-08
8.6701e-10
4.17002e-08
8.48215e-10
4.16675e-08
8.28697e-10
4.16344e-08
8.08427e-10
4.16011e-08
7.87383e-10
4.15675e-08
7.65545e-10
4.15338e-08
7.42896e-10
4.15e-08
7.19431e-10
4.14661e-08
6.95149e-10
4.14322e-08
6.70062e-10
4.13983e-08
6.44198e-10
4.13646e-08
6.17606e-10
4.13309e-08
5.90362e-10
4.12975e-08
5.62581e-10
4.12642e-08
5.34427e-10
4.12311e-08
5.06124e-10
4.11983e-08
4.77968e-10
4.11657e-08
4.50336e-10
4.11333e-08
4.23682e-10
4.11015e-08
3.98503e-10
4.10702e-08
3.75171e-10
4.10402e-08
3.53319e-10
3.29121e-10
4.17588e-08
1.93539e-09
-4.16861e-08
4.18494e-08
2.09759e-09
4.19526e-08
2.23755e-09
4.20631e-08
2.35064e-09
4.21761e-08
2.43549e-09
4.22881e-08
2.49279e-09
4.2396e-08
2.5243e-09
4.24976e-08
2.53249e-09
4.25911e-08
2.52045e-09
4.26754e-08
2.49164e-09
4.27503e-08
2.44966e-09
4.28158e-08
2.39802e-09
4.28723e-08
2.33989e-09
4.29205e-08
2.27807e-09
4.29614e-08
2.21486e-09
4.2996e-08
2.15205e-09
4.30251e-08
2.09096e-09
4.30497e-08
2.03247e-09
4.30706e-08
1.97713e-09
4.30886e-08
1.92518e-09
4.31041e-08
1.87668e-09
4.31177e-08
1.83154e-09
4.31297e-08
1.78958e-09
4.31405e-08
1.75058e-09
4.31502e-08
1.7143e-09
4.31591e-08
1.68048e-09
4.31673e-08
1.6489e-09
4.31748e-08
1.61934e-09
4.31818e-08
1.59161e-09
4.31884e-08
1.56553e-09
4.31945e-08
1.54095e-09
4.32002e-08
1.51773e-09
4.32055e-08
1.49575e-09
4.32105e-08
1.4749e-09
4.32151e-08
1.45508e-09
4.32193e-08
1.4362e-09
4.32232e-08
1.41819e-09
4.32268e-08
1.40098e-09
4.323e-08
1.3845e-09
4.32329e-08
1.36868e-09
4.32354e-08
1.35348e-09
4.32376e-08
1.33883e-09
4.32393e-08
1.3247e-09
4.32407e-08
1.31104e-09
4.32417e-08
1.29781e-09
4.32422e-08
1.28496e-09
4.32424e-08
1.27246e-09
4.32421e-08
1.26027e-09
4.32413e-08
1.24836e-09
4.32401e-08
1.2367e-09
4.32384e-08
1.22525e-09
4.32362e-08
1.21398e-09
4.32335e-08
1.20286e-09
4.32303e-08
1.19186e-09
4.32266e-08
1.18095e-09
4.32223e-08
1.1701e-09
4.32175e-08
1.15929e-09
4.32121e-08
1.14848e-09
4.32061e-08
1.13764e-09
4.31996e-08
1.12675e-09
4.31924e-08
1.11577e-09
4.31847e-08
1.10468e-09
4.31764e-08
1.09343e-09
4.31674e-08
1.08201e-09
4.31579e-08
1.07038e-09
4.31477e-08
1.05851e-09
4.31369e-08
1.04636e-09
4.31255e-08
1.03389e-09
4.31135e-08
1.02108e-09
4.31009e-08
1.00789e-09
4.30877e-08
9.94281e-10
4.30739e-08
9.80214e-10
4.30595e-08
9.65654e-10
4.30445e-08
9.50564e-10
4.3029e-08
9.34905e-10
4.30129e-08
9.18642e-10
4.29963e-08
9.01736e-10
4.29792e-08
8.84154e-10
4.29615e-08
8.6586e-10
4.29434e-08
8.46823e-10
4.29248e-08
8.27014e-10
4.29058e-08
8.06408e-10
4.28863e-08
7.84985e-10
4.28665e-08
7.62728e-10
4.28463e-08
7.39631e-10
4.28258e-08
7.15695e-10
4.28049e-08
6.90934e-10
4.27837e-08
6.65377e-10
4.27622e-08
6.39078e-10
4.27405e-08
6.12117e-10
4.27184e-08
5.84613e-10
4.26961e-08
5.56733e-10
4.26736e-08
5.28701e-10
4.26507e-08
5.00811e-10
4.26276e-08
4.73426e-10
4.26043e-08
4.4697e-10
4.2581e-08
4.21879e-10
4.25577e-08
3.98423e-10
4.25349e-08
3.76167e-10
3.52005e-10
4.25597e-08
1.8677e-09
-4.2492e-08
4.2643e-08
2.01432e-09
4.27378e-08
2.14274e-09
4.28397e-08
2.24871e-09
4.29447e-08
2.33045e-09
4.30495e-08
2.38799e-09
4.31513e-08
2.42251e-09
4.32479e-08
2.43591e-09
4.33376e-08
2.4307e-09
4.34195e-08
2.40978e-09
4.34929e-08
2.37622e-09
4.35579e-08
2.33306e-09
4.36147e-08
2.28313e-09
4.36638e-08
2.22894e-09
4.37061e-08
2.17262e-09
4.37422e-08
2.11589e-09
4.37731e-08
2.06003e-09
4.37996e-08
2.00597e-09
4.38224e-08
1.95432e-09
4.38422e-08
1.90541e-09
4.38595e-08
1.85938e-09
4.38748e-08
1.81625e-09
4.38885e-08
1.77592e-09
4.39008e-08