/*--------------------------------*- C++ -*----------------------------------*\
| =========                 |                                                 |
| \\      /  F ield         | OpenFOAM: The Open Source CFD Toolbox           |
|  \\    /   O peration     | Version:  2.3.0                                 |
|   \\  /    A nd           | Web:      www.OpenFOAM.org                      |
|    \\/     M anipulation  |                                                 |
\*---------------------------------------------------------------------------*/
FoamFile
{
    version     2.0;
    format      ascii;
    class       surfaceScalarField;
    location    "0.45";
    object      phi_0;
}
// * * * * * * * * * * * * * * * * * * * * * * * * * * * * * * * * * * * * * //

dimensions      [0 3 -1 0 0 0 0];

internalField   nonuniform List<scalar> 
2863
(
2.88893e-08
2.77926e-09
-3.16685e-08
2.54112e-08
3.47812e-09
2.19514e-08
3.45973e-09
1.87419e-08
3.20953e-09
1.58158e-08
2.92612e-09
1.32531e-08
2.56264e-09
1.11514e-08
2.10174e-09
9.52704e-09
1.62436e-09
8.34323e-09
1.1838e-09
7.51357e-09
8.29668e-10
6.93861e-09
5.74957e-10
6.53295e-09
4.05663e-10
6.23358e-09
2.99366e-10
5.99725e-09
2.36325e-10
5.7953e-09
2.01956e-10
5.61129e-09
1.84011e-10
5.43772e-09
1.73572e-10
5.27226e-09
1.65452e-10
5.11497e-09
1.57295e-10
4.96655e-09
1.48418e-10
4.82761e-09
1.38942e-10
4.69834e-09
1.29266e-10
4.57854e-09
1.19805e-10
4.46767e-09
1.10865e-10
4.36504e-09
1.02631e-10
4.26987e-09
9.51714e-11
4.18138e-09
8.849e-11
4.09881e-09
8.25737e-11
4.02145e-09
7.73594e-11
3.94869e-09
7.27533e-11
3.88003e-09
6.86642e-11
3.81503e-09
6.50008e-11
3.75332e-09
6.17048e-11
3.69459e-09
5.87367e-11
3.63855e-09
5.60338e-11
3.585e-09
5.35523e-11
3.53375e-09
5.12541e-11
3.48464e-09
4.91061e-11
3.43755e-09
4.70927e-11
3.39235e-09
4.52033e-11
3.34891e-09
4.34329e-11
3.30714e-09
4.17683e-11
3.26697e-09
4.01722e-11
3.22832e-09
3.86478e-11
3.19111e-09
3.72135e-11
3.15526e-09
3.58516e-11
3.1207e-09
3.45558e-11
3.0874e-09
3.33072e-11
3.05531e-09
3.20847e-11
3.02441e-09
3.09e-11
2.99464e-09
2.97754e-11
2.96596e-09
2.86719e-11
2.93836e-09
2.76048e-11
2.91177e-09
2.65892e-11
2.88616e-09
2.56055e-11
2.86155e-09
2.46098e-11
2.83791e-09
2.36397e-11
2.81523e-09
2.26871e-11
2.79349e-09
2.17404e-11
2.7727e-09
2.07913e-11
2.75282e-09
1.98779e-11
2.73384e-09
1.89768e-11
2.71573e-09
1.81067e-11
2.69849e-09
1.72415e-11
2.68211e-09
1.63829e-11
2.66662e-09
1.54927e-11
2.65201e-09
1.46108e-11
2.63828e-09
1.37287e-11
2.62539e-09
1.2888e-11
2.61333e-09
1.2063e-11
2.60206e-09
1.12675e-11
2.5916e-09
1.04628e-11
2.58193e-09
9.67113e-12
2.57306e-09
8.86599e-12
2.56497e-09
8.09046e-12
2.55764e-09
7.32631e-12
2.55103e-09
6.60948e-12
2.54512e-09
5.91323e-12
2.53985e-09
5.26569e-12
2.53522e-09
4.63434e-12
2.53118e-09
4.03879e-12
2.52771e-09
3.46757e-12
2.52478e-09
2.93068e-12
2.52235e-09
2.43751e-12
2.52036e-09
1.98575e-12
2.51875e-09
1.6075e-12
2.51749e-09
1.26169e-12
2.51648e-09
1.01332e-12
2.5157e-09
7.81807e-13
2.51502e-09
6.70644e-13
2.51448e-09
5.46011e-13
2.5139e-09
5.79456e-13
2.51334e-09
5.57576e-13
2.51261e-09
7.33256e-13
2.51183e-09
7.82459e-13
2.51075e-09
1.07391e-12
2.50961e-09
1.14137e-12
2.50812e-09
1.48997e-12
2.50662e-09
1.50067e-12
1.96534e-12
3.63146e-08
2.48936e-09
-3.60247e-08
3.61385e-08
3.65422e-09
3.54211e-08
4.17721e-09
3.44177e-08
4.21288e-09
3.32412e-08
4.10266e-09
3.19113e-08
3.89249e-09
3.04516e-08
3.56143e-09
2.894e-08
3.13602e-09
2.74534e-08
2.67035e-09
2.60483e-08
2.23477e-09
2.47497e-08
1.87361e-09
2.35598e-08
1.59551e-09
2.24771e-08
1.38213e-09
2.15001e-08
1.21327e-09
2.06196e-08
1.08251e-09
1.98249e-08
9.7869e-10
1.91058e-08
8.92679e-10
1.84528e-08
8.18396e-10
1.78578e-08
7.52301e-10
1.73137e-08
6.92515e-10
1.68146e-08
6.38106e-10
1.63552e-08
5.88608e-10
1.59313e-08
5.43757e-10
1.55388e-08
5.0331e-10
1.51745e-08
4.66988e-10
1.48352e-08
4.34447e-10
1.45183e-08
4.05337e-10
1.42216e-08
3.79361e-10
1.39427e-08
3.56181e-10
1.36801e-08
3.35432e-10
1.34319e-08
3.16776e-10
1.31971e-08
2.99898e-10
1.29742e-08
2.84572e-10
1.27623e-08
2.70627e-10
1.25605e-08
2.57852e-10
1.23679e-08
2.46084e-10
1.2184e-08
2.35177e-10
1.20081e-08
2.2501e-10
1.18397e-08
2.15514e-10
1.16783e-08
2.06631e-10
1.15234e-08
1.98308e-10
1.13747e-08
1.90479e-10
1.12318e-08
1.83041e-10
1.10945e-08
1.75988e-10
1.09624e-08
1.69335e-10
1.08352e-08
1.63014e-10
1.07128e-08
1.56993e-10
1.05948e-08
1.51218e-10
1.04813e-08
1.45634e-10
1.03719e-08
1.40251e-10
1.02666e-08
1.351e-10
1.01652e-08
1.30089e-10
1.00676e-08
1.25247e-10
9.97356e-09
1.20588e-10
9.88311e-09
1.16057e-10
9.79616e-09
1.11555e-10
9.71264e-09
1.07164e-10
9.63247e-09
1.02853e-10
9.55562e-09
9.85967e-11
9.48204e-09
9.43716e-11
9.41165e-09
9.02613e-11
9.34443e-09
8.6202e-11
9.28029e-09
8.22394e-11
9.21923e-09
7.8302e-11
9.16122e-09
7.44007e-11
9.10626e-09
7.0445e-11
9.05433e-09
6.65395e-11
9.00541e-09
6.26542e-11
8.9594e-09
5.88954e-11
8.91628e-09
5.51873e-11
8.87597e-09
5.1578e-11
8.83846e-09
4.79654e-11
8.80371e-09
4.44267e-11
8.77169e-09
4.08865e-11
8.7423e-09
3.74754e-11
8.7155e-09
3.41257e-11
8.69116e-09
3.09568e-11
8.6692e-09
2.78719e-11
8.64948e-09
2.4983e-11
8.63194e-09
2.21723e-11
8.61643e-09
1.95497e-11
8.60287e-09
1.7033e-11
8.59107e-09
1.47263e-11
8.58093e-09
1.25772e-11
8.57224e-09
1.06767e-11
8.56485e-09
8.99913e-12
8.55854e-09
7.56968e-12
8.55315e-09
6.408e-12
8.54845e-09
5.47485e-12
8.54429e-09
4.83827e-12
8.54045e-09
4.37638e-12
8.53678e-09
4.25231e-12
8.53312e-09
4.2162e-12
8.52933e-09
4.53073e-12
8.52532e-09
4.79243e-12
8.521e-09
5.39175e-12
8.51636e-09
5.77905e-12
8.51141e-09
6.44415e-12
8.50614e-09
6.77014e-12
7.51967e-12
4.0365e-08
2.37478e-09
-4.02504e-08
4.07805e-08
3.23871e-09
4.10345e-08
3.9232e-09
4.10962e-08
4.15122e-09
4.10417e-08
4.15715e-09
4.08663e-08
4.06785e-09
4.05334e-08
3.89434e-09
4.00426e-08
3.62679e-09
3.94241e-08
3.28887e-09
3.87223e-08
2.93659e-09
3.79752e-08
2.6207e-09
3.72076e-08
2.36315e-09
3.64325e-08
2.15723e-09
3.56569e-08
1.98881e-09
3.48896e-08
1.84989e-09
3.41357e-08
1.73258e-09
3.33985e-08
1.62989e-09
3.268e-08
1.53689e-09
3.19817e-08
1.4506e-09
3.13047e-08
1.36948e-09
3.065e-08
1.29285e-09
3.00181e-08
1.22046e-09
2.94096e-08
1.15227e-09
2.88246e-08
1.08825e-09
2.82632e-08
1.02839e-09
2.77251e-08
9.72552e-10
2.72099e-08
9.20598e-10
2.67168e-08
8.72413e-10
2.62452e-08
8.27797e-10
2.57941e-08
7.86503e-10
2.53627e-08
7.48254e-10
2.49498e-08
7.12741e-10
2.45546e-08
6.79745e-10
2.41762e-08
6.49103e-10
2.38135e-08
6.20572e-10
2.34656e-08
5.93957e-10
2.31317e-08
5.69051e-10
2.28111e-08
5.45663e-10
2.25029e-08
5.2368e-10
2.22065e-08
5.03019e-10
2.19212e-08
4.83587e-10
2.16464e-08
4.65247e-10
2.13817e-08
4.47808e-10
2.11264e-08
4.31237e-10
2.08802e-08
4.15545e-10
2.06426e-08
4.00606e-10
2.04133e-08
3.86337e-10
2.01919e-08
3.72636e-10
1.99781e-08
3.59419e-10
1.97717e-08
3.46663e-10
1.95724e-08
3.34393e-10
1.938e-08
3.22467e-10
1.91943e-08
3.10937e-10
1.90151e-08
2.99779e-10
1.88423e-08
2.88901e-10
1.86757e-08
2.78146e-10
1.85152e-08
2.67643e-10
1.83607e-08
2.57316e-10
1.82122e-08
2.47132e-10
1.80695e-08
2.37038e-10
1.79326e-08
2.27166e-10
1.78014e-08
2.17406e-10
1.76758e-08
2.07842e-10
1.75558e-08
1.9834e-10
1.74413e-08
1.88926e-10
1.73323e-08
1.79433e-10
1.72288e-08
1.70054e-10
1.71307e-08
1.60722e-10
1.7038e-08
1.51639e-10
1.69505e-08
1.42651e-10
1.68682e-08
1.33877e-10
1.6791e-08
1.25107e-10
1.6719e-08
1.16524e-10
1.66519e-08
1.07953e-10
1.65897e-08
9.96869e-11
1.65323e-08
9.15385e-11
1.64794e-08
8.38087e-11
1.6431e-08
7.62337e-11
1.63869e-08
6.91321e-11
1.63469e-08
6.2174e-11
1.63107e-08
5.57183e-11
1.62783e-08
4.94469e-11
1.62493e-08
4.37631e-11
1.62235e-08
3.8341e-11
1.62006e-08
3.36211e-11
1.61803e-08
2.92444e-11
1.61623e-08
2.56288e-11
1.61463e-08
2.23874e-11
1.61318e-08
1.99334e-11
1.61188e-08
1.78272e-11
1.61067e-08
1.64937e-11
1.60955e-08
1.54616e-11
1.60846e-08
1.51411e-11
1.60741e-08
1.49782e-11
1.60635e-08
1.54044e-11
1.60532e-08
1.57633e-11
1.60424e-08
1.65644e-11
1.60317e-08
1.70647e-11
1.60207e-08
1.77902e-11
1.83956e-11
4.48461e-08
2.33197e-09
-4.48033e-08
4.51506e-08
2.93414e-09
4.55399e-08
3.53393e-09
4.5839e-08
3.8521e-09
4.60659e-08
3.93028e-09
4.62472e-08
3.88659e-09
4.63605e-08
3.781e-09
4.63785e-08
3.60877e-09
4.6291e-08
3.37641e-09
4.61121e-08
3.11544e-09
4.58684e-08
2.86444e-09
4.55812e-08
2.65033e-09
4.5262e-08
2.47643e-09
4.49156e-08
2.33518e-09
4.4548e-08
2.21756e-09
4.41638e-08
2.11672e-09
4.37663e-08
2.02742e-09
4.33573e-08
1.94584e-09
4.29385e-08
1.86946e-09
4.25111e-08
1.79683e-09
4.20768e-08
1.72722e-09
4.16369e-08
1.66035e-09
4.1193e-08
1.59614e-09
4.07466e-08
1.53462e-09
4.02992e-08
1.47582e-09
3.9852e-08
1.41972e-09
3.94064e-08
1.36627e-09
3.89633e-08
1.31547e-09
3.85239e-08
1.26722e-09
3.8089e-08
1.22144e-09
3.76592e-08
1.17798e-09
3.72353e-08
1.13667e-09
3.68176e-08
1.0974e-09
3.64066e-08
1.0601e-09
3.60027e-08
1.02456e-09
3.5606e-08
9.90645e-10
3.52168e-08
9.58195e-10
3.48354e-08
9.27067e-10
3.44619e-08
8.97183e-10
3.40964e-08
8.68529e-10
3.37389e-08
8.4109e-10
3.33894e-08
8.1475e-10
3.30479e-08
7.89313e-10
3.27144e-08
7.64778e-10
3.23887e-08
7.41154e-10
3.2071e-08
7.18317e-10
3.17612e-08
6.96217e-10
3.14591e-08
6.74725e-10
3.11647e-08
6.53768e-10
3.0878e-08
6.33345e-10
3.0599e-08
6.13479e-10
3.03274e-08
5.94001e-10
3.00633e-08
5.75046e-10
2.98066e-08
5.56539e-10
2.95571e-08
5.38317e-10
2.93151e-08
5.20194e-10
2.90803e-08
5.02392e-10
2.88529e-08
4.84787e-10
2.86326e-08
4.67362e-10
2.84196e-08
4.50028e-10
2.82138e-08
4.32963e-10
2.80153e-08
4.15984e-10
2.78238e-08
3.99266e-10
2.76396e-08
3.8258e-10
2.74625e-08
3.66011e-10
2.72927e-08
3.49266e-10
2.71301e-08
3.32684e-10
2.69747e-08
3.16098e-10
2.68264e-08
2.99893e-10
2.66853e-08
2.83751e-10
2.65512e-08
2.67965e-10
2.64243e-08
2.52099e-10
2.63042e-08
2.36579e-10
2.61912e-08
2.20983e-10
2.60849e-08
2.0595e-10
2.59855e-08
1.9098e-10
2.58925e-08
1.76792e-10
2.5806e-08
1.62706e-10
2.57256e-08
1.49538e-10
2.56513e-08
1.36427e-10
2.55827e-08
1.24355e-10
2.55198e-08
1.1236e-10
2.54619e-08
1.01615e-10
2.54093e-08
9.10138e-11
2.5361e-08
8.19304e-11
2.53172e-08
7.30311e-11
2.52769e-08
6.58551e-11
2.52405e-08
5.88097e-11
2.52068e-08
5.36601e-11
2.51762e-08
4.84582e-11
2.51474e-08
4.52967e-11
2.5121e-08
4.18411e-11
2.50956e-08
4.0514e-11
2.50721e-08
3.84902e-11
2.50489e-08
3.85801e-11
2.50272e-08
3.74974e-11
2.50054e-08
3.83608e-11
2.49847e-08
3.77363e-11
2.49639e-08
3.86167e-11
3.82156e-11
4.98105e-08
2.28216e-09
-4.97607e-08
5.00137e-08
2.73091e-09
5.03552e-08
3.19246e-09
5.0682e-08
3.52522e-09
5.09488e-08
3.66348e-09
5.11724e-08
3.66301e-09
5.13649e-08
3.58852e-09
5.15101e-08
3.46353e-09
5.1591e-08
3.2955e-09
5.16063e-08
3.10022e-09
5.15695e-08
2.90124e-09
5.14992e-08
2.72058e-09
5.14064e-08
2.56921e-09
5.12955e-08
2.44612e-09
5.11695e-08
2.34356e-09
5.1031e-08
2.25522e-09
5.08816e-08
2.17683e-09
5.07219e-08
2.1055e-09
5.05522e-08
2.03922e-09
5.03723e-08
1.9767e-09
5.01823e-08
1.91718e-09
4.99824e-08
1.86023e-09
4.97729e-08
1.80565e-09
4.95542e-08
1.75333e-09
4.93268e-08
1.70325e-09
4.90912e-08
1.65534e-09
4.88479e-08
1.60954e-09
4.85976e-08
1.56581e-09
4.83408e-08
1.52399e-09
4.80782e-08
1.48401e-09
4.78105e-08
1.44575e-09
4.75381e-08
1.40906e-09
4.72616e-08
1.3739e-09
4.69814e-08
1.34024e-09
4.66981e-08
1.30791e-09
4.64119e-08
1.27682e-09
4.61233e-08
1.24675e-09
4.58329e-08
1.21756e-09
4.55409e-08
1.1891e-09
4.52481e-08
1.16135e-09
4.49549e-08
1.13433e-09
4.46616e-08
1.10802e-09
4.43687e-08
1.08225e-09
4.40763e-08
1.05716e-09
4.37847e-08
1.03274e-09
4.34943e-08
1.00878e-09
4.32053e-08
9.85191e-10
4.29182e-08
9.61767e-10
4.26336e-08
9.3844e-10
4.23516e-08
9.1532e-10
4.20725e-08
8.92525e-10
4.17967e-08
8.69889e-10
4.1524e-08
8.4768e-10
4.12548e-08
8.25756e-10
4.09893e-08
8.03816e-10
4.0728e-08
7.81545e-10
4.04711e-08
7.59294e-10
4.02189e-08
7.36905e-10
3.99718e-08
7.14526e-10
3.97297e-08
6.92086e-10
3.94928e-08
6.6989e-10
3.92612e-08
6.47544e-10
3.90352e-08
6.25322e-10
3.8815e-08
6.02749e-10
3.86009e-08
5.80096e-10
3.83933e-08
5.56908e-10
3.8192e-08
5.33909e-10
3.79974e-08
5.10695e-10
3.78093e-08
4.88001e-10
3.7628e-08
4.65069e-10
3.74534e-08
4.42563e-10
3.7286e-08
4.19561e-10
3.71255e-08
3.97064e-10
3.69724e-08
3.74111e-10
3.68262e-08
3.52099e-10
3.66874e-08
3.298e-10
3.65554e-08
3.08811e-10
3.64306e-08
2.87503e-10
3.63123e-08
2.67757e-10
3.62012e-08
2.47532e-10
3.60964e-08
2.29159e-10
3.59985e-08
2.10263e-10
3.59065e-08
1.9367e-10
3.58209e-08
1.76564e-10
3.57406e-08
1.62306e-10
3.56662e-08
1.47436e-10
3.55961e-08
1.35858e-10
3.55315e-08
1.23411e-10
3.54705e-08
1.1468e-10
3.54143e-08
1.04639e-10
3.53609e-08
9.87376e-11
3.53117e-08
9.10374e-11
3.52644e-08
8.78149e-11
3.52208e-08
8.21377e-11
3.51783e-08
8.10712e-11
3.51389e-08
7.68786e-11
3.51001e-08
7.7121e-11
3.5064e-08
7.38193e-11
3.50282e-08
7.44785e-11
7.16182e-11
5.52715e-08
2.22069e-09
-5.521e-08
5.5426e-08
2.57642e-09
5.56949e-08
2.9235e-09
5.5994e-08
3.22615e-09
5.626e-08
3.39746e-09
5.64801e-08
3.44295e-09
5.66665e-08
3.40211e-09
5.68199e-08
3.31014e-09
5.69309e-08
3.18451e-09
5.69947e-08
3.03636e-09
5.70171e-08
2.8789e-09
5.70107e-08
2.72695e-09
5.69875e-08
2.59237e-09
5.69541e-08
2.47953e-09
5.69134e-08
2.38432e-09
5.6867e-08
2.30157e-09
5.68163e-08
2.22758e-09
5.67617e-08
2.16004e-09
5.67035e-08
2.09746e-09
5.66413e-08
2.03887e-09
5.65749e-08
1.9836e-09
5.65039e-08
1.93121e-09
5.64281e-08
1.88146e-09
5.63473e-08
1.83414e-09
5.62614e-08
1.78918e-09
5.61702e-08
1.74651e-09
5.60738e-08
1.706e-09
5.5972e-08
1.66759e-09
5.58649e-08
1.63108e-09
5.57525e-08
1.59633e-09
5.56351e-08
1.56322e-09
5.55126e-08
1.53155e-09
5.53852e-08
1.50132e-09
5.52529e-08
1.47253e-09
5.51158e-08
1.44502e-09
5.49738e-08
1.41875e-09
5.48271e-08
1.39349e-09
5.46756e-08
1.36905e-09
5.45195e-08
1.34522e-09
5.4359e-08
1.32185e-09
5.41944e-08
1.29893e-09
5.4026e-08
1.27642e-09
5.38541e-08
1.25418e-09
5.36787e-08
1.23247e-09
5.35001e-08
1.21138e-09
5.33181e-08
1.19072e-09
5.3133e-08
1.17038e-09
5.29448e-08
1.14997e-09
5.2754e-08
1.12922e-09
5.25611e-08
1.10815e-09
5.23668e-08
1.08691e-09
5.21712e-08
1.06543e-09
5.19746e-08
1.04433e-09
5.17767e-08
1.02362e-09
5.15775e-08
1.00303e-09
5.13772e-08
9.81803e-10
5.11764e-08
9.60107e-10
5.09759e-08
9.37377e-10
5.07765e-08
9.14007e-10
5.05784e-08
8.90106e-10
5.03817e-08
8.66679e-10
5.0186e-08
8.4324e-10
4.99911e-08
8.20221e-10
4.97976e-08
7.96231e-10
4.96062e-08
7.71497e-10
4.9418e-08
7.45048e-10
4.92333e-08
7.18608e-10
4.90524e-08
6.91669e-10
4.88745e-08
6.65893e-10
4.87e-08
6.39566e-10
4.85287e-08
6.13831e-10
4.83617e-08
5.86557e-10
4.8199e-08
5.59754e-10
4.80416e-08
5.31488e-10
4.78891e-08
5.04676e-10
4.7742e-08
4.76865e-10
4.75995e-08
4.51268e-10
4.74625e-08
4.24521e-10
4.733e-08
4.00281e-10
4.72032e-08
3.74342e-10
4.70811e-08
3.51266e-10
4.69651e-08
3.26235e-10
4.68539e-08
3.04891e-10
4.67489e-08
2.816e-10
4.66481e-08
2.63047e-10
4.65532e-08
2.42351e-10
4.64619e-08
2.27144e-10
4.63761e-08
2.09227e-10
4.62934e-08
1.97401e-10
4.6216e-08
1.82066e-10
4.61412e-08
1.73477e-10
4.60715e-08
1.60706e-10
4.60041e-08
1.55291e-10
4.59413e-08
1.44935e-10
4.58801e-08
1.42269e-10
4.58231e-08
1.33839e-10
4.57672e-08
1.33084e-10
4.57152e-08
1.25801e-10
4.56636e-08
1.26065e-10
1.19489e-10
6.12846e-08
2.15615e-09
-6.12201e-08
6.14143e-08
2.4467e-09
6.16183e-08
2.71954e-09
6.18729e-08
2.97157e-09
6.21192e-08
3.15119e-09
6.23317e-08
3.23037e-09
6.25068e-08
3.22706e-09
6.26487e-08
3.16823e-09
6.27574e-08
3.07579e-09
6.28307e-08
2.96305e-09
6.28703e-08
2.83936e-09
6.28831e-08
2.71415e-09
6.28789e-08
2.59658e-09
6.28658e-08
2.4926e-09
6.28477e-08
2.40241e-09
6.28264e-08
2.32284e-09
6.28031e-08
2.25094e-09
6.27784e-08
2.18472e-09
6.27529e-08
2.12299e-09
6.27267e-08
2.06508e-09
6.26997e-08
2.01053e-09
6.26719e-08
1.95899e-09
6.26432e-08
1.91024e-09
6.26132e-08
1.86409e-09
6.2582e-08
1.82044e-09
6.25493e-08
1.7792e-09
6.2515e-08
1.74026e-09
6.24791e-08
1.70354e-09
6.24413e-08
1.66885e-09
6.24016e-08
1.63602e-09
6.23599e-08
1.60491e-09
6.23162e-08
1.5753e-09
6.22703e-08
1.54719e-09
6.22222e-08
1.5206e-09
6.21719e-08
1.49537e-09
6.21191e-08
1.47156e-09
6.20636e-08
1.44894e-09
6.20054e-08
1.42731e-09
6.19442e-08
1.4064e-09
6.188e-08
1.38604e-09
6.18128e-08
1.36608e-09
6.17428e-08
1.34646e-09
6.167e-08
1.32702e-09
6.15944e-08
1.30806e-09
6.1516e-08
1.28975e-09
6.14347e-08
1.27203e-09
6.13502e-08
1.25488e-09
6.12623e-08
1.23783e-09
6.11711e-08
1.22044e-09
6.10768e-08
1.20242e-09
6.09799e-08
1.18387e-09
6.08808e-08
1.16456e-09
6.07796e-08
1.14546e-09
6.06764e-08
1.12681e-09
6.05706e-08
1.10886e-09
6.04618e-08
1.09061e-09
6.03498e-08
1.0721e-09
6.02353e-08
1.05188e-09
6.0119e-08
1.0303e-09
6.00021e-08
1.00697e-09
5.9885e-08
9.83856e-10
5.97674e-08
9.60808e-10
5.96481e-08
9.39558e-10
5.95265e-08
9.17805e-10
5.94026e-08
8.95404e-10
5.92782e-08
8.69433e-10
5.91544e-08
8.4238e-10
5.90325e-08
8.13605e-10
5.89114e-08
7.86989e-10
5.87908e-08
7.6013e-10
5.86696e-08
7.3508e-10
5.85486e-08
7.07577e-10
5.84278e-08
6.80509e-10
5.83091e-08
6.50183e-10
5.81923e-08
6.21518e-10
5.80785e-08
5.90586e-10
5.79668e-08
5.63056e-10
5.78578e-08
5.33511e-10
5.775e-08
5.08046e-10
5.76448e-08
4.79554e-10
5.75408e-08
4.55212e-10
5.74402e-08
4.26829e-10
5.73418e-08
4.03379e-10
5.72476e-08
3.75774e-10
5.71558e-08
3.54782e-10
5.70684e-08
3.29771e-10
5.69829e-08
3.12682e-10
5.69011e-08
2.91027e-10
5.68206e-08
2.77897e-10
5.67436e-08
2.59018e-10
5.6668e-08
2.49093e-10
5.65962e-08
2.32551e-10
5.65259e-08
2.25581e-10
5.64595e-08
2.1134e-10
5.63945e-08
2.07262e-10
5.63333e-08
1.95075e-10
5.62729e-08
1.9346e-10
5.62162e-08
1.82471e-10
5.61598e-08
1.82505e-10
1.72391e-10
6.79148e-08
2.09469e-09
-6.78533e-08
6.80241e-08
2.33745e-09
6.81827e-08
2.56093e-09
6.83868e-08
2.76747e-09
6.86012e-08
2.9368e-09
6.87973e-08
3.03424e-09
6.8961e-08
3.06333e-09
6.90912e-08
3.03802e-09
6.91912e-08
2.97579e-09
6.92631e-08
2.89113e-09
6.93084e-08
2.79415e-09
6.93303e-08
2.69223e-09
6.93351e-08
2.59176e-09
6.93299e-08
2.49781e-09
6.93195e-08
2.41283e-09
6.9306e-08
2.33626e-09
6.92907e-08
2.26628e-09
6.92742e-08
2.20126e-09
6.9257e-08
2.14016e-09
6.92396e-08
2.08245e-09
6.92223e-08
2.02782e-09
6.92052e-08
1.97608e-09
6.91884e-08
1.92711e-09
6.91717e-08
1.88076e-09
6.91552e-08
1.83694e-09
6.91388e-08
1.79556e-09
6.91226e-08
1.75653e-09
6.91064e-08
1.71974e-09
6.90902e-08
1.68503e-09
6.90739e-08
1.65226e-09
6.90576e-08
1.62126e-09
6.9041e-08
1.59184e-09
6.90243e-08
1.56396e-09
6.90072e-08
1.53764e-09
6.89899e-08
1.51273e-09
6.89721e-08
1.48932e-09
6.89538e-08
1.46724e-09
6.89348e-08
1.44631e-09
6.8915e-08
1.42622e-09
6.88942e-08
1.40682e-09
6.88724e-08
1.38787e-09
6.88496e-08
1.36932e-09
6.88256e-08
1.35096e-09
6.88006e-08
1.33309e-09
6.87745e-08
1.31582e-09
6.87473e-08
1.29922e-09
6.87188e-08
1.2834e-09
6.86887e-08
1.26796e-09
6.86567e-08
1.25243e-09
6.86229e-08
1.23622e-09
6.85874e-08
1.21942e-09
6.85504e-08
1.20149e-09
6.85123e-08
1.18357e-09
6.84733e-08
1.1658e-09
6.84329e-08
1.14926e-09
6.83907e-08
1.13285e-09
6.83459e-08
1.11688e-09
6.82987e-08
1.09903e-09
6.82493e-08
1.07974e-09
6.81987e-08
1.0576e-09
6.81475e-08
1.03504e-09
6.80965e-08
1.01178e-09
6.80446e-08
9.91453e-10
6.79907e-08
9.71673e-10
6.79334e-08
9.52784e-10
6.78734e-08
9.29374e-10
6.78121e-08
9.03743e-10
6.77515e-08
8.74188e-10
6.76915e-08
8.46991e-10
6.76318e-08
8.19791e-10
6.75706e-08
7.96321e-10
6.75077e-08
7.70414e-10
6.74427e-08
7.45504e-10
6.73772e-08
7.15701e-10
6.73113e-08
6.87434e-10
6.72467e-08
6.5523e-10
6.71825e-08
6.27187e-10
6.71198e-08
5.96228e-10
6.70568e-08
5.71051e-10
6.69943e-08
5.42086e-10
6.69306e-08
5.18913e-10
6.68673e-08
4.90077e-10
6.68036e-08
4.67122e-10
6.67416e-08
4.37792e-10
6.66803e-08
4.16003e-10
6.66216e-08
3.88481e-10
6.65639e-08
3.70388e-10
6.65082e-08
3.46758e-10
6.64528e-08
3.33332e-10
6.63985e-08
3.13293e-10
6.63443e-08
3.03324e-10
6.62911e-08
2.85661e-10
6.62386e-08
2.78158e-10
6.61876e-08
2.62324e-10
6.61375e-08
2.57326e-10
6.60895e-08
2.4311e-10
6.60421e-08
2.40833e-10
6.5997e-08
2.27605e-10
6.59519e-08
2.27562e-10
2.151e-10
6.76204e-08
2.04813e-09
-6.75738e-08
6.76997e-08
2.25813e-09
6.78125e-08
2.44811e-09
6.79562e-08
2.62379e-09
6.81162e-08
2.77681e-09
6.82701e-08
2.88037e-09
6.84043e-08
2.92914e-09
6.85129e-08
2.92932e-09
6.85965e-08
2.89219e-09
6.86576e-08
2.83009e-09
6.86985e-08
2.75326e-09
6.87217e-08
2.66897e-09
6.8731e-08
2.58251e-09
6.87307e-08
2.49805e-09
6.87251e-08
2.41849e-09
6.87165e-08
2.34484e-09
6.87062e-08
2.27662e-09
6.86947e-08
2.21277e-09
6.86824e-08
2.15239e-09
6.86699e-08
2.09501e-09
6.86572e-08
2.04044e-09
6.86448e-08
1.98855e-09
6.86326e-08
1.9393e-09
6.86207e-08
1.89261e-09
6.86093e-08
1.84841e-09
6.85982e-08
1.80662e-09
6.85876e-08
1.76716e-09
6.85774e-08
1.72994e-09
6.85676e-08
1.6948e-09
6.85582e-08
1.66162e-09
6.85493e-08
1.63022e-09
6.85407e-08
1.60045e-09
6.85324e-08
1.57226e-09
6.85244e-08
1.54565e-09
6.85166e-08
1.52045e-09
6.85092e-08
1.49677e-09
6.8502e-08
1.4744e-09
6.8495e-08
1.45329e-09
6.84882e-08
1.43306e-09
6.84814e-08
1.41364e-09
6.84745e-08
1.39472e-09
6.84676e-08
1.37629e-09
6.84604e-08
1.3581e-09
6.84531e-08
1.34044e-09
6.84456e-08
1.32332e-09
6.8438e-08
1.30682e-09
6.84302e-08
1.29114e-09
6.84222e-08
1.27595e-09
6.84137e-08
1.26092e-09
6.84048e-08
1.24522e-09
6.83951e-08
1.22909e-09
6.83848e-08
1.21177e-09
6.8374e-08
1.19442e-09
6.8363e-08
1.17676e-09
6.83517e-08
1.16051e-09
6.83401e-08
1.14448e-09
6.83276e-08
1.1294e-09
6.83141e-08
1.11251e-09
6.82993e-08
1.09461e-09
6.82834e-08
1.07343e-09
6.82669e-08
1.05154e-09
6.82507e-08
1.02797e-09
6.82347e-08
1.00752e-09
6.82183e-08
9.88017e-10
6.82002e-08
9.70952e-10
6.818e-08
9.4955e-10
6.8158e-08
9.25719e-10
6.81358e-08
8.96346e-10
6.8114e-08
8.68844e-10
6.80927e-08
8.41043e-10
6.80709e-08
8.18168e-10
6.8048e-08
7.93302e-10
6.80233e-08
7.70248e-10
6.79973e-08
7.41624e-10
6.79703e-08
7.14463e-10
6.79434e-08
6.82139e-10
6.79164e-08
6.54159e-10
6.78902e-08
6.22452e-10
6.78637e-08
5.97521e-10
6.78373e-08
5.68493e-10
6.78097e-08
5.46577e-10
6.77813e-08
5.18408e-10
6.77517e-08
4.96776e-10
6.77219e-08
4.67575e-10
6.7692e-08
4.45914e-10
6.76629e-08
4.17525e-10
6.76347e-08
3.98652e-10
6.76074e-08
3.74085e-10
6.75806e-08
3.60096e-10
6.75539e-08
3.39968e-10
6.75273e-08
3.29983e-10
6.75001e-08
3.12824e-10
6.74729e-08
3.05316e-10
6.74455e-08
2.89793e-10
6.74183e-08
2.8453e-10
6.73915e-08
2.69907e-10
6.73649e-08
2.67374e-10
6.73394e-08
2.53119e-10
6.73138e-08
2.53215e-10
2.391e-10
8.54426e-08
2.00026e-09
-8.53948e-08
8.55165e-08
2.18423e-09
8.56173e-08
2.34737e-09
8.57425e-08
2.49858e-09
8.5886e-08
2.63329e-09
8.60264e-08
2.73994e-09
8.61532e-08
2.80232e-09
8.62588e-08
2.82378e-09
8.63408e-08
2.81018e-09
8.6401e-08
2.76988e-09
8.64426e-08
2.71163e-09
8.64688e-08
2.64282e-09
8.64824e-08
2.5689e-09
8.64867e-08
2.49378e-09
8.64848e-08
2.4203e-09
8.64794e-08
2.35023e-09
8.64719e-08
2.28418e-09
8.64628e-08
2.22186e-09
8.64525e-08
2.16265e-09
8.64415e-08
2.10604e-09
8.64301e-08
2.05187e-09
8.64186e-08
2.00006e-09
8.64072e-08
1.95063e-09
8.63962e-08
1.90362e-09
8.63856e-08
1.85904e-09
8.63754e-08
1.8168e-09
8.63657e-08
1.77688e-09
8.63565e-08
1.73917e-09
8.63477e-08
1.70354e-09
8.63395e-08
1.66987e-09
8.63317e-08
1.63799e-09
8.63244e-08
1.6078e-09
8.63174e-08
1.57917e-09
8.6311e-08
1.55214e-09
8.63049e-08
1.52654e-09
8.62992e-08
1.50242e-09
8.6294e-08
1.47958e-09
8.62893e-08
1.45802e-09
8.6285e-08
1.43734e-09
8.62811e-08
1.4176e-09
8.62774e-08
1.39839e-09
8.62739e-08
1.37979e-09
8.62705e-08
1.36151e-09
8.62671e-08
1.3438e-09
8.62639e-08
1.32657e-09
8.62608e-08
1.3099e-09
8.6258e-08
1.29397e-09
8.62555e-08
1.27845e-09
8.62531e-08
1.2633e-09
8.62508e-08
1.24747e-09
8.62484e-08
1.23154e-09
8.62456e-08
1.21454e-09
8.62424e-08
1.19766e-09
8.62392e-08
1.17997e-09
8.6236e-08
1.16365e-09
8.62332e-08
1.14727e-09
8.62306e-08
1.13208e-09
8.62279e-08
1.11514e-09
8.62247e-08
1.09785e-09
8.62207e-08
1.07737e-09
8.62159e-08
1.05637e-09
8.62109e-08
1.033e-09
8.62061e-08
1.01229e-09
8.62021e-08
9.92004e-10
8.61981e-08
9.74975e-10
8.61933e-08
9.54336e-10
8.6187e-08
9.32013e-10
8.61797e-08
9.03665e-10
8.6172e-08
8.76558e-10
8.61646e-08
8.4839e-10
8.61576e-08
8.25262e-10
8.61504e-08
8.0045e-10
8.61425e-08
7.78187e-10
8.61336e-08
7.50488e-10
8.61236e-08
7.24454e-10
8.61131e-08
6.92624e-10
8.61022e-08
6.65066e-10
8.60917e-08
6.33017e-10
8.60811e-08
6.08075e-10
8.60708e-08
5.78786e-10
8.60599e-08
5.5748e-10
8.60483e-08
5.29987e-10
8.60355e-08
5.09582e-10
8.60217e-08
4.81395e-10
8.60073e-08
4.60307e-10
8.59927e-08
4.32161e-10
8.59788e-08
4.12558e-10
8.59654e-08
3.87495e-10
8.59532e-08
3.72215e-10
8.59412e-08
3.5201e-10
8.59299e-08
3.41255e-10
8.59177e-08
3.2503e-10
8.59056e-08
3.1747e-10
8.5892e-08
3.03309e-10
8.58782e-08
2.98358e-10
8.58638e-08
2.84373e-10
8.58489e-08
2.82235e-10
8.58345e-08
2.67504e-10
8.58198e-08
2.67917e-10
2.52255e-10
1.07982e-07
1.96048e-09
-1.07942e-07
1.08041e-07
2.12587e-09
1.08117e-07
2.27055e-09
1.08211e-07
2.40517e-09
1.08318e-07
2.52593e-09
1.08426e-07
2.63196e-09
1.08525e-07
2.70306e-09
1.08611e-07
2.73857e-09
1.08678e-07
2.74229e-09
1.08729e-07
2.71934e-09
1.08764e-07
2.67613e-09
1.08788e-07
2.61926e-09
1.08802e-07
2.55452e-09
1.0881e-07
2.48637e-09
1.08812e-07
2.41801e-09
1.08811e-07
2.35141e-09
1.08807e-07
2.28765e-09
1.08802e-07
2.22695e-09
1.08796e-07
2.16907e-09
1.08789e-07
2.11352e-09
1.0878e-07
2.06007e-09
1.08772e-07
2.00859e-09
1.08763e-07
1.95919e-09
1.08755e-07
1.91199e-09
1.08747e-07
1.86711e-09
1.08739e-07
1.82455e-09
1.08732e-07
1.78431e-09
1.08725e-07
1.74621e-09
1.08718e-07
1.71021e-09
1.08712e-07
1.67614e-09
1.08706e-07
1.64389e-09
1.087e-07
1.6134e-09
1.08695e-07
1.58446e-09
1.0869e-07
1.55709e-09
1.08685e-07
1.53114e-09
1.08681e-07
1.50667e-09
1.08677e-07
1.48341e-09
1.08674e-07
1.46147e-09
1.08671e-07
1.44035e-09
1.08668e-07
1.42026e-09
1.08666e-07
1.40068e-09
1.08664e-07
1.38188e-09
1.08662e-07
1.36354e-09
1.0866e-07
1.34582e-09
1.08658e-07
1.32848e-09
1.08656e-07
1.31163e-09
1.08655e-07
1.29537e-09
1.08654e-07
1.27938e-09
1.08653e-07
1.26393e-09
1.08653e-07
1.24776e-09
1.08653e-07
1.2318e-09
1.08652e-07
1.21497e-09
1.08651e-07
1.19855e-09
1.0865e-07
1.181e-09
1.08649e-07
1.16473e-09
1.08648e-07
1.14791e-09
1.08648e-07
1.13208e-09
1.08649e-07
1.11446e-09
1.0865e-07
1.09707e-09
1.0865e-07
1.07696e-09
1.0865e-07
1.05693e-09
1.08648e-07
1.03449e-09
1.08646e-07
1.01408e-09
1.08646e-07
9.92893e-10
1.08646e-07
9.74581e-10
1.08647e-07
9.53191e-10
1.08648e-07
9.31401e-10
1.08647e-07
9.04504e-10
1.08645e-07
8.78739e-10
1.08642e-07
8.51135e-10
1.0864e-07
8.27598e-10
1.08638e-07
8.02084e-10
1.08637e-07
7.79326e-10
1.08636e-07
7.51685e-10
1.08634e-07
7.26241e-10
1.08631e-07
6.95072e-10
1.08628e-07
6.68267e-10
1.08625e-07
6.36444e-10
1.08621e-07
6.116e-10
1.08618e-07
5.81999e-10
1.08615e-07
5.60577e-10
1.08612e-07
5.33162e-10
1.08608e-07
5.13222e-10
1.08604e-07
4.86024e-10
1.08598e-07
4.65617e-10
1.08592e-07
4.38472e-10
1.08586e-07
4.18601e-10
1.0858e-07
3.93553e-10
1.08575e-07
3.76761e-10
1.08571e-07
3.56086e-10
1.08569e-07
3.4375e-10
1.08566e-07
3.27803e-10
1.08564e-07
3.19774e-10
1.0856e-07
3.06888e-10
1.08556e-07
3.0275e-10
1.0855e-07
2.89782e-10
1.08543e-07
2.89065e-10
1.08537e-07
2.74002e-10
1.08529e-07
2.75567e-10
2.58175e-10
1.36516e-07
-1.36502e-07
1.36538e-07
1.36568e-07
1.36604e-07
1.36647e-07
1.36692e-07
1.36734e-07
1.36772e-07
1.36803e-07
1.36828e-07
1.36845e-07
1.36858e-07
1.36866e-07
1.36872e-07
1.36875e-07
1.36876e-07
1.36877e-07
1.36876e-07
1.36875e-07
1.36874e-07
1.36872e-07
1.36869e-07
1.36866e-07
1.36864e-07
1.36861e-07
1.36859e-07
1.36857e-07
1.36855e-07
1.36853e-07
1.36851e-07
1.36849e-07
1.36847e-07
1.36846e-07
1.36844e-07
1.36843e-07
1.36841e-07
1.3684e-07
1.36839e-07
1.36839e-07
1.36838e-07
1.36838e-07
1.36837e-07
1.36837e-07
1.36837e-07
1.36836e-07
1.36836e-07
1.36836e-07
1.36836e-07
1.36836e-07
1.36837e-07
1.36838e-07
1.36838e-07
1.36838e-07
1.36838e-07
1.36838e-07
1.36838e-07
1.36839e-07
1.3684e-07
1.36842e-07
1.36843e-07
1.36843e-07
1.36843e-07
1.36843e-07
1.36843e-07
1.36844e-07
1.36846e-07
1.36848e-07
1.36849e-07
1.36848e-07
1.36848e-07
1.36847e-07
1.36847e-07
1.36848e-07
1.36849e-07
1.36849e-07
1.3685e-07
1.3685e-07
1.36849e-07
1.36849e-07
1.36848e-07
1.36848e-07
1.36848e-07
1.36848e-07
1.36847e-07
1.36846e-07
1.36844e-07
1.36841e-07
1.36839e-07
1.36838e-07
1.36837e-07
1.36838e-07
1.36839e-07
1.36841e-07
1.36841e-07
1.36841e-07
1.3684e-07
1.36837e-07
1.36834e-07
1.3683e-07
3.44473e-08
8.81597e-11
3.44492e-08
-6.20312e-11
3.44458e-08
7.38234e-11
3.44491e-08
-5.85907e-11
3.4442e-08
6.85703e-11
3.44404e-08
-4.5905e-11
3.44288e-08
6.82898e-11
3.44228e-08
-3.29439e-11
3.4406e-08
7.06094e-11
3.43946e-08
-1.34066e-11
3.43703e-08
8.12184e-11
3.43533e-08
1.44171e-11
3.43194e-08
9.77353e-11
3.42906e-08
4.78679e-11
3.42446e-08
1.19665e-10
3.42007e-08
9.27371e-11
3.41377e-08
1.52507e-10
3.40728e-08
1.53937e-10
3.39859e-08
1.99859e-10
3.38892e-08
2.38754e-10
3.37607e-08
2.76167e-10
3.3586e-08
3.90404e-10
3.33146e-08
4.84907e-10
3.27396e-08
9.52787e-10
1.57486e-09
3.80435e-08
9.33382e-11
3.80445e-08
-6.30179e-11
3.80403e-08
7.80773e-11
3.80398e-08
-5.81322e-11
3.80337e-08
7.46368e-11
3.80274e-08
-3.96049e-11
3.80199e-08
7.57877e-11
3.80063e-08
-1.934e-11
3.79969e-08
8.00791e-11
3.79732e-08
1.02362e-11
3.79604e-08
9.40842e-11
3.79246e-08
5.01375e-11
3.79061e-08
1.16237e-10
3.78534e-08
1.00599e-10
3.78263e-08
1.46727e-10
3.77509e-08
1.68172e-10
3.77115e-08
1.91894e-10
3.76045e-08
2.60976e-10
3.75457e-08
2.5862e-10
3.73901e-08
3.94377e-10
3.72861e-08
3.80191e-10
3.70271e-08
6.49337e-10
3.67647e-08
7.47334e-10
3.63234e-08
1.39414e-09
1.87349e-09
4.20233e-08
7.92094e-11
4.20021e-08
-4.1813e-11
4.20192e-08
6.09386e-11
4.19956e-08
-3.45221e-11
4.20122e-08
5.80467e-11
4.1982e-08
-9.35639e-12
4.19963e-08
6.14446e-11
4.1959e-08
1.80048e-11
4.19694e-08
6.96386e-11
4.19238e-08
5.58176e-11
4.19277e-08
9.02135e-11
4.18723e-08
1.05564e-10
4.18652e-08
1.23287e-10
4.17981e-08
1.6777e-10
4.1773e-08
1.71765e-10
4.16926e-08
2.4863e-10
4.16399e-08
2.44556e-10
4.15435e-08
3.57379e-10
4.14462e-08
3.55874e-10
4.13223e-08
5.18282e-10
4.11377e-08
5.64829e-10
4.09491e-08
8.37935e-10
4.06305e-08
1.06592e-09
4.04439e-08
1.58077e-09
2.06696e-09
4.64055e-08