/*--------------------------------*- C++ -*----------------------------------*\
| =========                 |                                                 |
| \\      /  F ield         | OpenFOAM: The Open Source CFD Toolbox           |
|  \\    /   O peration     | Version:  2.3.0                                 |
|   \\  /    A nd           | Web:      www.OpenFOAM.org                      |
|    \\/     M anipulation  |                                                 |
\*---------------------------------------------------------------------------*/
FoamFile
{
    version     2.0;
    format      ascii;
    class       volVectorField;
    location    "0.3";
    object      U;
}
// * * * * * * * * * * * * * * * * * * * * * * * * * * * * * * * * * * * * * //

dimensions      [0 1 -1 0 0 0 0];

internalField   nonuniform List<vector> 
3375
(
(0.175716 0.00437052 0)
(0.155261 0.0059682 0)
(0.13669 0.00612285 0)
(0.118544 0.00552729 0)
(0.101007 0.00472297 0)
(0.0849521 0.00383237 0)
(0.0714411 0.0028659 0)
(0.0608726 0.00184933 0)
(0.0530387 0.000965326 0)
(0.047392 0.000365188 0)
(0.0433667 4.45971e-05 0)
(0.0404956 -8.50222e-05 0)
(0.0383998 -0.000107194 0)
(0.0367927 -7.98682e-05 0)
(0.0354731 -3.6267e-05 0)
(0.0343183 5.44145e-06 0)
(0.0332618 3.74809e-05 0)
(0.0322702 5.83335e-05 0)
(0.0313301 6.93177e-05 0)
(0.0304402 7.29185e-05 0)
(0.0296034 7.19506e-05 0)
(0.028821 6.87743e-05 0)
(0.0280913 6.48299e-05 0)
(0.0274102 6.07686e-05 0)
(0.0267736 5.68394e-05 0)
(0.0261777 5.31303e-05 0)
(0.0256191 4.96541e-05 0)
(0.0250949 4.63886e-05 0)
(0.0246026 4.33294e-05 0)
(0.0241397 4.05125e-05 0)
(0.0237039 3.79775e-05 0)
(0.0232924 3.57248e-05 0)
(0.022903 3.37029e-05 0)
(0.0225339 3.18431e-05 0)
(0.0221837 3.01042e-05 0)
(0.0218512 2.84654e-05 0)
(0.0215354 2.69018e-05 0)
(0.0212356 2.54037e-05 0)
(0.020951 2.398e-05 0)
(0.0206808 2.2633e-05 0)
(0.0204245 2.13494e-05 0)
(0.0201815 2.01125e-05 0)
(0.0199513 1.89082e-05 0)
(0.0197335 1.77377e-05 0)
(0.0195279 1.66178e-05 0)
(0.0193339 1.55685e-05 0)
(0.019151 1.45918e-05 0)
(0.0189787 1.36748e-05 0)
(0.0188167 1.2801e-05 0)
(0.0186647 1.19623e-05 0)
(0.0185225 1.11478e-05 0)
(0.0183898 1.03524e-05 0)
(0.0182666 9.57156e-06 0)
(0.0181527 8.79908e-06 0)
(0.0180481 8.02582e-06 0)
(0.0179528 7.25513e-06 0)
(0.0178666 6.48477e-06 0)
(0.0177896 5.70719e-06 0)
(0.0177216 4.91579e-06 0)
(0.0176627 4.11777e-06 0)
(0.0176127 3.30742e-06 0)
(0.0175714 2.49588e-06 0)
(0.0175388 1.73102e-06 0)
(0.0175147 1.05483e-06 0)
(0.0174989 4.58308e-07 0)
(0.0174909 -5.65035e-08 0)
(0.0174905 -8.3404e-07 0)
(0.0174966 -1.37367e-06 0)
(0.0175085 -1.91524e-06 0)
(0.0175249 -2.30854e-06 0)
(0.0175447 -2.59868e-06 0)
(0.0175665 -2.74575e-06 0)
(0.0175894 -2.77208e-06 0)
(0.0176122 -2.67272e-06 0)
(0.0176343 -2.51743e-06 0)
(0.0176552 -2.31796e-06 0)
(0.0176747 -2.11269e-06 0)
(0.0176927 -1.90681e-06 0)
(0.0177094 -1.72764e-06 0)
(0.0177247 -1.56196e-06 0)
(0.0177391 -1.42848e-06 0)
(0.0177524 -1.30356e-06 0)
(0.017765 -1.20546e-06 0)
(0.0177767 -1.10237e-06 0)
(0.0177878 -1.02339e-06 0)
(0.0177981 -9.35788e-07 0)
(0.0178079 -8.69506e-07 0)
(0.017817 -7.91267e-07 0)
(0.0178255 -7.34816e-07 0)
(0.0178334 -6.6581e-07 0)
(0.0178408 -6.14852e-07 0)
(0.0178476 -5.55126e-07 0)
(0.0178538 -5.0928e-07 0)
(0.0178597 -4.60553e-07 0)
(0.0178647 -4.16048e-07 0)
(0.0178698 -3.78017e-07 0)
(0.0178736 -3.31494e-07 0)
(0.0178782 -3.10582e-07 0)
(0.0178807 -2.59631e-07 0)
(0.0178855 -2.81596e-07 0)
(0.190933 0.00774711 0)
(0.189208 0.010836 0)
(0.186757 0.0118891 0)
(0.182921 0.0117242 0)
(0.177446 0.0110904 0)
(0.170553 0.0101909 0)
(0.162886 0.00902298 0)
(0.154956 0.00759427 0)
(0.147154 0.00607044 0)
(0.139697 0.00466683 0)
(0.132697 0.00351377 0)
(0.126243 0.00263893 0)
(0.120381 0.00201231 0)
(0.115128 0.0015858 0)
(0.110441 0.00130341 0)
(0.106251 0.0011163 0)
(0.102487 0.000989522 0)
(0.0990823 0.000898851 0)
(0.0959812 0.000826753 0)
(0.0931383 0.00076258 0)
(0.0905198 0.0007028 0)
(0.0880991 0.000647843 0)
(0.0858532 0.000598414 0)
(0.0837621 0.000554262 0)
(0.0818093 0.000514637 0)
(0.0799811 0.000478774 0)
(0.0782661 0.000446022 0)
(0.0766544 0.000415909 0)
(0.0751372 0.000388208 0)
(0.0737069 0.000362894 0)
(0.072356 0.00033994 0)
(0.0710779 0.000319173 0)
(0.0698669 0.000300246 0)
(0.068718 0.000282768 0)
(0.0676273 0.000266476 0)
(0.0665914 0.000251211 0)
(0.0656073 0.000236818 0)
(0.0646723 0.000223192 0)
(0.0637841 0.000210298 0)
(0.0629404 0.000198095 0)
(0.0621392 0.000186503 0)
(0.0613787 0.000175435 0)
(0.0606573 0.000164815 0)
(0.0599736 0.000154616 0)
(0.0593264 0.000144862 0)
(0.0587144 0.00013559 0)
(0.0581364 0.000126781 0)
(0.0575912 0.000118368 0)
(0.057078 0.000110278 0)
(0.056596 0.000102467 0)
(0.0561447 9.48895e-05 0)
(0.0557235 8.75178e-05 0)
(0.055332 8.03322e-05 0)
(0.0549698 7.33097e-05 0)
(0.0546367 6.64193e-05 0)
(0.0543321 5.96749e-05 0)
(0.0540561 5.3077e-05 0)
(0.053808 4.66135e-05 0)
(0.0535876 4.02815e-05 0)
(0.0533945 3.41216e-05 0)
(0.0532281 2.8125e-05 0)
(0.0530877 2.22967e-05 0)
(0.0529727 1.67105e-05 0)
(0.052882 1.15023e-05 0)
(0.0528145 6.72311e-06 0)
(0.0527683 2.42595e-06 0)
(0.0527421 -1.68066e-06 0)
(0.052733 -5.53577e-06 0)
(0.0527387 -8.60665e-06 0)
(0.0527558 -1.06458e-05 0)
(0.0527818 -1.19794e-05 0)
(0.0528135 -1.26345e-05 0)
(0.0528489 -1.27265e-05 0)
(0.0528854 -1.23077e-05 0)
(0.0529219 -1.16722e-05 0)
(0.052957 -1.08701e-05 0)
(0.0529908 -1.00444e-05 0)
(0.0530224 -9.22157e-06 0)
(0.0530526 -8.49923e-06 0)
(0.0530809 -7.83268e-06 0)
(0.0531081 -7.28561e-06 0)
(0.0531338 -6.77067e-06 0)
(0.0531589 -6.35311e-06 0)
(0.0531826 -5.91515e-06 0)
(0.0532057 -5.55805e-06 0)
(0.0532276 -5.16219e-06 0)
(0.0532488 -4.84123e-06 0)
(0.0532688 -4.46739e-06 0)
(0.0532879 -4.17438e-06 0)
(0.053306 -3.82281e-06 0)
(0.0533229 -3.54786e-06 0)
(0.0533391 -3.22124e-06 0)
(0.0533535 -2.96908e-06 0)
(0.0533678 -2.67499e-06 0)
(0.0533795 -2.44139e-06 0)
(0.0533924 -2.17728e-06 0)
(0.0534011 -1.96742e-06 0)
(0.0534131 -1.74105e-06 0)
(0.0534181 -1.59387e-06 0)
(0.0534309 -1.46764e-06 0)
(0.192027 0.00745058 0)
(0.192463 0.0100822 0)
(0.193547 0.0116528 0)
(0.19462 0.0121557 0)
(0.195041 0.012053 0)
(0.194503 0.0116061 0)
(0.193027 0.0108532 0)
(0.190752 0.00982325 0)
(0.187853 0.008631 0)
(0.184496 0.00744441 0)
(0.180815 0.00639437 0)
(0.176949 0.00553249 0)
(0.173012 0.00484571 0)
(0.169101 0.00429903 0)
(0.165259 0.00385399 0)
(0.161511 0.00348159 0)
(0.157873 0.00316492 0)
(0.15436 0.00289351 0)
(0.150979 0.00265713 0)
(0.14773 0.00244615 0)
(0.144607 0.00225496 0)
(0.141602 0.0020817 0)
(0.138711 0.00192525 0)
(0.135933 0.00178387 0)
(0.133268 0.00165584 0)
(0.130714 0.00153984 0)
(0.128273 0.00143467 0)
(0.125941 0.00133898 0)
(0.123714 0.00125157 0)
(0.121589 0.00117167 0)
(0.119558 0.00109871 0)
(0.117618 0.00103206 0)
(0.115761 0.000970868 0)
(0.113986 0.000914256 0)
(0.112287 0.000861521 0)
(0.110661 0.000812166 0)
(0.109106 0.000765775 0)
(0.10762 0.000722051 0)
(0.1062 0.00068082 0)
(0.104844 0.000641897 0)
(0.103549 0.000605018 0)
(0.102313 0.000569901 0)
(0.101134 0.000536308 0)
(0.100011 0.00050412 0)
(0.0989415 0.000473318 0)
(0.0979243 0.000443916 0)
(0.0969579 0.000415827 0)
(0.096041 0.000388883 0)
(0.0951728 0.00036291 0)
(0.0943524 0.000337796 0)
(0.0935793 0.00031343 0)
(0.0928527 0.000289742 0)
(0.0921724 0.000266677 0)
(0.0915377 0.000244185 0)
(0.0909483 0.0002222 0)
(0.0904036 0.000200747 0)
(0.0899034 0.000179832 0)
(0.089447 0.000159446 0)
(0.0890339 0.000139609 0)
(0.0886633 0.000120431 0)
(0.0883345 0.00010194 0)
(0.0880464 8.41535e-05 0)
(0.087798 6.71414e-05 0)
(0.0875875 5.11151e-05 0)
(0.0874134 3.62091e-05 0)
(0.0872729 2.26403e-05 0)
(0.0871638 1.07023e-05 0)
(0.0870826 1.62245e-07 0)
(0.0870263 -8.27137e-06 0)
(0.0869903 -1.51399e-05 0)
(0.0869712 -1.99132e-05 0)
(0.0869646 -2.27272e-05 0)
(0.0869679 -2.40426e-05 0)
(0.0869773 -2.39897e-05 0)
(0.0869911 -2.32453e-05 0)
(0.087007 -2.20516e-05 0)
(0.0870248 -2.07338e-05 0)
(0.0870428 -1.93726e-05 0)
(0.0870617 -1.8177e-05 0)
(0.0870805 -1.70667e-05 0)
(0.0871002 -1.61732e-05 0)
(0.0871199 -1.53131e-05 0)
(0.0871404 -1.46191e-05 0)
(0.0871609 -1.38587e-05 0)
(0.0871822 -1.32424e-05 0)
(0.0872033 -1.25081e-05 0)
(0.0872248 -1.19043e-05 0)
(0.0872461 -1.11493e-05 0)
(0.0872671 -1.05529e-05 0)
(0.087288 -9.78494e-06 0)
(0.0873078 -9.1907e-06 0)
(0.0873279 -8.41935e-06 0)
(0.0873456 -7.85198e-06 0)
(0.0873648 -7.09461e-06 0)
(0.0873797 -6.57126e-06 0)
(0.087398 -5.8191e-06 0)
(0.0874091 -5.38787e-06 0)
(0.0874273 -4.64252e-06 0)
(0.0874333 -4.40866e-06 0)
(0.0874528 -3.83904e-06 0)
(0.193059 0.00702136 0)
(0.193444 0.00893169 0)
(0.194529 0.0104295 0)
(0.196107 0.0111738 0)
(0.197694 0.0113202 0)
(0.19893 0.0110975 0)
(0.199662 0.010611 0)
(0.199874 0.00990603 0)
(0.199598 0.00905151 0)
(0.198884 0.00815882 0)
(0.197791 0.00733457 0)
(0.1964 0.00663702 0)
(0.194797 0.0060723 0)
(0.193051 0.00561422 0)
(0.191201 0.00523049 0)
(0.189264 0.00489585 0)
(0.187257 0.00459572 0)
(0.185198 0.00432238 0)
(0.183107 0.00407013 0)
(0.180999 0.00383531 0)
(0.178884 0.00361756 0)
(0.176766 0.0034177 0)
(0.174645 0.00323439 0)
(0.172521 0.00306388 0)
(0.170392 0.0029022 0)
(0.168265 0.00274712 0)
(0.166148 0.00259832 0)
(0.164055 0.0024565 0)
(0.161996 0.00232264 0)
(0.159979 0.00219753 0)
(0.158007 0.00208135 0)
(0.15608 0.00197341 0)
(0.154197 0.00187241 0)
(0.152354 0.00177705 0)
(0.150554 0.00168646 0)
(0.148797 0.00160009 0)
(0.147086 0.00151752 0)
(0.145422 0.00143851 0)
(0.143808 0.00136298 0)
(0.142244 0.00129089 0)
(0.140731 0.00122212 0)
(0.139269 0.00115636 0)
(0.137859 0.00109326 0)
(0.1365 0.0010326 0)
(0.135193 0.000974265 0)
(0.133936 0.00091822 0)
(0.132729 0.000864295 0)
(0.131571 0.00081221 0)
(0.130463 0.000761689 0)
(0.129404 0.000712575 0)
(0.128394 0.000664723 0)
(0.127435 0.000618048 0)
(0.126526 0.000572488 0)
(0.125668 0.00052798 0)
(0.124861 0.000484432 0)
(0.124105 0.000441878 0)
(0.1234 0.00040035 0)
(0.122745 0.000359842 0)
(0.122141 0.000320386 0)
(0.121586 0.000282162 0)
(0.12108 0.000245251 0)
(0.120622 0.000209713 0)
(0.120211 0.000175703 0)
(0.119846 0.000143611 0)
(0.119525 0.000113676 0)
(0.119245 8.60984e-05 0)
(0.119005 6.1225e-05 0)
(0.1188 3.98915e-05 0)
(0.118629 2.21129e-05 0)
(0.118486 7.20888e-06 0)
(0.118369 -4.18879e-06 0)
(0.118274 -1.2083e-05 0)
(0.118197 -1.71758e-05 0)
(0.118134 -2.03867e-05 0)
(0.118083 -2.19037e-05 0)
(0.11804 -2.21967e-05 0)
(0.118006 -2.19338e-05 0)
(0.117978 -2.13197e-05 0)
(0.117955 -2.07607e-05 0)
(0.117936 -2.01745e-05 0)
(0.117922 -1.98264e-05 0)
(0.117911 -1.945e-05 0)
(0.117905 -1.92644e-05 0)
(0.117901 -1.88526e-05 0)
(0.1179 -1.86167e-05 0)
(0.117903 -1.81102e-05 0)
(0.117908 -1.7775e-05 0)
(0.117915 -1.70822e-05 0)
(0.117925 -1.66193e-05 0)
(0.117936 -1.57478e-05 0)
(0.117948 -1.51703e-05 0)
(0.117963 -1.41436e-05 0)
(0.117976 -1.35145e-05 0)
(0.117993 -1.2361e-05 0)
(0.118005 -1.17364e-05 0)
(0.118024 -1.04505e-05 0)
(0.118034 -9.93005e-06 0)
(0.118055 -8.55207e-06 0)
(0.11806 -8.25981e-06 0)
(0.118083 -7.11805e-06 0)
(0.193919 0.00672177 0)
(0.19427 0.00817904 0)
(0.195122 0.00947332 0)
(0.196443 0.0102711 0)
(0.197955 0.0105376 0)
(0.199362 0.0104209 0)
(0.200496 0.0100552 0)
(0.201312 0.00951446 0)
(0.201822 0.00885395 0)
(0.202043 0.0081471 0)
(0.201999 0.00747334 0)
(0.201733 0.00688753 0)
(0.201304 0.00640813 0)
(0.200761 0.00602285 0)
(0.200131 0.00570579 0)
(0.199419 0.00543231 0)
(0.198632 0.00518599 0)
(0.197774 0.00495713 0)
(0.196855 0.00473958 0)
(0.195884 0.00453107 0)
(0.194873 0.00433378 0)
(0.193827 0.00415153 0)
(0.192747 0.00398587 0)
(0.191631 0.00383465 0)
(0.190469 0.00369315 0)
(0.189256 0.00355614 0)
(0.187993 0.0034197 0)
(0.186687 0.00328213 0)
(0.185351 0.00314446 0)
(0.184 0.00300979 0)
(0.182645 0.00288153 0)
(0.181292 0.00276155 0)
(0.17994 0.00264942 0)
(0.178587 0.00254318 0)
(0.17723 0.00244079 0)
(0.17587 0.00234086 0)
(0.17451 0.0022428 0)
(0.173156 0.00214667 0)
(0.171812 0.00205276 0)
(0.170481 0.00196112 0)
(0.169165 0.00187162 0)
(0.167867 0.00178414 0)
(0.166593 0.00169874 0)
(0.165346 0.00161568 0)
(0.164128 0.00153525 0)
(0.16294 0.00145752 0)
(0.161783 0.00138222 0)
(0.160656 0.00130883 0)
(0.159559 0.00123688 0)
(0.158494 0.00116611 0)
(0.157462 0.00109637 0)
(0.156466 0.00102758 0)
(0.155507 0.00095975 0)
(0.154587 0.000892924 0)
(0.153708 0.000827097 0)
(0.15287 0.000762396 0)
(0.152076 0.000698943 0)
(0.151326 0.000636809 0)
(0.15062 0.000576066 0)
(0.149959 0.000516955 0)
(0.149342 0.000459618 0)
(0.148769 0.000404194 0)
(0.14824 0.000350915 0)
(0.147753 0.000300269 0)
(0.147308 0.000252584 0)
(0.146904 0.000208272 0)
(0.146538 0.000167775 0)
(0.14621 0.000131725 0)
(0.145916 0.000100301 0)
(0.145655 7.40962e-05 0)
(0.145423 5.27604e-05 0)
(0.145218 3.61901e-05 0)
(0.145037 2.37192e-05 0)
(0.144876 1.42995e-05 0)
(0.144735 7.54157e-06 0)
(0.144609 2.92557e-06 0)
(0.144498 -4.48114e-07 0)
(0.144399 -2.86699e-06 0)
(0.144311 -4.95378e-06 0)
(0.144232 -6.63746e-06 0)
(0.144162 -8.36237e-06 0)
(0.1441 -9.78105e-06 0)
(0.144045 -1.13769e-05 0)
(0.143997 -1.27057e-05 0)
(0.143956 -1.41456e-05 0)
(0.14392 -1.50184e-05 0)
(0.143891 -1.6096e-05 0)
(0.143867 -1.65014e-05 0)
(0.143848 -1.72122e-05 0)
(0.143835 -1.71157e-05 0)
(0.143824 -1.74456e-05 0)
(0.143821 -1.68586e-05 0)
(0.143817 -1.69184e-05 0)
(0.143821 -1.58981e-05 0)
(0.143821 -1.57706e-05 0)
(0.143832 -1.43357e-05 0)
(0.143833 -1.41414e-05 0)
(0.14385 -1.24379e-05 0)
(0.143851 -1.22775e-05 0)
(0.143871 -1.07735e-05 0)
(0.194636 0.0064853 0)
(0.194971 0.00766357 0)
(0.195673 0.00875595 0)
(0.196743 0.00952631 0)
(0.198022 0.00986512 0)
(0.199292 0.00983348 0)
(0.200392 0.00955208 0)
(0.201261 0.0091135 0)
(0.201904 0.00857487 0)
(0.202339 0.00798809 0)
(0.202585 0.00741194 0)
(0.20267 0.00689585 0)
(0.202641 0.00646426 0)
(0.202537 0.00611559 0)
(0.202384 0.00583203 0)
(0.202189 0.00559219 0)
(0.201954 0.00537916 0)
(0.20168 0.00518125 0)
(0.201367 0.00499043 0)
(0.201018 0.00480337 0)
(0.200639 0.00462255 0)
(0.200238 0.00445383 0)
(0.199817 0.00430212 0)
(0.199374 0.00416857 0)
(0.198901 0.00404995 0)
(0.198388 0.00393989 0)
(0.197825 0.00383116 0)
(0.197211 0.00371812 0)
(0.196551 0.00359867 0)
(0.195855 0.0034749 0)
(0.195137 0.00335177 0)
(0.194406 0.00323448 0)
(0.193666 0.00312579 0)
(0.192913 0.00302519 0)
(0.192141 0.00293 0)
(0.191346 0.00283688 0)
(0.190527 0.00274344 0)
(0.189689 0.00264935 0)
(0.188836 0.00255565 0)
(0.187972 0.00246325 0)
(0.187098 0.00237188 0)
(0.186212 0.00228043 0)
(0.18532 0.00218821 0)
(0.184428 0.00209584 0)
(0.183542 0.00200484 0)
(0.182666 0.00191639 0)
(0.181801 0.00183064 0)
(0.180944 0.0017469 0)
(0.180097 0.00166434 0)
(0.179259 0.00158241 0)
(0.178433 0.00150074 0)
(0.177619 0.00141915 0)
(0.176819 0.00133754 0)
(0.176037 0.00125596 0)
(0.175275 0.0011745 0)
(0.174535 0.00109348 0)
(0.173821 0.00101324 0)
(0.173134 0.000934072 0)
(0.172476 0.000856214 0)
(0.171846 0.000780021 0)
(0.171248 0.000705716 0)
(0.170679 0.000633526 0)
(0.170141 0.000563718 0)
(0.169633 0.00049685 0)
(0.169156 0.000433344 0)
(0.168709 0.000373676 0)
(0.168292 0.00031832 0)
(0.167904 0.000268166 0)
(0.167545 0.000223635 0)
(0.167212 0.000185101 0)
(0.166907 0.000152204 0)
(0.166626 0.00012487 0)
(0.166368 0.000102471 0)
(0.166132 8.47946e-05 0)
(0.165916 7.06125e-05 0)
(0.165719 5.93589e-05 0)
(0.165539 5.00467e-05 0)
(0.165374 4.24124e-05 0)
(0.165225 3.56373e-05 0)
(0.165087 2.98326e-05 0)
(0.164961 2.43309e-05 0)
(0.164845 1.9587e-05 0)
(0.16474 1.48223e-05 0)
(0.164642 1.06279e-05 0)
(0.164553 6.33253e-06 0)
(0.164473 2.90982e-06 0)
(0.1644 -7.67542e-07 0)
(0.164335 -3.41175e-06 0)
(0.164278 -6.50085e-06 0)
(0.164229 -8.31514e-06 0)
(0.164185 -1.08369e-05 0)
(0.164152 -1.18111e-05 0)
(0.16412 -1.3686e-05 0)
(0.164101 -1.38038e-05 0)
(0.164079 -1.51026e-05 0)
(0.164071 -1.4435e-05 0)
(0.164058 -1.51988e-05 0)
(0.164059 -1.40646e-05 0)
(0.164052 -1.43648e-05 0)
(0.164058 -1.33442e-05 0)
(0.195254 0.00627678 0)
(0.195573 0.00725713 0)
(0.19617 0.00817343 0)
(0.197047 0.00886958 0)
(0.198113 0.00923662 0)
(0.199214 0.00927734 0)
(0.200213 0.00907625 0)
(0.201035 0.00872409 0)
(0.201669 0.00828045 0)
(0.202132 0.00778791 0)
(0.202439 0.00729184 0)
(0.202615 0.00683417 0)
(0.202698 0.00643977 0)
(0.202722 0.00611389 0)
(0.202711 0.00584744 0)
(0.202679 0.00562427 0)
(0.20263 0.00542823 0)
(0.202566 0.00524654 0)
(0.202483 0.00506998 0)
(0.202381 0.0048942 0)
(0.202262 0.00472122 0)
(0.202132 0.00455755 0)
(0.201995 0.00440996 0)
(0.201852 0.00428225 0)
(0.2017 0.00417371 0)
(0.201531 0.00407904 0)
(0.201337 0.00398993 0)
(0.20111 0.00389791 0)
(0.200849 0.00379737 0)
(0.200558 0.00368752 0)
(0.200246 0.0035725 0)
(0.199922 0.00345933 0)
(0.199592 0.0033541 0)
(0.199256 0.00325912 0)
(0.198907 0.00317269 0)
(0.198541 0.00309054 0)
(0.198152 0.00300816 0)
(0.197741 0.00292327 0)
(0.197311 0.0028367 0)
(0.196866 0.00275075 0)
(0.196406 0.00266642 0)
(0.195927 0.00258202 0)
(0.195429 0.00249477 0)
(0.194915 0.00240385 0)
(0.194395 0.00231124 0)
(0.193873 0.00221989 0)
(0.193351 0.00213141 0)
(0.192829 0.00204548 0)
(0.192305 0.00196095 0)
(0.191778 0.00187691 0)
(0.191249 0.00179281 0)
(0.190718 0.00170827 0)
(0.190185 0.00162292 0)
(0.189652 0.00153653 0)
(0.189121 0.00144904 0)
(0.188595 0.00136076 0)
(0.188075 0.00127217 0)
(0.187566 0.00118383 0)
(0.187068 0.00109624 0)
(0.186583 0.00101 0)
(0.186113 0.000925438 0)
(0.185657 0.000842932 0)
(0.185216 0.000762807 0)
(0.184791 0.00068562 0)
(0.184382 0.000611731 0)
(0.183988 0.000541684 0)
(0.183612 0.000476096 0)
(0.183253 0.00041591 0)
(0.182912 0.000361468 0)
(0.182588 0.000313153 0)
(0.182282 0.000270803 0)
(0.181993 0.000234579 0)
(0.181722 0.000203873 0)
(0.181467 0.000178226 0)
(0.181229 0.000156387 0)
(0.181006 0.000137961 0)
(0.180799 0.00012195 0)
(0.180606 0.000108228 0)
(0.180428 9.58778e-05 0)
(0.180261 8.5124e-05 0)
(0.180106 7.50741e-05 0)
(0.17996 6.62614e-05 0)
(0.179824 5.77118e-05 0)
(0.179695 5.03581e-05 0)
(0.179575 4.28581e-05 0)
(0.179461 3.64502e-05 0)
(0.179355 2.95694e-05 0)
(0.179256 2.40031e-05 0)
(0.179165 1.77355e-05 0)
(0.179083 1.31578e-05 0)
(0.179007 7.59433e-06 0)
(0.178942 4.08804e-06 0)
(0.178882 -5.34534e-07 0)
(0.178834 -2.89513e-06 0)
(0.178789 -6.40648e-06 0)
(0.178755 -7.80923e-06 0)
(0.178725 -1.00625e-05 0)
(0.178701 -1.08243e-05 0)
(0.178686 -1.18187e-05 0)
(0.178667 -1.26203e-05 0)
(0.195793 0.00608169 0)
(0.196093 0.00690662 0)
(0.196609 0.00767531 0)
(0.19734 0.00828387 0)
(0.198228 0.0086473 0)
(0.199172 0.00874303 0)
(0.200063 0.00861723 0)
(0.200823 0.0083433 0)
(0.201425 0.00797955 0)
(0.201879 0.0075664 0)
(0.202198 0.00714163 0)
(0.202403 0.00673957 0)
(0.202522 0.00638244 0)
(0.202588 0.00607909 0)
(0.202621 0.00582711 0)
(0.202637 0.00561522 0)
(0.202644 0.00542893 0)
(0.202644 0.00525589 0)
(0.202637 0.00508733 0)
(0.202617 0.00491862 0)
(0.202586 0.00475087 0)
(0.202547 0.00458999 0)
(0.202503 0.00444314 0)
(0.202458 0.00431548 0)
(0.202413 0.00420846 0)
(0.202365 0.00411867 0)
(0.202311 0.00403825 0)
(0.202243 0.00395766 0)
(0.202159 0.00386929 0)
(0.202056 0.00376981 0)
(0.201938 0.00366133 0)
(0.201811 0.00355076 0)
(0.201682 0.00344615 0)
(0.201552 0.00335243 0)
(0.20142 0.00326974 0)
(0.201281 0.00319421 0)
(0.20113 0.00312021 0)
(0.200965 0.00304337 0)
(0.200787 0.00296307 0)
(0.200599 0.00288237 0)
(0.200402 0.00280436 0)
(0.200192 0.0027282 0)
(0.199965 0.00264941 0)
(0.19972 0.00256453 0)
(0.199465 0.00247449 0)
(0.199204 0.00238343 0)
(0.198942 0.00229484 0)
(0.198678 0.00220945 0)
(0.19841 0.00212609 0)
(0.198137 0.0020435 0)
(0.197859 0.001961 0)
(0.197576 0.00187818 0)
(0.197286 0.00179453 0)
(0.196989 0.00170948 0)
(0.196686 0.00162259 0)
(0.196378 0.00153394 0)
(0.196067 0.0014439 0)
(0.195754 0.00135313 0)
(0.195442 0.00126237 0)
(0.195132 0.00117243 0)
(0.194825 0.00108385 0)
(0.194521 0.000997166 0)
(0.194221 0.000912786 0)
(0.193925 0.000831234 0)
(0.193634 0.000752807 0)
(0.193346 0.000678043 0)
(0.193065 0.000607453 0)
(0.192791 0.000541898 0)
(0.192524 0.000481803 0)
(0.192266 0.000427764 0)
(0.192017 0.000379762 0)
(0.191777 0.000337939 0)
(0.191548 0.000301579 0)
(0.191327 0.000270243 0)
(0.191118 0.000242751 0)
(0.190918 0.000218734 0)
(0.190729 0.000197211 0)
(0.190551 0.000178234 0)
(0.190384 0.000160944 0)
(0.190226 0.000145736 0)
(0.190078 0.000131676 0)
(0.189936 0.000119468 0)
(0.189803 0.000107904 0)
(0.189673 9.79468e-05 0)
(0.189549 8.78769e-05 0)
(0.189428 7.91132e-05 0)
(0.189312 6.95587e-05 0)
(0.189199 6.13898e-05 0)
(0.189093 5.2146e-05 0)
(0.188992 4.47398e-05 0)
(0.188899 3.61777e-05 0)
(0.188812 2.97375e-05 0)
(0.188735 2.21864e-05 0)
(0.188662 1.67266e-05 0)
(0.188602 1.07481e-05 0)
(0.188543 6.18977e-06 0)
(0.188502 2.31819e-06 0)
(0.188451 -1.55382e-06 0)
(0.18843 -3.27249e-06 0)
(0.188383 -7.0835e-06 0)
(0.196266 0.00589431 0)
(0.196547 0.0065924 0)
(0.196996 0.00724056 0)
(0.197612 0.00776744 0)
(0.198358 0.00811113 0)
(0.199164 0.00824295 0)
(0.199948 0.00818045 0)
(0.200641 0.00797548 0)
(0.201206 0.00768163 0)
(0.201644 0.00733844 0)
(0.201964 0.00697814 0)
(0.202183 0.00662887 0)
(0.202323 0.00631006 0)
(0.20241 0.00603143 0)
(0.202466 0.00579428 0)
(0.202502 0.00559163 0)
(0.20253 0.00541191 0)
(0.202554 0.00524459 0)
(0.202573 0.00508213 0)
(0.202583 0.00491991 0)
(0.202583 0.0047579 0)
(0.202573 0.00460096 0)
(0.202556 0.00445586 0)
(0.202535 0.00432805 0)
(0.202515 0.00421995 0)
(0.202497 0.00412972 0)
(0.202482 0.00405074 0)
(0.202465 0.00397391 0)
(0.202443 0.00389122 0)
(0.202412 0.00379802 0)
(0.202372 0.00369448 0)
(0.202324 0.00358619 0)
(0.202273 0.00348157 0)
(0.202222 0.00338706 0)
(0.202173 0.00330424 0)
(0.202124 0.00323029 0)
(0.202073 0.00315985 0)
(0.202016 0.00308746 0)
(0.201952 0.0030108 0)
(0.201883 0.00293252 0)
(0.201812 0.00285734 0)
(0.201735 0.0027861 0)
(0.201649 0.00271395 0)
(0.201551 0.00263511 0)
(0.201443 0.0025486 0)
(0.201329 0.00245866 0)
(0.201214 0.00237026 0)
(0.201098 0.00228538 0)
(0.200979 0.00220307 0)
(0.200858 0.00212185 0)
(0.200734 0.00204096 0)
(0.200606 0.00196019 0)
(0.200474 0.00187906 0)
(0.200335 0.00179684 0)
(0.200191 0.00171277 0)
(0.20004 0.00162659 0)
(0.199882 0.0015384 0)
(0.199719 0.0014488 0)
(0.199553 0.00135859 0)
(0.199382 0.00126875 0)
(0.19921 0.00117999 0)
(0.199035 0.001093 0)
(0.198858 0.00100824 0)
(0.198678 0.000926291 0)
(0.198497 0.000847369 0)
(0.198314 0.000771817 0)
(0.19813 0.000699943 0)
(0.197946 0.000632588 0)
(0.197764 0.000570327 0)
(0.197584 0.00051384 0)
(0.197409 0.000463117 0)
(0.197237 0.000418329 0)
(0.19707 0.000378904 0)
(0.196907 0.000344464 0)
(0.19675 0.000313764 0)
(0.196597 0.000286319 0)
(0.196451 0.000261126 0)
(0.196311 0.000238386 0)
(0.196179 0.000217424 0)
(0.196053 0.000198857 0)
(0.195936 0.000181836 0)
(0.195821 0.000167169 0)
(0.195713 0.000153606 0)
(0.195605 0.000142174 0)
(0.195501 0.000130921 0)
(0.195395 0.000121172 0)
(0.195292 0.000110451 0)
(0.195185 0.000100951 0)
(0.195085 8.99993e-05 0)
(0.194983 8.05454e-05 0)
(0.19489 6.97867e-05 0)
(0.194795 6.06286e-05 0)
(0.194714 5.0744e-05 0)
(0.194628 4.19416e-05 0)
(0.194564 3.38526e-05 0)
(0.194488 2.56345e-05 0)
(0.194444 2.03417e-05 0)
(0.194375 1.27331e-05 0)
(0.194353 1.03646e-05 0)
(0.194285 3.00846e-06 0)
(0.196684 0.00571344 0)
(0.196945 0.00630774 0)
(0.197339 0.00685887 0)
(0.197865 0.00731545 0)
(0.198496 0.00763219 0)
(0.199183 0.00778264 0)
(0.199867 0.00776892 0)
(0.20049 0.00762431 0)
(0.201015 0.00739373 0)
(0.201433 0.00711314 0)
(0.20175 0.00681013 0)
(0.201976 0.00650905 0)
(0.202131 0.00622745 0)
(0.202236 0.00597428 0)
(0.202308 0.00575251 0)
(0.202359 0.00555905 0)
(0.2024 0.00538573 0)
(0.202437 0.00522393 0)
(0.20247 0.00506727 0)
(0.202493 0.00491157 0)
(0.202506 0.00475616 0)
(0.202508 0.00460485 0)
(0.202501 0.00446354 0)
(0.202487 0.00433713 0)
(0.202472 0.00422818 0)
(0.202459 0.00413581 0)
(0.202451 0.00405487 0)
(0.202447 0.00397748 0)
(0.202444 0.00389626 0)
(0.202438 0.00380638 0)
(0.202426 0.00370683 0)
(0.202407 0.00360154 0)
(0.202383 0.00349807 0)
(0.202356 0.00340309 0)
(0.202332 0.00331888 0)
(0.20231 0.00324369 0)
(0.20229 0.00317327 0)
(0.202271 0.00310229 0)
(0.202249 0.00302729 0)
(0.202225 0.00294988 0)
(0.202201 0.00287517 0)
(0.202176 0.00280552 0)
(0.202148 0.00273677 0)
(0.202114 0.00266208 0)
(0.202073 0.00257875 0)
(0.202027 0.00249033 0)
(0.201979 0.00240235 0)
(0.201929 0.00231763 0)
(0.201879 0.0022356 0)
(0.201828 0.00215475 0)
(0.201776 0.00207434 0)
(0.201724 0.00199437 0)
(0.20167 0.00191459 0)
(0.201614 0.00183428 0)
(0.201554 0.00175255 0)
(0.201489 0.00166889 0)
(0.20142 0.00158315 0)
(0.201345 0.00149574 0)
(0.201265 0.00140741 0)
(0.20118 0.0013192 0)
(0.201092 0.00123192 0)
(0.200999 0.00114633 0)
(0.200903 0.00106301 0)
(0.200801 0.000982538 0)
(0.200695 0.000905025 0)
(0.200585 0.000830605 0)
(0.200471 0.000759439 0)
(0.200354 0.000692272 0)
(0.200237 0.000629683 0)
(0.20012 0.000572362 0)
(0.200004 0.000520473 0)
(0.199888 0.000474343 0)
(0.199776 0.00043357 0)
(0.199664 0.000397739 0)
(0.199556 0.000365543 0)
(0.199448 0.000336297 0)
(0.199345 0.000308956 0)
(0.199244 0.000283729 0)
(0.199151 0.000260178 0)
(0.19906 0.000239097 0)
(0.198976 0.000219903 0)
(0.198894 0.000203536 0)
(0.198817 0.000188904 0)
(0.198737 0.000176995 0)
(0.198661 0.000165819 0)
(0.198578 0.000156384 0)
(0.198497 0.000146055 0)
(0.198408 0.000136546 0)
(0.198324 0.000125343 0)
(0.198231 0.000114866 0)
(0.198149 0.000103145 0)
(0.198057 9.19578e-05 0)
(0.197984 8.07154e-05 0)
(0.197896 6.89668e-05 0)
(0.197837 5.94461e-05 0)
(0.197754 4.76235e-05 0)
(0.197713 4.11843e-05 0)
(0.197634 2.98634e-05 0)
(0.197613 2.69047e-05 0)
(0.197536 1.60834e-05 0)
(0.197055 0.00553947 0)
(0.197297 0.00604931 0)
(0.197644 0.00652174 0)
(0.198097 0.00691874 0)
(0.198634 0.00720633 0)
(0.199221 0.00736323 0)
(0.199814 0.00738565 0)
(0.20037 0.00729268 0)
(0.200852 0.00711775 0)
(0.201248 0.00689152 0)
(0.201556 0.00663859 0)
(0.201786 0.00638094 0)
(0.201951 0.00613444 0)
(0.20207 0.00590692 0)
(0.202156 0.00570184 0)
(0.20222 0.0055189 0)
(0.202272 0.0053529 0)
(0.202318 0.00519692 0)
(0.202358 0.00504587 0)
(0.20239 0.00489664 0)
(0.202411 0.00474852 0)
(0.20242 0.00460417 0)
(0.20242 0.00446819 0)
(0.202411 0.00434463 0)
(0.202399 0.00423587 0)
(0.202388 0.00414152 0)
(0.202381 0.00405758 0)
(0.20238 0.00397772 0)
(0.202382 0.00389583 0)
(0.202384 0.00380754 0)
(0.202383 0.00371129 0)
(0.202374 0.00360962 0)
(0.20236 0.00350862 0)
(0.202341 0.00341426 0)
(0.202323 0.00332893 0)
(0.202307 0.00325169 0)
(0.202295 0.00317957 0)
(0.202286 0.00310814 0)
(0.202277 0.0030337 0)
(0.202267 0.00295675 0)
(0.202256 0.00288178 0)
(0.202247 0.00281182 0)
(0.202238 0.00274386 0)
(0.202228 0.00267131 0)
(0.202214 0.00259056 0)
(0.202195 0.00250409 0)
(0.202172 0.00241711 0)
(0.202147 0.0023327 0)
(0.202123 0.00225061 0)
(0.202098 0.0021695 0)
(0.202074 0.00208877 0)
(0.20205 0.00200859 0)
(0.202027 0.00192893 0)
(0.202004 0.00184923 0)
(0.20198 0.00176866 0)
(0.201953 0.00168661 0)
(0.201923 0.00160278 0)
(0.20189 0.00151737 0)
(0.201852 0.00143103 0)
(0.20181 0.00134473 0)
(0.201765 0.00125936 0)
(0.201714 0.00117573 0)
(0.20166 0.00109443 0)
(0.2016 0.001016 0)
(0.201535 0.000940508 0)
(0.201465 0.000867933 0)
(0.201392 0.000798246 0)
(0.201315 0.000731941 0)
(0.201236 0.000669599 0)
(0.201156 0.000612021 0)
(0.201078 0.000559645 0)
(0.200999 0.00051289 0)
(0.200922 0.00047151 0)
(0.200844 0.00043504 0)
(0.200769 0.000402194 0)
(0.200693 0.000372025 0)
(0.20062 0.000343427 0)
(0.200548 0.000316461 0)
(0.200482 0.000290962 0)
(0.200417 0.000267845 0)
(0.20036 0.000246964 0)
(0.200302 0.000229309 0)
(0.20025 0.000214135 0)
(0.200193 0.000202266 0)
(0.20014 0.000191914 0)
(0.200077 0.000183552 0)
(0.200018 0.000174665 0)
(0.199945 0.000166103 0)
(0.199879 0.000155879 0)
(0.199798 0.000145309 0)
(0.19973 0.000133718 0)
(0.199645 0.000121199 0)
(0.199582 0.000109433 0)
(0.199498 9.52776e-05 0)
(0.199446 8.48696e-05 0)
(0.199363 6.99055e-05 0)
(0.199327 6.25652e-05 0)
(0.199247 4.79369e-05 0)
(0.199229 4.44103e-05 0)
(0.199149 3.04693e-05 0)
(0.197386 0.00537288 0)
(0.197609 0.00581359 0)
(0.197916 0.0062214 0)
(0.198308 0.0065682 0)
(0.198769 0.00682804 0)
(0.199272 0.00698447 0)
(0.199786 0.00703212 0)
(0.200277 0.00698031 0)
(0.200716 0.00685202 0)
(0.201085 0.0066728 0)
(0.201382 0.00646458 0)
(0.201612 0.00624651 0)
(0.201784 0.00603265 0)
(0.201913 0.00583022 0)
(0.202011 0.00564273 0)
(0.202087 0.00547135 0)
(0.202147 0.00531335 0)
(0.2022 0.0051638 0)
(0.202246 0.00501889 0)
(0.202283 0.00487655 0)
(0.202309 0.00473614 0)
(0.202325 0.00459933 0)
(0.20233 0.00446945 0)
(0.202327 0.00434963 0)
(0.202319 0.00424196 0)
(0.202311 0.00414633 0)
(0.202306 0.0040596 0)
(0.202306 0.00397688 0)
(0.202309 0.00389354 0)
(0.202314 0.00380602 0)
(0.202316 0.0037125 0)
(0.202312 0.00361448 0)
(0.202302 0.00351664 0)
(0.202287 0.0034238 0)
(0.202271 0.00333804 0)
(0.202257 0.00325894 0)
(0.202247 0.00318465 0)
(0.202239 0.00311188 0)
(0.202234 0.00303735 0)
(0.202227 0.00296085 0)
(0.20222 0.0028857 0)
(0.202214 0.00281474 0)
(0.202211 0.00274608 0)
(0.202208 0.00267421 0)
(0.202203 0.00259546 0)
(0.202194 0.00251127 0)
(0.202181 0.00242589 0)
(0.202165 0.00234214 0)
(0.202148 0.00226007 0)
(0.202131 0.0021786 0)
(0.202116 0.00209733 0)
(0.202101 0.00201653 0)
(0.202087 0.00193636 0)
(0.202074 0.00185646 0)
(0.202061 0.00177616 0)
(0.202048 0.00169489 0)
(0.202033 0.0016123 0)
(0.202015 0.00152842 0)
(0.201994 0.00144378 0)
(0.20197 0.00135927 0)
(0.201942 0.00127579 0)
(0.20191 0.00119413 0)
(0.201874 0.00111491 0)
(0.201833 0.00103859 0)
(0.201788 0.000965241 0)
(0.201737 0.000894624 0)
(0.201684 0.00082649 0)
(0.201626 0.000761111 0)
(0.201567 0.000699156 0)
(0.201507 0.000641507 0)
(0.201448 0.000588829 0)
(0.201388 0.000541609 0)
(0.201331 0.000499824 0)
(0.201272 0.000462964 0)
(0.201215 0.000429794 0)
(0.201157 0.000399054 0)
(0.201102 0.000369602 0)
(0.201046 0.000341264 0)
(0.200997 0.000314169 0)
(0.200947 0.000289248 0)
(0.200905 0.000266879 0)
(0.200861 0.000248042 0)
(0.200825 0.000232521 0)