/*--------------------------------*- C++ -*----------------------------------*\
| =========                 |                                                 |
| \\      /  F ield         | OpenFOAM: The Open Source CFD Toolbox           |
|  \\    /   O peration     | Version:  2.3.0                                 |
|   \\  /    A nd           | Web:      www.OpenFOAM.org                      |
|    \\/     M anipulation  |                                                 |
\*---------------------------------------------------------------------------*/
FoamFile
{
    version     2.0;
    format      ascii;
    class       volScalarField;
    location    "0.8";
    object      p;
}
// * * * * * * * * * * * * * * * * * * * * * * * * * * * * * * * * * * * * * //

dimensions      [0 2 -2 0 0 0 0];

internalField   nonuniform List<scalar> 
1500
(
0.00223385
0.00191772
0.00132728
0.000782485
0.000335042
-4.31992e-05
-0.000360626
-0.000597898
-0.000734118
-0.000774097
-0.00074562
-0.000681543
-0.000606962
-0.000536647
-0.000477198
-0.000429787
-0.000392686
-0.000363218
-0.000338885
-0.000317795
-0.000298685
-0.000280806
-0.000263773
-0.000247433
-0.000231761
-0.000216796
-0.00020259
-0.000189192
-0.00017663
-0.000164912
-0.000154026
-0.000143945
-0.000134628
-0.00012603
-0.000118103
-0.000110794
-0.000104055
-9.78397e-05
-9.21026e-05
-8.6804e-05
-8.19064e-05
-7.73769e-05
-7.31844e-05
-6.93024e-05
-6.57054e-05
-6.23719e-05
-5.92805e-05
-5.64138e-05
-5.37536e-05
-5.12856e-05
-4.89938e-05
-4.68667e-05
-4.48898e-05
-4.30542e-05
-4.13464e-05
-3.97599e-05
-3.82819e-05
-3.69083e-05
-3.56266e-05
-3.4435e-05
-3.3321e-05
-3.22854e-05
-3.13149e-05
-3.04131e-05
-2.95656e-05
-2.8779e-05
-2.80369e-05
-2.73494e-05
-2.66972e-05
-2.60948e-05
-2.55187e-05
-2.49885e-05
-2.44756e-05
-2.40055e-05
-2.35429e-05
-2.31206e-05
-2.26944e-05
-2.23069e-05
-2.19021e-05
-2.15346e-05
-2.11339e-05
-2.07691e-05
-2.0351e-05
-1.99681e-05
-1.95064e-05
-1.90796e-05
-1.85421e-05
-1.80387e-05
-1.73832e-05
-1.67626e-05
-1.59351e-05
-1.51451e-05
-1.40768e-05
-1.30513e-05
-1.16502e-05
-1.03071e-05
-8.45015e-06
-6.69159e-06
-4.19086e-06
-1.96449e-06
0.0017781
0.00161834
0.00121108
0.000746828
0.000328534
-2.71852e-05
-0.000320791
-0.000539071
-0.000669601
-0.000715369
-0.00069737
-0.000643975
-0.000578616
-0.000515551
-0.000461502
-0.000417845
-0.00038321
-0.000355335
-0.000332061
-0.000311718
-0.000293182
-0.000275778
-0.000259158
-0.000243188
-0.000227851
-0.000213187
-0.000199251
-0.000186093
-0.000173744
-0.000162214
-0.000151495
-0.000141563
-0.00013238
-0.000123903
-0.000116086
-0.000108878
-0.000102232
-9.61023e-05
-9.04446e-05
-8.52199e-05
-8.03911e-05
-7.59258e-05
-7.17933e-05
-6.79676e-05
-6.44233e-05
-6.11394e-05
-5.80945e-05
-5.52718e-05
-5.2653e-05
-5.02242e-05
-4.79694e-05
-4.58775e-05
-4.39338e-05
-4.213e-05
-4.04523e-05
-3.88947e-05
-3.74441e-05
-3.60969e-05
-3.48403e-05
-3.36731e-05
-3.25821e-05
-3.15689e-05
-3.06196e-05
-2.97388e-05
-2.8911e-05
-2.81439e-05
-2.74201e-05
-2.67509e-05
-2.61158e-05
-2.55307e-05
-2.49705e-05
-2.44568e-05
-2.39588e-05
-2.35043e-05
-2.30557e-05
-2.26483e-05
-2.22352e-05
-2.18621e-05
-2.14695e-05
-2.11159e-05
-2.07265e-05
-2.03752e-05
-1.99676e-05
-1.95979e-05
-1.91457e-05
-1.87318e-05
-1.82027e-05
-1.77119e-05
-1.70637e-05
-1.64555e-05
-1.56337e-05
-1.4856e-05
-1.37915e-05
-1.27784e-05
-1.13782e-05
-1.00482e-05
-8.18771e-06
-6.44368e-06
-3.93641e-06
-1.74054e-06
0.00144911
0.00135958
0.00109228
0.00072103
0.000346891
1.99641e-05
-0.000245346
-0.000443084
-0.000569493
-0.000627136
-0.000628717
-0.000594227
-0.000543811
-0.000491678
-0.000444712
-0.000405104
-0.000372561
-0.000345734
-0.000323056
-0.00030317
-0.000285079
-0.000268152
-0.000252042
-0.000236601
-0.000221795
-0.000207648
-0.000194203
-0.000181501
-0.000169566
-0.000158408
-0.000148019
-0.000138378
-0.000129451
-0.000121199
-0.000113579
-0.000106546
-0.000100055
-9.4063e-05
-8.85289e-05
-8.34155e-05
-7.86873e-05
-7.43137e-05
-7.02648e-05
-6.65158e-05
-6.30419e-05
-5.9823e-05
-5.68382e-05
-5.40713e-05
-5.15041e-05
-4.91236e-05
-4.69134e-05
-4.48637e-05
-4.29591e-05
-4.11923e-05
-3.9549e-05
-3.80243e-05
-3.66042e-05
-3.52864e-05
-3.40571e-05
-3.29163e-05
-3.18498e-05
-3.08608e-05
-2.99336e-05
-2.90749e-05
-2.82672e-05
-2.75206e-05
-2.68153e-05
-2.61651e-05
-2.55469e-05
-2.49796e-05
-2.4435e-05
-2.39383e-05
-2.34547e-05
-2.30164e-05
-2.2581e-05
-2.21893e-05
-2.17884e-05
-2.14306e-05
-2.10493e-05
-2.07107e-05
-2.03318e-05
-1.99955e-05
-1.95973e-05
-1.92427e-05
-1.8799e-05
-1.84005e-05
-1.78789e-05
-1.74041e-05
-1.67621e-05
-1.61707e-05
-1.53536e-05
-1.4594e-05
-1.35324e-05
-1.25389e-05
-1.11395e-05
-9.83071e-06
-7.97068e-06
-6.24716e-06
-3.76976e-06
-1.62246e-06
0.00121424
0.00114776
0.000965346
0.000681803
0.00036531
7.43576e-05
-0.000164551
-0.000344238
-0.000464706
-0.000529404
-0.000546748
-0.00053042
-0.000495784
-0.000455294
-0.000416296
-0.000381959
-0.000352902
-0.000328467
-0.000307544
-0.000289049
-0.000272141
-0.000256268
-0.000241128
-0.000226592
-0.000212637
-0.000199288
-0.000186583
-0.000174559
-0.000163237
-0.000152627
-0.000142723
-0.000133511
-0.000124964
-0.00011705
-0.00010973
-0.000102967
-9.67184e-05
-9.09466e-05
-8.56129e-05
-8.06829e-05
-7.61228e-05
-7.19038e-05
-6.79972e-05
-6.43796e-05
-6.10266e-05
-5.79196e-05
-5.50379e-05
-5.23663e-05
-4.9887e-05
-4.75879e-05
-4.54528e-05
-4.34728e-05
-4.16323e-05
-3.99255e-05
-3.83374e-05
-3.68644e-05
-3.54921e-05
-3.42193e-05
-3.30315e-05
-3.19303e-05
-3.09002e-05
-2.99463e-05
-2.90512e-05
-2.82238e-05
-2.74446e-05
-2.67262e-05
-2.60464e-05
-2.5422e-05
-2.48268e-05
-2.42832e-05
-2.37593e-05
-2.32847e-05
-2.28199e-05
-2.24024e-05
-2.19844e-05
-2.16125e-05
-2.12274e-05
-2.08888e-05
-2.05221e-05
-2.02024e-05
-1.98372e-05
-1.95197e-05
-1.91344e-05
-1.87989e-05
-1.83672e-05
-1.79887e-05
-1.74786e-05
-1.70246e-05
-1.63939e-05
-1.58249e-05
-1.50188e-05
-1.42832e-05
-1.32333e-05
-1.22652e-05
-1.08798e-05
-9.59619e-06
-7.76028e-06
-6.06025e-06
-3.66389e-06
-1.57678e-06
0.00102187
0.000964859
0.000831812
0.000620253
0.000366333
0.000117796
-9.37742e-05
-0.000256688
-0.000370121
-0.000437629
-0.000465559
-0.000463262
-0.000442013
-0.000412127
-0.000380796
-0.000351855
-0.000326642
-0.000305045
-0.00028632
-0.000269614
-0.000254227
-0.0002397
-0.000225787
-0.000212395
-0.000199517
-0.000187186
-0.00017544
-0.00016431
-0.000153815
-0.000143962
-0.000134748
-0.000126159
-0.000118175
-0.000110768
-0.000103907
-9.75584e-05
-9.16863e-05
-8.62565e-05
-8.12344e-05
-7.6589e-05
-7.2289e-05
-6.83087e-05
-6.46206e-05
-6.1204e-05
-5.80356e-05
-5.50987e-05
-5.23732e-05
-4.9846e-05
-4.74995e-05
-4.53234e-05
-4.33015e-05
-4.14267e-05
-3.96831e-05
-3.80667e-05
-3.65618e-05
-3.51669e-05
-3.38666e-05
-3.26616e-05
-3.15364e-05
-3.04946e-05
-2.95192e-05
-2.86176e-05
-2.77705e-05
-2.69896e-05
-2.62528e-05
-2.55759e-05
-2.49338e-05
-2.43467e-05
-2.37849e-05
-2.32753e-05
-2.27814e-05
-2.23378e-05
-2.19002e-05
-2.15114e-05
-2.11181e-05
-2.07733e-05
-2.04108e-05
-2.0098e-05
-1.97524e-05
-1.94578e-05
-1.91127e-05
-1.88201e-05
-1.84542e-05
-1.81441e-05
-1.77317e-05
-1.73795e-05
-1.68898e-05
-1.64634e-05
-1.58548e-05
-1.53153e-05
-1.45345e-05
-1.383e-05
-1.28115e-05
-1.18752e-05
-1.05314e-05
-9.27851e-06
-7.50677e-06
-5.84226e-06
-3.58067e-06
-1.5734e-06
0.000853138
0.000802811
0.00070114
0.000543764
0.000347995
0.000145157
-3.6682e-05
-0.000182348
-0.000287748
-0.000354877
-0.000388766
-0.000396362
-0.000385859
-0.000365351
-0.000341278
-0.000317668
-0.000296361
-0.000277711
-0.000261311
-0.000246528
-0.000232797
-0.00021974
-0.000207167
-0.000195018
-0.000183311
-0.000172088
-0.000161392
-0.000151254
-0.00014169
-0.000132705
-0.000124294
-0.000116446
-0.00010914
-0.000102354
-9.6062e-05
-9.02344e-05
-8.48399e-05
-7.98491e-05
-7.52304e-05
-7.09569e-05
-6.69995e-05
-6.33356e-05
-5.99394e-05
-5.6793e-05
-5.38739e-05
-5.11681e-05
-4.8656e-05
-4.63269e-05
-4.41631e-05
-4.21569e-05
-4.02917e-05
-3.85628e-05
-3.69538e-05
-3.5463e-05
-3.40738e-05
-3.27874e-05
-3.15868e-05
-3.04758e-05
-2.9437e-05
-2.84769e-05
-2.75765e-05
-2.67464e-05
-2.59646e-05
-2.52465e-05
-2.4567e-05
-2.39456e-05
-2.33538e-05
-2.28161e-05
-2.22988e-05
-2.18336e-05
-2.13791e-05
-2.09757e-05
-2.05735e-05
-2.02214e-05
-1.98602e-05
-1.95494e-05
-1.92165e-05
-1.89358e-05
-1.86181e-05
-1.83543e-05
-1.80364e-05
-1.77741e-05
-1.74357e-05
-1.71562e-05
-1.6773e-05
-1.64522e-05
-1.59953e-05
-1.56019e-05
-1.50317e-05
-1.45278e-05
-1.37939e-05
-1.31275e-05
-1.21691e-05
-1.12732e-05
-1.00086e-05
-8.79965e-06
-7.14038e-06
-5.53771e-06
-3.4582e-06
-1.55754e-06
0.000701806
0.000658051
0.000579143
0.000462197
0.000314989
0.000155963
5.79364e-06
-0.000120469
-0.000215982
-0.000280319
-0.000316839
-0.000330831
-0.000328438
-0.000315858
-0.000298453
-0.000280008
-0.000262597
-0.000246942
-0.000232951
-0.000220206
-0.000208269
-0.000196835
-0.000185752
-0.00017499
-0.000164581
-0.000154581
-0.00014504
-0.000135993
-0.000127455
-0.000119431
-0.000111913
-0.00010489
-9.83449e-05
-9.22596e-05
-8.66097e-05
-8.1373e-05
-7.65216e-05
-7.20316e-05
-6.78743e-05
-6.40278e-05
-6.04646e-05
-5.71665e-05
-5.41087e-05
-5.1277e-05
-4.86493e-05
-4.6215e-05
-4.39545e-05
-4.186e-05
-3.99135e-05
-3.81104e-05
-3.64332e-05
-3.48802e-05
-3.34338e-05
-3.20956e-05
-3.08472e-05
-2.96933e-05
-2.8615e-05
-2.76194e-05
-2.66866e-05
-2.58272e-05
-2.50191e-05
-2.42771e-05
-2.3576e-05
-2.29352e-05
-2.23261e-05
-2.17728e-05
-2.12428e-05
-2.07653e-05
-2.03024e-05
-1.98906e-05
-1.94843e-05
-1.91284e-05
-1.87694e-05
-1.84599e-05
-1.81378e-05
-1.78659e-05
-1.75691e-05
-1.73243e-05
-1.70412e-05
-1.68109e-05
-1.65277e-05
-1.62979e-05
-1.59957e-05
-1.57487e-05
-1.54055e-05
-1.51184e-05
-1.47082e-05
-1.43509e-05
-1.38374e-05
-1.33737e-05
-1.27106e-05
-1.209e-05
-1.12222e-05
-1.03804e-05
-9.23337e-06
-8.09293e-06
-6.59245e-06
-5.09e-06
-3.22685e-06
-1.45017e-06
0.000564933
0.000528143
0.000467345
0.000380733
0.000272101
0.000151654
3.29672e-05
-7.17095e-05
-0.000154759
-0.000213751
-0.000250139
-0.000267622
-0.000270829
-0.00026449
-0.000252854
-0.000239194
-0.000225557
-0.000212883
-0.000201342
-0.000190718
-0.000180696
-0.000171033
-0.000161603
-0.000152388
-0.000143431
-0.000134796
-0.000126539
-0.000118701
-0.000111298
-0.000104336
-9.78075e-05
-9.17031e-05
-8.60056e-05
-8.07018e-05
-7.57705e-05
-7.11955e-05
-6.69529e-05
-6.30245e-05
-5.93851e-05
-5.60175e-05
-5.28969e-05
-5.00092e-05
-4.7331e-05
-4.48522e-05
-4.25513e-05
-4.04214e-05
-3.84427e-05
-3.66112e-05
-3.49083e-05
-3.33327e-05
-3.1866e-05
-3.05102e-05
-2.9246e-05
-2.80787e-05
-2.69883e-05
-2.59827e-05
-2.50413e-05
-2.41747e-05
-2.3361e-05
-2.2614e-05
-2.19095e-05
-2.12657e-05
-2.06549e-05
-2.00998e-05
-1.95699e-05
-1.90916e-05
-1.86309e-05
-1.82193e-05
-1.78174e-05
-1.74634e-05
-1.71113e-05
-1.68061e-05
-1.64956e-05
-1.62309e-05
-1.5953e-05
-1.5721e-05
-1.54654e-05
-1.52565e-05
-1.50134e-05
-1.48163e-05
-1.45736e-05
-1.43756e-05
-1.41168e-05
-1.39018e-05
-1.36077e-05
-1.33546e-05
-1.30025e-05
-1.2684e-05
-1.22417e-05
-1.18247e-05
-1.12512e-05
-1.06889e-05
-9.93571e-06
-9.16987e-06
-8.17085e-06
-7.13466e-06
-5.82966e-06
-4.47398e-06
-2.85012e-06
-1.22362e-06
0.000446693
0.000416654
0.000369954
0.00030544
0.000225286
0.000135363
4.43511e-05
-3.88773e-05
-0.000107694
-0.000158909
-0.000192531
-0.000210789
-0.000217028
-0.000214847
-0.000207561
-0.000197844
-0.000187526
-0.00017759
-0.000168362
-0.000159785
-0.000151649
-0.000143767
-0.000136029
-0.000128422
-0.000120983
-0.00011378
-0.000106871
-0.0001003
-9.40873e-05
-8.82401e-05
-8.27513e-05
-7.76138e-05
-7.2812e-05
-6.83363e-05
-6.41688e-05
-6.02985e-05
-5.67052e-05
-5.33764e-05
-5.02901e-05
-4.7434e-05
-4.4786e-05
-4.23361e-05
-4.0063e-05
-3.79599e-05
-3.60069e-05
-3.42001e-05
-3.25209e-05
-3.09677e-05
-2.95229e-05
-2.81874e-05
-2.69432e-05
-2.57945e-05
-2.47225e-05
-2.3734e-05
-2.28096e-05
-2.19587e-05
-2.11609e-05
-2.04281e-05
-1.97388e-05
-1.91077e-05
-1.85112e-05
-1.79679e-05
-1.74511e-05
-1.69831e-05
-1.65353e-05
-1.61324e-05
-1.57435e-05
-1.53972e-05
-1.50584e-05
-1.4761e-05
-1.44646e-05
-1.42084e-05
-1.39478e-05
-1.37256e-05
-1.3493e-05
-1.32982e-05
-1.30849e-05
-1.29092e-05
-1.27072e-05
-1.25403e-05
-1.23395e-05
-1.2171e-05
-1.19571e-05
-1.17728e-05
-1.15298e-05
-1.13114e-05
-1.10203e-05
-1.07438e-05
-1.0377e-05
-1.00142e-05
-9.53631e-06
-9.04622e-06
-8.41609e-06
-7.74895e-06
-6.91033e-06
-6.01154e-06
-4.91621e-06
-3.74509e-06
-2.36914e-06
-9.19968e-07
0.000332549
0.000309576
0.000275616
0.00022987
0.000173588
0.000110113
4.47609e-05
-1.66786e-05
-6.93436e-05
-0.000110272
-0.000138654
-0.000155479
-0.000162861
-0.00016335
-0.000159399
-0.000153056
-0.000145805
-0.000138536
-0.000131637
-0.000125159
-0.000118989
-0.000112991
-0.000107074
-0.000101221
-9.54603e-05
-8.98526e-05
-8.44523e-05
-7.93039e-05
-7.44283e-05
-6.98355e-05
-6.55201e-05
-6.14767e-05
-5.76926e-05
-5.41606e-05
-5.08671e-05
-4.78048e-05
-4.49586e-05
-4.23198e-05
-3.98717e-05
-3.76054e-05
-3.55032e-05
-3.35582e-05
-3.17529e-05
-3.00828e-05
-2.85315e-05
-2.70965e-05
-2.57627e-05
-2.45293e-05
-2.33818e-05
-2.23214e-05
-2.13334e-05
-2.04215e-05
-1.95705e-05
-1.8786e-05
-1.80524e-05
-1.73772e-05
-1.67444e-05
-1.6163e-05
-1.56166e-05
-1.51161e-05
-1.46435e-05
-1.42128e-05
-1.38039e-05
-1.34327e-05
-1.3079e-05
-1.27594e-05
-1.24527e-05
-1.21781e-05
-1.19113e-05
-1.16753e-05
-1.14427e-05
-1.12388e-05
-1.10352e-05
-1.08578e-05
-1.06768e-05
-1.05209e-05
-1.03554e-05
-1.0214e-05
-1.00583e-05
-9.92294e-06
-9.76877e-06
-9.63143e-06
-9.46733e-06
-9.31642e-06
-9.1301e-06
-8.95062e-06
-8.7269e-06
-8.49989e-06
-8.21639e-06
-7.91942e-06
-7.54809e-06
-7.1474e-06
-6.65556e-06
-6.11263e-06
-5.45531e-06
-4.72804e-06
-3.86855e-06
-2.92227e-06
-1.83452e-06
-6.75163e-07
0.000208823
0.000194074
0.000173215
0.000145673
0.000112053
7.40666e-05
3.44747e-05
-3.53604e-06
-3.70927e-05
-6.41731e-05
-8.38748e-05
-9.63855e-05
-0.000102723
-0.000104347
-0.000102786
-9.9374e-05
-9.51144e-05
-9.06557e-05
-8.63246e-05
-8.2215e-05
-7.82859e-05
-7.44573e-05
-7.06657e-05
-6.68927e-05
-6.3156e-05
-5.94976e-05
-5.59595e-05
-5.2577e-05
-4.93685e-05
-4.63432e-05
-4.34982e-05
-4.08303e-05
-3.83307e-05
-3.59947e-05
-3.38137e-05
-3.17833e-05
-2.98942e-05
-2.81414e-05
-2.65143e-05
-2.50071e-05
-2.36088e-05
-2.23145e-05
-2.11131e-05
-2.00013e-05
-1.89686e-05
-1.8013e-05
-1.71251e-05
-1.63036e-05
-1.55396e-05
-1.48333e-05
-1.41757e-05
-1.35683e-05
-1.30019e-05
-1.24793e-05
-1.19912e-05
-1.15414e-05
-1.11206e-05
-1.07332e-05
-1.03701e-05
-1.00365e-05
-9.7227e-06
-9.43557e-06
-9.16438e-06
-8.91678e-06
-8.68254e-06
-8.46921e-06
-8.2664e-06
-8.08293e-06
-7.9069e-06
-7.74895e-06
-7.59593e-06
-7.45914e-06
-7.32569e-06
-7.20623e-06
-7.08793e-06
-6.98258e-06
-6.87494e-06
-6.77883e-06
-6.67808e-06
-6.58552e-06
-6.48582e-06
-6.39168e-06
-6.2857e-06
-6.1819e-06
-6.06153e-06
-5.93813e-06
-5.79287e-06
-5.63741e-06
-5.45241e-06
-5.24955e-06
-5.00626e-06
-4.73335e-06
-4.40938e-06
-4.04148e-06
-3.60763e-06
-3.11665e-06
-2.54819e-06
-1.90945e-06
-1.18605e-06
-4.0284e-07
7.20115e-05
6.68565e-05
5.97659e-05
5.05369e-05
3.93387e-05
2.66883e-05
1.33969e-05
4.60927e-07
-1.1178e-05
-2.08034e-05
-2.80278e-05
-3.28176e-05
-3.54377e-05
-3.63423e-05
-3.60461e-05
-3.50206e-05
-3.36328e-05
-3.21283e-05
-3.06402e-05
-2.92163e-05
-2.78515e-05
-2.65201e-05
-2.51987e-05
-2.38784e-05
-2.25642e-05
-2.12715e-05
-2.00166e-05
-1.8814e-05
-1.76715e-05
-1.65936e-05
-1.55794e-05
-1.46278e-05
-1.37357e-05
-1.29013e-05
-1.21217e-05
-1.13953e-05
-1.0719e-05
-1.00911e-05
-9.50797e-06
-8.96769e-06
-8.46627e-06
-8.00208e-06
-7.5711e-06
-7.17222e-06
-6.80175e-06
-6.45881e-06
-6.14025e-06
-5.84536e-06
-5.57127e-06
-5.31773e-06
-5.08178e-06
-4.86374e-06
-4.66053e-06
-4.47292e-06
-4.29787e-06
-4.13629e-06
-3.9855e-06
-3.8463e-06
-3.71619e-06
-3.5964e-06
-3.48391e-06
-3.3808e-06
-3.28371e-06
-3.19467e-06
-3.11097e-06
-3.03415e-06
-2.96175e-06
-2.8957e-06
-2.83286e-06
-2.776e-06
-2.72144e-06
-2.67203e-06
-2.62467e-06
-2.58135e-06
-2.53946e-06
-2.50127e-06
-2.46307e-06
-2.42815e-06
-2.39254e-06
-2.3587e-06
-2.32359e-06
-2.28914e-06
-2.25171e-06
-2.21377e-06
-2.17108e-06
-2.12604e-06
-2.07459e-06
-2.01777e-06
-1.95199e-06
-1.87822e-06
-1.79123e-06
-1.69201e-06
-1.57619e-06
-1.44268e-06
-1.2872e-06
-1.10962e-06
-9.0566e-07
-6.7438e-07
-4.1259e-07
-1.21056e-07
1.99447e-05
7.69996e-06
1.06711e-05
1.31886e-05
2.27539e-05
2.73043e-05
3.89719e-05
4.65032e-05
6.32928e-05
7.68304e-05
0.000101438
0.000123231
0.000157868
0.000190596
0.000239609
0.000288097
0.000357384
0.000428519
0.000527666
0.000634344
0.000783426
0.000955525
0.00120219
0.00150304
0.00190664
1.92766e-05
7.82689e-06
1.06479e-05
1.32493e-05
2.25075e-05
2.72713e-05
3.85254e-05
4.63668e-05
6.25231e-05
7.64245e-05
0.00010005
0.000122405
0.00015566
0.000189497
0.00023617
0.000286378
0.000351946
0.000425645
0.000518977
0.000628997
0.000767737
0.000940097
0.00115463
0.00141254
0.00165175
1.81813e-05
8.30006e-06
1.04712e-05
1.34375e-05
2.17894e-05
2.72815e-05
3.74857e-05
4.62354e-05
6.09388e-05
7.5885e-05
9.75613e-05
0.00012107
0.000152102
0.000187204
0.000231112
0.000282459
0.000344483
0.000418858
0.000507152
0.000615853
0.00074437
0.000903639
0.00108081
0.00127141
0.00140916
1.68786e-05
8.86296e-06
1.02799e-05
1.34971e-05
2.0821e-05
2.69683e-05
3.61852e-05
4.55852e-05
5.90186e-05
7.44649e-05
9.45896e-05
0.000118464
0.000147761
0.000182937
0.00022481
0.000275506
0.000334947
0.000407158
0.000491321
0.000593517
0.00071092
0.000847234
0.000988421
0.00112064
0.0012035
1.52983e-05
9.39828e-06
1.01166e-05
1.33715e-05
1.96597e-05
2.61955e-05
3.46027e-05
4.42735e-05
5.66967e-05
7.2034e-05
9.09697e-05
0.000114341
0.000142275
0.000176398
0.000216557
0.000265209
0.000322063
0.000390225
0.000469215
0.000561701
0.000664966
0.000776283
0.000884689
0.000975099
0.00102619
1.34644e-05
9.68699e-06
9.99541e-06
1.30183e-05
1.83588e-05
2.48601e-05
3.2663e-05
4.21724e-05
5.37998e-05
6.84863e-05
8.63485e-05
0.000108558
0.000135081
0.000167386
0.000205522
0.000251216
0.000304642
0.00036739
0.000439211
0.000520041
0.000606997
0.000695241
0.000776066
0.000837528
0.000866477
1.15392e-05
9.54859e-06
9.81499e-06
1.2399e-05
1.69079e-05
2.29557e-05
3.02254e-05
3.92011e-05
5.00631e-05
6.37057e-05
8.03491e-05
0.000100917
0.000125657
0.000155541
0.000190959
0.000232871
0.000281642
0.000337698
0.000400517
0.000468692
0.000539189
0.000607132
0.000665636
0.000706266
0.000719845
9.65529e-06
8.87831e-06
9.32012e-06
1.14635e-05
1.52304e-05
2.05443e-05
2.71468e-05
3.53023e-05
4.52233e-05
5.75258e-05
7.26115e-05
9.11172e-05
0.00011349
0.000140339
0.00017214
0.000209356
0.000252179
0.000300379
0.000353068
0.000408412
0.000463481
0.00051406
0.000554907
0.000580331
0.000584148
7.92837e-06
7.77904e-06
8.40927e-06
1.02042e-05
1.33084e-05
1.77761e-05
2.35124e-05
3.06398e-05
3.9373e-05
5.01204e-05
6.33107e-05
7.942e-05
9.89031e-05
0.000122184
0.000149629
0.000181429
0.00021753
0.000257425
0.000300065
0.00034364
0.000385557
0.000422406
0.000450461
0.000465816
0.000464545
6.14585e-06
6.27687e-06
6.99615e-06
8.48012e-06
1.09125e-05
1.44179e-05
1.90365e-05
2.48475e-05
3.2026e-05
4.08412e-05
5.16411e-05
6.47886e-05
8.06486e-05
9.95176e-05
0.000121605
0.000146934
0.000175285
0.000206073
0.000238275
0.000270327
0.000300136
0.000325248
0.000343213
0.000351496
0.000347677
4.02318e-06
4.20512e-06
4.80619e-06
5.87585e-06
7.51698e-06
9.83776e-06
1.29347e-05
1.68924e-05
2.18316e-05
2.79143e-05
3.53544e-05
4.43809e-05
5.52181e-05
6.80332e-05
8.29068e-05
9.97755e-05
0.000118396
0.00013828
0.000158656
0.00017842
0.000196173
0.00021054
0.000220123
0.000223521
0.000219426
1.42717e-06
1.50104e-06
1.73992e-06
2.15159e-06
2.76078e-06
3.60374e-06
4.72408e-06
6.1683e-06
7.98881e-06
1.02454e-05
1.30079e-05
1.63489e-05
2.03359e-05
2.50148e-05
3.03964e-05
3.64383e-05
4.30307e-05
4.99776e-05
5.69848e-05
6.36544e-05
6.95116e-05
7.40993e-05
7.69675e-05
7.76887e-05
7.58904e-05
)
;

boundaryField
{
    top
    {
        type            fixedValue;
        value           uniform 0;
    }
    inlet
    {
        type            zeroGradient;
    }
    outlet
    {
        type            fixedValue;
        value           uniform 0;
    }
    plate
    {
        type            zeroGradient;
    }
    symmBound
    {
        type            zeroGradient;
    }
    frontAndBack
    {
        type            empty;
    }
}


// ************************************************************************* //
