/*--------------------------------*- C++ -*----------------------------------*\
| =========                 |                                                 |
| \\      /  F ield         | OpenFOAM: The Open Source CFD Toolbox           |
|  \\    /   O peration     | Version:  2.3.0                                 |
|   \\  /    A nd           | Web:      www.OpenFOAM.org                      |
|    \\/     M anipulation  |                                                 |
\*---------------------------------------------------------------------------*/
FoamFile
{
    version     2.0;
    format      ascii;
    class       surfaceScalarField;
    location    "0.8";
    object      phi;
}
// * * * * * * * * * * * * * * * * * * * * * * * * * * * * * * * * * * * * * //

dimensions      [0 3 -1 0 0 0 0];

internalField   nonuniform List<scalar> 
2863
(
2.8889e-08
2.77934e-09
-3.16684e-08
2.54109e-08
3.47819e-09
2.19511e-08
3.45979e-09
1.87415e-08
3.20958e-09
1.58153e-08
2.92617e-09
1.32526e-08
2.5627e-09
1.11508e-08
2.10182e-09
9.52635e-09
1.62444e-09
8.34247e-09
1.18388e-09
7.51274e-09
8.29737e-10
6.9377e-09
5.75034e-10
6.53194e-09
4.05762e-10
6.23246e-09
2.99478e-10
5.99602e-09
2.36446e-10
5.79392e-09
2.02093e-10
5.60975e-09
1.84174e-10
5.43599e-09
1.73763e-10
5.27033e-09
1.65659e-10
5.11281e-09
1.57513e-10
4.96416e-09
1.48656e-10
4.82495e-09
1.39213e-10
4.69537e-09
1.29576e-10
4.57523e-09
1.20145e-10
4.464e-09
1.11226e-10
4.36099e-09
1.03011e-10
4.2654e-09
9.55847e-11
4.17645e-09
8.89567e-11
4.09336e-09
8.30904e-11
4.01544e-09
7.79166e-11
3.94209e-09
7.33533e-11
3.87277e-09
6.93145e-11
3.80705e-09
6.57217e-11
3.74455e-09
6.25035e-11
3.68495e-09
5.9601e-11
3.62798e-09
5.69636e-11
3.57343e-09
5.45516e-11
3.5211e-09
5.23319e-11
3.47082e-09
5.02791e-11
3.42245e-09
4.83718e-11
3.37585e-09
4.65946e-11
3.33092e-09
4.49324e-11
3.28754e-09
4.33763e-11
3.24563e-09
4.19143e-11
3.20509e-09
4.05417e-11
3.16584e-09
3.92476e-11
3.12781e-09
3.80301e-11
3.09093e-09
3.68786e-11
3.05514e-09
3.57932e-11
3.02038e-09
3.47631e-11
2.98659e-09
3.37901e-11
2.95372e-09
3.28627e-11
2.92174e-09
3.19854e-11
2.89059e-09
3.11446e-11
2.86024e-09
3.03486e-11
2.83066e-09
2.95804e-11
2.80181e-09
2.88535e-11
2.77366e-09
2.81464e-11
2.74619e-09
2.74783e-11
2.71936e-09
2.68227e-11
2.69316e-09
2.62052e-11
2.66756e-09
2.55929e-11
2.64255e-09
2.50195e-11
2.6181e-09
2.44433e-11
2.59419e-09
2.39093e-11
2.57083e-09
2.33633e-11
2.54796e-09
2.28644e-11
2.52562e-09
2.23436e-11
2.50374e-09
2.18766e-11
2.48237e-09
2.13764e-11
2.46143e-09
2.09394e-11
2.44097e-09
2.04551e-11
2.42093e-09
2.00472e-11
2.40135e-09
1.95743e-11
2.38216e-09
1.91948e-11
2.36343e-09
1.87297e-11
2.34505e-09
1.83789e-11
2.32713e-09
1.79172e-11
2.30953e-09
1.75974e-11
2.2924e-09
1.71345e-11
2.27555e-09
1.6849e-11
2.25917e-09
1.63808e-11
2.24304e-09
1.61338e-11
2.22738e-09
1.56558e-11
2.21193e-09
1.5455e-11
2.19696e-09
1.49614e-11
2.18215e-09
1.48182e-11
2.16784e-09
1.43035e-11
2.15361e-09
1.42312e-11
2.13992e-09
1.36895e-11
2.12621e-09
1.37084e-11
2.11308e-09
1.313e-11
2.09981e-09
1.32701e-11
2.08717e-09
1.26438e-11
2.07423e-09
1.29433e-11
2.06197e-09
1.22515e-11
2.0492e-09
1.2771e-11
2.03722e-09
1.19812e-11
2.0244e-09
1.28237e-11
2.01252e-09
1.18823e-11
1.4762e-11
3.63144e-08
2.4895e-09
-3.60245e-08
3.61382e-08
3.65434e-09
3.54207e-08
4.17734e-09
3.44173e-08
4.21301e-09
3.32406e-08
4.10278e-09
3.19107e-08
3.89264e-09
3.04509e-08
3.56162e-09
2.89391e-08
3.13625e-09
2.74524e-08
2.6706e-09
2.60471e-08
2.23505e-09
2.47482e-08
1.87394e-09
2.3558e-08
1.5959e-09
2.24749e-08
1.38255e-09
2.14977e-08
1.21373e-09
2.06167e-08
1.08301e-09
1.98217e-08
9.79266e-10
1.91021e-08
8.93337e-10
1.84486e-08
8.19116e-10
1.78531e-08
7.53079e-10
1.73083e-08
6.93375e-10
1.68085e-08
6.39073e-10
1.63484e-08
5.89698e-10
1.59235e-08
5.44959e-10
1.55302e-08
5.0461e-10
1.51648e-08
4.68389e-10
1.48244e-08
4.35983e-10
1.45063e-08
4.07056e-10
1.42081e-08
3.81265e-10
1.39278e-08
3.58256e-10
1.36634e-08
3.37686e-10
1.34135e-08
3.19236e-10
1.31766e-08
3.02617e-10
1.29515e-08
2.87578e-10
1.27372e-08
2.739e-10
1.25328e-08
2.61403e-10
1.23374e-08
2.4993e-10
1.21504e-08
2.39358e-10
1.19711e-08
2.29577e-10
1.1799e-08
2.20504e-10
1.16335e-08
2.12061e-10
1.14742e-08
2.04189e-10
1.13208e-08
1.96833e-10
1.11728e-08
1.89949e-10
1.10298e-08
1.83494e-10
1.08916e-08
1.77433e-10
1.07579e-08
1.71734e-10
1.06284e-08
1.66367e-10
1.05029e-08
1.61306e-10
1.03812e-08
1.56525e-10
1.02629e-08
1.52001e-10
1.01481e-08
1.47714e-10
1.00364e-08
1.43645e-10
9.9278e-09
1.39775e-10
9.82206e-09
1.36092e-10
9.71906e-09
1.32573e-10
9.6187e-09
1.29215e-10
9.52085e-09
1.25994e-10
9.42542e-09
1.22913e-10
9.3323e-09
1.19945e-10
9.2414e-09
1.171e-10
9.15265e-09
1.14346e-10
9.06596e-09
1.11706e-10
8.98127e-09
1.09135e-10
8.89851e-09
1.06671e-10
8.81762e-09
1.04256e-10
8.73853e-09
1.01947e-10
8.66121e-09
9.96662e-11
8.58559e-09
9.74927e-11
8.51164e-09
9.53261e-11
8.43931e-09
9.32732e-11
8.36856e-09
9.12027e-11
8.29935e-09
8.92594e-11
8.23166e-09
8.72691e-11
8.16543e-09
8.54253e-11
8.10065e-09
8.35024e-11
8.03728e-09
8.17507e-11
7.97532e-09
7.98824e-11
7.91469e-09
7.8221e-11
7.85543e-09
7.63955e-11
7.79746e-09
7.4825e-11
7.7408e-09
7.3034e-11
7.68538e-09
7.15576e-11
7.63124e-09
6.97943e-11
7.57827e-09
6.84234e-11
7.52655e-09
6.66817e-11
7.47593e-09
6.54363e-11
7.42652e-09
6.37148e-11
7.37813e-09
6.26192e-11
7.3309e-09
6.09222e-11
7.28459e-09
6.0016e-11
7.23938e-09
5.83482e-11
7.19496e-09
5.76901e-11
7.15153e-09
5.6066e-11
7.10875e-09
5.57282e-11
7.06683e-09
5.41702e-11
7.02534e-09
5.42613e-11
6.98452e-09
5.27988e-11
6.94382e-09
5.35272e-11
6.90338e-09
5.23175e-11
5.65724e-11
4.03647e-08
2.37497e-09
-4.02502e-08
4.07802e-08
3.23888e-09
4.10341e-08
3.92337e-09
4.10958e-08
4.1514e-09
4.10412e-08
4.15734e-09
4.08658e-08
4.06807e-09
4.05328e-08
3.89461e-09
4.00419e-08
3.62712e-09
3.94233e-08
3.28924e-09
3.87213e-08
2.93702e-09
3.7974e-08
2.62123e-09
3.72061e-08
2.36379e-09
3.64307e-08
2.15797e-09
3.56548e-08
1.98964e-09
3.4887e-08
1.8508e-09
3.41326e-08
1.7336e-09
3.33949e-08
1.63105e-09
3.26759e-08
1.53818e-09
3.19769e-08
1.45204e-09
3.12992e-08
1.37111e-09
3.06436e-08
1.29469e-09
3.00107e-08
1.22253e-09
2.94011e-08
1.15455e-09
2.8815e-08
1.09075e-09
2.82523e-08
1.03113e-09
2.77127e-08
9.75578e-10
2.71957e-08
9.23984e-10
2.67008e-08
8.76179e-10
2.62271e-08
8.31953e-10
2.57738e-08
7.91058e-10
2.53397e-08
7.53244e-10
2.49241e-08
7.18249e-10
2.45259e-08
6.85839e-10
2.4144e-08
6.55774e-10
2.37775e-08
6.27859e-10
2.34256e-08
6.01889e-10
2.30872e-08
5.77711e-10
2.27616e-08
5.55151e-10
2.24481e-08
5.34094e-10
2.21457e-08
5.14392e-10
2.1854e-08
4.95956e-10
2.15721e-08
4.78659e-10
2.12996e-08
4.62436e-10
2.1036e-08
4.47172e-10
2.07806e-08
4.32821e-10
2.0533e-08
4.19278e-10
2.02929e-08
4.06516e-10
2.00598e-08
3.94432e-10
1.98333e-08
3.83018e-10
1.96131e-08
3.72173e-10
1.93989e-08
3.61904e-10
1.91904e-08
3.5211e-10
1.89874e-08
3.42815e-10
1.87896e-08
3.33917e-10
1.85967e-08
3.25451e-10
1.84086e-08
3.17316e-10
1.8225e-08
3.0956e-10
1.80459e-08
3.02077e-10
1.78709e-08
2.94931e-10
1.77e-08
2.88006e-10
1.75329e-08
2.81385e-10
1.73697e-08
2.74942e-10
1.72101e-08
2.68773e-10
1.7054e-08
2.62747e-10
1.69013e-08
2.5697e-10
1.67519e-08
2.51303e-10
1.66057e-08
2.45868e-10
1.64627e-08
2.4051e-10
1.63226e-08
2.35373e-10
1.61856e-08
2.30284e-10
1.60514e-08
2.25405e-10
1.59201e-08
2.2055e-10
1.57915e-08
2.15896e-10
1.56657e-08
2.11242e-10
1.55424e-08
2.06788e-10
1.54219e-08
2.02307e-10
1.53037e-08
1.98029e-10
1.51882e-08
1.93704e-10
1.5075e-08
1.89584e-10
1.49645e-08
1.85399e-10
1.48561e-08
1.81428e-10
1.47503e-08
1.77371e-10
1.46465e-08
1.73547e-10
1.45453e-08
1.69619e-10
1.4446e-08
1.65948e-10
1.43493e-08
1.62162e-10
1.42544e-08
1.58663e-10
1.41619e-08
1.55037e-10
1.40711e-08
1.51751e-10
1.39828e-08
1.48324e-10
1.38959e-08
1.45304e-10
1.38114e-08
1.42145e-10
1.3728e-08
1.39474e-10
1.3647e-08
1.3667e-10
1.35668e-08
1.34457e-10
1.34888e-08
1.32176e-10
1.34111e-08
1.30528e-10
1.33354e-08
1.29254e-10
1.32593e-08
1.28378e-10
1.31322e-10
4.48458e-08
2.3322e-09
-4.4803e-08
4.51503e-08
2.93435e-09
4.55395e-08
3.53415e-09
4.58386e-08
3.85233e-09
4.60654e-08
3.93052e-09
4.62466e-08
3.88686e-09
4.63599e-08
3.78134e-09
4.63779e-08
3.60917e-09
4.62902e-08
3.37686e-09
4.61113e-08
3.11598e-09
4.58674e-08
2.86509e-09
4.55801e-08
2.65113e-09
4.52607e-08
2.47737e-09
4.49141e-08
2.33626e-09
4.45461e-08
2.21879e-09
4.41616e-08
2.1181e-09
4.37637e-08
2.02897e-09
4.33543e-08
1.94755e-09
4.29349e-08
1.87138e-09
4.2507e-08
1.79901e-09
4.2072e-08
1.72973e-09
4.16313e-08
1.66321e-09
4.11865e-08
1.59937e-09
4.07391e-08
1.5382e-09
4.02904e-08
1.47976e-09
3.98419e-08
1.42405e-09
3.93948e-08
1.3711e-09
3.89502e-08
1.32085e-09
3.85089e-08
1.27325e-09
3.80718e-08
1.22815e-09
3.76396e-08
1.18545e-09
3.72128e-08
1.14498e-09
3.67921e-08
1.10662e-09
3.63776e-08
1.07019e-09
3.59699e-08
1.03562e-09
3.5569e-08
1.00272e-09
3.51753e-08
9.71454e-10
3.47888e-08
9.41654e-10
3.44096e-08
9.13308e-10
3.40377e-08
8.86249e-10
3.36732e-08
8.60495e-10
3.3316e-08
8.35877e-10
3.2966e-08
8.12436e-10
3.26232e-08
7.89997e-10
3.22873e-08
7.68625e-10
3.19585e-08
7.48129e-10
3.16364e-08
7.28605e-10
3.1321e-08
7.09841e-10
3.1012e-08
6.91966e-10
3.07095e-08
6.7474e-10
3.04131e-08
6.58329e-10
3.01227e-08
6.42465e-10
2.98382e-08
6.27354e-10
2.95594e-08
6.12693e-10
2.92861e-08
5.98732e-10
2.90183e-08
5.85128e-10
2.87557e-08
5.72186e-10
2.84982e-08
5.5951e-10
2.82457e-08
5.4747e-10
2.79981e-08
5.35605e-10
2.77551e-08
5.24362e-10
2.75169e-08
5.13206e-10
2.7283e-08
5.02669e-10
2.70536e-08
4.92131e-10
2.68283e-08
4.82219e-10
2.66074e-08
4.72214e-10
2.63904e-08
4.62859e-10
2.61776e-08
4.5331e-10
2.59685e-08
4.44452e-10
2.57635e-08
4.35291e-10
2.55621e-08
4.26876e-10
2.53646e-08
4.18043e-10
2.51704e-08
4.10026e-10
2.49802e-08
4.0146e-10
2.47932e-08
3.93809e-10
2.46101e-08
3.85456e-10
2.44299e-08
3.78144e-10
2.42537e-08
3.69961e-10
2.40803e-08
3.62969e-10
2.39108e-08
3.54915e-10
2.3744e-08
3.48243e-10
2.35811e-08
3.40279e-10
2.34207e-08
3.3394e-10
2.32642e-08
3.26046e-10
2.31101e-08
3.20066e-10
2.296e-08
3.12238e-10
2.2812e-08
3.06669e-10
2.26682e-08
2.98907e-10
2.25261e-08
2.93838e-10
2.23882e-08
2.8618e-10
2.22518e-08
2.81716e-10
2.21197e-08
2.7425e-10
2.19886e-08
2.70535e-10
2.18619e-08
2.63405e-10
2.17358e-08
2.60596e-10
2.16138e-08
2.54121e-10
2.1492e-08
2.52332e-10
2.13739e-08
2.47377e-10
2.12554e-08
2.46889e-10
2.45972e-10
4.98102e-08
2.28244e-09
-4.97604e-08
5.00134e-08
2.73117e-09
5.03548e-08
3.19271e-09
5.06816e-08
3.52549e-09
5.09484e-08
3.66377e-09
5.11719e-08
3.66334e-09
5.13643e-08
3.58892e-09
5.15095e-08
3.46399e-09
5.15903e-08
3.29604e-09
5.16055e-08
3.10083e-09
5.15686e-08
2.90198e-09
5.14982e-08
2.72148e-09
5.14053e-08
2.57028e-09
5.12942e-08
2.44737e-09
5.1168e-08
2.34499e-09
5.10293e-08
2.25684e-09
5.08796e-08
2.17865e-09
5.07197e-08
2.10749e-09
5.05496e-08
2.04144e-09
5.03694e-08
1.97922e-09
5.0179e-08
1.9201e-09
4.99787e-08
1.86358e-09
4.97685e-08
1.80949e-09
4.95491e-08
1.75764e-09
4.93208e-08
1.70805e-09
4.90842e-08
1.66062e-09
4.88399e-08
1.6154e-09
4.85885e-08
1.57227e-09
4.83305e-08
1.53124e-09
4.80666e-08
1.49213e-09
4.77971e-08
1.45492e-09
4.75227e-08
1.41938e-09
4.72438e-08
1.3855e-09
4.6961e-08
1.35304e-09
4.66746e-08
1.32201e-09
4.63851e-08
1.29218e-09
4.6093e-08
1.26361e-09
4.57986e-08
1.23604e-09
4.55023e-08
1.2096e-09
4.52045e-08
1.18401e-09
4.49056e-08
1.15945e-09
4.46058e-08
1.13561e-09
4.43056e-08
1.11272e-09
4.40051e-08
1.09042e-09
4.37047e-08
1.06903e-09
4.34047e-08
1.04813e-09
4.31052e-08
1.02809e-09
4.28067e-08
1.00843e-09
4.2509e-08
9.89603e-10
4.22127e-08
9.71057e-10
4.19177e-08
9.53334e-10
4.16244e-08
9.35783e-10
4.13327e-08
9.19055e-10
4.1043e-08
9.02394e-10
4.07551e-08
8.86567e-10
4.04696e-08
8.70696e-10
4.01861e-08
8.55688e-10
3.99051e-08
8.40516e-10
3.96263e-08
8.26254e-10
3.93502e-08
8.11697e-10
3.90764e-08
7.98117e-10
3.88055e-08
7.84099e-10
3.85371e-08
7.7114e-10
3.82716e-08
7.57589e-10
3.80086e-08
7.45203e-10
3.77488e-08
7.32047e-10
3.74915e-08
7.20191e-10
3.72374e-08
7.07361e-10
3.69859e-08
6.95998e-10
3.67377e-08
6.83428e-10
3.64921e-08
6.72525e-10
3.625e-08
6.60153e-10
3.60103e-08
6.49682e-10
3.57743e-08
6.37441e-10
3.55408e-08
6.27391e-10
3.5311e-08
6.15215e-10
3.50836e-08
6.05576e-10
3.48601e-08
5.93409e-10
3.46389e-08
5.84182e-10
3.44218e-08
5.71969e-10
3.42069e-08
5.63176e-10
3.39963e-08
5.50861e-10
3.37877e-08
5.42541e-10
3.35837e-08
5.30091e-10
3.33815e-08
5.22297e-10
3.3184e-08
5.09702e-10
3.29881e-08
5.0252e-10
3.27973e-08
4.89782e-10
3.26078e-08
4.83338e-10
3.24234e-08
4.70517e-10
3.22402e-08
4.6495e-10
3.20623e-08
4.52191e-10
3.18851e-08
4.47683e-10
3.17133e-08
4.3522e-10
3.15419e-08
4.31964e-10
3.13758e-08
4.2028e-10
3.12096e-08
4.18472e-10
3.10484e-08
4.08612e-10
3.08865e-08
4.0876e-10
4.02254e-10
5.52712e-08
2.221e-09
-5.52098e-08
5.54257e-08
2.57671e-09
5.56946e-08
2.92379e-09
5.59936e-08
3.22646e-09
5.62596e-08
3.3978e-09
5.64796e-08
3.44334e-09
5.66659e-08
3.40258e-09
5.68192e-08
3.31068e-09
5.69301e-08
3.18513e-09
5.69939e-08
3.03706e-09
5.70162e-08
2.87974e-09
5.70097e-08
2.72793e-09
5.69864e-08
2.59354e-09
5.69529e-08
2.48088e-09
5.6912e-08
2.38589e-09
5.68655e-08
2.30334e-09
5.68146e-08
2.22959e-09
5.67598e-08
2.16223e-09
5.67014e-08
2.09992e-09
5.6639e-08
2.04161e-09
5.65723e-08
1.98677e-09
5.6501e-08
1.93485e-09
5.64249e-08
1.88566e-09
5.63436e-08
1.83889e-09
5.62571e-08
1.79455e-09
5.61653e-08
1.7524e-09
5.60682e-08
1.71254e-09
5.59657e-08
1.67472e-09
5.58579e-08
1.63904e-09
5.57448e-08
1.6052e-09
5.56264e-08
1.57331e-09
5.55028e-08
1.54298e-09
5.5374e-08
1.51436e-09
5.524e-08
1.48701e-09
5.51009e-08
1.46116e-09
5.49567e-08
1.43631e-09
5.48076e-08
1.41277e-09
5.46536e-08
1.39002e-09
5.44947e-08
1.36844e-09
5.43313e-08
1.34744e-09
5.41632e-08
1.32753e-09
5.39908e-08
1.30802e-09
5.3814e-08
1.28953e-09
5.36331e-08
1.27128e-09
5.34482e-08
1.25401e-09
5.32595e-08
1.23684e-09
5.30669e-08
1.22062e-09
5.2871e-08
1.20434e-09
5.26716e-08
1.18904e-09
5.24691e-08
1.17352e-09
5.22634e-08
1.15901e-09
5.20551e-08
1.14411e-09
5.18439e-08
1.13028e-09
5.16304e-08
1.1159e-09
5.14143e-08
1.10267e-09
5.11963e-08
1.0887e-09
5.0976e-08
1.07598e-09
5.07542e-08
1.06234e-09
5.05303e-08
1.05008e-09
5.03054e-08
1.03666e-09
5.00787e-08
1.02481e-09
4.98512e-08
1.01156e-09
4.96223e-08
1.00007e-09
4.93929e-08
9.86919e-10
4.91624e-08
9.75758e-10
4.89318e-08
9.62629e-10
4.87002e-08
9.51776e-10
4.8469e-08
9.38601e-10
4.82369e-08
9.2804e-10
4.80056e-08
9.14758e-10
4.77737e-08
9.04474e-10
4.75428e-08
8.91024e-10
4.73115e-08
8.81013e-10
4.70816e-08
8.67324e-10
4.68514e-08
8.57595e-10
4.6623e-08
8.43601e-10
4.63944e-08
8.34167e-10
4.6168e-08
8.19814e-10
4.59415e-08
8.10695e-10
4.57175e-08
7.95928e-10
4.54935e-08
7.87167e-10
4.52725e-08
7.71932e-10
4.50514e-08
7.63589e-10
4.48336e-08
7.47863e-10
4.46159e-08
7.40012e-10
4.44018e-08
7.23808e-10
4.41878e-08
7.16552e-10
4.39777e-08
6.99895e-10
4.37676e-08
6.93389e-10
4.35618e-08
6.76388e-10
4.33559e-08
6.70792e-10
4.31544e-08
6.53665e-10
4.29529e-08
6.49203e-10
4.27559e-08
6.32262e-10
4.25586e-08
6.29213e-10
4.23659e-08
6.1304e-10
4.21726e-08
6.1178e-10
4.19838e-08
5.97381e-10
4.1794e-08
5.98563e-10
5.87106e-10
6.12844e-08
2.15649e-09
-6.12199e-08
6.14141e-08
2.44702e-09
6.1618e-08
2.71987e-09
6.18725e-08
2.97192e-09
6.21187e-08
3.1516e-09
6.23312e-08
3.23082e-09
6.25062e-08
3.22759e-09
6.26481e-08
3.16883e-09
6.27567e-08
3.07651e-09
6.28299e-08
2.96384e-09
6.28694e-08
2.8403e-09
6.28821e-08
2.71523e-09
6.28778e-08
2.59785e-09
6.28646e-08
2.49404e-09
6.28464e-08
2.4041e-09
6.2825e-08
2.32473e-09
6.28015e-08
2.2531e-09
6.27766e-08
2.18707e-09
6.27509e-08
2.12566e-09
6.27245e-08
2.06803e-09
6.26973e-08
2.01393e-09
6.26693e-08
1.96283e-09
6.26403e-08
1.91472e-09
6.261e-08
1.86912e-09
6.25784e-08
1.82619e-09
6.25453e-08
1.78549e-09
6.25106e-08
1.7473e-09
6.24741e-08
1.71113e-09
6.24359e-08
1.67733e-09
6.23957e-08
1.64535e-09
6.23535e-08
1.61556e-09
6.23091e-08
1.58731e-09
6.22625e-08
1.56104e-09
6.22135e-08
1.536e-09
6.21619e-08
1.51276e-09
6.21077e-08
1.49045e-09
6.20507e-08
1.46977e-09
6.1991e-08
1.44975e-09
6.19282e-08
1.43125e-09
6.18625e-08
1.41318e-09
6.17935e-08
1.39653e-09
6.17214e-08
1.38008e-09
6.16459e-08
1.36502e-09
6.15673e-08
1.34992e-09
6.14851e-08
1.33621e-09
6.13997e-08
1.32224e-09
6.13106e-08
1.30968e-09
6.12183e-08
1.29664e-09
6.11223e-08
1.28506e-09
6.1023e-08
1.27276e-09
6.09201e-08
1.262e-09
6.08139e-08
1.25029e-09
6.07039e-08
1.24023e-09
6.05909e-08
1.22896e-09
6.04741e-08
1.21948e-09
6.03542e-08
1.20851e-09
6.02307e-08
1.19953e-09
6.01043e-08
1.18875e-09
5.99742e-08
1.18017e-09
5.98414e-08
1.16947e-09
5.9705e-08
1.16123e-09
5.9566e-08
1.1505e-09
5.94236e-08
1.14254e-09
5.92788e-08
1.1317e-09
5.91305e-08
1.12398e-09
5.89802e-08
1.11293e-09
5.88266e-08
1.10542e-09
5.86711e-08
1.09407e-09
5.85124e-08
1.08672e-09
5.83522e-08
1.07499e-09
5.81889e-08
1.0678e-09
5.80243e-08
1.05562e-09
5.78567e-08
1.04856e-09
5.76882e-08
1.03584e-09
5.75169e-08
1.02892e-09
5.73449e-08
1.01558e-09
5.71703e-08
1.00879e-09
5.69953e-08
9.94791e-10
5.68179e-08
9.88137e-10
5.66404e-08
9.73417e-10
5.64606e-08
9.66942e-10
5.62811e-08
9.51434e-10
5.60995e-08
9.45184e-10
5.59185e-08
9.28889e-10
5.57356e-08
9.22924e-10
5.55535e-08
9.05889e-10
5.53698e-08
9.00298e-10
5.51871e-08
8.82559e-10
5.5003e-08
8.77509e-10
5.48201e-08
8.59218e-10
5.46361e-08
8.54867e-10
5.44534e-08
8.36313e-10
5.42697e-08
8.3293e-10
5.40875e-08
8.14446e-10
5.39043e-08
8.12414e-10
5.37227e-08
7.94643e-10
5.354e-08
7.94483e-10
5.33591e-08
7.78313e-10
5.3177e-08
7.80673e-10
7.6759e-10
6.79146e-08
2.09504e-09
-6.78531e-08
6.80238e-08
2.33781e-09
6.81823e-08
2.56132e-09
6.83864e-08
2.76787e-09
6.86007e-08
2.93727e-09
6.87968e-08
3.03474e-09
6.89604e-08
3.06393e-09
6.90906e-08
3.03868e-09
6.91905e-08
2.97659e-09
6.92623e-08
2.89201e-09
6.93074e-08
2.79519e-09
6.93293e-08
2.69339e-09
6.9334e-08
2.59314e-09
6.93287e-08
2.49933e-09
6.93182e-08
2.41463e-09
6.93046e-08
2.33826e-09
6.92892e-08
2.26859e-09
6.92725e-08
2.20376e-09
6.92551e-08
2.14304e-09
6.92375e-08
2.08558e-09
6.922e-08
2.03146e-09
6.92027e-08
1.98012e-09
6.91856e-08
1.93184e-09
6.91687e-08
1.88601e-09
6.91519e-08
1.843e-09
6.91353e-08
1.80214e-09
6.91186e-08
1.76395e-09
6.9102e-08
1.7277e-09
6.90854e-08
1.69399e-09
6.90687e-08
1.66199e-09
6.90519e-08
1.63241e-09
6.90349e-08
1.60425e-09
6.90176e-08
1.57835e-09
6.90001e-08
1.55357e-09
6.89819e-08
1.53089e-09
6.89634e-08
1.50901e-09
6.8944e-08
1.48911e-09
6.89241e-08
1.46971e-09
6.89031e-08
1.45221e-09
6.88814e-08
1.43493e-09
6.88584e-08
1.4195e-09
6.88345e-08
1.40403e-09
6.88091e-08
1.39039e-09
6.87826e-08
1.37643e-09
6.87544e-08
1.36434e-09
6.8725e-08
1.35166e-09
6.86938e-08
1.34092e-09
6.86611e-08
1.3293e-09
6.86265e-08
1.31971e-09
6.85903e-08
1.30896e-09
6.85519e-08
1.30037e-09
6.85119e-08
1.29031e-09
6.84696e-08
1.28256e-09
6.84255e-08
1.27304e-09
6.83789e-08
1.26603e-09
6.83306e-08
1.25688e-09
6.82796e-08
1.2505e-09
6.82268e-08
1.24159e-09
6.81712e-08
1.23574e-09
6.81137e-08
1.22696e-09
6.80534e-08
1.22153e-09
6.79911e-08
1.21277e-09
6.7926e-08
1.20771e-09
6.78588e-08
1.19884e-09
6.77887e-08
1.19409e-09
6.77166e-08
1.18501e-09
6.76416e-08
1.18051e-09
6.75645e-08
1.17112e-09
6.74844e-08
1.16681e-09
6.74024e-08
1.15702e-09
6.73173e-08
1.15285e-09
6.72304e-08
1.14258e-09
6.71404e-08
1.13853e-09
6.70486e-08
1.12767e-09
6.69538e-08
1.12371e-09
6.68572e-08
1.11219e-09
6.67577e-08
1.10825e-09
6.66565e-08
1.09603e-09
6.65525e-08
1.09211e-09
6.64468e-08
1.07911e-09
6.63385e-08
1.07526e-09
6.62285e-08
1.06141e-09
6.61161e-08
1.05759e-09
6.60021e-08
1.04291e-09
6.58859e-08
1.03915e-09
6.5768e-08
1.02374e-09
6.56482e-08
1.02012e-09
6.55268e-08
1.00396e-09
6.54037e-08
1.00065e-09
6.52789e-08
9.83943e-10
6.51528e-08
9.8103e-10
6.5025e-08
9.64127e-10
6.48959e-08
9.61975e-10
6.47652e-08
9.45151e-10
6.46334e-08
9.44181e-10
6.44999e-08
9.28156e-10
6.43655e-08
9.28921e-10
6.42293e-08
9.14465e-10
6.40923e-08
9.17674e-10
9.06575e-10
6.76202e-08
2.04851e-09
-6.75736e-08
6.76995e-08
2.25852e-09
6.78122e-08
2.44856e-09
6.79559e-08
2.62423e-09
6.81158e-08
2.77733e-09
6.82696e-08
2.88092e-09
6.84037e-08
2.92981e-09
6.85124e-08
2.93003e-09
6.85959e-08
2.89306e-09
6.86569e-08
2.83103e-09
6.86977e-08
2.7544e-09
6.87209e-08
2.67019e-09
6.873e-08
2.58399e-09
6.87297e-08
2.49965e-09
6.8724e-08
2.42039e-09
6.87153e-08
2.34691e-09
6.87048e-08
2.27906e-09
6.86932e-08
2.21538e-09
6.86808e-08
2.15545e-09
6.86681e-08
2.09831e-09
6.86552e-08
2.04429e-09
6.86426e-08
1.99276e-09
6.86302e-08
1.94424e-09
6.86182e-08
1.89802e-09
6.86065e-08
1.85469e-09
6.85953e-08
1.81341e-09
6.85843e-08
1.77489e-09
6.85738e-08
1.73819e-09
6.85636e-08
1.70416e-09
6.85539e-08
1.67171e-09
6.85445e-08
1.64182e-09
6.85355e-08
1.61323e-09
6.85268e-08
1.58708e-09
6.85185e-08
1.56192e-09
6.85103e-08
1.53908e-09
6.85024e-08
1.5169e-09
6.84945e-08
1.49694e-09
6.84869e-08
1.47734e-09
6.84792e-08
1.4599e-09
6.84716e-08
1.44251e-09
6.84639e-08
1.42726e-09
6.84561e-08
1.41177e-09
6.84481e-08
1.39843e-09
6.844e-08
1.38455e-09
6.84314e-08
1.37287e-09
6.84227e-08
1.36036e-09
6.84135e-08
1.35014e-09
6.8404e-08
1.33878e-09
6.83939e-08
1.32983e-09
6.83834e-08
1.31943e-09
6.83722e-08
1.31158e-09
6.83606e-08
1.30197e-09
6.83481e-08
1.29507e-09
6.8335e-08
1.28607e-09
6.83211e-08
1.28001e-09
6.83065e-08
1.27148e-09
6.82908e-08
1.26615e-09
6.82745e-08
1.25794e-09
6.8257e-08
1.25323e-09
6.82387e-08
1.24525e-09
6.82192e-08
1.24105e-09
6.81988e-08
1.23318e-09
6.81771e-08
1.22941e-09
6.81544e-08
1.22151e-09
6.81303e-08
1.21814e-09
6.81052e-08
1.21011e-09
6.80787e-08
1.20706e-09
6.8051e-08
1.19882e-09
6.80218e-08
1.19598e-09
6.79914e-08
1.18745e-09
6.79595e-08
1.18476e-09
6.79262e-08
1.17584e-09
6.78914e-08
1.17331e-09
6.78552e-08
1.16387e-09
6.78175e-08
1.16145e-09
6.77782e-08
1.15146e-09
6.77375e-08
1.14899e-09
6.76951e-08
1.13842e-09
6.76513e-08
1.13593e-09
6.76057e-08
1.12467e-09
6.75588e-08
1.1222e-09
6.751e-08
1.1102e-09
6.74599e-08
1.10766e-09
6.74078e-08
1.09497e-09
6.73547e-08
1.09232e-09
6.72994e-08
1.07903e-09
6.7243e-08
1.07646e-09
6.71845e-08
1.06248e-09
6.7125e-08
1.06009e-09
6.70632e-08
1.04576e-09
6.70007e-08
1.04353e-09
6.69357e-08
1.02913e-09
6.68701e-08
1.02764e-09
6.68018e-08
1.01341e-09
6.67331e-08
1.01294e-09
6.66615e-08
9.99722e-10
6.65895e-08
1.00087e-09
6.65148e-08
9.89215e-10
6.64393e-08
9.93141e-10
9.84376e-10
8.54424e-08
2.00074e-09
-8.53946e-08
8.55162e-08
2.18471e-09
8.56169e-08
2.34788e-09
8.57421e-08
2.49906e-09
8.58855e-08
2.63386e-09
8.60259e-08
2.74052e-09
8.61527e-08
2.80304e-09
8.62582e-08
2.82454e-09
8.63401e-08
2.81112e-09
8.64003e-08
2.77089e-09
8.64418e-08
2.71285e-09
8.64679e-08
2.64412e-09
8.64814e-08
2.57047e-09
8.64856e-08
2.49546e-09
8.64837e-08
2.42231e-09
8.64782e-08
2.35238e-09
8.64705e-08
2.28674e-09
8.64613e-08
2.2246e-09
8.64509e-08
2.16587e-09
8.64397e-08
2.1095e-09
8.6428e-08
2.05593e-09
8.64164e-08
2.00444e-09
8.64048e-08
1.95579e-09
8.63936e-08
1.90921e-09
8.63828e-08
1.86552e-09
8.63724e-08
1.82379e-09
8.63624e-08
1.78489e-09
8.63529e-08
1.74774e-09
8.63437e-08
1.71331e-09
8.63351e-08
1.68037e-09
8.63268e-08
1.65006e-09
8.63191e-08
1.62096e-09
8.63118e-08
1.59441e-09
8.63049e-08
1.56875e-09
8.62985e-08
1.54554e-09
8.62924e-08
1.52292e-09
8.62867e-08
1.50266e-09
8.62814e-08
1.48268e-09
8.62763e-08
1.46499e-09
8.62715e-08
1.4473e-09
8.62669e-08
1.43185e-09
8.62626e-08
1.41612e-09
8.62583e-08
1.40265e-09
8.62543e-08
1.38859e-09
8.62503e-08
1.37685e-09
8.62465e-08
1.36421e-09
8.62427e-08
1.35398e-09
8.62389e-08
1.34256e-09
8.62351e-08
1.33363e-09
8.62313e-08
1.32325e-09
8.62274e-08
1.31546e-09
8.62234e-08
1.30593e-09
8.62193e-08
1.29915e-09
8.62151e-08
1.29029e-09
8.62107e-08
1.28439e-09
8.62061e-08
1.27606e-09
8.62014e-08
1.27094e-09
8.61963e-08
1.26302e-09
8.6191e-08
1.25852e-09
8.61853e-08
1.25094e-09
8.61794e-08
1.24696e-09
8.6173e-08
1.23957e-09
8.61663e-08
1.23607e-09
8.61591e-08
1.22872e-09
8.61516e-08
1.22566e-09
8.61435e-08
1.21827e-09
8.6135e-08
1.21552e-09
8.61258e-08
1.20806e-09
8.61162e-08
1.2055e-09
8.61058e-08
1.1979e-09
8.60951e-08
1.19548e-09
8.60833e-08
1.18757e-09
8.60713e-08
1.18535e-09
8.60582e-08
1.17702e-09
8.60447e-08
1.17487e-09
8.603e-08
1.16622e-09
8.6015e-08
1.16392e-09
8.59986e-08
1.15484e-09
8.5982e-08
1.15253e-09
8.59639e-08
1.14282e-09
8.59455e-08
1.14054e-09
8.59254e-08
1.13029e-09
8.59053e-08
1.12783e-09
8.58831e-08
1.11711e-09
8.5861e-08
1.11442e-09
8.58368e-08
1.10323e-09
8.58126e-08
1.10069e-09
8.57862e-08
1.08891e-09
8.57598e-08
1.08643e-09
8.5731e-08
1.07462e-09
8.57023e-08
1.07217e-09
8.56712e-08
1.06031e-09
8.564e-08
1.05876e-09
8.56062e-08
1.04728e-09
8.55725e-08
1.04657e-09
8.55359e-08
1.03632e-09
8.54995e-08
1.03736e-09
8.54599e-08
1.02876e-09
8.54205e-08
1.0325e-09
1.02639e-09
1.07982e-07
1.9608e-09
-1.07942e-07
1.0804e-07
2.1262e-09
1.08117e-07
2.27098e-09
1.0821e-07
2.40563e-09
1.08318e-07
2.52652e-09
1.08426e-07
2.6326e-09
1.08525e-07
2.70384e-09
1.0861e-07
2.73938e-09
1.08678e-07
2.74329e-09
1.08728e-07
2.72041e-09
1.08764e-07
2.67742e-09
1.08787e-07
2.62062e-09
1.08802e-07
2.55616e-09
1.08809e-07
2.48814e-09
1.08811e-07
2.42011e-09
1.0881e-07
2.35365e-09
1.08806e-07
2.29031e-09
1.08801e-07
2.2298e-09
1.08795e-07
2.17242e-09
1.08787e-07
2.11712e-09
1.08779e-07
2.06429e-09
1.0877e-07
2.01314e-09
1.08761e-07
1.96452e-09
1.08753e-07
1.91775e-09
1.08744e-07
1.87377e-09
1.08736e-07
1.83171e-09
1.08729e-07
1.79251e-09
1.08721e-07
1.75505e-09
1.08714e-07
1.72031e-09
1.08708e-07
1.68705e-09
1.08701e-07
1.6564e-09
1.08695e-07
1.62694e-09
1.0869e-07
1.60001e-09
1.08685e-07
1.574e-09
1.0868e-07
1.55043e-09
1.08675e-07
1.52749e-09
1.08671e-07
1.50688e-09
1.08667e-07
1.48664e-09
1.08663e-07
1.46864e-09
1.0866e-07
1.45072e-09
1.08657e-07
1.435e-09
1.08654e-07
1.41908e-09
1.08651e-07
1.40537e-09
1.08649e-07
1.39116e-09
1.08646e-07
1.3792e-09
1.08644e-07
1.36646e-09
1.08642e-07
1.35603e-09
1.0864e-07
1.34456e-09
1.08638e-07
1.33543e-09
1.08636e-07
1.32506e-09
1.08635e-07
1.31707e-09
1.08633e-07
1.30759e-09
1.08632e-07
1.30061e-09
1.0863e-07
1.29184e-09
1.08629e-07
1.28577e-09
1.08627e-07
1.27756e-09
1.08626e-07
1.27225e-09
1.08624e-07
1.26452e-09
1.08623e-07
1.25981e-09
1.08621e-07
1.25249e-09
1.0862e-07
1.24828e-09
1.08618e-07
1.2412e-09
1.08617e-07
1.23749e-09
1.08615e-07
1.23048e-09
1.08614e-07
1.22718e-09
1.08612e-07
1.22022e-09
1.0861e-07
1.21719e-09
1.08608e-07
1.21025e-09
1.08606e-07
1.20737e-09
1.08604e-07
1.20037e-09
1.08601e-07
1.19763e-09
1.08599e-07
1.19034e-09
1.08596e-07
1.18783e-09
1.08593e-07
1.1802e-09
1.0859e-07
1.17767e-09
1.08587e-07
1.16988e-09
1.08583e-07
1.16716e-09
1.08579e-07
1.15898e-09
1.08575e-07
1.1563e-09
1.08571e-07
1.14753e-09
1.08566e-07
1.14484e-09
1.08561e-07
1.13568e-09
1.08556e-07
1.13274e-09
1.0855e-07
1.12325e-09
1.08544e-07
1.12009e-09
1.08537e-07
1.1101e-09
1.08531e-07
1.1072e-09
1.08523e-07
1.09671e-09
1.08516e-07
1.09376e-09
1.08507e-07
1.08346e-09
1.08499e-07
1.08062e-09
1.08489e-07
1.07017e-09
1.08479e-07
1.06836e-09
1.08468e-07
1.05849e-09
1.08457e-07
1.05747e-09
1.08444e-07
1.04887e-09
1.08432e-07
1.04989e-09
1.08418e-07
1.043e-09
1.08404e-07
1.04656e-09
1.04152e-09
1.36516e-07
-1.36501e-07
1.36538e-07
1.36567e-07
1.36604e-07
1.36646e-07
1.36691e-07
1.36734e-07
1.36771e-07
1.36803e-07
1.36827e-07
1.36845e-07
1.36857e-07
1.36866e-07
1.36871e-07
1.36874e-07
1.36876e-07
1.36876e-07
1.36876e-07
1.36875e-07
1.36873e-07
1.36871e-07
1.36868e-07
1.36865e-07
1.36863e-07
1.3686e-07
1.36858e-07
1.36855e-07
1.36853e-07
1.36851e-07
1.36849e-07
1.36847e-07
1.36845e-07
1.36843e-07
1.36841e-07
1.3684e-07
1.36838e-07
1.36837e-07
1.36836e-07
1.36835e-07
1.36834e-07
1.36833e-07
1.36832e-07
1.36831e-07
1.36831e-07
1.3683e-07
1.3683e-07
1.36829e-07
1.36829e-07
1.36828e-07
1.36828e-07
1.36828e-07
1.36828e-07
1.36827e-07
1.36827e-07
1.36827e-07
1.36827e-07
1.36827e-07
1.36827e-07
1.36827e-07
1.36827e-07
1.36827e-07
1.36826e-07
1.36827e-07
1.36826e-07
1.36826e-07
1.36826e-07
1.36826e-07
1.36826e-07
1.36826e-07
1.36826e-07
1.36826e-07
1.36826e-07
1.36826e-07
1.36826e-07
1.36826e-07
1.36825e-07
1.36825e-07
1.36825e-07
1.36825e-07
1.36824e-07
1.36824e-07
1.36823e-07
1.36823e-07
1.36822e-07
1.36821e-07
1.3682e-07
1.36819e-07
1.36818e-07
1.36817e-07
1.36816e-07
1.36814e-07
1.36812e-07
1.36811e-07
1.36809e-07
1.36806e-07
1.36804e-07
1.36801e-07
1.36798e-07
1.36794e-07
3.44473e-08
8.81019e-11
3.44492e-08
-6.21387e-11
3.44458e-08
7.40981e-11
3.44491e-08
-5.82155e-11
3.4442e-08
6.83007e-11
3.44404e-08
-4.67038e-11
3.44288e-08
6.81784e-11
3.44228e-08
-3.21662e-11
3.4406e-08
7.12838e-11
3.43946e-08
-1.34121e-11
3.43704e-08
8.0541e-11
3.43532e-08
1.34219e-11
3.43194e-08
9.75543e-11
3.42906e-08
4.82322e-11
3.42446e-08
1.20234e-10
3.42006e-08
9.31524e-11
3.41376e-08
1.52603e-10
3.40727e-08
1.53725e-10
3.39859e-08
1.99521e-10
3.38892e-08
2.3847e-10
3.37607e-08
2.76027e-10
3.35859e-08
3.9043e-10
3.33145e-08
4.85047e-10
3.27395e-08
9.52951e-10
1.57503e-09
3.80435e-08
9.32811e-11
3.80445e-08
-6.31209e-11
3.80403e-08
7.83545e-11
3.80398e-08
-5.77708e-11
3.80338e-08
7.43519e-11
3.80274e-08
-4.03656e-11
3.80199e-08
7.57036e-11
3.80063e-08
-1.85898e-11
3.79969e-08
8.07315e-11
3.79732e-08
1.02326e-11
3.79604e-08
9.33821e-11
3.79246e-08
4.9228e-11
3.79061e-08
1.16051e-10
3.78534e-08
1.00964e-10
3.78263e-08
1.47298e-10
3.77508e-08
1.686e-10
3.77115e-08
1.91992e-10
3.76044e-08
2.60754e-10
3.75457e-08
2.5827e-10
3.73901e-08
3.94087e-10
3.7286e-08
3.80061e-10
3.70271e-08
6.49389e-10
3.67646e-08
7.47506e-10
3.63232e-08
1.39435e-09
1.87369e-09
4.20233e-08
7.91554e-11
4.20021e-08
-4.19094e-11
4.20192e-08
6.12059e-11
4.19957e-08
-3.41806e-11
4.20122e-08
5.77674e-11
4.19819e-08
-1.00629e-11
4.19963e-08
6.13743e-11
4.1959e-08
1.8707e-11
4.19694e-08
7.02658e-11
4.19239e-08
5.58144e-11
4.19277e-08
8.95292e-11
4.18722e-08
1.04728e-10
4.18652e-08
1.23091e-10
4.1798e-08
1.68126e-10
4.1773e-08
1.72327e-10
4.16925e-08
2.49066e-10
4.16398e-08
2.44664e-10
4.15434e-08
3.57162e-10
4.14462e-08
3.55519e-10
4.13223e-08
5.17992e-10
4.11376e-08
5.64709e-10
4.0949e-08
8.38012e-10
4.06304e-08
1.06613e-09
4.04437e-08
1.58102e-09
2.06721e-09
4.64055e-08