/*--------------------------------*- C++ -*----------------------------------*\
| =========                 |                                                 |
| \\      /  F ield         | OpenFOAM: The Open Source CFD Toolbox           |
|  \\    /   O peration     | Version:  2.3.0                                 |
|   \\  /    A nd           | Web:      www.OpenFOAM.org                      |
|    \\/     M anipulation  |                                                 |
\*---------------------------------------------------------------------------*/
FoamFile
{
    version     2.0;
    format      ascii;
    class       volVectorField;
    location    "0.6";
    object      U_0;
}
// * * * * * * * * * * * * * * * * * * * * * * * * * * * * * * * * * * * * * //

dimensions      [0 1 -1 0 0 0 0];

internalField   nonuniform List<vector> 
8750
(
(0.171314 0.00595333 0)
(0.154869 0.00602774 0)
(0.139057 0.00561148 0)
(0.124065 0.00501456 0)
(0.110306 0.00435467 0)
(0.0979499 0.00368519 0)
(0.0870082 0.00304288 0)
(0.0774469 0.00245317 0)
(0.0692103 0.00193153 0)
(0.0622137 0.00148581 0)
(0.0563437 0.00111769 0)
(0.0514676 0.000823713 0)
(0.0474448 0.000596504 0)
(0.0441364 0.000426362 0)
(0.0414125 0.000302783 0)
(0.0391574 0.000215651 0)
(0.0372721 0.000155988 0)
(0.0356753 0.000116298 0)
(0.034302 9.062e-05 0)
(0.0331019 7.44092e-05 0)
(0.0320368 6.43396e-05 0)
(0.0310784 5.80748e-05 0)
(0.0302057 5.40448e-05 0)
(0.0294035 5.12448e-05 0)
(0.0286605 4.90671e-05 0)
(0.0279682 4.7169e-05 0)
(0.0273203 4.53752e-05 0)
(0.0267118 4.361e-05 0)
(0.0261385 4.1852e-05 0)
(0.0255972 4.01066e-05 0)
(0.025085 3.83888e-05 0)
(0.0245992 3.67153e-05 0)
(0.0241378 3.50999e-05 0)
(0.0236988 3.35525e-05 0)
(0.0232804 3.20789e-05 0)
(0.022881 3.06817e-05 0)
(0.0224993 2.93607e-05 0)
(0.0221338 2.8114e-05 0)
(0.0217835 2.69386e-05 0)
(0.0214473 2.58306e-05 0)
(0.0211243 2.47861e-05 0)
(0.0208135 2.3801e-05 0)
(0.0205143 2.28711e-05 0)
(0.0202258 2.19926e-05 0)
(0.0199476 2.11618e-05 0)
(0.0196788 2.03754e-05 0)
(0.0194191 1.96302e-05 0)
(0.0191679 1.89233e-05 0)
(0.0189247 1.8252e-05 0)
(0.0186892 1.76139e-05 0)
(0.0184609 1.70067e-05 0)
(0.0182395 1.64284e-05 0)
(0.0180247 1.5877e-05 0)
(0.017816 1.53508e-05 0)
(0.0176134 1.48482e-05 0)
(0.0174164 1.43677e-05 0)
(0.0172249 1.39079e-05 0)
(0.0170385 1.34676e-05 0)
(0.0168572 1.30456e-05 0)
(0.0166807 1.26407e-05 0)
(0.0165087 1.22521e-05 0)
(0.0163412 1.18787e-05 0)
(0.016178 1.15198e-05 0)
(0.0160189 1.11744e-05 0)
(0.0158638 1.0842e-05 0)
(0.0157125 1.05217e-05 0)
(0.0155649 1.0213e-05 0)
(0.015421 9.91524e-06 0)
(0.0152805 9.62792e-06 0)
(0.0151434 9.35054e-06 0)
(0.0150096 9.08261e-06 0)
(0.014879 8.82375e-06 0)
(0.0147515 8.57355e-06 0)
(0.014627 8.33168e-06 0)
(0.0145055 8.09781e-06 0)
(0.0143869 7.87167e-06 0)
(0.0142711 7.65303e-06 0)
(0.0141581 7.44168e-06 0)
(0.0140477 7.23745e-06 0)
(0.01394 7.04021e-06 0)
(0.0138348 6.84989e-06 0)
(0.0137322 6.66642e-06 0)
(0.013632 6.48983e-06 0)
(0.0135343 6.32018e-06 0)
(0.0134389 6.15756e-06 0)
(0.0133458 6.00224e-06 0)
(0.013255 5.85443e-06 0)
(0.0131663 5.71455e-06 0)
(0.0130798 5.58315e-06 0)
(0.0129953 5.46091e-06 0)
(0.0129127 5.34888e-06 0)
(0.0128321 5.24853e-06 0)
(0.0127531 5.16206e-06 0)
(0.0126758 5.09304e-06 0)
(0.0125998 5.0478e-06 0)
(0.012525 5.03898e-06 0)
(0.0124507 5.09979e-06 0)
(0.0123754 5.29458e-06 0)
(0.0123092 4.88601e-06 0)
(0.01212 2.68412e-05 0)
(0.190158 0.0093978 0)
(0.187829 0.0099063 0)
(0.183889 0.00968169 0)
(0.178697 0.00918414 0)
(0.172757 0.00855201 0)
(0.16642 0.00783147 0)
(0.159909 0.00706042 0)
(0.153393 0.0062737 0)
(0.147006 0.00550051 0)
(0.14085 0.00476477 0)
(0.134991 0.0040852 0)
(0.129471 0.0034747 0)
(0.124307 0.00294009 0)
(0.119504 0.00248258 0)
(0.115052 0.00209878 0)
(0.110936 0.00178208 0)
(0.107133 0.00152395 0)
(0.103622 0.00131521 0)
(0.100377 0.00114693 0)
(0.0973751 0.00101103 0)
(0.0945919 0.000900584 0)
(0.0920066 0.000809929 0)
(0.0895993 0.000734573 0)
(0.0873523 0.000671055 0)
(0.0852498 0.000616761 0)
(0.0832775 0.000569738 0)
(0.0814231 0.000528538 0)
(0.0796754 0.000492084 0)
(0.0780247 0.000459568 0)
(0.0764623 0.000430373 0)
(0.0749807 0.00040402 0)
(0.073573 0.000380125 0)
(0.0722332 0.000358377 0)
(0.070956 0.000338518 0)
(0.0697365 0.000320328 0)
(0.0685704 0.000303621 0)
(0.0674539 0.000288234 0)
(0.0663834 0.000274027 0)
(0.0653559 0.000260878 0)
(0.0643684 0.000248679 0)
(0.0634183 0.000237337 0)
(0.0625033 0.000226767 0)
(0.0616213 0.000216898 0)
(0.0607702 0.000207665 0)
(0.0599483 0.00019901 0)
(0.059154 0.000190883 0)
(0.0583856 0.00018324 0)
(0.0576418 0.000176038 0)
(0.0569214 0.000169244 0)
(0.0562231 0.000162823 0)
(0.0555458 0.000156748 0)
(0.0548886 0.000150991 0)
(0.0542504 0.000145529 0)
(0.0536305 0.000140341 0)
(0.0530279 0.000135406 0)
(0.0524419 0.000130706 0)
(0.0518719 0.000126226 0)
(0.0513172 0.000121951 0)
(0.0507771 0.000117866 0)
(0.0502511 0.000113959 0)
(0.0497386 0.000110218 0)
(0.0492392 0.000106633 0)
(0.0487524 0.000103194 0)
(0.0482778 9.98917e-05 0)
(0.0478149 9.67174e-05 0)
(0.0473633 9.36636e-05 0)
(0.0469229 9.07229e-05 0)
(0.0464931 8.78886e-05 0)
(0.0460736 8.51545e-05 0)
(0.0456643 8.25147e-05 0)
(0.0452648 7.99639e-05 0)
(0.0448749 7.74972e-05 0)
(0.0444943 7.51098e-05 0)
(0.0441229 7.27976e-05 0)
(0.0437604 7.05566e-05 0)
(0.0434066 6.83831e-05 0)
(0.0430614 6.62739e-05 0)
(0.0427245 6.42261e-05 0)
(0.0423959 6.22368e-05 0)
(0.0420754 6.03038e-05 0)
(0.0417629 5.8425e-05 0)
(0.0414583 5.65987e-05 0)
(0.0411613 5.48235e-05 0)
(0.0408719 5.30986e-05 0)
(0.0405901 5.14234e-05 0)
(0.0403156 4.97979e-05 0)
(0.0400484 4.82226e-05 0)
(0.0397883 4.66989e-05 0)
(0.0395352 4.5229e-05 0)
(0.0392891 4.38162e-05 0)
(0.0390496 4.24656e-05 0)
(0.0388167 4.11848e-05 0)
(0.0385901 3.99854e-05 0)
(0.0383695 3.88863e-05 0)
(0.0381545 3.79213e-05 0)
(0.0379445 3.71605e-05 0)
(0.0377384 3.67761e-05 0)
(0.0375332 3.72067e-05 0)
(0.0373411 4.07213e-05 0)
(0.0369678 9.11914e-05 0)
(0.193144 0.00903126 0)
(0.193927 0.0099864 0)
(0.194046 0.0103164 0)
(0.193354 0.0103182 0)
(0.191968 0.0100921 0)
(0.190013 0.00967652 0)
(0.187581 0.00911629 0)
(0.184764 0.00846109 0)
(0.181656 0.00775615 0)
(0.178347 0.00703975 0)
(0.174914 0.00634263 0)
(0.171423 0.00568743 0)
(0.167924 0.0050886 0)
(0.164457 0.00455318 0)
(0.161051 0.00408224 0)
(0.157726 0.0036726 0)
(0.154495 0.00331849 0)
(0.151365 0.00301295 0)
(0.148339 0.00274888 0)
(0.145418 0.00251963 0)
(0.142602 0.00231939 0)
(0.139888 0.00214329 0)
(0.137272 0.00198732 0)
(0.134752 0.00184826 0)
(0.132325 0.00172354 0)
(0.129987 0.00161111 0)
(0.127733 0.0015093 0)
(0.125562 0.00141677 0)
(0.123469 0.00133241 0)
(0.12145 0.00125529 0)
(0.119503 0.00118461 0)
(0.117625 0.00111968 0)
(0.115812 0.00105992 0)
(0.11406 0.0010048 0)
(0.112369 0.000953867 0)
(0.110733 0.000906709 0)
(0.109152 0.000862966 0)
(0.107622 0.000822317 0)
(0.106141 0.000784474 0)
(0.104707 0.000749183 0)
(0.103317 0.000716214 0)
(0.101969 0.000685363 0)
(0.100663 0.000656448 0)
(0.0993943 0.000629303 0)
(0.098163 0.000603781 0)
(0.096967 0.00057975 0)
(0.0958048 0.00055709 0)
(0.0946749 0.000535694 0)
(0.0935759 0.000515464 0)
(0.0925065 0.00049631 0)
(0.0914656 0.000478154 0)
(0.090452 0.000460922 0)
(0.0894647 0.000444547 0)
(0.0885025 0.000428968 0)
(0.0875646 0.000414131 0)
(0.0866501 0.000399984 0)
(0.0857581 0.000386481 0)
(0.0848878 0.000373578 0)
(0.0840384 0.000361236 0)
(0.0832094 0.000349418 0)
(0.0824 0.000338092 0)
(0.0816095 0.000327224 0)
(0.0808375 0.000316788 0)
(0.0800833 0.000306755 0)
(0.0793465 0.000297101 0)
(0.0786265 0.000287803 0)
(0.0779229 0.00027884 0)
(0.0772353 0.00027019 0)
(0.0765633 0.000261836 0)
(0.0759065 0.000253761 0)
(0.0752646 0.000245947 0)
(0.0746372 0.000238379 0)
(0.074024 0.000231044 0)
(0.0734249 0.000223929 0)
(0.0728394 0.00021702 0)
(0.0722675 0.000210307 0)
(0.0717088 0.00020378 0)
(0.0711632 0.000197428 0)
(0.0706305 0.000191242 0)
(0.0701105 0.000185216 0)
(0.069603 0.000179342 0)
(0.069108 0.000173613 0)
(0.0686253 0.000168025 0)
(0.0681547 0.000162573 0)
(0.0676962 0.000157255 0)
(0.0672497 0.000152069 0)
(0.066815 0.000147015 0)
(0.066392 0.000142095 0)
(0.0659806 0.000137312 0)
(0.0655807 0.000132675 0)
(0.0651921 0.000128195 0)
(0.0648147 0.000123888 0)
(0.0644481 0.000119783 0)
(0.0640921 0.000115924 0)
(0.0637462 0.000112389 0)
(0.0634096 0.000109347 0)
(0.0630813 0.000107201 0)
(0.0627579 0.000107136 0)
(0.0624473 0.000116883 0)
(0.0619674 0.000179032 0)
(0.194169 0.00839344 0)
(0.195337 0.00944775 0)
(0.196389 0.010002 0)
(0.197107 0.010241 0)
(0.197471 0.0102481 0)
(0.19749 0.0100554 0)
(0.197162 0.00969879 0)
(0.196494 0.00922129 0)
(0.195514 0.00866478 0)
(0.19426 0.00806661 0)
(0.192777 0.0074585 0)
(0.191108 0.00686563 0)
(0.189297 0.00630599 0)
(0.187379 0.00579066 0)
(0.185386 0.00532475 0)
(0.183345 0.00490881 0)
(0.181276 0.00454026 0)
(0.179193 0.0042147 0)
(0.177108 0.00392693 0)
(0.175029 0.00367166 0)
(0.172963 0.003444 0)
(0.170913 0.00323961 0)
(0.168884 0.00305486 0)
(0.166877 0.00288675 0)
(0.164894 0.00273286 0)
(0.162938 0.00259125 0)
(0.161009 0.00246037 0)
(0.159109 0.00233897 0)
(0.157238 0.00222603 0)
(0.155398 0.00212073 0)
(0.153589 0.00202234 0)
(0.15181 0.00193028 0)
(0.150064 0.001844 0)
(0.148349 0.00176304 0)
(0.146666 0.00168699 0)
(0.145015 0.00161546 0)
(0.143395 0.00154813 0)
(0.141807 0.00148468 0)
(0.140249 0.00142483 0)
(0.138723 0.00136831 0)
(0.137226 0.0013149 0)
(0.13576 0.00126437 0)
(0.134322 0.00121651 0)
(0.132914 0.00117116 0)
(0.131534 0.00112813 0)
(0.130181 0.00108726 0)
(0.128856 0.00104843 0)
(0.127557 0.00101148 0)
(0.126284 0.000976301 0)
(0.125037 0.000942775 0)
(0.123815 0.000910797 0)
(0.122616 0.000880268 0)
(0.121442 0.000851097 0)
(0.120291 0.000823202 0)
(0.119162 0.000796502 0)
(0.118056 0.000770924 0)
(0.116972 0.000746402 0)
(0.115908 0.000722872 0)
(0.114866 0.000700274 0)
(0.113844 0.000678554 0)
(0.112841 0.000657659 0)
(0.111858 0.000637543 0)
(0.110894 0.000618158 0)
(0.109949 0.000599464 0)
(0.109023 0.000581419 0)
(0.108114 0.000563988 0)
(0.107223 0.000547135 0)
(0.106349 0.000530826 0)
(0.105493 0.000515031 0)
(0.104653 0.000499721 0)
(0.10383 0.000484868 0)
(0.103023 0.000470446 0)
(0.102233 0.000456431 0)
(0.101458 0.0004428 0)
(0.100699 0.000429532 0)
(0.099956 0.000416607 0)
(0.0992282 0.000404006 0)
(0.0985159 0.000391711 0)
(0.0978188 0.000379707 0)
(0.0971369 0.00036798 0)
(0.09647 0.000356515 0)
(0.0958181 0.000345301 0)
(0.0951812 0.000334329 0)
(0.0945591 0.00032359 0)
(0.093952 0.000313078 0)
(0.0933596 0.000302789 0)
(0.092782 0.000292721 0)
(0.0922191 0.000282877 0)
(0.091671 0.000273263 0)
(0.0911374 0.000263889 0)
(0.0906185 0.000254773 0)
(0.0901139 0.000245945 0)
(0.0896237 0.000237448 0)
(0.0891474 0.000229356 0)
(0.0886847 0.000221798 0)
(0.088235 0.000215047 0)
(0.087797 0.000209763 0)
(0.0873682 0.000207987 0)
(0.0869542 0.000220121 0)
(0.0863969 0.000279944 0)
(0.19488 0.00789073 0)
(0.195923 0.00888693 0)
(0.197032 0.0094821 0)
(0.198032 0.00979629 0)
(0.198882 0.00990309 0)
(0.199564 0.00983237 0)
(0.200053 0.00961046 0)
(0.200327 0.00926991 0)
(0.200378 0.00884454 0)
(0.200212 0.00836601 0)
(0.199845 0.00786249 0)
(0.199298 0.00735757 0)
(0.198596 0.00686935 0)
(0.197763 0.00641018 0)
(0.196822 0.00598712 0)
(0.195796 0.00560296 0)
(0.194699 0.00525725 0)
(0.193548 0.00494753 0)
(0.192353 0.00467018 0)
(0.191122 0.00442116 0)
(0.189863 0.00419652 0)
(0.18858 0.00399263 0)
(0.187278 0.00380638 0)
(0.185959 0.00363512 0)
(0.184627 0.00347671 0)
(0.183283 0.00332942 0)
(0.181931 0.00319186 0)
(0.180573 0.00306289 0)
(0.179209 0.00294162 0)
(0.177842 0.00282731 0)
(0.176474 0.00271932 0)
(0.175106 0.00261713 0)
(0.173739 0.0025203 0)
(0.172375 0.00242841 0)
(0.171015 0.00234112 0)
(0.169661 0.0022581 0)
(0.168313 0.00217908 0)
(0.166972 0.0021038 0)
(0.165639 0.002032 0)
(0.164314 0.00196349 0)
(0.163 0.00189805 0)
(0.161696 0.00183551 0)
(0.160402 0.00177569 0)
(0.15912 0.00171844 0)
(0.15785 0.0016636 0)
(0.156592 0.00161104 0)
(0.155346 0.00156064 0)
(0.154113 0.00151228 0)
(0.152894 0.00146585 0)
(0.151687 0.00142123 0)
(0.150495 0.00137834 0)
(0.149316 0.00133709 0)
(0.148151 0.00129738 0)
(0.147 0.00125914 0)
(0.145863 0.00122229 0)
(0.14474 0.00118675 0)
(0.143631 0.00115247 0)
(0.142537 0.00111937 0)
(0.141456 0.0010874 0)
(0.140391 0.0010565 0)
(0.139339 0.0010266 0)
(0.138302 0.000997673 0)
(0.137279 0.000969653 0)
(0.13627 0.000942497 0)
(0.135276 0.00091616 0)
(0.134296 0.000890601 0)
(0.13333 0.000865779 0)
(0.132378 0.000841655 0)
(0.131441 0.000818193 0)
(0.130518 0.000795358 0)
(0.129609 0.000773116 0)
(0.128714 0.000751436 0)
(0.127834 0.000730289 0)
(0.126968 0.000709644 0)
(0.126116 0.000689476 0)
(0.125278 0.000669759 0)
(0.124455 0.000650468 0)
(0.123647 0.00063158 0)
(0.122853 0.000613076 0)
(0.122073 0.000594935 0)
(0.121308 0.000577141 0)
(0.120558 0.000559676 0)
(0.119822 0.000542528 0)
(0.119102 0.000525685 0)
(0.118396 0.000509139 0)
(0.117706 0.000492884 0)
(0.117031 0.000476919 0)
(0.116371 0.000461246 0)
(0.115727 0.000445874 0)
(0.115098 0.000430819 0)
(0.114485 0.000416105 0)
(0.113887 0.000401774 0)
(0.113304 0.000387888 0)
(0.112737 0.000374549 0)
(0.112186 0.000361939 0)
(0.111648 0.000350427 0)
(0.111125 0.000340907 0)
(0.110614 0.000336032 0)
(0.110121 0.000346136 0)
(0.109507 0.000393671 0)
(0.19548 0.00745895 0)
(0.196357 0.00835844 0)
(0.197346 0.00894376 0)
(0.198318 0.00928468 0)
(0.199226 0.00943939 0)
(0.200051 0.00943559 0)
(0.20077 0.00929493 0)
(0.201358 0.00904359 0)
(0.201802 0.00870986 0)
(0.202095 0.00832082 0)
(0.202241 0.00790102 0)
(0.202248 0.00747152 0)
(0.202129 0.00704908 0)
(0.2019 0.00664579 0)
(0.201575 0.00626923 0)
(0.201169 0.00592321 0)
(0.200694 0.00560856 0)
(0.200163 0.00532408 0)
(0.199582 0.00506735 0)
(0.19896 0.00483534 0)
(0.198301 0.00462489 0)
(0.197609 0.00443298 0)
(0.196888 0.00425692 0)
(0.196139 0.00409441 0)
(0.195365 0.00394351 0)
(0.194568 0.00380262 0)
(0.193748 0.00367046 0)
(0.192909 0.00354598 0)
(0.19205 0.00342833 0)
(0.191174 0.00331681 0)
(0.190281 0.00321086 0)
(0.189372 0.00310997 0)
(0.18845 0.00301374 0)
(0.187515 0.00292182 0)
(0.186568 0.00283389 0)
(0.185611 0.00274967 0)
(0.184644 0.00266892 0)
(0.183669 0.00259141 0)
(0.182686 0.00251696 0)
(0.181697 0.00244536 0)
(0.180702 0.00237646 0)
(0.179703 0.00231011 0)
(0.178699 0.00224616 0)
(0.177693 0.00218449 0)
(0.176684 0.00212497 0)
(0.175674 0.0020675 0)
(0.174662 0.00201198 0)
(0.173651 0.0019583 0)
(0.17264 0.00190638 0)
(0.17163 0.00185614 0)
(0.170622 0.00180748 0)
(0.169616 0.00176035 0)
(0.168612 0.00171467 0)
(0.167612 0.00167038 0)
(0.166615 0.0016274 0)
(0.165622 0.00158569 0)
(0.164634 0.00154518 0)
(0.163651 0.00150582 0)
(0.162673 0.00146755 0)
(0.161701 0.00143034 0)
(0.160734 0.00139413 0)
(0.159774 0.00135887 0)
(0.158821 0.00132452 0)
(0.157875 0.00129105 0)
(0.156936 0.0012584 0)
(0.156004 0.00122655 0)
(0.155081 0.00119544 0)
(0.154165 0.00116506 0)
(0.153258 0.00113535 0)
(0.15236 0.0011063 0)
(0.15147 0.00107786 0)
(0.15059 0.00105001 0)
(0.149719 0.00102271 0)
(0.148858 0.000995935 0)
(0.148007 0.000969662 0)
(0.147165 0.000943861 0)
(0.146335 0.000918507 0)
(0.145515 0.000893577 0)
(0.144706 0.000869049 0)
(0.143908 0.000844902 0)
(0.143122 0.000821118 0)
(0.142347 0.000797679 0)
(0.141585 0.000774572 0)
(0.140835 0.000751785 0)
(0.140097 0.00072931 0)
(0.139372 0.000707141 0)
(0.138661 0.00068528 0)
(0.137963 0.000663731 0)
(0.137278 0.000642507 0)
(0.136607 0.000621631 0)
(0.135951 0.000601137 0)
(0.135308 0.000581078 0)
(0.13468 0.000561535 0)
(0.134066 0.000542639 0)
(0.133467 0.000524618 0)
(0.132882 0.000507921 0)
(0.13231 0.000493585 0)
(0.131752 0.000484418 0)
(0.131215 0.000488896 0)
(0.130574 0.000517955 0)
(0.196005 0.0070892 0)
(0.196744 0.00789195 0)
(0.197603 0.00845089 0)
(0.198482 0.00879929 0)
(0.199336 0.00897874 0)
(0.200142 0.00901408 0)
(0.200882 0.00892461 0)
(0.201535 0.00873264 0)
(0.202087 0.00846254 0)
(0.202532 0.00813798 0)
(0.20287 0.00778058 0)
(0.203104 0.00740908 0)
(0.203243 0.00703874 0)
(0.203295 0.00668095 0)
(0.203273 0.00634332 0)
(0.203186 0.00603014 0)
(0.203044 0.00574305 0)
(0.202856 0.00548174 0)
(0.202627 0.00524467 0)
(0.202365 0.00502959 0)
(0.202071 0.00483397 0)
(0.20175 0.00465529 0)
(0.201403 0.00449124 0)
(0.201033 0.00433974 0)
(0.200639 0.00419904 0)
(0.200224 0.00406766 0)
(0.199787 0.00394436 0)
(0.19933 0.00382817 0)
(0.198854 0.00371824 0)
(0.198357 0.0036139 0)
(0.197843 0.00351458 0)
(0.19731 0.00341983 0)
(0.196759 0.00332922 0)
(0.196192 0.00324242 0)
(0.195609 0.00315913 0)
(0.19501 0.00307908 0)
(0.194396 0.00300205 0)
(0.193767 0.00292782 0)
(0.193125 0.00285622 0)
(0.19247 0.00278706 0)
(0.191802 0.00272021 0)
(0.191123 0.00265552 0)
(0.190433 0.00259287 0)
(0.189732 0.00253215 0)
(0.189021 0.00247325 0)
(0.1883 0.00241607 0)
(0.187571 0.00236053 0)
(0.186834 0.00230655 0)
(0.186089 0.00225405 0)
(0.185337 0.00220296 0)
(0.184579 0.00215321 0)
(0.183815 0.00210475 0)
(0.183045 0.00205751 0)
(0.18227 0.00201144 0)
(0.181492 0.00196648 0)
(0.180709 0.0019226 0)
(0.179923 0.00187974 0)
(0.179134 0.00183786 0)
(0.178343 0.00179692 0)
(0.17755 0.00175688 0)
(0.176755 0.00171769 0)
(0.17596 0.00167932 0)
(0.175164 0.00164173 0)
(0.174368 0.0016049 0)
(0.173572 0.00156878 0)
(0.172778 0.00153334 0)
(0.171984 0.00149856 0)
(0.171192 0.00146439 0)
(0.170402 0.00143082 0)
(0.169614 0.0013978 0)
(0.168829 0.00136532 0)
(0.168048 0.00133335 0)
(0.16727 0.00130185 0)
(0.166496 0.0012708 0)
(0.165727 0.00124019 0)
(0.164962 0.00120997 0)
(0.164203 0.00118014 0)
(0.163449 0.00115067 0)
(0.162702 0.00112154 0)
(0.161961 0.00109272 0)
(0.161226 0.00106421 0)
(0.160499 0.00103599 0)
(0.15978 0.00100804 0)
(0.159069 0.000980355 0)
(0.158366 0.000952932 0)
(0.157672 0.000925767 0)
(0.156987 0.000898865 0)
(0.156312 0.000872234 0)
(0.155647 0.000845894 0)
(0.154992 0.000819874 0)
(0.154348 0.00079422 0)
(0.153715 0.000768998 0)
(0.153094 0.000744308 0)
(0.152484 0.000720304 0)
(0.151885 0.00069725 0)
(0.151298 0.000675644 0)
(0.150723 0.000656542 0)
(0.150161 0.000642452 0)
(0.149621 0.000639111 0)
(0.148988 0.000647202 0)
(0.196466 0.00677012 0)
(0.197099 0.00748362 0)
(0.197844 0.00800747 0)
(0.198628 0.00835214 0)
(0.199407 0.00854488 0)
(0.200156 0.00860652 0)
(0.200857 0.00855419 0)
(0.201493 0.00840697 0)
(0.202053 0.00818582 0)
(0.20253 0.0079115 0)
(0.202923 0.00760316 0)
(0.203234 0.00727763 0)
(0.203469 0.00694883 0)
(0.203636 0.00662748 0)
(0.203744 0.00632109 0)
(0.2038 0.00603425 0)
(0.203813 0.00576919 0)
(0.20379 0.00552632 0)
(0.203737 0.00530479 0)
(0.203658 0.00510302 0)
(0.203556 0.00491903 0)
(0.203435 0.00475077 0)
(0.203295 0.00459624 0)
(0.203138 0.00445363 0)
(0.202965 0.00432133 0)
(0.202777 0.00419798 0)
(0.202573 0.00408243 0)
(0.202353 0.00397371 0)
(0.202119 0.00387102 0)
(0.20187 0.00377369 0)
(0.201606 0.00368115 0)
(0.201327 0.00359294 0)
(0.201034 0.00350863 0)
(0.200727 0.0034279 0)
(0.200405 0.00335042 0)
(0.200069 0.00327593 0)
(0.19972 0.00320421 0)
(0.199357 0.00313503 0)
(0.19898 0.00306822 0)
(0.19859 0.0030036 0)
(0.198187 0.00294103 0)
(0.197772 0.00288036 0)
(0.197344 0.00282148 0)
(0.196905 0.00276427 0)
(0.196453 0.00270864 0)
(0.19599 0.00265448 0)
(0.195516 0.00260171 0)
(0.195031 0.00255026 0)
(0.194536 0.00250006 0)
(0.19403 0.00245102 0)
(0.193515 0.00240311 0)
(0.192991 0.00235625 0)
(0.192457 0.0023104 0)
(0.191914 0.0022655 0)
(0.191364 0.00222151 0)
(0.190805 0.00217838 0)
(0.190239 0.00213608 0)
(0.189665 0.00209456 0)
(0.189085 0.00205379 0)
(0.188498 0.00201373 0)
(0.187905 0.00197434 0)
(0.187307 0.0019356 0)
(0.186703 0.00189747 0)
(0.186095 0.00185993 0)
(0.185482 0.00182293 0)
(0.184864 0.00178646 0)
(0.184244 0.00175049 0)
(0.183619 0.00171499 0)
(0.182992 0.00167992 0)
(0.182363 0.00164528 0)
(0.181731 0.00161103 0)
(0.181098 0.00157715 0)
(0.180463 0.00154361 0)
(0.179828 0.00151039 0)
(0.179192 0.00147748 0)
(0.178557 0.00144484 0)
(0.177921 0.00141245 0)
(0.177287 0.00138031 0)
(0.176654 0.00134838 0)
(0.176022 0.00131666 0)
(0.175393 0.00128512 0)
(0.174766 0.00125376 0)
(0.174143 0.00122257 0)
(0.173523 0.00119153 0)
(0.172907 0.00116065 0)
(0.172295 0.00112992 0)
(0.171688 0.00109936 0)
(0.171087 0.00106899 0)
(0.170491 0.00103882 0)
(0.169902 0.00100889 0)
(0.169319 0.000979259 0)
(0.168743 0.000950008 0)
(0.168175 0.000921249 0)
(0.167614 0.000893159 0)
(0.167061 0.00086602 0)
(0.166516 0.000840335 0)
(0.165979 0.000817066 0)
(0.165453 0.000798106 0)
(0.164948 0.000786307 0)
(0.164359 0.00077439 0)
(0.196875 0.00648919 0)
(0.197425 0.00712276 0)
(0.198075 0.00760782 0)
(0.198772 0.00794215 0)
(0.199477 0.0081417 0)
(0.200164 0.0082227 0)
(0.200814 0.00819978 0)
(0.201414 0.0080891 0)
(0.201951 0.00790854 0)
(0.20242 0.00767622 0)
(0.202819 0.00740912 0)
(0.20315 0.00712235 0)
(0.203416 0.00682866 0)
(0.203625 0.0065381 0)
(0.203783 0.00625802 0)
(0.203898 0.00599322 0)
(0.203978 0.00574634 0)
(0.204028 0.00551839 0)
(0.204053 0.00530914 0)
(0.204058 0.00511757 0)
(0.204046 0.00494224 0)
(0.20402 0.00478149 0)
(0.203982 0.00463368 0)
(0.203931 0.00449724 0)
(0.203871 0.00437074 0)
(0.2038 0.00425294 0)
(0.203719 0.00414278 0)
(0.203629 0.00403935 0)
(0.203529 0.00394186 0)
(0.203419 0.00384966 0)
(0.2033 0.00376221 0)
(0.20317 0.00367901 0)
(0.203031 0.00359967 0)
(0.202882 0.00352383 0)
(0.202723 0.00345118 0)
(0.202554 0.00338145 0)
(0.202375 0.0033144 0)
(0.202186 0.0032498 0)
(0.201987 0.00318747 0)
(0.201777 0.00312724 0)
(0.201557 0.00306895 0)
(0.201327 0.00301245 0)
(0.201087 0.00295762 0)
(0.200837 0.00290435 0)
(0.200577 0.00285252 0)
(0.200307 0.00280203 0)
(0.200026 0.00275281 0)
(0.199736 0.00270477 0)
(0.199436 0.00265783 0)
(0.199127 0.00261193 0)
(0.198808 0.002567 0)
(0.19848 0.00252298 0)
(0.198142 0.00247982 0)
(0.197795 0.00243747 0)
(0.19744 0.00239587 0)
(0.197075 0.00235499 0)
(0.196702 0.00231479 0)
(0.196321 0.00227521 0)
(0.195932 0.00223623 0)
(0.195534 0.00219781 0)
(0.195129 0.00215992 0)
(0.194717 0.00212252 0)
(0.194297 0.00208559 0)
(0.19387 0.00204908 0)
(0.193437 0.00201298 0)
(0.192997 0.00197726 0)
(0.192551 0.00194188 0)
(0.192099 0.00190683 0)
(0.191642 0.00187208 0)
(0.191179 0.0018376 0)
(0.190712 0.00180336 0)
(0.190239 0.00176936 0)
(0.189763 0.00173555 0)
(0.189282 0.00170192 0)
(0.188798 0.00166845 0)
(0.18831 0.00163512 0)
(0.18782 0.00160191 0)
(0.187327 0.0015688 0)
(0.186831 0.00153577 0)
(0.186334 0.0015028 0)
(0.185836 0.00146989 0)
(0.185336 0.00143702 0)
(0.184836 0.00140418 0)
(0.184336 0.00137137 0)
(0.183836 0.00133859 0)
(0.183337 0.00130584 0)
(0.182838 0.00127314 0)
(0.182341 0.0012405 0)
(0.181846 0.00120795 0)
(0.181353 0.00117555 0)
(0.180863 0.00114334 0)
(0.180376 0.00111143 0)
(0.179892 0.00107993 0)
(0.179412 0.00104904 0)
(0.178936 0.00101905 0)
(0.178465 0.00099041 0)
(0.177998 0.000963915 0)
(0.17754 0.000940715 0)
(0.177098 0.000921151 0)
(0.176579 0.000892849 0)
(0.197238 0.00623762 0)
(0.197722 0.00680102 0)
(0.198294 0.007247 0)
(0.198915 0.00756696 0)
(0.199551 0.00776871 0)
(0.200179 0.00786395 0)
(0.200779 0.00786476 0)
(0.201339 0.00778467 0)
(0.201846 0.00763885 0)
(0.202296 0.00744297 0)
(0.202686 0.00721201 0)
(0.203016 0.00695949 0)
(0.20329 0.00669704 0)
(0.203513 0.00643404 0)
(0.203691 0.00617758 0)
(0.203831 0.00593253 0)
(0.203939 0.00570189 0)
(0.20402 0.0054871 0)
(0.20408 0.00528846 0)
(0.204122 0.00510547 0)
(0.20415 0.00493714 0)
(0.204167 0.00478221 0)
(0.204173 0.00463936 0)
(0.204172 0.00450727 0)
(0.204163 0.00438471 0)
(0.204147 0.00427058 0)
(0.204125 0.0041639 0)
(0.204097 0.00406383 0)
(0.204063 0.00396965 0)
(0.204024 0.00388073 0)
(0.203978 0.00379653 0)
(0.203927 0.0037166 0)
(0.203869 0.00364052 0)
(0.203806 0.00356795 0)
(0.203736 0.00349857 0)
(0.203661 0.00343212 0)
(0.203578 0.00336835 0)
(0.20349 0.00330705 0)
(0.203395 0.00324801 0)
(0.203293 0.00319105 0)
(0.203184 0.00313603 0)
(0.203069 0.00308278 0)
(0.202946 0.00303119 0)
(0.202817 0.00298112 0)
(0.20268 0.00293247 0)
(0.202536 0.00288513 0)
(0.202385 0.00283902 0)
(0.202226 0.00279404 0)
(0.20206 0.00275011 0)
(0.201887 0.00270717 0)
(0.201706 0.00266514 0)
(0.201517 0.00262397 0)
(0.201321 0.00258358 0)
(0.201118 0.00254394 0)
(0.200907 0.00250497 0)
(0.200689 0.00246665 0)
(0.200463 0.00242892 0)
(0.20023 0.00239174 0)
(0.19999 0.00235507 0)
(0.199742 0.00231887 0)
(0.199487 0.0022831 0)
(0.199225 0.00224773 0)
(0.198956 0.00221273 0)
(0.19868 0.00217805 0)
(0.198398 0.00214369 0)
(0.198108 0.00210959 0)
(0.197812 0.00207574 0)
(0.19751 0.0020421 0)
(0.197202 0.00200865 0)
(0.196887 0.00197537 0)
(0.196567 0.00194221 0)
(0.196241 0.00190917 0)
(0.195909 0.00187622 0)
(0.195572 0.00184333 0)
(0.19523 0.00181048 0)
(0.194883 0.00177764 0)
(0.194532 0.00174481 0)
(0.194176 0.00171195 0)
(0.193816 0.00167906 0)
(0.193453 0.0016461 0)
(0.193086 0.00161308 0)
(0.192716 0.00157998 0)
(0.192342 0.00154679 0)
(0.191966 0.0015135 0)
(0.191588 0.00148012 0)
(0.191208 0.00144665 0)
(0.190826 0.00141311 0)
(0.190443 0.00137951 0)
(0.190059 0.0013459 0)
(0.189674 0.00131232 0)
(0.189289 0.00127885 0)
(0.188903 0.00124557 0)
(0.188518 0.00121261 0)
(0.188134 0.00118018 0)
(0.18775 0.00114855 0)
(0.187368 0.00111811 0)
(0.186987 0.00108944 0)
(0.186612 0.00106298 0)
(0.186248 0.00103724 0)
(0.185814 0.000997649 0)
(0.197563 0.00600936 0)
(0.197993 0.00651179 0)
(0.198499 0.00692019 0)
(0.199054 0.00722343 0)
(0.199629 0.0074238 0)
(0.200202 0.00752913 0)
(0.200755 0.00754901 0)
(0.201275 0.00749466 0)
(0.201753 0.00737884 0)
(0.20218 0.00721501 0)
(0.202556 0.00701626 0)
(0.20288 0.00679466 0)
(0.203153 0.00656071 0)
(0.203381 0.00632312 0)
(0.203568 0.00608864 0)
(0.203719 0.00586216 0)
(0.20384 0.00564686 0)
(0.203937 0.00544454 0)
(0.204013 0.00525593 0)
(0.204073 0.00508095 0)
(0.204119 0.00491903 0)
(0.204155 0.00476928 0)
(0.204183 0.00463065 0)
(0.204203 0.0045021 0)
(0.204217 0.00438257 0)
(0.204226 0.00427111 0)
(0.20423 0.00416685 0)
(0.20423 0.00406903 0)
(0.204226 0.00397699 0)
(0.204219 0.00389013 0)
(0.204208 0.00380795 0)
(0.204193 0.00373001 0)
(0.204175 0.00365591 0)
(0.204153 0.00358533 0)
(0.204127 0.00351796 0)
(0.204098 0.00345352 0)
(0.204066 0.00339179 0)
(0.204029 0.00333254 0)
(0.203989 0.00327558 0)
(0.203945 0.00322073 0)
(0.203896 0.00316782 0)
(0.203844 0.00311673 0)
(0.203787 0.0030673 0)
(0.203726 0.00301942 0)
(0.20366 0.00297297 0)
(0.20359 0.00292785 0)
(0.203516 0.00288396 0)
(0.203436 0.00284122 0)
(0.203352 0.00279953 0)
(0.203263 0.00275883 0)
(0.203168 0.00271905 0)
(0.203069 0.0026801 0)
(0.202964 0.00264195 0)
(0.202854 0.00260451 0)
(0.202739 0.00256775 0)
(0.202618 0.0025316 0)
(0.202492 0.00249602 0)
(0.20236 0.00246097 0)
(0.202223 0.00242639 0)
(0.20208 0.00239226 0)
(0.201932 0.00235851 0)
(0.201778 0.00232513 0)
(0.201618 0.00229207 0)
(0.201453 0.00225929 0)
(0.201282 0.00222677 0)
(0.201105 0.00219446 0)
(0.200923 0.00216234 0)
(0.200736 0.00213038 0)
(0.200542 0.00209854 0)
(0.200344 0.0020668 0)
(0.20014 0.00203512 0)
(0.19993 0.00200349 0)
(0.199716 0.00197186 0)
(0.199496 0.00194023 0)
(0.199271 0.00190856 0)
(0.199041 0.00187682 0)
(0.198806 0.001845 0)
(0.198567 0.00181307 0)
(0.198323 0.00178101 0)
(0.198075 0.00174881 0)
(0.197822 0.00171645 0)
(0.197566 0.00168391 0)
(0.197305 0.00165119 0)
(0.197041 0.00161829 0)
(0.196773 0.00158519 0)
(0.196502 0.00155191 0)
(0.196228 0.00151847 0)
(0.195951 0.00148488 0)
(0.195671 0.00145118 0)
(0.195389 0.00141742 0)
(0.195104 0.00138368 0)
(0.194817 0.00135005 0)
(0.194529 0.00131667 0)
(0.194239 0.00128373 0)
(0.193947 0.00125147 0)
(0.193655 0.00122023 0)
(0.193362 0.00119035 0)
(0.193071 0.00116171 0)
(0.192788 0.00113178 0)
(0.192441 0.00108622 0)
(0.197854 0.00580009 0)
(0.19824 0.00624968 0)
(0.198692 0.00662298 0)
(0.199189 0.00690836 0)
(0.199709 0.00710471 0)
(0.200232 0.00721673 0)
(0.200741 0.00725179 0)
(0.201224 0.00721902 0)
(0.201672 0.0071291 0)
(0.202077 0.00699347 0)
(0.202438 0.00682353 0)
(0.202752 0.00662994 0)
(0.203022 0.00642218 0)
(0.20325 0.00620824 0)
(0.203441 0.00599451 0)
(0.203599 0.00578577 0)
(0.203728 0.00558533 0)
(0.203834 0.00539523 0)
(0.20392 0.00521653 0)
(0.20399 0.00504953 0)
(0.204047 0.00489399 0)
(0.204093 0.00474935 0)
(0.204131 0.00461486 0)
(0.204162 0.00448966 0)
(0.204187 0.0043729 0)
(0.204207 0.00426379 0)
(0.204223 0.00416155 0)
(0.204236 0.00406552 0)
(0.204246 0.00397508 0)
(0.204252 0.0038897 0)
(0.204256 0.0038089 0)
(0.204258 0.00373228 0)
(0.204257 0.00365946 0)
(0.204254 0.00359012 0)
(0.204249 0.00352397 0)
(0.204242 0.00346075 0)
(0.204232 0.00340023 0)
(0.20422 0.00334221 0)
(0.204206 0.00328648 0)
(0.20419 0.00323287 0)
(0.204171 0.00318124 0)
(0.20415 0.00313142 0)
(0.204127 0.0030833 0)
(0.204101 0.00303675 0)
(0.204073 0.00299166 0)
(0.204042 0.00294791 0)
(0.204008 0.00290542 0)
(0.203971 0.0028641 0)
(0.203932 0.00282386 0)
(0.203889 0.00278463 0)
(0.203844 0.00274633 0)
(0.203795 0.00270889 0)
(0.203744 0.00267225 0)
(0.203688 0.00263635 0)
(0.20363 0.00260114 0)
(0.203568 0.00256655 0)
(0.203503 0.00253254 0)
(0.203433 0.00249906 0)
(0.203361 0.00246606 0)
(0.203284 0.00243349 0)
(0.203203 0.00240133 0)
(0.203119 0.00236951 0)
(0.203031 0.00233801 0)
(0.202939 0.00230679 0)
(0.202842 0.00227581 0)
(0.202742 0.00224503 0)
(0.202637 0.00221442 0)
(0.202528 0.00218395 0)
(0.202415 0.00215358 0)
(0.202298 0.00212327 0)
(0.202177 0.00209301 0)
(0.202051 0.00206276 0)
(0.201921 0.00203248 0)
(0.201787 0.00200215 0)
(0.201648 0.00197175 0)
(0.201506 0.00194124 0)
(0.201359 0.0019106 0)
(0.201208 0.00187981 0)
(0.201053 0.00184884 0)
(0.200894 0.00181768 0)
(0.200731 0.0017863 0)
(0.200563 0.00175469 0)
(0.200392 0.00172284 0)
(0.200218 0.00169075 0)
(0.200039 0.0016584 0)
(0.199857 0.00162582 0)
(0.199671 0.001593 0)
(0.199482 0.00155998 0)
(0.199289 0.00152679 0)
(0.199094 0.00149348 0)
(0.198895 0.00146013 0)
(0.198693 0.00142684 0)
(0.198488 0.00139373 0)
(0.19828 0.00136098 0)
(0.19807 0.00132882 0)
(0.197857 0.00129751 0)
(0.197643 0.00126719 0)
(0.197429 0.00123739 0)
(0.197218 0.0012052 0)