/*--------------------------------*- C++ -*----------------------------------*\
| =========                 |                                                 |
| \\      /  F ield         | OpenFOAM: The Open Source CFD Toolbox           |
|  \\    /   O peration     | Version:  2.3.0                                 |
|   \\  /    A nd           | Web:      www.OpenFOAM.org                      |
|    \\/     M anipulation  |                                                 |
\*---------------------------------------------------------------------------*/
FoamFile
{
    version     2.0;
    format      ascii;
    class       surfaceScalarField;
    location    "0.35";
    object      phi;
}
// * * * * * * * * * * * * * * * * * * * * * * * * * * * * * * * * * * * * * //

dimensions      [0 3 -1 0 0 0 0];

internalField   nonuniform List<scalar> 
1660
(
6.34766e-08
2.70575e-09
-6.61824e-08
5.97999e-08
3.67668e-09
5.5839e-08
3.96092e-09
5.19107e-08
3.92831e-09
4.80192e-08
3.89153e-09
4.41347e-08
3.88446e-09
4.02599e-08
3.87484e-09
3.64275e-08
3.83236e-09
3.27187e-08
3.70886e-09
2.92286e-08
3.4901e-09
2.60262e-08
3.20231e-09
2.3152e-08
2.8742e-09
2.06602e-08
2.49188e-09
1.8614e-08
2.04611e-09
1.70401e-08
1.57394e-09
1.58689e-08
1.17123e-09
1.49801e-08
8.88747e-10
1.43101e-08
6.70033e-10
1.38426e-08
4.67499e-10
1.35237e-08
3.18849e-10
1.32742e-08
2.49548e-10
1.305e-08
2.2418e-10
1.28447e-08
2.05354e-10
1.26604e-08
1.8427e-10
1.24955e-08
1.64858e-10
1.23397e-08
1.55877e-10
1.21841e-08
1.55575e-10
1.20325e-08
1.5156e-10
1.18913e-08
1.41266e-10
1.17611e-08
1.30164e-10
1.16446e-08
1.16511e-10
1.15454e-08
9.91492e-11
1.14651e-08
8.0334e-11
1.14019e-08
6.31846e-11
1.13546e-08
4.73109e-11
1.13226e-08
3.19778e-11
1.13069e-08
1.57546e-11
1.13051e-08
1.73383e-12
1.13134e-08
-8.23645e-12
1.13289e-08
-1.55454e-11
1.13514e-08
-2.2504e-11
1.13786e-08
-2.71618e-11
1.14094e-08
-3.08014e-11
1.14412e-08
-3.17728e-11
1.14717e-08
-3.05368e-11
1.14979e-08
-2.61945e-11
1.15189e-08
-2.10019e-11
1.15347e-08
-1.57855e-11
1.15476e-08
-1.29506e-11
-1.00777e-11
7.27391e-08
2.48532e-09
-7.25187e-08
7.28738e-08
3.54205e-09
7.25497e-08
4.28501e-09
7.18878e-08
4.59015e-09
7.10321e-08
4.74723e-09
7.0024e-08
4.89261e-09
6.88325e-08
5.06636e-09
6.74406e-08
5.22419e-09
6.58695e-08
5.27996e-09
6.41529e-08
5.20668e-09
6.23257e-08
5.02953e-09
6.04294e-08
4.77058e-09
5.84977e-08
4.42354e-09
5.65754e-08
3.96839e-09
5.47141e-08
3.43527e-09
5.29412e-08
2.94411e-09
5.12586e-08
2.5714e-09
4.96814e-08
2.24715e-09
4.82405e-08
1.90847e-09
4.69297e-08
1.62965e-09
4.57157e-08
1.46347e-09
4.45758e-08
1.36413e-09
4.35114e-08
1.26979e-09
4.25327e-08
1.16297e-09
4.16435e-08
1.05404e-09
4.0833e-08
9.66341e-10
4.00889e-08
8.99681e-10
3.94087e-08
8.31804e-10
3.87923e-08
7.57632e-10
3.82374e-08
6.85049e-10
3.77443e-08
6.09602e-10
3.73141e-08
5.29324e-10
3.6946e-08
4.48516e-10
3.66364e-08
3.72781e-10
3.63827e-08
3.00946e-10
3.61821e-08
2.32623e-10
3.60321e-08
1.65789e-10
3.59255e-08
1.08305e-10
3.58572e-08
6.00536e-11
3.58203e-08
2.13154e-11
3.58125e-08
-1.46468e-11
3.58266e-08
-4.13107e-11
3.58602e-08
-6.43314e-11
3.59042e-08
-7.58006e-11
3.59548e-08
-8.11485e-11
3.60018e-08
-7.32142e-11
3.60456e-08
-6.47483e-11
3.60807e-08
-5.08809e-11
3.61132e-08
-4.54755e-11
-3.65108e-11
7.87678e-08
2.44749e-09
-7.873e-08
7.90938e-08
3.21603e-09
7.93775e-08
4.0013e-09
7.95163e-08
4.45132e-09
7.95529e-08
4.7107e-09
7.95428e-08
4.9027e-09
7.95064e-08
5.10278e-09
7.94139e-08
5.31667e-09
7.92338e-08
5.46007e-09
7.89473e-08
5.49314e-09
7.85522e-08
5.42458e-09
7.80485e-08
5.27436e-09
7.74387e-08
5.03326e-09
7.67341e-08
4.67304e-09
7.59562e-08
4.21318e-09
7.51265e-08
3.77382e-09
7.42585e-08
3.43937e-09
7.33624e-08
3.14328e-09
7.24505e-08
2.82037e-09
7.15411e-08
2.53908e-09
7.06504e-08
2.35416e-09
6.97938e-08
2.22073e-09
6.89746e-08
2.08895e-09
6.81812e-08
1.95633e-09
6.73951e-08
1.84013e-09
6.66052e-08
1.75627e-09
6.58234e-08
1.68145e-09
6.50754e-08
1.5798e-09
6.43758e-08
1.45724e-09
6.37238e-08
1.33709e-09
6.31156e-08
1.21782e-09
6.25484e-08
1.09651e-09
6.20231e-08
9.7381e-10
6.15419e-08
8.53946e-10
6.11082e-08
7.34619e-10
6.07231e-08
6.17725e-10
6.03893e-08
4.9963e-10
6.01039e-08
3.9373e-10
5.98677e-08
2.96238e-10
5.96756e-08
2.13365e-10
5.95278e-08
1.33225e-10
5.94144e-08
7.20753e-11
5.93363e-08
1.38077e-11
5.9283e-08
-2.25684e-11
5.9255e-08
-5.31144e-11
5.92407e-08
-5.89096e-11
5.92388e-08
-6.29065e-11
5.92448e-08
-5.68883e-11
5.92554e-08
-5.60572e-11
-5.5866e-11
8.53452e-08
2.44395e-09
-8.53417e-08
8.55256e-08
3.03562e-09
8.58211e-08
3.70581e-09
8.60767e-08
4.19577e-09
8.62679e-08
4.51946e-09
8.64219e-08
4.74874e-09
8.65931e-08
4.93156e-09
8.67944e-08
5.11538e-09
8.69909e-08
5.26353e-09
8.71523e-08
5.33172e-09
8.72686e-08
5.30837e-09
8.73293e-08
5.2136e-09
8.7316e-08
5.0466e-09
8.72226e-08
4.76643e-09
8.70564e-08
4.37935e-09
8.68327e-08
3.99752e-09
8.65648e-08
3.7073e-09
8.62531e-08
3.45499e-09
8.5895e-08
3.17849e-09
8.55028e-08
2.93123e-09
8.50976e-08
2.7594e-09
8.46949e-08
2.62335e-09
8.43054e-08
2.47851e-09
8.3939e-08
2.32276e-09
8.35894e-08
2.18967e-09
8.32266e-08
2.11905e-09
8.28267e-08
2.08142e-09
8.23975e-08
2.00896e-09
8.19686e-08
1.88615e-09
8.15634e-08
1.74225e-09
8.11872e-08
1.59401e-09
8.08302e-08
1.45352e-09
8.04849e-08
1.31911e-09
8.01508e-08
1.18807e-09
7.98329e-08
1.05252e-09
7.95323e-08
9.18307e-10
7.9253e-08
7.78965e-10
7.89937e-08
6.52998e-10
7.87601e-08
5.29903e-10
7.85506e-08
4.22824e-10
7.83704e-08
3.1346e-10
7.82141e-08
2.28382e-10
7.8083e-08
1.4483e-10
7.7974e-08
8.64649e-11
7.7883e-08
3.78699e-11
7.78115e-08
1.26239e-11
7.77482e-08
3.60173e-13
7.77043e-08
-1.29938e-11
7.76619e-08
-1.36012e-11
-3.22293e-11
9.24401e-08
2.43444e-09
-9.24306e-08
9.25618e-08
2.9139e-09
9.27982e-08
3.46937e-09
9.30446e-08
3.94938e-09
9.32725e-08
4.29158e-09
9.3466e-08
4.5552e-09
9.36525e-08
4.74514e-09
9.38739e-08
4.89398e-09
9.41192e-08
5.01813e-09
9.43535e-08
5.09752e-09
9.45676e-08
5.09424e-09
9.47556e-08
5.0256e-09
9.48972e-08
4.90496e-09
9.49795e-08
4.68419e-09
9.5002e-08
4.35678e-09
9.49769e-08
4.0227e-09
9.49228e-08
3.76133e-09
9.48449e-08
3.53288e-09
9.47329e-08
3.29055e-09
9.45909e-08
3.07324e-09
9.44392e-08
2.91109e-09
9.42862e-08
2.77634e-09
9.41313e-08
2.63338e-09
9.39862e-08
2.46785e-09
9.3864e-08
2.31194e-09
9.37552e-08
2.22777e-09
9.36333e-08
2.20335e-09
9.3479e-08
2.16331e-09
9.32989e-08
2.06618e-09
9.31171e-08
1.92407e-09
9.29505e-08
1.76062e-09
9.27956e-08
1.60849e-09
9.26425e-08
1.47219e-09
9.24868e-08
1.34375e-09
9.2332e-08
1.20729e-09
9.21793e-08
1.07099e-09
9.20311e-08
9.2715e-10
9.18861e-08
7.98057e-10
9.17477e-08
6.68323e-10
9.16172e-08
5.5331e-10
9.14971e-08
4.33558e-10
9.13889e-08
3.36524e-10
9.12904e-08
2.434e-10
9.12077e-08
1.69167e-10
9.11306e-08
1.14976e-10
9.10691e-08
7.41062e-11
9.1006e-08
6.34742e-11
9.09555e-08
3.74243e-11
9.09016e-08
4.03549e-11
1.28321e-11
1.0008e-07
2.41931e-09
-1.00065e-07
1.00177e-07
2.81769e-09
1.00365e-07
3.28081e-09
1.00587e-07
3.7276e-09
1.00816e-07
4.06227e-09
1.01032e-07
4.33982e-09
1.01226e-07
4.55112e-09
1.01434e-07
4.68587e-09
1.01663e-07
4.78883e-09
1.01892e-07
4.86844e-09
1.02108e-07
4.87835e-09
1.02309e-07
4.82488e-09
1.0248e-07
4.73362e-09
1.026e-07
4.5641e-09
1.02663e-07
4.29429e-09
1.02681e-07
4.00443e-09
1.02675e-07
3.76692e-09
1.02655e-07
3.55362e-09
1.02611e-07
3.33403e-09
1.02548e-07
3.13617e-09
1.02486e-07
2.97282e-09
1.02429e-07
2.83327e-09
1.02364e-07
2.69879e-09
1.02292e-07
2.53983e-09
1.02229e-07
2.37457e-09
1.02186e-07
2.27158e-09
1.02156e-07
2.23334e-09
1.02122e-07
2.1972e-09
1.02071e-07
2.1171e-09
1.02008e-07
1.98717e-09
1.01944e-07
1.82444e-09
1.01882e-07
1.67079e-09
1.01818e-07
1.53624e-09
1.0175e-07
1.41157e-09
1.0168e-07
1.27752e-09
1.01608e-07
1.1425e-09
1.01536e-07
9.9925e-10
1.01464e-07
8.7026e-10
1.01391e-07
7.40751e-10
1.01322e-07
6.22565e-10
1.01254e-07
5.01784e-10
1.01193e-07
3.97798e-10
1.01133e-07
3.03386e-10
1.01084e-07
2.17412e-10
1.01037e-07
1.62535e-10
1.01e-07
1.10704e-10
1.0096e-07
1.03966e-10
1.00923e-07
7.40421e-11
1.00881e-07
8.24837e-11
5.76065e-11
1.08321e-07
2.39985e-09
-1.08302e-07
1.084e-07
2.73837e-09
1.08552e-07
3.12976e-09
1.08752e-07
3.52722e-09
1.08967e-07
3.84752e-09
1.09187e-07
4.11908e-09
1.09389e-07
4.34986e-09
1.09586e-07
4.48897e-09
1.09794e-07
4.58015e-09
1.10009e-07
4.65403e-09
1.10215e-07
4.67238e-09
1.10408e-07
4.63126e-09
1.10579e-07
4.56269e-09
1.10704e-07
4.43905e-09
1.10776e-07
4.22251e-09
1.10808e-07
3.97208e-09
1.10815e-07
3.7599e-09
1.10805e-07
3.56406e-09
1.1078e-07
3.35924e-09
1.10744e-07
3.17196e-09
1.10709e-07
3.00793e-09
1.10676e-07
2.86582e-09
1.10637e-07
2.73834e-09
1.10588e-07
2.58857e-09
1.10536e-07
2.42627e-09
1.10493e-07
2.31457e-09
1.10472e-07
2.25438e-09
1.1047e-07
2.19986e-09
1.10466e-07
2.12084e-09
1.1045e-07
2.00339e-09
1.10423e-07
1.85146e-09
1.10389e-07
1.70438e-09
1.10351e-07
1.57427e-09
1.1031e-07
1.45218e-09
1.10268e-07
1.32033e-09
1.10224e-07
1.18634e-09
1.10178e-07
1.04519e-09
1.10132e-07
9.15905e-10
1.10085e-07
7.88024e-10
1.1004e-07
6.67023e-10
1.09994e-07
5.48219e-10
1.09953e-07
4.38821e-10
1.09911e-07
3.45504e-10
1.09878e-07
2.50068e-10
1.09846e-07
1.95136e-10
1.09821e-07
1.35012e-10
1.09794e-07
1.31216e-10
1.09766e-07
1.01797e-10
1.09733e-07
1.15798e-10
9.91048e-11
1.17215e-07
2.37488e-09
-1.1719e-07
1.17278e-07
2.67457e-09
1.17406e-07
3.00242e-09
1.17582e-07
3.35054e-09
1.17778e-07
3.65158e-09
1.17986e-07
3.91105e-09
1.18192e-07
4.14375e-09
1.18384e-07
4.29771e-09
1.18577e-07
4.38681e-09
1.18775e-07
4.45588e-09
1.18966e-07
4.48161e-09
1.19143e-07
4.45405e-09
1.19302e-07
4.40349e-09
1.19429e-07
4.31229e-09
1.19511e-07
4.14086e-09
1.19553e-07
3.92967e-09
1.19571e-07
3.74236e-09
1.19569e-07
3.56564e-09
1.1955e-07
3.37864e-09
1.19521e-07
3.20048e-09
1.19493e-07
3.03639e-09
1.19464e-07
2.89452e-09
1.19432e-07
2.77035e-09
1.19396e-07
2.62488e-09
1.19352e-07
2.4698e-09
1.19308e-07
2.35899e-09
1.19281e-07
2.2814e-09
1.19277e-07
2.2032e-09
1.19283e-07
2.11549e-09
1.19281e-07
2.0056e-09
1.19265e-07
1.86717e-09
1.19239e-07
1.73024e-09
1.19208e-07
1.60538e-09
1.19175e-07
1.48476e-09
1.19141e-07
1.35495e-09
1.19105e-07
1.22157e-09
1.19067e-07
1.08342e-09
1.19029e-07
9.53936e-10
1.18989e-07
8.2817e-10
1.18952e-07
7.04384e-10
1.18911e-07
5.88969e-10
1.18875e-07
4.75176e-10
1.18837e-07
3.83154e-10
1.18808e-07
2.79148e-10
1.18779e-07
2.24006e-10
1.18757e-07
1.57019e-10
1.18733e-07
1.55555e-10
1.18707e-07
1.27732e-10
1.18676e-07
1.4688e-10
1.39816e-10
1.2681e-07
2.34463e-09
-1.2678e-07
1.26868e-07
2.61711e-09
1.26972e-07
2.89808e-09
1.27126e-07
3.19697e-09
1.27301e-07
3.47611e-09
1.27491e-07
3.72141e-09
1.27692e-07
3.94217e-09
1.2788e-07
4.10974e-09
1.28058e-07
4.20884e-09
1.28237e-07
4.27679e-09
1.28409e-07
4.30997e-09
1.2857e-07
4.29267e-09
1.28722e-07
4.25186e-09
1.28849e-07
4.18501e-09
1.28936e-07
4.05454e-09
1.28983e-07
3.88263e-09
1.29007e-07
3.71803e-09
1.29014e-07
3.55871e-09
1.28998e-07
3.3945e-09
1.28972e-07
3.22613e-09
1.28952e-07
3.0566e-09
1.2893e-07
2.9165e-09
1.28901e-07
2.79997e-09
1.28867e-07
2.65845e-09
1.28827e-07
2.50946e-09
1.28787e-07
2.39975e-09
1.2876e-07
2.30806e-09
1.28752e-07
2.21152e-09
1.28752e-07
2.11502e-09
1.28751e-07
2.007e-09
1.28739e-07
1.87866e-09
1.28718e-07
1.75161e-09
1.28691e-07
1.63222e-09
1.28662e-07
1.51329e-09
1.28632e-07
1.38577e-09
1.28601e-07
1.25199e-09
1.28568e-07
1.11659e-09
1.28534e-07
9.87847e-10
1.28497e-07
8.65605e-10
1.28461e-07
7.3991e-10
1.28422e-07
6.28449e-10
1.28386e-07
5.10933e-10
1.28349e-07
4.20232e-10
1.2832e-07
3.08478e-10
1.2829e-07
2.53222e-10
1.28267e-07
1.80075e-10
1.28242e-07
1.80755e-10
1.28215e-07
1.54579e-10
1.28183e-07
1.78642e-10
1.81135e-10
1.37164e-07
2.31618e-09
-1.37135e-07
1.37218e-07
2.56332e-09
1.37305e-07
2.81111e-09
1.37437e-07
3.0651e-09
1.37592e-07
3.32107e-09
1.37759e-07
3.55414e-09
1.37944e-07
3.75684e-09
1.38124e-07
3.92969e-09
1.38287e-07
4.04573e-09
1.38451e-07
4.11357e-09
1.38608e-07
4.15239e-09
1.38756e-07
4.14516e-09
1.38896e-07
4.11189e-09
1.39012e-07
4.06837e-09
1.39094e-07
3.9725e-09
1.39145e-07
3.83213e-09
1.39175e-07
3.68791e-09
1.39192e-07
3.54128e-09
1.39191e-07
3.39628e-09
1.39173e-07
3.2442e-09
1.39153e-07
3.07661e-09
1.39129e-07
2.94038e-09
1.39099e-07
2.83004e-09
1.39069e-07
2.68812e-09
1.39036e-07
2.54234e-09
1.39001e-07
2.43451e-09
1.38977e-07
2.33213e-09
1.38966e-07
2.22247e-09
1.38961e-07
2.12049e-09
1.38955e-07
2.01258e-09
1.38943e-07
1.8907e-09
1.38924e-07
1.77028e-09
1.38903e-07
1.65374e-09
1.3888e-07
1.53592e-09
1.38854e-07
1.41253e-09
1.38826e-07
1.27931e-09
1.38797e-07
1.14582e-09
1.38768e-07
1.01728e-09
1.38734e-07
8.9964e-10
1.387e-07
7.73697e-10
1.38661e-07
6.66821e-10
1.38626e-07
5.46212e-10
1.38589e-07
4.56854e-10
1.3856e-07
3.38223e-10
1.3853e-07
2.83045e-10
1.38506e-07
2.04297e-10
1.38479e-07
2.07207e-10
1.38451e-07
1.82434e-10
1.38419e-07
2.1122e-10
2.22634e-10
1.70186e-07
2.28004e-09
-1.7015e-07
1.7025e-07
2.49983e-09
1.70338e-07
2.72272e-09
1.7046e-07
2.94369e-09
1.70612e-07
3.16876e-09
1.70778e-07
3.38797e-09
1.70959e-07
3.57618e-09
1.71143e-07
3.74535e-09
1.71313e-07
3.87569e-09
1.71483e-07
3.94381e-09
1.71647e-07
3.98848e-09
1.71786e-07
4.00558e-09
1.71913e-07
3.98525e-09
1.72031e-07
3.95035e-09
1.72129e-07
3.87443e-09
1.72199e-07
3.76185e-09
1.72241e-07
3.64611e-09
1.72263e-07
3.5192e-09
1.72267e-07
3.39281e-09
1.72249e-07
3.26169e-09
1.72224e-07
3.10198e-09
1.72203e-07
2.96094e-09
1.72183e-07
2.8508e-09
1.72155e-07
2.71621e-09
1.7212e-07
2.57656e-09
1.72088e-07
2.46688e-09
1.72063e-07
2.35685e-09
1.72046e-07
2.23969e-09
1.72035e-07
2.13183e-09
1.72026e-07
2.02076e-09
1.72013e-07
1.90413e-09
1.71993e-07
1.79037e-09
1.71971e-07
1.67552e-09
1.71951e-07
1.55578e-09
1.71928e-07
1.4355e-09
1.71903e-07
1.30455e-09
1.71874e-07
1.17467e-09
1.71845e-07
1.04609e-09
1.71811e-07
9.33659e-10
1.71776e-07
8.08991e-10
1.71735e-07
7.07916e-10
1.71697e-07
5.84383e-10
1.71657e-07
4.96781e-10
1.71624e-07
3.71536e-10
1.7159e-07
3.16539e-10
1.71563e-07
2.31891e-10
1.71532e-07
2.37387e-10
1.715e-07
2.14449e-10
1.71463e-07
2.48726e-10
2.68817e-10
2.14722e-07
2.24432e-09
-2.14686e-07
2.14781e-07
2.44067e-09
2.14868e-07
2.63552e-09
2.14975e-07
2.83664e-09
2.15111e-07
3.0332e-09
2.15269e-07
3.23027e-09
2.15434e-07
3.41045e-09
2.1561e-07
3.56998e-09
2.15784e-07
3.70111e-09
2.15939e-07
3.789e-09
2.16078e-07
3.84982e-09
2.16205e-07
3.87861e-09
2.16334e-07
3.85614e-09
2.16467e-07
3.8171e-09
2.16569e-07
3.77255e-09
2.16628e-07
3.70295e-09
2.16664e-07
3.61005e-09
2.1669e-07
3.49374e-09
2.16711e-07
3.37141e-09
2.16717e-07
3.25595e-09
2.16694e-07
3.12506e-09
2.16667e-07
2.98726e-09
2.16654e-07
2.86412e-09
2.1663e-07
2.74062e-09
2.16593e-07
2.61283e-09
2.16567e-07
2.49271e-09
2.16547e-07
2.37721e-09
2.16524e-07
2.26273e-09
2.16506e-07
2.14955e-09
2.16495e-07
2.03194e-09
2.16482e-07
1.91775e-09
2.16465e-07
1.80678e-09
2.16446e-07
1.69425e-09
2.16427e-07
1.57503e-09
2.16405e-07
1.45735e-09
2.16382e-07
1.32772e-09
2.16356e-07
1.20085e-09
2.16332e-07
1.07023e-09
2.16302e-07
9.63298e-10
2.16267e-07
8.43767e-10
2.16225e-07
7.50631e-10
2.16186e-07
6.23173e-10
2.16146e-07
5.36341e-10
2.16113e-07
4.05321e-10
2.16077e-07
3.51832e-10
2.16047e-07
2.61652e-10
2.16014e-07
2.70392e-10
2.1598e-07
2.48997e-10
2.1594e-07
2.88621e-10
3.17694e-10
2.7091e-07
2.2122e-09
-2.70877e-07
2.70955e-07
2.39535e-09
2.71021e-07
2.56892e-09
2.7111e-07
2.74833e-09
2.71214e-07
2.92947e-09
2.71334e-07
3.10946e-09
2.71462e-07
3.2826e-09
2.71598e-07
3.43409e-09
2.71735e-07
3.56438e-09
2.71858e-07
3.66589e-09
2.71981e-07
3.72702e-09
2.721e-07
3.75971e-09
2.72193e-07
3.7626e-09
2.72281e-07
3.72906e-09
2.72364e-07
3.68978e-09
2.72424e-07
3.6426e-09
2.7247e-07
3.56385e-09
2.72501e-07
3.46294e-09
2.72526e-07
3.34699e-09
2.72545e-07
3.23712e-09
2.72525e-07
3.14414e-09
2.72494e-07
3.01897e-09
2.72492e-07
2.86604e-09
2.72485e-07
2.74792e-09
2.72452e-07
2.64514e-09
2.72432e-07
2.51338e-09
2.72422e-07
2.3869e-09
2.72404e-07
2.28059e-09
2.72386e-07
2.16743e-09
2.72373e-07
2.04528e-09
2.72358e-07
1.93237e-09
2.72345e-07
1.81956e-09
2.72332e-07
1.70789e-09
2.72318e-07
1.58897e-09
2.72305e-07
1.47057e-09
2.7229e-07
1.34278e-09
2.72266e-07
1.22434e-09
2.72244e-07
1.09267e-09
2.72221e-07
9.86278e-10
2.72195e-07
8.69878e-10
2.7216e-07
7.85234e-10
2.72127e-07
6.55694e-10
2.72093e-07
5.70408e-10
2.72063e-07
4.35694e-10
2.72031e-07
3.83759e-10
2.72005e-07
2.87979e-10
2.71976e-07
2.99233e-10
2.71946e-07
2.7933e-10
2.7191e-07
3.24387e-10
3.62059e-10
3.41798e-07
-3.41784e-07
3.41817e-07
3.41844e-07
3.4188e-07
3.41917e-07
3.41965e-07
3.42023e-07
3.42084e-07
3.42152e-07
3.42214e-07
3.42262e-07
3.423e-07
3.42336e-07
3.42386e-07
3.42441e-07
3.42472e-07
3.42489e-07
3.42504e-07
3.42517e-07
3.42531e-07
3.4253e-07
3.42519e-07
3.42519e-07
3.4252e-07
3.4251e-07
3.42504e-07
3.425e-07
3.42492e-07
3.42487e-07
3.42483e-07
3.42477e-07
3.42473e-07
3.4247e-07
3.42463e-07
3.42457e-07
3.42454e-07
3.4245e-07
3.42446e-07
3.42439e-07
3.42426e-07
3.42407e-07
3.4239e-07
3.42376e-07
3.42365e-07
3.42352e-07
3.42341e-07
3.42328e-07
3.42312e-07
3.42294e-07
6.90505e-08
-1.32481e-10
6.9042e-08
2.31209e-11
6.89726e-08
1.07974e-10
6.89007e-08
7.93627e-11
6.88087e-08
2.3611e-10
6.87246e-08
1.89629e-10
6.86102e-08
3.05977e-10
6.84825e-08
2.28765e-10
6.82533e-08
5.03196e-10
6.7921e-08
5.68158e-10
6.72579e-08
1.18425e-09
1.77782e-09
7.44535e-08
-5.11162e-11
7.44913e-08
-1.47374e-11
7.44102e-08
1.89124e-10
7.43662e-08
1.23331e-10
7.42487e-08
3.53584e-10
7.41705e-08
2.67807e-10
7.4012e-08
4.64501e-10
7.38503e-08
3.90502e-10
7.35957e-08
7.5782e-10
7.32272e-08
9.36616e-10
7.28003e-08
1.61112e-09
2.05944e-09
8.04279e-08
2.30289e-11
8.04137e-08
-5.17984e-13
8.03757e-08
2.27134e-10
8.02867e-08
2.12302e-10
8.02181e-08
4.22243e-10
8.00692e-08
4.1667e-10
7.99573e-08
5.76354e-10
7.96937e-08
6.54179e-10
7.94977e-08
9.53814e-10
7.91393e-08
1.29501e-09
7.89619e-08
1.7885e-09
2.29138e-09
8.69134e-08
5.66216e-11
8.68466e-08
6.62921e-11
8.68319e-08
2.41847e-10
8.67284e-08
3.15812e-10
8.66622e-08
4.88426e-10
8.65043e-08
5.74593e-10
8.63603e-08
7.20351e-10
8.61189e-08
8.95603e-10
8.58996e-08
1.1731e-09
8.56492e-08
1.54543e-09
8.54835e-08
1.95423e-09
2.43316e-09
9.38918e-08
7.27797e-11
9.3814e-08
1.44104e-10
9.37845e-08
2.71406e-10
9.3691e-08
4.09279e-10
9.36055e-08
5.73956e-10
9.34563e-08
7.23739e-10
9.32885e-08
8.88181e-10
9.30738e-08
1.11029e-09
9.28608e-08
1.38609e-09
9.26712e-08
1.73503e-09
9.25153e-08
2.11017e-09
2.51788e-09
1.01414e-07
8.53752e-11
1.01345e-07
2.12952e-10
1.01288e-07
3.27811e-10
1.01203e-07
4.94609e-10
1.01101e-07
6.76215e-10
1.00959e-07
8.65672e-10
1.00787e-07
1.05987e-09
1.00593e-07
1.30471e-09
1.004e-07
1.57877e-09
1.00242e-07
1.89309e-09
1.00119e-07
2.23278e-09
2.57209e-09
1.09533e-07
9.8497e-11
1.09475e-07
2.71474e-10
1.09401e-07
4.01967e-10
1.09311e-07
5.8372e-10
1.09201e-07
7.87128e-10
1.09064e-07
1.00254e-09
1.08901e-07
1.22286e-09
1.08725e-07
1.48032e-09
1.08557e-07
1.74683e-09
1.08423e-07
2.02664e-09
1.08333e-07
2.32345e-09
2.60319e-09
1.18302e-07
1.12979e-10
1.1825e-07
3.23429e-10
1.18168e-07
4.84503e-10
1.18073e-07
6.78837e-10
1.17958e-07
9.01725e-10
1.17825e-07
1.13512e-09
1.17676e-07
1.37245e-09
1.17522e-07
1.63402e-09
1.17381e-07
1.88842e-09
1.1727e-07
2.13681e-09
1.17203e-07
2.39128e-09
2.61616e-09
1.27773e-07
1.29146e-10
1.27724e-07
3.72316e-10
1.2764e-07
5.68315e-10
1.27542e-07
7.76887e-10
1.27428e-07
1.01624e-09
1.27301e-07
1.26198e-09
1.27167e-07
1.506e-09
1.27037e-07
1.76455e-09
1.26921e-07
2.00437e-09
1.26832e-07
2.22505e-09
1.26784e-07
2.44026e-09
2.61965e-09
1.38002e-07
1.46851e-10
1.37955e-07
4.1981e-10
1.37873e-07
6.49808e-10
1.37776e-07
8.73899e-10
1.37667e-07
1.12571e-09
1.37549e-07
1.37996e-09
1.37431e-07
1.62403e-09
1.37322e-07
1.87269e-09
1.37232e-07
2.09518e-09
1.37164e-07
2.293e-09
1.37132e-07
2.47164e-09
2.61652e-09
1.70997e-07
1.67845e-10
1.70943e-07
4.7429e-10
1.70855e-07
7.37439e-10
1.70748e-07
9.81182e-10
1.70633e-07
1.24055e-09
1.70512e-07
1.50129e-09
1.70396e-07
1.7403e-09
1.70299e-07
1.96932e-09
1.70221e-07
2.17364e-09
1.70163e-07
2.35066e-09
1.70138e-07
2.49631e-09
2.60448e-09
2.15447e-07
1.90346e-10
2.15387e-07
5.34593e-10
2.15299e-07
8.25864e-10
2.15187e-07
1.09256e-09
2.15073e-07
1.35459e-09
2.14962e-07
1.61255e-09
2.1486e-07
1.84253e-09
2.14779e-07
2.05027e-09
2.14715e-07
2.2373e-09
2.14675e-07
2.39088e-09
2.14665e-07
2.50634e-09
2.58287e-09
2.71455e-07
2.09794e-10
2.71399e-07
5.90917e-10
2.71324e-07
9.0048e-10
2.7123e-07
1.18753e-09
2.71132e-07
1.45178e-09
2.7105e-07
1.69509e-09
2.70981e-07
1.9115e-09
2.7092e-07
2.11127e-09
2.70879e-07
2.27766e-09
2.70861e-07
2.40966e-09
2.7086e-07
2.50749e-09
2.56495e-09
3.42028e-07
3.42e-07
3.41965e-07
3.41921e-07
3.41876e-07
3.41846e-07
3.41818e-07
3.41794e-07
3.41779e-07
3.41772e-07
3.41774e-07
)
;

boundaryField
{
    top
    {
        type            calculated;
        value           nonuniform List<scalar> 
62
(
2.19754e-09
2.37703e-09
2.54164e-09
2.71222e-09
2.89275e-09
3.0609e-09
3.2248e-09
3.3729e-09
3.49634e-09
3.60383e-09
3.67973e-09
3.72091e-09
3.72687e-09
3.67896e-09
3.6354e-09
3.61166e-09
3.54673e-09
3.44799e-09
3.33341e-09
3.22315e-09
3.14533e-09
3.03038e-09
2.86583e-09
2.74709e-09
2.65447e-09
2.51941e-09
2.39107e-09
2.28827e-09
2.17249e-09
2.04921e-09
1.93898e-09
1.82308e-09
1.71121e-09
1.59564e-09
1.47693e-09
1.3458e-09
1.22837e-09
1.0966e-09
9.93544e-10
8.83062e-10
8.04157e-10
6.72083e-10
5.84601e-10
4.46972e-10
3.9627e-10
2.99012e-10
3.12709e-10
2.94642e-10
3.4294e-10
3.83388e-10
2.18983e-10
6.18923e-10
9.35394e-10
1.23132e-09
1.49724e-09
1.7248e-09
1.93889e-09
2.13538e-09
2.29322e-09
2.41624e-09
2.50572e-09
2.55533e-09
)
;
    }
    inlet
    {
        type            calculated;
        value           nonuniform List<scalar> 
14
(
-1.71018e-07
-2.1547e-07
-2.71475e-07
-3.42037e-07
-6.90099e-08
-7.45348e-08
-8.05021e-08
-8.6947e-08
-9.3908e-08
-1.01426e-07
-1.09546e-07
-1.18317e-07
-1.27789e-07
-1.3802e-07
)
;
    }
    outlet
    {
        type            calculated;
        value           nonuniform List<scalar> 
14
(
1.71417e-07
2.15891e-07
2.71865e-07
3.42273e-07
1.15577e-08
3.61396e-08
5.92748e-08
7.76382e-08
9.08565e-08
1.00836e-07
1.09691e-07
1.18635e-07
1.28142e-07
1.38377e-07
)
;
    }
    plate
    {
        type            calculated;
        value           uniform 0;
    }
    symmBound
    {
        type            calculated;
        value           nonuniform List<scalar> 
12
(
9.19148e-11
-1.46925e-11
-3.84879e-11
-7.51983e-12
-1.44122e-10
-1.05452e-10
-1.91662e-10
-1.01018e-10
-2.74039e-10
-2.35832e-10
-5.21104e-10
-7.02318e-10
)
;
    }
    frontAndBack
    {
        type            empty;
        value           nonuniform 0();
    }
}


// ************************************************************************* //
