/*--------------------------------*- C++ -*----------------------------------*\
| =========                 |                                                 |
| \\      /  F ield         | OpenFOAM: The Open Source CFD Toolbox           |
|  \\    /   O peration     | Version:  2.3.0                                 |
|   \\  /    A nd           | Web:      www.OpenFOAM.org                      |
|    \\/     M anipulation  |                                                 |
\*---------------------------------------------------------------------------*/
FoamFile
{
    version     2.0;
    format      ascii;
    class       volVectorField;
    location    "0.35";
    object      U;
}
// * * * * * * * * * * * * * * * * * * * * * * * * * * * * * * * * * * * * * //

dimensions      [0 1 -1 0 0 0 0];

internalField   nonuniform List<vector> 
868
(
(0.188543 0.0022848 0)
(0.177355 0.00334307 0)
(0.16676 0.00372544 0)
(0.156072 0.00369114 0)
(0.14501 0.00353139 0)
(0.133686 0.00337123 0)
(0.122332 0.00324325 0)
(0.111035 0.00308451 0)
(0.0999948 0.00283856 0)
(0.0894834 0.00252937 0)
(0.0797216 0.00219859 0)
(0.0708464 0.00179967 0)
(0.0630532 0.00131224 0)
(0.0565399 0.00081387 0)
(0.0513928 0.000391233 0)
(0.0475023 8.92637e-05 0)
(0.0445845 -9.65228e-05 0)
(0.0423762 -0.000205538 0)
(0.0407555 -0.000261144 0)
(0.0396225 -0.000262891 0)
(0.0388016 -0.000229099 0)
(0.0381201 -0.000183983 0)
(0.0375006 -0.000140903 0)
(0.0369379 -0.000103382 0)
(0.0364342 -7.21512e-05 0)
(0.0359698 -4.52198e-05 0)
(0.0355197 -2.38738e-05 0)
(0.035076 -1.10922e-05 0)
(0.0346519 -4.78503e-06 0)
(0.0342581 -1.82632e-07 0)
(0.0339018 3.92997e-06 0)
(0.0335898 6.17586e-06 0)
(0.0333309 7.12316e-06 0)
(0.0331233 7.71213e-06 0)
(0.032965 7.84709e-06 0)
(0.0328509 7.3621e-06 0)
(0.0327842 5.68796e-06 0)
(0.0327592 4.58256e-06 0)
(0.0327707 1.40751e-06 0)
(0.0328057 -4.04882e-07 0)
(0.032863 -2.25484e-06 0)
(0.0329356 -3.28138e-06 0)
(0.033021 -4.36612e-06 0)
(0.0331131 -5.03737e-06 0)
(0.0332027 -5.11686e-06 0)
(0.0332877 -4.43255e-06 0)
(0.0333515 -3.29892e-06 0)
(0.0334117 -2.61014e-06 0)
(0.0334422 -2.26543e-06 0)
(0.0334913 -2.17265e-06 0)
(0.195817 0.00405983 0)
(0.19526 0.00575756 0)
(0.194527 0.00660954 0)
(0.193483 0.00681806 0)
(0.191858 0.00681415 0)
(0.189536 0.00678267 0)
(0.18657 0.00677139 0)
(0.182998 0.00675268 0)
(0.178924 0.00664701 0)
(0.174425 0.0063996 0)
(0.169595 0.00602214 0)
(0.164548 0.00556429 0)
(0.159415 0.00503209 0)
(0.154325 0.00436615 0)
(0.149322 0.00359201 0)
(0.144455 0.00288007 0)
(0.139829 0.00233838 0)
(0.135479 0.00188244 0)
(0.131406 0.00143542 0)
(0.127657 0.00107563 0)
(0.124239 0.000871294 0)
(0.121074 0.00075407 0)
(0.118111 0.000650886 0)
(0.115363 0.000547699 0)
(0.112858 0.000457757 0)
(0.110578 0.000399351 0)
(0.108499 0.000366552 0)
(0.106597 0.000335329 0)
(0.104863 0.000296611 0)
(0.103293 0.000256246 0)
(0.101893 0.000215578 0)
(0.100657 0.000173661 0)
(0.0995896 0.00013357 0)
(0.098681 9.91195e-05 0)
(0.0979297 6.89333e-05 0)
(0.0973225 4.16959e-05 0)
(0.0968586 1.60432e-05 0)
(0.0965153 -3.45715e-06 0)
(0.0962851 -2.05761e-05 0)
(0.0961463 -3.21417e-05 0)
(0.0960905 -4.21591e-05 0)
(0.0961029 -4.83391e-05 0)
(0.0961672 -5.23391e-05 0)
(0.0962814 -5.15828e-05 0)
(0.0964006 -4.7331e-05 0)
(0.0965508 -3.89219e-05 0)
(0.0966496 -3.00728e-05 0)
(0.0967896 -2.14132e-05 0)
(0.0968359 -1.69238e-05 0)
(0.0969705 -1.23368e-05 0)
(0.196301 0.00379777 0)
(0.196279 0.00491278 0)
(0.196483 0.00578012 0)
(0.196915 0.00624895 0)
(0.197375 0.00650672 0)
(0.197657 0.00667717 0)
(0.197722 0.00684672 0)
(0.197556 0.00702311 0)
(0.197135 0.0070988 0)
(0.196472 0.00703048 0)
(0.195591 0.00685043 0)
(0.194464 0.00656593 0)
(0.193087 0.0061576 0)
(0.191524 0.00559588 0)
(0.189761 0.00492417 0)
(0.187773 0.0043058 0)
(0.185674 0.00383507 0)
(0.18353 0.00341533 0)
(0.181275 0.00296247 0)
(0.178922 0.00255687 0)
(0.176615 0.00229424 0)
(0.174424 0.00212964 0)
(0.172345 0.00198838 0)
(0.170353 0.00184084 0)
(0.168399 0.00168724 0)
(0.166429 0.00154739 0)
(0.164463 0.00142267 0)
(0.162557 0.00129641 0)
(0.160759 0.0011712 0)
(0.159083 0.00105565 0)
(0.157527 0.000940187 0)
(0.156071 0.000820797 0)
(0.154714 0.000701318 0)
(0.15346 0.000588355 0)
(0.152325 0.000481974 0)
(0.151308 0.000381803 0)
(0.150417 0.000284779 0)
(0.149647 0.000200595 0)
(0.148997 0.000129077 0)
(0.148471 7.17507e-05 0)
(0.148047 2.11907e-05 0)
(0.147735 -1.57578e-05 0)
(0.147484 -4.76489e-05 0)
(0.147346 -6.65613e-05 0)
(0.147216 -7.89603e-05 0)
(0.147206 -7.40663e-05 0)
(0.147141 -6.99912e-05 0)
(0.147202 -5.65165e-05 0)
(0.147168 -5.25928e-05 0)
(0.147261 -4.2566e-05 0)
(0.196818 0.0036514 0)
(0.196807 0.00447938 0)
(0.19694 0.00525921 0)
(0.197307 0.00581604 0)
(0.197876 0.00618568 0)
(0.19847 0.00644109 0)
(0.199015 0.00663452 0)
(0.199512 0.00680008 0)
(0.199922 0.00689009 0)
(0.20025 0.00687575 0)
(0.200541 0.00677055 0)
(0.200748 0.00656038 0)
(0.20081 0.00623542 0)
(0.20074 0.00578243 0)
(0.20051 0.005221 0)
(0.200079 0.00468311 0)
(0.199536 0.00427166 0)
(0.198928 0.00390633 0)
(0.198155 0.0035069 0)
(0.197213 0.0031634 0)
(0.196235 0.00293563 0)
(0.195282 0.0027518 0)
(0.194356 0.00255387 0)
(0.193477 0.00235514 0)
(0.192661 0.00219542 0)
(0.191854 0.00209845 0)
(0.190986 0.00201845 0)
(0.190024 0.00189479 0)
(0.18902 0.00173432 0)
(0.188053 0.00157486 0)
(0.187164 0.00142337 0)
(0.18633 0.00127872 0)
(0.185526 0.00113832 0)
(0.184741 0.00100316 0)
(0.18399 0.000868838 0)
(0.18328 0.000738708 0)
(0.182612 0.000608563 0)
(0.181993 0.000492558 0)
(0.181417 0.000384707 0)
(0.180915 0.000293264 0)
(0.180456 0.00020408 0)
(0.180085 0.000137162 0)
(0.179737 7.38299e-05 0)
(0.179483 3.18983e-05 0)
(0.17923 -4.61684e-06 0)
(0.179064 -1.80049e-05 0)
(0.178897 -2.70343e-05 0)
(0.178778 -3.03073e-05 0)
(0.178693 -3.09624e-05 0)
(0.178587 -3.85998e-05 0)
(0.197276 0.00359879 0)
(0.197287 0.00427156 0)
(0.197378 0.00496791 0)
(0.197625 0.00552794 0)
(0.198081 0.00592775 0)
(0.198628 0.0062323 0)
(0.199179 0.00644148 0)
(0.199729 0.00656638 0)
(0.200237 0.00664647 0)
(0.200686 0.00665505 0)
(0.201124 0.00654263 0)
(0.201546 0.00633669 0)
(0.201906 0.0060674 0)
(0.202183 0.00569283 0)
(0.202342 0.00520526 0)
(0.202357 0.00471711 0)
(0.202307 0.00433288 0)
(0.202225 0.00401035 0)
(0.202024 0.00367916 0)
(0.201691 0.00337862 0)
(0.201331 0.00314798 0)
(0.200985 0.00295257 0)
(0.200642 0.00275333 0)
(0.200303 0.00254465 0)
(0.200007 0.00235912 0)
(0.199769 0.00224946 0)
(0.199545 0.00219519 0)
(0.199258 0.00211746 0)
(0.198892 0.00198239 0)
(0.198495 0.00181399 0)
(0.198125 0.00163707 0)
(0.197791 0.00147526 0)
(0.197469 0.00132941 0)
(0.19714 0.00119275 0)
(0.196807 0.00105264 0)
(0.196481 0.000916395 0)
(0.19616 0.000777723 0)
(0.195848 0.000655416 0)
(0.195541 0.000536037 0)
(0.195256 0.000433027 0)
(0.194986 0.000328721 0)
(0.194744 0.00024723 0)
(0.194525 0.000168935 0)
(0.194324 0.000111876 0)
(0.194168 6.81266e-05 0)
(0.193996 4.00841e-05 0)
(0.193903 3.00928e-05 0)
(0.19373 1.2563e-05 0)
(0.193688 1.25551e-05 0)
(0.193501 -6.93425e-06 0)
(0.197681 0.00356729 0)
(0.197695 0.00411377 0)
(0.197773 0.00473586 0)
(0.197959 0.00526536 0)
(0.198312 0.00563937 0)
(0.198767 0.00595598 0)
(0.199261 0.00619334 0)
(0.199787 0.00630103 0)
(0.200283 0.00635793 0)
(0.200697 0.00636168 0)
(0.201091 0.00624075 0)
(0.201502 0.0060541 0)
(0.201879 0.00584844 0)
(0.202183 0.0055406 0)
(0.20239 0.00511123 0)
(0.202484 0.00468143 0)
(0.202539 0.00433314 0)
(0.202574 0.00402885 0)
(0.20251 0.00372399 0)
(0.20235 0.00343999 0)
(0.202193 0.00320712 0)
(0.202064 0.00301884 0)
(0.20193 0.00283717 0)
(0.201771 0.00262974 0)
(0.201619 0.0024238 0)
(0.201512 0.00228956 0)
(0.201454 0.00222698 0)
(0.201401 0.00216615 0)
(0.201322 0.002056 0)
(0.201207 0.00189753 0)
(0.201081 0.00171439 0)
(0.200956 0.00154472 0)
(0.200837 0.00139617 0)
(0.200707 0.00126222 0)
(0.200571 0.00112496 0)
(0.200429 0.000989859 0)
(0.200292 0.000850222 0)
(0.200145 0.000727443 0)
(0.200006 0.000607167 0)
(0.199856 0.000500972 0)
(0.199732 0.000393485 0)
(0.199587 0.000305489 0)
(0.199491 0.00022546 0)
(0.199349 0.000158649 0)
(0.199297 0.000113933 0)
(0.199162 7.57236e-05 0)
(0.199151 6.8074e-05 0)
(0.199003 4.47765e-05 0)
(0.199008 4.82632e-05 0)
(0.198837 2.70199e-05 0)
(0.19804 0.00354001 0)
(0.198059 0.00398923 0)
(0.198124 0.00452555 0)
(0.19827 0.00501254 0)
(0.198555 0.00535709 0)
(0.198925 0.00565917 0)
(0.199344 0.00590533 0)
(0.199822 0.00602045 0)
(0.200277 0.00605608 0)
(0.200645 0.00604474 0)
(0.201005 0.00596074 0)
(0.20139 0.00582159 0)
(0.201722 0.00564252 0)
(0.201979 0.00537346 0)
(0.202175 0.00500255 0)
(0.202291 0.00463316 0)
(0.202368 0.00432606 0)
(0.20242 0.00402952 0)
(0.202389 0.00373471 0)
(0.202287 0.00348212 0)
(0.2022 0.00326249 0)
(0.202134 0.00306586 0)
(0.202051 0.00288357 0)
(0.201942 0.00267872 0)
(0.201834 0.00247002 0)
(0.201745 0.00232743 0)
(0.20169 0.00224572 0)
(0.201671 0.00216848 0)
(0.20168 0.00206144 0)
(0.201669 0.0019166 0)
(0.201629 0.00174371 0)
(0.201567 0.00157964 0)
(0.201505 0.00143296 0)
(0.201432 0.00129831 0)
(0.20136 0.00116207 0)
(0.201275 0.00102958 0)
(0.2012 0.000891631 0)
(0.201108 0.000767454 0)
(0.201035 0.000647716 0)
(0.200931 0.000539516 0)
(0.20087 0.000433691 0)
(0.200763 0.000341195 0)
(0.200722 0.000261819 0)
(0.200607 0.000186354 0)
(0.200599 0.000140967 0)
(0.200487 9.54608e-05 0)
(0.200511 9.03965e-05 0)
(0.200387 6.68594e-05 0)
(0.200412 7.42203e-05 0)
(0.200265 5.75907e-05 0)
(0.198362 0.00350891 0)
(0.198384 0.00389106 0)
(0.198439 0.00433006 0)
(0.198555 0.00477311 0)
(0.198787 0.0050942 0)
(0.199088 0.00536419 0)
(0.199436 0.00561386 0)
(0.199851 0.00574577 0)
(0.200253 0.00577763 0)
(0.200589 0.0057792 0)
(0.200925 0.00572713 0)
(0.20126 0.00559431 0)
(0.201536 0.00541753 0)
(0.201756 0.00520456 0)
(0.201936 0.00491416 0)
(0.202063 0.00458895 0)
(0.202152 0.00430892 0)
(0.20221 0.00404507 0)
(0.202201 0.00377165 0)
(0.202125 0.00352692 0)
(0.202055 0.00330003 0)
(0.202011 0.00308785 0)
(0.201947 0.00290883 0)
(0.20185 0.00272296 0)
(0.20177 0.00252384 0)
(0.201701 0.00237395 0)
(0.201635 0.00227286 0)
(0.201603 0.00217593 0)
(0.201623 0.00206177 0)
(0.201638 0.00191991 0)
(0.201624 0.00175435 0)
(0.201581 0.00160104 0)
(0.201533 0.00146506 0)
(0.201476 0.00133291 0)
(0.201427 0.00119433 0)
(0.201362 0.00106015 0)
(0.201308 0.000925499 0)
(0.201232 0.000801804 0)
(0.201181 0.000683156 0)
(0.201092 0.000571953 0)
(0.201051 0.000468272 0)
(0.200957 0.000371369 0)
(0.200931 0.000291991 0)
(0.200826 0.000209009 0)
(0.200829 0.000163312 0)
(0.200728 0.000112301 0)
(0.200756 0.000108818 0)
(0.200644 8.59439e-05 0)
(0.200671 9.67792e-05 0)
(0.200538 8.6779e-05 0)
(0.198652 0.00346306 0)
(0.198668 0.00380646 0)
(0.19873 0.00416491 0)
(0.198818 0.0045479 0)
(0.198985 0.0048569 0)
(0.199249 0.00509858 0)
(0.199546 0.00533481 0)
(0.199879 0.00548087 0)
(0.200231 0.00552959 0)
(0.200536 0.00554715 0)
(0.200817 0.0054894 0)
(0.201105 0.00535561 0)
(0.201369 0.00522317 0)
(0.201567 0.00507681 0)
(0.201702 0.00484127 0)
(0.201818 0.00454215 0)
(0.201932 0.00427414 0)
(0.201996 0.00404281 0)
(0.201984 0.00379426 0)
(0.201922 0.00354035 0)
(0.201874 0.00331573 0)
(0.201857 0.00312648 0)
(0.201809 0.00295281 0)
(0.20171 0.00276349 0)
(0.201637 0.00257329 0)
(0.201587 0.00242247 0)
(0.201527 0.00229715 0)
(0.201488 0.00217551 0)
(0.201501 0.0020568 0)
(0.201511 0.00192473 0)
(0.201502 0.00176826 0)
(0.201472 0.00161772 0)
(0.201435 0.00148617 0)
(0.201384 0.00136061 0)
(0.201345 0.00122549 0)
(0.201293 0.00108893 0)
(0.201253 0.000955876 0)
(0.201189 0.00083302 0)
(0.201147 0.000716506 0)
(0.201066 0.000602193 0)
(0.201033 0.000500767 0)
(0.200947 0.000399757 0)
(0.200924 0.000321221 0)
(0.200826 0.000231811 0)
(0.200829 0.000186 0)
(0.200734 0.000129616 0)
(0.20076 0.00012705 0)
(0.200653 0.000105081 0)
(0.200678 0.000119059 0)
(0.200553 0.000116034 0)
(0.198912 0.00340824 0)
(0.198925 0.00372082 0)
(0.198978 0.00403626 0)
(0.199059 0.00434467 0)
(0.199177 0.00464395 0)
(0.199391 0.00487922 0)
(0.199649 0.00506978 0)
(0.199917 0.00522844 0)
(0.200212 0.00530723 0)
(0.200463 0.00531305 0)
(0.20069 0.0052654 0)
(0.200967 0.00517598 0)
(0.201232 0.0050783 0)
(0.201382 0.00494368 0)
(0.201454 0.00472483 0)
(0.201556 0.00446896 0)
(0.201697 0.00423085 0)
(0.201777 0.00401573 0)
(0.201757 0.00380981 0)
(0.201705 0.00357944 0)
(0.201692 0.00334077 0)
(0.201692 0.00315512 0)
(0.201632 0.00299104 0)
(0.201532 0.00278994 0)
(0.201483 0.00259903 0)
(0.201452 0.00245895 0)
(0.201391 0.00232594 0)
(0.201352 0.00218474 0)
(0.201366 0.00205487 0)
(0.201366 0.00192629 0)
(0.201348 0.00178415 0)
(0.201324 0.00164136 0)
(0.201301 0.00150737 0)
(0.201258 0.00138033 0)
(0.201227 0.00124979 0)
(0.201184 0.00111381 0)
(0.201157 0.000982717 0)
(0.201104 0.000861294 0)
(0.201068 0.000747998 0)
(0.200995 0.000631075 0)
(0.200969 0.000532211 0)
(0.200891 0.000429198 0)
(0.20087 0.000351824 0)
(0.200778 0.000255744 0)
(0.200781 0.00020878 0)
(0.200692 0.000147251 0)
(0.200714 0.000146596 0)
(0.200613 0.000125587 0)
(0.200635 0.000143531 0)
(0.200518 0.000146589 0)
(0.199153 0.00336639 0)
(0.199182 0.00363215 0)
(0.199217 0.00391561 0)
(0.199281 0.00417804 0)
(0.199375 0.0044391 0)
(0.19952 0.00466738 0)
(0.199739 0.00483145 0)
(0.199971 0.00498512 0)
(0.200181 0.00507992 0)
(0.200375 0.00509024 0)
(0.200581 0.0050823 0)
(0.200827 0.00501773 0)
(0.201051 0.0048918 0)
(0.201151 0.00476546 0)
(0.201189 0.00460629 0)
(0.201292 0.00440952 0)
(0.201444 0.00420315 0)
(0.20154 0.00398551 0)
(0.201522 0.00379577 0)
(0.201438 0.00360433 0)
(0.201433 0.00336083 0)
(0.201485 0.0031569 0)
(0.201434 0.00301159 0)
(0.201322 0.00282756 0)
(0.201298 0.00263264 0)
(0.20129 0.00248872 0)
(0.201223 0.00235369 0)
(0.201179 0.0022069 0)
(0.201195 0.00206752 0)
(0.201192 0.00192907 0)
(0.201172 0.00179095 0)
(0.20115 0.00166008 0)
(0.201133 0.00153055 0)
(0.201099 0.00140211 0)
(0.201075 0.00127581 0)
(0.201042 0.00114003 0)
(0.201028 0.00100647 0)
(0.200987 0.000882785 0)
(0.200955 0.000776124 0)
(0.200891 0.000661257 0)
(0.200872 0.000565932 0)
(0.200806 0.000458803 0)
(0.200786 0.000382016 0)
(0.200703 0.000280387 0)
(0.200706 0.00023366 0)
(0.200627 0.000168127 0)
(0.200644 0.00016907 0)
(0.200553 0.000148989 0)
(0.200571 0.000169828 0)
(0.200466 0.000178703 0)
(0.199396 0.00332418 0)
(0.199425 0.00354843 0)
(0.199459 0.00378811 0)
(0.199498 0.00402597 0)
(0.199565 0.0042422 0)
(0.199658 0.0044556 0)
(0.199823 0.00462253 0)
(0.200014 0.00474659 0)
(0.200153 0.00484488 0)
(0.2003 0.0048816 0)
(0.20045 0.0048806 0)
(0.200599 0.00482968 0)
(0.200804 0.00471668 0)
(0.200934 0.00461262 0)
(0.200938 0.00449889 0)
(0.200987 0.00433386 0)
(0.201106 0.00414919 0)
(0.201205 0.00394725 0)
(0.201219 0.00375363 0)
(0.201128 0.00358569 0)
(0.201113 0.00338921 0)
(0.201218 0.00318729 0)
(0.201188 0.00302544 0)
(0.20105 0.00285733 0)
(0.201041 0.00267572 0)
(0.201066 0.00251691 0)
(0.201002 0.00236924 0)
(0.200956 0.00222454 0)
(0.200969 0.0020884 0)
(0.200962 0.0019461 0)
(0.200947 0.00180535 0)
(0.200933 0.00167738 0)
(0.20092 0.00155152 0)
(0.200896 0.0014204 0)
(0.200877 0.00129591 0)
(0.200846 0.00116552 0)
(0.200841 0.00103604 0)
(0.200818 0.000908107 0)
(0.200796 0.000803216 0)
(0.20074 0.000690643 0)
(0.200728 0.000600426 0)
(0.200676 0.000490093 0)
(0.20066 0.000414663 0)
(0.200592 0.000308394 0)
(0.200595 0.000261943 0)
(0.200529 0.000190666 0)
(0.200542 0.00019292 0)
(0.200465 0.000173348 0)
(0.200479 0.000197531 0)
(0.200391 0.000213057 0)
(0.199632 0.00327164 0)
(0.199651 0.00347685 0)
(0.199689 0.00367964 0)
(0.199701 0.0038896 0)
(0.199744 0.00408485 0)
(0.19981 0.00427121 0)
(0.19989 0.00443622 0)
(0.200024 0.00454726 0)
(0.200119 0.00463304 0)
(0.20018 0.00468623 0)
(0.200276 0.00468914 0)
(0.200388 0.00466774 0)
(0.200545 0.00459971 0)
(0.200638 0.00448109 0)
(0.200596 0.00435949 0)
(0.200611 0.00423311 0)
(0.200721 0.00408334 0)
(0.200809 0.00391208 0)
(0.200836 0.0037265 0)
(0.200761 0.00355779 0)
(0.200727 0.00340499 0)
(0.200828 0.00322219 0)
(0.200832 0.00302564 0)
(0.200715 0.00286169 0)
(0.200712 0.00270996 0)
(0.200746 0.0025426 0)
(0.200698 0.00238297 0)
(0.200667 0.00224189 0)
(0.20068 0.00210406 0)
(0.200665 0.00196237 0)
(0.200656 0.00182695 0)
(0.200652 0.00169621 0)
(0.20064 0.00156959 0)
(0.200622 0.00143788 0)
(0.200617 0.00131065 0)
(0.200597 0.00118032 0)
(0.200595 0.00105923 0)
(0.200581 0.000931483 0)
(0.200566 0.000829103 0)
(0.200525 0.000721318 0)
(0.200521 0.000640122 0)
(0.20049 0.000526289 0)
(0.200479 0.000449491 0)
(0.200429 0.000337475 0)
(0.200431 0.000291489 0)
(0.200386 0.000215301 0)
(0.200395 0.00021982 0)
(0.20034 0.000201134 0)
(0.200351 0.000229696 0)
(0.200288 0.000249925 0)
(0.199876 0.0032343 0)
(0.199876 0.00343115 0)
(0.199897 0.00361826 0)
(0.199905 0.00379934 0)
(0.199907 0.00398787 0)
(0.19993 0.00415584 0)
(0.199956 0.00431007 0)
(0.200003 0.00443113 0)
(0.200046 0.00449965 0)
(0.200065 0.00455265 0)
(0.200099 0.00457504 0)
(0.200133 0.00455843 0)
(0.200176 0.00450272 0)
(0.200218 0.00438141 0)
(0.200216 0.00426003 0)
(0.20022 0.00416831 0)
(0.200255 0.0040426 0)
(0.200292 0.00388146 0)
(0.20031 0.00369514 0)
(0.200277 0.00351462 0)
(0.200258 0.00338946 0)
(0.200309 0.00323575 0)
(0.20032 0.00301895 0)
(0.200268 0.00285286 0)
(0.200269 0.00272575 0)
(0.200292 0.00255267 0)
(0.200272 0.00238454 0)
(0.200257 0.00224907 0)
(0.200267 0.00210573 0)
(0.200261 0.00195958 0)
(0.200258 0.001831 0)
(0.200259 0.00169711 0)
(0.200257 0.00156765 0)
(0.200249 0.00144005 0)
(0.200248 0.00131493 0)
(0.20024 0.00118369 0)
(0.200243 0.00106892 0)
(0.200243 0.000942228 0)
(0.200243 0.000838789 0)
(0.200225 0.000732637 0)
(0.200223 0.000658761 0)
(0.200209 0.000544546 0)
(0.200207 0.000467764 0)
(0.200189 0.000353273 0)
(0.200192 0.000309536 0)
(0.200176 0.000230821 0)
(0.20018 0.000237353 0)
(0.200159 0.000219793 0)
(0.200163 0.000251237 0)
(0.200138 0.000276553 0)
(0.192441 -6.39079e-05 0)
(0.207642 1.45337e-05 0)
(0.192344 3.14665e-05 0)
(0.207158 9.77366e-06 0)
(0.192027 0.000118342 0)
(0.20653 0.000100244 0)
(0.191543 0.000180583 0)
(0.205621 0.000115957 0)
(0.190726 0.000312362 0)
(0.204362 0.000320018 0)
(0.189288 0.000740541 0)
(0.202518 0.00112685 0)
(0.19663 -6.63976e-05 0)
(0.202877 1.85008e-06 0)
(0.197021 0.000102024 0)
(0.201982 7.82184e-05 0)
(0.197167 0.000246916 0)
(0.200934 0.000171645 0)
(0.197163 0.000356462 0)
(0.199607 0.000257148 0)
(0.196814 0.000620321 0)
(0.19802 0.000703209 0)
(0.196098 0.00151293 0)
(0.196146 0.00224506 0)
(0.199172 2.50672e-06 0)
(0.200482 -1.50036e-05 0)
(0.199217 0.000140187 0)
(0.19992 0.000117086 0)
(0.198989 0.000284475 0)
(0.199297 0.000281665 0)
(0.198575 0.000419436 0)
(0.198434 0.000475377 0)
(0.197821 0.000771588 0)
(0.197444 0.00113594 0)
(0.196888 0.00180908 0)
(0.196487 0.00271777 0)
(0.199869 2.78078e-05 0)
(0.199984 1.62652e-05 0)
(0.199712 0.000147362 0)
(0.199604 0.000185813 0)
(0.199323 0.000334596 0)
(0.19914 0.000396003 0)
(0.198802 0.000534705 0)
(0.198436 0.00068761 0)
(0.198031 0.000993925 0)
(0.197637 0.00143961 0)
(0.197254 0.00207308 0)
(0.196956 0.00285633 0)
(0.199982 3.65905e-05 0)
(0.199937 7.0049e-05 0)
(0.199798 0.000165223 0)
(0.199603 0.000253074 0)
(0.199392 0.000388149 0)
(0.199177 0.000513425 0)
(0.198888 0.000670222 0)
(0.198549 0.000889191 0)
(0.198206 0.00121119 0)
(0.197878 0.00167379 0)
(0.197588 0.00226151 0)
(0.197371 0.00294069 0)
(0.199995 4.41658e-05 0)
(0.19994 0.000116446 0)
(0.199821 0.000197953 0)
(0.19963 0.000313249 0)
(0.199433 0.000459598 0)
(0.199226 0.00062352 0)
(0.198962 0.000812984 0)
(0.198668 0.00107681 0)
(0.198383 0.001412 0)
(0.198115 0.00185746 0)
(0.197893 0.00240386 0)
(0.197743 0.00301234 0)
(0.199997 5.21582e-05 0)
(0.199943 0.000151976 0)
(0.199835 0.000242892 0)
(0.199658 0.000376308 0)
(0.199473 0.000537795 0)
(0.199281 0.000730182 0)
(0.199047 0.000954549 0)
(0.198793 0.00124624 0)
(0.198558 0.00158954 0)
(0.198348 0.00201249 0)
(0.198179 0.00251219 0)
(0.198075 0.00305885 0)
(0.199997 6.04567e-05 0)
(0.199946 0.000183614 0)
(0.199848 0.000292455 0)
(0.199688 0.000439721 0)
(0.19952 0.000621567 0)
(0.199347 0.000838114 0)
(0.199141 0.00108724 0)
(0.198925 0.0013939 0)
(0.198736 0.00174253 0)
(0.198574 0.00214615 0)
(0.198446 0.00259418 0)
(0.198378 0.00307422 0)
(0.199998 6.9579e-05 0)
(0.19995 0.000213636 0)
(0.199862 0.000343264 0)
(0.199721 0.000505222 0)
(0.199572 0.000709869 0)
(0.199419 0.000941471 0)
(0.199244 0.0012062 0)
(0.199065 0.00152394 0)
(0.198914 0.0018709 0)
(0.198789 0.00225113 0)
(0.198693 0.00266015 0)
(0.198655 0.0030787 0)
(0.199998 7.91794e-05 0)
(0.199955 0.000242361 0)
(0.199877 0.000397273 0)
(0.199758 0.000571133 0)
(0.199629 0.000793137 0)
(0.199496 0.00104282 0)
(0.199353 0.0013145 0)
(0.199208 0.00163214 0)
(0.199087 0.00197467 0)
(0.198997 0.00233217 0)
(0.198925 0.00270899 0)
(0.1989 0.00308333 0)
(0.199998 9.02794e-05 0)
(0.199962 0.000272151 0)
(0.199894 0.000453516 0)
(0.199797 0.000642895 0)
(0.199697 0.000874125 0)
(0.199584 0.00114012 0)
(0.199468 0.00141822 0)
(0.199361 0.00172868 0)
(0.199271 0.00206406 0)
(0.199206 0.00240054 0)
(0.199158 0.00273676 0)
(0.199134 0.00307649 0)
(0.199998 0.000102868 0)
(0.199971 0.000306264 0)
(0.199917 0.000509703 0)
(0.199843 0.000721907 0)
(0.199774 0.000959789 0)
(0.199689 0.00123202 0)
(0.1996 0.0015197 0)
(0.199531 0.0018229 0)
(0.19947 0.00213886 0)
(0.199422 0.00245445 0)
(0.199395 0.00275874 0)
(0.199387 0.00305855 0)
(0.199998 0.000114284 0)
(0.199981 0.00034246 0)
(0.199947 0.00056222 0)
(0.199897 0.000795633 0)
(0.19986 0.00104379 0)
(0.199809 0.00131364 0)
(0.199749 0.00160492 0)
(0.199708 0.00190211 0)
(0.199678 0.00219891 0)
(0.199652 0.00249207 0)
(0.199635 0.00277261 0)
(0.199633 0.00303695 0)
(0.199999 0.000121498 0)
(0.199993 0.000369321 0)
(0.199982 0.00059909 0)
(0.199963 0.000845132 0)
(0.199952 0.00110371 0)
(0.199935 0.00136848 0)
(0.199913 0.00165767 0)
(0.1999 0.00195234 0)
(0.199892 0.00223763 0)
(0.199884 0.00251049 0)
(0.199872 0.00277218 0)
(0.199874 0.00302164 0)
)
;

boundaryField
{
    top
    {
        type            zeroGradient;
    }
    inlet
    {
        type            fixedValue;
        value           uniform (0.2 0 0);
    }
    outlet
    {
        type            zeroGradient;
    }
    plate
    {
        type            fixedValue;
        value           uniform (0 0 0);
    }
    symmBound
    {
        type            zeroGradient;
    }
    frontAndBack
    {
        type            empty;
    }
}


// ************************************************************************* //
