/*--------------------------------*- C++ -*----------------------------------*\
| =========                 |                                                 |
| \\      /  F ield         | OpenFOAM: The Open Source CFD Toolbox           |
|  \\    /   O peration     | Version:  2.3.0                                 |
|   \\  /    A nd           | Web:      www.OpenFOAM.org                      |
|    \\/     M anipulation  |                                                 |
\*---------------------------------------------------------------------------*/
FoamFile
{
    version     2.0;
    format      ascii;
    class       surfaceScalarField;
    location    "0.05";
    object      phi;
}
// * * * * * * * * * * * * * * * * * * * * * * * * * * * * * * * * * * * * * //

dimensions      [0 3 -1 0 0 0 0];

internalField   nonuniform List<scalar> 
5644
(
2.95312e-08
2.46484e-09
-3.19961e-08
2.62208e-08
3.31039e-09
2.28067e-08
3.41409e-09
1.96129e-08
3.19386e-09
1.6759e-08
2.85389e-09
1.43118e-08
2.44714e-09
1.22971e-08
2.01475e-09
1.07165e-08
1.58055e-09
9.57167e-09
1.14487e-09
8.79443e-09
7.77244e-10
8.27466e-09
5.19765e-10
7.93727e-09
3.37396e-10
7.74161e-09
1.95654e-10
7.64943e-09
9.21833e-11
7.62391e-09
2.55237e-11
7.63492e-09
-1.10124e-11
7.66751e-09
-3.25891e-11
7.71113e-09
-4.36187e-11
7.75716e-09
-4.60328e-11
7.79948e-09
-4.23184e-11
7.83465e-09
-3.51703e-11
7.86148e-09
-2.68281e-11
7.88039e-09
-1.89147e-11
7.89282e-09
-1.24257e-11
7.90048e-09
-7.66715e-12
7.90489e-09
-4.40782e-12
7.90721e-09
-2.3216e-12
7.90822e-09
-1.00284e-12
7.90842e-09
-2.0059e-13
7.90816e-09
2.52128e-13
7.90762e-09
5.4782e-13
7.90689e-09
7.26872e-13
7.90605e-09
8.35737e-13
7.90515e-09
8.99703e-13
7.90422e-09
9.33394e-13
7.90328e-09
9.45604e-13
7.90233e-09
9.42092e-13
7.90141e-09
9.26939e-13
7.9005e-09
9.03154e-13
7.89963e-09
8.7308e-13
7.89879e-09
8.38607e-13
7.89799e-09
8.01208e-13
7.89723e-09
7.62031e-13
7.89651e-09
7.21954e-13
7.89582e-09
6.81707e-13
7.89518e-09
6.41815e-13
7.89458e-09
6.027e-13
7.89402e-09
5.6467e-13
7.89349e-09
5.2795e-13
7.89299e-09
4.92714e-13
7.89254e-09
4.5903e-13
7.89211e-09
4.26991e-13
7.89171e-09
3.96602e-13
7.89134e-09
3.67891e-13
7.891e-09
3.40821e-13
7.89069e-09
3.1536e-13
7.8904e-09
2.91469e-13
7.89013e-09
2.69094e-13
7.88988e-09
2.48191e-13
7.88965e-09
2.28682e-13
7.88944e-09
2.10505e-13
7.88925e-09
1.93577e-13
7.88907e-09
1.7785e-13
7.88891e-09
1.63248e-13
7.88876e-09
1.49722e-13
7.88862e-09
1.37203e-13
7.88849e-09
1.25619e-13
7.88838e-09
1.14927e-13
7.88827e-09
1.05046e-13
7.88818e-09
9.59403e-14
7.88809e-09
8.75568e-14
7.88801e-09
7.98265e-14
7.88794e-09
7.27463e-14
7.88787e-09
6.62248e-14
7.88781e-09
6.0263e-14
7.88776e-09
5.47996e-14
7.88771e-09
4.97863e-14
7.88766e-09
4.52189e-14
7.88762e-09
4.10229e-14
7.88758e-09
3.72125e-14
7.88755e-09
3.37329e-14
7.88752e-09
3.05755e-14
7.88749e-09
2.7711e-14
7.88746e-09
2.51007e-14
7.88744e-09
2.2781e-14
7.88742e-09
2.0583e-14
7.8874e-09
1.88108e-14
7.88739e-09
1.6868e-14
7.88737e-09
1.56822e-14
7.88736e-09
1.38609e-14
7.88734e-09
1.3255e-14
7.88733e-09
1.15261e-14
7.88732e-09
1.13711e-14
7.88731e-09
9.90723e-15
7.8873e-09
9.89922e-15
7.88729e-09
9.01479e-15
7.88728e-09
9.0038e-15
7.88727e-09
8.64848e-15
7.88726e-09
8.90666e-15
1.03402e-14
3.47393e-08
2.05672e-09
-3.43312e-08
3.47248e-08
3.32487e-09
3.41374e-08
4.0015e-09
3.31868e-08
4.14454e-09
3.20553e-08
3.98533e-09
3.0825e-08
3.67746e-09
2.95522e-08
3.28752e-09
2.82923e-08
2.84046e-09
2.70704e-08
2.36677e-09
2.59276e-08
1.9201e-09
2.49174e-08
1.52991e-09
2.40669e-08
1.18793e-09
2.3376e-08
8.86572e-10
2.28378e-08
6.30393e-10
2.24459e-08
4.17377e-10
2.21909e-08
2.43956e-10
2.20524e-08
1.05952e-10
2.19996e-08
9.21373e-12
2.20027e-08
-4.9204e-11
2.2035e-08
-7.46315e-11
2.20768e-08
-7.69449e-11
2.21157e-08
-6.57467e-11
2.2146e-08
-4.91552e-11
2.21664e-08
-3.28044e-11
2.21781e-08
-1.94196e-11
2.21832e-08
-9.52885e-12
2.21839e-08
-2.9506e-12
2.21816e-08
1.26638e-12
2.21776e-08
3.7446e-12
2.21728e-08
5.13414e-12
2.21674e-08
5.87199e-12
2.2162e-08
6.21084e-12
2.21565e-08
6.31229e-12
2.21511e-08
6.27098e-12
2.21459e-08
6.1418e-12
2.21409e-08
5.95716e-12
2.21361e-08
5.73713e-12
2.21315e-08
5.49488e-12
2.21272e-08
5.23954e-12
2.21231e-08
4.9777e-12
2.21192e-08
4.71422e-12
2.21156e-08
4.45274e-12
2.21121e-08
4.19598e-12
2.21089e-08
3.94587e-12
2.21059e-08
3.70387e-12
2.2103e-08
3.47098e-12
2.21004e-08
3.24786e-12
2.20979e-08
3.03494e-12
2.20956e-08
2.83239e-12
2.20935e-08
2.64028e-12
2.20915e-08
2.45847e-12
2.20896e-08
2.2868e-12
2.20879e-08
2.12503e-12
2.20863e-08
1.97284e-12
2.20848e-08
1.82991e-12
2.20834e-08
1.69585e-12
2.20821e-08
1.5703e-12
2.2081e-08
1.45285e-12
2.20799e-08
1.34312e-12
2.20788e-08
1.24071e-12
2.20779e-08
1.14523e-12
2.20771e-08
1.0563e-12
2.20763e-08
9.73535e-13
2.20755e-08
8.96599e-13
2.20748e-08
8.25145e-13
2.20742e-08
7.58846e-13
2.20737e-08
6.9737e-13
2.20731e-08
6.4043e-13
2.20726e-08
5.87711e-13
2.20722e-08
5.38953e-13
2.20718e-08
4.93892e-13
2.20714e-08
4.52263e-13
2.20711e-08
4.13875e-13
2.20708e-08
3.78474e-13
2.20705e-08
3.45878e-13
2.20702e-08
3.15884e-13
2.207e-08
2.88283e-13
2.20698e-08
2.62926e-13
2.20696e-08
2.39629e-13
2.20694e-08
2.18256e-13
2.20692e-08
1.98679e-13
2.20691e-08
1.8075e-13
2.20689e-08
1.64375e-13
2.20688e-08
1.49367e-13
2.20687e-08
1.35786e-13
2.20686e-08
1.23149e-13
2.20685e-08
1.12133e-13
2.20684e-08
1.01284e-13
2.20683e-08
9.2769e-14
2.20683e-08
8.30978e-14
2.20682e-08
7.71254e-14
2.20682e-08
6.80727e-14
2.20681e-08
6.46305e-14
2.20681e-08
5.60274e-14
2.2068e-08
5.45246e-14
2.2068e-08
4.71734e-14
2.20679e-08
4.64154e-14
2.20679e-08
4.1144e-14
2.20679e-08
4.09874e-14
3.98735e-14
3.62677e-08
1.91241e-09
-3.61234e-08
3.67221e-08
2.87048e-09
3.70503e-08
3.67328e-09
3.71556e-08
4.0392e-09
3.70898e-08
4.05116e-09
3.68897e-08
3.87754e-09
3.6588e-08
3.58919e-09
3.62215e-08
3.20695e-09
3.57827e-08
2.80558e-09
3.52641e-08
2.43875e-09
3.47052e-08
2.08884e-09
3.41601e-08
1.73303e-09
3.36602e-08
1.38648e-09
3.32174e-08
1.07315e-09
3.2837e-08
7.97786e-10
3.25246e-08
5.56372e-10
3.22809e-08
3.49656e-10
3.21052e-08
1.84898e-10
3.19903e-08
6.568e-11
3.19247e-08
-9.08088e-12
3.18941e-08
-4.63273e-11
3.18843e-08
-5.5941e-11
3.1884e-08
-4.88744e-11
3.18859e-08
-3.46666e-11
3.1886e-08
-1.95475e-11
3.18829e-08
-6.43636e-12
3.18766e-08
3.36537e-12
3.18679e-08
9.97798e-12
3.18576e-08
1.40587e-11
3.18464e-08
1.63172e-11
3.18349e-08
1.73703e-11
3.18235e-08
1.76564e-11
3.18123e-08
1.7475e-11
3.18016e-08
1.7018e-11
3.17913e-08
1.6403e-11
3.17816e-08
1.5701e-11
3.17723e-08
1.4955e-11
3.17636e-08
1.41914e-11
3.17555e-08
1.34274e-11
3.17478e-08
1.26738e-11
3.17405e-08
1.19381e-11
3.17338e-08
1.12252e-11
3.17274e-08
1.05383e-11
3.17215e-08
9.87968e-12
3.17159e-08
9.2504e-12
3.17108e-08
8.65109e-12
3.17059e-08
8.08185e-12
3.17014e-08
7.54245e-12
3.16972e-08
7.03233e-12
3.16933e-08
6.55079e-12
3.16897e-08
6.09693e-12
3.16863e-08
5.66977e-12
3.16831e-08
5.26831e-12
3.16802e-08
4.89142e-12
3.16775e-08
4.53807e-12
3.1675e-08
4.20708e-12
3.16727e-08
3.89739e-12
3.16705e-08
3.60789e-12
3.16685e-08
3.33753e-12
3.16667e-08
3.08527e-12
3.1665e-08
2.85009e-12
3.16634e-08
2.63101e-12
3.1662e-08
2.42709e-12
3.16606e-08
2.23744e-12
3.16594e-08
2.06121e-12
3.16582e-08
1.89758e-12
3.16572e-08
1.74575e-12
3.16562e-08
1.605e-12
3.16553e-08
1.47459e-12
3.16545e-08
1.35386e-12
3.16538e-08
1.24217e-12
3.16531e-08
1.13891e-12
3.16525e-08
1.04353e-12
3.16519e-08
9.55494e-13
3.16514e-08
8.74303e-13
3.16509e-08
7.99493e-13
3.16504e-08
7.30578e-13
3.165e-08
6.67162e-13
3.16497e-08
6.08836e-13
3.16493e-08
5.55233e-13
3.1649e-08
5.06045e-13
3.16487e-08
4.60904e-13
3.16485e-08
4.19599e-13
3.16482e-08
3.81651e-13
3.1648e-08
3.4722e-13
3.16478e-08
3.1519e-13
3.16477e-08
2.8699e-13
3.16475e-08
2.59494e-13
3.16474e-08
2.37321e-13
3.16472e-08
2.12832e-13
3.16471e-08
1.96792e-13
3.1647e-08
1.73926e-13
3.16469e-08
1.63873e-13
3.16468e-08
1.42271e-13
3.16467e-08
1.36707e-13
3.16467e-08
1.17931e-13
3.16466e-08
1.14376e-13
3.16465e-08
9.98019e-14
3.16465e-08
9.80466e-14
8.91755e-14
3.78625e-08
1.8839e-09
-3.7834e-08
3.81571e-08
2.57587e-09
3.8556e-08
3.2744e-09
3.88894e-08
3.70579e-09
3.91338e-08
3.80682e-09
3.92998e-08
3.71146e-09
3.93892e-08
3.4998e-09
3.94198e-08
3.17642e-09
3.93958e-08
2.82955e-09
3.92997e-08
2.53483e-09
3.91326e-08
2.256e-09
3.89231e-08
1.94247e-09
3.86996e-08
1.60997e-09
3.84758e-08
1.29698e-09
3.82578e-08
1.01578e-09
3.80515e-08
7.62657e-10
3.78622e-08
5.38944e-10
3.76955e-08
3.516e-10
3.75558e-08
2.05382e-10
3.74455e-08
1.01229e-10
3.73632e-08
3.59814e-11
3.73043e-08
2.93895e-12
3.72627e-08
-7.21187e-12
3.72322e-08
-4.20514e-12
3.72081e-08
4.58427e-12
3.71872e-08
1.44499e-11
3.71677e-08
2.28629e-11
3.71487e-08
2.89299e-11
3.71301e-08
3.27042e-11
3.71118e-08
3.45997e-11
3.70941e-08
3.51317e-11
3.7077e-08
3.47477e-11
3.70607e-08
3.37892e-11
3.70452e-08
3.24947e-11
3.70306e-08
3.102e-11
3.70168e-08
2.94631e-11
3.70039e-08
2.78838e-11
3.69917e-08
2.63186e-11
3.69804e-08
2.47895e-11
3.69697e-08
2.33093e-11
3.69598e-08
2.1886e-11
3.69505e-08
2.05237e-11
3.69418e-08
1.92245e-11
3.69337e-08
1.79891e-11
3.69261e-08
1.6817e-11
3.69191e-08
1.57073e-11
3.69125e-08
1.46584e-11
3.69064e-08
1.36685e-11
3.69007e-08
1.27356e-11
3.68954e-08
1.18574e-11
3.68904e-08
1.10317e-11
3.68858e-08
1.02561e-11
3.68816e-08
9.52839e-12
3.68776e-08
8.84614e-12
3.6874e-08
8.20714e-12
3.68706e-08
7.60913e-12
3.68674e-08
7.04996e-12
3.68645e-08
6.52755e-12
3.68618e-08
6.03983e-12
3.68593e-08
5.58487e-12
3.6857e-08
5.16077e-12
3.68548e-08
4.76574e-12
3.68529e-08
4.39804e-12
3.6851e-08
4.05605e-12
3.68494e-08
3.73819e-12
3.68478e-08
3.44298e-12
3.68464e-08
3.16898e-12
3.68451e-08
2.91489e-12
3.68439e-08
2.6794e-12
3.68428e-08
2.4613e-12
3.68418e-08
2.25945e-12
3.68408e-08
2.07275e-12
3.684e-08
1.90021e-12
3.68392e-08
1.74088e-12
3.68385e-08
1.59384e-12
3.68378e-08
1.45827e-12
3.68372e-08
1.33333e-12
3.68367e-08
1.21829e-12
3.68362e-08
1.11242e-12
3.68357e-08
1.01506e-12
3.68353e-08
9.25648e-13
3.68349e-08
8.43511e-13
3.68345e-08
7.68321e-13
3.68342e-08
6.99121e-13
3.68339e-08
6.36356e-13
3.68337e-08
5.77805e-13
3.68334e-08
5.26333e-13
3.68332e-08
4.75889e-13
3.6833e-08
4.35384e-13
3.68328e-08
3.90286e-13
3.68327e-08
3.60757e-13
3.68325e-08
3.18914e-13
3.68324e-08
2.99419e-13
3.68323e-08
2.60778e-13
3.68322e-08
2.48446e-13
3.68321e-08
2.14956e-13
3.6832e-08
2.06739e-13
3.68319e-08
1.79377e-13
3.68318e-08
1.75204e-13
1.54305e-13
3.94897e-08
1.86542e-09
-3.94712e-08
3.96768e-08
2.38877e-09
4.00077e-08
2.94349e-09
4.03456e-08
3.36784e-09
4.06367e-08
3.51582e-09
4.08841e-08
3.46399e-09
4.10739e-08
3.30999e-09
4.12018e-08
3.04857e-09
4.12876e-08
2.74377e-09
4.13337e-08
2.48872e-09
4.13306e-08
2.25908e-09
4.12841e-08
1.98898e-09
4.12095e-08
1.68456e-09
4.11158e-08
1.39071e-09
4.10063e-08
1.12525e-09
4.08853e-08
8.83655e-10
4.07581e-08
6.66125e-10
4.06303e-08
4.79391e-10
4.05078e-08
3.27911e-10
4.03963e-08
2.12684e-10
4.02999e-08
1.32389e-10
4.02199e-08
8.29989e-11
4.0155e-08
5.76441e-11
4.01026e-08
4.81645e-11
4.00597e-08
4.74873e-11
4.00236e-08
5.05957e-11
3.99921e-08
5.43934e-11
3.99637e-08
5.72873e-11
3.99376e-08
5.87627e-11
3.99134e-08
5.88573e-11
3.98907e-08
5.7852e-11
3.98693e-08
5.60728e-11
3.98493e-08
5.38048e-11
3.98305e-08
5.12648e-11
3.9813e-08
4.86036e-11
3.97965e-08
4.59195e-11
3.97811e-08
4.32736e-11
3.97667e-08
4.07023e-11
3.97533e-08
3.82263e-11
3.97408e-08
3.58568e-11
3.9729e-08
3.35986e-11
3.97181e-08
3.14533e-11
3.97079e-08
2.94198e-11
3.96984e-08
2.7496e-11
3.96895e-08
2.56786e-11
3.96813e-08
2.3964e-11
3.96736e-08
2.23484e-11
3.96664e-08
2.08275e-11
3.96598e-08
1.93971e-11
3.96536e-08
1.80531e-11
3.96478e-08
1.67913e-11
3.96425e-08
1.56076e-11
3.96375e-08
1.44981e-11
3.96329e-08
1.34588e-11
3.96286e-08
1.2486e-11
3.96246e-08
1.15763e-11
3.9621e-08
1.0726e-11
3.96176e-08
9.93183e-12
3.96144e-08
9.19064e-12
3.96115e-08
8.49937e-12
3.96088e-08
7.85508e-12
3.96063e-08
7.255e-12
3.9604e-08
6.69647e-12
3.96019e-08
6.17697e-12
3.95999e-08
5.69409e-12
3.95981e-08
5.24558e-12
3.95965e-08
4.82927e-12
3.95949e-08
4.44311e-12
3.95935e-08
4.08519e-12
3.95922e-08
3.75363e-12
3.95911e-08
3.44672e-12
3.959e-08
3.1628e-12
3.9589e-08
2.90033e-12
3.95881e-08
2.65789e-12
3.95872e-08
2.43409e-12
3.95864e-08
2.22768e-12
3.95857e-08
2.03741e-12
3.95851e-08
1.86215e-12
3.95845e-08
1.70083e-12
3.9584e-08
1.55243e-12
3.95835e-08
1.4161e-12
3.9583e-08
1.29078e-12
3.95826e-08
1.17605e-12
3.95823e-08
1.07035e-12
3.95819e-08
9.74539e-13
3.95816e-08
8.84947e-13
3.95813e-08
8.064e-13
3.95811e-08
7.28987e-13
3.95808e-08
6.67248e-13
3.95806e-08
5.97878e-13
3.95804e-08
5.52659e-13
3.95803e-08
4.88736e-13
3.95801e-08
4.57782e-13
3.958e-08
3.99845e-13
3.95798e-08
3.78827e-13
3.95797e-08
3.28637e-13
3.95796e-08
3.1467e-13
3.95795e-08
2.7208e-13
3.95794e-08
2.65142e-13
2.29641e-13
4.11323e-08
1.83522e-09
-4.11021e-08
4.12762e-08
2.24482e-09
4.15423e-08
2.67746e-09
4.18422e-08
3.06789e-09
4.21171e-08
3.24091e-09
4.23665e-08
3.21459e-09
4.25753e-08
3.10116e-09
4.27186e-08
2.90529e-09
4.2813e-08
2.64936e-09
4.2883e-08
2.41876e-09
4.29262e-08
2.21588e-09
4.29357e-08
1.97949e-09
4.2916e-08
1.70429e-09
4.2873e-08
1.43369e-09
4.28088e-08
1.18942e-09
4.27264e-08
9.66084e-10
4.26313e-08
7.61248e-10
4.25292e-08
5.81447e-10
4.24252e-08
4.31948e-10
4.2324e-08
3.13896e-10
4.22299e-08
2.26404e-10
4.21461e-08
1.66796e-10
4.20737e-08
1.30103e-10
4.2012e-08
1.09834e-10
4.19597e-08
9.98068e-11
4.1915e-08
9.53123e-11
4.18762e-08
9.3197e-11
4.18419e-08
9.15848e-11
4.1811e-08
8.95998e-11
4.17829e-08
8.69667e-11
4.17571e-08
8.37239e-11
4.17331e-08
8.00327e-11
4.17108e-08
7.60741e-11
4.16901e-08
7.20032e-11
4.16708e-08
6.79351e-11
4.16527e-08
6.39476e-11
4.16359e-08
6.00891e-11
4.16202e-08
5.63873e-11
4.16056e-08
5.28564e-11
4.1592e-08
4.95016e-11
4.15792e-08
4.63229e-11
4.15674e-08
4.33171e-11
4.15563e-08
4.0479e-11
4.1546e-08
3.78025e-11
4.15364e-08
3.52809e-11
4.15275e-08
3.29073e-11
4.15191e-08
3.06749e-11
4.15114e-08
2.85768e-11
4.15042e-08
2.66062e-11
4.14975e-08
2.47567e-11
4.14912e-08
2.3022e-11
4.14854e-08
2.13959e-11
4.14801e-08
1.98728e-11
4.14751e-08
1.84469e-11
4.14705e-08
1.7113e-11
4.14662e-08
1.58658e-11
4.14622e-08
1.47005e-11
4.14585e-08
1.36125e-11
4.14551e-08
1.25972e-11
4.1452e-08
1.16504e-11
4.1449e-08
1.0768e-11
4.14464e-08
9.94624e-12
4.14439e-08
9.1814e-12
4.14416e-08
8.47002e-12
4.14395e-08
7.80878e-12
4.14375e-08
7.19457e-12
4.14357e-08
6.62443e-12
4.14341e-08
6.09554e-12
4.14325e-08
5.60528e-12
4.14311e-08
5.15109e-12
4.14299e-08
4.73061e-12
4.14287e-08
4.3416e-12
4.14276e-08
3.98193e-12
4.14266e-08
3.64965e-12
4.14257e-08
3.34288e-12
4.14249e-08
3.05989e-12
4.14241e-08
2.79899e-12
4.14234e-08
2.55864e-12
4.14228e-08
2.33737e-12
4.14222e-08
2.13378e-12
4.14217e-08
1.94671e-12
4.14212e-08
1.7747e-12
4.14207e-08
1.61723e-12
4.14203e-08
1.47204e-12
4.142e-08
1.3405e-12
4.14196e-08
1.21732e-12
4.14193e-08
1.10951e-12
4.14191e-08
1.0029e-12
4.14188e-08
9.18195e-13
4.14186e-08
8.226e-13
4.14184e-08
7.60292e-13
4.14182e-08
6.72692e-13
4.1418e-08
6.29009e-13
4.14179e-08
5.5056e-13
4.14177e-08
5.19804e-13
4.14176e-08
4.51688e-13
4.14175e-08
4.3148e-13
4.14174e-08
3.72141e-13
4.14173e-08
3.62367e-13
3.10847e-13
4.28053e-08
1.79347e-09
-4.27636e-08
4.29262e-08
2.12392e-09
4.31394e-08
2.46425e-09
4.34025e-08
2.80478e-09
4.36555e-08
2.98795e-09
4.38867e-08
2.98333e-09
4.40881e-08
2.89984e-09
4.42312e-08
2.76216e-09
4.43224e-08
2.55813e-09
4.43937e-08
2.34745e-09
4.44494e-08
2.16022e-09
4.4475e-08
1.95392e-09
4.44689e-08
1.71033e-09
4.44396e-08
1.46304e-09
4.43912e-08
1.23783e-09
4.43252e-08
1.032e-09
4.42459e-08
8.40635e-10
4.41583e-08
6.69032e-10
4.40667e-08
5.23526e-10
4.39748e-08
4.05812e-10
4.38863e-08
3.14897e-10
4.38044e-08
2.48642e-10
4.37311e-08
2.03408e-10
4.36668e-08
1.74146e-10
4.36109e-08
1.55674e-10
4.35625e-08
1.43802e-10
4.35201e-08
1.35564e-10
4.34826e-08
1.29029e-10
4.34491e-08
1.23117e-10
4.34188e-08
1.17322e-10
4.3391e-08
1.11477e-10
4.33655e-08
1.05585e-10
4.33418e-08
9.97121e-11
4.33199e-08
9.39383e-11
4.32995e-08
8.83293e-11
4.32805e-08
8.29313e-11
4.32628e-08
7.77721e-11
4.32464e-08
7.28655e-11
4.3231e-08
6.82151e-11
4.32167e-08
6.38181e-11
4.32033e-08
5.96677e-11
4.31909e-08
5.57552e-11
4.31793e-08
5.20703e-11
4.31685e-08
4.86024e-11
4.31584e-08
4.53409e-11
4.31491e-08
4.22754e-11
4.31404e-08
3.93958e-11
4.31322e-08
3.66921e-11
4.31247e-08
3.41551e-11
4.31177e-08
3.17757e-11
4.31112e-08
2.95454e-11
4.31051e-08
2.74559e-11
4.30995e-08
2.54995e-11
4.30942e-08
2.36687e-11
4.30894e-08
2.19564e-11
4.30849e-08
2.03559e-11
4.30808e-08
1.88609e-11
4.30769e-08
1.74651e-11
4.30733e-08
1.61628e-11
4.307e-08
1.49485e-11
4.3067e-08
1.38169e-11
4.30642e-08
1.27631e-11
4.30616e-08
1.17824e-11
4.30592e-08
1.08701e-11
4.3057e-08
1.00222e-11
4.30549e-08
9.23457e-12
4.3053e-08
8.50343e-12
4.30513e-08
7.82515e-12
4.30497e-08
7.19638e-12
4.30483e-08
6.61384e-12
4.30469e-08
6.0745e-12
4.30457e-08
5.5755e-12
4.30445e-08
5.11409e-12
4.30435e-08
4.68779e-12
4.30426e-08
4.29419e-12
4.30417e-08
3.93104e-12
4.30409e-08
3.59622e-12
4.30402e-08
3.28774e-12
4.30395e-08
3.00371e-12
4.30389e-08
2.74236e-12
4.30383e-08
2.50219e-12
4.30378e-08
2.28131e-12
4.30374e-08
2.07909e-12
4.30369e-08
1.89257e-12
4.30366e-08
1.72363e-12
4.30362e-08
1.56531e-12
4.30359e-08
1.42683e-12
4.30356e-08
1.28971e-12
4.30353e-08
1.18087e-12
4.30351e-08
1.05796e-12
4.30349e-08
9.77573e-13
4.30347e-08
8.6541e-13
4.30345e-08
8.08172e-13
4.30344e-08
7.08416e-13
4.30342e-08
6.67382e-13
4.30341e-08
5.80447e-13
4.3034e-08
5.53807e-13
4.30339e-08
4.76708e-13
4.30338e-08
4.64103e-13
3.95664e-13
4.45127e-08
1.74629e-09
-4.44656e-08
4.46183e-08
2.01836e-09
4.47951e-08
2.28747e-09
4.50273e-08
2.57261e-09
4.5257e-08
2.75818e-09
4.54629e-08
2.7775e-09
4.56476e-08
2.71508e-09
4.57908e-08
2.61898e-09
4.58848e-08
2.46416e-09
4.59542e-08
2.27799e-09
4.60101e-08
2.10438e-09
4.60395e-08
1.92453e-09
4.60378e-08
1.71203e-09
4.60139e-08
1.48691e-09
4.59739e-08
1.27786e-09
4.59178e-08
1.088e-09
4.58478e-08
9.10698e-10
4.57686e-08
7.4823e-10
4.56848e-08
6.07325e-10
4.55997e-08
4.90873e-10
4.55165e-08
3.98104e-10
4.54381e-08
3.27107e-10
4.53663e-08
2.75133e-10
4.53022e-08
2.38318e-10
4.52454e-08
2.12409e-10
4.51955e-08
1.93753e-10
4.51514e-08
1.79638e-10
4.51122e-08
1.68192e-10
4.50771e-08
1.58238e-10
4.50453e-08
1.49114e-10
4.50163e-08
1.40495e-10
4.49896e-08
1.32245e-10
4.4965e-08
1.24326e-10
4.49422e-08
1.16741e-10
4.49211e-08
1.09503e-10
4.49014e-08
1.02622e-10
4.4883e-08
9.61012e-11
4.4866e-08
8.99375e-11
4.48501e-08
8.41218e-11
4.48352e-08
7.86418e-11
4.48214e-08
7.3483e-11
4.48085e-08
6.86301e-11
4.47965e-08
6.40674e-11
4.47854e-08
5.97796e-11
4.4775e-08
5.57518e-11
4.47653e-08
5.19698e-11
4.47562e-08
4.84201e-11
4.47478e-08
4.50896e-11
4.474e-08
4.19662e-11
4.47328e-08
3.90384e-11
4.4726e-08
3.62951e-11
4.47197e-08
3.3726e-11
4.47139e-08
3.13212e-11
4.47085e-08
2.90713e-11
4.47035e-08
2.69676e-11
4.46989e-08
2.50015e-11
4.46946e-08
2.31652e-11
4.46906e-08
2.14511e-11
4.46869e-08
1.98519e-11
4.46835e-08
1.83608e-11
4.46803e-08
1.69713e-11
4.46774e-08
1.56775e-11
4.46747e-08
1.44733e-11
4.46722e-08
1.33532e-11
4.46699e-08
1.23122e-11
4.46678e-08
1.13451e-11
4.46659e-08
1.04474e-11
4.46641e-08
9.61457e-12
4.46625e-08
8.8425e-12
4.46609e-08
8.12718e-12
4.46595e-08
7.46487e-12
4.46583e-08
6.85207e-12
4.46571e-08
6.28542e-12
4.4656e-08
5.76185e-12
4.4655e-08
5.2784e-12
4.46541e-08
4.83233e-12
4.46533e-08
4.42103e-12
4.46526e-08
4.04206e-12
4.46519e-08
3.69312e-12
4.46512e-08
3.372e-12
4.46507e-08
3.0769e-12
4.46501e-08
2.80545e-12
4.46497e-08
2.55693e-12
4.46492e-08
2.32768e-12
4.46488e-08
2.12001e-12
4.46485e-08
1.92536e-12
4.46481e-08
1.75511e-12
4.46478e-08
1.5865e-12
4.46476e-08
1.45258e-12
4.46473e-08
1.30156e-12
4.46471e-08
1.20228e-12
4.46469e-08
1.06489e-12
4.46467e-08
9.9348e-13
4.46466e-08
8.71736e-13
4.46464e-08
8.20092e-13
4.46463e-08
7.13569e-13
4.46461e-08
6.80395e-13
4.4646e-08
5.84748e-13
4.46459e-08
5.69302e-13
4.83243e-13
4.62616e-08
1.695e-09
-4.62103e-08
4.63587e-08
1.92131e-09
4.65092e-08
2.13695e-09
4.67093e-08
2.37247e-09
4.69157e-08
2.55182e-09
4.7101e-08
2.59218e-09
4.72702e-08
2.54592e-09
4.74105e-08
2.47868e-09
4.75054e-08
2.36925e-09
4.75707e-08
2.21273e-09
4.76241e-08
2.05095e-09
4.7658e-08
1.89067e-09
4.76623e-08
1.7077e-09
4.76425e-08
1.50674e-09
4.76066e-08
1.31368e-09
4.75566e-08
1.13802e-09
4.74934e-08
9.73952e-10
4.74209e-08
8.20727e-10
4.73436e-08
6.84579e-10
4.72647e-08
5.69763e-10
4.71867e-08
4.76103e-10
4.71121e-08
4.01749e-10
4.70427e-08
3.44475e-10
4.69797e-08
3.01355e-10
4.69232e-08
2.68971e-10
4.68727e-08
2.44193e-10
4.68278e-08
2.24593e-10
4.67875e-08
2.08412e-10
4.67513e-08
1.94456e-10
4.67185e-08
1.81964e-10
4.66885e-08
1.70494e-10
4.66609e-08
1.598e-10
4.66355e-08
1.49751e-10
4.66119e-08
1.4028e-10
4.65901e-08
1.31347e-10
4.65698e-08
1.22927e-10
4.65509e-08
1.14996e-10
4.65333e-08
1.07532e-10
4.65169e-08
1.00513e-10
4.65016e-08
9.39158e-11
4.64874e-08
8.77171e-11
4.64741e-08
8.18949e-11
4.64618e-08
7.64277e-11
4.64503e-08
7.1295e-11
4.64395e-08
6.64777e-11
4.64296e-08
6.19575e-11
4.64203e-08
5.77174e-11
4.64116e-08
5.37411e-11
4.64036e-08
5.00137e-11
4.63961e-08
4.65208e-11
4.63891e-08
4.32491e-11
4.63827e-08
4.01858e-11
4.63767e-08
3.7319e-11
4.63711e-08
3.46375e-11
4.63659e-08
3.21304e-11
4.63611e-08
2.97877e-11
4.63567e-08
2.75998e-11
4.63526e-08
2.55576e-11
4.63488e-08
2.36525e-11
4.63453e-08
2.18763e-11
4.6342e-08
2.02212e-11
4.6339e-08
1.868e-11
4.63363e-08
1.72456e-11
4.63337e-08
1.59115e-11
4.63313e-08
1.46714e-11
4.63292e-08
1.35195e-11
4.63272e-08
1.24502e-11
4.63253e-08
1.14581e-11
4.63236e-08
1.05384e-11
4.63221e-08
9.6863e-12
4.63206e-08
8.8973e-12
4.63193e-08
8.16725e-12
4.63181e-08
7.49217e-12
4.6317e-08
6.86838e-12
4.6316e-08
6.29239e-12
4.63151e-08
5.76089e-12
4.63142e-08
5.2708e-12
4.63134e-08
4.81921e-12
4.63127e-08
4.40338e-12
4.63121e-08
4.02069e-12
4.63115e-08
3.66899e-12
4.6311e-08
3.34546e-12
4.63105e-08
3.04923e-12
4.631e-08
2.77596e-12
4.63096e-08
2.52838e-12
4.63092e-08
2.29633e-12
4.63089e-08
2.0933e-12
4.63086e-08
1.89232e-12
4.63083e-08
1.73246e-12
4.63081e-08
1.5526e-12
4.63078e-08
1.43371e-12
4.63076e-08
1.27045e-12
4.63074e-08
1.18437e-12
4.63073e-08
1.03996e-12
4.63071e-08
9.77454e-13
4.6307e-08
8.50626e-13
4.63068e-08
8.10812e-13
4.63067e-08
6.95938e-13
4.63066e-08
6.77603e-13
5.73306e-13
4.80585e-08
1.63946e-09
-4.80029e-08
4.81487e-08
1.83104e-09
4.82776e-08
2.00811e-09
4.84495e-08
2.20057e-09
4.86368e-08
2.36449e-09
4.88063e-08
2.42264e-09
4.89574e-08
2.39486e-09
4.90885e-08
2.34759e-09
4.91846e-08
2.27314e-09
4.92504e-08
2.14697e-09
4.93023e-08
1.99896e-09
4.93382e-08
1.85487e-09
4.93464e-08
1.69946e-09
4.93293e-08
1.52387e-09
4.92964e-08
1.34654e-09
4.92518e-08
1.18258e-09
4.91957e-08
1.03014e-09
4.91301e-08
8.86327e-10
4.9059e-08
7.55611e-10
4.89858e-08
6.43002e-10
4.89127e-08
5.49207e-10
4.88419e-08
4.72559e-10
4.87752e-08
4.11152e-10
4.87138e-08
3.62793e-10
4.86579e-08
3.24812e-10
4.86075e-08
2.94578e-10
4.85622e-08
2.69944e-10
4.85213e-08
2.49294e-10
4.84843e-08
2.31461e-10
4.84506e-08
2.15639e-10
4.84198e-08
2.01302e-10
4.83915e-08
1.88121e-10
4.83653e-08
1.7589e-10
4.83411e-08
1.64478e-10
4.83187e-08
1.53801e-10
4.82978e-08
1.43795e-10
4.82784e-08
1.34413e-10
4.82603e-08
1.25612e-10
4.82435e-08
1.17356e-10
4.82278e-08
1.09611e-10
4.82132e-08
1.02344e-10
4.81995e-08
9.55257e-11
4.81868e-08
8.91294e-11
4.8175e-08
8.3129e-11
4.8164e-08
7.75007e-11
4.81537e-08
7.22222e-11
4.81442e-08
6.72727e-11
4.81353e-08
6.2633e-11
4.8127e-08
5.82849e-11
4.81193e-08
5.42114e-11
4.81122e-08
5.03966e-11
4.81055e-08
4.68255e-11
4.80994e-08
4.34839e-11
4.80936e-08
4.03587e-11
4.80883e-08
3.74371e-11
4.80834e-08
3.47073e-11
4.80788e-08
3.21581e-11
4.80746e-08
2.97787e-11
4.80707e-08
2.75591e-11
4.80671e-08
2.54898e-11
4.80638e-08
2.35616e-11
4.80607e-08
2.17661e-11
4.80578e-08
2.00952e-11
4.80552e-08
1.8541e-11
4.80528e-08
1.70964e-11
4.80505e-08
1.57545e-11
4.80485e-08
1.45088e-11
4.80466e-08
1.33531e-11
4.80448e-08
1.22816e-11
4.80432e-08
1.12889e-11
4.80418e-08
1.03696e-11
4.80404e-08
9.51909e-12
4.80392e-08
8.73256e-12
4.8038e-08
8.00576e-12
4.8037e-08
7.33463e-12
4.8036e-08
6.71533e-12
4.80352e-08
6.14425e-12
4.80344e-08
5.61801e-12
4.80336e-08
5.13343e-12
4.8033e-08
4.68745e-12
4.80324e-08
4.27757e-12
4.80318e-08
3.90052e-12
4.80313e-08
3.55525e-12
4.80308e-08
3.23674e-12
4.80304e-08
2.94813e-12
4.803e-08
2.67766e-12
4.80297e-08
2.44089e-12
4.80294e-08
2.20669e-12
4.80291e-08
2.02009e-12
4.80288e-08
1.81069e-12
4.80286e-08
1.67154e-12
4.80284e-08
1.48176e-12
4.80282e-08
1.38056e-12
4.8028e-08
1.21282e-12
4.80279e-08
1.13923e-12
4.80277e-08
9.91416e-13
4.80276e-08
9.44837e-13
4.80275e-08
8.10133e-13
4.80274e-08
7.88828e-13
6.65724e-13
4.99055e-08
1.58082e-09
-4.98468e-08
4.99902e-08
1.74631e-09
5.0104e-08
1.89429e-09
5.02534e-08
2.05122e-09
5.04212e-08
2.19671e-09
5.05749e-08
2.26892e-09
5.07094e-08
2.2603e-09
5.08315e-08
2.2255e-09
5.09296e-08
2.17504e-09
5.09969e-08
2.0797e-09
5.10447e-08
1.95117e-09
5.10781e-08
1.82149e-09
5.10894e-08
1.6881e-09
5.10772e-08
1.53615e-09
5.10488e-08
1.37493e-09
5.10095e-08
1.22187e-09
5.09597e-08
1.07997e-09
5.09004e-08
9.45611e-10
5.0835e-08
8.20936e-10
5.0767e-08
7.11e-10
5.06987e-08
6.17571e-10
5.06318e-08
5.39432e-10
5.05681e-08
4.74892e-10
5.05086e-08
4.2227e-10
5.04539e-08
3.79531e-10
5.04039e-08
3.44507e-10
5.03586e-08
3.15325e-10
5.03173e-08
2.90524e-10
5.02798e-08
2.68998e-10
5.02455e-08
2.49934e-10
5.0214e-08
2.3276e-10
5.01851e-08
2.17085e-10
5.01583e-08
2.02646e-10
5.01335e-08
1.89261e-10
5.01105e-08
1.76803e-10
5.00892e-08
1.65177e-10
5.00693e-08
1.5431e-10
5.00507e-08
1.44141e-10
5.00335e-08
1.34619e-10
5.00174e-08
1.25698e-10
5.00024e-08
1.17337e-10
4.99884e-08
1.095e-10
4.99754e-08
1.02152e-10
4.99633e-08
9.52628e-11
4.9952e-08
8.88036e-11
4.99414e-08
8.27481e-11
4.99316e-08
7.70718e-11
4.99225e-08
7.1752e-11
4.9914e-08
6.67677e-11
4.99061e-08
6.20989e-11
4.98988e-08
5.77273e-11
4.9892e-08
5.36355e-11
4.98857e-08
4.98072e-11
4.98798e-08
4.62269e-11
4.98744e-08
4.28802e-11
4.98693e-08
3.97534e-11
4.98646e-08
3.68335e-11
4.98603e-08
3.41083e-11
4.98563e-08
3.15662e-11
4.98526e-08
2.91963e-11
4.98492e-08
2.6988e-11
4.9846e-08
2.49318e-11
4.98431e-08
2.30181e-11
4.98404e-08
2.12382e-11
4.98379e-08
1.95838e-11
4.98356e-08
1.8047e-11
4.98335e-08
1.66203e-11
4.98315e-08
1.52968e-11
4.98298e-08
1.40696e-11
4.98281e-08
1.29327e-11
4.98266e-08
1.18799e-11
4.98252e-08
1.09057e-11
4.98239e-08
1.00049e-11
4.98228e-08
9.17239e-12
4.98217e-08
8.40368e-12
4.98207e-08
7.69432e-12
4.98198e-08
7.04017e-12
4.9819e-08
6.43736e-12
4.98183e-08
5.88227e-12
4.98176e-08
5.37137e-12
4.9817e-08
4.90182e-12
4.98164e-08
4.46986e-12
4.98159e-08
4.07428e-12
4.98154e-08
3.70938e-12
4.9815e-08
3.37867e-12
4.98146e-08
3.0688e-12
4.98142e-08
2.79741e-12
4.98139e-08
2.52916e-12
4.98136e-08
2.31508e-12
4.98133e-08
2.07544e-12
4.98131e-08
1.91545e-12
4.98129e-08
1.69851e-12
4.98127e-08
1.5818e-12
4.98125e-08
1.39007e-12
4.98123e-08
1.30519e-12
4.98122e-08
1.13575e-12
4.98121e-08
1.08226e-12
4.98119e-08
9.27184e-13
4.98118e-08
9.02809e-13
7.60373e-13
5.18072e-08
1.51943e-09
-5.17458e-08
5.18885e-08
1.66495e-09
5.19914e-08
1.79137e-09
5.21206e-08
1.92205e-09
5.22682e-08
2.04913e-09
5.24091e-08
2.12805e-09
5.25326e-08
2.13678e-09
5.26449e-08
2.11314e-09
5.27399e-08
2.08011e-09
5.28066e-08
2.01297e-09
5.28511e-08
1.90663e-09
5.28825e-08
1.79006e-09
5.28974e-08
1.67327e-09
5.28907e-08
1.54277e-09
5.28668e-08
1.3989e-09
5.28316e-08
1.25705e-09
5.2787e-08
1.12453e-09
5.27337e-08
9.98945e-10
5.26741e-08
8.80568e-10
5.26113e-08
7.73793e-10
5.25476e-08
6.81232e-10
5.24847e-08
6.02303e-10
5.24241e-08
5.35518e-10
5.23669e-08
4.79533e-10
5.23136e-08
4.32822e-10
5.22644e-08
3.93651e-10
5.22193e-08
3.60415e-10
5.2178e-08
3.31812e-10
5.21402e-08
3.06819e-10
5.21055e-08
2.84645e-10
5.20736e-08
2.64702e-10
5.20441e-08
2.4656e-10
5.20168e-08
2.29914e-10
5.19915e-08
2.14542e-10
5.19681e-08
2.00283e-10
5.19462e-08
1.87013e-10
5.19259e-08
1.74636e-10
5.1907e-08
1.63074e-10
5.18893e-08
1.52262e-10
5.18729e-08
1.42143e-10
5.18575e-08
1.32667e-10
5.18433e-08
1.23789e-10
5.18299e-08
1.1547e-10
5.18175e-08
1.07674e-10
5.1806e-08
1.00366e-10
5.17952e-08
9.35162e-11
5.17852e-08
8.70971e-11
5.17758e-08
8.10821e-11
5.17672e-08
7.54472e-11
5.17591e-08
7.01698e-11
5.17516e-08
6.52288e-11
5.17446e-08
6.06044e-11
5.17382e-08
5.6278e-11
5.17321e-08
5.22322e-11
5.17266e-08
4.84505e-11
5.17214e-08
4.49175e-11
5.17166e-08
4.16183e-11
5.17122e-08
3.85393e-11
5.17081e-08
3.56671e-11
5.17043e-08
3.29895e-11
5.17008e-08
3.04947e-11
5.16976e-08
2.81715e-11
5.16946e-08
2.60095e-11
5.16918e-08
2.39986e-11
5.16893e-08
2.21295e-11
5.16869e-08
2.03932e-11
5.16848e-08
1.87814e-11
5.16828e-08
1.7286e-11
5.16809e-08
1.58995e-11
5.16793e-08
1.46149e-11
5.16777e-08
1.34254e-11
5.16763e-08
1.23248e-11
5.1675e-08
1.13069e-11
5.16738e-08
1.03663e-11
5.16727e-08
9.49776e-12
5.16717e-08
8.69623e-12
5.16708e-08
7.95706e-12
5.16699e-08
7.27589e-12
5.16692e-08
6.64863e-12
5.16685e-08
6.0713e-12
5.16678e-08
5.54067e-12
5.16673e-08
5.05253e-12
5.16667e-08
4.60545e-12
5.16662e-08
4.19309e-12
5.16658e-08
3.81928e-12
5.16654e-08
3.4691e-12
5.1665e-08
3.16226e-12
5.16647e-08
2.85921e-12
5.16644e-08
2.61695e-12
5.16641e-08
2.34641e-12
5.16639e-08
2.16504e-12
5.16637e-08
1.92033e-12
5.16634e-08
1.78776e-12
5.16633e-08
1.57142e-12
5.16631e-08
1.47503e-12
5.1663e-08
1.2834e-12
5.16628e-08
1.22285e-12
5.16627e-08
1.0469e-12
5.16626e-08
1.01935e-12
8.571e-13
5.37682e-08
1.45615e-09
-5.37049e-08
5.38463e-08
1.58677e-09
5.394e-08
1.69771e-09
5.4053e-08
1.8091e-09
5.41832e-08
1.91885e-09
5.43127e-08
1.99859e-09
5.44263e-08
2.02316e-09
5.45272e-08
2.01226e-09
5.46158e-08
1.99149e-09
5.46827e-08
1.94613e-09
5.47271e-08
1.86221e-09
5.4757e-08
1.7601e-09
5.47732e-08
1.65713e-09
5.47708e-08
1.54515e-09
5.47512e-08
1.41852e-09
5.472e-08
1.28819e-09
5.46804e-08
1.16416e-09
5.46328e-08
1.04653e-09
5.45788e-08
9.34567e-10
5.45211e-08
8.31498e-10
5.4462e-08
7.40328e-10
5.44031e-08
6.61199e-10
5.43457e-08
5.92917e-10
5.42909e-08