/*--------------------------------*- C++ -*----------------------------------*\
| =========                 |                                                 |
| \\      /  F ield         | OpenFOAM: The Open Source CFD Toolbox           |
|  \\    /   O peration     | Version:  2.3.0                                 |
|   \\  /    A nd           | Web:      www.OpenFOAM.org                      |
|    \\/     M anipulation  |                                                 |
\*---------------------------------------------------------------------------*/
FoamFile
{
    version     2.0;
    format      ascii;
    class       volVectorField;
    location    "0.05";
    object      U_0;
}
// * * * * * * * * * * * * * * * * * * * * * * * * * * * * * * * * * * * * * //

dimensions      [0 1 -1 0 0 0 0];

internalField   nonuniform List<vector> 
2889
(
(0.17902 0.00349289 0)
(0.159338 0.0057566 0)
(0.140248 0.00622063 0)
(0.121893 0.0054834 0)
(0.104773 0.00460828 0)
(0.0892256 0.00374159 0)
(0.0761905 0.00280154 0)
(0.0659118 0.00181989 0)
(0.058287 0.000905521 0)
(0.0529524 0.000255057 0)
(0.0493418 -0.000103247 0)
(0.0469568 -0.00027766 0)
(0.045502 -0.000336174 0)
(0.0447618 -0.000299246 0)
(0.0445151 -0.000212552 0)
(0.0445574 -0.000143767 0)
(0.0447497 -9.33118e-05 0)
(0.0450157 -5.94843e-05 0)
(0.0452995 -4.01472e-05 0)
(0.045562 -2.84948e-05 0)
(0.0457812 -2.05888e-05 0)
(0.0459496 -1.46483e-05 0)
(0.0460694 -1.02039e-05 0)
(0.0461489 -7.16926e-06 0)
(0.0461985 -5.21406e-06 0)
(0.0462273 -3.77349e-06 0)
(0.0462428 -2.78038e-06 0)
(0.04625 -2.07086e-06 0)
(0.046252 -1.52786e-06 0)
(0.046251 -1.06234e-06 0)
(0.0462481 -7.79376e-07 0)
(0.0462441 -5.81109e-07 0)
(0.0462394 -4.32864e-07 0)
(0.0462343 -3.19069e-07 0)
(0.0462289 -2.30702e-07 0)
(0.0462234 -1.62e-07 0)
(0.0462179 -1.08795e-07 0)
(0.0462125 -6.78656e-08 0)
(0.0462072 -3.67536e-08 0)
(0.046202 -1.34838e-08 0)
(0.0461971 3.58295e-09 0)
(0.0461924 1.57821e-08 0)
(0.0461879 2.41646e-08 0)
(0.0461836 2.95687e-08 0)
(0.0461796 3.26907e-08 0)
(0.0461758 3.40717e-08 0)
(0.0461722 3.41501e-08 0)
(0.0461688 3.32892e-08 0)
(0.0461657 3.17536e-08 0)
(0.0461628 2.97771e-08 0)
(0.04616 2.74811e-08 0)
(0.0461575 2.50412e-08 0)
(0.0461551 2.25315e-08 0)
(0.046153 2.00491e-08 0)
(0.0461509 1.7636e-08 0)
(0.046149 1.53018e-08 0)
(0.0461473 1.3118e-08 0)
(0.0461457 1.10555e-08 0)
(0.0461442 9.17896e-09 0)
(0.0461428 7.45454e-09 0)
(0.0461416 5.88748e-09 0)
(0.0461404 4.49383e-09 0)
(0.0461394 3.23028e-09 0)
(0.0461384 2.13895e-09 0)
(0.0461375 1.169e-09 0)
(0.0461367 3.27306e-10 0)
(0.0461359 -3.91905e-10 0)
(0.0461352 -1.01637e-09 0)
(0.0461346 -1.53003e-09 0)
(0.046134 -1.95165e-09 0)
(0.0461335 -2.30442e-09 0)
(0.046133 -2.56283e-09 0)
(0.0461326 -2.77912e-09 0)
(0.0461322 -2.91999e-09 0)
(0.0461318 -3.01067e-09 0)
(0.0461315 -3.06762e-09 0)
(0.0461312 -3.06654e-09 0)
(0.0461309 -3.05242e-09 0)
(0.0461307 -2.99495e-09 0)
(0.0461304 -2.90861e-09 0)
(0.0461302 -2.80844e-09 0)
(0.04613 -2.66875e-09 0)
(0.0461299 -2.52935e-09 0)
(0.0461297 -2.37274e-09 0)
(0.0461296 -2.18342e-09 0)
(0.0461295 -2.0428e-09 0)
(0.0461294 -1.76582e-09 0)
(0.0461293 -1.68687e-09 0)
(0.0461292 -1.26473e-09 0)
(0.0461291 -1.30267e-09 0)
(0.046129 -7.03773e-10 0)
(0.0461289 -8.32095e-10 0)
(0.0461289 -1.59392e-10 0)
(0.0461288 -1.34264e-10 0)
(0.0461287 3.19637e-10 0)
(0.0461287 8.09198e-10 0)
(0.0461286 1.05947e-09 0)
(0.0461286 1.71642e-09 0)
(0.0461286 2.52384e-09 0)
(0.0461285 4.20009e-09 0)
(0.194503 0.00685229 0)
(0.193351 0.0103588 0)
(0.190928 0.0119236 0)
(0.187243 0.0118779 0)
(0.182024 0.0109298 0)
(0.175272 0.00976394 0)
(0.168208 0.0086157 0)
(0.161378 0.00731539 0)
(0.15456 0.00578497 0)
(0.147882 0.00428945 0)
(0.14187 0.00307289 0)
(0.136757 0.0021185 0)
(0.132511 0.0013309 0)
(0.129131 0.000708994 0)
(0.126638 0.000274856 0)
(0.124991 -1.39391e-05 0)
(0.124067 -0.000177616 0)
(0.123685 -0.000248737 0)
(0.123662 -0.000251297 0)
(0.123834 -0.000215601 0)
(0.124075 -0.000165501 0)
(0.124307 -0.000115887 0)
(0.124491 -7.49254e-05 0)
(0.124616 -4.50004e-05 0)
(0.12469 -2.50264e-05 0)
(0.124724 -1.25036e-05 0)
(0.12473 -5.0009e-06 0)
(0.124719 -8.38065e-07 0)
(0.124697 1.69127e-06 0)
(0.12467 3.26659e-06 0)
(0.12464 4.14628e-06 0)
(0.124609 4.63028e-06 0)
(0.124577 4.88001e-06 0)
(0.124547 4.97945e-06 0)
(0.124517 4.97628e-06 0)
(0.124489 4.90024e-06 0)
(0.124461 4.77176e-06 0)
(0.124435 4.60602e-06 0)
(0.12441 4.41451e-06 0)
(0.124387 4.20618e-06 0)
(0.124365 3.98802e-06 0)
(0.124344 3.76547e-06 0)
(0.124324 3.5427e-06 0)
(0.124306 3.3228e-06 0)
(0.124288 3.10813e-06 0)
(0.124272 2.90034e-06 0)
(0.124257 2.70066e-06 0)
(0.124243 2.50995e-06 0)
(0.124229 2.32864e-06 0)
(0.124217 2.15707e-06 0)
(0.124206 1.99516e-06 0)
(0.124195 1.84292e-06 0)
(0.124185 1.70014e-06 0)
(0.124176 1.56657e-06 0)
(0.124167 1.44193e-06 0)
(0.124159 1.32573e-06 0)
(0.124152 1.2177e-06 0)
(0.124145 1.11732e-06 0)
(0.124139 1.02429e-06 0)
(0.124133 9.38167e-07 0)
(0.124127 8.58492e-07 0)
(0.124122 7.84958e-07 0)
(0.124118 7.17059e-07 0)
(0.124114 6.5452e-07 0)
(0.12411 5.96953e-07 0)
(0.124106 5.43996e-07 0)
(0.124103 4.95377e-07 0)
(0.1241 4.50732e-07 0)
(0.124097 4.09791e-07 0)
(0.124094 3.72307e-07 0)
(0.124092 3.37955e-07 0)
(0.12409 3.06574e-07 0)
(0.124088 2.77885e-07 0)
(0.124086 2.517e-07 0)
(0.124084 2.27855e-07 0)
(0.124083 2.06094e-07 0)
(0.124082 1.86317e-07 0)
(0.12408 1.68297e-07 0)
(0.124079 1.51928e-07 0)
(0.124078 1.37081e-07 0)
(0.124077 1.23604e-07 0)
(0.124076 1.11439e-07 0)
(0.124075 1.00417e-07 0)
(0.124075 9.0454e-08 0)
(0.124074 8.15432e-08 0)
(0.124074 7.33138e-08 0)
(0.124073 6.63255e-08 0)
(0.124072 5.9365e-08 0)
(0.124072 5.42403e-08 0)
(0.124072 4.80901e-08 0)
(0.124071 4.48029e-08 0)
(0.124071 3.91237e-08 0)
(0.124071 3.75431e-08 0)
(0.12407 3.23251e-08 0)
(0.12407 3.19963e-08 0)
(0.12407 2.77826e-08 0)
(0.12407 2.7978e-08 0)
(0.124069 2.54023e-08 0)
(0.124069 2.577e-08 0)
(0.124069 2.78333e-08 0)
(0.195627 0.00619795 0)
(0.196162 0.00917445 0)
(0.197263 0.0113972 0)
(0.198732 0.0122245 0)
(0.199519 0.0118732 0)
(0.198863 0.0111025 0)
(0.197458 0.0101492 0)
(0.19591 0.00899354 0)
(0.193916 0.00778912 0)
(0.191265 0.00662718 0)
(0.18828 0.00547631 0)
(0.185304 0.00435563 0)
(0.182497 0.00334805 0)
(0.179964 0.00248232 0)
(0.17779 0.00173412 0)
(0.175998 0.00109569 0)
(0.174585 0.000574001 0)
(0.173547 0.000183105 0)
(0.172862 -6.3867e-05 0)
(0.172467 -0.000186002 0)
(0.17228 -0.000217406 0)
(0.17222 -0.000193848 0)
(0.172218 -0.000146279 0)
(0.172231 -9.60637e-05 0)
(0.172235 -5.34021e-05 0)
(0.172221 -2.23679e-05 0)
(0.172188 -1.71576e-06 0)
(0.172141 1.10762e-05 0)
(0.172085 1.85214e-05 0)
(0.172024 2.24443e-05 0)
(0.171962 2.42371e-05 0)
(0.171899 2.47679e-05 0)
(0.171838 2.45648e-05 0)
(0.171779 2.39379e-05 0)
(0.171723 2.30663e-05 0)
(0.17167 2.20552e-05 0)
(0.171619 2.09688e-05 0)
(0.171572 1.98478e-05 0)
(0.171527 1.87194e-05 0)
(0.171485 1.76023e-05 0)
(0.171445 1.65098e-05 0)
(0.171408 1.54509e-05 0)
(0.171373 1.4432e-05 0)
(0.171341 1.34571e-05 0)
(0.17131 1.25285e-05 0)
(0.171282 1.16477e-05 0)
(0.171256 1.08148e-05 0)
(0.171231 1.00296e-05 0)
(0.171208 9.29114e-06 0)
(0.171186 8.59814e-06 0)
(0.171166 7.94899e-06 0)
(0.171148 7.34196e-06 0)
(0.17113 6.77527e-06 0)
(0.171114 6.24692e-06 0)
(0.171099 5.75507e-06 0)
(0.171086 5.29761e-06 0)
(0.171073 4.87271e-06 0)
(0.171061 4.47843e-06 0)
(0.17105 4.11295e-06 0)
(0.17104 3.77458e-06 0)
(0.17103 3.46147e-06 0)
(0.171022 3.17209e-06 0)
(0.171014 2.9048e-06 0)
(0.171006 2.65813e-06 0)
(0.171 2.43073e-06 0)
(0.170993 2.2212e-06 0)
(0.170987 2.02836e-06 0)
(0.170982 1.85099e-06 0)
(0.170977 1.68794e-06 0)
(0.170973 1.53822e-06 0)
(0.170969 1.40077e-06 0)
(0.170965 1.27472e-06 0)
(0.170961 1.15924e-06 0)
(0.170958 1.05347e-06 0)
(0.170955 9.56766e-07 0)
(0.170953 8.6832e-07 0)
(0.17095 7.87546e-07 0)
(0.170948 7.13782e-07 0)
(0.170946 6.46482e-07 0)
(0.170944 5.85161e-07 0)
(0.170942 5.29302e-07 0)
(0.170941 4.78517e-07 0)
(0.170939 4.32366e-07 0)
(0.170938 3.90382e-07 0)
(0.170937 3.52506e-07 0)
(0.170936 3.17699e-07 0)
(0.170935 2.87087e-07 0)
(0.170934 2.57845e-07 0)
(0.170933 2.33987e-07 0)
(0.170932 2.08569e-07 0)
(0.170932 1.91433e-07 0)
(0.170931 1.68074e-07 0)
(0.170931 1.57711e-07 0)
(0.17093 1.355e-07 0)
(0.17093 1.30508e-07 0)
(0.170929 1.11238e-07 0)
(0.170929 1.08121e-07 0)
(0.170928 9.41715e-08 0)
(0.170928 9.19765e-08 0)
(0.170928 8.5511e-08 0)
(0.196842 0.00583519 0)
(0.197142 0.00796439 0)
(0.197912 0.00989014 0)
(0.199777 0.0109604 0)
(0.201997 0.0110559 0)
(0.203318 0.0106189 0)
(0.203873 0.00982455 0)
(0.204312 0.00878904 0)
(0.204521 0.00782622 0)
(0.204196 0.0069996 0)
(0.203438 0.00610671 0)
(0.202442 0.00509155 0)
(0.201297 0.00408585 0)
(0.200094 0.00319051 0)
(0.198931 0.00240248 0)
(0.19784 0.00170129 0)
(0.196832 0.00109734 0)
(0.19593 0.000619741 0)
(0.195168 0.000275748 0)
(0.194563 5.64733e-05 0)
(0.194111 -5.81258e-05 0)
(0.19379 -9.55169e-05 0)
(0.193564 -8.61374e-05 0)
(0.193401 -5.58782e-05 0)
(0.193273 -2.13199e-05 0)
(0.193163 8.41335e-06 0)
(0.193061 3.05376e-05 0)
(0.192962 4.5451e-05 0)
(0.192864 5.41971e-05 0)
(0.192768 5.8438e-05 0)
(0.192675 5.96825e-05 0)
(0.192585 5.90431e-05 0)
(0.192499 5.72872e-05 0)
(0.192418 5.4908e-05 0)
(0.192341 5.22089e-05 0)
(0.192269 4.93723e-05 0)
(0.192201 4.6507e-05 0)
(0.192138 4.36781e-05 0)
(0.192078 4.09247e-05 0)
(0.192023 3.82702e-05 0)
(0.19197 3.57285e-05 0)
(0.191922 3.33073e-05 0)
(0.191876 3.10101e-05 0)
(0.191833 2.88375e-05 0)
(0.191794 2.67882e-05 0)
(0.191757 2.48596e-05 0)
(0.191722 2.30483e-05 0)
(0.19169 2.135e-05 0)
(0.19166 1.97601e-05 0)
(0.191632 1.82737e-05 0)
(0.191606 1.68859e-05 0)
(0.191582 1.55916e-05 0)
(0.19156 1.43858e-05 0)
(0.191539 1.32636e-05 0)
(0.191519 1.22202e-05 0)
(0.191502 1.1251e-05 0)
(0.191485 1.03514e-05 0)
(0.19147 9.51723e-06 0)
(0.191455 8.74428e-06 0)
(0.191442 8.02876e-06 0)
(0.19143 7.3668e-06 0)
(0.191419 6.7549e-06 0)
(0.191408 6.18969e-06 0)
(0.191399 5.66794e-06 0)
(0.19139 5.18675e-06 0)
(0.191382 4.74323e-06 0)
(0.191374 4.33478e-06 0)
(0.191367 3.95888e-06 0)
(0.191361 3.61317e-06 0)
(0.191355 3.29545e-06 0)
(0.19135 3.00364e-06 0)
(0.191345 2.7358e-06 0)
(0.19134 2.49019e-06 0)
(0.191336 2.26508e-06 0)
(0.191332 2.05901e-06 0)
(0.191329 1.87041e-06 0)
(0.191325 1.69797e-06 0)
(0.191323 1.54038e-06 0)
(0.19132 1.39645e-06 0)
(0.191317 1.26516e-06 0)
(0.191315 1.14544e-06 0)
(0.191313 1.03638e-06 0)
(0.191311 9.37222e-07 0)
(0.19131 8.4679e-07 0)
(0.191308 7.65175e-07 0)
(0.191307 6.89994e-07 0)
(0.191305 6.2379e-07 0)
(0.191304 5.60392e-07 0)
(0.191303 5.08579e-07 0)
(0.191302 4.53215e-07 0)
(0.191301 4.15572e-07 0)
(0.191301 3.64934e-07 0)
(0.1913 3.40688e-07 0)
(0.191299 2.93756e-07 0)
(0.191299 2.79433e-07 0)
(0.191298 2.38975e-07 0)
(0.191298 2.29306e-07 0)
(0.191297 1.97622e-07 0)
(0.191297 1.9199e-07 0)
(0.191296 1.694e-07 0)
(0.197723 0.0056158 0)
(0.198028 0.00717162 0)
(0.198458 0.00874562 0)
(0.199864 0.00989194 0)
(0.202046 0.0101894 0)
(0.203765 0.00988183 0)
(0.204756 0.00924548 0)
(0.205567 0.00836865 0)
(0.206259 0.00750997 0)
(0.206608 0.00681673 0)
(0.20666 0.00610078 0)
(0.206529 0.00521972 0)
(0.206219 0.00428644 0)
(0.205749 0.00344418 0)
(0.205187 0.00270712 0)
(0.204582 0.00204643 0)
(0.20395 0.00146577 0)
(0.203305 0.000985206 0)
(0.202676 0.00061224 0)
(0.202097 0.00034559 0)
(0.201597 0.000176194 0)
(0.201182 8.64094e-05 0)
(0.200848 5.22296e-05 0)
(0.200579 5.04603e-05 0)
(0.20036 6.32744e-05 0)
(0.200176 7.98649e-05 0)
(0.200016 9.40924e-05 0)
(0.199873 0.000103617 0)
(0.199741 0.0001084 0)
(0.199619 0.000109347 0)
(0.199504 0.000107554 0)
(0.199397 0.000103982 0)
(0.199296 9.93629e-05 0)
(0.199201 9.42038e-05 0)
(0.199113 8.88335e-05 0)
(0.19903 8.3455e-05 0)
(0.198952 7.8189e-05 0)
(0.19888 7.31046e-05 0)
(0.198812 6.82395e-05 0)
(0.198749 6.36122e-05 0)
(0.19869 5.923e-05 0)
(0.198635 5.5093e-05 0)
(0.198584 5.1197e-05 0)
(0.198536 4.75353e-05 0)
(0.198491 4.40995e-05 0)
(0.19845 4.08804e-05 0)
(0.198411 3.7868e-05 0)
(0.198375 3.50522e-05 0)
(0.198341 3.24231e-05 0)
(0.19831 2.99705e-05 0)
(0.198281 2.76847e-05 0)
(0.198254 2.5556e-05 0)
(0.198229 2.35756e-05 0)
(0.198206 2.17342e-05 0)
(0.198184 2.00237e-05 0)
(0.198164 1.84358e-05 0)
(0.198145 1.69628e-05 0)
(0.198128 1.55976e-05 0)
(0.198112 1.43329e-05 0)
(0.198098 1.31623e-05 0)
(0.198084 1.20796e-05 0)
(0.198071 1.10788e-05 0)
(0.19806 1.01544e-05 0)
(0.198049 9.30101e-06 0)
(0.198039 8.51388e-06 0)
(0.19803 7.78828e-06 0)
(0.198021 7.11991e-06 0)
(0.198014 6.50467e-06 0)
(0.198007 5.93872e-06 0)
(0.198 5.41845e-06 0)
(0.197994 4.94048e-06 0)
(0.197988 4.50165e-06 0)
(0.197983 4.09909e-06 0)
(0.197979 3.73003e-06 0)
(0.197974 3.39199e-06 0)
(0.19797 3.08252e-06 0)
(0.197967 2.79943e-06 0)
(0.197964 2.54065e-06 0)
(0.197961 2.3042e-06 0)
(0.197958 2.0884e-06 0)
(0.197955 1.89155e-06 0)
(0.197953 1.71208e-06 0)
(0.197951 1.54888e-06 0)
(0.197949 1.39983e-06 0)
(0.197947 1.2654e-06 0)
(0.197946 1.14125e-06 0)
(0.197944 1.03221e-06 0)
(0.197943 9.27138e-07 0)
(0.197942 8.41937e-07 0)
(0.197941 7.49811e-07 0)
(0.19794 6.87701e-07 0)
(0.197939 6.03984e-07 0)
(0.197938 5.62303e-07 0)
(0.197937 4.86607e-07 0)
(0.197937 4.59342e-07 0)
(0.197936 3.94467e-07 0)
(0.197936 3.76087e-07 0)
(0.197935 3.22726e-07 0)
(0.197935 3.12814e-07 0)
(0.197934 2.70023e-07 0)
(0.19838 0.00543377 0)
(0.19876 0.00665056 0)
(0.199115 0.00797322 0)
(0.200094 0.00905251 0)
(0.201882 0.00936972 0)
(0.20357 0.00914028 0)
(0.204643 0.00871423 0)
(0.205435 0.00804358 0)
(0.206122 0.00724918 0)
(0.206572 0.00658343 0)
(0.206798 0.00597194 0)
(0.206909 0.00522572 0)
(0.206897 0.00438973 0)
(0.206715 0.00361007 0)
(0.206392 0.00292502 0)
(0.205988 0.00230505 0)
(0.205537 0.00174598 0)
(0.20505 0.00126939 0)
(0.204542 0.000888356 0)
(0.204041 0.000603012 0)
(0.203574 0.000405886 0)
(0.20316 0.000283477 0)
(0.202802 0.000217424 0)
(0.202498 0.000187906 0)
(0.202241 0.000178268 0)
(0.202023 0.000177331 0)
(0.201834 0.000178352 0)
(0.201667 0.000178078 0)
(0.201517 0.000175442 0)
(0.201381 0.0001705 0)
(0.201255 0.000163785 0)
(0.201139 0.00015592 0)
(0.201031 0.000147442 0)
(0.200931 0.000138752 0)
(0.200837 0.000130122 0)
(0.20075 0.000121724 0)
(0.200669 0.000113656 0)
(0.200593 0.000105971 0)
(0.200522 9.86921e-05 0)
(0.200456 9.18237e-05 0)
(0.200394 8.53607e-05 0)
(0.200337 7.92914e-05 0)
(0.200283 7.36006e-05 0)
(0.200233 6.82716e-05 0)
(0.200187 6.32866e-05 0)
(0.200143 5.8628e-05 0)
(0.200103 5.4278e-05 0)
(0.200065 5.02195e-05 0)
(0.20003 4.64357e-05 0)
(0.199998 4.29105e-05 0)
(0.199968 3.96288e-05 0)
(0.19994 3.65755e-05 0)
(0.199913 3.37368e-05 0)
(0.199889 3.10993e-05 0)
(0.199867 2.86504e-05 0)
(0.199846 2.63781e-05 0)
(0.199827 2.42709e-05 0)
(0.199809 2.23183e-05 0)
(0.199792 2.05099e-05 0)
(0.199777 1.88364e-05 0)
(0.199763 1.72886e-05 0)
(0.199749 1.5858e-05 0)
(0.199737 1.45366e-05 0)
(0.199726 1.33168e-05 0)
(0.199716 1.21916e-05 0)
(0.199706 1.11543e-05 0)
(0.199698 1.01988e-05 0)
(0.19969 9.31908e-06 0)
(0.199682 8.50978e-06 0)
(0.199675 7.7657e-06 0)
(0.199669 7.08202e-06 0)
(0.199663 6.45427e-06 0)
(0.199658 5.87826e-06 0)
(0.199653 5.35011e-06 0)
(0.199649 4.86623e-06 0)
(0.199645 4.42317e-06 0)
(0.199641 4.01779e-06 0)
(0.199637 3.64716e-06 0)
(0.199634 3.30844e-06 0)
(0.199632 2.99921e-06 0)
(0.199629 2.7171e-06 0)
(0.199627 2.45976e-06 0)
(0.199624 2.22576e-06 0)
(0.199622 2.01189e-06 0)
(0.199621 1.81907e-06 0)
(0.199619 1.64072e-06 0)
(0.199618 1.48438e-06 0)
(0.199616 1.33309e-06 0)
(0.199615 1.21107e-06 0)
(0.199614 1.07818e-06 0)
(0.199613 9.88983e-07 0)
(0.199612 8.68848e-07 0)
(0.199611 8.07455e-07 0)
(0.19961 7.00497e-07 0)
(0.19961 6.5826e-07 0)
(0.199609 5.66803e-07 0)
(0.199609 5.38505e-07 0)
(0.199608 4.60921e-07 0)
(0.199608 4.46233e-07 0)
(0.199607 3.80824e-07 0)
(0.19892 0.00529488 0)
(0.19935 0.00627189 0)
(0.199687 0.00732292 0)
(0.200369 0.00825752 0)
(0.201794 0.0086254 0)
(0.20335 0.00850062 0)
(0.204378 0.00819509 0)
(0.205059 0.00768126 0)
(0.205693 0.00699675 0)
(0.206187 0.00638211 0)
(0.20645 0.00584505 0)
(0.20658 0.00520154 0)
(0.206627 0.00444011 0)
(0.206544 0.00370172 0)
(0.206314 0.00305517 0)
(0.205991 0.00247732 0)
(0.205625 0.00195295 0)
(0.205229 0.00149857 0)
(0.204803 0.00112808 0)
(0.204366 0.000840932 0)
(0.203944 0.000629994 0)
(0.203556 0.000485336 0)
(0.203209 0.000393419 0)
(0.202904 0.000338462 0)
(0.202641 0.000306317 0)
(0.202413 0.000286743 0)
(0.202214 0.000273045 0)
(0.202039 0.000261329 0)
(0.201882 0.000249723 0)
(0.20174 0.000237594 0)
(0.201611 0.000224941 0)
(0.201491 0.000212008 0)
(0.201381 0.000199086 0)
(0.201279 0.000186418 0)
(0.201184 0.000174178 0)
(0.201095 0.000162476 0)
(0.201013 0.000151369 0)
(0.200936 0.000140881 0)
(0.200864 0.000131011 0)
(0.200797 0.000121745 0)
(0.200735 0.000113061 0)
(0.200677 0.000104932 0)
(0.200623 9.73314e-05 0)
(0.200573 9.02299e-05 0)
(0.200526 8.35996e-05 0)
(0.200482 7.74132e-05 0)
(0.200441 7.16446e-05 0)
(0.200403 6.62685e-05 0)
(0.200368 6.12612e-05 0)
(0.200335 5.65999e-05 0)
(0.200305 5.22635e-05 0)
(0.200276 4.82312e-05 0)
(0.20025 4.44842e-05 0)
(0.200226 4.10042e-05 0)
(0.200203 3.7774e-05 0)
(0.200182 3.47775e-05 0)
(0.200163 3.19995e-05 0)
(0.200144 2.94256e-05 0)
(0.200128 2.70422e-05 0)
(0.200112 2.48367e-05 0)
(0.200098 2.27971e-05 0)
(0.200085 2.0912e-05 0)
(0.200073 1.91708e-05 0)
(0.200061 1.75635e-05 0)
(0.200051 1.60809e-05 0)
(0.200041 1.4714e-05 0)
(0.200033 1.34548e-05 0)
(0.200024 1.22955e-05 0)
(0.200017 1.12289e-05 0)
(0.20001 1.02481e-05 0)
(0.200004 9.34693e-06 0)
(0.199998 8.5194e-06 0)
(0.199993 7.76e-06 0)
(0.199988 7.06362e-06 0)
(0.199983 6.42552e-06 0)
(0.199979 5.8412e-06 0)
(0.199975 5.30651e-06 0)
(0.199972 4.81757e-06 0)
(0.199969 4.37071e-06 0)
(0.199966 3.96267e-06 0)
(0.199963 3.5904e-06 0)
(0.199961 3.25071e-06 0)
(0.199959 2.94182e-06 0)
(0.199957 2.6594e-06 0)
(0.199955 2.40483e-06 0)
(0.199953 2.16915e-06 0)
(0.199952 1.96275e-06 0)
(0.19995 1.76264e-06 0)
(0.199949 1.60156e-06 0)
(0.199948 1.42573e-06 0)
(0.199947 1.30761e-06 0)
(0.199946 1.1493e-06 0)
(0.199945 1.06665e-06 0)
(0.199944 9.26941e-07 0)
(0.199944 8.68703e-07 0)
(0.199943 7.49014e-07 0)
(0.199943 7.10422e-07 0)
(0.199942 6.06815e-07 0)
(0.199942 5.87247e-07 0)
(0.199941 4.97562e-07 0)
(0.199353 0.00515283 0)
(0.199795 0.00592972 0)
(0.200139 0.00674686 0)
(0.200663 0.0075683 0)
(0.201784 0.00799322 0)
(0.203134 0.00791294 0)
(0.204076 0.00764355 0)
(0.204678 0.00728906 0)
(0.205275 0.00677766 0)
(0.205795 0.00621471 0)
(0.206062 0.00568436 0)
(0.206153 0.00509872 0)
(0.206197 0.00442226 0)
(0.206168 0.00375291 0)
(0.206003 0.00316309 0)
(0.205731 0.00263802 0)
(0.205414 0.00215393 0)
(0.205071 0.00172097 0)
(0.204701 0.00135695 0)
(0.204313 0.00106608 0)
(0.203931 0.00084316 0)
(0.203573 0.000680148 0)
(0.203247 0.000566563 0)
(0.202955 0.000489789 0)
(0.202697 0.000437694 0)
(0.202471 0.000400852 0)
(0.202272 0.000372771 0)
(0.202095 0.000349342 0)
(0.201937 0.00032825 0)
(0.201794 0.000308368 0)
(0.201663 0.000289256 0)
(0.201543 0.000270819 0)
(0.201433 0.000253099 0)
(0.20133 0.00023617 0)
(0.201235 0.000220094 0)
(0.201146 0.000204904 0)
(0.201064 0.000190604 0)
(0.200987 0.00017718 0)
(0.200916 0.000164603 0)
(0.200849 0.000152836 0)
(0.200787 0.000141838 0)
(0.200729 0.000131566 0)
(0.200675 0.000121978 0)
(0.200625 0.000113033 0)
(0.200578 0.000104693 0)
(0.200534 9.69187e-05 0)
(0.200494 8.96759e-05 0)
(0.200456 8.29311e-05 0)
(0.200421 7.6653e-05 0)
(0.200388 7.08118e-05 0)
(0.200358 6.53799e-05 0)
(0.200329 6.03312e-05 0)
(0.200303 5.56409e-05 0)
(0.200279 5.12861e-05 0)
(0.200256 4.72447e-05 0)
(0.200235 4.34965e-05 0)
(0.200216 4.00219e-05 0)
(0.200198 3.68031e-05 0)
(0.200181 3.38229e-05 0)
(0.200166 3.10652e-05 0)
(0.200152 2.8515e-05 0)
(0.200138 2.61581e-05 0)
(0.200126 2.39811e-05 0)
(0.200115 2.19717e-05 0)
(0.200105 2.0118e-05 0)
(0.200095 1.8409e-05 0)
(0.200086 1.68346e-05 0)
(0.200078 1.5385e-05 0)
(0.200071 1.40513e-05 0)
(0.200064 1.28249e-05 0)
(0.200058 1.16979e-05 0)
(0.200052 1.0663e-05 0)
(0.200046 9.71328e-06 0)
(0.200042 8.84229e-06 0)
(0.200037 8.04413e-06 0)
(0.200033 7.31318e-06 0)
(0.200029 6.64425e-06 0)
(0.200026 6.03253e-06 0)
(0.200023 5.47341e-06 0)
(0.20002 4.9628e-06 0)
(0.200017 4.49694e-06 0)
(0.200015 4.07177e-06 0)
(0.200013 3.68515e-06 0)
(0.200011 3.33159e-06 0)
(0.200009 3.01288e-06 0)
(0.200007 2.71774e-06 0)
(0.200006 2.45931e-06 0)
(0.200004 2.20861e-06 0)
(0.200003 2.00684e-06 0)
(0.200002 1.78665e-06 0)
(0.200001 1.63822e-06 0)
(0.2 1.44059e-06 0)
(0.199999 1.33559e-06 0)
(0.199998 1.16208e-06 0)
(0.199998 1.08714e-06 0)
(0.199997 9.38038e-07 0)
(0.199997 8.88964e-07 0)
(0.199996 7.5797e-07 0)
(0.199996 7.33547e-07 0)
(0.199995 6.18402e-07 0)
(0.19969 0.00499472 0)
(0.200134 0.0056286 0)
(0.200503 0.00628171 0)
(0.20093 0.00697146 0)
(0.20178 0.00738786 0)
(0.202918 0.0073591 0)
(0.20381 0.00715617 0)
(0.204366 0.00692925 0)
(0.204881 0.00654235 0)
(0.205378 0.00601111 0)
(0.205662 0.0054901 0)
(0.205749 0.00498554 0)
(0.205789 0.00442591 0)
(0.205789 0.00383663 0)
(0.205669 0.00328746 0)
(0.205434 0.00279244 0)
(0.205149 0.00233462 0)
(0.204847 0.00191809 0)
(0.204523 0.0015607 0)
(0.204178 0.00126972 0)
(0.203834 0.00104054 0)
(0.203507 0.000865189 0)
(0.203204 0.000735021 0)
(0.202928 0.000640091 0)
(0.202681 0.000570337 0)
(0.20246 0.000517473 0)
(0.202265 0.000475527 0)
(0.20209 0.000440463 0)
(0.201933 0.000409724 0)
(0.20179 0.000381824 0)
(0.20166 0.000355967 0)
(0.201541 0.000331757 0)
(0.20143 0.000309005 0)
(0.201328 0.000287619 0)
(0.201234 0.000267541 0)
(0.201146 0.000248722 0)
(0.201064 0.00023111 0)
(0.200988 0.000214645 0)
(0.200917 0.000199269 0)
(0.200851 0.000184917 0)
(0.200789 0.000171529 0)
(0.200731 0.000159044 0)
(0.200678 0.000147405 0)
(0.200628 0.000136559 0)
(0.200581 0.000126453 0)
(0.200538 0.000117041 0)
(0.200498 0.000108278 0)
(0.20046 0.000100121 0)
(0.200425 9.25313e-05 0)
(0.200393 8.54728e-05 0)
(0.200362 7.8911e-05 0)
(0.200334 7.28135e-05 0)
(0.200308 6.71503e-05 0)
(0.200284 6.18929e-05 0)
(0.200262 5.70147e-05 0)
(0.200241 5.24909e-05 0)
(0.200222 4.82979e-05 0)
(0.200204 4.44137e-05 0)
(0.200187 4.08177e-05 0)
(0.200172 3.74903e-05 0)
(0.200158 3.44134e-05 0)
(0.200145 3.15698e-05 0)
(0.200132 2.89434e-05 0)
(0.200121 2.6519e-05 0)
(0.200111 2.42825e-05 0)
(0.200102 2.22206e-05 0)
(0.200093 2.03211e-05 0)
(0.200085 1.85721e-05 0)
(0.200077 1.69628e-05 0)
(0.200071 1.54831e-05 0)
(0.200064 1.41232e-05 0)
(0.200059 1.28744e-05 0)
(0.200053 1.17282e-05 0)
(0.200048 1.06771e-05 0)
(0.200044 9.71385e-06 0)
(0.20004 8.83164e-06 0)
(0.200036 8.02424e-06 0)
(0.200033 7.28584e-06 0)
(0.20003 6.61093e-06 0)
(0.200027 5.99452e-06 0)
(0.200024 5.43211e-06 0)
(0.200022 4.91878e-06 0)
(0.20002 4.45195e-06 0)
(0.200018 4.02502e-06 0)
(0.200016 3.64013e-06 0)
(0.200014 3.28369e-06 0)
(0.200013 2.97153e-06 0)
(0.200011 2.66873e-06 0)
(0.20001 2.42484e-06 0)
(0.200009 2.15908e-06 0)
(0.200008 1.97915e-06 0)
(0.200007 1.74117e-06 0)
(0.200006 1.61296e-06 0)
(0.200006 1.4046e-06 0)
(0.200005 1.31251e-06 0)
(0.200004 1.13293e-06 0)
(0.200004 1.07312e-06 0)
(0.200003 9.13709e-07 0)
(0.200003 8.84388e-07 0)
(0.200002 7.42796e-07 0)
(0.199959 0.00483056 0)
(0.200392 0.00536088 0)
(0.200768 0.00588003 0)
(0.201135 0.00642805 0)
(0.201789 0.00683029 0)
(0.202744 0.00689025 0)
(0.203572 0.00674154 0)
(0.204073 0.00655449 0)
(0.2045 0.00625703 0)
(0.204968 0.00581519 0)
(0.205288 0.00535317 0)
(0.205389 0.0049172 0)
(0.205409 0.00443746 0)
(0.20541 0.0039025 0)
(0.205324 0.00338088 0)
(0.20513 0.00291192 0)
(0.20488 0.00248495 0)
(0.204614 0.00209307 0)
(0.204331 0.00174851 0)
(0.204026 0.00146086 0)
(0.203716 0.00122796 0)
(0.203416 0.0010429 0)
(0.203136 0.000898726 0)
(0.202878 0.000787891 0)
(0.202643 0.000702296 0)
(0.202431 0.000634761 0)
(0.202241 0.000579814 0)
(0.20207 0.000533558 0)
(0.201915 0.000493323 0)
(0.201774 0.000457378 0)
(0.201646 0.000424657 0)
(0.201527 0.00039452 0)
(0.201418 0.000366579 0)
(0.201317 0.000340588 0)
(0.201223 0.000316377 0)
(0.201136 0.000293814 0)
(0.201055 0.000272785 0)
(0.200979 0.000253189 0)
(0.200909 0.00023493 0)
(0.200844 0.000217919 0)
(0.200782 0.000202072 0)
(0.200725 0.000187311 0)
(0.200672 0.000173563 0)
(0.200623 0.000160761 0)
(0.200577 0.00014884 0)
(0.200534 0.000137743 0)
(0.200494 0.000127415 0)
(0.200457 0.000117806 0)
(0.200422 0.000108868 0)
(0.20039 0.000100557 0)
(0.20036 9.28327e-05 0)
(0.200332 8.56563e-05 0)
(0.200306 7.8992e-05 0)
(0.200282 7.2806e-05 0)
(0.20026 6.70669e-05 0)
(0.200239 6.17452e-05 0)
(0.20022 5.68129e-05 0)
(0.200203 5.22442e-05 0)
(0.200186 4.80146e-05 0)
(0.200171 4.41012e-05 0)
(0.200157 4.04823e-05 0)
(0.200144 3.71379e-05 0)
(0.200132 3.4049e-05 0)
(0.200121 3.11976e-05 0)
(0.200111 2.85674e-05 0)
(0.200101 2.61424e-05 0)
(0.200093 2.39083e-05 0)
(0.200085 2.18513e-05 0)
(0.200077 1.99585e-05 0)
(0.200071 1.8218e-05 0)
(0.200064 1.66185e-05 0)
(0.200059 1.51495e-05 0)
(0.200054 1.38014e-05 0)
(0.200049 1.25649e-05 0)
(0.200044 1.14318e-05 0)
(0.20004 1.0394e-05 0)
(0.200037 9.44409e-06 0)
(0.200033 8.57536e-06 0)
(0.20003 7.78131e-06 0)
(0.200027 7.05603e-06 0)
(0.200025 6.39429e-06 0)
(0.200022 5.79025e-06 0)
(0.20002 5.2409e-06 0)
(0.200018 4.7385e-06 0)
(0.200017 4.28549e-06 0)
(0.200015 3.86601e-06 0)
(0.200013 3.49851e-06 0)
(0.200012 3.1422e-06 0)
(0.200011 2.85484e-06 0)
(0.20001 2.54236e-06 0)
(0.200009 2.32982e-06 0)
(0.200008 2.0505e-06 0)
(0.200007 1.89831e-06 0)
(0.200006 1.65406e-06 0)
(0.200006 1.54445e-06 0)
(0.200005 1.3333e-06 0)
(0.200005 1.26255e-06 0)
(0.200004 1.07384e-06 0)
(0.200004 1.03945e-06 0)
(0.200003 8.7054e-07 0)
(0.200172 0.0046555 0)
(0.200578 0.00510166 0)
(0.200951 0.00552271 0)
(0.201295 0.00596792 0)
(0.201816 0.00634667 0)
(0.202589 0.00646216 0)
(0.203324 0.00634793 0)
(0.203798 0.00619242 0)
(0.204173 0.00599428 0)
(0.204598 0.00566104 0)
(0.204922 0.00524535 0)
(0.205032 0.00483323 0)
(0.205038 0.0044052 0)
(0.205039 0.00393279 0)
(0.204987 0.00345717 0)
(0.204834 0.00302185 0)
(0.204618 0.00262526 0)
(0.204383 0.00225673 0)
(0.204133 0.00192414 0)
(0.203864 0.0016393 0)
(0.203585 0.0014034 0)
(0.203313 0.00121082 0)
(0.203056 0.0010555 0)
(0.202816 0.000931473 0)
(0.202594 0.000832241 0)
(0.202392 0.000751654 0)
(0.202209 0.000684776 0)
(0.202042 0.000627944 0)
(0.201891 0.000578508 0)
(0.201753 0.000534613 0)
(0.201626 0.000495008 0)
(0.201509 0.000458865 0)
(0.201402 0.000425632 0)
(0.201302 0.000394929 0)
(0.201209 0.000366482 0)
(0.201123 0.000340078 0)
(0.201043 0.000315545 0)
(0.200968 0.000292737 0)
(0.200899 0.000271523 0)
(0.200834 0.000251785 0)
(0.200774 0.000233417 0)
(0.200717 0.000216323 0)
(0.200665 0.000200412 0)
(0.200616 0.000185603 0)
(0.20057 0.00017182 0)
(0.200528 0.000158995 0)
(0.200489 0.000147062 0)
(0.200452 0.000135962 0)
(0.200417 0.00012564 0)
(0.200386 0.000116044 0)
(0.200356 0.000107126 0)
(0.200329 9.88423e-05 0)
(0.200303 9.11503e-05 0)
(0.200279 8.40112e-05 0)
(0.200257 7.73882e-05 0)
(0.200237 7.12472e-05 0)
(0.200218 6.5556e-05 0)
(0.2002 6.02844e-05 0)
(0.200184 5.54043e-05 0)
(0.200169 5.0889e-05 0)
(0.200155 4.67138e-05 0)
(0.200143 4.28552e-05 0)
(0.200131 3.92913e-05 0)
(0.20012 3.60017e-05 0)
(0.20011 3.2967e-05 0)
(0.2001 3.01692e-05 0)
(0.200092 2.75916e-05 0)
(0.200084 2.52182e-05 0)
(0.200077 2.30344e-05 0)
(0.20007 2.10262e-05 0)
(0.200064 1.91806e-05 0)
(0.200058 1.74857e-05 0)
(0.200053 1.59301e-05 0)
(0.200048 1.45033e-05 0)
(0.200044 1.31958e-05 0)
(0.20004 1.19981e-05 0)
(0.200036 1.0902e-05 0)
(0.200033 9.89942e-06 0)
(0.20003 8.98303e-06 0)
(0.200027 8.14597e-06 0)
(0.200025 7.38224e-06 0)
(0.200022 6.68507e-06 0)
(0.20002 6.05098e-06 0)
(0.200018 5.47109e-06 0)
(0.200016 4.94813e-06 0)
(0.200015 4.46394e-06 0)
(0.200013 4.03958e-06 0)
(0.200012 3.62839e-06 0)
(0.200011 3.29629e-06 0)
(0.20001 2.93597e-06 0)
(0.200009 2.68982e-06 0)
(0.200008 2.36814e-06 0)
(0.200007 2.19128e-06 0)
(0.200006 1.91013e-06 0)
(0.200006 1.78263e-06 0)
(0.200005 1.53892e-06 0)
(0.200005 1.45702e-06 0)
(0.200004 1.23813e-06 0)
(0.200004 1.1985e-06 0)
(0.200003 1.00148e-06 0)
(0.20034 0.00446951 0)
(0.200712 0.00485511 0)
(0.201078 0.00521337 0)
(0.201408 0.00557906 0)
(0.20183 0.00590757 0)
(0.202445 0.00605465 0)
(0.203094 0.00600048 0)
(0.203554 0.00588855 0)
(0.203887 0.00574991 0)
(0.204244 0.00548843 0)
(0.204549 0.00511658 0)
(0.204679 0.00473606 0)
(0.204693 0.00436475 0)
(0.204693 0.003961 0)
(0.204662 0.00353374 0)
(0.204544 0.00312579 0)
(0.204359 0.00275114 0)
(0.204151 0.00240248 0)
(0.203931 0.00208285 0)
(0.203694 0.00180302 0)
(0.203446 0.00156646 0)
(0.2032 0.00136901 0)
(0.202965 0.00120529 0)
(0.202742 0.0010705 0)
(0.202535 0.000959577 0)
(0.202343 0.000867417 0)
(0.202168 0.000789664 0)
(0.202007 0.000722948 0)
(0.201861 0.000664718 0)
(0.201726 0.000613079 0)
(0.201602 0.000566666 0)
(0.201487 0.000524517 0)
(0.201381 0.000485949 0)
(0.201283 0.00045047 0)
(0.201192 0.000417715 0)
(0.201107 0.000387398 0)
(0.201029 0.000359293 0)
(0.200955 0.000333206 0)
(0.200887 0.000308974 0)
(0.200823 0.00028645 0)
(0.200763 0.000265507 0)
(0.200708 0.000246026 0)
(0.200656 0.000227904 0)
(0.200608 0.000211043 0)
(0.200563 0.000195356 0)
(0.200521 0.000180761 0)
(0.200482 0.000167186 0)
(0.200446 0.00015456 0)
(0.200412 0.000142821 0)
(0.200381 0.000131909 0)
(0.200351 0.000121769 0)
(0.200324 0.000112351 0)
(0.200299 0.000103607 0)
(0.200276 9.54912e-05 0)
(0.200254 8.79628e-05 0)
(0.200234 8.09826e-05 0)
(0.200215 7.45138e-05 0)
(0.200198 6.85222e-05 0)
(0.200182 6.29756e-05 0)
(0.200167 5.78438e-05 0)
(0.200153 5.30984e-05 0)
(0.200141 4.8713e-05 0)
(0.200129 4.46626e-05 0)
(0.200118 4.09238e-05 0)
(0.200108 3.74748e-05 0)
(0.200099 3.42951e-05 0)
(0.200091 3.13655e-05 0)
(0.200083 2.8668e-05 0)
(0.200076 2.61859e-05 0)
(0.200069 2.39034e-05 0)
(0.200063 2.18057e-05 0)
(0.200057 1.98792e-05 0)
(0.200052 1.81111e-05 0)
(0.200048 1.64894e-05 0)
(0.200043 1.50031e-05 0)
(0.200039 1.36417e-05 0)
(0.200036 1.23957e-05 0)
(0.200033 1.1256e-05 0)
(0.20003 1.02143e-05 0)