/*--------------------------------*- C++ -*----------------------------------*\
| =========                 |                                                 |
| \\      /  F ield         | OpenFOAM: The Open Source CFD Toolbox           |
|  \\    /   O peration     | Version:  2.3.0                                 |
|   \\  /    A nd           | Web:      www.OpenFOAM.org                      |
|    \\/     M anipulation  |                                                 |
\*---------------------------------------------------------------------------*/
FoamFile
{
    version     2.0;
    format      ascii;
    class       surfaceScalarField;
    location    "0.8";
    object      phi_0;
}
// * * * * * * * * * * * * * * * * * * * * * * * * * * * * * * * * * * * * * //

dimensions      [0 3 -1 0 0 0 0];

internalField   nonuniform List<scalar> 
3203
(
3.95879e-08
3.60931e-09
-4.31972e-08
3.5001e-08
4.58695e-09
3.04303e-08
4.57067e-09
2.61246e-08
4.30564e-09
2.21119e-08
4.01279e-09
1.8514e-08
3.59786e-09
1.55041e-08
3.00992e-09
1.31621e-08
2.34196e-09
1.14723e-08
1.68984e-09
1.03125e-08
1.15977e-09
9.52472e-09
7.87786e-10
8.97683e-09
5.47887e-10
8.5757e-09
4.01126e-10
8.25836e-09
3.17343e-10
7.98376e-09
2.74605e-10
7.72998e-09
2.53779e-10
7.48807e-09
2.41911e-10
7.25587e-09
2.32198e-10
7.03414e-09
2.21734e-10
6.82424e-09
2.09896e-10
6.627e-09
1.97239e-10
6.4429e-09
1.84106e-10
6.27136e-09
1.71537e-10
6.11183e-09
1.59532e-10
5.96313e-09
1.487e-10
5.82432e-09
1.38807e-10
5.69432e-09
1.29996e-10
5.57217e-09
1.22158e-10
5.4571e-09
1.15067e-10
5.34837e-09
1.08726e-10
5.24529e-09
1.03086e-10
5.14757e-09
9.77202e-11
5.05444e-09
9.31273e-11
4.96583e-09
8.86119e-11
4.88123e-09
8.46002e-11
4.80029e-09
8.09338e-11
4.72301e-09
7.72816e-11
4.64883e-09
7.41793e-11
4.57773e-09
7.11001e-11
4.50955e-09
6.81829e-11
4.4439e-09
6.56487e-11
4.38081e-09
6.30905e-11
4.32014e-09
6.06748e-11
4.26146e-09
5.86795e-11
4.20512e-09
5.63399e-11
4.15046e-09
5.46523e-11
4.09784e-09
5.26199e-11
4.04678e-09
5.1069e-11
3.99754e-09
4.92392e-11
3.9494e-09
4.81403e-11
3.90337e-09
4.60289e-11
3.85774e-09
4.56227e-11
3.8141e-09
4.36425e-11
3.77096e-09
4.31423e-11
3.72932e-09
4.16437e-11
3.68753e-09
4.17841e-11
3.64787e-09
3.96574e-11
3.60675e-09
4.11206e-11
3.56793e-09
3.88191e-11
4.47085e-11
4.67201e-08
3.26593e-09
-4.63767e-08
4.64278e-08
4.87923e-09
4.547e-08
5.52849e-09
4.41602e-08
5.6155e-09
4.26155e-08
5.55748e-09
4.08524e-08
5.36095e-09
3.89118e-08
4.95053e-09
3.69054e-08
4.34831e-09
3.49491e-08
3.64612e-09
3.31282e-08
2.9807e-09
3.14711e-08
2.44491e-09
2.99693e-08
2.04969e-09
2.86124e-08
1.75802e-09
2.73924e-08
1.53727e-09
2.62932e-08
1.37387e-09
2.52989e-08
1.2481e-09
2.4395e-08
1.14574e-09
2.35694e-08
1.05779e-09
2.28117e-08
9.79444e-10
2.21136e-08
9.07974e-10
2.14681e-08
8.42744e-10
2.08698e-08
7.82441e-10
2.03134e-08
7.27975e-10
1.97949e-08
6.78005e-10
1.93102e-08
6.33407e-10
1.88562e-08
5.92807e-10
1.84296e-08
5.56629e-10
1.80279e-08
5.23832e-10
1.76486e-08
4.94358e-10
1.72899e-08
4.67393e-10
1.69497e-08
4.43346e-10
1.66269e-08
4.20522e-10
1.63194e-08
4.00585e-10
1.60269e-08
3.81145e-10
1.57474e-08
3.64017e-10
1.54808e-08
3.47598e-10
1.52256e-08
3.32514e-10
1.49814e-08
3.18314e-10
1.47471e-08
3.05457e-10
1.45227e-08
2.925e-10
1.43067e-08
2.8169e-10
1.40997e-08
2.70083e-10
1.39e-08
2.60383e-10
1.37083e-08
2.50399e-10
1.3523e-08
2.41585e-10
1.33451e-08
2.32618e-10
1.31726e-08
2.251e-10
1.3007e-08
2.16661e-10
1.2846e-08
2.10222e-10
1.26913e-08
2.02829e-10
1.25408e-08
1.96519e-10
1.23959e-08
1.90588e-10
1.22543e-08
1.85191e-10
1.21183e-08
1.79146e-10
1.19844e-08
1.7553e-10
1.18556e-08
1.70615e-10
1.17284e-08
1.66828e-10
1.16049e-08
1.64668e-10
1.14819e-08
1.61792e-10
1.67818e-10
4.92817e-08
3.07694e-09
-4.90927e-08
4.97541e-08
4.40689e-09
4.99573e-08
5.32525e-09
4.99539e-08
5.6189e-09
4.98289e-08
5.68243e-09
4.95606e-08
5.62933e-09
4.90897e-08
5.42137e-09
4.84153e-08
5.02271e-09
4.75799e-08
4.48156e-09
4.66498e-08
3.9108e-09
4.56791e-08
3.41562e-09
4.46959e-08
3.03286e-09
4.371e-08
2.74394e-09
4.27285e-08
2.51875e-09
4.17606e-08
2.34178e-09
4.08118e-08
2.19696e-09
3.98845e-08
2.073e-09
3.89811e-08
1.96121e-09
3.81028e-08
1.85777e-09
3.72511e-08
1.75959e-09
3.6427e-08
1.6669e-09
3.56317e-08
1.57775e-09
3.48652e-08
1.49443e-09
3.41285e-08
1.41474e-09
3.34207e-08
1.34122e-09
3.27421e-08
1.2714e-09
3.20912e-08
1.20748e-09
3.1468e-08
1.14705e-09
3.08706e-08
1.0918e-09
3.02987e-08
1.03929e-09
2.97501e-08
9.91938e-10
2.92248e-08
9.45764e-10
2.87204e-08
9.05055e-10
2.82371e-08
8.64438e-10
2.77722e-08
8.28895e-10
2.73264e-08
7.93395e-10
2.68969e-08
7.61989e-10
2.64847e-08
7.30495e-10
2.60868e-08
7.03371e-10
2.57049e-08
6.74467e-10
2.53352e-08
6.51327e-10
2.49804e-08
6.24901e-10
2.46363e-08
6.04474e-10
2.4306e-08
5.80744e-10
2.39849e-08
5.6262e-10
2.3677e-08
5.40599e-10
2.33767e-08
5.2533e-10
2.30891e-08
5.04246e-10
2.28079e-08
4.91421e-10
2.25389e-08
4.71843e-10
2.22751e-08
4.60369e-10
2.20231e-08
4.42583e-10
2.17748e-08
4.33478e-10
2.15384e-08
4.15583e-10
2.13039e-08
4.09978e-10
2.10811e-08
3.93406e-10
2.08589e-08
3.89058e-10
2.06469e-08
3.76631e-10
2.04341e-08
3.74576e-10
3.72641e-10
5.19721e-08
3.01399e-09
-5.19092e-08
5.23561e-08
4.02292e-09
5.2754e-08
4.92738e-09
5.30294e-08
5.34347e-09
5.32563e-08
5.45561e-09
5.34506e-08
5.435e-09
5.35624e-08
5.30954e-09
5.35454e-08
5.03971e-09
5.3387e-08
4.63995e-09
5.31129e-08
4.18496e-09
5.27622e-08
3.76626e-09
5.23643e-08
3.43079e-09
5.19287e-08
3.17953e-09
5.146e-08
2.9874e-09
5.09647e-08
2.83708e-09
5.04488e-08
2.71287e-09
4.99148e-08
2.60704e-09
4.93654e-08
2.51059e-09
4.8802e-08
2.42122e-09
4.82271e-08
2.33448e-09
4.76422e-08
2.25177e-09
4.70505e-08
2.16944e-09
4.64534e-08
2.09152e-09
4.58543e-08
2.01382e-09
4.52541e-08
1.9414e-09
4.46563e-08
1.86924e-09
4.4061e-08
1.80281e-09
4.34714e-08
1.7366e-09
4.28873e-08
1.67597e-09
4.23114e-08
1.61512e-09
4.17431e-08
1.56033e-09
4.1185e-08
1.50382e-09
4.06355e-08
1.4545e-09
4.0098e-08
1.40197e-09
3.95696e-08
1.35728e-09
3.90542e-08
1.30886e-09
3.85482e-08
1.268e-09
3.80555e-08
1.22311e-09
3.75724e-08
1.18654e-09
3.71029e-08
1.14389e-09
3.66424e-08
1.11187e-09
3.61961e-08
1.07124e-09
3.57578e-08
1.04277e-09
3.53339e-08
1.00462e-09
3.49172e-08
9.79282e-10
3.45151e-08
9.42699e-10
3.41193e-08
9.21143e-10
3.37382e-08
8.85384e-10
3.33622e-08
8.67386e-10
3.30013e-08
8.32721e-10
3.26442e-08
8.1747e-10
3.23024e-08
7.84457e-10
3.19634e-08
7.7246e-10
3.16394e-08
7.39527e-10
3.13168e-08
7.32571e-10
3.10098e-08
7.00487e-10
3.07022e-08
6.96563e-10
3.0409e-08
6.69837e-10
3.01141e-08
6.6948e-10
6.53618e-10
5.4824e-08
2.97336e-09
-5.47833e-08
5.50935e-08
3.75337e-09
5.54803e-08
4.54057e-09
5.58068e-08
5.01704e-09
5.60778e-08
5.18452e-09
5.63349e-08
5.17794e-09
5.65655e-08
5.07899e-09
5.67315e-08
4.87371e-09
5.6805e-08
4.56636e-09
5.67894e-08
4.20057e-09
5.67114e-08
3.84428e-09
5.65963e-08
3.5459e-09
5.64542e-08
3.32159e-09
5.62892e-08
3.15246e-09
5.61028e-08
3.02349e-09
5.58988e-08
2.91688e-09
5.56774e-08
2.8284e-09
5.54401e-08
2.7479e-09
5.51856e-08
2.67574e-09
5.49148e-08
2.60521e-09
5.46267e-08
2.53986e-09
5.43232e-08
2.47303e-09
5.40031e-08
2.41158e-09
5.36695e-08
2.34744e-09
5.33211e-08
2.28983e-09
5.29615e-08
2.22884e-09
5.25891e-08
2.17512e-09
5.2208e-08
2.11773e-09
5.18165e-08
2.06749e-09
5.14184e-08
2.01318e-09
5.1012e-08
1.96677e-09
5.06015e-08
1.9143e-09
5.01842e-08
1.87182e-09
4.97655e-08
1.82069e-09
4.93413e-08
1.78147e-09
4.89178e-08
1.73236e-09
4.84904e-08
1.69534e-09
4.80654e-08
1.64814e-09
4.7638e-08
1.61397e-09
4.72146e-08
1.56721e-09
4.67895e-08
1.53699e-09
4.63706e-08
1.49013e-09
4.59503e-08
1.46312e-09
4.55377e-08
1.41718e-09
4.51243e-08
1.39268e-09
4.47198e-08
1.34726e-09
4.43148e-08
1.32609e-09
4.392e-08
1.28019e-09
4.35245e-08
1.26291e-09
4.31407e-08
1.21656e-09
4.27559e-08
1.20224e-09
4.23831e-08
1.15725e-09
4.201e-08
1.14554e-09
4.16493e-08
1.10028e-09
4.12872e-08
1.09469e-09
4.09388e-08
1.04888e-09
4.05879e-08
1.04744e-09
4.025e-08
1.00776e-09
3.9909e-08
1.01041e-09
9.8074e-10
5.78035e-08
2.92211e-09
-5.77522e-08
5.80016e-08
3.5552e-09
5.83357e-08
4.20648e-09
5.8664e-08
4.68877e-09
5.89402e-08
4.90828e-09
5.91869e-08
4.93126e-09
5.9416e-08
4.8499e-09
5.96067e-08
4.68297e-09
5.97342e-08
4.43894e-09
5.97935e-08
4.14121e-09
5.97999e-08
3.83795e-09
5.97771e-08
3.56869e-09
5.97373e-08
3.3614e-09
5.96866e-08
3.20309e-09
5.96252e-08
3.08488e-09
5.9556e-08
2.98608e-09
5.94784e-08
2.90608e-09
5.9394e-08
2.83226e-09
5.93007e-08
2.76901e-09
5.91996e-08
2.70636e-09
5.90877e-08
2.65174e-09
5.89668e-08
2.59398e-09
5.88337e-08
2.54462e-09
5.86913e-08
2.48984e-09
5.85363e-08
2.44487e-09
5.8372e-08
2.39312e-09
5.81951e-08
2.35198e-09
5.80093e-08
2.30358e-09
5.78112e-08
2.26556e-09
5.76048e-08
2.2196e-09
5.73863e-08
2.18526e-09
5.71605e-08
2.14008e-09
5.69228e-08
2.10959e-09
5.6679e-08
2.06446e-09
5.64237e-08
2.03675e-09
5.61633e-08
1.99277e-09
5.58923e-08
1.96635e-09
5.5617e-08
1.92344e-09
5.5332e-08
1.89899e-09
5.50441e-08
1.85509e-09
5.47467e-08
1.83438e-09
5.44483e-08
1.78857e-09
5.41409e-08
1.77055e-09
5.38335e-08
1.72451e-09
5.35184e-08
1.70781e-09
5.32042e-08
1.66146e-09
5.28829e-08
1.64737e-09
5.25641e-08
1.59895e-09
5.22386e-08
1.5885e-09
5.19169e-08
1.5382e-09
5.15896e-08
1.52957e-09
5.12659e-08
1.48091e-09
5.0938e-08
1.47343e-09
5.06149e-08
1.42345e-09
5.02871e-08
1.42242e-09
4.99655e-08
1.37054e-09
4.96394e-08
1.37356e-09
4.93186e-08
1.3285e-09
4.89941e-08
1.3349e-09
1.29892e-09
6.09109e-08
2.85996e-09
-6.08487e-08
6.10718e-08
3.39426e-09
6.13477e-08
3.93061e-09
6.16557e-08
4.38075e-09
6.19312e-08
4.63275e-09
6.21678e-08
4.6947e-09
6.23802e-08
4.63753e-09
6.25629e-08
4.50025e-09
6.26981e-08
4.30367e-09
6.27792e-08
4.06012e-09
6.28119e-08
3.80524e-09
6.28158e-08
3.56479e-09
6.28047e-08
3.37251e-09
6.27873e-08
3.22057e-09
6.27638e-08
3.10829e-09
6.27374e-08
3.01252e-09
6.27069e-08
2.93657e-09
6.26751e-08
2.86404e-09
6.26399e-08
2.80425e-09
6.26032e-08
2.74305e-09
6.25619e-08
2.69304e-09
6.25182e-08
2.63771e-09
6.24684e-08
2.5944e-09
6.24155e-08
2.54272e-09
6.23558e-08
2.50459e-09
6.22924e-08
2.45652e-09
6.22217e-08
2.42267e-09
6.21469e-08
2.37838e-09
6.20642e-08
2.34822e-09
6.19775e-08
2.30632e-09
6.18821e-08
2.28064e-09
6.17827e-08
2.23951e-09
6.1674e-08
2.21826e-09
6.15612e-08
2.17728e-09
6.14391e-08
2.15884e-09
6.13125e-08
2.11932e-09
6.11767e-08
2.1022e-09
6.10362e-08
2.06391e-09
6.08864e-08
2.0488e-09
6.07325e-08
2.00901e-09
6.05688e-08
1.99807e-09
6.04015e-08
1.95586e-09
6.02247e-08
1.94735e-09
6.00441e-08
1.9051e-09
5.98551e-08
1.89682e-09
5.96623e-08
1.85426e-09
5.94611e-08
1.84854e-09
5.9257e-08
1.80306e-09
5.90448e-08
1.80075e-09
5.88297e-08
1.75331e-09
5.86086e-08
1.75062e-09
5.83836e-08
1.70596e-09
5.8153e-08
1.704e-09
5.79195e-08
1.65699e-09
5.7681e-08
1.66089e-09
5.74398e-08
1.61176e-09
5.71945e-08
1.61887e-09
5.69454e-08
1.57758e-09
5.66932e-08
1.58713e-09
1.5543e-09
6.41571e-08
2.79336e-09
-6.40905e-08
6.42987e-08
3.25267e-09
6.45253e-08
3.70393e-09
6.48027e-08
4.1034e-09
6.50688e-08
4.36668e-09
6.52997e-08
4.46377e-09
6.54989e-08
4.43832e-09
6.56697e-08
4.32941e-09
6.58026e-08
4.17078e-09
6.58919e-08
3.97084e-09
6.59379e-08
3.75925e-09
6.59539e-08
3.54884e-09
6.59531e-08
3.37325e-09
6.59459e-08
3.22782e-09
6.59337e-08
3.12043e-09
6.59197e-08
3.02658e-09
6.59025e-08
2.95376e-09
6.58852e-08
2.88134e-09
6.58661e-08
2.82336e-09
6.58477e-08
2.76143e-09
6.58275e-08
2.71325e-09
6.58077e-08
2.6575e-09
6.57852e-08
2.61685e-09
6.57628e-08
2.56522e-09
6.57374e-08
2.52998e-09
6.57114e-08
2.48246e-09
6.56824e-08
2.45166e-09
6.56527e-08
2.4081e-09
6.56192e-08
2.38168e-09
6.55853e-08
2.34027e-09
6.55469e-08
2.31899e-09
6.55077e-08
2.27877e-09
6.54639e-08
2.26207e-09
6.54183e-08
2.22285e-09
6.53683e-08
2.20886e-09
6.53159e-08
2.17167e-09
6.52588e-08
2.15938e-09
6.51988e-08
2.12389e-09
6.51335e-08
2.11404e-09
6.50655e-08
2.07704e-09
6.49917e-08
2.0719e-09
6.49145e-08
2.03299e-09
6.48321e-08
2.02981e-09
6.47449e-08
1.99231e-09
6.46532e-08
1.98848e-09
6.45566e-08
1.95084e-09
6.44547e-08
1.95047e-09
6.43482e-08
1.90959e-09
6.42366e-08
1.91233e-09
6.41183e-08
1.87158e-09
6.39979e-08
1.87107e-09
6.38702e-08
1.83361e-09
6.37385e-08
1.83568e-09
6.35998e-08
1.79574e-09
6.34587e-08
1.80197e-09
6.33096e-08
1.76086e-09
6.31587e-08
1.76974e-09
6.29991e-08
1.73721e-09
6.28376e-08
1.74862e-09
1.72424e-09
6.75545e-08
2.72629e-09
-6.74874e-08
6.76823e-08
3.12481e-09
6.7874e-08
3.51229e-09
6.81175e-08
3.85984e-09
6.83662e-08
4.118e-09
6.85904e-08
4.23955e-09
6.87811e-08
4.24766e-09
6.89418e-08
4.16865e-09
6.90698e-08
4.04284e-09
6.91621e-08
3.87853e-09
6.92171e-08
3.70419e-09
6.92426e-08
3.52334e-09
6.92493e-08
3.36662e-09
6.92476e-08
3.22948e-09
6.92407e-08
3.12734e-09
6.92317e-08
3.03561e-09
6.92195e-08
2.96596e-09
6.92066e-08
2.8942e-09
6.91921e-08
2.83791e-09
6.91781e-08
2.77541e-09
6.91633e-08
2.72805e-09
6.91493e-08
2.67153e-09
6.91341e-08
2.632e-09
6.91194e-08
2.57996e-09
6.91038e-08
2.54553e-09
6.90883e-08
2.49798e-09
6.9072e-08
2.46794e-09
6.9056e-08
2.42408e-09
6.90387e-08
2.39907e-09
6.90221e-08
2.35685e-09
6.9004e-08
2.33711e-09
6.89859e-08
2.29683e-09
6.8967e-08
2.28101e-09
6.8947e-08
2.24283e-09
6.89264e-08
2.22944e-09
6.89045e-08
2.19356e-09
6.88816e-08
2.1823e-09
6.88571e-08
2.14836e-09
6.88311e-08
2.14003e-09
6.88036e-08
2.10459e-09
6.87743e-08
2.1012e-09
6.87423e-08
2.06496e-09
6.87097e-08
2.06238e-09
6.86724e-08
2.0296e-09
6.8635e-08
2.02594e-09
6.85935e-08
1.99233e-09
6.855e-08
1.99396e-09
6.85026e-08
1.95703e-09
6.84545e-08
1.96041e-09
6.83984e-08
1.92762e-09
6.83439e-08
1.92562e-09
6.82833e-08
1.8942e-09
6.82208e-08
1.8982e-09
6.81506e-08
1.86587e-09
6.80813e-08
1.87127e-09
6.80034e-08
1.83884e-09
6.79255e-08
1.84762e-09
6.7839e-08
1.82366e-09
6.77519e-08
1.83571e-09
1.81991e-09
7.11135e-08
2.66044e-09
-7.10476e-08
7.12298e-08
3.00853e-09
7.13966e-08
3.34542e-09
7.16085e-08
3.64798e-09
7.18354e-08
3.89105e-09
7.20489e-08
4.02613e-09
7.22328e-08
4.06374e-09
7.23861e-08
4.01536e-09
7.25089e-08
3.92e-09
7.26014e-08
3.78606e-09
7.26625e-08
3.64309e-09
7.26961e-08
3.48971e-09
7.27099e-08
3.35285e-09
7.27132e-08
3.22618e-09
7.27104e-08
3.13013e-09
7.27048e-08
3.04118e-09
7.26961e-08
2.97472e-09
7.26857e-08
2.90452e-09
7.26736e-08
2.85008e-09
7.2661e-08
2.78797e-09
7.26481e-08
2.74101e-09
7.26353e-08
2.68427e-09
7.26223e-08
2.64507e-09
7.26091e-08
2.59315e-09
7.25962e-08
2.55842e-09
7.25829e-08
2.51124e-09
7.25699e-08
2.48091e-09
7.25572e-08
2.43678e-09
7.25442e-08
2.41213e-09
7.25319e-08
2.36913e-09
7.25197e-08
2.34932e-09
7.25072e-08
2.30935e-09
7.24959e-08
2.29224e-09
7.24834e-08
2.25539e-09
7.24722e-08
2.24056e-09
7.246e-08
2.20579e-09
7.24487e-08
2.19363e-09
7.24364e-08
2.16067e-09
7.24245e-08
2.1519e-09
7.24117e-08
2.11741e-09
7.23995e-08
2.11337e-09
7.23849e-08
2.07956e-09
7.23727e-08
2.07461e-09
7.23561e-08
2.04612e-09
7.23416e-08
2.04052e-09
7.23246e-08
2.00932e-09
7.23073e-08
2.01123e-09
7.22872e-08
1.97715e-09
7.22696e-08
1.97799e-09
7.22447e-08
1.9525e-09
7.22224e-08
1.94794e-09
7.2197e-08
1.91964e-09
7.2171e-08
1.92415e-09
7.21388e-08
1.89813e-09
7.2109e-08
1.90104e-09
7.20727e-08
1.87509e-09
7.2037e-08
1.88337e-09
7.19953e-08
1.86539e-09
7.19536e-08
1.87733e-09
1.86759e-09
7.48439e-08
2.59628e-09
-7.47797e-08
7.495e-08
2.90238e-09
7.50977e-08
3.19772e-09
7.52824e-08
3.4633e-09
7.54864e-08
3.68711e-09
7.56851e-08
3.82735e-09
7.58614e-08
3.88749e-09
7.60089e-08
3.86784e-09
7.61275e-08
3.80138e-09
7.62188e-08
3.69481e-09
7.62834e-08
3.57851e-09
7.63233e-08
3.44978e-09
7.63438e-08
3.33234e-09
7.63521e-08
3.2179e-09
7.63532e-08
3.12898e-09
7.63507e-08
3.04372e-09
7.6345e-08
2.98043e-09
7.6337e-08
2.91251e-09
7.6327e-08
2.86009e-09
7.63156e-08
2.79934e-09
7.6304e-08
2.75266e-09
7.62918e-08
2.69641e-09
7.62798e-08
2.6571e-09
7.6267e-08
2.60592e-09
7.62551e-08
2.57035e-09
7.62425e-08
2.5239e-09
7.62304e-08
2.49295e-09
7.62185e-08
2.44875e-09
7.62066e-08
2.42401e-09
7.61951e-08
2.38063e-09
7.61845e-08
2.35991e-09
7.61731e-08
2.32078e-09
7.61638e-08
2.30147e-09
7.61531e-08
2.26614e-09
7.61444e-08
2.24929e-09
7.61347e-08
2.2155e-09
7.61264e-08
2.2019e-09
7.61175e-08
2.16957e-09
7.61096e-08
2.15977e-09
7.61011e-08
2.12594e-09
7.60942e-08
2.12032e-09
7.6085e-08
2.08877e-09
7.60791e-08
2.0805e-09
7.60698e-08
2.05539e-09
7.60626e-08
2.04774e-09
7.60544e-08
2.01753e-09
7.60464e-08
2.0192e-09
7.60363e-08
1.98725e-09
7.60298e-08
1.98444e-09
7.60181e-08
1.96428e-09
7.60079e-08
1.95813e-09
7.59968e-08
1.93075e-09
7.5986e-08
1.93495e-09
7.59706e-08
1.91349e-09
7.59576e-08
1.91407e-09
7.59408e-08
1.89184e-09
7.59242e-08
1.90005e-09
7.59039e-08
1.88564e-09
7.5884e-08
1.89723e-09
1.89091e-09
7.87553e-08
2.53411e-09
-7.86932e-08
7.88524e-08
2.80525e-09
7.89841e-08
3.06612e-09
7.9146e-08
3.30133e-09
7.93277e-08
3.50547e-09
7.95096e-08
3.64538e-09
7.96762e-08
3.72095e-09
7.98181e-08
3.72593e-09
7.99332e-08
3.68621e-09
8.00228e-08
3.60523e-09
8.0089e-08
3.51232e-09
8.01333e-08
3.40547e-09
8.01595e-08
3.30612e-09
8.01727e-08
3.20471e-09
8.01777e-08
3.12396e-09
8.01781e-08
3.04338e-09
8.01752e-08
2.98333e-09
8.01695e-08
2.91823e-09
8.01616e-08
2.86792e-09
8.01517e-08
2.8093e-09
8.01413e-08
2.76301e-09
8.01299e-08
2.70781e-09
8.01187e-08
2.66827e-09
8.01065e-08
2.61816e-09
8.00951e-08
2.58172e-09
8.0083e-08
2.53601e-09
8.00714e-08
2.50453e-09
8.00598e-08
2.46035e-09
8.00485e-08
2.43531e-09
8.00372e-08
2.39193e-09
8.00272e-08
2.36996e-09
8.00161e-08
2.33183e-09
8.00073e-08
2.31031e-09
7.99972e-08
2.27625e-09
7.99889e-08
2.25755e-09
7.998e-08
2.22448e-09
7.99723e-08
2.20956e-09
7.99644e-08
2.1775e-09
7.99574e-08
2.16674e-09
7.995e-08
2.13334e-09
7.99442e-08
2.12605e-09
7.99367e-08
2.09634e-09
7.9932e-08
2.08516e-09
7.99252e-08
2.06221e-09
7.99197e-08
2.0532e-09
7.99141e-08
2.02321e-09
7.99088e-08
2.02443e-09
7.99019e-08
1.99415e-09
7.98981e-08
1.98828e-09
7.98914e-08
1.971e-09
7.9885e-08
1.96454e-09
7.98782e-08
1.93747e-09
7.98723e-08
1.94091e-09
7.98636e-08
1.92221e-09
7.9856e-08
1.92165e-09
7.98466e-08
1.90123e-09
7.9837e-08
1.90964e-09
7.98252e-08
1.89747e-09
7.98135e-08
1.90888e-09
1.90418e-09
8.28577e-08
2.47437e-09
-8.27979e-08
8.29465e-08
2.71643e-09
8.3064e-08
2.94857e-09
8.32067e-08
3.15861e-09
8.33678e-08
3.34445e-09
8.35323e-08
3.48085e-09
8.36872e-08
3.56602e-09
8.38225e-08
3.59068e-09
8.39342e-08
3.5745e-09
8.40221e-08
3.51734e-09
8.40887e-08
3.44574e-09
8.41357e-08
3.35842e-09
8.41662e-08
3.27561e-09
8.41839e-08
3.18709e-09
8.41926e-08
3.1152e-09
8.41957e-08
3.04027e-09
8.41954e-08
2.9837e-09
8.41918e-08
2.92176e-09
8.41861e-08
2.87367e-09
8.41778e-08
2.8176e-09
8.41688e-08
2.77201e-09
8.41583e-08
2.71826e-09
8.4148e-08
2.67857e-09
8.41366e-08
2.62962e-09
8.41257e-08
2.5926e-09
8.41143e-08
2.54742e-09
8.41032e-08
2.51564e-09
8.4092e-08
2.47155e-09
8.40812e-08
2.44607e-09
8.40702e-08
2.40296e-09
8.40604e-08
2.37972e-09
8.40499e-08
2.3424e-09
8.4041e-08
2.31914e-09
8.40314e-08
2.28584e-09
8.40233e-08
2.26572e-09
8.40147e-08
2.23304e-09
8.40072e-08
2.21711e-09
8.39997e-08
2.185e-09
8.39929e-08
2.17351e-09
8.39859e-08
2.14034e-09
8.39803e-08
2.13161e-09
8.39735e-08
2.10314e-09
8.39687e-08
2.08998e-09
8.39629e-08
2.06801e-09
8.39579e-08
2.05824e-09
8.39526e-08
2.02844e-09
8.39482e-08
2.02886e-09
8.39425e-08
1.99981e-09
8.39385e-08
1.99229e-09
8.39338e-08
1.97578e-09
8.39286e-08
1.96966e-09
8.39228e-08
1.94333e-09
8.39178e-08
1.94585e-09
8.39117e-08
1.92834e-09
8.39055e-08
1.92784e-09
8.38983e-08
1.90842e-09
8.38911e-08
1.9169e-09
8.38822e-08
1.90638e-09
8.38731e-08
1.91796e-09
1.91391e-09
8.71611e-08
2.41761e-09
-8.71043e-08
8.7242e-08
2.63547e-09
8.7347e-08
2.84361e-09
8.7473e-08
3.03256e-09
8.76153e-08
3.20215e-09
8.77628e-08
3.33336e-09
8.79049e-08
3.4239e-09
8.80321e-08
3.4635e-09
8.81396e-08
3.46705e-09
8.82255e-08
3.43138e-09
8.82918e-08
3.3795e-09
8.83403e-08
3.3099e-09
8.83737e-08
3.24219e-09
8.83949e-08
3.16589e-09
8.84071e-08
3.10303e-09
8.84128e-08
3.0345e-09
8.84147e-08
2.9818e-09
8.84133e-08
2.92324e-09
8.84095e-08
2.87746e-09
8.8403e-08
2.82408e-09
8.83954e-08
2.7796e-09
8.83861e-08
2.72758e-09
8.83767e-08
2.68797e-09
8.83662e-08
2.64009e-09
8.83559e-08
2.60292e-09
8.83453e-08
2.55804e-09
8.83347e-08
2.5262e-09
8.8324e-08
2.48223e-09
8.83138e-08
2.45624e-09
8.83033e-08
2.41352e-09
8.82938e-08
2.38923e-09
8.82839e-08
2.35231e-09
8.82751e-08
2.32792e-09
8.8266e-08
2.29489e-09
8.8258e-08
2.27373e-09
8.82499e-08
2.24121e-09
8.82424e-08
2.22453e-09
8.82353e-08
2.19214e-09
8.82287e-08
2.18011e-09
8.8222e-08
2.14703e-09
8.82165e-08
2.13713e-09
8.82103e-08
2.10932e-09
8.82052e-08
2.0951e-09
8.81999e-08
2.07327e-09
8.81951e-08
2.063e-09
8.81899e-08
2.03368e-09
8.81857e-08
2.03303e-09
8.81809e-08
2.00467e-09
8.81763e-08
1.99691e-09
8.81722e-08
1.97982e-09
8.81678e-08
1.97407e-09
8.8162e-08
1.94911e-09
8.81571e-08
1.95077e-09
8.81521e-08
1.93334e-09
8.81463e-08
1.93365e-09
8.81396e-08
1.91508e-09
8.81332e-08
1.92334e-09
8.81254e-08
1.91418e-09
8.81171e-08
1.92623e-09
1.92241e-09
9.16762e-08
2.36459e-09
-9.16232e-08
9.17494e-08
2.5623e-09
9.18428e-08
2.75013e-09
9.19542e-08
2.92121e-09
9.20796e-08
3.07673e-09
9.2211e-08
3.20201e-09
9.23397e-08
3.29519e-09
9.24575e-08
3.34569e-09
9.25594e-08
3.36509e-09
9.26427e-08
3.3481e-09
9.2708e-08
3.31426e-09
9.2757e-08
3.26086e-09
9.27922e-08
3.20703e-09
9.28159e-08
3.14216e-09
9.28308e-08
3.08807e-09
9.2839e-08
3.0263e-09
9.2843e-08
2.97788e-09
9.28433e-08
2.92288e-09
9.28413e-08
2.87949e-09
9.28366e-08
2.82876e-09
9.28305e-08
2.78574e-09
9.28224e-08
2.73564e-09
9.2814e-08
2.69636e-09
9.28047e-08
2.64945e-09
9.27951e-08
2.61253e-09
9.27853e-08
2.56781e-09
9.27754e-08
2.53608e-09
9.27654e-08
2.49224e-09
9.27559e-08
2.46576e-09
9.2746e-08
2.42344e-09
9.27368e-08
2.39837e-09
9.27276e-08
2.36152e-09
9.27191e-08
2.33646e-09
9.27106e-08
2.30338e-09
9.27028e-08
2.28145e-09
9.26951e-08
2.24894e-09
9.2688e-08
2.23168e-09
9.26812e-08
2.19892e-09
9.26748e-08
2.18646e-09
9.26685e-08
2.15337e-09
9.26631e-08
2.14257e-09
9.26574e-08
2.11496e-09
9.26522e-08
2.1003e-09
9.26473e-08
2.07818e-09
9.26429e-08
2.06744e-09
9.26377e-08
2.03886e-09
9.26337e-08
2.03704e-09
9.26294e-08
2.00895e-09
9.26245e-08
2.00179e-09
9.26207e-08
1.9836e-09
9.26168e-08
1.978e-09
9.26112e-08
1.95472e-09
9.26062e-08
1.95573e-09
9.26017e-08
1.93783e-09
9.25962e-08
1.93916e-09
9.25898e-08
1.9215e-09
9.25838e-08
1.92938e-09
9.25766e-08
1.92137e-09
9.25688e-08
1.93403e-09
1.93028e-09
9.79408e-08
2.31525e-09
-9.78915e-08
9.80075e-08
2.49564e-09
9.80918e-08
2.66579e-09
9.81915e-08
2.82152e-09
9.83034e-08
2.96489e-09
9.84213e-08
3.0841e-09
9.85381e-08
3.17836e-09
9.86471e-08
3.23674e-09
9.87435e-08
3.26865e-09
9.88241e-08
3.26754e-09
9.88884e-08
3.24995e-09
9.89378e-08
3.21147e-09
9.89742e-08
3.17062e-09
9.89998e-08
3.11653e-09
9.9017e-08
3.07086e-09
9.90275e-08
3.01585e-09
9.90333e-08
2.97207e-09
9.90354e-08
2.92078e-09
9.9035e-08
2.87991e-09
9.9032e-08
2.83175e-09
9.90272e-08
2.7905e-09
9.90204e-08
2.74242e-09
9.9013e-08
2.70375e-09
9.90047e-08
2.65775e-09
9.89959e-08
2.62139e-09
9.89869e-08
2.57679e-09
9.89777e-08
2.5453e-09
9.89683e-08
2.50159e-09
9.89594e-08
2.47469e-09
9.89501e-08
2.43271e-09
9.89414e-08
2.4071e-09
9.89328e-08
2.37012e-09
9.89246e-08
2.34467e-09
9.89166e-08
2.31139e-09
9.89092e-08
2.28885e-09
9.89018e-08
2.25626e-09
9.8895e-08
2.23853e-09
9.88885e-08
2.20537e-09
9.88825e-08
2.19253e-09
9.88765e-08
2.15937e-09
9.88712e-08
2.14787e-09
9.88659e-08
2.12019e-09
9.88608e-08
2.10541e-09
9.88562e-08
2.08285e-09
9.8852e-08
2.07161e-09
9.8847e-08
2.04387e-09
9.88431e-08
2.04092e-09
9.88392e-08
2.01286e-09
9.88344e-08
2.00664e-09
9.88307e-08
1.98724e-09
9.8827e-08
1.98171e-09
9.88217e-08
1.96004e-09
9.88168e-08
1.96057e-09
9.88125e-08
1.94217e-09
9.88073e-08
1.94441e-09
9.88011e-08
1.92765e-09
9.87953e-08
1.93517e-09
9.87885e-08
1.92817e-09
9.87811e-08
1.94141e-09
1.93769e-09
1.10021e-07
2.2653e-09
-1.09971e-07
1.10085e-07
2.43105e-09
1.10165e-07
2.58604e-09
1.10258e-07
2.72848e-09
1.10362e-07
2.86127e-09
1.10471e-07
2.97448e-09
1.1058e-07
3.06914e-09
1.10684e-07
3.1334e-09
1.10777e-07
3.17542e-09
1.10857e-07
3.18796e-09
1.10921e-07
3.18513e-09
1.10972e-07
3.16064e-09
1.11011e-07
3.13228e-09
1.11038e-07
3.08867e-09
1.11058e-07
3.05127e-09
1.11071e-07
3.00296e-09
1.11079e-07
2.96415e-09
1.11083e-07
2.91679e-09
1.11084e-07
2.87866e-09
1.11083e-07
2.83312e-09
1.11079e-07
2.79393e-09
1.11074e-07
2.74804e-09
1.11067e-07
2.71027e-09
1.1106e-07
2.66524e-09
1.11051e-07
2.62966e-09
1.11043e-07
2.58524e-09
1.11034e-07
2.55408e-09
1.11025e-07
2.51046e-09
1.11017e-07
2.48326e-09
1.11008e-07
2.44157e-09
1.10999e-07
2.41553e-09
1.10991e-07
2.37841e-09
1.10983e-07
2.35265e-09
1.10975e-07
2.31914e-09
1.10968e-07
2.29609e-09
1.10961e-07
2.26334e-09
1.10954e-07
2.24522e-09
1.10948e-07
2.21167e-09
1.10942e-07
2.19845e-09
1.10936e-07
2.16521e-09
1.10931e-07
2.15311e-09
1.10926e-07
2.12522e-09
1.10921e-07
2.11044e-09
1.10916e-07
2.08741e-09
1.10912e-07
2.07566e-09
1.10908e-07
2.04875e-09
1.10904e-07
2.0447e-09
1.109e-07
2.01667e-09
1.10895e-07
2.01138e-09
1.10892e-07
1.99083e-09
1.10888e-07
1.98544e-09
1.10883e-07
1.96516e-09
1.10878e-07
1.96525e-09
1.10874e-07
1.94658e-09
1.10869e-07
1.94956e-09
1.10863e-07
1.93361e-09
1.10857e-07
1.94092e-09
1.1085e-07
1.93484e-09
1.10843e-07
1.94854e-09
1.94485e-09
1.23582e-07
2.21681e-09
-1.23534e-07
1.23644e-07
2.36982e-09
1.23718e-07
2.51206e-09
1.23803e-07
2.64351e-09
1.23896e-07
2.7676e-09
1.23995e-07
2.87552e-09
1.24094e-07
2.97003e-09
1.24189e-07
3.03851e-09
1.24276e-07
3.08841e-09
1.24352e-07
3.11214e-09
1.24415e-07
3.12199e-09
1.24466e-07
3.1101e-09
1.24505e-07
3.09337e-09
1.24534e-07
3.05972e-09
1.24555e-07
3.0303e-09
1.24569e-07
2.98835e-09
1.24579e-07
2.95452e-09
1.24585e-07
2.91104e-09
1.24587e-07
2.87576e-09
1.24588e-07
2.83285e-09
1.24586e-07
2.79577e-09
1.24582e-07
2.75218e-09
1.24576e-07
2.71553e-09
1.2457e-07
2.67162e-09
1.24563e-07
2.63696e-09
1.24555e-07
2.59279e-09
1.24547e-07
2.56207e-09
1.24539e-07
2.51849e-09
1.24531e-07
2.49109e-09
1.24523e-07
2.44967e-09
1.24516e-07
2.42326e-09
1.24508e-07
2.38607e-09
1.24501e-07
2.36006e-09
1.24493e-07
2.32629e-09
1.24487e-07
2.3029e-09
1.2448e-07
2.26989e-09
1.24474e-07
2.25145e-09
1.24468e-07
2.21758e-09
1.24462e-07
2.20391e-09
1.24457e-07
2.17065e-09
1.24452e-07
2.15802e-09
1.24447e-07
2.12984e-09
1.24443e-07
2.11516e-09
1.24438e-07
2.09163e-09
1.24435e-07
2.07946e-09
1.2443e-07
2.05329e-09
1.24427e-07
2.04819e-09
1.24423e-07
2.02027e-09
1.24419e-07
2.01575e-09
1.24415e-07
1.99414e-09
1.24412e-07
1.98911e-09
1.24407e-07
1.96985e-09
1.24403e-07
1.9695e-09
1.24398e-07
1.95097e-09
1.24394e-07
1.95444e-09
1.24388e-07
1.93905e-09
1.24383e-07
1.94648e-09
1.24376e-07
1.94111e-09
1.2437e-07
1.95513e-09
1.95155e-09
1.38809e-07
2.17231e-09
-1.38764e-07
1.38864e-07
2.31441e-09
1.3893e-07
2.44608e-09
1.39005e-07
2.56876e-09
1.39086e-07
2.68616e-09
1.39172e-07
2.79007e-09
1.39258e-07
2.88398e-09
1.39341e-07
2.95531e-09
1.39418e-07
3.01104e-09
1.39487e-07
3.04346e-09
1.39546e-07
3.06354e-09
1.39593e-07
3.06229e-09
1.39631e-07
3.05582e-09
1.39659e-07
3.03119e-09
1.3968e-07
3.00925e-09
1.39696e-07
2.97309e-09
1.39706e-07
2.94393e-09
1.39713e-07
2.90405e-09
1.39718e-07
2.87145e-09
1.39719e-07
2.83105e-09
1.39719e-07
2.79596e-09
1.39717e-07
2.75458e-09
1.39713e-07
2.71919e-09
1.39708e-07
2.6765e-09
1.39702e-07
2.64289e-09
1.39696e-07
2.599e-09
1.39689e-07
2.56881e-09
1.39683e-07
2.52524e-09
1.39676e-07
2.49773e-09
1.39669e-07
2.45658e-09
1.39663e-07
2.42978e-09
1.39656e-07
2.39265e-09
1.3965e-07
2.36643e-09
1.39644e-07
2.33238e-09
1.39638e-07
2.30888e-09
1.39632e-07
2.27549e-09
1.39627e-07
2.25682e-09
1.39621e-07
2.22275e-09
1.39617e-07
2.20855e-09
1.39612e-07
2.17536e-09
1.39608e-07
2.16229e-09
1.39604e-07
2.13375e-09
1.396e-07
2.11928e-09
1.39596e-07
2.0952e-09
1.39593e-07
2.08274e-09
1.39589e-07
2.05719e-09
1.39586e-07
2.05111e-09
1.39583e-07
2.02344e-09
1.39579e-07
2.0195e-09
1.39576e-07
1.99688e-09
1.39573e-07
1.99251e-09
1.39569e-07
1.97388e-09
1.39566e-07
1.97299e-09
1.39561e-07
1.95506e-09
1.39557e-07
1.95877e-09
1.39553e-07
1.94357e-09
1.39547e-07
1.95162e-09
1.39542e-07
1.94665e-09
1.39536e-07
1.96071e-09
1.95749e-09
1.55904e-07
2.13425e-09
-1.55866e-07
1.55951e-07
2.26752e-09
1.56006e-07
2.39111e-09
1.56067e-07
2.50746e-09
1.56133e-07
2.62031e-09
1.56201e-07
2.72159e-09
1.5627e-07
2.81474e-09
1.56338e-07
2.88779e-09
1.56402e-07
2.94751e-09
1.56459e-07
2.98613e-09
1.56509e-07
3.01376e-09
1.5655e-07
3.0207e-09
1.56584e-07
3.02249e-09
1.56609e-07
3.00528e-09
1.56629e-07
2.9898e-09
1.56643e-07
2.9586e-09
1.56654e-07
2.93344e-09
1.56661e-07
2.89657e-09
1.56667e-07
2.86623e-09
1.5667e-07
2.82801e-09
1.56671e-07
2.79454e-09
1.56671e-07
2.75513e-09
1.56669e-07
2.72094e-09
1.56666e-07
2.67947e-09
1.56662e-07
2.64691e-09
1.56657e-07
2.60333e-09
1.56653e-07
2.57374e-09
1.56648e-07
2.53016e-09
1.56643e-07
2.50257e-09
1.56638e-07
2.46171e-09
1.56633e-07
2.43452e-09
1.56628e-07
2.39757e-09
1.56623e-07
2.37119e-09
1.56619e-07
2.33684e-09
1.56614e-07
2.31345e-09
1.5661e-07
2.27963e-09
1.56606e-07
2.26081e-09
1.56602e-07
2.22672e-09
1.56599e-07
2.21189e-09
1.56595e-07
2.17891e-09
1.56592e-07
2.16548e-09
1.56589e-07
2.13655e-09
1.56586e-07
2.1224e-09
1.56584e-07
2.09774e-09
1.56581e-07
2.08516e-09
1.56578e-07
2.0601e-09
1.56576e-07
2.05311e-09
1.56574e-07
2.02586e-09
1.56571e-07
2.02227e-09
1.56569e-07
1.99873e-09
1.56566e-07
1.99524e-09
1.56563e-07
1.97694e-09
1.56561e-07
1.97534e-09
1.56558e-07
1.95846e-09
1.56554e-07
1.96217e-09
1.56551e-07
1.94672e-09
1.56547e-07
1.95592e-09
1.56542e-07
1.95118e-09
1.56538e-07
1.9647e-09
1.96216e-09
1.75099e-07
2.10479e-09
-1.75069e-07
1.75134e-07
2.23254e-09
1.75173e-07
2.35188e-09
1.75216e-07
2.46479e-09
1.75261e-07
2.57512e-09
1.75308e-07
2.67492e-09
1.75355e-07
2.76728e-09
1.75402e-07
2.84118e-09
1.75446e-07
2.90317e-09
1.75487e-07
2.94549e-09
1.75523e-07
2.9778e-09
1.75553e-07
2.98998e-09
1.75579e-07
2.99726e-09
1.75599e-07
2.98509e-09
1.75614e-07
2.97418e-09
1.75626e-07
2.94657e-09
1.75636e-07
2.92425e-09
1.75643e-07
2.88956e-09
1.75648e-07
2.86075e-09
1.75652e-07
2.82411e-09
1.75655e-07
2.79174e-09
1.75656e-07
2.75382e-09
1.75656e-07
2.72054e-09
1.75656e-07
2.68006e-09