/*--------------------------------*- C++ -*----------------------------------*\
| =========                 |                                                 |
| \\      /  F ield         | OpenFOAM: The Open Source CFD Toolbox           |
|  \\    /   O peration     | Version:  2.3.0                                 |
|   \\  /    A nd           | Web:      www.OpenFOAM.org                      |
|    \\/     M anipulation  |                                                 |
\*---------------------------------------------------------------------------*/
FoamFile
{
    version     2.0;
    format      ascii;
    class       volVectorField;
    location    "0.8";
    object      U_0;
}
// * * * * * * * * * * * * * * * * * * * * * * * * * * * * * * * * * * * * * //

dimensions      [0 1 -1 0 0 0 0];

internalField   nonuniform List<vector> 
1650
(
(0.179796 0.00363172 0)
(0.159938 0.00494806 0)
(0.141187 0.00497913 0)
(0.122586 0.004485 0)
(0.104426 0.00390415 0)
(0.0874763 0.00323979 0)
(0.0728729 0.00245935 0)
(0.0613149 0.00155601 0)
(0.0528708 0.000737353 0)
(0.0469808 0.000200686 0)
(0.042905 -5.56356e-05 0)
(0.040063 -0.000140159 0)
(0.0380255 -0.000139771 0)
(0.0364806 -0.000103432 0)
(0.0352042 -5.56369e-05 0)
(0.0340647 -1.22218e-05 0)
(0.0329947 1.9664e-05 0)
(0.0319706 3.94822e-05 0)
(0.0309886 4.95292e-05 0)
(0.0300544 5.2918e-05 0)
(0.0291728 5.23993e-05 0)
(0.028347 4.97573e-05 0)
(0.0275768 4.64606e-05 0)
(0.0268596 4.2919e-05 0)
(0.0261922 3.9666e-05 0)
(0.0255691 3.66487e-05 0)
(0.0249874 3.39681e-05 0)
(0.0244403 3.16302e-05 0)
(0.0239274 2.94654e-05 0)
(0.023441 2.75999e-05 0)
(0.0229838 2.59153e-05 0)
(0.0225464 2.43109e-05 0)
(0.0221353 2.2979e-05 0)
(0.0217383 2.16385e-05 0)
(0.0213664 2.04482e-05 0)
(0.0210032 1.94399e-05 0)
(0.0206654 1.82886e-05 0)
(0.0203307 1.74965e-05 0)
(0.0200231 1.65341e-05 0)
(0.0197124 1.57553e-05 0)
(0.0194322 1.50029e-05 0)
(0.0191414 1.43415e-05 0)
(0.0188865 1.3575e-05 0)
(0.018612 1.31703e-05 0)
(0.0183807 1.23577e-05 0)
(0.018119 1.20949e-05 0)
(0.0179105 1.13698e-05 0)
(0.0176579 1.11527e-05 0)
(0.0174721 1.04746e-05 0)
(0.0172245 1.04665e-05 0)
(0.017062 9.58404e-06 0)
(0.0168153 9.92806e-06 0)
(0.0166766 9.01669e-06 0)
(0.0164256 9.3232e-06 0)
(0.0163133 8.56767e-06 0)
(0.0160507 9.17119e-06 0)
(0.0159678 7.98378e-06 0)
(0.0156848 9.22118e-06 0)
(0.0156373 7.8597e-06 0)
(0.015311 1.10862e-05 0)
(0.193391 0.00633537 0)
(0.19169 0.008925 0)
(0.189143 0.0096613 0)
(0.185162 0.00947971 0)
(0.179562 0.00904261 0)
(0.172516 0.00842084 0)
(0.164628 0.00754047 0)
(0.15642 0.00634829 0)
(0.14835 0.00499941 0)
(0.140681 0.00374482 0)
(0.13351 0.00274822 0)
(0.126909 0.00202253 0)
(0.120917 0.00151838 0)
(0.115545 0.00118675 0)
(0.110736 0.000978087 0)
(0.106418 0.000846341 0)
(0.102513 0.000757562 0)
(0.0989599 0.000690902 0)
(0.0957071 0.000635009 0)
(0.0927136 0.00058453 0)
(0.08995 0.000537838 0)
(0.0873884 0.000493869 0)
(0.0850107 0.000453767 0)
(0.0827945 0.000416854 0)
(0.0807283 0.000384091 0)
(0.078791 0.000354576 0)
(0.0769781 0.000328517 0)
(0.0752662 0.000305318 0)
(0.0736606 0.000284548 0)
(0.0721323 0.00026592 0)
(0.0706982 0.000249325 0)
(0.0693216 0.000233783 0)
(0.0680316 0.000220255 0)
(0.0667819 0.000207219 0)
(0.0656157 0.000195652 0)
(0.0644725 0.0001849 0)
(0.0634151 0.000174693 0)
(0.0623615 0.000165606 0)
(0.0614012 0.000156962 0)
(0.0604233 0.000148749 0)
(0.0595504 0.000141571 0)
(0.0586362 0.000134371 0)
(0.057844 0.000127871 0)
(0.0569818 0.000121967 0)
(0.0562662 0.000115975 0)
(0.0554447 0.000110897 0)
(0.0548036 0.000105726 0)
(0.0540119 0.000101133 0)
(0.0534447 9.66163e-05 0)
(0.0526712 9.28847e-05 0)
(0.0521803 8.82769e-05 0)
(0.0514117 8.57802e-05 0)
(0.0510011 8.15912e-05 0)
(0.0502228 7.91322e-05 0)
(0.0498986 7.59874e-05 0)
(0.0490922 7.4434e-05 0)
(0.0488644 7.08393e-05 0)
(0.0480043 7.11773e-05 0)
(0.0478896 6.78071e-05 0)
(0.0469374 7.40291e-05 0)
(0.194119 0.00582277 0)
(0.194354 0.00811109 0)
(0.195172 0.00937178 0)
(0.195958 0.00975136 0)
(0.196158 0.00972625 0)
(0.195506 0.00947146 0)
(0.194002 0.00893584 0)
(0.191731 0.00808475 0)
(0.188832 0.00702316 0)
(0.185458 0.00594554 0)
(0.181747 0.00501834 0)
(0.177839 0.00429143 0)
(0.17386 0.00373714 0)
(0.169912 0.00331356 0)
(0.166037 0.00298217 0)
(0.162251 0.00271112 0)
(0.158561 0.00247978 0)
(0.154964 0.00227512 0)
(0.151469 0.00209053 0)
(0.148069 0.00192172 0)
(0.144782 0.00176768 0)
(0.141597 0.00162577 0)
(0.138533 0.00149734 0)
(0.135573 0.00137977 0)
(0.132741 0.00127455 0)
(0.130009 0.00117895 0)
(0.127406 0.00109375 0)
(0.124892 0.00101659 0)
(0.122507 0.000947561 0)
(0.120194 0.000884618 0)
(0.118012 0.00082862 0)
(0.115881 0.000776215 0)
(0.113883 0.000730214 0)
(0.111915 0.000686239 0)
(0.110084 0.0006475 0)
(0.108258 0.000610619 0)
(0.106583 0.000577355 0)
(0.104878 0.000545835 0)
(0.103346 0.000517762 0)
(0.101747 0.000489781 0)
(0.100346 0.000466218 0)
(0.0988378 0.000441548 0)
(0.0975611 0.000420967 0)
(0.0961265 0.00039961 0)
(0.0949717 0.000381482 0)
(0.0935939 0.000362463 0)
(0.0925599 0.000347082 0)
(0.0912233 0.000329545 0)
(0.0903106 0.000316545 0)
(0.0889989 0.000300964 0)
(0.0882125 0.000289072 0)
(0.0869043 0.000275746 0)
(0.0862541 0.000265858 0)
(0.0849281 0.000252856 0)
(0.0844213 0.000245874 0)
(0.0830548 0.000234464 0)
(0.0827062 0.000228253 0)
(0.0812636 0.000220371 0)
(0.0810926 0.000215488 0)
(0.0795382 0.000217128 0)
(0.194904 0.00548142 0)
(0.195102 0.00720609 0)
(0.195946 0.00850815 0)
(0.197247 0.00911639 0)
(0.198571 0.00925599 0)
(0.199612 0.00912576 0)
(0.200253 0.00876183 0)
(0.200442 0.00815805 0)
(0.20017 0.00737309 0)
(0.199442 0.00653329 0)
(0.19832 0.00577198 0)
(0.196883 0.00515665 0)
(0.195243 0.00468654 0)
(0.193469 0.0043215 0)
(0.191622 0.00402802 0)
(0.189702 0.00377919 0)
(0.187738 0.00356091 0)
(0.185704 0.00336156 0)
(0.183635 0.00317676 0)
(0.181498 0.00300138 0)
(0.179341 0.00283595 0)
(0.177127 0.00267651 0)
(0.174917 0.00252678 0)
(0.172661 0.00238278 0)
(0.170434 0.00224894 0)
(0.168171 0.00212093 0)
(0.165961 0.0020029 0)
(0.163715 0.0018904 0)
(0.161551 0.00178705 0)
(0.159343 0.00168816 0)
(0.157243 0.00159842 0)
(0.155089 0.00151103 0)
(0.153068 0.00143315 0)
(0.150978 0.00135605 0)
(0.149047 0.00128798 0)
(0.147022 0.00122032 0)
(0.145194 0.00116054 0)
(0.143231 0.00110064 0)
(0.141513 0.00104897 0)
(0.139612 0.000994866 0)
(0.138004 0.000950572 0)
(0.136162 0.000901739 0)
(0.134671 0.000863101 0)
(0.132875 0.000819423 0)
(0.131509 0.000785637 0)
(0.129746 0.000745684 0)
(0.128512 0.000717155 0)
(0.126772 0.000679821 0)
(0.125674 0.00065568 0)
(0.123943 0.000621419 0)
(0.122994 0.000600475 0)
(0.121247 0.000569145 0)
(0.120463 0.000552225 0)
(0.118682 0.000522023 0)
(0.11807 0.000509853 0)
(0.116234 0.000482092 0)
(0.115813 0.000472408 0)
(0.113885 0.000450053 0)
(0.113676 0.000443047 0)
(0.111625 0.00043182 0)
(0.195552 0.00532432 0)
(0.195742 0.00666432 0)
(0.196403 0.00785797 0)
(0.19751 0.00855199 0)
(0.198809 0.00877106 0)
(0.200018 0.00867817 0)
(0.201027 0.00836994 0)
(0.201764 0.00788036 0)
(0.202233 0.00725325 0)
(0.20239 0.00656809 0)
(0.202281 0.0059253 0)
(0.201919 0.00538805 0)
(0.201415 0.00497327 0)
(0.200787 0.0046521 0)
(0.200125 0.00439818 0)
(0.199388 0.00418381 0)
(0.198641 0.00399868 0)
(0.197805 0.00382925 0)
(0.196958 0.0036738 0)
(0.196002 0.00352467 0)
(0.195038 0.00338447 0)
(0.193956 0.00324609 0)
(0.192878 0.00311605 0)
(0.191678 0.00298652 0)
(0.190503 0.0028662 0)
(0.189196 0.00274584 0)
(0.187942 0.00263526 0)
(0.186543 0.00252442 0)
(0.185229 0.00242302 0)
(0.183753 0.00232088 0)
(0.182395 0.00222865 0)
(0.180858 0.00213371 0)
(0.179473 0.00205025 0)
(0.177885 0.00196185 0)
(0.176493 0.00188613 0)
(0.174861 0.00180446 0)
(0.173482 0.00173524 0)
(0.171812 0.00165973 0)
(0.170461 0.00159735 0)
(0.168763 0.00152635 0)
(0.167451 0.00147125 0)
(0.16573 0.00140419 0)
(0.164476 0.00135519 0)
(0.162727 0.00129261 0)
(0.161549 0.00124895 0)
(0.159771 0.00118984 0)
(0.158682 0.00115199 0)
(0.156873 0.00109556 0)
(0.155887 0.00106323 0)
(0.154037 0.00100932 0)
(0.153176 0.000981664 0)
(0.15127 0.000931084 0)
(0.150551 0.000907831 0)
(0.148583 0.000859253 0)
(0.148015 0.000842243 0)
(0.145968 0.000795842 0)
(0.145576 0.000783053 0)
(0.143422 0.000743466 0)
(0.143224 0.000734635 0)
(0.140943 0.000705913 0)
(0.196094 0.00520421 0)
(0.196285 0.00629781 0)
(0.196831 0.00732796 0)
(0.197724 0.00802729 0)
(0.198852 0.00830766 0)
(0.199954 0.00826092 0)
(0.200942 0.00799907 0)
(0.201708 0.00758372 0)
(0.202295 0.00706174 0)
(0.202634 0.00648375 0)
(0.202805 0.00592554 0)
(0.202761 0.00543965 0)
(0.202642 0.00505497 0)
(0.202405 0.00475263 0)
(0.202195 0.00451692 0)
(0.201911 0.00431792 0)
(0.201687 0.00414964 0)
(0.201374 0.00399475 0)
(0.20112 0.00385606 0)
(0.20075 0.00372207 0)
(0.200443 0.0035998 0)
(0.199997 0.00347708 0)
(0.199626 0.00336568 0)
(0.199096 0.00325101 0)
(0.198662 0.00314881 0)
(0.198044 0.00304172 0)
(0.197549 0.00294774 0)
(0.196843 0.00284837 0)
(0.196291 0.00276148 0)
(0.195498 0.0026687 0)
(0.194894 0.00258912 0)
(0.194015 0.00250078 0)
(0.193365 0.00242846 0)
(0.192402 0.00234356 0)
(0.191716 0.00227724 0)
(0.190667 0.00219673 0)
(0.189956 0.00213458 0)
(0.188824 0.00205828 0)
(0.188097 0.00200091 0)
(0.186886 0.00192668 0)
(0.186152 0.00187557 0)
(0.184863 0.00180255 0)
(0.184138 0.00175651 0)
(0.182769 0.00168612 0)
(0.182068 0.00164401 0)
(0.180619 0.00157593 0)
(0.179953 0.00153846 0)
(0.178426 0.00147141 0)
(0.177811 0.00143936 0)
(0.176199 0.00137323 0)
(0.175654 0.00134519 0)
(0.173953 0.00128256 0)
(0.173491 0.00125749 0)
(0.171701 0.00119642 0)
(0.171332 0.00117841 0)
(0.169445 0.00111817 0)
(0.169191 0.00110489 0)
(0.167193 0.00105221 0)
(0.167064 0.00104305 0)
(0.16495 0.000999959 0)
(0.196571 0.00508625 0)
(0.196754 0.00600066 0)
(0.197225 0.00687254 0)
(0.197945 0.00752192 0)
(0.198903 0.00783988 0)
(0.199864 0.0078485 0)
(0.200779 0.00764314 0)
(0.201488 0.00729342 0)
(0.202073 0.00685486 0)
(0.202422 0.00636401 0)
(0.202666 0.00587951 0)
(0.202699 0.00543906 0)
(0.202704 0.00507961 0)
(0.202572 0.00478798 0)
(0.202505 0.00456111 0)
(0.202344 0.0043669 0)
(0.20229 0.00420527 0)
(0.202129 0.00405366 0)
(0.202087 0.00392106 0)
(0.201909 0.00379045 0)
(0.201859 0.0036757 0)
(0.201647 0.0035577 0)
(0.20158 0.00345591 0)
(0.201326 0.00334693 0)
(0.20124 0.00325555 0)
(0.200939 0.0031548 0)
(0.200833 0.00307207 0)
(0.20048 0.00297939 0)
(0.200353 0.00290393 0)
(0.199944 0.00281753 0)
(0.199796 0.00274985 0)
(0.199326 0.00266721 0)
(0.199157 0.00260707 0)
(0.198621 0.00252706 0)
(0.198434 0.00247245 0)
(0.197828 0.00239647 0)
(0.197624 0.00234523 0)
(0.196945 0.00227291 0)
(0.196725 0.00222568 0)
(0.195971 0.00215416 0)
(0.195739 0.00211295 0)
(0.194907 0.00204113 0)
(0.19467 0.00200425 0)
(0.193755 0.00193422 0)
(0.193518 0.00189959 0)
(0.192521 0.00183142 0)
(0.19229 0.00180056 0)
(0.191208 0.00173189 0)
(0.19099 0.00170581 0)
(0.189819 0.00163702 0)
(0.189625 0.001613 0)
(0.188368 0.0015485 0)
(0.1882 0.00152589 0)
(0.186855 0.00146166 0)
(0.18672 0.00144599 0)
(0.185287 0.00138152 0)
(0.185197 0.00136993 0)
(0.183671 0.00131379 0)
(0.183627 0.00130533 0)
(0.182012 0.00125738 0)
(0.196998 0.00496586 0)
(0.197168 0.00573931 0)
(0.197582 0.0064767 0)
(0.198166 0.00705538 0)
(0.198978 0.00738597 0)
(0.199798 0.00744629 0)
(0.200632 0.00730231 0)
(0.201277 0.00701507 0)
(0.201841 0.00664754 0)
(0.202173 0.00622898 0)
(0.202443 0.00581102 0)
(0.202502 0.00541529 0)
(0.202561 0.00508307 0)
(0.202465 0.00480262 0)
(0.20245 0.00458319 0)
(0.202318 0.00439104 0)
(0.202316 0.00423332 0)
(0.202189 0.00408152 0)
(0.202208 0.00395148 0)
(0.202076 0.00381969 0)
(0.202104 0.00370774 0)
(0.201956 0.00358909 0)
(0.201987 0.00349145 0)
(0.201818 0.00338268 0)
(0.20185 0.00329618 0)
(0.201659 0.00319645 0)
(0.201694 0.00311896 0)
(0.201478 0.00302775 0)
(0.201514 0.00295823 0)
(0.201269 0.0028731 0)
(0.201309 0.00281224 0)
(0.20103 0.00273111 0)
(0.201071 0.00267818 0)
(0.200756 0.0026003 0)
(0.200796 0.0025527 0)
(0.200443 0.00247943 0)
(0.200482 0.00243534 0)
(0.200085 0.00236611 0)
(0.200121 0.00232611 0)
(0.199677 0.00225745 0)
(0.199711 0.00222386 0)
(0.199214 0.00215481 0)
(0.199248 0.00212508 0)
(0.198697 0.00205867 0)
(0.198725 0.00202979 0)
(0.198121 0.00196543 0)
(0.198146 0.00194052 0)
(0.197481 0.00187495 0)
(0.197507 0.00185446 0)
(0.196779 0.0017895 0)
(0.1968 0.00176817 0)
(0.196018 0.00170856 0)
(0.196038 0.00168909 0)
(0.195189 0.00162874 0)
(0.195206 0.00161511 0)
(0.194301 0.00155465 0)
(0.194316 0.0015441 0)
(0.19335 0.00149281 0)
(0.193361 0.00148485 0)
(0.192338 0.00144084 0)
(0.19738 0.0048442 0)
(0.197536 0.0055034 0)
(0.197902 0.00613051 0)
(0.198382 0.00663819 0)
(0.199069 0.00696284 0)
(0.199763 0.0070632 0)
(0.200509 0.00697852 0)
(0.201092 0.00675123 0)
(0.201627 0.00644685 0)
(0.201945 0.00608944 0)
(0.202223 0.00572999 0)
(0.2023 0.00537762 0)
(0.20239 0.00507445 0)
(0.202321 0.00480774 0)
(0.202331 0.0045967 0)
(0.202219 0.00440687 0)
(0.202231 0.00425288 0)
(0.202119 0.00410093 0)
(0.20215 0.00397301 0)
(0.202036 0.00383976 0)
(0.202076 0.00372906 0)
(0.201953 0.00360874 0)
(0.201999 0.00351286 0)
(0.201863 0.00340293 0)
(0.201915 0.00331809 0)
(0.201769 0.00321787 0)
(0.201827 0.003142 0)
(0.20167 0.00305025 0)
(0.201737 0.00298306 0)
(0.201565 0.00289682 0)
(0.201643 0.0028387 0)
(0.201455 0.00275713 0)
(0.201542 0.0027065 0)
(0.20134 0.00262942 0)
(0.20143 0.0025837 0)
(0.201213 0.00251176 0)
(0.201309 0.00246992 0)
(0.201072 0.00240245 0)
(0.201173 0.00236515 0)
(0.200913 0.00229819 0)
(0.20102 0.0022677 0)
(0.200734 0.00220121 0)
(0.200842 0.00217357 0)
(0.200533 0.00211173 0)
(0.200635 0.00208404 0)
(0.200303 0.00202389 0)
(0.200404 0.0020016 0)
(0.200038 0.00193992 0)
(0.200139 0.00192125 0)
(0.199743 0.0018632 0)
(0.199827 0.00184083 0)
(0.199408 0.00178741 0)
(0.199488 0.00176976 0)
(0.199029 0.00171588 0)
(0.199092 0.00170181 0)
(0.198608 0.00164883 0)
(0.198654 0.00163773 0)
(0.198137 0.00159395 0)
(0.198164 0.00158585 0)
(0.197617 0.00154938 0)
(0.197721 0.00472365 0)
(0.197866 0.00528865 0)
(0.198188 0.00582668 0)
(0.198589 0.00627037 0)
(0.199168 0.00657814 0)
(0.199755 0.00670428 0)
(0.200409 0.00667085 0)
(0.200934 0.00649963 0)
(0.201432 0.00625275 0)
(0.201739 0.00594907 0)
(0.202015 0.00564055 0)
(0.202111 0.00532914 0)
(0.202215 0.00505535 0)
(0.202177 0.00480498 0)
(0.202199 0.00460382 0)
(0.202111 0.00441765 0)
(0.202125 0.0042677 0)
(0.202031 0.00411677 0)
(0.202056 0.00399113 0)
(0.201962 0.00385768 0)
(0.201993 0.00374766 0)
(0.201893 0.00362642 0)
(0.201927 0.00353111 0)
(0.20182 0.00342061 0)
(0.201856 0.00333562 0)
(0.201744 0.00323534 0)
(0.201785 0.00315924 0)
(0.201668 0.00306682 0)
(0.201717 0.00300023 0)
(0.201592 0.00291259 0)
(0.201652 0.0028548 0)
(0.201521 0.00277299 0)
(0.201586 0.00272142 0)
(0.201454 0.00264546 0)
(0.201522 0.00259844 0)
(0.201386 0.00252762 0)
(0.20146 0.00248504 0)
(0.201317 0.00241869 0)
(0.201397 0.00238121 0)
(0.201245 0.00231526 0)
(0.201332 0.00228457 0)
(0.20117 0.00222057 0)
(0.201259 0.002191 0)
(0.201094 0.00213375 0)
(0.201175 0.0021042 0)
(0.201004 0.00204708 0)
(0.201089 0.00202511 0)
(0.2009 0.00196648 0)
(0.200986 0.00194603 0)
(0.200792 0.0018954 0)
(0.200859 0.00187001 0)
(0.200657 0.00182059 0)
(0.200726 0.00180353 0)
(0.200505 0.00175578 0)
(0.200556 0.00173929 0)
(0.200328 0.00169308 0)
(0.200366 0.00168093 0)
(0.20012 0.00164318 0)
(0.200142 0.00163456 0)
(0.199883 0.00160473 0)
(0.198024 0.00460571 0)
(0.198161 0.0050929 0)
(0.198441 0.00555841 0)
(0.198782 0.00594654 0)
(0.199269 0.00623229 0)
(0.199767 0.00637191 0)
(0.200331 0.00637873 0)
(0.200803 0.00625771 0)
(0.201255 0.00606329 0)
(0.201554 0.0058085 0)
(0.201817 0.00554485 0)
(0.201934 0.00527146 0)
(0.202042 0.00502626 0)
(0.202035 0.00479403 0)
(0.202061 0.00460421 0)
(0.202001 0.00442343 0)
(0.20201 0.00427789 0)
(0.201939 0.00412934 0)
(0.201953 0.00400619 0)
(0.201881 0.00387401 0)
(0.201897 0.00376444 0)
(0.201823 0.00364339 0)
(0.201838 0.00354798 0)
(0.201759 0.00343791 0)
(0.201773 0.00335172 0)
(0.201692 0.00325206 0)
(0.201708 0.00317499 0)
(0.201624 0.0030822 0)
(0.201647 0.00301549 0)
(0.201558 0.00292692 0)
(0.201589 0.00286817 0)
(0.2015 0.00278696 0)
(0.201532 0.00273277 0)
(0.201446 0.00265849 0)
(0.20148 0.00260895 0)
(0.201395 0.00253923 0)
(0.201433 0.00249488 0)
(0.201347 0.00242928 0)
(0.20139 0.00239057 0)
(0.201301 0.00232536 0)
(0.20135 0.00229295 0)
(0.201258 0.0022314 0)
(0.201307 0.00219825 0)
(0.201221 0.00214493 0)
(0.201264 0.00211283 0)
(0.201177 0.00205718 0)
(0.201226 0.00203492 0)
(0.201129 0.00197843 0)
(0.201179 0.00195436 0)
(0.201088 0.00190991 0)
(0.201124 0.00188205 0)
(0.201027 0.00183395 0)
(0.20107 0.00181682 0)
(0.200967 0.00177385 0)
(0.200994 0.00175458 0)
(0.20089 0.00171268 0)
(0.200914 0.00170006 0)
(0.200797 0.00166601 0)
(0.20081 0.0016568 0)
(0.20069 0.0016311 0)
(0.198295 0.00449153 0)
(0.198424 0.00491448 0)
(0.198666 0.00532003 0)
(0.198958 0.00566077 0)
(0.199367 0.00592295 0)
(0.199792 0.00606739 0)
(0.200272 0.00610357 0)
(0.200692 0.00602542 0)
(0.201096 0.00587802 0)
(0.201384 0.00566829 0)
(0.201631 0.00544497 0)
(0.201763 0.00520669 0)
(0.201872 0.00498864 0)
(0.201891 0.00477539 0)
(0.201922 0.00459804 0)
(0.201885 0.00442432 0)
(0.201891 0.00428363 0)
(0.201841 0.00413861 0)
(0.201845 0.00401813 0)
(0.201793 0.00388844 0)
(0.201797 0.00377929 0)
(0.201744 0.0036594 0)
(0.201745 0.00356359 0)
(0.201687 0.00345467 0)
(0.201685 0.00336698 0)
(0.201627 0.00326814 0)
(0.201626 0.00319005 0)
(0.201565 0.00309707 0)
(0.201569 0.00302992 0)
(0.201506 0.00294099 0)
(0.201514 0.00288062 0)
(0.201453 0.00280052 0)
(0.201461 0.00274333 0)
(0.201405 0.00267067 0)
(0.201414 0.00261863 0)
(0.201359 0.00254976 0)
(0.201372 0.00250365 0)
(0.201317 0.00243842 0)
(0.201335 0.00239842 0)
(0.20128 0.00233369 0)
(0.201301 0.00229933 0)
(0.201246 0.00223986 0)
(0.201268 0.00220316 0)
(0.201218 0.00215267 0)
(0.201238 0.00211865 0)
(0.201187 0.00206329 0)
(0.201212 0.00204072 0)
(0.201158 0.0019859 0)
(0.201181 0.00195815 0)
(0.201134 0.00191766 0)
(0.201152 0.00188891 0)
(0.201097 0.00184081 0)
(0.201119 0.00182311 0)
(0.201067 0.00178345 0)
(0.201078 0.00176233 0)
(0.201023 0.00172251 0)
(0.201038 0.00170998 0)
(0.200972 0.00167819 0)
(0.200978 0.00166858 0)
(0.200914 0.00164485 0)
(0.198538 0.00438206 0)
(0.198658 0.00475182 0)
(0.198866 0.00510732 0)
(0.199118 0.00540793 0)
(0.19946 0.00564709 0)
(0.199822 0.00579087 0)
(0.200229 0.00584726 0)
(0.200599 0.00580426 0)
(0.200955 0.00569781 0)
(0.201227 0.00552934 0)
(0.201458 0.0053428 0)
(0.201599 0.00513692 0)
(0.201708 0.00494449 0)
(0.201745 0.0047502 0)
(0.20178 0.004586 0)
(0.201763 0.00442073 0)
(0.201769 0.00428536 0)
(0.201734 0.00414473 0)
(0.201734 0.00402715 0)
(0.201697 0.00390071 0)
(0.201693 0.00379225 0)
(0.201655 0.00367416 0)
(0.201648 0.003578 0)
(0.201606 0.0034705 0)
(0.201595 0.0033816 0)
(0.201551 0.00328338 0)
(0.201542 0.00320452 0)
(0.201494 0.00311144 0)
(0.201489 0.00304364 0)
(0.201441 0.00295479 0)
(0.201437 0.00289266 0)
(0.201393 0.00281358 0)
(0.201388 0.00275384 0)
(0.201347 0.00268224 0)
(0.201346 0.00262818 0)
(0.201305 0.00255982 0)
(0.201307 0.00251228 0)
(0.201267 0.00244703 0)
(0.201272 0.00240602 0)
(0.201234 0.00234148 0)
(0.201241 0.00230538 0)
(0.201203 0.00224746 0)
(0.201212 0.00220805 0)
(0.201177 0.00215907 0)
(0.201187 0.00212402 0)
(0.201151 0.00206856 0)
(0.201163 0.00204539 0)
(0.201128 0.00199197 0)
(0.201138 0.00196169 0)
(0.201106 0.00192275 0)
(0.201118 0.00189426 0)
(0.20108 0.00184637 0)
(0.201089 0.00182767 0)
(0.201058 0.0017898 0)
(0.201062 0.00176821 0)
(0.201022 0.00172933 0)
(0.201034 0.00171685 0)
(0.200987 0.00168671 0)
(0.200989 0.00167705 0)
(0.200944 0.00165405 0)
(0.198756 0.00427815 0)
(0.198866 0.00460368 0)
(0.199044 0.0049173 0)
(0.199261 0.00518396 0)
(0.199547 0.00540168 0)
(0.199854 0.00554164 0)
(0.200198 0.00561122 0)
(0.200521 0.005596 0)
(0.200832 0.00552418 0)
(0.201083 0.00539266 0)
(0.201296 0.00523981 0)
(0.201438 0.00506378 0)
(0.201548 0.00489553 0)
(0.201597 0.00471971 0)
(0.201637 0.00456884 0)
(0.201634 0.00441307 0)
(0.201642 0.00428354 0)
(0.201619 0.00414789 0)
(0.201618 0.00403347 0)
(0.201591 0.00391064 0)
(0.201585 0.00380337 0)
(0.201556 0.00368747 0)
(0.201546 0.00359123 0)
(0.201514 0.00348515 0)
(0.201501 0.00339559 0)
(0.201464 0.00329768 0)
(0.201454 0.00321838 0)
(0.201414 0.00312523 0)
(0.201405 0.00305666 0)
(0.201366 0.00296808 0)
(0.201357 0.0029044 0)
(0.201322 0.00282591 0)
(0.201313 0.00276436 0)
(0.201279 0.00269319 0)
(0.201274 0.00263762 0)
(0.20124 0.00256943 0)
(0.201238 0.00252083 0)
(0.201206 0.00245522 0)
(0.201205 0.00241348 0)
(0.201176 0.00234897 0)
(0.201176 0.00231139 0)
(0.201147 0.00225441 0)
(0.201151 0.00221335 0)
(0.201122 0.00216475 0)
(0.201128 0.00212914 0)
(0.2011 0.0020739 0)
(0.201105 0.00204963 0)
(0.20108 0.00199718 0)
(0.201084 0.00196602 0)
(0.201057 0.0019268 0)
(0.201068 0.00189874 0)
(0.201036 0.00185195 0)
(0.201039 0.0018322 0)
(0.201016 0.00179467 0)
(0.201018 0.00177364 0)
(0.200984 0.00173551 0)
(0.200994 0.00172276 0)
(0.200955 0.00169393 0)
(0.200955 0.00168458 0)
(0.200918 0.00166174 0)
(0.198951 0.0041806 0)
(0.19905 0.00446944 0)
(0.199202 0.00474797 0)
(0.199387 0.00498594 0)
(0.199627 0.00518426 0)
(0.199886 0.00531864 0)
(0.200176 0.00539629 0)
(0.200453 0.00540226 0)
(0.200724 0.00535883 0)
(0.20095 0.00525949 0)
(0.201144 0.00513718 0)
(0.201283 0.00498847 0)
(0.201391 0.00484294 0)
(0.201448 0.00468498 0)
(0.201493 0.00454731 0)
(0.201499 0.00440161 0)
(0.201511 0.0042785 0)
(0.201496 0.0041482 0)
(0.201496 0.00403724 0)
(0.201476 0.00391813 0)
(0.20147 0.00381261 0)
(0.201447 0.0036992 0)
(0.201438 0.00360323 0)
(0.201412 0.00349847 0)
(0.2014 0.00340888 0)
(0.201369 0.00331103 0)
(0.201358 0.00323159 0)
(0.201324 0.00313838 0)
(0.201314 0.00306899 0)
(0.201282 0.00298076 0)
(0.201271 0.00291582 0)
(0.201241 0.00283745 0)
(0.201232 0.00277477 0)
(0.201202 0.00270354 0)
(0.201197 0.00264684 0)
(0.201167 0.00257859 0)
(0.201163 0.00252917 0)
(0.201136 0.00246305 0)
(0.201133 0.0024207 0)
(0.201109 0.00235616 0)
(0.201107 0.00231735 0)
(0.201082 0.00226071 0)
(0.201085 0.00221892 0)
(0.201058 0.00217001 0)
(0.201064 0.00213387 0)
(0.201039 0.00207932 0)
(0.201042 0.00205373 0)
(0.201021 0.00200164 0)
(0.201024 0.00197084 0)
(0.200998 0.00193057 0)
(0.201009 0.00190259 0)
(0.200982 0.00185743 0)
(0.200982 0.00183692 0)
(0.200963 0.00179892 0)
(0.200965 0.00177874 0)
(0.200933 0.00174152 0)
(0.200942 0.00172831 0)
(0.200908 0.0017005 0)
(0.200908 0.00169163 0)
(0.200875 0.00166881 0)
(0.199127 0.00408942 0)
(0.199213 0.00434775 0)
(0.199343 0.00459676 0)
(0.199498 0.00481038 0)
(0.199698 0.00499149 0)
(0.199915 0.00511943 0)
(0.200158 0.00520155 0)
(0.200394 0.00522324 0)
(0.200626 0.00520244 0)
(0.200826 0.00513042 0)
(0.201001 0.00503534 0)
(0.201131 0.00491145 0)
(0.201236 0.0047872 0)
(0.201296 0.00464644 0)
(0.201344 0.00452176 0)
(0.201357 0.00438631 0)
(0.201373 0.00427016 0)
(0.201364 0.00414552 0)
(0.201366 0.0040383 0)
(0.201351 0.00392296 0)
(0.201347 0.00381973 0)
(0.201329 0.00370907 0)
(0.201321 0.0036138 0)
(0.201299 0.00351028 0)
(0.20129 0.00342125 0)
(0.201263 0.00332342 0)
(0.201254 0.00324407 0)
(0.201224 0.00315083 0)
(0.201215 0.00308065 0)
(0.201187 0.00299275 0)
(0.201176 0.00292688 0)
(0.201151 0.00284829 0)
(0.201142 0.00278492 0)
(0.201116 0.00271336 0)
(0.201111 0.00265576 0)
(0.201085 0.00258734 0)
(0.201081 0.00253723 0)
(0.201058 0.00247057 0)
(0.201054 0.00242767 0)
(0.201033 0.00236299 0)
(0.201031 0.00232326 0)
(0.201009 0.00226653 0)
(0.201012 0.00222446 0)
(0.200987 0.00217509 0)
(0.200992 0.00213829 0)
(0.200971 0.00208457 0)
(0.200972 0.0020578 0)
(0.200954 0.00200567 0)
(0.200957 0.00197567 0)
(0.200933 0.00193423 0)
(0.200943 0.0019062 0)
(0.200919 0.00186259 0)
(0.200918 0.00184159 0)
(0.200902 0.00180302 0)
(0.200903 0.00178356 0)
(0.200875 0.00174721 0)
(0.200883 0.00173367 0)
(0.200852 0.00170671 0)
(0.200852 0.00169826 0)
(0.200824 0.00167543 0)
(0.199291 0.00400246 0)
(0.199364 0.00423452 0)
(0.199471 0.00445802 0)
(0.199598 0.00465059 0)
(0.199763 0.00481652 0)
(0.19994 0.00493789 0)
(0.200141 0.00502218 0)
(0.200338 0.00505558 0)
(0.200534 0.00505284 0)
(0.200706 0.00500396 0)
(0.20086 0.00493313 0)
(0.200978 0.00483195 0)
(0.201077 0.00472785 0)
(0.201136 0.00460383 0)
(0.201186 0.00449209 0)
(0.201204 0.00436697 0)
(0.201223 0.00425827 0)
(0.201219 0.00413959 0)
(0.201223 0.00403644 0)
(0.201212 0.00392491 0)
(0.20121 0.0038245 0)
(0.201196 0.00371682 0)
(0.20119 0.00362272 0)
(0.201172 0.00352053 0)
(0.201165 0.00343251 0)
(0.201142 0.00333485 0)
(0.201135 0.00325578 0)
(0.20111 0.00316257 0)
(0.201101 0.00309179 0)
(0.201078 0.0030041 0)
(0.201069 0.00293756 0)
(0.201046 0.00285863 0)
(0.201039 0.00279477 0)
(0.201016 0.00272284 0)
(0.201012 0.00266446 0)
(0.200989 0.0025958 0)
(0.200986 0.00254508 0)
(0.200966 0.00247787 0)
(0.200962 0.00243447 0)
(0.200944 0.00236959 0)
(0.200943 0.00232909 0)
(0.200923 0.00227212 0)
(0.200926 0.00222989 0)
(0.200904 0.00218 0)
(0.200909 0.0021426 0)
(0.200891 0.00208965 0)
(0.200891 0.00206171 0)
(0.200876 0.00200957 0)
(0.200879 0.0019804 0)
(0.200857 0.00193777 0)
(0.200865 0.0019098 0)
(0.200846 0.00186753 0)
(0.200844 0.00184602 0)
(0.20083 0.00180713 0)
(0.200832 0.00178833 0)
(0.200806 0.00175261 0)
(0.200814 0.00173882 0)
(0.200787 0.00171276 0)
(0.200787 0.00170462 0)
(0.200762 0.00168176 0)
(0.199444 0.00391819 0)
(0.199504 0.00412696 0)
(0.199589 0.00432821 0)
(0.19969 0.00450259 0)
(0.19982 0.00465542 0)
(0.199962 0.00477085 0)
(0.200123 0.00485622 0)
(0.200282 0.00489855 0)
(0.200443 0.00491048 0)
(0.200587 0.00488116 0)
(0.200718 0.00483168 0)
(0.20082 0.00475114 0)
(0.200909 0.00466593 0)
(0.200965 0.00455807 0)
(0.201013 0.00445914 0)
(0.201034 0.00434425 0)
(0.201055 0.00424331 0)
(0.201055 0.00413069 0)
(0.201061 0.00403189 0)
(0.201054 0.00392423 0)
(0.201054 0.00382689 0)
(0.201043 0.00372237 0)
(0.201039 0.00362978 0)
(0.201025 0.00352915 0)
(0.20102 0.00344241 0)
(0.201002 0.00334517 0)
(0.200996 0.00326661 0)
(0.200976 0.00317342 0)
(0.200969 0.00310228 0)
(0.20095 0.00301481 0)
(0.200943 0.00294766 0)
(0.200924 0.00286849 0)
(0.200919 0.00280419 0)
(0.200899 0.00273188 0)
(0.200896 0.0026729 0)
(0.200877 0.00260389 0)
(0.200874 0.00255265 0)
(0.200858 0.00248493 0)
(0.200854 0.002441 0)
(0.200839 0.00237595 0)
(0.200838 0.00233473 0)
(0.200821 0.00227744 0)
(0.200825 0.00223517 0)
(0.200806 0.00218468 0)
(0.200809 0.00214675 0)
(0.200795 0.00209454 0)
(0.200795 0.00206539 0)
(0.200782 0.00201331 0)
(0.200786 0.00198494 0)
(0.200767 0.0019411 0)
(0.200774 0.00191332 0)
(0.200758 0.00187221 0)
(0.200756 0.00185014 0)
(0.200744 0.00181111 0)
(0.200746 0.00179296 0)
(0.200724 0.00175777 0)
(0.200731 0.00174375 0)
(0.200708 0.00171853 0)
(0.200708 0.00171069 0)
(0.200687 0.00168783 0)
(0.199586 0.00383843 0)
(0.199632 0.00402698 0)
(0.199696 0.00420936 0)
(0.199771 0.00436869 0)
(0.19987 0.00451085 0)
(0.199978 0.00462146 0)
(0.200102 0.00470759 0)
(0.200225 0.00475675 0)
(0.200352 0.00478037 0)
(0.200466 0.00476703 0)
(0.200572 0.00473543 0)
(0.200657 0.00467283 0)
(0.200732 0.0046045 0)
(0.200782 0.00451146 0)
(0.200825 0.00442472 0)
(0.200846 0.00431945 0)
(0.200867 0.00422618 0)
(0.20087 0.00411942 0)
(0.200877 0.00402496 0)
(0.200873 0.00392117 0)
(0.200875 0.00382682 0)
(0.200867 0.0037255 0)
(0.200866 0.00363461 0)
(0.200855 0.00353571 0)
(0.200853 0.00345046 0)
(0.200839 0.00335376 0)
(0.200835 0.00327597 0)
(0.20082 0.00318288 0)
(0.200815 0.00311153 0)
(0.2008 0.00302437 0)
(0.200795 0.00295667 0)
(0.20078 0.00287741 0)
(0.200777 0.00281274 0)
(0.200761 0.00274004 0)
(0.200759 0.0026807 0)
(0.200744 0.00261126 0)
(0.200742 0.00255961 0)
(0.20073 0.0024915 0)
(0.200727 0.00244692 0)
(0.200715 0.00238184 0)
(0.200715 0.00233998 0)
(0.200701 0.00228226 0)
(0.200704 0.00224006 0)
(0.20069 0.00218895 0)
(0.200692 0.00215053 0)
(0.200682 0.00209901 0)
(0.200682 0.0020687 0)
(0.200671 0.00201672 0)
(0.200675 0.00198902 0)
(0.20066 0.00194409 0)
(0.200665 0.00191665 0)
(0.200653 0.00187635 0)
(0.200651 0.00185378 0)
(0.200642 0.00181492 0)
(0.200644 0.00179709 0)
(0.200626 0.00176237 0)
(0.200632 0.00174845 0)
(0.200614 0.0017237 0)
(0.200613 0.00171611 0)
(0.200598 0.00169336 0)
(0.199714 0.00376701 0)
(0.199746 0.00393875 0)
(0.19979 0.00410592 0)
(0.199842 0.00425346 0)
(0.199911 0.00438765 0)
(0.199988 0.00449467 0)
(0.200077 0.00458156 0)
(0.200165 0.00463593 0)
(0.200257 0.00466846 0)
(0.200341 0.00466743 0)
(0.20042 0.00464983 0)
(0.200484 0.00460171 0)
(0.200543 0.00454747 0)
(0.200583 0.00446695 0)
(0.200619 0.00439105 0)
(0.200638 0.00429426 0)
(0.200656 0.00420799 0)
(0.200661 0.00410659 0)
(0.200669 0.00401612 0)
(0.200668 0.00391598 0)
(0.200671 0.00382432 0)
(0.200666 0.00372597 0)
(0.200667 0.00363684 0)
(0.20066 0.00353967 0)
(0.20066 0.00345601 0)
(0.20065 0.00335989 0)
(0.200649 0.00328309 0)
(0.200639 0.00319018 0)
(0.200636 0.00311881 0)
(0.200626 0.00303203 0)
(0.200623 0.00296387 0)
(0.200612 0.00288472 0)
(0.20061 0.00281981 0)
(0.200599 0.0027467 0)
(0.200598 0.00268734 0)
(0.200588 0.00261736 0)
(0.200586 0.00256548 0)
(0.200579 0.00249716 0)
(0.200577 0.00245187 0)
(0.200569 0.00238686 0)
(0.200569 0.00234455 0)
(0.200559 0.00228628 0)
(0.200562 0.00224435 0)
(0.200552 0.00219254 0)
(0.200554 0.00215385 0)
(0.200547 0.00210278 0)
(0.200547 0.00207149 0)
(0.200539 0.00201971 0)
(0.200543 0.00199243 0)
(0.200532 0.00194649 0)
(0.200536 0.0019198 0)
(0.200529 0.00187974 0)
(0.200527 0.00185663 0)
(0.20052 0.00181849 0)
(0.200523 0.00180065 0)
(0.200509 0.00176586 0)
(0.200513 0.00175287 0)
(0.200502 0.00172812 0)
(0.200501 0.00172058 0)
(0.20049 0.00169799 0)
(0.19983 0.00371026 0)
(0.199848 0.00386901 0)
(0.199874 0.00402498 0)
(0.199903 0.00416406 0)
(0.199945 0.00429289 0)
(0.199991 0.00439761 0)
(0.200045 0.00448501 0)
(0.200099 0.0045431 0)
(0.200156 0.00458172 0)
(0.200208 0.00458914 0)
(0.200259 0.00458129 0)
(0.2003 0.0045435 0)