/*--------------------------------*- C++ -*----------------------------------*\
| =========                 |                                                 |
| \\      /  F ield         | OpenFOAM: The Open Source CFD Toolbox           |
|  \\    /   O peration     | Version:  2.3.0                                 |
|   \\  /    A nd           | Web:      www.OpenFOAM.org                      |
|    \\/     M anipulation  |                                                 |
\*---------------------------------------------------------------------------*/
FoamFile
{
    version     2.0;
    format      ascii;
    class       volScalarField;
    location    "0.15";
    object      p;
}
// * * * * * * * * * * * * * * * * * * * * * * * * * * * * * * * * * * * * * //

dimensions      [0 2 -2 0 0 0 0];

internalField   nonuniform List<scalar> 
2700
(
0.00793518
0.00581095
0.00468635
0.00418548
0.00380193
0.00342523
0.00307944
0.00278037
0.00252621
0.00231221
0.00213505
0.00199156
0.00187779
0.00178903
0.00172033
0.001667
0.00162485
0.0015904
0.00156092
0.00153441
0.00150946
0.00148515
0.00146093
0.0014365
0.00141173
0.00138662
0.00136119
0.00133554
0.00130974
0.00128389
0.0012581
0.00123245
0.00120706
0.00118203
0.0011575
0.00113363
0.0011106
0.00108863
0.00106797
0.00104887
0.00103155
0.00101618
0.00100283
0.000991458
0.000981869
0.000973743
0.000966688
0.000960051
0.000953499
0.000946531
0.000938781
0.000930042
0.000920267
0.000909448
0.000897582
0.000884651
0.00087065
0.000855528
0.000839344
0.000822184
0.000804219
0.000785642
0.000766629
0.00074733
0.000727864
0.000708322
0.000688764
0.000669233
0.000649752
0.000630332
0.000610972
0.000591664
0.000572395
0.000553146
0.000533898
0.000514628
0.000495313
0.000475931
0.000456461
0.000436881
0.000417177
0.000397333
0.000377338
0.000357183
0.000336862
0.00031637
0.000295704
0.000274864
0.000253848
0.000232657
0.000211293
0.000189757
0.000168052
0.000146177
0.000124135
0.000101926
7.95527e-05
5.70156e-05
3.43169e-05
1.14601e-05
0.00680812
0.00557889
0.00466314
0.00417743
0.00380748
0.00344598
0.00310853
0.00281272
0.00255943
0.00234497
0.00216642
0.00202095
0.00190484
0.00181357
0.00174236
0.00168659
0.00164216
0.00160564
0.00157432
0.00154618
0.00151981
0.00149428
0.00146901
0.00144368
0.00141814
0.00139236
0.00136636
0.0013402
0.00131396
0.00128771
0.00126156
0.00123558
0.00120989
0.00118458
0.00115978
0.00113565
0.00111236
0.00109014
0.00106924
0.0010499
0.00103235
0.00101678
0.00100326
0.000991731
0.000982021
0.000973815
0.000966652
0.000960063
0.000953456
0.000946479
0.000938745
0.000930024
0.000920266
0.000909464
0.000897613
0.000884694
0.000870711
0.000855639
0.000839466
0.000822306
0.000804336
0.000785749
0.000766726
0.000747416
0.000727938
0.000708384
0.000688815
0.000669275
0.000649785
0.000630357
0.00061099
0.000591677
0.000572403
0.000553152
0.000533901
0.00051463
0.000495313
0.000475931
0.000456459
0.000436881
0.000417176
0.000397332
0.000377337
0.000357182
0.000336861
0.00031637
0.000295704
0.000274864
0.000253848
0.000232657
0.000211293
0.000189758
0.000168052
0.000146177
0.000124135
0.000101926
7.95526e-05
5.70155e-05
3.43168e-05
1.14594e-05
0.00602754
0.00536958
0.00464132
0.00415343
0.00378694
0.00344512
0.00312483
0.00284016
0.00259387
0.0023833
0.00220588
0.00205923
0.00194028
0.00184518
0.00176971
0.00170971
0.00166137
0.00162144
0.00158727
0.00155685
0.00152869
0.00150179
0.00147548
0.00144936
0.00142321
0.00139695
0.00137056
0.00134408
0.00131755
0.00129105
0.00126466
0.00123846
0.00121255
0.00118703
0.00116203
0.00113769
0.0011142
0.00109179
0.00107068
0.00105115
0.00103343
0.00101769
0.00100401
0.000992357
0.000982537
0.00097423
0.000966988
0.000960358
0.000953791
0.000946778
0.00093895
0.000930156
0.000920351
0.000909524
0.000897676
0.000884805
0.000870848
0.000855772
0.000839588
0.000822419
0.00080444
0.000785845
0.000766813
0.000747494
0.000728007
0.000708443
0.000688866
0.000669316
0.000649819
0.000630384
0.000611011
0.000591692
0.000572414
0.000553159
0.000533906
0.000514633
0.000495316
0.000475933
0.000456462
0.000436883
0.000417179
0.000397336
0.000377341
0.000357186
0.000336864
0.000316372
0.000295706
0.000274866
0.00025385
0.000232659
0.000211295
0.000189759
0.000168053
0.000146177
0.000124135
0.000101926
7.95526e-05
5.70151e-05
3.43159e-05
1.14571e-05
0.00547748
0.00510106
0.00454205
0.00408916
0.00374079
0.00342664
0.00313111
0.00286367
0.00262888
0.00242569
0.00225214
0.00210636
0.00198596
0.0018878
0.00180833
0.00174393
0.0016912
0.00164716
0.00160932
0.00157572
0.00154489
0.00151576
0.00148763
0.00146002
0.00143267
0.00140542
0.00137822
0.00135105
0.00132395
0.00129697
0.00127016
0.00124359
0.00121735
0.00119153
0.00116626
0.00114167
0.00111795
0.00109532
0.001074
0.00105426
0.00103632
0.00102035
0.00100643
0.000994518
0.000984428
0.000975839
0.000968322
0.000961405
0.000954558
0.00094731
0.000939328
0.000930443
0.000920583
0.000909726
0.000897855
0.000884948
0.000870954
0.000855844
0.000839647
0.000822479
0.000804512
0.000785932
0.000766914
0.000747605
0.000728124
0.000708562
0.000688981
0.000669425
0.000649919
0.000630474
0.00061109
0.000591761
0.000572473
0.000553209
0.000533947
0.000514667
0.000495344
0.000475956
0.000456481
0.000436899
0.000417192
0.000397347
0.00037735
0.000357194
0.000336872
0.00031638
0.000295713
0.000274871
0.000253854
0.000232662
0.000211297
0.000189761
0.000168054
0.000146179
0.000124136
0.000101927
7.95524e-05
5.70142e-05
3.43138e-05
1.14524e-05
0.00505064
0.00481731
0.00440258
0.00401028
0.00368928
0.00340194
0.00313092
0.0028816
0.00265941
0.00246481
0.00229652
0.00215307
0.00203257
0.0019325
0.00184991
0.00178171
0.00172494
0.00167693
0.0016354
0.00159851
0.00156484
0.00153331
0.00150318
0.00147393
0.00144523
0.00141688
0.00138877
0.00136086
0.00133314
0.00130562
0.00127836
0.00125141
0.00122483
0.00119873
0.0011732
0.00114838
0.00112445
0.00110162
0.0010801
0.00106013
0.00104192
0.00102563
0.00101133
0.000998966
0.000988368
0.00097923
0.000971149
0.000963667
0.000956297
0.000948604
0.000940265
0.000931101
0.000921026
0.000910003
0.000898
0.000884986
0.000870914
0.000855763
0.000839564
0.000822427
0.00080451
0.000785988
0.000767025
0.000747763
0.000728319
0.00070878
0.000689213
0.00066966
0.000650149
0.000630691
0.000611292
0.000591944
0.000572635
0.000553351
0.000534071
0.000514772
0.000495433
0.00047603
0.000456542
0.000436949
0.000417234
0.000397381
0.000377378
0.000357217
0.00033689
0.000316394
0.000295725
0.00027488
0.000253861
0.000232668
0.000211302
0.000189765
0.000168057
0.000146181
0.000124138
0.000101928
7.95526e-05
5.70133e-05
3.4311e-05
1.14452e-05
0.00470654
0.00455305
0.00424796
0.00392014
0.00363058
0.00336843
0.00312077
0.0028901
0.00268154
0.00249663
0.00233481
0.002195
0.00207572
0.00197499
0.00189038
0.00181932
0.00175925
0.00170784
0.00166304
0.00162314
0.0015868
0.00155297
0.00152088
0.00149
0.00145994
0.00143047
0.00140144
0.00137276
0.00134441
0.00131637
0.00128868
0.00126136
0.00123449
0.00120813
0.00118239
0.0011574
0.00113332
0.00111033
0.00108863
0.00106843
0.00104993
0.00103325
0.00101846
0.0010055
0.000994207
0.000984305
0.000975425
0.000967145
0.000959027
0.000950673
0.000941781
0.000932168
0.000921733
0.000910418
0.000898181
0.000884984
0.000870783
0.000855564
0.000839359
0.000822266
0.000804426
0.000785996
0.000767127
0.00074795
0.000728577
0.000709094
0.000689564
0.000670032
0.000650527
0.000631064
0.000611649
0.000592278
0.000572942
0.000553628
0.000534315
0.000514986
0.000495617
0.000476187
0.000456674
0.000437059
0.000417324
0.000397454
0.000377438
0.000357265
0.000336929
0.000316425
0.000295749
0.0002749
0.000253877
0.00023268
0.000211312
0.000189772
0.000168063
0.000146186
0.000124141
0.00010193
7.95533e-05
5.70124e-05
3.43074e-05
1.1436e-05
0.00442106
0.00431483
0.00408805
0.00381913
0.0035635
0.00332655
0.00310164
0.00288989
0.00269566
0.00252119
0.00236663
0.00223134
0.00211426
0.00201384
0.00192817
0.00185511
0.00179249
0.00173828
0.00169068
0.00164814
0.00160939
0.00157343
0.00153951
0.00150707
0.00147571
0.00144515
0.00141523
0.00138581
0.00135685
0.00132832
0.00130022
0.00127258
0.00124544
0.00121888
0.00119299
0.00116787
0.00114367
0.00112055
0.00109869
0.00107828
0.00105946
0.00104236
0.00102702
0.00101338
0.00100129
0.000990513
0.000980706
0.0009715
0.000962502
0.000953357
0.000943786
0.000933603
0.000922694
0.000910988
0.000898434
0.000884988
0.000870614
0.000855299
0.000839075
0.000822025
0.000804271
0.00078595
0.000767197
0.000748132
0.000728859
0.000709457
0.00068999
0.000670501
0.000651021
0.000631565
0.000612142
0.000592752
0.000573388
0.000554038
0.000534687
0.000515316
0.000495907
0.000476437
0.000456887
0.000437239
0.000417474
0.000397579
0.00037754
0.000357348
0.000336996
0.000316478
0.000295791
0.000274933
0.000253903
0.000232701
0.000211328
0.000189785
0.000168073
0.000146193
0.000124146
0.000101933
7.95552e-05
5.70122e-05
3.4304e-05
1.14264e-05
0.00417858
0.00410182
0.00393037
0.0037118
0.00349025
0.00327848
0.0030754
0.00288215
0.00270241
0.00253876
0.00239198
0.00226187
0.00214775
0.00204848
0.00196257
0.00188827
0.00182379
0.00176739
0.00171748
0.00167268
0.00163181
0.00159395
0.00155836
0.00152447
0.00149188
0.0014603
0.00142951
0.00139939
0.00136985
0.00134084
0.00131236
0.00128442
0.00125704
0.0012303
0.00120426
0.00117902
0.00115471
0.00113148
0.00110946
0.00108882
0.00106968
0.00105214
0.00103623
0.00102189
0.00100898
0.000997289
0.000986522
0.000976349
0.000966427
0.000956438
0.000946126
0.000935307
0.000923861
0.000911707
0.000898786
0.000885053
0.000870474
0.000855039
0.000838776
0.000821755
0.000804078
0.000785864
0.000767231
0.000748288
0.000729127
0.000709825
0.000690438
0.000671009
0.000651569
0.000632135
0.000612716
0.000593314
0.000573926
0.000554543
0.000535152
0.000515737
0.000496281
0.000476765
0.000457171
0.000437481
0.000417679
0.000397749
0.000377681
0.000357463
0.00033709
0.000316554
0.000295852
0.000274982
0.000253942
0.000232732
0.000211352
0.000189804
0.000168088
0.000146204
0.000124154
0.000101939
7.95587e-05
5.70131e-05
3.43016e-05
1.1418e-05
0.00396893
0.00391153
0.0037796
0.00360235
0.00341277
0.00322545
0.00304313
0.00286767
0.0027023
0.00254971
0.00241112
0.00228674
0.00217624
0.00207884
0.00199342
0.0019186
0.0018529
0.00179486
0.00174311
0.00169642
0.00165374
0.00161419
0.00157709
0.00154188
0.00150815
0.00147559
0.00144398
0.00141318
0.00138307
0.0013536
0.00132474
0.0012965
0.00126889
0.00124195
0.00121576
0.0011904
0.00116598
0.0011426
0.00112041
0.00109953
0.00108006
0.00106208
0.00104559
0.00103055
0.00101684
0.00100426
0.00099255
0.000981427
0.000970589
0.000959754
0.000948687
0.000937212
0.000925204
0.000912576
0.000899265
0.000885224
0.000870421
0.000854846
0.000838523
0.000821509
0.000803891
0.00078577
0.000767248
0.000748422
0.000729374
0.000710174
0.000690874
0.000671514
0.000652124
0.000632721
0.000613315
0.00059391
0.000574505
0.000555094
0.000535665
0.000516207
0.000496704
0.00047714
0.000457499
0.000437764
0.00041792
0.000397952
0.00037785
0.000357604
0.000337204
0.000316647
0.000295927
0.000275042
0.00025399
0.00023277
0.000211382
0.000189828
0.000168106
0.000146219
0.000124166
0.000101947
7.95639e-05
5.70155e-05
3.43004e-05
1.14121e-05
0.00378524
0.00374115
0.0036379
0.00349381
0.00333285
0.00316862
0.00300592
0.00284741
0.0026961
0.00255462
0.00242449
0.00230628
0.00219994
0.00210503
0.00202074
0.00194603
0.0018797
0.00182054
0.00176739
0.00171918
0.00167497
0.00163397
0.00159553
0.00155912
0.00152434
0.00149087
0.00145848
0.00142702
0.00139636
0.00136643
0.0013372
0.00130865
0.00128079
0.00125366
0.0012273
0.00120179
0.00117722
0.00115369
0.0011313
0.00111016
0.00109034
0.00107191
0.00105486
0.00103915
0.00102467
0.00101123
0.000998622
0.00098659
0.000974871
0.000963215
0.000951406
0.000939278
0.000926705
0.000913597
0.000899888
0.00088553
0.000870491
0.000854761
0.000838359
0.000821332
0.000803751
0.000785703
0.000767276
0.000748554
0.00072961
0.000710505
0.00069129
0.000672
0.000652662
0.000633294
0.000613906
0.000594505
0.000575088
0.000555653
0.000536191
0.000516693
0.000497146
0.000477537
0.000457849
0.000438069
0.000418182
0.000398175
0.000378038
0.00035776
0.000337333
0.000316753
0.000296013
0.000275111
0.000254046
0.000232815
0.000211418
0.000189856
0.000168129
0.000146236
0.000124179
0.000101957
7.95707e-05
5.70191e-05
3.43008e-05
1.14091e-05
0.00362264
0.00358804
0.00350601
0.00338832
0.00325221
0.00310923
0.00296488
0.00282235
0.00268458
0.00255409
0.00243256
0.00232081
0.00221908
0.00212718
0.00204459
0.00197054
0.00190411
0.00184432
0.0017902
0.00174083
0.00169539
0.00165317
0.00161357
0.0015761
0.00154036
0.00150605
0.00147293
0.00144084
0.00140965
0.00137927
0.00134966
0.0013208
0.00129268
0.00126533
0.00123878
0.00121311
0.00118837
0.00116465
0.00114203
0.00112061
0.00110044
0.00108155
0.00106396
0.0010476
0.00103237
0.00101813
0.00100467
0.000991779
0.000979222
0.000966778
0.000954251
0.000941484
0.000928354
0.00091477
0.000900664
0.000885985
0.000870704
0.000854808
0.00083831
0.00082125
0.000803686
0.000785691
0.000767339
0.000748703
0.000729849
0.00071083
0.000691691
0.000672466
0.000653178
0.000633845
0.000614477
0.000595081
0.000575657
0.000556202
0.000536712
0.000517179
0.000497591
0.000477938
0.000458206
0.000438382
0.000418454
0.000398408
0.000378235
0.000357926
0.000337472
0.000316867
0.000296107
0.000275188
0.000254108
0.000232865
0.000211458
0.000189888
0.000168154
0.000146256
0.000124194
0.000101969
7.95789e-05
5.70241e-05
3.43027e-05
1.14087e-05
0.00347757
0.00344996
0.00338392
0.00328721
0.00317229
0.00304842
0.00292098
0.0027934
0.00266851
0.00254873
0.00243579
0.00233069
0.00223389
0.00214543
0.00206503
0.00199215
0.00192612
0.00186615
0.00181146
0.00176128
0.0017149
0.0016717
0.00163112
0.00159272
0.00155614
0.00152106
0.00148727
0.00145459
0.00142288
0.00139207
0.00136209
0.00133291
0.00130452
0.00127693
0.00125018
0.00122431
0.00119938
0.00117545
0.00115259
0.00113086
0.00111032
0.00109099
0.00107286
0.00105587
0.00103994
0.00102493
0.00101067
0.000996971
0.000983619
0.000970423
0.000957206
0.000943819
0.000930144
0.000916091
0.000901591
0.000886592
0.000871064
0.000854992
0.000838386
0.000821276
0.000803709
0.000785746
0.000767451
0.000748885
0.000730105
0.000711159
0.000692086
0.000672918
0.000653675
0.000634375
0.000615027
0.000595637
0.000576207
0.000556737
0.000537222
0.000517656
0.000498032
0.000478339
0.000458565
0.0004387
0.000418731
0.000398648
0.00037844
0.000358099
0.000337617
0.000316988
0.000296207
0.00027527
0.000254175
0.000232919
0.000211503
0.000189924
0.000168183
0.000146279
0.000124212
0.000101982
7.95886e-05
5.70306e-05
3.43063e-05
1.14108e-05
0.00334736
0.00332501
0.00327123
0.00319128
0.00309418
0.00298721
0.00287517
0.00276139
0.00264863
0.00253915
0.00243468
0.00233632
0.00224468
0.00216
0.00208218
0.00201091
0.00194571
0.00188598
0.0018311
0.00178044
0.00173341
0.00168945
0.00164809
0.00160892
0.00157159
0.00153584
0.00150144
0.00146821
0.00143603
0.00140479
0.00137444
0.00134494
0.00131628
0.00128845
0.00126147
0.00123539
0.00121024
0.00118608
0.00116295
0.00114092
0.00112
0.00110022
0.00108156
0.00106397
0.00104737
0.00103164
0.00101662
0.00100215
0.00098805
0.000974139
0.000960259
0.000946273
0.000932068
0.000917555
0.000902665
0.000887348
0.000871569
0.000855315
0.000838588
0.000821412
0.000803825
0.000785877
0.000767619
0.000749106
0.000730385
0.0007115
0.000692483
0.000673363
0.00065416
0.000634888
0.000615557
0.000596173
0.000576739
0.000557255
0.000537718
0.000518124
0.000498466
0.000478736
0.000458923
0.000439019
0.000419012
0.000398892
0.000378651
0.000358279
0.000337769
0.000317115
0.000296313
0.000275358
0.000254247
0.000232978
0.000211551
0.000189963
0.000168214
0.000146304
0.000124232
0.000101997
7.95998e-05
5.70385e-05
3.43115e-05
1.14147e-05
0.00322993
0.00321164
0.00316741
0.00310089
0.00301871
0.00292647
0.00282825
0.00272714
0.00262567
0.00252599
0.00242974
0.00233809
0.00225175
0.00217109
0.00209619
0.00202689
0.0019629
0.00190378
0.00184906
0.00179824
0.00175082
0.00170633
0.00166438
0.00162459
0.00158666
0.00155032
0.00151538
0.00148165
0.00144902
0.00141739
0.00138669
0.00135688
0.00132793
0.00129985
0.00127264
0.00124633
0.00122094
0.00119653
0.00117313
0.00115076
0.00112947
0.00110924
0.00109007
0.00107191
0.00105467
0.00103825
0.00102252
0.00100732
0.000992507
0.000977914
0.000963399
0.000948836
0.000934116
0.000919153
0.00090388
0.000888245
0.000872215
0.000855771
0.000838914
0.000821658
0.000804036
0.000786084
0.000767848
0.000749372
0.000730696
0.000711858
0.000692887
0.000673807
0.000654637
0.000635389
0.000616073
0.000596694
0.000577256
0.00055776
0.000538203
0.000518583
0.000498894
0.000479129
0.00045928
0.000439338
0.000419295
0.00039914
0.000378866
0.000358463
0.000337926
0.000317248
0.000296424
0.00027545
0.000254323
0.000233041
0.000211602
0.000190005
0.000168248
0.000146331
0.000124253
0.000102014
7.96126e-05
5.70478e-05
3.43182e-05
1.14203e-05
0.00312365
0.00310854
0.00307185
0.00301617
0.00294643
0.00286692
0.00278099
0.00269134
0.00260031
0.00250984
0.00242149
0.00233643
0.00225542
0.00217895
0.00210721
0.00204019
0.00197774
0.00191956
0.00186531
0.00181461
0.00176706
0.00172228
0.00167992
0.00163967
0.00160125
0.00156443
0.00152902
0.00149486
0.00146182
0.00142982
0.00139879
0.00136867
0.00133945
0.00131111
0.00128366
0.0012571
0.00123147
0.00120679
0.0011831
0.0011604
0.00113872
0.00111806
0.00109839
0.00107967
0.00106182
0.00104475
0.00102834
0.00101247
0.000996976
0.000981736
0.000966615
0.000951495
0.000936277
0.000920876
0.000905226
0.000889277
0.000872993
0.000856354
0.000839357
0.00082201
0.000804337
0.000786368
0.000768138
0.000749684
0.00073104
0.000712238
0.000693302
0.000674254
0.00065511
0.000635882
0.000616577
0.000597202
0.00057776
0.000558252
0.000538677
0.000519032
0.000499315
0.000479518
0.000459635
0.000439658
0.00041958
0.000399391
0.000379084
0.000358652
0.000338088
0.000317386
0.00029654
0.000275547
0.000254404
0.000233108
0.000211657
0.00019005
0.000168284
0.00014636
0.000124277
0.000102033
7.96269e-05
5.70587e-05
3.43264e-05
1.14273e-05
0.00302722
0.00301462
0.00298396
0.00293708
0.00287771
0.00280913
0.00273401
0.00265468
0.00257318
0.00249129
0.00241045
0.00233177
0.00225606
0.00218385
0.00211544
0.00205093
0.00199028
0.00193333
0.00187984
0.00182952
0.00178209
0.00173722
0.00169464
0.00165408
0.0016153
0.0015781
0.0015423
0.00150777
0.00147437
0.00144204
0.00141069
0.00138029
0.0013508
0.0013222
0.00129449
0.00126769
0.00124181
0.00121685
0.00119285
0.00116982
0.00114776
0.00112667
0.00110652
0.00108726
0.00106883
0.00105115
0.0010341
0.00101757
0.00100145
0.000985591
0.000969891
0.000954238
0.000938538
0.000922711
0.000906692
0.000890432
0.000873894
0.000857056
0.000839911
0.000822463
0.000804727
0.000786726
0.000768488
0.000750043
0.000731418
0.00071264
0.000693731
0.000674707
0.000655583
0.000636369
0.000617073
0.0005977
0.000578253
0.000558733
0.000539141
0.000519474
0.000499729
0.000479902
0.000459987
0.000439977
0.000419865
0.000399644
0.000379306
0.000358845
0.000338254
0.000317527
0.00029666
0.000275649
0.000254489
0.000233179
0.000211716
0.000190098
0.000168324
0.000146392
0.000124302
0.000102053
7.96428e-05
5.7071e-05
3.43359e-05
1.14355e-05
0.00293957
0.00292899
0.00290318
0.00286349
0.00281277
0.00275352
0.00268786
0.00261772
0.00254488
0.00247091
0.00239711
0.00232455
0.00225402
0.00218609
0.00212111
0.00205928
0.00200065
0.00194515
0.00189265
0.00184296
0.00179585
0.0017511
0.00170847
0.00166774
0.00162873
0.00159125
0.00155515
0.00152031
0.00148661
0.00145398
0.00142235
0.00139167
0.00136192
0.00133307
0.00130512
0.00127806
0.00125191
0.00122668
0.00120238
0.00117901
0.00115657
0.00113505
0.00111443
0.00109466
0.00107568
0.00105741
0.00103976
0.00102263
0.0010059
0.000989462
0.000973211
0.000957047
0.000940883
0.000924643
0.000908264
0.000891698
0.000874907
0.000857868
0.000840569
0.000823009
0.000805199
0.000787154
0.000768896
0.000750447
0.000731831
0.000713067
0.000694174
0.000675167
0.000656057
0.000636853
0.000617562
0.000598189
0.000578736
0.000559204
0.000539595
0.000519907
0.000500137
0.000480281
0.000460336
0.000440294
0.000420151
0.000399899
0.000379531
0.000359041
0.000338424
0.000317673
0.000296785
0.000275754
0.000254578
0.000233253
0.000211777
0.000190149
0.000168366
0.000146426
0.00012433
0.000102075
7.96602e-05
5.70847e-05
3.43468e-05
1.14449e-05
0.00285984
0.00285089
0.00282903
0.00279524
0.00275173
0.00270043
0.00264299
0.00258098
0.00251593
0.0024492
0.00238197
0.0023152
0.00224967
0.00218596
0.00212445
0.00206541
0.00200895
0.00195509
0.00190379
0.00185492
0.00180833
0.00176387
0.00172136
0.00168062
0.00164149
0.00160383
0.00156752
0.00153243
0.00149848
0.0014656
0.00143371
0.00140278
0.00137278
0.00134369
0.00131549
0.00128818
0.00126177
0.00123626
0.00121165
0.00118794
0.00116514
0.00114321
0.00112213
0.00110187
0.00108237
0.00106355
0.00104533
0.00102762
0.00101032
0.000993333
0.000976558
0.000959907
0.000943297
0.000926658
0.000909929
0.000893062
0.00087602
0.000858777
0.000841319
0.000823641
0.000805747
0.000787648
0.000769358
0.000750895
0.000732275
0.000713516
0.000694632
0.000675635
0.000656533
0.000637335
0.000618046
0.00059867
0.000579209
0.000559666
0.00054004
0.000520331
0.000500537
0.000480655
0.000460681
0.000440609
0.000420435
0.000400153
0.000379756
0.000359239
0.000338596
0.000317822
0.000296912
0.000275863
0.00025467
0.00023333
0.000211842
0.000190202
0.000168409
0.000146462
0.000124359
0.000102098
7.9679e-05
5.70996e-05
3.43589e-05
1.14552e-05
0.00278732
0.00277969
0.00276104
0.00273213
0.00269466
0.00265011
0.00259978
0.00254494
0.00248685
0.00242669
0.0023655
0.00230417
0.00224341
0.00218378
0.00212572
0.00206951
0.00201532
0.00196325
0.00191329
0.00186541
0.00181951
0.0017755
0.00173325
0.00169262
0.0016535
0.00161576
0.00157931
0.00154406
0.00150991
0.00147681
0.00144471
0.00141355
0.00138333
0.001354
0.00132556
0.00129801
0.00127134
0.00124555
0.00122064
0.0011966
0.00117343
0.0011511
0.0011296
0.00110887
0.00108887
0.00106953
0.00105077
0.00103252
0.00101469
0.00099718
0.00097991
0.000962795
0.00094576
0.000928738
0.00091167
0.00089451
0.00087722
0.000859774
0.000842154
0.000824351
0.000806366
0.000788202
0.000769871
0.000751383
0.000732752
0.000713989
0.000695105
0.00067611
0.000657011
0.000637815
0.000618524
0.000599143
0.000579674
0.000560119
0.000540477
0.000520748
0.000500931
0.000481023
0.000461022
0.000440922
0.000420719
0.000400408
0.000379983
0.000359439
0.000338771
0.000317974
0.000297043
0.000275974
0.000254765
0.00023341
0.000211909
0.000190258
0.000168456
0.0001465
0.00012439
0.000102124
7.96992e-05
5.71159e-05
3.43721e-05
1.14664e-05
0.00272141
0.00271484
0.00269882
0.00267392
0.00264149
0.00260268
0.00255848
0.0025099
0.00245801
0.00240378
0.00234813
0.00229185
0.00223559
0.00217991
0.00212522
0.00207184
0.00201999
0.00196978
0.00192129
0.00187453
0.00182947
0.00178604
0.00174417
0.00170377
0.00166475
0.00162703
0.00159053
0.00155516
0.00152087
0.00148761
0.00145531
0.00142396
0.00139352
0.00136398
0.00133531
0.00130752
0.00128059
0.00125453
0.00122932
0.00120496
0.00118143
0.00115873
0.00113681
0.00111563
0.00109516
0.00107533
0.00105607
0.00103732
0.00101898
0.00100098
0.000983244
0.000965689
0.000948249
0.000930859
0.000913464
0.000896019
0.000878486
0.000860838
0.000843054
0.000825123
0.00080704
0.000788805
0.000770424
0.000751904
0.000733252
0.000714478
0.000695589
0.000676591
0.00065749
0.000638291
0.000618996
0.000599608
0.000580129
0.000560561
0.000540902
0.000521154
0.000501315
0.000481383
0.000461355
0.000441228
0.000420997
0.000400658
0.000380207
0.000359637
0.000338945
0.000318125
0.000297174
0.000276087
0.00025486
0.000233491
0.000211977
0.000190315
0.000168503
0.000146539
0.000124422
0.00010215
7.97203e-05
5.71329e-05
3.4386e-05
1.14783e-05
0.00265041
0.0026449
0.00263147
0.00261054
0.00258311
0.00255005
0.00251207
0.00246995
0.00242451
0.00237656
0.00232686
0.00227607
0.0022248
0.00217355
0.00212272
0.00207264
0.00202356
0.00197564
0.00192899
0.00188368
0.00183973
0.00179713
0.00175586
0.00171586
0.00167709
0.00163949
0.00160301
0.0015676
0.00153321
0.0014998
0.00146733
0.00143578
0.00140512
0.00137534
0.00134643
0.00131836
0.00129114
0.00126477
0.00123922
0.00121449
0.00119056
0.00116742
0.00114503
0.00112336
0.00110237
0.00108199
0.00106218
0.00104286
0.00102396
0.00100542
0.000987164
0.000969119
0.000951223
0.000933418
0.000915653
0.000897881
0.000880068
0.000862183
0.000844204
0.000826116
0.000807911
0.000789584
0.000771135
0.000752567
0.000733882
0.000715085
0.00069618
0.000677172
0.000658063
0.000638855
0.000619552
0.000600153
0.000580661
0.000561076
0.000541399
0.000521629
0.000501764
0.000481805
0.000461748
0.00044159
0.000421328
0.000400958
0.000380476
0.000359877
0.000339156
0.00031831
0.000297334
0.000276225
0.000254979
0.000233592
0.000212062
0.000190387
0.000168563
0.000146589
0.000124463
0.000102183
7.97472e-05
5.71548e-05
3.44039e-05
1.14935e-05
0.00257716
0.00257265
0.00256162
0.00254433
0.00252154
0.00249387
0.00246182
0.00242594
0.00238685
0.00234517
0.00230151
0.00225642
0.00221042
0.00216393
0.00211735
0.00207099
0.0020251
0.00197988
0.00193549
0.00189201
0.00184953
0.00180808
0.00176767
0.00172831
0.00168999
0.00165268
0.00161637
0.00158102
0.0015466
0.00151311
0.00148051
0.00144878
0.00141791
0.00138789
0.00135871
0.00133035
0.00130281
0.00127609
0.00125016
0.00122502
0.00120066
0.00117704
0.00115414
0.00113193
0.00111037
0.00108941
0.001069
0.00104908
0.00102959
0.00101046
0.000991643
0.000973066
0.000954674
0.000936414
0.000918238
0.000900103
0.000881972
0.000863816
0.00084561
0.000827336
0.000808982
0.000790538
0.000771999
0.000753362
0.000734628
0.000715794
0.000696863
0.000677834
0.000658709
0.000639487
0.00062017
0.000600756
0.000581248
0.000561644
0.000541945
0.00052215
0.000502258
0.000482269
0.000462181
0.00044199
0.000421695
0.000401291
0.000380776
0.000360144
0.000339393
0.000318519
0.000297516
0.000276383
0.000255114
0.000233708
0.00021216
0.000190469
0.000168632
0.000146646
0.00012451
0.000102222
7.9779e-05
5.71807e-05
3.44252e-05
1.15114e-05
0.00251061
0.0025069
0.00249779
0.00248346
0.00246449
0.0024413
0.00241424
0.0023837
0.00235012
0.00231398
0.00227573
0.00223583
0.00219469
0.0021527
0.00211018
0.00206745
0.00202474
0.00198227
0.00194021
0.00189869
0.00185782
0.00181766
0.00177829
0.00173972
0.00170198
0.00166509
0.00162905
0.00159386
0.00155951
0.001526
0.00149332
0.00146146
0.00143042
0.00140019
0.00137076
0.00134213
0.00131428
0.00128722
0.00126092
0.00123538
0.00121058
0.00118651
0.00116312
0.00114039
0.0011183
0.00109678
0.0010758
0.00105531
0.00103525
0.00101557
0.000996219
0.000977134
0.000958268
0.00093957
0.000920995
0.000902504
0.000884061
0.000865634
0.000847198
0.000828733
0.000810221
0.000791651
0.000773012
0.000754297
0.000735502
0.000716622
0.000697654
0.000678596
0.000659446
0.000640202
0.000620864
0.000601429
0.000581898
0.00056227
0.000542545
0.000522722
0.000502799
0.000482778
0.000462655
0.000442429
0.000422097
0.000401657
0.000381106
0.000360441
0.000339657
0.000318751
0.00029772
0.000276559
0.000255267
0.000233838
0.000212272
0.000190563
0.000168711
0.000146712
0.000124565
0.000102267
7.98157e-05
5.72106e-05
3.44498e-05
1.15316e-05
0.00245221
0.00244912
0.00244152
0.00242954
0.00241361
0.00239402
0.00237102
0.00234485
0.00231585
0.00228436
0.00225073
0.00221531
0.00217845
0.00214046
0.00210164
0.00206225
0.00202253
0.00198269
0.00194291
0.00190335
0.00186411
0.00182532
0.00178705
0.00174936
0.00171231
0.00167594
0.00164027
0.00160532
0.00157112
0.00153767
0.00150497
0.00147304
0.00144188
0.00141147
0.00138184
0.00135296
0.00132484
0.00129747
0.00127084
0.00124493
0.00121974
0.00119524
0.00117141
0.00114821
0.00112562
0.00110361
0.00108212
0.00106111
0.00104054
0.00102036
0.00100053
0.00098098
0.000961679
0.000942578
0.000923635
0.000904812
0.000886073
0.000867388
0.00084873
0.000830076
0.000811407
0.000792707
0.000773963
0.000755164
0.000736301
0.000717368
0.000698358
0.000679266
0.000660087
0.000640819
0.000621459
0.000602004
0.000582453
0.000562804
0.000543056
0.000523209
0.000503262
0.000483214
0.000463063
0.000442808
0.000422447
0.000401977
0.000381397
0.000360702
0.00033989
0.000318958
0.000297902
0.000276718
0.000255405
0.000233957
0.000212373
0.000190649
0.000168784
0.000146773
0.000124615
0.000102308
7.98496e-05
5.72381e-05
3.44722e-05
1.15505e-05
0.00240372
0.0024011
0.00239465
0.00238445
0.00237084
0.00235402
0.00233415
0.00231142
0.00228604
0.00225827
0.00222839
0.00219666
0.00216336
0.00212875
0.00209309
0.00205661
0.00201953
0.00198205
0.00194436
0.00190661
0.00186893
0.00183145
0.00179427
0.00175748
0.00172114
0.00168532
0.00165007
0.00161543
0.00158142
0.00154808
0.00151542
0.00148346
0.00145221
0.00142168
0.00139187
0.00136279
0.00133443
0.00130679
0.00127986
0.00125363
0.00122809
0.00120321
0.00117898
0.00115538
0.00113236
0.0011099
0.00108796
0.00106651
0.0010455
0.00102488
0.00100462
0.00098467
0.000964988
0.000945532
0.000926264
0.000907145
0.000888143
0.000869226
0.000850366
0.00083154
0.000812726
0.000793905
0.000775062
0.000756182
0.000737254
0.000718267
0.000699213
0.000680084
0.000660874
0.000641577
0.00062219
0.000602708
0.00058313
0.000563453
0.000543676
0.000523797
0.000503817
0.000483735
0.000463548
0.000443257
0.000422859
0.000402353
0.000381737
0.000361007
0.000340162
0.000319199
0.000298113
0.000276903
0.000255564
0.000234094
0.00021249
0.000190749
0.000168867
0.000146843
0.000124673
0.000102356
7.98882e-05
5.72689e-05
3.44964e-05
1.15692e-05
0.00236752
0.00236522
0.00235956
0.00235059
0.00233857
0.00232368
0.00230601
0.00228569
0.00226288
0.00223778
0.00221061
0.00218156
0.00215089
0.0021188
0.00208551
0.00205124
0.0020162
0.00198056
0.00194451
0.0019082
0.00187178
0.00183538
0.00179911
0.00176307
0.00172734
0.00169202
0.00165714
0.00162278
0.00158897
0.00155575
0.00152315
0.0014912
0.00145991
0.0014293
0.00139938
0.00137015
0.00134162
0.00131378
0.00128663
0.00126016
0.00123435
0.0012092
0.00118467
0.00116076
0.00113742
0.00111463
0.00109236
0.00107057
0.00104922
0.00102828
0.0010077