/*--------------------------------*- C++ -*----------------------------------*\
| =========                 |                                                 |
| \\      /  F ield         | OpenFOAM: The Open Source CFD Toolbox           |
|  \\    /   O peration     | Version:  2.3.0                                 |
|   \\  /    A nd           | Web:      www.OpenFOAM.org                      |
|    \\/     M anipulation  |                                                 |
\*---------------------------------------------------------------------------*/
FoamFile
{
    version     2.0;
    format      ascii;
    class       volVectorField;
    location    "0.15";
    object      U_0;
}
// * * * * * * * * * * * * * * * * * * * * * * * * * * * * * * * * * * * * * //

dimensions      [0 1 -1 0 0 0 0];

internalField   nonuniform List<vector> 
2700
(
(0.185025 0.00502022 0)
(0.173515 0.00578118 0)
(0.158818 0.00543609 0)
(0.143358 0.00502169 0)
(0.128978 0.00454704 0)
(0.115977 0.00399793 0)
(0.104232 0.00342327 0)
(0.0936985 0.00286533 0)
(0.0843865 0.00234683 0)
(0.0762785 0.0018808 0)
(0.069311 0.00147526 0)
(0.0633901 0.00113352 0)
(0.058405 0.000854369 0)
(0.0542371 0.000633089 0)
(0.0507665 0.00046269 0)
(0.0478783 0.000335088 0)
(0.0454675 0.000242079 0)
(0.0434418 0.000176048 0)
(0.041723 0.000130366 0)
(0.0402472 9.95516e-05 0)
(0.0389631 7.92481e-05 0)
(0.0378308 6.61229e-05 0)
(0.03682 5.7715e-05 0)
(0.0359077 5.22734e-05 0)
(0.0350769 4.86013e-05 0)
(0.034315 4.59162e-05 0)
(0.0336127 4.3733e-05 0)
(0.0329632 4.17712e-05 0)
(0.032361 3.98849e-05 0)
(0.0318023 3.80127e-05 0)
(0.0312838 3.61415e-05 0)
(0.0308028 3.42817e-05 0)
(0.0303573 3.24468e-05 0)
(0.0299455 3.06387e-05 0)
(0.029566 2.88356e-05 0)
(0.0292178 2.69866e-05 0)
(0.0289004 2.50142e-05 0)
(0.0286139 2.28266e-05 0)
(0.0283586 2.03378e-05 0)
(0.0281354 1.74958e-05 0)
(0.0279452 1.43141e-05 0)
(0.0277886 1.0901e-05 0)
(0.0276656 7.45803e-06 0)
(0.0275755 4.1656e-06 0)
(0.0275164 1.15933e-06 0)
(0.0274856 -1.29559e-06 0)
(0.0274791 -2.92619e-06 0)
(0.0274879 -3.47484e-06 0)
(0.0275051 -3.61222e-06 0)
(0.0275261 -3.60471e-06 0)
(0.0275477 -3.42369e-06 0)
(0.0275679 -3.15133e-06 0)
(0.0275856 -2.84464e-06 0)
(0.0276006 -2.53552e-06 0)
(0.0276124 -2.20922e-06 0)
(0.0276209 -1.89433e-06 0)
(0.0276256 -1.6251e-06 0)
(0.0276263 -1.09248e-06 0)
(0.0276221 -3.80257e-07 0)
(0.0276131 2.44149e-07 0)
(0.0276001 7.1025e-07 0)
(0.0275845 1.01874e-06 0)
(0.0275674 1.19205e-06 0)
(0.0275499 1.25824e-06 0)
(0.0275328 1.24465e-06 0)
(0.0275166 1.17559e-06 0)
(0.0275019 1.07097e-06 0)
(0.0274887 9.4627e-07 0)
(0.0274772 8.12957e-07 0)
(0.0274675 6.7912e-07 0)
(0.0274593 5.50448e-07 0)
(0.0274527 4.3094e-07 0)
(0.0274475 3.23149e-07 0)
(0.0274435 2.28865e-07 0)
(0.0274405 1.4872e-07 0)
(0.0274385 8.21749e-08 0)
(0.0274372 2.9663e-08 0)
(0.0274365 -9.61899e-09 0)
(0.0274363 -3.92408e-08 0)
(0.0274364 -5.67225e-08 0)
(0.0274367 -6.62773e-08 0)
(0.0274372 -7.19475e-08 0)
(0.0274377 -7.38809e-08 0)
(0.0274383 -7.27286e-08 0)
(0.0274389 -6.93451e-08 0)
(0.0274394 -6.44217e-08 0)
(0.0274399 -5.82933e-08 0)
(0.0274404 -5.14712e-08 0)
(0.0274408 -4.47093e-08 0)
(0.0274412 -3.83286e-08 0)
(0.0274415 -3.24771e-08 0)
(0.0274417 -2.7182e-08 0)
(0.027442 -2.24061e-08 0)
(0.0274421 -1.81974e-08 0)
(0.0274423 -1.43093e-08 0)
(0.0274424 -1.05436e-08 0)
(0.0274425 -6.63458e-09 0)
(0.0274426 -2.29021e-09 0)
(0.0274426 1.9598e-09 0)
(0.0274425 1.62596e-08 0)
(0.200886 0.00842984 0)
(0.202376 0.00989614 0)
(0.200759 0.00956049 0)
(0.196721 0.00920041 0)
(0.191618 0.00878691 0)
(0.185992 0.00822972 0)
(0.18001 0.00757198 0)
(0.173822 0.00686777 0)
(0.167593 0.00614958 0)
(0.161458 0.00544028 0)
(0.155515 0.0047599 0)
(0.149828 0.00412508 0)
(0.144437 0.00354774 0)
(0.139365 0.00303478 0)
(0.134618 0.00258857 0)
(0.130195 0.00220753 0)
(0.126083 0.00188716 0)
(0.122267 0.00162105 0)
(0.118729 0.00140182 0)
(0.115449 0.00122196 0)
(0.112407 0.00107437 0)
(0.109584 0.000952715 0)
(0.106961 0.000851616 0)
(0.104523 0.000766637 0)
(0.102255 0.000694238 0)
(0.100142 0.000631653 0)
(0.0981732 0.000576755 0)
(0.0963381 0.000527931 0)
(0.0946277 0.000483961 0)
(0.0930341 0.000443923 0)
(0.0915509 0.000407115 0)
(0.0901724 0.000372987 0)
(0.0888941 0.00034109 0)
(0.0877124 0.000311029 0)
(0.0866245 0.000282424 0)
(0.0856288 0.000254897 0)
(0.0847242 0.000228074 0)
(0.0839104 0.000201616 0)
(0.0831875 0.000175278 0)
(0.0825557 0.000148968 0)
(0.0820144 0.000122815 0)
(0.0815621 9.72132e-05 0)
(0.0811955 7.28164e-05 0)
(0.0809092 5.03802e-05 0)
(0.0806952 3.05796e-05 0)
(0.0805431 1.39752e-05 0)
(0.0804416 8.88315e-07 0)
(0.0803851 -8.29504e-06 0)
(0.0803656 -1.31479e-05 0)
(0.0803656 -1.42187e-05 0)
(0.0803742 -1.31318e-05 0)
(0.0803852 -1.11585e-05 0)
(0.0803948 -8.94712e-06 0)
(0.0804005 -6.83066e-06 0)
(0.080401 -4.90105e-06 0)
(0.0803958 -2.77763e-06 0)
(0.0803818 -2.0611e-07 0)
(0.0803561 2.78739e-06 0)
(0.0803192 5.79538e-06 0)
(0.0802732 8.26052e-06 0)
(0.0802204 9.96101e-06 0)
(0.0801635 1.08941e-05 0)
(0.0801049 1.11594e-05 0)
(0.0800469 1.08967e-05 0)
(0.0799912 1.02509e-05 0)
(0.0799392 9.35373e-06 0)
(0.0798917 8.31527e-06 0)
(0.0798493 7.22135e-06 0)
(0.0798121 6.13524e-06 0)
(0.0797801 5.10054e-06 0)
(0.0797531 4.14558e-06 0)
(0.0797307 3.28712e-06 0)
(0.0797125 2.53323e-06 0)
(0.079698 1.88595e-06 0)
(0.0796867 1.34227e-06 0)
(0.079678 8.95742e-07 0)
(0.0796716 5.37927e-07 0)
(0.0796671 2.59105e-07 0)
(0.0796639 4.57911e-08 0)
(0.079662 -1.09619e-07 0)
(0.079661 -2.11359e-07 0)
(0.0796607 -2.66038e-07 0)
(0.0796607 -2.86842e-07 0)
(0.0796611 -2.8762e-07 0)
(0.0796616 -2.7548e-07 0)
(0.0796622 -2.55554e-07 0)
(0.0796627 -2.31296e-07 0)
(0.0796633 -2.04925e-07 0)
(0.0796639 -1.78628e-07 0)
(0.0796643 -1.53623e-07 0)
(0.0796648 -1.30487e-07 0)
(0.0796651 -1.09424e-07 0)
(0.0796654 -9.03955e-08 0)
(0.0796657 -7.34996e-08 0)
(0.0796659 -5.81075e-08 0)
(0.0796661 -4.34798e-08 0)
(0.0796662 -2.87246e-08 0)
(0.0796663 -1.26952e-08 0)
(0.0796663 5.99446e-09 0)
(0.0796662 4.52403e-08 0)
(0.201535 0.00623549 0)
(0.204572 0.00851698 0)
(0.206673 0.00908048 0)
(0.20731 0.00942004 0)
(0.207018 0.00959503 0)
(0.206107 0.00950465 0)
(0.204639 0.00918971 0)
(0.202671 0.0087246 0)
(0.200297 0.00816357 0)
(0.197619 0.00754666 0)
(0.194724 0.006908 0)
(0.191684 0.00627622 0)
(0.188561 0.00567309 0)
(0.185405 0.00511325 0)
(0.182255 0.00460494 0)
(0.179141 0.00415109 0)
(0.176084 0.00375061 0)
(0.173099 0.00339972 0)
(0.170196 0.00309315 0)
(0.167382 0.00282506 0)
(0.164659 0.00258969 0)
(0.162029 0.00238176 0)
(0.159494 0.00219667 0)
(0.157053 0.00203055 0)
(0.154706 0.0018802 0)
(0.152451 0.00174301 0)
(0.15029 0.00161687 0)
(0.148221 0.00150008 0)
(0.146244 0.00139122 0)
(0.144359 0.00128914 0)
(0.142567 0.00119285 0)
(0.140869 0.00110148 0)
(0.139264 0.00101425 0)
(0.137755 0.000930435 0)
(0.136343 0.000849305 0)
(0.135031 0.000770187 0)
(0.133821 0.000692477 0)
(0.132716 0.000615728 0)
(0.131717 0.000539751 0)
(0.130826 0.000464717 0)
(0.130044 0.000391223 0)
(0.129369 0.000320305 0)
(0.128798 0.000253356 0)
(0.128324 0.000191986 0)
(0.12794 0.000137797 0)
(0.127636 9.19879e-05 0)
(0.127401 5.50125e-05 0)
(0.12722 2.68234e-05 0)
(0.127079 7.6639e-06 0)
(0.126974 -3.35827e-06 0)
(0.126899 -8.55258e-06 0)
(0.126845 -9.8591e-06 0)
(0.126804 -8.50669e-06 0)
(0.126769 -5.24767e-06 0)
(0.126732 -5.24225e-07 0)
(0.126686 5.62283e-06 0)
(0.126626 1.30464e-05 0)
(0.126553 2.08459e-05 0)
(0.126468 2.79189e-05 0)
(0.126371 3.34979e-05 0)
(0.126266 3.72383e-05 0)
(0.126156 3.91211e-05 0)
(0.126043 3.93306e-05 0)
(0.12593 3.81594e-05 0)
(0.12582 3.59392e-05 0)
(0.125715 3.29942e-05 0)
(0.125617 2.96139e-05 0)
(0.125526 2.60393e-05 0)
(0.125445 2.24599e-05 0)
(0.125372 1.90162e-05 0)
(0.125308 1.5806e-05 0)
(0.125254 1.28919e-05 0)
(0.125207 1.03079e-05 0)
(0.125168 8.06597e-06 0)
(0.125137 6.16106e-06 0)
(0.125111 4.57585e-06 0)
(0.12509 3.28412e-06 0)
(0.125074 2.25344e-06 0)
(0.125061 1.44875e-06 0)
(0.125052 8.3441e-07 0)
(0.125044 3.8264e-07 0)
(0.125039 6.7398e-08 0)
(0.125035 -1.44536e-07 0)
(0.125033 -2.82732e-07 0)
(0.125031 -3.63134e-07 0)
(0.12503 -3.93249e-07 0)
(0.125029 -3.85933e-07 0)
(0.125029 -3.58397e-07 0)
(0.125029 -3.22055e-07 0)
(0.125029 -2.8297e-07 0)
(0.125029 -2.44216e-07 0)
(0.125029 -2.07351e-07 0)
(0.125029 -1.72972e-07 0)
(0.125029 -1.41476e-07 0)
(0.125029 -1.12414e-07 0)
(0.12503 -8.47215e-08 0)
(0.12503 -5.68778e-08 0)
(0.12503 -2.67262e-08 0)
(0.12503 1.08797e-08 0)
(0.12503 7.72389e-08 0)
(0.200979 0.00442423 0)
(0.20338 0.00699287 0)
(0.205873 0.00811743 0)
(0.20769 0.00878807 0)
(0.208968 0.00922824 0)
(0.20989 0.00939897 0)
(0.210464 0.00932671 0)
(0.210667 0.00907668 0)
(0.210514 0.00870219 0)
(0.21004 0.00824276 0)
(0.209287 0.00773221 0)
(0.208297 0.00720018 0)
(0.207111 0.00667082 0)
(0.205768 0.00616196 0)
(0.204304 0.00568542 0)
(0.202749 0.00524773 0)
(0.20113 0.00485121 0)
(0.199466 0.00449506 0)
(0.197776 0.00417647 0)
(0.196072 0.00389151 0)
(0.194363 0.0036358 0)
(0.192659 0.00340503 0)
(0.190964 0.00319522 0)
(0.189285 0.00300283 0)
(0.187626 0.00282486 0)
(0.185992 0.00265881 0)
(0.184385 0.00250259 0)
(0.182811 0.0023545 0)
(0.181273 0.00221312 0)
(0.179774 0.00207726 0)
(0.178319 0.00194591 0)
(0.176913 0.00181816 0)
(0.175558 0.00169319 0)
(0.174262 0.00157019 0)
(0.173027 0.00144842 0)
(0.171859 0.00132719 0)
(0.170763 0.001206 0)
(0.169744 0.00108458 0)
(0.168805 0.000963069 0)
(0.16795 0.000842146 0)
(0.16718 0.000723067 0)
(0.166496 0.000607659 0)
(0.165896 0.000498182 0)
(0.165378 0.000397083 0)
(0.164934 0.000306685 0)
(0.16456 0.000228859 0)
(0.164248 0.000164794 0)
(0.163989 0.000114813 0)
(0.163774 7.79122e-05 0)
(0.163597 5.19665e-05 0)
(0.16345 3.48224e-05 0)
(0.163324 2.48411e-05 0)
(0.163212 2.08313e-05 0)
(0.163106 2.19289e-05 0)
(0.163001 2.74766e-05 0)
(0.16289 3.66206e-05 0)
(0.16277 4.80447e-05 0)
(0.16264 6.00928e-05 0)
(0.162499 7.11912e-05 0)
(0.162347 8.0207e-05 0)
(0.162185 8.6514e-05 0)
(0.162016 8.99182e-05 0)
(0.161841 9.05386e-05 0)
(0.161664 8.8695e-05 0)
(0.161488 8.48174e-05 0)
(0.161315 7.93775e-05 0)
(0.161149 7.28402e-05 0)
(0.160991 6.56328e-05 0)
(0.160844 5.81282e-05 0)
(0.160709 5.0636e-05 0)
(0.160586 4.34021e-05 0)
(0.160477 3.66116e-05 0)
(0.160381 3.03929e-05 0)
(0.160298 2.48254e-05 0)
(0.160227 1.99454e-05 0)
(0.160168 1.57541e-05 0)
(0.160118 1.22247e-05 0)
(0.160077 9.30984e-06 0)
(0.160045 6.94841e-06 0)
(0.160018 5.07123e-06 0)
(0.159997 3.60512e-06 0)
(0.159981 2.4766e-06 0)
(0.159968 1.62127e-06 0)
(0.159959 9.87525e-07 0)
(0.159951 5.34446e-07 0)
(0.159946 2.29094e-07 0)
(0.159942 3.6205e-08 0)
(0.159938 -7.95343e-08 0)
(0.159936 -1.43894e-07 0)
(0.159934 -1.74221e-07 0)
(0.159933 -1.82251e-07 0)
(0.159932 -1.7637e-07 0)
(0.159932 -1.62029e-07 0)
(0.159931 -1.41565e-07 0)
(0.159931 -1.17051e-07 0)
(0.159931 -8.95333e-08 0)
(0.159931 -5.89332e-08 0)
(0.15993 -2.28509e-08 0)
(0.15993 2.77134e-08 0)
(0.15993 1.19414e-07 0)
(0.200608 0.00333534 0)
(0.202298 0.00577081 0)
(0.20439 0.00710082 0)
(0.206233 0.00788946 0)
(0.20778 0.00842017 0)
(0.209144 0.00871659 0)
(0.210337 0.00879343 0)
(0.211319 0.00869728 0)
(0.212072 0.00847341 0)
(0.212598 0.00815665 0)
(0.212908 0.00777657 0)
(0.213017 0.00735982 0)
(0.212946 0.0069292 0)
(0.212717 0.00650262 0)
(0.212351 0.00609293 0)
(0.211872 0.00570834 0)
(0.211299 0.0053531 0)
(0.21065 0.00502838 0)
(0.209939 0.00473317 0)
(0.209179 0.00446509 0)
(0.208378 0.00422103 0)
(0.207545 0.00399764 0)
(0.206686 0.00379167 0)
(0.205807 0.00360012 0)
(0.204912 0.00342037 0)
(0.204006 0.00325017 0)
(0.203092 0.00308759 0)
(0.202175 0.00293104 0)
(0.201259 0.00277915 0)
(0.200347 0.00263076 0)
(0.199443 0.00248484 0)
(0.198552 0.00234045 0)
(0.197679 0.00219673 0)
(0.196827 0.00205285 0)
(0.196003 0.00190807 0)
(0.195209 0.00176177 0)
(0.194451 0.00161357 0)
(0.193734 0.00146345 0)
(0.19306 0.0013119 0)
(0.192434 0.00116007 0)
(0.191856 0.00100975 0)
(0.191329 0.000863403 0)
(0.190852 0.000723888 0)
(0.190424 0.000594231 0)
(0.190044 0.000477247 0)
(0.189707 0.0003752 0)
(0.189411 0.000289499 0)
(0.189152 0.00022047 0)
(0.188926 0.000167193 0)
(0.188728 0.000127892 0)
(0.188551 0.000100626 0)
(0.188391 8.36545e-05 0)
(0.188241 7.55376e-05 0)
(0.188096 7.50504e-05 0)
(0.18795 8.10188e-05 0)
(0.187799 9.20394e-05 0)
(0.187641 0.000106314 0)
(0.187472 0.000121814 0)
(0.187292 0.000136629 0)
(0.1871 0.000149273 0)
(0.186896 0.000158786 0)
(0.186681 0.000164684 0)
(0.186455 0.00016686 0)
(0.186223 0.000165488 0)
(0.185987 0.000160928 0)
(0.18575 0.000153658 0)
(0.185515 0.000144215 0)
(0.185287 0.000133156 0)
(0.185068 0.000121023 0)
(0.184861 0.000108324 0)
(0.184668 9.55134e-05 0)
(0.184491 8.29818e-05 0)
(0.184332 7.10481e-05 0)
(0.18419 5.9956e-05 0)
(0.184065 4.98747e-05 0)
(0.183958 4.09025e-05 0)
(0.183866 3.30755e-05 0)
(0.183788 2.6376e-05 0)
(0.183724 2.07448e-05 0)
(0.183671 1.60926e-05 0)
(0.183629 1.23112e-05 0)
(0.183594 9.28493e-06 0)
(0.183567 6.90139e-06 0)
(0.183545 5.05766e-06 0)
(0.183528 3.65797e-06 0)
(0.183515 2.61185e-06 0)
(0.183505 1.83897e-06 0)
(0.183497 1.2746e-06 0)
(0.183491 8.67765e-07 0)
(0.183486 5.78705e-07 0)
(0.183483 3.76766e-07 0)
(0.18348 2.38261e-07 0)
(0.183478 1.45708e-07 0)
(0.183477 8.7419e-08 0)
(0.183475 5.42431e-08 0)
(0.183474 3.9946e-08 0)
(0.183474 4.10035e-08 0)
(0.183473 5.82799e-08 0)
(0.183473 1.01483e-07 0)
(0.183472 2.00005e-07 0)
(0.200397 0.0026144 0)
(0.201585 0.00476067 0)
(0.203227 0.00612777 0)
(0.204839 0.00698261 0)
(0.206291 0.00756519 0)
(0.207635 0.00793369 0)
(0.208886 0.00810282 0)
(0.210019 0.00810663 0)
(0.211009 0.00798431 0)
(0.21185 0.00776815 0)
(0.212542 0.007485 0)
(0.213091 0.00715874 0)
(0.213505 0.0068101 0)
(0.213795 0.00645591 0)
(0.213976 0.00610871 0)
(0.21406 0.00577709 0)
(0.214063 0.00546611 0)
(0.213996 0.00517804 0)
(0.21387 0.00491304 0)
(0.213695 0.00466982 0)
(0.213477 0.00444626 0)
(0.213224 0.00423983 0)
(0.212939 0.00404791 0)
(0.212627 0.00386797 0)
(0.212291 0.00369771 0)
(0.211933 0.00353509 0)
(0.211558 0.00337834 0)
(0.211167 0.0032259 0)
(0.210762 0.00307642 0)
(0.210347 0.00292874 0)
(0.209924 0.00278178 0)
(0.209496 0.00263457 0)
(0.209065 0.00248622 0)
(0.208636 0.00233588 0)
(0.20821 0.00218285 0)
(0.207791 0.00202658 0)
(0.207381 0.00186681 0)
(0.206984 0.00170373 0)
(0.206601 0.00153809 0)
(0.206235 0.00137133 0)
(0.205886 0.00120558 0)
(0.205557 0.00104361 0)
(0.205247 0.000888593 0)
(0.204956 0.000743815 0)
(0.204686 0.000612329 0)
(0.204435 0.000496586 0)
(0.204204 0.000398143 0)
(0.203991 0.000317482 0)
(0.203796 0.000253962 0)
(0.203616 0.00020613 0)
(0.203448 0.000172246 0)
(0.203289 0.000150657 0)
(0.203135 0.000139893 0)
(0.202982 0.000138588 0)
(0.202827 0.000145315 0)
(0.202667 0.00015838 0)
(0.202499 0.000175733 0)
(0.202321 0.000195121 0)
(0.20213 0.000214399 0)
(0.201926 0.000231795 0)
(0.201706 0.000246021 0)
(0.201471 0.000256249 0)
(0.201221 0.000262049 0)
(0.200959 0.000263305 0)
(0.200687 0.000260154 0)
(0.200408 0.000252923 0)
(0.200126 0.000242083 0)
(0.199845 0.000228211 0)
(0.199569 0.000211948 0)
(0.199302 0.00019397 0)
(0.199049 0.000174954 0)
(0.198811 0.000155547 0)
(0.198592 0.000136336 0)
(0.198393 0.000117827 0)
(0.198215 0.000100427 0)
(0.198058 8.44392e-05 0)
(0.197922 7.00575e-05 0)
(0.197805 5.73773e-05 0)
(0.197706 4.64066e-05 0)
(0.197623 3.70826e-05 0)
(0.197554 2.92903e-05 0)
(0.197498 2.28809e-05 0)
(0.197453 1.76893e-05 0)
(0.197417 1.35473e-05 0)
(0.197388 1.02896e-05 0)
(0.197365 7.75884e-06 0)
(0.197347 5.81345e-06 0)
(0.197333 4.33206e-06 0)
(0.197322 3.21342e-06 0)
(0.197314 2.37502e-06 0)
(0.197307 1.75108e-06 0)
(0.197302 1.28987e-06 0)
(0.197298 9.51525e-07 0)
(0.197295 7.05399e-07 0)
(0.197293 5.28586e-07 0)
(0.197291 4.04879e-07 0)
(0.19729 3.23573e-07 0)
(0.197289 2.80262e-07 0)
(0.197288 2.80065e-07 0)
(0.197287 3.48921e-07 0)
(0.200273 0.00210843 0)
(0.20113 0.00396017 0)
(0.202407 0.00528281 0)
(0.203766 0.00616891 0)
(0.205053 0.00678267 0)
(0.206271 0.00719232 0)
(0.207428 0.00741869 0)
(0.208508 0.00748899 0)
(0.209492 0.00743685 0)
(0.21037 0.00729218 0)
(0.21114 0.00707982 0)
(0.211806 0.00682144 0)
(0.212371 0.00653586 0)
(0.212844 0.00623862 0)
(0.213232 0.00594167 0)
(0.213547 0.00565352 0)
(0.213799 0.00537964 0)
(0.213996 0.00512295 0)
(0.214147 0.00488442 0)
(0.21426 0.00466358 0)
(0.214339 0.0044591 0)
(0.21439 0.00426909 0)
(0.214415 0.00409147 0)
(0.214419 0.00392411 0)
(0.214402 0.00376502 0)
(0.214367 0.00361234 0)
(0.214316 0.00346441 0)
(0.214249 0.00331976 0)
(0.214167 0.00317707 0)
(0.214073 0.00303516 0)
(0.213967 0.00289294 0)
(0.21385 0.00274945 0)
(0.213724 0.00260376 0)
(0.21359 0.00245506 0)
(0.213448 0.00230268 0)
(0.213301 0.00214613 0)
(0.213149 0.00198528 0)
(0.212992 0.00182043 0)
(0.212832 0.00165246 0)
(0.21267 0.00148292 0)
(0.212504 0.00131404 0)
(0.212337 0.00114862 0)
(0.212168 0.00098986 0)
(0.211998 0.000841036 0)
(0.21183 0.000705193 0)
(0.211663 0.000584801 0)
(0.2115 0.000481492 0)
(0.211341 0.000395906 0)
(0.211187 0.000327684 0)
(0.211039 0.00027573 0)
(0.210895 0.00023862 0)
(0.210754 0.000214912 0)
(0.210614 0.000203227 0)
(0.210473 0.000202186 0)
(0.210329 0.000210279 0)
(0.210179 0.000225722 0)
(0.210022 0.000246406 0)
(0.209855 0.000270033 0)
(0.209675 0.000294364 0)
(0.209481 0.000317441 0)
(0.20927 0.000337695 0)
(0.209042 0.000353949 0)
(0.208797 0.000365389 0)
(0.208534 0.00037152 0)
(0.208257 0.000372129 0)
(0.207968 0.000367255 0)
(0.20767 0.000357164 0)
(0.207368 0.000342323 0)
(0.207066 0.000323369 0)
(0.20677 0.000301074 0)
(0.206483 0.000276301 0)
(0.20621 0.00024995 0)
(0.205954 0.000222911 0)
(0.205717 0.000196013 0)
(0.205502 0.000169983 0)
(0.20531 0.000145417 0)
(0.205141 0.000122762 0)
(0.204993 0.000102313 0)
(0.204866 8.4223e-05 0)
(0.204759 6.85178e-05 0)
(0.204669 5.51215e-05 0)
(0.204595 4.3882e-05 0)
(0.204534 3.45981e-05 0)
(0.204485 2.7042e-05 0)
(0.204445 2.09753e-05 0)
(0.204413 1.61631e-05 0)
(0.204388 1.23858e-05 0)
(0.204368 9.4479e-06 0)
(0.204353 7.18095e-06 0)
(0.20434 5.44359e-06 0)
(0.204331 4.1199e-06 0)
(0.204323 3.11645e-06 0)
(0.204318 2.35919e-06 0)
(0.204313 1.7902e-06 0)
(0.20431 1.36509e-06 0)
(0.204307 1.0508e-06 0)
(0.204305 8.23471e-07 0)
(0.204303 6.68289e-07 0)
(0.204302 5.81372e-07 0)
(0.2043 5.77936e-07 0)
(0.200197 0.00173804 0)
(0.200832 0.00332913 0)
(0.201831 0.00456199 0)
(0.202962 0.00544328 0)
(0.204083 0.00607007 0)
(0.205165 0.0065039 0)
(0.206206 0.0067698 0)
(0.207192 0.00689059 0)
(0.208106 0.00689413 0)
(0.208938 0.00680705 0)
(0.209687 0.00665212 0)
(0.210352 0.00644906 0)
(0.210937 0.00621506 0)
(0.211448 0.0059645 0)
(0.211892 0.00570878 0)
(0.212277 0.00545628 0)
(0.212612 0.00521272 0)
(0.212903 0.00498154 0)
(0.213158 0.00476436 0)
(0.213383 0.00456141 0)
(0.213583 0.00437203 0)
(0.213761 0.00419493 0)
(0.213922 0.00402852 0)
(0.214066 0.00387109 0)
(0.214197 0.00372093 0)
(0.214314 0.00357644 0)
(0.21442 0.00343609 0)
(0.214514 0.00329852 0)
(0.214597 0.00316247 0)
(0.214669 0.0030268 0)
(0.214731 0.00289047 0)
(0.214783 0.00275251 0)
(0.214825 0.00261204 0)
(0.214857 0.00246828 0)
(0.214878 0.00232062 0)
(0.214889 0.00216865 0)
(0.214889 0.0020123 0)
(0.214878 0.00185193 0)
(0.214855 0.00168846 0)
(0.214819 0.00152342 0)
(0.21477 0.00135894 0)
(0.214708 0.00119769 0)
(0.214634 0.00104268 0)
(0.214549 0.000896996 0)
(0.214453 0.000763507 0)
(0.214349 0.00064458 0)
(0.214239 0.000541845 0)
(0.214125 0.00045606 0)
(0.214009 0.00038713 0)
(0.213891 0.000334299 0)
(0.213774 0.000296467 0)
(0.213655 0.000272428 0)
(0.213535 0.000260954 0)
(0.213413 0.000260755 0)
(0.213287 0.000270383 0)
(0.213157 0.000288122 0)
(0.21302 0.000311958 0)
(0.212874 0.000339681 0)
(0.212717 0.000369067 0)
(0.212547 0.000398062 0)
(0.212361 0.000424877 0)
(0.212158 0.000448019 0)
(0.211937 0.000466292 0)
(0.211698 0.000478784 0)
(0.211442 0.000484869 0)
(0.211171 0.000484215 0)
(0.210889 0.000476781 0)
(0.210598 0.000462821 0)
(0.210304 0.000442872 0)
(0.210011 0.000417714 0)
(0.209723 0.000388332 0)
(0.209446 0.00035584 0)
(0.209183 0.000321416 0)
(0.208938 0.000286221 0)
(0.208712 0.000251335 0)
(0.208507 0.000217692 0)
(0.208325 0.00018605 0)
(0.208164 0.000156965 0)
(0.208025 0.000130794 0)
(0.207905 0.000107706 0)
(0.207804 8.77099e-05 0)
(0.20772 7.06856e-05 0)
(0.20765 5.6422e-05 0)
(0.207593 4.46484e-05 0)
(0.207546 3.50621e-05 0)
(0.207509 2.73518e-05 0)
(0.207478 2.1217e-05 0)
(0.207455 1.63816e-05 0)
(0.207436 1.26016e-05 0)
(0.207421 9.6671e-06 0)
(0.207409 7.40224e-06 0)
(0.2074 5.66266e-06 0)
(0.207393 4.3319e-06 0)
(0.207387 3.31753e-06 0)
(0.207383 2.54727e-06 0)
(0.207379 1.96586e-06 0)
(0.207376 1.53186e-06 0)
(0.207374 1.21619e-06 0)
(0.207373 1.00209e-06 0)
(0.207371 8.87534e-07 0)
(0.200147 0.0014563 0)
(0.20063 0.00282532 0)
(0.201418 0.00394884 0)
(0.202355 0.00479846 0)
(0.203323 0.00542343 0)
(0.204278 0.00587054 0)
(0.205208 0.00616457 0)
(0.206099 0.00632507 0)
(0.206935 0.0063747 0)
(0.207707 0.00633637 0)
(0.20841 0.00623058 0)
(0.209043 0.00607523 0)
(0.20961 0.00588597 0)
(0.210113 0.0056761 0)
(0.210559 0.0054564 0)
(0.210955 0.00523508 0)
(0.211307 0.00501798 0)
(0.211622 0.00480893 0)
(0.211907 0.00461008 0)
(0.212166 0.00442226 0)
(0.212404 0.0042454 0)
(0.212625 0.00407876 0)
(0.212831 0.00392123 0)
(0.213026 0.00377151 0)
(0.21321 0.00362821 0)
(0.213384 0.00348996 0)
(0.21355 0.00335545 0)
(0.213708 0.00322344 0)
(0.213858 0.00309279 0)
(0.214 0.00296245 0)
(0.214133 0.00283142 0)
(0.214259 0.00269881 0)
(0.214375 0.00256382 0)
(0.214482 0.00242572 0)
(0.214579 0.00228399 0)
(0.214665 0.00213829 0)
(0.214739 0.00198861 0)
(0.214799 0.00183535 0)
(0.214845 0.00167939 0)
(0.214875 0.00152217 0)
(0.214889 0.00136565 0)
(0.214886 0.00121226 0)
(0.214866 0.00106474 0)
(0.21483 0.000925866 0)
(0.214779 0.000798265 0)
(0.214716 0.000684124 0)
(0.214643 0.000585008 0)
(0.214561 0.000501748 0)
(0.214473 0.000434453 0)
(0.214381 0.000382653 0)
(0.214286 0.000345537 0)
(0.214189 0.000322138 0)
(0.214089 0.000311415 0)
(0.213987 0.000312228 0)
(0.213881 0.000323266 0)
(0.213772 0.000342964 0)
(0.213657 0.00036948 0)
(0.213536 0.000400755 0)
(0.213405 0.000434653 0)
(0.213264 0.000469093 0)
(0.213109 0.000502141 0)
(0.212939 0.000532048 0)
(0.212753 0.000557276 0)
(0.21255 0.000576523 0)
(0.21233 0.000588751 0)
(0.212096 0.000593231 0)
(0.211849 0.000589578 0)
(0.211593 0.000577779 0)
(0.211331 0.000558201 0)
(0.211067 0.000531571 0)
(0.210806 0.000498923 0)
(0.210552 0.000461531 0)
(0.210308 0.000420814 0)
(0.210078 0.000378234 0)
(0.209865 0.000335201 0)
(0.209669 0.000292991 0)
(0.209494 0.000252678 0)
(0.209337 0.000215102 0)
(0.2092 0.000180846 0)
(0.209082 0.000150254 0)
(0.208981 0.000123449 0)
(0.208895 0.000100373 0)
(0.208824 8.08288e-05 0)
(0.208765 6.45253e-05 0)
(0.208717 5.11117e-05 0)
(0.208677 4.02125e-05 0)
(0.208645 3.14539e-05 0)
(0.20862 2.44835e-05 0)
(0.2086 1.8983e-05 0)
(0.208584 1.46736e-05 0)
(0.208571 1.13177e-05 0)
(0.208561 8.71724e-06 0)
(0.208553 6.71042e-06 0)
(0.208547 5.16709e-06 0)
(0.208542 3.98406e-06 0)
(0.208538 3.08108e-06 0)
(0.208535 2.39663e-06 0)
(0.208533 1.88497e-06 0)
(0.208531 1.51412e-06 0)
(0.208529 1.26216e-06 0)
(0.200113 0.00123528 0)
(0.200488 0.00241734 0)
(0.201116 0.0034282 0)
(0.201892 0.00422921 0)
(0.202723 0.0048396 0)
(0.203562 0.00529036 0)
(0.20439 0.00560271 0)
(0.205192 0.00579333 0)
(0.205954 0.00588054 0)
(0.206665 0.0058836 0)
(0.20732 0.00582051 0)
(0.207917 0.0057073 0)
(0.208456 0.00555812 0)
(0.208941 0.00538514 0)
(0.209375 0.00519844 0)
(0.209765 0.00500592 0)
(0.210115 0.00481345 0)
(0.210432 0.00462511 0)
(0.210721 0.00444344 0)
(0.210987 0.00426977 0)
(0.211233 0.00410452 0)
(0.211464 0.00394746 0)
(0.211682 0.00379793 0)
(0.211889 0.00365499 0)
(0.212087 0.00351759 0)
(0.212278 0.00338462 0)
(0.212461 0.00325497 0)
(0.212637 0.00312758 0)
(0.212807 0.00300144 0)
(0.21297 0.00287561 0)
(0.213127 0.00274922 0)
(0.213277 0.00262144 0)
(0.213419 0.00249156 0)
(0.213552 0.00235897 0)
(0.213676 0.00222322 0)
(0.21379 0.00208405 0)
(0.213892 0.00194152 0)
(0.213981 0.00179604 0)
(0.214056 0.00164843 0)
(0.214114 0.00150003 0)
(0.214156 0.0013526 0)
(0.214181 0.00120831 0)
(0.214188 0.00106956 0)
(0.214179 0.000938859 0)
(0.214154 0.000818525 0)
(0.214116 0.000710545 0)
(0.214066 0.000616388 0)
(0.214006 0.000536914 0)
(0.213939 0.000472377 0)
(0.213867 0.000422538 0)
(0.21379 0.000386829 0)
(0.213711 0.000364505 0)
(0.213628 0.000354712 0)
(0.213544 0.000356476 0)
(0.213457 0.000368649 0)
(0.213367 0.000389844 0)
(0.213274 0.00041841 0)
(0.213175 0.000452469 0)
(0.21307 0.000490005 0)
(0.212956 0.000528962 0)
(0.212832 0.00056732 0)
(0.212696 0.000603143 0)
(0.212547 0.000634619 0)
(0.212383 0.000660109 0)
(0.212206 0.000678212 0)
(0.212016 0.000687832 0)
(0.211814 0.000688253 0)
(0.211602 0.000679186 0)
(0.211385 0.000660806 0)
(0.211164 0.000633743 0)
(0.210944 0.000599036 0)
(0.210727 0.000558056 0)
(0.210518 0.000512402 0)
(0.210319 0.000463781 0)
(0.210133 0.000413884 0)
(0.209961 0.000364285 0)
(0.209805 0.000316349 0)
(0.209665 0.000271177 0)
(0.209541 0.000229578 0)
(0.209433 0.000192072 0)
(0.209339 0.000158908 0)
(0.20926 0.000130105 0)
(0.209193 0.000105501 0)
(0.209137 8.48038e-05 0)
(0.209091 6.76334e-05 0)
(0.209053 5.35676e-05 0)
(0.209022 4.21739e-05 0)
(0.208997 3.30358e-05 0)
(0.208976 2.57701e-05 0)
(0.20896 2.00357e-05 0)
(0.208948 1.55382e-05 0)
(0.208937 1.2029e-05 0)
(0.208929 9.3027e-06 0)
(0.208923 7.19209e-06 0)
(0.208918 5.56331e-06 0)
(0.208914 4.31082e-06 0)
(0.208911 3.35244e-06 0)
(0.208909 2.62513e-06 0)
(0.208907 2.08112e-06 0)
(0.208905 1.68013e-06 0)
(0.200088 0.00105762 0)
(0.200385 0.00208233 0)
(0.200891 0.00298539 0)
(0.201535 0.0037286 0)
(0.202245 0.00431418 0)
(0.202978 0.00475997 0)
(0.203713 0.00508212 0)
(0.204434 0.00529438 0)
(0.205127 0.00541144 0)
(0.205781 0.00544917 0)
(0.206389 0.00542298 0)
(0.206949 0.005347 0)
(0.20746 0.00523386 0)
(0.207924 0.00509457 0)
(0.208344 0.00493846 0)
(0.208724 0.00477302 0)
(0.209068 0.00460402 0)
(0.209382 0.00443565 0)
(0.209669 0.00427075 0)
(0.209934 0.00411102 0)
(0.21018 0.00395731 0)
(0.210412 0.0038098 0)
(0.210631 0.00366823 0)
(0.210839 0.00353201 0)
(0.211039 0.00340039 0)
(0.21123 0.00327253 0)
(0.211415 0.00314753 0)
(0.211594 0.0030245 0)
(0.211767 0.0029026 0)
(0.211933 0.00278101 0)
(0.212094 0.00265895 0)
(0.212248 0.00253573 0)
(0.212395 0.00241074 0)
(0.212534 0.00228346 0)
(0.212664 0.00215352 0)
(0.212785 0.00202077 0)
(0.212895 0.00188529 0)
(0.212992 0.00174751 0)
(0.213076 0.00160822 0)
(0.213145 0.00146862 0)
(0.213198 0.00133028 0)
(0.213235 0.00119512 0)
(0.213256 0.00106526 0)
(0.213261 0.000942891 0)
(0.213251 0.000830069 0)
(0.213228 0.000728577 0)
(0.213193 0.000639772 0)
(0.213149 0.000564513 0)
(0.213097 0.000503159 0)
(0.21304 0.000455643 0)
(0.212978 0.0004216 0)
(0.212913 0.000400477 0)
(0.212846 0.000391593 0)
(0.212777 0.000394133 0)
(0.212706 0.000407113 0)
(0.212633 0.000429321 0)
(0.212558 0.000459292 0)
(0.212479 0.000495325 0)
(0.212397 0.00053553 0)
(0.212308 0.000577907 0)
(0.212211 0.000620397 0)
(0.212106 0.000660935 0)
(0.211991 0.000697504 0)
(0.211865 0.000728206 0)
(0.211729 0.000751343 0)
(0.211581 0.000765514 0)
(0.211424 0.000769714 0)
(0.211259 0.00076341 0)
(0.211088 0.00074659 0)
(0.210914 0.000719771 0)
(0.210738 0.00068396 0)
(0.210565 0.000640579 0)
(0.210396 0.000591345 0)
(0.210234 0.000538141 0)
(0.21008 0.000482877 0)
(0.209937 0.000427363 0)
(0.209806 0.000373202 0)
(0.209688 0.00032172 0)
(0.209582 0.000273925 0)
(0.209488 0.000230496 0)
(0.209407 0.000191807 0)
(0.209337 0.00015796 0)
(0.209277 0.000128841 0)
(0.209227 0.000104171 0)
(0.209185 8.35604e-05 0)
(0.20915 6.65594e-05 0)
(0.209121 5.26938e-05 0)
(0.209098 4.14986e-05 0)
(0.209079 3.25389e-05 0)
(0.209064 2.54226e-05 0)
(0.209052 1.98068e-05 0)
(0.209042 1.53992e-05 0)
(0.209034 1.19551e-05 0)
(0.209028 9.27403e-06 0)
(0.209023 7.19373e-06 0)
(0.209019 5.58481e-06 0)
(0.209016 4.34533e-06 0)
(0.209014 3.39554e-06 0)
(0.209012 2.67268e-06 0)
(0.20901 2.12182e-06 0)
(0.20007 0.000912025 0)
(0.200308 0.00180369 0)
(0.20072 0.00260734 0)
(0.201255 0.00328912 0)
(0.201861 0.00384269 0)
(0.2025 0.00427635 0)
(0.203151 0.00460106 0)
(0.203797 0.00482752 0)
(0.204425 0.00496736 0)
(0.205024 0.00503338 0)
(0.205588 0.00503853 0)
(0.206112 0.00499501 0)
(0.206596 0.00491394 0)
(0.207039 0.00480521 0)
(0.207444 0.00467731 0)
(0.207813 0.00453726 0)
(0.20815 0.00439062 0)
(0.208458 0.0042416 0)
(0.208742 0.00409319 0)
(0.209005 0.00394739 0)
(0.209251 0.00380537 0)
(0.209481 0.00366766 0)
(0.209699 0.00353432 0)
(0.209906 0.00340512 0)
(0.210104 0.00327956 0)
(0.210294 0.00315703 0)
(0.210478 0.00303687 0)
(0.210655 0.00291836 0)
(0.210825 0.0028008 0)
(0.21099 0.0026835 0)
(0.211149 0.00256582 0)
(0.211301 0.00244717 0)
(0.211447 0.00232703 0)
(0.211585 0.00220499 0)
(0.211714 0.00208079 0)
(0.211835 0.00195431 0)
(0.211945 0.00182571 0)
(0.212043 0.00169541 0)
(0.212129 0.00156414 0)
(0.212201 0.00143299 0)
(0.212259 0.00130338 0)
(0.212302 0.00117699 0)
(0.21233 0.00105567 0)
(0.212343 0.000941349 0)
(0.212343 0.000835834 0)
(0.212331 0.000740717 0)
(0.212307 0.000657245 0)
(0.212275 0.00058626 0)
(0.212235 0.000528186 0)
(0.21219 0.000483092 0)
(0.212141 0.000450774 0)
(0.212089 0.000430842 0)
(0.212034 0.000422769 0)
(0.211978 0.000425888 0)
(0.211921 0.00043936 0)
(0.211863 0.000462137 0)
(0.211804 0.000492921 0)
(0.211742 0.000530168 0)
(0.211679 0.000572118 0)
(0.211611 0.000616835 0)
(0.211539 0.000662254 0)
(0.211461 0.000706236 0)
(0.211376 0.000746625 0)
(0.211283 0.000781333 0)
(0.211183 0.000808441 0)
(0.211074 0.000826314 0)
(0.210958 0.000833719 0)
(0.210836 0.000829917 0)
(0.210708 0.000814734 0)
(0.210577 0.000788574 0)
(0.210444 0.000752394 0)
(0.210312 0.000707619 0)
(0.210181 0.000656035 0)
(0.210055 0.000599636 0)
(0.209934 0.00054048 0)
(0.209821 0.00048055 0)
(0.209715 0.00042163 0)
(0.209619 0.000365223 0)
(0.209532 0.000312498 0)
(0.209454 0.000264274 0)
(0.209386 0.000221037 0)
(0.209326 0.000182972 0)