/*--------------------------------*- C++ -*----------------------------------*\
| =========                 |                                                 |
| \\      /  F ield         | OpenFOAM: The Open Source CFD Toolbox           |
|  \\    /   O peration     | Version:  2.3.0                                 |
|   \\  /    A nd           | Web:      www.OpenFOAM.org                      |
|    \\/     M anipulation  |                                                 |
\*---------------------------------------------------------------------------*/
FoamFile
{
    version     2.0;
    format      ascii;
    class       volScalarField;
    location    "0.6";
    object      p;
}
// * * * * * * * * * * * * * * * * * * * * * * * * * * * * * * * * * * * * * //

dimensions      [0 2 -2 0 0 0 0];

internalField   nonuniform List<scalar> 
5940
(
0.00296654
0.00264608
0.00194841
0.00126612
0.000707601
0.000255019
-0.000110612
-0.00038344
-0.000554634
-0.000634224
-0.000648375
-0.000625739
-0.000588338
-0.000549637
-0.000516185
-0.000489923
-0.000470281
-0.000455712
-0.000444593
-0.000435609
-0.000427834
-0.000420682
-0.000413822
-0.000407091
-0.000400426
-0.000393816
-0.000387271
-0.000380808
-0.00037444
-0.000368177
-0.000362023
-0.000355977
-0.000350036
-0.000344196
-0.00033845
-0.000332793
-0.00032722
-0.000321726
-0.000316308
-0.000310963
-0.000305687
-0.00030048
-0.00029534
-0.000290266
-0.000285258
-0.000280314
-0.000275436
-0.000270622
-0.000265874
-0.000261191
-0.000256573
-0.00025202
-0.000247534
-0.000243113
-0.00023876
-0.000234473
-0.000230252
-0.000226099
-0.000222014
-0.000217996
-0.000214045
-0.000210162
-0.000206347
-0.0002026
-0.000198921
-0.00019531
-0.000191766
-0.000188291
-0.000184883
-0.000181542
-0.000178269
-0.000175062
-0.000171921
-0.000168847
-0.000165838
-0.000162895
-0.000160016
-0.000157201
-0.00015445
-0.000151761
-0.000149135
-0.000146569
-0.000144065
-0.00014162
-0.000139234
-0.000136905
-0.000134634
-0.000132418
-0.000130257
-0.000128149
-0.000126094
-0.000124089
-0.000122135
-0.000120229
-0.000118369
-0.000116556
-0.000114786
-0.000113059
-0.000111372
-0.000109724
-0.000108113
-0.000106538
-0.000104995
-0.000103485
-0.000102002
-0.000100547
-9.91155e-05
-9.77074e-05
-9.63174e-05
-9.4946e-05
-9.3587e-05
-9.22415e-05
-9.09022e-05
-8.95708e-05
-8.82386e-05
-8.69081e-05
-8.55695e-05
-8.42261e-05
-8.28664e-05
-8.1495e-05
-8.00985e-05
-7.86827e-05
-7.72317e-05
-7.57533e-05
-7.42284e-05
-7.26676e-05
-7.10479e-05
-6.93835e-05
-6.76463e-05
-6.58553e-05
-6.3976e-05
-6.2033e-05
-5.99834e-05
-5.78603e-05
-5.56094e-05
-5.32759e-05
-5.07908e-05
-4.82146e-05
-4.54584e-05
-4.26033e-05
-3.95329e-05
-3.63572e-05
-3.29222e-05
-2.938e-05
-2.55229e-05
-2.15652e-05
-1.72171e-05
-1.27927e-05
-7.85641e-06
-2.9355e-06
0.00244139
0.0022582
0.00178168
0.00121663
0.000705327
0.000282378
-5.60358e-05
-0.000309095
-0.000474845
-0.000560996
-0.000587119
-0.000577105
-0.000550877
-0.000521135
-0.000494397
-0.000472872
-0.000456429
-0.000443998
-0.000434345
-0.000426421
-0.000419465
-0.000412986
-0.000406705
-0.000400486
-0.000394278
-0.00038808
-0.000381907
-0.000375778
-0.000369713
-0.000363724
-0.000357818
-0.000351999
-0.000346265
-0.000340614
-0.000335043
-0.000329548
-0.000324125
-0.00031877
-0.000313482
-0.000308258
-0.000303096
-0.000297995
-0.000292955
-0.000287975
-0.000283055
-0.000278195
-0.000273396
-0.000268657
-0.000263979
-0.000259363
-0.000254808
-0.000250316
-0.000245888
-0.000241522
-0.000237221
-0.000232984
-0.000228811
-0.000224704
-0.000220661
-0.000216685
-0.000212774
-0.00020893
-0.000205151
-0.00020144
-0.000197794
-0.000194216
-0.000190703
-0.000187258
-0.000183879
-0.000180566
-0.000177319
-0.000174139
-0.000171023
-0.000167973
-0.000164988
-0.000162067
-0.00015921
-0.000156416
-0.000153685
-0.000151016
-0.000148409
-0.000145862
-0.000143375
-0.000140948
-0.000138578
-0.000136267
-0.000134011
-0.000131811
-0.000129664
-0.000127572
-0.00012553
-0.00012354
-0.000121599
-0.000119706
-0.00011786
-0.000116059
-0.000114301
-0.000112586
-0.00011091
-0.000109274
-0.000107674
-0.00010611
-0.000104578
-0.000103078
-0.000101605
-0.00010016
-9.87385e-05
-9.73401e-05
-9.59594e-05
-9.45973e-05
-9.32473e-05
-9.19108e-05
-9.05802e-05
-8.92573e-05
-8.79335e-05
-8.66114e-05
-8.52809e-05
-8.39455e-05
-8.25936e-05
-8.123e-05
-7.98409e-05
-7.84327e-05
-7.69889e-05
-7.55179e-05
-7.39999e-05
-7.24463e-05
-7.08331e-05
-6.91756e-05
-6.74447e-05
-6.56605e-05
-6.3787e-05
-6.18507e-05
-5.98066e-05
-5.76899e-05
-5.54441e-05
-5.31168e-05
-5.06362e-05
-4.80661e-05
-4.53137e-05
-4.24647e-05
-3.93974e-05
-3.62278e-05
-3.27947e-05
-2.92587e-05
-2.54018e-05
-2.14512e-05
-1.71003e-05
-1.26855e-05
-7.74135e-06
-2.84836e-06
0.00206574
0.00194709
0.00162797
0.00118119
0.000730895
0.000343599
3.40249e-05
-0.000200138
-0.000363012
-0.000460984
-0.000506284
-0.00051567
-0.000505597
-0.00048816
-0.000470024
-0.000454087
-0.000441116
-0.000430844
-0.000422614
-0.000415733
-0.000409631
-0.000403911
-0.00039833
-0.000392763
-0.000387163
-0.000381522
-0.000375855
-0.000370183
-0.000364527
-0.000358904
-0.000353324
-0.000347795
-0.000342322
-0.000336906
-0.000331546
-0.000326243
-0.000320994
-0.0003158
-0.000310658
-0.000305568
-0.000300531
-0.000295546
-0.000290613
-0.000285734
-0.000280907
-0.000276135
-0.000271417
-0.000266756
-0.00026215
-0.000257603
-0.000253113
-0.000248682
-0.000244311
-0.00024
-0.000235751
-0.000231563
-0.000227438
-0.000223375
-0.000219376
-0.00021544
-0.000211568
-0.000207761
-0.000204018
-0.00020034
-0.000196728
-0.000193181
-0.000189699
-0.000186282
-0.000182931
-0.000179645
-0.000176424
-0.000173268
-0.000170176
-0.000167149
-0.000164186
-0.000161287
-0.00015845
-0.000155677
-0.000152965
-0.000150315
-0.000147726
-0.000145197
-0.000142727
-0.000140316
-0.000137963
-0.000135666
-0.000133426
-0.00013124
-0.000129108
-0.000127029
-0.000125002
-0.000123025
-0.000121096
-0.000119216
-0.000117382
-0.000115593
-0.000113846
-0.000112143
-0.000110478
-0.000108853
-0.000107263
-0.000105709
-0.000104187
-0.000102697
-0.000101234
-9.97991e-05
-9.83865e-05
-9.69973e-05
-9.56255e-05
-9.42724e-05
-9.29309e-05
-9.16031e-05
-9.02807e-05
-8.89663e-05
-8.76504e-05
-8.63365e-05
-8.50136e-05
-8.36862e-05
-8.23417e-05
-8.0986e-05
-7.9604e-05
-7.82035e-05
-7.67666e-05
-7.53032e-05
-7.37918e-05
-7.22457e-05
-7.06388e-05
-6.89888e-05
-6.72638e-05
-6.54871e-05
-6.36192e-05
-6.16905e-05
-5.96515e-05
-5.75426e-05
-5.53013e-05
-5.2982e-05
-5.05051e-05
-4.79434e-05
-4.5194e-05
-4.2354e-05
-3.92886e-05
-3.6129e-05
-3.26962e-05
-2.91716e-05
-2.53125e-05
-2.13755e-05
-1.70193e-05
-1.26218e-05
-7.67479e-06
-2.81604e-06
0.00181454
0.00171805
0.00148882
0.00114078
0.000757067
0.000408942
0.000125098
-9.28324e-05
-0.000250946
-0.000355851
-0.000415942
-0.000442601
-0.000448298
-0.000443443
-0.000434716
-0.000425601
-0.000417525
-0.000410789
-0.000405179
-0.000400312
-0.000395827
-0.000391457
-0.000387039
-0.000382493
-0.000377795
-0.000372954
-0.000367997
-0.000362953
-0.000357854
-0.000352724
-0.000347583
-0.000342446
-0.000337324
-0.000332223
-0.000327149
-0.000322104
-0.000317092
-0.000312112
-0.000307168
-0.000302261
-0.000297391
-0.000292561
-0.000287772
-0.000283026
-0.000278324
-0.000273667
-0.000269057
-0.000264496
-0.000259985
-0.000255526
-0.000251119
-0.000246766
-0.000242469
-0.000238228
-0.000234044
-0.000229918
-0.000225851
-0.000221844
-0.000217897
-0.000214012
-0.000210188
-0.000206426
-0.000202726
-0.00019909
-0.000195517
-0.000192007
-0.000188561
-0.000185179
-0.000181861
-0.000178607
-0.000175416
-0.000172289
-0.000169226
-0.000166226
-0.000163289
-0.000160414
-0.000157602
-0.000154851
-0.000152162
-0.000149534
-0.000146965
-0.000144457
-0.000142006
-0.000139614
-0.000137279
-0.000135001
-0.000132777
-0.000130608
-0.000128492
-0.000126429
-0.000124417
-0.000122454
-0.00012054
-0.000118674
-0.000116853
-0.000115078
-0.000113344
-0.000111653
-0.000110001
-0.000108388
-0.00010681
-0.000105267
-0.000103756
-0.000102277
-0.000100825
-9.94002e-05
-9.79978e-05
-9.66188e-05
-9.52568e-05
-9.39135e-05
-9.25815e-05
-9.12633e-05
-8.995e-05
-8.86449e-05
-8.73379e-05
-8.6033e-05
-8.47187e-05
-8.34002e-05
-8.2064e-05
-8.0717e-05
-7.9343e-05
-7.79513e-05
-7.65221e-05
-7.50674e-05
-7.35635e-05
-7.20261e-05
-7.04263e-05
-6.87851e-05
-6.7067e-05
-6.52992e-05
-6.34379e-05
-6.15184e-05
-5.94855e-05
-5.73862e-05
-5.51504e-05
-5.28412e-05
-5.03693e-05
-4.78183e-05
-4.50732e-05
-4.22451e-05
-3.9183e-05
-3.60369e-05
-3.26057e-05
-2.90967e-05
-2.52372e-05
-2.13187e-05
-1.69598e-05
-1.25848e-05
-7.64349e-06
-2.81971e-06
0.00162362
0.00153591
0.00135682
0.00108333
0.00076393
0.000457875
0.000199483
-3.35689e-06
-0.000154979
-0.000261907
-0.000330842
-0.000369828
-0.000388034
-0.000393938
-0.000393776
-0.000391289
-0.000388304
-0.000385489
-0.000382931
-0.000380487
-0.00037798
-0.000375273
-0.000372291
-0.000369007
-0.000365433
-0.000361599
-0.000357544
-0.000353311
-0.000348938
-0.000344461
-0.000339906
-0.000335296
-0.000330648
-0.000325976
-0.00032129
-0.000316598
-0.000311906
-0.00030722
-0.000302545
-0.000297884
-0.000293243
-0.000288623
-0.000284028
-0.000279463
-0.000274928
-0.000270428
-0.000265964
-0.000261539
-0.000257156
-0.000252816
-0.000248522
-0.000244275
-0.000240077
-0.000235929
-0.000231833
-0.000227791
-0.000223804
-0.000219871
-0.000215996
-0.000212178
-0.000208418
-0.000204717
-0.000201075
-0.000197494
-0.000193973
-0.000190514
-0.000187116
-0.000183779
-0.000180505
-0.000177293
-0.000174142
-0.000171054
-0.000168027
-0.000165063
-0.00016216
-0.000159318
-0.000156537
-0.000153816
-0.000151156
-0.000148556
-0.000146014
-0.000143531
-0.000141106
-0.000138738
-0.000136426
-0.00013417
-0.000131968
-0.000129821
-0.000127725
-0.000125681
-0.000123688
-0.000121744
-0.000119848
-0.000117999
-0.000116195
-0.000114436
-0.000112718
-0.000111043
-0.000109405
-0.000107807
-0.000106243
-0.000104715
-0.000103217
-0.000101751
-0.000100312
-9.89004e-05
-9.75103e-05
-9.61436e-05
-9.47934e-05
-9.3462e-05
-9.21413e-05
-9.08346e-05
-8.95323e-05
-8.82384e-05
-8.6942e-05
-8.56481e-05
-8.4344e-05
-8.30362e-05
-8.171e-05
-8.03735e-05
-7.90094e-05
-7.76281e-05
-7.62084e-05
-7.47644e-05
-7.32697e-05
-7.17429e-05
-7.01522e-05
-6.85217e-05
-6.68125e-05
-6.50557e-05
-6.32031e-05
-6.12951e-05
-5.92706e-05
-5.71834e-05
-5.49556e-05
-5.26593e-05
-5.01947e-05
-4.76578e-05
-4.49197e-05
-4.21073e-05
-3.90515e-05
-3.59234e-05
-3.24973e-05
-2.90091e-05
-2.51534e-05
-2.12592e-05
-1.69043e-05
-1.25573e-05
-7.63155e-06
-2.84268e-06
0.00146508
0.00138266
0.0012341
0.00101475
0.000751977
0.000488381
0.000256327
6.8554e-05
-7.55888e-05
-0.000181441
-0.000254892
-0.000302105
-0.000329808
-0.000344624
-0.000351978
-0.00035553
-0.000357316
-0.000358262
-0.000358686
-0.000358642
-0.00035811
-0.000357073
-0.000355538
-0.000353537
-0.000351114
-0.000348321
-0.000345213
-0.000341841
-0.000338251
-0.000334485
-0.000330578
-0.000326557
-0.000322447
-0.000318265
-0.000314027
-0.000309746
-0.000305432
-0.000301095
-0.00029674
-0.000292377
-0.00028801
-0.000283646
-0.000279289
-0.000274945
-0.000270617
-0.00026631
-0.000262027
-0.000257772
-0.000253548
-0.000249358
-0.000245204
-0.00024109
-0.000237017
-0.000232987
-0.000229003
-0.000225067
-0.00022118
-0.000217343
-0.000213557
-0.000209825
-0.000206147
-0.000202524
-0.000198956
-0.000195446
-0.000191992
-0.000188597
-0.000185261
-0.000181983
-0.000178765
-0.000175607
-0.000172508
-0.000169469
-0.00016649
-0.000163571
-0.000160711
-0.000157912
-0.000155171
-0.000152489
-0.000149866
-0.000147302
-0.000144795
-0.000142345
-0.000139952
-0.000137615
-0.000135333
-0.000133105
-0.000130931
-0.00012881
-0.00012674
-0.000124721
-0.000122752
-0.000120831
-0.000118957
-0.000117131
-0.000115348
-0.000113609
-0.000111911
-0.000110255
-0.000108636
-0.000107056
-0.00010551
-0.000103999
-0.000102518
-0.000101069
-9.9645e-05
-9.82489e-05
-9.68739e-05
-9.55222e-05
-9.41864e-05
-9.28694e-05
-9.15625e-05
-9.02697e-05
-8.89807e-05
-8.77003e-05
-8.64168e-05
-8.51361e-05
-8.38446e-05
-8.25496e-05
-8.12357e-05
-7.9912e-05
-7.85598e-05
-7.71913e-05
-7.57834e-05
-7.43522e-05
-7.28692e-05
-7.13553e-05
-6.97762e-05
-6.81588e-05
-6.6461e-05
-6.47179e-05
-6.28767e-05
-6.09832e-05
-5.897e-05
-5.68982e-05
-5.46815e-05
-5.24017e-05
-4.99481e-05
-4.74293e-05
-4.47021e-05
-4.19102e-05
-3.88652e-05
-3.57606e-05
-3.23451e-05
-2.88838e-05
-2.50391e-05
-2.11755e-05
-1.68351e-05
-1.25222e-05
-7.62505e-06
-2.87292e-06
0.00132867
0.00125107
0.00112395
0.000944431
0.000728381
0.000504397
0.000299044
0.000126893
-9.15465e-06
-0.000112368
-0.0001877
-0.000240193
-0.000274949
-0.000297028
-0.00031089
-0.000319858
-0.000326014
-0.000330462
-0.000333711
-0.000335978
-0.000337371
-0.000337975
-0.000337869
-0.000337134
-0.000335848
-0.000334086
-0.000331915
-0.000329397
-0.000326587
-0.000323532
-0.000320274
-0.000316848
-0.000313281
-0.000309599
-0.00030582
-0.000301963
-0.00029804
-0.000294064
-0.000290046
-0.000285996
-0.000281921
-0.000277829
-0.000273727
-0.000269622
-0.000265519
-0.000261423
-0.000257338
-0.000253271
-0.000249223
-0.0002452
-0.000241204
-0.000237239
-0.000233308
-0.000229413
-0.000225557
-0.000221742
-0.000217971
-0.000214244
-0.000210563
-0.000206931
-0.000203348
-0.000199816
-0.000196336
-0.000192909
-0.000189535
-0.000186217
-0.000182954
-0.000179746
-0.000176596
-0.000173502
-0.000170465
-0.000167486
-0.000164564
-0.0001617
-0.000158893
-0.000156144
-0.000153452
-0.000150818
-0.00014824
-0.000145719
-0.000143254
-0.000140845
-0.00013849
-0.000136191
-0.000133945
-0.000131753
-0.000129612
-0.000127524
-0.000125485
-0.000123497
-0.000121557
-0.000119665
-0.000117818
-0.000116018
-0.000114261
-0.000112547
-0.000110873
-0.00010924
-0.000107644
-0.000106086
-0.000104561
-0.000103071
-0.00010161
-0.00010018
-9.87759e-05
-9.73985e-05
-9.60416e-05
-9.47077e-05
-9.33891e-05
-9.20892e-05
-9.07989e-05
-8.95226e-05
-8.82496e-05
-8.69852e-05
-8.57172e-05
-8.44519e-05
-8.31755e-05
-8.18958e-05
-8.05966e-05
-7.9288e-05
-7.79503e-05
-7.6597e-05
-7.52035e-05
-7.37876e-05
-7.23188e-05
-7.08206e-05
-6.92557e-05
-6.76543e-05
-6.5971e-05
-6.42446e-05
-6.2418e-05
-6.05424e-05
-5.8544e-05
-5.64916e-05
-5.42896e-05
-5.20308e-05
-4.95923e-05
-4.70967e-05
-4.43853e-05
-4.16196e-05
-3.85914e-05
-3.55164e-05
-3.21193e-05
-2.86913e-05
-2.48683e-05
-2.10415e-05
-1.67306e-05
-1.24581e-05
-7.60663e-06
-2.89556e-06
0.0012099
0.00113741
0.00102711
0.000877635
0.000698851
0.000509585
0.000329968
0.00017387
4.65084e-05
-5.31261e-05
-0.000128699
-0.000184357
-0.00022413
-0.0002519
-0.000271205
-0.0002849
-0.000294973
-0.000302626
-0.000308512
-0.00031298
-0.000316243
-0.000318459
-0.000319766
-0.000320285
-0.000320126
-0.000319383
-0.000318138
-0.000316462
-0.00031442
-0.000312067
-0.00030945
-0.00030661
-0.00030358
-0.000300392
-0.000297068
-0.00029363
-0.000290095
-0.00028648
-0.000282797
-0.000279059
-0.000275275
-0.000271457
-0.000267611
-0.000263747
-0.00025987
-0.000255988
-0.000252105
-0.000248228
-0.000244362
-0.00024051
-0.000236677
-0.000232867
-0.000229083
-0.000225328
-0.000221606
-0.000217918
-0.000214268
-0.000210658
-0.000207089
-0.000203563
-0.000200083
-0.000196649
-0.000193263
-0.000189926
-0.000186639
-0.000183404
-0.000180221
-0.000177091
-0.000174014
-0.000170991
-0.000168023
-0.00016511
-0.000162252
-0.00015945
-0.000156702
-0.00015401
-0.000151374
-0.000148792
-0.000146266
-0.000143794
-0.000141377
-0.000139014
-0.000136704
-0.000134448
-0.000132244
-0.000130091
-0.00012799
-0.000125939
-0.000123936
-0.000121983
-0.000120077
-0.000118217
-0.000116402
-0.000114633
-0.000112905
-0.00011122
-0.000109574
-0.000107968
-0.000106398
-0.000104865
-0.000103365
-0.000101899
-0.000100461
-9.90538e-05
-9.76712e-05
-9.63153e-05
-9.49792e-05
-9.36658e-05
-9.2367e-05
-9.10867e-05
-8.98154e-05
-8.85579e-05
-8.73032e-05
-8.60572e-05
-8.48069e-05
-8.35595e-05
-8.23005e-05
-8.10383e-05
-7.97561e-05
-7.8465e-05
-7.71441e-05
-7.58084e-05
-7.44316e-05
-7.30337e-05
-7.15817e-05
-7.0102e-05
-6.8554e-05
-6.69717e-05
-6.53057e-05
-6.35995e-05
-6.17907e-05
-5.99368e-05
-5.79567e-05
-5.59278e-05
-5.37449e-05
-5.15117e-05
-4.90934e-05
-4.6626e-05
-4.39367e-05
-4.12025e-05
-3.81992e-05
-3.51593e-05
-3.17912e-05
-2.8402e-05
-2.46147e-05
-2.08306e-05
-1.65676e-05
-1.23422e-05
-7.5573e-06
-2.89468e-06
0.00110595
0.00103882
0.000942383
0.000816115
0.000666681
0.000506638
0.000350641
0.000210522
9.24116e-05
-2.8504e-06
-7.74866e-05
-0.000134726
-0.000177813
-0.000209788
-0.000233429
-0.000251096
-0.000264586
-0.000275111
-0.000283416
-0.000289949
-0.000294997
-0.000298777
-0.000301466
-0.000303218
-0.000304167
-0.000304426
-0.000304091
-0.000303245
-0.00030196
-0.000300298
-0.000298313
-0.000296053
-0.000293555
-0.000290856
-0.000287983
-0.000284961
-0.000281812
-0.000278554
-0.000275203
-0.000271775
-0.000268281
-0.000264734
-0.000261143
-0.000257517
-0.000253866
-0.000250195
-0.000246514
-0.000242826
-0.00023914
-0.000235458
-0.000231788
-0.000228132
-0.000224495
-0.00022088
-0.000217292
-0.000213732
-0.000210205
-0.000206711
-0.000203255
-0.000199837
-0.00019646
-0.000193126
-0.000189836
-0.000186591
-0.000183393
-0.000180243
-0.000177142
-0.000174092
-0.000171092
-0.000168143
-0.000165247
-0.000162403
-0.000159611
-0.000156873
-0.000154188
-0.000151556
-0.000148977
-0.000146452
-0.00014398
-0.000141561
-0.000139195
-0.000136881
-0.000134619
-0.000132408
-0.000130248
-0.000128139
-0.000126079
-0.000124069
-0.000122105
-0.00012019
-0.00011832
-0.000116496
-0.000114715
-0.000112979
-0.000111283
-0.000109629
-0.000108013
-0.000106437
-0.000104895
-0.00010339
-0.000101916
-0.000100476
-9.90637e-05
-9.76813e-05
-9.63225e-05
-9.499e-05
-9.36766e-05
-9.23855e-05
-9.11083e-05
-8.98493e-05
-8.85987e-05
-8.73619e-05
-8.61272e-05
-8.49012e-05
-8.36704e-05
-8.24426e-05
-8.12026e-05
-7.99598e-05
-7.86963e-05
-7.74245e-05
-7.61222e-05
-7.48062e-05
-7.3448e-05
-7.20703e-05
-7.06372e-05
-6.91783e-05
-6.76496e-05
-6.60891e-05
-6.4443e-05
-6.27601e-05
-6.09722e-05
-5.91434e-05
-5.71854e-05
-5.51839e-05
-5.30247e-05
-5.08212e-05
-4.84288e-05
-4.59939e-05
-4.33342e-05
-4.06357e-05
-3.7667e-05
-3.46668e-05
-3.13401e-05
-2.79944e-05
-2.42588e-05
-2.05229e-05
-1.63277e-05
-1.21571e-05
-7.46152e-06
-2.85803e-06
0.00101447
0.000952719
0.000867893
0.000759954
0.000633684
0.000497739
0.000362649
0.000237867
0.000129398
3.92494e-05
-3.34839e-05
-9.10778e-05
-0.000136097
-0.000170964
-0.000197876
-0.000218748
-0.000235133
-0.00024818
-0.000258665
-0.000267098
-0.00027382
-0.000279087
-0.000283105
-0.000286051
-0.000288078
-0.000289314
-0.000289868
-0.000289835
-0.000289293
-0.000288312
-0.000286952
-0.000285265
-0.000283295
-0.000281081
-0.000278656
-0.000276049
-0.000273284
-0.000270383
-0.000267365
-0.000264246
-0.000261042
-0.000257765
-0.000254428
-0.000251041
-0.000247614
-0.000244156
-0.000240674
-0.000237176
-0.000233668
-0.000230157
-0.000226648
-0.000223146
-0.000219655
-0.00021618
-0.000212725
-0.000209293
-0.000205887
-0.00020251
-0.000199166
-0.000195856
-0.000192582
-0.000189347
-0.000186152
-0.000183
-0.00017989
-0.000176826
-0.000173808
-0.000170837
-0.000167913
-0.000165039
-0.000162214
-0.00015944
-0.000156715
-0.000154042
-0.000151419
-0.000148849
-0.000146329
-0.000143861
-0.000141444
-0.000139078
-0.000136763
-0.0001345
-0.000132286
-0.000130123
-0.000128008
-0.000125943
-0.000123926
-0.000121957
-0.000120033
-0.000118157
-0.000116324
-0.000114537
-0.000112792
-0.000111089
-0.000109427
-0.000107805
-0.00010622
-0.000104674
-0.000103162
-0.000101685
-0.000100239
-9.88256e-05
-9.74392e-05
-9.60823e-05
-9.47482e-05
-9.344e-05
-9.21499e-05
-9.08819e-05
-8.96271e-05
-8.83903e-05
-8.71611e-05
-8.59458e-05
-8.47318e-05
-8.35267e-05
-8.2316e-05
-8.11088e-05
-7.98886e-05
-7.86662e-05
-7.74223e-05
-7.6171e-05
-7.48883e-05
-7.35932e-05
-7.22549e-05
-7.08989e-05
-6.94861e-05
-6.80498e-05
-6.65422e-05
-6.50055e-05
-6.33816e-05
-6.1724e-05
-5.99599e-05
-5.81586e-05
-5.62266e-05
-5.4255e-05
-5.21243e-05
-4.99533e-05
-4.75932e-05
-4.51936e-05
-4.25715e-05
-3.99119e-05
-3.69882e-05
-3.40309e-05
-3.07586e-05
-2.74607e-05
-2.37925e-05
-2.01108e-05
-1.60023e-05
-1.18955e-05
-7.31149e-06
-2.78092e-06
0.000933436
0.00087685
0.000801846
0.000708665
0.000600893
0.000484709
0.000367709
0.000257182
0.000158438
7.40133e-05
4.00201e-06
-5.29739e-05
-9.88328e-05
-0.000135501
-0.000164733
-0.000188076
-0.000206835
-0.000222041
-0.000234451
-0.000244599
-0.00025286
-0.000259513
-0.000264786
-0.00026887
-0.000271931
-0.00027411
-0.000275527
-0.000276283
-0.000276467
-0.000276154
-0.000275408
-0.000274287
-0.00027284
-0.000271108
-0.000269129
-0.000266935
-0.000264554
-0.000262009
-0.000259323
-0.000256514
-0.0002536
-0.000250595
-0.000247512
-0.000244365
-0.000241163
-0.000237918
-0.000234636
-0.000231328
-0.000228001
-0.00022466
-0.000221313
-0.000217965
-0.000214621
-0.000211286
-0.000207965
-0.00020466
-0.000201377
-0.000198118
-0.000194885
-0.000191683
-0.000188512
-0.000185377
-0.000182278
-0.000179217
-0.000176196
-0.000173218
-0.000170282
-0.00016739
-0.000164544
-0.000161744
-0.000158991
-0.000156286
-0.000153628
-0.00015102
-0.00014846
-0.00014595
-0.000143489
-0.000141078
-0.000138716
-0.000136404
-0.000134141
-0.000131928
-0.000129763
-0.000127646
-0.000125577
-0.000123557
-0.000121582
-0.000119654
-0.000117771
-0.000115933
-0.000114139
-0.000112388
-0.000110678
-0.00010901
-0.00010738
-0.000105791
-0.000104237
-0.000102722
-0.000101238
-9.97902e-05
-9.83717e-05
-9.69853e-05
-9.56249e-05
-9.42935e-05
-9.2984e-05
-9.17e-05
-9.04333e-05
-8.91885e-05
-8.79559e-05
-8.67414e-05
-8.55335e-05
-8.43396e-05
-8.31463e-05
-8.19622e-05
-8.07717e-05
-7.95853e-05
-7.8385e-05
-7.71833e-05
-7.59592e-05
-7.47288e-05
-7.3466e-05
-7.21924e-05
-7.08745e-05
-6.95408e-05
-6.81492e-05
-6.67364e-05
-6.52512e-05
-6.37393e-05
-6.21394e-05
-6.05083e-05
-5.87707e-05
-5.69981e-05
-5.50955e-05
-5.31552e-05
-5.10579e-05
-4.89209e-05
-4.65992e-05
-4.42366e-05
-4.16597e-05
-3.9041e-05
-3.61717e-05
-3.32603e-05
-3.00539e-05
-2.68081e-05
-2.32212e-05
-1.96001e-05
-1.55948e-05
-1.15619e-05
-7.10895e-06
-2.66777e-06
0.000861127
0.000809382
0.00074276
0.000661678
0.000568905
0.000468979
0.000367446
0.000269835
0.000180571
0.000102256
3.56253e-05
-1.99538e-05
-6.57966e-05
-0.000103388
-0.00013413
-0.000159273
-0.000179896
-0.00019689
-0.000210955
-0.000222615
-0.000232257
-0.000240176
-0.00024661
-0.00025176
-0.0002558
-0.000258877
-0.00026112
-0.000262639
-0.000263526
-0.000263863
-0.000263717
-0.000263151
-0.000262217
-0.000260962
-0.000259424
-0.00025764
-0.00025564
-0.000253451
-0.000251096
-0.000248598
-0.000245973
-0.00024324
-0.000240414
-0.000237507
-0.000234532
-0.0002315
-0.000228421
-0.000225304
-0.000222158
-0.000218989
-0.000215806
-0.000212613
-0.000209418
-0.000206224
-0.000203038
-0.000199862
-0.000196702
-0.000193561
-0.000190442
-0.000187348
-0.000184283
-0.000181247
-0.000178245
-0.000175277
-0.000172346
-0.000169454
-0.000166601
-0.00016379
-0.000161021
-0.000158296
-0.000155615
-0.00015298
-0.00015039
-0.000147847
-0.000145351
-0.000142902
-0.0001405
-0.000138147
-0.00013584
-0.000133582
-0.000131371
-0.000129208
-0.000127091
-0.000125022
-0.000122999
-0.000121023
-0.000119091
-0.000117204
-0.000115361
-0.000113563
-0.000111805
-0.000110091
-0.000108416
-0.000106783
-0.000105186
-0.000103629
-0.000102106
-0.000100621
-9.91664e-05
-9.77467e-05
-9.63554e-05
-9.49957e-05
-9.3661e-05
-9.23548e-05
-9.10696e-05
-8.98095e-05
-8.85659e-05
-8.73438e-05
-8.61332e-05
-8.49406e-05
-8.37538e-05
-8.25811e-05
-8.1408e-05
-8.02447e-05
-7.90741e-05
-7.79082e-05
-7.67276e-05
-7.55464e-05
-7.43421e-05
-7.31324e-05
-7.18898e-05
-7.06374e-05
-6.93403e-05
-6.80289e-05
-6.66592e-05
-6.527e-05
-6.38084e-05
-6.23214e-05
-6.07475e-05
-5.91429e-05
-5.74341e-05
-5.56904e-05
-5.38206e-05
-5.1912e-05
-4.98524e-05
-4.77502e-05
-4.54722e-05
-4.31478e-05
-4.06226e-05
-3.80465e-05
-3.52392e-05
-3.23767e-05
-2.92454e-05
-2.60566e-05
-2.25615e-05
-1.90085e-05
-1.51184e-05
-1.11708e-05
-6.86391e-06
-2.5302e-06
0.000796145
0.000748879
0.000689483
0.000618477
0.000538047
0.000451594
0.000363219
0.0002771
0.000196803
0.000124734
6.19569e-05
8.38997e-06
-3.67587e-05
-7.45706e-05
-0.000106147
-0.000132494
-0.000154496
-0.000172905
-0.000188341
-0.000201294
-0.000212146
-0.000221194
-0.000228681
-0.000234811
-0.00023976
-0.000243682
-0.000246708
-0.000248953
-0.000250515
-0.000251477
-0.000251912
-0.000251886
-0.000251454
-0.000250665
-0.000249561
-0.000248182
-0.000246559
-0.000244722
-0.000242697
-0.000240507
-0.000238172
-0.000235711
-0.00023314
-0.000230474
-0.000227727
-0.00022491
-0.000222034
-0.00021911
-0.000216146
-0.000213152
-0.000210133
-0.000207098
-0.000204052
-0.000201002
-0.000197952
-0.000194907
-0.000191872
-0.000188851
-0.000185847
-0.000182864
-0.000179904
-0.000176971
-0.000174066
-0.000171193
-0.000168354
-0.000165549
-0.000162781
-0.000160052
-0.000157362
-0.000154713
-0.000152105
-0.000149541
-0.00014702
-0.000144544
-0.000142112
-0.000139725
-0.000137384
-0.000135088
-0.000132838
-0.000130635
-0.000128476
-0.000126364
-0.000124297
-0.000122276
-0.000120299
-0.000118367
-0.000116479
-0.000114635
-0.000112832
-0.000111073
-0.000109354
-0.000107676
-0.000106037
-0.000104438
-0.000102874
-0.00010135
-9.98579e-05
-9.84024e-05
-9.69774e-05
-9.5586e-05
-9.42221e-05
-9.28891e-05
-9.15801e-05
-9.0299e-05
-8.9038e-05
-8.78017e-05
-8.6581e-05
-8.53816e-05
-8.41928e-05
-8.30219e-05
-8.1856e-05
-8.07043e-05
-7.95514e-05
-7.84085e-05
-7.72577e-05
-7.6112e-05
-7.49511e-05
-7.37902e-05
-7.26058e-05
-7.14167e-05
-7.01945e-05
-6.89631e-05
-6.76873e-05
-6.63978e-05
-6.50511e-05
-6.36849e-05
-6.22484e-05
-6.07861e-05
-5.92398e-05
-5.76618e-05
-5.5984e-05
-5.42691e-05
-5.24348e-05
-5.05581e-05
-4.85397e-05
-4.64729e-05
-4.42431e-05
-4.19582e-05
-3.94894e-05
-3.69582e-05
-3.42181e-05
-3.14081e-05
-2.8358e-05
-2.52318e-05
-2.18359e-05
-1.83591e-05
-1.45923e-05
-1.07419e-05
-6.59092e-06
-2.38248e-06
0.000737369
0.000694227
0.000641115
0.000578612
0.000508468
0.000433268
0.000356082
0.000280071
0.000208061
0.000142152
8.35136e-05
3.24251e-05
-1.14896e-05
-4.89564e-05
-8.08063e-05
-0.000107839
-0.000130772
-0.000150232
-0.000166751
-0.000180771
-0.00019265
-0.000202679
-0.000211098
-0.00021811
-0.00022389
-0.000228592
-0.000232349
-0.000235278
-0.000237478
-0.000239036
-0.000240029
-0.000240523
-0.000240577
-0.000240241
-0.000239561
-0.000238578
-0.000237325
-0.000235836
-0.000234136
-0.000232252
-0.000230204
-0.000228014
-0.000225698
-0.000223272
-0.000220752
-0.000218151
-0.000215479
-0.000212748
-0.000209969
-0.000207149
-0.000204297
-0.000201421
-0.000198526
-0.000195621
-0.000192709
-0.000189797
-0.000186889
-0.00018399
-0.000181102
-0.000178231
-0.00017538
-0.00017255
-0.000169746
-0.000166969
-0.000164222
-0.000161507
-0.000158826
-0.00015618
-0.00015357
-0.000150999
-0.000148467
-0.000145976
-0.000143525
-0.000141117
-0.000138751
-0.000136428
-0.000134148
-0.000131912
-0.00012972
-0.000127572
-0.000125468
-0.000123408
-0.000121392
-0.00011942
-0.00011749
-0.000115605
-0.00011376
-0.000111959
-0.000110198
-0.000108479
-0.000106799
-0.000105159
-0.000103556
-0.000101992
-0.000100463
-9.89706e-05
-9.75107e-05
-9.6086e-05
-9.46907e-05
-9.33282e-05
-9.19921e-05
-9.06862e-05
-8.94033e-05
-8.81477e-05
-8.69113e-05
-8.5699e-05
-8.45016e-05
-8.33251e-05
-8.21585e-05
-8.10095e-05
-7.98649e-05
-7.87341e-05
-7.76019e-05
-7.64794e-05
-7.53489e-05
-7.42233e-05
-7.30827e-05
-7.19419e-05
-7.07781e-05
-6.96094e-05
-6.84083e-05
-6.71979e-05
-6.59444e-05
-6.46765e-05
-6.33539e-05
-6.20107e-05
-6.06006e-05
-5.9163e-05
-5.76461e-05
-5.60948e-05
-5.445e-05
-5.27643e-05
-5.09677e-05
-4.91236e-05
-4.7149e-05
-4.51191e-05
-4.29404e-05
-4.06972e-05
-3.82882e-05
-3.58049e-05
-3.31353e-05
-3.03821e-05
-2.74168e-05
-2.43594e-05
-2.1067e-05
-1.76749e-05
-1.40361e-05
-1.02944e-05
-6.30463e-06
-2.23695e-06
0.000683899
0.000644544
0.000596939
0.000541687
0.000480205
0.000414478
0.000346823
0.000279647
0.000215172
0.000155171
0.000100789
5.25062e-05
1.0248e-05
-2.64157e-05
-5.80763e-05
-8.53509e-05
-0.000108815
-0.000128982
-0.0001463
-0.000161156
-0.000173875
-0.000184731
-0.000193955
-0.000201743
-0.000208266
-0.000213676
-0.000218104
-0.000221666
-0.000224463
-0.000226583
-0.000228105
-0.000229095
-0.000229614
-0.000229715
-0.000229445
-0.000228846
-0.000227956
-0.000226806
-0.000225426
-0.000223842
-0.000222078
-0.000220155
-0.000218092
-0.000215906
-0.000213613
-0.000211226
-0.000208758
-0.000206222
-0.000203626
-0.000200982
-0.000198297
-0.000195581
-0.000192839
-0.00019008
-0.000187308
-0.00018453
-0.000181751
-0.000178975
-0.000176207
-0.00017345
-0.000170708
-0.000167984
-0.000165282
-0.000162603
-0.000159951
-0.000157328
-0.000154734
-0.000152174
-0.000149647
-0.000147156
-0.000144701
-0.000142284
-0.000139906
-0.000137567
-0.000135269
-0.000133011
-0.000130795
-0.000128621
-0.000126488
-0.000124398
-0.000122349
-0.000120343
-0.000118379
-0.000116458
-0.000114577
-0.000112738
-0.00011094
-0.000109183
-0.000107465
-0.000105787
-0.000104147
-0.000102546
-0.00010098
-9.94528e-05
-9.79586e-05
-9.65005e-05
-9.50735e-05
-9.36805e-05
-9.2316e-05
-9.09832e-05
-8.96759e-05
-8.83978e-05
-8.7142e-05
-8.59126e-05
-8.47017e-05
-8.35141e-05
-8.23409e-05
-8.11878e-05
-8.00442e-05
-7.89175e-05
-7.77951e-05
-7.66858e-05
-7.55751e-05
-7.44734e-05
-7.33641e-05
-7.2259e-05
-7.11395e-05
-7.00193e-05
-6.8877e-05
-6.77291e-05
-6.65504e-05
-6.53611e-05
-6.41312e-05
-6.28854e-05
-6.15881e-05
-6.02683e-05
-5.88862e-05
-5.74739e-05
-5.5988e-05
-5.44642e-05
-5.28542e-05
-5.11988e-05
-4.94418e-05
-4.76317e-05
-4.5703e-05
-4.37118e-05
-4.15864e-05
-3.9388e-05
-3.70408e-05
-3.46095e-05
-3.20124e-05
-2.93208e-05
-2.64425e-05
-2.34601e-05
-2.02735e-05
-1.69746e-05
-1.34659e-05
-9.8433e-06
-6.01651e-06
-2.10131e-06
0.000634999
0.000599119
0.000556369
0.000507354
0.00045323
0.000395531
0.000336023
0.000276548
0.000218854
0.000164409
0.000114265
6.89873e-05
2.87023e-05
-6.79214e-06
-3.78833e-05
-6.50257e-05
-8.86695e-05
-0.00010923
-0.000127079
-0.000142544
-0.000155915
-0.000167441
-0.000177336
-0.000185789
-0.000192962
-0.000199
-0.000204032