/*--------------------------------*- C++ -*----------------------------------*\
| =========                 |                                                 |
| \\      /  F ield         | OpenFOAM: The Open Source CFD Toolbox           |
|  \\    /   O peration     | Version:  2.3.0                                 |
|   \\  /    A nd           | Web:      www.OpenFOAM.org                      |
|    \\/     M anipulation  |                                                 |
\*---------------------------------------------------------------------------*/
FoamFile
{
    version     2.0;
    format      ascii;
    class       volVectorField;
    location    "0.65";
    object      U;
}
// * * * * * * * * * * * * * * * * * * * * * * * * * * * * * * * * * * * * * //

dimensions      [0 1 -1 0 0 0 0];

internalField   nonuniform List<vector> 
6875
(
(0.171147 0.00596328 0)
(0.154689 0.00603335 0)
(0.138868 0.00561478 0)
(0.12387 0.00501628 0)
(0.110107 0.00435513 0)
(0.0977479 0.00368469 0)
(0.0868047 0.00304167 0)
(0.0772433 0.00245148 0)
(0.0690077 0.00192957 0)
(0.062013 0.00148376 0)
(0.0561454 0.00111572 0)
(0.0512719 0.00082193 0)
(0.0472515 0.000594994 0)
(0.0439451 0.000425164 0)
(0.0412226 0.000301899 0)
(0.0389681 0.00021506 0)
(0.0370828 0.000155655 0)
(0.0354852 0.000116179 0)
(0.0341105 9.06685e-05 0)
(0.0329085 7.45816e-05 0)
(0.0318411 6.45967e-05 0)
(0.0308801 5.83844e-05 0)
(0.0300046 5.43817e-05 0)
(0.0291994 5.15903e-05 0)
(0.0284534 4.94085e-05 0)
(0.0277581 4.74981e-05 0)
(0.0271073 4.56874e-05 0)
(0.0264958 4.3903e-05 0)
(0.0259197 4.21253e-05 0)
(0.0253755 4.03602e-05 0)
(0.0248605 3.86235e-05 0)
(0.0243722 3.69319e-05 0)
(0.0239082 3.52994e-05 0)
(0.0234668 3.37357e-05 0)
(0.023046 3.22466e-05 0)
(0.0226444 3.08345e-05 0)
(0.0222604 2.94991e-05 0)
(0.0218929 2.82386e-05 0)
(0.0215406 2.70496e-05 0)
(0.0212026 2.59286e-05 0)
(0.0208778 2.48713e-05 0)
(0.0205654 2.38737e-05 0)
(0.0202646 2.29317e-05 0)
(0.0199748 2.20415e-05 0)
(0.0196951 2.11993e-05 0)
(0.0194252 2.04019e-05 0)
(0.0191643 1.9646e-05 0)
(0.0189121 1.89289e-05 0)
(0.018668 1.82478e-05 0)
(0.0184316 1.76003e-05 0)
(0.0182026 1.69842e-05 0)
(0.0179805 1.63975e-05 0)
(0.0177651 1.58382e-05 0)
(0.017556 1.53046e-05 0)
(0.0173529 1.47951e-05 0)
(0.0171556 1.43083e-05 0)
(0.0169638 1.38427e-05 0)
(0.0167773 1.33973e-05 0)
(0.0165958 1.29707e-05 0)
(0.0164192 1.25619e-05 0)
(0.0162472 1.21699e-05 0)
(0.0160797 1.17938e-05 0)
(0.0159165 1.14328e-05 0)
(0.0157575 1.10861e-05 0)
(0.0156024 1.07529e-05 0)
(0.0154512 1.04325e-05 0)
(0.0153037 1.01244e-05 0)
(0.0151598 9.82786e-06 0)
(0.0150194 9.54246e-06 0)
(0.0148823 9.26767e-06 0)
(0.0147485 9.00301e-06 0)
(0.0146178 8.74808e-06 0)
(0.0144902 8.50248e-06 0)
(0.0143655 8.26585e-06 0)
(0.0142437 8.03788e-06 0)
(0.0141247 7.81827e-06 0)
(0.0140084 7.60677e-06 0)
(0.0138947 7.40316e-06 0)
(0.0137836 7.20724e-06 0)
(0.013675 7.01887e-06 0)
(0.0135687 6.83791e-06 0)
(0.0134648 6.66428e-06 0)
(0.0133632 6.49796e-06 0)
(0.0132638 6.33893e-06 0)
(0.0131665 6.18728e-06 0)
(0.0130712 6.04311e-06 0)
(0.012978 5.9066e-06 0)
(0.0128867 5.77806e-06 0)
(0.0127972 5.65788e-06 0)
(0.0127095 5.54661e-06 0)
(0.0126235 5.44508e-06 0)
(0.012539 5.35444e-06 0)
(0.012456 5.27656e-06 0)
(0.0123742 5.21456e-06 0)
(0.0122936 5.1743e-06 0)
(0.0122138 5.16815e-06 0)
(0.0121342 5.23033e-06 0)
(0.0120532 5.42309e-06 0)
(0.0119836 4.85381e-06 0)
(0.0117707 3.00218e-05 0)
(0.189981 0.00940789 0)
(0.187638 0.00991283 0)
(0.183682 0.0096872 0)
(0.178474 0.00918906 0)
(0.172519 0.00855626 0)
(0.166167 0.00783498 0)
(0.159642 0.00706318 0)
(0.153112 0.00627573 0)
(0.146711 0.00550188 0)
(0.140542 0.00476561 0)
(0.13467 0.00408568 0)
(0.129138 0.00347501 0)
(0.123962 0.00294039 0)
(0.119147 0.00248302 0)
(0.114683 0.00209947 0)
(0.110556 0.00178306 0)
(0.106742 0.00152526 0)
(0.10322 0.00131684 0)
(0.0999647 0.00114884 0)
(0.0969517 0.00101317 0)
(0.094158 0.000902904 0)
(0.0915622 0.000812374 0)
(0.0891446 0.000737095 0)
(0.0868875 0.000673613 0)
(0.0847749 0.000619321 0)
(0.0827928 0.000572275 0)
(0.0809286 0.000531032 0)
(0.0791713 0.000494522 0)
(0.0775111 0.00046194 0)
(0.0759395 0.000432672 0)
(0.0744488 0.000406241 0)
(0.0730323 0.000382265 0)
(0.0716838 0.000360435 0)
(0.0703981 0.000340491 0)
(0.0691704 0.000322216 0)
(0.0679963 0.000305422 0)
(0.066872 0.000289949 0)
(0.065794 0.000275656 0)
(0.0647591 0.00026242 0)
(0.0637646 0.000250135 0)
(0.0628077 0.000238707 0)
(0.0618862 0.000228053 0)
(0.0609979 0.000218099 0)
(0.0601408 0.000208783 0)
(0.0593131 0.000200047 0)
(0.0585132 0.000191841 0)
(0.0577396 0.00018412 0)
(0.0569909 0.000176843 0)
(0.0562657 0.000169976 0)
(0.0555629 0.000163485 0)
(0.0548814 0.000157342 0)
(0.0542202 0.00015152 0)
(0.0535783 0.000145997 0)
(0.0529548 0.000140751 0)
(0.0523489 0.000135761 0)
(0.0517598 0.000131012 0)
(0.0511869 0.000126486 0)
(0.0506294 0.000122168 0)
(0.0500867 0.000118045 0)
(0.0495583 0.000114105 0)
(0.0490435 0.000110336 0)
(0.0485419 0.000106728 0)
(0.0480531 0.000103271 0)
(0.0475764 9.99551e-05 0)
(0.0471116 9.67734e-05 0)
(0.0466581 9.37177e-05 0)
(0.0462157 9.07808e-05 0)
(0.045784 8.79563e-05 0)
(0.0453626 8.52381e-05 0)
(0.0449512 8.26204e-05 0)
(0.0445495 8.00981e-05 0)
(0.0441573 7.76662e-05 0)
(0.0437742 7.53204e-05 0)
(0.0434 7.30564e-05 0)
(0.0430345 7.08703e-05 0)
(0.0426775 6.87587e-05 0)
(0.0423286 6.67184e-05 0)
(0.0419878 6.47463e-05 0)
(0.0416548 6.28398e-05 0)
(0.0413294 6.09966e-05 0)
(0.0410115 5.92146e-05 0)
(0.0407009 5.7492e-05 0)
(0.0403973 5.58273e-05 0)
(0.0401008 5.42194e-05 0)
(0.0398109 5.26676e-05 0)
(0.0395277 5.11715e-05 0)
(0.039251 4.97313e-05 0)
(0.0389805 4.83478e-05 0)
(0.0387161 4.70224e-05 0)
(0.0384577 4.57576e-05 0)
(0.0382049 4.45572e-05 0)
(0.0379577 4.34273e-05 0)
(0.0377156 4.23776e-05 0)
(0.0374785 4.14249e-05 0)
(0.0372459 4.06015e-05 0)
(0.0370171 3.99781e-05 0)
(0.0367911 3.97366e-05 0)
(0.0365645 4.03402e-05 0)
(0.0363529 4.43805e-05 0)
(0.0359284 0.000102768 0)
(0.192967 0.00904912 0)
(0.193739 0.0100019 0)
(0.193844 0.0103311 0)
(0.193138 0.0103324 0)
(0.191737 0.0101055 0)
(0.189767 0.00968908 0)
(0.187319 0.00912796 0)
(0.184485 0.0084719 0)
(0.18136 0.00776618 0)
(0.178033 0.00704913 0)
(0.174583 0.00635154 0)
(0.171073 0.00569605 0)
(0.167556 0.00509709 0)
(0.164071 0.00456168 0)
(0.160647 0.00409083 0)
(0.157304 0.00368133 0)
(0.154054 0.00332736 0)
(0.150905 0.00302195 0)
(0.147861 0.00275796 0)
(0.144922 0.00252874 0)
(0.142088 0.00232849 0)
(0.139355 0.00215233 0)
(0.136722 0.00199626 0)
(0.134184 0.00185707 0)
(0.131739 0.0017322 0)
(0.129383 0.00161958 0)
(0.127112 0.00151758 0)
(0.124924 0.00142485 0)
(0.122814 0.00134028 0)
(0.120779 0.00126294 0)
(0.118815 0.00119203 0)
(0.116921 0.00112688 0)
(0.115092 0.00106689 0)
(0.113325 0.00101154 0)
(0.111618 0.000960372 0)
(0.109968 0.000912978 0)
(0.108373 0.000868997 0)
(0.106829 0.00082811 0)
(0.105334 0.000790028 0)
(0.103886 0.000754498 0)
(0.102483 0.000721291 0)
(0.101123 0.000690203 0)
(0.0998039 0.000661052 0)
(0.0985238 0.000633674 0)
(0.0972809 0.000607923 0)
(0.0960738 0.000583666 0)
(0.0949008 0.000560785 0)
(0.0937604 0.000539172 0)
(0.0926514 0.00051873 0)
(0.0915724 0.000499372 0)
(0.0905222 0.000481018 0)
(0.0894997 0.000463595 0)
(0.0885038 0.000447038 0)
(0.0875334 0.000431286 0)
(0.0865876 0.000416285 0)
(0.0856654 0.000401984 0)
(0.0847661 0.000388338 0)
(0.0838888 0.000375303 0)
(0.0830328 0.000362841 0)
(0.0821972 0.000350917 0)
(0.0813815 0.000339496 0)
(0.080585 0.000328549 0)
(0.079807 0.000318047 0)
(0.0790471 0.000307964 0)
(0.0783046 0.000298275 0)
(0.077579 0.000288959 0)
(0.0768698 0.000279994 0)
(0.0761767 0.000271362 0)
(0.0754991 0.000263042 0)
(0.0748365 0.00025502 0)
(0.0741888 0.000247279 0)
(0.0735554 0.000239804 0)
(0.0729359 0.000232583 0)
(0.0723302 0.000225602 0)
(0.0717378 0.000218849 0)
(0.0711585 0.000212314 0)
(0.0705919 0.000205987 0)
(0.0700379 0.000199858 0)
(0.0694961 0.00019392 0)
(0.0689663 0.000188163 0)
(0.0684483 0.000182583 0)
(0.0679418 0.000177172 0)
(0.0674467 0.000171925 0)
(0.0669627 0.000166838 0)
(0.0664897 0.000161908 0)
(0.0660273 0.000157133 0)
(0.0655755 0.000152511 0)
(0.065134 0.000148044 0)
(0.0647027 0.000143734 0)
(0.0642812 0.000139586 0)
(0.0638694 0.000135608 0)
(0.0634669 0.000131815 0)
(0.0630736 0.000128229 0)
(0.0626889 0.000124889 0)
(0.0623123 0.000121873 0)
(0.0619432 0.00011935 0)
(0.0615802 0.000117752 0)
(0.0612197 0.000118373 0)
(0.0608719 0.0001302 0)
(0.0603241 0.000202789 0)
(0.193991 0.00841645 0)
(0.19515 0.00946905 0)
(0.19619 0.0100227 0)
(0.196897 0.0102616 0)
(0.19725 0.0102684 0)
(0.197256 0.0100753 0)
(0.196913 0.00971834 0)
(0.196231 0.00924039 0)
(0.195235 0.00868344 0)
(0.193965 0.00808489 0)
(0.192464 0.00747651 0)
(0.190778 0.0068835 0)
(0.188948 0.00632384 0)
(0.187012 0.00580858 0)
(0.185 0.00534282 0)
(0.18294 0.00492706 0)
(0.180851 0.00455868 0)
(0.178748 0.00423326 0)
(0.176642 0.00394558 0)
(0.174543 0.00369034 0)
(0.172456 0.00346263 0)
(0.170385 0.00325814 0)
(0.168335 0.00307323 0)
(0.166306 0.0029049 0)
(0.164302 0.00275075 0)
(0.162325 0.00260884 0)
(0.160374 0.00247763 0)
(0.158452 0.00235588 0)
(0.15656 0.00224258 0)
(0.154699 0.00213688 0)
(0.152868 0.0020381 0)
(0.151069 0.00194562 0)
(0.149301 0.00185893 0)
(0.147565 0.00177755 0)
(0.145862 0.00170106 0)
(0.14419 0.00162911 0)
(0.14255 0.00156134 0)
(0.140942 0.00149745 0)
(0.139365 0.00143715 0)
(0.137819 0.0013802 0)
(0.136304 0.00132634 0)
(0.134819 0.00127537 0)
(0.133364 0.00122707 0)
(0.131938 0.00118128 0)
(0.13054 0.00113782 0)
(0.129171 0.00109653 0)
(0.127829 0.00105728 0)
(0.126514 0.00101992 0)
(0.125225 0.000984337 0)
(0.123963 0.000950419 0)
(0.122725 0.000918059 0)
(0.121513 0.000887161 0)
(0.120324 0.000857636 0)
(0.119159 0.000829399 0)
(0.118018 0.000802375 0)
(0.116899 0.000776491 0)
(0.115801 0.00075168 0)
(0.114726 0.000727881 0)
(0.113672 0.000705035 0)
(0.112638 0.00068309 0)
(0.111624 0.000661994 0)
(0.11063 0.0006417 0)
(0.109656 0.000622166 0)
(0.1087 0.000603349 0)
(0.107763 0.000585212 0)
(0.106844 0.000567717 0)
(0.105943 0.000550833 0)
(0.105059 0.000534526 0)
(0.104192 0.000518768 0)
(0.103342 0.00050353 0)
(0.102509 0.000488787 0)
(0.101691 0.000474514 0)
(0.10089 0.000460687 0)
(0.100104 0.000447286 0)
(0.0993336 0.00043429 0)
(0.0985784 0.00042168 0)
(0.0978381 0.000409439 0)
(0.0971125 0.000397551 0)
(0.0964014 0.000386001 0)
(0.0957046 0.000374775 0)
(0.095022 0.00036386 0)
(0.0943533 0.000353246 0)
(0.0936984 0.000342923 0)
(0.0930571 0.000332883 0)
(0.0924292 0.00032312 0)
(0.0918147 0.000313628 0)
(0.0912133 0.000304405 0)
(0.0906249 0.000295453 0)
(0.0900493 0.000286773 0)
(0.0894863 0.000278375 0)
(0.0889357 0.00027027 0)
(0.0883974 0.000262483 0)
(0.0878709 0.000255049 0)
(0.087356 0.000248034 0)
(0.0868522 0.000241565 0)
(0.0863586 0.000235918 0)
(0.085874 0.000231805 0)
(0.0853956 0.000231494 0)
(0.0849304 0.000247094 0)
(0.0842952 0.000317688 0)
(0.194701 0.00791827 0)
(0.195736 0.0089132 0)
(0.196834 0.00950795 0)
(0.197825 0.0098222 0)
(0.198665 0.00992912 0)
(0.199336 0.00985847 0)
(0.199814 0.00963657 0)
(0.200076 0.00929599 0)
(0.200114 0.00887058 0)
(0.199934 0.00839204 0)
(0.199553 0.00788857 0)
(0.198991 0.00738378 0)
(0.198273 0.00689577 0)
(0.197423 0.00643687 0)
(0.196466 0.00601414 0)
(0.195422 0.00563031 0)
(0.194308 0.00528493 0)
(0.193138 0.00497549 0)
(0.191924 0.00469835 0)
(0.190675 0.00444947 0)
(0.189396 0.00422489 0)
(0.188093 0.00402099 0)
(0.18677 0.00383464 0)
(0.18543 0.00366323 0)
(0.184076 0.0035046 0)
(0.182711 0.00335703 0)
(0.181337 0.00321914 0)
(0.179956 0.00308981 0)
(0.17857 0.00296814 0)
(0.177181 0.00285339 0)
(0.17579 0.00274493 0)
(0.174399 0.00264226 0)
(0.17301 0.00254491 0)
(0.171623 0.00245248 0)
(0.17024 0.00236464 0)
(0.168863 0.00228106 0)
(0.167492 0.00220145 0)
(0.166128 0.00212557 0)
(0.164772 0.00205318 0)
(0.163426 0.00198405 0)
(0.162089 0.00191799 0)
(0.160762 0.00185482 0)
(0.159447 0.00179437 0)
(0.158143 0.00173649 0)
(0.156852 0.00168103 0)
(0.155572 0.00162785 0)
(0.154306 0.00157683 0)
(0.153053 0.00152785 0)
(0.151813 0.00148081 0)
(0.150587 0.0014356 0)
(0.149375 0.00139213 0)
(0.148177 0.00135031 0)
(0.146993 0.00131005 0)
(0.145823 0.00127128 0)
(0.144668 0.00123392 0)
(0.143528 0.0011979 0)
(0.142402 0.00116315 0)
(0.14129 0.00112962 0)
(0.140193 0.00109724 0)
(0.139111 0.00106597 0)
(0.138043 0.00103574 0)
(0.13699 0.0010065 0)
(0.135952 0.000978215 0)
(0.134928 0.000950835 0)
(0.133918 0.000924318 0)
(0.132923 0.000898623 0)
(0.131942 0.000873713 0)
(0.130976 0.000849551 0)
(0.130024 0.000826104 0)
(0.129086 0.000803339 0)
(0.128162 0.000781224 0)
(0.127252 0.000759732 0)
(0.126356 0.000738833 0)
(0.125474 0.000718503 0)
(0.124606 0.000698716 0)
(0.123752 0.000679449 0)
(0.122912 0.00066068 0)
(0.122086 0.000642388 0)
(0.121273 0.000624555 0)
(0.120474 0.000607164 0)
(0.119688 0.000590197 0)
(0.118917 0.000573642 0)
(0.118159 0.000557485 0)
(0.117414 0.000541715 0)
(0.116683 0.000526326 0)
(0.115965 0.00051131 0)
(0.115261 0.000496665 0)
(0.114571 0.000482393 0)
(0.113893 0.000468497 0)
(0.113229 0.000454989 0)
(0.112578 0.000441889 0)
(0.111941 0.000429229 0)
(0.111316 0.000417062 0)
(0.110703 0.000405478 0)
(0.110103 0.000394653 0)
(0.109515 0.000384968 0)
(0.108937 0.000377382 0)
(0.108368 0.000374873 0)
(0.107816 0.000389435 0)
(0.10712 0.000446698 0)
(0.195301 0.00749092 0)
(0.196168 0.00838952 0)
(0.197149 0.00897453 0)
(0.198112 0.00931556 0)
(0.199011 0.00947053 0)
(0.199826 0.009467 0)
(0.200535 0.0093266 0)
(0.201113 0.00907553 0)
(0.201546 0.00874205 0)
(0.201827 0.0083533 0)
(0.201961 0.00793384 0)
(0.201956 0.00750473 0)
(0.201824 0.00708276 0)
(0.201581 0.00667997 0)
(0.201242 0.00630395 0)
(0.200821 0.00595847 0)
(0.200332 0.00564433 0)
(0.199785 0.00536033 0)
(0.199188 0.005104 0)
(0.198549 0.00487231 0)
(0.197873 0.0046621 0)
(0.197164 0.00447034 0)
(0.196425 0.00429436 0)
(0.195657 0.00413184 0)
(0.194865 0.00398085 0)
(0.194048 0.00383981 0)
(0.193209 0.00370742 0)
(0.192349 0.00358267 0)
(0.19147 0.00346469 0)
(0.190572 0.00335279 0)
(0.189658 0.0032464 0)
(0.188728 0.00314505 0)
(0.187784 0.00304832 0)
(0.186827 0.00295585 0)
(0.185858 0.00286734 0)
(0.184878 0.00278252 0)
(0.183889 0.00270114 0)
(0.182891 0.00262297 0)
(0.181885 0.00254783 0)
(0.180873 0.00247553 0)
(0.179856 0.00240591 0)
(0.178833 0.00233882 0)
(0.177807 0.00227413 0)
(0.176777 0.0022117 0)
(0.175746 0.00215142 0)
(0.174713 0.00209318 0)
(0.173679 0.00203688 0)
(0.172645 0.00198243 0)
(0.171612 0.00192975 0)
(0.17058 0.00187874 0)
(0.16955 0.00182934 0)
(0.168522 0.00178148 0)
(0.167497 0.00173508 0)
(0.166475 0.00169008 0)
(0.165457 0.00164642 0)
(0.164444 0.00160406 0)
(0.163435 0.00156292 0)
(0.162432 0.00152297 0)
(0.161434 0.00148415 0)
(0.160442 0.00144641 0)
(0.159456 0.00140972 0)
(0.158477 0.00137403 0)
(0.157504 0.00133929 0)
(0.156539 0.00130548 0)
(0.155581 0.00127256 0)
(0.154631 0.00124048 0)
(0.153689 0.00120922 0)
(0.152754 0.00117874 0)
(0.151829 0.00114901 0)
(0.150912 0.00112001 0)
(0.150003 0.0010917 0)
(0.149104 0.00106405 0)
(0.148214 0.00103705 0)
(0.147333 0.00101066 0)
(0.146462 0.000984857 0)
(0.145601 0.000959625 0)
(0.144749 0.000934941 0)
(0.143908 0.000910782 0)
(0.143077 0.000887132 0)
(0.142256 0.000863972 0)
(0.141446 0.000841287 0)
(0.140647 0.000819063 0)
(0.139858 0.000797288 0)
(0.139081 0.000775951 0)
(0.138314 0.000755045 0)
(0.137559 0.000734566 0)
(0.136815 0.000714514 0)
(0.136083 0.00069489 0)
(0.135362 0.000675706 0)
(0.134653 0.000656977 0)
(0.133955 0.000638731 0)
(0.13327 0.00062101 0)
(0.132596 0.000603883 0)
(0.131934 0.000587468 0)
(0.131283 0.000571984 0)
(0.130643 0.00055789 0)
(0.130013 0.000546301 0)
(0.129394 0.000540368 0)
(0.128795 0.000549874 0)
(0.128072 0.00058692 0)
(0.195824 0.00712555 0)
(0.196555 0.00792771 0)
(0.197405 0.00848644 0)
(0.198276 0.00883498 0)
(0.199121 0.00901474 0)
(0.199918 0.00905044 0)
(0.200648 0.00896136 0)
(0.201292 0.0087698 0)
(0.201834 0.00850014 0)
(0.202269 0.00817606 0)
(0.202596 0.00781919 0)
(0.20282 0.00744828 0)
(0.202947 0.00707858 0)
(0.202988 0.00672146 0)
(0.202953 0.00638454 0)
(0.202854 0.00607206 0)
(0.2027 0.00578565 0)
(0.202498 0.00552498 0)
(0.202257 0.00528849 0)
(0.20198 0.00507391 0)
(0.201673 0.0048787 0)
(0.201337 0.00470036 0)
(0.200975 0.00453656 0)
(0.200589 0.00438522 0)
(0.20018 0.0042446 0)
(0.199748 0.00411322 0)
(0.199295 0.00398986 0)
(0.19882 0.00387353 0)
(0.198326 0.0037634 0)
(0.197812 0.0036588 0)
(0.197278 0.00355917 0)
(0.196726 0.00346404 0)
(0.196157 0.00337301 0)
(0.19557 0.00328574 0)
(0.194967 0.00320193 0)
(0.194347 0.00312132 0)
(0.193713 0.00304368 0)
(0.193064 0.00296882 0)
(0.192401 0.00289653 0)
(0.191725 0.00282667 0)
(0.191036 0.00275908 0)
(0.190335 0.00269363 0)
(0.189623 0.00263019 0)
(0.1889 0.00256866 0)
(0.188167 0.00250893 0)
(0.187425 0.00245092 0)
(0.186674 0.00239453 0)
(0.185914 0.00233969 0)
(0.185148 0.00228633 0)
(0.184374 0.00223438 0)
(0.183593 0.00218378 0)
(0.182807 0.00213447 0)
(0.182016 0.00208639 0)
(0.181219 0.0020395 0)
(0.180419 0.00199375 0)
(0.179614 0.00194909 0)
(0.178807 0.00190548 0)
(0.177997 0.00186289 0)
(0.177184 0.00182127 0)
(0.17637 0.00178058 0)
(0.175555 0.0017408 0)
(0.174738 0.00170189 0)
(0.173921 0.00166382 0)
(0.173105 0.00162655 0)
(0.172288 0.00159007 0)
(0.171473 0.00155433 0)
(0.170658 0.00151933 0)
(0.169846 0.00148502 0)
(0.169035 0.00145138 0)
(0.168226 0.0014184 0)
(0.167421 0.00138604 0)
(0.166618 0.00135428 0)
(0.165819 0.00132311 0)
(0.165024 0.00129251 0)
(0.164232 0.00126244 0)
(0.163445 0.0012329 0)
(0.162663 0.00120387 0)
(0.161886 0.00117532 0)
(0.161115 0.00114725 0)
(0.160349 0.00111964 0)
(0.159589 0.00109247 0)
(0.158835 0.00106575 0)
(0.158088 0.00103944 0)
(0.157348 0.00101356 0)
(0.156614 0.000988098 0)
(0.155889 0.000963048 0)
(0.155171 0.000938417 0)
(0.154461 0.000914212 0)
(0.153759 0.000890451 0)
(0.153065 0.000867155 0)
(0.15238 0.000844361 0)
(0.151703 0.000822123 0)
(0.151036 0.000800528 0)
(0.150377 0.000779713 0)
(0.149727 0.000759931 0)
(0.149087 0.000741683 0)
(0.148454 0.000726102 0)
(0.147832 0.000715977 0)
(0.147231 0.000717864 0)
(0.146521 0.000731986 0)
(0.196285 0.00681087 0)
(0.19691 0.00752403 0)
(0.197646 0.00804779 0)
(0.198422 0.00839263 0)
(0.199191 0.0085857 0)
(0.199932 0.00864775 0)
(0.200624 0.00859589 0)
(0.201251 0.00844916 0)
(0.201801 0.00822854 0)
(0.202269 0.0079548 0)
(0.202652 0.0076471 0)
(0.202953 0.00732225 0)
(0.203178 0.00699418 0)
(0.203334 0.00667361 0)
(0.203431 0.00636801 0)
(0.203476 0.00608198 0)
(0.203478 0.0058177 0)
(0.203444 0.00557558 0)
(0.203379 0.00535474 0)
(0.203288 0.00515359 0)
(0.203175 0.00497016 0)
(0.203041 0.00480238 0)
(0.202888 0.00464824 0)
(0.202719 0.00450593 0)
(0.202532 0.00437386 0)
(0.20233 0.00425066 0)
(0.202112 0.00413519 0)
(0.201878 0.00402647 0)
(0.201629 0.00392372 0)
(0.201364 0.00382626 0)
(0.201085 0.00373353 0)
(0.20079 0.00364505 0)
(0.200481 0.00356044 0)
(0.200157 0.00347933 0)
(0.199818 0.00340143 0)
(0.199465 0.00332647 0)
(0.199098 0.00325422 0)
(0.198717 0.00318447 0)
(0.198322 0.00311704 0)
(0.197914 0.00305176 0)
(0.197493 0.00298849 0)
(0.197058 0.00292709 0)
(0.196612 0.00286744 0)
(0.196153 0.00280944 0)
(0.195682 0.00275298 0)
(0.195199 0.00269798 0)
(0.194705 0.00264435 0)
(0.1942 0.00259202 0)
(0.193685 0.00254092 0)
(0.193159 0.00249099 0)
(0.192623 0.00244218 0)
(0.192078 0.00239442 0)
(0.191524 0.00234768 0)
(0.190961 0.0023019 0)
(0.19039 0.00225705 0)
(0.18981 0.00221308 0)
(0.189224 0.00216995 0)
(0.188629 0.00212765 0)
(0.188028 0.00208612 0)
(0.187421 0.00204535 0)
(0.186808 0.0020053 0)
(0.186189 0.00196594 0)
(0.185564 0.00192726 0)
(0.184935 0.00188922 0)
(0.184301 0.0018518 0)
(0.183663 0.00181498 0)
(0.183022 0.00177874 0)
(0.182377 0.00174306 0)
(0.181729 0.00170792 0)
(0.181078 0.00167329 0)
(0.180425 0.00163917 0)
(0.179771 0.00160552 0)
(0.179115 0.00157235 0)
(0.178457 0.00153962 0)
(0.177799 0.00150732 0)
(0.177141 0.00147544 0)
(0.176483 0.00144397 0)
(0.175825 0.00141289 0)
(0.175167 0.00138219 0)
(0.174511 0.00135186 0)
(0.173856 0.00132189 0)
(0.173203 0.00129227 0)
(0.172552 0.001263 0)
(0.171904 0.00123407 0)
(0.171258 0.00120549 0)
(0.170616 0.00117726 0)
(0.169977 0.00114939 0)
(0.169342 0.00112189 0)
(0.168711 0.00109478 0)
(0.168084 0.00106809 0)
(0.167462 0.00104187 0)
(0.166846 0.00101619 0)
(0.166234 0.000991146 0)
(0.165627 0.000966888 0)
(0.165026 0.000943687 0)
(0.164431 0.000922041 0)
(0.163842 0.000902963 0)
(0.16326 0.00088852 0)
(0.162699 0.000881881 0)
(0.162041 0.000874157 0)
(0.196693 0.00653439 0)
(0.197234 0.00716782 0)
(0.197877 0.00765292 0)
(0.198565 0.00798747 0)
(0.199261 0.00818739 0)
(0.199939 0.00826884 0)
(0.200581 0.00824643 0)
(0.201171 0.00813629 0)
(0.2017 0.00795632 0)
(0.202159 0.00772464 0)
(0.202548 0.00745822 0)
(0.202869 0.00717218 0)
(0.203126 0.00687926 0)
(0.203325 0.00658952 0)
(0.203473 0.00631028 0)
(0.203578 0.00604632 0)
(0.203647 0.00580027 0)
(0.203687 0.00557312 0)
(0.203701 0.00536462 0)
(0.203696 0.00517374 0)
(0.203673 0.00499904 0)
(0.203636 0.00483885 0)
(0.203586 0.00469152 0)
(0.203525 0.00455547 0)
(0.203452 0.0044293 0)
(0.203369 0.00431176 0)
(0.203276 0.00420178 0)
(0.203174 0.00409845 0)
(0.203061 0.004001 0)
(0.202938 0.00390878 0)
(0.202805 0.00382123 0)
(0.202663 0.00373788 0)
(0.20251 0.00365832 0)
(0.202347 0.00358221 0)
(0.202174 0.00350922 0)
(0.20199 0.0034391 0)
(0.201796 0.0033716 0)
(0.201592 0.00330651 0)
(0.201377 0.00324364 0)
(0.201152 0.00318281 0)
(0.200916 0.00312388 0)
(0.20067 0.00306671 0)
(0.200414 0.00301116 0)
(0.200147 0.00295713 0)
(0.19987 0.00290451 0)
(0.199583 0.00285322 0)
(0.199285 0.00280315 0)
(0.198978 0.00275425 0)
(0.198661 0.00270643 0)
(0.198334 0.00265964 0)
(0.197997 0.00261381 0)
(0.19765 0.00256889 0)
(0.197295 0.00252482 0)
(0.19693 0.00248157 0)
(0.196556 0.0024391 0)
(0.196173 0.00239735 0)
(0.195782 0.00235629 0)
(0.195382 0.0023159 0)
(0.194974 0.00227614 0)
(0.194558 0.00223697 0)
(0.194134 0.00219838 0)
(0.193703 0.00216033 0)
(0.193264 0.00212281 0)
(0.192818 0.00208578 0)
(0.192366 0.00204923 0)
(0.191907 0.00201314 0)
(0.191441 0.00197748 0)
(0.19097 0.00194224 0)
(0.190493 0.00190739 0)
(0.190011 0.00187293 0)
(0.189523 0.00183884 0)
(0.189031 0.00180509 0)
(0.188534 0.00177168 0)
(0.188033 0.00173859 0)
(0.187528 0.00170581 0)
(0.187019 0.00167332 0)
(0.186507 0.00164112 0)
(0.185992 0.00160919 0)
(0.185474 0.00157752 0)
(0.184954 0.00154611 0)
(0.184431 0.00151494 0)
(0.183907 0.00148403 0)
(0.183382 0.00145335 0)
(0.182856 0.00142291 0)
(0.182329 0.00139272 0)
(0.181801 0.00136279 0)
(0.181273 0.00133312 0)
(0.180746 0.00130373 0)
(0.180219 0.00127466 0)
(0.179693 0.00124594 0)
(0.179168 0.00121761 0)
(0.178644 0.00118977 0)
(0.178122 0.00116251 0)
(0.177602 0.001136 0)
(0.177084 0.0011105 0)
(0.176568 0.00108648 0)
(0.176056 0.00106471 0)
(0.175549 0.00104639 0)
(0.175059 0.00103177 0)
(0.174481 0.00100617 0)
(0.197055 0.00628732 0)
(0.197531 0.00685077 0)
(0.198095 0.00729689 0)
(0.198707 0.00761715 0)
(0.199335 0.00781932 0)
(0.199954 0.00791505 0)
(0.200546 0.00791641 0)
(0.201096 0.0078369 0)
(0.201594 0.00769171 0)
(0.202035 0.00749651 0)
(0.202415 0.00726626 0)
(0.202736 0.0070145 0)
(0.203 0.00675284 0)
(0.203214 0.00649067 0)
(0.203382 0.00623505 0)
(0.203512 0.00599086 0)
(0.20361 0.00576106 0)
(0.203681 0.00554708 0)
(0.203731 0.00534921 0)
(0.203763 0.00516693 0)
(0.20378 0.00499926 0)
(0.203787 0.00484492 0)
(0.203783 0.00470259 0)
(0.203771 0.00457095 0)
(0.203751 0.00444876 0)
(0.203724 0.00433493 0)
(0.203691 0.00422849 0)
(0.203652 0.00412859 0)
(0.203607 0.00403451 0)
(0.203556 0.00394562 0)
(0.203498 0.0038614 0)
(0.203435 0.00378137 0)
(0.203366 0.00370513 0)
(0.20329 0.00363235 0)
(0.203208 0.0035627 0)
(0.20312 0.00349592 0)
(0.203025 0.00343177 0)
(0.202923 0.00337002 0)
(0.202815 0.00331049 0)
(0.2027 0.00325299 0)
(0.202577 0.00319738 0)
(0.202448 0.0031435 0)
(0.202312 0.00309124 0)
(0.202168 0.00304046 0)
(0.202017 0.00299106 0)
(0.201859 0.00294294 0)
(0.201693 0.00289602 0)
(0.20152 0.0028502 0)
(0.201339 0.00280542 0)
(0.201151 0.00276161 0)
(0.200955 0.0027187 0)
(0.200751 0.00267664 0)
(0.20054 0.00263536 0)
(0.200321 0.00259482 0)
(0.200094 0.00255498 0)
(0.19986 0.00251579 0)
(0.199619 0.00247721 0)
(0.19937 0.00243921 0)
(0.199113 0.00240174 0)
(0.198849 0.00236479 0)
(0.198578 0.00232831 0)
(0.1983 0.00229229 0)
(0.198014 0.00225669 0)
(0.197721 0.00222149 0)
(0.197422 0.00218666 0)
(0.197116 0.00215219 0)
(0.196803 0.00211805 0)
(0.196484 0.00208423 0)
(0.196158 0.0020507 0)
(0.195826 0.00201744 0)
(0.195488 0.00198445 0)
(0.195144 0.0019517 0)
(0.194795 0.00191918 0)
(0.194439 0.00188687 0)
(0.194079 0.00185476 0)
(0.193714 0.00182284 0)
(0.193343 0.0017911 0)
(0.192968 0.00175952 0)
(0.192589 0.0017281 0)
(0.192205 0.00169683 0)
(0.191817 0.0016657 0)
(0.191425 0.00163472 0)
(0.19103 0.00160387 0)
(0.190632 0.00157317 0)
(0.19023 0.00154261 0)
(0.189826 0.00151221 0)
(0.189419 0.00148198 0)
(0.18901 0.00145194 0)
(0.188599 0.00142213 0)
(0.188186 0.00139258 0)
(0.187771 0.00136336 0)
(0.187355 0.00133455 0)
(0.186938 0.00130625 0)
(0.18652 0.00127863 0)
(0.186102 0.00125194 0)
(0.185683 0.00122656 0)
(0.185265 0.001203 0)
(0.18485 0.00118164 0)
(0.184447 0.00116058 0)
(0.183965 0.00112264 0)
(0.197379 0.00606363 0)
(0.197802 0.00656626 0)
(0.1983 0.00697493 0)
(0.198846 0.00727855 0)
(0.199413 0.0074794 0)
(0.199977 0.00758526 0)
(0.200521 0.00760573 0)
(0.201032 0.00755201 0)
(0.2015 0.00743686 0)
(0.201919 0.00727373 0)
(0.202285 0.00707572 0)
(0.202599 0.00685489 0)
(0.202863 0.00662174 0)
(0.203081 0.00638498 0)
(0.203258 0.00615135 0)
(0.2034 0.00592571 0)
(0.203511 0.00571124 0)
(0.203598 0.00550973 0)
(0.203664 0.00532188 0)
(0.203714 0.00514761 0)
(0.203751 0.00498635 0)
(0.203777 0.00483719 0)
(0.203794 0.0046991 0)
(0.203804 0.00457101 0)
(0.203808 0.00445187 0)
(0.203806 0.00434073 0)
(0.2038 0.00423673 0)
(0.203789 0.0041391 0)
(0.203775 0.00404718 0)
(0.203757 0.00396037 0)
(0.203734 0.00387819 0)
(0.203709 0.00380018 0)
(0.203679 0.00372596 0)
(0.203646 0.00365518 0)
(0.20361 0.00358756 0)
(0.203569 0.00352282 0)
(0.203525 0.00346073 0)
(0.203477 0.00340107 0)
(0.203425 0.00334364 0)
(0.203369 0.00328827 0)
(0.203309 0.00323481 0)
(0.203244 0.0031831 0)
(0.203176 0.00313302 0)
(0.203102 0.00308445 0)
(0.203025 0.00303728 0)
(0.202942 0.00299139 0)
(0.202855 0.00294672 0)
(0.202763 0.00290315 0)
(0.202666 0.00286063 0)
(0.202564 0.00281907 0)
(0.202456 0.00277842 0)
(0.202344 0.00273859 0)
(0.202226 0.00269955 0)
(0.202103 0.00266123 0)
(0.201974 0.00262359 0)
(0.20184 0.00258658 0)
(0.201701 0.00255016 0)
(0.201556 0.00251429 0)
(0.201405 0.00247892 0)
(0.201248 0.00244403 0)
(0.201086 0.00240958 0)
(0.200918 0.00237554 0)
(0.200744 0.00234188 0)
(0.200565 0.00230857 0)
(0.20038 0.00227559 0)
(0.200189 0.00224291 0)
(0.199993 0.00221051 0)
(0.199791 0.00217837 0)
(0.199583 0.00214646 0)
(0.199369 0.00211476 0)
(0.19915 0.00208326 0)
(0.198926 0.00205194 0)
(0.198696 0.00202078 0)
(0.198461 0.00198977 0)
(0.198221 0.00195888 0)
(0.197975 0.00192811 0)
(0.197725 0.00189744 0)
(0.197469 0.00186686 0)
(0.197209 0.00183636 0)
(0.196944 0.00180594 0)
(0.196674 0.00177558 0)
(0.1964 0.00174529 0)
(0.196121 0.00171505 0)
(0.195839 0.00168488 0)
(0.195552 0.00165477 0)
(0.195261 0.00162475 0)
(0.194967 0.00159482 0)
(0.194669 0.001565 0)
(0.194367 0.00153534 0)
(0.194062 0.00150587 0)
(0.193755 0.00147666 0)
(0.193444 0.00144779 0)
(0.19313 0.00141937 0)
(0.192814 0.00139155 0)
(0.192495 0.00136456 0)
(0.192175 0.00133868 0)
(0.191853 0.00131417 0)
(0.191533 0.00129073 0)
(0.19122 0.00126523 0)
(0.190836 0.00122077 0)
(0.19767 0.005859 0)
(0.198048 0.00630893 0)
(0.198492 0.00668262 0)
(0.19898 0.00696846 0)
(0.199492 0.00716535 0)
(0.200006 0.00727797 0)
(0.200507 0.00731365 0)
(0.200981 0.00728156 0)
(0.201419 0.00719234 0)
(0.201815 0.00705744 0)
(0.202166 0.00688827 0)
(0.202471 0.00669547 0)
(0.202732 0.00648852 0)
(0.20295 0.00627541 0)
(0.203131 0.00606252 0)
(0.203279 0.00585461 0)
(0.203399 0.00565498 0)
(0.203495 0.00546568 0)
(0.203571 0.00528773 0)
(0.203631 0.00512143 0)
(0.203678 0.00496654 0)
(0.203714 0.00482249 0)
(0.203742 0.00468851 0)
(0.203763 0.00456377 0)
(0.203778 0.00444741 0)
(0.203788 0.00433861 0)
(0.203794 0.00423662 0)
(0.203797 0.00414077 0)
(0.203796 0.00405045 0)
(0.203792 0.00396512 0)
(0.203786 0.00388432 0)
(0.203777 0.00380763 0)
(0.203766 0.00373467 0)
(0.203752 0.00366514 0)
(0.203736 0.00359874 0)
(0.203718 0.00353521 0)
(0.203698 0.00347433 0)
(0.203675 0.00341588 0)
(0.20365 0.00335968 0)
(0.203623 0.00330556 0)
(0.203593 0.00325336 0)
(0.203562 0.00320293 0)
(0.203527 0.00315416 0)
(0.20349 0.00310691 0)
(0.203451 0.00306108 0)
(0.203409 0.00301657 0)
(0.203364 0.00297329 0)
(0.203316 0.00293114 0)
(0.203265 0.00289006 0)
(0.203212 0.00284996 0)
(0.203155 0.00281078 0)
(0.203095 0.00277245 0)
(0.203032 0.00273492 0)
(0.202965 0.00269814 0)
(0.202895 0.00266203 0)
(0.202822 0.00262657 0)
(0.202745 0.00259171 0)
(0.202664 0.0025574 0)
(0.20258 0.0025236 0)
(0.202491 0.00249028 0)
(0.202399 0.00245739 0)
(0.202303 0.00242491 0)
(0.202203 0.00239281 0)
(0.202099 0.00236105 0)
(0.201991 0.00232961 0)
(0.201879 0.00229845 0)
(0.201762 0.00226756 0)
(0.201641 0.0022369 0)
(0.201516 0.00220646 0)
(0.201387 0.00217621 0)
(0.201253 0.00214613 0)
(0.201115 0.0021162 0)
(0.200973 0.0020864 0)
(0.200826 0.00205671 0)
(0.200675 0.00202712 0)
(0.20052 0.00199761 0)
(0.20036 0.00196816 0)
(0.200196 0.00193876 0)
(0.200027 0.0019094 0)
(0.199855 0.00188007 0)
(0.199678 0.00185076 0)
(0.199497 0.00182147 0)
(0.199312 0.00179219 0)
(0.199123 0.00176293 0)
(0.198929 0.00173368 0)
(0.198732 0.00170447 0)
(0.198531 0.0016753 0)
(0.198326 0.00164619 0)
(0.198117 0.0016172 0)
(0.197904 0.00158834 0)
(0.197688 0.0015597 0)
(0.197468 0.00153135 0)
(0.197245 0.00150339 0)
(0.197018 0.00147598 0)
(0.196788 0.00144929 0)
(0.196555 0.00142351 0)
(0.19632 0.00139868 0)
(0.196085 0.0013741 0)