/*--------------------------------*- C++ -*----------------------------------*\
| =========                 |                                                 |
| \\      /  F ield         | OpenFOAM: The Open Source CFD Toolbox           |
|  \\    /   O peration     | Version:  2.3.0                                 |
|   \\  /    A nd           | Web:      www.OpenFOAM.org                      |
|    \\/     M anipulation  |                                                 |
\*---------------------------------------------------------------------------*/
FoamFile
{
    version     2.0;
    format      ascii;
    class       volVectorField;
    location    "0.65";
    object      U_0;
}
// * * * * * * * * * * * * * * * * * * * * * * * * * * * * * * * * * * * * * //

dimensions      [0 1 -1 0 0 0 0];

internalField   nonuniform List<vector> 
6875
(
(0.171147 0.00596328 0)
(0.154689 0.00603335 0)
(0.138868 0.00561478 0)
(0.12387 0.00501628 0)
(0.110107 0.00435513 0)
(0.0977479 0.00368469 0)
(0.0868048 0.00304167 0)
(0.0772434 0.00245148 0)
(0.0690078 0.00192957 0)
(0.0620131 0.00148376 0)
(0.0561455 0.00111572 0)
(0.051272 0.00082193 0)
(0.0472516 0.000594994 0)
(0.0439452 0.000425164 0)
(0.0412227 0.000301899 0)
(0.0389682 0.00021506 0)
(0.0370829 0.000155655 0)
(0.0354853 0.000116178 0)
(0.0341107 9.0668e-05 0)
(0.0329086 7.4581e-05 0)
(0.0318412 6.45961e-05 0)
(0.0308802 5.83837e-05 0)
(0.0300047 5.43809e-05 0)
(0.0291996 5.15896e-05 0)
(0.0284535 4.94077e-05 0)
(0.0277583 4.74973e-05 0)
(0.0271074 4.56865e-05 0)
(0.0264959 4.39021e-05 0)
(0.0259198 4.21244e-05 0)
(0.0253757 4.03593e-05 0)
(0.0248607 3.86225e-05 0)
(0.0243724 3.69309e-05 0)
(0.0239084 3.52983e-05 0)
(0.023467 3.37346e-05 0)
(0.0230462 3.22455e-05 0)
(0.0226446 3.08333e-05 0)
(0.0222607 2.9498e-05 0)
(0.0218932 2.82374e-05 0)
(0.0215409 2.70484e-05 0)
(0.0212029 2.59273e-05 0)
(0.0208781 2.487e-05 0)
(0.0205657 2.38723e-05 0)
(0.020265 2.29303e-05 0)
(0.0199751 2.204e-05 0)
(0.0196955 2.11978e-05 0)
(0.0194255 2.04003e-05 0)
(0.0191647 1.96444e-05 0)
(0.0189125 1.89272e-05 0)
(0.0186684 1.8246e-05 0)
(0.0184321 1.75985e-05 0)
(0.018203 1.69823e-05 0)
(0.017981 1.63955e-05 0)
(0.0177656 1.58361e-05 0)
(0.0175565 1.53025e-05 0)
(0.0173535 1.47929e-05 0)
(0.0171562 1.4306e-05 0)
(0.0169644 1.38404e-05 0)
(0.0167779 1.33949e-05 0)
(0.0165965 1.29682e-05 0)
(0.0164199 1.25593e-05 0)
(0.016248 1.21672e-05 0)
(0.0160805 1.17911e-05 0)
(0.0159173 1.143e-05 0)
(0.0157583 1.10831e-05 0)
(0.0156033 1.07498e-05 0)
(0.0154522 1.04293e-05 0)
(0.0153047 1.01211e-05 0)
(0.0151609 9.82447e-06 0)
(0.0150205 9.53896e-06 0)
(0.0148835 9.26404e-06 0)
(0.0147497 8.99927e-06 0)
(0.0146191 8.74421e-06 0)
(0.0144915 8.49849e-06 0)
(0.0143669 8.26173e-06 0)
(0.0142452 8.03363e-06 0)
(0.0141262 7.81389e-06 0)
(0.01401 7.60226e-06 0)
(0.0138964 7.39851e-06 0)
(0.0137853 7.20245e-06 0)
(0.0136768 7.01395e-06 0)
(0.0135706 6.83285e-06 0)
(0.0134668 6.65909e-06 0)
(0.0133652 6.49264e-06 0)
(0.0132659 6.33348e-06 0)
(0.0131687 6.18171e-06 0)
(0.0130736 6.03741e-06 0)
(0.0129805 5.90079e-06 0)
(0.0128893 5.77215e-06 0)
(0.0127999 5.65188e-06 0)
(0.0127123 5.54054e-06 0)
(0.0126264 5.43895e-06 0)
(0.0125421 5.34828e-06 0)
(0.0124592 5.27039e-06 0)
(0.0123776 5.20841e-06 0)
(0.0122971 5.1682e-06 0)
(0.0122174 5.16215e-06 0)
(0.012138 5.22442e-06 0)
(0.0120571 5.41729e-06 0)
(0.0119876 4.85137e-06 0)
(0.0117752 2.995e-05 0)
(0.189981 0.00940788 0)
(0.187638 0.00991282 0)
(0.183682 0.00968719 0)
(0.178474 0.00918906 0)
(0.172519 0.00855626 0)
(0.166167 0.00783498 0)
(0.159642 0.00706317 0)
(0.153112 0.00627572 0)
(0.146712 0.00550188 0)
(0.140542 0.00476561 0)
(0.134671 0.00408568 0)
(0.129138 0.003475 0)
(0.123962 0.00294039 0)
(0.119147 0.00248301 0)
(0.114684 0.00209946 0)
(0.110556 0.00178306 0)
(0.106743 0.00152526 0)
(0.10322 0.00131683 0)
(0.099965 0.00114884 0)
(0.0969519 0.00101317 0)
(0.0941583 0.0009029 0)
(0.0915625 0.000812369 0)
(0.0891449 0.00073709 0)
(0.0868878 0.000673608 0)
(0.0847753 0.000619315 0)
(0.0827931 0.000572269 0)
(0.080929 0.000531026 0)
(0.0791717 0.000494516 0)
(0.0775115 0.000461933 0)
(0.07594 0.000432665 0)
(0.0744493 0.000406234 0)
(0.0730327 0.000382258 0)
(0.0716843 0.000360427 0)
(0.0703986 0.000340483 0)
(0.0691709 0.000322207 0)
(0.0679969 0.000305414 0)
(0.0668726 0.00028994 0)
(0.0657946 0.000275647 0)
(0.0647598 0.000262411 0)
(0.0637653 0.000250125 0)
(0.0628084 0.000238696 0)
(0.061887 0.000228042 0)
(0.0609987 0.000218088 0)
(0.0601416 0.000208772 0)
(0.059314 0.000200035 0)
(0.0585142 0.000191829 0)
(0.0577406 0.000184107 0)
(0.0569919 0.00017683 0)
(0.0562668 0.000169962 0)
(0.0555641 0.00016347 0)
(0.0548827 0.000157326 0)
(0.0542215 0.000151504 0)
(0.0535796 0.000145981 0)
(0.0529562 0.000140734 0)
(0.0523504 0.000135744 0)
(0.0517614 0.000130993 0)
(0.0511885 0.000126466 0)
(0.0506311 0.000122148 0)
(0.0500885 0.000118024 0)
(0.0495602 0.000114083 0)
(0.0490455 0.000110314 0)
(0.048544 0.000106704 0)
(0.0480552 0.000103246 0)
(0.0475787 9.99298e-05 0)
(0.047114 9.6747e-05 0)
(0.0466607 9.36902e-05 0)
(0.0462184 9.07523e-05 0)
(0.0457868 8.79266e-05 0)
(0.0453655 8.52072e-05 0)
(0.0449543 8.25883e-05 0)
(0.0445527 8.00647e-05 0)
(0.0441607 7.76315e-05 0)
(0.0437777 7.52842e-05 0)
(0.0434038 7.30188e-05 0)
(0.0430384 7.08312e-05 0)
(0.0426816 6.87181e-05 0)
(0.0423329 6.66762e-05 0)
(0.0419923 6.47024e-05 0)
(0.0416596 6.27943e-05 0)
(0.0413345 6.09493e-05 0)
(0.0410168 5.91655e-05 0)
(0.0407064 5.7441e-05 0)
(0.0404032 5.57745e-05 0)
(0.0401069 5.41646e-05 0)
(0.0398174 5.26109e-05 0)
(0.0395345 5.11128e-05 0)
(0.039258 4.96706e-05 0)
(0.0389879 4.82851e-05 0)
(0.0387239 4.69576e-05 0)
(0.0384658 4.56908e-05 0)
(0.0382135 4.44885e-05 0)
(0.0379666 4.33567e-05 0)
(0.037725 4.23052e-05 0)
(0.0374884 4.13509e-05 0)
(0.0372562 4.05258e-05 0)
(0.0370279 3.99009e-05 0)
(0.0368024 3.96579e-05 0)
(0.0365764 4.02592e-05 0)
(0.0363652 4.42896e-05 0)
(0.0359418 0.00010251 0)
(0.192967 0.00904911 0)
(0.193739 0.0100019 0)
(0.193844 0.0103311 0)
(0.193138 0.0103323 0)
(0.191737 0.0101055 0)
(0.189767 0.00968907 0)
(0.187319 0.00912795 0)
(0.184485 0.00847189 0)
(0.18136 0.00776617 0)
(0.178033 0.00704912 0)
(0.174583 0.00635153 0)
(0.171073 0.00569604 0)
(0.167556 0.00509708 0)
(0.164071 0.00456167 0)
(0.160647 0.00409082 0)
(0.157304 0.00368132 0)
(0.154054 0.00332735 0)
(0.150906 0.00302194 0)
(0.147862 0.00275795 0)
(0.144923 0.00252873 0)
(0.142088 0.00232848 0)
(0.139355 0.00215232 0)
(0.136722 0.00199625 0)
(0.134184 0.00185706 0)
(0.131739 0.00173218 0)
(0.129383 0.00161957 0)
(0.127113 0.00151757 0)
(0.124924 0.00142484 0)
(0.122814 0.00134027 0)
(0.120779 0.00126292 0)
(0.118816 0.00119202 0)
(0.116921 0.00112686 0)
(0.115092 0.00106687 0)
(0.113326 0.00101152 0)
(0.111619 0.00096035 0)
(0.109969 0.000912954 0)
(0.108373 0.000868973 0)
(0.106829 0.000828084 0)
(0.105335 0.000790001 0)
(0.103887 0.00075447 0)
(0.102484 0.000721262 0)
(0.101124 0.000690173 0)
(0.099805 0.000661021 0)
(0.0985249 0.000633642 0)
(0.0972821 0.000607889 0)
(0.0960751 0.000583631 0)
(0.0949021 0.000560748 0)
(0.0937619 0.000539134 0)
(0.0926529 0.00051869 0)
(0.091574 0.000499331 0)
(0.0905239 0.000480975 0)
(0.0895015 0.00046355 0)
(0.0885056 0.000446991 0)
(0.0875353 0.000431237 0)
(0.0865896 0.000416234 0)
(0.0856676 0.000401931 0)
(0.0847684 0.000388283 0)
(0.0838912 0.000375245 0)
(0.0830353 0.000362781 0)
(0.0821999 0.000350854 0)
(0.0813843 0.000339431 0)
(0.0805879 0.000328481 0)
(0.0798101 0.000317976 0)
(0.0790503 0.00030789 0)
(0.078308 0.000298198 0)
(0.0775826 0.000288879 0)
(0.0768737 0.000279911 0)
(0.0761807 0.000271274 0)
(0.0755033 0.000262951 0)
(0.074841 0.000254925 0)
(0.0741935 0.00024718 0)
(0.0735603 0.000239701 0)
(0.0729411 0.000232475 0)
(0.0723357 0.000225489 0)
(0.0717436 0.000218732 0)
(0.0711646 0.000212192 0)
(0.0705983 0.000205859 0)
(0.0700446 0.000199725 0)
(0.0695032 0.000193781 0)
(0.0689738 0.000188019 0)
(0.0684561 0.000182432 0)
(0.0679501 0.000177015 0)
(0.0674554 0.000171762 0)
(0.0669719 0.000166668 0)
(0.0664993 0.000161731 0)
(0.0660375 0.000156949 0)
(0.0655862 0.00015232 0)
(0.0651453 0.000147846 0)
(0.0647145 0.000143529 0)
(0.0642937 0.000139373 0)
(0.0638825 0.000135388 0)
(0.0634807 0.000131588 0)
(0.063088 0.000127994 0)
(0.0627041 0.000124648 0)
(0.0623283 0.000121625 0)
(0.06196 0.000119095 0)
(0.0615978 0.00011749 0)
(0.0612382 0.000118101 0)
(0.0608913 0.000129889 0)
(0.060345 0.000202262 0)
(0.193992 0.00841644 0)
(0.19515 0.00946904 0)
(0.19619 0.0100227 0)
(0.196897 0.0102616 0)
(0.19725 0.0102684 0)
(0.197256 0.0100753 0)
(0.196914 0.00971832 0)
(0.196231 0.00924037 0)
(0.195235 0.00868342 0)
(0.193965 0.00808487 0)
(0.192465 0.0074765 0)
(0.190779 0.00688348 0)
(0.188949 0.00632382 0)
(0.187012 0.00580857 0)
(0.185001 0.0053428 0)
(0.18294 0.00492704 0)
(0.180851 0.00455866 0)
(0.178748 0.00423324 0)
(0.176643 0.00394556 0)
(0.174543 0.00369032 0)
(0.172456 0.00346261 0)
(0.170386 0.00325812 0)
(0.168335 0.0030732 0)
(0.166307 0.00290487 0)
(0.164303 0.00275072 0)
(0.162325 0.00260881 0)
(0.160375 0.0024776 0)
(0.158453 0.00235585 0)
(0.156561 0.00224254 0)
(0.154699 0.00213685 0)
(0.152868 0.00203807 0)
(0.151069 0.00194559 0)
(0.149302 0.00185889 0)
(0.147566 0.00177751 0)
(0.145862 0.00170102 0)
(0.144191 0.00162907 0)
(0.142551 0.0015613 0)
(0.140943 0.0014974 0)
(0.139366 0.00143711 0)
(0.13782 0.00138015 0)
(0.136305 0.00132629 0)
(0.13482 0.00127531 0)
(0.133365 0.00122702 0)
(0.131939 0.00118122 0)
(0.130541 0.00113776 0)
(0.129172 0.00109647 0)
(0.12783 0.00105721 0)
(0.126515 0.00101985 0)
(0.125227 0.000984264 0)
(0.123964 0.000950343 0)
(0.122727 0.00091798 0)
(0.121515 0.000887079 0)
(0.120326 0.00085755 0)
(0.119162 0.000829309 0)
(0.11802 0.000802281 0)
(0.116901 0.000776393 0)
(0.115804 0.000751578 0)
(0.114729 0.000727774 0)
(0.113674 0.000704924 0)
(0.112641 0.000682973 0)
(0.111627 0.000661872 0)
(0.110634 0.000641574 0)
(0.109659 0.000622033 0)
(0.108704 0.000603211 0)
(0.107767 0.000585067 0)
(0.106848 0.000567566 0)
(0.105947 0.000550675 0)
(0.105063 0.000534361 0)
(0.104197 0.000518596 0)
(0.103347 0.00050335 0)
(0.102514 0.000488599 0)
(0.101697 0.000474317 0)
(0.100896 0.000460482 0)
(0.10011 0.000447071 0)
(0.0993405 0.000434066 0)
(0.0985856 0.000421446 0)
(0.0978457 0.000409195 0)
(0.0971205 0.000397296 0)
(0.0964099 0.000385734 0)
(0.0957136 0.000374496 0)
(0.0950314 0.00036357 0)
(0.0943632 0.000352943 0)
(0.0937089 0.000342607 0)
(0.0930681 0.000332553 0)
(0.0924409 0.000322775 0)
(0.091827 0.000313269 0)
(0.0912263 0.000304032 0)
(0.0906386 0.000295064 0)
(0.0900637 0.000286369 0)
(0.0895016 0.000277955 0)
(0.0889518 0.000269834 0)
(0.0884143 0.000262031 0)
(0.0878888 0.000254581 0)
(0.0873748 0.000247551 0)
(0.086872 0.000241066 0)
(0.0863795 0.000235403 0)
(0.085896 0.000231273 0)
(0.0854187 0.000230939 0)
(0.0849546 0.000246475 0)
(0.0843212 0.000316852 0)
(0.194701 0.00791826 0)
(0.195736 0.00891319 0)
(0.196834 0.00950794 0)
(0.197825 0.00982219 0)
(0.198665 0.00992911 0)
(0.199336 0.00985845 0)
(0.199814 0.00963656 0)
(0.200076 0.00929598 0)
(0.200114 0.00887057 0)
(0.199934 0.00839202 0)
(0.199553 0.00788855 0)
(0.198991 0.00738376 0)
(0.198273 0.00689575 0)
(0.197423 0.00643685 0)
(0.196466 0.00601412 0)
(0.195422 0.00563029 0)
(0.194308 0.0052849 0)
(0.193139 0.00497546 0)
(0.191925 0.00469832 0)
(0.190675 0.00444944 0)
(0.189396 0.00422486 0)
(0.188093 0.00402096 0)
(0.18677 0.00383461 0)
(0.18543 0.00366319 0)
(0.184077 0.00350456 0)
(0.182712 0.00335699 0)
(0.181338 0.0032191 0)
(0.179957 0.00308977 0)
(0.178571 0.00296809 0)
(0.177182 0.00285334 0)
(0.175791 0.00274488 0)
(0.1744 0.0026422 0)
(0.17301 0.00254485 0)
(0.171623 0.00245243 0)
(0.170241 0.00236458 0)
(0.168863 0.002281 0)
(0.167492 0.00220139 0)
(0.166129 0.0021255 0)
(0.164773 0.0020531 0)
(0.163427 0.00198397 0)
(0.16209 0.00191791 0)
(0.160764 0.00185474 0)
(0.159448 0.00179429 0)
(0.158145 0.0017364 0)
(0.156853 0.00168093 0)
(0.155574 0.00162775 0)
(0.154307 0.00157673 0)
(0.153054 0.00152775 0)
(0.151815 0.0014807 0)
(0.150589 0.00143549 0)
(0.149377 0.00139201 0)
(0.148179 0.00135018 0)
(0.146995 0.00130992 0)
(0.145825 0.00127114 0)
(0.144671 0.00123377 0)
(0.14353 0.00119775 0)
(0.142404 0.001163 0)
(0.141293 0.00112946 0)
(0.140196 0.00109708 0)
(0.139114 0.00106579 0)
(0.138047 0.00103555 0)
(0.136994 0.00100631 0)
(0.135955 0.000978012 0)
(0.134932 0.000950623 0)
(0.133922 0.000924096 0)
(0.132927 0.000898391 0)
(0.131947 0.00087347 0)
(0.130981 0.000849297 0)
(0.130029 0.000825838 0)
(0.129091 0.000803061 0)
(0.128167 0.000780933 0)
(0.127258 0.000759427 0)
(0.126362 0.000738515 0)
(0.125481 0.00071817 0)
(0.124613 0.000698367 0)
(0.12376 0.000679084 0)
(0.12292 0.000660298 0)
(0.122094 0.000641989 0)
(0.121282 0.000624138 0)
(0.120483 0.000606727 0)
(0.119698 0.00058974 0)
(0.118927 0.000573164 0)
(0.11817 0.000556986 0)
(0.117426 0.000541194 0)
(0.116695 0.000525782 0)
(0.115979 0.000510742 0)
(0.115275 0.000496073 0)
(0.114585 0.000481775 0)
(0.113909 0.000467853 0)
(0.113246 0.000454319 0)
(0.112596 0.000441192 0)
(0.111959 0.000428505 0)
(0.111335 0.00041631 0)
(0.110724 0.000404699 0)
(0.110125 0.000393847 0)
(0.109538 0.000384134 0)
(0.108961 0.000376519 0)
(0.108393 0.000373972 0)
(0.107842 0.000388454 0)
(0.107148 0.000445527 0)
(0.195301 0.0074909 0)
(0.196168 0.0083895 0)
(0.197149 0.00897451 0)
(0.198112 0.00931554 0)
(0.199011 0.00947051 0)
(0.199826 0.00946699 0)
(0.200535 0.00932658 0)
(0.201113 0.00907551 0)
(0.201546 0.00874203 0)
(0.201828 0.00835328 0)
(0.201961 0.00793381 0)
(0.201956 0.00750471 0)
(0.201824 0.00708273 0)
(0.201581 0.00667994 0)
(0.201242 0.00630392 0)
(0.200821 0.00595844 0)
(0.200332 0.0056443 0)
(0.199785 0.00536029 0)
(0.199188 0.00510397 0)
(0.19855 0.00487228 0)
(0.197874 0.00466206 0)
(0.197164 0.0044703 0)
(0.196425 0.00429432 0)
(0.195658 0.00413179 0)
(0.194865 0.0039808 0)
(0.194048 0.00383975 0)
(0.193209 0.00370737 0)
(0.192349 0.00358261 0)
(0.19147 0.00346463 0)
(0.190573 0.00335273 0)
(0.189659 0.00324634 0)
(0.188729 0.00314498 0)
(0.187785 0.00304825 0)
(0.186828 0.00295578 0)
(0.185859 0.00286727 0)
(0.184879 0.00278244 0)
(0.18389 0.00270105 0)
(0.182892 0.00262288 0)
(0.181886 0.00254774 0)
(0.180874 0.00247543 0)
(0.179856 0.00240581 0)
(0.178834 0.00233872 0)
(0.177808 0.00227402 0)
(0.176778 0.00221158 0)
(0.175747 0.0021513 0)
(0.174714 0.00209305 0)
(0.17368 0.00203675 0)
(0.172647 0.00198229 0)
(0.171613 0.0019296 0)
(0.170581 0.00187859 0)
(0.169551 0.00182918 0)
(0.168523 0.00178131 0)
(0.167499 0.0017349 0)
(0.166477 0.0016899 0)
(0.16546 0.00164623 0)
(0.164446 0.00160386 0)
(0.163438 0.00156271 0)
(0.162434 0.00152275 0)
(0.161437 0.00148392 0)
(0.160445 0.00144617 0)
(0.159459 0.00140947 0)
(0.15848 0.00137376 0)
(0.157508 0.00133902 0)
(0.156542 0.00130519 0)
(0.155585 0.00127226 0)
(0.154635 0.00124016 0)
(0.153693 0.00120889 0)
(0.152759 0.00117839 0)
(0.151834 0.00114865 0)
(0.150917 0.00111963 0)
(0.150009 0.0010913 0)
(0.14911 0.00106364 0)
(0.14822 0.00103661 0)
(0.14734 0.0010102 0)
(0.146469 0.000984376 0)
(0.145608 0.000959122 0)
(0.144757 0.000934413 0)
(0.143916 0.00091023 0)
(0.143086 0.000886554 0)
(0.142266 0.000863367 0)
(0.141456 0.000840653 0)
(0.140657 0.000818399 0)
(0.139869 0.000796593 0)
(0.139092 0.000775224 0)
(0.138326 0.000754285 0)
(0.137572 0.000733772 0)
(0.136829 0.000713684 0)
(0.136097 0.000694024 0)
(0.135377 0.000674802 0)
(0.134669 0.000656035 0)
(0.133973 0.000637749 0)
(0.133288 0.000619988 0)
(0.132615 0.000602821 0)
(0.131954 0.000586365 0)
(0.131304 0.00057084 0)
(0.130666 0.000556705 0)
(0.130038 0.000545073 0)
(0.12942 0.000539087 0)
(0.128822 0.000548504 0)
(0.128101 0.000585402 0)
(0.195824 0.00712554 0)
(0.196555 0.0079277 0)
(0.197405 0.00848642 0)
(0.198276 0.00883496 0)
(0.199121 0.00901472 0)
(0.199918 0.00905042 0)
(0.200648 0.00896134 0)
(0.201292 0.00876978 0)
(0.201834 0.00850012 0)
(0.202269 0.00817604 0)
(0.202597 0.00781916 0)
(0.20282 0.00744825 0)
(0.202947 0.00707855 0)
(0.202988 0.00672143 0)
(0.202953 0.00638451 0)
(0.202854 0.00607203 0)
(0.2027 0.00578561 0)
(0.202499 0.00552494 0)
(0.202257 0.00528845 0)
(0.20198 0.00507386 0)
(0.201673 0.00487866 0)
(0.201337 0.00470031 0)
(0.200975 0.0045365 0)
(0.200589 0.00438517 0)
(0.20018 0.00424455 0)
(0.199748 0.00411316 0)
(0.199295 0.0039898 0)
(0.198821 0.00387346 0)
(0.198326 0.00376333 0)
(0.197812 0.00365873 0)
(0.197279 0.00355909 0)
(0.196727 0.00346396 0)
(0.196157 0.00337292 0)
(0.195571 0.00328565 0)
(0.194967 0.00320183 0)
(0.194348 0.00312122 0)
(0.193714 0.00304358 0)
(0.193065 0.00296871 0)
(0.192402 0.00289642 0)
(0.191725 0.00282655 0)
(0.191036 0.00275895 0)
(0.190336 0.0026935 0)
(0.189624 0.00263005 0)
(0.188901 0.00256852 0)
(0.188168 0.00250878 0)
(0.187426 0.00245076 0)
(0.186675 0.00239437 0)
(0.185916 0.00233952 0)
(0.185149 0.00228615 0)
(0.184375 0.00223419 0)
(0.183595 0.00218358 0)
(0.182809 0.00213426 0)
(0.182017 0.00208618 0)
(0.181221 0.00203928 0)
(0.18042 0.00199351 0)
(0.179616 0.00194884 0)
(0.178809 0.00190522 0)
(0.177999 0.00186262 0)
(0.177187 0.00182098 0)
(0.176372 0.00178028 0)
(0.175557 0.00174049 0)
(0.174741 0.00170156 0)
(0.173924 0.00166347 0)
(0.173108 0.00162619 0)
(0.172291 0.00158969 0)
(0.171476 0.00155394 0)
(0.170662 0.00151891 0)
(0.16985 0.00148458 0)
(0.169039 0.00145092 0)
(0.168231 0.00141792 0)
(0.167426 0.00138553 0)
(0.166623 0.00135376 0)
(0.165824 0.00132256 0)
(0.165029 0.00129192 0)
(0.164238 0.00126183 0)
(0.163452 0.00123226 0)
(0.16267 0.0012032 0)
(0.161894 0.00117462 0)
(0.161122 0.00114651 0)
(0.160357 0.00111887 0)
(0.159598 0.00109166 0)
(0.158844 0.0010649 0)
(0.158098 0.00103856 0)
(0.157358 0.00101263 0)
(0.156626 0.000987123 0)
(0.155901 0.000962028 0)
(0.155183 0.00093735 0)
(0.154474 0.000913097 0)
(0.153773 0.000889285 0)
(0.15308 0.000865938 0)
(0.152396 0.000843092 0)
(0.15172 0.000820802 0)
(0.151054 0.000799152 0)
(0.150396 0.000778283 0)
(0.149748 0.000758446 0)
(0.149108 0.000740143 0)
(0.148477 0.000724503 0)
(0.147856 0.000714313 0)
(0.147256 0.000716109 0)
(0.146548 0.000730127 0)
(0.196285 0.00681086 0)
(0.19691 0.00752401 0)
(0.197646 0.00804777 0)
(0.198422 0.00839261 0)
(0.199192 0.00858568 0)
(0.199932 0.00864773 0)
(0.200624 0.00859586 0)
(0.201251 0.00844913 0)
(0.201802 0.00822852 0)
(0.202269 0.00795478 0)
(0.202652 0.00764707 0)
(0.202953 0.00732222 0)
(0.203178 0.00699415 0)
(0.203334 0.00667357 0)
(0.203431 0.00636797 0)
(0.203476 0.00608194 0)
(0.203479 0.00581766 0)
(0.203444 0.00557553 0)
(0.20338 0.00535469 0)
(0.203289 0.00515355 0)
(0.203175 0.00497011 0)
(0.203041 0.00480232 0)
(0.202889 0.00464818 0)
(0.202719 0.00450587 0)
(0.202532 0.0043738 0)
(0.20233 0.0042506 0)
(0.202112 0.00413512 0)
(0.201878 0.0040264 0)
(0.201629 0.00392364 0)
(0.201365 0.00382618 0)
(0.201085 0.00373344 0)
(0.200791 0.00364496 0)
(0.200481 0.00356034 0)
(0.200157 0.00347923 0)
(0.199819 0.00340132 0)
(0.199466 0.00332636 0)
(0.199099 0.0032541 0)
(0.198717 0.00318434 0)
(0.198323 0.00311691 0)
(0.197915 0.00305162 0)
(0.197493 0.00298835 0)
(0.197059 0.00292694 0)
(0.196612 0.00286728 0)
(0.196153 0.00280927 0)
(0.195682 0.00275281 0)
(0.1952 0.0026978 0)
(0.194706 0.00264416 0)
(0.194201 0.00259182 0)
(0.193686 0.00254071 0)
(0.19316 0.00249078 0)
(0.192624 0.00244195 0)
(0.192079 0.00239418 0)
(0.191525 0.00234743 0)
(0.190962 0.00230164 0)
(0.190391 0.00225677 0)
(0.189812 0.00221278 0)
(0.189225 0.00216965 0)
(0.188631 0.00212733 0)
(0.18803 0.00208579 0)
(0.187423 0.00204499 0)
(0.18681 0.00200493 0)
(0.186191 0.00196555 0)
(0.185567 0.00192685 0)
(0.184938 0.00188879 0)
(0.184304 0.00185135 0)
(0.183666 0.00181451 0)
(0.183025 0.00177825 0)
(0.18238 0.00174254 0)
(0.181732 0.00170737 0)
(0.181082 0.00167272 0)
(0.18043 0.00163857 0)
(0.179775 0.00160489 0)
(0.179119 0.00157168 0)
(0.178462 0.00153892 0)
(0.177805 0.00150659 0)
(0.177147 0.00147468 0)
(0.176489 0.00144317 0)
(0.175831 0.00141205 0)
(0.175174 0.0013813 0)
(0.174518 0.00135093 0)
(0.173864 0.00132091 0)
(0.173211 0.00129125 0)
(0.172561 0.00126193 0)
(0.171913 0.00123295 0)
(0.171268 0.00120432 0)
(0.170626 0.00117603 0)
(0.169988 0.0011481 0)
(0.169354 0.00112054 0)
(0.168723 0.00109337 0)
(0.168098 0.00106662 0)
(0.167477 0.00104034 0)
(0.16686 0.00101459 0)
(0.16625 0.000989474 0)
(0.165644 0.000965148 0)
(0.165044 0.000941878 0)
(0.16445 0.000920164 0)
(0.163862 0.000901014 0)
(0.163282 0.000886495 0)
(0.162722 0.000879768 0)
(0.162065 0.000871979 0)
(0.196693 0.00653437 0)
(0.197235 0.0071678 0)
(0.197877 0.00765289 0)
(0.198565 0.00798745 0)
(0.199261 0.00818737 0)
(0.199939 0.00826881 0)
(0.200581 0.0082464 0)
(0.201171 0.00813626 0)
(0.2017 0.00795629 0)
(0.202159 0.00772461 0)
(0.202549 0.00745819 0)
(0.202869 0.00717214 0)
(0.203126 0.00687923 0)
(0.203325 0.00658949 0)
(0.203473 0.00631024 0)
(0.203578 0.00604628 0)
(0.203647 0.00580023 0)
(0.203687 0.00557307 0)
(0.203702 0.00536457 0)
(0.203696 0.00517369 0)
(0.203673 0.00499898 0)
(0.203636 0.00483879 0)
(0.203586 0.00469146 0)
(0.203525 0.00455541 0)
(0.203452 0.00442923 0)
(0.20337 0.00431169 0)
(0.203277 0.0042017 0)
(0.203174 0.00409837 0)
(0.203061 0.00400092 0)
(0.202938 0.00390869 0)
(0.202806 0.00382113 0)
(0.202663 0.00373778 0)
(0.20251 0.00365822 0)
(0.202347 0.0035821 0)
(0.202174 0.00350911 0)
(0.20199 0.00343898 0)
(0.201796 0.00337147 0)
(0.201592 0.00330638 0)
(0.201377 0.0032435 0)
(0.201152 0.00318267 0)
(0.200917 0.00312373 0)
(0.200671 0.00306654 0)
(0.200414 0.00301099 0)
(0.200148 0.00295695 0)
(0.199871 0.00290432 0)
(0.199583 0.00285302 0)
(0.199286 0.00280294 0)
(0.198979 0.00275403 0)
(0.198662 0.0027062 0)
(0.198334 0.0026594 0)
(0.197998 0.00261355 0)
(0.197651 0.00256862 0)
(0.197296 0.00252454 0)
(0.196931 0.00248128 0)
(0.196557 0.00243879 0)
(0.196175 0.00239702 0)
(0.195783 0.00235595 0)
(0.195383 0.00231554 0)
(0.194976 0.00227576 0)
(0.19456 0.00223658 0)
(0.194136 0.00219796 0)
(0.193705 0.0021599 0)
(0.193266 0.00212235 0)
(0.19282 0.0020853 0)
(0.192368 0.00204873 0)
(0.191909 0.00201261 0)
(0.191444 0.00197692 0)
(0.190973 0.00194165 0)
(0.190496 0.00190678 0)
(0.190014 0.00187228 0)
(0.189526 0.00183816 0)
(0.189034 0.00180438 0)
(0.188538 0.00177093 0)
(0.188037 0.0017378 0)
(0.187532 0.00170498 0)
(0.187023 0.00167245 0)
(0.186511 0.0016402 0)
(0.185997 0.00160822 0)
(0.185479 0.00157651 0)
(0.184959 0.00154504 0)
(0.184438 0.00151383 0)
(0.183914 0.00148285 0)
(0.183389 0.00145212 0)
(0.182863 0.00142162 0)
(0.182337 0.00139137 0)
(0.18181 0.00136137 0)
(0.181282 0.00133163 0)
(0.180756 0.00130218 0)
(0.180229 0.00127303 0)
(0.179704 0.00124423 0)
(0.179179 0.00121584 0)
(0.178656 0.00118791 0)
(0.178135 0.00116057 0)
(0.177616 0.00113398 0)
(0.177099 0.00110841 0)
(0.176584 0.0010843 0)
(0.176072 0.00106245 0)
(0.175567 0.00104405 0)
(0.175077 0.00102935 0)
(0.174501 0.0010037 0)
(0.197056 0.0062873 0)
(0.197531 0.00685074 0)
(0.198095 0.00729687 0)
(0.198707 0.00761713 0)
(0.199335 0.0078193 0)
(0.199954 0.00791503 0)
(0.200546 0.00791638 0)
(0.201096 0.00783687 0)
(0.201594 0.00769168 0)
(0.202035 0.00749647 0)
(0.202415 0.00726622 0)
(0.202736 0.00701446 0)
(0.203 0.0067528 0)
(0.203214 0.00649063 0)
(0.203382 0.00623501 0)
(0.203512 0.00599081 0)
(0.20361 0.00576101 0)
(0.203681 0.00554703 0)
(0.203731 0.00534915 0)
(0.203763 0.00516688 0)
(0.203781 0.0049992 0)
(0.203787 0.00484486 0)
(0.203783 0.00470252 0)
(0.203771 0.00457088 0)
(0.203751 0.00444869 0)
(0.203725 0.00433486 0)
(0.203692 0.00422841 0)
(0.203653 0.00412851 0)
(0.203607 0.00403442 0)
(0.203556 0.00394553 0)
(0.203499 0.0038613 0)
(0.203435 0.00378126 0)
(0.203366 0.00370502 0)
(0.20329 0.00363223 0)
(0.203208 0.00356258 0)
(0.20312 0.00349579 0)
(0.203025 0.00343163 0)
(0.202923 0.00336988 0)
(0.202815 0.00331034 0)
(0.2027 0.00325283 0)
(0.202578 0.00319721 0)
(0.202449 0.00314333 0)
(0.202312 0.00309105 0)
(0.202169 0.00304026 0)
(0.202018 0.00299085 0)
(0.20186 0.00294273 0)
(0.201694 0.00289579 0)
(0.201521 0.00284997 0)
(0.20134 0.00280518 0)
(0.201151 0.00276135 0)
(0.200955 0.00271843 0)
(0.200752 0.00267635 0)
(0.200541 0.00263505 0)
(0.200322 0.0025945 0)
(0.200095 0.00255464 0)
(0.199861 0.00251544 0)
(0.19962 0.00247684 0)
(0.199371 0.00243882 0)
(0.199114 0.00240133 0)
(0.19885 0.00236436 0)
(0.198579 0.00232786 0)
(0.198301 0.00229181 0)
(0.198016 0.00225619 0)
(0.197723 0.00222096 0)
(0.197424 0.00218611 0)
(0.197118 0.00215161 0)
(0.196805 0.00211744 0)
(0.196486 0.00208358 0)
(0.19616 0.00205002 0)
(0.195828 0.00201673 0)
(0.195491 0.0019837 0)
(0.195147 0.00195091 0)
(0.194797 0.00191835 0)
(0.194443 0.001886 0)
(0.194082 0.00185385 0)
(0.193717 0.00182188 0)
(0.193347 0.00179009 0)
(0.192972 0.00175846 0)
(0.192593 0.00172698 0)
(0.192209 0.00169566 0)
(0.191822 0.00166447 0)
(0.191431 0.00163342 0)
(0.191036 0.00160251 0)
(0.190638 0.00157174 0)
(0.190237 0.00154111 0)
(0.189833 0.00151064 0)
(0.189426 0.00148033 0)
(0.189018 0.00145021 0)
(0.188607 0.00142032 0)
(0.188194 0.00139069 0)
(0.18778 0.00136138 0)
(0.187365 0.00133248 0)
(0.186949 0.00130409 0)
(0.186531 0.00127638 0)
(0.186113 0.0012496 0)
(0.185695 0.00122413 0)
(0.185278 0.00120048 0)
(0.184864 0.00117903 0)
(0.184462 0.00115789 0)
(0.183981 0.00111994 0)
(0.197379 0.00606361 0)
(0.197802 0.00656623 0)
(0.1983 0.00697491 0)
(0.198846 0.00727852 0)
(0.199413 0.00747937 0)
(0.199977 0.00758523 0)
(0.200521 0.0076057 0)
(0.201032 0.00755198 0)
(0.2015 0.00743682 0)
(0.201919 0.00727369 0)
(0.202285 0.00707568 0)
(0.202599 0.00685485 0)
(0.202863 0.0066217 0)
(0.203081 0.00638494 0)
(0.203258 0.00615131 0)
(0.2034 0.00592566 0)
(0.203512 0.00571119 0)
(0.203598 0.00550967 0)
(0.203665 0.00532182 0)
(0.203714 0.00514755 0)
(0.203751 0.00498629 0)
(0.203777 0.00483713 0)
(0.203794 0.00469903 0)
(0.203804 0.00457093 0)
(0.203808 0.00445179 0)
(0.203806 0.00434065 0)
(0.2038 0.00423664 0)
(0.20379 0.00413901 0)
(0.203775 0.00404708 0)
(0.203757 0.00396027 0)
(0.203735 0.00387808 0)
(0.203709 0.00380007 0)
(0.20368 0.00372584 0)
(0.203647 0.00365506 0)
(0.20361 0.00358743 0)
(0.20357 0.00352269 0)
(0.203526 0.00346059 0)
(0.203478 0.00340091 0)
(0.203426 0.00334348 0)
(0.20337 0.0032881 0)
(0.203309 0.00323463 0)
(0.203245 0.00318292 0)
(0.203176 0.00313283 0)
(0.203103 0.00308425 0)
(0.203025 0.00303706 0)
(0.202943 0.00299117 0)
(0.202855 0.00294648 0)
(0.202763 0.0029029 0)
(0.202666 0.00286037 0)
(0.202564 0.0028188 0)
(0.202457 0.00277812 0)
(0.202345 0.00273829 0)
(0.202227 0.00269923 0)
(0.202104 0.0026609 0)
(0.201975 0.00262324 0)
(0.201841 0.00258621 0)
(0.201702 0.00254977 0)
(0.201557 0.00251387 0)
(0.201406 0.00247849 0)
(0.201249 0.00244357 0)
(0.201087 0.0024091 0)
(0.200919 0.00237503 0)
(0.200746 0.00234134 0)
(0.200566 0.00230801 0)
(0.200381 0.002275 0)
(0.200191 0.00224229 0)
(0.199994 0.00220986 0)
(0.199792 0.00217768 0)
(0.199585 0.00214573 0)
(0.199371 0.002114 0)
(0.199153 0.00208246 0)
(0.198928 0.0020511 0)
(0.198699 0.0020199 0)
(0.198464 0.00198883 0)
(0.198223 0.0019579 0)
(0.197978 0.00192708 0)
(0.197728 0.00189635 0)
(0.197472 0.00186572 0)
(0.197212 0.00183516 0)
(0.196947 0.00180468 0)
(0.196678 0.00177426 0)
(0.196404 0.00174389 0)
(0.196126 0.00171359 0)
(0.195843 0.00168334 0)
(0.195557 0.00165316 0)
(0.195266 0.00162305 0)
(0.194972 0.00159304 0)
(0.194675 0.00156314 0)
(0.194373 0.00153339 0)
(0.194069 0.00150383 0)
(0.193762 0.00147453 0)
(0.193451 0.00144556 0)
(0.193138 0.00141704 0)
(0.192822 0.00138913 0)
(0.192504 0.00136204 0)
(0.192184 0.00133605 0)
(0.191863 0.00131144 0)
(0.191543 0.00128791 0)
(0.191231 0.00126234 0)
(0.190848 0.00121787 0)
(0.19767 0.00585897 0)
(0.198048 0.00630891 0)
(0.198492 0.00668259 0)
(0.19898 0.00696843 0)
(0.199492 0.00716532 0)
(0.200006 0.00727794 0)
(0.200507 0.00731362 0)
(0.200981 0.00728153 0)
(0.201419 0.0071923 0)
(0.201815 0.00705741 0)
(0.202167 0.00688823 0)
(0.202472 0.00669543 0)
(0.202732 0.00648848 0)
(0.202951 0.00627537 0)
(0.203132 0.00606247 0)
(0.20328 0.00585456 0)
(0.203399 0.00565493 0)
(0.203495 0.00546562 0)
(0.203571 0.00528767 0)
(0.203631 0.00512137 0)
(0.203678 0.00496647 0)
(0.203715 0.00482242 0)
(0.203742 0.00468844 0)
(0.203763 0.00456369 0)
(0.203778 0.00444732 0)
(0.203788 0.00433852 0)
(0.203794 0.00423653 0)
(0.203797 0.00414068 0)
(0.203796 0.00405035 0)
(0.203792 0.00396502 0)
(0.203786 0.00388421 0)
(0.203777 0.00380751 0)
(0.203766 0.00373455 0)
(0.203752 0.00366501 0)
(0.203736 0.0035986 0)
(0.203718 0.00353507 0)
(0.203698 0.00347418 0)
(0.203675 0.00341573 0)
(0.20365 0.00335952 0)
(0.203623 0.00330538 0)
(0.203594 0.00325317 0)
(0.203562 0.00320274 0)
(0.203528 0.00315395 0)
(0.203491 0.00310669 0)
(0.203451 0.00306085 0)
(0.203409 0.00301633 0)
(0.203364 0.00297304 0)
(0.203317 0.00293088 0)
(0.203266 0.00288978 0)
(0.203212 0.00284967 0)
(0.203156 0.00281047 0)
(0.203096 0.00277213 0)
(0.203032 0.00273459 0)
(0.202966 0.00269778 0)
(0.202896 0.00266166 0)
(0.202823 0.00262618 0)
(0.202746 0.0025913 0)
(0.202665 0.00255697 0)
(0.202581 0.00252314 0)
(0.202492 0.0024898 0)
(0.2024 0.00245689 0)
(0.202304 0.00242438 0)
(0.202204 0.00239225 0)
(0.2021 0.00236046 0)
(0.201992 0.00232899 0)
(0.20188 0.0022978 0)
(0.201763 0.00226687 0)
(0.201643 0.00223618 0)
(0.201518 0.0022057 0)
(0.201388 0.00217541 0)
(0.201255 0.00214529 0)
(0.201117 0.00211532 0)
(0.200975 0.00208547 0)
(0.200828 0.00205574 0)
(0.200677 0.00202609 0)
(0.200522 0.00199653 0)
(0.200362 0.00196702 0)
(0.200198 0.00193756 0)
(0.20003 0.00190814 0)
(0.199858 0.00187875 0)
(0.199681 0.00184937 0)
(0.1995 0.00182001 0)
(0.199315 0.00179065 0)
(0.199126 0.00176131 0)
(0.198933 0.00173198 0)
(0.198736 0.00170268 0)
(0.198535 0.00167343 0)
(0.19833 0.00164423 0)
(0.198122 0.00161514 0)
(0.197909 0.00158619 0)
(0.197693 0.00155745 0)
(0.197474 0.00152899 0)
(0.197251 0.00150093 0)
(0.197024 0.00147341 0)
(0.196794 0.00144662 0)
(0.196562 0.00142073 0)
(0.196328 0.00139581 0)
(0.196093 0.00137113 0)
(0.195861 0.00134311 0)