/*--------------------------------*- C++ -*----------------------------------*\
| =========                 |                                                 |
| \\      /  F ield         | OpenFOAM: The Open Source CFD Toolbox           |
|  \\    /   O peration     | Version:  2.3.0                                 |
|   \\  /    A nd           | Web:      www.OpenFOAM.org                      |
|    \\/     M anipulation  |                                                 |
\*---------------------------------------------------------------------------*/
FoamFile
{
    version     2.0;
    format      ascii;
    class       volScalarField;
    location    "0.9";
    object      p;
}
// * * * * * * * * * * * * * * * * * * * * * * * * * * * * * * * * * * * * * //

dimensions      [0 2 -2 0 0 0 0];

internalField   nonuniform List<scalar> 
2700
(
0.0081924
0.00658084
0.00537101
0.00462304
0.00410509
0.00364833
0.0032103
0.00281434
0.00249973
0.00228526
0.00216263
0.00210715
0.00209121
0.00209257
0.00209677
0.00209623
0.00208825
0.00207305
0.00205222
0.00202758
0.00200074
0.00197285
0.00194467
0.00191664
0.00188898
0.00186175
0.00183495
0.00180852
0.0017824
0.00175651
0.00173081
0.00170525
0.0016798
0.00165441
0.00162909
0.00160381
0.00157857
0.00155336
0.00152817
0.00150301
0.00147786
0.00145274
0.00142763
0.00140254
0.00137747
0.00135241
0.00132736
0.00130233
0.00127732
0.00125232
0.00122733
0.00120235
0.00117739
0.00115243
0.0011275
0.00110256
0.00107764
0.00105273
0.00102783
0.00100293
0.00097805
0.000953165
0.000928302
0.000903429
0.000878579
0.000853716
0.000828879
0.000804022
0.000779195
0.000754342
0.000729521
0.000704669
0.000679853
0.000654999
0.000630187
0.000605327
0.000580517
0.000555649
0.00053084
0.000505962
0.000481155
0.000456264
0.000431461
0.000406559
0.000381763
0.00035685
0.00033207
0.00030715
0.000282397
0.000257478
0.000232771
0.000207864
0.000183231
0.000158358
0.000133842
0.000109031
8.47027e-05
5.99934e-05
3.59869e-05
1.13791e-05
0.00719701
0.00622348
0.00527616
0.00457203
0.00406304
0.00363334
0.00322909
0.00286094
0.00256002
0.00234589
0.00221628
0.00215161
0.00212665
0.00211991
0.00211746
0.00211187
0.00210031
0.00208273
0.00206032
0.00203465
0.00200706
0.00197861
0.00194998
0.00192156
0.00189354
0.001866
0.0018389
0.00181221
0.00178584
0.00175974
0.00173384
0.0017081
0.00168248
0.00165695
0.0016315
0.00160609
0.00158074
0.00155542
0.00153013
0.00150488
0.00147965
0.00145444
0.00142926
0.0014041
0.00137897
0.00135385
0.00132875
0.00130366
0.0012786
0.00125355
0.00122852
0.0012035
0.00117849
0.0011535
0.00112852
0.00110355
0.0010786
0.00105366
0.00102873
0.0010038
0.000978895
0.000953982
0.000929095
0.000904198
0.000879327
0.000854441
0.000829584
0.000804706
0.00077986
0.000754988
0.000730151
0.000705281
0.00068045
0.000655579
0.000630753
0.000605877
0.000581054
0.000556171
0.000531351
0.000506458
0.000481641
0.000456736
0.000431924
0.000407008
0.000382205
0.000357279
0.000332493
0.000307559
0.000282802
0.000257869
0.000233159
0.000208239
0.000183605
0.000158718
0.000134203
0.000109378
8.50551e-05
6.03284e-05
3.63239e-05
1.16777e-05
0.00646637
0.0058839
0.00517441
0.00453983
0.00403956
0.00363006
0.00326335
0.00293151
0.00265076
0.00243796
0.00229656
0.00221513
0.00217417
0.00215454
0.0021422
0.00212943
0.00211312
0.00209267
0.00206865
0.00204208
0.00201395
0.0019851
0.00195611
0.00192733
0.00189895
0.00187104
0.00184359
0.00181655
0.00178986
0.00176345
0.00173728
0.00171129
0.00168545
0.00165972
0.00163408
0.00160851
0.00158301
0.00155755
0.00153215
0.00150678
0.00148145
0.00145615
0.00143088
0.00140564
0.00138043
0.00135524
0.00133008
0.00130494
0.00127982
0.00125472
0.00122964
0.00120457
0.00117953
0.00115449
0.00112948
0.00110447
0.00107949
0.00105451
0.00102955
0.00100459
0.000979661
0.000954722
0.000929812
0.00090489
0.000879998
0.00085509
0.000830214
0.000805316
0.000780453
0.000755561
0.000730709
0.000705821
0.000680977
0.000656088
0.00063125
0.000606358
0.000581525
0.000556626
0.000531797
0.000506889
0.000482064
0.000457145
0.000432327
0.000407396
0.000382587
0.000357646
0.000332856
0.000307908
0.000283148
0.000258199
0.000233489
0.000208552
0.000183919
0.000159013
0.000134501
0.000109656
8.53346e-05
6.0589e-05
3.65437e-05
1.18318e-05
0.00591979
0.00555698
0.00503573
0.00448977
0.00401691
0.00362696
0.00329157
0.00299336
0.00273556
0.00252971
0.00238179
0.00228662
0.00223052
0.0021976
0.00217487
0.00215444
0.00213268
0.00210847
0.00208193
0.00205365
0.00202432
0.00199456
0.00196483
0.00193539
0.00190642
0.00187794
0.00184996
0.00182243
0.00179528
0.00176846
0.00174191
0.00171558
0.00168943
0.00166342
0.00163753
0.00161174
0.00158603
0.00156038
0.00153481
0.00150928
0.00148381
0.00145837
0.00143298
0.00140763
0.00138231
0.00135702
0.00133177
0.00130654
0.00128135
0.00125617
0.00123102
0.00120589
0.00118079
0.00115569
0.00113063
0.00110557
0.00108054
0.00105552
0.00103052
0.00100553
0.000980558
0.000955584
0.000930642
0.000905689
0.000880769
0.000855832
0.000830931
0.000806007
0.000781122
0.000756207
0.000731335
0.000706424
0.000681563
0.000656654
0.0006318
0.000606889
0.000582042
0.000557125
0.000532283
0.000507357
0.000482522
0.000457586
0.000432758
0.00040781
0.000382994
0.000358036
0.000333239
0.000308274
0.000283508
0.000258542
0.000233825
0.000208871
0.000184232
0.000159308
0.000134788
0.000109926
8.5586e-05
6.08238e-05
3.66952e-05
1.19063e-05
0.00548694
0.00524698
0.00486281
0.0044125
0.00398498
0.0036193
0.00330922
0.0030388
0.00280324
0.00260793
0.00245867
0.00235435
0.00228621
0.00224184
0.00220987
0.00218248
0.0021556
0.00212764
0.00209838
0.00206814
0.00203738
0.00200652
0.0019759
0.00194569
0.00191601
0.00188687
0.00185827
0.00183015
0.00180246
0.00177513
0.00174811
0.00172135
0.0016948
0.00166843
0.00164221
0.00161612
0.00159013
0.00156423
0.00153842
0.00151268
0.00148701
0.00146139
0.00143583
0.00141032
0.00138486
0.00135943
0.00133406
0.00130871
0.0012834
0.00125812
0.00123288
0.00120766
0.00118247
0.0011573
0.00113216
0.00110704
0.00108194
0.00105686
0.0010318
0.00100675
0.000981734
0.000956711
0.000931725
0.000906727
0.000881768
0.000856791
0.000831856
0.000806895
0.000781979
0.000757031
0.000732131
0.000707191
0.000682303
0.000657367
0.000632491
0.000607554
0.000582687
0.000557746
0.000532886
0.000507938
0.000483085
0.000458128
0.000433284
0.000408317
0.000383485
0.000358508
0.000333697
0.000308713
0.000283932
0.000258948
0.000234216
0.000209244
0.000184585
0.000159646
0.000135099
0.000110223
8.5837e-05
6.10564e-05
3.68125e-05
1.19467e-05
0.00513102
0.00496233
0.00467583
0.00431384
0.00394186
0.00360648
0.0033187
0.00307038
0.00285444
0.0026713
0.00252469
0.00241531
0.00233819
0.00228432
0.00224424
0.0022106
0.00217905
0.00214762
0.00211577
0.0020836
0.00205141
0.00201946
0.00198794
0.00195698
0.00192661
0.00189684
0.00186763
0.00183894
0.0018107
0.00178286
0.00175537
0.00172816
0.0017012
0.00167444
0.00164786
0.00162143
0.00159514
0.00156896
0.00154288
0.0015169
0.00149099
0.00146516
0.00143941
0.00141371
0.00138807
0.00136248
0.00133695
0.00131146
0.00128602
0.00126061
0.00123525
0.00120992
0.00118463
0.00115936
0.00113413
0.00110891
0.00108374
0.00105857
0.00103345
0.00100833
0.000983245
0.000958159
0.000933115
0.000908061
0.00088305
0.000858023
0.00083304
0.000808034
0.000783076
0.000758086
0.000733147
0.00070817
0.000683248
0.000658277
0.000633369
0.000608401
0.000583504
0.000558534
0.000533647
0.000508672
0.000483794
0.000458812
0.000433943
0.000408953
0.000384097
0.000359099
0.000334262
0.000309258
0.000284451
0.000259449
0.000234686
0.000209698
0.000185002
0.000160048
0.000135452
0.000110563
8.61037e-05
6.1298e-05
3.69172e-05
1.19838e-05
0.00483102
0.00470693
0.00449014
0.00420234
0.0038873
0.00358685
0.00332135
0.00309158
0.00289233
0.00272138
0.00257995
0.00246891
0.00238571
0.00232428
0.0022772
0.00223794
0.00220215
0.00216755
0.00213331
0.00209932
0.00206574
0.00203269
0.0020003
0.00196858
0.00193755
0.00190716
0.00187737
0.00184812
0.00181936
0.00179103
0.00176307
0.00173543
0.00170806
0.00168093
0.001654
0.00162724
0.00160064
0.00157418
0.00154784
0.0015216
0.00149547
0.00146942
0.00144346
0.00141756
0.00139175
0.00136599
0.0013403
0.00131465
0.00128907
0.00126352
0.00123804
0.00121258
0.00118717
0.00116179
0.00113646
0.00111115
0.00108589
0.00106063
0.00103542
0.00101022
0.000985065
0.000959908
0.000934797
0.000909679
0.000884607
0.000859521
0.000834483
0.000809424
0.000784415
0.000759377
0.000734393
0.000709371
0.000684407
0.000659396
0.000634448
0.000609443
0.000584509
0.000559506
0.000534583
0.000509578
0.000484666
0.000459655
0.000434754
0.000409737
0.000384848
0.000359826
0.000334954
0.000309929
0.000285083
0.000260062
0.000235255
0.000210249
0.0001855
0.000160531
0.000135865
0.00011096
8.64017e-05
6.15614e-05
3.7032e-05
1.20472e-05
0.00457431
0.0044803
0.00431339
0.00408477
0.00382229
0.00355874
0.00331686
0.00310424
0.00291947
0.00275994
0.00262503
0.00251492
0.00242828
0.00236126
0.00230838
0.00226419
0.00222458
0.00218711
0.00215071
0.00211504
0.00208012
0.00204601
0.00201273
0.00198026
0.00194856
0.00191756
0.0018872
0.00185741
0.00182815
0.00179933
0.00177092
0.00174286
0.0017151
0.0016876
0.00166033
0.00163325
0.00160636
0.00157961
0.00155301
0.00152653
0.00150017
0.0014739
0.00144774
0.00142166
0.00139566
0.00136973
0.00134388
0.00131808
0.00129236
0.00126668
0.00124106
0.00121548
0.00118996
0.00116447
0.00113904
0.00111362
0.00108826
0.00106292
0.00103763
0.00101234
0.000987109
0.000961878
0.000936696
0.000911511
0.000886374
0.000861227
0.00083613
0.000811015
0.000785951
0.000760862
0.000735827
0.000710759
0.000685747
0.000660693
0.000635702
0.000610657
0.000585681
0.000560642
0.000535679
0.000510641
0.000485688
0.000460649
0.000435706
0.000410663
0.000385733
0.000360686
0.00033577
0.000310723
0.000285829
0.000260788
0.000235924
0.000210901
0.000186084
0.000161096
0.000136346
0.000111415
8.67417e-05
6.18554e-05
3.71746e-05
1.21517e-05
0.00435214
0.00427934
0.00414862
0.00396617
0.00374923
0.0035218
0.00330477
0.0031093
0.00293776
0.00278873
0.00266082
0.00255342
0.00246557
0.00239486
0.00233747
0.00228911
0.00224615
0.00220613
0.00216778
0.00213059
0.00209444
0.00205929
0.00202514
0.00199192
0.00195955
0.00192794
0.00189702
0.00186671
0.00183695
0.00180767
0.00177882
0.00175034
0.0017222
0.00169434
0.00166673
0.00163934
0.00161215
0.00158513
0.00155828
0.00153155
0.00150497
0.00147849
0.00145213
0.00142585
0.00139968
0.00137358
0.00134757
0.00132163
0.00129576
0.00126994
0.0012442
0.0012185
0.00119287
0.00116727
0.00114173
0.00111622
0.00109077
0.00106533
0.00103995
0.00101459
0.000989279
0.000963975
0.000938722
0.00091347
0.000888268
0.000863061
0.000837903
0.000812733
0.000787613
0.000762474
0.000737386
0.000712272
0.000687211
0.000662115
0.000637076
0.000611994
0.000586972
0.000561898
0.000536891
0.00051182
0.000486824
0.000461755
0.000436768
0.000411699
0.000386722
0.000361652
0.000336685
0.000311617
0.000286666
0.000261605
0.000236678
0.000211634
0.000186741
0.00016173
0.000136885
0.00011192
8.71228e-05
6.21787e-05
3.73505e-05
1.22888e-05
0.00415796
0.00410062
0.0039968
0.00385008
0.0036712
0.00347713
0.00328516
0.0031073
0.00294858
0.00280936
0.00268846
0.00258482
0.00249748
0.00242481
0.00236423
0.00231254
0.00226671
0.00222446
0.00218439
0.00214584
0.00210856
0.00207245
0.00203746
0.00200351
0.00197048
0.00193828
0.00190681
0.00187598
0.00184574
0.001816
0.00178672
0.00175784
0.00172932
0.0017011
0.00167317
0.00164547
0.00161799
0.0015907
0.00156358
0.00153662
0.00150981
0.00148312
0.00145656
0.0014301
0.00140375
0.00137748
0.00135132
0.00132522
0.00129921
0.00127326
0.00124739
0.00122157
0.00119582
0.00117012
0.00114448
0.00111887
0.00109332
0.0010678
0.00104234
0.0010169
0.000991508
0.000966132
0.000940808
0.000915492
0.000890224
0.000864958
0.00083974
0.000814516
0.00078934
0.000764152
0.000739012
0.000713853
0.000688742
0.000663606
0.000638519
0.0006134
0.000588332
0.000563224
0.000538171
0.000513071
0.000488028
0.000462932
0.000437898
0.000412804
0.000387777
0.000362684
0.000337665
0.000312574
0.000287566
0.000262482
0.000237489
0.00021242
0.00018745
0.000162407
0.000137467
0.000112454
8.75346e-05
6.25215e-05
3.75525e-05
1.24362e-05
0.00398688
0.00394111
0.0038577
0.00373874
0.00359108
0.00342657
0.00325875
0.00309872
0.00295283
0.00282308
0.00270906
0.00260975
0.00252411
0.00245092
0.0023884
0.00233426
0.00228612
0.00224196
0.0022004
0.00216065
0.00212237
0.00208539
0.00204963
0.00201497
0.00198131
0.00194853
0.00191653
0.00188521
0.0018545
0.00182432
0.00179462
0.00176535
0.00173646
0.00170789
0.00167963
0.00165162
0.00162385
0.00159629
0.00156892
0.00154172
0.00151468
0.00148778
0.00146102
0.00143437
0.00140784
0.00138141
0.00135509
0.00132884
0.00130269
0.00127661
0.00125061
0.00122467
0.00119881
0.00117299
0.00114725
0.00112154
0.0010959
0.0010703
0.00104475
0.00101923
0.000993761
0.000968315
0.00094292
0.000917539
0.000892206
0.000866883
0.000841604
0.000816328
0.000791095
0.00076586
0.000740666
0.000715464
0.000690303
0.000665128
0.000639993
0.000614838
0.000589724
0.000564584
0.000539484
0.000514355
0.000489266
0.000464143
0.000439062
0.000413943
0.000388867
0.00036375
0.000338679
0.000313564
0.000288498
0.000263389
0.00023833
0.000213232
0.000188186
0.000163103
0.00013807
0.000113
8.79631e-05
6.28707e-05
3.77679e-05
1.25735e-05
0.00383517
0.00379824
0.00373056
0.00363335
0.00351114
0.00337216
0.00322666
0.00308413
0.00295114
0.00283076
0.00272355
0.00262885
0.00254572
0.00247312
0.00240978
0.00235408
0.0023042
0.00225849
0.00221567
0.0021749
0.00213576
0.00209802
0.00206155
0.00202625
0.001992
0.00195867
0.00192616
0.00189437
0.00186321
0.00183261
0.00180251
0.00177285
0.00174359
0.00171469
0.0016861
0.00165779
0.00162973
0.0016019
0.00157428
0.00154684
0.00151958
0.00149246
0.0014655
0.00143866
0.00141196
0.00138536
0.00135887
0.00133248
0.00130618
0.00127997
0.00125384
0.00122778
0.0012018
0.00117588
0.00115003
0.00112423
0.00109849
0.0010728
0.00104717
0.00102157
0.000996023
0.000970507
0.00094504
0.000919597
0.000894198
0.000868817
0.000843477
0.000818149
0.00079286
0.000767578
0.000742331
0.000717086
0.000691875
0.000666661
0.000641478
0.000616288
0.000591127
0.000565955
0.00054081
0.000515651
0.000490517
0.000465366
0.000440239
0.000415094
0.00038997
0.000364827
0.000339706
0.000314564
0.000289443
0.000264304
0.000239184
0.000214049
0.000188931
0.000163801
0.00013868
0.000113544
8.83962e-05
6.32159e-05
3.79853e-05
1.26911e-05
0.00369993
0.00366985
0.00361447
0.0035345
0.00343299
0.00331567
0.00319019
0.00306428
0.00294405
0.00283307
0.00273268
0.00264278
0.00256267
0.00249149
0.00242825
0.00237179
0.00232079
0.00227392
0.00223009
0.00218849
0.00214863
0.00211024
0.00207317
0.00203729
0.0020025
0.00196867
0.00193568
0.00190343
0.00187185
0.00184084
0.00181035
0.00178032
0.00175071
0.00172147
0.00169257
0.00166396
0.00163562
0.00160752
0.00157965
0.00155197
0.00152448
0.00149716
0.00146999
0.00144297
0.00141608
0.00138932
0.00136267
0.00133612
0.00130968
0.00128333
0.00125708
0.0012309
0.0012048
0.00117877
0.00115282
0.00112692
0.00110109
0.00107531
0.00104959
0.00102391
0.000998288
0.000972702
0.000947163
0.000921656
0.00089619
0.000870752
0.000845351
0.000819972
0.000794625
0.000769296
0.000743996
0.000718709
0.000693447
0.000668195
0.000642964
0.000617739
0.000592532
0.000567327
0.000542137
0.000516948
0.00049177
0.00046659
0.000441419
0.000416245
0.000391076
0.000365904
0.000340735
0.000315562
0.00029039
0.000265215
0.000240038
0.00021486
0.000189674
0.000164489
0.000139285
0.000114076
8.88258e-05
6.35508e-05
3.81974e-05
1.27891e-05
0.00357887
0.00355416
0.00350853
0.00344234
0.00335767
0.00325855
0.00315065
0.0030401
0.00293218
0.00283056
0.00273706
0.00265212
0.00257539
0.0025062
0.00244378
0.00238728
0.00233573
0.00228812
0.00224356
0.00220131
0.00216088
0.00212197
0.0020844
0.00204804
0.00201276
0.00197847
0.00194504
0.00191238
0.00188039
0.00184899
0.00181813
0.00178775
0.0017578
0.00172824
0.00169902
0.00167012
0.0016415
0.00161314
0.00158502
0.00155711
0.00152939
0.00150186
0.00147449
0.00144728
0.00142021
0.00139328
0.00136647
0.00133978
0.00131319
0.00128671
0.00126032
0.00123402
0.0012078
0.00118167
0.00115561
0.00112961
0.00110369
0.00107782
0.00105201
0.00102626
0.00100055
0.000974895
0.000949283
0.000923712
0.000898181
0.000872685
0.000847223
0.000821791
0.000796388
0.000771011
0.000745659
0.000720328
0.000695017
0.000669725
0.000644447
0.000619185
0.000593933
0.000568694
0.000543462
0.000518239
0.000493019
0.000467808
0.000442595
0.000417389
0.000392178
0.000366974
0.000341759
0.000316552
0.000291331
0.000266117
0.000240885
0.00021566
0.00019041
0.000165165
0.000139882
0.000114595
8.9247e-05
6.3873e-05
3.84013e-05
1.28718e-05
0.00347013
0.0034497
0.00341185
0.00335675
0.00328581
0.00320191
0.00310923
0.00301254
0.00291626
0.00282381
0.00273724
0.00265739
0.00258428
0.00251749
0.00245644
0.00240049
0.00234891
0.00230098
0.00225598
0.00221329
0.00217245
0.00213314
0.00209518
0.00205841
0.00202273
0.00198804
0.00195421
0.00192116
0.00188879
0.00185704
0.00182583
0.00179511
0.00176484
0.00173496
0.00170544
0.00167626
0.00164737
0.00161875
0.00159038
0.00156224
0.0015343
0.00150656
0.00147899
0.00145159
0.00142434
0.00139724
0.00137027
0.00134343
0.0013167
0.00129008
0.00126356
0.00123714
0.0012108
0.00118456
0.00115839
0.0011323
0.00110628
0.00108032
0.00105443
0.00102859
0.00100281
0.000977082
0.000951398
0.000925763
0.000900165
0.000874611
0.000849088
0.000823603
0.000798144
0.000772719
0.000747315
0.000721939
0.00069658
0.000671246
0.000645924
0.000620623
0.000595328
0.000570053
0.000544779
0.000519522
0.000494262
0.000469017
0.000443764
0.000418524
0.000393272
0.000368033
0.000342776
0.000317531
0.000292264
0.000267007
0.000241722
0.000216447
0.000191134
0.000165826
0.000140467
0.000115099
8.96573e-05
6.41821e-05
3.85962e-05
1.29442e-05
0.0033722
0.00335519
0.00332361
0.00327749
0.00321779
0.00314658
0.00306695
0.00298256
0.00289704
0.0028134
0.00273371
0.00265905
0.00258976
0.00252567
0.00246639
0.00241144
0.0023603
0.00231242
0.00226727
0.00222435
0.00218325
0.00214368
0.00210543
0.00206836
0.00203235
0.00199731
0.00196314
0.00192974
0.00189704
0.00186495
0.00183341
0.00180238
0.00177179
0.00174162
0.00171181
0.00168235
0.0016532
0.00162433
0.00159571
0.00156734
0.00153919
0.00151124
0.00148347
0.00145589
0.00142846
0.00140119
0.00137406
0.00134706
0.00132019
0.00129344
0.00126679
0.00124024
0.0012138
0.00118744
0.00116117
0.00113498
0.00110886
0.00108282
0.00105683
0.00103092
0.00100506
0.000979258
0.000953503
0.000927802
0.00090214
0.000876525
0.000850943
0.000825404
0.00079989
0.000774415
0.00074896
0.000723539
0.000698133
0.000672757
0.00064739
0.00062205
0.000596713
0.000571401
0.000546087
0.000520794
0.000495495
0.000470214
0.000444923
0.000419648
0.000394356
0.00036908
0.000343782
0.000318497
0.000293185
0.000267883
0.000242547
0.000217218
0.000191845
0.000166471
0.000141037
0.000115588
9.00549e-05
6.44788e-05
3.87822e-05
1.30099e-05
0.00328385
0.00326961
0.00324309
0.00320427
0.00315379
0.00309315
0.00302463
0.00295104
0.0028753
0.00279996
0.00272697
0.00265754
0.00259219
0.00253101
0.00247379
0.0024202
0.00236986
0.00232239
0.00227737
0.00223444
0.00219325
0.00215354
0.00211511
0.00207782
0.00204157
0.00200625
0.00197179
0.00193809
0.00190507
0.00187268
0.00184085
0.00180951
0.00177864
0.00174818
0.0017181
0.00168837
0.00165896
0.00162985
0.001601
0.00157241
0.00154404
0.00151588
0.00148793
0.00146016
0.00143256
0.00140512
0.00137783
0.00135068
0.00132366
0.00129677
0.00127
0.00124333
0.00121677
0.0011903
0.00116392
0.00113764
0.00111142
0.00108529
0.00105922
0.00103323
0.00100729
0.000981417
0.000955592
0.000929825
0.000904098
0.000878424
0.000852783
0.000827189
0.000801622
0.000776096
0.000750592
0.000725124
0.000699672
0.000674253
0.000648843
0.000623462
0.000598085
0.000572734
0.000547381
0.000522051
0.000496714
0.000471397
0.000446068
0.000420757
0.000395427
0.000370112
0.000344774
0.000319448
0.000294091
0.000268743
0.000243356
0.000217972
0.000192539
0.000167099
0.000141593
0.000116062
9.04392e-05
6.47636e-05
3.896e-05
1.3071e-05
0.00320405
0.00319204
0.00316964
0.00313678
0.00309388
0.00304204
0.00298294
0.00291874
0.00285175
0.0027841
0.00271754
0.00265326
0.00259194
0.00253382
0.00247887
0.0024269
0.00237766
0.00233087
0.00228625
0.00224351
0.00220239
0.00216267
0.00212417
0.00208676
0.00205033
0.00201481
0.00198011
0.00194615
0.00191287
0.00188021
0.0018481
0.00181649
0.00178535
0.00175463
0.00172429
0.00169431
0.00166465
0.0016353
0.00160622
0.00157741
0.00154883
0.00152048
0.00149233
0.00146438
0.00143661
0.00140901
0.00138156
0.00135426
0.00132711
0.00130008
0.00127318
0.00124639
0.00121971
0.00119314
0.00116666
0.00114027
0.00111396
0.00108774
0.00106159
0.00103551
0.0010095
0.000983553
0.000957658
0.000931825
0.000906035
0.000880301
0.000854602
0.000828953
0.000803333
0.000777757
0.000752203
0.000726689
0.000701192
0.000675729
0.000650277
0.000624856
0.000599438
0.000574049
0.000548658
0.00052329
0.000497916
0.000472563
0.000447197
0.000421848
0.000396481
0.000371127
0.000345749
0.000320381
0.00029498
0.000269585
0.000244148
0.000218709
0.000193216
0.00016771
0.000142131
0.00011652
9.08095e-05
6.50369e-05
3.913e-05
1.31288e-05
0.00313196
0.00312176
0.00310272
0.00307473
0.00303809
0.00299357
0.00294243
0.00288633
0.00282708
0.00276644
0.00270592
0.00264664
0.00258933
0.00253436
0.00248183
0.00243167
0.00238375
0.00233789
0.00229388
0.00225153
0.00221064
0.00217103
0.00213256
0.00209512
0.00205861
0.00202294
0.00198806
0.0019539
0.0019204
0.0018875
0.00185514
0.00182329
0.0017919
0.00176093
0.00173034
0.00170012
0.00167023
0.00164066
0.00161136
0.00158234
0.00155356
0.00152501
0.00149668
0.00146855
0.0014406
0.00141284
0.00138524
0.0013578
0.0013305
0.00130334
0.00127631
0.00124941
0.00122262
0.00119593
0.00116935
0.00114286
0.00111647
0.00109016
0.00106392
0.00103777
0.00101168
0.000985657
0.000959694
0.000933795
0.000907943
0.000882149
0.000856393
0.000830689
0.000805017
0.000779391
0.000753789
0.000728229
0.000702687
0.000677181
0.000651687
0.000626225
0.000600769
0.000575341
0.000549912
0.000524507
0.000499097
0.000473707
0.000448305
0.000422918
0.000397514
0.000372122
0.000346704
0.000321293
0.00029585
0.000270406
0.00024492
0.000219425
0.000193874
0.000168301
0.000142652
0.000116961
9.11654e-05
6.52984e-05
3.92926e-05
1.3184e-05
0.00306685
0.00305813
0.00304184
0.00301786
0.00298638
0.00294797
0.00290357
0.00285441
0.00280193
0.00274759
0.00269265
0.00263812
0.00258473
0.00253292
0.00248288
0.00243467
0.00238823
0.00234347
0.00230026
0.00225847
0.00221795
0.00217858
0.00214025
0.00210286
0.00206633
0.0020306
0.0019956
0.00196129
0.00192761
0.0018945
0.00186194
0.00182986
0.00179825
0.00176705
0.00173624
0.0017058
0.00167569
0.00164589
0.00161639
0.00158716
0.00155819
0.00152945
0.00150094
0.00147263
0.00144453
0.00141661
0.00138885
0.00136127
0.00133384
0.00130655
0.00127939
0.00125237
0.00122547
0.00119868
0.00117199
0.00114541
0.00111892
0.00109253
0.00106621
0.00103998
0.00101381
0.000987721
0.00096169
0.000935727
0.000909813
0.00088396
0.000858148
0.000832391
0.000806667
0.000780991
0.000755343
0.000729737
0.000704151
0.000678602
0.000653068
0.000627566
0.000602071
0.000576604
0.000551139
0.000525698
0.000500252
0.000474824
0.000449387
0.000423963
0.000398523
0.000373091
0.000347635
0.000322182
0.000296696
0.000271205
0.00024567
0.00022012
0.000194511
0.000168872
0.000143154
0.000117384
9.15066e-05
6.55477e-05
3.94478e-05
1.32371e-05
0.00299693
0.00298967
0.00297607
0.00295606
0.00292971
0.0028974
0.00285977
0.00281771
0.00277227
0.00272457
0.00267565
0.00262638
0.00257743
0.00252928
0.00248222
0.00243639
0.00239182
0.00234852
0.00230641
0.00226543
0.0022255
0.00218654
0.00214848
0.00211126
0.0020748
0.00203906
0.00200399
0.00196956
0.00193572
0.00190243
0.00186965
0.00183735
0.00180549
0.00177406
0.001743
0.00171231
0.00168196
0.00165193
0.00162219
0.00159274
0.00156354
0.00153459
0.00150587
0.00147737
0.00144907
0.00142097
0.00139305
0.0013653
0.0013377
0.00131027
0.00128297
0.00125581
0.00122878
0.00120186
0.00117506
0.00114837
0.00112177
0.00109528
0.00106886
0.00104254
0.00101629
0.000990114
0.000964005
0.000937966
0.000911981
0.000886059
0.000860183
0.000834362
0.000808579
0.000782845
0.000757143
0.000731482
0.000705847
0.000680247
0.000654666
0.000629116
0.000603578
0.000578066
0.000552559
0.000527073
0.000501587
0.000476116
0.000450638
0.00042517
0.000399688
0.00037421
0.000348709
0.000323206
0.000297671
0.000272123
0.000246532
0.000220916
0.00019524
0.000169524
0.000143727
0.000117865
9.18942e-05
6.5829e-05
3.96227e-05
1.32967e-05
0.00292505
0.00291914
0.00290806
0.00289171
0.00287013
0.00284351
0.00281227
0.00277701
0.00273843
0.00269736
0.00265459
0.00261083
0.00256669
0.00252263
0.00247898
0.00243596
0.00239369
0.00235222
0.00231157
0.00227173
0.00223267
0.00219437
0.00215678
0.00211988
0.00208362
0.00204799
0.00201294
0.00197846
0.00194451
0.00191107
0.0018781
0.0018456
0.00181351
0.00178183
0.00175053
0.00171959
0.00168898
0.0016587
0.00162871
0.00159901
0.00156957
0.00154039
0.00151144
0.00148272
0.00145422
0.00142591
0.00139779
0.00136986
0.00134209
0.00131448
0.00128702
0.00125971
0.00123253
0.00120548
0.00117854
0.00115172
0.00112501
0.00109839
0.00107187
0.00104544
0.00101909
0.000992826
0.000966628
0.000940503
0.000914437
0.000888437
0.000862487
0.000836594
0.000810744
0.000784944
0.000759179
0.000733458
0.000707765
0.000682109
0.000656474
0.00063087
0.000605281
0.000579718
0.000554163
0.000528628
0.000503094
0.000477574
0.000452049
0.000426531
0.000401
0.00037547
0.000349918
0.000324358
0.000298765
0.000273154
0.000247497
0.000221807
0.000196054
0.000170251
0.000144362
0.000118399
9.23217e-05
6.61395e-05
3.98127e-05
1.33596e-05
0.00286016
0.00285535
0.0028463
0.00283292
0.00281518
0.0027932
0.00276721
0.0027376
0.00270486
0.00266953
0.00263222
0.0025935
0.00255388
0.00251378
0.00247353
0.00243339
0.00239353
0.00235405
0.00231503
0.0022765
0.00223848
0.00220099
0.00216402
0.00212757
0.00209164
0.00205621
0.00202128
0.00198683
0.00195285
0.00191932
0.00188623
0.00185356
0.00182129
0.00178941
0.00175789
0.00172672
0.00169589
0.00166536
0.00163514
0.00160521
0.00157554
0.00154613
0.00151697
0.00148804
0.00145933
0.00143082
0.00140252
0.0013744
0.00134645
0.00131868
0.00129106
0.0012636
0.00123627
0.00120908
0.00118201
0.00115507
0.00112823
0.0011015
0.00107487
0.00104834
0.00102189
0.000995532
0.000969245
0.000943034
0.000916887
0.000890808
0.000864784
0.00083882
0.000812902
0.000787036
0.000761209
0.000735427
0.000709675
0.000683963
0.000658274
0.000632617
0.000606977
0.000581363
0.000555759
0.000530174
0.000504592
0.000479024
0.000453451
0.000427884
0.000402303
0.000376721
0.000351116
0.0003255
0.000299848
0.000274173
0.000248449
0.000222686
0.000196855
0.000170965
0.000144984
0.000118921
9.27382e-05
6.64433e-05
3.99963e-05
1.34125e-05
0.00280354
0.00279957
0.0027921
0.00278102
0.00276629
0.00274795
0.00272613
0.00270108
0.0026731
0.00264258
0.00260994
0.00257564
0.00254007
0.00250361
0.00246658
0.00242923
0.00239174
0.00235427
0.00231693
0.00227978
0.0022429
0.00220631
0.00217006
0.00213416
0.00209864
0.0020635
0.00202876
0.00199442
0.00196047
0.00192692
0.00189376
0.00186098
0.00182857
0.00179652
0.00176482
0.00173345
0.00170241
0.00167168
0.00164125
0.0016111
0.00158123
0.00155162
0.00152225
0.00149312
0.00146422
0.00143553
0.00140704
0.00137875
0.00135064
0.00132271
0.00129494
0.00126733
0.00123987
0.00121254
0.00118535
0.00115828
0.00113133
0.0011045
0.00107776
0.00105113
0.00102459
0.000998137
0.000971763
0.000945471
0.000919246
0.000893092
0.000866996
0.000840963
0.00081498
0.000789051
0.000763164
0.000737323
0.000711516
0.000685749
0.000660008
0.0006343
0.00060861
0.000582947
0.000557296
0.000531664
0.000506036
0.00048042
0.0004548
0.000429186
0.000403557
0.000377925
0.000352268
0.000326597
0.000300889
0.000275153
0.000249364
0.00022353
0.000197623
0.000171651
0.000145581
0.00011942
9.31361e-05
6.67355e-05
4.0179e-05
1.34644e-05
0.00275672
0.00275338
0.00274707
0.0027377
0.00272522
0.00270961
0.00269096
0.0026694
0.00264514
0.00261843
0.00258958
0.00255891
0.00252676
0.00249343
0.00245921
0.00242434
0.00238901
0.0023534
0.00231763
0.00228181
0.00224602
0.00221034
0.00217481
0.00213949
0.00210441
0.00206961
0.0020351
0.00200091
0.00196705
0.00193352
0.00190033
0.00186748
0.00183497
0.0018028
0.00177096
0.00173944
0.00170823
0.00167733
0.00164672
0.00161639
0.00158633
0.00155654
0.00152699
0.00149769
0.00146862
0.00143977
0.00141112
0.00138268
0.00135442
0.00132635
0.00129844
0.0012707
0.00124311
0.00121567
0.00118836
0.00116119
0.00113413
0.0011072
0.00108037
0.00105365
0.00102702
0.00100049
0.000974039
0.000947672
0.000921377
0.000895156
0.000868997
0.000842902
0.00081686
0.000790875
0.000764933
0.000739041
0.000713183
0.000687368
0.00066158
0.000635826
0.000610092
0.000584385
0.000558691
0.000533017
0.000507347
0.000481689
0.000456027
0.000430369
0.000404697
0.00037902
0.000353317
0.000327596
0.000301837
0.000276045
0.000250198
0.0002243
0.000198326
0.000172278
0.000146128
0.000119879
9.34997e-05
6.69998e-05
4.03592e-05
1.35985e-05
0.00272182
0.00271892
0.00271341
0.00270522
0.00269427
0.00268056
0.0026641
0.00264499
0.00262337
0.00259941
0.00257334
0.00254538
0.00251581
0.00248488
0.00245283
0.00241991
0.0023863
0.00235218
0.00231769
0.00228296
0.0022481
0.00221318
0.00217829
0.00214348
0.00210881
0.00207432
0.00204004
0.00200601
0.00197224
0.00193876
0.00190557
0.0018727
0.00184013
0.00180787
0.00177593
0.00174429
0.00171295
0.00168191
0.00165116
0.00162069
0.00159049
0.00156055
0.00153086
0.00150142
0.0014722
0.00144322
0.00141444
0.00138587
0.00135749
0.0013293
0.00130128
0.00127343
0.00124573
0.00121819
0.00119079
0.00116353
0.00113639
0.00110937
0.00108247
0.00105567
0.00102897
0.00100237
0.000975859
0.000949431
0.000923078
0.000896801
0.000870588
0.000844443
0.000818352
0.00079232
0.000766334
0.000740398
0.000714499
0.000688643
0.000662817
0.000637025
0.000611255
0.000585512
0.000559783
0.000534073
0.000508369
0.000482677