/*--------------------------------*- C++ -*----------------------------------*\
| =========                 |                                                 |
| \\      /  F ield         | OpenFOAM: The Open Source CFD Toolbox           |
|  \\    /   O peration     | Version:  2.3.0                                 |
|   \\  /    A nd           | Web:      www.OpenFOAM.org                      |
|    \\/     M anipulation  |                                                 |
\*---------------------------------------------------------------------------*/
FoamFile
{
    version     2.0;
    format      ascii;
    class       volVectorField;
    location    "0.2";
    object      U_0;
}
// * * * * * * * * * * * * * * * * * * * * * * * * * * * * * * * * * * * * * //

dimensions      [0 1 -1 0 0 0 0];

internalField   nonuniform List<vector> 
868
(
(0.187563 0.00207298 0)
(0.1767 0.00301119 0)
(0.167087 0.0033925 0)
(0.156912 0.00348663 0)
(0.145968 0.00348897 0)
(0.134629 0.00341152 0)
(0.123072 0.00324503 0)
(0.111769 0.00301686 0)
(0.100985 0.00281581 0)
(0.0906096 0.00256433 0)
(0.0808755 0.00216278 0)
(0.0721333 0.00169018 0)
(0.064652 0.0012091 0)
(0.0585622 0.000731288 0)
(0.0537923 0.000317753 0)
(0.0501901 1.87556e-05 0)
(0.0476011 -0.000173716 0)
(0.0458275 -0.000282471 0)
(0.0446655 -0.000326559 0)
(0.0439677 -0.000328251 0)
(0.0436129 -0.000303442 0)
(0.0434746 -0.000258422 0)
(0.0434764 -0.000208074 0)
(0.0435931 -0.000152306 0)
(0.0437702 -9.66788e-05 0)
(0.0439317 -4.84444e-05 0)
(0.0440404 -1.66079e-05 0)
(0.0441237 -3.20366e-06 0)
(0.0442231 -9.78747e-08 0)
(0.0443581 -5.87559e-07 0)
(0.0445249 -2.81923e-06 0)
(0.0447064 -5.12682e-06 0)
(0.0448817 -6.53168e-06 0)
(0.0450344 -6.64488e-06 0)
(0.0451568 -6.43341e-06 0)
(0.0452488 -6.12031e-06 0)
(0.0453152 -5.32131e-06 0)
(0.045362 -4.18741e-06 0)
(0.0453954 -3.06424e-06 0)
(0.0454194 -2.1413e-06 0)
(0.0454377 -1.49871e-06 0)
(0.0454517 -1.06793e-06 0)
(0.0454632 -7.96515e-07 0)
(0.0454722 -5.95846e-07 0)
(0.0454797 -4.53916e-07 0)
(0.0454855 -3.37193e-07 0)
(0.0454903 -2.51662e-07 0)
(0.0454941 -1.77765e-07 0)
(0.0454967 -1.51596e-07 0)
(0.0454997 -1.08796e-07 0)
(0.195533 0.00409213 0)
(0.194889 0.00560423 0)
(0.194545 0.00636368 0)
(0.193885 0.00663378 0)
(0.192457 0.00675633 0)
(0.190247 0.00687474 0)
(0.18729 0.00687708 0)
(0.18365 0.00669895 0)
(0.179576 0.00648292 0)
(0.175254 0.00628886 0)
(0.170698 0.00600862 0)
(0.165885 0.00550648 0)
(0.160929 0.00480443 0)
(0.156018 0.00406411 0)
(0.151348 0.00334774 0)
(0.146991 0.00264018 0)
(0.142933 0.00201873 0)
(0.139219 0.00153761 0)
(0.135899 0.00112464 0)
(0.132965 0.000761921 0)
(0.130433 0.000508949 0)
(0.128316 0.000334782 0)
(0.126574 0.000171349 0)
(0.12517 3.53204e-05 0)
(0.124096 -3.45814e-05 0)
(0.123331 -4.92872e-05 0)
(0.122804 -5.07565e-05 0)
(0.12246 -6.67346e-05 0)
(0.122286 -9.46102e-05 0)
(0.122283 -0.000120265 0)
(0.12243 -0.000133949 0)
(0.122687 -0.000130265 0)
(0.122998 -0.000112059 0)
(0.123312 -8.59139e-05 0)
(0.123592 -6.02256e-05 0)
(0.123818 -3.99426e-05 0)
(0.123989 -2.59065e-05 0)
(0.124111 -1.70571e-05 0)
(0.124197 -1.18545e-05 0)
(0.124256 -8.81614e-06 0)
(0.124298 -7.00547e-06 0)
(0.124329 -5.72855e-06 0)
(0.124353 -4.78907e-06 0)
(0.124371 -3.90547e-06 0)
(0.124386 -3.22452e-06 0)
(0.124398 -2.50718e-06 0)
(0.124408 -2.0529e-06 0)
(0.124416 -1.48113e-06 0)
(0.124421 -1.2703e-06 0)
(0.124428 -8.5664e-07 0)
(0.196469 0.00369946 0)
(0.196294 0.00450662 0)
(0.196504 0.0052436 0)
(0.196985 0.00573454 0)
(0.197556 0.00624872 0)
(0.198065 0.00675407 0)
(0.198211 0.00694835 0)
(0.197925 0.0069373 0)
(0.197475 0.00693361 0)
(0.196926 0.00687286 0)
(0.196179 0.00669434 0)
(0.195244 0.00636567 0)
(0.194083 0.00585857 0)
(0.192614 0.00526329 0)
(0.190929 0.00461465 0)
(0.189146 0.0039017 0)
(0.187298 0.00325092 0)
(0.185458 0.00275594 0)
(0.18368 0.00232617 0)
(0.181941 0.00190757 0)
(0.180261 0.00156438 0)
(0.178727 0.00128593 0)
(0.177375 0.00102061 0)
(0.176154 0.000776392 0)
(0.175058 0.000587398 0)
(0.174123 0.00044948 0)
(0.173362 0.000331416 0)
(0.172757 0.000213222 0)
(0.172292 9.36926e-05 0)
(0.171952 -1.88785e-05 0)
(0.171729 -0.000111378 0)
(0.171616 -0.000175484 0)
(0.171606 -0.000204715 0)
(0.171682 -0.000202668 0)
(0.171822 -0.000178962 0)
(0.171991 -0.00014425 0)
(0.172163 -0.000108194 0)
(0.172315 -7.70072e-05 0)
(0.172438 -5.32877e-05 0)
(0.172529 -3.66527e-05 0)
(0.172595 -2.57405e-05 0)
(0.17264 -1.85309e-05 0)
(0.172671 -1.39568e-05 0)
(0.172692 -1.06051e-05 0)
(0.172709 -8.45692e-06 0)
(0.17272 -6.462e-06 0)
(0.172729 -5.3176e-06 0)
(0.172736 -3.86753e-06 0)
(0.172741 -3.33905e-06 0)
(0.172747 -2.22769e-06 0)
(0.197196 0.00359182 0)
(0.197105 0.00425456 0)
(0.197123 0.00492843 0)
(0.197326 0.00541656 0)
(0.197786 0.00592537 0)
(0.198553 0.00644701 0)
(0.199278 0.00669531 0)
(0.199715 0.00672243 0)
(0.20011 0.00673023 0)
(0.200552 0.00669297 0)
(0.200889 0.00655024 0)
(0.20114 0.00627219 0)
(0.201331 0.00586009 0)
(0.201361 0.00539914 0)
(0.201192 0.00488191 0)
(0.200837 0.00424916 0)
(0.200331 0.00362133 0)
(0.199769 0.00313078 0)
(0.199179 0.00271565 0)
(0.198522 0.00231372 0)
(0.197823 0.00196523 0)
(0.197163 0.00167004 0)
(0.196551 0.00137465 0)
(0.19595 0.00109378 0)
(0.195367 0.000876569 0)
(0.194843 0.000711575 0)
(0.194384 0.000556484 0)
(0.19398 0.000394625 0)
(0.193625 0.000234998 0)
(0.193319 9.24539e-05 0)
(0.193058 -2.07429e-05 0)
(0.192842 -0.00010296 0)
(0.192678 -0.000154336 0)
(0.19257 -0.000177449 0)
(0.192519 -0.000178542 0)
(0.192515 -0.000163522 0)
(0.192549 -0.000138693 0)
(0.192599 -0.00011017 0)
(0.192656 -8.31064e-05 0)
(0.192706 -6.02597e-05 0)
(0.192748 -4.29204e-05 0)
(0.192777 -3.02848e-05 0)
(0.192798 -2.18491e-05 0)
(0.192812 -1.58135e-05 0)
(0.192822 -1.20674e-05 0)
(0.192827 -8.93095e-06 0)
(0.192832 -7.20006e-06 0)
(0.192834 -5.17488e-06 0)
(0.192836 -4.43526e-06 0)
(0.192839 -2.92445e-06 0)
(0.197657 0.00360782 0)
(0.197603 0.00413987 0)
(0.19762 0.0047577 0)
(0.197714 0.00521211 0)
(0.197944 0.00564782 0)
(0.19858 0.0061646 0)
(0.199371 0.00647842 0)
(0.1999 0.00649851 0)
(0.200349 0.00644742 0)
(0.200903 0.00641222 0)
(0.2014 0.00629319 0)
(0.201802 0.00601608 0)
(0.202184 0.00563864 0)
(0.202531 0.00526383 0)
(0.202787 0.00483852 0)
(0.202891 0.00427749 0)
(0.202843 0.00368868 0)
(0.202721 0.00320503 0)
(0.202551 0.00280554 0)
(0.202311 0.00243655 0)
(0.202033 0.00210815 0)
(0.201769 0.00181394 0)
(0.201512 0.00152109 0)
(0.201232 0.00124917 0)
(0.200937 0.001033 0)
(0.200659 0.000857369 0)
(0.200406 0.000688681 0)
(0.200169 0.000518844 0)
(0.199939 0.000357394 0)
(0.199712 0.000211027 0)
(0.199495 8.55543e-05 0)
(0.19929 -1.08761e-05 0)
(0.199108 -7.76742e-05 0)
(0.198951 -0.000120053 0)
(0.198827 -0.000141512 0)
(0.198734 -0.000144888 0)
(0.198675 -0.000134416 0)
(0.19864 -0.000115172 0)
(0.198626 -9.25443e-05 0)
(0.198621 -7.04339e-05 0)
(0.198623 -5.1705e-05 0)
(0.198625 -3.68235e-05 0)
(0.198628 -2.6224e-05 0)
(0.198628 -1.84546e-05 0)
(0.198629 -1.3544e-05 0)
(0.198628 -9.66615e-06 0)
(0.198628 -7.53365e-06 0)
(0.198626 -5.28069e-06 0)
(0.198626 -4.43679e-06 0)
(0.198624 -2.84761e-06 0)
(0.197977 0.00359179 0)
(0.197976 0.00404796 0)
(0.198008 0.0046045 0)
(0.198092 0.00501907 0)
(0.198252 0.00543301 0)
(0.198745 0.00588717 0)
(0.199446 0.0061427 0)
(0.199953 0.00618212 0)
(0.200359 0.00614156 0)
(0.200878 0.00608597 0)
(0.201375 0.00598844 0)
(0.201746 0.00575278 0)
(0.202073 0.00540633 0)
(0.202413 0.00507132 0)
(0.202723 0.00470043 0)
(0.202925 0.00420544 0)
(0.202994 0.00367516 0)
(0.202984 0.00321898 0)
(0.202919 0.00283003 0)
(0.202789 0.00248084 0)
(0.202628 0.00217489 0)
(0.202479 0.0018926 0)
(0.202334 0.00160869 0)
(0.202162 0.00134495 0)
(0.201966 0.00113152 0)
(0.201772 0.000955059 0)
(0.201593 0.000786799 0)
(0.201422 0.000617447 0)
(0.201246 0.000452799 0)
(0.201059 0.000300475 0)
(0.200868 0.000168427 0)
(0.200684 6.36353e-05 0)
(0.200513 -1.09591e-05 0)
(0.200359 -6.10654e-05 0)
(0.200226 -8.97718e-05 0)
(0.200115 -0.000100888 0)
(0.200027 -9.87036e-05 0)
(0.19996 -8.7678e-05 0)
(0.199913 -7.24335e-05 0)
(0.199879 -5.63638e-05 0)
(0.199858 -4.21705e-05 0)
(0.199843 -3.04775e-05 0)
(0.199834 -2.19757e-05 0)
(0.199826 -1.55612e-05 0)
(0.199822 -1.1481e-05 0)
(0.199817 -8.16502e-06 0)
(0.199815 -6.35955e-06 0)
(0.19981 -4.38707e-06 0)
(0.19981 -3.6694e-06 0)
(0.199806 -2.24363e-06 0)
(0.198257 0.00358781 0)
(0.198305 0.00396243 0)
(0.198331 0.00445016 0)
(0.198428 0.00484263 0)
(0.198568 0.00520814 0)
(0.19893 0.00556971 0)
(0.199542 0.00577535 0)
(0.200023 0.00587301 0)
(0.200362 0.00587899 0)
(0.200824 0.005778 0)
(0.201297 0.00566805 0)
(0.201612 0.00549728 0)
(0.201881 0.00519448 0)
(0.202194 0.00487547 0)
(0.202481 0.00455709 0)
(0.202674 0.00413279 0)
(0.202771 0.00365422 0)
(0.202795 0.00323425 0)
(0.202758 0.00286456 0)
(0.202668 0.00252294 0)
(0.202549 0.00223002 0)
(0.202424 0.0019632 0)
(0.202298 0.00168812 0)
(0.202164 0.00142999 0)
(0.202012 0.00122323 0)
(0.201848 0.00104941 0)
(0.201688 0.000876406 0)
(0.201535 0.000699922 0)
(0.201378 0.000532893 0)
(0.201211 0.000383067 0)
(0.201041 0.000254165 0)
(0.200875 0.000149052 0)
(0.20072 6.86385e-05 0)
(0.200577 1.0623e-05 0)
(0.200451 -2.77966e-05 0)
(0.20034 -5.07083e-05 0)
(0.20025 -6.09427e-05 0)
(0.200177 -6.12409e-05 0)
(0.200123 -5.51105e-05 0)
(0.200082 -4.56102e-05 0)
(0.200054 -3.56005e-05 0)
(0.200033 -2.63496e-05 0)
(0.20002 -1.91189e-05 0)
(0.200009 -1.33917e-05 0)
(0.200002 -9.65101e-06 0)
(0.199995 -6.62689e-06 0)
(0.199992 -4.99655e-06 0)
(0.199987 -3.26438e-06 0)
(0.199985 -2.66043e-06 0)
(0.199981 -1.42059e-06 0)
(0.198471 0.00357612 0)
(0.198595 0.00386878 0)
(0.198652 0.00429906 0)
(0.198704 0.0046582 0)
(0.198823 0.00496225 0)
(0.199132 0.00529505 0)
(0.199668 0.00547366 0)
(0.200094 0.00555133 0)
(0.200335 0.00560412 0)
(0.200734 0.00550899 0)
(0.201218 0.00536686 0)
(0.201491 0.00525191 0)
(0.201686 0.00501819 0)
(0.201981 0.00470727 0)
(0.20225 0.00442309 0)
(0.202397 0.00406544 0)
(0.202489 0.00362787 0)
(0.202543 0.00324342 0)
(0.202528 0.00290935 0)
(0.202459 0.00257173 0)
(0.202361 0.00226932 0)
(0.202243 0.0020154 0)
(0.202125 0.00176516 0)
(0.202018 0.00151799 0)
(0.201894 0.00130837 0)
(0.201742 0.00113051 0)
(0.201587 0.000956558 0)
(0.201446 0.000782254 0)
(0.201309 0.000620673 0)
(0.20116 0.000475602 0)
(0.201005 0.000345872 0)
(0.200852 0.000233901 0)
(0.200709 0.00014339 0)
(0.200577 7.50505e-05 0)
(0.200461 2.66501e-05 0)
(0.20036 -5.04904e-06 0)
(0.200276 -2.26835e-05 0)
(0.200206 -2.95882e-05 0)
(0.200153 -2.95835e-05 0)
(0.200111 -2.57541e-05 0)
(0.200081 -2.06766e-05 0)
(0.200058 -1.55011e-05 0)
(0.200043 -1.13588e-05 0)
(0.20003 -7.93325e-06 0)
(0.200023 -5.74349e-06 0)
(0.200015 -3.83755e-06 0)
(0.200012 -2.89655e-06 0)
(0.200006 -1.71665e-06 0)
(0.200005 -1.37504e-06 0)
(0.2 -4.24198e-07 0)
(0.19866 0.00356411 0)
(0.198846 0.00379717 0)
(0.198932 0.00412813 0)
(0.198949 0.00447777 0)
(0.199073 0.00476038 0)
(0.19932 0.00503686 0)
(0.199735 0.00518761 0)
(0.200139 0.00523358 0)
(0.200343 0.00532607 0)
(0.200644 0.00529824 0)
(0.201113 0.00512406 0)
(0.201373 0.00500642 0)
(0.201493 0.00485225 0)
(0.20176 0.00456541 0)
(0.202021 0.00427985 0)
(0.202118 0.00398669 0)
(0.202198 0.00361296 0)
(0.202287 0.00324624 0)
(0.202278 0.0029272 0)
(0.202207 0.00260382 0)
(0.202142 0.00230434 0)
(0.202051 0.00206675 0)
(0.201934 0.00184183 0)
(0.201832 0.0016003 0)
(0.201732 0.00138315 0)
(0.201602 0.00120779 0)
(0.20146 0.00104449 0)
(0.20133 0.000875104 0)
(0.201205 0.000710458 0)
(0.201069 0.000560187 0)
(0.200927 0.000425976 0)
(0.200789 0.000309507 0)
(0.200662 0.000214426 0)
(0.200546 0.000140944 0)
(0.200441 8.56701e-05 0)
(0.200348 4.56392e-05 0)
(0.200271 1.88563e-05 0)
(0.200205 2.66901e-06 0)
(0.200155 -5.65971e-06 0)
(0.200114 -8.65351e-06 0)
(0.200085 -8.64287e-06 0)
(0.200062 -7.10765e-06 0)
(0.200047 -5.3875e-06 0)
(0.200033 -3.59983e-06 0)
(0.200026 -2.46154e-06 0)
(0.200018 -1.34606e-06 0)
(0.200014 -8.84829e-07 0)
(0.200008 -1.49653e-07 0)
(0.200007 -1.583e-08 0)
(0.200002 6.54627e-07 0)
(0.198841 0.0035357 0)
(0.199016 0.00373742 0)
(0.199184 0.00398107 0)
(0.199204 0.00430878 0)
(0.199261 0.00456086 0)
(0.199457 0.0047797 0)
(0.199803 0.00494691 0)
(0.200186 0.00498126 0)
(0.200366 0.00505061 0)
(0.200543 0.00509092 0)
(0.200958 0.00492481 0)
(0.201255 0.00476371 0)
(0.201319 0.00467789 0)
(0.201512 0.00445533 0)
(0.201781 0.00414696 0)
(0.201867 0.00388559 0)
(0.201903 0.00359016 0)
(0.201994 0.00324033 0)
(0.202009 0.00292418 0)
(0.201952 0.00263512 0)
(0.20191 0.00235169 0)
(0.20184 0.00211157 0)
(0.20172 0.00190396 0)
(0.201624 0.00168356 0)
(0.201555 0.00146697 0)
(0.201452 0.0012855 0)
(0.201316 0.00112338 0)
(0.20119 0.000955852 0)
(0.20108 0.000790167 0)
(0.200964 0.000640124 0)
(0.200841 0.000507454 0)
(0.200719 0.000389472 0)
(0.200607 0.000288516 0)
(0.200503 0.000205947 0)
(0.200409 0.000141172 0)
(0.200326 9.22247e-05 0)
(0.200256 5.73337e-05 0)
(0.200197 3.39397e-05 0)
(0.200151 1.94034e-05 0)
(0.200113 1.09993e-05 0)
(0.200085 6.45687e-06 0)
(0.200062 4.21596e-06 0)
(0.200047 3.00387e-06 0)
(0.200034 2.52379e-06 0)
(0.200026 2.04962e-06 0)
(0.200018 1.94273e-06 0)
(0.200014 1.62358e-06 0)
(0.200008 1.71865e-06 0)
(0.200007 1.53266e-06 0)
(0.200002 1.83952e-06 0)
(0.199042 0.00346339 0)
(0.199181 0.00368636 0)
(0.199395 0.00387383 0)
(0.199425 0.00412128 0)
(0.199447 0.00436706 0)
(0.199619 0.00456093 0)
(0.199858 0.00471079 0)
(0.200166 0.00475541 0)
(0.20038 0.00478283 0)
(0.200472 0.00483845 0)
(0.200756 0.00474813 0)
(0.201092 0.0045758 0)
(0.201167 0.00447963 0)
(0.201244 0.00431512 0)
(0.201474 0.00403305 0)
(0.201589 0.00378762 0)
(0.201599 0.00354319 0)
(0.201671 0.00321857 0)
(0.201709 0.0029131 0)
(0.201658 0.00266791 0)
(0.201625 0.00241245 0)
(0.20159 0.00215812 0)
(0.201492 0.00194879 0)
(0.201389 0.00175237 0)
(0.201329 0.00154779 0)
(0.201255 0.00136231 0)
(0.201143 0.00120212 0)
(0.201032 0.00104289 0)
(0.200939 0.000880661 0)
(0.200843 0.000727867 0)
(0.200736 0.000590457 0)
(0.200629 0.000466771 0)
(0.200533 0.000359003 0)
(0.200445 0.000269294 0)
(0.200366 0.000197781 0)
(0.200295 0.000141888 0)
(0.200235 9.96701e-05 0)
(0.200183 6.874e-05 0)
(0.200142 4.70225e-05 0)
(0.200107 3.21633e-05 0)
(0.200081 2.22797e-05 0)
(0.20006 1.5853e-05 0)
(0.200046 1.15802e-05 0)
(0.200033 8.80779e-06 0)
(0.200025 6.7612e-06 0)
(0.200018 5.45165e-06 0)
(0.200014 4.35005e-06 0)
(0.200008 3.76291e-06 0)
(0.200007 3.25041e-06 0)
(0.200003 3.14898e-06 0)
(0.199306 0.00337137 0)
(0.199361 0.00360782 0)
(0.199551 0.00377467 0)
(0.199651 0.00395593 0)
(0.199648 0.00417642 0)
(0.199724 0.0043403 0)
(0.199906 0.00446414 0)
(0.200153 0.00454039 0)
(0.200339 0.00454771 0)
(0.200393 0.00457295 0)
(0.200566 0.00455598 0)
(0.200853 0.00441231 0)
(0.20093 0.00427147 0)
(0.200943 0.0041513 0)
(0.201139 0.00393908 0)
(0.201271 0.00368828 0)
(0.201229 0.0034586 0)
(0.201257 0.00319851 0)
(0.20135 0.00292637 0)
(0.20134 0.0026852 0)
(0.20128 0.00244234 0)
(0.201244 0.00219626 0)
(0.201179 0.00199301 0)
(0.201098 0.0018197 0)
(0.201057 0.00163877 0)
(0.201017 0.00145707 0)
(0.20093 0.00129213 0)
(0.200829 0.00113301 0)
(0.200749 0.000971229 0)
(0.200676 0.000814424 0)
(0.200595 0.000672338 0)
(0.200513 0.000545384 0)
(0.200438 0.000433641 0)
(0.20037 0.000337556 0)
(0.200307 0.000257976 0)
(0.200249 0.000193358 0)
(0.2002 0.000142646 0)
(0.200158 0.000103816 0)
(0.200124 7.51924e-05 0)
(0.200095 5.44197e-05 0)
(0.200073 3.96862e-05 0)
(0.200055 2.92443e-05 0)
(0.200042 2.18359e-05 0)
(0.200031 1.65553e-05 0)
(0.200024 1.26829e-05 0)
(0.200016 9.90103e-06 0)
(0.200013 7.83919e-06 0)
(0.200008 6.39255e-06 0)
(0.200006 5.47211e-06 0)
(0.200002 4.83538e-06 0)
(0.199585 0.00327985 0)
(0.199585 0.00350355 0)
(0.19971 0.00368658 0)
(0.199813 0.00383266 0)
(0.199812 0.00399133 0)
(0.199847 0.00414446 0)
(0.199959 0.00426496 0)
(0.200093 0.00433859 0)
(0.200232 0.00434933 0)
(0.200297 0.00435275 0)
(0.200354 0.00434937 0)
(0.200523 0.00425266 0)
(0.200643 0.00411187 0)
(0.200646 0.00400018 0)
(0.20071 0.00383551 0)
(0.200807 0.00359811 0)
(0.200825 0.00338109 0)
(0.200853 0.00317698 0)
(0.2009 0.00292934 0)
(0.200869 0.00267146 0)
(0.200824 0.00244685 0)
(0.200837 0.0022432 0)
(0.200827 0.00205444 0)
(0.200761 0.00188306 0)
(0.20071 0.00171347 0)
(0.200681 0.00153615 0)
(0.20063 0.00136533 0)
(0.200564 0.00120684 0)
(0.200512 0.00105334 0)
(0.200468 0.00090095 0)
(0.200416 0.000756727 0)
(0.200359 0.000624974 0)
(0.200308 0.000507345 0)
(0.200262 0.000403843 0)
(0.20022 0.000316225 0)
(0.200181 0.000243879 0)
(0.200148 0.000185999 0)
(0.200119 0.000140272 0)
(0.200095 0.000105159 0)
(0.200075 7.84179e-05 0)
(0.200058 5.84992e-05 0)
(0.200045 4.36355e-05 0)
(0.200035 3.26873e-05 0)
(0.200025 2.45796e-05 0)
(0.20002 1.86086e-05 0)
(0.200014 1.41953e-05 0)
(0.200011 1.1029e-05 0)
(0.200007 8.69213e-06 0)
(0.200006 7.30427e-06 0)
(0.200002 6.18023e-06 0)
(0.199864 0.00322331 0)
(0.199855 0.00343153 0)
(0.199891 0.00362135 0)
(0.199935 0.00375905 0)
(0.199944 0.0038851 0)
(0.199948 0.00402118 0)
(0.199979 0.00412971 0)
(0.20003 0.0042021 0)
(0.200084 0.00422766 0)
(0.200104 0.00421238 0)
(0.200118 0.00419962 0)
(0.200182 0.00414912 0)
(0.200232 0.00401878 0)
(0.200219 0.00388005 0)
(0.20024 0.00374622 0)
(0.200304 0.00355442 0)
(0.200315 0.00333314 0)
(0.200291 0.00312362 0)
(0.200296 0.00289898 0)
(0.200318 0.00266841 0)
(0.200331 0.00246517 0)
(0.200331 0.00226831 0)
(0.200305 0.00206755 0)
(0.200268 0.00189192 0)
(0.200255 0.0017411 0)
(0.200259 0.00158324 0)
(0.20025 0.00141725 0)
(0.200226 0.00125879 0)
(0.200203 0.00110787 0)
(0.200186 0.000956047 0)
(0.200167 0.000808604 0)
(0.200146 0.000673264 0)
(0.200128 0.000553168 0)
(0.200112 0.000446875 0)
(0.200098 0.000355606 0)
(0.200084 0.000279129 0)
(0.200071 0.00021713 0)
(0.20006 0.000167302 0)
(0.20005 0.000128359 0)
(0.200042 9.80588e-05 0)
(0.200034 7.50593e-05 0)
(0.200028 5.73931e-05 0)
(0.200023 4.41213e-05 0)
(0.200018 3.38783e-05 0)
(0.200015 2.62663e-05 0)
(0.200011 2.0265e-05 0)
(0.200009 1.60587e-05 0)
(0.200007 1.25364e-05 0)
(0.200006 1.06439e-05 0)
(0.200004 8.57463e-06 0)
(0.192477 -0.000142046 0)
(0.207589 2.46067e-05 0)
(0.192336 0.000359684 0)
(0.207031 0.000186677 0)
(0.192234 -0.000312636 0)
(0.206522 -0.000799014 0)
(0.191316 -0.000342177 0)
(0.205184 0.000326855 0)
(0.190447 0.00120188 0)
(0.204104 0.00146993 0)
(0.189051 0.00167705 0)
(0.201991 0.00132214 0)
(0.196658 -0.000142142 0)
(0.20279 2.63169e-05 0)
(0.197042 0.000397356 0)
(0.20193 0.000206727 0)
(0.197446 -0.000192847 0)
(0.20092 -0.000667589 0)
(0.196758 -0.000133669 0)
(0.199024 0.000488264 0)
(0.196492 0.0014773 0)
(0.197859 0.00175264 0)
(0.196036 0.00234048 0)
(0.196115 0.00260738 0)
(0.199162 -7.34572e-05 0)
(0.200381 3.11754e-05 0)
(0.19924 0.000404109 0)
(0.200024 0.000229822 0)
(0.199261 -9.81236e-05 0)
(0.199282 -0.000440757 0)
(0.197991 -2.69865e-05 0)
(0.197654 0.00072043 0)
(0.197428 0.0015555 0)
(0.197466 0.00212537 0)
(0.197083 0.0026627 0)
(0.196749 0.00312434 0)
(0.199836 -3.34999e-05 0)
(0.199887 6.39278e-05 0)
(0.199743 0.000368068 0)
(0.199757 0.000256805 0)
(0.199568 3.08382e-06 0)
(0.199118 -0.000190706 0)
(0.198182 0.000186812 0)
(0.197591 0.000899321 0)
(0.197634 0.00167263 0)
(0.197771 0.00230435 0)
(0.197556 0.00277884 0)
(0.197298 0.00314403 0)
(0.199943 -8.40989e-06 0)
(0.199855 0.000115097 0)
(0.199832 0.000329107 0)
(0.199731 0.000295331 0)
(0.199586 0.000133836 0)
(0.199149 7.74955e-05 0)
(0.19833 0.000408283 0)
(0.197782 0.00106321 0)
(0.197859 0.0017609 0)
(0.198031 0.00234884 0)
(0.197889 0.00280776 0)
(0.197705 0.00321813 0)
(0.199955 1.34539e-05 0)
(0.199879 0.00015528 0)
(0.199851 0.000324528 0)
(0.199708 0.000329778 0)
(0.199567 0.000254615 0)
(0.199195 0.000304584 0)
(0.198494 0.000638207 0)
(0.198024 0.00122288 0)
(0.198111 0.00182944 0)
(0.198274 0.00237864 0)
(0.198143 0.00284973 0)
(0.197982 0.00325466 0)
(0.199958 3.6678e-05 0)
(0.199904 0.00017997 0)
(0.19986 0.000341282 0)
(0.199681 0.000384361 0)
(0.199556 0.000362377 0)
(0.199265 0.000494943 0)
(0.198663 0.000866263 0)
(0.198251 0.00137974 0)
(0.198351 0.00188606 0)
(0.198508 0.00239247 0)
(0.198363 0.00286364 0)
(0.198208 0.00327186 0)
(0.199961 5.93206e-05 0)
(0.199925 0.000200131 0)
(0.199873 0.000366182 0)
(0.199662 0.000464933 0)
(0.199557 0.000482442 0)
(0.199353 0.000645226 0)
(0.19883 0.001048 0)
(0.198446 0.00153141 0)
(0.198563 0.00194907 0)
(0.198743 0.00239084 0)
(0.1986 0.00286345 0)
(0.19842 0.00328477 0)
(0.199966 7.73889e-05 0)
(0.199941 0.000229996 0)
(0.199895 0.000385974 0)
(0.199658 0.000551736 0)
(0.19956 0.000614552 0)
(0.199451 0.000767454 0)
(0.199015 0.00117654 0)
(0.19863 0.00167692 0)
(0.198736 0.00204089 0)
(0.19896 0.00238833 0)
(0.198841 0.00282993 0)
(0.198628 0.00325628 0)
(0.199973 8.86356e-05 0)
(0.19995 0.000270164 0)
(0.199924 0.000405282 0)
(0.19968 0.000624966 0)
(0.19957 0.000758031 0)
(0.199543 0.000895231 0)
(0.199214 0.00126102 0)
(0.198824 0.00177202 0)
(0.198875 0.00213901 0)
(0.199136 0.00241003 0)
(0.199083 0.00278984 0)
(0.198871 0.00320925 0)
(0.199982 9.24685e-05 0)
(0.199954 0.000317809 0)
(0.199954 0.000444538 0)
(0.199731 0.000675966 0)
(0.199596 0.000893465 0)
(0.199621 0.00104378 0)
(0.199419 0.00133838 0)
(0.199057 0.00181588 0)
(0.199028 0.0022187 0)
(0.199288 0.00246606 0)
(0.199319 0.00276914 0)
(0.19913 0.00314515 0)
(0.199991 9.54917e-05 0)
(0.199958 0.000358829 0)
(0.199972 0.000509296 0)
(0.199808 0.000722398 0)
(0.199662 0.000998946 0)
(0.199695 0.0012039 0)
(0.199615 0.00144173 0)
(0.199334 0.00183696 0)
(0.199232 0.00225451 0)
(0.199435 0.002527 0)
(0.199535 0.00276877 0)
(0.199411 0.00307936 0)
(0.199998 0.000102453 0)
(0.199968 0.000384456 0)
(0.199981 0.000579654 0)
(0.19989 0.000779871 0)
(0.199776 0.00106898 0)
(0.199788 0.00133088 0)
(0.199775 0.00155585 0)
(0.199616 0.00186672 0)
(0.199506 0.00225596 0)
(0.199615 0.00256793 0)
(0.199725 0.00278801 0)
(0.199672 0.00303414 0)
(0.2 0.000109621 0)
(0.199987 0.000397341 0)
(0.199992 0.000627906 0)
(0.199966 0.000825961 0)
(0.19992 0.00110783 0)
(0.19992 0.00140063 0)
(0.199924 0.0016369 0)
(0.199877 0.00190239 0)
(0.199828 0.00225036 0)
(0.199855 0.00258201 0)
(0.199903 0.00280706 0)
(0.199896 0.00301314 0)
)
;

boundaryField
{
    top
    {
        type            zeroGradient;
    }
    inlet
    {
        type            fixedValue;
        value           uniform (0.2 0 0);
    }
    outlet
    {
        type            zeroGradient;
    }
    plate
    {
        type            fixedValue;
        value           uniform (0 0 0);
    }
    symmBound
    {
        type            zeroGradient;
    }
    frontAndBack
    {
        type            empty;
    }
}


// ************************************************************************* //
