/*--------------------------------*- C++ -*----------------------------------*\
| =========                 |                                                 |
| \\      /  F ield         | OpenFOAM: The Open Source CFD Toolbox           |
|  \\    /   O peration     | Version:  2.3.0                                 |
|   \\  /    A nd           | Web:      www.OpenFOAM.org                      |
|    \\/     M anipulation  |                                                 |
\*---------------------------------------------------------------------------*/
FoamFile
{
    version     2.0;
    format      ascii;
    class       volVectorField;
    location    "0.45";
    object      U_0;
}
// * * * * * * * * * * * * * * * * * * * * * * * * * * * * * * * * * * * * * //

dimensions      [0 1 -1 0 0 0 0];

internalField   nonuniform List<vector> 
2889
(
(0.173578 0.00566388 0)
(0.156966 0.00590245 0)
(0.141236 0.00557682 0)
(0.126269 0.00501864 0)
(0.11244 0.00437985 0)
(0.0999702 0.00372351 0)
(0.0889007 0.00308794 0)
(0.0792037 0.00249997 0)
(0.0708258 0.00197649 0)
(0.0636874 0.00152648 0)
(0.0576804 0.00115257 0)
(0.0526766 0.000852154 0)
(0.0485379 0.000618589 0)
(0.0451265 0.000442696 0)
(0.0423127 0.000314271 0)
(0.0399799 0.000223313 0)
(0.0380277 0.000160819 0)
(0.0363729 0.000119181 0)
(0.0349489 9.2277e-05 0)
(0.0337036 7.53922e-05 0)
(0.0325977 6.50365e-05 0)
(0.0316017 5.87332e-05 0)
(0.030694 5.48012e-05 0)
(0.0298588 5.21549e-05 0)
(0.0290844 5.01332e-05 0)
(0.0283625 4.83623e-05 0)
(0.0276864 4.66521e-05 0)
(0.0270512 4.49232e-05 0)
(0.0264529 4.31573e-05 0)
(0.025888 4.13657e-05 0)
(0.0253538 3.95715e-05 0)
(0.0248478 3.77987e-05 0)
(0.0243678 3.60681e-05 0)
(0.0239117 3.43952e-05 0)
(0.0234779 3.27902e-05 0)
(0.0230647 3.12591e-05 0)
(0.0226707 2.98043e-05 0)
(0.0222945 2.84257e-05 0)
(0.0219349 2.71214e-05 0)
(0.021591 2.58884e-05 0)
(0.0212616 2.47231e-05 0)
(0.0209459 2.36217e-05 0)
(0.020643 2.25801e-05 0)
(0.0203523 2.15944e-05 0)
(0.0200731 2.06608e-05 0)
(0.0198046 1.97758e-05 0)
(0.0195465 1.8936e-05 0)
(0.019298 1.81383e-05 0)
(0.0190589 1.73798e-05 0)
(0.0188285 1.66578e-05 0)
(0.0186066 1.59698e-05 0)
(0.0183927 1.53134e-05 0)
(0.0181865 1.46865e-05 0)
(0.0179877 1.40872e-05 0)
(0.017796 1.35135e-05 0)
(0.0176111 1.29638e-05 0)
(0.0174328 1.24365e-05 0)
(0.0172608 1.193e-05 0)
(0.0170949 1.14431e-05 0)
(0.016935 1.09744e-05 0)
(0.0167809 1.05227e-05 0)
(0.0166323 1.00869e-05 0)
(0.0164893 9.66597e-06 0)
(0.0163515 9.25898e-06 0)
(0.0162189 8.86501e-06 0)
(0.0160914 8.48324e-06 0)
(0.0159689 8.11288e-06 0)
(0.0158513 7.7532e-06 0)
(0.0157385 7.40353e-06 0)
(0.0156304 7.0632e-06 0)
(0.015527 6.73161e-06 0)
(0.0154282 6.4082e-06 0)
(0.015334 6.09244e-06 0)
(0.0152443 5.78393e-06 0)
(0.0151591 5.48238e-06 0)
(0.0150784 5.18773e-06 0)
(0.015002 4.90014e-06 0)
(0.0149301 4.61999e-06 0)
(0.0148625 4.34781e-06 0)
(0.0147993 4.08399e-06 0)
(0.0147404 3.82838e-06 0)
(0.0146858 3.57964e-06 0)
(0.0146355 3.33445e-06 0)
(0.0145895 3.08676e-06 0)
(0.0145479 2.82719e-06 0)
(0.014511 2.54306e-06 0)
(0.0144789 2.21935e-06 0)
(0.0144519 1.84186e-06 0)
(0.0144304 1.40697e-06 0)
(0.0144147 9.43563e-07 0)
(0.0144049 5.204e-07 0)
(0.014401 2.09947e-07 0)
(0.0144021 -1.41607e-07 0)
(0.0144064 -3.8373e-07 0)
(0.0144128 -5.43676e-07 0)
(0.0144204 -6.09597e-07 0)
(0.0144282 -5.73241e-07 0)
(0.014435 -4.10246e-07 0)
(0.0144396 -7.81437e-08 0)
(0.0144328 1.82041e-06 0)
(0.192747 0.00906176 0)
(0.190451 0.00979709 0)
(0.186692 0.00969094 0)
(0.181681 0.00923571 0)
(0.17587 0.00862672 0)
(0.169625 0.00792476 0)
(0.163182 0.00716752 0)
(0.15671 0.00638962 0)
(0.150342 0.0056208 0)
(0.14418 0.00488551 0)
(0.138295 0.00420297 0)
(0.13273 0.00358673 0)
(0.127507 0.00304445 0)
(0.12263 0.00257817 0)
(0.118094 0.00218526 0)
(0.113887 0.00185969 0)
(0.109987 0.00159338 0)
(0.106375 0.00137737 0)
(0.103027 0.00120279 0)
(0.0999198 0.00106152 0)
(0.0970324 0.000946544 0)
(0.0943439 0.000852038 0)
(0.0918354 0.00077337 0)
(0.0894897 0.00070695 0)
(0.0872914 0.000650057 0)
(0.0852267 0.000600658 0)
(0.0832834 0.000557247 0)
(0.0814506 0.000518709 0)
(0.0797187 0.000484211 0)
(0.0780791 0.000453121 0)
(0.0765243 0.000424952 0)
(0.0750476 0.000399316 0)
(0.0736429 0.000375899 0)
(0.0723048 0.000354439 0)
(0.0710285 0.000334717 0)
(0.0698097 0.000316542 0)
(0.0686444 0.00029975 0)
(0.0675292 0.000284198 0)
(0.0664608 0.00026976 0)
(0.0654363 0.000256325 0)
(0.0644531 0.000243796 0)
(0.0635087 0.000232087 0)
(0.0626011 0.000221121 0)
(0.0617282 0.000210832 0)
(0.0608881 0.000201158 0)
(0.0600792 0.000192048 0)
(0.0592999 0.000183452 0)
(0.0585488 0.000175329 0)
(0.0578246 0.00016764 0)
(0.057126 0.00016035 0)
(0.056452 0.000153428 0)
(0.0558016 0.000146846 0)
(0.0551737 0.000140577 0)
(0.0545676 0.000134598 0)
(0.0539824 0.000128887 0)
(0.0534173 0.000123425 0)
(0.0528717 0.000118193 0)
(0.052345 0.000113173 0)
(0.0518365 0.000108352 0)
(0.0513457 0.000103714 0)
(0.0508723 9.92451e-05 0)
(0.0504156 9.49343e-05 0)
(0.0499753 9.07695e-05 0)
(0.0495511 8.67401e-05 0)
(0.0491425 8.28363e-05 0)
(0.0487494 7.90489e-05 0)
(0.0483715 7.53693e-05 0)
(0.0480084 7.17896e-05 0)
(0.0476601 6.83024e-05 0)
(0.0473263 6.49009e-05 0)
(0.0470069 6.15787e-05 0)
(0.0467018 5.83301e-05 0)
(0.0464108 5.51498e-05 0)
(0.0461339 5.20334e-05 0)
(0.045871 4.89771e-05 0)
(0.045622 4.59779e-05 0)
(0.0453869 4.30338e-05 0)
(0.0451657 4.01432e-05 0)
(0.0449583 3.73045e-05 0)
(0.0447648 3.45149e-05 0)
(0.0445851 3.17693e-05 0)
(0.0444194 2.90584e-05 0)
(0.0442676 2.63669e-05 0)
(0.04413 2.3673e-05 0)
(0.0440067 2.09485e-05 0)
(0.0438981 1.8162e-05 0)
(0.0438044 1.52847e-05 0)
(0.043726 1.22993e-05 0)
(0.0436631 9.21554e-06 0)
(0.0436156 6.09798e-06 0)
(0.0435831 3.09046e-06 0)
(0.0435647 4.21932e-07 0)
(0.0435595 -1.7218e-06 0)
(0.0435642 -3.02986e-06 0)
(0.043575 -3.69581e-06 0)
(0.0435893 -3.86357e-06 0)
(0.0436046 -3.54961e-06 0)
(0.0436183 -2.63779e-06 0)
(0.0436277 -8.12369e-07 0)
(0.0436188 5.35636e-06 0)
(0.195706 0.00869855 0)
(0.196507 0.00980638 0)
(0.196756 0.010243 0)
(0.196234 0.010296 0)
(0.195016 0.0101076 0)
(0.193223 0.0097283 0)
(0.190949 0.0092004 0)
(0.188282 0.00857156 0)
(0.185312 0.00788693 0)
(0.182123 0.00718521 0)
(0.178793 0.00649768 0)
(0.175386 0.00584773 0)
(0.171953 0.00525069 0)
(0.168534 0.00471456 0)
(0.16516 0.00424122 0)
(0.161851 0.00382817 0)
(0.158622 0.00347009 0)
(0.155481 0.00316031 0)
(0.152434 0.00289185 0)
(0.149481 0.00265815 0)
(0.146623 0.00245338 0)
(0.14386 0.00227266 0)
(0.141188 0.00211196 0)
(0.138607 0.00196805 0)
(0.136113 0.00183838 0)
(0.133704 0.0017209 0)
(0.131377 0.00161398 0)
(0.129129 0.00151631 0)
(0.126958 0.0014268 0)
(0.124862 0.00134455 0)
(0.122837 0.0012688 0)
(0.12088 0.00119888 0)
(0.11899 0.00113421 0)
(0.117164 0.0010743 0)
(0.115399 0.00101869 0)
(0.113693 0.000966979 0)
(0.112043 0.000918811 0)
(0.110448 0.000873865 0)
(0.108905 0.000831853 0)
(0.107413 0.000792519 0)
(0.105968 0.00075563 0)
(0.10457 0.000720978 0)
(0.103217 0.000688375 0)
(0.101906 0.000657652 0)
(0.100637 0.000628657 0)
(0.0994077 0.000601251 0)
(0.0982166 0.000575309 0)
(0.0970624 0.000550718 0)
(0.095944 0.000527373 0)
(0.09486 0.000505181 0)
(0.0938093 0.000484055 0)
(0.0927909 0.000463916 0)
(0.0918038 0.000444692 0)
(0.090847 0.000426316 0)
(0.0899197 0.000408727 0)
(0.089021 0.000391867 0)
(0.0881503 0.000375684 0)
(0.0873067 0.00036013 0)
(0.0864897 0.000345158 0)
(0.0856986 0.000330728 0)
(0.084933 0.000316799 0)
(0.0841923 0.000303335 0)
(0.083476 0.000290303 0)
(0.0827839 0.000277671 0)
(0.0821154 0.000265408 0)
(0.0814704 0.000253488 0)
(0.0808484 0.000241885 0)
(0.0802494 0.000230573 0)
(0.079673 0.000219532 0)
(0.0791192 0.000208741 0)
(0.0785877 0.000198179 0)
(0.0780786 0.00018783 0)
(0.0775916 0.000177678 0)
(0.0771269 0.000167708 0)
(0.0766843 0.000157908 0)
(0.0762639 0.000148268 0)
(0.0758657 0.000138779 0)
(0.0754897 0.000129433 0)
(0.0751361 0.000120222 0)
(0.0748049 0.000111135 0)
(0.0744962 0.000102158 0)
(0.0742102 9.32671e-05 0)
(0.0739471 8.44335e-05 0)
(0.073707 7.56197e-05 0)
(0.0734902 6.6786e-05 0)
(0.0732969 5.79008e-05 0)
(0.0731274 4.89552e-05 0)
(0.0729815 3.99838e-05 0)
(0.072859 3.10827e-05 0)
(0.0727591 2.24187e-05 0)
(0.0726804 1.42182e-05 0)
(0.0726208 6.74973e-06 0)
(0.0725777 4.38e-07 0)
(0.0725517 -4.2882e-06 0)
(0.0725407 -7.15947e-06 0)
(0.0725389 -8.29411e-06 0)
(0.0725425 -7.97083e-06 0)
(0.0725476 -6.10684e-06 0)
(0.0725504 -2.04385e-06 0)
(0.0725352 9.15409e-06 0)
(0.196732 0.00806224 0)
(0.197887 0.00920765 0)
(0.198988 0.00984962 0)
(0.199801 0.0101429 0)
(0.200276 0.0101919 0)
(0.200415 0.0100404 0)
(0.200219 0.00972318 0)
(0.199693 0.00928081 0)
(0.198859 0.00875453 0)
(0.197751 0.00818159 0)
(0.196409 0.00759375 0)
(0.194875 0.00701649 0)
(0.193189 0.00646836 0)
(0.191386 0.00596117 0)
(0.189497 0.0055008 0)
(0.187549 0.00508848 0)
(0.185561 0.00472215 0)
(0.183549 0.00439783 0)
(0.181524 0.00411055 0)
(0.179497 0.00385518 0)
(0.177472 0.00362688 0)
(0.175456 0.00342135 0)
(0.173451 0.00323495 0)
(0.171461 0.00306469 0)
(0.169489 0.00290813 0)
(0.167535 0.00276335 0)
(0.165603 0.00262883 0)
(0.163694 0.00250335 0)
(0.161809 0.00238594 0)
(0.15995 0.0022758 0)
(0.158118 0.00217228 0)
(0.156313 0.00207481 0)
(0.154537 0.00198292 0)
(0.15279 0.00189617 0)
(0.151074 0.00181419 0)
(0.149387 0.00173664 0)
(0.147731 0.00166321 0)
(0.146107 0.00159361 0)
(0.144513 0.00152758 0)
(0.14295 0.00146489 0)
(0.141419 0.00140531 0)
(0.139918 0.00134863 0)
(0.138449 0.00129468 0)
(0.13701 0.00124327 0)
(0.135602 0.00119423 0)
(0.134225 0.00114742 0)
(0.132877 0.0011027 0)
(0.131559 0.00105993 0)
(0.130271 0.00101899 0)
(0.129012 0.00097976 0)
(0.127782 0.000942138 0)
(0.12658 0.00090602 0)
(0.125407 0.000871312 0)
(0.124262 0.000837924 0)
(0.123145 0.000805771 0)
(0.122054 0.000774775 0)
(0.120992 0.00074486 0)
(0.119956 0.000715957 0)
(0.118946 0.000687997 0)
(0.117964 0.000660919 0)
(0.117007 0.000634663 0)
(0.116077 0.000609172 0)
(0.115173 0.000584394 0)
(0.114294 0.000560278 0)
(0.113442 0.000536776 0)
(0.112615 0.000513843 0)
(0.111814 0.000491438 0)
(0.111039 0.000469519 0)
(0.110289 0.000448051 0)
(0.109566 0.000426997 0)
(0.108868 0.000406325 0)
(0.108196 0.000386005 0)
(0.107551 0.00036601 0)
(0.106931 0.000346314 0)
(0.106339 0.000326896 0)
(0.105773 0.000307737 0)
(0.105233 0.00028882 0)
(0.104722 0.00027013 0)
(0.104237 0.000251652 0)
(0.10378 0.000233367 0)
(0.103351 0.000215252 0)
(0.102951 0.000197279 0)
(0.102579 0.000179412 0)
(0.102236 0.000161615 0)
(0.101922 0.000143857 0)
(0.101637 0.000126134 0)
(0.101382 0.000108489 0)
(0.101156 9.104e-05 0)
(0.100959 7.40073e-05 0)
(0.100789 5.77252e-05 0)
(0.100644 4.26157e-05 0)
(0.100523 2.90867e-05 0)
(0.100423 1.74044e-05 0)
(0.10034 7.7839e-06 0)
(0.100272 5.60621e-07 0)
(0.100221 -4.12851e-06 0)
(0.100183 -6.16994e-06 0)
(0.100154 -5.22304e-06 0)
(0.100131 -3.20104e-07 0)
(0.100093 1.47606e-05 0)
(0.197452 0.00755511 0)
(0.198475 0.00860559 0)
(0.199587 0.00926989 0)
(0.200622 0.00963579 0)
(0.201522 0.00978351 0)
(0.202264 0.00975256 0)
(0.202825 0.00957022 0)
(0.203185 0.00926724 0)
(0.203334 0.00887639 0)
(0.203275 0.00842881 0)
(0.203021 0.0079523 0)
(0.20259 0.00747028 0)
(0.202004 0.00700101 0)
(0.201286 0.00655726 0)
(0.200457 0.00614666 0)
(0.199538 0.00577254 0)
(0.198545 0.00543499 0)
(0.197493 0.00513193 0)
(0.196392 0.00486004 0)
(0.19525 0.00461547 0)
(0.194075 0.00439439 0)
(0.192871 0.00419323 0)
(0.191642 0.0040089 0)
(0.190392 0.00383879 0)
(0.189124 0.00368075 0)
(0.187841 0.00353308 0)
(0.186543 0.00339442 0)
(0.185235 0.00326367 0)
(0.183917 0.00313997 0)
(0.182591 0.00302263 0)
(0.181261 0.00291106 0)
(0.179926 0.0028048 0)
(0.17859 0.00270343 0)
(0.177253 0.0026066 0)
(0.175917 0.002514 0)
(0.174584 0.00242535 0)
(0.173255 0.0023404 0)
(0.171931 0.00225893 0)
(0.170613 0.00218073 0)
(0.169303 0.00210561 0)
(0.168002 0.00203339 0)
(0.16671 0.00196391 0)
(0.165428 0.00189702 0)
(0.164158 0.00183259 0)
(0.1629 0.00177047 0)
(0.161654 0.00171055 0)
(0.160422 0.00165271 0)
(0.159204 0.00159685 0)
(0.158001 0.00154285 0)
(0.156813 0.00149063 0)
(0.15564 0.00144008 0)
(0.154484 0.00139112 0)
(0.153345 0.00134366 0)
(0.152223 0.00129763 0)
(0.151118 0.00125294 0)
(0.150032 0.00120951 0)
(0.148963 0.00116728 0)
(0.147914 0.00112618 0)
(0.146883 0.00108614 0)
(0.145872 0.00104709 0)
(0.144881 0.00100897 0)
(0.14391 0.000971728 0)
(0.142959 0.000935299 0)
(0.142029 0.000899629 0)
(0.141121 0.000864665 0)
(0.140234 0.000830356 0)
(0.139369 0.000796654 0)
(0.138527 0.000763511 0)
(0.137707 0.000730884 0)
(0.136911 0.000698731 0)
(0.136138 0.000667011 0)
(0.135389 0.00063569 0)
(0.134665 0.000604734 0)
(0.133966 0.000574112 0)
(0.133293 0.000543798 0)
(0.132645 0.000513767 0)
(0.132024 0.000484001 0)
(0.131431 0.000454479 0)
(0.130864 0.000425182 0)
(0.130326 0.00039609 0)
(0.129817 0.00036718 0)
(0.129337 0.000338425 0)
(0.128886 0.000309797 0)
(0.128466 0.000281276 0)
(0.128076 0.000252866 0)
(0.127717 0.00022461 0)
(0.127388 0.000196625 0)
(0.12709 0.000169128 0)
(0.126822 0.00014246 0)
(0.126582 0.000117089 0)
(0.12637 9.35699e-05 0)
(0.126183 7.24581e-05 0)
(0.12602 5.4197e-05 0)
(0.125877 3.89767e-05 0)
(0.125753 2.6733e-05 0)
(0.125644 1.74481e-05 0)
(0.125549 1.14238e-05 0)
(0.125466 9.16521e-06 0)
(0.125394 1.21589e-05 0)
(0.12531 2.72565e-05 0)
(0.198055 0.00710921 0)
(0.19891 0.00804084 0)
(0.199883 0.00867941 0)
(0.200857 0.0090685 0)
(0.201779 0.00926403 0)
(0.202624 0.00929969 0)
(0.20337 0.00919876 0)
(0.203996 0.00898618 0)
(0.204487 0.00868905 0)
(0.204837 0.00833381 0)
(0.205048 0.00794452 0)
(0.205126 0.00754191 0)
(0.205084 0.00714268 0)
(0.204934 0.00675912 0)
(0.20469 0.00639921 0)
(0.204367 0.00606721 0)
(0.203976 0.00576442 0)
(0.203528 0.00549004 0)
(0.203031 0.00524196 0)
(0.202492 0.00501737 0)
(0.201915 0.00481329 0)
(0.201304 0.00462679 0)
(0.200663 0.00445525 0)
(0.199994 0.00429638 0)
(0.199298 0.00414827 0)
(0.198578 0.00400935 0)
(0.197834 0.00387836 0)
(0.197069 0.00375428 0)
(0.196282 0.00363629 0)
(0.195477 0.00352372 0)
(0.194653 0.00341604 0)
(0.193812 0.00331281 0)
(0.192956 0.00321364 0)
(0.192085 0.00311823 0)
(0.191202 0.0030263 0)
(0.190306 0.0029376 0)
(0.189399 0.00285193 0)
(0.188483 0.00276911 0)
(0.187558 0.00268894 0)
(0.186625 0.0026113 0)
(0.185687 0.00253602 0)
(0.184743 0.00246299 0)
(0.183794 0.00239209 0)
(0.182842 0.00232321 0)
(0.181888 0.00225624 0)
(0.180932 0.00219108 0)
(0.179976 0.00212766 0)
(0.17902 0.00206588 0)
(0.178065 0.00200567 0)
(0.177112 0.00194695 0)
(0.176162 0.00188964 0)
(0.175215 0.00183367 0)
(0.174273 0.00177898 0)
(0.173337 0.0017255 0)
(0.172406 0.00167317 0)
(0.171481 0.00162192 0)
(0.170564 0.00157169 0)
(0.169655 0.00152243 0)
(0.168755 0.00147408 0)
(0.167865 0.00142658 0)
(0.166985 0.00137987 0)
(0.166115 0.00133391 0)
(0.165257 0.00128864 0)
(0.164412 0.001244 0)
(0.163579 0.00119996 0)
(0.16276 0.00115646 0)
(0.161956 0.00111345 0)
(0.161166 0.00107089 0)
(0.160392 0.00102874 0)
(0.159635 0.000986961 0)
(0.158895 0.000945506 0)
(0.158173 0.000904345 0)
(0.15747 0.000863444 0)
(0.156787 0.000822775 0)
(0.156123 0.000782311 0)
(0.155481 0.000742032 0)
(0.15486 0.000701917 0)
(0.154261 0.000661952 0)
(0.153686 0.000622118 0)
(0.153135 0.000582402 0)
(0.152609 0.000542787 0)
(0.152108 0.000503258 0)
(0.151634 0.000463809 0)
(0.151186 0.00042445 0)
(0.150765 0.000385229 0)
(0.150372 0.000346253 0)
(0.150007 0.00030772 0)
(0.149669 0.000269946 0)
(0.149358 0.000233378 0)
(0.149074 0.000198587 0)
(0.148814 0.000166215 0)
(0.148579 0.000136887 0)
(0.148365 0.000111094 0)
(0.148173 8.9094e-05 0)
(0.148 7.09549e-05 0)
(0.147843 5.67114e-05 0)
(0.147702 4.64084e-05 0)
(0.147573 4.02951e-05 0)
(0.147458 3.99058e-05 0)
(0.147328 5.07237e-05 0)
(0.198569 0.00671956 0)
(0.199289 0.00754053 0)
(0.200121 0.00813983 0)
(0.200985 0.00853223 0)
(0.201834 0.00875283 0)
(0.202639 0.00882865 0)
(0.203381 0.00878026 0)
(0.204042 0.00862894 0)
(0.20461 0.0083978 0)
(0.205077 0.0081097 0)
(0.205443 0.00778567 0)
(0.205711 0.00744406 0)
(0.205888 0.00709992 0)
(0.205983 0.00676476 0)
(0.206006 0.00644646 0)
(0.205967 0.00614972 0)
(0.205875 0.00587661 0)
(0.205738 0.00562725 0)
(0.205563 0.00540043 0)
(0.205356 0.0051942 0)
(0.205119 0.00500624 0)
(0.204856 0.00483417 0)
(0.204569 0.00467576 0)
(0.204259 0.00452902 0)
(0.203928 0.00439221 0)
(0.203577 0.00426391 0)
(0.203205 0.0041429 0)
(0.202814 0.00402821 0)
(0.202405 0.00391904 0)
(0.201976 0.00381475 0)
(0.201531 0.0037148 0)
(0.201067 0.00361875 0)
(0.200587 0.00352623 0)
(0.200091 0.00343692 0)
(0.19958 0.00335057 0)
(0.199053 0.00326693 0)
(0.198512 0.00318581 0)
(0.197957 0.00310702 0)
(0.197389 0.0030304 0)
(0.196809 0.00295581 0)
(0.196217 0.00288313 0)
(0.195613 0.00281223 0)
(0.195 0.002743 0)
(0.194376 0.00267536 0)
(0.193744 0.00260921 0)
(0.193102 0.00254446 0)
(0.192454 0.00248104 0)
(0.191798 0.00241888 0)
(0.191135 0.00235791 0)
(0.190467 0.00229805 0)
(0.189794 0.00223926 0)
(0.189116 0.00218147 0)
(0.188435 0.00212462 0)
(0.187751 0.00206865 0)
(0.187065 0.00201352 0)
(0.186377 0.00195916 0)
(0.185688 0.00190553 0)
(0.185 0.00185257 0)
(0.184311 0.00180024 0)
(0.183624 0.00174847 0)
(0.182939 0.00169724 0)
(0.182257 0.00164648 0)
(0.181579 0.00159615 0)
(0.180904 0.00154621 0)
(0.180235 0.0014966 0)
(0.179571 0.00144729 0)
(0.178914 0.00139823 0)
(0.178265 0.00134938 0)
(0.177623 0.0013007 0)
(0.176991 0.00125216 0)
(0.176368 0.00120371 0)
(0.175756 0.00115533 0)
(0.175155 0.00110698 0)
(0.174566 0.00105865 0)
(0.173991 0.00101031 0)
(0.17343 0.000961936 0)
(0.172883 0.000913525 0)
(0.172352 0.000865064 0)
(0.171838 0.000816542 0)
(0.171341 0.000767955 0)
(0.170863 0.0007193 0)
(0.170403 0.000670583 0)
(0.169963 0.000621822 0)
(0.169544 0.000573067 0)
(0.169146 0.000524415 0)
(0.168769 0.000476039 0)
(0.168413 0.000428213 0)
(0.168079 0.000381338 0)
(0.167767 0.000335945 0)
(0.167475 0.000292681 0)
(0.167204 0.000252245 0)
(0.166952 0.000215298 0)
(0.166719 0.000182363 0)
(0.166503 0.000153751 0)
(0.166304 0.00012959 0)
(0.166121 0.000109909 0)
(0.165951 9.47272e-05 0)
(0.165795 8.42741e-05 0)
(0.165652 7.96694e-05 0)
(0.165494 8.34538e-05 0)
(0.199007 0.00637695 0)
(0.199621 0.00709931 0)
(0.200335 0.00765306 0)
(0.201092 0.00803684 0)
(0.201852 0.00827033 0)
(0.202588 0.0083737 0)
(0.203279 0.00836441 0)
(0.203909 0.0082605 0)
(0.204467 0.00808152 0)
(0.204948 0.00784713 0)
(0.205348 0.00757573 0)
(0.205671 0.00728357 0)
(0.205921 0.0069843 0)
(0.206105 0.00668862 0)
(0.206232 0.00640423 0)
(0.20631 0.00613609 0)
(0.206345 0.00588684 0)
(0.206347 0.00565734 0)
(0.206319 0.00544714 0)
(0.206266 0.00525498 0)
(0.206193 0.00507918 0)
(0.206102 0.00491788 0)
(0.205994 0.00476921 0)
(0.205871 0.00463149 0)
(0.205734 0.00450318 0)
(0.205583 0.00438298 0)
(0.205419 0.00426977 0)
(0.205243 0.00416263 0)
(0.205053 0.00406079 0)
(0.204851 0.0039636 0)
(0.204636 0.00387054 0)
(0.204409 0.00378116 0)
(0.204169 0.00369508 0)
(0.203917 0.00361198 0)
(0.203653 0.00353159 0)
(0.203378 0.00345367 0)
(0.20309 0.00337801 0)
(0.202791 0.00330441 0)
(0.202481 0.00323272 0)
(0.20216 0.00316279 0)
(0.201827 0.00309449 0)
(0.201485 0.00302769 0)
(0.201132 0.00296229 0)
(0.200768 0.00289818 0)
(0.200396 0.00283529 0)
(0.200014 0.00277351 0)
(0.199622 0.00271278 0)
(0.199222 0.00265301 0)
(0.198814 0.00259415 0)
(0.198398 0.00253612 0)
(0.197975 0.00247887 0)
(0.197544 0.00242233 0)
(0.197107 0.00236645 0)
(0.196663 0.00231117 0)
(0.196213 0.00225643 0)
(0.195759 0.00220219 0)
(0.195299 0.0021484 0)
(0.194835 0.00209499 0)
(0.194368 0.00204193 0)
(0.193897 0.00198917 0)
(0.193423 0.00193664 0)
(0.192948 0.00188432 0)
(0.192471 0.00183215 0)
(0.191992 0.00178009 0)
(0.191514 0.00172808 0)
(0.191036 0.0016761 0)
(0.190558 0.00162409 0)
(0.190083 0.00157201 0)
(0.18961 0.00151983 0)
(0.189139 0.00146751 0)
(0.188673 0.00141501 0)
(0.188211 0.00136231 0)
(0.187754 0.00130938 0)
(0.187303 0.00125619 0)
(0.186858 0.00120273 0)
(0.186422 0.00114898 0)
(0.185993 0.00109494 0)
(0.185574 0.0010406 0)
(0.185164 0.000985961 0)
(0.184765 0.000931027 0)
(0.184377 0.000875811 0)
(0.184002 0.000820341 0)
(0.183639 0.000764664 0)
(0.18329 0.000708867 0)
(0.182954 0.000653096 0)
(0.182633 0.000597577 0)
(0.182326 0.000542649 0)
(0.182034 0.000488774 0)
(0.181756 0.000436545 0)
(0.181492 0.00038665 0)
(0.181243 0.00033982 0)
(0.181008 0.000296736 0)
(0.180785 0.000257939 0)
(0.180576 0.000223773 0)
(0.18038 0.000194396 0)
(0.180196 0.000169859 0)
(0.180023 0.000150173 0)
(0.179861 0.000135452 0)
(0.179712 0.000126126 0)
(0.179546 0.000121758 0)
(0.199377 0.00606998 0)
(0.199909 0.00670603 0)
(0.200524 0.00721275 0)
(0.201187 0.00758111 0)
(0.201864 0.00782013 0)
(0.202528 0.0079436 0)
(0.20316 0.00796554 0)
(0.203745 0.00790087 0)
(0.204271 0.00776589 0)
(0.204734 0.00757734 0)
(0.20513 0.00735121 0)
(0.205461 0.00710185 0)
(0.20573 0.00684158 0)
(0.205943 0.00658031 0)
(0.206107 0.00632546 0)
(0.206229 0.00608212 0)
(0.206315 0.00585337 0)
(0.206372 0.00564061 0)
(0.206405 0.00544406 0)
(0.206418 0.0052631 0)
(0.206414 0.00509659 0)
(0.206397 0.00494317 0)
(0.206369 0.00480136 0)
(0.20633 0.00466976 0)
(0.206282 0.00454708 0)
(0.206225 0.00443215 0)
(0.206161 0.00432399 0)
(0.206088 0.00422173 0)
(0.206009 0.00412465 0)
(0.205921 0.00403214 0)
(0.205827 0.00394368 0)
(0.205725 0.00385884 0)
(0.205615 0.00377723 0)
(0.205499 0.00369854 0)
(0.205374 0.00362249 0)
(0.205243 0.00354883 0)
(0.205104 0.00347735 0)
(0.204957 0.00340786 0)
(0.204803 0.00334019 0)
(0.204642 0.00327418 0)
(0.204473 0.00320969 0)
(0.204297 0.0031466 0)
(0.204114 0.00308479 0)
(0.203923 0.00302415 0)
(0.203725 0.0029646 0)
(0.20352 0.00290603 0)
(0.203308 0.00284837 0)
(0.203089 0.00279154 0)
(0.202863 0.00273545 0)
(0.20263 0.00268004 0)
(0.202391 0.00262524 0)
(0.202145 0.00257099 0)
(0.201893 0.00251723 0)
(0.201635 0.00246389 0)
(0.201372 0.00241091 0)
(0.201102 0.00235824 0)
(0.200828 0.00230582 0)
(0.200548 0.0022536 0)
(0.200263 0.00220152 0)
(0.199974 0.00214953 0)
(0.199681 0.00209758 0)
(0.199384 0.00204561 0)
(0.199083 0.00199358 0)
(0.198779 0.00194143 0)
(0.198473 0.00188911 0)
(0.198164 0.00183659 0)
(0.197854 0.00178381 0)
(0.197542 0.00173073 0)
(0.197229 0.00167731 0)
(0.196915 0.00162351 0)
(0.196602 0.00156929 0)
(0.196289 0.00151463 0)
(0.195977 0.00145949 0)
(0.195667 0.00140386 0)
(0.195359 0.00134771 0)
(0.195054 0.00129103 0)
(0.194752 0.00123382 0)
(0.194454 0.00117607 0)
(0.194161 0.0011178 0)
(0.193873 0.00105902 0)
(0.193591 0.000999757 0)
(0.193315 0.000940053 0)
(0.193045 0.000879984 0)
(0.192783 0.000819669 0)
(0.192529 0.000759292 0)
(0.192282 0.000699122 0)
(0.192043 0.000639541 0)
(0.191813 0.000581049 0)
(0.191591 0.000524269 0)
(0.191377 0.000469906 0)
(0.191171 0.000418697 0)
(0.190973 0.000371322 0)
(0.190784 0.000328329 0)
(0.190603 0.000290082 0)
(0.19043 0.000256767 0)
(0.190266 0.000228446 0)
(0.19011 0.0002051 0)
(0.189962 0.000186675 0)
(0.189824 0.00017292 0)
(0.18967 0.000161261 0)
(0.199689 0.00579071 0)
(0.200155 0.00635241 0)
(0.200689 0.00681379 0)
(0.201269 0.00716301 0)
(0.201871 0.00740223 0)
(0.202468 0.00753997 0)
(0.203042 0.00758689 0)
(0.20358 0.00755504 0)
(0.20407 0.00745786 0)
(0.204507 0.00730941 0)
(0.204887 0.00712343 0)
(0.205212 0.0069125 0)
(0.205483 0.00668763 0)
(0.205704 0.00645789 0)
(0.205882 0.00623035 0)
(0.206021 0.00601009 0)
(0.206128 0.00580044 0)
(0.206208 0.00560326 0)
(0.206266 0.00541928 0)
(0.206307 0.00524843 0)
(0.206332 0.00509006 0)
(0.206346 0.00494326 0)
(0.20635 0.00480693 0)
(0.206346 0.00467996 0)
(0.206336 0.00456128 0)
(0.206319 0.00444992 0)
(0.206297 0.00434501 0)
(0.20627 0.00424578 0)
(0.206238 0.00415157 0)
(0.206202 0.00406182 0)
(0.206162 0.00397605 0)
(0.206118 0.00389383 0)
(0.206069 0.00381482 0)
(0.206017 0.00373869 0)
(0.205961 0.00366518 0)
(0.205901 0.00359405 0)
(0.205837 0.00352508 0)
(0.205769 0.00345808 0)
(0.205697 0.00339289 0)
(0.20562 0.00332935 0)
(0.20554 0.00326731 0)
(0.205456 0.00320666 0)
(0.205367 0.00314726 0)
(0.205274 0.00308902 0)
(0.205177 0.00303183 0)
(0.205076 0.00297559 0)
(0.20497 0.00292022 0)
(0.204861 0.00286564 0)
(0.204746 0.00281175 0)
(0.204628 0.00275849 0)
(0.204505 0.00270578 0)
(0.204378 0.00265356 0)
(0.204246 0.00260175 0)
(0.204111 0.00255028 0)
(0.203971 0.0024991 0)
(0.203827 0.00244814 0)
(0.203679 0.00239734 0)
(0.203526 0.00234663 0)
(0.203371 0.00229596 0)
(0.203211 0.00224527 0)
(0.203047 0.00219449 0)
(0.202881 0.00214358 0)
(0.20271 0.00209247 0)
(0.202537 0.00204112 0)
(0.202361 0.00198946 0)
(0.202181 0.00193744 0)
(0.202 0.00188501 0)
(0.201816 0.00183213 0)
(0.20163 0.00177875 0)
(0.201442 0.00172482 0)
(0.201252 0.00167031 0)
(0.201062 0.00161518 0)
(0.20087 0.00155941 0)
(0.200678 0.00150295 0)
(0.200486 0.00144581 0)
(0.200294 0.00138796 0)
(0.200102 0.0013294 0)
(0.199911 0.00127013 0)
(0.199721 0.00121016 0)
(0.199533 0.00114952 0)
(0.199347 0.00108824 0)
(0.199163 0.00102639 0)
(0.198981 0.000964053 0)
(0.198802 0.000901382 0)
(0.198627 0.000838582 0)
(0.198454 0.000775952 0)
(0.198284 0.000713895 0)
(0.198118 0.000652929 0)
(0.197955 0.000593678 0)
(0.197795 0.000536843 0)
(0.197639 0.000483142 0)
(0.197487 0.00043324 0)
(0.197339 0.00038768 0)
(0.197195 0.000346834 0)
(0.197056 0.000310906 0)
(0.196921 0.000279963 0)
(0.196792 0.000253951 0)
(0.196669 0.000232659 0)
(0.196553 0.00021534 0)
(0.196419 0.000198438 0)
(0.199949 0.00553374 0)
(0.20036 0.00603192 0)
(0.200827 0.00645119 0)
(0.201337 0.00677948 0)
(0.20187 0.00701497 0)
(0.202406 0.00716219 0)
(0.202927 0.0072288 0)
(0.203419 0.00722431 0)
(0.203872 0.00715961 0)
(0.204282 0.00704639 0)
(0.204644 0.00689628 0)
(0.204957 0.00672022 0)
(0.205223 0.00652793 0)
(0.205446 0.00632765 0)
(0.205628 0.00612597 0)
(0.205776 0.00592785 0)
(0.205893 0.00573677 0)
(0.205985 0.0055549 0)
(0.206056 0.00538337 0)
(0.20611 0.00522254 0)
(0.206149 0.00507222 0)
(0.206177 0.00493187 0)
(0.206196 0.00480073 0)
(0.206207 0.004678 0)
(0.206212 0.00456282 0)
(0.206212 0.0044544 0)
(0.206207 0.004352 0)
(0.206199 0.00425497 0)
(0.206187 0.00416272 0)
(0.206172 0.00407474 0)
(0.206154 0.00399061 0)
(0.206134 0.00390993 0)
(0.206112 0.00383236 0)
(0.206087 0.00375763 0)
(0.206061 0.00368546 0)
(0.206032 0.00361564 0)
(0.206001 0.00354796 0)
(0.205969 0.00348223 0)
(0.205934 0.0034183 0)
(0.205898 0.00335602 0)
(0.205859 0.00329524 0)
(0.205819 0.00323584 0)
(0.205777 0.00317771 0)
(0.205732 0.00312074 0)
(0.205686 0.00306482 0)
(0.205638 0.00300986 0)
(0.205588 0.00295577 0)
(0.205535 0.00290247 0)
(0.205481 0.00284986 0)
(0.205424 0.00279789 0)
(0.205365 0.00274646 0)
(0.205304 0.00269551 0)
(0.20524 0.00264496 0)
(0.205175 0.00259475 0)
(0.205106 0.0025448 0)
(0.205036 0.00249505 0)
(0.204963 0.00244543 0)
(0.204888 0.00239587 0)
(0.20481 0.00234632 0)
(0.20473 0.00229671 0)
(0.204648 0.00224697 0)
(0.204563 0.00219704 0)
(0.204477 0.00214687 0)
(0.204387 0.00209639 0)
(0.204296 0.00204554 0)
(0.204203 0.00199426 0)
(0.204107 0.00194251 0)
(0.20401 0.00189022 0)
(0.20391 0.00183735 0)
(0.203809 0.00178385 0)
(0.203706 0.00172968 0)
(0.203602 0.0016748 0)
(0.203496 0.00161917 0)
(0.203389 0.00156276 0)
(0.20328 0.00150557 0)
(0.203171 0.00144756 0)
(0.203061 0.00138874 0)
(0.20295 0.00132912 0)
(0.202838 0.0012687 0)
(0.202727 0.00120751 0)
(0.202614 0.0011456 0)
(0.202502 0.00108305 0)
(0.20239 0.00101996 0)
(0.202278 0.00095649 0)
(0.202165 0.000892868 0)
(0.202053 0.000829404 0)
(0.201941 0.000766508 0)
(0.201829 0.000704695 0)
(0.201717 0.000644574 0)
(0.201605 0.000586818 0)
(0.201494 0.000532114 0)
(0.201383 0.000481098 0)
(0.201273 0.000434296 0)
(0.201165 0.000392079 0)
(0.201059 0.000354662 0)
(0.200955 0.00032211 0)
(0.200855 0.000294343 0)
(0.200757 0.000271042 0)
(0.200665 0.000251218 0)
(0.200555 0.000231377 0)
(0.200162 0.00529522 0)
(0.200528 0.00573932 0)
(0.200939 0.00612039 0)
(0.201388 0.0064274 0)
(0.201861 0.00665646 0)
(0.202341 0.00680932 0)
(0.202812 0.00689116 0)
(0.203261 0.00690925 0)
(0.203679 0.00687229 0)
(0.204061 0.00678985 0)
(0.204402 0.0066717 0)
(0.204702 0.0065272 0)
(0.204961 0.00636487 0)
(0.205181 0.0061921 0)
(0.205365 0.00601498 0)
(0.205517 0.00583825 0)
(0.205641 0.0056654 0)
(0.20574 0.0054988 0)
(0.205819 0.00533988 0)
(0.205881 0.00518935 0)
(0.205929 0.00504739 0)
(0.205966 0.00491378 0)
(0.205993 0.0047881 0)
(0.206013 0.00466977 0)
(0.206026 0.00455818 0)
(0.206033 0.0044527 0)
(0.206037 0.00435273 0)
(0.206037 0.00425772 0)
(0.206033 0.00416719 0)
(0.206027 0.00408068 0)
(0.206019 0.0039978 0)
(0.206009 0.00391822 0)
(0.205997 0.00384162 0)
(0.205984 0.00376774 0)
(0.205969 0.00369635 0)
(0.205953 0.00362723 0)
(0.205936 0.0035602 0)
(0.205918 0.00349508 0)
(0.205899 0.00343172 0)
(0.20588 0.00336998 0)
(0.205859 0.00330972 0)
(0.205838 0.00325084 0)
(0.205816 0.00319321 0)
(0.205793 0.00313674 0)
(0.20577 0.00308133 0)
(0.205745 0.00302688 0)
(0.205721 0.00297331 0)
(0.205695 0.00292053 0)
(0.205668 0.00286846 0)
(0.205641 0.00281703 0)
(0.205613 0.00276616 0)
(0.205584 0.00271577 0)
(0.205555 0.00266581 0)
(0.205524 0.00261618 0)
(0.205492 0.00256683 0)
(0.20546 0.00251768 0)
(0.205426 0.00246868 0)
(0.205392 0.00241974 0)
(0.205356 0.00237081 0)
(0.205319 0.00232181 0)
(0.205282 0.00227269 0)
(0.205243 0.00222338 0)
(0.205202 0.00217381 0)
(0.205161 0.00212393 0)
(0.205118 0.00207367 0)
(0.205074 0.00202296 0)
(0.205029 0.00197176 0)
(0.204983 0.00192001 0)
(0.204936 0.00186766 0)
(0.204887 0.00181464 0)
(0.204837 0.00176093 0)
(0.204785 0.00170648 0)
(0.204733 0.00165125 0)
(0.204679 0.00159521 0)
(0.204624 0.00153835 0)
(0.204568 0.00148064 0)
(0.20451 0.00142209 0)
(0.204451 0.00136269 0)
(0.204392 0.00130247 0)
(0.204331 0.00124146 0)
(0.204268 0.00117971 0)
(0.204205 0.00111731 0)
(0.20414 0.00105437 0)
(0.204074 0.000991057 0)
(0.204006 0.000927613 0)
(0.203937 0.000864349 0)
(0.203866 0.000801669 0)
(0.203793 0.00074007 0)
(0.203719 0.000680134 0)
(0.203643 0.000622497 0)
(0.203566 0.000567801 0)
(0.203487 0.000516647 0)
(0.203408 0.000469534 0)
(0.203328 0.000426825 0)
(0.203249 0.000388736 0)