/*--------------------------------*- C++ -*----------------------------------*\
| =========                 |                                                 |
| \\      /  F ield         | OpenFOAM: The Open Source CFD Toolbox           |
|  \\    /   O peration     | Version:  2.3.0                                 |
|   \\  /    A nd           | Web:      www.OpenFOAM.org                      |
|    \\/     M anipulation  |                                                 |
\*---------------------------------------------------------------------------*/
FoamFile
{
    version     2.0;
    format      ascii;
    class       volScalarField;
    location    "0.55";
    object      p;
}
// * * * * * * * * * * * * * * * * * * * * * * * * * * * * * * * * * * * * * //

dimensions      [0 2 -2 0 0 0 0];

internalField   nonuniform List<scalar> 
2000
(
0.0023624
0.00203658
0.00143628
0.00088134
0.000423803
3.60562e-05
-0.000290294
-0.000536602
-0.000682899
-0.000734302
-0.000718134
-0.000666481
-0.000603817
-0.000544529
-0.000495055
-0.000456569
-0.000427423
-0.000405033
-0.000386981
-0.000371425
-0.000357146
-0.000343426
-0.000329912
-0.000316484
-0.000303153
-0.000289993
-0.000277095
-0.000264548
-0.000252425
-0.000240777
-0.000229635
-0.000219014
-0.000208915
-0.000199328
-0.000190241
-0.000181632
-0.000173482
-0.000165768
-0.00015847
-0.000151564
-0.000145034
-0.000138862
-0.00013303
-0.000127525
-0.000122331
-0.000117437
-0.00011283
-0.000108498
-0.000104428
-0.000100611
-9.70339e-05
-9.36868e-05
-9.05595e-05
-8.764e-05
-8.49204e-05
-8.23913e-05
-8.00395e-05
-7.78554e-05
-7.58315e-05
-7.39576e-05
-7.22229e-05
-7.0618e-05
-6.91314e-05
-6.77626e-05
-6.64998e-05
-6.53277e-05
-6.42358e-05
-6.32254e-05
-6.22761e-05
-6.138e-05
-6.05301e-05
-5.97293e-05
-5.89501e-05
-5.81921e-05
-5.74332e-05
-5.66764e-05
-5.58919e-05
-5.50901e-05
-5.42465e-05
-5.33716e-05
-5.24241e-05
-5.14109e-05
-5.02854e-05
-4.9073e-05
-4.7733e-05
-4.62943e-05
-4.46958e-05
-4.29587e-05
-4.10121e-05
-3.88992e-05
-3.65467e-05
-3.40179e-05
-3.12109e-05
-2.81931e-05
-2.48294e-05
-2.12127e-05
-1.71713e-05
-1.2861e-05
-8.01752e-06
-2.93926e-06
0.00190874
0.00173947
0.00132211
0.00084744
0.000418798
5.31421e-05
-0.000249985
-0.000477928
-0.000618934
-0.000676245
-0.000670513
-0.000629433
-0.000575885
-0.000523735
-0.000479561
-0.000444749
-0.000418009
-0.000397164
-0.00038013
-0.00036529
-0.000351558
-0.000338291
-0.000325174
-0.000312106
-0.000299103
-0.00028624
-0.000273612
-0.000261308
-0.000249402
-0.000237948
-0.000226981
-0.000216517
-0.00020656
-0.000197104
-0.000188135
-0.000179635
-0.000171586
-0.000163966
-0.000156755
-0.000149932
-0.000143478
-0.000137376
-0.000131612
-0.00012617
-0.000121035
-0.000116197
-0.000111642
-0.00010736
-0.000103337
-9.95646e-05
-9.60299e-05
-9.27228e-05
-8.9634e-05
-8.6751e-05
-8.4066e-05
-8.15705e-05
-7.92507e-05
-7.70973e-05
-7.51028e-05
-7.32574e-05
-7.15503e-05
-6.99722e-05
-6.85106e-05
-6.71665e-05
-6.59286e-05
-6.47801e-05
-6.37104e-05
-6.27227e-05
-6.17954e-05
-6.09201e-05
-6.00902e-05
-5.93103e-05
-5.85509e-05
-5.78125e-05
-5.70725e-05
-5.63346e-05
-5.55679e-05
-5.47835e-05
-5.3957e-05
-5.30997e-05
-5.21692e-05
-5.1173e-05
-5.00627e-05
-4.88653e-05
-4.75397e-05
-4.61159e-05
-4.45317e-05
-4.28088e-05
-4.08746e-05
-3.87739e-05
-3.64317e-05
-3.39142e-05
-3.11166e-05
-2.8109e-05
-2.47529e-05
-2.11442e-05
-1.71068e-05
-1.2803e-05
-7.95786e-06
-2.89435e-06
0.00158227
0.00148342
0.00120604
0.000824348
0.000439659
0.000102284
-0.000173371
-0.000381644
-0.000519141
-0.00058858
-0.000602461
-0.000580275
-0.000541614
-0.000500393
-0.000463353
-0.000432653
-0.00040804
-0.000388236
-0.000371755
-0.000357302
-0.000343934
-0.00033106
-0.000318373
-0.000305758
-0.000293219
-0.000280815
-0.000268627
-0.000256735
-0.000245208
-0.000234098
-0.00022344
-0.00021325
-0.000203538
-0.000194299
-0.000185524
-0.000177198
-0.000169304
-0.000161825
-0.00015474
-0.000148032
-0.000141684
-0.00013568
-0.000130005
-0.000124645
-0.000119587
-0.000114819
-0.000110331
-0.000106111
-0.000102145
-9.84274e-05
-9.49435e-05
-9.16839e-05
-8.864e-05
-8.57993e-05
-8.31543e-05
-8.06971e-05
-7.84131e-05
-7.62938e-05
-7.43323e-05
-7.25182e-05
-7.08406e-05
-6.92916e-05
-6.78569e-05
-6.65392e-05
-6.53274e-05
-6.42041e-05
-6.31577e-05
-6.2194e-05
-6.12893e-05
-6.04355e-05
-5.96262e-05
-5.88685e-05
-5.81292e-05
-5.74115e-05
-5.66909e-05
-5.59731e-05
-5.52245e-05
-5.44583e-05
-5.36493e-05
-5.28111e-05
-5.18986e-05
-5.0921e-05
-4.98264e-05
-4.86453e-05
-4.73348e-05
-4.5928e-05
-4.43601e-05
-4.26539e-05
-4.07336e-05
-3.86478e-05
-3.63174e-05
-3.38149e-05
-3.10298e-05
-2.80373e-05
-2.46926e-05
-2.10982e-05
-1.7068e-05
-1.27798e-05
-7.9377e-06
-2.89505e-06
0.00135046
0.00127477
0.00108232
0.000788237
0.000460896
0.000158896
-9.12293e-05
-0.000282377
-0.000414675
-0.000491618
-0.000521465
-0.000517535
-0.000494765
-0.000465311
-0.000436352
-0.000411
-0.000389894
-0.000372444
-0.000357629
-0.000344447
-0.000332122
-0.000320158
-0.000308299
-0.000296455
-0.00028464
-0.000272917
-0.000261364
-0.000250056
-0.00023906
-0.000228425
-0.00021819
-0.000208379
-0.000199002
-0.000190064
-0.00018156
-0.00017348
-0.000165811
-0.000158537
-0.000151643
-0.000145111
-0.000138927
-0.000133075
-0.000127543
-0.000122316
-0.000117383
-0.000112731
-0.000108352
-0.000104233
-0.000100362
-9.6732e-05
-9.33304e-05
-9.01477e-05
-8.71756e-05
-8.44015e-05
-8.18188e-05
-7.94207e-05
-7.71916e-05
-7.51237e-05
-7.32109e-05
-7.14429e-05
-6.98083e-05
-6.83007e-05
-6.69044e-05
-6.56236e-05
-6.44476e-05
-6.33588e-05
-6.23448e-05
-6.14131e-05
-6.05384e-05
-5.97135e-05
-5.89318e-05
-5.82029e-05
-5.749e-05
-5.67996e-05
-5.61052e-05
-5.54135e-05
-5.46888e-05
-5.39464e-05
-5.31611e-05
-5.23487e-05
-5.14612e-05
-5.05091e-05
-4.94368e-05
-4.82781e-05
-4.69901e-05
-4.56078e-05
-4.40653e-05
-4.23842e-05
-4.04872e-05
-3.84244e-05
-3.61161e-05
-3.36384e-05
-3.08778e-05
-2.79126e-05
-2.45921e-05
-2.10268e-05
-1.70168e-05
-1.27632e-05
-7.94112e-06
-2.93075e-06
0.00116182
0.00109562
0.000952474
0.000730148
0.000464938
0.000204665
-1.90089e-05
-0.00019433
-0.000320436
-0.000400819
-0.000441663
-0.000452042
-0.000442893
-0.000424248
-0.00040311
-0.000383242
-0.000365996
-0.000351333
-0.000338604
-0.000327055
-0.000316071
-0.00030526
-0.000294431
-0.000283536
-0.000272611
-0.000261728
-0.000250966
-0.000240398
-0.000230088
-0.000220083
-0.000210423
-0.000201135
-0.000192234
-0.000183728
-0.000175618
-0.000167898
-0.000160561
-0.000153591
-0.000146979
-0.000140707
-0.000134764
-0.000129137
-0.000123813
-0.000118782
-0.00011403
-0.000109547
-0.000105325
-0.000101352
-9.7619e-05
-9.41172e-05
-9.08338e-05
-8.77618e-05
-8.4894e-05
-8.22166e-05
-7.97229e-05
-7.74084e-05
-7.52592e-05
-7.32661e-05
-7.1422e-05
-6.97181e-05
-6.81446e-05
-6.66959e-05
-6.53538e-05
-6.41237e-05
-6.29966e-05
-6.19563e-05
-6.09874e-05
-6.00976e-05
-5.92625e-05
-5.84781e-05
-5.7735e-05
-5.70437e-05
-5.63661e-05
-5.57127e-05
-5.50538e-05
-5.43975e-05
-5.37065e-05
-5.29976e-05
-5.22461e-05
-5.1469e-05
-5.06179e-05
-4.97023e-05
-4.86652e-05
-4.75408e-05
-4.62893e-05
-4.49446e-05
-4.34443e-05
-4.18038e-05
-3.99492e-05
-3.79272e-05
-3.56614e-05
-3.32295e-05
-3.05161e-05
-2.7604e-05
-2.43328e-05
-2.08271e-05
-1.68671e-05
-1.26809e-05
-7.92339e-06
-2.97871e-06
0.000997723
0.000938138
0.000826162
0.000657609
0.000449945
0.000234579
3.96885e-05
-0.000119401
-0.000238443
-0.00031927
-0.000366707
-0.000387444
-0.00038939
-0.000380381
-0.000366675
-0.000352222
-0.000338881
-0.000327086
-0.000316541
-0.000306722
-0.00029717
-0.000287591
-0.000277857
-0.000267964
-0.000257973
-0.000247969
-0.000238041
-0.000228261
-0.000218691
-0.000209378
-0.000200361
-0.000191667
-0.000183316
-0.000175317
-0.000167676
-0.00016039
-0.000153455
-0.00014686
-0.000140597
-0.000134652
-0.000129015
-0.000123673
-0.000118615
-0.000113835
-0.00010932
-0.000105057
-0.000101039
-9.726e-05
-9.3708e-05
-9.03751e-05
-8.72483e-05
-8.43227e-05
-8.15925e-05
-7.90451e-05
-7.66696e-05
-7.4463e-05
-7.24173e-05
-7.0524e-05
-6.87699e-05
-6.7147e-05
-6.56504e-05
-6.42784e-05
-6.30061e-05
-6.1836e-05
-6.07662e-05
-5.9788e-05
-5.88767e-05
-5.80346e-05
-5.72452e-05
-5.65107e-05
-5.58134e-05
-5.51636e-05
-5.45277e-05
-5.39203e-05
-5.33049e-05
-5.2689e-05
-5.20373e-05
-5.13689e-05
-5.06612e-05
-4.99295e-05
-4.91261e-05
-4.82566e-05
-4.72666e-05
-4.6189e-05
-4.49909e-05
-4.37011e-05
-4.22629e-05
-4.06831e-05
-3.8893e-05
-3.69372e-05
-3.4741e-05
-3.23872e-05
-2.97529e-05
-2.69315e-05
-2.37484e-05
-2.0343e-05
-1.64858e-05
-1.24107e-05
-7.79117e-06
-2.97781e-06
0.000852226
0.000799031
0.000709457
0.000580765
0.000420871
0.000248349
8.40218e-05
-5.68505e-05
-0.000167178
-0.000246274
-0.000297222
-0.000325026
-0.000335563
-0.000334798
-0.00032794
-0.000318712
-0.000309224
-0.00030029
-0.000291949
-0.000283914
-0.000275869
-0.00026761
-0.000259062
-0.000250255
-0.000241268
-0.000232206
-0.000223165
-0.000214221
-0.000205438
-0.000196863
-0.000188535
-0.000180484
-0.000172729
-0.000165282
-0.000158153
-0.000151344
-0.000144852
-0.00013867
-0.000132792
-0.00012721
-0.000121913
-0.00011689
-0.000112133
-0.000107635
-0.000103386
-9.93738e-05
-9.55893e-05
-9.20311e-05
-8.86873e-05
-8.55484e-05
-8.26027e-05
-7.98466e-05
-7.7275e-05
-7.48792e-05
-7.26419e-05
-7.05601e-05
-6.86336e-05
-6.68561e-05
-6.52068e-05
-6.3677e-05
-6.22661e-05
-6.09813e-05
-5.97914e-05
-5.86876e-05
-5.76774e-05
-5.67694e-05
-5.5923e-05
-5.51279e-05
-5.43854e-05
-5.37091e-05
-5.30627e-05
-5.24519e-05
-5.18563e-05
-5.12964e-05
-5.07279e-05
-5.0156e-05
-4.95491e-05
-4.89236e-05
-4.82608e-05
-4.75765e-05
-4.68289e-05
-4.60165e-05
-4.50863e-05
-4.40659e-05
-4.29319e-05
-4.17107e-05
-4.03537e-05
-3.88593e-05
-3.71595e-05
-3.52986e-05
-3.31999e-05
-3.09576e-05
-2.84406e-05
-2.57512e-05
-2.27099e-05
-1.94496e-05
-1.57631e-05
-1.18509e-05
-7.44863e-06
-2.83953e-06
0.000722773
0.000676227
0.000604227
0.000505105
0.000382791
0.000247643
0.000113423
-7.34531e-06
-0.0001067
-0.000181832
-0.00023382
-0.000266025
-0.000282797
-0.000288665
-0.000287762
-0.000283338
-0.000277505
-0.00027133
-0.00026514
-0.000258877
-0.00025237
-0.000245494
-0.000238212
-0.000230574
-0.000222673
-0.000214624
-0.000206532
-0.000198482
-0.000190538
-0.000182752
-0.000175163
-0.000167803
-0.000160693
-0.000153845
-0.000147273
-0.000140984
-0.000134977
-0.000129247
-0.000123792
-0.000118608
-0.000113684
-0.000109011
-0.000104583
-0.000100397
-9.6441e-05
-9.27033e-05
-8.91748e-05
-8.586e-05
-8.27451e-05
-7.98189e-05
-7.70718e-05
-7.45015e-05
-7.21031e-05
-6.98725e-05
-6.77857e-05
-6.58406e-05
-6.40443e-05
-6.23898e-05
-6.08509e-05
-5.94222e-05
-5.81038e-05
-5.69105e-05
-5.58073e-05
-5.4771e-05
-5.38196e-05
-5.29845e-05
-5.22058e-05
-5.14535e-05
-5.07555e-05
-5.0139e-05
-4.95429e-05
-4.8965e-05
-4.84079e-05
-4.78948e-05
-4.73704e-05
-4.68371e-05
-4.62733e-05
-4.56926e-05
-4.5077e-05
-4.44398e-05
-4.37461e-05
-4.29912e-05
-4.21272e-05
-4.11755e-05
-4.01166e-05
-3.89749e-05
-3.77083e-05
-3.63147e-05
-3.4726e-05
-3.2987e-05
-3.1018e-05
-2.89156e-05
-2.65549e-05
-2.40291e-05
-2.11831e-05
-1.81144e-05
-1.46679e-05
-1.09833e-05
-6.87512e-06
-2.54821e-06
0.000613125
0.000572882
0.000514281
0.00043634
0.000341417
0.000235499
0.000127418
2.63763e-05
-6.0522e-05
-0.00012955
-0.000180217
-0.000214331
-0.00023493
-0.00024543
-0.000249073
-0.000248565
-0.000245853
-0.000242098
-0.000237826
-0.000233169
-0.000228088
-0.00022253
-0.000216486
-0.000210009
-0.000203198
-0.00019617
-0.000189035
-0.000181884
-0.000174786
-0.000167796
-0.000160957
-0.000154303
-0.000147854
-0.000141625
-0.000135633
-0.000129885
-0.000124385
-0.000119129
-0.000114119
-0.000109354
-0.000104824
-0.00010052
-9.64402e-05
-9.25816e-05
-8.89353e-05
-8.54877e-05
-8.223e-05
-7.91719e-05
-7.62976e-05
-7.3594e-05
-7.10558e-05
-6.86818e-05
-6.6466e-05
-6.44068e-05
-6.24753e-05
-6.06729e-05
-5.90148e-05
-5.74878e-05
-5.60596e-05
-5.47336e-05
-5.35134e-05
-5.24131e-05
-5.1395e-05
-5.04257e-05
-4.95356e-05
-4.87731e-05
-4.80585e-05
-4.73446e-05
-4.66894e-05
-4.61319e-05
-4.55849e-05
-4.50362e-05
-4.4514e-05
-4.40419e-05
-4.35565e-05
-4.30586e-05
-4.25378e-05
-4.20019e-05
-4.14299e-05
-4.08351e-05
-4.01911e-05
-3.94938e-05
-3.86992e-05
-3.78216e-05
-3.68409e-05
-3.57816e-05
-3.46092e-05
-3.33237e-05
-3.18591e-05
-3.02552e-05
-2.84365e-05
-2.64884e-05
-2.43093e-05
-2.19668e-05
-1.93486e-05
-1.65057e-05
-1.33401e-05
-9.93464e-06
-6.1738e-06
-2.19965e-06
0.000517359
0.000483
0.000435204
0.000373421
0.000299209
0.000216252
0.000130214
4.74612e-05
-2.64261e-05
-8.77772e-05
-0.000135199
-0.000169253
-0.000191795
-0.000205267
-0.000212161
-0.00021467
-0.000214499
-0.000212789
-0.000210177
-0.000206935
-0.000203138
-0.000198795
-0.000193921
-0.000188569
-0.00018283
-0.000176816
-0.000170638
-0.000164389
-0.000158142
-0.000151958
-0.000145882
-0.000139951
-0.000134184
-0.000128597
-0.000123209
-0.00011803
-0.000113065
-0.000108311
-0.000103773
-9.94522e-05
-9.53417e-05
-9.14326e-05
-8.77246e-05
-8.42169e-05
-8.09002e-05
-7.77621e-05
-7.47947e-05
-7.20114e-05
-6.93953e-05
-6.693e-05
-6.46146e-05
-6.24505e-05
-6.04312e-05
-5.8555e-05
-5.67898e-05
-5.51395e-05
-5.36291e-05
-5.22398e-05
-5.09309e-05
-4.9712e-05
-4.85966e-05
-4.75963e-05
-4.66679e-05
-4.57702e-05
-4.4948e-05
-4.42602e-05
-4.36107e-05
-4.29386e-05
-4.23307e-05
-4.18329e-05
-4.13351e-05
-4.0817e-05
-4.03325e-05
-3.99034e-05
-3.94578e-05
-3.89937e-05
-3.85143e-05
-3.80245e-05
-3.75016e-05
-3.69533e-05
-3.63598e-05
-3.57167e-05
-3.49916e-05
-3.41927e-05
-3.33001e-05
-3.23309e-05
-3.12579e-05
-3.00816e-05
-2.87483e-05
-2.72871e-05
-2.56379e-05
-2.38577e-05
-2.18793e-05
-1.9735e-05
-1.73605e-05
-1.4769e-05
-1.19091e-05
-8.82266e-06
-5.45291e-06
-1.89836e-06
0.000428675
0.000400021
0.000361608
0.000313144
0.000255695
0.00019162
0.000124516
5.86057e-05
-2.08432e-06
-5.44796e-05
-9.68984e-05
-0.00012908
-0.000151894
-0.000166892
-0.000175874
-0.000180552
-0.000182352
-0.000182318
-0.000181117
-0.000179113
-0.000176468
-0.000173245
-0.00016948
-0.000165225
-0.000160555
-0.000155571
-0.000150379
-0.000145068
-0.000139714
-0.00013438
-0.000129115
-0.000123957
-0.000118926
-0.000114036
-0.000109309
-0.000104756
-0.000100381
-9.61855e-05
-9.21726e-05
-8.83493e-05
-8.47072e-05
-8.12391e-05
-7.79484e-05
-7.48352e-05
-7.18898e-05
-6.91002e-05
-6.64596e-05
-6.39838e-05
-6.16583e-05
-5.94642e-05
-5.7401e-05
-5.54719e-05
-5.36734e-05
-5.20042e-05
-5.04301e-05
-4.8953e-05
-4.76057e-05
-4.63702e-05
-4.52014e-05
-4.41069e-05
-4.31082e-05
-4.22184e-05
-4.13921e-05
-4.05797e-05
-3.98358e-05
-3.92292e-05
-3.86535e-05
-3.80352e-05
-3.74821e-05
-3.70465e-05
-3.66033e-05
-3.61253e-05
-3.56863e-05
-3.53044e-05
-3.49026e-05
-3.44779e-05
-3.40464e-05
-3.36087e-05
-3.31408e-05
-3.2645e-05
-3.21093e-05
-3.15288e-05
-3.08814e-05
-3.017e-05
-2.93757e-05
-2.85084e-05
-2.75487e-05
-2.64954e-05
-2.53099e-05
-2.4008e-05
-2.25481e-05
-2.09592e-05
-1.92049e-05
-1.72904e-05
-1.5186e-05
-1.28848e-05
-1.03636e-05
-7.64346e-06
-4.70723e-06
-1.61517e-06
0.000345744
0.000322599
0.000292473
0.000255228
0.000211602
0.000163133
0.000112075
6.11555e-05
1.31239e-05
-2.96979e-05
-6.57562e-05
-9.44085e-05
-0.000115852
-0.000130917
-0.000140779
-0.000146691
-0.000149786
-0.000150961
-0.00015085
-0.000149851
-0.000148177
-0.000145933
-0.000143171
-0.000139938
-0.000136298
-0.000132332
-0.000128133
-0.000123783
-0.000119354
-0.00011491
-0.000110503
-0.000106168
-0.000101925
-9.77903e-05
-9.37838e-05
-8.99166e-05
-8.61918e-05
-8.2611e-05
-7.91816e-05
-7.59121e-05
-7.27937e-05
-6.98193e-05
-6.69951e-05
-6.43226e-05
-6.17931e-05
-5.93962e-05
-5.71257e-05
-5.49953e-05
-5.29938e-05
-5.1105e-05
-4.9329e-05
-4.76668e-05
-4.61165e-05
-4.46782e-05
-4.33213e-05
-4.20444e-05
-4.08816e-05
-3.98163e-05
-3.88073e-05
-3.78601e-05
-3.69947e-05
-3.62242e-05
-3.55128e-05
-3.48073e-05
-3.4157e-05
-3.36347e-05
-3.31395e-05
-3.25927e-05
-3.21069e-05
-3.17382e-05
-3.13557e-05
-3.09283e-05
-3.05424e-05
-3.02145e-05
-2.98656e-05
-2.949e-05
-2.91132e-05
-2.87332e-05
-2.83271e-05
-2.78942e-05
-2.74284e-05
-2.6922e-05
-2.63611e-05
-2.57466e-05
-2.50618e-05
-2.43121e-05
-2.34835e-05
-2.25719e-05
-2.15512e-05
-2.04281e-05
-1.91768e-05
-1.7807e-05
-1.6302e-05
-1.46526e-05
-1.28468e-05
-1.08747e-05
-8.72514e-06
-6.41328e-06
-3.94135e-06
-1.34238e-06
0.000267189
0.000249349
0.000226654
0.000199055
0.000167052
0.000131633
9.41914e-05
5.64429e-05
2.01848e-05
-1.2958e-05
-4.17547e-05
-6.5505e-05
-8.40615e-05
-9.77593e-05
-0.000107272
-0.000113436
-0.000117084
-0.000118932
-0.000119528
-0.000119251
-0.00011833
-0.000116889
-0.000114988
-0.000112671
-0.000109987
-0.000107
-0.000103781
-0.000100399
-9.69178e-05
-9.33994e-05
-8.98934e-05
-8.64314e-05
-8.30298e-05
-7.97047e-05
-7.64777e-05
-7.33576e-05
-7.03453e-05
-6.74431e-05
-6.46589e-05
-6.20012e-05
-5.94633e-05
-5.704e-05
-5.47389e-05
-5.25602e-05
-5.0494e-05
-4.85351e-05
-4.66811e-05
-4.49406e-05
-4.33038e-05
-4.17568e-05
-4.03031e-05
-3.89442e-05
-3.76749e-05
-3.64946e-05
-3.53822e-05
-3.43358e-05
-3.33833e-05
-3.25081e-05
-3.1677e-05
-3.09013e-05
-3.01943e-05
-2.95558e-05
-2.89662e-05
-2.83899e-05
-2.78567e-05
-2.7424e-05
-2.70142e-05
-2.65592e-05
-2.61571e-05
-2.58579e-05
-2.55423e-05
-2.51806e-05
-2.48601e-05
-2.45929e-05
-2.43043e-05
-2.39877e-05
-2.3675e-05
-2.33628e-05
-2.30281e-05
-2.26687e-05
-2.2283e-05
-2.18637e-05
-2.14019e-05
-2.08981e-05
-2.03368e-05
-1.97203e-05
-1.90399e-05
-1.829e-05
-1.74549e-05
-1.65347e-05
-1.55145e-05
-1.43928e-05
-1.31639e-05
-1.18154e-05
-1.0341e-05
-8.73769e-06
-6.99616e-06
-5.13059e-06
-3.14976e-06
-1.07102e-06
0.000191396
0.000178679
0.000162775
0.000143678
0.000121708
9.74694e-05
7.17937e-05
4.5712e-05
2.03356e-05
-3.28541e-06
-2.42918e-05
-4.21102e-05
-5.64924e-05
-6.75065e-05
-7.54808e-05
-8.09095e-05
-8.4342e-05
-8.62903e-05
-8.7176e-05
-8.73127e-05
-8.69067e-05
-8.60759e-05
-8.48785e-05
-8.33506e-05
-8.15293e-05
-7.94588e-05
-7.71895e-05
-7.47716e-05
-7.2256e-05
-6.96936e-05
-6.71277e-05
-6.45869e-05
-6.2082e-05
-5.96243e-05
-5.72368e-05
-5.49261e-05
-5.26884e-05
-5.05292e-05
-4.84567e-05
-4.64748e-05
-4.45792e-05
-4.27671e-05
-4.10465e-05
-3.94176e-05
-3.78694e-05
-3.64007e-05
-3.50124e-05
-3.37078e-05
-3.24796e-05
-3.1317e-05
-3.02248e-05
-2.92072e-05
-2.82552e-05
-2.73641e-05
-2.65267e-05
-2.57432e-05
-2.50293e-05
-2.43676e-05
-2.37352e-05
-2.31537e-05
-2.26328e-05
-2.21477e-05
-2.16884e-05
-2.12569e-05
-2.08662e-05
-2.05375e-05
-2.02195e-05
-1.98735e-05
-1.95722e-05
-1.93485e-05
-1.91085e-05
-1.88293e-05
-1.85856e-05
-1.83854e-05
-1.81667e-05
-1.79233e-05
-1.76853e-05
-1.74501e-05
-1.71965e-05
-1.69225e-05
-1.66302e-05
-1.63128e-05
-1.59639e-05
-1.55843e-05
-1.51614e-05
-1.46963e-05
-1.41843e-05
-1.36192e-05
-1.29919e-05
-1.23e-05
-1.15348e-05
-1.06922e-05
-9.77024e-06
-8.75969e-06
-7.65496e-06
-6.45821e-06
-5.16276e-06
-3.7783e-06
-2.31745e-06
-7.91287e-07
0.000116352
0.000108659
9.91513e-05
8.78326e-05
7.48838e-05
6.06324e-05
4.55218e-05
3.00974e-05
1.49627e-05
7.04175e-07
-1.21753e-05
-2.33096e-05
-3.24982e-05
-3.97132e-05
-4.50854e-05
-4.88608e-05
-5.13421e-05
-5.28328e-05
-5.35976e-05
-5.38464e-05
-5.37255e-05
-5.33209e-05
-5.26761e-05
-5.18157e-05
-5.07631e-05
-4.95454e-05
-4.81914e-05
-4.6731e-05
-4.51979e-05
-4.36257e-05
-4.20432e-05
-4.04734e-05
-3.89227e-05
-3.73948e-05
-3.591e-05
-3.44741e-05
-3.30783e-05
-3.1729e-05
-3.04347e-05
-2.9195e-05
-2.80078e-05
-2.68725e-05
-2.57945e-05
-2.47732e-05
-2.38e-05
-2.28772e-05
-2.20076e-05
-2.11889e-05
-2.04158e-05
-1.96829e-05
-1.89954e-05
-1.83593e-05
-1.77631e-05
-1.71974e-05
-1.66665e-05
-1.61764e-05
-1.57317e-05
-1.53148e-05
-1.49094e-05
-1.45411e-05
-1.42216e-05
-1.39168e-05
-1.36162e-05
-1.33449e-05
-1.31082e-05
-1.28986e-05
-1.26891e-05
-1.24703e-05
-1.22852e-05
-1.21453e-05
-1.19905e-05
-1.18097e-05
-1.16557e-05
-1.1531e-05
-1.13932e-05
-1.12368e-05
-1.10844e-05
-1.0936e-05
-1.07757e-05
-1.06021e-05
-1.04167e-05
-1.02158e-05
-9.99433e-06
-9.7549e-06
-9.48804e-06
-9.19423e-06
-8.87151e-06
-8.51432e-06
-8.11908e-06
-7.68295e-06
-7.20215e-06
-6.6721e-06
-6.09234e-06
-5.45769e-06
-4.76324e-06
-4.01393e-06
-3.20481e-06
-2.34164e-06
-1.43248e-06
-4.81032e-07
3.9366e-05
3.67706e-05
3.35811e-05
2.98031e-05
2.5496e-05
2.07643e-05
1.57475e-05
1.06138e-05
5.55309e-06
7.54084e-07
-3.61684e-06
-7.43342e-06
-1.06198e-05
-1.31549e-05
-1.50708e-05
-1.64399e-05
-1.73573e-05
-1.79232e-05
-1.82277e-05
-1.83452e-05
-1.83297e-05
-1.82132e-05
-1.80121e-05
-1.77351e-05
-1.73907e-05
-1.6988e-05
-1.65363e-05
-1.60448e-05
-1.5526e-05
-1.49921e-05
-1.44532e-05
-1.39182e-05
-1.33891e-05
-1.28655e-05
-1.23563e-05
-1.18652e-05
-1.1387e-05
-1.09242e-05
-1.04803e-05
-1.00541e-05
-9.645e-06
-9.25452e-06
-8.88471e-06
-8.53434e-06
-8.19885e-06
-7.87973e-06
-7.58044e-06
-7.29944e-06
-7.03402e-06
-6.78123e-06
-6.54315e-06
-6.32369e-06
-6.11909e-06
-5.92443e-06
-5.74141e-06
-5.57292e-06
-5.41902e-06
-5.27441e-06
-5.13371e-06
-5.00776e-06
-4.90067e-06
-4.79503e-06
-4.68657e-06
-4.59211e-06
-4.51458e-06
-4.4436e-06
-4.3693e-06
-4.29213e-06
-4.22829e-06
-4.18025e-06
-4.12743e-06
-4.06493e-06
-4.01161e-06
-3.96825e-06
-3.91994e-06
-3.86595e-06
-3.81296e-06
-3.76251e-06
-3.70641e-06
-3.64577e-06
-3.58153e-06
-3.51221e-06
-3.43647e-06
-3.35323e-06
-3.26145e-06
-3.1592e-06
-3.04822e-06
-2.92524e-06
-2.78884e-06
-2.63882e-06
-2.4718e-06
-2.28905e-06
-2.08845e-06
-1.87001e-06
-1.6316e-06
-1.3737e-06
-1.09697e-06
-8.00783e-07
-4.89903e-07
-1.64905e-07
6.86141e-05
5.83447e-05
6.46988e-05
7.20505e-05
8.77635e-05
9.9564e-05
0.000119361
0.000135889
0.000162018
0.000185216
0.000218935
0.000249942
0.000293725
0.000335165
0.000391971
0.000447131
0.000521536
0.00059624
0.000696972
0.000803456
0.00095015
0.00111801
0.00135824
0.00165101
0.00204512
6.78664e-05
5.83897e-05
6.45765e-05
7.19992e-05
8.73251e-05
9.93033e-05
0.000118638
0.000135318
0.00016086
0.000184327
0.000217325
0.000249058
0.000291447
0.000334032
0.000388559
0.000445496
0.000516311
0.000593626
0.000688732
0.000798597
0.00093517
0.00110334
0.00131188
0.00156201
0.00179194
6.65896e-05
5.86561e-05
6.41799e-05
7.19202e-05
8.62672e-05
9.89446e-05
0.000117174
0.000134763
0.000158778
0.000183299
0.000214601
0.000247591
0.000287863
0.000331754
0.000383628
0.000441825
0.000509254
0.00058741
0.000677663
0.000786389
0.000912938
0.00106828
0.00123966
0.00142273
0.00155155
6.49731e-05
5.88612e-05
6.36173e-05
7.15519e-05
8.48256e-05
9.80953e-05
0.000115329
0.000133543
0.000156291
0.000181402
0.000211307
0.000244832
0.000283516
0.000327609
0.000377612
0.000435351
0.000500427
0.000576664
0.000663034
0.000765515
0.000881211
0.00101386
0.00114951
0.00127452
0.00134877
6.29066e-05
5.88921e-05
6.2893e-05
7.08129e-05
8.30167e-05
9.66115e-05
0.000113033
0.000131503
0.0001533
0.000178405
0.000207271
0.00024051
0.000278049
0.000321313
0.000369851
0.000425828
0.000488641
0.000561163
0.000642706
0.000735822
0.000837719
0.000945696
0.00104888
0.00113239
0.0011751
6.03515e-05
5.8395e-05
6.19696e-05
6.9621e-05
8.08412e-05
9.43559e-05
0.000110157
0.00012848
0.000149561
0.000174146
0.000202132
0.000234475
0.000270912
0.000312689
0.000359567
0.000412986
0.00047281
0.000540374
0.000615212
0.000697123
0.000783146
0.000868455
0.000944429
0.00099927
0.00102
5.74137e-05
5.71851e-05
6.06846e-05
6.78679e-05
7.82226e-05
9.12528e-05
0.000106506
0.000124334
0.000144748
0.000168461
0.000195481
0.000226522
0.000261587
0.000301404
0.000346076
0.000396266
0.000452029
0.000513514
0.000579963
0.000649807
0.000719923
0.000785428
0.000839503
0.000873788
0.000879255
5.41627e-05
5.50988e-05
5.8723e-05
6.54168e-05
7.49882e-05
8.72615e-05
0.000101852
0.000118918
0.000138521
0.000161117
0.000186906
0.00021632
0.000249557
0.000286962
0.000328717
0.00037497
0.00042559
0.000480038
0.000537166
0.000594943
0.000650329
0.000699083
0.000735981
0.000755351
0.000751126
5.07079e-05
5.22371e-05
5.59866e-05
6.22586e-05
7.11106e-05
8.25131e-05
9.6259e-05
0.000112372
0.000130946
0.000152245
0.000176525
0.000204058
0.000235058
0.000269667
0.000307943
0.000349738
0.000394647
0.000441815
0.000489886
0.000536812
0.000579857
0.000615563
0.000640128
0.000649678
0.00064037
4.69255e-05
4.86862e-05
5.24458e-05
5.83355e-05
6.64861e-05
7.69515e-05
8.96757e-05
0.000104649
0.000121954
0.00014175
0.000164246
0.000189622
0.000218017
0.000249446
0.000283807
0.000320766
0.000359725
0.000399705
0.000439319
0.000476692
0.000509508
0.000535099
0.000550832
0.000554071
0.000542394
4.24809e-05
4.42562e-05
4.78646e-05
5.33176e-05
6.07127e-05
7.01329e-05
8.16188e-05
9.51859e-05
0.000110899
0.000128852
0.000149176
0.00017197
0.000197275
0.000225004
0.000254928
0.000286604
0.000319347
0.000352171
0.00038379
0.000412604
0.000436777
0.000454436
0.000463772
0.000463045
0.000450753
3.72048e-05
3.88553e-05
4.21463e-05
4.70339e-05
5.35616e-05
6.18023e-05
7.18316e-05
8.36998e-05
9.74625e-05
0.000113173
0.000130889
0.000150634
0.000172362
0.00019591
0.000220979
0.000247089
0.000273558
0.000299484
0.000323765
0.000345129
0.000362261
0.000373903
0.000378836
0.000375948
0.000364345
3.09429e-05
3.23678e-05
3.51842e-05
3.93329e-05
4.4821e-05
5.16969e-05
6.00307e-05
6.98854e-05
8.1312e-05
9.43376e-05
0.00010897
0.000125177
0.000142854
0.000161802
0.000181708
0.000202116
0.00022242
0.00024186
0.000259568
0.000274639
0.00028622
0.000293474
0.000295611
0.000291948
0.000281983
2.3568e-05
2.46806e-05
2.68711e-05
3.00854e-05
3.43144e-05
3.95838e-05
4.59424e-05
5.34426e-05
6.21254e-05
7.20027e-05
8.30573e-05
9.52312e-05
0.000108406
0.000122389
0.000136904
0.000151572
0.000165912
0.000179347
0.000191284
0.000201175
0.000208477
0.000212661
0.000213248
0.000209844
0.000202186
1.49938e-05
1.57122e-05
1.71274e-05
1.92012e-05
2.19214e-05
2.52989e-05
2.93594e-05
3.41344e-05
3.96491e-05
4.59069e-05
5.28872e-05
6.05396e-05
6.87711e-05
7.74393e-05
8.63506e-05
9.52512e-05
0.000103826
0.000111718
0.000118616
0.000124213
0.000128206
0.000130303
0.00013025
0.000127851
0.000122983
5.20041e-06
5.44916e-06
5.94463e-06
6.67189e-06
7.62493e-06
8.80586e-06
1.02218e-05
1.18826e-05
1.37963e-05
1.5963e-05
1.83741e-05
2.10094e-05
2.38331e-05
2.67917e-05
2.98144e-05
3.28116e-05
3.5676e-05
3.82934e-05
4.05599e-05
4.23755e-05
4.3642e-05
4.42671e-05
4.41721e-05
4.32988e-05
4.16164e-05
)
;

boundaryField
{
    top
    {
        type            fixedValue;
        value           uniform 0;
    }
    inlet
    {
        type            zeroGradient;
    }
    outlet
    {
        type            fixedValue;
        value           uniform 0;
    }
    plate
    {
        type            zeroGradient;
    }
    symmBound
    {
        type            zeroGradient;
    }
    frontAndBack
    {
        type            empty;
    }
}


// ************************************************************************* //
