/*--------------------------------*- C++ -*----------------------------------*\
| =========                 |                                                 |
| \\      /  F ield         | OpenFOAM: The Open Source CFD Toolbox           |
|  \\    /   O peration     | Version:  2.3.0                                 |
|   \\  /    A nd           | Web:      www.OpenFOAM.org                      |
|    \\/     M anipulation  |                                                 |
\*---------------------------------------------------------------------------*/
FoamFile
{
    version     2.0;
    format      ascii;
    class       volVectorField;
    location    "0.4";
    object      U;
}
// * * * * * * * * * * * * * * * * * * * * * * * * * * * * * * * * * * * * * //

dimensions      [0 1 -1 0 0 0 0];

internalField   nonuniform List<vector> 
2889
(
(0.17358 0.00566371 0)
(0.156968 0.00590232 0)
(0.141238 0.0055767 0)
(0.126272 0.00501853 0)
(0.112443 0.00437975 0)
(0.0999739 0.00372341 0)
(0.0889049 0.00308784 0)
(0.0792083 0.00249987 0)
(0.0708309 0.0019764 0)
(0.063693 0.0015264 0)
(0.0576865 0.00115249 0)
(0.0526832 0.000852075 0)
(0.048545 0.00061851 0)
(0.0451342 0.000442616 0)
(0.042321 0.000314188 0)
(0.0399889 0.000223225 0)
(0.0380373 0.000160725 0)
(0.0363833 0.00011908 0)
(0.0349601 9.21685e-05 0)
(0.0337157 7.52759e-05 0)
(0.0326107 6.49123e-05 0)
(0.0316157 5.86011e-05 0)
(0.0307091 5.46613e-05 0)
(0.029875 5.20073e-05 0)
(0.029102 4.9978e-05 0)
(0.0283813 4.81994e-05 0)
(0.0277067 4.64813e-05 0)
(0.027073 4.47443e-05 0)
(0.0264763 4.297e-05 0)
(0.0259131 4.11696e-05 0)
(0.0253807 3.93662e-05 0)
(0.0248767 3.75837e-05 0)
(0.0243987 3.5843e-05 0)
(0.0239448 3.41594e-05 0)
(0.0235133 3.25432e-05 0)
(0.0231026 3.10005e-05 0)
(0.0227111 2.95335e-05 0)
(0.0223377 2.81422e-05 0)
(0.0219811 2.68246e-05 0)
(0.0216403 2.55777e-05 0)
(0.0213143 2.43981e-05 0)
(0.0210021 2.32817e-05 0)
(0.020703 2.22245e-05 0)
(0.0204163 2.12227e-05 0)
(0.0201413 2.02724e-05 0)
(0.0198773 1.93701e-05 0)
(0.0196239 1.85124e-05 0)
(0.0193805 1.76962e-05 0)
(0.0191466 1.69186e-05 0)
(0.0189219 1.61768e-05 0)
(0.0187059 1.54684e-05 0)
(0.0184983 1.47911e-05 0)
(0.0182988 1.41427e-05 0)
(0.018107 1.35212e-05 0)
(0.0179228 1.29248e-05 0)
(0.0177457 1.23517e-05 0)
(0.0175757 1.18004e-05 0)
(0.0174125 1.12694e-05 0)
(0.0172559 1.07574e-05 0)
(0.0171057 1.0263e-05 0)
(0.0169618 9.78502e-06 0)
(0.0168241 9.32239e-06 0)
(0.0166924 8.87404e-06 0)
(0.0165666 8.43893e-06 0)
(0.0164466 8.01613e-06 0)
(0.0163323 7.60476e-06 0)
(0.0162237 7.20407e-06 0)
(0.0161207 6.81347e-06 0)
(0.0160232 6.43264e-06 0)
(0.0159312 6.06157e-06 0)
(0.0158447 5.70055e-06 0)
(0.0157635 5.35011e-06 0)
(0.0156877 5.01066e-06 0)
(0.0156172 4.68195e-06 0)
(0.015552 4.36223e-06 0)
(0.0154921 4.04701e-06 0)
(0.0154376 3.72782e-06 0)
(0.0153886 3.39084e-06 0)
(0.0153453 3.01608e-06 0)
(0.015308 2.57776e-06 0)
(0.0152774 2.05034e-06 0)
(0.0152538 1.43313e-06 0)
(0.015238 7.99949e-07 0)
(0.0152307 2.85025e-07 0)
(0.0152316 -2.80368e-07 0)
(0.0152384 -7.42627e-07 0)
(0.0152497 -1.13356e-06 0)
(0.0152644 -1.42709e-06 0)
(0.0152814 -1.61521e-06 0)
(0.0152997 -1.69674e-06 0)
(0.0153185 -1.70128e-06 0)
(0.0153372 -1.65385e-06 0)
(0.0153551 -1.55639e-06 0)
(0.0153718 -1.42173e-06 0)
(0.015387 -1.26592e-06 0)
(0.0154005 -1.09605e-06 0)
(0.0154121 -9.0916e-07 0)
(0.0154216 -6.90684e-07 0)
(0.0154287 -3.91846e-07 0)
(0.0154306 1.16849e-07 0)
(0.192748 0.00906148 0)
(0.190453 0.00979683 0)
(0.186694 0.00969066 0)
(0.181684 0.0092354 0)
(0.175874 0.00862638 0)
(0.16963 0.00792439 0)
(0.163187 0.00716713 0)
(0.156716 0.0063892 0)
(0.150349 0.00562037 0)
(0.144188 0.00488506 0)
(0.138305 0.00420249 0)
(0.132741 0.00358624 0)
(0.127518 0.00304393 0)
(0.122643 0.00257762 0)
(0.118109 0.00218468 0)
(0.113903 0.00185908 0)
(0.110005 0.00159273 0)
(0.106395 0.00137667 0)
(0.103048 0.00120204 0)
(0.0999437 0.00106073 0)
(0.0970586 0.000945695 0)
(0.0943726 0.000851134 0)
(0.0918667 0.000772408 0)
(0.0895239 0.000705929 0)
(0.0873286 0.000648974 0)
(0.0852671 0.000599511 0)
(0.0833272 0.000556033 0)
(0.0814981 0.000517424 0)
(0.0797702 0.000482852 0)
(0.0781349 0.000451685 0)
(0.0765847 0.000423434 0)
(0.0751128 0.000397712 0)
(0.0737132 0.000374204 0)
(0.0723807 0.00035265 0)
(0.0711104 0.000332827 0)
(0.0698979 0.000314547 0)
(0.0687394 0.000297645 0)
(0.0676314 0.000281976 0)
(0.0665707 0.000267416 0)
(0.0655544 0.000253852 0)
(0.06458 0.000241188 0)
(0.0636451 0.000229337 0)
(0.0627475 0.000218223 0)
(0.0618852 0.000207778 0)
(0.0610565 0.000197941 0)
(0.0602598 0.00018866 0)
(0.0594934 0.000179886 0)
(0.058756 0.000171576 0)
(0.0580465 0.000163692 0)
(0.0573635 0.000156198 0)
(0.0567061 0.000149063 0)
(0.0560733 0.000142258 0)
(0.0554642 0.000135757 0)
(0.054878 0.000129536 0)
(0.054314 0.000123574 0)
(0.0537714 0.00011785 0)
(0.0532496 0.000112345 0)
(0.0527482 0.000107043 0)
(0.0522665 0.000101928 0)
(0.0518042 9.69847e-05 0)
(0.0513609 9.22005e-05 0)
(0.0509361 8.75625e-05 0)
(0.0505296 8.3059e-05 0)
(0.050141 7.86793e-05 0)
(0.0497703 7.44133e-05 0)
(0.0494171 7.0252e-05 0)
(0.0490812 6.61871e-05 0)
(0.0487627 6.22114e-05 0)
(0.0484612 5.8319e-05 0)
(0.0481768 5.45047e-05 0)
(0.0479094 5.07645e-05 0)
(0.047659 4.70944e-05 0)
(0.0474254 4.34891e-05 0)
(0.0472089 3.99404e-05 0)
(0.0470093 3.64346e-05 0)
(0.0468269 3.29497e-05 0)
(0.0466618 2.94539e-05 0)
(0.0465145 2.59041e-05 0)
(0.0463853 2.22482e-05 0)
(0.0462747 1.84296e-05 0)
(0.0461834 1.43981e-05 0)
(0.0461119 1.01385e-05 0)
(0.0460603 5.72539e-06 0)
(0.0460284 1.37361e-06 0)
(0.0460169 -2.54468e-06 0)
(0.0460231 -5.34924e-06 0)
(0.0460416 -7.17e-06 0)
(0.0460688 -8.37286e-06 0)
(0.0461019 -9.1114e-06 0)
(0.0461385 -9.4087e-06 0)
(0.0461768 -9.34863e-06 0)
(0.0462151 -9.01775e-06 0)
(0.0462521 -8.44545e-06 0)
(0.046287 -7.69503e-06 0)
(0.0463189 -6.83586e-06 0)
(0.0463473 -5.90259e-06 0)
(0.0463718 -4.8857e-06 0)
(0.0463919 -3.72324e-06 0)
(0.0464068 -2.23699e-06 0)
(0.0464123 3.18623e-08 0)
(0.195708 0.00869807 0)
(0.19651 0.00980587 0)
(0.196758 0.0102424 0)
(0.196237 0.0102954 0)
(0.19502 0.0101069 0)
(0.193227 0.00972754 0)
(0.190954 0.00919957 0)
(0.188288 0.00857067 0)
(0.185318 0.00788597 0)
(0.182131 0.00718419 0)
(0.178802 0.00649659 0)
(0.175396 0.00584655 0)
(0.171964 0.00524944 0)
(0.168547 0.00471321 0)
(0.165175 0.00423978 0)
(0.161868 0.00382663 0)
(0.158641 0.00346844 0)
(0.155502 0.00315854 0)
(0.152457 0.00288996 0)
(0.149507 0.00265612 0)
(0.146652 0.00245122 0)
(0.143892 0.00227036 0)
(0.141223 0.0021095 0)
(0.138646 0.00196544 0)
(0.136155 0.0018356 0)
(0.13375 0.00171794 0)
(0.131428 0.00161083 0)
(0.129185 0.00151296 0)
(0.12702 0.00142324 0)
(0.124929 0.00134077 0)
(0.122909 0.00126478 0)
(0.120959 0.00119461 0)
(0.119076 0.00112969 0)
(0.117257 0.0010695 0)
(0.1155 0.00101359 0)
(0.113803 0.00096157 0)
(0.112163 0.000913074 0)
(0.110577 0.000867782 0)
(0.109045 0.000825407 0)
(0.107564 0.000785688 0)
(0.106132 0.000748393 0)
(0.104747 0.000713314 0)
(0.103408 0.000680262 0)
(0.102112 0.000649066 0)
(0.100859 0.000619572 0)
(0.0996468 0.000591642 0)
(0.0984741 0.000565149 0)
(0.0973396 0.000539979 0)
(0.0962421 0.000516027 0)
(0.0951806 0.000493197 0)
(0.0941539 0.000471402 0)
(0.0931611 0.000450562 0)
(0.0922013 0.000430603 0)
(0.0912737 0.000411458 0)
(0.0903774 0.000393064 0)
(0.0895119 0.000375363 0)
(0.0886765 0.000358301 0)
(0.0878705 0.000341829 0)
(0.0870935 0.0003259 0)
(0.086345 0.000310472 0)
(0.0856247 0.000295504 0)
(0.0849321 0.00028096 0)
(0.084267 0.000266804 0)
(0.0836292 0.000253004 0)
(0.0830184 0.000239531 0)
(0.0824344 0.000226356 0)
(0.0818773 0.000213455 0)
(0.0813468 0.000200806 0)
(0.080843 0.000188388 0)
(0.0803659 0.000176184 0)
(0.0799155 0.000164177 0)
(0.079492 0.00015235 0)
(0.0790953 0.000140684 0)
(0.0787257 0.000129154 0)
(0.0783834 0.000117725 0)
(0.0780687 0.000106351 0)
(0.0777819 9.49751e-05 0)
(0.0775234 8.35305e-05 0)
(0.0772936 7.19555e-05 0)
(0.0770929 6.02102e-05 0)
(0.0769215 4.83033e-05 0)
(0.0767791 3.63185e-05 0)
(0.076665 2.44217e-05 0)
(0.0765773 1.28281e-05 0)
(0.0765127 2.03349e-06 0)
(0.0764731 -7.14563e-06 0)
(0.0764593 -1.38319e-05 0)
(0.0764637 -1.80328e-05 0)
(0.0764811 -2.04567e-05 0)
(0.0765076 -2.15755e-05 0)
(0.07654 -2.17538e-05 0)
(0.0765755 -2.1236e-05 0)
(0.0766122 -2.0111e-05 0)
(0.0766483 -1.85161e-05 0)
(0.0766826 -1.66025e-05 0)
(0.076714 -1.44566e-05 0)
(0.0767417 -1.20711e-05 0)
(0.0767648 -9.31605e-06 0)
(0.0767822 -5.79618e-06 0)
(0.0767888 -5.34848e-07 0)
(0.196734 0.00806161 0)
(0.197889 0.00920696 0)
(0.198991 0.00984885 0)
(0.199804 0.010142 0)
(0.200279 0.0101909 0)
(0.200419 0.0100394 0)
(0.200223 0.00972199 0)
(0.199698 0.0092795 0)
(0.198865 0.0087531 0)
(0.197758 0.00818003 0)
(0.196417 0.00759206 0)
(0.194884 0.00701466 0)
(0.193199 0.00646638 0)
(0.191397 0.00595904 0)
(0.18951 0.0054985 0)
(0.187563 0.00508599 0)
(0.185577 0.00471947 0)
(0.183567 0.00439494 0)
(0.181545 0.00410744 0)
(0.17952 0.00385184 0)
(0.177498 0.00362329 0)
(0.175485 0.00341751 0)
(0.173483 0.00323084 0)
(0.171497 0.00306028 0)
(0.169528 0.00290342 0)
(0.167579 0.00275832 0)
(0.165651 0.00262346 0)
(0.163747 0.00249762 0)
(0.161867 0.00237983 0)
(0.160014 0.00226929 0)
(0.158188 0.00216534 0)
(0.15639 0.00206741 0)
(0.154621 0.00197504 0)
(0.152882 0.00188778 0)
(0.151174 0.00180526 0)
(0.149497 0.00172713 0)
(0.147851 0.00165309 0)
(0.146237 0.00158285 0)
(0.144655 0.00151615 0)
(0.143104 0.00145274 0)
(0.141586 0.0013924 0)
(0.1401 0.00133492 0)
(0.138646 0.00128012 0)
(0.137224 0.00122781 0)
(0.135834 0.00117783 0)
(0.134476 0.00113003 0)
(0.133149 0.00108425 0)
(0.131853 0.00104037 0)
(0.130589 0.000998262 0)
(0.129355 0.000957805 0)
(0.128152 0.00091889 0)
(0.12698 0.000881412 0)
(0.125838 0.000845273 0)
(0.124727 0.000810383 0)
(0.123645 0.000776654 0)
(0.122594 0.000744004 0)
(0.121572 0.000712355 0)
(0.12058 0.000681636 0)
(0.119618 0.000651776 0)
(0.118685 0.000622712 0)
(0.117782 0.000594379 0)
(0.116909 0.000566722 0)
(0.116065 0.000539684 0)
(0.115251 0.000513215 0)
(0.114468 0.000487265 0)
(0.113714 0.000461789 0)
(0.112991 0.000436747 0)
(0.112298 0.0004121 0)
(0.111637 0.000387813 0)
(0.111006 0.000363854 0)
(0.110407 0.000340195 0)
(0.10984 0.000316803 0)
(0.109304 0.000293646 0)
(0.108802 0.000270684 0)
(0.108332 0.000247868 0)
(0.107896 0.000225139 0)
(0.107495 0.000202433 0)
(0.107127 0.000179688 0)
(0.106795 0.000156869 0)
(0.106497 0.000133997 0)
(0.106235 0.000111186 0)
(0.106007 8.86983e-05 0)
(0.105812 6.69711e-05 0)
(0.105649 4.65629e-05 0)
(0.105514 2.78736e-05 0)
(0.105403 1.11633e-05 0)
(0.105312 -3.0755e-06 0)
(0.105248 -1.43753e-05 0)
(0.105209 -2.23513e-05 0)
(0.105188 -2.71344e-05 0)
(0.105181 -2.94998e-05 0)
(0.105184 -3.01364e-05 0)
(0.105194 -2.94537e-05 0)
(0.105209 -2.7784e-05 0)
(0.105225 -2.54112e-05 0)
(0.105242 -2.25047e-05 0)
(0.105259 -1.90776e-05 0)
(0.105273 -1.49383e-05 0)
(0.105284 -9.44551e-06 0)
(0.105284 -7.70654e-07 0)
(0.197454 0.00755432 0)
(0.198477 0.00860473 0)
(0.199589 0.00926893 0)
(0.200625 0.00963472 0)
(0.201525 0.00978231 0)
(0.202267 0.00975122 0)
(0.202829 0.00956873 0)
(0.20319 0.00926559 0)
(0.203339 0.00887458 0)
(0.203281 0.00842683 0)
(0.203028 0.00795013 0)
(0.202598 0.00746791 0)
(0.202012 0.00699843 0)
(0.201295 0.00655446 0)
(0.200468 0.00614362 0)
(0.19955 0.00576924 0)
(0.198559 0.00543142 0)
(0.197508 0.00512806 0)
(0.196409 0.00485585 0)
(0.195269 0.00461096 0)
(0.194096 0.00438952 0)
(0.192894 0.00418799 0)
(0.191668 0.00400327 0)
(0.190422 0.00383273 0)
(0.189157 0.00367425 0)
(0.187877 0.0035261 0)
(0.186583 0.00338693 0)
(0.185279 0.00325565 0)
(0.183965 0.00313138 0)
(0.182645 0.00301343 0)
(0.18132 0.00290123 0)
(0.179992 0.00279429 0)
(0.178662 0.00269219 0)
(0.177332 0.0025946 0)
(0.176004 0.00250118 0)
(0.174679 0.00241167 0)
(0.173359 0.00232581 0)
(0.172045 0.00224337 0)
(0.170738 0.00216413 0)
(0.16944 0.00208792 0)
(0.168151 0.00201454 0)
(0.166873 0.00194384 0)
(0.165606 0.00187566 0)
(0.164351 0.00180985 0)
(0.16311 0.00174629 0)
(0.161883 0.00168484 0)
(0.160671 0.00162538 0)
(0.159475 0.0015678 0)
(0.158295 0.001512 0)
(0.157132 0.00145787 0)
(0.155986 0.00140531 0)
(0.154859 0.00135423 0)
(0.153751 0.00130454 0)
(0.152662 0.00125616 0)
(0.151594 0.00120899 0)
(0.150545 0.00116297 0)
(0.149519 0.00111801 0)
(0.148513 0.00107404 0)
(0.14753 0.00103099 0)
(0.14657 0.000988784 0)
(0.145633 0.000947367 0)
(0.14472 0.00090667 0)
(0.143832 0.000866633 0)
(0.142969 0.000827197 0)
(0.142131 0.000788308 0)
(0.14132 0.000749915 0)
(0.140535 0.000711967 0)
(0.139779 0.000674422 0)
(0.13905 0.000637238 0)
(0.138351 0.000600376 0)
(0.137681 0.000563799 0)
(0.137042 0.00052747 0)
(0.136434 0.00049135 0)
(0.135857 0.000455392 0)
(0.135314 0.000419548 0)
(0.134803 0.000383761 0)
(0.134327 0.000347984 0)
(0.133886 0.000312191 0)
(0.133479 0.000276403 0)
(0.133108 0.000240734 0)
(0.132773 0.000205425 0)
(0.132472 0.000170898 0)
(0.132204 0.000137764 0)
(0.131969 0.000106781 0)
(0.131763 7.87117e-05 0)
(0.131586 5.40275e-05 0)
(0.131433 3.25675e-05 0)
(0.131299 1.42602e-05 0)
(0.131182 -4.81691e-07 0)
(0.131085 -1.18044e-05 0)
(0.13101 -1.99737e-05 0)
(0.130953 -2.50436e-05 0)
(0.13091 -2.74569e-05 0)
(0.130878 -2.78298e-05 0)
(0.130855 -2.668e-05 0)
(0.130837 -2.43674e-05 0)
(0.130824 -2.10393e-05 0)
(0.130814 -1.65422e-05 0)
(0.130804 -1.01556e-05 0)
(0.130787 9.56464e-07 0)
(0.198057 0.00710827 0)
(0.198912 0.0080398 0)
(0.199886 0.00867826 0)
(0.20086 0.00906723 0)
(0.201782 0.00926261 0)
(0.202628 0.00929811 0)
(0.203374 0.00919702 0)
(0.204 0.00898425 0)
(0.204492 0.00868693 0)
(0.204842 0.00833148 0)
(0.205054 0.00794196 0)
(0.205133 0.00753911 0)
(0.205091 0.00713962 0)
(0.204942 0.00675578 0)
(0.2047 0.00639558 0)
(0.204377 0.00606326 0)
(0.203988 0.00576013 0)
(0.203541 0.00548538 0)
(0.203045 0.00523691 0)
(0.202507 0.00501191 0)
(0.201932 0.00480738 0)
(0.201323 0.0046204 0)
(0.200684 0.00444835 0)
(0.200017 0.00428894 0)
(0.199324 0.00414026 0)
(0.198607 0.00400073 0)
(0.197866 0.00386909 0)
(0.197104 0.00374431 0)
(0.196321 0.00362558 0)
(0.195519 0.00351222 0)
(0.1947 0.0034037 0)
(0.193864 0.00329957 0)
(0.193013 0.00319946 0)
(0.192148 0.00310303 0)
(0.191271 0.00301002 0)
(0.190382 0.00292019 0)
(0.189483 0.0028333 0)
(0.188575 0.00274918 0)
(0.187659 0.00266765 0)
(0.186736 0.00258854 0)
(0.185808 0.00251172 0)
(0.184875 0.00243705 0)
(0.183939 0.00236441 0)
(0.183001 0.00229368 0)
(0.182061 0.00222475 0)
(0.181122 0.00215753 0)
(0.180183 0.00209191 0)
(0.179245 0.00202781 0)
(0.178311 0.00196515 0)
(0.17738 0.00190382 0)
(0.176453 0.00184377 0)
(0.175532 0.00178491 0)
(0.174618 0.00172716 0)
(0.173711 0.00167046 0)
(0.172812 0.00161473 0)
(0.171922 0.00155991 0)
(0.171042 0.00150592 0)
(0.170173 0.0014527 0)
(0.169316 0.00140019 0)
(0.168472 0.00134832 0)
(0.167641 0.00129704 0)
(0.166825 0.00124628 0)
(0.166024 0.00119599 0)
(0.165239 0.00114611 0)
(0.164472 0.00109659 0)
(0.163722 0.00104738 0)
(0.162992 0.000998442 0)
(0.162282 0.000949721 0)
(0.161593 0.000901181 0)
(0.160927 0.000852786 0)
(0.160283 0.000804501 0)
(0.159663 0.000756289 0)
(0.159068 0.000708115 0)
(0.158499 0.00065994 0)
(0.157957 0.000611724 0)
(0.157443 0.000563435 0)
(0.156958 0.000515057 0)
(0.156502 0.000466617 0)
(0.156076 0.000418215 0)
(0.155681 0.000370062 0)
(0.155316 0.00032253 0)
(0.154981 0.000276172 0)
(0.154675 0.000231726 0)
(0.154398 0.000190049 0)
(0.154148 0.000151969 0)
(0.153923 0.00011806 0)
(0.153722 8.85998e-05 0)
(0.153543 6.36747e-05 0)
(0.153384 4.29345e-05 0)
(0.153242 2.57535e-05 0)
(0.153113 1.19998e-05 0)
(0.152997 1.74607e-06 0)
(0.152895 -5.40641e-06 0)
(0.152806 -1.00422e-05 0)
(0.152731 -1.25651e-05 0)
(0.152668 -1.31602e-05 0)
(0.152613 -1.19517e-05 0)
(0.152566 -8.96517e-06 0)
(0.152526 -3.6514e-06 0)
(0.152481 7.30764e-06 0)
(0.19857 0.00671846 0)
(0.199291 0.00753933 0)
(0.200124 0.0081385 0)
(0.200988 0.00853076 0)
(0.201837 0.0087512 0)
(0.202642 0.00882686 0)
(0.203385 0.00877827 0)
(0.204046 0.00862675 0)
(0.204615 0.00839539 0)
(0.205082 0.00810706 0)
(0.205449 0.00778278 0)
(0.205717 0.00744089 0)
(0.205895 0.00709647 0)
(0.20599 0.00676099 0)
(0.206014 0.00644235 0)
(0.205976 0.00614525 0)
(0.205885 0.00587175 0)
(0.205749 0.00562196 0)
(0.205576 0.0053947 0)
(0.205369 0.00518799 0)
(0.205133 0.0049995 0)
(0.204872 0.00482688 0)
(0.204586 0.00466788 0)
(0.204279 0.00452051 0)
(0.20395 0.00438303 0)
(0.2036 0.004254 0)
(0.203231 0.00413222 0)
(0.202842 0.00401671 0)
(0.202435 0.00390666 0)
(0.20201 0.00380143 0)
(0.201568 0.00370047 0)
(0.201108 0.00360335 0)
(0.200632 0.00350969 0)
(0.20014 0.00341917 0)
(0.199633 0.00333151 0)
(0.199112 0.00324649 0)
(0.198577 0.00316389 0)
(0.198028 0.00308353 0)
(0.197467 0.00300525 0)
(0.196894 0.00292888 0)
(0.19631 0.00285431 0)
(0.195716 0.00278139 0)
(0.195112 0.00271004 0)
(0.194499 0.00264012 0)
(0.193878 0.00257156 0)
(0.193249 0.00250426 0)
(0.192614 0.00243813 0)
(0.191973 0.0023731 0)
(0.191326 0.00230908 0)
(0.190675 0.002246 0)
(0.190021 0.0021838 0)
(0.189364 0.0021224 0)
(0.188705 0.00206173 0)
(0.188045 0.00200174 0)
(0.187385 0.00194235 0)
(0.186725 0.00188351 0)
(0.186066 0.00182516 0)
(0.18541 0.00176722 0)
(0.184757 0.00170966 0)
(0.184108 0.0016524 0)
(0.183464 0.00159539 0)
(0.182826 0.00153857 0)
(0.182194 0.0014819 0)
(0.18157 0.00142532 0)
(0.180955 0.00136878 0)
(0.18035 0.00131223 0)
(0.179755 0.00125564 0)
(0.179172 0.00119897 0)
(0.178602 0.00114217 0)
(0.178045 0.00108521 0)
(0.177503 0.00102807 0)
(0.176977 0.000970718 0)
(0.176468 0.000913122 0)
(0.175977 0.000855258 0)
(0.175504 0.000797109 0)
(0.175051 0.000738669 0)
(0.174619 0.000679967 0)
(0.174209 0.000621089 0)
(0.17382 0.00056221 0)
(0.173454 0.000503638 0)
(0.17311 0.000445847 0)
(0.172789 0.000389494 0)
(0.17249 0.000335401 0)
(0.172212 0.000284476 0)
(0.171955 0.000237571 0)
(0.171719 0.000195316 0)
(0.171502 0.000158067 0)
(0.171304 0.000125893 0)
(0.171123 9.85876e-05 0)
(0.170958 7.59158e-05 0)
(0.170807 5.75544e-05 0)
(0.170669 4.29585e-05 0)
(0.170544 3.15517e-05 0)
(0.17043 2.28524e-05 0)
(0.170325 1.6559e-05 0)
(0.170228 1.25362e-05 0)
(0.17014 1.0664e-05 0)
(0.170061 1.08692e-05 0)
(0.16999 1.35953e-05 0)
(0.169912 2.13242e-05 0)
(0.199008 0.00637571 0)
(0.199623 0.00709794 0)
(0.200337 0.00765155 0)
(0.201095 0.00803518 0)
(0.201855 0.0082685 0)
(0.202591 0.00837168 0)
(0.203282 0.00836219 0)
(0.203913 0.00825806 0)
(0.204472 0.00807884 0)
(0.204953 0.0078442 0)
(0.205353 0.00757252 0)
(0.205677 0.00728007 0)
(0.205927 0.00698049 0)
(0.206112 0.00668447 0)
(0.20624 0.00639971 0)
(0.206318 0.00613117 0)
(0.206355 0.0058815 0)
(0.206357 0.00565154 0)
(0.20633 0.00544084 0)
(0.206278 0.00524816 0)
(0.206206 0.00507179 0)
(0.206116 0.00490988 0)
(0.206009 0.00476056 0)
(0.205888 0.00462214 0)
(0.205752 0.00449308 0)
(0.205603 0.00437208 0)
(0.205441 0.00425801 0)
(0.205266 0.00414995 0)
(0.205078 0.00404713 0)
(0.204878 0.00394889 0)
(0.204666 0.0038547 0)
(0.204441 0.00376411 0)
(0.204205 0.00367675 0)
(0.203956 0.00359228 0)
(0.203696 0.00351042 0)
(0.203424 0.00343093 0)
(0.203141 0.00335359 0)
(0.202846 0.00327821 0)
(0.202541 0.00320462 0)
(0.202225 0.00313266 0)
(0.201899 0.0030622 0)
(0.201562 0.0029931 0)
(0.201216 0.00292525 0)
(0.200861 0.00285854 0)
(0.200497 0.00279287 0)
(0.200123 0.00272814 0)
(0.199742 0.00266428 0)
(0.199353 0.0026012 0)
(0.198957 0.00253881 0)
(0.198553 0.00247704 0)
(0.198144 0.00241583 0)
(0.197728 0.00235509 0)
(0.197307 0.00229477 0)
(0.196881 0.00223479 0)
(0.196451 0.00217509 0)
(0.196017 0.00211561 0)
(0.19558 0.00205629 0)
(0.195141 0.00199706 0)
(0.194699 0.00193786 0)
(0.194257 0.00187863 0)
(0.193814 0.00181933 0)
(0.193372 0.00175988 0)
(0.19293 0.00170024 0)
(0.19249 0.00164036 0)
(0.192053 0.00158018 0)
(0.191619 0.00151966 0)
(0.191189 0.00145876 0)
(0.190764 0.00139744 0)
(0.190345 0.00133567 0)
(0.189933 0.00127342 0)
(0.189528 0.00121065 0)
(0.189132 0.00114736 0)
(0.188745 0.00108351 0)
(0.188368 0.0010191 0)
(0.188002 0.000954141 0)
(0.187648 0.000888649 0)
(0.187307 0.000822696 0)
(0.186979 0.000756424 0)
(0.186665 0.000690074 0)
(0.186364 0.000624026 0)
(0.186078 0.000558827 0)
(0.185806 0.000495199 0)
(0.185548 0.000434006 0)
(0.185304 0.000376173 0)
(0.185074 0.000322557 0)
(0.184858 0.00027381 0)
(0.184656 0.000230312 0)
(0.184467 0.00019218 0)
(0.184291 0.000159307 0)
(0.184128 0.000131461 0)
(0.183976 0.000108253 0)
(0.183836 8.91855e-05 0)
(0.183706 7.37932e-05 0)
(0.183585 6.16577e-05 0)
(0.183472 5.23937e-05 0)
(0.183367 4.56364e-05 0)
(0.183269 4.11031e-05 0)
(0.183179 3.86987e-05 0)
(0.183095 3.86685e-05 0)
(0.183004 4.16386e-05 0)
(0.199379 0.00606858 0)
(0.199911 0.00670449 0)
(0.200527 0.00721106 0)
(0.201189 0.00757925 0)
(0.201867 0.00781809 0)
(0.202532 0.00794136 0)
(0.203164 0.00796308 0)
(0.203749 0.00789817 0)
(0.204276 0.00776295 0)
(0.204738 0.00757413 0)
(0.205135 0.0073477 0)
(0.205466 0.00709804 0)
(0.205736 0.00683743 0)
(0.20595 0.00657579 0)
(0.206115 0.00632055 0)
(0.206237 0.0060768 0)
(0.206324 0.00584758 0)
(0.206382 0.00563434 0)
(0.206415 0.00543727 0)
(0.206429 0.00525574 0)
(0.206426 0.00508863 0)
(0.20641 0.00493456 0)
(0.206383 0.00479205 0)
(0.206345 0.00465971 0)
(0.206298 0.00453622 0)
(0.206243 0.00442044 0)
(0.20618 0.00431136 0)
(0.206109 0.00420812 0)
(0.206031 0.00410998 0)
(0.205946 0.00401634 0)
(0.205853 0.00392667 0)
(0.205753 0.00384053 0)
(0.205646 0.00375753 0)
(0.205531 0.00367736 0)
(0.20541 0.00359972 0)
(0.205281 0.00352437 0)
(0.205145 0.00345108 0)
(0.205002 0.00337965 0)
(0.204851 0.0033099 0)
(0.204694 0.00324168 0)
(0.20453 0.00317484 0)
(0.204358 0.00310924 0)
(0.20418 0.00304476 0)
(0.203994 0.00298127 0)
(0.203802 0.00291868 0)
(0.203603 0.00285689 0)
(0.203398 0.00279579 0)
(0.203187 0.0027353 0)
(0.202969 0.00267534 0)
(0.202745 0.00261581 0)
(0.202515 0.00255665 0)
(0.20228 0.00249777 0)
(0.20204 0.00243909 0)
(0.201794 0.00238056 0)
(0.201544 0.00232208 0)
(0.201289 0.00226361 0)
(0.201029 0.00220505 0)
(0.200767 0.00214636 0)
(0.2005 0.00208746 0)
(0.200231 0.00202829 0)
(0.199959 0.00196878 0)
(0.199684 0.00190888 0)
(0.199409 0.00184852 0)
(0.199131 0.00178766 0)
(0.198853 0.00172623 0)
(0.198575 0.00166419 0)
(0.198297 0.00160149 0)
(0.19802 0.00153809 0)
(0.197745 0.00147397 0)
(0.197471 0.00140908 0)
(0.197201 0.00134341 0)
(0.196933 0.00127694 0)
(0.196669 0.00120965 0)
(0.19641 0.00114156 0)
(0.196156 0.00107268 0)
(0.195908 0.00100307 0)
(0.195666 0.000932831 0)
(0.19543 0.00086215 0)
(0.195201 0.000791315 0)
(0.194979 0.000720753 0)
(0.194764 0.000651052 0)
(0.194556 0.000582957 0)
(0.194356 0.000517338 0)
(0.194163 0.000455107 0)
(0.193978 0.000397104 0)
(0.1938 0.000343981 0)
(0.193631 0.000296142 0)
(0.193471 0.000253745 0)
(0.193318 0.000216726 0)
(0.193175 0.000184875 0)
(0.193039 0.000157854 0)
(0.192912 0.000135228 0)
(0.192793 0.00011655 0)
(0.19268 0.000101379 0)
(0.192575 8.93013e-05 0)
(0.192475 7.99417e-05 0)
(0.192382 7.30053e-05 0)
(0.192294 6.82967e-05 0)
(0.192213 6.56595e-05 0)
(0.192122 6.40678e-05 0)
(0.199691 0.00578916 0)
(0.200157 0.0063507 0)
(0.200691 0.00681191 0)
(0.201272 0.00716095 0)
(0.201873 0.00739997 0)
(0.202471 0.00753751 0)
(0.203046 0.00758419 0)
(0.203584 0.00755209 0)
(0.204074 0.00745465 0)
(0.204511 0.00730591 0)
(0.204893 0.00711962 0)
(0.205217 0.00690836 0)
(0.205489 0.00668313 0)
(0.205711 0.00645302 0)
(0.205889 0.00622507 0)
(0.206029 0.00600436 0)
(0.206137 0.00579423 0)
(0.206217 0.00559654 0)
(0.206276 0.00541202 0)
(0.206317 0.00524057 0)
(0.206344 0.00508157 0)
(0.206359 0.00493409 0)
(0.206364 0.00479703 0)
(0.206361 0.00466927 0)
(0.206351 0.00454976 0)
(0.206335 0.0044375 0)
(0.206314 0.00433162 0)
(0.206289 0.00423136 0)
(0.206259 0.00413604 0)
(0.206224 0.00404511 0)
(0.206185 0.00395806 0)
(0.206143 0.00387449 0)
(0.206097 0.00379401 0)
(0.206046 0.00371633 0)
(0.205992 0.00364115 0)
(0.205934 0.00356823 0)
(0.205873 0.00349736 0)
(0.205807 0.00342832 0)
(0.205738 0.00336095 0)
(0.205664 0.00329508 0)
(0.205587 0.00323056 0)
(0.205506 0.00316726 0)
(0.205421 0.00310504 0)
(0.205332 0.00304379 0)
(0.20524 0.00298339 0)
(0.205143 0.00292373 0)
(0.205042 0.00286473 0)
(0.204937 0.00280627 0)
(0.204829 0.00274827 0)
(0.204716 0.00269064 0)
(0.2046 0.00263329 0)
(0.20448 0.00257615 0)
(0.204356 0.00251912 0)
(0.204228 0.00246213 0)
(0.204097 0.0024051 0)
(0.203963 0.00234795 0)
(0.203825 0.00229061 0)
(0.203684 0.002233 0)
(0.203539 0.00217505 0)
(0.203392 0.00211669 0)
(0.203243 0.00205785 0)
(0.20309 0.00199847 0)
(0.202936 0.00193847 0)
(0.202779 0.0018778 0)
(0.202621 0.00181639 0)
(0.202461 0.00175421 0)
(0.2023 0.00169118 0)
(0.202138 0.00162728 0)
(0.201975 0.00156246 0)
(0.201812 0.0014967 0)
(0.201649 0.00142997 0)
(0.201486 0.00136226 0)
(0.201324 0.00129356 0)
(0.201163 0.00122388 0)
(0.201004 0.00115328 0)
(0.200845 0.00108182 0)
(0.200689 0.00100963 0)
(0.200534 0.000936921 0)
(0.200382 0.000864019 0)
(0.200231 0.000791371 0)
(0.200083 0.000719575 0)
(0.199937 0.000649369 0)
(0.199793 0.000581598 0)
(0.199651 0.000517135 0)
(0.199513 0.000456785 0)
(0.199378 0.000401187 0)
(0.199247 0.000350753 0)
(0.199121 0.000305671 0)
(0.198999 0.000265921 0)
(0.198882 0.000231334 0)
(0.198771 0.000201614 0)
(0.198665 0.000176371 0)
(0.198564 0.000155184 0)
(0.198469 0.000137636 0)
(0.198378 0.00012333 0)
(0.198292 0.000111895 0)
(0.19821 0.000103001 0)
(0.198133 9.63355e-05 0)
(0.198061 9.14044e-05 0)
(0.197978 8.63056e-05 0)
(0.19995 0.00553202 0)
(0.200362 0.00603004 0)
(0.200829 0.00644913 0)
(0.201339 0.00677723 0)
(0.201873 0.00701251 0)
(0.202409 0.0071595 0)
(0.20293 0.00722587 0)
(0.203422 0.00722111 0)
(0.203876 0.00715613 0)
(0.204286 0.0070426 0)
(0.204649 0.00689217 0)
(0.204962 0.00671576 0)
(0.205229 0.0065231 0)
(0.205452 0.00632241 0)
(0.205635 0.0061203 0)
(0.205783 0.00592172 0)
(0.205901 0.00573015 0)
(0.205994 0.00554774 0)
(0.206066 0.00537563 0)
(0.20612 0.00521419 0)
(0.20616 0.00506321 0)
(0.206189 0.00492215 0)
(0.206209 0.00479026 0)
(0.206221 0.00466671 0)
(0.206227 0.00455066 0)
(0.206228 0.00444131 0)
(0.206224 0.00433791 0)
(0.206217 0.0042398 0)
(0.206207 0.00414641 0)
(0.206193 0.00405721 0)
(0.206177 0.00397175 0)
(0.206158 0.00388966 0)
(0.206137 0.00381059 0)
(0.206114 0.00373424 0)
(0.20609 0.00366035 0)
(0.206063 0.00358869 0)
(0.206034 0.00351903 0)
(0.206003 0.0034512 0)
(0.205971 0.00338502 0)
(0.205937 0.00332033 0)
(0.205901 0.00325699 0)
(0.205863 0.00319485 0)
(0.205824 0.0031338 0)
(0.205783 0.00307371 0)
(0.20574 0.00301447 0)
(0.205695 0.00295598 0)
(0.205648 0.00289813 0)
(0.2056 0.00284082 0)
(0.205549 0.00278397 0)
(0.205497 0.00272747 0)
(0.205442 0.00267124 0)
(0.205386 0.0026152 0)
(0.205328 0.00255925 0)
(0.205267 0.00250331 0)
(0.205205 0.0024473 0)
(0.205141 0.00239115 0)
(0.205074 0.00233476 0)
(0.205006 0.00227805 0)
(0.204936 0.00222096 0)
(0.204864 0.00216341 0)
(0.20479 0.00210532 0)
(0.204714 0.00204662 0)
(0.204637 0.00198724 0)
(0.204557 0.00192711 0)
(0.204476 0.00186617 0)
(0.204394 0.00180437 0)
(0.20431 0.00174166 0)
(0.204225 0.00167797 0)
(0.204139 0.00161329 0)
(0.204051 0.00154757 0)
(0.203962 0.00148079 0)
(0.203873 0.00141295 0)
(0.203782 0.00134404 0)
(0.203691 0.00127409 0)
(0.203599 0.00120315 0)
(0.203506 0.0011313 0)
(0.203413 0.00105871 0)
(0.203319 0.00098559 0)
(0.203224 0.000912282 0)
(0.203128 0.000839236 0)
(0.203032 0.000767038 0)
(0.202934 0.000696399 0)
(0.202836 0.000628116 0)
(0.202737 0.000563009 0)
(0.202638 0.000501833 0)
(0.20254 0.0004452 0)
(0.202443 0.000393521 0)
(0.202347 0.000347005 0)
(0.202253 0.000305669 0)
(0.202163 0.000269383 0)
(0.202075 0.000237896 0)
(0.20199 0.000210866 0)
(0.201909 0.000187911 0)
(0.201831 0.000168645 0)
(0.201757 0.000152687 0)
(0.201686 0.000139669 0)
(0.201618 0.000129238 0)
(0.201553 0.000121001 0)
(0.201493 0.00011428 0)
(0.201421 0.000107016 0)
(0.200164 0.00529335 0)
(0.20053 0.00573727 0)
(0.200941 0.00611814 0)
(0.20139 0.00642494 0)
(0.201864 0.00665378 0)
(0.202344 0.0068064 0)
(0.202815 0.00688798 0)
(0.203264 0.0069058 0)
(0.203683 0.00686854 0)
(0.204065 0.00678578 0)
(0.204407 0.00666728 0)
(0.204708 0.00652241 0)
(0.204967 0.00635969 0)
(0.205187 0.00618651 0)
(0.205372 0.00600893 0)
(0.205524 0.00583172 0)
(0.205649 0.00565835 0)
(0.205749 0.00549119 0)
(0.205829 0.00533168 0)
(0.205891 0.00518051 0)
(0.20594 0.00503786 0)
(0.205978 0.00490352 0)
(0.206006 0.00477706 0)
(0.206026 0.00465789 0)
(0.20604 0.0045454 0)
(0.206049 0.00443895 0)
(0.206053 0.00433795 0)
(0.206054 0.00424184 0)
(0.206052 0.00415012 0)
(0.206048 0.00406235 0)
(0.206041 0.00397812 0)
(0.206032 0.00389709 0)
(0.206021 0.00381894 0)
(0.20601 0.00374341 0)
(0.205997 0.00367025 0)
(0.205982 0.00359924 0)
(0.205967 0.00353019 0)
(0.205951 0.00346291 0)
(0.205934 0.00339725 0)
(0.205916 0.00333305 0)
(0.205898 0.00327017 0)
(0.205879 0.00320849 0)
(0.205859 0.00314788 0)
(0.205839 0.00308823 0)
(0.205818 0.00302943 0)
(0.205797 0.00297138 0)
(0.205775 0.00291397 0)
(0.205752 0.00285711 0)
(0.205729 0.00280071 0)
(0.205705 0.00274468 0)
(0.20568 0.00268892 0)
(0.205655 0.00263335 0)
(0.205629 0.00257788 0)
(0.205602 0.00252244 0)
(0.205575 0.00246692 0)
(0.205546 0.00241126 0)
(0.205517 0.00235538 0)
(0.205487 0.00229918 0)
(0.205456 0.00224259 0)
(0.205424 0.00218554 0)
(0.205392 0.00212794 0)
(0.205358 0.00206973 0)
(0.205323 0.00201083 0)
(0.205287 0.00195118 0)
(0.20525 0.0018907 0)
(0.205213 0.00182935 0)
(0.205173 0.00176707 0)
(0.205133 0.00170381 0)
(0.205092 0.00163953 0)
(0.205049 0.00157421 0)
(0.205005 0.00150782 0)
(0.20496 0.00144035 0)
(0.204914 0.00137181 0)
(0.204866 0.00130224 0)
(0.204817 0.00123169 0)
(0.204765 0.00116027 0)
(0.204713 0.00108814 0)
(0.204658 0.00101554 0)
(0.204601 0.000942794 0)
(0.204541 0.000870351 0)
(0.20448 0.000798771 0)
(0.204415 0.000728721 0)
(0.204349 0.000660941 0)
(0.20428 0.000596189 0)
(0.20421 0.000535164 0)
(0.204138 0.000478441 0)
(0.204065 0.000426421 0)
(0.203993 0.000379325 0)
(0.203921 0.000337202 0)
(0.203851 0.000299957 0)
(0.203782 0.000267382 0)