/*--------------------------------*- C++ -*----------------------------------*\
| =========                 |                                                 |
| \\      /  F ield         | OpenFOAM: The Open Source CFD Toolbox           |
|  \\    /   O peration     | Version:  2.3.0                                 |
|   \\  /    A nd           | Web:      www.OpenFOAM.org                      |
|    \\/     M anipulation  |                                                 |
\*---------------------------------------------------------------------------*/
FoamFile
{
    version     2.0;
    format      ascii;
    class       surfaceScalarField;
    location    "0.3";
    object      phi;
}
// * * * * * * * * * * * * * * * * * * * * * * * * * * * * * * * * * * * * * //

dimensions      [0 3 -1 0 0 0 0];

internalField   nonuniform List<scalar> 
3859
(
2.80042e-08
2.91558e-09
-3.09198e-08
2.51094e-08
2.89484e-09
2.23941e-08
2.71525e-09
1.98933e-08
2.50083e-09
1.76244e-08
2.26894e-09
1.5599e-08
2.02542e-09
1.38199e-08
1.77907e-09
1.22817e-08
1.5382e-09
1.09718e-08
1.3099e-09
9.87182e-09
1.09996e-09
8.9592e-09
9.12621e-10
8.20888e-09
7.50314e-10
7.59527e-09
6.13613e-10
7.0938e-09
5.01468e-10
6.68219e-09
4.11613e-10
6.34115e-09
3.41037e-10
6.05471e-09
2.86438e-10
5.81013e-09
2.44585e-10
5.59756e-09
2.12568e-10
5.40964e-09
1.87926e-10
5.24095e-09
1.68685e-10
5.08762e-09
1.53329e-10
4.94688e-09
1.40743e-10
4.81675e-09
1.3013e-10
4.6958e-09
1.20944e-10
4.58299e-09
1.12815e-10
4.47749e-09
1.05501e-10
4.37865e-09
9.88415e-11
4.28591e-09
9.2733e-11
4.19881e-09
8.71035e-11
4.11691e-09
8.19014e-11
4.03982e-09
7.70863e-11
3.9672e-09
7.26239e-11
3.89872e-09
6.84838e-11
3.83408e-09
6.46377e-11
3.77302e-09
6.1059e-11
3.7153e-09
5.77227e-11
3.66069e-09
5.46052e-11
3.60901e-09
5.16847e-11
3.56007e-09
4.89408e-11
3.51371e-09
4.6355e-11
3.4698e-09
4.39103e-11
3.42821e-09
4.15913e-11
3.38882e-09
3.93839e-11
3.35155e-09
3.72756e-11
3.31629e-09
3.5255e-11
3.28298e-09
3.33117e-11
3.25155e-09
3.14366e-11
3.22192e-09
2.96211e-11
3.19407e-09
2.78578e-11
3.16793e-09
2.61399e-11
3.14347e-09
2.44616e-11
3.12065e-09
2.28181e-11
3.09944e-09
2.12058e-11
3.07982e-09
1.96221e-11
3.06175e-09
1.80655e-11
3.04522e-09
1.65336e-11
3.0302e-09
1.50215e-11
3.01668e-09
1.35171e-11
3.00469e-09
1.19956e-11
2.99427e-09
1.04145e-11
2.98556e-09
8.7126e-12
2.97875e-09
6.81167e-12
2.97414e-09
4.60464e-12
2.97212e-09
2.02301e-12
2.97258e-09
-4.57525e-13
2.97493e-09
-2.35719e-12
2.97882e-09
-3.88921e-12
2.98391e-09
-5.08397e-12
2.98986e-09
-5.95568e-12
2.9964e-09
-6.54099e-12
3.00325e-09
-6.84318e-12
3.01016e-09
-6.91387e-12
3.01695e-09
-6.79221e-12
3.02347e-09
-6.52152e-12
3.02962e-09
-6.14311e-12
3.03531e-09
-5.69383e-12
3.04052e-09
-5.20589e-12
3.04522e-09
-4.70578e-12
3.04944e-09
-4.21362e-12
3.05318e-09
-3.74361e-12
3.05649e-09
-3.30481e-12
3.05939e-09
-2.90221e-12
3.06193e-09
-2.53781e-12
3.06414e-09
-2.21156e-12
3.06606e-09
-1.92201e-12
3.06773e-09
-1.66697e-12
3.06917e-09
-1.44387e-12
3.07042e-09
-1.25004e-12
3.0715e-09
-1.08292e-12
3.07244e-09
-9.4015e-13
3.07326e-09
-8.19715e-13
3.07398e-09
-7.20052e-13
3.07462e-09
-6.40208e-13
3.0752e-09
-5.80332e-13
3.07575e-09
-5.42952e-13
3.07628e-09
-5.37323e-13
3.07688e-09
-5.98985e-13
3.07778e-09
-8.99165e-13
-2.45118e-12
3.59137e-08
3.19859e-09
-3.61968e-08
3.53059e-08
3.50273e-09
3.44541e-08
3.56703e-09
3.34365e-08
3.51843e-09
3.231e-08
3.39538e-09
3.1122e-08
3.21342e-09
2.99111e-08
2.99e-09
2.87071e-08
2.74223e-09
2.75322e-08
2.48484e-09
2.64021e-08
2.23003e-09
2.53272e-08
1.98747e-09
2.43136e-08
1.76399e-09
2.33635e-08
1.56362e-09
2.24772e-08
1.38782e-09
2.16527e-08
1.2361e-09
2.08872e-08
1.10658e-09
2.0177e-08
9.96639e-10
1.95182e-08
9.03376e-10
1.89068e-08
8.23959e-10
1.83389e-08
7.55837e-10
1.78107e-08
6.96841e-10
1.73188e-08
6.45197e-10
1.68601e-08
5.99505e-10
1.64315e-08
5.5868e-10
1.60306e-08
5.21893e-10
1.56549e-08
4.88512e-10
1.53023e-08
4.58056e-10
1.4971e-08
4.30148e-10
1.46593e-08
4.0449e-10
1.43655e-08
3.80837e-10
1.40885e-08
3.58984e-10
1.38268e-08
3.38753e-10
1.35794e-08
3.19986e-10
1.33454e-08
3.02544e-10
1.31237e-08
2.86297e-10
1.29136e-08
2.71131e-10
1.27144e-08
2.56938e-10
1.25254e-08
2.43622e-10
1.2346e-08
2.31095e-10
1.21757e-08
2.19275e-10
1.20139e-08
2.0809e-10
1.18604e-08
1.97472e-10
1.17146e-08
1.87361e-10
1.15763e-08
1.77702e-10
1.14451e-08
1.68443e-10
1.13208e-08
1.59541e-10
1.12032e-08
1.50952e-10
1.1092e-08
1.4264e-10
1.0987e-08
1.34569e-10
1.08882e-08
1.26709e-10
1.07953e-08
1.19031e-10
1.07082e-08
1.1151e-10
1.06269e-08
1.04124e-10
1.05513e-08
9.68531e-11
1.04812e-08
8.96804e-11
1.04167e-08
8.25888e-11
1.03577e-08
7.55576e-11
1.03041e-08
6.8556e-11
1.02561e-08
6.15347e-11
1.02137e-08
5.4417e-11
1.0177e-08
4.70929e-11
1.01463e-08
3.9423e-11
1.01219e-08
3.12582e-11
1.0104e-08
2.24571e-11
1.00932e-08
1.28731e-11
1.00898e-08
2.91449e-12
1.0093e-08
-5.61406e-12
1.01011e-08
-1.19809e-11
1.01128e-08
-1.67086e-11
1.01269e-08
-2.01003e-11
1.01427e-08
-2.23767e-11
1.01595e-08
-2.36332e-11
1.01767e-08
-2.40614e-11
1.01937e-08
-2.38097e-11
1.02102e-08
-2.30319e-11
1.02259e-08
-2.18702e-11
1.02407e-08
-2.04503e-11
1.02544e-08
-1.88806e-11
1.02669e-08
-1.72494e-11
1.02783e-08
-1.56244e-11
1.02886e-08
-1.4054e-11
1.02979e-08
-1.257e-11
1.03062e-08
-1.11913e-11
1.03136e-08
-9.92667e-12
1.03201e-08
-8.77818e-12
1.0326e-08
-7.74326e-12
1.03311e-08
-6.81655e-12
1.03357e-08
-5.9913e-12
1.03397e-08
-5.2602e-12
1.03432e-08
-4.61606e-12
1.03463e-08
-4.0523e-12
1.03491e-08
-3.5632e-12
1.03515e-08
-3.14449e-12
1.03536e-08
-2.794e-12
1.03556e-08
-2.5135e-12
1.03573e-08
-2.31378e-12
1.0359e-08
-2.2302e-12
1.03608e-08
-2.37881e-12
1.03631e-08
-3.18519e-12
-5.95341e-12
4.05763e-08
3.02612e-09
-4.04038e-08
4.06662e-08
3.4128e-09
4.06288e-08
3.60442e-09
4.04659e-08
3.68133e-09
4.01853e-08
3.67597e-09
3.97992e-08
3.59947e-09
3.93242e-08
3.46505e-09
3.87779e-08
3.28856e-09
3.81774e-08
3.08529e-09
3.75386e-08
2.86889e-09
3.68751e-08
2.65093e-09
3.61986e-08
2.4405e-09
3.55183e-08
2.24389e-09
3.48414e-08
2.06475e-09
3.4173e-08
1.90444e-09
3.35169e-08
1.76268e-09
3.28756e-08
1.63803e-09
3.22504e-08
1.52851e-09
3.16424e-08
1.43193e-09
3.10521e-08
1.34617e-09
3.04796e-08
1.26935e-09
2.99249e-08
1.19988e-09
2.93879e-08
1.13648e-09
2.88685e-08
1.07812e-09
2.83663e-08
1.02405e-09
2.78812e-08
9.73648e-10
2.74128e-08
9.26474e-10
2.69608e-08
8.82172e-10
2.65248e-08
8.40462e-10
2.61045e-08
8.01117e-10
2.56995e-08
7.63946e-10
2.53095e-08
7.28779e-10
2.4934e-08
6.95466e-10
2.45727e-08
6.6387e-10
2.42252e-08
6.33862e-10
2.3891e-08
6.0532e-10
2.35698e-08
5.78132e-10
2.32612e-08
5.52188e-10
2.29649e-08
5.27388e-10
2.26805e-08
5.03634e-10
2.24078e-08
4.80836e-10
2.21464e-08
4.58906e-10
2.1896e-08
4.37764e-10
2.16563e-08
4.17332e-10
2.14272e-08
3.97539e-10
2.12085e-08
3.78315e-10
2.09998e-08
3.59598e-10
2.08011e-08
3.41325e-10
2.06123e-08
3.23441e-10
2.04331e-08
3.05893e-10
2.02635e-08
2.8863e-10
2.01034e-08
2.71608e-10
1.99527e-08
2.54783e-10
1.98115e-08
2.38118e-10
1.96796e-08
2.21575e-10
1.9557e-08
2.05113e-10
1.94439e-08
1.88687e-10
1.93402e-08
1.72235e-10
1.92461e-08
1.55671e-10
1.91616e-08
1.38881e-10
1.9087e-08
1.21726e-10
1.90224e-08
1.04066e-10
1.89678e-08
8.58207e-11
1.89232e-08
6.70692e-11
1.88879e-08
4.8154e-11
1.88614e-08
2.9367e-11
1.88454e-08
1.04645e-11
1.88403e-08
-6.86438e-12
1.88437e-08
-2.01207e-11
1.88534e-08
-2.98158e-11
1.88678e-08
-3.67631e-11
1.88854e-08
-4.13146e-11
1.89053e-08
-4.39367e-11
1.89265e-08
-4.49623e-11
1.89482e-08
-4.47274e-11
1.89698e-08
-4.35306e-11
1.8991e-08
-4.16356e-11
1.90114e-08
-3.92716e-11
1.90308e-08
-3.66293e-11
1.9049e-08
-3.38599e-11
1.9066e-08
-3.10772e-11
1.90818e-08
-2.83617e-11
1.90964e-08
-2.57671e-11
1.91098e-08
-2.33258e-11
1.91221e-08
-2.10547e-11
1.91333e-08
-1.896e-11
1.91435e-08
-1.70402e-11
1.91528e-08
-1.52897e-11
1.91613e-08
-1.37004e-11
1.91689e-08
-1.22634e-11
1.91758e-08
-1.09701e-11
1.91821e-08
-9.81295e-12
1.91877e-08
-8.78647e-12
1.91928e-08
-7.88891e-12
1.91974e-08
-7.12554e-12
1.92016e-08
-6.51763e-12
1.92055e-08
-6.12794e-12
1.92093e-08
-6.1397e-12
1.92132e-08
-7.11664e-12
-1.04203e-11
4.50709e-08
2.81346e-09
-4.48582e-08
4.53004e-08
3.18327e-09
4.54952e-08
3.40968e-09
4.56392e-08
3.5373e-09
4.57234e-08
3.59181e-09
4.57409e-08
3.58196e-09
4.56897e-08
3.51622e-09
4.55721e-08
3.40616e-09
4.53932e-08
3.26421e-09
4.516e-08
3.10212e-09
4.48805e-08
2.93042e-09
4.45631e-08
2.75792e-09
4.42156e-08
2.59131e-09
4.38453e-08
2.43508e-09
4.34581e-08
2.29168e-09
4.30588e-08
2.16192e-09
4.26514e-08
2.04546e-09
4.22387e-08
1.94119e-09
4.1823e-08
1.84765e-09
4.14059e-08
1.76326e-09
4.09887e-08
1.68654e-09
4.05724e-08
1.61617e-09
4.01579e-08
1.55105e-09
3.97457e-08
1.49028e-09
3.93366e-08
1.43318e-09
3.8931e-08
1.3792e-09
3.85296e-08
1.32792e-09
3.81327e-08
1.27905e-09
3.77408e-08
1.23233e-09
3.73544e-08
1.18757e-09
3.69737e-08
1.1446e-09
3.65992e-08
1.10331e-09
3.62311e-08
1.06355e-09
3.58698e-08
1.02522e-09
3.55154e-08
9.8823e-10
3.51682e-08
9.52468e-10
3.48285e-08
9.17844e-10
3.44965e-08
8.8427e-10
3.41722e-08
8.51658e-10
3.38559e-08
8.19925e-10
3.35477e-08
7.88988e-10
3.32479e-08
7.58769e-10
3.29564e-08
7.29192e-10
3.26736e-08
7.00184e-10
3.23995e-08
6.71674e-10
3.21342e-08
6.43593e-10
3.18779e-08
6.15875e-10
3.16308e-08
5.88457e-10
3.13929e-08
5.61278e-10
3.11646e-08
5.34279e-10
3.09458e-08
5.07407e-10
3.07368e-08
4.80608e-10
3.05377e-08
4.53832e-10
3.03488e-08
4.27032e-10
3.01702e-08
4.0016e-10
3.00022e-08
3.73164e-10
2.98449e-08
3.45981e-10
2.96986e-08
3.18535e-10
2.95635e-08
2.90729e-10
2.944e-08
2.62448e-10
2.93281e-08
2.33583e-10
2.92281e-08
2.04068e-10
2.914e-08
1.73957e-10
2.90635e-08
1.43518e-10
2.89984e-08
1.13309e-10
2.89436e-08
8.41438e-11
2.88972e-08
5.68698e-11
2.88588e-08
3.14839e-11
2.88313e-08
7.44698e-12
2.88152e-08
-1.37149e-11
2.88084e-08
-3.00318e-11
2.88092e-08
-4.20532e-11
2.88158e-08
-5.06147e-11
2.88271e-08
-5.62312e-11
2.88418e-08
-5.94496e-11
2.88591e-08
-6.07446e-11
2.8878e-08
-6.05425e-11
2.88979e-08
-5.92189e-11
2.89184e-08
-5.70949e-11
2.89389e-08
-5.44355e-11
2.89593e-08
-5.14508e-11
2.89793e-08
-4.83016e-11
2.89986e-08
-4.51061e-11
2.90172e-08
-4.19474e-11
2.9035e-08
-3.88816e-11
2.9052e-08
-3.5944e-11
2.90681e-08
-3.3155e-11
2.90834e-08
-3.05248e-11
2.90977e-08
-2.80567e-11
2.91112e-08
-2.57502e-11
2.91239e-08
-2.36029e-11
2.91357e-08
-2.16122e-11
2.91466e-08
-1.97774e-11
2.91569e-08
-1.81019e-11
2.91663e-08
-1.65976e-11
2.91751e-08
-1.52956e-11
2.91833e-08
-1.42739e-11
2.91909e-08
-1.3734e-11
2.9198e-08
-1.42232e-11
-1.6986e-11
4.99447e-08
2.62927e-09
-4.97605e-08
5.01728e-08
2.95513e-09
5.0403e-08
3.17951e-09
5.06185e-08
3.32175e-09
5.08101e-08
3.40024e-09
5.09687e-08
3.42336e-09
5.10874e-08
3.39751e-09
5.11624e-08
3.33117e-09
5.11926e-08
3.23399e-09
5.11793e-08
3.11545e-09
5.11254e-08
2.98427e-09
5.10353e-08
2.84803e-09
5.09138e-08
2.7128e-09
5.07659e-08
2.583e-09
5.05961e-08
2.46142e-09
5.04086e-08
2.34946e-09
5.02066e-08
2.24742e-09
4.9993e-08
2.15488e-09
4.97696e-08
2.07097e-09
4.95383e-08
1.99461e-09
4.93001e-08
1.92469e-09
4.90562e-08
1.86015e-09
4.88071e-08
1.80008e-09
4.85537e-08
1.74373e-09
4.82964e-08
1.69046e-09
4.80358e-08
1.63978e-09
4.77724e-08
1.59133e-09
4.75067e-08
1.5448e-09
4.7239e-08
1.49996e-09
4.697e-08
1.45662e-09
4.66999e-08
1.41465e-09
4.64293e-08
1.37391e-09
4.61586e-08
1.33429e-09
4.58881e-08
1.29569e-09
4.56183e-08
1.25803e-09
4.53496e-08
1.22121e-09
4.50823e-08
1.18515e-09
4.48168e-08
1.14976e-09
4.45535e-08
1.11498e-09
4.42927e-08
1.08071e-09
4.40348e-08
1.04688e-09
4.37802e-08
1.01342e-09
4.35291e-08
9.80242e-10
4.3282e-08
9.47287e-10
4.30392e-08
9.14478e-10
4.2801e-08
8.81745e-10
4.25679e-08
8.49019e-10
4.23401e-08
8.16236e-10
4.21181e-08
7.8333e-10
4.19021e-08
7.50239e-10
4.16926e-08
7.16905e-10
4.14899e-08
6.83269e-10
4.12945e-08
6.49278e-10
4.11067e-08
6.14877e-10
4.09268e-08
5.80013e-10
4.07553e-08
5.44626e-10
4.05927e-08
5.08652e-10
4.04392e-08
4.72012e-10
4.02953e-08
4.34622e-10
4.01614e-08
3.964e-10
4.00376e-08
3.573e-10
3.99243e-08
3.17356e-10
3.98215e-08
2.76764e-10
3.97291e-08
2.35952e-10
3.96468e-08
1.95618e-10
3.95743e-08
1.56675e-10
3.95111e-08
1.20068e-10
3.94561e-08
8.64791e-11
3.94072e-08
5.63603e-11
3.93641e-08
2.93452e-11
3.93292e-08
4.89351e-12
3.93031e-08
-1.60281e-11
3.9285e-08
-3.24996e-11
3.92738e-08
-4.50112e-11
3.92686e-08
-5.41921e-11
3.92684e-08
-6.05601e-11
3.92724e-08
-6.46091e-11
3.928e-08
-6.67927e-11
3.92904e-08
-6.7515e-11
3.93031e-08
-6.71242e-11
3.93176e-08
-6.59107e-11
3.93334e-08
-6.41092e-11
3.93502e-08
-6.19044e-11
3.93677e-08
-5.94377e-11
3.93856e-08
-5.68148e-11
3.94038e-08
-5.41129e-11
3.9422e-08
-5.13872e-11
3.94402e-08
-4.86758e-11
3.94581e-08
-4.60051e-11
3.94758e-08
-4.3393e-11
3.9493e-08
-4.08522e-11
3.95098e-08
-3.83928e-11
3.9526e-08
-3.6025e-11
3.95417e-08
-3.37616e-11
3.95567e-08
-3.16235e-11
3.95711e-08
-2.96485e-11
3.95847e-08
-2.79115e-11
3.95975e-08
-2.65724e-11
3.96093e-08
-2.59825e-11
-2.67373e-11
5.53219e-08
2.47532e-09
-5.51679e-08
5.55238e-08
2.75322e-09
5.57418e-08
2.96157e-09
5.59589e-08
3.10455e-09
5.61663e-08
3.19285e-09
5.63562e-08
3.23346e-09
5.6522e-08
3.23171e-09
5.66592e-08
3.194e-09
5.67654e-08
3.12785e-09
5.68399e-08
3.04089e-09
5.68839e-08
2.94028e-09
5.68996e-08
2.83238e-09
5.68899e-08
2.72248e-09
5.68582e-08
2.61464e-09
5.6808e-08
2.51166e-09
5.67423e-08
2.41519e-09
5.66637e-08
2.32597e-09
5.65746e-08
2.24405e-09
5.64765e-08
2.16902e-09
5.63709e-08
2.10021e-09
5.62588e-08
2.03685e-09
5.61408e-08
1.97815e-09
5.60175e-08
1.92338e-09
5.58893e-08
1.87191e-09
5.57565e-08
1.8232e-09
5.56195e-08
1.7768e-09
5.54785e-08
1.73237e-09
5.53337e-08
1.68961e-09
5.51853e-08
1.6483e-09
5.50337e-08
1.60826e-09
5.4879e-08
1.56934e-09
5.47215e-08
1.53139e-09
5.45615e-08
1.49431e-09
5.43992e-08
1.45799e-09
5.42349e-08
1.42234e-09
5.40688e-08
1.38727e-09
5.39013e-08
1.35268e-09
5.37325e-08
1.31849e-09
5.35629e-08
1.28461e-09
5.33926e-08
1.25097e-09
5.32221e-08
1.21747e-09
5.30514e-08
1.18403e-09
5.28811e-08
1.15058e-09
5.27114e-08
1.11703e-09
5.25425e-08
1.0833e-09
5.2375e-08
1.04932e-09
5.2209e-08
1.015e-09
5.20449e-08
9.80276e-10
5.18832e-08
9.4507e-10
5.17241e-08
9.09312e-10
5.15681e-08
8.72933e-10
5.14155e-08
8.35867e-10
5.12667e-08
7.98052e-10
5.11222e-08
7.59427e-10
5.09823e-08
7.19929e-10
5.08474e-08
6.79498e-10
5.0718e-08
6.38067e-10
5.05944e-08
5.95571e-10
5.04771e-08
5.51949e-10
5.03663e-08
5.07165e-10
5.02624e-08
4.6124e-10
5.01654e-08
4.14304e-10
5.00755e-08
3.66656e-10
4.99927e-08
3.18819e-10
4.99167e-08
2.7155e-10
4.98477e-08
2.25771e-10
4.97853e-08
1.82426e-10
4.97295e-08
1.42286e-10
4.96799e-08
1.05915e-10
4.96357e-08
7.35643e-11
4.95954e-08
4.52462e-11
4.95589e-08
2.04553e-11
4.95275e-08
-1.15592e-12
4.95017e-08
-1.91696e-11
4.9481e-08
-3.35441e-11
4.94652e-08
-4.47477e-11
4.94539e-08
-5.32446e-11
4.94465e-08
-5.94677e-11
4.94428e-08
-6.38181e-11
4.94424e-08
-6.66554e-11
4.94448e-08
-6.82908e-11
4.94496e-08
-6.89858e-11
4.94567e-08
-6.89543e-11
4.94656e-08
-6.8368e-11
4.94762e-08
-6.73616e-11
4.94881e-08
-6.60395e-11
4.95012e-08
-6.44807e-11
4.95153e-08
-6.27445e-11
4.95301e-08
-6.08753e-11
4.95456e-08
-5.8906e-11
4.95616e-08
-5.68615e-11
4.9578e-08
-5.47619e-11
4.95946e-08
-5.26253e-11
4.96113e-08
-5.04708e-11
4.9628e-08
-4.83223e-11
4.96446e-08
-4.62146e-11
4.96609e-08
-4.42e-11
4.96767e-08
-4.23517e-11
4.96914e-08
-4.07069e-11
-3.87871e-11
6.12643e-08
2.34443e-09
-6.11334e-08
6.14393e-08
2.57824e-09
6.16357e-08
2.76518e-09
6.18378e-08
2.90246e-09
6.20362e-08
2.99445e-09
6.22238e-08
3.04587e-09
6.23946e-08
3.06085e-09
6.25444e-08
3.0442e-09
6.26706e-08
3.00165e-09
6.27722e-08
2.93925e-09
6.28497e-08
2.86282e-09
6.29044e-08
2.77766e-09
6.29386e-08
2.6883e-09
6.29548e-08
2.59839e-09
6.29559e-08
2.5106e-09
6.29444e-08
2.42671e-09
6.29226e-08
2.34774e-09
6.28926e-08
2.27409e-09
6.28558e-08
2.20576e-09
6.28136e-08
2.14241e-09
6.27669e-08
2.08359e-09
6.27163e-08
2.02877e-09
6.26623e-08
1.97741e-09
6.26051e-08
1.92902e-09
6.25452e-08
1.88317e-09
6.24825e-08
1.83948e-09
6.24172e-08
1.79764e-09
6.23494e-08
1.75739e-09
6.22792e-08
1.7185e-09
6.22067e-08
1.6808e-09
6.21319e-08
1.64414e-09
6.20549e-08
1.60838e-09
6.19758e-08
1.57339e-09
6.18947e-08
1.53908e-09
6.18118e-08
1.50533e-09
6.1727e-08
1.47205e-09
6.16405e-08
1.43914e-09
6.15525e-08
1.40651e-09
6.1463e-08
1.37406e-09
6.13723e-08
1.34171e-09
6.12804e-08
1.30935e-09
6.11876e-08
1.27689e-09
6.10939e-08
1.24426e-09
6.09996e-08
1.21135e-09
6.09048e-08
1.17807e-09
6.08098e-08
1.14433e-09
6.07147e-08
1.11006e-09
6.06198e-08
1.07515e-09
6.05254e-08
1.03953e-09
6.04316e-08
1.00311e-09
6.03387e-08
9.65825e-10
6.0247e-08
9.27586e-10
6.01567e-08
8.88326e-10
6.00682e-08
8.47976e-10
5.99816e-08
8.06469e-10
5.98974e-08
7.63745e-10
5.98157e-08
7.19742e-10
5.97368e-08
6.74412e-10
5.96611e-08
6.27723e-10
5.95886e-08
5.79683e-10
5.95194e-08
5.3037e-10
5.94538e-08
4.7998e-10
5.93915e-08
4.28869e-10
5.93328e-08
3.77588e-10
5.92774e-08
3.26881e-10
5.92256e-08
2.77622e-10
5.91773e-08
2.30696e-10
5.91327e-08
1.86863e-10
5.90919e-08
1.46706e-10
5.90549e-08
1.10576e-10
5.90216e-08
7.86303e-11
5.89912e-08
5.08227e-11
5.89632e-08
2.68367e-11
5.89378e-08
6.20762e-12
5.89155e-08
-1.12467e-11
5.88963e-08
-2.5545e-11
5.88801e-08
-3.70567e-11
5.88668e-08
-4.61742e-11
5.88563e-08
-5.32665e-11
5.88483e-08
-5.86727e-11
5.88427e-08
-6.26948e-11
5.88393e-08
-6.55933e-11
5.88379e-08
-6.75874e-11
5.88384e-08
-6.88575e-11
5.88406e-08
-6.95495e-11
5.88444e-08
-6.97791e-11
5.88495e-08
-6.96371e-11
5.8856e-08
-6.91933e-11
5.88636e-08
-6.85008e-11
5.88723e-08
-6.75995e-11
5.88819e-08
-6.65198e-11
5.88925e-08
-6.52846e-11
5.89038e-08
-6.39132e-11
5.89157e-08
-6.24229e-11
5.89282e-08
-6.08323e-11
5.89412e-08
-5.9162e-11
5.89544e-08
-5.74295e-11
5.89677e-08
-5.56155e-11
5.89804e-08
-5.34953e-11
-4.9926e-11
6.78291e-08
2.23113e-09
-6.77158e-08
6.79801e-08
2.42725e-09
6.81536e-08
2.59168e-09
6.83365e-08
2.71959e-09
6.85195e-08
2.81143e-09
6.86958e-08
2.86956e-09
6.88598e-08
2.89683e-09
6.90073e-08
2.8967e-09
6.91356e-08
2.87335e-09
6.92435e-08
2.83141e-09
6.93308e-08
2.77549e-09
6.93986e-08
2.70989e-09
6.94484e-08
2.63842e-09
6.94826e-08
2.56428e-09
6.95032e-08
2.48994e-09
6.95127e-08
2.41721e-09
6.95132e-08
2.34726e-09
6.95065e-08
2.28076e-09
6.94943e-08
2.218e-09
6.94777e-08
2.15897e-09
6.94578e-08
2.10348e-09
6.94353e-08
2.05125e-09
6.94108e-08
2.00193e-09
6.93846e-08
1.95521e-09
6.93571e-08
1.91074e-09
6.93283e-08
1.86826e-09
6.92984e-08
1.8275e-09
6.92676e-08
1.78824e-09
6.92358e-08
1.7503e-09
6.92031e-08
1.71351e-09
6.91695e-08
1.67773e-09
6.9135e-08
1.64283e-09
6.90997e-08
1.60869e-09
6.90636e-08
1.57521e-09
6.90267e-08
1.54228e-09
6.89889e-08
1.50979e-09
6.89504e-08
1.47766e-09
6.89111e-08
1.44578e-09
6.88711e-08
1.41405e-09
6.88305e-08
1.38239e-09
6.87891e-08
1.35068e-09
6.87472e-08
1.31884e-09
6.87047e-08
1.28676e-09
6.86617e-08
1.25434e-09
6.86182e-08
1.2215e-09
6.85744e-08
1.18814e-09
6.85304e-08
1.15415e-09
6.84861e-08
1.11944e-09
6.84417e-08
1.08393e-09
6.83972e-08
1.04753e-09
6.83529e-08
1.01014e-09
6.83088e-08
9.71688e-10
6.82651e-08
9.32099e-10
6.82217e-08
8.913e-10
6.8179e-08
8.49224e-10
6.81369e-08
8.05814e-10
6.80956e-08
7.61021e-10
6.80552e-08
7.14815e-10
6.80158e-08
6.67192e-10
6.79772e-08
6.18199e-10
6.79397e-08
5.67954e-10
6.7903e-08
5.16687e-10
6.78671e-08
4.64769e-10
6.78319e-08
4.12734e-10
6.77975e-08
3.61265e-10
6.7764e-08
3.11147e-10
6.77315e-08
2.63173e-10
6.77003e-08
2.18049e-10
6.76707e-08
1.76333e-10
6.76429e-08
1.38399e-10
6.76171e-08
1.04456e-10
6.75933e-08
7.45462e-11
6.75716e-08
4.85517e-11
6.75516e-08
2.62153e-11
6.75332e-08
7.13795e-12
6.75167e-08
-8.97829e-12
6.75019e-08
-2.23438e-11
6.74891e-08
-3.32896e-11
6.74779e-08
-4.21514e-11
6.74685e-08
-4.92447e-11
6.74607e-08
-5.48559e-11
6.74543e-08
-5.92383e-11
6.74493e-08
-6.26107e-11
6.74456e-08
-6.51577e-11
6.74431e-08
-6.70325e-11
6.74417e-08
-6.83602e-11
6.74413e-08
-6.92412e-11
6.74419e-08
-6.97551e-11
6.74433e-08
-6.99636e-11
6.74457e-08
-6.99139e-11
6.74488e-08
-6.96418e-11
6.74527e-08
-6.91735e-11
6.74573e-08
-6.85289e-11
6.74626e-08
-6.7723e-11
6.74685e-08
-6.67674e-11
6.7475e-08
-6.56681e-11
6.7482e-08
-6.44128e-11
6.74893e-08
-6.29253e-11
6.74967e-08
-6.0901e-11
-5.73311e-11
6.79919e-08
2.14046e-09
-6.79012e-08
6.81112e-08
2.30799e-09
6.82498e-08
2.45303e-09
6.83986e-08
2.57083e-09
6.85499e-08
2.6601e-09
6.86979e-08
2.72157e-09
6.88378e-08
2.75696e-09
6.89658e-08
2.76867e-09
6.90794e-08
2.75973e-09
6.91772e-08
2.73361e-09
6.92588e-08
2.69391e-09
6.93246e-08
2.6441e-09
6.93757e-08
2.58737e-09
6.94135e-08
2.52646e-09
6.94398e-08
2.46361e-09
6.94565e-08
2.40055e-09
6.94652e-08
2.33854e-09
6.94676e-08
2.2784e-09
6.9465e-08
2.2206e-09
6.94586e-08
2.16537e-09
6.94493e-08
2.11273e-09
6.9438e-08
2.0626e-09
6.94251e-08
2.01482e-09
6.94111e-08
1.96918e-09
6.93964e-08
1.92549e-09
6.93811e-08
1.88354e-09
6.93654e-08
1.84314e-09
6.93496e-08
1.80412e-09
6.93335e-08
1.76633e-09
6.93174e-08
1.72963e-09
6.93012e-08
1.69391e-09
6.9285e-08
1.65903e-09
6.92688e-08
1.6249e-09
6.92526e-08
1.59142e-09
6.92364e-08
1.55848e-09
6.92202e-08
1.52599e-09
6.9204e-08
1.49386e-09
6.91878e-08
1.46198e-09
6.91716e-08
1.43026e-09
6.91554e-08
1.3986e-09
6.91392e-08
1.36691e-09
6.91229e-08
1.33508e-09
6.91066e-08
1.30303e-09
6.90903e-08
1.27064e-09
6.9074e-08
1.23783e-09
6.90577e-08
1.20449e-09
6.90413e-08
1.17052e-09
6.90249e-08
1.13584e-09
6.90085e-08
1.10034e-09
6.89921e-08
1.06394e-09
6.89757e-08
1.02654e-09
6.89593e-08
9.88081e-10
6.89429e-08
9.4847e-10
6.89266e-08
9.07642e-10
6.89102e-08
8.65538e-10
6.8894e-08
8.22106e-10
6.88777e-08
7.77314e-10
6.88613e-08
7.31149e-10
6.88449e-08
6.83631e-10
6.88283e-08
6.34833e-10
6.88113e-08
5.84897e-10
6.87939e-08
5.34066e-10
6.8776e-08
4.82702e-10
6.87574e-08
4.31298e-10
6.87382e-08
3.80467e-10
6.87185e-08
3.30897e-10
6.86984e-08
2.83289e-10
6.86781e-08
2.38276e-10
6.86581e-08
1.96377e-10
6.86385e-08
1.57964e-10
6.86197e-08
1.23261e-10
6.86019e-08
9.2353e-11
6.85853e-08
6.51897e-11
6.85699e-08
4.16129e-11
6.85557e-08
2.13568e-11
6.85426e-08
4.0905e-12
6.85307e-08
-1.04785e-11
6.85201e-08
-2.26235e-11
6.85106e-08
-3.26472e-11
6.85022e-08
-4.0843e-11
6.84948e-08
-4.74822e-11
6.84884e-08
-5.28103e-11
6.84828e-08
-5.70441e-11
6.8478e-08
-6.0371e-11
6.84739e-08
-6.29507e-11
6.84705e-08
-6.49169e-11
6.84676e-08
-6.63799e-11
6.84653e-08
-6.74296e-11
6.84635e-08
-6.81377e-11
6.84621e-08
-6.85606e-11
6.84612e-08
-6.87415e-11
6.84608e-08
-6.8713e-11
6.84607e-08
-6.84984e-11
6.84611e-08
-6.81141e-11
6.84619e-08
-6.75688e-11
6.84631e-08
-6.68613e-11
6.84647e-08
-6.59671e-11
6.84665e-08
-6.48018e-11
6.84688e-08
-6.31241e-11
-6.03887e-11
7.52309e-08
2.05957e-09
-7.515e-08
7.53355e-08
2.20345e-09
7.54574e-08
2.33106e-09
7.55898e-08
2.43843e-09
7.57263e-08
2.52363e-09
7.58615e-08
2.58637e-09
7.5991e-08
2.62744e-09
7.61114e-08
2.64835e-09
7.62199e-08
2.65117e-09
7.63151e-08
2.63841e-09
7.63963e-08
2.61278e-09
7.64634e-08
2.57699e-09
7.65171e-08
2.53361e-09
7.65586e-08
2.48495e-09
7.65893e-08
2.43297e-09
7.66105e-08
2.37929e-09
7.6624e-08
2.32513e-09
7.66309e-08
2.27141e-09
7.66328e-08
2.21873e-09
7.66307e-08
2.1675e-09
7.66255e-08
2.11791e-09
7.66181e-08
2.07004e-09
7.6609e-08
2.02389e-09
7.65988e-08
1.97939e-09
7.65878e-08
1.93645e-09
7.65764e-08
1.89495e-09
7.65648e-08
1.85477e-09
7.65531e-08
1.81581e-09
7.65414e-08
1.77795e-09
7.653e-08
1.74109e-09
7.65188e-08
1.70512e-09
7.65079e-08
1.66996e-09
7.64973e-08
1.6355e-09
7.6487e-08
1.60167e-09
7.64771e-08
1.56837e-09
7.64676e-08
1.5355e-09
7.64585e-08
1.50299e-09
7.64497e-08
1.47073e-09
7.64413e-08
1.43865e-09
7.64333e-08
1.40663e-09
7.64256e-08
1.3746e-09
7.64182e-08
1.34245e-09
7.64112e-08
1.31008e-09
7.64044e-08
1.27741e-09
7.63979e-08
1.24433e-09
7.63916e-08
1.21075e-09
7.63856e-08
1.17657e-09
7.63797e-08
1.1417e-09
7.6374e-08
1.10604e-09
7.63685e-08
1.06952e-09
7.6363e-08
1.03204e-09
7.63575e-08
9.93526e-10
7.63521e-08
9.53913e-10
7.63466e-08
9.13135e-10
7.6341e-08
8.71141e-10
7.63352e-08
8.27892e-10
7.63291e-08
7.83371e-10
7.63227e-08
7.37582e-10
7.63158e-08
6.90568e-10
7.63082e-08
6.42421e-10
7.62998e-08
5.93298e-10
7.62904e-08
5.43441e-10
7.62799e-08
4.93193e-10
7.62682e-08
4.42999e-10
7.62553e-08
3.93396e-10
7.62412e-08
3.4498e-10
7.62261e-08
2.98357e-10
7.62103e-08
2.54084e-10
7.61941e-08
2.12633e-10
7.61777e-08
1.74358e-10
7.61614e-08
1.39489e-10
7.61457e-08
1.08136e-10
7.61306e-08
8.02936e-11
7.61163e-08
5.58595e-11
7.6103e-08
3.46467e-11
7.60907e-08
1.6405e-11
7.60794e-08
8.52585e-13
7.6069e-08
-1.22828e-11
7.60597e-08
-2.32694e-11
7.60512e-08
-3.23754e-11
7.60436e-08
-3.98562e-11
7.60367e-08
-4.59478e-11
7.60305e-08
-5.08629e-11
7.60249e-08
-5.47903e-11
7.60199e-08
-5.7895e-11
7.60153e-08
-6.03184e-11
7.60111e-08
-6.21809e-11
7.60072e-08
-6.35827e-11
7.60037e-08
-6.46065e-11
7.60005e-08
-6.53189e-11
7.59975e-08
-6.57726e-11
7.59948e-08
-6.60078e-11
7.59923e-08
-6.60542e-11
7.59902e-08
-6.59317e-11
7.59882e-08
-6.56509e-11
7.59866e-08
-6.521e-11
7.59852e-08
-6.45862e-11
7.59841e-08
-6.37179e-11
7.59835e-08
-6.2478e-11
-6.0743e-11
8.32264e-08
1.98815e-09
-8.3155e-08
8.33171e-08
2.11277e-09
8.34228e-08
2.22534e-09
8.35385e-08
2.32277e-09
8.3659e-08
2.40311e-09
8.37798e-08
2.46555e-09
8.3897e-08
2.51024e-09
8.40074e-08
2.53798e-09
8.41084e-08
2.55008e-09
8.41986e-08
2.54827e-09
8.42769e-08
2.5345e-09
8.4343e-08
2.51082e-09
8.43974e-08
2.47925e-09
8.44407e-08
2.44167e-09
8.44739e-08
2.39975e-09
8.44982e-08
2.35494e-09
8.4515e-08
2.30839e-09
8.45253e-08
2.26105e-09
8.45305e-08
2.2136e-09
8.45314e-08
2.16654e-09
8.45291e-08
2.12023e-09
8.45243e-08
2.07486e-09
8.45176e-08
2.03056e-09
8.45096e-08
1.98739e-09
8.45007e-08
1.94536e-09
8.44912e-08
1.90443e-09
8.44814e-08
1.86457e-09
8.44715e-08
1.82571e-09
8.44617e-08
1.7878e-09
8.4452e-08
1.75075e-09
8.44426e-08
1.71452e-09
8.44336e-08
1.67901e-09
8.44249e-08
1.64416e-09
8.44167e-08
1.60989e-09
8.4409e-08
1.57611e-09
8.44017e-08
1.54277e-09
8.43949e-08
1.50976e-09
8.43887e-08
1.477e-09
8.43829e-08
1.44441e-09
8.43776e-08
1.41191e-09
8.43728e-08
1.37939e-09
8.43685e-08
1.34677e-09
8.43646e-08
1.31396e-09
8.43612e-08
1.28086e-09
8.43581e-08
1.24738e-09
8.43554e-08
1.21343e-09
8.43531e-08
1.17892e-09
8.43511e-08
1.14375e-09
8.43493e-08
1.10784e-09
8.43477e-08
1.0711e-09
8.43462e-08
1.03347e-09
8.43449e-08
9.94857e-10
8.43436e-08
9.55211e-10
8.43423e-08
9.14475e-10
8.43408e-08
8.72608e-10
8.43391e-08
8.29586e-10
8.43371e-08
7.85403e-10
8.43346e-08
7.40083e-10
8.43315e-08
6.93686e-10
8.43276e-08
6.46317e-10
8.43227e-08
5.98142e-10
8.43168e-08
5.49398e-10
8.43096e-08
5.00402e-10
8.4301e-08
4.51551e-10
8.42911e-08
4.03315e-10
8.42799e-08
3.56206e-10
8.42675e-08
3.10745e-10
8.42541e-08
2.6742e-10
8.42401e-08
2.26653e-10
8.42257e-08
1.88774e-10
8.42112e-08
1.54012e-10
8.41968e-08
1.22494e-10
8.41829e-08
9.4249e-11
8.41695e-08
6.92169e-11
8.41569e-08
4.72644e-11
8.41451e-08
2.82009e-11
8.41341e-08
1.17974e-11
8.41241e-08
-2.19022e-12
8.41148e-08
-1.40142e-11
8.41063e-08
-2.39132e-11
8.40986e-08
-3.21274e-11
8.40915e-08
-3.88816e-11
8.40851e-08
-4.43836e-11
8.40791e-08
-4.88217e-11
8.40736e-08
-5.23646e-11
8.40684e-08
-5.51606e-11
8.40636e-08
-5.73386e-11
8.4059e-08
-5.90089e-11
8.40546e-08
-6.02644e-11
8.40505e-08
-6.11819e-11
8.40466e-08
-6.18236e-11
8.40428e-08
-6.22381e-11
8.40392e-08
-6.2462e-11
8.40358e-08
-6.25208e-11
8.40326e-08
-6.2429e-11
8.40295e-08
-6.21895e-11
8.40268e-08
-6.17904e-11
8.40242e-08
-6.12029e-11
8.40222e-08
-6.03957e-11
-5.94474e-11
9.20584e-08
1.9265e-09
-9.19968e-08
9.21355e-08
2.03574e-09
9.2225e-08
2.1358e-09
9.23234e-08
2.22436e-09
9.24268e-08
2.2997e-09
9.25315e-08
2.36083e-09
9.26343e-08
2.4075e-09
9.27323e-08
2.44e-09
9.28232e-08
2.4591e-09
9.29056e-08
2.46589e-09
9.29784e-08
2.46174e-09
9.30411e-08
2.44814e-09
9.30937e-08
2.42662e-09
9.31367e-08
2.39869e-09
9.31707e-08
2.36572e-09
9.31967e-08
2.32898e-09
9.32155e-08
2.28952e-09
9.32283e-08
2.24825e-09
9.3236e-08
2.20589e-09
9.32396e-08
2.16302e-09
9.32397e-08
2.12005e-09
9.32373e-08
2.07732e-09
9.32328e-08
2.03505e-09
9.32268e-08
1.99338e-09
9.32197e-08
1.95242e-09
9.32119e-08
1.91222e-09
9.32037e-08
1.87281e-09
9.31952e-08
1.83417e-09
9.31867e-08
1.7963e-09
9.31783e-08
1.75917e-09
9.31701e-08
1.72272e-09
9.31622e-08
1.68693e-09
9.31546e-08
1.65172e-09
9.31475e-08
1.61704e-09
9.31408e-08
1.58283e-09
9.31345e-08
1.54901e-09
9.31288e-08
1.51551e-09
9.31235e-08
1.48226e-09
9.31187e-08
1.44918e-09
9.31145e-08
1.41617e-09
9.31107e-08
1.38317e-09
9.31074e-08
1.35007e-09
9.31046e-08
1.31679e-09
9.31022e-08
1.28325e-09
9.31002e-08
1.24936e-09
9.30986e-08
1.21502e-09
9.30974e-08
1.18015e-09
9.30965e-08
1.14466e-09
9.30958e-08
1.10847e-09
9.30954e-08
1.07151e-09
9.30952e-08
1.0337e-09
9.30951e-08
9.94985e-10
9.3095e-08
9.55299e-10
9.30949e-08
9.14601e-10
9.30946e-08
8.72861e-10
9.30941e-08
8.30067e-10
9.30933e-08
7.86228e-10
9.3092e-08
7.41381e-10
9.30901e-08
6.956e-10
9.30874e-08
6.48999e-10
9.30838e-08
6.01747e-10
9.30791e-08
5.54072e-10
9.30733e-08
5.06267e-10
9.30661e-08
4.58687e-10
9.30577e-08
4.11742e-10
9.3048e-08
3.65874e-10
9.30372e-08
3.21534e-10
9.30255e-08
2.79149e-10
9.30131e-08
2.39095e-10
9.30002e-08
2.01678e-10
9.2987e-08
1.67122e-10
9.2974e-08
1.35565e-10
9.29612e-08
1.07061e-10
9.29488e-08
8.1585e-11
9.2937e-08
5.90472e-11
9.29259e-08
3.9302e-11
9.29155e-08
2.2165e-11
9.29059e-08
7.43674e-12
9.2897e-08
-5.12654e-12
9.28888e-08
-1.57256e-11
9.28813e-08
-2.45913e-11
9.28744e-08
-3.19358e-11
9.28679e-08
-3.79606e-11
9.2862e-08
-4.28533e-11
9.28564e-08
-4.67849e-11
9.28511e-08
-4.99092e-11
9.28462e-08
-5.23626e-11
9.28414e-08
-5.42641e-11
9.28369e-08
-5.57161e-11
9.28325e-08
-5.68048e-11
9.28283e-08
-5.76011e-11
9.28242e-08
-5.81617e-11
9.28203e-08
-5.85302e-11
9.28165e-08
-5.87381e-11
9.28129e-08
-5.88056e-11
9.28094e-08
-5.87428e-11
9.28062e-08
-5.85507e-11
9.28032e-08
-5.82283e-11
9.28006e-08
-5.77964e-11
-5.73821e-11
1.01816e-07
1.87539e-09
-1.01765e-07
1.01879e-07
1.97271e-09
1.01952e-07
2.06282e-09
1.02032e-07
2.14396e-09
1.02117e-07
2.21467e-09
1.02204e-07
2.274e-09
1.0229e-07
2.32146e-09
1.02373e-07
2.35704e-09
1.02451e-07
2.38111e-09
1.02523e-07
2.39432e-09