/*--------------------------------*- C++ -*----------------------------------*\
| =========                 |                                                 |
| \\      /  F ield         | OpenFOAM: The Open Source CFD Toolbox           |
|  \\    /   O peration     | Version:  2.3.0                                 |
|   \\  /    A nd           | Web:      www.OpenFOAM.org                      |
|    \\/     M anipulation  |                                                 |
\*---------------------------------------------------------------------------*/
FoamFile
{
    version     2.0;
    format      ascii;
    class       volVectorField;
    location    "0.3";
    object      U_0;
}
// * * * * * * * * * * * * * * * * * * * * * * * * * * * * * * * * * * * * * //

dimensions      [0 1 -1 0 0 0 0];

internalField   nonuniform List<vector> 
2000
(
(0.17039 0.00604829 0)
(0.153691 0.00611218 0)
(0.13764 0.00568332 0)
(0.12244 0.00507006 0)
(0.108507 0.00439065 0)
(0.0960171 0.00370007 0)
(0.084987 0.003037 0)
(0.0753839 0.00242859 0)
(0.0671493 0.00189162 0)
(0.0601931 0.00143474 0)
(0.0543938 0.0010599 0)
(0.0496095 0.00076335 0)
(0.0456903 0.000537036 0)
(0.0424887 0.000370373 0)
(0.039868 0.00025197 0)
(0.0377075 0.000170939 0)
(0.0359054 0.000117686 0)
(0.0343789 8.42501e-05 0)
(0.0330632 6.43436e-05 0)
(0.0319093 5.32195e-05 0)
(0.0308805 4.74549e-05 0)
(0.0299506 4.4702e-05 0)
(0.0291006 4.34405e-05 0)
(0.0283171 4.27525e-05 0)
(0.0275905 4.21339e-05 0)
(0.0269138 4.13471e-05 0)
(0.0262816 4.03143e-05 0)
(0.0256898 3.90437e-05 0)
(0.0251349 3.75836e-05 0)
(0.024614 3.5994e-05 0)
(0.0241244 3.43327e-05 0)
(0.0236639 3.2648e-05 0)
(0.0232302 3.09769e-05 0)
(0.0228214 2.93459e-05 0)
(0.0224358 2.77722e-05 0)
(0.0220717 2.62659e-05 0)
(0.0217277 2.48318e-05 0)
(0.0214024 2.3471e-05 0)
(0.0210945 2.2182e-05 0)
(0.0208031 2.09618e-05 0)
(0.0205272 1.98063e-05 0)
(0.0202659 1.87112e-05 0)
(0.0200183 1.76716e-05 0)
(0.0197839 1.66833e-05 0)
(0.0195621 1.57416e-05 0)
(0.0193522 1.48426e-05 0)
(0.0191539 1.39822e-05 0)
(0.0189667 1.3157e-05 0)
(0.0187901 1.23636e-05 0)
(0.018624 1.1599e-05 0)
(0.018468 1.08606e-05 0)
(0.0183219 1.01465e-05 0)
(0.0181855 9.45546e-06 0)
(0.0180585 8.78775e-06 0)
(0.0179409 8.14481e-06 0)
(0.0178323 7.52905e-06 0)
(0.0177328 6.94224e-06 0)
(0.0176421 6.38222e-06 0)
(0.0175602 5.83729e-06 0)
(0.017487 5.27843e-06 0)
(0.017423 4.6523e-06 0)
(0.0173686 3.88747e-06 0)
(0.0173248 2.95049e-06 0)
(0.0172933 1.93957e-06 0)
(0.0172763 1.06793e-06 0)
(0.0172752 1.27625e-07 0)
(0.017286 -9.02693e-07 0)
(0.0173062 -1.93214e-06 0)
(0.0173339 -2.76268e-06 0)
(0.0173672 -3.34406e-06 0)
(0.0174045 -3.70001e-06 0)
(0.0174441 -3.85566e-06 0)
(0.0174845 -3.86509e-06 0)
(0.0175245 -3.75978e-06 0)
(0.0175632 -3.56927e-06 0)
(0.0175999 -3.31912e-06 0)
(0.017634 -3.03225e-06 0)
(0.0176654 -2.72876e-06 0)
(0.0176938 -2.42476e-06 0)
(0.0177193 -2.13199e-06 0)
(0.017742 -1.85824e-06 0)
(0.0177621 -1.60796e-06 0)
(0.0177798 -1.3832e-06 0)
(0.0177953 -1.1842e-06 0)
(0.0178088 -1.01005e-06 0)
(0.0178206 -8.5917e-07 0)
(0.0178307 -7.29623e-07 0)
(0.0178396 -6.19356e-07 0)
(0.0178472 -5.26373e-07 0)
(0.0178538 -4.488e-07 0)
(0.0178595 -3.84987e-07 0)
(0.0178645 -3.33511e-07 0)
(0.0178688 -2.9325e-07 0)
(0.0178726 -2.6346e-07 0)
(0.0178761 -2.43943e-07 0)
(0.0178792 -2.35593e-07 0)
(0.0178822 -2.42412e-07 0)
(0.0178853 -2.83585e-07 0)
(0.0178885 -4.85767e-07 0)
(0.0179013 -1.83738e-06 0)
(0.189607 0.00957077 0)
(0.187403 0.0101066 0)
(0.183635 0.00990572 0)
(0.17864 0.00941983 0)
(0.172897 0.00878753 0)
(0.166745 0.00805696 0)
(0.160399 0.00726831 0)
(0.154024 0.00645892 0)
(0.147751 0.00566047 0)
(0.141679 0.00489916 0)
(0.135876 0.00419563 0)
(0.130383 0.00356414 0)
(0.125222 0.00301227 0)
(0.120397 0.0025414 0)
(0.115903 0.00214786 0)
(0.111728 0.00182441 0)
(0.107853 0.00156177 0)
(0.10426 0.00135 0)
(0.100927 0.00117949 0)
(0.0978321 0.00104163 0)
(0.0949562 0.000929138 0)
(0.09228 0.000836154 0)
(0.089786 0.000758105 0)
(0.087458 0.000691539 0)
(0.0852817 0.000633903 0)
(0.083244 0.000583333 0)
(0.0813332 0.000538478 0)
(0.0795388 0.000498347 0)
(0.0778515 0.000462208 0)
(0.0762626 0.000429502 0)
(0.0747647 0.000399786 0)
(0.073351 0.000372704 0)
(0.0720152 0.000347954 0)
(0.0707519 0.000325275 0)
(0.069556 0.000304442 0)
(0.0684232 0.000285252 0)
(0.0673492 0.000267527 0)
(0.0663305 0.000251105 0)
(0.0653639 0.000235845 0)
(0.0644464 0.000221619 0)
(0.0635753 0.000208313 0)
(0.0627483 0.000195828 0)
(0.0619632 0.000184073 0)
(0.0612183 0.00017297 0)
(0.0605118 0.000162448 0)
(0.0598422 0.000152446 0)
(0.0592082 0.000142907 0)
(0.0586086 0.000133784 0)
(0.0580425 0.000125031 0)
(0.0575089 0.000116611 0)
(0.0570071 0.000108489 0)
(0.0565364 0.000100637 0)
(0.0560962 9.30287e-05 0)
(0.0556861 8.56452e-05 0)
(0.0553057 7.84701e-05 0)
(0.0549547 7.14883e-05 0)
(0.0546327 6.46798e-05 0)
(0.0543398 5.80099e-05 0)
(0.0540759 5.14149e-05 0)
(0.0538414 4.47842e-05 0)
(0.0536369 3.79442e-05 0)
(0.0534635 3.06569e-05 0)
(0.0533227 2.26782e-05 0)
(0.0532163 1.38863e-05 0)
(0.0531459 4.41821e-06 0)
(0.0531147 -4.80831e-06 0)
(0.053123 -1.18015e-05 0)
(0.0531589 -1.63617e-05 0)
(0.0532153 -1.9516e-05 0)
(0.0532866 -2.17517e-05 0)
(0.0533682 -2.31566e-05 0)
(0.0534559 -2.36974e-05 0)
(0.0535465 -2.35055e-05 0)
(0.0536371 -2.27142e-05 0)
(0.0537257 -2.14863e-05 0)
(0.0538104 -1.99696e-05 0)
(0.0538903 -1.82878e-05 0)
(0.0539645 -1.65413e-05 0)
(0.0540329 -1.48077e-05 0)
(0.0540952 -1.31427e-05 0)
(0.0541516 -1.15827e-05 0)
(0.0542023 -1.01485e-05 0)
(0.0542478 -8.84922e-06 0)
(0.0542883 -7.68569e-06 0)
(0.0543244 -6.65335e-06 0)
(0.0543564 -5.74439e-06 0)
(0.0543847 -4.94936e-06 0)
(0.0544097 -4.25825e-06 0)
(0.0544317 -3.66121e-06 0)
(0.0544511 -3.14905e-06 0)
(0.0544682 -2.71356e-06 0)
(0.0544832 -2.3477e-06 0)
(0.0544965 -2.04595e-06 0)
(0.0545082 -1.80496e-06 0)
(0.0545186 -1.62501e-06 0)
(0.054528 -1.51453e-06 0)
(0.0545368 -1.50407e-06 0)
(0.0545453 -1.70097e-06 0)
(0.0545544 -2.54389e-06 0)
(0.054575 -5.86728e-06 0)
(0.192606 0.00909845 0)
(0.193411 0.0100669 0)
(0.193666 0.0104375 0)
(0.193207 0.0104815 0)
(0.19212 0.0102925 0)
(0.190505 0.00990693 0)
(0.188435 0.00936887 0)
(0.185986 0.0087286 0)
(0.183239 0.00803299 0)
(0.180272 0.0073222 0)
(0.177158 0.00662869 0)
(0.173957 0.00597627 0)
(0.170718 0.00538003 0)
(0.16748 0.00484709 0)
(0.164272 0.0043782 0)
(0.161115 0.00396966 0)
(0.158023 0.00361514 0)
(0.155006 0.00330724 0)
(0.15207 0.00303858 0)
(0.149217 0.00280244 0)
(0.146449 0.00259311 0)
(0.143766 0.00240592 0)
(0.141167 0.0022372 0)
(0.138653 0.00208407 0)
(0.136222 0.0019443 0)
(0.133873 0.00181617 0)
(0.131604 0.00169833 0)
(0.129414 0.00158967 0)
(0.127301 0.00148929 0)
(0.125264 0.00139642 0)
(0.123301 0.00131039 0)
(0.12141 0.00123058 0)
(0.119589 0.00115647 0)
(0.117836 0.00108754 0)
(0.11615 0.00102335 0)
(0.114529 0.000963466 0)
(0.112971 0.000907507 0)
(0.111473 0.000855115 0)
(0.110035 0.000805961 0)
(0.108654 0.000759747 0)
(0.10733 0.000716196 0)
(0.106061 0.000675057 0)
(0.104844 0.0006361 0)
(0.10368 0.000599117 0)
(0.102566 0.000563916 0)
(0.101502 0.000530323 0)
(0.100487 0.000498179 0)
(0.0995205 0.000467342 0)
(0.0986006 0.000437679 0)
(0.0977274 0.000409073 0)
(0.0969002 0.000381416 0)
(0.0961185 0.000354614 0)
(0.0953822 0.00032858 0)
(0.0946908 0.000303239 0)
(0.0940444 0.000278521 0)
(0.0934427 0.000254356 0)
(0.0928859 0.000230661 0)
(0.0923743 0.000207328 0)
(0.0919081 0.000184206 0)
(0.0914879 0.000161089 0)
(0.0911145 0.000137719 0)
(0.0907887 0.000113815 0)
(0.0905112 8.91457e-05 0)
(0.0902821 6.36159e-05 0)
(0.0900996 3.7307e-05 0)
(0.0899584 1.08604e-05 0)
(0.0898608 -1.39423e-05 0)
(0.0898219 -3.39656e-05 0)
(0.0898272 -4.74048e-05 0)
(0.0898654 -5.55215e-05 0)
(0.0899282 -6.01024e-05 0)
(0.0900088 -6.22022e-05 0)
(0.0901015 -6.24453e-05 0)
(0.0902015 -6.1144e-05 0)
(0.0903052 -5.86296e-05 0)
(0.0904094 -5.52409e-05 0)
(0.090512 -5.1294e-05 0)
(0.0906112 -4.70587e-05 0)
(0.0907058 -4.27486e-05 0)
(0.0907951 -3.85218e-05 0)
(0.0908786 -3.44869e-05 0)
(0.0909562 -3.07117e-05 0)
(0.0910279 -2.72323e-05 0)
(0.0910939 -2.40619e-05 0)
(0.0911545 -2.11983e-05 0)
(0.0912098 -1.86293e-05 0)
(0.0912603 -1.63374e-05 0)
(0.0913062 -1.43024e-05 0)
(0.0913478 -1.25037e-05 0)
(0.0913856 -1.09214e-05 0)
(0.0914198 -9.53752e-06 0)
(0.0914506 -8.33646e-06 0)
(0.0914784 -7.30598e-06 0)
(0.0915035 -6.43875e-06 0)
(0.0915262 -5.73621e-06 0)
(0.0915467 -5.21901e-06 0)
(0.0915654 -4.95817e-06 0)
(0.091583 -5.17595e-06 0)
(0.0915999 -6.603e-06 0)
(0.0916259 -1.11547e-05 0)
(0.193717 0.00839127 0)
(0.194769 0.00942256 0)
(0.195785 0.00999935 0)
(0.196557 0.0102726 0)
(0.197052 0.0103173 0)
(0.197268 0.0101645 0)
(0.197195 0.00984781 0)
(0.196829 0.00940855 0)
(0.196185 0.00888775 0)
(0.195289 0.00832249 0)
(0.194176 0.00774443 0)
(0.19288 0.00717871 0)
(0.191439 0.00664333 0)
(0.189884 0.00614927 0)
(0.188244 0.00570153 0)
(0.186543 0.00530052 0)
(0.1848 0.00494357 0)
(0.183029 0.00462622 0)
(0.18124 0.0043433 0)
(0.179443 0.00408962 0)
(0.177643 0.00386045 0)
(0.175845 0.00365168 0)
(0.174053 0.00345992 0)
(0.17227 0.00328246 0)
(0.170499 0.00311718 0)
(0.168742 0.00296242 0)
(0.167002 0.00281692 0)
(0.165281 0.00267969 0)
(0.163581 0.00254995 0)
(0.161903 0.00242707 0)
(0.160249 0.00231052 0)
(0.158621 0.00219984 0)
(0.157021 0.00209464 0)
(0.155448 0.00199454 0)
(0.153906 0.0018992 0)
(0.152394 0.00180831 0)
(0.150914 0.00172156 0)
(0.149467 0.00163867 0)
(0.148053 0.00155937 0)
(0.146673 0.0014834 0)
(0.145328 0.00141052 0)
(0.144019 0.00134049 0)
(0.142745 0.00127311 0)
(0.141509 0.00120815 0)
(0.14031 0.00114542 0)
(0.139149 0.00108475 0)
(0.138027 0.00102594 0)
(0.136944 0.000968849 0)
(0.135901 0.00091331 0)
(0.134899 0.000859181 0)
(0.133938 0.00080633 0)
(0.133019 0.000754631 0)
(0.132143 0.00070397 0)
(0.13131 0.00065424 0)
(0.130521 0.000605337 0)
(0.129778 0.000557151 0)
(0.129082 0.000509555 0)
(0.128432 0.000462393 0)
(0.12783 0.000415469 0)
(0.127278 0.000368547 0)
(0.126777 0.00032138 0)
(0.126326 0.000273794 0)
(0.125928 0.000225824 0)
(0.12558 0.000177928 0)
(0.125282 0.000131105 0)
(0.125031 8.62379e-05 0)
(0.124821 4.34051e-05 0)
(0.12464 3.85455e-06 0)
(0.124502 -3.06707e-05 0)
(0.124418 -5.81716e-05 0)
(0.124377 -7.73826e-05 0)
(0.124371 -8.94738e-05 0)
(0.124393 -9.62228e-05 0)
(0.124436 -9.89786e-05 0)
(0.124496 -9.8736e-05 0)
(0.124568 -9.62409e-05 0)
(0.124648 -9.21234e-05 0)
(0.124734 -8.69234e-05 0)
(0.124822 -8.10847e-05 0)
(0.124912 -7.49541e-05 0)
(0.125001 -6.87898e-05 0)
(0.125088 -6.27732e-05 0)
(0.125173 -5.70239e-05 0)
(0.125255 -5.16136e-05 0)
(0.125333 -4.6579e-05 0)
(0.125408 -4.19324e-05 0)
(0.125479 -3.76702e-05 0)
(0.125547 -3.3779e-05 0)
(0.12561 -3.02402e-05 0)
(0.12567 -2.70334e-05 0)
(0.125726 -2.41386e-05 0)
(0.125778 -2.15381e-05 0)
(0.125827 -1.92182e-05 0)
(0.125872 -1.71718e-05 0)
(0.125914 -1.54045e-05 0)
(0.125953 -1.39483e-05 0)
(0.125989 -1.29009e-05 0)
(0.126022 -1.25396e-05 0)
(0.126053 -1.36704e-05 0)
(0.12609 -1.81771e-05 0)
(0.194572 0.00783476 0)
(0.195429 0.00876665 0)
(0.196385 0.00935784 0)
(0.197289 0.00968976 0)
(0.198095 0.00982386 0)
(0.198783 0.00978933 0)
(0.199329 0.00961078 0)
(0.199711 0.00931789 0)
(0.199918 0.00894212 0)
(0.19995 0.00851324 0)
(0.199816 0.00805787 0)
(0.199531 0.00759833 0)
(0.199113 0.00715177 0)
(0.198582 0.00672996 0)
(0.197957 0.00633963 0)
(0.197255 0.00598342 0)
(0.196491 0.00566092 0)
(0.195677 0.00536978 0)
(0.194821 0.00510658 0)
(0.193931 0.00486753 0)
(0.193013 0.00464895 0)
(0.192071 0.00444754 0)
(0.191108 0.00426049 0)
(0.190126 0.00408549 0)
(0.189128 0.00392073 0)
(0.188117 0.00376477 0)
(0.187093 0.00361654 0)
(0.18606 0.00347516 0)
(0.185018 0.00333998 0)
(0.18397 0.00321046 0)
(0.182918 0.00308616 0)
(0.181862 0.00296669 0)
(0.180805 0.00285173 0)
(0.179749 0.00274096 0)
(0.178694 0.00263411 0)
(0.177643 0.00253091 0)
(0.176596 0.00243111 0)
(0.175557 0.00233446 0)
(0.174525 0.00224074 0)
(0.173502 0.00214972 0)
(0.17249 0.0020612 0)
(0.17149 0.00197496 0)
(0.170504 0.00189082 0)
(0.169533 0.0018086 0)
(0.168577 0.00172811 0)
(0.16764 0.00164919 0)
(0.166721 0.00157168 0)
(0.165823 0.00149543 0)
(0.164947 0.0014203 0)
(0.164094 0.00134615 0)
(0.163265 0.00127286 0)
(0.162463 0.00120032 0)
(0.161689 0.00112841 0)
(0.160944 0.00105703 0)
(0.160229 0.000986072 0)
(0.159547 0.000915433 0)
(0.158898 0.000844981 0)
(0.158285 0.000774564 0)
(0.157709 0.000704007 0)
(0.157171 0.000633131 0)
(0.156673 0.00056181 0)
(0.156216 0.000490067 0)
(0.1558 0.00041822 0)
(0.155425 0.000347034 0)
(0.15509 0.00027779 0)
(0.154794 0.000212189 0)
(0.154535 0.000151981 0)
(0.154311 9.74744e-05 0)
(0.154114 4.78353e-05 0)
(0.153935 3.7167e-06 0)
(0.153786 -3.36853e-05 0)
(0.153673 -6.34693e-05 0)
(0.153593 -8.52994e-05 0)
(0.153541 -0.000100197 0)
(0.153513 -0.000109538 0)
(0.153507 -0.000114488 0)
(0.153518 -0.000116015 0)
(0.153544 -0.000114945 0)
(0.153582 -0.00011198 0)
(0.153629 -0.000107696 0)
(0.153684 -0.000102555 0)
(0.153745 -9.6909e-05 0)
(0.15381 -9.10239e-05 0)
(0.153878 -8.50897e-05 0)
(0.153948 -7.92385e-05 0)
(0.154019 -7.35584e-05 0)
(0.154091 -6.81045e-05 0)
(0.154162 -6.29086e-05 0)
(0.154233 -5.79872e-05 0)
(0.154303 -5.33466e-05 0)
(0.154371 -4.89878e-05 0)
(0.154438 -4.491e-05 0)
(0.154503 -4.11141e-05 0)
(0.154565 -3.76064e-05 0)
(0.154625 -3.44056e-05 0)
(0.154682 -3.1557e-05 0)
(0.154736 -2.91671e-05 0)
(0.154787 -2.74917e-05 0)
(0.154835 -2.71729e-05 0)
(0.154887 -2.95422e-05 0)
(0.195329 0.00735431 0)
(0.195989 0.00815138 0)
(0.196766 0.00870695 0)
(0.19756 0.00905319 0)
(0.198322 0.00923003 0)
(0.19903 0.00926162 0)
(0.199664 0.00916731 0)
(0.200205 0.0089697 0)
(0.200638 0.00869367 0)
(0.200958 0.00836361 0)
(0.201167 0.00800172 0)
(0.201271 0.00762712 0)
(0.201278 0.00725509 0)
(0.201202 0.00689678 0)
(0.201054 0.00655932 0)
(0.200846 0.00624642 0)
(0.200588 0.00595911 0)
(0.20029 0.00569655 0)
(0.199957 0.00545673 0)
(0.199595 0.0052371 0)
(0.199209 0.00503496 0)
(0.198802 0.00484772 0)
(0.198374 0.00467311 0)
(0.197929 0.00450917 0)
(0.197468 0.00435429 0)
(0.196991 0.00420718 0)
(0.196499 0.0040668 0)
(0.195993 0.00393234 0)
(0.195475 0.00380314 0)
(0.194944 0.00367867 0)
(0.194402 0.00355849 0)
(0.19385 0.00344224 0)
(0.193289 0.00332959 0)
(0.192719 0.00322024 0)
(0.192142 0.00311394 0)
(0.191558 0.00301043 0)
(0.190968 0.00290948 0)
(0.190374 0.00281086 0)
(0.189776 0.00271436 0)
(0.189175 0.00261977 0)
(0.188573 0.0025269 0)
(0.18797 0.00243555 0)
(0.187368 0.00234554 0)
(0.186767 0.0022567 0)
(0.18617 0.00216885 0)
(0.185576 0.00208183 0)
(0.184987 0.00199548 0)
(0.184405 0.00190967 0)
(0.18383 0.00182424 0)
(0.183264 0.00173907 0)
(0.182709 0.00165404 0)
(0.182165 0.00156903 0)
(0.181634 0.00148393 0)
(0.181117 0.00139865 0)
(0.180617 0.00131308 0)
(0.180134 0.00122712 0)
(0.179669 0.00114066 0)
(0.179225 0.00105357 0)
(0.178802 0.000965748 0)
(0.178402 0.000877104 0)
(0.178026 0.00078767 0)
(0.177675 0.000697681 0)
(0.177349 0.000607703 0)
(0.177047 0.000518734 0)
(0.176771 0.000432216 0)
(0.176518 0.000349874 0)
(0.17629 0.00027336 0)
(0.176085 0.000203889 0)
(0.175903 0.000142391 0)
(0.175741 8.85765e-05 0)
(0.175595 4.13225e-05 0)
(0.17546 5.01769e-07 0)
(0.175342 -3.3437e-05 0)
(0.175245 -6.03609e-05 0)
(0.175166 -8.07562e-05 0)
(0.175105 -9.55701e-05 0)
(0.17506 -0.000105773 0)
(0.175029 -0.000112236 0)
(0.175013 -0.000115726 0)
(0.175008 -0.000116906 0)
(0.175013 -0.000116331 0)
(0.175028 -0.000114453 0)
(0.175051 -0.000111631 0)
(0.175081 -0.000108145 0)
(0.175117 -0.000104207 0)
(0.175158 -9.99764e-05 0)
(0.175203 -9.55712e-05 0)
(0.175252 -9.10759e-05 0)
(0.175305 -8.65515e-05 0)
(0.175359 -8.20421e-05 0)
(0.175416 -7.75804e-05 0)
(0.175473 -7.31923e-05 0)
(0.175532 -6.89018e-05 0)
(0.175592 -6.47351e-05 0)
(0.175651 -6.07276e-05 0)
(0.17571 -5.69341e-05 0)
(0.175769 -5.34486e-05 0)
(0.175825 -5.04383e-05 0)
(0.175879 -4.81746e-05 0)
(0.175939 -4.67263e-05 0)
(0.196008 0.00694552 0)
(0.196517 0.00761544 0)
(0.197132 0.00811877 0)
(0.197786 0.00845899 0)
(0.198438 0.0086563 0)
(0.199063 0.00872821 0)
(0.199641 0.00869022 0)
(0.200159 0.00855997 0)
(0.200603 0.00835717 0)
(0.20097 0.00810165 0)
(0.201256 0.00781184 0)
(0.201467 0.00750392 0)
(0.201608 0.00719122 0)
(0.201686 0.00688396 0)
(0.201712 0.00658925 0)
(0.201693 0.00631139 0)
(0.201637 0.00605241 0)
(0.201553 0.00581263 0)
(0.201444 0.00559123 0)
(0.201317 0.0053867 0)
(0.201174 0.00519719 0)
(0.201017 0.00502082 0)
(0.200849 0.00485581 0)
(0.200671 0.00470054 0)
(0.200483 0.00455364 0)
(0.200287 0.00441397 0)
(0.200082 0.00428057 0)
(0.199869 0.00415268 0)
(0.199648 0.00402964 0)
(0.199419 0.00391094 0)
(0.199183 0.00379613 0)
(0.19894 0.00368484 0)
(0.19869 0.00357674 0)
(0.198434 0.00347151 0)
(0.198171 0.00336888 0)
(0.197903 0.0032686 0)
(0.197629 0.00317042 0)
(0.19735 0.0030741 0)
(0.197066 0.00297942 0)
(0.196777 0.00288617 0)
(0.196485 0.00279412 0)
(0.19619 0.00270308 0)
(0.195892 0.00261286 0)
(0.195591 0.00252325 0)
(0.195289 0.00243408 0)
(0.194985 0.00234517 0)
(0.194682 0.00225635 0)
(0.194378 0.00216747 0)
(0.194076 0.00207837 0)
(0.193775 0.00198891 0)
(0.193477 0.00189896 0)
(0.193183 0.0018084 0)
(0.192893 0.00171711 0)
(0.192608 0.00162499 0)
(0.192329 0.00153195 0)
(0.192057 0.00143789 0)
(0.191793 0.00134271 0)
(0.191537 0.00124635 0)
(0.191292 0.00114875 0)
(0.191056 0.00104994 0)
(0.190831 0.000950104 0)
(0.190618 0.000849624 0)
(0.190415 0.000749225 0)
(0.190224 0.000650009 0)
(0.190043 0.000553437 0)
(0.189873 0.000461163 0)
(0.189715 0.000374777 0)
(0.189569 0.000295549 0)
(0.189434 0.000224333 0)
(0.189311 0.000161485 0)
(0.189201 0.000107072 0)
(0.189101 6.04107e-05 0)
(0.189009 2.05043e-05 0)
(0.188924 -1.30308e-05 0)
(0.18885 -4.03577e-05 0)
(0.188785 -6.19927e-05 0)
(0.18873 -7.86914e-05 0)
(0.188685 -9.12396e-05 0)
(0.188648 -0.000100362 0)
(0.18862 -0.000106702 0)
(0.1886 -0.000110816 0)
(0.188587 -0.00011317 0)
(0.188581 -0.000114147 0)
(0.188581 -0.000114054 0)
(0.188586 -0.000113135 0)
(0.188597 -0.000111578 0)
(0.188612 -0.000109528 0)
(0.188632 -0.000107095 0)
(0.188655 -0.000104361 0)
(0.188682 -0.000101389 0)
(0.188712 -9.8226e-05 0)
(0.188745 -9.49091e-05 0)
(0.188781 -9.14709e-05 0)
(0.188819 -8.79431e-05 0)
(0.188859 -8.43615e-05 0)
(0.1889 -8.07712e-05 0)
(0.188942 -7.72269e-05 0)
(0.188985 -7.3768e-05 0)
(0.189027 -7.02494e-05 0)
(0.189076 -6.54685e-05 0)
(0.196616 0.00659483 0)
(0.197013 0.00715352 0)
(0.197495 0.0075972 0)
(0.198023 0.00791742 0)
(0.198562 0.00812117 0)
(0.199089 0.00821924 0)
(0.199587 0.0082231 0)
(0.200042 0.00814598 0)
(0.200445 0.00800289 0)
(0.200789 0.0078094 0)
(0.201072 0.00758042 0)
(0.201297 0.0073294 0)
(0.201466 0.00706779 0)
(0.201587 0.00680476 0)
(0.201664 0.00654714 0)
(0.201706 0.00629954 0)
(0.201719 0.00606466 0)
(0.201709 0.00584375 0)
(0.20168 0.00563694 0)
(0.201637 0.00544363 0)
(0.201584 0.0052628 0)
(0.201521 0.00509324 0)
(0.201453 0.00493369 0)
(0.201379 0.00478295 0)
(0.201301 0.00463996 0)
(0.201219 0.00450377 0)
(0.201134 0.00437357 0)
(0.201046 0.00424866 0)
(0.200955 0.00412848 0)
(0.200862 0.00401253 0)
(0.200766 0.00390037 0)
(0.200667 0.00379164 0)
(0.200566 0.00368599 0)
(0.200462 0.00358313 0)
(0.200357 0.00348275 0)
(0.200248 0.00338461 0)
(0.200138 0.00328842 0)
(0.200025 0.00319396 0)
(0.199911 0.00310098 0)
(0.199794 0.00300925 0)
(0.199675 0.00291854 0)
(0.199555 0.00282864 0)
(0.199432 0.00273933 0)
(0.199309 0.0026504 0)
(0.199184 0.00256167 0)
(0.199058 0.00247293 0)
(0.19893 0.002384 0)
(0.198803 0.00229471 0)
(0.198675 0.00220489 0)
(0.198546 0.00211439 0)
(0.198418 0.00202306 0)
(0.19829 0.00193078 0)
(0.198164 0.00183741 0)
(0.198038 0.00174286 0)
(0.197914 0.00164703 0)
(0.197792 0.00154984 0)
(0.197671 0.00145122 0)
(0.197554 0.00135114 0)
(0.197439 0.00124964 0)
(0.197327 0.00114681 0)
(0.197217 0.00104292 0)
(0.19711 0.000938478 0)
(0.197006 0.000834242 0)
(0.196903 0.000731305 0)
(0.196803 0.000631033 0)
(0.196705 0.000534935 0)
(0.19661 0.00044446 0)
(0.196518 0.000360801 0)
(0.196431 0.00028481 0)
(0.196348 0.000216963 0)
(0.196271 0.000157397 0)
(0.1962 0.000105926 0)
(0.196135 6.20183e-05 0)
(0.196076 2.48403e-05 0)
(0.19602 -6.29538e-06 0)
(0.195971 -3.18839e-05 0)
(0.195926 -5.25189e-05 0)
(0.195887 -6.88817e-05 0)
(0.195853 -8.16404e-05 0)
(0.195824 -9.14044e-05 0)
(0.1958 -9.87114e-05 0)
(0.19578 -0.000104024 0)
(0.195764 -0.00010773 0)
(0.195753 -0.00011015 0)
(0.195744 -0.000111543 0)
(0.195739 -0.000112116 0)
(0.195737 -0.00011203 0)
(0.195738 -0.000111412 0)
(0.195741 -0.000110358 0)
(0.195747 -0.00010894 0)
(0.195756 -0.000107212 0)
(0.195767 -0.000105217 0)
(0.195779 -0.000102986 0)
(0.195794 -0.000100548 0)
(0.195811 -9.79269e-05 0)
(0.195829 -9.5146e-05 0)
(0.195849 -9.22113e-05 0)
(0.19587 -8.90525e-05 0)
(0.195892 -8.52751e-05 0)
(0.19592 -7.9288e-05 0)
(0.197133 0.00630167 0)
(0.197448 0.00677129 0)
(0.197829 0.00715952 0)
(0.198253 0.00745497 0)
(0.198694 0.00765741 0)
(0.199133 0.00777211 0)
(0.199555 0.00780671 0)
(0.199947 0.00777072 0)
(0.200299 0.00767527 0)
(0.200607 0.00753234 0)
(0.200868 0.00735381 0)
(0.201082 0.00715071 0)
(0.201251 0.00693277 0)
(0.201379 0.0067081 0)
(0.20147 0.00648306 0)
(0.201531 0.00626229 0)
(0.201567 0.00604893 0)
(0.201582 0.00584482 0)
(0.20158 0.00565082 0)
(0.201566 0.00546708 0)
(0.201543 0.00529327 0)
(0.201513 0.00512876 0)
(0.201477 0.0049728 0)
(0.201438 0.00482459 0)
(0.201396 0.00468335 0)
(0.201352 0.00454838 0)
(0.201307 0.00441904 0)
(0.201262 0.00429474 0)
(0.201215 0.00417501 0)
(0.201169 0.00405939 0)
(0.201122 0.0039475 0)
(0.201075 0.00383899 0)
(0.201028 0.00373354 0)
(0.200981 0.00363086 0)
(0.200934 0.00353066 0)
(0.200887 0.00343268 0)
(0.20084 0.00333668 0)
(0.200794 0.00324239 0)
(0.200747 0.00314958 0)
(0.2007 0.00305801 0)
(0.200653 0.00296746 0)
(0.200606 0.0028777 0)
(0.200559 0.00278851 0)
(0.200512 0.00269968 0)
(0.200465 0.002611 0)
(0.200418 0.00252227 0)
(0.200371 0.0024333 0)
(0.200323 0.00234391 0)
(0.200276 0.00225393 0)
(0.200229 0.00216319 0)
(0.200181 0.00207155 0)
(0.200134 0.00197887 0)
(0.200087 0.00188503 0)
(0.20004 0.00178992 0)
(0.199993 0.00169346 0)
(0.199946 0.00159559 0)
(0.199899 0.00149627 0)
(0.199852 0.0013955 0)
(0.199804 0.00129337 0)
(0.199757 0.00119006 0)
(0.199708 0.00108587 0)
(0.199658 0.000981341 0)
(0.199607 0.000877223 0)
(0.199554 0.000774529 0)
(0.199499 0.00067448 0)
(0.199442 0.0005784 0)
(0.199384 0.000487567 0)
(0.199326 0.000403068 0)
(0.199267 0.00032571 0)
(0.199209 0.000255985 0)
(0.199154 0.000194091 0)
(0.199101 0.000139956 0)
(0.199051 9.32648e-05 0)
(0.199005 5.34908e-05 0)
(0.198963 1.99122e-05 0)
(0.198924 -8.13882e-06 0)
(0.198888 -3.12586e-05 0)
(0.198856 -5.00558e-05 0)
(0.198827 -6.51446e-05 0)
(0.198801 -7.70993e-05 0)
(0.198779 -8.64372e-05 0)
(0.198759 -9.36126e-05 0)
(0.198742 -9.90164e-05 0)
(0.198728 -0.000102978 0)
(0.198715 -0.000105771 0)
(0.198705 -0.00010762 0)
(0.198696 -0.000108705 0)
(0.198689 -0.00010917 0)
(0.198683 -0.000109126 0)
(0.198678 -0.000108662 0)
(0.198675 -0.000107841 0)
(0.198674 -0.000106714 0)
(0.198673 -0.000105317 0)
(0.198674 -0.000103676 0)
(0.198676 -0.000101808 0)
(0.198679 -9.97218e-05 0)
(0.198683 -9.73909e-05 0)
(0.198688 -9.46988e-05 0)
(0.198694 -9.12446e-05 0)
(0.198704 -8.5894e-05 0)
(0.197592 0.00605449 0)
(0.197844 0.00645225 0)
(0.198146 0.00679043 0)
(0.198484 0.00705857 0)
(0.198841 0.00725331 0)
(0.199203 0.00737624 0)
(0.199554 0.00743189 0)
(0.199885 0.00742677 0)
(0.200187 0.00736892 0)
(0.200457 0.00726733 0)
(0.200689 0.00713122 0)
(0.200884 0.00696946 0)
(0.201042 0.00679012 0)
(0.201167 0.00660018 0)
(0.201261 0.00640536 0)
(0.201328 0.00621013 0)
(0.201372 0.00601774 0)
(0.201398 0.00583043 0)
(0.201409 0.00564955 0)
(0.201408 0.0054758 0)
(0.201398 0.00530941 0)
(0.201381 0.00515027 0)
(0.201358 0.00499805 0)
(0.201333 0.00485235 0)
(0.201305 0.00471269 0)
(0.201275 0.00457859 0)
(0.201245 0.0044496 0)
(0.201214 0.00432528 0)
(0.201183 0.00420525 0)
(0.201153 0.00408915 0)
(0.201123 0.00397664 0)
(0.201094 0.00386743 0)
(0.201066 0.00376122 0)
(0.201039 0.00365774 0)
(0.201012 0.00355674 0)
(0.200987 0.00345796 0)
(0.200963 0.00336117 0)
(0.200939 0.00326612 0)
(0.200917 0.00317257 0)
(0.200895 0.0030803 0)
(0.200875 0.00298909 0)
(0.200855 0.00289871 0)
(0.200836 0.00280894 0)
(0.200818 0.00271957 0)
(0.200801 0.0026304 0)
(0.200784 0.00254123 0)
(0.200768 0.00245186 0)
(0.200753 0.00236212 0)
(0.200738 0.00227183 0)
(0.200723 0.00218083 0)
(0.200709 0.00208898 0)
(0.200695 0.00199615 0)
(0.20068 0.00190221 0)
(0.200666 0.00180708 0)
(0.200652 0.00171069 0)
(0.200637 0.00161298 0)
(0.200621 0.00151396 0)
(0.200605 0.00141367 0)
(0.200587 0.00131223 0)
(0.200568 0.00120984 0)
(0.200547 0.00110687 0)
(0.200523 0.00100383 0)
(0.200497 0.000901423 0)
(0.200467 0.000800572 0)
(0.200434 0.00070234 0)
(0.200398 0.000607872 0)
(0.20036 0.000518276 0)
(0.200318 0.000434515 0)
(0.200276 0.000357333 0)
(0.200232 0.000287217 0)
(0.200189 0.0002244 0)
(0.200147 0.000168879 0)
(0.200107 0.000120442 0)
(0.200068 7.87011e-05 0)
(0.200032 4.31246e-05 0)
(0.199999 1.30899e-05 0)
(0.199968 -1.20064e-05 0)
(0.19994 -3.27383e-05 0)
(0.199914 -4.9674e-05 0)
(0.199891 -6.33499e-05 0)
(0.19987 -7.42615e-05 0)
(0.199851 -8.28536e-05 0)
(0.199834 -8.9517e-05 0)
(0.199819 -9.4589e-05 0)
(0.199805 -9.83568e-05 0)
(0.199793 -0.000101061 0)
(0.199781 -0.000102902 0)
(0.199771 -0.000104041 0)
(0.199761 -0.00010461 0)
(0.199752 -0.000104711 0)
(0.199744 -0.000104426 0)
(0.199737 -0.000103813 0)
(0.19973 -0.000102918 0)
(0.199724 -0.00010177 0)
(0.199719 -0.000100388 0)
(0.199715 -9.87719e-05 0)
(0.199711 -9.68894e-05 0)
(0.199708 -9.46359e-05 0)
(0.199705 -9.17468e-05 0)
(0.199705 -8.77523e-05 0)
(0.198012 0.00583423 0)
(0.198211 0.0061732 0)
(0.198448 0.00646779 0)
(0.198713 0.00670943 0)
(0.198997 0.00689378 0)
(0.199288 0.00702021 0)
(0.199574 0.00709087 0)
(0.199847 0.00710985 0)
(0.2001 0.00708267 0)
(0.200329 0.00701581 0)
(0.20053 0.0069162 0)
(0.200702 0.00679076 0)
(0.200845 0.00664602 0)
(0.200961 0.00648784 0)
(0.201052 0.00632124 0)
(0.20112 0.00615036 0)
(0.201168 0.00597843 0)
(0.201199 0.00580786 0)
(0.201217 0.00564037 0)
(0.201224 0.00547707 0)
(0.201221 0.00531861 0)
(0.201212 0.00516534 0)
(0.201198 0.00501732 0)
(0.201181 0.00487447 0)
(0.20116 0.00473662 0)
(0.201138 0.00460353 0)
(0.201115 0.00447492 0)
(0.201092 0.00435053 0)
(0.201068 0.00423008 0)
(0.201045 0.00411329 0)
(0.201022 0.00399991 0)
(0.201 0.00388969 0)
(0.200979 0.00378237 0)
(0.200959 0.00367773 0)
(0.20094 0.00357552 0)
(0.200922 0.00347552 0)
(0.200906 0.0033775 0)
(0.20089 0.00328124 0)
(0.200876 0.00318651 0)
(0.200863 0.00309309 0)
(0.200851 0.00300077 0)
(0.200841 0.00290933 0)
(0.200831 0.00281856 0)
(0.200822 0.00272826 0)
(0.200815 0.00263822 0)
(0.200808 0.00254826 0)
(0.200802 0.00245819 0)
(0.200797 0.00236782 0)
(0.200792 0.00227701 0)
(0.200789 0.00218558 0)
(0.200785 0.00209341 0)
(0.200782 0.00200038 0)
(0.200779 0.00190637 0)
(0.200776 0.00181132 0)
(0.200772 0.00171517 0)
(0.200769 0.00161789 0)
(0.200764 0.00151951 0)
(0.200759 0.00142011 0)
(0.200752 0.00131983 0)
(0.200743 0.00121892 0)
(0.200733 0.00111773 0)
(0.200719 0.00101676 0)
(0.200703 0.000916677 0)
(0.200684 0.000818276 0)
(0.200661 0.000722481 0)
(0.200636 0.00063027 0)
(0.200607 0.000542592 0)
(0.200576 0.000460288 0)
(0.200543 0.000384028 0)
(0.200508 0.000314276 0)
(0.200473 0.000251283 0)
(0.200439 0.0001951 0)
(0.200405 0.000145588 0)
(0.200372 0.000102459 0)
(0.200342 6.5296e-05 0)
(0.200313 3.35987e-05 0)
(0.200286 6.82639e-06 0)
(0.200261 -1.55572e-05 0)
(0.200238 -3.40825e-05 0)
(0.200217 -4.92454e-05 0)
(0.200198 -6.15165e-05 0)
(0.200181 -7.13272e-05 0)
(0.200165 -7.90644e-05 0)
(0.20015 -8.50701e-05 0)
(0.200136 -8.96419e-05 0)
(0.200124 -9.30352e-05 0)
(0.200112 -9.54665e-05 0)
(0.200101 -9.71169e-05 0)
(0.20009 -9.81352e-05 0)
(0.20008 -9.86418e-05 0)
(0.200071 -9.87319e-05 0)
(0.200061 -9.84789e-05 0)
(0.200053 -9.79369e-05 0)
(0.200044 -9.71437e-05 0)
(0.200037 -9.61209e-05 0)
(0.200029 -9.4872e-05 0)
(0.200022 -9.33746e-05 0)
(0.200016 -9.15663e-05 0)
(0.200011 -8.93407e-05 0)
(0.200006 -8.66905e-05 0)
(0.1984 0.00564208 0)
(0.198554 0.00593362 0)
(0.198736 0.00619123 0)
(0.198939 0.00640832 0)
(0.199159 0.00658065 0)
(0.199385 0.00670657 0)
(0.199611 0.00678666 0)
(0.199829 0.0068232 0)
(0.200034 0.00681977 0)
(0.200222 0.00678085 0)
(0.20039 0.00671149 0)
(0.200536 0.00661692 0)
(0.200661 0.00650228 0)
(0.200764 0.00637238 0)
(0.200846 0.00623149 0)
(0.20091 0.00608334 0)
(0.200958 0.00593096 0)
(0.200992 0.00577683 0)
(0.201013 0.00562282 0)
(0.201025 0.00547034 0)
(0.201029 0.00532038 0)
(0.201026 0.00517359 0)
(0.201018 0.00503039 0)
(0.201006 0.004891 0)
(0.200992 0.0047555 0)
(0.200976 0.00462387 0)
(0.200958 0.00449605 0)
(0.20094 0.00437189 0)
(0.200922 0.00425126 0)
(0.200904 0.00413398 0)
(0.200886 0.00401987 0)
(0.200868 0.00390873 0)
(0.200852 0.00380038 0)
(0.200836 0.0036946 0)
(0.200821 0.0035912 0)
(0.200807 0.00348997 0)
(0.200794 0.00339071 0)
(0.200782 0.0032932 0)
(0.200772 0.00319724 0)
(0.200762 0.00310262 0)
(0.200753 0.00300913 0)
(0.200746 0.00291657 0)
(0.200739 0.00282473 0)
(0.200734 0.00273343 0)
(0.200729 0.00264246 0)
(0.200726 0.00255164 0)
(0.200723 0.00246079 0)
(0.20072 0.00236975 0)
(0.200719 0.00227836 0)
(0.200718 0.00218647 0)
(0.200717 0.00209396 0)
(0.200717 0.00200071 0)
(0.200717 0.00190664 0)
(0.200716 0.00181169 0)
(0.200716 0.00171581 0)
(0.200715 0.00161902 0)
(0.200714 0.00152135 0)
(0.200711 0.00142292 0)
(0.200708 0.00132389 0)
(0.200702 0.00122452 0)
(0.200695 0.00112516 0)
(0.200686 0.0010263 0)
(0.200674 0.000928523 0)
(0.20066 0.000832546 0)
(0.200643 0.000739162 0)
(0.200622 0.000649206 0)
(0.2006 0.000563491 0)
(0.200575 0.000482748 0)
(0.200549 0.000407576 0)
(0.200521 0.000338409 0)
(0.200492 0.000275509 0)
(0.200464 0.000218963 0)
(0.200436 0.000168699 0)
(0.200409 0.000124504 0)
(0.200383 8.60529e-05 0)
(0.200358 5.29375e-05 0)
(0.200335 2.46974e-05 0)
(0.200313 8.50755e-07 0)