/*--------------------------------*- C++ -*----------------------------------*\
| =========                 |                                                 |
| \\      /  F ield         | OpenFOAM: The Open Source CFD Toolbox           |
|  \\    /   O peration     | Version:  2.3.0                                 |
|   \\  /    A nd           | Web:      www.OpenFOAM.org                      |
|    \\/     M anipulation  |                                                 |
\*---------------------------------------------------------------------------*/
FoamFile
{
    version     2.0;
    format      ascii;
    class       volVectorField;
    location    "0.85";
    object      U_0;
}
// * * * * * * * * * * * * * * * * * * * * * * * * * * * * * * * * * * * * * //

dimensions      [0 1 -1 0 0 0 0];

internalField   nonuniform List<vector> 
3375
(
(0.173408 0.00612068 0)
(0.156945 0.00611027 0)
(0.141076 0.00565605 0)
(0.126071 0.00504276 0)
(0.112321 0.00437286 0)
(0.099975 0.00369683 0)
(0.0890392 0.00305055 0)
(0.0794816 0.0024583 0)
(0.0712478 0.00193461 0)
(0.0642537 0.00148678 0)
(0.058387 0.00111631 0)
(0.0535164 0.000819728 0)
(0.0495025 0.000589807 0)
(0.0462074 0.000417051 0)
(0.043502 0.000291167 0)
(0.0412707 0.00020221 0)
(0.0394142 0.000141296 0)
(0.0378505 0.000100949 0)
(0.0365139 7.51539e-05 0)
(0.035353 5.92724e-05 0)
(0.034329 4.98616e-05 0)
(0.0334126 4.44687e-05 0)
(0.0325823 4.14214e-05 0)
(0.0318221 3.96336e-05 0)
(0.0311205 3.84397e-05 0)
(0.0304689 3.746e-05 0)
(0.0298606 3.65e-05 0)
(0.0292905 3.54772e-05 0)
(0.0287546 3.43723e-05 0)
(0.0282495 3.31976e-05 0)
(0.0277724 3.19777e-05 0)
(0.0273207 3.07397e-05 0)
(0.0268924 2.95072e-05 0)
(0.0264854 2.82993e-05 0)
(0.026098 2.71294e-05 0)
(0.0257287 2.60063e-05 0)
(0.025376 2.49351e-05 0)
(0.0250387 2.3918e-05 0)
(0.0247156 2.29551e-05 0)
(0.0244058 2.20451e-05 0)
(0.0241081 2.1186e-05 0)
(0.0238219 2.03751e-05 0)
(0.0235463 1.96096e-05 0)
(0.0232806 1.88866e-05 0)
(0.0230243 1.82033e-05 0)
(0.0227766 1.75568e-05 0)
(0.0225371 1.69445e-05 0)
(0.0223053 1.63641e-05 0)
(0.0220808 1.58133e-05 0)
(0.0218631 1.529e-05 0)
(0.0216519 1.47923e-05 0)
(0.0214468 1.43185e-05 0)
(0.0212475 1.3867e-05 0)
(0.0210538 1.34363e-05 0)
(0.0208653 1.30251e-05 0)
(0.0206818 1.26321e-05 0)
(0.020503 1.22562e-05 0)
(0.0203288 1.18964e-05 0)
(0.0201589 1.15516e-05 0)
(0.0199932 1.12211e-05 0)
(0.0198314 1.0904e-05 0)
(0.0196734 1.05996e-05 0)
(0.0195191 1.0307e-05 0)
(0.0193683 1.00259e-05 0)
(0.0192208 9.75538e-06 0)
(0.0190765 9.49506e-06 0)
(0.0189353 9.24439e-06 0)
(0.0187972 9.00288e-06 0)
(0.0186618 8.77009e-06 0)
(0.0185293 8.54558e-06 0)
(0.0183994 8.32899e-06 0)
(0.0182722 8.11992e-06 0)
(0.0181474 7.91805e-06 0)
(0.018025 7.72306e-06 0)
(0.0179049 7.53466e-06 0)
(0.0177871 7.35255e-06 0)
(0.0176714 7.17644e-06 0)
(0.0175579 7.00612e-06 0)
(0.0174464 6.84137e-06 0)
(0.0173369 6.68196e-06 0)
(0.0172293 6.52766e-06 0)
(0.0171235 6.37829e-06 0)
(0.0170196 6.23369e-06 0)
(0.0169173 6.09367e-06 0)
(0.0168168 5.95805e-06 0)
(0.0167179 5.82673e-06 0)
(0.0166207 5.69952e-06 0)
(0.0165249 5.57629e-06 0)
(0.0164307 5.45685e-06 0)
(0.0163379 5.34108e-06 0)
(0.0162465 5.22888e-06 0)
(0.0161566 5.12013e-06 0)
(0.0160679 5.01492e-06 0)
(0.0159805 4.91372e-06 0)
(0.0158944 4.8184e-06 0)
(0.0158094 4.73485e-06 0)
(0.0157254 4.68638e-06 0)
(0.0156412 4.65952e-06 0)
(0.0155693 3.87307e-06 0)
(0.0153541 2.94508e-05 0)
(0.192284 0.00952761 0)
(0.190142 0.00993608 0)
(0.186381 0.00968263 0)
(0.181397 0.00918098 0)
(0.175684 0.00854816 0)
(0.169576 0.00782779 0)
(0.16329 0.00705782 0)
(0.156992 0.00627239 0)
(0.150816 0.0055 0)
(0.14486 0.00476418 0)
(0.139192 0.00408349 0)
(0.133853 0.00347083 0)
(0.128861 0.00293319 0)
(0.124221 0.00247206 0)
(0.119924 0.00208438 0)
(0.115956 0.00176385 0)
(0.112295 0.0015022 0)
(0.10892 0.00129041 0)
(0.105807 0.00111966 0)
(0.102932 0.000981876 0)
(0.100272 0.00087012 0)
(0.0978071 0.000778664 0)
(0.0955174 0.000702942 0)
(0.0933857 0.000639409 0)
(0.0913962 0.000585372 0)
(0.089535 0.000538807 0)
(0.0877896 0.000498208 0)
(0.0861492 0.000462452 0)
(0.0846039 0.000430695 0)
(0.0831451 0.000402298 0)
(0.0817651 0.000376765 0)
(0.0804573 0.000353701 0)
(0.0792154 0.000332789 0)
(0.0780341 0.000313766 0)
(0.0769085 0.00029641 0)
(0.0758343 0.000280533 0)
(0.0748075 0.00026597 0)
(0.0738246 0.000252579 0)
(0.0728825 0.000240237 0)
(0.0719783 0.000228834 0)
(0.0711092 0.000218275 0)
(0.0702731 0.000208476 0)
(0.0694677 0.000199362 0)
(0.0686911 0.000190867 0)
(0.0679414 0.000182934 0)
(0.067217 0.000175512 0)
(0.0665165 0.000168555 0)
(0.0658384 0.000162022 0)
(0.0651814 0.000155877 0)
(0.0645445 0.000150089 0)
(0.0639264 0.000144628 0)
(0.0633263 0.000139468 0)
(0.0627432 0.000134586 0)
(0.0621762 0.000129962 0)
(0.0616246 0.000125576 0)
(0.0610875 0.00012141 0)
(0.0605644 0.000117451 0)
(0.0600546 0.000113682 0)
(0.0595574 0.000110092 0)
(0.0590723 0.000106668 0)
(0.0585989 0.0001034 0)
(0.0581365 0.000100278 0)
(0.0576848 9.72923e-05 0)
(0.0572433 9.44353e-05 0)
(0.0568116 9.16991e-05 0)
(0.0563893 8.90765e-05 0)
(0.055976 8.65611e-05 0)
(0.0555715 8.41468e-05 0)
(0.0551754 8.18281e-05 0)
(0.0547873 7.95997e-05 0)
(0.0544071 7.74568e-05 0)
(0.0540344 7.5395e-05 0)
(0.0536689 7.34102e-05 0)
(0.0533105 7.14983e-05 0)
(0.0529588 6.9656e-05 0)
(0.0526138 6.78797e-05 0)
(0.052275 6.61663e-05 0)
(0.0519424 6.45129e-05 0)
(0.0516158 6.29168e-05 0)
(0.0512949 6.13753e-05 0)
(0.0509796 5.98862e-05 0)
(0.0506697 5.8447e-05 0)
(0.0503651 5.70559e-05 0)
(0.0500655 5.57106e-05 0)
(0.0497709 5.44094e-05 0)
(0.0494811 5.31506e-05 0)
(0.049196 5.19324e-05 0)
(0.0489154 5.07532e-05 0)
(0.0486392 4.96115e-05 0)
(0.0483673 4.85057e-05 0)
(0.0480995 4.74346e-05 0)
(0.0478358 4.6397e-05 0)
(0.047576 4.5393e-05 0)
(0.04732 4.4425e-05 0)
(0.0470677 4.35042e-05 0)
(0.0468188 4.26677e-05 0)
(0.0465729 4.20361e-05 0)
(0.0463278 4.19353e-05 0)
(0.0460981 4.55054e-05 0)
(0.0456631 0.000101859 0)
(0.195216 0.00893517 0)
(0.196164 0.00984486 0)
(0.196457 0.0101727 0)
(0.195975 0.0101859 0)
(0.194837 0.00997132 0)
(0.193155 0.00956628 0)
(0.191013 0.0090163 0)
(0.188496 0.00837064 0)
(0.185695 0.00767398 0)
(0.182695 0.00696426 0)
(0.179571 0.00627215 0)
(0.176385 0.00562038 0)
(0.173187 0.00502361 0)
(0.170016 0.0044892 0)
(0.166899 0.00401855 0)
(0.163857 0.00360879 0)
(0.160902 0.00325437 0)
(0.158041 0.00294849 0)
(0.155278 0.00268414 0)
(0.152614 0.00245474 0)
(0.150047 0.00225448 0)
(0.147576 0.0020785 0)
(0.145197 0.00192276 0)
(0.142908 0.00178405 0)
(0.140706 0.00165978 0)
(0.138586 0.00154787 0)
(0.136545 0.00144668 0)
(0.134581 0.00135484 0)
(0.13269 0.00127125 0)
(0.130868 0.00119497 0)
(0.129112 0.0011252 0)
(0.127421 0.00106127 0)
(0.125789 0.00100258 0)
(0.124215 0.000948606 0)
(0.122696 0.000898881 0)
(0.12123 0.000852995 0)
(0.119812 0.000810579 0)
(0.118443 0.000771306 0)
(0.117118 0.00073488 0)
(0.115835 0.00070104 0)
(0.114594 0.000669549 0)
(0.11339 0.000640195 0)
(0.112224 0.00061279 0)
(0.111093 0.000587164 0)
(0.109994 0.000563163 0)
(0.108928 0.00054065 0)
(0.107891 0.000519502 0)
(0.106884 0.000499608 0)
(0.105903 0.000480866 0)
(0.104949 0.000463187 0)
(0.10402 0.000446487 0)
(0.103115 0.000430694 0)
(0.102233 0.000415739 0)
(0.101372 0.000401561 0)
(0.100533 0.000388105 0)
(0.099713 0.00037532 0)
(0.0989127 0.00036316 0)
(0.0981308 0.000351582 0)
(0.0973667 0.000340547 0)
(0.0966195 0.000330021 0)
(0.0958888 0.000319971 0)
(0.0951737 0.000310367 0)
(0.0944738 0.000301181 0)
(0.0937885 0.000292388 0)
(0.0931173 0.000283965 0)
(0.0924596 0.000275891 0)
(0.0918151 0.000268145 0)
(0.0911832 0.000260709 0)
(0.0905635 0.000253566 0)
(0.0899556 0.0002467 0)
(0.0893591 0.000240097 0)
(0.0887737 0.000233742 0)
(0.088199 0.000227623 0)
(0.0876346 0.000221728 0)
(0.0870803 0.000216046 0)
(0.0865357 0.000210567 0)
(0.0860005 0.00020528 0)
(0.0854745 0.000200177 0)
(0.0849574 0.00019525 0)
(0.084449 0.000190491 0)
(0.0839489 0.000185891 0)
(0.083457 0.000181445 0)
(0.0829729 0.000177145 0)
(0.0824966 0.000172985 0)
(0.0820278 0.000168961 0)
(0.0815662 0.000165065 0)
(0.0811117 0.000161294 0)
(0.0806642 0.000157642 0)
(0.0802233 0.000154104 0)
(0.0797889 0.000150676 0)
(0.079361 0.000147354 0)
(0.0789392 0.000144135 0)
(0.0785234 0.000141016 0)
(0.0781135 0.000138005 0)
(0.0777093 0.000135127 0)
(0.0773104 0.000132471 0)
(0.0769164 0.00013033 0)
(0.0765251 0.000129837 0)
(0.0761456 0.000140263 0)
(0.0755815 0.000205875 0)
(0.196237 0.00823124 0)
(0.197525 0.00924409 0)
(0.198696 0.00977959 0)
(0.199561 0.0100125 0)
(0.200107 0.010018 0)
(0.200338 0.00982702 0)
(0.20025 0.0094754 0)
(0.199846 0.00900505 0)
(0.199149 0.00845663 0)
(0.198195 0.00786646 0)
(0.197024 0.00726561 0)
(0.195676 0.00667883 0)
(0.19419 0.00612401 0)
(0.192602 0.00561231 0)
(0.190941 0.00514909 0)
(0.189233 0.00473522 0)
(0.187497 0.00436842 0)
(0.185746 0.00404457 0)
(0.183993 0.00375866 0)
(0.182244 0.00350553 0)
(0.180505 0.00328031 0)
(0.178781 0.00307869 0)
(0.177074 0.00289699 0)
(0.175387 0.00273214 0)
(0.17372 0.00258167 0)
(0.172076 0.00244359 0)
(0.170454 0.00231629 0)
(0.168858 0.0021985 0)
(0.167285 0.00208917 0)
(0.165739 0.00198745 0)
(0.164218 0.00189262 0)
(0.162723 0.00180407 0)
(0.161254 0.00172127 0)
(0.159812 0.00164376 0)
(0.158396 0.00157111 0)
(0.157006 0.00150297 0)
(0.155642 0.00143898 0)
(0.154305 0.00137884 0)
(0.152993 0.00132227 0)
(0.151706 0.001269 0)
(0.150444 0.0012188 0)
(0.149206 0.00117144 0)
(0.147992 0.00112673 0)
(0.146802 0.00108449 0)
(0.145635 0.00104453 0)
(0.144491 0.0010067 0)
(0.143368 0.000970861 0)
(0.142267 0.000936871 0)
(0.141187 0.000904609 0)
(0.140127 0.00087396 0)
(0.139087 0.000844819 0)
(0.138067 0.000817088 0)
(0.137066 0.000790677 0)
(0.136083 0.000765504 0)
(0.135118 0.00074149 0)
(0.13417 0.000718564 0)
(0.13324 0.00069666 0)
(0.132326 0.000675718 0)
(0.131428 0.00065568 0)
(0.130546 0.000636493 0)
(0.129679 0.000618108 0)
(0.128827 0.000600481 0)
(0.12799 0.000583568 0)
(0.127166 0.000567331 0)
(0.126356 0.000551733 0)
(0.12556 0.000536739 0)
(0.124777 0.000522318 0)
(0.124006 0.00050844 0)
(0.123248 0.000495077 0)
(0.122502 0.000482204 0)
(0.121767 0.000469796 0)
(0.121044 0.00045783 0)
(0.120333 0.000446286 0)
(0.119632 0.000435144 0)
(0.118941 0.000424383 0)
(0.118262 0.000413989 0)
(0.117592 0.000403942 0)
(0.116932 0.000394229 0)
(0.116281 0.000384835 0)
(0.115641 0.000375746 0)
(0.115009 0.000366949 0)
(0.114386 0.000358432 0)
(0.113772 0.000350184 0)
(0.113167 0.000342194 0)
(0.11257 0.000334452 0)
(0.111981 0.000326948 0)
(0.1114 0.000319673 0)
(0.110827 0.000312619 0)
(0.110262 0.000305776 0)
(0.109704 0.000299138 0)
(0.109153 0.000292696 0)
(0.10861 0.000286445 0)
(0.108073 0.000280382 0)
(0.107544 0.000274515 0)
(0.107021 0.000268887 0)
(0.106504 0.000263639 0)
(0.105993 0.000259257 0)
(0.105487 0.000257718 0)
(0.104992 0.000270232 0)
(0.104347 0.000327238 0)
(0.196966 0.00764191 0)
(0.198104 0.00859266 0)
(0.199298 0.00916017 0)
(0.200399 0.00945969 0)
(0.20137 0.00955832 0)
(0.202196 0.00948411 0)
(0.202852 0.00926298 0)
(0.203315 0.00892655 0)
(0.203578 0.00850741 0)
(0.203644 0.00803609 0)
(0.203527 0.00753984 0)
(0.203246 0.00704162 0)
(0.202822 0.00655916 0)
(0.202278 0.00610473 0)
(0.201637 0.00568553 0)
(0.200916 0.00530457 0)
(0.200133 0.0049617 0)
(0.199301 0.00465472 0)
(0.19843 0.00438022 0)
(0.197528 0.00413433 0)
(0.196601 0.00391315 0)
(0.195654 0.0037131 0)
(0.19469 0.00353105 0)
(0.193713 0.00336432 0)
(0.192723 0.00321072 0)
(0.191723 0.00306848 0)
(0.190715 0.00293616 0)
(0.189701 0.00281259 0)
(0.188681 0.00269684 0)
(0.187657 0.00258814 0)
(0.18663 0.00248584 0)
(0.185602 0.0023894 0)
(0.184573 0.00229834 0)
(0.183544 0.00221226 0)
(0.182517 0.00213078 0)
(0.181491 0.00205359 0)
(0.180469 0.00198037 0)
(0.17945 0.00191087 0)
(0.178435 0.00184484 0)
(0.177425 0.00178205 0)
(0.17642 0.00172228 0)
(0.175421 0.00166536 0)
(0.174428 0.0016111 0)
(0.173442 0.00155935 0)
(0.172463 0.00150994 0)
(0.171491 0.00146274 0)
(0.170527 0.00141762 0)
(0.16957 0.00137446 0)
(0.168622 0.00133314 0)
(0.167681 0.00129357 0)
(0.166749 0.00125565 0)
(0.165826 0.00121928 0)
(0.164911 0.00118438 0)
(0.164004 0.00115088 0)
(0.163107 0.0011187 0)
(0.162218 0.00108777 0)
(0.161338 0.00105802 0)
(0.160467 0.0010294 0)
(0.159604 0.00100185 0)
(0.158751 0.000975316 0)
(0.157906 0.000949749 0)
(0.15707 0.000925102 0)
(0.156243 0.00090133 0)
(0.155425 0.000878394 0)
(0.154615 0.000856252 0)
(0.153814 0.00083487 0)
(0.153021 0.000814213 0)
(0.152237 0.000794247 0)
(0.151462 0.000774942 0)
(0.150695 0.00075627 0)
(0.149935 0.000738203 0)
(0.149185 0.000720715 0)
(0.148442 0.000703781 0)
(0.147707 0.000687379 0)
(0.146981 0.000671487 0)
(0.146262 0.000656085 0)
(0.14555 0.000641152 0)
(0.144847 0.00062667 0)
(0.144151 0.000612622 0)
(0.143463 0.000598991 0)
(0.142782 0.000585761 0)
(0.142108 0.000572918 0)
(0.141441 0.000560448 0)
(0.140782 0.000548337 0)
(0.140129 0.000536572 0)
(0.139484 0.000525142 0)
(0.138845 0.000514034 0)
(0.138213 0.000503238 0)
(0.137587 0.000492743 0)
(0.136968 0.000482538 0)
(0.136356 0.000472614 0)
(0.13575 0.000462963 0)
(0.13515 0.000453583 0)
(0.134556 0.000444483 0)
(0.133968 0.00043572 0)
(0.133386 0.000427478 0)
(0.13281 0.000420386 0)
(0.132239 0.000416832 0)
(0.131682 0.000426507 0)
(0.131005 0.000463642 0)
(0.197592 0.00711744 0)
(0.198549 0.00796958 0)
(0.19961 0.0085249 0)
(0.200659 0.00884844 0)
(0.201657 0.00899243 0)
(0.202584 0.00898252 0)
(0.203419 0.00883986 0)
(0.204139 0.0085899 0)
(0.204731 0.00825989 0)
(0.205189 0.00787589 0)
(0.205516 0.00746158 0)
(0.20572 0.00703733 0)
(0.205812 0.00661946 0)
(0.205806 0.00621986 0)
(0.205716 0.00584616 0)
(0.205555 0.00550235 0)
(0.205336 0.00518952 0)
(0.205068 0.00490674 0)
(0.204759 0.00465183 0)
(0.204417 0.00442194 0)
(0.204045 0.00421404 0)
(0.203648 0.0040252 0)
(0.203227 0.00385275 0)
(0.202786 0.00369436 0)
(0.202325 0.00354807 0)
(0.201846 0.00341226 0)
(0.201351 0.00328559 0)
(0.200839 0.00316697 0)
(0.200312 0.0030555 0)
(0.19977 0.00295046 0)
(0.199215 0.00285122 0)
(0.198647 0.00275727 0)
(0.198067 0.00266817 0)
(0.197476 0.00258354 0)
(0.196875 0.00250304 0)
(0.196263 0.00242637 0)
(0.195643 0.00235326 0)
(0.195014 0.00228346 0)
(0.194377 0.00221677 0)
(0.193732 0.00215298 0)
(0.193082 0.00209191 0)
(0.192424 0.00203339 0)
(0.191762 0.00197726 0)
(0.191094 0.00192338 0)
(0.190422 0.00187163 0)
(0.189746 0.00182187 0)
(0.189066 0.00177401 0)
(0.188383 0.00172793 0)
(0.187697 0.00168354 0)
(0.187009 0.00164076 0)
(0.186319 0.00159949 0)
(0.185628 0.00155966 0)
(0.184935 0.00152121 0)
(0.184241 0.00148405 0)
(0.183547 0.00144814 0)
(0.182852 0.00141341 0)
(0.182158 0.00137981 0)
(0.181464 0.00134729 0)
(0.18077 0.0013158 0)
(0.180077 0.00128529 0)
(0.179386 0.00125572 0)
(0.178695 0.00122705 0)
(0.178006 0.00119925 0)
(0.177319 0.00117228 0)
(0.176633 0.00114611 0)
(0.17595 0.00112069 0)
(0.175269 0.00109602 0)
(0.17459 0.00107204 0)
(0.173914 0.00104875 0)
(0.17324 0.00102611 0)
(0.172569 0.0010041 0)
(0.171901 0.000982701 0)
(0.171236 0.000961884 0)
(0.170573 0.000941632 0)
(0.169915 0.000921924 0)
(0.169259 0.000902743 0)
(0.168607 0.00088407 0)
(0.167958 0.000865889 0)
(0.167312 0.000848183 0)
(0.166671 0.000830937 0)
(0.166032 0.000814136 0)
(0.165398 0.000797767 0)
(0.164767 0.000781816 0)
(0.16414 0.00076627 0)
(0.163516 0.000751117 0)
(0.162897 0.000736347 0)
(0.162281 0.000721946 0)
(0.161669 0.000707906 0)
(0.161061 0.000694214 0)
(0.160457 0.00068086 0)
(0.159856 0.000667836 0)
(0.15926 0.000655132 0)
(0.158667 0.000642747 0)
(0.158078 0.000630695 0)
(0.157494 0.000619036 0)
(0.156913 0.000607974 0)
(0.156336 0.000598162 0)
(0.155764 0.000591757 0)
(0.155208 0.00059499 0)
(0.154554 0.000607288 0)
(0.198144 0.00665865 0)
(0.198956 0.00741154 0)
(0.199878 0.0079378 0)
(0.200824 0.00826633 0)
(0.201752 0.00843332 0)
(0.202641 0.00846138 0)
(0.20347 0.00836906 0)
(0.204224 0.00817778 0)
(0.204888 0.00791078 0)
(0.205456 0.00759068 0)
(0.205929 0.00723818 0)
(0.20631 0.00687128 0)
(0.206606 0.00650477 0)
(0.206827 0.00614979 0)
(0.206982 0.00581396 0)
(0.207082 0.00550173 0)
(0.207136 0.005215 0)
(0.207151 0.00495376 0)
(0.207135 0.00471676 0)
(0.207092 0.00450197 0)
(0.207026 0.00430706 0)
(0.206939 0.00412963 0)
(0.206835 0.00396742 0)
(0.206715 0.0038184 0)
(0.206578 0.0036808 0)
(0.206427 0.00355314 0)
(0.206262 0.00343415 0)
(0.206082 0.00332281 0)
(0.205889 0.00321823 0)
(0.205682 0.00311972 0)
(0.205462 0.00302666 0)
(0.205229 0.00293856 0)
(0.204984 0.00285497 0)
(0.204727 0.00277553 0)
(0.204457 0.00269989 0)
(0.204176 0.00262778 0)
(0.203883 0.00255892 0)
(0.20358 0.00249308 0)
(0.203265 0.00243006 0)
(0.20294 0.00236965 0)
(0.202605 0.00231169 0)
(0.202259 0.00225602 0)
(0.201905 0.00220248 0)
(0.201541 0.00215095 0)
(0.201168 0.00210129 0)
(0.200786 0.00205341 0)
(0.200396 0.0020072 0)
(0.199997 0.00196255 0)
(0.199591 0.00191939 0)
(0.199178 0.00187762 0)
(0.198757 0.00183719 0)
(0.198329 0.00179801 0)
(0.197895 0.00176003 0)
(0.197455 0.00172317 0)
(0.197008 0.0016874 0)
(0.196556 0.00165266 0)
(0.196098 0.0016189 0)
(0.195635 0.00158607 0)
(0.195167 0.00155414 0)
(0.194694 0.00152307 0)
(0.194217 0.00149282 0)
(0.193736 0.00146336 0)
(0.19325 0.00143466 0)
(0.192761 0.00140669 0)
(0.192269 0.00137941 0)
(0.191773 0.00135281 0)
(0.191274 0.00132686 0)
(0.190773 0.00130154 0)
(0.190269 0.00127682 0)
(0.189762 0.00125269 0)
(0.189253 0.00122913 0)
(0.188743 0.00120611 0)
(0.18823 0.00118363 0)
(0.187716 0.00116166 0)
(0.1872 0.00114019 0)
(0.186683 0.0011192 0)
(0.186165 0.00109869 0)
(0.185646 0.00107863 0)
(0.185126 0.00105901 0)
(0.184606 0.00103983 0)
(0.184085 0.00102107 0)
(0.183563 0.00100271 0)
(0.183041 0.000984762 0)
(0.18252 0.000967199 0)
(0.181998 0.000950016 0)
(0.181476 0.000933204 0)
(0.180954 0.000916755 0)
(0.180433 0.000900658 0)
(0.179912 0.000884907 0)
(0.179392 0.000869491 0)
(0.178872 0.000854404 0)
(0.178353 0.000839638 0)
(0.177835 0.000825192 0)
(0.177317 0.000811081 0)
(0.176801 0.000797361 0)
(0.176285 0.000784216 0)
(0.175772 0.000772176 0)
(0.175262 0.000762654 0)
(0.174766 0.000757905 0)
(0.174191 0.000746266 0)
(0.198633 0.00625137 0)
(0.199335 0.00691129 0)
(0.200137 0.00739854 0)
(0.20098 0.00772035 0)
(0.201824 0.0078991 0)
(0.202645 0.00795314 0)
(0.203424 0.00789843 0)
(0.204147 0.00775283 0)
(0.204801 0.00753597 0)
(0.205381 0.00726736 0)
(0.205886 0.00696508 0)
(0.206317 0.00664514 0)
(0.20668 0.0063209 0)
(0.206982 0.00600279 0)
(0.207232 0.00569827 0)
(0.207436 0.0054121 0)
(0.207604 0.00514676 0)
(0.207742 0.00490297 0)
(0.207855 0.00468024 0)
(0.207947 0.00447725 0)
(0.208024 0.00429228 0)
(0.208086 0.00412344 0)
(0.208136 0.00396886 0)
(0.208176 0.0038268 0)
(0.208205 0.0036957 0)
(0.208225 0.00357421 0)
(0.208235 0.00346117 0)
(0.208237 0.00335559 0)
(0.20823 0.00325666 0)
(0.208213 0.00316367 0)
(0.208189 0.00307603 0)
(0.208155 0.00299323 0)
(0.208112 0.00291485 0)
(0.208061 0.00284049 0)
(0.208001 0.00276982 0)
(0.207931 0.00270255 0)
(0.207854 0.00263842 0)
(0.207767 0.00257719 0)
(0.207671 0.00251864 0)
(0.207567 0.00246257 0)
(0.207454 0.00240882 0)
(0.207333 0.00235722 0)
(0.207203 0.00230761 0)
(0.207064 0.00225988 0)
(0.206917 0.00221389 0)
(0.206761 0.00216953 0)
(0.206598 0.0021267 0)
(0.206426 0.00208529 0)
(0.206246 0.00204524 0)
(0.206058 0.00200644 0)
(0.205862 0.00196883 0)
(0.205658 0.00193234 0)
(0.205447 0.00189692 0)
(0.205228 0.00186249 0)
(0.205001 0.001829 0)
(0.204768 0.00179642 0)
(0.204527 0.00176468 0)
(0.20428 0.00173376 0)
(0.204025 0.0017036 0)
(0.203764 0.00167419 0)
(0.203497 0.00164547 0)
(0.203222 0.00161742 0)
(0.202942 0.00159002 0)
(0.202656 0.00156323 0)
(0.202363 0.00153703 0)
(0.202065 0.0015114 0)
(0.201762 0.00148632 0)
(0.201453 0.00146176 0)
(0.201138 0.00143771 0)
(0.200818 0.00141415 0)
(0.200494 0.00139106 0)
(0.200164 0.00136844 0)
(0.19983 0.00134626 0)
(0.199492 0.00132451 0)
(0.199149 0.00130318 0)
(0.198801 0.00128226 0)
(0.19845 0.00126173 0)
(0.198095 0.00124159 0)
(0.197736 0.00122183 0)
(0.197373 0.00120243 0)
(0.197007 0.00118339 0)
(0.196637 0.0011647 0)
(0.196264 0.00114636 0)
(0.195888 0.00112835 0)
(0.195509 0.00111066 0)
(0.195127 0.0010933 0)
(0.194743 0.00107626 0)
(0.194356 0.00105952 0)
(0.193966 0.00104309 0)
(0.193574 0.00102696 0)
(0.19318 0.00101111 0)
(0.192784 0.000995553 0)
(0.192386 0.000980277 0)
(0.191985 0.000965295 0)
(0.191584 0.000950648 0)
(0.19118 0.000936459 0)
(0.190776 0.000923022 0)
(0.190374 0.000910788 0)
(0.189983 0.000898594 0)
(0.189527 0.000868506 0)
(0.199069 0.00588182 0)
(0.199684 0.00645804 0)
(0.200388 0.00690223 0)
(0.201138 0.00721031 0)
(0.201902 0.00739404 0)
(0.202653 0.00746694 0)
(0.203375 0.00744211 0)
(0.204054 0.00733424 0)
(0.204677 0.00715964 0)
(0.20524 0.00693497 0)
(0.20574 0.00667599 0)
(0.206178 0.00639683 0)
(0.206559 0.00610958 0)
(0.206888 0.0058239 0)
(0.207171 0.00554701 0)
(0.207416 0.00528382 0)
(0.207628 0.00503724 0)
(0.207815 0.00480857 0)
(0.20798 0.00459794 0)
(0.208129 0.00440467 0)
(0.208265 0.00422758 0)
(0.20839 0.00406527 0)
(0.208506 0.00391624 0)
(0.208615 0.00377904 0)
(0.208717 0.00365235 0)
(0.208814 0.00353496 0)
(0.208905 0.00342582 0)
(0.208991 0.00332403 0)
(0.209072 0.0032288 0)
(0.209148 0.00313948 0)
(0.209219 0.00305547 0)
(0.209285 0.0029763 0)
(0.209346 0.00290153 0)
(0.209401 0.00283078 0)
(0.209452 0.00276371 0)
(0.209497 0.00270003 0)
(0.209537 0.00263948 0)
(0.209572 0.0025818 0)
(0.209601 0.00252679 0)
(0.209625 0.00247425 0)
(0.209643 0.002424 0)
(0.209655 0.00237586 0)
(0.209661 0.0023297 0)
(0.209662 0.00228537 0)
(0.209656 0.00224275 0)
(0.209645 0.00220171 0)
(0.209628 0.00216216 0)
(0.209604 0.00212399 0)
(0.209575 0.00208711 0)
(0.209539 0.00205144 0)
(0.209498 0.0020169 0)
(0.20945 0.00198342 0)
(0.209396 0.00195094 0)
(0.209336 0.0019194 0)
(0.20927 0.00188874 0)
(0.209197 0.0018589 0)
(0.209119 0.00182985 0)
(0.209034 0.00180154 0)
(0.208943 0.00177393 0)
(0.208846 0.00174698 0)
(0.208744 0.00172065 0)
(0.208635 0.00169493 0)
(0.20852 0.00166977 0)
(0.208399 0.00164515 0)
(0.208272 0.00162105 0)
(0.20814 0.00159743 0)
(0.208002 0.00157429 0)
(0.207858 0.0015516 0)
(0.207708 0.00152935 0)
(0.207553 0.00150751 0)
(0.207392 0.00148606 0)
(0.207226 0.00146501 0)
(0.207054 0.00144433 0)
(0.206877 0.001424 0)
(0.206695 0.00140403 0)
(0.206508 0.00138439 0)
(0.206316 0.00136507 0)
(0.206118 0.00134608 0)
(0.205916 0.0013274 0)
(0.205709 0.00130901 0)
(0.205497 0.00129092 0)
(0.205281 0.00127312 0)
(0.20506 0.0012556 0)
(0.204834 0.00123835 0)
(0.204604 0.00122138 0)
(0.20437 0.00120466 0)
(0.204132 0.00118821 0)
(0.203889 0.00117202 0)
(0.203643 0.00115607 0)
(0.203392 0.00114037 0)
(0.203138 0.00112491 0)
(0.20288 0.00110968 0)
(0.202618 0.00109468 0)
(0.202352 0.00107992 0)
(0.202083 0.00106541 0)
(0.201812 0.00105117 0)
(0.201537 0.00103723 0)
(0.201263 0.00102316 0)
(0.200995 0.00100554 0)
(0.200676 0.000964942 0)
(0.199458 0.00554077 0)
(0.200004 0.00604352 0)
(0.200626 0.00644444 0)
(0.201296 0.00673443 0)
(0.201986 0.00691794 0)
(0.202673 0.00700395 0)
(0.20334 0.00700276 0)
(0.203973 0.00692622 0)
(0.204561 0.00678778 0)
(0.2051 0.00660146 0)
(0.205585 0.00638084 0)
(0.206018 0.00613833 0)
(0.206401 0.00588472 0)
(0.206738 0.0056289 0)
(0.207034 0.00537775 0)
(0.207295 0.00513616 0)
(0.207527 0.00490734 0)
(0.207735 0.00469303 0)
(0.207923 0.00449387 0)
(0.208096 0.00430971 0)
(0.208257 0.00413986 0)
(0.208408 0.00398336 0)
(0.208552 0.00383905 0)
(0.208689 0.0037058 0)
(0.208821 0.00358249 0)
(0.208949 0.00346808 0)
(0.209073 0.00336166 0)
(0.209194 0.00326241 0)
(0.209312 0.0031696 0)
(0.209427 0.00308262 0)
(0.209539 0.00300092 0)
(0.209649 0.00292403 0)
(0.209756 0.00285153 0)
(0.20986 0.00278305 0)
(0.209961 0.00271826 0)
(0.210059 0.00265687 0)
(0.210155 0.00259863 0)
(0.210248 0.00254328 0)
(0.210337 0.00249061 0)
(0.210424 0.00244042 0)
(0.210508 0.00239254 0)
(0.210588 0.0023468 0)
(0.210665 0.00230304 0)
(0.210739 0.00226113 0)
(0.210809 0.00222093 0)
(0.210876 0.00218233 0)
(0.210939 0.00214521 0)
(0.210999 0.00210949 0)
(0.211055 0.00207506 0)
(0.211107 0.00204184 0)
(0.211155 0.00200974 0)
(0.2112 0.0019787 0)
(0.21124 0.00194866 0)
(0.211276 0.00191953 0)
(0.211308 0.00189128 0)
(0.211336 0.00186384 0)
(0.21136 0.00183716 0)
(0.21138 0.00181121 0)
(0.211395 0.00178593 0)
(0.211406 0.00176129 0)
(0.211413 0.00173725 0)
(0.211415 0.00171379 0)
(0.211413 0.00169086 0)
(0.211406 0.00166844 0)
(0.211395 0.00164651 0)
(0.211379 0.00162503 0)
(0.211358 0.00160399 0)
(0.211334 0.00158336 0)
(0.211304 0.00156313 0)
(0.21127 0.00154328 0)
(0.211232 0.00152379 0)
(0.211189 0.00150465 0)
(0.211141 0.00148583 0)
(0.211089 0.00146734 0)
(0.211032 0.00144914 0)
(0.210971 0.00143125 0)
(0.210905 0.00141364 0)
(0.210834 0.0013963 0)
(0.210759 0.00137923 0)
(0.21068 0.00136241 0)
(0.210596 0.00134585 0)
(0.210508 0.00132953 0)
(0.210415 0.00131344 0)
(0.210318 0.00129759 0)
(0.210216 0.00128196 0)
(0.21011 0.00126656 0)
(0.21 0.00125137 0)
(0.209886 0.00123639 0)
(0.209767 0.00122162 0)
(0.209644 0.00120706 0)
(0.209517 0.00119269 0)
(0.209385 0.00117851 0)
(0.20925 0.00116452 0)
(0.209111 0.0011507 0)
(0.208967 0.00113703 0)
(0.208821 0.00112346 0)
(0.208671 0.00110975 0)
(0.20852 0.00109487 0)
(0.20837 0.00107444 0)
(0.208183 0.00103131 0)
(0.199806 0.0052218 0)
(0.200297 0.00566081 0)
(0.200852 0.00602031 0)
(0.201452 0.00628972 0)
(0.202077 0.00646896 0)
(0.202704 0.00656332 0)
(0.203319 0.00658045 0)
(0.203908 0.00652979 0)
(0.204462 0.00642224 0)
(0.204975 0.00626946 0)
(0.205443 0.00608301 0)
(0.205866 0.00587366 0)
(0.206245 0.00565099 0)
(0.206584 0.00542306 0)
(0.206886 0.00519632 0)
(0.207156 0.00497556 0)
(0.207398 0.00476413 0)
(0.207618 0.00456408 0)
(0.207819 0.00437646 0)
(0.208005 0.00420155 0)
(0.208178 0.00403909 0)
(0.208342 0.00388848 0)
(0.208499 0.00374893 0)
(0.208649 0.00361956 0)
(0.208795 0.00349946 0)
(0.208936 0.00338778 0)
(0.209074 0.00328373 0)
(0.20921 0.00318658 0)
(0.209343 0.0030957 0)
(0.209473 0.00301051 0)
(0.209602 0.00293051 0)
(0.209729 0.00285524 0)
(0.209854 0.00278432 0)
(0.209978 0.00271739 0)
(0.2101 0.00265413 0)
(0.21022 0.00259426 0)
(0.210339 0.00253753 0)
(0.210456 0.0024837 0)
(0.210572 0.00243255 0)
(0.210686 0.0023839 0)
(0.210798 0.00233756 0)
(0.210909 0.00229337 0)
(0.211018 0.00225117 0)
(0.211125 0.00221084 0)
(0.21123 0.00217224 0)
(0.211334 0.00213526 0)
(0.211435 0.00209977 0)
(0.211535 0.00206569 0)
(0.211632 0.00203292 0)
(0.211728 0.00200138 0)
(0.211821 0.00197097 0)
(0.211913 0.00194163 0)
(0.212001 0.0019133 0)
(0.212088 0.0018859 0)
(0.212173 0.00185937 0)
(0.212254 0.00183367 0)
(0.212334 0.00180875 0)
(0.212411 0.00178455 0)
(0.212485 0.00176103 0)
(0.212557 0.00173815 0)
(0.212626 0.00171588 0)
(0.212693 0.00169417 0)
(0.212756 0.00167301 0)
(0.212817 0.00165235 0)
(0.212875 0.00163217 0)
(0.21293 0.00161245 0)
(0.212982 0.00159316 0)
(0.213031 0.00157427 0)
(0.213077 0.00155578 0)
(0.21312 0.00153765 0)
(0.21316 0.00151987 0)
(0.213197 0.00150243 0)
(0.21323 0.0014853 0)
(0.213261 0.00146848 0)
(0.213288 0.00145196 0)
(0.213311 0.00143571 0)
(0.213332 0.00141972 0)
(0.213349 0.001404 0)
(0.213363 0.00138852 0)
(0.213373 0.00137328 0)
(0.21338 0.00135828 0)
(0.213384 0.00134349 0)
(0.213384 0.00132892 0)
(0.213381 0.00131457 0)
(0.213374 0.00130041 0)
(0.213363 0.00128646 0)
(0.21335 0.0012727 0)
(0.213332 0.00125913 0)
(0.213311 0.00124574 0)
(0.213287 0.00123254 0)
(0.213259 0.00121951 0)
(0.213228 0.00120664 0)
(0.213193 0.00119392 0)
(0.213154 0.00118133 0)
(0.213112 0.00116882 0)
(0.213067 0.00115626 0)
(0.213019 0.00114323 0)
(0.212969 0.00112843 0)
(0.212917 0.00110764 0)
(0.212842 0.00106809 0)
(0.200119 0.00492029 0)
(0.200564 0.00530422 0)
(0.201063 0.00562523 0)
(0.201604 0.00587306 0)
(0.20217 0.00604511 0)
(0.202743 0.00614391 0)
(0.20331 0.00617487 0)
(0.203858 0.00614528 0)
(0.204378 0.00606386 0)
(0.204865 0.00594021 0)
(0.205315 0.00578403 0)
(0.205727 0.00560459 0)
(0.2061 0.00541028 0)
(0.206438 0.00520837 0)
(0.206742 0.00500478 0)
(0.207017 0.00480415 0)
(0.207267 0.00460983 0)
(0.207495 0.00442408 0)
(0.207705 0.00424825 0)
(0.2079 0.00408296 0)
(0.208082 0.00392831 0)
(0.208255 0.00378403 0)
(0.20842 0.00364962 0)
(0.208578 0.00352444 0)
(0.208731 0.00340782 0)
(0.20888 0.00329906 0)
(0.209026 0.0031975 0)
(0.209168 0.00310252 0)
(0.209308 0.00301356 0)
(0.209446 0.0029301 0)
(0.209583 0.00285168 0)
(0.209717 0.00277788 0)
(0.20985 0.00270835 0)
(0.209981 0.00264273 0)
(0.210112 0.00258074 0)
(0.210241 0.00252209 0)
(0.210369 0.00246655 0)
(0.210496 0.00241388 0)
(0.210622 0.00236388 0)
(0.210746 0.00231636 0)
(0.21087 0.00227114 0)
(0.210993 0.00222807 0)
(0.211115 0.002187 0)
(0.211235 0.00214778 0)
(0.211355 0.0021103 0)
(0.211474 0.00207444 0)
(0.211592 0.00204008 0)
(0.211708 0.00200714 0)
(0.211824 0.00197551 0)
(0.211938 0.00194511 0)
(0.212051 0.00191586 0)
(0.212163 0.00188769 0)
(0.212274 0.00186052 0)
(0.212384 0.0018343 0)
(0.212492 0.00180897 0)
(0.212599 0.00178447 0)
(0.212705 0.00176075 0)
(0.212809 0.00173776 0)
(0.212912 0.00171547 0)
(0.213014 0.00169382 0)
(0.213114 0.00167279 0)
(0.213213 0.00165233 0)
(0.21331 0.00163242 0)
(0.213405 0.00161303 0)
(0.213499 0.00159412 0)
(0.213592 0.00157567 0)
(0.213682 0.00155765 0)
(0.213771 0.00154005 0)
(0.213858 0.00152284 0)
(0.213944 0.001506 0)
(0.214027 0.00148952 0)
(0.214109 0.00147337 0)
(0.214189 0.00145755 0)
(0.214267 0.00144203 0)
(0.214342 0.0014268 0)
(0.214416 0.00141185 0)
(0.214488 0.00139717 0)
(0.214558 0.00138274 0)
(0.214625 0.00136856 0)
(0.214691 0.00135462 0)
(0.214754 0.00134091 0)
(0.214815 0.00132741 0)
(0.214874 0.00131413 0)
(0.21493 0.00130105 0)
(0.214984 0.00128818 0)
(0.215036 0.00127549 0)
(0.215085 0.001263 0)
(0.215132 0.00125069 0)
(0.215177 0.00123856 0)
(0.215219 0.0012266 0)
(0.215258 0.00121481 0)
(0.215295 0.00120317 0)
(0.21533 0.00119167 0)
(0.215362 0.00118027 0)
(0.215391 0.00116891 0)
(0.215418 0.00115739 0)
(0.215442 0.00114524 0)
(0.215464 0.00113117 0)
(0.215483 0.00111179 0)
(0.215492 0.00107923 0)