/*--------------------------------*- C++ -*----------------------------------*\
| =========                 |                                                 |
| \\      /  F ield         | OpenFOAM: The Open Source CFD Toolbox           |
|  \\    /   O peration     | Version:  2.3.0                                 |
|   \\  /    A nd           | Web:      www.OpenFOAM.org                      |
|    \\/     M anipulation  |                                                 |
\*---------------------------------------------------------------------------*/
FoamFile
{
    version     2.0;
    format      ascii;
    class       surfaceScalarField;
    location    "0.1";
    object      phi_0;
}
// * * * * * * * * * * * * * * * * * * * * * * * * * * * * * * * * * * * * * //

dimensions      [0 3 -1 0 0 0 0];

internalField   nonuniform List<scalar> 
6598
(
2.82237e-08
2.88853e-09
-3.11122e-08
2.53543e-08
2.86933e-09
2.26635e-08
2.69083e-09
2.01852e-08
2.47831e-09
1.79359e-08
2.24934e-09
1.59263e-08
2.00955e-09
1.4159e-08
1.76728e-09
1.26285e-08
1.53047e-09
1.13227e-08
1.30583e-09
1.02239e-08
1.09879e-09
9.31058e-09
9.13344e-10
8.55882e-09
7.51757e-10
7.94423e-09
6.14589e-10
7.44335e-09
5.00885e-10
7.0348e-09
4.08554e-10
6.7e-09
3.34799e-10
6.42347e-09
2.76531e-10
6.19275e-09
2.30714e-10
5.99816e-09
1.9459e-10
5.83236e-09
1.65806e-10
5.68993e-09
1.42423e-10
5.56707e-09
1.22863e-10
5.46127e-09
1.05797e-10
5.37122e-09
9.00542e-11
5.29659e-09
7.4626e-11
5.23788e-09
5.87187e-11
5.19619e-09
4.16896e-11
5.17292e-09
2.32614e-11
5.1681e-09
4.8257e-12
5.17694e-09
-8.83739e-12
5.19486e-09
-1.79266e-11
5.21869e-09
-2.38252e-11
5.2454e-09
-2.67087e-11
5.27245e-09
-2.70576e-11
5.29816e-09
-2.57041e-11
5.32156e-09
-2.34062e-11
5.34227e-09
-2.07096e-11
5.36023e-09
-1.79612e-11
5.3756e-09
-1.53603e-11
5.3886e-09
-1.3007e-11
5.39954e-09
-1.09398e-11
5.4087e-09
-9.16055e-12
5.41635e-09
-7.652e-12
5.42274e-09
-6.38759e-12
5.42808e-09
-5.33795e-12
5.43255e-09
-4.4737e-12
5.43632e-09
-3.76716e-12
5.43951e-09
-3.1932e-12
5.44224e-09
-2.72939e-12
5.4446e-09
-2.35599e-12
5.44666e-09
-2.05588e-12
5.44847e-09
-1.81438e-12
5.45009e-09
-1.6191e-12
5.45155e-09
-1.45975e-12
5.45288e-09
-1.32798e-12
5.45409e-09
-1.21713e-12
5.45522e-09
-1.12201e-12
5.45625e-09
-1.03866e-12
5.45722e-09
-9.64158e-13
5.45811e-09
-8.96401e-13
5.45895e-09
-8.33923e-13
5.45972e-09
-7.75731e-13
5.46045e-09
-7.21171e-13
5.46112e-09
-6.69838e-13
5.46174e-09
-6.21474e-13
5.46231e-09
-5.75913e-13
5.46285e-09
-5.3304e-13
5.46334e-09
-4.92765e-13
5.46379e-09
-4.54999e-13
5.46421e-09
-4.1966e-13
5.4646e-09
-3.86641e-13
5.46496e-09
-3.55853e-13
5.46528e-09
-3.27172e-13
5.46558e-09
-3.00493e-13
5.46586e-09
-2.75705e-13
5.46611e-09
-2.52682e-13
5.46634e-09
-2.31337e-13
5.46655e-09
-2.11532e-13
5.46675e-09
-1.93192e-13
5.46692e-09
-1.76194e-13
5.46708e-09
-1.60454e-13
5.46723e-09
-1.45877e-13
5.46736e-09
-1.32371e-13
5.46748e-09
-1.19862e-13
5.46759e-09
-1.08262e-13
5.46769e-09
-9.75016e-14
5.46778e-09
-8.751e-14
5.46785e-09
-7.82112e-14
5.46792e-09
-6.95455e-14
5.46799e-09
-6.14406e-14
5.46804e-09
-5.38386e-14
5.46809e-09
-4.66745e-14
5.46813e-09
-3.98865e-14
5.46816e-09
-3.34078e-14
5.46819e-09
-2.71558e-14
5.46821e-09
-2.10303e-14
5.46822e-09
-1.49038e-14
5.46823e-09
-8.72615e-15
5.46823e-09
-3.00797e-15
1.49173e-14
3.39023e-08
3.16381e-09
-3.41776e-08
3.33117e-08
3.45992e-09
3.24877e-08
3.51486e-09
3.15075e-08
3.45848e-09
3.04273e-08
3.32956e-09
2.92933e-08
3.14355e-09
2.81431e-08
2.91748e-09
2.70056e-08
2.66794e-09
2.59024e-08
2.40906e-09
2.48486e-08
2.15254e-09
2.38544e-08
1.90757e-09
2.29255e-08
1.68069e-09
2.20643e-08
1.47575e-09
2.1271e-08
1.29422e-09
2.05439e-08
1.13568e-09
1.98803e-08
9.98369e-10
1.9277e-08
8.7979e-10
1.87306e-08
7.77116e-10
1.82377e-08
6.87537e-10
1.77951e-08
6.08431e-10
1.74e-08
5.37432e-10
1.70505e-08
4.72401e-10
1.67449e-08
4.11367e-10
1.64825e-08
3.52535e-10
1.62626e-08
2.94444e-10
1.60851e-08
2.36301e-10
1.59484e-08
1.78304e-10
1.58501e-08
1.21568e-10
1.57888e-08
6.6146e-11
1.57663e-08
1.3637e-11
1.57765e-08
-2.80423e-11
1.58071e-08
-5.44316e-11
1.58496e-08
-6.92082e-11
1.58977e-08
-7.52159e-11
1.59471e-08
-7.50764e-11
1.59947e-08
-7.10415e-11
1.60389e-08
-6.48355e-11
1.60786e-08
-5.76652e-11
1.61135e-08
-5.0318e-11
1.61438e-08
-4.32732e-11
1.61696e-08
-3.67963e-11
1.61915e-08
-3.10125e-11
1.62098e-08
-2.59582e-11
1.6225e-08
-2.1617e-11
1.62376e-08
-1.79421e-11
1.6248e-08
-1.48709e-11
1.62566e-08
-1.2334e-11
1.62637e-08
-1.02607e-11
1.62695e-08
-8.58261e-12
1.62744e-08
-7.23581e-12
1.62785e-08
-6.16194e-12
1.6282e-08
-5.30916e-12
1.6285e-08
-4.63245e-12
1.62876e-08
-4.09361e-12
1.629e-08
-3.66097e-12
1.62921e-08
-3.30892e-12
1.6294e-08
-3.01724e-12
1.62957e-08
-2.77032e-12
1.62973e-08
-2.55646e-12
1.62988e-08
-2.36712e-12
1.63001e-08
-2.19624e-12
1.63014e-08
-2.03962e-12
1.63026e-08
-1.89448e-12
1.63037e-08
-1.75899e-12
1.63047e-08
-1.63198e-12
1.63056e-08
-1.51271e-12
1.63065e-08
-1.40068e-12
1.63073e-08
-1.29554e-12
1.6308e-08
-1.19698e-12
1.63087e-08
-1.10474e-12
1.63093e-08
-1.01853e-12
1.63099e-08
-9.38084e-13
1.63104e-08
-8.63106e-13
1.63109e-08
-7.93301e-13
1.63114e-08
-7.28383e-13
1.63118e-08
-6.68043e-13
1.63122e-08
-6.12019e-13
1.63125e-08
-5.60007e-13
1.63129e-08
-5.1176e-13
1.63131e-08
-4.67007e-13
1.63134e-08
-4.25503e-13
1.63137e-08
-3.87018e-13
1.63139e-08
-3.51317e-13
1.63141e-08
-3.18196e-13
1.63142e-08
-2.87445e-13
1.63144e-08
-2.58867e-13
1.63146e-08
-2.32283e-13
1.63147e-08
-2.07503e-13
1.63148e-08
-1.84361e-13
1.63149e-08
-1.62683e-13
1.6315e-08
-1.42308e-13
1.63151e-08
-1.23073e-13
1.63151e-08
-1.04812e-13
1.63152e-08
-8.73555e-14
1.63152e-08
-7.05039e-14
1.63153e-08
-5.40212e-14
1.63153e-08
-3.76234e-14
1.63153e-08
-2.09515e-14
1.63153e-08
-3.23017e-15
3.14193e-14
3.59862e-08
3.00641e-09
-3.58288e-08
3.60568e-08
3.38935e-09
3.60016e-08
3.57001e-09
3.58257e-08
3.63437e-09
3.55394e-08
3.61587e-09
3.51569e-08
3.52606e-09
3.46958e-08
3.37859e-09
3.41743e-08
3.1894e-09
3.36098e-08
2.97361e-09
3.30178e-08
2.74457e-09
3.24118e-08
2.51355e-09
3.18032e-08
2.28933e-09
3.12009e-08
2.07798e-09
3.06122e-08
1.88299e-09
3.00422e-08
1.70564e-09
2.9495e-08
1.54555e-09
2.89736e-08
1.40125e-09
2.84801e-08
1.27062e-09
2.80163e-08
1.15127e-09
2.75839e-08
1.0408e-09
2.71845e-08
9.36865e-10
2.68197e-08
8.37235e-10
2.64912e-08
7.39852e-10
2.62008e-08
6.4296e-10
2.59498e-08
5.45415e-10
2.5739e-08
4.4708e-10
2.55683e-08
3.4906e-10
2.54361e-08
2.53679e-10
2.53382e-08
1.6405e-10
2.52693e-08
8.26009e-11
2.523e-08
1.12614e-11
2.52199e-08
-4.43134e-11
2.52321e-08
-8.14045e-11
2.52602e-08
-1.03349e-10
2.52988e-08
-1.13677e-10
2.53434e-08
-1.15617e-10
2.53904e-08
-1.11882e-10
2.54373e-08
-1.04584e-10
2.54823e-08
-9.52827e-11
2.55241e-08
-8.50818e-11
2.5562e-08
-7.47357e-11
2.55958e-08
-6.47417e-11
2.56252e-08
-5.54122e-11
2.56505e-08
-4.69287e-11
2.5672e-08
-3.93797e-11
2.56899e-08
-3.27885e-11
2.57047e-08
-2.71319e-11
2.57168e-08
-2.23552e-11
2.57266e-08
-1.83824e-11
2.57345e-08
-1.51252e-11
2.57408e-08
-1.24897e-11
2.57459e-08
-1.03821e-11
2.575e-08
-8.71283e-12
2.57533e-08
-7.3999e-12
2.5756e-08
-6.37063e-12
2.57582e-08
-5.56267e-12
2.57601e-08
-4.92415e-12
2.57618e-08
-4.41312e-12
2.57632e-08
-3.99658e-12
2.57645e-08
-3.64933e-12
2.57657e-08
-3.35266e-12
2.57667e-08
-3.09304e-12
2.57677e-08
-2.86098e-12
2.57686e-08
-2.65001e-12
2.57694e-08
-2.45581e-12
2.57701e-08
-2.27559e-12
2.57709e-08
-2.10752e-12
2.57715e-08
-1.9504e-12
2.57721e-08
-1.80341e-12
2.57727e-08
-1.66591e-12
2.57732e-08
-1.53739e-12
2.57737e-08
-1.41736e-12
2.57741e-08
-1.30539e-12
2.57745e-08
-1.20102e-12
2.57749e-08
-1.10382e-12
2.57752e-08
-1.01336e-12
2.57756e-08
-9.29225e-13
2.57759e-08
-8.51004e-13
2.57761e-08
-7.7831e-13
2.57764e-08
-7.10767e-13
2.57766e-08
-6.48007e-13
2.57768e-08
-5.89697e-13
2.5777e-08
-5.35497e-13
2.57771e-08
-4.85098e-13
2.57773e-08
-4.382e-13
2.57774e-08
-3.94507e-13
2.57775e-08
-3.5375e-13
2.57777e-08
-3.15655e-13
2.57778e-08
-2.79968e-13
2.57778e-08
-2.46434e-13
2.57779e-08
-2.14807e-13
2.5778e-08
-1.84843e-13
2.5778e-08
-1.56292e-13
2.57781e-08
-1.28902e-13
2.57781e-08
-1.02386e-13
2.57781e-08
-7.64112e-14
2.57781e-08
-5.06076e-14
2.57781e-08
-2.46863e-14
2.57781e-08
4.97923e-15
5.35411e-14
3.75456e-08
2.80956e-09
-3.73487e-08
3.77493e-08
3.18568e-09
3.79138e-08
3.4055e-09
3.80261e-08
3.52205e-09
3.80793e-08
3.5627e-09
3.8069e-08
3.53634e-09
3.79956e-08
3.45202e-09
3.7863e-08
3.32191e-09
3.76779e-08
3.15875e-09
3.7448e-08
2.97445e-09
3.7182e-08
2.77959e-09
3.68883e-08
2.58297e-09
3.65751e-08
2.39118e-09
3.62496e-08
2.20854e-09
3.59179e-08
2.03732e-09
3.55854e-08
1.87811e-09
3.52563e-08
1.73027e-09
3.49346e-08
1.59236e-09
3.46234e-08
1.46249e-09
3.43256e-08
1.33857e-09
3.4044e-08
1.21843e-09
3.37813e-08
1.09998e-09
3.35398e-08
9.81317e-10
3.33218e-08
8.6098e-10
3.31289e-08
7.38308e-10
3.29622e-08
6.1382e-10
3.28218e-08
4.89409e-10
3.27073e-08
3.68261e-10
3.26168e-08
2.54536e-10
3.25467e-08
1.52695e-10
3.2493e-08
6.49866e-11
3.24559e-08
-7.30569e-12
3.24364e-08
-6.18831e-11
3.24323e-08
-9.9235e-11
3.2441e-08
-1.2237e-10
3.24598e-08
-1.34382e-10
3.24859e-08
-1.38058e-10
3.25171e-08
-1.35739e-10
3.25511e-08
-1.293e-10
3.25862e-08
-1.20191e-10
3.2621e-08
-1.09512e-10
3.26543e-08
-9.80861e-11
3.26855e-08
-8.65215e-11
3.27138e-08
-7.52623e-11
3.2739e-08
-6.46247e-11
3.27611e-08
-5.48232e-11
3.27799e-08
-4.59904e-11
3.27958e-08
-3.81914e-11
3.28088e-08
-3.14369e-11
3.28194e-08
-2.56939e-11
3.28278e-08
-2.08968e-11
3.28344e-08
-1.6957e-11
3.28394e-08
-1.37727e-11
3.28433e-08
-1.12362e-11
3.28461e-08
-9.24158e-12
3.28483e-08
-7.68893e-12
3.28498e-08
-6.48854e-12
3.2851e-08
-5.56258e-12
3.28518e-08
-4.84587e-12
3.28525e-08
-4.2856e-12
3.28529e-08
-3.84029e-12
3.28533e-08
-3.47831e-12
3.28536e-08
-3.17624e-12
3.28539e-08
-2.9173e-12
3.28541e-08
-2.68975e-12
3.28544e-08
-2.48564e-12
3.28546e-08
-2.29967e-12
3.28547e-08
-2.12839e-12
3.28549e-08
-1.96954e-12
3.28551e-08
-1.82164e-12
3.28552e-08
-1.68366e-12
3.28553e-08
-1.5548e-12
3.28555e-08
-1.43447e-12
3.28556e-08
-1.32212e-12
3.28557e-08
-1.21725e-12
3.28558e-08
-1.11941e-12
3.28559e-08
-1.02816e-12
3.2856e-08
-9.43067e-13
3.28561e-08
-8.63725e-13
3.28562e-08
-7.89755e-13
3.28562e-08
-7.20769e-13
3.28563e-08
-6.56426e-13
3.28564e-08
-5.96374e-13
3.28564e-08
-5.40284e-13
3.28565e-08
-4.87846e-13
3.28565e-08
-4.38742e-13
3.28565e-08
-3.92687e-13
3.28566e-08
-3.49386e-13
3.28566e-08
-3.08562e-13
3.28566e-08
-2.69939e-13
3.28567e-08
-2.33241e-13
3.28567e-08
-1.98196e-13
3.28567e-08
-1.64523e-13
3.28567e-08
-1.31941e-13
3.28567e-08
-1.00136e-13
3.28567e-08
-6.87523e-14
3.28567e-08
-3.75324e-14
3.28566e-08
-5.62703e-15
3.28566e-08
3.28661e-14
8.92703e-14
3.90649e-08
2.63722e-09
-3.88926e-08
3.92705e-08
2.98003e-09
3.94723e-08
3.20373e-09
3.96568e-08
3.3376e-09
3.98161e-08
3.40339e-09
3.99428e-08
3.4096e-09
4.00317e-08
3.36308e-09
4.00806e-08
3.27307e-09
4.00895e-08
3.14983e-09
4.00607e-08
3.00327e-09
3.99978e-08
2.84246e-09
3.99056e-08
2.67519e-09
3.97892e-08
2.50759e-09
3.96537e-08
2.34401e-09
3.9504e-08
2.187e-09
3.93445e-08
2.03764e-09
3.9179e-08
1.8958e-09
3.90108e-08
1.76055e-09
3.88429e-08
1.6304e-09
3.86778e-08
1.50359e-09
3.8518e-08
1.37822e-09
3.83656e-08
1.25244e-09
3.82223e-08
1.12462e-09
3.80896e-08
9.93659e-10
3.79686e-08
8.59325e-10
3.78598e-08
7.22579e-10
3.77635e-08
5.85733e-10
3.76794e-08
4.52332e-10
3.76072e-08
3.26794e-10
3.75461e-08
2.13804e-10
3.74942e-08
1.16867e-10
3.74502e-08
3.66319e-11
3.74154e-08
-2.7007e-11
3.73903e-08
-7.41316e-11
3.73746e-08
-1.06726e-10
3.73676e-08
-1.27381e-10
3.73681e-08
-1.38571e-10
3.73749e-08
-1.42472e-10
3.73865e-08
-1.40915e-10
3.74017e-08
-1.35391e-10
3.74193e-08
-1.27093e-10
3.74382e-08
-1.16973e-10
3.74574e-08
-1.05788e-10
3.74763e-08
-9.41409e-11
3.74942e-08
-8.25098e-11
3.75106e-08
-7.12676e-11
3.75253e-08
-6.06957e-11
3.75381e-08
-5.09945e-11
3.7549e-08
-4.22913e-11
3.75579e-08
-3.4649e-11
3.75651e-08
-2.80756e-11
3.75707e-08
-2.25338e-11
3.75749e-08
-1.79518e-11
3.75779e-08
-1.42344e-11
3.75799e-08
-1.12725e-11
3.75812e-08
-8.95229e-12
3.75818e-08
-7.16262e-12
3.75821e-08
-5.80017e-12
3.7582e-08
-4.7731e-12
3.75817e-08
-4.00299e-12
3.75813e-08
-3.42519e-12
3.75808e-08
-2.98817e-12
3.75803e-08
-2.6522e-12
3.75798e-08
-2.38757e-12
3.75793e-08
-2.17281e-12
3.75788e-08
-1.99279e-12
3.75783e-08
-1.83722e-12
3.75779e-08
-1.69923e-12
3.75775e-08
-1.57437e-12
3.75771e-08
-1.45978e-12
3.75768e-08
-1.35361e-12
3.75765e-08
-1.25467e-12
3.75762e-08
-1.16216e-12
3.7576e-08
-1.07546e-12
3.75757e-08
-9.94152e-13
3.75755e-08
-9.17825e-13
3.75754e-08
-8.46149e-13
3.75752e-08
-7.78819e-13
3.7575e-08
-7.15533e-13
3.75749e-08
-6.56036e-13
3.75748e-08
-6.0005e-13
3.75747e-08
-5.47338e-13
3.75746e-08
-4.97652e-13
3.75745e-08
-4.50751e-13
3.75744e-08
-4.06412e-13
3.75743e-08
-3.64394e-13
3.75743e-08
-3.24481e-13
3.75742e-08
-2.86442e-13
3.75741e-08
-2.50056e-13
3.75741e-08
-2.15096e-13
3.7574e-08
-1.81329e-13
3.7574e-08
-1.48519e-13
3.75739e-08
-1.16415e-13
3.75739e-08
-8.47789e-14
3.75738e-08
-5.33752e-14
3.75738e-08
-2.19409e-14
3.75738e-08
1.04474e-14
3.75737e-08
4.58565e-14
3.75736e-08
8.84435e-14
1.43633e-13
4.06226e-08
2.49176e-09
-4.04772e-08
4.08066e-08
2.79602e-09
4.09999e-08
3.01047e-09
4.11894e-08
3.14812e-09
4.13682e-08
3.22454e-09
4.15302e-08
3.24768e-09
4.16698e-08
3.22344e-09
4.17837e-08
3.15918e-09
4.18702e-08
3.06334e-09
4.19292e-08
2.94425e-09
4.19621e-08
2.80962e-09
4.19711e-08
2.66618e-09
4.19592e-08
2.51942e-09
4.19299e-08
2.37335e-09
4.18864e-08
2.23054e-09
4.18317e-08
2.09225e-09
4.17688e-08
1.95869e-09
4.17001e-08
1.82926e-09
4.16277e-08
1.70284e-09
4.15533e-08
1.57797e-09
4.14785e-08
1.45306e-09
4.14044e-08
1.32654e-09
4.13319e-08
1.19712e-09
4.12615e-08
1.06401e-09
4.11936e-08
9.27285e-10
4.1128e-08
7.88112e-10
4.10649e-08
6.48885e-10
4.10041e-08
5.13077e-10
4.0946e-08
3.84882e-10
4.08912e-08
2.68621e-10
4.08403e-08
1.67772e-10
4.07932e-08
8.37846e-11
4.07501e-08
1.601e-11
4.07126e-08
-3.65719e-11
4.06811e-08
-7.52186e-11
4.06557e-08
-1.02025e-10
4.06363e-08
-1.19115e-10
4.06222e-08
-1.28425e-10
4.06129e-08
-1.31635e-10
4.06077e-08
-1.30162e-10
4.06058e-08
-1.25177e-10
4.06065e-08
-1.17648e-10
4.06091e-08
-1.08374e-10
4.06129e-08
-9.80214e-11
4.06176e-08
-8.71423e-11
4.06225e-08
-7.61931e-11
4.06273e-08
-6.55429e-11
4.06318e-08
-5.54798e-11
4.06358e-08
-4.62154e-11
4.0639e-08
-3.78898e-11
4.06415e-08
-3.05783e-11
4.06433e-08
-2.42991e-11
4.06443e-08
-1.90235e-11
4.06448e-08
-1.46861e-11
4.06447e-08
-1.11959e-11
4.06442e-08
-8.44702e-12
4.06434e-08
-6.32729e-12
4.06423e-08
-4.72644e-12
4.06411e-08
-3.54156e-12
4.06397e-08
-2.68115e-12
4.06384e-08
-2.06704e-12
4.0637e-08
-1.63488e-12
4.06357e-08
-1.3336e-12
4.06344e-08
-1.12407e-12
4.06333e-08
-9.77225e-13
4.06321e-08
-8.7219e-13
4.06311e-08
-7.94429e-13
4.06301e-08
-7.34135e-13
4.06292e-08
-6.84902e-13
4.06284e-08
-6.42634e-13
4.06277e-08
-6.04802e-13
4.0627e-08
-5.6986e-13
4.06264e-08
-5.36903e-13
4.06258e-08
-5.05376e-13
4.06253e-08
-4.74969e-13
4.06248e-08
-4.45479e-13
4.06244e-08
-4.16781e-13
4.0624e-08
-3.88803e-13
4.06236e-08
-3.61478e-13
4.06233e-08
-3.34781e-13
4.0623e-08
-3.08654e-13
4.06227e-08
-2.83071e-13
4.06225e-08
-2.57978e-13
4.06223e-08
-2.33323e-13
4.06221e-08
-2.0905e-13
4.06219e-08
-1.85079e-13
4.06217e-08
-1.61343e-13
4.06216e-08
-1.37747e-13
4.06215e-08
-1.14194e-13
4.06213e-08
-9.05707e-14
4.06212e-08
-6.67461e-14
4.06211e-08
-4.25805e-14
4.0621e-08
-1.78894e-14
4.06209e-08
7.5873e-15
4.06208e-08
3.41619e-14
4.06208e-08
6.22402e-14
4.06207e-08
9.25141e-14
4.06206e-08
1.26432e-13
4.06205e-08
1.66792e-13
2.14983e-13
4.22316e-08
2.36707e-09
-4.2107e-08
4.23934e-08
2.63429e-09
4.25696e-08
2.8342e-09
4.27479e-08
2.96991e-09
4.29213e-08
3.0511e-09
4.30846e-08
3.08442e-09
4.3233e-08
3.075e-09
4.33633e-08
3.02887e-09
4.34736e-08
2.953e-09
4.35634e-08
2.85449e-09
4.36331e-08
2.73996e-09
4.3684e-08
2.61528e-09
4.37181e-08
2.48532e-09
4.37376e-08
2.35376e-09
4.37451e-08
2.2231e-09
4.37426e-08
2.0947e-09
4.37323e-08
1.96899e-09
4.37159e-08
1.84569e-09
4.36948e-08
1.72397e-09
4.367e-08
1.60272e-09
4.36425e-08
1.48064e-09
4.36125e-08
1.3565e-09
4.35803e-08
1.2293e-09
4.35458e-08
1.09856e-09
4.35085e-08
9.64507e-10
4.34683e-08
8.28378e-10
4.34247e-08
6.92427e-10
4.3378e-08
5.59817e-10
4.33286e-08
4.34277e-10
4.32776e-08
3.19578e-10
4.32266e-08
2.18802e-10
4.31768e-08
1.33564e-10
4.31291e-08
6.37757e-11
4.30842e-08
8.2813e-12
4.30433e-08
-3.42558e-11
4.30066e-08
-6.54164e-11
4.29745e-08
-8.69994e-11
4.29468e-08
-1.0071e-10
4.29233e-08
-1.0807e-10
4.29035e-08
-1.10395e-10
4.28871e-08
-1.08803e-10
4.28737e-08
-1.0424e-10
4.28628e-08
-9.75039e-11
4.28541e-08
-8.92762e-11
4.28471e-08
-8.01348e-11
4.28415e-08
-7.0569e-11
4.28369e-08
-6.09864e-11
4.28331e-08
-5.17171e-11
4.28299e-08
-4.30164e-11
4.28271e-08
-3.50687e-11
4.28245e-08
-2.79915e-11
4.28221e-08
-2.18421e-11
4.28197e-08
-1.66265e-11
4.28173e-08
-1.23085e-11
4.28149e-08
-8.82023e-12
4.28125e-08
-6.07292e-12
4.28102e-08
-3.96596e-12
4.28079e-08
-2.3956e-12
4.28056e-08
-1.26128e-12
4.28034e-08
-4.70824e-13
4.28012e-08
5.6506e-14
4.27992e-08
3.88362e-13
4.27973e-08
5.79565e-13
4.27955e-08
6.73186e-13
4.27938e-08
7.01778e-13
4.27923e-08
6.89047e-13
4.27908e-08
6.51674e-13
4.27895e-08
6.01001e-13
4.27883e-08
5.44465e-13
4.27871e-08
4.8678e-13
4.27861e-08
4.30797e-13
4.27851e-08
3.78161e-13
4.27843e-08
3.2972e-13
4.27835e-08
2.85858e-13
4.27828e-08
2.46649e-13
4.27821e-08
2.12007e-13
4.27815e-08
1.81749e-13
4.2781e-08
1.55628e-13
4.27805e-08
1.334e-13
4.278e-08
1.14787e-13
4.27796e-08
9.955e-14
4.27792e-08
8.74403e-14
4.27789e-08
7.82419e-14
4.27786e-08
7.17638e-14
4.27783e-08
6.78264e-14
4.27781e-08
6.62937e-14
4.27778e-08
6.70377e-14
4.27776e-08
6.99683e-14
4.27774e-08
7.50192e-14
4.27773e-08
8.21529e-14
4.27771e-08
9.13704e-14
4.2777e-08
1.02702e-13
4.27768e-08
1.16227e-13
4.27767e-08
1.32058e-13
4.27766e-08
1.50401e-13
4.27765e-08
1.71598e-13
4.27764e-08
1.96215e-13
4.27763e-08
2.2529e-13
4.27762e-08
2.60327e-13
2.99799e-13
4.38948e-08
2.25789e-09
-4.37856e-08
4.40373e-08
2.4918e-09
4.41964e-08
2.67512e-09
4.43605e-08
2.80576e-09
4.4523e-08
2.88866e-09
4.46786e-08
2.92877e-09
4.48233e-08
2.93035e-09
4.49538e-08
2.89831e-09
4.50684e-08
2.8384e-09
4.51663e-08
2.75659e-09
4.52477e-08
2.65859e-09
4.53134e-08
2.54953e-09
4.5365e-08
2.43372e-09
4.54042e-08
2.31456e-09
4.54329e-08
2.19443e-09
4.54528e-08
2.07478e-09
4.54656e-08
1.95623e-09
4.54725e-08
1.83876e-09
4.54746e-08
1.72185e-09
4.54727e-08
1.60469e-09
4.5467e-08
1.48632e-09
4.54577e-08
1.36581e-09
4.54445e-08
1.24247e-09
4.5427e-08
1.11603e-09
4.54047e-08
9.86857e-10
4.53769e-08
8.56139e-10
4.53434e-08
7.25912e-10
4.53043e-08
5.98943e-10
4.52601e-08
4.78437e-10
4.52121e-08
3.676e-10
4.51619e-08
2.6907e-10
4.5111e-08
1.84378e-10
4.50611e-08
1.13759e-10
4.50129e-08
5.64765e-11
4.49673e-08
1.13227e-11
4.4925e-08
-2.31026e-11
4.48863e-08
-4.82756e-11
4.48512e-08
-6.56803e-11
4.48198e-08
-7.6684e-11
4.47919e-08
-8.24984e-11
4.47673e-08
-8.41779e-11
4.47457e-08
-8.26316e-11
4.47268e-08
-7.86422e-11
4.47104e-08
-7.2884e-11
4.46963e-08
-6.59378e-11
4.4684e-08
-5.83008e-11
4.46734e-08
-5.03924e-11
4.46642e-08
-4.25584e-11
4.46563e-08
-3.50728e-11
4.46494e-08
-2.81409e-11
4.46433e-08
-2.19034e-11
4.46379e-08
-1.64421e-11
4.4633e-08
-1.1787e-11
4.46286e-08
-7.92545e-12
4.46246e-08
-4.81151e-12
4.46209e-08
-2.37546e-12
4.46175e-08
-5.32863e-13
4.46143e-08
8.06895e-13
4.46113e-08
1.73379e-12
4.46085e-08
2.33237e-12
4.46059e-08
2.67859e-12
4.46034e-08
2.83763e-12
4.46012e-08
2.86319e-12
4.4599e-08
2.79774e-12
4.45971e-08
2.67372e-12
4.45952e-08
2.515e-12
4.45935e-08
2.33857e-12
4.4592e-08
2.15607e-12
4.45906e-08
1.97517e-12
4.45892e-08
1.80072e-12
4.4588e-08
1.63555e-12
4.45869e-08
1.48121e-12
4.45859e-08
1.33835e-12
4.4585e-08
1.20708e-12
4.45842e-08
1.08715e-12
4.45834e-08
9.78134e-13
4.45827e-08
8.79473e-13
4.45821e-08
7.90555e-13
4.45815e-08
7.10773e-13
4.4581e-08
6.39494e-13
4.45805e-08
5.76139e-13
4.45801e-08
5.20139e-13
4.45797e-08
4.70971e-13
4.45793e-08
4.28156e-13
4.4579e-08
3.91249e-13
4.45787e-08
3.59862e-13
4.45784e-08
3.33638e-13
4.45782e-08
3.12272e-13
4.4578e-08
2.95504e-13
4.45778e-08
2.83116e-13
4.45776e-08
2.74947e-13
4.45774e-08
2.70881e-13
4.45773e-08
2.70861e-13
4.45771e-08
2.74883e-13
4.4577e-08
2.83038e-13
4.45769e-08
2.95542e-13
4.45767e-08
3.12781e-13
4.45766e-08
3.3538e-13
4.45765e-08
3.63825e-13
3.94908e-13
4.5614e-08
2.16054e-09
-4.55166e-08
4.57404e-08
2.36538e-09
4.58837e-08
2.53179e-09
4.60341e-08
2.65541e-09
4.61848e-08
2.73794e-09
4.6331e-08
2.78258e-09
4.64687e-08
2.79265e-09
4.65949e-08
2.7721e-09
4.67077e-08
2.72557e-09
4.68063e-08
2.65804e-09
4.68905e-08
2.57438e-09
4.6961e-08
2.47903e-09
4.70189e-08
2.37582e-09
4.70656e-08
2.26785e-09
4.71027e-08
2.15737e-09
4.71316e-08
2.04588e-09
4.71537e-08
1.93415e-09
4.717e-08
1.82238e-09
4.71815e-08
1.71035e-09
4.71887e-08
1.59752e-09
4.71918e-08
1.48325e-09
4.71907e-08
1.36691e-09
4.71851e-08
1.24805e-09
4.71745e-08
1.1266e-09
4.71584e-08
1.00302e-09
4.71361e-08
8.78425e-10
4.71074e-08
7.54616e-10
4.70723e-08
6.3397e-10
4.70316e-08
5.19202e-10
4.69862e-08
4.13005e-10
4.69376e-08
3.1762e-10
4.68876e-08
2.34439e-10
4.68375e-08
1.63856e-10
4.67885e-08
1.05451e-10
4.67415e-08
5.83219e-11
4.66971e-08
2.13003e-11
4.66557e-08
-6.89065e-12
4.66175e-08
-2.75279e-11
4.65827e-08
-4.18256e-11
4.65511e-08
-5.0889e-11
4.65226e-08
-5.57026e-11
4.64971e-08
-5.71307e-11
4.64744e-08
-5.59287e-11
4.64543e-08
-5.27544e-11
4.64365e-08
-4.81796e-11
4.64209e-08
-4.26971e-11
4.64072e-08
-3.67261e-11
4.63953e-08
-3.06152e-11
4.63849e-08
-2.46449e-11
4.63758e-08
-1.90307e-11
4.63678e-08
-1.39264e-11
4.63608e-08
-9.42977e-12
4.63546e-08
-5.58897e-12
4.63491e-08
-2.4106e-12
4.63441e-08
1.31852e-13
4.63396e-08
2.08904e-12
4.63356e-08
3.52742e-12
4.63319e-08
4.52193e-12
4.63285e-08
5.14973e-12
4.63253e-08
5.48498e-12
4.63224e-08
5.59526e-12
4.63197e-08
5.53945e-12
4.63172e-08
5.36664e-12
4.63149e-08
5.11622e-12
4.63127e-08
4.81866e-12
4.63107e-08
4.49663e-12
4.63089e-08
4.16644e-12
4.63072e-08
3.83937e-12
4.63057e-08
3.52285e-12
4.63043e-08
3.22152e-12
4.63029e-08
2.93803e-12
4.63018e-08
2.67364e-12
4.63007e-08
2.42871e-12
4.62997e-08
2.20299e-12
4.62988e-08
1.99588e-12
4.62979e-08
1.80653e-12
4.62972e-08
1.63399e-12
4.62965e-08
1.47724e-12
4.62959e-08
1.33528e-12
4.62953e-08
1.20709e-12
4.62948e-08
1.09173e-12
4.62943e-08
9.88272e-13
4.62939e-08
8.95872e-13
4.62935e-08
8.1374e-13
4.62932e-08
7.41139e-13
4.62928e-08
6.77414e-13
4.62926e-08
6.21957e-13
4.62923e-08
5.74233e-13
4.62921e-08
5.33769e-13
4.62918e-08
5.00155e-13
4.62916e-08
4.73052e-13
4.62915e-08
4.52184e-13
4.62913e-08
4.37347e-13
4.62911e-08
4.28406e-13
4.6291e-08
4.25323e-13
4.62909e-08
4.28171e-13
4.62907e-08
4.37141e-13
4.62906e-08
4.52485e-13
4.62905e-08
4.73988e-13
4.97807e-13
4.73913e-08
2.07254e-09
-4.73033e-08
4.75043e-08
2.2523e-09
4.76337e-08
2.40245e-09
4.77711e-08
2.518e-09
4.79104e-08
2.59861e-09
4.8047e-08
2.646e-09
4.8177e-08
2.6626e-09
4.82977e-08
2.65146e-09
4.8407e-08
2.61629e-09
4.85038e-08
2.56118e-09
4.8588e-08
2.49021e-09
4.86598e-08
2.4072e-09
4.87201e-08
2.31553e-09
4.877e-08
2.21796e-09
4.88107e-08
2.11664e-09
4.88436e-08
2.01304e-09
4.88697e-08
1.90805e-09
4.889e-08
1.80206e-09
4.89053e-08
1.69507e-09
4.8916e-08
1.58683e-09
4.89223e-08
1.47695e-09
4.89241e-08
1.36506e-09
4.89212e-08
1.25095e-09
4.89131e-08
1.1347e-09
4.88993e-08
1.01683e-09
4.88794e-08
8.98377e-10
4.8853e-08
7.80936e-10
4.88205e-08
6.66537e-10
4.87822e-08
5.57467e-10
4.87392e-08
4.55986e-10
4.86929e-08
3.63994e-10
4.86446e-08
2.82744e-10
4.85957e-08
2.12712e-10
4.85475e-08
1.537e-10
4.85007e-08
1.05057e-10
4.84562e-08
6.58639e-11
4.84142e-08
3.50551e-11
4.83752e-08
1.15289e-11
4.83391e-08
-5.79009e-12
4.83061e-08
-1.78989e-11
4.82761e-08
-2.57068e-11
4.8249e-08
-3.00257e-11
4.82247e-08
-3.15761e-11
4.82029e-08
-3.09919e-11
4.81836e-08
-2.88288e-11
4.81664e-08
-2.5569e-11
4.81513e-08
-2.16248e-11
4.81381e-08
-1.73425e-11
4.81264e-08
-1.30036e-11
4.81162e-08
-8.82855e-12
4.81073e-08
-4.98001e-12
4.80994e-08
-1.56772e-12
4.80925e-08
1.34522e-12
4.80863e-08
3.73535e-12
4.80808e-08
5.61116e-12
4.80759e-08
7.00537e-12
4.80715e-08
7.96734e-12
4.80675e-08
8.55626e-12
4.80638e-08
8.83521e-12
4.80604e-08
8.8664e-12
4.80573e-08
8.70764e-12
4.80544e-08
8.4101e-12
4.80518e-08
8.01713e-12
4.80493e-08
7.56397e-12
4.8047e-08
7.07823e-12
4.8045e-08
6.58071e-12
4.8043e-08
6.08647e-12
4.80413e-08
5.60599e-12
4.80397e-08
5.14613e-12
4.80382e-08
4.7111e-12
4.80368e-08
4.30316e-12
4.80355e-08
3.92321e-12
4.80344e-08
3.57119e-12
4.80334e-08
3.24646e-12
4.80324e-08
2.94797e-12
4.80315e-08
2.67445e-12
4.80308e-08
2.42452e-12
4.803e-08
2.19671e-12
4.80294e-08
1.98962e-12
4.80288e-08
1.80182e-12
4.80282e-08
1.63198e-12
4.80278e-08
1.4788e-12
4.80273e-08
1.34111e-12
4.80269e-08
1.21777e-12
4.80265e-08
1.10776e-12
4.80262e-08
1.01014e-12
4.80259e-08
9.24026e-13
4.80256e-08
8.48655e-13
4.80254e-08
7.83328e-13
4.80252e-08
7.27432e-13
4.80249e-08
6.80442e-13
4.80248e-08
6.41913e-13
4.80246e-08
6.11487e-13
4.80244e-08
5.88888e-13
4.80243e-08
5.73942e-13
4.80241e-08
5.66571e-13
4.8024e-08
5.66775e-13
4.80239e-08
5.74501e-13
4.80238e-08
5.89106e-13
6.06822e-13
4.92291e-08
1.99215e-09
-4.91487e-08
4.9331e-08
2.15041e-09
4.9448e-08
2.28546e-09
4.95735e-08
2.3925e-09
4.9702e-08
2.47009e-09
4.98292e-08
2.51881e-09
4.99515e-08
2.54027e-09
5.00662e-08
2.53678e-09
5.01713e-08
2.51122e-09
5.02656e-08
2.46689e-09
5.03486e-08
2.40718e-09
5.04205e-08
2.33533e-09
5.04817e-08
2.25426e-09
5.05332e-08
2.16646e-09
5.0576e-08
2.0739e-09
5.0611e-08
1.97802e-09
5.06393e-08
1.87977e-09
5.06616e-08
1.77969e-09
5.06787e-08
1.67796e-09
5.0691e-08
1.57455e-09
5.06986e-08
1.46932e-09
5.07016e-08
1.3621e-09
5.06997e-08
1.25288e-09
5.06925e-08
1.14186e-09
5.06797e-08
1.02962e-09
5.0661e-08
9.17118e-10
5.06362e-08
8.05759e-10
5.06054e-08
6.97284e-10
5.05692e-08
5.93625e-10
5.05286e-08
4.96682e-10
5.04845e-08
4.08074e-10
5.04383e-08
3.2892e-10
5.03913e-08
2.59735e-10
5.03445e-08
2.00481e-10
5.02988e-08
1.5071e-10
5.0255e-08
1.09712e-10
5.02134e-08
7.66173e-11
5.01745e-08
5.04919e-11
5.01383e-08
3.03972e-11
5.01049e-08
1.54396e-11
5.00744e-08
4.78905e-12
5.00467e-08
-2.30994e-12
5.00217e-08
-6.53752e-12
4.99992e-08
-8.49728e-12
4.99791e-08
-8.72411e-12
4.99612e-08
-7.68474e-12
4.99454e-08
-5.78156e-12
4.99314e-08
-3.35469e-12
4.99191e-08
-6.84233e-13
4.99082e-08
2.00699e-12
4.98987e-08
4.54996e-12
4.98903e-08
6.82492e-12
4.98829e-08
8.75593e-12
4.98763e-08
1.03045e-11
4.98705e-08
1.14629e-11
4.98652e-08
1.2247e-11
4.98605e-08
1.26897e-11
4.98562e-08
1.28347e-11
4.98523e-08
1.27311e-11
4.98488e-08
1.24292e-11
4.98455e-08
1.19766e-11
4.98425e-08
1.14164e-11
4.98397e-08
1.07858e-11
4.98372e-08
1.01153e-11
4.98348e-08
9.42927e-12
4.98327e-08
8.74606e-12
4.98307e-08
8.07917e-12
4.98288e-08
7.43792e-12
4.98271e-08
6.82837e-12
4.98256e-08
6.25408e-12
4.98242e-08
5.71678e-12
4.98229e-08
5.21685e-12
4.98217e-08
4.75378e-12
4.98206e-08
4.32644e-12
4.98196e-08
3.93331e-12
4.98187e-08
3.57264e-12
4.98179e-08
3.24259e-12
4.98172e-08
2.94125e-12
4.98165e-08
2.66675e-12
4.98159e-08
2.41726e-12
4.98153e-08
2.19103e-12
4.98148e-08
1.98642e-12
4.98144e-08
1.80185e-12
4.98139e-08
1.63587e-12
4.98136e-08
1.48714e-12
4.98132e-08
1.35443e-12
4.98129e-08
1.23659e-12
4.98126e-08
1.13259e-12
4.98124e-08
1.04152e-12
4.98121e-08
9.62551e-13
4.98119e-08
8.9496e-13
4.98117e-08
8.3813e-13
4.98115e-08
7.91542e-13
4.98114e-08
7.54775e-13
4.98112e-08
7.27511e-13
4.98111e-08
7.09524e-13
4.98109e-08
7.00634e-13
4.98108e-08
7.00557e-13
4.98107e-08
7.08431e-13
7.20924e-13
5.11301e-08
1.91816e-09
-5.10561e-08
5.12225e-08
2.058e-09
5.13286e-08
2.17934e-09
5.14432e-08
2.27789e-09
5.15616e-08
2.35173e-09
5.16797e-08
2.40065e-09
5.17944e-08
2.4256e-09
5.1903e-08
2.42821e-09
5.20035e-08
2.4107e-09
5.20947e-08
2.37567e-09
5.2176e-08
2.3259e-09
5.22472e-08
2.26409e-09
5.23087e-08
2.19277e-09
5.23611e-08
2.11411e-09
5.24051e-08
2.02992e-09
5.24415e-08
1.94156e-09
5.24713e-08
1.85003e-09
5.2495e-08
1.75594e-09
5.25133e-08
1.65965e-09
5.25266e-08
1.56129e-09
5.2535e-08
1.46091e-09
5.25386e-08
1.35853e-09
5.25372e-08
1.25428e-09
5.25306e-08
1.14848e-09
5.25184e-08
1.04173e-09
5.25006e-08
9.34931e-10
5.24771e-08
8.29325e-10
5.24479e-08
7.26412e-10
5.24137e-08
6.2783e-10
5.23752e-08
5.35187e-10
5.23334e-08
4.49868e-10
5.22895e-08
3.72873e-10
5.22445e-08
3.04728e-10
5.21995e-08
2.45507e-10
5.21552e-08
1.94926e-10
5.21125e-08
1.52449e-10
5.20717e-08
1.17378e-10
5.20333e-08
8.89306e-11
5.19974e-08
6.62997e-11
5.19642e-08
4.86938e-11
5.19336e-08
3.53627e-11
5.19057e-08
2.56114e-11
5.18803e-08
1.88055e-11
5.18574e-08
1.43746e-11
5.18369e-08
1.18095e-11
5.18186e-08
1.06617e-11
5.18022e-08
1.0542e-11
5.17878e-08
1.11185e-11
5.1775e-08
1.21147e-11
5.17637e-08
1.33071e-11
5.17537e-08
1.45223e-11
5.17449e-08
1.56323e-11
5.17371e-08
1.65499e-11
5.17302e-08
1.72232e-11
5.1724e-08
1.76295e-11
5.17185e-08
1.77692e-11
5.17135e-08
1.76598e-11
5.1709e-08
1.73302e-11
5.17049e-08
1.68163e-11
5.17012e-08
1.61563e-11
5.16978e-08
1.53881e-11
5.16947e-08
1.45465e-11
5.16918e-08
1.36622e-11
5.16891e-08
1.27609e-11
5.16867e-08
1.18632e-11
5.16845e-08
1.09848e-11
5.16824e-08
1.01371e-11
5.16805e-08
9.32826e-12
5.16788e-08
8.56311e-12
5.16772e-08
7.84443e-12
5.16757e-08
7.17325e-12
5.16744e-08
6.54936e-12
5.16732e-08
5.97166e-12
5.16721e-08
5.43849e-12
5.16711e-08
4.9478e-12
5.16701e-08
4.49735e-12
5.16693e-08
4.08477e-12
5.16685e-08
3.70769e-12
5.16678e-08
3.36379e-12
5.16672e-08
3.05078e-12
5.16666e-08
2.76652e-12
5.16661e-08
2.50893e-12
5.16656e-08
2.27611e-12
5.16652e-08
2.06624e-12
5.16648e-08
1.87765e-12
5.16645e-08
1.70881e-12
5.16641e-08
1.5583e-12
5.16638e-08
1.42484e-12
5.16636e-08
1.30725e-12
5.16633e-08
1.20452e-12
5.16631e-08
1.11571e-12
5.16629e-08
1.04002e-12
5.16627e-08
9.76779e-13
5.16626e-08
9.25406e-13
5.16624e-08
8.8544e-13
5.16623e-08
8.56508e-13
5.16621e-08
8.38272e-13
5.1662e-08
8.30279e-13
5.16619e-08
8.31592e-13
8.39433e-13
5.30968e-08
1.84972e-09
-5.30284e-08
5.31811e-08
1.97375e-09
5.32776e-08
2.08279e-09
5.33823e-08
2.17317e-09