/*--------------------------------*- C++ -*----------------------------------*\
| =========                 |                                                 |
| \\      /  F ield         | OpenFOAM: The Open Source CFD Toolbox           |
|  \\    /   O peration     | Version:  2.3.0                                 |
|   \\  /    A nd           | Web:      www.OpenFOAM.org                      |
|    \\/     M anipulation  |                                                 |
\*---------------------------------------------------------------------------*/
FoamFile
{
    version     2.0;
    format      ascii;
    class       volScalarField;
    location    "0.45";
    object      p;
}
// * * * * * * * * * * * * * * * * * * * * * * * * * * * * * * * * * * * * * //

dimensions      [0 2 -2 0 0 0 0];

internalField   nonuniform List<scalar> 
2945
(
0.00221588
0.00127571
0.00057906
0.000110741
-0.000210063
-0.000412713
-0.000518049
-0.00055581
-0.000555594
-0.000538524
-0.000516344
-0.000494219
-0.000473777
-0.000455141
-0.000437975
-0.000421919
-0.000406707
-0.000392169
-0.000378208
-0.000364766
-0.00035181
-0.000339317
-0.000327273
-0.000315666
-0.000304487
-0.00029373
-0.000283387
-0.000273456
-0.00026393
-0.000254807
-0.000246081
-0.00023775
-0.000229807
-0.000222248
-0.000215067
-0.000208257
-0.000201811
-0.00019572
-0.000189974
-0.000184563
-0.000179475
-0.000174697
-0.000170213
-0.000166008
-0.000162063
-0.000158359
-0.000154875
-0.000151585
-0.000148464
-0.000145484
-0.000142613
-0.000139817
-0.000137059
-0.000134299
-0.000131492
-0.000128592
-0.000125548
-0.000122303
-0.000118799
-0.000114971
-0.000110754
-0.000106079
-0.000100885
-9.51171e-05
-8.8741e-05
-8.17519e-05
-7.41865e-05
-6.61215e-05
-5.76834e-05
-4.90025e-05
-4.02113e-05
-3.14048e-05
-2.26398e-05
-1.38625e-05
-5.5254e-06
0.00203907
0.00125099
0.000605529
0.000150408
-0.000168961
-0.000375271
-0.000486363
-0.000530124
-0.000535241
-0.000522515
-0.000503677
-0.000484035
-0.000465416
-0.000448129
-0.000431983
-0.000416718
-0.000402136
-0.000388111
-0.000374576
-0.000361493
-0.000348842
-0.000336613
-0.000324799
-0.000313393
-0.000302392
-0.000291793
-0.000281592
-0.000271788
-0.000262378
-0.000253359
-0.000244729
-0.000236484
-0.000228622
-0.000221137
-0.000214024
-0.000207277
-0.00020089
-0.000194854
-0.000189159
-0.000183797
-0.000178754
-0.000174018
-0.000169575
-0.000165408
-0.0001615
-0.000157831
-0.000154379
-0.000151122
-0.000148032
-0.000145081
-0.000142239
-0.000139471
-0.00013674
-0.000134005
-0.000131225
-0.00012835
-0.00012533
-0.000122109
-0.000118629
-0.000114824
-0.00011063
-0.000105978
-0.000100807
-9.50605e-05
-8.87054e-05
-8.17355e-05
-7.41847e-05
-6.61364e-05
-5.77059e-05
-4.90284e-05
-4.02378e-05
-3.14299e-05
-2.26614e-05
-1.38733e-05
-5.54071e-06
0.00186419
0.00120877
0.000622676
0.000190489
-0.000120532
-0.00032857
-0.000447394
-0.000500486
-0.00051377
-0.000507082
-0.000492278
-0.000475207
-0.000458234
-0.000442058
-0.00042672
-0.000412086
-0.00039802
-0.00038443
-0.000371265
-0.000358501
-0.000346127
-0.000334139
-0.000322534
-0.000311313
-0.000300475
-0.00029002
-0.000279949
-0.000270261
-0.000260956
-0.000252032
-0.000243489
-0.000235323
-0.000227534
-0.000220115
-0.000213064
-0.000206375
-0.000200041
-0.000194055
-0.000188407
-0.000183088
-0.000178086
-0.00017339
-0.000168983
-0.000164851
-0.000160977
-0.00015734
-0.000153919
-0.000150691
-0.000147629
-0.000144706
-0.000141891
-0.000139148
-0.000136442
-0.000133733
-0.000130976
-0.000128125
-0.000125129
-0.000121931
-0.000118473
-0.000114691
-0.000110519
-0.000105889
-0.000100738
-9.50116e-05
-8.86746e-05
-8.17207e-05
-7.41816e-05
-6.61387e-05
-5.77131e-05
-4.90429e-05
-4.02562e-05
-3.14504e-05
-2.26835e-05
-1.38969e-05
-5.62845e-06
0.00170901
0.00116047
0.000634132
0.000230002
-6.7629e-05
-0.000273617
-0.000398481
-0.00046099
-0.000483563
-0.000484454
-0.00047525
-0.000462118
-0.000447881
-0.000433629
-0.000419685
-0.000406096
-0.000392838
-0.000379891
-0.000367249
-0.000354917
-0.000342905
-0.000331224
-0.000319883
-0.000308891
-0.000298252
-0.000287974
-0.000278058
-0.000268509
-0.000259328
-0.000250517
-0.000242075
-0.000234002
-0.000226297
-0.000218956
-0.000211976
-0.000205353
-0.00019908
-0.000193149
-0.000187554
-0.000182285
-0.000177329
-0.000172676
-0.00016831
-0.000164217
-0.00016038
-0.000156778
-0.00015339
-0.000150195
-0.000147164
-0.000144271
-0.000141484
-0.00013877
-0.000136092
-0.00013341
-0.000130679
-0.000127855
-0.000124884
-0.000121711
-0.000118278
-0.000114521
-0.000110373
-0.000105767
-0.000100638
-9.49324e-05
-8.86145e-05
-8.16774e-05
-7.41528e-05
-6.61173e-05
-5.76951e-05
-4.90345e-05
-4.02618e-05
-3.1468e-05
-2.27138e-05
-1.39517e-05
-5.8224e-06
0.00156388
0.00110569
0.000639077
0.000265652
-1.60779e-05
-0.000217183
-0.000345683
-0.000416236
-0.000447705
-0.000456435
-0.000453408
-0.000444873
-0.000433986
-0.00042219
-0.000410085
-0.000397909
-0.000385768
-0.000373722
-0.000361819
-0.000350101
-0.000338603
-0.000327357
-0.000316388
-0.000305714
-0.000295352
-0.000285314
-0.000275611
-0.000266249
-0.000257234
-0.000248571
-0.000240263
-0.000232311
-0.000224715
-0.000217474
-0.000210586
-0.000204046
-0.000197849
-0.00019199
-0.000186461
-0.000181253
-0.000176354
-0.000171754
-0.000167439
-0.000163393
-0.0001596
-0.00015604
-0.000152693
-0.000149535
-0.000146541
-0.000143684
-0.000140931
-0.00013825
-0.000135604
-0.000132953
-0.000130254
-0.000127459
-0.000124518
-0.000121376
-0.000117972
-0.000114244
-0.000110124
-0.000105546
-0.000100444
-9.47651e-05
-8.8472e-05
-8.15583e-05
-7.40563e-05
-6.60438e-05
-5.76401e-05
-4.89911e-05
-4.02375e-05
-3.14729e-05
-2.27528e-05
-1.40474e-05
-6.15494e-06
0.00143098
0.00104801
0.000637795
0.00029538
3.04108e-05
-0.000164019
-0.00029397
-0.000370766
-0.000409994
-0.000426003
-0.000428982
-0.000425094
-0.000417712
-0.000408558
-0.00039848
-0.000387897
-0.000377037
-0.00036604
-0.000355011
-0.000344027
-0.000333154
-0.000322442
-0.000311932
-0.000301656
-0.000291642
-0.000281909
-0.000272474
-0.00026335
-0.000254547
-0.000246074
-0.000237936
-0.000230137
-0.00022268
-0.000215565
-0.000208791
-0.000202356
-0.000196256
-0.000190486
-0.000185038
-0.000179905
-0.000175076
-0.000170541
-0.000166287
-0.000162297
-0.000158557
-0.000155047
-0.000151747
-0.000148635
-0.000145684
-0.000142867
-0.000140153
-0.00013751
-0.000134901
-0.000132286
-0.000129622
-0.000126862
-0.000123956
-0.000120848
-0.000117478
-0.000113784
-0.000109699
-0.000105155
-0.000100088
-9.44432e-05
-8.81853e-05
-8.13075e-05
-7.38428e-05
-6.58699e-05
-5.75082e-05
-4.89021e-05
-4.01825e-05
-3.14523e-05
-2.27877e-05
-1.41777e-05
-6.62988e-06
0.00131153
0.000989732
0.000630773
0.000318696
7.07865e-05
-0.000115765
-0.000245343
-0.000326614
-0.000372271
-0.000394717
-0.000403252
-0.000403825
-0.00039991
-0.000393439
-0.000385458
-0.000376546
-0.000367043
-0.00035717
-0.000347082
-0.000336898
-0.000326709
-0.000316587
-0.00030659
-0.000296762
-0.000287142
-0.000277756
-0.00026863
-0.000259781
-0.000251226
-0.000242974
-0.000235036
-0.000227419
-0.000220127
-0.000213161
-0.000206524
-0.000200215
-0.000194229
-0.000188564
-0.000183213
-0.000178169
-0.000173424
-0.000168965
-0.000164781
-0.000160858
-0.000157179
-0.000153727
-0.000150482
-0.00014742
-0.000144517
-0.000141746
-0.000139077
-0.000136476
-0.000133908
-0.000131333
-0.000128708
-0.000125987
-0.000123119
-0.00012005
-0.00011672
-0.000113065
-0.000109021
-0.000104519
-9.94962e-05
-9.38985e-05
-8.76907e-05
-8.08669e-05
-7.34606e-05
-6.55507e-05
-5.72557e-05
-4.87166e-05
-4.00631e-05
-3.14005e-05
-2.28108e-05
-1.43306e-05
-7.21281e-06
0.00120455
0.000932041
0.000618754
0.00033591
0.000105111
-7.27637e-05
-0.000200534
-0.000284728
-0.000335537
-0.000363535
-0.000377086
-0.000381829
-0.00038125
-0.000377415
-0.000371529
-0.000364305
-0.000356184
-0.00034746
-0.000338342
-0.000328984
-0.000319505
-0.000309999
-0.000300539
-0.000291184
-0.00028198
-0.000272965
-0.000264169
-0.000255617
-0.000247327
-0.000239317
-0.000231598
-0.000224179
-0.000217068
-0.000210268
-0.000203782
-0.000197612
-0.000191754
-0.000186206
-0.000180963
-0.000176019
-0.000171365
-0.000166992
-0.000162887
-0.000159037
-0.000155426
-0.000152037
-0.00014885
-0.000145844
-0.000142993
-0.000140272
-0.000137649
-0.000135094
-0.000132569
-0.000130037
-0.000127454
-0.000124774
-0.000121949
-0.000118922
-0.000115635
-0.000112026
-0.000108029
-0.000103579
-9.86118e-05
-9.30754e-05
-8.69357e-05
-8.01879e-05
-7.28657e-05
-6.50469e-05
-5.68477e-05
-4.84051e-05
-3.98473e-05
-3.12809e-05
-2.27977e-05
-1.44907e-05
-7.81964e-06
0.00110869
0.000875939
0.000602792
0.00034767
0.000133799
-3.48973e-05
-0.000159748
-0.000245536
-0.000300329
-0.000333015
-0.000351015
-0.000359591
-0.000362164
-0.000360874
-0.000357042
-0.00035149
-0.000344749
-0.00033718
-0.000329037
-0.000320514
-0.000311755
-0.000302874
-0.000293961
-0.000285087
-0.00027631
-0.000267675
-0.000259219
-0.000250972
-0.000242958
-0.000235198
-0.000227706
-0.000220494
-0.000213571
-0.000206945
-0.000200618
-0.000194593
-0.00018887
-0.000183445
-0.000178317
-0.000173477
-0.00016892
-0.000164636
-0.000160614
-0.00015684
-0.000153299
-0.000149976
-0.00014685
-0.000143901
-0.000141103
-0.000138432
-0.000135857
-0.000133347
-0.000130866
-0.000128376
-0.000125836
-0.000123199
-0.000120417
-0.000117435
-0.000114195
-0.000110636
-0.000106694
-0.000102303
-9.74035e-05
-9.19436e-05
-8.58911e-05
-7.92424e-05
-7.20312e-05
-6.43332e-05
-5.62608e-05
-4.79459e-05
-3.95144e-05
-3.10744e-05
-2.27295e-05
-1.4626e-05
-8.34441e-06
0.00102265
0.000822145
0.000583897
0.000354659
0.000157334
-1.88463e-06
-0.000122944
-0.000209191
-0.000266907
-0.000303459
-0.000325342
-0.000337392
-0.000342907
-0.000344046
-0.000342207
-0.000338297
-0.000332922
-0.0003265
-0.000319333
-0.000311645
-0.000303608
-0.000295356
-0.000286994
-0.000278606
-0.000270259
-0.000262007
-0.000253895
-0.000245957
-0.000238222
-0.000230715
-0.000223453
-0.000216451
-0.000209721
-0.000203271
-0.000197105
-0.000191229
-0.000185642
-0.000180343
-0.00017533
-0.000170597
-0.000166138
-0.000161944
-0.000158004
-0.000154307
-0.000150837
-0.000147578
-0.000144513
-0.000141619
-0.000138873
-0.00013625
-0.000133721
-0.000131254
-0.000128816
-0.000126367
-0.000123868
-0.000121273
-0.000118533
-0.000115596
-0.000112405
-0.0001089
-0.000105017
-0.000100694
-9.58724e-05
-9.05032e-05
-8.4556e-05
-7.80281e-05
-7.0953e-05
-6.34035e-05
-5.54872e-05
-4.733e-05
-3.90544e-05
-3.07699e-05
-2.25902e-05
-1.47038e-05
-8.6995e-06
0.00094516
0.000771053
0.000562921
0.00035753
0.000176201
2.6611e-05
-8.99808e-05
-0.00017572
-0.000235404
-0.000275048
-0.000300257
-0.000315414
-0.000323641
-0.000327075
-0.000327151
-0.000324841
-0.000320809
-0.000315524
-0.000309326
-0.000302472
-0.000295157
-0.000287535
-0.000279726
-0.000271825
-0.000263911
-0.000256045
-0.000248279
-0.000240652
-0.000233199
-0.000225946
-0.000218917
-0.000212126
-0.00020559
-0.000199316
-0.000193314
-0.000187586
-0.000182136
-0.000176963
-0.000172066
-0.000167439
-0.000163077
-0.000158973
-0.000155115
-0.000151492
-0.000148091
-0.000144896
-0.000141887
-0.000139046
-0.00013635
-0.000133772
-0.000131286
-0.00012886
-0.000126461
-0.000124051
-0.00012159
-0.000119034
-0.000116336
-0.000113444
-0.000110302
-0.000106851
-0.000103032
-9.87829e-05
-9.40481e-05
-8.87815e-05
-8.29547e-05
-7.65663e-05
-6.96486e-05
-6.22713e-05
-5.4536e-05
-4.65624e-05
-3.84686e-05
-3.03643e-05
-2.23706e-05
-1.47003e-05
-8.83672e-06
0.000875108
0.000722821
0.000540571
0.000356907
0.000190882
5.09387e-05
-6.06711e-05
-0.000145093
-0.000205893
-0.000247906
-0.000275899
-0.000293787
-0.000304484
-0.00031006
-0.000311962
-0.000311198
-0.000308478
-0.000304311
-0.000299073
-0.000293048
-0.000286454
-0.000279462
-0.000272206
-0.000264796
-0.000257317
-0.00024984
-0.000242421
-0.000235108
-0.000227939
-0.000220944
-0.000214148
-0.000207571
-0.00020123
-0.000195135
-0.000189296
-0.000183718
-0.000178406
-0.000173359
-0.000168577
-0.000164056
-0.000159791
-0.000155775
-0.000151998
-0.000148449
-0.000145115
-0.00014198
-0.000139028
-0.000136237
-0.000133587
-0.000131052
-0.000128606
-0.000126217
-0.000123854
-0.00012148
-0.000119055
-0.000116536
-0.000113877
-0.000111028
-0.000107935
-0.000104542
-0.000100788
-9.6618e-05
-9.19771e-05
-8.68226e-05
-8.11284e-05
-7.48939e-05
-6.81503e-05
-6.09635e-05
-5.3429e-05
-4.56594e-05
-3.77681e-05
-2.98635e-05
-2.20699e-05
-1.46041e-05
-8.75454e-06
0.0008115
0.000677451
0.000517413
0.000353368
0.000201835
7.14418e-05
-3.4813e-05
-0.000117247
-0.000178412
-0.000222124
-0.000252378
-0.000272622
-0.000285532
-0.000293084
-0.000296705
-0.000297422
-0.000295972
-0.000292899
-0.000288607
-0.000283403
-0.000277526
-0.000271163
-0.000264463
-0.000257544
-0.000250502
-0.000243416
-0.00023635
-0.000229354
-0.000222471
-0.000215736
-0.000209177
-0.000202817
-0.000196672
-0.000190758
-0.000185085
-0.000179659
-0.000174486
-0.000169566
-0.000164901
-0.000160487
-0.000156319
-0.000152391
-0.000148695
-0.000145219
-0.000141951
-0.000138877
-0.000135978
-0.000133237
-0.000130631
-0.000128137
-0.000125729
-0.000123376
-0.000121046
-0.000118705
-0.000116314
-0.000113831
-0.000111211
-0.000108405
-0.000105361
-0.000102025
-9.83403e-05
-9.42525e-05
-8.97112e-05
-8.4676e-05
-7.91234e-05
-7.30535e-05
-6.64961e-05
-5.9513e-05
-5.21936e-05
-4.46432e-05
-3.69698e-05
-2.9279e-05
-2.16935e-05
-1.44166e-05
-8.49072e-06
0.000753484
0.000634847
0.000493882
0.000347433
0.000209496
8.84529e-05
-1.21956e-05
-9.2098e-05
-0.000152974
-0.000197773
-0.000229789
-0.000252014
-0.000266872
-0.00027622
-0.000281441
-0.00028356
-0.000283332
-0.000281321
-0.000277954
-0.00027356
-0.000268392
-0.000262655
-0.000256509
-0.000250082
-0.00024348
-0.000236788
-0.000230076
-0.000223401
-0.000216808
-0.000210337
-0.000204019
-0.000197878
-0.000191934
-0.000186204
-0.000180699
-0.000175428
-0.000170396
-0.000165607
-0.00016106
-0.000156754
-0.000152685
-0.000148848
-0.000145233
-0.000141831
-0.00013863
-0.000135615
-0.000132771
-0.000130079
-0.000127518
-0.000125064
-0.000122692
-0.000120374
-0.000118078
-0.000115769
-0.000113412
-0.000110964
-0.000108382
-0.000105619
-0.000102626
-9.9349e-05
-9.57357e-05
-9.17341e-05
-8.72969e-05
-8.23869e-05
-7.69826e-05
-7.10848e-05
-6.4722e-05
-5.79518e-05
-5.08571e-05
-4.35365e-05
-3.60916e-05
-2.86242e-05
-2.12508e-05
-1.41487e-05
-8.10402e-06
0.000700331
0.000594851
0.000470304
0.000339556
0.000214271
0.000102292
7.39583e-06
-6.95434e-05
-0.00012957
-0.000174901
-0.000208207
-0.000232047
-0.000248584
-0.000259537
-0.000266227
-0.000269659
-0.000270593
-0.000269604
-0.000267136
-0.000263534
-0.000259066
-0.000253948
-0.000248353
-0.000242418
-0.000236257
-0.000229961
-0.000223606
-0.000217254
-0.000210956
-0.000204753
-0.000198679
-0.000192761
-0.000187022
-0.00018148
-0.000176147
-0.000171034
-0.000166147
-0.00016149
-0.000157065
-0.000152871
-0.000148903
-0.000145158
-0.000141627
-0.000138301
-0.000135168
-0.000132216
-0.000129427
-0.000126785
-0.000124269
-0.000121857
-0.000119523
-0.00011724
-0.000114977
-0.000112702
-0.000110379
-0.000107967
-0.000105425
-0.000102707
-9.97656e-05
-9.65507e-05
-9.30118e-05
-8.91e-05
-8.47712e-05
-7.99911e-05
-7.47402e-05
-6.90201e-05
-6.28575e-05
-5.63061e-05
-4.94427e-05
-4.23587e-05
-3.51497e-05
-2.79118e-05
-2.07522e-05
-1.38156e-05
-7.65507e-06
0.000651419
0.00055728
0.000446911
0.000330132
0.000216537
0.000113265
2.4176e-05
-4.94687e-05
-0.000108171
-0.00015354
-0.000187697
-0.000212797
-0.000230742
-0.000243102
-0.000251119
-0.000255765
-0.000257791
-0.000257777
-0.000256175
-0.000253342
-0.000249559
-0.000245052
-0.000240002
-0.000234556
-0.000228835
-0.000222936
-0.000216941
-0.000210915
-0.000204914
-0.000198982
-0.000193156
-0.000187467
-0.000181937
-0.000176586
-0.00017143
-0.000166479
-0.000161741
-0.000157221
-0.000152921
-0.000148841
-0.000144978
-0.000141328
-0.000137884
-0.000134636
-0.000131575
-0.000128687
-0.000125956
-0.000123366
-0.000120898
-0.000118529
-0.000116235
-0.000113989
-0.000111762
-0.000109523
-0.000107235
-0.000104861
-0.000102361
-9.96908e-05
-9.68046e-05
-9.36548e-05
-9.01939e-05
-8.63758e-05
-8.21596e-05
-7.75137e-05
-7.24206e-05
-6.68822e-05
-6.09239e-05
-5.45953e-05
-4.79675e-05
-4.11248e-05
-3.41564e-05
-2.7152e-05
-2.02074e-05
-1.34334e-05
-7.19315e-06
0.000606217
0.000521938
0.000423863
0.00031949
0.000216636
0.000121661
3.83573e-05
-3.17496e-05
-8.87348e-05
-0.000133705
-0.000168309
-0.000194328
-0.000213414
-0.000226977
-0.000236172
-0.000241923
-0.000244963
-0.000245868
-0.000245093
-0.000243002
-0.000239885
-0.000235975
-0.000231462
-0.000226501
-0.000221217
-0.000215715
-0.00021008
-0.000204383
-0.000198682
-0.000193025
-0.000187451
-0.000181992
-0.000176676
-0.000171521
-0.000166545
-0.000161761
-0.000157176
-0.000152796
-0.000148626
-0.000144664
-0.00014091
-0.000137359
-0.000134005
-0.00013084
-0.000127853
-0.000125032
-0.000122363
-0.000119828
-0.00011741
-0.000115087
-0.000112835
-0.00011063
-0.000108442
-0.00010624
-0.000103991
-0.000101659
-9.9204e-05
-9.65846e-05
-9.3757e-05
-9.06764e-05
-8.72975e-05
-8.35774e-05
-7.94781e-05
-7.49705e-05
-7.0039e-05
-6.46859e-05
-5.8935e-05
-5.28321e-05
-4.64427e-05
-3.98444e-05
-3.31201e-05
-2.63522e-05
-1.96243e-05
-1.30159e-05
-6.7506e-06
0.000564271
0.00048863
0.000401265
0.000307904
0.000214877
0.000127752
5.01473e-05
-1.62555e-05
-7.1204e-05
-0.000115397
-0.000150079
-0.000176696
-0.000196659
-0.00021122
-0.000221437
-0.000228178
-0.000232146
-0.000233907
-0.000233914
-0.000232532
-0.000230057
-0.000226728
-0.000222741
-0.000218257
-0.000213406
-0.000208299
-0.000203024
-0.000197656
-0.000192257
-0.000186877
-0.000181559
-0.000176336
-0.000171236
-0.000166282
-0.000161491
-0.000156876
-0.000152449
-0.000148215
-0.000144178
-0.000140339
-0.000136698
-0.00013325
-0.00012999
-0.00012691
-0.000124002
-0.000121252
-0.000118647
-0.000116171
-0.000113807
-0.000111533
-0.000109327
-0.000107165
-0.000105019
-0.000102859
-0.000100653
-9.83656e-05
-9.59595e-05
-9.3395e-05
-9.06304e-05
-8.76232e-05
-8.43308e-05
-8.07133e-05
-7.67353e-05
-7.23703e-05
-6.76041e-05
-6.24395e-05
-5.68986e-05
-5.10238e-05
-4.4875e-05
-3.85238e-05
-3.20461e-05
-2.55173e-05
-1.90087e-05
-1.25738e-05
-6.34341e-06
0.000525192
0.000457168
0.000379177
0.000295599
0.000211532
0.000131792
5.9747e-05
-2.8515e-06
-5.55103e-05
-9.86016e-05
-0.00013303
-0.000159945
-0.000180532
-0.000195887
-0.000206965
-0.000214573
-0.000219377
-0.000221925
-0.000222662
-0.000221951
-0.00022009
-0.000217322
-0.000213846
-0.000209829
-0.000205405
-0.000200689
-0.000195772
-0.000190734
-0.000185638
-0.000180538
-0.000175477
-0.000170493
-0.000165613
-0.000160864
-0.000156262
-0.000151822
-0.000147557
-0.000143472
-0.000139573
-0.000135861
-0.000132337
-0.000128996
-0.000125835
-0.000122845
-0.000120018
-0.000117343
-0.000114807
-0.000112394
-0.000110087
-0.000107866
-0.00010571
-0.000103595
-0.000101495
-9.93804e-05
-9.72208e-05
-9.49826e-05
-9.26298e-05
-9.01247e-05
-8.74277e-05
-8.44986e-05
-8.12977e-05
-7.77875e-05
-7.39354e-05
-6.97171e-05
-6.51201e-05
-6.01471e-05
-5.48188e-05
-4.91742e-05
-4.32681e-05
-3.7166e-05
-3.09375e-05
-2.46505e-05
-1.83651e-05
-1.21147e-05
-5.97525e-06
0.00048864
0.000427376
0.00035763
0.000282755
0.000206841
0.000134014
6.7349e-05
8.59848e-06
-4.15768e-05
-8.32933e-05
-0.000117173
-0.000144108
-0.000165077
-0.000181025
-0.000192803
-0.000201151
-0.000206693
-0.000209952
-0.000211361
-0.000211278
-0.000209998
-0.000207767
-0.000204786
-0.000201223
-0.000197218
-0.000192886
-0.000188325
-0.000183615
-0.000178823
-0.000174003
-0.000169203
-0.00016446
-0.000159805
-0.000155263
-0.000150854
-0.000146594
-0.000142495
-0.000138564
-0.000134807
-0.000131227
-0.000127824
-0.000124595
-0.000121536
-0.00011864
-0.0001159
-0.000113304
-0.00011084
-0.000108493
-0.000106248
-0.000104084
-0.000101982
-9.99183e-05
-9.78678e-05
-9.58032e-05
-9.36945e-05
-9.15097e-05
-8.92149e-05
-8.67739e-05
-8.41494e-05
-8.13035e-05
-7.8199e-05
-7.48011e-05
-7.10796e-05
-6.70124e-05
-6.25883e-05
-5.78101e-05
-5.2697e-05
-4.72847e-05
-4.16234e-05
-3.57727e-05
-2.97959e-05
-2.37537e-05
-1.76965e-05
-1.16433e-05
-5.64232e-06
0.000454324
0.000399091
0.000336633
0.000269514
0.00020101
0.000134629
7.31359e-05
1.82302e-05
-2.93199e-05
-6.94358e-05
-0.000102509
-0.000129211
-0.000150333
-0.000166677
-0.000178994
-0.000187951
-0.000194127
-0.000198017
-0.000200036
-0.000200533
-0.000199798
-0.000198075
-0.000195568
-0.000192444
-0.000188847
-0.000184894
-0.000180683
-0.000176299
-0.000171809
-0.000167271
-0.000162733
-0.000158234
-0.000153806
-0.000149476
-0.000145264
-0.000141187
-0.000137258
-0.000133485
-0.000129876
-0.000126431
-0.000123154
-0.000120041
-0.000117089
-0.000114292
-0.000111643
-0.00010913
-0.000106743
-0.000104467
-0.000102287
-0.000100185
-9.81403e-05
-9.61321e-05
-9.41359e-05
-9.21254e-05
-9.00721e-05
-8.79456e-05
-8.57134e-05
-8.33415e-05
-8.07947e-05
-7.80372e-05
-7.50343e-05
-7.17537e-05
-6.81677e-05
-6.4256e-05
-6.00087e-05
-5.54285e-05
-5.05333e-05
-4.53557e-05
-3.99412e-05
-3.43442e-05
-2.86218e-05
-2.28282e-05
-1.7005e-05
-1.11623e-05
-5.33736e-06
0.000421985
0.000372162
0.000316176
0.000255988
0.000194218
0.00013383
7.728e-05
2.61781e-05
-1.86505e-05
-5.6983e-05
-8.90268e-05
-0.000115266
-0.000136327
-0.00015288
-0.000165576
-0.000175011
-0.000181716
-0.000186152
-0.000188713
-0.000189737
-0.000189507
-0.000188261
-0.000186203
-0.000183501
-0.000180298
-0.000176714
-0.000172848
-0.000168786
-0.000164597
-0.00016034
-0.000156065
-0.000151811
-0.000147613
-0.000143498
-0.000139487
-0.000135597
-0.000131843
-0.000128233
-0.000124774
-0.000121471
-0.000118323
-0.000115331
-0.000112491
-0.000109797
-0.000107242
-0.000104817
-0.000102511
-0.000100311
-9.82005e-05
-9.61639e-05
-9.4182e-05
-9.22338e-05
-9.02963e-05
-8.83446e-05
-8.63514e-05
-8.4288e-05
-8.21236e-05
-7.9826e-05
-7.73619e-05
-7.46981e-05
-7.18022e-05
-6.86441e-05
-6.51985e-05
-6.14469e-05
-5.73803e-05
-5.30017e-05
-4.83272e-05
-4.33866e-05
-3.82214e-05
-3.28805e-05
-2.74156e-05
-2.18745e-05
-1.6292e-05
-1.06729e-05
-5.05236e-06
0.000391399
0.00034645
0.000296239
0.000242263
0.000186613
0.000131785
7.99387e-05
3.25694e-05
-9.4793e-06
-4.58834e-05
-7.67065e-05
-0.000102277
-0.000123078
-0.00013966
-0.000152578
-0.000162359
-0.000169484
-0.000174377
-0.000177411
-0.000178905
-0.000179135
-0.000178333
-0.000176697
-0.000174397
-0.000171573
-0.000168347
-0.000164818
-0.000161073
-0.000157182
-0.000153206
-0.000149194
-0.000145188
-0.000141222
-0.000137325
-0.000133518
-0.00012982
-0.000126244
-0.000122801
-0.000119498
-0.00011634
-0.000113327
-0.000110461
-0.000107736
-0.00010515
-0.000102695
-0.000100363
-9.8142e-05
-9.6021e-05
-9.39855e-05
-9.20192e-05
-9.01042e-05
-8.82206e-05
-8.63465e-05
-8.44583e-05
-8.25302e-05
-8.05349e-05
-7.84434e-05
-7.62253e-05
-7.38495e-05
-7.12848e-05
-6.85012e-05
-6.54709e-05
-6.21707e-05
-5.85838e-05
-5.47021e-05
-5.05284e-05
-4.60777e-05
-4.13769e-05
-3.64634e-05
-3.13814e-05
-2.61773e-05
-2.08932e-05
-1.55585e-05
-1.01755e-05
-4.77997e-06
0.000362364
0.00032183
0.000276799
0.000228409
0.000178331
0.000128655
8.12666e-05
3.75326e-05
-1.71396e-06
-3.60833e-05
-6.55289e-05
-9.02526e-05
-0.000110614
-0.000127056
-0.000140045
-0.000150043
-0.000157476
-0.000162736
-0.000166166
-0.00016807
-0.00016871
-0.000168312
-0.000167069
-0.000165146
-0.000162684
-0.000159801
-0.0001566
-0.000153165
-0.000149568
-0.00014587
-0.000142121
-0.000138363
-0.000134631
-0.000130953
-0.000127354
-0.00012385
-0.000120457
-0.000117186
-0.000114043
-0.000111034
-0.000108161
-0.000105424
-0.000102821
-0.000100347
-9.79964e-05
-9.57609e-05
-9.36306e-05
-9.1594e-05
-8.96376e-05
-8.77463e-05
-8.59029e-05
-8.40887e-05
-8.22829e-05
-8.04632e-05
-7.86053e-05
-7.66833e-05
-7.46699e-05
-7.25367e-05
-7.02547e-05
-6.77947e-05
-6.51289e-05
-6.22319e-05
-5.90822e-05
-5.56647e-05
-5.19721e-05
-4.80071e-05
-4.37833e-05
-3.93251e-05
-3.46662e-05
-2.98462e-05
-2.49066e-05
-1.98844e-05
-1.48048e-05
-9.66958e-06
-4.51315e-06
0.000334682
0.00029816
0.000257792
0.000214448
0.000169456
0.000124564
8.14037e-05
4.12065e-05
4.77125e-06
-2.74756e-05
-5.54073e-05
-7.91242e-05
-9.8882e-05
-0.000115027
-0.000127947
-0.000138037
-0.000145674
-0.000151211
-0.000154966
-0.00015722
-0.000158223
-0.000158191
-0.00015731
-0.000155741
-0.000153622
-0.000151071
-0.000148187
-0.000145056
-0.000141749
-0.000138326
-0.000134839
-0.00013133
-0.000127834
-0.000124379
-0.00012099
-0.000117685
-0.000114479
-0.000111383
-0.000108406
-0.000105551
-0.000102823
-0.00010022
-9.77427e-05
-9.53859e-05
-9.31443e-05
-9.10105e-05
-8.89754e-05
-8.70279e-05
-8.51555e-05
-8.33439e-05
-8.1577e-05
-7.9837e-05
-7.81045e-05
-7.63583e-05
-7.45756e-05
-7.27322e-05
-7.08024e-05
-6.87597e-05
-6.6577e-05
-6.42273e-05
-6.1685e-05
-5.89266e-05
-5.59326e-05
-5.26892e-05
-4.919e-05
-4.54375e-05
-4.1444e-05
-3.72315e-05
-3.28302e-05
-2.82755e-05
-2.36043e-05
-1.88494e-05
-1.40324e-05
-9.15646e-06
-4.24692e-06
0.000294746
0.000263753
0.000229734
0.000193255
0.00015524
0.000117003
7.98364e-05
4.47746e-05
1.25425e-05
-1.64139e-05
-4.18865e-05
-6.38595e-05
-8.24612e-05
-9.79158e-05
-0.000110503
-0.000120525
-0.00012829
-0.000134092
-0.000138205
-0.00014088
-0.000142342
-0.00014279
-0.000142398
-0.000141318
-0.000139682
-0.000137603
-0.000135178
-0.00013249
-0.000129611
-0.000126598
-0.000123504
-0.00012037
-0.00011723
-0.000114115
-0.000111048
-0.000108048
-0.00010513
-0.000102306
-9.95844e-05
-9.69702e-05
-9.44672e-05
-9.20762e-05
-8.97961e-05
-8.7624e-05
-8.55551e-05
-8.35828e-05
-8.16991e-05
-7.98941e-05
-7.81564e-05
-7.6473e-05
-7.48295e-05
-7.32097e-05
-7.1596e-05
-6.99691e-05
-6.83086e-05
-6.65924e-05
-6.47976e-05
-6.29005e-05
-6.08769e-05
-5.87029e-05
-5.63561e-05
-5.3816e-05
-5.10657e-05
-4.80934e-05
-4.48937e-05
-4.14689e-05
-3.78293e-05
-3.39935e-05
-2.99869e-05
-2.5839e-05
-2.15804e-05
-1.72381e-05
-1.28299e-05
-8.36252e-06
-3.83873e-06
0.000244397
0.000219737
0.000192873
0.000164121
0.000134061
0.000103596
7.36661e-05
4.50604e-05
1.83746e-05
-5.98187e-06
-2.77675e-05
-4.68868e-05
-6.33624e-05
-7.73047e-05
-8.88825e-05
-9.82997e-05
-0.000105776
-0.000111534
-0.000115789
-0.000118745
-0.000120589
-0.000121491
-0.000121604
-0.000121061
-0.000119981
-0.000118468
-0.00011661
-0.000114485
-0.000112159
-0.000109688
-0.00010712
-0.000104495
-0.000101847
-9.92035e-05
-9.6588e-05
-9.4019e-05
-9.15114e-05
-8.90768e-05
-8.67238e-05
-8.44583e-05
-8.22842e-05
-8.02029e-05
-7.82142e-05
-7.63159e-05
-7.45044e-05
-7.27744e-05
-7.1119e-05
-6.953e-05
-6.79977e-05
-6.65111e-05
-6.50578e-05
-6.3624e-05
-6.21945e-05
-6.0753e-05
-5.9282e-05
-5.77629e-05
-5.61761e-05
-5.45018e-05
-5.27197e-05
-5.08101e-05
-4.87543e-05
-4.65358e-05
-4.41407e-05
-4.15598e-05
-3.87887e-05
-3.58291e-05
-3.26892e-05
-2.93835e-05
-2.59316e-05
-2.23563e-05
-1.86812e-05
-1.49269e-05
-1.11082e-05
-7.23353e-06
-3.30365e-06
0.000193562
0.000174796
0.000154494
0.000132813
0.000110094
8.69314e-05
6.39707e-05
4.1777e-05
2.08018e-05
1.38277e-06
-1.62517e-05
-3.19742e-05
-4.57458e-05
-5.75984e-05
-6.76167e-05
-7.59218e-05
-8.2657e-05
-8.79767e-05
-9.20377e-05
-9.49936e-05
-9.69905e-05
-9.8164e-05
-9.86383e-05
-9.85256e-05
-9.79258e-05
-9.69273e-05
-9.56077e-05
-9.40343e-05
-9.22655e-05
-9.03515e-05
-8.83349e-05
-8.62521e-05
-8.41336e-05
-8.2005e-05
-7.98873e-05
-7.77979e-05
-7.57505e-05
-7.3756e-05
-7.18227e-05
-6.99564e-05
-6.81611e-05
-6.64387e-05
-6.47895e-05
-6.32122e-05
-6.17041e-05
-6.02612e-05
-5.88782e-05
-5.75483e-05
-5.6264e-05
-5.50161e-05
-5.37947e-05
-5.25885e-05
-5.13853e-05
-5.01718e-05
-4.89337e-05
-4.7656e-05
-4.63232e-05
-4.49191e-05
-4.34278e-05
-4.18336e-05
-4.01219e-05
-3.82797e-05
-3.62965e-05
-3.4165e-05
-3.18819e-05
-2.94484e-05
-2.68706e-05
-2.41592e-05
-2.13286e-05
-1.83955e-05
-1.53774e-05
-1.22899e-05
-9.14471e-06
-5.95128e-06
-2.71352e-06
0.000141681
0.000128403
0.000114121
9.88974e-05
8.29208e-05
6.65591e-05
5.02264e-05
3.42976e-05
1.90856e-05
4.83884e-06
-8.25909e-06
-2.00887e-05
-3.05897e-05
-3.97531e-05
-4.76106e-05
-5.42245e-05
-5.96786e-05
-6.40698e-05
-6.75019e-05
-7.00804e-05
-7.19087e-05
-7.30854e-05
-7.37026e-05
-7.3845e-05
-7.35893e-05
-7.30041e-05
-7.21502e-05
-7.10813e-05
-6.98439e-05
-6.84785e-05
-6.70196e-05
-6.5497e-05
-6.39357e-05
-6.23567e-05
-6.07775e-05
-5.92125e-05
-5.76733e-05
-5.61691e-05
-5.47069e-05
-5.3292e-05
-5.19277e-05
-5.06162e-05
-4.93579e-05
-4.81523e-05
-4.69976e-05
-4.58909e-05
-4.48284e-05
-4.38052e-05
-4.28156e-05
-4.18529e-05
-4.09096e-05
-3.99772e-05
-3.90467e-05
-3.8108e-05
-3.71507e-05
-3.61636e-05
-3.5135e-05
-3.40532e-05
-3.29065e-05
-3.16833e-05
-3.03733e-05
-2.89669e-05
-2.74567e-05
-2.58374e-05
-2.41067e-05
-2.22654e-05
-2.03177e-05
-1.82706e-05
-1.61342e-05
-1.39198e-05
-1.16393e-05
-9.304e-06
-6.92286e-06
-4.50464e-06
-2.05442e-06
8.76316e-05
7.96383e-05
7.10802e-05
6.19759e-05
5.24156e-05
4.25981e-05
3.27529e-05
2.30921e-05
1.37976e-05
5.01983e-06
-3.12394e-06
-1.05507e-05
-1.7211e-05
-2.30852e-05
-2.8179e-05
-3.25182e-05
-3.61436e-05
-3.91063e-05
-4.14636e-05
-4.3276e-05
-4.46044e-05
-4.55082e-05
-4.6044e-05
-4.62645e-05
-4.62182e-05
-4.5949e-05
-4.54962e-05
-4.48947e-05
-4.41752e-05
-4.33644e-05
-4.24854e-05
-4.1558e-05
-4.05992e-05
-3.96231e-05
-3.86418e-05
-3.76649e-05
-3.67005e-05
-3.57551e-05
-3.48335e-05
-3.39394e-05
-3.30755e-05
-3.22433e-05
-3.14433e-05
-3.06755e-05
-2.99389e-05
-2.92317e-05
-2.85518e-05
-2.78961e-05
-2.7261e-05
-2.66425e-05
-2.60358e-05
-2.54357e-05
-2.48364e-05
-2.42318e-05
-2.36153e-05
-2.29799e-05
-2.23183e-05
-2.16234e-05
-2.08877e-05
-2.01045e-05
-1.9267e-05
-1.83698e-05
-1.74081e-05
-1.63787e-05
-1.52804e-05
-1.41133e-05
-1.28799e-05
-1.15844e-05
-1.02325e-05
-8.83083e-06
-7.38646e-06
-5.90612e-06
-4.39577e-06
-2.86166e-06
-1.30733e-06
2.98834e-05
2.71581e-05
2.42504e-05
2.1164e-05
1.79263e-05
1.46005e-05
1.12608e-05
7.97617e-06
4.80654e-06
1.80245e-06
-9.95715e-07
-3.55838e-06
-5.86676e-06
-7.91201e-06
-9.69384e-06
-1.1219e-05
-1.24996e-05
-1.35516e-05
-1.43935e-05
-1.50454e-05
-1.55275e-05
-1.58601e-05
-1.60624e-05
-1.61527e-05
-1.61479e-05
-1.60634e-05
-1.59129e-05
-1.57089e-05