/*--------------------------------*- C++ -*----------------------------------*\
| =========                 |                                                 |
| \\      /  F ield         | OpenFOAM: The Open Source CFD Toolbox           |
|  \\    /   O peration     | Version:  2.3.0                                 |
|   \\  /    A nd           | Web:      www.OpenFOAM.org                      |
|    \\/     M anipulation  |                                                 |
\*---------------------------------------------------------------------------*/
FoamFile
{
    version     2.0;
    format      ascii;
    class       surfaceScalarField;
    location    "0.45";
    object      phi_0;
}
// * * * * * * * * * * * * * * * * * * * * * * * * * * * * * * * * * * * * * //

dimensions      [0 3 -1 0 0 0 0];

internalField   nonuniform List<scalar> 
5764
(
1.93894e-08
4.30154e-09
-2.36909e-08
1.561e-08
3.77938e-09
1.25124e-08
3.09759e-09
1.00841e-08
2.42831e-09
8.26166e-09
1.82242e-09
6.94275e-09
1.31892e-09
6.00854e-09
9.34212e-10
5.34754e-09
6.60997e-10
4.86975e-09
4.77792e-10
4.51043e-09
3.59315e-10
4.22715e-09
2.8328e-10
3.99391e-09
2.33242e-10
3.79536e-09
1.98544e-10
3.62245e-09
1.72917e-10
3.46955e-09
1.52895e-10
3.33295e-09
1.36606e-10
3.20994e-09
1.2301e-10
3.09846e-09
1.11481e-10
2.99686e-09
1.01598e-10
2.9038e-09
9.30572e-11
2.81818e-09
8.5619e-11
2.73909e-09
7.9095e-11
2.66575e-09
7.33334e-11
2.59754e-09
6.8212e-11
2.53391e-09
6.36319e-11
2.4744e-09
5.95128e-11
2.41861e-09
5.57893e-11
2.3662e-09
5.24074e-11
2.31688e-09
4.93223e-11
2.27038e-09
4.64964e-11
2.22648e-09
4.38981e-11
2.18498e-09
4.15003e-11
2.1457e-09
3.92801e-11
2.10848e-09
3.72173e-11
2.07319e-09
3.52947e-11
2.03969e-09
3.34971e-11
2.00788e-09
3.18111e-11
1.97766e-09
3.0225e-11
1.94893e-09
2.87283e-11
1.92162e-09
2.73116e-11
1.89565e-09
2.59666e-11
1.87096e-09
2.46856e-11
1.8475e-09
2.34619e-11
1.82521e-09
2.22892e-11
1.80405e-09
2.11619e-11
1.78398e-09
2.00748e-11
1.76495e-09
1.90233e-11
1.74695e-09
1.80031e-11
1.72994e-09
1.70102e-11
1.7139e-09
1.60409e-11
1.69881e-09
1.50921e-11
1.68465e-09
1.41608e-11
1.6714e-09
1.32442e-11
1.65906e-09
1.23399e-11
1.64762e-09
1.14456e-11
1.63706e-09
1.0559e-11
1.62738e-09
9.67767e-12
1.61858e-09
8.79881e-12
1.61066e-09
7.91894e-12
1.60363e-09
7.03381e-12
1.59749e-09
6.13846e-12
1.59226e-09
5.22773e-12
1.58796e-09
4.29745e-12
1.58462e-09
3.3461e-12
1.58224e-09
2.37633e-12
1.58085e-09
1.39648e-12
1.58041e-09
4.39814e-13
1.58075e-09
-3.46326e-13
1.58164e-09
-8.83288e-13
1.58286e-09
-1.22409e-12
1.58425e-09
-1.38573e-12
1.58562e-09
-1.37666e-12
1.58681e-09
-1.18697e-12
1.58768e-09
-8.66125e-13
1.97156e-12
2.5777e-08
5.22526e-09
-2.67007e-08
2.43398e-08
5.21652e-09
2.26942e-08
4.74324e-09
2.10192e-08
4.10331e-09
1.94231e-08
3.41849e-09
1.79656e-08
2.77649e-09
1.6669e-08
2.23081e-09
1.55328e-08
1.79711e-09
1.45448e-08
1.46585e-09
1.36872e-08
1.21693e-09
1.29412e-08
1.02926e-09
1.22891e-08
8.85356e-10
1.17152e-08
7.72405e-10
1.12065e-08
6.81638e-10
1.07522e-08
6.07206e-10
1.03436e-08
5.45176e-10
9.97381e-09
4.92816e-10
9.63713e-09
4.48154e-10
9.32902e-09
4.09713e-10
9.04572e-09
3.76353e-10
8.78416e-09
3.47182e-10
8.54176e-09
3.21493e-10
8.31638e-09
2.98717e-10
8.10619e-09
2.78401e-10
7.90965e-09
2.60174e-10
7.72543e-09
2.43734e-10
7.55238e-09
2.28835e-10
7.38952e-09
2.1527e-10
7.23597e-09
2.02869e-10
7.09098e-09
1.91486e-10
6.95388e-09
1.81e-10
6.82408e-09
1.71305e-10
6.70104e-09
1.62311e-10
6.58432e-09
1.53941e-10
6.47349e-09
1.46126e-10
6.36818e-09
1.38806e-10
6.26806e-09
1.3193e-10
6.17284e-09
1.2545e-10
6.08224e-09
1.19326e-10
5.99603e-09
1.13518e-10
5.914e-09
1.07996e-10
5.83596e-09
1.02727e-10
5.76174e-09
9.76847e-11
5.69118e-09
9.28441e-11
5.62416e-09
8.81823e-11
5.56056e-09
8.36783e-11
5.50027e-09
7.9313e-11
5.44321e-09
7.50688e-11
5.38929e-09
7.09296e-11
5.33845e-09
6.68805e-11
5.29063e-09
6.2908e-11
5.24579e-09
5.89998e-11
5.20389e-09
5.51447e-11
5.1649e-09
5.13323e-11
5.12879e-09
4.75532e-11
5.09555e-09
4.37984e-11
5.06517e-09
4.00588e-11
5.03764e-09
3.63249e-11
5.01298e-09
3.25865e-11
4.99118e-09
2.8833e-11
4.97226e-09
2.50551e-11
4.95624e-09
2.12468e-11
4.94313e-09
1.74113e-11
4.93291e-09
1.3567e-11
4.92553e-09
9.75385e-12
4.92089e-09
6.03242e-12
4.91885e-09
2.48544e-12
4.91903e-09
-5.25109e-13
4.92079e-09
-2.64995e-12
4.92354e-09
-3.97237e-12
4.92679e-09
-4.6324e-12
4.9301e-09
-4.684e-12
4.93302e-09
-4.10966e-12
4.93478e-09
-2.63197e-12
4.40008e-12
2.80607e-08
5.2087e-09
-2.80441e-08
2.77555e-08
5.5217e-09
2.71787e-08
5.32e-09
2.64115e-08
4.87052e-09
2.55288e-08
4.30117e-09
2.45948e-08
3.71052e-09
2.36558e-08
3.16979e-09
2.2741e-08
2.7119e-09
2.18667e-08
2.34019e-09
2.10406e-08
2.04304e-09
2.02653e-08
1.80457e-09
1.95404e-08
1.61027e-09
1.88639e-08
1.44888e-09
1.82331e-08
1.31241e-09
1.7645e-08
1.19531e-09
1.70964e-08
1.09374e-09
1.65844e-08
1.00491e-09
1.61058e-08
9.26705e-10
1.5658e-08
8.57486e-10
1.52385e-08
7.95916e-10
1.48448e-08
7.40893e-10
1.44747e-08
6.91503e-10
1.41265e-08
6.4698e-10
1.37982e-08
6.06678e-10
1.34883e-08
5.70055e-10
1.31954e-08
5.36647e-10
1.29182e-08
5.06065e-10
1.26555e-08
4.77971e-10
1.24063e-08
4.52078e-10
1.21696e-08
4.28139e-10
1.19447e-08
4.05937e-10
1.17307e-08
3.85285e-10
1.1527e-08
3.6602e-10
1.13329e-08
3.47996e-10
1.1148e-08
3.31087e-10
1.09716e-08
3.15179e-10
1.08034e-08
3.00171e-10
1.06428e-08
2.85972e-10
1.04897e-08
2.725e-10
1.03435e-08
2.59682e-10
1.0204e-08
2.4745e-10
1.0071e-08
2.35743e-10
9.94421e-09
2.24504e-10
9.82338e-09
2.13683e-10
9.70833e-09
2.03231e-10
9.5989e-09
1.93105e-10
9.49495e-09
1.83265e-10
9.39634e-09
1.73672e-10
9.30298e-09
1.64293e-10
9.21477e-09
1.55095e-10
9.13163e-09
1.46049e-10
9.0535e-09
1.37127e-10
8.98034e-09
1.28307e-10
8.9121e-09
1.19565e-10
8.84878e-09
1.10881e-10
8.79034e-09
1.02235e-10
8.73679e-09
9.36116e-11
8.68812e-09
8.49922e-11
8.64434e-09
7.63619e-11
8.60547e-09
6.77085e-11
8.5715e-09
5.90266e-11
8.54242e-09
5.03248e-11
8.51819e-09
4.16362e-11
8.49873e-09
3.30314e-11
8.48385e-09
2.46336e-11
8.47326e-09
1.66257e-11
8.46652e-09
9.22093e-12
8.46332e-09
2.67159e-12
8.4631e-09
-2.42432e-12
8.46489e-09
-5.76646e-12
8.46787e-09
-7.61258e-12
8.47134e-09
-8.14691e-12
8.47457e-09
-7.3451e-12
8.47641e-09
-4.46847e-12
6.96512e-12
2.93319e-08
4.94832e-09
-2.90715e-08
2.94574e-08
5.39618e-09
2.94062e-08
5.37115e-09
2.91883e-08
5.08845e-09
2.88296e-08
4.65987e-09
2.83667e-08
4.17347e-09
2.78358e-08
3.70067e-09
2.7266e-08
3.28166e-09
2.6678e-08
2.92826e-09
2.60851e-08
2.63587e-09
2.5496e-08
2.39366e-09
2.4916e-08
2.19033e-09
2.43483e-08
2.01659e-09
2.37951e-08
1.86559e-09
2.32579e-08
1.73251e-09
2.27376e-08
1.614e-09
2.22349e-08
1.50763e-09
2.175e-08
1.4116e-09
2.1283e-08
1.32451e-09
2.08337e-08
1.24519e-09
2.04019e-08
1.17271e-09
1.99871e-08
1.10626e-09
1.95889e-08
1.04516e-09
1.92068e-08
9.8882e-10
1.88401e-08
9.36727e-10
1.84883e-08
8.88441e-10
1.81508e-08
8.43575e-10
1.7827e-08
8.01788e-10
1.75163e-08
7.6278e-10
1.72182e-08
7.26285e-10
1.6932e-08
6.92064e-10
1.66574e-08
6.59906e-10
1.63938e-08
6.29619e-10
1.61408e-08
6.01032e-10
1.58979e-08
5.7399e-10
1.56647e-08
5.48349e-10
1.54409e-08
5.23982e-10
1.52261e-08
5.0077e-10
1.502e-08
4.78605e-10
1.48223e-08
4.57386e-10
1.46327e-08
4.3702e-10
1.4451e-08
4.17421e-10
1.4277e-08
3.98509e-10
1.41105e-08
3.80209e-10
1.39513e-08
3.62451e-10
1.37992e-08
3.4517e-10
1.36542e-08
3.28304e-10
1.35161e-08
3.11796e-10
1.33848e-08
2.95592e-10
1.32602e-08
2.79642e-10
1.31424e-08
2.63901e-10
1.30312e-08
2.48325e-10
1.29266e-08
2.32875e-10
1.28286e-08
2.17516e-10
1.27373e-08
2.02216e-10
1.26526e-08
1.86946e-10
1.25745e-08
1.71681e-10
1.25031e-08
1.564e-10
1.24384e-08
1.41087e-10
1.23804e-08
1.25737e-10
1.2329e-08
1.10362e-10
1.22843e-08
9.50046e-11
1.22462e-08
7.97504e-11
1.22145e-08
6.47523e-11
1.21889e-08
5.02477e-11
1.2169e-08
3.6569e-11
1.21541e-08
2.41137e-11
1.21435e-08
1.32383e-11
1.21369e-08
4.14824e-12
1.21338e-08
-2.68637e-12
1.21332e-08
-6.94986e-12
1.21339e-08
-8.89393e-12
1.21351e-08
-8.53378e-12
1.21354e-08
-4.79249e-12
1.04883e-11
3.03438e-08
4.6521e-09
-3.00476e-08
3.06011e-08
5.1389e-09
3.0761e-08
5.2112e-09
3.08088e-08
5.04074e-09
3.07442e-08
4.7244e-09
3.05816e-08
4.33606e-09
3.03427e-08
3.93964e-09
3.00486e-08
3.57577e-09
2.97163e-08
3.2605e-09
2.93582e-08
2.99397e-09
2.89827e-08
2.76924e-09
2.85952e-08
2.57775e-09
2.81999e-08
2.41189e-09
2.77997e-08
2.26582e-09
2.73969e-08
2.1353e-09
2.69936e-08
2.01737e-09
2.65913e-08
1.90989e-09
2.61916e-08
1.81129e-09
2.57958e-08
1.72037e-09
2.54048e-08
1.63618e-09
2.50195e-08
1.55794e-09
2.46408e-08
1.48499e-09
2.42692e-08
1.41679e-09
2.39051e-08
1.35287e-09
2.3549e-08
1.29283e-09
2.32012e-08
1.23631e-09
2.28617e-08
1.183e-09
2.25309e-08
1.13264e-09
2.22087e-08
1.08497e-09
2.18952e-08
1.03978e-09
2.15904e-08
9.9686e-10
2.12943e-08
9.56038e-10
2.10067e-08
9.17145e-10
2.07278e-08
8.80026e-10
2.04572e-08
8.44539e-10
2.0195e-08
8.10552e-10
1.9941e-08
7.77942e-10
1.96952e-08
7.46591e-10
1.94574e-08
7.1639e-10
1.92276e-08
6.87235e-10
1.90056e-08
6.59028e-10
1.87913e-08
6.31676e-10
1.85847e-08
6.0509e-10
1.83858e-08
5.79185e-10
1.81943e-08
5.53879e-10
1.80104e-08
5.29096e-10
1.7834e-08
5.04762e-10
1.76649e-08
4.80806e-10
1.75034e-08
4.57163e-10
1.73492e-08
4.33769e-10
1.72026e-08
4.10565e-10
1.70634e-08
3.87498e-10
1.69318e-08
3.64516e-10
1.68077e-08
3.41574e-10
1.66913e-08
3.18632e-10
1.65826e-08
2.95655e-10
1.64816e-08
2.72615e-10
1.63886e-08
2.49492e-10
1.63034e-08
2.26278e-10
1.62261e-08
2.02986e-10
1.61568e-08
1.79661e-10
1.60954e-08
1.56391e-10
1.60418e-08
1.33338e-10
1.59958e-08
1.10752e-10
1.59571e-08
8.90004e-11
1.59251e-08
6.85612e-11
1.58992e-08
4.99854e-11
1.58787e-08
3.37745e-11
1.58626e-08
2.02483e-11
1.58504e-08
9.45897e-12
1.5842e-08
1.49182e-12
1.58364e-08
-3.28214e-12
1.58324e-08
-4.55276e-12
1.58288e-08
-1.18466e-12
1.6309e-11
3.13067e-08
4.37607e-09
-3.10307e-08
3.15861e-08
4.85947e-09
3.18124e-08
4.98494e-09
3.19664e-08
4.88676e-09
3.20401e-08
4.65067e-09
3.20368e-08
4.33936e-09
3.19684e-08
4.00808e-09
3.18491e-08
3.69508e-09
3.16915e-08
3.4181e-09
3.15051e-08
3.18033e-09
3.12966e-08
2.97772e-09
3.10705e-08
2.80384e-09
3.08299e-08
2.65251e-09
3.0577e-08
2.51868e-09
3.03138e-08
2.39857e-09
3.00417e-08
2.28945e-09
2.97622e-08
2.18935e-09
2.94767e-08
2.0968e-09
2.91864e-08
2.0107e-09
2.88924e-08
1.93019e-09
2.85957e-08
1.85458e-09
2.82974e-08
1.7833e-09
2.79983e-08
1.71588e-09
2.76993e-08
1.65193e-09
2.7401e-08
1.59113e-09
2.71041e-08
1.53319e-09
2.68092e-08
1.47787e-09
2.65169e-08
1.42495e-09
2.62277e-08
1.37424e-09
2.59419e-08
1.32559e-09
2.56599e-08
1.27883e-09
2.53821e-08
1.23382e-09
2.51088e-08
1.19045e-09
2.48402e-08
1.14858e-09
2.45767e-08
1.10812e-09
2.43183e-08
1.06894e-09
2.40653e-08
1.03096e-09
2.38178e-08
9.94064e-10
2.3576e-08
9.58171e-10
2.33401e-08
9.23187e-10
2.31101e-08
8.89023e-10
2.28861e-08
8.55594e-10
2.26684e-08
8.22814e-10
2.2457e-08
7.90603e-10
2.2252e-08
7.5888e-10
2.20535e-08
7.27566e-10
2.18617e-08
6.96587e-10
2.16766e-08
6.65868e-10
2.14985e-08
6.35338e-10
2.13273e-08
6.0493e-10
2.11633e-08
5.74579e-10
2.10066e-08
5.44225e-10
2.08573e-08
5.13812e-10
2.07156e-08
4.83292e-10
2.05816e-08
4.52621e-10
2.04555e-08
4.21764e-10
2.03374e-08
3.90695e-10
2.02275e-08
3.59405e-10
2.01258e-08
3.27902e-10
2.00326e-08
2.96228e-10
1.99478e-08
2.64467e-10
1.98714e-08
2.32771e-10
1.98034e-08
2.01385e-10
1.97434e-08
1.70667e-10
1.96913e-08
1.41108e-10
1.96466e-08
1.13319e-10
1.96086e-08
8.79776e-11
1.95767e-08
6.56916e-11
1.95501e-08
4.68557e-11
1.95279e-08
3.15894e-11
1.95095e-08
1.9898e-11
1.94944e-08
1.17997e-11
1.94823e-08
7.58556e-12
1.9472e-08
9.08067e-12
2.61121e-11
3.22786e-08
4.1308e-09
-3.20333e-08
3.25454e-08
4.59261e-09
3.27816e-08
4.74876e-09
3.29682e-08
4.70013e-09
3.30966e-08
4.5223e-09
3.31662e-08
4.26981e-09
3.31838e-08
3.99039e-09
3.31598e-08
3.71912e-09
3.31036e-08
3.47432e-09
3.30227e-08
3.26126e-09
3.29222e-08
3.07813e-09
3.28058e-08
2.9203e-09
3.26755e-08
2.7828e-09
3.25329e-08
2.6613e-09
3.2379e-08
2.5524e-09
3.22149e-08
2.45357e-09
3.20414e-08
2.36292e-09
3.18591e-08
2.27903e-09
3.1669e-08
2.20081e-09
3.14718e-08
2.12744e-09
3.12681e-08
2.05822e-09
3.10588e-08
1.99262e-09
3.08445e-08
1.93019e-09
3.06259e-08
1.87056e-09
3.04036e-08
1.81342e-09
3.01782e-08
1.75853e-09
2.99504e-08
1.70566e-09
2.97208e-08
1.65463e-09
2.94897e-08
1.60527e-09
2.92579e-08
1.55745e-09
2.90257e-08
1.51104e-09
2.87936e-08
1.46592e-09
2.8562e-08
1.422e-09
2.83314e-08
1.37918e-09
2.81022e-08
1.33736e-09
2.78746e-08
1.29647e-09
2.76492e-08
1.25642e-09
2.74261e-08
1.21713e-09
2.72058e-08
1.17852e-09
2.69884e-08
1.14052e-09
2.67744e-08
1.10306e-09
2.65639e-08
1.06604e-09
2.63573e-08
1.02941e-09
2.61549e-08
9.93082e-10
2.59568e-08
9.56983e-10
2.57633e-08
9.21039e-10
2.55747e-08
8.85177e-10
2.53912e-08
8.49325e-10
2.52132e-08
8.13412e-10
2.50407e-08
7.7737e-10
2.48742e-08
7.41134e-10
2.47138e-08
7.04643e-10
2.45597e-08
6.67843e-10
2.44123e-08
6.30683e-10
2.42718e-08
5.93123e-10
2.41385e-08
5.55133e-10
2.40125e-08
5.16697e-10
2.3894e-08
4.77819e-10
2.37834e-08
4.38532e-10
2.36807e-08
3.98911e-10
2.35861e-08
3.59091e-10
2.34996e-08
3.1929e-10
2.34211e-08
2.79838e-10
2.33506e-08
2.41197e-10
2.32877e-08
2.03974e-10
2.32322e-08
1.68894e-10
2.31834e-08
1.36731e-10
2.31409e-08
1.08175e-10
2.31041e-08
8.36914e-11
2.30722e-08
6.34589e-11
2.30446e-08
4.74737e-11
2.30207e-08
3.56992e-11
2.29999e-08
2.83961e-11
2.29816e-08
2.74199e-11
4.09359e-11
3.32745e-08
3.91482e-09
-3.30585e-08
3.35199e-08
4.34723e-09
3.37471e-08
4.52156e-09
3.39374e-08
4.50981e-09
3.40827e-08
4.37703e-09
3.41813e-08
4.17125e-09
3.42378e-08
3.93389e-09
3.42601e-08
3.69681e-09
3.42561e-08
3.47832e-09
3.42321e-08
3.28523e-09
3.41927e-08
3.11757e-09
3.41407e-08
2.97229e-09
3.40779e-08
2.84554e-09
3.40055e-08
2.7337e-09
3.39242e-08
2.63379e-09
3.38343e-08
2.54346e-09
3.37363e-08
2.46091e-09
3.36305e-08
2.38479e-09
3.35173e-08
2.314e-09
3.33971e-08
2.2477e-09
3.32701e-08
2.18521e-09
3.31367e-08
2.12597e-09
3.29974e-08
2.06954e-09
3.28524e-08
2.01552e-09
3.27022e-08
1.96361e-09
3.25472e-08
1.91355e-09
3.23878e-08
1.86511e-09
3.22243e-08
1.81811e-09
3.20572e-08
1.77238e-09
3.18868e-08
1.7278e-09
3.17136e-08
1.68422e-09
3.1538e-08
1.64155e-09
3.13603e-08
1.59969e-09
3.11809e-08
1.55855e-09
3.10003e-08
1.51804e-09
3.08186e-08
1.47809e-09
3.06364e-08
1.43862e-09
3.0454e-08
1.39955e-09
3.02717e-08
1.36081e-09
3.00899e-08
1.32234e-09
2.99089e-08
1.28406e-09
2.97291e-08
1.24589e-09
2.95507e-08
1.20778e-09
2.93741e-08
1.16963e-09
2.91997e-08
1.13139e-09
2.90278e-08
1.09298e-09
2.88587e-08
1.05432e-09
2.86926e-08
1.01534e-09
2.85301e-08
9.75981e-10
2.83713e-08
9.36164e-10
2.82166e-08
8.95825e-10
2.80663e-08
8.54905e-10
2.79208e-08
8.13348e-10
2.77804e-08
7.71108e-10
2.76454e-08
7.28147e-10
2.7516e-08
6.84443e-10
2.73928e-08
6.39991e-10
2.72758e-08
5.94813e-10
2.71653e-08
5.48968e-10
2.70617e-08
5.02568e-10
2.6965e-08
4.55797e-10
2.68753e-08
4.08938e-10
2.67927e-08
3.62402e-10
2.67172e-08
3.16743e-10
2.66485e-08
2.72665e-10
2.65864e-08
2.30984e-10
2.65306e-08
1.92553e-10
2.64807e-08
1.58121e-10
2.64361e-08
1.28209e-10
2.63965e-08
1.03052e-10
2.63613e-08
8.26791e-11
2.633e-08
6.70659e-11
2.63019e-08
5.64403e-11
2.62769e-08
5.24101e-11
6.01451e-11
3.42983e-08
3.72414e-09
-3.41076e-08
3.45213e-08
4.12426e-09
3.47342e-08
4.3086e-09
3.49184e-08
4.32569e-09
3.50657e-08
4.22971e-09
3.51741e-08
4.06286e-09
3.52468e-08
3.8612e-09
3.52902e-08
3.65342e-09
3.53111e-08
3.45739e-09
3.53153e-08
3.28103e-09
3.5307e-08
3.1259e-09
3.52889e-08
2.99034e-09
3.52629e-08
2.87156e-09
3.52299e-08
2.76667e-09
3.51906e-08
2.6731e-09
3.51453e-08
2.58878e-09
3.50941e-08
2.51203e-09
3.50374e-08
2.44156e-09
3.4975e-08
2.37632e-09
3.49073e-08
2.31547e-09
3.48341e-08
2.25833e-09
3.47558e-08
2.20434e-09
3.46723e-08
2.15302e-09
3.45838e-08
2.10399e-09
3.44905e-08
2.05692e-09
3.43925e-08
2.01152e-09
3.42901e-08
1.96758e-09
3.41833e-08
1.92487e-09
3.40725e-08
1.88324e-09
3.39577e-08
1.84252e-09
3.38394e-08
1.80259e-09
3.37176e-08
1.76332e-09
3.35927e-08
1.72461e-09
3.34649e-08
1.68636e-09
3.33344e-08
1.64848e-09
3.32016e-08
1.61089e-09
3.30668e-08
1.57349e-09
3.29301e-08
1.53622e-09
3.27919e-08
1.49899e-09
3.26525e-08
1.46174e-09
3.25122e-08
1.42438e-09
3.23713e-08
1.38683e-09
3.223e-08
1.34902e-09
3.20888e-08
1.31088e-09
3.19478e-08
1.27233e-09
3.18075e-08
1.23328e-09
3.16682e-08
1.19366e-09
3.15301e-08
1.1534e-09
3.13937e-08
1.11242e-09
3.12592e-08
1.07064e-09
3.1127e-08
1.028e-09
3.09975e-08
9.84437e-10
3.0871e-08
9.39891e-10
3.07478e-08
8.94315e-10
3.06282e-08
8.47677e-10
3.05127e-08
7.99957e-10
3.04015e-08
7.51164e-10
3.0295e-08
7.01334e-10
3.01934e-08
6.5055e-10
3.00971e-08
5.98959e-10
3.00061e-08
5.4679e-10
2.99206e-08
4.94383e-10
2.98408e-08
4.42215e-10
2.97666e-08
3.90916e-10
2.9698e-08
3.41264e-10
2.96349e-08
2.94146e-10
2.9577e-08
2.50466e-10
2.95241e-08
2.11021e-10
2.94759e-08
1.76373e-10
2.94321e-08
1.46805e-10
2.93924e-08
1.2239e-10
2.93564e-08
1.0312e-10
2.93236e-08
8.91775e-11
2.92943e-08
8.17262e-11
8.24629e-11
3.5351e-08
3.55481e-09
-3.51817e-08
3.55529e-08
3.92237e-09
3.57507e-08
4.11081e-09
3.59257e-08
4.15068e-09
3.60698e-08
4.0856e-09
3.61804e-08
3.95223e-09
3.62596e-08
3.78195e-09
3.63127e-08
3.60038e-09
3.63455e-08
3.42461e-09
3.63632e-08
3.26327e-09
3.637e-08
3.11911e-09
3.63686e-08
2.99172e-09
3.63609e-08
2.87926e-09
3.63481e-08
2.77953e-09
3.63307e-08
2.69043e-09
3.63094e-08
2.61018e-09
3.62841e-08
2.53727e-09
3.62552e-08
2.47051e-09
3.62226e-08
2.40891e-09
3.61864e-08
2.35168e-09
3.61466e-08
2.29815e-09
3.61031e-08
2.24776e-09
3.60561e-08
2.20005e-09
3.60055e-08
2.15462e-09
3.59512e-08
2.11114e-09
3.58934e-08
2.06933e-09
3.58321e-08
2.02892e-09
3.57673e-08
1.98972e-09
3.5699e-08
1.95152e-09
3.56273e-08
1.91417e-09
3.55524e-08
1.87753e-09
3.54743e-08
1.84145e-09
3.53931e-08
1.80581e-09
3.53089e-08
1.77052e-09
3.52219e-08
1.73545e-09
3.51323e-08
1.70053e-09
3.50401e-08
1.66564e-09
3.49456e-08
1.63071e-09
3.4849e-08
1.59563e-09
3.47504e-08
1.56034e-09
3.46501e-08
1.52473e-09
3.45482e-08
1.48872e-09
3.4445e-08
1.45223e-09
3.43407e-08
1.41516e-09
3.42356e-08
1.37743e-09
3.41299e-08
1.33896e-09
3.40239e-08
1.29965e-09
3.39179e-08
1.25942e-09
3.38121e-08
1.21818e-09
3.37069e-08
1.17586e-09
3.36025e-08
1.13238e-09
3.34993e-08
1.08766e-09
3.33975e-08
1.04166e-09
3.32975e-08
9.94304e-10
3.31996e-08
9.45574e-10
3.31042e-08
8.95452e-10
3.30114e-08
8.43949e-10
3.29216e-08
7.91117e-10
3.28351e-08
7.37059e-10
3.27521e-08
6.81946e-10
3.26728e-08
6.26045e-10
3.25975e-08
5.6974e-10
3.25261e-08
5.13559e-10
3.24589e-08
4.58185e-10
3.23957e-08
4.04447e-10
3.23366e-08
3.53276e-10
3.22814e-08
3.0561e-10
3.22302e-08
2.62273e-10
3.21827e-08
2.23861e-10
3.21388e-08
1.90699e-10
3.20983e-08
1.62893e-10
3.20609e-08
1.40454e-10
3.20266e-08
1.23486e-10
3.19958e-08
1.12598e-10
1.0628e-10
3.64332e-08
3.40341e-09
-3.62818e-08
3.66159e-08
3.73965e-09
3.67989e-08
3.92783e-09
3.69641e-08
3.98545e-09
3.71032e-08
3.9465e-09
3.72131e-08
3.84228e-09
3.72951e-08
3.70004e-09
3.7353e-08
3.54248e-09
3.73919e-08
3.38564e-09
3.74167e-08
3.23848e-09
3.74311e-08
3.1047e-09
3.7438e-08
2.98487e-09
3.74392e-08
2.87803e-09
3.74361e-08
2.78264e-09
3.74295e-08
2.69704e-09
3.74199e-08
2.61975e-09
3.74077e-08
2.54947e-09
3.73931e-08
2.48514e-09
3.73761e-08
2.42585e-09
3.7357e-08
2.37086e-09
3.73356e-08
2.31954e-09
3.7312e-08
2.27136e-09
3.72862e-08
2.22588e-09
3.72581e-08
2.18271e-09
3.72277e-08
2.14151e-09
3.7195e-08
2.10201e-09
3.716e-08
2.06395e-09
3.71226e-08
2.02712e-09
3.70828e-08
1.99132e-09
3.70406e-08
1.95637e-09
3.6996e-08
1.92213e-09
3.6949e-08
1.88845e-09
3.68996e-08
1.85521e-09
3.68478e-08
1.82227e-09
3.67938e-08
1.78953e-09
3.67374e-08
1.75687e-09
3.66789e-08
1.7242e-09
3.66182e-08
1.69141e-09
3.65554e-08
1.65839e-09
3.64907e-08
1.62505e-09
3.64241e-08
1.59129e-09
3.63558e-08
1.55701e-09
3.6286e-08
1.52211e-09
3.62146e-08
1.4865e-09
3.6142e-08
1.45006e-09
3.60682e-08
1.41271e-09
3.59935e-08
1.37434e-09
3.59181e-08
1.33486e-09
3.58421e-08
1.29417e-09
3.57658e-08
1.25218e-09
3.56894e-08
1.2088e-09
3.56131e-08
1.16396e-09
3.55372e-08
1.11758e-09
3.54619e-08
1.06961e-09
3.53874e-08
1.02001e-09
3.53141e-08
9.68769e-10
3.52422e-08
9.15899e-10
3.51718e-08
8.6146e-10
3.51033e-08
8.05568e-10
3.50368e-08
7.48414e-10
3.49726e-08
6.90289e-10
3.49107e-08
6.31609e-10
3.48513e-08
5.72933e-10
3.47946e-08
5.14976e-10
3.47404e-08
4.58595e-10
3.46889e-08
4.0474e-10
3.46402e-08
3.54363e-10
3.45942e-08
3.08301e-10
3.45509e-08
2.67172e-10
3.45102e-08
2.31334e-10
3.44722e-08
2.00924e-10
3.44367e-08
1.7596e-10
3.44037e-08
1.56448e-10
3.43739e-08
1.42441e-10
1.30006e-10
3.75455e-08
3.26714e-09
-3.74092e-08
3.7711e-08
3.57412e-09
3.788e-08
3.7589e-09
3.80354e-08
3.83001e-09
3.81689e-08
3.81304e-09
3.82769e-08
3.73425e-09
3.83598e-08
3.61716e-09
3.84205e-08
3.48175e-09
3.84633e-08
3.34282e-09
3.84924e-08
3.20939e-09
3.85113e-08
3.08581e-09
3.85227e-08
2.97347e-09
3.85286e-08
2.87214e-09
3.85304e-08
2.78086e-09
3.8529e-08
2.69843e-09
3.85251e-08
2.62365e-09
3.85191e-08
2.55545e-09
3.85114e-08
2.49289e-09
3.8502e-08
2.43517e-09
3.84913e-08
2.38161e-09
3.84792e-08
2.33164e-09
3.84658e-08
2.28476e-09
3.84511e-08
2.24056e-09
3.84351e-08
2.19867e-09
3.84179e-08
2.15876e-09
3.83993e-08
2.12058e-09
3.83794e-08
2.08387e-09
3.83581e-08
2.04841e-09
3.83354e-08
2.01402e-09
3.83112e-08
1.98053e-09
3.82856e-08
1.94778e-09
3.82584e-08
1.91562e-09
3.82297e-08
1.88391e-09
3.81995e-08
1.85254e-09
3.81676e-08
1.82138e-09
3.81342e-08
1.79031e-09
3.80991e-08
1.75923e-09
3.80625e-08
1.72801e-09
3.80244e-08
1.69656e-09
3.79846e-08
1.66476e-09
3.79434e-08
1.6325e-09
3.79008e-08
1.59968e-09
3.78567e-08
1.56619e-09
3.78113e-08
1.53191e-09
3.77646e-08
1.49673e-09
3.77168e-08
1.46055e-09
3.76678e-08
1.42325e-09
3.7618e-08
1.38473e-09
3.75673e-08
1.34488e-09
3.75158e-08
1.3036e-09
3.74639e-08
1.26079e-09
3.74114e-08
1.21636e-09
3.73588e-08
1.17024e-09
3.7306e-08
1.12236e-09
3.72534e-08
1.07269e-09
3.72009e-08
1.0212e-09
3.71489e-08
9.67903e-10
3.70975e-08
9.12875e-10
3.70468e-08
8.56233e-10
3.69971e-08
7.98181e-10
3.69483e-08
7.39025e-10
3.69008e-08
6.79197e-10
3.68544e-08
6.19272e-10
3.68094e-08
5.59979e-10
3.67658e-08
5.02179e-10
3.67237e-08
4.46822e-10
3.66833e-08
3.94853e-10
3.66444e-08
3.47111e-10
3.66074e-08
3.04225e-10
3.65722e-08
2.66575e-10
3.65387e-08
2.34327e-10
3.65072e-08
2.07496e-10
3.64777e-08
1.85992e-10
3.64507e-08
1.69395e-10
1.52383e-10
3.86887e-08
3.14373e-09
-3.85653e-08
3.88389e-08
3.42389e-09
3.89947e-08
3.60315e-09
3.91406e-08
3.68412e-09
3.92681e-08
3.68547e-09
3.93736e-08
3.6288e-09
3.94565e-08
3.53421e-09
3.95191e-08
3.41919e-09
3.95647e-08
3.29725e-09
3.95969e-08
3.17718e-09
3.96189e-08
3.06375e-09
3.96334e-08
2.95899e-09
3.96423e-08
2.86329e-09
3.96469e-08
2.77622e-09
3.96484e-08
2.69697e-09
3.96474e-08
2.62464e-09
3.96445e-08
2.55836e-09
3.964e-08
2.49734e-09
3.96343e-08
2.44089e-09
3.96275e-08
2.3884e-09
3.96198e-08
2.33936e-09
3.96112e-08
2.2933e-09
3.96019e-08
2.24985e-09
3.95919e-08
2.20867e-09
3.95813e-08
2.16945e-09
3.95699e-08
2.13194e-09
3.95579e-08
2.0959e-09
3.95451e-08
2.06114e-09
3.95317e-08
2.02747e-09
3.95175e-08
1.99471e-09
3.95026e-08
1.96272e-09
3.94868e-08
1.93135e-09
3.94703e-08
1.90048e-09
3.94528e-08
1.86996e-09
3.94345e-08
1.83969e-09
3.94153e-08
1.80954e-09
3.93951e-08
1.7794e-09
3.9374e-08
1.74915e-09
3.93519e-08
1.71868e-09
3.93288e-08
1.68787e-09
3.93047e-08
1.65661e-09
3.92796e-08
1.62479e-09
3.92535e-08
1.59229e-09
3.92264e-08
1.55899e-09
3.91983e-08
1.52478e-09
3.91694e-08
1.48953e-09
3.91395e-08
1.45312e-09
3.91088e-08
1.41545e-09
3.90772e-08
1.3764e-09
3.9045e-08
1.33585e-09
3.90121e-08
1.29371e-09
3.89785e-08
1.24988e-09
3.89445e-08
1.20427e-09
3.89101e-08
1.15681e-09
3.88753e-08
1.10747e-09
3.88403e-08
1.05621e-09
3.88051e-08
1.00306e-09
3.87699e-08
9.4808e-10
3.87347e-08
8.91396e-10
3.86997e-08
8.3322e-10
3.86649e-08
7.73864e-10
3.86303e-08
7.13764e-10
3.85961e-08
6.535e-10
3.85623e-08
5.93796e-10
3.85289e-08
5.35502e-10
3.84962e-08
4.7955e-10
3.84642e-08
4.26867e-10
3.8433e-08
3.78276e-10
3.84028e-08
3.3441e-10
3.83738e-08
2.95665e-10
3.83459e-08
2.62227e-10
3.83192e-08
2.34107e-10
3.82941e-08
2.11132e-10
3.82709e-08
1.92553e-10
1.72658e-10
3.98636e-08
3.03136e-09
-3.97512e-08
4.00002e-08
3.28725e-09
4.01437e-08
3.45963e-09
4.02804e-08
3.54748e-09
4.04019e-08
3.56392e-09
4.05043e-08
3.52635e-09
4.05868e-08
3.4518e-09
4.06505e-08
3.35549e-09
4.06981e-08
3.24956e-09
4.07329e-08
3.14243e-09
4.07575e-08
3.0391e-09
4.07745e-08
2.94204e-09
4.07856e-08
2.85216e-09
4.07923e-08
2.76949e-09
4.07957e-08
2.69359e-09
4.07965e-08
2.62382e-09
4.07954e-08
2.55952e-09
4.07927e-08
2.50004e-09
4.07888e-08
2.4448e-09
4.07839e-08
2.39328e-09
4.07783e-08
2.34501e-09
4.0772e-08
2.29958e-09
4.07652e-08
2.25665e-09
4.07579e-08
2.2159e-09
4.07503e-08
2.17706e-09
4.07424e-08
2.13989e-09
4.07341e-08
2.10417e-09
4.07256e-08
2.0697e-09
4.07167e-08
2.03631e-09
4.07076e-08
2.00385e-09
4.06981e-08
1.97216e-09
4.06884e-08
1.94111e-09
4.06783e-08
1.91057e-09
4.06678e-08
1.88041e-09
4.0657e-08
1.85052e-09
4.06458e-08
1.82077e-09
4.06341e-08
1.79106e-09
4.0622e-08
1.76127e-09
4.06094e-08
1.73128e-09
4.05963e-08
1.70098e-09
4.05826e-08
1.67025e-09
4.05684e-08
1.63898e-09
4.05537e-08
1.60705e-09
4.05383e-08
1.57433e-09
4.05224e-08
1.54071e-09
4.05059e-08
1.50606e-09
4.04887e-08
1.47026e-09
4.0471e-08
1.43318e-09
4.04527e-08
1.39472e-09
4.04338e-08
1.35476e-09
4.04143e-08
1.31318e-09
4.03943e-08
1.2699e-09
4.03738e-08
1.22481e-09
4.03527e-08
1.17785e-09
4.03312e-08
1.12898e-09
4.03093e-08
1.07816e-09
4.02869e-08
1.02542e-09
4.02642e-08
9.70814e-10
4.02411e-08
9.14483e-10
4.02177e-08
8.56636e-10
4.01939e-08
7.97585e-10
4.01699e-08
7.37767e-10
4.01457e-08
6.77751e-10
4.01212e-08
6.18248e-10
4.00967e-08
5.60086e-10
4.0072e-08
5.04164e-10
4.00475e-08
4.51381e-10
4.00233e-08
4.02537e-10
3.99994e-08
3.58258e-10
3.99761e-08
3.18951e-10
3.99535e-08
2.84813e-10
3.99318e-08
2.55856e-10
3.99111e-08
2.31846e-10
3.98918e-08
2.1186e-10
1.90577e-10
4.1071e-08
2.92856e-09
-4.09682e-08
4.11956e-08
3.16266e-09
4.13278e-08
3.32741e-09
4.14556e-08
3.41972e-09
4.15711e-08
3.44842e-09
4.16702e-08
3.42724e-09
4.17515e-08
3.37045e-09
4.18159e-08
3.29118e-09
4.18652e-08
3.20025e-09
4.1902e-08
3.10558e-09
4.19289e-08
3.0122e-09
4.1948e-08
2.92292e-09
4.19611e-08
2.83905e-09
4.19696e-08
2.76099e-09
4.19746e-08
2.68863e-09
4.19768e-08
2.62159e-09
4.1977e-08
2.5594e-09
4.19754e-08
2.50157e-09
4.19726e-08
2.4476e-09
4.19688e-08
2.39707e-09
4.19643e-08
2.34957e-09
4.19591e-08
2.30474e-09
4.19535e-08
2.26226e-09
4.19476e-08
2.22186e-09
4.19414e-08
2.18328e-09
4.19349e-08
2.1463e-09
4.19284e-08
2.11071e-09
4.19217e-08
2.07635e-09
4.1915e-08
2.04304e-09
4.19082e-08
2.01063e-09
4.19014e-08
1.979e-09
4.18945e-08
1.94799e-09
4.18876e-08
1.9175e-09
4.18806e-08
1.88739e-09
4.18736e-08
1.85756e-09
4.18664e-08
1.8279e-09
4.18592e-08
1.79828e-09
4.18519e-08
1.7686e-09
4.18444e-08
1.73875e-09
4.18368e-08
1.70861e-09
4.1829e-08
1.67806e-09
4.1821e-08
1.64699e-09
4.18127e-08
1.61528e-09
4.18043e-08
1.58282e-09
4.17955e-08
1.54947e-09
4.17864e-08
1.51511e-09
4.17771e-08
1.47963e-09
4.17674e-08
1.4429e-09
4.17573e-08
1.40479e-09
4.17469e-08
1.3652e-09
4.1736e-08
1.32402e-09
4.17248e-08
1.28114e-09
4.17131e-08
1.23648e-09
4.1701e-08
1.18996e-09
4.16884e-08
1.14154e-09
4.16754e-08
1.09119e-09
4.16619e-08
1.03893e-09
4.16479e-08
9.84838e-10
4.16333e-08
9.29035e-10
4.16182e-08
8.71737e-10
4.16025e-08
8.13256e-10
4.15863e-08
7.54019e-10
4.15695e-08
6.94585e-10
4.15521e-08
6.35641e-10
4.15342e-08
5.77983e-10
4.15159e-08
5.22476e-10
4.14973e-08
4.69979e-10
4.14785e-08
4.21266e-10
4.14598e-08
3.76948e-10
4.14414e-08
3.37436e-10
4.14232e-08
3.02937e-10
4.14056e-08
2.73465e-10
4.13887e-08
2.48753e-10
4.13727e-08
2.27843e-10
2.06274e-10
4.23121e-08
2.83415e-09
-4.22176e-08
4.24259e-08
3.04878e-09
4.25478e-08
3.20559e-09
4.26671e-08
3.30043e-09
4.27765e-08
3.33894e-09
4.28721e-08
3.33172e-09
4.29519e-08
3.29058e-09
4.30164e-08
3.22674e-09
4.30668e-08
3.14977e-09
4.31054e-08
3.067e-09
4.31343e-08
2.98336e-09
4.31553e-08
2.90186e-09
4.31703e-08
2.82412e-09
4.31804e-08
2.75084e-09
4.31868e-08
2.68222e-09
4.31903e-08
2.61809e-09
4.31915e-08
2.55818e-09
4.3191e-08
2.50212e-09
4.31891e-08
2.44954e-09
4.31861e-08
2.40008e-09
4.31822e-08
2.3534e-09
4.31778e-08
2.3092e-09
4.31728e-08
2.2672e-09
4.31675e-08
2.22714e-09
4.3162e-08
2.18879e-09
4.31564e-08
2.15197e-09
4.31506e-08
2.11647e-09
4.31448e-08
2.08214e-09
4.3139e-08
2.04882e-09
4.31333e-08
2.01637e-09
4.31276e-08
1.98466e-09
4.3122e-08
1.95357e-09
4.31166e-08
1.92298e-09
4.31112e-08
1.89278e-09
4.31059e-08
1.86284e-09
4.31007e-08
1.83308e-09
4.30956e-08
1.80337e-09
4.30906e-08
1.7736e-09
4.30857e-08
1.74367e-09
4.30808e-08
1.71347e-09
4.3076e-08
1.68289e-09
4.30712e-08
1.6518e-09
4.30664e-08
1.62009e-09
4.30616e-08
1.58765e-09
4.30567e-08
1.55435e-09
4.30517e-08
1.52007e-09
4.30467e-08
1.48468e-09
4.30415e-08
1.44808e-09
4.30361e-08
1.41014e-09
4.30306e-08
1.37075e-09
4.30248e-08
1.32979e-09
4.30188e-08
1.28717e-09
4.30125e-08
1.24281e-09
4.30058e-08
1.19663e-09
4.29987e-08
1.14859e-09
4.29913e-08
1.09866e-09
4.29833e-08
1.04688e-09
4.29748e-08
9.93311e-10
4.29658e-08
9.38084e-10
4.29561e-08
8.81415e-10
4.29457e-08
8.2361e-10
4.29347e-08
7.65091e-10
4.29229e-08
7.06396e-10
4.29103e-08
6.48188e-10
4.28971e-08
5.91229e-10
4.28832e-08
5.36342e-10
4.28688e-08
4.84347e-10
4.28541e-08
4.35985e-10
4.28392e-08
3.91851e-10
4.28243e-08
3.52354e-10
4.28095e-08
3.17708e-10
4.27951e-08
2.87932e-10
4.27811e-08
2.62756e-10
4.27676e-08
2.41285e-10
2.20104e-10
4.35877e-08
2.74715e-09
-4.35007e-08
4.3692e-08
2.94443e-09
4.38043e-08
3.0933e-09
4.39156e-08
3.18919e-09
4.40191e-08
3.23541e-09
4.41109e-08
3.23998e-09
4.41889e-08
3.21254e-09
4.4253e-08
3.16259e-09
4.43043e-08
3.09854e-09
4.43442e-08
3.02704e-09
4.43747e-08
2.95285e-09
4.43975e-08
2.87906e-09
4.44141e-08
2.80751e-09
4.44258e-08
2.73916e-09
4.44336e-08
2.67443e-09
4.44383e-08
2.61339e-09
4.44406e-08
2.5559e-09
4.4441e-08
2.50175e-09
4.44398e-08
2.45068e-09
4.44375e-08
2.40239e-09
4.44343e-08
2.35663e-09
4.44303e-08
2.31312e-09
4.44259e-08