/*--------------------------------*- C++ -*----------------------------------*\
| =========                 |                                                 |
| \\      /  F ield         | OpenFOAM: The Open Source CFD Toolbox           |
|  \\    /   O peration     | Version:  2.3.0                                 |
|   \\  /    A nd           | Web:      www.OpenFOAM.org                      |
|    \\/     M anipulation  |                                                 |
\*---------------------------------------------------------------------------*/
FoamFile
{
    version     2.0;
    format      ascii;
    class       volScalarField;
    location    "0.05";
    object      p;
}
// * * * * * * * * * * * * * * * * * * * * * * * * * * * * * * * * * * * * * //

dimensions      [0 2 -2 0 0 0 0];

internalField   nonuniform List<scalar> 
3375
(
0.00529206
0.00465479
0.0041265
0.00374167
0.00342091
0.00312965
0.00286731
0.00263884
0.00244608
0.00228842
0.00216392
0.00206982
0.00200305
0.00196081
0.00194083
0.00194109
0.00195949
0.00199313
0.00203916
0.00209062
0.00213795
0.0021749
0.00220046
0.00221566
0.00222213
0.00222156
0.00221545
0.00220508
0.00219145
0.00217536
0.00215741
0.00213803
0.00211754
0.00209617
0.00207408
0.00205138
0.00202815
0.00200445
0.00198032
0.00195579
0.0019309
0.00190566
0.00188009
0.0018542
0.00182802
0.00180155
0.0017748
0.00174779
0.00172051
0.00169299
0.00166522
0.0016372
0.00160896
0.00158047
0.00155176
0.00152283
0.00149366
0.00146428
0.00143467
0.00140484
0.00137479
0.00134451
0.00131402
0.0012833
0.00125236
0.0012212
0.00118982
0.00115821
0.00112637
0.00109431
0.00106202
0.0010295
0.000996756
0.000963777
0.000930565
0.000897118
0.000863436
0.000829516
0.000795358
0.000760958
0.000726317
0.000691432
0.000656302
0.000620925
0.000585299
0.000549422
0.000513293
0.000476911
0.000440273
0.000403377
0.000366222
0.000328805
0.000291127
0.000253183
0.000214972
0.000176494
0.000137744
9.87228e-05
5.94271e-05
1.98552e-05
0.00499148
0.00453467
0.00409965
0.00374921
0.00344346
0.00315981
0.00290069
0.00267268
0.00247873
0.00231881
0.0021913
0.00209369
0.00202311
0.00197699
0.00195321
0.00194986
0.00196517
0.00199801
0.00204333
0.00209236
0.00213792
0.00217407
0.0021994
0.00221466
0.00222132
0.00222095
0.00221502
0.00220479
0.00219126
0.00217524
0.00215733
0.00213798
0.0021175
0.00209614
0.00207406
0.00205136
0.00202813
0.00200444
0.00198031
0.00195579
0.00193089
0.00190565
0.00188008
0.0018542
0.00182802
0.00180155
0.0017748
0.00174778
0.00172051
0.00169298
0.00166521
0.0016372
0.00160895
0.00158047
0.00155176
0.00152283
0.00149366
0.00146428
0.00143467
0.00140484
0.00137479
0.00134451
0.00131402
0.0012833
0.00125236
0.0012212
0.00118982
0.00115821
0.00112637
0.00109431
0.00106202
0.0010295
0.000996756
0.000963777
0.000930565
0.000897118
0.000863436
0.000829516
0.000795358
0.000760958
0.000726317
0.000691432
0.000656302
0.000620925
0.000585299
0.000549422
0.000513293
0.000476911
0.000440273
0.000403377
0.000366222
0.000328805
0.000291127
0.000253183
0.000214972
0.000176494
0.000137744
9.87228e-05
5.94271e-05
1.98552e-05
0.00477568
0.0044335
0.00406459
0.00374085
0.00345158
0.0031824
0.00293473
0.00271432
0.00252432
0.00236522
0.00223604
0.00213501
0.00206001
0.00200908
0.00198054
0.00197285
0.00198439
0.00201329
0.00205489
0.00210098
0.00214278
0.00217619
0.00219985
0.00221422
0.00222047
0.00221999
0.00221411
0.002204
0.00219062
0.00217475
0.00215697
0.00213772
0.00211732
0.00209602
0.00207398
0.00205131
0.00202811
0.00200442
0.0019803
0.00195578
0.00193089
0.00190565
0.00188009
0.0018542
0.00182802
0.00180155
0.0017748
0.00174779
0.00172051
0.00169299
0.00166521
0.0016372
0.00160895
0.00158047
0.00155176
0.00152283
0.00149366
0.00146428
0.00143467
0.00140484
0.00137479
0.00134451
0.00131402
0.0012833
0.00125236
0.0012212
0.00118982
0.00115821
0.00112637
0.00109431
0.00106202
0.0010295
0.000996756
0.000963777
0.000930565
0.000897118
0.000863436
0.000829516
0.000795358
0.000760958
0.000726317
0.000691432
0.000656302
0.000620925
0.000585299
0.000549422
0.000513293
0.000476911
0.000440273
0.000403377
0.000366222
0.000328806
0.000291127
0.000253183
0.000214972
0.000176494
0.000137744
9.87228e-05
5.94271e-05
1.98552e-05
0.00459234
0.00432376
0.00401157
0.00371962
0.00345277
0.00320324
0.00297175
0.00276314
0.00258075
0.00242565
0.00229756
0.00219543
0.00211783
0.00206327
0.00203038
0.00201774
0.00202364
0.00204568
0.00207973
0.00211796
0.00215319
0.00218168
0.0022021
0.00221453
0.00221976
0.00221884
0.00221286
0.00220284
0.00218965
0.00217397
0.00215638
0.00213729
0.00211702
0.00209582
0.00207385
0.00205123
0.00202806
0.0020044
0.0019803
0.00195579
0.0019309
0.00190566
0.0018801
0.00185421
0.00182803
0.00180156
0.00177481
0.00174779
0.00172052
0.00169299
0.00166522
0.00163721
0.00160896
0.00158048
0.00155177
0.00152283
0.00149367
0.00146428
0.00143467
0.00140484
0.00137479
0.00134451
0.00131402
0.0012833
0.00125236
0.0012212
0.00118982
0.00115821
0.00112637
0.00109431
0.00106202
0.0010295
0.000996756
0.000963777
0.000930565
0.000897118
0.000863436
0.000829516
0.000795358
0.000760958
0.000726317
0.000691432
0.000656302
0.000620925
0.000585299
0.000549422
0.000513293
0.000476911
0.000440273
0.000403377
0.000366222
0.000328806
0.000291127
0.000253183
0.000214972
0.000176494
0.000137744
9.87227e-05
5.94271e-05
1.98552e-05
0.00443008
0.00421401
0.00395255
0.00369438
0.00345137
0.00322174
0.00300684
0.00281099
0.0026376
0.00248823
0.00236307
0.0022616
0.00218284
0.00212566
0.00208885
0.00207102
0.00207038
0.0020844
0.0021092
0.00213853
0.00216665
0.0021897
0.00220633
0.00221632
0.0022201
0.00221839
0.00221207
0.00220197
0.00218883
0.00217328
0.00215583
0.00213689
0.00211674
0.00209564
0.00207374
0.00205118
0.00202804
0.0020044
0.00198031
0.00195581
0.00193093
0.0019057
0.00188013
0.00185424
0.00182805
0.00180158
0.00177483
0.00174781
0.00172053
0.001693
0.00166523
0.00163722
0.00160897
0.00158048
0.00155177
0.00152283
0.00149367
0.00146428
0.00143467
0.00140484
0.00137479
0.00134451
0.00131402
0.0012833
0.00125236
0.0012212
0.00118982
0.00115821
0.00112637
0.00109431
0.00106202
0.0010295
0.000996756
0.000963777
0.000930565
0.000897118
0.000863436
0.000829516
0.000795358
0.000760958
0.000726317
0.000691432
0.000656302
0.000620925
0.000585299
0.000549422
0.000513293
0.000476911
0.000440273
0.000403377
0.000366222
0.000328806
0.000291127
0.000253183
0.000214972
0.000176494
0.000137744
9.87227e-05
5.94271e-05
1.98553e-05
0.00429077
0.00411248
0.00389278
0.00366592
0.00344582
0.00323523
0.00303657
0.00285375
0.0026901
0.00254743
0.00242632
0.00232661
0.00224769
0.00218866
0.00214845
0.00212573
0.00211873
0.00212496
0.00214091
0.00216184
0.00218254
0.00219997
0.00221253
0.00221974
0.00222172
0.00221893
0.00221202
0.00220164
0.00218842
0.00217289
0.00215551
0.00213665
0.00211659
0.00209556
0.00207372
0.00205119
0.00202808
0.00200446
0.00198038
0.00195588
0.001931
0.00190576
0.00188018
0.00185429
0.0018281
0.00180162
0.00177486
0.00174784
0.00172056
0.00169303
0.00166525
0.00163723
0.00160898
0.0015805
0.00155178
0.00152284
0.00149368
0.00146429
0.00143468
0.00140484
0.00137479
0.00134452
0.00131402
0.0012833
0.00125236
0.0012212
0.00118982
0.00115821
0.00112637
0.00109431
0.00106202
0.0010295
0.000996756
0.000963777
0.000930565
0.000897118
0.000863436
0.000829516
0.000795358
0.000760958
0.000726317
0.000691432
0.000656302
0.000620925
0.000585299
0.000549422
0.000513293
0.000476911
0.000440273
0.000403377
0.000366222
0.000328806
0.000291127
0.000253183
0.000214972
0.000176493
0.000137744
9.87227e-05
5.9427e-05
1.98553e-05
0.00417094
0.00401972
0.00383314
0.00363422
0.003436
0.00324377
0.0030609
0.00289105
0.00273738
0.00260184
0.00248532
0.00238797
0.00230945
0.0022491
0.00220596
0.00217879
0.0021659
0.00216498
0.00217296
0.00218594
0.00219982
0.00221182
0.00222031
0.00222461
0.0022246
0.00222052
0.00221282
0.00220199
0.00218854
0.00217291
0.00215551
0.00213666
0.00211663
0.00209563
0.00207381
0.0020513
0.0020282
0.00200458
0.0019805
0.00195599
0.0019311
0.00190585
0.00188027
0.00185437
0.00182816
0.00180168
0.00177491
0.00174788
0.0017206
0.00169306
0.00166528
0.00163726
0.001609
0.00158051
0.0015518
0.00152285
0.00149369
0.0014643
0.00143468
0.00140485
0.0013748
0.00134452
0.00131402
0.00128331
0.00125237
0.0012212
0.00118982
0.00115821
0.00112637
0.00109431
0.00106202
0.0010295
0.000996757
0.000963777
0.000930565
0.000897119
0.000863436
0.000829516
0.000795358
0.000760958
0.000726317
0.000691432
0.000656302
0.000620925
0.000585299
0.000549422
0.000513294
0.000476911
0.000440273
0.000403377
0.000366222
0.000328806
0.000291127
0.000253183
0.000214972
0.000176493
0.000137744
9.87227e-05
5.9427e-05
1.98553e-05
0.0040669
0.00393561
0.00377528
0.00360082
0.00342307
0.00324827
0.00308046
0.00292317
0.00277936
0.00265109
0.00253946
0.00244485
0.00236717
0.00230593
0.00226034
0.00222924
0.00221109
0.0022038
0.00220471
0.00221062
0.00221823
0.00222506
0.00222953
0.00223084
0.00222869
0.00222315
0.00221448
0.00220303
0.0021892
0.00217336
0.00215585
0.00213694
0.00211688
0.00209586
0.00207404
0.00205152
0.00202841
0.00200478
0.00198068
0.00195616
0.00193125
0.00190598
0.00188038
0.00185447
0.00182826
0.00180176
0.00177498
0.00174794
0.00172065
0.0016931
0.00166531
0.00163729
0.00160903
0.00158054
0.00155182
0.00152287
0.0014937
0.00146431
0.00143469
0.00140486
0.0013748
0.00134453
0.00131403
0.00128331
0.00125237
0.00122121
0.00118982
0.00115821
0.00112638
0.00109431
0.00106202
0.00102951
0.000996758
0.000963778
0.000930566
0.000897119
0.000863437
0.000829517
0.000795358
0.000760959
0.000726317
0.000691432
0.000656302
0.000620925
0.000585299
0.000549422
0.000513294
0.000476911
0.000440273
0.000403377
0.000366222
0.000328806
0.000291127
0.000253183
0.000214972
0.000176493
0.000137744
9.87226e-05
5.9427e-05
1.98553e-05
0.00397585
0.00385981
0.00372039
0.00356697
0.00340788
0.00324936
0.00309573
0.00295042
0.00281626
0.00269527
0.0025887
0.00249714
0.00242067
0.00235896
0.00231138
0.00227689
0.00225412
0.00224123
0.00223592
0.00223556
0.00223746
0.00223943
0.00224
0.0022383
0.00223392
0.00222678
0.00221699
0.00220479
0.00219045
0.00217429
0.00215656
0.00213752
0.00211737
0.00209629
0.00207442
0.00205186
0.00202872
0.00200506
0.00198093
0.00195638
0.00193145
0.00190616
0.00188054
0.0018546
0.00182837
0.00180186
0.00177507
0.00174802
0.00172071
0.00169316
0.00166536
0.00163733
0.00160906
0.00158056
0.00155184
0.00152289
0.00149372
0.00146432
0.00143471
0.00140487
0.00137481
0.00134453
0.00131404
0.00128332
0.00125238
0.00122121
0.00118982
0.00115821
0.00112638
0.00109432
0.00106203
0.00102951
0.000996759
0.000963779
0.000930566
0.00089712
0.000863437
0.000829517
0.000795358
0.000760959
0.000726318
0.000691433
0.000656302
0.000620925
0.000585299
0.000549422
0.000513294
0.000476911
0.000440273
0.000403377
0.000366222
0.000328806
0.000291127
0.000253183
0.000214972
0.000176493
0.000137744
9.87226e-05
5.9427e-05
1.98553e-05
0.00389563
0.00379167
0.00366905
0.0035335
0.00339115
0.00324762
0.00310723
0.00297329
0.00284842
0.00273463
0.00263323
0.00254494
0.00246998
0.0024082
0.00235906
0.00232172
0.00229495
0.00227716
0.00226642
0.00226051
0.00225723
0.00225469
0.00225153
0.00224686
0.0022402
0.00223135
0.00222032
0.00220723
0.00219228
0.00217568
0.00215765
0.0021384
0.00211811
0.00209692
0.00207496
0.00205234
0.00202914
0.00200543
0.00198126
0.00195667
0.0019317
0.00190638
0.00188073
0.00185477
0.00182852
0.00180198
0.00177518
0.00174811
0.00172079
0.00169323
0.00166542
0.00163738
0.0016091
0.0015806
0.00155187
0.00152292
0.00149374
0.00146434
0.00143472
0.00140488
0.00137482
0.00134454
0.00131404
0.00128332
0.00125238
0.00122122
0.00118983
0.00115822
0.00112638
0.00109432
0.00106203
0.00102951
0.00099676
0.00096378
0.000930567
0.00089712
0.000863438
0.000829517
0.000795359
0.000760959
0.000726318
0.000691433
0.000656302
0.000620925
0.000585299
0.000549422
0.000513294
0.000476911
0.000440273
0.000403377
0.000366222
0.000328806
0.000291127
0.000253183
0.000214972
0.000176493
0.000137744
9.87226e-05
5.9427e-05
1.98553e-05
0.00382453
0.00373042
0.00362147
0.00350106
0.00337352
0.00324365
0.00311551
0.00299223
0.00287625
0.00276948
0.00267326
0.00258838
0.00251521
0.00245369
0.00240344
0.00236375
0.00233357
0.00231156
0.00229607
0.00228527
0.00227733
0.00227064
0.00226394
0.00225638
0.00224743
0.00223681
0.00222445
0.00221037
0.00219469
0.00217756
0.00215915
0.00213962
0.00211911
0.00209776
0.00207568
0.00205297
0.00202968
0.0020059
0.00198167
0.00195703
0.00193202
0.00190666
0.00188097
0.00185498
0.0018287
0.00180214
0.00177531
0.00174823
0.00172089
0.00169331
0.00166549
0.00163744
0.00160916
0.00158065
0.00155191
0.00152295
0.00149377
0.00146437
0.00143474
0.0014049
0.00137484
0.00134456
0.00131405
0.00128333
0.00125239
0.00122122
0.00118983
0.00115822
0.00112638
0.00109432
0.00106203
0.00102951
0.000996761
0.000963781
0.000930568
0.000897121
0.000863438
0.000829518
0.000795359
0.00076096
0.000726318
0.000691433
0.000656303
0.000620925
0.000585299
0.000549423
0.000513294
0.000476911
0.000440273
0.000403377
0.000366222
0.000328806
0.000291127
0.000253183
0.000214972
0.000176493
0.000137744
9.87226e-05
5.9427e-05
1.98553e-05
0.00376122
0.00367534
0.00357766
0.00347006
0.00335551
0.00323796
0.00312106
0.00300769
0.00290012
0.00280012
0.00270902
0.00262766
0.00255648
0.00249554
0.00244457
0.00240301
0.00236998
0.00234435
0.00232475
0.00230967
0.00229756
0.00228706
0.00227704
0.0022667
0.00225548
0.00224307
0.0022293
0.00221415
0.00219765
0.00217991
0.00216104
0.00214116
0.00212039
0.00209884
0.00207659
0.00205374
0.00203035
0.00200648
0.00198217
0.00195747
0.00193239
0.00190698
0.00188125
0.00185522
0.00182891
0.00180232
0.00177547
0.00174836
0.001721
0.00169341
0.00166558
0.00163751
0.00160922
0.0015807
0.00155195
0.00152299
0.0014938
0.00146439
0.00143477
0.00140492
0.00137485
0.00134457
0.00131407
0.00128334
0.0012524
0.00122123
0.00118984
0.00115823
0.00112639
0.00109432
0.00106203
0.00102951
0.000996763
0.000963783
0.000930569
0.000897122
0.000863439
0.000829519
0.00079536
0.00076096
0.000726319
0.000691433
0.000656303
0.000620925
0.000585299
0.000549423
0.000513294
0.000476911
0.000440273
0.000403377
0.000366222
0.000328806
0.000291127
0.000253183
0.000214972
0.000176493
0.000137744
9.87226e-05
5.9427e-05
1.98553e-05
0.00370461
0.00362573
0.00353748
0.00344077
0.00333754
0.003231
0.00312433
0.00302011
0.00292041
0.00282689
0.00274079
0.00266298
0.00259396
0.00253386
0.00248254
0.00243954
0.00240418
0.0023755
0.00235237
0.00233354
0.00231773
0.00230377
0.00229068
0.00227768
0.00226426
0.00225004
0.00223483
0.00221854
0.00220116
0.00218274
0.00216334
0.00214305
0.00212195
0.00210015
0.0020777
0.00205469
0.00203116
0.00200717
0.00198277
0.00195798
0.00193284
0.00190737
0.00188159
0.00185551
0.00182916
0.00180253
0.00177565
0.00174852
0.00172114
0.00169352
0.00166567
0.00163759
0.00160929
0.00158076
0.001552
0.00152303
0.00149384
0.00146442
0.00143479
0.00140494
0.00137487
0.00134459
0.00131408
0.00128335
0.0012524
0.00122124
0.00118985
0.00115823
0.00112639
0.00109433
0.00106204
0.00102952
0.000996765
0.000963784
0.000930571
0.000897123
0.00086344
0.00082952
0.00079536
0.000760961
0.000726319
0.000691434
0.000656303
0.000620926
0.000585299
0.000549423
0.000513294
0.000476911
0.000440273
0.000403377
0.000366222
0.000328806
0.000291127
0.000253183
0.000214972
0.000176493
0.000137744
9.87226e-05
5.94269e-05
1.98552e-05
0.00365383
0.003581
0.00350073
0.00341329
0.00331992
0.00322316
0.00312572
0.00302989
0.00293751
0.0028501
0.00276884
0.00269457
0.00262782
0.0025688
0.00251743
0.00247341
0.00243617
0.00240496
0.00237883
0.00235675
0.00233768
0.0023206
0.00230467
0.00228918
0.00227362
0.00225762
0.00224096
0.00222349
0.00220518
0.00218601
0.00216602
0.00214526
0.0021238
0.00210169
0.00207901
0.00205579
0.00203211
0.00200798
0.00198347
0.00195858
0.00193336
0.00190781
0.00188197
0.00185584
0.00182944
0.00180277
0.00177586
0.00174869
0.00172129
0.00169365
0.00166579
0.00163769
0.00160937
0.00158083
0.00155206
0.00152308
0.00149388
0.00146446
0.00143482
0.00140497
0.00137489
0.0013446
0.00131409
0.00128336
0.00125242
0.00122125
0.00118985
0.00115824
0.0011264
0.00109433
0.00106204
0.00102952
0.000996768
0.000963787
0.000930573
0.000897125
0.000863441
0.00082952
0.000795361
0.000760961
0.00072632
0.000691434
0.000656304
0.000620926
0.0005853
0.000549423
0.000513294
0.000476911
0.000440273
0.000403377
0.000366222
0.000328806
0.000291127
0.000253183
0.000214972
0.000176493
0.000137744
9.87226e-05
5.94269e-05
1.98552e-05
0.00360819
0.00354064
0.00346718
0.00338768
0.00330287
0.00321475
0.00312559
0.00303739
0.00295177
0.0028701
0.00279346
0.00272268
0.00265826
0.00260049
0.00254937
0.00250468
0.00246599
0.00243269
0.00240403
0.00237917
0.00235723
0.00233738
0.00231885
0.00230104
0.00228345
0.00226572
0.0022476
0.00222894
0.00220965
0.00218969
0.00216906
0.00214779
0.00212591
0.00210347
0.00208051
0.00205707
0.00203319
0.00200892
0.00198426
0.00195927
0.00193394
0.00190832
0.0018824
0.00185621
0.00182976
0.00180305
0.00177609
0.0017489
0.00172146
0.0016938
0.00166591
0.0016378
0.00160946
0.0015809
0.00155213
0.00152314
0.00149393
0.0014645
0.00143486
0.001405
0.00137492
0.00134462
0.00131411
0.00128338
0.00125243
0.00122126
0.00118986
0.00115824
0.0011264
0.00109434
0.00106204
0.00102952
0.000996771
0.000963789
0.000930575
0.000897126
0.000863442
0.000829522
0.000795362
0.000760962
0.00072632
0.000691435
0.000656304
0.000620926
0.0005853
0.000549423
0.000513294
0.000476912
0.000440273
0.000403377
0.000366222
0.000328806
0.000291127
0.000253183
0.000214972
0.000176493
0.000137744
9.87226e-05
5.94269e-05
1.98552e-05
0.00356707
0.00350417
0.00343658
0.00336392
0.00328654
0.00320603
0.00312427
0.00304296
0.00296354
0.0028872
0.00281495
0.00274754
0.00268549
0.00262911
0.00257846
0.00253341
0.00249364
0.00245868
0.00242793
0.0024007
0.00237627
0.00235394
0.00233308
0.00231312
0.00229362
0.00227422
0.00225469
0.00223483
0.00221454
0.00219376
0.00217245
0.00215063
0.00212829
0.00210548
0.00208221
0.00205851
0.00203443
0.00200997
0.00198516
0.00196004
0.00193461
0.00190889
0.00188289
0.00185663
0.00183012
0.00180336
0.00177636
0.00174912
0.00172166
0.00169397
0.00166605
0.00163792
0.00160956
0.00158099
0.0015522
0.0015232
0.00149398
0.00146454
0.00143489
0.00140503
0.00137495
0.00134465
0.00131413
0.0012834
0.00125244
0.00122127
0.00118987
0.00115825
0.00112641
0.00109434
0.00106205
0.00102953
0.000996774
0.000963791
0.000930577
0.000897128
0.000863444
0.000829523
0.000795363
0.000760963
0.000726321
0.000691435
0.000656304
0.000620927
0.0005853
0.000549423
0.000513294
0.000476912
0.000440273
0.000403377
0.000366222
0.000328806
0.000291127
0.000253183
0.000214972
0.000176493
0.000137744
9.87226e-05
5.94269e-05
1.98552e-05
0.00353
0.00347121
0.00340871
0.00334195
0.00327104
0.0031972
0.00312201
0.00304691
0.00297313
0.00290172
0.00283358
0.00276941
0.00270973
0.00265483
0.00260484
0.00255969
0.00251917
0.00248291
0.00245045
0.00242122
0.00239466
0.00237016
0.0023472
0.00232528
0.00230399
0.00228302
0.00226211
0.00224107
0.00221978
0.00219816
0.00217615
0.00215374
0.00213092
0.0021077
0.0020841
0.00206012
0.00203579
0.00201114
0.00198616
0.0019609
0.00193534
0.00190952
0.00188343
0.0018571
0.00183052
0.0018037
0.00177665
0.00174937
0.00172187
0.00169415
0.00166621
0.00163805
0.00160968
0.00158109
0.00155228
0.00152327
0.00149404
0.00146459
0.00143494
0.00140506
0.00137498
0.00134467
0.00131415
0.00128341
0.00125246
0.00122128
0.00118988
0.00115826
0.00112642
0.00109435
0.00106205
0.00102953
0.000996777
0.000963794
0.000930579
0.00089713
0.000863446
0.000829524
0.000795364
0.000760964
0.000726322
0.000691436
0.000656305
0.000620927
0.0005853
0.000549424
0.000513295
0.000476912
0.000440273
0.000403377
0.000366222
0.000328806
0.000291127
0.000253183
0.000214972
0.000176493
0.000137744
9.87226e-05
5.94269e-05
1.98552e-05
0.00349655
0.00344141
0.00338335
0.00332171
0.00325641
0.00318843
0.00311906
0.00304951
0.00298083
0.00291394
0.00284963
0.00278855
0.00273118
0.00267783
0.00262865
0.00258363
0.00254263
0.0025054
0.00247156
0.00244068
0.00241229
0.00238592
0.00236109
0.00233739
0.00231447
0.00229201
0.00226978
0.00224759
0.00222531
0.00220284
0.00218012
0.0021571
0.00213377
0.00211012
0.00208616
0.00206188
0.00203729
0.00201242
0.00198726
0.00196184
0.00193615
0.00191021
0.00188403
0.00185761
0.00183095
0.00180407
0.00177697
0.00174965
0.00172211
0.00169435
0.00166638
0.0016382
0.0016098
0.00158119
0.00155237
0.00152334
0.0014941
0.00146465
0.00143498
0.0014051
0.00137501
0.0013447
0.00131417
0.00128343
0.00125247
0.00122129
0.00118989
0.00115827
0.00112643
0.00109435
0.00106206
0.00102953
0.000996781
0.000963798
0.000930582
0.000897132
0.000863447
0.000829525
0.000795365
0.000760965
0.000726322
0.000691436
0.000656305
0.000620927
0.000585301
0.000549424
0.000513295
0.000476912
0.000440273
0.000403377
0.000366222
0.000328806
0.000291127
0.000253183
0.000214972
0.000176493
0.000137744
9.87226e-05
5.94269e-05
1.98552e-05
0.00346638
0.00341449
0.00336031
0.00330312
0.00324271
0.00317985
0.00311561
0.003051
0.00298691
0.00292414
0.00286338
0.0028052
0.00275007
0.00269828
0.00265001
0.0026053
0.00256407
0.00252613
0.00249122
0.00245899
0.00242907
0.00240107
0.00237461
0.00234932
0.0023249
0.00230106
0.00227759
0.0022543
0.00223105
0.00220775
0.0021843
0.00216067
0.00213681
0.00211272
0.00208837
0.00206377
0.00203891
0.0020138
0.00198845
0.00196285
0.00193702
0.00191096
0.00188467
0.00185816
0.00183142
0.00180448
0.00177732
0.00174994
0.00172236
0.00169457
0.00166656
0.00163835
0.00160993
0.00158131
0.00155247
0.00152343
0.00149417
0.00146471
0.00143503
0.00140514
0.00137504
0.00134473
0.0013142
0.00128345
0.00125249
0.00122131
0.00118991
0.00115828
0.00112643
0.00109436
0.00106206
0.00102954
0.000996785
0.000963801
0.000930585
0.000897134
0.000863449
0.000829527
0.000795366
0.000760966
0.000726323
0.000691437
0.000656306
0.000620928
0.000585301
0.000549424
0.000513295
0.000476912
0.000440274
0.000403378
0.000366222
0.000328806
0.000291127
0.000253183
0.000214972
0.000176493
0.000137744
9.87226e-05
5.94269e-05
1.98552e-05
0.00343917
0.00339018
0.00333939
0.00328607
0.00322992
0.00317154
0.00311182
0.0030516
0.00299163
0.00293259
0.00287508
0.00281963
0.00276664
0.00271641
0.00266913
0.00262486
0.00258359
0.00254518
0.00250945
0.00247614
0.00244494
0.00241556
0.00238767
0.00236097
0.0023352
0.00231009
0.00228546
0.00226112
0.00223694
0.00221281
0.00218865
0.00216439
0.00214001
0.00211545
0.00209071
0.00206578
0.00204063
0.00201528
0.00198971
0.00196394
0.00193795
0.00191176
0.00188535
0.00185874
0.00183193
0.00180491
0.00177768
0.00175026
0.00172263
0.00169479
0.00166676
0.00163852
0.00161008
0.00158143
0.00155257
0.00152351
0.00149424
0.00146477
0.00143508
0.00140519
0.00137508
0.00134476
0.00131423
0.00128348
0.00125251
0.00122132
0.00118992
0.00115829
0.00112644
0.00109437
0.00106207
0.00102954
0.00099679
0.000963805
0.000930588
0.000897137
0.000863451
0.000829529
0.000795368
0.000760967
0.000726324
0.000691438
0.000656307
0.000620928
0.000585302
0.000549425
0.000513295
0.000476912
0.000440274
0.000403378
0.000366222
0.000328806
0.000291127
0.000253183
0.000214972
0.000176493
0.000137744
9.87226e-05
5.94269e-05
1.98551e-05
0.00341011
0.00336419
0.00331693
0.00326761
0.00321585
0.0031621
0.00310706
0.00305143
0.0029958
0.00294074
0.00288675
0.00283428
0.0027837
0.00273528
0.00268922
0.00264561
0.00260448
0.00256576
0.00252932
0.00249501
0.00246259
0.00243183
0.00240249
0.00237433
0.00234712
0.00232065
0.00229474
0.00226924
0.00224401
0.00221894
0.00219395
0.00216897
0.00214395
0.00211885
0.00209363
0.00206828
0.00204279
0.00201713
0.0019913
0.0019653
0.00193912
0.00191276
0.00188621
0.00185948
0.00183256
0.00180545
0.00177815
0.00175065
0.00172297
0.00169508
0.00166701
0.00163873
0.00161025
0.00158158
0.0015527
0.00152362
0.00149434
0.00146485
0.00143515
0.00140524
0.00137513
0.0013448
0.00131426
0.0012835
0.00125253
0.00122134
0.00118993
0.00115831
0.00112645
0.00109438
0.00106208
0.00102955
0.000996795
0.000963809
0.000930591
0.00089714
0.000863454
0.000829531
0.00079537
0.000760968
0.000726325
0.000691439
0.000656307
0.000620929
0.000585302
0.000549425
0.000513296
0.000476913
0.000440274
0.000403378
0.000366223
0.000328806
0.000291127
0.000253183
0.000214972
0.000176493
0.000137744
9.87226e-05
5.94269e-05
1.98551e-05
0.00338051
0.00333766
0.00329389
0.00324846
0.00320097
0.00315172
0.00310128
0.00305018
0.00299889
0.00294785
0.00289747
0.00284813
0.00280014
0.00275375
0.00270915
0.00266645
0.00262571
0.00258692
0.00255002
0.00251489
0.00248141
0.00244941
0.00241871
0.00238914
0.0023605
0.00233265
0.00230542
0.00227868
0.00225231
0.00222621
0.00220029
0.00217449
0.00214873
0.00212299
0.00209721
0.00207137
0.00204545
0.00201942
0.00199328
0.001967
0.00194058
0.00191401
0.00188729
0.0018604
0.00183335
0.00180613
0.00177873
0.00175115
0.00172339
0.00169545
0.00166731
0.00163899
0.00161048
0.00158177
0.00155286
0.00152376
0.00149445
0.00146495
0.00143523
0.00140531
0.00137519
0.00134485
0.0013143
0.00128354
0.00125256
0.00122137
0.00118996
0.00115832
0.00112647
0.00109439
0.00106209
0.00102956
0.000996802
0.000963815
0.000930596
0.000897144
0.000863457
0.000829533
0.000795372
0.00076097
0.000726327
0.00069144
0.000656308
0.00062093
0.000585303
0.000549425
0.000513296
0.000476913
0.000440274
0.000403378
0.000366223
0.000328806
0.000291127
0.000253183
0.000214972
0.000176493
0.000137744
9.87226e-05
5.94269e-05
1.98551e-05
0.00335399
0.00331386
0.00327314
0.00323109
0.00318729
0.00314194
0.00309549
0.00304835
0.00300087
0.00295341
0.00290629
0.00285981
0.00281424
0.00276981
0.00272668
0.00268499
0.0026448
0.00260614
0.00256901
0.00253335
0.00249908
0.0024661
0.00243428
0.00240351
0.00237364
0.00234456
0.00231613
0.00228825
0.00226081
0.00223372
0.0022069
0.00218027
0.00215379
0.00212739
0.00210103
0.00207469
0.00204832
0.0020219
0.00199542
0.00196884
0.00194217
0.00191538
0.00188846
0.00186141
0.00183422
0.00180687
0.00177936
0.00175169
0.00172385
0.00169584
0.00166765
0.00163928
0.00161072
0.00158198
0.00155304
0.00152391
0.00149458
0.00146505
0.00143532
0.00140539
0.00137525
0.0013449
0.00131435
0.00128358
0.00125259
0.00122139
0.00118998
0.00115834
0.00112648
0.0010944
0.0010621
0.00102957
0.00099681
0.000963821
0.000930601
0.000897148
0.00086346
0.000829536
0.000795374
0.000760972
0.000726328
0.000691441
0.000656309
0.000620931
0.000585303
0.000549426
0.000513297
0.000476913
0.000440275
0.000403378
0.000366223
0.000328806
0.000291127
0.000253183
0.000214972
0.000176493
0.000137744
9.87226e-05
5.94269e-05
1.98551e-05
0.00333092
0.00329313
0.00325497
0.00321575
0.00317501
0.00313291
0.00308979
0.00304596
0.00300171
0.00295729
0.00291298
0.00286901
0.00282562
0.00278298
0.00274126
0.00270059
0.00266105
0.0026227
0.00258555
0.0025496
0.0025148
0.00248111
0.00244844
0.00241672
0.00238585
0.00235574
0.00232629
0.00229741
0.00226902
0.00224104
0.00221338
0.002186
0.00215882
0.0021318
0.00210488
0.00207804
0.00205123
0.00202443
0.0019976
0.00197073
0.0019438
0.00191678
0.00188967
0.00186245
0.00183511
0.00180763
0.00178002
0.00175225
0.00172433
0.00169625
0.001668
0.00163957
0.00161097
0.00158219
0.00155322
0.00152406
0.00149471
0.00146516
0.00143542
0.00140547
0.00137532
0.00134496
0.00131439
0.00128362
0.00125263
0.00122142
0.00119
0.00115836
0.0011265
0.00109442
0.00106211
0.00102958
0.000996817
0.000963827
0.000930606
0.000897153
0.000863464
0.000829539
0.000795377
0.000760974
0.00072633
0.000691443
0.00065631
0.000620932
0.000585304
0.000549427
0.000513297
0.000476914
0.000440275
0.000403378
0.000366223
0.000328806
0.000291127
0.000253183
0.000214973
0.000176494
0.000137744
9.87226e-05
5.94269e-05
1.98551e-05
0.00331217
0.00327629
0.0032402
0.00320323
0.00316494
0.00312541
0.00308493
0.00304374
0.00300208
0.00296013
0.00291811
0.00287622
0.00283465
0.00279355
0.00275308
0.00271336
0.00267447
0.00263648
0.00259944
0.00256337
0.00252825
0.00249407
0.00246078
0.00242834
0.00239669
0.00236575
0.00233547
0.00230576
0.00227657
0.00224781
0.00221944
0.00219138
0.00216358
0.00213599
0.00210857
0.00208126
0.00205404
0.00202688
0.00199973
0.00197257
0.00194539
0.00191816
0.00189086
0.00186347
0.00183598
0.00180838
0.00178066
0.0017528
0.0017248
0.00169665
0.00166834
0.00163987
0.00161122
0.0015824
0.0015534
0.00152421
0.00149484
0.00146527
0.00143551
0.00140555
0.00137538
0.00134502
0.00131444
0.00128366
0.00125266
0.00122145
0.00119002
0.00115838
0.00112652
0.00109443
0.00106212
0.00102959
0.000996825
0.000963834
0.000930612
0.000897157
0.000863468
0.000829542
0.000795379
0.000760976
0.000726332
0.000691444
0.000656312
0.000620932
0.000585305
0.000549427
0.000513298
0.000476914
0.000440275
0.000403379
0.000366223
0.000328807
0.000291127
0.000253183
0.000214973
0.000176494
0.000137744
9.87226e-05
5.94269e-05
1.98551e-05
0.00329814
0.00326365
0.00322906
0.00319371
0.00315715
0.00311947
0.00308088
0.0030416
0.0030018
0.00296164
0.0029213
0.00288095
0.00284074
0.00280082
0.00276133
0.00272237
0.00268404
0.00264641
0.00260954
0.00257346
0.00253818
0.00250372
0.00247004
0.00243713
0.00240495
0.00237344
0.00234257
0.00231227
0.00228248
0.00225316
0.00222424
0.00219567
0.00216739
0.00213937
0.00211154
0.00208388
0.00205633
0.00202887
0.00200147
0.00197408
0.0019467
0.00191929
0.00189183
0.00186431
0.0018367
0.001809
0.00178119
0.00175326
0.00172519
0.00169698
0.00166863
0.00164011
0.00161143
0.00158258
0.00155355
0.00152434
0.00149495
0.00146536
0.00143559
0.00140561
0.00137544
0.00134506
0.00131448
0.00128369
0.00125269
0.00122147
0.00119004
0.0011584
0.00112653
0.00109444
0.00106213
0.00102959
0.000996831
0.000963839
0.000930616
0.00089716
0.000863471
0.000829545
0.000795381
0.000760978
0.000726333
0.000691445
0.000656312
0.000620933
0.000585306
0.000549428
0.000513298
0.000476914
0.000440275
0.000403379
0.000366223
0.000328807
0.000291127
0.000253183
0.000214973
0.000176494
0.000137744
9.87226e-05
5.94269e-05
1.98551e-05
0.00329115
0.00325749
0.00322374
0.00318929
0.0031537
0.00311703