/*--------------------------------*- C++ -*----------------------------------*\
| =========                 |                                                 |
| \\      /  F ield         | OpenFOAM: The Open Source CFD Toolbox           |
|  \\    /   O peration     | Version:  2.3.0                                 |
|   \\  /    A nd           | Web:      www.OpenFOAM.org                      |
|    \\/     M anipulation  |                                                 |
\*---------------------------------------------------------------------------*/
FoamFile
{
    version     2.0;
    format      ascii;
    class       volVectorField;
    location    "0.05";
    object      U;
}
// * * * * * * * * * * * * * * * * * * * * * * * * * * * * * * * * * * * * * //

dimensions      [0 1 -1 0 0 0 0];

internalField   nonuniform List<vector> 
3375
(
(0.17343 0.00579207 0)
(0.15719 0.00592826 0)
(0.141573 0.00553909 0)
(0.126754 0.00495652 0)
(0.113173 0.00430484 0)
(0.101013 0.00363878 0)
(0.0902926 0.00299628 0)
(0.080979 0.00240388 0)
(0.0730209 0.00187784 0)
(0.0663391 0.00142637 0)
(0.0608272 0.00105111 0)
(0.056363 0.000748096 0)
(0.0528218 0.000509405 0)
(0.0500869 0.000325439 0)
(0.0480544 0.000186602 0)
(0.046632 8.16703e-05 0)
(0.0457458 -5.4865e-06 0)
(0.0453687 -7.69422e-05 0)
(0.0454343 -0.000111535 0)
(0.0456722 -9.7525e-05 0)
(0.045978 -6.98717e-05 0)
(0.0462832 -4.58965e-05 0)
(0.0465505 -2.91564e-05 0)
(0.0467692 -1.86888e-05 0)
(0.0469415 -1.24718e-05 0)
(0.0470738 -8.79146e-06 0)
(0.0471736 -6.57067e-06 0)
(0.0472481 -5.16742e-06 0)
(0.0473033 -4.19076e-06 0)
(0.0473444 -3.44687e-06 0)
(0.047375 -2.852e-06 0)
(0.0473982 -2.36982e-06 0)
(0.0474161 -1.98006e-06 0)
(0.0474301 -1.66574e-06 0)
(0.0474413 -1.41074e-06 0)
(0.0474506 -1.20107e-06 0)
(0.0474583 -1.02683e-06 0)
(0.0474648 -8.81281e-07 0)
(0.0474703 -7.58885e-07 0)
(0.0474751 -6.54989e-07 0)
(0.0474792 -5.66114e-07 0)
(0.0474828 -4.89591e-07 0)
(0.0474859 -4.23314e-07 0)
(0.0474886 -3.65804e-07 0)
(0.047491 -3.15834e-07 0)
(0.047493 -2.72334e-07 0)
(0.0474948 -2.34526e-07 0)
(0.0474963 -2.01723e-07 0)
(0.0474976 -1.73276e-07 0)
(0.0474988 -1.48694e-07 0)
(0.0474997 -1.2746e-07 0)
(0.0475006 -1.09083e-07 0)
(0.0475013 -9.32311e-08 0)
(0.047502 -7.96516e-08 0)
(0.0475025 -6.79505e-08 0)
(0.047503 -5.78772e-08 0)
(0.0475034 -4.92207e-08 0)
(0.0475037 -4.18885e-08 0)
(0.047504 -3.55745e-08 0)
(0.0475042 -3.02015e-08 0)
(0.0475044 -2.55944e-08 0)
(0.0475046 -2.16991e-08 0)
(0.0475048 -1.83838e-08 0)
(0.0475049 -1.55475e-08 0)
(0.047505 -1.31585e-08 0)
(0.0475051 -1.10935e-08 0)
(0.0475052 -9.38527e-09 0)
(0.0475053 -7.88135e-09 0)
(0.0475053 -6.6498e-09 0)
(0.0475054 -5.56298e-09 0)
(0.0475054 -4.71377e-09 0)
(0.0475054 -3.95668e-09 0)
(0.0475055 -3.38295e-09 0)
(0.0475055 -2.83122e-09 0)
(0.0475055 -2.42603e-09 0)
(0.0475055 -2.01768e-09 0)
(0.0475055 -1.70572e-09 0)
(0.0475055 -1.39401e-09 0)
(0.0475056 -1.16417e-09 0)
(0.0475056 -9.86871e-10 0)
(0.0475056 -8.6615e-10 0)
(0.0475056 -7.87605e-10 0)
(0.0475056 -6.71273e-10 0)
(0.0475056 -5.96495e-10 0)
(0.0475056 -4.82681e-10 0)
(0.0475056 -4.31743e-10 0)
(0.0475056 -3.81211e-10 0)
(0.0475056 -3.26586e-10 0)
(0.0475056 -3.05573e-10 0)
(0.0475056 -2.5299e-10 0)
(0.0475056 -2.54129e-10 0)
(0.0475056 -2.44185e-10 0)
(0.0475056 -2.24557e-10 0)
(0.0475056 -2.13045e-10 0)
(0.0475056 -1.72699e-10 0)
(0.0475056 -1.71548e-10 0)
(0.0475056 -1.9178e-10 0)
(0.0475056 -2.40204e-10 0)
(0.0475056 -3.65065e-10 0)
(0.0475056 -3.78193e-10 0)
(0.192497 0.00922829 0)
(0.190511 0.00978684 0)
(0.186963 0.00956546 0)
(0.182191 0.00905719 0)
(0.176708 0.00840962 0)
(0.170877 0.00766902 0)
(0.164928 0.00687287 0)
(0.159041 0.00605575 0)
(0.153363 0.00524612 0)
(0.148013 0.00446658 0)
(0.143085 0.00373371 0)
(0.138651 0.00305722 0)
(0.134768 0.00244028 0)
(0.131484 0.00188203 0)
(0.128826 0.001381 0)
(0.126803 0.000936091 0)
(0.125404 0.000544879 0)
(0.124536 0.000211013 0)
(0.124067 -4.02574e-05 0)
(0.12402 -0.000181934 0)
(0.124238 -0.000231243 0)
(0.124597 -0.000226324 0)
(0.125004 -0.000196139 0)
(0.125399 -0.000158215 0)
(0.12575 -0.000121727 0)
(0.126045 -9.06277e-05 0)
(0.126283 -6.59971e-05 0)
(0.126469 -4.74658e-05 0)
(0.12661 -3.4023e-05 0)
(0.126715 -2.45253e-05 0)
(0.126794 -1.79359e-05 0)
(0.126851 -1.3409e-05 0)
(0.126893 -1.02999e-05 0)
(0.126925 -8.14116e-06 0)
(0.126948 -6.60701e-06 0)
(0.126966 -5.47923e-06 0)
(0.12698 -4.61739e-06 0)
(0.126991 -3.93416e-06 0)
(0.127 -3.37554e-06 0)
(0.127008 -2.90783e-06 0)
(0.127014 -2.50989e-06 0)
(0.127019 -2.16785e-06 0)
(0.127024 -1.87197e-06 0)
(0.127028 -1.6154e-06 0)
(0.127031 -1.39274e-06 0)
(0.127034 -1.19948e-06 0)
(0.127037 -1.03193e-06 0)
(0.127039 -8.86821e-07 0)
(0.127041 -7.61227e-07 0)
(0.127042 -6.52746e-07 0)
(0.127044 -5.59162e-07 0)
(0.127045 -4.78396e-07 0)
(0.127046 -4.08794e-07 0)
(0.127047 -3.49e-07 0)
(0.127047 -2.97577e-07 0)
(0.127048 -2.53362e-07 0)
(0.127049 -2.15415e-07 0)
(0.127049 -1.83008e-07 0)
(0.12705 -1.55223e-07 0)
(0.12705 -1.3147e-07 0)
(0.12705 -1.11191e-07 0)
(0.12705 -9.39284e-08 0)
(0.127051 -7.92565e-08 0)
(0.127051 -6.67308e-08 0)
(0.127051 -5.61167e-08 0)
(0.127051 -4.70378e-08 0)
(0.127051 -3.9363e-08 0)
(0.127051 -3.27982e-08 0)
(0.127051 -2.72818e-08 0)
(0.127051 -2.26072e-08 0)
(0.127051 -1.87489e-08 0)
(0.127052 -1.54667e-08 0)
(0.127052 -1.27827e-08 0)
(0.127052 -1.04373e-08 0)
(0.127052 -8.53933e-09 0)
(0.127052 -6.86826e-09 0)
(0.127052 -5.49231e-09 0)
(0.127052 -4.30983e-09 0)
(0.127052 -3.34355e-09 0)
(0.127052 -2.60354e-09 0)
(0.127052 -2.00471e-09 0)
(0.127052 -1.56777e-09 0)
(0.127052 -1.13024e-09 0)
(0.127052 -8.10064e-10 0)
(0.127052 -4.93132e-10 0)
(0.127052 -2.77029e-10 0)
(0.127052 -1.11077e-10 0)
(0.127052 6.2834e-11 0)
(0.127052 1.48629e-10 0)
(0.127052 2.63917e-10 0)
(0.127052 2.98302e-10 0)
(0.127052 3.23828e-10 0)
(0.127052 3.81749e-10 0)
(0.127052 4.04698e-10 0)
(0.127052 4.66162e-10 0)
(0.127052 4.63066e-10 0)
(0.127052 3.99817e-10 0)
(0.127052 2.90936e-10 0)
(0.127052 6.82139e-11 0)
(0.127052 -2.55555e-10 0)
(0.19548 0.00867852 0)
(0.19652 0.00964937 0)
(0.196968 0.00996784 0)
(0.196661 0.00994618 0)
(0.195723 0.00969027 0)
(0.194283 0.00923624 0)
(0.192443 0.00862616 0)
(0.190301 0.00790734 0)
(0.187965 0.00712225 0)
(0.185543 0.0063054 0)
(0.183138 0.00548254 0)
(0.180843 0.00467052 0)
(0.178745 0.00387887 0)
(0.176915 0.0031138 0)
(0.175403 0.00238269 0)
(0.174237 0.00169676 0)
(0.173413 0.00107462 0)
(0.172895 0.000543383 0)
(0.172599 0.000129154 0)
(0.172477 -0.00015052 0)
(0.172524 -0.000305862 0)
(0.172698 -0.000368759 0)
(0.172953 -0.000371858 0)
(0.173248 -0.000340741 0)
(0.17355 -0.000293419 0)
(0.173835 -0.000241572 0)
(0.174089 -0.000192127 0)
(0.174306 -0.000148672 0)
(0.174485 -0.000112594 0)
(0.174627 -8.3909e-05 0)
(0.174737 -6.18771e-05 0)
(0.174821 -4.54211e-05 0)
(0.174883 -3.33984e-05 0)
(0.174929 -2.47561e-05 0)
(0.174962 -1.86047e-05 0)
(0.174986 -1.42386e-05 0)
(0.175003 -1.11242e-05 0)
(0.175016 -8.87335e-06 0)
(0.175025 -7.21366e-06 0)
(0.175032 -5.95887e-06 0)
(0.175037 -4.98435e-06 0)
(0.175042 -4.20778e-06 0)
(0.175045 -3.57477e-06 0)
(0.175048 -3.04953e-06 0)
(0.17505 -2.60807e-06 0)
(0.175052 -2.23359e-06 0)
(0.175054 -1.91408e-06 0)
(0.175055 -1.64049e-06 0)
(0.175057 -1.40562e-06 0)
(0.175058 -1.20379e-06 0)
(0.175059 -1.03035e-06 0)
(0.175059 -8.81205e-07 0)
(0.17506 -7.52932e-07 0)
(0.175061 -6.42727e-07 0)
(0.175061 -5.48076e-07 0)
(0.175062 -4.66762e-07 0)
(0.175062 -3.96985e-07 0)
(0.175062 -3.37208e-07 0)
(0.175063 -2.86006e-07 0)
(0.175063 -2.42126e-07 0)
(0.175063 -2.04662e-07 0)
(0.175063 -1.72667e-07 0)
(0.175063 -1.45442e-07 0)
(0.175063 -1.22201e-07 0)
(0.175064 -1.02428e-07 0)
(0.175064 -8.55736e-08 0)
(0.175064 -7.1214e-08 0)
(0.175064 -5.90223e-08 0)
(0.175064 -4.86851e-08 0)
(0.175064 -4.0009e-08 0)
(0.175064 -3.2736e-08 0)
(0.175064 -2.66298e-08 0)
(0.175064 -2.15084e-08 0)
(0.175064 -1.71703e-08 0)
(0.175064 -1.35236e-08 0)
(0.175064 -1.04759e-08 0)
(0.175064 -7.88462e-09 0)
(0.175064 -5.7877e-09 0)
(0.175064 -4.01127e-09 0)
(0.175064 -2.6552e-09 0)
(0.175064 -1.51313e-09 0)
(0.175064 -6.44517e-10 0)
(0.175064 1.21168e-10 0)
(0.175064 7.11781e-10 0)
(0.175064 1.1913e-09 0)
(0.175064 1.57273e-09 0)
(0.175064 1.8291e-09 0)
(0.175064 2.07877e-09 0)
(0.175064 2.21099e-09 0)
(0.175064 2.32386e-09 0)
(0.175064 2.37836e-09 0)
(0.175064 2.38869e-09 0)
(0.175064 2.44293e-09 0)
(0.175064 2.4503e-09 0)
(0.175064 2.46015e-09 0)
(0.175064 2.41126e-09 0)
(0.175064 2.26997e-09 0)
(0.175064 2.07741e-09 0)
(0.175064 1.7941e-09 0)
(0.175064 8.9069e-10 0)
(0.19652 0.00791186 0)
(0.197872 0.0089547 0)
(0.199158 0.00947999 0)
(0.200157 0.00967498 0)
(0.200852 0.00962695 0)
(0.201263 0.00936705 0)
(0.201393 0.0089277 0)
(0.201259 0.00834806 0)
(0.200897 0.00766543 0)
(0.200357 0.00691124 0)
(0.199697 0.00611025 0)
(0.198976 0.00528086 0)
(0.198252 0.00443715 0)
(0.197571 0.00359283 0)
(0.196968 0.0027654 0)
(0.196461 0.00197861 0)
(0.196054 0.00126395 0)
(0.195737 0.000658591 0)
(0.195493 0.000190079 0)
(0.1953 -0.000131257 0)
(0.195181 -0.000325655 0)
(0.195137 -0.000421597 0)
(0.195159 -0.000448598 0)
(0.195229 -0.000431457 0)
(0.195331 -0.000389064 0)
(0.195449 -0.000334906 0)
(0.195569 -0.000278038 0)
(0.195684 -0.0002241 0)
(0.195787 -0.000176212 0)
(0.195875 -0.00013571 0)
(0.195947 -0.000102753 0)
(0.196005 -7.67793e-05 0)
(0.196049 -5.68575e-05 0)
(0.196082 -4.19235e-05 0)
(0.196106 -3.09365e-05 0)
(0.196124 -2.29684e-05 0)
(0.196136 -1.72433e-05 0)
(0.196144 -1.31441e-05 0)
(0.196149 -1.02009e-05 0)
(0.196153 -8.06756e-06 0)
(0.196155 -6.49681e-06 0)
(0.196157 -5.31637e-06 0)
(0.196158 -4.40828e-06 0)
(0.196159 -3.69306e-06 0)
(0.196159 -3.11758e-06 0)
(0.19616 -2.64598e-06 0)
(0.19616 -2.25393e-06 0)
(0.19616 -1.92456e-06 0)
(0.19616 -1.64559e-06 0)
(0.19616 -1.40803e-06 0)
(0.19616 -1.20512e-06 0)
(0.19616 -1.03137e-06 0)
(0.196161 -8.82274e-07 0)
(0.196161 -7.54258e-07 0)
(0.196161 -6.44325e-07 0)
(0.196161 -5.49852e-07 0)
(0.196161 -4.68692e-07 0)
(0.196161 -3.98996e-07 0)
(0.196161 -3.39196e-07 0)
(0.196161 -2.87819e-07 0)
(0.196161 -2.43846e-07 0)
(0.196161 -2.06175e-07 0)
(0.196161 -1.74021e-07 0)
(0.196161 -1.46504e-07 0)
(0.196161 -1.23003e-07 0)
(0.196161 -1.02932e-07 0)
(0.196161 -8.57523e-08 0)
(0.196161 -7.11498e-08 0)
(0.196161 -5.87133e-08 0)
(0.196161 -4.82715e-08 0)
(0.196161 -3.94598e-08 0)
(0.196161 -3.20619e-08 0)
(0.196161 -2.57927e-08 0)
(0.196161 -2.05122e-08 0)
(0.196161 -1.60181e-08 0)
(0.196161 -1.23039e-08 0)
(0.196161 -9.11838e-09 0)
(0.196161 -6.56999e-09 0)
(0.196161 -4.39462e-09 0)
(0.196161 -2.72137e-09 0)
(0.196161 -1.29919e-09 0)
(0.196161 -1.94755e-10 0)
(0.196161 7.43027e-10 0)
(0.196161 1.48138e-09 0)
(0.196161 2.04478e-09 0)
(0.196161 2.51301e-09 0)
(0.196161 2.8165e-09 0)
(0.196161 3.09526e-09 0)
(0.196161 3.24484e-09 0)
(0.196161 3.33754e-09 0)
(0.196161 3.39029e-09 0)
(0.196161 3.38102e-09 0)
(0.196161 3.41915e-09 0)
(0.196161 3.40819e-09 0)
(0.196161 3.36891e-09 0)
(0.196161 3.27525e-09 0)
(0.196161 3.07021e-09 0)
(0.196161 2.81095e-09 0)
(0.196161 2.4494e-09 0)
(0.196161 1.18503e-09 0)
(0.197259 0.00729444 0)
(0.198449 0.00825648 0)
(0.199733 0.00880792 0)
(0.200938 0.00906273 0)
(0.202023 0.00909603 0)
(0.202979 0.00893718 0)
(0.203786 0.00860916 0)
(0.204428 0.00813998 0)
(0.204902 0.00755802 0)
(0.20522 0.00688847 0)
(0.205401 0.00615256 0)
(0.205469 0.0053681 0)
(0.205446 0.00455144 0)
(0.205353 0.00372059 0)
(0.205203 0.0028982 0)
(0.205006 0.00211301 0)
(0.204768 0.00139927 0)
(0.204499 0.000793256 0)
(0.204219 0.00032146 0)
(0.203939 -1.62773e-05 0)
(0.203687 -0.000235104 0)
(0.20348 -0.000358897 0)
(0.203321 -0.000412294 0)
(0.20321 -0.000417149 0)
(0.203137 -0.000391199 0)
(0.203096 -0.000347983 0)
(0.203078 -0.000297288 0)
(0.203075 -0.00024578 0)
(0.203081 -0.000197653 0)
(0.203092 -0.00015522 0)
(0.203105 -0.000119436 0)
(0.203117 -9.03359e-05 0)
(0.203128 -6.73898e-05 0)
(0.203136 -4.97695e-05 0)
(0.203142 -3.65431e-05 0)
(0.203146 -2.68027e-05 0)
(0.203149 -1.97375e-05 0)
(0.20315 -1.46674e-05 0)
(0.20315 -1.10492e-05 0)
(0.20315 -8.46652e-06 0)
(0.203149 -6.61088e-06 0)
(0.203148 -5.26062e-06 0)
(0.203147 -4.26018e-06 0)
(0.203146 -3.50261e-06 0)
(0.203145 -2.91553e-06 0)
(0.203144 -2.45017e-06 0)
(0.203143 -2.07383e-06 0)
(0.203142 -1.76442e-06 0)
(0.203141 -1.50658e-06 0)
(0.203141 -1.28944e-06 0)
(0.20314 -1.10533e-06 0)
(0.20314 -9.48397e-07 0)
(0.20314 -8.14022e-07 0)
(0.203139 -6.9862e-07 0)
(0.203139 -5.99395e-07 0)
(0.203139 -5.13938e-07 0)
(0.203139 -4.40292e-07 0)
(0.203139 -3.76766e-07 0)
(0.203139 -3.22028e-07 0)
(0.203138 -2.74763e-07 0)
(0.203138 -2.34112e-07 0)
(0.203138 -1.99088e-07 0)
(0.203138 -1.69029e-07 0)
(0.203138 -1.43163e-07 0)
(0.203138 -1.20933e-07 0)
(0.203138 -1.01844e-07 0)
(0.203138 -8.53905e-08 0)
(0.203138 -7.13421e-08 0)
(0.203138 -5.93039e-08 0)
(0.203138 -4.9159e-08 0)
(0.203138 -4.05315e-08 0)
(0.203138 -3.32551e-08 0)
(0.203138 -2.70256e-08 0)
(0.203138 -2.17722e-08 0)
(0.203138 -1.72556e-08 0)
(0.203138 -1.35306e-08 0)
(0.203138 -1.03105e-08 0)
(0.203138 -7.73886e-09 0)
(0.203138 -5.52889e-09 0)
(0.203138 -3.81388e-09 0)
(0.203138 -2.34383e-09 0)
(0.203138 -1.18106e-09 0)
(0.203138 -2.02865e-10 0)
(0.203138 5.85483e-10 0)
(0.203138 1.17184e-09 0)
(0.203138 1.67021e-09 0)
(0.203138 1.99538e-09 0)
(0.203138 2.28319e-09 0)
(0.203138 2.44539e-09 0)
(0.203138 2.52864e-09 0)
(0.203138 2.58761e-09 0)
(0.203138 2.58131e-09 0)
(0.203138 2.6198e-09 0)
(0.203138 2.61266e-09 0)
(0.203138 2.55369e-09 0)
(0.203138 2.44341e-09 0)
(0.203138 2.21525e-09 0)
(0.203138 1.92767e-09 0)
(0.203138 1.50736e-09 0)
(0.203138 3.10261e-10 0)
(0.197885 0.00675016 0)
(0.198889 0.0075955 0)
(0.200022 0.00812468 0)
(0.201157 0.00839733 0)
(0.202247 0.0084694 0)
(0.203274 0.00836731 0)
(0.204219 0.00810929 0)
(0.205061 0.00771684 0)
(0.205786 0.00721282 0)
(0.206389 0.00661844 0)
(0.206872 0.00595244 0)
(0.207236 0.00523184 0)
(0.207487 0.00447356 0)
(0.207627 0.00369675 0)
(0.207659 0.00292488 0)
(0.207588 0.00218623 0)
(0.207422 0.00151247 0)
(0.207179 0.000934739 0)
(0.206886 0.000475445 0)
(0.206576 0.000135959 0)
(0.206272 -9.54093e-05 0)
(0.205996 -0.000238198 0)
(0.205758 -0.000312989 0)
(0.20556 -0.00033873 0)
(0.205402 -0.000331494 0)
(0.205279 -0.000304061 0)
(0.205187 -0.000266045 0)
(0.205118 -0.000224288 0)
(0.205069 -0.000183349 0)
(0.205034 -0.000145988 0)
(0.20501 -0.000113617 0)
(0.204994 -8.66925e-05 0)
(0.204982 -6.50471e-05 0)
(0.204974 -4.81442e-05 0)
(0.204967 -3.52731e-05 0)
(0.204962 -2.56838e-05 0)
(0.204958 -1.86704e-05 0)
(0.204955 -1.36168e-05 0)
(0.204951 -1.00146e-05 0)
(0.204948 -7.46283e-06 0)
(0.204945 -5.65653e-06 0)
(0.204943 -4.37152e-06 0)
(0.204941 -3.44732e-06 0)
(0.204939 -2.77157e-06 0)
(0.204937 -2.26719e-06 0)
(0.204935 -1.88191e-06 0)
(0.204934 -1.58061e-06 0)
(0.204933 -1.33987e-06 0)
(0.204932 -1.14371e-06 0)
(0.204931 -9.81166e-07 0)
(0.20493 -8.44781e-07 0)
(0.204929 -7.29224e-07 0)
(0.204929 -6.30465e-07 0)
(0.204928 -5.45491e-07 0)
(0.204928 -4.72136e-07 0)
(0.204928 -4.08596e-07 0)
(0.204927 -3.53437e-07 0)
(0.204927 -3.05418e-07 0)
(0.204927 -2.63658e-07 0)
(0.204927 -2.27228e-07 0)
(0.204927 -1.95581e-07 0)
(0.204927 -1.68014e-07 0)
(0.204926 -1.441e-07 0)
(0.204926 -1.23302e-07 0)
(0.204926 -1.05224e-07 0)
(0.204926 -8.95403e-08 0)
(0.204926 -7.58652e-08 0)
(0.204926 -6.40882e-08 0)
(0.204926 -5.3895e-08 0)
(0.204926 -4.52396e-08 0)
(0.204926 -3.77943e-08 0)
(0.204926 -3.14579e-08 0)
(0.204926 -2.59616e-08 0)
(0.204926 -2.13028e-08 0)
(0.204926 -1.72501e-08 0)
(0.204926 -1.39027e-08 0)
(0.204926 -1.09795e-08 0)
(0.204926 -8.64134e-09 0)
(0.204926 -6.61462e-09 0)
(0.204926 -5.02715e-09 0)
(0.204926 -3.65226e-09 0)
(0.204926 -2.54497e-09 0)
(0.204926 -1.61615e-09 0)
(0.204926 -8.53465e-10 0)
(0.204926 -2.91723e-10 0)
(0.204926 1.96236e-10 0)
(0.204926 5.20175e-10 0)
(0.204926 7.99927e-10 0)
(0.204926 9.65761e-10 0)
(0.204926 1.042e-09 0)
(0.204926 1.10688e-09 0)
(0.204926 1.11104e-09 0)
(0.204926 1.15418e-09 0)
(0.204926 1.15692e-09 0)
(0.204926 1.09069e-09 0)
(0.204926 9.75024e-10 0)
(0.204926 7.42128e-10 0)
(0.204926 4.46199e-10 0)
(0.204926 1.00922e-11 0)
(0.204926 -9.47192e-10 0)
(0.198429 0.00627054 0)
(0.199284 0.00700246 0)
(0.200266 0.00749371 0)
(0.201283 0.00776697 0)
(0.202289 0.00785871 0)
(0.20326 0.00779133 0)
(0.204176 0.00758073 0)
(0.205018 0.00724465 0)
(0.205771 0.00680243 0)
(0.206426 0.00627269 0)
(0.206977 0.00567257 0)
(0.207419 0.00501832 0)
(0.207748 0.00432662 0)
(0.207963 0.00361628 0)
(0.208061 0.0029095 0)
(0.208046 0.00223192 0)
(0.207927 0.00161101 0)
(0.207722 0.00107252 0)
(0.207457 0.000634615 0)
(0.207163 0.000300898 0)
(0.206868 6.24964e-05 0)
(0.206589 -9.5405e-05 0)
(0.206339 -0.000189447 0)
(0.206123 -0.000235681 0)
(0.205942 -0.000248174 0)
(0.205795 -0.000238506 0)
(0.205678 -0.000215707 0)
(0.205587 -0.000186463 0)
(0.205517 -0.000155452 0)
(0.205465 -0.000125716 0)
(0.205426 -9.90262e-05 0)
(0.205397 -7.62161e-05 0)
(0.205376 -5.74731e-05 0)
(0.20536 -4.25729e-05 0)
(0.205348 -3.10618e-05 0)
(0.205339 -2.23898e-05 0)
(0.205332 -1.60001e-05 0)
(0.205326 -1.13821e-05 0)
(0.205321 -8.09883e-06 0)
(0.205316 -5.79486e-06 0)
(0.205313 -4.19302e-06 0)
(0.20531 -3.0848e-06 0)
(0.205307 -2.318e-06 0)
(0.205304 -1.78432e-06 0)
(0.205302 -1.40847e-06 0)
(0.2053 -1.13902e-06 0)
(0.205299 -9.41334e-07 0)
(0.205297 -7.92492e-07 0)
(0.205296 -6.7723e-07 0)
(0.205295 -5.85344e-07 0)
(0.205294 -5.10214e-07 0)
(0.205294 -4.47462e-07 0)
(0.205293 -3.93972e-07 0)
(0.205292 -3.4764e-07 0)
(0.205292 -3.0713e-07 0)
(0.205292 -2.71423e-07 0)
(0.205291 -2.39772e-07 0)
(0.205291 -2.11527e-07 0)
(0.205291 -1.8636e-07 0)
(0.205291 -1.63825e-07 0)
(0.205291 -1.43762e-07 0)
(0.20529 -1.25828e-07 0)
(0.20529 -1.09894e-07 0)
(0.20529 -9.5708e-08 0)
(0.20529 -8.30877e-08 0)
(0.20529 -7.19083e-08 0)
(0.20529 -6.19432e-08 0)
(0.20529 -5.32159e-08 0)
(0.20529 -4.55223e-08 0)
(0.20529 -3.88914e-08 0)
(0.20529 -3.30754e-08 0)
(0.20529 -2.80456e-08 0)
(0.20529 -2.3598e-08 0)
(0.20529 -1.97925e-08 0)
(0.20529 -1.6429e-08 0)
(0.20529 -1.36377e-08 0)
(0.20529 -1.1165e-08 0)
(0.20529 -9.17913e-09 0)
(0.20529 -7.43773e-09 0)
(0.20529 -6.05896e-09 0)
(0.20529 -4.84954e-09 0)
(0.20529 -3.85612e-09 0)
(0.20529 -3.02205e-09 0)
(0.20529 -2.32337e-09 0)
(0.20529 -1.80895e-09 0)
(0.20529 -1.35157e-09 0)
(0.20529 -1.04076e-09 0)
(0.20529 -7.78361e-10 0)
(0.20529 -6.15951e-10 0)
(0.20529 -5.46297e-10 0)
(0.20529 -4.77489e-10 0)
(0.20529 -4.60892e-10 0)
(0.20529 -4.13217e-10 0)
(0.20529 -4.01632e-10 0)
(0.20529 -4.71577e-10 0)
(0.20529 -5.90713e-10 0)
(0.20529 -8.21809e-10 0)
(0.20529 -1.1166e-09 0)
(0.20529 -1.53937e-09 0)
(0.20529 -2.28276e-09 0)
(0.198904 0.0058428 0)
(0.199643 0.0064716 0)
(0.200496 0.00691652 0)
(0.201399 0.00717911 0)
(0.202309 0.00728017 0)
(0.203197 0.00723707 0)
(0.204046 0.0070635 0)
(0.204837 0.00677422 0)
(0.205554 0.00638561 0)
(0.206188 0.00591412 0)
(0.206731 0.00537553 0)
(0.207175 0.00478528 0)
(0.207515 0.00415946 0)
(0.207748 0.00351585 0)
(0.207872 0.00287473 0)
(0.207889 0.00225866 0)
(0.207809 0.00169095 0)
(0.207646 0.00119282 0)
(0.207425 0.000779163 0)
(0.207171 0.000454428 0)
(0.206909 0.000213209 0)
(0.206656 4.43989e-05 0)
(0.206424 -6.52964e-05 0)
(0.206219 -0.000129153 0)
(0.206043 -0.000159358 0)
(0.205897 -0.000166264 0)
(0.205778 -0.000158203 0)
(0.205683 -0.000141554 0)
(0.205608 -0.000120955 0)
(0.205551 -9.95771e-05 0)
(0.205507 -7.94218e-05 0)
(0.205474 -6.16001e-05 0)
(0.205449 -4.65833e-05 0)
(0.20543 -3.44142e-05 0)
(0.205416 -2.48764e-05 0)
(0.205405 -1.76181e-05 0)
(0.205396 -1.22398e-05 0)
(0.205389 -8.35151e-06 0)
(0.205383 -5.6045e-06 0)
(0.205378 -3.70589e-06 0)
(0.205374 -2.42102e-06 0)
(0.205371 -1.56926e-06 0)
(0.205368 -1.01615e-06 0)
(0.205365 -6.64487e-07 0)
(0.205363 -4.45895e-07 0)
(0.205361 -3.13348e-07 0)
(0.205359 -2.35087e-07 0)
(0.205358 -1.90256e-07 0)
(0.205357 -1.65371e-07 0)
(0.205355 -1.51752e-07 0)
(0.205355 -1.44075e-07 0)
(0.205354 -1.392e-07 0)
(0.205353 -1.35215e-07 0)
(0.205353 -1.3108e-07 0)
(0.205352 -1.264e-07 0)
(0.205352 -1.21026e-07 0)
(0.205352 -1.14985e-07 0)
(0.205351 -1.08297e-07 0)
(0.205351 -1.0122e-07 0)
(0.205351 -9.38397e-08 0)
(0.205351 -8.64184e-08 0)
(0.205351 -7.901e-08 0)
(0.20535 -7.18044e-08 0)
(0.20535 -6.48621e-08 0)
(0.20535 -5.82324e-08 0)
(0.20535 -5.20054e-08 0)
(0.20535 -4.61317e-08 0)
(0.20535 -4.07698e-08 0)
(0.20535 -3.58387e-08 0)
(0.20535 -3.14432e-08 0)
(0.20535 -2.74334e-08 0)
(0.20535 -2.38568e-08 0)
(0.20535 -2.05883e-08 0)
(0.20535 -1.7743e-08 0)
(0.20535 -1.51635e-08 0)
(0.20535 -1.30007e-08 0)
(0.20535 -1.10416e-08 0)
(0.20535 -9.45526e-09 0)
(0.20535 -8.0407e-09 0)
(0.20535 -6.90458e-09 0)
(0.20535 -5.89093e-09 0)
(0.20535 -5.03794e-09 0)
(0.20535 -4.31748e-09 0)
(0.20535 -3.69864e-09 0)
(0.20535 -3.23928e-09 0)
(0.20535 -2.82105e-09 0)
(0.20535 -2.52892e-09 0)
(0.20535 -2.28833e-09 0)
(0.20535 -2.13341e-09 0)
(0.20535 -2.06898e-09 0)
(0.20535 -1.99719e-09 0)
(0.20535 -1.9676e-09 0)
(0.20535 -1.91632e-09 0)
(0.20535 -1.89898e-09 0)
(0.20535 -1.97171e-09 0)
(0.20535 -2.09495e-09 0)
(0.20535 -2.3213e-09 0)
(0.20535 -2.60915e-09 0)
(0.20535 -3.00383e-09 0)
(0.20535 -3.59954e-09 0)
(0.19932 0.00545384 0)
(0.199968 0.00599151 0)
(0.200714 0.00638734 0)
(0.201514 0.00663261 0)
(0.202332 0.00673677 0)
(0.203139 0.00671186 0)
(0.203916 0.00656901 0)
(0.204646 0.00632036 0)
(0.205314 0.00597969 0)
(0.205909 0.00556142 0)
(0.206424 0.00508 0)
(0.20685 0.00454993 0)
(0.207182 0.00398637 0)
(0.207417 0.00340586 0)
(0.207554 0.00282664 0)
(0.207595 0.00226837 0)
(0.207548 0.00175079 0)
(0.207427 0.0012915 0)
(0.207251 0.000902965 0)
(0.207041 0.000589908 0)
(0.206818 0.000349376 0)
(0.206598 0.00017338 0)
(0.206392 5.1511e-05 0)
(0.206207 -2.71645e-05 0)
(0.206045 -7.29256e-05 0)
(0.205908 -9.48615e-05 0)
(0.205794 -0.000100517 0)
(0.205702 -9.58486e-05 0)
(0.205628 -8.53408e-05 0)
(0.20557 -7.22035e-05 0)
(0.205526 -5.85958e-05 0)
(0.205491 -4.58519e-05 0)
(0.205464 -3.46908e-05 0)
(0.205444 -2.53983e-05 0)
(0.205428 -1.79783e-05 0)
(0.205416 -1.22665e-05 0)
(0.205407 -8.01622e-06 0)
(0.205399 -4.95601e-06 0)
(0.205393 -2.8259e-06 0)
(0.205387 -1.39697e-06 0)
(0.205383 -4.79322e-07 0)
(0.205379 7.73082e-08 0)
(0.205376 3.87272e-07 0)
(0.205374 5.34649e-07 0)
(0.205371 5.79142e-07 0)
(0.205369 5.62006e-07 0)
(0.205368 5.11055e-07 0)
(0.205366 4.44303e-07 0)
(0.205365 3.72911e-07 0)
(0.205364 3.03588e-07 0)
(0.205363 2.40053e-07 0)
(0.205362 1.84023e-07 0)
(0.205362 1.36007e-07 0)
(0.205361 9.58835e-08 0)
(0.205361 6.30245e-08 0)
(0.20536 3.66542e-08 0)
(0.20536 1.59156e-08 0)
(0.20536 6.36864e-11 0)
(0.205359 -1.17742e-08 0)
(0.205359 -2.02362e-08 0)
(0.205359 -2.60299e-08 0)
(0.205359 -2.96297e-08 0)
(0.205359 -3.15609e-08 0)
(0.205359 -3.22047e-08 0)
(0.205359 -3.18561e-08 0)
(0.205359 -3.08235e-08 0)
(0.205358 -2.92461e-08 0)
(0.205358 -2.74168e-08 0)
(0.205358 -2.53846e-08 0)
(0.205358 -2.33336e-08 0)
(0.205358 -2.12233e-08 0)
(0.205358 -1.91806e-08 0)
(0.205358 -1.71653e-08 0)
(0.205358 -1.53405e-08 0)
(0.205358 -1.35973e-08 0)
(0.205358 -1.21008e-08 0)
(0.205358 -1.06876e-08 0)
(0.205358 -9.52483e-09 0)
(0.205358 -8.45814e-09 0)
(0.205358 -7.58307e-09 0)
(0.205358 -6.78143e-09 0)
(0.205358 -6.08402e-09 0)
(0.205358 -5.48672e-09 0)
(0.205358 -4.95602e-09 0)
(0.205358 -4.555e-09 0)
(0.205358 -4.18051e-09 0)
(0.205358 -3.91091e-09 0)
(0.205358 -3.69474e-09 0)
(0.205358 -3.55013e-09 0)
(0.205358 -3.4894e-09 0)
(0.205358 -3.41512e-09 0)
(0.205358 -3.37286e-09 0)
(0.205358 -3.31914e-09 0)
(0.205358 -3.2993e-09 0)
(0.205358 -3.37452e-09 0)
(0.205358 -3.50206e-09 0)
(0.205358 -3.72144e-09 0)
(0.205358 -3.99787e-09 0)
(0.205358 -4.35853e-09 0)
(0.205358 -4.85615e-09 0)
(0.199685 0.00509483 0)
(0.200259 0.00555357 0)
(0.200917 0.00590145 0)
(0.201627 0.00612573 0)
(0.20236 0.00622844 0)
(0.203091 0.00621685 0)
(0.203799 0.00609947 0)
(0.204469 0.00588617 0)
(0.205086 0.00558844 0)
(0.205641 0.00521881 0)
(0.206124 0.00479029 0)
(0.206528 0.00431627 0)
(0.206848 0.0038108 0)
(0.207082 0.00328901 0)
(0.207227 0.00276718 0)
(0.207288 0.00226237 0)
(0.20727 0.00179135 0)
(0.207186 0.00136885 0)
(0.207051 0.00100546 0)
(0.206882 0.000705928 0)
(0.206698 0.000469017 0)
(0.206511 0.000289162 0)
(0.206332 0.000158418 0)
(0.206168 6.79783e-05 0)
(0.206022 9.19889e-06 0)
(0.205897 -2.57729e-05 0)
(0.205791 -4.36532e-05 0)
(0.205704 -4.9915e-05 0)
(0.205633 -4.88282e-05 0)
(0.205577 -4.35644e-05 0)
(0.205532 -3.63642e-05 0)
(0.205497 -2.87152e-05 0)
(0.20547 -2.15244e-05 0)
(0.205449 -1.52755e-05 0)
(0.205432 -1.01574e-05 0)
(0.205419 -6.17125e-06 0)
(0.205409 -3.2096e-06 0)
(0.205401 -1.11366e-06 0)
(0.205394 2.89108e-07 0)
(0.205389 1.16187e-06 0)
(0.205384 1.64649e-06 0)
(0.205381 1.85902e-06 0)
(0.205377 1.88999e-06 0)
(0.205375 1.80708e-06 0)
(0.205372 1.6588e-06 0)
(0.20537 1.47859e-06 0)
(0.205369 1.28877e-06 0)
(0.205367 1.10338e-06 0)
(0.205366 9.30507e-07 0)
(0.205365 7.74363e-07 0)
(0.205364 6.36644e-07 0)
(0.205363 5.17377e-07 0)
(0.205363 4.1556e-07 0)
(0.205362 3.29739e-07 0)
(0.205362 2.58173e-07 0)
(0.205361 1.9911e-07 0)
(0.205361 1.50819e-07 0)
(0.205361 1.11785e-07 0)
(0.20536 8.05005e-08 0)
(0.20536 5.57552e-08 0)
(0.20536 3.63784e-08 0)
(0.20536 2.14584e-08 0)
(0.20536 1.01238e-08 0)
(0.20536 1.67047e-09 0)
(0.20536 -4.45089e-09 0)
(0.20536 -8.76883e-09 0)
(0.20536 -1.16181e-08 0)
(0.20536 -1.34259e-08 0)
(0.20536 -1.43767e-08 0)
(0.205359 -1.47406e-08 0)
(0.205359 -1.45931e-08 0)
(0.205359 -1.41425e-08 0)
(0.205359 -1.34341e-08 0)
(0.205359 -1.26717e-08 0)
(0.205359 -1.17989e-08 0)
(0.205359 -1.09923e-08 0)
(0.205359 -1.01435e-08 0)
(0.205359 -9.41882e-09 0)
(0.205359 -8.71217e-09 0)
(0.205359 -8.1099e-09 0)
(0.205359 -7.52997e-09 0)
(0.205359 -6.99779e-09 0)
(0.205359 -6.52875e-09 0)
(0.205359 -6.09109e-09 0)
(0.205359 -5.75047e-09 0)
(0.205359 -5.42329e-09 0)
(0.205359 -5.18026e-09 0)
(0.205359 -4.99079e-09 0)
(0.205359 -4.85905e-09 0)
(0.205359 -4.80103e-09 0)
(0.205359 -4.72498e-09 0)
(0.205359 -4.67141e-09 0)
(0.205359 -4.61679e-09 0)
(0.205359 -4.59732e-09 0)
(0.205359 -4.67479e-09 0)
(0.205359 -4.80582e-09 0)
(0.205359 -5.01611e-09 0)
(0.205359 -5.27758e-09 0)
(0.205359 -5.60313e-09 0)
(0.205359 -6.03065e-09 0)
(0.200005 0.00475982 0)
(0.20052 0.00515089 0)
(0.201102 0.00545393 0)
(0.201734 0.00565557 0)
(0.202391 0.00575347 0)
(0.203052 0.00575118 0)
(0.203696 0.00565481 0)
(0.204309 0.00547218 0)
(0.204878 0.0052128 0)
(0.205393 0.00488742 0)
(0.205844 0.00450759 0)
(0.206226 0.00408545 0)
(0.206534 0.0036338 0)
(0.206764 0.0031663 0)
(0.206916 0.00269737 0)
(0.206993 0.00224182 0)
(0.207001 0.00181392 0)
(0.206949 0.00142614 0)
(0.20685 0.00108759 0)
(0.206719 0.000802886 0)
(0.206569 0.000571979 0)
(0.206414 0.000391176 0)
(0.206261 0.000254531 0)
(0.206119 0.000155067 0)
(0.20599 8.56517e-05 0)
(0.205877 3.95936e-05 0)
(0.20578 1.09861e-05 0)
(0.205699 -5.12039e-06 0)
(0.205632 -1.27052e-05 0)
(0.205578 -1.483e-05 0)
(0.205534 -1.37518e-05 0)
(0.2055 -1.10558e-05 0)
(0.205473 -7.79171e-06 0)
(0.205451 -4.6034e-06 0)
(0.205434 -1.83925e-06 0)
(0.205421 3.53025e-07 0)
(0.20541 1.95377e-06 0)
(0.205402 3.01693e-06 0)
(0.205395 3.63165e-06 0)
(0.205389 3.89698e-06 0)
(0.205385 3.90691e-06 0)
(0.205381 3.74253e-06 0)
(0.205377 3.46922e-06 0)
(0.205375 3.13686e-06 0)
(0.205372 2.78148e-06 0)
(0.20537 2.42764e-06 0)
(0.205369 2.09118e-06 0)
(0.205367 1.78139e-06 0)
(0.205366 1.50278e-06 0)
(0.205365 1.25666e-06 0)
(0.205364 1.04239e-06 0)
(0.205363 8.58065e-07 0)
(0.205363 7.01048e-07 0)
(0.205362 5.68445e-07 0)
(0.205362 4.5732e-07 0)
(0.205361 3.64888e-07 0)
(0.205361 2.88502e-07 0)
(0.205361 2.25845e-07 0)
(0.205361 1.74752e-07 0)
(0.20536 1.33428e-07 0)
(0.20536 1.00217e-07 0)
(0.20536 7.37626e-08 0)
(0.20536 5.28386e-08 0)
(0.20536 3.64231e-08 0)
(0.20536 2.37038e-08 0)
(0.20536 1.39304e-08 0)
(0.20536 6.56836e-09 0)
(0.20536 1.05522e-09 0)
(0.20536 -2.9341e-09 0)
(0.20536 -5.76381e-09 0)
(0.20536 -7.62868e-09 0)
(0.20536 -8.81775e-09 0)
(0.20536 -9.4581e-09 0)
(0.20536 -9.78942e-09 0)
(0.20536 -9.80961e-09 0)
(0.20536 -9.70756e-09 0)
(0.20536 -9.43415e-09 0)
(0.20536 -9.15668e-09 0)
(0.20536 -8.81705e-09 0)
(0.20536 -8.49527e-09 0)
(0.20536 -8.14244e-09 0)
(0.20536 -7.78133e-09 0)
(0.20536 -7.44286e-09 0)
(0.20536 -7.10118e-09 0)
(0.20536 -6.82304e-09 0)
(0.20536 -6.5468e-09 0)
(0.20536 -6.33518e-09 0)
(0.20536 -6.17498e-09 0)
(0.20536 -6.05891e-09 0)
(0.20536 -6.00364e-09 0)
(0.20536 -5.92719e-09 0)
(0.20536 -5.86486e-09 0)
(0.20536 -5.81121e-09 0)
(0.20536 -5.7946e-09 0)
(0.20536 -5.87367e-09 0)
(0.20536 -6.00636e-09 0)
(0.20536 -6.20521e-09 0)
(0.20536 -6.44873e-09 0)
(0.20536 -6.73978e-09 0)
(0.20536 -7.11082e-09 0)
(0.200287 0.00444463 0)
(0.200751 0.00477791 0)
(0.201271 0.00504018 0)
(0.201835 0.00521904 0)
(0.202425 0.00530991 0)
(0.203021 0.00531374 0)
(0.203606 0.00523455 0)
(0.204166 0.00507842 0)
(0.204689 0.00485311 0)
(0.205165 0.00456774 0)
(0.205587 0.0042324 0)
(0.205947 0.00385792 0)
(0.206241 0.00345582 0)
(0.206468 0.00303827 0)
(0.206625 0.00261798 0)
(0.206716 0.00220776 0)
(0.206745 0.00181984 0)
(0.206721 0.00146481 0)
(0.206654 0.0011506 0)
(0.206556 0.000881626 0)
(0.206438 0.000658638 0)
(0.206311 0.000479365 0)
(0.206184 0.000339481 0)
(0.206062 0.000233559 0)
(0.20595 0.000155807 0)
(0.20585 0.000100604 0)
(0.205762 6.28356e-05 0)
(0.205688 3.80846e-05 0)
(0.205626 2.27015e-05 0)
(0.205575 1.37849e-05 0)
(0.205533 9.11678e-06 0)
(0.2055 7.06791e-06 0)
(0.205473 6.49287e-06 0)
(0.205452 6.62809e-06 0)
(0.205435 6.99661e-06 0)
(0.205421 7.32799e-06 0)
(0.205411 7.49221e-06 0)
(0.205402 7.44883e-06 0)
(0.205395 7.20938e-06 0)
(0.205389 6.81137e-06 0)
(0.205384 6.30133e-06 0)
(0.20538 5.72465e-06 0)
(0.205377 5.12017e-06 0)
(0.205374 4.51837e-06 0)
(0.205372 3.94127e-06 0)
(0.20537 3.40329e-06 0)
(0.205369 2.91272e-06 0)
(0.205367 2.47325e-06 0)
(0.205366 2.08514e-06 0)
(0.205365 1.74641e-06 0)
(0.205364 1.45372e-06 0)
(0.205363 1.203e-06 0)
(0.205363 9.89817e-07 0)
(0.205362 8.09741e-07 0)