/*--------------------------------*- C++ -*----------------------------------*\
| =========                 |                                                 |
| \\      /  F ield         | OpenFOAM: The Open Source CFD Toolbox           |
|  \\    /   O peration     | Version:  2.3.0                                 |
|   \\  /    A nd           | Web:      www.OpenFOAM.org                      |
|    \\/     M anipulation  |                                                 |
\*---------------------------------------------------------------------------*/
FoamFile
{
    version     2.0;
    format      ascii;
    class       volVectorField;
    location    "0.9";
    object      U;
}
// * * * * * * * * * * * * * * * * * * * * * * * * * * * * * * * * * * * * * //

dimensions      [0 1 -1 0 0 0 0];

internalField   nonuniform List<vector> 
2889
(
(0.173574 0.0056642 0)
(0.156961 0.0059027 0)
(0.141231 0.00557704 0)
(0.126263 0.00501886 0)
(0.112434 0.00438006 0)
(0.0999629 0.00372371 0)
(0.0888926 0.00308813 0)
(0.0791946 0.00250015 0)
(0.0708158 0.00197666 0)
(0.0636764 0.00152665 0)
(0.0576685 0.00115273 0)
(0.0526637 0.000852305 0)
(0.0485239 0.00061874 0)
(0.0451115 0.00044285 0)
(0.0422965 0.000314432 0)
(0.0399625 0.000223483 0)
(0.038009 0.000161001 0)
(0.0363528 0.000119376 0)
(0.0349272 9.24872e-05 0)
(0.0336803 7.56177e-05 0)
(0.0325726 6.52773e-05 0)
(0.0315747 5.89892e-05 0)
(0.0306649 5.50722e-05 0)
(0.0298275 5.24407e-05 0)
(0.0290508 5.04339e-05 0)
(0.0283263 4.86779e-05 0)
(0.0276476 4.69831e-05 0)
(0.0270096 4.52701e-05 0)
(0.0264082 4.35207e-05 0)
(0.0258401 4.17465e-05 0)
(0.0253025 3.99705e-05 0)
(0.0247929 3.82169e-05 0)
(0.024309 3.65064e-05 0)
(0.0238488 3.48547e-05 0)
(0.0234106 3.3272e-05 0)
(0.0229928 3.17644e-05 0)
(0.0225938 3.03342e-05 0)
(0.0222124 2.89813e-05 0)
(0.0218473 2.7704e-05 0)
(0.0214975 2.64992e-05 0)
(0.0211618 2.53635e-05 0)
(0.0208395 2.42929e-05 0)
(0.0205296 2.32835e-05 0)
(0.0202315 2.23315e-05 0)
(0.0199443 2.1433e-05 0)
(0.0196675 2.05846e-05 0)
(0.0194004 1.97829e-05 0)
(0.0191426 1.90249e-05 0)
(0.0188934 1.83076e-05 0)
(0.0186525 1.76286e-05 0)
(0.0184193 1.69852e-05 0)
(0.0181935 1.63752e-05 0)
(0.0179748 1.57965e-05 0)
(0.0177627 1.52471e-05 0)
(0.0175569 1.47253e-05 0)
(0.0173571 1.42294e-05 0)
(0.017163 1.37577e-05 0)
(0.0169744 1.33088e-05 0)
(0.016791 1.28815e-05 0)
(0.0166125 1.24744e-05 0)
(0.0164388 1.20863e-05 0)
(0.0162695 1.17163e-05 0)
(0.0161046 1.13632e-05 0)
(0.0159438 1.10261e-05 0)
(0.0157869 1.07041e-05 0)
(0.0156338 1.03965e-05 0)
(0.0154844 1.01025e-05 0)
(0.0153384 9.82123e-06 0)
(0.0151957 9.55221e-06 0)
(0.0150561 9.29477e-06 0)
(0.0149197 9.04831e-06 0)
(0.0147861 8.81233e-06 0)
(0.0146554 8.58635e-06 0)
(0.0145273 8.36985e-06 0)
(0.0144018 8.16251e-06 0)
(0.0142789 7.96387e-06 0)
(0.0141583 7.7736e-06 0)
(0.0140399 7.59138e-06 0)
(0.0139238 7.41692e-06 0)
(0.0138098 7.24995e-06 0)
(0.0136978 7.09024e-06 0)
(0.0135877 6.93757e-06 0)
(0.0134795 6.79179e-06 0)
(0.0133731 6.65275e-06 0)
(0.0132683 6.52031e-06 0)
(0.0131652 6.39441e-06 0)
(0.0130636 6.27501e-06 0)
(0.0129635 6.16212e-06 0)
(0.0128647 6.05582e-06 0)
(0.0127673 5.9563e-06 0)
(0.012671 5.86393e-06 0)
(0.0125759 5.77934e-06 0)
(0.0124819 5.70382e-06 0)
(0.0123887 5.63988e-06 0)
(0.0122963 5.59286e-06 0)
(0.0122044 5.57537e-06 0)
(0.0121125 5.62581e-06 0)
(0.0120187 5.76149e-06 0)
(0.0119396 5.20885e-06 0)
(0.0116794 3.61842e-05 0)
(0.192743 0.0090623 0)
(0.190446 0.0097976 0)
(0.186686 0.00969149 0)
(0.181674 0.00923632 0)
(0.175862 0.00862739 0)
(0.169616 0.00792547 0)
(0.163172 0.00716828 0)
(0.156698 0.00639042 0)
(0.150328 0.00562165 0)
(0.144165 0.00488639 0)
(0.138278 0.00420388 0)
(0.13271 0.00358768 0)
(0.127484 0.00304545 0)
(0.122605 0.00257921 0)
(0.118066 0.00218636 0)
(0.113855 0.00186086 0)
(0.109953 0.00159463 0)
(0.106337 0.00137869 0)
(0.102985 0.0012042 0)
(0.0998739 0.00106303 0)
(0.0969821 0.00094815 0)
(0.094289 0.000853746 0)
(0.0917756 0.000775183 0)
(0.0894246 0.000708873 0)
(0.0872207 0.000652094 0)
(0.0851499 0.000602814 0)
(0.0832002 0.000559527 0)
(0.0813605 0.000521119 0)
(0.0796212 0.000486756 0)
(0.0779738 0.000455809 0)
(0.0764106 0.00042779 0)
(0.0749249 0.000402312 0)
(0.0735106 0.000379061 0)
(0.0721623 0.000357777 0)
(0.0708751 0.000338239 0)
(0.0696446 0.000320258 0)
(0.0684669 0.000303671 0)
(0.0673384 0.000288334 0)
(0.0662558 0.000274122 0)
(0.0652163 0.000260925 0)
(0.064217 0.000248646 0)
(0.0632555 0.000237199 0)
(0.0623296 0.000226509 0)
(0.0614373 0.000216509 0)
(0.0605764 0.00020714 0)
(0.0597454 0.000198348 0)
(0.0589426 0.000190087 0)
(0.0581665 0.000182315 0)
(0.0574157 0.000174994 0)
(0.0566888 0.000168089 0)
(0.0559847 0.00016157 0)
(0.0553023 0.00015541 0)
(0.0546403 0.000149582 0)
(0.053998 0.000144065 0)
(0.0533743 0.000138836 0)
(0.0527685 0.000133878 0)
(0.0521795 0.000129171 0)
(0.0516068 0.0001247 0)
(0.0510495 0.000120451 0)
(0.0505069 0.000116409 0)
(0.0499786 0.000112561 0)
(0.0494637 0.000108896 0)
(0.0489618 0.000105403 0)
(0.0484723 0.000102072 0)
(0.0479946 9.8894e-05 0)
(0.0475284 9.58594e-05 0)
(0.0470731 9.29607e-05 0)
(0.0466283 9.01902e-05 0)
(0.0461935 8.75411e-05 0)
(0.0457685 8.50068e-05 0)
(0.0453527 8.25813e-05 0)
(0.0449459 8.02591e-05 0)
(0.0445476 7.80348e-05 0)
(0.0441576 7.59037e-05 0)
(0.0437756 7.38613e-05 0)
(0.0434012 7.19034e-05 0)
(0.0430341 7.00261e-05 0)
(0.0426742 6.82259e-05 0)
(0.042321 6.64995e-05 0)
(0.0419744 6.48439e-05 0)
(0.0416341 6.32564e-05 0)
(0.0412999 6.17344e-05 0)
(0.0409715 6.02758e-05 0)
(0.0406487 5.88785e-05 0)
(0.0403313 5.75407e-05 0)
(0.040019 5.62611e-05 0)
(0.0397117 5.50385e-05 0)
(0.0394092 5.3872e-05 0)
(0.0391111 5.27612e-05 0)
(0.0388173 5.17066e-05 0)
(0.0385276 5.07092e-05 0)
(0.0382417 4.97721e-05 0)
(0.0379594 4.89015e-05 0)
(0.0376804 4.81108e-05 0)
(0.0374043 4.74296e-05 0)
(0.0371305 4.69323e-05 0)
(0.036858 4.68219e-05 0)
(0.0365831 4.75905e-05 0)
(0.0363254 5.32218e-05 0)
(0.0357977 0.00012617 0)
(0.195702 0.00869948 0)
(0.196503 0.00980736 0)
(0.19675 0.0102441 0)
(0.196228 0.0102973 0)
(0.195009 0.010109 0)
(0.193214 0.00972977 0)
(0.190939 0.009202 0)
(0.188271 0.00857328 0)
(0.185299 0.00788878 0)
(0.182108 0.00718719 0)
(0.178776 0.0064998 0)
(0.175366 0.00584998 0)
(0.17193 0.0052531 0)
(0.168509 0.00471713 0)
(0.165131 0.00424397 0)
(0.161819 0.0038311 0)
(0.158586 0.00347323 0)
(0.155441 0.00316366 0)
(0.152389 0.00289543 0)
(0.149431 0.00266196 0)
(0.146568 0.00245745 0)
(0.143799 0.00227699 0)
(0.141121 0.00211656 0)
(0.138533 0.00197295 0)
(0.136032 0.00184358 0)
(0.133615 0.00172643 0)
(0.13128 0.00161985 0)
(0.129023 0.00152254 0)
(0.126843 0.00143341 0)
(0.124736 0.00135156 0)
(0.1227 0.00127623 0)
(0.120731 0.00120676 0)
(0.118829 0.00114257 0)
(0.116989 0.00108316 0)
(0.115209 0.00102808 0)
(0.113487 0.000976927 0)
(0.111821 0.000929349 0)
(0.110208 0.000885026 0)
(0.108645 0.000843671 0)
(0.107132 0.00080503 0)
(0.105666 0.000768871 0)
(0.104244 0.000734989 0)
(0.102865 0.000703197 0)
(0.101528 0.000673329 0)
(0.10023 0.000645233 0)
(0.0989693 0.000618774 0)
(0.0977452 0.000593828 0)
(0.0965557 0.000570284 0)
(0.0953996 0.000548041 0)
(0.0942754 0.000527007 0)
(0.0931818 0.000507097 0)
(0.0921177 0.000488236 0)
(0.0910817 0.000470352 0)
(0.0900729 0.000453382 0)
(0.08909 0.000437267 0)
(0.0881322 0.000421953 0)
(0.0871985 0.000407388 0)
(0.0862878 0.000393528 0)
(0.0853994 0.000380329 0)
(0.0845323 0.000367752 0)
(0.0836859 0.000355761 0)
(0.0828592 0.00034432 0)
(0.0820516 0.000333399 0)
(0.0812624 0.000322969 0)
(0.0804909 0.000313001 0)
(0.0797364 0.000303471 0)
(0.0789984 0.000294354 0)
(0.0782762 0.000285629 0)
(0.0775694 0.000277275 0)
(0.0768772 0.000269272 0)
(0.0761993 0.000261603 0)
(0.0755352 0.000254251 0)
(0.0748843 0.000247199 0)
(0.0742461 0.000240435 0)
(0.0736204 0.000233943 0)
(0.0730066 0.000227711 0)
(0.0724043 0.000221728 0)
(0.0718132 0.000215982 0)
(0.0712328 0.000210463 0)
(0.0706628 0.000205162 0)
(0.0701029 0.000200071 0)
(0.0695526 0.000195181 0)
(0.0690117 0.000190485 0)
(0.0684798 0.000185976 0)
(0.0679566 0.00018165 0)
(0.0674418 0.0001775 0)
(0.0669351 0.000173524 0)
(0.0664361 0.000169717 0)
(0.0659446 0.000166077 0)
(0.0654602 0.000162604 0)
(0.0649826 0.000159301 0)
(0.0645115 0.000156173 0)
(0.0640465 0.000153234 0)
(0.0635872 0.000150515 0)
(0.0631331 0.000148088 0)
(0.0626835 0.000146133 0)
(0.0622369 0.00014514 0)
(0.0617898 0.000146705 0)
(0.0613541 0.000162941 0)
(0.0606653 0.000254323 0)
(0.196728 0.00806349 0)
(0.197883 0.00920901 0)
(0.198983 0.00985112 0)
(0.199796 0.0101445 0)
(0.200269 0.0101938 0)
(0.200407 0.0100425 0)
(0.20021 0.00972549 0)
(0.199683 0.00928334 0)
(0.198847 0.00875729 0)
(0.197738 0.00818459 0)
(0.196394 0.007597 0)
(0.194858 0.00702 0)
(0.19317 0.00647215 0)
(0.191364 0.00596526 0)
(0.189472 0.00550521 0)
(0.187521 0.00509322 0)
(0.185529 0.00472725 0)
(0.183513 0.00440331 0)
(0.181485 0.00411643 0)
(0.179453 0.00386148 0)
(0.177423 0.00363363 0)
(0.175401 0.00342857 0)
(0.17339 0.00324267 0)
(0.171394 0.00307293 0)
(0.169414 0.00291692 0)
(0.167453 0.00277273 0)
(0.165513 0.00263882 0)
(0.163594 0.00251399 0)
(0.1617 0.00239727 0)
(0.15983 0.00228786 0)
(0.157986 0.00218511 0)
(0.156169 0.00208846 0)
(0.15438 0.00199743 0)
(0.152618 0.00191159 0)
(0.150886 0.00183058 0)
(0.149183 0.00175405 0)
(0.147509 0.0016817 0)
(0.145865 0.00161325 0)
(0.14425 0.00154843 0)
(0.142665 0.00148702 0)
(0.141109 0.00142879 0)
(0.139583 0.00137355 0)
(0.138086 0.0013211 0)
(0.136617 0.00127128 0)
(0.135177 0.00122393 0)
(0.133765 0.0011789 0)
(0.13238 0.00113605 0)
(0.131023 0.00109526 0)
(0.129692 0.0010564 0)
(0.128387 0.00101937 0)
(0.127109 0.000984055 0)
(0.125855 0.000950371 0)
(0.124626 0.000918223 0)
(0.123421 0.000887528 0)
(0.12224 0.000858207 0)
(0.121081 0.000830185 0)
(0.119946 0.000803394 0)
(0.118832 0.000777769 0)
(0.117739 0.000753249 0)
(0.116668 0.000729777 0)
(0.115617 0.000707299 0)
(0.114585 0.000685764 0)
(0.113573 0.000665125 0)
(0.11258 0.000645337 0)
(0.111606 0.000626358 0)
(0.110649 0.000608148 0)
(0.109709 0.000590669 0)
(0.108787 0.000573887 0)
(0.107881 0.000557768 0)
(0.106991 0.000542281 0)
(0.106116 0.000527397 0)
(0.105257 0.000513087 0)
(0.104413 0.000499326 0)
(0.103583 0.00048609 0)
(0.102767 0.000473354 0)
(0.101964 0.000461098 0)
(0.101175 0.000449302 0)
(0.100399 0.000437946 0)
(0.0996352 0.000427013 0)
(0.0988835 0.000416487 0)
(0.0981437 0.000406352 0)
(0.0974153 0.000396594 0)
(0.0966981 0.000387201 0)
(0.0959917 0.00037816 0)
(0.0952958 0.000369463 0)
(0.0946101 0.000361098 0)
(0.0939342 0.000353059 0)
(0.0932678 0.00034534 0)
(0.0926106 0.000337936 0)
(0.0919623 0.000330846 0)
(0.0913225 0.000324072 0)
(0.0906909 0.000317625 0)
(0.0900671 0.000311526 0)
(0.0894506 0.000305827 0)
(0.0888409 0.000300645 0)
(0.0882372 0.000296274 0)
(0.0876381 0.000293539 0)
(0.0870408 0.0002953 0)
(0.0864535 0.000317262 0)
(0.085652 0.000405466 0)
(0.197449 0.00755666 0)
(0.19847 0.00860728 0)
(0.199582 0.00927177 0)
(0.200617 0.00963789 0)
(0.201515 0.00978586 0)
(0.202256 0.00975517 0)
(0.202817 0.00957311 0)
(0.203176 0.00927043 0)
(0.203324 0.0088799 0)
(0.203264 0.00843265 0)
(0.203008 0.00795648 0)
(0.202575 0.00747483 0)
(0.201987 0.00700596 0)
(0.201267 0.00656263 0)
(0.200436 0.00615248 0)
(0.199515 0.00577884 0)
(0.198519 0.0054418 0)
(0.197464 0.00513928 0)
(0.196359 0.00486796 0)
(0.195214 0.004624 0)
(0.194034 0.00440357 0)
(0.192825 0.0042031 0)
(0.191592 0.00401949 0)
(0.190337 0.00385014 0)
(0.189062 0.00369292 0)
(0.187772 0.00354611 0)
(0.186467 0.00340836 0)
(0.185151 0.00327857 0)
(0.183824 0.0031559 0)
(0.182489 0.00303964 0)
(0.181148 0.00292923 0)
(0.179803 0.00282419 0)
(0.178454 0.00272411 0)
(0.177104 0.00262865 0)
(0.175754 0.0025375 0)
(0.174406 0.00245039 0)
(0.17306 0.00236708 0)
(0.171718 0.00228733 0)
(0.17038 0.00221096 0)
(0.169049 0.00213778 0)
(0.167725 0.00206761 0)
(0.166408 0.0020003 0)
(0.1651 0.00193571 0)
(0.163801 0.00187371 0)
(0.162511 0.00181416 0)
(0.161232 0.00175696 0)
(0.159964 0.00170199 0)
(0.158708 0.00164916 0)
(0.157463 0.00159836 0)
(0.15623 0.00154952 0)
(0.155009 0.00150254 0)
(0.153802 0.00145734 0)
(0.152607 0.00141385 0)
(0.151425 0.00137199 0)
(0.150256 0.00133171 0)
(0.149101 0.00129292 0)
(0.147959 0.00125556 0)
(0.14683 0.00121959 0)
(0.145715 0.00118494 0)
(0.144614 0.00115155 0)
(0.143526 0.00111938 0)
(0.142451 0.00108838 0)
(0.14139 0.00105849 0)
(0.140341 0.00102968 0)
(0.139307 0.00100189 0)
(0.138285 0.000975087 0)
(0.137276 0.000949234 0)
(0.13628 0.000924291 0)
(0.135296 0.00090022 0)
(0.134326 0.000876989 0)
(0.133367 0.000854563 0)
(0.132421 0.000832911 0)
(0.131487 0.000812005 0)
(0.130565 0.000791814 0)
(0.129654 0.000772313 0)
(0.128755 0.000753476 0)
(0.127867 0.000735278 0)
(0.126991 0.000717698 0)
(0.126126 0.000700714 0)
(0.125271 0.000684305 0)
(0.124427 0.000668454 0)
(0.123593 0.000653142 0)
(0.122769 0.000638354 0)
(0.121956 0.000624076 0)
(0.121152 0.000610295 0)
(0.120358 0.000596999 0)
(0.119573 0.000584179 0)
(0.118797 0.000571827 0)
(0.11803 0.000559939 0)
(0.117271 0.000548513 0)
(0.116521 0.000537555 0)
(0.115779 0.000527079 0)
(0.115044 0.000517117 0)
(0.114317 0.00050774 0)
(0.113597 0.000499112 0)
(0.112883 0.000491635 0)
(0.112174 0.000486423 0)
(0.111468 0.000487182 0)
(0.110776 0.000508771 0)
(0.109904 0.00057866 0)
(0.198051 0.00711105 0)
(0.198906 0.00804286 0)
(0.199878 0.00868165 0)
(0.200852 0.00907099 0)
(0.201773 0.0092668 0)
(0.202618 0.00930276 0)
(0.203363 0.00920216 0)
(0.203988 0.00898993 0)
(0.204478 0.00869317 0)
(0.204827 0.00833833 0)
(0.205036 0.00794946 0)
(0.205113 0.0075473 0)
(0.205069 0.00714855 0)
(0.204918 0.00676551 0)
(0.204673 0.00640616 0)
(0.204347 0.00607475 0)
(0.203954 0.0057726 0)
(0.203504 0.00549889 0)
(0.203004 0.00525153 0)
(0.202462 0.00502772 0)
(0.201881 0.00482446 0)
(0.201267 0.00463884 0)
(0.200622 0.00446822 0)
(0.199949 0.00431033 0)
(0.199248 0.00416327 0)
(0.198523 0.00402547 0)
(0.197773 0.00389566 0)
(0.197001 0.00377284 0)
(0.196208 0.00365618 0)
(0.195395 0.00354504 0)
(0.194563 0.00343887 0)
(0.193713 0.00333724 0)
(0.192847 0.00323978 0)
(0.191966 0.00314618 0)
(0.19107 0.00305617 0)
(0.190161 0.00296952 0)
(0.189241 0.00288602 0)
(0.188309 0.0028055 0)
(0.187368 0.00272778 0)
(0.186418 0.00265272 0)
(0.18546 0.0025802 0)
(0.184494 0.00251008 0)
(0.183523 0.00244227 0)
(0.182546 0.00237666 0)
(0.181565 0.00231315 0)
(0.18058 0.00225167 0)
(0.179593 0.00219214 0)
(0.178603 0.00213447 0)
(0.177611 0.00207861 0)
(0.176618 0.00202448 0)
(0.175626 0.00197203 0)
(0.174633 0.0019212 0)
(0.173641 0.00187193 0)
(0.172651 0.00182417 0)
(0.171662 0.00177788 0)
(0.170675 0.001733 0)
(0.169691 0.00168948 0)
(0.168711 0.00164729 0)
(0.167733 0.00160638 0)
(0.166759 0.00156671 0)
(0.16579 0.00152824 0)
(0.164825 0.00149093 0)
(0.163864 0.00145475 0)
(0.162908 0.00141966 0)
(0.161958 0.00138562 0)
(0.161012 0.0013526 0)
(0.160073 0.00132057 0)
(0.159139 0.0012895 0)
(0.15821 0.00125935 0)
(0.157288 0.0012301 0)
(0.156372 0.00120173 0)
(0.155462 0.00117419 0)
(0.154558 0.00114747 0)
(0.153661 0.00112155 0)
(0.152771 0.00109639 0)
(0.151886 0.00107199 0)
(0.151009 0.0010483 0)
(0.150138 0.00102532 0)
(0.149273 0.00100302 0)
(0.148415 0.00098139 0)
(0.147564 0.000960409 0)
(0.146719 0.000940061 0)
(0.145881 0.000920332 0)
(0.14505 0.000901209 0)
(0.144225 0.000882681 0)
(0.143407 0.000864739 0)
(0.142594 0.000847374 0)
(0.141789 0.000830581 0)
(0.140989 0.000814358 0)
(0.140196 0.000798707 0)
(0.139408 0.000783639 0)
(0.138627 0.000769174 0)
(0.137851 0.000755355 0)
(0.13708 0.000742275 0)
(0.136315 0.000730133 0)
(0.135554 0.000719409 0)
(0.134797 0.000711366 0)
(0.134045 0.000709756 0)
(0.13331 0.000725786 0)
(0.132421 0.000768696 0)
(0.198565 0.0067217 0)
(0.199285 0.00754289 0)
(0.200117 0.00814242 0)
(0.20098 0.0085351 0)
(0.201828 0.008756 0)
(0.202632 0.00883216 0)
(0.203374 0.00878412 0)
(0.204034 0.00863319 0)
(0.204601 0.00840247 0)
(0.205067 0.00811481 0)
(0.205432 0.00779126 0)
(0.205699 0.00745016 0)
(0.205874 0.00710657 0)
(0.205968 0.006772 0)
(0.205989 0.00645433 0)
(0.205949 0.00615827 0)
(0.205855 0.00588589 0)
(0.205717 0.00563731 0)
(0.20554 0.00541133 0)
(0.20533 0.00520599 0)
(0.205091 0.00501898 0)
(0.204825 0.00484793 0)
(0.204535 0.00469061 0)
(0.204222 0.00454502 0)
(0.203887 0.00440945 0)
(0.203532 0.00428246 0)
(0.203156 0.00416286 0)
(0.20276 0.00404967 0)
(0.202345 0.0039421 0)
(0.201911 0.00383951 0)
(0.201459 0.00374137 0)
(0.200989 0.00364725 0)
(0.200501 0.00355678 0)
(0.199997 0.00346967 0)
(0.199476 0.00338565 0)
(0.19894 0.00330449 0)
(0.198388 0.003226 0)
(0.197822 0.00315002 0)
(0.197241 0.00307639 0)
(0.196647 0.00300497 0)
(0.196039 0.00293566 0)
(0.19542 0.00286834 0)
(0.194788 0.00280291 0)
(0.194145 0.00273931 0)
(0.193491 0.00267744 0)
(0.192826 0.00261723 0)
(0.192152 0.00255863 0)
(0.191469 0.00250158 0)
(0.190777 0.00244601 0)
(0.190077 0.00239189 0)
(0.189369 0.00233916 0)
(0.188654 0.00228779 0)
(0.187932 0.00223772 0)
(0.187204 0.00218893 0)
(0.18647 0.00214138 0)
(0.185731 0.00209503 0)
(0.184986 0.00204985 0)
(0.184237 0.00200582 0)
(0.183484 0.00196289 0)
(0.182728 0.00192103 0)
(0.181968 0.00188024 0)
(0.181204 0.00184046 0)
(0.180439 0.00180168 0)
(0.179671 0.00176388 0)
(0.1789 0.00172702 0)
(0.178129 0.00169109 0)
(0.177356 0.00165606 0)
(0.176581 0.0016219 0)
(0.175806 0.0015886 0)
(0.175031 0.00155614 0)
(0.174255 0.00152449 0)
(0.173479 0.00149363 0)
(0.172703 0.00146355 0)
(0.171927 0.00143423 0)
(0.171153 0.00140564 0)
(0.170379 0.00137778 0)
(0.169606 0.00135063 0)
(0.168834 0.00132416 0)
(0.168063 0.00129838 0)
(0.167294 0.00127326 0)
(0.166526 0.00124879 0)
(0.16576 0.00122496 0)
(0.164996 0.00120176 0)
(0.164234 0.00117919 0)
(0.163474 0.00115723 0)
(0.162716 0.00113589 0)
(0.161961 0.00111515 0)
(0.161207 0.00109502 0)
(0.160456 0.0010755 0)
(0.159707 0.00105661 0)
(0.15896 0.00103834 0)
(0.158216 0.00102075 0)
(0.157474 0.00100387 0)
(0.156734 0.000987818 0)
(0.155996 0.000972816 0)
(0.15526 0.000959363 0)
(0.154526 0.000948666 0)
(0.153796 0.000943763 0)
(0.153083 0.000951024 0)
(0.152239 0.000964592 0)
(0.199003 0.0063794 0)
(0.199617 0.007102 0)
(0.20033 0.00765601 0)
(0.201087 0.0080401 0)
(0.201847 0.00827392 0)
(0.202582 0.00837764 0)
(0.203272 0.00836874 0)
(0.203901 0.00826525 0)
(0.204459 0.00808671 0)
(0.204938 0.00785281 0)
(0.205337 0.00758192 0)
(0.205659 0.00729032 0)
(0.205908 0.00699165 0)
(0.206091 0.00669661 0)
(0.206217 0.00641291 0)
(0.206293 0.00614551 0)
(0.206327 0.00589706 0)
(0.206327 0.00566841 0)
(0.206297 0.00545912 0)
(0.206243 0.00526795 0)
(0.206168 0.0050932 0)
(0.206074 0.00493302 0)
(0.205964 0.00478556 0)
(0.205838 0.00464912 0)
(0.205698 0.00452219 0)
(0.205545 0.00440345 0)
(0.205377 0.00429182 0)
(0.205197 0.00418635 0)
(0.205003 0.0040863 0)
(0.204797 0.00399103 0)
(0.204577 0.00390001 0)
(0.204345 0.00381281 0)
(0.204099 0.00372905 0)
(0.203841 0.00364844 0)
(0.203571 0.0035707 0)
(0.203288 0.0034956 0)
(0.202992 0.00342294 0)
(0.202685 0.00335255 0)
(0.202365 0.00328428 0)
(0.202033 0.00321799 0)
(0.20169 0.00315355 0)
(0.201335 0.00309088 0)
(0.200968 0.00302986 0)
(0.200591 0.00297041 0)
(0.200202 0.00291247 0)
(0.199802 0.00285596 0)
(0.199392 0.00280081 0)
(0.198972 0.00274699 0)
(0.198542 0.00269442 0)
(0.198101 0.00264308 0)
(0.197651 0.00259291 0)
(0.197192 0.00254388 0)
(0.196724 0.00249595 0)
(0.196247 0.00244909 0)
(0.195761 0.00240326 0)
(0.195267 0.00235845 0)
(0.194764 0.00231462 0)
(0.194254 0.00227174 0)
(0.193737 0.0022298 0)
(0.193212 0.00218876 0)
(0.19268 0.00214861 0)
(0.192141 0.00210932 0)
(0.191595 0.00207088 0)
(0.191044 0.00203326 0)
(0.190486 0.00199644 0)
(0.189922 0.00196042 0)
(0.189353 0.00192516 0)
(0.188779 0.00189065 0)
(0.188199 0.00185689 0)
(0.187615 0.00182384 0)
(0.187026 0.0017915 0)
(0.186432 0.00175985 0)
(0.185835 0.00172888 0)
(0.185233 0.00169857 0)
(0.184627 0.00166891 0)
(0.184018 0.0016399 0)
(0.183406 0.00161151 0)
(0.18279 0.00158375 0)
(0.182172 0.0015566 0)
(0.18155 0.00153004 0)
(0.180926 0.00150409 0)
(0.180299 0.00147872 0)
(0.17967 0.00145394 0)
(0.179039 0.00142974 0)
(0.178406 0.00140612 0)
(0.177771 0.00138308 0)
(0.177134 0.00136062 0)
(0.176495 0.00133875 0)
(0.175855 0.00131747 0)
(0.175213 0.00129681 0)
(0.17457 0.00127677 0)
(0.173925 0.00125741 0)
(0.173279 0.00123878 0)
(0.172631 0.001221 0)
(0.171983 0.00120429 0)
(0.171333 0.0011891 0)
(0.170683 0.00117639 0)
(0.170035 0.00116801 0)
(0.169403 0.00116565 0)
(0.168656 0.00115314 0)
(0.199374 0.00607274 0)
(0.199906 0.00670905 0)
(0.20052 0.00721607 0)
(0.201182 0.00758476 0)
(0.201858 0.00782413 0)
(0.202522 0.00794798 0)
(0.203153 0.00797033 0)
(0.203737 0.0079061 0)
(0.204263 0.00777161 0)
(0.204724 0.00758358 0)
(0.205119 0.00735799 0)
(0.205449 0.00710923 0)
(0.205718 0.0068496 0)
(0.20593 0.00658901 0)
(0.206093 0.0063349 0)
(0.206213 0.00609235 0)
(0.206298 0.00586444 0)
(0.206353 0.0056526 0)
(0.206384 0.00545703 0)
(0.206396 0.00527711 0)
(0.20639 0.00511173 0)
(0.206371 0.0049595 0)
(0.206341 0.00481898 0)
(0.2063 0.00468876 0)
(0.206249 0.00456756 0)
(0.20619 0.00445421 0)
(0.206123 0.00434773 0)
(0.206048 0.00424728 0)
(0.205965 0.00415213 0)
(0.205874 0.00406169 0)
(0.205776 0.00397544 0)
(0.20567 0.00389295 0)
(0.205556 0.00381387 0)
(0.205434 0.00373787 0)
(0.205305 0.0036647 0)
(0.205168 0.00359412 0)
(0.205023 0.00352592 0)
(0.20487 0.00345992 0)
(0.204709 0.00339598 0)
(0.20454 0.00333395 0)
(0.204363 0.0032737 0)
(0.204178 0.00321514 0)
(0.203984 0.00315814 0)
(0.203783 0.00310264 0)
(0.203574 0.00304854 0)
(0.203356 0.00299579 0)
(0.20313 0.0029443 0)
(0.202896 0.00289403 0)
(0.202654 0.00284492 0)
(0.202404 0.00279693 0)
(0.202146 0.00275 0)
(0.20188 0.00270411 0)
(0.201605 0.0026592 0)
(0.201323 0.00261525 0)
(0.201033 0.00257223 0)
(0.200735 0.0025301 0)
(0.20043 0.00248884 0)
(0.200117 0.00244842 0)
(0.199796 0.00240882 0)
(0.199467 0.00237001 0)
(0.199132 0.00233198 0)
(0.198789 0.00229469 0)
(0.198438 0.00225814 0)
(0.198081 0.00222231 0)
(0.197717 0.00218717 0)
(0.197345 0.0021527 0)
(0.196967 0.00211891 0)
(0.196582 0.00208576 0)
(0.196191 0.00205324 0)
(0.195793 0.00202134 0)
(0.195389 0.00199006 0)
(0.194979 0.00195936 0)
(0.194563 0.00192925 0)
(0.19414 0.00189971 0)
(0.193712 0.00187074 0)
(0.193278 0.00184232 0)
(0.192839 0.00181444 0)
(0.192394 0.0017871 0)
(0.191944 0.0017603 0)
(0.191489 0.00173402 0)
(0.191028 0.00170826 0)
(0.190563 0.00168303 0)
(0.190092 0.00165831 0)
(0.189617 0.00163411 0)
(0.189137 0.00161043 0)
(0.188653 0.00158728 0)
(0.188164 0.00156465 0)
(0.187671 0.00154257 0)
(0.187173 0.00152104 0)
(0.186672 0.00150008 0)
(0.186166 0.00147973 0)
(0.185656 0.00146001 0)
(0.185142 0.001441 0)
(0.184624 0.00142282 0)
(0.184103 0.00140564 0)
(0.183578 0.00138982 0)
(0.18305 0.00137595 0)
(0.182523 0.0013646 0)
(0.182008 0.0013538 0)
(0.181393 0.00132241 0)
(0.199686 0.00579378 0)
(0.200151 0.00635577 0)
(0.200684 0.00681747 0)
(0.201264 0.00716704 0)
(0.201865 0.00740664 0)
(0.202462 0.00754479 0)
(0.203036 0.00759215 0)
(0.203572 0.00756078 0)
(0.204062 0.0074641 0)
(0.204498 0.00731621 0)
(0.204877 0.0071308 0)
(0.205201 0.00692051 0)
(0.205471 0.00669631 0)
(0.205691 0.0064673 0)
(0.205867 0.00624054 0)
(0.206006 0.00602111 0)
(0.206111 0.00581235 0)
(0.20619 0.00561613 0)
(0.206247 0.00543318 0)
(0.206285 0.00526343 0)
(0.206309 0.00510625 0)
(0.206321 0.00496071 0)
(0.206324 0.00482573 0)
(0.206318 0.00470021 0)
(0.206305 0.00458309 0)
(0.206286 0.00447339 0)
(0.206261 0.00437025 0)
(0.206232 0.00427292 0)
(0.206197 0.00418075 0)
(0.206158 0.00409318 0)
(0.206115 0.00400973 0)
(0.206067 0.00393 0)
(0.206015 0.00385365 0)
(0.205959 0.00378037 0)
(0.205899 0.0037099 0)
(0.205834 0.00364202 0)
(0.205766 0.00357652 0)
(0.205692 0.00351323 0)
(0.205615 0.00345199 0)
(0.205533 0.00339267 0)
(0.205446 0.00333514 0)
(0.205355 0.00327929 0)
(0.205259 0.00322502 0)
(0.205158 0.00317223 0)
(0.205052 0.00312085 0)
(0.204942 0.00307081 0)
(0.204826 0.00302203 0)
(0.204706 0.00297446 0)
(0.20458 0.00292803 0)
(0.204449 0.0028827 0)
(0.204312 0.00283843 0)
(0.204171 0.00279516 0)
(0.204023 0.00275285 0)
(0.203871 0.00271148 0)
(0.203712 0.002671 0)
(0.203548 0.00263138 0)
(0.203378 0.0025926 0)
(0.203203 0.00255462 0)
(0.203022 0.00251741 0)
(0.202835 0.00248096 0)
(0.202642 0.00244524 0)
(0.202443 0.00241022 0)
(0.202239 0.00237588 0)
(0.202028 0.00234221 0)
(0.201812 0.00230919 0)
(0.20159 0.00227679 0)
(0.201362 0.002245 0)
(0.201128 0.00221381 0)
(0.200888 0.00218319 0)
(0.200642 0.00215314 0)
(0.20039 0.00212363 0)
(0.200132 0.00209467 0)
(0.199868 0.00206623 0)
(0.199599 0.0020383 0)
(0.199324 0.00201088 0)
(0.199043 0.00198396 0)
(0.198756 0.00195752 0)
(0.198463 0.00193156 0)
(0.198165 0.00190608 0)
(0.197861 0.00188107 0)
(0.197552 0.00185653 0)
(0.197236 0.00183246 0)
(0.196916 0.00180885 0)
(0.196589 0.0017857 0)
(0.196258 0.00176303 0)
(0.19592 0.00174083 0)
(0.195578 0.00171912 0)
(0.19523 0.00169791 0)
(0.194876 0.00167721 0)
(0.194518 0.00165704 0)
(0.194154 0.00163743 0)
(0.193784 0.00161844 0)
(0.193409 0.00160011 0)
(0.19303 0.00158255 0)
(0.192645 0.0015659 0)
(0.192255 0.00155037 0)
(0.191862 0.00153614 0)
(0.191468 0.00152273 0)
(0.191081 0.00150593 0)
(0.190608 0.0014644 0)
(0.199945 0.00553711 0)
(0.200356 0.00603562 0)
(0.200822 0.00645524 0)
(0.201332 0.00678391 0)
(0.201865 0.0070198 0)
(0.2024 0.00716746 0)
(0.20292 0.00723454 0)
(0.203411 0.00723055 0)
(0.203864 0.00716639 0)
(0.204273 0.00705375 0)
(0.204634 0.00690426 0)
(0.204946 0.00672886 0)
(0.205211 0.00653728 0)
(0.205433 0.00633776 0)
(0.205614 0.00613689 0)
(0.205761 0.00593966 0)
(0.205877 0.00574952 0)
(0.205967 0.00556865 0)
(0.206037 0.00539819 0)
(0.206089 0.00523851 0)
(0.206127 0.00508943 0)
(0.206154 0.00495039 0)
(0.206171 0.00482067 0)
(0.20618 0.00469945 0)
(0.206183 0.00458589 0)
(0.20618 0.0044792 0)
(0.206173 0.00437865 0)
(0.206163 0.0042836 0)
(0.206148 0.00419346 0)
(0.206131 0.00410776 0)
(0.20611 0.00402604 0)
(0.206087 0.00394795 0)
(0.206061 0.00387315 0)
(0.206033 0.00380138 0)
(0.206003 0.00373237 0)
(0.20597 0.00366593 0)
(0.205936 0.00360186 0)
(0.205899 0.00353999 0)
(0.205859 0.00348017 0)
(0.205818 0.00342228 0)
(0.205774 0.00336619 0)
(0.205729 0.00331179 0)
(0.20568 0.00325899 0)
(0.20563 0.0032077 0)
(0.205577 0.00315784 0)
(0.205521 0.00310933 0)
(0.205463 0.00306211 0)
(0.205403 0.00301612 0)
(0.20534 0.00297131 0)
(0.205273 0.00292761 0)
(0.205204 0.00288499 0)
(0.205132 0.00284339 0)
(0.205057 0.00280278 0)
(0.204979 0.00276312 0)
(0.204898 0.00272437 0)
(0.204813 0.0026865 0)
(0.204725 0.00264947 0)
(0.204634 0.00261326 0)
(0.204539 0.00257783 0)
(0.20444 0.00254316 0)
(0.204337 0.00250923 0)
(0.204231 0.002476 0)
(0.204121 0.00244346 0)
(0.204007 0.00241158 0)
(0.203889 0.00238035 0)
(0.203767 0.00234974 0)
(0.203641 0.00231973 0)
(0.20351 0.0022903 0)
(0.203375 0.00226145 0)
(0.203236 0.00223314 0)
(0.203092 0.00220538 0)
(0.202944 0.00217813 0)
(0.202792 0.0021514 0)
(0.202635 0.00212516 0)
(0.202473 0.00209941 0)
(0.202307 0.00207413 0)
(0.202136 0.00204932 0)
(0.20196 0.00202497 0)
(0.201779 0.00200108 0)
(0.201594 0.00197763 0)
(0.201404 0.00195462 0)
(0.201209 0.00193206 0)
(0.201009 0.00190994 0)
(0.200804 0.00188826 0)
(0.200594 0.00186703 0)
(0.200379 0.00184625 0)
(0.200159 0.00182593 0)
(0.199934 0.00180609 0)
(0.199704 0.00178674 0)
(0.199469 0.0017679 0)
(0.199228 0.00174961 0)
(0.198982 0.00173189 0)
(0.198731 0.00171482 0)
(0.198475 0.00169845 0)
(0.198214 0.00168289 0)
(0.197948 0.00166819 0)
(0.197679 0.0016542 0)
(0.197408 0.00163972 0)
(0.197139 0.00161977 0)
(0.196799 0.00157609 0)
(0.200159 0.00529891 0)
(0.200525 0.00574336 0)
(0.200934 0.0061248 0)
(0.201383 0.00643222 0)
(0.201856 0.00666172 0)
(0.202336 0.00681504 0)
(0.202805 0.00689738 0)
(0.203253 0.006916 0)
(0.203671 0.00687961 0)
(0.204052 0.00679778 0)
(0.204393 0.00668028 0)
(0.204692 0.00653647 0)
(0.20495 0.00637489 0)
(0.205169 0.00620293 0)
(0.205352 0.00602666 0)
(0.205502 0.00585084 0)
(0.205625 0.00567897 0)
(0.205723 0.00551342 0)
(0.205801 0.00535562 0)
(0.205861 0.0052063 0)
(0.205908 0.00506562 0)
(0.205943 0.00493338 0)
(0.205968 0.00480917 0)
(0.205986 0.00469241 0)
(0.205997 0.00458249 0)
(0.206003 0.00447881 0)
(0.206004 0.00438075 0)
(0.206002 0.0042878 0)
(0.205996 0.00419945 0)
(0.205988 0.00411528 0)
(0.205977 0.00403491 0)
(0.205964 0.003958 0)
(0.205949 0.00388426 0)
(0.205932 0.00381344 0)
(0.205914 0.00374531 0)
(0.205895 0.00367967 0)
(0.205874 0.00361636 0)
(0.205852 0.0035552 0)
(0.205829 0.00349608 0)
(0.205805 0.00343886 0)
(0.20578 0.00338343 0)
(0.205754 0.00332969 0)
(0.205727 0.00327755 0)
(0.205699 0.00322692 0)
(0.205669 0.00317773 0)
(0.205639 0.00312992 0)
(0.205608 0.00308341 0)
(0.205575 0.00303815 0)
(0.205542 0.00299409 0)
(0.205507 0.00295117 0)
(0.205471 0.00290935 0)
(0.205433 0.00286858 0)
(0.205395 0.00282883 0)
(0.205355 0.00279006 0)
(0.205313 0.00275222 0)
(0.20527 0.00271529 0)
(0.205225 0.00267923 0)
(0.205178 0.00264402 0)
(0.20513 0.00260962 0)
(0.20508 0.002576 0)
(0.205028 0.00254315 0)
(0.204974 0.00251103 0)
(0.204917 0.00247961 0)
(0.204859 0.00244889 0)
(0.204798 0.00241883 0)
(0.204735 0.00238941 0)
(0.20467 0.00236062 0)
(0.204602 0.00233243 0)
(0.204531 0.00230482 0)
(0.204458 0.00227779 0)
(0.204382 0.0022513 0)
(0.204304 0.00222536 0)
(0.204222 0.00219993 0)
(0.204138 0.00217501 0)
(0.20405 0.00215059 0)
(0.203959 0.00212666 0)
(0.203865 0.0021032 0)
(0.203768 0.00208021 0)
(0.203668 0.00205767 0)
(0.203564 0.00203559 0)
(0.203457 0.00201396 0)
(0.203346 0.00199277 0)
(0.203231 0.00197203 0)
(0.203113 0.00195174 0)
(0.202991 0.00193189 0)
(0.202865 0.0019125 0)
(0.202735 0.00189357 0)
(0.202601 0.00187512 0)
(0.202464 0.00185716 0)
(0.202322 0.00183971 0)
(0.202175 0.00182281 0)
(0.202025 0.00180648 0)
(0.20187 0.00179077 0)
(0.201711 0.00177572 0)
(0.201548 0.00176139 0)
(0.201381 0.0017477 0)
(0.20121 0.00173426 0)
(0.201037 0.00171957 0)
(0.200864 0.00169893 0)
(0.200634 0.00165891 0)
(0.200331 0.00507644 0)