/*--------------------------------*- C++ -*----------------------------------*\
| =========                 |                                                 |
| \\      /  F ield         | OpenFOAM: The Open Source CFD Toolbox           |
|  \\    /   O peration     | Version:  2.3.0                                 |
|   \\  /    A nd           | Web:      www.OpenFOAM.org                      |
|    \\/     M anipulation  |                                                 |
\*---------------------------------------------------------------------------*/
FoamFile
{
    version     2.0;
    format      ascii;
    class       volScalarField;
    location    "0.45";
    object      p;
}
// * * * * * * * * * * * * * * * * * * * * * * * * * * * * * * * * * * * * * //

dimensions      [0 2 -2 0 0 0 0];

internalField   nonuniform List<scalar> 
868
(
0.00125305
0.00118693
0.000985313
0.000786958
0.000629453
0.000502752
0.000386442
0.000265842
0.000136128
-1.01209e-06
-0.000140394
-0.000273228
-0.000389475
-0.000478513
-0.000531672
-0.000548884
-0.000535857
-0.000500904
-0.000454581
-0.000404459
-0.000355055
-0.0003114
-0.000276632
-0.000249143
-0.000225501
-0.000206347
-0.000193766
-0.000185253
-0.00017772
-0.000170427
-0.00016305
-0.000156932
-0.000153497
-0.000150024
-0.000144213
-0.000137345
-0.000130922
-0.000124916
-0.000118662
-0.0001117
-0.000103919
-9.54053e-05
-8.61644e-05
-7.63151e-05
-6.57919e-05
-5.45782e-05
-4.31632e-05
-3.16679e-05
-1.95538e-05
-6.68944e-06
0.00102547
0.00101195
0.000908361
0.000759036
0.000612161
0.000483459
0.000367265
0.000251174
0.000128665
-5.32401e-07
-0.000132507
-0.000258246
-0.000368864
-0.000454974
-0.00050783
-0.000527018
-0.000517107
-0.000485188
-0.000441797
-0.000394461
-0.000347091
-0.000304949
-0.000271622
-0.000245356
-0.000222293
-0.000203423
-0.00019135
-0.000183278
-0.000176005
-0.000168902
-0.000161552
-0.000155511
-0.000152349
-0.000149171
-0.000143419
-0.000136586
-0.000130281
-0.00012443
-0.00011832
-0.000111466
-0.000103767
-9.53163e-05
-8.61373e-05
-7.63435e-05
-6.58451e-05
-5.46992e-05
-4.32731e-05
-3.17932e-05
-1.96895e-05
-6.80416e-06
0.000892485
0.000896201
0.000841291
0.000732253
0.000599932
0.000470578
0.000351716
0.000237676
0.000122335
3.87351e-06
-0.000115565
-0.000229292
-0.000330023
-0.000410059
-0.000462182
-0.000485578
-0.00048273
-0.000458535
-0.000422002
-0.000380141
-0.000337324
-0.000298598
-0.000267513
-0.000242512
-0.00021996
-0.000201117
-0.000189016
-0.000180958
-0.000173608
-0.000166395
-0.000159033
-0.000153035
-0.000149899
-0.000146714
-0.000141106
-0.000134542
-0.000128442
-0.000122708
-0.000116717
-0.000110006
-0.000102491
-9.42459e-05
-8.52706e-05
-7.56487e-05
-6.53249e-05
-5.43198e-05
-4.30437e-05
-3.16713e-05
-1.97044e-05
-6.92062e-06
0.000791738
0.000797048
0.000764619
0.000685587
0.000573431
0.000451649
0.000334585
0.000223587
0.000115483
8.03239e-06
-9.82058e-05
-0.00019902
-0.000289046
-0.000361987
-0.00041201
-0.000437878
-0.000440844
-0.000424354
-0.000395241
-0.000359638
-0.000322099
-0.000287361
-0.000258473
-0.000234729
-0.000213498
-0.000195563
-0.000183605
-0.000175725
-0.000168601
-0.000161219
-0.000154016
-0.000148594
-0.000145517
-0.000141976
-0.000136439
-0.000130333
-0.000124615
-0.00011914
-0.000113375
-0.000106862
-9.95544e-05
-9.15773e-05
-8.29426e-05
-7.36553e-05
-6.37147e-05
-5.30938e-05
-4.21438e-05
-3.10192e-05
-1.92806e-05
-6.87189e-06
0.000702226
0.000705722
0.000683508
0.000624832
0.000534075
0.000426694
0.000316955
0.000211154
0.000110175
1.2802e-05
-8.11079e-05
-0.000169571
-0.000249385
-0.000315424
-0.000362495
-0.000389485
-0.000397241
-0.00038763
-0.000365592
-0.000336287
-0.00030377
-0.000272886
-0.000246723
-0.000224618
-0.000204857
-0.000188016
-0.000176193
-0.000168576
-0.00016183
-0.00015422
-0.000147284
-0.000142587
-0.000139213
-0.000134976
-0.000129662
-0.000124264
-0.000118935
-0.000113608
-0.000108009
-0.000101745
-9.47527e-05
-8.71812e-05
-7.90395e-05
-7.02111e-05
-6.07795e-05
-5.07574e-05
-4.03295e-05
-2.96247e-05
-1.8304e-05
-6.48744e-06
0.000619842
0.000621083
0.000604487
0.000560268
0.000488237
0.000397372
0.000298897
0.000200781
0.000107062
1.8779e-05
-6.43843e-05
-0.000142053
-0.000212331
-0.000271508
-0.000315352
-0.000342598
-0.000353918
-0.000350064
-0.000334494
-0.000311394
-0.000283583
-0.000256252
-0.000233352
-0.000213404
-0.000194754
-0.000178601
-0.000167227
-0.000160469
-0.000154173
-0.000145961
-0.000139148
-0.000135312
-0.000131697
-0.000126897
-0.000121953
-0.000117122
-0.000111948
-0.000106769
-0.000101479
-9.55606e-05
-8.89425e-05
-8.18448e-05
-7.4219e-05
-6.58439e-05
-5.69573e-05
-4.76852e-05
-3.79261e-05
-2.77233e-05
-1.6969e-05
-5.91772e-06
0.000543563
0.000543033
0.00052978
0.000496097
0.000439409
0.000364266
0.000278946
0.000190771
0.000105045
2.51328e-05
-4.87262e-05
-0.000117205
-0.000178798
-0.000231183
-0.000271672
-0.000298302
-0.000311635
-0.000312428
-0.000302502
-0.000284931
-0.000261863
-0.00023821
-0.000218394
-0.000200679
-0.000183213
-0.000167654
-0.000156999
-0.000151478
-0.000145481
-0.000136341
-0.000129804
-0.000127294
-0.000123572
-0.000118014
-0.000113368
-0.000109177
-0.000104196
-9.92203e-05
-9.43441e-05
-8.87848e-05
-8.25038e-05
-7.59093e-05
-6.8869e-05
-6.10014e-05
-5.26982e-05
-4.42437e-05
-3.52231e-05
-2.55638e-05
-1.55056e-05
-5.34582e-06
0.00047245
0.000471031
0.000460112
0.000433856
0.000389429
0.000328252
0.000256241
0.00017922
0.00010247
3.07136e-05
-3.48205e-05
-9.50558e-05
-0.000148918
-0.000195006
-0.000231701
-0.000256892
-0.000271
-0.000274985
-0.000269727
-0.000257042
-0.000238551
-0.000218709
-0.000201605
-0.00018597
-0.000170349
-0.000155719
-0.000145378
-0.000140824
-0.000135439
-0.000125843
-0.000119661
-0.000118338
-0.000114594
-0.000108408
-0.000104085
-0.00010061
-9.58784e-05
-9.1025e-05
-8.65828e-05
-8.1533e-05
-7.56524e-05
-6.95409e-05
-6.3119e-05
-5.58298e-05
-4.81359e-05
-4.05146e-05
-3.23014e-05
-2.32752e-05
-1.4007e-05
-4.80306e-06
0.000405617
0.000403837
0.00039532
0.00037429
0.000339372
0.000290431
0.000230524
0.000165033
9.82614e-05
3.46476e-05
-2.28856e-05
-7.5242e-05
-0.000122535
-0.000162941
-0.000194945
-0.000218005
-0.000232413
-0.00023815
-0.000236319
-0.000227882
-0.000213273
-0.000197348
-0.00018355
-0.000169747
-0.000155438
-0.000141909
-0.00013241
-0.000129026
-0.000124214
-0.000114282
-0.000108489
-0.000108187
-0.000104642
-9.82652e-05
-9.42629e-05
-9.12967e-05
-8.68762e-05
-8.22533e-05
-7.82551e-05
-7.37852e-05
-6.83839e-05
-6.27424e-05
-5.69432e-05
-5.03427e-05
-4.33476e-05
-3.65526e-05
-2.91666e-05
-2.08517e-05
-1.24519e-05
-4.26937e-06
0.000342777
0.000340428
0.000334311
0.000317703
0.000290074
0.000251443
0.000202295
0.000147971
9.17231e-05
3.65543e-05
-1.30094e-05
-5.7871e-05
-9.92654e-05
-0.000134233
-0.000161195
-0.000181522
-0.000195598
-0.00020234
-0.000202996
-0.000197696
-0.000185974
-0.000173876
-0.000164196
-0.00015225
-0.000138188
-0.000125774
-0.000118499
-0.000116581
-0.00011138
-0.000101008
-9.63587e-05
-9.72409e-05
-9.36798e-05
-8.72679e-05
-8.37929e-05
-8.12576e-05
-7.71229e-05
-7.28579e-05
-6.93419e-05
-6.54843e-05
-6.0702e-05
-5.55717e-05
-5.02862e-05
-4.44008e-05
-3.83002e-05
-3.24298e-05
-2.58532e-05
-1.82867e-05
-1.08358e-05
-3.72675e-06
0.000278454
0.000275894
0.000271627
0.000259573
0.000238405
0.000208667
0.000170275
0.000126826
8.14655e-05
3.64144e-05
-4.84864e-06
-4.22126e-05
-7.65222e-05
-0.000105705
-0.000128219
-0.000145377
-0.000157825
-0.000164726
-0.000167248
-0.000164436
-0.000155331
-0.000146625
-0.000140857
-0.000131761
-0.000118396
-0.000106469
-0.000101704
-0.000101826
-9.58549e-05
-8.50908e-05
-8.23781e-05
-8.46289e-05
-8.06893e-05
-7.42183e-05
-7.16023e-05
-6.97047e-05
-6.58387e-05
-6.19726e-05
-5.90377e-05
-5.58444e-05
-5.18447e-05
-4.74846e-05
-4.27688e-05
-3.75317e-05
-3.2434e-05
-2.76913e-05
-2.20707e-05
-1.54054e-05
-9.06784e-06
-3.14677e-06
0.000208085
0.000206227
0.000203272
0.000195304
0.000180825
0.000159359
0.000131833
9.97875e-05
6.59626e-05
3.28658e-05
1.00671e-06
-2.77898e-05
-5.31043e-05
-7.61413e-05
-9.43204e-05
-0.000107125
-0.00011668
-0.000123071
-0.000126877
-0.000125771
-0.000118861
-0.00011326
-0.000111044
-0.000105841
-9.42736e-05
-8.17044e-05
-7.89658e-05
-8.29746e-05
-7.72804e-05
-6.54607e-05
-6.41964e-05
-6.80176e-05
-6.41582e-05
-5.79483e-05
-5.63834e-05
-5.53915e-05
-5.19234e-05
-4.84684e-05
-4.62691e-05
-4.38639e-05
-4.06646e-05
-3.7345e-05
-3.36176e-05
-2.92231e-05
-2.52345e-05
-2.1824e-05
-1.74217e-05
-1.18991e-05
-6.91344e-06
-2.46938e-06
0.0001312
0.000129919
0.000128737
0.000124153
0.000115488
0.000102479
8.56817e-05
6.5603e-05
4.44198e-05
2.42108e-05
3.54933e-06
-1.50465e-05
-3.08002e-05
-4.68477e-05
-5.88812e-05
-6.56981e-05
-7.21277e-05
-7.78346e-05
-8.14717e-05
-8.09106e-05
-7.6288e-05
-7.3455e-05
-7.28063e-05
-7.04396e-05
-6.35239e-05
-5.33749e-05
-5.11119e-05
-5.65752e-05
-5.25403e-05
-4.17372e-05
-4.1402e-05
-4.61304e-05
-4.3298e-05
-3.80444e-05
-3.71202e-05
-3.69289e-05
-3.44332e-05
-3.17473e-05
-3.03533e-05
-2.89513e-05
-2.67666e-05
-2.45775e-05
-2.21334e-05
-1.90446e-05
-1.64139e-05
-1.44738e-05
-1.16422e-05
-7.71458e-06
-4.33194e-06
-1.55455e-06
4.54384e-05
4.49383e-05
4.47615e-05
4.31108e-05
4.02973e-05
3.61063e-05
3.01832e-05
2.33108e-05
1.60926e-05
8.94824e-06
1.89045e-06
-4.35817e-06
-1.01455e-05
-1.58671e-05
-1.9443e-05
-2.23575e-05
-2.60192e-05
-2.72427e-05
-2.69828e-05
-2.75019e-05
-2.73631e-05
-2.65901e-05
-2.58872e-05
-2.5216e-05
-2.31414e-05
-1.87397e-05
-1.73357e-05
-2.03135e-05
-1.94706e-05
-1.49445e-05
-1.47199e-05
-1.68258e-05
-1.56247e-05
-1.33572e-05
-1.3054e-05
-1.31961e-05
-1.23841e-05
-1.1376e-05
-1.08395e-05
-1.03114e-05
-9.4857e-06
-8.73709e-06
-7.92743e-06
-6.75805e-06
-5.72529e-06
-5.08285e-06
-4.14178e-06
-2.7375e-06
-1.52909e-06
-5.32662e-07
0.000167664
0.000200276
0.000225547
0.00026172
0.000303327
0.000358414
0.000423275
0.000509244
0.000613033
0.000746564
0.000905056
0.00108974
0.000170493
0.000195495
0.000223752
0.000258034
0.0003022
0.000354448
0.000420852
0.000501917
0.000602833
0.000718284
0.0008469
0.000960325
0.000171541
0.000191753
0.000220375
0.000254917
0.000299379
0.000350653
0.000414923
0.000491246
0.000582538
0.000679728
0.000777099
0.000852138
0.000171723
0.000188008
0.000215586
0.000250461
0.000294349
0.000344647
0.000405019
0.000475392
0.000554435
0.000634931
0.000708728
0.000763516
0.000170092
0.000184146
0.000209963
0.000244318
0.000287021
0.000335566
0.000391213
0.000454043
0.000521355
0.000586923
0.000643361
0.000683204
0.000166662
0.000179567
0.000203453
0.000236326
0.000277052
0.000322846
0.000373255
0.000428117
0.000484572
0.000537201
0.000580072
0.000608071
0.000161511
0.000173622
0.000195723
0.000226348
0.000264179
0.000306228
0.000351088
0.000398192
0.00044485
0.000486396
0.00051821
0.000536984
0.000154587
0.000165913
0.00018617
0.000214077
0.000248229
0.000285771
0.000324928
0.00036474
0.000402681
0.000434883
0.000457872
0.000469531
0.000145702
0.000156112
0.000174318
0.000199121
0.00022914
0.000261738
0.000295094
0.000328107
0.000358439
0.000382859
0.000399115
0.000405679
0.000134547
0.000143865
0.000159793
0.000181195
0.000206809
0.00023432
0.000261939
0.000288609
0.000312451
0.000330592
0.000341629
0.000344909
0.000119715
0.000127683
0.000140966
0.000158517
0.000179202
0.000201261
0.000223105
0.000243545
0.000261195
0.00027409
0.000281022
0.000281662
9.84764e-05
0.000104705
0.000114776
0.000127876
0.000142976
0.000158929
0.00017467
0.000188963
0.000200534
0.000208721
0.000212795
0.000211565
6.79648e-05
7.20384e-05
7.83811e-05
8.6525e-05
9.56398e-05
0.000105107
0.000114472
0.000122903
0.000129291
0.000133246
0.0001353
0.000134243
2.51306e-05
2.65913e-05
2.87523e-05
3.14917e-05
3.44786e-05
3.75367e-05
4.05422e-05
4.32349e-05
4.51972e-05
4.62531e-05
4.69043e-05
4.66943e-05
)
;

boundaryField
{
    top
    {
        type            fixedValue;
        value           uniform 0;
    }
    inlet
    {
        type            zeroGradient;
    }
    outlet
    {
        type            fixedValue;
        value           uniform 0;
    }
    plate
    {
        type            zeroGradient;
    }
    symmBound
    {
        type            zeroGradient;
    }
    frontAndBack
    {
        type            empty;
    }
}


// ************************************************************************* //
