/*--------------------------------*- C++ -*----------------------------------*\
| =========                 |                                                 |
| \\      /  F ield         | OpenFOAM: The Open Source CFD Toolbox           |
|  \\    /   O peration     | Version:  2.3.0                                 |
|   \\  /    A nd           | Web:      www.OpenFOAM.org                      |
|    \\/     M anipulation  |                                                 |
\*---------------------------------------------------------------------------*/
FoamFile
{
    version     2.0;
    format      ascii;
    class       volScalarField;
    location    "0.25";
    object      p;
}
// * * * * * * * * * * * * * * * * * * * * * * * * * * * * * * * * * * * * * //

dimensions      [0 2 -2 0 0 0 0];

internalField   nonuniform List<scalar> 
2889
(
0.00252229
0.00198441
0.00147379
0.00109561
0.000793621
0.000528025
0.00029287
9.17872e-05
-7.34077e-05
-0.000203589
-0.000301344
-0.000370493
-0.000415716
-0.000442037
-0.000454298
-0.00045675
-0.000452852
-0.000445222
-0.00043571
-0.000425533
-0.000415426
-0.00040578
-0.000396765
-0.000388415
-0.000380692
-0.000373525
-0.000366837
-0.000360555
-0.000354619
-0.00034898
-0.000343604
-0.000338462
-0.000333536
-0.000328813
-0.00032428
-0.000319929
-0.000315752
-0.000311739
-0.00030788
-0.000304163
-0.000300574
-0.000297095
-0.000293706
-0.000290386
-0.000287106
-0.000283837
-0.000280544
-0.000277189
-0.000273727
-0.000270105
-0.000266262
-0.000262124
-0.0002576
-0.00025258
-0.000246934
-0.000240515
-0.000233172
-0.000224763
-0.000215177
-0.000204396
-0.000192476
-0.000179696
-0.00016634
-0.000152749
-0.000139259
-0.000126142
-0.000113613
-0.000101822
-9.08609e-05
-8.07749e-05
-7.15711e-05
-6.32275e-05
-5.57041e-05
-4.89508e-05
-4.29114e-05
-3.75277e-05
-3.27425e-05
-2.85018e-05
-2.4755e-05
-2.14557e-05
-1.85619e-05
-1.6035e-05
-1.38394e-05
-1.19406e-05
-1.03069e-05
-8.90867e-06
-7.71668e-06
-6.70391e-06
-5.84542e-06
-5.11931e-06
-4.50774e-06
-3.9964e-06
-3.57266e-06
-3.22446e-06
-2.93739e-06
-2.68986e-06
-2.44727e-06
-2.15382e-06
-1.72258e-06
-1.10958e-06
0.0022382
0.00184878
0.00143805
0.00110024
0.000814882
0.000557415
0.000325981
0.000125918
-3.98662e-05
-0.000171608
-0.000271526
-0.000343183
-0.000391061
-0.000420033
-0.000434829
-0.00043963
-0.000437851
-0.000432094
-0.000424211
-0.000415433
-0.000406515
-0.000397876
-0.000389711
-0.000382082
-0.00037497
-0.000368327
-0.000362091
-0.000356202
-0.000350611
-0.000345278
-0.000340173
-0.000335276
-0.000330572
-0.00032605
-0.000321702
-0.000317522
-0.000313503
-0.000309636
-0.000305914
-0.000302326
-0.000298857
-0.000295493
-0.000292214
-0.000288997
-0.000285817
-0.000282644
-0.000279444
-0.000276178
-0.000272803
-0.000269267
-0.000265509
-0.000261455
-0.000257017
-0.000252086
-0.000246533
-0.00024021
-0.000232963
-0.000224643
-0.000215142
-0.000204423
-0.000192592
-0.000179867
-0.000166519
-0.000152919
-0.000139418
-0.000126291
-0.000113751
-0.000101947
-9.09745e-05
-8.08764e-05
-7.16612e-05
-6.33069e-05
-5.57737e-05
-4.90115e-05
-4.2964e-05
-3.75729e-05
-3.27811e-05
-2.85345e-05
-2.47824e-05
-2.14784e-05
-1.85803e-05
-1.60497e-05
-1.38509e-05
-1.19495e-05
-1.03134e-05
-8.91341e-06
-7.71995e-06
-6.70603e-06
-5.8466e-06
-5.11968e-06
-4.50736e-06
-3.99551e-06
-3.57131e-06
-3.22236e-06
-2.93343e-06
-2.68513e-06
-2.44216e-06
-2.1482e-06
-1.71144e-06
-1.14374e-06
0.00202728
0.00172961
0.00138937
0.00108434
0.000816694
0.000573416
0.000353301
0.000160895
-8.29484e-07
-0.000131608
-0.000233012
-0.000307878
-0.00035996
-0.000393495
-0.000412727
-0.000421521
-0.000423133
-0.000420124
-0.000414389
-0.000407246
-0.000399553
-0.000391826
-0.000384346
-0.000377239
-0.00037054
-0.000364233
-0.00035828
-0.000352639
-0.00034727
-0.000342139
-0.000337222
-0.0003325
-0.000327959
-0.000323589
-0.000319385
-0.000315339
-0.000311447
-0.0003077
-0.000304092
-0.00030061
-0.000297244
-0.000293978
-0.000290792
-0.000287665
-0.000284572
-0.000281483
-0.000278365
-0.000275179
-0.000271883
-0.000268425
-0.000264746
-0.000260772
-0.000256414
-0.000251565
-0.000246094
-0.000239855
-0.000232688
-0.000224444
-0.000215003
-0.000204295
-0.0001924
-0.000179679
-0.000166432
-0.000152898
-0.000139428
-0.000126312
-0.000113776
-0.000101976
-9.10057e-05
-8.09086e-05
-7.16931e-05
-6.33374e-05
-5.58019e-05
-4.90369e-05
-4.29865e-05
-3.75924e-05
-3.27976e-05
-2.8548e-05
-2.4793e-05
-2.14864e-05
-1.85859e-05
-1.60532e-05
-1.38527e-05
-1.19498e-05
-1.03125e-05
-8.91172e-06
-7.71763e-06
-6.70332e-06
-5.84362e-06
-5.11664e-06
-4.50436e-06
-3.99286e-06
-3.56843e-06
-3.21894e-06
-2.93228e-06
-2.68854e-06
-2.45263e-06
-2.17011e-06
-1.75864e-06
-1.28796e-06
0.00184534
0.00160829
0.00132461
0.00105455
0.000809758
0.000585188
0.000380363
0.000199024
4.41528e-05
-8.34688e-05
-0.00018475
-0.000261794
-0.000317594
-0.000355686
-0.000379738
-0.000393199
-0.000399066
-0.000399772
-0.000397181
-0.000392638
-0.000387065
-0.000381053
-0.000374955
-0.000368966
-0.000363177
-0.000357616
-0.000352285
-0.000347166
-0.000342243
-0.000337496
-0.000332914
-0.000328486
-0.000324206
-0.000320071
-0.000316077
-0.000312223
-0.000308505
-0.000304918
-0.000301457
-0.000298113
-0.000294875
-0.000291728
-0.000288656
-0.000285637
-0.000282647
-0.000279657
-0.000276635
-0.000273543
-0.000270339
-0.000266971
-0.000263381
-0.000259495
-0.000255225
-0.000250461
-0.000245074
-0.000238915
-0.000231824
-0.000223648
-0.000214272
-0.000203651
-0.000191871
-0.000179116
-0.000165825
-0.000152427
-0.000139121
-0.000126127
-0.000113671
-0.000101923
-9.09896e-05
-8.09191e-05
-7.17228e-05
-6.33792e-05
-5.58505e-05
-4.90884e-05
-4.3038e-05
-3.76419e-05
-3.28437e-05
-2.85899e-05
-2.48304e-05
-2.1519e-05
-1.86137e-05
-1.60766e-05
-1.38721e-05
-1.19653e-05
-1.03246e-05
-8.92089e-06
-7.7241e-06
-6.70785e-06
-5.8464e-06
-5.1179e-06
-4.50502e-06
-3.99023e-06
-3.56518e-06
-3.2194e-06
-2.94007e-06
-2.70711e-06
-2.48767e-06
-2.23345e-06
-1.88335e-06
-1.56434e-06
0.00168137
0.00148964
0.00125456
0.00101953
0.000798885
0.000593377
0.0004041
0.000234489
8.74988e-05
-3.57155e-05
-0.000135559
-0.000213558
-0.000272071
-0.000313997
-0.00034244
-0.000360397
-0.000370551
-0.000375141
-0.00037594
-0.000374277
-0.000371104
-0.000367068
-0.000362589
-0.000357927
-0.00035323
-0.000348578
-0.00034401
-0.000339542
-0.000335179
-0.000330922
-0.00032677
-0.000322724
-0.000318785
-0.000314957
-0.000311239
-0.000307635
-0.000304144
-0.000300764
-0.000297492
-0.000294321
-0.000291242
-0.000288243
-0.000285307
-0.000282416
-0.000279545
-0.000276668
-0.000273753
-0.000270764
-0.000267658
-0.000264385
-0.000260886
-0.000257089
-0.000252904
-0.000248222
-0.000242916
-0.000236836
-0.000229829
-0.000221745
-0.000212479
-0.000201997
-0.000190394
-0.000177882
-0.000164795
-0.000151463
-0.000138265
-0.000125484
-0.000113236
-0.000101652
-9.08369e-05
-8.08502e-05
-7.17145e-05
-6.34127e-05
-5.59125e-05
-4.91686e-05
-4.31284e-05
-3.77363e-05
-3.29379e-05
-2.86809e-05
-2.49161e-05
-2.1598e-05
-1.86854e-05
-1.61406e-05
-1.39284e-05
-1.20139e-05
-1.03659e-05
-8.95558e-06
-7.75175e-06
-6.72953e-06
-5.8638e-06
-5.12748e-06
-4.50653e-06
-3.99058e-06
-3.5695e-06
-3.23178e-06
-2.9644e-06
-2.74874e-06
-2.55671e-06
-2.3513e-06
-2.10107e-06
-1.99212e-06
0.00153794
0.00137999
0.00118439
0.000980821
0.000783243
0.000596087
0.000422007
0.000264323
0.000125852
7.9579e-06
-8.93783e-05
-0.000167214
-0.000227371
-0.000272188
-0.000304247
-0.000326112
-0.000340139
-0.000348352
-0.000352401
-0.00035357
-0.000352812
-0.000350808
-0.000348026
-0.000344779
-0.000341264
-0.000337607
-0.000333883
-0.000330138
-0.0003264
-0.000322688
-0.000319016
-0.000315395
-0.000311836
-0.000308346
-0.000304933
-0.000301603
-0.000298359
-0.000295202
-0.000292133
-0.000289146
-0.000286234
-0.000283387
-0.000280591
-0.000277827
-0.000275074
-0.000272307
-0.000269494
-0.000266599
-0.000263582
-0.000260394
-0.000256974
-0.000253251
-0.000249137
-0.000244526
-0.000239292
-0.000233295
-0.000226387
-0.000218433
-0.00020934
-0.000199088
-0.000187771
-0.000175596
-0.000162865
-0.000149906
-0.000137007
-0.000124407
-0.000112358
-0.00010101
-9.04038e-05
-8.05839e-05
-7.15738e-05
-6.33616e-05
-5.59256e-05
-4.92271e-05
-4.32174e-05
-3.78444e-05
-3.30565e-05
-2.88038e-05
-2.50384e-05
-2.17164e-05
-1.87973e-05
-1.62448e-05
-1.40236e-05
-1.20983e-05
-1.0439e-05
-9.01944e-06
-7.80643e-06
-6.76776e-06
-5.88409e-06
-5.13928e-06
-4.51696e-06
-4.00413e-06
-3.58938e-06
-3.26178e-06
-3.00946e-06
-2.81668e-06
-2.66247e-06
-2.52549e-06
-2.40952e-06
-2.57017e-06
0.00141225
0.00127912
0.00111479
0.000938723
0.000762881
0.000593459
0.000434216
0.000288439
0.00015879
4.67662e-05
-4.73339e-05
-0.00012416
-0.000185072
-0.000231921
-0.000266825
-0.00029195
-0.00030934
-0.000320798
-0.00032784
-0.000331676
-0.000333241
-0.000333228
-0.000332136
-0.000330315
-0.000328005
-0.000325368
-0.000322512
-0.000319512
-0.000316418
-0.000313267
-0.000310087
-0.000306901
-0.000303726
-0.000300579
-0.000297472
-0.000294415
-0.000291416
-0.000288479
-0.000285606
-0.000282794
-0.00028004
-0.000277334
-0.000274664
-0.000272014
-0.000269363
-0.000266686
-0.000263956
-0.000261136
-0.000258187
-0.000255059
-0.000251695
-0.000248025
-0.000243962
-0.000239405
-0.000234236
-0.000228324
-0.000221534
-0.000213749
-0.00020489
-0.000194948
-0.000184015
-0.000172281
-0.000160017
-0.00014752
-0.000135057
-0.000122874
-0.000111165
-0.000100058
-8.9663e-05
-8.00523e-05
-7.12227e-05
-6.31524e-05
-5.58247e-05
-4.92065e-05
-4.32549e-05
-3.79222e-05
-3.31614e-05
-2.89254e-05
-2.51688e-05
-2.18493e-05
-1.89282e-05
-1.63709e-05
-1.4144e-05
-1.22108e-05
-1.0537e-05
-9.09349e-06
-7.8576e-06
-6.80602e-06
-5.91589e-06
-5.16831e-06
-4.54582e-06
-4.0354e-06
-3.62652e-06
-3.30932e-06
-3.07359e-06
-2.90747e-06
-2.79889e-06
-2.74473e-06
-2.7868e-06
-3.26389e-06
0.00130099
0.0011865
0.00104702
0.000894719
0.00073898
0.000586409
0.000441381
0.000307196
0.000186391
8.0537e-05
-9.813e-06
-8.49661e-05
-0.000145888
-0.000194012
-0.00023105
-0.00025881
-0.000279042
-0.000293335
-0.00030306
-0.000309342
-0.00031308
-0.00031496
-0.000315498
-0.00031507
-0.000313948
-0.000312324
-0.000310337
-0.000308083
-0.000305634
-0.000303046
-0.000300358
-0.000297604
-0.000294812
-0.000292003
-0.000289196
-0.000286405
-0.000283642
-0.000280914
-0.000278225
-0.000275577
-0.000272966
-0.000270385
-0.000267824
-0.000265269
-0.0002627
-0.000260095
-0.000257425
-0.000254658
-0.000251753
-0.000248664
-0.000245334
-0.000241695
-0.000237666
-0.000233152
-0.000228043
-0.00022222
-0.000215567
-0.000207981
-0.0001994
-0.000189824
-0.000179339
-0.000168115
-0.000156392
-0.000144434
-0.00013249
-0.000120783
-0.000109495
-9.87638e-05
-8.86906e-05
-7.93192e-05
-7.06739e-05
-6.27672e-05
-5.55757e-05
-4.9066e-05
-4.31988e-05
-3.793e-05
-3.32162e-05
-2.90139e-05
-2.52802e-05
-2.19747e-05
-1.90599e-05
-1.64985e-05
-1.42563e-05
-1.23057e-05
-1.06189e-05
-9.16607e-06
-7.92287e-06
-6.86464e-06
-5.96824e-06
-5.21535e-06
-4.59021e-06
-4.08059e-06
-3.67655e-06
-3.36917e-06
-3.15023e-06
-3.01251e-06
-2.95358e-06
-2.98893e-06
-3.19742e-06
-4.00376e-06
0.00120164
0.00110162
0.000982014
0.000849996
0.000712438
0.00057558
0.000443992
0.000320953
0.000208885
0.000109383
2.3184e-05
-4.97426e-05
-0.000110031
-0.000158759
-0.000197283
-0.00022709
-0.000249661
-0.000266378
-0.000278463
-0.00028695
-0.000292685
-0.000296338
-0.000298425
-0.00029934
-0.000299376
-0.000298748
-0.000297618
-0.000296106
-0.000294301
-0.000292272
-0.000290075
-0.000287751
-0.000285338
-0.000282863
-0.00028035
-0.000277819
-0.000275285
-0.000272757
-0.000270244
-0.000267749
-0.00026527
-0.000262803
-0.000260339
-0.000257866
-0.000255365
-0.000252817
-0.000250193
-0.000247463
-0.000244588
-0.000241522
-0.000238213
-0.000234595
-0.000230592
-0.000226116
-0.000221068
-0.000215345
-0.000208843
-0.000201479
-0.000193203
-0.000184023
-0.000174018
-0.000163339
-0.000152194
-0.000140818
-0.000129435
-0.00011825
-0.000107434
-9.71174e-05
-8.7396e-05
-7.83235e-05
-6.99321e-05
-6.22313e-05
-5.52028e-05
-4.88198e-05
-4.305e-05
-3.78574e-05
-3.3201e-05
-2.90399e-05
-2.53352e-05
-2.20493e-05
-1.91462e-05
-1.65912e-05
-1.43527e-05
-1.24029e-05
-1.0713e-05
-9.25426e-06
-8.00255e-06
-6.93487e-06
-6.03014e-06
-5.27101e-06
-4.64263e-06
-4.13307e-06
-3.73283e-06
-3.43418e-06
-3.2313e-06
-3.12185e-06
-3.11274e-06
-3.23613e-06
-3.60211e-06
-4.70258e-06
0.00111216
0.00102374
0.000920173
0.000805329
0.000683967
0.000561572
0.000442579
0.000330168
0.000226639
0.000133571
5.18176e-05
-1.84316e-05
-7.75385e-05
-0.000126278
-0.000165701
-0.00019701
-0.00022144
-0.000240177
-0.000254297
-0.000264737
-0.000272281
-0.000277569
-0.00028111
-0.000283302
-0.000284451
-0.000284792
-0.000284503
-0.000283721
-0.000282553
-0.000281081
-0.00027937
-0.000277475
-0.000275438
-0.000273295
-0.000271074
-0.0002688
-0.000266491
-0.000264161
-0.00026182
-0.000259473
-0.000257122
-0.000254763
-0.000252391
-0.000249994
-0.000247556
-0.000245058
-0.000242475
-0.000239775
-0.000236924
-0.000233878
-0.000230586
-0.000226988
-0.000223012
-0.00021858
-0.000213604
-0.000207991
-0.000201656
-0.000194529
-0.000186574
-0.000177803
-0.000168288
-0.000158161
-0.000147605
-0.000136824
-0.00012602
-0.000115378
-0.000105057
-9.51812e-05
-8.58419e-05
-7.70977e-05
-6.89818e-05
-6.15064e-05
-5.46624e-05
-4.84299e-05
-4.27818e-05
-3.76859e-05
-3.31053e-05
-2.90031e-05
-2.53434e-05
-2.20906e-05
-1.92108e-05
-1.66713e-05
-1.44417e-05
-1.24942e-05
-1.08017e-05
-9.33782e-06
-8.07924e-06
-7.00432e-06
-6.09315e-06
-5.32888e-06
-4.69733e-06
-4.18715e-06
-3.78967e-06
-3.49854e-06
-3.31048e-06
-3.22776e-06
-3.26531e-06
-3.46826e-06
-3.9676e-06
-5.28465e-06
0.00103092
0.000952051
0.00086159
0.000761268
0.000654193
0.000544966
0.000437673
0.00033531
0.00024004
0.000153389
7.62816e-05
9.06852e-06
-4.8392e-05
-9.66227e-05
-0.000136414
-0.000168718
-0.00019455
-0.000214913
-0.000230742
-0.000242873
-0.000252024
-0.000258796
-0.000263679
-0.000267069
-0.000269276
-0.000270547
-0.000271074
-0.000271006
-0.000270463
-0.00026954
-0.000268312
-0.000266842
-0.000265179
-0.000263366
-0.000261437
-0.000259419
-0.000257335
-0.000255202
-0.000253033
-0.000250834
-0.000248611
-0.000246361
-0.000244081
-0.00024176
-0.000239385
-0.000236938
-0.000234395
-0.000231729
-0.000228904
-0.000225881
-0.000222612
-0.00021904
-0.000215102
-0.000210726
-0.000205833
-0.000200347
-0.000194193
-0.000187317
-0.000179691
-0.000171332
-0.000162303
-0.000152724
-0.00014275
-0.00013256
-0.000122335
-0.000112242
-0.000102425
-9.30025e-05
-8.40621e-05
-7.56631e-05
-6.78412e-05
-6.06124e-05
-5.3974e-05
-4.79112e-05
-4.24016e-05
-3.74173e-05
-3.29262e-05
-2.8895e-05
-2.52907e-05
-2.20802e-05
-1.92317e-05
-1.67146e-05
-1.44999e-05
-1.2561e-05
-1.08721e-05
-9.40831e-06
-8.1472e-06
-7.06814e-06
-6.15236e-06
-5.38385e-06
-4.74936e-06
-4.23835e-06
-3.84305e-06
-3.55857e-06
-3.38396e-06
-3.32543e-06
-3.40404e-06
-3.673e-06
-4.27168e-06
-5.70687e-06
0.000956592
0.00088578
0.00080618
0.000718166
0.000623617
0.000526272
0.000429758
0.000336821
0.000249463
0.000169136
9.67913e-05
3.28904e-05
-2.25364e-05
-6.98061e-05
-0.00010949
-0.000142323
-0.000169126
-0.000190733
-0.000207948
-0.000221504
-0.000232049
-0.000240139
-0.000246239
-0.000250733
-0.000253931
-0.000256082
-0.000257389
-0.00025801
-0.000258076
-0.00025769
-0.000256937
-0.000255886
-0.000254594
-0.000253109
-0.00025147
-0.000249708
-0.00024785
-0.000245915
-0.000243918
-0.00024187
-0.000239777
-0.000237639
-0.000235453
-0.000233213
-0.000230905
-0.000228514
-0.000226018
-0.00022339
-0.0002206
-0.000217608
-0.000214372
-0.000210839
-0.000206952
-0.000202647
-0.000197856
-0.000192511
-0.000186554
-0.000179939
-0.000172648
-0.000164698
-0.000156149
-0.000147103
-0.000137698
-0.000128088
-0.000118434
-0.000108885
-9.95736e-05
-9.06096e-05
-8.2077e-05
-7.4035e-05
-6.6521e-05
-5.95539e-05
-5.31361e-05
-4.72576e-05
-4.19008e-05
-3.70419e-05
-3.26534e-05
-2.87054e-05
-2.51676e-05
-2.20096e-05
-1.92018e-05
-1.67154e-05
-1.4523e-05
-1.25992e-05
-1.09194e-05
-9.46013e-06
-8.20008e-06
-7.11976e-06
-6.20162e-06
-5.43062e-06
-4.79437e-06
-4.28316e-06
-3.89017e-06
-3.61185e-06
-3.4493e-06
-3.41174e-06
-3.52412e-06
-3.84273e-06
-4.50319e-06
-5.96182e-06
0.000888093
0.00082422
0.000753751
0.000676218
0.000592616
0.000505923
0.000419271
0.000335115
0.000255279
0.00018112
0.000113579
5.31898e-05
1.10448e-07
-4.5812e-05
-8.49668e-05
-0.000117906
-0.000145277
-0.000167765
-0.000186047
-0.00020076
-0.000212479
-0.000221711
-0.00022889
-0.000234382
-0.000238488
-0.000241461
-0.000243502
-0.000244779
-0.000245429
-0.000245562
-0.00024527
-0.000244629
-0.000243702
-0.000242541
-0.000241189
-0.000239682
-0.000238049
-0.000236312
-0.00023449
-0.000232596
-0.000230635
-0.000228613
-0.000226527
-0.000224372
-0.000222138
-0.000219809
-0.000217367
-0.000214788
-0.000212041
-0.000209093
-0.000205903
-0.000202423
-0.000198603
-0.000194386
-0.000189713
-0.000184528
-0.000178781
-0.000172436
-0.000165483
-0.00015794
-0.000149861
-0.000141336
-0.000132483
-0.000123438
-0.000114342
-0.000105329
-9.65205e-05
-8.80163e-05
-7.98967e-05
-7.22199e-05
-6.50244e-05
-5.83314e-05
-5.21473e-05
-4.64668e-05
-4.12762e-05
-3.6556e-05
-3.22824e-05
-2.84289e-05
-2.49681e-05
-2.18723e-05
-1.91139e-05
-1.6666e-05
-1.4503e-05
-1.26005e-05
-1.09355e-05
-9.48583e-06
-8.23132e-06
-7.15362e-06
-6.2363e-06
-5.4653e-06
-4.8291e-06
-4.31887e-06
-3.92872e-06
-3.6563e-06
-3.50433e-06
-3.48401e-06
-3.62194e-06
-3.97291e-06
-4.65956e-06
-6.06741e-06
0.000824531
0.000766735
0.000704048
0.000635499
0.000561463
0.000484278
0.0004066
0.000330577
0.000257842
0.000189642
0.000126884
7.01376e-05
1.96513e-05
-2.46007e-05
-6.28599e-05
-9.55243e-05
-0.000123093
-0.000146117
-0.000165159
-0.000180762
-0.000193432
-0.000203622
-0.00021173
-0.000218101
-0.000223024
-0.000226745
-0.000229466
-0.000231357
-0.000232558
-0.000233186
-0.000233336
-0.000233092
-0.000232519
-0.000231674
-0.000230604
-0.000229348
-0.000227939
-0.000226401
-0.000224754
-0.000223014
-0.00022119
-0.000219288
-0.000217306
-0.000215243
-0.000213088
-0.00021083
-0.000208452
-0.00020593
-0.000203239
-0.000200347
-0.000197216
-0.000193806
-0.00019007
-0.000185958
-0.000181421
-0.000176411
-0.000170887
-0.000164822
-0.00015821
-0.00015107
-0.000143452
-0.000135432
-0.000127116
-0.000118621
-0.00011007
-0.000101585
-9.32728e-05
-8.52275e-05
-7.7524e-05
-7.02188e-05
-6.33505e-05
-5.69425e-05
-5.10042e-05
-4.5534e-05
-4.05222e-05
-3.5953e-05
-3.1806e-05
-2.80583e-05
-2.46851e-05
-2.16611e-05
-1.8961e-05
-1.65599e-05
-1.44337e-05
-1.25595e-05
-1.09154e-05
-9.48077e-06
-8.23662e-06
-7.1657e-06
-6.25269e-06
-5.48452e-06
-4.85056e-06
-4.34282e-06
-3.9563e-06
-3.68964e-06
-3.54667e-06
-3.53953e-06
-3.69446e-06
-4.06121e-06
-4.74392e-06
-6.05274e-06
0.000765159
0.000712761
0.000656795
0.000596003
0.00053034
0.000461626
0.00039208
0.000323555
0.000257485
0.000194998
0.000136949
8.39161e-05
3.62063e-05
-6.11095e-06
-4.31602e-05
-7.52127e-05
-0.000102641
-0.00012588
-0.000145387
-0.00016162
-0.000175015
-0.000185973
-0.000194855
-0.000201977
-0.000207614
-0.000212001
-0.000215337
-0.00021779
-0.000219502
-0.000220593
-0.000221162
-0.000221295
-0.000221061
-0.000220521
-0.000219725
-0.000218715
-0.000217526
-0.000216184
-0.000214713
-0.000213129
-0.000211444
-0.000209665
-0.000207793
-0.000205826
-0.000203759
-0.00020158
-0.000199273
-0.00019682
-0.000194196
-0.000191373
-0.000188317
-0.000184991
-0.000181355
-0.000177367
-0.000172982
-0.000168162
-0.000162873
-0.000157096
-0.000150828
-0.000144088
-0.000136921
-0.000129395
-0.0001216
-0.000113639
-0.000105621
-9.76532e-05
-8.98323e-05
-8.22441e-05
-7.49587e-05
-6.80301e-05
-6.14969e-05
-5.53836e-05
-4.97021e-05
-4.44541e-05
-3.96333e-05
-3.52271e-05
-3.12186e-05
-2.75877e-05
-2.43126e-05
-2.13703e-05
-1.87377e-05
-1.63917e-05
-1.431e-05
-1.2471e-05
-1.08542e-05
-9.44039e-06
-8.2117e-06
-7.15205e-06
-6.24718e-06
-5.48501e-06
-4.85577e-06
-4.3523e-06
-3.97036e-06
-3.70934e-06
-3.57368e-06
-3.57551e-06
-3.73907e-06
-4.10683e-06
-4.76246e-06
-5.94705e-06
0.000709345
0.000661797
0.000611705
0.000557668
0.000499359
0.000438189
0.000375997
0.000314356
0.000254512
0.000197468
0.000144014
9.47138e-05
4.99092e-05
9.73678e-06
-2.58379e-05
-5.69837e-05
-8.39683e-05
-0.000107124
-0.000126818
-0.000143429
-0.000157326
-0.000168861
-0.000178353
-0.000186091
-0.00019233
-0.000197292
-0.000201169
-0.000204125
-0.0002063
-0.000207816
-0.000208773
-0.000209258
-0.000209345
-0.000209096
-0.000208563
-0.00020779
-0.000206814
-0.000205666
-0.000204369
-0.000202941
-0.000201396
-0.000199742
-0.000197984
-0.000196121
-0.000194147
-0.000192055
-0.00018983
-0.000187456
-0.000184911
-0.00018217
-0.000179203
-0.000175977
-0.000172458
-0.000168608
-0.000164391
-0.000159775
-0.000154734
-0.000149252
-0.00014333
-0.000136987
-0.000130263
-0.000123218
-0.000115931
-0.000108491
-0.000100994
-9.35335e-05
-8.61977e-05
-7.90641e-05
-7.21979e-05
-6.56504e-05
-5.94593e-05
-5.36498e-05
-4.82358e-05
-4.32214e-05
-3.86032e-05
-3.4372e-05
-3.05135e-05
-2.70108e-05
-2.38444e-05
-2.09939e-05
-1.84382e-05
-1.6156e-05
-1.41267e-05
-1.23303e-05
-1.07476e-05
-9.36064e-06
-8.15285e-06
-7.10925e-06
-6.21665e-06
-5.4639e-06
-4.84211e-06
-4.34484e-06
-3.96851e-06
-3.71301e-06
-3.58294e-06
-3.58962e-06
-3.75415e-06
-4.11061e-06
-4.72297e-06
-5.77463e-06
0.000656547
0.000613402
0.000568503
0.000520395
0.000468576
0.000414133
0.000358585
0.000303253
0.000249204
0.000197318
0.000148312
0.000102723
6.0904e-05
2.30371e-05
-1.08451e-05
-4.08311e-05
-6.7102e-05
-8.99045e-05
-0.000109526
-0.000126274
-0.000140457
-0.000152377
-0.000162313
-0.000170527
-0.000177249
-0.000182687
-0.000187023
-0.000190414
-0.000192999
-0.000194894
-0.000196203
-0.000197011
-0.000197395
-0.000197417
-0.000197132
-0.000196585
-0.000195815
-0.000194854
-0.000193727
-0.000192454
-0.000191049
-0.000189524
-0.000187883
-0.000186127
-0.000184254
-0.000182256
-0.000180122
-0.000177837
-0.000175383
-0.000172737
-0.000169872
-0.000166762
-0.000163375
-0.00015968
-0.000155646
-0.000151247
-0.000146463
-0.000141283
-0.000135709
-0.000129761
-0.000123473
-0.000116899
-0.000110107
-0.000103176
-9.61872e-05
-8.92253e-05
-8.23684e-05
-7.56869e-05
-6.92406e-05
-6.30779e-05
-5.72352e-05
-5.17379e-05
-4.66011e-05
-4.18312e-05
-3.74273e-05
-3.33825e-05
-2.96857e-05
-2.63223e-05
-2.32754e-05
-2.05268e-05
-1.80574e-05
-1.58479e-05
-1.38793e-05
-1.21329e-05
-1.05912e-05
-9.23742e-06
-8.05615e-06
-7.03356e-06
-6.15751e-06
-5.41777e-06
-4.80625e-06
-4.3172e-06
-3.94757e-06
-3.69751e-06
-3.57137e-06
-3.57907e-06
-3.73795e-06
-4.07353e-06
-4.63245e-06
-5.55246e-06
0.000606298
0.000567185
0.000526923
0.000484063
0.000438002
0.000389575
0.000340032
0.000290475
0.000241807
0.000194791
0.000150067
0.000108134
6.93423e-05
3.39002e-05
1.88738e-06
-2.67228e-05
-5.20424e-05
-7.4247e-05
-9.35556e-05
-0.000110212
-0.000124472
-0.000136587
-0.000146803
-0.000155347
-0.000162428
-0.000168238
-0.000172944
-0.000176697
-0.000179629
-0.000181854
-0.000183472
-0.00018457
-0.000185222
-0.000185493
-0.000185438
-0.000185104
-0.000184529
-0.000183748
-0.000182786
-0.000181664
-0.0001804
-0.000179003
-0.000177482
-0.000175839
-0.000174072
-0.000172176
-0.000170142
-0.000167957
-0.000165605
-0.000163067
-0.000160319
-0.000157339
-0.000154099
-0.000150573
-0.000146736
-0.000142567
-0.00013805
-0.000133178
-0.000127954
-0.000122398
-0.00011654
-0.000110428
-0.00010412
-9.7685e-05
-9.11949e-05
-8.47232e-05
-7.83395e-05
-7.21073e-05
-6.60815e-05
-6.03069e-05
-5.48186e-05
-4.96415e-05
-4.47916e-05
-4.02769e-05
-3.60985e-05
-3.22519e-05
-2.87283e-05
-2.55155e-05
-2.25991e-05
-1.99629e-05
-1.75897e-05
-1.54622e-05
-1.35628e-05
-1.18746e-05
-1.03812e-05
-9.06717e-06
-7.91844e-06
-6.92221e-06
-6.06734e-06
-5.3445e-06
-4.74636e-06
-4.26779e-06
-3.90613e-06
-3.6616e-06
-3.53799e-06
-3.54349e-06
-3.69138e-06
-3.99926e-06
-4.49926e-06
-5.29356e-06
0.000558185
0.000522797
0.000486718
0.000448547
0.000407627
0.0003646
0.000320493
0.000276221
0.000232542
0.000190108
0.000149484
0.000111124
7.53655e-05
4.24268e-05
1.24196e-05
-1.46374e-05
-3.8802e-05
-6.01922e-05
-7.89692e-05
-9.53229e-05
-0.000109459
-0.000121587
-0.000131916
-0.000140643
-0.000147956
-0.000154026
-0.000159008
-0.000163042
-0.000166252
-0.000168748
-0.000170628
-0.000171975
-0.000172863
-0.000173356
-0.000173509
-0.00017337
-0.000172977
-0.000172364
-0.00017156
-0.000170586
-0.000169459
-0.000168192
-0.000166792
-0.000165265
-0.00016361
-0.000161823
-0.000159897
-0.000157821
-0.000155583
-0.000153164
-0.000150547
-0.00014771
-0.000144631
-0.000141289
-0.000137662
-0.000133734
-0.000129493
-0.000124934
-0.000120063
-0.000114896
-0.000109463
-0.000103804
-9.79706e-05
-9.20214e-05
-8.60199e-05
-8.00301e-05
-7.4114e-05
-6.83283e-05
-6.27228e-05
-5.73391e-05
-5.22102e-05
-4.73605e-05
-4.28063e-05
-3.85567e-05
-3.46144e-05
-3.0977e-05
-2.76378e-05
-2.45867e-05
-2.18114e-05
-1.92977e-05
-1.70305e-05
-1.4994e-05
-1.31723e-05
-1.155e-05
-1.01121e-05
-8.84456e-06
-7.73428e-06
-6.76964e-06
-5.9405e-06
-5.23837e-06
-4.65667e-06
-4.19078e-06
-3.83835e-06
-3.5995e-06
-3.47728e-06
-3.47796e-06
-3.61091e-06
-3.8868e-06
-4.32608e-06
-5.00154e-06
0.000511835
0.00047991
0.000447636
0.000413687
0.000377392
0.000339241
0.000300078
0.000260658
0.000221612
0.000183493
0.000146791
0.000111913
7.9174e-05
4.87926e-05
2.0899e-05
-4.45633e-06
-2.72904e-05
-4.76748e-05
-6.57235e-05
-8.15797e-05
-9.54058e-05
-0.000107373
-0.000117657
-0.000126425
-0.000133843
-0.000140062
-0.000145224
-0.000149455
-0.000152873
-0.000155582
-0.000157672
-0.000159225
-0.000160314
-0.000160999
-0.000161336
-0.000161372
-0.000161145
-0.00016069
-0.000160035
-0.000159202
-0.000158209
-0.00015707
-0.000155794
-0.000154386
-0.000152847
-0.000151176
-0.000149366
-0.00014741
-0.000145296
-0.000143009
-0.000140535
-0.000137854
-0.00013495
-0.000131805
-0.0001284
-0.000124724
-0.000120767
-0.000116527
-0.00011201
-0.000107233
-0.00010222
-9.70072e-05
-9.16395e-05
-8.61676e-05
-8.06464e-05
-7.51321e-05
-6.96789e-05
-6.43376e-05
-5.91531e-05
-5.41635e-05
-4.93995e-05
-4.48847e-05
-4.06353e-05
-3.6661e-05
-3.2966e-05
-2.95493e-05
-2.64061e-05
-2.35283e-05
-2.09055e-05
-1.85254e-05
-1.63747e-05
-1.44392e-05
-1.27047e-05
-1.11571e-05
-9.78295e-06
-8.56926e-06
-7.50426e-06
-6.57733e-06
-5.77928e-06
-5.10246e-06
-4.54093e-06
-4.09056e-06
-3.74918e-06
-3.51676e-06
-3.39546e-06
-3.38966e-06
-3.50522e-06
-3.74715e-06
-4.12719e-06
-4.68599e-06
0.000458502
0.00043043
0.000402295
0.000372892
0.00034156
0.000308648
0.000274825
0.000240688
0.000206739
0.000173426
0.000141157
0.000110282
8.1084e-05
5.37719e-05
2.84848e-05
5.29722e-06
-1.57729e-05
-3.47558e-05
-5.172e-05
-6.67634e-05
-8.00044e-05
-9.15743e-05
-0.000101611
-0.000110253
-0.000117636
-0.000123892
-0.000129142
-0.000133501
-0.000137072
-0.000139951
-0.000142222
-0.000143963
-0.00014524
-0.000146113
-0.000146635
-0.000146851
-0.000146799
-0.000146514
-0.000146023
-0.000145349
-0.00014451
-0.000143521
-0.000142391
-0.000141127
-0.000139731
-0.000138204
-0.000136541
-0.000134737
-0.000132782
-0.000130666
-0.000128375
-0.000125896
-0.000123215
-0.000120318
-0.000117191
-0.000113825
-0.000110215
-0.00010636
-0.000102267
-9.79503e-05
-9.34318e-05
-8.87419e-05
-8.39181e-05
-7.9003e-05
-7.40427e-05
-6.90847e-05
-6.41755e-05
-5.93586e-05
-5.46736e-05
-5.01542e-05
-4.58287e-05
-4.17188e-05
-3.78404e-05
-3.42037e-05
-3.08137e-05
-2.76712e-05
-2.47732e-05
-2.21135e-05
-1.96839e-05
-1.7474e-05
-1.54726e-05
-1.36674e-05
-1.20461e-05
-1.05963e-05
-9.30594e-06
-8.16373e-06
-7.15919e-06
-6.28297e-06
-5.52697e-06
-4.88451e-06
-4.35039e-06
-3.92099e-06
-3.59435e-06
-3.3701e-06
-3.24942e-06
-3.2346e-06
-3.32797e-06
-3.52945e-06
-3.84439e-06
-4.26883e-06
0.000397455
0.000373584
0.00034986
0.000325227
0.000299072
0.000271632
0.000243415
0.000214875
0.000186391
0.000158308
0.000130949
0.0001046
7.94994e-05
5.58354e-05
3.37425e-05
1.33068e-05
-5.43072e-06
-2.24684e-05
-3.78375e-05
-5.1596e-05
-6.38221e-05
-7.46081e-05
-8.40555e-05
-9.22703e-05
-9.93595e-05
-0.000105428
-0.000110578
-0.000114904
-0.000118497
-0.000121438
-0.000123804
-0.000125662
-0.000127074
-0.000128095
-0.000128773
-0.000129151
-0.000129265
-0.000129148
-0.000128825
-0.00012832
-0.00012765
-0.000126831
-0.000125871
-0.00012478
-0.00012356
-0.000122213
-0.000120738
-0.00011913
-0.000117383
-0.000115489
-0.000113439
-0.000111223
-0.000108829
-0.000106248
-0.000103472
-0.000100493
-9.73091e-05
-9.39211e-05
-9.03357e-05
-8.65653e-05
-8.26286e-05
-7.85505e-05
-7.4361e-05
-7.00946e-05
-6.57887e-05
-6.14816e-05
-5.72116e-05
-5.30149e-05
-4.89245e-05
-4.49696e-05
-4.11747e-05
-3.75593e-05
-3.41383e-05
-3.09215e-05
-2.79149e-05
-2.51202e-05
-2.25362e-05
-2.01586e-05
-1.79811e-05
-1.59958e-05
-1.41932e-05
-1.25635e-05
-1.10963e-05
-9.78095e-06
-8.60742e-06
-7.56604e-06
-6.64792e-06
-5.84513e-06
-5.15084e-06
-4.55941e-06
-4.06649e-06
-3.66901e-06
-3.36515e-06
-3.15422e-06
-3.03635e-06
-3.0119e-06
-3.08019e-06
-3.23726e-06
-3.48283e-06
-3.79369e-06
0.000334133
0.00031444
0.000295015
0.000274964
0.000253747
0.000231519
0.000208657
0.000185496
0.000162312
0.000139363
0.000116892
9.51233e-05
7.42509e-05
5.44321e-05
3.57882e-05
1.84047e-05
2.33355e-06
-1.24041e-05
-2.58137e-05
-3.79235e-05
-4.87797e-05
-5.84423e-05
-6.69815e-05
-7.44738e-05
-8.09989e-05
-8.66376e-05
-9.14695e-05
-9.55717e-05
-9.90176e-05
-0.000101876
-0.00010421
-0.00010608
-0.000107537
-0.000108631
-0.000109405
-0.000109895
-0.000110137
-0.000110158
-0.000109984
-0.000109636
-0.00010913
-0.000108481
-0.000107698
-0.000106791
-0.000105764
-0.000104618
-0.000103354
-0.000101971
-0.000100464
-9.88272e-05
-9.70552e-05
-9.51405e-05
-9.3076e-05
-9.08548e-05
-8.84713e-05
-8.59218e-05
-8.3205e-05
-8.03231e-05
-7.72824e-05
-7.40933e-05
-7.0771e-05
-6.73353e-05
-6.38099e-05
-6.02217e-05
-5.66e-05
-5.29752e-05
-4.93776e-05
-4.58361e-05
-4.23779e-05
-3.90268e-05
-3.58036e-05
-3.2725e-05
-2.98042e-05
-2.70505e-05
-2.44697e-05
-2.20644e-05
-1.98345e-05
-1.77774e-05
-1.58885e-05
-1.41619e-05
-1.25901e-05
-1.11654e-05
-9.87918e-06
-8.72306e-06
-7.68868e-06
-6.76815e-06
-5.9542e-06