/*--------------------------------*- C++ -*----------------------------------*\
| =========                 |                                                 |
| \\      /  F ield         | OpenFOAM: The Open Source CFD Toolbox           |
|  \\    /   O peration     | Version:  2.3.0                                 |
|   \\  /    A nd           | Web:      www.OpenFOAM.org                      |
|    \\/     M anipulation  |                                                 |
\*---------------------------------------------------------------------------*/
FoamFile
{
    version     2.0;
    format      ascii;
    class       surfaceScalarField;
    location    "0.25";
    object      phi;
}
// * * * * * * * * * * * * * * * * * * * * * * * * * * * * * * * * * * * * * //

dimensions      [0 3 -1 0 0 0 0];

internalField   nonuniform List<scalar> 
5644
(
2.86555e-08
2.7713e-09
-3.14268e-08
2.5815e-08
2.84048e-09
2.31251e-08
2.68991e-09
2.06387e-08
2.48637e-09
1.83737e-08
2.26495e-09
1.63416e-08
2.03214e-09
1.4546e-08
1.79565e-09
1.29827e-08
1.56328e-09
1.16409e-08
1.34177e-09
1.05043e-08
1.1366e-09
9.55246e-09
9.5185e-10
8.76242e-09
7.90031e-10
8.11043e-09
6.51996e-10
7.57331e-09
5.3712e-10
7.12969e-09
4.43622e-10
6.76072e-09
3.68961e-10
6.4505e-09
3.10228e-10
6.18601e-09
2.64487e-10
5.957e-09
2.29012e-10
5.75556e-09
2.01435e-10
5.57576e-09
1.798e-10
5.4132e-09
1.6256e-10
5.26466e-09
1.48539e-10
5.1278e-09
1.36866e-10
5.00088e-09
1.26918e-10
4.88263e-09
1.18254e-10
4.77206e-09
1.1057e-10
4.6684e-09
1.03656e-10
4.57103e-09
9.73662e-11
4.47944e-09
9.15985e-11
4.39316e-09
8.62781e-11
4.31181e-09
8.13483e-11
4.23505e-09
7.67637e-11
4.16256e-09
7.24868e-11
4.09407e-09
6.84848e-11
4.02934e-09
6.4729e-11
3.96815e-09
6.11936e-11
3.9103e-09
5.78551e-11
3.8556e-09
5.46923e-11
3.80392e-09
5.1686e-11
3.7551e-09
4.88188e-11
3.70902e-09
4.60747e-11
3.66558e-09
4.34394e-11
3.62468e-09
4.09003e-11
3.58624e-09
3.84461e-11
3.55017e-09
3.60671e-11
3.51642e-09
3.37552e-11
3.48491e-09
3.15032e-11
3.45561e-09
2.93038e-11
3.42846e-09
2.71485e-11
3.40344e-09
2.50249e-11
3.38052e-09
2.29139e-11
3.35974e-09
2.07862e-11
3.34114e-09
1.86001e-11
3.32483e-09
1.63005e-11
3.31101e-09
1.38226e-11
3.29991e-09
1.11002e-11
3.29185e-09
8.05737e-12
3.28723e-09
4.62194e-12
3.28625e-09
9.85894e-13
3.28816e-09
-1.91626e-12
3.29221e-09
-4.04604e-12
3.29784e-09
-5.62738e-12
3.30458e-09
-6.73916e-12
3.312e-09
-7.4226e-12
3.31973e-09
-7.73513e-12
3.32749e-09
-7.75453e-12
3.33504e-09
-7.54901e-12
3.34222e-09
-7.1861e-12
3.34894e-09
-6.72084e-12
3.35514e-09
-6.19797e-12
3.3608e-09
-5.65338e-12
3.36591e-09
-5.11067e-12
3.37049e-09
-4.58569e-12
3.37458e-09
-4.08906e-12
3.37821e-09
-3.62682e-12
3.38141e-09
-3.20121e-12
3.38422e-09
-2.81226e-12
3.38668e-09
-2.45876e-12
3.38882e-09
-2.13849e-12
3.39067e-09
-1.84863e-12
3.39225e-09
-1.58653e-12
3.3936e-09
-1.35093e-12
3.39475e-09
-1.14083e-12
3.3957e-09
-9.53693e-13
3.39649e-09
-7.88759e-13
3.39713e-09
-6.46103e-13
3.39766e-09
-5.23727e-13
3.39808e-09
-4.20195e-13
3.39841e-09
-3.31879e-13
3.39866e-09
-2.54075e-13
3.39884e-09
-1.81378e-13
3.39895e-09
-1.08647e-13
3.39899e-09
-3.28736e-14
3.39892e-09
6.69773e-14
3.39871e-09
2.11981e-13
3.3983e-09
4.12285e-13
3.39759e-09
7.02539e-13
3.39644e-09
1.15261e-12
3.25318e-12
3.44079e-08
3.04197e-09
-3.46786e-08
3.3844e-08
3.40438e-09
3.30367e-08
3.49724e-09
3.20667e-08
3.4564e-09
3.09915e-08
3.34011e-09
2.98566e-08
3.16697e-09
2.86995e-08
2.95284e-09
2.75489e-08
2.71383e-09
2.64266e-08
2.46409e-09
2.53479e-08
2.21531e-09
2.43229e-08
1.97683e-09
2.33575e-08
1.75542e-09
2.24542e-08
1.55529e-09
2.1613e-08
1.37835e-09
2.0832e-08
1.22458e-09
2.01084e-08
1.0926e-09
1.94384e-08
9.80203e-10
1.88181e-08
8.8479e-10
1.82434e-08
8.03722e-10
1.77103e-08
7.3454e-10
1.7215e-08
6.75081e-10
1.6754e-08
6.23525e-10
1.63242e-08
5.7839e-10
1.59226e-08
5.38491e-10
1.55466e-08
5.02899e-10
1.5194e-08
4.70888e-10
1.48626e-08
4.41889e-10
1.45508e-08
4.15456e-10
1.4257e-08
3.91234e-10
1.39796e-08
3.68934e-10
1.37176e-08
3.48319e-10
1.34698e-08
3.2919e-10
1.32351e-08
3.11374e-10
1.30129e-08
2.94724e-10
1.28023e-08
2.7911e-10
1.26026e-08
2.64416e-10
1.24132e-08
2.5054e-10
1.22337e-08
2.3739e-10
1.20635e-08
2.24883e-10
1.19023e-08
2.12945e-10
1.17496e-08
2.01508e-10
1.16051e-08
1.90511e-10
1.14687e-08
1.79899e-10
1.134e-08
1.69622e-10
1.12188e-08
1.59634e-10
1.11049e-08
1.49894e-10
1.09983e-08
1.40365e-10
1.08988e-08
1.31011e-10
1.08063e-08
1.21794e-10
1.07208e-08
1.12673e-10
1.06422e-08
1.03598e-10
1.05706e-08
9.45022e-11
1.05061e-08
8.53021e-11
1.04488e-08
7.58958e-11
1.0399e-08
6.61696e-11
1.03568e-08
5.60139e-11
1.03225e-08
4.53536e-11
1.02964e-08
3.41787e-11
1.02785e-08
2.255e-11
1.0269e-08
1.0485e-11
1.02677e-08
-6.47991e-13
1.02729e-08
-9.21703e-12
1.02825e-08
-1.52235e-11
1.02951e-08
-1.93663e-11
1.03097e-08
-2.19815e-11
1.03253e-08
-2.33352e-11
1.03412e-08
-2.37004e-11
1.0357e-08
-2.33066e-11
1.03721e-08
-2.23703e-11
1.03865e-08
-2.10681e-11
1.03998e-08
-1.95439e-11
1.04121e-08
-1.79125e-11
1.04232e-08
-1.62536e-11
1.04333e-08
-1.46226e-11
1.04422e-08
-1.30577e-11
1.04502e-08
-1.15823e-11
1.04572e-08
-1.02083e-11
1.04633e-08
-8.94018e-12
1.04687e-08
-7.77796e-12
1.04732e-08
-6.71831e-12
1.04771e-08
-5.75587e-12
1.04804e-08
-4.88506e-12
1.04832e-08
-4.10293e-12
1.04855e-08
-3.40682e-12
1.04873e-08
-2.79047e-12
1.04888e-08
-2.25095e-12
1.04899e-08
-1.78659e-12
1.04908e-08
-1.39062e-12
1.04914e-08
-1.057e-12
1.04918e-08
-7.74466e-13
1.04921e-08
-5.30099e-13
1.04922e-08
-3.07981e-13
1.04922e-08
-9.89667e-14
1.04921e-08
1.37841e-13
1.04917e-08
4.59124e-13
1.0491e-08
8.78136e-13
1.049e-08
1.42888e-12
1.04885e-08
2.22231e-12
1.0486e-08
3.63111e-12
7.43342e-12
3.65107e-08
2.894e-09
-3.63627e-08
3.65956e-08
3.31949e-09
3.65566e-08
3.53627e-09
3.63931e-08
3.61989e-09
3.61166e-08
3.61661e-09
3.57409e-08
3.54268e-09
3.52827e-08
3.41104e-09
3.47596e-08
3.23693e-09
3.41883e-08
3.03536e-09
3.35839e-08
2.81969e-09
3.29595e-08
2.60126e-09
3.23258e-08
2.3891e-09
3.16915e-08
2.18965e-09
3.1063e-08
2.00684e-09
3.04451e-08
1.84247e-09
2.98411e-08
1.69662e-09
2.9253e-08
1.56823e-09
2.86822e-08
1.45558e-09
2.81293e-08
1.35662e-09
2.75946e-08
1.26932e-09
2.70778e-08
1.19181e-09
2.65789e-08
1.12242e-09
2.60975e-08
1.05979e-09
2.56332e-08
1.00279e-09
2.51856e-08
9.50515e-10
2.47542e-08
9.02261e-10
2.43387e-08
8.57464e-10
2.39384e-08
8.15674e-10
2.35532e-08
7.7653e-10
2.31824e-08
7.39736e-10
2.28256e-08
7.05041e-10
2.24826e-08
6.72233e-10
2.21528e-08
6.41126e-10
2.1836e-08
6.11553e-10
2.15317e-08
5.83365e-10
2.12397e-08
5.56425e-10
2.09597e-08
5.30609e-10
2.06913e-08
5.05801e-10
2.04342e-08
4.81893e-10
2.01884e-08
4.58785e-10
1.99535e-08
4.36383e-10
1.97294e-08
4.146e-10
1.9516e-08
3.93352e-10
1.93131e-08
3.72562e-10
1.91205e-08
3.52158e-10
1.89384e-08
3.32069e-10
1.87665e-08
3.1223e-10
1.86049e-08
2.92573e-10
1.84537e-08
2.73028e-10
1.83128e-08
2.53516e-10
1.81825e-08
2.33945e-10
1.80628e-08
2.14208e-10
1.79539e-08
1.94181e-10
1.78561e-08
1.73732e-10
1.77695e-08
1.52741e-10
1.76944e-08
1.31132e-10
1.76308e-08
1.08934e-10
1.75786e-08
8.63509e-11
1.75373e-08
6.38685e-11
1.75056e-08
4.21949e-11
1.74833e-08
2.1661e-11
1.74715e-08
2.61165e-12
1.74691e-08
-1.28329e-11
1.74735e-08
-2.37613e-11
1.74827e-08
-3.12302e-11
1.74953e-08
-3.59119e-11
1.751e-08
-3.84036e-11
1.75259e-08
-3.91789e-11
1.75422e-08
-3.86768e-11
1.75584e-08
-3.72539e-11
1.7574e-08
-3.52053e-11
1.75889e-08
-3.27707e-11
1.76028e-08
-3.0125e-11
1.76155e-08
-2.73974e-11
1.76272e-08
-2.46823e-11
1.76376e-08
-2.20446e-11
1.76469e-08
-1.95251e-11
1.76551e-08
-1.71488e-11
1.76623e-08
-1.49294e-11
1.76685e-08
-1.28729e-11
1.76737e-08
-1.09796e-11
1.7678e-08
-9.24743e-12
1.76816e-08
-7.67712e-12
1.76845e-08
-6.26916e-12
1.76867e-08
-5.01678e-12
1.76884e-08
-3.91745e-12
1.76896e-08
-2.96989e-12
1.76903e-08
-2.16298e-12
1.76908e-08
-1.48674e-12
1.76909e-08
-9.19982e-13
1.76908e-08
-4.42818e-13
1.76905e-08
-2.20642e-14
1.769e-08
4.21206e-13
1.76892e-08
9.54184e-13
1.76881e-08
1.59002e-12
1.76866e-08
2.34726e-12
1.76847e-08
3.30294e-12
1.76823e-08
4.66851e-12
1.76788e-08
7.06308e-12
1.21431e-11
3.80903e-08
2.70437e-09
-3.79007e-08
3.82999e-08
3.10991e-09
3.84755e-08
3.36072e-09
3.85972e-08
3.49811e-09
3.86584e-08
3.55545e-09
3.86549e-08
3.54617e-09
3.85864e-08
3.4795e-09
3.84564e-08
3.36702e-09
3.82704e-08
3.2213e-09
3.80358e-08
3.05429e-09
3.77604e-08
2.87668e-09
3.7452e-08
2.69748e-09
3.7118e-08
2.52363e-09
3.67649e-08
2.35995e-09
3.63982e-08
2.20923e-09
3.60222e-08
2.0726e-09
3.56405e-08
1.94994e-09
3.52557e-08
1.84035e-09
3.48699e-08
1.74245e-09
3.44845e-08
1.65471e-09
3.41007e-08
1.5756e-09
3.37194e-08
1.50374e-09
3.33412e-08
1.43793e-09
3.29669e-08
1.37716e-09
3.25968e-08
1.32061e-09
3.22314e-08
1.26763e-09
3.18711e-08
1.21771e-09
3.15164e-08
1.17041e-09
3.11675e-08
1.12542e-09
3.08248e-08
1.08246e-09
3.04885e-08
1.04131e-09
3.0159e-08
1.00176e-09
2.98364e-08
9.63668e-10
2.95211e-08
9.2687e-10
2.92133e-08
8.91235e-10
2.8913e-08
8.56641e-10
2.86207e-08
8.22972e-10
2.83364e-08
7.90119e-10
2.80603e-08
7.57981e-10
2.77926e-08
7.2646e-10
2.75335e-08
6.95461e-10
2.72832e-08
6.64894e-10
2.70419e-08
6.34672e-10
2.68098e-08
6.0471e-10
2.6587e-08
5.74926e-10
2.63738e-08
5.45239e-10
2.61705e-08
5.15567e-10
2.59772e-08
4.85825e-10
2.57943e-08
4.55922e-10
2.56221e-08
4.25757e-10
2.54608e-08
3.95216e-10
2.53109e-08
3.64171e-10
2.51726e-08
3.32493e-10
2.50462e-08
3.00063e-10
2.49322e-08
2.66809e-10
2.48305e-08
2.32755e-10
2.47414e-08
1.98094e-10
2.46645e-08
1.63264e-10
2.45993e-08
1.29012e-10
2.45452e-08
9.6349e-11
2.45005e-08
6.63404e-11
2.44635e-08
3.95496e-11
2.44352e-08
1.55317e-11
2.44166e-08
-5.20107e-12
2.44065e-08
-2.10915e-11
2.44029e-08
-3.22876e-11
2.44042e-08
-3.97805e-11
2.44093e-08
-4.42688e-11
2.44171e-08
-4.64197e-11
2.44266e-08
-4.67753e-11
2.44372e-08
-4.58008e-11
2.44483e-08
-4.38854e-11
2.44595e-08
-4.13252e-11
2.44705e-08
-3.83512e-11
2.44809e-08
-3.51418e-11
2.44907e-08
-3.18306e-11
2.44997e-08
-2.85127e-11
2.45078e-08
-2.52566e-11
2.4515e-08
-2.21109e-11
2.45212e-08
-1.91092e-11
2.45265e-08
-1.62739e-11
2.45309e-08
-1.36208e-11
2.45344e-08
-1.11677e-11
2.4537e-08
-8.9308e-12
2.45389e-08
-6.91304e-12
2.45401e-08
-5.12223e-12
2.45407e-08
-3.56729e-12
2.45408e-08
-2.23787e-12
2.45404e-08
-1.12809e-12
2.45397e-08
-2.16874e-13
2.45387e-08
5.99691e-13
2.45372e-08
1.42939e-12
2.45354e-08
2.30259e-12
2.45331e-08
3.23582e-12
2.45304e-08
4.24315e-12
2.45274e-08
5.36327e-12
2.4524e-08
6.71884e-12
2.45201e-08
8.61629e-12
2.45153e-08
1.18187e-11
1.79328e-11
3.96294e-08
2.5352e-09
-3.94603e-08
3.98381e-08
2.90124e-09
4.00474e-08
3.15143e-09
4.02389e-08
3.30664e-09
4.0404e-08
3.3903e-09
4.05359e-08
3.41432e-09
4.06291e-08
3.3863e-09
4.06809e-08
3.31521e-09
4.0691e-08
3.2112e-09
4.0661e-08
3.08428e-09
4.0594e-08
2.94368e-09
4.04941e-08
2.79741e-09
4.03657e-08
2.65201e-09
4.02134e-08
2.51226e-09
4.00413e-08
2.38129e-09
3.98532e-08
2.26074e-09
3.9652e-08
2.15109e-09
3.94404e-08
2.05201e-09
3.92202e-08
1.96264e-09
3.8993e-08
1.88188e-09
3.87601e-08
1.80854e-09
3.85224e-08
1.74147e-09
3.82806e-08
1.67966e-09
3.80356e-08
1.62221e-09
3.77878e-08
1.56838e-09
3.75379e-08
1.51757e-09
3.72863e-08
1.46929e-09
3.70336e-08
1.42316e-09
3.67801e-08
1.37884e-09
3.65265e-08
1.33608e-09
3.62732e-08
1.29467e-09
3.60205e-08
1.25443e-09
3.5769e-08
1.21519e-09
3.5519e-08
1.17681e-09
3.52711e-08
1.13918e-09
3.50256e-08
1.10217e-09
3.47829e-08
1.06567e-09
3.45434e-08
1.02959e-09
3.43076e-08
9.93809e-10
3.40758e-08
9.58247e-10
3.38484e-08
9.22807e-10
3.36259e-08
8.87396e-10
3.34087e-08
8.51926e-10
3.31971e-08
8.16306e-10
3.29915e-08
7.80449e-10
3.27925e-08
7.44265e-10
3.26004e-08
7.07664e-10
3.24157e-08
6.70547e-10
3.22388e-08
6.32813e-10
3.20702e-08
5.94348e-10
3.19104e-08
5.55031e-10
3.17598e-08
5.14738e-10
3.1619e-08
4.73354e-10
3.14882e-08
4.30805e-10
3.13679e-08
3.87096e-10
3.12583e-08
3.42372e-10
3.11594e-08
2.96986e-10
3.10711e-08
2.51569e-10
3.09931e-08
2.07048e-10
3.09249e-08
1.6458e-10
3.08659e-08
1.25343e-10
3.08152e-08
9.01847e-11
3.07712e-08
5.95448e-11
3.07327e-08
3.33114e-11
3.07008e-08
1.08131e-11
3.06763e-08
-7.76347e-12
3.06583e-08
-2.17798e-11
3.06457e-08
-3.1696e-11
3.06376e-08
-3.83256e-11
3.06331e-08
-4.22882e-11
3.06315e-08
-4.41501e-11
3.0632e-08
-4.44023e-11
3.06341e-08
-4.34313e-11
3.06373e-08
-4.1555e-11
3.06412e-08
-3.90306e-11
3.06454e-08
-3.6062e-11
3.06497e-08
-3.2805e-11
3.06538e-08
-2.93815e-11
3.06576e-08
-2.58873e-11
3.06609e-08
-2.2397e-11
3.06636e-08
-1.89693e-11
3.06656e-08
-1.56514e-11
3.0667e-08
-1.24932e-11
3.06676e-08
-9.54282e-12
3.06675e-08
-6.82801e-12
3.06667e-08
-4.37906e-12
3.06654e-08
-2.23744e-12
3.06636e-08
-4.15949e-13
3.06613e-08
1.18544e-12
3.06584e-08
2.69046e-12
3.06548e-08
4.13557e-12
3.06507e-08
5.54386e-12
3.06461e-08
6.93126e-12
3.0641e-08
8.30664e-12
3.06356e-08
9.68743e-12
3.06298e-08
1.11322e-11
3.06237e-08
1.28035e-11
3.06173e-08
1.5077e-11
3.06103e-08
1.87909e-11
2.56187e-11
4.12046e-08
2.38976e-09
-4.10592e-08
4.13913e-08
2.71452e-09
4.15904e-08
2.95236e-09
4.17857e-08
3.11128e-09
4.19695e-08
3.20656e-09
4.21356e-08
3.24824e-09
4.22787e-08
3.24312e-09
4.23954e-08
3.19859e-09
4.24835e-08
3.12307e-09
4.25427e-08
3.02503e-09
4.2574e-08
2.9124e-09
4.25792e-08
2.79219e-09
4.2561e-08
2.67027e-09
4.25221e-08
2.55112e-09
4.24655e-08
2.43787e-09
4.23939e-08
2.33235e-09
4.23096e-08
2.23541e-09
4.22145e-08
2.14708e-09
4.21103e-08
2.06689e-09
4.19981e-08
1.99407e-09
4.18789e-08
1.92771e-09
4.17535e-08
1.86688e-09
4.16224e-08
1.81071e-09
4.14862e-08
1.75841e-09
4.13453e-08
1.70932e-09
4.12e-08
1.66287e-09
4.10507e-08
1.61861e-09
4.08977e-08
1.57613e-09
4.07414e-08
1.53514e-09
4.05821e-08
1.49536e-09
4.04202e-08
1.45659e-09
4.0256e-08
1.41863e-09
4.00899e-08
1.38132e-09
3.99222e-08
1.34451e-09
3.97533e-08
1.30808e-09
3.95836e-08
1.2719e-09
3.94134e-08
1.23586e-09
3.92431e-08
1.19984e-09
3.90732e-08
1.16375e-09
3.89039e-08
1.12748e-09
3.87358e-08
1.09093e-09
3.85692e-08
1.054e-09
3.84046e-08
1.01659e-09
3.82423e-08
9.78603e-10
3.80828e-08
9.39942e-10
3.79265e-08
9.00507e-10
3.7774e-08
8.60194e-10
3.76256e-08
8.18897e-10
3.7482e-08
7.76502e-10
3.73434e-08
7.32891e-10
3.72105e-08
6.87945e-10
3.70837e-08
6.4155e-10
3.69634e-08
5.93624e-10
3.68501e-08
5.44141e-10
3.6744e-08
4.93186e-10
3.66454e-08
4.41008e-10
3.65543e-08
3.88083e-10
3.64707e-08
3.35167e-10
3.63944e-08
2.83286e-10
3.63254e-08
2.33648e-10
3.62632e-08
1.87451e-10
3.62078e-08
1.4563e-10
3.61586e-08
1.08748e-10
3.61149e-08
7.69547e-11
3.60756e-08
5.01439e-11
3.604e-08
2.7905e-11
3.60086e-08
9.52658e-12
3.59822e-08
-5.23452e-12
3.59602e-08
-1.63523e-11
3.59422e-08
-2.4235e-11
3.59275e-08
-2.94898e-11
3.59157e-08
-3.26295e-11
3.59064e-08
-3.4062e-11
3.58989e-08
-3.41404e-11
3.58931e-08
-3.31607e-11
3.58884e-08
-3.13677e-11
3.58845e-08
-2.89562e-11
3.58812e-08
-2.60865e-11
3.58782e-08
-2.28925e-11
3.58753e-08
-1.94857e-11
3.58723e-08
-1.59624e-11
3.58691e-08
-1.24048e-11
3.58655e-08
-8.89815e-12
3.58615e-08
-5.53186e-12
3.5857e-08
-2.40287e-12
3.58522e-08
4.58948e-13
3.58468e-08
3.12578e-12
3.58408e-08
5.64742e-12
3.58339e-08
8.02245e-12
3.58264e-08
1.02603e-11
3.58181e-08
1.23746e-11
3.58093e-08
1.43689e-11
3.58e-08
1.62425e-11
3.57903e-08
1.7996e-11
3.57803e-08
1.96492e-11
3.57702e-08
2.12757e-11
3.57599e-08
2.30648e-11
3.57496e-08
2.54277e-11
3.57392e-08
2.92225e-11
3.61907e-11
4.28283e-08
2.263e-09
-4.27016e-08
4.29933e-08
2.54958e-09
4.31746e-08
2.77099e-09
4.33583e-08
2.92766e-09
4.35364e-08
3.02843e-09
4.37036e-08
3.08102e-09
4.38554e-08
3.09134e-09
4.39884e-08
3.06562e-09
4.41005e-08
3.0109e-09
4.41912e-08
2.93443e-09
4.42605e-08
2.84309e-09
4.43096e-08
2.74306e-09
4.43403e-08
2.63959e-09
4.43546e-08
2.53683e-09
4.43546e-08
2.4378e-09
4.43426e-08
2.34443e-09
4.43202e-08
2.25778e-09
4.42891e-08
2.17817e-09
4.42506e-08
2.10542e-09
4.42056e-08
2.03904e-09
4.41549e-08
1.97836e-09
4.40992e-08
1.92263e-09
4.40388e-08
1.87114e-09
4.3974e-08
1.8232e-09
4.39051e-08
1.77822e-09
4.38323e-08
1.73568e-09
4.37558e-08
1.69513e-09
4.36757e-08
1.6562e-09
4.35922e-08
1.61859e-09
4.35056e-08
1.58203e-09
4.34159e-08
1.54628e-09
4.33233e-08
1.51116e-09
4.32282e-08
1.47649e-09
4.31306e-08
1.44211e-09
4.30307e-08
1.40789e-09
4.2929e-08
1.37369e-09
4.28254e-08
1.33938e-09
4.27204e-08
1.30485e-09
4.26142e-08
1.26997e-09
4.25071e-08
1.23464e-09
4.23992e-08
1.19874e-09
4.22911e-08
1.16215e-09
4.21829e-08
1.12478e-09
4.2075e-08
1.0865e-09
4.19677e-08
1.04722e-09
4.18614e-08
1.00681e-09
4.17565e-08
9.65158e-10
4.16532e-08
9.22154e-10
4.1552e-08
8.77674e-10
4.14533e-08
8.316e-10
4.13575e-08
7.83816e-10
4.12648e-08
7.34229e-10
4.11756e-08
6.82784e-10
4.10902e-08
6.29505e-10
4.10089e-08
5.74537e-10
4.09317e-08
5.18203e-10
4.08587e-08
4.61054e-10
4.079e-08
4.039e-10
4.07255e-08
3.47792e-10
4.06652e-08
2.93926e-10
4.06092e-08
2.43469e-10
4.05575e-08
1.97363e-10
4.051e-08
1.5622e-10
4.04666e-08
1.20299e-10
4.04272e-08
8.95897e-11
4.03913e-08
6.38274e-11
4.03582e-08
4.26034e-11
4.03275e-08
2.54286e-11
4.02995e-08
1.17098e-11
4.02743e-08
9.58088e-13
4.02519e-08
-7.10007e-12
4.0232e-08
-1.27458e-11
4.02143e-08
-1.63792e-11
4.01985e-08
-1.83593e-11
4.01844e-08
-1.89872e-11
4.01715e-08
-1.85197e-11
4.01597e-08
-1.71618e-11
4.01487e-08
-1.50898e-11
4.01383e-08
-1.24552e-11
4.01282e-08
-9.392e-12
4.01183e-08
-6.03358e-12
4.01084e-08
-2.53034e-12
4.00985e-08
1.03126e-12
4.00883e-08
4.63864e-12
4.00776e-08
8.25336e-12
4.00663e-08
1.18103e-11
4.00542e-08
1.52529e-11
4.00413e-08
1.8551e-11
4.00276e-08
2.168e-11
4.00132e-08
2.46175e-11
3.99983e-08
2.7345e-11
3.99828e-08
2.98403e-11
3.9967e-08
3.20829e-11
3.99509e-08
3.40626e-11
3.99348e-08
3.57981e-11
3.99187e-08
3.73707e-11
3.99027e-08
3.89805e-11
3.98871e-08
4.104e-11
3.9872e-08
4.43663e-11
5.06152e-11
4.45035e-08
2.15036e-09
-4.43908e-08
4.46498e-08
2.40321e-09
4.48138e-08
2.60697e-09
4.49832e-08
2.75826e-09
4.51504e-08
2.86124e-09
4.53102e-08
2.92127e-09
4.54583e-08
2.94321e-09
4.55917e-08
2.93222e-09
4.57084e-08
2.89417e-09
4.58076e-08
2.83523e-09
4.58894e-08
2.76135e-09
4.59545e-08
2.67797e-09
4.60043e-08
2.58978e-09
4.60405e-08
2.50063e-09
4.60649e-08
2.41338e-09
4.60793e-08
2.33002e-09
4.60853e-08
2.25175e-09
4.60844e-08
2.17911e-09
4.60776e-08
2.11217e-09
4.6066e-08
2.05068e-09
4.60502e-08
1.99417e-09
4.60307e-08
1.94211e-09
4.6008e-08
1.89389e-09
4.59822e-08
1.84896e-09
4.59537e-08
1.80679e-09
4.59224e-08
1.76692e-09
4.58886e-08
1.72894e-09
4.58523e-08
1.69251e-09
4.58136e-08
1.65731e-09
4.57725e-08
1.62309e-09
4.57292e-08
1.58962e-09
4.56836e-08
1.55671e-09
4.56359e-08
1.52415e-09
4.55863e-08
1.49181e-09
4.55346e-08
1.45952e-09
4.54812e-08
1.42714e-09
4.5426e-08
1.39454e-09
4.53693e-08
1.36159e-09
4.53111e-08
1.32816e-09
4.52516e-08
1.29412e-09
4.5191e-08
1.25936e-09
4.51294e-08
1.22375e-09
4.5067e-08
1.18717e-09
4.5004e-08
1.1495e-09
4.49406e-08
1.11062e-09
4.4877e-08
1.07041e-09
4.48134e-08
1.02873e-09
4.47501e-08
9.85485e-10
4.46872e-08
9.40533e-10
4.46251e-08
8.93762e-10
4.45638e-08
8.45068e-10
4.45037e-08
7.94374e-10
4.44448e-08
7.41655e-10
4.43873e-08
6.86972e-10
4.43314e-08
6.30511e-10
4.42769e-08
5.72636e-10
4.42241e-08
5.13926e-10
4.41728e-08
4.55193e-10
4.41231e-08
3.97455e-10
4.40752e-08
3.41849e-10
4.40292e-08
2.89477e-10
4.39853e-08
2.41253e-10
4.39437e-08
1.97799e-10
4.39046e-08
1.59429e-10
4.3868e-08
1.26197e-10
4.38339e-08
9.79308e-11
4.38021e-08
7.43064e-11
4.37727e-08
5.48973e-11
4.37452e-08
3.9219e-11
4.37193e-08
2.68137e-11
4.3695e-08
1.72294e-11
4.36722e-08
1.00596e-11
4.36508e-08
4.96077e-12
4.36309e-08
1.62079e-12
4.36121e-08
-2.10848e-13
4.35943e-08
-7.57989e-13
4.35774e-08
-2.27316e-13
4.35611e-08
1.20738e-12
4.35452e-08
3.41018e-12
4.35296e-08
6.25117e-12
4.35139e-08
9.60861e-12
4.3498e-08
1.33729e-11
4.34816e-08
1.74338e-11
4.34646e-08
2.16826e-11
4.34468e-08
2.60304e-11
4.34282e-08
3.0392e-11
4.34088e-08
3.46806e-11
4.33885e-08
3.88235e-11
4.33675e-08
4.27553e-11
4.33457e-08
4.64138e-11
4.33233e-08
4.97431e-11
4.33004e-08
5.26903e-11
4.32773e-08
5.52117e-11
4.32541e-08
5.72828e-11
4.32309e-08
5.8917e-11
4.32081e-08
6.0196e-11
4.31858e-08
6.13164e-11
4.31642e-08
6.26624e-11
4.31436e-08
6.49466e-11
6.95054e-11
4.62318e-08
2.04858e-09
-4.613e-08
4.63628e-08
2.27225e-09
4.65112e-08
2.45858e-09
4.66668e-08
2.60267e-09
4.68224e-08
2.70562e-09
4.69729e-08
2.77074e-09
4.71143e-08
2.80176e-09
4.72437e-08
2.80286e-09
4.7359e-08
2.77886e-09
4.74593e-08
2.73493e-09
4.75445e-08
2.67618e-09
4.76151e-08
2.60736e-09
4.76722e-08
2.53265e-09
4.77173e-08
2.45555e-09
4.77519e-08
2.37878e-09
4.77776e-08
2.30431e-09
4.77959e-08
2.23344e-09
4.78082e-08
2.16688e-09
4.78154e-08
2.1049e-09
4.78186e-08
2.04745e-09
4.78186e-08
1.99427e-09
4.78157e-08
1.94497e-09
4.78105e-08
1.89912e-09
4.78032e-08
1.85625e-09
4.7794e-08
1.81593e-09
4.77832e-08
1.77775e-09
4.77708e-08
1.74137e-09
4.77568e-08
1.70645e-09
4.77414e-08
1.67271e-09
4.77246e-08
1.63991e-09
4.77064e-08
1.60782e-09
4.76869e-08
1.57625e-09
4.7666e-08
1.54501e-09
4.76439e-08
1.51396e-09
4.76205e-08
1.48292e-09
4.75959e-08
1.45175e-09
4.75701e-08
1.42033e-09
4.75432e-08
1.3885e-09
4.75152e-08
1.35615e-09
4.74862e-08
1.32314e-09
4.74562e-08
1.28934e-09
4.74253e-08
1.25462e-09
4.73936e-08
1.21887e-09
4.73612e-08
1.18194e-09
4.73281e-08
1.14373e-09
4.72944e-08
1.10409e-09
4.72602e-08
1.06291e-09
4.72256e-08
1.02006e-09
4.71908e-08
9.75415e-10
4.71557e-08
9.28876e-10
4.71204e-08
8.80347e-10
4.7085e-08
8.29771e-10
4.70495e-08
7.77148e-10
4.70139e-08
7.22564e-10
4.69782e-08
6.66234e-10
4.69423e-08
6.08534e-10
4.69062e-08
5.50037e-10
4.68698e-08
4.91521e-10
4.68333e-08
4.33938e-10
4.67969e-08
3.78335e-10
4.67606e-08
3.25731e-10
4.67249e-08
2.76983e-10
4.669e-08
2.32705e-10
4.66562e-08
1.9324e-10
4.66237e-08
1.58692e-10
4.65926e-08
1.28958e-10
4.65632e-08
1.03784e-10
4.65352e-08
8.28161e-11
4.65088e-08
6.56394e-11
4.64838e-08
5.18357e-11
4.646e-08
4.09853e-11
4.64374e-08
3.26964e-11
4.64157e-08
2.66302e-11
4.63949e-08
2.24883e-11
4.63746e-08
2.00132e-11
4.63549e-08
1.89799e-11
4.63355e-08
1.92042e-11
4.63162e-08
2.05227e-11
4.62968e-08
2.27901e-11
4.62772e-08
2.58746e-11
4.62571e-08
2.96525e-11
4.62365e-08
3.40063e-11
4.62151e-08
3.8813e-11
4.61928e-08
4.39424e-11
4.61696e-08
4.92711e-11
4.61453e-08
5.46767e-11
4.612e-08
6.00336e-11
4.60936e-08
6.5223e-11
4.60662e-08
7.01324e-11
4.60379e-08
7.46544e-11
4.6009e-08
7.86896e-11
4.59795e-08
8.21494e-11
4.59498e-08
8.4962e-11
4.592e-08
8.70847e-11
4.58904e-08
8.85208e-11
4.58612e-08
8.93454e-11
4.58328e-08
8.97408e-11
4.58054e-08
9.00418e-11
4.57796e-08
9.08076e-11
9.28754e-11
4.80154e-08
1.95539e-09
-4.79222e-08
4.81336e-08
2.15406e-09
4.82683e-08
2.32394e-09
4.8411e-08
2.4599e-09
4.85554e-08
2.56122e-09
4.86966e-08
2.62957e-09
4.88307e-08
2.66765e-09
4.89548e-08
2.67873e-09
4.9067e-08
2.66671e-09
4.91661e-08
2.63586e-09
4.92517e-08
2.59051e-09
4.93243e-08
2.53475e-09
4.93847e-08
2.47229e-09
4.9434e-08
2.40628e-09
4.94735e-08
2.33926e-09
4.95047e-08
2.27314e-09
4.95288e-08
2.20927e-09
4.95472e-08
2.14848e-09
4.95609e-08
2.09119e-09
4.95709e-08
2.03753e-09
4.95777e-08
1.98739e-09
4.95822e-08
1.94056e-09
4.95846e-08
1.89671e-09
4.95853e-08
1.8555e-09
4.95847e-08
1.81658e-09
4.95828e-08
1.77961e-09
4.95799e-08
1.74429e-09
4.9576e-08
1.71033e-09
4.95713e-08
1.67747e-09
4.95657e-08
1.64549e-09
4.95593e-08
1.61417e-09
4.95522e-08
1.58335e-09
4.95444e-08
1.55283e-09
4.95359e-08
1.52246e-09
4.95267e-08
1.4921e-09
4.95169e-08
1.4616e-09
4.95064e-08
1.43082e-09
4.94952e-08
1.39964e-09
4.94835e-08
1.36791e-09
4.94711e-08
1.33551e-09
4.94581e-08
1.30232e-09
4.94445e-08
1.2682e-09
4.94304e-08
1.23304e-09
4.94156e-08
1.19669e-09
4.94003e-08
1.15905e-09
4.93844e-08
1.11998e-09
4.93679e-08
1.07936e-09
4.93509e-08
1.03708e-09
4.93333e-08
9.93019e-10
4.93151e-08
9.47084e-10
4.92963e-08
8.99199e-10
4.92767e-08
8.49326e-10
4.92564e-08
7.97488e-10
4.92351e-08
7.4379e-10
4.92129e-08
6.8846e-10
4.91896e-08
6.31873e-10
4.9165e-08
5.74575e-10
4.91393e-08
5.17291e-10
4.91123e-08
4.6089e-10
4.90843e-08
4.06318e-10
4.90556e-08
3.54499e-10
4.90263e-08
3.06225e-10
4.89969e-08
2.62083e-10
4.89677e-08
2.2243e-10
4.8939e-08
1.87407e-10
4.8911e-08
1.56968e-10
4.88839e-08
1.30925e-10
4.88577e-08
1.0899e-10
4.88325e-08
9.0811e-11
4.88083e-08
7.60227e-11
4.87851e-08
6.42529e-11
4.87626e-08
5.51477e-11
4.87409e-08
4.83927e-11
4.87196e-08
4.37101e-11
4.86988e-08
4.08565e-11
4.86782e-08
3.96199e-11
4.86575e-08
3.98216e-11
4.86368e-08
4.13037e-11
4.86156e-08
4.39226e-11
4.8594e-08
4.75441e-11
4.85716e-08
5.20381e-11
4.85483e-08
5.72742e-11
4.8524e-08
6.31127e-11
4.84985e-08
6.94019e-11
4.84718e-08
7.59859e-11
4.84438e-08
8.27035e-11
4.84145e-08
8.9386e-11
4.83838e-08
9.5865e-11
4.8352e-08
1.01976e-10
4.83191e-08
1.0756e-10
4.82853e-08
1.12469e-10
4.82509e-08
1.16573e-10
4.82161e-08
1.19766e-10
4.81812e-08
1.21982e-10
4.81465e-08
1.2321e-10
4.81123e-08
1.23511e-10
4.8079e-08
1.23046e-10
4.8047e-08
1.22088e-10
4.80167e-08
1.21026e-10
1.20163e-10
4.98566e-08
1.8692e-09
-4.97704e-08
4.99641e-08
2.04654e-09
5.00867e-08
2.20135e-09
5.02177e-08
2.32886e-09
5.03515e-08
2.42741e-09
5.04836e-08
2.49752e-09
5.06103e-08
2.54095e-09
5.07288e-08
2.5602e-09
5.08372e-08
2.55835e-09
5.09341e-08
2.53889e-09
5.10192e-08
2.50541e-09
5.10925e-08
2.46144e-09
5.11546e-08
2.4102e-09
5.12064e-08
2.3545e-09
5.1249e-08
2.29669e-09
5.12835e-08
2.23858e-09
5.13113e-08
2.18152e-09
5.13334e-08
2.12641e-09
5.13507e-08
2.0738e-09
5.13643e-08
2.02395e-09
5.13748e-08
1.97689e-09
5.13829e-08
1.93253e-09
5.13889e-08
1.89067e-09
5.13933e-08
1.85107e-09
5.13964e-08
1.81346e-09
5.13985e-08
1.77757e-09
5.13996e-08
1.74315e-09
5.14e-08
1.70994e-09
5.13997e-08
1.67773e-09
5.13989e-08
1.64631e-09
5.13976e-08
1.6155e-09
5.13958e-08
1.58511e-09
5.13937e-08
1.555e-09
5.13911e-08
1.52501e-09
5.13882e-08
1.495e-09
5.1385e-08
1.46483e-09
5.13815e-08
1.43437e-09
5.13776e-08
1.4035e-09
5.13734e-08
1.37209e-09
5.13689e-08
1.34001e-09
5.13641e-08
1.30715e-09
5.13589e-08
1.27337e-09
5.13534e-08
1.23857e-09
5.13474e-08
1.20261e-09
5.13411e-08
1.16538e-09
5.13343e-08
1.12676e-09
5.13271e-08
1.08664e-09
5.13192e-08
1.04491e-09
5.13108e-08
1.00147e-09
5.13016e-08
9.56237e-10
5.12917e-08
9.09154e-10
5.12808e-08
8.60204e-10
5.12688e-08
8.09428e-10
5.12557e-08
7.56948e-10
5.12411e-08
7.02996e-10
5.12251e-08
6.47934e-10
5.12074e-08
5.92277e-10
5.1188e-08
5.36687e-10
5.11669e-08
4.81948e-10
5.11443e-08
4.28905e-10
5.11205e-08
3.78387e-10
5.10956e-08
3.31115e-10
5.107e-08
2.87642e-10
5.10441e-08
2.48328e-10
5.10182e-08
2.13339e-10
5.09925e-08
1.82677e-10
5.09672e-08
1.56211e-10
5.09425e-08
1.33713e-10
5.09184e-08
1.14895e-10
5.0895e-08
9.94423e-11
5.08722e-08
8.70319e-11
5.085e-08
7.73526e-11
5.08282e-08
7.01222e-11
5.08069e-08
6.5089e-11
5.07857e-08
6.20312e-11
5.07646e-08
6.07543e-11
5.07433e-08
6.10912e-11
5.07217e-08
6.28927e-11
5.06996e-08
6.60202e-11
5.06768e-08
7.034e-11
5.06531e-08
7.57171e-11
5.06284e-08
8.20092e-11
5.06024e-08
8.90597e-11
5.05751e-08
9.66936e-11
5.05464e-08
1.04722e-10
5.05162e-08
1.12944e-10
5.04844e-08
1.21143e-10
5.04512e-08
1.29099e-10
5.04166e-08
1.36592e-10
5.03807e-08
1.43404e-10
5.03439e-08
1.49337e-10
5.03062e-08
1.54212e-10
5.02681e-08
1.57886e-10
5.02298e-08
1.60264e-10
5.01917e-08
1.61313e-10
5.01541e-08
1.61078e-10
5.01175e-08
1.59692e-10
5.00822e-08
1.57367e-10
5.00489e-08
1.54334e-10
1.50475e-10
5.17576e-08
1.78889e-09
-5.16773e-08
5.18561e-08
1.94803e-09
5.19682e-08
2.08928e-09
5.20886e-08
2.20847e-09
5.22125e-08
2.30352e-09
5.23358e-08
2.37421e-09
5.24552e-08
2.42157e-09
5.2568e-08
2.44741e-09
5.26722e-08
2.45412e-09
5.27666e-08
2.4445e-09
5.28505e-08
2.42151e-09
5.29238e-08
2.38812e-09
5.29869e-08
2.34713e-09
5.30404e-08
2.30101e-09
5.30852e-08
2.25188e-09
5.31223e-08
2.20145e-09
5.31528e-08
2.15104e-09
5.31776e-08
2.10159e-09
5.31977e-08
2.05371e-09
5.32139e-08
2.00776e-09
5.32269e-08
1.9639e-09
5.32373e-08
1.92215e-09
5.32455e-08
1.8824e-09
5.32521e-08
1.84451e-09
5.32573e-08
1.80829e-09
5.32613e-08
1.77353e-09
5.32644e-08
1.74002e-09
5.32668e-08
1.70757e-09
5.32685e-08
1.67598e-09
5.32698e-08
1.64508e-09
5.32706e-08
1.61469e-09
5.3271e-08
1.58466e-09
5.32712e-08
1.55485e-09
5.32711e-08
1.52511e-09
5.32707e-08
1.49532e-09
5.32702e-08
1.46535e-09
5.32695e-08
1.43508e-09
5.32686e-08
1.40437e-09
5.32676e-08
1.37313e-09
5.32664e-08
1.34122e-09
5.3265e-08
1.30854e-09
5.32634e-08
1.27497e-09
5.32616e-08
1.24039e-09
5.32595e-08
1.2047e-09
5.32571e-08
1.16778e-09
5.32543e-08
1.12952e-09
5.32512e-08
1.08983e-09
5.32475e-08
1.0486e-09
5.32432e-08
1.00576e-09
5.32382e-08
9.61231e-10
5.32324e-08
9.14983e-10
5.32255e-08
8.67014e-10
5.32176e-08
8.17383e-10
5.32083e-08
7.66222e-10
5.31975e-08
7.13763e-10
5.31851e-08
6.60356e-10
5.31709e-08
6.06476e-10
5.31549e-08
5.52725e-10
5.3137e-08
4.99805e-10
5.31175e-08
4.48468e-10
5.30964e-08
3.99453e-10
5.30741e-08
3.53413e-10
5.30509e-08
3.10864e-10
5.30271e-08
2.72156e-10
5.30029e-08
2.37478e-10
5.29787e-08
2.06869e-10
5.29547e-08
1.80247e-10
5.2931e-08
1.57439e-10
5.29076e-08
1.38214e-10
5.28848e-08
1.22307e-10
5.28624e-08
1.09445e-10
5.28404e-08
9.9358e-11
5.28187e-08
9.1799e-11
5.27972e-08
8.65448e-11
5.27759e-08
8.33977e-11
5.27544e-08
8.21837e-11
5.27328e-08
8.27505e-11
5.27107e-08
8.49604e-11
5.2688e-08
8.86824e-11
5.26646e-08
9.37852e-11
5.26402e-08
1.00131e-10
5.26146e-08
1.07567e-10
5.25878e-08
1.15922e-10
5.25595e-08
1.24995e-10
5.25296e-08
1.34568e-10
5.24982e-08
1.44395e-10
5.24651e-08
1.54215e-10
5.24304e-08
1.63753e-10
5.23943e-08
1.72729e-10
5.23568e-08
1.8087e-10
5.23183e-08
1.87919e-10
5.22788e-08
1.93649e-10
5.22388e-08
1.97873e-10
5.21986e-08
2.00466e-10
5.21586e-08
2.01368e-10
5.2119e-08
2.00605e-10
5.20805e-08
1.9828e-10
5.20433e-08
1.94552e-10
5.20081e-08
1.89531e-10
1.82866e-10
5.37212e-08
1.71365e-09
-5.3646e-08
5.3812e-08
1.85726e-09
5.39148e-08
1.98645e-09
5.40256e-08
2.0977e-09
5.41403e-08
2.18886e-09
5.42552e-08
2.25925e-09
5.43675e-08
2.30936e-09
5.44744e-08
2.34042e-09
5.45743e-08
2.35426e-09
5.46657e-08
2.35306e-09
5.4748e-08
2.33926e-09
5.48208e-08
2.31532e-09
5.48843e-08
2.28362e-09
5.4939e-08
2.24634e-09
5.49855e-08
2.20536e-09
5.50247e-08
2.16227e-09
5.50574e-08
2.11831e-09