/*--------------------------------*- C++ -*----------------------------------*\
| =========                 |                                                 |
| \\      /  F ield         | OpenFOAM: The Open Source CFD Toolbox           |
|  \\    /   O peration     | Version:  2.3.0                                 |
|   \\  /    A nd           | Web:      www.OpenFOAM.org                      |
|    \\/     M anipulation  |                                                 |
\*---------------------------------------------------------------------------*/
FoamFile
{
    version     2.0;
    format      ascii;
    class       volVectorField;
    location    "0.25";
    object      U;
}
// * * * * * * * * * * * * * * * * * * * * * * * * * * * * * * * * * * * * * //

dimensions      [0 1 -1 0 0 0 0];

internalField   nonuniform List<vector> 
2889
(
(0.173595 0.00566218 0)
(0.156987 0.00590113 0)
(0.141261 0.00557563 0)
(0.126298 0.0050175 0)
(0.112473 0.00437875 0)
(0.100008 0.00372244 0)
(0.088943 0.00308691 0)
(0.0792509 0.00249898 0)
(0.0708781 0.00197555 0)
(0.0637448 0.00152558 0)
(0.0577432 0.00115171 0)
(0.0527449 0.000851307 0)
(0.0486119 0.000617745 0)
(0.0452066 0.000441836 0)
(0.0423992 0.000313379 0)
(0.0400733 0.000222372 0)
(0.0381285 0.000159818 0)
(0.0364818 0.000118108 0)
(0.0350665 9.11256e-05 0)
(0.0338307 7.41583e-05 0)
(0.032735 6.37186e-05 0)
(0.0317501 5.73313e-05 0)
(0.0308543 5.33161e-05 0)
(0.0300319 5.05875e-05 0)
(0.0292714 4.84837e-05 0)
(0.0285642 4.66301e-05 0)
(0.0279039 4.48358e-05 0)
(0.0272856 4.30206e-05 0)
(0.0267053 4.11655e-05 0)
(0.0261597 3.92814e-05 0)
(0.0256461 3.73909e-05 0)
(0.025162 3.55179e-05 0)
(0.0247054 3.36829e-05 0)
(0.0242743 3.19015e-05 0)
(0.0238671 3.01841e-05 0)
(0.0234823 2.85365e-05 0)
(0.0231185 2.69614e-05 0)
(0.0227746 2.54588e-05 0)
(0.0224494 2.40268e-05 0)
(0.0221421 2.26626e-05 0)
(0.0218517 2.13627e-05 0)
(0.0215775 2.01233e-05 0)
(0.0213188 1.89407e-05 0)
(0.0210751 1.78114e-05 0)
(0.0208458 1.6733e-05 0)
(0.0206305 1.57036e-05 0)
(0.0204287 1.47228e-05 0)
(0.0202401 1.37907e-05 0)
(0.0200643 1.29071e-05 0)
(0.0199011 1.207e-05 0)
(0.0197503 1.12721e-05 0)
(0.0196116 1.04971e-05 0)
(0.0194852 9.71462e-06 0)
(0.0193712 8.87521e-06 0)
(0.0192702 7.90743e-06 0)
(0.0191829 6.72498e-06 0)
(0.0191107 5.26424e-06 0)
(0.0190551 3.57651e-06 0)
(0.0190183 1.8377e-06 0)
(0.0190026 4.39124e-07 0)
(0.0190071 -1.14874e-06 0)
(0.0190252 -2.38235e-06 0)
(0.0190537 -3.46147e-06 0)
(0.0190899 -4.25303e-06 0)
(0.0191312 -4.71331e-06 0)
(0.0191753 -4.88853e-06 0)
(0.0192203 -4.85932e-06 0)
(0.0192647 -4.68588e-06 0)
(0.0193074 -4.42002e-06 0)
(0.0193476 -4.09796e-06 0)
(0.019385 -3.74834e-06 0)
(0.0194192 -3.39361e-06 0)
(0.0194503 -3.04742e-06 0)
(0.0194783 -2.7187e-06 0)
(0.0195034 -2.41313e-06 0)
(0.0195257 -2.13334e-06 0)
(0.0195454 -1.87949e-06 0)
(0.0195627 -1.65053e-06 0)
(0.0195779 -1.44477e-06 0)
(0.0195912 -1.25996e-06 0)
(0.0196027 -1.09359e-06 0)
(0.0196126 -9.43594e-07 0)
(0.019621 -8.09086e-07 0)
(0.0196282 -6.89244e-07 0)
(0.0196342 -5.82204e-07 0)
(0.0196392 -4.879e-07 0)
(0.0196434 -4.06576e-07 0)
(0.0196467 -3.36851e-07 0)
(0.0196494 -2.77858e-07 0)
(0.0196516 -2.26873e-07 0)
(0.0196533 -1.80207e-07 0)
(0.0196545 -1.35195e-07 0)
(0.0196554 -9.13971e-08 0)
(0.0196558 -5.34008e-08 0)
(0.0196557 2.35053e-09 0)
(0.0196549 9.58689e-08 0)
(0.0196532 2.25841e-07 0)
(0.01965 4.11916e-07 0)
(0.0196452 6.61361e-07 0)
(0.0196302 2.50631e-06 0)
(0.192765 0.00905896 0)
(0.190473 0.00979443 0)
(0.186719 0.00968806 0)
(0.181714 0.00923251 0)
(0.175909 0.00862321 0)
(0.169671 0.00792095 0)
(0.163236 0.00716343 0)
(0.156773 0.00638527 0)
(0.150414 0.00561622 0)
(0.144264 0.00488071 0)
(0.13839 0.00419793 0)
(0.132838 0.00358145 0)
(0.127628 0.0030389 0)
(0.122766 0.0025723 0)
(0.118247 0.00217902 0)
(0.114056 0.00185305 0)
(0.110176 0.00158628 0)
(0.106583 0.00136976 0)
(0.103257 0.00119463 0)
(0.100174 0.00105279 0)
(0.0973118 0.000937195 0)
(0.0946506 0.000842044 0)
(0.0921715 0.000762702 0)
(0.0898575 0.000695577 0)
(0.0876932 0.000637946 0)
(0.0856652 0.000587773 0)
(0.0837613 0.000543551 0)
(0.081971 0.000504158 0)
(0.0802847 0.00046876 0)
(0.0786943 0.00043672 0)
(0.0771924 0.000407547 0)
(0.0757725 0.00038085 0)
(0.0744289 0.000356312 0)
(0.0731565 0.000333669 0)
(0.0719509 0.000312696 0)
(0.070808 0.000293201 0)
(0.0697243 0.000275016 0)
(0.0686967 0.000257993 0)
(0.0677224 0.000242005 0)
(0.066799 0.000226936 0)
(0.0659243 0.000212687 0)
(0.0650965 0.000199167 0)
(0.0643138 0.000186297 0)
(0.0635749 0.000174007 0)
(0.0628785 0.000162237 0)
(0.0622236 0.000150932 0)
(0.0616093 0.000140047 0)
(0.0610349 0.000129539 0)
(0.0604998 0.000119366 0)
(0.0600036 0.000109482 0)
(0.0595461 9.98241e-05 0)
(0.0591274 9.03112e-05 0)
(0.0587478 8.08292e-05 0)
(0.058408 7.1228e-05 0)
(0.058109 6.13207e-05 0)
(0.0578522 5.08965e-05 0)
(0.0576389 3.97693e-05 0)
(0.0574708 2.78866e-05 0)
(0.0573484 1.53724e-05 0)
(0.0572715 2.81218e-06 0)
(0.0572432 -8.5681e-06 0)
(0.0572577 -1.64046e-05 0)
(0.0573009 -2.11718e-05 0)
(0.0573644 -2.41475e-05 0)
(0.0574414 -2.5851e-05 0)
(0.0575264 -2.64562e-05 0)
(0.0576151 -2.6158e-05 0)
(0.057704 -2.51555e-05 0)
(0.0577906 -2.36761e-05 0)
(0.0578731 -2.19093e-05 0)
(0.0579505 -2.0005e-05 0)
(0.0580219 -1.80754e-05 0)
(0.0580871 -1.61914e-05 0)
(0.0581461 -1.43983e-05 0)
(0.058199 -1.27246e-05 0)
(0.0582461 -1.11844e-05 0)
(0.0582878 -9.7809e-06 0)
(0.0583243 -8.51083e-06 0)
(0.0583561 -7.36757e-06 0)
(0.0583836 -6.34197e-06 0)
(0.0584072 -5.42365e-06 0)
(0.0584272 -4.60305e-06 0)
(0.058444 -3.87444e-06 0)
(0.0584579 -3.23263e-06 0)
(0.0584692 -2.66867e-06 0)
(0.0584784 -2.17842e-06 0)
(0.0584856 -1.7595e-06 0)
(0.0584911 -1.40433e-06 0)
(0.0584952 -1.10584e-06 0)
(0.0584982 -8.52117e-07 0)
(0.0585002 -6.31583e-07 0)
(0.0585013 -4.30136e-07 0)
(0.0585016 -2.45292e-07 0)
(0.0585012 -3.70837e-08 0)
(0.0584996 2.48114e-07 0)
(0.0584967 6.41394e-07 0)
(0.0584921 1.17e-06 0)
(0.0584852 1.93501e-06 0)
(0.0584756 3.23594e-06 0)
(0.0584508 7.68642e-06 0)
(0.195724 0.00869373 0)
(0.196529 0.00980126 0)
(0.196782 0.0102373 0)
(0.196265 0.0102897 0)
(0.195053 0.0101005 0)
(0.193266 0.00972047 0)
(0.190999 0.00919185 0)
(0.188341 0.00856227 0)
(0.18538 0.00787689 0)
(0.182202 0.0071744 0)
(0.178884 0.00648607 0)
(0.17549 0.00583525 0)
(0.172072 0.00523729 0)
(0.16867 0.00470015 0)
(0.165314 0.00422573 0)
(0.162025 0.0038115 0)
(0.158818 0.00345216 0)
(0.155701 0.00314103 0)
(0.15268 0.00287113 0)
(0.149756 0.0026359 0)
(0.146929 0.00242952 0)
(0.1442 0.00224708 0)
(0.141565 0.00208456 0)
(0.139024 0.00193873 0)
(0.136573 0.001807 0)
(0.134211 0.00168734 0)
(0.131935 0.00157811 0)
(0.129743 0.00147797 0)
(0.127633 0.00138584 0)
(0.125601 0.00130079 0)
(0.123646 0.00122207 0)
(0.121766 0.00114898 0)
(0.119958 0.00108095 0)
(0.118221 0.00101745 0)
(0.116552 0.000958029 0)
(0.114949 0.000902267 0)
(0.113412 0.000849792 0)
(0.111938 0.000800271 0)
(0.110527 0.000753402 0)
(0.109175 0.000708911 0)
(0.107884 0.000666552 0)
(0.10665 0.000626101 0)
(0.105474 0.000587354 0)
(0.104355 0.000550129 0)
(0.103293 0.000514257 0)
(0.102285 0.00047959 0)
(0.101334 0.000445986 0)
(0.100438 0.000413314 0)
(0.099597 0.000381442 0)
(0.0988119 0.000350227 0)
(0.0980828 0.000319509 0)
(0.0974106 0.000289098 0)
(0.0967959 0.000258773 0)
(0.09624 0.00022829 0)
(0.0957442 0.000197411 0)
(0.0953095 0.000165951 0)
(0.0949368 0.000133856 0)
(0.0946263 0.00010129 0)
(0.0943765 6.87012e-05 0)
(0.094183 3.66807e-05 0)
(0.0940362 6.63439e-06 0)
(0.093943 -1.92599e-05 0)
(0.0939092 -3.82892e-05 0)
(0.0939175 -5.01579e-05 0)
(0.0939563 -5.67767e-05 0)
(0.0940167 -5.98292e-05 0)
(0.0940914 -6.04022e-05 0)
(0.0941746 -5.91137e-05 0)
(0.0942619 -5.64793e-05 0)
(0.0943498 -5.29303e-05 0)
(0.0944358 -4.88385e-05 0)
(0.0945181 -4.45036e-05 0)
(0.0945955 -4.01338e-05 0)
(0.0946673 -3.58718e-05 0)
(0.0947329 -3.18123e-05 0)
(0.0947922 -2.80116e-05 0)
(0.0948454 -2.44963e-05 0)
(0.0948924 -2.12747e-05 0)
(0.0949336 -1.83437e-05 0)
(0.0949693 -1.56923e-05 0)
(0.0949998 -1.3305e-05 0)
(0.0950255 -1.11653e-05 0)
(0.0950467 -9.26257e-06 0)
(0.0950639 -7.58676e-06 0)
(0.0950775 -6.12036e-06 0)
(0.0950878 -4.85235e-06 0)
(0.0950954 -3.77247e-06 0)
(0.0951005 -2.86166e-06 0)
(0.0951037 -2.10692e-06 0)
(0.0951052 -1.47884e-06 0)
(0.0951053 -9.50356e-07 0)
(0.0951042 -4.9621e-07 0)
(0.0951022 -3.96783e-08 0)
(0.0950986 5.07352e-07 0)
(0.0950934 1.19672e-06 0)
(0.0950864 2.05048e-06 0)
(0.0950775 3.14921e-06 0)
(0.0950662 4.72911e-06 0)
(0.0950517 7.52068e-06 0)
(0.0950222 1.39682e-05 0)
(0.19675 0.0080558 0)
(0.197908 0.00920062 0)
(0.199013 0.00984174 0)
(0.19983 0.010134 0)
(0.200309 0.0101819 0)
(0.200453 0.0100293 0)
(0.200263 0.00971082 0)
(0.199744 0.00926717 0)
(0.198918 0.00873956 0)
(0.197819 0.00816523 0)
(0.196488 0.00757593 0)
(0.194965 0.00699711 0)
(0.193291 0.00644731 0)
(0.191503 0.00593833 0)
(0.18963 0.00547603 0)
(0.187699 0.00506162 0)
(0.185731 0.00469307 0)
(0.183741 0.00436637 0)
(0.181741 0.00407655 0)
(0.17974 0.00381847 0)
(0.177745 0.00358729 0)
(0.175761 0.0033787 0)
(0.173792 0.00318904 0)
(0.171841 0.0030153 0)
(0.169911 0.00285505 0)
(0.168004 0.00270633 0)
(0.166123 0.00256762 0)
(0.164269 0.00243766 0)
(0.162445 0.00231548 0)
(0.160653 0.00220024 0)
(0.158893 0.00209128 0)
(0.157167 0.001988 0)
(0.155477 0.0018899 0)
(0.153823 0.00179653 0)
(0.152208 0.00170748 0)
(0.150632 0.00162238 0)
(0.149096 0.00154089 0)
(0.147601 0.0014627 0)
(0.146149 0.00138751 0)
(0.144739 0.00131506 0)
(0.143374 0.00124508 0)
(0.142053 0.00117733 0)
(0.140779 0.00111159 0)
(0.139552 0.00104765 0)
(0.138373 0.000985304 0)
(0.137243 0.000924365 0)
(0.136163 0.000864651 0)
(0.135135 0.00080598 0)
(0.13416 0.000748165 0)
(0.133239 0.000691004 0)
(0.132374 0.000634273 0)
(0.131567 0.000577726 0)
(0.13082 0.000521097 0)
(0.130134 0.000464135 0)
(0.12951 0.00040665 0)
(0.128951 0.000348602 0)
(0.128457 0.000290221 0)
(0.128028 0.00023216 0)
(0.12766 0.000175665 0)
(0.127353 0.000122442 0)
(0.1271 7.36636e-05 0)
(0.12689 2.96588e-05 0)
(0.126717 -8.38553e-06 0)
(0.126596 -3.87282e-05 0)
(0.126524 -6.02582e-05 0)
(0.126491 -7.36994e-05 0)
(0.126487 -8.0969e-05 0)
(0.126505 -8.37441e-05 0)
(0.126539 -8.33346e-05 0)
(0.126585 -8.06574e-05 0)
(0.126638 -7.64246e-05 0)
(0.126695 -7.12062e-05 0)
(0.126753 -6.5426e-05 0)
(0.126811 -5.94033e-05 0)
(0.126867 -5.33721e-05 0)
(0.12692 -4.7495e-05 0)
(0.126968 -4.18758e-05 0)
(0.127013 -3.65787e-05 0)
(0.127052 -3.16406e-05 0)
(0.127087 -2.70784e-05 0)
(0.127117 -2.28955e-05 0)
(0.127142 -1.90885e-05 0)
(0.127162 -1.5658e-05 0)
(0.127178 -1.26015e-05 0)
(0.12719 -9.90154e-06 0)
(0.127198 -7.55344e-06 0)
(0.127202 -5.55468e-06 0)
(0.127204 -3.87019e-06 0)
(0.127203 -2.48095e-06 0)
(0.1272 -1.36667e-06 0)
(0.127196 -4.23517e-07 0)
(0.12719 4.65769e-07 0)
(0.127181 1.40688e-06 0)
(0.12717 2.46252e-06 0)
(0.127157 3.6539e-06 0)
(0.127142 5.01917e-06 0)
(0.127126 6.70203e-06 0)
(0.127107 9.07927e-06 0)
(0.127085 1.31522e-05 0)
(0.127049 2.12219e-05 0)
(0.197471 0.00754713 0)
(0.198496 0.00859681 0)
(0.199611 0.00926009 0)
(0.20065 0.00962478 0)
(0.201553 0.00977114 0)
(0.202299 0.00973871 0)
(0.202866 0.00955479 0)
(0.203231 0.00925011 0)
(0.203387 0.00885747 0)
(0.203335 0.00840798 0)
(0.203088 0.00792944 0)
(0.202666 0.00744524 0)
(0.20209 0.00697363 0)
(0.201383 0.00652737 0)
(0.200567 0.00611406 0)
(0.199662 0.00573703 0)
(0.198685 0.00539634 0)
(0.19765 0.00508991 0)
(0.196568 0.00481441 0)
(0.195448 0.00456598 0)
(0.194297 0.00434077 0)
(0.19312 0.00413519 0)
(0.19192 0.00394614 0)
(0.190703 0.00377098 0)
(0.189471 0.00360755 0)
(0.188227 0.00345411 0)
(0.186973 0.00330928 0)
(0.185712 0.00317193 0)
(0.184446 0.00304117 0)
(0.183179 0.00291627 0)
(0.181911 0.00279662 0)
(0.180646 0.0026817 0)
(0.179386 0.00257107 0)
(0.178132 0.00246433 0)
(0.176888 0.00236113 0)
(0.175654 0.00226115 0)
(0.174434 0.00216408 0)
(0.173228 0.00206965 0)
(0.17204 0.0019776 0)
(0.170871 0.00188768 0)
(0.169723 0.00179966 0)
(0.168599 0.00171332 0)
(0.167499 0.00162845 0)
(0.166427 0.00154485 0)
(0.165385 0.00146232 0)
(0.164373 0.00138068 0)
(0.163395 0.00129972 0)
(0.162453 0.00121928 0)
(0.161549 0.00113913 0)
(0.160685 0.00105906 0)
(0.159864 0.000978852 0)
(0.159088 0.000898244 0)
(0.158359 0.00081701 0)
(0.15768 0.000734977 0)
(0.157053 0.000652102 0)
(0.156478 0.000568582 0)
(0.155957 0.000484985 0)
(0.15549 0.00040238 0)
(0.155075 0.000322409 0)
(0.15471 0.000247152 0)
(0.154394 0.000178734 0)
(0.154121 0.000118522 0)
(0.153888 6.61538e-05 0)
(0.153681 2.12898e-05 0)
(0.153502 -1.55282e-05 0)
(0.153362 -4.39994e-05 0)
(0.153257 -6.4133e-05 0)
(0.153182 -7.69419e-05 0)
(0.153132 -8.40222e-05 0)
(0.153101 -8.67752e-05 0)
(0.153087 -8.63564e-05 0)
(0.153085 -8.36744e-05 0)
(0.153092 -7.94017e-05 0)
(0.153106 -7.40633e-05 0)
(0.153124 -6.80685e-05 0)
(0.153145 -6.17286e-05 0)
(0.153166 -5.52707e-05 0)
(0.153188 -4.88617e-05 0)
(0.153208 -4.26234e-05 0)
(0.153225 -3.66417e-05 0)
(0.15324 -3.0976e-05 0)
(0.153252 -2.5669e-05 0)
(0.153261 -2.0768e-05 0)
(0.153266 -1.63146e-05 0)
(0.153267 -1.23129e-05 0)
(0.153265 -8.76937e-06 0)
(0.153259 -5.72751e-06 0)
(0.153251 -3.2033e-06 0)
(0.153241 -1.09928e-06 0)
(0.153228 7.21e-07 0)
(0.153212 2.39245e-06 0)
(0.153193 4.03599e-06 0)
(0.153171 5.6981e-06 0)
(0.153147 7.3931e-06 0)
(0.15312 9.13868e-06 0)
(0.153092 1.10048e-05 0)
(0.153063 1.32001e-05 0)
(0.153031 1.62209e-05 0)
(0.152999 2.12217e-05 0)
(0.152951 3.05266e-05 0)
(0.198073 0.00709969 0)
(0.198931 0.00803034 0)
(0.199907 0.00866775 0)
(0.200884 0.00905548 0)
(0.20181 0.00924948 0)
(0.202659 0.00928346 0)
(0.203409 0.0091807 0)
(0.204039 0.00896615 0)
(0.204535 0.00866689 0)
(0.204891 0.00830937 0)
(0.205108 0.00791763 0)
(0.205194 0.00751237 0)
(0.205159 0.00711029 0)
(0.205018 0.00672365 0)
(0.204784 0.00636042 0)
(0.204472 0.00602483 0)
(0.204093 0.00571817 0)
(0.203658 0.00543962 0)
(0.203176 0.00518704 0)
(0.202652 0.00495764 0)
(0.202094 0.00474837 0)
(0.201503 0.0045563 0)
(0.200885 0.00437879 0)
(0.20024 0.00421351 0)
(0.199572 0.00405852 0)
(0.198881 0.00391223 0)
(0.198171 0.00377332 0)
(0.197442 0.00364074 0)
(0.196697 0.00351363 0)
(0.195936 0.00339129 0)
(0.195162 0.00327312 0)
(0.194376 0.00315863 0)
(0.193579 0.00304739 0)
(0.192775 0.00293903 0)
(0.191963 0.00283322 0)
(0.191147 0.00272965 0)
(0.190327 0.00262805 0)
(0.189507 0.00252815 0)
(0.188687 0.00242971 0)
(0.187869 0.0023325 0)
(0.187056 0.00223631 0)
(0.186249 0.00214091 0)
(0.18545 0.00204611 0)
(0.184662 0.00195171 0)
(0.183886 0.00185752 0)
(0.183125 0.00176335 0)
(0.18238 0.00166901 0)
(0.181655 0.00157431 0)
(0.180951 0.00147904 0)
(0.18027 0.00138299 0)
(0.179616 0.00128595 0)
(0.178989 0.0011877 0)
(0.178393 0.00108808 0)
(0.17783 0.000987041 0)
(0.177301 0.000884712 0)
(0.176808 0.000781532 0)
(0.176351 0.000678362 0)
(0.17593 0.000576581 0)
(0.175546 0.000478087 0)
(0.175196 0.000385122 0)
(0.17488 0.000299894 0)
(0.174598 0.00022398 0)
(0.174346 0.000158204 0)
(0.174123 0.000102569 0)
(0.173926 5.59304e-05 0)
(0.173744 1.74423e-05 0)
(0.173582 -1.31496e-05 0)
(0.173443 -3.64089e-05 0)
(0.173327 -5.29708e-05 0)
(0.173231 -6.37442e-05 0)
(0.173153 -6.98824e-05 0)
(0.17309 -7.24524e-05 0)
(0.173039 -7.23033e-05 0)
(0.172999 -7.01181e-05 0)
(0.172968 -6.64427e-05 0)
(0.172943 -6.17115e-05 0)
(0.172923 -5.62579e-05 0)
(0.172906 -5.0346e-05 0)
(0.172891 -4.41873e-05 0)
(0.172877 -3.79482e-05 0)
(0.172863 -3.1761e-05 0)
(0.172848 -2.57273e-05 0)
(0.172831 -1.9949e-05 0)
(0.172813 -1.45483e-05 0)
(0.172793 -9.64792e-06 0)
(0.172771 -5.29793e-06 0)
(0.172746 -1.45204e-06 0)
(0.172719 1.94257e-06 0)
(0.172688 4.98996e-06 0)
(0.172653 7.82584e-06 0)
(0.172615 1.05103e-05 0)
(0.172574 1.30614e-05 0)
(0.17253 1.54826e-05 0)
(0.172484 1.77794e-05 0)
(0.172436 1.99821e-05 0)
(0.172388 2.21919e-05 0)
(0.172339 2.46698e-05 0)
(0.172289 2.79901e-05 0)
(0.172239 3.33761e-05 0)
(0.172175 4.32573e-05 0)
(0.198586 0.0067085 0)
(0.199309 0.00752833 0)
(0.200145 0.00812632 0)
(0.201012 0.00851723 0)
(0.201864 0.00873616 0)
(0.202672 0.00881015 0)
(0.203418 0.00875976 0)
(0.204084 0.00860627 0)
(0.204656 0.00837277 0)
(0.205128 0.00808214 0)
(0.2055 0.00775536 0)
(0.205773 0.00741077 0)
(0.205957 0.00706343 0)
(0.206059 0.00672479 0)
(0.206089 0.00640273 0)
(0.206059 0.00610192 0)
(0.205976 0.00582441 0)
(0.20585 0.00557029 0)
(0.205687 0.00533834 0)
(0.205491 0.00512658 0)
(0.205268 0.00493265 0)
(0.20502 0.00475415 0)
(0.20475 0.00458883 0)
(0.204458 0.00443465 0)
(0.204148 0.00428983 0)
(0.203818 0.00415291 0)
(0.203471 0.00402263 0)
(0.203107 0.00389797 0)
(0.202727 0.00377808 0)
(0.202331 0.00366225 0)
(0.201921 0.0035499 0)
(0.201498 0.00344051 0)
(0.201062 0.00333366 0)
(0.200613 0.00322896 0)
(0.200155 0.00312607 0)
(0.199686 0.00302468 0)
(0.199209 0.00292449 0)
(0.198724 0.00282526 0)
(0.198233 0.00272671 0)
(0.197737 0.00262862 0)
(0.197237 0.00253076 0)
(0.196735 0.00243291 0)
(0.196232 0.00233486 0)
(0.19573 0.00223641 0)
(0.19523 0.00213734 0)
(0.194733 0.00203747 0)
(0.194242 0.00193661 0)
(0.193758 0.00183454 0)
(0.193282 0.00173107 0)
(0.192818 0.00162599 0)
(0.192365 0.00151912 0)
(0.191927 0.00141029 0)
(0.191504 0.00129942 0)
(0.191098 0.00118658 0)
(0.190711 0.00107205 0)
(0.190343 0.000956457 0)
(0.189994 0.000840862 0)
(0.189665 0.000726822 0)
(0.189355 0.000616345 0)
(0.189066 0.000511698 0)
(0.188796 0.000415043 0)
(0.188545 0.000328021 0)
(0.188315 0.000251594 0)
(0.188104 0.000185954 0)
(0.187912 0.000130811 0)
(0.187738 8.54459e-05 0)
(0.187578 4.8505e-05 0)
(0.18743 1.88634e-05 0)
(0.187293 -4.15388e-06 0)
(0.187169 -2.13755e-05 0)
(0.187059 -3.36196e-05 0)
(0.186961 -4.16246e-05 0)
(0.186874 -4.61541e-05 0)
(0.186797 -4.7903e-05 0)
(0.186728 -4.746e-05 0)
(0.186665 -4.5318e-05 0)
(0.186609 -4.18714e-05 0)
(0.186556 -3.7443e-05 0)
(0.186506 -3.23044e-05 0)
(0.186459 -2.66882e-05 0)
(0.186413 -2.08089e-05 0)
(0.186367 -1.4879e-05 0)
(0.186321 -9.04943e-06 0)
(0.186274 -3.39748e-06 0)
(0.186226 1.97555e-06 0)
(0.186175 6.99759e-06 0)
(0.186121 1.17041e-05 0)
(0.186063 1.61455e-05 0)
(0.186001 2.0321e-05 0)
(0.185936 2.4214e-05 0)
(0.185868 2.78088e-05 0)
(0.185797 3.1091e-05 0)
(0.185724 3.40508e-05 0)
(0.185649 3.66897e-05 0)
(0.185574 3.90445e-05 0)
(0.185499 4.12371e-05 0)
(0.185425 4.35591e-05 0)
(0.185352 4.66142e-05 0)
(0.185281 5.16119e-05 0)
(0.185194 6.09757e-05 0)
(0.199024 0.00636434 0)
(0.199642 0.00708541 0)
(0.200358 0.0076377 0)
(0.201118 0.00801986 0)
(0.201882 0.00825156 0)
(0.202621 0.00835295 0)
(0.203315 0.00834151 0)
(0.203949 0.00823527 0)
(0.204512 0.00805375 0)
(0.204997 0.00781663 0)
(0.205402 0.00754226 0)
(0.205731 0.0072469 0)
(0.205986 0.00694416 0)
(0.206177 0.00664472 0)
(0.206311 0.00635625 0)
(0.206395 0.0060837 0)
(0.206439 0.00582969 0)
(0.206449 0.00559502 0)
(0.20643 0.00537924 0)
(0.206388 0.00518107 0)
(0.206325 0.00499876 0)
(0.206246 0.00483044 0)
(0.20615 0.00467421 0)
(0.206041 0.00452833 0)
(0.205919 0.00439123 0)
(0.205785 0.00426155 0)
(0.205639 0.00413813 0)
(0.205482 0.00401998 0)
(0.205314 0.00390628 0)
(0.205135 0.00379632 0)
(0.204946 0.00368951 0)
(0.204747 0.00358532 0)
(0.204538 0.0034833 0)
(0.20432 0.00338306 0)
(0.204093 0.00328423 0)
(0.203857 0.00318648 0)
(0.203614 0.00308951 0)
(0.203363 0.00299303 0)
(0.203105 0.00289678 0)
(0.202842 0.00280049 0)
(0.202573 0.00270393 0)
(0.202299 0.00260685 0)
(0.202021 0.00250903 0)
(0.20174 0.00241025 0)
(0.201456 0.00231029 0)
(0.201172 0.00220895 0)
(0.200886 0.00210601 0)
(0.200602 0.00200127 0)
(0.200319 0.00189453 0)
(0.200039 0.00178561 0)
(0.199762 0.00167433 0)
(0.19949 0.00156058 0)
(0.199223 0.00144437 0)
(0.198963 0.00132583 0)
(0.198708 0.00120538 0)
(0.198461 0.00108375 0)
(0.198221 0.000962107 0)
(0.197988 0.000842053 0)
(0.197761 0.000725584 0)
(0.197543 0.000614886 0)
(0.197332 0.000512025 0)
(0.197131 0.000418615 0)
(0.196939 0.000335643 0)
(0.196758 0.000263453 0)
(0.196589 0.000201902 0)
(0.19643 0.000150381 0)
(0.196283 0.000108026 0)
(0.196146 7.38877e-05 0)
(0.196019 4.67904e-05 0)
(0.1959 2.55978e-05 0)
(0.195787 9.4982e-06 0)
(0.195682 -2.17068e-06 0)
(0.195583 -1.01072e-05 0)
(0.19549 -1.4953e-05 0)
(0.195404 -1.72537e-05 0)
(0.195322 -1.74574e-05 0)
(0.195245 -1.59606e-05 0)
(0.195171 -1.30967e-05 0)
(0.195099 -9.14098e-06 0)
(0.195028 -4.33818e-06 0)
(0.194959 1.07665e-06 0)
(0.194888 6.86569e-06 0)
(0.194816 1.28515e-05 0)
(0.194741 1.89419e-05 0)
(0.194663 2.50558e-05 0)
(0.194582 3.10928e-05 0)
(0.194497 3.69398e-05 0)
(0.194408 4.24985e-05 0)
(0.194315 4.76888e-05 0)
(0.194219 5.2448e-05 0)
(0.19412 5.67303e-05 0)
(0.194019 6.0493e-05 0)
(0.193915 6.37011e-05 0)
(0.193811 6.63413e-05 0)
(0.193707 6.84495e-05 0)
(0.193604 7.01578e-05 0)
(0.193503 7.17682e-05 0)
(0.193404 7.3868e-05 0)
(0.19331 7.75645e-05 0)
(0.193199 8.49945e-05 0)
(0.199395 0.00605581 0)
(0.199929 0.00669041 0)
(0.200547 0.00719554 0)
(0.201212 0.00756215 0)
(0.201893 0.00779923 0)
(0.20256 0.0079206 0)
(0.203196 0.00794024 0)
(0.203784 0.00787308 0)
(0.204315 0.00773541 0)
(0.204782 0.00754395 0)
(0.205183 0.00731467 0)
(0.205518 0.00706191 0)
(0.205793 0.00679796 0)
(0.206012 0.0065327 0)
(0.206183 0.00627354 0)
(0.206311 0.00602554 0)
(0.206404 0.00579174 0)
(0.206469 0.00557352 0)
(0.206509 0.00537108 0)
(0.206531 0.00518375 0)
(0.206537 0.00501037 0)
(0.20653 0.00484952 0)
(0.206512 0.0046997 0)
(0.206484 0.00455946 0)
(0.206449 0.00442746 0)
(0.206405 0.00430249 0)
(0.206355 0.00418349 0)
(0.206298 0.00406955 0)
(0.206234 0.00395987 0)
(0.206165 0.00385379 0)
(0.206089 0.0037507 0)
(0.206008 0.0036501 0)
(0.20592 0.00355153 0)
(0.205827 0.00345457 0)
(0.205729 0.00335886 0)
(0.205625 0.00326406 0)
(0.205516 0.00316985 0)
(0.205402 0.00307593 0)
(0.205284 0.00298201 0)
(0.205161 0.00288784 0)
(0.205033 0.00279314 0)
(0.204902 0.00269768 0)
(0.204766 0.0026012 0)
(0.204628 0.00250348 0)
(0.204486 0.00240428 0)
(0.204342 0.0023034 0)
(0.204195 0.00220061 0)
(0.204047 0.0020957 0)
(0.203897 0.00198849 0)
(0.203745 0.00187881 0)
(0.203593 0.0017665 0)
(0.203441 0.00165152 0)
(0.203287 0.00153391 0)
(0.203134 0.00141389 0)
(0.20298 0.00129193 0)
(0.202825 0.00116882 0)
(0.20267 0.00104573 0)
(0.202513 0.000924241 0)
(0.202356 0.000806235 0)
(0.202199 0.000693751 0)
(0.202041 0.00058871 0)
(0.201885 0.000492647 0)
(0.201733 0.000406554 0)
(0.201584 0.000330858 0)
(0.20144 0.000265508 0)
(0.201303 0.000210054 0)
(0.201172 0.000163787 0)
(0.201048 0.000125818 0)
(0.200931 9.51596e-05 0)
(0.20082 7.09066e-05 0)
(0.200715 5.2172e-05 0)
(0.200615 3.80998e-05 0)
(0.200519 2.79577e-05 0)
(0.200428 2.11281e-05 0)
(0.200339 1.70949e-05 0)
(0.200253 1.54364e-05 0)
(0.200169 1.57751e-05 0)
(0.200085 1.77885e-05 0)
(0.200002 2.12072e-05 0)
(0.199918 2.57897e-05 0)
(0.199832 3.13148e-05 0)
(0.199745 3.75863e-05 0)
(0.199654 4.44114e-05 0)
(0.19956 5.15814e-05 0)
(0.199462 5.89011e-05 0)
(0.199359 6.61898e-05 0)
(0.199252 7.32737e-05 0)
(0.19914 8.00067e-05 0)
(0.199024 8.62623e-05 0)
(0.198904 9.19248e-05 0)
(0.19878 9.68906e-05 0)
(0.198654 0.000101067 0)
(0.198526 0.000104384 0)
(0.198397 0.000106807 0)
(0.198268 0.00010837 0)
(0.198141 0.000109206 0)
(0.198016 0.00010961 0)
(0.197896 0.000110121 0)
(0.197781 0.000111663 0)
(0.197648 0.000115787 0)
(0.199706 0.00577497 0)
(0.200174 0.00633508 0)
(0.200711 0.00679472 0)
(0.201294 0.00714204 0)
(0.201898 0.00737919 0)
(0.202499 0.00751469 0)
(0.203077 0.00755917 0)
(0.203618 0.00752469 0)
(0.204112 0.00742466 0)
(0.204553 0.00727314 0)
(0.204939 0.00708383 0)
(0.205268 0.00686932 0)
(0.205544 0.00664057 0)
(0.205771 0.00640665 0)
(0.205955 0.00617459 0)
(0.2061 0.00594945 0)
(0.206214 0.00573452 0)
(0.206301 0.00553164 0)
(0.206367 0.00534152 0)
(0.206415 0.00516402 0)
(0.206449 0.0049985 0)
(0.206472 0.00484397 0)
(0.206486 0.00469931 0)
(0.206492 0.00456335 0)
(0.206492 0.00443499 0)
(0.206486 0.00431319 0)
(0.206476 0.00419703 0)
(0.206462 0.00408566 0)
(0.206444 0.00397839 0)
(0.206422 0.00387456 0)
(0.206397 0.00377361 0)
(0.206369 0.00367506 0)
(0.206338 0.00357846 0)
(0.206304 0.0034834 0)
(0.206267 0.00338952 0)
(0.206227 0.00329649 0)
(0.206185 0.00320398 0)
(0.20614 0.00311169 0)
(0.206092 0.00301934 0)
(0.206042 0.00292666 0)
(0.205989 0.00283338 0)
(0.205934 0.00273925 0)
(0.205876 0.00264402 0)
(0.205816 0.00254747 0)
(0.205753 0.00244935 0)
(0.205688 0.00234945 0)
(0.205621 0.00224756 0)
(0.205551 0.00214348 0)
(0.205479 0.00203702 0)
(0.205404 0.00192805 0)
(0.205327 0.00181644 0)
(0.205247 0.00170219 0)
(0.205164 0.00158538 0)
(0.205078 0.00146627 0)
(0.204988 0.00134537 0)
(0.204893 0.00122348 0)
(0.204793 0.00110174 0)
(0.204689 0.000981614 0)
(0.204579 0.000864844 0)
(0.204464 0.000753281 0)
(0.204346 0.000648674 0)
(0.204225 0.000552451 0)
(0.204102 0.000465577 0)
(0.20398 0.000388526 0)
(0.203859 0.000321339 0)
(0.203741 0.000263692 0)
(0.203626 0.000214996 0)
(0.203515 0.000174494 0)
(0.203408 0.000141344 0)
(0.203305 0.000114702 0)
(0.203206 9.3726e-05 0)
(0.203111 7.7638e-05 0)
(0.203019 6.57716e-05 0)
(0.20293 5.75459e-05 0)
(0.202842 5.24551e-05 0)
(0.202756 5.00575e-05 0)
(0.202671 4.99828e-05 0)
(0.202585 5.19124e-05 0)
(0.202497 5.55613e-05 0)
(0.202409 6.06695e-05 0)
(0.202317 6.69949e-05 0)
(0.202222 7.43076e-05 0)
(0.202123 8.23694e-05 0)
(0.20202 9.09329e-05 0)
(0.201911 9.97631e-05 0)
(0.201797 0.000108631 0)
(0.201678 0.000117307 0)
(0.201553 0.00012557 0)
(0.201422 0.000133216 0)
(0.201287 0.000140048 0)
(0.201148 0.000145893 0)
(0.201006 0.000150604 0)
(0.200862 0.000154071 0)
(0.200716 0.000156239 0)
(0.200571 0.000157128 0)
(0.200427 0.00015687 0)
(0.200287 0.000155741 0)
(0.20015 0.000154206 0)
(0.20002 0.000152962 0)
(0.199871 0.000152821 0)
(0.199965 0.00551641 0)
(0.200379 0.00601286 0)
(0.200848 0.00643025 0)
(0.201361 0.00675651 0)
(0.201897 0.0069898 0)
(0.202437 0.00713463 0)
(0.20296 0.00719866 0)
(0.203456 0.00719138 0)
(0.203913 0.00712368 0)
(0.204327 0.00700722 0)
(0.204693 0.00685362 0)
(0.205011 0.00667379 0)
(0.205283 0.00647745 0)
(0.20551 0.00627279 0)
(0.205699 0.00606639 0)
(0.205852 0.00586319 0)
(0.205976 0.00566662 0)
(0.206075 0.00547883 0)
(0.206153 0.00530092 0)
(0.206214 0.00513322 0)
(0.206262 0.0049755 0)
(0.206298 0.00482716 0)
(0.206326 0.00468744 0)
(0.206346 0.00455545 0)
(0.206361 0.0044303 0)
(0.206371 0.00431114 0)
(0.206377 0.00419718 0)
(0.20638 0.0040877 0)
(0.20638 0.00398205 0)
(0.206378 0.00387965 0)
(0.206374 0.00378 0)
(0.206368 0.00368261 0)
(0.20636 0.00358709 0)
(0.20635 0.00349304 0)
(0.206339 0.00340011 0)
(0.206327 0.00330798 0)
(0.206313 0.00321634 0)
(0.206298 0.00312491 0)
(0.206282 0.0030334 0)
(0.206265 0.00294154 0)
(0.206246 0.00284909 0)
(0.206226 0.0027558 0)
(0.206204 0.00266142 0)
(0.206181 0.00256573 0)
(0.206157 0.00246851 0)
(0.206131 0.00236954 0)
(0.206102 0.00226863 0)
(0.206072 0.00216559 0)
(0.206039 0.00206027 0)
(0.206004 0.00195253 0)
(0.205966 0.00184232 0)
(0.205924 0.00172964 0)
(0.205879 0.00161462 0)
(0.205828 0.00149756 0)
(0.205773 0.00137897 0)
(0.205712 0.00125963 0)
(0.205644 0.00114061 0)
(0.20557 0.00102326 0)
(0.205488 0.00090915 0)
(0.205401 0.000799938 0)
(0.205307 0.000697195 0)
(0.205209 0.000602225 0)
(0.205107 0.000515947 0)
(0.205003 0.000438859 0)
(0.204899 0.000371071 0)
(0.204795 0.000312366 0)
(0.204693 0.000262275 0)
(0.204592 0.000220167 0)
(0.204494 0.000185313 0)
(0.204399 0.000156959 0)
(0.204306 0.000134363 0)
(0.204216 0.000116827 0)
(0.204128 0.000103729 0)
(0.204041 9.45173e-05 0)
(0.203956 8.87097e-05 0)
(0.203871 8.58864e-05 0)
(0.203786 8.5691e-05 0)
(0.2037 8.78096e-05 0)
(0.203613 9.19563e-05 0)
(0.203523 9.78647e-05 0)
(0.20343 0.000105278 0)
(0.203333 0.000113941 0)
(0.203231 0.000123583 0)
(0.203124 0.000133922 0)
(0.203012 0.000144665 0)
(0.202894 0.000155514 0)
(0.202769 0.000166159 0)
(0.202638 0.000176298 0)
(0.202502 0.000185639 0)
(0.202361 0.000193907 0)
(0.202214 0.000200855 0)
(0.202064 0.000206277 0)
(0.201912 0.000210016 0)
(0.201758 0.000211987 0)
(0.201605 0.000212193 0)
(0.201452 0.000210752 0)
(0.201303 0.000207916 0)
(0.201158 0.000204069 0)
(0.201021 0.000199677 0)
(0.200861 0.000194877 0)
(0.200178 0.0052763 0)
(0.200546 0.00571853 0)
(0.200959 0.00609759 0)
(0.201411 0.00640242 0)
(0.201888 0.00662914 0)
(0.202371 0.00677947 0)
(0.202844 0.00685859 0)
(0.203297 0.00687374 0)
(0.203719 0.00683362 0)
(0.204105 0.00674778 0)
(0.204451 0.00662596 0)
(0.204755 0.00647752 0)
(0.205019 0.00631096 0)
(0.205244 0.00613363 0)
(0.205433 0.00595159 0)
(0.205591 0.00576958 0)
(0.205721 0.00559104 0)
(0.205827 0.00541831 0)
(0.205913 0.0052528 0)
(0.205982 0.00509518 0)
(0.206038 0.00494558 0)
(0.206082 0.00480377 0)
(0.206118 0.00466925 0)
(0.206146 0.00454142 0)
(0.206168 0.00441961 0)
(0.206186 0.00430314 0)
(0.2062 0.00419136 0)
(0.20621 0.00408365 0)
(0.206218 0.00397946 0)
(0.206224 0.00387827 0)
(0.206227 0.00377961 0)
(0.20623 0.00368308 0)
(0.206231 0.00358827 0)
(0.206231 0.00349484 0)
(0.20623 0.00340247 0)
(0.206228 0.00331083 0)
(0.206226 0.00321965 0)
(0.206223 0.00312864 0)
(0.206219 0.00303755 0)
(0.206215 0.00294613 0)
(0.20621 0.00285413 0)
(0.206204 0.00276133 0)
(0.206197 0.00266748 0)
(0.20619 0.00257239 0)
(0.206181 0.00247584 0)
(0.206171 0.00237764 0)
(0.20616 0.00227762 0)
(0.206147 0.0021756 0)
(0.206131 0.00207146 0)
(0.206113 0.0019651 0)
(0.206093 0.00185649 0)
(0.206068 0.00174567 0)
(0.20604 0.0016328 0)
(0.206007 0.00151821 0)
(0.205968 0.00140239 0)
(0.205923 0.0012861 0)
(0.205872 0.00117032 0)
(0.205813 0.00105629 0)
(0.205748 0.000945409 0)
(0.205675 0.000839146 0)
(0.205596 0.000738901 0)
(0.205512 0.000645854 0)
(0.205424 0.000560868 0)
(0.205332 0.000484446 0)
(0.205239 0.000416752 0)
(0.205145 0.000357657 0)
(0.205052 0.000306801 0)
(0.204959 0.000263662 0)
(0.204868 0.000227624 0)
(0.204779 0.000198031 0)
(0.204691 0.000174228 0)
(0.204605 0.00015559 0)
(0.204521 0.000141551 0)
(0.204437 0.000131604 0)
(0.204354 0.000125306 0)
(0.204272 0.000122267 0)
(0.204189 0.00012215 0)
(0.204104 0.00012465 0)
(0.204018 0.000129488 0)
(0.203929 0.000136393 0)
(0.203836 0.000145095 0)