/*--------------------------------*- C++ -*----------------------------------*\
| =========                 |                                                 |
| \\      /  F ield         | OpenFOAM: The Open Source CFD Toolbox           |
|  \\    /   O peration     | Version:  2.3.0                                 |
|   \\  /    A nd           | Web:      www.OpenFOAM.org                      |
|    \\/     M anipulation  |                                                 |
\*---------------------------------------------------------------------------*/
FoamFile
{
    version     2.0;
    format      ascii;
    class       volVectorField;
    location    "0.25";
    object      U_0;
}
// * * * * * * * * * * * * * * * * * * * * * * * * * * * * * * * * * * * * * //

dimensions      [0 1 -1 0 0 0 0];

internalField   nonuniform List<vector> 
2889
(
(0.173596 0.00566216 0)
(0.156987 0.00590112 0)
(0.141261 0.00557561 0)
(0.126298 0.00501749 0)
(0.112474 0.00437874 0)
(0.100008 0.00372243 0)
(0.0889436 0.0030869 0)
(0.0792515 0.00249897 0)
(0.0708787 0.00197554 0)
(0.0637455 0.00152557 0)
(0.057744 0.00115169 0)
(0.0527458 0.000851296 0)
(0.0486128 0.000617733 0)
(0.0452076 0.000441825 0)
(0.0424003 0.000313367 0)
(0.0400745 0.00022236 0)
(0.0381298 0.000159804 0)
(0.0364832 0.000118093 0)
(0.035068 9.11103e-05 0)
(0.0338324 7.41419e-05 0)
(0.0327368 6.37011e-05 0)
(0.0317521 5.73127e-05 0)
(0.0308565 5.32964e-05 0)
(0.0300342 5.05666e-05 0)
(0.0292739 4.84617e-05 0)
(0.0285669 4.6607e-05 0)
(0.0279068 4.48116e-05 0)
(0.0272888 4.29953e-05 0)
(0.0267087 4.1139e-05 0)
(0.0261634 3.92537e-05 0)
(0.02565 3.73619e-05 0)
(0.0251663 3.54876e-05 0)
(0.02471 3.36513e-05 0)
(0.0242792 3.18685e-05 0)
(0.0238724 3.01497e-05 0)
(0.023488 2.85007e-05 0)
(0.0231247 2.69242e-05 0)
(0.0227813 2.54201e-05 0)
(0.0224566 2.39866e-05 0)
(0.0221498 2.2621e-05 0)
(0.02186 2.13196e-05 0)
(0.0215864 2.00787e-05 0)
(0.0213284 1.88946e-05 0)
(0.0210854 1.7764e-05 0)
(0.0208568 1.66845e-05 0)
(0.0206423 1.56546e-05 0)
(0.0204413 1.46738e-05 0)
(0.0202536 1.37423e-05 0)
(0.0200788 1.28599e-05 0)
(0.0199166 1.20237e-05 0)
(0.0197668 1.1225e-05 0)
(0.0196293 1.04453e-05 0)
(0.0195041 9.65078e-06 0)
(0.0193915 8.78761e-06 0)
(0.0192921 7.78e-06 0)
(0.0192067 6.54086e-06 0)
(0.0191368 5.01868e-06 0)
(0.019084 3.29299e-06 0)
(0.0190504 1.55489e-06 0)
(0.0190386 1.9408e-07 0)
(0.0190459 -1.37585e-06 0)
(0.0190661 -2.6082e-06 0)
(0.0190964 -3.65519e-06 0)
(0.0191339 -4.38937e-06 0)
(0.0191761 -4.79788e-06 0)
(0.0192207 -4.93107e-06 0)
(0.019266 -4.87087e-06 0)
(0.0193104 -4.67514e-06 0)
(0.0193529 -4.3942e-06 0)
(0.0193929 -4.0623e-06 0)
(0.0194299 -3.70754e-06 0)
(0.0194637 -3.35077e-06 0)
(0.0194944 -3.00464e-06 0)
(0.019522 -2.67751e-06 0)
(0.0195466 -2.37448e-06 0)
(0.0195685 -2.09764e-06 0)
(0.0195879 -1.84684e-06 0)
(0.0196049 -1.62087e-06 0)
(0.0196198 -1.41788e-06 0)
(0.0196328 -1.23554e-06 0)
(0.019644 -1.07138e-06 0)
(0.0196537 -9.23447e-07 0)
(0.0196619 -7.91053e-07 0)
(0.0196689 -6.7315e-07 0)
(0.0196748 -5.67904e-07 0)
(0.0196797 -4.75617e-07 0)
(0.0196837 -3.96179e-07 0)
(0.019687 -3.28277e-07 0)
(0.0196896 -2.70858e-07 0)
(0.0196917 -2.21008e-07 0)
(0.0196933 -1.74956e-07 0)
(0.0196945 -1.30628e-07 0)
(0.0196953 -8.72914e-08 0)
(0.0196957 -5.04888e-08 0)
(0.0196956 7.26129e-09 0)
(0.0196948 1.003e-07 0)
(0.019693 2.27876e-07 0)
(0.0196898 4.10388e-07 0)
(0.0196851 6.56103e-07 0)
(0.0196703 2.46273e-06 0)
(0.192765 0.00905893 0)
(0.190474 0.0097944 0)
(0.18672 0.00968802 0)
(0.181714 0.00923247 0)
(0.17591 0.00862316 0)
(0.169672 0.0079209 0)
(0.163237 0.00716338 0)
(0.156774 0.00638522 0)
(0.150415 0.00561616 0)
(0.144265 0.00488064 0)
(0.138391 0.00419787 0)
(0.132839 0.00358138 0)
(0.127629 0.00303883 0)
(0.122768 0.00257222 0)
(0.118249 0.00217894 0)
(0.114058 0.00185296 0)
(0.110178 0.00158618 0)
(0.106586 0.00136965 0)
(0.10326 0.00119452 0)
(0.100177 0.00105267 0)
(0.0973155 0.000937067 0)
(0.0946547 0.000841907 0)
(0.092176 0.000762555 0)
(0.0898624 0.000695419 0)
(0.0876986 0.000637777 0)
(0.0856711 0.000587593 0)
(0.0837678 0.000543358 0)
(0.081978 0.000503953 0)
(0.0802924 0.00046854 0)
(0.0787027 0.000436486 0)
(0.0772016 0.000407297 0)
(0.0757825 0.000380584 0)
(0.0744398 0.000356029 0)
(0.0731684 0.000333367 0)
(0.0719638 0.000312375 0)
(0.0708221 0.000292858 0)
(0.0697396 0.000274651 0)
(0.0687134 0.000257605 0)
(0.0677405 0.000241592 0)
(0.0668187 0.000226497 0)
(0.0659457 0.00021222 0)
(0.0651196 0.000198671 0)
(0.0643389 0.00018577 0)
(0.0636021 0.000173448 0)
(0.062908 0.000161644 0)
(0.0622555 0.000150306 0)
(0.0616438 0.000139386 0)
(0.0610722 0.000128841 0)
(0.0605402 0.000118629 0)
(0.0600473 0.0001087 0)
(0.0595934 9.89892e-05 0)
(0.0591786 8.94075e-05 0)
(0.0588033 7.98341e-05 0)
(0.0584682 7.01106e-05 0)
(0.0581744 6.00423e-05 0)
(0.0579233 4.9416e-05 0)
(0.0577164 3.80584e-05 0)
(0.0575551 2.59519e-05 0)
(0.0574399 1.32482e-05 0)
(0.0573704 6.95374e-07 0)
(0.0573507 -1.02889e-05 0)
(0.057371 -1.75555e-05 0)
(0.0574186 -2.19732e-05 0)
(0.0574853 -2.4709e-05 0)
(0.0575645 -2.62176e-05 0)
(0.0576508 -2.6645e-05 0)
(0.0577402 -2.61992e-05 0)
(0.0578293 -2.50834e-05 0)
(0.0579158 -2.35263e-05 0)
(0.0579978 -2.17099e-05 0)
(0.0580745 -1.97792e-05 0)
(0.0581452 -1.78392e-05 0)
(0.0582096 -1.59555e-05 0)
(0.0582678 -1.41702e-05 0)
(0.0583199 -1.2509e-05 0)
(0.0583661 -1.0984e-05 0)
(0.058407 -9.59648e-06 0)
(0.0584428 -8.34255e-06 0)
(0.058474 -7.21488e-06 0)
(0.0585009 -6.2039e-06 0)
(0.0585239 -5.29913e-06 0)
(0.0585434 -4.49142e-06 0)
(0.0585597 -3.7756e-06 0)
(0.0585732 -3.1458e-06 0)
(0.0585842 -2.59288e-06 0)
(0.058593 -2.11387e-06 0)
(0.0585999 -1.70544e-06 0)
(0.0586052 -1.35997e-06 0)
(0.0586092 -1.06972e-06 0)
(0.058612 -8.22707e-07 0)
(0.0586139 -6.07129e-07 0)
(0.0586149 -4.09706e-07 0)
(0.0586151 -2.2845e-07 0)
(0.0586146 -1.97661e-08 0)
(0.058613 2.65768e-07 0)
(0.05861 6.52966e-07 0)
(0.0586054 1.1696e-06 0)
(0.0585986 1.91742e-06 0)
(0.0585891 3.19214e-06 0)
(0.0585647 7.55138e-06 0)
(0.195724 0.00869367 0)
(0.19653 0.00980119 0)
(0.196782 0.0102372 0)
(0.196266 0.0102896 0)
(0.195053 0.0101004 0)
(0.193266 0.00972037 0)
(0.191 0.00919174 0)
(0.188342 0.00856215 0)
(0.185381 0.00787676 0)
(0.182203 0.00717426 0)
(0.178885 0.00648591 0)
(0.175491 0.00583508 0)
(0.172073 0.00523711 0)
(0.168672 0.00469996 0)
(0.165316 0.00422552 0)
(0.162027 0.00381128 0)
(0.158821 0.00345192 0)
(0.155704 0.00314077 0)
(0.152683 0.00287085 0)
(0.149759 0.0026356 0)
(0.146933 0.00242919 0)
(0.144204 0.00224673 0)
(0.14157 0.00208418 0)
(0.139029 0.00193832 0)
(0.136579 0.00180656 0)
(0.134218 0.00168687 0)
(0.131943 0.0015776 0)
(0.129752 0.00147742 0)
(0.127642 0.00138525 0)
(0.125611 0.00130016 0)
(0.123657 0.00122139 0)
(0.121778 0.00114825 0)
(0.119971 0.00108017 0)
(0.118235 0.00101661 0)
(0.116568 0.000957127 0)
(0.114967 0.000901298 0)
(0.113432 0.000848753 0)
(0.11196 0.000799156 0)
(0.11055 0.000752206 0)
(0.109201 0.000707629 0)
(0.107911 0.000665177 0)
(0.106681 0.000624628 0)
(0.105508 0.000585777 0)
(0.104392 0.00054844 0)
(0.103332 0.000512452 0)
(0.102329 0.00047766 0)
(0.101381 0.000443926 0)
(0.100489 0.000411114 0)
(0.099653 0.000379089 0)
(0.0988729 0.000347705 0)
(0.0981493 0.000316793 0)
(0.0974829 0.000286157 0)
(0.0968747 0.000255567 0)
(0.0963258 0.000224777 0)
(0.0958375 0.000193549 0)
(0.095411 0.000161715 0)
(0.095047 0.000129252 0)
(0.0947454 9.63749e-05 0)
(0.0945044 6.35825e-05 0)
(0.0943187 3.15172e-05 0)
(0.0941789 1.75233e-06 0)
(0.0940965 -2.3269e-05 0)
(0.0940706 -4.10994e-05 0)
(0.094085 -5.19828e-05 0)
(0.0941283 -5.79207e-05 0)
(0.0941919 -6.04858e-05 0)
(0.0942688 -6.06873e-05 0)
(0.0943535 -5.91066e-05 0)
(0.0944415 -5.62555e-05 0)
(0.0945296 -5.25546e-05 0)
(0.0946155 -4.8369e-05 0)
(0.0946974 -4.39834e-05 0)
(0.0947742 -3.95936e-05 0)
(0.0948452 -3.53338e-05 0)
(0.09491 -3.12916e-05 0)
(0.0949685 -2.75173e-05 0)
(0.0950207 -2.40336e-05 0)
(0.0950669 -2.08461e-05 0)
(0.0951073 -1.795e-05 0)
(0.0951422 -1.5333e-05 0)
(0.095172 -1.29789e-05 0)
(0.0951969 -1.08719e-05 0)
(0.0952175 -9.00196e-06 0)
(0.0952341 -7.35784e-06 0)
(0.0952472 -5.92131e-06 0)
(0.0952571 -4.68297e-06 0)
(0.0952643 -3.63045e-06 0)
(0.0952691 -2.74548e-06 0)
(0.095272 -2.01376e-06 0)
(0.0952732 -1.40362e-06 0)
(0.0952731 -8.91391e-07 0)
(0.095272 -4.45848e-07 0)
(0.0952698 7.14942e-09 0)
(0.0952661 5.53628e-07 0)
(0.0952607 1.23404e-06 0)
(0.0952537 2.06778e-06 0)
(0.0952448 3.13674e-06 0)
(0.0952336 4.67636e-06 0)
(0.0952193 7.40532e-06 0)
(0.0951903 1.37206e-05 0)
(0.19675 0.00805572 0)
(0.197909 0.00920053 0)
(0.199014 0.00984164 0)
(0.199831 0.0101339 0)
(0.20031 0.0101818 0)
(0.200454 0.0100292 0)
(0.200264 0.00971066 0)
(0.199745 0.009267 0)
(0.198919 0.00873937 0)
(0.19782 0.00816502 0)
(0.196489 0.0075757 0)
(0.194966 0.00699685 0)
(0.193293 0.00644703 0)
(0.191504 0.00593802 0)
(0.189632 0.0054757 0)
(0.187701 0.00506126 0)
(0.185733 0.00469268 0)
(0.183743 0.00436594 0)
(0.181744 0.00407609 0)
(0.179743 0.00381797 0)
(0.177749 0.00358675 0)
(0.175765 0.00337811 0)
(0.173796 0.0031884 0)
(0.171846 0.00301461 0)
(0.169916 0.0028543 0)
(0.16801 0.00270553 0)
(0.16613 0.00256675 0)
(0.164277 0.00243673 0)
(0.162454 0.00231447 0)
(0.160662 0.00219915 0)
(0.158903 0.0020901 0)
(0.157179 0.00198673 0)
(0.15549 0.00188853 0)
(0.153838 0.00179505 0)
(0.152224 0.00170589 0)
(0.150649 0.00162066 0)
(0.149115 0.00153904 0)
(0.147622 0.00146071 0)
(0.146172 0.00138537 0)
(0.144765 0.00131275 0)
(0.143402 0.00124259 0)
(0.142085 0.00117465 0)
(0.140814 0.00110871 0)
(0.13959 0.00104455 0)
(0.138414 0.000981976 0)
(0.137288 0.000920791 0)
(0.136213 0.000860813 0)
(0.135189 0.000801857 0)
(0.134219 0.000743734 0)
(0.133304 0.000686233 0)
(0.132446 0.000629126 0)
(0.131645 0.000572157 0)
(0.130905 0.000515059 0)
(0.130227 0.000457584 0)
(0.129612 0.000399559 0)
(0.129061 0.000340983 0)
(0.128576 0.00028215 0)
(0.128156 0.000223813 0)
(0.127798 0.000167341 0)
(0.127499 0.000114457 0)
(0.127253 6.61131e-05 0)
(0.127048 2.27588e-05 0)
(0.126882 -1.43029e-05 0)
(0.126771 -4.33794e-05 0)
(0.126706 -6.35158e-05 0)
(0.126678 -7.58133e-05 0)
(0.126678 -8.2229e-05 0)
(0.1267 -8.43738e-05 0)
(0.126737 -8.35002e-05 0)
(0.126784 -8.0479e-05 0)
(0.126838 -7.60048e-05 0)
(0.126896 -7.06238e-05 0)
(0.126954 -6.47419e-05 0)
(0.127012 -5.86647e-05 0)
(0.127068 -5.26139e-05 0)
(0.12712 -4.67413e-05 0)
(0.127168 -4.11429e-05 0)
(0.127212 -3.58776e-05 0)
(0.127251 -3.09785e-05 0)
(0.127285 -2.64594e-05 0)
(0.127314 -2.23222e-05 0)
(0.127338 -1.85632e-05 0)
(0.127358 -1.51836e-05 0)
(0.127373 -1.21785e-05 0)
(0.127384 -9.529e-06 0)
(0.127392 -7.23409e-06 0)
(0.127396 -5.28605e-06 0)
(0.127397 -3.64794e-06 0)
(0.127396 -2.30564e-06 0)
(0.127393 -1.22784e-06 0)
(0.127388 -3.04831e-07 0)
(0.127381 5.7595e-07 0)
(0.127372 1.51128e-06 0)
(0.127361 2.55341e-06 0)
(0.127348 3.71755e-06 0)
(0.127334 5.04151e-06 0)
(0.127317 6.67041e-06 0)
(0.127298 8.97874e-06 0)
(0.127277 1.29522e-05 0)
(0.127241 2.08531e-05 0)
(0.197471 0.00754703 0)
(0.198496 0.0085967 0)
(0.199611 0.00925997 0)
(0.20065 0.00962464 0)
(0.201554 0.00977098 0)
(0.2023 0.00973854 0)
(0.202866 0.00955459 0)
(0.203232 0.00924989 0)
(0.203387 0.00885722 0)
(0.203336 0.00840771 0)
(0.203089 0.00792914 0)
(0.202667 0.00744491 0)
(0.202091 0.00697327 0)
(0.201384 0.00652698 0)
(0.200568 0.00611363 0)
(0.199664 0.00573656 0)
(0.198687 0.00539582 0)
(0.197652 0.00508935 0)
(0.196571 0.00481379 0)
(0.195451 0.00456531 0)
(0.1943 0.00434003 0)
(0.193123 0.0041344 0)
(0.191924 0.00394528 0)
(0.190707 0.00377004 0)
(0.189475 0.00360653 0)
(0.188232 0.003453 0)
(0.186978 0.00330807 0)
(0.185718 0.00317062 0)
(0.184454 0.00303976 0)
(0.183187 0.00291474 0)
(0.18192 0.00279496 0)
(0.180656 0.00267991 0)
(0.179397 0.00256913 0)
(0.178144 0.00246223 0)
(0.176901 0.00235886 0)
(0.175669 0.00225869 0)
(0.17445 0.00216142 0)
(0.173247 0.00206677 0)
(0.17206 0.00197449 0)
(0.170894 0.00188432 0)
(0.169748 0.00179604 0)
(0.168626 0.00170941 0)
(0.16753 0.00162424 0)
(0.166461 0.0015403 0)
(0.165421 0.00145742 0)
(0.164413 0.00137539 0)
(0.16344 0.00129404 0)
(0.162502 0.00121315 0)
(0.161603 0.00113253 0)
(0.160744 0.00105194 0)
(0.159928 0.000971166 0)
(0.159158 0.000889943 0)
(0.158436 0.000808047 0)
(0.157764 0.00072532 0)
(0.157144 0.000641753 0)
(0.156578 0.0005576 0)
(0.156065 0.000473514 0)
(0.155606 0.000390673 0)
(0.155199 0.00031083 0)
(0.154842 0.000236118 0)
(0.154532 0.000168639 0)
(0.154266 0.000109485 0)
(0.154038 5.80909e-05 0)
(0.153835 1.43165e-05 0)
(0.153662 -2.12552e-05 0)
(0.153528 -4.84098e-05 0)
(0.153428 -6.72549e-05 0)
(0.153358 -7.90037e-05 0)
(0.153311 -8.52647e-05 0)
(0.153283 -8.73934e-05 0)
(0.153271 -8.65124e-05 0)
(0.153271 -8.34874e-05 0)
(0.15328 -7.89648e-05 0)
(0.153295 -7.34515e-05 0)
(0.153314 -6.73403e-05 0)
(0.153335 -6.09288e-05 0)
(0.153356 -5.44326e-05 0)
(0.153378 -4.8011e-05 0)
(0.153397 -4.17794e-05 0)
(0.153415 -3.58187e-05 0)
(0.153429 -3.01851e-05 0)
(0.153441 -2.49205e-05 0)
(0.153448 -2.00738e-05 0)
(0.153453 -1.56816e-05 0)
(0.153453 -1.17422e-05 0)
(0.15345 -8.26843e-06 0)
(0.153445 -5.30751e-06 0)
(0.153436 -2.85662e-06 0)
(0.153426 -8.06458e-07 0)
(0.153412 9.7754e-07 0)
(0.153395 2.62855e-06 0)
(0.153376 4.25428e-06 0)
(0.153353 5.89078e-06 0)
(0.153329 7.54547e-06 0)
(0.153302 9.23423e-06 0)
(0.153274 1.10281e-05 0)
(0.153245 1.31372e-05 0)
(0.153214 1.60546e-05 0)
(0.153181 2.09178e-05 0)
(0.153135 3.00166e-05 0)
(0.198073 0.00709957 0)
(0.198931 0.00803021 0)
(0.199907 0.0086676 0)
(0.200885 0.00905532 0)
(0.20181 0.00924929 0)
(0.202659 0.00928325 0)
(0.203409 0.00918047 0)
(0.20404 0.00896589 0)
(0.204536 0.00866661 0)
(0.204892 0.00830906 0)
(0.205109 0.00791728 0)
(0.205194 0.00751199 0)
(0.20516 0.00710987 0)
(0.205019 0.00672318 0)
(0.204785 0.00635991 0)
(0.204473 0.00602427 0)
(0.204094 0.00571755 0)
(0.20366 0.00543894 0)
(0.203177 0.0051863 0)
(0.202654 0.00495683 0)
(0.202096 0.00474748 0)
(0.201506 0.00455534 0)
(0.200887 0.00437774 0)
(0.200243 0.00421236 0)
(0.199575 0.00405727 0)
(0.198885 0.00391087 0)
(0.198176 0.00377184 0)
(0.197447 0.00363914 0)
(0.196702 0.00351189 0)
(0.195942 0.00338939 0)
(0.195169 0.00327106 0)
(0.194383 0.00315639 0)
(0.193588 0.00304496 0)
(0.192784 0.0029364 0)
(0.191973 0.00283037 0)
(0.191158 0.00272656 0)
(0.19034 0.00262469 0)
(0.189521 0.00252451 0)
(0.188702 0.00242577 0)
(0.187886 0.00232824 0)
(0.187075 0.00223169 0)
(0.18627 0.00213592 0)
(0.185473 0.00204071 0)
(0.184688 0.00194588 0)
(0.183915 0.00185122 0)
(0.183156 0.00175655 0)
(0.182415 0.00166168 0)
(0.181693 0.0015664 0)
(0.180993 0.00147051 0)
(0.180316 0.00137378 0)
(0.179666 0.00127601 0)
(0.179045 0.00117699 0)
(0.178454 0.00107656 0)
(0.177897 0.000974694 0)
(0.177374 0.000871574 0)
(0.176886 0.000767706 0)
(0.176435 0.000664044 0)
(0.176021 0.000562074 0)
(0.175642 0.000463791 0)
(0.175298 0.000371477 0)
(0.174988 0.000287301 0)
(0.17471 0.000212682 0)
(0.174464 0.00014835 0)
(0.174246 9.41064e-05 0)
(0.174051 4.86883e-05 0)
(0.173872 1.14135e-05 0)
(0.173713 -1.79808e-05 0)
(0.173578 -4.01148e-05 0)
(0.173466 -5.5638e-05 0)
(0.173373 -6.5543e-05 0)
(0.173298 -7.09955e-05 0)
(0.173237 -7.3028e-05 0)
(0.173189 -7.24612e-05 0)
(0.17315 -6.99553e-05 0)
(0.17312 -6.60372e-05 0)
(0.173096 -6.11249e-05 0)
(0.173076 -5.55389e-05 0)
(0.17306 -4.95346e-05 0)
(0.173045 -4.3316e-05 0)
(0.173031 -3.70438e-05 0)
(0.173017 -3.08453e-05 0)
(0.173001 -2.48192e-05 0)
(0.172985 -1.90719e-05 0)
(0.172966 -1.37282e-05 0)
(0.172945 -8.90558e-06 0)
(0.172922 -4.63327e-06 0)
(0.172897 -8.57787e-07 0)
(0.172869 2.47501e-06 0)
(0.172837 5.47872e-06 0)
(0.172802 8.27875e-06 0)
(0.172763 1.09234e-05 0)
(0.172721 1.34243e-05 0)
(0.172677 1.57813e-05 0)
(0.172631 1.79968e-05 0)
(0.172583 2.0101e-05 0)
(0.172535 2.2197e-05 0)
(0.172486 2.45476e-05 0)
(0.172436 2.77236e-05 0)
(0.172387 3.2932e-05 0)
(0.172324 4.25682e-05 0)
(0.198587 0.00670836 0)
(0.19931 0.00752818 0)
(0.200145 0.00812615 0)
(0.201012 0.00851704 0)
(0.201864 0.00873595 0)
(0.202673 0.00880992 0)
(0.203419 0.0087595 0)
(0.204084 0.00860598 0)
(0.204657 0.00837245 0)
(0.205129 0.00808178 0)
(0.2055 0.00775497 0)
(0.205774 0.00741034 0)
(0.205958 0.00706296 0)
(0.20606 0.00672427 0)
(0.20609 0.00640215 0)
(0.20606 0.00610129 0)
(0.205978 0.00582371 0)
(0.205852 0.00556953 0)
(0.205688 0.00533751 0)
(0.205493 0.00512567 0)
(0.20527 0.00493165 0)
(0.205022 0.00475306 0)
(0.204752 0.00458764 0)
(0.204461 0.00443335 0)
(0.20415 0.00428842 0)
(0.203821 0.00415137 0)
(0.203474 0.00402095 0)
(0.203111 0.00389614 0)
(0.202731 0.00377609 0)
(0.202336 0.00366008 0)
(0.201927 0.00354754 0)
(0.201504 0.00343795 0)
(0.201068 0.00333087 0)
(0.20062 0.00322593 0)
(0.200162 0.00312278 0)
(0.199694 0.0030211 0)
(0.199218 0.00292061 0)
(0.198734 0.00282104 0)
(0.198244 0.00272214 0)
(0.197749 0.00262367 0)
(0.197251 0.00252539 0)
(0.19675 0.00242709 0)
(0.196249 0.00232856 0)
(0.195748 0.00222959 0)
(0.19525 0.00212997 0)
(0.194756 0.00202951 0)
(0.194267 0.001928 0)
(0.193785 0.00182525 0)
(0.193312 0.00172105 0)
(0.19285 0.00161518 0)
(0.192401 0.00150748 0)
(0.191966 0.00139777 0)
(0.191547 0.001286 0)
(0.191145 0.00117226 0)
(0.190761 0.00105689 0)
(0.190396 0.000940603 0)
(0.190051 0.000824538 0)
(0.189726 0.000710356 0)
(0.18942 0.000600146 0)
(0.189134 0.000496198 0)
(0.188868 0.000400633 0)
(0.188621 0.000314974 0)
(0.188394 0.00024007 0)
(0.188186 0.000175996 0)
(0.187998 0.00012239 0)
(0.187826 7.84217e-05 0)
(0.187669 4.26747e-05 0)
(0.187522 1.41331e-05 0)
(0.187387 -7.87165e-06 0)
(0.187266 -2.42036e-05 0)
(0.187158 -3.56639e-05 0)
(0.187062 -4.30032e-05 0)
(0.186977 -4.69829e-05 0)
(0.186901 -4.82842e-05 0)
(0.186833 -4.74797e-05 0)
(0.186771 -4.50479e-05 0)
(0.186715 -4.13695e-05 0)
(0.186662 -3.67587e-05 0)
(0.186613 -3.14809e-05 0)
(0.186566 -2.57653e-05 0)
(0.186519 -1.98268e-05 0)
(0.186473 -1.3875e-05 0)
(0.186427 -8.04353e-06 0)
(0.18638 -2.40571e-06 0)
(0.186331 2.92871e-06 0)
(0.186279 7.90574e-06 0)
(0.186223 1.25735e-05 0)
(0.186164 1.69709e-05 0)
(0.186101 2.1091e-05 0)
(0.186035 2.49155e-05 0)
(0.185966 2.8427e-05 0)
(0.185895 3.16094e-05 0)
(0.185822 3.44514e-05 0)
(0.185747 3.69535e-05 0)
(0.185672 3.9154e-05 0)
(0.185597 4.11785e-05 0)
(0.185523 4.33217e-05 0)
(0.18545 4.61845e-05 0)
(0.18538 5.09621e-05 0)
(0.185295 6.00446e-05 0)
(0.199024 0.00636418 0)
(0.199642 0.00708523 0)
(0.200358 0.00763751 0)
(0.201118 0.00801965 0)
(0.201882 0.00825132 0)
(0.202621 0.00835269 0)
(0.203316 0.00834122 0)
(0.20395 0.00823494 0)
(0.204513 0.00805339 0)
(0.204998 0.00781623 0)
(0.205403 0.00754183 0)
(0.205731 0.00724642 0)
(0.205987 0.00694364 0)
(0.206178 0.00664414 0)
(0.206312 0.00635562 0)
(0.206396 0.00608301 0)
(0.20644 0.00582893 0)
(0.20645 0.00559419 0)
(0.206431 0.00537833 0)
(0.206389 0.00518007 0)
(0.206327 0.00499768 0)
(0.206247 0.00482926 0)
(0.206152 0.00467292 0)
(0.206044 0.00452692 0)
(0.205922 0.00438969 0)
(0.205788 0.00425987 0)
(0.205642 0.0041363 0)
(0.205485 0.00401799 0)
(0.205317 0.00390411 0)
(0.205139 0.00379396 0)
(0.20495 0.00368693 0)
(0.204751 0.00358252 0)
(0.204543 0.00348026 0)
(0.204325 0.00337975 0)
(0.204098 0.00328063 0)
(0.203863 0.00318257 0)
(0.203621 0.00308526 0)
(0.20337 0.00298842 0)
(0.203113 0.00289177 0)
(0.202851 0.00279506 0)
(0.202582 0.00269803 0)
(0.202309 0.00260046 0)
(0.202032 0.00250211 0)
(0.201752 0.00240276 0)
(0.20147 0.0023022 0)
(0.201186 0.0022002 0)
(0.200903 0.00209656 0)
(0.20062 0.00199108 0)
(0.200338 0.00188354 0)
(0.20006 0.00177376 0)
(0.199785 0.00166159 0)
(0.199515 0.00154692 0)
(0.19925 0.00142977 0)
(0.198991 0.00131032 0)
(0.198739 0.00118904 0)
(0.198493 0.00106674 0)
(0.198255 0.000944665 0)
(0.198023 0.00082451 0)
(0.197799 0.000708335 0)
(0.197582 0.000598343 0)
(0.197373 0.000496561 0)
(0.197173 0.000404502 0)
(0.196983 0.000323048 0)
(0.196804 0.000252446 0)
(0.196637 0.000192467 0)
(0.19648 0.000142429 0)
(0.196335 0.000101446 0)
(0.196199 6.85331e-05 0)
(0.196074 4.24723e-05 0)
(0.195955 2.21819e-05 0)
(0.195844 6.894e-06 0)
(0.19574 -4.06708e-06 0)
(0.195642 -1.13997e-05 0)
(0.19555 -1.57324e-05 0)
(0.195464 -1.75976e-05 0)
(0.195383 -1.74318e-05 0)
(0.195306 -1.56246e-05 0)
(0.195232 -1.25001e-05 0)
(0.19516 -8.32733e-06 0)
(0.195089 -3.34999e-06 0)
(0.195019 2.19454e-06 0)
(0.194948 8.07027e-06 0)
(0.194875 1.41168e-05 0)
(0.194799 2.02496e-05 0)
(0.19472 2.63819e-05 0)
(0.194637 3.24082e-05 0)
(0.194551 3.82141e-05 0)
(0.19446 4.37041e-05 0)
(0.194367 4.87995e-05 0)
(0.194269 5.34404e-05 0)
(0.194169 5.75806e-05 0)
(0.194067 6.11769e-05 0)
(0.193964 6.41949e-05 0)
(0.19386 6.66233e-05 0)
(0.193756 6.85028e-05 0)
(0.193653 6.99719e-05 0)
(0.193552 7.13374e-05 0)
(0.193454 7.31865e-05 0)
(0.193361 7.66158e-05 0)
(0.193251 8.37337e-05 0)
(0.199395 0.00605563 0)
(0.199929 0.00669021 0)
(0.200547 0.00719532 0)
(0.201213 0.00756191 0)
(0.201893 0.00779897 0)
(0.202561 0.0079203 0)
(0.203196 0.00793992 0)
(0.203784 0.00787272 0)
(0.204315 0.00773502 0)
(0.204782 0.00754352 0)
(0.205183 0.0073142 0)
(0.205519 0.00706139 0)
(0.205794 0.0067974 0)
(0.206013 0.00653208 0)
(0.206184 0.00627286 0)
(0.206312 0.0060248 0)
(0.206405 0.00579092 0)
(0.20647 0.00557264 0)
(0.206511 0.00537011 0)
(0.206532 0.00518269 0)
(0.206538 0.00500921 0)
(0.206531 0.00484825 0)
(0.206514 0.00469832 0)
(0.206486 0.00455796 0)
(0.206451 0.00442583 0)
(0.206407 0.00430071 0)
(0.206357 0.00418155 0)
(0.2063 0.00406743 0)
(0.206237 0.00395757 0)
(0.206168 0.00385128 0)
(0.206092 0.00374798 0)
(0.206011 0.00364714 0)
(0.205924 0.00354831 0)
(0.205831 0.00345107 0)
(0.205733 0.00335506 0)
(0.20563 0.00325993 0)
(0.205521 0.00316537 0)
(0.205408 0.00307106 0)
(0.20529 0.00297673 0)
(0.205167 0.00288211 0)
(0.20504 0.00278693 0)
(0.204909 0.00269095 0)
(0.204774 0.00259392 0)
(0.204636 0.0024956 0)
(0.204495 0.00239577 0)
(0.204351 0.0022942 0)
(0.204206 0.00219069 0)
(0.204058 0.00208501 0)
(0.203908 0.00197698 0)
(0.203758 0.00186642 0)
(0.203606 0.00175322 0)
(0.203455 0.00163731 0)
(0.203302 0.00151878 0)
(0.203149 0.00139788 0)
(0.202996 0.00127513 0)
(0.202842 0.00115139 0)
(0.202686 0.00102792 0)
(0.20253 0.000906366 0)
(0.202373 0.000788664 0)
(0.202216 0.000676865 0)
(0.202059 0.000572855 0)
(0.201903 0.000478085 0)
(0.201751 0.000393456 0)
(0.201603 0.000319304 0)
(0.20146 0.000255498 0)
(0.201324 0.00020153 0)
(0.201194 0.000156651 0)
(0.201071 0.000119937 0)
(0.200955 9.04013e-05 0)
(0.200845 6.71456e-05 0)
(0.20074 4.92754e-05 0)
(0.200641 3.59497e-05 0)
(0.200546 2.6454e-05 0)
(0.200454 2.01875e-05 0)
(0.200366 1.66471e-05 0)
(0.20028 1.54218e-05 0)
(0.200195 1.61389e-05 0)
(0.200111 1.84838e-05 0)
(0.200027 2.2192e-05 0)
(0.199942 2.70232e-05 0)
(0.199856 3.27575e-05 0)
(0.199767 3.91999e-05 0)
(0.199675 4.61519e-05 0)
(0.199579 5.34008e-05 0)
(0.19948 6.07542e-05 0)
(0.199376 6.80298e-05 0)
(0.199267 7.50548e-05 0)
(0.199153 8.16869e-05 0)
(0.199036 8.78007e-05 0)
(0.198914 9.32818e-05 0)
(0.198789 9.80279e-05 0)
(0.198662 0.000101949 0)
(0.198534 0.000104979 0)
(0.198405 0.000107092 0)
(0.198276 0.000108328 0)
(0.19815 0.000108832 0)
(0.198026 0.000108906 0)
(0.197906 0.000109093 0)
(0.197792 0.000110312 0)
(0.197661 0.000114097 0)
(0.199706 0.00577477 0)
(0.200174 0.00633486 0)
(0.200711 0.00679448 0)
(0.201294 0.00714177 0)
(0.201899 0.0073789 0)
(0.2025 0.00751437 0)
(0.203077 0.00755882 0)
(0.203619 0.0075243 0)
(0.204113 0.00742423 0)
(0.204554 0.00727267 0)
(0.204939 0.00708332 0)
(0.205269 0.00686876 0)
(0.205545 0.00663996 0)
(0.205772 0.00640599 0)
(0.205955 0.00617386 0)
(0.206101 0.00594865 0)
(0.206215 0.00573365 0)
(0.206302 0.0055307 0)
(0.206368 0.00534049 0)
(0.206416 0.0051629 0)
(0.20645 0.00499727 0)
(0.206473 0.00484263 0)
(0.206487 0.00469785 0)
(0.206493 0.00456177 0)
(0.206493 0.00443328 0)
(0.206488 0.00431133 0)
(0.206478 0.00419499 0)
(0.206464 0.00408346 0)
(0.206446 0.00397599 0)
(0.206425 0.00387195 0)
(0.2064 0.00377078 0)
(0.206372 0.00367198 0)
(0.206341 0.00357512 0)
(0.206307 0.00347977 0)
(0.206271 0.00338559 0)
(0.206231 0.00329222 0)
(0.206189 0.00319934 0)
(0.206144 0.00310666 0)
(0.206097 0.00301389 0)
(0.206047 0.00292076 0)
(0.205994 0.00282699 0)
(0.205939 0.00273234 0)
(0.205882 0.00263655 0)
(0.205822 0.00253939 0)
(0.205759 0.00244064 0)
(0.205695 0.00234005 0)
(0.205627 0.00223744 0)
(0.205558 0.00213258 0)
(0.205486 0.00202532 0)
(0.205412 0.00191549 0)
(0.205335 0.00180301 0)
(0.205255 0.00168786 0)
(0.205172 0.00157017 0)
(0.205085 0.00145024 0)
(0.204994 0.00132862 0)
(0.204899 0.00120617 0)
(0.204799 0.0010841 0)
(0.204693 0.000963938 0)
(0.204583 0.00084747 0)
(0.204468 0.000736557 0)
(0.204348 0.000632915 0)
(0.204227 0.000537905 0)
(0.204104 0.000452411 0)
(0.203982 0.000376828 0)
(0.203861 0.000311125 0)
(0.203743 0.000254921 0)
(0.203628 0.00020759 0)
(0.203518 0.000168346 0)
(0.203411 0.000136339 0)
(0.203309 0.00011072 0)
(0.20321 9.06475e-05 0)
(0.203115 7.53604e-05 0)
(0.203024 6.42059e-05 0)
(0.202934 5.66132e-05 0)
(0.202847 5.20869e-05 0)
(0.20276 5.01941e-05 0)
(0.202674 5.05731e-05 0)
(0.202587 5.29099e-05 0)
(0.202499 5.69211e-05 0)
(0.202409 6.23471e-05 0)
(0.202316 6.89451e-05 0)
(0.20222 7.64819e-05 0)
(0.202119 8.47128e-05 0)
(0.202014 9.33868e-05 0)
(0.201903 0.000102269 0)
(0.201788 0.000111126 0)
(0.201666 0.000119726 0)
(0.201539 0.000127851 0)
(0.201408 0.000135293 0)
(0.201271 0.000141863 0)
(0.201131 0.00014739 0)
(0.200988 0.000151735 0)
(0.200843 0.000154796 0)
(0.200697 0.00015653 0)
(0.200552 0.000156971 0)
(0.200409 0.000156264 0)
(0.200269 0.0001547 0)
(0.200134 0.000152751 0)
(0.200005 0.000151117 0)
(0.199858 0.000150608 0)
(0.199965 0.00551619 0)
(0.200379 0.00601262 0)
(0.200848 0.00642999 0)
(0.201361 0.00675622 0)
(0.201898 0.00698948 0)
(0.202437 0.00713428 0)
(0.202961 0.00719828 0)
(0.203456 0.00719096 0)
(0.203914 0.00712322 0)
(0.204328 0.00700671 0)
(0.204694 0.00685307 0)
(0.205012 0.00667319 0)
(0.205283 0.00647679 0)
(0.205511 0.00627207 0)
(0.205699 0.00606561 0)
(0.205853 0.00586234 0)
(0.205977 0.0056657 0)
(0.206076 0.00547783 0)
(0.206154 0.00529984 0)
(0.206215 0.00513204 0)
(0.206263 0.00497421 0)
(0.2063 0.00482576 0)
(0.206327 0.00468592 0)
(0.206348 0.0045538 0)
(0.206363 0.00442851 0)
(0.206373 0.00430919 0)
(0.20638 0.00419507 0)
(0.206383 0.00408541 0)
(0.206383 0.00397956 0)
(0.206381 0.00387696 0)
(0.206376 0.00377707 0)
(0.20637 0.00367944 0)
(0.206363 0.00358365 0)
(0.206353 0.00348931 0)
(0.206342 0.00339607 0)
(0.20633 0.00330361 0)
(0.206317 0.00321161 0)
(0.206302 0.00311978 0)
(0.206286 0.00302785 0)
(0.206269 0.00293554 0)
(0.20625 0.00284261 0)
(0.20623 0.0027488 0)
(0.206209 0.00265386 0)
(0.206186 0.00255758 0)
(0.206161 0.00245973 0)
(0.206135 0.00236009 0)
(0.206107 0.00225847 0)
(0.206077 0.00215468 0)
(0.206044 0.00204857 0)
(0.206009 0.00194003 0)
(0.20597 0.00182898 0)
(0.205928 0.00171547 0)
(0.205882 0.00159964 0)
(0.205831 0.00148182 0)
(0.205775 0.00136259 0)
(0.205712 0.00124275 0)
(0.205644 0.00112346 0)
(0.205568 0.0010061 0)
(0.205485 0.000892288 0)
(0.205396 0.000783686 0)
(0.205302 0.000681837 0)
(0.205203 0.00058799 0)
(0.2051 0.000502997 0)
(0.204996 0.000427286 0)
(0.204891 0.000360906 0)
(0.204787 0.000303584 0)
(0.204685 0.000254817 0)
(0.204584 0.000213946 0)
(0.204486 0.00018023 0)
(0.204391 0.000152913 0)
(0.204298 0.000131252 0)
(0.204208 0.000114559 0)
(0.204119 0.000102223 0)
(0.204033 9.37017e-05 0)
(0.203947 8.85215e-05 0)
(0.203862 8.62715e-05 0)
(0.203776 8.66019e-05 0)
(0.203689 8.92013e-05 0)
(0.203601 9.37841e-05 0)
(0.203509 0.000100082 0)
(0.203415 0.000107836 0)
(0.203316 0.000116782 0)
(0.203213 0.000126645 0)
(0.203104 0.000137132 0)
(0.20299 0.000147946 0)
(0.202869 0.000158782 0)
(0.202743 0.000169329 0)
(0.20261 0.00017928 0)
(0.202472 0.000188347 0)
(0.202329 0.000196258 0)
(0.202181 0.000202777 0)
(0.20203 0.000207704 0)
(0.201877 0.0002109 0)
(0.201723 0.000212295 0)
(0.20157 0.000211911 0)
(0.201418 0.000209887 0)
(0.20127 0.000206492 0)
(0.201126 0.000202127 0)
(0.20099 0.000197267 0)
(0.200833 0.000192061 0)
(0.200178 0.00527606 0)
(0.200547 0.00571827 0)
(0.20096 0.0060973 0)
(0.201411 0.00640211 0)
(0.201888 0.0066288 0)
(0.202371 0.00677909 0)
(0.202845 0.00685817 0)
(0.203297 0.00687328 0)
(0.203719 0.00683312 0)
(0.204105 0.00674724 0)
(0.204451 0.00662537 0)
(0.204756 0.00647688 0)
(0.20502 0.00631026 0)
(0.205245 0.00613287 0)
(0.205434 0.00595077 0)
(0.205592 0.00576868 0)
(0.205722 0.00559006 0)
(0.205828 0.00541725 0)
(0.205914 0.00525165 0)
(0.205983 0.00509393 0)
(0.206039 0.00494423 0)
(0.206084 0.0048023 0)
(0.206119 0.00466766 0)
(0.206148 0.0045397 0)
(0.20617 0.00441775 0)
(0.206188 0.00430112 0)
(0.206202 0.00418917 0)
(0.206212 0.00408128 0)
(0.20622 0.00397689 0)
(0.206226 0.00387549 0)
(0.20623 0.00377661 0)
(0.206232 0.00367982 0)
(0.206234 0.00358475 0)
(0.206234 0.00349104 0)
(0.206233 0.00339835 0)
(0.206231 0.00330638 0)
(0.206229 0.00321483 0)
(0.206226 0.00312344 0)
(0.206223 0.00303194 0)
(0.206218 0.00294008 0)
(0.206213 0.0028476 0)
(0.206208 0.00275428 0)
(0.206201 0.0026599 0)
(0.206194 0.00256423 0)
(0.206185 0.00246707 0)
(0.206175 0.00236822 0)
(0.206163 0.00226751 0)
(0.20615 0.00216478 0)
(0.206134 0.00205989 0)
(0.206116 0.00195277 0)
(0.206095 0.00184338 0)
(0.20607 0.00173179 0)
(0.206041 0.00161819 0)
(0.206007 0.00150292 0)
(0.205967 0.00138653 0)
(0.205921 0.00126982 0)
(0.205869 0.00115382 0)
(0.205809 0.00103981 0)
(0.205742 0.000929216 0)
(0.205668 0.000823522 0)
(0.205588 0.000724102 0)
(0.205502 0.000632092 0)
(0.205413 0.000548297 0)
(0.205321 0.000473159 0)
(0.205227 0.00040679 0)
(0.205133 0.000349011 0)
(0.205039 0.000299427 0)
(0.204946 0.000257495 0)
(0.204855 0.000222582 0)
(0.204765 0.000194029 0)
(0.204677 0.00017118 0)
(0.204591 0.000153417 0)
(0.204506 0.000140181 0)
(0.204423 0.000130975 0)
(0.204339 0.000125364 0)
(0.204256 0.000122965 0)
(0.204172 0.000123444 0)
(0.204086 0.000126499 0)
(0.203999 0.000131847 0)
(0.203908 0.000139216 0)
(0.203814 0.000148327 0)
(0.203716 0.000158892 0)