/*--------------------------------*- C++ -*----------------------------------*\
| =========                 |                                                 |
| \\      /  F ield         | OpenFOAM: The Open Source CFD Toolbox           |
|  \\    /   O peration     | Version:  2.3.0                                 |
|   \\  /    A nd           | Web:      www.OpenFOAM.org                      |
|    \\/     M anipulation  |                                                 |
\*---------------------------------------------------------------------------*/
FoamFile
{
    version     2.0;
    format      ascii;
    class       volVectorField;
    location    "0.45";
    object      U_0;
}
// * * * * * * * * * * * * * * * * * * * * * * * * * * * * * * * * * * * * * //

dimensions      [0 1 -1 0 0 0 0];

internalField   nonuniform List<vector> 
2945
(
(0.149695 0.00850307 0)
(0.105574 0.00731872 0)
(0.0743335 0.00404735 0)
(0.0556214 0.00135766 0)
(0.0453214 0.000142643 0)
(0.0398025 -0.000131386 0)
(0.0366106 -7.43727e-05 0)
(0.0343534 2.09679e-05 0)
(0.0324471 7.24459e-05 0)
(0.0307416 8.50541e-05 0)
(0.0292221 8.02954e-05 0)
(0.0278793 7.16333e-05 0)
(0.0266903 6.37587e-05 0)
(0.025629 5.73287e-05 0)
(0.0246735 5.2012e-05 0)
(0.0238063 4.74766e-05 0)
(0.0230144 4.35176e-05 0)
(0.0222873 4.00148e-05 0)
(0.0216168 3.68925e-05 0)
(0.0209962 3.40968e-05 0)
(0.0204198 3.15844e-05 0)
(0.0198829 2.93187e-05 0)
(0.0193814 2.72683e-05 0)
(0.0189119 2.54066e-05 0)
(0.0184714 2.37108e-05 0)
(0.0180572 2.21615e-05 0)
(0.0176671 2.0742e-05 0)
(0.0172992 1.94376e-05 0)
(0.0169517 1.82361e-05 0)
(0.0166229 1.71264e-05 0)
(0.0163117 1.6099e-05 0)
(0.0160166 1.51457e-05 0)
(0.0157367 1.42592e-05 0)
(0.0154709 1.34328e-05 0)
(0.0152184 1.26609e-05 0)
(0.0149784 1.19384e-05 0)
(0.0147502 1.12605e-05 0)
(0.0145331 1.06234e-05 0)
(0.0143266 1.00232e-05 0)
(0.0141302 9.45665e-06 0)
(0.0139434 8.92076e-06 0)
(0.0137657 8.41283e-06 0)
(0.0135969 7.93041e-06 0)
(0.0134365 7.47129e-06 0)
(0.0132842 7.03345e-06 0)
(0.0131399 6.61507e-06 0)
(0.0130032 6.21449e-06 0)
(0.012874 5.83019e-06 0)
(0.012752 5.46082e-06 0)
(0.0126371 5.10512e-06 0)
(0.0125291 4.76195e-06 0)
(0.0124279 4.43028e-06 0)
(0.0123334 4.10919e-06 0)
(0.0122455 3.79785e-06 0)
(0.012164 3.49553e-06 0)
(0.0120889 3.20158e-06 0)
(0.0120201 2.91539e-06 0)
(0.0119575 2.63627e-06 0)
(0.011901 2.36337e-06 0)
(0.0118505 2.09557e-06 0)
(0.0118058 1.83173e-06 0)
(0.011767 1.57105e-06 0)
(0.0117339 1.31409e-06 0)
(0.0117061 1.06354e-06 0)
(0.0116835 8.25336e-07 0)
(0.0116655 6.07957e-07 0)
(0.0116515 4.23625e-07 0)
(0.0116408 2.78375e-07 0)
(0.0116321 1.95208e-07 0)
(0.0116253 1.25836e-07 0)
(0.0116173 2.27478e-07 0)
(0.0116132 -2.41552e-08 0)
(0.0115978 7.9175e-07 0)
(0.0116063 -1.54772e-06 0)
(0.0115883 2.23542e-06 0)
(0.195303 0.0141366 0)
(0.188858 0.0150643 0)
(0.173414 0.0120871 0)
(0.15533 0.00804445 0)
(0.138647 0.00479595 0)
(0.12495 0.0027906 0)
(0.114274 0.00175846 0)
(0.105965 0.00128039 0)
(0.0993064 0.00104509 0)
(0.0937759 0.000896576 0)
(0.0890505 0.000780223 0)
(0.0849341 0.000683066 0)
(0.0812985 0.000602221 0)
(0.0780535 0.0005353 0)
(0.075132 0.000479567 0)
(0.0724824 0.000432568 0)
(0.0700643 0.000392402 0)
(0.0678457 0.000357667 0)
(0.0658006 0.000327341 0)
(0.0639078 0.000300658 0)
(0.0621499 0.000277029 0)
(0.0605119 0.000255985 0)
(0.0589816 0.000237146 0)
(0.0575481 0.0002202 0)
(0.0562025 0.00020489 0)
(0.0549367 0.000191 0)
(0.0537439 0.000178353 0)
(0.0526181 0.000166794 0)
(0.0515539 0.000156196 0)
(0.0505466 0.000146449 0)
(0.0495922 0.000137456 0)
(0.0486869 0.000129137 0)
(0.0478275 0.00012142 0)
(0.047011 0.000114243 0)
(0.0462348 0.00010755 0)
(0.0454966 0.000101294 0)
(0.0447941 9.54321e-05 0)
(0.0441256 8.99257e-05 0)
(0.0434893 8.47411e-05 0)
(0.0428837 7.9848e-05 0)
(0.0423073 7.52193e-05 0)
(0.0417591 7.08306e-05 0)
(0.0412378 6.66598e-05 0)
(0.0407425 6.26873e-05 0)
(0.0402722 5.88954e-05 0)
(0.0398263 5.52678e-05 0)
(0.039404 5.17904e-05 0)
(0.0390047 4.84502e-05 0)
(0.0386278 4.52358e-05 0)
(0.0382728 4.2137e-05 0)
(0.0379394 3.9145e-05 0)
(0.0376271 3.62521e-05 0)
(0.0373356 3.34518e-05 0)
(0.0370646 3.07391e-05 0)
(0.0368137 2.81099e-05 0)
(0.0365827 2.55614e-05 0)
(0.0363713 2.30921e-05 0)
(0.0361792 2.07011e-05 0)
(0.036006 1.83885e-05 0)
(0.0358513 1.61556e-05 0)
(0.0357148 1.40064e-05 0)
(0.0355957 1.19495e-05 0)
(0.0354935 1.00013e-05 0)
(0.0354071 8.18849e-06 0)
(0.0353354 6.54836e-06 0)
(0.0352765 5.12497e-06 0)
(0.0352285 3.9656e-06 0)
(0.0351892 3.09718e-06 0)
(0.0351557 2.56293e-06 0)
(0.0351268 2.24784e-06 0)
(0.0350965 2.44526e-06 0)
(0.0350737 1.89307e-06 0)
(0.0350305 4.01459e-06 0)
(0.0350322 -3.11884e-06 0)
(0.0349783 8.44798e-06 0)
(0.193852 0.0123063 0)
(0.199706 0.0146034 0)
(0.201727 0.0138508 0)
(0.198186 0.0114177 0)
(0.190831 0.0087978 0)
(0.181955 0.00669729 0)
(0.173025 0.00520716 0)
(0.164654 0.00418017 0)
(0.157 0.00345164 0)
(0.150054 0.00291003 0)
(0.143756 0.00249243 0)
(0.138039 0.00216317 0)
(0.132834 0.00189929 0)
(0.12808 0.0016844 0)
(0.123723 0.00150656 0)
(0.119713 0.00135714 0)
(0.116011 0.00122993 0)
(0.112579 0.00112038 0)
(0.109389 0.00102509 0)
(0.106414 0.000941505 0)
(0.103633 0.000867653 0)
(0.101027 0.000801981 0)
(0.0985787 0.000743247 0)
(0.0962746 0.000690448 0)
(0.0941021 0.000642762 0)
(0.0920504 0.000599508 0)
(0.0901098 0.00056012 0)
(0.0882718 0.00052412 0)
(0.086529 0.000491104 0)
(0.0848745 0.000460728 0)
(0.0833024 0.000432695 0)
(0.0818073 0.000406751 0)
(0.0803843 0.000382672 0)
(0.0790292 0.000360264 0)
(0.0777381 0.000339359 0)
(0.0765073 0.000319804 0)
(0.0753338 0.000301468 0)
(0.0742147 0.000284233 0)
(0.0731475 0.000267992 0)
(0.0721297 0.000252653 0)
(0.0711593 0.00023813 0)
(0.0702345 0.000224349 0)
(0.0693535 0.00021124 0)
(0.0685149 0.000198742 0)
(0.0677173 0.0001868 0)
(0.0669595 0.000175365 0)
(0.0662405 0.000164391 0)
(0.0655593 0.00015384 0)
(0.0649151 0.000143676 0)
(0.0643072 0.000133868 0)
(0.063735 0.000124389 0)
(0.0631978 0.000115216 0)
(0.0626951 0.000106332 0)
(0.0622265 9.77209e-05 0)
(0.0617915 8.93735e-05 0)
(0.0613896 8.12838e-05 0)
(0.0610205 7.345e-05 0)
(0.0606834 6.58748e-05 0)
(0.060378 5.85657e-05 0)
(0.0601035 5.15364e-05 0)
(0.059859 4.48108e-05 0)
(0.0596436 3.84277e-05 0)
(0.059456 3.24464e-05 0)
(0.0592943 2.6949e-05 0)
(0.0591566 2.20378e-05 0)
(0.05904 1.78228e-05 0)
(0.0589414 1.44036e-05 0)
(0.0588574 1.18384e-05 0)
(0.0587839 1.01515e-05 0)
(0.0587185 9.19111e-06 0)
(0.0586543 9.14333e-06 0)
(0.0586 8.41146e-06 0)
(0.0585249 1.12588e-05 0)
(0.0585021 -4.21138e-07 0)
(0.0584045 1.83105e-05 0)
(0.192824 0.010514 0)
(0.197042 0.0125707 0)
(0.201863 0.0125903 0)
(0.204639 0.0112975 0)
(0.20468 0.00966637 0)
(0.202625 0.00821457 0)
(0.199288 0.00705829 0)
(0.195223 0.00614982 0)
(0.190754 0.00541569 0)
(0.186083 0.00480247 0)
(0.18135 0.00428 0)
(0.176651 0.00383166 0)
(0.172051 0.00344604 0)
(0.167591 0.00311351 0)
(0.163294 0.00282557 0)
(0.159174 0.00257498 0)
(0.155234 0.00235571 0)
(0.151475 0.00216277 0)
(0.14789 0.00199204 0)
(0.144475 0.00184019 0)
(0.141221 0.00170445 0)
(0.138121 0.00158254 0)
(0.135167 0.00147258 0)
(0.132351 0.00137299 0)
(0.129665 0.00128244 0)
(0.127101 0.00119982 0)
(0.124654 0.00112418 0)
(0.122316 0.00105471 0)
(0.120082 0.00099071 0)
(0.117946 0.000931587 0)
(0.115903 0.000876818 0)
(0.113947 0.00082595 0)
(0.112076 0.000778584 0)
(0.110284 0.000734371 0)
(0.108568 0.000693002 0)
(0.106924 0.000654202 0)
(0.10535 0.000617726 0)
(0.103843 0.000583357 0)
(0.102399 0.000550898 0)
(0.101017 0.000520173 0)
(0.099694 0.000491023 0)
(0.0984286 0.000463306 0)
(0.0972187 0.000436891 0)
(0.0960629 0.000411661 0)
(0.0949597 0.000387512 0)
(0.0939078 0.000364348 0)
(0.0929062 0.000342083 0)
(0.0919539 0.000320641 0)
(0.0910499 0.000299953 0)
(0.0901935 0.000279962 0)
(0.0893841 0.000260614 0)
(0.0886211 0.000241867 0)
(0.0879039 0.000223686 0)
(0.087232 0.000206046 0)
(0.086605 0.000188928 0)
(0.0860223 0.000172324 0)
(0.0854835 0.000156235 0)
(0.0849879 0.000140673 0)
(0.0845349 0.00012566 0)
(0.0841236 0.000111232 0)
(0.0837529 9.7447e-05 0)
(0.0834215 8.43902e-05 0)
(0.0831278 7.21822e-05 0)
(0.0828694 6.098e-05 0)
(0.0826436 5.09692e-05 0)
(0.0824473 4.2341e-05 0)
(0.0822764 3.52564e-05 0)
(0.0821267 2.98073e-05 0)
(0.0819936 2.59859e-05 0)
(0.0818738 2.36006e-05 0)
(0.0817599 2.26498e-05 0)
(0.0816592 2.13703e-05 0)
(0.0815413 2.4183e-05 0)
(0.0814805 9.13196e-06 0)
(0.0813248 3.23423e-05 0)
(0.19355 0.00975483 0)
(0.196206 0.0114791 0)
(0.199579 0.0115184 0)
(0.202363 0.0105142 0)
(0.204011 0.00928202 0)
(0.204643 0.00822157 0)
(0.204517 0.00739469 0)
(0.203794 0.00674406 0)
(0.202559 0.00620415 0)
(0.20088 0.0057312 0)
(0.198831 0.00530336 0)
(0.196484 0.00491205 0)
(0.193908 0.00455378 0)
(0.191163 0.00422612 0)
(0.188301 0.00392661 0)
(0.185364 0.00365286 0)
(0.182388 0.00340256 0)
(0.179402 0.00317353 0)
(0.176426 0.00296378 0)
(0.17348 0.00277146 0)
(0.170575 0.00259489 0)
(0.167723 0.00243254 0)
(0.164932 0.00228303 0)
(0.162205 0.00214511 0)
(0.159549 0.00201764 0)
(0.156963 0.00189963 0)
(0.154451 0.00179017 0)
(0.152013 0.00168845 0)
(0.149649 0.00159374 0)
(0.147358 0.00150539 0)
(0.14514 0.00142283 0)
(0.142993 0.00134553 0)
(0.140916 0.00127301 0)
(0.138909 0.00120486 0)
(0.136969 0.00114069 0)
(0.135095 0.00108015 0)
(0.133286 0.00102293 0)
(0.13154 0.000968736 0)
(0.129856 0.000917315 0)
(0.128233 0.000868425 0)
(0.12667 0.00082185 0)
(0.125165 0.000777391 0)
(0.123718 0.000734867 0)
(0.122328 0.000694112 0)
(0.120993 0.000654976 0)
(0.119713 0.000617322 0)
(0.118487 0.000581025 0)
(0.117316 0.000545974 0)
(0.116198 0.00051207 0)
(0.115132 0.000479226 0)
(0.11412 0.000447367 0)
(0.113159 0.000416431 0)
(0.112251 0.000386367 0)
(0.111395 0.00035714 0)
(0.11059 0.000328726 0)
(0.109836 0.00030112 0)
(0.109133 0.000274329 0)
(0.108481 0.000248378 0)
(0.107879 0.000223313 0)
(0.107325 0.000199203 0)
(0.10682 0.00017615 0)
(0.106362 0.000154297 0)
(0.105948 0.000133837 0)
(0.105577 0.00011501 0)
(0.105246 9.80941e-05 0)
(0.104951 8.33667e-05 0)
(0.104689 7.10567e-05 0)
(0.104454 6.12935e-05 0)
(0.104243 5.4047e-05 0)
(0.10405 4.9083e-05 0)
(0.10387 4.62177e-05 0)
(0.103708 4.35949e-05 0)
(0.103534 4.53918e-05 0)
(0.103423 2.80221e-05 0)
(0.103193 5.27125e-05 0)
(0.194334 0.00915804 0)
(0.196455 0.0106765 0)
(0.198968 0.0107797 0)
(0.200989 0.00995161 0)
(0.202271 0.00889173 0)
(0.203025 0.00797201 0)
(0.203493 0.00726377 0)
(0.203769 0.00672303 0)
(0.203851 0.00629211 0)
(0.203716 0.00592776 0)
(0.20335 0.005604 0)
(0.20275 0.0053075 0)
(0.201921 0.00503167 0)
(0.200877 0.00477278 0)
(0.199639 0.00452847 0)
(0.198227 0.00429719 0)
(0.196664 0.00407794 0)
(0.194973 0.00387 0)
(0.193173 0.00367284 0)
(0.191286 0.00348598 0)
(0.189329 0.003309 0)
(0.187319 0.00314146 0)
(0.185269 0.00298294 0)
(0.183193 0.00283299 0)
(0.181103 0.00269117 0)
(0.179007 0.00255703 0)
(0.176915 0.00243013 0)
(0.174833 0.00231006 0)
(0.172767 0.00219638 0)
(0.170724 0.00208869 0)
(0.168707 0.00198661 0)
(0.16672 0.00188977 0)
(0.164766 0.00179782 0)
(0.162848 0.00171041 0)
(0.160968 0.00162725 0)
(0.159129 0.00154803 0)
(0.15733 0.00147246 0)
(0.155575 0.00140029 0)
(0.153863 0.00133126 0)
(0.152195 0.00126515 0)
(0.150573 0.00120173 0)
(0.148998 0.0011408 0)
(0.147468 0.00108216 0)
(0.145986 0.00102564 0)
(0.144552 0.000971075 0)
(0.143166 0.000918311 0)
(0.141828 0.000867208 0)
(0.140539 0.00081764 0)
(0.1393 0.000769494 0)
(0.13811 0.000722669 0)
(0.13697 0.00067708 0)
(0.135881 0.000632658 0)
(0.134843 0.000589346 0)
(0.133856 0.00054711 0)
(0.132921 0.00050593 0)
(0.132038 0.000465808 0)
(0.131206 0.00042677 0)
(0.130426 0.000388862 0)
(0.129699 0.000352162 0)
(0.129022 0.000316781 0)
(0.128396 0.000282874 0)
(0.127819 0.000250649 0)
(0.127291 0.000220377 0)
(0.126809 0.000192385 0)
(0.12637 0.000167041 0)
(0.125971 0.00014471 0)
(0.12561 0.000125692 0)
(0.125281 0.000110159 0)
(0.124981 9.80753e-05 0)
(0.124706 8.918e-05 0)
(0.124449 8.31365e-05 0)
(0.124214 7.8103e-05 0)
(0.123973 7.76503e-05 0)
(0.123804 5.89211e-05 0)
(0.123486 8.1622e-05 0)
(0.194971 0.0085862 0)
(0.196767 0.00991984 0)
(0.198894 0.0101195 0)
(0.200591 0.00949881 0)
(0.20162 0.00861196 0)
(0.202173 0.00779482 0)
(0.202509 0.00713786 0)
(0.202765 0.00662439 0)
(0.20298 0.00621702 0)
(0.203148 0.00588288 0)
(0.203256 0.00559823 0)
(0.203288 0.00534784 0)
(0.203226 0.00512224 0)
(0.203057 0.00491503 0)
(0.202774 0.00472166 0)
(0.202372 0.00453894 0)
(0.201849 0.00436466 0)
(0.201208 0.00419738 0)
(0.200452 0.00403613 0)
(0.199588 0.0038803 0)
(0.198622 0.00372951 0)
(0.197564 0.00358353 0)
(0.196421 0.0034422 0)
(0.195203 0.00330542 0)
(0.193917 0.00317314 0)
(0.192574 0.00304526 0)
(0.191181 0.00292172 0)
(0.189746 0.00280244 0)
(0.188276 0.00268733 0)
(0.186779 0.00257628 0)
(0.185261 0.00246917 0)
(0.183727 0.00236588 0)
(0.182184 0.00226627 0)
(0.180636 0.00217019 0)
(0.179088 0.0020775 0)
(0.177544 0.00198804 0)
(0.176009 0.00190166 0)
(0.174485 0.00181819 0)
(0.172976 0.00173747 0)
(0.171484 0.00165936 0)
(0.170013 0.00158369 0)
(0.168565 0.00151032 0)
(0.167142 0.0014391 0)
(0.165746 0.00136988 0)
(0.16438 0.00130254 0)
(0.163046 0.00123694 0)
(0.161744 0.00117296 0)
(0.160477 0.00111051 0)
(0.159246 0.00104947 0)
(0.158053 0.000989769 0)
(0.156899 0.000931327 0)
(0.155786 0.000874089 0)
(0.154715 0.000818016 0)
(0.153687 0.000763087 0)
(0.152702 0.000709304 0)
(0.151763 0.000656693 0)
(0.15087 0.000605306 0)
(0.150024 0.000555226 0)
(0.149224 0.000506574 0)
(0.148472 0.00045951 0)
(0.147766 0.00041425 0)
(0.147107 0.000371074 0)
(0.146495 0.000330331 0)
(0.145926 0.000292435 0)
(0.1454 0.000257841 0)
(0.144915 0.000226997 0)
(0.144467 0.000200269 0)
(0.144054 0.000177877 0)
(0.143671 0.0001598 0)
(0.143317 0.000145773 0)
(0.142985 0.000135336 0)
(0.142679 0.000126822 0)
(0.142371 0.000122801 0)
(0.142143 0.000103718 0)
(0.141736 0.000120623 0)
(0.195519 0.00808762 0)
(0.197035 0.00925564 0)
(0.198864 0.00952258 0)
(0.200388 0.00908012 0)
(0.201354 0.00835821 0)
(0.201874 0.00764967 0)
(0.202157 0.00705112 0)
(0.202337 0.00656358 0)
(0.202472 0.00616578 0)
(0.202585 0.00583606 0)
(0.202685 0.00555665 0)
(0.202773 0.00531478 0)
(0.202844 0.00510171 0)
(0.20289 0.00491113 0)
(0.202904 0.00473807 0)
(0.202877 0.00457864 0)
(0.202802 0.00442981 0)
(0.20267 0.00428928 0)
(0.202478 0.00415531 0)
(0.202221 0.00402657 0)
(0.201896 0.0039021 0)
(0.201501 0.0037812 0)
(0.201038 0.00366336 0)
(0.200506 0.00354824 0)
(0.199907 0.00343559 0)
(0.199244 0.00332526 0)
(0.198519 0.00321715 0)
(0.197738 0.00311118 0)
(0.196902 0.00300733 0)
(0.196017 0.00290556 0)
(0.195086 0.00280587 0)
(0.194115 0.00270823 0)
(0.193106 0.00261263 0)
(0.192066 0.00251904 0)
(0.190997 0.00242743 0)
(0.189904 0.00233777 0)
(0.188792 0.00225 0)
(0.187663 0.00216408 0)
(0.186522 0.00207995 0)
(0.185373 0.00199753 0)
(0.184218 0.00191677 0)
(0.183062 0.00183757 0)
(0.181906 0.00175987 0)
(0.180756 0.0016836 0)
(0.179612 0.00160866 0)
(0.178479 0.00153499 0)
(0.177358 0.00146251 0)
(0.176253 0.00139116 0)
(0.175166 0.00132088 0)
(0.174099 0.00125162 0)
(0.173054 0.00118334 0)
(0.172035 0.00111603 0)
(0.171042 0.00104966 0)
(0.170078 0.000984266 0)
(0.169144 0.000919875 0)
(0.168243 0.000856553 0)
(0.167376 0.000794396 0)
(0.166544 0.000733532 0)
(0.165749 0.000674133 0)
(0.164991 0.00061642 0)
(0.16427 0.000560676 0)
(0.163588 0.000507253 0)
(0.162945 0.00045658 0)
(0.162339 0.000409153 0)
(0.161769 0.000365506 0)
(0.161236 0.000326164 0)
(0.160736 0.000291558 0)
(0.160268 0.000261956 0)
(0.15983 0.000237361 0)
(0.159419 0.000217537 0)
(0.159032 0.00020192 0)
(0.158672 0.000189197 0)
(0.158311 0.000180545 0)
(0.158036 0.00016219 0)
(0.157555 0.000169808 0)
(0.196001 0.00765799 0)
(0.197285 0.00867862 0)
(0.198848 0.00898238 0)
(0.200209 0.00867944 0)
(0.201134 0.00810033 0)
(0.201674 0.00749602 0)
(0.201982 0.00696256 0)
(0.202171 0.00651155 0)
(0.202293 0.00613221 0)
(0.202375 0.00581107 0)
(0.202434 0.00553546 0)
(0.202482 0.00529533 0)
(0.202522 0.00508351 0)
(0.202559 0.00489474 0)
(0.20259 0.0047248 0)
(0.202615 0.00457024 0)
(0.20263 0.00442821 0)
(0.202632 0.00429642 0)
(0.202616 0.004173 0)
(0.202579 0.00405642 0)
(0.202516 0.00394541 0)
(0.202422 0.00383898 0)
(0.202296 0.0037363 0)
(0.202133 0.0036367 0)
(0.201931 0.00353966 0)
(0.201688 0.00344477 0)
(0.201404 0.00335171 0)
(0.201077 0.00326021 0)
(0.200707 0.00317008 0)
(0.200294 0.00308119 0)
(0.19984 0.00299341 0)
(0.199344 0.00290667 0)
(0.198809 0.00282091 0)
(0.198236 0.00273607 0)
(0.197627 0.00265213 0)
(0.196985 0.00256904 0)
(0.196311 0.00248678 0)
(0.195608 0.00240532 0)
(0.194879 0.00232463 0)
(0.194125 0.00224469 0)
(0.193351 0.00216546 0)
(0.192558 0.00208691 0)
(0.191749 0.00200901 0)
(0.190927 0.00193172 0)
(0.190095 0.001855 0)
(0.189255 0.00177883 0)
(0.18841 0.00170317 0)
(0.187563 0.00162799 0)
(0.186717 0.00155329 0)
(0.185873 0.00147904 0)
(0.185035 0.00140525 0)
(0.184204 0.00133193 0)
(0.183384 0.00125912 0)
(0.182577 0.00118688 0)
(0.181785 0.00111527 0)
(0.181009 0.00104442 0)
(0.180253 0.000974452 0)
(0.179517 0.000905559 0)
(0.178805 0.000837965 0)
(0.178116 0.000771952 0)
(0.177452 0.000707869 0)
(0.176815 0.000646139 0)
(0.176204 0.000587263 0)
(0.175621 0.000531812 0)
(0.175065 0.000480393 0)
(0.174536 0.000433594 0)
(0.174033 0.000391904 0)
(0.173556 0.000355644 0)
(0.173104 0.00032485 0)
(0.172675 0.000299335 0)
(0.172266 0.000278453 0)
(0.171883 0.00026139 0)
(0.171498 0.000247651 0)
(0.1712 0.000231055 0)
(0.17068 0.000227085 0)
(0.196424 0.00728099 0)
(0.19752 0.00817065 0)
(0.198856 0.00849075 0)
(0.200063 0.00829777 0)
(0.200933 0.00784083 0)
(0.201481 0.00733098 0)
(0.201817 0.00686072 0)
(0.202034 0.00644929 0)
(0.202177 0.00609372 0)
(0.202271 0.00578673 0)
(0.202331 0.00551974 0)
(0.202369 0.00528483 0)
(0.202394 0.00507599 0)
(0.202411 0.00488876 0)
(0.202422 0.00471956 0)
(0.202429 0.00456546 0)
(0.202435 0.00442403 0)
(0.202438 0.00429329 0)
(0.20244 0.00417161 0)
(0.202437 0.00405762 0)
(0.20243 0.00395016 0)
(0.202415 0.00384824 0)
(0.202392 0.00375102 0)
(0.202357 0.00365779 0)
(0.202308 0.00356792 0)
(0.202243 0.0034809 0)
(0.20216 0.00339626 0)
(0.202057 0.00331362 0)
(0.201932 0.00323266 0)
(0.201783 0.00315309 0)
(0.201609 0.00307467 0)
(0.20141 0.00299722 0)
(0.201183 0.00292055 0)
(0.20093 0.00284453 0)
(0.200648 0.00276903 0)
(0.20034 0.00269395 0)
(0.200004 0.00261921 0)
(0.199641 0.00254472 0)
(0.199253 0.00247042 0)
(0.198839 0.00239624 0)
(0.198401 0.00232214 0)
(0.197941 0.00224806 0)
(0.197459 0.00217396 0)
(0.196957 0.0020998 0)
(0.196437 0.00202556 0)
(0.1959 0.00195119 0)
(0.195348 0.00187668 0)
(0.194784 0.00180201 0)
(0.194209 0.00172719 0)
(0.193625 0.00165222 0)
(0.193034 0.00157711 0)
(0.192438 0.00150191 0)
(0.19184 0.00142668 0)
(0.191241 0.0013515 0)
(0.190644 0.00127648 0)
(0.19005 0.00120177 0)
(0.189461 0.00112754 0)
(0.18888 0.00105401 0)
(0.188308 0.000981467 0)
(0.187746 0.000910239 0)
(0.187197 0.000840729 0)
(0.186661 0.00077342 0)
(0.18614 0.000708873 0)
(0.185634 0.000647717 0)
(0.185144 0.000590615 0)
(0.184671 0.000538207 0)
(0.184216 0.000491031 0)
(0.183777 0.000449455 0)
(0.183356 0.000413551 0)
(0.182952 0.000383202 0)
(0.182563 0.000357698 0)
(0.182194 0.000336808 0)
(0.181821 0.000318287 0)
(0.181529 0.000304182 0)
(0.181017 0.000288194 0)
(0.196795 0.00694639 0)
(0.197737 0.00772228 0)
(0.198884 0.00804568 0)
(0.199952 0.00793891 0)
(0.200761 0.00758558 0)
(0.201303 0.00715984 0)
(0.201656 0.00674853 0)
(0.201894 0.00637628 0)
(0.202058 0.00604612 0)
(0.202169 0.00575563 0)
(0.202243 0.00549972 0)
(0.202291 0.00527251 0)
(0.202321 0.00506901 0)
(0.202338 0.0048854 0)
(0.202346 0.00471855 0)
(0.202347 0.00456589 0)
(0.202344 0.00442526 0)
(0.202337 0.00429492 0)
(0.202329 0.00417343 0)
(0.202319 0.00405958 0)
(0.202309 0.00395236 0)
(0.202298 0.00385093 0)
(0.202286 0.00375453 0)
(0.202272 0.00366253 0)
(0.202256 0.00357438 0)
(0.202237 0.00348957 0)
(0.202213 0.00340766 0)
(0.202184 0.00332827 0)
(0.202147 0.00325104 0)
(0.202103 0.00317565 0)
(0.202048 0.00310183 0)
(0.201983 0.00302932 0)
(0.201906 0.00295789 0)
(0.201815 0.00288733 0)
(0.20171 0.00281745 0)
(0.20159 0.00274809 0)
(0.201454 0.00267909 0)
(0.2013 0.00261031 0)
(0.20113 0.00254163 0)
(0.200942 0.00247292 0)
(0.200737 0.00240409 0)
(0.200513 0.00233503 0)
(0.200272 0.00226567 0)
(0.200013 0.00219593 0)
(0.199738 0.00212575 0)
(0.199445 0.00205505 0)
(0.199137 0.00198381 0)
(0.198814 0.00191199 0)
(0.198477 0.00183958 0)
(0.198127 0.00176656 0)
(0.197765 0.00169295 0)
(0.197393 0.00161879 0)
(0.19701 0.00154414 0)
(0.19662 0.00146909 0)
(0.196223 0.00139376 0)
(0.195821 0.00131831 0)
(0.195415 0.00124293 0)
(0.195007 0.00116787 0)
(0.194597 0.00109344 0)
(0.194188 0.00101999 0)
(0.193781 0.000947968 0)
(0.193377 0.000877893 0)
(0.192977 0.000810362 0)
(0.192582 0.000746041 0)
(0.192194 0.000685626 0)
(0.191813 0.000629791 0)
(0.19144 0.000579107 0)
(0.191076 0.000533977 0)
(0.190721 0.000494512 0)
(0.190377 0.000460668 0)
(0.190041 0.000431695 0)
(0.189721 0.000407939 0)
(0.189392 0.000385604 0)
(0.189134 0.000374159 0)
(0.188675 0.000347714 0)
(0.197124 0.00664719 0)
(0.197939 0.00732577 0)
(0.198926 0.00764376 0)
(0.199869 0.00760314 0)
(0.200617 0.00733663 0)
(0.201145 0.00698538 0)
(0.201506 0.00662882 0)
(0.201757 0.00629484 0)
(0.201936 0.0059908 0)
(0.202062 0.00571798 0)
(0.202149 0.0054743 0)
(0.202208 0.00525586 0)
(0.202248 0.00505877 0)
(0.202272 0.00487985 0)
(0.202285 0.00471645 0)
(0.20229 0.0045663 0)
(0.202288 0.00442746 0)
(0.202281 0.00429835 0)
(0.20227 0.00417765 0)
(0.202257 0.00406425 0)
(0.202243 0.00395724 0)
(0.202227 0.00385584 0)
(0.20221 0.0037594 0)
(0.202194 0.00366734 0)
(0.202177 0.00357916 0)
(0.202161 0.00349444 0)
(0.202144 0.00341279 0)
(0.202127 0.00333386 0)
(0.202109 0.00325732 0)
(0.20209 0.00318291 0)
(0.20207 0.00311034 0)
(0.202046 0.00303938 0)
(0.20202 0.00296979 0)
(0.201989 0.00290136 0)
(0.201954 0.00283388 0)
(0.201913 0.00276718 0)
(0.201866 0.00270106 0)
(0.201812 0.00263536 0)
(0.201749 0.00256992 0)
(0.201678 0.00250459 0)
(0.201598 0.00243922 0)
(0.201508 0.0023737 0)
(0.201407 0.00230789 0)
(0.201296 0.00224168 0)
(0.201173 0.00217497 0)
(0.201039 0.00210767 0)
(0.200894 0.0020397 0)
(0.200737 0.001971 0)
(0.200568 0.00190153 0)
(0.200389 0.00183125 0)
(0.200198 0.00176016 0)
(0.199996 0.00168827 0)
(0.199784 0.00161562 0)
(0.199562 0.0015423 0)
(0.199332 0.00146841 0)
(0.199092 0.00139411 0)
(0.198845 0.00131958 0)
(0.198591 0.00124508 0)
(0.198331 0.00117092 0)
(0.198066 0.00109747 0)
(0.197796 0.00102517 0)
(0.197523 0.00095457 0)
(0.197247 0.000886266 0)
(0.196969 0.000820936 0)
(0.196691 0.000759286 0)
(0.196413 0.000702 0)
(0.196136 0.000649662 0)
(0.195862 0.000602695 0)
(0.195591 0.000561243 0)
(0.195325 0.000525329 0)
(0.195062 0.000494194 0)
(0.194808 0.000468657 0)
(0.194544 0.000443823 0)
(0.194337 0.000434551 0)
(0.193962 0.00040068 0)
(0.197415 0.00637779 0)
(0.198125 0.00697365 0)
(0.198978 0.00728056 0)
(0.199811 0.00728969 0)
(0.200497 0.00709521 0)
(0.201005 0.00680955 0)
(0.201368 0.00650357 0)
(0.201629 0.00620658 0)
(0.201818 0.00592893 0)
(0.201955 0.00567464 0)
(0.202053 0.00544408 0)
(0.202121 0.00523516 0)
(0.202169 0.00504512 0)
(0.202201 0.00487146 0)
(0.20222 0.00471203 0)
(0.20223 0.0045649 0)
(0.202233 0.00442837 0)
(0.202229 0.004301 0)
(0.202221 0.00418159 0)
(0.20221 0.00406913 0)
(0.202196 0.00396277 0)
(0.20218 0.00386178 0)
(0.202163 0.00376554 0)
(0.202145 0.00367352 0)
(0.202126 0.00358528 0)
(0.202108 0.0035004 0)
(0.202089 0.00341854 0)
(0.202071 0.00333939 0)
(0.202053 0.00326266 0)
(0.202036 0.0031881 0)
(0.20202 0.00311547 0)
(0.202003 0.00304454 0)
(0.201987 0.00297512 0)
(0.201971 0.002907 0)
(0.201954 0.00284 0)
(0.201937 0.00277394 0)
(0.201918 0.00270864 0)
(0.201898 0.00264394 0)
(0.201876 0.00257968 0)
(0.201851 0.00251571 0)
(0.201822 0.00245187 0)
(0.20179 0.00238801 0)
(0.201754 0.00232401 0)
(0.201713 0.00225973 0)
(0.201667 0.00219506 0)
(0.201615 0.00212987 0)
(0.201557 0.00206408 0)
(0.201493 0.0019976 0)
(0.201421 0.00193036 0)
(0.201343 0.00186231 0)
(0.201256 0.00179341 0)
(0.201162 0.00172367 0)
(0.201061 0.00165311 0)
(0.200951 0.00158178 0)
(0.200834 0.00150978 0)
(0.200709 0.00143724 0)
(0.200576 0.00136434 0)
(0.200436 0.00129132 0)
(0.200289 0.00121848 0)
(0.200134 0.00114618 0)
(0.199974 0.00107487 0)
(0.199807 0.00100506 0)
(0.199634 0.000937355 0)
(0.199457 0.000872421 0)
(0.199275 0.000810946 0)
(0.19909 0.000753602 0)
(0.198902 0.000700965 0)
(0.198713 0.000653467 0)
(0.198523 0.000611269 0)
(0.198333 0.000574448 0)
(0.198144 0.000542267 0)
(0.19796 0.000515856 0)
(0.197765 0.000489807 0)
(0.197614 0.000481723 0)
(0.197332 0.000443983 0)
(0.197675 0.00613373 0)
(0.198295 0.00665945 0)
(0.199036 0.00695208 0)
(0.199772 0.00699791 0)
(0.200399 0.00686263 0)
(0.200884 0.00663427 0)
(0.201242 0.00637456 0)
(0.201507 0.00611283 0)
(0.201705 0.00586137 0)
(0.201851 0.00562615 0)
(0.201957 0.00540943 0)
(0.202034 0.00521072 0)
(0.202089 0.00502832 0)
(0.202127 0.00486045 0)
(0.202152 0.00470541 0)
(0.202167 0.00456164 0)
(0.202174 0.00442771 0)
(0.202174 0.00430234 0)
(0.20217 0.00418449 0)
(0.202161 0.00407321 0)
(0.20215 0.00396774 0)
(0.202136 0.00386739 0)
(0.20212 0.0037716 0)
(0.202103 0.00367986 0)
(0.202085 0.00359175 0)
(0.202067 0.00350688 0)
(0.202048 0.00342494 0)
(0.202029 0.00334562 0)
(0.202011 0.00326866 0)
(0.201993 0.00319383 0)
(0.201976 0.00312089 0)
(0.201959 0.00304966 0)
(0.201943 0.00297995 0)
(0.201928 0.00291156 0)
(0.201914 0.00284434 0)
(0.2019 0.00277811 0)
(0.201887 0.00271273 0)
(0.201875 0.00264803 0)
(0.201862 0.00258386 0)
(0.20185 0.00252009 0)
(0.201838 0.00245656 0)
(0.201825 0.00239313 0)
(0.201811 0.00232968 0)
(0.201796 0.00226607 0)
(0.20178 0.00220219 0)
(0.201761 0.00213791 0)
(0.20174 0.00207314 0)
(0.201717 0.00200778 0)
(0.20169 0.00194176 0)
(0.20166 0.00187501 0)
(0.201626 0.00180749 0)
(0.201588 0.0017392 0)
(0.201545 0.00167012 0)
(0.201498 0.00160032 0)
(0.201445 0.00152987 0)
(0.201386 0.00145888 0)
(0.201322 0.00138753 0)
(0.201252 0.00131604 0)
(0.201176 0.00124469 0)
(0.201094 0.00117384 0)
(0.201005 0.00110389 0)
(0.200911 0.00103536 0)
(0.200811 0.000968826 0)
(0.200705 0.000904918 0)
(0.200594 0.0008443 0)
(0.200478 0.000787616 0)
(0.200358 0.000735422 0)
(0.200236 0.000688141 0)
(0.200111 0.000645944 0)
(0.199985 0.000608943 0)
(0.199857 0.000576457 0)
(0.199732 0.00054974 0)
(0.199597 0.000523442 0)
(0.199494 0.000515389 0)
(0.199297 0.000476911 0)
(0.197907 0.00591153 0)
(0.198453 0.00637779 0)
(0.199099 0.00665466 0)
(0.199748 0.006727 0)
(0.20032 0.00663986 0)
(0.200778 0.00646107 0)
(0.201128 0.00624331 0)
(0.201394 0.00601479 0)
(0.201596 0.00578894 0)
(0.201749 0.00557299 0)
(0.201863 0.00537064 0)
(0.201947 0.00518271 0)
(0.202008 0.00500851 0)
(0.202052 0.00484689 0)
(0.202082 0.00469666 0)
(0.202101 0.0045566 0)
(0.202112 0.00442555 0)
(0.202116 0.00430243 0)
(0.202115 0.00418631 0)
(0.202109 0.00407638 0)
(0.2021 0.00397194 0)
(0.202088 0.00387238 0)
(0.202075 0.00377715 0)
(0.20206 0.00368581 0)
(0.202043 0.00359796 0)
(0.202026 0.00351322 0)
(0.202008 0.00343131 0)
(0.20199 0.00335193 0)
(0.201973 0.00327484 0)
(0.201955 0.00319982 0)
(0.201938 0.00312664 0)
(0.201921 0.00305513 0)
(0.201905 0.00298511 0)
(0.20189 0.0029164 0)
(0.201875 0.00284884 0)
(0.201862 0.00278228 0)
(0.201849 0.00271657 0)
(0.201837 0.00265157 0)
(0.201826 0.00258714 0)
(0.201816 0.00252314 0)
(0.201807 0.00245944 0)
(0.201798 0.0023959 0)
(0.20179 0.0023324 0)
(0.201781 0.00226882 0)
(0.201773 0.00220504 0)
(0.201765 0.00214096 0)
(0.201757 0.00207648 0)
(0.201747 0.0020115 0)
(0.201737 0.00194595 0)
(0.201726 0.00187977 0)
(0.201713 0.00181292 0)
(0.201697 0.00174538 0)
(0.20168 0.00167715 0)
(0.20166 0.00160828 0)
(0.201637 0.00153883 0)
(0.201611 0.00146893 0)
(0.201581 0.00139872 0)
(0.201547 0.00132842 0)
(0.201508 0.0012583 0)
(0.201465 0.00118869 0)
(0.201418 0.00112 0)
(0.201365 0.00105271 0)
(0.201308 0.000987372 0)
(0.201245 0.000924582 0)
(0.201178 0.00086497 0)
(0.201107 0.000809144 0)
(0.201032 0.000757634 0)
(0.200954 0.000710845 0)
(0.200873 0.000668954 0)
(0.200791 0.000632089 0)
(0.200707 0.00059965 0)
(0.200624 0.000572861 0)
(0.200534 0.000546857 0)
(0.200465 0.000537853 0)
(0.200334 0.000500742 0)
(0.198116 0.00570839 0)
(0.198597 0.00612419 0)
(0.199162 0.00638492 0)
(0.199738 0.0064759 0)
(0.200257 0.00642749 0)
(0.200686 0.00629122 0)
(0.201025 0.00611117 0)
(0.201288 0.00591364 0)
(0.201493 0.00571248 0)
(0.201651 0.00551573 0)
(0.20177 0.00532804 0)
(0.20186 0.00515133 0)
(0.201927 0.00498577 0)
(0.201976 0.00483084 0)
(0.202011 0.00468581 0)
(0.202034 0.00454979 0)
(0.202049 0.0044219 0)
(0.202056 0.00430126 0)
(0.202058 0.00418708 0)
(0.202055 0.00407867 0)
(0.202048 0.0039754 0)
(0.202038 0.00387672 0)
(0.202027 0.00378217 0)
(0.202013 0.00369131 0)
(0.201998 0.00360377 0)
(0.201983 0.00351924 0)
(0.201966 0.00343742 0)
(0.20195 0.00335805 0)
(0.201933 0.00328089 0)
(0.201916 0.00320573 0)
(0.2019 0.00313237 0)
(0.201884 0.00306064 0)
(0.201868 0.00299035 0)
(0.201853 0.00292135 0)
(0.201839 0.00285349 0)
(0.201826 0.00278661 0)
(0.201813 0.00272058 0)
(0.201801 0.00265526 0)
(0.20179 0.00259051 0)
(0.20178 0.0025262 0)
(0.201771 0.00246221 0)
(0.201763 0.00239841 0)
(0.201755 0.00233468 0)
(0.201748 0.00227091 0)
(0.201741 0.002207 0)
(0.201735 0.00214283 0)
(0.201729 0.00207831 0)
(0.201724 0.00201337 0)
(0.201718 0.00194792 0)
(0.201712 0.00188192 0)
(0.201705 0.00181533 0)
(0.201698 0.00174813 0)
(0.201689 0.00168033 0)
(0.201679 0.00161196 0)
(0.201667 0.00154311 0)
(0.201654 0.00147388 0)
(0.201638 0.00140443 0)
(0.201619 0.00133497 0)
(0.201597 0.00126575 0)
(0.201572 0.00119709 0)
(0.201544 0.0011294 0)
(0.201512 0.00106312 0)
(0.201476 0.000998787 0)
(0.201436 0.000936964 0)
(0.201392 0.000878245 0)
(0.201345 0.000823203 0)
(0.201295 0.000772339 0)
(0.201242 0.000726038 0)
(0.201188 0.00068448 0)
(0.201132 0.0006478 0)
(0.201074 0.000615493 0)
(0.201018 0.000588646 0)