/*--------------------------------*- C++ -*----------------------------------*\
| =========                 |                                                 |
| \\      /  F ield         | OpenFOAM: The Open Source CFD Toolbox           |
|  \\    /   O peration     | Version:  2.3.0                                 |
|   \\  /    A nd           | Web:      www.OpenFOAM.org                      |
|    \\/     M anipulation  |                                                 |
\*---------------------------------------------------------------------------*/
FoamFile
{
    version     2.0;
    format      ascii;
    class       surfaceScalarField;
    location    "0.1";
    object      phi;
}
// * * * * * * * * * * * * * * * * * * * * * * * * * * * * * * * * * * * * * //

dimensions      [0 3 -1 0 0 0 0];

internalField   nonuniform List<scalar> 
17305
(
2.83702e-08
2.87752e-09
-3.12477e-08
2.55086e-08
2.86154e-09
2.2824e-08
2.68467e-09
2.03501e-08
2.47388e-09
1.81031e-08
2.24694e-09
1.60938e-08
2.00933e-09
1.43246e-08
1.76921e-09
1.27902e-08
1.53438e-09
1.14788e-08
1.31141e-09
1.03732e-08
1.10563e-09
9.45221e-09
9.20969e-10
8.69252e-09
7.59696e-10
8.0701e-09
6.22415e-10
7.56184e-09
5.08265e-10
7.14658e-09
4.15262e-10
6.80586e-09
3.40718e-10
6.52422e-09
2.81639e-10
6.28916e-09
2.35059e-10
6.09089e-09
1.98269e-10
5.92195e-09
1.68943e-10
5.77679e-09
1.45162e-10
5.65142e-09
1.25364e-10
5.54318e-09
1.0824e-10
5.45055e-09
9.26352e-11
5.37302e-09
7.7525e-11
5.31094e-09
6.20866e-11
5.26525e-09
4.56866e-11
5.23725e-09
2.80021e-11
5.22764e-09
9.60952e-12
5.23273e-09
-5.09439e-12
5.24758e-09
-1.48511e-11
5.26872e-09
-2.11424e-11
5.29321e-09
-2.44864e-11
5.31845e-09
-2.52427e-11
5.34263e-09
-2.41783e-11
5.36469e-09
-2.20559e-11
5.38414e-09
-1.94482e-11
5.40087e-09
-1.67305e-11
5.41499e-09
-1.41251e-11
5.42674e-09
-1.17488e-11
5.43639e-09
-9.65098e-12
5.44423e-09
-7.84145e-12
5.45054e-09
-6.30723e-12
5.45556e-09
-5.02396e-12
5.45953e-09
-3.96294e-12
5.46262e-09
-3.09495e-12
5.46501e-09
-2.39204e-12
5.46684e-09
-1.82853e-12
5.46822e-09
-1.38119e-12
5.46925e-09
-1.02953e-12
5.47001e-09
-7.55403e-13
5.47055e-09
-5.4271e-13
5.47093e-09
-3.76359e-13
5.47117e-09
-2.46863e-13
5.47133e-09
-1.52896e-13
5.4714e-09
-7.21976e-14
5.4714e-09
-9.15044e-16
5.47134e-09
6.10981e-14
5.47123e-09
1.10393e-13
5.47108e-09
1.46055e-13
5.47091e-09
1.72099e-13
5.47072e-09
1.92024e-13
5.47051e-09
2.08122e-13
5.47029e-09
2.21733e-13
5.47006e-09
2.33544e-13
5.46981e-09
2.43873e-13
5.46956e-09
2.52898e-13
5.4693e-09
2.60636e-13
5.46903e-09
2.67145e-13
5.46876e-09
2.7245e-13
5.46848e-09
2.76619e-13
5.4682e-09
2.79698e-13
5.46792e-09
2.81762e-13
5.46764e-09
2.82878e-13
5.46735e-09
2.83126e-13
5.46707e-09
2.82591e-13
5.46679e-09
2.81333e-13
5.46651e-09
2.79426e-13
5.46623e-09
2.76943e-13
5.46596e-09
2.73938e-13
5.46569e-09
2.70484e-13
5.46542e-09
2.6662e-13
5.46516e-09
2.62424e-13
5.4649e-09
2.57939e-13
5.46465e-09
2.53213e-13
5.4644e-09
2.48322e-13
5.46416e-09
2.43305e-13
5.46392e-09
2.38253e-13
5.46369e-09
2.33233e-13
5.46346e-09
2.28351e-13
5.46323e-09
2.23751e-13
5.46301e-09
2.1961e-13
5.4628e-09
2.16233e-13
5.46258e-09
2.14053e-13
5.46237e-09
2.13841e-13
5.46215e-09
2.16965e-13
5.46193e-09
2.26216e-13
5.46168e-09
2.47583e-13
5.46139e-09
2.85434e-13
7.67972e-13
3.34086e-08
3.14708e-09
-3.36782e-08
3.2826e-08
3.44411e-09
3.20124e-08
3.49834e-09
3.10446e-08
3.44167e-09
2.99783e-08
3.31321e-09
2.88593e-08
3.1283e-09
2.77248e-08
2.90374e-09
2.66033e-08
2.6559e-09
2.5516e-08
2.39871e-09
2.44779e-08
2.14368e-09
2.3499e-08
1.89989e-09
2.25849e-08
1.67383e-09
2.17379e-08
1.46938e-09
2.09581e-08
1.28808e-09
2.02438e-08
1.12962e-09
1.95921e-08
9.92349e-10
1.89999e-08
8.73864e-10
1.84635e-08
7.71416e-10
1.79796e-08
6.82247e-10
1.75447e-08
6.03777e-10
1.71562e-08
5.33674e-10
1.68118e-08
4.6983e-10
1.65097e-08
4.10304e-10
1.6249e-08
3.53297e-10
1.60293e-08
2.97279e-10
1.58501e-08
2.41288e-10
1.57105e-08
1.85288e-10
1.56082e-08
1.30275e-10
1.55408e-08
7.70021e-11
1.55099e-08
2.58345e-11
1.55118e-08
-1.67777e-11
1.55356e-08
-4.48982e-11
1.55722e-08
-6.10968e-11
1.56153e-08
-6.83302e-11
1.56602e-08
-6.91615e-11
1.5704e-08
-6.58327e-11
1.57447e-08
-6.01035e-11
1.57812e-08
-5.32316e-11
1.58131e-08
-4.60541e-11
1.58404e-08
-3.90914e-11
1.58634e-08
-3.26413e-11
1.58824e-08
-2.68525e-11
1.58979e-08
-2.17783e-11
1.59103e-08
-1.74136e-11
1.59201e-08
-1.37193e-11
1.59276e-08
-1.06379e-11
1.59333e-08
-8.10331e-12
1.59375e-08
-6.04692e-12
1.59406e-08
-4.4012e-12
1.59426e-08
-3.10221e-12
1.5944e-08
-2.09077e-12
1.59447e-08
-1.31294e-12
1.59451e-08
-7.17865e-13
1.59451e-08
-2.61911e-13
1.59448e-08
1.01722e-13
1.59443e-08
4.39182e-13
1.59436e-08
7.24709e-13
1.59427e-08
9.41785e-13
1.59417e-08
1.09567e-12
1.59407e-08
1.20059e-12
1.59396e-08
1.2716e-12
1.59385e-08
1.32036e-12
1.59373e-08
1.35471e-12
1.59361e-08
1.37952e-12
1.5935e-08
1.39758e-12
1.59338e-08
1.41039e-12
1.59327e-08
1.41881e-12
1.59315e-08
1.42329e-12
1.59303e-08
1.42411e-12
1.59292e-08
1.42152e-12
1.5928e-08
1.41576e-12
1.59269e-08
1.40704e-12
1.59258e-08
1.39561e-12
1.59247e-08
1.3817e-12
1.59236e-08
1.36555e-12
1.59226e-08
1.34737e-12
1.59215e-08
1.32739e-12
1.59205e-08
1.3058e-12
1.59195e-08
1.28279e-12
1.59185e-08
1.25854e-12
1.59175e-08
1.23321e-12
1.59166e-08
1.20697e-12
1.59157e-08
1.17996e-12
1.59148e-08
1.15233e-12
1.59139e-08
1.12421e-12
1.59131e-08
1.09578e-12
1.59122e-08
1.06717e-12
1.59114e-08
1.03857e-12
1.59107e-08
1.0102e-12
1.59099e-08
9.82308e-13
1.59092e-08
9.55274e-13
1.59085e-08
9.29581e-13
1.59078e-08
9.05993e-13
1.59071e-08
8.8569e-13
1.59064e-08
8.7069e-13
1.59058e-08
8.64686e-13
1.59052e-08
8.75129e-13
1.59045e-08
9.18407e-13
1.59037e-08
1.07249e-12
1.75765e-12
3.48035e-08
2.99214e-09
-3.46486e-08
3.48707e-08
3.37696e-09
3.48124e-08
3.5566e-09
3.46346e-08
3.61951e-09
3.4348e-08
3.59977e-09
3.39673e-08
3.50904e-09
3.35101e-08
3.36097e-09
3.29945e-08
3.17146e-09
3.24377e-08
2.95553e-09
3.18549e-08
2.72642e-09
3.12595e-08
2.4953e-09
3.06624e-08
2.27091e-09
3.00725e-08
2.05935e-09
2.94964e-08
1.86414e-09
2.89394e-08
1.68666e-09
2.84051e-08
1.52663e-09
2.78963e-08
1.38265e-09
2.7415e-08
1.25267e-09
2.69629e-08
1.13438e-09
2.65413e-08
1.02541e-09
2.61515e-08
9.2346e-10
2.5795e-08
8.26351e-10
2.54733e-08
7.32022e-10
2.51879e-08
6.38659e-10
2.49402e-08
5.44955e-10
2.4731e-08
4.50507e-10
2.45602e-08
3.56122e-10
2.44266e-08
2.63842e-10
2.4327e-08
1.7665e-10
2.42554e-08
9.7382e-11
2.42114e-08
2.72178e-11
2.41955e-08
-2.89676e-11
2.42017e-08
-6.73591e-11
2.42239e-08
-9.05222e-11
2.42567e-08
-1.01921e-10
2.42956e-08
-1.04745e-10
2.43372e-08
-1.01707e-10
2.43789e-08
-9.49477e-11
2.44189e-08
-8.6058e-11
2.4456e-08
-7.61727e-11
2.44894e-08
-6.60707e-11
2.45189e-08
-5.62674e-11
2.45442e-08
-4.70885e-11
2.45655e-08
-3.87251e-11
2.4583e-08
-3.12737e-11
2.45972e-08
-2.47645e-11
2.46082e-08
-1.91808e-11
2.46167e-08
-1.44743e-11
2.46228e-08
-1.05753e-11
2.46271e-08
-7.40115e-12
2.46299e-08
-4.8631e-12
2.46315e-08
-2.87109e-12
2.46321e-08
-1.33393e-12
2.46319e-08
-1.22998e-13
2.46312e-08
8.76389e-13
2.46299e-08
1.71341e-12
2.46283e-08
2.36914e-12
2.46263e-08
2.84822e-12
2.46243e-08
3.17834e-12
2.46221e-08
3.39474e-12
2.46198e-08
3.53031e-12
2.46175e-08
3.61097e-12
2.46152e-08
3.65513e-12
2.46129e-08
3.67505e-12
2.46106e-08
3.67839e-12
2.46084e-08
3.66982e-12
2.46062e-08
3.65214e-12
2.4604e-08
3.62704e-12
2.46018e-08
3.59557e-12
2.45996e-08
3.55849e-12
2.45975e-08
3.51638e-12
2.45955e-08
3.46975e-12
2.45935e-08
3.41906e-12
2.45915e-08
3.36475e-12
2.45895e-08
3.30721e-12
2.45876e-08
3.24684e-12
2.45858e-08
3.18398e-12
2.4584e-08
3.11895e-12
2.45822e-08
3.05208e-12
2.45805e-08
2.98364e-12
2.45788e-08
2.9139e-12
2.45771e-08
2.84311e-12
2.45756e-08
2.77149e-12
2.4574e-08
2.69929e-12
2.45725e-08
2.6267e-12
2.45711e-08
2.55398e-12
2.45696e-08
2.48138e-12
2.45683e-08
2.40916e-12
2.45669e-08
2.33768e-12
2.45657e-08
2.26735e-12
2.45644e-08
2.19876e-12
2.45632e-08
2.13272e-12
2.4562e-08
2.07046e-12
2.45609e-08
2.01393e-12
2.45598e-08
1.96648e-12
2.45587e-08
1.93424e-12
2.45577e-08
1.92966e-12
2.45566e-08
1.98312e-12
2.45555e-08
2.20621e-12
2.88536e-12
3.5638e-08
2.79888e-09
-3.54447e-08
3.58354e-08
3.17954e-09
3.59923e-08
3.39975e-09
3.60963e-08
3.51546e-09
3.61412e-08
3.55487e-09
3.61233e-08
3.52694e-09
3.60434e-08
3.44088e-09
3.59059e-08
3.30898e-09
3.57174e-08
3.14404e-09
3.54858e-08
2.95799e-09
3.52196e-08
2.76146e-09
3.49273e-08
2.56328e-09
3.46165e-08
2.37009e-09
3.42944e-08
2.18631e-09
3.39668e-08
2.01427e-09
3.36388e-08
1.85463e-09
3.33146e-08
1.70685e-09
3.29977e-08
1.56953e-09
3.26912e-08
1.44085e-09
3.23979e-08
1.31874e-09
3.21203e-08
1.20111e-09
3.18608e-08
1.08585e-09
3.16217e-08
9.71039e-10
3.14053e-08
8.55096e-10
3.12131e-08
7.37132e-10
3.10463e-08
6.17351e-10
3.09051e-08
4.973e-10
3.07891e-08
3.79847e-10
3.06969e-08
2.68894e-10
3.06255e-08
1.68775e-10
3.05704e-08
8.23171e-11
3.0531e-08
1.04369e-11
3.05085e-08
-4.48827e-11
3.0501e-08
-8.30186e-11
3.05059e-08
-1.06854e-10
3.05206e-08
-1.19443e-10
3.05425e-08
-1.23577e-10
3.05692e-08
-1.21626e-10
3.05986e-08
-1.15495e-10
3.06291e-08
-1.0666e-10
3.06592e-08
-9.62354e-11
3.0688e-08
-8.50522e-11
3.07147e-08
-7.372e-11
3.07386e-08
-6.26806e-11
3.07596e-08
-5.22466e-11
3.07775e-08
-4.26295e-11
3.07922e-08
-3.39606e-11
3.08041e-08
-2.63059e-11
3.08132e-08
-1.96793e-11
3.08198e-08
-1.40532e-11
3.08243e-08
-9.36815e-12
3.0827e-08
-5.54325e-12
3.08281e-08
-2.47794e-12
3.0828e-08
-1.3835e-14
3.08269e-08
1.98811e-12
3.0825e-08
3.59187e-12
3.08226e-08
4.81298e-12
3.08198e-08
5.69239e-12
3.08166e-08
6.29204e-12
3.08134e-08
6.67769e-12
3.081e-08
6.90813e-12
3.08066e-08
7.03035e-12
3.08031e-08
7.07897e-12
3.07997e-08
7.0782e-12
3.07964e-08
7.04416e-12
3.07931e-08
6.98729e-12
3.07898e-08
6.91422e-12
3.07866e-08
6.82914e-12
3.07834e-08
6.73471e-12
3.07804e-08
6.63273e-12
3.07774e-08
6.52444e-12
3.07744e-08
6.41082e-12
3.07716e-08
6.29264e-12
3.07687e-08
6.17055e-12
3.0766e-08
6.04513e-12
3.07633e-08
5.9169e-12
3.07607e-08
5.78633e-12
3.07582e-08
5.65383e-12
3.07557e-08
5.51982e-12
3.07533e-08
5.38462e-12
3.0751e-08
5.24858e-12
3.07487e-08
5.11199e-12
3.07465e-08
4.97514e-12
3.07444e-08
4.8383e-12
3.07423e-08
4.70174e-12
3.07403e-08
4.56575e-12
3.07383e-08
4.43063e-12
3.07365e-08
4.29674e-12
3.07346e-08
4.1645e-12
3.07329e-08
4.03446e-12
3.07312e-08
3.90738e-12
3.07295e-08
3.78434e-12
3.07279e-08
3.66695e-12
3.07264e-08
3.55784e-12
3.07249e-08
3.46142e-12
3.07234e-08
3.38581e-12
3.0722e-08
3.34733e-12
3.07206e-08
3.38423e-12
3.07192e-08
3.60224e-12
4.16732e-12
3.63891e-08
2.62953e-09
-3.62198e-08
3.65888e-08
2.97988e-09
3.67827e-08
3.20579e-09
3.69583e-08
3.33988e-09
3.71082e-08
3.40504e-09
3.72252e-08
3.40986e-09
3.73048e-08
3.36134e-09
3.73448e-08
3.26893e-09
3.73458e-08
3.14304e-09
3.73101e-08
2.99374e-09
3.72413e-08
2.83021e-09
3.71442e-08
2.66038e-09
3.70238e-08
2.49051e-09
3.68851e-08
2.32504e-09
3.67327e-08
2.16662e-09
3.6571e-08
2.01639e-09
3.64035e-08
1.87431e-09
3.62336e-08
1.73946e-09
3.6064e-08
1.61042e-09
3.58973e-08
1.48544e-09
3.57358e-08
1.36264e-09
3.55815e-08
1.24014e-09
3.54363e-08
1.11624e-09
3.53017e-08
9.89682e-10
3.51788e-08
8.59966e-10
3.50685e-08
7.27734e-10
3.49708e-08
5.94969e-10
3.48857e-08
4.64927e-10
3.48128e-08
3.41811e-10
3.47514e-08
2.30187e-10
3.46999e-08
1.33809e-10
3.46565e-08
5.38404e-11
3.46216e-08
-9.96388e-12
3.45962e-08
-5.75992e-11
3.45799e-08
-9.05707e-11
3.45719e-08
-1.11457e-10
3.45711e-08
-1.22765e-10
3.45762e-08
-1.26715e-10
3.45858e-08
-1.25175e-10
3.45988e-08
-1.19667e-10
3.4614e-08
-1.11403e-10
3.46303e-08
-1.01342e-10
3.46468e-08
-9.02378e-11
3.46628e-08
-7.86874e-11
3.46777e-08
-6.71586e-11
3.46911e-08
-5.60141e-11
3.47027e-08
-4.55273e-11
3.47123e-08
-3.58928e-11
3.47198e-08
-2.72358e-11
3.47254e-08
-1.962e-11
3.47291e-08
-1.30564e-11
3.47311e-08
-7.51284e-12
3.47315e-08
-2.91704e-12
3.47306e-08
8.69881e-13
3.47287e-08
3.9465e-12
3.47259e-08
6.37003e-12
3.47225e-08
8.1954e-12
3.47187e-08
9.50357e-12
3.47146e-08
1.03916e-11
3.47103e-08
1.09561e-11
3.47059e-08
1.12823e-11
3.47015e-08
1.14389e-11
3.46971e-08
1.14781e-11
3.46928e-08
1.14373e-11
3.46885e-08
1.13427e-11
3.46842e-08
1.12117e-11
3.46801e-08
1.10558e-11
3.4676e-08
1.08827e-11
3.46721e-08
1.06971e-11
3.46682e-08
1.05024e-11
3.46644e-08
1.03008e-11
3.46608e-08
1.00938e-11
3.46572e-08
9.88263e-12
3.46537e-08
9.66823e-12
3.46503e-08
9.45132e-12
3.46469e-08
9.23256e-12
3.46437e-08
9.01249e-12
3.46406e-08
8.79159e-12
3.46375e-08
8.5703e-12
3.46346e-08
8.34899e-12
3.46317e-08
8.12801e-12
3.46289e-08
7.90767e-12
3.46262e-08
7.68827e-12
3.46235e-08
7.47011e-12
3.4621e-08
7.25343e-12
3.46185e-08
7.03856e-12
3.46161e-08
6.82582e-12
3.46138e-08
6.61558e-12
3.46116e-08
6.40833e-12
3.46094e-08
6.20469e-12
3.46073e-08
6.00553e-12
3.46053e-08
5.8121e-12
3.46033e-08
5.62631e-12
3.46014e-08
5.45122e-12
3.45996e-08
5.29194e-12
3.45978e-08
5.15774e-12
3.45961e-08
5.06657e-12
3.45944e-08
5.05677e-12
3.45928e-08
5.21158e-12
5.61074e-12
3.71336e-08
2.48647e-09
-3.69906e-08
3.73124e-08
2.80115e-09
3.74983e-08
3.01983e-09
3.76794e-08
3.15876e-09
3.78494e-08
3.23505e-09
3.80023e-08
3.25697e-09
3.81331e-08
3.23054e-09
3.82386e-08
3.16345e-09
3.83172e-08
3.06439e-09
3.83691e-08
2.94189e-09
3.83954e-08
2.80387e-09
3.83986e-08
2.65725e-09
3.83814e-08
2.50766e-09
3.83472e-08
2.35925e-09
3.82991e-08
2.21469e-09
3.82402e-08
2.07529e-09
3.81732e-08
1.94132e-09
3.81005e-08
1.81219e-09
3.80241e-08
1.68679e-09
3.79459e-08
1.56366e-09
3.78674e-08
1.44116e-09
3.77899e-08
1.31769e-09
3.77143e-08
1.19181e-09
3.76414e-08
1.06257e-09
3.75716e-08
9.29752e-10
3.75051e-08
7.94255e-10
3.74419e-08
6.58195e-10
3.7382e-08
5.24837e-10
3.73255e-08
3.98259e-10
3.72729e-08
2.82774e-10
3.72247e-08
1.82051e-10
3.71806e-08
9.79648e-11
3.71405e-08
3.00676e-11
3.71056e-08
-2.26776e-11
3.70764e-08
-6.14037e-11
3.70531e-08
-8.81129e-11
3.70353e-08
-1.04975e-10
3.70226e-08
-1.1398e-10
3.70142e-08
-1.16856e-10
3.70096e-08
-1.15052e-10
3.7008e-08
-1.09762e-10
3.70086e-08
-1.01961e-10
3.70108e-08
-9.24486e-11
3.7014e-08
-8.18824e-11
3.70177e-08
-7.08051e-11
3.70213e-08
-5.9662e-11
3.70246e-08
-4.88134e-11
3.70272e-08
-3.85408e-11
3.70291e-08
-2.90525e-11
3.70299e-08
-2.04886e-11
3.70298e-08
-1.29262e-11
3.70287e-08
-6.38727e-12
3.70266e-08
-8.23896e-13
3.70236e-08
3.83613e-12
3.70199e-08
7.62519e-12
3.70157e-08
1.05929e-11
3.70111e-08
1.282e-11
3.70062e-08
1.4411e-11
3.70011e-08
1.54837e-11
3.69959e-08
1.61531e-11
3.69906e-08
1.65209e-11
3.69854e-08
1.66706e-11
3.69802e-08
1.66665e-11
3.69751e-08
1.65564e-11
3.69701e-08
1.63742e-11
3.69651e-08
1.61434e-11
3.69603e-08
1.58801e-11
3.69556e-08
1.55948e-11
3.6951e-08
1.52948e-11
3.69465e-08
1.49848e-11
3.69422e-08
1.46679e-11
3.69379e-08
1.43465e-11
3.69338e-08
1.40221e-11
3.69297e-08
1.3696e-11
3.69258e-08
1.3369e-11
3.6922e-08
1.30419e-11
3.69183e-08
1.27153e-11
3.69147e-08
1.23897e-11
3.69112e-08
1.20655e-11
3.69078e-08
1.17431e-11
3.69045e-08
1.14228e-11
3.69013e-08
1.1105e-11
3.68982e-08
1.07898e-11
3.68952e-08
1.04776e-11
3.68923e-08
1.01686e-11
3.68895e-08
9.86312e-12
3.68868e-08
9.5614e-12
3.68841e-08
9.26384e-12
3.68815e-08
8.97095e-12
3.68791e-08
8.68336e-12
3.68767e-08
8.40202e-12
3.68743e-08
8.12827e-12
3.68721e-08
7.86416e-12
3.68699e-08
7.61299e-12
3.68679e-08
7.38019e-12
3.68658e-08
7.17531e-12
3.68639e-08
7.01594e-12
3.6862e-08
6.93562e-12
3.68602e-08
6.99262e-12
7.20765e-12
3.78833e-08
2.36383e-09
-3.77607e-08
3.80405e-08
2.64398e-09
3.82101e-08
2.85025e-09
3.83804e-08
2.98841e-09
3.85455e-08
3.06993e-09
3.87004e-08
3.10206e-09
3.88408e-08
3.09017e-09
3.89636e-08
3.04065e-09
3.90671e-08
2.96088e-09
3.91508e-08
2.85823e-09
3.92151e-08
2.7396e-09
3.92612e-08
2.6111e-09
3.92911e-08
2.47777e-09
3.93069e-08
2.34345e-09
3.93109e-08
2.21072e-09
3.93052e-08
2.081e-09
3.92917e-08
1.95474e-09
3.92723e-08
1.83164e-09
3.92482e-08
1.71084e-09
3.92207e-08
1.59118e-09
3.91906e-08
1.47129e-09
3.91585e-08
1.34982e-09
3.91247e-08
1.22563e-09
3.90892e-08
1.09801e-09
3.9052e-08
9.66972e-10
3.90127e-08
8.33493e-10
3.89713e-08
6.99635e-10
3.89277e-08
5.68445e-10
3.88823e-08
4.43641e-10
3.8836e-08
3.2909e-10
3.879e-08
2.28093e-10
3.87453e-08
1.42585e-10
3.87027e-08
7.27014e-11
3.86627e-08
1.73193e-11
3.86262e-08
-2.49387e-11
3.85938e-08
-5.56247e-11
3.85654e-08
-7.65779e-11
3.85409e-08
-8.95659e-11
3.85203e-08
-9.61634e-11
3.85029e-08
-9.77243e-11
3.84886e-08
-9.53902e-11
3.84767e-08
-9.01167e-11
3.8467e-08
-8.27043e-11
3.84589e-08
-7.38275e-11
3.84522e-08
-6.40566e-11
3.84464e-08
-5.38725e-11
3.84412e-08
-4.36766e-11
3.84365e-08
-3.37953e-11
3.84319e-08
-2.44833e-11
3.84274e-08
-1.59263e-11
3.84227e-08
-8.24475e-12
3.84178e-08
-1.48849e-12
3.84126e-08
4.34453e-12
3.84072e-08
9.25467e-12
3.84016e-08
1.32448e-11
3.83958e-08
1.63648e-11
3.83899e-08
1.86993e-11
3.8384e-08
2.03568e-11
3.8378e-08
2.14575e-11
3.8372e-08
2.21194e-11
3.83661e-08
2.24485e-11
3.83602e-08
2.25328e-11
3.83545e-08
2.24421e-11
3.83488e-08
2.2229e-11
3.83432e-08
2.19318e-11
3.83378e-08
2.1578e-11
3.83325e-08
2.11865e-11
3.83273e-08
2.07702e-11
3.83223e-08
2.0338e-11
3.83174e-08
1.98959e-11
3.83126e-08
1.9448e-11
3.83079e-08
1.89969e-11
3.83034e-08
1.85448e-11
3.8299e-08
1.80931e-11
3.82947e-08
1.76428e-11
3.82906e-08
1.71948e-11
3.82866e-08
1.67496e-11
3.82826e-08
1.63078e-11
3.82788e-08
1.58697e-11
3.82751e-08
1.54358e-11
3.82716e-08
1.50062e-11
3.82681e-08
1.45813e-11
3.82647e-08
1.41611e-11
3.82614e-08
1.37461e-11
3.82583e-08
1.33363e-11
3.82552e-08
1.29319e-11
3.82522e-08
1.25334e-11
3.82494e-08
1.21409e-11
3.82466e-08
1.1755e-11
3.82439e-08
1.13764e-11
3.82413e-08
1.10059e-11
3.82388e-08
1.06449e-11
3.82363e-08
1.02956e-11
3.8234e-08
9.96133e-12
3.82317e-08
9.6475e-12
3.82295e-08
9.36333e-12
3.82274e-08
9.12477e-12
3.82254e-08
8.95877e-12
3.82235e-08
8.90188e-12
8.93578e-12
3.86399e-08
2.25648e-09
-3.85325e-08
3.87786e-08
2.50533e-09
3.89317e-08
2.69711e-09
3.90886e-08
2.83153e-09
3.92431e-08
2.91537e-09
3.93908e-08
2.95437e-09
3.95278e-08
2.9532e-09
3.96512e-08
2.91721e-09
3.97595e-08
2.85262e-09
3.98519e-08
2.76582e-09
3.99286e-08
2.66287e-09
3.99906e-08
2.54918e-09
4.0039e-08
2.4293e-09
4.00757e-08
2.30678e-09
4.01023e-08
2.18411e-09
4.01205e-08
2.06277e-09
4.01319e-08
1.94338e-09
4.01377e-08
1.82587e-09
4.01389e-08
1.70965e-09
4.01362e-08
1.59383e-09
4.01302e-08
1.47732e-09
4.01209e-08
1.35905e-09
4.01084e-08
1.23814e-09
4.00924e-08
1.11409e-09
4.00723e-08
9.87067e-10
4.00477e-08
8.5806e-10
4.00184e-08
7.28978e-10
3.99843e-08
6.02553e-10
3.99458e-08
4.82063e-10
3.9904e-08
3.70882e-10
3.98602e-08
2.71895e-10
3.98159e-08
1.86904e-10
3.97723e-08
1.1632e-10
3.97302e-08
5.94356e-11
3.96903e-08
1.49726e-11
3.96532e-08
-1.85239e-11
3.96192e-08
-4.25837e-11
3.95884e-08
-5.87581e-11
3.95607e-08
-6.84772e-11
3.9536e-08
-7.29976e-11
3.9514e-08
-7.34019e-11
3.94945e-08
-7.06135e-11
3.94772e-08
-6.54195e-11
3.94618e-08
-5.84925e-11
3.94482e-08
-5.04091e-11
3.9436e-08
-4.16621e-11
3.9425e-08
-3.26684e-11
3.9415e-08
-2.37734e-11
3.94057e-08
-1.52533e-11
3.93971e-08
-7.31638e-12
3.9389e-08
-1.00879e-13
3.93812e-08
6.31286e-12
3.93736e-08
1.18767e-11
3.93663e-08
1.65626e-11
3.93592e-08
2.03696e-11
3.93522e-08
2.33391e-11
3.93454e-08
2.55475e-11
3.93386e-08
2.70943e-11
3.9332e-08
2.80909e-11
3.93255e-08
2.86483e-11
3.93191e-08
2.88678e-11
3.93128e-08
2.88351e-11
3.93066e-08
2.86195e-11
3.93005e-08
2.82745e-11
3.92946e-08
2.78399e-11
3.92889e-08
2.73447e-11
3.92832e-08
2.68095e-11
3.92778e-08
2.62486e-11
3.92724e-08
2.56719e-11
3.92672e-08
2.50864e-11
3.92622e-08
2.44967e-11
3.92573e-08
2.3906e-11
3.92525e-08
2.33167e-11
3.92479e-08
2.27304e-11
3.92434e-08
2.21483e-11
3.9239e-08
2.15711e-11
3.92347e-08
2.09995e-11
3.92306e-08
2.0434e-11
3.92266e-08
1.98749e-11
3.92227e-08
1.93226e-11
3.9219e-08
1.87772e-11
3.92153e-08
1.82389e-11
3.92117e-08
1.77078e-11
3.92083e-08
1.71841e-11
3.9205e-08
1.6668e-11
3.92018e-08
1.61595e-11
3.91986e-08
1.5659e-11
3.91956e-08
1.51666e-11
3.91927e-08
1.46829e-11
3.91898e-08
1.42085e-11
3.91871e-08
1.37442e-11
3.91845e-08
1.32915e-11
3.91819e-08
1.28525e-11
3.91794e-08
1.24304e-11
3.9177e-08
1.20305e-11
3.91747e-08
1.16612e-11
3.91725e-08
1.13363e-11
3.91704e-08
1.10761e-11
3.91684e-08
1.09003e-11
1.07677e-11
3.94038e-08
2.16079e-09
-3.93081e-08
3.95271e-08
2.38205e-09
3.96654e-08
2.55881e-09
3.98092e-08
2.68768e-09
3.99527e-08
2.77195e-09
4.00913e-08
2.81574e-09
4.02216e-08
2.82293e-09
4.03408e-08
2.79797e-09
4.04474e-08
2.74607e-09
4.05405e-08
2.67272e-09
4.06201e-08
2.58321e-09
4.0687e-08
2.48233e-09
4.07421e-08
2.3742e-09
4.07868e-08
2.2621e-09
4.08225e-08
2.14841e-09
4.08506e-08
2.03465e-09
4.08724e-08
1.92158e-09
4.08889e-08
1.80934e-09
4.0901e-08
1.6976e-09
4.09091e-08
1.5857e-09
4.09136e-08
1.47284e-09
4.09144e-08
1.35821e-09
4.09114e-08
1.24117e-09
4.0904e-08
1.12142e-09
4.08919e-08
9.99224e-10
4.08744e-08
8.7555e-10
4.08513e-08
7.52126e-10
4.08224e-08
6.31358e-10
4.07884e-08
5.16092e-10
4.07501e-08
4.09233e-10
4.07087e-08
3.13278e-10
4.06657e-08
2.29861e-10
4.06225e-08
1.59512e-10
4.05801e-08
1.01824e-10
4.05393e-08
5.58181e-11
4.05005e-08
2.02339e-11
4.04643e-08
-6.29965e-12
4.04306e-08
-2.51329e-11
4.03997e-08
-3.75527e-11
4.03714e-08
-4.47192e-11
4.03457e-08
-4.7653e-11
4.03223e-08
-4.72399e-11
4.03011e-08
-4.42459e-11
4.0282e-08
-3.93329e-11
4.02646e-08
-3.30735e-11
4.02489e-08
-2.59608e-11
4.02347e-08
-1.8415e-11
4.02217e-08
-1.07874e-11
4.02098e-08
-3.3616e-12
4.01988e-08
3.64576e-12
4.01887e-08
1.00772e-11
4.01792e-08
1.58254e-11
4.01702e-08
2.08229e-11
4.01617e-08
2.50318e-11
4.01537e-08
2.84443e-11
4.01459e-08
3.10908e-11
4.01384e-08
3.30345e-11
4.01312e-08
3.43613e-11
4.01241e-08
3.51691e-11
4.01172e-08
3.55574e-11
4.01104e-08
3.56184e-11
4.01038e-08
3.54321e-11
4.00974e-08
3.50642e-11
4.00911e-08
3.45664e-11
4.0085e-08
3.39782e-11
4.0079e-08
3.33287e-11
4.00731e-08
3.2639e-11
4.00675e-08
3.19242e-11
4.00619e-08
3.11949e-11
4.00566e-08
3.04585e-11
4.00513e-08
2.97202e-11
4.00463e-08
2.89835e-11
4.00413e-08
2.8251e-11
4.00365e-08
2.75244e-11
4.00319e-08
2.68049e-11
4.00274e-08
2.60933e-11
4.0023e-08
2.53904e-11
4.00187e-08
2.46965e-11
4.00146e-08
2.40118e-11
4.00106e-08
2.33367e-11
4.00067e-08
2.26712e-11
4.00029e-08
2.20155e-11
3.99992e-08
2.13696e-11
3.99957e-08
2.07335e-11
3.99922e-08
2.01074e-11
3.99889e-08
1.94913e-11
3.99857e-08
1.88853e-11
3.99826e-08
1.82898e-11
3.99795e-08
1.77051e-11
3.99766e-08
1.71318e-11
3.99738e-08
1.65707e-11
3.9971e-08
1.60231e-11
3.99684e-08
1.54912e-11
3.99659e-08
1.4978e-11
3.99634e-08
1.44885e-11
3.9961e-08
1.40302e-11
3.99588e-08
1.36143e-11
3.99566e-08
1.32553e-11
3.99545e-08
1.2961e-11
1.26798e-11
4.01756e-08
2.07426e-09
-4.00891e-08
4.02862e-08
2.2715e-09
4.04114e-08
2.43357e-09
4.05433e-08
2.55582e-09
4.06761e-08
2.63911e-09
4.08057e-08
2.68612e-09
4.09288e-08
2.69991e-09
4.10426e-08
2.68412e-09
4.11456e-08
2.64307e-09
4.12369e-08
2.58143e-09
4.13163e-08
2.50379e-09
4.13843e-08
2.41438e-09
4.14416e-08
2.31689e-09
4.14893e-08
2.21435e-09
4.15287e-08
2.10901e-09
4.1561e-08
2.00241e-09
4.15871e-08
1.89542e-09
4.16081e-08
1.78835e-09
4.16246e-08
1.68108e-09
4.16371e-08
1.5732e-09
4.16458e-08
1.46416e-09
4.16507e-08
1.35338e-09
4.16514e-08
1.24043e-09
4.16476e-08
1.12519e-09
4.16388e-08
1.00801e-09
4.16246e-08
8.89801e-10
4.16046e-08
7.72131e-10
4.15788e-08
6.57103e-10
4.15478e-08
5.47173e-10
4.15122e-08
4.44834e-10
4.14732e-08
3.52245e-10
4.14322e-08
2.70873e-10
4.13904e-08
2.01306e-10
4.13489e-08
1.43341e-10
4.13084e-08
9.62481e-11
4.12697e-08
5.89974e-11
4.1233e-08
3.04126e-11
4.11985e-08
9.29146e-12
4.11665e-08
-5.5251e-12
4.11369e-08
-1.50997e-11
4.11096e-08
-2.03876e-11
4.10846e-08
-2.22321e-11
4.10617e-08
-2.13725e-11
4.10409e-08
-1.84544e-11
4.10218e-08
-1.40405e-11
4.10045e-08
-8.61778e-12
4.09887e-08
-2.60351e-12
4.09742e-08
3.65208e-12
4.0961e-08
9.86274e-12
4.09489e-08
1.58026e-11
4.09376e-08
2.13028e-11
4.09272e-08
2.62442e-11
4.09175e-08
3.05481e-11
4.09083e-08
3.41679e-11
4.08997e-08
3.70877e-11
4.08915e-08
3.93265e-11
4.08836e-08
4.09338e-11
4.0876e-08
4.19806e-11
4.08686e-08
4.25506e-11
4.08614e-08
4.27304e-11
4.08544e-08
4.2602e-11
4.08476e-08
4.2238e-11
4.0841e-08
4.1699e-11
4.08345e-08
4.10339e-11
4.08282e-08
4.02806e-11
4.08221e-08
3.94675e-11
4.08161e-08
3.86157e-11
4.08103e-08
3.77405e-11
4.08046e-08
3.68529e-11
4.07991e-08
3.59606e-11
4.07938e-08
3.5069e-11
4.07886e-08
3.4182e-11
4.07835e-08
3.33021e-11
4.07786e-08
3.24312e-11
4.07738e-08
3.15707e-11
4.07692e-08
3.07212e-11
4.07647e-08
2.98835e-11
4.07604e-08
2.90578e-11
4.07561e-08
2.82444e-11
4.0752e-08
2.74435e-11
4.0748e-08
2.6655e-11
4.07442e-08
2.5879e-11
4.07404e-08
2.51154e-11
4.07368e-08
2.43643e-11
4.07333e-08
2.36255e-11
4.07299e-08
2.28992e-11
4.07266e-08
2.21854e-11
4.07234e-08
2.14843e-11
4.07203e-08
2.07962e-11
4.07173e-08
2.01216e-11
4.07144e-08
1.94613e-11
4.07116e-08
1.88166e-11
4.07089e-08
1.81894e-11
4.07063e-08
1.75826e-11
4.07038e-08
1.70008e-11
4.07014e-08
1.64504e-11
4.0699e-08
1.59403e-11
4.06968e-08
1.54801e-11
4.06947e-08
1.50695e-11
1.46559e-11
4.09559e-08
1.9951e-09
-4.08767e-08
4.10559e-08
2.17151e-09
4.11697e-08
2.31974e-09
4.12907e-08
2.43481e-09
4.14137e-08
2.5161e-09
4.15348e-08
2.56507e-09
4.16506e-08
2.58401e-09
4.17589e-08
2.57583e-09
4.18579e-08
2.5441e-09
4.19466e-08
2.49273e-09
4.20247e-08
2.42567e-09
4.20924e-08
2.34665e-09
4.21504e-08
2.25894e-09
4.21994e-08
2.16532e-09
4.22405e-08
2.0679e-09
4.22747e-08
1.96821e-09
4.2303e-08
1.86719e-09
4.2326e-08
1.76529e-09
4.23445e-08
1.66258e-09
4.23589e-08
1.55886e-09
4.23692e-08
1.45378e-09
4.23756e-08
1.34699e-09
4.23778e-08
1.23824e-09
4.23755e-08
1.12755e-09
4.23681e-08
1.01533e-09
4.23555e-08
9.02464e-10
4.23373e-08
7.90352e-10
4.23135e-08
6.80839e-10
4.22847e-08
5.76046e-10
4.22514e-08
4.78117e-10
4.22147e-08
3.88919e-10
4.21758e-08
3.0977e-10
4.21358e-08
2.41277e-10
4.20958e-08
1.83389e-10
4.20565e-08
1.35572e-10
4.20185e-08
9.69955e-11
4.19822e-08
6.66672e-11
4.1948e-08
4.35372e-11
4.19159e-08
2.6568e-11
4.1886e-08
1.47865e-11
4.18583e-08
7.30342e-12
4.18327e-08
3.32141e-12
4.18092e-08
2.13247e-12
4.17877e-08
3.11205e-12
4.17679e-08
5.71214e-12
4.17498e-08
9.45537e-12
4.17333e-08
1.39307e-11
4.17182e-08
1.87902e-11
4.17043e-08
2.37471e-11
4.16915e-08
2.85726e-11
4.16797e-08
3.30912e-11
4.16688e-08
3.71753e-11
4.16586e-08
4.07372e-11
4.1649e-08
4.37217e-11
4.164e-08
4.61051e-11
4.16315e-08
4.78952e-11
4.16233e-08
4.91283e-11
4.16154e-08
4.98612e-11
4.16078e-08
5.01636e-11
4.16004e-08
5.01096e-11
4.15932e-08
4.97708e-11
4.15863e-08
4.92119e-11
4.15795e-08
4.84882e-11
4.15729e-08
4.76448e-11
4.15664e-08
4.67174e-11
4.15601e-08
4.57334e-11
4.15541e-08
4.47136e-11
4.15481e-08
4.36729e-11
4.15423e-08
4.26225e-11
4.15367e-08
4.15702e-11
4.15313e-08
4.05217e-11
4.1526e-08
3.94808e-11
4.15208e-08
3.84504e-11
4.15158e-08
3.74322e-11
4.1511e-08
3.64276e-11
4.15063e-08
3.54374e-11
4.15017e-08
3.44622e-11
4.14972e-08
3.35021e-11
4.14929e-08
3.25575e-11
4.14887e-08
3.16282e-11
4.14847e-08
3.07143e-11
4.14807e-08
2.98156e-11
4.14769e-08
2.89321e-11
4.14732e-08
2.80637e-11
4.14696e-08
2.72102e-11
4.14662e-08
2.63715e-11
4.14628e-08
2.55478e-11
4.14596e-08
2.4739e-11
4.14564e-08
2.39454e-11
4.14534e-08
2.31676e-11
4.14504e-08
2.24061e-11
4.14476e-08
2.16622e-11
4.14448e-08
2.09376e-11
4.14422e-08
2.02351e-11
4.14396e-08
1.95586e-11
4.14372e-08
1.89136e-11
4.14348e-08
1.83069e-11
4.14325e-08
1.7744e-11
4.14304e-08
1.72199e-11
1.6686e-11
4.17452e-08
1.92203e-09
-4.16722e-08
4.18364e-08
2.0804e-09
4.19403e-08
2.21584e-09
4.20515e-08
2.32359e-09
4.21654e-08
2.40215e-09
4.22784e-08
2.45207e-09
4.23875e-08
2.47494e-09
4.24903e-08
2.47305e-09
4.25851e-08
2.44928e-09
4.26709e-08
2.40691e-09
4.27473e-08
2.3493e-09
4.28143e-08
2.27969e-09
4.28722e-08
2.201e-09
4.29218e-08
2.11572e-09
4.29638e-08
2.02585e-09
4.29992e-08
1.93286e-09
4.30286e-08
1.83774e-09
4.30529e-08
1.74104e-09
4.30725e-08
1.64299e-09
4.30878e-08
1.54355e-09
4.3099e-08
1.44257e-09
4.31061e-08
1.33988e-09
4.31089e-08
1.23539e-09
4.31073e-08
1.12923e-09
4.31007e-08
1.02187e-09
4.30891e-08
9.14138e-10
4.30721e-08
8.07312e-10
4.30499e-08
7.03009e-10
4.30229e-08
6.03068e-10
4.29917e-08
5.09339e-10
4.29572e-08
4.23448e-10
4.29203e-08
3.46573e-10
4.28823e-08
2.79323e-10
4.28439e-08
2.21756e-10
4.2806e-08
1.73495e-10
4.27691e-08
1.33881e-10
4.27337e-08
1.02082e-10
4.27001e-08
7.71895e-11
4.26683e-08
5.82823e-11
4.26387e-08
4.44766e-11
4.2611e-08
3.495e-11
4.25854e-08
2.89533e-11
4.25617e-08
2.58129e-11
4.25399e-08
2.49286e-11
4.25198e-08
2.577e-11
4.25014e-08
2.78719e-11
4.24845e-08
3.0832e-11
4.2469e-08
3.43074e-11
4.24547e-08
3.80131e-11
4.24416e-08
4.17186e-11
4.24294e-08
4.52444e-11
4.24181e-08
4.84561e-11
4.24076e-08
5.12581e-11
4.23978e-08
5.35879e-11
4.23884e-08
5.54133e-11
4.23796e-08
5.67319e-11
4.23712e-08
5.75676e-11
4.23631e-08
5.79641e-11
4.23553e-08
5.79779e-11
4.23477e-08
5.76712e-11
4.23404e-08
5.71057e-11
4.23332e-08
5.63382e-11
4.23263e-08
5.54182e-11
4.23196e-08
5.4387e-11
4.2313e-08
5.32778e-11
4.23066e-08
5.21167e-11
4.23004e-08
5.09233e-11
4.22944e-08
4.97125e-11
4.22885e-08
4.84952e-11
4.22828e-08
4.72793e-11
4.22772e-08
4.60705e-11
4.22718e-08
4.48728e-11
4.22666e-08
4.36888e-11
4.22615e-08
4.25206e-11
4.22566e-08
4.13694e-11
4.22518e-08
4.02359e-11
4.22471e-08
3.91207e-11
4.22426e-08
3.80239e-11
4.22382e-08
3.69456e-11
4.2234e-08
3.58857e-11
4.22298e-08
3.48442e-11
4.22258e-08
3.38207e-11
4.22219e-08
3.28152e-11
4.22182e-08
3.18274e-11
4.22145e-08
3.08571e-11
4.2211e-08
2.99042e-11
4.22076e-08
2.89685e-11
4.22043e-08
2.80501e-11
4.22011e-08
2.71492e-11
4.2198e-08
2.62662e-11
4.2195e-08
2.54016e-11
4.21921e-08
2.45566e-11
4.21893e-08
2.37327e-11
4.21866e-08
2.29324e-11
4.2184e-08
2.21591e-11
4.21815e-08
2.14172e-11
4.21791e-08
2.07118e-11
4.21768e-08
2.00453e-11
4.21746e-08
1.94102e-11
1.87642e-11
4.25443e-08
1.85413e-09
-4.24764e-08
4.26279e-08
1.99682e-09
4.27232e-08
2.12061e-09
4.28256e-08
2.22114e-09
4.29313e-08
2.2965e-09
4.30368e-08
2.34657e-09
4.31393e-08
2.37236e-09
4.32368e-08
2.37561e-09
4.33274e-08
2.35862e-09
4.34102e-08
2.32411e-09
4.34846e-08
2.27491e-09
4.35505e-08
2.21382e-09
4.36081e-08
2.14343e-09
4.36578e-08
2.06596e-09