/*--------------------------------*- C++ -*----------------------------------*\
| =========                 |                                                 |
| \\      /  F ield         | OpenFOAM: The Open Source CFD Toolbox           |
|  \\    /   O peration     | Version:  2.3.0                                 |
|   \\  /    A nd           | Web:      www.OpenFOAM.org                      |
|    \\/     M anipulation  |                                                 |
\*---------------------------------------------------------------------------*/
FoamFile
{
    version     2.0;
    format      ascii;
    class       volScalarField;
    location    "0.2";
    object      p;
}
// * * * * * * * * * * * * * * * * * * * * * * * * * * * * * * * * * * * * * //

dimensions      [0 2 -2 0 0 0 0];

internalField   nonuniform List<scalar> 
1500
(
0.00222522
0.00190956
0.00131762
0.000772354
0.000327732
-4.79761e-05
-0.00036629
-0.000606485
-0.000745658
-0.000788197
-0.000761751
-0.000699143
-0.000626042
-0.000557559
-0.000499901
-0.000453988
-0.000418363
-0.000390524
-0.000367835
-0.000348265
-0.000330654
-0.00031449
-0.000299387
-0.000285051
-0.00027155
-0.000258939
-0.000247003
-0.000235751
-0.00022541
-0.000215909
-0.000207076
-0.000198927
-0.000191396
-0.000184307
-0.00017762
-0.000171288
-0.00016514
-0.000159076
-0.000153077
-0.000147035
-0.000140812
-0.000134357
-0.00012764
-0.000120597
-0.000113165
-0.000105306
-9.70021e-05
-8.84182e-05
-7.94458e-05
-7.0407e-05
-6.13437e-05
-5.25334e-05
-4.41743e-05
-3.64594e-05
-2.95376e-05
-2.35174e-05
-1.84336e-05
-1.42498e-05
-1.08822e-05
-8.22761e-06
-6.17383e-06
-4.60698e-06
-3.42058e-06
-2.52389e-06
-1.84632e-06
-1.32315e-06
-9.08925e-07
-5.7426e-07
-2.99941e-07
-7.26033e-08
1.17016e-07
2.75448e-07
4.06482e-07
5.10885e-07
5.87975e-07
6.36385e-07
6.55139e-07
6.43045e-07
6.03953e-07
5.48719e-07
4.78051e-07
4.01346e-07
3.23836e-07
2.50986e-07
1.86162e-07
1.3147e-07
8.75817e-08
5.36999e-08
2.90337e-08
1.18986e-08
6.48165e-10
-5.85759e-09
-9.23155e-09
-1.03541e-08
-9.96288e-09
-8.71019e-09
-7.15027e-09
-5.18963e-09
-3.40437e-09
-1.07685e-09
0.00176988
0.00161076
0.00120213
0.000737014
0.00032114
-3.20713e-05
-0.00032649
-0.000547596
-0.000680923
-0.000729224
-0.00071337
-0.000661548
-0.00059774
-0.000536574
-0.00048436
-0.000442211
-0.000409065
-0.000382843
-0.000361236
-0.000342422
-0.000325382
-0.000309715
-0.000295065
-0.00028112
-0.000267987
-0.000255742
-0.00024412
-0.000233128
-0.000223042
-0.000213783
-0.000205154
-0.000197194
-0.000189846
-0.000182916
-0.000176374
-0.00017019
-0.000164177
-0.000158231
-0.000152347
-0.000146418
-0.000140299
-0.000133941
-0.00012732
-0.000120371
-0.000113026
-0.000105243
-9.70456e-05
-8.84497e-05
-7.9567e-05
-7.06023e-05
-6.15439e-05
-5.27285e-05
-4.43512e-05
-3.66133e-05
-2.96638e-05
-2.36189e-05
-1.85152e-05
-1.43154e-05
-1.09349e-05
-8.26998e-06
-6.20831e-06
-4.63544e-06
-3.44426e-06
-2.54324e-06
-1.86296e-06
-1.33714e-06
-9.20328e-07
-5.83273e-07
-3.069e-07
-7.78522e-08
1.13185e-07
2.72838e-07
4.05004e-07
5.1044e-07
5.88453e-07
6.3759e-07
6.56899e-07
6.46196e-07
6.06327e-07
5.51229e-07
4.79888e-07
4.02838e-07
3.24893e-07
2.51694e-07
1.86582e-07
1.31675e-07
8.76665e-08
5.36898e-08
2.89829e-08
1.18475e-08
5.77782e-10
-5.90316e-09
-9.26613e-09
-1.03855e-08
-9.978e-09
-8.71475e-09
-7.15502e-09
-5.18237e-09
-3.41772e-09
-1.14516e-09
0.00144128
0.0013525
0.00108447
0.000712292
0.000339535
1.4604e-05
-0.000251169
-0.000451383
-0.00058046
-0.00064046
-0.000644067
-0.000611252
-0.000562518
-0.000512268
-0.000467028
-0.000428881
-0.000397875
-0.000372779
-0.000351836
-0.000333535
-0.000316956
-0.000301738
-0.000287583
-0.00027418
-0.000261603
-0.000249911
-0.000238802
-0.00022828
-0.000218651
-0.00020982
-0.000201565
-0.000193951
-0.000186925
-0.000180276
-0.000173988
-0.00016805
-0.000162263
-0.000156522
-0.000150836
-0.000145097
-0.000139153
-0.000132956
-0.000126486
-0.000119679
-0.000112468
-0.000104811
-9.66929e-05
-8.8141e-05
-7.94035e-05
-7.04593e-05
-6.1456e-05
-5.27103e-05
-4.43759e-05
-3.66673e-05
-2.97327e-05
-2.36936e-05
-1.85905e-05
-1.4388e-05
-1.10025e-05
-8.33178e-06
-6.26413e-06
-4.68538e-06
-3.48856e-06
-2.58094e-06
-1.89689e-06
-1.36638e-06
-9.44617e-07
-6.02735e-07
-3.21908e-07
-8.89223e-08
1.05398e-07
2.67749e-07
4.02265e-07
5.09727e-07
5.89349e-07
6.39602e-07
6.59528e-07
6.49127e-07
6.0776e-07
5.5402e-07
4.81903e-07
4.04567e-07
3.25955e-07
2.52233e-07
1.86712e-07
1.31541e-07
8.74204e-08
5.33843e-08
2.8686e-08
1.16134e-08
3.71424e-10
-6.04006e-09
-9.34941e-09
-1.04548e-08
-9.99889e-09
-8.72764e-09
-7.13641e-09
-5.15958e-09
-3.3191e-09
-1.10252e-09
0.00120725
0.00114166
0.000958639
0.0006737
0.000357663
6.8378e-05
-0.000170667
-0.000352526
-0.00047535
-0.000541911
-0.000560974
-0.00054642
-0.000513586
-0.000474809
-0.00043735
-0.00040452
-0.000377115
-0.000354398
-0.00033513
-0.000318233
-0.000302921
-0.000288732
-0.000275423
-0.000262876
-0.000251152
-0.000240206
-0.000229787
-0.000219931
-0.000210884
-0.000202569
-0.000194811
-0.000187644
-0.000181002
-0.000174711
-0.000168764
-0.00016314
-0.00015765
-0.000152197
-0.000146788
-0.000141319
-0.00013565
-0.000129731
-0.000123531
-0.000116991
-0.00011005
-0.000102662
-9.48182e-05
-8.65605e-05
-7.80866e-05
-6.93915e-05
-6.06978e-05
-5.21419e-05
-4.40006e-05
-3.64414e-05
-2.96315e-05
-2.36913e-05
-1.86545e-05
-1.44927e-05
-1.11292e-05
-8.4674e-06
-6.3994e-06
-4.81401e-06
-3.60733e-06
-2.68506e-06
-1.9914e-06
-1.44902e-06
-1.01621e-06
-6.64411e-07
-3.74927e-07
-1.34358e-07
6.70009e-08
2.35996e-07
3.76749e-07
4.90228e-07
5.7571e-07
6.31272e-07
6.55504e-07
6.48129e-07
6.16816e-07
5.55959e-07
4.8263e-07
4.05968e-07
3.27227e-07
2.53292e-07
1.87434e-07
1.32011e-07
8.77218e-08
5.35502e-08
2.87921e-08
1.16949e-08
4.42181e-10
-5.98173e-09
-9.25802e-09
-1.04115e-08
-9.91748e-09
-8.69444e-09
-7.05459e-09
-5.12278e-09
-3.12636e-09
-9.16997e-10
0.0010158
0.000959488
0.000825376
0.000612155
0.000358621
0.000111749
-9.99155e-05
-0.000264886
-0.000380338
-0.000449213
-0.000478568
-0.000478074
-0.000458613
-0.000430169
-0.000400204
-0.000372877
-0.000349351
-0.000329265
-0.000312005
-0.000296927
-0.000283228
-0.000270264
-0.000257955
-0.000246489
-0.000235787
-0.000225635
-0.000216012
-0.000207014
-0.000198666
-0.000190938
-0.000183807
-0.000177213
-0.000171041
-0.000165206
-0.000159697
-0.00015446
-0.000149359
-0.000144295
-0.000139247
-0.000134141
-0.000128854
-0.00012332
-0.000117516
-0.00011139
-0.000104863
-9.7906e-05
-9.05537e-05
-8.28417e-05
-7.48464e-05
-6.66143e-05
-5.8402e-05
-5.038e-05
-4.26992e-05
-3.55223e-05
-2.90446e-05
-2.33699e-05
-1.85279e-05
-1.44952e-05
-1.12137e-05
-8.59875e-06
-6.55061e-06
-4.96817e-06
-3.75572e-06
-2.81673e-06
-2.11858e-06
-1.56469e-06
-1.12026e-06
-7.57759e-07
-4.589e-07
-2.10559e-07
-2.41601e-09
1.72725e-07
3.19421e-07
4.39219e-07
5.31562e-07
5.94124e-07
6.25356e-07
6.24957e-07
5.98108e-07
5.44671e-07
4.79174e-07
4.02766e-07
3.25711e-07
2.53171e-07
1.88026e-07
1.32978e-07
8.8838e-08
5.46315e-08
2.98161e-08
1.2585e-08
1.22841e-09
-5.34286e-09
-8.71271e-09
-1.00017e-08
-9.57564e-09
-8.46996e-09
-6.84523e-09
-5.00285e-09
-2.9199e-09
-6.92986e-10
0.00084783
0.000798005
0.000694935
0.000536028
0.000340822
0.000139519
-4.26306e-05
-0.000190425
-0.000297589
-0.000365537
-0.000400465
-0.000409889
-0.00040119
-0.000381791
-0.000358771
-0.000336832
-0.000317299
-0.000299911
-0.000284648
-0.000271478
-0.000259537
-0.000247848
-0.000236605
-0.000226359
-0.000216707
-0.000207273
-0.000198482
-0.000190433
-0.000182781
-0.000175635
-0.000169177
-0.000163169
-0.000157476
-0.000152158
-0.000147113
-0.000142256
-0.000137579
-0.000132952
-0.000128284
-0.000123589
-0.00011877
-0.000113685
-0.000108339
-0.000102729
-9.67482e-05
-9.0378e-05
-8.36962e-05
-7.66973e-05
-6.9384e-05
-6.18912e-05
-5.44614e-05
-4.71999e-05
-4.019e-05
-3.36046e-05
-2.7655e-05
-2.24297e-05
-1.79303e-05
-1.41453e-05
-1.10417e-05
-8.54641e-06
-6.56746e-06
-5.02101e-06
-3.82897e-06
-2.92692e-06
-2.20692e-06
-1.64782e-06
-1.19955e-06
-8.34131e-07
-5.33552e-07
-2.84746e-07
-7.66549e-08
9.78745e-08
2.4426e-07
3.65672e-07
4.62193e-07
5.30665e-07
5.68658e-07
5.75788e-07
5.55848e-07
5.10947e-07
4.5214e-07
3.84277e-07
3.13579e-07
2.46094e-07
1.84513e-07
1.31843e-07
8.9192e-08
5.57692e-08
3.13525e-08
1.42049e-08
2.7789e-09
-3.96412e-09
-7.54514e-09
-9.04584e-09
-8.82319e-09
-7.90964e-09
-6.4221e-09
-4.71065e-09
-2.71691e-09
-6.28071e-10
0.000697228
0.000654032
0.000573592
0.000455049
0.000308317
0.00015069
1.13579e-07
-0.000128321
-0.000225359
-0.000289925
-0.00032711
-0.000343007
-0.000342377
-0.000330493
-0.000313818
-0.00029706
-0.00028148
-0.00026686
-0.000253634
-0.000242428
-0.000232388
-0.000222087
-0.000211987
-0.000203115
-0.000194659
-0.000185996
-0.00017809
-0.000171066
-0.000164146
-0.000157635
-0.000151933
-0.000146532
-0.000141319
-0.000136574
-0.000132045
-0.00012757
-0.000123341
-0.000119197
-0.00011492
-0.000110656
-0.000106366
-0.000101783
-9.69344e-05
-9.19208e-05
-8.65919e-05
-8.08846e-05
-7.49389e-05
-6.87706e-05
-6.23111e-05
-5.56949e-05
-4.91654e-05
-4.27931e-05
-3.66045e-05
-3.0771e-05
-2.54959e-05
-2.08406e-05
-1.67903e-05
-1.33453e-05
-1.04995e-05
-8.19402e-06
-6.34576e-06
-4.88471e-06
-3.74737e-06
-2.87286e-06
-2.1845e-06
-1.64364e-06
-1.2092e-06
-8.54806e-07
-5.65141e-07
-3.24821e-07
-1.24144e-07
4.18899e-08
1.78626e-07
2.9173e-07
3.83021e-07
4.50038e-07
4.90618e-07
5.03828e-07
4.91659e-07
4.56795e-07
4.082e-07
3.50839e-07
2.88685e-07
2.29074e-07
1.74036e-07
1.26156e-07
8.68728e-08
5.56236e-08
3.24786e-08
1.60107e-08
4.78397e-09
-1.98066e-09
-5.77345e-09
-7.52172e-09
-7.59248e-09
-6.9463e-09
-5.72392e-09
-4.20834e-09
-2.48469e-09
-7.16861e-10
0.000561317
0.000524969
0.000462319
0.000374049
0.000266061
0.000146979
2.76707e-05
-7.91652e-05
-0.000163342
-0.00022204
-0.000258885
-0.000278339
-0.000283124
-0.000277062
-0.000265988
-0.000254029
-0.000242069
-0.00023016
-0.000219179
-0.000209992
-0.000201778
-0.000193018
-0.000184315
-0.000176894
-0.000169707
-0.000162019
-0.000155135
-0.000149176
-0.000143078
-0.000137303
-0.000132418
-0.000127709
-0.00012306
-0.000118933
-0.000114982
-0.000110965
-0.000107214
-0.000103586
-9.97893e-05
-9.60347e-05
-9.23108e-05
-8.82861e-05
-8.40195e-05
-7.96636e-05
-7.50313e-05
-7.0071e-05
-6.4987e-05
-5.97422e-05
-5.41759e-05
-4.84642e-05
-4.29007e-05
-3.7501e-05
-3.22138e-05
-2.72031e-05
-2.26766e-05
-1.86686e-05
-1.51413e-05
-1.21104e-05
-9.59127e-06
-7.53713e-06
-5.87553e-06
-4.54739e-06
-3.5037e-06
-2.69383e-06
-2.05712e-06
-1.55247e-06
-1.14723e-06
-8.18681e-07
-5.51614e-07
-3.30716e-07
-1.45821e-07
7.22193e-09
1.31983e-07
2.33809e-07
3.14497e-07
3.72183e-07
4.06396e-07
4.18432e-07
4.10153e-07
3.83894e-07
3.48351e-07
3.05012e-07
2.54162e-07
2.04683e-07
1.57226e-07
1.15652e-07
8.11992e-08
5.34039e-08
3.24505e-08
1.73726e-08
6.79347e-09
2.72431e-10
-3.57612e-09
-5.53965e-09
-5.91197e-09
-5.57887e-09
-4.70778e-09
-3.48014e-09
-2.12675e-09
-6.95461e-10
0.000444272
0.000414189
0.000365193
0.000299267
0.000220254
0.000131601
3.95185e-05
-4.58304e-05
-0.000115188
-0.000165636
-0.000199723
-0.0002201
-0.000227677
-0.000225259
-0.000218343
-0.000210455
-0.000201631
-0.000191981
-0.000183175
-0.000176125
-0.00016953
-0.000162158
-0.000155084
-0.000149201
-0.000143171
-0.000136592
-0.000130902
-0.000125974
-0.000120744
-0.000115834
-0.000111764
-0.000107761
-0.000103784
-0.000100308
-9.69572e-05
-9.35035e-05
-9.02846e-05
-8.7163e-05
-8.38968e-05
-8.07147e-05
-7.758e-05
-7.41743e-05
-7.05713e-05
-6.68845e-05
-6.29362e-05
-5.87719e-05
-5.46016e-05
-5.02671e-05
-4.55786e-05
-4.08034e-05
-3.6242e-05
-3.18077e-05
-2.73953e-05
-2.31993e-05
-1.94347e-05
-1.60971e-05
-1.3126e-05
-1.0552e-05
-8.40622e-06
-6.6463e-06
-5.20844e-06
-4.04665e-06
-3.12705e-06
-2.40822e-06
-1.84248e-06
-1.39189e-06
-1.02992e-06
-7.39215e-07
-5.02907e-07
-3.09101e-07
-1.48159e-07
-1.36047e-08
9.28491e-08
1.8086e-07
2.52653e-07
3.05227e-07
3.36051e-07
3.45649e-07
3.36221e-07
3.10392e-07
2.82385e-07
2.51115e-07
2.12461e-07
1.73905e-07
1.36273e-07
1.0162e-07
7.25307e-08
4.8783e-08
3.05134e-08
1.72494e-08
7.69183e-09
1.66456e-09
-1.99749e-09
-4.03278e-09
-4.58797e-09
-4.48382e-09
-3.91819e-09
-2.94753e-09
-1.92401e-09
-9.29193e-10
0.000331452
0.000308022
0.000271349
0.000224351
0.000169632
0.0001075
4.07838e-05
-2.285e-05
-7.56024e-05
-0.000115291
-0.000144143
-0.000163193
-0.00017162
-0.000171362
-0.000167531
-0.00016312
-0.000157278
-0.000149728
-0.000142941
-0.000138198
-0.000133374
-0.000127295
-0.000121938
-0.000117846
-0.000113046
-0.000107669
-0.000103409
-9.96321e-05
-9.53406e-05
-9.14795e-05
-8.8358e-05
-8.51191e-05
-8.19307e-05
-7.92231e-05
-7.65357e-05
-7.37633e-05
-7.12289e-05
-6.86992e-05
-6.60307e-05
-6.3525e-05
-6.10624e-05
-5.83271e-05
-5.54758e-05
-5.25921e-05
-4.94498e-05
-4.61557e-05
-4.29485e-05
-3.95941e-05
-3.58779e-05
-3.21276e-05
-2.86419e-05
-2.52511e-05
-2.18064e-05
-1.85164e-05
-1.55913e-05
-1.29956e-05
-1.06509e-05
-8.59728e-06
-6.88332e-06
-5.47428e-06
-4.31001e-06
-3.35912e-06
-2.60405e-06
-2.01211e-06
-1.54376e-06
-1.1687e-06
-8.67593e-07
-6.26375e-07
-4.28632e-07
-2.6544e-07
-1.32244e-07
-4.56632e-08
5.80394e-08
1.25622e-07
1.79119e-07
2.19096e-07
2.44885e-07
2.56166e-07
2.53354e-07
2.32285e-07
2.18268e-07
1.97575e-07
1.71245e-07
1.41717e-07
1.13347e-07
8.68242e-08
6.4155e-08
4.53459e-08
3.04267e-08
1.93617e-08
1.10666e-08
5.52269e-09
1.96352e-09
-3.49966e-10
-1.32506e-09
-1.73618e-09
-1.70472e-09
-1.30022e-09
-6.45986e-10
3.16816e-11
0.000208861
0.000193643
0.000170093
0.000141376
0.000109365
7.2765e-05
3.18799e-05
-8.25353e-06
-4.17381e-05
-6.73126e-05
-8.72461e-05
-0.000101742
-0.000108875
-0.000109581
-0.000107864
-0.000106034
-0.000103031
-9.8071e-05
-9.34383e-05
-9.08673e-05
-8.81451e-05
-8.38162e-05
-8.02617e-05
-7.81013e-05
-7.49525e-05
-7.11154e-05
-6.85004e-05
-6.61821e-05
-6.31514e-05
-6.05798e-05
-5.86506e-05
-5.64324e-05
-5.42569e-05
-5.25302e-05
-5.07161e-05
-4.88145e-05
-4.71658e-05
-4.5461e-05
-4.3613e-05
-4.19764e-05
-4.03657e-05
-3.84744e-05
-3.65616e-05
-3.47034e-05
-3.25959e-05
-3.03628e-05
-2.83026e-05
-2.61738e-05
-2.37115e-05
-2.12098e-05
-1.89563e-05
-1.67825e-05
-1.45283e-05
-1.23618e-05
-1.04587e-05
-8.77464e-06
-7.22984e-06
-5.85552e-06
-4.70602e-06
-3.76658e-06
-2.9845e-06
-2.33427e-06
-1.81301e-06
-1.40519e-06
-1.08e-06
-8.17118e-07
-6.07775e-07
-4.39594e-07
-3.02143e-07
-1.86127e-07
-8.22332e-08
3.61727e-08
4.99155e-08
9.03583e-08
1.26495e-07
1.49601e-07
1.59261e-07
1.59121e-07
1.51235e-07
1.12021e-07
1.36991e-07
1.26844e-07
1.0925e-07
8.88035e-08
6.94823e-08
5.15507e-08
3.62283e-08
2.37375e-08
1.39389e-08
6.93909e-09
1.88855e-09
-1.27777e-09
-3.02351e-09
-3.98839e-09
-4.08275e-09
-3.79334e-09
-3.36288e-09
-2.69376e-09
-2.13756e-09
-1.58137e-09
7.22218e-05
6.69186e-05
5.86085e-05
4.88223e-05
3.83472e-05
2.63445e-05
1.25109e-05
-1.38079e-06
-1.30031e-05
-2.18833e-05
-2.91197e-05
-3.47857e-05
-3.77732e-05
-3.82305e-05
-3.77736e-05
-3.73783e-05
-3.65667e-05
-3.48335e-05
-3.30945e-05
-3.23027e-05
-3.15069e-05
-2.987e-05
-2.85378e-05
-2.79432e-05
-2.68655e-05
-2.53702e-05
-2.4476e-05
-2.37457e-05
-2.26076e-05
-2.16523e-05
-2.10097e-05
-2.01993e-05
-1.93894e-05
-1.88085e-05
-1.81714e-05
-1.74543e-05
-1.68572e-05
-1.62534e-05
-1.55707e-05
-1.49729e-05
-1.44063e-05
-1.37321e-05
-1.30519e-05
-1.23894e-05
-1.16053e-05
-1.07771e-05
-1.00622e-05
-9.34089e-06
-8.46917e-06
-7.57364e-06
-6.78741e-06
-6.03154e-06
-5.22476e-06
-4.4388e-06
-3.7559e-06
-3.16059e-06
-2.61473e-06
-2.12276e-06
-1.70665e-06
-1.36888e-06
-1.09074e-06
-8.56381e-07
-6.66671e-07
-5.21551e-07
-4.05454e-07
-3.08718e-07
-2.31688e-07
-1.6878e-07
-1.16569e-07
-7.51916e-08
-4.53249e-08
-4.59031e-08
-7.86497e-09
1.13085e-08
2.91262e-08
4.55209e-08
5.68101e-08
6.01212e-08
6.74014e-08
9.26903e-08
7.35792e-08
7.02939e-08
6.72447e-08
6.23786e-08
5.68815e-08
5.06637e-08
4.41841e-08
3.77752e-08
3.16584e-08
2.6149e-08
2.12282e-08
1.69997e-08
1.35268e-08
1.05605e-08
8.28624e-09
6.41826e-09
5.0254e-09
3.93099e-09
3.2447e-09
2.07072e-09
1.94066e-05
6.75363e-06
1.05838e-05
1.31095e-05
2.0279e-05
2.54985e-05
3.90861e-05
4.40756e-05
5.80299e-05
7.4998e-05
0.000100127
0.000116613
0.00014874
0.000189276
0.000242519
0.000287371
0.000357866
0.000426426
0.000525721
0.000629845
0.000775402
0.000948575
0.00119574
0.00149571
0.00189758
1.87736e-05
6.88465e-06
1.05757e-05
1.31232e-05
2.00584e-05
2.55468e-05
3.87998e-05
4.39645e-05
5.72422e-05
7.4579e-05
9.92985e-05
0.000116261
0.000147512
0.000188203
0.000238988
0.000285582
0.00035033
0.000423747
0.000517898
0.000624897
0.000760624
0.000933592
0.00114867
0.00140552
0.00164324
1.77015e-05
7.35412e-06
1.04184e-05
1.33012e-05
1.93745e-05
2.5581e-05
3.78958e-05
4.37163e-05
5.56843e-05
7.45035e-05
9.74163e-05
0.00011512
0.000144758
0.000187434
0.000233797
0.000281435
0.000341797
0.000417312
0.000506506
0.000612003
0.000737569
0.000897468
0.00107531
0.00126463
0.00140103
1.64014e-05
7.93966e-06
1.02955e-05
1.33543e-05
1.83648e-05
2.54383e-05
3.67581e-05
4.29696e-05
5.37938e-05
7.35568e-05
9.47555e-05
0.000112686
0.00014106
0.000183494
0.000227583
0.000273746
0.000331325
0.000405829
0.000490989
0.000589919
0.000704455
0.000841556
0.000983453
0.00111416
0.00119587
1.48173e-05
8.53683e-06
1.01933e-05
1.31707e-05
1.71606e-05
2.50124e-05
3.53702e-05
4.1455e-05
5.1534e-05
7.17688e-05
9.13326e-05
0.000108583
0.000136199
0.000177495
0.000219171
0.000262537
0.000317822
0.000389334
0.00046931
0.000558268
0.000658875
0.000771193
0.000880217
0.000968969
0.00101918
1.29748e-05
8.8963e-06
1.01765e-05
1.27237e-05
1.58174e-05
2.40809e-05
3.35975e-05
3.9112e-05
4.95587e-05
6.90283e-05
8.68969e-05
0.00010262
0.00012957
0.000169208
0.000207943
0.000247627
0.000300011
0.000367117
0.000439811
0.000516644
0.000601206
0.000690826
0.000772188
0.000831791
0.00085998
1.10294e-05
8.86156e-06
1.01541e-05
1.20151e-05
1.43587e-05
2.25677e-05
3.1292e-05
3.58895e-05
4.59883e-05
6.49139e-05
8.09854e-05
9.48697e-05
0.0001208
0.000158149
0.000193129
0.00022838
0.000276795
0.000338111
0.000401668
0.000465343
0.000533634
0.000603422
0.000662485
0.000700992
0.000713822
9.1382e-06
8.30921e-06
9.77157e-06
1.10135e-05
1.28488e-05
2.05329e-05
2.81304e-05
3.18576e-05
4.16566e-05
5.92325e-05
7.29549e-05
8.51133e-05
0.000109663
0.00014367
0.000173769
0.000204081
0.000247485
0.000301489
0.000354605
0.000405221
0.000458387
0.00051105
0.000552323
0.000575566
0.000578877
7.42288e-06
7.35558e-06
8.91142e-06
9.60903e-06
1.1261e-05
1.82398e-05
2.41782e-05
2.70152e-05
3.66964e-05
5.23202e-05
6.29578e-05
7.33924e-05
9.64153e-05
0.000126232
0.000150493
0.000175519
0.000213363
0.000259244
0.000301727
0.000340606
0.000381216
0.000420178
0.000448183
0.000461485
0.00046034
5.66502e-06
6.02059e-06
7.56971e-06
7.73273e-06
9.18919e-06
1.54135e-05
1.94289e-05
2.10511e-05
3.02475e-05
4.35808e-05
5.06714e-05
5.87761e-05
7.9399e-05
0.000104173
0.000121789
0.000140636
0.000171765
0.000208533
0.000239995
0.000267467
0.000296648
0.00032398
0.000341352
0.000347583
0.000344554
3.6308e-06
4.08656e-06
5.42354e-06
5.18487e-06
6.14967e-06
1.10167e-05
1.33048e-05
1.35097e-05
2.06881e-05
3.06775e-05
3.4359e-05
3.91927e-05
5.47465e-05
7.24213e-05
8.27813e-05
9.41323e-05
0.000115672
0.00014079
0.000160297
0.000176106
0.000193637
0.000210169
0.000219041
0.000220471
0.000217354
1.26754e-06
1.47464e-06
2.05462e-06
1.89272e-06
2.18267e-06
4.17575e-06
4.94595e-06
4.68872e-06
7.50419e-06
1.1546e-05
1.26196e-05
1.40469e-05
2.01531e-05
2.69936e-05
3.03271e-05
3.3919e-05
4.18545e-05
5.11568e-05
5.77973e-05
6.27029e-05
6.84585e-05
7.40998e-05
7.67086e-05
7.6489e-05
7.50921e-05
)
;

boundaryField
{
    top
    {
        type            fixedValue;
        value           uniform 0;
    }
    inlet
    {
        type            zeroGradient;
    }
    outlet
    {
        type            fixedValue;
        value           uniform 0;
    }
    plate
    {
        type            zeroGradient;
    }
    symmBound
    {
        type            zeroGradient;
    }
    frontAndBack
    {
        type            empty;
    }
}


// ************************************************************************* //
