/*--------------------------------*- C++ -*----------------------------------*\
| =========                 |                                                 |
| \\      /  F ield         | OpenFOAM: The Open Source CFD Toolbox           |
|  \\    /   O peration     | Version:  2.3.0                                 |
|   \\  /    A nd           | Web:      www.OpenFOAM.org                      |
|    \\/     M anipulation  |                                                 |
\*---------------------------------------------------------------------------*/
FoamFile
{
    version     2.0;
    format      ascii;
    class       surfaceScalarField;
    location    "0.2";
    object      phi;
}
// * * * * * * * * * * * * * * * * * * * * * * * * * * * * * * * * * * * * * //

dimensions      [0 3 -1 0 0 0 0];

internalField   nonuniform List<scalar> 
2863
(
2.88852e-08
2.78192e-09
-3.16671e-08
2.54074e-08
3.47773e-09
2.19556e-08
3.45182e-09
1.87587e-08
3.19693e-09
1.58421e-08
2.91662e-09
1.32819e-08
2.56022e-09
1.11775e-08
2.10441e-09
9.54954e-09
1.62792e-09
8.36337e-09
1.18617e-09
7.53303e-09
8.30334e-10
6.95952e-09
5.7351e-10
6.55684e-09
4.02678e-10
6.26057e-09
2.96276e-10
6.02717e-09
2.33399e-10
5.82883e-09
1.98337e-10
5.6494e-09
1.79432e-10
5.48095e-09
1.68455e-10
5.32104e-09
1.5991e-10
5.16995e-09
1.51087e-10
5.02852e-09
1.41425e-10
4.89708e-09
1.3144e-10
4.77553e-09
1.21556e-10
4.66391e-09
1.11619e-10
4.56195e-09
1.01956e-10
4.46869e-09
9.32633e-11
4.38343e-09
8.52599e-11
4.30584e-09
7.75905e-11
4.23503e-09
7.08064e-11
4.17008e-09
6.49494e-11
4.11068e-09
5.94014e-11
4.05645e-09
5.42297e-11
4.00679e-09
4.96598e-11
3.96146e-09
4.53342e-11
3.9203e-09
4.11567e-11
3.88295e-09
3.73491e-11
3.84923e-09
3.37226e-11
3.81913e-09
3.00972e-11
3.79246e-09
2.66736e-11
3.769e-09
2.34616e-11
3.74875e-09
2.02519e-11
3.73167e-09
1.70802e-11
3.71759e-09
1.40768e-11
3.70639e-09
1.11989e-11
3.698e-09
8.38508e-12
3.69235e-09
5.65436e-12
3.68934e-09
3.01462e-12
3.68891e-09
4.26027e-13
3.69071e-09
-1.79822e-12
3.69437e-09
-3.66628e-12
3.69975e-09
-5.37684e-12
3.70641e-09
-6.66095e-12
3.71392e-09
-7.50422e-12
3.7218e-09
-7.87904e-12
3.72965e-09
-7.85612e-12
3.73713e-09
-7.47549e-12
3.74396e-09
-6.83351e-12
3.74999e-09
-6.03241e-12
3.75518e-09
-5.18258e-12
3.75953e-09
-4.35413e-12
3.76311e-09
-3.58453e-12
3.76601e-09
-2.89955e-12
3.76833e-09
-2.31601e-12
3.77016e-09
-1.83435e-12
3.77161e-09
-1.44323e-12
3.77274e-09
-1.13197e-12
3.77363e-09
-8.90187e-13
3.77433e-09
-7.02031e-13
3.77488e-09
-5.52539e-13
3.77532e-09
-4.33254e-13
3.77566e-09
-3.38009e-13
3.77592e-09
-2.61647e-13
3.77612e-09
-2.01052e-13
3.77627e-09
-1.52034e-13
3.77638e-09
-1.10494e-13
3.77646e-09
-7.4862e-14
3.7765e-09
-4.30299e-14
3.77651e-09
-1.40284e-14
3.7765e-09
1.14306e-14
3.77647e-09
3.25052e-14
3.77642e-09
4.80274e-14
3.77636e-09
5.81168e-14
3.7763e-09
6.25942e-14
3.77624e-09
6.23466e-14
3.77618e-09
5.77661e-14
3.77613e-09
5.14836e-14
3.77608e-09
4.32325e-14
3.77605e-09
3.51033e-14
3.77602e-09
2.76742e-14
3.776e-09
2.03684e-14
3.77599e-09
1.51494e-14
3.77598e-09
1.04069e-14
3.77597e-09
6.83124e-15
3.77596e-09
4.47034e-15
3.77596e-09
2.5921e-15
3.77596e-09
1.27394e-15
3.77596e-09
5.45283e-16
3.77596e-09
2.68497e-16
3.77596e-09
-2.98943e-16
3.77596e-09
5.54513e-16
-2.36614e-15
3.63128e-08
2.49335e-09
-3.60243e-08
3.61365e-08
3.65404e-09
3.54208e-08
4.16751e-09
3.44258e-08
4.19196e-09
3.32625e-08
4.07989e-09
3.19456e-08
3.87716e-09
3.04948e-08
3.55523e-09
2.89858e-08
3.13692e-09
2.74966e-08
2.67531e-09
2.60877e-08
2.23925e-09
2.4788e-08
1.87326e-09
2.3601e-08
1.58962e-09
2.25239e-08
1.37346e-09
2.15548e-08
1.20248e-09
2.06847e-08
1.0684e-09
1.99028e-08
9.61322e-10
1.91981e-08
8.73159e-10
1.8561e-08
7.96992e-10
1.79836e-08
7.28546e-10
1.74587e-08
6.66297e-10
1.69801e-08
6.10079e-10
1.65424e-08
5.5919e-10
1.61418e-08
5.12207e-10
1.57747e-08
4.69106e-10
1.54375e-08
4.30497e-10
1.51275e-08
3.95217e-10
1.48427e-08
3.62376e-10
1.45807e-08
3.32835e-10
1.43393e-08
3.06331e-10
1.41172e-08
2.81489e-10
1.39131e-08
2.5836e-10
1.37255e-08
2.37207e-10
1.35537e-08
2.17213e-10
1.33967e-08
1.98148e-10
1.32537e-08
1.80347e-10
1.3124e-08
1.63351e-10
1.30074e-08
1.4678e-10
1.2903e-08
1.30986e-10
1.28106e-08
1.15938e-10
1.27296e-08
1.01225e-10
1.26598e-08
8.69162e-11
1.26006e-08
7.32667e-11
1.25516e-08
6.02025e-11
1.25123e-08
4.76062e-11
1.24825e-08
3.5545e-11
1.24614e-08
2.4111e-11
1.24483e-08
1.34616e-11
1.24428e-08
3.76381e-12
1.24432e-08
-4.07935e-12
1.2449e-08
-1.12253e-11
1.2459e-08
-1.66479e-11
1.24719e-08
-2.04299e-11
1.24866e-08
-2.25224e-11
1.25019e-08
-2.31859e-11
1.2517e-08
-2.25745e-11
1.25312e-08
-2.10336e-11
1.25441e-08
-1.89101e-11
1.25554e-08
-1.65419e-11
1.25652e-08
-1.41589e-11
1.25736e-08
-1.18996e-11
1.25805e-08
-9.85773e-12
1.25863e-08
-8.09025e-12
1.25911e-08
-6.60451e-12
1.2595e-08
-5.37473e-12
1.25982e-08
-4.37219e-12
1.26009e-08
-3.56583e-12
1.26031e-08
-2.91247e-12
1.26049e-08
-2.37261e-12
1.26064e-08
-1.92164e-12
1.26076e-08
-1.54197e-12
1.26086e-08
-1.22076e-12
1.26093e-08
-9.49336e-13
1.26099e-08
-7.17177e-13
1.26103e-08
-5.16183e-13
1.26106e-08
-3.43804e-13
1.26107e-08
-1.9638e-13
1.26108e-08
-7.11429e-14
1.26108e-08
3.23547e-14
1.26107e-08
1.11532e-13
1.26106e-08
1.65209e-13
1.26104e-08
1.97161e-13
1.26103e-08
2.08593e-13
1.26102e-08
2.04198e-13
1.261e-08
1.87059e-13
1.26099e-08
1.64198e-13
1.26098e-08
1.37192e-13
1.26097e-08
1.10319e-13
1.26097e-08
8.66759e-14
1.26096e-08
6.37515e-14
1.26096e-08
4.74876e-14
1.26096e-08
3.2472e-14
1.26096e-08
2.19991e-14
1.26096e-08
1.41138e-14
1.26096e-08
8.65322e-15
1.26095e-08
4.46008e-15
1.26095e-08
2.22352e-15
1.26095e-08
1.17399e-15
1.26095e-08
-1.81683e-16
1.26095e-08
2.71586e-15
-5.83243e-15
4.03661e-08
2.37887e-09
-4.02516e-08
4.07815e-08
3.23865e-09
4.10348e-08
3.91424e-09
4.10983e-08
4.12845e-09
4.10518e-08
4.12632e-09
4.08896e-08
4.03945e-09
4.05706e-08
3.87423e-09
4.009e-08
3.61751e-09
3.94752e-08
3.29006e-09
3.87716e-08
2.94291e-09
3.80205e-08
2.62431e-09
3.72504e-08
2.35968e-09
3.64769e-08
2.14703e-09
3.5707e-08
1.97237e-09
3.49483e-08
1.82704e-09
3.4205e-08
1.70465e-09
3.34801e-08
1.59807e-09
3.27768e-08
1.5003e-09
3.20978e-08
1.40758e-09
3.14443e-08
1.31978e-09
3.08162e-08
1.23821e-09
3.02132e-08
1.16211e-09
2.96362e-08
1.08922e-09
2.90855e-08
1.01985e-09
2.8561e-08
9.54931e-10
2.80635e-08
8.92799e-10
2.75929e-08
8.32976e-10
2.71485e-08
7.77225e-10
2.67298e-08
7.25048e-10
2.63365e-08
6.74738e-10
2.59681e-08
6.26773e-10
2.56238e-08
5.8151e-10
2.53031e-08
5.37911e-10
2.50053e-08
4.95932e-10
2.47297e-08
4.55978e-10
2.44757e-08
4.17369e-10
2.42427e-08
3.79752e-10
2.40301e-08
3.43586e-10
2.38373e-08
3.08724e-10
2.36638e-08
2.74721e-10
2.3509e-08
2.41727e-10
2.33723e-08
2.10008e-10
2.3253e-08
1.79492e-10
2.31505e-08
1.50117e-10
2.3064e-08
1.22008e-10
2.29928e-08
9.53051e-11
2.29358e-08
7.04782e-11
2.28916e-08
4.79426e-11
2.28595e-08
2.80281e-11
2.2838e-08
1.025e-11
2.28253e-08
-3.97177e-12
2.282e-08
-1.50639e-11
2.28203e-08
-2.28054e-11
2.28247e-08
-2.76627e-11
2.28319e-08
-2.97623e-11
2.28406e-08
-2.97551e-11
2.285e-08
-2.82415e-11
2.28593e-08
-2.58446e-11
2.28681e-08
-2.30219e-11
2.28763e-08
-2.00864e-11
2.28837e-08
-1.72745e-11
2.28904e-08
-1.47432e-11
2.28963e-08
-1.25512e-11
2.29017e-08
-1.069e-11
2.29064e-08
-9.13639e-12
2.29107e-08
-7.85308e-12
2.29146e-08
-6.77624e-12
2.29181e-08
-5.84799e-12
2.29212e-08
-5.03006e-12
2.29239e-08
-4.29482e-12
2.29263e-08
-3.62546e-12
2.29284e-08
-3.01215e-12
2.29301e-08
-2.44232e-12
2.29315e-08
-1.91233e-12
2.29326e-08
-1.42762e-12
2.29334e-08
-9.91942e-13
2.29339e-08
-6.10411e-13
2.29342e-08
-2.85909e-13
2.29344e-08
-3.00236e-14
2.29344e-08
1.5355e-13
2.29343e-08
2.77901e-13
2.29342e-08
3.44059e-13
2.2934e-08
3.66007e-13
2.29339e-08
3.53143e-13
2.29337e-08
3.19745e-13
2.29336e-08
2.74946e-13
2.29334e-08
2.24891e-13
2.29333e-08
1.80139e-13
2.29333e-08
1.35213e-13
2.29332e-08
1.02185e-13
2.29332e-08
7.18102e-14
2.29332e-08
5.00577e-14
2.29331e-08
3.31993e-14
2.29331e-08
2.14511e-14
2.29331e-08
1.2402e-14
2.29331e-08
6.95711e-15
2.29331e-08
4.38315e-15
2.29331e-08
1.11076e-15
2.29331e-08
5.94293e-15
-6.51575e-15
4.48503e-08
2.33596e-09
-4.48074e-08
4.51555e-08
2.93341e-09
4.55452e-08
3.52454e-09
4.58441e-08
3.82959e-09
4.60737e-08
3.89666e-09
4.62627e-08
3.85043e-09
4.63871e-08
3.7499e-09
4.6416e-08
3.58858e-09
4.63361e-08
3.36992e-09
4.616e-08
3.11902e-09
4.59146e-08
2.86974e-09
4.56238e-08
2.65045e-09
4.53025e-08
2.46834e-09
4.49577e-08
2.31719e-09
4.45953e-08
2.18949e-09
4.42182e-08
2.08167e-09
4.3828e-08
1.98828e-09
4.34266e-08
1.90171e-09
4.30174e-08
1.81676e-09
4.26044e-08
1.73282e-09
4.21898e-08
1.65277e-09
4.17742e-08
1.57774e-09
4.13576e-08
1.50582e-09
4.09405e-08
1.43695e-09
4.05244e-08
1.37098e-09
4.01125e-08
1.30473e-09
3.97071e-08
1.23836e-09
3.93089e-08
1.17543e-09
3.89187e-08
1.11532e-09
3.85378e-08
1.05556e-09
3.81677e-08
9.96904e-10
3.78094e-08
9.39788e-10
3.74643e-08
8.83045e-10
3.7133e-08
8.272e-10
3.68161e-08
7.72861e-10
3.65145e-08
7.18964e-10
3.62289e-08
6.65372e-10
3.59596e-08
6.12894e-10
3.57071e-08
5.61222e-10
3.54719e-08
5.09981e-10
3.52539e-08
4.59706e-10
3.50532e-08
4.10643e-10
3.48701e-08
3.62637e-10
3.47043e-08
3.15906e-10
3.45555e-08
2.70837e-10
3.44232e-08
2.27597e-10
3.4307e-08
1.86702e-10
3.42061e-08
1.48802e-10
3.41198e-08
1.14363e-10
3.40466e-08
8.34443e-11
3.39858e-08
5.68014e-11
3.39361e-08
3.46564e-11
3.38961e-08
1.71974e-11
3.38646e-08
3.79148e-12
3.38402e-08
-5.35104e-12
3.38217e-08
-1.12156e-11
3.38079e-08
-1.44323e-11
3.37978e-08
-1.58084e-11
3.37908e-08
-1.59579e-11
3.3786e-08
-1.53181e-11
3.3783e-08
-1.42915e-11
3.37815e-08
-1.31777e-11
3.3781e-08
-1.21379e-11
3.37816e-08
-1.12272e-11
3.37829e-08
-1.04699e-11
3.37849e-08
-9.85513e-12
3.37875e-08
-9.32041e-12
3.37904e-08
-8.81282e-12
3.37937e-08
-8.30136e-12
3.37972e-08
-7.76185e-12
3.38007e-08
-7.18126e-12
3.38042e-08
-6.54766e-12
3.38076e-08
-5.84107e-12
3.38108e-08
-5.06223e-12
3.38136e-08
-4.23248e-12
3.3816e-08
-3.3835e-12
3.38179e-08
-2.55049e-12
3.38194e-08
-1.77459e-12
3.38205e-08
-1.09403e-12
3.38212e-08
-5.38825e-13
3.38216e-08
-1.18626e-13
3.38217e-08
1.69685e-13
3.38218e-08
3.46342e-13
3.38217e-08
4.31254e-13
3.38216e-08
4.48471e-13
3.38214e-08
4.24067e-13
3.38213e-08
3.70986e-13
3.38211e-08
3.12859e-13
3.3821e-08
2.47536e-13
3.38209e-08
1.93681e-13
3.38209e-08
1.43315e-13
3.38208e-08
1.04303e-13
3.38208e-08
7.30893e-14
3.38207e-08
5.03266e-14
3.38207e-08
3.24007e-14
3.38207e-08
2.07122e-14
3.38207e-08
1.35173e-14
3.38207e-08
6.72785e-15
3.38207e-08
8.66432e-15
-1.90641e-15
4.98189e-08
2.28521e-09
-4.97681e-08
5.00237e-08
2.72857e-09
5.03662e-08
3.18206e-09
5.06919e-08
3.50387e-09
5.09576e-08
3.63096e-09
5.11831e-08
3.62497e-09
5.13808e-08
3.5522e-09
5.15335e-08
3.4359e-09
5.16222e-08
3.28114e-09
5.16438e-08
3.09746e-09
5.16103e-08
2.90325e-09
5.15403e-08
2.72047e-09
5.14466e-08
2.56198e-09
5.13362e-08
2.42759e-09
5.12133e-08
2.31247e-09
5.10794e-08
2.21553e-09
5.09347e-08
2.13297e-09
5.07789e-08
2.05752e-09
5.06125e-08
1.98318e-09
5.04373e-08
1.90798e-09
5.02559e-08
1.83421e-09
5.00697e-08
1.76393e-09
4.98781e-08
1.69745e-09
4.96787e-08
1.6363e-09
4.94706e-08
1.57908e-09
4.92559e-08
1.51943e-09
4.90377e-08
1.45659e-09
4.8817e-08
1.39611e-09
4.85936e-08
1.3387e-09
4.83677e-08
1.2815e-09
4.814e-08
1.22453e-09
4.79123e-08
1.16757e-09
4.76859e-08
1.10942e-09
4.74617e-08
1.0514e-09
4.72402e-08
9.94373e-10
4.70224e-08
9.36734e-10
4.68095e-08
8.78309e-10
4.66021e-08
8.20227e-10
4.64013e-08
7.62067e-10
4.62078e-08
7.03502e-10
4.60221e-08
6.45383e-10
4.58449e-08
5.87832e-10
4.5677e-08
5.3059e-10
4.55186e-08
4.74288e-10
4.53699e-08
4.19496e-10
4.52313e-08
3.66193e-10
4.5103e-08
3.15e-10
4.49849e-08
2.66946e-10
4.48767e-08
2.22491e-10
4.47785e-08
1.8169e-10
4.469e-08
1.45312e-10
4.46107e-08
1.13943e-10
4.45403e-08
8.76073e-11
4.44781e-08
6.59436e-11
4.44239e-08
4.89331e-11
4.43767e-08
3.59698e-11
4.43359e-08
2.62977e-11
4.4301e-08
1.91176e-11
4.42713e-08
1.37297e-11
4.42462e-08
9.76515e-12
4.42252e-08
6.75904e-12
4.42077e-08
4.3397e-12
4.41933e-08
2.24715e-12
4.41817e-08
3.57068e-13
4.41727e-08
-1.42284e-12
4.41659e-08
-3.10751e-12
4.41612e-08
-4.60914e-12
4.41583e-08
-5.86749e-12
4.41568e-08
-6.87609e-12
4.41567e-08
-7.64352e-12
4.41577e-08
-8.18859e-12
4.41597e-08
-8.51254e-12
4.41624e-08
-8.57449e-12
4.41657e-08
-8.34428e-12
4.41693e-08
-7.80902e-12
4.41729e-08
-6.99401e-12
4.41763e-08
-5.9534e-12
4.41793e-08
-4.78498e-12
4.41818e-08
-3.5976e-12
4.41838e-08
-2.49021e-12
4.41852e-08
-1.5386e-12
4.41861e-08
-7.72646e-13
4.41867e-08
-2.1218e-13
4.41869e-08
1.628e-13
4.4187e-08
3.80577e-13
4.41869e-08
4.82644e-13
4.41868e-08
4.98567e-13
4.41867e-08
4.68393e-13
4.41865e-08
4.05308e-13
4.41864e-08
3.3811e-13
4.41862e-08
2.67452e-13
4.41861e-08
2.06341e-13
4.41861e-08
1.53326e-13
4.4186e-08
1.12674e-13
4.41859e-08
7.84234e-14
4.41859e-08
5.52056e-14
4.41859e-08
3.71194e-14
4.41859e-08
2.37248e-14
4.41859e-08
1.62776e-14
9.7778e-15
5.52837e-08
2.22229e-09
-5.52208e-08
5.54398e-08
2.57247e-09
5.57091e-08
2.91271e-09
5.60063e-08
3.20669e-09
5.62692e-08
3.3681e-09
5.64873e-08
3.40687e-09
5.66741e-08
3.36532e-09
5.68308e-08
3.27922e-09
5.69478e-08
3.16421e-09
5.70191e-08
3.02608e-09
5.70489e-08
2.87352e-09
5.70481e-08
2.72123e-09
5.70285e-08
2.58162e-09
5.69977e-08
2.45837e-09
5.69598e-08
2.35031e-09
5.69171e-08
2.25827e-09
5.68703e-08
2.17973e-09
5.68196e-08
2.10826e-09
5.67644e-08
2.03839e-09
5.67043e-08
1.96803e-09
5.66405e-08
1.89809e-09
5.65748e-08
1.8296e-09
5.65079e-08
1.76437e-09
5.64377e-08
1.70645e-09
5.63621e-08
1.65469e-09
5.62809e-08
1.60064e-09
5.6196e-08
1.54154e-09
5.61089e-08
1.48313e-09
5.60197e-08
1.42795e-09
5.59269e-08
1.37424e-09
5.58303e-08
1.32117e-09
5.57308e-08
1.26712e-09
5.56294e-08
1.21077e-09
5.55266e-08
1.15421e-09
5.54223e-08
1.09868e-09
5.53167e-08
1.04229e-09
5.52104e-08
9.84586e-10
5.51041e-08
9.26605e-10
5.49981e-08
8.68003e-10
5.4893e-08
8.08633e-10
5.4789e-08
7.4941e-10
5.46865e-08
6.90261e-10
5.45863e-08
6.30882e-10
5.44885e-08
5.72091e-10
5.43934e-08
5.14518e-10
5.43015e-08
4.58134e-10
5.42129e-08
4.03622e-10
5.41278e-08
3.51995e-10
5.40467e-08
3.03601e-10
5.39698e-08
2.58602e-10
5.38972e-08
2.1791e-10
5.38291e-08
1.82091e-10
5.37657e-08
1.51005e-10
5.37072e-08
1.24397e-10
5.36538e-08
1.02343e-10
5.36053e-08
8.45056e-11
5.35614e-08
7.01633e-11
5.3522e-08
5.84781e-11
5.34869e-08
4.88291e-11
5.34559e-08
4.08365e-11
5.34285e-08
3.41151e-11
5.34045e-08
2.83604e-11
5.33835e-08
2.32475e-11
5.33653e-08
1.85712e-11
5.33497e-08
1.41593e-11
5.33366e-08
9.9796e-12
5.33259e-08
6.11459e-12
5.33173e-08
2.70166e-12
5.33107e-08
-2.27993e-13
5.33057e-08
-2.69003e-12
5.33023e-08
-4.75486e-12
5.33002e-08
-6.48186e-12
5.32995e-08
-7.85244e-12
5.33e-08
-8.81619e-12
5.33015e-08
-9.29499e-12
5.33037e-08
-9.24635e-12
5.33064e-08
-8.67045e-12
5.33093e-08
-7.65467e-12
5.33121e-08
-6.3438e-12
5.33145e-08
-4.89924e-12
5.33164e-08
-3.49185e-12
5.33179e-08
-2.22461e-12
5.33189e-08
-1.19394e-12
5.33194e-08
-4.09743e-13
5.33197e-08
1.26634e-13
5.33197e-08
4.5511e-13
5.33196e-08
6.17641e-13
5.33194e-08
6.66536e-13
5.33192e-08
6.35616e-13
5.33189e-08
5.67849e-13
5.33187e-08
4.77437e-13
5.33185e-08
3.88479e-13
5.33184e-08
3.03131e-13
5.33183e-08
2.33419e-13
5.33182e-08
1.719e-13
5.33181e-08
1.26962e-13
5.33181e-08
8.98426e-14
5.3318e-08
6.23837e-14
5.3318e-08
4.18802e-14
3.15201e-14
6.12991e-08
2.15658e-09
-6.12334e-08
6.14296e-08
2.44193e-09
6.16334e-08
2.70892e-09
6.18861e-08
2.95405e-09
6.21286e-08
3.12554e-09
6.23373e-08
3.19825e-09
6.25097e-08
3.19286e-09
6.26518e-08
3.13711e-09
6.27644e-08
3.05159e-09
6.28451e-08
2.94548e-09
6.28938e-08
2.8248e-09
6.29155e-08
2.69949e-09
6.29185e-08
2.57864e-09
6.29106e-08
2.46621e-09
6.28966e-08
2.36437e-09
6.28791e-08
2.27573e-09
6.28599e-08
2.19894e-09
6.284e-08
2.12816e-09
6.28195e-08
2.05888e-09
6.27971e-08
1.99043e-09
6.27723e-08
1.92296e-09
6.27464e-08
1.85547e-09
6.27209e-08
1.78987e-09
6.26958e-08
1.73157e-09
6.26702e-08
1.68022e-09
6.2643e-08
1.62785e-09
6.26138e-08
1.57076e-09
6.2584e-08
1.51297e-09
6.25543e-08
1.45767e-09
6.25236e-08
1.40486e-09
6.24914e-08
1.35342e-09
6.24578e-08
1.30069e-09
6.24232e-08
1.24536e-09
6.23877e-08
1.18973e-09
6.23513e-08
1.1351e-09
6.23137e-08
1.0799e-09
6.22747e-08
1.02351e-09
6.22348e-08
9.66528e-10
6.21941e-08
9.08734e-10
6.21525e-08
8.5024e-10
6.21101e-08
7.91826e-10
6.2067e-08
7.33339e-10
6.20233e-08
6.74527e-10
6.19793e-08
6.1615e-10
6.19349e-08
5.58857e-10
6.18904e-08
5.02707e-10
6.18457e-08
4.48331e-10
6.18011e-08
3.96573e-10
6.1757e-08
3.47674e-10
6.17136e-08
3.01973e-10
6.16712e-08
2.60368e-10
6.163e-08
2.23309e-10
6.15904e-08
1.90542e-10
6.1553e-08
1.61841e-10
6.1518e-08
1.3735e-10
6.14855e-08
1.1694e-10
6.14557e-08
9.99805e-11
6.14285e-08
8.57205e-11
6.14038e-08
7.35623e-11
6.13815e-08
6.30821e-11
6.13616e-08
5.39962e-11
6.13439e-08
4.60904e-11
6.13281e-08
3.90774e-11
6.13139e-08
3.27148e-11
6.13013e-08
2.67371e-11
6.12903e-08
2.1034e-11
6.12807e-08
1.56663e-11
6.12726e-08
1.07889e-11
6.12659e-08
6.5271e-12
6.12603e-08
2.88139e-12
6.12558e-08
-2.30218e-13
6.12522e-08
-2.90926e-12
6.12496e-08
-5.19795e-12
6.12478e-08
-7.07559e-12
6.1247e-08
-8.44417e-12
6.12469e-08
-9.20438e-12
6.12476e-08
-9.28942e-12
6.12486e-08
-8.72589e-12
6.12499e-08
-7.63924e-12
6.12512e-08
-6.19801e-12
6.12524e-08
-4.62534e-12
6.12532e-08
-3.07901e-12
6.12537e-08
-1.7316e-12
6.1254e-08
-6.41336e-13
6.1254e-08
1.51956e-13
6.12537e-08
6.70144e-13
6.12534e-08
9.56725e-13
6.1253e-08
1.06704e-12
6.12526e-08
1.05068e-12
6.12522e-08
9.63583e-13
6.12518e-08
8.3278e-13
6.12515e-08
6.94602e-13
6.12513e-08
5.57019e-13
6.12511e-08
4.37923e-13
6.12509e-08
3.33621e-13
6.12508e-08
2.50612e-13
6.12507e-08
1.84995e-13
6.12506e-08
1.3096e-13
6.12506e-08
9.5853e-14
6.67822e-14
6.79304e-08
2.09462e-09
-6.78684e-08
6.80397e-08
2.3326e-09
6.81976e-08
2.551e-09
6.83998e-08
2.7519e-09
6.86105e-08
2.91476e-09
6.88024e-08
3.00644e-09
6.89626e-08
3.03265e-09
6.90917e-08
3.00802e-09
6.91942e-08
2.94906e-09
6.92723e-08
2.86741e-09
6.93259e-08
2.77119e-09
6.93569e-08
2.66842e-09
6.93705e-08
2.5651e-09
6.93723e-08
2.46437e-09
6.93669e-08
2.36976e-09
6.93577e-08
2.28492e-09
6.9347e-08
2.20965e-09
6.9336e-08
2.13921e-09
6.9325e-08
2.06987e-09
6.9313e-08
2.00239e-09
6.92992e-08
1.93684e-09
6.9284e-08
1.87068e-09
6.92683e-08
1.80549e-09
6.92535e-08
1.74644e-09
6.92406e-08
1.69308e-09
6.92288e-08
1.63966e-09
6.92161e-08
1.58349e-09
6.92027e-08
1.52631e-09
6.91901e-08
1.47032e-09
6.91781e-08
1.41686e-09
6.91665e-08
1.36505e-09
6.91551e-08
1.31203e-09
6.91436e-08
1.2569e-09
6.91318e-08
1.20155e-09
6.91201e-08
1.14681e-09
6.91082e-08
1.09176e-09
6.90957e-08
1.03597e-09
6.90828e-08
9.79475e-10
6.90694e-08
9.2216e-10
6.90552e-08
8.64454e-10
6.90401e-08
8.06849e-10
6.90244e-08
7.49085e-10
6.90078e-08
6.91107e-10
6.89903e-08
6.33667e-10
6.89719e-08
5.77258e-10
6.89526e-08
5.2201e-10
6.89323e-08
4.68651e-10
6.89111e-08
4.17758e-10
6.88892e-08
3.6951e-10
6.88669e-08
3.24286e-10
6.88444e-08
2.82888e-10
6.8822e-08
2.45702e-10
6.88001e-08
2.1245e-10
6.8779e-08
1.82942e-10
6.87591e-08
1.57308e-10
6.87405e-08
1.35477e-10
6.87235e-08
1.16968e-10
6.87081e-08
1.01134e-10
6.86942e-08
8.74567e-11
6.86819e-08
7.54432e-11
6.86709e-08
6.49446e-11
6.86613e-08
5.56962e-11
6.86528e-08
4.75804e-11
6.86453e-08
4.02478e-11
6.86385e-08
3.3489e-11
6.86325e-08
2.70398e-11
6.86272e-08
2.09983e-11
6.86225e-08
1.54182e-11
6.86186e-08
1.05135e-11
6.86151e-08
6.30084e-12
6.86122e-08
2.69837e-12
6.86097e-08
-3.94958e-13
6.86076e-08
-3.05579e-12
6.86058e-08
-5.29237e-12
6.86044e-08
-7.02374e-12
6.86033e-08
-8.13324e-12
6.86025e-08
-8.53215e-12
6.8602e-08
-8.21249e-12
6.86017e-08
-7.2804e-12
6.86014e-08
-5.90065e-12
6.8601e-08
-4.31073e-12
6.86006e-08
-2.67645e-12
6.86001e-08
-1.21394e-12
6.85995e-08
-3.03021e-15
6.85987e-08
8.84703e-13
6.8598e-08
1.4552e-12
6.85972e-08
1.75255e-12
6.85964e-08
1.83359e-12
6.85957e-08
1.75863e-12
6.85951e-08
1.59347e-12
6.85945e-08
1.37537e-12
6.85941e-08
1.14829e-12
6.85937e-08
9.2854e-13
6.85934e-08
7.32808e-13
6.85932e-08
5.66964e-13
6.8593e-08
4.27335e-13
6.85929e-08
3.22929e-13
6.85928e-08
2.29226e-13
6.85927e-08
1.77258e-13
1.15344e-13
6.76342e-08
2.0472e-09
-6.75868e-08
6.77136e-08
2.25316e-09
6.78254e-08
2.43921e-09
6.79673e-08
2.61008e-09
6.81247e-08
2.75735e-09
6.82753e-08
2.85575e-09
6.84065e-08
2.90147e-09
6.85138e-08
2.90076e-09
6.85988e-08
2.86407e-09
6.86641e-08
2.8021e-09
6.8711e-08
2.72424e-09
6.87413e-08
2.63816e-09
6.87579e-08
2.54845e-09
6.87642e-08
2.45813e-09
6.87632e-08
2.37075e-09
6.87585e-08
2.28957e-09
6.87527e-08
2.21547e-09
6.87464e-08
2.14551e-09
6.87396e-08
2.07667e-09
6.8732e-08
2.00996e-09
6.87233e-08
1.94553e-09
6.87134e-08
1.88066e-09
6.87023e-08
1.81658e-09
6.86914e-08
1.75732e-09
6.86825e-08
1.70196e-09
6.86753e-08
1.64691e-09
6.86677e-08
1.59102e-09
6.86596e-08
1.53446e-09
6.86517e-08
1.47817e-09
6.86447e-08
1.42393e-09
6.86386e-08
1.37112e-09
6.86333e-08
1.31729e-09
6.86281e-08
1.2621e-09
6.86228e-08
1.20686e-09
6.86179e-08
1.15177e-09
6.86132e-08
1.09646e-09
6.86083e-08
1.0408e-09
6.86033e-08
9.84456e-10
6.85981e-08
9.27376e-10
6.85924e-08
8.70139e-10
6.85863e-08
8.12981e-10
6.85797e-08
7.55668e-10
6.85724e-08
6.98393e-10
6.85644e-08
6.41747e-10
6.85556e-08
5.86007e-10
6.85461e-08
5.31546e-10
6.85357e-08
4.79066e-10
6.85245e-08
4.28966e-10
6.85126e-08
3.81386e-10
6.85001e-08
3.36786e-10
6.84871e-08
2.95846e-10
6.84741e-08
2.5877e-10
6.84612e-08
2.25331e-10
6.84487e-08
1.95436e-10
6.84368e-08
1.69151e-10
6.84259e-08
1.46401e-10
6.8416e-08
1.26829e-10
6.84073e-08
1.09926e-10
6.83995e-08
9.51912e-11
6.83928e-08
8.21833e-11
6.8387e-08
7.07375e-11
6.8382e-08
6.06433e-11
6.83778e-08
5.17728e-11
6.83743e-08
4.38246e-11
6.83712e-08
3.65513e-11
6.83685e-08
2.97226e-11
6.83662e-08
2.33248e-11
6.83641e-08
1.75044e-11
6.83623e-08
1.23046e-11
6.83608e-08
7.83712e-12
6.83594e-08
4.03838e-12
6.83583e-08
7.73033e-13
6.83572e-08
-1.9998e-12
6.83562e-08
-4.30448e-12
6.83553e-08
-6.07072e-12
6.83543e-08
-7.18739e-12
6.83534e-08
-7.57174e-12
6.83524e-08
-7.20853e-12
6.83513e-08
-6.20584e-12
6.83501e-08
-4.74624e-12
6.83489e-08
-3.08944e-12
6.83476e-08
-1.37809e-12
6.83463e-08
1.17432e-13
6.8345e-08
1.32167e-12
6.83437e-08
2.17877e-12
6.83424e-08
2.68505e-12
6.83413e-08
2.89032e-12
6.83403e-08
2.85792e-12
6.83394e-08
2.65708e-12
6.83386e-08
2.36196e-12
6.8338e-08
2.01889e-12
6.83374e-08
1.67381e-12
6.8337e-08
1.35244e-12
6.83367e-08
1.06482e-12
6.83364e-08
8.27566e-13
6.83362e-08
6.23241e-13
6.83361e-08
4.757e-13
6.8336e-08
3.37341e-13
6.83359e-08
2.66502e-13
1.69804e-13
8.5459e-08
1.99917e-09
-8.54109e-08
8.5532e-08
2.18015e-09
8.56311e-08
2.34006e-09
8.57546e-08
2.48658e-09
8.5896e-08
2.61597e-09
8.60333e-08
2.71842e-09
8.6157e-08
2.77779e-09
8.62611e-08
2.79665e-09
8.63444e-08
2.78074e-09
8.64082e-08
2.73837e-09
8.64544e-08
2.67798e-09
8.64862e-08
2.60641e-09
8.65065e-08
2.52817e-09
8.65172e-08
2.44735e-09
8.65204e-08
2.3676e-09
8.65191e-08
2.29086e-09
8.65164e-08
2.21818e-09
8.65129e-08
2.14897e-09
8.6508e-08
2.08164e-09
8.65018e-08
2.01617e-09
8.6495e-08
1.95229e-09
8.6487e-08
1.88866e-09
8.64773e-08
1.82628e-09
8.64677e-08
1.7669e-09
8.646e-08
1.70965e-09
8.64536e-08
1.65334e-09
8.64471e-08
1.5975e-09
8.64404e-08
1.5412e-09
8.64336e-08
1.48492e-09
8.64274e-08
1.43017e-09
8.64223e-08
1.3762e-09
8.64181e-08
1.32147e-09
8.6414e-08
1.26623e-09
8.64099e-08
1.21096e-09
8.64062e-08
1.15545e-09
8.64028e-08
1.09988e-09
8.63994e-08
1.04421e-09
8.63959e-08
9.87911e-10
8.63922e-08
9.31118e-10
8.6388e-08
8.74283e-10
8.63836e-08
8.17382e-10
8.63789e-08
7.60442e-10
8.63735e-08
7.03802e-10
8.63674e-08
6.47772e-10
8.63608e-08
5.9266e-10
8.63533e-08
5.39079e-10
8.63448e-08
4.87492e-10
8.63358e-08
4.38039e-10
8.63261e-08
3.91028e-10
8.63158e-08
3.47112e-10
8.6305e-08
3.06631e-10
8.62942e-08
2.69617e-10
8.62834e-08
2.36037e-10
8.6273e-08
2.05899e-10
8.6263e-08
1.79139e-10
8.62538e-08
1.55607e-10
8.62455e-08
1.35084e-10
8.62383e-08
1.1719e-10
8.6232e-08
1.01448e-10
8.62267e-08
8.75351e-11
8.62222e-08
7.51751e-11
8.62186e-08
6.43126e-11
8.62156e-08
5.47626e-11
8.62132e-08
4.61949e-11
8.62113e-08
3.84811e-11
8.62097e-08
3.1254e-11
8.62084e-08
2.46139e-11
8.62073e-08
1.86525e-11
8.62063e-08
1.32718e-11
8.62055e-08
8.64694e-12
8.62048e-08
4.71731e-12
8.62043e-08
1.26642e-12
8.6204e-08
-1.63642e-12
8.62036e-08
-3.93826e-12
8.62031e-08
-5.59144e-12
8.62024e-08
-6.4924e-12
8.62015e-08
-6.59371e-12
8.62002e-08
-5.91539e-12
8.61986e-08
-4.60944e-12
8.61967e-08
-2.90035e-12
8.61947e-08
-1.07489e-12
8.61925e-08
8.05258e-13
8.61903e-08
2.35887e-12
8.61881e-08
3.53515e-12
8.6186e-08
4.2906e-12
8.6184e-08
4.63806e-12
8.61823e-08
4.64574e-12
8.61807e-08
4.39674e-12
8.61794e-08
3.97451e-12
8.61783e-08
3.46479e-12
8.61774e-08
2.92603e-12
8.61767e-08
2.40335e-12
8.61761e-08
1.93334e-12
8.61756e-08
1.51619e-12
8.61753e-08
1.17813e-12
8.6175e-08
8.86708e-13
8.61748e-08
6.78921e-13
8.61747e-08
4.82827e-13
8.61745e-08
3.85989e-13
2.37701e-13
1.08e-07
1.96042e-09
-1.07961e-07
1.08056e-07
2.12403e-09
1.08131e-07
2.26533e-09
1.08223e-07
2.39476e-09
1.08328e-07
2.51039e-09
1.08434e-07
2.61279e-09
1.08531e-07
2.68109e-09
1.08615e-07
2.71257e-09
1.08684e-07
2.71193e-09
1.08736e-07
2.68577e-09
1.08774e-07
2.63997e-09
1.08802e-07
2.57907e-09
1.08821e-07
2.50857e-09
1.08834e-07
2.43476e-09
1.0884e-07
2.36125e-09
1.08842e-07
2.28859e-09
1.08843e-07
2.21733e-09
1.08843e-07
2.14892e-09
1.08841e-07
2.08374e-09
1.08838e-07
2.01991e-09
1.08834e-07
1.95591e-09
1.08829e-07
1.89321e-09
1.08823e-07
1.83294e-09
1.08816e-07
1.77341e-09
1.08811e-07
1.71443e-09
1.08807e-07
1.65778e-09
1.08802e-07
1.60215e-09
1.08798e-07
1.54551e-09
1.08794e-07
1.48938e-09
1.08789e-07
1.43469e-09
1.08786e-07
1.37971e-09
1.08783e-07
1.32425e-09
1.0878e-07
1.26918e-09
1.08777e-07
1.21381e-09
1.08775e-07
1.15789e-09
1.08772e-07
1.10226e-09
1.0877e-07
1.04657e-09
1.08767e-07
9.90198e-10
1.08765e-07
9.33701e-10
1.08762e-07
8.77308e-10
1.08759e-07
8.20631e-10
1.08755e-07
7.63994e-10
1.08751e-07
7.07876e-10
1.08747e-07
6.52247e-10
1.08742e-07
5.97597e-10
1.08736e-07
5.44771e-10
1.0873e-07
4.93864e-10
1.08723e-07
4.44815e-10
1.08715e-07
3.98346e-10
1.08707e-07
3.55151e-10
1.08699e-07
3.1509e-10
1.0869e-07
2.78088e-10
1.08682e-07
2.44316e-10
1.08674e-07
2.13974e-10
1.08666e-07
1.86859e-10
1.08659e-07
1.62742e-10
1.08653e-07
1.4147e-10
1.08647e-07
1.22764e-10
1.08643e-07
1.06208e-10
1.08639e-07
9.15005e-11
1.08635e-07
7.85048e-11
1.08633e-07
6.70138e-11
1.0863e-07
5.69038e-11
1.08629e-07
4.78295e-11
1.08628e-07
3.95858e-11
1.08627e-07
3.20208e-11
1.08626e-07
2.51464e-11
1.08626e-07
1.89686e-11
1.08626e-07
1.35252e-11
1.08626e-07
8.81466e-12
1.08626e-07
4.71911e-12
1.08626e-07
1.10943e-12
1.08626e-07
-1.8726e-12
1.08626e-07
-4.27586e-12
1.08627e-07
-5.86375e-12
1.08627e-07
-6.5233e-12
1.08626e-07
-6.17875e-12
1.08625e-07
-4.88912e-12
1.08624e-07
-2.93171e-12
1.08621e-07
-5.20739e-13
1.08618e-07
1.73148e-12
1.08615e-07
3.89739e-12
1.08612e-07
5.62458e-12
1.08609e-07
6.8107e-12
1.08606e-07
7.44127e-12
1.08603e-07
7.56011e-12
1.086e-07
7.26792e-12
1.08598e-07
6.68383e-12
1.08596e-07
5.91976e-12
1.08594e-07
5.07974e-12
1.08593e-07
4.24362e-12
1.08592e-07
3.45436e-12
1.08591e-07
2.76373e-12
1.0859e-07
2.15723e-12
1.0859e-07
1.67373e-12
1.08589e-07
1.25682e-12
1.08589e-07
9.65362e-13
1.08589e-07
6.8415e-13
1.08589e-07
5.50084e-13
3.46738e-13
1.36526e-07
-1.36512e-07
1.36547e-07
1.36575e-07
1.36611e-07
1.36653e-07
1.36696e-07
1.36737e-07
1.36774e-07
1.36806e-07
1.36831e-07
1.36849e-07
1.36863e-07
1.36874e-07
1.36882e-07
1.36888e-07
1.36892e-07
1.36895e-07
1.36897e-07
1.36899e-07
1.36899e-07
1.369e-07
1.369e-07
1.36899e-07
1.36897e-07
1.36897e-07
1.36897e-07
1.36896e-07
1.36895e-07
1.36895e-07
1.36894e-07
1.36893e-07
1.36893e-07
1.36893e-07
1.36893e-07
1.36894e-07
1.36894e-07
1.36894e-07
1.36894e-07
1.36894e-07
1.36894e-07
1.36894e-07
1.36893e-07
1.36893e-07
1.36892e-07
1.36891e-07
1.36889e-07
1.36888e-07
1.36886e-07
1.36884e-07
1.36882e-07
1.36879e-07
1.36876e-07
1.36873e-07
1.3687e-07
1.36867e-07
1.36865e-07
1.36863e-07
1.36861e-07
1.36859e-07
1.36858e-07
1.36857e-07
1.36856e-07
1.36856e-07
1.36856e-07
1.36857e-07
1.36857e-07
1.36858e-07
1.36859e-07
1.3686e-07
1.36861e-07
1.36861e-07
1.36863e-07
1.36864e-07
1.36865e-07
1.36866e-07
1.36867e-07
1.36867e-07
1.36866e-07
1.36864e-07
1.36862e-07
1.36859e-07
1.36855e-07
1.3685e-07
1.36846e-07
1.36842e-07
1.36838e-07
1.36834e-07
1.3683e-07
1.36827e-07
1.36825e-07
1.36823e-07
1.36821e-07
1.36819e-07
1.36818e-07
1.36817e-07
1.36817e-07
1.36816e-07
1.36816e-07
1.36816e-07
3.4448e-08
1.00567e-10
3.44493e-08
-5.16075e-11
3.44447e-08
2.92446e-11
3.44465e-08
-1.07327e-10
3.44425e-08
1.2494e-10
3.44439e-08
6.79956e-11
3.44341e-08
9.41772e-11
3.44223e-08
-1.54775e-10
3.44009e-08
-8.74287e-11
3.43902e-08
-4.80213e-11
3.43731e-08
2.13394e-10
3.43585e-08
2.05363e-10
3.43316e-08
2.07403e-10
3.42935e-08
-1.28151e-11
3.4246e-08
-4.81932e-11
3.42014e-08
-6.83934e-11
3.41398e-08
7.50661e-11
3.40743e-08
1.64185e-10
3.39835e-08
2.70495e-10
3.38878e-08
3.26499e-10
3.37567e-08
3.39617e-10
3.35838e-08
4.26499e-10
3.33135e-08
4.92447e-10
3.27392e-08
9.55242e-10
1.5787e-09
3.80446e-08
1.04715e-10
3.80452e-08
-5.22909e-11
3.80387e-08
3.58127e-11
3.80367e-08
-1.05301e-10
3.80337e-08
1.27846e-10
3.8032e-08
6.97292e-11
3.80277e-08
9.85303e-11
3.80074e-08
-1.34561e-10
3.79884e-08
-6.83732e-11
3.79649e-08
-2.45371e-11
3.79617e-08
2.16641e-10
3.7934e-08
2.3301e-10
3.79198e-08
2.21627e-10
3.78613e-08
4.5707e-11
3.78281e-08
-1.50262e-11
3.77497e-08
9.95792e-12
3.77097e-08
1.15104e-10
3.7601e-08
2.72866e-10
3.75427e-08
3.28798e-10
3.73888e-08
4.80423e-10
3.72838e-08
4.44613e-10
3.70264e-08
6.83864e-10
3.67642e-08
7.54724e-10
3.63235e-08
1.39588e-09
1.87796e-09
4.20248e-08
8.91386e-11
4.20036e-08
-3.10996e-11
4.20173e-08
2.21001e-11
4.19903e-08
-7.83452e-11
4.20111e-08
1.0707e-10
4.19896e-08
9.12059e-11
4.2008e-08
8.01551e-11
4.19605e-08
-8.70918e-11
4.1957e-08
-6.48755e-11
4.19096e-08
2.28615e-11
4.19266e-08
1.9969e-10
4.18854e-08
2.74243e-10
4.18845e-08
2.2251e-10
4.18128e-08
1.17335e-10
4.17756e-08
2.2171e-11
4.16869e-08
9.86911e-11