/*--------------------------------*- C++ -*----------------------------------*\
| =========                 |                                                 |
| \\      /  F ield         | OpenFOAM: The Open Source CFD Toolbox           |
|  \\    /   O peration     | Version:  2.3.0                                 |
|   \\  /    A nd           | Web:      www.OpenFOAM.org                      |
|    \\/     M anipulation  |                                                 |
\*---------------------------------------------------------------------------*/
FoamFile
{
    version     2.0;
    format      ascii;
    class       volVectorField;
    location    "0.2";
    object      U_0;
}
// * * * * * * * * * * * * * * * * * * * * * * * * * * * * * * * * * * * * * //

dimensions      [0 1 -1 0 0 0 0];

internalField   nonuniform List<vector> 
1500
(
(0.175929 0.0044269 0)
(0.15514 0.00604539 0)
(0.136306 0.00618658 0)
(0.117942 0.00557773 0)
(0.100147 0.00478192 0)
(0.0838126 0.00388404 0)
(0.0700844 0.00288678 0)
(0.059384 0.00182538 0)
(0.0515039 0.000901104 0)
(0.0458799 0.000279583 0)
(0.0419222 -4.40428e-05 0)
(0.0391386 -0.000164731 0)
(0.0371311 -0.000173073 0)
(0.0356074 -0.000132124 0)
(0.0343642 -7.5447e-05 0)
(0.0332752 -2.17035e-05 0)
(0.0322716 1.95368e-05 0)
(0.0313235 4.59104e-05 0)
(0.0304251 5.96533e-05 0)
(0.0295797 6.45821e-05 0)
(0.0287904 6.43442e-05 0)
(0.0280584 6.1258e-05 0)
(0.027384 5.64608e-05 0)
(0.0267662 5.12614e-05 0)
(0.0262014 4.6597e-05 0)
(0.0256855 4.21484e-05 0)
(0.0252152 3.78788e-05 0)
(0.0247864 3.44002e-05 0)
(0.0243943 3.14651e-05 0)
(0.0240354 2.85455e-05 0)
(0.0237076 2.59105e-05 0)
(0.023408 2.36539e-05 0)
(0.0231343 2.13875e-05 0)
(0.0228853 1.91795e-05 0)
(0.0226595 1.72272e-05 0)
(0.0224553 1.52864e-05 0)
(0.0222723 1.3281e-05 0)
(0.0221098 1.14355e-05 0)
(0.0219666 9.73088e-06 0)
(0.0218421 8.04465e-06 0)
(0.0217364 6.45286e-06 0)
(0.0216485 5.03688e-06 0)
(0.0215779 3.73513e-06 0)
(0.0215238 2.48694e-06 0)
(0.021486 1.28788e-06 0)
(0.0214639 1.69636e-07 0)
(0.021457 -1.07043e-06 0)
(0.021464 -2.66979e-06 0)
(0.0214827 -3.29447e-06 0)
(0.0215116 -4.34202e-06 0)
(0.0215488 -5.13186e-06 0)
(0.0215917 -5.66404e-06 0)
(0.0216376 -5.83677e-06 0)
(0.021684 -5.72026e-06 0)
(0.0217288 -5.33545e-06 0)
(0.0217702 -4.76272e-06 0)
(0.0218071 -4.09696e-06 0)
(0.021839 -3.4263e-06 0)
(0.0218661 -2.79579e-06 0)
(0.0218885 -2.22832e-06 0)
(0.0219067 -1.74011e-06 0)
(0.0219214 -1.3387e-06 0)
(0.021933 -1.01843e-06 0)
(0.0219422 -7.67495e-07 0)
(0.0219494 -5.78405e-07 0)
(0.021955 -4.3864e-07 0)
(0.0219595 -3.34834e-07 0)
(0.021963 -2.56093e-07 0)
(0.0219657 -1.96499e-07 0)
(0.0219679 -1.51207e-07 0)
(0.0219695 -1.17012e-07 0)
(0.0219708 -9.20268e-08 0)
(0.0219717 -7.30607e-08 0)
(0.0219724 -5.6743e-08 0)
(0.0219729 -4.28677e-08 0)
(0.0219732 -3.19843e-08 0)
(0.0219733 -1.90996e-08 0)
(0.0219732 2.7294e-09 0)
(0.0219731 1.73056e-08 0)
(0.0219728 2.9665e-08 0)
(0.0219725 3.60603e-08 0)
(0.0219721 3.92321e-08 0)
(0.0219717 3.86468e-08 0)
(0.0219714 3.54556e-08 0)
(0.0219711 3.12012e-08 0)
(0.0219708 2.57132e-08 0)
(0.0219706 2.06381e-08 0)
(0.0219704 1.58814e-08 0)
(0.0219703 1.14872e-08 0)
(0.0219702 8.32775e-09 0)
(0.0219701 5.57734e-09 0)
(0.0219701 3.50705e-09 0)
(0.02197 2.2751e-09 0)
(0.02197 1.20748e-09 0)
(0.02197 5.55182e-10 0)
(0.02197 2.15142e-10 0)
(0.02197 -9.73106e-12 0)
(0.02197 -5.82266e-10 0)
(0.02197 -7.05361e-10 0)
(0.02197 -1.87917e-09 0)
(0.191345 0.00788018 0)
(0.189581 0.0110309 0)
(0.187165 0.0121374 0)
(0.183473 0.011989 0)
(0.178202 0.0113802 0)
(0.171533 0.0105182 0)
(0.164086 0.00937702 0)
(0.156288 0.00794099 0)
(0.14849 0.00637135 0)
(0.140941 0.00489954 0)
(0.1338 0.00367888 0)
(0.127188 0.0027511 0)
(0.121158 0.00208611 0)
(0.115734 0.00163043 0)
(0.110883 0.0013268 0)
(0.106544 0.00112738 0)
(0.102651 0.000992746 0)
(0.0991434 0.000892542 0)
(0.0959696 0.000809276 0)
(0.0930882 0.000735774 0)
(0.0904628 0.00066955 0)
(0.0880646 0.000608788 0)
(0.0858705 0.000551726 0)
(0.0838596 0.000498966 0)
(0.0820142 0.000451698 0)
(0.0803198 0.000408432 0)
(0.0787627 0.000368552 0)
(0.0773306 0.000333712 0)
(0.076013 0.000303078 0)
(0.0748006 0.000274523 0)
(0.0736856 0.000248499 0)
(0.0726617 0.000225295 0)
(0.0717231 0.000203505 0)
(0.0708644 0.000182942 0)
(0.0700818 0.000164073 0)
(0.0693717 0.000146109 0)
(0.0687308 0.0001287 0)
(0.0681565 0.000112448 0)
(0.0676462 9.71211e-05 0)
(0.0671976 8.21827e-05 0)
(0.0668086 6.79434e-05 0)
(0.0664772 5.46951e-05 0)
(0.0662007 4.21843e-05 0)
(0.0659768 3.03456e-05 0)
(0.0658034 1.93838e-05 0)
(0.0656778 9.37044e-06 0)
(0.0655963 1.72324e-07 0)
(0.0655552 -8.46093e-06 0)
(0.0655492 -1.75641e-05 0)
(0.0655725 -2.44649e-05 0)
(0.06562 -2.85066e-05 0)
(0.065685 -3.0636e-05 0)
(0.0657611 -3.09208e-05 0)
(0.0658423 -2.97676e-05 0)
(0.0659237 -2.74596e-05 0)
(0.0660012 -2.44592e-05 0)
(0.0660722 -2.11418e-05 0)
(0.0661354 -1.7845e-05 0)
(0.0661902 -1.47657e-05 0)
(0.066237 -1.19989e-05 0)
(0.0662763 -9.60512e-06 0)
(0.066309 -7.60939e-06 0)
(0.0663361 -5.98487e-06 0)
(0.0663584 -4.67878e-06 0)
(0.0663768 -3.65458e-06 0)
(0.066392 -2.86102e-06 0)
(0.0664045 -2.24291e-06 0)
(0.0664148 -1.75312e-06 0)
(0.0664232 -1.36458e-06 0)
(0.06643 -1.05389e-06 0)
(0.0664355 -8.02661e-07 0)
(0.0664397 -6.00582e-07 0)
(0.0664429 -4.35813e-07 0)
(0.0664453 -2.97104e-07 0)
(0.0664469 -1.79676e-07 0)
(0.0664478 -7.91533e-08 0)
(0.0664482 8.1427e-09 0)
(0.0664481 9.36357e-08 0)
(0.0664477 1.44263e-07 0)
(0.0664471 1.79987e-07 0)
(0.0664464 1.94667e-07 0)
(0.0664456 1.97525e-07 0)
(0.0664449 1.87084e-07 0)
(0.0664441 1.67285e-07 0)
(0.0664435 1.44105e-07 0)
(0.066443 1.17574e-07 0)
(0.0664426 9.32466e-08 0)
(0.0664422 7.1492e-08 0)
(0.066442 5.15527e-08 0)
(0.0664418 3.76271e-08 0)
(0.0664417 2.49031e-08 0)
(0.0664416 1.63688e-08 0)
(0.0664415 1.01361e-08 0)
(0.0664415 5.84055e-09 0)
(0.0664415 2.59066e-09 0)
(0.0664415 1.20416e-09 0)
(0.0664415 2.62988e-10 0)
(0.0664415 -3.75353e-10 0)
(0.0664414 1.5721e-09 0)
(0.0664415 -6.74341e-09 0)
(0.192603 0.00761327 0)
(0.192913 0.0101775 0)
(0.193861 0.0117485 0)
(0.194913 0.0122659 0)
(0.195459 0.0121956 0)
(0.195189 0.0118058 0)
(0.194085 0.0111201 0)
(0.192197 0.0101575 0)
(0.189626 0.00902024 0)
(0.186524 0.00786083 0)
(0.183047 0.00680964 0)
(0.179359 0.0059347 0)
(0.175593 0.00523518 0)
(0.171851 0.00467631 0)
(0.168174 0.00421751 0)
(0.164578 0.00383022 0)
(0.161074 0.00349369 0)
(0.157676 0.00319257 0)
(0.154392 0.00291815 0)
(0.151228 0.00266759 0)
(0.148184 0.00243992 0)
(0.145257 0.00223073 0)
(0.142452 0.00203582 0)
(0.139769 0.00185691 0)
(0.137211 0.00169478 0)
(0.134782 0.00154501 0)
(0.132482 0.00140641 0)
(0.130307 0.00128149 0)
(0.128256 0.00116826 0)
(0.126329 0.00106316 0)
(0.124521 0.000966607 0)
(0.122831 0.000878289 0)
(0.121255 0.000795748 0)
(0.11979 0.00071877 0)
(0.118432 0.0006476 0)
(0.117179 0.000580341 0)
(0.116029 0.000516164 0)
(0.114977 0.000456006 0)
(0.114021 0.000399396 0)
(0.113159 0.000345138 0)
(0.112388 0.000293493 0)
(0.111704 0.000245066 0)
(0.111105 0.000199506 0)
(0.110588 0.000156334 0)
(0.11015 0.000115649 0)
(0.109786 7.80272e-05 0)
(0.109492 4.50559e-05 0)
(0.109262 1.67301e-05 0)
(0.10909 -9.93396e-06 0)
(0.108973 -3.14814e-05 0)
(0.108901 -4.89029e-05 0)
(0.108865 -6.02004e-05 0)
(0.10886 -6.58147e-05 0)
(0.108877 -6.69002e-05 0)
(0.108908 -6.41886e-05 0)
(0.108949 -5.90428e-05 0)
(0.108994 -5.2553e-05 0)
(0.10904 -4.55942e-05 0)
(0.109084 -3.87627e-05 0)
(0.109125 -3.24099e-05 0)
(0.109163 -2.67603e-05 0)
(0.109196 -2.19297e-05 0)
(0.109226 -1.79004e-05 0)
(0.109253 -1.45755e-05 0)
(0.109277 -1.18738e-05 0)
(0.109299 -9.67716e-06 0)
(0.109318 -7.87441e-06 0)
(0.109336 -6.36925e-06 0)
(0.109352 -5.10337e-06 0)
(0.109365 -4.03999e-06 0)
(0.109378 -3.15111e-06 0)
(0.109388 -2.40689e-06 0)
(0.109397 -1.7749e-06 0)
(0.109404 -1.23886e-06 0)
(0.109409 -7.9353e-07 0)
(0.109414 -4.25024e-07 0)
(0.109416 -1.25796e-07 0)
(0.109418 1.13768e-07 0)
(0.109419 3.12804e-07 0)
(0.109419 4.45124e-07 0)
(0.109419 4.9684e-07 0)
(0.109418 5.02704e-07 0)
(0.109418 4.73898e-07 0)
(0.109417 4.21727e-07 0)
(0.109416 3.60853e-07 0)
(0.109415 2.9509e-07 0)
(0.109415 2.32745e-07 0)
(0.109414 1.79903e-07 0)
(0.109414 1.29801e-07 0)
(0.109413 9.59792e-08 0)
(0.109413 6.39833e-08 0)
(0.109413 4.33389e-08 0)
(0.109413 2.72513e-08 0)
(0.109413 1.64439e-08 0)
(0.109413 8.45351e-09 0)
(0.109413 4.11808e-09 0)
(0.109413 2.40757e-09 0)
(0.109413 -2.03581e-10 0)
(0.109413 7.3646e-09 0)
(0.109413 -1.02549e-08 0)
(0.193802 0.00720576 0)
(0.194066 0.00896595 0)
(0.194936 0.0103857 0)
(0.196307 0.0111237 0)
(0.197769 0.0112952 0)
(0.198999 0.011113 0)
(0.199852 0.0106831 0)
(0.200255 0.0100589 0)
(0.200182 0.0092988 0)
(0.199661 0.00848378 0)
(0.198756 0.00770258 0)
(0.197561 0.00702007 0)
(0.196174 0.0064553 0)
(0.194675 0.00598783 0)
(0.193109 0.00559349 0)
(0.191492 0.00525536 0)
(0.189826 0.00495297 0)
(0.188113 0.00466759 0)
(0.186364 0.00439242 0)
(0.184597 0.00413083 0)
(0.182822 0.00388904 0)
(0.181039 0.00366418 0)
(0.179248 0.00344722 0)
(0.177449 0.00323808 0)
(0.17565 0.00303927 0)
(0.173865 0.00284661 0)
(0.172105 0.00266083 0)
(0.170374 0.00248674 0)
(0.168675 0.00232107 0)
(0.167014 0.00215988 0)
(0.165397 0.00200599 0)
(0.163829 0.00185978 0)
(0.162317 0.0017182 0)
(0.160864 0.0015819 0)
(0.159471 0.00145185 0)
(0.158143 0.00132619 0)
(0.156884 0.00120456 0)
(0.155694 0.00108801 0)
(0.154577 0.000975805 0)
(0.153534 0.000867127 0)
(0.152565 0.00076264 0)
(0.151671 0.000662964 0)
(0.150854 0.000567956 0)
(0.150111 0.000477523 0)
(0.149444 0.000392149 0)
(0.148848 0.00031215 0)
(0.148322 0.000238065 0)
(0.147865 0.000171209 0)
(0.147471 0.000113601 0)
(0.147137 6.4066e-05 0)
(0.146857 2.12232e-05 0)
(0.146627 -1.18166e-05 0)
(0.146442 -3.53829e-05 0)
(0.146295 -5.09736e-05 0)
(0.146181 -5.97914e-05 0)
(0.146094 -6.25365e-05 0)
(0.146029 -6.11568e-05 0)
(0.145982 -5.72514e-05 0)
(0.145949 -5.19669e-05 0)
(0.145926 -4.61299e-05 0)
(0.145912 -4.03502e-05 0)
(0.145905 -3.50164e-05 0)
(0.145902 -3.02988e-05 0)
(0.145904 -2.62126e-05 0)
(0.14591 -2.27816e-05 0)
(0.145918 -1.9894e-05 0)
(0.145929 -1.74088e-05 0)
(0.145942 -1.5202e-05 0)
(0.145957 -1.31944e-05 0)
(0.145972 -1.13294e-05 0)
(0.145988 -9.58788e-06 0)
(0.146003 -7.96402e-06 0)
(0.146019 -6.43937e-06 0)
(0.146033 -5.01472e-06 0)
(0.146045 -3.71311e-06 0)
(0.146056 -2.56416e-06 0)
(0.146065 -1.59068e-06 0)
(0.146072 -7.96357e-07 0)
(0.146077 -1.61529e-07 0)
(0.146081 2.84435e-07 0)
(0.146083 5.70775e-07 0)
(0.146084 7.30072e-07 0)
(0.146084 7.71342e-07 0)
(0.146083 7.36578e-07 0)
(0.146083 6.57008e-07 0)
(0.146082 5.5854e-07 0)
(0.146082 4.50804e-07 0)
(0.146081 3.57384e-07 0)
(0.146081 2.65628e-07 0)
(0.14608 1.98977e-07 0)
(0.14608 1.39038e-07 0)
(0.14608 9.60873e-08 0)
(0.146079 6.42104e-08 0)
(0.146079 4.07191e-08 0)
(0.146079 2.44554e-08 0)
(0.146079 1.34459e-08 0)
(0.146079 9.01398e-09 0)
(0.146079 2.23553e-09 0)
(0.146079 1.11928e-08 0)
(0.146079 -7.36839e-09 0)
(0.194816 0.00691568 0)
(0.195057 0.00820902 0)
(0.195697 0.00937366 0)
(0.196746 0.0101308 0)
(0.197998 0.0104132 0)
(0.199222 0.0103372 0)
(0.200276 0.0100292 0)
(0.201081 0.0095716 0)
(0.2016 0.00901657 0)
(0.20184 0.00840879 0)
(0.201829 0.00780137 0)
(0.201611 0.00724411 0)
(0.201247 0.00676265 0)
(0.200793 0.00635295 0)
(0.200294 0.00600456 0)
(0.199768 0.00570997 0)
(0.199211 0.00545255 0)
(0.198617 0.00521064 0)
(0.197984 0.00497188 0)
(0.19732 0.00473709 0)
(0.196631 0.00451507 0)
(0.195921 0.0043091 0)
(0.195189 0.0041153 0)
(0.194429 0.00393238 0)
(0.19363 0.00375494 0)
(0.1928 0.00357309 0)
(0.191955 0.00339161 0)
(0.191102 0.00322161 0)
(0.190237 0.00305893 0)
(0.189359 0.00289623 0)
(0.188473 0.00273602 0)
(0.187585 0.00257923 0)
(0.1867 0.00242364 0)
(0.185823 0.00227133 0)
(0.184955 0.00212278 0)
(0.1841 0.00197488 0)
(0.183263 0.00182844 0)
(0.182446 0.00168557 0)
(0.181653 0.00154488 0)
(0.180888 0.00140601 0)
(0.180153 0.00127059 0)
(0.17945 0.00113854 0)
(0.178782 0.00100957 0)
(0.178151 0.000885018 0)
(0.177558 0.000765575 0)
(0.177003 0.000651122 0)
(0.176489 0.000543734 0)
(0.176015 0.000445325 0)
(0.17558 0.000355602 0)
(0.175183 0.000274153 0)
(0.174825 0.00020374 0)
(0.174504 0.000145345 0)
(0.174217 9.83956e-05 0)
(0.173964 6.1557e-05 0)
(0.173743 3.37406e-05 0)
(0.17355 1.43089e-05 0)
(0.173384 1.37383e-06 0)
(0.173241 -6.89447e-06 0)
(0.17312 -1.1815e-05 0)
(0.173017 -1.44236e-05 0)
(0.172931 -1.57326e-05 0)
(0.17286 -1.64317e-05 0)
(0.172801 -1.69144e-05 0)
(0.172753 -1.73863e-05 0)
(0.172716 -1.77713e-05 0)
(0.172687 -1.80527e-05 0)
(0.172668 -1.81953e-05 0)
(0.172655 -1.8146e-05 0)
(0.172648 -1.78946e-05 0)
(0.172647 -1.74188e-05 0)
(0.17265 -1.66885e-05 0)
(0.172657 -1.56696e-05 0)
(0.172668 -1.43253e-05 0)
(0.17268 -1.26814e-05 0)
(0.172695 -1.08028e-05 0)
(0.172709 -8.78244e-06 0)
(0.172723 -6.72839e-06 0)
(0.172735 -4.78516e-06 0)
(0.172746 -3.09665e-06 0)
(0.172754 -1.72404e-06 0)
(0.17276 -6.69964e-07 0)
(0.172764 7.62893e-08 0)
(0.172767 5.20852e-07 0)
(0.172768 7.60843e-07 0)
(0.172768 8.31561e-07 0)
(0.172768 8.05207e-07 0)
(0.172768 7.12843e-07 0)
(0.172767 6.03362e-07 0)
(0.172766 4.80094e-07 0)
(0.172766 3.7527e-07 0)
(0.172765 2.79092e-07 0)
(0.172765 2.03167e-07 0)
(0.172765 1.437e-07 0)
(0.172764 9.93411e-08 0)
(0.172764 6.48358e-08 0)
(0.172764 4.28172e-08 0)
(0.172764 2.70831e-08 0)
(0.172764 1.49727e-08 0)
(0.172764 1.31258e-08 0)
(0.172764 2.54314e-09 0)
(0.195688 0.00667825 0)
(0.195909 0.00768923 0)
(0.196401 0.00862291 0)
(0.197174 0.00931177 0)
(0.198128 0.00965626 0)
(0.199123 0.00968436 0)
(0.200043 0.00948558 0)
(0.200803 0.00914561 0)
(0.201362 0.00872163 0)
(0.201723 0.00824568 0)
(0.201913 0.00775041 0)
(0.201962 0.00727557 0)
(0.2019 0.00684618 0)
(0.201763 0.0064655 0)
(0.201598 0.00613393 0)
(0.201428 0.00585244 0)
(0.201256 0.00560981 0)
(0.201073 0.00538555 0)
(0.200882 0.00516362 0)
(0.200681 0.00494164 0)
(0.200466 0.00472765 0)
(0.20024 0.00452606 0)
(0.200009 0.00433883 0)
(0.199774 0.00417091 0)
(0.199516 0.00401322 0)
(0.199233 0.00384617 0)
(0.198937 0.00367231 0)
(0.198637 0.00350852 0)
(0.198328 0.00335462 0)
(0.198006 0.00320264 0)
(0.197671 0.00305215 0)
(0.197323 0.0029012 0)
(0.196968 0.00274816 0)
(0.19661 0.00259817 0)
(0.196245 0.00245195 0)
(0.195874 0.00230438 0)
(0.195501 0.0021561 0)
(0.195127 0.00201002 0)
(0.194753 0.00186437 0)
(0.194383 0.00171878 0)
(0.194015 0.00157578 0)
(0.193652 0.00143507 0)
(0.193296 0.00129585 0)
(0.192949 0.00115995 0)
(0.192611 0.00102863 0)
(0.192283 0.00090188 0)
(0.191967 0.000780905 0)
(0.191663 0.000667602 0)
(0.191372 0.000563102 0)
(0.191095 0.00046799 0)
(0.190834 0.000383888 0)
(0.190588 0.000311085 0)
(0.190358 0.000249082 0)
(0.190146 0.000197369 0)
(0.189951 0.000155933 0)
(0.189775 0.000123417 0)
(0.189615 9.80705e-05 0)
(0.189472 7.80672e-05 0)
(0.189344 6.22424e-05 0)
(0.189231 4.9736e-05 0)
(0.189131 3.96214e-05 0)
(0.189043 3.10906e-05 0)
(0.188967 2.35192e-05 0)
(0.1889 1.6507e-05 0)
(0.188843 1.00426e-05 0)
(0.188795 4.16487e-06 0)
(0.188755 -9.69967e-07 0)
(0.188723 -5.31017e-06 0)
(0.188699 -8.87191e-06 0)
(0.18868 -1.17438e-05 0)
(0.188667 -1.40235e-05 0)
(0.188659 -1.57256e-05 0)
(0.188655 -1.6745e-05 0)
(0.188656 -1.69946e-05 0)
(0.188661 -1.64335e-05 0)
(0.188669 -1.51316e-05 0)
(0.188678 -1.32161e-05 0)
(0.188688 -1.09021e-05 0)
(0.188699 -8.43224e-06 0)
(0.188708 -6.03243e-06 0)
(0.188715 -3.91816e-06 0)
(0.18872 -2.18067e-06 0)
(0.188724 -8.99697e-07 0)
(0.188727 -6.62831e-09 0)
(0.188728 5.25388e-07 0)
(0.188728 7.9968e-07 0)
(0.188728 8.84049e-07 0)
(0.188727 8.57151e-07 0)
(0.188726 7.58129e-07 0)
(0.188725 6.40141e-07 0)
(0.188725 5.1163e-07 0)
(0.188724 3.98756e-07 0)
(0.188723 2.98076e-07 0)
(0.188723 2.21884e-07 0)
(0.188723 1.55169e-07 0)
(0.188722 1.1201e-07 0)
(0.188722 7.4293e-08 0)
(0.188722 5.00581e-08 0)
(0.188722 2.93967e-08 0)
(0.188722 2.32987e-08 0)
(0.196457 0.00646352 0)
(0.19665 0.00727328 0)
(0.197034 0.00802273 0)
(0.197606 0.00861728 0)
(0.198314 0.00897657 0)
(0.199081 0.00908528 0)
(0.199831 0.00898787 0)
(0.200486 0.00875008 0)
(0.20099 0.00842548 0)
(0.201341 0.00804558 0)
(0.201564 0.00763748 0)
(0.201683 0.007233 0)
(0.201707 0.00685151 0)
(0.20166 0.00649824 0)
(0.201585 0.00618183 0)
(0.201508 0.00590878 0)
(0.201434 0.00566947 0)
(0.201359 0.00544727 0)
(0.201288 0.00523032 0)
(0.201223 0.00501498 0)
(0.201153 0.00480443 0)
(0.201068 0.00460135 0)
(0.200983 0.004411 0)
(0.200911 0.00424305 0)
(0.200833 0.00409036 0)
(0.200743 0.00393024 0)
(0.200651 0.00375985 0)
(0.20056 0.0035957 0)
(0.200463 0.00344268 0)
(0.200367 0.00329528 0)
(0.200268 0.00315041 0)
(0.200162 0.00300345 0)
(0.200052 0.00285287 0)
(0.199942 0.00270512 0)
(0.199828 0.00256188 0)
(0.199709 0.00241775 0)
(0.199587 0.00227216 0)
(0.199462 0.0021278 0)
(0.199332 0.00198367 0)
(0.199202 0.00183961 0)
(0.199069 0.00169772 0)
(0.198932 0.00155745 0)
(0.198794 0.00141805 0)
(0.198655 0.00128176 0)
(0.198514 0.0011501 0)
(0.198372 0.00102268 0)
(0.198229 0.000900441 0)
(0.198088 0.000785638 0)
(0.197946 0.000679062 0)
(0.197806 0.000580864 0)
(0.197669 0.000492525 0)
(0.197536 0.000414839 0)
(0.197407 0.000347465 0)
(0.197284 0.000289839 0)
(0.19717 0.000241798 0)
(0.197064 0.000202539 0)
(0.196966 0.000170448 0)
(0.196877 0.000143737 0)
(0.196796 0.000121257 0)
(0.196723 0.000102183 0)
(0.196657 8.5968e-05 0)
(0.196599 7.20441e-05 0)
(0.196548 5.9798e-05 0)
(0.196501 4.86765e-05 0)
(0.19646 3.82737e-05 0)
(0.196424 2.8499e-05 0)
(0.196392 1.95807e-05 0)
(0.196365 1.17335e-05 0)
(0.196343 5.05082e-06 0)
(0.196325 -5.54529e-07 0)
(0.19631 -5.30609e-06 0)
(0.196298 -9.37175e-06 0)
(0.196288 -1.27156e-05 0)
(0.196282 -1.52138e-05 0)
(0.196279 -1.66779e-05 0)
(0.196278 -1.69879e-05 0)
(0.19628 -1.61558e-05 0)
(0.196283 -1.43948e-05 0)
(0.196288 -1.20165e-05 0)
(0.196292 -9.35199e-06 0)
(0.196296 -6.73651e-06 0)
(0.196299 -4.34347e-06 0)
(0.196301 -2.37346e-06 0)
(0.196302 -8.52571e-07 0)
(0.196302 1.92594e-07 0)
(0.196301 8.34973e-07 0)
(0.1963 1.15827e-06 0)
(0.196299 1.25681e-06 0)
(0.196297 1.20374e-06 0)
(0.196296 1.07673e-06 0)
(0.196295 9.05909e-07 0)
(0.196294 7.38527e-07 0)
(0.196293 5.76301e-07 0)
(0.196292 4.4457e-07 0)
(0.196292 3.28075e-07 0)
(0.196291 2.43031e-07 0)
(0.196291 1.72268e-07 0)
(0.196291 1.20105e-07 0)
(0.196291 8.03789e-08 0)
(0.196291 5.99254e-08 0)
(0.197143 0.00626259 0)
(0.197306 0.00691961 0)
(0.197605 0.00752883 0)
(0.198027 0.00803309 0)
(0.19854 0.00837388 0)
(0.199113 0.00852907 0)
(0.199703 0.00851568 0)
(0.200243 0.00837018 0)
(0.200675 0.00813069 0)
(0.200988 0.00782876 0)
(0.201205 0.00749272 0)
(0.201342 0.00714986 0)
(0.201398 0.00681559 0)
(0.201388 0.00649485 0)
(0.20135 0.00619777 0)
(0.201308 0.00593478 0)
(0.201263 0.00569943 0)
(0.201217 0.00547641 0)
(0.201176 0.00525955 0)
(0.201146 0.00504965 0)
(0.201115 0.00484406 0)
(0.201068 0.00464096 0)
(0.201017 0.00444885 0)
(0.200981 0.0042775 0)
(0.200945 0.00412002 0)
(0.200904 0.00395955 0)
(0.200868 0.00379215 0)
(0.200833 0.00362731 0)
(0.200792 0.00347145 0)
(0.200755 0.00332354 0)
(0.200725 0.00317874 0)
(0.200692 0.00303143 0)
(0.200657 0.00288158 0)
(0.200625 0.00273432 0)
(0.200592 0.00259092 0)
(0.200556 0.00244802 0)
(0.200522 0.00230434 0)
(0.200486 0.00216074 0)
(0.200447 0.00201753 0)
(0.200407 0.00187553 0)
(0.200366 0.00173551 0)
(0.200321 0.0015969 0)
(0.200274 0.00145992 0)
(0.200225 0.00132604 0)
(0.200173 0.00119587 0)
(0.200117 0.00106996 0)
(0.20006 0.000950252 0)
(0.2 0.000837944 0)
(0.199936 0.000732741 0)
(0.199871 0.000635299 0)
(0.199806 0.000547407 0)
(0.199741 0.000469518 0)
(0.199676 0.000400692 0)
(0.199613 0.000340485 0)
(0.199554 0.000289095 0)
(0.199499 0.00024612 0)
(0.199448 0.000210164 0)
(0.199402 0.000179743 0)
(0.199361 0.000153714 0)
(0.199324 0.000131251 0)
(0.199291 0.000111831 0)
(0.199263 9.5021e-05 0)
(0.199237 8.02344e-05 0)
(0.199215 6.6908e-05 0)
(0.199195 5.44941e-05 0)
(0.199177 4.28472e-05 0)
(0.199162 3.20373e-05 0)
(0.199148 2.23916e-05 0)
(0.199136 1.41009e-05 0)
(0.199126 7.10676e-06 0)
(0.199117 1.26943e-06 0)
(0.19911 -3.71521e-06 0)
(0.199103 -7.98281e-06 0)
(0.199098 -1.15064e-05 0)
(0.199094 -1.4104e-05 0)
(0.19909 -1.5578e-05 0)
(0.199088 -1.57802e-05 0)
(0.199086 -1.4743e-05 0)
(0.199085 -1.27283e-05 0)
(0.199084 -1.0077e-05 0)
(0.199084 -7.23611e-06 0)
(0.199082 -4.52248e-06 0)
(0.199081 -2.22951e-06 0)
(0.199079 -4.31536e-07 0)
(0.199077 8.49389e-07 0)
(0.199075 1.65178e-06 0)
(0.199073 2.05916e-06 0)
(0.19907 2.16682e-06 0)
(0.199068 2.06845e-06 0)
(0.199066 1.85851e-06 0)
(0.199065 1.58459e-06 0)
(0.199063 1.30842e-06 0)
(0.199062 1.04267e-06 0)
(0.199061 8.14134e-07 0)
(0.199061 6.19724e-07 0)
(0.19906 4.62896e-07 0)
(0.19906 3.42955e-07 0)
(0.199059 2.41467e-07 0)
(0.199059 1.79847e-07 0)
(0.199059 1.21681e-07 0)
(0.19773 0.00608975 0)
(0.197866 0.00663521 0)
(0.1981 0.007142 0)
(0.198411 0.00757135 0)
(0.19878 0.00788442 0)
(0.199204 0.00806156 0)
(0.199659 0.00810455 0)
(0.200088 0.00803029 0)
(0.200439 0.00786238 0)
(0.200703 0.00762611 0)
(0.200899 0.00734994 0)
(0.201035 0.00705922 0)
(0.201099 0.0067666 0)
(0.201105 0.00647747 0)
(0.201089 0.00620092 0)
(0.201069 0.005948 0)
(0.20104 0.0057182 0)
(0.201005 0.00549749 0)
(0.200977 0.00528011 0)
(0.200961 0.00507341 0)
(0.200942 0.00487419 0)
(0.200908 0.00467368 0)
(0.200873 0.00448109 0)
(0.200848 0.00430745 0)
(0.200821 0.00414408 0)
(0.200793 0.00397962 0)
(0.200773 0.00381415 0)
(0.200753 0.00365052 0)
(0.200724 0.00349185 0)
(0.200701 0.00334127 0)
(0.200687 0.0031946 0)
(0.20067 0.0030455 0)
(0.200653 0.00289534 0)
(0.20064 0.00274802 0)
(0.200625 0.00260317 0)
(0.200609 0.0024595 0)
(0.200597 0.00231668 0)
(0.200583 0.00217378 0)
(0.200567 0.00203099 0)
(0.200551 0.00188992 0)
(0.200535 0.00175087 0)
(0.200516 0.00161328 0)
(0.200495 0.0014779 0)
(0.200473 0.00134591 0)
(0.200448 0.0012176 0)
(0.20042 0.00109379 0)
(0.200392 0.000976103 0)
(0.20036 0.000865161 0)
(0.200325 0.000760833 0)
(0.200287 0.000664286 0)
(0.20025 0.000577142 0)
(0.200212 0.000499475 0)
(0.200173 0.000430194 0)
(0.200135 0.000368969 0)
(0.2001 0.000315933 0)
(0.200067 0.000270766 0)
(0.200037 0.000232366 0)
(0.20001 0.000199449 0)
(0.199986 0.000170953 0)
(0.199966 0.000146141 0)
(0.199948 0.000124534 0)
(0.199933 0.000105769 0)
(0.199921 8.93994e-05 0)
(0.19991 7.48399e-05 0)
(0.199901 6.14645e-05 0)
(0.199893 4.90216e-05 0)
(0.199886 3.75047e-05 0)
(0.19988 2.71956e-05 0)
(0.199874 1.82691e-05 0)
(0.19987 1.06801e-05 0)
(0.199866 4.35148e-06 0)
(0.199862 -1.02182e-06 0)
(0.199859 -5.48813e-06 0)
(0.199856 -9.06288e-06 0)
(0.199853 -1.1657e-05 0)
(0.19985 -1.31425e-05 0)
(0.199848 -1.346e-05 0)
(0.199845 -1.26469e-05 0)
(0.199842 -1.08838e-05 0)
(0.199838 -8.47742e-06 0)
(0.199835 -5.77047e-06 0)
(0.199831 -3.02948e-06 0)
(0.199827 -6.52523e-07 0)
(0.199823 1.18229e-06 0)
(0.199819 2.44978e-06 0)
(0.199816 3.18451e-06 0)
(0.199812 3.48222e-06 0)
(0.199809 3.44668e-06 0)
(0.199807 3.18612e-06 0)
(0.199804 2.80809e-06 0)
(0.199802 2.37167e-06 0)
(0.199801 1.9439e-06 0)
(0.199799 1.54834e-06 0)
(0.199798 1.20372e-06 0)
(0.199798 9.20834e-07 0)
(0.199797 6.84645e-07 0)
(0.199797 5.12836e-07 0)
(0.199796 3.59236e-07 0)
(0.199796 2.77296e-07 0)
(0.199796 1.7592e-07 0)
(0.198293 0.00595071 0)
(0.198399 0.00641406 0)
(0.198574 0.00684222 0)
(0.198792 0.00720984 0)
(0.199042 0.00749268 0)
(0.199336 0.00767373 0)
(0.199667 0.00774717 0)
(0.199986 0.00772044 0)
(0.200249 0.00760881 0)
(0.200453 0.00742943 0)
(0.200617 0.0072049 0)
(0.200738 0.00695737 0)
(0.200799 0.00669916 0)
(0.200811 0.00643916 0)
(0.200809 0.00618591 0)
(0.200806 0.00594514 0)
(0.200791 0.00571997 0)
(0.200763 0.00550479 0)
(0.200743 0.00529256 0)
(0.200739 0.0050882 0)
(0.200727 0.00489317 0)
(0.2007 0.00469892 0)
(0.200678 0.00450898 0)
(0.200666 0.00433306 0)
(0.200644 0.00416552 0)
(0.200621 0.00399834 0)
(0.200611 0.00383335 0)
(0.200598 0.0036712 0)
(0.200575 0.00351162 0)
(0.20056 0.00335803 0)
(0.200552 0.00320868 0)
(0.20054 0.00305833 0)
(0.200529 0.00290792 0)
(0.200522 0.00276029 0)
(0.200513 0.00261433 0)
(0.200503 0.00246949 0)
(0.200497 0.00232643 0)
(0.200489 0.00218401 0)
(0.200479 0.0020419 0)
(0.20047 0.00190171 0)
(0.200462 0.00176375 0)
(0.20045 0.001627 0)
(0.200438 0.00149225 0)
(0.200426 0.00136127 0)
(0.20041 0.00123461 0)
(0.200392 0.00111261 0)
(0.200375 0.000996339 0)
(0.200355 0.000886585 0)
(0.200331 0.000783687 0)
(0.200306 0.000688346 0)
(0.200282 0.000601449 0)
(0.200257 0.000523067 0)
(0.200231 0.000452852 0)
(0.200205 0.000390597 0)
(0.200182 0.000336187 0)
(0.20016 0.000289205 0)
(0.20014 0.000248818 0)
(0.200122 0.000213915 0)
(0.200107 0.000183437 0)
(0.200094 0.00015675 0)
(0.200083 0.000133447 0)
(0.200074 0.000113101 0)
(0.200066 9.53143e-05 0)
(0.200061 7.95164e-05 0)
(0.200056 6.52357e-05 0)
(0.200052 5.20871e-05 0)
(0.200049 4.01306e-05 0)
(0.200047 2.94573e-05 0)
(0.200044 2.01672e-05 0)
(0.200042 1.22625e-05 0)
(0.200041 5.52048e-06 0)
(0.200039 -1.62977e-07 0)
(0.200038 -4.9136e-06 0)
(0.200038 -8.67316e-06 0)
(0.200037 -1.12376e-05 0)
(0.200035 -1.24121e-05 0)
(0.200033 -1.21683e-05 0)
(0.20003 -1.06395e-05 0)
(0.200026 -8.20364e-06 0)
(0.200022 -5.29984e-06 0)
(0.200018 -2.33674e-06 0)
(0.200013 4.2336e-07 0)
(0.200007 2.78076e-06 0)
(0.200002 4.54486e-06 0)
(0.199997 5.65967e-06 0)
(0.199993 6.16473e-06 0)
(0.199988 6.17851e-06 0)
(0.199985 5.82816e-06 0)
(0.199982 5.24143e-06 0)
(0.199979 4.54328e-06 0)
(0.199977 3.81076e-06 0)
(0.199975 3.111e-06 0)
(0.199974 2.48583e-06 0)
(0.199973 1.93766e-06 0)
(0.199972 1.49675e-06 0)
(0.199971 1.12023e-06 0)
(0.199971 8.5318e-07 0)
(0.19997 6.03346e-07 0)
(0.19997 4.79333e-07 0)
(0.19997 3.00119e-07 0)
(0.1989 0.00583688 0)
(0.198967 0.00623865 0)
(0.199079 0.00660459 0)
(0.199209 0.00691856 0)
(0.199348 0.00716981 0)
(0.199518 0.00734713 0)
(0.199721 0.00743887 0)
(0.199923 0.0074428 0)
(0.200088 0.00737064 0)
(0.200216 0.00723874 0)
(0.200328 0.00706084 0)
(0.20042 0.00684978 0)
(0.200468 0.00661982 0)
(0.20048 0.00638557 0)
(0.200485 0.00615484 0)
(0.200492 0.00592794 0)
(0.20049 0.00570711 0)
(0.200472 0.00549632 0)
(0.200459 0.00529361 0)
(0.200463 0.00509471 0)
(0.200461 0.0048998 0)
(0.200441 0.00471101 0)
(0.20043 0.00452836 0)
(0.20043 0.00435082 0)
(0.200416 0.00417882 0)
(0.2004 0.00401224 0)
(0.200398 0.00384814 0)
(0.200392 0.00368514 0)
(0.200377 0.00352608 0)
(0.200369 0.00337171 0)
(0.200366 0.00321908 0)
(0.200358 0.00306741 0)
(0.200352 0.00291769 0)
(0.200349 0.00276945 0)
(0.200344 0.00262263 0)
(0.200338 0.00247792 0)
(0.200335 0.00233448 0)
(0.200331 0.00219176 0)
(0.200324 0.00205078 0)
(0.20032 0.00191163 0)
(0.200316 0.00177391 0)
(0.200308 0.00163832 0)
(0.200301 0.0015056 0)
(0.200294 0.00137601 0)
(0.200284 0.00125049 0)
(0.200273 0.00113024 0)
(0.200263 0.00101551 0)
(0.200252 0.000906652 0)
(0.200237 0.000804995 0)
(0.200221 0.000711468 0)
(0.200207 0.000625744 0)
(0.200192 0.000547411 0)
(0.200175 0.000476732 0)
(0.200159 0.000413733 0)
(0.200145 0.000357943 0)
(0.200132 0.000308852 0)
(0.200119 0.00026601 0)
(0.200108 0.000228696 0)
(0.200099 0.000195922 0)
(0.200091 0.000167091 0)
(0.200085 0.000141928 0)
(0.20008 0.000120104 0)
(0.200075 0.000101048 0)
(0.200072 8.41674e-05 0)
(0.20007 6.89811e-05 0)
(0.200068 5.51371e-05 0)
(0.200067 4.26648e-05 0)
(0.200067 3.16229e-05 0)
(0.200066 2.20454e-05 0)
(0.200066 1.39127e-05 0)
(0.200066 7.04226e-06 0)
(0.200066 1.31283e-06 0)
(0.200066 -3.36838e-06 0)
(0.200067 -6.99533e-06 0)
(0.200068 -9.39946e-06 0)
(0.200068 -1.04709e-05 0)
(0.200067 -1.0141e-05 0)
(0.200066 -8.52639e-06 0)
(0.200063 -5.8787e-06 0)
(0.200058 -2.5827e-06 0)
(0.200053 7.29099e-07 0)
(0.200048 3.58369e-06 0)
(0.200042 5.82248e-06 0)
(0.200036 7.33687e-06 0)
(0.20003 8.13052e-06 0)
(0.200024 8.28031e-06 0)
(0.200019 7.93191e-06 0)
(0.200015 7.24191e-06 0)
(0.200011 6.34937e-06 0)
(0.200008 5.38714e-06 0)
(0.200006 4.43973e-06 0)
(0.200004 3.56345e-06 0)
(0.200002 2.80601e-06 0)
(0.200001 2.15488e-06 0)
(0.2 1.64068e-06 0)
(0.199999 1.21092e-06 0)
(0.199999 9.087e-07 0)
(0.199998 6.33208e-07 0)
(0.199998 4.96046e-07 0)
(0.199998 3.02334e-07 0)
(0.199572 0.0057701 0)
(0.199592 0.00613758 0)
(0.199628 0.00646698 0)
(0.199668 0.00674629 0)
(0.19971 0.0069753 0)
(0.199762 0.00714767 0)
(0.199829 0.00724715 0)
(0.199898 0.00726471 0)
(0.199955 0.00721046 0)
(0.199999 0.00710426 0)
(0.200041 0.00695566 0)
(0.200079 0.0067667 0)
(0.200101 0.00655191 0)
(0.200108 0.00633205 0)
(0.200113 0.00611498 0)
(0.200121 0.00589806 0)
(0.200125 0.00568081 0)
(0.200122 0.00547113 0)
(0.200119 0.00527499 0)
(0.200125 0.00508264 0)
(0.200129 0.00488705 0)
(0.200123 0.00470034 0)
(0.200121 0.00452541 0)
(0.200126 0.00434864 0)
(0.200123 0.00417254 0)
(0.200118 0.00400781 0)
(0.20012 0.00384625 0)
(0.200121 0.00368155 0)
(0.200116 0.0035226 0)
(0.200115 0.00336942 0)
(0.200117 0.00321478 0)
(0.200115 0.00306179 0)
(0.200114 0.00291321 0)
(0.200116 0.00276461 0)
(0.200116 0.00261658 0)
(0.200115 0.00247222 0)
(0.200116 0.00232901 0)
(0.200116 0.00218596 0)
(0.200116 0.0020458 0)
(0.200116 0.00190778 0)
(0.200116 0.0017702 0)
(0.200116 0.00163528 0)
(0.200115 0.00150414 0)
(0.200114 0.00137547 0)
(0.200112 0.00125091 0)
(0.20011 0.00113294 0)
(0.200108 0.00102048 0)
(0.200106 0.000912665 0)
(0.200103 0.000811884 0)
(0.200099 0.000719742 0)
(0.200096 0.000635006 0)
(0.200092 0.000556841 0)
(0.200087 0.000486067 0)
(0.200082 0.000423093 0)
(0.200078 0.000367125 0)
(0.200074 0.000317412 0)
(0.200071 0.000273633 0)
(0.200068 0.000235253 0)
(0.200065 0.000201514 0)
(0.200063 0.000171732 0)
(0.200062 0.000145514 0)
(0.200061 0.00012255 0)
(0.20006 0.000102364 0)
(0.200061 8.43728e-05 0)
(0.200061 6.81729e-05 0)
(0.200062 5.36975e-05 0)
(0.200063 4.08751e-05 0)
(0.200064 2.96887e-05 0)
(0.200065 2.00335e-05 0)
(0.200067 1.16551e-05 0)
(0.200068 4.36736e-06 0)
(0.20007 -1.89599e-06 0)
(0.200072 -6.98933e-06 0)
(0.200074 -1.055e-05 0)
(0.200075 -1.22461e-05 0)
(0.200076 -1.18836e-05 0)
(0.200076 -9.59168e-06 0)
(0.200075 -5.74242e-06 0)
(0.200073 -9.5547e-07 0)