/*--------------------------------*- C++ -*----------------------------------*\
| =========                 |                                                 |
| \\      /  F ield         | OpenFOAM: The Open Source CFD Toolbox           |
|  \\    /   O peration     | Version:  2.3.0                                 |
|   \\  /    A nd           | Web:      www.OpenFOAM.org                      |
|    \\/     M anipulation  |                                                 |
\*---------------------------------------------------------------------------*/
FoamFile
{
    version     2.0;
    format      ascii;
    class       surfaceScalarField;
    location    "0.9";
    object      phi;
}
// * * * * * * * * * * * * * * * * * * * * * * * * * * * * * * * * * * * * * //

dimensions      [0 3 -1 0 0 0 0];

internalField   nonuniform List<scalar> 
4357
(
5.05418e-08
1.71416e-09
-5.2256e-08
4.83788e-08
2.16306e-09
4.59781e-08
2.40062e-09
4.35206e-08
2.45755e-09
4.10733e-08
2.44732e-09
3.86361e-08
2.43719e-09
3.62021e-08
2.43397e-09
3.37773e-08
2.42485e-09
3.13768e-08
2.40047e-09
2.90215e-08
2.35533e-09
2.67341e-08
2.28739e-09
2.45375e-08
2.19663e-09
2.24541e-08
2.08337e-09
2.05081e-08
1.94602e-09
1.87206e-08
1.78746e-09
1.71062e-08
1.61441e-09
1.5677e-08
1.42919e-09
1.44384e-08
1.23859e-09
1.33875e-08
1.05089e-09
1.25132e-08
8.74284e-10
1.17978e-08
7.15419e-10
1.12193e-08
5.78548e-10
1.07539e-08
4.65335e-10
1.03786e-08
3.75342e-10
1.0072e-08
3.06571e-10
9.81586e-09
2.56175e-10
9.59533e-09
2.20526e-10
9.39918e-09
1.96155e-10
9.21874e-09
1.80438e-10
9.04763e-09
1.71114e-10
8.88155e-09
1.66072e-10
8.71796e-09
1.63594e-10
8.55562e-09
1.62336e-10
8.39417e-09
1.61452e-10
8.23382e-09
1.60354e-10
8.07503e-09
1.58784e-10
7.91848e-09
1.56551e-10
7.76477e-09
1.53715e-10
7.61437e-09
1.50396e-10
7.46768e-09
1.46696e-10
7.32507e-09
1.42602e-10
7.18681e-09
1.38263e-10
7.05308e-09
1.33726e-10
6.92392e-09
1.29166e-10
6.79933e-09
1.24591e-10
6.67918e-09
1.2015e-10
6.56338e-09
1.15799e-10
6.45171e-09
1.11668e-10
6.34403e-09
1.07675e-10
6.24009e-09
1.03946e-10
6.13973e-09
1.00362e-10
6.04267e-09
9.70552e-11
5.9488e-09
9.38748e-11
5.85783e-09
9.09676e-11
5.76968e-09
8.8153e-11
5.68408e-09
8.56006e-11
5.60098e-09
8.30989e-11
5.52013e-09
8.08483e-11
5.44152e-09
7.86038e-11
5.36492e-09
7.66035e-11
5.29036e-09
7.45642e-11
5.21759e-09
7.27687e-11
5.1467e-09
7.08895e-11
5.07744e-09
6.92622e-11
5.00993e-09
6.75063e-11
4.94391e-09
6.60192e-11
4.87955e-09
6.43578e-11
4.81656e-09
6.29912e-11
4.75516e-09
6.14018e-11
4.69502e-09
6.01432e-11
4.63641e-09
5.86087e-11
4.57896e-09
5.74509e-11
4.523e-09
5.5957e-11
4.4681e-09
5.4897e-11
4.41467e-09
5.343e-11
4.36221e-09
5.24661e-11
4.3112e-09
5.10083e-11
4.26107e-09
5.01333e-11
4.21241e-09
4.86521e-11
4.16458e-09
4.78385e-11
4.1183e-09
4.6274e-11
4.07282e-09
4.5482e-11
4.02901e-09
4.38051e-11
3.98588e-09
4.3134e-11
3.9443e-09
4.15832e-11
3.90281e-09
4.14822e-11
3.86233e-09
4.04808e-11
3.82125e-09
4.10878e-11
3.78111e-09
4.01382e-11
3.74055e-09
4.05627e-11
3.70171e-09
3.88308e-11
3.66285e-09
3.88683e-11
3.62639e-09
3.64547e-11
3.58995e-09
3.64438e-11
3.55638e-09
3.3564e-11
3.52242e-09
3.39596e-11
3.49135e-09
3.10707e-11
3.4583e-09
3.30515e-11
3.42694e-09
3.13646e-11
4.14043e-11
5.75541e-08
1.68201e-09
-5.75219e-08
5.75788e-08
2.13836e-09
5.74362e-08
2.54317e-09
5.70946e-08
2.79917e-09
5.66143e-08
2.92761e-09
5.60456e-08
3.00585e-09
5.53996e-08
3.07996e-09
5.46657e-08
3.15884e-09
5.38366e-08
3.22949e-09
5.29159e-08
3.27607e-09
5.19135e-08
3.28982e-09
5.08412e-08
3.26888e-09
4.97108e-08
3.21383e-09
4.85318e-08
3.12502e-09
4.73146e-08
3.00461e-09
4.60731e-08
2.85589e-09
4.48199e-08
2.68241e-09
4.3568e-08
2.49047e-09
4.23302e-08
2.28867e-09
4.1118e-08
2.08649e-09
3.99407e-08
1.89271e-09
3.88051e-08
1.7142e-09
3.77152e-08
1.55522e-09
3.6673e-08
1.41758e-09
3.56786e-08
1.30099e-09
3.47298e-08
1.20489e-09
3.3825e-08
1.12536e-09
3.29634e-08
1.0578e-09
3.2142e-08
1.00178e-09
3.13581e-08
9.55075e-10
3.06088e-08
9.1536e-10
2.98916e-08
8.80723e-10
2.92045e-08
8.495e-10
2.85453e-08
8.20619e-10
2.79125e-08
7.93195e-10
2.73044e-08
7.66825e-10
2.672e-08
7.41001e-10
2.61582e-08
7.15475e-10
2.56178e-08
6.90852e-10
2.50976e-08
6.66894e-10
2.45967e-08
6.43432e-10
2.41144e-08
6.20636e-10
2.36496e-08
5.98462e-10
2.32017e-08
5.77133e-10
2.27697e-08
5.56571e-10
2.23529e-08
5.3698e-10
2.19504e-08
5.1822e-10
2.15616e-08
5.00484e-10
2.11857e-08
4.8357e-10
2.0822e-08
4.67677e-10
2.04698e-08
4.52548e-10
2.01285e-08
4.38395e-10
1.97974e-08
4.24911e-10
1.94761e-08
4.12333e-10
1.91639e-08
4.00307e-10
1.88604e-08
3.89107e-10
1.85652e-08
3.78334e-10
1.82777e-08
3.68314e-10
1.79977e-08
3.58597e-10
1.77247e-08
3.49571e-10
1.74586e-08
3.40731e-10
1.71988e-08
3.32538e-10
1.69453e-08
3.24422e-10
1.66976e-08
3.1693e-10
1.64557e-08
3.09414e-10
1.62192e-08
3.02517e-10
1.59881e-08
2.95501e-10
1.57619e-08
2.89119e-10
1.55408e-08
2.82526e-10
1.53243e-08
2.76598e-10
1.51126e-08
2.70368e-10
1.49052e-08
2.64851e-10
1.47022e-08
2.58934e-10
1.45033e-08
2.53797e-10
1.43086e-08
2.48148e-10
1.41177e-08
2.43364e-10
1.39308e-08
2.37938e-10
1.37474e-08
2.33469e-10
1.35679e-08
2.28193e-10
1.33918e-08
2.23965e-10
1.32193e-08
2.18712e-10
1.30502e-08
2.14616e-10
1.28847e-08
2.09315e-10
1.27223e-08
2.05525e-10
1.25632e-08
2.00684e-10
1.24065e-08
1.98149e-10
1.22523e-08
1.94717e-10
1.20997e-08
1.93722e-10
1.19492e-08
1.90608e-10
1.18006e-08
1.89158e-10
1.16548e-08
1.84646e-10
1.15112e-08
1.82415e-10
1.13707e-08
1.76931e-10
1.12326e-08
1.7464e-10
1.10975e-08
1.68635e-10
1.09644e-08
1.67075e-10
1.08339e-08
1.61516e-10
1.07039e-08
1.63068e-10
1.05739e-08
1.61382e-10
1.75622e-10
6.25017e-08
1.79984e-09
-6.26195e-08
6.25161e-08
2.12389e-09
6.26046e-08
2.45471e-09
6.26491e-08
2.75462e-09
6.26322e-08
2.94453e-09
6.25773e-08
3.06077e-09
6.25041e-08
3.15313e-09
6.24142e-08
3.24871e-09
6.22988e-08
3.34497e-09
6.21468e-08
3.42806e-09
6.19513e-08
3.48532e-09
6.17088e-08
3.51133e-09
6.14165e-08
3.50613e-09
6.10712e-08
3.47039e-09
6.06712e-08
3.40459e-09
6.02171e-08
3.30996e-09
5.97103e-08
3.18922e-09
5.91538e-08
3.04697e-09
5.85528e-08
2.88967e-09
5.79142e-08
2.72514e-09
5.72455e-08
2.56132e-09
5.65545e-08
2.40529e-09
5.58476e-08
2.26212e-09
5.51302e-08
2.1349e-09
5.44066e-08
2.02461e-09
5.36807e-08
1.93079e-09
5.29549e-08
1.85113e-09
5.22297e-08
1.78307e-09
5.15064e-08
1.72508e-09
5.07859e-08
1.67556e-09
5.00687e-08
1.63257e-09
4.9355e-08
1.59439e-09
4.86451e-08
1.55937e-09
4.79393e-08
1.52642e-09
4.7238e-08
1.49458e-09
4.65414e-08
1.46335e-09
4.58502e-08
1.43222e-09
4.51645e-08
1.40114e-09
4.44852e-08
1.37017e-09
4.38128e-08
1.33936e-09
4.31477e-08
1.30853e-09
4.24904e-08
1.27787e-09
4.18416e-08
1.24734e-09
4.12015e-08
1.2172e-09
4.05706e-08
1.18742e-09
3.99494e-08
1.15826e-09
3.93379e-08
1.12965e-09
3.87366e-08
1.10182e-09
3.81455e-08
1.07463e-09
3.75649e-08
1.04833e-09
3.69947e-08
1.02271e-09
3.64351e-08
9.98026e-10
3.5886e-08
9.74028e-10
3.53473e-08
9.50957e-10
3.48191e-08
9.28539e-10
3.43012e-08
9.0702e-10
3.37934e-08
8.86097e-10
3.32957e-08
8.66032e-10
3.28078e-08
8.46492e-10
3.23296e-08
8.27764e-10
3.18609e-08
8.09488e-10
3.14014e-08
7.9198e-10
3.0951e-08
7.74853e-10
3.05095e-08
7.58452e-10
3.00765e-08
7.42368e-10
2.96521e-08
7.26973e-10
2.92357e-08
7.11836e-10
2.88275e-08
6.97357e-10
2.84269e-08
6.83084e-10
2.80341e-08
6.69443e-10
2.76485e-08
6.55961e-10
2.72703e-08
6.43087e-10
2.68989e-08
6.30332e-10
2.65345e-08
6.18162e-10
2.61766e-08
6.06073e-10
2.58254e-08
5.94547e-10
2.54803e-08
5.83057e-10
2.51416e-08
5.72094e-10
2.48087e-08
5.61103e-10
2.44821e-08
5.50558e-10
2.4161e-08
5.39875e-10
2.38461e-08
5.29527e-10
2.35364e-08
5.1903e-10
2.32328e-08
5.09076e-10
2.29339e-08
4.99596e-10
2.26404e-08
4.91595e-10
2.23503e-08
4.84839e-10
2.20647e-08
4.7932e-10
2.17818e-08
4.73486e-10
2.15041e-08
4.66929e-10
2.12295e-08
4.59213e-10
2.09607e-08
4.51173e-10
2.06951e-08
4.42535e-10
2.04356e-08
4.34178e-10
2.01788e-08
4.25404e-10
1.99281e-08
4.17821e-10
1.96791e-08
4.10553e-10
1.9435e-08
4.07154e-10
1.91887e-08
4.07641e-10
4.20616e-10
6.77834e-08
1.92211e-09
-6.79056e-08
6.77317e-08
2.17558e-09
6.77506e-08
2.43579e-09
6.78036e-08
2.7016e-09
6.78469e-08
2.90124e-09
6.78642e-08
3.04347e-09
6.7869e-08
3.14831e-09
6.78797e-08
3.23801e-09
6.78984e-08
3.32625e-09
6.7918e-08
3.40854e-09
6.79297e-08
3.4736e-09
6.79264e-08
3.51459e-09
6.79028e-08
3.52976e-09
6.78541e-08
3.51911e-09
6.77758e-08
3.48282e-09
6.7664e-08
3.42177e-09
6.75152e-08
3.33805e-09
6.73272e-08
3.23499e-09
6.70996e-08
3.11723e-09
6.68341e-08
2.99061e-09
6.6534e-08
2.86142e-09
6.62037e-08
2.73565e-09
6.58477e-08
2.61807e-09
6.54707e-08
2.51189e-09
6.50767e-08
2.41859e-09
6.46693e-08
2.3382e-09
6.42507e-08
2.26979e-09
6.38218e-08
2.21194e-09
6.33839e-08
2.163e-09
6.29379e-08
2.12153e-09
6.24845e-08
2.08602e-09
6.20238e-08
2.05505e-09
6.15559e-08
2.02726e-09
6.10808e-08
2.00156e-09
6.05983e-08
1.97705e-09
6.01085e-08
1.95311e-09
5.96115e-08
1.9293e-09
5.91072e-08
1.90541e-09
5.85961e-08
1.8813e-09
5.80785e-08
1.85695e-09
5.75547e-08
1.8323e-09
5.70252e-08
1.80738e-09
5.64903e-08
1.78222e-09
5.59506e-08
1.75691e-09
5.54065e-08
1.73153e-09
5.48586e-08
1.70619e-09
5.43072e-08
1.68097e-09
5.37532e-08
1.65592e-09
5.31967e-08
1.63112e-09
5.26384e-08
1.60659e-09
5.20787e-08
1.5824e-09
5.15182e-08
1.55851e-09
5.09572e-08
1.53504e-09
5.03963e-08
1.51185e-09
4.98357e-08
1.48911e-09
4.92761e-08
1.46663e-09
4.87176e-08
1.44462e-09
4.81608e-08
1.4228e-09
4.76059e-08
1.40148e-09
4.70533e-08
1.38028e-09
4.65032e-08
1.3596e-09
4.59562e-08
1.33896e-09
4.54122e-08
1.31889e-09
4.48719e-08
1.29877e-09
4.4335e-08
1.27927e-09
4.38023e-08
1.25962e-09
4.32735e-08
1.24068e-09
4.27494e-08
1.22147e-09
4.22294e-08
1.20309e-09
4.17145e-08
1.18429e-09
4.1204e-08
1.16647e-09
4.0699e-08
1.14808e-09
4.01985e-08
1.13082e-09
3.97039e-08
1.11281e-09
3.92138e-08
1.09614e-09
3.87299e-08
1.07848e-09
3.82505e-08
1.06241e-09
3.77776e-08
1.04504e-09
3.73092e-08
1.02951e-09
3.68475e-08
1.01228e-09
3.63902e-08
9.97106e-10
3.59401e-08
9.79679e-10
3.54944e-08
9.64689e-10
3.50563e-08
9.47245e-10
3.46222e-08
9.33664e-10
3.41952e-08
9.18635e-10
3.37706e-08
9.09423e-10
3.33519e-08
8.97954e-10
3.2935e-08
8.90465e-10
3.25251e-08
8.76749e-10
3.21178e-08
8.66553e-10
3.17189e-08
8.5009e-10
3.13224e-08
8.39025e-10
3.09349e-08
8.21666e-10
3.05493e-08
8.11002e-10
3.01731e-08
7.94039e-10
2.97976e-08
7.86036e-10
2.94311e-08
7.73702e-10
2.90604e-08
7.78255e-10
7.85798e-10
7.34569e-08
2.04575e-09
-7.35805e-08
7.33752e-08
2.2572e-09
7.33436e-08
2.46744e-09
7.33613e-08
2.68393e-09
7.33896e-08
2.87294e-09
7.3409e-08
3.02408e-09
7.34178e-08
3.13946e-09
7.34266e-08
3.22925e-09
7.34423e-08
3.31057e-09
7.34662e-08
3.38461e-09
7.34931e-08
3.44668e-09
7.35162e-08
3.49154e-09
7.35302e-08
3.51575e-09
7.35313e-08
3.51796e-09
7.3516e-08
3.4981e-09
7.34807e-08
3.45706e-09
7.34222e-08
3.39662e-09
7.33377e-08
3.31944e-09
7.32259e-08
3.22908e-09
7.30866e-08
3.12993e-09
7.29211e-08
3.02689e-09
7.2732e-08
2.92472e-09
7.25226e-08
2.82747e-09
7.22964e-08
2.73807e-09
7.20568e-08
2.65826e-09
7.18063e-08
2.58862e-09
7.15471e-08
2.52901e-09
7.12805e-08
2.47854e-09
7.10075e-08
2.43606e-09
7.07288e-08
2.40024e-09
7.04448e-08
2.36998e-09
7.01558e-08
2.34405e-09
6.98615e-08
2.32153e-09
6.95618e-08
2.30132e-09
6.9256e-08
2.28279e-09
6.8944e-08
2.26515e-09
6.86251e-08
2.24815e-09
6.82993e-08
2.23125e-09
6.79661e-08
2.2145e-09
6.76255e-08
2.19752e-09
6.72773e-08
2.18057e-09
6.69213e-08
2.16329e-09
6.65575e-08
2.14603e-09
6.6186e-08
2.12843e-09
6.58066e-08
2.11096e-09
6.54196e-08
2.09319e-09
6.50248e-08
2.07572e-09
6.46227e-08
2.058e-09
6.42132e-08
2.04072e-09
6.37966e-08
2.02318e-09
6.33728e-08
2.0062e-09
6.29424e-08
1.98892e-09
6.25051e-08
1.9723e-09
6.20617e-08
1.95528e-09
6.16118e-08
1.93902e-09
6.11562e-08
1.92222e-09
6.06945e-08
1.90628e-09
6.02277e-08
1.88963e-09
5.97552e-08
1.87394e-09
5.92782e-08
1.85735e-09
5.87959e-08
1.84186e-09
5.83096e-08
1.82525e-09
5.78186e-08
1.8099e-09
5.73242e-08
1.79317e-09
5.68255e-08
1.77792e-09
5.63242e-08
1.76102e-09
5.5819e-08
1.74584e-09
5.53118e-08
1.72869e-09
5.48013e-08
1.71358e-09
5.42894e-08
1.69614e-09
5.37748e-08
1.68113e-09
5.32595e-08
1.66336e-09
5.27419e-08
1.64846e-09
5.22243e-08
1.63033e-09
5.17049e-08
1.61559e-09
5.11863e-08
1.59706e-09
5.06662e-08
1.58253e-09
5.01477e-08
1.56354e-09
4.9628e-08
1.54921e-09
4.91107e-08
1.52955e-09
4.85926e-08
1.51521e-09
4.80779e-08
1.4944e-09
4.75629e-08
1.47969e-09
4.70525e-08
1.45765e-09
4.65421e-08
1.44402e-09
4.60364e-08
1.42436e-09
4.55289e-08
1.41693e-09
4.50244e-08
1.40248e-09
4.45169e-08
1.398e-09
4.40143e-08
1.37926e-09
4.35111e-08
1.36975e-09
4.30156e-08
1.34562e-09
4.252e-08
1.33465e-09
4.2033e-08
1.30869e-09
4.15455e-08
1.2985e-09
4.10674e-08
1.2721e-09
4.0588e-08
1.26545e-09
4.01189e-08
1.2428e-09
3.96442e-08
1.25296e-09
1.2553e-09
7.95707e-08
2.17409e-09
-7.96991e-08
7.94727e-08
2.35516e-09
7.94104e-08
2.5298e-09
7.93881e-08
2.70616e-09
7.93872e-08
2.87385e-09
7.93909e-08
3.02037e-09
7.93917e-08
3.13871e-09
7.93876e-08
3.23338e-09
7.93851e-08
3.31307e-09
7.93878e-08
3.38185e-09
7.93944e-08
3.44005e-09
7.94006e-08
3.48536e-09
7.94015e-08
3.51486e-09
7.93932e-08
3.52631e-09
7.93723e-08
3.51899e-09
7.9336e-08
3.49332e-09
7.92818e-08
3.45081e-09
7.92077e-08
3.39353e-09
7.91124e-08
3.32443e-09
7.89955e-08
3.2468e-09
7.88579e-08
3.16455e-09
7.87013e-08
3.08126e-09
7.85284e-08
3.00042e-09
7.8342e-08
2.92445e-09
7.81449e-08
2.85536e-09
7.79396e-08
2.79389e-09
7.77281e-08
2.74051e-09
7.75121e-08
2.69459e-09
7.72925e-08
2.65566e-09
7.70702e-08
2.62247e-09
7.68458e-08
2.59447e-09
7.66194e-08
2.57038e-09
7.63911e-08
2.54982e-09
7.61609e-08
2.53158e-09
7.59281e-08
2.51552e-09
7.56928e-08
2.50051e-09
7.54542e-08
2.48675e-09
7.52122e-08
2.47323e-09
7.49662e-08
2.46047e-09
7.47162e-08
2.44752e-09
7.44616e-08
2.43522e-09
7.42024e-08
2.42251e-09
7.39379e-08
2.41046e-09
7.36685e-08
2.39789e-09
7.33934e-08
2.38608e-09
7.31129e-08
2.37367e-09
7.28264e-08
2.36219e-09
7.25344e-08
2.35005e-09
7.22361e-08
2.33902e-09
7.1932e-08
2.32723e-09
7.16215e-08
2.31674e-09
7.13051e-08
2.30533e-09
7.0982e-08
2.29538e-09
7.06529e-08
2.28431e-09
7.03171e-08
2.27489e-09
6.99752e-08
2.26409e-09
6.96264e-08
2.25512e-09
6.92715e-08
2.24448e-09
6.89096e-08
2.23589e-09
6.85416e-08
2.22528e-09
6.81665e-08
2.21698e-09
6.77855e-08
2.20626e-09
6.73972e-08
2.19816e-09
6.70032e-08
2.1872e-09
6.66019e-08
2.17923e-09
6.6195e-08
2.16789e-09
6.57809e-08
2.15999e-09
6.53614e-08
2.14817e-09
6.49347e-08
2.14029e-09
6.4503e-08
2.12787e-09
6.40641e-08
2.12e-09
6.36206e-08
2.10688e-09
6.317e-08
2.09901e-09
6.27152e-08
2.0851e-09
6.22536e-08
2.07724e-09
6.17882e-08
2.06245e-09
6.13161e-08
2.05461e-09
6.08409e-08
2.03882e-09
6.03591e-08
2.03097e-09
5.98747e-08
2.01391e-09
5.93842e-08
2.00578e-09
5.88918e-08
1.98676e-09
5.83939e-08
1.97756e-09
5.78958e-08
1.95577e-09
5.73934e-08
1.94639e-09
5.68916e-08
1.92623e-09
5.63834e-08
1.92507e-09
5.58718e-08
1.91408e-09
5.535e-08
1.91984e-09
5.48261e-08
1.90316e-09
5.42971e-08
1.89871e-09
5.37719e-08
1.87087e-09
5.32439e-08
1.86264e-09
5.27204e-08
1.83215e-09
5.2194e-08
1.82492e-09
5.16722e-08
1.79389e-09
5.11465e-08
1.79114e-09
5.06276e-08
1.76175e-09
5.01059e-08
1.77469e-09
1.77715e-09
8.61668e-08
2.30874e-09
-8.63014e-08
8.60552e-08
2.46676e-09
8.59702e-08
2.61474e-09
8.59131e-08
2.76333e-09
8.58791e-08
2.90777e-09
8.58585e-08
3.04099e-09
8.58404e-08
3.15683e-09
8.58201e-08
3.25366e-09
8.57991e-08
3.33411e-09
8.57795e-08
3.40143e-09
8.57618e-08
3.45772e-09
8.57443e-08
3.5029e-09
8.57234e-08
3.53573e-09
8.56955e-08
3.55427e-09
8.5657e-08
3.55752e-09
8.56051e-08
3.54514e-09
8.55377e-08
3.51824e-09
8.5453e-08
3.47819e-09
8.535e-08
3.4275e-09
8.52283e-08
3.36847e-09
8.50885e-08
3.30435e-09
8.49321e-08
3.23768e-09
8.47609e-08
3.17158e-09
8.45775e-08
3.10789e-09
8.4384e-08
3.04883e-09
8.41829e-08
2.99496e-09
8.39761e-08
2.94736e-09
8.37653e-08
2.90539e-09
8.35516e-08
2.86937e-09
8.33361e-08
2.83799e-09
8.31192e-08
2.81138e-09
8.29015e-08
2.78803e-09
8.26831e-08
2.76825e-09
8.24642e-08
2.75046e-09
8.22445e-08
2.73523e-09
8.20241e-08
2.72091e-09
8.18024e-08
2.70841e-09
8.15796e-08
2.69605e-09
8.1355e-08
2.68509e-09
8.11287e-08
2.6738e-09
8.09001e-08
2.66379e-09
8.06695e-08
2.65317e-09
8.04361e-08
2.64387e-09
8.02002e-08
2.63375e-09
7.99612e-08
2.62511e-09
7.97194e-08
2.61547e-09
7.94741e-08
2.6075e-09
7.92257e-08
2.59838e-09
7.89736e-08
2.59119e-09
7.87182e-08
2.58265e-09
7.84586e-08
2.57628e-09
7.81956e-08
2.56833e-09
7.79282e-08
2.5628e-09
7.76571e-08
2.5554e-09
7.73813e-08
2.55071e-09
7.71016e-08
2.54378e-09
7.68169e-08
2.53985e-09
7.6528e-08
2.53329e-09
7.62339e-08
2.53006e-09
7.59354e-08
2.52373e-09
7.56313e-08
2.52112e-09
7.53227e-08
2.51488e-09
7.5008e-08
2.51278e-09
7.46887e-08
2.50649e-09
7.43631e-08
2.50483e-09
7.40327e-08
2.49834e-09
7.36957e-08
2.49703e-09
7.33536e-08
2.4902e-09
7.30047e-08
2.48919e-09
7.26507e-08
2.48188e-09
7.22896e-08
2.48112e-09
7.19233e-08
2.4732e-09
7.15496e-08
2.47265e-09
7.11707e-08
2.46399e-09
7.07844e-08
2.46363e-09
7.03927e-08
2.45411e-09
6.99934e-08
2.45391e-09
6.95888e-08
2.44338e-09
6.91765e-08
2.44326e-09
6.8759e-08
2.43144e-09
6.83337e-08
2.43107e-09
6.79033e-08
2.41716e-09
6.74656e-08
2.41532e-09
6.70238e-08
2.39754e-09
6.65769e-08
2.39331e-09
6.61287e-08
2.3744e-09
6.56748e-08
2.37897e-09
6.52117e-08
2.37717e-09
6.47318e-08
2.39978e-09
6.42399e-08
2.39504e-09
6.37408e-08
2.39779e-09
6.32414e-08
2.37029e-09
6.27401e-08
2.36389e-09
6.22389e-08
2.33339e-09
6.17349e-08
2.32888e-09
6.12285e-08
2.30027e-09
6.07174e-08
2.30231e-09
6.02045e-08
2.27457e-09
5.96991e-08
2.28009e-09
2.28632e-09
9.32841e-08
2.45251e-09
-9.34279e-08
9.31576e-08
2.5933e-09
9.30515e-08
2.72086e-09
9.29664e-08
2.84838e-09
9.29009e-08
2.97333e-09
9.285e-08
3.09182e-09
9.28068e-08
3.20003e-09
9.27657e-08
3.29478e-09
9.27243e-08
3.37547e-09
9.26827e-08
3.44304e-09
9.26411e-08
3.4994e-09
9.25988e-08
3.54519e-09
9.25538e-08
3.58064e-09
9.25035e-08
3.60458e-09
9.24446e-08
3.61648e-09
9.23742e-08
3.61552e-09
9.229e-08
3.60245e-09
9.21903e-08
3.57782e-09
9.20742e-08
3.54367e-09
9.19413e-08
3.50132e-09
9.17921e-08
3.45357e-09
9.16277e-08
3.40208e-09
9.14495e-08
3.34978e-09
9.12595e-08
3.29789e-09
9.10596e-08
3.24878e-09
9.08518e-08
3.20269e-09
9.0638e-08
3.16122e-09
9.04197e-08
3.12362e-09
9.01982e-08
3.09092e-09
8.99745e-08
3.06168e-09
8.97491e-08
3.03674e-09
8.95228e-08
3.01432e-09
8.92957e-08
2.99539e-09
8.90682e-08
2.978e-09
8.884e-08
2.96337e-09
8.86115e-08
2.9494e-09
8.83823e-08
2.93766e-09
8.81525e-08
2.92586e-09
8.79216e-08
2.91597e-09
8.76898e-08
2.90554e-09
8.74567e-08
2.89693e-09
8.72224e-08
2.88743e-09
8.69865e-08
2.87982e-09
8.67492e-08
2.87107e-09
8.65099e-08
2.86437e-09
8.62691e-08
2.8563e-09
8.60261e-08
2.8505e-09
8.57814e-08
2.84311e-09
8.55343e-08
2.83827e-09
8.52853e-08
2.8316e-09
8.50338e-08
2.82777e-09
8.47803e-08
2.82183e-09
8.45241e-08
2.81903e-09
8.42657e-08
2.81378e-09
8.40044e-08
2.81201e-09
8.37408e-08
2.8074e-09
8.3474e-08
2.80662e-09
8.32048e-08
2.80255e-09
8.29321e-08
2.8027e-09
8.26568e-08
2.79908e-09
8.23778e-08
2.80008e-09
8.20959e-08
2.79678e-09
8.18101e-08
2.79857e-09
8.15212e-08
2.79546e-09
8.1228e-08
2.79796e-09
8.09314e-08
2.79492e-09
8.06304e-08
2.79806e-09
8.03257e-08
2.79496e-09
8.00162e-08
2.79867e-09
7.97027e-08
2.79538e-09
7.93842e-08
2.79961e-09
7.90614e-08
2.79601e-09
7.87333e-08
2.80072e-09
7.84006e-08
2.79671e-09
7.80624e-08
2.80184e-09
7.77192e-08
2.79731e-09
7.73703e-08
2.80282e-09
7.7016e-08
2.79766e-09
7.66558e-08
2.80344e-09
7.62899e-08
2.7974e-09
7.59178e-08
2.80311e-09
7.55395e-08
2.79547e-09
7.5155e-08
2.79979e-09
7.47642e-08
2.78834e-09
7.43687e-08
2.78884e-09
7.39716e-08
2.7715e-09
7.35743e-08
2.77632e-09
7.3166e-08
2.7854e-09
7.27393e-08
2.82652e-09
7.2296e-08
2.83837e-09
7.18477e-08
2.84602e-09
7.13972e-08
2.82085e-09
7.09463e-08
2.8148e-09
7.04905e-08
2.78914e-09
7.00329e-08
2.78653e-09
6.9568e-08
2.7652e-09
6.90995e-08
2.77075e-09
6.86237e-08
2.75039e-09
6.81641e-08
2.73968e-09
2.75688e-09
1.00964e-07
2.61088e-09
-1.01122e-07
1.0082e-07
2.73736e-09
1.00693e-07
2.84743e-09
1.00583e-07
2.95822e-09
1.00489e-07
3.06783e-09
1.00407e-07
3.17326e-09
1.00335e-07
3.27205e-09
1.00268e-07
3.3615e-09
1.00204e-07
3.44038e-09
1.00139e-07
3.50802e-09
1.00073e-07
3.56533e-09
1.00005e-07
3.61263e-09
9.99351e-08
3.65074e-09
9.98606e-08
3.6791e-09
9.97791e-08
3.69793e-09
9.96882e-08
3.70644e-09
9.95853e-08
3.70536e-09
9.94686e-08
3.69451e-09
9.93371e-08
3.67515e-09
9.91907e-08
3.64777e-09
9.90294e-08
3.61487e-09
9.8854e-08
3.57742e-09
9.86657e-08
3.53815e-09
9.84658e-08
3.4977e-09
9.82561e-08
3.45851e-09
9.80383e-08
3.42049e-09
9.78139e-08
3.38561e-09
9.75845e-08
3.353e-09
9.73513e-08
3.32421e-09
9.71152e-08
3.29775e-09
9.68769e-08
3.27501e-09
9.66372e-08
3.25407e-09
9.63962e-08
3.2364e-09
9.61543e-08
3.21983e-09
9.59116e-08
3.20606e-09
9.56684e-08
3.1927e-09
9.54242e-08
3.18177e-09
9.51795e-08
3.17065e-09
9.49337e-08
3.16174e-09
9.46871e-08
3.15216e-09
9.44393e-08
3.14473e-09
9.41904e-08
3.13629e-09
9.39402e-08
3.13004e-09
9.36888e-08
3.12251e-09
9.34358e-08
3.11733e-09
9.31815e-08
3.11062e-09
9.29255e-08
3.10648e-09
9.2668e-08
3.10057e-09
9.24088e-08
3.09748e-09
9.21481e-08
3.09237e-09
9.18855e-08
3.09037e-09
9.16212e-08
3.08607e-09
9.13551e-08
3.08518e-09
9.10872e-08
3.08167e-09
9.08173e-08
3.08189e-09
9.05456e-08
3.07911e-09
9.02718e-08
3.08041e-09
8.9996e-08
3.0783e-09
8.97181e-08
3.08064e-09
8.94381e-08
3.07913e-09
8.91557e-08
3.08243e-09
8.88711e-08
3.08143e-09
8.8584e-08
3.08564e-09
8.82944e-08
3.08503e-09
8.80023e-08
3.09009e-09
8.77074e-08
3.08979e-09
8.74099e-08
3.09563e-09
8.71093e-08
3.09553e-09
8.68059e-08
3.10209e-09
8.64992e-08
3.10209e-09
8.61894e-08
3.10932e-09
8.58761e-08
3.10934e-09
8.55596e-08
3.1172e-09
8.52392e-08
3.11714e-09
8.49155e-08
3.12557e-09
8.45874e-08
3.1254e-09
8.42559e-08
3.13432e-09
8.39196e-08
3.13397e-09
8.35797e-08
3.14333e-09
8.32344e-08
3.14264e-09
8.28854e-08
3.15217e-09
8.25301e-08
3.15071e-09
8.21699e-08
3.16001e-09
8.18006e-08
3.15766e-09
8.14264e-08
3.16302e-09
8.10481e-08
3.14981e-09
8.06707e-08
3.15375e-09
8.02893e-08
3.16682e-09
7.99056e-08
3.21014e-09
7.95155e-08
3.22855e-09
7.91224e-08
3.23905e-09
7.87199e-08
3.22339e-09
7.83119e-08
3.2228e-09
7.78929e-08
3.20811e-09
7.74702e-08
3.2092e-09
7.70343e-08
3.20115e-09
7.65933e-08
3.21173e-09
7.61414e-08
3.20224e-09
7.56961e-08
3.18501e-09
3.21405e-09
1.09237e-07
2.77758e-09
-1.09404e-07
1.09083e-07
2.89175e-09
1.08938e-07
2.99242e-09
1.08804e-07
3.09208e-09
1.08682e-07
3.18983e-09
1.08571e-07
3.28411e-09
1.0847e-07
3.37375e-09
1.08374e-07
3.45678e-09
1.08282e-07
3.53227e-09
1.08191e-07
3.59898e-09
1.081e-07
3.65708e-09
1.08006e-07
3.70617e-09
1.0791e-07
3.74701e-09
1.0781e-07
3.77927e-09
1.07704e-07
3.80372e-09
1.0759e-07
3.81995e-09
1.07467e-07
3.82911e-09
1.07331e-07
3.83051e-09
1.07182e-07
3.8239e-09
1.0702e-07
3.80965e-09
1.06845e-07
3.79002e-09
1.06657e-07
3.76546e-09
1.06457e-07
3.73838e-09
1.06245e-07
3.70897e-09
1.06024e-07
3.67956e-09
1.05795e-07
3.64988e-09
1.05559e-07
3.62197e-09
1.05317e-07
3.59498e-09
1.0507e-07
3.57073e-09
1.0482e-07
3.54778e-09
1.04567e-07
3.52784e-09
1.04312e-07
3.50906e-09
1.04055e-07
3.49316e-09
1.03797e-07
3.47798e-09
1.03538e-07
3.46545e-09
1.03277e-07
3.45315e-09
1.03016e-07
3.44328e-09
1.02753e-07
3.43316e-09
1.0249e-07
3.42533e-09
1.02225e-07
3.41686e-09
1.01959e-07
3.41063e-09
1.01692e-07
3.40343e-09
1.01424e-07
3.39852e-09
1.01154e-07
3.39238e-09
1.00882e-07
3.38864e-09
1.0061e-07
3.38344e-09
1.00335e-07
3.38083e-09
1.00059e-07
3.37652e-09
9.97818e-08
3.37502e-09
9.95025e-08
3.37159e-09
9.92217e-08
3.37122e-09
9.89391e-08
3.36866e-09
9.86549e-08
3.36941e-09
9.83688e-08
3.36772e-09
9.80811e-08
3.3696e-09
9.77915e-08
3.36871e-09
9.75002e-08
3.3717e-09
9.72069e-08
3.37159e-09
9.69119e-08
3.37563e-09
9.66148e-08
3.37624e-09
9.6316e-08
3.38128e-09
9.60149e-08
3.38252e-09
9.5712e-08
3.38852e-09
9.54067e-08
3.39032e-09
9.50996e-08
3.39722e-09
9.47899e-08
3.39949e-09
9.44783e-08
3.40722e-09
9.41639e-08
3.4099e-09
9.38476e-08
3.4184e-09
9.35283e-08
3.42142e-09
9.32069e-08
3.43065e-09
9.28824e-08
3.43391e-09
9.25557e-08
3.44383e-09
9.22256e-08
3.4473e-09
9.18933e-08
3.45783e-09
9.15572e-08
3.46149e-09
9.1219e-08
3.47258e-09
9.08765e-08
3.4764e-09
9.05318e-08
3.48807e-09
9.01823e-08
3.49209e-09
8.983e-08
3.50447e-09
8.94716e-08
3.50913e-09
8.91085e-08
3.52306e-09
8.87373e-08
3.5289e-09
8.83584e-08
3.54196e-09
8.79652e-08
3.54295e-09
8.75652e-08
3.55377e-09
8.71737e-08
3.55836e-09
8.68122e-08
3.5716e-09
8.64691e-08
3.57169e-09
8.61261e-08
3.58198e-09
8.57652e-08
3.58432e-09
8.53888e-08
3.59919e-09
8.49922e-08
3.60476e-09
8.45804e-08
3.62101e-09
8.41504e-08
3.63108e-09
8.37102e-08
3.65195e-09
8.32512e-08
3.66125e-09
8.27664e-08
3.66983e-09
3.69355e-09
6.85356e-08
2.65705e-09
-6.84151e-08
6.86687e-08
2.75865e-09
6.88114e-08
2.84974e-09
6.89627e-08
2.9408e-09
6.9122e-08
3.03052e-09
6.92889e-08
3.11721e-09
6.94627e-08
3.19995e-09
6.96423e-08
3.27711e-09
6.98266e-08
3.34801e-09
7.00142e-08
3.4114e-09
7.0204e-08
3.46731e-09
7.0395e-08
3.51508e-09
7.05867e-08
3.55533e-09
7.07783e-08
3.58768e-09
7.0969e-08
3.61302e-09
7.11579e-08
3.6311e-09
7.13435e-08
3.64349e-09
7.15254e-08
3.64861e-09
7.17029e-08
3.64637e-09
7.18756e-08
3.63699e-09
7.20431e-08
3.62248e-09
7.22056e-08
3.60302e-09
7.23631e-08
3.58081e-09
7.25163e-08
3.55585e-09
7.26655e-08
3.53029e-09
7.28116e-08
3.50379e-09
7.29552e-08
3.47835e-09
7.30971e-08
3.45312e-09
7.32379e-08
3.42996e-09
7.33781e-08
3.40755e-09
7.35183e-08
3.38762e-09
7.36589e-08
3.36846e-09
7.38002e-08
3.35184e-09
7.39425e-08
3.33574e-09
7.40859e-08
3.32206e-09
7.42305e-08
3.30853e-09
7.43765e-08
3.29729e-09
7.45238e-08
3.28582e-09
7.46726e-08
3.27654e-09
7.48228e-08
3.2667e-09
7.49744e-08
3.25902e-09
7.51273e-08
3.25048e-09
7.52817e-08
3.24414e-09
7.54374e-08
3.2367e-09
7.55945e-08
3.23155e-09
7.57528e-08
3.22509e-09
7.59126e-08
3.22107e-09
7.60736e-08
3.21553e-09
7.6236e-08
3.21261e-09
7.63996e-08
3.20797e-09
7.65647e-08
3.20614e-09
7.6731e-08
3.20239e-09
7.68987e-08
3.20165e-09
7.70677e-08
3.19877e-09
7.72382e-08
3.19912e-09
7.74098e-08
3.19706e-09
7.7583e-08
3.19848e-09
7.77574e-08
3.19722e-09
7.79334e-08
3.19965e-09
7.81105e-08
3.19914e-09
7.82892e-08
3.20253e-09
7.84691e-08
3.20271e-09
7.86506e-08
3.20702e-09
7.88331e-08
3.20781e-09
7.90173e-08
3.21299e-09
7.92024e-08
3.21433e-09
7.93894e-08
3.22031e-09
7.95771e-08
3.22215e-09
7.97666e-08
3.22887e-09
7.99569e-08
3.23115e-09
8.0149e-08
3.23859e-09
8.03416e-08
3.24123e-09
8.05361e-08
3.24934e-09
8.07311e-08
3.25233e-09
8.09279e-08
3.26103e-09
8.1125e-08
3.26439e-09
8.13239e-08
3.27366e-09
8.1523e-08
3.27736e-09
8.17237e-08
3.28734e-09
8.19242e-08
3.29163e-09
8.21259e-08
3.30278e-09
8.23263e-08
3.30866e-09
8.2527e-08
3.3224e-09
8.27245e-08
3.33141e-09
8.2918e-08
3.34844e-09
8.31007e-08
3.36027e-09
8.32774e-08
3.37707e-09
8.34672e-08
3.36853e-09
8.3695e-08
3.34381e-09
8.3952e-08
3.3147e-09
8.42161e-08
3.31786e-09
8.44667e-08
3.33377e-09
8.47031e-08
3.3628e-09
8.49222e-08
3.38564e-09
8.51286e-08
3.41463e-09
8.53197e-08
3.43998e-09
8.55032e-08
3.46843e-09
8.56718e-08
3.49258e-09
8.58084e-08
3.53328e-09
3.54341e-09
7.5748e-08
2.51782e-09
-7.56088e-08
7.58946e-08
2.61207e-09
7.60488e-08
2.69552e-09
7.62111e-08
2.77857e-09
7.63809e-08
2.86067e-09
7.65579e-08
2.94026e-09
7.67413e-08
3.01653e-09
7.69303e-08
3.08805e-09
7.7124e-08
3.15434e-09
7.73212e-08
3.21423e-09
7.75208e-08
3.26768e-09
7.77219e-08
3.31393e-09
7.79238e-08
3.35345e-09
7.81257e-08
3.38581e-09
7.83268e-08
3.4119e-09
7.85263e-08
3.43164e-09
7.87231e-08
3.44662e-09
7.89173e-08
3.45443e-09
7.9108e-08
3.45571e-09
7.92946e-08
3.4504e-09
7.94768e-08
3.44024e-09
7.96546e-08
3.42523e-09
7.98281e-08
3.4073e-09
7.99976e-08
3.38634e-09
8.01636e-08
3.3643e-09
8.03266e-08
3.3408e-09
8.04873e-08
3.3177e-09
8.06461e-08
3.29425e-09
8.08039e-08
3.2722e-09
8.0961e-08
3.25043e-09
8.11181e-08
3.23058e-09
8.12753e-08
3.21118e-09
8.14333e-08
3.1939e-09
8.1592e-08
3.17697e-09
8.17519e-08
3.16216e-09
8.1913e-08
3.14746e-09
8.20755e-08
3.13482e-09
8.22393e-08
3.12202e-09
8.24046e-08
3.11121e-09
8.25713e-08
3.09999e-09
8.27396e-08
3.09072e-09
8.29093e-08
3.08081e-09
8.30806e-08
3.07287e-09
8.32532e-08
3.0641e-09
8.34274e-08
3.05734e-09
8.36029e-08
3.04958e-09
8.378e-08
3.04394e-09
8.39584e-08
3.03713e-09
8.41385e-08
3.03257e-09
8.43197e-08
3.02669e-09
8.45027e-08
3.02318e-09
8.46869e-08
3.0182e-09
8.48728e-08
3.01573e-09
8.50599e-08
3.01164e-09
8.52488e-08
3.01021e-09
8.54389e-08
3.00696e-09
8.56309e-08
3.00654e-09
8.5824e-08
3.00412e-09
8.6019e-08
3.00465e-09
8.62151e-08
3.00301e-09
8.64132e-08
3.00445e-09
8.66124e-08
3.00353e-09
8.68135e-08
3.00585e-09
8.70158e-08
3.00558e-09
8.722e-08
3.00872e-09
8.74253e-08
3.00906e-09
8.76327e-08
3.01295e-09
8.78409e-08
3.01387e-09
8.80514e-08
3.01845e-09
8.82626e-08
3.01988e-09
8.84761e-08
3.02514e-09
8.86903e-08
3.02701e-09
8.89067e-08
3.03291e-09
8.91238e-08
3.03525e-09
8.93432e-08
3.0417e-09
8.9563e-08
3.04452e-09
8.97851e-08
3.05157e-09
9.00076e-08
3.05488e-09
9.02322e-08
3.06274e-09
9.04569e-08
3.0669e-09
9.06836e-08
3.07612e-09
9.091e-08
3.08227e-09
9.11376e-08
3.09476e-09
9.13637e-08
3.10537e-09
9.159e-08
3.12211e-09
9.18124e-08
3.13786e-09
9.20379e-08
3.15159e-09
9.22751e-08
3.13131e-09
9.25332e-08
3.0857e-09
9.28028e-08
3.04515e-09
9.30732e-08
3.0474e-09
9.33353e-08
3.07173e-09
9.35904e-08
3.10768e-09
9.38366e-08
3.13937e-09
9.40768e-08
3.17452e-09
9.43088e-08
3.20797e-09
9.45367e-08
3.24049e-09
9.47551e-08
3.27421e-09
9.49592e-08
3.32914e-09
3.31767e-09
8.37111e-08
2.36184e-09
-8.35552e-08
8.38729e-08
2.45028e-09
8.40409e-08
2.52758e-09
8.42156e-08
2.60382e-09
8.43973e-08
2.67898e-09
8.45856e-08
2.75201e-09
8.47798e-08
2.82231e-09
8.49792e-08
2.88862e-09
8.5183e-08
2.95052e-09
8.53903e-08
3.00694e-09
8.56002e-08
3.05781e-09
8.58118e-08
3.10237e-09
8.60242e-08
3.14098e-09
8.62368e-08
3.1732e-09
8.64489e-08
3.19985e-09
8.66595e-08
3.22099e-09
8.68687e-08
3.23748e-09
8.70759e-08
3.24718e-09
8.72806e-08
3.25109e-09
8.74819e-08
3.24904e-09
8.76798e-08
3.2424e-09
8.78739e-08
3.23113e-09
8.80643e-08
3.21681e-09
8.82514e-08
3.19933e-09