/*--------------------------------*- C++ -*----------------------------------*\
| =========                 |                                                 |
| \\      /  F ield         | OpenFOAM: The Open Source CFD Toolbox           |
|  \\    /   O peration     | Version:  2.3.0                                 |
|   \\  /    A nd           | Web:      www.OpenFOAM.org                      |
|    \\/     M anipulation  |                                                 |
\*---------------------------------------------------------------------------*/
FoamFile
{
    version     2.0;
    format      ascii;
    class       surfaceScalarField;
    location    "0.9";
    object      phi_0;
}
// * * * * * * * * * * * * * * * * * * * * * * * * * * * * * * * * * * * * * //

dimensions      [0 3 -1 0 0 0 0];

internalField   nonuniform List<scalar> 
4357
(
5.05418e-08
1.71416e-09
-5.2256e-08
4.83788e-08
2.16306e-09
4.59781e-08
2.40062e-09
4.35206e-08
2.45755e-09
4.10733e-08
2.44731e-09
3.86361e-08
2.43719e-09
3.62021e-08
2.43397e-09
3.37773e-08
2.42485e-09
3.13768e-08
2.40047e-09
2.90215e-08
2.35533e-09
2.67341e-08
2.28738e-09
2.45375e-08
2.19663e-09
2.24541e-08
2.08337e-09
2.05081e-08
1.94602e-09
1.87206e-08
1.78745e-09
1.71062e-08
1.61441e-09
1.5677e-08
1.42918e-09
1.44384e-08
1.23859e-09
1.33875e-08
1.05089e-09
1.25133e-08
8.74283e-10
1.17978e-08
7.15418e-10
1.12193e-08
5.78547e-10
1.0754e-08
4.65335e-10
1.03786e-08
3.75341e-10
1.0072e-08
3.0657e-10
9.81587e-09
2.56174e-10
9.59535e-09
2.20525e-10
9.39919e-09
1.96154e-10
9.21876e-09
1.80437e-10
9.04764e-09
1.71113e-10
8.88157e-09
1.66071e-10
8.71798e-09
1.63593e-10
8.55564e-09
1.62335e-10
8.39419e-09
1.6145e-10
8.23384e-09
1.60352e-10
8.07506e-09
1.58783e-10
7.91851e-09
1.5655e-10
7.7648e-09
1.53713e-10
7.6144e-09
1.50394e-10
7.46771e-09
1.46694e-10
7.32511e-09
1.426e-10
7.18685e-09
1.38261e-10
7.05312e-09
1.33724e-10
6.92396e-09
1.29163e-10
6.79937e-09
1.24589e-10
6.67922e-09
1.20147e-10
6.56343e-09
1.15796e-10
6.45176e-09
1.11665e-10
6.34409e-09
1.07672e-10
6.24015e-09
1.03943e-10
6.13979e-09
1.00359e-10
6.04274e-09
9.70516e-11
5.94887e-09
9.38711e-11
5.8579e-09
9.09638e-11
5.76975e-09
8.81492e-11
5.68416e-09
8.55967e-11
5.60106e-09
8.30951e-11
5.52022e-09
8.08445e-11
5.44162e-09
7.86002e-11
5.36502e-09
7.65999e-11
5.29046e-09
7.4561e-11
5.21769e-09
7.27658e-11
5.1468e-09
7.08872e-11
5.07754e-09
6.92605e-11
5.01004e-09
6.75055e-11
4.94402e-09
6.60193e-11
4.87966e-09
6.43592e-11
4.81667e-09
6.2994e-11
4.75526e-09
6.14068e-11
4.69511e-09
6.01502e-11
4.63649e-09
5.86187e-11
4.57903e-09
5.74642e-11
4.52305e-09
5.59749e-11
4.46813e-09
5.49202e-11
4.41467e-09
5.34608e-11
4.36216e-09
5.25063e-11
4.3111e-09
5.10618e-11
4.2609e-09
5.02036e-11
4.21215e-09
4.87445e-11
4.1642e-09
4.79551e-11
4.11779e-09
4.6412e-11
4.07216e-09
4.56235e-11
4.02825e-09
4.39092e-11
3.98512e-09
4.31299e-11
3.94375e-09
4.13783e-11
3.90275e-09
4.09962e-11
3.86304e-09
3.97103e-11
3.82286e-09
4.01804e-11
3.78351e-09
3.93439e-11
3.74343e-09
4.00804e-11
3.70472e-09
3.87116e-11
3.66565e-09
3.90704e-11
3.62872e-09
3.69345e-11
3.59156e-09
3.71613e-11
3.55706e-09
3.44999e-11
3.52203e-09
3.50252e-11
3.4899e-09
3.2132e-11
3.45589e-09
3.40114e-11
3.42376e-09
3.21308e-11
4.17809e-11
5.75541e-08
1.68201e-09
-5.75219e-08
5.75788e-08
2.13836e-09
5.74362e-08
2.54317e-09
5.70946e-08
2.79917e-09
5.66143e-08
2.92761e-09
5.60456e-08
3.00585e-09
5.53996e-08
3.07996e-09
5.46657e-08
3.15884e-09
5.38366e-08
3.22949e-09
5.29159e-08
3.27607e-09
5.19135e-08
3.28982e-09
5.08412e-08
3.26888e-09
4.97108e-08
3.21382e-09
4.85318e-08
3.12502e-09
4.73146e-08
3.00461e-09
4.60731e-08
2.85589e-09
4.48199e-08
2.68241e-09
4.3568e-08
2.49047e-09
4.23303e-08
2.28866e-09
4.1118e-08
2.08649e-09
3.99408e-08
1.8927e-09
3.88051e-08
1.7142e-09
3.77152e-08
1.55522e-09
3.6673e-08
1.41758e-09
3.56786e-08
1.30098e-09
3.47299e-08
1.20488e-09
3.3825e-08
1.12536e-09
3.29634e-08
1.0578e-09
3.2142e-08
1.00178e-09
3.13581e-08
9.55072e-10
3.06088e-08
9.15357e-10
2.98917e-08
8.8072e-10
2.92045e-08
8.49497e-10
2.85453e-08
8.20616e-10
2.79125e-08
7.93191e-10
2.73045e-08
7.6682e-10
2.672e-08
7.40996e-10
2.61583e-08
7.1547e-10
2.56178e-08
6.90847e-10
2.50976e-08
6.66888e-10
2.45968e-08
6.43426e-10
2.41144e-08
6.2063e-10
2.36497e-08
5.98456e-10
2.32017e-08
5.77126e-10
2.27698e-08
5.56563e-10
2.23529e-08
5.36973e-10
2.19505e-08
5.18212e-10
2.15617e-08
5.00475e-10
2.11858e-08
4.83561e-10
2.08221e-08
4.67667e-10
2.04699e-08
4.52538e-10
2.01286e-08
4.38384e-10
1.97976e-08
4.24901e-10
1.94762e-08
4.12322e-10
1.9164e-08
4.00295e-10
1.88605e-08
3.89095e-10
1.85653e-08
3.78322e-10
1.82779e-08
3.68302e-10
1.79979e-08
3.58585e-10
1.77249e-08
3.49559e-10
1.74588e-08
3.40719e-10
1.7199e-08
3.32527e-10
1.69455e-08
3.24412e-10
1.66978e-08
3.16921e-10
1.64559e-08
3.09406e-10
1.62194e-08
3.0251e-10
1.59883e-08
2.95497e-10
1.57622e-08
2.89117e-10
1.5541e-08
2.82528e-10
1.53246e-08
2.76605e-10
1.51128e-08
2.7038e-10
1.49054e-08
2.6487e-10
1.47024e-08
2.58961e-10
1.45035e-08
2.53835e-10
1.43088e-08
2.48202e-10
1.41179e-08
2.43435e-10
1.39309e-08
2.38036e-10
1.37475e-08
2.33603e-10
1.35678e-08
2.28373e-10
1.33916e-08
2.24199e-10
1.3219e-08
2.18996e-10
1.30497e-08
2.14919e-10
1.28841e-08
2.09554e-10
1.27217e-08
2.05552e-10
1.25627e-08
2.00299e-10
1.24066e-08
1.97161e-10
1.22532e-08
1.93099e-10
1.21016e-08
1.91772e-10
1.19521e-08
1.88869e-10
1.18041e-08
1.88062e-10
1.16585e-08
1.84304e-10
1.15148e-08
1.8275e-10
1.13739e-08
1.77856e-10
1.1235e-08
1.76096e-10
1.10989e-08
1.70584e-10
1.09645e-08
1.69353e-10
1.08329e-08
1.63811e-10
1.07017e-08
1.65166e-10
1.05708e-08
1.63042e-10
1.76468e-10
6.25017e-08
1.79984e-09
-6.26195e-08
6.25161e-08
2.12388e-09
6.26046e-08
2.45471e-09
6.26491e-08
2.75462e-09
6.26322e-08
2.94453e-09
6.25773e-08
3.06077e-09
6.25041e-08
3.15313e-09
6.24142e-08
3.24871e-09
6.22988e-08
3.34497e-09
6.21468e-08
3.42805e-09
6.19513e-08
3.48532e-09
6.17088e-08
3.51132e-09
6.14165e-08
3.50613e-09
6.10712e-08
3.47039e-09
6.06712e-08
3.40458e-09
6.02171e-08
3.30995e-09
5.97103e-08
3.18922e-09
5.91538e-08
3.04697e-09
5.85528e-08
2.88966e-09
5.79142e-08
2.72514e-09
5.72456e-08
2.56132e-09
5.65545e-08
2.40528e-09
5.58476e-08
2.26212e-09
5.51303e-08
2.13489e-09
5.44066e-08
2.0246e-09
5.36807e-08
1.93079e-09
5.2955e-08
1.85112e-09
5.22297e-08
1.78307e-09
5.15064e-08
1.72507e-09
5.07859e-08
1.67556e-09
5.00687e-08
1.63257e-09
4.9355e-08
1.59438e-09
4.86452e-08
1.55936e-09
4.79394e-08
1.52642e-09
4.7238e-08
1.49457e-09
4.65415e-08
1.46334e-09
4.58503e-08
1.43221e-09
4.51646e-08
1.40113e-09
4.44853e-08
1.37016e-09
4.38128e-08
1.33935e-09
4.31477e-08
1.30852e-09
4.24905e-08
1.27786e-09
4.18416e-08
1.24733e-09
4.12016e-08
1.21719e-09
4.05707e-08
1.1874e-09
3.99494e-08
1.15825e-09
3.9338e-08
1.12963e-09
3.87367e-08
1.1018e-09
3.81456e-08
1.07462e-09
3.7565e-08
1.04831e-09
3.69948e-08
1.0227e-09
3.64352e-08
9.98007e-10
3.58861e-08
9.74008e-10
3.53475e-08
9.50936e-10
3.48193e-08
9.28517e-10
3.43014e-08
9.06998e-10
3.37936e-08
8.86074e-10
3.32959e-08
8.66009e-10
3.2808e-08
8.46468e-10
3.23298e-08
8.2774e-10
3.18611e-08
8.09465e-10
3.14017e-08
7.91957e-10
3.09512e-08
7.74831e-10
3.05097e-08
7.58431e-10
3.00768e-08
7.42348e-10
2.96523e-08
7.26956e-10
2.9236e-08
7.11822e-10
2.88278e-08
6.97347e-10
2.84272e-08
6.8308e-10
2.80344e-08
6.69444e-10
2.76488e-08
6.55971e-10
2.72706e-08
6.43106e-10
2.68992e-08
6.30364e-10
2.65348e-08
6.1821e-10
2.61769e-08
6.06144e-10
2.58256e-08
5.94645e-10
2.54805e-08
5.83197e-10
2.51418e-08
5.72288e-10
2.48088e-08
5.61368e-10
2.44821e-08
5.50911e-10
2.41608e-08
5.40315e-10
2.38457e-08
5.30013e-10
2.35358e-08
5.19437e-10
2.32322e-08
5.09169e-10
2.29334e-08
4.99038e-10
2.26406e-08
4.90048e-10
2.23514e-08
4.82221e-10
2.20671e-08
4.76109e-10
2.17853e-08
4.70622e-10
2.15083e-08
4.65137e-10
2.12339e-08
4.58636e-10
2.0965e-08
4.51655e-10
2.0699e-08
4.43926e-10
2.04386e-08
4.36412e-10
2.01808e-08
4.28443e-10
1.99287e-08
4.21443e-10
1.96783e-08
4.1424e-10
1.94329e-08
4.10561e-10
1.91856e-08
4.10345e-10
4.22087e-10
6.77834e-08
1.92211e-09
-6.79056e-08
6.77317e-08
2.17558e-09
6.77506e-08
2.43579e-09
6.78036e-08
2.7016e-09
6.78469e-08
2.90124e-09
6.78642e-08
3.04347e-09
6.7869e-08
3.14831e-09
6.78797e-08
3.23801e-09
6.78985e-08
3.32625e-09
6.7918e-08
3.40854e-09
6.79297e-08
3.4736e-09
6.79264e-08
3.51459e-09
6.79028e-08
3.52976e-09
6.78541e-08
3.51911e-09
6.77758e-08
3.48282e-09
6.7664e-08
3.42177e-09
6.75152e-08
3.33804e-09
6.73272e-08
3.23499e-09
6.70996e-08
3.11723e-09
6.68341e-08
2.99061e-09
6.6534e-08
2.86142e-09
6.62037e-08
2.73565e-09
6.58477e-08
2.61806e-09
6.54707e-08
2.51189e-09
6.50767e-08
2.41858e-09
6.46693e-08
2.3382e-09
6.42507e-08
2.26979e-09
6.38218e-08
2.21194e-09
6.33839e-08
2.163e-09
6.29379e-08
2.12153e-09
6.24845e-08
2.08601e-09
6.20238e-08
2.05504e-09
6.15559e-08
2.02725e-09
6.10808e-08
2.00155e-09
6.05983e-08
1.97704e-09
6.01086e-08
1.9531e-09
5.96115e-08
1.92929e-09
5.91072e-08
1.9054e-09
5.85961e-08
1.88129e-09
5.80785e-08
1.85693e-09
5.75548e-08
1.83228e-09
5.70253e-08
1.80736e-09
5.64904e-08
1.7822e-09
5.59507e-08
1.75689e-09
5.54066e-08
1.73152e-09
5.48586e-08
1.70617e-09
5.43073e-08
1.68095e-09
5.37532e-08
1.65589e-09
5.31968e-08
1.6311e-09
5.26385e-08
1.60656e-09
5.20788e-08
1.58238e-09
5.15183e-08
1.55848e-09
5.09573e-08
1.53501e-09
5.03965e-08
1.51182e-09
4.98359e-08
1.48908e-09
4.92763e-08
1.4666e-09
4.87178e-08
1.44459e-09
4.8161e-08
1.42277e-09
4.7606e-08
1.40144e-09
4.70535e-08
1.38024e-09
4.65034e-08
1.35957e-09
4.59565e-08
1.33893e-09
4.54124e-08
1.31886e-09
4.48721e-08
1.29873e-09
4.43353e-08
1.27924e-09
4.38026e-08
1.25959e-09
4.32738e-08
1.24066e-09
4.27497e-08
1.22145e-09
4.22297e-08
1.20307e-09
4.17148e-08
1.18429e-09
4.12043e-08
1.16648e-09
4.06993e-08
1.1481e-09
4.01988e-08
1.13086e-09
3.97042e-08
1.11287e-09
3.92141e-08
1.09623e-09
3.87301e-08
1.07861e-09
3.82508e-08
1.06259e-09
3.77777e-08
1.0453e-09
3.73093e-08
1.02986e-09
3.68474e-08
1.01276e-09
3.639e-08
9.97725e-10
3.59396e-08
9.80392e-10
3.54937e-08
9.65335e-10
3.50554e-08
9.47488e-10
3.46214e-08
9.32989e-10
3.4195e-08
9.16474e-10
3.37717e-08
9.05552e-10
3.33547e-08
8.93069e-10
3.29392e-08
8.86126e-10
3.25302e-08
8.74155e-10
3.2123e-08
8.65806e-10
3.17239e-08
8.50826e-10
3.13268e-08
8.4096e-10
3.09385e-08
8.24738e-10
3.05517e-08
8.1524e-10
3.01739e-08
7.99199e-10
2.97968e-08
7.91384e-10
2.94286e-08
7.78753e-10
2.90567e-08
7.82275e-10
7.88155e-10
7.34569e-08
2.04575e-09
-7.35805e-08
7.33753e-08
2.2572e-09
7.33436e-08
2.46744e-09
7.33613e-08
2.68392e-09
7.33896e-08
2.87294e-09
7.3409e-08
3.02408e-09
7.34178e-08
3.13945e-09
7.34266e-08
3.22925e-09
7.34423e-08
3.31057e-09
7.34662e-08
3.38461e-09
7.34931e-08
3.44668e-09
7.35162e-08
3.49154e-09
7.35302e-08
3.51575e-09
7.35313e-08
3.51796e-09
7.3516e-08
3.4981e-09
7.34808e-08
3.45706e-09
7.34222e-08
3.39662e-09
7.33377e-08
3.31944e-09
7.32259e-08
3.22908e-09
7.30866e-08
3.12992e-09
7.29211e-08
3.02689e-09
7.2732e-08
2.92471e-09
7.25226e-08
2.82746e-09
7.22965e-08
2.73806e-09
7.20568e-08
2.65826e-09
7.18064e-08
2.58862e-09
7.15471e-08
2.529e-09
7.12806e-08
2.47853e-09
7.10075e-08
2.43605e-09
7.07288e-08
2.40023e-09
7.04448e-08
2.36997e-09
7.01558e-08
2.34405e-09
6.98616e-08
2.32152e-09
6.95618e-08
2.30131e-09
6.92561e-08
2.28278e-09
6.8944e-08
2.26514e-09
6.86252e-08
2.24813e-09
6.82993e-08
2.23124e-09
6.79661e-08
2.21448e-09
6.76256e-08
2.19751e-09
6.72773e-08
2.18055e-09
6.69214e-08
2.16327e-09
6.65576e-08
2.14601e-09
6.61861e-08
2.12841e-09
6.58066e-08
2.11094e-09
6.54196e-08
2.09317e-09
6.50249e-08
2.0757e-09
6.46228e-08
2.05797e-09
6.42132e-08
2.04069e-09
6.37967e-08
2.02315e-09
6.33729e-08
2.00617e-09
6.29425e-08
1.98888e-09
6.25052e-08
1.97226e-09
6.20618e-08
1.95524e-09
6.16119e-08
1.93898e-09
6.11563e-08
1.92218e-09
6.06947e-08
1.90623e-09
6.02278e-08
1.88958e-09
5.97554e-08
1.87389e-09
5.92783e-08
1.85731e-09
5.87961e-08
1.84182e-09
5.83098e-08
1.8252e-09
5.78188e-08
1.80985e-09
5.73244e-08
1.79313e-09
5.68258e-08
1.77788e-09
5.63244e-08
1.76098e-09
5.58192e-08
1.74581e-09
5.5312e-08
1.72866e-09
5.48015e-08
1.71357e-09
5.42897e-08
1.69614e-09
5.3775e-08
1.68113e-09
5.32597e-08
1.66338e-09
5.27421e-08
1.64851e-09
5.22246e-08
1.6304e-09
5.17051e-08
1.6157e-09
5.11865e-08
1.59722e-09
5.06663e-08
1.58276e-09
5.01477e-08
1.56386e-09
4.96279e-08
1.54966e-09
4.91105e-08
1.53018e-09
4.85922e-08
1.51605e-09
4.80772e-08
1.49542e-09
4.75618e-08
1.48071e-09
4.7051e-08
1.45824e-09
4.65406e-08
1.44343e-09
4.60354e-08
1.42162e-09
4.55296e-08
1.41145e-09
4.50275e-08
1.39512e-09
4.45223e-08
1.39136e-09
4.40209e-08
1.37556e-09
4.35177e-08
1.36901e-09
4.30216e-08
1.34693e-09
4.25251e-08
1.33737e-09
4.20371e-08
1.31274e-09
4.15483e-08
1.30409e-09
4.10684e-08
1.27905e-09
4.05869e-08
1.27289e-09
4.01155e-08
1.2502e-09
3.96387e-08
1.25905e-09
1.25888e-09
7.95707e-08
2.17409e-09
-7.96991e-08
7.94727e-08
2.35516e-09
7.94104e-08
2.5298e-09
7.93881e-08
2.70616e-09
7.93872e-08
2.87385e-09
7.93909e-08
3.02037e-09
7.93917e-08
3.1387e-09
7.93876e-08
3.23338e-09
7.93851e-08
3.31307e-09
7.93878e-08
3.38185e-09
7.93945e-08
3.44005e-09
7.94006e-08
3.48536e-09
7.94015e-08
3.51486e-09
7.93932e-08
3.52631e-09
7.93723e-08
3.51899e-09
7.9336e-08
3.49332e-09
7.92818e-08
3.4508e-09
7.92078e-08
3.39353e-09
7.91124e-08
3.32443e-09
7.89955e-08
3.2468e-09
7.88579e-08
3.16455e-09
7.87013e-08
3.08126e-09
7.85284e-08
3.00041e-09
7.8342e-08
2.92444e-09
7.81449e-08
2.85535e-09
7.79396e-08
2.79388e-09
7.77281e-08
2.7405e-09
7.75121e-08
2.69458e-09
7.72925e-08
2.65565e-09
7.70703e-08
2.62246e-09
7.68458e-08
2.59446e-09
7.66195e-08
2.57037e-09
7.63912e-08
2.54981e-09
7.61609e-08
2.53157e-09
7.59282e-08
2.51551e-09
7.56928e-08
2.5005e-09
7.54542e-08
2.48674e-09
7.52122e-08
2.47321e-09
7.49663e-08
2.46045e-09
7.47163e-08
2.44751e-09
7.44616e-08
2.43519e-09
7.42024e-08
2.42249e-09
7.3938e-08
2.41044e-09
7.36685e-08
2.39786e-09
7.33934e-08
2.38605e-09
7.31129e-08
2.37364e-09
7.28265e-08
2.36215e-09
7.25344e-08
2.35001e-09
7.22361e-08
2.33899e-09
7.19321e-08
2.3272e-09
7.16216e-08
2.3167e-09
7.13052e-08
2.30529e-09
7.09821e-08
2.29534e-09
7.06531e-08
2.28427e-09
7.03172e-08
2.27484e-09
6.99753e-08
2.26404e-09
6.96265e-08
2.25507e-09
6.92716e-08
2.24442e-09
6.89097e-08
2.23584e-09
6.85418e-08
2.22522e-09
6.81667e-08
2.21693e-09
6.77857e-08
2.2062e-09
6.73974e-08
2.19811e-09
6.70034e-08
2.18715e-09
6.66021e-08
2.17918e-09
6.61952e-08
2.16785e-09
6.57811e-08
2.15996e-09
6.53616e-08
2.14814e-09
6.49349e-08
2.14028e-09
6.45032e-08
2.12787e-09
6.40643e-08
2.12001e-09
6.36207e-08
2.10692e-09
6.31702e-08
2.09907e-09
6.27154e-08
2.0852e-09
6.22537e-08
2.07739e-09
6.17883e-08
2.06265e-09
6.13161e-08
2.0549e-09
6.08408e-08
2.03922e-09
6.03589e-08
2.03154e-09
5.98744e-08
2.01471e-09
5.93835e-08
2.00687e-09
5.88908e-08
1.98817e-09
5.83923e-08
1.97916e-09
5.78935e-08
1.9571e-09
5.73905e-08
1.9464e-09
5.68888e-08
1.92333e-09
5.63825e-08
1.91772e-09
5.58748e-08
1.90286e-09
5.53571e-08
1.90904e-09
5.48353e-08
1.89733e-09
5.43062e-08
1.89812e-09
5.37797e-08
1.87348e-09
5.32503e-08
1.86674e-09
5.27256e-08
1.83747e-09
5.21976e-08
1.83207e-09
5.16737e-08
1.80293e-09
5.11454e-08
1.80124e-09
5.06229e-08
1.77263e-09
5.00968e-08
1.7852e-09
1.78258e-09
8.61668e-08
2.30874e-09
-8.63014e-08
8.60552e-08
2.46676e-09
8.59702e-08
2.61474e-09
8.59131e-08
2.76333e-09
8.58792e-08
2.90777e-09
8.58585e-08
3.04099e-09
8.58404e-08
3.15683e-09
8.58201e-08
3.25366e-09
8.57991e-08
3.33411e-09
8.57795e-08
3.40142e-09
8.57618e-08
3.45772e-09
8.57443e-08
3.50289e-09
8.57234e-08
3.53573e-09
8.56955e-08
3.55426e-09
8.5657e-08
3.55752e-09
8.56051e-08
3.54514e-09
8.55377e-08
3.51823e-09
8.54531e-08
3.47818e-09
8.535e-08
3.42749e-09
8.52283e-08
3.36847e-09
8.50885e-08
3.30435e-09
8.49321e-08
3.23767e-09
8.47609e-08
3.17157e-09
8.45775e-08
3.10788e-09
8.4384e-08
3.04882e-09
8.4183e-08
2.99495e-09
8.39761e-08
2.94735e-09
8.37653e-08
2.90538e-09
8.35516e-08
2.86936e-09
8.33361e-08
2.83798e-09
8.31192e-08
2.81136e-09
8.29015e-08
2.78801e-09
8.26831e-08
2.76823e-09
8.24642e-08
2.75045e-09
8.22445e-08
2.73521e-09
8.20241e-08
2.7209e-09
8.18025e-08
2.70839e-09
8.15797e-08
2.69603e-09
8.1355e-08
2.68507e-09
8.11288e-08
2.67378e-09
8.09002e-08
2.66377e-09
8.06695e-08
2.65314e-09
8.04361e-08
2.64385e-09
8.02003e-08
2.63373e-09
7.99612e-08
2.62507e-09
7.97194e-08
2.61543e-09
7.94741e-08
2.60746e-09
7.92258e-08
2.59835e-09
7.89736e-08
2.59115e-09
7.87182e-08
2.58261e-09
7.84587e-08
2.57623e-09
7.81957e-08
2.56828e-09
7.79283e-08
2.56275e-09
7.76572e-08
2.55535e-09
7.73814e-08
2.55065e-09
7.71017e-08
2.54372e-09
7.6817e-08
2.5398e-09
7.65282e-08
2.53323e-09
7.6234e-08
2.53e-09
7.59356e-08
2.52367e-09
7.56314e-08
2.52105e-09
7.53228e-08
2.51482e-09
7.50082e-08
2.51272e-09
7.46889e-08
2.50643e-09
7.43633e-08
2.50477e-09
7.40329e-08
2.49829e-09
7.36959e-08
2.49699e-09
7.33538e-08
2.49017e-09
7.30049e-08
2.48918e-09
7.26509e-08
2.48189e-09
7.22898e-08
2.48115e-09
7.19234e-08
2.47325e-09
7.15498e-08
2.47274e-09
7.11709e-08
2.46412e-09
7.07844e-08
2.46382e-09
7.03927e-08
2.45437e-09
6.99933e-08
2.45427e-09
6.95887e-08
2.44387e-09
6.91763e-08
2.44393e-09
6.87586e-08
2.43239e-09
6.83331e-08
2.43239e-09
6.79023e-08
2.41899e-09
6.74637e-08
2.41769e-09
6.70207e-08
2.40012e-09
6.65723e-08
2.39488e-09
6.61232e-08
2.37243e-09
6.56708e-08
2.37008e-09
6.52132e-08
2.36044e-09
6.47405e-08
2.3817e-09
6.42529e-08
2.38502e-09
6.37536e-08
2.3974e-09
6.32517e-08
2.37532e-09
6.27482e-08
2.37027e-09
6.22453e-08
2.34037e-09
6.17396e-08
2.33774e-09
6.12311e-08
2.31143e-09
6.07171e-08
2.31527e-09
6.01998e-08
2.2899e-09
5.96847e-08
2.30032e-09
2.29506e-09
9.32841e-08
2.45251e-09
-9.34279e-08
9.31576e-08
2.5933e-09
9.30515e-08
2.72086e-09
9.29664e-08
2.84837e-09
9.29009e-08
2.97333e-09
9.285e-08
3.09182e-09
9.28068e-08
3.20003e-09
9.27657e-08
3.29478e-09
9.27244e-08
3.37547e-09
9.26827e-08
3.44304e-09
9.26411e-08
3.4994e-09
9.25988e-08
3.54519e-09
9.25539e-08
3.58063e-09
9.25035e-08
3.60457e-09
9.24446e-08
3.61648e-09
9.23742e-08
3.61552e-09
9.229e-08
3.60245e-09
9.21904e-08
3.57782e-09
9.20742e-08
3.54366e-09
9.19413e-08
3.50131e-09
9.17921e-08
3.45356e-09
9.16277e-08
3.40207e-09
9.14495e-08
3.34977e-09
9.12595e-08
3.29788e-09
9.10596e-08
3.24877e-09
9.08519e-08
3.20268e-09
9.0638e-08
3.16121e-09
9.04198e-08
3.12361e-09
9.01982e-08
3.09091e-09
8.99745e-08
3.06167e-09
8.97492e-08
3.03673e-09
8.95229e-08
3.0143e-09
8.92957e-08
2.99538e-09
8.90682e-08
2.97798e-09
8.884e-08
2.96336e-09
8.86116e-08
2.94939e-09
8.83823e-08
2.93764e-09
8.81525e-08
2.92584e-09
8.79216e-08
2.91595e-09
8.76899e-08
2.90552e-09
8.74568e-08
2.8969e-09
8.72225e-08
2.8874e-09
8.69865e-08
2.87979e-09
8.67492e-08
2.87104e-09
8.651e-08
2.86433e-09
8.62691e-08
2.85626e-09
8.60262e-08
2.85045e-09
8.57814e-08
2.84307e-09
8.55344e-08
2.83822e-09
8.52854e-08
2.83155e-09
8.50339e-08
2.82772e-09
8.47804e-08
2.82177e-09
8.45242e-08
2.81897e-09
8.42658e-08
2.81372e-09
8.40045e-08
2.81195e-09
8.37409e-08
2.80733e-09
8.34742e-08
2.80655e-09
8.32049e-08
2.80248e-09
8.29323e-08
2.80263e-09
8.2657e-08
2.799e-09
8.2378e-08
2.80001e-09
8.20961e-08
2.79671e-09
8.18104e-08
2.7985e-09
8.15214e-08
2.79539e-09
8.12283e-08
2.7979e-09
8.09317e-08
2.79486e-09
8.06307e-08
2.79801e-09
8.03259e-08
2.79492e-09
8.00165e-08
2.79865e-09
7.9703e-08
2.79538e-09
7.93845e-08
2.79964e-09
7.90617e-08
2.79608e-09
7.87336e-08
2.80082e-09
7.84009e-08
2.79686e-09
7.80626e-08
2.80205e-09
7.77194e-08
2.7976e-09
7.73705e-08
2.80321e-09
7.70161e-08
2.79818e-09
7.66559e-08
2.80415e-09
7.62899e-08
2.79838e-09
7.59178e-08
2.80452e-09
7.55393e-08
2.79752e-09
7.51543e-08
2.80272e-09
7.47622e-08
2.79221e-09
7.43644e-08
2.79265e-09
7.3965e-08
2.77182e-09
7.35679e-08
2.76714e-09
7.31652e-08
2.76323e-09
7.27465e-08
2.80031e-09
7.23071e-08
2.82445e-09
7.18576e-08
2.84694e-09
7.14043e-08
2.82861e-09
7.09518e-08
2.82272e-09
7.04959e-08
2.79626e-09
7.0038e-08
2.79571e-09
6.95725e-08
2.77688e-09
6.91033e-08
2.78446e-09
6.86249e-08
2.76832e-09
6.81506e-08
2.77461e-09
2.77132e-09
1.00964e-07
2.61088e-09
-1.01122e-07
1.0082e-07
2.73736e-09
1.00693e-07
2.84743e-09
1.00583e-07
2.95822e-09
1.00489e-07
3.06783e-09
1.00407e-07
3.17326e-09
1.00335e-07
3.27205e-09
1.00268e-07
3.3615e-09
1.00204e-07
3.44038e-09
1.00139e-07
3.50801e-09
1.00073e-07
3.56533e-09
1.00005e-07
3.61263e-09
9.99351e-08
3.65073e-09
9.98606e-08
3.6791e-09
9.97791e-08
3.69793e-09
9.96882e-08
3.70644e-09
9.95853e-08
3.70535e-09
9.94686e-08
3.69451e-09
9.93371e-08
3.67514e-09
9.91907e-08
3.64776e-09
9.90294e-08
3.61486e-09
9.8854e-08
3.57741e-09
9.86657e-08
3.53814e-09
9.84659e-08
3.49769e-09
9.82561e-08
3.4585e-09
9.80383e-08
3.42048e-09
9.78139e-08
3.3856e-09
9.75846e-08
3.35299e-09
9.73513e-08
3.3242e-09
9.71152e-08
3.29774e-09
9.68769e-08
3.27499e-09
9.66372e-08
3.25405e-09
9.63962e-08
3.23638e-09
9.61544e-08
3.21981e-09
9.59117e-08
3.20604e-09
9.56684e-08
3.19268e-09
9.54243e-08
3.18175e-09
9.51795e-08
3.17062e-09
9.49337e-08
3.16171e-09
9.46871e-08
3.15214e-09
9.44393e-08
3.1447e-09
9.41905e-08
3.13625e-09
9.39403e-08
3.13e-09
9.36888e-08
3.12247e-09
9.34359e-08
3.11729e-09
9.31816e-08
3.11058e-09
9.29256e-08
3.10643e-09
9.26681e-08
3.10051e-09
9.24089e-08
3.09743e-09
9.21482e-08
3.09231e-09
9.18856e-08
3.09031e-09
9.16213e-08
3.08601e-09
9.13552e-08
3.08512e-09
9.10873e-08
3.08159e-09
9.08175e-08
3.08181e-09
9.05458e-08
3.07903e-09
9.0272e-08
3.08032e-09
8.99963e-08
3.07821e-09
8.97183e-08
3.08055e-09
8.94383e-08
3.07903e-09
8.9156e-08
3.08234e-09
8.88714e-08
3.08133e-09
8.85843e-08
3.08554e-09
8.82948e-08
3.08493e-09
8.80027e-08
3.09e-09
8.77078e-08
3.0897e-09
8.74103e-08
3.09555e-09
8.71098e-08
3.09545e-09
8.68064e-08
3.10203e-09
8.64997e-08
3.10205e-09
8.61901e-08
3.10931e-09
8.58768e-08
3.10935e-09
8.55603e-08
3.11725e-09
8.524e-08
3.11724e-09
8.49163e-08
3.12573e-09
8.45883e-08
3.12562e-09
8.42568e-08
3.13464e-09
8.39206e-08
3.13439e-09
8.35809e-08
3.1439e-09
8.32359e-08
3.1434e-09
8.28871e-08
3.15326e-09
8.25323e-08
3.15232e-09
8.21725e-08
3.16252e-09
8.18033e-08
3.16147e-09
8.14284e-08
3.16748e-09
8.10486e-08
3.15168e-09
8.06686e-08
3.14716e-09
8.02838e-08
3.14796e-09
7.98967e-08
3.18741e-09
7.95039e-08
3.2173e-09
7.91104e-08
3.24042e-09
7.87097e-08
3.22929e-09
7.83047e-08
3.22772e-09
7.78892e-08
3.21183e-09
7.74685e-08
3.21635e-09
7.70373e-08
3.20809e-09
7.66025e-08
3.21922e-09
7.6157e-08
3.21387e-09
7.57099e-08
3.22172e-09
3.22998e-09
1.09237e-07
2.77758e-09
-1.09404e-07
1.09083e-07
2.89174e-09
1.08938e-07
2.99242e-09
1.08804e-07
3.09208e-09
1.08682e-07
3.18983e-09
1.08571e-07
3.28411e-09
1.0847e-07
3.37374e-09
1.08374e-07
3.45677e-09
1.08282e-07
3.53227e-09
1.08191e-07
3.59898e-09
1.081e-07
3.65708e-09
1.08006e-07
3.70616e-09
1.0791e-07
3.74701e-09
1.0781e-07
3.77926e-09
1.07704e-07
3.80372e-09
1.0759e-07
3.81995e-09
1.07467e-07
3.8291e-09
1.07331e-07
3.83051e-09
1.07182e-07
3.82389e-09
1.0702e-07
3.80964e-09
1.06845e-07
3.79002e-09
1.06657e-07
3.76546e-09
1.06457e-07
3.73837e-09
1.06245e-07
3.70896e-09
1.06024e-07
3.67955e-09
1.05795e-07
3.64986e-09
1.05559e-07
3.62196e-09
1.05317e-07
3.59497e-09
1.0507e-07
3.57071e-09
1.0482e-07
3.54777e-09
1.04567e-07
3.52783e-09
1.04312e-07
3.50904e-09
1.04055e-07
3.49314e-09
1.03797e-07
3.47796e-09
1.03538e-07
3.46543e-09
1.03277e-07
3.45313e-09
1.03016e-07
3.44325e-09
1.02753e-07
3.43313e-09
1.0249e-07
3.4253e-09
1.02225e-07
3.41683e-09
1.01959e-07
3.41059e-09
1.01692e-07
3.40339e-09
1.01424e-07
3.39848e-09
1.01154e-07
3.39233e-09
1.00883e-07
3.3886e-09
1.0061e-07
3.38339e-09
1.00335e-07
3.38078e-09
1.00059e-07
3.37646e-09
9.97819e-08
3.37496e-09
9.95027e-08
3.37152e-09
9.92218e-08
3.37114e-09
9.89393e-08
3.36858e-09
9.8655e-08
3.36933e-09
9.8369e-08
3.36762e-09
9.80813e-08
3.3695e-09
9.77917e-08
3.36861e-09
9.75005e-08
3.37159e-09
9.72072e-08
3.37147e-09
9.69123e-08
3.37551e-09
9.66152e-08
3.37611e-09
9.63164e-08
3.38115e-09
9.60153e-08
3.38238e-09
9.57125e-08
3.38838e-09
9.54072e-08
3.39017e-09
9.51002e-08
3.39706e-09
9.47905e-08
3.39933e-09
9.4479e-08
3.40706e-09
9.41647e-08
3.40974e-09
9.38485e-08
3.41825e-09
9.35293e-08
3.42127e-09
9.32081e-08
3.43051e-09
9.28837e-08
3.43379e-09
9.25572e-08
3.44373e-09
9.22272e-08
3.44723e-09
9.18951e-08
3.4578e-09
9.15592e-08
3.46149e-09
9.12212e-08
3.47263e-09
9.08791e-08
3.47649e-09
9.05348e-08
3.48822e-09
9.01859e-08
3.49228e-09
8.98345e-08
3.50471e-09
8.94774e-08
3.50943e-09
8.91164e-08
3.52349e-09
8.87483e-08
3.52953e-09
8.83733e-08
3.54253e-09
8.79821e-08
3.54286e-09
8.75761e-08
3.55322e-09
8.71651e-08
3.5589e-09
8.67773e-08
3.57521e-09
8.64179e-08
3.57673e-09
8.6074e-08
3.58429e-09
8.57205e-08
3.58282e-09
8.53529e-08
3.59532e-09
8.49647e-08
3.6e-09
8.4564e-08
3.61706e-09
8.41478e-08
3.62424e-09
8.37237e-08
3.64332e-09
8.32848e-08
3.65276e-09
8.28368e-08
3.66981e-09
3.69273e-09
6.85356e-08
2.65705e-09
-6.84151e-08
6.86687e-08
2.75865e-09
6.88114e-08
2.84974e-09
6.89627e-08
2.94079e-09
6.9122e-08
3.03052e-09
6.92889e-08
3.11721e-09
6.94627e-08
3.19995e-09
6.96423e-08
3.2771e-09
6.98266e-08
3.34801e-09
7.00142e-08
3.4114e-09
7.0204e-08
3.46731e-09
7.03951e-08
3.51507e-09
7.05867e-08
3.55533e-09
7.07783e-08
3.58768e-09
7.0969e-08
3.61301e-09
7.11579e-08
3.63109e-09
7.13435e-08
3.64349e-09
7.15254e-08
3.6486e-09
7.17029e-08
3.64636e-09
7.18756e-08
3.63698e-09
7.20431e-08
3.62247e-09
7.22056e-08
3.60301e-09
7.23631e-08
3.5808e-09
7.25163e-08
3.55584e-09
7.26655e-08
3.53028e-09
7.28116e-08
3.50378e-09
7.29553e-08
3.47834e-09
7.30971e-08
3.45311e-09
7.32379e-08
3.42995e-09
7.33781e-08
3.40753e-09
7.35183e-08
3.3876e-09
7.36589e-08
3.36844e-09
7.38003e-08
3.35182e-09
7.39425e-08
3.33571e-09
7.40859e-08
3.32204e-09
7.42305e-08
3.3085e-09
7.43765e-08
3.29726e-09
7.45239e-08
3.28579e-09
7.46727e-08
3.27651e-09
7.48228e-08
3.26666e-09
7.49744e-08
3.25898e-09
7.51274e-08
3.25044e-09
7.52818e-08
3.24409e-09
7.54375e-08
3.23665e-09
7.55946e-08
3.2315e-09
7.57529e-08
3.22503e-09
7.59127e-08
3.22101e-09
7.60737e-08
3.21546e-09
7.62361e-08
3.21254e-09
7.63997e-08
3.20789e-09
7.65648e-08
3.20606e-09
7.67311e-08
3.2023e-09
7.68989e-08
3.20155e-09
7.70678e-08
3.19866e-09
7.72383e-08
3.19901e-09
7.741e-08
3.19694e-09
7.75832e-08
3.19835e-09
7.77576e-08
3.19708e-09
7.79336e-08
3.1995e-09
7.81108e-08
3.19898e-09
7.82895e-08
3.20237e-09
7.84694e-08
3.20253e-09
7.86509e-08
3.20683e-09
7.88335e-08
3.20761e-09
7.90178e-08
3.21278e-09
7.9203e-08
3.21411e-09
7.939e-08
3.22008e-09
7.95778e-08
3.22191e-09
7.97674e-08
3.22863e-09
7.99578e-08
3.2309e-09
8.015e-08
3.23833e-09
8.03428e-08
3.24097e-09
8.05374e-08
3.24909e-09
8.07326e-08
3.25208e-09
8.09296e-08
3.2608e-09
8.11269e-08
3.26415e-09
8.13261e-08
3.27343e-09
8.15255e-08
3.27712e-09
8.17267e-08
3.28705e-09
8.19277e-08
3.29123e-09
8.21303e-08
3.30216e-09
8.23321e-08
3.30761e-09
8.2535e-08
3.32062e-09
8.27359e-08
3.32857e-09
8.29338e-08
3.34464e-09
8.31192e-08
3.3575e-09
8.32902e-08
3.38214e-09
8.34598e-08
3.3893e-09
8.3658e-08
3.37706e-09
8.38946e-08
3.34015e-09
8.4156e-08
3.32289e-09
8.44145e-08
3.32435e-09
8.46613e-08
3.34845e-09
8.48906e-08
3.37077e-09
8.51089e-08
3.39873e-09
8.53154e-08
3.41773e-09
8.55177e-08
3.44106e-09
8.5711e-08
3.45939e-09
8.58952e-08
3.48561e-09
3.52209e-09
7.5748e-08
2.51782e-09
-7.56088e-08
7.58946e-08
2.61207e-09
7.60488e-08
2.69552e-09
7.62111e-08
2.77857e-09
7.63809e-08
2.86067e-09
7.65579e-08
2.94026e-09
7.67413e-08
3.01652e-09
7.69303e-08
3.08805e-09
7.7124e-08
3.15434e-09
7.73212e-08
3.21423e-09
7.75208e-08
3.26768e-09
7.7722e-08
3.31392e-09
7.79238e-08
3.35345e-09
7.81257e-08
3.3858e-09
7.83268e-08
3.41189e-09
7.85263e-08
3.43164e-09
7.87232e-08
3.44661e-09
7.89173e-08
3.45442e-09
7.9108e-08
3.4557e-09
7.92946e-08
3.45039e-09
7.94768e-08
3.44023e-09
7.96546e-08
3.42522e-09
7.98281e-08
3.40729e-09
7.99976e-08
3.38633e-09
8.01636e-08
3.36429e-09
8.03266e-08
3.34078e-09
8.04873e-08
3.31768e-09
8.06461e-08
3.29423e-09
8.08039e-08
3.27219e-09
8.0961e-08
3.25041e-09
8.11181e-08
3.23056e-09
8.12753e-08
3.21116e-09
8.14333e-08
3.19388e-09
8.15921e-08
3.17695e-09
8.1752e-08
3.16213e-09
8.1913e-08
3.14743e-09
8.20755e-08
3.13479e-09
8.22393e-08
3.12199e-09
8.24046e-08
3.11117e-09
8.25714e-08
3.09995e-09
8.27397e-08
3.09067e-09
8.29093e-08
3.08077e-09
8.30806e-08
3.07282e-09
8.32532e-08
3.06404e-09
8.34274e-08
3.05728e-09
8.3603e-08
3.04952e-09
8.37801e-08
3.04388e-09
8.39585e-08
3.03706e-09
8.41385e-08
3.03249e-09
8.43198e-08
3.0266e-09
8.45028e-08
3.02309e-09
8.4687e-08
3.0181e-09
8.48729e-08
3.01563e-09
8.50601e-08
3.01152e-09
8.5249e-08
3.01009e-09
8.54391e-08
3.00682e-09
8.56311e-08
3.0064e-09
8.58242e-08
3.00396e-09
8.60192e-08
3.00449e-09
8.62153e-08
3.00283e-09
8.64135e-08
3.00426e-09
8.66127e-08
3.00333e-09
8.68139e-08
3.00563e-09
8.70161e-08
3.00535e-09
8.72204e-08
3.00848e-09
8.74257e-08
3.0088e-09
8.76331e-08
3.01268e-09
8.78415e-08
3.01357e-09
8.8052e-08
3.01814e-09
8.82633e-08
3.01956e-09
8.84768e-08
3.02481e-09
8.86911e-08
3.02667e-09
8.89077e-08
3.03256e-09
8.91249e-08
3.03488e-09
8.93443e-08
3.04134e-09
8.95644e-08
3.04414e-09
8.97866e-08
3.05116e-09
9.00093e-08
3.05442e-09
9.02342e-08
3.06218e-09
9.04593e-08
3.06612e-09
9.06865e-08
3.07498e-09
9.09137e-08
3.08046e-09
9.11423e-08
3.09194e-09
9.13696e-08
3.10131e-09
9.15968e-08
3.11748e-09
9.18178e-08
3.13642e-09
9.20371e-08
3.16291e-09
9.22617e-08
3.16471e-09
9.25054e-08
3.13333e-09
9.27678e-08
3.07774e-09
9.30402e-08
3.05045e-09
9.33083e-08
3.05628e-09
9.35699e-08
3.08684e-09
9.38226e-08
3.11811e-09
9.40704e-08
3.15093e-09
9.43122e-08
3.17596e-09
9.45515e-08
3.20175e-09
9.47831e-08
3.22772e-09
9.50045e-08
3.26428e-09
3.29096e-09
8.37111e-08
2.36184e-09
-8.35552e-08
8.38729e-08
2.45028e-09
8.40409e-08
2.52758e-09
8.42156e-08
2.60382e-09
8.43973e-08
2.67898e-09
8.45856e-08
2.75201e-09
8.47798e-08
2.82231e-09
8.49792e-08
2.88862e-09
8.5183e-08
2.95052e-09
8.53903e-08
3.00694e-09
8.56002e-08
3.05781e-09
8.58118e-08
3.10237e-09
8.60242e-08
3.14098e-09
8.62368e-08
3.17319e-09
8.64489e-08
3.19984e-09
8.66596e-08
3.22098e-09
8.68687e-08
3.23747e-09
8.70759e-08
3.24717e-09
8.72806e-08
3.25108e-09
8.74819e-08
3.24903e-09
8.76798e-08
3.24239e-09
8.78739e-08
3.23112e-09
8.80644e-08
3.2168e-09
8.82514e-08