/*--------------------------------*- C++ -*----------------------------------*\
| =========                 |                                                 |
| \\      /  F ield         | OpenFOAM: The Open Source CFD Toolbox           |
|  \\    /   O peration     | Version:  2.3.0                                 |
|   \\  /    A nd           | Web:      www.OpenFOAM.org                      |
|    \\/     M anipulation  |                                                 |
\*---------------------------------------------------------------------------*/
FoamFile
{
    version     2.0;
    format      ascii;
    class       volVectorField;
    location    "0.4";
    object      U_0;
}
// * * * * * * * * * * * * * * * * * * * * * * * * * * * * * * * * * * * * * //

dimensions      [0 1 -1 0 0 0 0];

internalField   nonuniform List<vector> 
2945
(
(0.153805 0.0066805 0)
(0.125046 0.00576562 0)
(0.100465 0.00443529 0)
(0.0804956 0.00314339 0)
(0.0652657 0.00206597 0)
(0.0541615 0.00126818 0)
(0.0462605 0.00073907 0)
(0.0406775 0.000420436 0)
(0.0366857 0.000243821 0)
(0.033741 0.000152665 0)
(0.03147 0.000107944 0)
(0.0296357 8.59922e-05 0)
(0.0280961 7.41109e-05 0)
(0.0267677 6.63045e-05 0)
(0.0256003 6.01142e-05 0)
(0.0245618 5.46884e-05 0)
(0.02363 4.97929e-05 0)
(0.022788 4.53785e-05 0)
(0.0220228 4.14259e-05 0)
(0.0213238 3.7905e-05 0)
(0.0206823 3.47744e-05 0)
(0.0200911 3.19878e-05 0)
(0.0195441 2.95003e-05 0)
(0.0190365 2.72715e-05 0)
(0.0185639 2.52662e-05 0)
(0.0181229 2.34547e-05 0)
(0.0177104 2.18118e-05 0)
(0.0173236 2.03164e-05 0)
(0.0169605 1.89504e-05 0)
(0.0166189 1.76986e-05 0)
(0.0162972 1.65477e-05 0)
(0.0159939 1.54864e-05 0)
(0.0157076 1.4505e-05 0)
(0.0154371 1.35948e-05 0)
(0.0151814 1.27483e-05 0)
(0.0149396 1.1959e-05 0)
(0.0147108 1.1221e-05 0)
(0.0144944 1.05292e-05 0)
(0.0142896 9.87893e-06 0)
(0.0140959 9.26622e-06 0)
(0.0139128 8.68735e-06 0)
(0.0137398 8.13908e-06 0)
(0.0135766 7.61845e-06 0)
(0.0134228 7.12282e-06 0)
(0.0132781 6.64981e-06 0)
(0.0131421 6.19727e-06 0)
(0.0130148 5.76328e-06 0)
(0.0128959 5.3461e-06 0)
(0.0127852 4.94414e-06 0)
(0.0126825 4.55586e-06 0)
(0.0125879 4.17972e-06 0)
(0.0125012 3.81388e-06 0)
(0.0124224 3.45606e-06 0)
(0.0123514 3.10311e-06 0)
(0.0122883 2.75081e-06 0)
(0.0122332 2.39347e-06 0)
(0.0121863 2.02382e-06 0)
(0.0121478 1.6325e-06 0)
(0.0121179 1.20614e-06 0)
(0.0120971 7.25754e-07 0)
(0.0120858 2.38846e-07 0)
(0.0120843 -1.47021e-07 0)
(0.0120905 -4.8582e-07 0)
(0.0121023 -7.50628e-07 0)
(0.0121182 -9.34635e-07 0)
(0.0121367 -1.03618e-06 0)
(0.0121565 -1.07001e-06 0)
(0.0121766 -1.05144e-06 0)
(0.0121962 -9.9377e-07 0)
(0.0122146 -9.08453e-07 0)
(0.0122315 -8.03361e-07 0)
(0.0122465 -6.8432e-07 0)
(0.0122593 -5.47278e-07 0)
(0.0122695 -4.35165e-07 0)
(0.0122783 -2.64452e-07 0)
(0.184651 0.0109636 0)
(0.176278 0.0104465 0)
(0.165313 0.00906554 0)
(0.153383 0.00746853 0)
(0.141736 0.00589593 0)
(0.130974 0.00449724 0)
(0.12131 0.00335792 0)
(0.112786 0.00249416 0)
(0.105349 0.0018736 0)
(0.0988967 0.00144241 0)
(0.0932976 0.00114576 0)
(0.0884204 0.000938773 0)
(0.0841451 0.000789603 0)
(0.0803698 0.000677669 0)
(0.0770107 0.00059039 0)
(0.074 0.000520199 0)
(0.0712835 0.000462444 0)
(0.0688175 0.000414123 0)
(0.0665666 0.000373178 0)
(0.0645022 0.000338116 0)
(0.0626005 0.000307814 0)
(0.0608419 0.000281407 0)
(0.0592102 0.000258216 0)
(0.0576916 0.000237707 0)
(0.0562743 0.000219454 0)
(0.0549485 0.000203112 0)
(0.0537056 0.000188404 0)
(0.0525382 0.000175102 0)
(0.0514398 0.000163019 0)
(0.0504049 0.000151996 0)
(0.0494285 0.000141901 0)
(0.0485063 0.000132622 0)
(0.0476346 0.000124063 0)
(0.0468099 0.000116142 0)
(0.0460292 0.000108788 0)
(0.0452899 0.000101937 0)
(0.0445897 9.55355e-05 0)
(0.0439264 8.95359e-05 0)
(0.0432983 8.38956e-05 0)
(0.0427036 7.85774e-05 0)
(0.0421409 7.35476e-05 0)
(0.041609 6.87767e-05 0)
(0.0411067 6.42378e-05 0)
(0.0406331 5.99071e-05 0)
(0.0401873 5.57631e-05 0)
(0.0397685 5.17865e-05 0)
(0.0393763 4.796e-05 0)
(0.03901 4.42677e-05 0)
(0.0386693 4.06956e-05 0)
(0.0383538 3.72301e-05 0)
(0.0380633 3.38584e-05 0)
(0.0377976 3.05675e-05 0)
(0.0375567 2.73431e-05 0)
(0.0373405 2.41697e-05 0)
(0.0371491 2.10296e-05 0)
(0.0369828 1.79039e-05 0)
(0.0368417 1.4774e-05 0)
(0.0367262 1.16236e-05 0)
(0.0366363 8.44005e-06 0)
(0.0365722 5.20891e-06 0)
(0.0365334 1.97149e-06 0)
(0.0365197 -9.45986e-07 0)
(0.0365283 -3.15942e-06 0)
(0.0365523 -4.61185e-06 0)
(0.036587 -5.55617e-06 0)
(0.0366286 -6.07375e-06 0)
(0.036674 -6.23353e-06 0)
(0.0367206 -6.11185e-06 0)
(0.0367664 -5.78285e-06 0)
(0.03681 -5.30956e-06 0)
(0.0368503 -4.73517e-06 0)
(0.0368866 -4.08693e-06 0)
(0.036918 -3.35808e-06 0)
(0.0369441 -2.64607e-06 0)
(0.0369648 -1.38537e-06 0)
(0.191324 0.0115756 0)
(0.19068 0.0118767 0)
(0.18775 0.011093 0)
(0.183025 0.00984735 0)
(0.177256 0.00842352 0)
(0.170978 0.00702704 0)
(0.164541 0.00579556 0)
(0.158182 0.00478339 0)
(0.152057 0.0039837 0)
(0.146246 0.00336091 0)
(0.140782 0.00287386 0)
(0.13567 0.00248722 0)
(0.130899 0.00217456 0)
(0.126451 0.00191731 0)
(0.122305 0.00170265 0)
(0.11844 0.00152151 0)
(0.114834 0.00136727 0)
(0.111468 0.00123493 0)
(0.108321 0.00112058 0)
(0.105375 0.00102113 0)
(0.102614 0.000934066 0)
(0.100022 0.000857396 0)
(0.0975852 0.000789478 0)
(0.0952916 0.000728981 0)
(0.0931295 0.000674811 0)
(0.0910887 0.000626068 0)
(0.0891601 0.000582008 0)
(0.0873355 0.000542008 0)
(0.0856076 0.000505546 0)
(0.0839697 0.000472183 0)
(0.082416 0.000441542 0)
(0.0809411 0.000413304 0)
(0.0795403 0.000387193 0)
(0.0782093 0.00036297 0)
(0.0769442 0.000340428 0)
(0.0757415 0.000319384 0)
(0.0745983 0.000299679 0)
(0.0735117 0.000281171 0)
(0.0724792 0.000263737 0)
(0.0714986 0.000247263 0)
(0.0705681 0.00023165 0)
(0.0696859 0.00021681 0)
(0.0688504 0.000202662 0)
(0.0680605 0.000189134 0)
(0.0673149 0.00017616 0)
(0.0666128 0.000163683 0)
(0.0659533 0.000151649 0)
(0.0653359 0.000140011 0)
(0.0647599 0.000128725 0)
(0.0642252 0.00011775 0)
(0.0637314 0.00010705 0)
(0.0632783 9.65888e-05 0)
(0.062866 8.633e-05 0)
(0.0624945 7.62387e-05 0)
(0.0621639 6.62815e-05 0)
(0.0618744 5.64305e-05 0)
(0.0616262 4.667e-05 0)
(0.0614191 3.70074e-05 0)
(0.0612528 2.7486e-05 0)
(0.0611264 1.81941e-05 0)
(0.061038 9.23673e-06 0)
(0.0609838 9.15657e-07 0)
(0.0609642 -5.8588e-06 0)
(0.0609731 -1.04388e-05 0)
(0.0610018 -1.32943e-05 0)
(0.0610439 -1.49102e-05 0)
(0.0610944 -1.5566e-05 0)
(0.0611493 -1.54694e-05 0)
(0.0612055 -1.48089e-05 0)
(0.0612607 -1.37484e-05 0)
(0.0613131 -1.24054e-05 0)
(0.0613613 -1.08527e-05 0)
(0.0614042 -9.08711e-06 0)
(0.0614406 -7.15952e-06 0)
(0.0614679 -3.48272e-06 0)
(0.193233 0.0110335 0)
(0.194878 0.0118085 0)
(0.195316 0.0115229 0)
(0.194407 0.0106877 0)
(0.192424 0.00956808 0)
(0.189645 0.00836895 0)
(0.186306 0.00724403 0)
(0.18262 0.00627099 0)
(0.178752 0.00546485 0)
(0.174818 0.00480732 0)
(0.170891 0.00426935 0)
(0.167012 0.00382319 0)
(0.163208 0.00344678 0)
(0.159496 0.00312409 0)
(0.155887 0.00284387 0)
(0.152388 0.00259816 0)
(0.149005 0.00238116 0)
(0.14574 0.00218846 0)
(0.142594 0.00201657 0)
(0.139567 0.00186263 0)
(0.136658 0.00172428 0)
(0.133864 0.0015995 0)
(0.131183 0.00148659 0)
(0.128611 0.00138409 0)
(0.126144 0.00129075 0)
(0.12378 0.00120549 0)
(0.121513 0.00112737 0)
(0.119341 0.0010556 0)
(0.117259 0.000989471 0)
(0.115263 0.000928366 0)
(0.113351 0.000871751 0)
(0.111519 0.000819155 0)
(0.109764 0.000770162 0)
(0.108083 0.000724404 0)
(0.106473 0.000681555 0)
(0.104932 0.000641324 0)
(0.103457 0.000603449 0)
(0.102046 0.000567697 0)
(0.100698 0.000533858 0)
(0.0994101 0.000501743 0)
(0.0981813 0.000471179 0)
(0.0970102 0.00044201 0)
(0.0958956 0.000414096 0)
(0.0948364 0.000387308 0)
(0.0938318 0.000361529 0)
(0.0928812 0.000336653 0)
(0.0919841 0.000312583 0)
(0.09114 0.000289232 0)
(0.0903486 0.000266521 0)
(0.08961 0.000244376 0)
(0.0889241 0.000222732 0)
(0.0882909 0.000201525 0)
(0.0877108 0.0001807 0)
(0.0871839 0.000160208 0)
(0.0867105 0.000140009 0)
(0.0862908 0.000120085 0)
(0.0859248 0.000100452 0)
(0.0856122 8.11808e-05 0)
(0.0853522 6.24229e-05 0)
(0.0851429 4.44419e-05 0)
(0.0849813 2.76041e-05 0)
(0.0848627 1.22648e-05 0)
(0.0847802 -1.0491e-06 0)
(0.0847372 -1.13418e-05 0)
(0.0847268 -1.82485e-05 0)
(0.0847396 -2.23924e-05 0)
(0.0847687 -2.452e-05 0)
(0.0848085 -2.51532e-05 0)
(0.0848547 -2.46662e-05 0)
(0.0849039 -2.33585e-05 0)
(0.0849534 -2.14497e-05 0)
(0.0850011 -1.90837e-05 0)
(0.0850451 -1.62656e-05 0)
(0.0850838 -1.28639e-05 0)
(0.0851113 -5.93976e-06 0)
(0.194075 0.0103772 0)
(0.196133 0.0113103 0)
(0.197672 0.0112941 0)
(0.19838 0.0107437 0)
(0.198302 0.00988984 0)
(0.197543 0.00890846 0)
(0.196222 0.00794242 0)
(0.194476 0.00707529 0)
(0.192433 0.00633461 0)
(0.190191 0.00571426 0)
(0.187818 0.00519457 0)
(0.185356 0.00475405 0)
(0.182833 0.0043745 0)
(0.180272 0.00404223 0)
(0.177689 0.00374749 0)
(0.175096 0.00348339 0)
(0.172506 0.00324497 0)
(0.16993 0.0030285 0)
(0.167375 0.00283111 0)
(0.164849 0.00265044 0)
(0.162358 0.00248456 0)
(0.159908 0.00233183 0)
(0.157503 0.00219086 0)
(0.155147 0.00206042 0)
(0.152842 0.00193948 0)
(0.150591 0.0018271 0)
(0.148395 0.00172247 0)
(0.146256 0.00162487 0)
(0.144174 0.00153366 0)
(0.14215 0.00144825 0)
(0.140184 0.00136814 0)
(0.138276 0.00129284 0)
(0.136427 0.00122193 0)
(0.134635 0.00115503 0)
(0.132901 0.00109178 0)
(0.131225 0.00103187 0)
(0.129606 0.000974991 0)
(0.128043 0.000920879 0)
(0.126536 0.000869283 0)
(0.125086 0.000819973 0)
(0.123691 0.000772736 0)
(0.122351 0.000727376 0)
(0.121067 0.000683712 0)
(0.119838 0.000641577 0)
(0.118665 0.000600817 0)
(0.117547 0.000561288 0)
(0.116485 0.000522862 0)
(0.115478 0.000485417 0)
(0.114529 0.000448847 0)
(0.113636 0.000413051 0)
(0.1128 0.000377941 0)
(0.112023 0.000343437 0)
(0.111305 0.000309472 0)
(0.110646 0.000275997 0)
(0.110047 0.000242985 0)
(0.109509 0.000210454 0)
(0.109032 0.000178481 0)
(0.108614 0.000147235 0)
(0.108256 0.000117016 0)
(0.107955 8.82865e-05 0)
(0.107708 6.16805e-05 0)
(0.10751 3.78521e-05 0)
(0.107355 1.71463e-05 0)
(0.107234 -1.50401e-07 0)
(0.107152 -1.34186e-05 0)
(0.107106 -2.24767e-05 0)
(0.107085 -2.79377e-05 0)
(0.107084 -3.06929e-05 0)
(0.107097 -3.14721e-05 0)
(0.107119 -3.0802e-05 0)
(0.107147 -2.90424e-05 0)
(0.107179 -2.64295e-05 0)
(0.10721 -2.29812e-05 0)
(0.10724 -1.83045e-05 0)
(0.107258 -8.05547e-06 0)
(0.194657 0.00975675 0)
(0.196587 0.0107113 0)
(0.198332 0.0108385 0)
(0.199577 0.010472 0)
(0.200288 0.00981415 0)
(0.200497 0.00901329 0)
(0.200257 0.00819428 0)
(0.19965 0.00743776 0)
(0.198764 0.00677691 0)
(0.197673 0.00621338 0)
(0.196429 0.00573438 0)
(0.195064 0.00532345 0)
(0.193603 0.00496566 0)
(0.192059 0.00464931 0)
(0.190446 0.00436578 0)
(0.188774 0.00410892 0)
(0.187052 0.00387427 0)
(0.185289 0.00365852 0)
(0.183493 0.00345912 0)
(0.181671 0.00327407 0)
(0.17983 0.00310171 0)
(0.177978 0.0029407 0)
(0.176118 0.00278989 0)
(0.174258 0.0026483 0)
(0.172401 0.00251508 0)
(0.170553 0.00238952 0)
(0.168717 0.00227097 0)
(0.166897 0.00215885 0)
(0.165097 0.00205265 0)
(0.163319 0.00195191 0)
(0.161566 0.00185622 0)
(0.159841 0.00176518 0)
(0.158145 0.00167845 0)
(0.156481 0.00159569 0)
(0.154851 0.00151661 0)
(0.153256 0.00144091 0)
(0.151698 0.00136833 0)
(0.150178 0.00129863 0)
(0.148698 0.00123155 0)
(0.147258 0.00116689 0)
(0.14586 0.00110443 0)
(0.144506 0.00104398 0)
(0.143196 0.00098535 0)
(0.141931 0.000928362 0)
(0.140713 0.000872855 0)
(0.139543 0.000818676 0)
(0.138422 0.000765682 0)
(0.137352 0.000713742 0)
(0.136334 0.000662736 0)
(0.135368 0.000612557 0)
(0.134457 0.000563109 0)
(0.133602 0.000514312 0)
(0.132803 0.000466106 0)
(0.132063 0.00041846 0)
(0.131383 0.000371386 0)
(0.130762 0.000324956 0)
(0.130203 0.000279338 0)
(0.129704 0.000234825 0)
(0.129264 0.000191879 0)
(0.128883 0.000151157 0)
(0.128556 0.000113501 0)
(0.128281 7.97936e-05 0)
(0.128052 5.06668e-05 0)
(0.127864 2.61384e-05 0)
(0.127708 6.12274e-06 0)
(0.127583 -9.35129e-06 0)
(0.127493 -2.0332e-05 0)
(0.127431 -2.72432e-05 0)
(0.127391 -3.09692e-05 0)
(0.127367 -3.23054e-05 0)
(0.127356 -3.1843e-05 0)
(0.127354 -2.99642e-05 0)
(0.127358 -2.67233e-05 0)
(0.127365 -2.14764e-05 0)
(0.127364 -8.74014e-06 0)
(0.195151 0.00919404 0)
(0.196844 0.0101181 0)
(0.198502 0.0103302 0)
(0.199842 0.0100889 0)
(0.200808 0.00957291 0)
(0.201405 0.00891051 0)
(0.201661 0.0082102 0)
(0.201628 0.00754709 0)
(0.20137 0.00695673 0)
(0.200941 0.00644611 0)
(0.200382 0.00600767 0)
(0.199719 0.00562902 0)
(0.198968 0.00529792 0)
(0.198139 0.00500422 0)
(0.19724 0.00474017 0)
(0.196276 0.00450005 0)
(0.195253 0.00427967 0)
(0.194175 0.00407589 0)
(0.193048 0.0038863 0)
(0.191876 0.00370901 0)
(0.190664 0.00354251 0)
(0.189415 0.00338558 0)
(0.188136 0.00323719 0)
(0.186829 0.00309648 0)
(0.185499 0.00296275 0)
(0.18415 0.00283536 0)
(0.182786 0.0027138 0)
(0.18141 0.00259759 0)
(0.180026 0.00248631 0)
(0.178637 0.00237962 0)
(0.177247 0.00227716 0)
(0.175859 0.00217865 0)
(0.174474 0.00208379 0)
(0.173098 0.00199233 0)
(0.171731 0.00190403 0)
(0.170377 0.00181866 0)
(0.169038 0.00173599 0)
(0.167716 0.00165582 0)
(0.166415 0.00157795 0)
(0.165135 0.00150219 0)
(0.163879 0.00142837 0)
(0.16265 0.00135629 0)
(0.161449 0.0012858 0)
(0.160278 0.00121673 0)
(0.15914 0.00114894 0)
(0.158037 0.00108228 0)
(0.156971 0.00101661 0)
(0.155943 0.000951814 0)
(0.154956 0.000887777 0)
(0.154012 0.000824398 0)
(0.153113 0.000761596 0)
(0.152261 0.000699307 0)
(0.151457 0.000637496 0)
(0.150704 0.00057617 0)
(0.150004 0.000515395 0)
(0.149357 0.000455322 0)
(0.148764 0.000396222 0)
(0.148226 0.000338524 0)
(0.147742 0.000282854 0)
(0.147311 0.000230043 0)
(0.146931 0.000181095 0)
(0.1466 0.000137037 0)
(0.146313 9.86454e-05 0)
(0.146066 6.61981e-05 0)
(0.145856 3.94769e-05 0)
(0.145677 1.79144e-05 0)
(0.145521 1.16015e-06 0)
(0.145393 -1.11396e-05 0)
(0.145293 -1.94947e-05 0)
(0.145214 -2.44455e-05 0)
(0.145154 -2.66984e-05 0)
(0.145109 -2.67829e-05 0)
(0.145074 -2.48481e-05 0)
(0.145049 -2.01216e-05 0)
(0.145018 -6.6238e-06 0)
(0.195597 0.00869644 0)
(0.197058 0.00956809 0)
(0.198554 0.00983326 0)
(0.199838 0.0096838 0)
(0.200841 0.00927553 0)
(0.20156 0.00872145 0)
(0.202012 0.00811634 0)
(0.202235 0.00752924 0)
(0.202278 0.0069966 0)
(0.202185 0.00652936 0)
(0.201992 0.00612426 0)
(0.201718 0.0057724 0)
(0.201378 0.00546392 0)
(0.20098 0.00519014 0)
(0.200527 0.00494407 0)
(0.200024 0.00472041 0)
(0.199472 0.00451514 0)
(0.198873 0.00432519 0)
(0.19823 0.0041482 0)
(0.197545 0.0039823 0)
(0.19682 0.003826 0)
(0.196057 0.00367809 0)
(0.195258 0.00353757 0)
(0.194426 0.00340361 0)
(0.193563 0.00327552 0)
(0.192671 0.00315272 0)
(0.191753 0.00303471 0)
(0.190811 0.00292106 0)
(0.189849 0.0028114 0)
(0.188867 0.00270541 0)
(0.187869 0.00260279 0)
(0.186858 0.00250329 0)
(0.185836 0.00240666 0)
(0.184805 0.00231269 0)
(0.183767 0.00222116 0)
(0.182726 0.00213189 0)
(0.181684 0.00204469 0)
(0.180643 0.00195939 0)
(0.179605 0.00187582 0)
(0.178573 0.00179382 0)
(0.17755 0.00171322 0)
(0.176537 0.00163387 0)
(0.175537 0.00155564 0)
(0.174553 0.00147837 0)
(0.173586 0.00140193 0)
(0.17264 0.0013262 0)
(0.171716 0.00125105 0)
(0.170818 0.00117638 0)
(0.169947 0.00110209 0)
(0.169106 0.0010281 0)
(0.168297 0.000954348 0)
(0.167522 0.000880797 0)
(0.166785 0.000807451 0)
(0.166086 0.000734364 0)
(0.165429 0.000661667 0)
(0.164814 0.000589597 0)
(0.164242 0.000518533 0)
(0.163715 0.000449037 0)
(0.163233 0.00038188 0)
(0.162794 0.000318045 0)
(0.162398 0.000258665 0)
(0.162044 0.000204856 0)
(0.161728 0.000157477 0)
(0.161448 0.000116916 0)
(0.161203 8.30632e-05 0)
(0.160987 5.54886e-05 0)
(0.160798 3.34982e-05 0)
(0.160632 1.62743e-05 0)
(0.160485 3.30854e-06 0)
(0.160358 -5.89985e-06 0)
(0.160251 -1.19321e-05 0)
(0.160163 -1.51311e-05 0)
(0.160089 -1.56176e-05 0)
(0.160028 -1.26613e-05 0)
(0.159966 -6.68477e-07 0)
(0.196002 0.00825808 0)
(0.197262 0.00906746 0)
(0.198591 0.00936521 0)
(0.199776 0.00928734 0)
(0.200742 0.00896615 0)
(0.201476 0.00850141 0)
(0.201992 0.00797618 0)
(0.202317 0.00745332 0)
(0.202492 0.00696919 0)
(0.202556 0.00653773 0)
(0.202538 0.00615931 0)
(0.202459 0.00582816 0)
(0.202332 0.0055367 0)
(0.202163 0.00527768 0)
(0.201956 0.00504501 0)
(0.201715 0.00483382 0)
(0.201441 0.00464033 0)
(0.201134 0.00446159 0)
(0.200795 0.00429527 0)
(0.200426 0.0041395 0)
(0.200026 0.00399279 0)
(0.199596 0.00385391 0)
(0.199136 0.00372184 0)
(0.198649 0.00359573 0)
(0.198134 0.00347488 0)
(0.197593 0.00335868 0)
(0.197026 0.00324663 0)
(0.196435 0.00313829 0)
(0.195821 0.0030333 0)
(0.195186 0.00293131 0)
(0.19453 0.00283203 0)
(0.193856 0.00273522 0)
(0.193165 0.00264064 0)
(0.192458 0.00254807 0)
(0.191738 0.00245732 0)
(0.191006 0.00236821 0)
(0.190263 0.00228055 0)
(0.189513 0.00219419 0)
(0.188756 0.00210896 0)
(0.187994 0.00202471 0)
(0.187231 0.00194131 0)
(0.186466 0.00185859 0)
(0.185704 0.00177643 0)
(0.184946 0.0016947 0)
(0.184194 0.00161327 0)
(0.18345 0.00153203 0)
(0.182716 0.00145086 0)
(0.181996 0.00136967 0)
(0.181291 0.00128837 0)
(0.180603 0.00120692 0)
(0.179935 0.00112525 0)
(0.17929 0.00104338 0)
(0.178668 0.000961332 0)
(0.178073 0.000879218 0)
(0.177507 0.000797232 0)
(0.176971 0.00071569 0)
(0.176466 0.000635072 0)
(0.175993 0.000556053 0)
(0.175553 0.000479526 0)
(0.175146 0.000406592 0)
(0.174771 0.000338474 0)
(0.174429 0.000276356 0)
(0.174116 0.000221144 0)
(0.173834 0.000173284 0)
(0.173579 0.000132753 0)
(0.17335 9.91746e-05 0)
(0.173146 7.18913e-05 0)
(0.172963 5.01583e-05 0)
(0.172799 3.3206e-05 0)
(0.172652 2.02304e-05 0)
(0.172521 1.06733e-05 0)
(0.172403 4.24564e-06 0)
(0.172299 8.38076e-07 0)
(0.17221 1.06695e-06 0)
(0.172121 9.19019e-06 0)
(0.19637 0.00786982 0)
(0.197461 0.00861366 0)
(0.198636 0.00892941 0)
(0.199715 0.0089088 0)
(0.20062 0.00866077 0)
(0.201334 0.0082727 0)
(0.201861 0.00781733 0)
(0.202223 0.00735143 0)
(0.202455 0.00691045 0)
(0.202588 0.00651044 0)
(0.202651 0.00615479 0)
(0.202663 0.0058405 0)
(0.202636 0.00556211 0)
(0.202579 0.00531386 0)
(0.202495 0.00509057 0)
(0.202388 0.00488792 0)
(0.20226 0.00470245 0)
(0.202111 0.00453139 0)
(0.201943 0.00437249 0)
(0.201754 0.00422394 0)
(0.201545 0.00408427 0)
(0.201317 0.00395223 0)
(0.201069 0.0038268 0)
(0.200801 0.00370712 0)
(0.200514 0.00359245 0)
(0.200207 0.00348218 0)
(0.199882 0.00337577 0)
(0.199537 0.00327276 0)
(0.199174 0.00317276 0)
(0.198793 0.00307541 0)
(0.198395 0.00298042 0)
(0.197979 0.00288749 0)
(0.197548 0.00279639 0)
(0.197101 0.00270688 0)
(0.196639 0.00261876 0)
(0.196164 0.00253182 0)
(0.195677 0.0024459 0)
(0.195178 0.0023608 0)
(0.19467 0.00227638 0)
(0.194152 0.00219246 0)
(0.193627 0.00210889 0)
(0.193096 0.00202554 0)
(0.192561 0.00194225 0)
(0.192023 0.0018589 0)
(0.191483 0.00177536 0)
(0.190945 0.00169151 0)
(0.190408 0.00160725 0)
(0.189875 0.00152249 0)
(0.189349 0.00143714 0)
(0.18883 0.00135116 0)
(0.188322 0.00126453 0)
(0.187825 0.00117726 0)
(0.187342 0.00108942 0)
(0.186874 0.00100115 0)
(0.186423 0.000912719 0)
(0.185991 0.000824498 0)
(0.185579 0.000737045 0)
(0.185188 0.000651126 0)
(0.184818 0.000567722 0)
(0.18447 0.000488011 0)
(0.184144 0.000413275 0)
(0.183839 0.000344734 0)
(0.183557 0.000283327 0)
(0.183297 0.000229546 0)
(0.183057 0.000183423 0)
(0.182838 0.000144632 0)
(0.182638 0.000112582 0)
(0.182457 8.65492e-05 0)
(0.182292 6.57346e-05 0)
(0.182142 4.93833e-05 0)
(0.182005 3.68768e-05 0)
(0.181881 2.7714e-05 0)
(0.181768 2.16566e-05 0)
(0.181668 1.91069e-05 0)
(0.181563 2.21775e-05 0)
(0.196705 0.00752362 0)
(0.197654 0.00820279 0)
(0.198691 0.0085257 0)
(0.199668 0.00855072 0)
(0.200509 0.00836493 0)
(0.201188 0.00804378 0)
(0.201707 0.00765087 0)
(0.202081 0.00723704 0)
(0.202337 0.00683614 0)
(0.202503 0.00646553 0)
(0.202605 0.006131 0)
(0.202659 0.00583191 0)
(0.202679 0.00556474 0)
(0.202673 0.00532513 0)
(0.202647 0.00510886 0)
(0.202605 0.00491221 0)
(0.202547 0.00473211 0)
(0.202476 0.004566 0)
(0.202393 0.00441182 0)
(0.202297 0.00426783 0)
(0.20219 0.00413261 0)
(0.202071 0.00400496 0)
(0.201941 0.00388387 0)
(0.201798 0.00376848 0)
(0.201644 0.00365806 0)
(0.201478 0.00355198 0)
(0.2013 0.00344969 0)
(0.201109 0.00335071 0)
(0.200906 0.00325463 0)
(0.200691 0.00316109 0)
(0.200463 0.00306975 0)
(0.200224 0.00298031 0)
(0.199972 0.00289251 0)
(0.199709 0.0028061 0)
(0.199433 0.00272085 0)
(0.199147 0.00263654 0)
(0.19885 0.00255298 0)
(0.198543 0.00246997 0)
(0.198226 0.00238733 0)
(0.197901 0.00230488 0)
(0.197567 0.00222247 0)
(0.197225 0.00213992 0)
(0.196877 0.0020571 0)
(0.196524 0.00197384 0)
(0.196166 0.00189002 0)
(0.195805 0.00180551 0)
(0.195442 0.0017202 0)
(0.195078 0.00163399 0)
(0.194714 0.00154681 0)
(0.194352 0.00145861 0)
(0.193993 0.00136937 0)
(0.193639 0.00127913 0)
(0.19329 0.00118798 0)
(0.192949 0.00109609 0)
(0.192616 0.00100376 0)
(0.192292 0.000911414 0)
(0.191979 0.000819667 0)
(0.191678 0.00072934 0)
(0.191388 0.000641467 0)
(0.191111 0.000557266 0)
(0.190846 0.000478043 0)
(0.190595 0.000405028 0)
(0.190358 0.000339175 0)
(0.190135 0.000281011 0)
(0.189927 0.000230621 0)
(0.189734 0.000187732 0)
(0.189554 0.000151805 0)
(0.189389 0.000122153 0)
(0.189236 9.80182e-05 0)
(0.189096 7.86689e-05 0)
(0.188967 6.34508e-05 0)
(0.188848 5.18244e-05 0)
(0.188739 4.34842e-05 0)
(0.18864 3.85133e-05 0)
(0.188534 3.67485e-05 0)
(0.197009 0.00721289 0)
(0.197838 0.00783063 0)
(0.198755 0.00815267 0)
(0.199637 0.00821343 0)
(0.200413 0.00808049 0)
(0.201054 0.00781802 0)
(0.201557 0.00748135 0)
(0.201932 0.00711567 0)
(0.2022 0.00675276 0)
(0.202384 0.00641058 0)
(0.202505 0.0060967 0)
(0.202582 0.00581245 0)
(0.202626 0.00555603 0)
(0.202645 0.00532436 0)
(0.202647 0.00511415 0)
(0.202633 0.00492233 0)
(0.202608 0.00474621 0)
(0.202574 0.00458354 0)
(0.202531 0.00443241 0)
(0.20248 0.00429124 0)
(0.202422 0.00415868 0)
(0.202357 0.0040336 0)
(0.202286 0.00391502 0)
(0.202209 0.00380212 0)
(0.202125 0.00369417 0)
(0.202034 0.00359057 0)
(0.201937 0.00349077 0)
(0.201833 0.00339428 0)
(0.201722 0.0033007 0)
(0.201604 0.00320964 0)
(0.201479 0.00312076 0)
(0.201346 0.00303375 0)
(0.201206 0.00294833 0)
(0.201059 0.00286424 0)
(0.200904 0.00278123 0)
(0.200741 0.00269908 0)
(0.200571 0.00261756 0)
(0.200394 0.00253647 0)
(0.20021 0.00245561 0)
(0.200019 0.00237478 0)
(0.199821 0.00229381 0)
(0.199617 0.00221251 0)
(0.199407 0.00213073 0)
(0.199192 0.0020483 0)
(0.198971 0.00196507 0)
(0.198747 0.0018809 0)
(0.198519 0.00179568 0)
(0.198288 0.0017093 0)
(0.198054 0.00162168 0)
(0.19782 0.00153277 0)
(0.197584 0.00144256 0)
(0.197349 0.00135108 0)
(0.197115 0.00125844 0)
(0.196882 0.00116484 0)
(0.196652 0.00107059 0)
(0.196426 0.000976154 0)
(0.196203 0.000882171 0)
(0.195985 0.000789492 0)
(0.195771 0.000699171 0)
(0.195563 0.000612431 0)
(0.195361 0.000530571 0)
(0.195165 0.000454807 0)
(0.194977 0.000386091 0)
(0.194798 0.000324975 0)
(0.194627 0.000271591 0)
(0.194466 0.000225718 0)
(0.194315 0.000186877 0)
(0.194174 0.000154427 0)
(0.194042 0.000127656 0)
(0.193919 0.000105854 0)
(0.193805 8.83797e-05 0)
(0.193699 7.46892e-05 0)
(0.193601 6.43982e-05 0)
(0.193511 5.72606e-05 0)
(0.193413 5.13932e-05 0)
(0.197286 0.00693223 0)
(0.198014 0.00749306 0)
(0.198825 0.00780852 0)
(0.19962 0.00789655 0)
(0.200333 0.00780818 0)
(0.200936 0.00759706 0)
(0.201419 0.00731098 0)
(0.201789 0.00698988 0)
(0.202062 0.00666312 0)
(0.202256 0.00634869 0)
(0.202392 0.00605541 0)
(0.202482 0.00578621 0)
(0.20254 0.00554072 0)
(0.202574 0.00531707 0)
(0.20259 0.00511282 0)
(0.202591 0.00492552 0)
(0.202582 0.00475292 0)
(0.202565 0.00459306 0)
(0.20254 0.00444423 0)
(0.20251 0.004305 0)
(0.202475 0.00417413 0)
(0.202435 0.00405056 0)
(0.202392 0.00393338 0)
(0.202346 0.00382179 0)
(0.202296 0.00371513 0)
(0.202243 0.00361279 0)
(0.202186 0.00351424 0)
(0.202127 0.00341903 0)
(0.202064 0.00332673 0)
(0.201997 0.00323698 0)
(0.201928 0.00314943 0)
(0.201854 0.00306377 0)
(0.201777 0.00297971 0)
(0.201696 0.00289699 0)
(0.201611 0.00281536 0)
(0.201522 0.00273457 0)
(0.201429 0.0026544 0)
(0.201332 0.00257462 0)
(0.20123 0.00249504 0)
(0.201124 0.00241544 0)
(0.201014 0.00233563 0)
(0.200899 0.00225543 0)
(0.200781 0.00217465 0)
(0.200658 0.00209312 0)
(0.200532 0.00201068 0)
(0.200402 0.00192719 0)
(0.200268 0.00184251 0)
(0.200132 0.00175653 0)
(0.199993 0.00166917 0)
(0.199851 0.00158037 0)
(0.199707 0.00149012 0)
(0.199561 0.00139846 0)
(0.199413 0.0013055 0)
(0.199265 0.00121144 0)
(0.199115 0.00111663 0)
(0.198965 0.00102152 0)
(0.198815 0.000926772 0)
(0.198664 0.000833242 0)
(0.198514 0.000741975 0)
(0.198365 0.000654173 0)
(0.198216 0.000571099 0)
(0.19807 0.000493938 0)
(0.197927 0.000423625 0)
(0.197788 0.000360725 0)
(0.197653 0.000305409 0)
(0.197525 0.000257509 0)
(0.197403 0.000216603 0)
(0.197287 0.000182105 0)
(0.197178 0.000153349 0)
(0.197076 0.000129663 0)
(0.19698 0.000110424 0)
(0.19689 9.50862e-05 0)
(0.196806 8.31935e-05 0)
(0.196729 7.42298e-05 0)
(0.196642 6.53325e-05 0)
(0.197538 0.00667728 0)
(0.198181 0.00718624 0)
(0.198899 0.00749128 0)
(0.199614 0.00759946 0)
(0.200268 0.00754835 0)
(0.200832 0.00738194 0)
(0.201293 0.0071412 0)
(0.201655 0.00686119 0)
(0.201929 0.00656871 0)
(0.202131 0.00628132 0)
(0.202275 0.00600863 0)
(0.202376 0.00575478 0)
(0.202444 0.00552065 0)
(0.202488 0.00530539 0)
(0.202513 0.00510739 0)
(0.202524 0.00492477 0)
(0.202524 0.00475572 0)
(0.202515 0.00459857 0)
(0.2025 0.00445185 0)
(0.20248 0.00431425 0)
(0.202456 0.00418468 0)
(0.202428 0.00406215 0)
(0.202398 0.00394582 0)
(0.202366 0.00383496 0)
(0.202331 0.00372892 0)
(0.202295 0.00362714 0)
(0.202258 0.00352911 0)
(0.20222 0.0034344 0)
(0.20218 0.0033426 0)
(0.202139 0.00325334 0)
(0.202097 0.00316631 0)
(0.202053 0.00308119 0)
(0.202009 0.00299769 0)
(0.201962 0.00291556 0)
(0.201915 0.00283453 0)
(0.201865 0.00275438 0)
(0.201814 0.00267487 0)
(0.201761 0.00259577 0)
(0.201707 0.00251687 0)
(0.20165 0.00243797 0)
(0.201591 0.00235886 0)
(0.201529 0.00227935 0)
(0.201466 0.00219925 0)
(0.2014 0.00211839 0)
(0.201332 0.0020366 0)
(0.201261 0.00195371 0)
(0.201188 0.00186961 0)
(0.201112 0.00178417 0)
(0.201034 0.00169729 0)
(0.200954 0.00160893 0)
(0.200871 0.00151907 0)
(0.200785 0.00142776 0)
(0.200697 0.0013351 0)
(0.200607 0.00124132 0)
(0.200514 0.00114673 0)
(0.200419 0.00105183 0)
(0.200321 0.000957254 0)
(0.200221 0.000863848 0)
(0.200118 0.000772629 0)
(0.200013 0.00068476 0)
(0.199906 0.000601454 0)
(0.199799 0.000523846 0)
(0.199691 0.000452843 0)
(0.199585 0.000389014 0)
(0.199481 0.000332559 0)
(0.19938 0.000283361 0)
(0.199283 0.000241051 0)
(0.19919 0.000205102 0)
(0.199102 0.000174896 0)
(0.199019 0.000149803 0)
(0.19894 0.000129221 0)
(0.198866 0.000112607 0)
(0.198796 9.94511e-05 0)
(0.198731 8.90476e-05 0)
(0.198655 7.82188e-05 0)
(0.197769 0.00644453 0)
(0.198337 0.00690674 0)
(0.198974 0.00719894 0)
(0.199617 0.00732145 0)
(0.200216 0.00730111 0)
(0.200741 0.00717342 0)
(0.201179 0.00697311 0)
(0.201531 0.00673078 0)
(0.201803 0.00647061 0)
(0.202009 0.0062094 0)
(0.20216 0.00595714 0)
(0.202269 0.0057189 0)
(0.202346 0.00549655 0)
(0.202397 0.00529014 0)
(0.20243 0.00509878 0)
(0.202447 0.00492118 0)
(0.202454 0.00475592 0)
(0.202451 0.00460165 0)
(0.202442 0.0044571 0)
(0.202428 0.00432115 0)
(0.202409 0.00419281 0)
(0.202388 0.0040712 0)
(0.202364 0.00395554 0)
(0.202338 0.00384516 0)
(0.202311 0.00373946 0)
(0.202284 0.00363792 0)
(0.202255 0.00354005 0)
(0.202226 0.00344544 0)
(0.202197 0.0033537 0)
(0.202168 0.0032645 0)
(0.202139 0.0031775 0)
(0.202109 0.00309242 0)
(0.20208 0.00300898 0)
(0.20205 0.00292691 0)
(0.202021 0.00284598 0)
(0.201991 0.00276595 0)
(0.201961 0.00268658 0)
(0.201931 0.00260765 0)
(0.201901 0.00252897 0)
(0.20187 0.0024503 0)
(0.201838 0.00237146 0)
(0.201806 0.00229225 0)
(0.201772 0.00221248 0)
(0.201738 0.00213197 0)
(0.201702 0.00205056 0)
(0.201666 0.00196808 0)
(0.201627 0.0018844 0)
(0.201588 0.00179941 0)
(0.201546 0.001713 0)
(0.201502 0.00162514 0)
(0.201457 0.0015358 0)
(0.201409 0.00144503 0)
(0.201358 0.00135295 0)
(0.201305 0.00125977 0)
(0.201248 0.00116583 0)
(0.201188 0.0010716 0)
(0.201125 0.000977712 0)
(0.201058 0.000884984 0)
(0.200987 0.000794397 0)
(0.200913 0.000707059 0)
(0.200836 0.000624122 0)
(0.200756 0.000546665 0)
(0.200675 0.000475559 0)
(0.200593 0.000411365 0)
(0.200511 0.000354309 0)
(0.200432 0.000304314 0)
(0.200354 0.000261067 0)
(0.200279 0.000224094 0)
(0.200208 0.00019283 0)
(0.20014 0.000166682 0)
(0.200075 0.000145079 0)
(0.200013 0.000127481 0)
(0.199955 0.000113343 0)
(0.1999 0.000101856 0)
(0.199835 9.00074e-05 0)
(0.197979 0.00623114 0)
(0.198484 0.00665149 0)
(0.19905 0.00692956 0)
(0.199628 0.00706169 0)
(0.200175 0.00706649 0)
(0.200662 0.00697209 0)
(0.201077 0.00680766 0)
(0.201416 0.00659966 0)
(0.201684 0.00636974 0)
(0.201891 0.00613368 0)
(0.202047 0.00590155 0)
(0.202163 0.00567902 0)
(0.202246 0.00546878 0)
(0.202304 0.00527163 0)
(0.202343 0.00508735 0)
(0.202367 0.00491513 0)
(0.202378 0.00475399 0)
(0.202381 0.00460284 0)
(0.202376 0.00446067 0)
(0.202366 0.0043265 0)
(0.202352 0.00419949 0)
(0.202334 0.00407883 0)
(0.202314 0.00396385 0)
(0.202292 0.00385392 0)
(0.202269 0.00374849 0)
(0.202246 0.00364708 0)
(0.202221 0.00354923 0)
(0.202197 0.00345456 0)
(0.202173 0.0033627 0)
(0.202149 0.00327333 0)
(0.202126 0.00318614 0)
(0.202103 0.00310084 0)
(0.20208 0.00301718 0)
(0.202059 0.0029349 0)
(0.202038 0.00285376 0)
(0.202017 0.00277354 0)
(0.201997 0.002694 0)
(0.201978 0.00261494 0)
(0.201959 0.00253614 0)
(0.20194 0.00245741 0)
(0.201922 0.00237853 0)
(0.201904 0.00229933 0)
(0.201886 0.00221961 0)
(0.201868 0.0021392 0)
(0.201849 0.00205793 0)
(0.20183 0.00197564 0)
(0.20181 0.00189222 0)
(0.20179 0.00180753 0)
(0.201768 0.00172149 0)
(0.201745 0.00163406 0)
(0.20172 0.00154522 0)
(0.201693 0.00145503 0)
(0.201663 0.0013636 0)
(0.201631 0.00127115 0)
(0.201596 0.00117802 0)
(0.201558 0.00108467 0)
(0.201515 0.000991708 0)
(0.201469 0.00089993 0)
(0.201418 0.000810268 0)
(0.201363 0.000723773 0)
(0.201305 0.000641532 0)
(0.201243 0.000564561 0)
(0.20118 0.000493691 0)
(0.201114 0.000429471 0)
(0.201049 0.000372145 0)