/*--------------------------------*- C++ -*----------------------------------*\
| =========                 |                                                 |
| \\      /  F ield         | OpenFOAM: The Open Source CFD Toolbox           |
|  \\    /   O peration     | Version:  2.3.0                                 |
|   \\  /    A nd           | Web:      www.OpenFOAM.org                      |
|    \\/     M anipulation  |                                                 |
\*---------------------------------------------------------------------------*/
FoamFile
{
    version     2.0;
    format      ascii;
    class       surfaceScalarField;
    location    "0.45";
    object      phi;
}
// * * * * * * * * * * * * * * * * * * * * * * * * * * * * * * * * * * * * * //

dimensions      [0 3 -1 0 0 0 0];

internalField   nonuniform List<scalar> 
396
(
1.3211e-07
2.76067e-09
-1.3487e-07
1.2829e-07
3.81932e-09
1.2422e-07
4.07056e-09
1.20083e-07
4.13642e-09
1.15607e-07
4.47591e-09
1.10954e-07
4.6533e-09
1.06333e-07
4.62107e-09
1.016e-07
4.73282e-09
9.66947e-08
4.90551e-09
9.15934e-08
5.10125e-09
8.62009e-08
5.39247e-09
8.08175e-08
5.38343e-09
7.5658e-08
5.15951e-09
7.03723e-08
5.28573e-09
6.47881e-08
5.58414e-09
5.94678e-08
5.32037e-09
5.48051e-08
4.66272e-09
5.0522e-08
4.28303e-09
4.6603e-08
3.919e-09
4.35217e-08
3.08138e-09
4.14515e-08
2.07014e-09
4.027e-08
1.18153e-09
3.98113e-08
4.58716e-10
4.02856e-08
-4.74337e-10
-6.21836e-10
1.61778e-07
2.59558e-09
-1.61613e-07
1.61932e-07
3.66497e-09
1.6189e-07
4.1124e-09
1.61704e-07
4.32274e-09
1.613e-07
4.88015e-09
1.60579e-07
5.37406e-09
1.59612e-07
5.58812e-09
1.58595e-07
5.74982e-09
1.57446e-07
6.05505e-09
1.56094e-07
6.45315e-09
1.54425e-07
7.06148e-09
1.52495e-07
7.31309e-09
1.50413e-07
7.24172e-09
1.48237e-07
7.46116e-09
1.45736e-07
8.08554e-09
1.43129e-07
7.92753e-09
1.40545e-07
7.24617e-09
1.37827e-07
7.00088e-09
1.35061e-07
6.68557e-09
1.32457e-07
5.68495e-09
1.30359e-07
4.16881e-09
1.28472e-07
3.068e-09
1.2699e-07
1.9411e-09
1.26013e-07
5.02872e-10
-1.65074e-10
1.92732e-07
2.49396e-09
-1.92631e-07
1.92986e-07
3.41108e-09
1.93248e-07
3.85112e-09
1.93442e-07
4.12874e-09
1.93638e-07
4.68338e-09
1.93736e-07
5.27659e-09
1.93629e-07
5.69509e-09
1.93544e-07
5.83412e-09
1.93514e-07
6.08573e-09
1.93457e-07
6.50985e-09
1.93323e-07
7.19554e-09
1.93114e-07
7.52169e-09
1.92747e-07
7.60895e-09
1.92411e-07
7.79778e-09
1.92086e-07
8.40993e-09
1.91656e-07
8.35773e-09
1.91131e-07
7.77081e-09
1.90513e-07
7.61904e-09
1.89851e-07
7.34787e-09
1.88978e-07
6.55771e-09
1.88189e-07
4.95788e-09
1.874e-07
3.85687e-09
1.86689e-07
2.65211e-09
1.85997e-07
1.19465e-09
3.07119e-10
2.29564e-07
2.38902e-09
-2.29459e-07
2.29839e-07
3.13565e-09
2.30099e-07
3.59085e-09
2.30216e-07
4.01251e-09
2.30353e-07
4.54598e-09
2.30591e-07
5.03857e-09
2.30701e-07
5.5855e-09
2.30715e-07
5.82005e-09
2.30741e-07
6.05993e-09
2.30812e-07
6.4384e-09
2.30974e-07
7.03359e-09
2.31109e-07
7.38677e-09
2.31156e-07
7.56148e-09
2.31242e-07
7.71209e-09
2.31466e-07
8.18627e-09
2.31637e-07
8.18609e-09
2.31749e-07
7.65956e-09
2.31831e-07
7.53665e-09
2.31918e-07
7.2606e-09
2.31858e-07
6.61778e-09
2.31654e-07
5.16231e-09
2.31348e-07
4.1626e-09
2.31033e-07
2.96678e-09
2.30562e-07
1.66614e-09
7.25454e-10
2.7338e-07
2.33518e-09
-2.73326e-07
2.73572e-07
2.94354e-09
2.73812e-07
3.35089e-09
2.74019e-07
3.80481e-09
2.74146e-07
4.41887e-09
2.7429e-07
4.89535e-09
2.74426e-07
5.44894e-09
2.74505e-07
5.74128e-09
2.74523e-07
6.04204e-09
2.74548e-07
6.41285e-09
2.74746e-07
6.83604e-09
2.74937e-07
7.1956e-09
2.75022e-07
7.47658e-09
2.75148e-07
7.58664e-09
2.75446e-07
7.88779e-09
2.75685e-07
7.94722e-09
2.75854e-07
7.49055e-09
2.7602e-07
7.37023e-09
2.7625e-07
7.03043e-09
2.76402e-07
6.46583e-09
2.76304e-07
5.26033e-09
2.7612e-07
4.34735e-09
2.75909e-07
3.17714e-09
2.75507e-07
2.06861e-09
1.09872e-09
3.32438e-07
2.23717e-09
-3.3234e-07
3.32609e-07
2.77328e-09
3.3273e-07
3.22936e-09
3.32876e-07
3.6589e-09
3.32996e-07
4.29878e-09
3.33133e-07
4.75869e-09
3.33312e-07
5.26942e-09
3.33347e-07
5.70701e-09
3.33383e-07
6.00607e-09
3.33467e-07
6.3283e-09
3.33586e-07
6.71682e-09
3.33678e-07
7.10381e-09
3.33769e-07
7.38588e-09
3.33934e-07
7.42193e-09
3.34256e-07
7.56565e-09
3.34472e-07
7.73145e-09
3.34582e-07
7.37976e-09
3.3472e-07
7.23266e-09
3.34923e-07
6.8272e-09
3.35073e-07
6.3159e-09
3.35028e-07
5.30538e-09
3.3488e-07
4.49577e-09
3.34709e-07
3.34815e-09
3.34395e-07
2.38237e-09
1.45135e-09
6.65927e-07
-6.65895e-07
6.66109e-07
6.66202e-07
6.66361e-07
6.66508e-07
6.66542e-07
6.66649e-07
6.66733e-07
6.66746e-07
6.66752e-07
6.66836e-07
6.67071e-07
6.67261e-07
6.67302e-07
6.6741e-07
6.67518e-07
6.67672e-07
6.67818e-07
6.67963e-07
6.68077e-07
6.68063e-07
6.67959e-07
6.6781e-07
6.67593e-07
1.37291e-07
-5.37394e-11
1.37239e-07
-6.43002e-10
1.37067e-07
-1.67461e-10
1.36758e-07
4.98241e-10
1.35965e-07
1.61548e-09
2.07053e-09
1.63097e-07
8.52581e-11
1.6274e-07
-2.85924e-10
1.62454e-07
1.18098e-10
1.62104e-07
8.48034e-10
1.61797e-07
1.92323e-09
2.25421e-09
1.94074e-07
1.32007e-10
1.93595e-07
1.93904e-10
1.93277e-07
4.35643e-10
1.9291e-07
1.21534e-09
1.92751e-07
2.08223e-09
2.37416e-09
2.30775e-07
2.07466e-10
2.30411e-07
5.57982e-10
2.29959e-07
8.86931e-10
2.29645e-07
1.52947e-09
2.29508e-07
2.21989e-09
2.42292e-09
2.74433e-07
3.03181e-10
2.74113e-07
8.7837e-10
2.73695e-07
1.30414e-09
2.73444e-07
1.781e-09
2.73361e-07
2.30318e-09
2.45773e-09
3.33227e-07
4.09988e-10
3.32956e-07
1.1487e-09
3.32622e-07
1.63843e-09
3.32402e-07
2.00102e-09
3.3234e-07
2.36539e-09
2.45697e-09
6.6657e-07
6.66352e-07
6.66075e-07
6.65922e-07
6.65935e-07
)
;

boundaryField
{
    top
    {
        type            calculated;
        value           nonuniform List<scalar> 
31
(
2.20565e-09
2.59135e-09
3.13606e-09
3.50015e-09
4.15209e-09
4.72473e-09
5.1619e-09
5.62357e-09
5.99251e-09
6.32236e-09
6.63295e-09
6.86881e-09
7.19544e-09
7.38122e-09
7.4574e-09
7.62381e-09
7.22621e-09
7.08587e-09
6.68233e-09
6.20256e-09
5.31908e-09
4.59919e-09
3.49727e-09
2.59958e-09
1.66054e-09
5.06548e-10
1.36672e-09
1.91563e-09
2.15423e-09
2.35253e-09
2.49605e-09
)
;
    }
    inlet
    {
        type            calculated;
        value           nonuniform List<scalar> 7(-3.33333e-07 -6.66667e-07 -1.37264e-07 -1.63236e-07 -1.94121e-07 -2.3085e-07 -2.74529e-07);
    }
    outlet
    {
        type            calculated;
        value           nonuniform List<scalar> 7(3.34042e-07 6.67384e-07 4.09074e-08 1.25556e-07 1.85525e-07 2.30144e-07 2.75134e-07);
    }
    plate
    {
        type            calculated;
        value           uniform 0;
    }
    symmBound
    {
        type            calculated;
        value           nonuniform List<scalar> 6(2.73346e-11 6.94612e-10 3.39688e-10 -1.88947e-10 -8.22725e-10 -9.75911e-10);
    }
    frontAndBack
    {
        type            empty;
        value           nonuniform 0();
    }
}


// ************************************************************************* //
