/*--------------------------------*- C++ -*----------------------------------*\
| =========                 |                                                 |
| \\      /  F ield         | OpenFOAM: The Open Source CFD Toolbox           |
|  \\    /   O peration     | Version:  2.3.0                                 |
|   \\  /    A nd           | Web:      www.OpenFOAM.org                      |
|    \\/     M anipulation  |                                                 |
\*---------------------------------------------------------------------------*/
FoamFile
{
    version     2.0;
    format      ascii;
    class       surfaceScalarField;
    location    "0.05";
    object      phi_0;
}
// * * * * * * * * * * * * * * * * * * * * * * * * * * * * * * * * * * * * * //

dimensions      [0 3 -1 0 0 0 0];

internalField   nonuniform List<scalar> 
6068
(
2.84098e-08
2.80769e-09
-3.12175e-08
2.55732e-08
2.8366e-09
2.29041e-08
2.66912e-09
2.04485e-08
2.45554e-09
1.82243e-08
2.2242e-09
1.6243e-08
1.98134e-09
1.4508e-08
1.73502e-09
1.30148e-08
1.4932e-09
1.17521e-08
1.26267e-09
1.07034e-08
1.04874e-09
9.8484e-09
8.54976e-10
9.16559e-09
6.82804e-10
8.63401e-09
5.31584e-10
8.23465e-09
3.99362e-10
7.9505e-09
2.84141e-10
7.7666e-09
1.83905e-10
7.67281e-09
9.37876e-11
7.65748e-09
1.53342e-11
7.68935e-09
-3.1868e-11
7.73865e-09
-4.9305e-11
7.78945e-09
-5.07967e-11
7.83444e-09
-4.49899e-11
7.8712e-09
-3.67589e-11
7.89981e-09
-2.86097e-11
7.92136e-09
-2.15511e-11
7.9372e-09
-1.58446e-11
7.94863e-09
-1.14298e-11
7.95676e-09
-8.13148e-12
7.9625e-09
-5.73208e-12
7.96652e-09
-4.02295e-12
7.96934e-09
-2.8244e-12
7.97133e-09
-1.99236e-12
7.97275e-09
-1.41589e-12
7.97377e-09
-1.01472e-12
7.9745e-09
-7.336e-13
7.97503e-09
-5.33041e-13
7.97542e-09
-3.8777e-13
7.97571e-09
-2.85277e-13
7.97592e-09
-2.11598e-13
7.97608e-09
-1.61327e-13
7.9762e-09
-1.22654e-13
7.9763e-09
-9.51923e-14
7.97637e-09
-7.28176e-14
7.97642e-09
-5.48351e-14
7.97647e-09
-4.15408e-14
7.9765e-09
-3.10769e-14
7.97652e-09
-2.30124e-14
7.97654e-09
-1.67997e-14
7.97655e-09
-1.22812e-14
7.97656e-09
-9.09562e-15
7.97656e-09
-6.94821e-15
7.97657e-09
-5.59563e-15
7.97657e-09
-4.83932e-15
7.97658e-09
-4.51954e-15
7.97658e-09
-4.51103e-15
7.97659e-09
-4.7167e-15
7.97659e-09
-5.06033e-15
7.9766e-09
-5.4812e-15
7.97661e-09
-5.93289e-15
7.97661e-09
-6.38141e-15
7.97662e-09
-6.80526e-15
7.97663e-09
-7.18883e-15
7.97663e-09
-7.52195e-15
7.97664e-09
-7.7957e-15
7.97665e-09
-8.00591e-15
7.97666e-09
-8.1432e-15
7.97667e-09
-8.21544e-15
7.97667e-09
-8.2685e-15
7.97668e-09
-8.24955e-15
7.97669e-09
-8.1734e-15
7.9767e-09
-8.04769e-15
7.97671e-09
-7.85658e-15
7.97671e-09
-7.63173e-15
7.97672e-09
-7.37368e-15
7.97673e-09
-7.08833e-15
7.97673e-09
-6.77199e-15
7.97674e-09
-6.43586e-15
7.97675e-09
-6.07248e-15
7.97675e-09
-5.69969e-15
7.97676e-09
-5.30641e-15
7.97676e-09
-4.90672e-15
7.97677e-09
-4.49134e-15
7.97677e-09
-4.0655e-15
7.97678e-09
-3.627e-15
7.97678e-09
-3.17598e-15
7.97678e-09
-2.71302e-15
7.97678e-09
-2.24022e-15
7.97679e-09
-1.75038e-15
7.97679e-09
-1.25859e-15
7.97679e-09
-7.49802e-16
7.97679e-09
-2.06832e-16
7.97679e-09
3.73732e-16
7.97679e-09
9.96599e-16
7.97678e-09
1.67499e-15
7.97678e-09
2.43581e-15
7.97678e-09
3.3184e-15
7.97677e-09
4.41442e-15
7.97677e-09
5.93782e-15
7.97676e-09
8.17218e-15
2.4833e-14
3.41299e-08
3.07124e-09
-3.43935e-08
3.35709e-08
3.3956e-09
3.27798e-08
3.46022e-09
3.18376e-08
3.39775e-09
3.08032e-08
3.25863e-09
2.97244e-08
3.06014e-09
2.8641e-08
2.81842e-09
2.75847e-08
2.54949e-09
2.65804e-08
2.26698e-09
2.56476e-08
1.98158e-09
2.48017e-08
1.70088e-09
2.40551e-08
1.42939e-09
2.34174e-08
1.16923e-09
2.28951e-08
9.21709e-10
2.24904e-08
6.88813e-10
2.22006e-08
4.73736e-10
2.20121e-08
2.82289e-10
2.19055e-08
1.21877e-10
2.1871e-08
2.71993e-12
2.18919e-08
-7.02482e-11
2.19431e-08
-1.01951e-10
2.20059e-08
-1.07832e-10
2.20686e-08
-9.94909e-11
2.21247e-08
-8.46562e-11
2.21712e-08
-6.80731e-11
2.22077e-08
-5.2371e-11
2.22351e-08
-3.8803e-11
2.22547e-08
-2.77837e-11
2.22683e-08
-1.92428e-11
2.22771e-08
-1.28691e-11
2.22825e-08
-8.26143e-12
2.22856e-08
-5.01977e-12
2.22869e-08
-2.7868e-12
2.22872e-08
-1.27136e-12
2.22867e-08
-2.19465e-13
2.22856e-08
5.40728e-13
2.22842e-08
1.0599e-12
2.22825e-08
1.37452e-12
2.22807e-08
1.54122e-12
2.2279e-08
1.60907e-12
2.22772e-08
1.61791e-12
2.22756e-08
1.59046e-12
2.22739e-08
1.54269e-12
2.22724e-08
1.48338e-12
2.22709e-08
1.41685e-12
2.22696e-08
1.34648e-12
2.22683e-08
1.2743e-12
2.2267e-08
1.20187e-12
2.22659e-08
1.13008e-12
2.22648e-08
1.0597e-12
2.22638e-08
9.91293e-13
2.22629e-08
9.25295e-13
2.2262e-08
8.62003e-13
2.22612e-08
8.01618e-13
2.22605e-08
7.44258e-13
2.22598e-08
6.89978e-13
2.22591e-08
6.38782e-13
2.22585e-08
5.90637e-13
2.2258e-08
5.45478e-13
2.22575e-08
5.03218e-13
2.2257e-08
4.63753e-13
2.22566e-08
4.26965e-13
2.22562e-08
3.92735e-13
2.22558e-08
3.60937e-13
2.22555e-08
3.31444e-13
2.22552e-08
3.04131e-13
2.22549e-08
2.78866e-13
2.22546e-08
2.55507e-13
2.22544e-08
2.33966e-13
2.22541e-08
2.14105e-13
2.22539e-08
1.95817e-13
2.22538e-08
1.79011e-13
2.22536e-08
1.63575e-13
2.22534e-08
1.49412e-13
2.22533e-08
1.36435e-13
2.22532e-08
1.24561e-13
2.2253e-08
1.1371e-13
2.22529e-08
1.03806e-13
2.22528e-08
9.47813e-14
2.22527e-08
8.65656e-14
2.22526e-08
7.9108e-14
2.22526e-08
7.23425e-14
2.22525e-08
6.62337e-14
2.22524e-08
6.072e-14
2.22524e-08
5.57727e-14
2.22523e-08
5.13398e-14
2.22523e-08
4.73936e-14
2.22522e-08
4.38989e-14
2.22522e-08
4.08319e-14
2.22521e-08
3.81663e-14
2.22521e-08
3.58909e-14
2.22521e-08
3.39952e-14
2.2252e-08
3.2479e-14
2.2252e-08
3.13536e-14
2.2252e-08
3.06572e-14
2.2252e-08
3.04804e-14
2.22519e-08
3.10334e-14
2.22519e-08
3.28615e-14
2.22519e-08
3.86563e-14
5.91897e-14
3.62213e-08
2.91073e-09
-3.60608e-08
3.63141e-08
3.30282e-09
3.62881e-08
3.4862e-09
3.61466e-08
3.53927e-09
3.59026e-08
3.50262e-09
3.55726e-08
3.39016e-09
3.51765e-08
3.21451e-09
3.47356e-08
2.99032e-09
3.42712e-08
2.73139e-09
3.38036e-08
2.44919e-09
3.33519e-08
2.15257e-09
3.29334e-08
1.84788e-09
3.25627e-08
1.53991e-09
3.22508e-08
1.23367e-09
3.20037e-08
9.35882e-10
3.18218e-08
6.55642e-10
3.16992e-08
4.04917e-10
3.16237e-08
1.97307e-10
3.15846e-08
4.18969e-11
3.15766e-08
-6.22782e-11
3.15932e-08
-1.18557e-10
3.16262e-08
-1.40838e-10
3.16677e-08
-1.41001e-10
3.17114e-08
-1.28296e-10
3.17526e-08
-1.09317e-10
3.17887e-08
-8.8454e-11
3.18183e-08
-6.84005e-11
3.18411e-08
-5.0628e-11
3.18576e-08
-3.57645e-11
3.18687e-08
-2.38953e-11
3.18752e-08
-1.47852e-11
3.18782e-08
-8.04061e-12
3.18786e-08
-3.19584e-12
3.18771e-08
2.46108e-13
3.18742e-08
2.65468e-12
3.18705e-08
4.23353e-12
3.18664e-08
5.166e-12
3.18622e-08
5.63404e-12
3.18579e-08
5.79205e-12
3.18538e-08
5.75531e-12
3.18498e-08
5.60417e-12
3.1846e-08
5.38864e-12
3.18424e-08
5.1399e-12
3.1839e-08
4.87618e-12
3.18358e-08
4.60766e-12
3.18328e-08
4.34064e-12
3.183e-08
4.07895e-12
3.18274e-08
3.82503e-12
3.18249e-08
3.58031e-12
3.18227e-08
3.34571e-12
3.18205e-08
3.12182e-12
3.18185e-08
2.90893e-12
3.18167e-08
2.70715e-12
3.1815e-08
2.51643e-12
3.18134e-08
2.33659e-12
3.18119e-08
2.16739e-12
3.18105e-08
2.0085e-12
3.18093e-08
1.85955e-12
3.18081e-08
1.72015e-12
3.1807e-08
1.58987e-12
3.1806e-08
1.46827e-12
3.18051e-08
1.35493e-12
3.18042e-08
1.2494e-12
3.18034e-08
1.15126e-12
3.18027e-08
1.06009e-12
3.1802e-08
9.75487e-13
3.18014e-08
8.97042e-13
3.18008e-08
8.24369e-13
3.18003e-08
7.57118e-13
3.17998e-08
6.94933e-13
3.17994e-08
6.37484e-13
3.1799e-08
5.84465e-13
3.17986e-08
5.35576e-13
3.17983e-08
4.90531e-13
3.1798e-08
4.49068e-13
3.17977e-08
4.10937e-13
3.17974e-08
3.75905e-13
3.17972e-08
3.43746e-13
3.1797e-08
3.14263e-13
3.17968e-08
2.87251e-13
3.17966e-08
2.62546e-13
3.17964e-08
2.39964e-13
3.17963e-08
2.19372e-13
3.17961e-08
2.00605e-13
3.1796e-08
1.83548e-13
3.17959e-08
1.68063e-13
3.17958e-08
1.54048e-13
3.17957e-08
1.41392e-13
3.17956e-08
1.30011e-13
3.17955e-08
1.19816e-13
3.17954e-08
1.10746e-13
3.17954e-08
1.02741e-13
3.17953e-08
9.57648e-14
3.17952e-08
8.98002e-14
3.17952e-08
8.48739e-14
3.17951e-08
8.10993e-14
3.17951e-08
7.87762e-14
3.1795e-08
7.87777e-14
3.1795e-08
8.42332e-14
1.00556e-13
3.77883e-08
2.70979e-09
-3.75874e-08
3.80073e-08
3.08386e-09
3.81943e-08
3.29921e-09
3.83331e-08
3.40041e-09
3.84184e-08
3.41736e-09
3.84477e-08
3.36084e-09
3.84233e-08
3.23895e-09
3.83514e-08
3.0622e-09
3.82413e-08
2.84149e-09
3.8104e-08
2.5865e-09
3.79512e-08
2.30531e-09
3.77945e-08
2.00463e-09
3.76436e-08
1.6908e-09
3.75061e-08
1.37118e-09
3.73865e-08
1.05549e-09
3.72861e-08
7.55988e-10
3.7204e-08
4.87106e-10
3.71377e-08
2.63606e-10
3.70849e-08
9.46748e-11
3.70446e-08
-2.20162e-11
3.70188e-08
-9.27189e-11
3.70058e-08
-1.27878e-10
3.70029e-08
-1.38051e-10
3.70067e-08
-1.32087e-10
3.70142e-08
-1.16811e-10
3.70229e-08
-9.71736e-11
3.7031e-08
-7.65481e-11
3.70375e-08
-5.70593e-11
3.70416e-08
-3.98914e-11
3.70432e-08
-2.55587e-11
3.70426e-08
-1.4117e-11
3.70399e-08
-5.33291e-12
3.70355e-08
1.2005e-12
3.70298e-08
5.8712e-12
3.70235e-08
8.99979e-12
3.70168e-08
1.09107e-11
3.70101e-08
1.19167e-11
3.70034e-08
1.22902e-11
3.6997e-08
1.22475e-11
3.69908e-08
1.19466e-11
3.69849e-08
1.14956e-11
3.69793e-08
1.0964e-11
3.6974e-08
1.03951e-11
3.69691e-08
9.81518e-12
3.69645e-08
9.23932e-12
3.69601e-08
8.67665e-12
3.69561e-08
8.13252e-12
3.69523e-08
7.61006e-12
3.69488e-08
7.11093e-12
3.69455e-08
6.63596e-12
3.69424e-08
6.18541e-12
3.69396e-08
5.75917e-12
3.69369e-08
5.35684e-12
3.69345e-08
4.97786e-12
3.69322e-08
4.62148e-12
3.693e-08
4.28691e-12
3.69281e-08
3.97326e-12
3.69263e-08
3.67962e-12
3.69246e-08
3.40506e-12
3.6923e-08
3.14861e-12
3.69216e-08
2.90936e-12
3.69202e-08
2.68637e-12
3.6919e-08
2.47875e-12
3.69179e-08
2.28561e-12
3.69168e-08
2.10612e-12
3.69159e-08
1.93945e-12
3.6915e-08
1.78481e-12
3.69142e-08
1.64146e-12
3.69134e-08
1.50867e-12
3.69127e-08
1.38578e-12
3.69121e-08
1.27212e-12
3.69115e-08
1.16711e-12
3.6911e-08
1.07016e-12
3.69105e-08
9.80714e-13
3.691e-08
8.9827e-13
3.69096e-08
8.22338e-13
3.69092e-08
7.52465e-13
3.69089e-08
6.88219e-13
3.69086e-08
6.29209e-13
3.69083e-08
5.75047e-13
3.6908e-08
5.25402e-13
3.69078e-08
4.79928e-13
3.69076e-08
4.38343e-13
3.69074e-08
4.00344e-13
3.69072e-08
3.65688e-13
3.6907e-08
3.34114e-13
3.69069e-08
3.05411e-13
3.69067e-08
2.79363e-13
3.69066e-08
2.55795e-13
3.69065e-08
2.34526e-13
3.69064e-08
2.15421e-13
3.69063e-08
1.98341e-13
3.69062e-08
1.83194e-13
3.69061e-08
1.69908e-13
3.69061e-08
1.5847e-13
3.6906e-08
1.48976e-13
3.69059e-08
1.41738e-13
3.69059e-08
1.37654e-13
3.69058e-08
1.39155e-13
1.48138e-13
3.93152e-08
2.53133e-09
-3.91367e-08
3.95331e-08
2.86594e-09
3.97527e-08
3.07956e-09
3.9958e-08
3.1951e-09
4.01414e-08
3.23405e-09
4.02964e-08
3.20579e-09
4.0419e-08
3.11636e-09
4.05079e-08
2.9733e-09
4.05644e-08
2.78493e-09
4.05919e-08
2.55906e-09
4.05945e-08
2.30266e-09
4.0577e-08
2.02218e-09
4.05433e-08
1.72446e-09
4.04967e-08
1.41779e-09
4.04395e-08
1.11272e-09
4.03735e-08
8.22022e-10
4.03008e-08
5.59727e-10
4.02254e-08
3.39089e-10
4.01514e-08
1.68591e-10
4.00823e-08
4.70899e-11
4.00217e-08
-3.20393e-11
3.9971e-08
-7.71948e-11
3.99301e-08
-9.71733e-11
3.98978e-08
-9.98372e-11
3.98726e-08
-9.15845e-11
3.98528e-08
-7.7307e-11
3.98367e-08
-6.05261e-11
3.98233e-08
-4.36278e-11
3.98115e-08
-2.80847e-11
3.98006e-08
-1.46866e-11
3.97902e-08
-3.71248e-12
3.978e-08
4.87388e-12
3.97699e-08
1.12617e-11
3.97601e-08
1.57178e-11
3.97505e-08
1.8567e-11
3.97413e-08
2.01516e-11
3.97324e-08
2.07965e-11
3.97239e-08
2.07825e-11
3.97158e-08
2.03329e-11
3.97082e-08
1.96134e-11
3.97009e-08
1.87395e-11
3.96941e-08
1.77877e-11
3.96877e-08
1.68071e-11
3.96817e-08
1.5828e-11
3.9676e-08
1.48686e-11
3.96708e-08
1.39397e-11
3.96659e-08
1.30475e-11
3.96613e-08
1.21955e-11
3.9657e-08
1.13851e-11
3.9653e-08
1.06167e-11
3.96493e-08
9.89005e-12
3.96459e-08
9.20439e-12
3.96427e-08
8.55857e-12
3.96397e-08
7.95128e-12
3.96369e-08
7.38104e-12
3.96344e-08
6.84631e-12
3.9632e-08
6.34548e-12
3.96298e-08
5.87694e-12
3.96278e-08
5.43906e-12
3.96259e-08
5.03024e-12
3.96242e-08
4.64892e-12
3.96226e-08
4.29357e-12
3.96211e-08
3.96271e-12
3.96197e-08
3.65493e-12
3.96184e-08
3.36884e-12
3.96173e-08
3.10312e-12
3.96162e-08
2.85653e-12
3.96152e-08
2.62786e-12
3.96143e-08
2.41597e-12
3.96135e-08
2.21978e-12
3.96127e-08
2.03827e-12
3.9612e-08
1.87047e-12
3.96114e-08
1.71546e-12
3.96108e-08
1.57238e-12
3.96102e-08
1.44042e-12
3.96097e-08
1.3188e-12
3.96093e-08
1.20681e-12
3.96089e-08
1.10377e-12
3.96085e-08
1.00904e-12
3.96081e-08
9.22032e-13
3.96078e-08
8.42202e-13
3.96075e-08
7.69012e-13
3.96073e-08
7.02001e-13
3.9607e-08
6.407e-13
3.96068e-08
5.84707e-13
3.96066e-08
5.33618e-13
3.96064e-08
4.87088e-13
3.96063e-08
4.44775e-13
3.96061e-08
4.0639e-13
3.9606e-08
3.71643e-13
3.96058e-08
3.40304e-13
3.96057e-08
3.12144e-13
3.96056e-08
2.8699e-13
3.96055e-08
2.64702e-13
3.96054e-08
2.45203e-13
3.96054e-08
2.2854e-13
3.96053e-08
2.14961e-13
3.96052e-08
2.05188e-13
3.96052e-08
2.00773e-13
2.01522e-13
4.08793e-08
2.37842e-09
-4.07263e-08
4.10743e-08
2.67085e-09
4.12828e-08
2.87112e-09
4.14898e-08
2.98808e-09
4.1688e-08
3.03585e-09
4.18714e-08
3.02241e-09
4.20348e-08
2.95288e-09
4.2175e-08
2.83311e-09
4.22902e-08
2.6698e-09
4.23797e-08
2.46952e-09
4.24439e-08
2.23847e-09
4.24833e-08
1.98281e-09
4.24984e-08
1.70937e-09
4.24898e-08
1.42637e-09
4.24586e-08
1.14394e-09
4.24067e-08
8.73876e-10
4.23378e-08
6.28584e-10
4.22577e-08
4.19241e-10
4.21733e-08
2.52966e-10
4.20904e-08
1.30028e-10
4.20128e-08
4.55001e-11
4.19433e-08
-7.6651e-12
4.18828e-08
-3.6695e-11
4.18313e-08
-4.83211e-11
4.1788e-08
-4.82716e-11
4.17518e-08
-4.11126e-11
4.17215e-08
-3.02583e-11
4.16961e-08
-1.81382e-11
4.16743e-08
-6.34078e-12
4.16554e-08
4.18101e-12
4.16388e-08
1.29608e-11
4.16238e-08
1.98406e-11
4.16102e-08
2.48758e-11
4.15977e-08
2.82483e-11
4.1586e-08
3.02126e-11
4.15751e-08
3.10529e-11
4.15649e-08
3.10472e-11
4.15552e-08
3.04422e-11
4.15461e-08
2.9439e-11
4.15375e-08
2.81908e-11
4.15294e-08
2.68078e-11
4.15219e-08
2.53653e-11
4.15148e-08
2.39128e-11
4.15081e-08
2.24816e-11
4.15019e-08
2.10911e-11
4.14961e-08
1.97527e-11
4.14906e-08
1.84727e-11
4.14856e-08
1.72543e-11
4.14809e-08
1.60985e-11
4.14765e-08
1.5005e-11
4.14724e-08
1.39729e-11
4.14686e-08
1.30004e-11
4.14651e-08
1.20856e-11
4.14618e-08
1.12263e-11
4.14588e-08
1.04201e-11
4.1456e-08
9.66459e-12
4.14533e-08
8.95742e-12
4.14509e-08
8.29613e-12
4.14487e-08
7.67833e-12
4.14466e-08
7.10168e-12
4.14447e-08
6.5639e-12
4.14429e-08
6.06281e-12
4.14413e-08
5.59628e-12
4.14398e-08
5.16227e-12
4.14384e-08
4.75883e-12
4.14371e-08
4.38409e-12
4.14359e-08
4.03628e-12
4.14348e-08
3.7137e-12
4.14338e-08
3.41473e-12
4.14329e-08
3.13786e-12
4.14321e-08
2.88165e-12
4.14313e-08
2.64472e-12
4.14306e-08
2.4258e-12
4.143e-08
2.22367e-12
4.14294e-08
2.03719e-12
4.14288e-08
1.86526e-12
4.14283e-08
1.70689e-12
4.14279e-08
1.56111e-12
4.14274e-08
1.42706e-12
4.14271e-08
1.30386e-12
4.14267e-08
1.19078e-12
4.14264e-08
1.08705e-12
4.14261e-08
9.92025e-13
4.14258e-08
9.05042e-13
4.14256e-08
8.25529e-13
4.14254e-08
7.52925e-13
4.14252e-08
6.86736e-13
4.1425e-08
6.26481e-13
4.14248e-08
5.71745e-13
4.14247e-08
5.22121e-13
4.14245e-08
4.77269e-13
4.14244e-08
4.36862e-13
4.14243e-08
4.00637e-13
4.14242e-08
3.6837e-13
4.14241e-08
3.39911e-13
4.1424e-08
3.15231e-13
4.14239e-08
2.94477e-13
4.14239e-08
2.78129e-13
4.14238e-08
2.66992e-13
2.597e-13
4.24933e-08
2.24571e-09
-4.23606e-08
4.26654e-08
2.49874e-09
4.28551e-08
2.68149e-09
4.30486e-08
2.79454e-09
4.32386e-08
2.84587e-09
4.34194e-08
2.84162e-09
4.35861e-08
2.78616e-09
4.3735e-08
2.68427e-09
4.38632e-08
2.5415e-09
4.39691e-08
2.36363e-09
4.40512e-08
2.15635e-09
4.41085e-08
1.92555e-09
4.41401e-08
1.67777e-09
4.41457e-08
1.42079e-09
4.41258e-08
1.16381e-09
4.40825e-08
9.17176e-10
4.40196e-08
6.91474e-10
4.39429e-08
4.95976e-10
4.38592e-08
3.36662e-10
4.37747e-08
2.14532e-10
4.36938e-08
1.26352e-10
4.36194e-08
6.67367e-11
4.3553e-08
2.97678e-11
4.34949e-08
9.75809e-12
4.34449e-08
1.70238e-12
4.34023e-08
1.47702e-12
4.33662e-08
5.88192e-12
4.33355e-08
1.25552e-11
4.33093e-08
1.98631e-11
4.32867e-08
2.67521e-11
4.32671e-08
3.26226e-11
4.32497e-08
3.71916e-11
4.32342e-08
4.03952e-11
4.32201e-08
4.23114e-11
4.32072e-08
4.31042e-11
4.31953e-08
4.29812e-11
4.31842e-08
4.21584e-11
4.31738e-08
4.08358e-11
4.31641e-08
3.91824e-11
4.31549e-08
3.73312e-11
4.31464e-08
3.53806e-11
4.31383e-08
3.34e-11
4.31308e-08
3.1436e-11
4.31238e-08
2.9519e-11
4.31172e-08
2.76677e-11
4.3111e-08
2.58931e-11
4.31053e-08
2.4201e-11
4.31e-08
2.2594e-11
4.3095e-08
2.10723e-11
4.30904e-08
1.96349e-11
4.30861e-08
1.82796e-11
4.30821e-08
1.70041e-11
4.30783e-08
1.58051e-11
4.30749e-08
1.46797e-11
4.30717e-08
1.36244e-11
4.30687e-08
1.2636e-11
4.3066e-08
1.17111e-11
4.30634e-08
1.08465e-11
4.3061e-08
1.00389e-11
4.30589e-08
9.2853e-12
4.30568e-08
8.58256e-12
4.3055e-08
7.9278e-12
4.30533e-08
7.31822e-12
4.30517e-08
6.75115e-12
4.30502e-08
6.224e-12
4.30489e-08
5.73434e-12
4.30476e-08
5.27983e-12
4.30465e-08
4.85825e-12
4.30454e-08
4.4675e-12
4.30444e-08
4.10559e-12
4.30436e-08
3.77063e-12
4.30427e-08
3.46085e-12
4.3042e-08
3.17456e-12
4.30413e-08
2.91018e-12
4.30407e-08
2.66622e-12
4.30401e-08
2.44127e-12
4.30396e-08
2.23401e-12
4.30391e-08
2.04319e-12
4.30386e-08
1.86766e-12
4.30382e-08
1.70633e-12
4.30379e-08
1.55818e-12
4.30375e-08
1.42226e-12
4.30372e-08
1.29769e-12
4.3037e-08
1.18363e-12
4.30367e-08
1.07931e-12
4.30365e-08
9.84023e-13
4.30363e-08
8.971e-13
4.30361e-08
8.17922e-13
4.30359e-08
7.45939e-13
4.30357e-08
6.80618e-13
4.30356e-08
6.21507e-13
4.30355e-08
5.68172e-13
4.30353e-08
5.20253e-13
4.30352e-08
4.77439e-13
4.30351e-08
4.39496e-13
4.3035e-08
4.06305e-13
4.3035e-08
3.77892e-13
4.30349e-08
3.54493e-13
4.30348e-08
3.36358e-13
3.21622e-13
4.41603e-08
2.12848e-09
-4.40431e-08
4.43126e-08
2.34651e-09
4.44835e-08
2.51053e-09
4.46612e-08
2.61689e-09
4.4838e-08
2.66906e-09
4.50084e-08
2.67116e-09
4.51678e-08
2.62677e-09
4.53123e-08
2.53979e-09
4.54389e-08
2.41492e-09
4.55453e-08
2.25722e-09
4.56297e-08
2.07194e-09
4.56906e-08
1.86465e-09
4.57268e-08
1.64153e-09
4.57379e-08
1.40971e-09
4.57243e-08
1.17739e-09
4.5688e-08
9.53496e-10
4.56325e-08
7.46954e-10
4.5563e-08
5.65468e-10
4.54856e-08
4.1413e-10
4.54058e-08
2.9434e-10
4.5328e-08
2.04137e-10
4.52552e-08
1.39568e-10
4.5189e-08
9.59381e-11
4.51302e-08
6.85401e-11
4.50788e-08
5.30756e-11
4.50344e-08
4.58856e-11
4.49963e-08
4.40322e-11
4.49635e-08
4.52739e-11
4.49354e-08
4.79903e-11
4.49111e-08
5.10778e-11
4.48899e-08
5.3845e-11
4.48712e-08
5.59054e-11
4.48545e-08
5.70905e-11
4.48394e-08
5.73809e-11
4.48256e-08
5.68534e-11
4.4813e-08
5.56396e-11
4.48013e-08
5.38936e-11
4.47903e-08
5.17671e-11
4.47801e-08
4.93943e-11
4.47706e-08
4.68848e-11
4.47616e-08
4.43225e-11
4.47532e-08
4.17678e-11
4.47454e-08
3.92625e-11
4.47381e-08
3.68343e-11
4.47313e-08
3.45e-11
4.47249e-08
3.22696e-11
4.47189e-08
3.01477e-11
4.47134e-08
2.8136e-11
4.47082e-08
2.62337e-11
4.47034e-08
2.44386e-11
4.4699e-08
2.27477e-11
4.46948e-08
2.11573e-11
4.4691e-08
1.96633e-11
4.46874e-08
1.82616e-11
4.46841e-08
1.69478e-11
4.4681e-08
1.57177e-11
4.46781e-08
1.45669e-11
4.46755e-08
1.34913e-11
4.4673e-08
1.24869e-11
4.46708e-08
1.15497e-11
4.46687e-08
1.06758e-11
4.46667e-08
9.86171e-12
4.46649e-08
9.10378e-12
4.46633e-08
8.39871e-12
4.46618e-08
7.74328e-12
4.46604e-08
7.13444e-12
4.46591e-08
6.56928e-12
4.46579e-08
6.04505e-12
4.46568e-08
5.55912e-12
4.46558e-08
5.10903e-12
4.46549e-08
4.69242e-12
4.4654e-08
4.30709e-12
4.46533e-08
3.95095e-12
4.46526e-08
3.62203e-12
4.46519e-08
3.31848e-12
4.46513e-08
3.03854e-12
4.46508e-08
2.78058e-12
4.46503e-08
2.54305e-12
4.46498e-08
2.32453e-12
4.46494e-08
2.12364e-12
4.4649e-08
1.93914e-12
4.46487e-08
1.76984e-12
4.46483e-08
1.61463e-12
4.4648e-08
1.47249e-12
4.46478e-08
1.34246e-12
4.46475e-08
1.22364e-12
4.46473e-08
1.11521e-12
4.46471e-08
1.01641e-12
4.46469e-08
9.26536e-13
4.46468e-08
8.44936e-13
4.46466e-08
7.71032e-13
4.46465e-08
7.04284e-13
4.46464e-08
6.44229e-13
4.46463e-08
5.90464e-13
4.46462e-08
5.42662e-13
4.46461e-08
5.00607e-13
4.4646e-08
4.64198e-13
4.46459e-08
4.3345e-13
4.46458e-08
4.08228e-13
3.86598e-13
4.58822e-08
2.02344e-09
-4.57771e-08
4.60176e-08
2.21109e-09
4.61715e-08
2.35666e-09
4.63336e-08
2.45479e-09
4.64967e-08
2.50596e-09
4.66553e-08
2.51251e-09
4.68049e-08
2.47714e-09
4.69417e-08
2.40303e-09
4.70625e-08
2.29408e-09
4.7165e-08
2.15473e-09
4.72472e-08
1.98977e-09
4.73075e-08
1.80435e-09
4.73448e-08
1.60421e-09
4.73587e-08
1.39581e-09
4.73498e-08
1.18637e-09
4.73197e-08
9.83568e-10
4.72717e-08
7.94932e-10
4.72103e-08
6.26911e-10
4.71405e-08
4.8389e-10
4.70674e-08
3.67476e-10
4.69949e-08
2.7663e-10
4.69259e-08
2.08547e-10
4.68622e-08
1.5959e-10
4.68049e-08
1.25934e-10
4.6754e-08
1.03952e-10
4.67094e-08
9.04534e-11
4.66706e-08
8.27901e-11
4.6637e-08
7.88757e-11
4.66079e-08
7.7143e-11
4.65825e-08
7.64735e-11
4.65602e-08
7.61168e-11
4.65405e-08
7.56069e-11
4.65229e-08
7.46891e-11
4.6507e-08
7.32592e-11
4.64926e-08
7.13156e-11
4.64793e-08
6.8921e-11
4.6467e-08
6.61708e-11
4.64556e-08
6.31707e-11
4.6445e-08
6.00202e-11
4.64351e-08
5.68045e-11
4.64258e-08
5.3591e-11
4.64171e-08
5.04299e-11
4.64091e-08
4.73564e-11
4.64015e-08
4.4394e-11
4.63944e-08
4.15569e-11
4.63879e-08
3.88531e-11
4.63817e-08
3.62858e-11
4.6376e-08
3.38551e-11
4.63707e-08
3.15592e-11
4.63657e-08
2.93944e-11
4.63611e-08
2.73567e-11
4.63568e-08
2.54412e-11
4.63528e-08
2.36426e-11
4.63491e-08
2.19557e-11
4.63457e-08
2.03752e-11
4.63425e-08
1.88956e-11
4.63396e-08
1.75118e-11
4.63369e-08
1.62187e-11
4.63343e-08
1.50112e-11
4.6332e-08
1.38846e-11
4.63299e-08
1.28343e-11
4.63279e-08
1.18558e-11
4.6326e-08
1.09449e-11
4.63243e-08
1.00975e-11
4.63228e-08
9.30979e-12
4.63213e-08
8.57806e-12
4.632e-08
7.89881e-12
4.63188e-08
7.26873e-12
4.63176e-08
6.68467e-12
4.63166e-08
6.14365e-12
4.63156e-08
5.64285e-12
4.63148e-08
5.17963e-12
4.6314e-08
4.75147e-12
4.63132e-08
4.356e-12
4.63126e-08
3.99099e-12
4.63119e-08
3.65436e-12
4.63114e-08
3.34413e-12
4.63109e-08
3.05844e-12
4.63104e-08
2.79558e-12
4.631e-08
2.55392e-12
4.63096e-08
2.33194e-12
4.63092e-08
2.12821e-12
4.63089e-08
1.94142e-12
4.63086e-08
1.77032e-12
4.63083e-08
1.61377e-12
4.63081e-08
1.47069e-12
4.63079e-08
1.34009e-12
4.63076e-08
1.22106e-12
4.63075e-08
1.11274e-12
4.63073e-08
1.01435e-12
4.63071e-08
9.25186e-13
4.6307e-08
8.44604e-13
4.63069e-08
7.72027e-13
4.63068e-08
7.06957e-13
4.63066e-08
6.48971e-13
4.63065e-08
5.9775e-13
4.63065e-08
5.53064e-13
4.63064e-08
5.14737e-13
4.63063e-08
4.82385e-13
4.54223e-13
4.7661e-08
1.92828e-09
-4.75659e-08
4.77822e-08
2.08988e-09
4.79208e-08
2.2181e-09
4.80683e-08
2.30731e-09
4.8218e-08
2.3562e-09
4.83648e-08
2.36572e-09
4.85043e-08
2.33772e-09
4.86325e-08
2.27473e-09
4.87466e-08
2.17998e-09
4.88441e-08
2.0573e-09
4.89229e-08
1.91098e-09
4.89815e-08
1.74573e-09
4.90189e-08
1.56676e-09
4.90349e-08
1.37988e-09
4.90298e-08
1.19141e-09
4.90054e-08
1.00796e-09
4.89645e-08
8.35874e-10
4.89108e-08
6.80613e-10
4.88487e-08
5.45988e-10
4.87825e-08
4.33691e-10
4.87158e-08
3.43336e-10
4.86513e-08
2.73016e-10
4.85909e-08
2.19985e-10
4.85356e-08
1.8119e-10
4.8486e-08
1.53621e-10
4.84419e-08
1.34541e-10
4.84031e-08
1.21603e-10
4.8369e-08
1.129e-10
4.83392e-08
1.0695e-10
4.83131e-08
1.02647e-10
4.829e-08
9.92134e-11
4.82694e-08
9.61264e-11
4.82511e-08
9.30642e-11
4.82345e-08
8.98527e-11
4.82194e-08
8.64226e-11
4.82055e-08
8.27752e-11
4.81927e-08
7.89531e-11
4.81809e-08
7.50186e-11
4.81699e-08
7.10379e-11
4.81596e-08
6.70717e-11
4.815e-08
6.31702e-11
4.81411e-08
5.93719e-11
4.81327e-08
5.57044e-11
4.81249e-08
5.21857e-11
4.81177e-08
4.88267e-11
4.81109e-08
4.56326e-11
4.81046e-08
4.26047e-11
4.80987e-08
3.97415e-11
4.80932e-08
3.70394e-11
4.80881e-08
3.44937e-11
4.80834e-08
3.20987e-11
4.8079e-08
2.98482e-11
4.80749e-08
2.77361e-11
4.80711e-08
2.57557e-11
4.80675e-08
2.39006e-11
4.80643e-08
2.21643e-11
4.80612e-08
2.05408e-11
4.80584e-08
1.90237e-11
4.80558e-08
1.76074e-11
4.80534e-08
1.6286e-11
4.80512e-08
1.50541e-11
4.80492e-08
1.39066e-11
4.80473e-08
1.28383e-11
4.80455e-08
1.18445e-11
4.80439e-08
1.09208e-11
4.80424e-08
1.00626e-11
4.80411e-08
9.26606e-12
4.80398e-08
8.52712e-12
4.80387e-08
7.84213e-12
4.80376e-08
7.2076e-12
4.80366e-08
6.62023e-12
4.80357e-08
6.0769e-12
4.80349e-08
5.57467e-12
4.80341e-08
5.11077e-12
4.80334e-08
4.68258e-12
4.80328e-08
4.28764e-12
4.80322e-08
3.92365e-12
4.80317e-08
3.58845e-12
4.80312e-08
3.28e-12
4.80308e-08
2.9964e-12
4.80304e-08
2.73587e-12
4.803e-08
2.49674e-12
4.80297e-08
2.27747e-12
4.80294e-08
2.0766e-12
4.80291e-08
1.89278e-12
4.80288e-08
1.72475e-12
4.80286e-08
1.57135e-12
4.80284e-08
1.4315e-12
4.80282e-08
1.30421e-12
4.8028e-08
1.18855e-12
4.80279e-08
1.0837e-12
4.80277e-08
9.88882e-13
4.80276e-08
9.03422e-13
4.80275e-08
8.26716e-13
4.80274e-08
7.58241e-13
4.80273e-08
6.97572e-13
4.80272e-08
6.44355e-13
4.80271e-08
5.98254e-13
4.8027e-08
5.58727e-13
5.24225e-13
4.94993e-08
1.84142e-09
-4.94124e-08
4.96084e-08
1.98079e-09
4.97333e-08
2.0932e-09
4.98672e-08
2.17338e-09
5.00042e-08
2.21916e-09
5.01395e-08
2.23047e-09
5.02688e-08
2.20845e-09
5.03885e-08
2.15504e-09
5.04956e-08
2.07288e-09
5.05876e-08
1.96524e-09
5.06627e-08
1.8359e-09
5.07194e-08
1.6891e-09
5.07566e-08
1.52951e-09
5.07742e-08
1.36229e-09
5.07726e-08
1.19297e-09
5.07534e-08
1.02719e-09
5.07189e-08
8.70381e-10
5.06723e-08
7.27159e-10
5.06175e-08
6.00872e-10
5.05579e-08
4.93224e-10
5.0497e-08
4.04282e-10
5.04372e-08
3.32831e-10
5.03803e-08
2.76855e-10
5.03275e-08
2.33966e-10
5.02794e-08
2.01713e-10
5.02362e-08
1.77783e-10
5.01977e-08
1.60133e-10
5.01635e-08
1.4705e-10
5.01333e-08
1.37157e-10
5.01066e-08
1.29391e-10
5.00828e-08
1.22968e-10
5.00616e-08
1.17333e-10
5.00425e-08
1.12116e-10
5.00253e-08
1.07086e-10
5.00096e-08
1.02118e-10
4.99952e-08
9.7161e-11
4.9982e-08
9.221e-11
4.99697e-08
8.7288e-11
4.99583e-08
8.24298e-11
4.99477e-08
7.76721e-11
4.99378e-08
7.30478e-11
4.99286e-08
6.85828e-11
4.992e-08
6.4296e-11
4.9912e-08
6.01996e-11
4.99045e-08
5.63e-11
4.98976e-08
5.25993e-11
4.98911e-08
4.90962e-11
4.9885e-08
4.57873e-11
4.98794e-08
4.26671e-11
4.98742e-08
3.97294e-11
4.98693e-08
3.6967e-11
4.98648e-08
3.43724e-11
4.98606e-08
3.1938e-11
4.98567e-08
2.96561e-11
4.98531e-08
2.7519e-11
4.98497e-08
2.55192e-11
4.98466e-08
2.36494e-11
4.98437e-08
2.19025e-11
4.98411e-08
2.02717e-11
4.98386e-08
1.87504e-11
4.98363e-08
1.73322e-11
4.98342e-08
1.60111e-11
4.98323e-08
1.47813e-11
4.98305e-08
1.36373e-11
4.98288e-08
1.25739e-11
4.98273e-08
1.15861e-11
4.98259e-08
1.06691e-11
4.98246e-08
9.81843e-12
4.98234e-08
9.02987e-12
4.98223e-08
8.29938e-12
4.98213e-08
7.62317e-12
4.98204e-08
6.99764e-12
4.98196e-08
6.4194e-12
4.98188e-08
5.88527e-12
4.98181e-08
5.39224e-12
4.98174e-08
4.93747e-12
4.98168e-08
4.51833e-12
4.98163e-08
4.13231e-12
4.98158e-08
3.77707e-12
4.98153e-08
3.45044e-12
4.98149e-08
3.15036e-12
4.98145e-08
2.87491e-12
4.98142e-08
2.62231e-12
4.98139e-08
2.39088e-12
4.98136e-08
2.17908e-12
4.98133e-08
1.98544e-12
4.98131e-08
1.80865e-12
4.98129e-08
1.64744e-12
4.98127e-08
1.50068e-12
4.98125e-08
1.3673e-12
4.98123e-08
1.24634e-12
4.98122e-08
1.13691e-12
4.98121e-08
1.03823e-12
4.98119e-08
9.49568e-13
4.98118e-08
8.70315e-13
4.98117e-08
7.99935e-13
4.98116e-08
7.37955e-13
4.98115e-08
6.83907e-13
4.98115e-08
6.37151e-13
5.96381e-13
5.13995e-08
1.76174e-09
-5.13198e-08
5.14981e-08
1.88219e-09
5.16109e-08
1.98046e-09
5.17323e-08
2.05194e-09
5.18573e-08
2.09413e-09
5.19815e-08
2.10632e-09
5.21008e-08
2.0891e-09
5.2212e-08
2.04387e-09
5.23121e-08
1.9728e-09
5.23987e-08
1.87863e-09
5.24699e-08
1.76465e-09
5.25244e-08
1.63461e-09
5.25612e-08
1.49267e-09
5.25802e-08
1.34334e-09
5.25817e-08
1.19143e-09
5.25671e-08
1.0418e-09
5.25385e-08
8.99057e-10
5.24985e-08
7.67166e-10
5.24503e-08
6.49068e-10
5.2397e-08
5.46434e-10
5.23417e-08
4.5964e-10
5.22865e-08
3.87991e-10
5.22333e-08
3.30066e-10
5.21832e-08
2.84042e-10
5.2137e-08
2.47957e-10
5.20949e-08
2.19892e-10
5.20569e-08
1.981e-10
5.20229e-08
1.81066e-10
5.19925e-08
1.67536e-10
5.19654e-08
1.5651e-10
5.19412e-08
1.47219e-10
5.19194e-08
1.39096e-10
5.18998e-08
1.31739e-10
5.1882e-08
1.24877e-10
5.18658e-08
1.18339e-10
5.18509e-08
1.1203e-10
5.18372e-08
1.05904e-10
5.18245e-08
9.99494e-11
5.18128e-08
9.41722e-11
5.18019e-08
8.85863e-11
5.17917e-08
8.32069e-11
5.17823e-08
7.80476e-11
5.17734e-08
7.31179e-11
5.17652e-08
6.84233e-11
5.17575e-08
6.39653e-11
5.17504e-08
5.97423e-11
5.17437e-08
5.57501e-11
5.17376e-08
5.19829e-11
5.17318e-08
4.84333e-11
5.17264e-08
4.50932e-11
5.17214e-08
4.19538e-11
5.17168e-08
3.90063e-11
5.17125e-08
3.62416e-11
5.17085e-08
3.36506e-11
5.17048e-08
3.12245e-11
5.17014e-08
2.89546e-11
5.16982e-08
2.68326e-11
5.16952e-08
2.48503e-11
5.16925e-08
2.29998e-11
5.169e-08
2.12737e-11
5.16876e-08
1.96647e-11
5.16855e-08
1.81659e-11
5.16835e-08
1.67707e-11
5.16817e-08
1.54729e-11
5.168e-08
1.42665e-11
5.16784e-08
1.31458e-11
5.1677e-08
1.21055e-11
5.16757e-08
1.11405e-11
5.16744e-08
1.02459e-11
5.16733e-08
9.41717e-12
5.16723e-08
8.65e-12
5.16714e-08
7.9403e-12
5.16705e-08
7.28425e-12
5.16697e-08
6.67821e-12
5.1669e-08
6.11879e-12
5.16683e-08
5.60278e-12
5.16677e-08
5.12716e-12
5.16671e-08
4.68911e-12
5.16666e-08
4.28598e-12
5.16662e-08
3.91529e-12
5.16657e-08
3.57472e-12
5.16654e-08
3.26208e-12
5.1665e-08
2.97535e-12
5.16647e-08
2.71264e-12
5.16644e-08
2.47219e-12
5.16641e-08
2.25234e-12
5.16639e-08
2.05159e-12
5.16637e-08
1.86851e-12
5.16635e-08
1.70181e-12
5.16633e-08
1.55029e-12
5.16631e-08
1.41284e-12
5.1663e-08
1.28845e-12
5.16628e-08
1.17621e-12
5.16627e-08
1.07531e-12
5.16626e-08
9.85009e-13
5.16625e-08
9.04674e-13
5.16624e-08
8.33722e-13
5.16623e-08
7.71572e-13
5.16622e-08
7.17521e-13
6.7048e-13
5.33643e-08
1.68842e-09
-5.3291e-08
5.34538e-08
1.79278e-09
5.35556e-08
1.87858e-09
5.36656e-08
1.94194e-09
5.37794e-08
1.98034e-09
5.3893e-08
1.99276e-09
5.40028e-08
1.97933e-09
5.41055e-08
1.94108e-09
5.41986e-08
1.8797e-09
5.42798e-08
1.79751e-09
5.43471e-08
1.69732e-09
5.43993e-08
1.58241e-09
5.44355e-08
1.45642e-09
5.44556e-08
1.3233e-09
5.44598e-08
1.18719e-09
5.44493e-08
1.05228e-09
5.44259e-08
9.22489e-10
5.43918e-08
8.01231e-10
5.43498e-08
6.91103e-10
5.43025e-08
5.9371e-10