/*--------------------------------*- C++ -*----------------------------------*\
| =========                 |                                                 |
| \\      /  F ield         | OpenFOAM: The Open Source CFD Toolbox           |
|  \\    /   O peration     | Version:  2.3.0                                 |
|   \\  /    A nd           | Web:      www.OpenFOAM.org                      |
|    \\/     M anipulation  |                                                 |
\*---------------------------------------------------------------------------*/
FoamFile
{
    version     2.0;
    format      ascii;
    class       surfaceScalarField;
    location    "0.05";
    object      phi_0;
}
// * * * * * * * * * * * * * * * * * * * * * * * * * * * * * * * * * * * * * //

dimensions      [0 3 -1 0 0 0 0];

internalField   nonuniform List<scalar> 
13570
(
2.84181e-08
2.85236e-09
-3.12705e-08
2.55781e-08
2.84e-09
2.29175e-08
2.66067e-09
2.04711e-08
2.44633e-09
1.82557e-08
2.21544e-09
1.62823e-08
1.97337e-09
1.4554e-08
1.72832e-09
1.30659e-08
1.48809e-09
1.18067e-08
1.25922e-09
1.07599e-08
1.04685e-09
9.90547e-09
8.54381e-10
9.22232e-09
6.8315e-10
8.68987e-09
5.32451e-10
8.28958e-09
4.00296e-10
8.00482e-09
2.84751e-10
7.82097e-09
1.83853e-10
7.72826e-09
9.27157e-11
7.71486e-09
1.33981e-11
7.74848e-09
-3.36183e-11
7.79951e-09
-5.10305e-11
7.85154e-09
-5.20306e-11
7.89728e-09
-4.5739e-11
7.93442e-09
-3.71428e-11
7.96316e-09
-2.87409e-11
7.98467e-09
-2.15118e-11
8.00036e-09
-1.56891e-11
8.01155e-09
-1.11916e-11
8.01938e-09
-7.83119e-12
8.02477e-09
-5.38312e-12
8.0284e-09
-3.63522e-12
8.03081e-09
-2.4064e-12
8.03236e-09
-1.55032e-12
8.03331e-09
-9.5356e-13
8.03385e-09
-5.38437e-13
8.03409e-09
-2.41101e-13
8.0341e-09
-8.65065e-15
8.03391e-09
1.90502e-13
8.03356e-09
3.46646e-13
8.03311e-09
4.57775e-13
8.03257e-09
5.36996e-13
8.03197e-09
5.94924e-13
8.03134e-09
6.383e-13
8.03066e-09
6.71064e-13
8.02997e-09
6.95528e-13
8.02926e-09
7.13168e-13
8.02853e-09
7.25063e-13
8.0278e-09
7.32048e-13
8.02706e-09
7.34827e-13
8.02633e-09
7.34023e-13
8.0256e-09
7.30173e-13
8.02488e-09
7.23752e-13
8.02416e-09
7.1517e-13
8.02346e-09
7.04774e-13
8.02276e-09
6.92873e-13
8.02208e-09
6.79745e-13
8.02142e-09
6.6561e-13
8.02077e-09
6.50653e-13
8.02013e-09
6.35054e-13
8.01951e-09
6.18958e-13
8.01891e-09
6.02491e-13
8.01832e-09
5.85754e-13
8.01776e-09
5.68845e-13
8.0172e-09
5.51845e-13
8.01667e-09
5.34812e-13
8.01615e-09
5.17819e-13
8.01565e-09
5.00902e-13
8.01517e-09
4.84115e-13
8.0147e-09
4.67486e-13
8.01425e-09
4.51053e-13
8.01381e-09
4.34838e-13
8.01339e-09
4.1886e-13
8.01299e-09
4.03139e-13
8.0126e-09
3.87688e-13
8.01223e-09
3.72515e-13
8.01187e-09
3.57634e-13
8.01153e-09
3.43042e-13
8.0112e-09
3.28757e-13
8.01089e-09
3.14766e-13
8.01059e-09
3.01085e-13
8.0103e-09
2.87691e-13
8.01002e-09
2.74599e-13
8.00976e-09
2.61789e-13
8.00951e-09
2.49272e-13
8.00928e-09
2.3704e-13
8.00905e-09
2.25083e-13
8.00884e-09
2.1341e-13
8.00863e-09
2.01999e-13
8.00844e-09
1.90861e-13
8.00826e-09
1.7999e-13
8.00809e-09
1.69389e-13
8.00794e-09
1.59076e-13
8.00779e-09
1.49067e-13
8.00765e-09
1.3942e-13
8.00752e-09
1.30227e-13
8.00739e-09
1.21663e-13
8.00728e-09
1.14101e-13
8.00717e-09
1.08335e-13
8.00707e-09
1.06361e-13
8.00696e-09
1.10648e-13
2.41974e-13
3.34628e-08
3.10024e-09
-3.37107e-08
3.29057e-08
3.39707e-09
3.21227e-08
3.44373e-09
3.11925e-08
3.37652e-09
3.01723e-08
3.23562e-09
2.91096e-08
3.03605e-09
2.80437e-08
2.79425e-09
2.70056e-08
2.52618e-09
2.60197e-08
2.24513e-09
2.51051e-08
1.96146e-09
2.42769e-08
1.68254e-09
2.35474e-08
1.4127e-09
2.29259e-08
1.15395e-09
2.24187e-08
9.07529e-10
2.20279e-08
6.75489e-10
2.17507e-08
4.61093e-10
2.15732e-08
2.70243e-10
2.14762e-08
1.10311e-10
2.14494e-08
-6.79928e-12
2.14753e-08
-7.69589e-11
2.15294e-08
-1.06035e-10
2.15937e-08
-1.10061e-10
2.16571e-08
-1.00521e-10
2.17133e-08
-8.4975e-11
2.17598e-08
-6.79996e-11
2.17962e-08
-5.20888e-11
2.18234e-08
-3.8404e-11
2.18429e-08
-2.73053e-11
2.18562e-08
-1.8695e-11
2.18648e-08
-1.22517e-11
2.187e-08
-7.57588e-12
2.18727e-08
-4.2717e-12
2.18737e-08
-1.98478e-12
2.18735e-08
-3.7348e-13
2.18724e-08
8.52559e-13
2.18707e-08
1.78965e-12
2.18684e-08
2.44673e-12
2.18659e-08
2.87484e-12
2.18632e-08
3.13841e-12
2.18604e-08
3.29369e-12
2.18576e-08
3.3799e-12
2.18549e-08
3.42165e-12
2.18521e-08
3.43369e-12
2.18494e-08
3.42473e-12
2.18467e-08
3.40014e-12
2.1844e-08
3.36342e-12
2.18415e-08
3.31706e-12
2.18389e-08
3.26296e-12
2.18365e-08
3.20266e-12
2.18341e-08
3.13741e-12
2.18317e-08
3.06828e-12
2.18294e-08
2.99617e-12
2.18272e-08
2.92183e-12
2.18251e-08
2.84588e-12
2.1823e-08
2.76887e-12
2.18209e-08
2.69125e-12
2.1819e-08
2.61339e-12
2.18171e-08
2.5356e-12
2.18152e-08
2.45815e-12
2.18135e-08
2.38126e-12
2.18117e-08
2.30512e-12
2.18101e-08
2.22987e-12
2.18085e-08
2.15565e-12
2.18069e-08
2.08254e-12
2.18054e-08
2.01065e-12
2.1804e-08
1.94003e-12
2.18026e-08
1.87073e-12
2.18013e-08
1.8028e-12
2.18e-08
1.73626e-12
2.17988e-08
1.67114e-12
2.17976e-08
1.60744e-12
2.17964e-08
1.54518e-12
2.17953e-08
1.48435e-12
2.17943e-08
1.42493e-12
2.17933e-08
1.36693e-12
2.17923e-08
1.31032e-12
2.17914e-08
1.25509e-12
2.17905e-08
1.2012e-12
2.17896e-08
1.14864e-12
2.17888e-08
1.09738e-12
2.17881e-08
1.04737e-12
2.17873e-08
9.986e-13
2.17866e-08
9.51022e-13
2.1786e-08
9.04616e-13
2.17853e-08
8.59335e-13
2.17847e-08
8.15157e-13
2.17841e-08
7.7204e-13
2.17836e-08
7.29958e-13
2.17831e-08
6.88895e-13
2.17826e-08
6.48827e-13
2.17822e-08
6.09778e-13
2.17817e-08
5.71777e-13
2.17813e-08
5.34928e-13
2.1781e-08
4.99445e-13
2.17806e-08
4.65743e-13
2.17803e-08
4.34726e-13
2.178e-08
4.08398e-13
2.17797e-08
3.91759e-13
2.17794e-08
4.0779e-13
5.56809e-13
3.48551e-08
2.92851e-09
-3.46833e-08
3.4944e-08
3.30819e-09
3.4912e-08
3.47565e-09
3.47669e-08
3.52168e-09
3.45212e-08
3.4813e-09
3.41916e-08
3.36569e-09
3.37981e-08
3.18771e-09
3.3362e-08
2.96226e-09
3.29042e-08
2.70296e-09
3.24446e-08
2.42104e-09
3.2002e-08
2.12512e-09
3.15934e-08
1.82136e-09
3.12329e-08
1.51443e-09
3.09311e-08
1.20926e-09
3.0694e-08
9.1259e-10
3.05215e-08
6.33604e-10
3.04074e-08
3.84415e-10
3.03388e-08
1.78835e-10
3.03055e-08
2.65882e-11
3.03028e-08
-7.43454e-11
3.03236e-08
-1.26843e-10
3.03598e-08
-1.46195e-10
3.04035e-08
-1.44232e-10
3.04486e-08
-1.30104e-10
3.04909e-08
-1.10238e-10
3.05276e-08
-8.88551e-11
3.05577e-08
-6.85116e-11
3.0581e-08
-5.05749e-11
3.05979e-08
-3.56023e-11
3.06093e-08
-2.36354e-11
3.06161e-08
-1.44178e-11
3.06194e-08
-7.54476e-12
3.062e-08
-2.53405e-12
3.06185e-08
1.12967e-12
3.06155e-08
3.79983e-12
3.06117e-08
5.6456e-12
3.06073e-08
6.83557e-12
3.06026e-08
7.54545e-12
3.05978e-08
7.92827e-12
3.0593e-08
8.10017e-12
3.05882e-08
8.1402e-12
3.05836e-08
8.09853e-12
3.0579e-08
8.00569e-12
3.05745e-08
7.87996e-12
3.05702e-08
7.73241e-12
3.0566e-08
7.56994e-12
3.05619e-08
7.3971e-12
3.0558e-08
7.21704e-12
3.05541e-08
7.0321e-12
3.05504e-08
6.84407e-12
3.05468e-08
6.65437e-12
3.05434e-08
6.46412e-12
3.054e-08
6.27423e-12
3.05368e-08
6.08542e-12
3.05336e-08
5.89829e-12
3.05306e-08
5.71333e-12
3.05277e-08
5.53089e-12
3.05249e-08
5.35128e-12
3.05222e-08
5.17473e-12
3.05196e-08
5.00144e-12
3.0517e-08
4.83153e-12
3.05146e-08
4.6651e-12
3.05122e-08
4.50224e-12
3.051e-08
4.34297e-12
3.05078e-08
4.18733e-12
3.05057e-08
4.03533e-12
3.05037e-08
3.88694e-12
3.05018e-08
3.74217e-12
3.04999e-08
3.60097e-12
3.04981e-08
3.46331e-12
3.04964e-08
3.32913e-12
3.04947e-08
3.19839e-12
3.04931e-08
3.07103e-12
3.04916e-08
2.94699e-12
3.04902e-08
2.82618e-12
3.04888e-08
2.70855e-12
3.04874e-08
2.59401e-12
3.04861e-08
2.4825e-12
3.04849e-08
2.37392e-12
3.04837e-08
2.26819e-12
3.04826e-08
2.16523e-12
3.04816e-08
2.06495e-12
3.04805e-08
1.96728e-12
3.04796e-08
1.87212e-12
3.04787e-08
1.77939e-12
3.04778e-08
1.68901e-12
3.0477e-08
1.60089e-12
3.04762e-08
1.51496e-12
3.04754e-08
1.43117e-12
3.04747e-08
1.34945e-12
3.04741e-08
1.2698e-12
3.04734e-08
1.19225e-12
3.04729e-08
1.11694e-12
3.04723e-08
1.04415e-12
3.04718e-08
9.74526e-13
3.04713e-08
9.09425e-13
3.04709e-08
8.51931e-13
3.04705e-08
8.10132e-13
3.04701e-08
8.1187e-13
9.1762e-13
3.56874e-08
2.72113e-09
-3.548e-08
3.59029e-08
3.09269e-09
3.60811e-08
3.29749e-09
3.62106e-08
3.39209e-09
3.62868e-08
3.40515e-09
3.63074e-08
3.34504e-09
3.62753e-08
3.2198e-09
3.61973e-08
3.04034e-09
3.60826e-08
2.8176e-09
3.59425e-08
2.56115e-09
3.57887e-08
2.27892e-09
3.56326e-08
1.9775e-09
3.54839e-08
1.66309e-09
3.53501e-08
1.34305e-09
3.52356e-08
1.02714e-09
3.51414e-08
7.27798e-10
3.5066e-08
4.59749e-10
3.50067e-08
2.38159e-10
3.49612e-08
7.21232e-11
3.49282e-08
-4.13862e-11
3.49097e-08
-1.08287e-10
3.49035e-08
-1.40031e-10
3.49067e-08
-1.47406e-10
3.49158e-08
-1.3927e-10
3.4928e-08
-1.2237e-10
3.49407e-08
-1.01543e-10
3.49522e-08
-8.00445e-11
3.49615e-08
-5.98981e-11
3.49681e-08
-4.22076e-11
3.49719e-08
-2.74246e-11
3.49731e-08
-1.55671e-11
3.49719e-08
-6.37661e-12
3.49688e-08
5.82298e-13
3.49642e-08
5.71668e-12
3.49587e-08
9.33477e-12
3.49526e-08
1.17342e-11
3.49462e-08
1.32087e-11
3.49397e-08
1.40227e-11
3.49333e-08
1.43903e-11
3.49269e-08
1.44699e-11
3.49207e-08
1.43699e-11
3.49146e-08
1.416e-11
3.49087e-08
1.3884e-11
3.4903e-08
1.35684e-11
3.48975e-08
1.32296e-11
3.48922e-08
1.28777e-11
3.48871e-08
1.25189e-11
3.48822e-08
1.21575e-11
3.48774e-08
1.17964e-11
3.48728e-08
1.14377e-11
3.48684e-08
1.10828e-11
3.48641e-08
1.07327e-11
3.486e-08
1.03884e-11
3.4856e-08
1.00504e-11
3.48522e-08
9.71906e-12
3.48485e-08
9.39476e-12
3.4845e-08
9.07766e-12
3.48416e-08
8.7679e-12
3.48383e-08
8.46553e-12
3.48351e-08
8.17056e-12
3.48321e-08
7.88298e-12
3.48291e-08
7.6027e-12
3.48263e-08
7.32968e-12
3.48236e-08
7.06379e-12
3.4821e-08
6.80494e-12
3.48184e-08
6.553e-12
3.4816e-08
6.30784e-12
3.48137e-08
6.06933e-12
3.48114e-08
5.8373e-12
3.48093e-08
5.61164e-12
3.48072e-08
5.39218e-12
3.48053e-08
5.17879e-12
3.48034e-08
4.97129e-12
3.48015e-08
4.76955e-12
3.47998e-08
4.57341e-12
3.47981e-08
4.3827e-12
3.47965e-08
4.19728e-12
3.4795e-08
4.01699e-12
3.47935e-08
3.84167e-12
3.47921e-08
3.67116e-12
3.47908e-08
3.50531e-12
3.47895e-08
3.34397e-12
3.47883e-08
3.18697e-12
3.47871e-08
3.03418e-12
3.4786e-08
2.88544e-12
3.47849e-08
2.74059e-12
3.47839e-08
2.5995e-12
3.4783e-08
2.46203e-12
3.47821e-08
2.32808e-12
3.47813e-08
2.19752e-12
3.47805e-08
2.07033e-12
3.47797e-08
1.9465e-12
3.4779e-08
1.82615e-12
3.47783e-08
1.70964e-12
3.47777e-08
1.59771e-12
3.47771e-08
1.492e-12
3.47766e-08
1.39613e-12
3.47761e-08
1.31897e-12
3.47756e-08
1.28399e-12
1.32248e-12
3.64368e-08
2.53906e-09
-3.62547e-08
3.66522e-08
2.87726e-09
3.68642e-08
3.08548e-09
3.70604e-08
3.19591e-09
3.72341e-08
3.23142e-09
3.73793e-08
3.19986e-09
3.74922e-08
3.1069e-09
3.75721e-08
2.96043e-09
3.76208e-08
2.76892e-09
3.76418e-08
2.54014e-09
3.76398e-08
2.28095e-09
3.76195e-08
1.99773e-09
3.75854e-08
1.69725e-09
3.75406e-08
1.38783e-09
3.74875e-08
1.08021e-09
3.74278e-08
7.87507e-10
3.73634e-08
5.24222e-10
3.72974e-08
3.04165e-10
3.72336e-08
1.35869e-10
3.71749e-08
1.73036e-11
3.71249e-08
-5.82469e-11
3.70845e-08
-9.96343e-11
3.70532e-08
-1.16156e-10
3.70298e-08
-1.15803e-10
3.70124e-08
-1.04999e-10
3.69994e-08
-8.85925e-11
3.69894e-08
-7.00427e-11
3.69812e-08
-5.16602e-11
3.69739e-08
-3.48527e-11
3.69668e-08
-2.03494e-11
3.69596e-08
-8.39333e-12
3.69521e-08
1.10678e-12
3.69443e-08
8.3881e-12
3.69363e-08
1.37193e-11
3.69282e-08
1.74092e-11
3.69202e-08
1.97884e-11
3.69122e-08
2.11747e-11
3.69044e-08
2.18483e-11
3.68967e-08
2.20357e-11
3.68893e-08
2.19059e-11
3.68821e-08
2.15768e-11
3.68751e-08
2.1127e-11
3.68684e-08
2.06067e-11
3.68619e-08
2.00476e-11
3.68557e-08
1.94691e-11
3.68497e-08
1.88834e-11
3.68439e-08
1.82982e-11
3.68384e-08
1.77182e-11
3.6833e-08
1.71466e-11
3.68279e-08
1.65854e-11
3.68229e-08
1.60358e-11
3.68181e-08
1.54987e-11
3.68135e-08
1.49746e-11
3.68091e-08
1.44637e-11
3.68049e-08
1.39662e-11
3.68008e-08
1.34821e-11
3.67969e-08
1.30111e-11
3.67931e-08
1.25531e-11
3.67894e-08
1.2108e-11
3.67859e-08
1.16754e-11
3.67826e-08
1.12551e-11
3.67793e-08
1.08468e-11
3.67762e-08
1.04502e-11
3.67732e-08
1.00649e-11
3.67703e-08
9.6908e-12
3.67675e-08
9.32746e-12
3.67649e-08
8.9746e-12
3.67623e-08
8.63196e-12
3.67598e-08
8.29922e-12
3.67575e-08
7.97611e-12
3.67552e-08
7.66234e-12
3.6753e-08
7.35766e-12
3.67509e-08
7.06179e-12
3.67489e-08
6.77445e-12
3.6747e-08
6.4954e-12
3.67452e-08
6.22437e-12
3.67434e-08
5.96111e-12
3.67417e-08
5.70537e-12
3.67401e-08
5.45691e-12
3.67386e-08
5.21548e-12
3.67371e-08
4.98084e-12
3.67357e-08
4.75276e-12
3.67343e-08
4.531e-12
3.67331e-08
4.31535e-12
3.67318e-08
4.10556e-12
3.67307e-08
3.90142e-12
3.67296e-08
3.70272e-12
3.67285e-08
3.50924e-12
3.67275e-08
3.32083e-12
3.67266e-08
3.13731e-12
3.67257e-08
2.95858e-12
3.67249e-08
2.78461e-12
3.67241e-08
2.61549e-12
3.67233e-08
2.45157e-12
3.67226e-08
2.29362e-12
3.6722e-08
2.14336e-12
3.67214e-08
2.00444e-12
3.67208e-08
1.88491e-12
3.67203e-08
1.80179e-12
1.76674e-12
3.71792e-08
2.38419e-09
-3.70243e-08
3.73721e-08
2.68428e-09
3.75742e-08
2.88343e-09
3.7773e-08
2.99706e-09
3.79626e-08
3.04186e-09
3.81372e-08
3.02525e-09
3.82921e-08
2.952e-09
3.84243e-08
2.82822e-09
3.85325e-08
2.66076e-09
3.86164e-08
2.45623e-09
3.86766e-08
2.22074e-09
3.87139e-08
1.9604e-09
3.87292e-08
1.68199e-09
3.87231e-08
1.39388e-09
3.86968e-08
1.10652e-09
3.86521e-08
8.32211e-10
3.85923e-08
5.83984e-10
3.85229e-08
3.73655e-10
3.84502e-08
2.08566e-10
3.83792e-08
8.82896e-11
3.83136e-08
7.33541e-12
3.82557e-08
-4.17564e-11
3.82062e-08
-6.6665e-11
3.81648e-08
-7.43954e-11
3.81306e-08
-7.08068e-11
3.81025e-08
-6.04974e-11
3.80794e-08
-4.68789e-11
3.806e-08
-3.23385e-11
3.80436e-08
-1.84265e-11
3.80293e-08
-6.03832e-12
3.80165e-08
4.41031e-12
3.80048e-08
1.28212e-11
3.79939e-08
1.92768e-11
3.79836e-08
2.39696e-11
3.79739e-08
2.71571e-11
3.79646e-08
2.91272e-11
3.79556e-08
3.01633e-11
3.79469e-08
3.05193e-11
3.79385e-08
3.04045e-11
3.79305e-08
2.99788e-11
3.79227e-08
2.93572e-11
3.79152e-08
2.86182e-11
3.7908e-08
2.78137e-11
3.79011e-08
2.69772e-11
3.78944e-08
2.61296e-11
3.7888e-08
2.52841e-11
3.78818e-08
2.44488e-11
3.78759e-08
2.36288e-11
3.78702e-08
2.2827e-11
3.78648e-08
2.20452e-11
3.78595e-08
2.12843e-11
3.78545e-08
2.05448e-11
3.78496e-08
1.98266e-11
3.7845e-08
1.91297e-11
3.78405e-08
1.84537e-11
3.78362e-08
1.77981e-11
3.7832e-08
1.71624e-11
3.7828e-08
1.65461e-11
3.78242e-08
1.59487e-11
3.78205e-08
1.53696e-11
3.78169e-08
1.48081e-11
3.78135e-08
1.42638e-11
3.78102e-08
1.3736e-11
3.78071e-08
1.32243e-11
3.7804e-08
1.27281e-11
3.78011e-08
1.22469e-11
3.77983e-08
1.17802e-11
3.77956e-08
1.13276e-11
3.7793e-08
1.08886e-11
3.77905e-08
1.04627e-11
3.77882e-08
1.00495e-11
3.77859e-08
9.6487e-12
3.77837e-08
9.25978e-12
3.77816e-08
8.8824e-12
3.77795e-08
8.51617e-12
3.77776e-08
8.16072e-12
3.77757e-08
7.81569e-12
3.7774e-08
7.48075e-12
3.77723e-08
7.15552e-12
3.77707e-08
6.8397e-12
3.77691e-08
6.53293e-12
3.77676e-08
6.23491e-12
3.77662e-08
5.94531e-12
3.77649e-08
5.66383e-12
3.77636e-08
5.39016e-12
3.77623e-08
5.12399e-12
3.77612e-08
4.86504e-12
3.77601e-08
4.61303e-12
3.7759e-08
4.36772e-12
3.7758e-08
4.12888e-12
3.77571e-08
3.89635e-12
3.77562e-08
3.67004e-12
3.77554e-08
3.45e-12
3.77546e-08
3.23655e-12
3.77539e-08
3.03043e-12
3.77532e-08
2.83329e-12
3.77525e-08
2.64849e-12
3.77519e-08
2.48268e-12
3.77514e-08
2.34711e-12
2.24102e-12
3.79262e-08
2.25051e-09
-3.77925e-08
3.80964e-08
2.51406e-09
3.82806e-08
2.69923e-09
3.84668e-08
2.81085e-09
3.86489e-08
2.85975e-09
3.88218e-08
2.85234e-09
3.8981e-08
2.7928e-09
3.91231e-08
2.68613e-09
3.92458e-08
2.53811e-09
3.93474e-08
2.35458e-09
3.9427e-08
2.1412e-09
3.94835e-08
1.90382e-09
3.95165e-08
1.64906e-09
3.95255e-08
1.38487e-09
3.95111e-08
1.12089e-09
3.94752e-08
8.68086e-10
3.94214e-08
6.37773e-10
3.93552e-08
4.39897e-10
3.92831e-08
2.80715e-10
3.92106e-08
1.60759e-10
3.91418e-08
7.61626e-11
3.9079e-08
2.09592e-11
3.90237e-08
-1.12875e-11
3.89759e-08
-2.65919e-11
3.89352e-08
-3.01741e-11
3.8901e-08
-2.62719e-11
3.88723e-08
-1.81366e-11
3.88481e-08
-8.1284e-12
3.88275e-08
2.145e-12
3.88098e-08
1.16765e-11
3.87943e-08
1.99099e-11
3.87805e-08
2.66115e-11
3.8768e-08
3.17549e-11
3.87565e-08
3.54425e-11
3.87458e-08
3.78554e-11
3.87357e-08
3.92166e-11
3.87261e-08
3.97567e-11
3.8717e-08
3.96893e-11
3.87082e-08
3.91958e-11
3.86997e-08
3.84187e-11
3.86916e-08
3.74635e-11
3.86839e-08
3.64043e-11
3.86764e-08
3.52913e-11
3.86692e-08
3.41576e-11
3.86623e-08
3.30242e-11
3.86557e-08
3.19045e-11
3.86493e-08
3.08064e-11
3.86432e-08
2.97348e-11
3.86373e-08
2.86924e-11
3.86317e-08
2.76805e-11
3.86263e-08
2.66995e-11
3.86211e-08
2.57494e-11
3.86161e-08
2.48296e-11
3.86113e-08
2.39395e-11
3.86067e-08
2.30783e-11
3.86022e-08
2.22451e-11
3.85979e-08
2.14389e-11
3.85938e-08
2.06588e-11
3.85899e-08
1.99039e-11
3.85861e-08
1.91733e-11
3.85824e-08
1.8466e-11
3.85789e-08
1.77812e-11
3.85755e-08
1.71181e-11
3.85723e-08
1.64759e-11
3.85691e-08
1.58538e-11
3.85661e-08
1.52511e-11
3.85632e-08
1.46671e-11
3.85605e-08
1.41011e-11
3.85578e-08
1.35526e-11
3.85552e-08
1.30209e-11
3.85528e-08
1.25054e-11
3.85504e-08
1.20056e-11
3.85482e-08
1.1521e-11
3.8546e-08
1.10509e-11
3.85439e-08
1.0595e-11
3.85419e-08
1.01527e-11
3.854e-08
9.72362e-12
3.85382e-08
9.30723e-12
3.85364e-08
8.90309e-12
3.85348e-08
8.5108e-12
3.85332e-08
8.12991e-12
3.85317e-08
7.76003e-12
3.85302e-08
7.40073e-12
3.85288e-08
7.05164e-12
3.85275e-08
6.71234e-12
3.85262e-08
6.38247e-12
3.8525e-08
6.06167e-12
3.85239e-08
5.74957e-12
3.85228e-08
5.44586e-12
3.85218e-08
5.15025e-12
3.85208e-08
4.8625e-12
3.85199e-08
4.58247e-12
3.85191e-08
4.31015e-12
3.85182e-08
4.04581e-12
3.85175e-08
3.79012e-12
3.85168e-08
3.54457e-12
3.85161e-08
3.31208e-12
3.85155e-08
3.09781e-12
3.85149e-08
2.9085e-12
2.73682e-12
3.86795e-08
2.13287e-09
-3.85619e-08
3.88301e-08
2.36344e-09
3.89966e-08
2.53275e-09
3.91678e-08
2.63963e-09
3.93375e-08
2.69011e-09
3.95007e-08
2.68911e-09
3.96532e-08
2.64027e-09
3.97916e-08
2.54773e-09
3.99133e-08
2.41643e-09
4.00162e-08
2.25162e-09
4.00989e-08
2.05858e-09
4.01598e-08
1.84291e-09
4.01979e-08
1.61092e-09
4.02128e-08
1.37001e-09
4.02048e-08
1.1289e-09
4.01757e-08
8.97192e-10
4.01288e-08
6.84596e-10
4.00692e-08
4.99505e-10
4.00026e-08
3.47317e-10
3.99343e-08
2.29115e-10
3.98681e-08
1.42323e-10
3.98067e-08
8.23516e-11
3.97515e-08
4.39333e-11
3.9703e-08
2.19385e-11
3.9661e-08
1.17761e-11
3.96251e-08
9.60427e-12
3.95946e-08
1.2385e-11
3.95687e-08
1.78374e-11
3.95465e-08
2.43419e-11
3.95273e-08
3.0824e-11
3.95106e-08
3.66324e-11
3.94958e-08
4.14278e-11
3.94824e-08
4.50846e-11
3.94703e-08
4.76171e-11
3.9459e-08
4.91298e-11
3.94484e-08
4.97789e-11
3.94384e-08
4.97403e-11
3.9429e-08
4.91851e-11
3.94199e-08
4.82637e-11
3.94112e-08
4.70983e-11
3.94029e-08
4.5782e-11
3.93949e-08
4.43818e-11
3.93873e-08
4.29444e-11
3.93799e-08
4.15008e-11
3.93729e-08
4.00713e-11
3.93661e-08
3.86685e-11
3.93596e-08
3.73e-11
3.93534e-08
3.597e-11
3.93474e-08
3.46808e-11
3.93416e-08
3.34331e-11
3.93361e-08
3.22268e-11
3.93308e-08
3.10611e-11
3.93257e-08
2.99351e-11
3.93208e-08
2.88475e-11
3.93161e-08
2.77971e-11
3.93115e-08
2.67824e-11
3.93072e-08
2.5802e-11
3.9303e-08
2.48546e-11
3.92989e-08
2.39389e-11
3.92951e-08
2.30536e-11
3.92913e-08
2.21974e-11
3.92877e-08
2.13693e-11
3.92843e-08
2.0568e-11
3.9281e-08
1.97926e-11
3.92778e-08
1.9042e-11
3.92747e-08
1.83154e-11
3.92718e-08
1.76117e-11
3.92689e-08
1.69301e-11
3.92662e-08
1.62699e-11
3.92636e-08
1.56302e-11
3.92611e-08
1.50104e-11
3.92587e-08
1.44096e-11
3.92564e-08
1.38273e-11
3.92542e-08
1.32628e-11
3.92521e-08
1.27154e-11
3.925e-08
1.21846e-11
3.92481e-08
1.16697e-11
3.92462e-08
1.11703e-11
3.92444e-08
1.06857e-11
3.92427e-08
1.02154e-11
3.92411e-08
9.75894e-12
3.92396e-08
9.31578e-12
3.92381e-08
8.88542e-12
3.92367e-08
8.46739e-12
3.92353e-08
8.0612e-12
3.9234e-08
7.66639e-12
3.92328e-08
7.28252e-12
3.92316e-08
6.90916e-12
3.92305e-08
6.54592e-12
3.92295e-08
6.19243e-12
3.92285e-08
5.84838e-12
3.92276e-08
5.51357e-12
3.92267e-08
5.18792e-12
3.92259e-08
4.87162e-12
3.92251e-08
4.56524e-12
3.92244e-08
4.27008e-12
3.92237e-08
3.98854e-12
3.92231e-08
3.72437e-12
3.92225e-08
3.48111e-12
3.24884e-12
3.94396e-08
2.02765e-09
-3.93344e-08
3.95739e-08
2.22923e-09
3.97242e-08
2.38237e-09
3.9881e-08
2.48288e-09
4.00378e-08
2.53328e-09
4.019e-08
2.53695e-09
4.03334e-08
2.49688e-09
4.04646e-08
2.41651e-09
4.0581e-08
2.30007e-09
4.06803e-08
2.15222e-09
4.0761e-08
1.97791e-09
4.08215e-08
1.7824e-09
4.08608e-08
1.57163e-09
4.08784e-08
1.35244e-09
4.08747e-08
1.13259e-09
4.08514e-08
9.20519e-10
4.08114e-08
7.24529e-10
4.07592e-08
5.51763e-10
4.06996e-08
4.06937e-10
4.06372e-08
2.91447e-10
4.05758e-08
2.03695e-10
4.0518e-08
1.40224e-10
4.04651e-08
9.67925e-11
4.0418e-08
6.90829e-11
4.03766e-08
5.31041e-11
4.03408e-08
4.54156e-11
4.031e-08
4.32163e-11
4.02835e-08
4.43384e-11
4.02607e-08
4.71873e-11
4.02408e-08
5.06543e-11
4.02234e-08
5.40203e-11
4.0208e-08
5.68624e-11
4.01941e-08
5.89704e-11
4.01815e-08
6.028e-11
4.01698e-08
6.08249e-11
4.01588e-08
6.06995e-11
4.01486e-08
6.00275e-11
4.01388e-08
5.89387e-11
4.01295e-08
5.75529e-11
4.01206e-08
5.59709e-11
4.01121e-08
5.42718e-11
4.0104e-08
5.25141e-11
4.00962e-08
5.07395e-11
4.00887e-08
4.89762e-11
4.00816e-08
4.72425e-11
4.00747e-08
4.55498e-11
4.00681e-08
4.3905e-11
4.00617e-08
4.23116e-11
4.00557e-08
4.0771e-11
4.00498e-08
3.92832e-11
4.00442e-08
3.78475e-11
4.00388e-08
3.64626e-11
4.00336e-08
3.51269e-11
4.00286e-08
3.38385e-11
4.00238e-08
3.25956e-11
4.00192e-08
3.13964e-11
4.00147e-08
3.02389e-11
4.00105e-08
2.91215e-11
4.00064e-08
2.80423e-11
4.00024e-08
2.69997e-11
3.99986e-08
2.59922e-11
3.9995e-08
2.50183e-11
3.99915e-08
2.40766e-11
3.99881e-08
2.31658e-11
3.99849e-08
2.22846e-11
3.99817e-08
2.14319e-11
3.99788e-08
2.06065e-11
3.99759e-08
1.98074e-11
3.99731e-08
1.90336e-11
3.99705e-08
1.82842e-11
3.99679e-08
1.75582e-11
3.99655e-08
1.68548e-11
3.99631e-08
1.61732e-11
3.99609e-08
1.55125e-11
3.99587e-08
1.48721e-11
3.99566e-08
1.42512e-11
3.99547e-08
1.36492e-11
3.99528e-08
1.30653e-11
3.9951e-08
1.24989e-11
3.99492e-08
1.19493e-11
3.99476e-08
1.1416e-11
3.9946e-08
1.08983e-11
3.99445e-08
1.03957e-11
3.9943e-08
9.90751e-12
3.99417e-08
9.43328e-12
3.99404e-08
8.97243e-12
3.99391e-08
8.52442e-12
3.99379e-08
8.08876e-12
3.99368e-08
7.66496e-12
3.99358e-08
7.25258e-12
3.99348e-08
6.85125e-12
3.99338e-08
6.46069e-12
3.99329e-08
6.08074e-12
3.99321e-08
5.71151e-12
3.99313e-08
5.35344e-12
3.99305e-08
5.00758e-12
3.99299e-08
4.6758e-12
3.99292e-08
4.36066e-12
3.99286e-08
4.0635e-12
3.77419e-12
4.02071e-08
1.93233e-09
-4.01118e-08
4.03276e-08
2.10874e-09
4.04638e-08
2.24625e-09
4.06071e-08
2.33949e-09
4.07518e-08
2.38864e-09
4.08931e-08
2.39566e-09
4.10271e-08
2.36286e-09
4.11505e-08
2.2931e-09
4.12606e-08
2.18995e-09
4.13553e-08
2.05756e-09
4.14327e-08
1.90045e-09
4.14916e-08
1.72355e-09
4.15309e-08
1.53237e-09
4.15501e-08
1.33314e-09
4.15499e-08
1.13282e-09
4.15317e-08
9.38758e-10
4.14981e-08
7.58118e-10
4.14528e-08
5.97026e-10
4.14001e-08
4.59644e-10
4.1344e-08
3.47538e-10
4.12879e-08
2.5983e-10
4.12341e-08
1.93981e-10
4.11843e-08
1.46617e-10
4.11393e-08
1.14148e-10
4.10992e-08
9.3141e-11
4.10641e-08
8.0549e-11
4.10335e-08
7.38204e-11
4.10069e-08
7.09233e-11
4.09838e-08
7.03141e-11
4.09635e-08
7.08771e-11
4.09457e-08
7.18494e-11
4.09298e-08
7.27452e-11
4.09155e-08
7.32848e-11
4.09025e-08
7.33365e-11
4.08904e-08
7.28713e-11
4.08792e-08
7.19275e-11
4.08686e-08
7.05808e-11
4.08586e-08
6.89223e-11
4.08492e-08
6.70419e-11
4.08401e-08
6.50191e-11
4.08315e-08
6.29183e-11
4.08232e-08
6.07886e-11
4.08153e-08
5.86655e-11
4.08077e-08
5.65734e-11
4.08004e-08
5.45282e-11
4.07934e-08
5.25398e-11
4.07867e-08
5.06136e-11
4.07802e-08
4.87521e-11
4.07741e-08
4.69559e-11
4.07681e-08
4.52244e-11
4.07624e-08
4.35559e-11
4.07569e-08
4.19484e-11
4.07516e-08
4.03998e-11
4.07466e-08
3.89077e-11
4.07417e-08
3.74695e-11
4.0737e-08
3.6083e-11
4.07325e-08
3.47459e-11
4.07282e-08
3.34558e-11
4.0724e-08
3.22107e-11
4.072e-08
3.10085e-11
4.07161e-08
2.98474e-11
4.07124e-08
2.87255e-11
4.07089e-08
2.76413e-11
4.07054e-08
2.6593e-11
4.07022e-08
2.55792e-11
4.0699e-08
2.45985e-11
4.06959e-08
2.36495e-11
4.0693e-08
2.2731e-11
4.06902e-08
2.18419e-11
4.06875e-08
2.09809e-11
4.06849e-08
2.01471e-11
4.06824e-08
1.93394e-11
4.06801e-08
1.85569e-11
4.06778e-08
1.77987e-11
4.06756e-08
1.70638e-11
4.06735e-08
1.63514e-11
4.06715e-08
1.56608e-11
4.06695e-08
1.4991e-11
4.06677e-08
1.43415e-11
4.06659e-08
1.37113e-11
4.06643e-08
1.30999e-11
4.06626e-08
1.25065e-11
4.06611e-08
1.19304e-11
4.06596e-08
1.13711e-11
4.06583e-08
1.08277e-11
4.06569e-08
1.02997e-11
4.06557e-08
9.78654e-12
4.06545e-08
9.28754e-12
4.06533e-08
8.80219e-12
4.06522e-08
8.32996e-12
4.06512e-08
7.8704e-12
4.06503e-08
7.42314e-12
4.06494e-08
6.98796e-12
4.06485e-08
6.56484e-12
4.06477e-08
6.15409e-12
4.0647e-08
5.7565e-12
4.06463e-08
5.37343e-12
4.06456e-08
5.00643e-12
4.0645e-08
4.65541e-12
4.31126e-12
4.09827e-08
1.84516e-09
-4.08955e-08
4.10916e-08
1.9998e-09
4.12151e-08
2.12271e-09
4.13463e-08
2.20833e-09
4.14796e-08
2.25536e-09
4.16106e-08
2.26467e-09
4.17355e-08
2.23791e-09
4.18512e-08
2.17739e-09
4.1955e-08
2.08614e-09
4.20448e-08
1.96779e-09
4.21188e-08
1.82644e-09
4.21757e-08
1.66664e-09
4.22146e-08
1.49345e-09
4.22352e-08
1.31253e-09
4.2238e-08
1.13006e-09
4.22243e-08
9.52483e-10
4.21964e-08
7.86004e-10
4.21575e-08
6.35922e-10
4.21112e-08
5.05938e-10
4.20611e-08
3.97696e-10
4.201e-08
3.10847e-10
4.19604e-08
2.43577e-10
4.19138e-08
1.93247e-10
4.18711e-08
1.56904e-10
4.18326e-08
1.31624e-10
4.17984e-08
1.14738e-10
4.17683e-08
1.03945e-10
4.17418e-08
9.73657e-11
4.17186e-08
9.35281e-11
4.16981e-08
9.13314e-11
4.168e-08
8.99903e-11
4.16638e-08
8.89742e-11
4.16491e-08
8.79491e-11
4.16357e-08
8.6727e-11
4.16234e-08
8.52247e-11
4.16119e-08
8.34304e-11
4.16011e-08
8.13767e-11
4.15909e-08
7.91186e-11
4.15812e-08
7.6718e-11
4.1572e-08
7.42332e-11
4.15632e-08
7.17138e-11
4.15548e-08
6.91987e-11
4.15467e-08
6.67166e-11
4.1539e-08
6.42874e-11
4.15316e-08
6.19241e-11
4.15245e-08
5.96342e-11
4.15177e-08
5.74217e-11
4.15112e-08
5.5288e-11
4.15049e-08
5.32325e-11
4.14989e-08
5.12536e-11
4.14931e-08
4.9349e-11
4.14875e-08
4.7516e-11
4.14822e-08
4.57516e-11
4.1477e-08
4.40529e-11
4.14721e-08
4.24169e-11
4.14673e-08
4.08405e-11
4.14627e-08
3.93212e-11
4.14583e-08
3.7856e-11
4.14541e-08
3.64427e-11
4.145e-08
3.50786e-11
4.14461e-08
3.37617e-11
4.14424e-08
3.24898e-11
4.14387e-08
3.12609e-11
4.14353e-08
3.00731e-11
4.14319e-08
2.89248e-11
4.14287e-08
2.78142e-11
4.14256e-08
2.67398e-11
4.14226e-08
2.57002e-11
4.14198e-08
2.46939e-11
4.1417e-08
2.37198e-11
4.14144e-08
2.27766e-11
4.14119e-08
2.1863e-11
4.14095e-08
2.09781e-11
4.14071e-08
2.01207e-11
4.14049e-08
1.92899e-11
4.14028e-08
1.84847e-11
4.14007e-08
1.7704e-11
4.13988e-08
1.69472e-11
4.13969e-08
1.62132e-11
4.13951e-08
1.55012e-11
4.13934e-08
1.48105e-11
4.13918e-08
1.41402e-11
4.13902e-08
1.34895e-11
4.13887e-08
1.28578e-11
4.13873e-08
1.22442e-11
4.1386e-08
1.1648e-11
4.13847e-08
1.10686e-11
4.13835e-08
1.05053e-11
4.13823e-08
9.95741e-12
4.13812e-08
9.42436e-12
4.13802e-08
8.90562e-12
4.13792e-08
8.40073e-12
4.13783e-08
7.90937e-12
4.13774e-08
7.43142e-12
4.13766e-08
6.96703e-12
4.13758e-08
6.51671e-12
4.13751e-08
6.08136e-12
4.13745e-08
5.66172e-12
4.13739e-08
5.25682e-12
4.859e-12
4.17669e-08
1.76486e-09
-4.16866e-08
4.1866e-08
1.90069e-09
4.19784e-08
2.01025e-09
4.20985e-08
2.08825e-09
4.22213e-08
2.13262e-09
4.23426e-08
2.14337e-09
4.24589e-08
2.1216e-09
4.25672e-08
2.06912e-09
4.26648e-08
1.98847e-09
4.27498e-08
1.88283e-09
4.28203e-08
1.75588e-09
4.28753e-08
1.61173e-09
4.29137e-08
1.45502e-09
4.29354e-08
1.29084e-09
4.29408e-08
1.12468e-09
4.2931e-08
9.62204e-10
4.29082e-08
8.08802e-10
4.28751e-08
6.69092e-10
4.28346e-08
5.46385e-10
4.279e-08
4.42346e-10
4.27438e-08
3.57007e-10
4.26983e-08
2.89129e-10
4.26548e-08
2.36681e-10
4.26145e-08
1.97264e-10
4.25777e-08
1.68416e-10
4.25446e-08
1.47818e-10
4.25151e-08
1.33422e-10
4.2489e-08
1.23505e-10
4.24658e-08
1.16685e-10
4.24453e-08
1.11892e-10
4.24269e-08
1.08339e-10
4.24104e-08
1.05465e-10
4.23955e-08
1.02896e-10
4.23818e-08
1.00399e-10
4.23692e-08
9.7845e-11
4.23574e-08
9.51783e-11
4.23464e-08
9.2393e-11
4.2336e-08
8.95115e-11
4.23262e-08
8.65691e-11
4.23168e-08
8.36041e-11
4.23079e-08
8.06511e-11
4.22993e-08
7.77385e-11
4.22912e-08
7.48879e-11
4.22833e-08
7.21139e-11
4.22758e-08
6.9426e-11
4.22686e-08
6.68294e-11
4.22617e-08
6.43263e-11
4.22551e-08
6.19163e-11
4.22487e-08
5.95979e-11
4.22426e-08
5.73685e-11
4.22367e-08
5.52248e-11
4.22311e-08
5.31633e-11
4.22257e-08
5.11805e-11
4.22204e-08
4.92726e-11
4.22154e-08
4.7436e-11
4.22106e-08
4.56675e-11
4.2206e-08
4.39635e-11
4.22015e-08
4.23211e-11
4.21972e-08
4.07372e-11
4.21931e-08
3.92092e-11
4.21891e-08
3.77344e-11
4.21853e-08
3.63104e-11
4.21816e-08
3.49348e-11
4.21781e-08
3.36056e-11
4.21747e-08
3.23208e-11
4.21714e-08
3.10785e-11
4.21683e-08
2.98769e-11
4.21653e-08
2.87144e-11
4.21624e-08
2.75894e-11
4.21596e-08
2.65005e-11
4.21569e-08
2.54462e-11
4.21543e-08
2.44252e-11
4.21519e-08
2.34364e-11
4.21495e-08
2.24784e-11
4.21473e-08
2.15502e-11
4.21451e-08
2.06507e-11
4.2143e-08
1.97787e-11
4.2141e-08
1.89334e-11
4.21391e-08
1.81137e-11
4.21373e-08
1.73187e-11
4.21356e-08
1.65474e-11
4.21339e-08
1.5799e-11
4.21323e-08
1.50727e-11
4.21308e-08
1.43674e-11
4.21294e-08
1.36825e-11
4.2128e-08
1.30172e-11
4.21267e-08
1.23705e-11
4.21255e-08
1.17419e-11
4.21243e-08
1.11305e-11
4.21232e-08
1.05357e-11
4.21222e-08
9.95679e-12
4.21212e-08
9.39333e-12
4.21202e-08
8.84487e-12
4.21194e-08
8.31116e-12
4.21185e-08
7.79217e-12
4.21178e-08
7.28817e-12
4.2117e-08
6.7996e-12
4.21164e-08
6.32661e-12
4.21158e-08
5.86767e-12
5.41671e-12
4.25605e-08
1.69049e-09
-4.24861e-08
4.26511e-08
1.81007e-09
4.27538e-08
1.90757e-09
4.28638e-08
1.97822e-09
4.29769e-08
2.01959e-09
4.30891e-08
2.03113e-09
4.31972e-08
2.01345e-09
4.32984e-08
1.96794e-09
4.33902e-08
1.89673e-09
4.34704e-08
1.80255e-09
4.35376e-08
1.68868e-09
4.35906e-08
1.55882e-09
4.36284e-08
1.41716e-09
4.3651e-08
1.26827e-09
4.36586e-08
1.11702e-09
4.36525e-08
9.68388e-10
4.36342e-08
8.27074e-10
4.36061e-08
6.97128e-10
4.3571e-08
5.81527e-10
4.35314e-08
4.81918e-10
4.34898e-08
3.98605e-10