/*--------------------------------*- C++ -*----------------------------------*\
| =========                 |                                                 |
| \\      /  F ield         | OpenFOAM: The Open Source CFD Toolbox           |
|  \\    /   O peration     | Version:  2.3.0                                 |
|   \\  /    A nd           | Web:      www.OpenFOAM.org                      |
|    \\/     M anipulation  |                                                 |
\*---------------------------------------------------------------------------*/
FoamFile
{
    version     2.0;
    format      ascii;
    class       volVectorField;
    location    "0.05";
    object      U;
}
// * * * * * * * * * * * * * * * * * * * * * * * * * * * * * * * * * * * * * //

dimensions      [0 1 -1 0 0 0 0];

internalField   nonuniform List<vector> 
6875
(
(0.171762 0.00584768 0)
(0.155477 0.00595 0)
(0.139836 0.00554384 0)
(0.125017 0.00495092 0)
(0.111449 0.00429244 0)
(0.0993107 0.00362248 0)
(0.0886165 0.00297836 0)
(0.079334 0.00238612 0)
(0.0714097 0.00186161 0)
(0.0647623 0.00141268 0)
(0.0592834 0.00104051 0)
(0.0548495 0.000740631 0)
(0.0513359 0.000504702 0)
(0.0486268 0.000322884 0)
(0.0466196 0.000185519 0)
(0.0452226 8.15808e-05 0)
(0.044361 -4.45524e-06 0)
(0.044004 -7.35417e-05 0)
(0.0440751 -0.00010652 0)
(0.0443087 -9.25305e-05 0)
(0.0446042 -6.59569e-05 0)
(0.0448945 -4.3154e-05 0)
(0.0451449 -2.72537e-05 0)
(0.0453461 -1.72648e-05 0)
(0.0455012 -1.12802e-05 0)
(0.045617 -7.72917e-06 0)
(0.0457015 -5.61813e-06 0)
(0.0457617 -4.29449e-06 0)
(0.0458039 -3.37965e-06 0)
(0.0458329 -2.68933e-06 0)
(0.0458526 -2.14233e-06 0)
(0.0458656 -1.70512e-06 0)
(0.045874 -1.36522e-06 0)
(0.0458792 -1.12058e-06 0)
(0.0458821 -9.56795e-07 0)
(0.0458834 -8.11833e-07 0)
(0.0458835 -6.07725e-07 0)
(0.0458824 -4.40632e-07 0)
(0.0458805 -3.1495e-07 0)
(0.045878 -2.17911e-07 0)
(0.045875 -1.39917e-07 0)
(0.0458717 -7.52248e-08 0)
(0.0458682 -2.07219e-08 0)
(0.0458645 2.53818e-08 0)
(0.0458606 6.42744e-08 0)
(0.0458567 9.68682e-08 0)
(0.0458527 1.23954e-07 0)
(0.0458486 1.46211e-07 0)
(0.0458445 1.64244e-07 0)
(0.0458405 1.78619e-07 0)
(0.0458364 1.89826e-07 0)
(0.0458324 1.9829e-07 0)
(0.0458284 2.04408e-07 0)
(0.0458245 2.08513e-07 0)
(0.0458206 2.1088e-07 0)
(0.0458168 2.11769e-07 0)
(0.0458131 2.11415e-07 0)
(0.0458095 2.09994e-07 0)
(0.045806 2.07669e-07 0)
(0.0458025 2.04594e-07 0)
(0.0457992 2.00899e-07 0)
(0.0457959 1.9668e-07 0)
(0.0457927 1.92043e-07 0)
(0.0457897 1.87056e-07 0)
(0.0457867 1.81809e-07 0)
(0.0457838 1.76344e-07 0)
(0.045781 1.70737e-07 0)
(0.0457783 1.65017e-07 0)
(0.0457757 1.59231e-07 0)
(0.0457732 1.53415e-07 0)
(0.0457708 1.47593e-07 0)
(0.0457684 1.418e-07 0)
(0.0457662 1.36041e-07 0)
(0.045764 1.30346e-07 0)
(0.045762 1.24724e-07 0)
(0.04576 1.19193e-07 0)
(0.0457581 1.13764e-07 0)
(0.0457562 1.08442e-07 0)
(0.0457545 1.03235e-07 0)
(0.0457528 9.81422e-08 0)
(0.0457512 9.31701e-08 0)
(0.0457497 8.83179e-08 0)
(0.0457482 8.35936e-08 0)
(0.0457468 7.89953e-08 0)
(0.0457455 7.4535e-08 0)
(0.0457443 7.02015e-08 0)
(0.0457431 6.60071e-08 0)
(0.045742 6.19442e-08 0)
(0.0457409 5.80243e-08 0)
(0.0457399 5.42595e-08 0)
(0.045739 5.06539e-08 0)
(0.0457381 4.72476e-08 0)
(0.0457373 4.40679e-08 0)
(0.0457365 4.12098e-08 0)
(0.0457358 3.88174e-08 0)
(0.0457351 3.71813e-08 0)
(0.0457344 3.69631e-08 0)
(0.0457338 3.97201e-08 0)
(0.0457332 4.52665e-08 0)
(0.045732 1.82954e-07 0)
(0.190663 0.00928239 0)
(0.188501 0.00980345 0)
(0.184762 0.00956535 0)
(0.179804 0.0090463 0)
(0.174142 0.00838966 0)
(0.168141 0.00764158 0)
(0.162037 0.00683963 0)
(0.156009 0.00601834 0)
(0.150209 0.00520617 0)
(0.144756 0.00442568 0)
(0.139745 0.00369316 0)
(0.135248 0.00301784 0)
(0.131325 0.00240235 0)
(0.128021 0.00184563 0)
(0.125364 0.00134649 0)
(0.123356 0.000904547 0)
(0.121981 0.000518443 0)
(0.121136 0.000192964 0)
(0.120689 -4.76965e-05 0)
(0.120649 -0.000178833 0)
(0.120859 -0.000220615 0)
(0.121197 -0.000211559 0)
(0.121572 -0.000179771 0)
(0.121928 -0.000141871 0)
(0.122237 -0.000106312 0)
(0.122489 -7.6556e-05 0)
(0.122685 -5.33892e-05 0)
(0.12283 -3.62405e-05 0)
(0.122933 -2.40113e-05 0)
(0.123003 -1.55402e-05 0)
(0.123048 -9.80493e-06 0)
(0.123074 -5.98718e-06 0)
(0.123088 -3.4712e-06 0)
(0.123093 -1.80251e-06 0)
(0.123092 -5.94993e-07 0)
(0.123086 4.01588e-07 0)
(0.123075 1.25984e-06 0)
(0.123063 1.89614e-06 0)
(0.123049 2.32905e-06 0)
(0.123034 2.61684e-06 0)
(0.123019 2.80899e-06 0)
(0.123003 2.93801e-06 0)
(0.122988 3.02314e-06 0)
(0.122973 3.07558e-06 0)
(0.122958 3.1022e-06 0)
(0.122943 3.10769e-06 0)
(0.122928 3.09562e-06 0)
(0.122914 3.06894e-06 0)
(0.1229 3.03012e-06 0)
(0.122886 2.98131e-06 0)
(0.122873 2.92437e-06 0)
(0.12286 2.8609e-06 0)
(0.122847 2.79229e-06 0)
(0.122835 2.7197e-06 0)
(0.122823 2.6441e-06 0)
(0.122812 2.56634e-06 0)
(0.1228 2.48715e-06 0)
(0.12279 2.40712e-06 0)
(0.122779 2.32672e-06 0)
(0.122769 2.2464e-06 0)
(0.122759 2.16653e-06 0)
(0.122749 2.08738e-06 0)
(0.12274 2.0092e-06 0)
(0.122731 1.93217e-06 0)
(0.122723 1.8565e-06 0)
(0.122714 1.78228e-06 0)
(0.122706 1.70964e-06 0)
(0.122699 1.63865e-06 0)
(0.122691 1.56938e-06 0)
(0.122684 1.50188e-06 0)
(0.122677 1.43616e-06 0)
(0.122671 1.37227e-06 0)
(0.122664 1.31018e-06 0)
(0.122658 1.24991e-06 0)
(0.122653 1.19144e-06 0)
(0.122647 1.13475e-06 0)
(0.122642 1.07983e-06 0)
(0.122637 1.02664e-06 0)
(0.122632 9.75154e-07 0)
(0.122627 9.2532e-07 0)
(0.122622 8.77103e-07 0)
(0.122618 8.30458e-07 0)
(0.122614 7.85353e-07 0)
(0.12261 7.41737e-07 0)
(0.122607 6.99582e-07 0)
(0.122603 6.58829e-07 0)
(0.1226 6.1945e-07 0)
(0.122597 5.81404e-07 0)
(0.122594 5.44664e-07 0)
(0.122591 5.09228e-07 0)
(0.122588 4.75084e-07 0)
(0.122586 4.42298e-07 0)
(0.122583 4.10957e-07 0)
(0.122581 3.81298e-07 0)
(0.122579 3.53776e-07 0)
(0.122577 3.29321e-07 0)
(0.122575 3.10065e-07 0)
(0.122574 3.01236e-07 0)
(0.122572 3.21557e-07 0)
(0.12257 5.42605e-07 0)
(0.193645 0.00883388 0)
(0.194563 0.0097803 0)
(0.194849 0.0100795 0)
(0.194356 0.0100393 0)
(0.193214 0.00976372 0)
(0.191559 0.00929023 0)
(0.189498 0.00866204 0)
(0.187137 0.00792703 0)
(0.18459 0.00712787 0)
(0.181971 0.00629907 0)
(0.179385 0.00546607 0)
(0.176932 0.00464524 0)
(0.1747 0.00384581 0)
(0.17276 0.00307421 0)
(0.171164 0.00233882 0)
(0.169935 0.00165253 0)
(0.169065 0.0010355 0)
(0.168511 0.000515045 0)
(0.168183 0.000115465 0)
(0.168036 -0.00014735 0)
(0.168058 -0.000287769 0)
(0.168204 -0.000339321 0)
(0.168426 -0.000334875 0)
(0.168682 -0.00029964 0)
(0.168939 -0.000250958 0)
(0.169175 -0.000199754 0)
(0.169378 -0.000152251 0)
(0.169542 -0.000111467 0)
(0.169668 -7.83564e-05 0)
(0.169759 -5.26417e-05 0)
(0.16982 -3.34075e-05 0)
(0.169856 -1.9489e-05 0)
(0.169873 -9.6938e-06 0)
(0.169875 -2.84741e-06 0)
(0.169866 2.08244e-06 0)
(0.16985 5.67369e-06 0)
(0.169829 8.13454e-06 0)
(0.169805 9.69294e-06 0)
(0.169779 1.05999e-05 0)
(0.169753 1.10746e-05 0)
(0.169727 1.1276e-05 0)
(0.169701 1.13076e-05 0)
(0.169675 1.12324e-05 0)
(0.16965 1.10881e-05 0)
(0.169626 1.08968e-05 0)
(0.169602 1.06725e-05 0)
(0.169579 1.04242e-05 0)
(0.169557 1.01584e-05 0)
(0.169535 9.88008e-06 0)
(0.169514 9.59304e-06 0)
(0.169494 9.30042e-06 0)
(0.169474 9.00473e-06 0)
(0.169455 8.70809e-06 0)
(0.169437 8.41219e-06 0)
(0.169419 8.11842e-06 0)
(0.169402 7.82789e-06 0)
(0.169385 7.54153e-06 0)
(0.169369 7.26005e-06 0)
(0.169354 6.98401e-06 0)
(0.169339 6.71385e-06 0)
(0.169325 6.44994e-06 0)
(0.169311 6.1925e-06 0)
(0.169297 5.9417e-06 0)
(0.169285 5.69767e-06 0)
(0.169272 5.46048e-06 0)
(0.16926 5.23014e-06 0)
(0.169249 5.00663e-06 0)
(0.169238 4.78993e-06 0)
(0.169227 4.57994e-06 0)
(0.169217 4.3766e-06 0)
(0.169207 4.17979e-06 0)
(0.169198 3.98941e-06 0)
(0.169188 3.8053e-06 0)
(0.16918 3.62734e-06 0)
(0.169171 3.45537e-06 0)
(0.169163 3.28924e-06 0)
(0.169156 3.1288e-06 0)
(0.169148 2.97388e-06 0)
(0.169141 2.8243e-06 0)
(0.169135 2.6799e-06 0)
(0.169128 2.54051e-06 0)
(0.169122 2.40597e-06 0)
(0.169116 2.2761e-06 0)
(0.169111 2.15075e-06 0)
(0.169106 2.02976e-06 0)
(0.169101 1.91296e-06 0)
(0.169096 1.80021e-06 0)
(0.169091 1.69137e-06 0)
(0.169087 1.58631e-06 0)
(0.169083 1.48496e-06 0)
(0.169079 1.38723e-06 0)
(0.169075 1.29316e-06 0)
(0.169072 1.20287e-06 0)
(0.169069 1.11671e-06 0)
(0.169066 1.03544e-06 0)
(0.169063 9.60735e-07 0)
(0.169061 8.964e-07 0)
(0.169058 8.52253e-07 0)
(0.169056 8.66371e-07 0)
(0.169053 1.05674e-06 0)
(0.194664 0.00813995 0)
(0.195943 0.00917143 0)
(0.197129 0.00968255 0)
(0.198005 0.0098628 0)
(0.198556 0.00979788 0)
(0.198802 0.00951892 0)
(0.198751 0.00905932 0)
(0.198425 0.00845915 0)
(0.197865 0.00775628 0)
(0.197128 0.00698259 0)
(0.196277 0.00616298 0)
(0.195378 0.00531587 0)
(0.194491 0.00445554 0)
(0.193666 0.00359654 0)
(0.19294 0.00275788 0)
(0.19233 0.00196521 0)
(0.191838 0.00125151 0)
(0.191451 0.0006541 0)
(0.191152 0.000198463 0)
(0.190912 -0.00010858 0)
(0.190753 -0.000289432 0)
(0.190675 -0.000373877 0)
(0.190663 -0.000392163 0)
(0.190698 -0.000369283 0)
(0.190762 -0.000323913 0)
(0.190839 -0.000269097 0)
(0.190916 -0.000213355 0)
(0.190984 -0.000161796 0)
(0.191038 -0.000117058 0)
(0.191076 -8.00851e-05 0)
(0.191099 -5.07417e-05 0)
(0.191106 -2.82594e-05 0)
(0.1911 -1.15241e-05 0)
(0.191084 7.31961e-07 0)
(0.191059 9.56301e-06 0)
(0.19103 1.56437e-05 0)
(0.190997 1.95361e-05 0)
(0.190963 2.18151e-05 0)
(0.190928 2.29821e-05 0)
(0.190893 2.34257e-05 0)
(0.190859 2.34187e-05 0)
(0.190825 2.31383e-05 0)
(0.190793 2.26947e-05 0)
(0.190761 2.21541e-05 0)
(0.19073 2.15564e-05 0)
(0.190701 2.09254e-05 0)
(0.190672 2.02763e-05 0)
(0.190644 1.96188e-05 0)
(0.190618 1.89597e-05 0)
(0.190592 1.83037e-05 0)
(0.190567 1.76544e-05 0)
(0.190543 1.70144e-05 0)
(0.19052 1.63858e-05 0)
(0.190498 1.577e-05 0)
(0.190476 1.51681e-05 0)
(0.190456 1.4581e-05 0)
(0.190436 1.40091e-05 0)
(0.190416 1.34529e-05 0)
(0.190398 1.29125e-05 0)
(0.19038 1.23879e-05 0)
(0.190363 1.18793e-05 0)
(0.190347 1.13865e-05 0)
(0.190331 1.09092e-05 0)
(0.190315 1.04472e-05 0)
(0.190301 1.00004e-05 0)
(0.190286 9.56842e-06 0)
(0.190273 9.15088e-06 0)
(0.19026 8.74752e-06 0)
(0.190247 8.35794e-06 0)
(0.190235 7.98182e-06 0)
(0.190223 7.61878e-06 0)
(0.190212 7.26845e-06 0)
(0.190201 6.93046e-06 0)
(0.190191 6.60443e-06 0)
(0.190181 6.29e-06 0)
(0.190172 5.98679e-06 0)
(0.190163 5.69443e-06 0)
(0.190154 5.41256e-06 0)
(0.190146 5.14081e-06 0)
(0.190138 4.87882e-06 0)
(0.19013 4.62624e-06 0)
(0.190123 4.38273e-06 0)
(0.190116 4.14795e-06 0)
(0.19011 3.92158e-06 0)
(0.190103 3.70328e-06 0)
(0.190097 3.49275e-06 0)
(0.190092 3.28968e-06 0)
(0.190086 3.0938e-06 0)
(0.190081 2.90485e-06 0)
(0.190076 2.72263e-06 0)
(0.190072 2.54696e-06 0)
(0.190068 2.37781e-06 0)
(0.190063 2.21528e-06 0)
(0.19006 2.05976e-06 0)
(0.190056 1.91225e-06 0)
(0.190053 1.77491e-06 0)
(0.19005 1.65275e-06 0)
(0.190047 1.55847e-06 0)
(0.190044 1.53054e-06 0)
(0.190041 1.63603e-06 0)
(0.195365 0.0075887 0)
(0.196507 0.00855187 0)
(0.19773 0.00909564 0)
(0.19886 0.00934059 0)
(0.199856 0.0093614 0)
(0.200708 0.00918649 0)
(0.201397 0.00883922 0)
(0.201908 0.00834841 0)
(0.20224 0.00774319 0)
(0.20241 0.0070493 0)
(0.202441 0.00628837 0)
(0.202361 0.0054786 0)
(0.202196 0.00463694 0)
(0.201971 0.00378259 0)
(0.2017 0.00294007 0)
(0.201394 0.00214023 0)
(0.201061 0.00141903 0)
(0.20071 0.000813255 0)
(0.20036 0.000348619 0)
(0.200021 2.11426e-05 0)
(0.199718 -0.000186247 0)
(0.199467 -0.00029886 0)
(0.199268 -0.000342661 0)
(0.199118 -0.00034025 0)
(0.199007 -0.000309561 0)
(0.198926 -0.000263985 0)
(0.198867 -0.000212961 0)
(0.198821 -0.000162716 0)
(0.198783 -0.00011699 0)
(0.198749 -7.76766e-05 0)
(0.198714 -4.53801e-05 0)
(0.198678 -1.98367e-05 0)
(0.19864 -2.66218e-07 0)
(0.1986 1.42581e-05 0)
(0.198558 2.4555e-05 0)
(0.198516 3.13958e-05 0)
(0.198473 3.5574e-05 0)
(0.198431 3.78238e-05 0)
(0.19839 3.87503e-05 0)
(0.198349 3.88126e-05 0)
(0.19831 3.83345e-05 0)
(0.198271 3.75307e-05 0)
(0.198234 3.65378e-05 0)
(0.198199 3.54407e-05 0)
(0.198164 3.42909e-05 0)
(0.198131 3.31199e-05 0)
(0.198099 3.1947e-05 0)
(0.198068 3.07844e-05 0)
(0.198039 2.96398e-05 0)
(0.19801 2.85182e-05 0)
(0.197983 2.74229e-05 0)
(0.197956 2.63559e-05 0)
(0.197931 2.53186e-05 0)
(0.197907 2.43118e-05 0)
(0.197883 2.33357e-05 0)
(0.19786 2.23904e-05 0)
(0.197839 2.14757e-05 0)
(0.197818 2.05912e-05 0)
(0.197798 1.97363e-05 0)
(0.197778 1.89105e-05 0)
(0.197759 1.81131e-05 0)
(0.197741 1.73434e-05 0)
(0.197724 1.66007e-05 0)
(0.197707 1.58842e-05 0)
(0.197691 1.51932e-05 0)
(0.197676 1.45269e-05 0)
(0.197661 1.38845e-05 0)
(0.197647 1.32652e-05 0)
(0.197633 1.26684e-05 0)
(0.19762 1.20933e-05 0)
(0.197608 1.15391e-05 0)
(0.197596 1.10053e-05 0)
(0.197584 1.0491e-05 0)
(0.197573 9.99556e-06 0)
(0.197562 9.51841e-06 0)
(0.197552 9.05883e-06 0)
(0.197542 8.61621e-06 0)
(0.197533 8.18992e-06 0)
(0.197524 7.77936e-06 0)
(0.197515 7.38393e-06 0)
(0.197507 7.00307e-06 0)
(0.197499 6.6362e-06 0)
(0.197491 6.2828e-06 0)
(0.197484 5.94232e-06 0)
(0.197477 5.61425e-06 0)
(0.197471 5.29809e-06 0)
(0.197465 4.99336e-06 0)
(0.197459 4.69963e-06 0)
(0.197453 4.41646e-06 0)
(0.197448 4.14352e-06 0)
(0.197443 3.8805e-06 0)
(0.197438 3.62725e-06 0)
(0.197434 3.38379e-06 0)
(0.19743 3.15051e-06 0)
(0.197426 2.92847e-06 0)
(0.197422 2.72004e-06 0)
(0.197419 2.53061e-06 0)
(0.197415 2.37283e-06 0)
(0.197413 2.2768e-06 0)
(0.197409 2.27289e-06 0)
(0.195952 0.00711127 0)
(0.196918 0.00796925 0)
(0.19801 0.0084968 0)
(0.199095 0.00876221 0)
(0.200127 0.00882338 0)
(0.201088 0.00870615 0)
(0.201959 0.00842891 0)
(0.202716 0.00801386 0)
(0.203348 0.0074845 0)
(0.203851 0.0068625 0)
(0.204228 0.00616701 0)
(0.204484 0.0054155 0)
(0.204625 0.00462566 0)
(0.204656 0.00381806 0)
(0.204583 0.00301821 0)
(0.204409 0.00225676 0)
(0.204147 0.00156745 0)
(0.203814 0.000982461 0)
(0.203439 0.000523665 0)
(0.203056 0.00019041 0)
(0.202687 -3.19408e-05 0)
(0.202353 -0.000164814 0)
(0.202061 -0.000230333 0)
(0.201814 -0.000248417 0)
(0.201609 -0.000235585 0)
(0.201439 -0.000204688 0)
(0.201301 -0.000165167 0)
(0.201186 -0.000123558 0)
(0.20109 -8.40553e-05 0)
(0.201008 -4.90513e-05 0)
(0.200936 -1.96105e-05 0)
(0.200872 4.09992e-06 0)
(0.200812 2.24405e-05 0)
(0.200756 3.59801e-05 0)
(0.200703 4.53879e-05 0)
(0.200653 5.14366e-05 0)
(0.200604 5.48981e-05 0)
(0.200558 5.64672e-05 0)
(0.200513 5.67214e-05 0)
(0.200469 5.61067e-05 0)
(0.200427 5.49452e-05 0)
(0.200386 5.34569e-05 0)
(0.200347 5.17862e-05 0)
(0.200309 5.00245e-05 0)
(0.200273 4.82292e-05 0)
(0.200238 4.64354e-05 0)
(0.200205 4.46643e-05 0)
(0.200172 4.29291e-05 0)
(0.200142 4.12374e-05 0)
(0.200112 3.95937e-05 0)
(0.200083 3.80005e-05 0)
(0.200056 3.64589e-05 0)
(0.200029 3.49689e-05 0)
(0.200004 3.35303e-05 0)
(0.199979 3.21423e-05 0)
(0.199956 3.08038e-05 0)
(0.199933 2.95136e-05 0)
(0.199911 2.82703e-05 0)
(0.19989 2.70726e-05 0)
(0.19987 2.59189e-05 0)
(0.199851 2.48078e-05 0)
(0.199832 2.37379e-05 0)
(0.199814 2.27078e-05 0)
(0.199797 2.1716e-05 0)
(0.19978 2.07612e-05 0)
(0.199764 1.98421e-05 0)
(0.199749 1.89574e-05 0)
(0.199734 1.81058e-05 0)
(0.19972 1.72861e-05 0)
(0.199707 1.64971e-05 0)
(0.199694 1.57378e-05 0)
(0.199681 1.50071e-05 0)
(0.199669 1.43038e-05 0)
(0.199657 1.36269e-05 0)
(0.199646 1.29756e-05 0)
(0.199636 1.23487e-05 0)
(0.199626 1.17454e-05 0)
(0.199616 1.11648e-05 0)
(0.199607 1.0606e-05 0)
(0.199598 1.00681e-05 0)
(0.199589 9.55041e-06 0)
(0.199581 9.05202e-06 0)
(0.199573 8.57218e-06 0)
(0.199566 8.11016e-06 0)
(0.199559 7.66522e-06 0)
(0.199552 7.23666e-06 0)
(0.199546 6.82382e-06 0)
(0.19954 6.42606e-06 0)
(0.199534 6.0428e-06 0)
(0.199528 5.67351e-06 0)
(0.199523 5.31776e-06 0)
(0.199518 4.97524e-06 0)
(0.199514 4.64588e-06 0)
(0.199509 4.32997e-06 0)
(0.199505 4.02853e-06 0)
(0.199501 3.74388e-06 0)
(0.199498 3.48113e-06 0)
(0.199494 3.25116e-06 0)
(0.199491 3.07458e-06 0)
(0.199488 2.95781e-06 0)
(0.196459 0.0066986 0)
(0.197281 0.00745278 0)
(0.198233 0.00794864 0)
(0.199214 0.00821712 0)
(0.200177 0.00829857 0)
(0.201101 0.00821575 0)
(0.201964 0.00798482 0)
(0.202748 0.00762424 0)
(0.203436 0.00715404 0)
(0.20402 0.00659333 0)
(0.204493 0.00595965 0)
(0.204853 0.00526976 0)
(0.205096 0.0045412 0)
(0.20522 0.00379423 0)
(0.205224 0.00305318 0)
(0.205113 0.00234617 0)
(0.204896 0.00170296 0)
(0.204595 0.00115074 0)
(0.204239 0.000707669 0)
(0.203861 0.000375726 0)
(0.203487 0.000143704 0)
(0.203138 -5.86078e-06 0)
(0.202822 -9.12827e-05 0)
(0.202546 -0.000129729 0)
(0.202308 -0.000136001 0)
(0.202106 -0.000121996 0)
(0.201937 -9.67544e-05 0)
(0.201794 -6.67856e-05 0)
(0.201674 -3.64837e-05 0)
(0.201572 -8.56993e-06 0)
(0.201483 1.5504e-05 0)
(0.201405 3.51719e-05 0)
(0.201336 5.04219e-05 0)
(0.201273 6.15697e-05 0)
(0.201215 6.91333e-05 0)
(0.20116 7.37373e-05 0)
(0.201109 7.60223e-05 0)
(0.20106 7.65844e-05 0)
(0.201013 7.59334e-05 0)
(0.200968 7.44735e-05 0)
(0.200924 7.25045e-05 0)
(0.200883 7.02372e-05 0)
(0.200843 6.78134e-05 0)
(0.200804 6.53255e-05 0)
(0.200767 6.28321e-05 0)
(0.200732 6.03693e-05 0)
(0.200698 5.79591e-05 0)
(0.200665 5.56143e-05 0)
(0.200633 5.3342e-05 0)
(0.200603 5.11456e-05 0)
(0.200574 4.90263e-05 0)
(0.200546 4.6984e-05 0)
(0.200519 4.50175e-05 0)
(0.200494 4.31249e-05 0)
(0.200469 4.13044e-05 0)
(0.200445 3.95535e-05 0)
(0.200422 3.787e-05 0)
(0.2004 3.62512e-05 0)
(0.200379 3.4695e-05 0)
(0.200358 3.31987e-05 0)
(0.200339 3.17602e-05 0)
(0.20032 3.03772e-05 0)
(0.200302 2.90474e-05 0)
(0.200284 2.77688e-05 0)
(0.200267 2.65394e-05 0)
(0.200251 2.53573e-05 0)
(0.200236 2.42204e-05 0)
(0.200221 2.31272e-05 0)
(0.200206 2.20759e-05 0)
(0.200193 2.10649e-05 0)
(0.200179 2.00925e-05 0)
(0.200167 1.91573e-05 0)
(0.200155 1.82579e-05 0)
(0.200143 1.73928e-05 0)
(0.200132 1.65608e-05 0)
(0.200121 1.57604e-05 0)
(0.200111 1.49906e-05 0)
(0.200101 1.42501e-05 0)
(0.200092 1.35376e-05 0)
(0.200083 1.28522e-05 0)
(0.200074 1.21928e-05 0)
(0.200066 1.15582e-05 0)
(0.200058 1.09475e-05 0)
(0.20005 1.03597e-05 0)
(0.200043 9.7938e-06 0)
(0.200036 9.24899e-06 0)
(0.20003 8.72433e-06 0)
(0.200024 8.21903e-06 0)
(0.200018 7.73229e-06 0)
(0.200012 7.26342e-06 0)
(0.200007 6.81183e-06 0)
(0.200002 6.37705e-06 0)
(0.199998 5.95889e-06 0)
(0.199993 5.5575e-06 0)
(0.199989 5.17376e-06 0)
(0.199985 4.8098e-06 0)
(0.199981 4.47008e-06 0)
(0.199978 4.16318e-06 0)
(0.199975 3.90189e-06 0)
(0.199971 3.67858e-06 0)
(0.1969 0.00633899 0)
(0.19761 0.00699798 0)
(0.19844 0.00745404 0)
(0.199316 0.00771515 0)
(0.200192 0.0078068 0)
(0.201044 0.00774771 0)
(0.201852 0.00755215 0)
(0.202597 0.00723576 0)
(0.203263 0.00681582 0)
(0.20384 0.00630945 0)
(0.204319 0.00573297 0)
(0.204694 0.00510246 0)
(0.204959 0.00443492 0)
(0.205111 0.00374965 0)
(0.205147 0.00306904 0)
(0.20507 0.0024181 0)
(0.204892 0.00182253 0)
(0.204631 0.00130519 0)
(0.204313 0.00088136 0)
(0.203967 0.0005542 0)
(0.203618 0.000316106 0)
(0.203285 0.000153614 0)
(0.202979 5.14464e-05 0)
(0.202706 -5.12109e-06 0)
(0.202466 -2.91216e-05 0)
(0.20226 -3.13871e-05 0)
(0.202084 -2.0419e-05 0)
(0.201934 -2.54415e-06 0)
(0.201806 1.77913e-05 0)
(0.201697 3.76805e-05 0)
(0.201602 5.53976e-05 0)
(0.20152 7.00754e-05 0)
(0.201446 8.14335e-05 0)
(0.20138 8.95643e-05 0)
(0.201319 9.47869e-05 0)
(0.201263 9.75497e-05 0)
(0.20121 9.83503e-05 0)
(0.201159 9.76728e-05 0)
(0.201112 9.59443e-05 0)
(0.201066 9.35131e-05 0)
(0.201022 9.06446e-05 0)
(0.20098 8.75303e-05 0)
(0.20094 8.43022e-05 0)
(0.200901 8.10481e-05 0)
(0.200864 7.78242e-05 0)
(0.200828 7.46656e-05 0)
(0.200794 7.15931e-05 0)
(0.200761 6.86182e-05 0)
(0.20073 6.57469e-05 0)
(0.200699 6.29811e-05 0)
(0.20067 6.03205e-05 0)
(0.200642 5.77634e-05 0)
(0.200615 5.5307e-05 0)
(0.200589 5.29483e-05 0)
(0.200565 5.06838e-05 0)
(0.200541 4.85098e-05 0)
(0.200518 4.64227e-05 0)
(0.200495 4.4419e-05 0)
(0.200474 4.24952e-05 0)
(0.200454 4.0648e-05 0)
(0.200434 3.8874e-05 0)
(0.200415 3.71701e-05 0)
(0.200397 3.55335e-05 0)
(0.200379 3.39613e-05 0)
(0.200363 3.24507e-05 0)
(0.200346 3.09992e-05 0)
(0.200331 2.96044e-05 0)
(0.200316 2.82639e-05 0)
(0.200302 2.69756e-05 0)
(0.200288 2.57372e-05 0)
(0.200275 2.45469e-05 0)
(0.200262 2.34026e-05 0)
(0.20025 2.23025e-05 0)
(0.200238 2.12449e-05 0)
(0.200227 2.0228e-05 0)
(0.200216 1.92503e-05 0)
(0.200206 1.83101e-05 0)
(0.200196 1.7406e-05 0)
(0.200186 1.65366e-05 0)
(0.200177 1.57003e-05 0)
(0.200169 1.48959e-05 0)
(0.200161 1.41221e-05 0)
(0.200153 1.33776e-05 0)
(0.200145 1.26612e-05 0)
(0.200138 1.19718e-05 0)
(0.200131 1.13081e-05 0)
(0.200125 1.06692e-05 0)
(0.200119 1.0054e-05 0)
(0.200113 9.46146e-06 0)
(0.200107 8.89083e-06 0)
(0.200102 8.34128e-06 0)
(0.200097 7.8122e-06 0)
(0.200092 7.30322e-06 0)
(0.200088 6.81436e-06 0)
(0.200084 6.3463e-06 0)
(0.20008 5.90084e-06 0)
(0.200076 5.48166e-06 0)
(0.200073 5.09507e-06 0)
(0.200069 4.74803e-06 0)
(0.200066 4.42628e-06 0)
(0.197286 0.00601985 0)
(0.197906 0.00659387 0)
(0.198634 0.00700703 0)
(0.199414 0.0072547 0)
(0.200206 0.00735089 0)
(0.200985 0.00730976 0)
(0.201728 0.00714342 0)
(0.20242 0.00686508 0)
(0.203044 0.00648963 0)
(0.203589 0.00603245 0)
(0.204047 0.00550873 0)
(0.20441 0.00493375 0)
(0.204673 0.00432378 0)
(0.204831 0.00369689 0)
(0.204882 0.0030734 0)
(0.204831 0.00247538 0)
(0.204686 0.00192495 0)
(0.204464 0.00144146 0)
(0.204188 0.00103795 0)
(0.203881 0.000718237 0)
(0.203567 0.00047741 0)
(0.203261 0.000305196 0)
(0.202976 0.000189209 0)
(0.202718 0.000116976 0)
(0.202488 7.70894e-05 0)
(0.202287 5.98059e-05 0)
(0.202114 5.72691e-05 0)
(0.201964 6.34555e-05 0)
(0.201836 7.39762e-05 0)
(0.201725 8.58134e-05 0)
(0.201628 9.70403e-05 0)
(0.201543 0.000106556 0)
(0.201468 0.000113844 0)
(0.2014 0.000118778 0)
(0.201338 0.000121485 0)
(0.20128 0.000122248 0)
(0.201227 0.000121428 0)
(0.201176 0.000119396 0)
(0.201127 0.000116497 0)
(0.201081 0.000113022 0)
(0.201038 0.000109198 0)
(0.200995 0.000105194 0)
(0.200955 0.000101128 0)
(0.200916 9.70807e-05 0)
(0.200879 9.31047e-05 0)
(0.200844 8.9232e-05 0)
(0.200809 8.54812e-05 0)
(0.200776 8.18624e-05 0)
(0.200745 7.83794e-05 0)
(0.200715 7.50326e-05 0)
(0.200685 7.182e-05 0)
(0.200657 6.87382e-05 0)
(0.200631 6.57828e-05 0)
(0.200605 6.29491e-05 0)
(0.20058 6.02323e-05 0)
(0.200556 5.76274e-05 0)
(0.200533 5.51295e-05 0)
(0.200511 5.27339e-05 0)
(0.20049 5.04359e-05 0)
(0.200469 4.82312e-05 0)
(0.200449 4.61157e-05 0)
(0.200431 4.40853e-05 0)
(0.200412 4.21362e-05 0)
(0.200395 4.0265e-05 0)
(0.200378 3.84682e-05 0)
(0.200362 3.67426e-05 0)
(0.200346 3.50852e-05 0)
(0.200331 3.3493e-05 0)
(0.200317 3.19634e-05 0)
(0.200303 3.04937e-05 0)
(0.20029 2.90814e-05 0)
(0.200277 2.77243e-05 0)
(0.200265 2.642e-05 0)
(0.200254 2.51664e-05 0)
(0.200242 2.39614e-05 0)
(0.200232 2.28031e-05 0)
(0.200221 2.16896e-05 0)
(0.200212 2.0619e-05 0)
(0.200202 1.95896e-05 0)
(0.200193 1.85998e-05 0)
(0.200184 1.76479e-05 0)
(0.200176 1.67324e-05 0)
(0.200168 1.58517e-05 0)
(0.200161 1.50045e-05 0)
(0.200154 1.41892e-05 0)
(0.200147 1.34046e-05 0)
(0.20014 1.26494e-05 0)
(0.200134 1.19222e-05 0)
(0.200128 1.12221e-05 0)
(0.200123 1.05479e-05 0)
(0.200118 9.89859e-06 0)
(0.200113 9.27347e-06 0)
(0.200108 8.67198e-06 0)
(0.200103 8.09395e-06 0)
(0.200099 7.53983e-06 0)
(0.200095 7.01103e-06 0)
(0.200092 6.51037e-06 0)
(0.200088 6.04215e-06 0)
(0.200085 5.60927e-06 0)
(0.200082 5.19559e-06 0)
(0.197624 0.00573242 0)
(0.198172 0.00623205 0)
(0.198814 0.0066026 0)
(0.199509 0.00683332 0)
(0.200224 0.00693007 0)
(0.200933 0.00690256 0)
(0.201614 0.00676068 0)
(0.202251 0.00651554 0)
(0.202831 0.00617993 0)
(0.20334 0.00576758 0)
(0.20377 0.00529248 0)
(0.204115 0.00476904 0)
(0.204368 0.00421257 0)
(0.204526 0.0036398 0)
(0.204588 0.0030691 0)
(0.204557 0.00251989 0)
(0.204441 0.00201129 0)
(0.204255 0.00155978 0)
(0.204018 0.00117671 0)
(0.20375 0.000866179 0)
(0.20347 0.000625275 0)
(0.203194 0.000446315 0)
(0.202932 0.000319354 0)
(0.202692 0.00023395 0)
(0.202475 0.000180239 0)
(0.202283 0.000149551 0)
(0.202115 0.000134694 0)
(0.201969 0.000129996 0)
(0.201842 0.000131188 0)
(0.201731 0.000135222 0)
(0.201634 0.000140044 0)
(0.201549 0.000144374 0)
(0.201473 0.000147499 0)
(0.201404 0.000149107 0)
(0.201341 0.000149157 0)
(0.201282 0.000147782 0)
(0.201228 0.000145212 0)
(0.201177 0.000141715 0)
(0.201128 0.000137556 0)
(0.201082 0.000132965 0)
(0.201038 0.000128129 0)
(0.200996 0.000123192 0)
(0.200956 0.000118256 0)
(0.200917 0.000113391 0)
(0.20088 0.000108643 0)
(0.200844 0.000104039 0)
(0.20081 9.95965e-05 0)
(0.200777 9.53215e-05 0)
(0.200746 9.12161e-05 0)
(0.200716 8.72785e-05 0)
(0.200687 8.35048e-05 0)
(0.200659 7.98898e-05 0)
(0.200632 7.64274e-05 0)
(0.200606 7.31113e-05 0)
(0.200581 6.99352e-05 0)
(0.200557 6.68926e-05 0)
(0.200534 6.39774e-05 0)
(0.200512 6.11836e-05 0)
(0.200491 5.85056e-05 0)
(0.200471 5.59379e-05 0)
(0.200451 5.34754e-05 0)
(0.200432 5.11133e-05 0)
(0.200414 4.88469e-05 0)
(0.200397 4.6672e-05 0)
(0.20038 4.45844e-05 0)
(0.200364 4.25803e-05 0)
(0.200348 4.0656e-05 0)
(0.200333 3.88081e-05 0)
(0.200319 3.70333e-05 0)
(0.200305 3.53285e-05 0)
(0.200292 3.36907e-05 0)
(0.200279 3.21173e-05 0)
(0.200267 3.06054e-05 0)
(0.200256 2.91526e-05 0)
(0.200244 2.77565e-05 0)
(0.200234 2.64146e-05 0)
(0.200223 2.51249e-05 0)
(0.200213 2.38851e-05 0)
(0.200204 2.26933e-05 0)
(0.200195 2.15474e-05 0)
(0.200186 2.04456e-05 0)
(0.200178 1.9386e-05 0)
(0.20017 1.83669e-05 0)
(0.200163 1.73866e-05 0)
(0.200156 1.64435e-05 0)
(0.200149 1.55359e-05 0)
(0.200142 1.46624e-05 0)
(0.200136 1.38216e-05 0)
(0.20013 1.3012e-05 0)
(0.200125 1.22324e-05 0)
(0.20012 1.14817e-05 0)
(0.200115 1.07589e-05 0)
(0.20011 1.00633e-05 0)
(0.200106 9.39446e-06 0)
(0.200101 8.75263e-06 0)
(0.200098 8.13877e-06 0)
(0.200094 7.55484e-06 0)
(0.200091 7.00346e-06 0)
(0.200087 6.4848e-06 0)
(0.200084 5.98348e-06 0)
(0.197921 0.00547071 0)
(0.19841 0.00590582 0)
(0.198979 0.00623587 0)
(0.1996 0.00644781 0)
(0.200245 0.00654208 0)
(0.200889 0.00652466 0)
(0.201512 0.00640328 0)
(0.202098 0.00618718 0)
(0.202633 0.00588731 0)
(0.203107 0.00551581 0)
(0.20351 0.00508547 0)
(0.203835 0.00460966 0)
(0.204077 0.00410262 0)
(0.204233 0.00357972 0)
(0.204303 0.00305749 0)
(0.204289 0.00255308 0)
(0.204198 0.00208303 0)
(0.204044 0.00166158 0)
(0.203842 0.00129867 0)
(0.203609 0.000998524 0)
(0.203362 0.000759683 0)
(0.203114 0.000576525 0)
(0.202876 0.000441163 0)
(0.202653 0.000344935 0)
(0.20245 0.000279388 0)
(0.202269 0.000236879 0)
(0.202107 0.000210897 0)
(0.201966 0.000196169 0)
(0.201841 0.000188611 0)
(0.201732 0.000185203 0)
(0.201635 0.000183817 0)
(0.20155 0.000183043 0)
(0.201473 0.000182012 0)
(0.201403 0.000180255 0)
(0.20134 0.000177581 0)
(0.201281 0.000173986 0)
(0.201226 0.000169585 0)
(0.201175 0.000164547 0)
(0.201126 0.000159061 0)
(0.20108 0.000153298 0)
(0.201036 0.000147407 0)
(0.200994 0.000141502 0)
(0.200954 0.000135668 0)
(0.200915 0.000129963 0)
(0.200878 0.000124425 0)
(0.200842 0.000119076 0)
(0.200808 0.000113929 0)
(0.200776 0.000108986 0)
(0.200744 0.000104249 0)
(0.200714 9.97111e-05 0)
(0.200685 9.53679e-05 0)
(0.200657 9.12118e-05 0)
(0.200631 8.72351e-05 0)
(0.200605 8.34296e-05 0)
(0.20058 7.97874e-05 0)
(0.200556 7.63008e-05 0)
(0.200533 7.29622e-05 0)
(0.200511 6.97645e-05 0)
(0.20049 6.67008e-05 0)
(0.20047 6.37647e-05 0)
(0.20045 6.09502e-05 0)
(0.200432 5.82513e-05 0)
(0.200413 5.56629e-05 0)
(0.200396 5.31796e-05 0)
(0.200379 5.07968e-05 0)
(0.200363 4.851e-05 0)
(0.200348 4.63148e-05 0)
(0.200333 4.42072e-05 0)
(0.200319 4.21835e-05 0)
(0.200305 4.02399e-05 0)
(0.200292 3.83732e-05 0)
(0.200279 3.65801e-05 0)
(0.200267 3.48574e-05 0)
(0.200255 3.32023e-05 0)
(0.200244 3.1612e-05 0)
(0.200233 3.00838e-05 0)
(0.200223 2.86151e-05 0)
(0.200213 2.72035e-05 0)
(0.200204 2.58466e-05 0)
(0.200195 2.45421e-05 0)
(0.200186 2.3288e-05 0)
(0.200178 2.20821e-05 0)
(0.20017 2.09224e-05 0)
(0.200163 1.9807e-05 0)
(0.200156 1.87339e-05 0)
(0.200149 1.77014e-05 0)
(0.200142 1.67077e-05 0)
(0.200136 1.57513e-05 0)
(0.20013 1.48305e-05 0)
(0.200125 1.39439e-05 0)
(0.20012 1.30901e-05 0)
(0.200115 1.2268e-05 0)
(0.20011 1.14766e-05 0)
(0.200106 1.07154e-05 0)
(0.200102 9.98427e-06 0)
(0.200098 9.28369e-06 0)
(0.200094 8.61485e-06 0)
(0.200091 7.97898e-06 0)
(0.200088 7.37452e-06 0)
(0.200084 6.78807e-06 0)
(0.198183 0.00523042 0)
(0.198623 0.00560978 0)
(0.19913 0.00590236 0)
(0.199686 0.00609489 0)
(0.200268 0.00618454 0)
(0.200852 0.00617437 0)
(0.201421 0.00607013 0)
(0.201958 0.00587942 0)
(0.202452 0.00561155 0)
(0.202891 0.00527718 0)
(0.203268 0.00488787 0)
(0.203574 0.00445589 0)
(0.203805 0.00399435 0)
(0.203959 0.00351727 0)
(0.204034 0.0030395 0)
(0.204035 0.00257617 0)
(0.203967 0.00214171 0)
(0.203841 0.00174847 0)
(0.203669 0.00140528 0)
(0.203468 0.00111635 0)
(0.20325 0.000881282 0)
(0.203029 0.000696082 0)
(0.202813 0.000554577 0)
(0.202608 0.000449657 0)
(0.202419 0.00037414 0)
(0.202248 0.000321352 0)
(0.202094 0.000285458 0)
(0.201957 0.000261607 0)
(0.201836 0.000245939 0)
(0.201728 0.000235512 0)
(0.201633 0.000228173 0)
(0.201548 0.000222427 0)
(0.201471 0.000217286 0)
(0.201401 0.000212151 0)
(0.201338 0.000206704 0)
(0.201279 0.000200825 0)
(0.201224 0.00019452 0)
(0.201172 0.000187873 0)
(0.201123 0.000180997 0)
(0.201077 0.000174011 0)
(0.201033 0.000167022 0)
(0.200991 0.000160115 0)
(0.200951 0.000153356 0)
(0.200912 0.00014679 0)
(0.200875 0.000140444 0)
(0.20084 0.000134336 0)
(0.200806 0.000128471 0)
(0.200773 0.000122851 0)
(0.200742 0.000117471 0)
(0.200712 0.000112325 0)
(0.200683 0.000107405 0)
(0.200656 0.0001027 0)
(0.200629 9.82019e-05 0)
(0.200603 9.39003e-05 0)
(0.200579 8.97858e-05 0)
(0.200555 8.58491e-05 0)
(0.200532 8.20813e-05 0)
(0.20051 7.8474e-05 0)
(0.200489 7.50194e-05 0)
(0.200469 7.17097e-05 0)
(0.200449 6.85381e-05 0)
(0.20043 6.54978e-05 0)
(0.200412 6.25826e-05 0)
(0.200395 5.97867e-05 0)
(0.200378 5.71044e-05 0)
(0.200362 5.45307e-05 0)
(0.200347 5.20606e-05 0)
(0.200332 4.96895e-05 0)
(0.200318 4.74131e-05 0)
(0.200304 4.52273e-05 0)
(0.200291 4.31282e-05 0)
(0.200278 4.11121e-05 0)
(0.200266 3.91755e-05 0)
(0.200255 3.7315e-05 0)
(0.200244 3.55276e-05 0)
(0.200233 3.38101e-05 0)