/*--------------------------------*- C++ -*----------------------------------*\
| =========                 |                                                 |
| \\      /  F ield         | OpenFOAM: The Open Source CFD Toolbox           |
|  \\    /   O peration     | Version:  2.3.0                                 |
|   \\  /    A nd           | Web:      www.OpenFOAM.org                      |
|    \\/     M anipulation  |                                                 |
\*---------------------------------------------------------------------------*/
FoamFile
{
    version     2.0;
    format      ascii;
    class       volVectorField;
    location    "0.05";
    object      U_0;
}
// * * * * * * * * * * * * * * * * * * * * * * * * * * * * * * * * * * * * * //

dimensions      [0 1 -1 0 0 0 0];

internalField   nonuniform List<vector> 
6875
(
(0.171784 0.00584314 0)
(0.155506 0.00594674 0)
(0.139872 0.00554105 0)
(0.12506 0.00494829 0)
(0.1115 0.00428982 0)
(0.0993715 0.00361973 0)
(0.0886884 0.00297539 0)
(0.0794189 0.00238284 0)
(0.0715098 0.00185794 0)
(0.0648802 0.00140845 0)
(0.0594227 0.00103539 0)
(0.0550155 0.000734216 0)
(0.051536 0.000496752 0)
(0.0488713 0.000313587 0)
(0.0469192 0.00017528 0)
(0.0455871 7.03798e-05 0)
(0.0447983 -1.72899e-05 0)
(0.0445289 -8.29776e-05 0)
(0.0446497 -0.000107948 0)
(0.0449056 -8.93977e-05 0)
(0.0452083 -6.20739e-05 0)
(0.0454942 -3.98323e-05 0)
(0.0457344 -2.47746e-05 0)
(0.0459242 -1.55327e-05 0)
(0.0460682 -1.00979e-05 0)
(0.0461745 -6.93169e-06 0)
(0.0462511 -5.07357e-06 0)
(0.0463051 -3.90507e-06 0)
(0.0463426 -3.08836e-06 0)
(0.0463681 -2.46497e-06 0)
(0.0463852 -1.96809e-06 0)
(0.0463963 -1.5725e-06 0)
(0.0464034 -1.27142e-06 0)
(0.0464076 -1.06332e-06 0)
(0.0464097 -9.14558e-07 0)
(0.0464104 -7.25888e-07 0)
(0.0464099 -5.27325e-07 0)
(0.0464082 -3.75731e-07 0)
(0.0464059 -2.60886e-07 0)
(0.046403 -1.70537e-07 0)
(0.0463997 -9.68196e-08 0)
(0.0463961 -3.52813e-08 0)
(0.0463923 1.65705e-08 0)
(0.0463884 6.02569e-08 0)
(0.0463843 9.68798e-08 0)
(0.0463802 1.27348e-07 0)
(0.0463759 1.52422e-07 0)
(0.0463717 1.72791e-07 0)
(0.0463675 1.89081e-07 0)
(0.0463632 2.01839e-07 0)
(0.046359 2.11553e-07 0)
(0.0463549 2.1865e-07 0)
(0.0463508 2.23492e-07 0)
(0.0463467 2.26411e-07 0)
(0.0463428 2.27703e-07 0)
(0.0463389 2.27598e-07 0)
(0.0463351 2.26302e-07 0)
(0.0463314 2.24012e-07 0)
(0.0463277 2.20887e-07 0)
(0.0463242 2.17067e-07 0)
(0.0463208 2.12664e-07 0)
(0.0463174 2.07793e-07 0)
(0.0463142 2.02541e-07 0)
(0.0463111 1.9698e-07 0)
(0.046308 1.91189e-07 0)
(0.0463051 1.85217e-07 0)
(0.0463022 1.79124e-07 0)
(0.0462995 1.72947e-07 0)
(0.0462968 1.6673e-07 0)
(0.0462943 1.60504e-07 0)
(0.0462918 1.54293e-07 0)
(0.0462895 1.48127e-07 0)
(0.0462872 1.42018e-07 0)
(0.046285 1.35985e-07 0)
(0.0462829 1.30044e-07 0)
(0.0462808 1.24203e-07 0)
(0.0462789 1.18479e-07 0)
(0.046277 1.12871e-07 0)
(0.0462753 1.07392e-07 0)
(0.0462736 1.02034e-07 0)
(0.0462719 9.68092e-08 0)
(0.0462704 9.17103e-08 0)
(0.0462689 8.67473e-08 0)
(0.0462675 8.19215e-08 0)
(0.0462662 7.72302e-08 0)
(0.0462649 7.26825e-08 0)
(0.0462637 6.82685e-08 0)
(0.0462626 6.39976e-08 0)
(0.0462615 5.98726e-08 0)
(0.0462605 5.5898e-08 0)
(0.0462596 5.20945e-08 0)
(0.0462587 4.84788e-08 0)
(0.0462578 4.50963e-08 0)
(0.0462571 4.20279e-08 0)
(0.0462563 3.94111e-08 0)
(0.0462556 3.75397e-08 0)
(0.046255 3.70425e-08 0)
(0.0462544 3.94633e-08 0)
(0.0462538 4.47214e-08 0)
(0.0462526 1.78096e-07 0)
(0.190687 0.00927737 0)
(0.188532 0.00979905 0)
(0.184802 0.0095604 0)
(0.179854 0.00904038 0)
(0.174204 0.00838255 0)
(0.168219 0.00763301 0)
(0.162133 0.00682929 0)
(0.156129 0.00600583 0)
(0.150359 0.00519101 0)
(0.144944 0.00440711 0)
(0.139982 0.00367006 0)
(0.135548 0.0029887 0)
(0.131704 0.0023657 0)
(0.128497 0.00180097 0)
(0.125952 0.00129487 0)
(0.124066 0.000848507 0)
(0.122812 0.000461092 0)
(0.122062 0.000141715 0)
(0.121718 -8.33691e-05 0)
(0.121748 -0.000195108 0)
(0.121999 -0.000223087 0)
(0.122352 -0.000206313 0)
(0.122726 -0.000171202 0)
(0.123072 -0.000132673 0)
(0.123365 -9.79024e-05 0)
(0.1236 -6.95377e-05 0)
(0.123779 -4.78792e-05 0)
(0.12391 -3.20974e-05 0)
(0.124001 -2.09939e-05 0)
(0.124061 -1.33932e-05 0)
(0.124099 -8.29993e-06 0)
(0.12412 -4.93859e-06 0)
(0.12413 -2.73666e-06 0)
(0.124132 -1.24272e-06 0)
(0.124128 -9.73888e-08 0)
(0.124119 8.87001e-07 0)
(0.124108 1.67599e-06 0)
(0.124094 2.2304e-06 0)
(0.124079 2.60016e-06 0)
(0.124064 2.84504e-06 0)
(0.124048 3.00818e-06 0)
(0.124032 3.11626e-06 0)
(0.124016 3.18488e-06 0)
(0.124001 3.22329e-06 0)
(0.123985 3.23746e-06 0)
(0.12397 3.23171e-06 0)
(0.123955 3.20945e-06 0)
(0.123941 3.17347e-06 0)
(0.123927 3.12621e-06 0)
(0.123913 3.06977e-06 0)
(0.123899 3.00593e-06 0)
(0.123886 2.93623e-06 0)
(0.123873 2.86196e-06 0)
(0.123861 2.78421e-06 0)
(0.123849 2.70396e-06 0)
(0.123837 2.62199e-06 0)
(0.123826 2.53892e-06 0)
(0.123815 2.45534e-06 0)
(0.123804 2.37172e-06 0)
(0.123794 2.28844e-06 0)
(0.123784 2.20583e-06 0)
(0.123775 2.12416e-06 0)
(0.123765 2.04365e-06 0)
(0.123756 1.96447e-06 0)
(0.123748 1.8868e-06 0)
(0.123739 1.81071e-06 0)
(0.123731 1.73634e-06 0)
(0.123724 1.66372e-06 0)
(0.123716 1.59293e-06 0)
(0.123709 1.524e-06 0)
(0.123702 1.45694e-06 0)
(0.123696 1.39177e-06 0)
(0.123689 1.32849e-06 0)
(0.123683 1.26708e-06 0)
(0.123677 1.20753e-06 0)
(0.123672 1.14982e-06 0)
(0.123666 1.09392e-06 0)
(0.123661 1.03979e-06 0)
(0.123656 9.87404e-07 0)
(0.123652 9.36704e-07 0)
(0.123647 8.87655e-07 0)
(0.123643 8.40208e-07 0)
(0.123639 7.94321e-07 0)
(0.123635 7.49959e-07 0)
(0.123631 7.07058e-07 0)
(0.123628 6.65595e-07 0)
(0.123624 6.25507e-07 0)
(0.123621 5.8677e-07 0)
(0.123618 5.49353e-07 0)
(0.123615 5.13228e-07 0)
(0.123613 4.78416e-07 0)
(0.12361 4.44938e-07 0)
(0.123608 4.12905e-07 0)
(0.123606 3.82531e-07 0)
(0.123604 3.54241e-07 0)
(0.123602 3.2896e-07 0)
(0.1236 3.08727e-07 0)
(0.123599 2.98662e-07 0)
(0.123597 3.17018e-07 0)
(0.123595 5.29877e-07 0)
(0.193669 0.00882533 0)
(0.194592 0.00977147 0)
(0.194886 0.0100694 0)
(0.194402 0.0100272 0)
(0.19327 0.00974924 0)
(0.191628 0.00927268 0)
(0.189584 0.00864062 0)
(0.187246 0.00790071 0)
(0.184727 0.0070953 0)
(0.182143 0.0062584 0)
(0.179604 0.00541496 0)
(0.17721 0.00458106 0)
(0.175049 0.00376652 0)
(0.173192 0.00297968 0)
(0.171687 0.00223191 0)
(0.170551 0.00153936 0)
(0.169769 0.000925538 0)
(0.169288 0.000417802 0)
(0.169008 4.09014e-05 0)
(0.168909 -0.000193473 0)
(0.168967 -0.000309811 0)
(0.169136 -0.000344142 0)
(0.169368 -0.00032878 0)
(0.169623 -0.000287609 0)
(0.169872 -0.000236518 0)
(0.170095 -0.000185202 0)
(0.170282 -0.00013893 0)
(0.170431 -0.000100036 0)
(0.170542 -6.90075e-05 0)
(0.17062 -4.52824e-05 0)
(0.170669 -2.77908e-05 0)
(0.170696 -1.53012e-05 0)
(0.170706 -6.58234e-06 0)
(0.170702 -4.36943e-07 0)
(0.170689 4.02934e-06 0)
(0.170669 7.19644e-06 0)
(0.170646 9.27869e-06 0)
(0.17062 1.05405e-05 0)
(0.170594 1.12384e-05 0)
(0.170567 1.15731e-05 0)
(0.17054 1.16816e-05 0)
(0.170514 1.16494e-05 0)
(0.170488 1.1528e-05 0)
(0.170463 1.13479e-05 0)
(0.170439 1.11274e-05 0)
(0.170415 1.08783e-05 0)
(0.170392 1.06085e-05 0)
(0.170369 1.0324e-05 0)
(0.170348 1.0029e-05 0)
(0.170327 9.72724e-06 0)
(0.170306 9.42157e-06 0)
(0.170287 9.11432e-06 0)
(0.170268 8.8074e-06 0)
(0.170249 8.50233e-06 0)
(0.170231 8.2004e-06 0)
(0.170214 7.9026e-06 0)
(0.170198 7.60971e-06 0)
(0.170182 7.32236e-06 0)
(0.170166 7.04106e-06 0)
(0.170151 6.76618e-06 0)
(0.170137 6.49797e-06 0)
(0.170123 6.23665e-06 0)
(0.17011 5.98235e-06 0)
(0.170097 5.73512e-06 0)
(0.170085 5.49501e-06 0)
(0.170073 5.262e-06 0)
(0.170061 5.03604e-06 0)
(0.17005 4.81709e-06 0)
(0.17004 4.60503e-06 0)
(0.17003 4.39977e-06 0)
(0.17002 4.20118e-06 0)
(0.17001 4.00913e-06 0)
(0.170001 3.82348e-06 0)
(0.169993 3.64406e-06 0)
(0.169984 3.47073e-06 0)
(0.169976 3.30331e-06 0)
(0.169969 3.14164e-06 0)
(0.169962 2.98555e-06 0)
(0.169955 2.83485e-06 0)
(0.169948 2.68939e-06 0)
(0.169941 2.54896e-06 0)
(0.169935 2.41342e-06 0)
(0.16993 2.28258e-06 0)
(0.169924 2.15629e-06 0)
(0.169919 2.03436e-06 0)
(0.169914 1.91665e-06 0)
(0.169909 1.80299e-06 0)
(0.169905 1.69325e-06 0)
(0.1699 1.58729e-06 0)
(0.169896 1.48501e-06 0)
(0.169893 1.38636e-06 0)
(0.169889 1.29133e-06 0)
(0.169886 1.20004e-06 0)
(0.169882 1.11283e-06 0)
(0.16988 1.0304e-06 0)
(0.169877 9.54386e-07 0)
(0.169874 8.88454e-07 0)
(0.169872 8.42142e-07 0)
(0.16987 8.52376e-07 0)
(0.169867 1.03328e-06 0)
(0.194687 0.008129 0)
(0.195971 0.00915963 0)
(0.197163 0.00966892 0)
(0.198045 0.0098465 0)
(0.198605 0.00977809 0)
(0.19886 0.00949466 0)
(0.198822 0.00902936 0)
(0.198511 0.00842191 0)
(0.19797 0.00770976 0)
(0.197257 0.00692424 0)
(0.196436 0.00608985 0)
(0.195573 0.00522516 0)
(0.194727 0.00434581 0)
(0.193946 0.00346909 0)
(0.193263 0.00261783 0)
(0.192693 0.00182148 0)
(0.192234 0.00111608 0)
(0.191874 0.000538864 0)
(0.191589 0.000111435 0)
(0.191366 -0.000165206 0)
(0.191223 -0.000319453 0)
(0.191158 -0.000383578 0)
(0.191154 -0.000387747 0)
(0.191192 -0.000356053 0)
(0.191254 -0.000306009 0)
(0.191325 -0.000249542 0)
(0.191393 -0.000194204 0)
(0.191452 -0.00014431 0)
(0.191496 -0.000101894 0)
(0.191524 -6.74586e-05 0)
(0.191538 -4.05721e-05 0)
(0.191537 -2.02745e-05 0)
(0.191525 -5.31735e-06 0)
(0.191503 5.55276e-06 0)
(0.191475 1.3227e-05 0)
(0.191443 1.83214e-05 0)
(0.191408 2.14403e-05 0)
(0.191373 2.31565e-05 0)
(0.191337 2.39371e-05 0)
(0.191302 2.41245e-05 0)
(0.191267 2.39488e-05 0)
(0.191234 2.35557e-05 0)
(0.191201 2.30338e-05 0)
(0.191169 2.24361e-05 0)
(0.191139 2.17945e-05 0)
(0.191109 2.11284e-05 0)
(0.191081 2.04503e-05 0)
(0.191053 1.97684e-05 0)
(0.191027 1.90884e-05 0)
(0.191001 1.84144e-05 0)
(0.190976 1.77497e-05 0)
(0.190952 1.70963e-05 0)
(0.190929 1.64561e-05 0)
(0.190907 1.58302e-05 0)
(0.190886 1.52196e-05 0)
(0.190865 1.46248e-05 0)
(0.190846 1.40464e-05 0)
(0.190827 1.34844e-05 0)
(0.190808 1.29389e-05 0)
(0.190791 1.24101e-05 0)
(0.190774 1.18976e-05 0)
(0.190757 1.14014e-05 0)
(0.190741 1.09213e-05 0)
(0.190726 1.04568e-05 0)
(0.190712 1.00078e-05 0)
(0.190698 9.57383e-06 0)
(0.190684 9.15459e-06 0)
(0.190671 8.74973e-06 0)
(0.190659 8.35884e-06 0)
(0.190647 7.98156e-06 0)
(0.190635 7.61748e-06 0)
(0.190624 7.26623e-06 0)
(0.190613 6.92741e-06 0)
(0.190603 6.60064e-06 0)
(0.190593 6.28553e-06 0)
(0.190584 5.9817e-06 0)
(0.190575 5.68876e-06 0)
(0.190566 5.40635e-06 0)
(0.190558 5.13407e-06 0)
(0.19055 4.87159e-06 0)
(0.190543 4.61852e-06 0)
(0.190536 4.37453e-06 0)
(0.190529 4.13926e-06 0)
(0.190522 3.91241e-06 0)
(0.190516 3.6936e-06 0)
(0.19051 3.48255e-06 0)
(0.190505 3.27895e-06 0)
(0.190499 3.08249e-06 0)
(0.190494 2.89295e-06 0)
(0.190489 2.71007e-06 0)
(0.190485 2.53371e-06 0)
(0.190481 2.36379e-06 0)
(0.190477 2.2004e-06 0)
(0.190473 2.04392e-06 0)
(0.190469 1.89527e-06 0)
(0.190466 1.75655e-06 0)
(0.190463 1.63259e-06 0)
(0.19046 1.53565e-06 0)
(0.190457 1.50296e-06 0)
(0.190454 1.5993e-06 0)
(0.195388 0.00757571 0)
(0.196534 0.00853763 0)
(0.197762 0.00907924 0)
(0.198897 0.00932111 0)
(0.199899 0.00933785 0)
(0.200758 0.00915769 0)
(0.201455 0.00880373 0)
(0.201975 0.00830442 0)
(0.202318 0.00768845 0)
(0.2025 0.00698116 0)
(0.202545 0.00620405 0)
(0.202479 0.00537588 0)
(0.202328 0.00451533 0)
(0.202112 0.00364455 0)
(0.201847 0.00279172 0)
(0.201543 0.00199109 0)
(0.201207 0.00128076 0)
(0.200853 0.000697168 0)
(0.2005 0.000260838 0)
(0.200161 -3.84329e-05 0)
(0.199863 -0.000220296 0)
(0.199618 -0.000312327 0)
(0.199427 -0.00034102 0)
(0.199282 -0.000328449 0)
(0.199174 -0.000291725 0)
(0.199095 -0.000243335 0)
(0.199035 -0.000191851 0)
(0.198988 -0.000142739 0)
(0.198947 -9.90997e-05 0)
(0.198909 -6.23313e-05 0)
(0.198871 -3.2664e-05 0)
(0.198832 -9.57252e-06 0)
(0.198791 7.84569e-06 0)
(0.198748 2.04951e-05 0)
(0.198704 2.91745e-05 0)
(0.198661 3.47049e-05 0)
(0.198618 3.78888e-05 0)
(0.198575 3.94223e-05 0)
(0.198534 3.98539e-05 0)
(0.198493 3.95836e-05 0)
(0.198454 3.88839e-05 0)
(0.198416 3.79312e-05 0)
(0.198379 3.6836e-05 0)
(0.198343 3.56659e-05 0)
(0.198309 3.44622e-05 0)
(0.198276 3.32498e-05 0)
(0.198244 3.20443e-05 0)
(0.198214 3.08553e-05 0)
(0.198185 2.96892e-05 0)
(0.198156 2.85498e-05 0)
(0.198129 2.74397e-05 0)
(0.198103 2.63605e-05 0)
(0.198078 2.53132e-05 0)
(0.198054 2.4298e-05 0)
(0.19803 2.33151e-05 0)
(0.198008 2.23642e-05 0)
(0.197986 2.14449e-05 0)
(0.197966 2.05567e-05 0)
(0.197946 1.96989e-05 0)
(0.197926 1.88709e-05 0)
(0.197908 1.80718e-05 0)
(0.19789 1.73009e-05 0)
(0.197873 1.65574e-05 0)
(0.197857 1.58404e-05 0)
(0.197841 1.51491e-05 0)
(0.197826 1.44828e-05 0)
(0.197811 1.38406e-05 0)
(0.197797 1.32217e-05 0)
(0.197783 1.26253e-05 0)
(0.19777 1.20508e-05 0)
(0.197758 1.14973e-05 0)
(0.197746 1.09641e-05 0)
(0.197734 1.04505e-05 0)
(0.197723 9.95591e-06 0)
(0.197713 9.47951e-06 0)
(0.197703 9.0207e-06 0)
(0.197693 8.57883e-06 0)
(0.197684 8.15328e-06 0)
(0.197675 7.74341e-06 0)
(0.197666 7.34865e-06 0)
(0.197658 6.96839e-06 0)
(0.197651 6.60211e-06 0)
(0.197643 6.24921e-06 0)
(0.197636 5.9092e-06 0)
(0.197629 5.58152e-06 0)
(0.197623 5.26569e-06 0)
(0.197617 4.96122e-06 0)
(0.197611 4.66765e-06 0)
(0.197606 4.38459e-06 0)
(0.1976 4.11163e-06 0)
(0.197595 3.8485e-06 0)
(0.197591 3.59502e-06 0)
(0.197586 3.35118e-06 0)
(0.197582 3.11735e-06 0)
(0.197578 2.89451e-06 0)
(0.197575 2.68496e-06 0)
(0.197571 2.49387e-06 0)
(0.197568 2.33343e-06 0)
(0.197565 2.23271e-06 0)
(0.197562 2.22101e-06 0)
(0.195975 0.0070964 0)
(0.196945 0.0079528 0)
(0.19804 0.008478 0)
(0.19913 0.00874011 0)
(0.200166 0.00879698 0)
(0.201133 0.00867423 0)
(0.202008 0.00839 0)
(0.202771 0.00796615 0)
(0.203409 0.00742586 0)
(0.203916 0.00679056 0)
(0.204297 0.00607947 0)
(0.204553 0.00531084 0)
(0.204692 0.00450412 0)
(0.204715 0.00368257 0)
(0.204629 0.00287485 0)
(0.204439 0.00211431 0)
(0.204158 0.0014361 0)
(0.203809 0.00087163 0)
(0.203425 0.000438724 0)
(0.203037 0.000131532 0)
(0.20267 -6.72807e-05 0)
(0.202341 -0.000180748 0)
(0.202056 -0.000231499 0)
(0.201817 -0.000239238 0)
(0.201618 -0.00021991 0)
(0.201455 -0.000185632 0)
(0.201322 -0.000145091 0)
(0.201211 -0.000104122 0)
(0.201118 -6.63159e-05 0)
(0.201037 -3.35707e-05 0)
(0.200967 -6.57775e-06 0)
(0.200902 1.47438e-05 0)
(0.200843 3.08696e-05 0)
(0.200787 4.24214e-05 0)
(0.200735 5.01444e-05 0)
(0.200684 5.48418e-05 0)
(0.200636 5.72705e-05 0)
(0.200589 5.80839e-05 0)
(0.200544 5.78053e-05 0)
(0.200501 5.68244e-05 0)
(0.200459 5.54144e-05 0)
(0.200419 5.37574e-05 0)
(0.20038 5.19706e-05 0)
(0.200343 5.01276e-05 0)
(0.200307 4.82738e-05 0)
(0.200272 4.64368e-05 0)
(0.200239 4.46334e-05 0)
(0.200207 4.28734e-05 0)
(0.200176 4.11626e-05 0)
(0.200147 3.95042e-05 0)
(0.200119 3.78996e-05 0)
(0.200092 3.63493e-05 0)
(0.200065 3.4853e-05 0)
(0.20004 3.34099e-05 0)
(0.200016 3.20188e-05 0)
(0.199993 3.06785e-05 0)
(0.199971 2.93874e-05 0)
(0.199949 2.81441e-05 0)
(0.199928 2.6947e-05 0)
(0.199908 2.57946e-05 0)
(0.199889 2.46852e-05 0)
(0.199871 2.36173e-05 0)
(0.199853 2.25895e-05 0)
(0.199836 2.16003e-05 0)
(0.19982 2.06483e-05 0)
(0.199804 1.9732e-05 0)
(0.199789 1.88502e-05 0)
(0.199774 1.80016e-05 0)
(0.19976 1.71849e-05 0)
(0.199747 1.63989e-05 0)
(0.199734 1.56426e-05 0)
(0.199722 1.49148e-05 0)
(0.19971 1.42144e-05 0)
(0.199699 1.35404e-05 0)
(0.199688 1.28918e-05 0)
(0.199677 1.22676e-05 0)
(0.199667 1.16669e-05 0)
(0.199658 1.10887e-05 0)
(0.199648 1.05323e-05 0)
(0.19964 9.99665e-06 0)
(0.199631 9.48104e-06 0)
(0.199623 8.98465e-06 0)
(0.199616 8.50668e-06 0)
(0.199608 8.04641e-06 0)
(0.199601 7.60309e-06 0)
(0.199595 7.17601e-06 0)
(0.199588 6.76452e-06 0)
(0.199582 6.36796e-06 0)
(0.199577 5.98575e-06 0)
(0.199571 5.61735e-06 0)
(0.199566 5.26232e-06 0)
(0.199561 4.92033e-06 0)
(0.199557 4.59129e-06 0)
(0.199553 4.27547e-06 0)
(0.199549 3.97379e-06 0)
(0.199545 3.68851e-06 0)
(0.199541 3.42452e-06 0)
(0.199538 3.19227e-06 0)
(0.199535 3.01169e-06 0)
(0.199532 2.88893e-06 0)
(0.196481 0.00668198 0)
(0.197307 0.00743436 0)
(0.198262 0.0079277 0)
(0.199247 0.00819279 0)
(0.200214 0.00826988 0)
(0.201141 0.00818154 0)
(0.202008 0.00794369 0)
(0.202795 0.00757455 0)
(0.203486 0.00709391 0)
(0.204071 0.0065208 0)
(0.204543 0.00587298 0)
(0.204897 0.00516804 0)
(0.205131 0.00442511 0)
(0.20524 0.00366675 0)
(0.205225 0.00291983 0)
(0.205092 0.00221456 0)
(0.204854 0.0015816 0)
(0.204535 0.00104731 0)
(0.204167 0.000626781 0)
(0.203783 0.000317944 0)
(0.203411 0.000106983 0)
(0.203066 -2.4813e-05 0)
(0.202758 -9.63079e-05 0)
(0.20249 -0.000124663 0)
(0.202261 -0.00012428 0)
(0.202068 -0.000106479 0)
(0.201906 -7.96714e-05 0)
(0.20177 -4.97597e-05 0)
(0.201655 -2.06004e-05 0)
(0.201556 5.53381e-06 0)
(0.201471 2.75405e-05 0)
(0.201396 4.50874e-05 0)
(0.201328 5.83113e-05 0)
(0.201266 6.76312e-05 0)
(0.201209 7.36317e-05 0)
(0.201155 7.69616e-05 0)
(0.201104 7.82543e-05 0)
(0.201055 7.80757e-05 0)
(0.201009 7.68911e-05 0)
(0.200964 7.50567e-05 0)
(0.200921 7.28292e-05 0)
(0.20088 7.03845e-05 0)
(0.20084 6.78388e-05 0)
(0.200802 6.52665e-05 0)
(0.200766 6.2714e-05 0)
(0.200731 6.02096e-05 0)
(0.200697 5.77698e-05 0)
(0.200665 5.5404e-05 0)
(0.200634 5.3117e-05 0)
(0.200604 5.09106e-05 0)
(0.200575 4.87851e-05 0)
(0.200548 4.67392e-05 0)
(0.200521 4.47714e-05 0)
(0.200496 4.28794e-05 0)
(0.200471 4.10607e-05 0)
(0.200448 3.93127e-05 0)
(0.200425 3.7633e-05 0)
(0.200403 3.60188e-05 0)
(0.200382 3.44675e-05 0)
(0.200362 3.29768e-05 0)
(0.200343 3.1544e-05 0)
(0.200324 3.01669e-05 0)
(0.200306 2.88433e-05 0)
(0.200289 2.75709e-05 0)
(0.200273 2.63477e-05 0)
(0.200257 2.51717e-05 0)
(0.200241 2.4041e-05 0)
(0.200227 2.29539e-05 0)
(0.200213 2.19085e-05 0)
(0.200199 2.09033e-05 0)
(0.200186 1.99367e-05 0)
(0.200173 1.90071e-05 0)
(0.200162 1.8113e-05 0)
(0.20015 1.72532e-05 0)
(0.200139 1.64261e-05 0)
(0.200128 1.56307e-05 0)
(0.200118 1.48655e-05 0)
(0.200109 1.41294e-05 0)
(0.200099 1.34212e-05 0)
(0.20009 1.27399e-05 0)
(0.200082 1.20843e-05 0)
(0.200074 1.14533e-05 0)
(0.200066 1.08461e-05 0)
(0.200059 1.02615e-05 0)
(0.200052 9.69864e-06 0)
(0.200045 9.15663e-06 0)
(0.200039 8.63458e-06 0)
(0.200033 8.13164e-06 0)
(0.200027 7.64706e-06 0)
(0.200021 7.18012e-06 0)
(0.200016 6.73021e-06 0)
(0.200011 6.29687e-06 0)
(0.200007 5.87984e-06 0)
(0.200002 5.4793e-06 0)
(0.199998 5.09602e-06 0)
(0.199995 4.73204e-06 0)
(0.199991 4.39165e-06 0)
(0.199988 4.08309e-06 0)
(0.199985 3.81872e-06 0)
(0.199981 3.5912e-06 0)
(0.196921 0.00632076 0)
(0.197634 0.00697776 0)
(0.198467 0.0074312 0)
(0.199346 0.00768889 0)
(0.200226 0.00777619 0)
(0.201081 0.0077117 0)
(0.201892 0.00750948 0)
(0.202638 0.00718499 0)
(0.203305 0.00675537 0)
(0.203881 0.00623778 0)
(0.204357 0.00564883 0)
(0.204725 0.0050054 0)
(0.204979 0.00432589 0)
(0.205115 0.00363145 0)
(0.205131 0.00294649 0)
(0.205034 0.00229761 0)
(0.204835 0.00171112 0)
(0.204557 0.00120912 0)
(0.204227 0.000804551 0)
(0.203876 0.000497519 0)
(0.203528 0.000278187 0)
(0.203199 0.000131837 0)
(0.2029 4.26189e-05 0)
(0.202635 -4.26053e-06 0)
(0.202404 -2.15932e-05 0)
(0.202207 -1.97763e-05 0)
(0.202038 -6.79684e-06 0)
(0.201895 1.15366e-05 0)
(0.201774 3.12551e-05 0)
(0.201669 4.98556e-05 0)
(0.201579 6.59262e-05 0)
(0.201499 7.88335e-05 0)
(0.201428 8.84567e-05 0)
(0.201363 9.49918e-05 0)
(0.201303 9.88234e-05 0)
(0.201248 0.000100432 0)
(0.201196 0.000100318 0)
(0.201146 9.89443e-05 0)
(0.201099 9.67045e-05 0)
(0.201054 9.39078e-05 0)
(0.20101 9.07832e-05 0)
(0.200969 8.74917e-05 0)
(0.200929 8.41419e-05 0)
(0.200891 8.08047e-05 0)
(0.200854 7.75243e-05 0)
(0.200819 7.43276e-05 0)
(0.200785 7.123e-05 0)
(0.200753 6.82393e-05 0)
(0.200721 6.53589e-05 0)
(0.200692 6.25889e-05 0)
(0.200663 5.99278e-05 0)
(0.200635 5.7373e-05 0)
(0.200609 5.49211e-05 0)
(0.200583 5.25685e-05 0)
(0.200559 5.03113e-05 0)
(0.200535 4.81456e-05 0)
(0.200512 4.60675e-05 0)
(0.20049 4.40733e-05 0)
(0.200469 4.21593e-05 0)
(0.200449 4.03221e-05 0)
(0.20043 3.85582e-05 0)
(0.200411 3.68646e-05 0)
(0.200393 3.52381e-05 0)
(0.200376 3.3676e-05 0)
(0.200359 3.21753e-05 0)
(0.200343 3.07337e-05 0)
(0.200328 2.93484e-05 0)
(0.200313 2.80173e-05 0)
(0.200299 2.67381e-05 0)
(0.200286 2.55087e-05 0)
(0.200273 2.43269e-05 0)
(0.20026 2.3191e-05 0)
(0.200248 2.20989e-05 0)
(0.200237 2.10491e-05 0)
(0.200226 2.00397e-05 0)
(0.200215 1.90691e-05 0)
(0.200205 1.81359e-05 0)
(0.200195 1.72383e-05 0)
(0.200186 1.63751e-05 0)
(0.200177 1.55449e-05 0)
(0.200168 1.47461e-05 0)
(0.20016 1.39777e-05 0)
(0.200153 1.32383e-05 0)
(0.200145 1.25267e-05 0)
(0.200138 1.18418e-05 0)
(0.200131 1.11823e-05 0)
(0.200125 1.05473e-05 0)
(0.200119 9.93573e-06 0)
(0.200113 9.34657e-06 0)
(0.200108 8.77896e-06 0)
(0.200103 8.23212e-06 0)
(0.200098 7.70543e-06 0)
(0.200093 7.19848e-06 0)
(0.200089 6.71127e-06 0)
(0.200085 6.24442e-06 0)
(0.200081 5.79962e-06 0)
(0.200077 5.38042e-06 0)
(0.200074 4.99287e-06 0)
(0.200071 4.64372e-06 0)
(0.200068 4.31929e-06 0)
(0.197306 0.00600013 0)
(0.197929 0.00657203 0)
(0.198659 0.00698249 0)
(0.199442 0.00722674 0)
(0.200237 0.00731868 0)
(0.201018 0.00727233 0)
(0.201764 0.00709965 0)
(0.202456 0.00681376 0)
(0.20308 0.00642949 0)
(0.203624 0.00596228 0)
(0.204078 0.00542769 0)
(0.204433 0.00484175 0)
(0.204685 0.00422186 0)
(0.204828 0.00358763 0)
(0.204862 0.00296094 0)
(0.204792 0.00236509 0)
(0.204629 0.0018226 0)
(0.204392 0.00135217 0)
(0.204105 0.000965083 0)
(0.203793 0.000662812 0)
(0.203478 0.000438565 0)
(0.203176 0.000280914 0)
(0.202897 0.000176882 0)
(0.202646 0.000113844 0)
(0.202424 8.05287e-05 0)
(0.202231 6.75184e-05 0)
(0.202065 6.73682e-05 0)
(0.201923 7.44854e-05 0)
(0.2018 8.48872e-05 0)
(0.201694 9.59109e-05 0)
(0.201601 0.00010592 0)
(0.20152 0.000114034 0)
(0.201447 0.000119891 0)
(0.201381 0.000123471 0)
(0.20132 0.000124972 0)
(0.201263 0.000124714 0)
(0.20121 0.000123069 0)
(0.20116 0.000120398 0)
(0.201113 0.000117021 0)
(0.201067 0.000113198 0)
(0.201024 0.000109127 0)
(0.200982 0.00010495 0)
(0.200942 0.000100767 0)
(0.200904 9.66405e-05 0)
(0.200867 9.26124e-05 0)
(0.200832 8.87067e-05 0)
(0.200799 8.49364e-05 0)
(0.200766 8.13077e-05 0)
(0.200735 7.78218e-05 0)
(0.200705 7.44771e-05 0)
(0.200676 7.12703e-05 0)
(0.200649 6.8197e-05 0)
(0.200622 6.52521e-05 0)
(0.200597 6.24305e-05 0)
(0.200572 5.97268e-05 0)
(0.200549 5.71357e-05 0)
(0.200526 5.46521e-05 0)
(0.200504 5.22711e-05 0)
(0.200483 4.99879e-05 0)
(0.200463 4.77981e-05 0)
(0.200444 4.56973e-05 0)
(0.200425 4.36815e-05 0)
(0.200407 4.17469e-05 0)
(0.20039 3.98898e-05 0)
(0.200373 3.81068e-05 0)
(0.200357 3.63947e-05 0)
(0.200342 3.47504e-05 0)
(0.200327 3.31711e-05 0)
(0.200313 3.16538e-05 0)
(0.2003 3.01961e-05 0)
(0.200287 2.87955e-05 0)
(0.200274 2.74495e-05 0)
(0.200262 2.6156e-05 0)
(0.200251 2.49128e-05 0)
(0.20024 2.37178e-05 0)
(0.200229 2.25691e-05 0)
(0.200219 2.14647e-05 0)
(0.200209 2.04029e-05 0)
(0.2002 1.93819e-05 0)
(0.200191 1.84001e-05 0)
(0.200182 1.74557e-05 0)
(0.200174 1.65474e-05 0)
(0.200167 1.56735e-05 0)
(0.200159 1.48327e-05 0)
(0.200152 1.40234e-05 0)
(0.200145 1.32445e-05 0)
(0.200139 1.24945e-05 0)
(0.200133 1.17723e-05 0)
(0.200127 1.10767e-05 0)
(0.200122 1.04067e-05 0)
(0.200117 9.76114e-06 0)
(0.200112 9.1394e-06 0)
(0.200107 8.54085e-06 0)
(0.200103 7.96532e-06 0)
(0.200099 7.41319e-06 0)
(0.200095 6.88577e-06 0)
(0.200091 6.38579e-06 0)
(0.200088 5.91735e-06 0)
(0.200085 5.48329e-06 0)
(0.200082 5.06818e-06 0)
(0.197643 0.00571133 0)
(0.198193 0.00620876 0)
(0.198837 0.00657657 0)
(0.199535 0.00680391 0)
(0.200253 0.00689652 0)
(0.200963 0.00686402 0)
(0.201646 0.00671619 0)
(0.202284 0.00646407 0)
(0.202862 0.00612046 0)
(0.203369 0.00569922 0)
(0.203795 0.00521471 0)
(0.204133 0.00468198 0)
(0.204375 0.00411733 0)
(0.20452 0.0035387 0)
(0.204566 0.00296569 0)
(0.204518 0.00241865 0)
(0.204387 0.00191697 0)
(0.204188 0.00147662 0)
(0.203941 0.00110758 0)
(0.203668 0.000812148 0)
(0.203388 0.00058586 0)
(0.203114 0.000419992 0)
(0.202857 0.00030402 0)
(0.202623 0.000227292 0)
(0.202413 0.000179997 0)
(0.202228 0.000153692 0)
(0.202067 0.000141506 0)
(0.201927 0.000138123 0)
(0.201806 0.000139623 0)
(0.2017 0.000143267 0)
(0.201607 0.000147263 0)
(0.201524 0.000150532 0)
(0.20145 0.000152515 0)
(0.201383 0.000153005 0)
(0.201322 0.000152033 0)
(0.201265 0.000149774 0)
(0.201211 0.000146475 0)
(0.201161 0.000142404 0)
(0.201113 0.000137807 0)
(0.201068 0.000132893 0)
(0.201024 0.000127826 0)
(0.200982 0.000122728 0)
(0.200943 0.000117682 0)
(0.200904 0.000112744 0)
(0.200868 0.00010795 0)
(0.200833 0.00010332 0)
(0.200799 9.88642e-05 0)
(0.200767 9.45859e-05 0)
(0.200736 9.04843e-05 0)
(0.200706 8.65555e-05 0)
(0.200677 8.27943e-05 0)
(0.20065 7.91942e-05 0)
(0.200623 7.57487e-05 0)
(0.200598 7.24508e-05 0)
(0.200573 6.92937e-05 0)
(0.20055 6.62707e-05 0)
(0.200527 6.33753e-05 0)
(0.200505 6.06015e-05 0)
(0.200484 5.79433e-05 0)
(0.200464 5.53953e-05 0)
(0.200445 5.29523e-05 0)
(0.200426 5.06092e-05 0)
(0.200408 4.83616e-05 0)
(0.200391 4.62049e-05 0)
(0.200375 4.41351e-05 0)
(0.200359 4.21483e-05 0)
(0.200343 4.02408e-05 0)
(0.200329 3.84092e-05 0)
(0.200315 3.66501e-05 0)
(0.200301 3.49606e-05 0)
(0.200288 3.33375e-05 0)
(0.200276 3.17782e-05 0)
(0.200264 3.02799e-05 0)
(0.200252 2.88402e-05 0)
(0.200241 2.74565e-05 0)
(0.200231 2.61267e-05 0)
(0.200221 2.48485e-05 0)
(0.200211 2.36197e-05 0)
(0.200202 2.24383e-05 0)
(0.200193 2.13024e-05 0)
(0.200184 2.02101e-05 0)
(0.200176 1.91595e-05 0)
(0.200168 1.8149e-05 0)
(0.200161 1.71768e-05 0)
(0.200154 1.62412e-05 0)
(0.200147 1.53408e-05 0)
(0.200141 1.4474e-05 0)
(0.200135 1.36393e-05 0)
(0.200129 1.28355e-05 0)
(0.200124 1.20613e-05 0)
(0.200118 1.13154e-05 0)
(0.200114 1.0597e-05 0)
(0.200109 9.90527e-06 0)
(0.200105 9.23982e-06 0)
(0.200101 8.60078e-06 0)
(0.200097 7.98905e-06 0)
(0.200093 7.40652e-06 0)
(0.20009 6.85568e-06 0)
(0.200087 6.33673e-06 0)
(0.200083 5.83499e-06 0)
(0.197939 0.00544837 0)
(0.19843 0.00588123 0)
(0.199001 0.00620855 0)
(0.199624 0.00641716 0)
(0.200271 0.00650745 0)
(0.200916 0.00648529 0)
(0.20154 0.00635835 0)
(0.202126 0.00613585 0)
(0.20266 0.00582878 0)
(0.203131 0.00544944 0)
(0.203529 0.00501096 0)
(0.203848 0.00452731 0)
(0.204081 0.00401352 0)
(0.204225 0.00348596 0)
(0.204281 0.00296212 0)
(0.204252 0.00245982 0)
(0.204148 0.00199584 0)
(0.203983 0.00158395 0)
(0.203772 0.00123306 0)
(0.203534 0.000945998 0)
(0.203286 0.00072003 0)
(0.20304 0.000548613 0)
(0.202805 0.000423309 0)
(0.202588 0.000335216 0)
(0.202391 0.000275868 0)
(0.202216 0.000237773 0)
(0.20206 0.000214668 0)
(0.201924 0.000201568 0)
(0.201805 0.000194681 0)
(0.2017 0.000191255 0)
(0.201607 0.000189396 0)
(0.201524 0.000187878 0)
(0.20145 0.000185976 0)
(0.201383 0.000183325 0)
(0.201321 0.000179807 0)
(0.201263 0.000175464 0)
(0.201209 0.000170433 0)
(0.201159 0.00016489 0)
(0.201111 0.000159012 0)
(0.201065 0.000152958 0)
(0.201022 0.000146856 0)
(0.20098 0.000140803 0)
(0.20094 0.00013487 0)
(0.200902 0.000129101 0)
(0.200866 0.000123525 0)
(0.200831 0.000118157 0)
(0.200797 0.000113004 0)
(0.200765 0.000108065 0)
(0.200734 0.000103338 0)
(0.200704 9.88169e-05 0)
(0.200676 9.44931e-05 0)
(0.200648 9.03587e-05 0)
(0.200622 8.64054e-05 0)
(0.200596 8.26244e-05 0)
(0.200572 7.90073e-05 0)
(0.200549 7.55461e-05 0)
(0.200526 7.2233e-05 0)
(0.200504 6.90607e-05 0)
(0.200484 6.60221e-05 0)
(0.200463 6.31107e-05 0)
(0.200444 6.03204e-05 0)
(0.200426 5.76453e-05 0)
(0.200408 5.50799e-05 0)
(0.200391 5.26192e-05 0)
(0.200374 5.02582e-05 0)
(0.200358 4.79926e-05 0)
(0.200343 4.58179e-05 0)
(0.200328 4.37301e-05 0)
(0.200314 4.17255e-05 0)
(0.200301 3.98005e-05 0)
(0.200288 3.79515e-05 0)
(0.200275 3.61755e-05 0)
(0.200263 3.44693e-05 0)
(0.200252 3.283e-05 0)
(0.200241 3.12548e-05 0)
(0.20023 2.97411e-05 0)
(0.20022 2.82862e-05 0)
(0.200211 2.68879e-05 0)
(0.200201 2.55436e-05 0)
(0.200193 2.42512e-05 0)
(0.200184 2.30085e-05 0)
(0.200176 2.18135e-05 0)
(0.200168 2.06641e-05 0)
(0.200161 1.95584e-05 0)
(0.200154 1.84945e-05 0)
(0.200147 1.74706e-05 0)
(0.200141 1.64851e-05 0)
(0.200135 1.55362e-05 0)
(0.200129 1.46225e-05 0)
(0.200124 1.37423e-05 0)
(0.200118 1.28945e-05 0)
(0.200114 1.20778e-05 0)
(0.200109 1.12913e-05 0)
(0.200105 1.05344e-05 0)
(0.200101 9.80681e-06 0)
(0.200097 9.10913e-06 0)
(0.200093 8.44244e-06 0)
(0.20009 7.80787e-06 0)
(0.200087 7.20396e-06 0)
(0.200084 6.61793e-06 0)
(0.1982 0.00520696 0)
(0.198641 0.00558405 0)
(0.19915 0.00587392 0)
(0.199708 0.00606321 0)
(0.200291 0.00614905 0)
(0.200876 0.00613442 0)
(0.201445 0.00602503 0)
(0.201983 0.00582848 0)
(0.202475 0.00555415 0)
(0.202912 0.00521289 0)
(0.203283 0.00481656 0)
(0.203583 0.00437797 0)
(0.203806 0.00391088 0)
(0.203949 0.00343011 0)
(0.204012 0.00295125 0)
(0.204001 0.00248996 0)
(0.203921 0.00206081 0)
(0.203784 0.00167582 0)
(0.203605 0.00134296 0)
(0.203399 0.00106539 0)
(0.20318 0.000841661 0)
(0.20296 0.000666971 0)
(0.202747 0.000534644 0)
(0.202546 0.00043731 0)
(0.202363 0.000367734 0)
(0.202197 0.000319332 0)
(0.202048 0.000286453 0)
(0.201916 0.000264473 0)
(0.2018 0.000249778 0)
(0.201696 0.000239653 0)
(0.201605 0.000232153 0)
(0.201522 0.000225948 0)
(0.201448 0.000220185 0)
(0.20138 0.000214367 0)
(0.201318 0.000208247 0)
(0.20126 0.000201753 0)
(0.201206 0.00019492 0)
(0.201156 0.000187839 0)
(0.201108 0.000180623 0)
(0.201062 0.00017338 0)
(0.201019 0.000166204 0)
(0.200977 0.000159168 0)
(0.200938 0.000152323 0)
(0.2009 0.000145703 0)
(0.200863 0.000139329 0)
(0.200828 0.00013321 0)
(0.200795 0.000127348 0)
(0.200763 0.00012174 0)
(0.200732 0.000116379 0)
(0.200702 0.000111256 0)
(0.200674 0.000106362 0)
(0.200646 0.000101686 0)
(0.20062 9.72183e-05 0)
(0.200595 9.29478e-05 0)
(0.200571 8.88646e-05 0)
(0.200547 8.49594e-05 0)
(0.200525 8.12229e-05 0)
(0.200503 7.76465e-05 0)
(0.200482 7.42222e-05 0)
(0.200462 7.09424e-05 0)
(0.200443 6.77999e-05 0)
(0.200425 6.4788e-05 0)
(0.200407 6.19004e-05 0)
(0.20039 5.91312e-05 0)
(0.200373 5.6475e-05 0)
(0.200357 5.39264e-05 0)
(0.200342 5.14805e-05 0)
(0.200328 4.91329e-05 0)
(0.200314 4.68791e-05 0)
(0.2003 4.47151e-05 0)
(0.200287 4.26369e-05 0)
(0.200275 4.06409e-05 0)
(0.200263 3.87237e-05 0)
(0.200251 3.68818e-05 0)