/*--------------------------------*- C++ -*----------------------------------*\
| =========                 |                                                 |
| \\      /  F ield         | OpenFOAM: The Open Source CFD Toolbox           |
|  \\    /   O peration     | Version:  2.3.0                                 |
|   \\  /    A nd           | Web:      www.OpenFOAM.org                      |
|    \\/     M anipulation  |                                                 |
\*---------------------------------------------------------------------------*/
FoamFile
{
    version     2.0;
    format      ascii;
    class       volVectorField;
    location    "0.8";
    object      U;
}
// * * * * * * * * * * * * * * * * * * * * * * * * * * * * * * * * * * * * * //

dimensions      [0 1 -1 0 0 0 0];

internalField   nonuniform List<vector> 
3375
(
(0.175505 0.0058416 0)
(0.154971 0.00634173 0)
(0.134778 0.00622362 0)
(0.115506 0.00578494 0)
(0.0980011 0.00452518 0)
(0.0829647 0.00331626 0)
(0.0704937 0.0024498 0)
(0.0606828 0.00154679 0)
(0.0532164 0.000831942 0)
(0.0475756 0.000406035 0)
(0.0434383 0.000134116 0)
(0.0404585 2.36793e-05 0)
(0.0381887 9.35757e-06 0)
(0.0363611 -1.01612e-06 0)
(0.034934 -9.07938e-06 0)
(0.0337828 1.44089e-05 0)
(0.0327252 4.71342e-05 0)
(0.0317117 6.03841e-05 0)
(0.0307674 6.55487e-05 0)
(0.0298889 6.87684e-05 0)
(0.0290625 6.75883e-05 0)
(0.0282925 6.21668e-05 0)
(0.0275831 5.69219e-05 0)
(0.0269214 5.50356e-05 0)
(0.0262934 5.32609e-05 0)
(0.0256959 5.02139e-05 0)
(0.0251329 4.65957e-05 0)
(0.0246082 4.18009e-05 0)
(0.0241189 3.90364e-05 0)
(0.0236524 3.85116e-05 0)
(0.0232045 3.63725e-05 0)
(0.0227789 3.41239e-05 0)
(0.0223731 3.30296e-05 0)
(0.0219842 3.12221e-05 0)
(0.0216158 2.84529e-05 0)
(0.0212658 2.73923e-05 0)
(0.0209267 2.75771e-05 0)
(0.0205976 2.62581e-05 0)
(0.020284 2.40416e-05 0)
(0.0199868 2.25334e-05 0)
(0.0197014 2.17034e-05 0)
(0.0194273 2.02466e-05 0)
(0.0191663 1.8711e-05 0)
(0.018914 1.89252e-05 0)
(0.0186634 1.95895e-05 0)
(0.0184176 1.85969e-05 0)
(0.0181814 1.75634e-05 0)
(0.0179548 1.67082e-05 0)
(0.0177383 1.51899e-05 0)
(0.01753 1.49945e-05 0)
(0.0173252 1.53022e-05 0)
(0.0171245 1.45393e-05 0)
(0.0169319 1.35854e-05 0)
(0.0167453 1.33805e-05 0)
(0.0165637 1.28533e-05 0)
(0.0163886 1.19691e-05 0)
(0.0162184 1.19487e-05 0)
(0.016053 1.12204e-05 0)
(0.0158929 1.07549e-05 0)
(0.0157355 1.11302e-05 0)
(0.0155814 1.03094e-05 0)
(0.0154324 9.92955e-06 0)
(0.0152866 1.00335e-05 0)
(0.0151449 9.07658e-06 0)
(0.0150083 8.89209e-06 0)
(0.0148726 9.35973e-06 0)
(0.0147387 8.74826e-06 0)
(0.0146105 8.01975e-06 0)
(0.0144854 8.21258e-06 0)
(0.0143616 8.09277e-06 0)
(0.0142412 7.51625e-06 0)
(0.0141241 7.45962e-06 0)
(0.0140078 7.59605e-06 0)
(0.013894 7.10336e-06 0)
(0.0137843 6.67437e-06 0)
(0.013677 6.73937e-06 0)
(0.0135707 6.6628e-06 0)
(0.0134666 6.36151e-06 0)
(0.0133649 6.24698e-06 0)
(0.0132643 6.31775e-06 0)
(0.0131656 5.99374e-06 0)
(0.0130696 5.72236e-06 0)
(0.0129753 5.79625e-06 0)
(0.0128821 5.59964e-06 0)
(0.0127917 5.30333e-06 0)
(0.0127023 5.39756e-06 0)
(0.0126144 5.24143e-06 0)
(0.0125268 5.2563e-06 0)
(0.0124422 4.93816e-06 0)
(0.0123572 5.05071e-06 0)
(0.0122753 4.85278e-06 0)
(0.0121905 5.14828e-06 0)
(0.0121121 4.41575e-06 0)
(0.0120275 5.26457e-06 0)
(0.0119538 4.07487e-06 0)
(0.0118648 5.64807e-06 0)
(0.0118028 2.90136e-06 0)
(0.0117026 6.227e-06 0)
(0.0116722 3.00048e-07 0)
(0.0115366 1.05335e-05 0)
(0.191143 0.00829923 0)
(0.190683 0.0114243 0)
(0.188459 0.013058 0)
(0.183962 0.0125347 0)
(0.177452 0.0116248 0)
(0.169458 0.0102899 0)
(0.160827 0.00872804 0)
(0.152527 0.00731998 0)
(0.144827 0.00591633 0)
(0.137381 0.00458148 0)
(0.130187 0.00336501 0)
(0.123599 0.00256018 0)
(0.117819 0.00204865 0)
(0.112722 0.00160295 0)
(0.10823 0.00124104 0)
(0.104278 0.00106578 0)
(0.100692 0.000987254 0)
(0.0973703 0.000889546 0)
(0.09431 0.000801995 0)
(0.0915071 0.000740313 0)
(0.0889363 0.000686001 0)
(0.0865688 0.000628869 0)
(0.0843824 0.000577916 0)
(0.0823456 0.000541406 0)
(0.0804275 0.000510244 0)
(0.0786116 0.000479614 0)
(0.0769025 0.000447946 0)
(0.0752999 0.000412529 0)
(0.0737879 0.000386249 0)
(0.0723501 0.000370216 0)
(0.0709791 0.000349659 0)
(0.0696742 0.000329048 0)
(0.0684303 0.000313792 0)
(0.0672415 0.000297775 0)
(0.0661101 0.000278898 0)
(0.0650281 0.000265601 0)
(0.0639858 0.00025713 0)
(0.0629836 0.000244989 0)
(0.0620245 0.000230494 0)
(0.0611076 0.00021865 0)
(0.0602264 0.000209834 0)
(0.0593778 0.000199398 0)
(0.0585618 0.000188753 0)
(0.0577725 0.000184189 0)
(0.0570017 0.000181501 0)
(0.0562525 0.000173276 0)
(0.0555297 0.00016509 0)
(0.0548335 0.000158166 0)
(0.054163 0.000149385 0)
(0.0535133 0.000144737 0)
(0.0528813 0.000141869 0)
(0.0522667 0.000135998 0)
(0.0516732 0.000129591 0)
(0.0510979 0.000125719 0)
(0.0505391 0.000121027 0)
(0.0499975 0.00011545 0)
(0.0494702 0.000112815 0)
(0.0489587 0.000107927 0)
(0.0484606 0.000103984 0)
(0.047974 0.000102788 0)
(0.0475003 9.79913e-05 0)
(0.0470387 9.46957e-05 0)
(0.0465889 9.2944e-05 0)
(0.0461516 8.80108e-05 0)
(0.0457254 8.55675e-05 0)
(0.0453073 8.52266e-05 0)
(0.0448981 8.16061e-05 0)
(0.044501 7.76566e-05 0)
(0.0441131 7.66631e-05 0)
(0.0437328 7.47523e-05 0)
(0.0433618 7.15216e-05 0)
(0.0429994 6.99782e-05 0)
(0.042643 6.90345e-05 0)
(0.0422947 6.61118e-05 0)
(0.0419559 6.35227e-05 0)
(0.0416242 6.25439e-05 0)
(0.0412984 6.11409e-05 0)
(0.0409793 5.9089e-05 0)
(0.0406669 5.76354e-05 0)
(0.0403598 5.67798e-05 0)
(0.0400597 5.47345e-05 0)
(0.0397658 5.29367e-05 0)
(0.039478 5.21981e-05 0)
(0.0391949 5.06958e-05 0)
(0.0389186 4.89138e-05 0)
(0.0386461 4.84031e-05 0)
(0.0383796 4.70575e-05 0)
(0.0381155 4.63991e-05 0)
(0.0378593 4.46224e-05 0)
(0.0376034 4.43861e-05 0)
(0.0373563 4.29835e-05 0)
(0.0371049 4.34167e-05 0)
(0.036869 4.03351e-05 0)
(0.0366197 4.26885e-05 0)
(0.0363981 3.80599e-05 0)
(0.0361415 4.29137e-05 0)
(0.0359494 3.30576e-05 0)
(0.0356647 4.46864e-05 0)
(0.0355499 2.40571e-05 0)
(0.0351645 5.2705e-05 0)
(0.192099 0.0100096 0)
(0.192811 0.010241 0)
(0.194138 0.0115107 0)
(0.196024 0.0121345 0)
(0.196989 0.0121766 0)
(0.196032 0.0119981 0)
(0.19375 0.0109212 0)
(0.190997 0.00928418 0)
(0.188135 0.00844278 0)
(0.184815 0.0076947 0)
(0.180752 0.00665693 0)
(0.176312 0.0057847 0)
(0.171917 0.0050795 0)
(0.167594 0.00438403 0)
(0.163419 0.00372942 0)
(0.159559 0.003332 0)
(0.155987 0.00311049 0)
(0.152574 0.00287226 0)
(0.149218 0.00263778 0)
(0.145884 0.00241875 0)
(0.142635 0.00221385 0)
(0.13954 0.00202113 0)
(0.136627 0.001856 0)
(0.133879 0.0017327 0)
(0.131255 0.00162687 0)
(0.128716 0.00152437 0)
(0.126271 0.00142532 0)
(0.123948 0.00132519 0)
(0.121733 0.00124412 0)
(0.119605 0.00118326 0)
(0.117553 0.00111739 0)
(0.115577 0.00105413 0)
(0.113679 0.00100148 0)
(0.111856 0.000949667 0)
(0.110111 0.000896054 0)
(0.108434 0.000854522 0)
(0.106809 0.000820768 0)
(0.105239 0.000781136 0)
(0.103727 0.000739651 0)
(0.102274 0.000703677 0)
(0.100871 0.000674485 0)
(0.0995152 0.000643712 0)
(0.0982049 0.000612891 0)
(0.0969347 0.000593684 0)
(0.0956955 0.000579055 0)
(0.0944893 0.000554777 0)
(0.0933219 0.000530358 0)
(0.0921947 0.000508378 0)
(0.091104 0.000484099 0)
(0.0900424 0.000467958 0)
(0.0890095 0.000454683 0)
(0.0880038 0.00043647 0)
(0.0870284 0.000417974 0)
(0.086082 0.000404655 0)
(0.0851618 0.000389973 0)
(0.0842675 0.000373792 0)
(0.0833951 0.000363432 0)
(0.082548 0.000349265 0)
(0.0817216 0.000337336 0)
(0.0809136 0.000330154 0)
(0.0801275 0.00031654 0)
(0.0793592 0.000306235 0)
(0.07861 0.000298687 0)
(0.0778811 0.0002857 0)
(0.0771687 0.000277469 0)
(0.0764712 0.000272939 0)
(0.0757886 0.000262808 0)
(0.0751236 0.000252283 0)
(0.0744741 0.000247078 0)
(0.073838 0.000240314 0)
(0.073216 0.000231425 0)
(0.072608 0.000225709 0)
(0.0720113 0.00022116 0)
(0.0714275 0.000213043 0)
(0.070858 0.000205661 0)
(0.0703007 0.000201293 0)
(0.0697538 0.000196308 0)
(0.0692177 0.000190273 0)
(0.0686928 0.000185258 0)
(0.0681776 0.000181341 0)
(0.0676737 0.000175514 0)
(0.0671796 0.000170266 0)
(0.0666956 0.000166812 0)
(0.0662209 0.000162119 0)
(0.0657561 0.000157124 0)
(0.0652986 0.000154361 0)
(0.0648515 0.000150086 0)
(0.0644094 0.000147278 0)
(0.0639794 0.000142459 0)
(0.0635519 0.000140533 0)
(0.063138 0.000136437 0)
(0.0627208 0.000135819 0)
(0.062325 0.000128844 0)
(0.0619145 0.000131877 0)
(0.0615411 0.000122176 0)
(0.0611246 0.000129767 0)
(0.0607936 0.000111088 0)
(0.0603386 0.000130514 0)
(0.0601224 9.69901e-05 0)
(0.0594966 0.000135511 0)
(0.192656 0.00713061 0)
(0.193742 0.00882665 0)
(0.195317 0.0103323 0)
(0.196859 0.0110303 0)
(0.198153 0.0112937 0)
(0.199244 0.011327 0)
(0.200021 0.0110444 0)
(0.200675 0.00970003 0)
(0.200991 0.00842883 0)
(0.20047 0.0084488 0)
(0.199275 0.00761663 0)
(0.197718 0.00695985 0)
(0.195956 0.00652123 0)
(0.193843 0.00595674 0)
(0.191483 0.00527204 0)
(0.189196 0.00481824 0)
(0.187072 0.00453308 0)
(0.18506 0.00424904 0)
(0.183061 0.00406735 0)
(0.18092 0.00391808 0)
(0.178607 0.00372284 0)
(0.176188 0.00347536 0)
(0.173766 0.00322797 0)
(0.171434 0.00303801 0)
(0.169206 0.00289118 0)
(0.167004 0.00275514 0)
(0.164786 0.00261011 0)
(0.162592 0.00244831 0)
(0.160464 0.00231842 0)
(0.158394 0.00222437 0)
(0.156353 0.00212072 0)
(0.154324 0.0020194 0)
(0.152321 0.00192842 0)
(0.150361 0.00183315 0)
(0.148464 0.00173551 0)
(0.146627 0.00166375 0)
(0.144827 0.00160661 0)
(0.143055 0.00153563 0)
(0.14132 0.00146033 0)
(0.139635 0.00139425 0)
(0.137995 0.00133987 0)
(0.136395 0.00128409 0)
(0.134836 0.00122722 0)
(0.13331 0.00118778 0)
(0.131806 0.00115594 0)
(0.130327 0.0011095 0)
(0.128889 0.00106482 0)
(0.127501 0.00102447 0)
(0.126153 0.000979626 0)
(0.12483 0.000947974 0)
(0.123532 0.000921108 0)
(0.122256 0.000886178 0)
(0.121011 0.000849961 0)
(0.119798 0.000822595 0)
(0.118616 0.00079452 0)
(0.117463 0.000764283 0)
(0.116332 0.000742817 0)
(0.115231 0.000714513 0)
(0.114153 0.000691034 0)
(0.113094 0.000675759 0)
(0.112061 0.00064972 0)
(0.111049 0.000629176 0)
(0.110058 0.000612963 0)
(0.109091 0.000588243 0)
(0.108144 0.000571441 0)
(0.107215 0.000560542 0)
(0.106304 0.000541048 0)
(0.105412 0.000520918 0)
(0.104542 0.000509207 0)
(0.103688 0.000495337 0)
(0.102849 0.000478278 0)
(0.102028 0.000465987 0)
(0.101222 0.00045568 0)
(0.100431 0.000440197 0)
(0.0996585 0.000425955 0)
(0.098901 0.000416144 0)
(0.098157 0.000405533 0)
(0.0974265 0.000393614 0)
(0.0967101 0.000383228 0)
(0.0960064 0.000374454 0)
(0.0953173 0.000362961 0)
(0.0946405 0.000352446 0)
(0.0939765 0.00034477 0)
(0.0933254 0.000335135 0)
(0.0926865 0.000325374 0)
(0.0920575 0.00031883 0)
(0.0914421 0.000310075 0)
(0.0908345 0.00030365 0)
(0.0902414 0.000294376 0)
(0.0896538 0.000289281 0)
(0.0890824 0.000281317 0)
(0.0885104 0.00027824 0)
(0.0879624 0.000266101 0)
(0.0874022 0.000268513 0)
(0.0868821 0.000252967 0)
(0.0863193 0.000261229 0)
(0.0858501 0.000235188 0)
(0.0852419 0.000256545 0)
(0.0849217 0.00021879 0)
(0.0840699 0.000254834 0)
(0.193823 0.00668923 0)
(0.194685 0.00816093 0)
(0.195747 0.00945353 0)
(0.196977 0.0102254 0)
(0.198096 0.011122 0)
(0.199375 0.0108175 0)
(0.200462 0.0105848 0)
(0.201243 0.00920088 0)
(0.20224 0.00838563 0)
(0.202835 0.00791758 0)
(0.202717 0.00792869 0)
(0.202616 0.0072978 0)
(0.202424 0.00702108 0)
(0.201777 0.00662491 0)
(0.20078 0.00598135 0)
(0.199854 0.00555003 0)
(0.199041 0.0051953 0)
(0.198316 0.00486411 0)
(0.197672 0.00469896 0)
(0.196901 0.00462612 0)
(0.195892 0.00454121 0)
(0.194655 0.00438493 0)
(0.193269 0.00415731 0)
(0.191874 0.00392841 0)
(0.190554 0.00375288 0)
(0.189254 0.00363092 0)
(0.187885 0.00351482 0)
(0.18644 0.00334355 0)
(0.184986 0.00318836 0)
(0.183563 0.00308597 0)
(0.182144 0.00297743 0)
(0.180688 0.00287885 0)
(0.179179 0.00279077 0)
(0.177629 0.00268018 0)
(0.176088 0.00254712 0)
(0.174591 0.00244744 0)
(0.173118 0.00238225 0)
(0.171638 0.0023044 0)
(0.170144 0.00221116 0)
(0.168654 0.00212319 0)
(0.167183 0.00204983 0)
(0.165733 0.00197247 0)
(0.164311 0.00189657 0)
(0.16291 0.00185047 0)
(0.161496 0.00181312 0)
(0.160057 0.00174483 0)
(0.158627 0.00167439 0)
(0.157244 0.00161337 0)
(0.155915 0.00155001 0)
(0.154612 0.00150766 0)
(0.153315 0.00147296 0)
(0.152014 0.00142609 0)
(0.150717 0.0013728 0)
(0.149442 0.00132925 0)
(0.148193 0.00128547 0)
(0.14697 0.00124057 0)
(0.145762 0.00121023 0)
(0.144577 0.00116727 0)
(0.14341 0.00113061 0)
(0.142257 0.00110675 0)
(0.141121 0.00106703 0)
(0.140001 0.00103604 0)
(0.138899 0.00101081 0)
(0.137818 0.000972434 0)
(0.136755 0.000945943 0)
(0.135707 0.000928203 0)
(0.134671 0.000898073 0)
(0.133652 0.000866283 0)
(0.132656 0.000846873 0)
(0.131677 0.000825043 0)
(0.130711 0.000798575 0)
(0.129759 0.000778745 0)
(0.128821 0.000761556 0)
(0.127899 0.000736687 0)
(0.126993 0.000714161 0)
(0.126104 0.000698215 0)
(0.125227 0.000680881 0)
(0.124364 0.000661541 0)
(0.123514 0.000644501 0)
(0.122678 0.000629885 0)
(0.121857 0.000611596 0)
(0.121048 0.000594354 0)
(0.120252 0.000581361 0)
(0.11947 0.000565428 0)
(0.118701 0.00054991 0)
(0.117941 0.000538359 0)
(0.117196 0.000524017 0)
(0.116461 0.000512814 0)
(0.115739 0.000498007 0)
(0.115026 0.000488258 0)
(0.114329 0.000475819 0)
(0.113633 0.000468776 0)
(0.112961 0.000450921 0)
(0.112281 0.000450658 0)
(0.111638 0.000430083 0)
(0.110958 0.000435018 0)
(0.11037 0.000405757 0)
(0.109637 0.000421111 0)
(0.109228 0.000387381 0)
(0.108185 0.000412299 0)
(0.194748 0.00675998 0)
(0.195196 0.00770144 0)
(0.196035 0.00913638 0)
(0.197204 0.0100218 0)
(0.19823 0.0101163 0)
(0.199376 0.0105468 0)
(0.200472 0.010006 0)
(0.201136 0.00841902 0)
(0.201852 0.0085384 0)
(0.202688 0.00823107 0)
(0.202854 0.00730782 0)
(0.202913 0.00713876 0)
(0.202985 0.0068137 0)
(0.202754 0.00704769 0)
(0.202449 0.00610433 0)
(0.202279 0.00548134 0)
(0.202094 0.00526209 0)
(0.20196 0.00481369 0)
(0.201925 0.00471988 0)
(0.201803 0.0047678 0)
(0.201531 0.00480892 0)
(0.201109 0.00473899 0)
(0.200556 0.00456573 0)
(0.199959 0.00433828 0)
(0.199405 0.00414226 0)
(0.19887 0.00402875 0)
(0.198271 0.00396615 0)
(0.197574 0.00382756 0)
(0.196838 0.00367031 0)
(0.196122 0.00356585 0)
(0.195413 0.00346639 0)
(0.194672 0.00339332 0)
(0.193854 0.00333917 0)
(0.192936 0.00326124 0)
(0.19197 0.00313069 0)
(0.191024 0.00301327 0)
(0.190107 0.0029358 0)
(0.189177 0.00286638 0)
(0.188206 0.00278585 0)
(0.187201 0.00269669 0)
(0.186176 0.00262577 0)
(0.185139 0.00254221 0)
(0.184118 0.0024433 0)
(0.183131 0.00239246 0)
(0.182129 0.00237918 0)
(0.181052 0.00232619 0)
(0.17991 0.00224655 0)
(0.178768 0.0021585 0)
(0.177677 0.00206801 0)
(0.176636 0.00201587 0)
(0.175617 0.00198258 0)
(0.174573 0.00194017 0)
(0.173492 0.00188593 0)
(0.172392 0.00183515 0)
(0.171296 0.00177797 0)
(0.170217 0.00171845 0)
(0.169148 0.00168239 0)
(0.168091 0.00162894 0)
(0.167043 0.00158467 0)
(0.165997 0.00155772 0)
(0.164953 0.00150616 0)
(0.163911 0.00146724 0)
(0.162875 0.00143609 0)
(0.161851 0.00138488 0)
(0.160837 0.00135077 0)
(0.159832 0.00132962 0)
(0.158826 0.00129131 0)
(0.157826 0.00124798 0)
(0.156843 0.00122044 0)
(0.155877 0.00119174 0)
(0.154918 0.00115748 0)
(0.153964 0.00113117 0)
(0.153018 0.00110838 0)
(0.152081 0.00107469 0)
(0.151157 0.00104347 0)
(0.150245 0.00102115 0)
(0.149342 0.000997815 0)
(0.148446 0.000971623 0)
(0.147561 0.00094789 0)
(0.146686 0.000927186 0)
(0.145823 0.000902191 0)
(0.144969 0.00087824 0)
(0.144125 0.000860151 0)
(0.143293 0.000837201 0)
(0.142471 0.000816284 0)
(0.141656 0.000799436 0)
(0.140851 0.000779112 0)
(0.140055 0.000762544 0)
(0.13927 0.00074244 0)
(0.138495 0.000726747 0)
(0.137731 0.000710478 0)
(0.136971 0.000697721 0)
(0.136228 0.000675356 0)
(0.135482 0.000669628 0)
(0.134767 0.00064669 0)
(0.134019 0.0006436 0)
(0.133359 0.000616247 0)
(0.13255 0.000619174 0)
(0.132085 0.000594927 0)
(0.130918 0.000603772 0)
(0.195215 0.00617634 0)
(0.195553 0.00714281 0)
(0.196422 0.00809172 0)
(0.197498 0.00944617 0)
(0.198409 0.00924169 0)
(0.199372 0.00988515 0)
(0.200442 0.00963126 0)
(0.201063 0.00839201 0)
(0.201423 0.0079205 0)
(0.202151 0.00750354 0)
(0.202666 0.00728935 0)
(0.202673 0.00708253 0)
(0.202702 0.00698485 0)
(0.20263 0.00673973 0)
(0.202685 0.00609481 0)
(0.202707 0.00588497 0)
(0.202623 0.00527387 0)
(0.202592 0.00489003 0)
(0.202589 0.004782 0)
(0.202561 0.00478027 0)
(0.202497 0.00486884 0)
(0.202423 0.00487583 0)
(0.202302 0.00472859 0)
(0.202152 0.00449931 0)
(0.202016 0.0042828 0)
(0.201866 0.00416275 0)
(0.201657 0.00413934 0)
(0.20137 0.0040345 0)
(0.201076 0.00389006 0)
(0.200822 0.00376993 0)
(0.200575 0.00366042 0)
(0.200308 0.00362841 0)
(0.199985 0.00360594 0)
(0.199569 0.00354702 0)
(0.199086 0.00343632 0)
(0.198608 0.00332743 0)
(0.19816 0.00324293 0)
(0.197713 0.00317387 0)
(0.197226 0.00311528 0)
(0.196703 0.00304059 0)
(0.196153 0.00297404 0)
(0.195566 0.00289365 0)
(0.19497 0.00279034 0)
(0.194424 0.0027319 0)
(0.1939 0.00273178 0)
(0.193301 0.00271261 0)
(0.192588 0.00267024 0)
(0.191811 0.00258399 0)
(0.191046 0.00246145 0)
(0.190343 0.00238533 0)
(0.189698 0.00234891 0)
(0.189051 0.00231643 0)
(0.188353 0.00227639 0)
(0.187598 0.00223971 0)
(0.186807 0.00218392 0)
(0.186009 0.00211559 0)
(0.185214 0.00207629 0)
(0.184429 0.00201293 0)
(0.183653 0.00196456 0)
(0.182873 0.00194281 0)
(0.18208 0.00188814 0)
(0.181274 0.00184789 0)
(0.180459 0.00181758 0)
(0.17964 0.00175732 0)
(0.178824 0.00171723 0)
(0.178012 0.00169734 0)
(0.177185 0.00165818 0)
(0.176346 0.00160872 0)
(0.175513 0.00157474 0)
(0.174693 0.00153962 0)
(0.173877 0.00150024 0)
(0.17306 0.00147178 0)
(0.172238 0.00144685 0)
(0.171415 0.00140699 0)
(0.170598 0.00137026 0)
(0.169787 0.0013436 0)
(0.168977 0.00131571 0)
(0.168166 0.00128447 0)
(0.167358 0.00125619 0)
(0.166555 0.00123113 0)
(0.165758 0.00120082 0)
(0.164966 0.0011708 0)
(0.164177 0.00114964 0)
(0.163397 0.0011203 0)
(0.162622 0.00109563 0)
(0.161849 0.00107506 0)
(0.161077 0.00105073 0)
(0.160309 0.00102863 0)
(0.159547 0.0010045 0)
(0.158792 0.00098213 0)
(0.158045 0.000964695 0)
(0.157299 0.00094492 0)
(0.156563 0.00092062 0)
(0.155825 0.00090729 0)
(0.155108 0.000885509 0)
(0.154364 0.000871123 0)
(0.153696 0.000849889 0)
(0.152885 0.000837485 0)
(0.152412 0.000825233 0)
(0.151223 0.000816863 0)
(0.19572 0.00587566 0)
(0.196076 0.00675414 0)
(0.196826 0.00762265 0)
(0.197749 0.00904648 0)
(0.198549 0.00863316 0)
(0.199341 0.00951653 0)
(0.20031 0.00942149 0)
(0.200885 0.00784049 0)
(0.201141 0.00761291 0)
(0.201903 0.00740224 0)
(0.202383 0.00699823 0)
(0.202311 0.00699513 0)
(0.202332 0.00707495 0)
(0.20249 0.00681604 0)
(0.20266 0.00606736 0)
(0.202679 0.00576639 0)
(0.202711 0.00526781 0)
(0.202661 0.00488326 0)
(0.202569 0.0047746 0)
(0.202524 0.00482644 0)
(0.202486 0.00488108 0)
(0.202435 0.00484398 0)
(0.202438 0.0047382 0)
(0.2025 0.00447984 0)
(0.202521 0.0043021 0)
(0.202479 0.0042155 0)
(0.202386 0.00423348 0)
(0.202254 0.00410794 0)
(0.202146 0.00393382 0)
(0.202073 0.00381941 0)
(0.202012 0.0037035 0)
(0.201949 0.00368225 0)
(0.201851 0.0037182 0)
(0.201696 0.00369025 0)
(0.2015 0.00355881 0)
(0.201302 0.00344571 0)
(0.201115 0.00336981 0)
(0.200933 0.0033147 0)
(0.200725 0.00325955 0)
(0.200496 0.00319897 0)
(0.200269 0.00316342 0)
(0.200017 0.00307973 0)
(0.199738 0.002945 0)
(0.199497 0.00287748 0)
(0.199304 0.00289692 0)
(0.199067 0.00290868 0)
(0.198719 0.00290719 0)
(0.198277 0.00284867 0)
(0.197813 0.00271721 0)
(0.197398 0.00260526 0)
(0.197063 0.00255221 0)
(0.196761 0.00253148 0)
(0.196425 0.00250787 0)
(0.196028 0.0024918 0)
(0.195567 0.00245181 0)
(0.19507 0.00238778 0)
(0.194565 0.00235061 0)
(0.194068 0.00227739 0)
(0.19359 0.00222524 0)
(0.193116 0.00220827 0)
(0.192627 0.00215522 0)
(0.192117 0.00212105 0)
(0.191587 0.00209892 0)
(0.191038 0.00203734 0)
(0.190486 0.00199539 0)
(0.189937 0.00197888 0)
(0.189368 0.0019439 0)
(0.188772 0.00189486 0)
(0.188168 0.00186015 0)
(0.18757 0.00182194 0)
(0.186977 0.00177836 0)
(0.186382 0.00174969 0)
(0.185775 0.00172722 0)
(0.185155 0.00168505 0)
(0.184534 0.00164624 0)
(0.183915 0.00161923 0)
(0.183291 0.00159117 0)
(0.182658 0.00155811 0)
(0.182018 0.00152781 0)
(0.181375 0.0015008 0)
(0.180731 0.00146844 0)
(0.180089 0.00143398 0)
(0.179444 0.00141183 0)
(0.178803 0.00137764 0)
(0.178165 0.00135177 0)
(0.177525 0.00132894 0)
(0.176878 0.00130473 0)
(0.176226 0.00128003 0)
(0.175569 0.00125442 0)
(0.174915 0.00122468 0)
(0.174265 0.00120893 0)
(0.173615 0.00118264 0)
(0.172966 0.00115974 0)
(0.172313 0.00113857 0)
(0.171672 0.0011207 0)
(0.171005 0.00109501 0)
(0.170401 0.00108177 0)
(0.169666 0.00105526 0)
(0.169239 0.00105461 0)
(0.168145 0.00103189 0)
(0.196291 0.00575176 0)
(0.196597 0.00633272 0)
(0.197148 0.00718998 0)
(0.197906 0.00854914 0)
(0.198614 0.00824716 0)
(0.199253 0.0088162 0)
(0.200128 0.00894957 0)
(0.200816 0.00736992 0)
(0.20104 0.00738158 0)
(0.201589 0.00733627 0)
(0.202099 0.00680066 0)
(0.202046 0.00682735 0)
(0.202073 0.00703421 0)
(0.202353 0.00673627 0)
(0.202558 0.0061127 0)
(0.202624 0.00549936 0)
(0.202689 0.00526644 0)
(0.202629 0.00499516 0)
(0.20244 0.00486192 0)
(0.202327 0.00486274 0)
(0.202328 0.00488611 0)
(0.202328 0.0048528 0)
(0.202406 0.00470327 0)
(0.202535 0.00442394 0)
(0.202544 0.00429904 0)
(0.202504 0.00421681 0)
(0.202436 0.00428107 0)
(0.202363 0.00414393 0)
(0.202319 0.00397452 0)
(0.202268 0.00384155 0)
(0.20222 0.00371106 0)
(0.202217 0.00371702 0)
(0.202201 0.00371931 0)
(0.202137 0.00375301 0)
(0.202066 0.00365289 0)
(0.202016 0.00350065 0)
(0.201948 0.00338478 0)
(0.201857 0.00336581 0)
(0.20174 0.00333648 0)
(0.201625 0.00325061 0)
(0.201546 0.00321028 0)
(0.201471 0.00316489 0)
(0.201376 0.00302974 0)
(0.2013 0.0029184 0)
(0.201263 0.00293048 0)
(0.201195 0.00297931 0)
(0.201041 0.00303341 0)
(0.200816 0.00299063 0)
(0.20057 0.0028544 0)
(0.200355 0.00271243 0)
(0.200216 0.00262545 0)
(0.200123 0.00260495 0)
(0.200013 0.00260736 0)
(0.199858 0.002623 0)
(0.19964 0.00260039 0)
(0.199378 0.00254586 0)
(0.199096 0.00251402 0)
(0.198816 0.00242717 0)
(0.198564 0.00236954 0)
(0.198331 0.0023578 0)
(0.19809 0.00230738 0)
(0.197834 0.00227864 0)
(0.197555 0.00226726 0)
(0.197248 0.0022084 0)
(0.196935 0.0021669 0)
(0.196627 0.00215713 0)
(0.196301 0.00213201 0)
(0.195943 0.00208744 0)
(0.195568 0.00205315 0)
(0.195192 0.00201325 0)
(0.194823 0.00196967 0)
(0.194457 0.00194393 0)
(0.19408 0.00192464 0)
(0.193683 0.00188211 0)
(0.193279 0.00184327 0)
(0.192875 0.00181706 0)
(0.192466 0.00179227 0)
(0.192045 0.00176246 0)
(0.191611 0.00173412 0)
(0.191165 0.00170759 0)
(0.190713 0.00167588 0)
(0.190258 0.00163921 0)
(0.189798 0.0016179 0)
(0.18934 0.00157931 0)
(0.188883 0.0015547 0)
(0.188425 0.00153142 0)
(0.187958 0.00150963 0)
(0.18748 0.00148642 0)
(0.186985 0.00146378 0)
(0.186485 0.00142835 0)
(0.185984 0.00141578 0)
(0.185482 0.00138391 0)
(0.184977 0.00136472 0)
(0.184467 0.00133882 0)
(0.183958 0.00132569 0)
(0.183425 0.00129194 0)
(0.18294 0.00128592 0)
(0.182344 0.00124958 0)
(0.182004 0.00125759 0)
(0.181104 0.00122646 0)
(0.196721 0.00574588 0)
(0.196986 0.00602578 0)
(0.197416 0.0067464 0)
(0.197989 0.00808275 0)
(0.198618 0.00774359 0)
(0.199221 0.00817412 0)
(0.200018 0.00865917 0)
(0.200734 0.00727463 0)
(0.200962 0.00707486 0)
(0.201326 0.00688502 0)
(0.201796 0.00681952 0)
(0.201817 0.00683935 0)
(0.201907 0.00696153 0)
(0.20226 0.00648257 0)
(0.202524 0.00590413 0)
(0.202549 0.00558736 0)
(0.202557 0.00539141 0)
(0.202476 0.00509375 0)
(0.202296 0.00485825 0)
(0.202196 0.00484517 0)
(0.202201 0.00490064 0)
(0.202262 0.00481327 0)
(0.202416 0.00459268 0)
(0.202478 0.00444201 0)
(0.202448 0.00430153 0)
(0.202432 0.00423434 0)
(0.202387 0.0043493 0)
(0.202344 0.00415368 0)
(0.202317 0.00399954 0)
(0.202251 0.00386623 0)
(0.202196 0.00372578 0)
(0.202203 0.00369594 0)
(0.202192 0.00376083 0)
(0.202155 0.00376121 0)
(0.202147 0.00361458 0)
(0.202135 0.0035284 0)
(0.202083 0.00345557 0)
(0.202015 0.00339674 0)
(0.201936 0.00338971 0)
(0.201873 0.00325881 0)
(0.201832 0.00324656 0)
(0.201814 0.00314584 0)
(0.201795 0.00303406 0)
(0.201778 0.00294414 0)
(0.201782 0.00294927 0)
(0.201761 0.00299728 0)
(0.201668 0.00309726 0)
(0.20155 0.00308049 0)
(0.201447 0.00294052 0)
(0.201354 0.00276254 0)
(0.201311 0.00264732 0)
(0.201308 0.00261518 0)
(0.201295 0.00261736 0)
(0.201248 0.00266395 0)
(0.201151 0.00267159 0)
(0.201024 0.00263431 0)
(0.20088 0.00260807 0)
(0.200734 0.00250548 0)
(0.200618 0.00243431 0)
(0.200526 0.0024155 0)
(0.200433 0.00237372 0)
(0.200334 0.0023564 0)
(0.200216 0.00235376 0)
(0.200072 0.00229749 0)
(0.199923 0.0022535 0)
(0.199784 0.00224557 0)
(0.19963 0.0022319 0)
(0.199445 0.00219791 0)
(0.19924 0.00217065 0)
(0.19903 0.00212651 0)
(0.198831 0.00207339 0)
(0.198645 0.00205239 0)
(0.19845 0.00204362 0)
(0.198235 0.00200408 0)
(0.19801 0.00196543 0)
(0.197784 0.00193785 0)
(0.197555 0.00191463 0)
(0.19732 0.00188971 0)
(0.197073 0.00186653 0)
(0.19681 0.00184357 0)
(0.196535 0.00181509 0)
(0.196252 0.00177783 0)
(0.195963 0.00175895 0)
(0.195676 0.00171614 0)
(0.195393 0.00169128 0)
(0.195113 0.00166834 0)
(0.194826 0.00165047 0)
(0.194528 0.00163212 0)
(0.194208 0.00161526 0)
(0.193874 0.00157821 0)
(0.193535 0.00156984 0)
(0.193192 0.00153422 0)
(0.192846 0.00151764 0)
(0.192494 0.00149115 0)
(0.192139 0.00148227 0)
(0.19176 0.00144585 0)
(0.191415 0.0014445 0)
(0.190985 0.00140363 0)
(0.190747 0.00141541 0)
(0.190092 0.00138275 0)
(0.197095 0.00557402 0)
(0.197275 0.00570982 0)
(0.197615 0.00638308 0)
(0.19809 0.00762873 0)
(0.198706 0.00741273 0)
(0.199298 0.00780252 0)
(0.199968 0.00814861 0)
(0.200576 0.00718608 0)
(0.200813 0.00674156 0)
(0.201174 0.00679174 0)
(0.201653 0.00669492 0)
(0.20161 0.00667446 0)
(0.201665 0.0067772 0)
(0.202117 0.00641997 0)
(0.202488 0.00572508 0)
(0.20249 0.00554703 0)
(0.202438 0.00536335 0)
(0.202301 0.00517322 0)
(0.202137 0.00498376 0)
(0.202104 0.00492686 0)
(0.202148 0.00486321 0)
(0.20227 0.00472088 0)
(0.202373 0.00456556 0)
(0.202356 0.00445261 0)
(0.202339 0.00424467 0)
(0.202323 0.00432575 0)
(0.202286 0.00430303 0)
(0.202293 0.00416911 0)
(0.202278 0.00407095 0)
(0.202199 0.00386815 0)
(0.20215 0.00374098 0)
(0.202143 0.00373402 0)
(0.202109 0.00374184 0)
(0.20211 0.00372669 0)
(0.20214 0.00366853 0)
(0.202114 0.00355237 0)
(0.202062 0.00343699 0)
(0.202021 0.003429 0)
(0.201972 0.00341708 0)
(0.201916 0.00330069 0)
(0.20187 0.00326057 0)
(0.201843 0.00316958 0)
(0.201848 0.003055 0)
(0.20185 0.00293779 0)
(0.201838 0.00294737 0)
(0.201807 0.00304151 0)
(0.201738 0.00312004 0)
(0.201678 0.00309759 0)
(0.201653 0.00297293 0)
(0.201621 0.00276238 0)
(0.201612 0.00265373 0)
(0.201624 0.00261915 0)
(0.201635 0.00263633 0)
(0.201621 0.00267901 0)
(0.201568 0.00268982 0)
(0.2015 0.00266682 0)
(0.201421 0.00265701 0)
(0.20135 0.00254969 0)
(0.20131 0.00246537 0)
(0.201284 0.00242963 0)
(0.201255 0.00237761 0)
(0.201222 0.0023732 0)
(0.201174 0.00238992 0)
(0.20111 0.00233355 0)
(0.201052 0.00229308 0)
(0.201009 0.00228503 0)
(0.200951 0.00227821 0)
(0.200864 0.00225136 0)
(0.200756 0.00222845 0)
(0.200643 0.00219213 0)
(0.200545 0.00212945 0)
(0.200472 0.00209667 0)
(0.200394 0.00209331 0)
(0.200293 0.00206417 0)
(0.200183 0.00203251 0)
(0.200071 0.00200402 0)
(0.19996 0.00197787 0)
(0.199851 0.00195559 0)
(0.199736 0.00193781 0)
(0.199606 0.00191948 0)
(0.199464 0.00189602 0)
(0.19931 0.00185989 0)
(0.199146 0.00184296 0)
(0.198983 0.00179776 0)
(0.19883 0.00177135 0)
(0.198683 0.00174576 0)
(0.198536 0.00172943 0)
(0.198383 0.00171878 0)
(0.198208 0.00170812 0)
(0.198017 0.00167408 0)
(0.197816 0.00167034 0)
(0.197609 0.00163361 0)
(0.197398 0.00161796 0)
(0.197184 0.00159368 0)
(0.196965 0.00158649 0)
(0.196725 0.00155251 0)
(0.196507 0.00155233 0)
(0.196231 0.00151172 0)
(0.196084 0.00152232 0)
(0.195665 0.00149342 0)
(0.197418 0.0056502 0)
(0.197603 0.00542884 0)
(0.197894 0.00606692 0)
(0.198261 0.00719149 0)
(0.198762 0.00717132 0)
(0.199321 0.00734284 0)
(0.199967 0.00755214 0)
(0.20051 0.00701035 0)
(0.200661 0.00649623 0)
(0.201003 0.00661603 0)
(0.201486 0.00664373 0)
(0.201427 0.00661499 0)
(0.201523 0.00647824 0)
(0.202042 0.00609769 0)
(0.202366 0.0057353 0)
(0.202323 0.00557018 0)
(0.202263 0.00540736 0)
(0.20215 0.00525265 0)
(0.202041 0.00501625 0)
(0.202061 0.00488862 0)
(0.202171 0.00476658 0)
(0.202246 0.00468057 0)
(0.202236 0.00455454 0)
(0.202238 0.00443984 0)
(0.20225 0.00435738 0)
(0.202214 0.00429777 0)
(0.202183 0.00428314 0)
(0.202202 0.00419191 0)
(0.202192 0.00408114 0)
(0.20214 0.00392243 0)
(0.202101 0.00377859 0)
(0.202071 0.00372691 0)
(0.202041 0.00375292 0)
(0.202062 0.0037256 0)
(0.202084 0.00366769 0)
(0.202056 0.00354906 0)
(0.202031 0.00349041 0)
(0.20201 0.00348061 0)
(0.201956 0.00348369 0)
(0.20192 0.00327257 0)
(0.201883 0.0033007 0)
(0.20182 0.0031242 0)
(0.201815 0.00304283 0)
(0.201824 0.0029858 0)
(0.201801 0.00295231 0)
(0.201758 0.00304899 0)
(0.201704 0.00319872 0)
(0.201676 0.00307307 0)
(0.201673 0.00296571 0)
(0.201653 0.0027783 0)
(0.201645 0.00266409 0)
(0.201669 0.00261178 0)
(0.201686 0.0026086 0)
(0.201659 0.00272184 0)
(0.201607 0.00271971 0)
(0.201569 0.00270913 0)
(0.201532 0.00266615 0)
(0.201501 0.00253438 0)
(0.201501 0.00247528 0)
(0.201492 0.00244646 0)
(0.201475 0.00240675 0)
(0.201461 0.00238162 0)
(0.201433 0.00241098 0)
(0.201401 0.00235441 0)
(0.201387 0.00228694 0)
(0.201382 0.00228959 0)
(0.201359 0.00229462 0)
(0.201312 0.00228361 0)
(0.201257 0.00226731 0)
(0.201197 0.00221422 0)
(0.201149 0.00215134 0)
(0.201128 0.00211671 0)
(0.201106 0.00211271 0)
(0.201062 0.002086 0)
(0.201012 0.0020593 0)
(0.200959 0.00203591 0)
(0.200908 0.00200511 0)
(0.200866 0.00198104 0)
(0.200826 0.00196695 0)
(0.200775 0.00195519 0)
(0.200713 0.00193724 0)
(0.200639 0.00190505 0)
(0.200552 0.0018888 0)
(0.200463 0.00184007 0)
(0.200386 0.00181174 0)
(0.200319 0.00178364 0)
(0.200257 0.00176499 0)
(0.200195 0.00176161 0)
(0.200117 0.00175438 0)
(0.200025 0.00172551 0)
(0.199923 0.00172725 0)
(0.199811 0.00169179 0)
(0.199695 0.00167523 0)
(0.199578 0.00165648 0)
(0.199455 0.00164793 0)
(0.199317 0.00162011 0)
(0.199192 0.00161801 0)
(0.199032 0.0015786 0)
(0.198952 0.00158475 0)