/*--------------------------------*- C++ -*----------------------------------*\
| =========                 |                                                 |
| \\      /  F ield         | OpenFOAM: The Open Source CFD Toolbox           |
|  \\    /   O peration     | Version:  2.3.0                                 |
|   \\  /    A nd           | Web:      www.OpenFOAM.org                      |
|    \\/     M anipulation  |                                                 |
\*---------------------------------------------------------------------------*/
FoamFile
{
    version     2.0;
    format      ascii;
    class       surfaceScalarField;
    location    "0.7";
    object      phi_0;
}
// * * * * * * * * * * * * * * * * * * * * * * * * * * * * * * * * * * * * * //

dimensions      [0 3 -1 0 0 0 0];

internalField   nonuniform List<scalar> 
11667
(
2.25817e-08
2.21209e-09
-2.47937e-08
1.98976e-08
2.68408e-09
1.72288e-08
2.66877e-09
1.47759e-08
2.45285e-09
1.25733e-08
2.2026e-09
1.06662e-08
1.90717e-09
9.10168e-09
1.56449e-09
7.88048e-09
1.2212e-09
6.96912e-09
9.11364e-10
6.30838e-09
6.60735e-10
5.83324e-09
4.75149e-10
5.48661e-09
3.46629e-10
5.22446e-09
2.62151e-10
5.01548e-09
2.08975e-10
4.8387e-09
1.76778e-10
4.68141e-09
1.57291e-10
4.53682e-09
1.44593e-10
4.40175e-09
1.35063e-10
4.27493e-09
1.26827e-10
4.15583e-09
1.19094e-10
4.04419e-09
1.1164e-10
3.93971e-09
1.04485e-10
3.84199e-09
9.77179e-11
3.75057e-09
9.14217e-11
3.66493e-09
8.56426e-11
3.58454e-09
8.03876e-11
3.5089e-09
7.56341e-11
3.43756e-09
7.13417e-11
3.3701e-09
6.74619e-11
3.30616e-09
6.39457e-11
3.24541e-09
6.07466e-11
3.18759e-09
5.78236e-11
3.13244e-09
5.5141e-11
3.07978e-09
5.26687e-11
3.02939e-09
5.03813e-11
2.98114e-09
4.82577e-11
2.93486e-09
4.62801e-11
2.89042e-09
4.44337e-11
2.84772e-09
4.27057e-11
2.80663e-09
4.10853e-11
2.76707e-09
3.95628e-11
2.72894e-09
3.81302e-11
2.69216e-09
3.67799e-11
2.65665e-09
3.55056e-11
2.62235e-09
3.43013e-11
2.58919e-09
3.31617e-11
2.55711e-09
3.2082e-11
2.52605e-09
3.10579e-11
2.49596e-09
3.00854e-11
2.4668e-09
2.9161e-11
2.43852e-09
2.82812e-11
2.41108e-09
2.74431e-11
2.38444e-09
2.6644e-11
2.35855e-09
2.58813e-11
2.3334e-09
2.51527e-11
2.30895e-09
2.44562e-11
2.28516e-09
2.37896e-11
2.262e-09
2.31514e-11
2.23946e-09
2.25397e-11
2.21751e-09
2.19532e-11
2.19612e-09
2.13902e-11
2.17527e-09
2.08496e-11
2.15494e-09
2.03301e-11
2.13511e-09
1.98307e-11
2.11576e-09
1.93501e-11
2.09687e-09
1.88877e-11
2.07843e-09
1.84421e-11
2.06042e-09
1.80129e-11
2.04282e-09
1.75988e-11
2.02562e-09
1.71996e-11
2.00881e-09
1.68141e-11
1.99236e-09
1.64421e-11
1.97628e-09
1.60824e-11
1.96055e-09
1.57351e-11
1.94515e-09
1.53989e-11
1.93007e-09
1.50741e-11
1.91531e-09
1.47593e-11
1.90086e-09
1.4455e-11
1.8867e-09
1.41597e-11
1.87282e-09
1.38741e-11
1.85923e-09
1.35966e-11
1.8459e-09
1.33282e-11
1.83283e-09
1.30669e-11
1.82002e-09
1.28142e-11
1.80745e-09
1.25679e-11
1.79512e-09
1.23297e-11
1.78302e-09
1.2097e-11
1.77115e-09
1.18721e-11
1.7595e-09
1.16518e-11
1.74806e-09
1.14393e-11
1.73683e-09
1.12305e-11
1.7258e-09
1.10293e-11
1.71497e-09
1.08309e-11
1.70433e-09
1.06402e-11
1.69388e-09
1.04514e-11
1.68361e-09
1.02706e-11
1.67352e-09
1.00905e-11
1.6636e-09
9.9189e-12
1.65385e-09
9.74671e-12
1.64427e-09
9.58379e-12
1.63485e-09
9.41871e-12
1.62559e-09
9.26402e-12
1.61648e-09
9.10533e-12
1.60752e-09
8.95849e-12
1.59872e-09
8.80547e-12
1.59005e-09
8.66626e-12
1.58153e-09
8.51821e-12
1.57315e-09
8.38647e-12
1.5649e-09
8.24265e-12
1.55678e-09
8.11838e-12
1.54881e-09
7.978e-12
1.54095e-09
7.86132e-12
1.53322e-09
7.72353e-12
1.52561e-09
7.61474e-12
1.51813e-09
7.47867e-12
1.51075e-09
7.37824e-12
1.50351e-09
7.24291e-12
1.49636e-09
7.15152e-12
1.48934e-09
7.0158e-12
1.48241e-09
6.93444e-12
1.47561e-09
6.79698e-12
1.46888e-09
6.727e-12
1.4623e-09
6.58619e-12
1.45577e-09
6.52932e-12
1.44938e-09
6.3833e-12
1.44304e-09
6.34172e-12
1.43685e-09
6.18826e-12
1.43069e-09
6.1648e-12
1.42469e-09
6.00107e-12
1.41869e-09
5.99946e-12
1.41287e-09
5.8219e-12
1.40702e-09
5.84686e-12
1.40137e-09
5.65111e-12
1.39566e-09
5.70864e-12
1.39017e-09
5.48923e-12
1.38458e-09
5.58707e-12
1.37925e-09
5.33685e-12
1.37376e-09
5.48524e-12
1.36857e-09
5.19487e-12
1.36316e-09
5.40739e-12
1.35809e-09
5.06459e-12
1.35273e-09
5.35952e-12
1.34779e-09
4.94759e-12
1.34244e-09
5.35068e-12
1.33759e-09
4.8459e-12
1.33219e-09
5.39576e-12
1.32743e-09
4.76284e-12
1.3219e-09
5.53109e-12
1.31716e-09
4.73845e-12
6.55322e-12
2.68333e-08
1.97263e-09
-2.65939e-08
2.67187e-08
2.79876e-09
2.62058e-08
3.18163e-09
2.54554e-08
3.20328e-09
2.45676e-08
3.09043e-09
2.35733e-08
2.90139e-09
2.24985e-08
2.63935e-09
2.13952e-08
2.32444e-09
2.03143e-08
1.99226e-09
1.92925e-08
1.68257e-09
1.83484e-08
1.41924e-09
1.74877e-08
1.20733e-09
1.67097e-08
1.04011e-09
1.60112e-08
9.07514e-10
1.53847e-08
8.03302e-10
1.48215e-08
7.20429e-10
1.43132e-08
6.52904e-10
1.3852e-08
5.96325e-10
1.34311e-08
5.47744e-10
1.30449e-08
5.05275e-10
1.26888e-08
4.67717e-10
1.2359e-08
4.34273e-10
1.20523e-08
4.04379e-10
1.17662e-08
3.77604e-10
1.14982e-08
3.5359e-10
1.12466e-08
3.32015e-10
1.10096e-08
3.12592e-10
1.07859e-08
2.95055e-10
1.05742e-08
2.7917e-10
1.03734e-08
2.64728e-10
1.01826e-08
2.51547e-10
1.0001e-08
2.39473e-10
9.82775e-09
2.2837e-10
9.6623e-09
2.18125e-10
9.50404e-09
2.08642e-10
9.35246e-09
1.99836e-10
9.2071e-09
1.91639e-10
9.06754e-09
1.8399e-10
8.93341e-09
1.76835e-10
8.80437e-09
1.70131e-10
8.68009e-09
1.63836e-10
8.56031e-09
1.57917e-10
8.44475e-09
1.5234e-10
8.33317e-09
1.4708e-10
8.22536e-09
1.42111e-10
8.12112e-09
1.3741e-10
8.02024e-09
1.32957e-10
7.92257e-09
1.28734e-10
7.82793e-09
1.24724e-10
7.73618e-09
1.20912e-10
7.64717e-09
1.17285e-10
7.56079e-09
1.1383e-10
7.47689e-09
1.10535e-10
7.39538e-09
1.07391e-10
7.31615e-09
1.04386e-10
7.23909e-09
1.01514e-10
7.16412e-09
9.87647e-11
7.09114e-09
9.61321e-11
7.02007e-09
9.36087e-11
6.95083e-09
9.11885e-11
6.88336e-09
8.88652e-11
6.81757e-09
8.66341e-11
6.75342e-09
8.44893e-11
6.69082e-09
8.24271e-11
6.62973e-09
8.04422e-11
6.57008e-09
7.85314e-11
6.51184e-09
7.669e-11
6.45493e-09
7.49156e-11
6.39933e-09
7.32037e-11
6.34497e-09
7.15523e-11
6.29183e-09
6.99574e-11
6.23986e-09
6.84174e-11
6.18901e-09
6.69286e-11
6.13926e-09
6.54899e-11
6.09056e-09
6.40974e-11
6.04288e-09
6.27508e-11
5.99619e-09
6.1446e-11
5.95046e-09
6.01834e-11
5.90567e-09
5.89586e-11
5.86177e-09
5.77726e-11
5.81874e-09
5.6621e-11
5.77657e-09
5.55052e-11
5.73521e-09
5.44204e-11
5.69466e-09
5.3369e-11
5.65488e-09
5.23455e-11
5.61586e-09
5.13533e-11
5.57757e-09
5.03859e-11
5.53999e-09
4.9448e-11
5.50311e-09
4.85322e-11
5.46691e-09
4.76444e-11
5.43136e-09
4.67757e-11
5.39646e-09
4.59341e-11
5.36218e-09
4.51088e-11
5.32851e-09
4.43099e-11
5.29544e-09
4.35243e-11
5.26294e-09
4.2765e-11
5.23102e-09
4.20159e-11
5.19964e-09
4.12934e-11
5.16881e-09
4.05776e-11
5.1385e-09
3.98894e-11
5.10872e-09
3.9204e-11
5.07944e-09
3.85479e-11
5.05065e-09
3.78901e-11
5.02234e-09
3.72643e-11
4.99452e-09
3.66315e-11
4.96715e-09
3.60344e-11
4.94024e-09
3.54242e-11
4.91378e-09
3.48546e-11
4.88775e-09
3.42645e-11
4.86215e-09
3.37215e-11
4.83698e-09
3.31491e-11
4.81221e-09
3.26323e-11
4.78786e-09
3.2075e-11
4.76389e-09
3.15843e-11
4.74033e-09
3.10397e-11
4.71713e-09
3.05755e-11
4.69433e-09
3.00409e-11
4.67188e-09
2.96042e-11
4.64982e-09
2.9077e-11
4.62808e-09
2.86694e-11
4.60673e-09
2.81462e-11
4.58569e-09
2.77703e-11
4.56503e-09
2.72477e-11
4.54465e-09
2.69068e-11
4.52465e-09
2.63808e-11
4.50492e-09
2.60794e-11
4.48556e-09
2.55455e-11
4.46644e-09
2.52893e-11
4.44769e-09
2.4742e-11
4.42916e-09
2.45387e-11
4.41101e-09
2.39713e-11
4.39302e-09
2.38308e-11
4.37544e-09
2.32354e-11
4.35798e-09
2.31701e-11
4.34093e-09
2.25372e-11
4.32395e-09
2.25627e-11
4.30741e-09
2.18804e-11
4.29088e-09
2.20172e-11
4.2748e-09
2.12708e-11
4.25866e-09
2.1545e-11
4.24301e-09
2.07168e-11
4.22721e-09
2.11615e-11
4.21193e-09
2.02308e-11
4.19639e-09
2.08883e-11
4.1814e-09
1.98325e-11
4.16604e-09
2.07565e-11
4.15124e-09
1.95616e-11
4.13593e-09
2.08405e-11
4.12104e-09
1.9632e-11
2.24e-11
2.78635e-08
1.85987e-09
-2.77507e-08
2.81737e-08
2.48856e-09
2.83968e-08
2.95853e-09
2.84649e-08
3.13524e-09
2.84209e-08
3.13437e-09
2.82725e-08
3.04976e-09
2.80089e-08
2.90297e-09
2.76355e-08
2.69786e-09
2.71741e-08
2.45369e-09
2.66538e-08
2.2028e-09
2.61005e-08
1.97255e-09
2.55325e-08
1.77533e-09
2.4962e-08
1.61066e-09
2.43965e-08
1.47302e-09
2.38421e-08
1.35768e-09
2.33026e-08
1.25992e-09
2.27801e-08
1.17543e-09
2.22756e-08
1.10082e-09
2.17896e-08
1.03375e-09
2.13222e-08
9.72657e-10
2.08733e-08
9.16585e-10
2.04427e-08
8.64903e-10
2.00299e-08
8.17172e-10
1.96344e-08
7.73071e-10
1.92557e-08
7.32329e-10
1.8893e-08
6.94691e-10
1.85457e-08
6.59912e-10
1.8213e-08
6.27754e-10
1.78942e-08
5.97992e-10
1.75885e-08
5.70413e-10
1.72952e-08
5.44818e-10
1.70137e-08
5.21027e-10
1.67432e-08
4.98875e-10
1.64831e-08
4.78214e-10
1.62328e-08
4.58909e-10
1.59918e-08
4.40842e-10
1.57595e-08
4.23906e-10
1.55355e-08
4.08004e-10
1.53193e-08
3.9305e-10
1.51105e-08
3.78968e-10
1.49086e-08
3.65688e-10
1.47134e-08
3.53146e-10
1.45244e-08
3.41288e-10
1.43415e-08
3.3006e-10
1.41641e-08
3.19418e-10
1.39922e-08
3.09318e-10
1.38255e-08
2.99722e-10
1.36636e-08
2.90596e-10
1.35064e-08
2.81907e-10
1.33537e-08
2.73627e-10
1.32053e-08
2.65728e-10
1.30609e-08
2.58186e-10
1.29205e-08
2.50979e-10
1.27838e-08
2.44085e-10
1.26507e-08
2.37486e-10
1.2521e-08
2.31165e-10
1.23947e-08
2.25105e-10
1.22715e-08
2.19291e-10
1.21514e-08
2.13709e-10
1.20343e-08
2.08346e-10
1.19199e-08
2.03191e-10
1.18083e-08
1.98232e-10
1.16994e-08
1.9346e-10
1.15929e-08
1.88863e-10
1.14889e-08
1.84434e-10
1.13873e-08
1.80164e-10
1.1288e-08
1.76045e-10
1.11908e-08
1.7207e-10
1.10958e-08
1.68231e-10
1.10028e-08
1.64523e-10
1.09118e-08
1.60939e-10
1.08228e-08
1.57473e-10
1.07356e-08
1.5412e-10
1.06502e-08
1.50876e-10
1.05666e-08
1.47733e-10
1.04846e-08
1.4469e-10
1.04043e-08
1.4174e-10
1.03256e-08
1.38881e-10
1.02485e-08
1.36107e-10
1.01728e-08
1.33417e-10
1.00986e-08
1.30804e-10
1.00259e-08
1.28268e-10
9.9545e-09
1.25803e-10
9.88446e-09
1.2341e-10
9.81573e-09
1.2108e-10
9.74826e-09
1.18817e-10
9.68204e-09
1.16612e-10
9.61701e-09
1.1447e-10
9.55317e-09
1.1238e-10
9.49046e-09
1.10349e-10
9.42887e-09
1.08364e-10
9.36837e-09
1.06435e-10
9.30894e-09
1.04547e-10
9.25053e-09
1.02713e-10
9.19314e-09
1.00914e-10
9.13674e-09
9.91673e-11
9.08131e-09
9.74506e-11
9.02681e-09
9.57853e-11
8.97325e-09
9.4144e-11
8.92058e-09
9.25542e-11
8.8688e-09
9.0982e-11
8.81789e-09
8.94625e-11
8.76783e-09
8.79536e-11
8.71859e-09
8.65e-11
8.67017e-09
8.50489e-11
8.62255e-09
8.36571e-11
8.57572e-09
8.22588e-11
8.52965e-09
8.09255e-11
8.48433e-09
7.95751e-11
8.43976e-09
7.82975e-11
8.39592e-09
7.69901e-11
8.35278e-09
7.57662e-11
8.31036e-09
7.44971e-11
8.26862e-09
7.33256e-11
8.22757e-09
7.20904e-11
8.18717e-09
7.09706e-11
8.14745e-09
6.9765e-11
8.10836e-09
6.8697e-11
8.06992e-09
6.75164e-11
8.03209e-09
6.65015e-11
7.99489e-09
6.53412e-11
7.95828e-09
6.4382e-11
7.92229e-09
6.32369e-11
7.88686e-09
6.2337e-11
7.85204e-09
6.12021e-11
7.81775e-09
6.03667e-11
7.78406e-09
5.92365e-11
7.75088e-09
5.84725e-11
7.71828e-09
5.73407e-11
7.68616e-09
5.66576e-11
7.65461e-09
5.55173e-11
7.62352e-09
5.49271e-11
7.59298e-09
5.37706e-11
7.56286e-09
5.32882e-11
7.53329e-09
5.21077e-11
7.5041e-09
5.17516e-11
7.47545e-09
5.05379e-11
7.44713e-09
5.03313e-11
7.41933e-09
4.90755e-11
7.39183e-09
4.90464e-11
7.3648e-09
4.77418e-11
7.33804e-09
4.79218e-11
7.3117e-09
4.65682e-11
7.2856e-09
4.69913e-11
7.25983e-09
4.56045e-11
7.23428e-09
4.63032e-11
7.2089e-09
4.494e-11
7.18375e-09
4.59981e-11
7.15848e-09
4.49018e-11
4.74667e-11
2.88742e-08
1.81435e-09
-2.88287e-08
2.91005e-08
2.26232e-09
2.93924e-08
2.6666e-09
2.96339e-08
2.89369e-09
2.98172e-08
2.95107e-09
2.99516e-08
2.91545e-09
3.00278e-08
2.82678e-09
3.00324e-08
2.69323e-09
2.99622e-08
2.5239e-09
2.98266e-08
2.33835e-09
2.96407e-08
2.15853e-09
2.94179e-08
1.99813e-09
2.91677e-08
1.86086e-09
2.88963e-08
1.74442e-09
2.86089e-08
1.64503e-09
2.83097e-08
1.55912e-09
2.80016e-08
1.48353e-09
2.76868e-08
1.41567e-09
2.73669e-08
1.35363e-09
2.70434e-08
1.2961e-09
2.67178e-08
1.24225e-09
2.63911e-08
1.19155e-09
2.60646e-08
1.14368e-09
2.57393e-08
1.09842e-09
2.5416e-08
1.0556e-09
2.50956e-08
1.01508e-09
2.47788e-08
9.76736e-10
2.44661e-08
9.40435e-10
2.41581e-08
9.0605e-10
2.3855e-08
8.7346e-10
2.35573e-08
8.42551e-10
2.32651e-08
8.13213e-10
2.29786e-08
7.85346e-10
2.2698e-08
7.58857e-10
2.24232e-08
7.33659e-10
2.21544e-08
7.09673e-10
2.18915e-08
6.86826e-10
2.16344e-08
6.6505e-10
2.13832e-08
6.44283e-10
2.11377e-08
6.24465e-10
2.08978e-08
6.05543e-10
2.06635e-08
5.87467e-10
2.04346e-08
5.70188e-10
2.0211e-08
5.53662e-10
1.99926e-08
5.37847e-10
1.97792e-08
5.22705e-10
1.95707e-08
5.08198e-10
1.9367e-08
4.94293e-10
1.9168e-08
4.80956e-10
1.89735e-08
4.68159e-10
1.87833e-08
4.55871e-10
1.85974e-08
4.44066e-10
1.84157e-08
4.32719e-10
1.8238e-08
4.21808e-10
1.80641e-08
4.11308e-10
1.78941e-08
4.012e-10
1.77278e-08
3.91465e-10
1.7565e-08
3.82083e-10
1.74056e-08
3.73038e-10
1.72497e-08
3.64314e-10
1.7097e-08
3.55894e-10
1.69474e-08
3.47766e-10
1.6801e-08
3.39915e-10
1.66575e-08
3.32329e-10
1.65169e-08
3.24995e-10
1.63792e-08
3.17903e-10
1.62442e-08
3.11041e-10
1.61119e-08
3.044e-10
1.59821e-08
2.97969e-10
1.58549e-08
2.91741e-10
1.57302e-08
2.85705e-10
1.56078e-08
2.79855e-10
1.54877e-08
2.74181e-10
1.53699e-08
2.68678e-10
1.52543e-08
2.63336e-10
1.51409e-08
2.58153e-10
1.50295e-08
2.53117e-10
1.49201e-08
2.48227e-10
1.48128e-08
2.43474e-10
1.47073e-08
2.38854e-10
1.46038e-08
2.34361e-10
1.4502e-08
2.29991e-10
1.44021e-08
2.25737e-10
1.43039e-08
2.21598e-10
1.42074e-08
2.17565e-10
1.41126e-08
2.1364e-10
1.40194e-08
2.09811e-10
1.39278e-08
2.06083e-10
1.38377e-08
2.02443e-10
1.37492e-08
1.98897e-10
1.36621e-08
1.95432e-10
1.35765e-08
1.92055e-10
1.34923e-08
1.88751e-10
1.34095e-08
1.85531e-10
1.3328e-08
1.82376e-10
1.32479e-08
1.79301e-10
1.31691e-08
1.76284e-10
1.30915e-08
1.73344e-10
1.30152e-08
1.70454e-10
1.29401e-08
1.6764e-10
1.28662e-08
1.64866e-10
1.27935e-08
1.62169e-10
1.2722e-08
1.59504e-10
1.26515e-08
1.56915e-10
1.25822e-08
1.54349e-10
1.2514e-08
1.51863e-10
1.24469e-08
1.49388e-10
1.23808e-08
1.46997e-10
1.23158e-08
1.44606e-10
1.22518e-08
1.42306e-10
1.21888e-08
1.39991e-10
1.21268e-08
1.37777e-10
1.20657e-08
1.35532e-10
1.20057e-08
1.334e-10
1.19465e-08
1.31218e-10
1.18884e-08
1.29166e-10
1.18311e-08
1.27041e-10
1.17747e-08
1.25068e-10
1.17192e-08
1.22994e-10
1.16646e-08
1.21098e-10
1.16109e-08
1.1907e-10
1.1558e-08
1.17253e-10
1.1506e-08
1.15266e-10
1.14548e-08
1.1353e-10
1.14044e-08
1.11577e-10
1.13549e-08
1.09928e-10
1.13061e-08
1.08005e-10
1.12581e-08
1.06446e-10
1.12109e-08
1.0455e-10
1.11645e-08
1.03091e-10
1.11188e-08
1.01216e-10
1.10738e-08
9.9867e-11
1.10296e-08
9.80114e-11
1.09861e-08
9.67849e-11
1.09433e-08
9.49476e-11
1.09012e-08
9.38591e-11
1.08597e-08
9.20416e-11
1.08189e-08
9.11096e-11
1.07786e-08
8.93185e-11
1.07391e-08
8.85629e-11
1.07e-08
8.68149e-11
1.06617e-08
8.6255e-11
1.06237e-08
8.45839e-11
1.05865e-08
8.42364e-11
1.05494e-08
8.27032e-11
1.05131e-08
8.25883e-11
1.04767e-08
8.12975e-11
1.04412e-08
8.15464e-11
1.04053e-08
8.07385e-11
8.23804e-11
2.99029e-08
1.76595e-09
-2.98545e-08
3.00593e-08
2.1059e-09
3.02999e-08
2.42608e-09
3.05426e-08
2.65097e-09
3.07515e-08
2.74218e-09
3.093e-08
2.73692e-09
3.10801e-08
2.67668e-09
3.1193e-08
2.58028e-09
3.12606e-08
2.4563e-09
3.12829e-08
2.31607e-09
3.1267e-08
2.1744e-09
3.12217e-08
2.04344e-09
3.11536e-08
1.92904e-09
3.10667e-08
1.83126e-09
3.09643e-08
1.74748e-09
3.08485e-08
1.67486e-09
3.07211e-08
1.61092e-09
3.05832e-08
1.55362e-09
3.04354e-08
1.50139e-09
3.02785e-08
1.45303e-09
3.0113e-08
1.40775e-09
2.99395e-08
1.36501e-09
2.97587e-08
1.32445e-09
2.95713e-08
1.28583e-09
2.93779e-08
1.24898e-09
2.91793e-08
1.21376e-09
2.89759e-08
1.18006e-09
2.87686e-08
1.14776e-09
2.85579e-08
1.11678e-09
2.83443e-08
1.08702e-09
2.81285e-08
1.05839e-09
2.79109e-08
1.03084e-09
2.76919e-08
1.00429e-09
2.74721e-08
9.78679e-10
2.72518e-08
9.53958e-10
2.70314e-08
9.3008e-10
2.68112e-08
9.07002e-10
2.65916e-08
8.84687e-10
2.63728e-08
8.63101e-10
2.6155e-08
8.42212e-10
2.59386e-08
8.21992e-10
2.57236e-08
8.02415e-10
2.55103e-08
7.83456e-10
2.52989e-08
7.65091e-10
2.50895e-08
7.47299e-10
2.48821e-08
7.3006e-10
2.46769e-08
7.13352e-10
2.44741e-08
6.97157e-10
2.42736e-08
6.81457e-10
2.40755e-08
6.66235e-10
2.38799e-08
6.51473e-10
2.36868e-08
6.37155e-10
2.34963e-08
6.23265e-10
2.33083e-08
6.09789e-10
2.31229e-08
5.96712e-10
2.29401e-08
5.8402e-10
2.27598e-08
5.717e-10
2.25822e-08
5.59738e-10
2.24071e-08
5.48122e-10
2.22346e-08
5.36841e-10
2.20646e-08
5.25881e-10
2.18971e-08
5.15234e-10
2.17321e-08
5.04886e-10
2.15696e-08
4.94829e-10
2.14096e-08
4.85051e-10
2.12519e-08
4.75544e-10
2.10967e-08
4.66297e-10
2.09438e-08
4.57303e-10
2.07932e-08
4.48552e-10
2.06449e-08
4.40037e-10
2.04989e-08
4.31748e-10
2.0355e-08
4.23678e-10
2.02134e-08
4.1582e-10
2.00739e-08
4.08167e-10
1.99365e-08
4.00711e-10
1.98012e-08
3.93447e-10
1.9668e-08
3.86366e-10
1.95368e-08
3.79464e-10
1.94075e-08
3.72733e-10
1.92802e-08
3.66169e-10
1.91548e-08
3.59766e-10
1.90312e-08
3.53517e-10
1.89096e-08
3.47418e-10
1.87897e-08
3.41465e-10
1.86716e-08
3.35651e-10
1.85553e-08
3.29972e-10
1.84407e-08
3.24423e-10
1.83278e-08
3.19002e-10
1.82165e-08
3.137e-10
1.81069e-08
3.08518e-10
1.79989e-08
3.03447e-10
1.78924e-08
2.98488e-10
1.77875e-08
2.93632e-10
1.76842e-08
2.88882e-10
1.75823e-08
2.84226e-10
1.7482e-08
2.7967e-10
1.73831e-08
2.752e-10
1.72856e-08
2.70825e-10
1.71895e-08
2.66529e-10
1.70948e-08
2.62323e-10
1.70015e-08
2.58188e-10
1.69095e-08
2.5414e-10
1.68189e-08
2.50153e-10
1.67295e-08
2.46252e-10
1.66415e-08
2.42405e-10
1.65547e-08
2.38642e-10
1.64692e-08
2.34923e-10
1.63849e-08
2.31288e-10
1.63018e-08
2.27689e-10
1.62199e-08
2.24175e-10
1.61392e-08
2.20685e-10
1.60597e-08
2.17286e-10
1.59814e-08
2.13898e-10
1.59042e-08
2.10607e-10
1.58281e-08
2.07314e-10
1.57531e-08
2.04126e-10
1.56792e-08
2.0092e-10
1.56065e-08
1.97831e-10
1.55347e-08
1.94707e-10
1.54641e-08
1.91714e-10
1.53945e-08
1.88667e-10
1.5326e-08
1.85768e-10
1.52585e-08
1.82793e-10
1.5192e-08
1.79988e-10
1.51265e-08
1.77082e-10
1.50621e-08
1.74371e-10
1.49986e-08
1.71534e-10
1.49361e-08
1.6892e-10
1.48745e-08
1.6615e-10
1.48139e-08
1.63638e-10
1.47542e-08
1.60938e-10
1.46955e-08
1.58532e-10
1.46376e-08
1.55908e-10
1.45808e-08
1.53615e-10
1.45247e-08
1.5108e-10
1.44696e-08
1.48906e-10
1.44152e-08
1.46476e-10
1.43619e-08
1.44431e-10
1.43091e-08
1.42134e-10
1.42574e-08
1.40227e-10
1.42061e-08
1.38106e-10
1.4156e-08
1.36342e-10
1.41061e-08
1.34461e-10
1.40575e-08
1.32854e-10
1.40089e-08
1.313e-10
1.39616e-08
1.29888e-10
1.39142e-08
1.28775e-10
1.38679e-08
1.27761e-10
1.38214e-08
1.27284e-10
1.2749e-10
3.09306e-08
1.71011e-09
-3.08747e-08
3.1053e-08
1.98344e-09
3.12427e-08
2.23642e-09
3.14555e-08
2.43815e-09
3.16525e-08
2.54523e-09
3.18247e-08
2.56471e-09
3.19748e-08
2.52651e-09
3.21011e-08
2.45399e-09
3.21985e-08
2.35894e-09
3.2265e-08
2.24954e-09
3.2304e-08
2.13539e-09
3.23215e-08
2.026e-09
3.23229e-08
1.92767e-09
3.23119e-08
1.84222e-09
3.22909e-08
1.76845e-09
3.22615e-08
1.70429e-09
3.22246e-08
1.6478e-09
3.21809e-08
1.59738e-09
3.21305e-08
1.55174e-09
3.20737e-08
1.50988e-09
3.20104e-08
1.47104e-09
3.19407e-08
1.4347e-09
3.18647e-08
1.40046e-09
3.17825e-08
1.36806e-09
3.16942e-08
1.33726e-09
3.16e-08
1.30792e-09
3.15002e-08
1.27989e-09
3.13949e-08
1.25305e-09
3.12844e-08
1.22728e-09
3.11689e-08
1.20248e-09
3.10488e-08
1.17858e-09
3.09241e-08
1.15548e-09
3.07953e-08
1.13312e-09
3.06625e-08
1.11144e-09
3.05261e-08
1.09038e-09
3.03863e-08
1.06991e-09
3.02433e-08
1.04998e-09
3.00974e-08
1.03055e-09
2.99489e-08
1.01159e-09
2.97981e-08
9.93094e-10
2.9645e-08
9.75022e-10
2.94901e-08
9.57359e-10
2.93335e-08
9.40089e-10
2.91753e-08
9.23197e-10
2.9016e-08
9.06669e-10
2.88555e-08
8.90494e-10
2.86942e-08
8.74661e-10
2.85322e-08
8.59161e-10
2.83697e-08
8.43984e-10
2.82068e-08
8.29123e-10
2.80437e-08
8.14569e-10
2.78806e-08
8.00317e-10
2.77175e-08
7.86358e-10
2.75546e-08
7.72686e-10
2.7392e-08
7.59296e-10
2.72298e-08
7.46182e-10
2.70682e-08
7.33338e-10
2.69072e-08
7.20759e-10
2.67468e-08
7.0844e-10
2.65873e-08
6.96374e-10
2.64286e-08
6.84558e-10
2.62709e-08
6.72986e-10
2.61141e-08
6.61653e-10
2.59584e-08
6.50555e-10
2.58038e-08
6.39687e-10
2.56503e-08
6.29043e-10
2.54979e-08
6.18619e-10
2.53468e-08
6.08411e-10
2.5197e-08
5.98414e-10
2.50484e-08
5.88623e-10
2.49011e-08
5.79034e-10
2.47551e-08
5.69642e-10
2.46105e-08
5.60443e-10
2.44672e-08
5.51432e-10
2.43253e-08
5.42607e-10
2.41848e-08
5.33959e-10
2.40457e-08
5.25489e-10
2.3908e-08
5.17188e-10
2.37717e-08
5.09056e-10
2.36367e-08
5.01084e-10
2.35032e-08
4.93274e-10
2.33711e-08
4.85616e-10
2.32404e-08
4.78111e-10
2.31112e-08
4.7075e-10
2.29833e-08
4.63536e-10
2.28568e-08
4.56456e-10
2.27317e-08
4.49517e-10
2.2608e-08
4.42704e-10
2.24857e-08
4.36024e-10
2.23647e-08
4.29464e-10
2.22451e-08
4.2303e-10
2.21269e-08
4.16706e-10
2.20101e-08
4.10504e-10
2.18945e-08
4.04405e-10
2.17803e-08
3.98422e-10
2.16675e-08
3.92533e-10
2.15559e-08
3.86756e-10
2.14457e-08
3.81065e-10
2.13367e-08
3.75481e-10
2.12291e-08
3.69977e-10
2.11227e-08
3.64575e-10
2.10176e-08
3.59245e-10
2.09137e-08
3.54013e-10
2.08111e-08
3.48847e-10
2.07098e-08
3.43775e-10
2.06096e-08
3.38761e-10
2.05107e-08
3.3384e-10
2.0413e-08
3.28968e-10
2.03165e-08
3.24188e-10
2.02213e-08
3.19451e-10
2.01271e-08
3.14803e-10
2.00342e-08
3.1019e-10
1.99425e-08
3.05668e-10
1.98519e-08
3.01172e-10
1.97624e-08
2.96768e-10
1.96742e-08
2.92381e-10
1.9587e-08
2.88091e-10
1.9501e-08
2.83807e-10
1.94161e-08
2.79626e-10
1.93324e-08
2.75438e-10
1.92497e-08
2.71364e-10
1.91682e-08
2.67269e-10
1.90877e-08
2.63299e-10
1.90084e-08
2.59291e-10
1.893e-08
2.55429e-10
1.88529e-08
2.51504e-10
1.87767e-08
2.47754e-10
1.87017e-08
2.4391e-10
1.86276e-08
2.40279e-10
1.85547e-08
2.36513e-10
1.84826e-08
2.33012e-10
1.84118e-08
2.29323e-10
1.83418e-08
2.2597e-10
1.8273e-08
2.22356e-10
1.82049e-08
2.19179e-10
1.81382e-08
2.15637e-10
1.8072e-08
2.12669e-10
1.80072e-08
2.092e-10
1.79429e-08
2.06488e-10
1.788e-08
2.03092e-10
1.78174e-08
2.007e-10
1.77564e-08
1.97383e-10
1.76955e-08
1.95391e-10
1.76361e-08
1.92178e-10
1.75768e-08
1.9068e-10
1.7519e-08
1.87648e-10
1.7461e-08
1.86749e-10
1.74046e-08
1.84156e-10
1.73479e-08
1.84019e-10
1.82465e-10
3.19649e-08
1.65145e-09
-3.19063e-08
3.2069e-08
1.87939e-09
3.22211e-08
2.08427e-09
3.24015e-08
2.25774e-09
3.25797e-08
2.3671e-09
3.27397e-08
2.40468e-09
3.28795e-08
2.38674e-09
3.29994e-08
2.33406e-09
3.30978e-08
2.26053e-09
3.31732e-08
2.17412e-09
3.3227e-08
2.08158e-09
3.32632e-08
1.98985e-09
3.32863e-08
1.90454e-09
3.33001e-08
1.82844e-09
3.33068e-08
1.76166e-09
3.33081e-08
1.703e-09
3.33049e-08
1.65104e-09
3.32978e-08
1.60453e-09
3.3287e-08
1.56246e-09
3.32729e-08
1.52404e-09
3.32553e-08
1.48864e-09
3.32342e-08
1.45578e-09
3.32096e-08
1.42507e-09
3.31814e-08
1.39625e-09
3.31495e-08
1.3691e-09
3.3114e-08
1.34343e-09
3.30749e-08
1.31908e-09
3.3032e-08
1.29594e-09
3.29854e-08
1.27388e-09
3.29351e-08
1.25278e-09
3.28811e-08
1.23255e-09
3.28235e-08
1.21311e-09
3.27622e-08
1.19437e-09
3.26974e-08
1.17627e-09
3.2629e-08
1.15874e-09
3.25572e-08
1.14173e-09
3.2482e-08
1.12518e-09
3.24035e-08
1.10907e-09
3.23217e-08
1.09334e-09
3.22368e-08
1.07798e-09
3.21489e-08
1.06294e-09
3.20581e-08
1.04821e-09
3.19644e-08
1.03377e-09
3.1868e-08
1.01959e-09
3.1769e-08
1.00566e-09
3.16675e-08
9.91969e-10
3.15637e-08
9.785e-10
3.14576e-08
9.65244e-10
3.13494e-08
9.52191e-10
3.12392e-08
9.39332e-10
3.11271e-08
9.26662e-10
3.10132e-08
9.14173e-10
3.08977e-08
9.0186e-10
3.07807e-08
8.89718e-10
3.06623e-08
8.77743e-10
3.05425e-08
8.65932e-10
3.04216e-08
8.54281e-10
3.02995e-08
8.42788e-10
3.01765e-08
8.3145e-10
3.00526e-08
8.20265e-10
2.9928e-08
8.09232e-10
2.98026e-08
7.98348e-10
2.96766e-08
7.87612e-10
2.95502e-08
7.77022e-10
2.94233e-08
7.66578e-10
2.92961e-08
7.56275e-10
2.91686e-08
7.46117e-10
2.90409e-08
7.36097e-10
2.89131e-08
7.26219e-10
2.87852e-08
7.16477e-10
2.86574e-08
7.06875e-10
2.85296e-08
6.97405e-10
2.8402e-08
6.88073e-10
2.82745e-08
6.7887e-10
2.81473e-08
6.69803e-10
2.80204e-08
6.6086e-10
2.78939e-08
6.52052e-10
2.77677e-08
6.43364e-10
2.76419e-08
6.34808e-10
2.75167e-08
6.26367e-10
2.73919e-08
6.18057e-10
2.72676e-08
6.09856e-10
2.7144e-08
6.01784e-10
2.70209e-08
5.93817e-10
2.68985e-08
5.85976e-10
2.67767e-08
5.78234e-10
2.66556e-08
5.70617e-10
2.65352e-08
5.63091e-10
2.64155e-08
5.5569e-10
2.62966e-08
5.48372e-10
2.61785e-08
5.41178e-10
2.60611e-08
5.34059e-10
2.59446e-08
5.27065e-10
2.58288e-08
5.20136e-10
2.57139e-08
5.13332e-10
2.55999e-08
5.06584e-10
2.54867e-08
4.99964e-10
2.53743e-08
4.93387e-10
2.52629e-08
4.86941e-10
2.51523e-08
4.80526e-10
2.50427e-08
4.74247e-10
2.49339e-08
4.67985e-10
2.48261e-08
4.61864e-10
2.47192e-08
4.55745e-10
2.46132e-08
4.49776e-10
2.45081e-08
4.4379e-10
2.4404e-08
4.37967e-10
2.43009e-08
4.32105e-10
2.41986e-08
4.2642e-10
2.40974e-08
4.20674e-10
2.39971e-08
4.15122e-10
2.38978e-08
4.09483e-10
2.37994e-08
4.04059e-10
2.37021e-08
3.98517e-10
2.36056e-08
3.93219e-10
2.35102e-08
3.87765e-10
2.34157e-08
3.82592e-10
2.33223e-08
3.77216e-10
2.32298e-08
3.72169e-10
2.31384e-08
3.66864e-10
2.30478e-08
3.61942e-10
2.29583e-08
3.567e-10
2.28697e-08
3.5191e-10
2.27823e-08
3.46723e-10
2.26957e-08
3.42072e-10
2.26102e-08
3.3693e-10
2.25256e-08
3.32432e-10
2.24421e-08
3.27326e-10
2.23594e-08
3.22997e-10
2.2278e-08
3.1792e-10
2.21972e-08
3.13782e-10
2.21178e-08
3.08726e-10
2.2039e-08
3.04808e-10
2.19616e-08
2.99765e-10
2.18847e-08
2.96108e-10
2.18092e-08
2.91068e-10
2.17342e-08
2.87721e-10
2.16607e-08
2.82681e-10
2.15875e-08
2.79702e-10
2.15159e-08
2.74666e-10
2.14445e-08
2.7213e-10
2.13748e-08
2.6711e-10
2.1305e-08
2.65105e-10
2.12371e-08
2.60149e-10
2.1169e-08
2.58765e-10
2.11026e-08
2.53992e-10
2.10361e-08
2.53332e-10
2.09712e-08
2.49023e-10
2.0906e-08
2.49227e-10
2.45819e-10
3.30125e-08
1.59375e-09
-3.29548e-08
3.31039e-08
1.78801e-09
3.32299e-08
1.95825e-09
3.33819e-08
2.10576e-09
3.35395e-08
2.20947e-09
3.36864e-08
2.25779e-09
3.38161e-08
2.25702e-09
3.39281e-08
2.22208e-09
3.40223e-08
2.16631e-09
3.40982e-08
2.09822e-09
3.41563e-08
2.02346e-09
3.41991e-08
1.94712e-09
3.42299e-08
1.87371e-09
3.42521e-08
1.80621e-09
3.42681e-08
1.74564e-09
3.42795e-08
1.69162e-09
3.42873e-08
1.64325e-09
3.42922e-08
1.59961e-09
3.42947e-08
1.55994e-09
3.42952e-08
1.52361e-09
3.42937e-08
1.49013e-09
3.42904e-08
1.45911e-09
3.42852e-08
1.43023e-09
3.42782e-08
1.40323e-09
3.42694e-08
1.3779e-09
3.42588e-08
1.35408e-09
3.42462e-08
1.33162e-09
3.42318e-08
1.31038e-09
3.42154e-08
1.29026e-09
3.4197e-08
1.27115e-09
3.41766e-08
1.25295e-09
3.41542e-08
1.23558e-09
3.41296e-08
1.21895e-09
3.41029e-08
1.20299e-09
3.4074e-08
1.18764e-09
3.40428e-08
1.17285e-09
3.40095e-08
1.15855e-09
3.39738e-08
1.1447e-09
3.39359e-08
1.13127e-09
3.38957e-08
1.1182e-09
3.38532e-08
1.10548e-09
3.38083e-08
1.09306e-09
3.37611e-08
1.08093e-09
3.37117e-08
1.06905e-09
3.36599e-08
1.05741e-09
3.36059e-08
1.04599e-09
3.35496e-08
1.03477e-09
3.34911e-08
1.02374e-09
3.34304e-08
1.01288e-09
3.33676e-08
1.00218e-09
3.33026e-08
9.91622e-10
3.32356e-08
9.81206e-10
3.31666e-08
9.70921e-10
3.30955e-08
9.60759e-10
3.30225e-08
9.50713e-10
3.29477e-08
9.40775e-10
3.2871e-08
9.30944e-10
3.27926e-08
9.21212e-10
3.27125e-08
9.11577e-10
3.26307e-08
9.02034e-10
3.25474e-08
8.92583e-10
3.24625e-08
8.83217e-10
3.23762e-08
8.73939e-10
3.22884e-08
8.64741e-10
3.21994e-08
8.55629e-10
3.21091e-08
8.46594e-10
3.20176e-08
8.37642e-10
3.19249e-08
8.28762e-10
3.18311e-08
8.19966e-10
3.17364e-08
8.1124e-10
3.16407e-08
8.02597e-10
3.1544e-08
7.94022e-10
3.14466e-08
7.85531e-10
3.13483e-08
7.77104e-10
3.12494e-08
7.68764e-10
3.11498e-08
7.60485e-10
3.10495e-08
7.52293e-10
3.09487e-08
7.44159e-10
3.08474e-08
7.36114e-10
3.07457e-08
7.28123e-10
3.06435e-08
7.20224e-10
3.0541e-08
7.12374e-10
3.04381e-08
7.04619e-10
3.03351e-08
6.96908e-10
3.02317e-08
6.89296e-10
3.01282e-08
6.81721e-10
3.00246e-08
6.7425e-10
2.99209e-08
6.66808e-10
2.98171e-08
6.59475e-10
2.97133e-08
6.52162e-10
2.96095e-08
6.44964e-10
2.95058e-08
6.37775e-10
2.94022e-08
6.3071e-10
2.92987e-08
6.2364e-10
2.91953e-08
6.16705e-10
2.90921e-08
6.09749e-10
2.89892e-08
6.02941e-10
2.88865e-08
5.96095e-10
2.8784e-08
5.8941e-10
2.86818e-08
5.82666e-10
2.858e-08
5.761e-10
2.84785e-08
5.69452e-10
2.83774e-08
5.63003e-10
2.82767e-08
5.56442e-10
2.81764e-08
5.50108e-10
2.80765e-08
5.43628e-10
2.79771e-08
5.37407e-10
2.78782e-08
5.31e-10
2.77797e-08
5.24889e-10
2.76818e-08
5.18546e-10
2.75844e-08
5.12546e-10
2.74876e-08
5.06258e-10
2.73913e-08
5.00367e-10
2.72957e-08
4.94127e-10
2.72006e-08
4.88348e-10
2.71062e-08
4.82143e-10
2.70123e-08
4.76482e-10
2.69192e-08
4.70303e-10
2.68266e-08
4.64764e-10
2.67349e-08
4.58601e-10
2.66437e-08
4.53193e-10
2.65533e-08
4.47036e-10
2.64635e-08
4.41769e-10
2.63746e-08
4.35606e-10
2.62862e-08
4.30497e-10
2.61988e-08
4.24314e-10
2.61118e-08
4.19386e-10
2.6026e-08
4.13171e-10
2.59405e-08
4.08448e-10
2.58562e-08
4.02191e-10
2.57723e-08
3.97703e-10
2.56897e-08
3.91392e-10
2.56073e-08
3.8718e-10
2.55262e-08
3.80802e-10
2.54454e-08
3.76917e-10
2.5366e-08
3.70464e-10
2.52868e-08
3.66961e-10
2.52091e-08
3.60434e-10
2.51314e-08
3.5738e-10
2.50553e-08
3.50789e-10
2.49791e-08
3.48261e-10
2.49046e-08
3.41637e-10
2.483e-08
3.39723e-10
2.4757e-08
3.33138e-10
2.46838e-08
3.31927e-10
2.46123e-08
3.25532e-10
2.45405e-08
3.25132e-10
2.44703e-08
3.19207e-10
2.43998e-08
3.19751e-10
3.14644e-10
3.40774e-08
1.53888e-09
-3.40225e-08
3.41587e-08
1.70667e-09
3.42662e-08
1.85073e-09
3.43952e-08
1.9768e-09
3.45331e-08
2.07153e-09
3.46663e-08
2.1246e-09
3.47865e-08
2.13679e-09
3.48914e-08
2.1172e-09
3.49809e-08
2.07677e-09
3.50553e-08
2.02386e-09
3.51148e-08
1.96394e-09
3.51609e-08
1.90106e-09
3.51959e-08
1.83873e-09
3.52224e-08
1.77964e-09
3.52428e-08
1.72527e-09
3.52585e-08
1.67588e-09
3.52707e-08
1.63107e-09
3.52801e-08
1.59022e-09
3.52873e-08
1.55277e-09
3.52926e-08
1.51826e-09
3.52964e-08
1.48633e-09
3.52989e-08
1.45667e-09
3.53001e-08
1.42901e-09
3.53002e-08
1.40315e-09
3.52992e-08