/*--------------------------------*- C++ -*----------------------------------*\
| =========                 |                                                 |
| \\      /  F ield         | OpenFOAM: The Open Source CFD Toolbox           |
|  \\    /   O peration     | Version:  2.3.0                                 |
|   \\  /    A nd           | Web:      www.OpenFOAM.org                      |
|    \\/     M anipulation  |                                                 |
\*---------------------------------------------------------------------------*/
FoamFile
{
    version     2.0;
    format      ascii;
    class       volVectorField;
    location    "0.7";
    object      U_0;
}
// * * * * * * * * * * * * * * * * * * * * * * * * * * * * * * * * * * * * * //

dimensions      [0 1 -1 0 0 0 0];

internalField   nonuniform List<vector> 
5940
(
(0.172152 0.00510057 0)
(0.150951 0.00684226 0)
(0.132601 0.00710933 0)
(0.115186 0.00644343 0)
(0.098512 0.00546234 0)
(0.0833689 0.00438876 0)
(0.0706863 0.00326748 0)
(0.060736 0.00215367 0)
(0.0532491 0.00120803 0)
(0.0477377 0.000550676 0)
(0.0437248 0.00017451 0)
(0.0408005 3.08859e-07 0)
(0.038625 -5.27314e-05 0)
(0.0369385 -4.37726e-05 0)
(0.035556 -9.50392e-06 0)
(0.0343574 2.84247e-05 0)
(0.0332731 5.91872e-05 0)
(0.0322675 7.95462e-05 0)
(0.031325 9.04289e-05 0)
(0.0304392 9.42711e-05 0)
(0.0296078 9.35556e-05 0)
(0.0288288 9.02478e-05 0)
(0.0280998 8.57003e-05 0)
(0.0274179 8.07572e-05 0)
(0.0267794 7.58906e-05 0)
(0.0261806 7.1326e-05 0)
(0.0256178 6.71426e-05 0)
(0.0250877 6.33436e-05 0)
(0.0245869 5.98978e-05 0)
(0.0241128 5.67634e-05 0)
(0.0236629 5.38984e-05 0)
(0.023235 5.12656e-05 0)
(0.0228273 4.88337e-05 0)
(0.0224382 4.65774e-05 0)
(0.0220662 4.44759e-05 0)
(0.0217102 4.25125e-05 0)
(0.0213689 4.06735e-05 0)
(0.0210414 3.89476e-05 0)
(0.0207268 3.7325e-05 0)
(0.0204243 3.57977e-05 0)
(0.0201331 3.43581e-05 0)
(0.0198526 3.3e-05 0)
(0.0195822 3.17175e-05 0)
(0.0193212 3.05052e-05 0)
(0.0190691 2.93583e-05 0)
(0.0188255 2.82724e-05 0)
(0.0185899 2.72433e-05 0)
(0.0183619 2.62671e-05 0)
(0.0181411 2.53403e-05 0)
(0.0179272 2.44597e-05 0)
(0.0177197 2.36222e-05 0)
(0.0175185 2.28251e-05 0)
(0.0173232 2.20657e-05 0)
(0.0171335 2.13419e-05 0)
(0.0169492 2.06511e-05 0)
(0.01677 1.99918e-05 0)
(0.0165958 1.93617e-05 0)
(0.0164262 1.87594e-05 0)
(0.0162612 1.81831e-05 0)
(0.0161005 1.76315e-05 0)
(0.015944 1.7103e-05 0)
(0.0157914 1.65967e-05 0)
(0.0156427 1.61109e-05 0)
(0.0154977 1.5645e-05 0)
(0.0153561 1.51975e-05 0)
(0.015218 1.4768e-05 0)
(0.0150832 1.4355e-05 0)
(0.0149515 1.39582e-05 0)
(0.0148229 1.35762e-05 0)
(0.0146972 1.3209e-05 0)
(0.0145744 1.2855e-05 0)
(0.0144543 1.25145e-05 0)
(0.0143368 1.2186e-05 0)
(0.0142219 1.18698e-05 0)
(0.0141094 1.15643e-05 0)
(0.0139993 1.12702e-05 0)
(0.0138916 1.09856e-05 0)
(0.013786 1.07116e-05 0)
(0.0136827 1.04461e-05 0)
(0.0135814 1.01905e-05 0)
(0.0134822 9.94238e-06 0)
(0.0133849 9.70354e-06 0)
(0.0132896 9.47127e-06 0)
(0.0131961 9.24785e-06 0)
(0.0131044 9.03008e-06 0)
(0.0130145 8.82083e-06 0)
(0.0129263 8.6163e-06 0)
(0.0128397 8.42011e-06 0)
(0.0127547 8.22767e-06 0)
(0.0126713 8.04354e-06 0)
(0.0125894 7.86213e-06 0)
(0.012509 7.68918e-06 0)
(0.0124301 7.51783e-06 0)
(0.0123525 7.35528e-06 0)
(0.0122763 7.19313e-06 0)
(0.0122014 7.04032e-06 0)
(0.0121279 6.88653e-06 0)
(0.0120556 6.7429e-06 0)
(0.0119846 6.59666e-06 0)
(0.0119147 6.46174e-06 0)
(0.0118462 6.32226e-06 0)
(0.0117786 6.19567e-06 0)
(0.0117123 6.06217e-06 0)
(0.011647 5.94364e-06 0)
(0.0115829 5.81541e-06 0)
(0.0115197 5.70478e-06 0)
(0.0114577 5.58108e-06 0)
(0.0113965 5.47832e-06 0)
(0.0113366 5.35836e-06 0)
(0.0112773 5.26356e-06 0)
(0.0112194 5.14646e-06 0)
(0.011162 5.0599e-06 0)
(0.0111059 4.94472e-06 0)
(0.0110502 4.86683e-06 0)
(0.010996 4.75256e-06 0)
(0.010942 4.68397e-06 0)
(0.0108895 4.56948e-06 0)
(0.0108372 4.51104e-06 0)
(0.0107864 4.395e-06 0)
(0.0107355 4.34793e-06 0)
(0.0106865 4.2287e-06 0)
(0.010637 4.19457e-06 0)
(0.0105896 4.07024e-06 0)
(0.0105415 4.05105e-06 0)
(0.0104957 3.91935e-06 0)
(0.0104487 3.91759e-06 0)
(0.0104046 3.7758e-06 0)
(0.0103587 3.79468e-06 0)
(0.0103161 3.63932e-06 0)
(0.0102712 3.68302e-06 0)
(0.0102303 3.50974e-06 0)
(0.0101862 3.58353e-06 0)
(0.0101469 3.38697e-06 0)
(0.0101033 3.49754e-06 0)
(0.0100657 3.27091e-06 0)
(0.0100225 3.42692e-06 0)
(0.00998665 3.16133e-06 0)
(0.00994346 3.37429e-06 0)
(0.00990954 3.05797e-06 0)
(0.00986594 3.34332e-06 0)
(0.00983417 2.96044e-06 0)
(0.00978959 3.33946e-06 0)
(0.00976033 2.86775e-06 0)
(0.00971394 3.37161e-06 0)
(0.00968779 2.77725e-06 0)
(0.00963833 3.45623e-06 0)
(0.00961641 2.6823e-06 0)
(0.00956149 3.63576e-06 0)
(0.00954652 2.63317e-06 0)
(0.00947764 4.9809e-06 0)
(0.189432 0.00904158 0)
(0.187373 0.0124022 0)
(0.184773 0.0137444 0)
(0.181055 0.0136301 0)
(0.175801 0.0128555 0)
(0.169176 0.011751 0)
(0.161769 0.0103784 0)
(0.154068 0.00877862 0)
(0.146428 0.00710804 0)
(0.13907 0.00556325 0)
(0.132142 0.00427248 0)
(0.125752 0.00327091 0)
(0.119948 0.00253388 0)
(0.114735 0.00201537 0)
(0.110075 0.00166187 0)
(0.105905 0.00142251 0)
(0.102156 0.00125604 0)
(0.0987668 0.0011334 0)
(0.0956838 0.00103641 0)
(0.0928625 0.000954709 0)
(0.0902668 0.00088291 0)
(0.0878671 0.000818399 0)
(0.0856393 0.000759971 0)
(0.0835634 0.000707033 0)
(0.0816225 0.000659189 0)
(0.0798022 0.000616056 0)
(0.0780901 0.000577215 0)
(0.0764756 0.000542217 0)
(0.0749494 0.000510613 0)
(0.0735034 0.000481979 0)
(0.0721306 0.000455933 0)
(0.0708248 0.00043214 0)
(0.0695805 0.000410313 0)
(0.0683929 0.00039021 0)
(0.0672577 0.000371627 0)
(0.0661711 0.000354395 0)
(0.0651297 0.000338368 0)
(0.0641305 0.000323427 0)
(0.0631705 0.000309467 0)
(0.0622475 0.000296398 0)
(0.0613589 0.000284141 0)
(0.0605028 0.000272628 0)
(0.0596772 0.000261798 0)
(0.0588805 0.000251595 0)
(0.0581109 0.000241971 0)
(0.0573669 0.000232881 0)
(0.0566473 0.000224286 0)
(0.0559508 0.000216149 0)
(0.0552761 0.000208437 0)
(0.0546222 0.000201121 0)
(0.053988 0.000194172 0)
(0.0533726 0.000187567 0)
(0.0527752 0.00018128 0)
(0.0521949 0.000175294 0)
(0.0516309 0.000169587 0)
(0.0510825 0.000164142 0)
(0.0505491 0.000158943 0)
(0.05003 0.000153976 0)
(0.0495245 0.000149226 0)
(0.0490322 0.000144681 0)
(0.0485525 0.000140329 0)
(0.0480849 0.000136159 0)
(0.047629 0.000132161 0)
(0.0471842 0.000128326 0)
(0.0467502 0.000124645 0)
(0.0463265 0.00012111 0)
(0.0459128 0.000117712 0)
(0.0455088 0.000114446 0)
(0.045114 0.000111304 0)
(0.0447281 0.000108281 0)
(0.0443509 0.000105369 0)
(0.043982 0.000102565 0)
(0.0436212 9.9861e-05 0)
(0.0432682 9.72558e-05 0)
(0.0429227 9.47408e-05 0)
(0.0425845 9.23159e-05 0)
(0.0422534 8.99725e-05 0)
(0.0419291 8.77116e-05 0)
(0.0416114 8.55243e-05 0)
(0.0413001 8.34129e-05 0)
(0.0409951 8.13679e-05 0)
(0.0406961 7.9393e-05 0)
(0.040403 7.74779e-05 0)
(0.0401155 7.56281e-05 0)
(0.0398337 7.38318e-05 0)
(0.0395571 7.20967e-05 0)
(0.0392858 7.04092e-05 0)
(0.0390195 6.87793e-05 0)
(0.0387583 6.71914e-05 0)
(0.0385017 6.56585e-05 0)
(0.03825 6.41618e-05 0)
(0.0380027 6.27183e-05 0)
(0.03776 6.13053e-05 0)
(0.0375214 5.99443e-05 0)
(0.0372873 5.86081e-05 0)
(0.0370571 5.73238e-05 0)
(0.0368312 5.60581e-05 0)
(0.0366089 5.4845e-05 0)
(0.0363907 5.36438e-05 0)
(0.036176 5.24973e-05 0)
(0.0359653 5.1355e-05 0)
(0.0357578 5.0271e-05 0)
(0.0355542 4.91824e-05 0)
(0.0353536 4.81572e-05 0)
(0.0351569 4.71175e-05 0)
(0.0349629 4.61484e-05 0)
(0.0347728 4.51529e-05 0)
(0.034585 4.42375e-05 0)
(0.0344013 4.32818e-05 0)
(0.0342196 4.24183e-05 0)
(0.034042 4.14977e-05 0)
(0.033866 4.06853e-05 0)
(0.0336944 3.97952e-05 0)
(0.033524 3.90337e-05 0)
(0.0333581 3.81694e-05 0)
(0.0331929 3.74593e-05 0)
(0.0330327 3.66161e-05 0)
(0.0328726 3.59588e-05 0)
(0.0327178 3.51315e-05 0)
(0.0325625 3.45297e-05 0)
(0.0324131 3.37122e-05 0)
(0.0322623 3.317e-05 0)
(0.0321182 3.23558e-05 0)
(0.0319716 3.18786e-05 0)
(0.0318328 3.10604e-05 0)
(0.0316901 3.06552e-05 0)
(0.0315565 2.98243e-05 0)
(0.0314174 2.95007e-05 0)
(0.0312891 2.86466e-05 0)
(0.0311531 2.84172e-05 0)
(0.0310301 2.75272e-05 0)
(0.0308968 2.74078e-05 0)
(0.0307793 2.64668e-05 0)
(0.0306481 2.64778e-05 0)
(0.0305363 2.54672e-05 0)
(0.0304063 2.56344e-05 0)
(0.0303007 2.45305e-05 0)
(0.030171 2.48882e-05 0)
(0.030072 2.36608e-05 0)
(0.0299415 2.42538e-05 0)
(0.0298498 2.28643e-05 0)
(0.0297167 2.37519e-05 0)
(0.0296337 2.21499e-05 0)
(0.0294955 2.34132e-05 0)
(0.0294233 2.15321e-05 0)
(0.0292761 2.32859e-05 0)
(0.0292182 2.10451e-05 0)
(0.0290554 2.34901e-05 0)
(0.0290197 2.09186e-05 0)
(0.0288253 2.64224e-05 0)
(0.19055 0.00899102 0)
(0.191006 0.0117536 0)
(0.192107 0.0135418 0)
(0.193314 0.014153 0)
(0.19391 0.0140099 0)
(0.193525 0.0134433 0)
(0.192157 0.0125647 0)
(0.189955 0.0114349 0)
(0.187097 0.0101637 0)
(0.18375 0.00889587 0)
(0.180068 0.00774536 0)
(0.176194 0.00676356 0)
(0.172249 0.00595032 0)
(0.168324 0.0052845 0)
(0.164475 0.00473771 0)
(0.160729 0.00428262 0)
(0.1571 0.00389681 0)
(0.153596 0.00356363 0)
(0.150219 0.00327149 0)
(0.146969 0.00301254 0)
(0.143847 0.00278143 0)
(0.14085 0.00257435 0)
(0.137975 0.00238845 0)
(0.135221 0.00222138 0)
(0.132582 0.00207113 0)
(0.130055 0.00193585 0)
(0.127636 0.00181389 0)
(0.125318 0.0017037 0)
(0.123098 0.00160389 0)
(0.12097 0.00151323 0)
(0.118929 0.00143062 0)
(0.11697 0.00135509 0)
(0.115088 0.00128581 0)
(0.11328 0.00122206 0)
(0.111541 0.00116322 0)
(0.109867 0.00110876 0)
(0.108254 0.00105821 0)
(0.106699 0.00101118 0)
(0.105199 0.00096732 0)
(0.10375 0.000926336 0)
(0.10235 0.00088796 0)
(0.100997 0.000851962 0)
(0.0996874 0.000818138 0)
(0.0984197 0.000786304 0)
(0.0971917 0.0007563 0)
(0.0960013 0.00072798 0)
(0.094847 0.000701214 0)
(0.0937268 0.000675885 0)
(0.0926393 0.000651885 0)
(0.0915829 0.00062912 0)
(0.0905563 0.000607502 0)
(0.0895582 0.000586952 0)
(0.0885874 0.000567398 0)
(0.0876427 0.000548774 0)
(0.086723 0.00053102 0)
(0.0858273 0.000514081 0)
(0.0849546 0.000497904 0)
(0.0841041 0.000482446 0)
(0.0832748 0.000467662 0)
(0.082466 0.000453513 0)
(0.0816769 0.000439962 0)
(0.0809066 0.000426976 0)
(0.0801547 0.000414521 0)
(0.0794204 0.000402572 0)
(0.078703 0.000391097 0)
(0.078002 0.000380076 0)
(0.0773168 0.00036948 0)
(0.0766468 0.000359291 0)
(0.0759916 0.000349486 0)
(0.0753507 0.000340048 0)
(0.0747236 0.000330955 0)
(0.0741098 0.000322195 0)
(0.0735089 0.000313748 0)
(0.0729205 0.000305603 0)
(0.0723443 0.00029774 0)
(0.0717798 0.000290153 0)
(0.0712267 0.000282821 0)
(0.0706846 0.000275742 0)
(0.0701533 0.000268894 0)
(0.0696323 0.000262278 0)
(0.0691216 0.000255872 0)
(0.0686205 0.000249678 0)
(0.0681291 0.000243676 0)
(0.0676469 0.000237869 0)
(0.0671738 0.000232236 0)
(0.0667094 0.000226784 0)
(0.0662536 0.000221489 0)
(0.065806 0.000216364 0)
(0.0653668 0.000211379 0)
(0.0649352 0.000206553 0)
(0.0645116 0.000201853 0)
(0.0640951 0.000197303 0)
(0.0636864 0.000192865 0)
(0.0632844 0.00018857 0)
(0.0628898 0.000184372 0)
(0.0625016 0.000180313 0)
(0.0621206 0.000176336 0)
(0.0617455 0.000172496 0)
(0.0613774 0.000168723 0)
(0.0610148 0.000165085 0)
(0.0606591 0.0001615 0)
(0.0603085 0.000158051 0)
(0.0599647 0.000154637 0)
(0.0596256 0.000151366 0)
(0.0592933 0.00014811 0)
(0.0589651 0.000145005 0)
(0.0586438 0.000141894 0)
(0.0583262 0.000138947 0)
(0.0580156 0.000135967 0)
(0.057708 0.00013317 0)
(0.0574077 0.000130311 0)
(0.0571098 0.000127657 0)
(0.0568196 0.000124907 0)
(0.056531 0.000122393 0)
(0.0562506 0.00011974 0)
(0.0559708 0.000117363 0)
(0.0556999 0.000114797 0)
(0.0554286 0.000112555 0)
(0.0551671 0.000110065 0)
(0.0549038 0.000107961 0)
(0.0546516 0.000105534 0)
(0.0543959 0.000103572 0)
(0.0541529 0.000101197 0)
(0.0539043 9.93822e-05 0)
(0.0536705 9.70466e-05 0)
(0.0534285 9.53889e-05 0)
(0.0532038 9.30785e-05 0)
(0.0529678 9.15912e-05 0)
(0.0527525 8.92903e-05 0)
(0.0525218 8.79915e-05 0)
(0.052316 8.56818e-05 0)
(0.0520897 8.45951e-05 0)
(0.0518938 8.22564e-05 0)
(0.051671 8.14114e-05 0)
(0.0514855 7.90207e-05 0)
(0.0512648 7.84549e-05 0)
(0.0510906 7.59848e-05 0)
(0.0508704 7.57464e-05 0)
(0.0507085 7.31656e-05 0)
(0.0504865 7.33146e-05 0)
(0.0503386 7.05895e-05 0)
(0.050112 7.11984e-05 0)
(0.0499803 6.82978e-05 0)
(0.0497449 6.94508e-05 0)
(0.0496333 6.63614e-05 0)
(0.0493829 6.81448e-05 0)
(0.0492973 6.49236e-05 0)
(0.0490218 6.74964e-05 0)
(0.0489729 6.44968e-05 0)
(0.0486556 7.04556e-05 0)
(0.191705 0.00850213 0)
(0.19213 0.0104256 0)
(0.193235 0.0120175 0)
(0.194904 0.012859 0)
(0.196641 0.0130333 0)
(0.198023 0.0127796 0)
(0.198869 0.0122484 0)
(0.199159 0.0115157 0)
(0.198936 0.010653 0)
(0.198256 0.00975039 0)
(0.197185 0.00889206 0)
(0.195805 0.00812891 0)
(0.194196 0.00747442 0)
(0.192426 0.00691742 0)
(0.190545 0.00643948 0)
(0.188584 0.00602312 0)
(0.186562 0.00565423 0)
(0.184492 0.00532212 0)
(0.182387 0.00501909 0)
(0.180254 0.00473981 0)
(0.178102 0.00448071 0)
(0.17594 0.00423938 0)
(0.173775 0.0040142 0)
(0.171614 0.00380396 0)
(0.169464 0.00360766 0)
(0.167331 0.00342442 0)
(0.165219 0.00325338 0)
(0.163132 0.0030937 0)
(0.161075 0.00294459 0)
(0.15905 0.00280528 0)
(0.157059 0.00267503 0)
(0.155105 0.00255317 0)
(0.153188 0.00243904 0)
(0.151309 0.00233208 0)
(0.149469 0.00223171 0)
(0.147668 0.00213746 0)
(0.145906 0.00204885 0)
(0.144184 0.00196546 0)
(0.1425 0.00188691 0)
(0.140855 0.00181284 0)
(0.139247 0.00174293 0)
(0.137676 0.00167687 0)
(0.136142 0.00161439 0)
(0.134643 0.00155525 0)
(0.133179 0.0014992 0)
(0.131749 0.00144603 0)
(0.130352 0.00139555 0)
(0.128986 0.00134758 0)
(0.127652 0.00130196 0)
(0.126349 0.00125852 0)
(0.125075 0.00121714 0)
(0.123829 0.00117768 0)
(0.122611 0.00114002 0)
(0.121421 0.00110405 0)
(0.120256 0.00106967 0)
(0.119118 0.00103679 0)
(0.118003 0.00100531 0)
(0.116913 0.000975172 0)
(0.115846 0.000946282 0)
(0.114802 0.000918578 0)
(0.113779 0.000891993 0)
(0.112778 0.000866469 0)
(0.111798 0.000841947 0)
(0.110838 0.000818378 0)
(0.109897 0.00079571 0)
(0.108975 0.0007739 0)
(0.108072 0.000752902 0)
(0.107186 0.000732681 0)
(0.106318 0.000713192 0)
(0.105467 0.000694407 0)
(0.104632 0.000676287 0)
(0.103814 0.000658806 0)
(0.103011 0.000641928 0)
(0.102223 0.000625632 0)
(0.10145 0.000609885 0)
(0.100691 0.00059467 0)
(0.0999461 0.000579954 0)
(0.0992149 0.000565725 0)
(0.0984971 0.000551952 0)
(0.0977921 0.000538625 0)
(0.0971 0.000525714 0)
(0.0964199 0.000513215 0)
(0.095752 0.000501094 0)
(0.0950956 0.000489353 0)
(0.0944509 0.000477958 0)
(0.093817 0.000466914 0)
(0.0931944 0.000456186 0)
(0.092582 0.000445784 0)
(0.0919805 0.00043567 0)
(0.0913886 0.000425859 0)
(0.0908071 0.000416308 0)
(0.0902348 0.000407043 0)
(0.0896726 0.000398013 0)
(0.0891189 0.000389252 0)
(0.0885752 0.000380701 0)
(0.0880394 0.000372406 0)
(0.0875133 0.000364298 0)
(0.0869947 0.000356436 0)
(0.0864856 0.000348736 0)
(0.0859835 0.000341276 0)
(0.0854907 0.000333952 0)
(0.0850043 0.000326866 0)
(0.0845274 0.000319889 0)
(0.0840561 0.000313152 0)
(0.0835944 0.000306496 0)
(0.0831377 0.000300085 0)
(0.0826907 0.000293726 0)
(0.082248 0.000287622 0)
(0.0818154 0.000281535 0)
(0.081386 0.00027572 0)
(0.0809674 0.000269885 0)
(0.080551 0.000264345 0)
(0.080146 0.00025874 0)
(0.0797419 0.000253464 0)
(0.0793502 0.00024807 0)
(0.078958 0.000243048 0)
(0.0785795 0.000237846 0)
(0.0781986 0.000233071 0)
(0.077833 0.000228045 0)
(0.0774628 0.000223515 0)
(0.0771102 0.000218646 0)
(0.0767502 0.00021436 0)
(0.0764103 0.000209632 0)
(0.0760598 0.000205593 0)
(0.075733 0.00020099 0)
(0.0753912 0.000197205 0)
(0.0750774 0.00019271 0)
(0.0747436 0.000189191 0)
(0.0744433 0.000184787 0)
(0.0741163 0.000181552 0)
(0.0738299 0.000177222 0)
(0.0735086 0.000174292 0)
(0.0732368 0.000170019 0)
(0.0729196 0.000167425 0)
(0.0726634 0.000163194 0)
(0.0723486 0.000160969 0)
(0.0721092 0.000156767 0)
(0.0717943 0.000154956 0)
(0.0715737 0.000150773 0)
(0.0712556 0.000149427 0)
(0.0710562 0.00014527 0)
(0.0707308 0.000144436 0)
(0.0705563 0.000140341 0)
(0.0702178 0.000140062 0)
(0.0700733 0.000136123 0)
(0.0697139 0.000136424 0)
(0.0696069 0.000132838 0)
(0.0692152 0.000133918 0)
(0.0691567 0.000131134 0)
(0.0687176 0.000135457 0)
(0.192687 0.00806805 0)
(0.193079 0.00949913 0)
(0.193944 0.0108076 0)
(0.195306 0.0116626 0)
(0.196905 0.0119787 0)
(0.198421 0.011883 0)
(0.199658 0.0115249 0)
(0.200564 0.0110003 0)
(0.201148 0.0103705 0)
(0.201435 0.00969425 0)
(0.201455 0.00903028 0)
(0.201247 0.00842244 0)
(0.200857 0.00789016 0)
(0.200329 0.00743168 0)
(0.199695 0.00703563 0)
(0.198976 0.00668924 0)
(0.198184 0.00638148 0)
(0.197326 0.00610357 0)
(0.196404 0.00584878 0)
(0.195423 0.00561219 0)
(0.194385 0.00539034 0)
(0.193293 0.00518088 0)
(0.192152 0.00498225 0)
(0.190966 0.00479341 0)
(0.18974 0.00461359 0)
(0.188477 0.00444223 0)
(0.187182 0.00427883 0)
(0.185859 0.00412294 0)
(0.184512 0.00397415 0)
(0.183146 0.00383207 0)
(0.181763 0.00369632 0)
(0.180367 0.00356658 0)
(0.178961 0.00344251 0)
(0.177548 0.00332382 0)
(0.176131 0.00321024 0)
(0.174712 0.0031015 0)
(0.173293 0.00299739 0)
(0.171877 0.00289766 0)
(0.170466 0.00280211 0)
(0.16906 0.00271055 0)
(0.167662 0.00262279 0)
(0.166273 0.00253865 0)
(0.164895 0.00245797 0)
(0.163528 0.00238058 0)
(0.162173 0.00230633 0)
(0.160831 0.00223507 0)
(0.159504 0.00216668 0)
(0.15819 0.002101 0)
(0.156892 0.00203792 0)
(0.155609 0.00197732 0)
(0.154342 0.00191908 0)
(0.153091 0.00186309 0)
(0.151856 0.00180924 0)
(0.150638 0.00175744 0)
(0.149436 0.00170759 0)
(0.148251 0.0016596 0)
(0.147082 0.00161339 0)
(0.14593 0.00156887 0)
(0.144795 0.00152597 0)
(0.143676 0.00148462 0)
(0.142574 0.00144474 0)
(0.141488 0.00140628 0)
(0.140418 0.00136916 0)
(0.139364 0.00133333 0)
(0.138326 0.00129873 0)
(0.137304 0.00126531 0)
(0.136297 0.00123302 0)
(0.135305 0.00120181 0)
(0.134328 0.00117163 0)
(0.133366 0.00114245 0)
(0.132419 0.00111421 0)
(0.131486 0.00108689 0)
(0.130567 0.00106043 0)
(0.129662 0.00103482 0)
(0.128772 0.00101 0)
(0.127894 0.000985959 0)
(0.12703 0.000962653 0)
(0.126178 0.000940061 0)
(0.12534 0.000918146 0)
(0.124514 0.000896891 0)
(0.123701 0.00087626 0)
(0.1229 0.000856239 0)
(0.122111 0.000836794 0)
(0.121333 0.000817913 0)
(0.120568 0.000799563 0)
(0.119813 0.000781738 0)
(0.11907 0.000764402 0)
(0.118338 0.000747554 0)
(0.117616 0.000731155 0)
(0.116905 0.000715211 0)
(0.116205 0.000699681 0)
(0.115515 0.000684576 0)
(0.114835 0.00066985 0)
(0.114164 0.000655524 0)
(0.113505 0.000641543 0)
(0.112853 0.00062794 0)
(0.112212 0.000614651 0)
(0.11158 0.00060172 0)
(0.110958 0.000589073 0)
(0.110343 0.000576768 0)
(0.109739 0.000564715 0)
(0.109141 0.000552994 0)
(0.108555 0.000541492 0)
(0.107974 0.000530316 0)
(0.107405 0.000519326 0)
(0.10684 0.000508659 0)
(0.106288 0.000498146 0)
(0.105739 0.000487957 0)
(0.105203 0.000477885 0)
(0.104669 0.000468146 0)
(0.104149 0.000458484 0)
(0.10363 0.00044917 0)
(0.103126 0.000439888 0)
(0.10262 0.000430978 0)
(0.102132 0.000422049 0)
(0.10164 0.000413523 0)
(0.101168 0.000404923 0)
(0.100689 0.000396767 0)
(0.100232 0.000388474 0)
(0.0997648 0.000380676 0)
(0.0993233 0.000372666 0)
(0.0988679 0.000365219 0)
(0.0984422 0.000357474 0)
(0.0979975 0.000350374 0)
(0.0975878 0.000342877 0)
(0.0971529 0.000336122 0)
(0.0967596 0.00032886 0)
(0.0963333 0.000322455 0)
(0.0959572 0.000315414 0)
(0.0955383 0.000309367 0)
(0.09518 0.000302539 0)
(0.0947668 0.000296864 0)
(0.0944276 0.000290245 0)
(0.0940183 0.000284957 0)
(0.0936995 0.000278554 0)
(0.0932916 0.000273673 0)
(0.0929954 0.000267501 0)
(0.0925858 0.00026305 0)
(0.0923146 0.000257142 0)
(0.0918994 0.000253141 0)
(0.0916567 0.000247563 0)
(0.0912309 0.000244025 0)
(0.0910212 0.000238888 0)
(0.0905781 0.000235819 0)
(0.0904075 0.000231294 0)
(0.0899384 0.000228736 0)
(0.0898149 0.000225047 0)
(0.0893084 0.000223353 0)
(0.0892424 0.000220889 0)
(0.0886853 0.000222163 0)
(0.193499 0.00771383 0)
(0.193878 0.00886001 0)
(0.194594 0.00993589 0)
(0.19568 0.0107289 0)
(0.197 0.0111126 0)
(0.198332 0.0111258 0)
(0.199506 0.0108831 0)
(0.200452 0.0104835 0)
(0.201168 0.00999063 0)
(0.201677 0.00945051 0)
(0.202003 0.00890591 0)
(0.202173 0.00839296 0)
(0.202217 0.00793306 0)
(0.202167 0.00753142 0)
(0.202048 0.00718283 0)
(0.201875 0.00687829 0)
(0.201659 0.00660886 0)
(0.201403 0.00636702 0)
(0.201107 0.00614681 0)
(0.200772 0.0059437 0)
(0.200396 0.00575433 0)
(0.19998 0.00557629 0)
(0.199525 0.00540785 0)
(0.19903 0.0052478 0)
(0.198496 0.00509522 0)
(0.197925 0.00494942 0)
(0.197318 0.00480982 0)
(0.196677 0.0046759 0)
(0.196001 0.00454724 0)
(0.195294 0.00442342 0)
(0.194557 0.0043041 0)
(0.193791 0.00418895 0)
(0.192998 0.00407771 0)
(0.192179 0.00397012 0)
(0.191337 0.00386597 0)
(0.190473 0.00376508 0)
(0.189588 0.00366728 0)
(0.188685 0.00357243 0)
(0.187764 0.0034804 0)
(0.186827 0.00339108 0)
(0.185877 0.00330436 0)
(0.184913 0.00322015 0)
(0.183939 0.00313837 0)
(0.182954 0.00305894 0)
(0.181961 0.00298179 0)
(0.180961 0.00290685 0)
(0.179954 0.00283405 0)
(0.178943 0.00276333 0)
(0.177928 0.00269463 0)
(0.17691 0.00262789 0)
(0.175891 0.00256305 0)
(0.17487 0.00250007 0)
(0.17385 0.00243888 0)
(0.17283 0.00237944 0)
(0.171812 0.00232169 0)
(0.170797 0.00226559 0)
(0.169784 0.00221108 0)
(0.168775 0.00215813 0)
(0.16777 0.00210668 0)
(0.16677 0.00205669 0)
(0.165775 0.00200811 0)
(0.164785 0.00196091 0)
(0.163802 0.00191504 0)
(0.162824 0.00187047 0)
(0.161854 0.00182714 0)
(0.16089 0.00178503 0)
(0.159934 0.00174409 0)
(0.158985 0.00170429 0)
(0.158044 0.0016656 0)
(0.157111 0.00162797 0)
(0.156185 0.00159138 0)
(0.155268 0.00155579 0)
(0.15436 0.00152116 0)
(0.153459 0.00148748 0)
(0.152568 0.00145471 0)
(0.151685 0.00142282 0)
(0.15081 0.00139178 0)
(0.149945 0.00136156 0)
(0.149088 0.00133215 0)
(0.14824 0.0013035 0)
(0.1474 0.0012756 0)
(0.14657 0.00124843 0)
(0.145748 0.00122195 0)
(0.144935 0.00119615 0)
(0.144131 0.00117101 0)
(0.143335 0.0011465 0)
(0.142549 0.0011226 0)
(0.141771 0.0010993 0)
(0.141002 0.00107657 0)
(0.140241 0.00105439 0)
(0.139489 0.00103275 0)
(0.138745 0.00101163 0)
(0.138011 0.000991014 0)
(0.137283 0.000970881 0)
(0.136566 0.000951218 0)
(0.135855 0.00093201 0)
(0.135154 0.000913241 0)
(0.134459 0.000894899 0)
(0.133776 0.000876965 0)
(0.133097 0.000859434 0)
(0.132429 0.000842281 0)
(0.131766 0.000825509 0)
(0.131115 0.000809087 0)
(0.130467 0.000793027 0)
(0.129832 0.000777289 0)
(0.129199 0.000761896 0)
(0.12858 0.0007468 0)
(0.127961 0.000732034 0)
(0.127358 0.000717539 0)
(0.126754 0.000703362 0)
(0.126167 0.00068943 0)
(0.125576 0.000675809 0)
(0.125005 0.000662405 0)
(0.124428 0.000649311 0)
(0.123873 0.000636405 0)
(0.123309 0.000623808 0)
(0.12277 0.000611373 0)
(0.122218 0.000599249 0)
(0.121695 0.000587262 0)
(0.121155 0.000575589 0)
(0.120649 0.000564028 0)
(0.120119 0.00055279 0)
(0.119631 0.000541637 0)
(0.119111 0.00053082 0)
(0.11864 0.000520064 0)
(0.11813 0.000509654 0)
(0.117677 0.000499289 0)
(0.117174 0.000489277 0)
(0.116741 0.000479303 0)
(0.116245 0.000469683 0)
(0.115833 0.000460107 0)
(0.11534 0.000450876 0)
(0.114951 0.000441717 0)
(0.11446 0.00043287 0)
(0.114095 0.000424163 0)
(0.113604 0.000415697 0)
(0.113266 0.000407495 0)
(0.11277 0.000399407 0)
(0.112462 0.000391787 0)
(0.111958 0.000384072 0)
(0.111684 0.000377149 0)
(0.111165 0.000369804 0)
(0.110931 0.000363734 0)
(0.110391 0.000356779 0)
(0.110203 0.000351748 0)
(0.109633 0.000345307 0)
(0.109499 0.000341508 0)
(0.108888 0.000336079 0)
(0.108817 0.000333843 0)
(0.108153 0.000331077 0)
(0.194198 0.00741265 0)
(0.19456 0.00836182 0)
(0.195174 0.00925282 0)
(0.19606 0.00995197 0)
(0.19714 0.010351 0)
(0.198269 0.0104411 0)
(0.19931 0.0102928 0)
(0.200187 0.00999058 0)
(0.200882 0.00959798 0)
(0.201412 0.00915761 0)
(0.201799 0.00870312 0)
(0.202065 0.00826312 0)
(0.202235 0.00785785 0)
(0.202334 0.00749639 0)
(0.202381 0.00717843 0)
(0.202392 0.00689861 0)
(0.202378 0.00665025 0)
(0.202342 0.00642726 0)
(0.202285 0.0062247 0)
(0.202209 0.00603874 0)
(0.202113 0.00586648 0)
(0.201995 0.0057057 0)
(0.201857 0.00555476 0)
(0.201696 0.00541237 0)
(0.201514 0.00527754 0)
(0.201309 0.00514949 0)
(0.201082 0.00502751 0)
(0.200833 0.00491103 0)
(0.200561 0.00479952 0)
(0.200266 0.00469251 0)
(0.199949 0.00458957 0)
(0.19961 0.00449033 0)
(0.199249 0.00439447 0)
(0.198866 0.00430167 0)
(0.198461 0.00421171 0)
(0.198035 0.00412434 0)
(0.197588 0.00403938 0)
(0.197121 0.00395666 0)
(0.196634 0.00387604 0)
(0.196127 0.00379739 0)
(0.195602 0.0037206 0)
(0.195059 0.00364557 0)
(0.194498 0.00357223 0)
(0.193921 0.00350049 0)
(0.193327 0.00343031 0)
(0.192718 0.00336161 0)
(0.192094 0.00329436 0)
(0.191456 0.0032285 0)
(0.190805 0.003164 0)
(0.190141 0.00310083 0)
(0.189465 0.00303894 0)
(0.188779 0.00297831 0)
(0.188082 0.00291892 0)
(0.187375 0.00286073 0)
(0.18666 0.00280373 0)
(0.185936 0.00274788 0)
(0.185205 0.00269318 0)
(0.184466 0.00263959 0)
(0.183722 0.00258711 0)
(0.182971 0.0025357 0)
(0.182216 0.00248536 0)
(0.181456 0.00243606 0)
(0.180693 0.00238779 0)
(0.179926 0.00234052 0)
(0.179156 0.00229424 0)
(0.178384 0.00224894 0)
(0.17761 0.00220459 0)
(0.176834 0.00216117 0)
(0.176058 0.00211868 0)
(0.175281 0.00207709 0)
(0.174505 0.00203638 0)
(0.173728 0.00199654 0)
(0.172952 0.00195756 0)
(0.172177 0.0019194 0)
(0.171404 0.00188206 0)
(0.170631 0.00184552 0)
(0.169862 0.00180976 0)
(0.169093 0.00177476 0)
(0.168328 0.00174052 0)
(0.167565 0.00170699 0)
(0.166806 0.0016742 0)
(0.166049 0.00164208 0)
(0.165296 0.00161067 0)
(0.164546 0.0015799 0)
(0.163801 0.0015498 0)
(0.163058 0.00152031 0)
(0.162321 0.00149146 0)
(0.161587 0.00146319 0)
(0.160858 0.00143553 0)
(0.160132 0.00140841 0)
(0.159413 0.00138189 0)
(0.158697 0.00135587 0)
(0.157987 0.00133041 0)
(0.15728 0.00130543 0)
(0.156581 0.001281 0)
(0.155884 0.001257 0)
(0.155195 0.00123353 0)
(0.154508 0.00121047 0)
(0.153831 0.00118791 0)
(0.153154 0.00116573 0)
(0.152487 0.00114404 0)
(0.151821 0.00112268 0)
(0.151166 0.00110181 0)
(0.15051 0.00108124 0)
(0.149867 0.00106115 0)
(0.149222 0.00104131 0)
(0.148591 0.00102196 0)
(0.147956 0.00100282 0)
(0.147338 0.00098417 0)
(0.146713 0.000965686 0)
(0.146109 0.000947698 0)
(0.145494 0.000929834 0)
(0.144903 0.000912479 0)
(0.144298 0.000895199 0)
(0.14372 0.000878452 0)
(0.143125 0.00086172 0)
(0.142562 0.000845559 0)
(0.141976 0.000829345 0)
(0.141428 0.00081375 0)
(0.14085 0.000798025 0)
(0.140318 0.000782982 0)
(0.139749 0.00076772 0)
(0.139233 0.000753221 0)
(0.13867 0.000738396 0)
(0.138172 0.000724442 0)
(0.137616 0.000710028 0)
(0.137136 0.000696629 0)
(0.136584 0.000682602 0)
(0.136125 0.000669774 0)
(0.135576 0.000656114 0)
(0.135139 0.000643885 0)
(0.134592 0.000630571 0)
(0.134178 0.000618988 0)
(0.133629 0.000605995 0)
(0.133242 0.000595123 0)
(0.132689 0.000582429 0)
(0.132331 0.000572353 0)
(0.13177 0.000559941 0)
(0.131446 0.00055077 0)
(0.130872 0.000538631 0)
(0.130585 0.000530505 0)
(0.129994 0.00051865 0)
(0.12975 0.000511735 0)
(0.129133 0.000500235 0)
(0.128939 0.000494704 0)
(0.128289 0.000483775 0)
(0.128152 0.000479802 0)
(0.127459 0.000470019 0)
(0.127388 0.000467903 0)
(0.126642 0.000460498 0)
(0.194808 0.00714232 0)
(0.195149 0.00793833 0)
(0.195683 0.00868051 0)
(0.19642 0.00928248 0)
(0.19731 0.00966481 0)
(0.198261 0.00980227 0)
(0.199169 0.00973019 0)
(0.199962 0.00951115 0)
(0.200612 0.00920221 0)
(0.201125 0.00884418 0)
(0.201516 0.00846613 0)
(0.201807 0.00809096 0)
(0.202017 0.00773607 0)
(0.202163 0.00741168 0)
(0.202265 0.00712068 0)
(0.202335 0.0068609 0)
(0.202384 0.006628 0)
(0.202416 0.00641745 0)
(0.202435 0.00622539 0)
(0.202443 0.00604883 0)
(0.20244 0.00588541 0)
(0.202425 0.00573329 0)
(0.2024 0.00559103 0)
(0.202364 0.00545745 0)
(0.202317 0.00533159 0)
(0.20226 0.00521266 0)
(0.202191 0.00509997 0)
(0.202111 0.00499292 0)
(0.20202 0.00489098 0)
(0.201918 0.00479366 0)
(0.201803 0.00470052 0)
(0.201677 0.00461118 0)
(0.201538 0.00452527 0)
(0.201387 0.00444247 0)
(0.201222 0.00436252 0)
(0.201045 0.00428515 0)
(0.200855 0.00421015 0)
(0.200651 0.00413731 0)
(0.200434 0.00406646 0)
(0.200204 0.00399745 0)
(0.199959 0.00393013 0)
(0.199701 0.0038644 0)
(0.19943 0.00380013 0)
(0.199144 0.00373725 0)
(0.198846 0.00367565 0)
(0.198533 0.00361527 0)
(0.198208 0.00355603 0)
(0.197869 0.00349789 0)
(0.197517 0.00344079 0)
(0.197153 0.00338468 0)
(0.196775 0.00332953 0)
(0.196386 0.00327528 0)
(0.195984 0.00322193 0)
(0.19557 0.00316942 0)
(0.195145 0.00311775 0)
(0.194709 0.00306688 0)
(0.194262 0.0030168 0)
(0.193804 0.00296748 0)
(0.193336 0.00291893 0)
(0.192858 0.00287111 0)
(0.19237 0.00282401 0)
(0.191874 0.00277763 0)
(0.191368 0.00273196 0)
(0.190854 0.00268698 0)
(0.190333 0.00264269 0)
(0.189803 0.00259907 0)
(0.189267 0.00255612 0)
(0.188723 0.00251383 0)
(0.188173 0.0024722 0)
(0.187616 0.0024312 0)
(0.187054 0.00239085 0)
(0.186486 0.00235112 0)
(0.185913 0.00231203 0)
(0.185335 0.00227354 0)
(0.184753 0.00223568 0)
(0.184167 0.0021984 0)
(0.183577 0.00216175 0)
(0.182983 0.00212565 0)
(0.182387 0.00209016 0)
(0.181787 0.00205521 0)
(0.181186 0.00202086 0)
(0.180581 0.00198703 0)
(0.179976 0.0019538 0)
(0.179367 0.00192105 0)
(0.178759 0.00188889 0)
(0.178147 0.0018572 0)
(0.177537 0.00182609 0)
(0.176924 0.00179541 0)
(0.176313 0.00176531 0)
(0.175698 0.00173562 0)
(0.175087 0.0017065 0)
(0.174473 0.00167775 0)
(0.173863 0.00164957 0)
(0.173249 0.00162173 0)
(0.172641 0.00159446 0)
(0.172029 0.00156749 0)
(0.171423 0.00154111 0)
(0.170813 0.00151497 0)
(0.170211 0.00148943 0)
(0.169603 0.00146408 0)
(0.169005 0.00143936 0)
(0.168401 0.00141477 0)
(0.167808 0.00139083 0)
(0.167206 0.00136696 0)
(0.166619 0.00134377 0)
(0.166022 0.00132059 0)
(0.165441 0.00129813 0)
(0.164847 0.00127559 0)
(0.164274 0.00125383 0)
(0.163684 0.00123191 0)
(0.163119 0.00121083 0)
(0.162534 0.00118948 0)
(0.161977 0.00116906 0)
(0.161396 0.00114825 0)
(0.160849 0.00112848 0)
(0.160272 0.00110818 0)
(0.159735 0.00108904 0)
(0.159163 0.00106921 0)
(0.158637 0.00105071 0)
(0.158069 0.00103132 0)
(0.157556 0.00101345 0)
(0.15699 0.000994466 0)
(0.156491 0.000977232 0)
(0.155927 0.000958623 0)
(0.155443 0.000942048 0)
(0.154881 0.000923776 0)
(0.154414 0.000907889 0)
(0.153852 0.000889921 0)