/*--------------------------------*- C++ -*----------------------------------*\
| =========                 |                                                 |
| \\      /  F ield         | OpenFOAM: The Open Source CFD Toolbox           |
|  \\    /   O peration     | Version:  2.3.0                                 |
|   \\  /    A nd           | Web:      www.OpenFOAM.org                      |
|    \\/     M anipulation  |                                                 |
\*---------------------------------------------------------------------------*/
FoamFile
{
    version     2.0;
    format      ascii;
    class       volScalarField;
    location    "0.05";
    object      p;
}
// * * * * * * * * * * * * * * * * * * * * * * * * * * * * * * * * * * * * * //

dimensions      [0 2 -2 0 0 0 0];

internalField   nonuniform List<scalar> 
3375
(
0.00238676
0.00202827
0.00140056
0.000824554
0.000341182
-6.60925e-05
-0.000406731
-0.000674383
-0.000842274
-0.000908969
-0.000911611
-0.000883027
-0.000833337
-0.000768037
-0.000695748
-0.000622318
-0.000550801
-0.000480669
-0.000415208
-0.000356946
-0.000307537
-0.000267157
-0.000234946
-0.000209443
-0.000189038
-0.00017231
-0.000158188
-0.000145928
-0.000135034
-0.000125189
-0.0001162
-0.000107941
-0.000100318
-9.32663e-05
-8.67295e-05
-8.06619e-05
-7.50237e-05
-6.97793e-05
-6.48977e-05
-6.03505e-05
-5.61127e-05
-5.21616e-05
-4.84766e-05
-4.5039e-05
-4.1832e-05
-3.88398e-05
-3.60482e-05
-3.3444e-05
-3.1015e-05
-2.87499e-05
-2.66382e-05
-2.46699e-05
-2.2836e-05
-2.11279e-05
-1.95377e-05
-1.80577e-05
-1.6681e-05
-1.54009e-05
-1.42112e-05
-1.3106e-05
-1.20798e-05
-1.11276e-05
-1.02443e-05
-9.42543e-06
-8.66666e-06
-7.96401e-06
-7.3137e-06
-6.71216e-06
-6.15602e-06
-5.64212e-06
-5.16746e-06
-4.72928e-06
-4.32499e-06
-3.95218e-06
-3.60858e-06
-3.29206e-06
-3.00057e-06
-2.73224e-06
-2.48525e-06
-2.258e-06
-2.04889e-06
-1.85656e-06
-1.67958e-06
-1.51678e-06
-1.36686e-06
-1.22878e-06
-1.10139e-06
-9.83738e-07
-8.7489e-07
-7.73881e-07
-6.80057e-07
-5.92374e-07
-5.10389e-07
-4.33078e-07
-3.5994e-07
-2.90194e-07
-2.23144e-07
-1.58099e-07
-9.43999e-08
-3.15376e-08
0.0019515
0.00174778
0.00129696
0.000796494
0.000340389
-4.55465e-05
-0.000365582
-0.000618454
-0.000782395
-0.000855614
-0.000870038
-0.00085268
-0.000811751
-0.000753738
-0.000688053
-0.000620442
-0.000551193
-0.000482279
-0.000416977
-0.00035837
-0.000308528
-0.00026777
-0.000235289
-0.000209603
-0.00018908
-0.000172289
-0.000158138
-0.000145865
-0.000134966
-0.00012512
-0.000116132
-0.000107875
-0.000100256
-9.3206e-05
-8.66717e-05
-8.0607e-05
-7.49715e-05
-6.97301e-05
-6.48512e-05
-6.03069e-05
-5.60718e-05
-5.21233e-05
-4.84409e-05
-4.50058e-05
-4.1801e-05
-3.8811e-05
-3.60214e-05
-3.34191e-05
-3.09919e-05
-2.87286e-05
-2.66184e-05
-2.46516e-05
-2.28191e-05
-2.11123e-05
-1.95233e-05
-1.80445e-05
-1.66688e-05
-1.53896e-05
-1.42008e-05
-1.30965e-05
-1.20711e-05
-1.11196e-05
-1.02369e-05
-9.41868e-06
-8.66049e-06
-7.95836e-06
-7.30853e-06
-6.70744e-06
-6.15171e-06
-5.63818e-06
-5.16387e-06
-4.72601e-06
-4.32201e-06
-3.94946e-06
-3.60611e-06
-3.28981e-06
-2.99853e-06
-2.73039e-06
-2.48358e-06
-2.25648e-06
-2.04751e-06
-1.85532e-06
-1.67845e-06
-1.51577e-06
-1.36595e-06
-1.22796e-06
-1.10066e-06
-9.83081e-07
-8.74307e-07
-7.73357e-07
-6.79598e-07
-5.91967e-07
-5.10033e-07
-4.32776e-07
-3.59666e-07
-2.89979e-07
-2.2295e-07
-1.57948e-07
-9.4286e-08
-3.14475e-08
0.00164989
0.00151976
0.00119912
0.000782537
0.000366379
4.52035e-06
-0.00029147
-0.000524315
-0.000683501
-0.000767825
-0.000799394
-0.000797646
-0.00076949
-0.000722238
-0.000665565
-0.000604966
-0.000540929
-0.000475751
-0.000413271
-0.000356549
-0.0003079
-0.000267788
-0.000235567
-0.000209909
-0.000189307
-0.000172409
-0.000158159
-0.000145812
-0.000134862
-0.000124992
-0.000115992
-0.000107729
-0.000100109
-9.30635e-05
-8.6535e-05
-8.0477e-05
-7.48488e-05
-6.96147e-05
-6.4743e-05
-6.02056e-05
-5.59772e-05
-5.20351e-05
-4.83586e-05
-4.49292e-05
-4.17298e-05
-3.87448e-05
-3.596e-05
-3.33622e-05
-3.09392e-05
-2.86797e-05
-2.65732e-05
-2.46098e-05
-2.27804e-05
-2.10766e-05
-1.94903e-05
-1.8014e-05
-1.66407e-05
-1.53638e-05
-1.4177e-05
-1.30745e-05
-1.20509e-05
-1.1101e-05
-1.02199e-05
-9.40304e-06
-8.64614e-06
-7.94522e-06
-7.29649e-06
-6.69641e-06
-6.14162e-06
-5.62895e-06
-5.15544e-06
-4.7183e-06
-4.31498e-06
-3.94306e-06
-3.60028e-06
-3.2845e-06
-2.99371e-06
-2.726e-06
-2.47959e-06
-2.25287e-06
-2.04424e-06
-1.85236e-06
-1.67579e-06
-1.51337e-06
-1.36379e-06
-1.22602e-06
-1.09892e-06
-9.8153e-07
-8.72931e-07
-7.7214e-07
-6.78528e-07
-5.9104e-07
-5.09222e-07
-4.32101e-07
-3.59089e-07
-2.8952e-07
-2.22591e-07
-1.57684e-07
-9.41444e-08
-3.14137e-08
0.00144533
0.00134024
0.00109816
0.000761595
0.000394775
5.95668e-05
-0.000212958
-0.000426024
-0.000579324
-0.000670128
-0.000712949
-0.000723738
-0.000708066
-0.000671919
-0.000624836
-0.000572789
-0.000516947
-0.000459332
-0.00040294
-0.000351058
-0.000305458
-0.000267136
-0.000235781
-0.000210388
-0.000189736
-0.000172671
-0.000158242
-0.000145761
-0.00013471
-0.00012478
-0.000115751
-0.000107476
-9.98565e-05
-9.28173e-05
-8.62991e-05
-8.02533e-05
-7.46378e-05
-6.94166e-05
-6.45575e-05
-6.00323e-05
-5.58156e-05
-5.18845e-05
-4.82185e-05
-4.47989e-05
-4.16088e-05
-3.86324e-05
-3.58557e-05
-3.32655e-05
-3.08496e-05
-2.85967e-05
-2.64964e-05
-2.45387e-05
-2.27148e-05
-2.10159e-05
-1.94343e-05
-1.79623e-05
-1.65931e-05
-1.53198e-05
-1.41365e-05
-1.30373e-05
-1.20167e-05
-1.10695e-05
-1.0191e-05
-9.37645e-06
-8.62174e-06
-7.92284e-06
-7.27599e-06
-6.67764e-06
-6.12443e-06
-5.61323e-06
-5.14106e-06
-4.70517e-06
-4.303e-06
-3.93213e-06
-3.59032e-06
-3.27544e-06
-2.98546e-06
-2.71851e-06
-2.47279e-06
-2.2467e-06
-2.03865e-06
-1.84731e-06
-1.67122e-06
-1.50925e-06
-1.36009e-06
-1.2227e-06
-1.09595e-06
-9.7888e-07
-8.70574e-07
-7.70064e-07
-6.76695e-07
-5.89461e-07
-5.07845e-07
-4.3095e-07
-3.58125e-07
-2.8874e-07
-2.22003e-07
-1.57258e-07
-9.39151e-08
-3.13639e-08
0.00128458
0.00118997
0.00099471
0.000724105
0.000410584
0.000107119
-0.000143108
-0.00033859
-0.000485058
-0.000579002
-0.000628188
-0.000647026
-0.000642049
-0.00061719
-0.000579634
-0.000535759
-0.000488221
-0.000438568
-0.000389002
-0.000342327
-0.000300541
-0.000264705
-0.000234801
-0.000210097
-0.000189675
-0.000172611
-0.000158109
-0.000145515
-0.000134391
-0.000124413
-0.00011536
-0.00010708
-9.94685e-05
-9.24442e-05
-8.59449e-05
-7.99195e-05
-7.4325e-05
-6.91243e-05
-6.4285e-05
-5.97786e-05
-5.55796e-05
-5.16652e-05
-4.80148e-05
-4.46099e-05
-4.14333e-05
-3.84698e-05
-3.5705e-05
-3.31258e-05
-3.07203e-05
-2.8477e-05
-2.63856e-05
-2.44364e-05
-2.26201e-05
-2.09285e-05
-1.93536e-05
-1.78879e-05
-1.65244e-05
-1.52566e-05
-1.40782e-05
-1.29836e-05
-1.19673e-05
-1.10241e-05
-1.01492e-05
-9.33811e-06
-8.58656e-06
-7.89057e-06
-7.24641e-06
-6.65053e-06
-6.09962e-06
-5.59052e-06
-5.12029e-06
-4.6862e-06
-4.28568e-06
-3.91634e-06
-3.57593e-06
-3.26233e-06
-2.97353e-06
-2.70766e-06
-2.46294e-06
-2.23776e-06
-2.03056e-06
-1.83998e-06
-1.66461e-06
-1.50329e-06
-1.35472e-06
-1.21788e-06
-1.09163e-06
-9.75032e-07
-8.67148e-07
-7.67048e-07
-6.74031e-07
-5.87161e-07
-5.05844e-07
-4.29267e-07
-3.56724e-07
-2.87598e-07
-2.2114e-07
-1.56639e-07
-9.35579e-08
-3.12553e-08
0.00114796
0.00106259
0.000895466
0.000673914
0.000414238
0.000146274
-8.46232e-05
-0.000264255
-0.000401207
-0.000495928
-0.000549861
-0.000574139
-0.000577699
-0.000563399
-0.000534948
-0.000498349
-0.000457943
-0.000415561
-0.000372614
-0.00033124
-0.000293454
-0.000260457
-0.000232381
-0.000208732
-0.000188819
-0.000171963
-0.00015752
-0.000144934
-0.000133799
-0.000123815
-0.000114769
-0.000106508
-9.89225e-05
-9.19286e-05
-8.54614e-05
-7.94681e-05
-7.39048e-05
-6.87338e-05
-6.39226e-05
-5.94424e-05
-5.52679e-05
-5.13762e-05
-4.7747e-05
-4.43618e-05
-4.12035e-05
-3.82569e-05
-3.55079e-05
-3.29434e-05
-3.05515e-05
-2.83209e-05
-2.62412e-05
-2.43029e-05
-2.24968e-05
-2.08147e-05
-1.92485e-05
-1.77909e-05
-1.64349e-05
-1.51741e-05
-1.40022e-05
-1.29136e-05
-1.19029e-05
-1.09649e-05
-1.00948e-05
-9.28811e-06
-8.54066e-06
-7.84846e-06
-7.2078e-06
-6.61515e-06
-6.06721e-06
-5.56086e-06
-5.09316e-06
-4.66141e-06
-4.26304e-06
-3.89569e-06
-3.5571e-06
-3.24518e-06
-2.95792e-06
-2.69346e-06
-2.45003e-06
-2.22605e-06
-2.01995e-06
-1.83038e-06
-1.65593e-06
-1.49546e-06
-1.34767e-06
-1.21156e-06
-1.08597e-06
-9.6998e-07
-8.6265e-07
-7.63083e-07
-6.70533e-07
-5.84133e-07
-5.03221e-07
-4.27047e-07
-3.54882e-07
-2.86099e-07
-2.19998e-07
-1.55828e-07
-9.30713e-08
-3.10968e-08
0.00102844
0.000952356
0.000805678
0.000620632
0.000408355
0.000175669
-3.59305e-05
-0.00019961
-0.000325837
-0.000421016
-0.000479665
-0.000507185
-0.000515845
-0.000510269
-0.000490696
-0.000461072
-0.000427082
-0.000391508
-0.000354977
-0.000318773
-0.00028492
-0.000254816
-0.000228726
-0.000206314
-0.000187115
-0.000170648
-0.000156411
-0.00014394
-0.000132874
-0.000122944
-0.000113948
-0.000105738
-9.82032e-05
-9.12591e-05
-8.484e-05
-7.88924e-05
-7.33719e-05
-6.82409e-05
-6.34667e-05
-5.90208e-05
-5.48779e-05
-5.10155e-05
-4.74133e-05
-4.40529e-05
-4.09178e-05
-3.79925e-05
-3.52633e-05
-3.27171e-05
-3.03422e-05
-2.81274e-05
-2.60624e-05
-2.41376e-05
-2.23441e-05
-2.06736e-05
-1.91183e-05
-1.76708e-05
-1.63242e-05
-1.5072e-05
-1.39081e-05
-1.2827e-05
-1.18231e-05
-1.08915e-05
-1.00273e-05
-9.22614e-06
-8.48376e-06
-7.79625e-06
-7.15991e-06
-6.57126e-06
-6.027e-06
-5.52404e-06
-5.05948e-06
-4.63062e-06
-4.23492e-06
-3.87003e-06
-3.5337e-06
-3.22386e-06
-2.9385e-06
-2.6758e-06
-2.43398e-06
-2.21148e-06
-2.00674e-06
-1.81842e-06
-1.64513e-06
-1.48572e-06
-1.3389e-06
-1.20367e-06
-1.07891e-06
-9.6368e-07
-8.57044e-07
-7.58137e-07
-6.66176e-07
-5.80352e-07
-4.99953e-07
-4.24277e-07
-3.52585e-07
-2.84234e-07
-2.18569e-07
-1.54821e-07
-9.24591e-08
-3.08957e-08
0.000922275
0.000855708
0.000728144
0.000569134
0.000393723
0.000196397
6.41301e-06
-0.000143818
-0.000260729
-0.000354136
-0.000415351
-0.000444535
-0.00045638
-0.000458375
-0.000447761
-0.000425218
-0.000397014
-0.000367321
-0.000336544
-0.000305193
-0.000275111
-0.000247857
-0.00022384
-0.000202839
-0.000184542
-0.000168634
-0.000154745
-0.0001425
-0.00013159
-0.000121777
-0.000112878
-0.000104753
-9.72956e-05
-9.04229e-05
-8.40696e-05
-7.81826e-05
-7.27178e-05
-6.76379e-05
-6.29105e-05
-5.85075e-05
-5.4404e-05
-5.05778e-05
-4.70088e-05
-4.36791e-05
-4.05722e-05
-3.7673e-05
-3.49678e-05
-3.2444e-05
-3.00896e-05
-2.78939e-05
-2.58466e-05
-2.39382e-05
-2.21599e-05
-2.05036e-05
-1.89613e-05
-1.75259e-05
-1.61906e-05
-1.49488e-05
-1.37946e-05
-1.27225e-05
-1.17269e-05
-1.0803e-05
-9.94592e-06
-9.15134e-06
-8.41507e-06
-7.7332e-06
-7.10208e-06
-6.51824e-06
-5.97842e-06
-5.47956e-06
-5.01878e-06
-4.59341e-06
-4.20093e-06
-3.839e-06
-3.5054e-06
-3.19806e-06
-2.91501e-06
-2.65442e-06
-2.41455e-06
-2.19384e-06
-1.99075e-06
-1.80394e-06
-1.63205e-06
-1.4739e-06
-1.32827e-06
-1.19412e-06
-1.07035e-06
-9.5604e-07
-8.50248e-07
-7.52136e-07
-6.60895e-07
-5.75763e-07
-4.95994e-07
-4.20918e-07
-3.49798e-07
-2.81979e-07
-2.16837e-07
-1.53602e-07
-9.17173e-08
-3.06506e-08
0.000828638
0.000770352
0.0006607
0.000521193
0.000374272
0.000210174
4.14607e-05
-9.79918e-05
-0.000204995
-0.000292352
-0.000354673
-0.000387207
-0.000402386
-0.000409985
-0.000406774
-0.000390672
-0.000367508
-0.00034278
-0.000317202
-0.000290529
-0.000264156
-0.000239732
-0.000217849
-0.000198386
-0.00018114
-0.000165932
-0.000152514
-0.000140596
-0.000129922
-0.000120288
-0.000111534
-0.000103533
-9.61826e-05
-8.94051e-05
-8.31373e-05
-7.73273e-05
-7.19322e-05
-6.69155e-05
-6.22456e-05
-5.78949e-05
-5.38392e-05
-5.00566e-05
-4.65277e-05
-4.32348e-05
-4.01616e-05
-3.72936e-05
-3.46172e-05
-3.21199e-05
-2.97901e-05
-2.7617e-05
-2.55907e-05
-2.37018e-05
-2.19416e-05
-2.0302e-05
-1.87752e-05
-1.73542e-05
-1.60322e-05
-1.48028e-05
-1.36601e-05
-1.25985e-05
-1.16128e-05
-1.0698e-05
-9.84937e-06
-9.06261e-06
-8.33357e-06
-7.65839e-06
-7.03344e-06
-6.4553e-06
-5.92074e-06
-5.42673e-06
-4.97044e-06
-4.54921e-06
-4.16054e-06
-3.80213e-06
-3.47176e-06
-3.1674e-06
-2.88708e-06
-2.629e-06
-2.39145e-06
-2.17286e-06
-1.97173e-06
-1.78672e-06
-1.61647e-06
-1.45985e-06
-1.31561e-06
-1.18274e-06
-1.06016e-06
-9.46943e-07
-8.42159e-07
-7.44987e-07
-6.54611e-07
-5.70295e-07
-4.91282e-07
-4.16919e-07
-3.46478e-07
-2.793e-07
-2.14772e-07
-1.52149e-07
-9.08382e-08
-3.03578e-08
0.000746579
0.000693792
0.000600838
0.000478819
0.00035294
0.000215972
6.85601e-05
-5.89135e-05
-0.000155885
-0.000236607
-0.000300159
-0.000336895
-0.000354239
-0.000364343
-0.000366446
-0.000356527
-0.00033847
-0.000318295
-0.000297404
-0.000275125
-0.00025232
-0.00023064
-0.000210875
-0.000193015
-0.000176931
-0.000162541
-0.000149703
-0.000138207
-0.000127848
-0.000118458
-0.000109899
-0.000102059
-9.48478e-05
-8.8191e-05
-8.20296e-05
-7.63144e-05
-7.10042e-05
-6.60638e-05
-6.14628e-05
-5.71747e-05
-5.31758e-05
-4.9445e-05
-4.59635e-05
-4.27139e-05
-3.96806e-05
-3.68493e-05
-3.42067e-05
-3.17405e-05
-2.94395e-05
-2.7293e-05
-2.52913e-05
-2.34252e-05
-2.16862e-05
-2.00661e-05
-1.85575e-05
-1.71533e-05
-1.58469e-05
-1.46319e-05
-1.35026e-05
-1.24534e-05
-1.14792e-05
-1.05751e-05
-9.73634e-06
-8.95871e-06
-8.23813e-06
-7.57076e-06
-6.95303e-06
-6.38156e-06
-5.85316e-06
-5.36484e-06
-4.91379e-06
-4.4974e-06
-4.1132e-06
-3.7589e-06
-3.43232e-06
-3.13144e-06
-2.85432e-06
-2.59919e-06
-2.36434e-06
-2.14825e-06
-1.9494e-06
-1.7665e-06
-1.5982e-06
-1.44335e-06
-1.30075e-06
-1.16939e-06
-1.04819e-06
-9.3626e-07
-8.3266e-07
-7.36591e-07
-6.47232e-07
-5.63873e-07
-4.85749e-07
-4.12224e-07
-3.42578e-07
-2.76157e-07
-2.12347e-07
-1.50444e-07
-8.981e-08
-3.00132e-08
0.000674646
0.000625345
0.000547142
0.000441205
0.000330683
0.000215558
8.99611e-05
-2.50824e-05
-0.000114816
-0.00018957
-0.000251721
-0.000290716
-0.000309541
-0.000321085
-0.00032745
-0.000323501
-0.00031054
-0.000294394
-0.000277457
-0.000259112
-0.000239689
-0.000220672
-0.000202999
-0.000186784
-0.000171949
-0.000158478
-0.000146317
-0.000135327
-0.000125356
-0.000116268
-0.000107954
-0.000100316
-9.32756e-05
-8.67662e-05
-8.07334e-05
-7.51317e-05
-6.99225e-05
-6.50725e-05
-6.05528e-05
-5.6338e-05
-5.24057e-05
-4.87355e-05
-4.53092e-05
-4.21102e-05
-3.91233e-05
-3.63345e-05
-3.37311e-05
-3.13011e-05
-2.90335e-05
-2.69179e-05
-2.49447e-05
-2.3105e-05
-2.13904e-05
-1.9793e-05
-1.83054e-05
-1.69207e-05
-1.56323e-05
-1.4434e-05
-1.33202e-05
-1.22854e-05
-1.13245e-05
-1.04327e-05
-9.6054e-06
-8.83834e-06
-8.12754e-06
-7.46922e-06
-6.85985e-06
-6.29609e-06
-5.77482e-06
-5.29308e-06
-4.84811e-06
-4.43733e-06
-4.05831e-06
-3.70877e-06
-3.38658e-06
-3.08973e-06
-2.81632e-06
-2.5646e-06
-2.33289e-06
-2.11968e-06
-1.9235e-06
-1.74303e-06
-1.57698e-06
-1.4242e-06
-1.2835e-06
-1.15388e-06
-1.0343e-06
-9.23854e-07
-8.2163e-07
-7.26838e-07
-6.38663e-07
-5.56413e-07
-4.79323e-07
-4.06772e-07
-3.38047e-07
-2.72509e-07
-2.09533e-07
-1.48462e-07
-8.8619e-08
-2.9613e-08
0.000611552
0.000564609
0.000497959
0.000406944
0.000309578
0.000211672
0.000105268
2.01742e-06
-8.13151e-05
-0.000149183
-0.000207112
-0.000247297
-0.000268666
-0.000281829
-0.000291073
-0.000291869
-0.00028352
-0.000270989
-0.000257439
-0.00024261
-0.000226398
-0.000209972
-0.000194351
-0.000179785
-0.00016625
-0.000153773
-0.000142364
-0.000131954
-0.000122436
-0.000113708
-0.000105685
-9.82885e-05
-9.14517e-05
-8.51169e-05
-7.92359e-05
-7.37675e-05
-6.86762e-05
-6.39313e-05
-5.95059e-05
-5.53762e-05
-5.15208e-05
-4.79205e-05
-4.45579e-05
-4.1417e-05
-3.84835e-05
-3.57437e-05
-3.31854e-05
-3.07969e-05
-2.85676e-05
-2.64874e-05
-2.45469e-05
-2.27375e-05
-2.1051e-05
-1.94796e-05
-1.80161e-05
-1.66537e-05
-1.5386e-05
-1.42069e-05
-1.31109e-05
-1.20926e-05
-1.1147e-05
-1.02693e-05
-9.45505e-06
-8.70013e-06
-8.00054e-06
-7.35259e-06
-6.75281e-06
-6.19791e-06
-5.68482e-06
-5.21064e-06
-4.77265e-06
-4.3683e-06
-3.99522e-06
-3.65115e-06
-3.33399e-06
-3.04178e-06
-2.77263e-06
-2.52483e-06
-2.29673e-06
-2.08683e-06
-1.8937e-06
-1.71605e-06
-1.55258e-06
-1.40216e-06
-1.26365e-06
-1.13604e-06
-1.01831e-06
-9.0958e-07
-8.08938e-07
-7.15616e-07
-6.28803e-07
-5.47828e-07
-4.71928e-07
-4.005e-07
-3.32833e-07
-2.68312e-07
-2.06298e-07
-1.4618e-07
-8.72509e-08
-2.91533e-08
0.000555635
0.000510756
0.000452889
0.000375587
0.000290058
0.000204843
0.000114371
2.37083e-05
-5.23461e-05
-0.000113856
-0.000167363
-0.000208119
-0.000232102
-0.000246506
-0.000257147
-0.000261364
-0.000257217
-0.000248173
-0.000237635
-0.000225891
-0.000212635
-0.000198687
-0.000185049
-0.000172105
-0.000159892
-0.000148459
-0.000137864
-0.000128094
-0.000119085
-0.000110769
-0.000103082
-9.59645e-05
-8.93635e-05
-8.32309e-05
-7.75251e-05
-7.22101e-05
-6.72544e-05
-6.26302e-05
-5.83128e-05
-5.42802e-05
-5.05127e-05
-4.69921e-05
-4.37022e-05
-4.06277e-05
-3.77549e-05
-3.5071e-05
-3.2564e-05
-3.02228e-05
-2.80371e-05
-2.59972e-05
-2.4094e-05
-2.23191e-05
-2.06645e-05
-1.91226e-05
-1.76866e-05
-1.63496e-05
-1.51054e-05
-1.39482e-05
-1.28724e-05
-1.18729e-05
-1.09446e-05
-1.0083e-05
-9.28374e-06
-8.54261e-06
-7.8558e-06
-7.21966e-06
-6.6308e-06
-6.08599e-06
-5.58222e-06
-5.11665e-06
-4.68661e-06
-4.28959e-06
-3.92327e-06
-3.58543e-06
-3.27402e-06
-2.98708e-06
-2.72279e-06
-2.47946e-06
-2.25547e-06
-2.04936e-06
-1.85971e-06
-1.68525e-06
-1.52473e-06
-1.37702e-06
-1.241e-06
-1.11568e-06
-1.00007e-06
-8.93285e-07
-7.9445e-07
-7.02804e-07
-6.17547e-07
-5.38026e-07
-4.63485e-07
-3.93339e-07
-3.26881e-07
-2.6352e-07
-2.02607e-07
-1.43572e-07
-8.56912e-08
-2.86295e-08
0.000505405
0.00046309
0.000411922
0.000346128
0.000271306
0.000196432
0.000119546
4.1353e-05
-2.76432e-05
-8.42887e-05
-0.000133476
-0.000173147
-0.000198707
-0.000214223
-0.000225702
-0.000232385
-0.000231892
-0.000226119
-0.000218255
-0.000209151
-0.000198544
-0.000186929
-0.000175201
-0.000163835
-0.000152938
-0.000142579
-0.000132842
-0.00012376
-0.000115309
-0.000107448
-0.000100137
-9.33349e-05
-8.70009e-05
-8.10972e-05
-7.559e-05
-7.0449e-05
-6.56469e-05
-6.11592e-05
-5.6964e-05
-5.30413e-05
-4.93731e-05
-4.59427e-05
-4.27348e-05
-3.97353e-05
-3.69312e-05
-3.43103e-05
-3.18613e-05
-2.95736e-05
-2.74372e-05
-2.54428e-05
-2.35817e-05
-2.18458e-05
-2.02273e-05
-1.87189e-05
-1.73138e-05
-1.60055e-05
-1.4788e-05
-1.36555e-05
-1.26026e-05
-1.16242e-05
-1.07156e-05
-9.87226e-06
-9.08981e-06
-8.3643e-06
-7.69192e-06
-7.06915e-06
-6.49264e-06
-5.95925e-06
-5.46603e-06
-5.0102e-06
-4.58915e-06
-4.20044e-06
-3.84177e-06
-3.51099e-06
-3.20607e-06
-2.9251e-06
-2.66632e-06
-2.42804e-06
-2.20871e-06
-2.00689e-06
-1.82118e-06
-1.65035e-06
-1.49316e-06
-1.34851e-06
-1.21532e-06
-1.0926e-06
-9.79382e-07
-8.74811e-07
-7.78024e-07
-6.88277e-07
-6.04786e-07
-5.26913e-07
-4.53913e-07
-3.85221e-07
-3.20132e-07
-2.58087e-07
-1.98424e-07
-1.40613e-07
-8.3924e-08
-2.80366e-08
0.000459792
0.000420575
0.000374615
0.000318173
0.000253479
0.000187872
0.000121875
5.44589e-05
-7.68316e-06
-5.97594e-05
-0.000104449
-0.000141802
-0.00016812
-0.000184886
-0.000197053
-0.000205325
-0.000207687
-0.000204832
-0.000199377
-0.000192552
-0.000184282
-0.000174827
-0.000164919
-0.000155073
-0.000145465
-0.000136185
-0.000127332
-0.000118972
-0.000111116
-0.000103748
-9.6849e-05
-9.0394e-05
-8.43557e-05
-7.87069e-05
-7.34212e-05
-6.84744e-05
-6.38439e-05
-5.95089e-05
-5.54504e-05
-5.16508e-05
-4.80938e-05
-4.47643e-05
-4.16484e-05
-3.8733e-05
-3.60058e-05
-3.34556e-05
-3.10717e-05
-2.88439e-05
-2.67628e-05
-2.48196e-05
-2.30058e-05
-2.13136e-05
-1.97356e-05
-1.82648e-05
-1.68945e-05
-1.56185e-05
-1.44309e-05
-1.33262e-05
-1.2299e-05
-1.13445e-05
-1.0458e-05
-9.63508e-06
-8.87159e-06
-8.16362e-06
-7.50749e-06
-6.89974e-06
-6.33712e-06
-5.81658e-06
-5.33523e-06
-4.89036e-06
-4.47943e-06
-4.10006e-06
-3.75e-06
-3.42716e-06
-3.12954e-06
-2.85531e-06
-2.60271e-06
-2.37014e-06
-2.15605e-06
-1.95905e-06
-1.77778e-06
-1.61103e-06
-1.45759e-06
-1.3164e-06
-1.18638e-06
-1.06659e-06
-9.56073e-07
-8.53994e-07
-7.59514e-07
-6.71906e-07
-5.90404e-07
-5.14388e-07
-4.43125e-07
-3.76071e-07
-3.12527e-07
-2.51962e-07
-1.93711e-07
-1.37278e-07
-8.19332e-08
-2.73693e-08
0.000417956
0.000382168
0.000340765
0.000292051
0.000236493
0.000179013
0.000121572
6.34102e-05
8.35732e-06
-3.90288e-05
-7.96159e-05
-0.000114315
-0.000140614
-0.000158372
-0.000171071
-0.000180266
-0.000184711
-0.000184365
-0.000181097
-0.000176255
-0.000170012
-0.000162513
-0.000154311
-0.000145912
-0.000137548
-0.000129332
-0.000121374
-0.000113757
-0.000106521
-9.96764e-05
-9.32187e-05
-8.7139e-05
-8.14229e-05
-7.60529e-05
-7.10105e-05
-6.62776e-05
-6.18366e-05
-5.76705e-05
-5.37634e-05
-5.01002e-05
-4.66667e-05
-4.34493e-05
-4.04356e-05
-3.76137e-05
-3.49723e-05
-3.25008e-05
-3.01893e-05
-2.80283e-05
-2.6009e-05
-2.41228e-05
-2.23618e-05
-2.07185e-05
-1.91857e-05
-1.77569e-05
-1.64255e-05
-1.51856e-05
-1.40314e-05
-1.29577e-05
-1.19593e-05
-1.10314e-05
-1.01696e-05
-9.3696e-06
-8.62731e-06
-7.93897e-06
-7.30101e-06
-6.71007e-06
-6.163e-06
-5.65683e-06
-5.18876e-06
-4.75616e-06
-4.35656e-06
-3.98764e-06
-3.64722e-06
-3.33326e-06
-3.04382e-06
-2.77712e-06
-2.53146e-06
-2.30526e-06
-2.09705e-06
-1.90545e-06
-1.72915e-06
-1.56697e-06
-1.41774e-06
-1.28042e-06
-1.15396e-06
-1.03744e-06
-9.29951e-07
-8.30664e-07
-7.38768e-07
-6.53558e-07
-5.74285e-07
-5.0035e-07
-4.31033e-07
-3.65815e-07
-3.04003e-07
-2.45096e-07
-1.8843e-07
-1.33538e-07
-7.9702e-08
-2.6622e-08
0.000379397
0.00034719
0.000310068
0.000267655
0.000219831
0.000169613
0.000119454
6.93045e-05
2.1058e-05
-2.17777e-05
-5.87543e-05
-9.06793e-05
-0.000116145
-0.000134384
-0.000147506
-0.000157254
-0.000163142
-0.000164832
-0.000163495
-0.000160384
-0.00015588
-0.000150112
-0.000143482
-0.000136445
-0.000129266
-0.000122083
-0.00011501
-0.000108145
-0.000101547
-9.52448e-05
-8.92516e-05
-8.3571e-05
-7.82e-05
-7.31305e-05
-6.83518e-05
-6.38516e-05
-5.96174e-05
-5.56361e-05
-5.1895e-05
-4.83816e-05
-4.50839e-05
-4.19902e-05
-3.90893e-05
-3.63706e-05
-3.3824e-05
-3.14396e-05
-2.92084e-05
-2.71216e-05
-2.51706e-05
-2.33477e-05
-2.16453e-05
-2.00563e-05
-1.85738e-05
-1.71916e-05
-1.59034e-05
-1.47036e-05
-1.35866e-05
-1.25474e-05
-1.1581e-05
-1.06828e-05
-9.84848e-06
-9.07391e-06
-8.35521e-06
-7.68872e-06
-7.07098e-06
-6.49876e-06
-5.969e-06
-5.47884e-06
-5.02556e-06
-4.60662e-06
-4.21964e-06
-3.86236e-06
-3.53267e-06
-3.2286e-06
-2.94828e-06
-2.68997e-06
-2.45203e-06
-2.23295e-06
-2.03128e-06
-1.8457e-06
-1.67494e-06
-1.51785e-06
-1.37331e-06
-1.24029e-06
-1.11781e-06
-1.00494e-06
-9.00822e-07
-8.04647e-07
-7.15634e-07
-6.33097e-07
-5.56308e-07
-4.84693e-07
-4.17547e-07
-3.54375e-07
-2.94497e-07
-2.37437e-07
-1.82542e-07
-1.29367e-07
-7.72135e-08
-2.57892e-08
0.000343795
0.000315042
0.000281907
0.000244715
0.000203445
0.00015986
0.000116124
7.27115e-05
3.05793e-05
-7.81689e-06
-4.13801e-05
-7.05117e-05
-9.4587e-05
-0.000112802
-0.000126204
-0.00013628
-0.000143095
-0.000146329
-0.000146633
-0.000145027
-0.000142008
-0.000137747
-0.000132537
-0.000126763
-0.000120698
-0.000114501
-0.000108292
-0.000102173
-9.62173e-05
-9.04704e-05
-8.49577e-05
-7.96944e-05
-7.46875e-05
-6.99375e-05
-6.54406e-05
-6.11906e-05
-5.71795e-05
-5.33985e-05
-4.98378e-05
-4.64877e-05
-4.33383e-05
-4.03797e-05
-3.76025e-05
-3.49971e-05
-3.25546e-05
-3.02661e-05
-2.81233e-05
-2.61181e-05
-2.42426e-05
-2.24896e-05
-2.08519e-05
-1.93228e-05
-1.78959e-05
-1.65652e-05
-1.53249e-05
-1.41695e-05
-1.30937e-05
-1.20926e-05
-1.11616e-05
-1.02963e-05
-9.49239e-06
-8.74604e-06
-8.05348e-06
-7.4112e-06
-6.81588e-06
-6.2644e-06
-5.75383e-06
-5.28141e-06
-4.84452e-06
-4.44074e-06
-4.06774e-06
-3.72336e-06
-3.40558e-06
-3.11247e-06
-2.84226e-06
-2.59326e-06
-2.36389e-06
-2.1527e-06
-1.95829e-06
-1.77939e-06
-1.61478e-06
-1.46334e-06
-1.324e-06
-1.19576e-06
-1.07768e-06
-9.68869e-07
-8.68488e-07
-7.75769e-07
-6.89953e-07
-6.10382e-07
-5.36352e-07
-4.67312e-07
-4.02577e-07
-3.41675e-07
-2.83944e-07
-2.28933e-07
-1.76005e-07
-1.24736e-07
-7.44508e-08
-2.48653e-08
0.000310819
0.000285227
0.000255802
0.000223152
0.000187482
0.000149797
0.000111702
7.39798e-05
3.72818e-05
3.21313e-06
-2.70454e-05
-5.34936e-05
-7.58837e-05
-9.36011e-05
-0.000107038
-0.000117257
-0.000124611
-0.000128937
-0.000130566
-0.000130244
-0.000128489
-0.000125518
-0.000121566
-0.000116945
-0.000111916
-0.000106649
-0.000101268
-9.58786e-05
-9.05618e-05
-8.53735e-05
-8.03505e-05
-7.55173e-05
-7.08892e-05
-6.64742e-05
-6.2275e-05
-5.82908e-05
-5.45182e-05
-5.09519e-05
-4.75854e-05
-4.44117e-05
-4.1423e-05
-3.86113e-05
-3.59686e-05
-3.34868e-05
-3.1158e-05
-2.89744e-05
-2.69284e-05
-2.50127e-05
-2.32201e-05
-2.15437e-05
-1.99771e-05
-1.85139e-05
-1.71483e-05
-1.58743e-05
-1.46866e-05
-1.35801e-05
-1.25496e-05
-1.15907e-05
-1.06987e-05
-9.86958e-06
-9.09928e-06
-8.38405e-06
-7.72033e-06
-7.10475e-06
-6.53417e-06
-6.00558e-06
-5.51619e-06
-5.06335e-06
-4.64457e-06
-4.25751e-06
-3.89995e-06
-3.56982e-06
-3.26517e-06
-2.98418e-06
-2.72513e-06
-2.48641e-06
-2.26651e-06
-2.06403e-06
-1.87764e-06
-1.70612e-06
-1.5483e-06
-1.4031e-06
-1.26951e-06
-1.14655e-06
-1.03333e-06
-9.29001e-07
-8.32754e-07
-7.43852e-07
-6.6157e-07
-5.85277e-07
-5.14295e-07
-4.48099e-07
-3.86029e-07
-3.27635e-07
-2.7228e-07
-2.19532e-07
-1.6878e-07
-1.19617e-07
-7.13969e-08
-2.38439e-08
0.000280167
0.000257446
0.000231477
0.000202873
0.000171976
0.000139421
0.00010633
7.35409e-05
4.16314e-05
1.16317e-05
-1.54553e-05
-3.93553e-05
-5.99201e-05
-7.67535e-05
-8.99327e-05
-0.000100117
-0.000107724
-0.000112752
-0.000115377
-0.000116107
-0.000115404
-0.000113518
-0.000110655
-0.000107065
-0.000102983
-9.85809e-05
-9.3984e-05
-8.92974e-05
-8.46061e-05
-7.99731e-05
-7.54429e-05
-7.10475e-05
-6.68089e-05
-6.27415e-05
-5.88537e-05
-5.51492e-05
-5.1629e-05
-4.82911e-05
-4.51323e-05
-4.21477e-05
-3.93319e-05
-3.66786e-05
-3.41814e-05
-3.18336e-05
-2.96283e-05
-2.75588e-05
-2.56183e-05
-2.38002e-05
-2.2098e-05
-2.05055e-05
-1.90167e-05
-1.76257e-05
-1.6327e-05
-1.51152e-05
-1.39853e-05
-1.29323e-05
-1.19517e-05
-1.10389e-05
-1.01898e-05
-9.40044e-06
-8.66702e-06
-7.98598e-06
-7.35395e-06
-6.76773e-06
-6.22433e-06
-5.72091e-06
-5.2548e-06
-4.8235e-06
-4.42462e-06
-4.05594e-06
-3.71535e-06
-3.40089e-06
-3.11069e-06
-2.84303e-06
-2.59625e-06
-2.36884e-06
-2.15935e-06
-1.96646e-06
-1.78889e-06
-1.62549e-06
-1.47514e-06
-1.33681e-06
-1.20953e-06
-1.09239e-06
-9.8452e-07
-8.85121e-07
-7.93422e-07
-7.08721e-07
-6.30328e-07
-5.57642e-07
-4.90015e-07
-4.2695e-07
-3.67813e-07
-3.1218e-07
-2.59439e-07
-2.09182e-07
-1.60827e-07
-1.13981e-07
-6.80352e-08
-2.27176e-08
0.000246109
0.000226539
0.000204365
0.000180097
0.000154127
0.000126894
9.91154e-05
7.15043e-05
4.45812e-05
1.89959e-05
-4.50631e-06
-2.55216e-05
-4.38934e-05
-5.93938e-05
-7.19538e-05
-8.18876e-05
-8.95456e-05
-9.50428e-05
-9.84871e-05
-0.000100183
-0.000100491
-9.96649e-05
-9.78905e-05
-9.53656e-05
-9.22882e-05
-8.88205e-05
-8.50868e-05
-8.11891e-05
-7.72124e-05
-7.32236e-05
-6.92735e-05
-6.54001e-05
-6.16314e-05
-5.79875e-05
-5.44823e-05
-5.11245e-05
-4.79189e-05
-4.48677e-05
-4.19705e-05
-3.92255e-05
-3.66294e-05
-3.41782e-05
-3.18672e-05
-2.96911e-05
-2.76446e-05
-2.57219e-05
-2.39173e-05
-2.22252e-05
-2.064e-05
-1.9156e-05
-1.77679e-05
-1.64705e-05
-1.52587e-05
-1.41276e-05
-1.30727e-05
-1.20893e-05
-1.11733e-05
-1.03206e-05
-9.52723e-06
-8.78957e-06
-8.10412e-06
-7.46757e-06
-6.87677e-06
-6.32876e-06
-5.82075e-06
-5.35009e-06
-4.9143e-06
-4.51102e-06
-4.13806e-06
-3.79331e-06
-3.47483e-06
-3.18077e-06
-2.9094e-06
-2.65908e-06
-2.4283e-06
-2.21562e-06
-2.0197e-06
-1.8393e-06
-1.67323e-06
-1.5204e-06
-1.37978e-06
-1.25041e-06
-1.13136e-06
-1.02179e-06
-9.20898e-07
-8.27924e-07
-7.42152e-07
-6.62928e-07
-5.89603e-07
-5.21618e-07
-4.58364e-07
-3.99378e-07
-3.44065e-07
-2.92028e-07
-2.42697e-07
-1.95686e-07
-1.50456e-07
-1.06631e-07
-6.36519e-08
-2.12491e-08
0.000208937
0.000192749
0.000174585
0.000154821
0.000133804
0.000111867
8.94578e-05
6.70768e-05
4.51547e-05
2.41378e-05
4.53588e-06
-1.32723e-05
-2.90957e-05
-4.27758e-05
-5.42132e-05
-6.35146e-05
-7.08982e-05
-7.65022e-05
-8.04176e-05
-8.28209e-05
-8.3958e-05
-8.40447e-05
-8.32477e-05
-8.17235e-05
-7.96298e-05
-7.71071e-05
-7.42705e-05
-7.12151e-05
-6.80209e-05
-6.47544e-05
-6.1468e-05
-5.8203e-05
-5.49914e-05
-5.18574e-05
-4.8819e-05
-4.58889e-05
-4.30758e-05
-4.03852e-05
-3.78199e-05
-3.53807e-05
-3.30669e-05
-3.08766e-05
-2.8807e-05
-2.68545e-05
-2.50153e-05
-2.32849e-05
-2.1659e-05
-2.01328e-05
-1.87017e-05
-1.7361e-05
-1.61062e-05
-1.49326e-05
-1.3836e-05
-1.28121e-05
-1.18567e-05
-1.09659e-05
-1.01358e-05
-9.36295e-06
-8.64376e-06
-7.97495e-06
-7.35339e-06
-6.77609e-06
-6.24023e-06
-5.74314e-06
-5.2823e-06
-4.85531e-06
-4.45993e-06
-4.09404e-06
-3.75563e-06
-3.44281e-06
-3.15382e-06
-2.88697e-06
-2.6407e-06
-2.41353e-06
-2.20409e-06
-2.01107e-06
-1.83326e-06
-1.66953e-06
-1.5188e-06
-1.3801e-06
-1.25246e-06
-1.13503e-06
-1.02698e-06
-9.27525e-07
-8.35941e-07
-7.51546e-07
-6.73689e-07
-6.01775e-07
-5.35218e-07
-4.73507e-07
-4.16093e-07
-3.62551e-07
-3.12344e-07
-2.65109e-07
-2.20331e-07
-1.77656e-07
-1.36598e-07
-9.68112e-08
-5.77935e-08
-1.92928e-08
0.000172305
0.000159331
0.000144904
0.000129283
0.000112734
9.55125e-05
7.7906e-05
6.02461e-05
4.28613e-05
2.60773e-05
1.02392e-05
-4.35353e-06
-1.75059e-05
-2.90864e-05
-3.90093e-05
-4.72898e-05
-5.4033e-05
-5.93445e-05
-6.33059e-05
-6.60275e-05
-6.76651e-05
-6.8379e-05
-6.83068e-05
-6.75727e-05
-6.62983e-05
-6.4597e-05
-6.25675e-05
-6.02935e-05
-5.78465e-05
-5.52874e-05
-5.26664e-05
-5.00243e-05
-4.73937e-05
-4.48006e-05
-4.22648e-05
-3.98016e-05
-3.74221e-05
-3.51341e-05
-3.29427e-05
-3.0851e-05
-2.88602e-05
-2.69702e-05
-2.518e-05
-2.34875e-05
-2.18904e-05
-2.03854e-05
-1.89694e-05
-1.76387e-05
-1.63897e-05
-1.52187e-05
-1.41218e-05
-1.30953e-05
-1.21357e-05
-1.12392e-05
-1.04024e-05
-9.62184e-06
-8.89437e-06
-8.21682e-06
-7.58621e-06
-6.99966e-06
-6.45446e-06
-5.94801e-06
-5.47787e-06
-5.0417e-06
-4.63729e-06
-4.26257e-06
-3.91557e-06
-3.59443e-06
-3.29739e-06
-3.0228e-06
-2.76912e-06
-2.53486e-06
-2.31866e-06
-2.11923e-06
-1.93535e-06
-1.76589e-06
-1.60978e-06
-1.46602e-06