/*--------------------------------*- C++ -*----------------------------------*\
| =========                 |                                                 |
| \\      /  F ield         | OpenFOAM: The Open Source CFD Toolbox           |
|  \\    /   O peration     | Version:  2.3.0                                 |
|   \\  /    A nd           | Web:      www.OpenFOAM.org                      |
|    \\/     M anipulation  |                                                 |
\*---------------------------------------------------------------------------*/
FoamFile
{
    version     2.0;
    format      ascii;
    class       volVectorField;
    location    "0.05";
    object      U_0;
}
// * * * * * * * * * * * * * * * * * * * * * * * * * * * * * * * * * * * * * //

dimensions      [0 1 -1 0 0 0 0];

internalField   nonuniform List<vector> 
3375
(
(0.17638 0.0043911 0)
(0.156042 0.00588403 0)
(0.137938 0.00600793 0)
(0.120209 0.00540747 0)
(0.103104 0.00460627 0)
(0.0875792 0.00369797 0)
(0.0746081 0.00273337 0)
(0.0645069 0.00174246 0)
(0.0571449 0.000850507 0)
(0.0520406 0.000232236 0)
(0.0485966 -0.000110653 0)
(0.0463328 -0.000279376 0)
(0.0449627 -0.000333536 0)
(0.0442817 -0.000294793 0)
(0.0440783 -0.000210711 0)
(0.0441583 -0.000145449 0)
(0.0443844 -9.62671e-05 0)
(0.0446819 -6.30839e-05 0)
(0.0449926 -4.34995e-05 0)
(0.0452778 -3.12668e-05 0)
(0.0455159 -2.2876e-05 0)
(0.0457005 -1.66051e-05 0)
(0.0458351 -1.20131e-05 0)
(0.0459284 -8.85783e-06 0)
(0.0459911 -6.68463e-06 0)
(0.0460326 -5.162e-06 0)
(0.0460602 -4.0818e-06 0)
(0.0460789 -3.33181e-06 0)
(0.046092 -2.77744e-06 0)
(0.0461014 -2.35721e-06 0)
(0.0461084 -2.02422e-06 0)
(0.0461137 -1.75762e-06 0)
(0.0461177 -1.53695e-06 0)
(0.0461208 -1.34743e-06 0)
(0.0461232 -1.18829e-06 0)
(0.046125 -1.05982e-06 0)
(0.0461263 -9.41565e-07 0)
(0.0461273 -8.44593e-07 0)
(0.0461279 -7.57951e-07 0)
(0.0461284 -6.85052e-07 0)
(0.0461287 -6.19579e-07 0)
(0.0461289 -5.62688e-07 0)
(0.046129 -5.12646e-07 0)
(0.0461291 -4.68305e-07 0)
(0.046129 -4.28793e-07 0)
(0.046129 -3.934e-07 0)
(0.0461289 -3.61554e-07 0)
(0.0461288 -3.32786e-07 0)
(0.0461287 -3.06704e-07 0)
(0.0461286 -2.82965e-07 0)
(0.0461285 -2.61278e-07 0)
(0.0461284 -2.41408e-07 0)
(0.0461283 -2.23164e-07 0)
(0.0461282 -2.06381e-07 0)
(0.0461281 -1.90914e-07 0)
(0.0461281 -1.76632e-07 0)
(0.046128 -1.6342e-07 0)
(0.0461279 -1.51185e-07 0)
(0.0461279 -1.39847e-07 0)
(0.0461279 -1.29337e-07 0)
(0.0461278 -1.19587e-07 0)
(0.0461278 -1.10535e-07 0)
(0.0461278 -1.02128e-07 0)
(0.0461278 -9.43189e-08 0)
(0.0461278 -8.70679e-08 0)
(0.0461278 -8.03344e-08 0)
(0.0461278 -7.40824e-08 0)
(0.0461278 -6.82753e-08 0)
(0.0461278 -6.28866e-08 0)
(0.0461279 -5.78855e-08 0)
(0.0461279 -5.32489e-08 0)
(0.0461279 -4.8944e-08 0)
(0.0461279 -4.49496e-08 0)
(0.0461279 -4.12408e-08 0)
(0.0461279 -3.78044e-08 0)
(0.046128 -3.46244e-08 0)
(0.046128 -3.16819e-08 0)
(0.046128 -2.89604e-08 0)
(0.046128 -2.6432e-08 0)
(0.046128 -2.40901e-08 0)
(0.0461281 -2.19086e-08 0)
(0.0461281 -1.98982e-08 0)
(0.0461281 -1.80219e-08 0)
(0.0461281 -1.63081e-08 0)
(0.0461281 -1.46772e-08 0)
(0.0461281 -1.32218e-08 0)
(0.0461281 -1.17551e-08 0)
(0.0461282 -1.0549e-08 0)
(0.0461282 -9.16861e-09 0)
(0.0461282 -8.22036e-09 0)
(0.0461282 -6.86778e-09 0)
(0.0461282 -6.1263e-09 0)
(0.0461282 -4.84074e-09 0)
(0.0461282 -4.08555e-09 0)
(0.0461282 -3.08814e-09 0)
(0.0461281 -2.03288e-09 0)
(0.0461281 -1.31166e-09 0)
(0.0461281 -2.28779e-10 0)
(0.0461281 8.54201e-10 0)
(0.046128 2.63274e-09 0)
(0.191727 0.00786613 0)
(0.189987 0.0106863 0)
(0.187831 0.0115614 0)
(0.184478 0.011461 0)
(0.179518 0.0108156 0)
(0.173068 0.00980414 0)
(0.165983 0.00860855 0)
(0.158916 0.00718156 0)
(0.152066 0.00557474 0)
(0.145625 0.00409406 0)
(0.139928 0.00293319 0)
(0.13508 0.00202362 0)
(0.131041 0.00126155 0)
(0.12783 0.000657037 0)
(0.125479 0.000232306 0)
(0.12396 -4.9652e-05 0)
(0.123147 -0.000206095 0)
(0.122862 -0.000272391 0)
(0.122918 -0.000270347 0)
(0.123155 -0.000231191 0)
(0.123449 -0.00017878 0)
(0.123724 -0.000127773 0)
(0.123946 -8.58832e-05 0)
(0.124107 -5.5383e-05 0)
(0.124212 -3.49507e-05 0)
(0.124276 -2.19814e-05 0)
(0.124311 -1.3974e-05 0)
(0.124327 -9.05244e-06 0)
(0.124331 -6.07997e-06 0)
(0.124327 -4.22227e-06 0)
(0.12432 -2.96531e-06 0)
(0.12431 -2.05446e-06 0)
(0.124299 -1.37769e-06 0)
(0.124288 -8.6195e-07 0)
(0.124276 -4.68758e-07 0)
(0.124264 -1.78568e-07 0)
(0.124252 4.40666e-08 0)
(0.12424 2.0454e-07 0)
(0.124229 3.21181e-07 0)
(0.124219 3.99732e-07 0)
(0.124208 4.51834e-07 0)
(0.124199 4.81849e-07 0)
(0.124189 4.95177e-07 0)
(0.124181 4.96004e-07 0)
(0.124173 4.87576e-07 0)
(0.124165 4.72457e-07 0)
(0.124158 4.52646e-07 0)
(0.124151 4.29682e-07 0)
(0.124145 4.04758e-07 0)
(0.124139 3.78815e-07 0)
(0.124133 3.52582e-07 0)
(0.124128 3.26599e-07 0)
(0.124123 3.01249e-07 0)
(0.124119 2.76803e-07 0)
(0.124115 2.53453e-07 0)
(0.124111 2.31334e-07 0)
(0.124107 2.10531e-07 0)
(0.124104 1.9108e-07 0)
(0.124101 1.72983e-07 0)
(0.124098 1.56214e-07 0)
(0.124096 1.40736e-07 0)
(0.124093 1.265e-07 0)
(0.124091 1.13456e-07 0)
(0.124089 1.01542e-07 0)
(0.124087 9.06857e-08 0)
(0.124086 8.0818e-08 0)
(0.124084 7.18652e-08 0)
(0.124083 6.37731e-08 0)
(0.124081 5.64729e-08 0)
(0.12408 4.99141e-08 0)
(0.124079 4.40247e-08 0)
(0.124078 3.87601e-08 0)
(0.124077 3.40619e-08 0)
(0.124076 2.98915e-08 0)
(0.124076 2.61986e-08 0)
(0.124075 2.29337e-08 0)
(0.124074 2.006e-08 0)
(0.124074 1.75308e-08 0)
(0.124073 1.53393e-08 0)
(0.124073 1.34413e-08 0)
(0.124072 1.18397e-08 0)
(0.124072 1.04669e-08 0)
(0.124071 9.34798e-09 0)
(0.124071 8.36843e-09 0)
(0.124071 7.68097e-09 0)
(0.12407 6.9761e-09 0)
(0.12407 6.7837e-09 0)
(0.12407 6.19297e-09 0)
(0.12407 6.62122e-09 0)
(0.12407 5.92773e-09 0)
(0.124069 7.10254e-09 0)
(0.124069 6.16682e-09 0)
(0.124069 8.13338e-09 0)
(0.124069 7.07394e-09 0)
(0.124069 9.55297e-09 0)
(0.124069 9.00008e-09 0)
(0.124069 1.13055e-08 0)
(0.124068 1.19578e-08 0)
(0.124068 1.3646e-08 0)
(0.124068 1.79289e-08 0)
(0.192907 0.00761783 0)
(0.193381 0.00987337 0)
(0.194518 0.0111175 0)
(0.19588 0.0116372 0)
(0.19672 0.0115401 0)
(0.196433 0.011021 0)
(0.195217 0.0101852 0)
(0.193484 0.00900805 0)
(0.191278 0.00765453 0)
(0.188629 0.00635444 0)
(0.185823 0.00518 0)
(0.183087 0.00411734 0)
(0.180516 0.00317122 0)
(0.178184 0.00234299 0)
(0.176169 0.00161438 0)
(0.174515 0.000987636 0)
(0.173227 0.000476187 0)
(0.172309 9.76621e-05 0)
(0.171737 -0.000133967 0)
(0.171444 -0.000242683 0)
(0.171345 -0.000263647 0)
(0.171359 -0.000232907 0)
(0.171422 -0.000180692 0)
(0.171492 -0.000127135 0)
(0.171546 -8.23544e-05 0)
(0.171578 -4.91865e-05 0)
(0.171588 -2.6561e-05 0)
(0.171581 -1.20513e-05 0)
(0.171562 -3.23377e-06 0)
(0.171536 2.01821e-06 0)
(0.171506 5.09189e-06 0)
(0.171475 6.86855e-06 0)
(0.171442 7.85622e-06 0)
(0.171411 8.35524e-06 0)
(0.17138 8.54375e-06 0)
(0.17135 8.53089e-06 0)
(0.171322 8.37954e-06 0)
(0.171295 8.13612e-06 0)
(0.17127 7.82911e-06 0)
(0.171246 7.48154e-06 0)
(0.171223 7.10847e-06 0)
(0.171202 6.7225e-06 0)
(0.171182 6.33254e-06 0)
(0.171164 5.9452e-06 0)
(0.171146 5.56539e-06 0)
(0.17113 5.19668e-06 0)
(0.171115 4.84161e-06 0)
(0.1711 4.50187e-06 0)
(0.171087 4.1785e-06 0)
(0.171075 3.87208e-06 0)
(0.171063 3.58282e-06 0)
(0.171053 3.31068e-06 0)
(0.171043 3.05536e-06 0)
(0.171033 2.81641e-06 0)
(0.171025 2.59325e-06 0)
(0.171017 2.38525e-06 0)
(0.17101 2.19175e-06 0)
(0.171003 2.01203e-06 0)
(0.170997 1.84536e-06 0)
(0.170991 1.69099e-06 0)
(0.170985 1.5482e-06 0)
(0.17098 1.41627e-06 0)
(0.170976 1.29453e-06 0)
(0.170972 1.18232e-06 0)
(0.170968 1.079e-06 0)
(0.170964 9.83953e-07 0)
(0.170961 8.96592e-07 0)
(0.170958 8.16382e-07 0)
(0.170955 7.42801e-07 0)
(0.170952 6.75373e-07 0)
(0.17095 6.13634e-07 0)
(0.170948 5.57162e-07 0)
(0.170946 5.05557e-07 0)
(0.170944 4.58446e-07 0)
(0.170942 4.15477e-07 0)
(0.170941 3.76309e-07 0)
(0.170939 3.40646e-07 0)
(0.170938 3.08197e-07 0)
(0.170937 2.78728e-07 0)
(0.170936 2.51992e-07 0)
(0.170935 2.27785e-07 0)
(0.170934 2.05867e-07 0)
(0.170933 1.86093e-07 0)
(0.170933 1.68161e-07 0)
(0.170932 1.52192e-07 0)
(0.170931 1.37478e-07 0)
(0.170931 1.24996e-07 0)
(0.17093 1.12658e-07 0)
(0.17093 1.0365e-07 0)
(0.170929 9.26646e-08 0)
(0.170929 8.74037e-08 0)
(0.170929 7.66853e-08 0)
(0.170928 7.55113e-08 0)
(0.170928 6.46229e-08 0)
(0.170928 6.65551e-08 0)
(0.170927 5.75212e-08 0)
(0.170927 5.93412e-08 0)
(0.170927 5.47259e-08 0)
(0.170927 5.54645e-08 0)
(0.170927 5.67463e-08 0)
(0.193852 0.00706658 0)
(0.194511 0.00870348 0)
(0.195614 0.00982571 0)
(0.197215 0.0104857 0)
(0.199085 0.0106477 0)
(0.200556 0.010405 0)
(0.201417 0.00980093 0)
(0.201892 0.0088452 0)
(0.201987 0.00775757 0)
(0.201628 0.00673168 0)
(0.200951 0.00574269 0)
(0.200096 0.00474953 0)
(0.199123 0.00380396 0)
(0.1981 0.00296 0)
(0.197096 0.00220832 0)
(0.196143 0.00152978 0)
(0.195256 0.000941312 0)
(0.19447 0.000479045 0)
(0.193821 0.000150904 0)
(0.193322 -5.08676e-05 0)
(0.192969 -0.000148899 0)
(0.192737 -0.00017343 0)
(0.192592 -0.00015448 0)
(0.192501 -0.000116766 0)
(0.192438 -7.65057e-05 0)
(0.192386 -4.19354e-05 0)
(0.192337 -1.58097e-05 0)
(0.192287 2.18829e-06 0)
(0.192235 1.37189e-05 0)
(0.192181 2.06376e-05 0)
(0.192128 2.44115e-05 0)
(0.192075 2.61521e-05 0)
(0.192025 2.66359e-05 0)
(0.191976 2.63601e-05 0)
(0.19193 2.56337e-05 0)
(0.191886 2.46453e-05 0)
(0.191845 2.35081e-05 0)
(0.191807 2.22958e-05 0)
(0.19177 2.10532e-05 0)
(0.191736 1.98108e-05 0)
(0.191705 1.85881e-05 0)
(0.191675 1.73987e-05 0)
(0.191647 1.62516e-05 0)
(0.191621 1.51526e-05 0)
(0.191597 1.4105e-05 0)
(0.191574 1.31107e-05 0)
(0.191553 1.21704e-05 0)
(0.191534 1.12838e-05 0)
(0.191516 1.04501e-05 0)
(0.191499 9.66776e-06 0)
(0.191483 8.93512e-06 0)
(0.191468 8.25024e-06 0)
(0.191455 7.61104e-06 0)
(0.191442 7.01534e-06 0)
(0.19143 6.46087e-06 0)
(0.191419 5.94542e-06 0)
(0.191409 5.46679e-06 0)
(0.1914 5.02287e-06 0)
(0.191391 4.61156e-06 0)
(0.191383 4.23082e-06 0)
(0.191376 3.87868e-06 0)
(0.191369 3.5533e-06 0)
(0.191363 3.25291e-06 0)
(0.191357 2.97583e-06 0)
(0.191352 2.72047e-06 0)
(0.191347 2.48531e-06 0)
(0.191342 2.26891e-06 0)
(0.191338 2.06995e-06 0)
(0.191334 1.88715e-06 0)
(0.19133 1.71934e-06 0)
(0.191327 1.56541e-06 0)
(0.191324 1.42433e-06 0)
(0.191322 1.29513e-06 0)
(0.191319 1.17691e-06 0)
(0.191317 1.06882e-06 0)
(0.191315 9.70057e-07 0)
(0.191313 8.7989e-07 0)
(0.191311 7.9764e-07 0)
(0.191309 7.22694e-07 0)
(0.191308 6.5448e-07 0)
(0.191307 5.92463e-07 0)
(0.191305 5.361e-07 0)
(0.191304 4.85021e-07 0)
(0.191303 4.38522e-07 0)
(0.191302 3.96838e-07 0)
(0.191301 3.58331e-07 0)
(0.191301 3.25154e-07 0)
(0.1913 2.92585e-07 0)
(0.191299 2.67737e-07 0)
(0.191299 2.38761e-07 0)
(0.191298 2.22516e-07 0)
(0.191298 1.95099e-07 0)
(0.191297 1.8724e-07 0)
(0.191297 1.61134e-07 0)
(0.191297 1.59034e-07 0)
(0.191296 1.3743e-07 0)
(0.191296 1.36296e-07 0)
(0.191296 1.22037e-07 0)
(0.191295 1.21268e-07 0)
(0.191295 1.14134e-07 0)
(0.194621 0.00663543 0)
(0.195328 0.00790156 0)
(0.196288 0.00882432 0)
(0.197512 0.00952401 0)
(0.199171 0.00979822 0)
(0.200825 0.00962296 0)
(0.202098 0.00913114 0)
(0.20307 0.00835047 0)
(0.203779 0.00742742 0)
(0.204164 0.0065556 0)
(0.204288 0.00571205 0)
(0.204234 0.00481667 0)
(0.204024 0.00392929 0)
(0.203688 0.00313905 0)
(0.203271 0.00244344 0)
(0.202802 0.00181271 0)
(0.202291 0.00125316 0)
(0.201759 0.000790024 0)
(0.201237 0.000434406 0)
(0.200763 0.000187942 0)
(0.20036 3.85031e-05 0)
(0.200036 -3.42748e-05 0)
(0.199786 -5.43284e-05 0)
(0.199594 -4.46383e-05 0)
(0.199445 -2.25671e-05 0)
(0.199326 1.23922e-06 0)
(0.199225 2.14386e-05 0)
(0.199136 3.62835e-05 0)
(0.199055 4.59046e-05 0)
(0.19898 5.12324e-05 0)
(0.198909 5.34683e-05 0)
(0.198843 5.36398e-05 0)
(0.19878 5.25133e-05 0)
(0.198721 5.06157e-05 0)
(0.198666 4.82915e-05 0)
(0.198614 4.57577e-05 0)
(0.198566 4.3147e-05 0)
(0.19852 4.05416e-05 0)
(0.198478 3.79903e-05 0)
(0.198439 3.55225e-05 0)
(0.198402 3.31554e-05 0)
(0.198368 3.08985e-05 0)
(0.198336 2.87566e-05 0)
(0.198306 2.6731e-05 0)
(0.198278 2.48209e-05 0)
(0.198252 2.30239e-05 0)
(0.198228 2.13369e-05 0)
(0.198206 1.97558e-05 0)
(0.198185 1.82765e-05 0)
(0.198165 1.68941e-05 0)
(0.198147 1.5604e-05 0)
(0.19813 1.44014e-05 0)
(0.198115 1.32817e-05 0)
(0.1981 1.22402e-05 0)
(0.198087 1.12722e-05 0)
(0.198075 1.03736e-05 0)
(0.198063 9.53989e-06 0)
(0.198053 8.76721e-06 0)
(0.198043 8.05167e-06 0)
(0.198034 7.38954e-06 0)
(0.198025 6.7773e-06 0)
(0.198017 6.21162e-06 0)
(0.19801 5.68936e-06 0)
(0.198004 5.20756e-06 0)
(0.197997 4.76342e-06 0)
(0.197992 4.35427e-06 0)
(0.197987 3.97765e-06 0)
(0.197982 3.6312e-06 0)
(0.197977 3.31276e-06 0)
(0.197973 3.02025e-06 0)
(0.19797 2.75177e-06 0)
(0.197966 2.50553e-06 0)
(0.197963 2.27987e-06 0)
(0.19796 2.07323e-06 0)
(0.197958 1.88414e-06 0)
(0.197955 1.71122e-06 0)
(0.197953 1.55322e-06 0)
(0.197951 1.40896e-06 0)
(0.197949 1.27737e-06 0)
(0.197947 1.15746e-06 0)
(0.197946 1.04831e-06 0)
(0.197945 9.48965e-07 0)
(0.197943 8.58836e-07 0)
(0.197942 7.76625e-07 0)
(0.197941 7.02877e-07 0)
(0.19794 6.34506e-07 0)
(0.197939 5.75606e-07 0)
(0.197938 5.17439e-07 0)
(0.197938 4.73044e-07 0)
(0.197937 4.21154e-07 0)
(0.197936 3.91275e-07 0)
(0.197936 3.43001e-07 0)
(0.197935 3.25944e-07 0)
(0.197935 2.81931e-07 0)
(0.197935 2.73027e-07 0)
(0.197934 2.36797e-07 0)
(0.197934 2.31101e-07 0)
(0.197933 2.0443e-07 0)
(0.197933 2.01582e-07 0)
(0.197933 1.83255e-07 0)
(0.195293 0.00626154 0)
(0.195926 0.00729386 0)
(0.196845 0.00807325 0)
(0.197827 0.00876445 0)
(0.19913 0.0090715 0)
(0.200634 0.00892121 0)
(0.201923 0.00853222 0)
(0.202905 0.00790905 0)
(0.203661 0.00709537 0)
(0.204189 0.00630044 0)
(0.204512 0.00556265 0)
(0.20469 0.00478156 0)
(0.20474 0.00397658 0)
(0.204658 0.00323997 0)
(0.204463 0.00259254 0)
(0.204191 0.00200426 0)
(0.20386 0.00147044 0)
(0.203485 0.00101595 0)
(0.203082 0.000658056 0)
(0.202681 0.000396145 0)
(0.202309 0.000221312 0)
(0.201983 0.000119209 0)
(0.201709 7.05163e-05 0)
(0.201483 5.54333e-05 0)
(0.201298 5.79344e-05 0)
(0.201145 6.72255e-05 0)
(0.201017 7.70819e-05 0)
(0.200907 8.45504e-05 0)
(0.20081 8.88018e-05 0)
(0.200722 9.00815e-05 0)
(0.200642 8.90685e-05 0)
(0.200568 8.64703e-05 0)
(0.2005 8.28789e-05 0)
(0.200436 7.87333e-05 0)
(0.200377 7.43349e-05 0)
(0.200322 6.98784e-05 0)
(0.20027 6.54839e-05 0)
(0.200222 6.12232e-05 0)
(0.200178 5.71365e-05 0)
(0.200136 5.3245e-05 0)
(0.200097 4.95576e-05 0)
(0.200061 4.60762e-05 0)
(0.200028 4.27984e-05 0)
(0.199996 3.9719e-05 0)
(0.199967 3.68308e-05 0)
(0.19994 3.41261e-05 0)
(0.199915 3.15964e-05 0)
(0.199891 2.92331e-05 0)
(0.199869 2.70277e-05 0)
(0.199849 2.49715e-05 0)
(0.19983 2.30561e-05 0)
(0.199812 2.12734e-05 0)
(0.199796 1.96156e-05 0)
(0.199781 1.80752e-05 0)
(0.199767 1.66449e-05 0)
(0.199754 1.53178e-05 0)
(0.199742 1.40874e-05 0)
(0.199731 1.29475e-05 0)
(0.19972 1.18922e-05 0)
(0.199711 1.09159e-05 0)
(0.199702 1.00133e-05 0)
(0.199694 9.17945e-06 0)
(0.199686 8.40958e-06 0)
(0.199679 7.69932e-06 0)
(0.199673 7.04452e-06 0)
(0.199667 6.44123e-06 0)
(0.199662 5.88581e-06 0)
(0.199657 5.3748e-06 0)
(0.199652 4.90498e-06 0)
(0.199648 4.47331e-06 0)
(0.199644 4.07701e-06 0)
(0.19964 3.71341e-06 0)
(0.199637 3.38008e-06 0)
(0.199634 3.07473e-06 0)
(0.199631 2.79521e-06 0)
(0.199629 2.53951e-06 0)
(0.199627 2.30576e-06 0)
(0.199624 2.09226e-06 0)
(0.199623 1.89741e-06 0)
(0.199621 1.71975e-06 0)
(0.199619 1.55794e-06 0)
(0.199618 1.41056e-06 0)
(0.199616 1.2768e-06 0)
(0.199615 1.15466e-06 0)
(0.199614 1.04509e-06 0)
(0.199613 9.43287e-07 0)
(0.199612 8.55669e-07 0)
(0.199611 7.68793e-07 0)
(0.199611 7.02581e-07 0)
(0.19961 6.25005e-07 0)
(0.199609 5.79792e-07 0)
(0.199609 5.08346e-07 0)
(0.199608 4.8057e-07 0)
(0.199608 4.16995e-07 0)
(0.199607 3.99855e-07 0)
(0.199607 3.476e-07 0)
(0.199607 3.36505e-07 0)
(0.199606 2.95701e-07 0)
(0.199606 2.90411e-07 0)
(0.199605 2.59488e-07 0)
(0.195912 0.00591957 0)
(0.196434 0.00681849 0)
(0.19729 0.00746452 0)
(0.198128 0.00805488 0)
(0.19916 0.00839073 0)
(0.20048 0.00830727 0)
(0.201683 0.00797148 0)
(0.202566 0.0074489 0)
(0.203263 0.00675624 0)
(0.203825 0.00605396 0)
(0.2042 0.00540607 0)
(0.204414 0.00471797 0)
(0.204518 0.00397479 0)
(0.204518 0.00327124 0)
(0.204406 0.0026573 0)
(0.204208 0.00210994 0)
(0.20396 0.0016145 0)
(0.203672 0.00118795 0)
(0.203349 0.000844532 0)
(0.20301 0.000583488 0)
(0.20268 0.000397657 0)
(0.202378 0.000276174 0)
(0.202112 0.00020456 0)
(0.201885 0.000167164 0)
(0.201692 0.000150285 0)
(0.20153 0.000143905 0)
(0.201393 0.000141678 0)
(0.201275 0.000140081 0)
(0.201171 0.000137535 0)
(0.201078 0.000133606 0)
(0.200994 0.000128443 0)
(0.200917 0.000122401 0)
(0.200847 0.000115848 0)
(0.200781 0.000109084 0)
(0.200721 0.00010233 0)
(0.200665 9.57297e-05 0)
(0.200612 8.93713e-05 0)
(0.200564 8.33047e-05 0)
(0.200518 7.75537e-05 0)
(0.200476 7.21258e-05 0)
(0.200437 6.70184e-05 0)
(0.2004 6.22235e-05 0)
(0.200366 5.77297e-05 0)
(0.200335 5.35237e-05 0)
(0.200305 4.95916e-05 0)
(0.200278 4.59188e-05 0)
(0.200252 4.24914e-05 0)
(0.200228 3.92954e-05 0)
(0.200206 3.63175e-05 0)
(0.200186 3.35448e-05 0)
(0.200166 3.09647e-05 0)
(0.200149 2.85656e-05 0)
(0.200132 2.63363e-05 0)
(0.200117 2.42661e-05 0)
(0.200103 2.2345e-05 0)
(0.20009 2.05632e-05 0)
(0.200077 1.89118e-05 0)
(0.200066 1.73822e-05 0)
(0.200056 1.59664e-05 0)
(0.200046 1.46569e-05 0)
(0.200037 1.34462e-05 0)
(0.200029 1.23278e-05 0)
(0.200021 1.12953e-05 0)
(0.200014 1.03427e-05 0)
(0.200008 9.46448e-06 0)
(0.200002 8.65528e-06 0)
(0.199996 7.91021e-06 0)
(0.199991 7.22464e-06 0)
(0.199987 6.59426e-06 0)
(0.199982 6.01499e-06 0)
(0.199979 5.4831e-06 0)
(0.199975 4.99501e-06 0)
(0.199972 4.54748e-06 0)
(0.199969 4.13742e-06 0)
(0.199966 3.76197e-06 0)
(0.199963 3.41845e-06 0)
(0.199961 3.10434e-06 0)
(0.199959 2.81738e-06 0)
(0.199957 2.55541e-06 0)
(0.199955 2.31648e-06 0)
(0.199953 2.09881e-06 0)
(0.199952 1.90045e-06 0)
(0.199951 1.7204e-06 0)
(0.199949 1.55587e-06 0)
(0.199948 1.40829e-06 0)
(0.199947 1.27101e-06 0)
(0.199946 1.15288e-06 0)
(0.199945 1.03558e-06 0)
(0.199945 9.46111e-07 0)
(0.199944 8.41413e-07 0)
(0.199943 7.79679e-07 0)
(0.199943 6.83926e-07 0)
(0.199942 6.44422e-07 0)
(0.199942 5.60324e-07 0)
(0.199941 5.34322e-07 0)
(0.199941 4.64899e-07 0)
(0.199941 4.48275e-07 0)
(0.19994 3.92102e-07 0)
(0.19994 3.84345e-07 0)
(0.19994 3.39922e-07 0)
(0.196475 0.00561167 0)
(0.196877 0.00639969 0)
(0.197639 0.00693084 0)
(0.198409 0.00741205 0)
(0.199254 0.00776474 0)
(0.20036 0.00772863 0)
(0.201442 0.00741177 0)
(0.202247 0.00698907 0)
(0.202894 0.00644716 0)
(0.203454 0.00582582 0)
(0.203832 0.00520842 0)
(0.204028 0.00457504 0)
(0.204138 0.00390607 0)
(0.204185 0.00326488 0)
(0.20413 0.00270281 0)
(0.203977 0.00220612 0)
(0.203772 0.0017529 0)
(0.203534 0.00135126 0)
(0.203263 0.00101775 0)
(0.20297 0.000756554 0)
(0.202678 0.000562088 0)
(0.202405 0.000425373 0)
(0.202159 0.000335241 0)
(0.201942 0.000279098 0)
(0.201754 0.000245158 0)
(0.201593 0.000224284 0)
(0.201455 0.000210303 0)
(0.201334 0.000199433 0)
(0.201229 0.00018963 0)
(0.201134 0.000179973 0)
(0.201049 0.000170191 0)
(0.200972 0.000160321 0)
(0.2009 0.000150505 0)
(0.200835 0.000140892 0)
(0.200774 0.000131602 0)
(0.200718 0.000122715 0)
(0.200665 0.000114278 0)
(0.200617 0.000106309 0)
(0.200571 9.88114e-05 0)
(0.200529 9.17749e-05 0)
(0.20049 8.51837e-05 0)
(0.200453 7.90179e-05 0)
(0.200419 7.32562e-05 0)
(0.200388 6.78765e-05 0)
(0.200358 6.28571e-05 0)
(0.200331 5.81768e-05 0)
(0.200305 5.38152e-05 0)
(0.200282 4.9753e-05 0)
(0.20026 4.59717e-05 0)
(0.200239 4.24538e-05 0)
(0.20022 3.91827e-05 0)
(0.200202 3.61428e-05 0)
(0.200186 3.33195e-05 0)
(0.200171 3.06987e-05 0)
(0.200156 2.82674e-05 0)
(0.200143 2.6013e-05 0)
(0.200131 2.39241e-05 0)
(0.20012 2.19897e-05 0)
(0.20011 2.01994e-05 0)
(0.2001 1.85435e-05 0)
(0.200091 1.70128e-05 0)
(0.200083 1.55988e-05 0)
(0.200075 1.42934e-05 0)
(0.200068 1.30891e-05 0)
(0.200062 1.19787e-05 0)
(0.200056 1.09555e-05 0)
(0.20005 1.00134e-05 0)
(0.200045 9.14652e-06 0)
(0.200041 8.34933e-06 0)
(0.200036 7.61673e-06 0)
(0.200032 6.94396e-06 0)
(0.200029 6.32655e-06 0)
(0.200026 5.76037e-06 0)
(0.200023 5.24154e-06 0)
(0.20002 4.76643e-06 0)
(0.200017 4.33166e-06 0)
(0.200015 3.93407e-06 0)
(0.200013 3.57078e-06 0)
(0.200011 3.23909e-06 0)
(0.200009 2.9365e-06 0)
(0.200007 2.66078e-06 0)
(0.200006 2.40946e-06 0)
(0.200005 2.18131e-06 0)
(0.200003 1.97275e-06 0)
(0.200002 1.78566e-06 0)
(0.200001 1.61153e-06 0)
(0.2 1.46165e-06 0)
(0.199999 1.31282e-06 0)
(0.199999 1.19906e-06 0)
(0.199998 1.06636e-06 0)
(0.199997 9.87223e-07 0)
(0.199997 8.66455e-07 0)
(0.199996 8.14531e-07 0)
(0.199996 7.09254e-07 0)
(0.199995 6.73992e-07 0)
(0.199995 5.86608e-07 0)
(0.199995 5.64451e-07 0)
(0.199994 4.91969e-07 0)
(0.199994 4.81863e-07 0)
(0.199994 4.23281e-07 0)
(0.196962 0.00532144 0)
(0.197276 0.00600623 0)
(0.197938 0.00647606 0)
(0.198659 0.00685309 0)
(0.199356 0.00716177 0)
(0.20026 0.00717168 0)
(0.201238 0.00691566 0)
(0.20199 0.00657525 0)
(0.202563 0.00613023 0)
(0.203079 0.00556089 0)
(0.20346 0.00497584 0)
(0.203663 0.00442089 0)
(0.20378 0.00385638 0)
(0.203854 0.00328814 0)
(0.203835 0.00276379 0)
(0.203714 0.00229605 0)
(0.203537 0.00187032 0)
(0.203335 0.00148844 0)
(0.203107 0.00116567 0)
(0.202856 0.000908151 0)
(0.202599 0.000710614 0)
(0.202354 0.000564501 0)
(0.202128 0.000460718 0)
(0.201926 0.000389329 0)
(0.201747 0.000340576 0)
(0.201591 0.000306452 0)
(0.201455 0.000281237 0)
(0.201336 0.00026117 0)
(0.201231 0.000243958 0)
(0.201136 0.000228333 0)
(0.201051 0.000213681 0)
(0.200973 0.000199755 0)
(0.200902 0.000186482 0)
(0.200837 0.00017386 0)
(0.200776 0.000161905 0)
(0.20072 0.000150626 0)
(0.200668 0.000140021 0)
(0.20062 0.000130076 0)
(0.200575 0.000120766 0)
(0.200533 0.000112064 0)
(0.200494 0.000103938 0)
(0.200458 9.63549e-05 0)
(0.200424 8.9283e-05 0)
(0.200392 8.2691e-05 0)
(0.200363 7.65488e-05 0)
(0.200336 7.0828e-05 0)
(0.20031 6.5502e-05 0)
(0.200287 6.05455e-05 0)
(0.200265 5.59349e-05 0)
(0.200245 5.16479e-05 0)
(0.200226 4.76636e-05 0)
(0.200208 4.39624e-05 0)
(0.200192 4.05259e-05 0)
(0.200177 3.73369e-05 0)
(0.200163 3.4379e-05 0)
(0.20015 3.1637e-05 0)
(0.200137 2.90966e-05 0)
(0.200126 2.67443e-05 0)
(0.200116 2.45675e-05 0)
(0.200106 2.25542e-05 0)
(0.200098 2.06932e-05 0)
(0.200089 1.89742e-05 0)
(0.200082 1.73872e-05 0)
(0.200075 1.59231e-05 0)
(0.200068 1.45731e-05 0)
(0.200063 1.33292e-05 0)
(0.200057 1.21838e-05 0)
(0.200052 1.11298e-05 0)
(0.200048 1.01604e-05 0)
(0.200043 9.26959e-06 0)
(0.200039 8.45146e-06 0)
(0.200036 7.7006e-06 0)
(0.200033 7.012e-06 0)
(0.20003 6.38092e-06 0)
(0.200027 5.80296e-06 0)
(0.200024 5.27403e-06 0)
(0.200022 4.79029e-06 0)
(0.20002 4.34824e-06 0)
(0.200018 3.9446e-06 0)
(0.200016 3.57631e-06 0)
(0.200015 3.2407e-06 0)
(0.200013 2.93473e-06 0)
(0.200012 2.65693e-06 0)
(0.20001 2.40294e-06 0)
(0.200009 2.17506e-06 0)
(0.200008 1.96295e-06 0)
(0.200007 1.78025e-06 0)
(0.200007 1.59896e-06 0)
(0.200006 1.46e-06 0)
(0.200005 1.29857e-06 0)
(0.200005 1.20128e-06 0)
(0.200004 1.05488e-06 0)
(0.200003 9.90028e-07 0)
(0.200003 8.62887e-07 0)
(0.200003 8.18152e-07 0)
(0.200002 7.12108e-07 0)
(0.200002 6.8432e-07 0)
(0.200001 5.94886e-07 0)
(0.200001 5.82477e-07 0)
(0.200001 5.09166e-07 0)
(0.197381 0.00505936 0)
(0.197645 0.00564491 0)
(0.198196 0.0060711 0)
(0.198857 0.00635613 0)
(0.199463 0.00660744 0)
(0.200207 0.00667295 0)
(0.201066 0.00647722 0)
(0.201751 0.00616418 0)
(0.202254 0.00578415 0)
(0.202732 0.00530603 0)
(0.203128 0.00479357 0)
(0.203344 0.00430591 0)
(0.203452 0.0038108 0)
(0.203526 0.00329128 0)
(0.203535 0.00279388 0)
(0.203448 0.00235245 0)
(0.203302 0.00195879 0)
(0.203133 0.00160441 0)
(0.202942 0.00129795 0)
(0.202726 0.00104696 0)
(0.202501 0.000848635 0)
(0.202282 0.000695714 0)
(0.202077 0.000580882 0)
(0.20189 0.000496533 0)
(0.201722 0.000434795 0)
(0.201573 0.000388734 0)
(0.201441 0.000353108 0)
(0.201325 0.000324268 0)
(0.201221 0.000299798 0)
(0.201127 0.000278191 0)
(0.201043 0.000258572 0)
(0.200966 0.000240462 0)
(0.200895 0.000223604 0)
(0.20083 0.000207856 0)
(0.20077 0.000193135 0)
(0.200715 0.000179377 0)
(0.200663 0.00016653 0)
(0.200615 0.000154543 0)
(0.20057 0.000143365 0)
(0.200529 0.000132946 0)
(0.20049 0.000123239 0)
(0.200454 0.000114197 0)
(0.200421 0.000105776 0)
(0.20039 9.79363e-05 0)
(0.200361 9.06387e-05 0)
(0.200334 8.38473e-05 0)
(0.200309 7.75289e-05 0)
(0.200285 7.16522e-05 0)
(0.200263 6.61883e-05 0)
(0.200243 6.11098e-05 0)
(0.200224 5.63915e-05 0)
(0.200207 5.20097e-05 0)
(0.200191 4.79423e-05 0)
(0.200176 4.41685e-05 0)
(0.200162 4.06688e-05 0)
(0.200149 3.74249e-05 0)
(0.200137 3.44198e-05 0)
(0.200126 3.16375e-05 0)
(0.200116 2.90628e-05 0)
(0.200106 2.66817e-05 0)
(0.200097 2.44809e-05 0)
(0.200089 2.24479e-05 0)
(0.200082 2.05712e-05 0)
(0.200075 1.88396e-05 0)
(0.200069 1.72432e-05 0)
(0.200063 1.57721e-05 0)
(0.200057 1.44174e-05 0)
(0.200052 1.31708e-05 0)
(0.200048 1.20243e-05 0)
(0.200044 1.09706e-05 0)
(0.20004 1.00029e-05 0)
(0.200036 9.1147e-06 0)
(0.200033 8.30009e-06 0)
(0.20003 7.5535e-06 0)
(0.200027 6.8697e-06 0)
(0.200025 6.24387e-06 0)
(0.200023 5.67147e-06 0)
(0.20002 5.14836e-06 0)
(0.200019 4.67067e-06 0)
(0.200017 4.23478e-06 0)
(0.200015 3.83752e-06 0)
(0.200014 3.47531e-06 0)
(0.200012 3.14642e-06 0)
(0.200011 2.84568e-06 0)
(0.20001 2.5758e-06 0)
(0.200009 2.32462e-06 0)
(0.200008 2.1081e-06 0)
(0.200007 1.89349e-06 0)
(0.200007 1.72848e-06 0)
(0.200006 1.53763e-06 0)
(0.200005 1.4215e-06 0)
(0.200005 1.24884e-06 0)
(0.200004 1.17062e-06 0)
(0.200004 1.02093e-06 0)
(0.200003 9.66579e-07 0)
(0.200003 8.41142e-07 0)
(0.200003 8.07662e-07 0)
(0.200002 7.0075e-07 0)
(0.200002 6.85958e-07 0)
(0.200001 5.97416e-07 0)
(0.197737 0.00482776 0)
(0.197973 0.00530924 0)
(0.198423 0.00569445 0)
(0.199021 0.00592893 0)
(0.199571 0.00612464 0)
(0.200177 0.00620601 0)
(0.200903 0.00605502 0)
(0.201534 0.00577872 0)
(0.202002 0.00547372 0)
(0.202437 0.00509088 0)
(0.202818 0.00463251 0)
(0.203036 0.00417254 0)
(0.203137 0.00372263 0)
(0.203212 0.00326011 0)
(0.203247 0.0028079 0)
(0.203196 0.00240066 0)
(0.203079 0.00203832 0)
(0.202936 0.00170934 0)
(0.202774 0.00141776 0)
(0.202591 0.00117268 0)
(0.202394 0.000974378 0)
(0.2022 0.000816905 0)
(0.202015 0.000693868 0)
(0.201844 0.000599217 0)
(0.201688 0.000526631 0)
(0.201546 0.000470189 0)
(0.20142 0.00042517 0)
(0.201307 0.000388143 0)
(0.201206 0.000356698 0)
(0.201114 0.000329203 0)
(0.201031 0.000304606 0)
(0.200955 0.000282251 0)
(0.200885 0.000261727 0)
(0.200821 0.000242771 0)
(0.200762 0.000225205 0)
(0.200707 0.000208898 0)
(0.200656 0.000193747 0)
(0.200608 0.000179662 0)
(0.200564 0.000166564 0)
(0.200523 0.000154383 0)
(0.200485 0.000143053 0)
(0.200449 0.000132514 0)
(0.200416 0.000122709 0)
(0.200385 0.000113589 0)
(0.200357 0.000105106 0)
(0.20033 9.72157e-05 0)
(0.200305 8.98786e-05 0)
(0.200282 8.30574e-05 0)
(0.200261 7.67174e-05 0)
(0.200241 7.08264e-05 0)
(0.200222 6.53545e-05 0)
(0.200205 6.0274e-05 0)
(0.200189 5.55587e-05 0)
(0.200174 5.11844e-05 0)
(0.20016 4.71282e-05 0)
(0.200147 4.3369e-05 0)
(0.200136 3.98867e-05 0)
(0.200125 3.66628e-05 0)
(0.200115 3.36796e-05 0)
(0.200105 3.09208e-05 0)
(0.200097 2.83709e-05 0)
(0.200089 2.60155e-05 0)
(0.200081 2.38411e-05 0)
(0.200074 2.1835e-05 0)
(0.200068 1.99853e-05 0)
(0.200062 1.82809e-05 0)
(0.200057 1.67114e-05 0)
(0.200052 1.52669e-05 0)
(0.200047 1.39385e-05 0)
(0.200043 1.27176e-05 0)
(0.200039 1.15962e-05 0)
(0.200036 1.0567e-05 0)
(0.200033 9.62298e-06 0)
(0.20003 8.75775e-06 0)
(0.200027 7.96525e-06 0)
(0.200025 7.2399e-06 0)
(0.200022 6.57644e-06 0)
(0.20002 5.97009e-06 0)
(0.200018 5.41636e-06 0)
(0.200017 4.91103e-06 0)
(0.200015 4.45047e-06 0)
(0.200014 4.03049e-06 0)
(0.200012 3.64912e-06 0)
(0.200011 3.30038e-06 0)
(0.20001 2.98735e-06 0)
(0.200009 2.69608e-06 0)
(0.200008 2.44479e-06 0)
(0.200007 2.196e-06 0)
(0.200007 2.00416e-06 0)
(0.200006 1.78318e-06 0)
(0.200005 1.64761e-06 0)
(0.200005 1.44805e-06 0)
(0.200004 1.35607e-06 0)
(0.200004 1.18317e-06 0)
(0.200003 1.11906e-06 0)
(0.200003 9.73556e-07 0)
(0.200003 9.34328e-07 0)
(0.200002 8.09411e-07 0)
(0.200002 7.92136e-07 0)
(0.200002 6.87919e-07 0)
(0.198034 0.00461744 0)
(0.198263 0.00500474 0)
(0.198635 0.00534918 0)
(0.199158 0.00555471 0)
(0.199657 0.00569331 0)
(0.200162 0.00576781 0)
(0.200774 0.00567361 0)
(0.201354 0.00544953 0)
(0.201787 0.00518832 0)
(0.202166 0.00486093 0)
(0.202515 0.00444919 0)
(0.202742 0.00402581 0)
(0.202851 0.00362799 0)
(0.202928 0.00322779 0)
(0.202977 0.0028223 0)
(0.202952 0.00244334 0)
(0.202861 0.00210415 0)
(0.202741 0.00179689 0)
(0.202606 0.00152094 0)
(0.202451 0.00128386 0)
(0.202282 0.00108786 0)
(0.20211 0.000928375 0)
(0.201945 0.00079977 0)
(0.20179 0.000697156 0)
(0.201645 0.000615595 0)
(0.201513 0.000550186 0)
(0.201393 0.000496778 0)
(0.201284 0.000452217 0)
(0.201186 0.000414179 0)
(0.201097 0.000380993 0)
(0.201016 0.000351497 0)
(0.200941 0.000324904 0)
(0.200873 0.000300686 0)
(0.20081 0.000278476 0)
(0.200751 0.000258014 0)
(0.200697 0.000239107 0)
(0.200647 0.000221602 0)
(0.2006 0.000205373 0)
(0.200557 0.000190314 0)
(0.200516 0.000176332 0)
(0.200478 0.000163343 0)
(0.200443 0.000151272 0)
(0.200411 0.000140052 0)
(0.20038 0.000129622 0)
(0.200352 0.000119925 0)
(0.200326 0.000110911 0)
(0.200301 0.000102531 0)
(0.200278 9.47426e-05 0)
(0.200257 8.75055e-05 0)
(0.200237 8.07824e-05 0)
(0.200219 7.45387e-05 0)
(0.200202 6.87423e-05 0)
(0.200186 6.33633e-05 0)
(0.200172 5.83738e-05 0)
(0.200158 5.37476e-05 0)
(0.200146 4.94603e-05 0)
(0.200134 4.54891e-05 0)
(0.200123 4.18126e-05 0)
(0.200113 3.84108e-05 0)
(0.200104 3.52649e-05 0)
(0.200095 3.23573e-05 0)
(0.200087 2.96716e-05 0)
(0.20008 2.71922e-05 0)
(0.200073 2.49047e-05 0)
(0.200067 2.27955e-05 0)
(0.200061 2.0852e-05 0)
(0.200056 1.90622e-05 0)
(0.200051 1.74151e-05 0)
(0.200047 1.59002e-05 0)
(0.200043 1.45079e-05 0)
(0.200039 1.32291e-05 0)
(0.200036 1.20553e-05 0)
(0.200032 1.09787e-05 0)
(0.200029 9.99189e-06 0)
(0.200027 9.08799e-06 0)