/*--------------------------------*- C++ -*----------------------------------*\
| =========                 |                                                 |
| \\      /  F ield         | OpenFOAM: The Open Source CFD Toolbox           |
|  \\    /   O peration     | Version:  2.3.0                                 |
|   \\  /    A nd           | Web:      www.OpenFOAM.org                      |
|    \\/     M anipulation  |                                                 |
\*---------------------------------------------------------------------------*/
FoamFile
{
    version     2.0;
    format      ascii;
    class       surfaceScalarField;
    location    "0.05";
    object      phi_0;
}
// * * * * * * * * * * * * * * * * * * * * * * * * * * * * * * * * * * * * * //

dimensions      [0 3 -1 0 0 0 0];

internalField   nonuniform List<scalar> 
4357
(
5.08284e-08
1.70159e-09
-5.253e-08
4.86834e-08
2.14504e-09
4.63542e-08
2.3291e-09
4.3997e-08
2.35727e-09
4.16369e-08
2.36004e-09
3.92744e-08
2.36254e-09
3.69514e-08
2.32305e-09
3.46968e-08
2.25457e-09
3.24794e-08
2.2174e-09
3.03175e-08
2.16184e-09
2.83047e-08
2.01289e-09
2.64842e-08
1.82047e-09
2.4825e-08
1.65919e-09
2.33176e-08
1.50736e-09
2.20276e-08
1.29008e-09
2.10398e-08
9.87778e-10
2.0387e-08
6.52764e-10
2.00316e-08
3.55394e-10
1.98906e-08
1.4101e-10
1.98718e-08
1.88618e-11
1.99068e-08
-3.50295e-11
1.99432e-08
-3.64569e-11
1.99579e-08
-1.46736e-11
1.9944e-08
1.38786e-11
1.99039e-08
4.01733e-11
1.98439e-08
5.99815e-11
1.97705e-08
7.3353e-11
1.96888e-08
8.16803e-11
1.96023e-08
8.659e-11
1.95128e-08
8.94063e-11
1.94218e-08
9.10323e-11
1.93298e-08
9.20138e-11
1.92372e-08
9.26523e-11
1.9144e-08
9.31041e-11
1.90506e-08
9.34468e-11
1.89569e-08
9.3719e-11
1.88629e-08
9.39405e-11
1.87688e-08
9.41228e-11
1.86745e-08
9.4273e-11
1.85801e-08
9.43961e-11
1.84857e-08
9.44959e-11
1.83911e-08
9.45753e-11
1.82964e-08
9.46363e-11
1.82018e-08
9.46805e-11
1.81071e-08
9.47089e-11
1.80123e-08
9.47222e-11
1.79176e-08
9.47208e-11
1.78229e-08
9.47048e-11
1.77282e-08
9.46744e-11
1.76336e-08
9.46293e-11
1.7539e-08
9.45694e-11
1.74445e-08
9.44945e-11
1.73501e-08
9.44042e-11
1.72558e-08
9.42981e-11
1.71617e-08
9.41761e-11
1.70676e-08
9.40377e-11
1.69737e-08
9.38827e-11
1.688e-08
9.37109e-11
1.67865e-08
9.35221e-11
1.66932e-08
9.33159e-11
1.66001e-08
9.30922e-11
1.65072e-08
9.28509e-11
1.64147e-08
9.25915e-11
1.63223e-08
9.23139e-11
1.62303e-08
9.20175e-11
1.61386e-08
9.17019e-11
1.60473e-08
9.13666e-11
1.59562e-08
9.10106e-11
1.58656e-08
9.06335e-11
1.57754e-08
9.02343e-11
1.56856e-08
8.98123e-11
1.55962e-08
8.93669e-11
1.55073e-08
8.88974e-11
1.54189e-08
8.84042e-11
1.5331e-08
8.78874e-11
1.52437e-08
8.73509e-11
1.51569e-08
8.68003e-11
1.50706e-08
8.62501e-11
1.49849e-08
8.57172e-11
1.48997e-08
8.52273e-11
1.48149e-08
8.47864e-11
1.47305e-08
8.44019e-11
1.46465e-08
8.3999e-11
1.45629e-08
8.35383e-11
1.448e-08
8.29271e-11
1.43979e-08
8.21409e-11
1.43167e-08
8.11188e-11
1.42369e-08
7.98352e-11
1.41584e-08
7.8543e-11
1.40812e-08
7.71227e-11
1.4005e-08
7.62482e-11
1.39298e-08
7.51552e-11
1.3855e-08
7.48728e-11
1.3781e-08
7.39392e-11
1.37073e-08
7.3752e-11
1.36343e-08
7.29413e-11
1.35619e-08
7.24395e-11
1.34892e-08
7.26636e-11
1.34187e-08
7.05849e-11
7.90661e-11
5.78818e-08
1.63376e-09
-5.7814e-08
5.79351e-08
2.0918e-09
5.7838e-08
2.42616e-09
5.75608e-08
2.63451e-09
5.71597e-08
2.76115e-09
5.6684e-08
2.83822e-09
5.61306e-08
2.87644e-09
5.55121e-08
2.87306e-09
5.48574e-08
2.87205e-09
5.41392e-08
2.88012e-09
5.33347e-08
2.81738e-09
5.24975e-08
2.65766e-09
5.16904e-08
2.46625e-09
5.09259e-08
2.2719e-09
5.01906e-08
2.02531e-09
4.94903e-08
1.68808e-09
4.88545e-08
1.2886e-09
4.83187e-08
8.91242e-10
4.79077e-08
5.52007e-10
4.76244e-08
3.0216e-10
4.74411e-08
1.48268e-10
4.7324e-08
8.05768e-11
4.72378e-08
7.15113e-11
4.71566e-08
9.51534e-11
4.70657e-08
1.31073e-10
4.6959e-08
1.66636e-10
4.68363e-08
1.96076e-10
4.67001e-08
2.17874e-10
4.65539e-08
2.32816e-10
4.64008e-08
2.42533e-10
4.62431e-08
2.48666e-10
4.60826e-08
2.52519e-10
4.59203e-08
2.55002e-10
4.57567e-08
2.56694e-10
4.55922e-08
2.57942e-10
4.5427e-08
2.58944e-10
4.52611e-08
2.59811e-10
4.50946e-08
2.60605e-10
4.49275e-08
2.61359e-10
4.47598e-08
2.62094e-10
4.45915e-08
2.62819e-10
4.44225e-08
2.63543e-10
4.42529e-08
2.64269e-10
4.40826e-08
2.65e-10
4.39115e-08
2.65736e-10
4.37398e-08
2.66477e-10
4.35673e-08
2.67223e-10
4.3394e-08
2.67973e-10
4.322e-08
2.68726e-10
4.30451e-08
2.6948e-10
4.28695e-08
2.70233e-10
4.2693e-08
2.70984e-10
4.25156e-08
2.71731e-10
4.23375e-08
2.72471e-10
4.21584e-08
2.73205e-10
4.19785e-08
2.73929e-10
4.17978e-08
2.74642e-10
4.16161e-08
2.75344e-10
4.14336e-08
2.76032e-10
4.12502e-08
2.76706e-10
4.1066e-08
2.77364e-10
4.08808e-08
2.78006e-10
4.06948e-08
2.78629e-10
4.05079e-08
2.79233e-10
4.03201e-08
2.79817e-10
4.01314e-08
2.80379e-10
3.99418e-08
2.80917e-10
3.97514e-08
2.81429e-10
3.95601e-08
2.81914e-10
3.9368e-08
2.82369e-10
3.9175e-08
2.82792e-10
3.89812e-08
2.83181e-10
3.87866e-08
2.83535e-10
3.85911e-08
2.83853e-10
3.83949e-08
2.84135e-10
3.81978e-08
2.84387e-10
3.8e-08
2.8462e-10
3.78014e-08
2.84861e-10
3.7602e-08
2.8515e-10
3.74017e-08
2.85533e-10
3.72004e-08
2.86044e-10
3.69981e-08
2.8668e-10
3.67948e-08
2.87343e-10
3.65905e-08
2.87844e-10
3.63852e-08
2.88173e-10
3.61794e-08
2.87938e-10
3.5973e-08
2.87571e-10
3.57668e-08
2.86037e-10
3.55599e-08
2.85436e-10
3.5354e-08
2.83047e-10
3.51462e-08
2.84001e-10
3.49399e-08
2.81475e-10
3.47303e-08
2.84501e-10
3.45224e-08
2.81765e-10
3.43112e-08
2.85043e-10
3.4101e-08
2.83129e-10
3.38884e-08
2.85036e-10
3.36757e-08
2.85291e-10
3.34602e-08
2.86117e-10
2.94704e-10
6.28357e-08
1.69624e-09
-6.28981e-08
6.29002e-08
2.02723e-09
6.30324e-08
2.29403e-09
6.31217e-08
2.54522e-09
6.31513e-08
2.73155e-09
6.31625e-08
2.82699e-09
6.31745e-08
2.86447e-09
6.31659e-08
2.88164e-09
6.31374e-08
2.90056e-09
6.30898e-08
2.92765e-09
6.29991e-08
2.90809e-09
6.28637e-08
2.79306e-09
6.2712e-08
2.61799e-09
6.25494e-08
2.43451e-09
6.23491e-08
2.22559e-09
6.2092e-08
1.94521e-09
6.17854e-08
1.59514e-09
6.14534e-08
1.22329e-09
6.11225e-08
8.82884e-10
6.08134e-08
6.1126e-10
6.05372e-08
4.24518e-10
6.02978e-08
3.19919e-10
6.00899e-08
2.79476e-10
5.99046e-08
2.80411e-10
5.97331e-08
3.02531e-10
5.95684e-08
3.31407e-10
5.94057e-08
3.58709e-10
5.92428e-08
3.80789e-10
5.90787e-08
3.96961e-10
5.89132e-08
4.08029e-10
5.87466e-08
4.15281e-10
5.85791e-08
4.1994e-10
5.84112e-08
4.22966e-10
5.82428e-08
4.25023e-10
5.80742e-08
4.26542e-10
5.79054e-08
4.27784e-10
5.77363e-08
4.28901e-10
5.75669e-08
4.2998e-10
5.73972e-08
4.31069e-10
5.72271e-08
4.32195e-10
5.70566e-08
4.33373e-10
5.68855e-08
4.34608e-10
5.67139e-08
4.35905e-10
5.65416e-08
4.37263e-10
5.63687e-08
4.38681e-10
5.6195e-08
4.40156e-10
5.60205e-08
4.41685e-10
5.58452e-08
4.43264e-10
5.56691e-08
4.4489e-10
5.5492e-08
4.46559e-10
5.5314e-08
4.48265e-10
5.51349e-08
4.50006e-10
5.49549e-08
4.51777e-10
5.47738e-08
4.53574e-10
5.45916e-08
4.55394e-10
5.44083e-08
4.57234e-10
5.42239e-08
4.59089e-10
5.40382e-08
4.60958e-10
5.38514e-08
4.62838e-10
5.36634e-08
4.64726e-10
5.34742e-08
4.66619e-10
5.32836e-08
4.68517e-10
5.30919e-08
4.70416e-10
5.28988e-08
4.72314e-10
5.27044e-08
4.74209e-10
5.25087e-08
4.76098e-10
5.23116e-08
4.77979e-10
5.21132e-08
4.79848e-10
5.19134e-08
4.81703e-10
5.17122e-08
4.83539e-10
5.15097e-08
4.85355e-10
5.13057e-08
4.87145e-10
5.11003e-08
4.88909e-10
5.08935e-08
4.90644e-10
5.06853e-08
4.92351e-10
5.04757e-08
4.94037e-10
5.02646e-08
4.95717e-10
5.0052e-08
4.97428e-10
4.98379e-08
4.9924e-10
4.96222e-08
5.01213e-10
4.94048e-08
5.03444e-10
4.91856e-08
5.0588e-10
4.89645e-08
5.08471e-10
4.87416e-08
5.10754e-10
4.85168e-08
5.12981e-10
4.82906e-08
5.14097e-10
4.80628e-08
5.15378e-10
4.78345e-08
5.14337e-10
4.76046e-08
5.15313e-10
4.73748e-08
5.12929e-10
4.71425e-08
5.16257e-10
4.69099e-08
5.1413e-10
4.66743e-08
5.20103e-10
4.64373e-08
5.1871e-10
4.61985e-08
5.23839e-10
4.5957e-08
5.24679e-10
4.57143e-08
5.27678e-10
4.54693e-08
5.30331e-10
4.52223e-08
5.33142e-10
5.44087e-10
6.81342e-08
1.76688e-09
-6.82048e-08
6.81365e-08
2.02489e-09
6.81937e-08
2.23684e-09
6.82881e-08
2.45084e-09
6.83779e-08
2.64176e-09
6.84549e-08
2.75e-09
6.85308e-08
2.78853e-09
6.85936e-08
2.8188e-09
6.86553e-08
2.83893e-09
6.8747e-08
2.83596e-09
6.88437e-08
2.81131e-09
6.88938e-08
2.743e-09
6.88925e-08
2.61927e-09
6.88684e-08
2.45862e-09
6.88266e-08
2.26741e-09
6.87447e-08
2.02715e-09
6.86035e-08
1.73632e-09
6.83991e-08
1.42764e-09
6.81408e-08
1.14116e-09
6.78479e-08
9.0419e-10
6.75437e-08
7.28737e-10
6.72487e-08
6.14901e-10
6.69749e-08
5.53324e-10
6.67258e-08
5.29449e-10
6.64997e-08
5.28621e-10
6.6292e-08
5.39151e-10
6.60974e-08
5.53289e-10
6.59115e-08
5.66727e-10
6.57308e-08
5.77621e-10
6.55532e-08
5.85632e-10
6.53773e-08
5.91151e-10
6.52025e-08
5.94807e-10
6.50282e-08
5.97209e-10
6.48544e-08
5.98844e-10
6.46809e-08
6.00059e-10
6.45076e-08
6.01086e-10
6.43344e-08
6.02071e-10
6.41613e-08
6.03103e-10
6.39881e-08
6.0423e-10
6.38149e-08
6.0548e-10
6.36414e-08
6.06866e-10
6.34676e-08
6.08392e-10
6.32934e-08
6.10057e-10
6.31188e-08
6.11858e-10
6.29437e-08
6.1379e-10
6.2768e-08
6.15845e-10
6.25917e-08
6.18016e-10
6.24147e-08
6.20296e-10
6.22369e-08
6.22678e-10
6.20583e-08
6.25154e-10
6.18788e-08
6.27716e-10
6.16985e-08
6.30358e-10
6.15172e-08
6.33074e-10
6.13349e-08
6.35855e-10
6.11516e-08
6.38698e-10
6.09672e-08
6.41596e-10
6.07818e-08
6.44544e-10
6.05952e-08
6.47537e-10
6.04075e-08
6.50572e-10
6.02186e-08
6.53644e-10
6.00284e-08
6.5675e-10
5.98371e-08
6.59886e-10
5.96444e-08
6.6305e-10
5.94505e-08
6.66237e-10
5.92553e-08
6.69444e-10
5.90587e-08
6.72668e-10
5.88608e-08
6.75905e-10
5.86615e-08
6.7915e-10
5.84608e-08
6.824e-10
5.82587e-08
6.85649e-10
5.80551e-08
6.88894e-10
5.78501e-08
6.92129e-10
5.76437e-08
6.95352e-10
5.74358e-08
6.9856e-10
5.72264e-08
7.01752e-10
5.70155e-08
7.04937e-10
5.68031e-08
7.08134e-10
5.65891e-08
7.11384e-10
5.63736e-08
7.14792e-10
5.61563e-08
7.18438e-10
5.59373e-08
7.22518e-10
5.57162e-08
7.26931e-10
5.5493e-08
7.31667e-10
5.52678e-08
7.35982e-10
5.50404e-08
7.40315e-10
5.48115e-08
7.43056e-10
5.45809e-08
7.45969e-10
5.43495e-08
7.45756e-10
5.4117e-08
7.47793e-10
5.38837e-08
7.46263e-10
5.36491e-08
7.50847e-10
5.34121e-08
7.51092e-10
5.31741e-08
7.58119e-10
5.29319e-08
7.60941e-10
5.26901e-08
7.65635e-10
5.24433e-08
7.71424e-10
5.21965e-08
7.74541e-10
5.19466e-08
7.8018e-10
5.16953e-08
7.84485e-10
7.97864e-10
7.38234e-08
1.84666e-09
-7.39032e-08
7.37926e-08
2.05574e-09
7.38002e-08
2.22923e-09
7.38585e-08
2.39252e-09
7.39364e-08
2.56382e-09
7.40015e-08
2.68498e-09
7.40605e-08
2.72945e-09
7.4126e-08
2.75337e-09
7.41923e-08
2.77261e-09
7.42613e-08
2.76692e-09
7.4329e-08
2.74364e-09
7.43746e-08
2.69741e-09
7.43936e-08
2.60023e-09
7.44004e-08
2.45182e-09
7.43923e-08
2.2755e-09
7.43417e-08
2.07783e-09
7.42238e-08
1.85414e-09
7.40367e-08
1.61475e-09
7.37942e-08
1.3837e-09
7.35157e-08
1.18266e-09
7.32212e-08
1.0233e-09
7.29276e-08
9.08471e-10
7.26466e-08
8.3434e-10
7.23835e-08
7.92527e-10
7.2139e-08
7.73116e-10
7.19109e-08
7.67236e-10
7.16959e-08
7.68297e-10
7.14906e-08
7.72057e-10
7.1292e-08
7.76155e-10
7.10981e-08
7.79544e-10
7.09073e-08
7.81956e-10
7.07186e-08
7.83509e-10
7.05314e-08
7.84458e-10
7.03452e-08
7.85062e-10
7.01597e-08
7.85535e-10
6.99747e-08
7.86031e-10
6.97902e-08
7.8665e-10
6.96058e-08
7.87455e-10
6.94216e-08
7.88481e-10
6.92373e-08
7.89742e-10
6.90529e-08
7.91243e-10
6.88683e-08
7.92982e-10
6.86834e-08
7.9495e-10
6.84982e-08
7.97139e-10
6.83124e-08
7.99536e-10
6.81261e-08
8.02131e-10
6.79392e-08
8.04911e-10
6.77517e-08
8.07865e-10
6.75634e-08
8.1098e-10
6.73743e-08
8.14245e-10
6.71843e-08
8.1765e-10
6.69935e-08
8.21183e-10
6.68017e-08
8.24836e-10
6.6609e-08
8.28599e-10
6.64152e-08
8.32464e-10
6.62204e-08
8.36422e-10
6.60245e-08
8.40466e-10
6.58274e-08
8.4459e-10
6.56292e-08
8.48787e-10
6.54298e-08
8.53053e-10
6.52292e-08
8.57382e-10
6.50273e-08
8.6177e-10
6.48241e-08
8.66212e-10
6.46197e-08
8.70703e-10
6.44139e-08
8.7524e-10
6.42067e-08
8.79816e-10
6.39982e-08
8.84428e-10
6.37883e-08
8.89069e-10
6.35769e-08
8.93735e-10
6.33642e-08
8.98418e-10
6.315e-08
9.03113e-10
6.29343e-08
9.07814e-10
6.27171e-08
9.12516e-10
6.24984e-08
9.17216e-10
6.22783e-08
9.21913e-10
6.20566e-08
9.26614e-10
6.18334e-08
9.31339e-10
6.16087e-08
9.36132e-10
6.13823e-08
9.41121e-10
6.11543e-08
9.46423e-10
6.09245e-08
9.52366e-10
6.06925e-08
9.58879e-10
6.04583e-08
9.65955e-10
6.02216e-08
9.72622e-10
5.99827e-08
9.79253e-10
5.97419e-08
9.83882e-10
5.94996e-08
9.88236e-10
5.92564e-08
9.8892e-10
5.90129e-08
9.91324e-10
5.87683e-08
9.90847e-10
5.85232e-08
9.95911e-10
5.8275e-08
9.99381e-10
5.80263e-08
1.00676e-09
5.77725e-08
1.0148e-09
5.75193e-08
1.01876e-09
5.72617e-08
1.02909e-09
5.70031e-08
1.03312e-09
5.67424e-08
1.0409e-09
5.648e-08
1.04688e-09
1.06246e-09
7.99503e-08
1.93853e-09
-8.00422e-08
7.98996e-08
2.10651e-09
7.98743e-08
2.25446e-09
7.98863e-08
2.38059e-09
7.99338e-08
2.51628e-09
7.99872e-08
2.63156e-09
8.00296e-08
2.6871e-09
8.00667e-08
2.71624e-09
8.00985e-08
2.74078e-09
8.01295e-08
2.73599e-09
8.01719e-08
2.70122e-09
8.02165e-08
2.65279e-09
8.02371e-08
2.57965e-09
8.02215e-08
2.46745e-09
8.01713e-08
2.32571e-09
8.00831e-08
2.16598e-09
7.99495e-08
1.98777e-09
7.97693e-08
1.79498e-09
7.95486e-08
1.60434e-09
7.9297e-08
1.43422e-09
7.90256e-08
1.2947e-09
7.87462e-08
1.18788e-09
7.84692e-08
1.11142e-09
7.82012e-08
1.06045e-09
7.79456e-08
1.02878e-09
7.77025e-08
1.01032e-09
7.74706e-08
1.00015e-09
7.7248e-08
9.94721e-10
7.70324e-08
9.91775e-10
7.68219e-08
9.89988e-10
7.66152e-08
9.8869e-10
7.64111e-08
9.87613e-10
7.62088e-08
9.86695e-10
7.60079e-08
9.85967e-10
7.5808e-08
9.85486e-10
7.56087e-08
9.85305e-10
7.54099e-08
9.85461e-10
7.52114e-08
9.85978e-10
7.5013e-08
9.86863e-10
7.48146e-08
9.88115e-10
7.46161e-08
9.89726e-10
7.44174e-08
9.91681e-10
7.42184e-08
9.93966e-10
7.4019e-08
9.96563e-10
7.38191e-08
9.99454e-10
7.36186e-08
1.00262e-09
7.34175e-08
1.00605e-09
7.32156e-08
1.00972e-09
7.3013e-08
1.01361e-09
7.28095e-08
1.01772e-09
7.26051e-08
1.02202e-09
7.23998e-08
1.0265e-09
7.21935e-08
1.03115e-09
7.19861e-08
1.03596e-09
7.17777e-08
1.04091e-09
7.15681e-08
1.046e-09
7.13574e-08
1.05121e-09
7.11454e-08
1.05653e-09
7.09322e-08
1.06197e-09
7.07178e-08
1.0675e-09
7.0502e-08
1.07313e-09
7.0285e-08
1.07885e-09
7.00665e-08
1.08465e-09
6.98467e-08
1.09052e-09
6.96255e-08
1.09647e-09
6.94028e-08
1.10248e-09
6.91787e-08
1.10855e-09
6.89531e-08
1.11467e-09
6.8726e-08
1.12084e-09
6.84974e-08
1.12704e-09
6.82672e-08
1.13327e-09
6.80355e-08
1.13953e-09
6.78022e-08
1.14579e-09
6.75674e-08
1.15207e-09
6.73309e-08
1.15835e-09
6.70929e-08
1.16464e-09
6.68533e-08
1.17096e-09
6.6612e-08
1.17736e-09
6.63692e-08
1.18396e-09
6.61247e-08
1.19092e-09
6.58784e-08
1.19871e-09
6.56298e-08
1.20742e-09
6.53786e-08
1.21716e-09
6.51244e-08
1.22682e-09
6.48673e-08
1.23632e-09
6.46079e-08
1.24333e-09
6.4347e-08
1.24909e-09
6.40854e-08
1.25055e-09
6.38241e-08
1.25268e-09
6.3562e-08
1.25289e-09
6.33e-08
1.25795e-09
6.30344e-08
1.26498e-09
6.27685e-08
1.27264e-09
6.2497e-08
1.28635e-09
6.22253e-08
1.29045e-09
6.19505e-08
1.30381e-09
6.16734e-08
1.31026e-09
6.13951e-08
1.31918e-09
6.11164e-08
1.3256e-09
1.34573e-09
8.65513e-08
2.04399e-09
-8.66568e-08
8.64811e-08
2.17675e-09
8.64355e-08
2.30008e-09
8.64119e-08
2.40419e-09
8.64193e-08
2.50885e-09
8.64399e-08
2.61089e-09
8.64528e-08
2.67425e-09
8.64654e-08
2.70361e-09
8.64839e-08
2.72229e-09
8.64991e-08
2.72085e-09
8.65076e-08
2.69268e-09
8.65072e-08
2.65323e-09
8.64857e-08
2.60108e-09
8.64361e-08
2.51713e-09
8.63621e-08
2.39966e-09
8.62643e-08
2.26379e-09
8.61335e-08
2.11859e-09
8.59617e-08
1.96674e-09
8.57503e-08
1.81579e-09
8.55074e-08
1.67713e-09
8.52437e-08
1.55837e-09
8.49698e-08
1.4618e-09
8.46945e-08
1.38673e-09
8.44239e-08
1.33097e-09
8.41615e-08
1.29125e-09
8.39081e-08
1.26374e-09
8.36633e-08
1.24492e-09
8.3426e-08
1.23201e-09
8.31948e-08
1.22297e-09
8.29684e-08
1.21643e-09
8.27455e-08
1.21153e-09
8.25254e-08
1.20776e-09
8.23072e-08
1.20485e-09
8.20905e-08
1.20266e-09
8.18749e-08
1.20111e-09
8.16601e-08
1.20017e-09
8.14457e-08
1.19981e-09
8.12317e-08
1.20001e-09
8.10178e-08
1.20075e-09
8.08039e-08
1.202e-09
8.05899e-08
1.20374e-09
8.03756e-08
1.20595e-09
8.0161e-08
1.20859e-09
7.99459e-08
1.21164e-09
7.97303e-08
1.21508e-09
7.9514e-08
1.21889e-09
7.9297e-08
1.22303e-09
7.90793e-08
1.22748e-09
7.88607e-08
1.23223e-09
7.86411e-08
1.23726e-09
7.84206e-08
1.24254e-09
7.81991e-08
1.24805e-09
7.79764e-08
1.25379e-09
7.77526e-08
1.25973e-09
7.75277e-08
1.26587e-09
7.73015e-08
1.27218e-09
7.70741e-08
1.27865e-09
7.68453e-08
1.28528e-09
7.66152e-08
1.29205e-09
7.63838e-08
1.29896e-09
7.61509e-08
1.30599e-09
7.59166e-08
1.31314e-09
7.56809e-08
1.32041e-09
7.54436e-08
1.32778e-09
7.52048e-08
1.33525e-09
7.49645e-08
1.34281e-09
7.47226e-08
1.35045e-09
7.44791e-08
1.35817e-09
7.4234e-08
1.36595e-09
7.39873e-08
1.37379e-09
7.37389e-08
1.38168e-09
7.34888e-08
1.3896e-09
7.3237e-08
1.39755e-09
7.29836e-08
1.40551e-09
7.27284e-08
1.41349e-09
7.24716e-08
1.42148e-09
7.22131e-08
1.4295e-09
7.19528e-08
1.4376e-09
7.16909e-08
1.44589e-09
7.14272e-08
1.45458e-09
7.11619e-08
1.46408e-09
7.08944e-08
1.47486e-09
7.0624e-08
1.48754e-09
7.03498e-08
1.50108e-09
7.00717e-08
1.51441e-09
6.97905e-08
1.52457e-09
6.95075e-08
1.53203e-09
6.9224e-08
1.53409e-09
6.89414e-08
1.53528e-09
6.86589e-08
1.53537e-09
6.83771e-08
1.53974e-09
6.80915e-08
1.55064e-09
6.78054e-08
1.55865e-09
6.75128e-08
1.57896e-09
6.72184e-08
1.58484e-09
6.69226e-08
1.59964e-09
6.66228e-08
1.61008e-09
6.63229e-08
1.61911e-09
6.60284e-08
1.6201e-09
1.65086e-09
9.36689e-08
2.16041e-09
-9.37853e-08
9.35781e-08
2.26759e-09
9.35083e-08
2.36987e-09
9.34521e-08
2.46036e-09
9.34193e-08
2.54168e-09
9.34084e-08
2.6218e-09
9.33998e-08
2.68281e-09
9.33866e-08
2.71677e-09
9.33713e-08
2.73763e-09
9.33484e-08
2.74372e-09
9.33164e-08
2.72468e-09
9.32814e-08
2.68823e-09
9.32404e-08
2.64209e-09
9.31805e-08
2.57708e-09
9.30932e-08
2.48693e-09
9.29766e-08
2.38035e-09
9.28282e-08
2.26698e-09
9.26456e-08
2.14934e-09
9.24312e-08
2.03023e-09
9.21918e-08
1.91657e-09
9.1935e-08
1.8151e-09
9.16679e-08
1.72889e-09
9.13964e-08
1.65822e-09
9.11253e-08
1.60215e-09
9.08576e-08
1.55892e-09
9.05951e-08
1.52625e-09
9.03382e-08
1.50176e-09
9.00868e-08
1.48339e-09
8.98403e-08
1.46952e-09
8.95978e-08
1.45893e-09
8.93585e-08
1.45077e-09
8.91219e-08
1.44445e-09
8.88871e-08
1.43957e-09
8.86539e-08
1.4359e-09
8.84217e-08
1.43327e-09
8.81903e-08
1.43155e-09
8.79595e-08
1.43068e-09
8.77289e-08
1.43058e-09
8.74984e-08
1.4312e-09
8.7268e-08
1.43249e-09
8.70373e-08
1.43441e-09
8.68063e-08
1.43692e-09
8.65749e-08
1.43999e-09
8.6343e-08
1.44357e-09
8.61104e-08
1.44763e-09
8.58772e-08
1.45214e-09
8.56431e-08
1.45708e-09
8.54082e-08
1.46241e-09
8.51723e-08
1.46811e-09
8.49354e-08
1.47415e-09
8.46975e-08
1.4805e-09
8.44584e-08
1.48716e-09
8.42181e-08
1.49409e-09
8.39765e-08
1.50128e-09
8.37337e-08
1.50871e-09
8.34895e-08
1.51636e-09
8.32439e-08
1.52422e-09
8.2997e-08
1.53227e-09
8.27485e-08
1.5405e-09
8.24986e-08
1.5489e-09
8.22471e-08
1.55746e-09
8.19941e-08
1.56617e-09
8.17394e-08
1.57503e-09
8.14832e-08
1.58402e-09
8.12253e-08
1.59314e-09
8.09657e-08
1.60237e-09
8.07045e-08
1.61171e-09
8.04415e-08
1.62115e-09
8.01768e-08
1.63068e-09
7.99103e-08
1.64029e-09
7.9642e-08
1.64997e-09
7.93719e-08
1.65971e-09
7.90999e-08
1.66948e-09
7.88261e-08
1.67929e-09
7.85505e-08
1.68912e-09
7.8273e-08
1.69896e-09
7.79937e-08
1.70882e-09
7.77125e-08
1.71877e-09
7.74295e-08
1.72894e-09
7.71444e-08
1.73963e-09
7.68577e-08
1.75082e-09
7.65694e-08
1.76314e-09
7.62787e-08
1.7783e-09
7.59839e-08
1.79585e-09
7.56849e-08
1.81336e-09
7.53825e-08
1.82705e-09
7.50776e-08
1.83693e-09
7.47717e-08
1.83999e-09
7.44666e-08
1.84036e-09
7.41614e-08
1.84054e-09
7.38568e-08
1.84437e-09
7.35474e-08
1.85999e-09
7.3237e-08
1.86913e-09
7.29197e-08
1.89621e-09
7.25986e-08
1.90591e-09
7.22771e-08
1.92122e-09
7.19496e-08
1.93753e-09
7.16221e-08
1.94657e-09
7.13091e-08
1.9331e-09
1.97585e-09
1.01339e-07
2.29247e-09
-1.01471e-07
1.01224e-07
2.38207e-09
1.0113e-07
2.46398e-09
1.01051e-07
2.53963e-09
1.00986e-07
2.60688e-09
1.00935e-07
2.67311e-09
1.00887e-07
2.73035e-09
1.00838e-07
2.76562e-09
1.00793e-07
2.7832e-09
1.00748e-07
2.78839e-09
1.00696e-07
2.77672e-09
1.00634e-07
2.7497e-09
1.00562e-07
2.71412e-09
1.00472e-07
2.6672e-09
1.00357e-07
2.60213e-09
1.00216e-07
2.52102e-09
1.00052e-07
2.43168e-09
9.98622e-08
2.33876e-09
9.9648e-08
2.24448e-09
9.94119e-08
2.15271e-09
9.91588e-08
2.06812e-09
9.88942e-08
1.99356e-09
9.86226e-08
1.92977e-09
9.83483e-08
1.87647e-09
9.80743e-08
1.83294e-09
9.78025e-08
1.79799e-09
9.75341e-08
1.77022e-09
9.72692e-08
1.74826e-09
9.70078e-08
1.73092e-09
9.67495e-08
1.71723e-09
9.64939e-08
1.70642e-09
9.62404e-08
1.69794e-09
9.59886e-08
1.69136e-09
9.57381e-08
1.68637e-09
9.54886e-08
1.68275e-09
9.52398e-08
1.68035e-09
9.49915e-08
1.67903e-09
9.47434e-08
1.67869e-09
9.44953e-08
1.67926e-09
9.42472e-08
1.68066e-09
9.39987e-08
1.68284e-09
9.37499e-08
1.68574e-09
9.35006e-08
1.68931e-09
9.32506e-08
1.69351e-09
9.3e-08
1.69829e-09
9.27485e-08
1.70361e-09
9.24961e-08
1.70945e-09
9.22428e-08
1.71576e-09
9.19884e-08
1.72251e-09
9.17329e-08
1.72968e-09
9.14761e-08
1.73723e-09
9.12181e-08
1.74515e-09
9.09588e-08
1.7534e-09
9.06981e-08
1.76196e-09
9.0436e-08
1.77082e-09
9.01724e-08
1.77995e-09
8.99073e-08
1.78933e-09
8.96406e-08
1.79895e-09
8.93723e-08
1.80879e-09
8.91024e-08
1.81884e-09
8.88308e-08
1.82908e-09
8.85575e-08
1.8395e-09
8.82824e-08
1.8501e-09
8.80056e-08
1.86085e-09
8.77269e-08
1.87176e-09
8.74465e-08
1.88282e-09
8.71642e-08
1.894e-09
8.688e-08
1.90531e-09
8.6594e-08
1.91674e-09
8.6306e-08
1.92827e-09
8.60161e-08
1.9399e-09
8.57242e-08
1.95162e-09
8.54302e-08
1.96341e-09
8.51342e-08
1.97527e-09
8.48362e-08
1.98718e-09
8.4536e-08
1.99914e-09
8.42337e-08
2.01116e-09
8.39291e-08
2.02334e-09
8.36222e-08
2.03584e-09
8.33131e-08
2.0487e-09
8.30025e-08
2.06143e-09
8.26909e-08
2.07471e-09
8.23786e-08
2.09066e-09
8.20652e-08
2.10926e-09
8.17501e-08
2.12838e-09
8.14326e-08
2.14463e-09
8.11123e-08
2.15716e-09
8.07877e-08
2.16459e-09
8.04597e-08
2.16838e-09
8.01266e-08
2.1736e-09
7.97895e-08
2.18148e-09
7.94484e-08
2.20112e-09
7.9104e-08
2.21358e-09
7.87574e-08
2.24281e-09
7.84064e-08
2.25691e-09
7.80541e-08
2.27346e-09
7.76974e-08
2.29422e-09
7.73375e-08
2.30645e-09
7.69844e-08
2.28629e-09
2.32896e-09
1.09607e-07
2.44294e-09
-1.09757e-07
1.09472e-07
2.51679e-09
1.09352e-07
2.5842e-09
1.09242e-07
2.64941e-09
1.09141e-07
2.70805e-09
1.09053e-07
2.76089e-09
1.08977e-07
2.80643e-09
1.08904e-07
2.83872e-09
1.08829e-07
2.85784e-09
1.0875e-07
2.86729e-09
1.08662e-07
2.86484e-09
1.08564e-07
2.84832e-09
1.08457e-07
2.82121e-09
1.08339e-07
2.78533e-09
1.08203e-07
2.73771e-09
1.08046e-07
2.67767e-09
1.07868e-07
2.60955e-09
1.07669e-07
2.53781e-09
1.07449e-07
2.46473e-09
1.0721e-07
2.39231e-09
1.06954e-07
2.32338e-09
1.06688e-07
2.26031e-09
1.06413e-07
2.20426e-09
1.06134e-07
2.15551e-09
1.05853e-07
2.11392e-09
1.05572e-07
2.07902e-09
1.05292e-07
2.05011e-09
1.05014e-07
2.02636e-09
1.04738e-07
2.00698e-09
1.04464e-07
1.99126e-09
1.04192e-07
1.97862e-09
1.03921e-07
1.96854e-09
1.03652e-07
1.96065e-09
1.03384e-07
1.95464e-09
1.03116e-07
1.95027e-09
1.02849e-07
1.94735e-09
1.02582e-07
1.94574e-09
1.02316e-07
1.9453e-09
1.02049e-07
1.94595e-09
1.01782e-07
1.94758e-09
1.01515e-07
1.95014e-09
1.01247e-07
1.95354e-09
1.00979e-07
1.95774e-09
1.00709e-07
1.96267e-09
1.00439e-07
1.96829e-09
1.00168e-07
1.97455e-09
9.98965e-08
1.98141e-09
9.96234e-08
1.98883e-09
9.93492e-08
1.99677e-09
9.90736e-08
2.0052e-09
9.87968e-08
2.01408e-09
9.85185e-08
2.0234e-09
9.82388e-08
2.03311e-09
9.79576e-08
2.0432e-09
9.76748e-08
2.05364e-09
9.73903e-08
2.0644e-09
9.71042e-08
2.07547e-09
9.68163e-08
2.08682e-09
9.65267e-08
2.09844e-09
9.62352e-08
2.11031e-09
9.59419e-08
2.12241e-09
9.56467e-08
2.13472e-09
9.53495e-08
2.14723e-09
9.50504e-08
2.15994e-09
9.47494e-08
2.17282e-09
9.44463e-08
2.18586e-09
9.41413e-08
2.19907e-09
9.38342e-08
2.21243e-09
9.3525e-08
2.22593e-09
9.32137e-08
2.23958e-09
9.29002e-08
2.25336e-09
9.25846e-08
2.26727e-09
9.22666e-08
2.28132e-09
9.19464e-08
2.29551e-09
9.16238e-08
2.30983e-09
9.12986e-08
2.32432e-09
9.09707e-08
2.339e-09
9.06402e-08
2.35393e-09
9.03069e-08
2.36912e-09
8.99713e-08
2.38426e-09
8.9634e-08
2.39874e-09
8.92959e-08
2.4128e-09
8.89597e-08
2.42691e-09
8.86277e-08
2.44119e-09
8.83002e-08
2.45596e-09
8.79736e-08
2.47122e-09
8.76442e-08
2.48656e-09
8.73057e-08
2.50301e-09
8.69552e-08
2.5189e-09
8.659e-08
2.53881e-09
8.62142e-08
2.55731e-09
8.58332e-08
2.58212e-09
8.54475e-08
2.59928e-09
8.50657e-08
2.62461e-09
8.46806e-08
2.64195e-09
8.4292e-08
2.66215e-09
8.3905e-08
2.68115e-09
8.35075e-08
2.70393e-09
8.30837e-08
2.71013e-09
2.72901e-09
6.87243e-08
2.302e-09
-6.85834e-08
6.88744e-08
2.36667e-09
6.90324e-08
2.42618e-09
6.91985e-08
2.48338e-09
6.93722e-08
2.5343e-09
6.95545e-08
2.57865e-09
6.97436e-08
2.61728e-09
6.99354e-08
2.64697e-09
7.01276e-08
2.66558e-09
7.03205e-08
2.67441e-09
7.05127e-08
2.6727e-09
7.07022e-08
2.65873e-09
7.08889e-08
2.63454e-09
7.10716e-08
2.6026e-09
7.12476e-08
2.56178e-09
7.14143e-08
2.51095e-09
7.15714e-08
2.45248e-09
7.17191e-08
2.39008e-09
7.18577e-08
2.32608e-09
7.1988e-08
2.26209e-09
7.21112e-08
2.20013e-09
7.22293e-08
2.14219e-09
7.23441e-08
2.08944e-09
7.24573e-08
2.04237e-09
7.25702e-08
2.00105e-09
7.26839e-08
1.96529e-09
7.27993e-08
1.9347e-09
7.29169e-08
1.90873e-09
7.30371e-08
1.8868e-09
7.316e-08
1.86839e-09
7.32856e-08
1.853e-09
7.34139e-08
1.84022e-09
7.35449e-08
1.82969e-09
7.36784e-08
1.82114e-09
7.38143e-08
1.81432e-09
7.39526e-08
1.80905e-09
7.40932e-08
1.80518e-09
7.42359e-08
1.80258e-09
7.43807e-08
1.80114e-09
7.45275e-08
1.80076e-09
7.46763e-08
1.80136e-09
7.4827e-08
1.80287e-09
7.49795e-08
1.80523e-09
7.51338e-08
1.80837e-09
7.52898e-08
1.81224e-09
7.54476e-08
1.81679e-09
7.5607e-08
1.82198e-09
7.57681e-08
1.82777e-09
7.59307e-08
1.83411e-09
7.6095e-08
1.84096e-09
7.62608e-08
1.8483e-09
7.64281e-08
1.85609e-09
7.65969e-08
1.86431e-09
7.67671e-08
1.87292e-09
7.69389e-08
1.8819e-09
7.7112e-08
1.89123e-09
7.72866e-08
1.90088e-09
7.74626e-08
1.91082e-09
7.764e-08
1.92105e-09
7.78188e-08
1.93153e-09
7.7999e-08
1.94225e-09
7.81805e-08
1.95318e-09
7.83634e-08
1.96433e-09
7.85477e-08
1.97566e-09
7.87333e-08
1.98716e-09
7.89204e-08
1.99883e-09
7.91088e-08
2.01066e-09
7.92986e-08
2.02264e-09
7.94897e-08
2.03477e-09
7.96823e-08
2.04705e-09
7.98762e-08
2.05947e-09
8.00714e-08
2.07205e-09
8.02679e-08
2.08479e-09
8.04657e-08
2.09771e-09
8.06647e-08
2.11083e-09
8.08648e-08
2.12418e-09
8.1066e-08
2.13781e-09
8.12682e-08
2.15172e-09
8.14715e-08
2.16582e-09
8.16763e-08
2.1795e-09
8.1883e-08
2.19201e-09
8.20925e-08
2.20329e-09
8.23076e-08
2.21186e-09
8.25311e-08
2.21767e-09
8.27636e-08
2.22349e-09
8.30016e-08
2.23314e-09
8.32415e-08
2.24674e-09
8.34765e-08
2.26796e-09
8.37034e-08
2.29201e-09
8.39188e-08
2.3234e-09
8.41258e-08
2.35033e-09
8.43314e-08
2.3765e-09
8.45341e-08
2.39656e-09
8.47468e-08
2.41194e-09
8.49603e-08
2.4285e-09
8.51725e-08
2.44988e-09
8.53934e-08
2.4603e-09
8.56043e-08
2.49302e-09
8.57828e-08
2.53159e-09
2.50878e-09
7.59315e-08
2.14765e-09
-7.57772e-08
7.60933e-08
2.20494e-09
7.62628e-08
2.25662e-09
7.64406e-08
2.30559e-09
7.66253e-08
2.34965e-09
7.68157e-08
2.38822e-09
7.70112e-08
2.42173e-09
7.72103e-08
2.44794e-09
7.74114e-08
2.46443e-09
7.76141e-08
2.47172e-09
7.78166e-08
2.4702e-09
7.80165e-08
2.45881e-09
7.82129e-08
2.43822e-09
7.84052e-08
2.41029e-09
7.85919e-08
2.37506e-09
7.87711e-08
2.33175e-09
7.8942e-08
2.28158e-09
7.91048e-08
2.22732e-09
7.92597e-08
2.17114e-09
7.94073e-08
2.1145e-09
7.95485e-08
2.05888e-09
7.96849e-08
2.0058e-09
7.9818e-08
1.9564e-09
7.99491e-08
1.91125e-09
8.00796e-08
1.87058e-09
8.02104e-08
1.83442e-09
8.03425e-08
1.80259e-09
8.04765e-08
1.77479e-09
8.06126e-08
1.75065e-09
8.07513e-08
1.72977e-09
8.08925e-08
1.71179e-09
8.10363e-08
1.69638e-09
8.11827e-08
1.68324e-09
8.13318e-08
1.67212e-09
8.14833e-08
1.6628e-09
8.16372e-08
1.65511e-09
8.17935e-08
1.64889e-09
8.19521e-08
1.64401e-09
8.21129e-08
1.64036e-09
8.22758e-08
1.63784e-09
8.24408e-08
1.63637e-09
8.26078e-08
1.63586e-09
8.27768e-08
1.63625e-09
8.29477e-08
1.63747e-09
8.31204e-08
1.63947e-09
8.3295e-08
1.64219e-09
8.34714e-08
1.64558e-09
8.36496e-08
1.6496e-09
8.38295e-08
1.65421e-09
8.40111e-08
1.65936e-09
8.41944e-08
1.66502e-09
8.43793e-08
1.67116e-09
8.45659e-08
1.67774e-09
8.47541e-08
1.68474e-09
8.49439e-08
1.69213e-09
8.51352e-08
1.69988e-09
8.53281e-08
1.70796e-09
8.55226e-08
1.71635e-09
8.57186e-08
1.72504e-09
8.59161e-08
1.73398e-09
8.61152e-08
1.74318e-09
8.63158e-08
1.75259e-09
8.65179e-08
1.76221e-09
8.67216e-08
1.77202e-09
8.69267e-08
1.782e-09
8.71334e-08
1.79214e-09
8.73416e-08
1.80245e-09
8.75514e-08
1.8129e-09
8.77626e-08
1.8235e-09
8.79754e-08
1.83426e-09
8.81897e-08
1.84517e-09
8.84055e-08
1.85625e-09
8.86228e-08
1.8675e-09
8.88416e-08
1.87894e-09
8.90618e-08
1.89059e-09
8.92835e-08
1.90248e-09
8.95067e-08
1.91464e-09
8.97314e-08
1.92702e-09
8.99578e-08
1.93945e-09
9.01862e-08
1.9511e-09
9.04168e-08
1.96139e-09
9.06502e-08
1.96986e-09
9.08879e-08
1.97421e-09
9.11307e-08
1.97484e-09
9.13783e-08
1.97592e-09
9.16285e-08
1.98289e-09
9.18794e-08
1.99592e-09
9.21271e-08
2.02017e-09
9.23705e-08
2.04862e-09
9.26082e-08
2.08579e-09
9.28424e-08
2.11607e-09
9.30779e-08
2.14101e-09
9.33132e-08
2.16128e-09
9.35558e-08
2.16926e-09
9.38001e-08
2.18425e-09
9.40448e-08
2.20513e-09
9.4296e-08
2.20909e-09
9.45451e-08
2.24399e-09
9.47898e-08
2.28683e-09
2.24929e-09
8.38909e-08
1.97939e-09
-8.37226e-08
8.40658e-08
2.02998e-09
8.42477e-08
2.0747e-09
8.44364e-08
2.11693e-09
8.46306e-08
2.15543e-09
8.48298e-08
2.18899e-09
8.50343e-08
2.21723e-09
8.52432e-08
2.23911e-09
8.54543e-08
2.2533e-09
8.56663e-08
2.25977e-09
8.58778e-08
2.25865e-09
8.60873e-08
2.24927e-09
8.62939e-08
2.23169e-09
8.6497e-08
2.20717e-09
8.66957e-08
2.17634e-09
8.68885e-08
2.13897e-09
8.70743e-08
2.09573e-09
8.72532e-08
2.04845e-09
8.74254e-08
1.99897e-09
8.75913e-08
1.94861e-09
8.77516e-08
1.89851e-09
8.79076e-08
1.84986e-09
8.80604e-08
1.80362e-09
8.82112e-08