/*--------------------------------*- C++ -*----------------------------------*\
| =========                 |                                                 |
| \\      /  F ield         | OpenFOAM: The Open Source CFD Toolbox           |
|  \\    /   O peration     | Version:  2.3.0                                 |
|   \\  /    A nd           | Web:      www.OpenFOAM.org                      |
|    \\/     M anipulation  |                                                 |
\*---------------------------------------------------------------------------*/
FoamFile
{
    version     2.0;
    format      ascii;
    class       volVectorField;
    location    "0.05";
    object      U;
}
// * * * * * * * * * * * * * * * * * * * * * * * * * * * * * * * * * * * * * //

dimensions      [0 1 -1 0 0 0 0];

internalField   nonuniform List<vector> 
2250
(
(0.188356 0.00253852 1.57472e-06)
(0.179559 0.00352048 4.49031e-06)
(0.171767 0.00403186 6.50084e-06)
(0.16412 0.00423432 7.51129e-06)
(0.156345 0.00425347 7.73834e-06)
(0.148257 0.00416512 7.28509e-06)
(0.139796 0.00401712 6.45367e-06)
(0.13148 0.00382139 5.36801e-06)
(0.123379 0.00369446 3.74605e-06)
(0.115353 0.00355304 1.24872e-06)
(0.107763 0.00319783 -2.17661e-06)
(0.100887 0.00274995 -6.21026e-06)
(0.0946102 0.00239068 -1.06207e-05)
(0.0888497 0.00196986 -1.5543e-05)
(0.0837532 0.00132484 -2.08876e-05)
(0.0795771 0.000577573 -2.5801e-05)
(0.076534 -3.93478e-05 -2.9111e-05)
(0.0746586 -0.000404651 -3.01544e-05)
(0.0737745 -0.000534916 -2.90638e-05)
(0.0735735 -0.000508479 -2.65267e-05)
(0.0737557 -0.000388947 -2.33567e-05)
(0.0740717 -0.000250341 -2.01974e-05)
(0.0743669 -0.000134432 -1.74593e-05)
(0.0745678 -5.34131e-05 -1.52933e-05)
(0.0746599 -5.81663e-06 -1.36829e-05)
(0.074657 1.87295e-05 -1.25226e-05)
(0.0745844 2.96019e-05 -1.1682e-05)
(0.0744655 3.33602e-05 -1.10479e-05)
(0.0743183 3.39886e-05 -1.0537e-05)
(0.0741548 3.35505e-05 -1.00961e-05)
(0.0739819 3.29296e-05 -9.69452e-06)
(0.0738038 3.24057e-05 -9.31655e-06)
(0.0736226 3.2007e-05 -8.95501e-06)
(0.0734395 3.1687e-05 -8.60721e-06)
(0.0732551 3.13957e-05 -8.27248e-06)
(0.0730697 3.1099e-05 -7.95096e-06)
(0.0728837 3.07782e-05 -7.64298e-06)
(0.0726971 3.04256e-05 -7.34884e-06)
(0.0725102 3.00394e-05 -7.06879e-06)
(0.072323 2.96205e-05 -6.80295e-06)
(0.0721357 2.91714e-05 -6.5514e-06)
(0.0719483 2.86944e-05 -6.31418e-06)
(0.0717609 2.8192e-05 -6.09126e-06)
(0.0715737 2.76662e-05 -5.88264e-06)
(0.0713866 2.71189e-05 -5.68826e-06)
(0.0711997 2.65516e-05 -5.50807e-06)
(0.0710131 2.59656e-05 -5.342e-06)
(0.0708269 2.5362e-05 -5.18998e-06)
(0.0706411 2.47416e-05 -5.05195e-06)
(0.0704557 2.41052e-05 -4.92784e-06)
(0.0702709 2.34536e-05 -4.81755e-06)
(0.0700868 2.2787e-05 -4.72104e-06)
(0.0699033 2.21061e-05 -4.63822e-06)
(0.0697205 2.14113e-05 -4.56902e-06)
(0.0695386 2.07028e-05 -4.51335e-06)
(0.0693576 1.99811e-05 -4.47114e-06)
(0.0691775 1.92466e-05 -4.44226e-06)
(0.0689984 1.84994e-05 -4.42658e-06)
(0.0688205 1.774e-05 -4.42392e-06)
(0.0686438 1.69686e-05 -4.43405e-06)
(0.0684684 1.61854e-05 -4.45669e-06)
(0.0682943 1.53906e-05 -4.4915e-06)
(0.0681217 1.45841e-05 -4.53804e-06)
(0.0679506 1.3766e-05 -4.59582e-06)
(0.0677811 1.29358e-05 -4.66424e-06)
(0.0676134 1.20934e-05 -4.7426e-06)
(0.0674475 1.12382e-05 -4.83012e-06)
(0.0672835 1.03698e-05 -4.92589e-06)
(0.0671216 9.48761e-06 -5.02887e-06)
(0.0669618 8.59137e-06 -5.13783e-06)
(0.0668042 7.68104e-06 -5.25129e-06)
(0.066649 6.75691e-06 -5.3674e-06)
(0.0664963 5.8197e-06 -5.48368e-06)
(0.0663463 4.87139e-06 -5.5967e-06)
(0.066199 3.91447e-06 -5.70122e-06)
(0.0660545 2.95545e-06 -5.78919e-06)
(0.0659129 2.00291e-06 -5.84772e-06)
(0.0657743 1.07346e-06 -5.85708e-06)
(0.0656387 1.81391e-07 -5.78806e-06)
(0.0655058 -6.60306e-07 -5.60266e-06)
(0.0653755 -1.47427e-06 -5.25657e-06)
(0.0652477 -2.29626e-06 -4.71343e-06)
(0.0651226 -3.23797e-06 -3.95714e-06)
(0.0650003 -4.35262e-06 -3.01955e-06)
(0.0648821 -5.75435e-06 -2.00038e-06)
(0.0647683 -7.39521e-06 -1.10012e-06)
(0.0646613 -9.35564e-06 -6.02018e-07)
(0.0645601 -1.13015e-05 -7.93154e-07)
(0.0644678 -1.33268e-05 -1.79358e-06)
(0.0643788 -1.47395e-05 -3.48907e-06)
(0.0643008 -1.63093e-05 -5.50917e-06)
(0.0642173 -1.68581e-05 -7.54469e-06)
(0.0641544 -1.81962e-05 -9.23649e-06)
(0.0640669 -1.8434e-05 -1.06196e-05)
(0.0640278 -1.95009e-05 -1.13705e-05)
(0.0639242 -2.01995e-05 -1.16345e-05)
(0.063922 -2.06577e-05 -1.0929e-05)
(0.0637904 -2.09289e-05 -9.29122e-06)
(0.06383 -2.37443e-05 -6.27018e-06)
(0.0636837 -1.65143e-05 -2.26314e-06)
(0.194661 0.00459201 1.02595e-06)
(0.194515 0.00619924 2.9941e-06)
(0.194537 0.00719521 4.81161e-06)
(0.194194 0.0076257 6.26992e-06)
(0.19363 0.00779195 7.01865e-06)
(0.192972 0.00792057 6.71892e-06)
(0.1917 0.00795683 5.87596e-06)
(0.189844 0.00775403 4.88171e-06)
(0.187854 0.00755644 3.23495e-06)
(0.1858 0.00755394 9.18086e-07)
(0.183513 0.00740357 -1.55578e-06)
(0.181003 0.00684715 -4.44566e-06)
(0.178461 0.00616492 -8.3315e-06)
(0.17606 0.00562378 -1.29314e-05)
(0.173843 0.0050835 -1.74061e-05)
(0.171739 0.00429997 -2.11262e-05)
(0.169723 0.00325547 -2.3715e-05)
(0.167896 0.00213287 -2.49161e-05)
(0.166414 0.0011383 -2.46995e-05)
(0.16538 0.000390966 -2.33669e-05)
(0.164805 -6.51043e-05 -2.1385e-05)
(0.164577 -0.000271812 -1.92155e-05)
(0.164564 -0.000307609 -1.71537e-05)
(0.164641 -0.000251696 -1.53768e-05)
(0.164722 -0.000166482 -1.39374e-05)
(0.164761 -8.58291e-05 -1.28112e-05)
(0.164742 -2.32934e-05 -1.19375e-05)
(0.164666 1.93838e-05 -1.12465e-05)
(0.164544 4.58468e-05 -1.06796e-05)
(0.16439 6.10049e-05 -1.01935e-05)
(0.164213 6.90762e-05 -9.75923e-06)
(0.164023 7.30293e-05 -9.35895e-06)
(0.163826 7.47065e-05 -8.98257e-06)
(0.163623 7.5154e-05 -8.62483e-06)
(0.163419 7.49294e-05 -8.28322e-06)
(0.163212 7.43192e-05 -7.95665e-06)
(0.163005 7.34695e-05 -7.64471e-06)
(0.162797 7.24587e-05 -7.34725e-06)
(0.162589 7.13319e-05 -7.06424e-06)
(0.16238 7.01182e-05 -6.79567e-06)
(0.162171 6.88378e-05 -6.54152e-06)
(0.161961 6.75057e-05 -6.30175e-06)
(0.16175 6.61329e-05 -6.07634e-06)
(0.161539 6.47276e-05 -5.86521e-06)
(0.161327 6.32958e-05 -5.66833e-06)
(0.161115 6.18416e-05 -5.48561e-06)
(0.160901 6.03681e-05 -5.317e-06)
(0.160686 5.88771e-05 -5.16243e-06)
(0.160471 5.73699e-05 -5.02182e-06)
(0.160254 5.5847e-05 -4.89511e-06)
(0.160036 5.43087e-05 -4.78223e-06)
(0.159817 5.27548e-05 -4.68313e-06)
(0.159597 5.11851e-05 -4.59774e-06)
(0.159375 4.95991e-05 -4.52601e-06)
(0.159153 4.79966e-05 -4.46788e-06)
(0.158929 4.63771e-05 -4.42327e-06)
(0.158703 4.47406e-05 -4.3921e-06)
(0.158476 4.30865e-05 -4.37424e-06)
(0.158248 4.14148e-05 -4.36953e-06)
(0.158018 3.97255e-05 -4.37776e-06)
(0.157787 3.80181e-05 -4.39866e-06)
(0.157555 3.62926e-05 -4.4319e-06)
(0.157321 3.45482e-05 -4.47704e-06)
(0.157086 3.27846e-05 -4.53357e-06)
(0.156849 3.10007e-05 -4.60091e-06)
(0.156611 2.91952e-05 -4.67836e-06)
(0.156371 2.7367e-05 -4.76513e-06)
(0.15613 2.55142e-05 -4.86034e-06)
(0.155888 2.36359e-05 -4.96295e-06)
(0.155644 2.17307e-05 -5.07176e-06)
(0.155399 1.97979e-05 -5.18533e-06)
(0.155153 1.78383e-05 -5.3019e-06)
(0.154905 1.58532e-05 -5.41912e-06)
(0.154656 1.3848e-05 -5.5338e-06)
(0.154406 1.18286e-05 -5.64107e-06)
(0.154155 9.81312e-06 -5.73346e-06)
(0.153903 7.82366e-06 -5.79864e-06)
(0.153649 5.90618e-06 -5.81691e-06)
(0.153394 4.10572e-06 -5.75704e-06)
(0.153138 2.47448e-06 -5.57556e-06)
(0.15288 9.73907e-07 -5.21771e-06)
(0.152619 -4.68231e-07 -4.63452e-06)
(0.152357 -2.18076e-06 -3.79773e-06)
(0.152092 -4.40108e-06 -2.73502e-06)
(0.151828 -7.45369e-06 -1.5462e-06)
(0.151561 -1.14356e-05 -4.55314e-07)
(0.151298 -1.62052e-05 2.02956e-07)
(0.151031 -2.16898e-05 4.81963e-08)
(0.150777 -2.64083e-05 -1.07409e-06)
(0.150506 -3.14388e-05 -3.05129e-06)
(0.150266 -3.3652e-05 -5.37737e-06)
(0.149975 -3.77594e-05 -7.70862e-06)
(0.149761 -3.76124e-05 -9.5854e-06)
(0.149428 -4.17723e-05 -1.11291e-05)
(0.149257 -4.12326e-05 -1.19822e-05)
(0.148864 -4.45742e-05 -1.23243e-05)
(0.148751 -4.58866e-05 -1.16868e-05)
(0.148287 -4.57347e-05 -9.92824e-06)
(0.14824 -5.22198e-05 -6.72373e-06)
(0.1477 -4.43005e-05 -2.38851e-06)
(0.195542 0.00444923 7.48473e-07)
(0.195699 0.00552327 2.24145e-06)
(0.196262 0.00622412 3.71872e-06)
(0.19672 0.00669477 5.07553e-06)
(0.197189 0.00709483 6.13988e-06)
(0.197942 0.00733358 6.3012e-06)
(0.198548 0.00743917 5.56053e-06)
(0.198829 0.00745097 4.56083e-06)
(0.199112 0.0074116 3.19172e-06)
(0.199383 0.00740045 1.37512e-06)
(0.199413 0.00730147 -2.76279e-07)
(0.19931 0.00696365 -2.07972e-06)
(0.199277 0.00647796 -4.92081e-06)
(0.199268 0.00597207 -8.26341e-06)
(0.19913 0.0053587 -1.08223e-05)
(0.198807 0.00450047 -1.25407e-05)
(0.198311 0.00343026 -1.42407e-05)
(0.197675 0.00231245 -1.60878e-05)
(0.19696 0.00130753 -1.7527e-05)
(0.196259 0.000517986 -1.81231e-05)
(0.195655 -2.05011e-05 -1.79173e-05)
(0.195182 -0.000317582 -1.71796e-05)
(0.194841 -0.000421252 -1.61612e-05)
(0.194606 -0.000398652 -1.50338e-05)
(0.194443 -0.000311965 -1.39256e-05)
(0.194321 -0.000207322 -1.29231e-05)
(0.194217 -0.000111657 -1.20571e-05)
(0.194118 -3.64266e-05 -1.13225e-05)
(0.194018 1.67383e-05 -1.06987e-05)
(0.193914 5.11236e-05 -1.01611e-05)
(0.193807 7.15483e-05 -9.68748e-06)
(0.193697 8.2521e-05 -9.2605e-06)
(0.193588 8.75333e-05 -8.8678e-06)
(0.193479 8.89955e-05 -8.50133e-06)
(0.193372 8.84419e-05 -8.15611e-06)
(0.193266 8.67908e-05 -7.82916e-06)
(0.193161 8.45678e-05 -7.51875e-06)
(0.193059 8.20645e-05 -7.22387e-06)
(0.192958 7.94404e-05 -6.94396e-06)
(0.192859 7.67824e-05 -6.67865e-06)
(0.192761 7.41385e-05 -6.42774e-06)
(0.192665 7.15353e-05 -6.19107e-06)
(0.192569 6.89872e-05 -5.96853e-06)
(0.192475 6.65018e-05 -5.76003e-06)
(0.192381 6.4082e-05 -5.56549e-06)
(0.192287 6.17278e-05 -5.38483e-06)
(0.192195 5.94374e-05 -5.21798e-06)
(0.192102 5.72076e-05 -5.06489e-06)
(0.19201 5.50344e-05 -4.92549e-06)
(0.191917 5.29133e-05 -4.79972e-06)
(0.191825 5.08396e-05 -4.68756e-06)
(0.191732 4.88083e-05 -4.58896e-06)
(0.191639 4.68145e-05 -4.50391e-06)
(0.191546 4.48536e-05 -4.43238e-06)
(0.191452 4.29212e-05 -4.37436e-06)
(0.191358 4.10132e-05 -4.32984e-06)
(0.191263 3.91261e-05 -4.29877e-06)
(0.191167 3.72564e-05 -4.28109e-06)
(0.19107 3.54013e-05 -4.27667e-06)
(0.190973 3.35581e-05 -4.28536e-06)
(0.190874 3.17241e-05 -4.30693e-06)
(0.190775 2.9897e-05 -4.34105e-06)
(0.190675 2.80741e-05 -4.38732e-06)
(0.190573 2.62525e-05 -4.44526e-06)
(0.19047 2.4429e-05 -4.51428e-06)
(0.190366 2.26001e-05 -4.59372e-06)
(0.190261 2.07622e-05 -4.68284e-06)
(0.190154 1.8911e-05 -4.78079e-06)
(0.190046 1.70435e-05 -4.88662e-06)
(0.189937 1.51558e-05 -4.99924e-06)
(0.189826 1.32463e-05 -5.1174e-06)
(0.189714 1.13146e-05 -5.23963e-06)
(0.189601 9.36211e-06 -5.36404e-06)
(0.189485 7.39723e-06 -5.48814e-06)
(0.189369 5.42955e-06 -5.60822e-06)
(0.18925 3.4868e-06 -5.71858e-06)
(0.189131 1.60785e-06 -5.80906e-06)
(0.189009 -1.38363e-07 -5.86179e-06)
(0.188886 -1.65022e-06 -5.8435e-06)
(0.18876 -2.85066e-06 -5.70031e-06)
(0.188632 -3.69754e-06 -5.3531e-06)
(0.188501 -4.38529e-06 -4.71636e-06)
(0.188367 -5.28858e-06 -3.72347e-06)
(0.188229 -7.29435e-06 -2.3845e-06)
(0.188091 -1.04158e-05 -7.94564e-07)
(0.187947 -1.60822e-05 7.75673e-07)
(0.18781 -2.22702e-05 1.87769e-06)
(0.187662 -3.17657e-05 1.90655e-06)
(0.187533 -3.76085e-05 5.8625e-07)
(0.187377 -4.7545e-05 -1.98026e-06)
(0.187259 -4.81484e-05 -5.03365e-06)
(0.187081 -5.69492e-05 -8.03939e-06)
(0.18698 -5.31968e-05 -1.04371e-05)
(0.186766 -6.09806e-05 -1.23171e-05)
(0.186689 -5.82991e-05 -1.35089e-05)
(0.186434 -6.28325e-05 -1.40441e-05)
(0.186383 -6.3467e-05 -1.36755e-05)
(0.186083 -6.44566e-05 -1.18225e-05)
(0.186064 -6.76789e-05 -8.16901e-06)
(0.185722 -6.35323e-05 -2.80754e-06)
(0.196289 0.00414257 5.58993e-07)
(0.196357 0.00490493 1.67803e-06)
(0.196846 0.00545482 2.76517e-06)
(0.197286 0.00588917 3.69698e-06)
(0.197639 0.00632731 4.66033e-06)
(0.198364 0.00660224 5.21173e-06)
(0.199225 0.00673072 4.75863e-06)
(0.199808 0.00681386 3.95383e-06)
(0.200315 0.00678489 3.21421e-06)
(0.200937 0.00667771 1.90879e-06)
(0.201515 0.00659372 2.96821e-07)
(0.202005 0.00642849 -7.69178e-07)
(0.202513 0.00603691 -1.73275e-06)
(0.202992 0.00545948 -3.39186e-06)
(0.203335 0.00479596 -5.38182e-06)
(0.20354 0.00406474 -7.119e-06)
(0.203635 0.00326341 -8.7927e-06)
(0.203581 0.00243937 -1.06267e-05)
(0.203333 0.00167054 -1.23054e-05)
(0.202916 0.00102296 -1.34377e-05)
(0.202413 0.000533253 -1.40046e-05)
(0.201908 0.000211193 -1.41658e-05)
(0.201453 3.61313e-05 -1.40118e-05)
(0.201073 -3.17567e-05 -1.3592e-05)
(0.20077 -3.45979e-05 -1.29934e-05)
(0.200538 -6.292e-06 -1.2318e-05)
(0.20036 3.09865e-05 -1.16446e-05)
(0.200221 6.50527e-05 -1.10129e-05)
(0.200107 9.08371e-05 -1.04366e-05)
(0.200009 0.00010762 -9.91691e-06)
(0.199921 0.000116771 -9.44868e-06)
(0.199841 0.000120276 -9.02362e-06)
(0.199765 0.000119982 -8.63345e-06)
(0.199694 0.000117323 -8.27139e-06)
(0.199627 0.000113305 -7.9324e-06)
(0.199563 0.000108579 -7.61299e-06)
(0.199503 0.000103548 -7.31086e-06)
(0.199446 9.84518e-05 -7.02452e-06)
(0.199393 9.34274e-05 -6.75307e-06)
(0.199342 8.85515e-05 -6.49594e-06)
(0.199294 8.38644e-05 -6.25279e-06)
(0.199248 7.93854e-05 -6.02337e-06)
(0.199205 7.51206e-05 -5.80755e-06)
(0.199164 7.10689e-05 -5.60521e-06)
(0.199125 6.72242e-05 -5.41627e-06)
(0.199087 6.35775e-05 -5.24067e-06)
(0.199051 6.01181e-05 -5.07833e-06)
(0.199016 5.68345e-05 -4.92922e-06)
(0.198983 5.37147e-05 -4.79331e-06)
(0.19895 5.07464e-05 -4.67055e-06)
(0.198919 4.79177e-05 -4.56096e-06)
(0.198888 4.52168e-05 -4.46454e-06)
(0.198858 4.26324e-05 -4.38132e-06)
(0.198829 4.0154e-05 -4.31135e-06)
(0.1988 3.77714e-05 -4.2547e-06)
(0.198772 3.54757e-05 -4.21142e-06)
(0.198744 3.32582e-05 -4.18157e-06)
(0.198716 3.11116e-05 -4.16518e-06)
(0.198689 2.90287e-05 -4.16224e-06)
(0.198661 2.70035e-05 -4.17266e-06)
(0.198634 2.50301e-05 -4.1963e-06)
(0.198607 2.3103e-05 -4.2329e-06)
(0.198579 2.12166e-05 -4.28213e-06)
(0.198552 1.93653e-05 -4.34353e-06)
(0.198524 1.75428e-05 -4.4166e-06)
(0.198496 1.57424e-05 -4.50072e-06)
(0.198468 1.39577e-05 -4.59523e-06)
(0.198439 1.2181e-05 -4.69941e-06)
(0.19841 1.04065e-05 -4.81248e-06)
(0.198381 8.62715e-06 -4.93362e-06)
(0.198351 6.83957e-06 -5.06197e-06)
(0.198321 5.04188e-06 -5.19662e-06)
(0.19829 3.23559e-06 -5.3366e-06)
(0.198259 1.43183e-06 -5.48081e-06)
(0.198227 -3.54621e-07 -5.62779e-06)
(0.198195 -2.08635e-06 -5.77533e-06)
(0.198162 -3.70415e-06 -5.91808e-06)
(0.198128 -5.11959e-06 -6.04381e-06)
(0.198093 -6.1519e-06 -6.12072e-06)
(0.198057 -6.68802e-06 -6.08245e-06)
(0.19802 -6.51902e-06 -5.808e-06)
(0.197981 -5.93585e-06 -5.13272e-06)
(0.197939 -5.26526e-06 -3.89452e-06)
(0.197894 -6.24415e-06 -2.04002e-06)
(0.19785 -8.81968e-06 3.51649e-07)
(0.1978 -1.58892e-05 2.94024e-06)
(0.197758 -2.42212e-05 5.05398e-06)
(0.197708 -3.8068e-05 5.67314e-06)
(0.197675 -4.75235e-05 4.17504e-06)
(0.197621 -6.16966e-05 6.16154e-07)
(0.197596 -6.4728e-05 -3.88374e-06)
(0.19753 -7.49499e-05 -8.30959e-06)
(0.197511 -7.30569e-05 -1.19169e-05)
(0.197428 -7.94356e-05 -1.46449e-05)
(0.197413 -7.99264e-05 -1.66036e-05)
(0.197314 -8.1759e-05 -1.7736e-05)
(0.197302 -8.38734e-05 -1.80013e-05)
(0.197183 -8.38625e-05 -1.64372e-05)
(0.197182 -8.47588e-05 -1.20631e-05)
(0.197053 -7.77018e-05 -4.20641e-06)
(0.196927 0.00392096 3.89726e-07)
(0.196952 0.00452409 1.1248e-06)
(0.197306 0.00500315 1.89441e-06)
(0.197729 0.00535953 2.48072e-06)
(0.198036 0.00577118 3.0643e-06)
(0.198573 0.00609382 3.76852e-06)
(0.199309 0.00620488 3.8869e-06)
(0.19988 0.00624865 3.36979e-06)
(0.200386 0.00626676 2.91248e-06)
(0.201022 0.00619364 2.27244e-06)
(0.201596 0.00605313 1.25733e-06)
(0.201997 0.00583755 6.69013e-07)
(0.202416 0.00547579 4.23928e-07)
(0.20294 0.00499661 -6.38088e-07)
(0.203428 0.0044939 -2.52873e-06)
(0.20377 0.00397385 -4.09235e-06)
(0.203961 0.00338076 -4.97254e-06)
(0.203995 0.00271049 -5.84444e-06)
(0.20385 0.00202868 -7.09686e-06)
(0.203549 0.00141467 -8.49867e-06)
(0.203158 0.000919258 -9.7283e-06)
(0.202745 0.000560274 -1.0654e-05)
(0.202354 0.000329388 -1.12409e-05)
(0.202008 0.000201405 -1.14804e-05)
(0.201716 0.000144988 -1.14181e-05)
(0.201478 0.000131269 -1.11463e-05)
(0.201288 0.000138354 -1.07579e-05)
(0.201135 0.000152025 -1.03187e-05)
(0.201009 0.000164487 -9.86905e-06)
(0.200904 0.00017248 -9.43224e-06)
(0.200813 0.000175449 -9.01946e-06)
(0.200732 0.000174134 -8.63371e-06)
(0.20066 0.000169683 -8.27368e-06)
(0.200594 0.000163197 -7.93658e-06)
(0.200533 0.000155554 -7.61954e-06)
(0.200478 0.000147381 -7.32015e-06)
(0.200427 0.000139091 -7.03661e-06)
(0.20038 0.000130939 -6.76768e-06)
(0.200337 0.000123073 -6.51252e-06)
(0.200297 0.000115573 -6.27062e-06)
(0.20026 0.000108474 -6.04166e-06)
(0.200226 0.000101788 -5.82544e-06)
(0.200195 9.55102e-05 -5.62184e-06)
(0.200166 8.96269e-05 -5.43078e-06)
(0.20014 8.412e-05 -5.25222e-06)
(0.200115 7.89689e-05 -5.0861e-06)
(0.200093 7.41516e-05 -4.93242e-06)
(0.200072 6.96458e-05 -4.79113e-06)
(0.200052 6.54292e-05 -4.66225e-06)
(0.200035 6.14802e-05 -4.54577e-06)
(0.200018 5.77777e-05 -4.44174e-06)
(0.200003 5.43015e-05 -4.35022e-06)
(0.199988 5.10321e-05 -4.27131e-06)
(0.199975 4.79514e-05 -4.20516e-06)
(0.199963 4.50421e-05 -4.15193e-06)
(0.199951 4.22883e-05 -4.11182e-06)
(0.19994 3.96752e-05 -4.08507e-06)
(0.19993 3.71895e-05 -4.07188e-06)
(0.199921 3.48189e-05 -4.07244e-06)
(0.199912 3.25526e-05 -4.08692e-06)
(0.199903 3.03806e-05 -4.11537e-06)
(0.199895 2.82939e-05 -4.15779e-06)
(0.199887 2.62838e-05 -4.21405e-06)
(0.199879 2.43415e-05 -4.28394e-06)
(0.199872 2.24587e-05 -4.36716e-06)
(0.199865 2.06262e-05 -4.46337e-06)
(0.199858 1.88348e-05 -4.57216e-06)
(0.199851 1.70753e-05 -4.69317e-06)
(0.199845 1.53392e-05 -4.82602e-06)
(0.199838 1.36175e-05 -4.97043e-06)
(0.199832 1.19053e-05 -5.12633e-06)
(0.199825 1.01991e-05 -5.29389e-06)
(0.199819 8.5016e-06 -5.4738e-06)
(0.199812 6.82538e-06 -5.66757e-06)
(0.199806 5.1919e-06 -5.87792e-06)
(0.199799 3.64901e-06 -6.1093e-06)
(0.199793 2.27715e-06 -6.36673e-06)
(0.199786 1.19314e-06 -6.65261e-06)
(0.199779 6.52806e-07 -6.94956e-06)
(0.199772 8.58095e-07 -7.19165e-06)
(0.199764 2.28032e-06 -7.20987e-06)
(0.199753 4.69216e-06 -6.70297e-06)
(0.199742 7.89886e-06 -5.30196e-06)
(0.199726 9.4641e-06 -2.75343e-06)
(0.199711 8.87178e-06 9.55889e-07)
(0.199692 1.67285e-06 5.42882e-06)
(0.19968 -8.96505e-06 9.63569e-06)
(0.199664 -2.76281e-05 1.18617e-05)
(0.199662 -4.31857e-05 1.0659e-05)
(0.199648 -6.27489e-05 5.81956e-06)
(0.199653 -7.16078e-05 -1.16266e-06)
(0.199633 -8.30855e-05 -8.35224e-06)
(0.199639 -8.64276e-05 -1.45244e-05)
(0.199611 -9.0095e-05 -1.92153e-05)
(0.19961 -9.65178e-05 -2.27239e-05)
(0.199579 -9.56216e-05 -2.5074e-05)
(0.199577 -0.000101341 -2.65142e-05)
(0.199532 -0.000100891 -2.60676e-05)
(0.199534 -0.000102234 -2.15529e-05)
(0.19949 -8.42826e-05 -8.49056e-06)
(0.197459 0.00376645 2.49318e-07)
(0.197501 0.00422925 6.59311e-07)
(0.197738 0.0046518 1.1387e-06)
(0.198111 0.00495939 1.52124e-06)
(0.198405 0.00529018 1.80424e-06)
(0.198797 0.00559037 2.42169e-06)
(0.1994 0.0057132 2.94636e-06)
(0.199947 0.00575036 2.79615e-06)
(0.200373 0.00577517 2.64345e-06)
(0.200853 0.00569227 2.74344e-06)
(0.201347 0.00550186 2.25172e-06)
(0.201749 0.00530217 1.30341e-06)
(0.202155 0.0050799 8.53775e-07)
(0.202633 0.00475624 7.53686e-07)
(0.203054 0.00432377 3.22677e-07)
(0.203305 0.00381656 -2.97184e-07)
(0.203414 0.00324915 -8.05778e-07)
(0.203434 0.00264547 -1.57923e-06)
(0.203363 0.00206124 -3.01535e-06)
(0.203189 0.00155142 -4.84666e-06)
(0.202933 0.00114197 -6.54867e-06)
(0.202639 0.000834144 -7.8682e-06)
(0.202338 0.000617531 -8.8055e-06)
(0.202053 0.000475747 -9.39942e-06)
(0.201796 0.000389278 -9.68217e-06)
(0.201575 0.000339313 -9.71359e-06)
(0.20139 0.000310844 -9.57321e-06)
(0.201235 0.000293506 -9.33057e-06)
(0.201106 0.000280905 -9.03374e-06)
(0.200997 0.000269573 -8.71391e-06)
(0.200903 0.000257971 -8.39049e-06)
(0.200821 0.000245677 -8.07416e-06)
(0.200748 0.000232804 -7.76966e-06)
(0.200683 0.000219657 -7.47853e-06)
(0.200623 0.000206552 -7.20081e-06)
(0.200569 0.000193747 -6.93601e-06)
(0.20052 0.000181425 -6.68353e-06)
(0.200475 0.0001697 -6.44287e-06)
(0.200433 0.000158632 -6.21369e-06)
(0.200395 0.000148243 -5.99578e-06)
(0.200361 0.000138533 -5.78903e-06)
(0.200329 0.000129484 -5.5934e-06)
(0.2003 0.000121069 -5.40888e-06)
(0.200273 0.000113256 -5.23548e-06)
(0.200249 0.000106011 -5.07321e-06)
(0.200227 9.92985e-05 -4.92208e-06)
(0.200207 9.30826e-05 -4.78208e-06)
(0.200188 8.73286e-05 -4.65321e-06)
(0.200171 8.20024e-05 -4.53547e-06)
(0.200156 7.70713e-05 -4.42888e-06)
(0.200142 7.25034e-05 -4.33348e-06)
(0.200129 6.82682e-05 -4.24935e-06)
(0.200118 6.43362e-05 -4.17663e-06)
(0.200107 6.06794e-05 -4.11554e-06)
(0.200098 5.72708e-05 -4.06636e-06)
(0.200089 5.40849e-05 -4.02946e-06)
(0.200081 5.10977e-05 -4.00532e-06)
(0.200074 4.82868e-05 -3.99448e-06)
(0.200067 4.56315e-05 -3.99757e-06)
(0.200062 4.31132e-05 -4.01525e-06)
(0.200056 4.0715e-05 -4.0482e-06)
(0.200051 3.84221e-05 -4.09711e-06)
(0.200047 3.62209e-05 -4.16262e-06)
(0.200043 3.41e-05 -4.24534e-06)
(0.200039 3.20478e-05 -4.34586e-06)
(0.200036 3.00555e-05 -4.46474e-06)
(0.200033 2.81127e-05 -4.60252e-06)
(0.20003 2.62114e-05 -4.75985e-06)
(0.200028 2.43431e-05 -4.93741e-06)
(0.200025 2.24997e-05 -5.13616e-06)
(0.200023 2.06765e-05 -5.35746e-06)
(0.200021 1.8868e-05 -5.60334e-06)
(0.200019 1.70762e-05 -5.87722e-06)
(0.200018 1.53109e-05 -6.18458e-06)
(0.200016 1.35907e-05 -6.53494e-06)
(0.200015 1.19679e-05 -6.94372e-06)
(0.200014 1.05188e-05 -7.43473e-06)
(0.200013 9.3877e-06 -8.04114e-06)
(0.200012 8.8729e-06 -8.78862e-06)
(0.200011 9.24061e-06 -9.65661e-06)
(0.200009 1.12488e-05 -1.04765e-05)
(0.200006 1.50634e-05 -1.08233e-05)
(0.2 2.08764e-05 -1.00411e-05)
(0.199991 2.62011e-05 -7.48415e-06)
(0.19998 2.97894e-05 -2.83095e-06)
(0.199965 2.59206e-05 3.6767e-06)
(0.199956 1.64345e-05 1.0742e-05)
(0.199946 -3.27392e-06 1.5804e-05)
(0.199949 -2.2486e-05 1.58402e-05)
(0.199947 -4.44524e-05 9.85989e-06)
(0.199959 -5.71433e-05 -2.88932e-07)
(0.199955 -6.69602e-05 -1.11264e-05)
(0.199962 -7.30688e-05 -2.0467e-05)
(0.199955 -7.22362e-05 -2.72167e-05)
(0.199951 -8.22719e-05 -3.18827e-05)
(0.19994 -8.23188e-05 -3.50119e-05)
(0.199941 -9.41021e-05 -3.73906e-05)
(0.199915 -0.000101894 -3.87551e-05)
(0.199914 -0.00011118 -3.64637e-05)
(0.199895 -8.50081e-05 -1.59661e-05)
(0.197896 0.00363418 1.36626e-07)
(0.19797 0.00397858 3.03104e-07)
(0.198138 0.0043341 5.07612e-07)
(0.19845 0.00460752 7.66267e-07)
(0.198741 0.00485542 9.32082e-07)
(0.199039 0.00509973 1.32474e-06)
(0.19948 0.00523187 1.98147e-06)
(0.199943 0.00525605 2.30487e-06)
(0.200321 0.00525405 2.39447e-06)
(0.200728 0.00519826 2.62439e-06)
(0.201186 0.00505798 2.45245e-06)
(0.20157 0.00488291 1.80696e-06)
(0.201875 0.00467313 1.77514e-06)
(0.202194 0.00436407 2.56109e-06)
(0.202509 0.00395275 2.96963e-06)
(0.202739 0.00350277 2.39032e-06)
(0.20287 0.00305386 1.37484e-06)
(0.202929 0.00260756 3.42248e-07)
(0.202914 0.00217107 -8.73395e-07)
(0.202809 0.00176795 -2.34774e-06)
(0.202627 0.00141868 -3.83481e-06)
(0.202402 0.00113132 -5.11066e-06)
(0.202165 0.00090573 -6.1374e-06)
(0.201933 0.000736827 -6.93195e-06)
(0.201718 0.000615414 -7.48917e-06)
(0.201527 0.00053011 -7.81673e-06)
(0.201361 0.000470057 -7.95537e-06)
(0.201218 0.000426509 -7.9571e-06)
(0.201095 0.000393132 -7.86539e-06)
(0.200989 0.000365708 -7.71265e-06)
(0.200896 0.000341678 -7.52308e-06)
(0.200815 0.000319652 -7.31382e-06)
(0.200742 0.000298969 -7.09599e-06)
(0.200677 0.000279367 -6.8764e-06)
(0.200619 0.000260779 -6.65911e-06)
(0.200565 0.000243211 -6.44655e-06)
(0.200517 0.000226683 -6.24019e-06)
(0.200472 0.000211205 -6.04096e-06)
(0.200432 0.000196769 -5.84949e-06)
(0.200395 0.000183349 -5.66621e-06)
(0.200361 0.000170908 -5.49149e-06)
(0.20033 0.0001594 -5.32559e-06)
(0.200302 0.000148775 -5.16872e-06)
(0.200276 0.000138981 -5.02103e-06)
(0.200253 0.000129965 -4.88261e-06)
(0.200231 0.000121678 -4.75351e-06)
(0.200212 0.000114067 -4.63372e-06)
(0.200194 0.000107085 -4.52318e-06)
(0.200178 0.000100686 -4.42182e-06)
(0.200163 9.48227e-05 -4.32955e-06)
(0.20015 8.94528e-05 -4.24628e-06)
(0.200138 8.45331e-05 -4.17194e-06)
(0.200127 8.00218e-05 -4.10654e-06)
(0.200117 7.58779e-05 -4.05019e-06)
(0.200108 7.20609e-05 -4.00313e-06)
(0.200099 6.85311e-05 -3.96581e-06)
(0.200092 6.52497e-05 -3.93889e-06)
(0.200085 6.21789e-05 -3.92334e-06)
(0.200079 5.92823e-05 -3.92044e-06)
(0.200074 5.65259e-05 -3.93182e-06)
(0.200069 5.38778e-05 -3.95944e-06)
(0.200065 5.13103e-05 -4.0056e-06)
(0.200061 4.87978e-05 -4.0729e-06)
(0.200058 4.63204e-05 -4.16416e-06)
(0.200055 4.38602e-05 -4.28239e-06)
(0.200052 4.14045e-05 -4.43074e-06)
(0.200049 3.89423e-05 -4.61241e-06)
(0.200047 3.64659e-05 -4.83064e-06)
(0.200045 3.39669e-05 -5.08873e-06)
(0.200043 3.14385e-05 -5.39011e-06)
(0.200042 2.88705e-05 -5.7385e-06)
(0.20004 2.62511e-05 -6.13827e-06)
(0.200039 2.3564e-05 -6.59529e-06)
(0.200038 2.07919e-05 -7.11806e-06)
(0.200037 1.79121e-05 -7.72087e-06)
(0.200037 1.49142e-05 -8.42755e-06)
(0.200037 1.18004e-05 -9.27962e-06)
(0.200037 8.59367e-06 -1.03449e-05)
(0.200037 5.46135e-06 -1.17202e-05)
(0.200037 2.57858e-06 -1.35156e-05)
(0.200038 6.37303e-07 -1.57437e-05)
(0.200037 1.50948e-07 -1.8169e-05)
(0.200033 2.7585e-06 -2.0235e-05)
(0.200024 7.99308e-06 -2.11695e-05)
(0.200012 1.63511e-05 -2.0263e-05)
(0.199995 2.31002e-05 -1.6878e-05)
(0.199982 2.93579e-05 -1.14814e-05)
(0.199971 2.94225e-05 -6.21471e-06)
(0.199974 3.01259e-05 -4.53216e-06)
(0.199977 2.8516e-05 -7.53624e-06)
(0.199992 2.99941e-05 -1.31927e-05)
(0.199996 3.44365e-05 -1.78495e-05)
(0.2 3.07784e-05 -2.02197e-05)
(0.200002 3.78616e-05 -2.03484e-05)
(0.199989 2.3458e-05 -1.94706e-05)
(0.199983 1.62965e-05 -1.91837e-05)
(0.199985 -4.33851e-06 -2.05259e-05)
(0.19996 -2.9899e-05 -2.45793e-05)
(0.199957 -7.13705e-05 -3.09136e-05)
(0.199948 -7.5735e-05 -1.55078e-05)
(0.198263 0.00350151 3.84722e-08)
(0.19837 0.0037639 3.07542e-08)
(0.198511 0.00404592 3.44436e-08)
(0.198744 0.00427844 1.82981e-07)
(0.198994 0.00446265 3.01735e-07)
(0.199242 0.0046439 4.91852e-07)
(0.199579 0.00477056 1.08172e-06)
(0.199965 0.00480103 1.71285e-06)
(0.200296 0.00478493 1.99305e-06)
(0.200616 0.00473416 2.25182e-06)
(0.200972 0.00461082 2.54136e-06)
(0.201297 0.00443035 2.53244e-06)
(0.201558 0.00422776 2.55801e-06)
(0.201821 0.00398822 3.02976e-06)
(0.202098 0.00369172 3.42574e-06)
(0.20232 0.00335629 3.15279e-06)
(0.202446 0.00300456 2.49107e-06)
(0.202492 0.0026403 1.88904e-06)
(0.20248 0.00226973 1.2264e-06)
(0.202408 0.0019144 2.2085e-07)
(0.202284 0.00159696 -1.06421e-06)
(0.202124 0.00132831 -2.3642e-06)
(0.20195 0.00110925 -3.51799e-06)
(0.201774 0.000935908 -4.48856e-06)
(0.201603 0.000801948 -5.26145e-06)
(0.201444 0.0006995 -5.82559e-06)
(0.2013 0.000620671 -6.19632e-06)
(0.201171 0.000558775 -6.41061e-06)
(0.201058 0.000508699 -6.50729e-06)
(0.200958 0.000466775 -6.51829e-06)
(0.200869 0.000430503 -6.46901e-06)
(0.20079 0.000398275 -6.37935e-06)
(0.20072 0.000369101 -6.26389e-06)
(0.200657 0.000342384 -6.13278e-06)
(0.2006 0.000317763 -5.99297e-06)
(0.200548 0.00029501 -5.8492e-06)
(0.200501 0.000273972 -5.70477e-06)
(0.200458 0.000254528 -5.56199e-06)
(0.200418 0.000236578 -5.42251e-06)
(0.200383 0.00022003 -5.28757e-06)
(0.20035 0.000204798 -5.15805e-06)
(0.20032 0.000190799 -5.03465e-06)
(0.200293 0.000177954 -4.91788e-06)
(0.200268 0.000166189 -4.80807e-06)
(0.200245 0.000155431 -4.70544e-06)
(0.200225 0.000145612 -4.61006e-06)
(0.200206 0.000136669 -4.5219e-06)
(0.200189 0.000128539 -4.44079e-06)
(0.200173 0.000121163 -4.36647e-06)
(0.200159 0.000114485 -4.29857e-06)
(0.200146 0.00010845 -4.23668e-06)
(0.200135 0.000103002 -4.18032e-06)
(0.200124 9.80869e-05 -4.12905e-06)
(0.200114 9.36502e-05 -4.08248e-06)
(0.200106 8.9636e-05 -4.04044e-06)
(0.200098 8.59873e-05 -4.00301e-06)
(0.200091 8.26457e-05 -3.9707e-06)
(0.200084 7.95518e-05 -3.94463e-06)
(0.200079 7.66457e-05 -3.92666e-06)
(0.200073 7.38677e-05 -3.91954e-06)
(0.200069 7.11607e-05 -3.92704e-06)
(0.200064 6.84692e-05 -3.95403e-06)
(0.200061 6.57446e-05 -4.00639e-06)
(0.200057 6.2942e-05 -4.09103e-06)
(0.200054 6.00253e-05 -4.2156e-06)
(0.200051 5.69639e-05 -4.38831e-06)
(0.200049 5.37328e-05 -4.6177e-06)
(0.200047 5.03128e-05 -4.91219e-06)
(0.200045 4.66817e-05 -5.28001e-06)
(0.200043 4.28183e-05 -5.72875e-06)
(0.200041 3.86896e-05 -6.265e-06)
(0.20004 3.42458e-05 -6.89447e-06)
(0.200039 2.94208e-05 -7.62127e-06)
(0.200038 2.41024e-05 -8.44896e-06)
(0.200037 1.81516e-05 -9.38114e-06)
(0.200036 1.13636e-05 -1.04254e-05)
(0.200035 3.45818e-06 -1.1605e-05)
(0.200035 -5.85794e-06 -1.29741e-05)
(0.200035 -1.70277e-05 -1.46779e-05)
(0.200036 -3.04136e-05 -1.70363e-05)
(0.200036 -4.536e-05 -2.06425e-05)
(0.200036 -6.05958e-05 -2.64414e-05)
(0.200035 -7.18368e-05 -3.53357e-05)
(0.20003 -7.41006e-05 -4.76423e-05)
(0.200021 -6.01468e-05 -6.26381e-05)
(0.200007 -2.76588e-05 -7.8363e-05)
(0.199996 2.60009e-05 -9.16783e-05)
(0.199987 9.1694e-05 -9.75288e-05)
(0.19999 0.000162934 -9.1549e-05)
(0.199994 0.000223622 -7.23335e-05)
(0.200005 0.000265833 -4.29767e-05)
(0.20001 0.000294006 -9.78865e-06)
(0.200007 0.000287718 2.17098e-05)
(0.20001 0.000289793 4.77489e-05)
(0.199989 0.000257454 6.73376e-05)
(0.199979 0.000229103 7.96352e-05)
(0.199978 0.000196261 8.41564e-05)
(0.199944 0.000156429 7.833e-05)
(0.199937 8.09377e-05 5.69371e-05)
(0.19994 -1.65631e-05 2.03157e-05)
(0.198587 0.00336564 -4.87437e-08)
(0.198699 0.00357132 -1.84295e-07)
(0.198818 0.00378372 -3.1827e-07)
(0.198993 0.00397278 -3.18528e-07)
(0.199212 0.00412219 -2.41227e-07)
(0.199432 0.00425438 -8.29548e-08)
(0.199673 0.00434958 3.9189e-07)
(0.199949 0.004374 9.88971e-07)
(0.200221 0.00435423 1.29534e-06)
(0.200496 0.00431387 1.56532e-06)
(0.200799 0.00422783 2.0887e-06)
(0.20109 0.00408972 2.47555e-06)
(0.201328 0.00392542 2.6032e-06)
(0.201538 0.00373459 2.99014e-06)
(0.201743 0.00349456 3.69326e-06)
(0.201915 0.00320765 4.10799e-06)
(0.202022 0.00289916 3.9645e-06)
(0.20207 0.00258684 3.52783e-06)
(0.202075 0.00227835 2.94262e-06)
(0.202041 0.00198387 2.09053e-06)