/*--------------------------------*- C++ -*----------------------------------*\
| =========                 |                                                 |
| \\      /  F ield         | OpenFOAM: The Open Source CFD Toolbox           |
|  \\    /   O peration     | Version:  2.3.0                                 |
|   \\  /    A nd           | Web:      www.OpenFOAM.org                      |
|    \\/     M anipulation  |                                                 |
\*---------------------------------------------------------------------------*/
FoamFile
{
    version     2.0;
    format      ascii;
    class       volVectorField;
    location    "0.05";
    object      U_0;
}
// * * * * * * * * * * * * * * * * * * * * * * * * * * * * * * * * * * * * * //

dimensions      [0 1 -1 0 0 0 0];

internalField   nonuniform List<vector> 
2250
(
(0.188324 0.00257658 1.56432e-06)
(0.179549 0.0034938 4.44919e-06)
(0.171814 0.00399416 6.45115e-06)
(0.1642 0.00424073 7.47177e-06)
(0.156427 0.00426861 7.65255e-06)
(0.148295 0.00415695 7.14225e-06)
(0.139848 0.00399676 6.32364e-06)
(0.131597 0.00381943 5.25575e-06)
(0.123492 0.00370409 3.58353e-06)
(0.115452 0.00353432 1.01746e-06)
(0.107921 0.00316004 -2.40222e-06)
(0.101128 0.00273693 -6.38129e-06)
(0.0948931 0.00238862 -1.08115e-05)
(0.0891563 0.0019272 -1.58429e-05)
(0.0841194 0.00123467 -2.12246e-05)
(0.0800705 0.000479869 -2.59479e-05)
(0.0772065 -0.0001061 -2.88615e-05)
(0.0755158 -0.000428433 -2.94558e-05)
(0.074778 -0.000524677 -2.80177e-05)
(0.0746653 -0.000478505 -2.53108e-05)
(0.0748788 -0.000352696 -2.21428e-05)
(0.0751871 -0.000218967 -1.91114e-05)
(0.0754522 -0.000111492 -1.6559e-05)
(0.0756172 -3.91976e-05 -1.45761e-05)
(0.0756764 1.92122e-06 -1.31239e-05)
(0.0756475 2.26076e-05 -1.20821e-05)
(0.0755562 3.14891e-05 -1.13223e-05)
(0.0754245 3.44125e-05 -1.07397e-05)
(0.0752685 3.48073e-05 -1.0261e-05)
(0.0750986 3.43829e-05 -9.8406e-06)
(0.0749209 3.38408e-05 -9.45354e-06)
(0.0747387 3.33866e-05 -9.0873e-06)
(0.0745539 3.30296e-05 -8.73646e-06)
(0.0743673 3.27264e-05 -8.39909e-06)
(0.0741796 3.24352e-05 -8.0748e-06)
(0.0739911 3.2129e-05 -7.76374e-06)
(0.0738019 3.17941e-05 -7.46619e-06)
(0.0736123 3.14257e-05 -7.18238e-06)
(0.0734223 3.10233e-05 -6.91246e-06)
(0.0732322 3.05889e-05 -6.65652e-06)
(0.0730419 3.01251e-05 -6.41462e-06)
(0.0728516 2.96344e-05 -6.18676e-06)
(0.0726614 2.91194e-05 -5.97292e-06)
(0.0724713 2.85819e-05 -5.77307e-06)
(0.0722813 2.80238e-05 -5.58718e-06)
(0.0720916 2.74466e-05 -5.4152e-06)
(0.0719022 2.68516e-05 -5.25707e-06)
(0.0717132 2.62395e-05 -5.11275e-06)
(0.0715246 2.56114e-05 -4.98219e-06)
(0.0713365 2.49678e-05 -4.86536e-06)
(0.0711489 2.43095e-05 -4.76224e-06)
(0.0709619 2.36366e-05 -4.67283e-06)
(0.0707756 2.29497e-05 -4.59712e-06)
(0.0705901 2.22491e-05 -4.53513e-06)
(0.0704054 2.1535e-05 -4.48687e-06)
(0.0702215 2.08078e-05 -4.45235e-06)
(0.0700387 2.00678e-05 -4.43159e-06)
(0.0698568 1.93151e-05 -4.42459e-06)
(0.0696761 1.85501e-05 -4.43133e-06)
(0.0694966 1.7773e-05 -4.45179e-06)
(0.0693183 1.69839e-05 -4.4859e-06)
(0.0691414 1.6183e-05 -4.53357e-06)
(0.068966 1.53702e-05 -4.59466e-06)
(0.0687921 1.45456e-05 -4.66905e-06)
(0.0686198 1.37086e-05 -4.75657e-06)
(0.0684493 1.28591e-05 -4.85704e-06)
(0.0682806 1.19963e-05 -4.97029e-06)
(0.0681138 1.11199e-05 -5.09613e-06)
(0.067949 1.02293e-05 -5.23436e-06)
(0.0677864 9.32388e-06 -5.38478e-06)
(0.067626 8.40367e-06 -5.54715e-06)
(0.067468 7.4687e-06 -5.72113e-06)
(0.0673126 6.5194e-06 -5.90609e-06)
(0.0671598 5.55721e-06 -6.10086e-06)
(0.0670097 4.58384e-06 -6.30299e-06)
(0.0668626 3.60453e-06 -6.50768e-06)
(0.0667184 2.62682e-06 -6.70555e-06)
(0.0665773 1.66704e-06 -6.87991e-06)
(0.0664393 7.43109e-07 -7.0028e-06)
(0.0663042 -1.23824e-07 -7.03328e-06)
(0.066172 -9.39794e-07 -6.9175e-06)
(0.0660423 -1.72463e-06 -6.60005e-06)
(0.0659152 -2.57229e-06 -6.03397e-06)
(0.0657907 -3.53056e-06 -5.20382e-06)
(0.0656697 -4.71395e-06 -4.13661e-06)
(0.0655523 -6.10499e-06 -2.9289e-06)
(0.0654406 -7.85039e-06 -1.76018e-06)
(0.065334 -9.73274e-06 -9.18679e-07)
(0.0652361 -1.19117e-05 -7.19101e-07)
(0.0651424 -1.37058e-05 -1.36085e-06)
(0.0650605 -1.57329e-05 -2.74976e-06)
(0.0649751 -1.67436e-05 -4.62074e-06)
(0.0649102 -1.84236e-05 -6.45867e-06)
(0.0648227 -1.89346e-05 -8.08179e-06)
(0.064782 -2.02062e-05 -9.05871e-06)
(0.0646795 -2.10445e-05 -9.5339e-06)
(0.0646768 -2.15612e-05 -9.06141e-06)
(0.0645467 -2.17718e-05 -7.73559e-06)
(0.0645868 -2.40894e-05 -5.15907e-06)
(0.0644386 -1.64314e-05 -1.82376e-06)
(0.194674 0.00464302 1.02016e-06)
(0.194572 0.0061841 2.96024e-06)
(0.194569 0.00712971 4.76347e-06)
(0.1942 0.00759604 6.23787e-06)
(0.19371 0.00782542 6.93785e-06)
(0.193068 0.0079546 6.58393e-06)
(0.191728 0.00792088 5.78015e-06)
(0.189883 0.0076897 4.77831e-06)
(0.187974 0.00755086 3.04169e-06)
(0.185949 0.00757539 7.3361e-07)
(0.183632 0.00735979 -1.65659e-06)
(0.181119 0.0067514 -4.56604e-06)
(0.178642 0.00609841 -8.55764e-06)
(0.176334 0.00559678 -1.31934e-05)
(0.174181 0.00503289 -1.75734e-05)
(0.172109 0.00417884 -2.10949e-05)
(0.170134 0.00307521 -2.34187e-05)
(0.168388 0.00193913 -2.43342e-05)
(0.167022 0.000973599 -2.38763e-05)
(0.16612 0.00028053 -2.2402e-05)
(0.165654 -0.000116712 -2.03959e-05)
(0.165498 -0.000278171 -1.82843e-05)
(0.165516 -0.000286876 -1.63218e-05)
(0.165593 -0.000221103 -1.46891e-05)
(0.165658 -0.000136928 -1.33728e-05)
(0.165675 -6.19869e-05 -1.2348e-05)
(0.165633 -6.02626e-06 -1.15501e-05)
(0.165538 3.11109e-05 -1.09129e-05)
(0.165403 5.36172e-05 -1.03831e-05)
(0.16524 6.62454e-05 -9.92297e-06)
(0.165059 7.28206e-05 -9.50764e-06)
(0.164867 7.59299e-05 -9.12237e-06)
(0.164669 7.71355e-05 -8.75896e-06)
(0.164467 7.73086e-05 -8.41318e-06)
(0.164263 7.69089e-05 -8.08303e-06)
(0.164058 7.61733e-05 -7.76763e-06)
(0.163852 7.52248e-05 -7.46662e-06)
(0.163646 7.41314e-05 -7.17986e-06)
(0.163439 7.29336e-05 -6.90728e-06)
(0.163232 7.16583e-05 -6.64886e-06)
(0.163025 7.03243e-05 -6.40456e-06)
(0.162817 6.89456e-05 -6.17434e-06)
(0.162608 6.75323e-05 -5.95815e-06)
(0.162399 6.60918e-05 -5.75595e-06)
(0.162189 6.46294e-05 -5.56768e-06)
(0.161979 6.31485e-05 -5.39329e-06)
(0.161767 6.16517e-05 -5.23272e-06)
(0.161555 6.01403e-05 -5.08592e-06)
(0.161341 5.86152e-05 -4.95286e-06)
(0.161127 5.70766e-05 -4.83351e-06)
(0.160911 5.55243e-05 -4.72785e-06)
(0.160694 5.39579e-05 -4.63591e-06)
(0.160476 5.23767e-05 -4.55768e-06)
(0.160257 5.07801e-05 -4.4932e-06)
(0.160036 4.91676e-05 -4.4425e-06)
(0.159814 4.75383e-05 -4.40562e-06)
(0.159591 4.5892e-05 -4.38259e-06)
(0.159366 4.4228e-05 -4.37345e-06)
(0.15914 4.25462e-05 -4.37821e-06)
(0.158913 4.0846e-05 -4.39685e-06)
(0.158684 3.91272e-05 -4.42931e-06)
(0.158454 3.73894e-05 -4.47554e-06)
(0.158222 3.56319e-05 -4.53541e-06)
(0.157989 3.38541e-05 -4.6088e-06)
(0.157754 3.20549e-05 -4.69556e-06)
(0.157518 3.02329e-05 -4.79554e-06)
(0.157281 2.83865e-05 -4.90858e-06)
(0.157042 2.65141e-05 -5.03453e-06)
(0.156802 2.46142e-05 -5.17325e-06)
(0.15656 2.26851e-05 -5.32463e-06)
(0.156317 2.0726e-05 -5.48851e-06)
(0.156073 1.87369e-05 -5.6647e-06)
(0.155828 1.6718e-05 -5.85281e-06)
(0.155581 1.46734e-05 -6.052e-06)
(0.155333 1.26066e-05 -6.2604e-06)
(0.155084 1.05321e-05 -6.4741e-06)
(0.154834 8.46898e-06 -6.68488e-06)
(0.154583 6.46206e-06 -6.87716e-06)
(0.15433 4.56579e-06 -7.02245e-06)
(0.154076 2.85462e-06 -7.07587e-06)
(0.153821 1.33953e-06 -6.97375e-06)
(0.153563 -2.45259e-09 -6.64719e-06)
(0.153304 -1.44344e-06 -6.03566e-06)
(0.153042 -3.19019e-06 -5.11934e-06)
(0.152779 -5.56412e-06 -3.92422e-06)
(0.152513 -8.71461e-06 -2.55226e-06)
(0.15225 -1.2732e-05 -1.18727e-06)
(0.151982 -1.78199e-05 -1.71241e-07)
(0.151727 -2.28716e-05 1.13985e-07)
(0.151455 -2.88346e-05 -6.15606e-07)
(0.151215 -3.24247e-05 -2.22434e-06)
(0.150927 -3.78342e-05 -4.42351e-06)
(0.150712 -3.87587e-05 -6.53734e-06)
(0.150385 -4.38497e-05 -8.40409e-06)
(0.150215 -4.38005e-05 -9.53173e-06)
(0.149829 -4.78401e-05 -1.01114e-05)
(0.149717 -4.922e-05 -9.72967e-06)
(0.14926 -4.90258e-05 -8.31734e-06)
(0.149215 -5.4058e-05 -5.57828e-06)
(0.148679 -4.44436e-05 -1.92556e-06)
(0.195555 0.00449758 7.45491e-07)
(0.195775 0.00550329 2.22073e-06)
(0.196314 0.00615048 3.66561e-06)
(0.19671 0.00667129 5.03583e-06)
(0.197225 0.00712066 6.09756e-06)
(0.198026 0.00734086 6.19981e-06)
(0.198598 0.00740469 5.45783e-06)
(0.198875 0.00739956 4.47764e-06)
(0.1992 0.00737934 3.06404e-06)
(0.199468 0.00737865 1.26076e-06)
(0.199471 0.00724893 -3.324e-07)
(0.199386 0.00688027 -2.1903e-06)
(0.199402 0.00639835 -5.0863e-06)
(0.199423 0.00589646 -8.29401e-06)
(0.199288 0.0052488 -1.0647e-05)
(0.198952 0.00433135 -1.22999e-05)
(0.198441 0.00321296 -1.4029e-05)
(0.197797 0.00207978 -1.58405e-05)
(0.197092 0.00109624 -1.71507e-05)
(0.196419 0.000356501 -1.76049e-05)
(0.195852 -0.000119318 -1.73022e-05)
(0.195417 -0.000356567 -1.65236e-05)
(0.195105 -0.000415509 -1.55179e-05)
(0.194888 -0.000366812 -1.44257e-05)
(0.194734 -0.000270235 -1.33792e-05)
(0.194613 -0.00016671 -1.24428e-05)
(0.194508 -7.77463e-05 -1.16377e-05)
(0.194405 -1.08014e-05 -1.09549e-05)
(0.194302 3.47882e-05 -1.03727e-05)
(0.194195 6.3242e-05 -9.86767e-06)
(0.194087 7.94695e-05 -9.41961e-06)
(0.193978 8.76775e-05 -9.01311e-06)
(0.193869 9.09579e-05 -8.63749e-06)
(0.193762 9.13672e-05 -8.28589e-06)
(0.193656 9.01785e-05 -7.95408e-06)
(0.193552 8.81379e-05 -7.63958e-06)
(0.19345 8.56662e-05 -7.34093e-06)
(0.193349 8.29953e-05 -7.05727e-06)
(0.193251 8.02515e-05 -6.78811e-06)
(0.193154 7.7504e-05 -6.53316e-06)
(0.193059 7.47907e-05 -6.29221e-06)
(0.192964 7.21327e-05 -6.06514e-06)
(0.192871 6.95409e-05 -5.85184e-06)
(0.192779 6.70204e-05 -5.65225e-06)
(0.192688 6.45726e-05 -5.46628e-06)
(0.192597 6.21961e-05 -5.29388e-06)
(0.192507 5.9888e-05 -5.13499e-06)
(0.192417 5.76444e-05 -4.98958e-06)
(0.192327 5.54606e-05 -4.85761e-06)
(0.192237 5.33314e-05 -4.73908e-06)
(0.192147 5.12515e-05 -4.634e-06)
(0.192057 4.92155e-05 -4.54239e-06)
(0.191967 4.72181e-05 -4.46432e-06)
(0.191876 4.52542e-05 -4.39984e-06)
(0.191785 4.33189e-05 -4.34904e-06)
(0.191693 4.14079e-05 -4.312e-06)
(0.191601 3.95171e-05 -4.28883e-06)
(0.191508 3.7643e-05 -4.2796e-06)
(0.191414 3.57822e-05 -4.28439e-06)
(0.19132 3.39318e-05 -4.30324e-06)
(0.191224 3.20891e-05 -4.33615e-06)
(0.191127 3.02514e-05 -4.38307e-06)
(0.19103 2.84158e-05 -4.44394e-06)
(0.190931 2.65794e-05 -4.51867e-06)
(0.190831 2.47387e-05 -4.60713e-06)
(0.19073 2.289e-05 -4.70922e-06)
(0.190628 2.10293e-05 -4.82486e-06)
(0.190525 1.91521e-05 -4.954e-06)
(0.19042 1.72548e-05 -5.09664e-06)
(0.190314 1.5333e-05 -5.25285e-06)
(0.190206 1.33845e-05 -5.42279e-06)
(0.190097 1.14073e-05 -5.60662e-06)
(0.189987 9.40151e-06 -5.80456e-06)
(0.189875 7.3723e-06 -6.01667e-06)
(0.189762 5.32511e-06 -6.24253e-06)
(0.189647 3.28109e-06 -6.48062e-06)
(0.189531 1.27168e-06 -6.72616e-06)
(0.189413 -6.37082e-07 -6.96781e-06)
(0.189293 -2.33466e-06 -7.17911e-06)
(0.189172 -3.70139e-06 -7.30977e-06)
(0.189048 -4.61209e-06 -7.27554e-06)
(0.188921 -5.14168e-06 -6.97066e-06)
(0.188792 -5.57454e-06 -6.29182e-06)
(0.188658 -6.6744e-06 -5.19878e-06)
(0.188524 -8.52426e-06 -3.71429e-06)
(0.188383 -1.25068e-05 -1.956e-06)
(0.188248 -1.71881e-05 -1.14527e-07)
(0.188101 -2.5606e-05 1.35795e-06)
(0.187971 -3.18799e-05 1.91653e-06)
(0.187817 -4.32119e-05 1.08603e-06)
(0.187701 -4.63536e-05 -9.80105e-07)
(0.187529 -5.75299e-05 -3.86585e-06)
(0.18743 -5.58264e-05 -6.67146e-06)
(0.187224 -6.55404e-05 -9.05655e-06)
(0.18715 -6.37593e-05 -1.06344e-05)
(0.186904 -6.97034e-05 -1.14686e-05)
(0.186857 -7.08432e-05 -1.14109e-05)
(0.186568 -7.16821e-05 -1.00144e-05)
(0.186553 -7.2431e-05 -6.94845e-06)
(0.18622 -6.46785e-05 -2.30788e-06)
(0.196293 0.00416522 5.56925e-07)
(0.196422 0.00489523 1.67001e-06)
(0.196911 0.00540352 2.71782e-06)
(0.197274 0.00586444 3.65043e-06)
(0.197651 0.00633228 4.64816e-06)
(0.198453 0.00659446 5.14064e-06)
(0.199293 0.00670322 4.65133e-06)
(0.199829 0.00676745 3.92301e-06)
(0.200361 0.00672914 3.1641e-06)
(0.201017 0.00663768 1.7601e-06)
(0.20159 0.00655994 2.12221e-07)
(0.202072 0.00636302 -7.07207e-07)
(0.202577 0.00593249 -1.65555e-06)
(0.20305 0.00533816 -3.35892e-06)
(0.203391 0.00466743 -5.32453e-06)
(0.203599 0.00392134 -7.02751e-06)
(0.203684 0.00310151 -8.70237e-06)
(0.203599 0.00226966 -1.05089e-05)
(0.20331 0.00151266 -1.21039e-05)
(0.202863 0.000895545 -1.3142e-05)
(0.202351 0.00044725 -1.36406e-05)
(0.201852 0.000167093 -1.37551e-05)
(0.201413 2.54477e-05 -1.35658e-05)
(0.201053 -2.10077e-05 -1.31243e-05)
(0.200771 -1.34892e-05 -1.25302e-05)
(0.200556 1.72538e-05 -1.18791e-05)
(0.200389 5.23699e-05 -1.12401e-05)
(0.200258 8.22892e-05 -1.0645e-05)
(0.200148 0.000103658 -1.01036e-05)
(0.200053 0.000116636 -9.61533e-06)
(0.199967 0.000122876 -9.17417e-06)
(0.199887 0.000124319 -8.77206e-06)
(0.199813 0.000122638 -8.40144e-06)
(0.199742 0.000119076 -8.0563e-06)
(0.199676 0.000114477 -7.73229e-06)
(0.199614 0.000109378 -7.42645e-06)
(0.199555 0.000104105 -7.13682e-06)
(0.199499 9.88483e-05 -6.86219e-06)
(0.199447 9.37158e-05 -6.60181e-06)
(0.199397 8.87661e-05 -6.35522e-06)
(0.199351 8.40286e-05 -6.12212e-06)
(0.199306 7.95157e-05 -5.90234e-06)
(0.199264 7.52291e-05 -5.69576e-06)
(0.199224 7.11645e-05 -5.50228e-06)
(0.199186 6.73136e-05 -5.32185e-06)
(0.199149 6.36658e-05 -5.15441e-06)
(0.199114 6.02093e-05 -4.99993e-06)
(0.199081 5.69317e-05 -4.85838e-06)
(0.199048 5.382e-05 -4.72975e-06)
(0.199017 5.08615e-05 -4.61406e-06)
(0.198987 4.80435e-05 -4.51136e-06)
(0.198957 4.53538e-05 -4.42171e-06)
(0.198929 4.27807e-05 -4.34522e-06)
(0.1989 4.03129e-05 -4.282e-06)
(0.198873 3.79403e-05 -4.23222e-06)
(0.198845 3.5653e-05 -4.19604e-06)
(0.198819 3.34422e-05 -4.17368e-06)
(0.198792 3.13e-05 -4.1653e-06)
(0.198766 2.92189e-05 -4.1711e-06)
(0.198739 2.71925e-05 -4.19121e-06)
(0.198713 2.52146e-05 -4.22573e-06)
(0.198687 2.32796e-05 -4.27472e-06)
(0.198661 2.13813e-05 -4.33817e-06)
(0.198634 1.9514e-05 -4.41606e-06)
(0.198608 1.7671e-05 -4.50835e-06)
(0.198581 1.58454e-05 -4.61506e-06)
(0.198554 1.403e-05 -4.73621e-06)
(0.198527 1.22166e-05 -4.87198e-06)
(0.198499 1.03987e-05 -5.02264e-06)
(0.198472 8.56815e-06 -5.18867e-06)
(0.198443 6.72033e-06 -5.37074e-06)
(0.198414 4.85126e-06 -5.5698e-06)
(0.198385 2.9598e-06 -5.78717e-06)
(0.198355 1.05213e-06 -6.02462e-06)
(0.198325 -8.64137e-07 -6.2844e-06)
(0.198294 -2.76236e-06 -6.56938e-06)
(0.198263 -4.59918e-06 -6.88152e-06)
(0.198231 -6.29501e-06 -7.21926e-06)
(0.198199 -7.67122e-06 -7.56544e-06)
(0.198165 -8.5553e-06 -7.86918e-06)
(0.19813 -8.61822e-06 -8.01716e-06)
(0.198093 -7.91235e-06 -7.83006e-06)
(0.198055 -6.59343e-06 -7.09739e-06)
(0.198012 -6.12541e-06 -5.69729e-06)
(0.19797 -6.58754e-06 -3.6358e-06)
(0.197922 -1.07675e-05 -1.07291e-06)
(0.197879 -1.63405e-05 1.75501e-06)
(0.197828 -2.803e-05 4.23027e-06)
(0.197792 -3.76179e-05 5.47655e-06)
(0.197739 -5.37869e-05 4.68354e-06)
(0.197713 -6.07234e-05 1.89225e-06)
(0.197651 -7.50736e-05 -2.20573e-06)
(0.197634 -7.67954e-05 -6.38241e-06)
(0.197556 -8.663e-05 -9.88017e-06)
(0.197543 -8.91659e-05 -1.24621e-05)
(0.197451 -9.32242e-05 -1.40488e-05)
(0.197442 -9.71212e-05 -1.47623e-05)
(0.197333 -9.73253e-05 -1.39109e-05)
(0.197337 -9.46519e-05 -1.05209e-05)
(0.197214 -8.07991e-05 -3.66305e-06)
(0.196931 0.0039259 3.85746e-07)
(0.19699 0.0045187 1.12666e-06)
(0.197367 0.00496166 1.87227e-06)
(0.197742 0.00533126 2.42586e-06)
(0.198045 0.00577066 3.0499e-06)
(0.198635 0.0060747 3.75674e-06)
(0.199368 0.00616276 3.8047e-06)
(0.199911 0.00620891 3.30561e-06)
(0.20044 0.00622859 2.8994e-06)
(0.201093 0.00614851 2.22902e-06)
(0.201639 0.00599508 1.24284e-06)
(0.202022 0.00575689 7.43171e-07)
(0.202461 0.00537857 4.48148e-07)
(0.203003 0.00490353 -7.26577e-07)
(0.203488 0.00440783 -2.55781e-06)
(0.203812 0.00387541 -3.94207e-06)
(0.203976 0.00325554 -4.74562e-06)
(0.203972 0.0025646 -5.66915e-06)
(0.203787 0.001882 -6.98183e-06)
(0.203457 0.00128721 -8.39052e-06)
(0.203055 0.000823542 -9.58582e-06)
(0.202644 0.000499791 -1.04569e-05)
(0.202264 0.000300082 -1.09805e-05)
(0.201933 0.000195103 -1.11621e-05)
(0.201658 0.000152754 -1.10645e-05)
(0.201435 0.000145596 -1.07819e-05)
(0.201257 0.00015403 -1.04006e-05)
(0.201113 0.000166081 -9.97925e-06)
(0.200993 0.000175685 -9.55286e-06)
(0.200892 0.000180675 -9.14097e-06)
(0.200804 0.000181047 -8.75225e-06)
(0.200725 0.000177722 -8.38848e-06)
(0.200655 0.000171827 -8.04804e-06)
(0.20059 0.000164359 -7.72834e-06)
(0.200531 0.000156074 -7.42684e-06)
(0.200476 0.000147495 -7.14151e-06)
(0.200426 0.000138956 -6.87087e-06)
(0.20038 0.000130656 -6.61392e-06)
(0.200338 0.000122709 -6.36999e-06)
(0.200299 0.000115169 -6.13871e-06)
(0.200263 0.000108057 -5.91983e-06)
(0.20023 0.000101376 -5.71322e-06)
(0.200199 9.51145e-05 -5.5188e-06)
(0.200171 8.92554e-05 -5.33653e-06)
(0.200145 8.3778e-05 -5.16638e-06)
(0.200121 7.86599e-05 -5.00831e-06)
(0.200099 7.38777e-05 -4.86233e-06)
(0.200078 6.94082e-05 -4.72844e-06)
(0.20006 6.52286e-05 -4.60665e-06)
(0.200042 6.13165e-05 -4.49702e-06)
(0.200026 5.76503e-05 -4.39961e-06)
(0.200011 5.42094e-05 -4.31454e-06)
(0.199997 5.0974e-05 -4.24195e-06)
(0.199984 4.79251e-05 -4.18206e-06)
(0.199972 4.50452e-05 -4.13512e-06)
(0.199961 4.23178e-05 -4.10143e-06)
(0.199951 3.97274e-05 -4.08134e-06)
(0.199941 3.72602e-05 -4.07524e-06)
(0.199931 3.49032e-05 -4.08351e-06)
(0.199923 3.2645e-05 -4.10653e-06)
(0.199914 3.04751e-05 -4.14463e-06)
(0.199906 2.83838e-05 -4.19811e-06)
(0.199899 2.63618e-05 -4.26722e-06)
(0.199892 2.43998e-05 -4.35219e-06)
(0.199885 2.24886e-05 -4.45325e-06)
(0.199878 2.06183e-05 -4.57068e-06)
(0.199871 1.87787e-05 -4.70489e-06)
(0.199865 1.69597e-05 -4.85649e-06)
(0.199859 1.5151e-05 -5.0263e-06)
(0.199852 1.33423e-05 -5.2155e-06)
(0.199846 1.15264e-05 -5.42575e-06)
(0.19984 9.69638e-06 -5.65932e-06)
(0.199834 7.85074e-06 -5.91947e-06)
(0.199828 5.99443e-06 -6.21084e-06)
(0.199822 4.13734e-06 -6.54027e-06)
(0.199816 2.30945e-06 -6.91795e-06)
(0.19981 5.61724e-07 -7.3581e-06)
(0.199804 -1.01658e-06 -7.87867e-06)
(0.199798 -2.20078e-06 -8.48879e-06)
(0.199791 -2.73711e-06 -9.16087e-06)
(0.199785 -2.01691e-06 -9.76741e-06)
(0.199776 1.14102e-07 -1.0025e-05)
(0.199767 3.83701e-06 -9.50669e-06)
(0.199753 7.25619e-06 -7.84104e-06)
(0.199739 9.77494e-06 -4.91781e-06)
(0.199721 7.0777e-06 -9.58877e-07)
(0.199706 1.19088e-06 3.67299e-06)
(0.199687 -1.33876e-05 8.13904e-06)
(0.19968 -2.79169e-05 1.09965e-05)
(0.199663 -4.98047e-05 1.08441e-05)
(0.199667 -6.40637e-05 7.28506e-06)
(0.199648 -8.23333e-05 1.36119e-06)
(0.199655 -9.17496e-05 -5.20937e-06)
(0.19963 -0.00010142 -1.09231e-05)
(0.199633 -0.000111849 -1.54741e-05)
(0.199605 -0.000114294 -1.86022e-05)
(0.199606 -0.000123453 -2.06645e-05)
(0.199569 -0.00012444 -2.12648e-05)
(0.199578 -0.000121616 -1.86037e-05)
(0.19954 -9.17866e-05 -7.73433e-06)
(0.197471 0.00375624 2.44642e-07)
(0.197523 0.00422114 6.62246e-07)
(0.197785 0.00462081 1.13701e-06)
(0.198137 0.00492813 1.47488e-06)
(0.198416 0.00527779 1.77973e-06)
(0.198845 0.00556702 2.4407e-06)
(0.199459 0.00567216 2.8972e-06)
(0.199977 0.0057132 2.7291e-06)
(0.200401 0.00573405 2.68811e-06)
(0.2009 0.0056334 2.7811e-06)
(0.201393 0.00543894 2.16098e-06)
(0.20179 0.00524518 1.22142e-06)
(0.202206 0.00501741 9.04531e-07)
(0.202684 0.00467732 8.83141e-07)
(0.203082 0.00422698 4.85514e-07)
(0.203309 0.00370179 -1.03301e-07)
(0.203403 0.00311936 -6.55628e-07)
(0.203409 0.00251206 -1.55931e-06)
(0.203317 0.00193881 -3.09435e-06)
(0.203121 0.00145019 -4.9195e-06)
(0.202853 0.001066 -6.54914e-06)
(0.202554 0.000783067 -7.78691e-06)
(0.202256 0.000587972 -8.6504e-06)
(0.201979 0.000462472 -9.17937e-06)
(0.201733 0.000386627 -9.41348e-06)
(0.201524 0.000342441 -9.41776e-06)
(0.201349 0.000316277 -9.26949e-06)
(0.201203 0.000299099 -9.03229e-06)
(0.20108 0.000285563 -8.74898e-06)
(0.200976 0.000272909 -8.44694e-06)
(0.200886 0.00026001 -8.14283e-06)
(0.200806 0.000246629 -7.84557e-06)
(0.200735 0.000232932 -7.55903e-06)
(0.200671 0.000219203 -7.28443e-06)
(0.200613 0.000205714 -7.02184e-06)
(0.20056 0.000192673 -6.77092e-06)
(0.200512 0.00018022 -6.53125e-06)
(0.200467 0.000168436 -6.30252e-06)
(0.200427 0.000157358 -6.08452e-06)
(0.200389 0.000146993 -5.87716e-06)
(0.200355 0.000137326 -5.68043e-06)
(0.200324 0.000128334 -5.49433e-06)
(0.200296 0.000119984 -5.31891e-06)
(0.20027 0.000112241 -5.1542e-06)
(0.200246 0.000105069 -5.00023e-06)
(0.200224 9.84299e-05 -4.85703e-06)
(0.200204 9.22876e-05 -4.72461e-06)
(0.200186 8.66065e-05 -4.60297e-06)
(0.200169 8.13521e-05 -4.49213e-06)
(0.200154 7.64911e-05 -4.39212e-06)
(0.200141 7.19914e-05 -4.30299e-06)
(0.200128 6.7822e-05 -4.22485e-06)
(0.200117 6.39532e-05 -4.15785e-06)
(0.200107 6.03564e-05 -4.10223e-06)
(0.200097 5.70039e-05 -4.0583e-06)
(0.200089 5.38696e-05 -4.02651e-06)
(0.200081 5.09286e-05 -4.00742e-06)
(0.200074 4.81573e-05 -4.00168e-06)
(0.200068 4.5534e-05 -4.01007e-06)
(0.200062 4.30387e-05 -4.03346e-06)
(0.200057 4.06531e-05 -4.07276e-06)
(0.200052 3.83609e-05 -4.12894e-06)
(0.200048 3.6147e-05 -4.20301e-06)
(0.200044 3.39983e-05 -4.29599e-06)
(0.20004 3.19014e-05 -4.40899e-06)
(0.200037 2.98456e-05 -4.54324e-06)
(0.200034 2.78186e-05 -4.70011e-06)
(0.200031 2.58101e-05 -4.88125e-06)
(0.200029 2.38092e-05 -5.08862e-06)
(0.200026 2.18049e-05 -5.3247e-06)
(0.200024 1.97887e-05 -5.59264e-06)
(0.200022 1.77505e-05 -5.89662e-06)
(0.200021 1.56857e-05 -6.24256e-06)
(0.200019 1.35931e-05 -6.63887e-06)
(0.200018 1.1475e-05 -7.09861e-06)
(0.200016 9.35564e-06 -7.64197e-06)
(0.200015 7.26473e-06 -8.30094e-06)
(0.200014 5.2876e-06 -9.12475e-06)
(0.200014 3.62913e-06 -1.01731e-05)
(0.200013 2.54416e-06 -1.14886e-05)
(0.200013 2.88496e-06 -1.3e-05)
(0.200011 5.23379e-06 -1.4386e-05)
(0.200008 1.03518e-05 -1.49681e-05)
(0.200001 1.66398e-05 -1.39278e-05)
(0.199991 2.30379e-05 -1.08262e-05)
(0.199977 2.41486e-05 -5.86018e-06)
(0.199965 2.07738e-05 5.57996e-07)
(0.199951 7.09532e-06 7.49755e-06)
(0.199947 -9.41133e-06 1.27939e-05)
(0.19994 -3.34847e-05 1.39955e-05)
(0.199949 -5.26131e-05 9.69067e-06)
(0.199944 -7.13845e-05 1.21096e-06)
(0.199954 -8.53378e-05 -8.85708e-06)
(0.199948 -9.19038e-05 -1.76105e-05)
(0.199948 -0.000106921 -2.42663e-05)
(0.199941 -0.000110292 -2.83318e-05)
(0.199944 -0.000126082 -3.05334e-05)
(0.199925 -0.000136426 -3.17078e-05)
(0.199937 -0.000142065 -3.09353e-05)
(0.199928 -9.82348e-05 -1.45137e-05)
(0.197912 0.00361428 1.32729e-07)
(0.197985 0.00396449 3.00208e-07)
(0.198173 0.0043098 5.15564e-07)
(0.198484 0.00457577 7.46937e-07)
(0.198758 0.0048332 9.03268e-07)
(0.199069 0.00507435 1.34288e-06)
(0.199524 0.00519066 1.98383e-06)
(0.199974 0.00521333 2.26271e-06)
(0.200351 0.00521444 2.40435e-06)
(0.200775 0.00515031 2.65747e-06)
(0.201232 0.00500156 2.41435e-06)
(0.201595 0.00482149 1.81154e-06)
(0.201894 0.00459888 1.94473e-06)
(0.202217 0.00427319 2.76222e-06)
(0.202528 0.00385457 3.03534e-06)
(0.202748 0.00340577 2.35489e-06)
(0.202869 0.00295808 1.3343e-06)
(0.202914 0.00251215 3.00666e-07)
(0.202879 0.00207961 -9.35936e-07)
(0.202754 0.0016859 -2.40478e-06)
(0.20256 0.00135005 -3.8509e-06)
(0.202331 0.00107798 -5.07742e-06)
(0.202096 0.000867558 -6.05776e-06)
(0.20187 0.000711903 -6.80522e-06)
(0.201663 0.000600694 -7.31806e-06)
(0.20148 0.000522358 -7.6121e-06)
(0.201321 0.000466499 -7.73127e-06)
(0.201185 0.000425088 -7.72552e-06)
(0.201068 0.000392495 -7.63507e-06)
(0.200966 0.000365083 -7.4897e-06)
(0.200877 0.000340714 -7.31132e-06)
(0.200798 0.000318256 -7.11523e-06)
(0.200728 0.000297182 -6.91128e-06)
(0.200664 0.000277286 -6.70548e-06)
(0.200607 0.000258508 -6.50154e-06)
(0.200555 0.000240844 -6.3017e-06)
(0.200507 0.000224293 -6.10742e-06)
(0.200464 0.000208846 -5.91964e-06)
(0.200424 0.000194477 -5.73903e-06)
(0.200388 0.000181148 -5.5661e-06)
(0.200355 0.000168814 -5.40126e-06)
(0.200325 0.000157421 -5.24481e-06)
(0.200297 0.000146915 -5.09699e-06)
(0.200272 0.000137241 -4.95798e-06)
(0.200249 0.000128346 -4.82788e-06)
(0.200228 0.000120177 -4.70674e-06)
(0.200208 0.000112683 -4.59454e-06)
(0.200191 0.000105815 -4.49124e-06)
(0.200175 9.9527e-05 -4.39673e-06)
(0.200161 9.37729e-05 -4.31091e-06)
(0.200148 8.85091e-05 -4.23365e-06)
(0.200136 8.36928e-05 -4.16483e-06)
(0.200125 7.9282e-05 -4.1044e-06)
(0.200115 7.52352e-05 -4.05239e-06)
(0.200106 7.15114e-05 -4.00897e-06)
(0.200098 6.80698e-05 -3.97452e-06)
(0.200091 6.48703e-05 -3.94964e-06)
(0.200084 6.18733e-05 -3.93524e-06)
(0.200078 5.90402e-05 -3.9326e-06)
(0.200073 5.63343e-05 -3.94333e-06)
(0.200068 5.37205e-05 -3.96946e-06)
(0.200064 5.11677e-05 -4.01338e-06)
(0.20006 4.86465e-05 -4.07784e-06)
(0.200057 4.61328e-05 -4.16588e-06)
(0.200054 4.36046e-05 -4.28083e-06)
(0.200051 4.10449e-05 -4.42624e-06)
(0.200048 3.84383e-05 -4.60582e-06)
(0.200046 3.57726e-05 -4.82347e-06)
(0.200044 3.30349e-05 -5.08325e-06)
(0.200043 3.02135e-05 -5.38948e-06)
(0.200041 2.72931e-05 -5.74681e-06)
(0.20004 2.42554e-05 -6.16062e-06)
(0.200038 2.10766e-05 -6.63767e-06)
(0.200037 1.77279e-05 -7.18705e-06)
(0.200037 1.41691e-05 -7.82292e-06)
(0.200036 1.03606e-05 -8.56795e-06)
(0.200036 6.24856e-06 -9.46196e-06)
(0.200035 1.77312e-06 -1.0573e-05)
(0.200036 -3.0496e-06 -1.20088e-05)
(0.200037 -8.21153e-06 -1.39218e-05)
(0.200038 -1.31726e-05 -1.64254e-05)
(0.200039 -1.72624e-05 -1.94774e-05)
(0.200038 -1.85375e-05 -2.26291e-05)
(0.200032 -1.67468e-05 -2.50654e-05)
(0.200022 -1.10247e-05 -2.61229e-05)
(0.200007 -5.02768e-06 -2.56896e-05)
(0.199992 2.4754e-06 -2.35722e-05)
(0.199975 5.66896e-06 -1.95758e-05)
(0.19997 9.0618e-06 -1.58178e-05)
(0.199964 8.25106e-06 -1.50559e-05)
(0.199974 9.76626e-06 -1.87581e-05)
(0.199976 1.36512e-05 -2.5111e-05)
(0.199984 1.21227e-05 -3.11646e-05)
(0.199989 2.11966e-05 -3.42678e-05)
(0.19998 8.78641e-06 -3.44519e-05)
(0.19998 3.98229e-06 -3.25133e-05)
(0.199983 -1.85183e-05 -2.96995e-05)
(0.199964 -5.01381e-05 -2.83131e-05)
(0.19998 -9.65562e-05 -3.02488e-05)
(0.199992 -8.74677e-05 -1.44724e-05)
(0.198283 0.00347816 3.63147e-08)
(0.198386 0.00374458 2.63464e-08)
(0.198536 0.004023 4.63216e-08)
(0.198771 0.0042465 1.85567e-07)
(0.199013 0.00443307 2.73992e-07)
(0.199268 0.00461665 4.967e-07)
(0.199618 0.00473377 1.12329e-06)
(0.199997 0.00475782 1.71918e-06)
(0.200318 0.00474131 1.9992e-06)
(0.200643 0.00468272 2.31137e-06)
(0.201002 0.00454842 2.58275e-06)
(0.201318 0.00436498 2.52784e-06)
(0.201577 0.00416264 2.58758e-06)
(0.201846 0.00391953 3.0937e-06)
(0.20212 0.00361816 3.44622e-06)
(0.202327 0.00327888 3.14174e-06)
(0.202437 0.0029228 2.512e-06)
(0.202472 0.0025549 1.92343e-06)
(0.202447 0.00218546 1.2106e-06)
(0.202365 0.00183754 1.48255e-07)
(0.202232 0.00153168 -1.14707e-06)
(0.20207 0.00127598 -2.41843e-06)
(0.201896 0.00106941 -3.53026e-06)
(0.201722 0.000907002 -4.45506e-06)
(0.201556 0.00078174 -5.18161e-06)
(0.201402 0.000685617 -5.70545e-06)
(0.201264 0.000611032 -6.04717e-06)
(0.20114 0.000551777 -6.24413e-06)
(0.201031 0.000503217 -6.33297e-06)
(0.200935 0.000462084 -6.34332e-06)
(0.20085 0.000426183 -6.2986e-06)
(0.200774 0.000394117 -6.21687e-06)
(0.200705 0.000365019 -6.11131e-06)
(0.200644 0.000338363 -5.99107e-06)
(0.200588 0.000313819 -5.86247e-06)
(0.200537 0.00029117 -5.72991e-06)
(0.200491 0.000270261 -5.59647e-06)
(0.200449 0.000250967 -5.46437e-06)
(0.200411 0.00023318 -5.33525e-06)
(0.200376 0.000216805 -5.2103e-06)
(0.200344 0.000201748 -5.09046e-06)
(0.200315 0.000187926 -4.97643e-06)
(0.200288 0.000175255 -4.86872e-06)
(0.200264 0.000163661 -4.76769e-06)
(0.200241 0.000153069 -4.67353e-06)
(0.200221 0.000143413 -4.58632e-06)
(0.200203 0.000134627 -4.50599e-06)
(0.200186 0.00012665 -4.43236e-06)
(0.200171 0.000119424 -4.3651e-06)
(0.200157 0.000112893 -4.30376e-06)
(0.200144 0.000107001 -4.2478e-06)
(0.200133 0.000101695 -4.19661e-06)
(0.200122 9.69199e-05 -4.14951e-06)
(0.200113 9.26212e-05 -4.10591e-06)
(0.200104 8.87426e-05 -4.06529e-06)
(0.200096 8.52261e-05 -4.02741e-06)
(0.200089 8.20117e-05 -3.99239e-06)
(0.200083 7.90373e-05 -3.96089e-06)
(0.200077 7.62398e-05 -3.93431e-06)
(0.200072 7.35548e-05 -3.91491e-06)
(0.200068 7.09197e-05 -3.90594e-06)
(0.200063 6.82727e-05 -3.91177e-06)
(0.20006 6.55577e-05 -3.93778e-06)
(0.200056 6.27219e-05 -3.99034e-06)
(0.200053 5.9721e-05 -4.0766e-06)
(0.20005 5.65155e-05 -4.20414e-06)
(0.200048 5.3072e-05 -4.38079e-06)
(0.200045 4.93629e-05 -4.61408e-06)
(0.200043 4.53578e-05 -4.91102e-06)
(0.200042 4.10284e-05 -5.27751e-06)
(0.20004 3.63341e-05 -5.71788e-06)
(0.200039 3.12197e-05 -6.23463e-06)
(0.200037 2.56133e-05 -6.82736e-06)
(0.200036 1.93978e-05 -7.49312e-06)
(0.200035 1.24305e-05 -8.2255e-06)
(0.200034 4.49417e-06 -9.01649e-06)
(0.200033 -4.70935e-06 -9.86317e-06)
(0.200033 -1.55371e-05 -1.0777e-05)
(0.200032 -2.86005e-05 -1.18319e-05)
(0.200033 -4.45183e-05 -1.32757e-05)
(0.200034 -6.32903e-05 -1.57302e-05)
(0.200035 -8.45868e-05 -2.02272e-05)
(0.200035 -0.000105156 -2.80153e-05)
(0.200033 -0.000120405 -3.99431e-05)
(0.200027 -0.000122731 -5.58039e-05)
(0.200015 -0.000107941 -7.43576e-05)
(0.200003 -7.07887e-05 -9.37015e-05)
(0.19999 -1.53569e-05 -0.000111643)
(0.199985 5.6945e-05 -0.000123711)
(0.199982 0.000132112 -0.000125641)
(0.199991 0.000201811 -0.000114599)
(0.199996 0.000261391 -9.2169e-05)
(0.199997 0.000289081 -6.25447e-05)
(0.200003 0.000319523 -3.20722e-05)
(0.199984 0.000307777 -4.33877e-06)
(0.199978 0.000296262 1.7633e-05)
(0.199975 0.000269437 3.28664e-05)
(0.199943 0.000220383 3.95291e-05)
(0.199957 0.000118428 3.31131e-05)
(0.199986 -4.85386e-06 1.35709e-05)
(0.198606 0.00334119 -4.8595e-08)
(0.198714 0.0035473 -1.85912e-07)
(0.198837 0.00375869 -3.10467e-07)
(0.199019 0.00394255 -3.07997e-07)
(0.199235 0.00409085 -2.45039e-07)
(0.199452 0.00422303 -6.39682e-08)
(0.199696 0.00431081 4.44255e-07)
(0.19997 0.00432851 1.00331e-06)
(0.200241 0.00430913 1.27571e-06)
(0.200521 0.00426747 1.59043e-06)
(0.200828 0.00417572 2.12972e-06)
(0.201112 0.0040344 2.46969e-06)
(0.201342 0.0038685 2.61496e-06)
(0.20155 0.00367196 3.08457e-06)
(0.201752 0.00342401 3.80163e-06)
(0.201915 0.00313242 4.14901e-06)
(0.202012 0.00282316 3.9485e-06)
(0.202053 0.00251228 3.4826e-06)
(0.202051 0.00220745 2.85874e-06)