/*--------------------------------*- C++ -*----------------------------------*\
| =========                 |                                                 |
| \\      /  F ield         | OpenFOAM: The Open Source CFD Toolbox           |
|  \\    /   O peration     | Version:  2.3.0                                 |
|   \\  /    A nd           | Web:      www.OpenFOAM.org                      |
|    \\/     M anipulation  |                                                 |
\*---------------------------------------------------------------------------*/
FoamFile
{
    version     2.0;
    format      ascii;
    class       surfaceScalarField;
    location    "0.15";
    object      phi;
}
// * * * * * * * * * * * * * * * * * * * * * * * * * * * * * * * * * * * * * //

dimensions      [0 3 -1 0 0 0 0];

internalField   nonuniform List<scalar> 
6598
(
2.86419e-08
2.9016e-09
-3.15435e-08
2.57766e-08
2.86528e-09
2.3091e-08
2.68566e-09
2.06158e-08
2.47517e-09
1.83673e-08
2.24852e-09
1.63559e-08
2.01137e-09
1.45838e-08
1.77206e-09
1.30457e-08
1.53818e-09
1.17295e-08
1.31617e-09
1.06182e-08
1.11127e-09
9.69087e-09
9.27352e-10
8.92417e-09
7.66699e-10
8.29421e-09
6.29953e-10
7.77789e-09
5.16321e-10
7.35399e-09
4.23905e-10
7.00388e-09
3.50102e-10
6.7119e-09
2.91989e-10
6.46525e-09
2.46647e-10
6.25386e-09
2.11387e-10
6.06998e-09
1.83881e-10
5.90777e-09
1.6221e-10
5.76291e-09
1.44858e-10
5.63225e-09
1.30665e-10
5.51347e-09
1.18772e-10
5.40492e-09
1.08557e-10
5.30534e-09
9.95765e-11
5.21382e-09
9.15188e-11
5.12965e-09
8.41663e-11
5.05229e-09
7.73658e-11
4.98128e-09
7.10067e-11
4.91628e-09
6.50044e-11
4.85699e-09
5.92857e-11
4.80322e-09
5.37765e-11
4.75483e-09
4.83895e-11
4.71181e-09
4.30148e-11
4.6743e-09
3.75143e-11
4.64257e-09
3.17304e-11
4.61708e-09
2.54871e-11
4.59854e-09
1.85383e-11
4.5878e-09
1.07378e-11
4.58536e-09
2.44436e-12
4.58941e-09
-4.04643e-12
4.59782e-09
-8.4124e-12
4.60915e-09
-1.13303e-11
4.62221e-09
-1.3065e-11
4.63597e-09
-1.37561e-11
4.6496e-09
-1.36278e-11
4.66253e-09
-1.29312e-11
4.67442e-09
-1.18945e-11
4.68512e-09
-1.06951e-11
4.69457e-09
-9.45611e-12
4.70283e-09
-8.25482e-12
4.70996e-09
-7.13485e-12
4.71608e-09
-6.11694e-12
4.72129e-09
-5.20729e-12
4.72569e-09
-4.40363e-12
4.72939e-09
-3.6992e-12
4.73248e-09
-3.08537e-12
4.73503e-09
-2.55307e-12
4.73712e-09
-2.09355e-12
4.73882e-09
-1.69881e-12
4.74018e-09
-1.36158e-12
4.74126e-09
-1.07543e-12
4.74209e-09
-8.34578e-13
4.74273e-09
-6.33894e-13
4.7432e-09
-4.68702e-13
4.74353e-09
-3.34615e-13
4.74376e-09
-2.27624e-13
4.7439e-09
-1.44023e-13
4.74398e-09
-8.05492e-14
4.74402e-09
-3.43616e-14
4.74402e-09
-6.41103e-16
4.74399e-09
2.30761e-14
4.74395e-09
4.15426e-14
4.7439e-09
5.13005e-14
4.74384e-09
5.73117e-14
4.74378e-09
5.98193e-14
4.74373e-09
5.82104e-14
4.74367e-09
5.40468e-14
4.74362e-09
4.88647e-14
4.74358e-09
4.3389e-14
4.74354e-09
3.7924e-14
4.74351e-09
3.27966e-14
4.74348e-09
2.7987e-14
4.74346e-09
2.36415e-14
4.74344e-09
1.98476e-14
4.74342e-09
1.65666e-14
4.74341e-09
1.37772e-14
4.7434e-09
1.14307e-14
4.74339e-09
9.46071e-15
4.74338e-09
7.80531e-15
4.74337e-09
6.43518e-15
4.74337e-09
5.26059e-15
4.74336e-09
4.29762e-15
4.74336e-09
3.44979e-15
4.74336e-09
2.74951e-15
4.74335e-09
2.09869e-15
4.74335e-09
1.52318e-15
4.74335e-09
8.86922e-16
-2.07309e-16
3.4346e-08
3.15623e-09
-3.46007e-08
3.37788e-08
3.43254e-09
3.2981e-08
3.48344e-09
3.20275e-08
3.42867e-09
3.09735e-08
3.30255e-09
2.98645e-08
3.12037e-09
2.87374e-08
2.89914e-09
2.76205e-08
2.65503e-09
2.6535e-08
2.40174e-09
2.54955e-08
2.15069e-09
2.4512e-08
1.91093e-09
2.35897e-08
1.68897e-09
2.27309e-08
1.48877e-09
2.19352e-08
1.31199e-09
2.12007e-08
1.15844e-09
2.05241e-08
1.02664e-09
1.99018e-08
9.14292e-10
1.93297e-08
8.1878e-10
1.88036e-08
7.37454e-10
1.83197e-08
6.6785e-10
1.78741e-08
6.07806e-10
1.74634e-08
5.55493e-10
1.70847e-08
5.09413e-10
1.67351e-08
4.68361e-10
1.64123e-08
4.31378e-10
1.61141e-08
3.97704e-10
1.58389e-08
3.66735e-10
1.55851e-08
3.37987e-10
1.53514e-08
3.11062e-10
1.51368e-08
2.85624e-10
1.49404e-08
2.6138e-10
1.47617e-08
2.38053e-10
1.46001e-08
2.15369e-10
1.44554e-08
1.93038e-10
1.43277e-08
1.7075e-10
1.4217e-08
1.48182e-10
1.41237e-08
1.2502e-10
1.40482e-08
1.01025e-10
1.39906e-08
7.60948e-11
1.3951e-08
5.0367e-11
1.39295e-08
2.39355e-11
1.39261e-08
-6.39758e-13
1.39368e-08
-1.90986e-11
1.39565e-08
-3.10307e-11
1.39818e-08
-3.83608e-11
1.40101e-08
-4.20664e-11
1.40394e-08
-4.29756e-11
1.40684e-08
-4.18773e-11
1.4096e-08
-3.94699e-11
1.41216e-08
-3.6311e-11
1.41449e-08
-3.28075e-11
1.41659e-08
-2.92346e-11
1.41845e-08
-2.57655e-11
1.42009e-08
-2.25005e-11
1.42152e-08
-1.94905e-11
1.42276e-08
-1.67551e-11
1.42382e-08
-1.42952e-11
1.42472e-08
-1.21011e-11
1.42548e-08
-1.01582e-11
1.42611e-08
-8.44931e-12
1.42664e-08
-6.95691e-12
1.42707e-08
-5.66352e-12
1.42742e-08
-4.55208e-12
1.42769e-08
-3.60609e-12
1.42791e-08
-2.80953e-12
1.42808e-08
-2.14686e-12
1.42821e-08
-1.60281e-12
1.4283e-08
-1.16266e-12
1.42837e-08
-8.12409e-13
1.42841e-08
-5.39166e-13
1.42844e-08
-3.3146e-13
1.42846e-08
-1.78862e-13
1.42847e-08
-7.42925e-14
1.42847e-08
-2.45603e-15
1.42847e-08
4.5596e-14
1.42847e-08
8.15704e-14
1.42847e-08
1.03291e-13
1.42846e-08
1.11015e-13
1.42846e-08
1.09796e-13
1.42845e-08
1.03739e-13
1.42845e-08
9.50276e-14
1.42844e-08
8.50196e-14
1.42844e-08
7.479e-14
1.42843e-08
6.46669e-14
1.42843e-08
5.52296e-14
1.42843e-08
4.67641e-14
1.42843e-08
3.9343e-14
1.42842e-08
3.29457e-14
1.42842e-08
2.75048e-14
1.42842e-08
2.29041e-14
1.42842e-08
1.90178e-14
1.42842e-08
1.57623e-14
1.42842e-08
1.29962e-14
1.42842e-08
1.0674e-14
1.42842e-08
8.66989e-15
1.42842e-08
6.94981e-15
1.42842e-08
5.39159e-15
1.42842e-08
3.93221e-15
1.42842e-08
2.32628e-15
-2.53942e-16
3.64395e-08
2.97209e-09
-3.62554e-08
3.65327e-08
3.33936e-09
3.65026e-08
3.51353e-09
3.63539e-08
3.57739e-09
3.60961e-08
3.56039e-09
3.57428e-08
3.47361e-09
3.53112e-08
3.33078e-09
3.48187e-08
3.14755e-09
3.42818e-08
2.93862e-09
3.37154e-08
2.71705e-09
3.31324e-08
2.49396e-09
3.25433e-08
2.27811e-09
3.19564e-08
2.07567e-09
3.1378e-08
1.89035e-09
3.08127e-08
1.72372e-09
3.02636e-08
1.57573e-09
2.97327e-08
1.44522e-09
2.92211e-08
1.33038e-09
2.87294e-08
1.22913e-09
2.82579e-08
1.13941e-09
2.78064e-08
1.05928e-09
2.73748e-08
9.87056e-10
2.69629e-08
9.21295e-10
2.65705e-08
8.60812e-10
2.61972e-08
8.04632e-10
2.5843e-08
7.5196e-10
2.55076e-08
7.02144e-10
2.51909e-08
6.54639e-10
2.4893e-08
6.08978e-10
2.46139e-08
5.64747e-10
2.43537e-08
5.21561e-10
2.41127e-08
4.79043e-10
2.38913e-08
4.36813e-10
2.36898e-08
3.94475e-10
2.35089e-08
3.51637e-10
2.33492e-08
3.07939e-10
2.32111e-08
2.63123e-10
2.3095e-08
2.17152e-10
2.30007e-08
1.70373e-10
2.29273e-08
1.23772e-10
2.28722e-08
7.90305e-11
2.28343e-08
3.7205e-11
2.28155e-08
-2.34507e-13
2.28142e-08
-2.97334e-11
2.28258e-08
-4.99507e-11
2.28465e-08
-6.27879e-11
2.28733e-08
-6.97841e-11
2.29037e-08
-7.23288e-11
2.29359e-08
-7.16686e-11
2.29685e-08
-6.88431e-11
2.30003e-08
-6.46591e-11
2.30308e-08
-5.97095e-11
2.30594e-08
-5.44102e-11
2.3086e-08
-4.90417e-11
2.31103e-08
-4.37858e-11
2.31323e-08
-3.87558e-11
2.3152e-08
-3.4019e-11
2.31695e-08
-2.96132e-11
2.31849e-08
-2.55571e-11
2.31983e-08
-2.18575e-11
2.32099e-08
-1.85137e-11
2.32197e-08
-1.55196e-11
2.32281e-08
-1.28649e-11
2.3235e-08
-1.05359e-11
2.32407e-08
-8.5156e-12
2.32453e-08
-6.78454e-12
2.3249e-08
-5.32052e-12
2.3252e-08
-4.09954e-12
2.32543e-08
-3.09646e-12
2.3256e-08
-2.28589e-12
2.32573e-08
-1.64294e-12
2.32583e-08
-1.14312e-12
2.3259e-08
-7.6341e-13
2.32595e-08
-4.78883e-13
2.32598e-08
-2.7359e-13
2.326e-08
-1.29799e-13
2.32601e-08
-3.61044e-14
2.32602e-08
1.97711e-14
2.32603e-08
5.43238e-14
2.32603e-08
7.43423e-14
2.32603e-08
8.32546e-14
2.32603e-08
8.43982e-14
2.32603e-08
8.07538e-14
2.32603e-08
7.39001e-14
2.32603e-08
6.57816e-14
2.32603e-08
5.74381e-14
2.32603e-08
4.94887e-14
2.32603e-08
4.22332e-14
2.32602e-08
3.58088e-14
2.32602e-08
3.0215e-14
2.32602e-08
2.53844e-14
2.32602e-08
2.12569e-14
2.32602e-08
1.77076e-14
2.32602e-08
1.4667e-14
2.32602e-08
1.20189e-14
2.32602e-08
9.68215e-15
2.32602e-08
7.53452e-15
2.32602e-08
5.42947e-15
2.32602e-08
2.9965e-15
-8.49913e-16
3.80114e-08
2.74887e-09
-3.77882e-08
3.82365e-08
3.11425e-09
3.84228e-08
3.32726e-09
3.85586e-08
3.44163e-09
3.86366e-08
3.48235e-09
3.86525e-08
3.4577e-09
3.86064e-08
3.37689e-09
3.85019e-08
3.25205e-09
3.83449e-08
3.09565e-09
3.81426e-08
2.91939e-09
3.79028e-08
2.73375e-09
3.76333e-08
2.54753e-09
3.73415e-08
2.36746e-09
3.70338e-08
2.19813e-09
3.67154e-08
2.04212e-09
3.63907e-08
1.9004e-09
3.60632e-08
1.77274e-09
3.57354e-08
1.65813e-09
3.54094e-08
1.55513e-09
3.50867e-08
1.46213e-09
3.47685e-08
1.37753e-09
3.44557e-08
1.29987e-09
3.41491e-08
1.22785e-09
3.38495e-08
1.16038e-09
3.35577e-08
1.09651e-09
3.32742e-08
1.03545e-09
3.29998e-08
9.76557e-10
3.27351e-08
9.19246e-10
3.24811e-08
8.63019e-10
3.22384e-08
8.07416e-10
3.2008e-08
7.52001e-10
3.17907e-08
6.96342e-10
3.15875e-08
6.40008e-10
3.13994e-08
5.82574e-10
3.12274e-08
5.23655e-10
3.10724e-08
4.62966e-10
3.09351e-08
4.00428e-10
3.08159e-08
3.36318e-10
3.07148e-08
2.71452e-10
3.06312e-08
2.07368e-10
3.05639e-08
1.46325e-10
3.05104e-08
9.06973e-11
3.04688e-08
4.13636e-11
3.04405e-08
-1.36476e-12
3.04259e-08
-3.54021e-11
3.04231e-08
-5.99607e-11
3.04298e-08
-7.65345e-11
3.04441e-08
-8.66366e-11
3.04642e-08
-9.16955e-11
3.04883e-08
-9.29804e-11
3.05152e-08
-9.15448e-11
3.05437e-08
-8.82182e-11
3.05729e-08
-8.36294e-11
3.06021e-08
-7.82427e-11
3.06307e-08
-7.23939e-11
3.06583e-08
-6.63243e-11
3.06845e-08
-6.02071e-11
3.0709e-08
-5.41682e-11
3.07318e-08
-4.8301e-11
3.07526e-08
-4.26764e-11
3.07714e-08
-3.73494e-11
3.07883e-08
-3.23629e-11
3.08032e-08
-2.7749e-11
3.08162e-08
-2.35309e-11
3.08274e-08
-1.9722e-11
3.08369e-08
-1.63271e-11
3.08449e-08
-1.33418e-11
3.08516e-08
-1.07535e-11
3.0857e-08
-8.54217e-12
3.08614e-08
-6.68203e-12
3.08649e-08
-5.1426e-12
3.08677e-08
-3.88985e-12
3.08698e-08
-2.888e-12
3.08714e-08
-2.09956e-12
3.08726e-08
-1.49238e-12
3.08735e-08
-1.03405e-12
3.08742e-08
-6.95953e-13
3.08747e-08
-4.53196e-13
3.0875e-08
-2.82078e-13
3.08753e-08
-1.64234e-13
3.08754e-08
-8.56315e-14
3.08755e-08
-3.51615e-14
3.08756e-08
-4.37531e-15
3.08757e-08
1.25524e-14
3.08757e-08
2.16865e-14
3.08758e-08
2.57183e-14
3.08758e-08
2.65916e-14
3.08758e-08
2.5612e-14
3.08758e-08
2.36655e-14
3.08758e-08
2.12903e-14
3.08758e-08
1.87932e-14
3.08758e-08
1.63668e-14
3.08758e-08
1.40718e-14
3.08758e-08
1.19396e-14
3.08758e-08
9.95084e-15
3.08758e-08
8.05085e-15
3.08758e-08
6.16563e-15
3.08758e-08
4.11794e-15
3.08758e-08
1.46065e-15
-2.85782e-15
3.95454e-08
2.55099e-09
-3.93475e-08
3.9773e-08
2.8867e-09
3.99958e-08
3.10446e-09
4.02019e-08
3.23555e-09
4.03836e-08
3.30065e-09
4.05335e-08
3.30774e-09
4.06466e-08
3.26381e-09
4.07204e-08
3.17823e-09
4.07549e-08
3.06117e-09
4.07518e-08
2.92246e-09
4.07144e-08
2.77115e-09
4.06469e-08
2.61512e-09
4.05536e-08
2.46069e-09
4.04393e-08
2.31248e-09
4.0308e-08
2.17342e-09
4.01634e-08
2.045e-09
4.00085e-08
1.92757e-09
3.9846e-08
1.8207e-09
3.96777e-08
1.72342e-09
3.95053e-08
1.63455e-09
3.933e-08
1.5528e-09
3.91529e-08
1.47694e-09
3.8975e-08
1.4058e-09
3.8797e-08
1.33838e-09
3.86197e-08
1.27378e-09
3.84439e-08
1.21124e-09
3.82704e-08
1.15009e-09
3.80999e-08
1.08973e-09
3.79333e-08
1.02963e-09
3.77714e-08
9.69293e-10
3.76151e-08
9.08234e-10
3.74655e-08
8.4599e-10
3.73234e-08
7.82109e-10
3.71898e-08
7.16171e-10
3.70656e-08
6.47841e-10
3.69516e-08
5.76943e-10
3.68485e-08
5.03584e-10
3.67565e-08
4.28305e-10
3.66757e-08
3.52239e-10
3.66059e-08
2.77215e-10
3.65465e-08
2.05667e-10
3.64971e-08
1.40151e-10
3.64559e-08
8.24825e-11
3.64218e-08
3.28095e-11
3.63953e-08
-8.9048e-12
3.63772e-08
-4.18777e-11
3.6367e-08
-6.63488e-11
3.6364e-08
-8.36007e-11
3.63672e-08
-9.49451e-11
3.63758e-08
-1.01597e-10
3.63889e-08
-1.04616e-10
3.64056e-08
-1.04875e-10
3.6425e-08
-1.03071e-10
3.64465e-08
-9.97415e-11
3.64694e-08
-9.52975e-11
3.64931e-08
-9.00528e-11
3.65172e-08
-8.42483e-11
3.65411e-08
-7.80732e-11
3.65645e-08
-7.16809e-11
3.6587e-08
-6.51998e-11
3.66084e-08
-5.8741e-11
3.66284e-08
-5.24026e-11
3.66469e-08
-4.62713e-11
3.66638e-08
-4.04234e-11
3.6679e-08
-3.49235e-11
3.66925e-08
-2.98241e-11
3.67044e-08
-2.51641e-11
3.67146e-08
-2.09683e-11
3.67233e-08
-1.72475e-11
3.67306e-08
-1.3999e-11
3.67367e-08
-1.1208e-11
3.67416e-08
-8.8486e-12
3.67456e-08
-6.8867e-12
3.67488e-08
-5.28147e-12
3.67513e-08
-3.99119e-12
3.67532e-08
-2.97185e-12
3.67547e-08
-2.1807e-12
3.67558e-08
-1.5777e-12
3.67567e-08
-1.12549e-12
3.67573e-08
-7.91701e-13
3.67578e-08
-5.49491e-13
3.67581e-08
-3.76564e-13
3.67584e-08
-2.54849e-13
3.67586e-08
-1.70803e-13
3.67587e-08
-1.13277e-13
3.67588e-08
-7.436e-14
3.67589e-08
-4.82659e-14
3.67589e-08
-3.09132e-14
3.6759e-08
-1.94325e-14
3.6759e-08
-1.18754e-14
3.6759e-08
-6.94463e-15
3.6759e-08
-3.75979e-15
3.67591e-08
-1.76739e-15
3.67591e-08
-6.1147e-16
3.67591e-08
-6.19267e-17
3.67591e-08
-2.54127e-17
3.67591e-08
-4.48379e-16
3.67591e-08
-1.4486e-15
3.67591e-08
-3.28583e-15
-6.8387e-15
4.11197e-08
2.38029e-09
-4.0949e-08
4.13266e-08
2.67974e-09
4.15417e-08
2.88944e-09
4.17528e-08
3.02437e-09
4.19536e-08
3.09987e-09
4.21378e-08
3.12359e-09
4.23001e-08
3.10149e-09
4.24372e-08
3.04113e-09
4.25474e-08
2.95099e-09
4.26304e-08
2.83942e-09
4.26873e-08
2.71421e-09
4.27202e-08
2.58224e-09
4.27317e-08
2.44921e-09
4.27247e-08
2.31946e-09
4.27022e-08
2.19594e-09
4.26668e-08
2.08035e-09
4.2621e-08
1.97341e-09
4.25667e-08
1.87503e-09
4.25054e-08
1.78465e-09
4.24386e-08
1.70139e-09
4.23672e-08
1.62422e-09
4.2292e-08
1.55211e-09
4.22138e-08
1.48404e-09
4.21331e-08
1.41908e-09
4.20504e-08
1.35641e-09
4.19664e-08
1.29526e-09
4.18815e-08
1.23497e-09
4.17964e-08
1.17493e-09
4.17114e-08
1.11458e-09
4.16273e-08
1.0534e-09
4.15446e-08
9.90884e-10
4.14641e-08
9.26549e-10
4.13862e-08
8.59945e-10
4.13117e-08
7.90681e-10
4.12411e-08
7.18484e-10
4.11748e-08
6.43278e-10
4.1113e-08
5.65308e-10
4.10561e-08
4.85274e-10
4.10039e-08
4.04448e-10
4.09564e-08
3.24721e-10
4.09136e-08
2.48467e-10
4.08756e-08
1.78137e-10
4.08424e-08
1.15661e-10
4.08133e-08
6.19242e-11
4.07878e-08
1.65998e-11
4.07665e-08
-2.06387e-11
4.075e-08
-4.98154e-11
4.07382e-08
-7.18186e-11
4.0731e-08
-8.77652e-11
4.07282e-08
-9.87365e-11
4.07293e-08
-1.05702e-10
4.07339e-08
-1.09485e-10
4.07416e-08
-1.10759e-10
4.07519e-08
-1.10059e-10
4.07644e-08
-1.07803e-10
4.07786e-08
-1.0432e-10
4.07943e-08
-9.9865e-11
4.08108e-08
-9.46483e-11
4.0828e-08
-8.88437e-11
4.08454e-08
-8.26037e-11
4.08627e-08
-7.6066e-11
4.08797e-08
-6.93595e-11
4.0896e-08
-6.26055e-11
4.09115e-08
-5.59186e-11
4.0926e-08
-4.9405e-11
4.09393e-08
-4.31605e-11
4.09514e-08
-3.72681e-11
4.09623e-08
-3.17955e-11
4.09718e-08
-2.67934e-11
4.09801e-08
-2.22948e-11
4.09872e-08
-1.83145e-11
4.09932e-08
-1.48503e-11
4.09982e-08
-1.18845e-11
4.10023e-08
-9.38662e-12
4.10056e-08
-7.31809e-12
4.10083e-08
-5.63341e-12
4.10104e-08
-4.28388e-12
4.10121e-08
-3.22042e-12
4.10133e-08
-2.3952e-12
4.10143e-08
-1.76414e-12
4.1015e-08
-1.28853e-12
4.10156e-08
-9.34854e-13
4.1016e-08
-6.74972e-13
4.10163e-08
-4.86207e-13
4.10166e-08
-3.50177e-13
4.10167e-08
-2.52742e-13
4.10169e-08
-1.83186e-13
4.1017e-08
-1.33581e-13
4.10171e-08
-9.81176e-14
4.10171e-08
-7.26425e-14
4.10172e-08
-5.42322e-14
4.10172e-08
-4.08276e-14
4.10172e-08
-3.10131e-14
4.10173e-08
-2.38291e-14
4.10173e-08
-1.85962e-14
4.10173e-08
-1.49136e-14
4.10173e-08
-1.24852e-14
4.10173e-08
-1.12478e-14
4.10173e-08
-1.12468e-14
-1.29516e-14
4.27469e-08
2.23034e-09
-4.25969e-08
4.29325e-08
2.4941e-09
4.31317e-08
2.69028e-09
4.33325e-08
2.82357e-09
4.35285e-08
2.90384e-09
4.37144e-08
2.93767e-09
4.38857e-08
2.93024e-09
4.4039e-08
2.88774e-09
4.41727e-08
2.81731e-09
4.42861e-08
2.7261e-09
4.43794e-08
2.62087e-09
4.4454e-08
2.50767e-09
4.45116e-08
2.39162e-09
4.45543e-08
2.27674e-09
4.45843e-08
2.16589e-09
4.46038e-08
2.06089e-09
4.46145e-08
1.96266e-09
4.46182e-08
1.8714e-09
4.4616e-08
1.78683e-09
4.4609e-08
1.70835e-09
4.45981e-08
1.63516e-09
4.45838e-08
1.56641e-09
4.45666e-08
1.50122e-09
4.45469e-08
1.43877e-09
4.45251e-08
1.37827e-09
4.45013e-08
1.31902e-09
4.44759e-08
1.26036e-09
4.44491e-08
1.20169e-09
4.44213e-08
1.14244e-09
4.43926e-08
1.08208e-09
4.43634e-08
1.02011e-09
4.43339e-08
9.56058e-10
4.43043e-08
8.8949e-10
4.42749e-08
8.20059e-10
4.42459e-08
7.4755e-10
4.42172e-08
6.71969e-10
4.41889e-08
5.93641e-10
4.41608e-08
5.13325e-10
4.4133e-08
4.32297e-10
4.41053e-08
3.52356e-10
4.40781e-08
2.75682e-10
4.40517e-08
2.04496e-10
4.40268e-08
1.40619e-10
4.40036e-08
8.51126e-11
4.39821e-08
3.81042e-11
4.39624e-08
-9.70769e-13
4.39452e-08
-3.25725e-11
4.39307e-08
-5.73228e-11
4.39191e-08
-7.61564e-11
4.39104e-08
-9.00235e-11
4.39045e-08
-9.97951e-11
4.39012e-08
-1.06227e-10
4.39004e-08
-1.09951e-10
4.39018e-08
-1.11475e-10
4.39052e-08
-1.11205e-10
4.39104e-08
-1.09461e-10
4.3917e-08
-1.06499e-10
4.39249e-08
-1.02525e-10
4.39337e-08
-9.7717e-11
4.39434e-08
-9.22289e-11
4.39535e-08
-8.62049e-11
4.39639e-08
-7.97825e-11
4.39744e-08
-7.30958e-11
4.39848e-08
-6.62761e-11
4.39948e-08
-5.94507e-11
4.40044e-08
-5.27404e-11
4.40134e-08
-4.62561e-11
4.40217e-08
-4.00955e-11
4.40292e-08
-3.434e-11
4.4036e-08
-2.90524e-11
4.4042e-08
-2.42754e-11
4.40471e-08
-2.00314e-11
4.40516e-08
-1.63231e-11
4.40553e-08
-1.31361e-11
4.40584e-08
-1.04423e-11
4.4061e-08
-8.20253e-12
4.40631e-08
-6.37021e-12
4.40648e-08
-4.89472e-12
4.40661e-08
-3.72439e-12
4.40671e-08
-2.80924e-12
4.4068e-08
-2.1034e-12
4.40686e-08
-1.56585e-12
4.40691e-08
-1.16109e-12
4.40695e-08
-8.59376e-13
4.40697e-08
-6.36209e-13
4.407e-08
-4.72056e-13
4.40701e-08
-3.51689e-13
4.40703e-08
-2.63503e-13
4.40704e-08
-1.98766e-13
4.40704e-08
-1.51042e-13
4.40705e-08
-1.15658e-13
4.40705e-08
-8.92411e-14
4.40706e-08
-6.93851e-14
4.40706e-08
-5.44091e-14
4.40706e-08
-4.3091e-14
4.40707e-08
-3.46374e-14
4.40707e-08
-2.84472e-14
4.40707e-08
-2.42125e-14
4.40707e-08
-2.17122e-14
-2.08503e-14
4.44295e-08
2.09567e-09
-4.42949e-08
4.45968e-08
2.32683e-09
4.478e-08
2.50714e-09
4.49679e-08
2.63565e-09
4.5154e-08
2.71769e-09
4.53334e-08
2.75828e-09
4.55019e-08
2.76178e-09
4.56564e-08
2.73325e-09
4.57951e-08
2.67862e-09
4.59172e-08
2.60397e-09
4.60229e-08
2.51518e-09
4.6113e-08
2.41757e-09
4.61889e-08
2.31572e-09
4.62523e-08
2.21333e-09
4.6305e-08
2.11316e-09
4.63488e-08
2.01706e-09
4.63854e-08
1.92611e-09
4.64161e-08
1.84073e-09
4.6442e-08
1.76089e-09
4.64641e-08
1.68622e-09
4.64831e-08
1.61614e-09
4.64996e-08
1.54996e-09
4.65138e-08
1.48696e-09
4.65262e-08
1.42642e-09
4.65368e-08
1.36764e-09
4.65459e-08
1.30996e-09
4.65535e-08
1.25276e-09
4.65597e-08
1.19546e-09
4.65646e-08
1.13753e-09
4.65683e-08
1.07845e-09
4.65706e-08
1.01773e-09
4.65718e-08
9.54935e-10
4.65716e-08
8.89666e-10
4.657e-08
8.21626e-10
4.65669e-08
7.50659e-10
4.65621e-08
6.76826e-10
4.65552e-08
6.0049e-10
4.65461e-08
5.22404e-10
4.65347e-08
4.43767e-10
4.65208e-08
3.66208e-10
4.65048e-08
2.91652e-10
4.64873e-08
2.2205e-10
4.64689e-08
1.59034e-10
4.64503e-08
1.03652e-10
4.64322e-08
5.6247e-11
4.64147e-08
1.64817e-11
4.63984e-08
-1.62303e-11
4.63836e-08
-4.24943e-11
4.63705e-08
-6.30835e-11
4.63593e-08
-7.88229e-11
4.635e-08
-9.04906e-11
4.63425e-08
-9.87757e-11
4.63368e-08
-1.04264e-10
4.63328e-08
-1.07439e-10
4.63303e-08
-1.08691e-10
4.63292e-08
-1.08331e-10
4.63293e-08
-1.06612e-10
4.63305e-08
-1.0374e-10
4.63327e-08
-9.98893e-11
4.63356e-08
-9.52155e-11
4.63393e-08
-8.98624e-11
4.63435e-08
-8.39688e-11
4.63481e-08
-7.76714e-11
4.63529e-08
-7.11064e-11
4.63579e-08
-6.44081e-11
4.63628e-08
-5.77071e-11
4.63677e-08
-5.11267e-11
4.63724e-08
-4.47793e-11
4.63768e-08
-3.87627e-11
4.63809e-08
-3.31569e-11
4.63847e-08
-2.80222e-11
4.6388e-08
-2.33976e-11
4.6391e-08
-1.93017e-11
4.63936e-08
-1.57333e-11
4.63958e-08
-1.26753e-11
4.63977e-08
-1.00967e-11
4.63993e-08
-7.95659e-12
4.64006e-08
-6.20748e-12
4.64017e-08
-4.79881e-12
4.64026e-08
-3.67992e-12
4.64033e-08
-2.80282e-12
4.64038e-08
-2.12351e-12
4.64043e-08
-1.60304e-12
4.64046e-08
-1.20798e-12
4.64049e-08
-9.10328e-13
4.64051e-08
-6.87262e-13
4.64053e-08
-5.20609e-13
4.64054e-08
-3.96227e-13
4.64055e-08
-3.03269e-13
4.64056e-08
-2.33561e-13
4.64057e-08
-1.81038e-13
4.64057e-08
-1.41235e-13
4.64058e-08
-1.10892e-13
4.64058e-08
-8.7676e-14
4.64058e-08
-6.98605e-14
4.64058e-08
-5.62687e-14
4.64058e-08
-4.59984e-14
4.64059e-08
-3.84878e-14
4.64059e-08
-3.3255e-14
-2.97539e-14
4.61695e-08
1.97241e-09
-4.60463e-08
4.63216e-08
2.17475e-09
4.64902e-08
2.33856e-09
4.66655e-08
2.46027e-09
4.68413e-08
2.54197e-09
4.70125e-08
2.58703e-09
4.71753e-08
2.59895e-09
4.73268e-08
2.5818e-09
4.7465e-08
2.54042e-09
4.7589e-08
2.47994e-09
4.76988e-08
2.4054e-09
4.77949e-08
2.32144e-09
4.78785e-08
2.23215e-09
4.79509e-08
2.14092e-09
4.80137e-08
2.05035e-09
4.80685e-08
1.96229e-09
4.81167e-08
1.87792e-09
4.81596e-08
1.79785e-09
4.81982e-08
1.72224e-09
4.82335e-08
1.65091e-09
4.82662e-08
1.58349e-09
4.82967e-08
1.51946e-09
4.83254e-08
1.45823e-09
4.83526e-08
1.3992e-09
4.83785e-08
1.34177e-09
4.84031e-08
1.28533e-09
4.84266e-08
1.22933e-09
4.84488e-08
1.17324e-09
4.84698e-08
1.11655e-09
4.84895e-08
1.05877e-09
4.85077e-08
9.99473e-10
4.85244e-08
9.38245e-10
4.85393e-08
8.74747e-10
4.85522e-08
8.08733e-10
4.85628e-08
7.40097e-10
4.85707e-08
6.6894e-10
4.85755e-08
5.95638e-10
4.8577e-08
5.20902e-10
4.8575e-08
4.4582e-10
4.85694e-08
3.71827e-10
4.85604e-08
3.00586e-10
4.85487e-08
2.33776e-10
4.85349e-08
1.72827e-10
4.85198e-08
1.18705e-10
4.85043e-08
7.18246e-11
4.84887e-08
3.20616e-11
4.84735e-08
-1.06499e-12
4.84592e-08
-2.81386e-11
4.84459e-08
-4.98133e-11
4.84339e-08
-6.67998e-11
4.84232e-08
-7.97871e-11
4.84138e-08
-8.93996e-11
4.84057e-08
-9.61792e-11
4.83989e-08
-1.00582e-10
4.83931e-08
-1.02982e-10
4.83885e-08
-1.03687e-10
4.83848e-08
-1.02946e-10
4.83821e-08
-1.00965e-10
4.83801e-08
-9.7923e-11
4.83789e-08
-9.39755e-11
4.83783e-08
-8.92681e-11
4.83782e-08
-8.39404e-11
4.83787e-08
-7.81299e-11
4.83796e-08
-7.19735e-11
4.83808e-08
-6.56068e-11
4.83822e-08
-5.91625e-11
4.83838e-08
-5.27671e-11
4.83856e-08
-4.65377e-11
4.83874e-08
-4.05778e-11
4.83892e-08
-3.49746e-11
4.8391e-08
-2.97963e-11
4.83927e-08
-2.50908e-11
4.83943e-08
-2.08851e-11
4.83957e-08
-1.71872e-11
4.83971e-08
-1.39877e-11
4.83982e-08
-1.12627e-11
4.83992e-08
-8.97743e-12
4.84001e-08
-7.08904e-12
4.84009e-08
-5.55056e-12
4.84015e-08
-4.3137e-12
4.8402e-08
-3.33167e-12
4.84025e-08
-2.56078e-12
4.84028e-08
-1.96175e-12
4.84031e-08
-1.50027e-12
4.84034e-08
-1.14719e-12
4.84036e-08
-8.78416e-13
4.84037e-08
-6.7441e-13
4.84038e-08
-5.19737e-13
4.84039e-08
-4.02362e-13
4.8404e-08
-3.13058e-13
4.84041e-08
-2.44852e-13
4.84041e-08
-1.92521e-13
4.84042e-08
-1.52178e-13
4.84042e-08
-1.2098e-13
4.84042e-08
-9.67937e-14
4.84043e-08
-7.81129e-14
4.84043e-08
-6.377e-14
4.84043e-08
-5.29708e-14
4.84043e-08
-4.50131e-14
-3.91043e-14
4.79689e-08
1.85786e-09
-4.78543e-08
4.81085e-08
2.03512e-09
4.82643e-08
2.18281e-09
4.8428e-08
2.29651e-09
4.85937e-08
2.37626e-09
4.87568e-08
2.42399e-09
4.89134e-08
2.4423e-09
4.90608e-08
2.43444e-09
4.91969e-08
2.40427e-09
4.93208e-08
2.35606e-09
4.94321e-08
2.29408e-09
4.95312e-08
2.22235e-09
4.96189e-08
2.14448e-09
4.96963e-08
2.06353e-09
4.97647e-08
1.98194e-09
4.98255e-08
1.9015e-09
4.98799e-08
1.82346e-09
4.99293e-08
1.74854e-09
4.99744e-08
1.67706e-09
5.00163e-08
1.60902e-09
5.00556e-08
1.54421e-09
5.00928e-08
1.48227e-09
5.01282e-08
1.42276e-09
5.01623e-08
1.36517e-09
5.01951e-08
1.30899e-09
5.02267e-08
1.25371e-09
5.02572e-08
1.19883e-09
5.02865e-08
1.14388e-09
5.03147e-08
1.08839e-09
5.03415e-08
1.03193e-09
5.03669e-08
9.74108e-10
5.03906e-08
9.14563e-10
5.04123e-08
8.53009e-10
5.04318e-08
7.89249e-10
5.04487e-08
7.23226e-10
5.04625e-08
6.55068e-10
5.0473e-08
5.85147e-10
5.04798e-08
5.1412e-10
5.04827e-08
4.42955e-10
5.04816e-08
3.72898e-10
5.04768e-08
3.05371e-10
5.04688e-08
2.41806e-10
5.04582e-08
1.83438e-10
5.04458e-08
1.31139e-10
5.04322e-08
8.53388e-11
5.04183e-08
4.60352e-11
5.04043e-08
1.28982e-11
5.03907e-08
-1.45665e-11
5.03778e-08
-3.69214e-11
5.03658e-08
-5.47746e-11
5.03548e-08
-6.87305e-11
5.03447e-08
-7.93501e-11
5.03357e-08
-8.71311e-11
5.03276e-08
-9.25009e-11
5.03204e-08
-9.5819e-11
5.03141e-08
-9.73841e-11
5.03086e-08
-9.74445e-11
5.03039e-08
-9.62091e-11
5.02998e-08
-9.38576e-11
5.02964e-08
-9.05504e-11
5.02935e-08
-8.64355e-11
5.02912e-08
-8.16543e-11
5.02895e-08
-7.63451e-11
5.02881e-08
-7.06447e-11
5.02872e-08
-6.46881e-11
5.02867e-08
-5.86068e-11
5.02864e-08
-5.25267e-11
5.02864e-08
-4.65642e-11
5.02867e-08
-4.08232e-11
5.02871e-08
-3.53924e-11
5.02877e-08
-3.03422e-11
5.02883e-08
-2.57239e-11
5.0289e-08
-2.15691e-11
5.02897e-08
-1.78906e-11
5.02904e-08
-1.46845e-11
5.0291e-08
-1.19326e-11
5.02917e-08
-9.60528e-12
5.02922e-08
-7.66476e-12
5.02928e-08
-6.06849e-12
5.02932e-08
-4.77187e-12
5.02936e-08
-3.73096e-12
5.0294e-08
-2.90417e-12
5.02943e-08
-2.25363e-12
5.02945e-08
-1.74583e-12
5.02947e-08
-1.35197e-12
5.02949e-08
-1.04791e-12
5.0295e-08
-8.13848e-13
5.02951e-08
-6.3388e-13
5.02952e-08
-4.95443e-13
5.02953e-08
-3.88752e-13
5.02954e-08
-3.06292e-13
5.02954e-08
-2.4234e-13
5.02954e-08
-1.92562e-13
5.02955e-08
-1.53731e-13
5.02955e-08
-1.23385e-13
5.02955e-08
-9.97392e-14
5.02955e-08
-8.13976e-14
5.02956e-08
-6.73587e-14
5.02956e-08
-5.67428e-14
-4.86557e-14
4.98301e-08
1.75013e-09
-4.97223e-08
4.99595e-08
1.90566e-09
5.01041e-08
2.03819e-09
5.02573e-08
2.14332e-09
5.04136e-08
2.21993e-09
5.05688e-08
2.26883e-09
5.07193e-08
2.29184e-09
5.08623e-08
2.29143e-09
5.09959e-08
2.27068e-09
5.11189e-08
2.23306e-09
5.12308e-08
2.18215e-09
5.13318e-08
2.1214e-09
5.14223e-08
2.05396e-09
5.15033e-08
1.98256e-09
5.15757e-08
1.90945e-09
5.16409e-08
1.83635e-09
5.16999e-08
1.76451e-09
5.17537e-08
1.69474e-09
5.18033e-08
1.62746e-09
5.18494e-08
1.56284e-09
5.18929e-08
1.50078e-09
5.19341e-08
1.44109e-09
5.19734e-08
1.38342e-09
5.20112e-08
1.32738e-09
5.20476e-08
1.27257e-09
5.20828e-08
1.21854e-09
5.21167e-08
1.16487e-09
5.21495e-08
1.11113e-09
5.21809e-08
1.05692e-09
5.2211e-08
1.00185e-09
5.22395e-08
9.45587e-10
5.22663e-08
8.87817e-10
5.2291e-08
8.28303e-10
5.23134e-08
7.66899e-10
5.2333e-08
7.03584e-10
5.23496e-08
6.38505e-10
5.23627e-08
5.72021e-10
5.23721e-08
5.04732e-10
5.23775e-08
4.37491e-10
5.23791e-08
3.71372e-10
5.23768e-08
3.07586e-10
5.23713e-08
2.4735e-10
5.2363e-08
1.91725e-10
5.23527e-08
1.41489e-10
5.23409e-08
9.70647e-11
5.23284e-08
5.85227e-11
5.23157e-08
2.56544e-11
5.23031e-08
-1.92578e-12
5.22908e-08
-2.46902e-11
5.22792e-08
-4.31558e-11
5.22683e-08
-5.78483e-11
5.22582e-08
-6.92674e-11
5.2249e-08
-7.78663e-11
5.22405e-08
-8.4043e-11
5.22328e-08
-8.81389e-11
5.22259e-08
-9.04439e-11
5.22197e-08
-9.12031e-11
5.22141e-08
-9.06262e-11
5.22091e-08
-8.88955e-11
5.22047e-08
-8.61745e-11
5.22009e-08
-8.26141e-11
5.21976e-08
-7.83575e-11
5.21948e-08
-7.35439e-11
5.21925e-08
-6.83095e-11
5.21906e-08
-6.2788e-11
5.21891e-08
-5.71087e-11
5.21879e-08
-5.13948e-11
5.21871e-08
-4.57604e-11
5.21866e-08
-4.03075e-11
5.21864e-08
-3.51233e-11
5.21863e-08
-3.02781e-11
5.21864e-08
-2.58241e-11
5.21866e-08
-2.1795e-11
5.21869e-08
-1.82068e-11
5.21873e-08
-1.50596e-11
5.21877e-08
-1.23396e-11
5.21881e-08
-1.0022e-11
5.21885e-08
-8.07386e-12
5.21889e-08
-6.4572e-12
5.21893e-08
-5.13158e-12
5.21896e-08
-4.05654e-12
5.21899e-08
-3.19336e-12
5.21902e-08
-2.50636e-12
5.21904e-08
-1.96363e-12
5.21906e-08
-1.53741e-12
5.21907e-08
-1.20419e-12
5.21909e-08
-9.44405e-13
5.2191e-08
-7.42163e-13
5.2191e-08
-5.84724e-13
5.21911e-08
-4.62024e-13
5.21912e-08
-3.66209e-13
5.21912e-08
-2.91213e-13
5.21913e-08
-2.32363e-13
5.21913e-08
-1.8612e-13
5.21913e-08
-1.49747e-13
5.21914e-08
-1.21214e-13
5.21914e-08
-9.8918e-14
5.21914e-08
-8.16719e-14
5.21914e-08
-6.84504e-14
-5.83181e-14
5.17556e-08
1.64784e-09
-5.16533e-08
5.18767e-08
1.78457e-09
5.20117e-08
1.90316e-09
5.21554e-08
1.99962e-09
5.23031e-08
2.07225e-09
5.24508e-08
2.12114e-09
5.25952e-08
2.14739e-09
5.27338e-08
2.15283e-09
5.28646e-08
2.13988e-09
5.29864e-08
2.11131e-09
5.30984e-08
2.07009e-09
5.32007e-08
2.01914e-09
5.32935e-08
1.96117e-09
5.33774e-08
1.89862e-09
5.34534e-08
1.8335e-09
5.35223e-08
1.76745e-09
5.35851e-08
1.7017e-09
5.36427e-08
1.63707e-09
5.36961e-08
1.57411e-09
5.37459e-08
1.51305e-09
5.37927e-08
1.45394e-09
5.38371e-08
1.39669e-09
5.38795e-08
1.34108e-09
5.392e-08
1.28681e-09
5.39591e-08
1.23355e-09
5.39967e-08
1.18095e-09
5.40329e-08
1.12864e-09
5.40677e-08
1.07627e-09
5.41012e-08
1.02347e-09
5.41331e-08
9.69931e-10
5.41634e-08
9.15345e-10
5.41917e-08
8.59457e-10
5.42179e-08
8.02078e-10
5.42417e-08
7.431e-10
5.42628e-08
6.82534e-10
5.42808e-08
6.20539e-10
5.42953e-08
5.57454e-10
5.43062e-08
4.93822e-10
5.43133e-08
4.30391e-10
5.43166e-08
3.68085e-10
5.43163e-08
3.07933e-10
5.43127e-08
2.50968e-10
5.43063e-08
1.98102e-10
5.42977e-08
1.50024e-10
5.42877e-08
1.07137e-10
5.42766e-08
6.95612e-11
5.42651e-08
3.71749e-11
5.42535e-08
9.69219e-12
5.42421e-08
-1.32726e-11
5.42311e-08
-3.21532e-11
5.42206e-08
-4.74034e-11
5.42108e-08
-5.9464e-11
5.42017e-08
-6.87446e-11
5.41933e-08
-7.56121e-11
5.41855e-08
-8.03885e-11
5.41784e-08
-8.33522e-11
5.4172e-08
-8.47433e-11
5.41661e-08
-8.47702e-11
5.41608e-08
-8.36164e-11
5.41561e-08
-8.14474e-11
5.41519e-08
-7.84159e-11
5.41482e-08
-7.46666e-11
5.4145e-08
-7.03389e-11
5.41423e-08
-6.55681e-11
5.414e-08
-6.04859e-11
5.41381e-08
-5.5219e-11
5.41366e-08
-4.98874e-11
5.41354e-08
-4.4602e-11
5.41346e-08
-3.94618e-11
5.4134e-08
-3.45519e-11
5.41337e-08
-2.99412e-11
5.41335e-08
-2.5682e-11
5.41335e-08
-2.18091e-11
5.41337e-08
-1.83409e-11
5.41339e-08
-1.52806e-11
5.41342e-08
-1.26183e-11
5.41345e-08
-1.03338e-11
5.41348e-08
-8.39856e-12
5.41351e-08
-6.77923e-12
5.41354e-08
-5.43951e-12
5.41357e-08
-4.34262e-12
5.4136e-08
-3.45296e-12
5.41362e-08
-2.73733e-12
5.41364e-08
-2.16572e-12
5.41366e-08
-1.71173e-12
5.41367e-08
-1.35274e-12
5.41369e-08
-1.0697e-12
5.4137e-08
-8.46936e-13
5.41371e-08
-6.71711e-13
5.41371e-08
-5.33826e-13
5.41372e-08
-4.25205e-13
5.41372e-08
-3.39518e-13
5.41373e-08
-2.71819e-13
5.41373e-08
-2.18299e-13
5.41373e-08
-1.75978e-13
5.41374e-08
-1.426e-13
5.41374e-08
-1.16374e-13
5.41374e-08
-9.59405e-14
5.41374e-08