/*--------------------------------*- C++ -*----------------------------------*\
| =========                 |                                                 |
| \\      /  F ield         | OpenFOAM: The Open Source CFD Toolbox           |
|  \\    /   O peration     | Version:  2.3.0                                 |
|   \\  /    A nd           | Web:      www.OpenFOAM.org                      |
|    \\/     M anipulation  |                                                 |
\*---------------------------------------------------------------------------*/
FoamFile
{
    version     2.0;
    format      ascii;
    class       volVectorField;
    location    "0.15";
    object      U;
}
// * * * * * * * * * * * * * * * * * * * * * * * * * * * * * * * * * * * * * //

dimensions      [0 1 -1 0 0 0 0];

internalField   nonuniform List<vector> 
3375
(
(0.173429 0.00611819 0)
(0.156971 0.00610842 0)
(0.141107 0.00565441 0)
(0.126106 0.0050412 0)
(0.112362 0.00437133 0)
(0.100022 0.0036953 0)
(0.0890927 0.00304898 0)
(0.0795425 0.00245669 0)
(0.0713168 0.00193294 0)
(0.0643316 0.00148506 0)
(0.0584747 0.00111453 0)
(0.0536148 0.000817884 0)
(0.0496128 0.000587887 0)
(0.046331 0.000415046 0)
(0.0436404 0.000289062 0)
(0.0414257 0.000199983 0)
(0.0395879 0.000138925 0)
(0.0380452 9.84071e-05 0)
(0.0367323 7.24191e-05 0)
(0.0355981 5.63248e-05 0)
(0.034604 4.66861e-05 0)
(0.033721 4.10547e-05 0)
(0.032928 3.77615e-05 0)
(0.0322095 3.57228e-05 0)
(0.0315543 3.42746e-05 0)
(0.0309541 3.30388e-05 0)
(0.0304028 3.18236e-05 0)
(0.0298958 3.05506e-05 0)
(0.0294295 2.92066e-05 0)
(0.0290011 2.78099e-05 0)
(0.0286083 2.63873e-05 0)
(0.0282492 2.49565e-05 0)
(0.0279225 2.35089e-05 0)
(0.0276271 2.19929e-05 0)
(0.0273628 2.02979e-05 0)
(0.0271297 1.8245e-05 0)
(0.0269292 1.56162e-05 0)
(0.0267634 1.23048e-05 0)
(0.0266358 8.53574e-06 0)
(0.0265508 4.54442e-06 0)
(0.026514 1.49908e-06 0)
(0.0265236 -1.57781e-06 0)
(0.0265617 -3.8894e-06 0)
(0.0266201 -6.1883e-06 0)
(0.0266917 -7.75411e-06 0)
(0.0267699 -8.38847e-06 0)
(0.0268496 -8.31885e-06 0)
(0.0269266 -7.81299e-06 0)
(0.0269985 -7.07658e-06 0)
(0.0270638 -6.24991e-06 0)
(0.0271221 -5.42144e-06 0)
(0.0271732 -4.64159e-06 0)
(0.0272176 -3.93517e-06 0)
(0.0272558 -3.31078e-06 0)
(0.0272884 -2.76756e-06 0)
(0.0273161 -2.29968e-06 0)
(0.0273394 -1.89921e-06 0)
(0.0273589 -1.55785e-06 0)
(0.0273751 -1.26778e-06 0)
(0.0273885 -1.02208e-06 0)
(0.0273994 -8.14865e-07 0)
(0.0274082 -6.40856e-07 0)
(0.0274151 -4.95397e-07 0)
(0.0274206 -3.74634e-07 0)
(0.0274248 -2.75453e-07 0)
(0.027428 -1.95221e-07 0)
(0.0274303 -1.31577e-07 0)
(0.0274319 -8.24561e-08 0)
(0.0274329 -4.58983e-08 0)
(0.0274335 -1.99281e-08 0)
(0.0274339 -2.19541e-09 0)
(0.027434 1.39219e-08 0)
(0.0274339 3.75108e-08 0)
(0.0274337 4.87177e-08 0)
(0.0274334 5.09881e-08 0)
(0.0274331 5.11554e-08 0)
(0.0274328 5.00137e-08 0)
(0.0274324 4.617e-08 0)
(0.0274321 4.1298e-08 0)
(0.0274318 3.6379e-08 0)
(0.0274315 3.16793e-08 0)
(0.0274313 2.72522e-08 0)
(0.0274311 2.32581e-08 0)
(0.0274309 1.95886e-08 0)
(0.0274308 1.63526e-08 0)
(0.0274306 1.35797e-08 0)
(0.0274305 1.12123e-08 0)
(0.0274304 9.22759e-09 0)
(0.0274304 7.57371e-09 0)
(0.0274303 6.2034e-09 0)
(0.0274303 5.05869e-09 0)
(0.0274302 4.1264e-09 0)
(0.0274302 3.32593e-09 0)
(0.0274302 2.68603e-09 0)
(0.0274301 2.11502e-09 0)
(0.0274301 1.65936e-09 0)
(0.0274301 1.22696e-09 0)
(0.0274301 8.52112e-10 0)
(0.0274301 4.10198e-10 0)
(0.0274301 -3.78421e-10 0)
(0.192307 0.00952428 0)
(0.19017 0.009933 0)
(0.186415 0.00967918 0)
(0.181438 0.00917699 0)
(0.175733 0.00854356 0)
(0.169634 0.00782255 0)
(0.16336 0.00705188 0)
(0.157075 0.0062657 0)
(0.150913 0.00549252 0)
(0.144975 0.00475584 0)
(0.139327 0.00407421 0)
(0.13401 0.0034605 0)
(0.129045 0.00292168 0)
(0.124434 0.00245921 0)
(0.120172 0.00207002 0)
(0.116242 0.00174779 0)
(0.112626 0.00148423 0)
(0.109301 0.00127031 0)
(0.106245 0.00109719 0)
(0.103434 0.000956796 0)
(0.100847 0.00084217 0)
(0.098465 0.000747569 0)
(0.0962684 0.000668413 0)
(0.0942417 0.000601137 0)
(0.0923704 0.000543027 0)
(0.0906422 0.000492038 0)
(0.0890463 0.000446642 0)
(0.0875736 0.000405693 0)
(0.0862163 0.00036833 0)
(0.0849679 0.000333883 0)
(0.0838233 0.000301818 0)
(0.0827783 0.000271674 0)
(0.08183 0.000243012 0)
(0.0809765 0.000215379 0)
(0.0802171 0.000188263 0)
(0.0795523 0.000161068 0)
(0.0789834 0.000133127 0)
(0.0785126 0.000103841 0)
(0.078142 7.29982e-05 0)
(0.0778724 4.06171e-05 0)
(0.0777014 7.97366e-06 0)
(0.0776348 -2.09022e-05 0)
(0.0776643 -3.96654e-05 0)
(0.0777541 -4.95026e-05 0)
(0.0778831 -5.40877e-05 0)
(0.0780352 -5.50683e-05 0)
(0.0781979 -5.33117e-05 0)
(0.0783618 -4.96946e-05 0)
(0.0785202 -4.50448e-05 0)
(0.078669 -3.99973e-05 0)
(0.0788057 -3.49722e-05 0)
(0.0789293 -3.02198e-05 0)
(0.0790396 -2.58702e-05 0)
(0.0791371 -2.19749e-05 0)
(0.0792224 -1.85369e-05 0)
(0.0792964 -1.55331e-05 0)
(0.0793601 -1.29278e-05 0)
(0.0794146 -1.0681e-05 0)
(0.0794607 -8.75313e-06 0)
(0.0794994 -7.10704e-06 0)
(0.0795316 -5.70937e-06 0)
(0.079558 -4.52999e-06 0)
(0.0795796 -3.54187e-06 0)
(0.0795968 -2.72097e-06 0)
(0.0796105 -2.04596e-06 0)
(0.0796211 -1.49761e-06 0)
(0.0796292 -1.05835e-06 0)
(0.0796352 -7.12299e-07 0)
(0.0796396 -4.45317e-07 0)
(0.0796427 -2.45464e-07 0)
(0.0796447 -1.03186e-07 0)
(0.079646 -7.45364e-09 0)
(0.0796467 6.05414e-08 0)
(0.0796471 9.92186e-08 0)
(0.0796472 1.36228e-07 0)
(0.0796472 1.58665e-07 0)
(0.079647 1.67717e-07 0)
(0.0796467 1.64502e-07 0)
(0.0796464 1.5279e-07 0)
(0.0796461 1.3753e-07 0)
(0.0796458 1.21279e-07 0)
(0.0796455 1.05231e-07 0)
(0.0796453 9.03141e-08 0)
(0.079645 7.64705e-08 0)
(0.0796448 6.4133e-08 0)
(0.0796447 5.34527e-08 0)
(0.0796445 4.43305e-08 0)
(0.0796444 3.66368e-08 0)
(0.0796443 3.02092e-08 0)
(0.0796442 2.48561e-08 0)
(0.0796442 2.03916e-08 0)
(0.0796441 1.67056e-08 0)
(0.0796441 1.35966e-08 0)
(0.079644 1.10348e-08 0)
(0.079644 8.83301e-09 0)
(0.079644 6.98864e-09 0)
(0.079644 5.32516e-09 0)
(0.0796439 3.8132e-09 0)
(0.0796439 2.16131e-09 0)
(0.0796439 -5.07343e-10 0)
(0.195239 0.00892929 0)
(0.196191 0.00983865 0)
(0.196488 0.0101656 0)
(0.196013 0.0101778 0)
(0.194882 0.0099619 0)
(0.193208 0.00955546 0)
(0.191076 0.00900391 0)
(0.188572 0.0083565 0)
(0.185785 0.00765788 0)
(0.182802 0.00694597 0)
(0.179698 0.00625141 0)
(0.176536 0.00559687 0)
(0.173365 0.00499697 0)
(0.170226 0.00445903 0)
(0.167146 0.0039844 0)
(0.164147 0.00357015 0)
(0.161241 0.0032107 0)
(0.158437 0.0028992 0)
(0.155739 0.00262858 0)
(0.153149 0.00239219 0)
(0.150668 0.00218417 0)
(0.148295 0.00199957 0)
(0.146028 0.00183429 0)
(0.143867 0.00168501 0)
(0.141809 0.00154906 0)
(0.139854 0.00142428 0)
(0.138 0.0013089 0)
(0.136248 0.00120145 0)
(0.134596 0.00110072 0)
(0.133045 0.00100562 0)
(0.131595 0.0009152 0)
(0.130248 0.000828545 0)
(0.129004 0.000744764 0)
(0.127867 0.000662963 0)
(0.126839 0.000582244 0)
(0.125922 0.000501764 0)
(0.125121 0.000420833 0)
(0.124438 0.00033909 0)
(0.123873 0.000256709 0)
(0.123425 0.000174708 0)
(0.123086 9.45872e-05 0)
(0.122835 2.01203e-05 0)
(0.122679 -4.22407e-05 0)
(0.122632 -8.61565e-05 0)
(0.122665 -0.000112213 0)
(0.122756 -0.000125163 0)
(0.122888 -0.000128798 0)
(0.123044 -0.000125936 0)
(0.123215 -0.000118866 0)
(0.12339 -0.000109375 0)
(0.123564 -9.87558e-05 0)
(0.123733 -8.78799e-05 0)
(0.123892 -7.72993e-05 0)
(0.124041 -6.73356e-05 0)
(0.124177 -5.81551e-05 0)
(0.124302 -4.98245e-05 0)
(0.124414 -4.23503e-05 0)
(0.124514 -3.57052e-05 0)
(0.124602 -2.98441e-05 0)
(0.124679 -2.47139e-05 0)
(0.124746 -2.02584e-05 0)
(0.124804 -1.64208e-05 0)
(0.124852 -1.31453e-05 0)
(0.124893 -1.03775e-05 0)
(0.124927 -8.06443e-06 0)
(0.124954 -6.15476e-06 0)
(0.124977 -4.59892e-06 0)
(0.124994 -3.34956e-06 0)
(0.125008 -2.36221e-06 0)
(0.125019 -1.59619e-06 0)
(0.125027 -1.0157e-06 0)
(0.125033 -5.91025e-07 0)
(0.125037 -2.97208e-07 0)
(0.12504 -9.87039e-08 0)
(0.125042 4.77001e-08 0)
(0.125044 1.40506e-07 0)
(0.125045 1.85753e-07 0)
(0.125045 2.03763e-07 0)
(0.125046 2.07776e-07 0)
(0.125046 2.00988e-07 0)
(0.125046 1.87168e-07 0)
(0.125046 1.69289e-07 0)
(0.125046 1.49961e-07 0)
(0.125046 1.30197e-07 0)
(0.125046 1.11311e-07 0)
(0.125046 9.41384e-08 0)
(0.125046 7.90046e-08 0)
(0.125046 6.5935e-08 0)
(0.125046 5.48273e-08 0)
(0.125046 4.54605e-08 0)
(0.125046 3.75845e-08 0)
(0.125046 3.10061e-08 0)
(0.125046 2.54625e-08 0)
(0.125046 2.08145e-08 0)
(0.125046 1.68461e-08 0)
(0.125046 1.34362e-08 0)
(0.125046 1.03855e-08 0)
(0.125046 7.51673e-09 0)
(0.125046 4.36702e-09 0)
(0.125046 -4.61634e-10 0)
(0.196259 0.00822354 0)
(0.197551 0.00923566 0)
(0.198726 0.00976994 0)
(0.199596 0.0100013 0)
(0.200147 0.0100048 0)
(0.200385 0.00981177 0)
(0.200305 0.0094577 0)
(0.19991 0.00898458 0)
(0.199225 0.00843303 0)
(0.198285 0.00783935 0)
(0.197129 0.00723452 0)
(0.1958 0.00664324 0)
(0.194337 0.00608333 0)
(0.192775 0.00556587 0)
(0.191145 0.00509614 0)
(0.189473 0.00467491 0)
(0.187778 0.00429983 0)
(0.186076 0.00396667 0)
(0.184379 0.0036703 0)
(0.182696 0.00340546 0)
(0.181033 0.00316716 0)
(0.179396 0.00295094 0)
(0.17779 0.00275295 0)
(0.176218 0.00256999 0)
(0.174685 0.00239938 0)
(0.173192 0.00223896 0)
(0.171746 0.0020869 0)
(0.170348 0.00194169 0)
(0.169003 0.00180206 0)
(0.167714 0.00166686 0)
(0.166487 0.00153505 0)
(0.165326 0.00140562 0)
(0.164235 0.0012776 0)
(0.163219 0.00115001 0)
(0.162285 0.00102195 0)
(0.161436 0.000892711 0)
(0.160678 0.000761931 0)
(0.160013 0.000629927 0)
(0.159443 0.000498083 0)
(0.158966 0.000369358 0)
(0.158578 0.000248347 0)
(0.15827 0.000138699 0)
(0.158024 4.12801e-05 0)
(0.157838 -4.01542e-05 0)
(0.15773 -0.000100872 0)
(0.157688 -0.000141444 0)
(0.1577 -0.00016561 0)
(0.157757 -0.000177157 0)
(0.157848 -0.00017941 0)
(0.157965 -0.000175163 0)
(0.158099 -0.000166629 0)
(0.158244 -0.000155471 0)
(0.158394 -0.000142887 0)
(0.158546 -0.000129715 0)
(0.158697 -0.000116517 0)
(0.158843 -0.000103666 0)
(0.158983 -9.13991e-05 0)
(0.159115 -7.98661e-05 0)
(0.159237 -6.91561e-05 0)
(0.15935 -5.93192e-05 0)
(0.159453 -5.03782e-05 0)
(0.159546 -4.23364e-05 0)
(0.159628 -3.51812e-05 0)
(0.1597 -2.88867e-05 0)
(0.159762 -2.34158e-05 0)
(0.159816 -1.87211e-05 0)
(0.159861 -1.47465e-05 0)
(0.159899 -1.14294e-05 0)
(0.15993 -8.70281e-06 0)
(0.159956 -6.49781e-06 0)
(0.159976 -4.74577e-06 0)
(0.159992 -3.37886e-06 0)
(0.160004 -2.33285e-06 0)
(0.160014 -1.54614e-06 0)
(0.160021 -9.7405e-07 0)
(0.160027 -5.70887e-07 0)
(0.16003 -3.00975e-07 0)
(0.160033 -1.24058e-07 0)
(0.160035 -8.73988e-09 0)
(0.160037 6.12809e-08 0)
(0.160038 9.91754e-08 0)
(0.160039 1.15197e-07 0)
(0.160039 1.16522e-07 0)
(0.160039 1.10569e-07 0)
(0.16004 1.00812e-07 0)
(0.16004 8.94635e-08 0)
(0.16004 7.79443e-08 0)
(0.16004 6.70153e-08 0)
(0.16004 5.70937e-08 0)
(0.16004 4.83128e-08 0)
(0.16004 4.06493e-08 0)
(0.16004 3.40508e-08 0)
(0.16004 2.83565e-08 0)
(0.16004 2.34527e-08 0)
(0.16004 1.9178e-08 0)
(0.16004 1.53813e-08 0)
(0.16004 1.18856e-08 0)
(0.16004 8.42289e-09 0)
(0.16004 4.36059e-09 0)
(0.16004 -1.86373e-09 0)
(0.196988 0.00763252 0)
(0.198129 0.00858224 0)
(0.199327 0.00914826 0)
(0.200432 0.00944588 0)
(0.201407 0.00954222 0)
(0.202239 0.00946536 0)
(0.202901 0.00924116 0)
(0.203372 0.00890121 0)
(0.203642 0.00847808 0)
(0.203718 0.00800221 0)
(0.203613 0.00750079 0)
(0.203346 0.00699669 0)
(0.202938 0.00650756 0)
(0.202414 0.00604555 0)
(0.201795 0.00561775 0)
(0.2011 0.00522703 0)
(0.200348 0.00487313 0)
(0.199552 0.00455369 0)
(0.198722 0.00426515 0)
(0.197868 0.00400345 0)
(0.196998 0.00376452 0)
(0.196116 0.00354456 0)
(0.195228 0.00334021 0)
(0.194337 0.00314855 0)
(0.193448 0.00296713 0)
(0.192565 0.00279386 0)
(0.191691 0.00262701 0)
(0.190831 0.00246508 0)
(0.189987 0.00230675 0)
(0.189165 0.00215085 0)
(0.188369 0.00199626 0)
(0.187604 0.00184193 0)
(0.186873 0.00168686 0)
(0.186183 0.00153008 0)
(0.185538 0.00137083 0)
(0.184942 0.00120865 0)
(0.184399 0.00104366 0)
(0.183911 0.000876883 0)
(0.18348 0.000710613 0)
(0.183104 0.000548679 0)
(0.182783 0.000396284 0)
(0.182512 0.000258784 0)
(0.182289 0.000139048 0)
(0.182101 3.6822e-05 0)
(0.181947 -4.66524e-05 0)
(0.181836 -0.000109833 0)
(0.181766 -0.000154308 0)
(0.181734 -0.000183264 0)
(0.181736 -0.000199923 0)
(0.181767 -0.000207171 0)
(0.181822 -0.000207442 0)
(0.181897 -0.00020269 0)
(0.181988 -0.000194425 0)
(0.182092 -0.000183787 0)
(0.182203 -0.00017162 0)
(0.182321 -0.000158548 0)
(0.182441 -0.000145031 0)
(0.182561 -0.000131415 0)
(0.18268 -0.000117966 0)
(0.182795 -0.000104891 0)
(0.182905 -9.2357e-05 0)
(0.183008 -8.04976e-05 0)
(0.183105 -6.94194e-05 0)
(0.183194 -5.92032e-05 0)
(0.183274 -4.99053e-05 0)
(0.183345 -4.15573e-05 0)
(0.183409 -3.41666e-05 0)
(0.183464 -2.77177e-05 0)
(0.183511 -2.21748e-05 0)
(0.183551 -1.74845e-05 0)
(0.183584 -1.35795e-05 0)
(0.183611 -1.03819e-05 0)
(0.183633 -7.80781e-06 0)
(0.183651 -5.76982e-06 0)
(0.183665 -4.18737e-06 0)
(0.183676 -2.98083e-06 0)
(0.183685 -2.07868e-06 0)
(0.183691 -1.41826e-06 0)
(0.183696 -9.44923e-07 0)
(0.183699 -6.12323e-07 0)
(0.183702 -3.8391e-07 0)
(0.183704 -2.30884e-07 0)
(0.183705 -1.3174e-07 0)
(0.183707 -6.82446e-08 0)
(0.183707 -2.8757e-08 0)
(0.183708 -5.19084e-09 0)
(0.183708 8.12923e-09 0)
(0.183709 1.49879e-08 0)
(0.183709 1.79267e-08 0)
(0.183709 1.85566e-08 0)
(0.183709 1.78661e-08 0)
(0.183709 1.64875e-08 0)
(0.183709 1.47469e-08 0)
(0.183709 1.28326e-08 0)
(0.18371 1.08285e-08 0)
(0.18371 8.70875e-09 0)
(0.18371 6.42111e-09 0)
(0.18371 3.71794e-09 0)
(0.18371 5.78458e-11 0)
(0.18371 -5.96506e-09 0)
(0.197613 0.00710642 0)
(0.198573 0.00795726 0)
(0.199637 0.00851088 0)
(0.20069 0.00883229 0)
(0.201692 0.00897373 0)
(0.202624 0.00896083 0)
(0.203464 0.0088147 0)
(0.20419 0.00856075 0)
(0.204788 0.00822616 0)
(0.205254 0.00783693 0)
(0.20559 0.00741665 0)
(0.205804 0.00698558 0)
(0.205907 0.00655993 0)
(0.205915 0.00615148 0)
(0.20584 0.00576772 0)
(0.205697 0.00541246 0)
(0.205498 0.00508665 0)
(0.205254 0.00478918 0)
(0.204974 0.00451764 0)
(0.204663 0.00426899 0)
(0.204329 0.00403995 0)
(0.203974 0.00382732 0)
(0.203604 0.00362815 0)
(0.20322 0.00343979 0)
(0.202826 0.00325995 0)
(0.202424 0.00308663 0)
(0.202016 0.00291811 0)
(0.201606 0.00275285 0)
(0.201195 0.00258951 0)
(0.200787 0.00242686 0)
(0.200384 0.00226374 0)
(0.19999 0.00209906 0)
(0.199608 0.00193183 0)
(0.19924 0.00176118 0)
(0.19889 0.0015865 0)
(0.198559 0.00140763 0)
(0.198251 0.00122508 0)
(0.197965 0.00104039 0)
(0.197702 0.000856357 0)
(0.197462 0.000677164 0)
(0.197245 0.00050808 0)
(0.19705 0.000354483 0)
(0.196879 0.000220269 0)
(0.196731 0.000106292 0)
(0.196598 1.15395e-05 0)
(0.196484 -6.41763e-05 0)
(0.196393 -0.000121606 0)
(0.196325 -0.000163074 0)
(0.19628 -0.000191363 0)
(0.196256 -0.000209097 0)
(0.196252 -0.000218566 0)
(0.196266 -0.000221675 0)
(0.196296 -0.000219952 0)
(0.19634 -0.000214589 0)
(0.196396 -0.000206504 0)
(0.196461 -0.000196404 0)
(0.196533 -0.000184839 0)
(0.196611 -0.000172244 0)
(0.196693 -0.000158974 0)
(0.196777 -0.000145329 0)
(0.196861 -0.000131571 0)
(0.196944 -0.000117932 0)
(0.197024 -0.000104622 0)
(0.197101 -9.18253e-05 0)
(0.197174 -7.97014e-05 0)
(0.197241 -6.83835e-05 0)
(0.197302 -5.79744e-05 0)
(0.197357 -4.85451e-05 0)
(0.197407 -4.01344e-05 0)
(0.197449 -3.27496e-05 0)
(0.197486 -2.63691e-05 0)
(0.197518 -2.09452e-05 0)
(0.197544 -1.64098e-05 0)
(0.197566 -1.26784e-05 0)
(0.197584 -9.6607e-06 0)
(0.197598 -7.26123e-06 0)
(0.197609 -5.38557e-06 0)
(0.197618 -3.94445e-06 0)
(0.197625 -2.8546e-06 0)
(0.197631 -2.04262e-06 0)
(0.197635 -1.44692e-06 0)
(0.197638 -1.01616e-06 0)
(0.19764 -7.08631e-07 0)
(0.197642 -4.91955e-07 0)
(0.197643 -3.40792e-07 0)
(0.197644 -2.36111e-07 0)
(0.197645 -1.63943e-07 0)
(0.197645 -1.14299e-07 0)
(0.197646 -8.00957e-08 0)
(0.197646 -5.64389e-08 0)
(0.197646 -4.00059e-08 0)
(0.197647 -2.85241e-08 0)
(0.197647 -2.04981e-08 0)
(0.197647 -1.49449e-08 0)
(0.197647 -1.11932e-08 0)
(0.197647 -8.88416e-09 0)
(0.197647 -7.76433e-09 0)
(0.197647 -7.8782e-09 0)
(0.197647 -9.4412e-09 0)
(0.197647 -1.34067e-08 0)
(0.198164 0.00664605 0)
(0.19898 0.0073974 0)
(0.199905 0.00792176 0)
(0.200854 0.00824797 0)
(0.201786 0.0084122 0)
(0.202678 0.00843703 0)
(0.203513 0.00834097 0)
(0.204271 0.00814537 0)
(0.20494 0.00787342 0)
(0.205515 0.00754765 0)
(0.205995 0.00718866 0)
(0.206384 0.00681435 0)
(0.206689 0.00643938 0)
(0.206919 0.00607477 0)
(0.207085 0.00572797 0)
(0.207198 0.00540326 0)
(0.207265 0.00510236 0)
(0.207297 0.00482506 0)
(0.207298 0.00456987 0)
(0.207276 0.00433453 0)
(0.207233 0.00411642 0)
(0.207174 0.00391285 0)
(0.2071 0.00372123 0)
(0.207014 0.00353917 0)
(0.206917 0.00336454 0)
(0.20681 0.00319541 0)
(0.206696 0.0030301 0)
(0.206574 0.00286707 0)
(0.206447 0.00270497 0)
(0.206315 0.00254253 0)
(0.206181 0.0023786 0)
(0.206044 0.00221211 0)
(0.205906 0.0020421 0)
(0.205769 0.00186781 0)
(0.205633 0.00168881 0)
(0.205499 0.00150514 0)
(0.205367 0.00131759 0)
(0.205236 0.00112793 0)
(0.205106 0.000939088 0)
(0.204977 0.000755193 0)
(0.20485 0.000581181 0)
(0.204725 0.000421982 0)
(0.204605 0.000281411 0)
(0.204493 0.000161286 0)
(0.20439 6.1026e-05 0)
(0.204293 -2.06694e-05 0)
(0.204207 -8.5063e-05 0)
(0.204133 -0.000133983 0)
(0.204072 -0.000169789 0)
(0.204025 -0.000194815 0)
(0.203991 -0.000211148 0)
(0.20397 -0.000220562 0)
(0.203961 -0.00022451 0)
(0.203962 -0.000224148 0)
(0.203974 -0.000220382 0)
(0.203994 -0.000213924 0)
(0.204022 -0.000205333 0)
(0.204056 -0.00019506 0)
(0.204095 -0.000183484 0)
(0.204138 -0.000170931 0)
(0.204184 -0.000157696 0)
(0.204232 -0.000144052 0)
(0.204281 -0.000130257 0)
(0.20433 -0.000116553 0)
(0.204377 -0.000103163 0)
(0.204423 -9.02917e-05 0)
(0.204466 -7.81151e-05 0)
(0.204507 -6.67785e-05 0)
(0.204543 -5.63923e-05 0)
(0.204577 -4.70296e-05 0)
(0.204606 -3.87262e-05 0)
(0.204632 -3.1482e-05 0)
(0.204654 -2.5265e-05 0)
(0.204673 -2.00161e-05 0)
(0.204689 -1.56575e-05 0)
(0.204702 -1.20975e-05 0)
(0.204713 -9.23666e-06 0)
(0.204722 -6.97421e-06 0)
(0.204729 -5.21194e-06 0)
(0.204734 -3.85896e-06 0)
(0.204738 -2.83476e-06 0)
(0.204742 -2.06944e-06 0)
(0.204744 -1.50418e-06 0)
(0.204746 -1.09111e-06 0)
(0.204748 -7.91623e-07 0)
(0.204749 -5.75702e-07 0)
(0.20475 -4.20509e-07 0)
(0.20475 -3.09041e-07 0)
(0.204751 -2.28789e-07 0)
(0.204751 -1.70735e-07 0)
(0.204752 -1.28475e-07 0)
(0.204752 -9.7477e-08 0)
(0.204752 -7.45836e-08 0)
(0.204752 -5.76267e-08 0)
(0.204752 -4.50607e-08 0)
(0.204753 -3.59108e-08 0)
(0.204753 -2.94511e-08 0)
(0.204753 -2.53597e-08 0)
(0.204753 -2.34638e-08 0)
(0.204753 -2.39866e-08 0)
(0.198653 0.00623722 0)
(0.199357 0.0068954 0)
(0.200163 0.00738056 0)
(0.201009 0.00769987 0)
(0.201856 0.00787566 0)
(0.20268 0.00792628 0)
(0.203464 0.00786761 0)
(0.204191 0.00771745 0)
(0.20485 0.00749537 0)
(0.205436 0.00722077 0)
(0.205946 0.00691166 0)
(0.206383 0.00658393 0)
(0.206754 0.0062508 0)
(0.207064 0.00592258 0)
(0.207322 0.00560656 0)
(0.207536 0.00530732 0)
(0.207714 0.00502715 0)
(0.207863 0.00476655 0)
(0.207988 0.0045248 0)
(0.208094 0.00430032 0)
(0.208186 0.00409109 0)
(0.208264 0.00389493 0)
(0.208333 0.00370961 0)
(0.208392 0.00353302 0)
(0.208443 0.0033632 0)
(0.208487 0.00319838 0)
(0.208524 0.00303693 0)
(0.208555 0.00287737 0)
(0.20858 0.00271838 0)
(0.208599 0.00255871 0)
(0.208612 0.00239723 0)
(0.20862 0.00223292 0)
(0.208622 0.00206492 0)
(0.208618 0.00189258 0)
(0.208608 0.00171558 0)
(0.208591 0.00153414 0)
(0.208565 0.00134916 0)
(0.208529 0.00116245 0)
(0.208483 0.000976823 0)
(0.208427 0.000796085 0)
(0.20836 0.000624647 0)
(0.208284 0.000466866 0)
(0.208203 0.000326212 0)
(0.208119 0.000204639 0)
(0.208036 0.000102329 0)
(0.207956 1.80093e-05 0)
(0.20788 -4.9877e-05 0)
(0.20781 -0.000103035 0)
(0.207747 -0.000143481 0)
(0.207692 -0.000173273 0)
(0.207646 -0.000194301 0)
(0.207609 -0.0002082 0)
(0.20758 -0.000216336 0)
(0.207558 -0.000219814 0)
(0.207544 -0.000219517 0)
(0.207536 -0.000216145 0)
(0.207533 -0.000210254 0)
(0.207537 -0.000202298 0)
(0.207544 -0.000192657 0)
(0.207556 -0.000181663 0)
(0.207571 -0.000169619 0)
(0.207589 -0.000156809 0)
(0.207609 -0.000143507 0)
(0.20763 -0.000129976 0)
(0.207652 -0.000116468 0)
(0.207674 -0.00010322 0)
(0.207696 -9.04471e-05 0)
(0.207718 -7.83375e-05 0)
(0.207738 -6.70461e-05 0)
(0.207758 -5.66907e-05 0)
(0.207775 -4.73497e-05 0)
(0.207791 -3.90617e-05 0)
(0.207805 -3.18283e-05 0)
(0.207818 -2.56176e-05 0)
(0.207829 -2.03716e-05 0)
(0.207838 -1.60116e-05 0)
(0.207846 -1.24451e-05 0)
(0.207852 -9.57254e-06 0)
(0.207857 -7.293e-06 0)
(0.207862 -5.50923e-06 0)
(0.207865 -4.132e-06 0)
(0.207868 -3.08166e-06 0)
(0.20787 -2.28944e-06 0)
(0.207872 -1.69765e-06 0)
(0.207873 -1.25892e-06 0)
(0.207874 -9.35418e-07 0)
(0.207875 -6.97632e-07 0)
(0.207876 -5.23006e-07 0)
(0.207876 -3.9455e-07 0)
(0.207877 -2.99693e-07 0)
(0.207877 -2.29275e-07 0)
(0.207877 -1.7666e-07 0)
(0.207878 -1.3709e-07 0)
(0.207878 -1.0721e-07 0)
(0.207878 -8.45789e-08 0)
(0.207878 -6.756e-08 0)
(0.207878 -5.49163e-08 0)
(0.207878 -4.59123e-08 0)
(0.207878 -3.99555e-08 0)
(0.207878 -3.65065e-08 0)
(0.199088 0.00586619 0)
(0.199705 0.00644047 0)
(0.200411 0.00688239 0)
(0.201165 0.00718779 0)
(0.201931 0.0073684 0)
(0.202686 0.00743769 0)
(0.203412 0.00740871 0)
(0.204094 0.00729606 0)
(0.204722 0.00711602 0)
(0.20529 0.00688513 0)
(0.205795 0.00661905 0)
(0.206239 0.00633183 0)
(0.206626 0.0060354 0)
(0.206962 0.0057393 0)
(0.207252 0.00545058 0)
(0.207504 0.00517397 0)
(0.207725 0.00491219 0)
(0.20792 0.00466633 0)
(0.208094 0.00443628 0)
(0.208253 0.00422109 0)
(0.208399 0.00401932 0)
(0.208535 0.00382923 0)
(0.208662 0.00364899 0)
(0.208783 0.00347679 0)
(0.208897 0.0033109 0)
(0.209006 0.00314969 0)
(0.20911 0.00299167 0)
(0.209208 0.00283545 0)
(0.209302 0.00267977 0)
(0.209389 0.00252347 0)
(0.209471 0.00236547 0)
(0.209547 0.00220485 0)
(0.209616 0.00204084 0)
(0.209676 0.0018729 0)
(0.209727 0.00170085 0)
(0.209767 0.00152498 0)
(0.209795 0.00134623 0)
(0.209809 0.00116634 0)
(0.209808 0.000987892 0)
(0.209792 0.000814248 0)
(0.20976 0.000649242 0)
(0.209715 0.000496633 0)
(0.209659 0.000359472 0)
(0.209595 0.000239615 0)
(0.209529 0.000137556 0)
(0.209461 5.24884e-05 0)
(0.209394 -1.70225e-05 0)
(0.20933 -7.25924e-05 0)
(0.20927 -0.000115968 0)
(0.209215 -0.000148955 0)
(0.209166 -0.000173251 0)
(0.209122 -0.000190357 0)
(0.209085 -0.00020155 0)
(0.209052 -0.000207886 0)
(0.209025 -0.000210222 0)
(0.209003 -0.000209248 0)
(0.208985 -0.000205521 0)
(0.208972 -0.000199499 0)
(0.208961 -0.000191566 0)
(0.208955 -0.000182063 0)
(0.208951 -0.000171295 0)
(0.208949 -0.000159552 0)
(0.20895 -0.000147113 0)
(0.208953 -0.000134247 0)
(0.208958 -0.000121217 0)
(0.208964 -0.00010827 0)
(0.208971 -9.56366e-05 0)
(0.208978 -8.35224e-05 0)
(0.208986 -7.21024e-05 0)
(0.208994 -6.15162e-05 0)
(0.209001 -5.18652e-05 0)
(0.209009 -4.32108e-05 0)
(0.209016 -3.5576e-05 0)
(0.209023 -2.89487e-05 0)
(0.209029 -2.32877e-05 0)
(0.209034 -1.85278e-05 0)
(0.209039 -1.4587e-05 0)
(0.209043 -1.13729e-05 0)
(0.209046 -8.78856e-06 0)
(0.209049 -6.73852e-06 0)
(0.209052 -5.13286e-06 0)
(0.209054 -3.88979e-06 0)
(0.209056 -2.9374e-06 0)
(0.209057 -2.21419e-06 0)
(0.209058 -1.66889e-06 0)
(0.209059 -1.25984e-06 0)
(0.20906 -9.53907e-07 0)
(0.20906 -7.25329e-07 0)
(0.209061 -5.54347e-07 0)
(0.209061 -4.26061e-07 0)
(0.209062 -3.29392e-07 0)
(0.209062 -2.56168e-07 0)
(0.209062 -2.00399e-07 0)
(0.209062 -1.57771e-07 0)
(0.209062 -1.2509e-07 0)
(0.209062 -1.00135e-07 0)
(0.209062 -8.12039e-08 0)
(0.209062 -6.71708e-08 0)
(0.209063 -5.70642e-08 0)
(0.209063 -4.98198e-08 0)
(0.199475 0.00552372 0)
(0.200023 0.00602436 0)
(0.200648 0.00642284 0)
(0.201321 0.00670999 0)
(0.202014 0.00689021 0)
(0.202704 0.00697244 0)
(0.203374 0.00696691 0)
(0.20401 0.00688542 0)
(0.204603 0.00674134 0)
(0.205146 0.0065486 0)
(0.205636 0.00632068 0)
(0.206074 0.00606988 0)
(0.206462 0.00580688 0)
(0.206804 0.00554041 0)
(0.207106 0.0052772 0)
(0.207374 0.00502199 0)
(0.207612 0.00477776 0)
(0.207827 0.00454607 0)
(0.208023 0.00432732 0)
(0.208203 0.00412111 0)
(0.208371 0.00392647 0)
(0.20853 0.00374213 0)
(0.208681 0.00356663 0)
(0.208825 0.00339846 0)
(0.208964 0.00323613 0)
(0.209098 0.00307821 0)
(0.209227 0.00292335 0)
(0.209352 0.0027703 0)
(0.209472 0.00261789 0)
(0.209586 0.00246505 0)
(0.209695 0.00231083 0)
(0.209797 0.00215439 0)
(0.209892 0.00199508 0)
(0.209978 0.00183247 0)
(0.210054 0.00166647 0)
(0.210119 0.00149745 0)
(0.21017 0.00132633 0)
(0.210206 0.00115471 0)
(0.210227 0.000984897 0)
(0.21023 0.000819819 0)
(0.210218 0.00066275 0)
(0.210191 0.00051689 0)
(0.210151 0.000384878 0)
(0.210102 0.000268403 0)
(0.210047 0.000168063 0)
(0.20999 8.3429e-05 0)
(0.209931 1.33627e-05 0)
(0.209873 -4.35489e-05 0)
(0.209818 -8.88349e-05 0)
(0.209766 -0.000124072 0)
(0.209717 -0.000150772 0)
(0.209673 -0.000170304 0)
(0.209634 -0.000183854 0)
(0.209598 -0.000192425 0)
(0.209566 -0.000196845 0)
(0.209538 -0.000197795 0)
(0.209514 -0.000195833 0)
(0.209493 -0.000191422 0)
(0.209474 -0.000184958 0)
(0.209459 -0.000176786 0)
(0.209446 -0.000167222 0)
(0.209435 -0.000156559 0)
(0.209427 -0.000145081 0)
(0.20942 -0.000133059 0)
(0.209416 -0.000120758 0)
(0.209413 -0.000108427 0)
(0.209411 -9.62986e-05 0)
(0.209411 -8.45833e-05 0)
(0.209411 -7.34617e-05 0)
(0.209413 -6.3081e-05 0)
(0.209415 -5.35515e-05 0)
(0.209417 -4.49457e-05 0)
(0.20942 -3.72981e-05 0)
(0.209423 -3.06092e-05 0)
(0.209426 -2.48495e-05 0)
(0.209429 -1.99652e-05 0)
(0.209432 -1.58846e-05 0)
(0.209434 -1.2524e-05 0)
(0.209436 -9.79378e-06 0)
(0.209438 -7.60405e-06 0)
(0.20944 -5.8687e-06 0)
(0.209442 -4.50832e-06 0)
(0.209443 -3.45213e-06 0)
(0.209444 -2.63881e-06 0)
(0.209445 -2.01659e-06 0)
(0.209446 -1.54281e-06 0)
(0.209447 -1.18308e-06 0)
(0.209447 -9.10231e-07 0)
(0.209447 -7.0313e-07 0)
(0.209448 -5.45571e-07 0)
(0.209448 -4.25301e-07 0)
(0.209448 -3.33125e-07 0)
(0.209448 -2.62178e-07 0)
(0.209449 -2.0742e-07 0)
(0.209449 -1.6506e-07 0)
(0.209449 -1.32384e-07 0)
(0.209449 -1.07291e-07 0)
(0.209449 -8.83048e-08 0)
(0.209449 -7.41419e-08 0)
(0.209449 -6.34721e-08 0)
(0.199822 0.0052034 0)
(0.200315 0.00564015 0)
(0.200872 0.00599706 0)
(0.201475 0.00626348 0)
(0.202102 0.00643928 0)
(0.202732 0.0065297 0)
(0.20335 0.00654234 0)
(0.203942 0.00648656 0)
(0.204499 0.0063732 0)
(0.205016 0.00621383 0)
(0.205488 0.0060199 0)
(0.205916 0.0058021 0)
(0.2063 0.00556986 0)
(0.206643 0.00533112 0)
(0.20695 0.00509217 0)
(0.207225 0.00485765 0)
(0.207473 0.0046307 0)
(0.207698 0.0044132 0)
(0.207905 0.00420595 0)
(0.208096 0.00400901 0)
(0.208275 0.00382184 0)
(0.208445 0.00364357 0)
(0.208606 0.00347309 0)
(0.20876 0.00330918 0)
(0.208909 0.0031506 0)
(0.209053 0.00299612 0)
(0.209191 0.00284456 0)
(0.209325 0.0026948 0)
(0.209454 0.0025458 0)
(0.209578 0.00239661 0)
(0.209696 0.00224639 0)
(0.209807 0.0020944 0)
(0.20991 0.00194011 0)
(0.210005 0.00178319 0)
(0.21009 0.00162364 0)
(0.210163 0.00146184 0)
(0.210223 0.0012987 0)
(0.210268 0.00113566 0)
(0.210298 0.000974766 0)
(0.210312 0.000818521 0)
(0.210311 0.00066971 0)
(0.210295 0.000531042 0)
(0.210266 0.000404781 0)
(0.210228 0.000292438 0)
(0.210183 0.000194644 0)
(0.210134 0.000111199 0)
(0.210083 4.12718e-05 0)
(0.210031 -1.63069e-05 0)
(0.209981 -6.28527e-05 0)
(0.209933 -9.97356e-05 0)
(0.209888 -0.000128294 0)
(0.209846 -0.000149764 0)
(0.209807 -0.000165243 0)
(0.209771 -0.000175674 0)
(0.209739 -0.000181853 0)
(0.209709 -0.000184448 0)
(0.209683 -0.000184014 0)
(0.209659 -0.000181021 0)
(0.209638 -0.000175871 0)
(0.20962 -0.000168919 0)
(0.209603 -0.000160488 0)
(0.209589 -0.000150877 0)
(0.209577 -0.000140373 0)
(0.209566 -0.000129249 0)
(0.209558 -0.000117768 0)
(0.209551 -0.000106177 0)
(0.209546 -9.4708e-05 0)
(0.209542 -8.3568e-05 0)
(0.209539 -7.29372e-05 0)
(0.209538 -6.29636e-05 0)
(0.209537 -5.376e-05 0)
(0.209537 -4.54033e-05 0)
(0.209538 -3.79348e-05 0)
(0.209539 -3.13625e-05 0)
(0.209541 -2.56658e-05 0)
(0.209542 -2.08006e-05 0)
(0.209544 -1.67043e-05 0)
(0.209546 -1.33023e-05 0)
(0.209547 -1.05133e-05 0)
(0.209549 -8.25449e-06 0)
(0.20955 -6.44542e-06 0)
(0.209551 -5.0112e-06 0)
(0.209552 -3.88429e-06 0)
(0.209553 -3.00553e-06 0)
(0.209554 -2.32439e-06 0)
(0.209555 -1.79876e-06 0)
(0.209555 -1.39426e-06 0)
(0.209556 -1.08335e-06 0)
(0.209556 -8.44313e-07 0)
(0.209557 -6.6025e-07 0)
(0.209557 -5.18173e-07 0)
(0.209557 -4.08186e-07 0)
(0.209557 -3.22778e-07 0)
(0.209557 -2.5633e-07 0)
(0.209558 -2.04557e-07 0)
(0.209558 -1.64316e-07 0)
(0.209558 -1.33156e-07 0)
(0.209558 -1.09282e-07 0)
(0.209558 -9.11548e-08 0)
(0.209558 -7.73285e-08 0)
(0.200133 0.00490063 0)
(0.20058 0.00528218 0)
(0.201081 0.00560045 0)
(0.201624 0.00584515 0)
(0.202192 0.00601363 0)
(0.202768 0.00610836 0)
(0.203338 0.00613469 0)
(0.203888 0.00609984 0)
(0.204412 0.00601248 0)
(0.204902 0.00588209 0)
(0.205355 0.00571829 0)
(0.20577 0.00553026 0)
(0.206148 0.00532626 0)
(0.206489 0.00511342 0)
(0.206798 0.00489754 0)
(0.207077 0.00468307 0)
(0.207331 0.00447321 0)
(0.207563 0.00427001 0)
(0.207777 0.00407462 0)
(0.207976 0.00388743 0)
(0.208163 0.00370828 0)
(0.208339 0.00353664 0)
(0.208506 0.00337172 0)
(0.208666 0.00321259 0)
(0.20882 0.00305823 0)
(0.208968 0.00290762 0)
(0.209111 0.00275974 0)
(0.209249 0.00261363 0)
(0.209381 0.00246837 0)
(0.209508 0.00232315 0)
(0.209628 0.00217721 0)
(0.209742 0.00202994 0)
(0.209848 0.00188091 0)
(0.209945 0.00172989 0)
(0.210032 0.00157693 0)
(0.210108 0.00142244 0)
(0.210171 0.00126726 0)
(0.210221 0.0011127 0)
(0.210256 0.000960547 0)
(0.210276 0.000812941 0)
(0.210281 0.000672242 0)
(0.210273 0.00054074 0)
(0.210253 0.000420368 0)
(0.210224 0.000312468 0)
(0.210187 0.000217671 0)
(0.210146 0.000135929 0)
(0.210101 6.66495e-05 0)
(0.210056 8.89948e-06 0)
(0.210011 -3.84256e-05 0)
(0.209968 -7.65084e-05 0)
(0.209926 -0.000106525 0)
(0.209887 -0.000129584 0)
(0.20985 -0.000146691 0)
(0.209816 -0.000158728 0)
(0.209785 -0.000166455 0)
(0.209756 -0.000170518 0)
(0.20973 -0.000171469 0)
(0.209706 -0.000169776 0)
(0.209685 -0.000165849 0)
(0.209665 -0.000160048 0)
(0.209648 -0.000152702 0)
(0.209633 -0.000144116 0)
(0.209619 -0.000134578 0)
(0.209608 -0.000124361 0)