/*--------------------------------*- C++ -*----------------------------------*\
| =========                 |                                                 |
| \\      /  F ield         | OpenFOAM: The Open Source CFD Toolbox           |
|  \\    /   O peration     | Version:  2.3.0                                 |
|   \\  /    A nd           | Web:      www.OpenFOAM.org                      |
|    \\/     M anipulation  |                                                 |
\*---------------------------------------------------------------------------*/
FoamFile
{
    version     2.0;
    format      ascii;
    class       volVectorField;
    location    "0.15";
    object      U_0;
}
// * * * * * * * * * * * * * * * * * * * * * * * * * * * * * * * * * * * * * //

dimensions      [0 1 -1 0 0 0 0];

internalField   nonuniform List<vector> 
3375
(
(0.173429 0.00611816 0)
(0.156971 0.0061084 0)
(0.141107 0.00565439 0)
(0.126107 0.00504118 0)
(0.112363 0.00437131 0)
(0.100022 0.00369528 0)
(0.0890933 0.00304896 0)
(0.0795432 0.00245667 0)
(0.0713176 0.00193292 0)
(0.0643326 0.00148504 0)
(0.0584758 0.00111451 0)
(0.0536161 0.000817859 0)
(0.0496142 0.000587862 0)
(0.0463326 0.00041502 0)
(0.0436422 0.000289034 0)
(0.0414277 0.000199954 0)
(0.0395902 0.000138895 0)
(0.0380478 9.83753e-05 0)
(0.0367352 7.23854e-05 0)
(0.0356013 5.62891e-05 0)
(0.0346076 4.66483e-05 0)
(0.0337251 4.10147e-05 0)
(0.0329326 3.77193e-05 0)
(0.0322147 3.56785e-05 0)
(0.0315601 3.42283e-05 0)
(0.0309606 3.2991e-05 0)
(0.03041 3.17745e-05 0)
(0.0299038 3.05012e-05 0)
(0.0294385 2.91578e-05 0)
(0.0290111 2.77624e-05 0)
(0.0286194 2.63413e-05 0)
(0.0282616 2.49101e-05 0)
(0.0279362 2.34564e-05 0)
(0.0276424 2.1923e-05 0)
(0.0273798 2.01913e-05 0)
(0.0271488 1.80745e-05 0)
(0.0269508 1.53549e-05 0)
(0.026788 1.19556e-05 0)
(0.0266641 8.12678e-06 0)
(0.0265836 4.11334e-06 0)
(0.0265523 1.29535e-06 0)
(0.026566 -1.84674e-06 0)
(0.0266069 -4.19017e-06 0)
(0.0266676 -6.45689e-06 0)
(0.0267406 -7.92372e-06 0)
(0.0268198 -8.46672e-06 0)
(0.0268998 -8.33227e-06 0)
(0.0269768 -7.78561e-06 0)
(0.0270484 -7.02635e-06 0)
(0.0271133 -6.1892e-06 0)
(0.0271709 -5.3581e-06 0)
(0.0272215 -4.58027e-06 0)
(0.0272653 -3.87825e-06 0)
(0.027303 -3.25926e-06 0)
(0.0273352 -2.72158e-06 0)
(0.0273624 -2.25898e-06 0)
(0.0273854 -1.86337e-06 0)
(0.0274045 -1.52637e-06 0)
(0.0274204 -1.2402e-06 0)
(0.0274335 -9.9804e-07 0)
(0.0274441 -7.9399e-07 0)
(0.0274527 -6.22793e-07 0)
(0.0274595 -4.7985e-07 0)
(0.0274648 -3.61358e-07 0)
(0.0274689 -2.64244e-07 0)
(0.0274719 -1.85917e-07 0)
(0.0274741 -1.24054e-07 0)
(0.0274756 -7.65688e-08 0)
(0.0274766 -4.15142e-08 0)
(0.0274772 -1.68539e-08 0)
(0.0274775 2.94371e-11 0)
(0.0274775 1.8303e-08 0)
(0.0274774 4.01325e-08 0)
(0.0274772 4.94703e-08 0)
(0.027477 5.12861e-08 0)
(0.0274766 5.11179e-08 0)
(0.0274763 4.96831e-08 0)
(0.027476 4.55358e-08 0)
(0.0274756 4.06088e-08 0)
(0.0274753 3.56931e-08 0)
(0.0274751 3.10005e-08 0)
(0.0274748 2.66168e-08 0)
(0.0274746 2.26744e-08 0)
(0.0274745 1.90601e-08 0)
(0.0274743 1.59059e-08 0)
(0.0274742 1.31922e-08 0)
(0.0274741 1.08881e-08 0)
(0.027474 8.9658e-09 0)
(0.027474 7.34834e-09 0)
(0.0274739 6.02795e-09 0)
(0.0274738 4.91066e-09 0)
(0.0274738 4.00833e-09 0)
(0.0274738 3.23133e-09 0)
(0.0274738 2.61297e-09 0)
(0.0274737 2.05367e-09 0)
(0.0274737 1.61588e-09 0)
(0.0274737 1.19665e-09 0)
(0.0274737 8.23807e-10 0)
(0.0274737 4.0075e-10 0)
(0.0274737 -3.73997e-10 0)
(0.192307 0.00952424 0)
(0.19017 0.00993297 0)
(0.186415 0.00967913 0)
(0.181439 0.00917693 0)
(0.175733 0.0085435 0)
(0.169635 0.00782249 0)
(0.163361 0.0070518 0)
(0.157076 0.00626562 0)
(0.150914 0.00549242 0)
(0.144976 0.00475574 0)
(0.139329 0.00407409 0)
(0.134012 0.00346036 0)
(0.129047 0.00292152 0)
(0.124437 0.00245904 0)
(0.120175 0.00206983 0)
(0.116246 0.00174757 0)
(0.11263 0.00148398 0)
(0.109306 0.00127004 0)
(0.106251 0.00109689 0)
(0.103441 0.000956454 0)
(0.100855 0.000841787 0)
(0.0984738 0.000747143 0)
(0.0962786 0.000667939 0)
(0.0942534 0.000600611 0)
(0.0923838 0.000542444 0)
(0.0906575 0.000491395 0)
(0.0890637 0.000445933 0)
(0.0875934 0.000404914 0)
(0.0862387 0.000367475 0)
(0.0849934 0.000332946 0)
(0.0838522 0.000300791 0)
(0.082811 0.000270543 0)
(0.081867 0.000241756 0)
(0.0810183 0.000213965 0)
(0.0802645 0.000186644 0)
(0.0796059 0.000159184 0)
(0.0790442 0.000130905 0)
(0.0785814 0.000101233 0)
(0.0782196 6.99973e-05 0)
(0.0779594 3.72413e-05 0)
(0.0777979 4.63121e-06 0)
(0.0777432 -2.3662e-05 0)
(0.0777808 -4.14135e-05 0)
(0.0778764 -5.06045e-05 0)
(0.0780094 -5.47539e-05 0)
(0.0781641 -5.53756e-05 0)
(0.0783282 -5.33346e-05 0)
(0.0784927 -4.95209e-05 0)
(0.078651 -4.47535e-05 0)
(0.0787992 -3.96471e-05 0)
(0.0789352 -3.46026e-05 0)
(0.0790578 -2.98554e-05 0)
(0.0791671 -2.55251e-05 0)
(0.0792636 -2.16558e-05 0)
(0.0793478 -1.82466e-05 0)
(0.0794209 -1.52718e-05 0)
(0.0794837 -1.26943e-05 0)
(0.0795373 -1.04737e-05 0)
(0.0795826 -8.57003e-06 0)
(0.0796206 -6.94641e-06 0)
(0.0796521 -5.56937e-06 0)
(0.079678 -4.40892e-06 0)
(0.079699 -3.43813e-06 0)
(0.0797158 -2.63304e-06 0)
(0.0797291 -1.97234e-06 0)
(0.0797394 -1.4369e-06 0)
(0.0797472 -1.00919e-06 0)
(0.079753 -6.73315e-07 0)
(0.0797572 -4.15232e-07 0)
(0.0797601 -2.23129e-07 0)
(0.0797621 -8.74778e-08 0)
(0.0797632 4.86576e-09 0)
(0.0797639 6.7959e-08 0)
(0.0797643 1.06366e-07 0)
(0.0797644 1.39974e-07 0)
(0.0797643 1.59962e-07 0)
(0.0797641 1.67258e-07 0)
(0.0797638 1.62551e-07 0)
(0.0797635 1.50171e-07 0)
(0.0797632 1.34699e-07 0)
(0.0797629 1.18436e-07 0)
(0.0797626 1.02528e-07 0)
(0.0797624 8.78328e-08 0)
(0.0797621 7.4237e-08 0)
(0.079762 6.22175e-08 0)
(0.0797618 5.18152e-08 0)
(0.0797617 4.29529e-08 0)
(0.0797616 3.55101e-08 0)
(0.0797615 2.92637e-08 0)
(0.0797614 2.40948e-08 0)
(0.0797613 1.97675e-08 0)
(0.0797613 1.61984e-08 0)
(0.0797612 1.3193e-08 0)
(0.0797612 1.07138e-08 0)
(0.0797612 8.57476e-09 0)
(0.0797611 6.79125e-09 0)
(0.0797611 5.18331e-09 0)
(0.0797611 3.69765e-09 0)
(0.0797611 2.10223e-09 0)
(0.0797611 -5.08311e-10 0)
(0.195239 0.00892922 0)
(0.196192 0.00983857 0)
(0.196489 0.0101655 0)
(0.196013 0.0101777 0)
(0.194882 0.00996178 0)
(0.193209 0.00955532 0)
(0.191077 0.00900375 0)
(0.188573 0.00835631 0)
(0.185787 0.00765767 0)
(0.182804 0.00694573 0)
(0.1797 0.00625114 0)
(0.176538 0.00559656 0)
(0.173367 0.00499662 0)
(0.170228 0.00445862 0)
(0.167149 0.00398394 0)
(0.16415 0.00356963 0)
(0.161245 0.0032101 0)
(0.158442 0.00289853 0)
(0.155745 0.00262781 0)
(0.153157 0.00239132 0)
(0.150677 0.00218319 0)
(0.148305 0.00199847 0)
(0.146039 0.00183305 0)
(0.14388 0.00168362 0)
(0.141824 0.00154751 0)
(0.139871 0.00142254 0)
(0.13802 0.00130695 0)
(0.136271 0.00119928 0)
(0.134623 0.00109829 0)
(0.133076 0.00100292 0)
(0.13163 0.000912189 0)
(0.130288 0.000825181 0)
(0.12905 0.000740996 0)
(0.12792 0.000658725 0)
(0.126899 0.000577466 0)
(0.12599 0.000496376 0)
(0.125198 0.000414786 0)
(0.124525 0.00033238 0)
(0.123971 0.000249407 0)
(0.123533 0.000166993 0)
(0.123204 8.66606e-05 0)
(0.12296 1.26848e-05 0)
(0.122816 -4.82778e-05 0)
(0.122779 -9.03571e-05 0)
(0.12282 -0.00011492 0)
(0.122917 -0.000126758 0)
(0.123052 -0.000129554 0)
(0.123211 -0.000126082 0)
(0.123384 -0.000118597 0)
(0.12356 -0.000108845 0)
(0.123735 -9.80767e-05 0)
(0.123903 -8.71294e-05 0)
(0.124062 -7.65282e-05 0)
(0.12421 -6.65759e-05 0)
(0.124346 -5.74261e-05 0)
(0.124469 -4.91371e-05 0)
(0.12458 -4.17106e-05 0)
(0.124679 -3.51161e-05 0)
(0.124766 -2.9307e-05 0)
(0.124843 -2.42288e-05 0)
(0.124909 -1.98246e-05 0)
(0.124965 -1.60372e-05 0)
(0.125013 -1.28101e-05 0)
(0.125053 -1.00884e-05 0)
(0.125086 -7.81849e-06 0)
(0.125113 -5.94879e-06 0)
(0.125134 -4.42933e-06 0)
(0.125151 -3.21248e-06 0)
(0.125165 -2.25364e-06 0)
(0.125175 -1.51218e-06 0)
(0.125183 -9.52593e-07 0)
(0.125189 -5.46325e-07 0)
(0.125193 -2.66908e-07 0)
(0.125196 -7.62206e-08 0)
(0.125198 6.13925e-08 0)
(0.125199 1.47193e-07 0)
(0.1252 1.87124e-07 0)
(0.125201 2.03087e-07 0)
(0.125201 2.0542e-07 0)
(0.125201 1.97478e-07 0)
(0.125201 1.83013e-07 0)
(0.125201 1.64896e-07 0)
(0.125201 1.45654e-07 0)
(0.125201 1.26141e-07 0)
(0.125201 1.07689e-07 0)
(0.125201 9.0989e-08 0)
(0.125201 7.63072e-08 0)
(0.125201 6.36884e-08 0)
(0.125201 5.29491e-08 0)
(0.125201 4.39172e-08 0)
(0.125201 3.63295e-08 0)
(0.125201 2.99766e-08 0)
(0.125201 2.46421e-08 0)
(0.125201 2.01538e-08 0)
(0.125201 1.63228e-08 0)
(0.125201 1.30239e-08 0)
(0.125201 1.00841e-08 0)
(0.125201 7.28651e-09 0)
(0.125201 4.23324e-09 0)
(0.125201 -4.7546e-10 0)
(0.19626 0.00822345 0)
(0.197551 0.00923555 0)
(0.198727 0.00976982 0)
(0.199596 0.0100011 0)
(0.200148 0.0100047 0)
(0.200386 0.00981157 0)
(0.200305 0.00945747 0)
(0.199911 0.00898432 0)
(0.199226 0.00843273 0)
(0.198286 0.00783899 0)
(0.197131 0.00723411 0)
(0.195802 0.00664277 0)
(0.194339 0.00608279 0)
(0.192777 0.00556525 0)
(0.191148 0.00509543 0)
(0.189476 0.0046741 0)
(0.187782 0.0042989 0)
(0.186081 0.0039656 0)
(0.184384 0.00366909 0)
(0.182702 0.00340408 0)
(0.18104 0.00316559 0)
(0.179405 0.00294915 0)
(0.1778 0.00275093 0)
(0.176229 0.0025677 0)
(0.174698 0.00239681 0)
(0.173208 0.00223605 0)
(0.171763 0.00208363 0)
(0.170368 0.00193803 0)
(0.169027 0.00179795 0)
(0.167742 0.00166225 0)
(0.166519 0.00152988 0)
(0.165362 0.00139982 0)
(0.164277 0.00127108 0)
(0.163268 0.0011427 0)
(0.16234 0.00101376 0)
(0.161499 0.000883575 0)
(0.160749 0.000751841 0)
(0.160093 0.00061897 0)
(0.159532 0.000486498 0)
(0.159064 0.000357604 0)
(0.158684 0.000236988 0)
(0.158385 0.000127996 0)
(0.158143 3.14858e-05 0)
(0.157966 -4.82542e-05 0)
(0.157865 -0.000106949 0)
(0.15783 -0.000145728 0)
(0.157848 -0.000168433 0)
(0.15791 -0.000178834 0)
(0.158005 -0.000180224 0)
(0.158124 -0.000175351 0)
(0.15826 -0.000166379 0)
(0.158406 -0.000154924 0)
(0.158558 -0.000142146 0)
(0.158711 -0.000128851 0)
(0.158862 -0.000115584 0)
(0.159008 -0.000102699 0)
(0.159147 -9.04262e-05 0)
(0.159278 -7.89065e-05 0)
(0.1594 -6.82254e-05 0)
(0.159513 -5.843e-05 0)
(0.159614 -4.95408e-05 0)
(0.159706 -4.15587e-05 0)
(0.159787 -3.44692e-05 0)
(0.159858 -2.82447e-05 0)
(0.15992 -2.28458e-05 0)
(0.159972 -1.82233e-05 0)
(0.160017 -1.43191e-05 0)
(0.160054 -1.10689e-05 0)
(0.160084 -8.40433e-06 0)
(0.160109 -6.25567e-06 0)
(0.160128 -4.55349e-06 0)
(0.160144 -3.22984e-06 0)
(0.160156 -2.21986e-06 0)
(0.160165 -1.46389e-06 0)
(0.160172 -9.15943e-07 0)
(0.160177 -5.32157e-07 0)
(0.160181 -2.77035e-07 0)
(0.160184 -1.09391e-07 0)
(0.160186 -9.01563e-10 0)
(0.160187 6.4229e-08 0)
(0.160188 9.88782e-08 0)
(0.160189 1.12914e-07 0)
(0.160189 1.13236e-07 0)
(0.16019 1.06952e-07 0)
(0.16019 9.72147e-08 0)
(0.16019 8.60957e-08 0)
(0.16019 7.48918e-08 0)
(0.16019 6.43606e-08 0)
(0.16019 5.48118e-08 0)
(0.16019 4.6386e-08 0)
(0.16019 3.90598e-08 0)
(0.16019 3.27289e-08 0)
(0.16019 2.72924e-08 0)
(0.16019 2.25885e-08 0)
(0.16019 1.84932e-08 0)
(0.16019 1.48377e-08 0)
(0.16019 1.14865e-08 0)
(0.16019 8.12779e-09 0)
(0.16019 4.19307e-09 0)
(0.16019 -1.86283e-09 0)
(0.196988 0.00763241 0)
(0.198129 0.00858211 0)
(0.199327 0.00914811 0)
(0.200432 0.0094457 0)
(0.201408 0.00954202 0)
(0.20224 0.00946512 0)
(0.202902 0.00924088 0)
(0.203372 0.00890089 0)
(0.203643 0.0084777 0)
(0.203719 0.00800177 0)
(0.203614 0.00750028 0)
(0.203347 0.0069961 0)
(0.20294 0.00650688 0)
(0.202415 0.00604476 0)
(0.201797 0.00561684 0)
(0.201103 0.00522599 0)
(0.200351 0.00487193 0)
(0.199555 0.00455232 0)
(0.198726 0.00426358 0)
(0.197873 0.00400165 0)
(0.197003 0.00376246 0)
(0.196122 0.00354222 0)
(0.195235 0.00333754 0)
(0.194345 0.00314552 0)
(0.193458 0.00296369 0)
(0.192576 0.00278998 0)
(0.191704 0.00262263 0)
(0.190846 0.00246013 0)
(0.190005 0.00230118 0)
(0.189186 0.00214458 0)
(0.188393 0.00198921 0)
(0.187631 0.00183402 0)
(0.186905 0.00167797 0)
(0.186219 0.00152013 0)
(0.185579 0.00135974 0)
(0.184989 0.00119639 0)
(0.184451 0.00103027 0)
(0.18397 0.000862537 0)
(0.183545 0.00069565 0)
(0.183175 0.000533634 0)
(0.182859 0.000381812 0)
(0.182595 0.000245482 0)
(0.182376 0.000127074 0)
(0.182191 2.62907e-05 0)
(0.182042 -5.53276e-05 0)
(0.181936 -0.000116564 0)
(0.181871 -0.000159315 0)
(0.181843 -0.000186835 0)
(0.181848 -0.00020234 0)
(0.181882 -0.000208684 0)
(0.181941 -0.000208259 0)
(0.182018 -0.000202978 0)
(0.182111 -0.000194312 0)
(0.182216 -0.000183371 0)
(0.182329 -0.000170974 0)
(0.182447 -0.000157728 0)
(0.182568 -0.000144082 0)
(0.182688 -0.000130374 0)
(0.182807 -0.000116863 0)
(0.182922 -0.000103755 0)
(0.183031 -9.12119e-05 0)
(0.183135 -7.93668e-05 0)
(0.18323 -6.83235e-05 0)
(0.183318 -5.81603e-05 0)
(0.183397 -4.89305e-05 0)
(0.183468 -4.06621e-05 0)
(0.18353 -3.33592e-05 0)
(0.183584 -2.70027e-05 0)
(0.18363 -2.15532e-05 0)
(0.183669 -1.69542e-05 0)
(0.183701 -1.31358e-05 0)
(0.183728 -1.0018e-05 0)
(0.18375 -7.5154e-06 0)
(0.183767 -5.54024e-06 0)
(0.18378 -4.01078e-06 0)
(0.183791 -2.84841e-06 0)
(0.183799 -1.98177e-06 0)
(0.183805 -1.34957e-06 0)
(0.18381 -8.9766e-07 0)
(0.183813 -5.80994e-07 0)
(0.183816 -3.64079e-07 0)
(0.183818 -2.19108e-07 0)
(0.183819 -1.25351e-07 0)
(0.18382 -6.5297e-08 0)
(0.183821 -2.79671e-08 0)
(0.183821 -5.65872e-09 0)
(0.183822 6.97022e-09 0)
(0.183822 1.35584e-08 0)
(0.183822 1.64412e-08 0)
(0.183823 1.71429e-08 0)
(0.183823 1.66157e-08 0)
(0.183823 1.53917e-08 0)
(0.183823 1.38386e-08 0)
(0.183823 1.20796e-08 0)
(0.183823 1.02297e-08 0)
(0.183823 8.23304e-09 0)
(0.183823 6.0816e-09 0)
(0.183823 3.48428e-09 0)
(0.183823 -4.45272e-11 0)
(0.183823 -5.88737e-09 0)
(0.197613 0.00710628 0)
(0.198573 0.0079571 0)
(0.199638 0.0085107 0)
(0.200691 0.00883208 0)
(0.201692 0.00897349 0)
(0.202625 0.00896056 0)
(0.203465 0.00881438 0)
(0.204191 0.00856038 0)
(0.204789 0.00822573 0)
(0.205255 0.00783643 0)
(0.205591 0.00741606 0)
(0.205805 0.0069849 0)
(0.205909 0.00655915 0)
(0.205916 0.00615058 0)
(0.205841 0.00576667 0)
(0.205699 0.00541126 0)
(0.2055 0.00508527 0)
(0.205256 0.00478758 0)
(0.204976 0.00451582 0)
(0.204666 0.0042669 0)
(0.204332 0.00403756 0)
(0.203979 0.00382459 0)
(0.203609 0.00362503 0)
(0.203226 0.00343624 0)
(0.202832 0.00325592 0)
(0.202431 0.00308206 0)
(0.202025 0.00291293 0)
(0.201615 0.00274701 0)
(0.201206 0.00258292 0)
(0.2008 0.00241943 0)
(0.200399 0.00225538 0)
(0.200008 0.00208967 0)
(0.199628 0.00192132 0)
(0.199263 0.00174945 0)
(0.198915 0.0015735 0)
(0.198588 0.00139336 0)
(0.198282 0.00120963 0)
(0.197999 0.00102398 0)
(0.19774 0.00083938 0)
(0.197503 0.000660178 0)
(0.197288 0.000491739 0)
(0.197097 0.000339409 0)
(0.196928 0.000206843 0)
(0.196782 9.45188e-05 0)
(0.196651 1.47223e-06 0)
(0.19654 -7.24113e-05 0)
(0.196452 -0.000128111 0)
(0.196386 -0.000168081 0)
(0.196343 -0.000195118 0)
(0.196322 -0.000211827 0)
(0.196321 -0.000220468 0)
(0.196337 -0.000222911 0)
(0.196369 -0.000220651 0)
(0.196415 -0.00021485 0)
(0.196472 -0.000206405 0)
(0.196538 -0.000196008 0)
(0.196611 -0.000184195 0)
(0.19669 -0.000171394 0)
(0.196772 -0.000157956 0)
(0.196856 -0.00014418 0)
(0.19694 -0.000130324 0)
(0.197023 -0.000116622 0)
(0.197103 -0.00010328 0)
(0.197179 -9.04829e-05 0)
(0.197251 -7.83872e-05 0)
(0.197317 -6.71228e-05 0)
(0.197378 -5.67888e-05 0)
(0.197432 -4.74515e-05 0)
(0.19748 -3.91449e-05 0)
(0.197523 -3.18713e-05 0)
(0.197559 -2.56041e-05 0)
(0.197589 -2.02918e-05 0)
(0.197615 -1.58621e-05 0)
(0.197636 -1.22284e-05 0)
(0.197653 -9.29805e-06 0)
(0.197667 -6.97478e-06 0)
(0.197678 -5.16376e-06 0)
(0.197687 -3.77628e-06 0)
(0.197693 -2.72952e-06 0)
(0.197698 -1.95151e-06 0)
(0.197702 -1.38197e-06 0)
(0.197705 -9.70906e-07 0)
(0.197707 -6.77796e-07 0)
(0.197709 -4.71501e-07 0)
(0.19771 -3.27581e-07 0)
(0.197711 -2.27821e-07 0)
(0.197712 -1.58954e-07 0)
(0.197712 -1.11423e-07 0)
(0.197713 -7.85528e-08 0)
(0.197713 -5.57144e-08 0)
(0.197713 -3.97294e-08 0)
(0.197714 -2.85157e-08 0)
(0.197714 -2.05973e-08 0)
(0.197714 -1.50943e-08 0)
(0.197714 -1.13332e-08 0)
(0.197714 -9.0053e-09 0)
(0.197714 -7.82452e-09 0)
(0.197714 -7.88216e-09 0)
(0.197714 -9.35443e-09 0)
(0.197714 -1.31741e-08 0)
(0.198164 0.00664589 0)
(0.19898 0.00739722 0)
(0.199905 0.00792156 0)
(0.200854 0.00824774 0)
(0.201786 0.00841193 0)
(0.202679 0.00843672 0)
(0.203513 0.00834061 0)
(0.204271 0.00814496 0)
(0.204941 0.00787294 0)
(0.205516 0.0075471 0)
(0.205996 0.00718801 0)
(0.206385 0.00681361 0)
(0.20669 0.00643853 0)
(0.20692 0.00607378 0)
(0.207087 0.00572683 0)
(0.207199 0.00540195 0)
(0.207267 0.00510086 0)
(0.207298 0.00482334 0)
(0.2073 0.00456789 0)
(0.207278 0.00433226 0)
(0.207236 0.00411382 0)
(0.207176 0.00390988 0)
(0.207103 0.00371784 0)
(0.207017 0.00353532 0)
(0.206921 0.00336016 0)
(0.206815 0.00319045 0)
(0.206701 0.00302447 0)
(0.20658 0.00286072 0)
(0.206454 0.0026978 0)
(0.206323 0.00253446 0)
(0.206189 0.00236953 0)
(0.206053 0.00220194 0)
(0.205917 0.00203075 0)
(0.205781 0.00185521 0)
(0.205646 0.00167491 0)
(0.205513 0.00148997 0)
(0.205381 0.00130128 0)
(0.205251 0.00111072 0)
(0.205122 0.000921387 0)
(0.204994 0.00073753 0)
(0.204867 0.000564161 0)
(0.204743 0.000406179 0)
(0.204624 0.000267236 0)
(0.204513 0.000148897 0)
(0.20441 5.03642e-05 0)
(0.204314 -2.96214e-05 0)
(0.204229 -9.23765e-05 0)
(0.204156 -0.000139837 0)
(0.204097 -0.000174392 0)
(0.204051 -0.000198367 0)
(0.204019 -0.000213826 0)
(0.203999 -0.000222516 0)
(0.203991 -0.00022586 0)
(0.203994 -0.000224989 0)
(0.204007 -0.000220789 0)
(0.204028 -0.000213955 0)
(0.204056 -0.000205038 0)
(0.204091 -0.000194481 0)
(0.204131 -0.000182658 0)
(0.204175 -0.000169895 0)
(0.204221 -0.000156487 0)
(0.204269 -0.000142709 0)
(0.204318 -0.000128816 0)
(0.204366 -0.000115053 0)
(0.204414 -0.000101642 0)
(0.204459 -8.8785e-05 0)
(0.204502 -7.66546e-05 0)
(0.204541 -6.5392e-05 0)
(0.204578 -5.51023e-05 0)
(0.20461 -4.58528e-05 0)
(0.204639 -3.76734e-05 0)
(0.204664 -3.05581e-05 0)
(0.204686 -2.44694e-05 0)
(0.204704 -1.93439e-05 0)
(0.20472 -1.51002e-05 0)
(0.204732 -1.16439e-05 0)
(0.204743 -8.87432e-06 0)
(0.204751 -6.69004e-06 0)
(0.204758 -4.99298e-06 0)
(0.204763 -3.6932e-06 0)
(0.204767 -2.71143e-06 0)
(0.20477 -1.97924e-06 0)
(0.204773 -1.43924e-06 0)
(0.204775 -1.04509e-06 0)
(0.204776 -7.59458e-07 0)
(0.204777 -5.5349e-07 0)
(0.204778 -4.05364e-07 0)
(0.204779 -2.98792e-07 0)
(0.204779 -2.21895e-07 0)
(0.20478 -1.66122e-07 0)
(0.20478 -1.2536e-07 0)
(0.20478 -9.53804e-08 0)
(0.20478 -7.31349e-08 0)
(0.20478 -5.66155e-08 0)
(0.204781 -4.4321e-08 0)
(0.204781 -3.53571e-08 0)
(0.204781 -2.89888e-08 0)
(0.204781 -2.49509e-08 0)
(0.204781 -2.30542e-08 0)
(0.204781 -2.35109e-08 0)
(0.198653 0.00623705 0)
(0.199357 0.0068952 0)
(0.200163 0.00738033 0)
(0.201009 0.00769961 0)
(0.201856 0.00787537 0)
(0.202681 0.00792594 0)
(0.203464 0.00786722 0)
(0.204192 0.007717 0)
(0.204851 0.00749485 0)
(0.205436 0.00722017 0)
(0.205947 0.00691097 0)
(0.206384 0.00658313 0)
(0.206755 0.00624989 0)
(0.207065 0.00592153 0)
(0.207323 0.00560536 0)
(0.207537 0.00530594 0)
(0.207715 0.00502556 0)
(0.207864 0.00476474 0)
(0.207989 0.00452272 0)
(0.208096 0.00429794 0)
(0.208188 0.00408838 0)
(0.208266 0.00389183 0)
(0.208335 0.00370608 0)
(0.208394 0.00352901 0)
(0.208446 0.00335866 0)
(0.20849 0.00319323 0)
(0.208527 0.0030311 0)
(0.208558 0.0028708 0)
(0.208583 0.00271098 0)
(0.208603 0.00255039 0)
(0.208616 0.00238791 0)
(0.208624 0.00222251 0)
(0.208627 0.00205334 0)
(0.208623 0.00187977 0)
(0.208612 0.00170154 0)
(0.208595 0.00151891 0)
(0.208568 0.00133287 0)
(0.208532 0.00114536 0)
(0.208486 0.000959315 0)
(0.208428 0.000778641 0)
(0.20836 0.000607806 0)
(0.208283 0.000451138 0)
(0.208202 0.000311982 0)
(0.208118 0.000192113 0)
(0.208035 9.15094e-05 0)
(0.207955 8.81212e-06 0)
(0.207879 -5.75428e-05 0)
(0.20781 -0.000109312 0)
(0.207748 -0.000148545 0)
(0.207694 -0.0001773 0)
(0.207649 -0.000197449 0)
(0.207612 -0.000210604 0)
(0.207584 -0.000218108 0)
(0.207563 -0.000221043 0)
(0.207549 -0.000220274 0)
(0.207541 -0.000216485 0)
(0.20754 -0.000210225 0)
(0.207544 -0.00020194 0)
(0.207552 -0.000192007 0)
(0.207564 -0.000180757 0)
(0.207579 -0.000168494 0)
(0.207597 -0.000155503 0)
(0.207617 -0.00014206 0)
(0.207638 -0.000128428 0)
(0.20766 -0.000114861 0)
(0.207682 -0.000101595 0)
(0.207704 -8.88414e-05 0)
(0.207725 -7.67855e-05 0)
(0.207746 -6.55769e-05 0)
(0.207764 -5.53278e-05 0)
(0.207782 -4.61099e-05 0)
(0.207797 -3.79556e-05 0)
(0.207811 -3.08598e-05 0)
(0.207823 -2.47854e-05 0)
(0.207834 -1.96695e-05 0)
(0.207843 -1.54299e-05 0)
(0.20785 -1.19717e-05 0)
(0.207857 -9.19398e-06 0)
(0.207862 -6.9953e-06 0)
(0.207866 -5.27893e-06 0)
(0.207869 -3.95663e-06 0)
(0.207872 -2.95012e-06 0)
(0.207874 -2.19213e-06 0)
(0.207876 -1.62659e-06 0)
(0.207877 -1.20761e-06 0)
(0.207878 -8.98695e-07 0)
(0.207879 -6.71562e-07 0)
(0.207879 -5.04574e-07 0)
(0.20788 -3.81537e-07 0)
(0.20788 -2.90507e-07 0)
(0.207881 -2.22734e-07 0)
(0.207881 -1.71983e-07 0)
(0.207881 -1.33689e-07 0)
(0.207881 -1.0471e-07 0)
(0.207881 -8.26961e-08 0)
(0.207882 -6.61202e-08 0)
(0.207882 -5.37639e-08 0)
(0.207882 -4.4959e-08 0)
(0.207882 -3.9121e-08 0)
(0.207882 -3.57151e-08 0)
(0.199088 0.005866 0)
(0.199705 0.00644025 0)
(0.200412 0.00688214 0)
(0.201165 0.00718751 0)
(0.201932 0.00736808 0)
(0.202687 0.00743732 0)
(0.203413 0.00740828 0)
(0.204095 0.00729558 0)
(0.204723 0.00711546 0)
(0.205291 0.00688449 0)
(0.205796 0.00661832 0)
(0.20624 0.006331 0)
(0.206627 0.00603444 0)
(0.206962 0.0057382 0)
(0.207253 0.00544932 0)
(0.207505 0.00517253 0)
(0.207726 0.00491054 0)
(0.207921 0.00466445 0)
(0.208096 0.00443413 0)
(0.208254 0.00421865 0)
(0.2084 0.00401654 0)
(0.208536 0.00382606 0)
(0.208664 0.0036454 0)
(0.208784 0.00347272 0)
(0.208899 0.00330629 0)
(0.209008 0.00314448 0)
(0.209112 0.00298579 0)
(0.20921 0.00282884 0)
(0.209303 0.00267235 0)
(0.209391 0.00251515 0)
(0.209473 0.00235618 0)
(0.209549 0.00219452 0)
(0.209617 0.0020294 0)
(0.209676 0.00186031 0)
(0.209727 0.00168712 0)
(0.209766 0.00151016 0)
(0.209793 0.00133048 0)
(0.209805 0.0011499 0)
(0.209803 0.000971097 0)
(0.209785 0.000797531 0)
(0.209751 0.000633071 0)
(0.209705 0.000481453 0)
(0.209648 0.000345626 0)
(0.209584 0.000227311 0)
(0.209516 0.00012685 0)
(0.209448 4.33077e-05 0)
(0.209381 -2.47749e-05 0)
(0.209317 -7.90381e-05 0)
(0.209257 -0.000121254 0)
(0.209203 -0.000153233 0)
(0.209154 -0.000176662 0)
(0.209111 -0.000193023 0)
(0.209074 -0.000203574 0)
(0.209042 -0.000209352 0)
(0.209016 -0.000211198 0)
(0.208994 -0.000209788 0)
(0.208976 -0.000205671 0)
(0.208963 -0.000199298 0)
(0.208953 -0.000191052 0)
(0.208946 -0.00018127 0)
(0.208943 -0.00017026 0)
(0.208942 -0.000158313 0)
(0.208943 -0.000145709 0)
(0.208946 -0.000132721 0)
(0.208951 -0.000119611 0)
(0.208956 -0.000106626 0)
(0.208963 -9.39939e-05 0)
(0.208971 -8.1918e-05 0)
(0.208978 -7.05684e-05 0)
(0.208986 -6.00793e-05 0)
(0.208994 -5.05453e-05 0)
(0.209001 -4.20214e-05 0)
(0.209008 -3.4524e-05 0)
(0.209015 -2.80353e-05 0)
(0.209021 -2.25087e-05 0)
(0.209026 -1.78751e-05 0)
(0.20903 -1.40494e-05 0)
(0.209034 -1.09374e-05 0)
(0.209038 -8.44148e-06 0)
(0.209041 -6.46613e-06 0)
(0.209043 -4.9222e-06 0)
(0.209045 -3.72912e-06 0)
(0.209047 -2.81638e-06 0)
(0.209048 -2.12406e-06 0)
(0.209049 -1.60243e-06 0)
(0.20905 -1.21119e-06 0)
(0.209051 -9.1852e-07 0)
(0.209051 -6.99663e-07 0)
(0.209052 -5.35738e-07 0)
(0.209052 -4.12555e-07 0)
(0.209053 -3.19521e-07 0)
(0.209053 -2.48918e-07 0)
(0.209053 -1.95009e-07 0)
(0.209053 -1.53727e-07 0)
(0.209053 -1.22004e-07 0)
(0.209053 -9.7752e-08 0)
(0.209053 -7.93116e-08 0)
(0.209053 -6.56312e-08 0)
(0.209054 -5.57706e-08 0)
(0.209054 -4.8681e-08 0)
(0.199475 0.00552351 0)
(0.200024 0.00602413 0)
(0.200649 0.00642257 0)
(0.201321 0.00670968 0)
(0.202014 0.00688986 0)
(0.202704 0.00697205 0)
(0.203374 0.00696646 0)
(0.204011 0.00688491 0)
(0.204603 0.00674075 0)
(0.205146 0.00654793 0)
(0.205636 0.00631991 0)
(0.206074 0.006069 0)
(0.206463 0.00580588 0)
(0.206805 0.00553927 0)
(0.207107 0.0052759 0)
(0.207375 0.0050205 0)
(0.207613 0.00477607 0)
(0.207828 0.00454414 0)
(0.208024 0.00432513 0)
(0.208204 0.00411862 0)
(0.208372 0.00392365 0)
(0.208531 0.00373894 0)
(0.208682 0.00356302 0)
(0.208826 0.00339437 0)
(0.208965 0.00323152 0)
(0.209099 0.00307301 0)
(0.209228 0.00291751 0)
(0.209353 0.00276374 0)
(0.209472 0.00261055 0)
(0.209587 0.00245686 0)
(0.209695 0.00230172 0)
(0.209797 0.00214431 0)
(0.209891 0.00198397 0)
(0.209977 0.00182031 0)
(0.210052 0.00165328 0)
(0.210115 0.0014833 0)
(0.210165 0.00131135 0)
(0.2102 0.00113914 0)
(0.210218 0.000969041 0)
(0.21022 0.000804048 0)
(0.210206 0.000647466 0)
(0.210177 0.000502476 0)
(0.210136 0.000371636 0)
(0.210086 0.000256528 0)
(0.21003 0.000157631 0)
(0.209972 7.44088e-05 0)
(0.209913 5.66855e-06 0)
(0.209855 -5.00211e-05 0)
(0.2098 -9.42081e-05 0)
(0.209748 -0.000128475 0)
(0.2097 -0.000154329 0)
(0.209656 -0.000173124 0)
(0.209617 -0.000186033 0)
(0.209581 -0.000194041 0)
(0.20955 -0.000197963 0)
(0.209522 -0.000198469 0)
(0.209498 -0.000196107 0)
(0.209477 -0.000191338 0)
(0.209459 -0.000184551 0)
(0.209444 -0.000176092 0)
(0.209431 -0.000166277 0)
(0.20942 -0.000155402 0)
(0.209412 -0.000143751 0)
(0.209406 -0.000131598 0)
(0.209401 -0.000119206 0)
(0.209399 -0.000106827 0)
(0.209397 -9.46898e-05 0)
(0.209397 -8.30026e-05 0)
(0.209397 -7.19415e-05 0)
(0.209399 -6.16484e-05 0)
(0.209401 -5.22277e-05 0)
(0.209404 -4.37452e-05 0)
(0.209406 -3.62294e-05 0)
(0.209409 -2.96746e-05 0)
(0.209412 -2.40464e-05 0)
(0.209415 -1.92868e-05 0)
(0.209418 -1.53209e-05 0)
(0.20942 -1.20629e-05 0)
(0.209422 -9.42248e-06 0)
(0.209424 -7.30935e-06 0)
(0.209426 -5.63797e-06 0)
(0.209428 -4.32997e-06 0)
(0.209429 -3.31585e-06 0)
(0.20943 -2.53572e-06 0)
(0.209431 -1.93928e-06 0)
(0.209432 -1.48521e-06 0)
(0.209432 -1.14037e-06 0)
(0.209433 -8.78644e-07 0)
(0.209433 -6.79766e-07 0)
(0.209434 -5.28271e-07 0)
(0.209434 -4.12418e-07 0)
(0.209434 -3.23489e-07 0)
(0.209434 -2.54904e-07 0)
(0.209434 -2.01888e-07 0)
(0.209435 -1.60799e-07 0)
(0.209435 -1.29069e-07 0)
(0.209435 -1.04662e-07 0)
(0.209435 -8.61778e-08 0)
(0.209435 -7.23853e-08 0)
(0.209435 -6.19728e-08 0)
(0.199822 0.00520317 0)
(0.200315 0.0056399 0)
(0.200872 0.00599677 0)
(0.201475 0.00626315 0)
(0.202102 0.00643891 0)
(0.202732 0.00652928 0)
(0.20335 0.00654186 0)
(0.203942 0.00648602 0)
(0.2045 0.00637258 0)
(0.205016 0.00621313 0)
(0.205489 0.0060191 0)
(0.205916 0.00580119 0)
(0.2063 0.00556882 0)
(0.206644 0.00532994 0)
(0.206951 0.00509083 0)
(0.207226 0.00485612 0)
(0.207474 0.00462898 0)
(0.207699 0.00441124 0)
(0.207906 0.00420373 0)
(0.208097 0.0040065 0)
(0.208276 0.003819 0)
(0.208446 0.00364036 0)
(0.208607 0.00346947 0)
(0.208761 0.00330511 0)
(0.20891 0.00314602 0)
(0.209054 0.00299097 0)
(0.209192 0.00283879 0)
(0.209326 0.00268835 0)
(0.209455 0.00253862 0)
(0.209578 0.00238863 0)
(0.209695 0.00223755 0)
(0.209806 0.00208465 0)
(0.209909 0.00192942 0)
(0.210003 0.00177155 0)
(0.210086 0.00161108 0)
(0.210158 0.00144844 0)
(0.210217 0.00128459 0)
(0.21026 0.00112104 0)
(0.210289 0.000959911 0)
(0.210301 0.000803754 0)
(0.210297 0.000655374 0)
(0.21028 0.000517466 0)
(0.21025 0.000392229 0)
(0.210211 0.000281089 0)
(0.210165 0.000184581 0)
(0.210115 0.000102419 0)
(0.210063 3.37152e-05 0)
(0.210012 -2.27256e-05 0)
(0.209961 -6.82357e-05 0)
(0.209913 -0.000104192 0)
(0.209868 -0.000131931 0)
(0.209826 -0.000152681 0)
(0.209787 -0.000167524 0)
(0.209752 -0.000177394 0)
(0.20972 -0.000183075 0)
(0.209691 -0.000185223 0)
(0.209664 -0.000184388 0)
(0.209641 -0.000181034 0)
(0.20962 -0.00017556 0)
(0.209602 -0.00016832 0)
(0.209585 -0.000159637 0)
(0.209571 -0.000149813 0)
(0.209559 -0.000139134 0)
(0.209549 -0.000127875 0)
(0.209541 -0.0001163 0)
(0.209534 -0.000104656 0)
(0.209529 -9.31711e-05 0)
(0.209526 -8.20516e-05 0)
(0.209523 -7.14729e-05 0)
(0.209522 -6.15779e-05 0)
(0.209521 -5.24739e-05 0)
(0.209521 -4.42315e-05 0)
(0.209522 -3.68861e-05 0)
(0.209523 -3.04403e-05 0)
(0.209525 -2.48685e-05 0)
(0.209526 -2.01224e-05 0)
(0.209528 -1.61364e-05 0)
(0.20953 -1.2834e-05 0)
(0.209531 -1.01328e-05 0)
(0.209533 -7.94938e-06 0)
(0.209534 -6.20392e-06 0)
(0.209535 -4.82229e-06 0)
(0.209537 -3.73807e-06 0)
(0.209537 -2.89337e-06 0)
(0.209538 -2.23903e-06 0)
(0.209539 -1.73417e-06 0)
(0.209539 -1.34559e-06 0)
(0.20954 -1.04676e-06 0)
(0.20954 -8.168e-07 0)
(0.209541 -6.39544e-07 0)
(0.209541 -5.02524e-07 0)
(0.209541 -3.96316e-07 0)
(0.209541 -3.1371e-07 0)
(0.209541 -2.49361e-07 0)
(0.209542 -1.9915e-07 0)
(0.209542 -1.60087e-07 0)
(0.209542 -1.29798e-07 0)
(0.209542 -1.06572e-07 0)
(0.209542 -8.89357e-08 0)
(0.209542 -7.54608e-08 0)
(0.200133 0.00490039 0)
(0.200581 0.0052819 0)
(0.201081 0.00560015 0)
(0.201624 0.00584481 0)
(0.202193 0.00601324 0)
(0.202769 0.00610792 0)
(0.203338 0.00613419 0)
(0.203889 0.00609927 0)
(0.204412 0.00601183 0)
(0.204903 0.00588136 0)
(0.205356 0.00571746 0)
(0.205771 0.00552932 0)
(0.206148 0.0053252 0)
(0.20649 0.00511221 0)
(0.206799 0.00489617 0)
(0.207078 0.00468152 0)
(0.207332 0.00447146 0)
(0.207564 0.00426803 0)
(0.207778 0.00407238 0)
(0.207977 0.0038849 0)
(0.208164 0.00370543 0)
(0.20834 0.00353344 0)
(0.208507 0.00336812 0)
(0.208667 0.00320854 0)
(0.208821 0.0030537 0)
(0.208969 0.00290255 0)
(0.209112 0.00275408 0)
(0.209249 0.00260733 0)
(0.209381 0.00246138 0)
(0.209507 0.0023154 0)
(0.209627 0.00216867 0)
(0.20974 0.00202057 0)
(0.209845 0.00187069 0)
(0.209942 0.00171881 0)
(0.210028 0.00156503 0)
(0.210102 0.0014098 0)
(0.210164 0.00125401 0)
(0.210212 0.00109903 0)
(0.210245 0.000946681 0)
(0.210264 0.000799162 0)
(0.210268 0.000658845 0)
(0.210258 0.000528003 0)
(0.210237 0.000408525 0)
(0.210206 0.00030168 0)
(0.210168 0.000208025 0)
(0.210126 0.000127439 0)
(0.210082 5.92801e-05 0)
(0.210036 2.58401e-06 0)
(0.209991 -4.37696e-05 0)
(0.209948 -8.09727e-05 0)
(0.209906 -0.000110202 0)
(0.209867 -0.00013256 0)
(0.20983 -0.000149045 0)
(0.209796 -0.000160527 0)
(0.209765 -0.000167759 0)
(0.209737 -0.000171378 0)
(0.209711 -0.000171929 0)
(0.209687 -0.000169877 0)
(0.209666 -0.000165627 0)
(0.209646 -0.000159541 0)
(0.209629 -0.000151946 0)
(0.209614 -0.000143148 0)
(0.209601 -0.000133436 0)
(0.20959 -0.000123084 0)