/*--------------------------------*- C++ -*----------------------------------*\
| =========                 |                                                 |
| \\      /  F ield         | OpenFOAM: The Open Source CFD Toolbox           |
|  \\    /   O peration     | Version:  2.3.0                                 |
|   \\  /    A nd           | Web:      www.OpenFOAM.org                      |
|    \\/     M anipulation  |                                                 |
\*---------------------------------------------------------------------------*/
FoamFile
{
    version     2.0;
    format      ascii;
    class       volVectorField;
    location    "0.7";
    object      U_0;
}
// * * * * * * * * * * * * * * * * * * * * * * * * * * * * * * * * * * * * * //

dimensions      [0 1 -1 0 0 0 0];

internalField   nonuniform List<vector> 
2945
(
(0.149684 0.00850366 0)
(0.105561 0.00731871 0)
(0.0743205 0.00404708 0)
(0.0556087 0.00135748 0)
(0.0453086 0.000142686 0)
(0.039789 -0.000131195 0)
(0.0365959 -7.4142e-05 0)
(0.0343372 2.11839e-05 0)
(0.0324293 7.26374e-05 0)
(0.030722 8.52301e-05 0)
(0.0292006 8.04678e-05 0)
(0.0278557 7.1811e-05 0)
(0.0266645 6.39462e-05 0)
(0.0256009 5.75277e-05 0)
(0.0246428 5.22236e-05 0)
(0.0237728 4.77015e-05 0)
(0.0229779 4.37568e-05 0)
(0.0222475 4.0269e-05 0)
(0.0215735 3.71629e-05 0)
(0.020949 3.43844e-05 0)
(0.0203684 3.18903e-05 0)
(0.019827 2.9644e-05 0)
(0.0193207 2.76143e-05 0)
(0.0188459 2.57744e-05 0)
(0.0183997 2.41019e-05 0)
(0.0179795 2.25771e-05 0)
(0.0175828 2.11835e-05 0)
(0.0172077 1.99066e-05 0)
(0.0168525 1.87339e-05 0)
(0.0165155 1.76547e-05 0)
(0.0161953 1.66595e-05 0)
(0.0158906 1.574e-05 0)
(0.0156003 1.48889e-05 0)
(0.0153234 1.40999e-05 0)
(0.015059 1.33671e-05 0)
(0.0148061 1.26855e-05 0)
(0.0145641 1.20507e-05 0)
(0.0143322 1.14584e-05 0)
(0.0141098 1.09051e-05 0)
(0.0138964 1.03875e-05 0)
(0.0136913 9.90264e-06 0)
(0.0134941 9.44782e-06 0)
(0.0133044 9.02068e-06 0)
(0.0131217 8.61896e-06 0)
(0.0129457 8.24074e-06 0)
(0.0127759 7.8842e-06 0)
(0.0126122 7.54767e-06 0)
(0.0124541 7.22971e-06 0)
(0.0123015 6.92896e-06 0)
(0.012154 6.64419e-06 0)
(0.0120114 6.37431e-06 0)
(0.0118735 6.11833e-06 0)
(0.01174 5.87536e-06 0)
(0.0116109 5.64461e-06 0)
(0.0114859 5.42535e-06 0)
(0.0113649 5.21699e-06 0)
(0.0112476 5.019e-06 0)
(0.011134 4.83092e-06 0)
(0.0110239 4.65238e-06 0)
(0.0109171 4.48314e-06 0)
(0.0108136 4.32299e-06 0)
(0.0107131 4.17187e-06 0)
(0.0106156 4.02982e-06 0)
(0.0105208 3.89685e-06 0)
(0.0104288 3.77364e-06 0)
(0.0103392 3.65943e-06 0)
(0.0102519 3.55888e-06 0)
(0.010167 3.45901e-06 0)
(0.0100834 3.40668e-06 0)
(0.0100032 3.25001e-06 0)
(0.00991944 3.47603e-06 0)
(0.00985161 2.52732e-06 0)
(0.0097468 4.8623e-06 0)
(0.00973861 -3.29706e-06 0)
(0.00961205 9.91261e-06 0)
(0.195292 0.0141376 0)
(0.188843 0.0150649 0)
(0.173396 0.0120874 0)
(0.155308 0.00804467 0)
(0.138622 0.00479623 0)
(0.124921 0.00279109 0)
(0.114241 0.00175916 0)
(0.105929 0.00128125 0)
(0.0992666 0.00104606 0)
(0.0937317 0.000897619 0)
(0.0890016 0.00078133 0)
(0.08488 0.000684244 0)
(0.0812388 0.000603479 0)
(0.0779877 0.000536647 0)
(0.0750595 0.000481009 0)
(0.0724026 0.000434114 0)
(0.0699767 0.000394059 0)
(0.0677495 0.000359442 0)
(0.065695 0.000329242 0)
(0.0637921 0.000302695 0)
(0.0620231 0.00027921 0)
(0.0603731 0.00025832 0)
(0.0588297 0.000239645 0)
(0.0573822 0.000222874 0)
(0.0560212 0.000207751 0)
(0.0547387 0.00019406 0)
(0.0535279 0.000181623 0)
(0.0523825 0.000170289 0)
(0.0512971 0.000159929 0)
(0.0502669 0.000150434 0)
(0.0492877 0.000141709 0)
(0.0483556 0.000133674 0)
(0.0474671 0.000126256 0)
(0.0466193 0.000119396 0)
(0.0458093 0.000113038 0)
(0.0450345 0.000107135 0)
(0.0442927 0.000101645 0)
(0.0435818 9.65297e-05 0)
(0.0428998 9.17567e-05 0)
(0.042245 8.72958e-05 0)
(0.0416159 8.31202e-05 0)
(0.0410109 7.92059e-05 0)
(0.0404286 7.55314e-05 0)
(0.0398679 7.2077e-05 0)
(0.0393277 6.88251e-05 0)
(0.0388067 6.57598e-05 0)
(0.0383042 6.28664e-05 0)
(0.0378191 6.01318e-05 0)
(0.0373507 5.7544e-05 0)
(0.0368982 5.50922e-05 0)
(0.0364609 5.27666e-05 0)
(0.0360381 5.05582e-05 0)
(0.0356292 4.84589e-05 0)
(0.0352337 4.64615e-05 0)
(0.034851 4.45595e-05 0)
(0.0344806 4.27471e-05 0)
(0.0341221 4.10191e-05 0)
(0.0337751 3.93712e-05 0)
(0.0334391 3.77994e-05 0)
(0.0331137 3.63007e-05 0)
(0.0327985 3.48728e-05 0)
(0.0324932 3.35138e-05 0)
(0.0321974 3.22228e-05 0)
(0.0319107 3.09995e-05 0)
(0.0316328 2.98454e-05 0)
(0.0313632 2.87606e-05 0)
(0.0311014 2.77543e-05 0)
(0.0308474 2.68087e-05 0)
(0.0305993 2.60073e-05 0)
(0.0303606 2.50727e-05 0)
(0.0301182 2.49654e-05 0)
(0.0299084 2.225e-05 0)
(0.0296315 2.73966e-05 0)
(0.0295405 2.90646e-06 0)
(0.029194 4.12257e-05 0)
(0.193841 0.0123079 0)
(0.199694 0.014605 0)
(0.201712 0.0138525 0)
(0.198167 0.0114194 0)
(0.190808 0.00879959 0)
(0.181928 0.00669923 0)
(0.172992 0.00520925 0)
(0.164616 0.00418242 0)
(0.156957 0.00345406 0)
(0.150004 0.00291264 0)
(0.143699 0.00249524 0)
(0.137975 0.0021662 0)
(0.132762 0.00190257 0)
(0.128 0.00168794 0)
(0.123633 0.00151039 0)
(0.119613 0.00136128 0)
(0.115899 0.00123439 0)
(0.112455 0.00112519 0)
(0.109252 0.00103027 0)
(0.106263 0.000947083 0)
(0.103466 0.000873657 0)
(0.100842 0.000808439 0)
(0.098375 0.000750191 0)
(0.0960504 0.000697912 0)
(0.0938556 0.00065078 0)
(0.0917795 0.000608118 0)
(0.0898125 0.000569361 0)
(0.0879457 0.000534034 0)
(0.0861716 0.000501735 0)
(0.0844831 0.000472122 0)
(0.0828741 0.0004449 0)
(0.0813389 0.000419817 0)
(0.0798725 0.000396652 0)
(0.0784703 0.000375214 0)
(0.0771281 0.000355336 0)
(0.0758421 0.000336869 0)
(0.0746088 0.000319683 0)
(0.073425 0.000303661 0)
(0.0722878 0.000288701 0)
(0.0711946 0.00027471 0)
(0.0701428 0.000261606 0)
(0.0691302 0.000249314 0)
(0.0681548 0.000237767 0)
(0.0672144 0.000226905 0)
(0.0663075 0.000216673 0)
(0.0654323 0.000207022 0)
(0.0645873 0.000197905 0)
(0.0637712 0.000189283 0)
(0.0629825 0.000181118 0)
(0.0622201 0.000173376 0)
(0.0614828 0.000166026 0)
(0.0607697 0.000159041 0)
(0.0600798 0.000152394 0)
(0.0594121 0.000146063 0)
(0.0587659 0.000140026 0)
(0.0581403 0.000134266 0)
(0.0575347 0.000128766 0)
(0.0569484 0.000123511 0)
(0.0563806 0.000118488 0)
(0.0558309 0.000113687 0)
(0.0552985 0.0001091 0)
(0.054783 0.000104719 0)
(0.0542839 0.00010054 0)
(0.0538004 9.65615e-05 0)
(0.0533322 9.27841e-05 0)
(0.0528785 8.92114e-05 0)
(0.0524387 8.5851e-05 0)
(0.0520126 8.27075e-05 0)
(0.0515979 7.98279e-05 0)
(0.0511983 7.70451e-05 0)
(0.0507994 7.51254e-05 0)
(0.0504401 7.048e-05 0)
(0.0500112 7.53424e-05 0)
(0.0497976 3.63753e-05 0)
(0.049241 9.38841e-05 0)
(0.192813 0.010516 0)
(0.19703 0.0125728 0)
(0.20185 0.0125927 0)
(0.204624 0.0113003 0)
(0.204663 0.00966948 0)
(0.202604 0.00821804 0)
(0.199263 0.0070621 0)
(0.195194 0.00615395 0)
(0.190719 0.00542012 0)
(0.186042 0.00480722 0)
(0.181302 0.00428509 0)
(0.176595 0.00383713 0)
(0.171986 0.00345194 0)
(0.167517 0.00311986 0)
(0.16321 0.00283243 0)
(0.159078 0.0025824 0)
(0.155126 0.00236372 0)
(0.151352 0.00217142 0)
(0.147753 0.00200139 0)
(0.144321 0.00185028 0)
(0.141049 0.00171534 0)
(0.137929 0.00159429 0)
(0.134953 0.00148525 0)
(0.132113 0.00138665 0)
(0.129401 0.00129716 0)
(0.126809 0.00121568 0)
(0.124331 0.00114125 0)
(0.121959 0.00107308 0)
(0.119688 0.00101047 0)
(0.117511 0.000952822 0)
(0.115424 0.00089963 0)
(0.113421 0.000850442 0)
(0.111497 0.000804865 0)
(0.109648 0.000762554 0)
(0.10787 0.000723206 0)
(0.106159 0.000686551 0)
(0.104512 0.000652349 0)
(0.102925 0.000620388 0)
(0.101396 0.000590475 0)
(0.0999207 0.000562439 0)
(0.0984971 0.000536126 0)
(0.0971227 0.000511395 0)
(0.0957951 0.00048812 0)
(0.0945122 0.000466187 0)
(0.093272 0.00044549 0)
(0.0920725 0.000425937 0)
(0.090912 0.000407439 0)
(0.0897888 0.000389917 0)
(0.0887015 0.0003733 0)
(0.0876486 0.000357522 0)
(0.0866287 0.000342523 0)
(0.0856407 0.000328247 0)
(0.0846833 0.000314644 0)
(0.0837555 0.000301669 0)
(0.0828564 0.000289281 0)
(0.0819849 0.000277442 0)
(0.0811402 0.000266118 0)
(0.0803214 0.000255281 0)
(0.0795279 0.000244904 0)
(0.0787588 0.000234966 0)
(0.0780135 0.000225447 0)
(0.0772912 0.000216333 0)
(0.0765914 0.000207614 0)
(0.0759134 0.000199283 0)
(0.0752564 0.000191341 0)
(0.07462 0.000183793 0)
(0.0740031 0.000176644 0)
(0.0734055 0.000169926 0)
(0.072825 0.000163638 0)
(0.0722646 0.000157775 0)
(0.0717112 0.000152732 0)
(0.0712 0.000145458 0)
(0.0706274 0.000147582 0)
(0.0702776 9.95113e-05 0)
(0.0695119 0.000164501 0)
(0.193539 0.00975717 0)
(0.196194 0.0114816 0)
(0.199566 0.0115212 0)
(0.202348 0.0105173 0)
(0.203995 0.00928572 0)
(0.204625 0.00822584 0)
(0.204497 0.00739955 0)
(0.203772 0.00674949 0)
(0.202533 0.00621016 0)
(0.20085 0.00573778 0)
(0.198795 0.00531055 0)
(0.196443 0.00491988 0)
(0.19386 0.00456229 0)
(0.191107 0.00423536 0)
(0.188236 0.00393664 0)
(0.185289 0.00366374 0)
(0.182301 0.00341434 0)
(0.179302 0.0031863 0)
(0.176312 0.00297762 0)
(0.173349 0.00278644 0)
(0.170428 0.0026111 0)
(0.167556 0.00245008 0)
(0.164743 0.002302 0)
(0.161993 0.00216561 0)
(0.15931 0.00203979 0)
(0.156696 0.00192355 0)
(0.154152 0.00181599 0)
(0.151679 0.0017163 0)
(0.149277 0.00162377 0)
(0.146944 0.00153775 0)
(0.14468 0.00145768 0)
(0.142483 0.00138304 0)
(0.140351 0.00131337 0)
(0.138283 0.00124824 0)
(0.136278 0.00118729 0)
(0.134332 0.00113019 0)
(0.132445 0.00107661 0)
(0.130614 0.00102629 0)
(0.128838 0.000978971 0)
(0.127115 0.000934424 0)
(0.125442 0.000892441 0)
(0.123819 0.000852828 0)
(0.122243 0.000815411 0)
(0.120713 0.000780028 0)
(0.119227 0.000746532 0)
(0.117784 0.000714788 0)
(0.116382 0.00068467 0)
(0.115021 0.000656063 0)
(0.113698 0.000628862 0)
(0.112413 0.000602968 0)
(0.111164 0.000578293 0)
(0.109951 0.000554754 0)
(0.108772 0.000532275 0)
(0.107626 0.000510786 0)
(0.106512 0.000490225 0)
(0.10543 0.000470533 0)
(0.104379 0.00045166 0)
(0.103358 0.000433558 0)
(0.102366 0.000416186 0)
(0.101403 0.00039951 0)
(0.100467 0.000383499 0)
(0.0995589 0.00036813 0)
(0.0986773 0.000353384 0)
(0.0978218 0.000339251 0)
(0.0969916 0.000325728 0)
(0.0961862 0.000312822 0)
(0.0954048 0.000300539 0)
(0.0946468 0.000288929 0)
(0.0939106 0.000277966 0)
(0.0931982 0.000267764 0)
(0.0924987 0.000258416 0)
(0.0918422 0.000247548 0)
(0.0911335 0.000245048 0)
(0.0906502 0.000193107 0)
(0.089682 0.000255055 0)
(0.194323 0.00916077 0)
(0.196443 0.0106794 0)
(0.198955 0.0107829 0)
(0.200974 0.00995516 0)
(0.202255 0.00889581 0)
(0.203008 0.00797671 0)
(0.203474 0.00726915 0)
(0.203748 0.00672914 0)
(0.203829 0.00629898 0)
(0.203692 0.00593543 0)
(0.203323 0.00561252 0)
(0.202718 0.00531693 0)
(0.201885 0.00504207 0)
(0.200836 0.00478422 0)
(0.199592 0.00454103 0)
(0.198173 0.00431094 0)
(0.196601 0.00409296 0)
(0.1949 0.0038864 0)
(0.19309 0.00369071 0)
(0.19119 0.00350544 0)
(0.189218 0.00333016 0)
(0.187192 0.00316446 0)
(0.185124 0.00300791 0)
(0.183028 0.00286008 0)
(0.180914 0.00272054 0)
(0.178793 0.00258886 0)
(0.176673 0.0024646 0)
(0.174559 0.00234735 0)
(0.172459 0.0022367 0)
(0.170377 0.00213227 0)
(0.168318 0.00203367 0)
(0.166284 0.00194056 0)
(0.164279 0.00185259 0)
(0.162304 0.00176945 0)
(0.160362 0.00169083 0)
(0.158454 0.00161645 0)
(0.15658 0.00154604 0)
(0.154742 0.00147936 0)
(0.15294 0.00141616 0)
(0.151175 0.00135623 0)
(0.149445 0.00129936 0)
(0.147753 0.00124536 0)
(0.146096 0.00119404 0)
(0.144475 0.00114524 0)
(0.14289 0.00109878 0)
(0.141341 0.00105454 0)
(0.139826 0.00101236 0)
(0.138345 0.000972116 0)
(0.136898 0.000933684 0)
(0.135485 0.000896952 0)
(0.134105 0.000861811 0)
(0.132757 0.000828165 0)
(0.131441 0.000795919 0)
(0.130156 0.000764991 0)
(0.128903 0.0007353 0)
(0.127679 0.000706775 0)
(0.126486 0.00067935 0)
(0.125323 0.000652968 0)
(0.124189 0.000627574 0)
(0.123083 0.000603124 0)
(0.122006 0.000579579 0)
(0.120957 0.000556907 0)
(0.119936 0.000535087 0)
(0.118942 0.000514104 0)
(0.117974 0.000493952 0)
(0.117033 0.000474643 0)
(0.116118 0.000456186 0)
(0.115228 0.000438646 0)
(0.114362 0.000421988 0)
(0.113521 0.000406413 0)
(0.112697 0.000391784 0)
(0.111915 0.000376505 0)
(0.111088 0.000367916 0)
(0.110487 0.000316666 0)
(0.109339 0.000366691 0)
(0.19496 0.00858932 0)
(0.196755 0.00992315 0)
(0.198881 0.0101231 0)
(0.200576 0.00950284 0)
(0.201604 0.0086165 0)
(0.202155 0.00779997 0)
(0.202489 0.0071437 0)
(0.202745 0.00663097 0)
(0.202957 0.00622442 0)
(0.203124 0.00589118 0)
(0.20323 0.0056075 0)
(0.203259 0.00535819 0)
(0.203195 0.00513375 0)
(0.203023 0.0049278 0)
(0.202737 0.00473581 0)
(0.20233 0.00455456 0)
(0.201802 0.00438189 0)
(0.201154 0.00421633 0)
(0.200391 0.00405694 0)
(0.199518 0.00390312 0)
(0.198543 0.00375449 0)
(0.197473 0.00361083 0)
(0.196317 0.00347201 0)
(0.195084 0.00333794 0)
(0.193782 0.00320856 0)
(0.192419 0.00308382 0)
(0.191004 0.00296364 0)
(0.189544 0.00284798 0)
(0.188047 0.00273676 0)
(0.186519 0.00262988 0)
(0.184966 0.00252725 0)
(0.183393 0.00242875 0)
(0.181807 0.00233428 0)
(0.180211 0.00224371 0)
(0.17861 0.00215689 0)
(0.177007 0.00207372 0)
(0.175407 0.00199403 0)
(0.173811 0.0019177 0)
(0.172222 0.00184459 0)
(0.170644 0.00177455 0)
(0.169077 0.00170745 0)
(0.167523 0.00164316 0)
(0.165985 0.00158155 0)
(0.164464 0.00152248 0)
(0.16296 0.00146582 0)
(0.161476 0.00141147 0)
(0.16001 0.0013593 0)
(0.158566 0.0013092 0)
(0.157142 0.00126105 0)
(0.155741 0.00121477 0)
(0.154361 0.00117024 0)
(0.153004 0.00112737 0)
(0.15167 0.00108608 0)
(0.150359 0.00104628 0)
(0.149072 0.0010079 0)
(0.147808 0.000970855 0)
(0.146568 0.000935086 0)
(0.145353 0.00090053 0)
(0.144161 0.000867134 0)
(0.142994 0.000834851 0)
(0.141851 0.000803641 0)
(0.140732 0.000773473 0)
(0.139638 0.000744325 0)
(0.138568 0.000716185 0)
(0.137523 0.000689052 0)
(0.136502 0.000662943 0)
(0.135504 0.000637876 0)
(0.134531 0.000613931 0)
(0.133581 0.000591081 0)
(0.132655 0.000569595 0)
(0.131745 0.000549145 0)
(0.130875 0.000529077 0)
(0.129963 0.000513475 0)
(0.129275 0.000466893 0)
(0.127991 0.000497954 0)
(0.195509 0.00809113 0)
(0.197023 0.00925938 0)
(0.19885 0.00952666 0)
(0.200373 0.00908464 0)
(0.201338 0.00836327 0)
(0.201857 0.00765534 0)
(0.202137 0.00705748 0)
(0.202316 0.00657071 0)
(0.20245 0.00617373 0)
(0.202561 0.00584493 0)
(0.202659 0.00556654 0)
(0.202745 0.00532579 0)
(0.202814 0.00511397 0)
(0.202858 0.00492475 0)
(0.202869 0.00475319 0)
(0.202839 0.0045954 0)
(0.20276 0.00444837 0)
(0.202625 0.0043098 0)
(0.202428 0.00417795 0)
(0.202166 0.00405152 0)
(0.201834 0.00392956 0)
(0.201433 0.00381138 0)
(0.200961 0.00369648 0)
(0.200419 0.00358454 0)
(0.199809 0.00347533 0)
(0.199133 0.00336871 0)
(0.198394 0.0032646 0)
(0.197595 0.00316295 0)
(0.19674 0.00306374 0)
(0.195833 0.00296698 0)
(0.194878 0.00287266 0)
(0.193878 0.0027808 0)
(0.192837 0.0026914 0)
(0.191761 0.00260446 0)
(0.190652 0.00251998 0)
(0.189514 0.00243794 0)
(0.188351 0.00235832 0)
(0.187166 0.0022811 0)
(0.185962 0.00220624 0)
(0.184743 0.0021337 0)
(0.183511 0.00206344 0)
(0.182269 0.00199539 0)
(0.181019 0.00192951 0)
(0.179764 0.00186573 0)
(0.178506 0.00180399 0)
(0.177247 0.00174422 0)
(0.175988 0.00168635 0)
(0.174732 0.00163032 0)
(0.17348 0.00157606 0)
(0.172234 0.00152349 0)
(0.170994 0.00147256 0)
(0.169763 0.00142318 0)
(0.16854 0.00137531 0)
(0.167329 0.00132886 0)
(0.166128 0.00128379 0)
(0.16494 0.00124004 0)
(0.163765 0.00119755 0)
(0.162604 0.00115628 0)
(0.161457 0.00111619 0)
(0.160326 0.00107723 0)
(0.159211 0.00103937 0)
(0.158113 0.00100261 0)
(0.157031 0.000966911 0)
(0.155968 0.00093229 0)
(0.154922 0.000898752 0)
(0.153895 0.000866327 0)
(0.152886 0.000835049 0)
(0.151896 0.000805017 0)
(0.150924 0.000776219 0)
(0.149972 0.000748997 0)
(0.149034 0.000722842 0)
(0.14813 0.000698217 0)
(0.147184 0.000675441 0)
(0.146452 0.000636753 0)
(0.145102 0.000644394 0)
(0.19599 0.00766188 0)
(0.197273 0.0086828 0)
(0.198835 0.00898693 0)
(0.200195 0.00868446 0)
(0.201118 0.0081059 0)
(0.201656 0.00750223 0)
(0.201963 0.0069695 0)
(0.20215 0.00651927 0)
(0.202271 0.00614079 0)
(0.202351 0.00582059 0)
(0.202408 0.00554602 0)
(0.202453 0.00530704 0)
(0.202492 0.00509649 0)
(0.202526 0.00490913 0)
(0.202555 0.00474075 0)
(0.202577 0.00458789 0)
(0.202589 0.00444774 0)
(0.202588 0.00431802 0)
(0.202569 0.00419686 0)
(0.202528 0.00408275 0)
(0.202461 0.00397445 0)
(0.202363 0.00387097 0)
(0.202231 0.0037715 0)
(0.202061 0.00367539 0)
(0.201852 0.00358215 0)
(0.201602 0.00349138 0)
(0.201308 0.00340278 0)
(0.20097 0.00331611 0)
(0.200588 0.00323121 0)
(0.200161 0.00314795 0)
(0.19969 0.00306626 0)
(0.199176 0.00298609 0)
(0.19862 0.00290738 0)
(0.198023 0.00283014 0)
(0.197387 0.00275435 0)
(0.196714 0.00268002 0)
(0.196005 0.00260713 0)
(0.195262 0.00253571 0)
(0.194488 0.00246574 0)
(0.193685 0.00239724 0)
(0.192854 0.00233021 0)
(0.191998 0.00226463 0)
(0.19112 0.0022005 0)
(0.19022 0.0021378 0)
(0.189301 0.00207653 0)
(0.188366 0.00201665 0)
(0.187415 0.00195815 0)
(0.186452 0.001901 0)
(0.185477 0.00184518 0)
(0.184492 0.00179064 0)
(0.1835 0.00173736 0)
(0.182501 0.0016853 0)
(0.181497 0.00163443 0)
(0.18049 0.00158472 0)
(0.179481 0.00153613 0)
(0.178472 0.00148862 0)
(0.177463 0.00144218 0)
(0.176456 0.00139678 0)
(0.175453 0.00135238 0)
(0.174453 0.00130898 0)
(0.173459 0.00126656 0)
(0.172472 0.00122512 0)
(0.171491 0.00118466 0)
(0.170519 0.0011452 0)
(0.169556 0.00110678 0)
(0.168603 0.00106943 0)
(0.16766 0.00103322 0)
(0.166728 0.000998262 0)
(0.165806 0.000964576 0)
(0.164898 0.000932578 0)
(0.163997 0.000901593 0)
(0.163123 0.000873299 0)
(0.162205 0.000844086 0)
(0.161483 0.000815444 0)
(0.160153 0.000798486 0)
(0.196413 0.00728528 0)
(0.197508 0.00817526 0)
(0.198843 0.00849577 0)
(0.200049 0.00830328 0)
(0.200917 0.00784692 0)
(0.201463 0.00733774 0)
(0.201799 0.00686823 0)
(0.202014 0.00645761 0)
(0.202155 0.00610294 0)
(0.202247 0.00579693 0)
(0.202305 0.00553101 0)
(0.202341 0.0052973 0)
(0.202364 0.00508977 0)
(0.202378 0.00490398 0)
(0.202387 0.00473637 0)
(0.202392 0.00458402 0)
(0.202394 0.00444451 0)
(0.202395 0.00431589 0)
(0.202393 0.00419654 0)
(0.202387 0.0040851 0)
(0.202376 0.00398043 0)
(0.202357 0.00388157 0)
(0.20233 0.0037877 0)
(0.20229 0.00369813 0)
(0.202236 0.00361225 0)
(0.202165 0.00352957 0)
(0.202076 0.00344966 0)
(0.201966 0.00337216 0)
(0.201833 0.00329678 0)
(0.201675 0.00322325 0)
(0.201491 0.00315139 0)
(0.20128 0.00308102 0)
(0.20104 0.003012 0)
(0.200771 0.00294423 0)
(0.200473 0.00287763 0)
(0.200145 0.00281213 0)
(0.199787 0.00274767 0)
(0.199399 0.00268421 0)
(0.198982 0.00262174 0)
(0.198536 0.00256021 0)
(0.198061 0.00249962 0)
(0.197559 0.00243995 0)
(0.197031 0.00238118 0)
(0.196477 0.00232332 0)
(0.195898 0.00226634 0)
(0.195296 0.00221023 0)
(0.194671 0.00215499 0)
(0.194025 0.00210061 0)
(0.19336 0.00204707 0)
(0.192676 0.00199436 0)
(0.191975 0.00194246 0)
(0.191258 0.00189137 0)
(0.190526 0.00184106 0)
(0.18978 0.00179153 0)
(0.189023 0.00174276 0)
(0.188255 0.00169473 0)
(0.187478 0.00164745 0)
(0.186692 0.00160089 0)
(0.185899 0.00155506 0)
(0.1851 0.00150996 0)
(0.184297 0.0014656 0)
(0.18349 0.00142199 0)
(0.18268 0.00137915 0)
(0.181869 0.00133713 0)
(0.181058 0.00129596 0)
(0.180247 0.00125573 0)
(0.179438 0.00121651 0)
(0.178631 0.00117845 0)
(0.177826 0.00114158 0)
(0.177026 0.00110641 0)
(0.176226 0.00107212 0)
(0.175443 0.00104157 0)
(0.174615 0.00100751 0)
(0.173958 0.000989655 0)
(0.172737 0.000950437 0)
(0.196785 0.00695107 0)
(0.197726 0.00772733 0)
(0.198871 0.00805117 0)
(0.199937 0.00794492 0)
(0.200745 0.0075922 0)
(0.201286 0.00716716 0)
(0.201637 0.00675662 0)
(0.201874 0.00638522 0)
(0.202036 0.00605599 0)
(0.202145 0.00576651 0)
(0.202217 0.00551172 0)
(0.202263 0.00528575 0)
(0.202292 0.00508361 0)
(0.202306 0.00490148 0)
(0.202311 0.00473627 0)
(0.20231 0.0045854 0)
(0.202303 0.00444675 0)
(0.202294 0.00431857 0)
(0.202282 0.00419945 0)
(0.202269 0.00408821 0)
(0.202256 0.00398385 0)
(0.202241 0.00388554 0)
(0.202225 0.00379256 0)
(0.202207 0.0037043 0)
(0.202186 0.00362023 0)
(0.202162 0.00353988 0)
(0.202133 0.00346283 0)
(0.202097 0.00338874 0)
(0.202055 0.00331727 0)
(0.202004 0.00324814 0)
(0.201942 0.00318112 0)
(0.201869 0.00311598 0)
(0.201782 0.00305254 0)
(0.201682 0.00299062 0)
(0.201566 0.00293008 0)
(0.201433 0.00287078 0)
(0.201283 0.00281263 0)
(0.201114 0.00275553 0)
(0.200927 0.00269938 0)
(0.200719 0.00264412 0)
(0.200491 0.00258969 0)
(0.200242 0.00253602 0)
(0.199973 0.00248308 0)
(0.199682 0.00243082 0)
(0.19937 0.0023792 0)
(0.199037 0.0023282 0)
(0.198684 0.00227777 0)
(0.19831 0.00222791 0)
(0.197916 0.00217858 0)
(0.197502 0.00212976 0)
(0.197069 0.00208143 0)
(0.196618 0.00203358 0)
(0.196148 0.00198619 0)
(0.195662 0.00193925 0)
(0.195159 0.00189274 0)
(0.19464 0.00184667 0)
(0.194107 0.00180102 0)
(0.193559 0.0017558 0)
(0.192999 0.00171101 0)
(0.192426 0.00166666 0)
(0.191842 0.00162277 0)
(0.191247 0.00157936 0)
(0.190643 0.00153648 0)
(0.190031 0.00149417 0)
(0.18941 0.00145249 0)
(0.188783 0.00141154 0)
(0.18815 0.00137141 0)
(0.187511 0.00133227 0)
(0.186868 0.00129418 0)
(0.186222 0.00125771 0)
(0.185569 0.00122194 0)
(0.184923 0.00119078 0)
(0.184232 0.00115401 0)
(0.183683 0.00114612 0)
(0.182645 0.00109001 0)
(0.197113 0.00665227 0)
(0.197927 0.00733126 0)
(0.198914 0.00764972 0)
(0.199855 0.00760966 0)
(0.200602 0.00734379 0)
(0.201128 0.00699325 0)
(0.201487 0.00663749 0)
(0.201738 0.0063044 0)
(0.201915 0.00600132 0)
(0.202039 0.00572956 0)
(0.202124 0.00548705 0)
(0.202181 0.00526988 0)
(0.202218 0.00507419 0)
(0.202241 0.0048968 0)
(0.202251 0.00473509 0)
(0.202253 0.00458679 0)
(0.202248 0.00444998 0)
(0.202238 0.00432309 0)
(0.202224 0.00420482 0)
(0.202208 0.00409408 0)
(0.20219 0.00398998 0)
(0.20217 0.00389177 0)
(0.20215 0.00379881 0)
(0.202129 0.00371055 0)
(0.202108 0.00362653 0)
(0.202087 0.00354634 0)
(0.202065 0.00346962 0)
(0.202042 0.00339607 0)
(0.202019 0.0033254 0)
(0.201994 0.00325735 0)
(0.201967 0.00319171 0)
(0.201937 0.00312826 0)
(0.201903 0.00306682 0)
(0.201865 0.00300722 0)
(0.201822 0.0029493 0)
(0.201772 0.00289291 0)
(0.201715 0.00283793 0)
(0.20165 0.00278424 0)
(0.201576 0.00273172 0)
(0.201493 0.00268027 0)
(0.201398 0.00262979 0)
(0.201293 0.00258021 0)
(0.201175 0.00253145 0)
(0.201045 0.00248342 0)
(0.200901 0.00243606 0)
(0.200744 0.00238932 0)
(0.200572 0.00234313 0)
(0.200386 0.00229744 0)
(0.200184 0.00225222 0)
(0.199968 0.0022074 0)
(0.199736 0.00216296 0)
(0.199489 0.00211886 0)
(0.199226 0.00207506 0)
(0.198948 0.00203155 0)
(0.198655 0.0019883 0)
(0.198347 0.00194529 0)
(0.198024 0.00190251 0)
(0.197686 0.00185995 0)
(0.197335 0.00181762 0)
(0.196969 0.00177551 0)
(0.19659 0.00173365 0)
(0.196198 0.00169206 0)
(0.195794 0.00165078 0)
(0.195378 0.00160987 0)
(0.19495 0.00156939 0)
(0.194512 0.00152943 0)
(0.194063 0.00149012 0)
(0.193605 0.00145163 0)
(0.193137 0.00141403 0)
(0.192661 0.00137796 0)
(0.192173 0.00134242 0)
(0.191687 0.00131208 0)
(0.191157 0.00127486 0)
(0.190737 0.00127469 0)
(0.189924 0.00120885 0)
(0.197405 0.00638328 0)
(0.198113 0.00697958 0)
(0.198966 0.007287 0)
(0.199797 0.00729671 0)
(0.200482 0.0071029 0)
(0.200989 0.00681799 0)
(0.20135 0.00651284 0)
(0.201609 0.00621676 0)
(0.201797 0.00594011 0)
(0.201933 0.00568692 0)
(0.202028 0.00545757 0)
(0.202095 0.00524997 0)
(0.20214 0.00506137 0)
(0.20217 0.0048893 0)
(0.202187 0.00473161 0)
(0.202194 0.00458638 0)
(0.202194 0.00445193 0)
(0.202188 0.00432684 0)
(0.202176 0.00420992 0)
(0.202162 0.00410019 0)
(0.202144 0.0039968 0)
(0.202124 0.00389905 0)
(0.202103 0.00380636 0)
(0.202081 0.00371821 0)
(0.202058 0.00363419 0)
(0.202034 0.00355391 0)
(0.202011 0.00347706 0)
(0.201988 0.00340336 0)
(0.201964 0.00333256 0)
(0.201942 0.00326445 0)
(0.201919 0.00319881 0)
(0.201896 0.00313549 0)
(0.201873 0.0030743 0)
(0.20185 0.00301511 0)
(0.201826 0.00295777 0)
(0.201801 0.00290214 0)
(0.201774 0.00284812 0)
(0.201745 0.00279557 0)
(0.201714 0.0027444 0)
(0.20168 0.0026945 0)
(0.201641 0.00264576 0)
(0.201599 0.0025981 0)
(0.201551 0.00255143 0)
(0.201498 0.00250566 0)
(0.201439 0.0024607 0)
(0.201373 0.00241649 0)
(0.2013 0.00237295 0)
(0.201218 0.00233001 0)
(0.201129 0.00228761 0)
(0.20103 0.00224568 0)
(0.200922 0.00220417 0)
(0.200805 0.00216302 0)
(0.200677 0.00212219 0)
(0.200538 0.00208164 0)
(0.200389 0.00204132 0)
(0.200228 0.0020012 0)
(0.200057 0.00196126 0)
(0.199874 0.00192147 0)
(0.199679 0.00188183 0)
(0.199473 0.00184233 0)
(0.199255 0.00180298 0)
(0.199025 0.00176379 0)
(0.198784 0.00172481 0)
(0.198531 0.00168606 0)
(0.198267 0.00164763 0)
(0.197992 0.00160961 0)
(0.197705 0.0015721 0)
(0.197408 0.0015353 0)
(0.197099 0.00149929 0)
(0.196781 0.00146473 0)
(0.19645 0.00143063 0)
(0.196115 0.00140201 0)
(0.195743 0.00136621 0)
(0.19545 0.00137062 0)
(0.194867 0.00130234 0)
(0.197664 0.00613963 0)
(0.198284 0.00666582 0)
(0.199024 0.00695899 0)
(0.199758 0.00700544 0)
(0.200385 0.00687086 0)
(0.200868 0.00664327 0)
(0.201224 0.00638442 0)
(0.201488 0.00612364 0)
(0.201684 0.00587322 0)
(0.201829 0.00563914 0)
(0.201933 0.00542366 0)
(0.202008 0.00522632 0)
(0.202061 0.00504542 0)
(0.202097 0.00487918 0)
(0.202119 0.00472593 0)
(0.202132 0.00458411 0)
(0.202136 0.00445232 0)
(0.202133 0.00432929 0)
(0.202126 0.00421398 0)
(0.202114 0.0041055 0)
(0.202099 0.00400306 0)
(0.202081 0.00390603 0)
(0.202062 0.00381385 0)
(0.20204 0.00372606 0)
(0.202018 0.00364223 0)
(0.201995 0.00356204 0)
(0.201971 0.00348518 0)
(0.201948 0.00341138 0)
(0.201924 0.00334043 0)
(0.2019 0.00327211 0)
(0.201877 0.00320625 0)
(0.201854 0.00314269 0)
(0.201831 0.00308128 0)
(0.20181 0.00302189 0)
(0.201788 0.00296439 0)
(0.201767 0.00290867 0)
(0.201747 0.00285463 0)
(0.201726 0.00280215 0)
(0.201706 0.00275114 0)
(0.201685 0.0027015 0)
(0.201664 0.00265316 0)
(0.201642 0.00260601 0)
(0.201619 0.00255997 0)
(0.201595 0.00251497 0)
(0.201569 0.00247092 0)
(0.201541 0.00242774 0)
(0.20151 0.00238536 0)
(0.201476 0.00234371 0)
(0.201438 0.00230271 0)
(0.201397 0.0022623 0)
(0.201351 0.00222242 0)
(0.201301 0.002183 0)
(0.201245 0.00214398 0)
(0.201184 0.00210532 0)
(0.201117 0.00206696 0)
(0.201043 0.00202886 0)
(0.200962 0.00199098 0)
(0.200875 0.0019533 0)
(0.200779 0.00191579 0)
(0.200676 0.00187843 0)
(0.200565 0.00184123 0)
(0.200446 0.00180419 0)
(0.200317 0.00176734 0)
(0.20018 0.00173071 0)
(0.200034 0.00169437 0)
(0.199879 0.00165841 0)
(0.199715 0.00162292 0)
(0.199541 0.00158811 0)
(0.199357 0.00155406 0)
(0.199164 0.00152142 0)
(0.198959 0.0014893 0)
(0.198749 0.00146266 0)
(0.198509 0.00142945 0)
(0.198323 0.00143516 0)
(0.19794 0.00137035 0)
(0.197897 0.00591783 0)
(0.198441 0.00638461 0)
(0.199086 0.00666205 0)
(0.199735 0.00673504 0)
(0.200306 0.00664862 0)
(0.200762 0.00647064 0)
(0.201111 0.00625378 0)
(0.201375 0.00602625 0)
(0.201576 0.00580146 0)
(0.201727 0.0055867 0)
(0.201839 0.00538563 0)
(0.201921 0.00519911 0)
(0.201981 0.00502645 0)
(0.202022 0.00486651 0)
(0.20205 0.00471812 0)
(0.202067 0.00458007 0)
(0.202075 0.00445121 0)
(0.202076 0.00433048 0)
(0.202072 0.00421698 0)
(0.202063 0.0041099 0)
(0.202051 0.00400857 0)
(0.202035 0.00391238 0)
(0.202018 0.00382085 0)
(0.201998 0.00373352 0)
(0.201978 0.00365002 0)
(0.201956 0.00357003 0)
(0.201934 0.00349328 0)
(0.201911 0.0034195 0)
(0.201888 0.00334849 0)
(0.201864 0.00328006 0)
(0.201841 0.00321403 0)
(0.201819 0.00315026 0)
(0.201796 0.00308862 0)
(0.201774 0.00302896 0)
(0.201753 0.00297119 0)
(0.201732 0.0029152 0)
(0.201712 0.00286088 0)
(0.201692 0.00280815 0)
(0.201674 0.00275692 0)
(0.201655 0.00270709 0)
(0.201638 0.00265859 0)
(0.201621 0.00261135 0)
(0.201604 0.00256527 0)
(0.201587 0.0025203 0)
(0.201571 0.00247634 0)
(0.201554 0.00243334 0)
(0.201537 0.00239123 0)
(0.20152 0.00234992 0)
(0.201502 0.00230936 0)
(0.201482 0.00226948 0)
(0.201462 0.00223021 0)
(0.20144 0.0021915 0)
(0.201416 0.00215329 0)
(0.201389 0.00211553 0)
(0.201361 0.00207815 0)
(0.201329 0.00204112 0)
(0.201294 0.0020044 0)
(0.201256 0.00196795 0)
(0.201213 0.00193174 0)
(0.201167 0.00189575 0)
(0.201115 0.00185999 0)
(0.201059 0.00182444 0)
(0.200998 0.00178913 0)
(0.200931 0.00175409 0)
(0.200857 0.00171938 0)
(0.200778 0.00168509 0)
(0.200692 0.00165131 0)
(0.200599 0.00161823 0)
(0.200499 0.00158595 0)
(0.200391 0.0015551 0)
(0.200275 0.00152493 0)
(0.200154 0.00150002 0)
(0.20001 0.00146981 0)
(0.199902 0.00147411 0)
(0.19967 0.00141638 0)
(0.198106 0.00571511 0)
(0.198586 0.00613145 0)
(0.199151 0.00639279 0)
(0.199725 0.00648445 0)
(0.200243 0.00643679 0)
(0.20067 0.00630137 0)
(0.201008 0.00612224 0)
(0.20127 0.00592573 0)
(0.201473 0.00572569 0)
(0.201629 0.00553015 0)
(0.201747 0.00534379 0)
(0.201835 0.00516853 0)
(0.2019 0.00500456 0)
(0.201947 0.00485136 0)
(0.201979 0.00470821 0)
(0.202 0.00457426 0)
(0.202012 0.00444862 0)
(0.202017 0.00433043 0)
(0.202016 0.00421893 0)
(0.202009 0.00411343 0)
(0.201999 0.00401332 0)
(0.201986 0.0039181 0)
(0.201971 0.00382729 0)
(0.201954 0.00374052 0)
(0.201935 0.00365742 0)
(0.201914 0.0035777 0)
(0.201894 0.00350111 0)
(0.201872 0.00342742 0)
(0.20185 0.00335642 0)
(0.201828 0.00328793 0)
(0.201806 0.0032218 0)
(0.201784 0.00315788 0)
(0.201762 0.00309604 0)
(0.201741 0.00303617 0)
(0.20172 0.00297816 0)
(0.201699 0.00292191 0)
(0.20168 0.00286732 0)
(0.20166 0.0028143 0)
(0.201642 0.00276279 0)
(0.201624 0.00271268 0)
(0.201607 0.00266391 0)
(0.20159 0.0026164 0)
(0.201574 0.00257008 0)
(0.201559 0.00252489 0)
(0.201545 0.00248074 0)
(0.201531 0.00243759 0)
(0.201517 0.00239535 0)
(0.201504 0.00235396 0)
(0.201491 0.00231337 0)
(0.201478 0.00227351 0)
(0.201466 0.00223433 0)
(0.201453 0.00219576 0)
(0.20144 0.00215775 0)
(0.201427 0.00212024 0)
(0.201413 0.0020832 0)
(0.201398 0.00204658 0)
(0.201381 0.00201033 0)
(0.201364 0.00197442 0)
(0.201345 0.00193883 0)
(0.201324 0.00190354 0)
(0.201301 0.00186854 0)
(0.201275 0.00183383 0)
(0.201247 0.00179943 0)
(0.201216 0.00176538 0)
(0.201181 0.00173172 0)
(0.201142 0.00169855 0)
(0.2011 0.00166596 0)
(0.201053 0.00163414 0)
(0.201001 0.00160319 0)
(0.200944 0.00157372 0)
(0.200881 0.00154515 0)
(0.200814 0.00152146 0)
(0.200732 0.00149406 0)
(0.200673 0.00149528 0)
(0.200541 0.00144587 0)
(0.198294 0.00552922 0)