/*--------------------------------*- C++ -*----------------------------------*\
| =========                 |                                                 |
| \\      /  F ield         | OpenFOAM: The Open Source CFD Toolbox           |
|  \\    /   O peration     | Version:  2.3.0                                 |
|   \\  /    A nd           | Web:      www.OpenFOAM.org                      |
|    \\/     M anipulation  |                                                 |
\*---------------------------------------------------------------------------*/
FoamFile
{
    version     2.0;
    format      ascii;
    class       surfaceScalarField;
    location    "0.6";
    object      phi;
}
// * * * * * * * * * * * * * * * * * * * * * * * * * * * * * * * * * * * * * //

dimensions      [0 3 -1 0 0 0 0];

internalField   nonuniform List<scalar> 
6598
(
2.81559e-08
2.89784e-09
-3.10537e-08
2.52794e-08
2.87648e-09
2.25814e-08
2.698e-09
2.00956e-08
2.48579e-09
1.78385e-08
2.25715e-09
1.58207e-08
2.01776e-09
1.40448e-08
1.77595e-09
1.25051e-08
1.53967e-09
1.11895e-08
1.31563e-09
1.00801e-08
1.10932e-09
9.1554e-09
9.2474e-10
8.39119e-09
7.6421e-10
7.76288e-09
6.28313e-10
7.24676e-09
5.1612e-10
6.82121e-09
4.25549e-10
6.46741e-09
3.53803e-10
6.16962e-09
2.97787e-10
5.91517e-09
2.54447e-10
5.69417e-09
2.21009e-10
5.49907e-09
1.95101e-10
5.32426e-09
1.74802e-10
5.16565e-09
1.58616e-10
5.02022e-09
1.45423e-10
4.88581e-09
1.34411e-10
4.76081e-09
1.25001e-10
4.64402e-09
1.16796e-10
4.5345e-09
1.09521e-10
4.43151e-09
1.02988e-10
4.33444e-09
9.7068e-11
4.24277e-09
9.16689e-11
4.15605e-09
8.6723e-11
4.07387e-09
8.21779e-11
3.99588e-09
7.79912e-11
3.92175e-09
7.41268e-11
3.8512e-09
7.05534e-11
3.78395e-09
6.72432e-11
3.71978e-09
6.41713e-11
3.65847e-09
6.13154e-11
3.59981e-09
5.86554e-11
3.54364e-09
5.61734e-11
3.48979e-09
5.3853e-11
3.43811e-09
5.168e-11
3.38846e-09
4.96413e-11
3.34074e-09
4.77255e-11
3.29482e-09
4.59222e-11
3.2506e-09
4.42221e-11
3.20798e-09
4.26171e-11
3.16688e-09
4.10995e-11
3.12722e-09
3.96627e-11
3.08892e-09
3.83005e-11
3.05191e-09
3.70075e-11
3.01613e-09
3.57785e-11
2.98152e-09
3.46091e-11
2.94803e-09
3.34949e-11
2.91559e-09
3.24322e-11
2.88418e-09
3.14173e-11
2.85373e-09
3.04471e-11
2.82421e-09
2.95184e-11
2.79558e-09
2.86285e-11
2.76781e-09
2.77748e-11
2.74085e-09
2.69549e-11
2.71469e-09
2.61665e-11
2.68928e-09
2.54076e-11
2.6646e-09
2.46762e-11
2.64063e-09
2.39705e-11
2.61734e-09
2.32888e-11
2.59471e-09
2.26295e-11
2.57272e-09
2.19913e-11
2.55135e-09
2.13726e-11
2.53058e-09
2.07724e-11
2.51039e-09
2.01894e-11
2.49076e-09
1.96225e-11
2.47169e-09
1.90707e-11
2.45316e-09
1.85332e-11
2.43515e-09
1.80091e-11
2.41765e-09
1.74977e-11
2.40066e-09
1.69983e-11
2.38415e-09
1.65104e-11
2.36811e-09
1.60335e-11
2.35254e-09
1.55672e-11
2.33743e-09
1.51113e-11
2.32277e-09
1.46657e-11
2.30854e-09
1.42302e-11
2.29473e-09
1.3805e-11
2.28134e-09
1.33904e-11
2.26836e-09
1.29867e-11
2.25576e-09
1.25947e-11
2.24355e-09
1.22151e-11
2.2317e-09
1.18492e-11
2.2202e-09
1.14986e-11
2.20903e-09
1.11656e-11
2.19818e-09
1.08534e-11
2.18761e-09
1.05665e-11
2.1773e-09
1.03118e-11
2.1672e-09
1.0101e-11
2.15724e-09
9.95625e-12
2.14731e-09
9.93089e-12
2.13717e-09
1.01451e-11
2.1263e-09
1.08716e-11
2.90416e-11
3.38281e-08
3.18254e-09
-3.41128e-08
3.32271e-08
3.47745e-09
3.23916e-08
3.53355e-09
3.13984e-08
3.47897e-09
3.03035e-08
3.35204e-09
2.9153e-08
3.1683e-09
2.79841e-08
2.9448e-09
2.68256e-08
2.69816e-09
2.56987e-08
2.44256e-09
2.46183e-08
2.18975e-09
2.3594e-08
1.94901e-09
2.26313e-08
1.72695e-09
2.17321e-08
1.5275e-09
2.0896e-08
1.35219e-09
2.01209e-08
1.20065e-09
1.94035e-08
1.07119e-09
1.874e-08
9.61365e-10
1.8126e-08
8.6841e-10
1.75574e-08
7.89597e-10
1.70301e-08
7.22431e-10
1.65401e-08
6.64757e-10
1.6084e-08
6.14787e-10
1.56583e-08
5.71079e-10
1.52602e-08
5.32492e-10
1.48871e-08
4.98138e-10
1.45365e-08
4.67326e-10
1.42066e-08
4.39518e-10
1.38953e-08
4.14289e-10
1.3601e-08
3.913e-10
1.33224e-08
3.70277e-10
1.30581e-08
3.50992e-10
1.28071e-08
3.33252e-10
1.25682e-08
3.16893e-10
1.23405e-08
3.01772e-10
1.21233e-08
2.87765e-10
1.19158e-08
2.74763e-10
1.17173e-08
2.62668e-10
1.15272e-08
2.51395e-10
1.1345e-08
2.40867e-10
1.11702e-08
2.31016e-10
1.10022e-08
2.21783e-10
1.08408e-08
2.13114e-10
1.06855e-08
2.04961e-10
1.05359e-08
1.9728e-10
1.03918e-08
1.90034e-10
1.02528e-08
1.83187e-10
1.01188e-08
1.76709e-10
9.98928e-09
1.70572e-10
9.86419e-09
1.6475e-10
9.74327e-09
1.5922e-10
9.62632e-09
1.53961e-10
9.51315e-09
1.48954e-10
9.40357e-09
1.44181e-10
9.29744e-09
1.39626e-10
9.1946e-09
1.35274e-10
9.09491e-09
1.31111e-10
8.99823e-09
1.27126e-10
8.90444e-09
1.23305e-10
8.81343e-09
1.19638e-10
8.72509e-09
1.16115e-10
8.63932e-09
1.12726e-10
8.55603e-09
1.09463e-10
8.47512e-09
1.06317e-10
8.39651e-09
1.03281e-10
8.32013e-09
1.00347e-10
8.24591e-09
9.75087e-11
8.17378e-09
9.47594e-11
8.10368e-09
9.20934e-11
8.03555e-09
8.9505e-11
7.96933e-09
8.69892e-11
7.90498e-09
8.45409e-11
7.84245e-09
8.21559e-11
7.78169e-09
7.98297e-11
7.72266e-09
7.75585e-11
7.66533e-09
7.53387e-11
7.60966e-09
7.31671e-11
7.55562e-09
7.10407e-11
7.50318e-09
6.89569e-11
7.4523e-09
6.69133e-11
7.40296e-09
6.49081e-11
7.35513e-09
6.29395e-11
7.30879e-09
6.10065e-11
7.26391e-09
5.91083e-11
7.22047e-09
5.72445e-11
7.17844e-09
5.54156e-11
7.13781e-09
5.36222e-11
7.09854e-09
5.18662e-11
7.0606e-09
5.01499e-11
7.02397e-09
4.84771e-11
6.98862e-09
4.68528e-11
6.9545e-09
4.52842e-11
6.92157e-09
4.37813e-11
6.88978e-09
4.23585e-11
6.85906e-09
4.10375e-11
6.8293e-09
3.98548e-11
6.80038e-09
3.88808e-11
6.77203e-09
3.82785e-11
6.7437e-09
3.84748e-11
6.71209e-09
4.24854e-11
7.31814e-11
3.59109e-08
3.03266e-09
-3.5761e-08
3.59723e-08
3.416e-09
3.59068e-08
3.59908e-09
3.57189e-08
3.6669e-09
3.54185e-08
3.65238e-09
3.50197e-08
3.5671e-09
3.45397e-08
3.42478e-09
3.39965e-08
3.24143e-09
3.34068e-08
3.03225e-09
3.27858e-08
2.81071e-09
3.21466e-08
2.58821e-09
3.14999e-08
2.37368e-09
3.08541e-08
2.17331e-09
3.02155e-08
1.99075e-09
2.95887e-08
1.82743e-09
2.89768e-08
1.68311e-09
2.83816e-08
1.5565e-09
2.78044e-08
1.44566e-09
2.72455e-08
1.34846e-09
2.67052e-08
1.26282e-09
2.61831e-08
1.18683e-09
2.5679e-08
1.11888e-09
2.51924e-08
1.05763e-09
2.47229e-08
1.00199e-09
2.427e-08
9.51107e-10
2.3833e-08
9.04309e-10
2.34114e-08
8.61064e-10
2.30048e-08
8.20949e-10
2.26125e-08
7.83623e-10
2.22339e-08
7.48806e-10
2.18687e-08
7.16264e-10
2.15161e-08
6.85793e-10
2.11758e-08
6.5722e-10
2.08472e-08
6.30388e-10
2.05298e-08
6.05159e-10
2.02231e-08
5.81407e-10
1.99268e-08
5.59019e-10
1.96403e-08
5.37892e-10
1.93632e-08
5.17932e-10
1.90952e-08
4.99054e-10
1.88358e-08
4.8118e-10
1.85847e-08
4.64238e-10
1.83415e-08
4.48163e-10
1.81058e-08
4.32895e-10
1.78775e-08
4.18379e-10
1.76561e-08
4.04565e-10
1.74414e-08
3.91405e-10
1.72331e-08
3.78857e-10
1.7031e-08
3.66882e-10
1.68348e-08
3.55443e-10
1.66442e-08
3.44505e-10
1.64592e-08
3.34038e-10
1.62793e-08
3.24012e-10
1.61045e-08
3.14399e-10
1.59346e-08
3.05175e-10
1.57694e-08
2.96315e-10
1.56088e-08
2.87797e-10
1.54525e-08
2.796e-10
1.53004e-08
2.71704e-10
1.51524e-08
2.64091e-10
1.50084e-08
2.56743e-10
1.48682e-08
2.49644e-10
1.47318e-08
2.42778e-10
1.45989e-08
2.36131e-10
1.44696e-08
2.29689e-10
1.43437e-08
2.23438e-10
1.4221e-08
2.17367e-10
1.41017e-08
2.11463e-10
1.39855e-08
2.05715e-10
1.38723e-08
2.00114e-10
1.37622e-08
1.94649e-10
1.36551e-08
1.89311e-10
1.35508e-08
1.84091e-10
1.34494e-08
1.78981e-10
1.33508e-08
1.73974e-10
1.32549e-08
1.69061e-10
1.31617e-08
1.64238e-10
1.30711e-08
1.59498e-10
1.29832e-08
1.54836e-10
1.28979e-08
1.50247e-10
1.28151e-08
1.45728e-10
1.27348e-08
1.41276e-10
1.2657e-08
1.36888e-10
1.25817e-08
1.32562e-10
1.25088e-08
1.283e-10
1.24383e-08
1.24102e-10
1.23702e-08
1.1997e-10
1.23045e-08
1.15909e-10
1.2241e-08
1.11926e-10
1.21799e-08
1.08029e-10
1.21209e-08
1.04232e-10
1.20641e-08
1.00554e-10
1.20095e-08
9.70217e-11
1.19568e-08
9.36755e-11
1.19061e-08
9.05835e-11
1.18571e-08
8.78783e-11
1.18095e-08
8.58693e-11
1.17625e-08
8.54858e-11
1.1713e-08
9.20045e-11
1.25839e-10
3.74685e-08
2.84242e-09
-3.72782e-08
3.76643e-08
3.2202e-09
3.782e-08
3.44339e-09
3.79223e-08
3.56457e-09
3.79639e-08
3.61074e-09
3.79403e-08
3.59077e-09
3.78512e-08
3.5138e-09
3.77006e-08
3.3921e-09
3.74943e-08
3.23852e-09
3.72399e-08
3.06513e-09
3.69454e-08
2.88271e-09
3.66188e-08
2.70024e-09
3.62676e-08
2.52453e-09
3.58982e-08
2.36014e-09
3.55161e-08
2.20959e-09
3.51254e-08
2.07372e-09
3.47298e-08
1.95219e-09
3.43315e-08
1.84389e-09
3.39326e-08
1.74735e-09
3.35345e-08
1.66097e-09
3.31381e-08
1.5832e-09
3.27443e-08
1.51267e-09
3.23537e-08
1.44821e-09
3.19669e-08
1.38886e-09
3.15841e-08
1.33384e-09
3.12059e-08
1.28254e-09
3.08325e-08
1.23448e-09
3.04642e-08
1.18927e-09
3.01012e-08
1.14661e-09
2.97437e-08
1.10626e-09
2.9392e-08
1.06801e-09
2.90461e-08
1.03168e-09
2.87062e-08
9.97146e-10
2.83723e-08
9.64262e-10
2.80445e-08
9.3292e-10
2.77229e-08
9.03017e-10
2.74075e-08
8.7446e-10
2.70982e-08
8.47167e-10
2.67951e-08
8.21059e-10
2.64981e-08
7.96067e-10
2.62071e-08
7.72124e-10
2.59222e-08
7.49171e-10
2.56432e-08
7.27151e-10
2.53701e-08
7.06015e-10
2.51027e-08
6.85712e-10
2.48411e-08
6.66198e-10
2.45851e-08
6.47432e-10
2.43346e-08
6.29374e-10
2.40895e-08
6.11986e-10
2.38497e-08
5.95235e-10
2.36151e-08
5.79086e-10
2.33856e-08
5.6351e-10
2.31612e-08
5.48476e-10
2.29416e-08
5.33957e-10
2.27268e-08
5.19926e-10
2.25168e-08
5.06356e-10
2.23114e-08
4.93225e-10
2.21105e-08
4.80508e-10
2.1914e-08
4.68185e-10
2.17218e-08
4.56232e-10
2.1534e-08
4.4463e-10
2.13502e-08
4.33359e-10
2.11706e-08
4.22401e-10
2.0995e-08
4.11737e-10
2.08234e-08
4.01351e-10
2.06556e-08
3.91224e-10
2.04916e-08
3.81342e-10
2.03314e-08
3.71689e-10
2.01748e-08
3.62251e-10
2.00219e-08
3.53012e-10
1.98726e-08
3.43961e-10
1.97268e-08
3.35083e-10
1.95846e-08
3.26366e-10
1.94458e-08
3.178e-10
1.93104e-08
3.09373e-10
1.91783e-08
3.01075e-10
1.90497e-08
2.92896e-10
1.89244e-08
2.84828e-10
1.88023e-08
2.76863e-10
1.86836e-08
2.68993e-10
1.85681e-08
2.61214e-10
1.84559e-08
2.5352e-10
1.83468e-08
2.45908e-10
1.8241e-08
2.38376e-10
1.81384e-08
2.30922e-10
1.80389e-08
2.23549e-10
1.79427e-08
2.1626e-10
1.78495e-08
2.09062e-10
1.77595e-08
2.01964e-10
1.76725e-08
1.94981e-10
1.75886e-08
1.88133e-10
1.75077e-08
1.81447e-10
1.74298e-08
1.74966e-10
1.73547e-08
1.68749e-10
1.72824e-08
1.62899e-10
1.72127e-08
1.57615e-10
1.71452e-08
1.53359e-10
1.70791e-08
1.51528e-10
1.70131e-08
1.58017e-10
1.87863e-10
3.89856e-08
2.67637e-09
-3.88196e-08
3.9184e-08
3.02183e-09
3.93778e-08
3.24957e-09
3.95535e-08
3.38882e-09
3.97032e-08
3.46113e-09
3.9819e-08
3.47497e-09
3.98955e-08
3.4373e-09
3.993e-08
3.35751e-09
3.99226e-08
3.24598e-09
3.98749e-08
3.11284e-09
3.97902e-08
2.96735e-09
3.96729e-08
2.81757e-09
3.95275e-08
2.6699e-09
3.93587e-08
2.52898e-09
3.91706e-08
2.3977e-09
3.89668e-08
2.27747e-09
3.87504e-08
2.16857e-09
3.85238e-08
2.07051e-09
3.82889e-08
1.98232e-09
3.8047e-08
1.90282e-09
3.77994e-08
1.83081e-09
3.75469e-08
1.76514e-09
3.72903e-08
1.70483e-09
3.70302e-08
1.64901e-09
3.6767e-08
1.59699e-09
3.65014e-08
1.54821e-09
3.62336e-08
1.50222e-09
3.59642e-08
1.45866e-09
3.56936e-08
1.41727e-09
3.5422e-08
1.3778e-09
3.515e-08
1.34008e-09
3.48777e-08
1.30396e-09
3.46055e-08
1.26931e-09
3.43338e-08
1.23602e-09
3.40627e-08
1.20399e-09
3.37926e-08
1.17315e-09
3.35236e-08
1.14341e-09
3.32561e-08
1.11472e-09
3.29901e-08
1.08701e-09
3.2726e-08
1.06022e-09
3.24638e-08
1.03432e-09
3.22037e-08
1.00925e-09
3.19459e-08
9.84978e-10
3.16904e-08
9.61457e-10
3.14375e-08
9.38654e-10
3.11871e-08
9.16536e-10
3.09395e-08
8.95074e-10
3.06946e-08
8.74236e-10
3.04526e-08
8.53997e-10
3.02135e-08
8.34329e-10
2.99774e-08
8.15208e-10
2.97443e-08
7.96611e-10
2.95143e-08
7.78514e-10
2.92873e-08
7.60896e-10
2.90635e-08
7.43735e-10
2.88429e-08
7.2701e-10
2.86254e-08
7.10703e-10
2.84111e-08
6.94793e-10
2.82e-08
6.79262e-10
2.79922e-08
6.64092e-10
2.77875e-08
6.49263e-10
2.75861e-08
6.34759e-10
2.7388e-08
6.20563e-10
2.7193e-08
6.06657e-10
2.70014e-08
5.93025e-10
2.68129e-08
5.79651e-10
2.66278e-08
5.6652e-10
2.64458e-08
5.53615e-10
2.62672e-08
5.40922e-10
2.60918e-08
5.28426e-10
2.59196e-08
5.16114e-10
2.57507e-08
5.0397e-10
2.55851e-08
4.91983e-10
2.54228e-08
4.8014e-10
2.52637e-08
4.68427e-10
2.51079e-08
4.56835e-10
2.49555e-08
4.45352e-10
2.48064e-08
4.33968e-10
2.46605e-08
4.22675e-10
2.45181e-08
4.11464e-10
2.4379e-08
4.00329e-10
2.42432e-08
3.89264e-10
2.41109e-08
3.78266e-10
2.39819e-08
3.67332e-10
2.38564e-08
3.56463e-10
2.37342e-08
3.45662e-10
2.36156e-08
3.34933e-10
2.35003e-08
3.24287e-10
2.33886e-08
3.13736e-10
2.32803e-08
3.03302e-10
2.31754e-08
2.93012e-10
2.30739e-08
2.82904e-10
2.29758e-08
2.73033e-10
2.28811e-08
2.63482e-10
2.27896e-08
2.54385e-10
2.27012e-08
2.45998e-10
2.26157e-08
2.389e-10
2.25325e-08
2.34701e-10
2.2452e-08
2.38576e-10
2.59134e-10
4.05412e-08
2.53712e-09
-4.04019e-08
4.07182e-08
2.84482e-09
4.09038e-08
3.06391e-09
4.10851e-08
3.2075e-09
4.12552e-08
3.29108e-09
4.14075e-08
3.32266e-09
4.15366e-08
3.30822e-09
4.16388e-08
3.25532e-09
4.17122e-08
3.17256e-09
4.17565e-08
3.06848e-09
4.17729e-08
2.95103e-09
4.17632e-08
2.82723e-09
4.17302e-08
2.70286e-09
4.16769e-08
2.58229e-09
4.16062e-08
2.46844e-09
4.15207e-08
2.36299e-09
4.14227e-08
2.26658e-09
4.1314e-08
2.17913e-09
4.11963e-08
2.10005e-09
4.10706e-08
2.02851e-09
4.09378e-08
1.96358e-09
4.07987e-08
1.90432e-09
4.06536e-08
1.84987e-09
4.05031e-08
1.7995e-09
4.03475e-08
1.75257e-09
4.01872e-08
1.70856e-09
4.00224e-08
1.66705e-09
3.98533e-08
1.6277e-09
3.96803e-08
1.59024e-09
3.95037e-08
1.55444e-09
3.93237e-08
1.52013e-09
3.91404e-08
1.48716e-09
3.89543e-08
1.45541e-09
3.87656e-08
1.42477e-09
3.85744e-08
1.39516e-09
3.83811e-08
1.36649e-09
3.81858e-08
1.33871e-09
3.79887e-08
1.31174e-09
3.77902e-08
1.28555e-09
3.75903e-08
1.26008e-09
3.73894e-08
1.23528e-09
3.71875e-08
1.21113e-09
3.69849e-08
1.18759e-09
3.67817e-08
1.16463e-09
3.65782e-08
1.14221e-09
3.63744e-08
1.12032e-09
3.61705e-08
1.09892e-09
3.59668e-08
1.07801e-09
3.57632e-08
1.05755e-09
3.556e-08
1.03752e-09
3.53573e-08
1.01791e-09
3.51552e-08
9.98707e-10
3.49539e-08
9.79883e-10
3.47533e-08
9.61425e-10
3.45537e-08
9.43317e-10
3.43552e-08
9.25543e-10
3.41578e-08
9.08089e-10
3.39617e-08
8.9094e-10
3.37669e-08
8.74079e-10
3.35735e-08
8.57494e-10
3.33815e-08
8.41169e-10
3.31912e-08
8.25089e-10
3.30025e-08
8.09241e-10
3.28156e-08
7.9361e-10
3.26304e-08
7.78182e-10
3.24471e-08
7.62943e-10
3.22658e-08
7.47879e-10
3.20864e-08
7.32977e-10
3.19091e-08
7.18222e-10
3.17339e-08
7.03601e-10
3.1561e-08
6.89101e-10
3.13902e-08
6.74708e-10
3.12218e-08
6.60412e-10
3.10557e-08
6.46198e-10
3.08921e-08
6.32055e-10
3.0731e-08
6.17973e-10
3.05724e-08
6.0394e-10
3.04164e-08
5.89947e-10
3.02631e-08
5.75985e-10
3.01125e-08
5.62047e-10
2.99647e-08
5.48125e-10
2.98198e-08
5.34216e-10
2.96777e-08
5.20317e-10
2.95386e-08
5.06425e-10
2.94025e-08
4.92544e-10
2.92695e-08
4.78678e-10
2.91396e-08
4.64835e-10
2.90129e-08
4.51029e-10
2.88893e-08
4.37278e-10
2.8769e-08
4.23609e-10
2.8652e-08
4.10057e-10
2.85382e-08
3.9667e-10
2.84277e-08
3.83519e-10
2.83205e-08
3.70704e-10
2.82165e-08
3.58388e-10
2.81156e-08
3.46866e-10
2.80178e-08
3.3676e-10
2.79229e-08
3.29576e-10
2.78325e-08
3.28976e-10
3.37175e-10
4.21481e-08
2.41859e-09
-4.20296e-08
4.2303e-08
2.68995e-09
4.24718e-08
2.89506e-09
4.26421e-08
3.03722e-09
4.28071e-08
3.1261e-09
4.29613e-08
3.16844e-09
4.31001e-08
3.1695e-09
4.32199e-08
3.13547e-09
4.33189e-08
3.07354e-09
4.33964e-08
2.99103e-09
4.34526e-08
2.8948e-09
4.34888e-08
2.79103e-09
4.35068e-08
2.68489e-09
4.35086e-08
2.58044e-09
4.34965e-08
2.48053e-09
4.34726e-08
2.38696e-09
4.34385e-08
2.30063e-09
4.33959e-08
2.22173e-09
4.3346e-08
2.15001e-09
4.32896e-08
2.0849e-09
4.32274e-08
2.0257e-09
4.31601e-08
1.97168e-09
4.30878e-08
1.92212e-09
4.3011e-08
1.87636e-09
4.29297e-08
1.83385e-09
4.28441e-08
1.79411e-09
4.27545e-08
1.75674e-09
4.26607e-08
1.72142e-09
4.25631e-08
1.68787e-09
4.24617e-08
1.65587e-09
4.23566e-08
1.62525e-09
4.22479e-08
1.59585e-09
4.21357e-08
1.56756e-09
4.20203e-08
1.54025e-09
4.19016e-08
1.51384e-09
4.17798e-08
1.48826e-09
4.16551e-08
1.46343e-09
4.15276e-08
1.43929e-09
4.13973e-08
1.41579e-09
4.12645e-08
1.39288e-09
4.11293e-08
1.37052e-09
4.09917e-08
1.34867e-09
4.0852e-08
1.32731e-09
4.07103e-08
1.30639e-09
4.05666e-08
1.2859e-09
4.04211e-08
1.2658e-09
4.02739e-08
1.24607e-09
4.01252e-08
1.2267e-09
3.99751e-08
1.20767e-09
3.98237e-08
1.18895e-09
3.96711e-08
1.17052e-09
3.95174e-08
1.15238e-09
3.93628e-08
1.13451e-09
3.92073e-08
1.11689e-09
3.90511e-08
1.09951e-09
3.88943e-08
1.08236e-09
3.8737e-08
1.06541e-09
3.85793e-08
1.04866e-09
3.84212e-08
1.0321e-09
3.8263e-08
1.01571e-09
3.81047e-08
9.99474e-10
3.79464e-08
9.83384e-10
3.77882e-08
9.67426e-10
3.76303e-08
9.51587e-10
3.74726e-08
9.35854e-10
3.73153e-08
9.20213e-10
3.71585e-08
9.04651e-10
3.70024e-08
8.89156e-10
3.68469e-08
8.73714e-10
3.66922e-08
8.58312e-10
3.65383e-08
8.42937e-10
3.63855e-08
8.27578e-10
3.62336e-08
8.1222e-10
3.6083e-08
7.96854e-10
3.59336e-08
7.81466e-10
3.57855e-08
7.66045e-10
3.56389e-08
7.50582e-10
3.54937e-08
7.35067e-10
3.53502e-08
7.19492e-10
3.52084e-08
7.03848e-10
3.50684e-08
6.8813e-10
3.49303e-08
6.72334e-10
3.47942e-08
6.56459e-10
3.46601e-08
6.40503e-10
3.45282e-08
6.24472e-10
3.43985e-08
6.08371e-10
3.42711e-08
5.92213e-10
3.41461e-08
5.76013e-10
3.40236e-08
5.59797e-10
3.39036e-08
5.43596e-10
3.37862e-08
5.27453e-10
3.36715e-08
5.11427e-10
3.35594e-08
4.95599e-10
3.345e-08
4.80087e-10
3.33433e-08
4.6507e-10
3.32393e-08
4.50855e-10
3.31381e-08
4.38025e-10
3.30399e-08
4.27742e-10
3.2947e-08
4.21873e-10
4.1732e-10
4.38094e-08
2.31553e-09
-4.37064e-08
4.39452e-08
2.55422e-09
4.40969e-08
2.7433e-09
4.42533e-08
2.88086e-09
4.44075e-08
2.97193e-09
4.45543e-08
3.02156e-09
4.46897e-08
3.03416e-09
4.48103e-08
3.0148e-09
4.49144e-08
2.96945e-09
4.50012e-08
2.9043e-09
4.50706e-08
2.82532e-09
4.51237e-08
2.73793e-09
4.51619e-08
2.64676e-09
4.51868e-08
2.55555e-09
4.52002e-08
2.46707e-09
4.5204e-08
2.38317e-09
4.51997e-08
2.30491e-09
4.51887e-08
2.23273e-09
4.51721e-08
2.16664e-09
4.51507e-08
2.1063e-09
4.51252e-08
2.05125e-09
4.50959e-08
2.0009e-09
4.50633e-08
1.9547e-09
4.50276e-08
1.91209e-09
4.49889e-08
1.87258e-09
4.49472e-08
1.83576e-09
4.49027e-08
1.80125e-09
4.48554e-08
1.76874e-09
4.48053e-08
1.73799e-09
4.47524e-08
1.70877e-09
4.46967e-08
1.6809e-09
4.46384e-08
1.65424e-09
4.45773e-08
1.62865e-09
4.45135e-08
1.60403e-09
4.44471e-08
1.58028e-09
4.4378e-08
1.55731e-09
4.43064e-08
1.53507e-09
4.42322e-08
1.51348e-09
4.41555e-08
1.49248e-09
4.40763e-08
1.47204e-09
4.39947e-08
1.45209e-09
4.39108e-08
1.43261e-09
4.38245e-08
1.41355e-09
4.3736e-08
1.39489e-09
4.36454e-08
1.37659e-09
4.35525e-08
1.35863e-09
4.34576e-08
1.34099e-09
4.33607e-08
1.32363e-09
4.32618e-08
1.30653e-09
4.31611e-08
1.28969e-09
4.30585e-08
1.27308e-09
4.29542e-08
1.25668e-09
4.28483e-08
1.24048e-09
4.27407e-08
1.22445e-09
4.26316e-08
1.20859e-09
4.25211e-08
1.19288e-09
4.24092e-08
1.17731e-09
4.2296e-08
1.16185e-09
4.21816e-08
1.1465e-09
4.20661e-08
1.13124e-09
4.19495e-08
1.11606e-09
4.18319e-08
1.10094e-09
4.17135e-08
1.08587e-09
4.15942e-08
1.07084e-09
4.14743e-08
1.05583e-09
4.13536e-08
1.04083e-09
4.12325e-08
1.02581e-09
4.11109e-08
1.01078e-09
4.09889e-08
9.95716e-10
4.08666e-08
9.806e-10
4.07441e-08
9.65421e-10
4.06215e-08
9.50166e-10
4.04989e-08
9.34821e-10
4.03764e-08
9.19373e-10
4.0254e-08
9.03809e-10
4.0132e-08
8.88117e-10
4.00103e-08
8.72287e-10
3.9889e-08
8.56307e-10
3.97683e-08
8.40169e-10
3.96483e-08
8.23865e-10
3.95291e-08
8.07388e-10
3.94107e-08
7.90735e-10
3.92932e-08
7.73903e-10
3.91768e-08
7.56893e-10
3.90616e-08
7.3971e-10
3.89476e-08
7.22363e-10
3.88349e-08
7.04864e-10
3.87237e-08
6.87235e-10
3.8614e-08
6.69501e-10
3.85059e-08
6.51701e-10
3.83995e-08
6.33885e-10
3.82948e-08
6.16118e-10
3.81919e-08
5.98491e-10
3.80909e-08
5.8113e-10
3.79917e-08
5.64223e-10
3.78945e-08
5.48061e-10
3.77994e-08
5.3312e-10
3.7707e-08
5.20101e-10
3.76197e-08
5.09253e-10
4.94034e-10
4.5527e-08
2.22429e-09
-4.54357e-08
4.56467e-08
2.43446e-09
4.57829e-08
2.60715e-09
4.59255e-08
2.73818e-09
4.60681e-08
2.82934e-09
4.62057e-08
2.88396e-09
4.63344e-08
2.90552e-09
4.6451e-08
2.89815e-09
4.65538e-08
2.86668e-09
4.66418e-08
2.81633e-09
4.67149e-08
2.7522e-09
4.67738e-08
2.67904e-09
4.68196e-08
2.60097e-09
4.68537e-08
2.5214e-09
4.68778e-08
2.44298e-09
4.68934e-08
2.36756e-09
4.6902e-08
2.29633e-09
4.69048e-08
2.22991e-09
4.6903e-08
2.16849e-09
4.68973e-08
2.11199e-09
4.68884e-08
2.06011e-09
4.68769e-08
2.01244e-09
4.6863e-08
1.96856e-09
4.68471e-08
1.92802e-09
4.68293e-08
1.89042e-09
4.68096e-08
1.85539e-09
4.67883e-08
1.82261e-09
4.67652e-08
1.7918e-09
4.67405e-08
1.76271e-09
4.67141e-08
1.73516e-09
4.6686e-08
1.70896e-09
4.66563e-08
1.68397e-09
4.66249e-08
1.66006e-09
4.65918e-08
1.63713e-09
4.6557e-08
1.61508e-09
4.65205e-08
1.59383e-09
4.64822e-08
1.57331e-09
4.64423e-08
1.55345e-09
4.64005e-08
1.5342e-09
4.63571e-08
1.51549e-09
4.63119e-08
1.4973e-09
4.62649e-08
1.47956e-09
4.62162e-08
1.46226e-09
4.61658e-08
1.44534e-09
4.61136e-08
1.42878e-09
4.60597e-08
1.41256e-09
4.6004e-08
1.39663e-09
4.59467e-08
1.38098e-09
4.58876e-08
1.36559e-09
4.58269e-08
1.35043e-09
4.57645e-08
1.33548e-09
4.57004e-08
1.32072e-09
4.56348e-08
1.30613e-09
4.55675e-08
1.29169e-09
4.54987e-08
1.27739e-09
4.54284e-08
1.26321e-09
4.53566e-08
1.24913e-09
4.52833e-08
1.23514e-09
4.52086e-08
1.22121e-09
4.51325e-08
1.20733e-09
4.50551e-08
1.19349e-09
4.49764e-08
1.17967e-09
4.48964e-08
1.16585e-09
4.48152e-08
1.15202e-09
4.47329e-08
1.13815e-09
4.46495e-08
1.12424e-09
4.4565e-08
1.11027e-09
4.44796e-08
1.09622e-09
4.43932e-08
1.08207e-09
4.4306e-08
1.06782e-09
4.4218e-08
1.05343e-09
4.41292e-08
1.0389e-09
4.40399e-08
1.02422e-09
4.39499e-08
1.00936e-09
4.38594e-08
9.94306e-10
4.37684e-08
9.79055e-10
4.36771e-08
9.63587e-10
4.35856e-08
9.47891e-10
4.34938e-08
9.31957e-10
4.34019e-08
9.15774e-10
4.33099e-08
8.99336e-10
4.3218e-08
8.82637e-10
4.31262e-08
8.65674e-10
4.30347e-08
8.48447e-10
4.29434e-08
8.30963e-10
4.28526e-08
8.13228e-10
4.27622e-08
7.95258e-10
4.26723e-08
7.77075e-10
4.25831e-08
7.58708e-10
4.24946e-08
7.40198e-10
4.24069e-08
7.21599e-10
4.232e-08
7.02982e-10
4.22341e-08
6.84444e-10
4.21491e-08
6.66114e-10
4.20652e-08
6.48174e-10
4.19823e-08
6.30881e-10
4.19009e-08
6.14569e-10
4.18215e-08
5.99499e-10
4.1746e-08
5.84765e-10
5.62506e-10
4.73029e-08
2.14235e-09
-4.72209e-08
4.74094e-08
2.32797e-09
4.75316e-08
2.48488e-09
4.76615e-08
2.60829e-09
4.77929e-08
2.69797e-09
4.7921e-08
2.75579e-09
4.80423e-08
2.78431e-09
4.81536e-08
2.78679e-09
4.82532e-08
2.76713e-09
4.83399e-08
2.72962e-09
4.84135e-08
2.6786e-09
4.84744e-08
2.61816e-09
4.85234e-08
2.55194e-09
4.85617e-08
2.48305e-09
4.85908e-08
2.41394e-09
4.86119e-08
2.34643e-09
4.86264e-08
2.28179e-09
4.86356e-08
2.22077e-09
4.86404e-08
2.16372e-09
4.86416e-08
2.11073e-09
4.86401e-08
2.06167e-09
4.86362e-08
2.01629e-09
4.86305e-08
1.97429e-09
4.86232e-08
1.93533e-09
4.86145e-08
1.89908e-09
4.86047e-08
1.86525e-09
4.85937e-08
1.83355e-09
4.85818e-08
1.80375e-09
4.85688e-08
1.77562e-09
4.8555e-08
1.74899e-09
4.85403e-08
1.7237e-09
4.85246e-08
1.69961e-09
4.85081e-08
1.67661e-09
4.84906e-08
1.65458e-09
4.84723e-08
1.63344e-09
4.8453e-08
1.61312e-09
4.84328e-08
1.59353e-09
4.84116e-08
1.57462e-09
4.83894e-08
1.55634e-09
4.83663e-08
1.53862e-09
4.83422e-08
1.52143e-09
4.8317e-08
1.50472e-09
4.82908e-08
1.48845e-09
4.82636e-08
1.47259e-09
4.82353e-08
1.45711e-09
4.82059e-08
1.44198e-09
4.81753e-08
1.42716e-09
4.81437e-08
1.41263e-09
4.81109e-08
1.39837e-09
4.8077e-08
1.38436e-09
4.80419e-08
1.37056e-09
4.80056e-08
1.35697e-09
4.79682e-08
1.34355e-09
4.79296e-08
1.33029e-09
4.78898e-08
1.31717e-09
4.78489e-08
1.30417e-09
4.78067e-08
1.29127e-09
4.77634e-08
1.27846e-09
4.77189e-08
1.2657e-09
4.76732e-08
1.25299e-09
4.76264e-08
1.24031e-09
4.75785e-08
1.22763e-09
4.75294e-08
1.21494e-09
4.74791e-08
1.20223e-09
4.74278e-08
1.18946e-09
4.73754e-08
1.17663e-09
4.7322e-08
1.16371e-09
4.72675e-08
1.15069e-09
4.72121e-08
1.13755e-09
4.71556e-08
1.12426e-09
4.70982e-08
1.11081e-09
4.704e-08
1.09719e-09
4.69808e-08
1.08337e-09
4.69208e-08
1.06933e-09
4.68601e-08
1.05507e-09
4.67986e-08
1.04055e-09
4.67364e-08
1.02578e-09
4.66735e-08
1.01073e-09
4.66101e-08
9.95383e-10
4.65461e-08
9.79738e-10
4.64817e-08
9.63783e-10
4.64168e-08
9.4751e-10
4.63516e-08
9.30915e-10
4.6286e-08
9.13998e-10
4.62202e-08
8.96762e-10
4.61542e-08
8.79216e-10
4.60881e-08
8.61375e-10
4.60219e-08
8.43261e-10
4.59557e-08
8.24905e-10
4.58896e-08
8.0635e-10
4.58235e-08
7.87651e-10
4.57576e-08
7.68883e-10
4.56919e-08
7.50143e-10
4.56265e-08
7.31561e-10
4.55614e-08
7.13304e-10
4.54967e-08
6.95582e-10
4.54326e-08
6.78596e-10
4.53699e-08
6.6227e-10
4.53095e-08
6.45117e-10
6.19757e-10
4.91396e-08
2.06797e-09
-4.90652e-08
4.9235e-08
2.23255e-09
4.9345e-08
2.37483e-09
4.94632e-08
2.49016e-09
4.95839e-08
2.57724e-09
4.97029e-08
2.63679e-09
4.98166e-08
2.67059e-09
4.99223e-08
2.68111e-09
5.0018e-08
2.67144e-09
5.01025e-08
2.64508e-09
5.01755e-08
2.60565e-09
5.0237e-08
2.55666e-09
5.02876e-08
2.50128e-09
5.03284e-08
2.44229e-09
5.03604e-08
2.38196e-09
5.03848e-08
2.32204e-09
5.04027e-08
2.2638e-09
5.04154e-08
2.20808e-09
5.04238e-08
2.15537e-09
5.04286e-08
2.10588e-09
5.04307e-08
2.05963e-09
5.04305e-08
2.01651e-09
5.04284e-08
1.97632e-09
5.04249e-08
1.93883e-09
5.04202e-08
1.90379e-09
5.04145e-08
1.87095e-09
5.0408e-08
1.8401e-09
5.04007e-08
1.81103e-09
5.03928e-08
1.78355e-09
5.03843e-08
1.75749e-09
5.03752e-08
1.73273e-09
5.03657e-08
1.70913e-09
5.03557e-08
1.68659e-09
5.03453e-08
1.66502e-09
5.03344e-08
1.64432e-09
5.03231e-08
1.62443e-09
5.03113e-08
1.60527e-09
5.02992e-08
1.5868e-09
5.02865e-08
1.56895e-09
5.02735e-08
1.55169e-09
5.026e-08
1.53495e-09
5.0246e-08
1.51872e-09
5.02315e-08
1.50294e-09
5.02165e-08
1.48759e-09
5.0201e-08
1.47262e-09
5.01849e-08
1.45803e-09
5.01683e-08
1.44377e-09
5.01511e-08
1.42981e-09
5.01333e-08
1.41615e-09
5.01149e-08
1.40275e-09
5.00959e-08
1.38958e-09
5.00763e-08
1.37663e-09
5.00559e-08
1.36388e-09
5.00349e-08
1.35131e-09
5.00132e-08
1.33889e-09
4.99908e-08
1.3266e-09
4.99676e-08
1.31443e-09
4.99437e-08
1.30235e-09
4.99191e-08
1.29035e-09
4.98937e-08
1.27841e-09
4.98675e-08
1.2665e-09
4.98405e-08
1.25461e-09
4.98127e-08
1.24271e-09
4.97842e-08
1.23079e-09
4.97548e-08
1.21882e-09
4.97246e-08
1.20679e-09
4.96937e-08
1.19468e-09
4.96619e-08
1.18246e-09
4.96293e-08
1.17011e-09
4.9596e-08
1.15762e-09
4.95618e-08
1.14496e-09
4.95269e-08
1.13211e-09
4.94912e-08
1.11906e-09
4.94548e-08
1.10577e-09
4.94176e-08
1.09225e-09
4.93797e-08
1.07846e-09
4.93411e-08
1.06438e-09
4.93018e-08
1.05001e-09
4.92619e-08
1.03533e-09
4.92213e-08
1.02033e-09
4.91801e-08
1.00498e-09
4.91383e-08
9.89292e-10
4.90959e-08
9.73253e-10
4.90531e-08
9.56862e-10
4.90097e-08
9.40121e-10
4.89659e-08
9.2304e-10
4.89216e-08
9.05632e-10
4.8877e-08
8.8792e-10
4.8832e-08
8.69936e-10
4.87866e-08
8.51722e-10
4.87409e-08
8.33336e-10
4.86949e-08
8.14852e-10
4.86487e-08
7.96368e-10
4.86023e-08
7.78006e-10
4.85556e-08
7.59918e-10
4.8509e-08
7.42267e-10
4.84624e-08
7.25148e-10
4.84164e-08
7.08301e-10
4.83713e-08
6.90158e-10
6.64951e-10
5.10397e-08
1.99992e-09
-5.09716e-08
5.11257e-08
2.1465e-09
5.12251e-08
2.27549e-09
5.13325e-08
2.38274e-09
5.14433e-08
2.46645e-09
5.15535e-08
2.52659e-09
5.16598e-08
2.56424e-09
5.17597e-08
2.58122e-09
5.18512e-08
2.57993e-09
5.19331e-08
2.56319e-09
5.20048e-08
2.53397e-09
5.20662e-08
2.49524e-09
5.21177e-08
2.44975e-09
5.21601e-08
2.39994e-09
5.21941e-08
2.34789e-09
5.22209e-08
2.29525e-09
5.22415e-08
2.24326e-09
5.22567e-08
2.19282e-09
5.22676e-08
2.14449e-09
5.22749e-08
2.0986e-09
5.22793e-08
2.05528e-09
5.22813e-08
2.01452e-09
5.22813e-08
1.97624e-09
5.22799e-08
1.94029e-09
5.22772e-08
1.90649e-09
5.22735e-08
1.87467e-09
5.22689e-08
1.84465e-09
5.22637e-08
1.81626e-09
5.22579e-08
1.78935e-09
5.22516e-08
1.76377e-09
5.22449e-08
1.73941e-09
5.22379e-08
1.71615e-09
5.22306e-08
1.69391e-09
5.2223e-08
1.67259e-09
5.22152e-08
1.65212e-09
5.22072e-08
1.63243e-09
5.2199e-08
1.61346e-09
5.21907e-08
1.59516e-09
5.21822e-08
1.57747e-09
5.21735e-08
1.56036e-09
5.21647e-08
1.54379e-09
5.21557e-08
1.52771e-09
5.21465e-08
1.51209e-09
5.21372e-08
1.4969e-09
5.21277e-08
1.48211e-09
5.21181e-08
1.46769e-09
5.21082e-08
1.45362e-09
5.20981e-08
1.43987e-09
5.20879e-08
1.42642e-09
5.20774e-08
1.41325e-09
5.20666e-08
1.40033e-09
5.20556e-08
1.38764e-09
5.20443e-08
1.37516e-09
5.20328e-08
1.36288e-09
5.20209e-08
1.35076e-09
5.20087e-08
1.3388e-09
5.19961e-08
1.32697e-09
5.19833e-08
1.31524e-09
5.197e-08
1.30361e-09
5.19564e-08
1.29205e-09
5.19423e-08
1.28055e-09
5.19278e-08
1.26907e-09
5.1913e-08
1.2576e-09
5.18976e-08
1.24612e-09
5.18818e-08
1.23461e-09
5.18656e-08
1.22305e-09
5.18488e-08
1.21142e-09
5.18316e-08
1.19969e-09
5.18139e-08
1.18784e-09
5.17956e-08
1.17586e-09
5.17769e-08
1.16372e-09
5.17576e-08
1.15139e-09
5.17378e-08
1.13887e-09
5.17174e-08
1.12612e-09
5.16965e-08
1.11313e-09
5.16751e-08
1.09988e-09
5.16531e-08
1.08635e-09
5.16306e-08
1.07253e-09
5.16076e-08
1.05839e-09
5.1584e-08
1.04392e-09
5.15598e-08
1.02911e-09
5.15352e-08
1.01396e-09
5.151e-08
9.98449e-10
5.14843e-08
9.82583e-10
5.1458e-08
9.66362e-10
5.14313e-08
9.49794e-10
5.1404e-08
9.32895e-10
5.13762e-08
9.15686e-10
5.1348e-08
8.98199e-10
5.13192e-08
8.80478e-10
5.129e-08
8.62581e-10
5.12603e-08
8.44581e-10
5.123e-08
8.26573e-10
5.11994e-08
8.08673e-10
5.11683e-08
7.91015e-10
5.11368e-08
7.73725e-10
5.11051e-08
7.56836e-10
5.10734e-08
7.40036e-10
5.10415e-08
7.2202e-10
6.99034e-10
5.30059e-08
1.93732e-09
-5.29433e-08
5.30839e-08
2.06847e-09
5.31738e-08
2.18555e-09
5.32716e-08
2.28502e-09
5.33731e-08
2.36492e-09
5.34749e-08
2.42476e-09
5.35741e-08
2.46508e-09
5.36682e-08
2.48716e-09
5.37553e-08
2.49282e-09
5.38342e-08
2.48429e-09
5.39042e-08
2.46399e-09
5.3965e-08
2.4344e-09
5.40169e-08
2.39786e-09
5.40603e-08
2.35653e-09
5.40959e-08
2.31225e-09
5.41246e-08
2.26655e-09
5.41473e-08
2.22064e-09
5.41647e-08
2.17541e-09
5.41777e-08
2.1315e-09
5.4187e-08
2.08929e-09
5.41932e-08
2.04902e-09
5.4197e-08
2.01077e-09
5.41987e-08
1.97454e-09
5.41987e-08