/*--------------------------------*- C++ -*----------------------------------*\
| =========                 |                                                 |
| \\      /  F ield         | OpenFOAM: The Open Source CFD Toolbox           |
|  \\    /   O peration     | Version:  2.3.0                                 |
|   \\  /    A nd           | Web:      www.OpenFOAM.org                      |
|    \\/     M anipulation  |                                                 |
\*---------------------------------------------------------------------------*/
FoamFile
{
    version     2.0;
    format      ascii;
    class       volVectorField;
    location    "0.6";
    object      U_0;
}
// * * * * * * * * * * * * * * * * * * * * * * * * * * * * * * * * * * * * * //

dimensions      [0 1 -1 0 0 0 0];

internalField   nonuniform List<vector> 
3375
(
(0.170607 0.00600279 0)
(0.154074 0.0060618 0)
(0.138185 0.00563566 0)
(0.123133 0.00503021 0)
(0.109329 0.00436218 0)
(0.0969413 0.00368516 0)
(0.0859819 0.00303623 0)
(0.0764171 0.00244113 0)
(0.0681899 0.00191552 0)
(0.0612133 0.00146734 0)
(0.0553709 0.00109823 0)
(0.050527 0.000804526 0)
(0.0465379 0.00057856 0)
(0.043262 0.0004103 0)
(0.0405675 0.000288942 0)
(0.0383372 0.000204128 0)
(0.0364718 0.000146705 0)
(0.0348895 0.000109059 0)
(0.0335258 8.51581e-05 0)
(0.0323311 7.0426e-05 0)
(0.0312678 6.15362e-05 0)
(0.0303084 5.6174e-05 0)
(0.0294328 5.28046e-05 0)
(0.0286264 5.04646e-05 0)
(0.0278784 4.85877e-05 0)
(0.0271809 4.68688e-05 0)
(0.0265278 4.51649e-05 0)
(0.0259144 4.34263e-05 0)
(0.0253369 4.16517e-05 0)
(0.024792 3.98612e-05 0)
(0.0242769 3.8081e-05 0)
(0.0237892 3.63351e-05 0)
(0.0233266 3.46427e-05 0)
(0.0228873 3.30173e-05 0)
(0.0224694 3.14669e-05 0)
(0.0220714 2.99955e-05 0)
(0.0216918 2.86038e-05 0)
(0.0213293 2.72905e-05 0)
(0.0209827 2.60528e-05 0)
(0.020651 2.48869e-05 0)
(0.0203331 2.37889e-05 0)
(0.0200282 2.27545e-05 0)
(0.0197355 2.17796e-05 0)
(0.0194542 2.08602e-05 0)
(0.0191836 1.99924e-05 0)
(0.0189231 1.91726e-05 0)
(0.0186722 1.83976e-05 0)
(0.0184303 1.76643e-05 0)
(0.0181969 1.69698e-05 0)
(0.0179717 1.63114e-05 0)
(0.0177541 1.56868e-05 0)
(0.0175437 1.50938e-05 0)
(0.0173403 1.45301e-05 0)
(0.0171436 1.39939e-05 0)
(0.0169531 1.34834e-05 0)
(0.0167686 1.29969e-05 0)
(0.0165898 1.2533e-05 0)
(0.0164165 1.20901e-05 0)
(0.0162485 1.16671e-05 0)
(0.0160855 1.12625e-05 0)
(0.0159274 1.08754e-05 0)
(0.0157739 1.05045e-05 0)
(0.0156249 1.01491e-05 0)
(0.0154802 9.80809e-06 0)
(0.0153396 9.48068e-06 0)
(0.0152031 9.16608e-06 0)
(0.0150705 8.86356e-06 0)
(0.0149416 8.57245e-06 0)
(0.0148163 8.29215e-06 0)
(0.0146945 8.02207e-06 0)
(0.0145762 7.76173e-06 0)
(0.0144612 7.51061e-06 0)
(0.0143495 7.26832e-06 0)
(0.0142409 7.03445e-06 0)
(0.0141354 6.80869e-06 0)
(0.0140328 6.59071e-06 0)
(0.0139332 6.38026e-06 0)
(0.0138365 6.17714e-06 0)
(0.0137426 5.98118e-06 0)
(0.0136513 5.79227e-06 0)
(0.0135628 5.61031e-06 0)
(0.0134769 5.43529e-06 0)
(0.0133935 5.26726e-06 0)
(0.0133126 5.10628e-06 0)
(0.0132342 4.95253e-06 0)
(0.0131581 4.80623e-06 0)
(0.0130844 4.66769e-06 0)
(0.0130128 4.53735e-06 0)
(0.0129435 4.41578e-06 0)
(0.0128762 4.30374e-06 0)
(0.0128109 4.20234e-06 0)
(0.0127475 4.11312e-06 0)
(0.0126859 4.0384e-06 0)
(0.0126258 3.98179e-06 0)
(0.0125671 3.94935e-06 0)
(0.0125094 3.95277e-06 0)
(0.0124524 4.02148e-06 0)
(0.0123946 4.19829e-06 0)
(0.0123422 4.15616e-06 0)
(0.0121987 2.04577e-05 0)
(0.18951 0.0094636 0)
(0.187171 0.00996738 0)
(0.18323 0.0097445 0)
(0.178045 0.00924727 0)
(0.172114 0.00861262 0)
(0.165783 0.00788725 0)
(0.159275 0.00710978 0)
(0.152758 0.00631577 0)
(0.146365 0.00553511 0)
(0.140197 0.00479238 0)
(0.134322 0.00410677 0)
(0.128779 0.0034915 0)
(0.123589 0.0029535 0)
(0.118753 0.00249389 0)
(0.114265 0.00210908 0)
(0.110108 0.00179218 0)
(0.106263 0.00153437 0)
(0.102707 0.0013262 0)
(0.0994156 0.00115852 0)
(0.0963656 0.00102311 0)
(0.0935347 0.000912948 0)
(0.0909019 0.00082233 0)
(0.088448 0.000746765 0)
(0.0861556 0.000682819 0)
(0.0840093 0.000627913 0)
(0.0819951 0.000580139 0)
(0.0801009 0.00053809 0)
(0.0783157 0.000500726 0)
(0.0766299 0.000467267 0)
(0.075035 0.000437122 0)
(0.0735234 0.000409828 0)
(0.0720884 0.000385015 0)
(0.0707239 0.000362379 0)
(0.0694246 0.000341667 0)
(0.0681856 0.000322663 0)
(0.0670027 0.00030518 0)
(0.0658718 0.000289058 0)
(0.0647894 0.000274154 0)
(0.0637524 0.000260345 0)
(0.0627577 0.000247524 0)
(0.0618029 0.000235593 0)
(0.0608853 0.00022447 0)
(0.0600029 0.00021408 0)
(0.0591535 0.000204358 0)
(0.0583354 0.000195245 0)
(0.0575467 0.000186688 0)
(0.0567859 0.000178643 0)
(0.0560516 0.000171068 0)
(0.0553424 0.000163925 0)
(0.054657 0.000157181 0)
(0.0539942 0.000150805 0)
(0.053353 0.000144771 0)
(0.0527324 0.000139053 0)
(0.0521314 0.000133629 0)
(0.0515492 0.000128478 0)
(0.0509849 0.00012358 0)
(0.0504378 0.000118918 0)
(0.0499071 0.000114477 0)
(0.0493922 0.000110241 0)
(0.0488925 0.000106196 0)
(0.0484075 0.000102331 0)
(0.0479364 9.86324e-05 0)
(0.047479 9.50907e-05 0)
(0.0470346 9.16955e-05 0)
(0.0466028 8.84375e-05 0)
(0.0461833 8.5308e-05 0)
(0.0457756 8.22991e-05 0)
(0.0453794 7.94032e-05 0)
(0.0449944 7.66136e-05 0)
(0.0446202 7.39238e-05 0)
(0.0442566 7.1328e-05 0)
(0.0439032 6.88208e-05 0)
(0.0435598 6.63971e-05 0)
(0.0432263 6.40522e-05 0)
(0.0429023 6.17821e-05 0)
(0.0425877 5.95829e-05 0)
(0.0422822 5.74511e-05 0)
(0.0419858 5.53836e-05 0)
(0.0416982 5.33778e-05 0)
(0.0414193 5.14314e-05 0)
(0.0411489 4.95423e-05 0)
(0.0408868 4.7709e-05 0)
(0.0406331 4.59305e-05 0)
(0.0403874 4.42059e-05 0)
(0.0401497 4.25352e-05 0)
(0.0399199 4.09185e-05 0)
(0.0396978 3.93569e-05 0)
(0.0394832 3.7852e-05 0)
(0.039276 3.64065e-05 0)
(0.039076 3.50242e-05 0)
(0.0388831 3.37108e-05 0)
(0.038697 3.24742e-05 0)
(0.0385174 3.13264e-05 0)
(0.038344 3.02857e-05 0)
(0.0381763 2.93835e-05 0)
(0.0380138 2.86816e-05 0)
(0.0378554 2.83275e-05 0)
(0.0376987 2.86898e-05 0)
(0.0375506 3.18815e-05 0)
(0.037269 6.98812e-05 0)
(0.192498 0.00909435 0)
(0.193259 0.0100454 0)
(0.193379 0.0103819 0)
(0.192708 0.0103912 0)
(0.191359 0.0101709 0)
(0.189447 0.009759 0)
(0.187062 0.00920068 0)
(0.184291 0.00854592 0)
(0.181225 0.00784054 0)
(0.177954 0.0071234 0)
(0.174551 0.00642571 0)
(0.171083 0.00577038 0)
(0.167599 0.00517194 0)
(0.164139 0.00463731 0)
(0.160732 0.00416736 0)
(0.157399 0.00375865 0)
(0.154152 0.00340516 0)
(0.150999 0.00309975 0)
(0.147944 0.00283521 0)
(0.144989 0.00260485 0)
(0.142133 0.00240288 0)
(0.139375 0.00222447 0)
(0.136713 0.00206571 0)
(0.134144 0.00192348 0)
(0.131666 0.0017953 0)
(0.129274 0.00167919 0)
(0.126968 0.00157359 0)
(0.124742 0.0014772 0)
(0.122596 0.00138897 0)
(0.120524 0.00130801 0)
(0.118526 0.00123356 0)
(0.116597 0.00116496 0)
(0.114736 0.00110162 0)
(0.112939 0.00104305 0)
(0.111203 0.000988789 0)
(0.109526 0.000938434 0)
(0.107906 0.000891627 0)
(0.10634 0.000848045 0)
(0.104826 0.000807402 0)
(0.103362 0.000769439 0)
(0.101944 0.000733925 0)
(0.100573 0.000700652 0)
(0.0992447 0.000669435 0)
(0.0979582 0.000640105 0)
(0.0967117 0.000612512 0)
(0.0955034 0.000586518 0)
(0.0943318 0.000562001 0)
(0.0931953 0.000538848 0)
(0.0920926 0.000516958 0)
(0.0910223 0.000496239 0)
(0.0899832 0.000476605 0)
(0.088974 0.000457981 0)
(0.0879936 0.000440296 0)
(0.0870408 0.000423485 0)
(0.0861148 0.000407488 0)
(0.0852145 0.00039225 0)
(0.084339 0.000377722 0)
(0.0834874 0.000363855 0)
(0.082659 0.000350608 0)
(0.0818529 0.00033794 0)
(0.0810685 0.000325814 0)
(0.080305 0.000314194 0)
(0.0795618 0.00030305 0)
(0.0788384 0.000292352 0)
(0.0781341 0.000282071 0)
(0.0774484 0.000272181 0)
(0.0767808 0.000262658 0)
(0.0761309 0.000253481 0)
(0.0754981 0.000244627 0)
(0.0748822 0.000236077 0)
(0.0742826 0.000227814 0)
(0.0736992 0.00021982 0)
(0.0731315 0.000212079 0)
(0.0725792 0.000204577 0)
(0.072042 0.000197301 0)
(0.0715197 0.000190238 0)
(0.0710121 0.000183377 0)
(0.0705189 0.000176708 0)
(0.0700399 0.000170222 0)
(0.0695749 0.00016391 0)
(0.0691237 0.000157766 0)
(0.0686862 0.000151785 0)
(0.0682622 0.00014596 0)
(0.0678515 0.000140289 0)
(0.0674541 0.00013477 0)
(0.0670696 0.000129401 0)
(0.0666981 0.000124185 0)
(0.0663393 0.000119123 0)
(0.0659931 0.000114223 0)
(0.0656592 0.000109492 0)
(0.0653375 0.000104943 0)
(0.0650277 0.000100595 0)
(0.0647295 9.64762e-05 0)
(0.0644425 9.26295e-05 0)
(0.0641661 8.91283e-05 0)
(0.0638997 8.61184e-05 0)
(0.063642 8.39451e-05 0)
(0.0633905 8.36275e-05 0)
(0.0631492 9.14101e-05 0)
(0.0627837 0.000138605 0)
(0.193538 0.00845288 0)
(0.194657 0.00949702 0)
(0.195678 0.0100546 0)
(0.196386 0.0103006 0)
(0.196759 0.0103152 0)
(0.1968 0.0101303 0)
(0.196505 0.00978126 0)
(0.19588 0.00931087 0)
(0.194947 0.00876101 0)
(0.193744 0.00816915 0)
(0.192312 0.00756713 0)
(0.190692 0.00698017 0)
(0.188927 0.00642624 0)
(0.187051 0.0059163 0)
(0.185097 0.00545535 0)
(0.183088 0.00504375 0)
(0.181046 0.0046788 0)
(0.178985 0.00435599 0)
(0.176916 0.00407005 0)
(0.174849 0.00381568 0)
(0.172788 0.00358801 0)
(0.170739 0.00338276 0)
(0.168705 0.00319636 0)
(0.16669 0.0030259 0)
(0.164695 0.00286905 0)
(0.162722 0.00272396 0)
(0.160774 0.00258916 0)
(0.158851 0.00246348 0)
(0.156956 0.002346 0)
(0.155088 0.00223592 0)
(0.15325 0.0021326 0)
(0.151442 0.00203549 0)
(0.149665 0.0019441 0)
(0.147919 0.001858 0)
(0.146204 0.0017768 0)
(0.144521 0.00170017 0)
(0.14287 0.00162777 0)
(0.141251 0.00155933 0)
(0.139664 0.00149457 0)
(0.138109 0.00143325 0)
(0.136585 0.00137515 0)
(0.135093 0.00132004 0)
(0.133632 0.00126775 0)
(0.132201 0.00121809 0)
(0.130801 0.00117089 0)
(0.12943 0.00112601 0)
(0.128089 0.0010833 0)
(0.126776 0.00104262 0)
(0.125492 0.00100385 0)
(0.124236 0.000966887 0)
(0.123007 0.00093161 0)
(0.121804 0.000897922 0)
(0.120628 0.00086573 0)
(0.119478 0.000834945 0)
(0.118352 0.000805485 0)
(0.117252 0.000777273 0)
(0.116175 0.000750236 0)
(0.115123 0.000724306 0)
(0.114093 0.000699419 0)
(0.113086 0.000675515 0)
(0.112102 0.000652537 0)
(0.111139 0.000630432 0)
(0.110198 0.000609149 0)
(0.109278 0.000588642 0)
(0.108378 0.000568865 0)
(0.107499 0.000549777 0)
(0.10664 0.000531338 0)
(0.1058 0.00051351 0)
(0.10498 0.000496258 0)
(0.104178 0.00047955 0)
(0.103396 0.000463354 0)
(0.102631 0.000447642 0)
(0.101886 0.000432385 0)
(0.101158 0.000417559 0)
(0.100448 0.000403139 0)
(0.0997554 0.000389104 0)
(0.0990806 0.000375434 0)
(0.0984232 0.00036211 0)
(0.0977829 0.000349114 0)
(0.0971598 0.000336433 0)
(0.0965536 0.000324053 0)
(0.0959644 0.000311962 0)
(0.0953919 0.000300152 0)
(0.0948362 0.000288615 0)
(0.0942971 0.000277346 0)
(0.0937746 0.000266344 0)
(0.0932685 0.000255609 0)
(0.0927788 0.000245145 0)
(0.0923054 0.000234961 0)
(0.0918481 0.000225071 0)
(0.0914068 0.000215497 0)
(0.0909812 0.000206269 0)
(0.0905712 0.000197432 0)
(0.0901764 0.000189058 0)
(0.0897963 0.000181267 0)
(0.0894301 0.000174296 0)
(0.0890769 0.000168709 0)
(0.0887344 0.00016623 0)
(0.0884056 0.000175048 0)
(0.087972 0.000220176 0)
(0.194275 0.00794825 0)
(0.195255 0.00892644 0)
(0.196308 0.00951957 0)
(0.197268 0.0098376 0)
(0.19809 0.00995053 0)
(0.198756 0.00988786 0)
(0.199241 0.00967555 0)
(0.199522 0.00934556 0)
(0.199591 0.0089313 0)
(0.19945 0.00846411 0)
(0.199115 0.00797191 0)
(0.198605 0.00747807 0)
(0.197943 0.00700047 0)
(0.197152 0.00655124 0)
(0.196255 0.0061373 0)
(0.195271 0.00576127 0)
(0.194217 0.00542261 0)
(0.193107 0.00511879 0)
(0.191951 0.00484615 0)
(0.190757 0.00460067 0)
(0.189533 0.00437844 0)
(0.188282 0.00417589 0)
(0.187009 0.00398998 0)
(0.185717 0.00381816 0)
(0.184408 0.00365838 0)
(0.183086 0.00350899 0)
(0.181753 0.00336869 0)
(0.18041 0.00323645 0)
(0.17906 0.00311143 0)
(0.177705 0.00299295 0)
(0.176346 0.00288046 0)
(0.174985 0.00277348 0)
(0.173625 0.00267161 0)
(0.172265 0.0025745 0)
(0.170908 0.00248183 0)
(0.169556 0.00239331 0)
(0.168209 0.00230871 0)
(0.166868 0.00222777 0)
(0.165534 0.0021503 0)
(0.16421 0.0020761 0)
(0.162894 0.00200499 0)
(0.161589 0.00193681 0)
(0.160295 0.00187139 0)
(0.159012 0.00180861 0)
(0.157742 0.00174832 0)
(0.156484 0.0016904 0)
(0.15524 0.00163474 0)
(0.154009 0.00158122 0)
(0.152793 0.00152974 0)
(0.151591 0.00148021 0)
(0.150403 0.00143253 0)
(0.149231 0.00138661 0)
(0.148074 0.00134236 0)
(0.146932 0.00129972 0)
(0.145806 0.0012586 0)
(0.144695 0.00121893 0)
(0.143601 0.00118064 0)
(0.142522 0.00114366 0)
(0.141459 0.00110794 0)
(0.140413 0.00107341 0)
(0.139382 0.00104 0)
(0.138368 0.00100768 0)
(0.13737 0.000976376 0)
(0.136388 0.000946044 0)
(0.135422 0.000916635 0)
(0.134473 0.000888102 0)
(0.13354 0.0008604 0)
(0.132623 0.000833486 0)
(0.131722 0.000807319 0)
(0.130838 0.00078186 0)
(0.12997 0.000757072 0)
(0.129118 0.00073292 0)
(0.128283 0.00070937 0)
(0.127464 0.000686391 0)
(0.126662 0.000663954 0)
(0.125876 0.00064203 0)
(0.125106 0.000620594 0)
(0.124354 0.000599622 0)
(0.123617 0.000579092 0)
(0.122898 0.000558986 0)
(0.122195 0.000539284 0)
(0.121509 0.000519974 0)
(0.120841 0.000501043 0)
(0.120189 0.000482481 0)
(0.119554 0.000464283 0)
(0.118936 0.000446447 0)
(0.118336 0.000428975 0)
(0.117753 0.000411873 0)
(0.117187 0.000395155 0)
(0.116639 0.000378841 0)
(0.116107 0.000362962 0)
(0.115593 0.000347563 0)
(0.115097 0.000332708 0)
(0.114617 0.000318497 0)
(0.114153 0.000305098 0)
(0.113706 0.000292834 0)
(0.113274 0.000282463 0)
(0.112856 0.000276174 0)
(0.112456 0.000281933 0)
(0.111967 0.000316179 0)
(0.194906 0.00751494 0)
(0.195711 0.00838873 0)
(0.196632 0.00896676 0)
(0.197544 0.0093089 0)
(0.198402 0.00946868 0)
(0.199183 0.00947297 0)
(0.199867 0.00934293 0)
(0.200429 0.00910403 0)
(0.200854 0.00878386 0)
(0.201139 0.00840902 0)
(0.201284 0.0080036 0)
(0.201297 0.00758825 0)
(0.201191 0.00717937 0)
(0.200979 0.00678877 0)
(0.200677 0.00642383 0)
(0.200297 0.00608823 0)
(0.199852 0.00578272 0)
(0.199351 0.00550609 0)
(0.198804 0.0052559 0)
(0.198216 0.00502919 0)
(0.197592 0.00482284 0)
(0.196936 0.00463392 0)
(0.19625 0.00445983 0)
(0.195538 0.00429834 0)
(0.1948 0.00414758 0)
(0.194038 0.00400607 0)
(0.193254 0.00387257 0)
(0.192449 0.00374613 0)
(0.191625 0.00362595 0)
(0.190782 0.0035114 0)
(0.189923 0.00340196 0)
(0.189047 0.0032972 0)
(0.188157 0.00319676 0)
(0.187254 0.00310031 0)
(0.186338 0.00300759 0)
(0.185411 0.00291836 0)
(0.184475 0.00283241 0)
(0.183529 0.00274954 0)
(0.182576 0.00266958 0)
(0.181616 0.00259239 0)
(0.18065 0.00251781 0)
(0.179679 0.00244572 0)
(0.178705 0.00237601 0)
(0.177727 0.00230855 0)
(0.176747 0.00224325 0)
(0.175765 0.00218002 0)
(0.174783 0.00211877 0)
(0.173801 0.0020594 0)
(0.172819 0.00200185 0)
(0.171839 0.00194605 0)
(0.170861 0.00189191 0)
(0.169886 0.00183937 0)
(0.168914 0.00178838 0)
(0.167946 0.00173886 0)
(0.166982 0.00169076 0)
(0.166023 0.00164402 0)
(0.165069 0.00159858 0)
(0.164121 0.0015544 0)
(0.163179 0.00151141 0)
(0.162244 0.00146958 0)
(0.161316 0.00142885 0)
(0.160395 0.00138917 0)
(0.159482 0.0013505 0)
(0.158577 0.0013128 0)
(0.157681 0.00127601 0)
(0.156794 0.00124011 0)
(0.155915 0.00120504 0)
(0.155047 0.00117078 0)
(0.154188 0.00113727 0)
(0.153339 0.00110449 0)
(0.152501 0.00107241 0)
(0.151673 0.00104097 0)
(0.150856 0.00101016 0)
(0.150051 0.000979949 0)
(0.149257 0.000950297 0)
(0.148475 0.000921183 0)
(0.147706 0.00089258 0)
(0.146948 0.000864464 0)
(0.146204 0.000836814 0)
(0.145473 0.000809611 0)
(0.144755 0.000782838 0)
(0.14405 0.000756481 0)
(0.14336 0.000730529 0)
(0.142683 0.000704974 0)
(0.142022 0.000679814 0)
(0.141374 0.000655048 0)
(0.140742 0.000630684 0)
(0.140125 0.000606734 0)
(0.139524 0.000583217 0)
(0.138938 0.000560165 0)
(0.138367 0.000537618 0)
(0.137813 0.000515638 0)
(0.137274 0.00049431 0)
(0.136752 0.000473761 0)
(0.136245 0.000454203 0)
(0.135753 0.00043603 0)
(0.135277 0.000420106 0)
(0.134815 0.000408679 0)
(0.134375 0.000408026 0)
(0.133857 0.000425424 0)
(0.19546 0.00714509 0)
(0.196125 0.00791547 0)
(0.196908 0.00846179 0)
(0.197717 0.00880877 0)
(0.198507 0.00899253 0)
(0.199254 0.00903632 0)
(0.199939 0.0089587 0)
(0.200544 0.00878103 0)
(0.201055 0.00852673 0)
(0.201466 0.00821877 0)
(0.201777 0.0078781 0)
(0.20199 0.00752295 0)
(0.202114 0.00716813 0)
(0.202157 0.0068247 0)
(0.202131 0.00650007 0)
(0.202044 0.00619842 0)
(0.201907 0.00592137 0)
(0.201727 0.00566865 0)
(0.20151 0.00543877 0)
(0.201262 0.00522956 0)
(0.200986 0.00503861 0)
(0.200684 0.0048635 0)
(0.200359 0.00470199 0)
(0.200013 0.00455212 0)
(0.199645 0.00441219 0)
(0.199257 0.00428082 0)
(0.19885 0.00415686 0)
(0.198424 0.00403935 0)
(0.197979 0.00392755 0)
(0.197517 0.00382083 0)
(0.197037 0.00371868 0)
(0.19654 0.00362066 0)
(0.196027 0.00352642 0)
(0.195498 0.00343566 0)
(0.194954 0.00334811 0)
(0.194395 0.00326354 0)
(0.193822 0.00318175 0)
(0.193236 0.00310257 0)
(0.192637 0.00302584 0)
(0.192026 0.00295141 0)
(0.191403 0.00287916 0)
(0.19077 0.00280898 0)
(0.190125 0.00274076 0)
(0.189471 0.00267441 0)
(0.188808 0.00260984 0)
(0.188136 0.00254696 0)
(0.187456 0.00248572 0)
(0.186769 0.00242604 0)
(0.186075 0.00236785 0)
(0.185374 0.0023111 0)
(0.184668 0.00225573 0)
(0.183957 0.00220169 0)
(0.18324 0.00214892 0)
(0.18252 0.00209738 0)
(0.181796 0.00204702 0)
(0.181069 0.0019978 0)
(0.180339 0.00194966 0)
(0.179607 0.00190258 0)
(0.178874 0.0018565 0)
(0.178139 0.00181139 0)
(0.177404 0.00176721 0)
(0.176669 0.00172392 0)
(0.175934 0.00168148 0)
(0.1752 0.00163986 0)
(0.174466 0.00159902 0)
(0.173735 0.00155893 0)
(0.173006 0.00151955 0)
(0.172279 0.00148085 0)
(0.171555 0.00144279 0)
(0.170835 0.00140535 0)
(0.170119 0.00136849 0)
(0.169406 0.00133219 0)
(0.168699 0.00129642 0)
(0.167997 0.00126114 0)
(0.1673 0.00122635 0)
(0.16661 0.001192 0)
(0.165926 0.00115808 0)
(0.165249 0.00112457 0)
(0.164579 0.00109145 0)
(0.163917 0.0010587 0)
(0.163263 0.00102632 0)
(0.162617 0.000994285 0)
(0.161981 0.000962595 0)
(0.161354 0.000931246 0)
(0.160737 0.000900238 0)
(0.160131 0.00086958 0)
(0.159535 0.000839284 0)
(0.158949 0.000809369 0)
(0.158376 0.000779867 0)
(0.157814 0.000750818 0)
(0.157264 0.000722277 0)
(0.156726 0.000694322 0)
(0.156201 0.000667058 0)
(0.155688 0.00064064 0)
(0.155188 0.000615312 0)
(0.1547 0.000591505 0)
(0.154225 0.000570082 0)
(0.153764 0.000552948 0)
(0.153324 0.000543971 0)
(0.152815 0.000542116 0)
(0.195951 0.00682688 0)
(0.196508 0.0075025 0)
(0.197172 0.0080083 0)
(0.197878 0.0083484 0)
(0.198583 0.00854442 0)
(0.199264 0.00861492 0)
(0.1999 0.00857588 0)
(0.200478 0.00844514 0)
(0.200984 0.00824242 0)
(0.201412 0.00798744 0)
(0.201762 0.00769851 0)
(0.202036 0.00739176 0)
(0.202238 0.00708056 0)
(0.202378 0.00677528 0)
(0.202461 0.00648318 0)
(0.202498 0.00620881 0)
(0.202495 0.00595439 0)
(0.202459 0.00572042 0)
(0.202396 0.00550619 0)
(0.202309 0.00531026 0)
(0.202203 0.00513081 0)
(0.20208 0.00496591 0)
(0.201941 0.00481369 0)
(0.201788 0.00467244 0)
(0.201621 0.00454069 0)
(0.201441 0.00441714 0)
(0.201248 0.00430071 0)
(0.201042 0.00419052 0)
(0.200824 0.00408581 0)
(0.200593 0.00398598 0)
(0.20035 0.0038905 0)
(0.200094 0.00379895 0)
(0.199827 0.00371096 0)
(0.199547 0.00362621 0)
(0.199255 0.00354444 0)
(0.198952 0.00346542 0)
(0.198636 0.00338894 0)
(0.19831 0.00331481 0)
(0.197972 0.00324288 0)
(0.197623 0.00317299 0)
(0.197263 0.00310504 0)
(0.196892 0.00303889 0)
(0.196511 0.00297445 0)
(0.196119 0.00291163 0)
(0.195718 0.00285032 0)
(0.195307 0.00279047 0)
(0.194886 0.002732 0)
(0.194456 0.00267484 0)
(0.194018 0.00261893 0)
(0.193571 0.00256421 0)
(0.193115 0.00251064 0)
(0.192652 0.00245815 0)
(0.192181 0.00240672 0)
(0.191703 0.00235628 0)
(0.191218 0.0023068 0)
(0.190726 0.00225824 0)
(0.190228 0.00221055 0)
(0.189724 0.00216371 0)
(0.189214 0.00211766 0)
(0.188699 0.00207238 0)
(0.188179 0.00202784 0)
(0.187655 0.00198398 0)
(0.187126 0.0019408 0)
(0.186594 0.00189824 0)
(0.186058 0.00185628 0)
(0.18552 0.0018149 0)
(0.184978 0.00177404 0)
(0.184435 0.0017337 0)
(0.183889 0.00169383 0)
(0.183342 0.00165442 0)
(0.182794 0.00161543 0)
(0.182246 0.00157683 0)
(0.181697 0.00153861 0)
(0.181148 0.00150073 0)
(0.1806 0.00146318 0)
(0.180053 0.00142594 0)
(0.179507 0.00138898 0)
(0.178964 0.00135228 0)
(0.178422 0.00131584 0)
(0.177884 0.00127964 0)
(0.177349 0.00124367 0)
(0.176817 0.00120792 0)
(0.176289 0.00117239 0)
(0.175766 0.00113708 0)
(0.175248 0.00110201 0)
(0.174736 0.00106717 0)
(0.174229 0.0010326 0)
(0.173729 0.000998319 0)
(0.173235 0.000964368 0)
(0.172748 0.000930798 0)
(0.172269 0.00089768 0)
(0.171797 0.000865105 0)
(0.171333 0.000833197 0)
(0.170878 0.000802131 0)
(0.170431 0.00077217 0)
(0.169993 0.000743743 0)
(0.169564 0.000717604 0)
(0.169145 0.000695065 0)
(0.168745 0.000677535 0)
(0.168282 0.000657788 0)
(0.196386 0.00654752 0)
(0.196859 0.00713901 0)
(0.197425 0.00760099 0)
(0.198039 0.00792722 0)
(0.198664 0.00812857 0)
(0.199275 0.00821846 0)
(0.199854 0.00820998 0)
(0.200388 0.00811779 0)
(0.200864 0.00795826 0)
(0.201277 0.00774816 0)
(0.201625 0.00750338 0)
(0.20191 0.00723816 0)
(0.202135 0.00696457 0)
(0.202306 0.00669221 0)
(0.20243 0.00642816 0)
(0.202513 0.00617714 0)
(0.202564 0.00594184 0)
(0.202587 0.00572339 0)
(0.202588 0.00552172 0)
(0.202571 0.00533604 0)
(0.202538 0.00516509 0)
(0.202494 0.00500739 0)
(0.202438 0.00486147 0)
(0.202374 0.00472589 0)
(0.202301 0.00459937 0)
(0.202219 0.00448077 0)
(0.202131 0.0043691 0)
(0.202035 0.00426355 0)
(0.201932 0.0041634 0)
(0.201821 0.00406805 0)
(0.201704 0.00397702 0)
(0.201579 0.00388986 0)
(0.201447 0.00380621 0)
(0.201308 0.00372576 0)
(0.201161 0.00364824 0)
(0.201007 0.0035734 0)
(0.200845 0.00350104 0)
(0.200677 0.00343097 0)
(0.2005 0.00336302 0)
(0.200316 0.00329704 0)
(0.200125 0.0032329 0)
(0.199926 0.00317048 0)
(0.199719 0.00310967 0)
(0.199505 0.00305038 0)
(0.199284 0.00299251 0)
(0.199054 0.00293597 0)
(0.198818 0.0028807 0)
(0.198574 0.00282663 0)
(0.198322 0.00277368 0)
(0.198064 0.00272181 0)
(0.197798 0.00267095 0)
(0.197525 0.00262105 0)
(0.197245 0.00257206 0)
(0.196958 0.00252394 0)
(0.196664 0.00247663 0)
(0.196364 0.00243011 0)
(0.196057 0.00238432 0)
(0.195743 0.00233922 0)
(0.195424 0.00229478 0)
(0.195098 0.00225097 0)
(0.194767 0.00220774 0)
(0.19443 0.00216505 0)
(0.194087 0.00212289 0)
(0.193739 0.0020812 0)
(0.193386 0.00203997 0)
(0.193028 0.00199915 0)
(0.192666 0.00195872 0)
(0.192299 0.00191864 0)
(0.191928 0.0018789 0)
(0.191554 0.00183945 0)
(0.191175 0.00180027 0)
(0.190794 0.00176134 0)
(0.19041 0.00172263 0)
(0.190022 0.00168411 0)
(0.189633 0.00164577 0)
(0.189241 0.00160758 0)
(0.188848 0.00156953 0)
(0.188454 0.00153159 0)
(0.188058 0.00149376 0)
(0.187662 0.00145602 0)
(0.187265 0.00141837 0)
(0.186869 0.00138079 0)
(0.186472 0.0013433 0)
(0.186077 0.00130589 0)
(0.185683 0.00126858 0)
(0.18529 0.00123137 0)
(0.1849 0.00119431 0)
(0.184511 0.00115742 0)
(0.184125 0.00112076 0)
(0.183742 0.00108437 0)
(0.183363 0.00104834 0)
(0.182987 0.00101279 0)
(0.182614 0.000977829 0)
(0.182246 0.000943662 0)
(0.181883 0.000910552 0)
(0.181524 0.000878888 0)
(0.18117 0.000849245 0)
(0.180824 0.000822279 0)
(0.18049 0.000797404 0)
(0.1801 0.000764063 0)
(0.196774 0.0062982 0)
(0.197181 0.00681663 0)
(0.197666 0.00723523 0)
(0.198199 0.00754349 0)
(0.198751 0.00774506 0)
(0.199297 0.00784866 0)
(0.19982 0.0078645 0)
(0.200308 0.0078044 0)
(0.200749 0.00768178 0)
(0.201138 0.00751074 0)
(0.201473 0.00730492 0)
(0.201752 0.00707679 0)
(0.20198 0.00683714 0)
(0.202161 0.0065948 0)
(0.2023 0.00635651 0)
(0.202403 0.00612704 0)
(0.202476 0.0059094 0)
(0.202524 0.00570519 0)
(0.202551 0.00551489 0)
(0.202563 0.00533824 0)
(0.202561 0.00517449 0)
(0.20255 0.0050226 0)
(0.202529 0.00488145 0)
(0.202502 0.0047499 0)
(0.202468 0.00462686 0)
(0.202429 0.00451138 0)
(0.202386 0.00440257 0)
(0.202338 0.0042997 0)
(0.202286 0.00420212 0)
(0.202231 0.00410928 0)
(0.202171 0.0040207 0)
(0.202108 0.00393597 0)
(0.202041 0.00385474 0)
(0.20197 0.00377671 0)
(0.201895 0.0037016 0)
(0.201817 0.00362918 0)
(0.201735 0.00355925 0)
(0.201649 0.00349161 0)
(0.201559 0.0034261 0)
(0.201464 0.00336257 0)
(0.201366 0.00330089 0)
(0.201263 0.00324092 0)
(0.201156 0.00318257 0)
(0.201045 0.00312572 0)
(0.20093 0.00307028 0)
(0.200809 0.00301618 0)
(0.200685 0.00296332 0)
(0.200555 0.00291163 0)
(0.200421 0.00286105 0)
(0.200282 0.00281151 0)
(0.200139 0.00276295 0)
(0.19999 0.00271532 0)
(0.199837 0.00266856 0)
(0.199678 0.00262261 0)
(0.199515 0.00257743 0)
(0.199347 0.00253298 0)
(0.199174 0.00248921 0)
(0.198996 0.00244607 0)
(0.198814 0.00240352 0)
(0.198626 0.00236152 0)
(0.198433 0.00232003 0)
(0.198236 0.00227902 0)
(0.198034 0.00223844 0)
(0.197827 0.00219826 0)
(0.197616 0.00215845 0)
(0.1974 0.00211896 0)
(0.19718 0.00207976 0)
(0.196956 0.00204083 0)
(0.196727 0.00200212 0)
(0.196494 0.00196361 0)
(0.196257 0.00192527 0)
(0.196016 0.00188707 0)
(0.195772 0.00184898 0)
(0.195524 0.00181097 0)
(0.195273 0.00177303 0)
(0.195019 0.00173512 0)
(0.194761 0.00169723 0)
(0.194501 0.00165934 0)
(0.194239 0.00162144 0)
(0.193974 0.00158351 0)
(0.193707 0.00154554 0)
(0.193438 0.00150753 0)
(0.193167 0.00146948 0)
(0.192895 0.0014314 0)
(0.192622 0.0013933 0)
(0.192348 0.0013552 0)
(0.192074 0.00131712 0)
(0.191799 0.00127911 0)
(0.191524 0.00124122 0)
(0.191249 0.00120351 0)
(0.190974 0.00116607 0)
(0.1907 0.00112902 0)
(0.190427 0.0010925 0)
(0.190154 0.0010567 0)
(0.189883 0.00102187 0)
(0.189614 0.000988341 0)
(0.189347 0.000956492 0)
(0.189083 0.000926413 0)
(0.188828 0.000896282 0)
(0.188521 0.000855013 0)
(0.197121 0.00607298 0)
(0.197474 0.00652862 0)
(0.197893 0.00690625 0)
(0.198357 0.00719439 0)
(0.198842 0.00739228 0)
(0.199328 0.00750491 0)
(0.1998 0.00753981 0)
(0.200243 0.00750631 0)
(0.20065 0.00741529 0)
(0.201013 0.00727842 0)
(0.20133 0.00710729 0)
(0.201599 0.0069127 0)
(0.201824 0.0067042 0)
(0.202007 0.0064898 0)
(0.202151 0.00627583 0)
(0.202263 0.00606699 0)
(0.202347 0.00586647 0)
(0.202408 0.00567619 0)
(0.202449 0.00549707 0)
(0.202474 0.0053293 0)
(0.202487 0.00517257 0)
(0.20249 0.00502622 0)
(0.202485 0.00488946 0)
(0.202474 0.00476143 0)
(0.202457 0.00464126 0)
(0.202436 0.00452815 0)
(0.202411 0.00442137 0)
(0.202383 0.00432025 0)
(0.202353 0.00422423 0)
(0.20232 0.00413281 0)
(0.202284 0.00404554 0)
(0.202247 0.00396206 0)
(0.202208 0.00388202 0)
(0.202167 0.00380515 0)
(0.202124 0.00373119 0)
(0.20208 0.00365991 0)
(0.202033 0.00359111 0)
(0.201985 0.00352462 0)
(0.201936 0.00346027 0)
(0.201884 0.00339791 0)
(0.201831 0.00333742 0)
(0.201775 0.00327867 0)
(0.201718 0.00322156 0)
(0.201659 0.00316598 0)
(0.201598 0.00311183 0)
(0.201534 0.00305904 0)
(0.201469 0.00300752 0)
(0.201401 0.00295719 0)
(0.201331 0.00290799 0)
(0.201258 0.00285985 0)
(0.201183 0.00281271 0)
(0.201106 0.0027665 0)
(0.201026 0.00272118 0)
(0.200943 0.00267668 0)
(0.200857 0.00263296 0)
(0.200768 0.00258996 0)
(0.200677 0.00254764 0)
(0.200582 0.00250595 0)
(0.200485 0.00246484 0)
(0.200385 0.00242428 0)
(0.200281 0.00238421 0)
(0.200174 0.00234459 0)
(0.200065 0.00230539 0)
(0.199952 0.00226656 0)
(0.199835 0.00222807 0)
(0.199716 0.00218987 0)
(0.199593 0.00215193 0)
(0.199467 0.00211421 0)
(0.199338 0.00207667 0)
(0.199206 0.00203929 0)
(0.199071 0.00200203 0)
(0.198932 0.00196485 0)
(0.198791 0.00192773 0)
(0.198646 0.00189063 0)
(0.198498 0.00185353 0)
(0.198348 0.00181641 0)
(0.198194 0.00177923 0)
(0.198038 0.00174199 0)
(0.197879 0.00170465 0)
(0.197718 0.00166722 0)
(0.197554 0.00162967 0)
(0.197387 0.00159201 0)
(0.197219 0.00155423 0)
(0.197048 0.00151634 0)
(0.196875 0.00147834 0)
(0.196701 0.00144027 0)
(0.196524 0.00140215 0)
(0.196346 0.00136402 0)
(0.196166 0.00132593 0)
(0.195985 0.00128796 0)
(0.195803 0.0012502 0)
(0.195619 0.00121276 0)
(0.195435 0.00117579 0)
(0.195249 0.00113948 0)
(0.195063 0.00110405 0)
(0.194876 0.00106977 0)
(0.194689 0.00103685 0)
(0.194504 0.00100499 0)
(0.194322 0.000971913 0)
(0.194096 0.000928119 0)
(0.197432 0.00586769 0)
(0.197741 0.00626958 0)
(0.198104 0.00660959 0)
(0.198509 0.00687688 0)
(0.198936 0.00706835 0)
(0.199368 0.00718622 0)
(0.19979 0.00723573 0)
(0.200192 0.00722407 0)
(0.200565 0.00715991 0)
(0.200902 0.00705279 0)
(0.2012 0.00691245 0)
(0.201458 0.00674813 0)
(0.201676 0.0065682 0)
(0.201857 0.00637986 0)
(0.202004 0.00618896 0)
(0.202121 0.00600002 0)
(0.202212 0.0058163 0)
(0.20228 0.00563992 0)
(0.202329 0.00547214 0)
(0.202364 0.00531351 0)
(0.202386 0.00516407 0)
(0.202397 0.00502351 0)
(0.202401 0.00489133 0)
(0.202398 0.00476693 0)
(0.202389 0.00464965 0)
(0.202377 0.00453884 0)
(0.20236 0.00443392 0)
(0.202341 0.00433431 0)
(0.20232 0.00423953 0)
(0.202296 0.00414914 0)
(0.202271 0.00406274 0)
(0.202245 0.00398 0)
(0.202217 0.0039006 0)
(0.202188 0.0038243 0)
(0.202158 0.00375084 0)
(0.202128 0.00368002 0)
(0.202096 0.00361165 0)
(0.202064 0.00354556 0)
(0.202032 0.00348161 0)
(0.201998 0.00341965 0)
(0.201965 0.00335955 0)
(0.20193 0.00330121 0)
(0.201895 0.00324451 0)
(0.201859 0.00318936 0)
(0.201823 0.00313567 0)
(0.201786 0.00308335 0)
(0.201748 0.00303232 0)
(0.20171 0.00298252 0)
(0.20167 0.00293387 0)
(0.20163 0.00288631 0)
(0.201589 0.00283977 0)
(0.201547 0.0027942 0)
(0.201504 0.00274953 0)
(0.20146 0.00270572 0)
(0.201414 0.00266271 0)
(0.201368 0.00262044 0)
(0.20132 0.00257888 0)
(0.201271 0.00253797 0)
(0.20122 0.00249766 0)
(0.201168 0.00245791 0)
(0.201115 0.00241867 0)
(0.20106 0.0023799 0)
(0.201003 0.00234155 0)
(0.200944 0.00230359 0)
(0.200884 0.00226597 0)
(0.200822 0.00222865 0)
(0.200758 0.00219159 0)
(0.200693 0.00215475 0)
(0.200625 0.00211809 0)
(0.200556 0.00208158 0)
(0.200484 0.00204518 0)
(0.200411 0.00200885 0)
(0.200335 0.00197257 0)
(0.200257 0.00193629 0)
(0.200178 0.0019 0)
(0.200096 0.00186365 0)
(0.200012 0.00182724 0)
(0.199926 0.00179073 0)
(0.199838 0.0017541 0)
(0.199748 0.00171734 0)
(0.199656 0.00168044 0)
(0.199561 0.00164339 0)
(0.199465 0.00160619 0)
(0.199367 0.00156884 0)
(0.199266 0.00153135 0)
(0.199164 0.00149375 0)
(0.19906 0.00145606 0)
(0.198953 0.00141833 0)
(0.198845 0.00138061 0)
(0.198735 0.00134298 0)
(0.198623 0.00130552 0)
(0.198509 0.00126836 0)
(0.198393 0.00123163 0)
(0.198276 0.00119551 0)
(0.198157 0.00116022 0)
(0.198036 0.00112594 0)
(0.197914 0.00109277 0)
(0.197791 0.00106025 0)