/*--------------------------------*- C++ -*----------------------------------*\
| =========                 |                                                 |
| \\      /  F ield         | OpenFOAM: The Open Source CFD Toolbox           |
|  \\    /   O peration     | Version:  2.3.0                                 |
|   \\  /    A nd           | Web:      www.OpenFOAM.org                      |
|    \\/     M anipulation  |                                                 |
\*---------------------------------------------------------------------------*/
FoamFile
{
    version     2.0;
    format      ascii;
    class       volScalarField;
    location    "0.05";
    object      p;
}
// * * * * * * * * * * * * * * * * * * * * * * * * * * * * * * * * * * * * * //

dimensions      [0 2 -2 0 0 0 0];

internalField   nonuniform List<scalar> 
8750
(
0.00248323
0.00187379
0.00137242
0.00100971
0.000709009
0.000437474
0.000194891
-1.38266e-05
-0.000186824
-0.000324677
-0.000429271
-0.000503278
-0.000549633
-0.000570971
-0.000569401
-0.000546918
-0.000505782
-0.000449262
-0.000380591
-0.000307139
-0.000238348
-0.000179978
-0.000132814
-9.57217e-05
-6.70222e-05
-4.50144e-05
-2.81948e-05
-1.53143e-05
-5.3778e-06
2.37713e-06
8.52011e-06
1.34669e-05
1.75144e-05
2.08707e-05
2.36904e-05
2.60642e-05
2.80679e-05
2.97416e-05
3.11298e-05
3.22743e-05
3.32065e-05
3.39497e-05
3.4523e-05
3.49425e-05
3.52232e-05
3.53785e-05
3.54208e-05
3.53615e-05
3.5211e-05
3.4979e-05
3.46742e-05
3.43044e-05
3.38767e-05
3.33977e-05
3.28732e-05
3.23086e-05
3.17088e-05
3.1078e-05
3.04202e-05
2.97391e-05
2.90379e-05
2.83196e-05
2.75867e-05
2.68418e-05
2.60869e-05
2.5324e-05
2.45548e-05
2.37809e-05
2.30037e-05
2.22245e-05
2.14443e-05
2.06642e-05
1.9885e-05
1.91074e-05
1.83321e-05
1.75595e-05
1.67902e-05
1.60246e-05
1.52629e-05
1.45054e-05
1.37521e-05
1.30033e-05
1.2259e-05
1.15191e-05
1.07836e-05
1.00524e-05
9.32545e-06
8.60244e-06
7.88332e-06
7.1678e-06
6.45576e-06
5.74699e-06
5.04132e-06
4.3388e-06
3.63941e-06
2.94367e-06
2.25243e-06
1.56759e-06
8.93549e-07
2.28969e-07
0.00219537
0.00175991
0.00134774
0.00101799
0.00073169
0.00046739
0.000227789
1.94072e-05
-0.000154851
-0.000294998
-0.000402608
-0.000480131
-0.000530284
-0.000555466
-0.000557641
-0.000538682
-0.00050051
-0.000444682
-0.000376683
-0.000305523
-0.000238362
-0.000180707
-0.00013373
-9.65614e-05
-6.76855e-05
-4.54923e-05
-2.85099e-05
-1.55006e-05
-5.4729e-06
2.34141e-06
8.52001e-06
1.34861e-05
1.75418e-05
2.0899e-05
2.372e-05
2.61144e-05
2.81219e-05
2.97935e-05
3.118e-05
3.23231e-05
3.32541e-05
3.39961e-05
3.45681e-05
3.49863e-05
3.52656e-05
3.54195e-05
3.54603e-05
3.53996e-05
3.52478e-05
3.50145e-05
3.47084e-05
3.43372e-05
3.39083e-05
3.34282e-05
3.29026e-05
3.23369e-05
3.17359e-05
3.11041e-05
3.04453e-05
2.97633e-05
2.90612e-05
2.8342e-05
2.76082e-05
2.68625e-05
2.61068e-05
2.53431e-05
2.45732e-05
2.37986e-05
2.30207e-05
2.22408e-05
2.146e-05
2.06792e-05
1.98994e-05
1.91212e-05
1.83453e-05
1.75722e-05
1.68024e-05
1.60362e-05
1.5274e-05
1.45159e-05
1.37622e-05
1.30129e-05
1.22681e-05
1.15277e-05
1.07918e-05
1.00602e-05
9.33277e-06
8.60933e-06
7.88979e-06
7.17386e-06
6.46141e-06
5.75224e-06
5.04617e-06
4.34325e-06
3.64345e-06
2.94729e-06
2.25561e-06
1.57025e-06
8.96154e-07
2.21963e-07
0.00198872
0.00166273
0.00131318
0.00100902
0.000738752
0.000488476
0.00025991
5.88235e-05
-0.000111667
-0.000251066
-0.00036031
-0.000441119
-0.000495493
-0.000525254
-0.000531941
-0.000517092
-0.000482506
-0.000430407
-0.00036588
-0.000297644
-0.000234006
-0.000178851
-0.000133358
-9.69651e-05
-6.84168e-05
-4.62928e-05
-2.92454e-05
-1.61125e-05
-5.94554e-06
2.00029e-06
8.29148e-06
1.33479e-05
1.74717e-05
2.08854e-05
2.37557e-05
2.61708e-05
2.81814e-05
2.98534e-05
3.12402e-05
3.2383e-05
3.33128e-05
3.4053e-05
3.46227e-05
3.50384e-05
3.53151e-05
3.54664e-05
3.55047e-05
3.54416e-05
3.52875e-05
3.5052e-05
3.47438e-05
3.43707e-05
3.394e-05
3.34582e-05
3.2931e-05
3.23638e-05
3.17615e-05
3.11283e-05
3.04683e-05
2.97851e-05
2.9082e-05
2.83617e-05
2.7627e-05
2.68804e-05
2.61238e-05
2.53593e-05
2.45887e-05
2.38134e-05
2.30348e-05
2.22543e-05
2.14728e-05
2.06915e-05
1.99111e-05
1.91324e-05
1.8356e-05
1.75824e-05
1.68121e-05
1.60456e-05
1.52829e-05
1.45245e-05
1.37704e-05
1.30207e-05
1.22755e-05
1.15349e-05
1.07986e-05
1.00666e-05
9.33891e-06
8.61517e-06
7.89533e-06
7.1791e-06
6.46635e-06
5.75688e-06
5.05049e-06
4.34722e-06
3.64703e-06
2.95037e-06
2.25798e-06
1.57142e-06
8.93838e-07
2.05952e-07
0.00181494
0.00155946
0.00126326
0.000988886
0.000739778
0.000508061
0.000294723
0.0001047
-5.8698e-05
-0.000194405
-0.0003027
-0.000384604
-0.000441479
-0.000474692
-0.000485535
-0.000475442
-0.000446297
-0.0004008
-0.000343561
-0.000282495
-0.00022484
-0.0001741
-0.000131483
-9.67689e-05
-6.90797e-05
-4.72982e-05
-3.02943e-05
-1.70495e-05
-6.7059e-06
1.42817e-06
7.89123e-06
1.30915e-05
1.73323e-05
2.08459e-05
2.37815e-05
2.622e-05
2.82456e-05
2.99287e-05
3.13227e-05
3.24691e-05
3.33994e-05
3.4138e-05
3.47048e-05
3.51169e-05
3.53896e-05
3.55368e-05
3.55712e-05
3.55043e-05
3.53465e-05
3.51075e-05
3.47961e-05
3.442e-05
3.39864e-05
3.35019e-05
3.29722e-05
3.24026e-05
3.17981e-05
3.11629e-05
3.05011e-05
2.98161e-05
2.91112e-05
2.83894e-05
2.76533e-05
2.69053e-05
2.61475e-05
2.53818e-05
2.461e-05
2.38336e-05
2.30541e-05
2.22726e-05
2.14903e-05
2.07082e-05
1.9927e-05
1.91476e-05
1.83705e-05
1.75963e-05
1.68254e-05
1.60582e-05
1.5295e-05
1.45361e-05
1.37815e-05
1.30314e-05
1.22857e-05
1.15446e-05
1.0808e-05
1.00756e-05
9.34751e-06
8.62339e-06
7.90319e-06
7.18661e-06
6.47349e-06
5.76365e-06
5.05685e-06
4.35314e-06
3.6524e-06
2.95499e-06
2.26146e-06
1.57274e-06
8.89593e-07
1.88718e-07
0.0016621
0.00145722
0.0012086
0.000965476
0.000738497
0.000525364
0.000327521
0.000149384
-5.63484e-06
-0.000136044
-0.000241647
-0.000322974
-0.000380952
-0.000416658
-0.000431254
-0.000426148
-0.000403276
-0.000365445
-0.000316916
-0.000264054
-0.000212956
-0.000167153
-0.000127913
-9.533e-05
-6.88768e-05
-4.773e-05
-3.09816e-05
-1.77699e-05
-7.34228e-06
9.25328e-07
7.53168e-06
1.28635e-05
1.7221e-05
2.08271e-05
2.38091e-05
2.62805e-05
2.83319e-05
3.00327e-05
3.14374e-05
3.25885e-05
3.3519e-05
3.42547e-05
3.48168e-05
3.52232e-05
3.54899e-05
3.56311e-05
3.56595e-05
3.55869e-05
3.54238e-05
3.51798e-05
3.48637e-05
3.44832e-05
3.40456e-05
3.35573e-05
3.30241e-05
3.24513e-05
3.18438e-05
3.12058e-05
3.05414e-05
2.9854e-05
2.91469e-05
2.8423e-05
2.7685e-05
2.69352e-05
2.61757e-05
2.54085e-05
2.46353e-05
2.38576e-05
2.30768e-05
2.22942e-05
2.15108e-05
2.07277e-05
1.99456e-05
1.91653e-05
1.83874e-05
1.76124e-05
1.68408e-05
1.60729e-05
1.53091e-05
1.45496e-05
1.37944e-05
1.30437e-05
1.22976e-05
1.1556e-05
1.08189e-05
1.00861e-05
9.3576e-06
8.63309e-06
7.9125e-06
7.19553e-06
6.48201e-06
5.77177e-06
5.06453e-06
4.36029e-06
3.65891e-06
2.9606e-06
2.26564e-06
1.57427e-06
8.85343e-07
1.74443e-07
0.00153135
0.00136314
0.00115384
0.000939567
0.000733659
0.000538131
0.000355308
0.000189201
4.31461e-05
-8.11053e-05
-0.000183008
-0.000262741
-0.000320913
-0.000358385
-0.000376219
-0.000375794
-0.000359021
-0.000328616
-0.000288424
-0.000243531
-0.00019909
-0.000158344
-0.000122711
-9.25474e-05
-6.76162e-05
-4.73543e-05
-3.10647e-05
-1.80436e-05
-7.64985e-06
6.65636e-07
7.35441e-06
1.27787e-05
1.72188e-05
2.08756e-05
2.38971e-05
2.63996e-05
2.84726e-05
3.01867e-05
3.15975e-05
3.27493e-05
3.36762e-05
3.44056e-05
3.49598e-05
3.53577e-05
3.56157e-05
3.57483e-05
3.57685e-05
3.56881e-05
3.55178e-05
3.52671e-05
3.49447e-05
3.45585e-05
3.41155e-05
3.36223e-05
3.30846e-05
3.25077e-05
3.18963e-05
3.12549e-05
3.05871e-05
2.98968e-05
2.91869e-05
2.84605e-05
2.77201e-05
2.69682e-05
2.62067e-05
2.54377e-05
2.46627e-05
2.38835e-05
2.31012e-05
2.23173e-05
2.15326e-05
2.07483e-05
1.99652e-05
1.91839e-05
1.8405e-05
1.76292e-05
1.68568e-05
1.60882e-05
1.53237e-05
1.45635e-05
1.38077e-05
1.30565e-05
1.23099e-05
1.15678e-05
1.08302e-05
1.0097e-05
9.36803e-06
8.64312e-06
7.92213e-06
7.20478e-06
6.49087e-06
5.78022e-06
5.07252e-06
4.36773e-06
3.66567e-06
2.96637e-06
2.26988e-06
1.5758e-06
8.81792e-07
1.64029e-07
0.00141922
0.00127752
0.00109966
0.000911167
0.00072522
0.000546484
0.000378122
0.000223858
8.68806e-05
-3.08935e-05
-0.000128642
-0.000206259
-0.000264105
-0.000302861
-0.00032349
-0.000327307
-0.000316144
-0.000292526
-0.000259844
-0.000222303
-0.000184138
-0.000148279
-0.000116243
-8.85993e-05
-6.5343e-05
-4.61341e-05
-3.04638e-05
-1.7775e-05
-7.53372e-06
7.35246e-07
7.43366e-06
1.28884e-05
1.73582e-05
2.10407e-05
2.40837e-05
2.6601e-05
2.86825e-05
3.03995e-05
3.18084e-05
3.29542e-05
3.38722e-05
3.45909e-05
3.51334e-05
3.55193e-05
3.57655e-05
3.58869e-05
3.58965e-05
3.58062e-05
3.56267e-05
3.53676e-05
3.50374e-05
3.46441e-05
3.41946e-05
3.36954e-05
3.31522e-05
3.25702e-05
3.19542e-05
3.13085e-05
3.0637e-05
2.9943e-05
2.923e-05
2.85006e-05
2.77574e-05
2.7003e-05
2.62392e-05
2.5468e-05
2.46911e-05
2.39101e-05
2.31262e-05
2.23407e-05
2.15547e-05
2.07691e-05
1.99848e-05
1.92024e-05
1.84226e-05
1.76458e-05
1.68725e-05
1.61032e-05
1.53379e-05
1.45771e-05
1.38207e-05
1.30689e-05
1.23218e-05
1.15792e-05
1.08412e-05
1.01075e-05
9.37816e-06
8.65287e-06
7.9315e-06
7.21379e-06
6.4995e-06
5.78844e-06
5.08029e-06
4.37496e-06
3.67219e-06
2.9719e-06
2.27386e-06
1.57723e-06
8.79009e-07
1.5693e-07
0.00132204
0.00119998
0.00104727
0.000881469
0.000714162
0.000551269
0.000396597
0.000253704
0.000125627
1.43753e-05
-7.90166e-05
-0.000154217
-0.000211381
-0.000251035
-0.000274031
-0.000281598
-0.000275438
-0.000257852
-0.000231806
-0.000200815
-0.000168394
-0.000137167
-0.000108662
-8.35883e-05
-6.21222e-05
-4.41071e-05
-2.91979e-05
-1.69703e-05
-6.99156e-06
1.13921e-06
7.77152e-06
1.31987e-05
1.76588e-05
2.13375e-05
2.43778e-05
2.68913e-05
2.89668e-05
3.06752e-05
3.2073e-05
3.32054e-05
3.41085e-05
3.48114e-05
3.53381e-05
3.57084e-05
3.59396e-05
3.60469e-05
3.60434e-05
3.5941e-05
3.57504e-05
3.5481e-05
3.51415e-05
3.47396e-05
3.42823e-05
3.3776e-05
3.32263e-05
3.26384e-05
3.2017e-05
3.13664e-05
3.06903e-05
2.99923e-05
2.92755e-05
2.85426e-05
2.77964e-05
2.70391e-05
2.62727e-05
2.54991e-05
2.47201e-05
2.3937e-05
2.31513e-05
2.23642e-05
2.15766e-05
2.07897e-05
2.0004e-05
1.92205e-05
1.84396e-05
1.76619e-05
1.68877e-05
1.61176e-05
1.53516e-05
1.459e-05
1.3833e-05
1.30807e-05
1.2333e-05
1.159e-05
1.08515e-05
1.01174e-05
9.3877e-06
8.66205e-06
7.94034e-06
7.22228e-06
6.50764e-06
5.7962e-06
5.08762e-06
4.38176e-06
3.6783e-06
2.97702e-06
2.27749e-06
1.57854e-06
8.76907e-07
1.52293e-07
0.00123703
0.00113006
0.000997573
0.000851453
0.000701213
0.000553076
0.000411232
0.000279141
0.000159684
5.49005e-05
-3.403e-05
-0.000106599
-0.000162795
-0.000203002
-0.000227958
-0.000238778
-0.00023702
-0.000224745
-0.000204535
-0.000179356
-0.000152156
-0.000125262
-0.000100162
-7.76521e-05
-5.80419e-05
-4.13226e-05
-2.72882e-05
-1.56325e-05
-6.01646e-06
1.88993e-06
8.38612e-06
1.37303e-05
1.8137e-05
2.17781e-05
2.47893e-05
2.72784e-05
2.93317e-05
3.10186e-05
3.2395e-05
3.35058e-05
3.43873e-05
3.5069e-05
3.5575e-05
3.59258e-05
3.61387e-05
3.62289e-05
3.62096e-05
3.60928e-05
3.58889e-05
3.56075e-05
3.5257e-05
3.48451e-05
3.43788e-05
3.38641e-05
3.33069e-05
3.27122e-05
3.20846e-05
3.14283e-05
3.07471e-05
3.00444e-05
2.93233e-05
2.85866e-05
2.78369e-05
2.70763e-05
2.6307e-05
2.55308e-05
2.47493e-05
2.39641e-05
2.31764e-05
2.23874e-05
2.15982e-05
2.08098e-05
2.00228e-05
1.9238e-05
1.8456e-05
1.76772e-05
1.69022e-05
1.61312e-05
1.53644e-05
1.46022e-05
1.38446e-05
1.30917e-05
1.23435e-05
1.16e-05
1.08611e-05
1.01266e-05
9.39656e-06
8.67058e-06
7.94855e-06
7.23018e-06
6.51521e-06
5.80342e-06
5.09443e-06
4.38806e-06
3.68394e-06
2.9817e-06
2.28078e-06
1.57976e-06
8.75396e-07
1.49389e-07
0.00116206
0.00106706
0.000950972
0.000821766
0.000686931
0.000552419
0.000422536
0.000300642
0.000189468
9.10288e-05
6.59521e-06
-6.3191e-05
-0.000118182
-0.000158632
-0.000185164
-0.00019877
-0.000200847
-0.000193223
-0.000178137
-0.000158109
-0.000135632
-0.000112763
-9.09134e-05
-7.09237e-05
-5.32003e-05
-3.78499e-05
-2.4782e-05
-1.37927e-05
-4.6276e-06
2.97781e-06
9.27347e-06
1.44821e-05
1.87935e-05
2.23643e-05
2.53208e-05
2.77651e-05
2.97798e-05
3.14321e-05
3.27765e-05
3.38572e-05
3.47102e-05
3.53649e-05
3.58455e-05
3.61726e-05
3.63636e-05
3.64336e-05
3.63958e-05
3.62621e-05
3.60429e-05
3.57475e-05
3.53843e-05
3.49609e-05
3.44841e-05
3.396e-05
3.33942e-05
3.27917e-05
3.21571e-05
3.14944e-05
3.08074e-05
3.00994e-05
2.93735e-05
2.86325e-05
2.78788e-05
2.71147e-05
2.63422e-05
2.5563e-05
2.47789e-05
2.39913e-05
2.32014e-05
2.24105e-05
2.16195e-05
2.08294e-05
2.0041e-05
1.92549e-05
1.84716e-05
1.76918e-05
1.69158e-05
1.61439e-05
1.53764e-05
1.46135e-05
1.38553e-05
1.31018e-05
1.23531e-05
1.16092e-05
1.08699e-05
1.01351e-05
9.40467e-06
8.67839e-06
7.95607e-06
7.23742e-06
6.52217e-06
5.81005e-06
5.10069e-06
4.39384e-06
3.68908e-06
2.98595e-06
2.28373e-06
1.58092e-06
8.7438e-07
1.47676e-07
0.00109546
0.0010102
0.000907583
0.000792867
0.000671805
0.000549779
0.000430989
0.000318665
0.000215387
0.000123113
4.31561e-05
-2.37458e-05
-7.73334e-05
-0.000117749
-0.000145501
-0.000161453
-0.000166839
-0.000163267
-0.000152672
-0.000137204
-0.000118989
-9.9835e-05
-8.10645e-05
-6.35262e-05
-4.76917e-05
-3.37559e-05
-2.17225e-05
-1.14756e-05
-2.83587e-06
4.40029e-06
1.0436e-05
1.54591e-05
1.96346e-05
2.31023e-05
2.59778e-05
2.83562e-05
3.03154e-05
3.19194e-05
3.32207e-05
3.42623e-05
3.50793e-05
3.57008e-05
3.61509e-05
3.645e-05
3.66152e-05
3.66617e-05
3.66026e-05
3.64495e-05
3.62127e-05
3.59013e-05
3.55237e-05
3.50872e-05
3.45986e-05
3.40638e-05
3.34883e-05
3.28771e-05
3.22345e-05
3.15647e-05
3.08712e-05
3.01573e-05
2.94261e-05
2.86803e-05
2.79223e-05
2.71542e-05
2.63781e-05
2.55958e-05
2.48087e-05
2.40185e-05
2.32262e-05
2.24332e-05
2.16403e-05
2.08485e-05
2.00585e-05
1.9271e-05
1.84865e-05
1.77056e-05
1.69285e-05
1.61558e-05
1.53875e-05
1.46239e-05
1.3865e-05
1.3111e-05
1.23619e-05
1.16175e-05
1.08778e-05
1.01427e-05
9.41198e-06
8.68544e-06
7.96286e-06
7.24398e-06
6.52847e-06
5.81607e-06
5.10637e-06
4.39908e-06
3.69373e-06
2.98977e-06
2.28638e-06
1.58202e-06
8.73768e-07
1.4678e-07
0.00103589
0.000958784
0.000867355
0.000765059
0.000656233
0.00054557
0.000437013
0.000333623
0.000237824
0.000151492
7.59487e-05
1.19924e-05
-4.00301e-05
-8.01631e-05
-0.000108806
-0.000126697
-0.000134913
-0.000134852
-0.000128184
-0.000116748
-0.000102365
-8.66259e-05
-7.07501e-05
-5.55732e-05
-4.16056e-05
-2.91072e-05
-1.8157e-05
-8.71309e-06
-6.61979e-07
6.14501e-06
1.18671e-05
1.66586e-05
2.06599e-05
2.39931e-05
2.67621e-05
2.90538e-05
3.09406e-05
3.24825e-05
3.37295e-05
3.47227e-05
3.54962e-05
3.60782e-05
3.64924e-05
3.67588e-05
3.68945e-05
3.69141e-05
3.68306e-05
3.66555e-05
3.63987e-05
3.60694e-05
3.56755e-05
3.52244e-05
3.47225e-05
3.41757e-05
3.35894e-05
3.29684e-05
3.2317e-05
3.16392e-05
3.09385e-05
3.02182e-05
2.94811e-05
2.873e-05
2.79672e-05
2.71948e-05
2.64148e-05
2.5629e-05
2.48388e-05
2.40457e-05
2.32508e-05
2.24555e-05
2.16605e-05
2.08669e-05
2.00752e-05
1.92862e-05
1.85005e-05
1.77184e-05
1.69403e-05
1.61666e-05
1.53976e-05
1.46332e-05
1.38738e-05
1.31192e-05
1.23696e-05
1.16248e-05
1.08848e-05
1.01494e-05
9.41843e-06
8.69167e-06
7.96888e-06
7.24979e-06
6.53407e-06
5.82143e-06
5.11144e-06
4.40376e-06
3.69788e-06
2.99316e-06
2.28874e-06
1.58307e-06
8.7347e-07
1.46448e-07
0.000982317
0.000912143
0.000830137
0.00073852
0.00064052
0.00054014
0.000440979
0.000345889
0.000257135
0.000176493
0.000105263
4.42776e-05
-6.05161e-06
-4.5685e-05
-7.4922e-05
-9.4382e-05
-0.00010499
-0.000107953
-0.000104708
-9.68285e-05
-8.58818e-05
-7.32653e-05
-6.00936e-05
-4.71721e-05
-3.50294e-05
-2.39711e-05
-1.41347e-05
-5.53926e-06
1.87204e-06
8.19884e-06
1.35601e-05
1.80782e-05
2.18693e-05
2.50381e-05
2.76757e-05
2.98602e-05
3.16576e-05
3.31235e-05
3.43047e-05
3.52401e-05
3.59622e-05
3.64982e-05
3.6871e-05
3.71001e-05
3.7202e-05
3.71913e-05
3.70804e-05
3.68805e-05
3.66014e-05
3.6252e-05
3.584e-05
3.53725e-05
3.48559e-05
3.42959e-05
3.36976e-05
3.30658e-05
3.24047e-05
3.17181e-05
3.10095e-05
3.0282e-05
2.95385e-05
2.87816e-05
2.80136e-05
2.72365e-05
2.64522e-05
2.56626e-05
2.48689e-05
2.40728e-05
2.32752e-05
2.24774e-05
2.16802e-05
2.08846e-05
2.00912e-05
1.93007e-05
1.85135e-05
1.77302e-05
1.69511e-05
1.61765e-05
1.54066e-05
1.46415e-05
1.38815e-05
1.31264e-05
1.23763e-05
1.16312e-05
1.08908e-05
1.01552e-05
9.42398e-06
8.69703e-06
7.97408e-06
7.25484e-06
6.53895e-06
5.82612e-06
5.11588e-06
4.40786e-06
3.70151e-06
2.99613e-06
2.29082e-06
1.58406e-06
8.73408e-07
1.46506e-07
0.000933878
0.000869703
0.000795727
0.00071333
0.000624892
0.000533779
0.000443209
0.000355801
0.00027365
0.000198423
0.000131378
7.33566e-05
2.48176e-05
-1.41302e-05
-4.36966e-05
-6.4389e-05
-7.69926e-05
-8.25413e-05
-8.22669e-05
-7.75171e-05
-6.96418e-05
-5.98678e-05
-4.9207e-05
-3.84231e-05
-2.80472e-05
-1.84145e-05
-9.70625e-06
-1.99078e-06
4.74074e-06
1.0545e-05
1.55043e-05
1.97116e-05
2.32598e-05
2.6236e-05
2.87186e-05
3.0776e-05
3.24675e-05
3.38437e-05
3.49477e-05
3.58157e-05
3.64785e-05
3.69618e-05
3.72875e-05
3.74744e-05
3.75385e-05
3.74938e-05
3.73523e-05
3.71249e-05
3.68211e-05
3.64494e-05
3.60174e-05
3.55319e-05
3.4999e-05
3.44244e-05
3.3813e-05
3.31693e-05
3.24975e-05
3.18013e-05
3.1084e-05
3.03488e-05
2.95983e-05
2.8835e-05
2.80613e-05
2.72791e-05
2.64903e-05
2.56965e-05
2.48992e-05
2.40997e-05
2.32992e-05
2.24987e-05
2.16992e-05
2.09015e-05
2.01063e-05
1.93141e-05
1.85255e-05
1.77409e-05
1.69607e-05
1.61851e-05
1.54144e-05
1.46487e-05
1.3888e-05
1.31324e-05
1.23819e-05
1.16364e-05
1.08958e-05
1.01599e-05
9.42856e-06
8.70147e-06
7.9784e-06
7.25905e-06
6.54306e-06
5.83008e-06
5.11966e-06
4.41136e-06
3.70461e-06
2.99868e-06
2.29262e-06
1.58497e-06
8.73514e-07
1.46835e-07
0.000889881
0.000830961
0.000763902
0.000689507
0.000609513
0.000526726
0.000443985
0.000363659
0.00028767
0.000217571
0.000154558
9.94679e-05
5.27873e-05
1.46815e-05
-1.49806e-05
-3.66045e-05
-5.08478e-05
-5.8589e-05
-6.08794e-05
-5.88726e-05
-5.37321e-05
-4.65342e-05
-3.81915e-05
-2.94195e-05
-2.07394e-05
-1.2503e-05
-4.92291e-06
1.89381e-06
7.91632e-06
1.31641e-05
1.76871e-05
2.15509e-05
2.48267e-05
2.75845e-05
2.98897e-05
3.18011e-05
3.33708e-05
3.46438e-05
3.56593e-05
3.64505e-05
3.70458e-05
3.74697e-05
3.77426e-05
3.78824e-05
3.79044e-05
3.7822e-05
3.76467e-05
3.7389e-05
3.7058e-05
3.66618e-05
3.62078e-05
3.57026e-05
3.5152e-05
3.45614e-05
3.39356e-05
3.3279e-05
3.25956e-05
3.18889e-05
3.11622e-05
3.04185e-05
2.96604e-05
2.88903e-05
2.81104e-05
2.73227e-05
2.65289e-05
2.57307e-05
2.49294e-05
2.41264e-05
2.33227e-05
2.25195e-05
2.17175e-05
2.09175e-05
2.01203e-05
1.93265e-05
1.85364e-05
1.77505e-05
1.69691e-05
1.61926e-05
1.5421e-05
1.46546e-05
1.38933e-05
1.31373e-05
1.23864e-05
1.16405e-05
1.08997e-05
1.01636e-05
9.43212e-06
8.70494e-06
7.98181e-06
7.2624e-06
6.54635e-06
5.83329e-06
5.12274e-06
4.41424e-06
3.70718e-06
3.00079e-06
2.29412e-06
1.58579e-06
8.73729e-07
1.47352e-07
0.00084975
0.000795481
0.000734437
0.000667023
0.000594491
0.000519174
0.000443546
0.000369729
0.00029947
0.000234203
0.000175055
0.00012284
7.806e-05
4.09246e-05
1.13701e-05
-1.09181e-05
-2.64828e-05
-3.6064e-05
-4.05552e-05
-4.09419e-05
-3.82269e-05
-3.33526e-05
-2.71383e-05
-2.02471e-05
-1.31821e-05
-6.30041e-06
1.63967e-07
6.07485e-06
1.13691e-05
1.60348e-05
2.00934e-05
2.3586e-05
2.65634e-05
2.90794e-05
3.11867e-05
3.29344e-05
3.43668e-05
3.55237e-05
3.64396e-05
3.71446e-05
3.76647e-05
3.80223e-05
3.82367e-05
3.83244e-05
3.83001e-05
3.81762e-05
3.79639e-05
3.7673e-05
3.73123e-05
3.68894e-05
3.64115e-05
3.58847e-05
3.53148e-05
3.47068e-05
3.40654e-05
3.33948e-05
3.26988e-05
3.19808e-05
3.12439e-05
3.0491e-05
2.97247e-05
2.89473e-05
2.81608e-05
2.73671e-05
2.65681e-05
2.57651e-05
2.49596e-05
2.41528e-05
2.33457e-05
2.25395e-05
2.17348e-05
2.09326e-05
2.01333e-05
1.93377e-05
1.8546e-05
1.77588e-05
1.69762e-05
1.61987e-05
1.54263e-05
1.46591e-05
1.38973e-05
1.31408e-05
1.23895e-05
1.16434e-05
1.09024e-05
1.01662e-05
9.43459e-06
8.70737e-06
7.98423e-06
7.26483e-06
6.54879e-06
5.83571e-06
5.12511e-06
4.41648e-06
3.70919e-06
3.00246e-06
2.29533e-06
1.58648e-06
8.74005e-07
1.47998e-07
0.000813001
0.000762885
0.000707113
0.000645822
0.000579898
0.000511274
0.000442096
0.000374245
0.000309298
0.000248566
0.000193103
0.000143689
0.00010083
6.47673e-05
3.54948e-05
1.27775e-05
-3.82549e-06
-1.49322e-05
-2.12976e-05
-2.37617e-05
-2.31878e-05
-2.03994e-05
-1.61286e-05
-1.09849e-05
-5.44662e-06
1.31647e-07
5.50366e-06
1.0512e-05
1.50681e-05
1.91339e-05
2.27065e-05
2.5805e-05
2.84617e-05
3.07152e-05
3.2606e-05
3.41734e-05
3.54543e-05
3.64826e-05
3.72883e-05
3.7898e-05
3.83351e-05
3.86198e-05
3.87698e-05
3.88006e-05
3.87256e-05
3.85566e-05
3.8304e-05
3.7977e-05
3.7584e-05
3.71322e-05
3.66283e-05
3.60783e-05
3.54874e-05
3.48607e-05
3.42025e-05
3.35167e-05
3.28071e-05
3.20769e-05
3.13291e-05
3.05664e-05
2.97913e-05
2.90059e-05
2.82123e-05
2.74123e-05
2.66076e-05
2.57996e-05
2.49895e-05
2.41787e-05
2.33681e-05
2.25587e-05
2.17513e-05
2.09465e-05
2.01451e-05
1.93476e-05
1.85543e-05
1.77657e-05
1.69819e-05
1.62034e-05
1.54301e-05
1.46623e-05
1.38999e-05
1.31429e-05
1.23914e-05
1.1645e-05
1.09038e-05
1.01675e-05
9.4359e-06
8.70871e-06
7.98562e-06
7.26629e-06
6.55032e-06
5.8373e-06
5.12672e-06
4.41804e-06
3.71063e-06
3.00367e-06
2.29622e-06
1.58702e-06
8.74301e-07
1.48733e-07
0.000779227
0.000732842
0.000681728
0.000625833
0.000565772
0.000503146
0.000439808
0.000377415
0.000317378
0.000260889
0.000208923
0.000162221
0.000121282
8.63713e-05
5.75281e-05
3.45868e-05
1.71955e-05
4.84344e-06
-3.10373e-06
-7.35961e-06
-8.66586e-06
-7.74057e-06
-5.23483e-06
-1.70464e-06
2.40027e-06
6.73446e-06
1.10465e-05
1.51647e-05
1.89811e-05
2.24367e-05
2.55076e-05
2.81941e-05
3.05117e-05
3.24849e-05
3.41426e-05
3.55148e-05
3.6631e-05
3.75191e-05
3.82045e-05
3.87101e-05
3.90566e-05
3.92619e-05
3.9342e-05
3.93109e-05
3.9181e-05
3.8963e-05
3.86668e-05
3.8301e-05
3.78731e-05
3.73901e-05
3.68583e-05
3.62832e-05
3.56699e-05
3.5023e-05
3.43467e-05
3.36447e-05
3.29205e-05
3.21772e-05
3.14177e-05
3.06444e-05
2.98599e-05
2.9066e-05
2.82649e-05
2.74582e-05
2.66474e-05
2.58339e-05
2.50191e-05
2.4204e-05
2.33897e-05
2.25769e-05
2.17666e-05
2.09593e-05
2.01556e-05
1.93561e-05
1.85612e-05
1.77711e-05
1.69861e-05
1.62066e-05
1.54325e-05
1.46639e-05
1.3901e-05
1.31436e-05
1.23917e-05
1.16452e-05
1.09039e-05
1.01676e-05
9.43599e-06
8.70888e-06
7.98591e-06
7.26673e-06
6.5509e-06
5.83801e-06
5.12753e-06
4.41891e-06
3.71148e-06
3.00441e-06
2.29679e-06
1.5874e-06
8.7458e-07
1.49526e-07
0.000748081
0.000705067
0.000658092
0.000606977
0.000552129
0.000494881
0.000436826
0.000379417
0.000323908
0.000271376
0.000222718
0.000178628
0.000139593
0.000105891
7.75997e-05
5.46112e-05
3.66512e-05
2.33021e-05
1.40346e-05
8.24475e-06
5.29725e-06
4.56773e-06
5.47945e-06
7.52864e-06
1.02968e-05
1.34524e-05
1.67444e-05
1.99928e-05
2.30756e-05
2.59174e-05
2.84769e-05
3.07382e-05
3.2702e-05
3.43801e-05
3.57904e-05
3.69542e-05
3.78937e-05
3.86308e-05
3.91865e-05
3.95798e-05
3.98284e-05
3.9948e-05
3.99527e-05
3.98549e-05
3.96659e-05
3.93954e-05
3.90523e-05
3.86447e-05
3.81794e-05
3.76631e-05
3.71013e-05
3.64994e-05
3.5862e-05
3.51936e-05
3.44979e-05
3.37786e-05
3.30388e-05
3.22816e-05
3.15095e-05
3.0725e-05
2.99304e-05
2.91276e-05
2.83184e-05
2.75045e-05
2.66873e-05
2.58681e-05
2.50482e-05
2.42287e-05
2.34103e-05
2.25941e-05
2.17806e-05
2.09707e-05
2.01647e-05
1.93631e-05
1.85664e-05
1.77749e-05
1.69887e-05
1.62081e-05
1.54332e-05
1.4664e-05
1.39005e-05
1.31428e-05
1.23906e-05
1.16439e-05
1.09026e-05
1.01663e-05
9.43478e-06
8.70783e-06
7.98505e-06
7.26608e-06
6.55048e-06
5.83781e-06
5.12753e-06
4.41905e-06
3.71171e-06
3.00467e-06
2.29701e-06
1.58759e-06
8.74815e-07
1.50355e-07
0.000719264
0.000679309
0.000636032
0.000589169
0.000538971
0.000486548
0.000433271
0.000380407
0.000329067
0.000280218
0.000234676
0.00019309
0.000155928
0.000123474
9.58338e-05
7.29493e-05
5.46121e-05
4.04854e-05
3.01305e-05
2.30391e-05
1.86686e-05
1.6478e-05
1.59586e-05
1.66566e-05
1.81863e-05
2.0233e-05
2.25511e-05
2.49568e-05
2.7319e-05
2.95495e-05
3.15934e-05
3.3421e-05
3.50202e-05
3.63912e-05
3.75423e-05
3.84862e-05
3.92383e-05
3.98149e-05
4.0232e-05
4.05053e-05
4.06493e-05
4.06772e-05
4.06011e-05
4.04321e-05
4.01798e-05
3.98532e-05
3.94601e-05
3.90078e-05
3.85028e-05
3.79507e-05
3.73571e-05
3.67266e-05
3.60636e-05
3.53722e-05
3.46559e-05
3.39181e-05
3.31618e-05
3.23897e-05
3.16044e-05
3.0808e-05
3.00027e-05
2.91903e-05
2.83726e-05
2.75511e-05
2.67271e-05
2.5902e-05
2.50767e-05
2.42524e-05
2.34299e-05
2.261e-05
2.17933e-05
2.09806e-05
2.01721e-05
1.93685e-05
1.857e-05
1.77769e-05
1.69895e-05
1.62078e-05
1.54321e-05
1.46622e-05
1.38983e-05
1.31402e-05
1.23879e-05
1.16411e-05
1.08997e-05
1.01635e-05
9.4322e-06
8.70547e-06
7.98296e-06
7.26429e-06
6.54901e-06
5.83664e-06
5.12665e-06
4.41843e-06
3.71129e-06
3.0044e-06
2.29686e-06
1.58757e-06
8.74979e-07
1.51202e-07
0.000692519
0.000655351
0.000615394
0.000572327
0.000526287
0.000478199
0.000429242
0.000380521
0.000333013
0.000287582
0.000244969
0.000205775
0.000170444
0.000139259
0.000112349
8.96966e-05
7.11482e-05
5.64367e-05
4.52016e-05
3.70174e-05
3.14228e-05
2.79507e-05
2.61543e-05
2.56274e-05
2.60167e-05
2.70274e-05
2.84225e-05
3.00183e-05
3.16786e-05
3.33061e-05
3.48353e-05
3.6225e-05
3.74524e-05
3.85076e-05
3.93899e-05
4.01045e-05
4.066e-05
4.10674e-05
4.13383e-05
4.14845e-05
4.15174e-05
4.14479e-05
4.12862e-05
4.10414e-05
4.0722e-05
4.03358e-05
3.98896e-05
3.939e-05
3.88426e-05
3.82528e-05
3.76253e-05
3.69645e-05
3.62744e-05
3.55586e-05
3.48205e-05
3.40632e-05
3.32893e-05
3.25015e-05
3.17021e-05
3.08931e-05
3.00766e-05
2.92541e-05
2.84274e-05
2.75979e-05
2.67668e-05
2.59353e-05
2.51044e-05
2.42751e-05
2.34482e-05
2.26245e-05
2.18045e-05
2.09888e-05
2.01778e-05
1.9372e-05
1.85717e-05
1.77771e-05
1.69884e-05
1.62057e-05
1.54291e-05
1.46586e-05
1.38943e-05
1.31359e-05
1.23834e-05
1.16366e-05
1.08953e-05
1.01592e-05
9.42815e-06
8.70173e-06
7.97958e-06
7.2613e-06
6.54642e-06
5.83446e-06
5.12487e-06
4.41701e-06
3.7102e-06
3.00361e-06
2.29632e-06
1.58731e-06
8.7505e-07
1.52056e-07
0.000667622
0.000633
0.000596035
0.00055637
0.000514057
0.00046987
0.000424822
0.000379875
0.000335886
0.000293623
0.000253757
0.000216838
0.000183285
0.000153378
0.00012726
0.000104945
8.63285e-05
7.12007e-05
5.9269e-05
5.01793e-05
4.35415e-05
3.89536e-05
3.60253e-05
3.43949e-05
3.37413e-05
3.37905e-05
3.43169e-05
3.51404e-05
3.61224e-05
3.71602e-05
3.81801e-05
3.9132e-05
3.9984e-05
4.07176e-05
4.13241e-05
4.18017e-05
4.21531e-05
4.2384e-05
4.25017e-05
4.25144e-05
4.24305e-05
4.22585e-05
4.20064e-05
4.16817e-05
4.12915e-05
4.08423e-05
4.03401e-05
3.97905e-05
3.91985e-05
3.85687e-05
3.79055e-05
3.72127e-05
3.64939e-05
3.57525e-05
3.49914e-05
3.42134e-05
3.3421e-05
3.26167e-05
3.18024e-05
3.09802e-05
3.01517e-05
2.93187e-05
2.84825e-05
2.76445e-05
2.68059e-05
2.59678e-05
2.5131e-05
2.42966e-05
2.34651e-05
2.26374e-05
2.18139e-05
2.09952e-05
2.01816e-05
1.93736e-05
1.85714e-05
1.77752e-05
1.69852e-05
1.62015e-05
1.54241e-05
1.46531e-05
1.38883e-05
1.31296e-05
1.2377e-05
1.16302e-05
1.08891e-05
1.01533e-05
9.42256e-06
8.69653e-06
7.97483e-06
7.25703e-06
6.54266e-06
5.83122e-06
5.12213e-06
4.41477e-06
3.70842e-06
3.00225e-06
2.29538e-06
1.58679e-06
8.75009e-07
1.52906e-07
0.000644375
0.000612087
0.000577828
0.000541224
0.000502261
0.000461588
0.000420079
0.000378569
0.000337808
0.000298479
0.000261181
0.000226421
0.000194588
0.000165954
0.000140674
0.000118785
0.000100221
8.48234e-05
7.2357e-05
6.25294e-05
5.5012e-05
4.94611e-05
4.55368e-05
4.29188e-05
4.13176e-05
4.04806e-05
4.01952e-05
4.02874e-05
4.06193e-05
4.1085e-05
4.16053e-05
4.21233e-05
4.25996e-05
4.30086e-05
4.33346e-05
4.35697e-05
4.3711e-05
4.37593e-05
4.3718e-05
4.35917e-05
4.3386e-05
4.31067e-05
4.276e-05
4.23515e-05
4.1887e-05
4.13717e-05
4.08106e-05
4.02085e-05
3.95696e-05
3.88979e-05
3.81971e-05
3.74707e-05
3.67218e-05
3.59533e-05
3.5168e-05
3.43684e-05
3.35566e-05
3.27348e-05
3.1905e-05
3.10688e-05
3.02279e-05
2.93837e-05
2.85376e-05
2.76908e-05
2.68444e-05
2.59993e-05
2.51564e-05
2.43166e-05
2.34804e-05
2.26485e-05
2.18214e-05
2.09995e-05
2.01833e-05
1.9373e-05
1.85689e-05
1.77712e-05
1.69799e-05
1.61951e-05
1.5417e-05
1.46454e-05
1.38802e-05
1.31214e-05
1.23687e-05
1.16221e-05
1.08811e-05
1.01457e-05
9.41533e-06
8.68979e-06
7.96863e-06
7.25142e-06
6.53767e-06
5.82685e-06
5.1184e-06
4.41165e-06
3.70589e-06
3.0003e-06
2.294e-06
1.58599e-06
8.74838e-07
1.53744e-07
0.000622608
0.000592462
0.00056066
0.000526816
0.000490871
0.00045337
0.000415068
0.000376689
0.00033889
0.000302272
0.000267374
0.000234656
0.000204479
0.000177105
0.000152693
0.0001313
0.000112892
9.73515e-05
8.44927e-05
7.40762e-05
6.58272e-05
5.94531e-05
5.46595e-05
5.11644e-05
4.87081e-05
4.70598e-05
4.6021e-05
4.54258e-05
4.51391e-05
4.5054e-05
4.50881e-05
4.51796e-05
4.52833e-05
4.53675e-05
4.54108e-05
4.53997e-05
4.53265e-05
4.51876e-05
4.49824e-05
4.47125e-05
4.43804e-05
4.39898e-05
4.35446e-05
4.30488e-05
4.25068e-05
4.19225e-05
4.13e-05
4.0643e-05
3.9955e-05
3.92394e-05
3.84994e-05
3.77378e-05
3.69573e-05
3.61606e-05
3.535e-05
3.45276e-05
3.36955e-05
3.28556e-05
3.20094e-05
3.11587e-05
3.03047e-05
2.9449e-05
2.85925e-05
2.77365e-05
2.68819e-05
2.60296e-05
2.51803e-05
2.43348e-05
2.34937e-05
2.26575e-05
2.18267e-05
2.10017e-05
2.01827e-05
1.93701e-05
1.8564e-05
1.77647e-05
1.69721e-05
1.61864e-05
1.54075e-05
1.46354e-05
1.38699e-05
1.31109e-05
1.23583e-05
1.16118e-05
1.08712e-05
1.01362e-05
9.40636e-06
8.68141e-06
7.96091e-06
7.2444e-06
6.53138e-06
5.82131e-06
5.11361e-06
4.40761e-06
3.7026e-06
2.99774e-06
2.29215e-06
1.58489e-06
8.7452e-07
1.54564e-07
0.000602169
0.000573994
0.000544426
0.00051308
0.00047986
0.000445227
0.000409834
0.000374309
0.000339225
0.000305113
0.000272454
0.000241663
0.000213075
0.000186939
0.000163414
0.000142573
0.000124406
0.000108832
9.57053e-05
8.48323e-05
7.59848e-05
6.89151e-05
6.33697e-05
5.91017e-05
5.58795e-05
5.34937e-05
5.17607e-05
5.05239e-05
4.96527e-05
4.90415e-05