/*--------------------------------*- C++ -*----------------------------------*\
| =========                 |                                                 |
| \\      /  F ield         | OpenFOAM: The Open Source CFD Toolbox           |
|  \\    /   O peration     | Version:  2.3.0                                 |
|   \\  /    A nd           | Web:      www.OpenFOAM.org                      |
|    \\/     M anipulation  |                                                 |
\*---------------------------------------------------------------------------*/
FoamFile
{
    version     2.0;
    format      ascii;
    class       surfaceScalarField;
    location    "0.05";
    object      phi;
}
// * * * * * * * * * * * * * * * * * * * * * * * * * * * * * * * * * * * * * //

dimensions      [0 3 -1 0 0 0 0];

internalField   nonuniform List<scalar> 
17305
(
2.84348e-08
2.85261e-09
-3.12874e-08
2.55942e-08
2.84057e-09
2.29326e-08
2.66156e-09
2.04851e-08
2.44757e-09
1.8268e-08
2.21707e-09
1.62926e-08
1.97543e-09
1.45618e-08
1.73083e-09
1.30707e-08
1.49108e-09
1.1808e-08
1.26271e-09
1.0757e-08
1.05091e-09
9.89788e-09
8.59171e-10
9.20891e-09
6.88967e-10
8.6692e-09
5.39711e-10
8.25984e-09
4.09358e-10
7.96424e-09
2.95606e-10
7.76797e-09
1.96262e-10
7.66111e-09
1.06861e-10
7.63545e-09
2.56635e-11
7.66228e-09
-2.68274e-11
7.71079e-09
-4.85124e-11
7.76296e-09
-5.21739e-11
7.81025e-09
-4.72824e-11
7.84947e-09
-3.9226e-11
7.88034e-09
-3.08655e-11
7.90377e-09
-2.34344e-11
7.92109e-09
-1.73157e-11
7.93359e-09
-1.25053e-11
7.94245e-09
-8.8557e-12
7.94861e-09
-6.16176e-12
7.95283e-09
-4.21624e-12
7.95566e-09
-2.83482e-12
7.95753e-09
-1.86535e-12
7.95871e-09
-1.18764e-12
7.95943e-09
-7.11908e-13
7.9598e-09
-3.78078e-13
7.95993e-09
-1.26841e-13
7.95985e-09
7.7445e-14
7.9596e-09
2.57244e-13
7.9592e-09
3.92739e-13
7.95871e-09
4.91565e-13
7.95815e-09
5.65081e-13
7.95752e-09
6.21542e-13
7.95686e-09
6.65962e-13
7.95616e-09
7.01258e-13
7.95543e-09
7.29167e-13
7.95468e-09
7.50861e-13
7.95391e-09
7.67235e-13
7.95313e-09
7.78971e-13
7.95234e-09
7.86711e-13
7.95155e-09
7.91013e-13
7.95076e-09
7.92336e-13
7.94997e-09
7.91077e-13
7.94918e-09
7.87616e-13
7.9484e-09
7.82263e-13
7.94763e-09
7.75295e-13
7.94686e-09
7.66943e-13
7.9461e-09
7.5739e-13
7.94535e-09
7.46818e-13
7.94462e-09
7.35391e-13
7.9439e-09
7.23226e-13
7.94319e-09
7.10421e-13
7.94249e-09
6.97088e-13
7.9418e-09
6.83307e-13
7.94114e-09
6.69141e-13
7.94048e-09
6.5465e-13
7.93984e-09
6.39901e-13
7.93922e-09
6.24928e-13
7.93861e-09
6.09772e-13
7.93801e-09
5.94477e-13
7.93743e-09
5.79065e-13
7.93687e-09
5.63566e-13
7.93632e-09
5.47974e-13
7.93579e-09
5.32338e-13
7.93527e-09
5.16644e-13
7.93477e-09
5.00939e-13
7.93429e-09
4.85197e-13
7.93382e-09
4.69459e-13
7.93336e-09
4.53701e-13
7.93292e-09
4.37952e-13
7.9325e-09
4.22201e-13
7.9321e-09
4.06447e-13
7.93171e-09
3.90708e-13
7.93133e-09
3.74959e-13
7.93097e-09
3.59237e-13
7.93063e-09
3.43507e-13
7.9303e-09
3.27797e-13
7.92999e-09
3.121e-13
7.92969e-09
2.96421e-13
7.92941e-09
2.80775e-13
7.92915e-09
2.65159e-13
7.9289e-09
2.49618e-13
7.92866e-09
2.34189e-13
7.92844e-09
2.18973e-13
7.92824e-09
2.04098e-13
7.92805e-09
1.89838e-13
7.92787e-09
1.76714e-13
7.92771e-09
1.65867e-13
7.92755e-09
1.60135e-13
7.92738e-09
1.62984e-13
3.43097e-13
3.34804e-08
3.10037e-09
-3.37281e-08
3.29232e-08
3.39772e-09
3.21398e-08
3.445e-09
3.12088e-08
3.37857e-09
3.01872e-08
3.23862e-09
2.91225e-08
3.04016e-09
2.80536e-08
2.79968e-09
2.70115e-08
2.53319e-09
2.60202e-08
2.25402e-09
2.50984e-08
1.9727e-09
2.42608e-08
1.6968e-09
2.3519e-08
1.4308e-09
2.28821e-08
1.17661e-09
2.23565e-08
9.34979e-10
2.1945e-08
7.07039e-10
2.16462e-08
4.95039e-10
2.14494e-08
3.03698e-10
2.13347e-08
1.40344e-10
2.12925e-08
1.54308e-11
2.13086e-08
-6.46821e-11
2.1358e-08
-1.01524e-10
2.14213e-08
-1.10624e-10
2.14861e-08
-1.04006e-10
2.15451e-08
-8.9819e-11
2.15948e-08
-7.3182e-11
2.16345e-08
-5.70035e-11
2.16647e-08
-4.27364e-11
2.16868e-08
-3.09354e-11
2.17023e-08
-2.16241e-11
2.17126e-08
-1.4548e-11
2.17191e-08
-9.33605e-12
2.17228e-08
-5.59859e-12
2.17246e-08
-2.97974e-12
2.17251e-08
-1.16741e-12
2.17246e-08
1.55104e-13
2.17232e-08
1.19565e-12
2.17213e-08
1.97395e-12
2.17191e-08
2.51485e-12
2.17166e-08
2.8684e-12
2.1714e-08
3.09235e-12
2.17113e-08
3.23206e-12
2.17086e-08
3.31773e-12
2.17059e-08
3.36784e-12
2.17032e-08
3.39339e-12
2.17006e-08
3.40098e-12
2.16979e-08
3.3947e-12
2.16953e-08
3.37733e-12
2.16927e-08
3.3509e-12
2.16902e-08
3.31704e-12
2.16877e-08
3.27708e-12
2.16853e-08
3.23208e-12
2.16829e-08
3.18296e-12
2.16806e-08
3.13051e-12
2.16783e-08
3.07538e-12
2.1676e-08
3.01811e-12
2.16738e-08
2.95918e-12
2.16717e-08
2.89896e-12
2.16696e-08
2.83776e-12
2.16676e-08
2.77588e-12
2.16656e-08
2.71352e-12
2.16636e-08
2.65087e-12
2.16617e-08
2.58808e-12
2.16599e-08
2.5253e-12
2.16581e-08
2.4626e-12
2.16564e-08
2.40007e-12
2.16547e-08
2.3378e-12
2.1653e-08
2.27583e-12
2.16514e-08
2.21421e-12
2.16498e-08
2.15296e-12
2.16483e-08
2.09211e-12
2.16469e-08
2.03168e-12
2.16454e-08
1.97167e-12
2.16441e-08
1.91209e-12
2.16427e-08
1.85292e-12
2.16414e-08
1.79418e-12
2.16402e-08
1.73585e-12
2.1639e-08
1.67792e-12
2.16378e-08
1.62038e-12
2.16367e-08
1.56321e-12
2.16356e-08
1.50638e-12
2.16345e-08
1.44988e-12
2.16335e-08
1.39369e-12
2.16326e-08
1.33778e-12
2.16317e-08
1.28215e-12
2.16308e-08
1.22676e-12
2.16299e-08
1.17161e-12
2.16291e-08
1.11668e-12
2.16284e-08
1.06195e-12
2.16276e-08
1.00744e-12
2.16269e-08
9.53152e-13
2.16263e-08
8.99145e-13
2.16257e-08
8.45516e-13
2.16251e-08
7.92454e-13
2.16246e-08
7.40295e-13
2.16241e-08
6.89678e-13
2.16236e-08
6.41915e-13
2.16232e-08
5.99883e-13
2.16228e-08
5.70671e-13
2.16223e-08
5.86374e-13
7.87735e-13
3.48729e-08
2.92857e-09
-3.47011e-08
3.49618e-08
3.3089e-09
3.49296e-08
3.47719e-09
3.47839e-08
3.52429e-09
3.45372e-08
3.48527e-09
3.4206e-08
3.37137e-09
3.38102e-08
3.1955e-09
3.33707e-08
2.97266e-09
3.29081e-08
2.71661e-09
3.2442e-08
2.43879e-09
3.19908e-08
2.148e-09
3.15712e-08
1.85044e-09
3.11974e-08
1.55039e-09
3.08805e-08
1.25188e-09
3.06272e-08
9.60304e-10
3.04389e-08
6.83409e-10
3.03106e-08
4.32006e-10
3.02313e-08
2.19647e-10
3.01892e-08
5.75165e-11
3.01792e-08
-5.47511e-11
3.01951e-08
-1.17401e-10
3.02288e-08
-1.44253e-10
3.02721e-08
-1.47311e-10
3.03184e-08
-1.36169e-10
3.0363e-08
-1.17754e-10
3.04027e-08
-9.67398e-11
3.0436e-08
-7.60582e-11
3.04625e-08
-5.73722e-11
3.04823e-08
-4.14583e-11
3.04963e-08
-2.85097e-11
3.05053e-08
-1.83648e-11
3.05104e-08
-1.06759e-11
3.05124e-08
-5.0149e-12
3.05121e-08
-8.88852e-13
3.05101e-08
2.14701e-12
3.0507e-08
4.34412e-12
3.05031e-08
5.84037e-12
3.04988e-08
6.79583e-12
3.04944e-08
7.36484e-12
3.04898e-08
7.67589e-12
3.04852e-08
7.82245e-12
3.04806e-08
7.86628e-12
3.04762e-08
7.84585e-12
3.04718e-08
7.78436e-12
3.04675e-08
7.69575e-12
3.04633e-08
7.58849e-12
3.04592e-08
7.46799e-12
3.04552e-08
7.33786e-12
3.04513e-08
7.20068e-12
3.04475e-08
7.0584e-12
3.04438e-08
6.91254e-12
3.04403e-08
6.76426e-12
3.04368e-08
6.61453e-12
3.04334e-08
6.4641e-12
3.04301e-08
6.31358e-12
3.04269e-08
6.16347e-12
3.04238e-08
6.01414e-12
3.04208e-08
5.86589e-12
3.04178e-08
5.71895e-12
3.04149e-08
5.57351e-12
3.04122e-08
5.42969e-12
3.04095e-08
5.28758e-12
3.04068e-08
5.14724e-12
3.04043e-08
5.00873e-12
3.04018e-08
4.87203e-12
3.03994e-08
4.73717e-12
3.03971e-08
4.60412e-12
3.03948e-08
4.47286e-12
3.03927e-08
4.34335e-12
3.03905e-08
4.21556e-12
3.03885e-08
4.08943e-12
3.03865e-08
3.96491e-12
3.03845e-08
3.84194e-12
3.03827e-08
3.72046e-12
3.03809e-08
3.60041e-12
3.03791e-08
3.48172e-12
3.03774e-08
3.36434e-12
3.03758e-08
3.24818e-12
3.03742e-08
3.13318e-12
3.03727e-08
3.01927e-12
3.03713e-08
2.90637e-12
3.03699e-08
2.79443e-12
3.03685e-08
2.68336e-12
3.03672e-08
2.57313e-12
3.0366e-08
2.46366e-12
3.03648e-08
2.35488e-12
3.03637e-08
2.24676e-12
3.03626e-08
2.13925e-12
3.03616e-08
2.03232e-12
3.03606e-08
1.92598e-12
3.03597e-08
1.82028e-12
3.03588e-08
1.71535e-12
3.0358e-08
1.61146e-12
3.03572e-08
1.50911e-12
3.03565e-08
1.40928e-12
3.03558e-08
1.31398e-12
3.03552e-08
1.22767e-12
3.03546e-08
1.16182e-12
3.03541e-08
1.15559e-12
1.29454e-12
3.57057e-08
2.72113e-09
-3.54983e-08
3.59212e-08
3.09343e-09
3.60992e-08
3.2992e-09
3.62284e-08
3.39506e-09
3.63039e-08
3.40974e-09
3.63236e-08
3.35168e-09
3.62901e-08
3.22904e-09
3.62099e-08
3.05285e-09
3.60923e-08
2.8342e-09
3.59482e-08
2.58287e-09
3.57893e-08
2.30688e-09
3.56271e-08
2.0127e-09
3.54715e-08
1.70596e-09
3.53305e-08
1.39292e-09
3.52089e-08
1.08185e-09
3.51086e-08
7.83746e-10
3.50283e-08
5.12254e-10
3.49655e-08
2.82439e-10
3.49175e-08
1.05538e-10
3.48821e-08
-1.93064e-11
3.48613e-08
-9.65966e-11
3.48536e-08
-1.36579e-10
3.48562e-08
-1.49909e-10
3.48657e-08
-1.45692e-10
3.4879e-08
-1.31038e-10
3.48934e-08
-1.1117e-10
3.49071e-08
-8.97046e-11
3.49187e-08
-6.89758e-11
3.49276e-08
-5.03429e-11
3.49335e-08
-3.44553e-11
3.49366e-08
-2.14723e-11
3.49372e-08
-1.12401e-11
3.49356e-08
-3.4069e-12
3.49322e-08
2.47849e-12
3.49276e-08
6.77172e-12
3.49222e-08
9.75168e-12
3.49163e-08
1.16979e-11
3.49102e-08
1.28775e-11
3.49041e-08
1.35203e-11
3.48979e-08
1.38066e-11
3.48919e-08
1.38657e-11
3.4886e-08
1.37836e-11
3.48802e-08
1.36154e-11
3.48746e-08
1.33949e-11
3.48692e-08
1.31428e-11
3.48639e-08
1.28716e-11
3.48588e-08
1.25892e-11
3.48538e-08
1.23008e-11
3.4849e-08
1.20096e-11
3.48443e-08
1.17179e-11
3.48398e-08
1.14275e-11
3.48354e-08
1.11394e-11
3.48312e-08
1.08546e-11
3.48271e-08
1.05738e-11
3.48231e-08
1.02972e-11
3.48192e-08
1.00253e-11
3.48155e-08
9.75826e-12
3.48119e-08
9.49612e-12
3.48083e-08
9.23896e-12
3.48049e-08
8.98677e-12
3.48016e-08
8.7395e-12
3.47984e-08
8.49705e-12
3.47953e-08
8.25933e-12
3.47923e-08
8.02622e-12
3.47894e-08
7.79756e-12
3.47865e-08
7.57323e-12
3.47838e-08
7.35305e-12
3.47811e-08
7.13688e-12
3.47785e-08
6.92457e-12
3.4776e-08
6.71594e-12
3.47736e-08
6.51083e-12
3.47713e-08
6.3091e-12
3.4769e-08
6.11056e-12
3.47668e-08
5.91508e-12
3.47647e-08
5.72249e-12
3.47626e-08
5.53265e-12
3.47606e-08
5.34539e-12
3.47587e-08
5.16059e-12
3.47569e-08
4.97808e-12
3.47551e-08
4.79772e-12
3.47534e-08
4.61937e-12
3.47517e-08
4.4429e-12
3.47502e-08
4.26818e-12
3.47486e-08
4.09508e-12
3.47472e-08
3.92349e-12
3.47458e-08
3.75327e-12
3.47444e-08
3.58435e-12
3.47432e-08
3.4166e-12
3.47419e-08
3.24999e-12
3.47408e-08
3.08448e-12
3.47397e-08
2.9201e-12
3.47386e-08
2.757e-12
3.47377e-08
2.59547e-12
3.47367e-08
2.43612e-12
3.47359e-08
2.28014e-12
3.4735e-08
2.13e-12
3.47343e-08
1.99097e-12
3.47336e-08
1.87575e-12
3.47329e-08
1.81758e-12
1.8615e-12
3.64556e-08
2.53895e-09
-3.62734e-08
3.66711e-08
2.87799e-09
3.6883e-08
3.08727e-09
3.7079e-08
3.19907e-09
3.72524e-08
3.23632e-09
3.73971e-08
3.20698e-09
3.75093e-08
3.11683e-09
3.75883e-08
2.97389e-09
3.76357e-08
2.78677e-09
3.76552e-08
2.56338e-09
3.76515e-08
2.3106e-09
3.76296e-08
2.03458e-09
3.75942e-08
1.74142e-09
3.75487e-08
1.43836e-09
3.74958e-08
1.13479e-09
3.7437e-08
8.42567e-10
3.73738e-08
5.75429e-10
3.73089e-08
3.47332e-10
3.72459e-08
1.6854e-10
3.71873e-08
3.929e-11
3.71367e-08
-4.59816e-11
3.70955e-08
-9.54222e-11
3.70636e-08
-1.1803e-10
3.70399e-08
-1.21901e-10
3.70225e-08
-1.13709e-10
3.701e-08
-9.86121e-11
3.70006e-08
-8.03849e-11
3.69933e-08
-6.16291e-11
3.6987e-08
-4.40044e-11
3.6981e-08
-2.84467e-11
3.69748e-08
-1.53633e-11
3.69684e-08
-4.77913e-12
3.69615e-08
3.50438e-12
3.69542e-08
9.75965e-12
3.69467e-08
1.42639e-11
3.69391e-08
1.73295e-11
3.69315e-08
1.92705e-11
3.6924e-08
2.03775e-11
3.69167e-08
2.08974e-11
3.69095e-08
2.10233e-11
3.69024e-08
2.08956e-11
3.68956e-08
2.06104e-11
3.6889e-08
2.02302e-11
3.68826e-08
1.97952e-11
3.68764e-08
1.933e-11
3.68704e-08
1.88501e-11
3.68646e-08
1.83649e-11
3.68591e-08
1.78805e-11
3.68537e-08
1.74006e-11
3.68485e-08
1.69277e-11
3.68434e-08
1.64633e-11
3.68386e-08
1.60084e-11
3.68338e-08
1.55635e-11
3.68293e-08
1.5129e-11
3.68249e-08
1.47049e-11
3.68206e-08
1.42912e-11
3.68165e-08
1.38878e-11
3.68125e-08
1.34944e-11
3.68086e-08
1.31108e-11
3.68049e-08
1.27367e-11
3.68012e-08
1.23718e-11
3.67977e-08
1.20157e-11
3.67943e-08
1.16681e-11
3.6791e-08
1.13286e-11
3.67878e-08
1.09968e-11
3.67847e-08
1.06725e-11
3.67817e-08
1.03553e-11
3.67788e-08
1.00448e-11
3.6776e-08
9.74078e-12
3.67733e-08
9.44284e-12
3.67706e-08
9.15071e-12
3.67681e-08
8.86408e-12
3.67656e-08
8.58267e-12
3.67632e-08
8.3062e-12
3.67609e-08
8.0344e-12
3.67586e-08
7.76702e-12
3.67565e-08
7.50379e-12
3.67544e-08
7.24447e-12
3.67524e-08
6.98882e-12
3.67505e-08
6.7366e-12
3.67486e-08
6.48758e-12
3.67468e-08
6.24157e-12
3.67451e-08
5.99835e-12
3.67434e-08
5.75772e-12
3.67418e-08
5.5195e-12
3.67403e-08
5.28348e-12
3.67388e-08
5.04952e-12
3.67374e-08
4.81746e-12
3.67361e-08
4.58719e-12
3.67348e-08
4.35863e-12
3.67336e-08
4.13179e-12
3.67324e-08
3.90679e-12
3.67313e-08
3.68393e-12
3.67303e-08
3.46387e-12
3.67293e-08
3.24789e-12
3.67284e-08
3.03862e-12
3.67276e-08
2.84142e-12
3.67268e-08
2.66796e-12
3.67261e-08
2.54258e-12
2.48295e-12
3.71986e-08
2.38393e-09
-3.70436e-08
3.73916e-08
2.68493e-09
3.75937e-08
2.88521e-09
3.77925e-08
3.00027e-09
3.7982e-08
3.04686e-09
3.81564e-08
3.03253e-09
3.83111e-08
2.96213e-09
3.84431e-08
2.84186e-09
3.85512e-08
2.67874e-09
3.86351e-08
2.47941e-09
3.86958e-08
2.24995e-09
3.87342e-08
1.99618e-09
3.87513e-08
1.72425e-09
3.87481e-08
1.44156e-09
3.87255e-08
1.15742e-09
3.86849e-08
8.83129e-10
3.86292e-08
6.31203e-10
3.85628e-08
4.13706e-10
3.8492e-08
2.39292e-10
3.84219e-08
1.09392e-10
3.83563e-08
1.96139e-11
3.82979e-08
-3.6944e-11
3.82475e-08
-6.7681e-11
3.82052e-08
-7.9606e-11
3.81703e-08
-7.87446e-11
3.81416e-08
-6.9937e-11
3.81181e-08
-5.68603e-11
3.80986e-08
-4.21596e-11
3.80822e-08
-2.76174e-11
3.80681e-08
-1.4328e-11
3.80556e-08
-2.8599e-12
3.80442e-08
6.59277e-12
3.80337e-08
1.40541e-11
3.80237e-08
1.96776e-11
3.80143e-08
2.36901e-11
3.80053e-08
2.63623e-11
3.79966e-08
2.79751e-11
3.79882e-08
2.87924e-11
3.798e-08
2.90419e-11
3.79721e-08
2.89051e-11
3.79645e-08
2.85173e-11
3.79571e-08
2.79735e-11
3.795e-08
2.73379e-11
3.79432e-08
2.66523e-11
3.79366e-08
2.59432e-11
3.79302e-08
2.52273e-11
3.7924e-08
2.4515e-11
3.79181e-08
2.38127e-11
3.79124e-08
2.31243e-11
3.79069e-08
2.24518e-11
3.79015e-08
2.17967e-11
3.78964e-08
2.11594e-11
3.78914e-08
2.05402e-11
3.78866e-08
1.99388e-11
3.78819e-08
1.93549e-11
3.78774e-08
1.87881e-11
3.78731e-08
1.82378e-11
3.78689e-08
1.77034e-11
3.78648e-08
1.71843e-11
3.78609e-08
1.66797e-11
3.78571e-08
1.61891e-11
3.78534e-08
1.57118e-11
3.78498e-08
1.52472e-11
3.78463e-08
1.47946e-11
3.7843e-08
1.43535e-11
3.78397e-08
1.39232e-11
3.78366e-08
1.35033e-11
3.78335e-08
1.30932e-11
3.78306e-08
1.26923e-11
3.78277e-08
1.23003e-11
3.78249e-08
1.19165e-11
3.78223e-08
1.15406e-11
3.78197e-08
1.11722e-11
3.78172e-08
1.08107e-11
3.78147e-08
1.04559e-11
3.78124e-08
1.01073e-11
3.78101e-08
9.76457e-12
3.7808e-08
9.42736e-12
3.78059e-08
9.09531e-12
3.78038e-08
8.76811e-12
3.78019e-08
8.44543e-12
3.78e-08
8.12698e-12
3.77982e-08
7.81246e-12
3.77964e-08
7.50159e-12
3.77947e-08
7.19411e-12
3.77931e-08
6.88975e-12
3.77916e-08
6.5883e-12
3.77901e-08
6.28952e-12
3.77887e-08
5.99325e-12
3.77874e-08
5.69937e-12
3.77861e-08
5.40784e-12
3.77849e-08
5.11875e-12
3.77837e-08
4.83238e-12
3.77827e-08
4.54938e-12
3.77816e-08
4.27106e-12
3.77807e-08
4e-12
3.77798e-08
3.74122e-12
3.77789e-08
3.50448e-12
3.77782e-08
3.3061e-12
3.14637e-12
3.79462e-08
2.25005e-09
-3.78123e-08
3.81166e-08
2.51456e-09
3.83009e-08
2.70091e-09
3.84872e-08
2.81399e-09
3.86693e-08
2.86472e-09
3.88423e-08
2.85956e-09
3.90016e-08
2.80281e-09
3.91439e-08
2.69953e-09
3.92671e-08
2.55561e-09
3.93696e-08
2.37689e-09
3.94506e-08
2.16895e-09
3.95094e-08
1.93735e-09
3.95456e-08
1.68812e-09
3.95587e-08
1.42843e-09
3.95491e-08
1.16697e-09
3.95183e-08
9.13966e-10
3.94692e-08
6.80346e-10
3.94065e-08
4.76324e-10
3.93367e-08
3.09156e-10
3.92653e-08
1.80778e-10
3.91966e-08
8.83138e-11
3.91333e-08
2.63365e-11
3.9077e-08
-1.13352e-11
3.9028e-08
-3.06665e-11
3.89863e-08
-3.69784e-11
3.8951e-08
-3.46923e-11
3.89214e-08
-2.72767e-11
3.88966e-08
-1.73134e-11
3.88756e-08
-6.61546e-12
3.88576e-08
3.63503e-12
3.8842e-08
1.2745e-11
3.88282e-08
2.03799e-11
3.88158e-08
2.6446e-11
3.88045e-08
3.10019e-11
3.8794e-08
3.41978e-11
3.87841e-08
3.62384e-11
3.87748e-08
3.73497e-11
3.87658e-08
3.77519e-11
3.87572e-08
3.76405e-11
3.87489e-08
3.71757e-11
3.8741e-08
3.64802e-11
3.87333e-08
3.56426e-11
3.87259e-08
3.47244e-11
3.87188e-08
3.37666e-11
3.87119e-08
3.27958e-11
3.87053e-08
3.18289e-11
3.8699e-08
3.08763e-11
3.86929e-08
2.99444e-11
3.86869e-08
2.90367e-11
3.86812e-08
2.81551e-11
3.86757e-08
2.73004e-11
3.86704e-08
2.64727e-11
3.86653e-08
2.56716e-11
3.86603e-08
2.48964e-11
3.86555e-08
2.41464e-11
3.86509e-08
2.34204e-11
3.86464e-08
2.27176e-11
3.86421e-08
2.20369e-11
3.86379e-08
2.13772e-11
3.86338e-08
2.07375e-11
3.86299e-08
2.01168e-11
3.86261e-08
1.95142e-11
3.86224e-08
1.89286e-11
3.86189e-08
1.83592e-11
3.86154e-08
1.78052e-11
3.86121e-08
1.72657e-11
3.86088e-08
1.67398e-11
3.86057e-08
1.6227e-11
3.86027e-08
1.57264e-11
3.85997e-08
1.52374e-11
3.85969e-08
1.47593e-11
3.85941e-08
1.42916e-11
3.85915e-08
1.38335e-11
3.85889e-08
1.33847e-11
3.85864e-08
1.29445e-11
3.8584e-08
1.25125e-11
3.85817e-08
1.20881e-11
3.85794e-08
1.16709e-11
3.85773e-08
1.12605e-11
3.85752e-08
1.08563e-11
3.85732e-08
1.04581e-11
3.85712e-08
1.00653e-11
3.85694e-08
9.6777e-12
3.85676e-08
9.29483e-12
3.85659e-08
8.91638e-12
3.85642e-08
8.54201e-12
3.85626e-08
8.17142e-12
3.85611e-08
7.80432e-12
3.85597e-08
7.44049e-12
3.85583e-08
7.07974e-12
3.8557e-08
6.72199e-12
3.85557e-08
6.36727e-12
3.85545e-08
6.01585e-12
3.85534e-08
5.66835e-12
3.85524e-08
5.326e-12
3.85514e-08
4.99126e-12
3.85504e-08
4.66855e-12
3.85496e-08
4.36558e-12
3.85488e-08
4.09246e-12
3.84011e-12
3.87002e-08
2.13216e-09
-3.85823e-08
3.88511e-08
2.36373e-09
3.90177e-08
2.53426e-09
3.91891e-08
2.64261e-09
3.93589e-08
2.6949e-09
3.95224e-08
2.69611e-09
3.96752e-08
2.64995e-09
3.98141e-08
2.56062e-09
3.99366e-08
2.43313e-09
4.00408e-08
2.27268e-09
4.01253e-08
2.08446e-09
4.01889e-08
1.87379e-09
4.02305e-08
1.64647e-09
4.02497e-08
1.40927e-09
4.02465e-08
1.17014e-09
4.02224e-08
9.38126e-10
4.018e-08
7.22665e-10
4.0124e-08
5.3238e-10
4.00597e-08
3.73432e-10
3.99925e-08
2.47961e-10
3.99266e-08
1.54238e-10
3.98648e-08
8.81759e-11
3.98086e-08
4.47704e-11
3.9759e-08
1.89694e-11
3.97159e-08
6.12924e-12
3.96789e-08
2.27429e-12
3.96475e-08
4.19296e-12
3.96207e-08
9.42002e-12
3.9598e-08
1.61596e-11
3.95784e-08
2.31815e-11
3.95615e-08
2.97083e-11
3.95465e-08
3.53054e-11
3.95332e-08
3.97801e-11
3.95211e-08
4.31006e-11
3.951e-08
4.53394e-11
3.94996e-08
4.6633e-11
3.94898e-08
4.71498e-11
3.94804e-08
4.70638e-11
3.94716e-08
4.65353e-11
3.9463e-08
4.57002e-11
3.94548e-08
4.46654e-11
3.9447e-08
4.35105e-11
3.94394e-08
4.22919e-11
3.94321e-08
4.10481e-11
3.94251e-08
3.98045e-11
3.94184e-08
3.85774e-11
3.94119e-08
3.73767e-11
3.94056e-08
3.62083e-11
3.93996e-08
3.50752e-11
3.93937e-08
3.39789e-11
3.93881e-08
3.29196e-11
3.93827e-08
3.18968e-11
3.93775e-08
3.09095e-11
3.93724e-08
2.99564e-11
3.93675e-08
2.90363e-11
3.93628e-08
2.81477e-11
3.93582e-08
2.72889e-11
3.93538e-08
2.64586e-11
3.93495e-08
2.56553e-11
3.93454e-08
2.48776e-11
3.93414e-08
2.41241e-11
3.93375e-08
2.33934e-11
3.93337e-08
2.26844e-11
3.93301e-08
2.19958e-11
3.93266e-08
2.13264e-11
3.93232e-08
2.06753e-11
3.93199e-08
2.00414e-11
3.93167e-08
1.94238e-11
3.93136e-08
1.88214e-11
3.93106e-08
1.82335e-11
3.93077e-08
1.76592e-11
3.93049e-08
1.70978e-11
3.93022e-08
1.65484e-11
3.92995e-08
1.60105e-11
3.9297e-08
1.54832e-11
3.92945e-08
1.49661e-11
3.92922e-08
1.44585e-11
3.92899e-08
1.39598e-11
3.92877e-08
1.34694e-11
3.92855e-08
1.29868e-11
3.92835e-08
1.25115e-11
3.92815e-08
1.2043e-11
3.92796e-08
1.15808e-11
3.92778e-08
1.11246e-11
3.9276e-08
1.06738e-11
3.92743e-08
1.02281e-11
3.92727e-08
9.78701e-12
3.92712e-08
9.35029e-12
3.92697e-08
8.91759e-12
3.92683e-08
8.48869e-12
3.92669e-08
8.06343e-12
3.92657e-08
7.64181e-12
3.92645e-08
7.22404e-12
3.92633e-08
6.81067e-12
3.92622e-08
6.40288e-12
3.92612e-08
6.00284e-12
3.92603e-08
5.61433e-12
3.92594e-08
5.24317e-12
3.92586e-08
4.89493e-12
4.55686e-12
3.94611e-08
2.02663e-09
-3.93555e-08
3.95956e-08
2.22924e-09
3.97462e-08
2.3836e-09
3.99032e-08
2.48559e-09
4.00603e-08
2.53778e-09
4.02129e-08
2.5436e-09
4.03567e-08
2.50608e-09
4.04886e-08
2.42872e-09
4.0606e-08
2.31576e-09
4.07068e-08
2.17185e-09
4.07895e-08
2.00178e-09
4.08527e-08
1.81057e-09
4.08955e-08
1.60374e-09
4.09171e-08
1.38759e-09
4.0918e-08
1.16932e-09
4.08992e-08
9.56897e-10
4.08634e-08
7.58451e-10
4.08145e-08
5.81311e-10
4.07571e-08
4.30774e-10
4.0696e-08
3.09044e-10
4.06351e-08
2.15221e-10
4.05769e-08
1.4631e-10
4.05234e-08
9.8327e-11
4.04753e-08
6.70536e-11
4.04329e-08
4.84839e-11
4.03961e-08
3.90842e-11
4.03644e-08
3.59179e-11
4.03372e-08
3.66657e-11
4.03137e-08
3.95832e-11
4.02935e-08
4.34258e-11
4.02758e-08
4.73611e-11
4.02603e-08
5.08774e-11
4.02463e-08
5.36993e-11
4.02337e-08
5.57161e-11
4.02221e-08
5.69286e-11
4.02114e-08
5.741e-11
4.02012e-08
5.72742e-11
4.01917e-08
5.66504e-11
4.01825e-08
5.56645e-11
4.01738e-08
5.44273e-11
4.01654e-08
5.30289e-11
4.01574e-08
5.15382e-11
4.01497e-08
5.00052e-11
4.01423e-08
4.84646e-11
4.01351e-08
4.69398e-11
4.01283e-08
4.54455e-11
4.01217e-08
4.39909e-11
4.01153e-08
4.2581e-11
4.01091e-08
4.12182e-11
4.01032e-08
3.99031e-11
4.00975e-08
3.86355e-11
4.0092e-08
3.74141e-11
4.00867e-08
3.62373e-11
4.00815e-08
3.51034e-11
4.00765e-08
3.40104e-11
4.00717e-08
3.29563e-11
4.00671e-08
3.1939e-11
4.00626e-08
3.09567e-11
4.00582e-08
3.00074e-11
4.0054e-08
2.90893e-11
4.00499e-08
2.82007e-11
4.0046e-08
2.73399e-11
4.00422e-08
2.65054e-11
4.00385e-08
2.56955e-11
4.00349e-08
2.4909e-11
4.00314e-08
2.41445e-11
4.00281e-08
2.34007e-11
4.00248e-08
2.26765e-11
4.00217e-08
2.19706e-11
4.00186e-08
2.12821e-11
4.00157e-08
2.061e-11
4.00128e-08
1.99533e-11
4.001e-08
1.9311e-11
4.00074e-08
1.86825e-11
4.00048e-08
1.80667e-11
4.00023e-08
1.74631e-11
3.99999e-08
1.68707e-11
3.99975e-08
1.62891e-11
3.99953e-08
1.57173e-11
3.99931e-08
1.51549e-11
3.9991e-08
1.46013e-11
3.9989e-08
1.40557e-11
3.99871e-08
1.35178e-11
3.99852e-08
1.29869e-11
3.99834e-08
1.24625e-11
3.99817e-08
1.19442e-11
3.99801e-08
1.14314e-11
3.99785e-08
1.09239e-11
3.9977e-08
1.04211e-11
3.99756e-08
9.92283e-12
3.99742e-08
9.42886e-12
3.99729e-08
8.93912e-12
3.99717e-08
8.45375e-12
3.99705e-08
7.97325e-12
3.99694e-08
7.49863e-12
3.99684e-08
7.03181e-12
3.99674e-08
6.57586e-12
3.99665e-08
6.13495e-12
3.99657e-08
5.71159e-12
5.29269e-12
4.02293e-08
1.93095e-09
-4.01336e-08
4.03501e-08
2.10839e-09
4.04866e-08
2.24714e-09
4.06304e-08
2.34185e-09
4.07754e-08
2.39274e-09
4.09172e-08
2.40182e-09
4.10518e-08
2.37144e-09
4.1176e-08
2.30448e-09
4.12873e-08
2.20452e-09
4.13835e-08
2.07565e-09
4.1463e-08
1.92227e-09
4.15245e-08
1.74906e-09
4.1567e-08
1.5612e-09
4.15901e-08
1.36449e-09
4.1594e-08
1.16542e-09
4.15799e-08
9.71002e-10
4.15501e-08
7.88263e-10
4.15079e-08
6.23485e-10
4.14574e-08
4.81276e-10
4.14027e-08
3.63821e-10
4.13471e-08
2.70816e-10
4.12933e-08
2.00129e-10
4.12429e-08
1.48635e-10
4.11971e-08
1.12856e-10
4.11563e-08
8.93706e-11
4.11203e-08
7.50721e-11
4.10889e-08
6.73061e-11
4.10616e-08
6.3918e-11
4.1038e-08
6.32388e-11
4.10174e-08
6.40355e-11
4.09993e-08
6.54444e-11
4.09833e-08
6.68983e-11
4.09689e-08
6.80553e-11
4.09559e-08
6.8738e-11
4.09439e-08
6.88842e-11
4.09328e-08
6.85099e-11
4.09224e-08
6.76792e-11
4.09126e-08
6.64794e-11
4.09033e-08
6.50036e-11
4.08943e-08
6.33378e-11
4.08858e-08
6.15549e-11
4.08776e-08
5.97123e-11
4.08698e-08
5.78525e-11
4.08623e-08
5.60056e-11
4.0855e-08
5.41919e-11
4.0848e-08
5.24244e-11
4.08413e-08
5.07107e-11
4.08348e-08
4.90549e-11
4.08286e-08
4.74584e-11
4.08226e-08
4.59212e-11
4.08168e-08
4.44421e-11
4.08112e-08
4.30191e-11
4.08057e-08
4.16501e-11
4.08005e-08
4.03327e-11
4.07955e-08
3.90643e-11
4.07906e-08
3.78422e-11
4.07859e-08
3.66642e-11
4.07813e-08
3.55276e-11
4.07769e-08
3.44302e-11
4.07726e-08
3.33697e-11
4.07684e-08
3.2344e-11
4.07644e-08
3.13512e-11
4.07605e-08
3.03892e-11
4.07568e-08
2.94563e-11
4.07531e-08
2.85508e-11
4.07496e-08
2.76712e-11
4.07462e-08
2.68158e-11
4.07429e-08
2.59833e-11
4.07397e-08
2.51724e-11
4.07366e-08
2.43817e-11
4.07336e-08
2.36102e-11
4.07307e-08
2.28567e-11
4.07279e-08
2.21201e-11
4.07252e-08
2.13994e-11
4.07225e-08
2.06937e-11
4.072e-08
2.00021e-11
4.07175e-08
1.93238e-11
4.07152e-08
1.86578e-11
4.07129e-08
1.80034e-11
4.07107e-08
1.73599e-11
4.07086e-08
1.67266e-11
4.07065e-08
1.61027e-11
4.07045e-08
1.54877e-11
4.07026e-08
1.48809e-11
4.07008e-08
1.42817e-11
4.06991e-08
1.36896e-11
4.06974e-08
1.31039e-11
4.06958e-08
1.25243e-11
4.06943e-08
1.19503e-11
4.06928e-08
1.13814e-11
4.06914e-08
1.08175e-11
4.06901e-08
1.02585e-11
4.06889e-08
9.70428e-12
4.06877e-08
9.15536e-12
4.06866e-08
8.61258e-12
4.06855e-08
8.07754e-12
4.06845e-08
7.55263e-12
4.06836e-08
7.04067e-12
4.06828e-08
6.54218e-12
6.04542e-12
4.10056e-08
1.84335e-09
-4.0918e-08
4.11149e-08
1.99903e-09
4.12389e-08
2.12318e-09
4.13705e-08
2.21023e-09
4.15043e-08
2.25896e-09
4.16359e-08
2.27024e-09
4.17616e-08
2.24576e-09
4.18782e-08
2.18783e-09
4.19833e-08
2.09948e-09
4.20746e-08
1.98428e-09
4.21507e-08
1.8462e-09
4.22102e-08
1.68958e-09
4.22522e-08
1.5192e-09
4.22763e-08
1.34036e-09
4.22828e-08
1.15889e-09
4.22728e-08
9.80975e-10
4.22484e-08
8.12707e-10
4.22124e-08
6.59514e-10
4.21682e-08
5.25444e-10
4.21194e-08
4.1262e-10
4.20691e-08
3.21159e-10
4.20196e-08
2.49604e-10
4.19727e-08
1.95546e-10
4.19294e-08
1.5615e-10
4.18902e-08
1.28524e-10
4.18553e-08
1.09963e-10
4.18245e-08
9.80938e-11
4.17975e-08
9.09373e-11
4.17739e-08
8.69184e-11
4.1753e-08
8.48362e-11
4.17347e-08
8.38167e-11
4.17183e-08
8.32557e-11
4.17036e-08
8.27608e-11
4.16903e-08
8.20997e-11
4.1678e-08
8.11562e-11
4.16666e-08
7.98959e-11
4.16559e-08
7.83379e-11
4.16459e-08
7.65313e-11
4.16363e-08
7.45383e-11
4.16273e-08
7.24211e-11
4.16186e-08
7.02352e-11
4.16103e-08
6.80261e-11
4.16023e-08
6.58281e-11
4.15946e-08
6.3666e-11
4.15873e-08
6.15564e-11
4.15802e-08
5.95099e-11
4.15734e-08
5.75325e-11
4.15668e-08
5.56267e-11
4.15605e-08
5.3793e-11
4.15543e-08
5.20304e-11
4.15485e-08
5.03367e-11
4.15428e-08
4.87095e-11
4.15373e-08
4.71458e-11
4.1532e-08
4.56424e-11
4.15268e-08
4.41962e-11
4.15219e-08
4.2804e-11
4.15171e-08
4.1463e-11
4.15124e-08
4.01701e-11
4.15079e-08
3.89226e-11
4.15036e-08
3.77177e-11
4.14994e-08
3.65531e-11
4.14953e-08
3.54263e-11
4.14914e-08
3.43351e-11
4.14875e-08
3.32774e-11
4.14838e-08
3.22513e-11
4.14802e-08
3.12548e-11
4.14768e-08
3.02862e-11
4.14734e-08
2.93439e-11
4.14702e-08
2.84263e-11
4.1467e-08
2.75319e-11
4.1464e-08
2.66595e-11
4.1461e-08
2.58077e-11
4.14582e-08
2.49753e-11
4.14554e-08
2.41612e-11
4.14527e-08
2.33641e-11
4.14501e-08
2.25832e-11
4.14477e-08
2.18174e-11
4.14452e-08
2.10658e-11
4.14429e-08
2.03275e-11
4.14407e-08
1.96016e-11
4.14385e-08
1.88873e-11
4.14364e-08
1.81839e-11
4.14344e-08
1.74905e-11
4.14325e-08
1.68066e-11
4.14307e-08
1.61313e-11
4.14289e-08
1.54642e-11
4.14272e-08
1.48044e-11
4.14256e-08
1.41515e-11
4.1424e-08
1.3505e-11
4.14225e-08
1.28645e-11
4.14211e-08
1.22294e-11
4.14198e-08
1.15998e-11
4.14185e-08
1.09756e-11
4.14173e-08
1.03569e-11
4.14162e-08
9.74468e-12
4.14151e-08
9.14001e-12
4.14141e-08
8.54473e-12
4.14132e-08
7.96057e-12
4.14123e-08
7.38681e-12
6.81376e-12
4.17906e-08
1.76257e-09
-4.17098e-08
4.18902e-08
1.89945e-09
4.20032e-08
2.01022e-09
4.21238e-08
2.08963e-09
4.22471e-08
2.13562e-09
4.23691e-08
2.14825e-09
4.24862e-08
2.12861e-09
4.25956e-08
2.07852e-09
4.26945e-08
2.00051e-09
4.27811e-08
1.89768e-09
4.28537e-08
1.77359e-09
4.29111e-08
1.6322e-09
4.29525e-08
1.47787e-09
4.29774e-08
1.31542e-09
4.29862e-08
1.15007e-09
4.29799e-08
9.87278e-10
4.29603e-08
8.32352e-10
4.29298e-08
6.90014e-10
4.28914e-08
5.63844e-10
4.28481e-08
4.55882e-10
4.28027e-08
3.66537e-10
4.27575e-08
2.94876e-10
4.27139e-08
2.39079e-10
4.26732e-08
1.96865e-10
4.26359e-08
1.65816e-10
4.26023e-08
1.43599e-10
4.25723e-08
1.28113e-10
4.25456e-08
1.17561e-10
4.25221e-08
1.10473e-10
4.25012e-08
1.05697e-10
4.24827e-08
1.02368e-10
4.24661e-08
9.98594e-11
4.24511e-08
9.77435e-11
4.24374e-08
9.57444e-11
4.24249e-08
9.37009e-11
4.24133e-08
9.1535e-11
4.24024e-08
8.92259e-11
4.23921e-08
8.67882e-11
4.23824e-08
8.42554e-11
4.23732e-08
8.16672e-11
4.23643e-08
7.90622e-11
4.23559e-08
7.64735e-11
4.23478e-08
7.39269e-11
4.234e-08
7.14413e-11
4.23325e-08
6.90294e-11
4.23253e-08
6.66986e-11
4.23184e-08
6.4453e-11
4.23118e-08
6.22935e-11
4.23053e-08
6.02193e-11
4.22991e-08
5.82283e-11
4.22932e-08
5.63175e-11
4.22874e-08
5.44835e-11
4.22818e-08
5.27226e-11
4.22764e-08
5.10309e-11
4.22712e-08
4.94048e-11
4.22662e-08
4.78405e-11
4.22613e-08
4.63345e-11
4.22566e-08
4.48833e-11
4.2252e-08
4.34838e-11
4.22476e-08
4.21327e-11
4.22433e-08
4.08273e-11
4.22392e-08
3.95648e-11
4.22352e-08
3.83427e-11
4.22313e-08
3.71585e-11
4.22275e-08
3.601e-11
4.22239e-08
3.48951e-11
4.22204e-08
3.38117e-11
4.2217e-08
3.2758e-11
4.22137e-08
3.17322e-11
4.22105e-08
3.07327e-11
4.22074e-08
2.97579e-11
4.22044e-08
2.88064e-11
4.22015e-08
2.78768e-11
4.21987e-08
2.69677e-11
4.21959e-08
2.60779e-11
4.21933e-08
2.52063e-11
4.21908e-08
2.43518e-11
4.21883e-08
2.35132e-11
4.2186e-08
2.26896e-11
4.21837e-08
2.188e-11
4.21815e-08
2.10835e-11
4.21794e-08
2.02993e-11
4.21773e-08
1.95264e-11
4.21754e-08
1.8764e-11
4.21735e-08
1.80115e-11
4.21717e-08
1.72681e-11
4.217e-08
1.6533e-11
4.21683e-08
1.58057e-11
4.21667e-08
1.50855e-11
4.21652e-08
1.4372e-11
4.21638e-08
1.36646e-11
4.21624e-08
1.29633e-11
4.21611e-08
1.22677e-11
4.21599e-08
1.15781e-11
4.21588e-08
1.0895e-11
4.21577e-08
1.02193e-11
4.21567e-08
9.55235e-12
4.21557e-08
8.8949e-12
4.21549e-08
8.24556e-12
7.59687e-12
4.2585e-08
1.68766e-09
-4.25101e-08
4.26762e-08
1.80828e-09
4.27795e-08
1.90697e-09
4.28901e-08
1.97898e-09
4.30038e-08
2.02191e-09
4.31168e-08
2.03522e-09
4.32259e-08
2.01953e-09
4.33282e-08
1.97623e-09
4.34213e-08
1.90741e-09
4.35033e-08
1.81574e-09
4.35725e-08
1.70438e-09
4.36278e-08
1.5769e-09
4.36684e-08
1.43727e-09
4.36939e-08
1.28984e-09
4.37048e-08
1.13925e-09
4.37017e-08
9.9033e-10
4.36863e-08
8.47721e-10
4.36608e-08
7.15555e-10
4.36276e-08
5.97018e-10