/*--------------------------------*- C++ -*----------------------------------*\
| =========                 |                                                 |
| \\      /  F ield         | OpenFOAM: The Open Source CFD Toolbox           |
|  \\    /   O peration     | Version:  2.3.0                                 |
|   \\  /    A nd           | Web:      www.OpenFOAM.org                      |
|    \\/     M anipulation  |                                                 |
\*---------------------------------------------------------------------------*/
FoamFile
{
    version     2.0;
    format      ascii;
    class       volVectorField;
    location    "0.05";
    object      U;
}
// * * * * * * * * * * * * * * * * * * * * * * * * * * * * * * * * * * * * * //

dimensions      [0 1 -1 0 0 0 0];

internalField   nonuniform List<vector> 
8750
(
(0.171881 0.00584373 0)
(0.155601 0.00594813 0)
(0.139962 0.00554314 0)
(0.125145 0.00495104 0)
(0.111577 0.0042932 0)
(0.0994374 0.00362371 0)
(0.0887411 0.0029799 0)
(0.0794558 0.00238782 0)
(0.0715282 0.00186334 0)
(0.064877 0.00141432 0)
(0.0593943 0.00104198 0)
(0.0549567 0.000741884 0)
(0.0514395 0.000505729 0)
(0.0487272 0.000323696 0)
(0.0467169 0.000186137 0)
(0.0453173 8.2034e-05 0)
(0.0444534 -4.15476e-06 0)
(0.0440945 -7.34529e-05 0)
(0.0441651 -0.000106699 0)
(0.0443989 -9.28114e-05 0)
(0.044695 -6.61972e-05 0)
(0.0449863 -4.33218e-05 0)
(0.0452376 -2.73603e-05 0)
(0.0454397 -1.73304e-05 0)
(0.0455956 -1.1321e-05 0)
(0.0457122 -7.75338e-06 0)
(0.0457972 -5.63025e-06 0)
(0.045858 -4.29824e-06 0)
(0.0459006 -3.37713e-06 0)
(0.04593 -2.68261e-06 0)
(0.04595 -2.13219e-06 0)
(0.0459632 -1.69249e-06 0)
(0.0459718 -1.34954e-06 0)
(0.0459772 -1.09853e-06 0)
(0.0459802 -9.29857e-07 0)
(0.0459816 -7.87846e-07 0)
(0.0459817 -5.84661e-07 0)
(0.0459807 -4.11682e-07 0)
(0.0459788 -2.79005e-07 0)
(0.0459762 -1.75471e-07 0)
(0.0459732 -9.16142e-08 0)
(0.0459697 -2.15792e-08 0)
(0.045966 3.79186e-08 0)
(0.045962 8.87577e-08 0)
(0.0459579 1.32127e-07 0)
(0.0459536 1.68949e-07 0)
(0.0459492 2.00029e-07 0)
(0.0459448 2.26012e-07 0)
(0.0459402 2.47535e-07 0)
(0.0459357 2.65162e-07 0)
(0.0459311 2.79377e-07 0)
(0.0459265 2.90594e-07 0)
(0.045922 2.99212e-07 0)
(0.0459174 3.05558e-07 0)
(0.0459129 3.09945e-07 0)
(0.0459085 3.12623e-07 0)
(0.0459041 3.13788e-07 0)
(0.0458997 3.1365e-07 0)
(0.0458954 3.12393e-07 0)
(0.0458912 3.10158e-07 0)
(0.0458871 3.07054e-07 0)
(0.045883 3.03218e-07 0)
(0.045879 2.98742e-07 0)
(0.0458751 2.93709e-07 0)
(0.0458713 2.88193e-07 0)
(0.0458676 2.82277e-07 0)
(0.0458639 2.76004e-07 0)
(0.0458604 2.69436e-07 0)
(0.0458569 2.62627e-07 0)
(0.0458535 2.55608e-07 0)
(0.0458502 2.48422e-07 0)
(0.045847 2.41067e-07 0)
(0.0458439 2.33611e-07 0)
(0.0458408 2.26041e-07 0)
(0.0458379 2.1842e-07 0)
(0.045835 2.10724e-07 0)
(0.0458323 2.03007e-07 0)
(0.0458296 1.95254e-07 0)
(0.045827 1.87494e-07 0)
(0.0458246 1.79731e-07 0)
(0.0458222 1.71965e-07 0)
(0.0458199 1.64228e-07 0)
(0.0458176 1.56498e-07 0)
(0.0458155 1.48817e-07 0)
(0.0458135 1.41158e-07 0)
(0.0458116 1.33553e-07 0)
(0.0458097 1.26003e-07 0)
(0.045808 1.18514e-07 0)
(0.0458063 1.11106e-07 0)
(0.0458047 1.03778e-07 0)
(0.0458032 9.65726e-08 0)
(0.0458018 8.95233e-08 0)
(0.0458005 8.27122e-08 0)
(0.0457993 7.62441e-08 0)
(0.0457982 7.03317e-08 0)
(0.0457971 6.53816e-08 0)
(0.0457961 6.22951e-08 0)
(0.0457952 6.32689e-08 0)
(0.0457943 6.82908e-08 0)
(0.0457926 2.51725e-07 0)
(0.190786 0.00927787 0)
(0.188632 0.00980079 0)
(0.184901 0.00956347 0)
(0.179949 0.00904501 0)
(0.174293 0.00838898 0)
(0.168299 0.00764153 0)
(0.162199 0.00684016 0)
(0.156176 0.00601938 0)
(0.150379 0.00520762 0)
(0.14493 0.00442743 0)
(0.139921 0.00369509 0)
(0.135426 0.00301986 0)
(0.131503 0.00240441 0)
(0.1282 0.00184766 0)
(0.125542 0.00134843 0)
(0.123533 0.000906321 0)
(0.122156 0.000519914 0)
(0.121311 0.000193946 0)
(0.120863 -4.73496e-05 0)
(0.120824 -0.000179042 0)
(0.121035 -0.000221164 0)
(0.121374 -0.000212272 0)
(0.12175 -0.000180531 0)
(0.122108 -0.000142607 0)
(0.122419 -0.000106984 0)
(0.122673 -7.71456e-05 0)
(0.122871 -5.38911e-05 0)
(0.123017 -3.66585e-05 0)
(0.123122 -2.43538e-05 0)
(0.123193 -1.58179e-05 0)
(0.123239 -1.00259e-05 0)
(0.123267 -6.15717e-06 0)
(0.123282 -3.59973e-06 0)
(0.123288 -1.90734e-06 0)
(0.123287 -6.96606e-07 0)
(0.123282 3.00639e-07 0)
(0.123272 1.1774e-06 0)
(0.12326 1.84807e-06 0)
(0.123247 2.31879e-06 0)
(0.123232 2.64264e-06 0)
(0.123217 2.86838e-06 0)
(0.123202 3.02887e-06 0)
(0.123187 3.1438e-06 0)
(0.123171 3.22473e-06 0)
(0.123156 3.2787e-06 0)
(0.123141 3.31043e-06 0)
(0.123126 3.32352e-06 0)
(0.123111 3.32083e-06 0)
(0.123097 3.30486e-06 0)
(0.123083 3.27779e-06 0)
(0.123069 3.24143e-06 0)
(0.123055 3.19734e-06 0)
(0.123041 3.14691e-06 0)
(0.123028 3.0913e-06 0)
(0.123015 3.03149e-06 0)
(0.123003 2.96833e-06 0)
(0.122991 2.9025e-06 0)
(0.122979 2.83461e-06 0)
(0.122967 2.76519e-06 0)
(0.122955 2.69465e-06 0)
(0.122944 2.62334e-06 0)
(0.122933 2.55157e-06 0)
(0.122923 2.47962e-06 0)
(0.122912 2.40768e-06 0)
(0.122902 2.33592e-06 0)
(0.122893 2.26452e-06 0)
(0.122883 2.19359e-06 0)
(0.122874 2.12323e-06 0)
(0.122865 2.05354e-06 0)
(0.122856 1.98459e-06 0)
(0.122848 1.91642e-06 0)
(0.12284 1.84905e-06 0)
(0.122832 1.78254e-06 0)
(0.122824 1.7169e-06 0)
(0.122816 1.65216e-06 0)
(0.122809 1.5883e-06 0)
(0.122802 1.52536e-06 0)
(0.122796 1.46331e-06 0)
(0.122789 1.40216e-06 0)
(0.122783 1.34189e-06 0)
(0.122777 1.28248e-06 0)
(0.122771 1.22394e-06 0)
(0.122765 1.16622e-06 0)
(0.12276 1.10937e-06 0)
(0.122755 1.0533e-06 0)
(0.12275 9.98058e-07 0)
(0.122745 9.43616e-07 0)
(0.122741 8.89961e-07 0)
(0.122737 8.37125e-07 0)
(0.122733 7.85099e-07 0)
(0.122729 7.33968e-07 0)
(0.122725 6.83831e-07 0)
(0.122722 6.34899e-07 0)
(0.122719 5.87517e-07 0)
(0.122716 5.42353e-07 0)
(0.122713 5.00746e-07 0)
(0.12271 4.65637e-07 0)
(0.122708 4.44299e-07 0)
(0.122706 4.62318e-07 0)
(0.122703 7.51953e-07 0)
(0.193769 0.00882559 0)
(0.194692 0.0097734 0)
(0.194985 0.0100734 0)
(0.194499 0.0100339 0)
(0.193362 0.00975916 0)
(0.191714 0.00928656 0)
(0.189659 0.00865925 0)
(0.187305 0.00792506 0)
(0.184764 0.00712665 0)
(0.18215 0.00629848 0)
(0.179569 0.00546604 0)
(0.17712 0.0046457 0)
(0.174891 0.00384668 0)
(0.172954 0.00307544 0)
(0.17136 0.0023403 0)
(0.170133 0.00165405 0)
(0.169264 0.0010368 0)
(0.168711 0.000515819 0)
(0.168384 0.000115571 0)
(0.168238 -0.000147871 0)
(0.168262 -0.00028878 0)
(0.16841 -0.000340683 0)
(0.168634 -0.000336455 0)
(0.168892 -0.000301321 0)
(0.169151 -0.000252648 0)
(0.169389 -0.000201383 0)
(0.169594 -0.000153774 0)
(0.169761 -0.000112857 0)
(0.16989 -7.9601e-05 0)
(0.169983 -5.37399e-05 0)
(0.170046 -3.43642e-05 0)
(0.170084 -2.03094e-05 0)
(0.170102 -1.03969e-05 0)
(0.170106 -3.48004e-06 0)
(0.170099 1.48497e-06 0)
(0.170084 5.13199e-06 0)
(0.170064 7.67959e-06 0)
(0.170041 9.33559e-06 0)
(0.170016 1.03377e-05 0)
(0.169991 1.09008e-05 0)
(0.169965 1.11844e-05 0)
(0.16994 1.12931e-05 0)
(0.169915 1.12912e-05 0)
(0.16989 1.1217e-05 0)
(0.169866 1.10934e-05 0)
(0.169842 1.09342e-05 0)
(0.169819 1.07488e-05 0)
(0.169796 1.05435e-05 0)
(0.169774 1.03233e-05 0)
(0.169753 1.00919e-05 0)
(0.169732 9.85243e-06 0)
(0.169712 9.60736e-06 0)
(0.169692 9.35874e-06 0)
(0.169673 9.10825e-06 0)
(0.169655 8.85723e-06 0)
(0.169637 8.6068e-06 0)
(0.169619 8.35783e-06 0)
(0.169602 8.11101e-06 0)
(0.169585 7.86692e-06 0)
(0.169569 7.62601e-06 0)
(0.169553 7.38859e-06 0)
(0.169538 7.15493e-06 0)
(0.169523 6.92521e-06 0)
(0.169509 6.69958e-06 0)
(0.169495 6.47808e-06 0)
(0.169481 6.26079e-06 0)
(0.169468 6.04773e-06 0)
(0.169455 5.83888e-06 0)
(0.169443 5.63421e-06 0)
(0.169431 5.43367e-06 0)
(0.169419 5.2372e-06 0)
(0.169408 5.04471e-06 0)
(0.169397 4.85613e-06 0)
(0.169386 4.67136e-06 0)
(0.169376 4.49032e-06 0)
(0.169366 4.31289e-06 0)
(0.169357 4.13899e-06 0)
(0.169347 3.9685e-06 0)
(0.169339 3.80131e-06 0)
(0.16933 3.63731e-06 0)
(0.169322 3.47638e-06 0)
(0.169314 3.31845e-06 0)
(0.169306 3.16338e-06 0)
(0.169299 3.01111e-06 0)
(0.169292 2.86152e-06 0)
(0.169285 2.71452e-06 0)
(0.169278 2.57006e-06 0)
(0.169272 2.42803e-06 0)
(0.169266 2.28843e-06 0)
(0.169261 2.15122e-06 0)
(0.169256 2.01648e-06 0)
(0.169251 1.88434e-06 0)
(0.169246 1.75512e-06 0)
(0.169241 1.62943e-06 0)
(0.169237 1.50843e-06 0)
(0.169233 1.39454e-06 0)
(0.16923 1.29309e-06 0)
(0.169226 1.21766e-06 0)
(0.169223 1.22002e-06 0)
(0.169219 1.46075e-06 0)
(0.194788 0.0081291 0)
(0.196072 0.00916174 0)
(0.197263 0.0096736 0)
(0.198144 0.0098545 0)
(0.198701 0.00979031 0)
(0.198952 0.00951217 0)
(0.198907 0.00905344 0)
(0.198587 0.00845414 0)
(0.198033 0.00775214 0)
(0.197301 0.00697927 0)
(0.196455 0.00616047 0)
(0.195561 0.00531413 0)
(0.194678 0.00445453 0)
(0.193858 0.00359616 0)
(0.193135 0.00275798 0)
(0.192528 0.00196553 0)
(0.192039 0.00125172 0)
(0.191655 0.000653881 0)
(0.191358 0.000197644 0)
(0.19112 -0.000109993 0)
(0.190964 -0.000291325 0)
(0.190887 -0.000376145 0)
(0.190877 -0.000394693 0)
(0.190915 -0.000371963 0)
(0.190982 -0.000326644 0)
(0.191061 -0.000271797 0)
(0.19114 -0.000215961 0)
(0.191211 -0.000164261 0)
(0.191268 -0.000119351 0)
(0.191308 -8.21914e-05 0)
(0.191333 -5.2656e-05 0)
(0.191343 -2.99878e-05 0)
(0.191339 -1.30938e-05 0)
(0.191325 -7.1756e-07 0)
(0.191302 8.2397e-06 0)
(0.191274 1.44796e-05 0)
(0.191243 1.85468e-05 0)
(0.19121 2.09974e-05 0)
(0.191177 2.23244e-05 0)
(0.191143 2.29153e-05 0)
(0.19111 2.30448e-05 0)
(0.191077 2.28928e-05 0)
(0.191045 2.25714e-05 0)
(0.191014 2.21483e-05 0)
(0.190983 2.16639e-05 0)
(0.190954 2.11425e-05 0)
(0.190925 2.05994e-05 0)
(0.190898 2.00444e-05 0)
(0.190871 1.94841e-05 0)
(0.190845 1.89232e-05 0)
(0.19082 1.83652e-05 0)
(0.190796 1.78127e-05 0)
(0.190772 1.72675e-05 0)
(0.190749 1.6731e-05 0)
(0.190727 1.62044e-05 0)
(0.190706 1.56884e-05 0)
(0.190685 1.51834e-05 0)
(0.190665 1.46897e-05 0)
(0.190645 1.42076e-05 0)
(0.190626 1.3737e-05 0)
(0.190608 1.32779e-05 0)
(0.19059 1.28303e-05 0)
(0.190572 1.23939e-05 0)
(0.190556 1.19684e-05 0)
(0.190539 1.15538e-05 0)
(0.190524 1.11496e-05 0)
(0.190508 1.07556e-05 0)
(0.190494 1.03716e-05 0)
(0.190479 9.99709e-06 0)
(0.190465 9.63191e-06 0)
(0.190452 9.27571e-06 0)
(0.190439 8.92817e-06 0)
(0.190426 8.58899e-06 0)
(0.190414 8.25788e-06 0)
(0.190402 7.93452e-06 0)
(0.190391 7.61864e-06 0)
(0.19038 7.30994e-06 0)
(0.190369 7.00816e-06 0)
(0.190359 6.71299e-06 0)
(0.190349 6.4242e-06 0)
(0.190339 6.14148e-06 0)
(0.19033 5.86464e-06 0)
(0.190321 5.59341e-06 0)
(0.190313 5.32758e-06 0)
(0.190304 5.06692e-06 0)
(0.190297 4.81123e-06 0)
(0.190289 4.56034e-06 0)
(0.190282 4.31404e-06 0)
(0.190275 4.07226e-06 0)
(0.190269 3.83488e-06 0)
(0.190262 3.60194e-06 0)
(0.190257 3.37359e-06 0)
(0.190251 3.15019e-06 0)
(0.190246 2.93252e-06 0)
(0.190241 2.72213e-06 0)
(0.190236 2.52226e-06 0)
(0.190232 2.33997e-06 0)
(0.190228 2.19282e-06 0)
(0.190224 2.13335e-06 0)
(0.19022 2.25386e-06 0)
(0.19549 0.00757557 0)
(0.196636 0.00853979 0)
(0.197863 0.00908429 0)
(0.198998 0.00932985 0)
(0.199999 0.00935131 0)
(0.200856 0.00917713 0)
(0.201549 0.00883066 0)
(0.202065 0.00834071 0)
(0.202402 0.00773637 0)
(0.202577 0.00704338 0)
(0.202613 0.00628337 0)
(0.202537 0.00547451 0)
(0.202378 0.00463374 0)
(0.202156 0.00378018 0)
(0.20189 0.00293827 0)
(0.201588 0.00213877 0)
(0.201259 0.00141759 0)
(0.200912 0.000811561 0)
(0.200565 0.000346489 0)
(0.200229 1.85532e-05 0)
(0.199929 -0.000189275 0)
(0.19968 -0.000302237 0)
(0.199484 -0.00034629 0)
(0.199336 -0.000344032 0)
(0.199228 -0.0003134 0)
(0.19915 -0.000267797 0)
(0.199093 -0.000216676 0)
(0.19905 -0.00016628 0)
(0.199014 -0.000120364 0)
(0.198982 -8.08372e-05 0)
(0.19895 -4.83131e-05 0)
(0.198917 -2.25583e-05 0)
(0.198881 -2.79707e-06 0)
(0.198842 1.1925e-05 0)
(0.198802 2.24523e-05 0)
(0.198762 2.95404e-05 0)
(0.198721 3.39653e-05 0)
(0.19868 3.64502e-05 0)
(0.19864 3.7596e-05 0)
(0.198601 3.78623e-05 0)
(0.198563 3.75756e-05 0)
(0.198525 3.69534e-05 0)
(0.198489 3.61347e-05 0)
(0.198454 3.52055e-05 0)
(0.19842 3.42184e-05 0)
(0.198388 3.32051e-05 0)
(0.198356 3.21853e-05 0)
(0.198325 3.11709e-05 0)
(0.198296 3.01698e-05 0)
(0.198267 2.91866e-05 0)
(0.19824 2.82247e-05 0)
(0.198213 2.72859e-05 0)
(0.198187 2.63714e-05 0)
(0.198163 2.54819e-05 0)
(0.198138 2.46176e-05 0)
(0.198115 2.37784e-05 0)
(0.198093 2.2964e-05 0)
(0.198071 2.21738e-05 0)
(0.198049 2.14074e-05 0)
(0.198029 2.06641e-05 0)
(0.198009 1.99432e-05 0)
(0.19799 1.92439e-05 0)
(0.197971 1.85655e-05 0)
(0.197953 1.79073e-05 0)
(0.197936 1.72684e-05 0)
(0.197919 1.66481e-05 0)
(0.197902 1.60457e-05 0)
(0.197887 1.54605e-05 0)
(0.197871 1.48917e-05 0)
(0.197856 1.43387e-05 0)
(0.197842 1.38009e-05 0)
(0.197828 1.32775e-05 0)
(0.197814 1.2768e-05 0)
(0.197801 1.22719e-05 0)
(0.197789 1.17884e-05 0)
(0.197776 1.13171e-05 0)
(0.197765 1.08575e-05 0)
(0.197753 1.04091e-05 0)
(0.197742 9.97125e-06 0)
(0.197731 9.54362e-06 0)
(0.197721 9.12573e-06 0)
(0.197711 8.71715e-06 0)
(0.197702 8.31748e-06 0)
(0.197693 7.92632e-06 0)
(0.197684 7.54331e-06 0)
(0.197676 7.16808e-06 0)
(0.197668 6.80034e-06 0)
(0.19766 6.43975e-06 0)
(0.197652 6.08613e-06 0)
(0.197645 5.73927e-06 0)
(0.197639 5.39913e-06 0)
(0.197632 5.06582e-06 0)
(0.197626 4.73969e-06 0)
(0.197621 4.42161e-06 0)
(0.197615 4.11333e-06 0)
(0.19761 3.81848e-06 0)
(0.197606 3.54477e-06 0)
(0.197601 3.30982e-06 0)
(0.197597 3.15509e-06 0)
(0.197593 3.12354e-06 0)
(0.196077 0.0070959 0)
(0.197048 0.00795482 0)
(0.198144 0.00848313 0)
(0.199233 0.00874918 0)
(0.200269 0.008811 0)
(0.201235 0.00869448 0)
(0.202109 0.00841801 0)
(0.202871 0.00800378 0)
(0.203508 0.0074753 0)
(0.204015 0.00685421 0)
(0.204396 0.00615967 0)
(0.204657 0.0054091 0)
(0.204802 0.00462019 0)
(0.204839 0.00381343 0)
(0.204769 0.00301425 0)
(0.2046 0.00225322 0)
(0.204342 0.00156405 0)
(0.204013 0.000978955 0)
(0.203642 0.000519892 0)
(0.203263 0.000186314 0)
(0.202897 -3.63774e-05 0)
(0.202566 -0.00016952 0)
(0.202277 -0.00023523 0)
(0.202033 -0.00025342 0)
(0.20183 -0.000240609 0)
(0.201663 -0.000209656 0)
(0.201527 -0.000170011 0)
(0.201415 -0.000128224 0)
(0.201321 -8.85049e-05 0)
(0.201242 -5.32595e-05 0)
(0.201172 -2.35672e-05 0)
(0.20111 3.90412e-07 0)
(0.201052 1.89844e-05 0)
(0.200998 3.28058e-05 0)
(0.200947 4.25143e-05 0)
(0.200899 4.88681e-05 0)
(0.200852 5.26299e-05 0)
(0.200807 5.44874e-05 0)
(0.200763 5.5015e-05 0)
(0.200721 5.46589e-05 0)
(0.20068 5.37434e-05 0)
(0.20064 5.24908e-05 0)
(0.200602 5.10474e-05 0)
(0.200565 4.9506e-05 0)
(0.200529 4.79246e-05 0)
(0.200495 4.63387e-05 0)
(0.200462 4.47697e-05 0)
(0.20043 4.32307e-05 0)
(0.200399 4.17293e-05 0)
(0.20037 4.02697e-05 0)
(0.200341 3.88542e-05 0)
(0.200313 3.74838e-05 0)
(0.200287 3.61583e-05 0)
(0.200261 3.48774e-05 0)
(0.200236 3.36399e-05 0)
(0.200212 3.24448e-05 0)
(0.200188 3.12906e-05 0)
(0.200166 3.01759e-05 0)
(0.200144 2.90991e-05 0)
(0.200122 2.80587e-05 0)
(0.200102 2.70532e-05 0)
(0.200082 2.60811e-05 0)
(0.200063 2.51409e-05 0)
(0.200044 2.42313e-05 0)
(0.200026 2.33507e-05 0)
(0.200009 2.24979e-05 0)
(0.199992 2.16717e-05 0)
(0.199976 2.08707e-05 0)
(0.19996 2.00939e-05 0)
(0.199944 1.93402e-05 0)
(0.199929 1.86084e-05 0)
(0.199915 1.78976e-05 0)
(0.199901 1.72067e-05 0)
(0.199888 1.6535e-05 0)
(0.199875 1.58814e-05 0)
(0.199862 1.52453e-05 0)
(0.19985 1.46257e-05 0)
(0.199838 1.40219e-05 0)
(0.199827 1.34332e-05 0)
(0.199816 1.28589e-05 0)
(0.199805 1.22983e-05 0)
(0.199795 1.17507e-05 0)
(0.199786 1.12157e-05 0)
(0.199776 1.06926e-05 0)
(0.199767 1.01809e-05 0)
(0.199758 9.67998e-06 0)
(0.19975 9.1895e-06 0)
(0.199742 8.70897e-06 0)
(0.199735 8.23804e-06 0)
(0.199727 7.77642e-06 0)
(0.19972 7.32396e-06 0)
(0.199714 6.88069e-06 0)
(0.199708 6.44694e-06 0)
(0.199702 6.02355e-06 0)
(0.199696 5.61233e-06 0)
(0.199691 5.21696e-06 0)
(0.199686 4.84488e-06 0)
(0.199681 4.51146e-06 0)
(0.199677 4.24553e-06 0)
(0.199672 4.05773e-06 0)
(0.196585 0.00668098 0)
(0.197411 0.00743605 0)
(0.198367 0.00793268 0)
(0.199352 0.00820184 0)
(0.20032 0.00828397 0)
(0.201247 0.00820187 0)
(0.202115 0.00797171 0)
(0.202902 0.00761195 0)
(0.203595 0.00714261 0)
(0.204183 0.0065828 0)
(0.204661 0.00595006 0)
(0.205025 0.00526111 0)
(0.205272 0.00453347 0)
(0.2054 0.00378734 0)
(0.205409 0.00304697 0)
(0.205302 0.00234044 0)
(0.20509 0.00169746 0)
(0.204793 0.00114527 0)
(0.204441 0.000702074 0)
(0.204066 0.000369925 0)
(0.203696 0.0001377 0)
(0.20335 -1.20401e-05 0)
(0.203038 -9.75656e-05 0)
(0.202764 -0.000136047 0)
(0.202529 -0.000142283 0)
(0.20233 -0.000128173 0)
(0.202163 -0.000102766 0)
(0.202023 -7.25817e-05 0)
(0.201905 -4.20275e-05 0)
(0.201805 -1.38347e-05 0)
(0.201719 1.05301e-05 0)
(0.201643 3.05035e-05 0)
(0.201576 4.60762e-05 0)
(0.201515 5.75629e-05 0)
(0.201458 6.54764e-05 0)
(0.201406 7.04342e-05 0)
(0.201356 7.30691e-05 0)
(0.201308 7.3971e-05 0)
(0.201263 7.36466e-05 0)
(0.201219 7.24997e-05 0)
(0.201177 7.08315e-05 0)
(0.201137 6.88547e-05 0)
(0.201097 6.67124e-05 0)
(0.20106 6.44982e-05 0)
(0.201024 6.22712e-05 0)
(0.200989 6.00678e-05 0)
(0.200955 5.79102e-05 0)
(0.200923 5.5811e-05 0)
(0.200891 5.37772e-05 0)
(0.200861 5.18119e-05 0)
(0.200832 4.99161e-05 0)
(0.200804 4.80895e-05 0)
(0.200777 4.63305e-05 0)
(0.200751 4.46372e-05 0)
(0.200725 4.30074e-05 0)
(0.200701 4.14385e-05 0)
(0.200677 3.9928e-05 0)
(0.200655 3.84733e-05 0)
(0.200632 3.70717e-05 0)
(0.200611 3.57209e-05 0)
(0.20059 3.44183e-05 0)
(0.20057 3.31616e-05 0)
(0.200551 3.19486e-05 0)
(0.200532 3.07772e-05 0)
(0.200514 2.96451e-05 0)
(0.200496 2.85506e-05 0)
(0.200479 2.74918e-05 0)
(0.200463 2.64669e-05 0)
(0.200446 2.54742e-05 0)
(0.200431 2.45122e-05 0)
(0.200416 2.35794e-05 0)
(0.200401 2.26744e-05 0)
(0.200387 2.17958e-05 0)
(0.200374 2.09424e-05 0)
(0.200361 2.0113e-05 0)
(0.200348 1.93064e-05 0)
(0.200336 1.85215e-05 0)
(0.200324 1.77573e-05 0)
(0.200312 1.70128e-05 0)
(0.200301 1.62871e-05 0)
(0.200291 1.55793e-05 0)
(0.20028 1.48885e-05 0)
(0.200271 1.4214e-05 0)
(0.200261 1.35549e-05 0)
(0.200252 1.29106e-05 0)
(0.200243 1.22804e-05 0)
(0.200235 1.16636e-05 0)
(0.200227 1.10596e-05 0)
(0.200219 1.0468e-05 0)
(0.200212 9.88836e-06 0)
(0.200205 9.3204e-06 0)
(0.200198 8.76406e-06 0)
(0.200192 8.2196e-06 0)
(0.200186 7.68781e-06 0)
(0.20018 7.17041e-06 0)
(0.200175 6.67092e-06 0)
(0.20017 6.19604e-06 0)
(0.200165 5.75816e-06 0)
(0.200161 5.37564e-06 0)
(0.200156 5.04019e-06 0)
(0.197026 0.00631911 0)
(0.19774 0.00697893 0)
(0.198574 0.00743578 0)
(0.199454 0.00769761 0)
(0.200335 0.00778997 0)
(0.201191 0.00773163 0)
(0.202003 0.00753685 0)
(0.202751 0.00722128 0)
(0.203422 0.0068022 0)
(0.204003 0.00629672 0)
(0.204486 0.00572116 0)
(0.204865 0.00509157 0)
(0.205135 0.00442493 0)
(0.205291 0.00374049 0)
(0.205331 0.00306057 0)
(0.205259 0.00241015 0)
(0.205086 0.00181489 0)
(0.204829 0.00129769 0)
(0.204514 0.000873861 0)
(0.204172 0.000546631 0)
(0.203827 0.000308459 0)
(0.203497 0.000145902 0)
(0.203194 4.37091e-05 0)
(0.202924 -1.28226e-05 0)
(0.202687 -3.67224e-05 0)
(0.202484 -3.88241e-05 0)
(0.20231 -2.76359e-05 0)
(0.202163 -9.49449e-06 0)
(0.202038 1.11431e-05 0)
(0.201931 3.13576e-05 0)
(0.201838 4.94187e-05 0)
(0.201758 6.44577e-05 0)
(0.201686 7.61908e-05 0)
(0.201622 8.471e-05 0)
(0.201563 9.03315e-05 0)
(0.201508 9.34972e-05 0)
(0.201457 9.46977e-05 0)
(0.201408 9.44115e-05 0)
(0.201362 9.3063e-05 0)
(0.201318 9.09996e-05 0)
(0.201275 8.84873e-05 0)
(0.201234 8.57189e-05 0)
(0.201195 8.28273e-05 0)
(0.201157 7.99012e-05 0)
(0.201121 7.69972e-05 0)
(0.201085 7.41506e-05 0)
(0.201052 7.13821e-05 0)
(0.201019 6.87033e-05 0)
(0.200988 6.61197e-05 0)
(0.200958 6.3633e-05 0)
(0.200928 6.12427e-05 0)
(0.2009 5.89467e-05 0)
(0.200873 5.6742e-05 0)
(0.200847 5.46251e-05 0)
(0.200821 5.25924e-05 0)
(0.200797 5.06399e-05 0)
(0.200773 4.87638e-05 0)
(0.20075 4.69604e-05 0)
(0.200728 4.52259e-05 0)
(0.200707 4.35569e-05 0)
(0.200686 4.19499e-05 0)
(0.200666 4.04018e-05 0)
(0.200646 3.89094e-05 0)
(0.200627 3.74699e-05 0)
(0.200609 3.60804e-05 0)
(0.200592 3.47385e-05 0)
(0.200574 3.34417e-05 0)
(0.200558 3.21877e-05 0)
(0.200542 3.09742e-05 0)
(0.200526 2.97993e-05 0)
(0.200511 2.8661e-05 0)
(0.200497 2.75574e-05 0)
(0.200483 2.64869e-05 0)
(0.200469 2.54478e-05 0)
(0.200456 2.44386e-05 0)
(0.200443 2.34578e-05 0)
(0.200431 2.25041e-05 0)
(0.200419 2.1576e-05 0)
(0.200407 2.06724e-05 0)
(0.200396 1.97921e-05 0)
(0.200386 1.89339e-05 0)
(0.200375 1.80968e-05 0)
(0.200366 1.72798e-05 0)
(0.200356 1.64819e-05 0)
(0.200347 1.57022e-05 0)
(0.200338 1.49399e-05 0)
(0.20033 1.41941e-05 0)
(0.200322 1.34642e-05 0)
(0.200314 1.27494e-05 0)
(0.200307 1.20493e-05 0)
(0.2003 1.13634e-05 0)
(0.200293 1.06916e-05 0)
(0.200287 1.00341e-05 0)
(0.200281 9.39149e-06 0)
(0.200275 8.7654e-06 0)
(0.20027 8.15901e-06 0)
(0.200265 7.57808e-06 0)
(0.20026 7.03205e-06 0)
(0.200256 6.53152e-06 0)
(0.200251 6.05917e-06 0)
(0.197412 0.00599767 0)
(0.198037 0.0065725 0)
(0.198768 0.00698644 0)
(0.199553 0.00723486 0)
(0.200349 0.0073318 0)
(0.201132 0.00729143 0)
(0.20188 0.00712588 0)
(0.202575 0.00684838 0)
(0.203203 0.0064738 0)
(0.203753 0.00601751 0)
(0.204215 0.00549469 0)
(0.204582 0.00492063 0)
(0.204849 0.00431154 0)
(0.205011 0.00368546 0)
(0.205067 0.00306267 0)
(0.20502 0.00246521 0)
(0.204879 0.00191516 0)
(0.204662 0.0014319 0)
(0.204389 0.00102851 0)
(0.204086 0.000708849 0)
(0.203775 0.000468052 0)
(0.203473 0.00029588 0)
(0.203191 0.000179967 0)
(0.202936 0.000107855 0)
(0.202709 6.81414e-05 0)
(0.202511 5.10837e-05 0)
(0.20234 4.88217e-05 0)
(0.202193 5.5325e-05 0)
(0.202067 6.61969e-05 0)
(0.201959 7.84117e-05 0)
(0.201864 9.00365e-05 0)
(0.201782 9.99666e-05 0)
(0.201708 0.000107683 0)
(0.201642 0.000113058 0)
(0.201582 0.000116215 0)
(0.201526 0.000117432 0)
(0.201474 0.000117063 0)
(0.201425 0.000115476 0)
(0.201378 0.000113012 0)
(0.201333 0.00010996 0)
(0.201291 0.000106548 0)
(0.20125 0.000102946 0)
(0.20121 9.92723e-05 0)
(0.201172 9.56085e-05 0)
(0.201136 9.20069e-05 0)
(0.201101 8.84997e-05 0)
(0.201067 8.51055e-05 0)
(0.201034 8.1834e-05 0)
(0.201003 7.86889e-05 0)
(0.200973 7.56703e-05 0)
(0.200944 7.27756e-05 0)
(0.200916 7.00012e-05 0)
(0.200888 6.73423e-05 0)
(0.200862 6.47939e-05 0)
(0.200837 6.23508e-05 0)
(0.200812 6.00077e-05 0)
(0.200789 5.77594e-05 0)
(0.200766 5.5601e-05 0)
(0.200744 5.35276e-05 0)
(0.200722 5.15346e-05 0)
(0.200701 4.96178e-05 0)
(0.200681 4.77729e-05 0)
(0.200662 4.59961e-05 0)
(0.200643 4.42838e-05 0)
(0.200625 4.26324e-05 0)
(0.200607 4.10387e-05 0)
(0.20059 3.94996e-05 0)
(0.200573 3.80124e-05 0)
(0.200557 3.65742e-05 0)
(0.200542 3.51825e-05 0)
(0.200527 3.3835e-05 0)
(0.200512 3.25293e-05 0)
(0.200498 3.12635e-05 0)
(0.200485 3.00354e-05 0)
(0.200471 2.88432e-05 0)
(0.200459 2.76851e-05 0)
(0.200446 2.65595e-05 0)
(0.200435 2.54646e-05 0)
(0.200423 2.4399e-05 0)
(0.200412 2.33613e-05 0)
(0.200401 2.23501e-05 0)
(0.200391 2.1364e-05 0)
(0.200381 2.0402e-05 0)
(0.200372 1.94628e-05 0)
(0.200363 1.85454e-05 0)
(0.200354 1.76486e-05 0)
(0.200345 1.67716e-05 0)
(0.200337 1.59133e-05 0)
(0.20033 1.50732e-05 0)
(0.200322 1.42504e-05 0)
(0.200315 1.34445e-05 0)
(0.200309 1.26551e-05 0)
(0.200302 1.18823e-05 0)
(0.200296 1.11267e-05 0)
(0.200291 1.03896e-05 0)
(0.200285 9.67388e-06 0)
(0.20028 8.98415e-06 0)
(0.200276 8.32729e-06 0)
(0.200271 7.70845e-06 0)
(0.200267 7.10777e-06 0)
(0.197751 0.0057079 0)
(0.198303 0.00620832 0)
(0.198949 0.00657965 0)
(0.199649 0.00681115 0)
(0.200368 0.00690866 0)
(0.20108 0.00688194 0)
(0.201766 0.00674088 0)
(0.202407 0.00649658 0)
(0.20299 0.00616184 0)
(0.203504 0.00575038 0)
(0.203939 0.00527619 0)
(0.204287 0.00475366 0)
(0.204545 0.00419806 0)
(0.204707 0.0036261 0)
(0.204773 0.00305611 0)
(0.204746 0.0025075 0)
(0.204634 0.00199934 0)
(0.204453 0.00154816 0)
(0.204219 0.00116531 0)
(0.203955 0.000854938 0)
(0.203679 0.000614171 0)
(0.203406 0.000435353 0)
(0.203148 0.000308556 0)
(0.20291 0.000223355 0)
(0.202696 0.000169891 0)
(0.202507 0.000139496 0)
(0.202342 0.000124977 0)
(0.202198 0.000120654 0)
(0.202074 0.000122255 0)
(0.201965 0.000126722 0)
(0.201871 0.000131997 0)
(0.201787 0.000136795 0)
(0.201713 0.000140403 0)
(0.201646 0.000142506 0)
(0.201585 0.000143059 0)
(0.201529 0.00014219 0)
(0.201476 0.000140124 0)
(0.201426 0.000137127 0)
(0.201379 0.000133457 0)
(0.201334 0.000129346 0)
(0.201291 0.00012498 0)
(0.20125 0.000120502 0)
(0.201211 0.000116015 0)
(0.201173 0.000111589 0)
(0.201137 0.000107271 0)
(0.201102 0.000103087 0)
(0.201068 9.90546e-05 0)
(0.201035 9.51793e-05 0)
(0.201004 9.14629e-05 0)
(0.200974 8.79034e-05 0)
(0.200945 8.44962e-05 0)
(0.200917 8.12357e-05 0)
(0.20089 7.81155e-05 0)
(0.200864 7.51289e-05 0)
(0.200838 7.22691e-05 0)
(0.200814 6.95294e-05 0)
(0.20079 6.69031e-05 0)
(0.200767 6.43842e-05 0)
(0.200745 6.19666e-05 0)
(0.200724 5.96448e-05 0)
(0.200703 5.74132e-05 0)
(0.200683 5.5267e-05 0)
(0.200664 5.32014e-05 0)
(0.200645 5.12118e-05 0)
(0.200627 4.92943e-05 0)
(0.200609 4.74448e-05 0)
(0.200592 4.56596e-05 0)
(0.200575 4.39354e-05 0)
(0.200559 4.22689e-05 0)
(0.200544 4.06569e-05 0)
(0.200529 3.90968e-05 0)
(0.200514 3.75858e-05 0)
(0.2005 3.61214e-05 0)
(0.200487 3.47012e-05 0)
(0.200473 3.3323e-05 0)
(0.200461 3.19847e-05 0)
(0.200448 3.06843e-05 0)
(0.200437 2.94198e-05 0)
(0.200425 2.81896e-05 0)
(0.200414 2.69918e-05 0)
(0.200403 2.5825e-05 0)
(0.200393 2.46875e-05 0)
(0.200383 2.35781e-05 0)
(0.200374 2.24952e-05 0)
(0.200365 2.14376e-05 0)
(0.200356 2.04041e-05 0)
(0.200347 1.93935e-05 0)
(0.200339 1.84048e-05 0)
(0.200332 1.74371e-05 0)
(0.200324 1.64895e-05 0)
(0.200317 1.55614e-05 0)
(0.200311 1.46524e-05 0)
(0.200304 1.37623e-05 0)
(0.200298 1.28915e-05 0)
(0.200293 1.20412e-05 0)
(0.200287 1.12137e-05 0)
(0.200282 1.04127e-05 0)
(0.200278 9.64282e-06 0)
(0.200273 8.90555e-06 0)
(0.200269 8.18211e-06 0)
(0.198049 0.0054438 0)
(0.198542 0.00587969 0)
(0.199115 0.00621053 0)
(0.19974 0.00642325 0)
(0.200389 0.00651832 0)
(0.201037 0.00650171 0)
(0.201664 0.00638116 0)
(0.202254 0.00616592 0)
(0.202793 0.00586693 0)
(0.203271 0.00549633 0)
(0.203678 0.0050669 0)
(0.204008 0.00459199 0)
(0.204254 0.00408582 0)
(0.204414 0.00356374 0)
(0.204488 0.00304224 0)
(0.204478 0.00253846 0)
(0.204392 0.00206892 0)
(0.204242 0.00164788 0)
(0.204044 0.00128529 0)
(0.203814 0.000985403 0)
(0.203571 0.0007468 0)
(0.203326 0.000563881 0)
(0.203091 0.000428774 0)
(0.202872 0.000332832 0)
(0.202672 0.000267608 0)
(0.202493 0.000225461 0)
(0.202334 0.000199881 0)
(0.202195 0.000185589 0)
(0.202073 0.000178497 0)
(0.201966 0.000175578 0)
(0.201872 0.000174702 0)
(0.201788 0.000174453 0)
(0.201714 0.000173962 0)
(0.201646 0.000172755 0)
(0.201585 0.000170638 0)
(0.201528 0.000167605 0)
(0.201474 0.000163763 0)
(0.201424 0.00015928 0)
(0.201377 0.000154341 0)
(0.201332 0.000149116 0)
(0.201289 0.000143752 0)
(0.201248 0.000138364 0)
(0.201209 0.000133037 0)
(0.201171 0.000127829 0)
(0.201135 0.000122776 0)
(0.2011 0.000117903 0)
(0.201066 0.00011322 0)
(0.201034 0.000108731 0)
(0.201003 0.000104434 0)
(0.200973 0.000100325 0)
(0.200944 9.6398e-05 0)
(0.200916 9.26446e-05 0)
(0.200889 8.90566e-05 0)
(0.200863 8.56256e-05 0)
(0.200837 8.23432e-05 0)
(0.200813 7.92011e-05 0)
(0.200789 7.61916e-05 0)
(0.200767 7.3307e-05 0)
(0.200744 7.05403e-05 0)
(0.200723 6.78847e-05 0)
(0.200702 6.53339e-05 0)
(0.200682 6.28819e-05 0)
(0.200663 6.05231e-05 0)
(0.200644 5.82523e-05 0)
(0.200626 5.60647e-05 0)
(0.200608 5.39555e-05 0)
(0.200591 5.19205e-05 0)
(0.200575 4.99557e-05 0)
(0.200559 4.80572e-05 0)
(0.200543 4.62216e-05 0)
(0.200528 4.44456e-05 0)
(0.200514 4.2726e-05 0)
(0.2005 4.10599e-05 0)
(0.200486 3.94446e-05 0)
(0.200473 3.78774e-05 0)
(0.200461 3.6356e-05 0)
(0.200448 3.4878e-05 0)
(0.200436 3.34412e-05 0)
(0.200425 3.20436e-05 0)
(0.200414 3.06832e-05 0)
(0.200403 2.93582e-05 0)
(0.200393 2.80669e-05 0)
(0.200383 2.68075e-05 0)
(0.200374 2.55785e-05 0)
(0.200365 2.43785e-05 0)
(0.200356 2.3206e-05 0)
(0.200347 2.20597e-05 0)
(0.200339 2.09383e-05 0)
(0.200332 1.98409e-05 0)
(0.200324 1.87664e-05 0)
(0.200317 1.7714e-05 0)
(0.200311 1.66832e-05 0)
(0.200304 1.56736e-05 0)
(0.200298 1.46856e-05 0)
(0.200293 1.37199e-05 0)
(0.200287 1.27784e-05 0)
(0.200282 1.18638e-05 0)
(0.200278 1.09789e-05 0)
(0.200274 1.01229e-05 0)
(0.200269 9.27988e-06 0)
(0.198311 0.00520108 0)
(0.198755 0.00558121 0)
(0.199266 0.00587459 0)
(0.199827 0.00606791 0)
(0.200412 0.00615837 0)
(0.201 0.00614904 0)
(0.201573 0.00604565 0)
(0.202115 0.00585581 0)
(0.202613 0.00558883 0)
(0.203056 0.00525537 0)
(0.203437 0.00486697 0)
(0.203747 0.0044359 0)
(0.203983 0.00397523 0)
(0.20414 0.00349899 0)
(0.20422 0.00302198 0)
(0.204225 0.00255931 0)
(0.204161 0.00212543 0)
(0.204038 0.00173267 0)
(0.203871 0.00138989 0)
(0.203673 0.00110132 0)
(0.203459 0.000866589 0)
(0.203241 0.000681721 0)
(0.203028 0.000540561 0)
(0.202827 0.000436008 0)
(0.202641 0.000360891 0)
(0.202472 0.000308538 0)
(0.202321 0.000273111 0)
(0.202187 0.000249759 0)
(0.202068 0.000234618 0)
(0.201963 0.000224739 0)
(0.20187 0.000217969 0)
(0.201787 0.000212807 0)
(0.201712 0.000208263 0)
(0.201644 0.000203735 0)
(0.201583 0.000198903 0)
(0.201525 0.000193641 0)
(0.201472 0.000187953 0)
(0.201422 0.000181918 0)
(0.201375 0.000175647 0)
(0.20133 0.000169258 0)
(0.201287 0.000162855 0)
(0.201246 0.000156525 0)
(0.201206 0.000150331 0)
(0.201169 0.000144319 0)
(0.201133 0.000138517 0)
(0.201098 0.00013294 0)
(0.201064 0.000127595 0)
(0.201032 0.000122482 0)
(0.201001 0.000117597 0)
(0.200971 0.000112931 0)
(0.200942 0.000108477 0)
(0.200914 0.000104224 0)
(0.200887 0.000100162 0)
(0.200861 9.62809e-05 0)
(0.200836 9.25703e-05 0)
(0.200812 8.90207e-05 0)
(0.200788 8.56227e-05 0)
(0.200765 8.23676e-05 0)
(0.200743 7.92471e-05 0)
(0.200722 7.62532e-05 0)
(0.200701 7.33787e-05 0)
(0.200681 7.06167e-05 0)
(0.200662 6.79606e-05 0)
(0.200643 6.54046e-05 0)
(0.200625 6.29429e-05 0)
(0.200608 6.05703e-05 0)
(0.200591 5.82818e-05 0)
(0.200574 5.60728e-05 0)
(0.200558 5.3939e-05 0)
(0.200543 5.18764e-05 0)
(0.200528 4.98812e-05 0)
(0.200513 4.79498e-05 0)
(0.200499 4.6079e-05 0)
(0.200486 4.42655e-05 0)
(0.200473 4.25064e-05 0)