/*--------------------------------*- C++ -*----------------------------------*\
| =========                 |                                                 |
| \\      /  F ield         | OpenFOAM: The Open Source CFD Toolbox           |
|  \\    /   O peration     | Version:  2.3.0                                 |
|   \\  /    A nd           | Web:      www.OpenFOAM.org                      |
|    \\/     M anipulation  |                                                 |
\*---------------------------------------------------------------------------*/
FoamFile
{
    version     2.0;
    format      ascii;
    class       volScalarField;
    location    "0.15";
    object      p;
}
// * * * * * * * * * * * * * * * * * * * * * * * * * * * * * * * * * * * * * //

dimensions      [0 2 -2 0 0 0 0];

internalField   nonuniform List<scalar> 
217
(
0.000388203
0.000428333
0.000366106
0.000229381
0.00015437
0.000137888
8.51347e-05
2.6413e-05
1.73911e-05
2.74122e-06
-7.92387e-05
-0.000189934
-0.000251082
-0.000237617
-0.000181923
-0.00012337
-8.00578e-05
-5.13959e-05
-3.32186e-05
-2.17428e-05
-1.42579e-05
-9.158e-06
-5.57677e-06
-2.93771e-06
-8.95121e-07
0.000286856
0.000342502
0.000324369
0.000218043
0.000152015
0.000131219
7.25835e-05
1.58014e-05
1.33758e-05
2.66585e-06
-7.73641e-05
-0.000183989
-0.000240248
-0.000226181
-0.00017377
-0.0001194
-7.82252e-05
-5.08578e-05
-3.31654e-05
-2.17923e-05
-1.42882e-05
-9.16247e-06
-5.57174e-06
-2.93784e-06
-8.99068e-07
0.000226474
0.000290506
0.000300004
0.00021616
0.000152887
0.000125765
6.792e-05
1.4366e-05
9.56595e-06
-2.4931e-06
-6.90045e-05
-0.000149373
-0.000188645
-0.000178496
-0.000143247
-0.000103897
-7.25518e-05
-4.84418e-05
-3.20904e-05
-2.12694e-05
-1.39906e-05
-8.98593e-06
-5.47091e-06
-2.89891e-06
-8.97261e-07
0.000174054
0.000231131
0.000259085
0.000188377
0.000124889
0.000110781
6.45883e-05
4.13536e-06
-5.61822e-06
-5.96031e-06
-5.20738e-05
-0.000118086
-0.000154993
-0.00015279
-0.000128781
-9.82464e-05
-6.82834e-05
-4.62773e-05
-3.11592e-05
-2.07028e-05
-1.35383e-05
-8.63109e-06
-5.23298e-06
-2.77368e-06
-8.63643e-07
0.000131847
0.000163422
0.000199299
0.000157833
0.000100091
8.76812e-05
6.01344e-05
6.8981e-06
-1.00541e-05
-6.8215e-06
-3.79062e-05
-8.83593e-05
-0.000114508
-0.000109808
-9.14241e-05
-7.09478e-05
-5.19924e-05
-3.64305e-05
-2.49173e-05
-1.69788e-05
-1.14254e-05
-7.46936e-06
-4.59782e-06
-2.46463e-06
-7.72617e-07
9.08469e-05
0.000102297
0.0001354
0.000120443
7.44995e-05
5.90229e-05
4.75578e-05
1.05921e-05
-1.08374e-05
-9.59334e-06
-2.40458e-05
-5.56686e-05
-7.56212e-05
-7.59778e-05
-6.77568e-05
-5.70119e-05
-4.43549e-05
-3.20262e-05
-2.21349e-05
-1.49344e-05
-9.84114e-06
-6.27782e-06
-3.80415e-06
-2.0263e-06
-6.4067e-07
3.85858e-05
3.8515e-05
4.8314e-05
4.67455e-05
2.97645e-05
2.13768e-05
1.94658e-05
7.43275e-06
-4.51774e-06
-6.08609e-06
-9.39891e-06
-2.01088e-05
-2.84896e-05
-2.88739e-05
-2.45235e-05
-1.92612e-05
-1.43458e-05
-1.0252e-05
-7.23532e-06
-5.11588e-06
-3.56432e-06
-2.41151e-06
-1.53406e-06
-8.46978e-07
-2.72212e-07
8.87557e-05
8.15491e-05
0.000156175
0.000278891
0.000363981
0.000324391
9.10488e-05
8.02021e-05
0.000149162
0.000267587
0.000306962
0.000264507
9.18794e-05
7.56718e-05
0.000130676
0.000241443
0.000272166
0.000219522
8.73609e-05
7.76831e-05
0.000110104
0.000206833
0.00023745
0.000185236
7.82555e-05
7.12372e-05
8.37286e-05
0.000153711
0.000193073
0.000157938
6.03534e-05
5.66746e-05
6.2527e-05
0.000106744
0.000138376
0.000118332
2.60488e-05
2.58669e-05
2.56366e-05
3.71884e-05
5.00524e-05
4.74395e-05
)
;

boundaryField
{
    top
    {
        type            fixedValue;
        value           uniform 0;
    }
    inlet
    {
        type            zeroGradient;
    }
    outlet
    {
        type            fixedValue;
        value           uniform 0;
    }
    plate
    {
        type            zeroGradient;
    }
    symmBound
    {
        type            zeroGradient;
    }
    frontAndBack
    {
        type            empty;
    }
}


// ************************************************************************* //
