/*--------------------------------*- C++ -*----------------------------------*\
| =========                 |                                                 |
| \\      /  F ield         | OpenFOAM: The Open Source CFD Toolbox           |
|  \\    /   O peration     | Version:  2.3.0                                 |
|   \\  /    A nd           | Web:      www.OpenFOAM.org                      |
|    \\/     M anipulation  |                                                 |
\*---------------------------------------------------------------------------*/
FoamFile
{
    version     2.0;
    format      ascii;
    class       surfaceScalarField;
    location    "0.95";
    object      phi;
}
// * * * * * * * * * * * * * * * * * * * * * * * * * * * * * * * * * * * * * //

dimensions      [0 3 -1 0 0 0 0];

internalField   nonuniform List<scalar> 
6598
(
2.8807e-08
3.07977e-09
-3.18868e-08
2.52262e-08
3.58083e-09
2.16818e-08
3.54437e-09
1.84987e-08
3.18311e-09
1.57185e-08
2.78022e-09
1.3284e-08
2.43446e-09
1.13098e-08
1.97422e-09
9.84502e-09
1.46479e-09
8.71651e-09
1.12851e-09
7.85802e-09
8.58498e-10
7.25274e-09
6.05272e-10
6.81362e-09
4.39123e-10
6.47095e-09
3.42676e-10
6.19147e-09
2.79477e-10
5.95659e-09
2.3488e-10
5.75562e-09
2.00967e-10
5.57571e-09
1.79917e-10
5.40758e-09
1.68128e-10
5.25081e-09
1.56764e-10
5.1045e-09
1.46313e-10
4.96712e-09
1.37378e-10
4.83853e-09
1.28593e-10
4.71858e-09
1.19946e-10
4.60582e-09
1.12761e-10
4.49971e-09
1.06115e-10
4.40001e-09
9.97001e-11
4.30541e-09
9.45922e-11
4.21751e-09
8.78991e-11
4.13408e-09
8.3434e-11
4.05253e-09
8.15552e-11
3.9768e-09
7.57243e-11
3.90572e-09
7.10766e-11
3.83601e-09
6.97163e-11
3.76982e-09
6.61884e-11
3.7076e-09
6.22237e-11
3.64779e-09
5.98049e-11
3.59053e-09
5.72576e-11
3.53528e-09
5.52524e-11
3.48163e-09
5.36495e-11
3.43093e-09
5.07066e-11
3.38256e-09
4.83682e-11
3.33509e-09
4.74633e-11
3.28985e-09
4.52452e-11
3.2467e-09
4.31445e-11
3.20308e-09
4.3628e-11
3.16051e-09
4.25678e-11
3.12157e-09
3.89385e-11
3.08405e-09
3.75201e-11
3.04641e-09
3.76366e-11
3.01036e-09
3.60555e-11
2.97559e-09
3.47719e-11
2.94134e-09
3.42447e-11
2.90878e-09
3.25579e-11
2.87731e-09
3.14773e-11
2.8463e-09
3.10087e-11
2.81645e-09
2.98466e-11
2.78687e-09
2.95822e-11
2.75762e-09
2.92478e-11
2.72962e-09
2.80017e-11
2.70266e-09
2.69598e-11
2.67628e-09
2.63805e-11
2.65036e-09
2.59172e-11
2.62495e-09
2.5407e-11
2.60033e-09
2.46237e-11
2.57617e-09
2.41577e-11
2.55259e-09
2.35813e-11
2.53e-09
2.25884e-11
2.50793e-09
2.20713e-11
2.48577e-09
2.21626e-11
2.46412e-09
2.16524e-11
2.44305e-09
2.10715e-11
2.42228e-09
2.07653e-11
2.40189e-09
2.03893e-11
2.38207e-09
1.98213e-11
2.36251e-09
1.9556e-11
2.34321e-09
1.93001e-11
2.32419e-09
1.90271e-11
2.3057e-09
1.84913e-11
2.2873e-09
1.83931e-11
2.26915e-09
1.81566e-11
2.25163e-09
1.75137e-11
2.23452e-09
1.71149e-11
2.21754e-09
1.69781e-11
2.20077e-09
1.67648e-11
2.18426e-09
1.65122e-11
2.1678e-09
1.64619e-11
2.15159e-09
1.62099e-11
2.13566e-09
1.59296e-11
2.12013e-09
1.55352e-11
2.10438e-09
1.57472e-11
2.08926e-09
1.51141e-11
2.07353e-09
1.57383e-11
2.05844e-09
1.5085e-11
2.04236e-09
1.60825e-11
2.02868e-09
1.36772e-11
2.01275e-09
1.59278e-11
2.00086e-09
1.18899e-11
1.98323e-09
1.76328e-11
1.9753e-09
7.92558e-12
2.23279e-11
3.4266e-08
2.96101e-09
-3.41472e-08
3.4105e-08
3.74179e-09
3.34848e-08
4.16462e-09
3.24466e-08
4.22132e-09
3.11433e-08
4.08343e-09
2.9641e-08
3.9368e-09
2.81322e-08
3.48305e-09
2.66817e-08
2.91526e-09
2.52373e-08
2.57295e-09
2.39082e-08
2.18753e-09
2.27348e-08
1.77871e-09
2.16801e-08
1.49385e-09
2.073e-08
1.29276e-09
1.98641e-08
1.14534e-09
1.90769e-08
1.02211e-09
1.83795e-08
8.98328e-10
1.77588e-08
8.00586e-10
1.71923e-08
7.34638e-10
1.66723e-08
6.76799e-10
1.61941e-08
6.24554e-10
1.57523e-08
5.7912e-10
1.53427e-08
5.382e-10
1.49616e-08
5.01053e-10
1.46046e-08
4.69713e-10
1.42692e-08
4.41564e-10
1.39537e-08
4.15164e-10
1.36556e-08
3.92725e-10
1.33755e-08
3.68005e-10
1.31093e-08
3.49586e-10
1.28541e-08
3.36835e-10
1.26139e-08
3.1594e-10
1.23858e-08
2.99096e-10
1.21662e-08
2.89352e-10
1.1957e-08
2.75337e-10
1.17581e-08
2.61203e-10
1.15673e-08
2.50585e-10
1.13844e-08
2.40176e-10
1.12083e-08
2.31333e-10
1.10385e-08
2.23441e-10
1.08763e-08
2.12898e-10
1.07205e-08
2.04128e-10
1.05694e-08
1.98601e-10
1.04243e-08
1.90346e-10
1.02847e-08
1.82754e-10
1.01475e-08
1.80858e-10
1.00146e-08
1.75407e-10
9.88887e-09
1.64701e-10
9.76712e-09
1.59263e-10
9.64766e-09
1.57099e-10
9.5326e-09
1.51118e-10
9.42121e-09
1.46157e-10
9.31247e-09
1.42992e-10
9.20775e-09
1.37271e-10
9.10606e-09
1.33167e-10
9.00667e-09
1.30405e-10
8.91035e-09
1.26164e-10
8.81588e-09
1.24056e-10
8.72346e-09
1.21666e-10
8.6341e-09
1.17356e-10
8.54743e-09
1.13637e-10
8.46276e-09
1.11047e-10
8.38e-09
1.08675e-10
8.29919e-09
1.06221e-10
8.2205e-09
1.03309e-10
8.1435e-09
1.01156e-10
8.06838e-09
9.87027e-11
7.9955e-09
9.54669e-11
7.92417e-09
9.34059e-11
7.85366e-09
9.26759e-11
7.78474e-09
9.05669e-11
7.7174e-09
8.84152e-11
7.65127e-09
8.689e-11
7.58641e-09
8.52521e-11
7.52301e-09
8.32178e-11
7.46066e-09
8.19109e-11
7.39937e-09
8.05868e-11
7.33915e-09
7.92497e-11
7.28031e-09
7.73267e-11
7.22227e-09
7.64372e-11
7.16526e-09
7.51678e-11
7.10967e-09
7.3106e-11
7.05514e-09
7.16419e-11
7.00134e-09
7.07749e-11
6.94834e-09
6.97679e-11
6.89615e-09
6.87005e-11
6.84453e-09
6.8082e-11
6.79375e-09
6.69916e-11
6.74374e-09
6.59438e-11
6.69462e-09
6.46532e-11
6.64558e-09
6.47821e-11
6.59776e-09
6.29364e-11
6.54945e-09
6.40514e-11
6.50246e-09
6.20711e-11
6.45455e-09
6.39949e-11
6.4101e-09
5.81214e-11
6.36293e-09
6.31018e-11
6.32113e-09
5.36909e-11
6.27253e-09
6.62328e-11
6.23464e-09
4.5817e-11
7.3031e-11
3.58216e-08
2.75594e-09
-3.56165e-08
3.62618e-08
3.30157e-09
3.6677e-08
3.7494e-09
3.66595e-08
4.2388e-09
3.64949e-08
4.2481e-09
3.62686e-08
4.16309e-09
3.58808e-08
3.87081e-09
3.53599e-08
3.43623e-09
3.46402e-08
3.29257e-09
3.38803e-08
2.94748e-09
3.31166e-08
2.54244e-09
3.23505e-08
2.25992e-09
3.16021e-08
2.04116e-09
3.08599e-08
1.88756e-09
3.01134e-08
1.76859e-09
2.93848e-08
1.62695e-09
2.86948e-08
1.49057e-09
2.80459e-08
1.38353e-09
2.74288e-08
1.29386e-09
2.68315e-08
1.22192e-09
2.62536e-08
1.157e-09
2.57004e-08
1.09139e-09
2.51739e-08
1.02759e-09
2.46703e-08
9.73287e-10
2.41871e-08
9.24751e-10
2.37238e-08
8.78427e-10
2.32792e-08
8.3738e-10
2.28561e-08
7.91052e-10
2.24499e-08
7.55816e-10
2.20569e-08
7.29779e-10
2.16829e-08
6.90038e-10
2.13239e-08
6.58035e-10
2.09765e-08
6.36782e-10
2.06436e-08
6.0826e-10
2.03242e-08
5.80582e-10
2.00165e-08
5.58289e-10
1.972e-08
5.36609e-10
1.9433e-08
5.18418e-10
1.91548e-08
5.01561e-10
1.88877e-08
4.79987e-10
1.86302e-08
4.61657e-10
1.83798e-08
4.48997e-10
1.81384e-08
4.31805e-10
1.79052e-08
4.15872e-10
1.76765e-08
4.09648e-10
1.74544e-08
3.97458e-10
1.72426e-08
3.76505e-10
1.70372e-08
3.64667e-10
1.68357e-08
3.5862e-10
1.66407e-08
3.4612e-10
1.64515e-08
3.35372e-10
1.62668e-08
3.27694e-10
1.60883e-08
3.1575e-10
1.59145e-08
3.06923e-10
1.57446e-08
3.00313e-10
1.55797e-08
2.91115e-10
1.5418e-08
2.85742e-10
1.52598e-08
2.79834e-10
1.51064e-08
2.70777e-10
1.49572e-08
2.62843e-10
1.48113e-08
2.56879e-10
1.46688e-08
2.51271e-10
1.45294e-08
2.45541e-10
1.43935e-08
2.39205e-10
1.42605e-08
2.34178e-10
1.41306e-08
2.28628e-10
1.40042e-08
2.21897e-10
1.38804e-08
2.17213e-10
1.37583e-08
2.14735e-10
1.36389e-08
2.09965e-10
1.35221e-08
2.05236e-10
1.34074e-08
2.01589e-10
1.32948e-08
1.9778e-10
1.31847e-08
1.93339e-10
1.30765e-08
1.90152e-10
1.29701e-08
1.86931e-10
1.28657e-08
1.83726e-10
1.27635e-08
1.79524e-10
1.26628e-08
1.77118e-10
1.25639e-08
1.74062e-10
1.24672e-08
1.69784e-10
1.23723e-08
1.66514e-10
1.22789e-08
1.64258e-10
1.21868e-08
1.61799e-10
1.20962e-08
1.59311e-10
1.20068e-08
1.57501e-10
1.19188e-08
1.55029e-10
1.18321e-08
1.52583e-10
1.17469e-08
1.49897e-10
1.16623e-08
1.49406e-10
1.15793e-08
1.4586e-10
1.14964e-08
1.46933e-10
1.14152e-08
1.43348e-10
1.13337e-08
1.4551e-10
1.12557e-08
1.36069e-10
1.11762e-08
1.42588e-10
1.11008e-08
1.29156e-10
1.10216e-08
1.45405e-10
1.09476e-08
1.19791e-10
1.51172e-10
3.73038e-08
2.63092e-09
-3.71788e-08
3.76041e-08
3.0013e-09
3.77761e-08
3.57733e-09
3.82474e-08
3.76759e-09
3.86865e-08
3.80899e-09
3.89734e-08
3.87619e-09
3.8781e-08
4.06318e-09
3.87497e-08
3.46758e-09
3.86693e-08
3.37296e-09
3.84634e-08
3.15336e-09
3.81959e-08
2.80989e-09
3.788e-08
2.57581e-09
3.7557e-08
2.36418e-09
3.72135e-08
2.23108e-09
3.68286e-08
2.15348e-09
3.63976e-08
2.05801e-09
3.59404e-08
1.94768e-09
3.54916e-08
1.83238e-09
3.50652e-08
1.72024e-09
3.46415e-08
1.64562e-09
3.42052e-08
1.59328e-09
3.37586e-08
1.538e-09
3.33134e-08
1.47279e-09
3.28742e-08
1.41255e-09
3.24417e-08
1.35724e-09
3.2014e-08
1.30608e-09
3.15881e-08
1.26336e-09
3.11709e-08
1.20818e-09
3.07613e-08
1.16539e-09
3.03572e-08
1.13389e-09
2.99646e-08
1.08266e-09
2.95792e-08
1.04347e-09
2.91979e-08
1.01811e-09
2.88261e-08
9.79998e-10
2.84645e-08
9.42259e-10
2.81121e-08
9.10664e-10
2.77692e-08
8.79517e-10
2.7432e-08
8.55598e-10
2.70998e-08
8.33712e-10
2.67771e-08
8.02742e-10
2.64633e-08
7.75451e-10
2.61553e-08
7.57031e-10
2.58554e-08
7.31611e-10
2.55637e-08
7.07615e-10
2.52746e-08
6.9876e-10
2.49914e-08
6.80689e-10
2.47202e-08
6.4768e-10
2.44568e-08
6.2801e-10
2.41967e-08
6.18722e-10
2.39424e-08
6.00491e-10
2.36937e-08
5.84082e-10
2.34503e-08
5.71069e-10
2.32145e-08
5.51502e-10
2.29838e-08
5.37639e-10
2.27571e-08
5.27e-10
2.25363e-08
5.11982e-10
2.23189e-08
5.03091e-10
2.21055e-08
4.9322e-10
2.18978e-08
4.78485e-10
2.16952e-08
4.65511e-10
2.14965e-08
4.55496e-10
2.13016e-08
4.46161e-10
2.11105e-08
4.36644e-10
2.09236e-08
4.26102e-10
2.07403e-08
4.17534e-10
2.05607e-08
4.08208e-10
2.03855e-08
3.97133e-10
2.02135e-08
3.89154e-10
2.00438e-08
3.84429e-10
1.98776e-08
3.76232e-10
1.97146e-08
3.68184e-10
1.95544e-08
3.61791e-10
1.9397e-08
3.55199e-10
1.92427e-08
3.47671e-10
1.90908e-08
3.42015e-10
1.89414e-08
3.36324e-10
1.87944e-08
3.30723e-10
1.86504e-08
3.23531e-10
1.85084e-08
3.19168e-10
1.83686e-08
3.13783e-10
1.82318e-08
3.06615e-10
1.80974e-08
3.00929e-10
1.79649e-08
2.96791e-10
1.78344e-08
2.92293e-10
1.77058e-08
2.8789e-10
1.7579e-08
2.84309e-10
1.74539e-08
2.80073e-10
1.73309e-08
2.75575e-10
1.72097e-08
2.71144e-10
1.70897e-08
2.69457e-10
1.69716e-08
2.63886e-10
1.68543e-08
2.64287e-10
1.67385e-08
2.59157e-10
1.66234e-08
2.60561e-10
1.65116e-08
2.47915e-10
1.64001e-08
2.54066e-10
1.62902e-08
2.39046e-10
1.61807e-08
2.54938e-10
1.60703e-08
2.30201e-10
2.58094e-10
3.88378e-08
2.50121e-09
-3.87081e-08
3.90447e-08
2.7944e-09
3.9267e-08
3.35509e-09
3.95881e-08
3.44648e-09
3.98471e-08
3.54992e-09
4.00095e-08
3.71386e-09
4.03819e-08
3.69075e-09
4.03011e-08
3.54836e-09
4.04749e-08
3.1992e-09
4.04964e-08
3.13185e-09
4.04772e-08
2.82908e-09
4.0439e-08
2.61405e-09
4.03813e-08
2.42181e-09
4.03087e-08
2.30374e-09
4.01954e-08
2.26674e-09
4.00287e-08
2.2247e-09
3.98256e-08
2.15085e-09
3.96171e-08
2.04087e-09
3.94279e-08
1.90943e-09
3.92392e-08
1.83433e-09
3.90291e-08
1.80333e-09
3.87924e-08
1.77477e-09
3.85405e-08
1.72468e-09
3.8278e-08
1.67504e-09
3.8011e-08
1.6242e-09
3.77396e-08
1.57747e-09
3.74572e-08
1.54575e-09
3.71707e-08
1.49472e-09
3.6879e-08
1.45708e-09
3.65831e-08
1.42974e-09
3.62897e-08
1.37614e-09
3.59943e-08
1.33878e-09
3.56928e-08
1.31963e-09
3.53891e-08
1.28373e-09
3.50853e-08
1.246e-09
3.47845e-08
1.21149e-09
3.44896e-08
1.17445e-09
3.41952e-08
1.14994e-09
3.38978e-08
1.1311e-09
3.3602e-08
1.09863e-09
3.33097e-08
1.06769e-09
3.30182e-08
1.04857e-09
3.27307e-08
1.01914e-09
3.24479e-08
9.90337e-10
3.21616e-08
9.85106e-10
3.18735e-08
9.68754e-10
3.15948e-08
9.26416e-10
3.13253e-08
8.97507e-10
3.10587e-08
8.85321e-10
3.07939e-08
8.65308e-10
3.05292e-08
8.48704e-10
3.02673e-08
8.33036e-10
3.00131e-08
8.057e-10
2.9763e-08
7.87687e-10
2.95153e-08
7.74779e-10
2.92718e-08
7.55407e-10
2.90299e-08
7.45066e-10
2.87903e-08
7.32753e-10
2.85559e-08
7.12903e-10
2.83261e-08
6.95305e-10
2.80999e-08
6.8167e-10
2.78766e-08
6.69483e-10
2.76558e-08
6.57442e-10
2.74386e-08
6.43297e-10
2.72247e-08
6.31464e-10
2.70142e-08
6.18678e-10
2.68078e-08
6.03507e-10
2.66043e-08
5.92746e-10
2.64023e-08
5.86371e-10
2.62037e-08
5.74818e-10
2.60086e-08
5.63355e-10
2.58163e-08
5.54086e-10
2.56268e-08
5.44636e-10
2.54405e-08
5.34025e-10
2.52565e-08
5.26009e-10
2.50749e-08
5.17901e-10
2.48956e-08
5.1002e-10
2.47195e-08
4.99647e-10
2.45452e-08
4.93503e-10
2.43731e-08
4.85801e-10
2.42042e-08
4.75543e-10
2.40379e-08
4.67221e-10
2.38735e-08
4.6123e-10
2.37113e-08
4.54515e-10
2.3551e-08
4.48118e-10
2.3393e-08
4.4233e-10
2.32367e-08
4.36337e-10
2.30831e-08
4.29255e-10
2.2931e-08
4.23201e-10
2.27806e-08
4.19816e-10
2.26321e-08
4.12412e-10
2.2485e-08
4.11438e-10
2.23386e-08
4.05564e-10
2.21943e-08
4.04809e-10
2.2052e-08
3.90191e-10
2.19127e-08
3.93352e-10
2.17716e-08
3.80239e-10
2.1635e-08
3.915e-10
2.14922e-08
3.73035e-10
3.91923e-10
4.0452e-08
2.33323e-09
-4.0284e-08
4.05869e-08
2.65947e-09
4.0809e-08
3.13298e-09
4.10876e-08
3.16787e-09
4.12837e-08
3.35384e-09
4.15536e-08
3.44397e-09
4.16856e-08
3.55869e-09
4.17646e-08
3.4694e-09
4.19108e-08
3.053e-09
4.19352e-08
3.10742e-09
4.20309e-08
2.73339e-09
4.2118e-08
2.52696e-09
4.21223e-08
2.41748e-09
4.20991e-08
2.32699e-09
4.20611e-08
2.30467e-09
4.20122e-08
2.2736e-09
4.19629e-08
2.20019e-09
4.19069e-08
2.09687e-09
4.18596e-08
1.9567e-09
4.18082e-08
1.88573e-09
4.17421e-08
1.86948e-09
4.1656e-08
1.86082e-09
4.15615e-08
1.81921e-09
4.14527e-08
1.78385e-09
4.13342e-08
1.74268e-09
4.12114e-08
1.70034e-09
4.10766e-08
1.68055e-09
4.09349e-08
1.63634e-09
4.07842e-08
1.60782e-09
4.0626e-08
1.58792e-09
4.0464e-08
1.5382e-09
4.02969e-08
1.50582e-09
4.0121e-08
1.49553e-09
3.99361e-08
1.46863e-09
3.97423e-08
1.43983e-09
3.95452e-08
1.40854e-09
3.93519e-08
1.36783e-09
3.91572e-08
1.34464e-09
3.89558e-08
1.33252e-09
3.87487e-08
1.30573e-09
3.85392e-08
1.27717e-09
3.83249e-08
1.26281e-09
3.811e-08
1.23402e-09
3.78982e-08
1.20215e-09
3.76786e-08
1.20471e-09
3.74469e-08
1.20047e-09
3.72147e-08
1.15865e-09
3.69891e-08
1.12308e-09
3.67684e-08
1.10605e-09
3.65493e-08
1.08433e-09
3.63243e-08
1.07374e-09
3.60949e-08
1.06249e-09
3.58693e-08
1.03128e-09
3.56459e-08
1.01103e-09
3.54238e-08
9.96864e-10
3.52041e-08
9.75198e-10
3.49815e-08
9.67665e-10
3.4757e-08
9.57197e-10
3.45348e-08
9.35079e-10
3.43157e-08
9.144e-10
3.40995e-08
8.97899e-10
3.38848e-08
8.84241e-10
3.36695e-08
8.72691e-10
3.34551e-08
8.57707e-10
3.32423e-08
8.4422e-10
3.3032e-08
8.28974e-10
3.2825e-08
8.10598e-10
3.26189e-08
7.98771e-10
3.24121e-08
7.93175e-10
3.22067e-08
7.80244e-10
3.20034e-08
7.66647e-10
3.18025e-08
7.55015e-10
3.16042e-08
7.42945e-10
3.14084e-08
7.29756e-10
3.12142e-08
7.20265e-10
3.10214e-08
7.10654e-10
3.08299e-08
7.01536e-10
3.06409e-08
6.88624e-10
3.04527e-08
6.81757e-10
3.02659e-08
6.72538e-10
3.00818e-08
6.59733e-10
2.98999e-08
6.49056e-10
2.97192e-08
6.41952e-10
2.954e-08
6.33673e-10
2.93619e-08
6.26207e-10
2.91861e-08
6.18226e-10
2.90114e-08
6.10964e-10
2.88398e-08
6.00845e-10
2.86691e-08
5.93904e-10
2.85004e-08
5.88571e-10
2.83324e-08
5.80361e-10
2.81663e-08
5.7754e-10
2.79993e-08
5.72619e-10
2.78358e-08
5.68241e-10
2.76725e-08
5.53507e-10
2.75148e-08
5.51092e-10
2.73515e-08
5.43525e-10
2.71958e-08
5.47232e-10
2.70302e-08
5.38603e-10
5.45795e-10
4.20721e-08
2.20935e-09
-4.19482e-08
4.21948e-08
2.53677e-09
4.24285e-08
2.89933e-09
4.26514e-08
2.94492e-09
4.28407e-08
3.16452e-09
4.3059e-08
3.22571e-09
4.31689e-08
3.44884e-09
4.3221e-08
3.41726e-09
4.33403e-08
2.93375e-09
4.35384e-08
2.90932e-09
4.36411e-08
2.63065e-09
4.36641e-08
2.50391e-09
4.36664e-08
2.41527e-09
4.36583e-08
2.33508e-09
4.3644e-08
2.31894e-09
4.36229e-08
2.2947e-09
4.36002e-08
2.22289e-09
4.35971e-08
2.09999e-09
4.36001e-08
1.95367e-09
4.35948e-08
1.89107e-09
4.35764e-08
1.88781e-09
4.35513e-08
1.88595e-09
4.35282e-08
1.84227e-09
4.34972e-08
1.8149e-09
4.34584e-08
1.78151e-09
4.3415e-08
1.74371e-09
4.33682e-08
1.72733e-09
4.33177e-08
1.68689e-09
4.32612e-08
1.6643e-09
4.32014e-08
1.64768e-09
4.3133e-08
1.60667e-09
4.30599e-08
1.57883e-09
4.29807e-08
1.57475e-09
4.28938e-08
1.5556e-09
4.27966e-08
1.53702e-09
4.26944e-08
1.51069e-09
4.25971e-08
1.46514e-09
4.2499e-08
1.44271e-09
4.23954e-08
1.43612e-09
4.22847e-08
1.41645e-09
4.21692e-08
1.39265e-09
4.20456e-08
1.38646e-09
4.19186e-08
1.36101e-09
4.17966e-08
1.32417e-09
4.16682e-08
1.33304e-09
4.15219e-08
1.34681e-09
4.13656e-08
1.31495e-09
4.12099e-08
1.27876e-09
4.1059e-08
1.25696e-09
4.09133e-08
1.23008e-09
4.07608e-08
1.22618e-09
4.05998e-08
1.22353e-09
4.04368e-08
1.19431e-09
4.02715e-08
1.17631e-09
4.01072e-08
1.16116e-09
3.99455e-08
1.13684e-09
3.97787e-08
1.13447e-09
3.96056e-08
1.13036e-09
3.94296e-08
1.11108e-09
3.92533e-08
1.09071e-09
3.90793e-08
1.07189e-09
3.8907e-08
1.05652e-09
3.8732e-08
1.04768e-09
3.85541e-08
1.03561e-09
3.83745e-08
1.02378e-09
3.81956e-08
1.00792e-09
3.80194e-08
9.86771e-10
3.78435e-08
9.74684e-10
3.76643e-08
9.72367e-10
3.74828e-08
9.61788e-10
3.72997e-08
9.49676e-10
3.7117e-08
9.37802e-10
3.6936e-08
9.23873e-10
3.67573e-08
9.08454e-10
3.65794e-08
8.98236e-10
3.64017e-08
8.88267e-10
3.62239e-08
8.79401e-10
3.60473e-08
8.65169e-10
3.58696e-08
8.59487e-10
3.56917e-08
8.50458e-10
3.55149e-08
8.36538e-10
3.53398e-08
8.24089e-10
3.51651e-08
8.16743e-10
3.49907e-08
8.08038e-10
3.48152e-08
8.01735e-10
3.46405e-08
7.92837e-10
3.44658e-08
7.8573e-10
3.42944e-08
7.72181e-10
3.41232e-08
7.65124e-10
3.39542e-08
7.57618e-10
3.37843e-08
7.50203e-10
3.36159e-08
7.45978e-10
3.3444e-08
7.44525e-10
3.32764e-08
7.35864e-10
3.31072e-08
7.22629e-10
3.29454e-08
7.12891e-10
3.27756e-08
7.13341e-10
3.26138e-08
7.09092e-10
3.24408e-08
7.11553e-10
7.0756e-10
4.37585e-08
2.0549e-09
-4.36041e-08
4.38641e-08
2.43123e-09
4.41319e-08
2.63144e-09
4.42457e-08
2.83112e-09
4.44416e-08
2.96865e-09
4.45533e-08
3.11407e-09
4.46454e-08
3.35666e-09
4.48161e-08
3.24654e-09
4.49364e-08
2.81346e-09
4.51304e-08
2.71533e-09
4.52096e-08
2.55152e-09
4.52055e-08
2.50799e-09
4.52125e-08
2.40823e-09
4.52267e-08
2.32095e-09
4.52195e-08
2.32608e-09
4.52159e-08
2.29833e-09
4.52235e-08
2.21531e-09
4.52534e-08
2.07009e-09
4.52508e-08
1.95627e-09
4.52364e-08
1.90545e-09
4.52135e-08
1.91075e-09
4.52011e-08
1.8983e-09
4.5199e-08
1.84438e-09
4.51944e-08
1.81954e-09
4.51865e-08
1.78941e-09
4.51639e-08
1.76632e-09
4.51499e-08
1.74133e-09
4.51357e-08
1.70102e-09
4.51223e-08
1.67769e-09
4.51107e-08
1.65933e-09
4.50874e-08
1.62994e-09
4.50587e-08
1.60751e-09
4.50273e-08
1.60621e-09
4.4991e-08
1.59185e-09
4.4947e-08
1.58108e-09
4.49021e-08
1.55554e-09
4.48647e-08
1.50259e-09
4.4829e-08
1.47836e-09
4.47879e-08
1.47726e-09
4.47404e-08
1.46389e-09
4.46918e-08
1.44126e-09
4.46358e-08
1.44247e-09
4.45756e-08
1.42122e-09
4.45232e-08
1.37655e-09
4.4469e-08
1.38723e-09
4.43951e-08
1.42075e-09
4.43082e-08
1.40183e-09
4.42183e-08
1.36863e-09
4.41316e-08
1.34367e-09
4.40532e-08
1.30855e-09
4.39704e-08
1.30895e-09
4.38804e-08
1.31353e-09
4.3785e-08
1.28966e-09
4.36831e-08
1.27827e-09
4.35821e-08
1.26217e-09
4.34854e-08
1.23356e-09
4.33843e-08
1.23548e-09
4.32758e-08
1.23886e-09
4.31605e-08
1.22645e-09
4.30403e-08
1.21084e-09
4.29214e-08
1.19082e-09
4.28059e-08
1.17209e-09
4.26879e-08
1.16565e-09
4.25654e-08
1.15811e-09
4.24381e-08
1.15107e-09
4.23087e-08
1.13734e-09
4.21816e-08
1.11387e-09
4.20555e-08
1.10072e-09
4.19262e-08
1.10168e-09
4.17921e-08
1.09595e-09
4.16522e-08
1.08954e-09
4.15089e-08
1.08106e-09
4.13654e-08
1.06739e-09
4.12234e-08
1.05049e-09
4.10819e-08
1.03969e-09
4.09403e-08
1.02988e-09
4.07976e-08
1.0221e-09
4.06557e-08
1.00714e-09
4.05109e-08
1.00419e-09
4.03641e-08
9.97339e-10
4.02159e-08
9.84663e-10
4.00684e-08
9.71642e-10
3.99206e-08
9.64499e-10
3.9773e-08
9.55676e-10
3.96222e-08
9.52572e-10
3.94698e-08
9.45176e-10
3.93143e-08
9.41225e-10
3.91615e-08
9.25035e-10
3.90082e-08
9.18416e-10
3.88579e-08
9.07934e-10
3.87062e-08
9.0185e-10
3.85547e-08
8.9749e-10
3.83968e-08
9.02435e-10
3.82417e-08
8.90919e-10
3.80843e-08
8.80094e-10
3.79347e-08
8.62504e-10
3.77771e-08
8.70931e-10
3.76255e-08
8.60683e-10
3.74637e-08
8.73284e-10
8.61687e-10
4.54291e-08
2.0618e-09
-4.5436e-08
4.56225e-08
2.2379e-09
4.58221e-08
2.43186e-09
4.58824e-08
2.77076e-09
4.60473e-08
2.80379e-09
4.61757e-08
2.98561e-09
4.63246e-08
3.20774e-09
4.64817e-08
3.08951e-09
4.659e-08
2.70511e-09
4.67625e-08
2.54288e-09
4.68196e-08
2.49438e-09
4.68283e-08
2.49932e-09
4.68313e-08
2.40519e-09
4.68268e-08
2.32552e-09
4.68378e-08
2.31507e-09
4.68712e-08
2.26487e-09
4.69176e-08
2.16897e-09
4.69413e-08
2.04637e-09
4.69176e-08
1.97992e-09
4.68888e-08
1.93433e-09
4.68694e-08
1.93005e-09
4.68626e-08
1.90517e-09
4.68712e-08
1.83576e-09
4.687e-08
1.82074e-09
4.68674e-08
1.79198e-09
4.68518e-08
1.78196e-09
4.68448e-08
1.74829e-09
4.68394e-08
1.70643e-09
4.68333e-08
1.68384e-09
4.68365e-08
1.65608e-09
4.68267e-08
1.63977e-09
4.68132e-08
1.62095e-09
4.67943e-08
1.62519e-09
4.67771e-08
1.60897e-09
4.67532e-08
1.60503e-09
4.67413e-08
1.56742e-09
4.67306e-08
1.5133e-09
4.67218e-08
1.4872e-09
4.67057e-08
1.49333e-09
4.66837e-08
1.48586e-09
4.66693e-08
1.45565e-09
4.66489e-08
1.46287e-09
4.66271e-08
1.44309e-09
4.66128e-08
1.39082e-09
4.65999e-08
1.40013e-09
4.65629e-08
1.45773e-09
4.65187e-08
1.44605e-09
4.64733e-08
1.41408e-09
4.64321e-08
1.38481e-09
4.64e-08
1.34066e-09
4.63625e-08
1.34647e-09
4.63217e-08
1.35431e-09
4.6276e-08
1.33537e-09
4.62217e-08
1.33253e-09
4.61698e-08
1.31412e-09
4.61232e-08
1.28008e-09
4.6074e-08
1.28472e-09
4.60191e-08
1.2938e-09
4.59565e-08
1.28897e-09
4.58863e-08
1.28104e-09
4.58159e-08
1.26124e-09
4.57508e-08
1.2372e-09
4.56847e-08
1.23178e-09
4.56151e-08
1.22772e-09
4.55399e-08
1.22628e-09
4.54603e-08
1.21695e-09
4.53823e-08
1.19184e-09
4.53067e-08
1.1763e-09
4.523e-08
1.17841e-09
4.51486e-08
1.17731e-09
4.50594e-08
1.17869e-09
4.4964e-08
1.17656e-09
4.48657e-08
1.16569e-09
4.47674e-08
1.14869e-09
4.46697e-08
1.1374e-09
4.45717e-08
1.12794e-09
4.44725e-08
1.12129e-09
4.43745e-08
1.10516e-09
4.42739e-08
1.10481e-09
4.41705e-08
1.10069e-09
4.40638e-08
1.09136e-09
4.39558e-08
1.0797e-09
4.3847e-08
1.07329e-09
4.37389e-08
1.06379e-09
4.36275e-08
1.06397e-09
4.3513e-08
1.05966e-09
4.33922e-08
1.06203e-09
4.32713e-08
1.0459e-09
4.31487e-08
1.041e-09
4.30296e-08
1.02702e-09
4.29109e-08
1.02057e-09
4.27917e-08
1.01668e-09
4.26644e-08
1.02974e-09
4.25362e-08
1.01915e-09
4.2405e-08
1.01132e-09
4.22805e-08
9.86988e-10
4.21508e-08
1.00062e-09
4.20243e-08
9.872e-10
4.18905e-08
1.00706e-09
9.93315e-10
4.72907e-08
2.07588e-09
-4.73048e-08
4.73626e-08
2.16595e-09
4.75272e-08
2.26734e-09
4.76185e-08
2.67945e-09
4.77365e-08
2.68572e-09
4.79108e-08
2.81141e-09
4.80286e-08
3.08986e-09
4.82066e-08
2.91151e-09
4.83451e-08
2.5666e-09
4.84163e-08
2.47174e-09
4.84679e-08
2.44278e-09
4.84962e-08
2.47103e-09
4.85311e-08
2.37027e-09
4.85215e-08
2.33507e-09
4.85408e-08
2.29581e-09
4.8598e-08
2.20769e-09
4.86486e-08
2.11831e-09
4.8653e-08
2.04198e-09
4.86271e-08
2.00584e-09
4.85938e-08
1.96762e-09
4.85809e-08
1.94298e-09
4.85826e-08
1.90342e-09
4.85986e-08
1.81974e-09
4.85934e-08
1.82594e-09
4.85901e-08
1.79537e-09
4.85849e-08
1.7871e-09
4.85757e-08
1.7575e-09
4.85723e-08
1.70987e-09
4.85687e-08
1.68739e-09
4.857e-08
1.65484e-09
4.8565e-08
1.64472e-09
4.85532e-08
1.63278e-09
4.85399e-08
1.63847e-09
4.8522e-08
1.62688e-09
4.8508e-08
1.61902e-09
4.85072e-08
1.56827e-09
4.85073e-08
1.51315e-09
4.85022e-08
1.49232e-09
4.84912e-08
1.50433e-09
4.84766e-08
1.5005e-09
4.84744e-08
1.45784e-09
4.84708e-08
1.46648e-09
4.84627e-08
1.45112e-09
4.84631e-08
1.39042e-09
4.84686e-08
1.3947e-09
4.84391e-08
1.48718e-09
4.84183e-08
1.4668e-09
4.83938e-08
1.43866e-09
4.83786e-08
1.40002e-09
4.83725e-08
1.3467e-09
4.83557e-08
1.36331e-09
4.83379e-08
1.37213e-09
4.83183e-08
1.35498e-09
4.82919e-08
1.35892e-09
4.82691e-08
1.33686e-09
4.82516e-08
1.29759e-09
4.82319e-08
1.30449e-09
4.82085e-08
1.31713e-09
4.81792e-08
1.31825e-09
4.81429e-08
1.31738e-09
4.81052e-08
1.29893e-09
4.80742e-08
1.26825e-09
4.80431e-08
1.26285e-09
4.80103e-08
1.26052e-09
4.7973e-08
1.26359e-09
4.79305e-08
1.25942e-09
4.7889e-08
1.23337e-09
4.7851e-08
1.21432e-09
4.78144e-08
1.21497e-09
4.77749e-08
1.21682e-09
4.77282e-08
1.22544e-09
4.76743e-08
1.2304e-09
4.76161e-08
1.22387e-09
4.7557e-08
1.20789e-09
4.74983e-08
1.19602e-09
4.74389e-08
1.18735e-09
4.73785e-08
1.18168e-09
4.73199e-08
1.1638e-09
4.72599e-08
1.16476e-09
4.71987e-08
1.16193e-09
4.71338e-08
1.15627e-09
4.70659e-08
1.1476e-09
4.69966e-08
1.14259e-09
4.69283e-08
1.13207e-09
4.68581e-08
1.13414e-09
4.67851e-08
1.13275e-09
4.67046e-08
1.14245e-09
4.66212e-08
1.12932e-09
4.65341e-08
1.12807e-09
4.64496e-08
1.11157e-09
4.6368e-08
1.1022e-09
4.62863e-08
1.09831e-09
4.61977e-08
1.1184e-09
4.61035e-08
1.11328e-09
4.60062e-08
1.10871e-09
4.59131e-08
1.08009e-09
4.58188e-08
1.09493e-09
4.57253e-08
1.08068e-09
4.56285e-08
1.10378e-09
1.09306e-09
4.90942e-08
2.07612e-09
-4.90944e-08
4.92113e-08
2.04883e-09
4.93756e-08
2.10304e-09
4.93818e-08
2.67326e-09
4.95566e-08
2.51092e-09
4.97017e-08
2.66629e-09
4.98339e-08
2.95764e-09
5.00418e-08
2.70365e-09
5.01138e-08
2.49458e-09
5.01536e-08
2.43189e-09
5.02033e-08
2.39314e-09
5.02509e-08
2.42339e-09
5.02715e-08
2.34969e-09
5.02776e-08
2.32896e-09
5.03274e-08
2.24605e-09
5.0378e-08
2.15705e-09
5.04183e-08
2.078e-09
5.04159e-08
2.04441e-09
5.03943e-08
2.02742e-09
5.03702e-08
1.99168e-09
5.0357e-08
1.95625e-09
5.03774e-08
1.88304e-09
5.03811e-08
1.81603e-09
5.03798e-08
1.82721e-09
5.03759e-08
1.79924e-09
5.03783e-08
1.78468e-09
5.03649e-08
1.77092e-09
5.03608e-08
1.71401e-09
5.03607e-08
1.68744e-09
5.03569e-08
1.65864e-09
5.03508e-08
1.65081e-09
5.03407e-08
1.64292e-09
5.03341e-08
1.64506e-09
5.03194e-08
1.64156e-09
5.03127e-08
1.62576e-09
5.03041e-08
1.57687e-09
5.03062e-08
1.51102e-09
5.03037e-08
1.49482e-09
5.02948e-08
1.51321e-09
5.02847e-08
1.51065e-09
5.02819e-08
1.46062e-09
5.02801e-08
1.46828e-09
5.02801e-08
1.45108e-09
5.02799e-08
1.39068e-09
5.02745e-08
1.40007e-09
5.02614e-08
1.50029e-09
5.02515e-08
1.4767e-09
5.02437e-08
1.44648e-09
5.02354e-08
1.40829e-09
5.02309e-08
1.35118e-09
5.02194e-08
1.37482e-09
5.02139e-08
1.37767e-09
5.0204e-08
1.36486e-09
5.01937e-08
1.36919e-09
5.0184e-08
1.34661e-09
5.01766e-08
1.30501e-09
5.01685e-08
1.31259e-09
5.016e-08
1.32562e-09
5.01456e-08
1.33261e-09
5.01274e-08
1.33555e-09
5.0108e-08
1.31838e-09
5.0095e-08
1.28126e-09
5.00824e-08
1.27545e-09
5.00696e-08
1.2733e-09
5.00535e-08
1.27963e-09
5.00324e-08
1.28061e-09
5.00111e-08
1.25468e-09
4.99939e-08
1.23149e-09
4.99807e-08
1.22813e-09
4.99662e-08
1.23136e-09
4.99463e-08
1.24528e-09
4.99204e-08
1.25631e-09
4.98899e-08
1.25445e-09
4.9858e-08
1.23972e-09
4.98276e-08
1.22647e-09
4.97958e-08
1.21907e-09
4.97631e-08
1.2144e-09
4.97318e-08
1.19508e-09
4.97003e-08
1.19629e-09
4.96696e-08
1.19258e-09
4.96367e-08
1.18917e-09
4.96005e-08
1.18386e-09
4.95627e-08
1.18039e-09
4.95258e-08
1.16895e-09
4.94885e-08
1.17146e-09
4.94491e-08
1.17217e-09
4.94036e-08
1.18789e-09
4.93539e-08
1.179e-09
4.92995e-08
1.18256e-09
4.92457e-08
1.16535e-09
4.91965e-08
1.15135e-09
4.91476e-08
1.14719e-09
4.90948e-08
1.17127e-09
4.9033e-08
1.17507e-09
4.89681e-08
1.17358e-09
4.89053e-08
1.14286e-09
4.88451e-08
1.15522e-09
4.87842e-08
1.14157e-09
4.87237e-08
1.16429e-09
1.15965e-09
5.11011e-08
1.88407e-09
-5.0909e-08
5.09901e-08
2.15979e-09
5.13508e-08
1.74241e-09
5.12544e-08
2.76967e-09
5.13764e-08
2.38887e-09
5.16074e-08
2.43534e-09
5.17459e-08
2.81909e-09
5.18714e-08
2.57814e-09
5.18844e-08
2.48165e-09
5.19524e-08
2.36388e-09
5.20367e-08
2.30881e-09
5.20919e-08
2.3682e-09
5.20913e-08
2.35028e-09
5.21243e-08
2.29599e-09
5.21644e-08
2.20588e-09
5.22277e-08
2.09379e-09
5.22553e-08
2.05039e-09
5.22416e-08
2.05813e-09
5.22219e-08
2.04706e-09
5.22064e-08
2.00722e-09
5.22124e-08
1.95027e-09
5.22407e-08
1.8547e-09
5.22305e-08
1.8262e-09
5.22304e-08
1.82732e-09
5.22297e-08
1.8e-09
5.22271e-08
1.7873e-09
5.22251e-08
1.7729e-09
5.22216e-08
1.71744e-09
5.22144e-08
1.69464e-09
5.22075e-08
1.66553e-09
5.21983e-08
1.66004e-09
5.21908e-08
1.65043e-09
5.21865e-08
1.64933e-09
5.21807e-08
1.6474e-09
5.21797e-08
1.62677e-09
5.21665e-08
1.5901e-09
5.21654e-08
1.51208e-09
5.21649e-08
1.49528e-09
5.21534e-08
1.52475e-09
5.21519e-08
1.51214e-09
5.21443e-08
1.46826e-09
5.21412e-08
1.47137e-09
5.21402e-08
1.45208e-09
5.21373e-08
1.39357e-09
5.212e-08
1.41739e-09
5.21184e-08
1.5019e-09
5.21133e-08
1.4818e-09
5.21099e-08
1.44987e-09
5.21085e-08
1.40969e-09
5.21025e-08
1.35715e-09
5.20947e-08
1.38263e-09
5.20911e-08
1.38129e-09
5.20857e-08
1.37025e-09
5.20769e-08
1.37796e-09
5.20719e-08
1.35165e-09
5.20679e-08
1.30895e-09
5.20651e-08
1.31542e-09
5.20597e-08
1.33106e-09
5.20504e-08
1.3419e-09
5.20401e-08
1.34586e-09
5.20303e-08
1.32817e-09
5.20257e-08
1.28581e-09
5.20218e-08
1.27939e-09
5.20188e-08
1.27632e-09
5.2011e-08
1.28744e-09
5.1999e-08
1.29258e-09
5.19856e-08
1.2681e-09
5.19763e-08
1.24072e-09
5.1973e-08
1.23148e-09
5.19691e-08
1.23522e-09
5.19624e-08
1.25201e-09
5.19517e-08
1.26695e-09
5.19362e-08
1.26996e-09
5.19197e-08
1.25626e-09
5.19057e-08
1.24045e-09
5.18906e-08
1.23416e-09
5.18754e-08
1.22958e-09
5.18594e-08
1.2111e-09
5.18433e-08
1.21239e-09
5.18294e-08
1.20649e-09
5.18152e-08
1.20343e-09
5.17987e-08
1.20029e-09
5.17814e-08
1.19767e-09
5.17646e-08
1.18582e-09
5.1748e-08
1.18799e-09
5.17299e-08
1.19031e-09
5.17078e-08
1.20998e-09
5.16824e-08
1.20439e-09
5.16527e-08
1.21227e-09
5.16222e-08
1.19585e-09
5.15966e-08
1.17693e-09
5.1571e-08
1.17283e-09
5.1544e-08
1.19831e-09
5.1506e-08
1.21301e-09
5.14658e-08
1.21384e-09
5.14268e-08
1.18185e-09
5.13932e-08
1.18882e-09
5.13585e-08
1.17621e-09
5.1326e-08
1.19678e-09
1.19872e-09
5.30273e-08
1.76246e-09
-5.29057e-08
5.30036e-08
2.18347e-09
5.31954e-08
1.5506e-09
5.32705e-08
2.6946e-09
5.33451e-08
2.31428e-09
5.34962e-08
2.28428e-09
5.36506e-08
2.66468e-09
5.37475e-08
2.48117e-09
5.37853e-08
2.44387e-09
5.38722e-08
2.27697e-09
5.39431e-08
2.23791e-09
5.39718e-08
2.3395e-09
5.39957e-08
2.32645e-09
5.40249e-08
2.26671e-09
5.40836e-08
2.14721e-09
5.41362e-08
2.04123e-09
5.41455e-08
2.04102e-09
5.41358e-08
2.06785e-09
5.41231e-08
2.05977e-09
5.41201e-08
2.01024e-09
5.41433e-08
1.92701e-09
5.416e-08
1.83799e-09
5.4157e-08
1.82927e-09
5.41536e-08
1.83075e-09