/*--------------------------------*- C++ -*----------------------------------*\
| =========                 |                                                 |
| \\      /  F ield         | OpenFOAM: The Open Source CFD Toolbox           |
|  \\    /   O peration     | Version:  2.3.0                                 |
|   \\  /    A nd           | Web:      www.OpenFOAM.org                      |
|    \\/     M anipulation  |                                                 |
\*---------------------------------------------------------------------------*/
FoamFile
{
    version     2.0;
    format      ascii;
    class       volVectorField;
    location    "0.3";
    object      U_0;
}
// * * * * * * * * * * * * * * * * * * * * * * * * * * * * * * * * * * * * * //

dimensions      [0 1 -1 0 0 0 0];

internalField   nonuniform List<vector> 
3105
(
(0.171558 0.00584318 0)
(0.154936 0.00598697 0)
(0.139119 0.0056087 0)
(0.124117 0.0050229 0)
(0.110311 0.00436568 0)
(0.097897 0.00369612 0)
(0.0869029 0.00305188 0)
(0.0772975 0.00245916 0)
(0.0690243 0.00193419 0)
(0.0619984 0.00148535 0)
(0.0561064 0.00111463 0)
(0.0512149 0.000818717 0)
(0.047182 0.000590284 0)
(0.0438674 0.000419569 0)
(0.0411398 0.000295953 0)
(0.0388822 0.000209184 0)
(0.0369949 0.000150151 0)
(0.0353958 0.000111234 0)
(0.0340195 8.63722e-05 0)
(0.0328158 7.09424e-05 0)
(0.0317465 6.15658e-05 0)
(0.0307836 5.58766e-05 0)
(0.0299064 5.22945e-05 0)
(0.0291 4.98178e-05 0)
(0.0283535 4.7851e-05 0)
(0.0276586 4.60678e-05 0)
(0.0270093 4.43108e-05 0)
(0.0264008 4.25211e-05 0)
(0.0258292 4.06922e-05 0)
(0.0252913 3.88416e-05 0)
(0.0247843 3.69945e-05 0)
(0.0243058 3.51749e-05 0)
(0.0238536 3.34024e-05 0)
(0.0234258 3.16911e-05 0)
(0.0230207 3.00497e-05 0)
(0.0226369 2.84827e-05 0)
(0.0222728 2.69914e-05 0)
(0.0219272 2.55747e-05 0)
(0.0215991 2.42301e-05 0)
(0.0212874 2.29542e-05 0)
(0.0209912 2.17429e-05 0)
(0.0207096 2.05923e-05 0)
(0.0204421 1.94981e-05 0)
(0.0201878 1.84564e-05 0)
(0.0199462 1.74635e-05 0)
(0.0197168 1.65157e-05 0)
(0.0194992 1.56098e-05 0)
(0.0192928 1.47425e-05 0)
(0.0190973 1.3911e-05 0)
(0.0189124 1.31127e-05 0)
(0.0187378 1.23454e-05 0)
(0.0185733 1.16071e-05 0)
(0.0184185 1.08968e-05 0)
(0.0182733 1.02142e-05 0)
(0.0181375 9.55983e-06 0)
(0.018011 8.93466e-06 0)
(0.0178935 8.33922e-06 0)
(0.0177851 7.77155e-06 0)
(0.0176855 7.22411e-06 0)
(0.0175948 6.67929e-06 0)
(0.0175132 6.10392e-06 0)
(0.0174411 5.44445e-06 0)
(0.0173791 4.62921e-06 0)
(0.0173283 3.59988e-06 0)
(0.0172902 2.40334e-06 0)
(0.0172667 1.20498e-06 0)
(0.0172601 2.01954e-07 0)
(0.0172677 -9.53875e-07 0)
(0.0172855 -1.97026e-06 0)
(0.0173118 -2.83276e-06 0)
(0.0173445 -3.45108e-06 0)
(0.0173816 -3.83062e-06 0)
(0.0174215 -4.01525e-06 0)
(0.0174625 -4.0479e-06 0)
(0.0175036 -3.96803e-06 0)
(0.0175437 -3.80601e-06 0)
(0.0175821 -3.58871e-06 0)
(0.0176185 -3.33842e-06 0)
(0.0176525 -3.07298e-06 0)
(0.0176841 -2.8056e-06 0)
(0.0177131 -2.54543e-06 0)
(0.0177397 -2.29831e-06 0)
(0.0177639 -2.06751e-06 0)
(0.017786 -1.85449e-06 0)
(0.0178059 -1.6594e-06 0)
(0.0178239 -1.48154e-06 0)
(0.0178402 -1.31981e-06 0)
(0.0178547 -1.17281e-06 0)
(0.0178678 -1.0391e-06 0)
(0.0178795 -9.17159e-07 0)
(0.0178898 -8.05453e-07 0)
(0.017899 -7.02409e-07 0)
(0.017907 -6.06302e-07 0)
(0.017914 -5.15114e-07 0)
(0.0179199 -4.26264e-07 0)
(0.0179249 -3.36168e-07 0)
(0.0179288 -2.39891e-07 0)
(0.0179317 -1.35642e-07 0)
(0.0179332 -6.86229e-08 0)
(0.0179364 -4.37139e-07 0)
(0.190585 0.0092621 0)
(0.188217 0.00988154 0)
(0.184333 0.00971942 0)
(0.179211 0.0092409 0)
(0.173319 0.00861531 0)
(0.167014 0.00789797 0)
(0.160526 0.0071272 0)
(0.154023 0.00633821 0)
(0.147639 0.00556099 0)
(0.141475 0.0048202 0)
(0.1356 0.0041351 0)
(0.130054 0.00351904 0)
(0.124858 0.00297919 0)
(0.120016 0.00251699 0)
(0.115521 0.00212916 0)
(0.111357 0.00180907 0)
(0.107505 0.00154813 0)
(0.103943 0.00133706 0)
(0.100646 0.00116678 0)
(0.0975929 0.00102909 0)
(0.0947601 0.000916973 0)
(0.0921273 0.000824683 0)
(0.0896753 0.000747681 0)
(0.087387 0.000682482 0)
(0.0852468 0.000626461 0)
(0.0832412 0.000577668 0)
(0.0813578 0.000534664 0)
(0.079586 0.000496383 0)
(0.0779162 0.000462028 0)
(0.07634 0.000430991 0)
(0.0748499 0.000402801 0)
(0.0734394 0.000377079 0)
(0.0721026 0.000353518 0)
(0.0708342 0.000331859 0)
(0.0696296 0.000311883 0)
(0.0684846 0.0002934 0)
(0.0673956 0.000276246 0)
(0.0663591 0.000260278 0)
(0.0653721 0.000245368 0)
(0.0644321 0.000231406 0)
(0.0635366 0.000218294 0)
(0.0626835 0.000205945 0)
(0.0618707 0.000194283 0)
(0.0610967 0.000183238 0)
(0.0603598 0.00017275 0)
(0.0596587 0.000162764 0)
(0.0589921 0.000153232 0)
(0.0583589 0.00014411 0)
(0.0577583 0.000135357 0)
(0.0571894 0.000126939 0)
(0.0566514 0.000118822 0)
(0.0561437 0.000110979 0)
(0.0556658 0.000103384 0)
(0.0552173 9.60154e-05 0)
(0.0547979 8.88539e-05 0)
(0.0544071 8.18803e-05 0)
(0.054045 7.50725e-05 0)
(0.0537114 6.83989e-05 0)
(0.0534065 6.18111e-05 0)
(0.0531305 5.52344e-05 0)
(0.0528839 4.85581e-05 0)
(0.0526678 4.16295e-05 0)
(0.0524833 3.42575e-05 0)
(0.0523318 2.62472e-05 0)
(0.052215 1.75041e-05 0)
(0.0521342 8.10978e-06 0)
(0.0520903 -1.24379e-06 0)
(0.0520869 -9.18626e-06 0)
(0.0521134 -1.45284e-05 0)
(0.0521619 -1.82066e-05 0)
(0.0522266 -2.0788e-05 0)
(0.0523025 -2.24246e-05 0)
(0.0523855 -2.31944e-05 0)
(0.0524723 -2.32185e-05 0)
(0.0525601 -2.26669e-05 0)
(0.0526467 -2.17025e-05 0)
(0.0527307 -2.04681e-05 0)
(0.0528109 -1.90763e-05 0)
(0.0528867 -1.76137e-05 0)
(0.0529576 -1.61436e-05 0)
(0.0530235 -1.47102e-05 0)
(0.0530843 -1.33422e-05 0)
(0.0531403 -1.20559e-05 0)
(0.0531916 -1.08593e-05 0)
(0.0532385 -9.75405e-06 0)
(0.0532811 -8.7377e-06 0)
(0.0533198 -7.8057e-06 0)
(0.0533548 -6.95222e-06 0)
(0.0533863 -6.1708e-06 0)
(0.0534146 -5.45469e-06 0)
(0.0534399 -4.79693e-06 0)
(0.0534624 -4.19021e-06 0)
(0.0534823 -3.62648e-06 0)
(0.0534996 -3.09637e-06 0)
(0.0535146 -2.58836e-06 0)
(0.0535272 -2.08813e-06 0)
(0.0535375 -1.58078e-06 0)
(0.0535455 -1.07106e-06 0)
(0.0535509 -7.0845e-07 0)
(0.0535574 -1.38329e-06 0)
(0.19356 0.008927 0)
(0.194307 0.00995076 0)
(0.194461 0.0103358 0)
(0.193841 0.010362 0)
(0.192535 0.0101511 0)
(0.19066 0.0097492 0)
(0.188309 0.00920023 0)
(0.185572 0.00855309 0)
(0.182538 0.00785344 0)
(0.179295 0.00714021 0)
(0.175918 0.00644469 0)
(0.172473 0.00578998 0)
(0.169011 0.00519086 0)
(0.165571 0.00465462 0)
(0.162182 0.00418245 0)
(0.158866 0.00377121 0)
(0.155636 0.00341511 0)
(0.1525 0.00310714 0)
(0.149462 0.00284015 0)
(0.146525 0.0026075 0)
(0.143687 0.00240337 0)
(0.140948 0.00222292 0)
(0.138306 0.0020622 0)
(0.135758 0.00191804 0)
(0.133302 0.00178793 0)
(0.130936 0.00166987 0)
(0.128656 0.00156228 0)
(0.12646 0.00146384 0)
(0.124344 0.00137349 0)
(0.122308 0.00129033 0)
(0.120347 0.00121358 0)
(0.118459 0.00114259 0)
(0.116642 0.00107677 0)
(0.114893 0.00101561 0)
(0.11321 0.000958634 0)
(0.111591 0.00090545 0)
(0.110033 0.000855686 0)
(0.108535 0.000809014 0)
(0.107095 0.000765139 0)
(0.105711 0.000723795 0)
(0.10438 0.000684743 0)
(0.103103 0.000647766 0)
(0.101876 0.00061267 0)
(0.100699 0.000579277 0)
(0.0995715 0.000547428 0)
(0.0984911 0.000516976 0)
(0.0974574 0.000487788 0)
(0.0964695 0.000459742 0)
(0.0955267 0.000432727 0)
(0.0946282 0.000406641 0)
(0.0937738 0.000381391 0)
(0.0929628 0.000356892 0)
(0.0921951 0.000333064 0)
(0.0914705 0.000309838 0)
(0.0907888 0.000287144 0)
(0.0901501 0.000264914 0)
(0.0895546 0.00024307 0)
(0.0890025 0.00022152 0)
(0.0884943 0.000200142 0)
(0.0880307 0.000178783 0)
(0.0876125 0.00015725 0)
(0.0872407 0.00013533 0)
(0.0869165 0.00011282 0)
(0.0866405 8.95891e-05 0)
(0.0864133 6.56569e-05 0)
(0.0862336 4.12228e-05 0)
(0.0860974 1.67296e-05 0)
(0.086001 -6.33102e-06 0)
(0.0859577 -2.51971e-05 0)
(0.0859575 -3.83882e-05 0)
(0.0859892 -4.68522e-05 0)
(0.0860446 -5.20729e-05 0)
(0.0861172 -5.49502e-05 0)
(0.0862016 -5.59527e-05 0)
(0.0862933 -5.54546e-05 0)
(0.0863889 -5.38072e-05 0)
(0.0864855 -5.13517e-05 0)
(0.0865811 -4.83781e-05 0)
(0.0866741 -4.51176e-05 0)
(0.0867635 -4.17426e-05 0)
(0.0868486 -3.83764e-05 0)
(0.0869289 -3.51024e-05 0)
(0.0870043 -3.19732e-05 0)
(0.0870746 -2.90189e-05 0)
(0.0871399 -2.62529e-05 0)
(0.0872003 -2.36779e-05 0)
(0.0872559 -2.12895e-05 0)
(0.087307 -1.90792e-05 0)
(0.0873537 -1.70362e-05 0)
(0.0873963 -1.51481e-05 0)
(0.0874348 -1.34016e-05 0)
(0.0874696 -1.1782e-05 0)
(0.0875007 -1.02728e-05 0)
(0.0875284 -8.85439e-06 0)
(0.0875527 -7.5023e-06 0)
(0.0875738 -6.18666e-06 0)
(0.0875916 -4.87797e-06 0)
(0.0876062 -3.58554e-06 0)
(0.0876173 -2.54757e-06 0)
(0.0876279 -2.85726e-06 0)
(0.194597 0.00830644 0)
(0.195709 0.0093908 0)
(0.196745 0.009986 0)
(0.197486 0.0102502 0)
(0.197892 0.0102757 0)
(0.197963 0.0101011 0)
(0.197699 0.00976176 0)
(0.197105 0.00929952 0)
(0.196205 0.00875604 0)
(0.195034 0.00816885 0)
(0.193632 0.00756985 0)
(0.192044 0.00698437 0)
(0.190308 0.00643059 0)
(0.188461 0.00591977 0)
(0.186534 0.00545718 0)
(0.184553 0.00504348 0)
(0.182537 0.00467615 0)
(0.180503 0.00435085 0)
(0.178462 0.00406241 0)
(0.176422 0.00380558 0)
(0.17439 0.00357548 0)
(0.172371 0.00336782 0)
(0.170368 0.003179 0)
(0.168385 0.00300608 0)
(0.166423 0.00284669 0)
(0.164486 0.00269895 0)
(0.162576 0.00256136 0)
(0.160693 0.00243274 0)
(0.15884 0.00231211 0)
(0.157019 0.0021987 0)
(0.155229 0.00209183 0)
(0.153473 0.00199094 0)
(0.151752 0.00189553 0)
(0.150066 0.00180515 0)
(0.148416 0.00171942 0)
(0.146803 0.00163798 0)
(0.145227 0.00156048 0)
(0.143689 0.00148663 0)
(0.142189 0.00141616 0)
(0.140728 0.00134879 0)
(0.139307 0.00128428 0)
(0.137924 0.00122242 0)
(0.136581 0.00116299 0)
(0.135278 0.00110579 0)
(0.134016 0.00105065 0)
(0.132794 0.000997373 0)
(0.131612 0.000945813 0)
(0.130472 0.000895812 0)
(0.129374 0.000847227 0)
(0.128317 0.000799919 0)
(0.127303 0.000753763 0)
(0.126332 0.000708635 0)
(0.125405 0.000664423 0)
(0.124521 0.000621016 0)
(0.123683 0.000578307 0)
(0.12289 0.000536183 0)
(0.122143 0.000494521 0)
(0.121444 0.000453178 0)
(0.120794 0.000411982 0)
(0.120193 0.000370735 0)
(0.119643 0.000329219 0)
(0.119145 0.000287235 0)
(0.1187 0.000244666 0)
(0.118309 0.000201589 0)
(0.117971 0.00015843 0)
(0.117685 0.000116101 0)
(0.117447 7.56889e-05 0)
(0.117253 3.76876e-05 0)
(0.11709 2.90198e-06 0)
(0.116972 -2.68485e-05 0)
(0.116903 -4.97018e-05 0)
(0.116873 -6.54176e-05 0)
(0.116873 -7.54068e-05 0)
(0.116898 -8.11176e-05 0)
(0.116941 -8.36505e-05 0)
(0.116997 -8.37628e-05 0)
(0.117063 -8.20673e-05 0)
(0.117136 -7.90737e-05 0)
(0.117212 -7.52097e-05 0)
(0.117291 -7.08147e-05 0)
(0.117369 -6.61467e-05 0)
(0.117446 -6.13925e-05 0)
(0.117522 -5.6682e-05 0)
(0.117595 -5.21015e-05 0)
(0.117664 -4.77045e-05 0)
(0.117731 -4.35208e-05 0)
(0.117794 -3.95645e-05 0)
(0.117853 -3.58388e-05 0)
(0.117908 -3.23396e-05 0)
(0.11796 -2.90583e-05 0)
(0.118008 -2.59824e-05 0)
(0.118052 -2.30961e-05 0)
(0.118092 -2.03796e-05 0)
(0.118129 -1.78072e-05 0)
(0.118162 -1.53454e-05 0)
(0.118192 -1.29508e-05 0)
(0.118218 -1.05761e-05 0)
(0.11824 -8.21144e-06 0)
(0.118258 -6.07444e-06 0)
(0.118274 -5.13357e-06 0)
(0.195333 0.0078145 0)
(0.196313 0.00881647 0)
(0.197375 0.00943835 0)
(0.198355 0.00977438 0)
(0.1992 0.00989831 0)
(0.199889 0.00984504 0)
(0.200397 0.00964143 0)
(0.200703 0.00931887 0)
(0.200797 0.00891055 0)
(0.200684 0.00844785 0)
(0.200376 0.00795872 0)
(0.199893 0.00746656 0)
(0.199258 0.00698939 0)
(0.198494 0.00653958 0)
(0.197624 0.00612428 0)
(0.196667 0.00574631 0)
(0.19564 0.00540535 0)
(0.194557 0.005099 0)
(0.193429 0.0048237 0)
(0.192263 0.00457548 0)
(0.191068 0.00435044 0)
(0.189848 0.00414501 0)
(0.188606 0.00395611 0)
(0.187348 0.00378117 0)
(0.186074 0.0036181 0)
(0.184789 0.00346523 0)
(0.183495 0.0033212 0)
(0.182194 0.00318496 0)
(0.180888 0.00305566 0)
(0.179579 0.00293258 0)
(0.17827 0.00281516 0)
(0.176963 0.0027029 0)
(0.175659 0.00259536 0)
(0.174361 0.00249219 0)
(0.17307 0.00239305 0)
(0.171788 0.00229762 0)
(0.170517 0.00220564 0)
(0.169258 0.00211686 0)
(0.168012 0.00203103 0)
(0.166782 0.00194794 0)
(0.165569 0.00186738 0)
(0.164373 0.00178916 0)
(0.163198 0.00171309 0)
(0.162043 0.00163901 0)
(0.160911 0.00156674 0)
(0.159802 0.00149613 0)
(0.158718 0.00142704 0)
(0.15766 0.0013593 0)
(0.156629 0.0012928 0)
(0.155628 0.00122738 0)
(0.154656 0.00116293 0)
(0.153716 0.00109932 0)
(0.152809 0.00103642 0)
(0.151937 0.000974126 0)
(0.1511 0.000912306 0)
(0.1503 0.000850834 0)
(0.149539 0.000789569 0)
(0.148819 0.000728349 0)
(0.14814 0.000666994 0)
(0.147506 0.000605311 0)
(0.146916 0.000543125 0)
(0.146373 0.000480327 0)
(0.145878 0.000416966 0)
(0.145431 0.00035337 0)
(0.145031 0.000290279 0)
(0.144678 0.000228933 0)
(0.14437 0.000170959 0)
(0.144104 0.000117959 0)
(0.143877 7.02536e-05 0)
(0.143678 2.7606e-05 0)
(0.143504 -9.33753e-06 0)
(0.143367 -3.95409e-05 0)
(0.143268 -6.2305e-05 0)
(0.143201 -7.81231e-05 0)
(0.14316 -8.83392e-05 0)
(0.143141 -9.4226e-05 0)
(0.14314 -9.68284e-05 0)
(0.143154 -9.69439e-05 0)
(0.143179 -9.52175e-05 0)
(0.143213 -9.21695e-05 0)
(0.143254 -8.82174e-05 0)
(0.1433 -8.36843e-05 0)
(0.14335 -7.88133e-05 0)
(0.143401 -7.37829e-05 0)
(0.143454 -6.87192e-05 0)
(0.143507 -6.37096e-05 0)
(0.143559 -5.88127e-05 0)
(0.143611 -5.40662e-05 0)
(0.143661 -4.94929e-05 0)
(0.143709 -4.51041e-05 0)
(0.143755 -4.09028e-05 0)
(0.1438 -3.68843e-05 0)
(0.143841 -3.30361e-05 0)
(0.14388 -2.93363e-05 0)
(0.143916 -2.5751e-05 0)
(0.143949 -2.22303e-05 0)
(0.14398 -1.87103e-05 0)
(0.144006 -1.51373e-05 0)
(0.144029 -1.15796e-05 0)
(0.144048 -8.41944e-06 0)
(0.195961 0.00738699 0)
(0.196773 0.00827697 0)
(0.197701 0.00887672 0)
(0.198628 0.00923537 0)
(0.199503 0.00940611 0)
(0.200303 0.00941921 0)
(0.201004 0.00929711 0)
(0.201585 0.00906502 0)
(0.202031 0.00875034 0)
(0.202336 0.00837964 0)
(0.202503 0.00797706 0)
(0.202538 0.0075633 0)
(0.202455 0.00715487 0)
(0.202265 0.00676374 0)
(0.201985 0.00639748 0)
(0.201627 0.00605995 0)
(0.201205 0.00575207 0)
(0.200727 0.00547275 0)
(0.200204 0.00521966 0)
(0.19964 0.00498986 0)
(0.199041 0.00478026 0)
(0.198411 0.00458793 0)
(0.197752 0.00441024 0)
(0.197068 0.00424493 0)
(0.196361 0.00409011 0)
(0.195631 0.00394424 0)
(0.194881 0.00380607 0)
(0.194113 0.00367459 0)
(0.193327 0.00354899 0)
(0.192525 0.00342861 0)
(0.191709 0.00331289 0)
(0.19088 0.00320137 0)
(0.19004 0.00309367 0)
(0.18919 0.00298942 0)
(0.188332 0.00288835 0)
(0.187467 0.00279017 0)
(0.186597 0.00269464 0)
(0.185724 0.00260154 0)
(0.184848 0.00251065 0)
(0.183971 0.0024218 0)
(0.183095 0.00233479 0)
(0.182221 0.00224946 0)
(0.181351 0.00216564 0)
(0.180486 0.0020832 0)
(0.179628 0.00200196 0)
(0.178778 0.0019218 0)
(0.177938 0.00184258 0)
(0.17711 0.00176417 0)
(0.176294 0.00168643 0)
(0.175492 0.00160924 0)
(0.174707 0.00153247 0)
(0.173939 0.00145602 0)
(0.17319 0.00137975 0)
(0.172463 0.00130355 0)
(0.171758 0.0012273 0)
(0.171077 0.00115087 0)
(0.170423 0.00107412 0)
(0.169797 0.000996889 0)
(0.169201 0.000919022 0)
(0.168636 0.000840372 0)
(0.168104 0.000760841 0)
(0.167607 0.00068045 0)
(0.167145 0.000599432 0)
(0.166719 0.000518347 0)
(0.166329 0.000438186 0)
(0.165974 0.000360393 0)
(0.165654 0.000286729 0)
(0.165366 0.000218907 0)
(0.16511 0.000158092 0)
(0.164884 0.00010483 0)
(0.164684 5.85097e-05 0)
(0.164501 1.85711e-05 0)
(0.164337 -1.48288e-05 0)
(0.164199 -4.15786e-05 0)
(0.164087 -6.17539e-05 0)
(0.163997 -7.61047e-05 0)
(0.163928 -8.57286e-05 0)
(0.163876 -9.1627e-05 0)
(0.16384 -9.46375e-05 0)
(0.163817 -9.54248e-05 0)
(0.163805 -9.4528e-05 0)
(0.163802 -9.23786e-05 0)
(0.163807 -8.93192e-05 0)
(0.163819 -8.5618e-05 0)
(0.163836 -8.14796e-05 0)
(0.163856 -7.70586e-05 0)
(0.16388 -7.24709e-05 0)
(0.163907 -6.78025e-05 0)
(0.163935 -6.31164e-05 0)
(0.163964 -5.84577e-05 0)
(0.163993 -5.3857e-05 0)
(0.164023 -4.93324e-05 0)
(0.164052 -4.48894e-05 0)
(0.164081 -4.05201e-05 0)
(0.164109 -3.6199e-05 0)
(0.164135 -3.18781e-05 0)
(0.164159 -2.74797e-05 0)
(0.164182 -2.28908e-05 0)
(0.164202 -1.79414e-05 0)
(0.164218 -1.20452e-05 0)
(0.196511 0.00701827 0)
(0.197186 0.00780131 0)
(0.197976 0.00836438 0)
(0.198797 0.00872602 0)
(0.199602 0.0089206 0)
(0.200365 0.00897302 0)
(0.201066 0.00890295 0)
(0.201687 0.00873173 0)
(0.202216 0.00848264 0)
(0.202644 0.00817858 0)
(0.202972 0.00784061 0)
(0.203203 0.00748698 0)
(0.203345 0.00713259 0)
(0.203407 0.00678865 0)
(0.203398 0.00646273 0)
(0.20333 0.00615915 0)
(0.203211 0.00587967 0)
(0.20305 0.00562413 0)
(0.202852 0.00539112 0)
(0.202622 0.00517853 0)
(0.202366 0.00498395 0)
(0.202085 0.00480497 0)
(0.201782 0.00463932 0)
(0.201458 0.00448502 0)
(0.201114 0.00434034 0)
(0.200751 0.00420386 0)
(0.200371 0.00407439 0)
(0.199973 0.00395094 0)
(0.199559 0.00383273 0)
(0.199128 0.00371909 0)
(0.198683 0.00360947 0)
(0.198223 0.00350341 0)
(0.197749 0.00340052 0)
(0.197263 0.00330045 0)
(0.196764 0.0032029 0)
(0.196255 0.0031076 0)
(0.195735 0.00301432 0)
(0.195206 0.00292282 0)
(0.194668 0.00283291 0)
(0.194123 0.00274439 0)
(0.193571 0.00265709 0)
(0.193015 0.00257085 0)
(0.192454 0.0024855 0)
(0.19189 0.0024009 0)
(0.191323 0.00231689 0)
(0.190757 0.00223334 0)
(0.19019 0.00215012 0)
(0.189625 0.00206708 0)
(0.189064 0.00198411 0)
(0.188506 0.00190108 0)
(0.187954 0.00181786 0)
(0.187409 0.00173433 0)
(0.186873 0.00165038 0)
(0.186346 0.00156589 0)
(0.185831 0.00148073 0)
(0.185329 0.00139478 0)
(0.184841 0.0013079 0)
(0.184369 0.00121996 0)
(0.183914 0.00113084 0)
(0.183479 0.00104045 0)
(0.183063 0.000948776 0)
(0.182669 0.000855972 0)
(0.182296 0.000762429 0)
(0.181946 0.000668883 0)
(0.181618 0.000576485 0)
(0.181313 0.000486784 0)
(0.181029 0.00040156 0)
(0.180767 0.000322521 0)
(0.180527 0.000250949 0)
(0.180307 0.000187547 0)
(0.180108 0.000132532 0)
(0.179928 8.56264e-05 0)
(0.179765 4.58267e-05 0)
(0.179612 1.23756e-05 0)
(0.179472 -1.50409e-05 0)
(0.179348 -3.68142e-05 0)
(0.179241 -5.33888e-05 0)
(0.179149 -6.54946e-05 0)
(0.179071 -7.39535e-05 0)
(0.179005 -7.94911e-05 0)
(0.178951 -8.27152e-05 0)
(0.178906 -8.41134e-05 0)
(0.17887 -8.40805e-05 0)
(0.178842 -8.29352e-05 0)
(0.178821 -8.09313e-05 0)
(0.178806 -7.82704e-05 0)
(0.178795 -7.51126e-05 0)
(0.178789 -7.15841e-05 0)
(0.178786 -6.77842e-05 0)
(0.178786 -6.37906e-05 0)
(0.178789 -5.96625e-05 0)
(0.178793 -5.5443e-05 0)
(0.178799 -5.11591e-05 0)
(0.178806 -4.68205e-05 0)
(0.178813 -4.2415e-05 0)
(0.178821 -3.79007e-05 0)
(0.178829 -3.31899e-05 0)
(0.178837 -2.81105e-05 0)
(0.178843 -2.22421e-05 0)
(0.178846 -1.40038e-05 0)
(0.196994 0.00669842 0)
(0.197564 0.00738494 0)
(0.198237 0.00790422 0)
(0.198953 0.00825719 0)
(0.199672 0.00846365 0)
(0.200367 0.00854264 0)
(0.201018 0.0085109 0)
(0.20161 0.00838638 0)
(0.202132 0.0081887 0)
(0.202576 0.00793755 0)
(0.202942 0.0076513 0)
(0.203231 0.0073461 0)
(0.20345 0.00703543 0)
(0.203604 0.00672976 0)
(0.203704 0.00643648 0)
(0.203755 0.00616026 0)
(0.203768 0.00590345 0)
(0.203747 0.00566664 0)
(0.203699 0.0054492 0)
(0.203628 0.00524971 0)
(0.203538 0.00506639 0)
(0.203431 0.00489729 0)
(0.203309 0.00474056 0)
(0.203174 0.00459444 0)
(0.203025 0.00445743 0)
(0.202864 0.0043282 0)
(0.202692 0.00420563 0)
(0.202508 0.0040888 0)
(0.202313 0.00397692 0)
(0.202106 0.00386933 0)
(0.201889 0.00376548 0)
(0.201661 0.00366489 0)
(0.201423 0.00356716 0)
(0.201175 0.00347194 0)
(0.200917 0.00337889 0)
(0.20065 0.00328776 0)
(0.200374 0.00319827 0)
(0.20009 0.0031102 0)
(0.199797 0.00302332 0)
(0.199497 0.00293745 0)
(0.199189 0.00285239 0)
(0.198875 0.00276796 0)
(0.198555 0.002684 0)
(0.198229 0.00260035 0)
(0.197899 0.00251684 0)
(0.197565 0.00243334 0)
(0.197228 0.0023497 0)
(0.196888 0.00226577 0)
(0.196546 0.00218142 0)
(0.196203 0.00209651 0)
(0.195861 0.00201093 0)
(0.19552 0.00192453 0)
(0.19518 0.00183719 0)
(0.194843 0.0017488 0)
(0.194511 0.00165922 0)
(0.194183 0.00156834 0)
(0.193861 0.00147603 0)
(0.193546 0.00138218 0)
(0.19324 0.00128671 0)
(0.192942 0.00118958 0)
(0.192654 0.00109087 0)
(0.192376 0.000990832 0)
(0.192109 0.000889966 0)
(0.191853 0.000789114 0)
(0.191607 0.000689497 0)
(0.191373 0.000592675 0)
(0.191149 0.000500386 0)
(0.190937 0.000414279 0)
(0.190737 0.000335627 0)
(0.19055 0.000265211 0)
(0.190375 0.000203374 0)
(0.190213 0.000149991 0)
(0.190063 0.000104643 0)
(0.189925 6.66419e-05 0)
(0.189797 3.4935e-05 0)
(0.189677 8.72373e-06 0)
(0.189565 -1.25295e-05 0)
(0.189463 -2.93721e-05 0)
(0.189371 -4.23296e-05 0)
(0.189288 -5.19917e-05 0)
(0.189214 -5.89437e-05 0)
(0.189147 -6.36871e-05 0)
(0.189088 -6.66397e-05 0)
(0.189036 -6.8143e-05 0)
(0.188989 -6.84725e-05 0)
(0.188947 -6.78524e-05 0)
(0.18891 -6.64666e-05 0)
(0.188877 -6.44653e-05 0)
(0.188848 -6.1972e-05 0)
(0.188821 -5.90875e-05 0)
(0.188797 -5.58933e-05 0)
(0.188776 -5.24532e-05 0)
(0.188756 -4.88132e-05 0)
(0.188737 -4.49996e-05 0)
(0.188721 -4.10142e-05 0)
(0.188705 -3.68227e-05 0)
(0.18869 -3.23333e-05 0)
(0.188676 -2.73324e-05 0)
(0.188663 -2.12275e-05 0)
(0.188645 -1.18592e-05 0)
(0.197421 0.00641566 0)
(0.197908 0.00701706 0)
(0.198483 0.00749041 0)
(0.199106 0.00782798 0)
(0.199743 0.00803919 0)
(0.200368 0.00813735 0)
(0.200962 0.00813597 0)
(0.201509 0.00804983 0)
(0.202 0.00789525 0)
(0.202428 0.00768898 0)
(0.202791 0.00744693 0)
(0.20309 0.00718338 0)
(0.203329 0.00691048 0)
(0.203515 0.00663791 0)
(0.203653 0.00637287 0)
(0.20375 0.00612018 0)
(0.203815 0.00588262 0)
(0.203851 0.00566141 0)
(0.203865 0.00545656 0)
(0.203862 0.00526728 0)
(0.203843 0.00509236 0)
(0.203812 0.00493032 0)
(0.203771 0.00477966 0)
(0.203721 0.00463894 0)
(0.203663 0.00450685 0)
(0.203598 0.00438219 0)
(0.203525 0.00426398 0)
(0.203446 0.00415131 0)
(0.203361 0.00404347 0)
(0.20327 0.00393979 0)
(0.203172 0.00383975 0)
(0.203068 0.00374287 0)
(0.202958 0.00364874 0)
(0.202843 0.00355699 0)
(0.202721 0.0034673 0)
(0.202594 0.00337938 0)
(0.202461 0.00329296 0)
(0.202323 0.0032078 0)
(0.202179 0.00312367 0)
(0.20203 0.00304036 0)
(0.201876 0.00295767 0)
(0.201717 0.00287541 0)
(0.201553 0.0027934 0)
(0.201385 0.00271146 0)
(0.201213 0.00262943 0)
(0.201037 0.00254715 0)
(0.200858 0.00246446 0)
(0.200676 0.0023812 0)
(0.200491 0.00229724 0)
(0.200303 0.00221242 0)
(0.200114 0.0021266 0)
(0.199923 0.00203966 0)
(0.199732 0.00195146 0)
(0.19954 0.00186187 0)
(0.199348 0.00177076 0)
(0.199157 0.00167802 0)
(0.198967 0.00158354 0)
(0.198779 0.00148722 0)
(0.198592 0.00138903 0)
(0.198409 0.00128897 0)
(0.198228 0.00118719 0)
(0.19805 0.001084 0)
(0.197875 0.000979977 0)
(0.197703 0.000875995 0)
(0.197534 0.000773274 0)
(0.197368 0.000673315 0)
(0.197205 0.000577759 0)
(0.197045 0.000488156 0)
(0.196891 0.000405741 0)
(0.196742 0.000331317 0)
(0.196599 0.000265269 0)
(0.196464 0.000207584 0)
(0.196336 0.000157965 0)
(0.196216 0.00011585 0)
(0.196104 8.05465e-05 0)
(0.195999 5.12721e-05 0)
(0.1959 2.71156e-05 0)
(0.195807 7.36182e-06 0)
(0.195719 -8.54251e-06 0)
(0.195637 -2.1119e-05 0)
(0.195561 -3.0829e-05 0)
(0.195491 -3.81079e-05 0)
(0.195425 -4.33583e-05 0)
(0.195364 -4.69271e-05 0)
(0.195306 -4.91007e-05 0)
(0.195253 -5.0117e-05 0)
(0.195202 -5.01742e-05 0)
(0.195154 -4.94386e-05 0)
(0.195108 -4.80506e-05 0)
(0.195064 -4.61289e-05 0)
(0.195022 -4.37732e-05 0)
(0.194981 -4.10658e-05 0)
(0.194941 -3.8071e-05 0)
(0.194902 -3.48324e-05 0)
(0.194865 -3.13677e-05 0)
(0.194828 -2.76553e-05 0)
(0.194792 -2.36091e-05 0)
(0.194757 -1.90069e-05 0)
(0.194723 -1.32266e-05 0)
(0.194683 -4.17058e-06 0)
(0.197797 0.00616178 0)
(0.198218 0.00668946 0)
(0.198713 0.00711805 0)
(0.199256 0.00743644 0)
(0.199819 0.00764724 0)
(0.200378 0.00775882 0)
(0.200915 0.00778155 0)
(0.201416 0.00772734 0)
(0.201871 0.0076096 0)
(0.202274 0.0074424 0)
(0.202623 0.00723938 0)
(0.202916 0.00701306 0)
(0.203158 0.00677428 0)
(0.203352 0.00653194 0)
(0.203505 0.00629288 0)
(0.203621 0.00606194 0)
(0.203706 0.00584223 0)
(0.203767 0.00563541 0)
(0.203807 0.00544201 0)
(0.203831 0.00526183 0)
(0.203843 0.00509411 0)
(0.203843 0.00493783 0)
(0.203836 0.00479186 0)
(0.203821 0.00465503 0)
(0.203801 0.00452624 0)
(0.203776 0.00440449 0)
(0.203746 0.00428887 0)
(0.203713 0.00417861 0)
(0.203676 0.00407301 0)
(0.203636 0.00397148 0)
(0.203593 0.0038735 0)
(0.203547 0.00377861 0)
(0.203497 0.00368641 0)
(0.203445 0.00359656 0)
(0.20339 0.00350871 0)
(0.203332 0.0034226 0)
(0.203272 0.00333794 0)
(0.203209 0.00325449 0)
(0.203143 0.00317201 0)
(0.203074 0.0030903 0)
(0.203003 0.00300915 0)
(0.202929 0.00292836 0)
(0.202852 0.00284774 0)
(0.202773 0.00276711 0)
(0.202692 0.0026863 0)
(0.202608 0.00260514 0)
(0.202522 0.00252346 0)
(0.202434 0.0024411 0)
(0.202344 0.00235791 0)
(0.202252 0.00227374 0)
(0.202158 0.00218844 0)
(0.202062 0.00210187 0)
(0.201965 0.0020139 0)
(0.201866 0.00192438 0)
(0.201767 0.00183321 0)
(0.201666 0.00174027 0)
(0.201564 0.00164546 0)
(0.201462 0.00154872 0)
(0.201358 0.00145003 0)
(0.201254 0.00134945 0)
(0.201148 0.00124716 0)
(0.201042 0.00114351 0)
(0.200934 0.00103911 0)
(0.200824 0.000934826 0)
(0.200712 0.000831821 0)
(0.200598 0.000731496 0)
(0.200483 0.000635359 0)
(0.200367 0.000544839 0)
(0.200251 0.0004611 0)
(0.200136 0.000384938 0)
(0.200023 0.000316769 0)
(0.199913 0.000256655 0)
(0.199807 0.000204375 0)
(0.199706 0.000159482 0)
(0.199609 0.000121386 0)
(0.199518 8.94e-05 0)
(0.199432 6.28165e-05 0)
(0.19935 4.0938e-05 0)
(0.199273 2.30574e-05 0)
(0.199199 8.58953e-06 0)
(0.199129 -2.92789e-06 0)
(0.199062 -1.19161e-05 0)
(0.198998 -1.87414e-05 0)
(0.198937 -2.37188e-05 0)
(0.198879 -2.71285e-05 0)
(0.198822 -2.92133e-05 0)
(0.198767 -3.01816e-05 0)
(0.198713 -3.02135e-05 0)
(0.19866 -2.94654e-05 0)
(0.198608 -2.80741e-05 0)
(0.198557 -2.61592e-05 0)
(0.198505 -2.38237e-05 0)
(0.198453 -2.11535e-05 0)
(0.198402 -1.82142e-05 0)
(0.19835 -1.50459e-05 0)
(0.198299 -1.1654e-05 0)
(0.198247 -7.97773e-06 0)
(0.198197 -3.82105e-06 0)
(0.198147 1.34359e-06 0)
(0.198088 9.03817e-06 0)
(0.19813 0.00593118 0)
(0.198497 0.00639558 0)
(0.198926 0.00678227 0)
(0.199399 0.0070796 0)
(0.199895 0.00728612 0)
(0.200394 0.0074064 0)
(0.200878 0.00744797 0)
(0.201335 0.00742022 0)
(0.201755 0.007334 0)
(0.202131 0.00720098 0)
(0.202461 0.00703272 0)
(0.202745 0.00684006 0)
(0.202983 0.0066326 0)
(0.203178 0.0064184 0)
(0.203336 0.00620388 0)
(0.203461 0.00599378 0)
(0.203557 0.00579138 0)
(0.20363 0.00559865 0)
(0.203683 0.00541657 0)
(0.203721 0.00524536 0)
(0.203746 0.00508471 0)
(0.203761 0.00493398 0)
(0.203768 0.00479238 0)
(0.203769 0.00465901 0)
(0.203764 0.004533 0)
(0.203756 0.0044135 0)
(0.203744 0.00429976 0)
(0.203729 0.00419108 0)
(0.203712 0.00408684 0)
(0.203693 0.0039865 0)
(0.203672 0.00388959 0)
(0.20365 0.00379567 0)
(0.203626 0.00370438 0)
(0.203601 0.00361536 0)
(0.203574 0.00352831 0)
(0.203547 0.00344296 0)
(0.203518 0.00335903 0)
(0.203489 0.00327629 0)
(0.203459 0.00319452 0)
(0.203427 0.00311349 0)
(0.203395 0.00303301 0)
(0.203361 0.00295287 0)
(0.203327 0.0028729 0)
(0.203292 0.00279291 0)
(0.203256 0.00271272 0)
(0.203218 0.00263217 0)
(0.20318 0.00255109 0)
(0.203141 0.00246931 0)
(0.2031 0.00238669 0)
(0.203059 0.00230307 0)
(0.203016 0.00221831 0)
(0.202972 0.00213225 0)
(0.202927 0.00204477 0)
(0.202881 0.00195575 0)
(0.202833 0.00186506 0)
(0.202784 0.00177261 0)
(0.202733 0.00167832 0)
(0.20268 0.00158214 0)
(0.202625 0.00148408 0)
(0.202568 0.00138423 0)
(0.202508 0.00128282 0)
(0.202445 0.0011802 0)
(0.202379 0.00107699 0)
(0.202309 0.000974009 0)
(0.202234 0.000872346 0)
(0.202155 0.000773279 0)
(0.202072 0.000678169 0)
(0.201986 0.000588314 0)
(0.201897 0.000504789 0)
(0.201807 0.000428361 0)
(0.201716 0.00035946 0)
(0.201626 0.000298205 0)
(0.201538 0.000244448 0)
(0.201452 0.000197831 0)
(0.201369 0.000157852 0)
(0.201289 0.000123916 0)
(0.201213 9.53962e-05 0)
(0.20114 7.16544e-05 0)
(0.201071 5.20889e-05 0)
(0.201004 3.61517e-05 0)
(0.200941 2.33267e-05 0)
(0.20088 1.31647e-05 0)
(0.20082 5.3012e-06 0)
(0.200763 -5.71818e-07 0)
(0.200706 -4.73145e-06 0)
(0.200651 -7.42166e-06 0)
(0.200596 -8.85632e-06 0)
(0.200542 -9.22484e-06 0)
(0.200487 -8.6969e-06 0)
(0.200432 -7.426e-06 0)
(0.200377 -5.55154e-06 0)
(0.200321 -3.19925e-06 0)
(0.200264 -4.80014e-07 0)
(0.200206 2.51338e-06 0)
(0.200147 5.71174e-06 0)
(0.200087 9.07789e-06 0)
(0.200027 1.2632e-05 0)
(0.199966 1.65039e-05 0)
(0.199907 2.10416e-05 0)
(0.199835 2.6976e-05 0)
(0.198424 0.00571987 0)
(0.198747 0.00613012 0)
(0.199121 0.00647856 0)
(0.199534 0.00675434 0)
(0.199971 0.00695389 0)
(0.200415 0.00707909 0)
(0.20085 0.00713505 0)
(0.201265 0.00712899 0)
(0.20165 0.00706955 0)
(0.202 0.00696627 0)
(0.202311 0.00682885 0)
(0.202582 0.00666657 0)
(0.202813 0.00648784 0)
(0.203007 0.00629988 0)
(0.203167 0.00610862 0)
(0.203296 0.00591863 0)
(0.203398 0.00573321 0)
(0.203479 0.00555455 0)
(0.20354 0.00538395 0)
(0.203586 0.00522198 0)
(0.20362 0.00506869 0)
(0.203643 0.00492379 0)
(0.203658 0.00478678 0)
(0.203667 0.00465702 0)
(0.203671 0.00453384 0)
(0.20367 0.00441658 0)
(0.203666 0.0043046 0)
(0.203659 0.00419732 0)
(0.203651 0.00409419 0)
(0.20364 0.00399473 0)
(0.203629 0.00389852 0)
(0.203616 0.00380517 0)
(0.203602 0.00371432 0)
(0.203588 0.00362566 0)
(0.203573 0.0035389 0)
(0.203558 0.00345377 0)
(0.203542 0.00337003 0)
(0.203526 0.00328744 0)
(0.20351 0.0032058 0)
(0.203494 0.00312489 0)
(0.203478 0.00304452 0)
(0.203462 0.00296449 0)
(0.203446 0.00288464 0)
(0.203429 0.00280477 0)
(0.203413 0.00272473 0)
(0.203396 0.00264435 0)
(0.203379 0.00256346 0)
(0.203362 0.00248191 0)
(0.203344 0.00239955 0)
(0.203326 0.00231622 0)
(0.203307 0.00223179 0)
(0.203288 0.00214613 0)
(0.203268 0.0020591 0)
(0.203247 0.00197059 0)
(0.203224 0.0018805 0)
(0.203201 0.00178873 0)
(0.203175 0.00169524 0)
(0.203148 0.00159999 0)
(0.203118 0.00150303 0)
(0.203086 0.00140447 0)
(0.20305 0.00130454 0)
(0.20301 0.00120363 0)
(0.202967 0.00110232 0)
(0.202918 0.00100139 0)
(0.202865 0.00090184 0)
(0.202806 0.00080481 0)
(0.202743 0.000711525 0)
(0.202675 0.000623148 0)
(0.202604 0.000540661 0)
(0.202529 0.000464788 0)
(0.202454 0.000395963 0)
(0.202378 0.000334342 0)
(0.202302 0.000279842 0)
(0.202227 0.000232184 0)
(0.202153 0.000190947 0)
(0.202082 0.000155621 0)
(0.202014 0.000125649 0)
(0.201948 0.000100465 0)
(0.201884 7.95204e-05 0)