/*--------------------------------*- C++ -*----------------------------------*\
| =========                 |                                                 |
| \\      /  F ield         | OpenFOAM: The Open Source CFD Toolbox           |
|  \\    /   O peration     | Version:  2.3.0                                 |
|   \\  /    A nd           | Web:      www.OpenFOAM.org                      |
|    \\/     M anipulation  |                                                 |
\*---------------------------------------------------------------------------*/
FoamFile
{
    version     2.0;
    format      ascii;
    class       volVectorField;
    location    "0.7";
    object      U_0;
}
// * * * * * * * * * * * * * * * * * * * * * * * * * * * * * * * * * * * * * //

dimensions      [0 1 -1 0 0 0 0];

internalField   nonuniform List<vector> 
1500
(
(0.17595 0.00442375 0)
(0.15519 0.00605632 0)
(0.136302 0.00621987 0)
(0.117837 0.00560896 0)
(0.0999868 0.00478771 0)
(0.0836423 0.00387351 0)
(0.0699255 0.00287759 0)
(0.059245 0.00182273 0)
(0.051382 0.000902628 0)
(0.0457646 0.000283188 0)
(0.0418015 -3.93991e-05 0)
(0.0390025 -0.000160353 0)
(0.0369762 -0.000170003 0)
(0.0354337 -0.000129549 0)
(0.0341697 -7.20964e-05 0)
(0.0330554 -1.74339e-05 0)
(0.0320223 2.44376e-05 0)
(0.0310417 5.1443e-05 0)
(0.0301072 6.58847e-05 0)
(0.0292213 7.13963e-05 0)
(0.028388 7.13267e-05 0)
(0.02761 6.82024e-05 0)
(0.0268871 6.37104e-05 0)
(0.0262173 5.88719e-05 0)
(0.0255971 5.4232e-05 0)
(0.0250222 5.00271e-05 0)
(0.024488 4.63197e-05 0)
(0.0239899 4.30919e-05 0)
(0.0235237 4.02859e-05 0)
(0.0230857 3.7836e-05 0)
(0.0226726 3.5679e-05 0)
(0.0222816 3.37638e-05 0)
(0.0219102 3.2046e-05 0)
(0.0215566 3.04932e-05 0)
(0.0212191 2.90753e-05 0)
(0.0208961 2.77732e-05 0)
(0.0205866 2.65667e-05 0)
(0.0202895 2.54452e-05 0)
(0.0200039 2.43956e-05 0)
(0.019729 2.34123e-05 0)
(0.0194641 2.24863e-05 0)
(0.0192085 2.16152e-05 0)
(0.0189618 2.07915e-05 0)
(0.0187233 2.00152e-05 0)
(0.0184926 1.92793e-05 0)
(0.0182692 1.85848e-05 0)
(0.0180528 1.79255e-05 0)
(0.0178428 1.73018e-05 0)
(0.0176392 1.67086e-05 0)
(0.0174413 1.6146e-05 0)
(0.0172493 1.56092e-05 0)
(0.0170622 1.50996e-05 0)
(0.0168806 1.46109e-05 0)
(0.0167035 1.41465e-05 0)
(0.0165314 1.36984e-05 0)
(0.0163633 1.32726e-05 0)
(0.0162 1.28585e-05 0)
(0.0160403 1.24657e-05 0)
(0.0158851 1.20806e-05 0)
(0.0157332 1.17157e-05 0)
(0.0155857 1.13559e-05 0)
(0.015441 1.10152e-05 0)
(0.0153008 1.06774e-05 0)
(0.015163 1.03583e-05 0)
(0.0150296 1.00385e-05 0)
(0.0148982 9.74013e-06 0)
(0.0147715 9.43401e-06 0)
(0.0146463 9.15561e-06 0)
(0.0145259 8.86124e-06 0)
(0.0144065 8.60098e-06 0)
(0.0142923 8.31789e-06 0)
(0.0141786 8.07406e-06 0)
(0.0140704 7.79958e-06 0)
(0.013962 7.57306e-06 0)
(0.0138598 7.30408e-06 0)
(0.0137566 7.09647e-06 0)
(0.0136602 6.82984e-06 0)
(0.0135619 6.64419e-06 0)
(0.0134714 6.37658e-06 0)
(0.0133778 6.21447e-06 0)
(0.0132932 5.94551e-06 0)
(0.0132039 5.80855e-06 0)
(0.0131252 5.53451e-06 0)
(0.0130399 5.43117e-06 0)
(0.0129672 5.14541e-06 0)
(0.0128854 5.08424e-06 0)
(0.0128188 4.7843e-06 0)
(0.01274 4.77224e-06 0)
(0.0126795 4.45384e-06 0)
(0.0126028 4.50643e-06 0)
(0.0125488 4.15937e-06 0)
(0.0124731 4.29852e-06 0)
(0.0124258 3.91199e-06 0)
(0.0123495 4.16455e-06 0)
(0.0123093 3.72238e-06 0)
(0.0122301 4.12926e-06 0)
(0.012198 3.58931e-06 0)
(0.0121119 4.22316e-06 0)
(0.0120908 3.5389e-06 0)
(0.0119877 5.31063e-06 0)
(0.19135 0.00786943 0)
(0.189609 0.0110281 0)
(0.187175 0.0121608 0)
(0.183425 0.0120374 0)
(0.178096 0.0114217 0)
(0.171367 0.0105296 0)
(0.163862 0.00936488 0)
(0.156038 0.00792255 0)
(0.148256 0.00635779 0)
(0.140731 0.00489647 0)
(0.133603 0.00368849 0)
(0.126981 0.00276838 0)
(0.120923 0.0021043 0)
(0.115456 0.00164971 0)
(0.110551 0.00135086 0)
(0.106147 0.00115592 0)
(0.102178 0.00102334 0)
(0.0985863 0.000925191 0)
(0.0953199 0.000845298 0)
(0.092337 0.000775405 0)
(0.0896032 0.000711837 0)
(0.0870894 0.000653276 0)
(0.084771 0.000599443 0)
(0.0826266 0.000550409 0)
(0.0806375 0.00050624 0)
(0.0787868 0.000466858 0)
(0.0770598 0.000432013 0)
(0.0754434 0.000401325 0)
(0.0739259 0.000374324 0)
(0.072497 0.000350513 0)
(0.0711479 0.000329412 0)
(0.0698707 0.000310593 0)
(0.0686587 0.000293683 0)
(0.0675059 0.00027838 0)
(0.0664074 0.000264431 0)
(0.0653584 0.00025164 0)
(0.0643552 0.000239842 0)
(0.0633942 0.000228917 0)
(0.0624725 0.000218758 0)
(0.0615869 0.000209288 0)
(0.0607355 0.000200435 0)
(0.0599154 0.000192148 0)
(0.0591253 0.000184371 0)
(0.0583624 0.000177069 0)
(0.057626 0.000170197 0)
(0.0569135 0.000163728 0)
(0.0562246 0.000157624 0)
(0.0555567 0.000151859 0)
(0.05491 0.000146406 0)
(0.054282 0.000141238 0)
(0.0536731 0.000136336 0)
(0.0530808 0.000131675 0)
(0.0525062 0.000127238 0)
(0.0519461 0.000123008 0)
(0.0514026 0.000118965 0)
(0.050872 0.000115098 0)
(0.050357 0.000111388 0)
(0.0498535 0.000107833 0)
(0.0493649 0.000104407 0)
(0.0488864 0.000101116 0)
(0.0484224 9.7936e-05 0)
(0.0479671 9.48722e-05 0)
(0.0475262 9.1905e-05 0)
(0.0470927 8.90393e-05 0)
(0.0466737 8.62537e-05 0)
(0.0462607 8.35653e-05 0)
(0.0458627 8.09314e-05 0)
(0.0454691 7.84032e-05 0)
(0.0450912 7.59021e-05 0)
(0.044716 7.35152e-05 0)
(0.0443576 7.11343e-05 0)
(0.044 6.88723e-05 0)
(0.0436607 6.65944e-05 0)
(0.0433199 6.44505e-05 0)
(0.0429993 6.22588e-05 0)
(0.0426746 6.02306e-05 0)
(0.0423727 5.81098e-05 0)
(0.0420633 5.62008e-05 0)
(0.0417799 5.41376e-05 0)
(0.041485 5.2348e-05 0)
(0.0412204 5.03402e-05 0)
(0.0409392 4.86724e-05 0)
(0.0406936 4.67104e-05 0)
(0.0404249 4.51895e-05 0)
(0.0401987 4.32577e-05 0)
(0.0399413 4.19114e-05 0)
(0.039735 4.00116e-05 0)
(0.0394871 3.88636e-05 0)
(0.0393015 3.69981e-05 0)
(0.0390606 3.61009e-05 0)
(0.0388968 3.42614e-05 0)
(0.0386597 3.36867e-05 0)
(0.038519 3.18778e-05 0)
(0.0382812 3.1707e-05 0)
(0.0381657 2.99442e-05 0)
(0.0379202 3.02767e-05 0)
(0.0378338 2.85737e-05 0)
(0.0375698 2.95733e-05 0)
(0.0375206 2.79519e-05 0)
(0.0372182 3.18164e-05 0)
(0.192595 0.0076006 0)
(0.192917 0.0101823 0)
(0.193861 0.0117895 0)
(0.194892 0.0123478 0)
(0.195411 0.0122848 0)
(0.195094 0.0118677 0)
(0.193918 0.0111476 0)
(0.191969 0.0101558 0)
(0.189376 0.00899955 0)
(0.186284 0.00784028 0)
(0.182833 0.00680759 0)
(0.179163 0.00595315 0)
(0.175392 0.00526556 0)
(0.171623 0.00471559 0)
(0.167904 0.00426834 0)
(0.164259 0.00389297 0)
(0.1607 0.0035668 0)
(0.157232 0.00327546 0)
(0.153859 0.00301081 0)
(0.150585 0.00276851 0)
(0.147415 0.00254621 0)
(0.14435 0.00234253 0)
(0.141394 0.00215648 0)
(0.138549 0.00198719 0)
(0.135815 0.0018338 0)
(0.133192 0.00169537 0)
(0.130678 0.0015709 0)
(0.128271 0.00145925 0)
(0.125967 0.00135923 0)
(0.123761 0.0012696 0)
(0.121651 0.00118917 0)
(0.11963 0.00111682 0)
(0.117695 0.00105154 0)
(0.11584 0.00099243 0)
(0.114061 0.000938695 0)
(0.112353 0.000889665 0)
(0.110712 0.00084476 0)
(0.109134 0.000803487 0)
(0.107615 0.000765433 0)
(0.106151 0.000730237 0)
(0.104739 0.000697603 0)
(0.103376 0.00066726 0)
(0.10206 0.000638992 0)
(0.100786 0.000612589 0)
(0.099554 0.000587893 0)
(0.0983593 0.00056473 0)
(0.0972025 0.000542986 0)
(0.0960788 0.000522505 0)
(0.0949895 0.000503216 0)
(0.0939294 0.000484971 0)
(0.092901 0.00046773 0)
(0.0918986 0.000451359 0)
(0.0909256 0.000435837 0)
(0.0899755 0.000421039 0)
(0.0890532 0.000406965 0)
(0.0881511 0.000393494 0)
(0.0872756 0.000380642 0)
(0.0864176 0.000368296 0)
(0.0855854 0.000356487 0)
(0.0847684 0.000345097 0)
(0.0839767 0.000334183 0)
(0.0831977 0.000323609 0)
(0.0824442 0.000313468 0)
(0.0817009 0.000303599 0)
(0.0809836 0.000294121 0)
(0.0802738 0.000284868 0)
(0.0795912 0.000275955 0)
(0.0789131 0.000267244 0)
(0.0782639 0.000258826 0)
(0.077616 0.000250585 0)
(0.0769992 0.000242609 0)
(0.0763799 0.000234777 0)
(0.075795 0.000227187 0)
(0.0752029 0.000219722 0)
(0.0746495 0.00021247 0)
(0.0740835 0.000205345 0)
(0.0735615 0.000198389 0)
(0.0730203 0.000191588 0)
(0.0725298 0.000184897 0)
(0.072012 0.000178403 0)
(0.0715536 0.000171972 0)
(0.0710577 0.000165774 0)
(0.0706322 0.000159591 0)
(0.0701563 0.000153722 0)
(0.0697647 0.000147775 0)
(0.0693066 0.000142272 0)
(0.0689503 0.000136594 0)
(0.0685069 0.000131486 0)
(0.068188 0.000126126 0)
(0.0677553 0.000121494 0)
(0.0674762 0.000116504 0)
(0.0670488 0.000112454 0)
(0.0668128 0.000107947 0)
(0.0663832 0.000104584 0)
(0.0661948 0.000100745 0)
(0.0657523 9.81833e-05 0)
(0.0656182 9.52359e-05 0)
(0.0651476 9.3853e-05 0)
(0.0650773 9.1943e-05 0)
(0.0645585 9.48059e-05 0)
(0.193782 0.00719951 0)
(0.194054 0.00898235 0)
(0.194916 0.0104344 0)
(0.196271 0.0112072 0)
(0.197728 0.0113946 0)
(0.198943 0.0112013 0)
(0.199748 0.010743 0)
(0.200094 0.0100816 0)
(0.199984 0.00928788 0)
(0.199452 0.00845907 0)
(0.198558 0.00768803 0)
(0.19738 0.00702803 0)
(0.196004 0.00648644 0)
(0.1945 0.00604165 0)
(0.192912 0.00566715 0)
(0.191263 0.00534116 0)
(0.189565 0.00504834 0)
(0.187821 0.00477883 0)
(0.186036 0.00452671 0)
(0.184211 0.00428863 0)
(0.182353 0.00406274 0)
(0.180466 0.00384808 0)
(0.178557 0.00364421 0)
(0.176633 0.00345093 0)
(0.1747 0.00326817 0)
(0.172764 0.00309584 0)
(0.170833 0.00293379 0)
(0.168909 0.00278174 0)
(0.166998 0.00263934 0)
(0.165104 0.00250607 0)
(0.16323 0.00238142 0)
(0.161377 0.00226482 0)
(0.159551 0.00215572 0)
(0.15775 0.00205359 0)
(0.155978 0.00195795 0)
(0.154235 0.00186831 0)
(0.152524 0.00178429 0)
(0.150842 0.00170545 0)
(0.149193 0.00163148 0)
(0.147574 0.00156199 0)
(0.145989 0.00149673 0)
(0.144434 0.00143533 0)
(0.142912 0.00137759 0)
(0.14142 0.00132318 0)
(0.13996 0.00127196 0)
(0.138529 0.00122358 0)
(0.13713 0.00117795 0)
(0.135757 0.00113475 0)
(0.134417 0.00109395 0)
(0.1331 0.00105519 0)
(0.131816 0.00101851 0)
(0.130553 0.000983543 0)
(0.129321 0.000950396 0)
(0.12811 0.000918685 0)
(0.126929 0.000888562 0)
(0.125766 0.000859631 0)
(0.124634 0.000832099 0)
(0.123516 0.000805546 0)
(0.122431 0.000780242 0)
(0.121357 0.000755724 0)
(0.120315 0.000732349 0)
(0.119283 0.000709576 0)
(0.118285 0.000687874 0)
(0.117291 0.000666603 0)
(0.116335 0.000646345 0)
(0.115379 0.000626379 0)
(0.114463 0.000607361 0)
(0.113543 0.000588532 0)
(0.112667 0.000570602 0)
(0.111781 0.000552748 0)
(0.110944 0.00053579 0)
(0.110092 0.000518768 0)
(0.109294 0.000502669 0)
(0.108473 0.000486376 0)
(0.107714 0.000471037 0)
(0.106924 0.000455393 0)
(0.106205 0.000440736 0)
(0.105443 0.000425681 0)
(0.104765 0.000411653 0)
(0.10403 0.000397122 0)
(0.103395 0.000383724 0)
(0.102685 0.000369665 0)
(0.102093 0.000356891 0)
(0.101406 0.000343319 0)
(0.100861 0.000331184 0)
(0.100193 0.000318117 0)
(0.0996972 0.000306711 0)
(0.0990444 0.000294154 0)
(0.0986016 0.000283622 0)
(0.0979588 0.000271654 0)
(0.0975734 0.000262151 0)
(0.0969334 0.000250901 0)
(0.0966108 0.000242685 0)
(0.0959642 0.00023231 0)
(0.095711 0.000225706 0)
(0.0950456 0.000216503 0)
(0.0948696 0.000211749 0)
(0.0941699 0.000204653 0)
(0.0940797 0.00020189 0)
(0.0933277 0.000200148 0)
(0.194785 0.00691096 0)
(0.195027 0.00822511 0)
(0.195655 0.00941536 0)
(0.196693 0.010204 0)
(0.197955 0.0105126 0)
(0.19919 0.0104423 0)
(0.200225 0.0101168 0)
(0.200991 0.00962383 0)
(0.201477 0.00902905 0)
(0.201695 0.00839581 0)
(0.201671 0.00778698 0)
(0.201451 0.00724693 0)
(0.201089 0.00679148 0)
(0.200636 0.00641203 0)
(0.200127 0.00609098 0)
(0.19958 0.00581174 0)
(0.199003 0.00556189 0)
(0.198394 0.00533309 0)
(0.197751 0.00511997 0)
(0.197071 0.00491914 0)
(0.196351 0.00472849 0)
(0.19559 0.00454669 0)
(0.19479 0.00437293 0)
(0.193951 0.00420671 0)
(0.193077 0.00404778 0)
(0.192168 0.00389593 0)
(0.191229 0.00375104 0)
(0.19026 0.00361287 0)
(0.189265 0.00348125 0)
(0.188245 0.00335583 0)
(0.187204 0.00323637 0)
(0.186141 0.00312243 0)
(0.185061 0.00301377 0)
(0.183963 0.00290996 0)
(0.182853 0.00281082 0)
(0.181727 0.00271594 0)
(0.180593 0.0026252 0)
(0.179447 0.00253824 0)
(0.178295 0.002455 0)
(0.177134 0.00237512 0)
(0.175972 0.00229864 0)
(0.174802 0.00222515 0)
(0.173634 0.00215477 0)
(0.172459 0.00208707 0)
(0.17129 0.00202222 0)
(0.170117 0.00195975 0)
(0.168951 0.00189991 0)
(0.167782 0.00184217 0)
(0.166625 0.00178687 0)
(0.165463 0.0017334 0)
(0.164317 0.00168221 0)
(0.163166 0.00163258 0)
(0.162034 0.00158508 0)
(0.160897 0.00153891 0)
(0.159781 0.00149474 0)
(0.15866 0.00145166 0)
(0.157562 0.00141048 0)
(0.156458 0.00137016 0)
(0.155382 0.00133166 0)
(0.154297 0.00129378 0)
(0.153243 0.00125769 0)
(0.152178 0.00122198 0)
(0.151149 0.00118805 0)
(0.150104 0.00115425 0)
(0.149101 0.00112226 0)
(0.148077 0.00109015 0)
(0.147102 0.00105986 0)
(0.1461 0.00102924 0)
(0.145154 0.00100049 0)
(0.144173 0.000971149 0)
(0.143258 0.00094381 0)
(0.1423 0.000915554 0)
(0.141417 0.000889495 0)
(0.14048 0.000862168 0)
(0.139633 0.000837272 0)
(0.138717 0.000810755 0)
(0.137907 0.00078693 0)
(0.137011 0.000761114 0)
(0.13624 0.000738324 0)
(0.135363 0.000713082 0)
(0.134636 0.000691349 0)
(0.133776 0.000666584 0)
(0.133096 0.000645938 0)
(0.132251 0.000621628 0)
(0.131621 0.000602121 0)
(0.130788 0.000578273 0)
(0.130213 0.000560072 0)
(0.129387 0.000536659 0)
(0.128874 0.000519999 0)
(0.128049 0.000497145 0)
(0.127603 0.000482251 0)
(0.126774 0.000460181 0)
(0.126401 0.000447386 0)
(0.125557 0.000426432 0)
(0.125266 0.000416109 0)
(0.124396 0.000396864 0)
(0.124196 0.000389277 0)
(0.123286 0.000373082 0)
(0.123184 0.000368681 0)
(0.122218 0.000358279 0)
(0.195651 0.00667568 0)
(0.19587 0.00770584 0)
(0.19635 0.00866444 0)
(0.197117 0.00938392 0)
(0.198089 0.00975535 0)
(0.199107 0.0097932 0)
(0.200026 0.00958418 0)
(0.200764 0.00921588 0)
(0.2013 0.00875445 0)
(0.201639 0.00825095 0)
(0.201805 0.00774949 0)
(0.201829 0.00728538 0)
(0.201751 0.00687788 0)
(0.201609 0.00652845 0)
(0.201437 0.00622821 0)
(0.20125 0.00596555 0)
(0.201061 0.00573055 0)
(0.200866 0.00551598 0)
(0.200667 0.00531718 0)
(0.200455 0.00513107 0)
(0.200231 0.0049558 0)
(0.19999 0.00478998 0)
(0.199732 0.00463279 0)
(0.199453 0.00448345 0)
(0.199158 0.0043416 0)
(0.198841 0.0042067 0)
(0.198508 0.00407858 0)
(0.198154 0.00395676 0)
(0.197783 0.00384111 0)
(0.197391 0.00373107 0)
(0.196983 0.00362651 0)
(0.196553 0.00352679 0)
(0.196109 0.00343182 0)
(0.195642 0.00334094 0)
(0.195162 0.00325414 0)
(0.194658 0.00317076 0)
(0.194143 0.0030909 0)
(0.193604 0.0030139 0)
(0.193054 0.00293998 0)
(0.192481 0.00286844 0)
(0.1919 0.00279967 0)
(0.191294 0.00273289 0)
(0.190681 0.00266861 0)
(0.190045 0.00260599 0)
(0.189404 0.00254569 0)
(0.188739 0.00248674 0)
(0.188072 0.00242998 0)
(0.187379 0.00237427 0)
(0.186689 0.00232065 0)
(0.185972 0.0022678 0)
(0.185261 0.00221699 0)
(0.184522 0.00216671 0)
(0.183793 0.00211845 0)
(0.183034 0.00207047 0)
(0.182289 0.0020245 0)
(0.181512 0.00197855 0)
(0.180755 0.00193464 0)
(0.179963 0.00189048 0)
(0.179196 0.00184846 0)
(0.178391 0.0018059 0)
(0.177617 0.00176561 0)
(0.176801 0.00172445 0)
(0.176024 0.00168577 0)
(0.175198 0.00164582 0)
(0.17442 0.00160858 0)
(0.173587 0.00156971 0)
(0.172812 0.00153378 0)
(0.171973 0.00149585 0)
(0.171204 0.00146115 0)
(0.17036 0.00142397 0)
(0.169601 0.00139046 0)
(0.168754 0.00135386 0)
(0.168007 0.00132148 0)
(0.167158 0.00128534 0)
(0.166428 0.00125403 0)
(0.165578 0.00121824 0)
(0.164869 0.00118797 0)
(0.164016 0.00115242 0)
(0.163333 0.00112323 0)
(0.162479 0.0010878 0)
(0.161826 0.00105978 0)
(0.160969 0.00102436 0)
(0.160351 0.000997593 0)
(0.159491 0.000962211 0)
(0.158914 0.00093679 0)
(0.158047 0.000901487 0)
(0.157518 0.00087766 0)
(0.156642 0.000842437 0)
(0.156166 0.000820521 0)
(0.155277 0.000785615 0)
(0.154863 0.000765859 0)
(0.153955 0.000731658 0)
(0.153609 0.000714491 0)
(0.152675 0.000681494 0)
(0.152405 0.000667417 0)
(0.151438 0.000636379 0)
(0.151252 0.000625907 0)
(0.15024 0.000598341 0)
(0.150146 0.000592405 0)
(0.149078 0.000570286 0)
(0.196418 0.00646585 0)
(0.196612 0.00729361 0)
(0.196984 0.0080651 0)
(0.197551 0.00868337 0)
(0.198278 0.00906389 0)
(0.199073 0.00918358 0)
(0.199831 0.00908265 0)
(0.200473 0.0088263 0)
(0.200964 0.00847447 0)
(0.201299 0.00807378 0)
(0.201495 0.00766031 0)
(0.201576 0.00726183 0)
(0.201574 0.00689682 0)
(0.201516 0.00657228 0)
(0.201432 0.0062862 0)
(0.201338 0.00603184 0)
(0.201247 0.0058021 0)
(0.201159 0.00559107 0)
(0.201076 0.00539498 0)
(0.200993 0.00521117 0)
(0.200912 0.00503837 0)
(0.200825 0.00487534 0)
(0.200737 0.00472159 0)
(0.200641 0.00457623 0)
(0.200544 0.00443906 0)
(0.200438 0.00430927 0)
(0.200332 0.00418683 0)
(0.200215 0.00407097 0)
(0.200098 0.00396176 0)
(0.19997 0.00385832 0)
(0.199841 0.00376083 0)
(0.199699 0.00366828 0)
(0.199557 0.00358092 0)
(0.1994 0.00349767 0)
(0.199243 0.00341891 0)
(0.19907 0.00334351 0)
(0.198897 0.003272 0)
(0.198705 0.00320318 0)
(0.198515 0.00313779 0)
(0.198303 0.00307449 0)
(0.198094 0.00301428 0)
(0.197862 0.00295563 0)
(0.197633 0.00289981 0)
(0.197379 0.00284511 0)
(0.197131 0.00279304 0)
(0.196854 0.00274169 0)
(0.196585 0.00269286 0)
(0.196285 0.00264432 0)
(0.195996 0.00259825 0)
(0.195671 0.00255204 0)
(0.195362 0.00250831 0)
(0.195014 0.00246405 0)
(0.194685 0.00242234 0)
(0.194313 0.00237972 0)
(0.193964 0.00233975 0)
(0.193568 0.00229848 0)
(0.193201 0.00225999 0)
(0.192782 0.00221975 0)
(0.192397 0.00218251 0)
(0.191954 0.00214306 0)
(0.191554 0.00210695 0)
(0.191088 0.00206808 0)
(0.190673 0.00203299 0)
(0.190184 0.00199451 0)
(0.189758 0.00196028 0)
(0.189246 0.00192199 0)
(0.188809 0.00188847 0)
(0.188276 0.00185025 0)
(0.187831 0.0018174 0)
(0.187276 0.00177909 0)
(0.186826 0.00174692 0)
(0.186251 0.0017083 0)
(0.185798 0.00167676 0)
(0.185202 0.00163771 0)
(0.184751 0.00160677 0)
(0.184134 0.0015672 0)
(0.183688 0.00153688 0)
(0.183051 0.00149673 0)
(0.182613 0.00146707 0)
(0.181955 0.0014262 0)
(0.181531 0.00139735 0)
(0.180852 0.00135569 0)
(0.180445 0.00132775 0)
(0.179745 0.00128539 0)
(0.179361 0.00125849 0)
(0.178638 0.00121555 0)
(0.178282 0.00118998 0)
(0.177535 0.0011465 0)
(0.177214 0.00112264 0)
(0.17644 0.00107901 0)
(0.176158 0.00105716 0)
(0.175356 0.00101388 0)
(0.17512 0.000994564 0)
(0.174284 0.000952264 0)
(0.1741 0.00093622 0)
(0.173227 0.000895764 0)
(0.173101 0.000883775 0)
(0.172185 0.000846731 0)
(0.172122 0.000840116 0)
(0.171157 0.000807967 0)
(0.197109 0.00626925 0)
(0.197273 0.00694241 0)
(0.197559 0.0075673 0)
(0.197976 0.00808812 0)
(0.19851 0.00844771 0)
(0.199109 0.00861648 0)
(0.199706 0.00860392 0)
(0.200236 0.00844735 0)
(0.200661 0.00819254 0)
(0.200967 0.00788027 0)
(0.201162 0.00754305 0)
(0.20126 0.00720476 0)
(0.201288 0.00688228 0)
(0.201266 0.00658465 0)
(0.201217 0.00631446 0)
(0.201155 0.00606898 0)
(0.201095 0.00584422 0)
(0.201035 0.00563571 0)
(0.200983 0.00544073 0)
(0.200931 0.00525697 0)
(0.200884 0.00508376 0)
(0.200834 0.00491992 0)
(0.200788 0.0047655 0)
(0.200737 0.00461947 0)
(0.200691 0.004482 0)
(0.200639 0.00435199 0)
(0.200594 0.00422976 0)
(0.200542 0.00411412 0)
(0.200497 0.00400557 0)
(0.200445 0.00390278 0)
(0.2004 0.00380641 0)
(0.200347 0.00371493 0)
(0.200302 0.00362919 0)
(0.200247 0.00354749 0)
(0.200201 0.00347089 0)
(0.200141 0.00339754 0)
(0.200093 0.00332873 0)
(0.200029 0.00326245 0)
(0.199978 0.00320028 0)
(0.199908 0.00313998 0)
(0.199852 0.00308346 0)
(0.199775 0.0030282 0)
(0.199714 0.0029765 0)
(0.199628 0.00292551 0)
(0.199561 0.00287793 0)
(0.199466 0.00283054 0)
(0.199391 0.00278652 0)
(0.199285 0.00274214 0)
(0.199203 0.00270118 0)
(0.199085 0.00265925 0)
(0.198994 0.00262084 0)
(0.198863 0.0025809 0)
(0.198764 0.00254465 0)
(0.198619 0.00250634 0)
(0.19851 0.00247194 0)
(0.19835 0.00243493 0)
(0.198232 0.00240209 0)
(0.198057 0.00236601 0)
(0.197929 0.00233442 0)
(0.197737 0.0022989 0)
(0.1976 0.0022684 0)
(0.19739 0.00223317 0)
(0.197244 0.00220365 0)
(0.197016 0.00216851 0)
(0.196861 0.00213978 0)
(0.196614 0.00210449 0)
(0.196451 0.00207628 0)
(0.196184 0.00204063 0)
(0.196014 0.00201283 0)
(0.195727 0.00197667 0)
(0.195551 0.00194937 0)
(0.195242 0.00191242 0)
(0.195062 0.00188551 0)
(0.194732 0.00184758 0)
(0.194548 0.00182093 0)
(0.194195 0.00178195 0)
(0.19401 0.00175553 0)
(0.193635 0.00171549 0)
(0.193451 0.00168933 0)
(0.193052 0.00164802 0)
(0.19287 0.00162228 0)
(0.192447 0.00157961 0)
(0.192271 0.0015543 0)
(0.191823 0.00151042 0)
(0.191656 0.00148563 0)
(0.191183 0.0014408 0)
(0.191027 0.00141678 0)
(0.190527 0.00137095 0)
(0.190385 0.00134821 0)
(0.189859 0.00130181 0)
(0.189735 0.00128053 0)
(0.18918 0.00123433 0)
(0.189076 0.00121517 0)
(0.188493 0.00116975 0)
(0.188412 0.00115354 0)
(0.187798 0.00110968 0)
(0.187743 0.00109763 0)
(0.187097 0.00105739 0)
(0.18707 0.00105062 0)
(0.186389 0.00101487 0)
(0.197704 0.00609737 0)
(0.197837 0.0066573 0)
(0.198056 0.00717629 0)
(0.198365 0.00761887 0)
(0.198757 0.00794813 0)
(0.199201 0.00813871 0)
(0.199656 0.00818659 0)
(0.200076 0.00810835 0)
(0.200427 0.00793413 0)
(0.200691 0.00769605 0)
(0.20087 0.00742303 0)
(0.200971 0.00713683 0)
(0.201013 0.00685356 0)
(0.20101 0.00658274 0)
(0.200984 0.00632963 0)
(0.200942 0.00609438 0)
(0.200899 0.00587577 0)
(0.200854 0.00567076 0)
(0.200815 0.00547778 0)
(0.200775 0.00529473 0)
(0.200741 0.0051215 0)
(0.200704 0.0049569 0)
(0.200671 0.00480147 0)
(0.200634 0.00465404 0)
(0.200602 0.00451526 0)
(0.200565 0.00438374 0)
(0.200536 0.00426024 0)
(0.2005 0.00414314 0)
(0.200474 0.00403343 0)
(0.200441 0.00392928 0)
(0.200417 0.00383189 0)
(0.200385 0.0037392 0)
(0.200365 0.00365266 0)
(0.200334 0.00356997 0)
(0.200316 0.00349286 0)
(0.200287 0.0034188 0)
(0.20027 0.00334982 0)
(0.200241 0.00328313 0)
(0.200226 0.00322115 0)
(0.200196 0.00316076 0)
(0.200182 0.00310477 0)
(0.200151 0.00304972 0)
(0.200138 0.00299888 0)
(0.200104 0.00294835 0)
(0.200091 0.00290196 0)
(0.200054 0.00285527 0)
(0.200041 0.00281276 0)
(0.200001 0.00276929 0)
(0.199986 0.00273014 0)
(0.199942 0.0026893 0)
(0.199926 0.002653 0)
(0.199876 0.00261432 0)
(0.19986 0.00258041 0)
(0.199804 0.00254351 0)
(0.199785 0.00251165 0)
(0.199722 0.0024762 0)
(0.199702 0.00244612 0)
(0.199631 0.00241173 0)
(0.199608 0.00238312 0)
(0.19953 0.00234934 0)
(0.199504 0.00232199 0)
(0.199416 0.00228849 0)
(0.199389 0.00226227 0)
(0.199291 0.00222893 0)
(0.19926 0.00220362 0)
(0.199151 0.00217021 0)
(0.199118 0.00214545 0)
(0.198998 0.00211171 0)
(0.198962 0.00208733 0)
(0.198829 0.002053 0)
(0.198792 0.00202919 0)
(0.198646 0.00199404 0)
(0.198606 0.00197062 0)
(0.198446 0.00193445 0)
(0.198404 0.00191114 0)
(0.19823 0.00187393 0)
(0.198187 0.00185058 0)
(0.197998 0.0018123 0)
(0.197954 0.00178908 0)
(0.197749 0.00174936 0)
(0.197705 0.00172641 0)
(0.197483 0.00168532 0)
(0.197441 0.0016624 0)
(0.197202 0.00162011 0)
(0.197161 0.00159721 0)
(0.196905 0.00155407 0)
(0.196866 0.00153168 0)
(0.196592 0.00148726 0)
(0.196558 0.00146591 0)
(0.196265 0.00142107 0)
(0.196235 0.00140041 0)
(0.195924 0.00135591 0)
(0.195899 0.00133709 0)
(0.19557 0.00129351 0)
(0.19555 0.00127758 0)
(0.195201 0.00123517 0)
(0.195189 0.0012227 0)
(0.194821 0.00118498 0)
(0.194815 0.00117797 0)
(0.194426 0.00114438 0)
(0.198275 0.00595647 0)
(0.198376 0.00643213 0)
(0.198533 0.00687214 0)
(0.19875 0.00725208 0)
(0.199023 0.00754803 0)
(0.199334 0.00774059 0)
(0.199659 0.00782245 0)
(0.199967 0.00779903 0)
(0.200236 0.00768795 0)
(0.200446 0.00751157 0)
(0.200597 0.00729352 0)
(0.200689 0.00705302 0)
(0.200735 0.00680569 0)
(0.200745 0.00656122 0)
(0.200734 0.0063264 0)
(0.200709 0.00610323 0)
(0.200681 0.00589271 0)
(0.200649 0.00569313 0)
(0.200622 0.00550402 0)
(0.200593 0.00532353 0)
(0.200569 0.00515198 0)
(0.200541 0.0049881 0)
(0.200518 0.00483283 0)
(0.20049 0.00468491 0)
(0.200468 0.00454545 0)
(0.20044 0.00441284 0)
(0.200419 0.00428828 0)
(0.200393 0.00416986 0)
(0.200374 0.00405894 0)
(0.20035 0.00395334 0)
(0.200334 0.0038547 0)
(0.200311 0.00376053 0)
(0.200298 0.00367277 0)
(0.200277 0.00358865 0)
(0.200267 0.00351043 0)
(0.200247 0.00343506 0)
(0.200239 0.00336516 0)
(0.200221 0.00329735 0)
(0.200215 0.00323465 0)
(0.200197 0.00317332 0)
(0.200193 0.00311683 0)
(0.200176 0.00306103 0)
(0.200174 0.0030099 0)
(0.200156 0.00295879 0)
(0.200155 0.00291232 0)
(0.200138 0.00286518 0)
(0.200138 0.0028228 0)
(0.20012 0.002779 0)
(0.200122 0.00274018 0)
(0.200102 0.00269917 0)
(0.200105 0.00266337 0)
(0.200084 0.00262467 0)
(0.200088 0.00259138 0)
(0.200065 0.00255461 0)
(0.20007 0.00252349 0)
(0.200044 0.00248831 0)
(0.20005 0.00245909 0)
(0.200022 0.00242511 0)
(0.200028 0.00239755 0)
(0.199997 0.00236423 0)
(0.200004 0.0023381 0)
(0.19997 0.00230516 0)
(0.199977 0.0022802 0)
(0.199939 0.00224758 0)
(0.199946 0.00222358 0)
(0.199904 0.00219112 0)
(0.199912 0.00216768 0)
(0.199864 0.00213507 0)
(0.199872 0.00211206 0)
(0.19982 0.00207884 0)
(0.199828 0.0020565 0)
(0.19977 0.00202262 0)
(0.199779 0.00200065 0)
(0.199715 0.00196597 0)
(0.199723 0.00194398 0)
(0.199653 0.00190853 0)
(0.199661 0.00188631 0)
(0.199585 0.00184988 0)
(0.199593 0.00182793 0)
(0.199509 0.00179001 0)
(0.199517 0.00176823 0)
(0.199425 0.00172929 0)
(0.199433 0.00170723 0)
(0.199334 0.00166737 0)
(0.199341 0.00164497 0)
(0.199235 0.00160435 0)
(0.199242 0.00158269 0)
(0.199127 0.00154061 0)
(0.199134 0.0015197 0)
(0.199011 0.00147785 0)
(0.199017 0.00145708 0)
(0.198885 0.00141558 0)
(0.19889 0.00139665 0)
(0.19875 0.00135608 0)
(0.198755 0.00134054 0)
(0.198605 0.00130132 0)
(0.198608 0.00128778 0)
(0.198451 0.00125379 0)
(0.198453 0.00124706 0)
(0.198284 0.00121712 0)
(0.198891 0.00584114 0)
(0.198953 0.00624962 0)
(0.199046 0.00662694 0)
(0.199173 0.00695589 0)
(0.199333 0.00722051 0)
(0.199516 0.00740621 0)
(0.199712 0.00750587 0)
(0.199901 0.00751957 0)
(0.200072 0.00745658 0)
(0.200212 0.00733071 0)
(0.200317 0.00715954 0)
(0.200386 0.00695893 0)
(0.200426 0.00674357 0)
(0.200441 0.00652337 0)
(0.200441 0.0063062 0)
(0.20043 0.00609549 0)
(0.200416 0.00589381 0)
(0.200399 0.0057007 0)
(0.200384 0.00551657 0)
(0.200367 0.00533994 0)
(0.200354 0.00517136 0)
(0.200338 0.00500957 0)
(0.200324 0.00485567 0)
(0.200308 0.00470845 0)
(0.200294 0.00456925 0)
(0.200277 0.00443648 0)
(0.200264 0.00431161 0)
(0.200248 0.0041926 0)
(0.200237 0.00408107 0)
(0.200222 0.00397464 0)
(0.200212 0.00387521 0)
(0.200199 0.00378004 0)
(0.20019 0.00369138 0)
(0.200178 0.00360621 0)
(0.200171 0.00352707 0)
(0.20016 0.00345068 0)
(0.200155 0.00337989 0)
(0.200144 0.00331113 0)
(0.200141 0.0032476 0)
(0.200131 0.00318545 0)
(0.200128 0.00312821 0)
(0.200119 0.00307169 0)
(0.200118 0.00301995 0)
(0.200109 0.00296817 0)
(0.200109 0.00292123 0)
(0.2001 0.00287348 0)
(0.200101 0.00283072 0)
(0.200092 0.00278638 0)
(0.200095 0.00274727 0)
(0.200086 0.00270583 0)
(0.200089 0.00266976 0)
(0.20008 0.0026308 0)
(0.200084 0.00259723 0)
(0.200074 0.00256034 0)
(0.200079 0.00252896 0)
(0.200069 0.00249373 0)
(0.200074 0.0024643 0)
(0.200064 0.0024303 0)
(0.20007 0.00240267 0)
(0.200059 0.00236936 0)
(0.200066 0.00234323 0)
(0.200054 0.00231043 0)
(0.200061 0.00228538 0)
(0.200048 0.00225309 0)
(0.200057 0.00222888 0)
(0.200042 0.00219696 0)
(0.200051 0.0021733 0)
(0.200036 0.00214133 0)
(0.200045 0.00211823 0)
(0.200029 0.00208558 0)
(0.200038 0.00206317 0)
(0.20002 0.00203004 0)
(0.200031 0.00200787 0)
(0.200011 0.00197423 0)
(0.200022 0.00195188 0)
(0.200001 0.00191773 0)
(0.200011 0.00189513 0)
(0.199988 0.00185988 0)
(0.199999 0.00183783 0)
(0.199974 0.00180112 0)
(0.199985 0.001779 0)
(0.199958 0.00174173 0)
(0.199969 0.00171912 0)
(0.19994 0.00168119 0)
(0.19995 0.00165821 0)
(0.19992 0.00161926 0)
(0.199929 0.00159755 0)
(0.199896 0.00155719 0)
(0.199905 0.00153564 0)
(0.19987 0.00149629 0)
(0.199878 0.00147493 0)
(0.19984 0.0014356 0)
(0.199847 0.00141633 0)
(0.199806 0.00137768 0)
(0.199812 0.00136235 0)
(0.199768 0.00132613 0)
(0.199771 0.00131157 0)
(0.199725 0.00127978 0)
(0.199727 0.00127383 0)
(0.199677 0.00124674 0)
(0.199568 0.00577543 0)
(0.199585 0.00614271 0)
(0.199613 0.00648133 0)
(0.199652 0.00677821 0)
(0.199702 0.00702111 0)
(0.199761 0.00719848 0)
(0.199825 0.00730384 0)
(0.199889 0.00733526 0)
(0.199948 0.00729799 0)
(0.199999 0.00720106 0)
(0.200039 0.00705794 0)
(0.200067 0.00688187 0)
(0.200085 0.00668641 0)
(0.200094 0.0064816 0)
(0.200098 0.00627585 0)
(0.200098 0.00607354 0)
(0.200096 0.005878 0)
(0.200092 0.00568963 0)
(0.200089 0.00550924 0)
(0.200085 0.00533575 0)
(0.200083 0.00516971 0)
(0.200079 0.00500994 0)
(0.200076 0.00485757 0)
(0.200072 0.00471141 0)
(0.200069 0.00457296 0)
(0.200065 0.00444062 0)
(0.200062 0.00431607 0)
(0.200057 0.00419716 0)
(0.200055 0.00408572 0)
(0.200051 0.00397921 0)
(0.200048 0.00387968 0)
(0.200045 0.00378435 0)
(0.200043 0.00369544 0)
(0.200039 0.00361006 0)
(0.200038 0.00353058 0)
(0.200035 0.00345397 0)
(0.200034 0.0033828 0)
(0.200031 0.00331385 0)
(0.200031 0.00324995 0)
(0.200028 0.00318759 0)
(0.200028 0.00313005 0)
(0.200026 0.00307331 0)
(0.200026 0.00302135 0)
(0.200023 0.00296934 0)
(0.200024 0.00292224 0)
(0.200022 0.00287428 0)
(0.200023 0.00283137 0)
(0.20002 0.0027869 0)
(0.200022 0.00274756 0)
(0.200019 0.00270611 0)
(0.200021 0.00266974 0)
(0.200019 0.00263088 0)
(0.200021 0.002597 0)
(0.200018 0.00256025 0)
(0.20002 0.00252858 0)
(0.200018 0.00249347 0)
(0.20002 0.00246381 0)
(0.200018 0.00242988 0)
(0.20002 0.00240203 0)
(0.200018 0.00236886 0)
(0.200021 0.00234248 0)
(0.200018 0.00230995 0)
(0.200021 0.00228455 0)
(0.200018 0.00225261 0)
(0.200021 0.00222798 0)
(0.200018 0.00219642 0)
(0.200021 0.00217237 0)
(0.200018 0.00214075 0)
(0.200022 0.00211734 0)
(0.200018 0.00208513 0)
(0.200022 0.00206225 0)
(0.200018 0.00202968 0)
(0.200022 0.00200694 0)
(0.200018 0.00197392 0)
(0.200022 0.00195103 0)
(0.200018 0.0019175 0)
(0.200022 0.00189447 0)
(0.200018 0.00185978 0)
(0.200022 0.00183723 0)
(0.200017 0.00180132 0)
(0.200022 0.00177851 0)
(0.200017 0.00174209 0)
(0.200021 0.00171887 0)
(0.200015 0.00168181 0)
(0.200019 0.00165837 0)
(0.200014 0.00162017 0)
(0.200018 0.00159789 0)
(0.200011 0.00155872 0)
(0.200015 0.00153637 0)
(0.200009 0.00149805 0)
(0.200012 0.00147634 0)
(0.200005 0.0014381 0)
(0.200008 0.00141844 0)
(0.2 0.00138084 0)
(0.200002 0.00136481 0)
(0.199995 0.00133031 0)
(0.199996 0.00131586 0)
(0.199987 0.00128502 0)
(0.199987 0.0012787 0)
(0.199978 0.00125339 0)
(0.204161 9.56494e-05 0)