/*--------------------------------*- C++ -*----------------------------------*\
| =========                 |                                                 |
| \\      /  F ield         | OpenFOAM: The Open Source CFD Toolbox           |
|  \\    /   O peration     | Version:  2.3.0                                 |
|   \\  /    A nd           | Web:      www.OpenFOAM.org                      |
|    \\/     M anipulation  |                                                 |
\*---------------------------------------------------------------------------*/
FoamFile
{
    version     2.0;
    format      ascii;
    class       volVectorField;
    location    "0.4";
    object      U;
}
// * * * * * * * * * * * * * * * * * * * * * * * * * * * * * * * * * * * * * //

dimensions      [0 1 -1 0 0 0 0];

internalField   nonuniform List<vector> 
1500
(
(0.170767 0.00605141 0)
(0.154006 0.00612531 0)
(0.13788 0.00570324 0)
(0.12259 0.00509457 0)
(0.10856 0.00441768 0)
(0.0959676 0.00372755 0)
(0.0848343 0.00306301 0)
(0.0751313 0.00245154 0)
(0.0668045 0.00191039 0)
(0.0597667 0.00144874 0)
(0.0538987 0.00106909 0)
(0.0490596 0.000768139 0)
(0.0450994 0.000538143 0)
(0.0418695 0.000368644 0)
(0.0392317 0.000248243 0)
(0.0370635 0.000165951 0)
(0.0352614 0.000112028 0)
(0.0337408 7.83565e-05 0)
(0.0324358 5.85064e-05 0)
(0.0312959 4.76162e-05 0)
(0.0302838 4.21794e-05 0)
(0.0293724 3.97935e-05 0)
(0.0285421 3.89068e-05 0)
(0.0277791 3.85865e-05 0)
(0.0270732 3.83236e-05 0)
(0.0264171 3.7881e-05 0)
(0.025805 3.71833e-05 0)
(0.0252325 3.62413e-05 0)
(0.0246958 3.5105e-05 0)
(0.0241917 3.38352e-05 0)
(0.0237174 3.24895e-05 0)
(0.0232702 3.11157e-05 0)
(0.0228479 2.97496e-05 0)
(0.0224484 2.84167e-05 0)
(0.0220699 2.71329e-05 0)
(0.0217105 2.59077e-05 0)
(0.0213687 2.47451e-05 0)
(0.0210433 2.36457e-05 0)
(0.0207329 2.26078e-05 0)
(0.0204364 2.16282e-05 0)
(0.0201528 2.0703e-05 0)
(0.0198813 1.9828e-05 0)
(0.0196212 1.89988e-05 0)
(0.0193716 1.82112e-05 0)
(0.0191321 1.74613e-05 0)
(0.018902 1.67455e-05 0)
(0.018681 1.60604e-05 0)
(0.0184685 1.5403e-05 0)
(0.0182642 1.47705e-05 0)
(0.0180679 1.41605e-05 0)
(0.0178791 1.35708e-05 0)
(0.0176977 1.29994e-05 0)
(0.0175234 1.24446e-05 0)
(0.0173561 1.19047e-05 0)
(0.0171955 1.13784e-05 0)
(0.0170416 1.08643e-05 0)
(0.0168941 1.03613e-05 0)
(0.0167531 9.8683e-06 0)
(0.0166184 9.38442e-06 0)
(0.01649 8.9088e-06 0)
(0.0163678 8.44064e-06 0)
(0.0162517 7.97923e-06 0)
(0.0161417 7.52392e-06 0)
(0.0160379 7.07415e-06 0)
(0.01594 6.62951e-06 0)
(0.0158483 6.18987e-06 0)
(0.0157625 5.75548e-06 0)
(0.0156828 5.32709e-06 0)
(0.0156091 4.90599e-06 0)
(0.0155414 4.49375e-06 0)
(0.0154795 4.09172e-06 0)
(0.0154235 3.69997e-06 0)
(0.0153734 3.31562e-06 0)
(0.015329 2.93094e-06 0)
(0.0152905 2.53104e-06 0)
(0.015258 2.09318e-06 0)
(0.0152317 1.59378e-06 0)
(0.015212 1.0397e-06 0)
(0.0151994 5.04119e-07 0)
(0.0151946 1.3636e-07 0)
(0.0151969 -3.65471e-07 0)
(0.0152041 -7.4849e-07 0)
(0.0152151 -1.09555e-06 0)
(0.0152287 -1.32932e-06 0)
(0.015244 -1.45897e-06 0)
(0.0152601 -1.52523e-06 0)
(0.0152765 -1.50389e-06 0)
(0.0152924 -1.40939e-06 0)
(0.0153074 -1.29104e-06 0)
(0.0153212 -1.16607e-06 0)
(0.0153337 -1.02941e-06 0)
(0.0153449 -8.87813e-07 0)
(0.0153548 -7.54475e-07 0)
(0.0153634 -6.36145e-07 0)
(0.0153709 -5.31427e-07 0)
(0.0153775 -4.38465e-07 0)
(0.0153832 -3.56486e-07 0)
(0.0153881 -2.94749e-07 0)
(0.0153922 -3.73417e-07 0)
(0.0154042 -1.46416e-06 0)
(0.189996 0.00961342 0)
(0.187732 0.010161 0)
(0.183893 0.00996879 0)
(0.178813 0.00948998 0)
(0.172973 0.00886298 0)
(0.166713 0.0081354 0)
(0.160251 0.00734706 0)
(0.153753 0.00653524 0)
(0.147355 0.00573177 0)
(0.141159 0.00496331 0)
(0.135236 0.0042511 0)
(0.129629 0.00361008 0)
(0.124362 0.00304851 0)
(0.119441 0.00256833 0)
(0.114863 0.00216626 0)
(0.110615 0.0018353 0)
(0.10668 0.00156626 0)
(0.103039 0.00134917 0)
(0.0996698 0.00117433 0)
(0.0965506 0.00103304 0)
(0.0936602 0.0009179 0)
(0.0909788 0.000822946 0)
(0.0884874 0.000743524 0)
(0.0861689 0.000676109 0)
(0.0840075 0.000618089 0)
(0.0819889 0.000567548 0)
(0.0801003 0.000523083 0)
(0.0783299 0.000483661 0)
(0.0766672 0.000448503 0)
(0.0751029 0.000417007 0)
(0.0736284 0.000388694 0)
(0.072236 0.000363168 0)
(0.070919 0.000340096 0)
(0.0696711 0.000319187 0)
(0.0684867 0.00030019 0)
(0.0673608 0.000282882 0)
(0.066289 0.000267065 0)
(0.0652672 0.000252566 0)
(0.0642918 0.00023923 0)
(0.0633596 0.000226921 0)
(0.0624677 0.00021552 0)
(0.0616134 0.000204921 0)
(0.0607945 0.000195032 0)
(0.0600088 0.000185772 0)
(0.0592545 0.000177072 0)
(0.05853 0.000168867 0)
(0.0578337 0.000161105 0)
(0.0571644 0.000153736 0)
(0.0565208 0.00014672 0)
(0.055902 0.000140018 0)
(0.055307 0.000133597 0)
(0.0547351 0.000127429 0)
(0.0541854 0.000121487 0)
(0.0536574 0.000115748 0)
(0.0531506 0.000110192 0)
(0.0526645 0.000104799 0)
(0.0521987 9.95545e-05 0)
(0.0517529 9.44426e-05 0)
(0.0513267 8.94509e-05 0)
(0.0509201 8.4568e-05 0)
(0.0505328 7.97839e-05 0)
(0.0501646 7.509e-05 0)
(0.0498155 7.04792e-05 0)
(0.0494854 6.59458e-05 0)
(0.0491742 6.14854e-05 0)
(0.0488819 5.70958e-05 0)
(0.0486085 5.27767e-05 0)
(0.0483539 4.85297e-05 0)
(0.048118 4.43584e-05 0)
(0.0479008 4.02664e-05 0)
(0.0477023 3.62558e-05 0)
(0.0475223 3.23239e-05 0)
(0.0473609 2.84588e-05 0)
(0.0472179 2.46358e-05 0)
(0.0470935 2.08147e-05 0)
(0.0469878 1.69399e-05 0)
(0.046901 1.29507e-05 0)
(0.0468332 8.81789e-06 0)
(0.0467844 4.59239e-06 0)
(0.0467543 4.86302e-07 0)
(0.0467438 -3.20066e-06 0)
(0.0467498 -5.65719e-06 0)
(0.0467672 -7.16591e-06 0)
(0.0467923 -8.03881e-06 0)
(0.0468224 -8.46719e-06 0)
(0.0468554 -8.6254e-06 0)
(0.0468895 -8.45925e-06 0)
(0.0469233 -7.99416e-06 0)
(0.0469558 -7.38876e-06 0)
(0.0469863 -6.72484e-06 0)
(0.0470145 -6.01193e-06 0)
(0.0470402 -5.28991e-06 0)
(0.0470635 -4.61427e-06 0)
(0.0470844 -4.01624e-06 0)
(0.0471032 -3.49655e-06 0)
(0.0471203 -3.05328e-06 0)
(0.0471358 -2.69582e-06 0)
(0.0471501 -2.48364e-06 0)
(0.0471636 -2.76926e-06 0)
(0.0471858 -4.91022e-06 0)
(0.193006 0.00916914 0)
(0.193752 0.0101552 0)
(0.193943 0.0105415 0)
(0.19341 0.0105995 0)
(0.19224 0.0104224 0)
(0.190532 0.0100454 0)
(0.188361 0.00951212 0)
(0.185804 0.00887246 0)
(0.182943 0.00817346 0)
(0.17986 0.00745573 0)
(0.176628 0.00675241 0)
(0.173309 0.00608814 0)
(0.169956 0.00547881 0)
(0.166609 0.00493225 0)
(0.163299 0.00444976 0)
(0.160047 0.00402803 0)
(0.15687 0.00366102 0)
(0.153777 0.00334148 0)
(0.150774 0.00306215 0)
(0.147864 0.0028164 0)
(0.145048 0.00259855 0)
(0.142327 0.00240399 0)
(0.139698 0.00222905 0)
(0.137162 0.00207084 0)
(0.134715 0.00192713 0)
(0.132356 0.00179617 0)
(0.130081 0.00167652 0)
(0.12789 0.00156704 0)
(0.125779 0.00146675 0)
(0.123745 0.00137479 0)
(0.121786 0.00129039 0)
(0.119898 0.00121289 0)
(0.11808 0.00114164 0)
(0.116328 0.00107608 0)
(0.11464 0.00101567 0)
(0.113013 0.00095994 0)
(0.111444 0.000908437 0)
(0.109931 0.000860755 0)
(0.108471 0.000816523 0)
(0.107062 0.000775403 0)
(0.105703 0.000737088 0)
(0.10439 0.000701303 0)
(0.103123 0.000667794 0)
(0.101898 0.000636336 0)
(0.100715 0.000606724 0)
(0.0995719 0.000578774 0)
(0.0984673 0.000552319 0)
(0.0973999 0.00052721 0)
(0.0963685 0.00050331 0)
(0.0953722 0.000480498 0)
(0.0944098 0.000458664 0)
(0.0934806 0.000437708 0)
(0.0925838 0.00041754 0)
(0.0917188 0.00039808 0)
(0.090885 0.000379255 0)
(0.0900819 0.000360999 0)
(0.0893093 0.000343252 0)
(0.0885667 0.000325963 0)
(0.0878539 0.000309085 0)
(0.0871708 0.000292576 0)
(0.0865172 0.0002764 0)
(0.0858931 0.000260527 0)
(0.0852984 0.000244931 0)
(0.0847333 0.00022959 0)
(0.0841977 0.00021449 0)
(0.0836916 0.00019962 0)
(0.0832152 0.000184976 0)
(0.0827686 0.000170559 0)
(0.0823518 0.000156373 0)
(0.0819649 0.000142424 0)
(0.0816078 0.000128714 0)
(0.0812807 0.000115237 0)
(0.0809836 0.000101977 0)
(0.0807164 8.89005e-05 0)
(0.0804792 7.59644e-05 0)
(0.0802718 6.31286e-05 0)
(0.080094 5.03797e-05 0)
(0.0799454 3.77603e-05 0)
(0.0798247 2.53856e-05 0)
(0.0797299 1.34173e-05 0)
(0.0796573 2.34511e-06 0)
(0.0796088 -7.2767e-06 0)
(0.0795877 -1.44275e-05 0)
(0.0795858 -1.86934e-05 0)
(0.0795976 -2.07671e-05 0)
(0.0796191 -2.1518e-05 0)
(0.079647 -2.13255e-05 0)
(0.0796785 -2.04334e-05 0)
(0.0797118 -1.91913e-05 0)
(0.0797454 -1.778e-05 0)
(0.0797784 -1.62268e-05 0)
(0.0798101 -1.46167e-05 0)
(0.0798401 -1.30717e-05 0)
(0.0798684 -1.16721e-05 0)
(0.0798949 -1.04386e-05 0)
(0.0799199 -9.38506e-06 0)
(0.0799435 -8.54483e-06 0)
(0.0799661 -8.02601e-06 0)
(0.0799875 -8.25341e-06 0)
(0.0800141 -9.94804e-06 0)
(0.194133 0.00849591 0)
(0.195128 0.00954895 0)
(0.196082 0.0101459 0)
(0.196787 0.0104377 0)
(0.197209 0.0104984 0)
(0.197347 0.0103581 0)
(0.19719 0.0100498 0)
(0.196735 0.00961426 0)
(0.195997 0.0090924 0)
(0.195004 0.00852162 0)
(0.193791 0.00793415 0)
(0.192396 0.00735594 0)
(0.190855 0.00680578 0)
(0.189203 0.00629547 0)
(0.187469 0.0058307 0)
(0.185678 0.00541247 0)
(0.183851 0.00503854 0)
(0.182002 0.00470483 0)
(0.180143 0.00440642 0)
(0.178281 0.00413836 0)
(0.176424 0.00389605 0)
(0.174576 0.00367553 0)
(0.17274 0.00347349 0)
(0.170919 0.00328726 0)
(0.169115 0.00311475 0)
(0.167331 0.00295429 0)
(0.165568 0.00280459 0)
(0.163826 0.0026646 0)
(0.162108 0.00253348 0)
(0.160415 0.00241052 0)
(0.158746 0.0022951 0)
(0.157104 0.00218667 0)
(0.155488 0.00208474 0)
(0.1539 0.00198884 0)
(0.152339 0.00189856 0)
(0.150806 0.00181348 0)
(0.1493 0.00173324 0)
(0.147823 0.00165747 0)
(0.146374 0.00158585 0)
(0.144953 0.00151806 0)
(0.14356 0.00145382 0)
(0.142195 0.00139283 0)
(0.140859 0.00133486 0)
(0.13955 0.00127965 0)
(0.13827 0.00122699 0)
(0.137017 0.00117667 0)
(0.135792 0.00112848 0)
(0.134595 0.00108226 0)
(0.133426 0.00103782 0)
(0.132285 0.000995018 0)
(0.131172 0.0009537 0)
(0.130087 0.000913732 0)
(0.12903 0.000874987 0)
(0.128001 0.000837349 0)
(0.127001 0.000800708 0)
(0.126029 0.000764967 0)
(0.125086 0.000730033 0)
(0.124173 0.000695825 0)
(0.123289 0.000662268 0)
(0.122435 0.000629294 0)
(0.121612 0.000596845 0)
(0.120819 0.00056487 0)
(0.120058 0.000533328 0)
(0.119328 0.000502183 0)
(0.11863 0.000471412 0)
(0.117965 0.000440999 0)
(0.117334 0.000410937 0)
(0.116735 0.00038123 0)
(0.116171 0.000351885 0)
(0.115642 0.000322916 0)
(0.115147 0.000294334 0)
(0.114687 0.000266144 0)
(0.114263 0.000238345 0)
(0.113875 0.000210927 0)
(0.113522 0.000183888 0)
(0.113205 0.000157256 0)
(0.112923 0.000131133 0)
(0.112676 0.000105747 0)
(0.112462 8.15026e-05 0)
(0.11228 5.89184e-05 0)
(0.112126 3.83167e-05 0)
(0.111998 1.97342e-05 0)
(0.111888 3.8949e-06 0)
(0.1118 -8.97269e-06 0)
(0.111739 -1.90544e-05 0)
(0.111702 -2.59215e-05 0)
(0.111683 -2.95856e-05 0)
(0.111676 -3.08021e-05 0)
(0.111679 -3.04789e-05 0)
(0.111689 -2.92885e-05 0)
(0.111704 -2.75689e-05 0)
(0.111723 -2.55813e-05 0)
(0.111744 -2.35704e-05 0)
(0.111766 -2.16915e-05 0)
(0.11179 -1.99902e-05 0)
(0.111814 -1.84975e-05 0)
(0.111838 -1.72678e-05 0)
(0.111863 -1.63975e-05 0)
(0.111887 -1.60945e-05 0)
(0.111914 -1.60835e-05 0)
(0.195007 0.00797657 0)
(0.195807 0.00893364 0)
(0.196702 0.00954825 0)
(0.197541 0.00990143 0)
(0.198278 0.010054 0)
(0.198893 0.0100343 0)
(0.199365 0.00986617 0)
(0.19967 0.00957883 0)
(0.199797 0.00920354 0)
(0.199748 0.00877024 0)
(0.199532 0.008306 0)
(0.199164 0.00783379 0)
(0.198665 0.00737159 0)
(0.198054 0.00693193 0)
(0.197351 0.00652234 0)
(0.196574 0.00614612 0)
(0.19574 0.00580345 0)
(0.194859 0.00549245 0)
(0.193941 0.00521011 0)
(0.192995 0.00495296 0)
(0.192025 0.00471759 0)
(0.191035 0.0045009 0)
(0.19003 0.00430024 0)
(0.18901 0.0041134 0)
(0.187978 0.00393865 0)
(0.186936 0.00377458 0)
(0.185885 0.0036201 0)
(0.184826 0.00347432 0)
(0.183762 0.00333652 0)
(0.182692 0.00320609 0)
(0.181619 0.0030825 0)
(0.180543 0.00296528 0)
(0.179465 0.002854 0)
(0.178386 0.00274825 0)
(0.177308 0.00264766 0)
(0.17623 0.00255187 0)
(0.175155 0.00246053 0)
(0.174082 0.00237333 0)
(0.173013 0.00228997 0)
(0.171948 0.00221015 0)
(0.170888 0.00213361 0)
(0.169833 0.00206009 0)
(0.168785 0.00198936 0)
(0.167745 0.00192118 0)
(0.166712 0.00185535 0)
(0.165688 0.00179166 0)
(0.164673 0.00172995 0)
(0.163668 0.00167002 0)
(0.162674 0.00161172 0)
(0.161692 0.0015549 0)
(0.160721 0.0014994 0)
(0.159764 0.00144511 0)
(0.158821 0.00139188 0)
(0.157893 0.0013396 0)
(0.15698 0.00128817 0)
(0.156083 0.00123749 0)
(0.155204 0.00118745 0)
(0.154343 0.00113797 0)
(0.153501 0.00108899 0)
(0.152679 0.00104042 0)
(0.151878 0.000992215 0)
(0.1511 0.000944322 0)
(0.150344 0.000896701 0)
(0.149612 0.000849324 0)
(0.148905 0.000802174 0)
(0.148224 0.000755245 0)
(0.147571 0.000708546 0)
(0.146945 0.000662093 0)
(0.146348 0.000615916 0)
(0.14578 0.000570047 0)
(0.145243 0.000524526 0)
(0.144737 0.00047939 0)
(0.144264 0.00043468 0)
(0.143823 0.000390446 0)
(0.143414 0.000346768 0)
(0.143039 0.000303784 0)
(0.142697 0.000261738 0)
(0.142387 0.000221019 0)
(0.142109 0.000182183 0)
(0.14186 0.000145917 0)
(0.141641 0.00011295 0)
(0.141447 8.39256e-05 0)
(0.141279 5.88645e-05 0)
(0.141133 3.71163e-05 0)
(0.141004 1.85119e-05 0)
(0.140889 3.59638e-06 0)
(0.140791 -7.76817e-06 0)
(0.140711 -1.63975e-05 0)
(0.140651 -2.26329e-05 0)
(0.140607 -2.65386e-05 0)
(0.140576 -2.85147e-05 0)
(0.140554 -2.90949e-05 0)
(0.140542 -2.88125e-05 0)
(0.140536 -2.81011e-05 0)
(0.140536 -2.72153e-05 0)
(0.140541 -2.63159e-05 0)
(0.14055 -2.55255e-05 0)
(0.140562 -2.49109e-05 0)
(0.140577 -2.43676e-05 0)
(0.140594 -2.26043e-05 0)
(0.19579 0.00753762 0)
(0.196391 0.00836368 0)
(0.197105 0.00894593 0)
(0.197833 0.00931598 0)
(0.198526 0.0095131 0)
(0.199162 0.00956074 0)
(0.199722 0.00947764 0)
(0.200188 0.00928597 0)
(0.200546 0.0090105 0)
(0.200793 0.00867576 0)
(0.200928 0.00830438 0)
(0.20096 0.00791611 0)
(0.200898 0.00752699 0)
(0.200754 0.00714897 0)
(0.200542 0.00678998 0)
(0.200272 0.00645449 0)
(0.199957 0.00614416 0)
(0.199605 0.00585873 0)
(0.199222 0.00559669 0)
(0.198815 0.00535588 0)
(0.198388 0.00513394 0)
(0.197942 0.00492855 0)
(0.197481 0.00473764 0)
(0.197005 0.00455939 0)
(0.196516 0.0043923 0)
(0.196014 0.00423512 0)
(0.195499 0.00408684 0)
(0.194973 0.00394663 0)
(0.194435 0.00381378 0)
(0.193886 0.00368769 0)
(0.193327 0.00356786 0)
(0.192758 0.00345382 0)
(0.192179 0.00334515 0)
(0.191591 0.00324147 0)
(0.190994 0.0031424 0)
(0.190389 0.00304761 0)
(0.189776 0.00295678 0)
(0.189155 0.00286959 0)
(0.188528 0.00278575 0)
(0.187895 0.002705 0)
(0.187255 0.00262707 0)
(0.186611 0.00255171 0)
(0.185961 0.00247868 0)
(0.185308 0.00240778 0)
(0.184651 0.00233879 0)
(0.18399 0.00227151 0)
(0.183328 0.00220576 0)
(0.182663 0.00214137 0)
(0.181998 0.00207816 0)
(0.181332 0.00201599 0)
(0.180667 0.0019547 0)
(0.180003 0.00189416 0)
(0.179341 0.00183423 0)
(0.178682 0.00177481 0)
(0.178026 0.00171576 0)
(0.177376 0.00165699 0)
(0.17673 0.0015984 0)
(0.176092 0.00153991 0)
(0.175461 0.00148144 0)
(0.174838 0.00142291 0)
(0.174225 0.00136428 0)
(0.173623 0.00130549 0)
(0.173032 0.00124652 0)
(0.172455 0.00118734 0)
(0.171891 0.00112795 0)
(0.171343 0.00106837 0)
(0.17081 0.0010086 0)
(0.170295 0.0009487 0)
(0.169799 0.000888715 0)
(0.169322 0.000828712 0)
(0.168866 0.000768764 0)
(0.168431 0.000708957 0)
(0.168018 0.000649392 0)
(0.167628 0.000590197 0)
(0.167262 0.000531553 0)
(0.16692 0.000473722 0)
(0.166602 0.000417088 0)
(0.166308 0.000362186 0)
(0.166037 0.000309697 0)
(0.165789 0.000260402 0)
(0.165564 0.000215066 0)
(0.165359 0.000174279 0)
(0.165175 0.000138268 0)
(0.16501 0.000107158 0)
(0.164862 8.09793e-05 0)
(0.164731 5.9273e-05 0)
(0.164614 4.11993e-05 0)
(0.164509 2.60225e-05 0)
(0.164414 1.3538e-05 0)
(0.164329 3.7039e-06 0)
(0.164254 -3.94365e-06 0)
(0.16419 -9.99108e-06 0)
(0.164138 -1.47832e-05 0)
(0.164096 -1.84536e-05 0)
(0.164062 -2.11838e-05 0)
(0.164037 -2.32208e-05 0)
(0.164019 -2.48066e-05 0)
(0.164006 -2.60747e-05 0)
(0.163999 -2.68091e-05 0)
(0.163996 -2.54274e-05 0)
(0.196501 0.00717586 0)
(0.19695 0.00787932 0)
(0.197499 0.00841312 0)
(0.198085 0.00877999 0)
(0.198663 0.00899944 0)
(0.199212 0.00908833 0)
(0.199714 0.00906166 0)
(0.200155 0.00893678 0)
(0.200524 0.00873341 0)
(0.200815 0.00847162 0)
(0.20103 0.00817032 0)
(0.201172 0.00784637 0)
(0.201246 0.0075139 0)
(0.201263 0.007184 0)
(0.20123 0.00686461 0)
(0.201158 0.00656086 0)
(0.201053 0.00627552 0)
(0.200924 0.00600955 0)
(0.200775 0.00576268 0)
(0.200611 0.00553386 0)
(0.200435 0.00532164 0)
(0.20025 0.00512441 0)
(0.200057 0.00494063 0)
(0.199856 0.00476885 0)
(0.199649 0.0046078 0)
(0.199435 0.00445639 0)
(0.199215 0.00431368 0)
(0.198988 0.00417889 0)
(0.198755 0.00405132 0)
(0.198515 0.00393039 0)
(0.198269 0.00381558 0)
(0.198016 0.00370642 0)
(0.197755 0.00360247 0)
(0.197488 0.00350333 0)
(0.197214 0.00340864 0)
(0.196933 0.00331803 0)
(0.196646 0.00323117 0)
(0.196351 0.00314776 0)
(0.19605 0.00306747 0)
(0.195742 0.00299003 0)
(0.195427 0.00291516 0)
(0.195106 0.00284261 0)
(0.194779 0.00277212 0)
(0.194445 0.00270347 0)
(0.194106 0.00263642 0)
(0.193761 0.00257077 0)
(0.193411 0.00250632 0)
(0.193056 0.00244288 0)
(0.192696 0.00238027 0)
(0.192332 0.00231831 0)
(0.191964 0.00225685 0)
(0.191592 0.00219573 0)
(0.191218 0.00213481 0)
(0.190841 0.00207395 0)
(0.190462 0.00201303 0)
(0.190081 0.00195193 0)
(0.1897 0.00189054 0)
(0.189319 0.00182877 0)
(0.188939 0.00176652 0)
(0.18856 0.00170372 0)
(0.188183 0.00164031 0)
(0.187809 0.00157624 0)
(0.187439 0.00151147 0)
(0.187073 0.00144598 0)
(0.186713 0.00137978 0)
(0.18636 0.00131288 0)
(0.186013 0.00124531 0)
(0.185675 0.00117714 0)
(0.185345 0.00110842 0)
(0.185026 0.00103925 0)
(0.184717 0.000969748 0)
(0.18442 0.000900033 0)
(0.184135 0.000830269 0)
(0.183863 0.00076066 0)
(0.183605 0.000691477 0)
(0.18336 0.00062309 0)
(0.183129 0.000555991 0)
(0.182912 0.000490815 0)
(0.182709 0.000428321 0)
(0.182519 0.00036933 0)
(0.182344 0.000314621 0)
(0.182181 0.000264802 0)
(0.182032 0.000220211 0)
(0.181895 0.000180974 0)
(0.181771 0.000146985 0)
(0.181658 0.000117899 0)
(0.181556 9.33342e-05 0)
(0.181464 7.29448e-05 0)
(0.181382 5.62036e-05 0)
(0.181308 4.2394e-05 0)
(0.181242 3.08369e-05 0)
(0.181182 2.0958e-05 0)
(0.181127 1.2434e-05 0)
(0.181077 5.11083e-06 0)
(0.181032 -1.2376e-06 0)
(0.180993 -6.82386e-06 0)
(0.180961 -1.17178e-05 0)
(0.180934 -1.59125e-05 0)
(0.180912 -1.92438e-05 0)
(0.180892 -2.08619e-05 0)
(0.197152 0.00687941 0)
(0.197485 0.00747759 0)
(0.197899 0.0079567 0)
(0.198352 0.00830735 0)
(0.198813 0.00853572 0)
(0.199259 0.00865193 0)
(0.199675 0.00866707 0)
(0.200048 0.00859423 0)
(0.20037 0.00844856 0)
(0.200635 0.00824604 0)
(0.200844 0.00800221 0)
(0.200997 0.00773133 0)
(0.2011 0.00744577 0)
(0.201159 0.00715569 0)
(0.20118 0.00686886 0)
(0.201171 0.00659082 0)
(0.201139 0.00632512 0)
(0.201088 0.00607371 0)
(0.201024 0.00583736 0)
(0.20095 0.00561598 0)
(0.20087 0.00540897 0)
(0.200786 0.00521543 0)
(0.200698 0.00503434 0)
(0.200608 0.00486466 0)
(0.200517 0.00470542 0)
(0.200425 0.0045557 0)
(0.200331 0.0044147 0)
(0.200235 0.00428171 0)
(0.200139 0.00415607 0)
(0.20004 0.00403721 0)
(0.19994 0.00392461 0)
(0.199837 0.00381778 0)
(0.199733 0.00371629 0)
(0.199625 0.00361972 0)
(0.199515 0.00352767 0)
(0.199403 0.00343978 0)
(0.199287 0.0033557 0)
(0.199168 0.00327509 0)
(0.199046 0.00319763 0)
(0.19892 0.00312301 0)
(0.198791 0.00305096 0)
(0.198659 0.00298119 0)
(0.198523 0.00291344 0)
(0.198383 0.00284745 0)
(0.198239 0.00278299 0)
(0.198092 0.00271982 0)
(0.197941 0.00265774 0)
(0.197786 0.00259653 0)
(0.197628 0.00253599 0)
(0.197466 0.00247593 0)
(0.197301 0.00241618 0)
(0.197133 0.00235656 0)
(0.196962 0.00229691 0)
(0.196787 0.00223708 0)
(0.19661 0.00217692 0)
(0.196431 0.00211631 0)
(0.196249 0.0020551 0)
(0.196066 0.00199319 0)
(0.195881 0.00193049 0)
(0.195695 0.00186689 0)
(0.195508 0.00180233 0)
(0.195321 0.00173673 0)
(0.195134 0.00167007 0)
(0.194948 0.00160231 0)
(0.194763 0.00153345 0)
(0.194579 0.0014635 0)
(0.194398 0.0013925 0)
(0.194219 0.0013205 0)
(0.194043 0.0012476 0)
(0.193871 0.00117389 0)
(0.193703 0.0010995 0)
(0.19354 0.00102462 0)
(0.193382 0.00094943 0)
(0.19323 0.000874205 0)
(0.193083 0.000799279 0)
(0.192942 0.000725091 0)
(0.192808 0.000652196 0)
(0.19268 0.000581274 0)
(0.192558 0.000513102 0)
(0.192442 0.000448495 0)
(0.192333 0.000388217 0)
(0.19223 0.000332874 0)
(0.192135 0.00028284 0)
(0.192046 0.000238271 0)
(0.191964 0.000199127 0)
(0.191889 0.000165171 0)
(0.191821 0.000136039 0)
(0.191759 0.000111273 0)
(0.191703 9.03137e-05 0)
(0.191653 7.25953e-05 0)
(0.191608 5.76544e-05 0)
(0.191568 4.50809e-05 0)
(0.191532 3.44308e-05 0)
(0.1915 2.52209e-05 0)
(0.191471 1.70367e-05 0)
(0.191445 9.60993e-06 0)
(0.19142 2.8422e-06 0)
(0.191399 -3.26353e-06 0)
(0.19138 -8.65286e-06 0)
(0.191361 -1.33762e-05 0)
(0.19772 0.00664537 0)
(0.197967 0.00716148 0)
(0.198274 0.00759105 0)
(0.198618 0.00792154 0)
(0.198975 0.0081517 0)
(0.199326 0.00828609 0)
(0.199658 0.00833202 0)
(0.199961 0.00829898 0)
(0.200227 0.00819842 0)
(0.200451 0.00804293 0)
(0.200632 0.00784522 0)
(0.200771 0.00761736 0)
(0.20087 0.00737017 0)
(0.200935 0.00711291 0)
(0.20097 0.00685308 0)
(0.200981 0.00659637 0)
(0.200972 0.00634686 0)
(0.200948 0.00610723 0)
(0.200914 0.00587903 0)
(0.200873 0.00566296 0)
(0.200826 0.00545913 0)
(0.200777 0.00526724 0)
(0.200727 0.00508677 0)
(0.200676 0.00491704 0)
(0.200625 0.00475737 0)
(0.200575 0.00460706 0)
(0.200526 0.00446542 0)
(0.200477 0.00433182 0)
(0.200429 0.00420569 0)
(0.200381 0.00408646 0)
(0.200335 0.00397363 0)
(0.200288 0.00386673 0)
(0.200242 0.00376532 0)
(0.200195 0.00366896 0)
(0.200149 0.00357728 0)
(0.200102 0.00348988 0)
(0.200055 0.00340641 0)
(0.200007 0.00332653 0)
(0.199959 0.00324991 0)
(0.19991 0.00317623 0)
(0.199859 0.00310519 0)
(0.199808 0.00303651 0)
(0.199755 0.00296991 0)
(0.199701 0.00290513 0)
(0.199646 0.00284192 0)
(0.199589 0.00278004 0)
(0.199531 0.00271926 0)
(0.199471 0.00265935 0)
(0.19941 0.0026001 0)
(0.199347 0.00254132 0)
(0.199282 0.00248281 0)
(0.199215 0.00242438 0)
(0.199147 0.00236587 0)
(0.199077 0.00230709 0)
(0.199005 0.0022479 0)
(0.198932 0.00218814 0)
(0.198858 0.00212768 0)
(0.198782 0.00206639 0)
(0.198705 0.00200416 0)
(0.198626 0.00194089 0)
(0.198547 0.00187648 0)
(0.198467 0.00181087 0)
(0.198386 0.00174401 0)
(0.198305 0.00167586 0)
(0.198223 0.0016064 0)
(0.198142 0.00153565 0)
(0.19806 0.00146364 0)
(0.197979 0.00139043 0)
(0.197899 0.0013161 0)
(0.197819 0.00124077 0)
(0.197741 0.00116459 0)
(0.197664 0.00108774 0)
(0.197589 0.00101046 0)
(0.197515 0.000933042 0)
(0.197443 0.000855867 0)
(0.197373 0.000779402 0)
(0.197305 0.000704225 0)
(0.197238 0.000631016 0)
(0.197174 0.000560532 0)
(0.197112 0.00049355 0)
(0.197052 0.000430795 0)
(0.196995 0.000372851 0)
(0.196941 0.000320109 0)
(0.19689 0.000272756 0)
(0.196842 0.000230787 0)
(0.196798 0.000194013 0)
(0.196758 0.000162107 0)
(0.196722 0.000134663 0)
(0.196689 0.000111198 0)
(0.19666 9.12022e-05 0)
(0.196634 7.41779e-05 0)
(0.196611 5.96518e-05 0)
(0.196591 4.71699e-05 0)
(0.196573 3.6336e-05 0)
(0.196557 2.68519e-05 0)
(0.196543 1.84654e-05 0)
(0.196531 1.09236e-05 0)
(0.19652 4.04294e-06 0)
(0.19651 -2.29015e-06 0)
(0.196499 -8.47792e-06 0)
(0.198284 0.00645779 0)
(0.198458 0.00690652 0)
(0.198674 0.00728998 0)
(0.198918 0.00759653 0)
(0.199176 0.0078216 0)
(0.199435 0.00796589 0)
(0.199682 0.00803343 0)
(0.19991 0.0080307 0)
(0.200113 0.00796611 0)
(0.200287 0.00784933 0)
(0.200431 0.00769054 0)
(0.200544 0.00749975 0)
(0.200628 0.00728632 0)
(0.200686 0.00705853 0)
(0.200721 0.00682341 0)
(0.200738 0.00658664 0)
(0.200739 0.00635258 0)
(0.200728 0.0061244 0)
(0.200709 0.00590428 0)
(0.200683 0.00569355 0)
(0.200654 0.00549293 0)
(0.200622 0.00530265 0)
(0.200589 0.00512263 0)
(0.200556 0.00495259 0)
(0.200524 0.00479211 0)
(0.200492 0.00464069 0)
(0.200462 0.0044978 0)
(0.200432 0.00436291 0)
(0.200404 0.00423552 0)
(0.200377 0.0041151 0)
(0.200352 0.00400118 0)
(0.200327 0.00389331 0)
(0.200304 0.00379103 0)
(0.200281 0.00369394 0)
(0.200259 0.00360164 0)
(0.200238 0.00351373 0)
(0.200218 0.00342987 0)
(0.200199 0.0033497 0)
(0.200179 0.00327289 0)
(0.200161 0.00319911 0)
(0.200142 0.00312807 0)
(0.200124 0.00305947 0)
(0.200106 0.00299303 0)
(0.200088 0.00292848 0)
(0.20007 0.00286557 0)
(0.200051 0.00280404 0)
(0.200033 0.00274366 0)
(0.200015 0.0026842 0)
(0.199996 0.00262544 0)
(0.199977 0.00256718 0)
(0.199957 0.00250921 0)
(0.199937 0.00245134 0)
(0.199917 0.00239339 0)
(0.199896 0.00233518 0)
(0.199875 0.00227654 0)
(0.199853 0.00221733 0)
(0.199831 0.0021574 0)
(0.199808 0.00209661 0)
(0.199785 0.00203483 0)
(0.199761 0.00197197 0)
(0.199736 0.00190793 0)
(0.199712 0.00184263 0)
(0.199686 0.001776 0)
(0.19966 0.00170802 0)
(0.199634 0.00163866 0)
(0.199608 0.00156793 0)
(0.199581 0.00149585 0)
(0.199554 0.00142249 0)
(0.199526 0.00134793 0)
(0.199499 0.00127228 0)
(0.199471 0.00119572 0)
(0.199443 0.00111844 0)
(0.199416 0.00104068 0)
(0.199388 0.000962776 0)
(0.19936 0.000885108 0)
(0.199332 0.00080816 0)
(0.199303 0.000732504 0)
(0.199275 0.000658796 0)
(0.199246 0.00058775 0)
(0.199218 0.000520091 0)
(0.199189 0.000456491 0)
(0.199161 0.000397504 0)
(0.199134 0.000343518 0)
(0.199108 0.000294739 0)
(0.199084 0.000251195 0)
(0.199061 0.000212747 0)
(0.19904 0.000179125 0)
(0.19902 0.000149963 0)
(0.199003 0.00012482 0)
(0.198988 0.000103216 0)
(0.198974 8.46767e-05 0)
(0.198963 6.87542e-05 0)
(0.198953 5.50287e-05 0)
(0.198944 4.31196e-05 0)
(0.198936 3.27036e-05 0)
(0.19893 2.35063e-05 0)
(0.198925 1.52946e-05 0)
(0.19892 7.8743e-06 0)
(0.198916 1.05429e-06 0)
(0.198911 -5.46484e-06 0)
(0.198887 0.00629173 0)
(0.198989 0.00668605 0)
(0.199117 0.00703005 0)
(0.199263 0.00731397 0)
(0.199419 0.00753204 0)
(0.199578 0.00768251 0)
(0.199732 0.00776688 0)
(0.199877 0.00778908 0)
(0.200007 0.00775493 0)
(0.200121 0.00767162 0)
(0.200217 0.00754709 0)
(0.200294 0.0073895 0)
(0.200354 0.00720678 0)
(0.200398 0.00700625 0)
(0.200426 0.00679441 0)
(0.200443 0.00657678 0)
(0.200449 0.00635784 0)
(0.200447 0.00614112 0)
(0.200439 0.00592925 0)
(0.200426 0.00572409 0)
(0.200411 0.00552687 0)
(0.200393 0.00533832 0)
(0.200374 0.00515879 0)
(0.200355 0.00498832 0)
(0.200337 0.00482679 0)
(0.200318 0.00467391 0)
(0.2003 0.00452933 0)
(0.200283 0.00439264 0)
(0.200267 0.00426339 0)
(0.200252 0.00414114 0)
(0.200238 0.00402545 0)
(0.200225 0.00391587 0)
(0.200212 0.00381199 0)
(0.2002 0.00371339 0)
(0.20019 0.00361968 0)
(0.200179 0.00353046 0)
(0.20017 0.00344539 0)
(0.200161 0.00336411 0)
(0.200153 0.00328628 0)
(0.200145 0.00321157 0)
(0.200138 0.00313969 0)
(0.200132 0.00307032 0)
(0.200125 0.0030032 0)
(0.20012 0.00293804 0)
(0.200114 0.00287459 0)
(0.200109 0.00281258 0)
(0.200104 0.00275179 0)
(0.2001 0.00269198 0)
(0.200095 0.00263293 0)
(0.200091 0.00257442 0)
(0.200087 0.00251626 0)
(0.200083 0.00245824 0)
(0.200079 0.00240017 0)
(0.200075 0.0023419 0)
(0.200072 0.00228323 0)
(0.200068 0.00222402 0)
(0.200064 0.00216411 0)
(0.200061 0.00210338 0)
(0.200057 0.00204169 0)
(0.200053 0.00197894 0)
(0.200049 0.00191502 0)
(0.200045 0.00184986 0)
(0.200041 0.0017834 0)
(0.200037 0.00171559 0)
(0.200032 0.00164641 0)
(0.200027 0.00157588 0)
(0.200023 0.001504 0)
(0.200017 0.00143086 0)
(0.200012 0.00135652 0)
(0.200007 0.00128112 0)
(0.200001 0.00120482 0)
(0.199995 0.00112783 0)
(0.199988 0.00105042 0)
(0.199981 0.000972895 0)
(0.199973 0.000895667 0)
(0.199965 0.000819209 0)
(0.199957 0.000744072 0)
(0.199947 0.000670876 0)
(0.199937 0.000600284 0)
(0.199927 0.000532958 0)
(0.199916 0.000469516 0)
(0.199905 0.000410471 0)
(0.199893 0.0003562 0)
(0.199883 0.000306917 0)
(0.199872 0.000262676 0)
(0.199862 0.00022338 0)
(0.199853 0.000188804 0)
(0.199845 0.000158625 0)
(0.199837 0.000132447 0)
(0.199831 0.000109834 0)
(0.199825 9.03431e-05 0)
(0.199821 7.35416e-05 0)
(0.199817 5.90207e-05 0)
(0.199813 4.64072e-05 0)
(0.199811 3.53798e-05 0)
(0.199809 2.56695e-05 0)
(0.199807 1.70497e-05 0)
(0.199806 9.3284e-06 0)
(0.199805 2.33794e-06 0)
(0.199804 -4.02593e-06 0)
(0.199518 0.00621031 0)
(0.199546 0.00657014 0)
(0.199583 0.00688665 0)
(0.199627 0.0071516 0)
(0.199677 0.00735937 0)
(0.19973 0.00750743 0)
(0.199782 0.00759616 0)
(0.199834 0.00762823 0)
(0.199882 0.00760812 0)
(0.199925 0.00754164 0)
(0.199964 0.00743541 0)
(0.199996 0.00729644 0)
(0.200024 0.0071317 0)
(0.200045 0.00694783 0)
(0.200062 0.00675084 0)
(0.200075 0.00654598 0)
(0.200083 0.0063377 0)
(0.200089 0.00612958 0)
(0.200092 0.00592443 0)
(0.200093 0.00572436 0)
(0.200093 0.00553085 0)
(0.200091 0.00534488 0)
(0.200089 0.00516704 0)
(0.200086 0.00499758 0)
(0.200083 0.00483653 0)
(0.20008 0.00468378 0)
(0.200077 0.00453905 0)
(0.200074 0.00440204 0)
(0.200071 0.00427235 0)
(0.200069 0.00414959 0)
(0.200066 0.00403335 0)
(0.200064 0.00392321 0)
(0.200061 0.00381875 0)
(0.200059 0.00371959 0)
(0.200057 0.00362532 0)
(0.200056 0.00353558 0)
(0.200054 0.00345 0)
(0.200053 0.00336823 0)
(0.200051 0.00328993 0)
(0.20005 0.00321479 0)
(0.200049 0.00314249 0)
(0.200049 0.00307274 0)
(0.200048 0.00300524 0)
(0.200048 0.00293974 0)
(0.200047 0.00287596 0)
(0.200047 0.00281366 0)
(0.200047 0.00275259 0)
(0.200047 0.00269252 0)
(0.200047 0.00263323 0)
(0.200047 0.0025745 0)
(0.200048 0.00251613 0)
(0.200048 0.00245793 0)
(0.200049 0.00239971 0)
(0.200049 0.00234128 0)
(0.20005 0.00228248 0)
(0.20005 0.00222316 0)
(0.200051 0.00216317 0)
(0.200052 0.00210236 0)
(0.200053 0.00204062 0)
(0.200054 0.00197783 0)
(0.200054 0.0019139 0)
(0.200055 0.00184875 0)
(0.200056 0.00178232 0)
(0.200057 0.00171457 0)
(0.200058 0.00164548 0)
(0.200058 0.00157505 0)
(0.200059 0.00150331 0)
(0.20006 0.00143033 0)
(0.20006 0.00135619 0)
(0.200061 0.00128103 0)
(0.200061 0.00120501 0)
(0.200061 0.00112835 0)
(0.200061 0.00105131 0)
(0.200061 0.000974238 0)
(0.20006 0.000897517 0)
(0.20006 0.000821619 0)
(0.200059 0.000747081 0)
(0.200057 0.000674495 0)
(0.200055 0.000604485 0)
(0.200053 0.00053767 0)
(0.200051 0.000474627 0)
(0.200048 0.000415838 0)
(0.200046 0.000361665 0)
(0.200043 0.000312324 0)
(0.20004 0.00026788 0)
(0.200038 0.000228259 0)
(0.200036 0.000193266 0)
(0.200033 0.000162606 0)
(0.200031 0.000135913 0)
(0.20003 0.000112779 0)