/*--------------------------------*- C++ -*----------------------------------*\
| =========                 |                                                 |
| \\      /  F ield         | OpenFOAM: The Open Source CFD Toolbox           |
|  \\    /   O peration     | Version:  2.3.0                                 |
|   \\  /    A nd           | Web:      www.OpenFOAM.org                      |
|    \\/     M anipulation  |                                                 |
\*---------------------------------------------------------------------------*/
FoamFile
{
    version     2.0;
    format      ascii;
    class       volVectorField;
    location    "0.4";
    object      U_0;
}
// * * * * * * * * * * * * * * * * * * * * * * * * * * * * * * * * * * * * * //

dimensions      [0 1 -1 0 0 0 0];

internalField   nonuniform List<vector> 
1500
(
(0.170767 0.00605141 0)
(0.154006 0.00612531 0)
(0.13788 0.00570323 0)
(0.12259 0.00509457 0)
(0.10856 0.00441768 0)
(0.0959676 0.00372755 0)
(0.0848343 0.00306301 0)
(0.0751314 0.00245154 0)
(0.0668045 0.00191039 0)
(0.0597667 0.00144874 0)
(0.0538987 0.00106908 0)
(0.0490597 0.000768137 0)
(0.0450994 0.000538142 0)
(0.0418696 0.000368643 0)
(0.0392318 0.000248241 0)
(0.0370636 0.00016595 0)
(0.0352615 0.000112027 0)
(0.033741 7.83548e-05 0)
(0.0324359 5.85045e-05 0)
(0.0312961 4.76142e-05 0)
(0.030284 4.21772e-05 0)
(0.0293726 3.97911e-05 0)
(0.0285423 3.89042e-05 0)
(0.0277793 3.85836e-05 0)
(0.0270735 3.83205e-05 0)
(0.0264174 3.78776e-05 0)
(0.0258053 3.71797e-05 0)
(0.0252329 3.62374e-05 0)
(0.0246962 3.51008e-05 0)
(0.0241921 3.38307e-05 0)
(0.0237178 3.24847e-05 0)
(0.0232707 3.11104e-05 0)
(0.0228484 2.9744e-05 0)
(0.022449 2.84106e-05 0)
(0.0220705 2.71264e-05 0)
(0.0217112 2.59007e-05 0)
(0.0213695 2.47376e-05 0)
(0.0210441 2.36377e-05 0)
(0.0207338 2.25993e-05 0)
(0.0204374 2.16191e-05 0)
(0.020154 2.06933e-05 0)
(0.0198826 1.98176e-05 0)
(0.0196225 1.89877e-05 0)
(0.0193731 1.81994e-05 0)
(0.0191337 1.74488e-05 0)
(0.0189038 1.67322e-05 0)
(0.0186829 1.60463e-05 0)
(0.0184706 1.5388e-05 0)
(0.0182665 1.47547e-05 0)
(0.0180704 1.41438e-05 0)
(0.0178818 1.35532e-05 0)
(0.0177006 1.29809e-05 0)
(0.0175266 1.24251e-05 0)
(0.0173595 1.18842e-05 0)
(0.0171992 1.13568e-05 0)
(0.0170456 1.08417e-05 0)
(0.0168985 1.03376e-05 0)
(0.0167578 9.84349e-06 0)
(0.0166234 9.35848e-06 0)
(0.0164954 8.88171e-06 0)
(0.0163735 8.41238e-06 0)
(0.0162579 7.94977e-06 0)
(0.0161483 7.49323e-06 0)
(0.0160449 7.04222e-06 0)
(0.0159476 6.59635e-06 0)
(0.0158563 6.15553e-06 0)
(0.0157711 5.72007e-06 0)
(0.0156919 5.29082e-06 0)
(0.0156188 4.8691e-06 0)
(0.0155516 4.45654e-06 0)
(0.0154903 4.05437e-06 0)
(0.015435 3.66235e-06 0)
(0.0153854 3.27703e-06 0)
(0.0153417 2.88966e-06 0)
(0.0153039 2.48405e-06 0)
(0.0152721 2.03632e-06 0)
(0.0152467 1.52446e-06 0)
(0.0152279 9.64524e-07 0)
(0.0152163 4.34838e-07 0)
(0.0152127 5.76989e-08 0)
(0.0152158 -4.22404e-07 0)
(0.0152237 -8.08048e-07 0)
(0.0152351 -1.14587e-06 0)
(0.0152491 -1.36239e-06 0)
(0.0152647 -1.48339e-06 0)
(0.0152811 -1.53945e-06 0)
(0.0152975 -1.50419e-06 0)
(0.0153134 -1.40325e-06 0)
(0.0153283 -1.28375e-06 0)
(0.0153421 -1.15636e-06 0)
(0.0153545 -1.01711e-06 0)
(0.0153656 -8.75042e-07 0)
(0.0153753 -7.43142e-07 0)
(0.0153839 -6.26452e-07 0)
(0.0153913 -5.23079e-07 0)
(0.0153977 -4.31849e-07 0)
(0.0154034 -3.51943e-07 0)
(0.0154083 -2.92445e-07 0)
(0.0154123 -3.74926e-07 0)
(0.0154245 -1.48327e-06 0)
(0.189996 0.00961342 0)
(0.187732 0.010161 0)
(0.183893 0.00996879 0)
(0.178813 0.00948998 0)
(0.172973 0.00886298 0)
(0.166713 0.0081354 0)
(0.160251 0.00734706 0)
(0.153753 0.00653523 0)
(0.147355 0.00573177 0)
(0.141159 0.00496331 0)
(0.135236 0.00425109 0)
(0.129629 0.00361007 0)
(0.124362 0.0030485 0)
(0.119441 0.00256832 0)
(0.114863 0.00216626 0)
(0.110615 0.00183529 0)
(0.106681 0.00156625 0)
(0.103039 0.00134916 0)
(0.0996701 0.00117432 0)
(0.0965508 0.00103302 0)
(0.0936606 0.000917885 0)
(0.0909791 0.00082293 0)
(0.0884878 0.000743506 0)
(0.0861694 0.000676089 0)
(0.084008 0.000618067 0)
(0.0819895 0.000567524 0)
(0.0801009 0.000523057 0)
(0.0783306 0.000483632 0)
(0.076668 0.000448472 0)
(0.0751038 0.000416973 0)
(0.0736294 0.000388657 0)
(0.0722372 0.000363128 0)
(0.0709202 0.000340052 0)
(0.0696724 0.00031914 0)
(0.0684882 0.000300139 0)
(0.0673625 0.000282826 0)
(0.0662909 0.000267005 0)
(0.0652693 0.000252501 0)
(0.0642941 0.00023916 0)
(0.0633622 0.000226845 0)
(0.0624705 0.000215438 0)
(0.0616165 0.000204833 0)
(0.0607979 0.000194937 0)
(0.0600125 0.000185671 0)
(0.0592586 0.000176963 0)
(0.0585345 0.000168751 0)
(0.0578387 0.00016098 0)
(0.0571698 0.000153603 0)
(0.0565268 0.000146578 0)
(0.0559085 0.000139867 0)
(0.0553141 0.000133436 0)
(0.0547428 0.000127258 0)
(0.0541938 0.000121306 0)
(0.0536666 0.000115556 0)
(0.0531606 0.000109988 0)
(0.0526753 0.000104585 0)
(0.0522104 9.93279e-05 0)
(0.0517656 9.42041e-05 0)
(0.0513405 8.92002e-05 0)
(0.050935 8.43049e-05 0)
(0.0505488 7.95082e-05 0)
(0.0501819 7.48018e-05 0)
(0.0498341 7.01784e-05 0)
(0.0495054 6.56324e-05 0)
(0.0491956 6.11598e-05 0)
(0.0489049 5.67584e-05 0)
(0.048633 5.24281e-05 0)
(0.04838 4.81709e-05 0)
(0.0481459 4.39903e-05 0)
(0.0479305 3.98899e-05 0)
(0.0477338 3.58714e-05 0)
(0.0475557 3.19308e-05 0)
(0.0473963 2.80545e-05 0)
(0.0472554 2.42154e-05 0)
(0.0471332 2.03704e-05 0)
(0.0470297 1.64615e-05 0)
(0.0469452 1.24285e-05 0)
(0.0468799 8.25155e-06 0)
(0.0468337 3.99128e-06 0)
(0.0468062 -1.18891e-07 0)
(0.0467986 -3.67249e-06 0)
(0.0468066 -5.97075e-06 0)
(0.0468254 -7.38724e-06 0)
(0.0468516 -8.18479e-06 0)
(0.0468825 -8.57272e-06 0)
(0.046916 -8.69189e-06 0)
(0.0469504 -8.47267e-06 0)
(0.0469843 -7.975e-06 0)
(0.0470168 -7.35638e-06 0)
(0.0470472 -6.67906e-06 0)
(0.0470753 -5.95507e-06 0)
(0.0471008 -5.23094e-06 0)
(0.0471239 -4.56114e-06 0)
(0.0471447 -3.97081e-06 0)
(0.0471634 -3.45829e-06 0)
(0.0471803 -3.02354e-06 0)
(0.0471957 -2.67604e-06 0)
(0.04721 -2.47539e-06 0)
(0.0472235 -2.77943e-06 0)
(0.0472458 -4.96915e-06 0)
(0.193006 0.00916914 0)
(0.193752 0.0101552 0)
(0.193943 0.0105415 0)
(0.19341 0.0105995 0)
(0.19224 0.0104224 0)
(0.190532 0.0100454 0)
(0.188361 0.00951211 0)
(0.185804 0.00887246 0)
(0.182943 0.00817345 0)
(0.17986 0.00745572 0)
(0.176628 0.0067524 0)
(0.17331 0.00608813 0)
(0.169956 0.0054788 0)
(0.166609 0.00493223 0)
(0.163299 0.00444974 0)
(0.160047 0.00402801 0)
(0.15687 0.00366099 0)
(0.153777 0.00334145 0)
(0.150774 0.00306212 0)
(0.147864 0.00281636 0)
(0.145048 0.00259851 0)
(0.142327 0.00240395 0)
(0.139699 0.002229 0)
(0.137162 0.00207079 0)
(0.134715 0.00192708 0)
(0.132356 0.0017961 0)
(0.130082 0.00167645 0)
(0.127891 0.00156697 0)
(0.12578 0.00146667 0)
(0.123746 0.0013747 0)
(0.121787 0.00129029 0)
(0.1199 0.00121278 0)
(0.118082 0.00114152 0)
(0.11633 0.00107595 0)
(0.114642 0.00101553 0)
(0.113015 0.000959785 0)
(0.111446 0.000908267 0)
(0.109933 0.00086057 0)
(0.108474 0.000816322 0)
(0.107066 0.000775185 0)
(0.105706 0.000736852 0)
(0.104394 0.000701047 0)
(0.103127 0.000667517 0)
(0.101903 0.000636037 0)
(0.10072 0.000606402 0)
(0.0995778 0.000578427 0)
(0.0984738 0.000551945 0)
(0.0974071 0.000526808 0)
(0.0963765 0.000502879 0)
(0.0953809 0.000480036 0)
(0.0944194 0.00045817 0)
(0.0934911 0.00043718 0)
(0.0925953 0.000416977 0)
(0.0917314 0.000397481 0)
(0.0908987 0.000378618 0)
(0.090097 0.000360322 0)
(0.0893256 0.000342535 0)
(0.0885845 0.000325205 0)
(0.0878732 0.000308284 0)
(0.0871918 0.000291732 0)
(0.08654 0.000275513 0)
(0.0859177 0.000259596 0)
(0.0853251 0.000243956 0)
(0.084762 0.000228571 0)
(0.0842286 0.000213427 0)
(0.0837249 0.000198515 0)
(0.083251 0.000183831 0)
(0.0828069 0.000169375 0)
(0.0823928 0.000155153 0)
(0.0820087 0.000141169 0)
(0.0816545 0.000127425 0)
(0.0813305 0.000113915 0)
(0.0810365 0.000100617 0)
(0.0807725 8.74961e-05 0)
(0.0805387 7.45087e-05 0)
(0.0803348 6.16156e-05 0)
(0.0801605 4.88091e-05 0)
(0.0800154 3.6141e-05 0)
(0.0798982 2.37369e-05 0)
(0.0798065 1.17818e-05 0)
(0.0797368 7.98475e-07 0)
(0.0796922 -8.59161e-06 0)
(0.0796745 -1.53669e-05 0)
(0.079675 -1.92744e-05 0)
(0.0796887 -2.11205e-05 0)
(0.0797115 -2.17271e-05 0)
(0.0797403 -2.14089e-05 0)
(0.0797726 -2.04405e-05 0)
(0.0798062 -1.91627e-05 0)
(0.0798401 -1.77167e-05 0)
(0.0798732 -1.61331e-05 0)
(0.079905 -1.45107e-05 0)
(0.079935 -1.29709e-05 0)
(0.0799633 -1.15828e-05 0)
(0.0799898 -1.03625e-05 0)
(0.0800148 -9.32616e-06 0)
(0.0800384 -8.50723e-06 0)
(0.080061 -8.01406e-06 0)
(0.0800825 -8.28112e-06 0)
(0.0801093 -1.00568e-05 0)
(0.194133 0.00849591 0)
(0.195128 0.00954895 0)
(0.196082 0.0101459 0)
(0.196787 0.0104377 0)
(0.197209 0.0104984 0)
(0.197347 0.0103581 0)
(0.19719 0.0100498 0)
(0.196735 0.00961425 0)
(0.195997 0.00909239 0)
(0.195004 0.0085216 0)
(0.193791 0.00793414 0)
(0.192396 0.00735592 0)
(0.190855 0.00680576 0)
(0.189203 0.00629544 0)
(0.187469 0.00583067 0)
(0.185679 0.00541243 0)
(0.183851 0.0050385 0)
(0.182002 0.00470478 0)
(0.180143 0.00440637 0)
(0.178281 0.0041383 0)
(0.176424 0.00389599 0)
(0.174576 0.00367546 0)
(0.17274 0.00347341 0)
(0.170919 0.00328717 0)
(0.169116 0.00311465 0)
(0.167332 0.00295418 0)
(0.165568 0.00280447 0)
(0.163827 0.00266447 0)
(0.162109 0.00253334 0)
(0.160416 0.00241036 0)
(0.158747 0.00229493 0)
(0.157105 0.00218648 0)
(0.15549 0.00208453 0)
(0.153901 0.00198861 0)
(0.152341 0.00189831 0)
(0.150807 0.00181321 0)
(0.149302 0.00173294 0)
(0.147825 0.00165714 0)
(0.146376 0.00158549 0)
(0.144956 0.00151767 0)
(0.143563 0.00145339 0)
(0.142199 0.00139237 0)
(0.140863 0.00133436 0)
(0.139555 0.00127911 0)
(0.138275 0.0012264 0)
(0.137023 0.00117603 0)
(0.135799 0.00112779 0)
(0.134603 0.00108151 0)
(0.133434 0.00103702 0)
(0.132294 0.00099415 0)
(0.131182 0.000952768 0)
(0.130098 0.000912732 0)
(0.129042 0.000873916 0)
(0.128014 0.000836203 0)
(0.127015 0.000799485 0)
(0.126045 0.000763664 0)
(0.125104 0.000728647 0)
(0.124192 0.000694353 0)
(0.12331 0.000660707 0)
(0.122458 0.000627643 0)
(0.121636 0.000595102 0)
(0.120846 0.000563034 0)
(0.120087 0.000531397 0)
(0.119359 0.000500159 0)
(0.118664 0.000469294 0)
(0.118002 0.000438789 0)
(0.117373 0.000408638 0)
(0.116778 0.000378844 0)
(0.116217 0.000349416 0)
(0.115691 0.000320367 0)
(0.115199 0.000291707 0)
(0.114744 0.000263441 0)
(0.114323 0.000235564 0)
(0.113939 0.000208066 0)
(0.11359 0.000180948 0)
(0.113277 0.000154244 0)
(0.113 0.00012807 0)
(0.112757 0.00010268 0)
(0.112547 7.85062e-05 0)
(0.112368 5.60679e-05 0)
(0.112218 3.56213e-05 0)
(0.112092 1.726e-05 0)
(0.111985 1.76439e-06 0)
(0.1119 -1.07945e-05 0)
(0.111843 -2.05086e-05 0)
(0.111809 -2.69185e-05 0)
(0.111792 -3.01827e-05 0)
(0.111787 -3.11241e-05 0)
(0.111791 -3.06388e-05 0)
(0.111802 -2.93428e-05 0)
(0.111819 -2.75505e-05 0)
(0.111838 -2.55268e-05 0)
(0.11186 -2.35112e-05 0)
(0.111882 -2.16385e-05 0)
(0.111906 -1.99449e-05 0)
(0.111931 -1.84671e-05 0)
(0.111955 -1.72604e-05 0)
(0.11198 -1.64215e-05 0)
(0.112004 -1.617e-05 0)
(0.112032 -1.62619e-05 0)
(0.195007 0.00797656 0)
(0.195807 0.00893364 0)
(0.196702 0.00954825 0)
(0.197541 0.00990142 0)
(0.198278 0.010054 0)
(0.198893 0.0100343 0)
(0.199365 0.00986616 0)
(0.19967 0.00957882 0)
(0.199797 0.00920352 0)
(0.199748 0.00877022 0)
(0.199532 0.00830597 0)
(0.199164 0.00783377 0)
(0.198665 0.00737156 0)
(0.198054 0.0069319 0)
(0.197351 0.0065223 0)
(0.196574 0.00614607 0)
(0.19574 0.0058034 0)
(0.194859 0.00549239 0)
(0.193941 0.00521004 0)
(0.192995 0.00495289 0)
(0.192025 0.00471751 0)
(0.191036 0.00450081 0)
(0.19003 0.00430013 0)
(0.18901 0.00411329 0)
(0.187978 0.00393852 0)
(0.186936 0.00377444 0)
(0.185885 0.00361994 0)
(0.184827 0.00347414 0)
(0.183762 0.00333632 0)
(0.182693 0.00320587 0)
(0.18162 0.00308226 0)
(0.180544 0.00296501 0)
(0.179466 0.0028537 0)
(0.178387 0.00274792 0)
(0.177309 0.0026473 0)
(0.176232 0.00255147 0)
(0.175156 0.0024601 0)
(0.174084 0.00237286 0)
(0.173015 0.00228945 0)
(0.17195 0.00220958 0)
(0.17089 0.00213299 0)
(0.169836 0.00205941 0)
(0.168789 0.00198861 0)
(0.167749 0.00192037 0)
(0.166716 0.00185447 0)
(0.165693 0.00179071 0)
(0.164679 0.00172891 0)
(0.163674 0.0016689 0)
(0.162681 0.00161051 0)
(0.161699 0.00155359 0)
(0.16073 0.001498 0)
(0.159774 0.00144359 0)
(0.158832 0.00139025 0)
(0.157904 0.00133786 0)
(0.156992 0.0012863 0)
(0.156097 0.00123549 0)
(0.155219 0.00118531 0)
(0.15436 0.0011357 0)
(0.153519 0.00108657 0)
(0.152699 0.00103786 0)
(0.151901 0.000989501 0)
(0.151124 0.000941454 0)
(0.15037 0.000893678 0)
(0.149641 0.000846144 0)
(0.148937 0.000798838 0)
(0.148258 0.000751755 0)
(0.147607 0.000704903 0)
(0.146984 0.000658302 0)
(0.14639 0.00061198 0)
(0.145826 0.000565973 0)
(0.145293 0.000520316 0)
(0.14479 0.00047505 0)
(0.144321 0.000430213 0)
(0.143883 0.00038586 0)
(0.143479 0.000342075 0)
(0.143108 0.00029901 0)
(0.142769 0.000256926 0)
(0.142464 0.000216239 0)
(0.142189 0.000177533 0)
(0.141944 0.00014151 0)
(0.141728 0.000108904 0)
(0.141539 8.03173e-05 0)
(0.141374 5.56411e-05 0)
(0.14123 3.41972e-05 0)
(0.141102 1.59811e-05 0)
(0.14099 1.53523e-06 0)
(0.140894 -9.46148e-06 0)
(0.140818 -1.77939e-05 0)
(0.14076 -2.37069e-05 0)
(0.140718 -2.73024e-05 0)
(0.140688 -2.9031e-05 0)
(0.140669 -2.94374e-05 0)
(0.140658 -2.90542e-05 0)
(0.140653 -2.82901e-05 0)
(0.140654 -2.73756e-05 0)
(0.14066 -2.64689e-05 0)
(0.14067 -2.56868e-05 0)
(0.140683 -2.50917e-05 0)
(0.140698 -2.45899e-05 0)
(0.140716 -2.29189e-05 0)
(0.19579 0.00753761 0)
(0.196391 0.00836367 0)
(0.197105 0.00894592 0)
(0.197833 0.00931597 0)
(0.198526 0.00951309 0)
(0.199162 0.00956073 0)
(0.199722 0.00947762 0)
(0.200188 0.00928595 0)
(0.200546 0.00901048 0)
(0.200793 0.00867573 0)
(0.200928 0.00830435 0)
(0.20096 0.00791608 0)
(0.200898 0.00752695 0)
(0.200754 0.00714892 0)
(0.200542 0.00678994 0)
(0.200272 0.00645443 0)
(0.199957 0.0061441 0)
(0.199605 0.00585866 0)
(0.199222 0.00559661 0)
(0.198816 0.00535579 0)
(0.198388 0.00513384 0)
(0.197943 0.00492844 0)
(0.197481 0.00473751 0)
(0.197006 0.00455925 0)
(0.196516 0.00439214 0)
(0.196014 0.00423495 0)
(0.195499 0.00408665 0)
(0.194973 0.00394641 0)
(0.194435 0.00381353 0)
(0.193887 0.00368742 0)
(0.193328 0.00356756 0)
(0.192758 0.00345349 0)
(0.19218 0.00334479 0)
(0.191592 0.00324106 0)
(0.190995 0.00314195 0)
(0.19039 0.00304712 0)
(0.189777 0.00295623 0)
(0.189157 0.00286899 0)
(0.18853 0.00278509 0)
(0.187897 0.00270428 0)
(0.187257 0.00262627 0)
(0.186613 0.00255084 0)
(0.185964 0.00247773 0)
(0.185311 0.00240675 0)
(0.184654 0.00233766 0)
(0.183994 0.00227028 0)
(0.183332 0.00220443 0)
(0.182668 0.00213992 0)
(0.182003 0.00207659 0)
(0.181338 0.00201429 0)
(0.180673 0.00195286 0)
(0.18001 0.00189217 0)
(0.179349 0.00183209 0)
(0.17869 0.0017725 0)
(0.178036 0.00171329 0)
(0.177386 0.00165434 0)
(0.176742 0.00159557 0)
(0.176104 0.00153688 0)
(0.175475 0.00147821 0)
(0.174853 0.00141948 0)
(0.174242 0.00136063 0)
(0.173641 0.00130163 0)
(0.173053 0.00124244 0)
(0.172477 0.00118304 0)
(0.171915 0.00112343 0)
(0.171369 0.00106362 0)
(0.170839 0.00100364 0)
(0.170327 0.000943525 0)
(0.169833 0.000883332 0)
(0.169359 0.000823126 0)
(0.168905 0.000762984 0)
(0.168473 0.000702991 0)
(0.168063 0.000643252 0)
(0.167677 0.000583901 0)
(0.167314 0.000525127 0)
(0.166975 0.000467208 0)
(0.16666 0.000410551 0)
(0.16637 0.000355715 0)
(0.166102 0.000303406 0)
(0.165857 0.000254413 0)
(0.165635 0.000209496 0)
(0.165433 0.000169203 0)
(0.165252 0.00013372 0)
(0.165089 0.000103185 0)
(0.164944 7.75748e-05 0)
(0.164815 5.63418e-05 0)
(0.1647 3.86229e-05 0)
(0.164597 2.37566e-05 0)
(0.164503 1.16146e-05 0)
(0.16442 2.09945e-06 0)
(0.164346 -5.31283e-06 0)
(0.164284 -1.11874e-05 0)
(0.164234 -1.58126e-05 0)
(0.164193 -1.93171e-05 0)
(0.164162 -2.19094e-05 0)
(0.164138 -2.38504e-05 0)
(0.164121 -2.538e-05 0)
(0.164109 -2.66206e-05 0)
(0.164103 -2.73543e-05 0)
(0.164101 -2.60033e-05 0)
(0.196501 0.00717585 0)
(0.19695 0.00787931 0)
(0.197499 0.00841311 0)
(0.198085 0.00877998 0)
(0.198663 0.00899943 0)
(0.199212 0.00908831 0)
(0.199714 0.00906164 0)
(0.200155 0.00893676 0)
(0.200524 0.00873339 0)
(0.200815 0.00847159 0)
(0.20103 0.00817029 0)
(0.201172 0.00784633 0)
(0.201246 0.00751386 0)
(0.201263 0.00718395 0)
(0.20123 0.00686456 0)
(0.201158 0.0065608 0)
(0.201053 0.00627545 0)
(0.200924 0.00600947 0)
(0.200775 0.00576259 0)
(0.200611 0.00553376 0)
(0.200435 0.00532152 0)
(0.20025 0.00512429 0)
(0.200057 0.00494049 0)
(0.199857 0.00476869 0)
(0.199649 0.00460762 0)
(0.199436 0.00445619 0)
(0.199215 0.00431346 0)
(0.198989 0.00417864 0)
(0.198756 0.00405105 0)
(0.198516 0.00393009 0)
(0.198269 0.00381525 0)
(0.198016 0.00370604 0)
(0.197756 0.00360205 0)
(0.197489 0.00350287 0)
(0.197215 0.00340812 0)
(0.196934 0.00331746 0)
(0.196646 0.00323055 0)
(0.196352 0.00314707 0)
(0.196051 0.00306671 0)
(0.195743 0.0029892 0)
(0.195428 0.00291425 0)
(0.195107 0.0028416 0)
(0.19478 0.00277102 0)
(0.194447 0.00270226 0)
(0.194108 0.0026351 0)
(0.193764 0.00256933 0)
(0.193414 0.00250475 0)
(0.193059 0.00244117 0)
(0.192699 0.00237841 0)
(0.192335 0.0023163 0)
(0.191968 0.00225467 0)
(0.191597 0.00219338 0)
(0.191223 0.00213227 0)
(0.190846 0.00207121 0)
(0.190468 0.00201008 0)
(0.190088 0.00194877 0)
(0.189708 0.00188715 0)
(0.189328 0.00182513 0)
(0.188948 0.00176264 0)
(0.18857 0.00169958 0)
(0.188194 0.00163591 0)
(0.187821 0.00157157 0)
(0.187453 0.00150653 0)
(0.187088 0.00144077 0)
(0.18673 0.00137429 0)
(0.186377 0.00130711 0)
(0.186032 0.00123926 0)
(0.185696 0.00117081 0)
(0.185368 0.00110183 0)
(0.185051 0.00103241 0)
(0.184744 0.000962656 0)
(0.184449 0.00089271 0)
(0.184166 0.000822734 0)
(0.183896 0.00075294 0)
(0.18364 0.000683612 0)
(0.183397 0.000615136 0)
(0.183169 0.000548028 0)
(0.182954 0.000482945 0)
(0.182753 0.000420664 0)
(0.182566 0.000362012 0)
(0.182392 0.000307757 0)
(0.182232 0.000258477 0)
(0.182084 0.000214474 0)
(0.18195 0.00017585 0)
(0.181827 0.000142457 0)
(0.181717 0.00011393 0)
(0.181616 8.99022e-05 0)
(0.181526 7.00116e-05 0)
(0.181446 5.36863e-05 0)
(0.181373 4.01956e-05 0)
(0.181308 2.88691e-05 0)
(0.181249 1.91638e-05 0)
(0.181194 1.08044e-05 0)
(0.181145 3.63363e-06 0)
(0.181102 -2.59775e-06 0)
(0.181065 -8.07877e-06 0)
(0.181033 -1.28663e-05 0)
(0.181007 -1.69738e-05 0)
(0.180986 -2.02435e-05 0)
(0.180968 -2.18018e-05 0)
(0.197152 0.0068794 0)
(0.197485 0.00747758 0)
(0.197899 0.00795669 0)
(0.198352 0.00830734 0)
(0.198813 0.00853571 0)
(0.199259 0.00865192 0)
(0.199675 0.00866705 0)
(0.200048 0.00859421 0)
(0.20037 0.00844854 0)
(0.200635 0.00824601 0)
(0.200844 0.00800218 0)
(0.200997 0.00773129 0)
(0.2011 0.00744573 0)
(0.201159 0.00715564 0)
(0.20118 0.0068688 0)
(0.201171 0.00659075 0)
(0.201139 0.00632504 0)
(0.201088 0.00607363 0)
(0.201024 0.00583726 0)
(0.20095 0.00561587 0)
(0.20087 0.00540885 0)
(0.200786 0.0052153 0)
(0.200698 0.00503419 0)
(0.200609 0.00486449 0)
(0.200517 0.00470523 0)
(0.200425 0.00455549 0)
(0.200331 0.00441447 0)
(0.200236 0.00428144 0)
(0.200139 0.00415577 0)
(0.20004 0.00403688 0)
(0.19994 0.00392424 0)
(0.199838 0.00381737 0)
(0.199733 0.00371584 0)
(0.199626 0.00361922 0)
(0.199516 0.00352712 0)
(0.199403 0.00343917 0)
(0.199288 0.00335502 0)
(0.199169 0.00327434 0)
(0.199047 0.0031968 0)
(0.198921 0.00312211 0)
(0.198792 0.00304996 0)
(0.19866 0.00298009 0)
(0.198524 0.00291223 0)
(0.198384 0.00284613 0)
(0.198241 0.00278155 0)
(0.198093 0.00271825 0)
(0.197943 0.00265602 0)
(0.197788 0.00259466 0)
(0.19763 0.00253395 0)
(0.197469 0.00247372 0)
(0.197304 0.00241378 0)
(0.197136 0.00235397 0)
(0.196964 0.00229411 0)
(0.19679 0.00223406 0)
(0.196614 0.00217366 0)
(0.196435 0.0021128 0)
(0.196254 0.00205133 0)
(0.196071 0.00198916 0)
(0.195886 0.00192617 0)
(0.195701 0.00186228 0)
(0.195515 0.00179742 0)
(0.195328 0.00173152 0)
(0.195142 0.00166455 0)
(0.194957 0.00159647 0)
(0.194772 0.00152729 0)
(0.194589 0.00145702 0)
(0.194409 0.0013857 0)
(0.194231 0.00131339 0)
(0.194056 0.00124018 0)
(0.193885 0.00116618 0)
(0.193718 0.00109152 0)
(0.193557 0.00101637 0)
(0.1934 0.000940947 0)
(0.193249 0.000865523 0)
(0.193103 0.000790448 0)
(0.192964 0.000716176 0)
(0.192831 0.000643285 0)
(0.192704 0.000572472 0)
(0.192583 0.000504529 0)
(0.192468 0.000440275 0)
(0.19236 0.000380461 0)
(0.192259 0.000325667 0)
(0.192165 0.000276236 0)
(0.192077 0.000232298 0)
(0.191997 0.000193783 0)
(0.191923 0.000160432 0)
(0.191856 0.000131866 0)
(0.191795 0.000107611 0)
(0.19174 8.70925e-05 0)
(0.191691 6.97588e-05 0)
(0.191647 5.51586e-05 0)
(0.191608 4.2879e-05 0)
(0.191573 3.24568e-05 0)
(0.191542 2.34046e-05 0)
(0.191513 1.53268e-05 0)
(0.191487 7.98846e-06 0)
(0.191463 1.3099e-06 0)
(0.191442 -4.70708e-06 0)
(0.191424 -1.00094e-05 0)
(0.191406 -1.46213e-05 0)
(0.19772 0.00664536 0)
(0.197967 0.00716147 0)
(0.198274 0.00759104 0)
(0.198618 0.00792152 0)
(0.198975 0.00815168 0)
(0.199326 0.00828607 0)
(0.199658 0.008332 0)
(0.199961 0.00829895 0)
(0.200227 0.00819839 0)
(0.200451 0.00804289 0)
(0.200632 0.00784518 0)
(0.200771 0.00761731 0)
(0.20087 0.00737012 0)
(0.200935 0.00711286 0)
(0.20097 0.00685301 0)
(0.200981 0.0065963 0)
(0.200972 0.00634678 0)
(0.200948 0.00610714 0)
(0.200914 0.00587893 0)
(0.200873 0.00566285 0)
(0.200827 0.005459 0)
(0.200778 0.0052671 0)
(0.200727 0.0050866 0)
(0.200676 0.00491686 0)
(0.200625 0.00475717 0)
(0.200575 0.00460683 0)
(0.200526 0.00446517 0)
(0.200477 0.00433154 0)
(0.200429 0.00420537 0)
(0.200382 0.00408611 0)
(0.200335 0.00397325 0)
(0.200288 0.0038663 0)
(0.200242 0.00376484 0)
(0.200196 0.00366844 0)
(0.200149 0.0035767 0)
(0.200103 0.00348924 0)
(0.200055 0.0034057 0)
(0.200008 0.00332575 0)
(0.199959 0.00324904 0)
(0.19991 0.00317528 0)
(0.19986 0.00310415 0)
(0.199808 0.00303536 0)
(0.199756 0.00296865 0)
(0.199702 0.00290376 0)
(0.199647 0.00284042 0)
(0.19959 0.0027784 0)
(0.199532 0.00271746 0)
(0.199472 0.00265739 0)
(0.199411 0.00259797 0)
(0.199348 0.00253901 0)
(0.199283 0.0024803 0)
(0.199217 0.00242166 0)
(0.199148 0.00236292 0)
(0.199079 0.00230391 0)
(0.199007 0.00224447 0)
(0.198935 0.00218445 0)
(0.19886 0.00212371 0)
(0.198785 0.00206214 0)
(0.198708 0.00199961 0)
(0.19863 0.00193603 0)
(0.198551 0.00187131 0)
(0.198471 0.00180537 0)
(0.19839 0.00173817 0)
(0.198309 0.00166968 0)
(0.198228 0.00159989 0)
(0.198147 0.0015288 0)
(0.198066 0.00145645 0)
(0.197985 0.0013829 0)
(0.197905 0.00130825 0)
(0.197827 0.00123261 0)
(0.197749 0.00115613 0)
(0.197672 0.00107901 0)
(0.197598 0.00100148 0)
(0.197524 0.000923869 0)
(0.197453 0.000846549 0)
(0.197383 0.000770011 0)
(0.197316 0.000694848 0)
(0.19725 0.000621759 0)
(0.197186 0.000551508 0)
(0.197125 0.000484877 0)
(0.197065 0.000422577 0)
(0.197009 0.000365172 0)
(0.196955 0.000313026 0)
(0.196905 0.000266298 0)
(0.196858 0.000224958 0)
(0.196815 0.000188792 0)
(0.196776 0.000157462 0)
(0.19674 0.000130546 0)
(0.196708 0.000107555 0)
(0.196679 8.79748e-05 0)
(0.196654 7.13104e-05 0)
(0.196631 5.70884e-05 0)
(0.196611 4.4856e-05 0)
(0.196594 3.42297e-05 0)
(0.196579 2.49223e-05 0)
(0.196565 1.66734e-05 0)
(0.196553 9.22941e-06 0)
(0.196542 2.43254e-06 0)
(0.196533 -3.81633e-06 0)
(0.196522 -9.89055e-06 0)
(0.198284 0.00645778 0)
(0.198458 0.00690651 0)
(0.198674 0.00728997 0)
(0.198918 0.00759651 0)
(0.199176 0.00782158 0)
(0.199435 0.00796586 0)
(0.199682 0.0080334 0)
(0.19991 0.00803067 0)
(0.200113 0.00796608 0)
(0.200287 0.00784929 0)
(0.200431 0.0076905 0)
(0.200544 0.00749971 0)
(0.200628 0.00728627 0)
(0.200686 0.00705847 0)
(0.200721 0.00682334 0)
(0.200738 0.00658656 0)
(0.200739 0.00635249 0)
(0.200728 0.00612431 0)
(0.200709 0.00590418 0)
(0.200683 0.00569343 0)
(0.200654 0.00549279 0)
(0.200622 0.00530249 0)
(0.200589 0.00512246 0)
(0.200556 0.00495241 0)
(0.200524 0.0047919 0)
(0.200492 0.00464045 0)
(0.200462 0.00449753 0)
(0.200432 0.00436262 0)
(0.200404 0.00423519 0)
(0.200377 0.00411474 0)
(0.200352 0.00400078 0)
(0.200327 0.00389286 0)
(0.200304 0.00379054 0)
(0.200281 0.0036934 0)
(0.20026 0.00360103 0)
(0.200239 0.00351307 0)
(0.200219 0.00342914 0)
(0.200199 0.00334889 0)
(0.20018 0.00327199 0)
(0.200161 0.00319813 0)
(0.200142 0.00312699 0)
(0.200124 0.00305829 0)
(0.200106 0.00299174 0)
(0.200088 0.00292706 0)
(0.20007 0.00286402 0)
(0.200052 0.00280234 0)
(0.200034 0.00274181 0)
(0.200015 0.00268218 0)
(0.199997 0.00262325 0)
(0.199977 0.0025648 0)
(0.199958 0.00250662 0)
(0.199938 0.00244854 0)
(0.199918 0.00239036 0)
(0.199897 0.0023319 0)
(0.199876 0.00227302 0)
(0.199854 0.00221354 0)
(0.199832 0.00215332 0)
(0.199809 0.00209224 0)
(0.199786 0.00203016 0)
(0.199762 0.00196698 0)
(0.199738 0.00190261 0)
(0.199713 0.00183697 0)
(0.199688 0.00177001 0)
(0.199663 0.00170168 0)
(0.199636 0.00163197 0)
(0.19961 0.00156088 0)
(0.199583 0.00148846 0)
(0.199556 0.00141475 0)
(0.199529 0.00133986 0)
(0.199502 0.0012639 0)
(0.199474 0.00118704 0)
(0.199447 0.00110948 0)
(0.199419 0.00103149 0)
(0.199392 0.000953394 0)
(0.199364 0.000875593 0)
(0.199336 0.000798582 0)
(0.199308 0.000722951 0)
(0.199279 0.000649367 0)
(0.199251 0.000578553 0)
(0.199222 0.000511234 0)
(0.199194 0.000448071 0)
(0.199166 0.000389601 0)
(0.199139 0.000336189 0)
(0.199114 0.000288015 0)
(0.199089 0.000245085 0)
(0.199067 0.000207239 0)
(0.199046 0.000174189 0)
(0.199027 0.000145558 0)
(0.19901 0.000120895 0)
(0.198995 9.97165e-05 0)
(0.198982 8.15505e-05 0)
(0.198971 6.59511e-05 0)
(0.198961 5.25e-05 0)
(0.198952 4.08217e-05 0)
(0.198945 3.05992e-05 0)
(0.198939 2.15602e-05 0)
(0.198934 1.34768e-05 0)
(0.198929 6.16183e-06 0)
(0.198925 -5.58825e-07 0)
(0.198921 -6.98505e-06 0)
(0.198887 0.00629171 0)
(0.198989 0.00668604 0)
(0.199117 0.00703004 0)
(0.199263 0.00731395 0)
(0.199419 0.00753202 0)
(0.199578 0.00768249 0)
(0.199732 0.00776685 0)
(0.199877 0.00778905 0)
(0.200007 0.0077549 0)
(0.200121 0.00767158 0)
(0.200217 0.00754704 0)
(0.200295 0.00738945 0)
(0.200354 0.00720672 0)
(0.200398 0.00700619 0)
(0.200426 0.00679434 0)
(0.200443 0.0065767 0)
(0.200449 0.00635775 0)
(0.200447 0.00614102 0)
(0.200439 0.00592913 0)
(0.200426 0.00572396 0)
(0.200411 0.00552673 0)
(0.200393 0.00533817 0)
(0.200374 0.00515861 0)
(0.200355 0.00498813 0)
(0.200337 0.00482657 0)
(0.200318 0.00467367 0)
(0.200301 0.00452906 0)
(0.200284 0.00439234 0)
(0.200267 0.00426306 0)
(0.200252 0.00414077 0)
(0.200238 0.00402504 0)
(0.200225 0.00391542 0)
(0.200212 0.00381149 0)
(0.200201 0.00371283 0)
(0.20019 0.00361906 0)
(0.20018 0.00352978 0)
(0.20017 0.00344464 0)
(0.200161 0.00336328 0)
(0.200153 0.00328536 0)
(0.200146 0.00321057 0)
(0.200138 0.00313859 0)
(0.200132 0.00306912 0)
(0.200126 0.00300188 0)
(0.20012 0.00293659 0)
(0.200114 0.002873 0)
(0.200109 0.00281086 0)
(0.200105 0.00274991 0)
(0.2001 0.00268993 0)
(0.200096 0.0026307 0)
(0.200091 0.002572 0)
(0.200087 0.00251363 0)
(0.200083 0.00245539 0)
(0.20008 0.0023971 0)
(0.200076 0.00233858 0)
(0.200072 0.00227966 0)
(0.200069 0.00222018 0)
(0.200065 0.00215999 0)
(0.200061 0.00209896 0)
(0.200058 0.00203697 0)
(0.200054 0.00197389 0)
(0.20005 0.00190965 0)
(0.200046 0.00184415 0)
(0.200042 0.00177735 0)
(0.200038 0.00170919 0)
(0.200033 0.00163967 0)
(0.200028 0.00156878 0)
(0.200024 0.00149656 0)
(0.200019 0.00142307 0)
(0.200013 0.00134841 0)
(0.200008 0.0012727 0)
(0.200002 0.00119611 0)
(0.199996 0.00111886 0)
(0.199989 0.00104121 0)
(0.199982 0.00096351 0)
(0.199975 0.000886162 0)
(0.199966 0.000809654 0)
(0.199958 0.000734551 0)
(0.199948 0.000661482 0)
(0.199938 0.000591117 0)
(0.199928 0.000524117 0)
(0.199917 0.00046109 0)
(0.199906 0.000402536 0)
(0.199894 0.00034881 0)
(0.199884 0.000300106 0)
(0.199873 0.000256456 0)
(0.199863 0.000217743 0)
(0.199854 0.000183727 0)
(0.199846 0.000154071 0)
(0.199839 0.000128372 0)
(0.199833 0.00010619 0)
(0.199827 8.70784e-05 0)
(0.199823 7.06082e-05 0)
(0.199819 5.63715e-05 0)
(0.199816 4.39996e-05 0)
(0.199813 3.31774e-05 0)
(0.199811 2.364e-05 0)
(0.19981 1.51646e-05 0)
(0.199809 7.56284e-06 0)
(0.199808 6.77943e-07 0)
(0.199806 -5.60605e-06 0)
(0.199518 0.00621029 0)
(0.199546 0.00657012 0)
(0.199583 0.00688663 0)
(0.199627 0.00715158 0)
(0.199677 0.00735934 0)
(0.19973 0.00750741 0)
(0.199782 0.00759613 0)
(0.199834 0.00762819 0)
(0.199882 0.00760809 0)
(0.199925 0.0075416 0)
(0.199964 0.00743536 0)
(0.199996 0.00729638 0)
(0.200024 0.00713165 0)
(0.200045 0.00694777 0)
(0.200062 0.00675076 0)
(0.200075 0.0065459 0)
(0.200083 0.0063376 0)
(0.200089 0.00612947 0)
(0.200092 0.00592432 0)
(0.200093 0.00572423 0)
(0.200093 0.00553071 0)
(0.200091 0.00534472 0)
(0.200089 0.00516685 0)
(0.200086 0.00499737 0)
(0.200084 0.00483631 0)
(0.20008 0.00468353 0)
(0.200077 0.00453877 0)
(0.200074 0.00440173 0)
(0.200071 0.00427201 0)
(0.200069 0.00414921 0)
(0.200066 0.00403293 0)
(0.200064 0.00392274 0)
(0.200061 0.00381823 0)
(0.200059 0.00371901 0)
(0.200057 0.00362469 0)
(0.200056 0.00353488 0)
(0.200054 0.00344923 0)
(0.200053 0.00336738 0)
(0.200051 0.003289 0)
(0.20005 0.00321377 0)
(0.20005 0.00314137 0)
(0.200049 0.00307151 0)
(0.200048 0.0030039 0)
(0.200048 0.00293827 0)
(0.200047 0.00287436 0)
(0.200047 0.00281191 0)
(0.200047 0.00275068 0)
(0.200047 0.00269044 0)
(0.200047 0.00263097 0)
(0.200048 0.00257205 0)
(0.200048 0.00251348 0)
(0.200048 0.00245506 0)
(0.200049 0.0023966 0)
(0.200049 0.00233793 0)
(0.20005 0.00227888 0)
(0.200051 0.00221929 0)
(0.200051 0.00215901 0)
(0.200052 0.00209791 0)
(0.200053 0.00203586 0)
(0.200054 0.00197275 0)
(0.200055 0.0019085 0)
(0.200056 0.00184302 0)
(0.200056 0.00177625 0)
(0.200057 0.00170815 0)
(0.200058 0.00163871 0)
(0.200059 0.00156793 0)
(0.20006 0.00149585 0)
(0.20006 0.00142253 0)
(0.200061 0.00134807 0)
(0.200061 0.0012726 0)
(0.200062 0.0011963 0)
(0.200062 0.00111938 0)
(0.200062 0.00104213 0)
(0.200061 0.000964889 0)
(0.200061 0.000888059 0)
(0.20006 0.000812123 0)
(0.200059 0.000737627 0)
(0.200057 0.000665173 0)
(0.200056 0.000595387 0)
(0.200054 0.00052889 0)
(0.200051 0.000466248 0)
(0.200049 0.000407932 0)
(0.200046 0.000354284 0)
(0.200043 0.000305502 0)
(0.200041 0.000261631 0)
(0.200038 0.000222579 0)
(0.200036 0.000188134 0)
(0.200034 0.000157989 0)
(0.200032 0.000131771 0)