/*--------------------------------*- C++ -*----------------------------------*\
| =========                 |                                                 |
| \\      /  F ield         | OpenFOAM: The Open Source CFD Toolbox           |
|  \\    /   O peration     | Version:  2.3.0                                 |
|   \\  /    A nd           | Web:      www.OpenFOAM.org                      |
|    \\/     M anipulation  |                                                 |
\*---------------------------------------------------------------------------*/
FoamFile
{
    version     2.0;
    format      ascii;
    class       surfaceScalarField;
    location    "0.75";
    object      phi_0;
}
// * * * * * * * * * * * * * * * * * * * * * * * * * * * * * * * * * * * * * //

dimensions      [0 3 -1 0 0 0 0];

internalField   nonuniform List<scalar> 
6598
(
2.89619e-08
2.75202e-09
-3.17139e-08
2.55247e-08
3.43722e-09
2.21119e-08
3.4128e-09
1.89458e-08
3.16612e-09
1.60597e-08
2.88606e-09
1.35301e-08
2.52965e-09
1.14476e-08
2.08246e-09
9.83e-09
1.6176e-09
8.64232e-09
1.18768e-09
7.80145e-09
8.40871e-10
7.21169e-09
5.89758e-10
6.79068e-09
4.21013e-10
6.47702e-09
3.13657e-10
6.22821e-09
2.48816e-10
6.01612e-09
2.12089e-10
5.82448e-09
1.91638e-10
5.64543e-09
1.79052e-10
5.47598e-09
1.69448e-10
5.31544e-09
1.60539e-10
5.16389e-09
1.51547e-10
5.02146e-09
1.4243e-10
4.88805e-09
1.33412e-10
4.7633e-09
1.24746e-10
4.64668e-09
1.16625e-10
4.53752e-09
1.09156e-10
4.43516e-09
1.02368e-10
4.33892e-09
9.62386e-11
4.2482e-09
9.0713e-11
4.16248e-09
8.57262e-11
4.08127e-09
8.12083e-11
4.00417e-09
7.70987e-11
3.93083e-09
7.334e-11
3.86094e-09
6.98876e-11
3.79424e-09
6.67001e-11
3.7305e-09
6.37474e-11
3.6695e-09
6.10008e-11
3.61106e-09
5.84402e-11
3.55501e-09
5.60453e-11
3.50121e-09
5.38026e-11
3.44951e-09
5.16967e-11
3.39979e-09
4.97186e-11
3.35194e-09
4.78555e-11
3.30584e-09
4.61012e-11
3.26139e-09
4.44449e-11
3.21851e-09
4.28816e-11
3.17711e-09
4.1403e-11
3.1371e-09
4.00037e-11
3.09842e-09
3.86784e-11
3.061e-09
3.74204e-11
3.02478e-09
3.62282e-11
2.98968e-09
3.50923e-11
2.95567e-09
3.4016e-11
2.92268e-09
3.29862e-11
2.89067e-09
3.20112e-11
2.8596e-09
3.10737e-11
2.82941e-09
3.0188e-11
2.80008e-09
2.93307e-11
2.77155e-09
2.85245e-11
2.74382e-09
2.77364e-11
2.71681e-09
2.70016e-11
2.69054e-09
2.62733e-11
2.66494e-09
2.5603e-11
2.64001e-09
2.49267e-11
2.6157e-09
2.43148e-11
2.59201e-09
2.36832e-11
2.56889e-09
2.31251e-11
2.54636e-09
2.25308e-11
2.52433e-09
2.20238e-11
2.50287e-09
2.14593e-11
2.48187e-09
2.10018e-11
2.46141e-09
2.04613e-11
2.44136e-09
2.00513e-11
2.42183e-09
1.95291e-11
2.40267e-09
1.91662e-11
2.38401e-09
1.86552e-11
2.36567e-09
1.83421e-11
2.34783e-09
1.78349e-11
2.33026e-09
1.75748e-11
2.31319e-09
1.70648e-11
2.29633e-09
1.68617e-11
2.27999e-09
1.63412e-11
2.26379e-09
1.62015e-11
2.24813e-09
1.56613e-11
2.23253e-09
1.55953e-11
2.21751e-09
1.50253e-11
2.20246e-09
1.50453e-11
2.18803e-09
1.44335e-11
2.17347e-09
1.45566e-11
2.15958e-09
1.38887e-11
2.14545e-09
1.41363e-11
2.13205e-09
1.33951e-11
2.11825e-09
1.38003e-11
2.10529e-09
1.29616e-11
2.09172e-09
1.35655e-11
2.07912e-09
1.26035e-11
2.06565e-09
1.34685e-11
2.05332e-09
1.2335e-11
2.03975e-09
1.35696e-11
2.02753e-09
1.22197e-11
1.54352e-11
3.41549e-08
2.48175e-09
-3.38846e-08
3.39748e-08
3.61724e-09
3.32879e-08
4.09971e-09
3.23214e-08
4.1327e-09
3.11846e-08
4.02278e-09
2.99029e-08
3.81135e-09
2.8507e-08
3.47843e-09
2.70727e-08
3.05187e-09
2.5673e-08
2.58738e-09
2.43596e-08
2.15426e-09
2.31548e-08
1.7946e-09
2.20607e-08
1.51512e-09
2.10732e-08
1.30107e-09
2.01876e-08
1.13449e-09
1.93928e-08
1.00682e-09
1.86773e-08
9.0712e-10
1.803e-08
8.26401e-10
1.7441e-08
7.58457e-10
1.69021e-08
6.99454e-10
1.64065e-08
6.47156e-10
1.59486e-08
6.00283e-10
1.5524e-08
5.58074e-10
1.51287e-08
5.20026e-10
1.47596e-08
4.85744e-10
1.44138e-08
4.54885e-10
1.40891e-08
4.27102e-10
1.37833e-08
4.02061e-10
1.34945e-08
3.79435e-10
1.32213e-08
3.58928e-10
1.29623e-08
3.40265e-10
1.27162e-08
3.23219e-10
1.24819e-08
3.07577e-10
1.22586e-08
2.93175e-10
1.20455e-08
2.7986e-10
1.18417e-08
2.67515e-10
1.16467e-08
2.5603e-10
1.14598e-08
2.45323e-10
1.12805e-08
2.35312e-10
1.11084e-08
2.25941e-10
1.0943e-08
2.17144e-10
1.07838e-08
2.08883e-10
1.06305e-08
2.01103e-10
1.04829e-08
1.93778e-10
1.03404e-08
1.8686e-10
1.0203e-08
1.8033e-10
1.00703e-08
1.74149e-10
9.94195e-09
1.68301e-10
9.81788e-09
1.62753e-10
9.69781e-09
1.57492e-10
9.58154e-09
1.52492e-10
9.4689e-09
1.4774e-10
9.3597e-09
1.43216e-10
9.25378e-09
1.38905e-10
9.15099e-09
1.34797e-10
9.05119e-09
1.30872e-10
8.95425e-09
1.27129e-10
8.86004e-09
1.23542e-10
8.76845e-09
1.20121e-10
8.67935e-09
1.16828e-10
8.59266e-09
1.13695e-10
8.50827e-09
1.1066e-10
8.42609e-09
1.07783e-10
8.34605e-09
1.04974e-10
8.26804e-09
1.02326e-10
8.192e-09
9.97174e-11
8.11785e-09
9.72758e-11
8.04554e-09
9.48396e-11
7.97498e-09
9.25878e-11
7.90614e-09
9.02996e-11
7.83891e-09
8.82241e-11
7.77331e-09
8.60637e-11
7.70921e-09
8.41509e-11
7.64664e-09
8.21005e-11
7.58547e-09
8.03412e-11
7.52574e-09
7.83809e-11
7.46731e-09
7.67726e-11
7.41026e-09
7.48832e-11
7.35441e-09
7.3426e-11
7.29988e-09
7.15916e-11
7.24646e-09
7.02865e-11
7.19431e-09
6.84912e-11
7.14317e-09
6.73448e-11
7.09326e-09
6.55709e-11
7.04425e-09
6.45985e-11
6.99645e-09
6.28289e-11
6.94945e-09
6.20492e-11
6.90361e-09
6.02669e-11
6.85846e-09
5.97081e-11
6.81445e-09
5.78953e-11
6.771e-09
5.75931e-11
6.72866e-09
5.57341e-11
6.68671e-09
5.5745e-11
6.64585e-09
5.38205e-11
6.60521e-09
5.42106e-11
6.56559e-09
5.2222e-11
6.52598e-09
5.30814e-11
6.48728e-09
5.10317e-11
6.44832e-09
5.25325e-11
6.40992e-09
5.06186e-11
5.52668e-11
3.5658e-08
2.35152e-09
-3.55277e-08
3.6037e-08
3.23822e-09
3.6258e-08
3.87873e-09
3.63002e-08
4.0905e-09
3.62258e-08
4.09712e-09
3.60307e-08
4.00652e-09
3.56865e-08
3.82259e-09
3.51987e-08
3.53971e-09
3.45974e-08
3.1886e-09
3.39247e-08
2.82697e-09
3.32157e-08
2.50366e-09
3.24927e-08
2.23809e-09
3.17687e-08
2.02511e-09
3.1051e-08
1.85213e-09
3.0347e-08
1.71089e-09
2.96606e-08
1.59346e-09
2.89942e-08
1.49285e-09
2.83487e-08
1.4039e-09
2.77249e-08
1.3233e-09
2.7123e-08
1.24908e-09
2.65431e-08
1.18016e-09
2.59852e-08
1.11595e-09
2.54491e-08
1.05611e-09
2.49345e-08
1.00039e-09
2.44407e-08
9.48622e-10
2.39673e-08
9.00567e-10
2.35133e-08
8.55997e-10
2.30781e-08
8.14645e-10
2.26608e-08
7.76266e-10
2.22605e-08
7.40593e-10
2.18763e-08
7.07403e-10
2.15074e-08
6.7646e-10
2.1153e-08
6.47583e-10
2.08123e-08
6.2057e-10
2.04845e-08
5.95281e-10
2.0169e-08
5.71548e-10
1.9865e-08
5.49264e-10
1.95721e-08
5.28287e-10
1.92895e-08
5.08542e-10
1.90167e-08
4.89903e-10
1.87533e-08
4.72318e-10
1.84987e-08
4.55676e-10
1.82525e-08
4.39944e-10
1.80144e-08
4.25018e-10
1.77838e-08
4.10885e-10
1.75605e-08
3.97444e-10
1.73441e-08
3.84695e-10
1.71343e-08
3.72546e-10
1.69308e-08
3.61003e-10
1.67333e-08
3.4998e-10
1.65416e-08
3.39493e-10
1.63554e-08
3.29458e-10
1.61744e-08
3.19898e-10
1.59984e-08
3.10733e-10
1.58273e-08
3.0199e-10
1.56608e-08
2.93593e-10
1.54988e-08
2.85572e-10
1.53411e-08
2.77856e-10
1.51874e-08
2.70473e-10
1.50378e-08
2.63364e-10
1.48919e-08
2.56546e-10
1.47497e-08
2.49978e-10
1.4611e-08
2.43663e-10
1.44757e-08
2.37577e-10
1.43437e-08
2.31711e-10
1.4215e-08
2.26057e-10
1.40892e-08
2.20587e-10
1.39665e-08
2.15326e-10
1.38466e-08
2.10205e-10
1.37295e-08
2.053e-10
1.36151e-08
2.0049e-10
1.35033e-08
1.95907e-10
1.3394e-08
1.91375e-10
1.32873e-08
1.87086e-10
1.31829e-08
1.82799e-10
1.30809e-08
1.78786e-10
1.2981e-08
1.74714e-10
1.28835e-08
1.70963e-10
1.2788e-08
1.67082e-10
1.26947e-08
1.63579e-10
1.26033e-08
1.59872e-10
1.25141e-08
1.56611e-10
1.24266e-08
1.53057e-10
1.23411e-08
1.50045e-10
1.22573e-08
1.46632e-10
1.21755e-08
1.43878e-10
1.20952e-08
1.40599e-10
1.20168e-08
1.38122e-10
1.19397e-08
1.34979e-10
1.18645e-08
1.32806e-10
1.17904e-08
1.29812e-10
1.17181e-08
1.27996e-10
1.16468e-08
1.25178e-10
1.15772e-08
1.23776e-10
1.15082e-08
1.21209e-10
1.1441e-08
1.20318e-10
1.13739e-08
1.18087e-10
1.13084e-08
1.1803e-10
1.12426e-08
1.16423e-10
1.20024e-10
3.71804e-08
2.29879e-09
-3.71277e-08
3.74721e-08
2.94656e-09
3.78133e-08
3.5375e-09
3.80755e-08
3.82836e-09
3.82785e-08
3.89411e-09
3.84353e-08
3.84968e-09
3.85232e-08
3.73471e-09
3.85179e-08
3.54502e-09
3.84137e-08
3.29275e-09
3.82261e-08
3.01461e-09
3.79778e-08
2.75198e-09
3.76878e-08
2.52805e-09
3.7367e-08
2.34592e-09
3.70212e-08
2.19788e-09
3.66565e-08
2.07567e-09
3.62773e-08
1.97264e-09
3.58868e-08
1.88336e-09
3.5487e-08
1.80363e-09
3.50798e-08
1.73053e-09
3.46667e-08
1.6622e-09
3.42492e-08
1.5976e-09
3.3829e-08
1.53616e-09
3.34075e-08
1.47761e-09
3.29861e-08
1.42178e-09
3.25662e-08
1.36861e-09
3.21487e-08
1.318e-09
3.17349e-08
1.26987e-09
3.13254e-08
1.22407e-09
3.09212e-08
1.18051e-09
3.05228e-08
1.13902e-09
3.01306e-08
1.09952e-09
2.97453e-08
1.06183e-09
2.93669e-08
1.02591e-09
2.89959e-08
9.91588e-10
2.86324e-08
9.58834e-10
2.82764e-08
9.27507e-10
2.79281e-08
8.97585e-10
2.75875e-08
8.68936e-10
2.72544e-08
8.4156e-10
2.6929e-08
8.15323e-10
2.66111e-08
7.90248e-10
2.63006e-08
7.6619e-10
2.59973e-08
7.43196e-10
2.57012e-08
7.21111e-10
2.54121e-08
7.00001e-10
2.51299e-08
6.797e-10
2.48543e-08
6.60294e-10
2.45852e-08
6.41607e-10
2.43225e-08
6.23742e-10
2.40659e-08
6.06514e-10
2.38154e-08
5.90044e-10
2.35707e-08
5.74132e-10
2.33317e-08
5.58925e-10
2.30982e-08
5.44201e-10
2.28701e-08
5.30137e-10
2.26472e-08
5.16485e-10
2.24293e-08
5.03455e-10
2.22164e-08
4.9077e-10
2.20082e-08
4.78673e-10
2.18047e-08
4.66864e-10
2.16056e-08
4.5561e-10
2.1411e-08
4.4459e-10
2.12205e-08
4.34103e-10
2.10343e-08
4.2379e-10
2.0852e-08
4.14001e-10
2.06738e-08
4.04325e-10
2.04992e-08
3.95164e-10
2.03285e-08
3.86065e-10
2.01612e-08
3.77473e-10
1.99976e-08
3.68895e-10
1.98373e-08
3.60822e-10
1.96805e-08
3.52708e-10
1.95267e-08
3.45115e-10
1.93764e-08
3.37415e-10
1.92289e-08
3.30261e-10
1.90848e-08
3.22939e-10
1.89433e-08
3.16188e-10
1.88051e-08
3.09209e-10
1.86693e-08
3.02839e-10
1.85367e-08
2.96169e-10
1.84064e-08
2.90166e-10
1.82793e-08
2.83777e-10
1.81542e-08
2.7813e-10
1.80322e-08
2.72009e-10
1.79121e-08
2.6672e-10
1.77952e-08
2.60854e-10
1.76798e-08
2.55941e-10
1.75676e-08
2.50328e-10
1.74568e-08
2.45823e-10
1.73491e-08
2.40472e-10
1.72425e-08
2.36429e-10
1.71391e-08
2.31382e-10
1.70364e-08
2.27879e-10
1.6937e-08
2.23196e-10
1.68378e-08
2.20358e-10
1.67419e-08
2.16204e-10
1.66459e-08
2.14127e-10
1.65528e-08
2.11079e-10
1.64592e-08
2.10047e-10
2.10689e-10
3.87616e-08
2.24867e-09
-3.87115e-08
3.89635e-08
2.74469e-09
3.92676e-08
3.23339e-09
3.95509e-08
3.54509e-09
3.97887e-08
3.65624e-09
3.99982e-08
3.6402e-09
4.01785e-08
3.55442e-09
4.03109e-08
3.41258e-09
4.03813e-08
3.22241e-09
4.03907e-08
3.00515e-09
4.03526e-08
2.79006e-09
4.0281e-08
2.59965e-09
4.01845e-08
2.44242e-09
4.00675e-08
2.31493e-09
3.9933e-08
2.21014e-09
3.97836e-08
2.12203e-09
3.96209e-08
2.0461e-09
3.94457e-08
1.97887e-09
3.92584e-08
1.91782e-09
3.90594e-08
1.86115e-09
3.88492e-08
1.80778e-09
3.86284e-08
1.75701e-09
3.83975e-08
1.70847e-09
3.81574e-08
1.6619e-09
3.79088e-08
1.61721e-09
3.76526e-08
1.57424e-09
3.73895e-08
1.53294e-09
3.71204e-08
1.49315e-09
3.68461e-08
1.45484e-09
3.65673e-08
1.41782e-09
3.62847e-08
1.38208e-09
3.59991e-08
1.34746e-09
3.57111e-08
1.31397e-09
3.54212e-08
1.28145e-09
3.51301e-08
1.24995e-09
3.48383e-08
1.2193e-09
3.45463e-08
1.1896e-09
3.42545e-08
1.16067e-09
3.39635e-08
1.13264e-09
3.36735e-08
1.10531e-09
3.33849e-08
1.07884e-09
3.3098e-08
1.05301e-09
3.28132e-08
1.02802e-09
3.25307e-08
1.00363e-09
3.22507e-08
9.80044e-10
3.19734e-08
9.56996e-10
3.16989e-08
9.34751e-10
3.14275e-08
9.12986e-10
3.11593e-08
8.9201e-10
3.08943e-08
8.71457e-10
3.06327e-08
8.51686e-10
3.03745e-08
8.32275e-10
3.01198e-08
8.13645e-10
2.98687e-08
7.95306e-10
2.96211e-08
7.77754e-10
2.93772e-08
7.60416e-10
2.91367e-08
7.43879e-10
2.89e-08
7.27475e-10
2.86668e-08
7.11888e-10
2.84373e-08
6.96352e-10
2.82113e-08
6.81657e-10
2.7989e-08
6.66922e-10
2.777e-08
6.53064e-10
2.75547e-08
6.3906e-10
2.73427e-08
6.25989e-10
2.71344e-08
6.1265e-10
2.69293e-08
6.00314e-10
2.67277e-08
5.87582e-10
2.65293e-08
5.75931e-10
2.63344e-08
5.63748e-10
2.61425e-08
5.52746e-10
2.59542e-08
5.41046e-10
2.57686e-08
5.30664e-10
2.55866e-08
5.19387e-10
2.54073e-08
5.09594e-10
2.52316e-08
4.98693e-10
2.50583e-08
4.89463e-10
2.48886e-08
4.7889e-10
2.47212e-08
4.70217e-10
2.45575e-08
4.59916e-10
2.43958e-08
4.51803e-10
2.42379e-08
4.41727e-10
2.40818e-08
4.34183e-10
2.39295e-08
4.24303e-10
2.37789e-08
4.1735e-10
2.36321e-08
4.07634e-10
2.34868e-08
4.01322e-10
2.33453e-08
3.91749e-10
2.3205e-08
3.86141e-10
2.30688e-08
3.76713e-10
2.29333e-08
3.71897e-10
2.2802e-08
3.62664e-10
2.26712e-08
3.58746e-10
2.25445e-08
3.49807e-10
2.2418e-08
3.4693e-10
2.22956e-08
3.38556e-10
2.21729e-08
3.36813e-10
2.20542e-08
3.29784e-10
2.19348e-08
3.29516e-10
3.25852e-10
4.03747e-08
2.19023e-09
-4.03163e-08
4.05288e-08
2.5906e-09
4.07781e-08
2.98415e-09
4.10415e-08
3.28163e-09
4.12745e-08
3.42322e-09
4.14776e-08
3.43709e-09
4.16581e-08
3.37396e-09
4.18088e-08
3.26191e-09
4.19187e-08
3.11254e-09
4.19848e-08
2.93897e-09
4.20145e-08
2.76043e-09
4.20184e-08
2.59568e-09
4.20053e-08
2.45561e-09
4.19795e-08
2.34068e-09
4.19436e-08
2.24607e-09
4.1899e-08
2.16656e-09
4.18469e-08
2.09824e-09
4.17876e-08
2.03818e-09
4.17211e-08
1.98432e-09
4.16472e-08
1.93503e-09
4.15657e-08
1.88929e-09
4.14764e-08
1.8463e-09
4.13792e-08
1.80565e-09
4.12742e-08
1.76695e-09
4.11613e-08
1.73008e-09
4.10408e-08
1.69476e-09
4.09128e-08
1.66096e-09
4.07775e-08
1.62843e-09
4.06352e-08
1.59716e-09
4.04861e-08
1.56689e-09
4.03305e-08
1.53766e-09
4.01688e-08
1.50921e-09
4.00011e-08
1.48163e-09
3.98279e-08
1.45466e-09
3.96494e-08
1.42844e-09
3.9466e-08
1.40268e-09
3.9278e-08
1.3776e-09
3.90858e-08
1.35289e-09
3.88896e-08
1.32881e-09
3.86899e-08
1.30503e-09
3.84869e-08
1.28186e-09
3.8281e-08
1.25892e-09
3.80724e-08
1.2366e-09
3.78616e-08
1.21445e-09
3.76487e-08
1.19294e-09
3.74341e-08
1.17155e-09
3.72181e-08
1.15083e-09
3.70009e-08
1.13017e-09
3.67827e-08
1.11021e-09
3.65639e-08
1.09024e-09
3.63446e-08
1.07103e-09
3.61251e-08
1.05175e-09
3.59055e-08
1.03327e-09
3.56861e-08
1.01464e-09
3.5467e-08
9.96899e-10
3.52485e-08
9.78895e-10
3.50305e-08
9.61863e-10
3.48135e-08
9.44459e-10
3.45973e-08
9.28122e-10
3.43824e-08
9.11291e-10
3.41684e-08
8.95635e-10
3.3956e-08
8.79342e-10
3.37447e-08
8.64356e-10
3.35352e-08
8.48556e-10
3.33269e-08
8.34229e-10
3.31207e-08
8.18879e-10
3.29158e-08
8.05193e-10
3.27131e-08
7.90255e-10
3.25119e-08
7.77192e-10
3.2313e-08
7.62623e-10
3.21156e-08
7.50178e-10
3.19207e-08
7.35919e-10
3.17273e-08
7.24095e-10
3.15366e-08
7.10087e-10
3.13473e-08
6.98879e-10
3.11609e-08
6.85081e-10
3.09759e-08
6.74489e-10
3.07939e-08
6.60852e-10
3.06132e-08
6.50896e-10
3.04358e-08
6.37356e-10
3.02595e-08
6.2807e-10
3.00867e-08
6.14573e-10
2.99149e-08
6.0599e-10
2.97467e-08
5.92508e-10
2.95793e-08
5.84676e-10
2.94158e-08
5.71168e-10
2.9253e-08
5.64167e-10
2.90941e-08
5.50616e-10
2.89357e-08
5.44532e-10
2.87815e-08
5.30953e-10
2.86275e-08
5.25895e-10
2.84778e-08
5.12372e-10
2.8328e-08
5.0846e-10
2.81827e-08
4.95151e-10
2.80371e-08
4.92541e-10
2.78958e-08
4.79817e-10
2.7754e-08
4.78643e-10
2.76164e-08
4.67366e-10
2.74779e-08
4.68064e-10
4.59736e-10
4.20229e-08
2.12689e-09
-4.19595e-08
4.2152e-08
2.46143e-09
4.2354e-08
2.78219e-09
4.25873e-08
3.04838e-09
4.28075e-08
3.20301e-09
4.30003e-08
3.24429e-09
4.31688e-08
3.20543e-09
4.33128e-08
3.11794e-09
4.34265e-08
2.99882e-09
4.35066e-08
2.85889e-09
4.35562e-08
2.71085e-09
4.35831e-08
2.56875e-09
4.35954e-08
2.44325e-09
4.35985e-08
2.33763e-09
4.35949e-08
2.24963e-09
4.35863e-08
2.1752e-09
4.35736e-08
2.11095e-09
4.35574e-08
2.05437e-09
4.35379e-08
2.00378e-09
4.35152e-08
1.9578e-09
4.34889e-08
1.91558e-09
4.34588e-08
1.87632e-09
4.34248e-08
1.83964e-09
4.33867e-08
1.80507e-09
4.33443e-08
1.77248e-09
4.32975e-08
1.74154e-09
4.32463e-08
1.71223e-09
4.31905e-08
1.68422e-09
4.31301e-08
1.65758e-09
4.3065e-08
1.63193e-09
4.29953e-08
1.60742e-09
4.29208e-08
1.58363e-09
4.28417e-08
1.56079e-09
4.27579e-08
1.53847e-09
4.26693e-08
1.51695e-09
4.25763e-08
1.49578e-09
4.24785e-08
1.47532e-09
4.23764e-08
1.45505e-09
4.22697e-08
1.43546e-09
4.21588e-08
1.41593e-09
4.20436e-08
1.39705e-09
4.19244e-08
1.37814e-09
4.18011e-08
1.35988e-09
4.16741e-08
1.34149e-09
4.15433e-08
1.32379e-09
4.1409e-08
1.30585e-09
4.12711e-08
1.28865e-09
4.11302e-08
1.27112e-09
4.0986e-08
1.25439e-09
4.0839e-08
1.23721e-09
4.06891e-08
1.22093e-09
4.05368e-08
1.20408e-09
4.03819e-08
1.18823e-09
4.02248e-08
1.17168e-09
4.00655e-08
1.15627e-09
3.99044e-08
1.13998e-09
3.97412e-08
1.125e-09
3.95767e-08
1.10896e-09
3.94104e-08
1.0944e-09
3.92431e-08
1.07859e-09
3.90743e-08
1.06446e-09
3.89048e-08
1.04885e-09
3.8734e-08
1.03515e-09
3.85629e-08
1.01971e-09
3.83906e-08
1.00646e-09
3.82184e-08
9.9114e-10
3.80452e-08
9.78351e-10
3.78723e-08
9.63125e-10
3.76987e-08
9.50795e-10
3.75257e-08
9.35636e-10
3.73521e-08
9.23788e-10
3.71794e-08
9.0864e-10
3.70062e-08
8.97303e-10
3.68342e-08
8.82109e-10
3.66617e-08
8.71302e-10
3.64908e-08
8.5603e-10
3.63195e-08
8.45776e-10
3.615e-08
8.30389e-10
3.59801e-08
8.20734e-10
3.58123e-08
8.05164e-10
3.56442e-08
7.96165e-10
3.54784e-08
7.80363e-10
3.53123e-08
7.72074e-10
3.51488e-08
7.56031e-10
3.4985e-08
7.48518e-10
3.48239e-08
7.32202e-10
3.46625e-08
7.25567e-10
3.45042e-08
7.08978e-10
3.43454e-08
7.03316e-10
3.41898e-08
6.86507e-10
3.40338e-08
6.81938e-10
3.38811e-08
6.6504e-10
3.37279e-08
6.61693e-10
3.35781e-08
6.4492e-10
3.34277e-08
6.42982e-10
3.32807e-08
6.26777e-10
3.31329e-08
6.2645e-10
3.29886e-08
6.11682e-10
3.28432e-08
6.13474e-10
6.01351e-10
4.37129e-08
2.06289e-09
-4.3649e-08
4.38267e-08
2.34764e-09
4.39936e-08
2.61537e-09
4.41956e-08
2.84638e-09
4.43981e-08
3.00048e-09
4.45806e-08
3.0618e-09
4.47389e-08
3.04716e-09
4.4874e-08
2.98281e-09
4.49844e-08
2.88837e-09
4.50679e-08
2.77541e-09
4.51254e-08
2.65341e-09
4.51617e-08
2.53239e-09
4.51837e-08
2.42129e-09
4.51966e-08
2.3247e-09
4.52036e-08
2.24263e-09
4.52064e-08
2.1724e-09
4.52061e-08
2.11131e-09
4.52033e-08
2.0571e-09
4.51987e-08
2.00842e-09
4.51924e-08
1.9641e-09
4.51844e-08
1.92353e-09
4.51749e-08
1.88591e-09
4.51635e-08
1.85099e-09
4.51504e-08
1.81821e-09
4.51353e-08
1.78754e-09
4.51183e-08
1.75851e-09
4.50993e-08
1.73126e-09
4.50782e-08
1.7053e-09
4.5055e-08
1.68086e-09
4.50295e-08
1.65741e-09
4.50016e-08
1.63526e-09
4.49715e-08
1.61383e-09
4.49387e-08
1.59353e-09
4.49035e-08
1.57371e-09
4.48655e-08
1.5549e-09
4.48249e-08
1.53638e-09
4.47815e-08
1.51878e-09
4.47352e-08
1.50128e-09
4.4686e-08
1.48467e-09
4.4634e-08
1.468e-09
4.45788e-08
1.45221e-09
4.45207e-08
1.43621e-09
4.44595e-08
1.42111e-09
4.43953e-08
1.40565e-09
4.4328e-08
1.39115e-09
4.42577e-08
1.37613e-09
4.41842e-08
1.36215e-09
4.41078e-08
1.34748e-09
4.40283e-08
1.33396e-09
4.39459e-08
1.31958e-09
4.38604e-08
1.30646e-09
4.37721e-08
1.29229e-09
4.36808e-08
1.27955e-09
4.35869e-08
1.26555e-09
4.349e-08
1.25317e-09
4.33907e-08
1.23927e-09
4.32885e-08
1.22723e-09
4.31841e-08
1.21341e-09
4.30768e-08
1.20168e-09
4.29675e-08
1.18788e-09
4.28555e-08
1.17646e-09
4.27417e-08
1.16264e-09
4.26253e-08
1.15155e-09
4.25074e-08
1.13766e-09
4.23869e-08
1.1269e-09
4.22652e-08
1.11289e-09
4.21411e-08
1.10246e-09
4.20159e-08
1.08829e-09
4.18885e-08
1.0782e-09
4.17603e-08
1.06384e-09
4.163e-08
1.05411e-09
4.14991e-08
1.0395e-09
4.13662e-08
1.03018e-09
4.12331e-08
1.01524e-09
4.10981e-08
1.00634e-09
4.0963e-08
9.91053e-10
4.08262e-08
9.82591e-10
4.06897e-08
9.66936e-10
4.05514e-08
9.58976e-10
4.04137e-08
9.42873e-10
4.02744e-08
9.3548e-10
4.01359e-08
9.1888e-10
3.99959e-08
9.12104e-10
3.98569e-08
8.95032e-10
3.97164e-08
8.88939e-10
3.95773e-08
8.71381e-10
3.94368e-08
8.66078e-10
3.92977e-08
8.48051e-10
3.91574e-08
8.43629e-10
3.90187e-08
8.25227e-10
3.88788e-08
8.218e-10
3.87406e-08
8.03215e-10
3.86014e-08
8.00916e-10
3.84639e-08
7.82391e-10
3.83254e-08
7.81455e-10
3.81887e-08
7.6348e-10
3.8051e-08
7.6416e-10
3.79151e-08
7.47584e-10
3.77782e-08
7.50441e-10
7.36366e-10
4.54512e-08
2.0006e-09
-4.53889e-08
4.55532e-08
2.24558e-09
4.56953e-08
2.47328e-09
4.58691e-08
2.67256e-09
4.60515e-08
2.81805e-09
4.62222e-08
2.89119e-09
4.63718e-08
2.89755e-09
4.64994e-08
2.85513e-09
4.66055e-08
2.78231e-09
4.66892e-08
2.69165e-09
4.67509e-08
2.59175e-09
4.67933e-08
2.48995e-09
4.68214e-08
2.39324e-09
4.68399e-08
2.30621e-09
4.68521e-08
2.23043e-09
4.68599e-08
2.16457e-09
4.68645e-08
2.10675e-09
4.68666e-08
2.05496e-09
4.68668e-08
2.00817e-09
4.68657e-08
1.96527e-09
4.68633e-08
1.92592e-09
4.68598e-08
1.88935e-09
4.68553e-08
1.85548e-09
4.68499e-08
1.82364e-09
4.68435e-08
1.79396e-09
4.68362e-08
1.76581e-09
4.68279e-08
1.73951e-09
4.68188e-08
1.7144e-09
4.68088e-08
1.69091e-09
4.67979e-08
1.66831e-09
4.6786e-08
1.64717e-09
4.67732e-08
1.62664e-09
4.67593e-08
1.60743e-09
4.67444e-08
1.58861e-09
4.67283e-08
1.571e-09
4.67111e-08
1.55357e-09
4.66926e-08
1.5373e-09
4.66728e-08
1.521e-09
4.66516e-08
1.50587e-09
4.66291e-08
1.49051e-09
4.6605e-08
1.47635e-09
4.65794e-08
1.46176e-09
4.65521e-08
1.44843e-09
4.65233e-08
1.43448e-09
4.64925e-08
1.42189e-09
4.64602e-08
1.40847e-09
4.64258e-08
1.39652e-09
4.63898e-08
1.38354e-09
4.63516e-08
1.37216e-09
4.63116e-08
1.35952e-09
4.62694e-08
1.34865e-09
4.62255e-08
1.33627e-09
4.61791e-08
1.32587e-09
4.6131e-08
1.31367e-09
4.60805e-08
1.30371e-09
4.60281e-08
1.29162e-09
4.59733e-08
1.28207e-09
4.59167e-08
1.27003e-09
4.58575e-08
1.26084e-09
4.57966e-08
1.24879e-09
4.57331e-08
1.23994e-09
4.56679e-08
1.22782e-09
4.56002e-08
1.21931e-09
4.55308e-08
1.20704e-09
4.54588e-08
1.19889e-09
4.53853e-08
1.18641e-09
4.53092e-08
1.17857e-09
4.52316e-08
1.16583e-09
4.51515e-08
1.15829e-09
4.50701e-08
1.14525e-09
4.49862e-08
1.13805e-09
4.49011e-08
1.12462e-09
4.48134e-08
1.1178e-09
4.47248e-08
1.10391e-09
4.46337e-08
1.09743e-09
4.45417e-08
1.08304e-09
4.44474e-08
1.07692e-09
4.43523e-08
1.06204e-09
4.42549e-08
1.05634e-09
4.41569e-08
1.04087e-09
4.40567e-08
1.03565e-09
4.39561e-08
1.01953e-09
4.38534e-08
1.01479e-09
4.37503e-08
9.98098e-10
4.36454e-08
9.93891e-10
4.35401e-08
9.76622e-10
4.34331e-08
9.73063e-10
4.3326e-08
9.55237e-10
4.32172e-08
9.52389e-10
4.31083e-08
9.34139e-10
4.2998e-08
9.32083e-10
4.28876e-08
9.13665e-10
4.27759e-08
9.12555e-10
4.26641e-08
8.94182e-10
4.25513e-08
8.94309e-10
4.24382e-08
8.76524e-10
4.23243e-08
8.78114e-10
4.22101e-08
8.61732e-10
4.20951e-08
8.65461e-10
8.51529e-10
4.72424e-08
1.94079e-09
-4.71826e-08
4.73347e-08
2.15327e-09
4.74587e-08
2.34932e-09
4.7609e-08
2.52223e-09
4.77713e-08
2.65573e-09
4.79285e-08
2.73402e-09
4.80695e-08
2.75653e-09
4.81909e-08
2.73376e-09
4.82927e-08
2.6805e-09
4.83754e-08
2.60897e-09
4.84393e-08
2.52783e-09
4.84861e-08
2.44311e-09
4.85191e-08
2.36026e-09
4.85421e-08
2.2832e-09
4.85583e-08
2.21426e-09
4.85697e-08
2.15316e-09
4.85775e-08
2.09895e-09
4.85826e-08
2.04991e-09
4.85854e-08
2.0053e-09
4.85866e-08
1.96405e-09
4.85865e-08
1.92607e-09
4.85853e-08
1.89057e-09
4.85831e-08
1.85769e-09
4.85801e-08
1.82664e-09
4.85763e-08
1.79774e-09
4.85719e-08
1.77021e-09
4.85668e-08
1.74455e-09
4.85613e-08
1.71991e-09
4.85553e-08
1.69695e-09
4.85489e-08
1.67473e-09
4.8542e-08
1.65406e-09
4.85347e-08
1.63387e-09
4.85271e-08
1.61512e-09
4.85191e-08
1.59661e-09
4.85106e-08
1.57949e-09
4.85018e-08
1.56237e-09
4.84924e-08
1.54664e-09
4.84827e-08
1.53069e-09
4.84724e-08
1.51616e-09
4.84618e-08
1.5012e-09
4.84504e-08
1.48772e-09
4.84386e-08
1.47358e-09
4.8426e-08
1.46104e-09
4.84128e-08
1.4476e-09
4.83988e-08
1.43589e-09
4.83842e-08
1.42306e-09
4.83687e-08
1.4121e-09
4.83524e-08
1.39977e-09
4.83351e-08
1.3895e-09
4.8317e-08
1.37759e-09
4.82977e-08
1.36794e-09
4.82777e-08
1.35635e-09
4.82562e-08
1.34729e-09
4.8234e-08
1.33594e-09
4.82102e-08
1.32743e-09
4.81856e-08
1.31626e-09
4.81594e-08
1.30826e-09
4.81322e-08
1.29721e-09
4.81034e-08
1.28966e-09
4.80736e-08
1.27865e-09
4.8042e-08
1.27153e-09
4.80093e-08
1.26047e-09
4.79749e-08
1.25379e-09
4.79393e-08
1.24262e-09
4.79018e-08
1.23636e-09
4.78632e-08
1.22501e-09
4.78226e-08
1.21913e-09
4.77809e-08
1.20755e-09
4.77372e-08
1.20199e-09
4.76924e-08
1.19011e-09
4.76455e-08
1.18492e-09
4.75975e-08
1.17266e-09
4.75474e-08
1.16788e-09
4.74961e-08
1.15517e-09
4.74428e-08
1.15072e-09
4.73883e-08
1.13752e-09
4.73319e-08
1.13336e-09
4.72743e-08
1.11968e-09
4.72147e-08
1.1159e-09
4.71539e-08
1.10164e-09
4.70913e-08
1.0983e-09
4.70274e-08
1.08338e-09
4.69618e-08
1.08038e-09
4.6895e-08
1.06496e-09
4.68265e-08
1.06235e-09
4.67567e-08
1.04639e-09
4.66855e-08
1.04432e-09
4.66129e-08
1.02783e-09
4.6539e-08
1.0263e-09
4.64637e-08
1.00948e-09
4.63872e-08
1.0085e-09
4.63093e-08
9.91636e-10
4.62304e-08
9.91464e-10
4.61499e-08
9.7466e-10
4.60686e-08
9.75598e-10
4.59856e-08
9.59537e-10
4.5902e-08
9.61711e-10
4.58167e-08
9.47061e-10
4.57307e-08
9.51383e-10
9.39162e-10
4.90909e-08
1.88361e-09
-4.90337e-08
4.91749e-08
2.06924e-09
4.92846e-08
2.23959e-09
4.9416e-08
2.39088e-09
4.95597e-08
2.51197e-09
4.97028e-08
2.59097e-09
4.98346e-08
2.62468e-09
4.995e-08
2.61836e-09
5.00479e-08
2.5826e-09
5.01289e-08
2.52798e-09
5.01937e-08
2.46303e-09
5.02436e-08
2.39328e-09
5.02805e-08
2.32331e-09
5.03075e-08
2.25623e-09
5.03272e-08
2.19455e-09
5.03417e-08
2.13863e-09
5.03523e-08
2.08835e-09
5.03599e-08
2.04237e-09
5.03649e-08
2.00026e-09
5.0368e-08
1.96097e-09
5.03694e-08
1.92461e-09
5.03697e-08
1.89037e-09
5.03687e-08
1.8586e-09
5.03669e-08
1.82843e-09
5.03643e-08
1.80037e-09
5.03611e-08
1.77346e-09
5.03572e-08
1.74842e-09
5.03529e-08
1.72421e-09
5.03481e-08
1.70172e-09
5.03431e-08
1.67978e-09
5.03377e-08
1.65947e-09
5.03321e-08
1.63945e-09
5.03262e-08
1.62098e-09
5.03203e-08
1.60257e-09
5.0314e-08
1.5857e-09
5.03078e-08
1.56864e-09
5.03013e-08
1.55314e-09
5.02947e-08
1.53723e-09
5.0288e-08
1.52293e-09
5.02812e-08
1.50799e-09
5.02741e-08
1.49477e-09
5.02671e-08
1.48066e-09
5.02597e-08
1.46841e-09
5.02523e-08
1.45502e-09
5.02445e-08
1.44365e-09
5.02367e-08
1.43089e-09
5.02285e-08
1.42031e-09
5.02201e-08
1.40809e-09
5.02114e-08
1.39826e-09
5.02025e-08
1.3865e-09
5.0193e-08
1.37737e-09
5.01834e-08
1.36597e-09
5.01732e-08
1.3575e-09
5.01628e-08
1.34639e-09
5.01516e-08
1.33855e-09
5.01402e-08
1.32767e-09
5.01281e-08
1.3204e-09
5.01156e-08
1.30972e-09
5.01022e-08
1.30298e-09
5.00885e-08
1.29241e-09
5.00738e-08
1.28617e-09
5.00587e-08
1.27561e-09
5.00426e-08
1.26988e-09
5.0026e-08
1.25926e-09
5.00083e-08
1.25403e-09
4.999e-08
1.24333e-09
4.99706e-08
1.23851e-09
4.99505e-08
1.22768e-09
4.99293e-08
1.2232e-09
4.99072e-08
1.21215e-09
4.98841e-08
1.2081e-09
4.986e-08
1.19672e-09
4.98348e-08
1.19313e-09
4.98085e-08
1.18139e-09
4.97811e-08
1.17812e-09
4.97526e-08
1.16601e-09
4.9723e-08
1.16297e-09
4.96922e-08
1.1505e-09
4.96603e-08
1.14785e-09
4.9627e-08
1.13486e-09
4.95927e-08
1.13265e-09
4.95569e-08
1.11913e-09
4.95202e-08
1.11712e-09
4.94819e-08
1.10328e-09
4.94427e-08
1.10155e-09
4.94018e-08
1.08726e-09
4.93601e-08
1.08604e-09
4.93166e-08
1.07134e-09
4.92723e-08
1.07054e-09
4.92261e-08
1.0557e-09
4.91794e-08
1.05523e-09
4.91305e-08
1.04052e-09
4.90811e-08
1.04086e-09
4.90295e-08
1.02622e-09
4.89776e-08
1.02755e-09
4.89232e-08
1.01393e-09
4.88686e-08
1.01633e-09
4.88116e-08
1.00404e-09
4.87543e-08
1.0087e-09
9.98847e-10
5.10001e-08
1.82907e-09
-5.09456e-08
5.1077e-08
1.99239e-09
5.1175e-08
2.14158e-09
5.12909e-08
2.275e-09
5.14183e-08
2.38458e-09
5.15475e-08
2.46171e-09
5.16697e-08
2.50254e-09
5.17789e-08
2.50914e-09
5.1873e-08
2.48852e-09
5.1952e-08
2.44894e-09
5.20168e-08
2.39823e-09
5.20685e-08
2.34163e-09
5.21084e-08
2.28335e-09
5.21387e-08
2.2259e-09
5.21616e-08
2.17165e-09
5.2179e-08
2.12125e-09
5.21922e-08
2.0752e-09
5.2202e-08
2.03254e-09
5.22091e-08
1.99319e-09
5.22139e-08
1.95612e-09
5.22169e-08
1.92163e-09
5.22184e-08
1.88887e-09
5.22186e-08
1.85838e-09
5.22178e-08
1.82922e-09
5.22161e-08
1.80209e-09
5.22137e-08
1.77591e-09
5.22105e-08
1.75156e-09
5.22069e-08
1.72784e-09
5.22028e-08
1.70585e-09
5.21983e-08
1.68422e-09
5.21936e-08
1.66426e-09
5.21886e-08
1.64443e-09
5.21833e-08
1.62622e-09
5.2178e-08
1.6079e-09
5.21725e-08
1.5912e-09
5.2167e-08
1.57417e-09
5.21613e-08
1.5588e-09
5.21557e-08
1.54286e-09
5.21499e-08
1.52868e-09
5.21443e-08
1.51367e-09
5.21385e-08
1.50055e-09
5.21328e-08
1.48635e-09
5.2127e-08
1.47419e-09
5.21213e-08
1.46071e-09
5.21155e-08
1.44942e-09
5.21099e-08
1.43657e-09
5.21041e-08
1.42609e-09
5.20984e-08
1.4138e-09
5.20926e-08
1.40408e-09
5.20868e-08
1.39225e-09
5.20809e-08
1.38326e-09
5.20751e-08
1.37181e-09
5.20691e-08
1.36351e-09
5.20631e-08
1.35238e-09
5.20569e-08
1.34473e-09
5.20507e-08
1.33389e-09
5.20443e-08
1.32682e-09
5.20378e-08
1.31623e-09
5.2031e-08
1.30972e-09
5.20242e-08
1.29929e-09
5.2017e-08
1.29333e-09
5.20097e-08
1.28295e-09
5.2002e-08
1.27755e-09
5.19941e-08
1.26718e-09
5.19858e-08
1.26228e-09
5.19772e-08
1.25192e-09
5.19683e-08
1.24744e-09
5.19589e-08
1.23708e-09
5.19492e-08
1.23294e-09
5.19389e-08
1.22242e-09
5.19282e-08
1.21877e-09
5.1917e-08
1.20798e-09
5.19053e-08
1.20479e-09
5.18929e-08
1.19381e-09
5.18801e-08
1.1909e-09
5.18664e-08
1.1797e-09
5.18524e-08
1.17698e-09
5.18374e-08
1.16552e-09
5.1822e-08
1.16321e-09
5.18056e-08
1.15132e-09
5.17887e-08
1.14947e-09
5.17706e-08
1.13725e-09
5.17523e-08
1.13544e-09
5.17325e-08
1.12309e-09
5.17125e-08
1.12156e-09
5.16909e-08
1.10883e-09
5.16691e-08
1.10782e-09
5.16456e-08
1.09484e-09
5.1622e-08
1.09417e-09
5.15964e-08
1.08129e-09
5.15709e-08
1.0808e-09
5.15432e-08
1.06814e-09
5.15155e-08
1.06863e-09
5.14856e-08
1.05605e-09
5.14558e-08
1.05739e-09
5.14235e-08
1.04618e-09
5.13913e-08
1.04857e-09
5.13568e-08
1.03849e-09
5.13223e-08
1.04328e-09
1.03568e-09
5.29736e-08
1.77721e-09
-5.29218e-08
5.30441e-08
1.92186e-09
5.31322e-08
2.05349e-09
5.32352e-08
2.17199e-09
5.33485e-08
2.27136e-09
5.34648e-08
2.34533e-09
5.35771e-08
2.39025e-09
5.36798e-08
2.40649e-09
5.37698e-08
2.39845e-09
5.38467e-08
2.37207e-09
5.39109e-08
2.33401e-09
5.39635e-08
2.28908e-09
5.40055e-08
2.24132e-09
5.40385e-08
2.19288e-09
5.40642e-08
2.14599e-09
5.40841e-08
2.10129e-09
5.40996e-08
2.0597e-09
5.41116e-08
2.02059e-09
5.41206e-08
1.9842e-09
5.41271e-08
1.94957e-09
5.41316e-08
1.91715e-09
5.41344e-08
1.88607e-09
5.41358e-08
1.85703e-09
5.4136e-08
1.82903e-09
5.41351e-08