/*--------------------------------*- C++ -*----------------------------------*\
| =========                 |                                                 |
| \\      /  F ield         | OpenFOAM: The Open Source CFD Toolbox           |
|  \\    /   O peration     | Version:  2.3.0                                 |
|   \\  /    A nd           | Web:      www.OpenFOAM.org                      |
|    \\/     M anipulation  |                                                 |
\*---------------------------------------------------------------------------*/
FoamFile
{
    version     2.0;
    format      ascii;
    class       volVectorField;
    location    "0.75";
    object      U;
}
// * * * * * * * * * * * * * * * * * * * * * * * * * * * * * * * * * * * * * //

dimensions      [0 1 -1 0 0 0 0];

internalField   nonuniform List<vector> 
3375
(
(0.175651 0.00438965 0)
(0.155161 0.00597594 0)
(0.136584 0.00611691 0)
(0.118464 0.00551684 0)
(0.100945 0.0047209 0)
(0.0848911 0.00383688 0)
(0.0713715 0.00286953 0)
(0.0607894 0.0018485 0)
(0.052946 0.000961791 0)
(0.0472964 0.000363294 0)
(0.0432707 4.6032e-05 0)
(0.0403962 -8.21809e-05 0)
(0.0382943 -0.00010541 0)
(0.0366824 -7.94561e-05 0)
(0.0353597 -3.58257e-05 0)
(0.0342001 6.81698e-06 0)
(0.0331344 3.94397e-05 0)
(0.0321314 6.01981e-05 0)
(0.0311808 7.09614e-05 0)
(0.030281 7.46702e-05 0)
(0.0294331 7.40219e-05 0)
(0.0286372 7.10315e-05 0)
(0.0278923 6.7015e-05 0)
(0.0271958 6.27405e-05 0)
(0.0265441 5.86092e-05 0)
(0.0259336 5.47903e-05 0)
(0.0253603 5.13289e-05 0)
(0.0248205 4.82084e-05 0)
(0.0243111 4.53935e-05 0)
(0.0238291 4.28408e-05 0)
(0.0233719 4.05142e-05 0)
(0.0229374 3.83791e-05 0)
(0.0225237 3.64113e-05 0)
(0.0221291 3.45873e-05 0)
(0.0217523 3.28921e-05 0)
(0.0213919 3.13101e-05 0)
(0.0210469 2.98317e-05 0)
(0.020716 2.84463e-05 0)
(0.0203987 2.71475e-05 0)
(0.0200938 2.59274e-05 0)
(0.0198008 2.47813e-05 0)
(0.0195188 2.3703e-05 0)
(0.0192474 2.26885e-05 0)
(0.0189856 2.17329e-05 0)
(0.0187333 2.08323e-05 0)
(0.0184897 1.99836e-05 0)
(0.0182545 1.91813e-05 0)
(0.018027 1.84257e-05 0)
(0.0178072 1.77084e-05 0)
(0.0175942 1.70338e-05 0)
(0.0173882 1.63899e-05 0)
(0.0171883 1.57862e-05 0)
(0.0169948 1.52059e-05 0)
(0.0168067 1.46642e-05 0)
(0.0166246 1.41391e-05 0)
(0.0164472 1.36523e-05 0)
(0.0162755 1.31746e-05 0)
(0.0161079 1.27369e-05 0)
(0.0159457 1.22995e-05 0)
(0.015787 1.19065e-05 0)
(0.0156335 1.15033e-05 0)
(0.0154829 1.11511e-05 0)
(0.0153375 1.07772e-05 0)
(0.0151944 1.04621e-05 0)
(0.0150564 1.0113e-05 0)
(0.0149202 9.83279e-06 0)
(0.0147892 9.50304e-06 0)
(0.0146592 9.25704e-06 0)
(0.0145348 8.94154e-06 0)
(0.0144105 8.72941e-06 0)
(0.0142923 8.42416e-06 0)
(0.0141732 8.24528e-06 0)
(0.0140609 7.94638e-06 0)
(0.0139466 7.80149e-06 0)
(0.0138399 7.50338e-06 0)
(0.0137299 7.39534e-06 0)
(0.0136287 7.09234e-06 0)
(0.0135224 7.02448e-06 0)
(0.0134265 6.71146e-06 0)
(0.0133235 6.68744e-06 0)
(0.0132329 6.35818e-06 0)
(0.0131327 6.38357e-06 0)
(0.0130474 6.0301e-06 0)
(0.0129492 6.11336e-06 0)
(0.0128693 5.72699e-06 0)
(0.0127726 5.87778e-06 0)
(0.0126982 5.44793e-06 0)
(0.012602 5.67973e-06 0)
(0.0125335 5.19319e-06 0)
(0.0124369 5.52242e-06 0)
(0.0123747 4.96266e-06 0)
(0.0122762 5.415e-06 0)
(0.0122211 4.75804e-06 0)
(0.0121191 5.36649e-06 0)
(0.012072 4.5814e-06 0)
(0.0119639 5.40051e-06 0)
(0.0119267 4.42552e-06 0)
(0.0118084 5.54801e-06 0)
(0.0117851 4.35428e-06 0)
(0.0116441 7.15834e-06 0)
(0.190874 0.00776586 0)
(0.189124 0.0108483 0)
(0.186656 0.0118906 0)
(0.182824 0.0117133 0)
(0.177356 0.0110791 0)
(0.170471 0.0101891 0)
(0.162814 0.0090331 0)
(0.15488 0.00761031 0)
(0.147052 0.00608165 0)
(0.139555 0.00466971 0)
(0.132519 0.00351431 0)
(0.126044 0.00264173 0)
(0.120173 0.00201575 0)
(0.114912 0.00158847 0)
(0.110214 0.00130767 0)
(0.106009 0.00112444 0)
(0.102224 0.00100009 0)
(0.098793 0.000908683 0)
(0.0956635 0.000835022 0)
(0.092792 0.000771179 0)
(0.0901439 0.000713515 0)
(0.0876915 0.000660633 0)
(0.0854118 0.000612131 0)
(0.0832856 0.000567914 0)
(0.0812968 0.000527886 0)
(0.0794309 0.000491831 0)
(0.0776759 0.000459434 0)
(0.0760207 0.000430305 0)
(0.0744564 0.000404054 0)
(0.0729743 0.000380297 0)
(0.0715677 0.000358707 0)
(0.0702299 0.000338984 0)
(0.0689557 0.000320894 0)
(0.0677401 0.000304223 0)
(0.0665789 0.000288814 0)
(0.0654679 0.000274517 0)
(0.0644042 0.000261225 0)
(0.0633841 0.000248831 0)
(0.0624052 0.000237261 0)
(0.0614646 0.000226433 0)
(0.0605604 0.000216294 0)
(0.0596897 0.000206777 0)
(0.0588515 0.000197845 0)
(0.058043 0.00018944 0)
(0.0572634 0.000181533 0)
(0.0565103 0.000174078 0)
(0.0557832 0.000167048 0)
(0.0550796 0.000160409 0)
(0.0543996 0.00015413 0)
(0.0537406 0.000148195 0)
(0.0531032 0.000142565 0)
(0.0524843 0.000137239 0)
(0.0518855 0.000132171 0)
(0.0513031 0.000127376 0)
(0.0507393 0.000122797 0)
(0.05019 0.000118466 0)
(0.0496584 0.000114311 0)
(0.0491392 0.000110391 0)
(0.048637 0.000106605 0)
(0.0481455 0.000103048 0)
(0.0476704 9.95837e-05 0)
(0.0472041 9.63522e-05 0)
(0.0467542 9.31691e-05 0)
(0.046311 9.02279e-05 0)
(0.0458845 8.72908e-05 0)
(0.0454626 8.46124e-05 0)
(0.0450579 8.18867e-05 0)
(0.0446555 7.94509e-05 0)
(0.0442714 7.6905e-05 0)
(0.043887 7.46951e-05 0)
(0.0435224 7.23036e-05 0)
(0.0431543 7.03037e-05 0)
(0.0428084 6.80434e-05 0)
(0.0424552 6.62434e-05 0)
(0.0421272 6.40881e-05 0)
(0.0417875 6.24857e-05 0)
(0.0414769 6.04106e-05 0)
(0.0411492 5.90063e-05 0)
(0.0408558 5.69904e-05 0)
(0.0405385 5.57864e-05 0)
(0.0402623 5.38072e-05 0)
(0.0399538 5.28124e-05 0)
(0.0396947 5.08444e-05 0)
(0.0393932 5.00772e-05 0)
(0.0391519 4.80952e-05 0)
(0.0388552 4.75779e-05 0)
(0.0386323 4.55541e-05 0)
(0.0383379 4.53206e-05 0)
(0.0381346 4.32238e-05 0)
(0.0378395 4.33161e-05 0)
(0.0376575 4.11117e-05 0)
(0.0373577 4.15973e-05 0)
(0.0371994 3.92402e-05 0)
(0.0368898 4.02001e-05 0)
(0.0367587 3.76518e-05 0)
(0.0364322 3.92019e-05 0)
(0.036334 3.64104e-05 0)
(0.035979 3.87424e-05 0)
(0.0359246 3.57539e-05 0)
(0.0355194 4.21349e-05 0)
(0.191971 0.00748303 0)
(0.192392 0.0101047 0)
(0.19346 0.01166 0)
(0.194528 0.0121433 0)
(0.194948 0.0120335 0)
(0.194417 0.0115951 0)
(0.192956 0.0108574 0)
(0.190695 0.00984056 0)
(0.187793 0.00865564 0)
(0.184408 0.0074713 0)
(0.180688 0.00642001 0)
(0.176781 0.00555274 0)
(0.172809 0.00485725 0)
(0.16887 0.00430408 0)
(0.165012 0.0038599 0)
(0.161258 0.00349517 0)
(0.157616 0.00318715 0)
(0.15409 0.00292017 0)
(0.150681 0.0026842 0)
(0.147388 0.00247301 0)
(0.144214 0.00228271 0)
(0.141158 0.00211078 0)
(0.138219 0.0019554 0)
(0.135396 0.00181511 0)
(0.132687 0.00168858 0)
(0.130088 0.00157449 0)
(0.127597 0.00147158 0)
(0.125208 0.00137858 0)
(0.122917 0.00129437 0)
(0.120721 0.00121789 0)
(0.118613 0.00114821 0)
(0.11659 0.0010845 0)
(0.114647 0.00102607 0)
(0.11278 0.000972283 0)
(0.110984 0.000922648 0)
(0.109256 0.000876687 0)
(0.107592 0.000834046 0)
(0.105988 0.000794362 0)
(0.104442 0.000757384 0)
(0.10295 0.000722828 0)
(0.10151 0.000690515 0)
(0.100117 0.00066021 0)
(0.0987726 0.00063179 0)
(0.0974708 0.000605055 0)
(0.0962121 0.000579918 0)
(0.0949919 0.000556208 0)
(0.0938113 0.000533861 0)
(0.0926653 0.000512733 0)
(0.0915557 0.000492775 0)
(0.0904771 0.000473867 0)
(0.0894324 0.000455966 0)
(0.0884153 0.000438976 0)
(0.08743 0.000422856 0)
(0.0864691 0.000407533 0)
(0.0855384 0.000392965 0)
(0.0846291 0.000379097 0)
(0.0837487 0.000365882 0)
(0.0828867 0.000353293 0)
(0.0820529 0.000341261 0)
(0.0812344 0.000329803 0)
(0.0804438 0.000318808 0)
(0.0796653 0.000308351 0)
(0.0789152 0.000298271 0)
(0.0781736 0.000288703 0)
(0.0774612 0.000279432 0)
(0.0767537 0.000270658 0)
(0.076077 0.000262096 0)
(0.0754007 0.000254041 0)
(0.0747578 0.000246101 0)
(0.0741104 0.000238698 0)
(0.0734997 0.000231308 0)
(0.0728786 0.000224497 0)
(0.072299 0.000217594 0)
(0.071702 0.000211328 0)
(0.0711525 0.000204848 0)
(0.0705771 0.000199095 0)
(0.0700572 0.000192983 0)
(0.0695011 0.000187717 0)
(0.0690104 0.000181926 0)
(0.0684711 0.000177126 0)
(0.0680099 0.000171615 0)
(0.0674846 0.000167272 0)
(0.0670534 0.000161997 0)
(0.0665389 0.000158119 0)
(0.0661388 0.000153046 0)
(0.0656318 0.000149645 0)
(0.0652643 0.000144743 0)
(0.0647605 0.000141849 0)
(0.064428 0.000137092 0)
(0.0639224 0.000134743 0)
(0.063628 0.000130117 0)
(0.0631142 0.000128386 0)
(0.0628623 0.000123889 0)
(0.0623322 0.000122845 0)
(0.0621289 0.000118535 0)
(0.0615715 0.000118276 0)
(0.0614255 0.00011425 0)
(0.0608254 0.000115086 0)
(0.0607493 0.000111544 0)
(0.0600855 0.000117681 0)
(0.193007 0.00705845 0)
(0.193382 0.00895653 0)
(0.194455 0.0104395 0)
(0.196027 0.0111649 0)
(0.197611 0.0113015 0)
(0.198846 0.0110836 0)
(0.199589 0.0106089 0)
(0.199818 0.00991823 0)
(0.199551 0.00907874 0)
(0.198827 0.0081979 0)
(0.19771 0.00737891 0)
(0.196285 0.00667893 0)
(0.194643 0.00610527 0)
(0.192858 0.00563585 0)
(0.190979 0.00524445 0)
(0.189031 0.00490958 0)
(0.187027 0.00461546 0)
(0.184976 0.00435099 0)
(0.182884 0.00410877 0)
(0.180758 0.00388399 0)
(0.178606 0.00367377 0)
(0.176434 0.00347637 0)
(0.174252 0.00329084 0)
(0.172066 0.00311655 0)
(0.169884 0.00295304 0)
(0.167712 0.00279981 0)
(0.165557 0.00265634 0)
(0.163422 0.00252203 0)
(0.161312 0.00239635 0)
(0.159231 0.00227865 0)
(0.157182 0.00216841 0)
(0.155166 0.00206505 0)
(0.153187 0.00196813 0)
(0.151244 0.00187711 0)
(0.149341 0.00179163 0)
(0.147475 0.00171124 0)
(0.145651 0.00163563 0)
(0.143865 0.00156439 0)
(0.142119 0.00149731 0)
(0.140412 0.001434 0)
(0.138746 0.00137431 0)
(0.137117 0.00131787 0)
(0.135527 0.00126459 0)
(0.133973 0.00121413 0)
(0.132458 0.00116642 0)
(0.130976 0.00112116 0)
(0.129532 0.00107832 0)
(0.128119 0.00103759 0)
(0.126742 0.000998997 0)
(0.125395 0.000962242 0)
(0.124083 0.000927372 0)
(0.122797 0.000894099 0)
(0.121547 0.000862501 0)
(0.120319 0.000832292 0)
(0.119127 0.000803579 0)
(0.117954 0.00077607 0)
(0.116816 0.000749904 0)
(0.115695 0.000724789 0)
(0.114609 0.000700874 0)
(0.113536 0.000677884 0)
(0.1125 0.000655966 0)
(0.111472 0.000634865 0)
(0.110482 0.000614728 0)
(0.109497 0.000595306 0)
(0.108552 0.000576759 0)
(0.107606 0.000558839 0)
(0.106705 0.000541706 0)
(0.105795 0.000525137 0)
(0.104935 0.000509264 0)
(0.10406 0.000493912 0)
(0.10324 0.000479173 0)
(0.102396 0.000464913 0)
(0.101616 0.000451199 0)
(0.1008 0.000437927 0)
(0.100059 0.000425132 0)
(0.0992684 0.000412767 0)
(0.0985664 0.000400801 0)
(0.0977986 0.000389271 0)
(0.0971356 0.000378065 0)
(0.0963873 0.000367303 0)
(0.0957641 0.000356801 0)
(0.0950317 0.000346757 0)
(0.0944497 0.000336905 0)
(0.0937291 0.000327553 0)
(0.0931903 0.000318319 0)
(0.0924769 0.000309633 0)
(0.0919839 0.000301003 0)
(0.0912722 0.000292978 0)
(0.0908286 0.000284958 0)
(0.090112 0.000277597 0)
(0.0897226 0.000270221 0)
(0.0889929 0.000263565 0)
(0.0886638 0.000256907 0)
(0.087911 0.000251002 0)
(0.0876499 0.000245208 0)
(0.0868612 0.000240208 0)
(0.0866779 0.000235383 0)
(0.0858374 0.000231953 0)
(0.0857434 0.00022826 0)
(0.0848333 0.000230591 0)
(0.193871 0.00676188 0)
(0.194217 0.00820749 0)
(0.19506 0.00948908 0)
(0.196376 0.0102698 0)
(0.197883 0.0105228 0)
(0.199284 0.0104046 0)
(0.200419 0.0100466 0)
(0.201246 0.00951988 0)
(0.201765 0.00887783 0)
(0.201985 0.00818904 0)
(0.20193 0.00752789 0)
(0.201646 0.00694665 0)
(0.201188 0.00646241 0)
(0.20061 0.00606434 0)
(0.199947 0.00573272 0)
(0.199217 0.00544966 0)
(0.198428 0.00520176 0)
(0.197581 0.00497934 0)
(0.196676 0.00477557 0)
(0.195712 0.00458571 0)
(0.194691 0.00440669 0)
(0.193614 0.00423653 0)
(0.192485 0.00407416 0)
(0.191307 0.00391886 0)
(0.190085 0.00377029 0)
(0.188822 0.00362808 0)
(0.187524 0.00349204 0)
(0.186192 0.00336179 0)
(0.184834 0.00323715 0)
(0.18345 0.00311771 0)
(0.182047 0.00300334 0)
(0.180626 0.00289364 0)
(0.179192 0.00278852 0)
(0.177746 0.00268762 0)
(0.176295 0.00259089 0)
(0.174836 0.002498 0)
(0.173378 0.00240895 0)
(0.171918 0.00232341 0)
(0.170462 0.00224142 0)
(0.169008 0.00216264 0)
(0.167564 0.00208717 0)
(0.166123 0.00201463 0)
(0.164697 0.00194518 0)
(0.163276 0.00187839 0)
(0.161873 0.00181448 0)
(0.160477 0.00175299 0)
(0.159101 0.00169418 0)
(0.157734 0.00163756 0)
(0.156389 0.00158343 0)
(0.155052 0.00153126 0)
(0.153741 0.00148141 0)
(0.152437 0.00143331 0)
(0.15116 0.00138739 0)
(0.14989 0.00134299 0)
(0.148651 0.00130064 0)
(0.147415 0.00125961 0)
(0.146213 0.00122053 0)
(0.145011 0.00118257 0)
(0.143847 0.00114645 0)
(0.14268 0.00111127 0)
(0.141553 0.00107785 0)
(0.14042 0.00104519 0)
(0.139331 0.00101424 0)
(0.13823 0.000983857 0)
(0.13718 0.000955153 0)
(0.13611 0.000926826 0)
(0.135099 0.000900166 0)
(0.134058 0.000873707 0)
(0.133085 0.000848907 0)
(0.132073 0.000824135 0)
(0.131139 0.000801047 0)
(0.130153 0.000777789 0)
(0.129258 0.000756284 0)
(0.128295 0.000734386 0)
(0.127441 0.000714336 0)
(0.1265 0.000693673 0)
(0.125686 0.000674973 0)
(0.124764 0.000655428 0)
(0.123993 0.000638004 0)
(0.123086 0.00061946 0)
(0.12236 0.000603255 0)
(0.121465 0.000585614 0)
(0.120786 0.000570583 0)
(0.119898 0.000553775 0)
(0.119269 0.0005399 0)
(0.118384 0.000523855 0)
(0.11781 0.000511152 0)
(0.116921 0.000495821 0)
(0.116405 0.000484332 0)
(0.115506 0.000469687 0)
(0.115055 0.000459489 0)
(0.114136 0.000445563 0)
(0.113758 0.000436766 0)
(0.112808 0.000423644 0)
(0.112511 0.000416395 0)
(0.111519 0.000404401 0)
(0.111312 0.000398733 0)
(0.110263 0.000388856 0)
(0.110157 0.000385021 0)
(0.109034 0.000380797 0)
(0.194591 0.00652749 0)
(0.194927 0.00769514 0)
(0.195622 0.00877536 0)
(0.196685 0.00952946 0)
(0.197958 0.00985256 0)
(0.199218 0.00981644 0)
(0.200313 0.00954214 0)
(0.201185 0.00911734 0)
(0.201832 0.00859722 0)
(0.202267 0.00803102 0)
(0.202508 0.00747224 0)
(0.202586 0.00696551 0)
(0.202541 0.00653259 0)
(0.202413 0.00617235 0)
(0.202234 0.00587199 0)
(0.202019 0.00561686 0)
(0.201777 0.00539507 0)
(0.201505 0.00519779 0)
(0.201203 0.00501881 0)
(0.200866 0.00485361 0)
(0.200494 0.00469917 0)
(0.200083 0.0045533 0)
(0.199635 0.00441472 0)
(0.199147 0.00428238 0)
(0.198622 0.0041558 0)
(0.198059 0.00403436 0)
(0.197461 0.00391785 0)
(0.196825 0.00380571 0)
(0.196157 0.0036978 0)
(0.195453 0.00359359 0)
(0.19472 0.00349302 0)
(0.193953 0.00339559 0)
(0.193161 0.00330134 0)
(0.192337 0.0032098 0)
(0.191491 0.0031211 0)
(0.190617 0.00303478 0)
(0.189724 0.00295109 0)
(0.188805 0.00286952 0)
(0.187871 0.00279044 0)
(0.186914 0.00271328 0)
(0.185947 0.00263851 0)
(0.184957 0.00256552 0)
(0.183962 0.00249485 0)
(0.182947 0.00242582 0)
(0.18193 0.00235907 0)
(0.180895 0.00229381 0)
(0.179863 0.00223081 0)
(0.178813 0.00216915 0)
(0.17777 0.00210974 0)
(0.17671 0.00205152 0)
(0.175661 0.00199554 0)
(0.174595 0.0019406 0)
(0.173546 0.0018879 0)
(0.172478 0.00183606 0)
(0.171433 0.00178648 0)
(0.170366 0.00173756 0)
(0.169327 0.00169095 0)
(0.168265 0.00164479 0)
(0.167236 0.00160098 0)
(0.16618 0.00155741 0)
(0.165165 0.00151625 0)
(0.164117 0.00147509 0)
(0.163119 0.00143643 0)
(0.16208 0.00139751 0)
(0.1611 0.00136121 0)
(0.160072 0.00132435 0)
(0.159114 0.00129028 0)
(0.158095 0.00125531 0)
(0.157162 0.00122333 0)
(0.156154 0.00119011 0)
(0.155247 0.00116011 0)
(0.154249 0.00112847 0)
(0.15337 0.00110036 0)
(0.152382 0.00107013 0)
(0.151535 0.00104382 0)
(0.150554 0.00101488 0)
(0.149741 0.000990282 0)
(0.148767 0.000962495 0)
(0.147991 0.00093957 0)
(0.14702 0.000912795 0)
(0.146285 0.000891517 0)
(0.145315 0.000865632 0)
(0.144625 0.00084598 0)
(0.143651 0.000820901 0)
(0.143011 0.000802886 0)
(0.142029 0.000778518 0)
(0.141443 0.000762195 0)
(0.140448 0.000738475 0)
(0.139923 0.000723908 0)
(0.138908 0.000700821 0)
(0.138449 0.000688106 0)
(0.137407 0.000665723 0)
(0.137023 0.000654972 0)
(0.135943 0.000633471 0)
(0.135642 0.00062481 0)
(0.134515 0.000604675 0)
(0.134305 0.000598147 0)
(0.133117 0.000580512 0)
(0.13301 0.000576569 0)
(0.131748 0.000564163 0)
(0.195211 0.00631887 0)
(0.195533 0.00728964 0)
(0.196126 0.00819402 0)
(0.196996 0.00887622 0)
(0.198055 0.00922924 0)
(0.199146 0.00926537 0)
(0.200135 0.00907072 0)
(0.200953 0.00873024 0)
(0.201586 0.00830269 0)
(0.202045 0.00783062 0)
(0.202351 0.00735383 0)
(0.202526 0.00690778 0)
(0.202604 0.00651492 0)
(0.202614 0.0061807 0)
(0.202588 0.00589873 0)
(0.202538 0.00565802 0)
(0.202478 0.0054485 0)
(0.202406 0.00526225 0)
(0.202324 0.00509392 0)
(0.202226 0.00493947 0)
(0.202115 0.00479631 0)
(0.201984 0.00466226 0)
(0.201837 0.00453611 0)
(0.201668 0.00441659 0)
(0.201483 0.0043032 0)
(0.201274 0.00419506 0)
(0.201048 0.00409199 0)
(0.200797 0.00399318 0)
(0.200529 0.00389861 0)
(0.200235 0.00380746 0)
(0.199925 0.00371984 0)
(0.199587 0.00363493 0)
(0.199233 0.00355299 0)
(0.198851 0.00347321 0)
(0.198454 0.003396 0)
(0.198028 0.00332051 0)
(0.197589 0.0032473 0)
(0.19712 0.00317548 0)
(0.19664 0.00310578 0)
(0.196129 0.00303718 0)
(0.195609 0.00297061 0)
(0.195059 0.00290492 0)
(0.194501 0.00284122 0)
(0.193913 0.00277821 0)
(0.193321 0.00271721 0)
(0.192697 0.00265671 0)
(0.192073 0.00259826 0)
(0.191416 0.00254015 0)
(0.190763 0.00248413 0)
(0.190076 0.00242828 0)
(0.189398 0.00237463 0)
(0.188682 0.00232094 0)
(0.187983 0.00226958 0)
(0.187242 0.00221797 0)
(0.186524 0.00216886 0)
(0.185761 0.00211924 0)
(0.185027 0.0020723 0)
(0.184244 0.00202458 0)
(0.183499 0.00197977 0)
(0.182698 0.00193387 0)
(0.181945 0.00189112 0)
(0.181128 0.00184694 0)
(0.180371 0.00180622 0)
(0.17954 0.00176367 0)
(0.178781 0.00172492 0)
(0.177938 0.00168388 0)
(0.177182 0.00164705 0)
(0.176327 0.00160743 0)
(0.175577 0.00157247 0)
(0.174712 0.00153417 0)
(0.173971 0.00150105 0)
(0.173096 0.00146392 0)
(0.172368 0.00143262 0)
(0.171483 0.00139655 0)
(0.170773 0.00136704 0)
(0.169877 0.00133193 0)
(0.169187 0.00130418 0)
(0.168281 0.00126992 0)
(0.167616 0.00124394 0)
(0.166697 0.00121041 0)
(0.166062 0.00118623 0)
(0.165128 0.00115331 0)
(0.164528 0.00113096 0)
(0.163576 0.0010986 0)
(0.163016 0.00107811 0)
(0.162044 0.00104624 0)
(0.161529 0.00102771 0)
(0.160532 0.000996284 0)
(0.160069 0.000979799 0)
(0.159042 0.000948862 0)
(0.158637 0.000934526 0)
(0.157574 0.000904226 0)
(0.157235 0.000892154 0)
(0.156129 0.000862763 0)
(0.155864 0.000853106 0)
(0.154707 0.000825216 0)
(0.154523 0.000818114 0)
(0.153304 0.000792883 0)
(0.15321 0.00078898 0)
(0.151921 0.00076843 0)
(0.195752 0.00612199 0)
(0.196056 0.00693915 0)
(0.196569 0.00769734 0)
(0.197293 0.00829528 0)
(0.198174 0.00864777 0)
(0.199107 0.00873839 0)
(0.199986 0.00861672 0)
(0.200736 0.00835239 0)
(0.201335 0.00800295 0)
(0.201784 0.00760925 0)
(0.202103 0.00720378 0)
(0.202309 0.00681413 0)
(0.202431 0.00646059 0)
(0.20249 0.00615178 0)
(0.202515 0.00588634 0)
(0.202518 0.00565697 0)
(0.202513 0.00545579 0)
(0.202499 0.00527595 0)
(0.202482 0.00511295 0)
(0.202457 0.00496326 0)
(0.202427 0.00482488 0)
(0.202387 0.00469574 0)
(0.202342 0.0045749 0)
(0.202285 0.00446092 0)
(0.202224 0.00435347 0)
(0.20215 0.00425139 0)
(0.202072 0.00415472 0)
(0.201979 0.00406237 0)
(0.201883 0.00397459 0)
(0.201771 0.00389023 0)
(0.201655 0.00380974 0)
(0.201521 0.00373191 0)
(0.201384 0.00365738 0)
(0.201227 0.00358487 0)
(0.201068 0.00351525 0)
(0.200887 0.00344715 0)
(0.200705 0.00338163 0)
(0.200498 0.00331719 0)
(0.200291 0.00325515 0)
(0.200056 0.00319382 0)
(0.199824 0.00313479 0)
(0.199562 0.00307613 0)
(0.199304 0.00301976 0)
(0.199013 0.00296344 0)
(0.198729 0.00290946 0)
(0.198409 0.00285523 0)
(0.1981 0.00280341 0)
(0.19775 0.00275107 0)
(0.197416 0.00270125 0)
(0.197037 0.00265061 0)
(0.196678 0.00260265 0)
(0.19627 0.00255356 0)
(0.195888 0.00250738 0)
(0.195452 0.00245972 0)
(0.195048 0.00241525 0)
(0.194583 0.00236892 0)
(0.194158 0.0023261 0)
(0.193666 0.00228099 0)
(0.193223 0.00223975 0)
(0.192704 0.00219578 0)
(0.192245 0.0021561 0)
(0.191699 0.00211318 0)
(0.191227 0.00207504 0)
(0.190655 0.00203308 0)
(0.190171 0.00199648 0)
(0.189574 0.00195538 0)
(0.189082 0.00192028 0)
(0.18846 0.00187997 0)
(0.187962 0.00184636 0)
(0.187316 0.00180677 0)
(0.186816 0.00177467 0)
(0.186146 0.00173568 0)
(0.185646 0.00170513 0)
(0.184952 0.00166663 0)
(0.184456 0.00163761 0)
(0.183738 0.00159955 0)
(0.183251 0.00157209 0)
(0.182507 0.0015344 0)
(0.182032 0.00150855 0)
(0.181262 0.00147112 0)
(0.180804 0.00144694 0)
(0.180007 0.00140969 0)
(0.17957 0.00138724 0)
(0.178743 0.00135017 0)
(0.178333 0.00132951 0)
(0.177475 0.00129259 0)
(0.177095 0.00127384 0)
(0.176204 0.00123709 0)
(0.175861 0.00122033 0)
(0.174932 0.00118387 0)
(0.174632 0.00116923 0)
(0.173662 0.00113329 0)
(0.173411 0.00112089 0)
(0.172395 0.00108582 0)
(0.172198 0.00107589 0)
(0.171132 0.00104234 0)
(0.170995 0.00103513 0)
(0.169872 0.00100427 0)
(0.169803 0.00100055 0)
(0.168617 0.000973859 0)
(0.196226 0.00593215 0)
(0.19651 0.00662498 0)
(0.196958 0.0072647 0)
(0.197568 0.00778354 0)
(0.198307 0.00811873 0)
(0.199101 0.00824506 0)
(0.199873 0.00818543 0)
(0.200553 0.00798985 0)
(0.201114 0.00770927 0)
(0.201546 0.00738287 0)
(0.201866 0.00703979 0)
(0.202087 0.00670238 0)
(0.202232 0.00638792 0)
(0.202319 0.00610573 0)
(0.20237 0.00585784 0)
(0.202396 0.00564014 0)
(0.202414 0.00544722 0)
(0.20242 0.00527331 0)
(0.202425 0.00511488 0)
(0.20242 0.0049687 0)
(0.202415 0.0048334 0)
(0.2024 0.00470696 0)
(0.202386 0.00458886 0)
(0.202361 0.00447746 0)
(0.202339 0.00437273 0)
(0.202305 0.00427321 0)
(0.202276 0.00417928 0)
(0.202234 0.0040895 0)
(0.202197 0.00400454 0)
(0.202147 0.00392285 0)
(0.202103 0.00384536 0)
(0.202044 0.00377036 0)
(0.201992 0.00369908 0)
(0.201923 0.00362965 0)
(0.201863 0.00356357 0)
(0.201784 0.00349878 0)
(0.201715 0.00343709 0)
(0.201624 0.00337621 0)
(0.201545 0.00331829 0)
(0.20144 0.00326073 0)
(0.20135 0.00320609 0)
(0.201231 0.00315136 0)
(0.20113 0.00309959 0)
(0.200995 0.00304733 0)
(0.200881 0.00299812 0)
(0.200729 0.00294802 0)
(0.200602 0.00290109 0)
(0.200432 0.00285288 0)
(0.200291 0.00280803 0)
(0.200101 0.00276147 0)
(0.199946 0.00271851 0)
(0.199736 0.00267338 0)
(0.199567 0.00263218 0)
(0.199336 0.00258831 0)
(0.199151 0.00254876 0)
(0.198898 0.002506 0)
(0.1987 0.002468 0)
(0.198423 0.00242621 0)
(0.198212 0.00238965 0)
(0.197911 0.0023487 0)
(0.197687 0.00231351 0)
(0.197362 0.00227326 0)
(0.197125 0.00223944 0)
(0.196775 0.00219977 0)
(0.196527 0.0021673 0)
(0.196151 0.00212809 0)
(0.195894 0.0020969 0)
(0.195491 0.00205807 0)
(0.195226 0.0020281 0)
(0.194796 0.00198958 0)
(0.194525 0.00196089 0)
(0.194068 0.00192254 0)
(0.193793 0.00189517 0)
(0.193307 0.00185688 0)
(0.193031 0.00183079 0)
(0.192516 0.0017925 0)
(0.19224 0.0017677 0)
(0.191696 0.0017294 0)
(0.191424 0.00170597 0)
(0.190849 0.00166754 0)
(0.190583 0.00164554 0)
(0.189976 0.00160691 0)
(0.189721 0.00158636 0)
(0.189081 0.00154762 0)
(0.188839 0.00152858 0)
(0.188164 0.00148972 0)
(0.18794 0.00147233 0)
(0.187228 0.00143342 0)
(0.187025 0.00141774 0)
(0.186275 0.00137896 0)
(0.186097 0.0013651 0)
(0.185307 0.00132677 0)
(0.185158 0.0013149 0)
(0.184326 0.00127739 0)
(0.184209 0.0012678 0)
(0.183331 0.00123182 0)
(0.183251 0.00122482 0)
(0.182326 0.00119152 0)
(0.182286 0.001188 0)
(0.18131 0.00115852 0)
(0.196644 0.00574902 0)
(0.196907 0.00634022 0)
(0.197301 0.00688494 0)
(0.197821 0.00733522 0)
(0.198445 0.00764592 0)
(0.199121 0.00779222 0)
(0.199794 0.00778141 0)
(0.200405 0.00764576 0)
(0.200924 0.00742637 0)
(0.201336 0.00715879 0)
(0.201653 0.0068703 0)
(0.20188 0.0065802 0)
(0.202041 0.0063033 0)
(0.202146 0.00604828 0)
(0.202218 0.00581915 0)
(0.202261 0.0056142 0)
(0.202293 0.00543042 0)
(0.20231 0.00526319 0)
(0.202326 0.00510995 0)
(0.202331 0.00496768 0)
(0.202336 0.00483561 0)
(0.20233 0.00471169 0)
(0.202327 0.0045959 0)
(0.202312 0.00448636 0)
(0.202301 0.00438349 0)
(0.20228 0.00428543 0)
(0.202264 0.00419304 0)
(0.202237 0.00410441 0)
(0.202218 0.00402076 0)
(0.202186 0.00394003 0)
(0.202165 0.00386376 0)
(0.202129 0.00378966 0)
(0.202105 0.00371963 0)
(0.202064 0.0036511 0)
(0.202038 0.00358636 0)
(0.201993 0.00352256 0)
(0.201965 0.00346238 0)
(0.201915 0.0034026 0)
(0.201884 0.00334638 0)
(0.201829 0.00329007 0)
(0.201796 0.00323734 0)
(0.201734 0.00318401 0)
(0.201697 0.00313439 0)
(0.201629 0.00308368 0)
(0.201589 0.00303683 0)
(0.201511 0.00298843 0)
(0.201467 0.0029441 0)
(0.201381 0.00289773 0)
(0.201333 0.00285568 0)
(0.201236 0.00281108 0)
(0.201183 0.00277114 0)
(0.201075 0.00272806 0)
(0.201016 0.00269005 0)
(0.200896 0.0026483 0)
(0.200832 0.0026121 0)
(0.200697 0.00257149 0)
(0.200627 0.00253698 0)
(0.200478 0.00249737 0)
(0.200402 0.00246439 0)
(0.200236 0.00242561 0)
(0.200155 0.00239408 0)
(0.199972 0.00235594 0)
(0.199884 0.00232583 0)
(0.199683 0.00228819 0)
(0.19959 0.00225945 0)
(0.199369 0.00222219 0)
(0.19927 0.00219472 0)
(0.199028 0.00215773 0)
(0.198925 0.00213141 0)
(0.198662 0.00209458 0)
(0.198554 0.00206948 0)
(0.198268 0.00203266 0)
(0.198158 0.0020088 0)
(0.197847 0.0019719 0)
(0.197734 0.00194916 0)
(0.197399 0.0019121 0)
(0.197285 0.00189044 0)
(0.196923 0.00185323 0)
(0.19681 0.00183275 0)
(0.196421 0.00179526 0)
(0.19631 0.00177603 0)
(0.195893 0.00173818 0)
(0.195785 0.00172007 0)
(0.195339 0.00168205 0)
(0.195236 0.00166514 0)
(0.194759 0.00162692 0)
(0.194664 0.00161137 0)
(0.194156 0.00157302 0)
(0.194069 0.00155885 0)
(0.193529 0.00152063 0)
(0.193453 0.00150786 0)
(0.192879 0.00147017 0)
(0.192816 0.00145907 0)
(0.192208 0.00142216 0)
(0.192159 0.0014131 0)
(0.191516 0.00137783 0)
(0.191482 0.00137104 0)
(0.190803 0.00133842 0)
(0.190787 0.001335 0)
(0.190072 0.00130604 0)
(0.197016 0.00557331 0)
(0.197258 0.00608143 0)
(0.197605 0.00654942 0)
(0.198052 0.00694189 0)
(0.198583 0.00722619 0)
(0.19916 0.00738098 0)
(0.199745 0.00740595 0)
(0.200288 0.00732014 0)
(0.200764 0.00715432 0)
(0.201153 0.00693858 0)
(0.201462 0.00669811 0)
(0.201692 0.00645035 0)
(0.201863 0.00620856 0)
(0.201982 0.00598042 0)
(0.202068 0.0057709 0)
(0.202125 0.00557983 0)
(0.202169 0.00540627 0)
(0.202196 0.00524668 0)
(0.202221 0.00509953 0)
(0.202232 0.00496196 0)
(0.202244 0.00483378 0)
(0.202244 0.00471283 0)
(0.202246 0.00459965 0)
(0.202236 0.0044921 0)
(0.202232 0.0043911 0)
(0.202215 0.0042944 0)
(0.202205 0.00420337 0)
(0.202183 0.00411563 0)
(0.20217 0.00403298 0)
(0.202144 0.00395279 0)
(0.20213 0.00387726 0)
(0.2021 0.00380348 0)
(0.202085 0.00373405 0)
(0.202053 0.00366571 0)
(0.202037 0.00360151 0)
(0.202003 0.00353782 0)
(0.201987 0.00347819 0)
(0.20195 0.0034185 0)
(0.201935 0.00336288 0)
(0.201895 0.00330666 0)
(0.201881 0.00325461 0)
(0.201838 0.00320143 0)
(0.201824 0.00315259 0)
(0.201779 0.00310209 0)
(0.201765 0.00305616 0)
(0.201716 0.00300804 0)
(0.201703 0.00296477 0)
(0.201649 0.00291878 0)
(0.201636 0.00287794 0)
(0.201578 0.00283382 0)
(0.201566 0.00279525 0)
(0.201502 0.00275275 0)
(0.201489 0.00271628 0)
(0.201419 0.0026752 0)
(0.201406 0.0026407 0)
(0.201328 0.00260088 0)
(0.201316 0.0025682 0)
(0.20123 0.00252949 0)
(0.201216 0.0024985 0)
(0.201121 0.00246071 0)
(0.201107 0.0024313 0)
(0.201002 0.00239423 0)
(0.200987 0.00236636 0)
(0.200871 0.00232986 0)
(0.200856 0.00230346 0)
(0.200727 0.00226744 0)
(0.200711 0.00224235 0)
(0.200569 0.00220672 0)
(0.200551 0.00218278 0)
(0.200396 0.00214737 0)
(0.200377 0.00212468 0)
(0.200206 0.00208931 0)
(0.200188 0.00206789 0)
(0.2 0.00203252 0)
(0.199981 0.00201214 0)
(0.199776 0.00197671 0)
(0.199756 0.00195725 0)
(0.199533 0.00192175 0)
(0.199513 0.0019034 0)
(0.199271 0.00186765 0)
(0.199252 0.00185046 0)
(0.198989 0.00181444 0)
(0.198971 0.00179808 0)
(0.198688 0.00176205 0)
(0.19867 0.00174664 0)
(0.198365 0.00171048 0)
(0.198349 0.00169626 0)
(0.198022 0.00166007 0)
(0.198008 0.00164694 0)
(0.197658 0.00161106 0)
(0.197645 0.00159894 0)
(0.197272 0.00156375 0)
(0.197263 0.00155317 0)
(0.196865 0.00151873 0)
(0.196859 0.00150995 0)
(0.196437 0.00147744 0)
(0.196433 0.0014706 0)
(0.195987 0.00144061 0)
(0.195986 0.00143715 0)
(0.195516 0.00141085 0)
(0.197346 0.00540578 0)
(0.197568 0.00584571 0)
(0.197876 0.00625099 0)
(0.198262 0.00659493 0)
(0.198717 0.0068535 0)
(0.199212 0.00700928 0)
(0.199719 0.00705895 0)
(0.200199 0.00701283 0)
(0.200632 0.00689277 0)
(0.200995 0.00672259 0)
(0.201292 0.00652465 0)
(0.201521 0.00631477 0)
(0.201698 0.00610532 0)
(0.201825 0.00590313 0)
(0.201924 0.00571355 0)
(0.201991 0.00553726 0)
(0.202046 0.00537491 0)
(0.202082 0.00522387 0)
(0.202114 0.00508367 0)
(0.202131 0.00495157 0)
(0.202149 0.00482798 0)
(0.202154 0.00471059 0)
(0.202161 0.00460047 0)
(0.202155 0.00449526 0)
(0.202155 0.00439639 0)
(0.202141 0.00430126 0)
(0.202135 0.00421175 0)
(0.202116 0.00412502 0)
(0.202107 0.00404342 0)
(0.202084 0.00396382 0)
(0.202073 0.00388901 0)
(0.202046 0.00381551 0)
(0.202034 0.00374656 0)
(0.202005 0.00367831 0)
(0.201993 0.00361445 0)
(0.201962 0.00355069 0)
(0.20195 0.00349131 0)
(0.201918 0.00343145 0)
(0.201907 0.00337605 0)
(0.201873 0.00331959 0)
(0.201863 0.00326775 0)
(0.201828 0.00321431 0)
(0.20182 0.00316569 0)
(0.201783 0.00311492 0)
(0.201776 0.00306923 0)
(0.201738 0.00302088 0)
(0.201732 0.00297788 0)
(0.201692 0.00293169 0)
(0.201689 0.00289119 0)
(0.201646 0.00284691 0)
(0.201645 0.00280877 0)
(0.2016 0.00276616 0)
(0.201601 0.00273021 0)
(0.201553 0.00268909 0)
(0.201555 0.00265518 0)
(0.201504 0.00261542 0)
(0.201508 0.00258339 0)
(0.201453 0.00254487 0)
(0.201459 0.00251459 0)
(0.201399 0.0024771 0)
(0.201407 0.00244851 0)
(0.201342 0.00241182 0)
(0.201352 0.00238485 0)
(0.201281 0.00234885 0)
(0.201293 0.00232339 0)
(0.201215 0.00228805 0)
(0.201228 0.0022639 0)
(0.201144 0.00222914 0)
(0.201158 0.00220618 0)
(0.201066 0.00217173 0)
(0.201081 0.00215009 0)
(0.20098 0.00211578 0)
(0.200997 0.00209542 0)
(0.200886 0.00206134 0)
(0.200904 0.00204195 0)
(0.200784 0.00200804 0)
(0.200802 0.00198945 0)
(0.200671 0.00195561 0)
(0.200689 0.00193815 0)
(0.200548 0.00190417 0)
(0.200567 0.00188783 0)
(0.200413 0.00185387 0)
(0.200431 0.00183808 0)
(0.200265 0.00180437 0)
(0.200283 0.00178945 0)
(0.200105 0.00175569 0)
(0.200122 0.00174192 0)
(0.19993 0.00170831 0)
(0.199946 0.00169544 0)
(0.19974 0.00166247 0)
(0.199755 0.00165031 0)
(0.199535 0.00161813 0)
(0.199548 0.00160766 0)
(0.199313 0.00157622 0)
(0.199324 0.00156729 0)
(0.199074 0.00153821 0)
(0.199082 0.00153114 0)
(0.198817 0.00150425 0)