/*--------------------------------*- C++ -*----------------------------------*\
| =========                 |                                                 |
| \\      /  F ield         | OpenFOAM: The Open Source CFD Toolbox           |
|  \\    /   O peration     | Version:  2.3.0                                 |
|   \\  /    A nd           | Web:      www.OpenFOAM.org                      |
|    \\/     M anipulation  |                                                 |
\*---------------------------------------------------------------------------*/
FoamFile
{
    version     2.0;
    format      ascii;
    class       volVectorField;
    location    "0.2";
    object      U_0;
}
// * * * * * * * * * * * * * * * * * * * * * * * * * * * * * * * * * * * * * //

dimensions      [0 1 -1 0 0 0 0];

internalField   nonuniform List<vector> 
2000
(
(0.175533 0.00442252 0)
(0.154824 0.00603122 0)
(0.13609 0.00616322 0)
(0.117844 0.00554746 0)
(0.100195 0.00474626 0)
(0.0840234 0.00384831 0)
(0.0704483 0.00285679 0)
(0.0598723 0.00180737 0)
(0.0520816 0.000896859 0)
(0.0465172 0.000284706 0)
(0.0425959 -3.52123e-05 0)
(0.0398316 -0.000155782 0)
(0.037831 -0.000165031 0)
(0.0363063 -0.000125149 0)
(0.0350566 -6.93071e-05 0)
(0.0339567 -1.61397e-05 0)
(0.0329383 2.4754e-05 0)
(0.0319723 5.10771e-05 0)
(0.0310526 6.50699e-05 0)
(0.030182 7.03955e-05 0)
(0.0293639 7.03216e-05 0)
(0.0286007 6.71512e-05 0)
(0.0278932 6.24282e-05 0)
(0.0272404 5.7292e-05 0)
(0.0266396 5.23272e-05 0)
(0.0260875 4.7623e-05 0)
(0.0255808 4.33128e-05 0)
(0.0251156 3.95622e-05 0)
(0.0246877 3.62468e-05 0)
(0.0242939 3.31989e-05 0)
(0.0239315 3.04214e-05 0)
(0.0235982 2.78713e-05 0)
(0.023292 2.5452e-05 0)
(0.0230111 2.31547e-05 0)
(0.0227543 2.09835e-05 0)
(0.0225202 1.88905e-05 0)
(0.0223079 1.68262e-05 0)
(0.0221169 1.47889e-05 0)
(0.0219463 1.28291e-05 0)
(0.0217956 1.09562e-05 0)
(0.0216642 9.1295e-06 0)
(0.0215519 7.3801e-06 0)
(0.0214584 5.79062e-06 0)
(0.021383 4.35877e-06 0)
(0.0213253 2.95455e-06 0)
(0.0212851 1.54624e-06 0)
(0.0212622 2.46531e-07 0)
(0.0212557 -1.29107e-06 0)
(0.0212644 -2.81335e-06 0)
(0.0212862 -3.73546e-06 0)
(0.0213191 -4.92576e-06 0)
(0.0213609 -5.73489e-06 0)
(0.0214085 -6.30082e-06 0)
(0.0214596 -6.5119e-06 0)
(0.0215115 -6.41279e-06 0)
(0.0215622 -6.09149e-06 0)
(0.0216103 -5.61884e-06 0)
(0.0216548 -5.06903e-06 0)
(0.0216952 -4.50243e-06 0)
(0.0217316 -3.95739e-06 0)
(0.021764 -3.45386e-06 0)
(0.0217926 -3.00034e-06 0)
(0.021818 -2.60123e-06 0)
(0.0218402 -2.25509e-06 0)
(0.0218598 -1.95671e-06 0)
(0.0218771 -1.69798e-06 0)
(0.0218922 -1.47168e-06 0)
(0.0219054 -1.27246e-06 0)
(0.0219169 -1.09525e-06 0)
(0.0219268 -9.3791e-07 0)
(0.0219354 -7.99014e-07 0)
(0.0219427 -6.76651e-07 0)
(0.0219488 -5.68708e-07 0)
(0.021954 -4.72586e-07 0)
(0.0219583 -3.87015e-07 0)
(0.0219618 -3.09712e-07 0)
(0.0219646 -2.41473e-07 0)
(0.0219668 -1.80664e-07 0)
(0.0219685 -1.29572e-07 0)
(0.0219697 -8.66565e-08 0)
(0.0219705 -5.35484e-08 0)
(0.021971 -2.8628e-08 0)
(0.0219714 -1.07808e-08 0)
(0.0219715 5.5906e-10 0)
(0.0219716 8.1784e-09 0)
(0.0219715 1.46267e-08 0)
(0.0219715 1.70822e-08 0)
(0.0219714 1.77967e-08 0)
(0.0219713 1.72068e-08 0)
(0.0219711 1.62458e-08 0)
(0.021971 1.48374e-08 0)
(0.0219709 1.29063e-08 0)
(0.0219708 1.14946e-08 0)
(0.0219707 9.84214e-09 0)
(0.0219707 8.3448e-09 0)
(0.0219706 6.58441e-09 0)
(0.0219705 5.5503e-09 0)
(0.0219705 3.44797e-09 0)
(0.0219705 2.00405e-09 0)
(0.0219704 -1.78787e-10 0)
(0.190948 0.0078378 0)
(0.189244 0.0109741 0)
(0.186899 0.0120642 0)
(0.183293 0.0119013 0)
(0.178127 0.0112797 0)
(0.171587 0.0104104 0)
(0.164283 0.00926927 0)
(0.156636 0.00784155 0)
(0.148996 0.00628771 0)
(0.14161 0.00483656 0)
(0.134628 0.00363675 0)
(0.128164 0.00272647 0)
(0.122263 0.00207348 0)
(0.116948 0.00162617 0)
(0.112182 0.00132977 0)
(0.107905 0.00113634 0)
(0.104053 0.00100615 0)
(0.100566 0.000909856 0)
(0.097395 0.00083055 0)
(0.0945 0.000760755 0)
(0.0918477 0.000697145 0)
(0.0894112 0.000637911 0)
(0.0871686 0.000582474 0)
(0.0851014 0.000531092 0)
(0.0831938 0.000483744 0)
(0.081432 0.000440097 0)
(0.0798035 0.0004004 0)
(0.0782974 0.000364947 0)
(0.0769035 0.000333086 0)
(0.0756134 0.000303898 0)
(0.0744198 0.000277083 0)
(0.0733167 0.000252511 0)
(0.0722987 0.000229768 0)
(0.0713612 0.000208489 0)
(0.0705002 0.000188493 0)
(0.0697124 0.000169587 0)
(0.068995 0.000151497 0)
(0.0683455 0.000134083 0)
(0.0677617 0.000117464 0)
(0.0672417 0.000101648 0)
(0.0667836 8.63648e-05 0)
(0.0663857 7.15935e-05 0)
(0.0660466 5.76356e-05 0)
(0.0657639 4.45351e-05 0)
(0.0655358 3.20009e-05 0)
(0.0653604 2.00843e-05 0)
(0.0652352 9.23592e-06 0)
(0.0651565 -7.69306e-07 0)
(0.0651202 -1.04248e-05 0)
(0.0651207 -2.01901e-05 0)
(0.065152 -2.7249e-05 0)
(0.0652084 -3.13517e-05 0)
(0.0652828 -3.3711e-05 0)
(0.0653689 -3.43034e-05 0)
(0.0654612 -3.34465e-05 0)
(0.0655547 -3.16192e-05 0)
(0.0656462 -2.91806e-05 0)
(0.0657331 -2.6446e-05 0)
(0.0658143 -2.36657e-05 0)
(0.065889 -2.09947e-05 0)
(0.0659571 -1.85124e-05 0)
(0.0660188 -1.62543e-05 0)
(0.0660745 -1.42353e-05 0)
(0.0661247 -1.24476e-05 0)
(0.0661697 -1.08711e-05 0)
(0.0662099 -9.47655e-06 0)
(0.0662457 -8.23696e-06 0)
(0.0662775 -7.13169e-06 0)
(0.0663055 -6.14054e-06 0)
(0.0663299 -5.25327e-06 0)
(0.0663511 -4.46281e-06 0)
(0.0663692 -3.76135e-06 0)
(0.0663846 -3.14068e-06 0)
(0.0663976 -2.5913e-06 0)
(0.0664082 -2.10784e-06 0)
(0.0664169 -1.68152e-06 0)
(0.0664239 -1.31285e-06 0)
(0.0664293 -9.9436e-07 0)
(0.0664335 -7.30626e-07 0)
(0.0664366 -5.13266e-07 0)
(0.0664389 -3.43692e-07 0)
(0.0664405 -2.14276e-07 0)
(0.0664416 -1.18516e-07 0)
(0.0664423 -5.25532e-08 0)
(0.0664428 -7.66755e-09 0)
(0.066443 2.23303e-08 0)
(0.0664431 3.91971e-08 0)
(0.0664431 5.14633e-08 0)
(0.0664431 5.46825e-08 0)
(0.066443 5.55742e-08 0)
(0.0664429 5.25204e-08 0)
(0.0664428 4.80166e-08 0)
(0.0664427 4.28944e-08 0)
(0.0664426 3.79408e-08 0)
(0.0664425 3.21204e-08 0)
(0.0664424 2.6128e-08 0)
(0.0664423 2.20365e-08 0)
(0.0664423 1.56711e-08 0)
(0.0664422 1.40851e-08 0)
(0.0664422 -7.61098e-10 0)
(0.192199 0.00753825 0)
(0.192567 0.0100822 0)
(0.193576 0.0116314 0)
(0.194693 0.012128 0)
(0.195313 0.0120395 0)
(0.195129 0.0116369 0)
(0.194118 0.0109456 0)
(0.19233 0.00998417 0)
(0.18987 0.00885317 0)
(0.186895 0.00770623 0)
(0.183553 0.00667275 0)
(0.180005 0.00581712 0)
(0.176376 0.00513462 0)
(0.172764 0.00459223 0)
(0.169207 0.00415161 0)
(0.165718 0.00378258 0)
(0.162309 0.00346271 0)
(0.158991 0.00317732 0)
(0.155774 0.00291878 0)
(0.152662 0.00268329 0)
(0.149654 0.00246774 0)
(0.14675 0.00226836 0)
(0.143952 0.00208305 0)
(0.141263 0.00191218 0)
(0.138687 0.00175512 0)
(0.136228 0.00160966 0)
(0.133886 0.00147529 0)
(0.131661 0.00135239 0)
(0.129552 0.00123986 0)
(0.127558 0.00113618 0)
(0.125677 0.00104027 0)
(0.123907 0.000951054 0)
(0.122248 0.000867764 0)
(0.120695 0.000789948 0)
(0.119247 0.000716955 0)
(0.117901 0.000648112 0)
(0.116656 0.000582825 0)
(0.115509 0.000520616 0)
(0.114458 0.000461361 0)
(0.113501 0.000404893 0)
(0.112636 0.000350736 0)
(0.111861 0.000298682 0)
(0.111174 0.000249221 0)
(0.110572 0.000202555 0)
(0.110053 0.00015802 0)
(0.109614 0.000115514 0)
(0.109251 7.63361e-05 0)
(0.10896 4.21336e-05 0)
(0.108735 1.18082e-05 0)
(0.108571 -1.60288e-05 0)
(0.108462 -3.82231e-05 0)
(0.1084 -5.61672e-05 0)
(0.108375 -6.77336e-05 0)
(0.10838 -7.38291e-05 0)
(0.108409 -7.54073e-05 0)
(0.108454 -7.37911e-05 0)
(0.10851 -7.00705e-05 0)
(0.108572 -6.50953e-05 0)
(0.108636 -5.95556e-05 0)
(0.108701 -5.39247e-05 0)
(0.108766 -4.84806e-05 0)
(0.108828 -4.33689e-05 0)
(0.108887 -3.86686e-05 0)
(0.108944 -3.43915e-05 0)
(0.108997 -3.05094e-05 0)
(0.109047 -2.69689e-05 0)
(0.109094 -2.37231e-05 0)
(0.109137 -2.07419e-05 0)
(0.109177 -1.80006e-05 0)
(0.109214 -1.54957e-05 0)
(0.109246 -1.32252e-05 0)
(0.109276 -1.11826e-05 0)
(0.109301 -9.35813e-06 0)
(0.109323 -7.73758e-06 0)
(0.109342 -6.31069e-06 0)
(0.109358 -5.06121e-06 0)
(0.109371 -3.98582e-06 0)
(0.109381 -3.06838e-06 0)
(0.109389 -2.30961e-06 0)
(0.109396 -1.6894e-06 0)
(0.109401 -1.20067e-06 0)
(0.109404 -8.23573e-07 0)
(0.109407 -5.3951e-07 0)
(0.109409 -3.33099e-07 0)
(0.109411 -1.86791e-07 0)
(0.109412 -8.5986e-08 0)
(0.109412 -2.28333e-08 0)
(0.109413 2.47043e-08 0)
(0.109413 4.77804e-08 0)
(0.109413 6.26423e-08 0)
(0.109414 6.88295e-08 0)
(0.109414 7.08812e-08 0)
(0.109414 6.71318e-08 0)
(0.109414 6.29262e-08 0)
(0.109414 5.51572e-08 0)
(0.109414 4.57464e-08 0)
(0.109414 4.05211e-08 0)
(0.109414 2.75269e-08 0)
(0.109414 3.09295e-08 0)
(0.109414 -8.60101e-10 0)
(0.193387 0.00709688 0)
(0.193709 0.00883375 0)
(0.194636 0.0102289 0)
(0.196066 0.0109424 0)
(0.197592 0.0110933 0)
(0.198893 0.0108972 0)
(0.199816 0.0104602 0)
(0.200289 0.00983302 0)
(0.200292 0.00907359 0)
(0.199857 0.008265 0)
(0.199046 0.00749717 0)
(0.197947 0.00683119 0)
(0.19666 0.00628262 0)
(0.195261 0.00583366 0)
(0.193791 0.00546204 0)
(0.192262 0.00514701 0)
(0.190678 0.00486559 0)
(0.189042 0.00460024 0)
(0.187364 0.00434621 0)
(0.185661 0.00410646 0)
(0.18394 0.00388332 0)
(0.182206 0.00367428 0)
(0.180453 0.00347425 0)
(0.178683 0.00328048 0)
(0.176904 0.00309244 0)
(0.17513 0.00291034 0)
(0.173372 0.00273574 0)
(0.171636 0.0025695 0)
(0.169923 0.00240985 0)
(0.168239 0.00225546 0)
(0.166592 0.00210682 0)
(0.164987 0.00196386 0)
(0.163429 0.00182583 0)
(0.161924 0.00169243 0)
(0.160474 0.00156337 0)
(0.159084 0.00143835 0)
(0.157756 0.00131717 0)
(0.156495 0.00119959 0)
(0.155302 0.00108574 0)
(0.15418 0.000975556 0)
(0.153131 0.000868541 0)
(0.152156 0.000764705 0)
(0.151256 0.000664779 0)
(0.150432 0.000569079 0)
(0.149683 0.000477053 0)
(0.14901 0.000389459 0)
(0.14841 0.000307547 0)
(0.147881 0.000231465 0)
(0.147421 0.00016267 0)
(0.147027 0.000103558 0)
(0.146693 5.27733e-05 0)
(0.146415 9.14557e-06 0)
(0.146189 -2.44905e-05 0)
(0.146009 -4.8971e-05 0)
(0.145869 -6.57235e-05 0)
(0.145763 -7.56214e-05 0)
(0.145686 -8.02115e-05 0)
(0.145632 -8.10085e-05 0)
(0.145599 -7.9282e-05 0)
(0.14558 -7.5963e-05 0)
(0.145575 -7.17672e-05 0)
(0.145579 -6.71555e-05 0)
(0.145591 -6.24187e-05 0)
(0.14561 -5.77285e-05 0)
(0.145634 -5.31669e-05 0)
(0.145662 -4.87424e-05 0)
(0.145693 -4.44401e-05 0)
(0.145726 -4.02451e-05 0)
(0.14576 -3.61398e-05 0)
(0.145794 -3.21449e-05 0)
(0.145829 -2.82869e-05 0)
(0.145862 -2.4595e-05 0)
(0.145894 -2.10991e-05 0)
(0.145923 -1.78326e-05 0)
(0.14595 -1.48288e-05 0)
(0.145974 -1.21134e-05 0)
(0.145995 -9.71304e-06 0)
(0.146013 -7.6348e-06 0)
(0.146028 -5.88736e-06 0)
(0.14604 -4.44797e-06 0)
(0.146049 -3.29855e-06 0)
(0.146057 -2.39828e-06 0)
(0.146062 -1.71129e-06 0)
(0.146067 -1.19432e-06 0)
(0.14607 -8.19227e-07 0)
(0.146072 -5.42342e-07 0)
(0.146074 -3.5452e-07 0)
(0.146075 -2.12893e-07 0)
(0.146077 -1.23216e-07 0)
(0.146077 -5.78772e-08 0)
(0.146078 -1.56587e-08 0)
(0.146078 1.28369e-08 0)
(0.146079 2.78832e-08 0)
(0.146079 3.72795e-08 0)
(0.146079 3.86521e-08 0)
(0.146079 3.37764e-08 0)
(0.146079 3.35124e-08 0)
(0.146079 1.99122e-08 0)
(0.146079 2.67196e-08 0)
(0.146079 -6.61196e-09 0)
(0.194386 0.00677097 0)
(0.194683 0.00803855 0)
(0.195379 0.00917589 0)
(0.196484 0.00990597 0)
(0.1978 0.0101666 0)
(0.199094 0.0100773 0)
(0.200217 0.00976242 0)
(0.201086 0.00930116 0)
(0.201673 0.00874553 0)
(0.201985 0.00814259 0)
(0.202048 0.00754689 0)
(0.201902 0.00700523 0)
(0.20161 0.00654018 0)
(0.201231 0.00615064 0)
(0.200803 0.00582788 0)
(0.200341 0.00555958 0)
(0.199842 0.00532564 0)
(0.199303 0.00510552 0)
(0.198723 0.0048899 0)
(0.198107 0.00467967 0)
(0.197461 0.00447902 0)
(0.196792 0.00429186 0)
(0.196097 0.00411909 0)
(0.195366 0.00395551 0)
(0.194593 0.00379185 0)
(0.193784 0.00362415 0)
(0.192955 0.00345797 0)
(0.192112 0.0032992 0)
(0.191254 0.0031463 0)
(0.190378 0.00299489 0)
(0.189489 0.00284349 0)
(0.188592 0.00269305 0)
(0.187694 0.00254475 0)
(0.186799 0.00239887 0)
(0.185908 0.0022545 0)
(0.185026 0.00211093 0)
(0.184156 0.0019682 0)
(0.183302 0.0018265 0)
(0.182469 0.00168626 0)
(0.18166 0.00154774 0)
(0.180877 0.00141081 0)
(0.180124 0.00127576 0)
(0.179403 0.00114343 0)
(0.178718 0.0010144 0)
(0.17807 0.000888703 0)
(0.177459 0.000766853 0)
(0.176887 0.000650355 0)
(0.176355 0.000540988 0)
(0.175864 0.000439789 0)
(0.175412 0.000347203 0)
(0.174999 0.000264032 0)
(0.174626 0.000192668 0)
(0.174291 0.00013282 0)
(0.173994 8.41496e-05 0)
(0.173732 4.54284e-05 0)
(0.173503 1.57345e-05 0)
(0.173305 -6.29684e-06 0)
(0.173136 -2.21925e-05 0)
(0.172992 -3.34428e-05 0)
(0.172872 -4.12693e-05 0)
(0.172773 -4.64462e-05 0)
(0.172692 -4.97519e-05 0)
(0.172627 -5.17437e-05 0)
(0.172576 -5.27625e-05 0)
(0.172539 -5.29853e-05 0)
(0.172513 -5.24914e-05 0)
(0.172498 -5.13623e-05 0)
(0.172491 -4.9694e-05 0)
(0.172491 -4.7547e-05 0)
(0.172498 -4.50096e-05 0)
(0.17251 -4.21297e-05 0)
(0.172527 -3.89352e-05 0)
(0.172547 -3.54409e-05 0)
(0.17257 -3.16967e-05 0)
(0.172594 -2.77823e-05 0)
(0.172618 -2.38229e-05 0)
(0.172642 -1.99612e-05 0)
(0.172663 -1.63356e-05 0)
(0.172683 -1.30726e-05 0)
(0.1727 -1.02325e-05 0)
(0.172714 -7.86246e-06 0)
(0.172725 -5.93099e-06 0)
(0.172735 -4.4147e-06 0)
(0.172742 -3.23809e-06 0)
(0.172747 -2.35897e-06 0)
(0.172751 -1.69713e-06 0)
(0.172754 -1.22224e-06 0)
(0.172757 -8.63928e-07 0)
(0.172758 -6.13019e-07 0)
(0.17276 -4.24356e-07 0)
(0.172761 -2.93915e-07 0)
(0.172761 -1.97597e-07 0)
(0.172762 -1.33629e-07 0)
(0.172763 -8.40867e-08 0)
(0.172763 -5.62289e-08 0)
(0.172763 -3.73368e-08 0)
(0.172763 -2.56e-08 0)
(0.172763 -2.45008e-08 0)
(0.172764 -1.90706e-08 0)
(0.172764 -3.23655e-08 0)
(0.195236 0.00649506 0)
(0.195513 0.00747635 0)
(0.196059 0.00837913 0)
(0.196889 0.00903878 0)
(0.19791 0.00936092 0)
(0.198979 0.00937479 0)
(0.199971 0.00916775 0)
(0.200798 0.00882386 0)
(0.201427 0.0084003 0)
(0.201863 0.00793045 0)
(0.202127 0.00744784 0)
(0.202241 0.00698991 0)
(0.202241 0.00657974 0)
(0.202169 0.00622287 0)
(0.202064 0.00592003 0)
(0.201946 0.00566795 0)
(0.201818 0.00545251 0)
(0.201678 0.00525311 0)
(0.201527 0.00505632 0)
(0.201359 0.00486072 0)
(0.201174 0.0046702 0)
(0.200977 0.00448985 0)
(0.200774 0.00432622 0)
(0.200558 0.00417978 0)
(0.200319 0.00403781 0)
(0.200054 0.00388726 0)
(0.199772 0.00373073 0)
(0.199482 0.00357933 0)
(0.199181 0.00343696 0)
(0.198866 0.003299 0)
(0.198534 0.0031596 0)
(0.198187 0.00301666 0)
(0.197832 0.00287275 0)
(0.197469 0.0027309 0)
(0.197098 0.00259058 0)
(0.196718 0.0024496 0)
(0.196333 0.00230736 0)
(0.195943 0.0021644 0)
(0.195552 0.00202122 0)
(0.19516 0.0018781 0)
(0.19477 0.00173504 0)
(0.194383 0.00159229 0)
(0.193999 0.00145078 0)
(0.193623 0.0013114 0)
(0.193254 0.00117462 0)
(0.192893 0.00104128 0)
(0.192541 0.000912802 0)
(0.1922 0.000790196 0)
(0.19187 0.000674542 0)
(0.191552 0.000567745 0)
(0.191248 0.000470989 0)
(0.190959 0.000384916 0)
(0.190685 0.000309379 0)
(0.19043 0.000244687 0)
(0.190193 0.00019068 0)
(0.189975 0.000146141 0)
(0.189777 0.000109785 0)
(0.189597 8.01916e-05 0)
(0.189436 5.60011e-05 0)
(0.189292 3.6132e-05 0)
(0.189166 1.99966e-05 0)
(0.189055 6.84713e-06 0)
(0.188958 -4.0334e-06 0)
(0.188874 -1.32033e-05 0)
(0.188803 -2.0966e-05 0)
(0.188743 -2.73758e-05 0)
(0.188694 -3.24126e-05 0)
(0.188655 -3.614e-05 0)
(0.188625 -3.86436e-05 0)
(0.188602 -4.01518e-05 0)
(0.188587 -4.08521e-05 0)
(0.188578 -4.08592e-05 0)
(0.188575 -4.01652e-05 0)
(0.188577 -3.8728e-05 0)
(0.188584 -3.65017e-05 0)
(0.188595 -3.35347e-05 0)
(0.188609 -2.99687e-05 0)
(0.188624 -2.60194e-05 0)
(0.18864 -2.19685e-05 0)
(0.188654 -1.80358e-05 0)
(0.188668 -1.44536e-05 0)
(0.18868 -1.13112e-05 0)
(0.188689 -8.68979e-06 0)
(0.188697 -6.55759e-06 0)
(0.188703 -4.89201e-06 0)
(0.188708 -3.60711e-06 0)
(0.188712 -2.6505e-06 0)
(0.188714 -1.92758e-06 0)
(0.188716 -1.40506e-06 0)
(0.188718 -1.01314e-06 0)
(0.188719 -7.37036e-07 0)
(0.18872 -5.27414e-07 0)
(0.18872 -3.85847e-07 0)
(0.188721 -2.72104e-07 0)
(0.188721 -2.03843e-07 0)
(0.188721 -1.46347e-07 0)
(0.188721 -1.174e-07 0)
(0.188721 -9.19305e-08 0)
(0.188722 -8.77894e-08 0)
(0.188722 -7.27273e-08 0)
(0.195974 0.00623835 0)
(0.196223 0.00701345 0)
(0.196662 0.00772711 0)
(0.197294 0.00828922 0)
(0.198073 0.00862454 0)
(0.198919 0.00871723 0)
(0.199746 0.00860857 0)
(0.200473 0.00836498 0)
(0.201054 0.00804231 0)
(0.201486 0.00767199 0)
(0.201787 0.00727934 0)
(0.201972 0.00689415 0)
(0.202058 0.00653626 0)
(0.202075 0.0062127 0)
(0.202057 0.00592944 0)
(0.202028 0.00568877 0)
(0.201994 0.00548087 0)
(0.201958 0.00528896 0)
(0.201922 0.00510066 0)
(0.201884 0.00491318 0)
(0.201835 0.00472889 0)
(0.201774 0.00455086 0)
(0.201711 0.00438604 0)
(0.201651 0.00424058 0)
(0.201586 0.00410589 0)
(0.201511 0.00396454 0)
(0.201428 0.00381286 0)
(0.201341 0.00366242 0)
(0.201252 0.0035218 0)
(0.20116 0.00338885 0)
(0.201063 0.00325628 0)
(0.200959 0.0031191 0)
(0.20085 0.00297875 0)
(0.200738 0.00283981 0)
(0.200622 0.00270338 0)
(0.200499 0.00256672 0)
(0.200372 0.00242818 0)
(0.200239 0.00228836 0)
(0.200102 0.00214799 0)
(0.19996 0.00200736 0)
(0.199815 0.00186658 0)
(0.199665 0.00172577 0)
(0.199512 0.00158518 0)
(0.199356 0.00144578 0)
(0.199198 0.0013092 0)
(0.199037 0.00117644 0)
(0.198873 0.00104785 0)
(0.198706 0.000924406 0)
(0.198538 0.000808054 0)
(0.198369 0.000700278 0)
(0.1982 0.000601303 0)
(0.198032 0.00051146 0)
(0.197867 0.000431254 0)
(0.197707 0.000360968 0)
(0.197553 0.000300247 0)
(0.197407 0.000248399 0)
(0.197271 0.000204413 0)
(0.197144 0.000166901 0)
(0.197027 0.000134672 0)
(0.196919 0.000107047 0)
(0.196822 8.34048e-05 0)
(0.196735 6.32731e-05 0)
(0.196657 4.60061e-05 0)
(0.196587 3.09341e-05 0)
(0.196524 1.75967e-05 0)
(0.196469 5.82751e-06 0)
(0.196421 -4.34403e-06 0)
(0.196379 -1.27513e-05 0)
(0.196345 -1.94753e-05 0)
(0.196316 -2.47157e-05 0)
(0.196291 -2.87436e-05 0)
(0.196272 -3.18323e-05 0)
(0.196256 -3.40926e-05 0)
(0.196245 -3.55004e-05 0)
(0.196238 -3.59235e-05 0)
(0.196235 -3.52532e-05 0)
(0.196235 -3.34917e-05 0)
(0.196239 -3.07558e-05 0)
(0.196244 -2.73305e-05 0)
(0.196251 -2.34904e-05 0)
(0.196258 -1.96002e-05 0)
(0.196264 -1.58846e-05 0)
(0.19627 -1.25599e-05 0)
(0.196276 -9.70352e-06 0)
(0.19628 -7.35993e-06 0)
(0.196283 -5.49007e-06 0)
(0.196286 -4.05126e-06 0)
(0.196287 -2.94904e-06 0)
(0.196289 -2.13889e-06 0)
(0.196289 -1.53117e-06 0)
(0.19629 -1.10255e-06 0)
(0.19629 -7.7935e-07 0)
(0.196291 -5.61506e-07 0)
(0.196291 -3.91656e-07 0)
(0.196291 -2.88182e-07 0)
(0.196291 -2.03205e-07 0)
(0.196291 -1.6156e-07 0)
(0.196291 -1.23158e-07 0)
(0.196291 -1.18127e-07 0)
(0.196291 -9.19004e-08 0)
(0.19662 0.00598893 0)
(0.196838 0.00660657 0)
(0.197193 0.00717408 0)
(0.197681 0.00764097 0)
(0.198273 0.00795523 0)
(0.19893 0.00809284 0)
(0.199601 0.00806561 0)
(0.200221 0.00791128 0)
(0.200739 0.00767392 0)
(0.201142 0.00738586 0)
(0.201441 0.0070699 0)
(0.201647 0.00674985 0)
(0.201769 0.00644403 0)
(0.201826 0.00615954 0)
(0.201845 0.00590176 0)
(0.201848 0.00567541 0)
(0.201843 0.00547506 0)
(0.201834 0.00528821 0)
(0.201827 0.00510609 0)
(0.20182 0.00492622 0)
(0.201806 0.00474886 0)
(0.20178 0.00457573 0)
(0.201748 0.00441202 0)
(0.20172 0.00426372 0)
(0.201694 0.004127 0)
(0.201666 0.00398795 0)
(0.201636 0.00383972 0)
(0.201603 0.00369046 0)
(0.201566 0.00354947 0)
(0.201533 0.0034158 0)
(0.201502 0.00328288 0)
(0.201469 0.00314669 0)
(0.201435 0.00300801 0)
(0.2014 0.00287022 0)
(0.201364 0.00273508 0)
(0.201327 0.00260056 0)
(0.201288 0.00246422 0)
(0.201246 0.00232616 0)
(0.2012 0.00218766 0)
(0.201152 0.00204924 0)
(0.201102 0.00191098 0)
(0.201047 0.00177297 0)
(0.200988 0.00163543 0)
(0.200927 0.00149919 0)
(0.200862 0.00136562 0)
(0.200792 0.00123577 0)
(0.200717 0.00111034 0)
(0.200638 0.000990402 0)
(0.200555 0.000877309 0)
(0.200466 0.00077185 0)
(0.200374 0.000674541 0)
(0.200279 0.00058584 0)
(0.200182 0.000505889 0)
(0.200086 0.000434429 0)
(0.199991 0.000371203 0)
(0.199899 0.000315941 0)
(0.199811 0.000267967 0)
(0.199729 0.00022619 0)
(0.199652 0.000189457 0)
(0.199581 0.000157102 0)
(0.199516 0.000128704 0)
(0.199457 0.000104042 0)
(0.199404 8.26381e-05 0)
(0.199356 6.38259e-05 0)
(0.199313 4.70803e-05 0)
(0.199274 3.2043e-05 0)
(0.199239 1.86746e-05 0)
(0.199209 7.25462e-06 0)
(0.199182 -2.21186e-06 0)
(0.199158 -9.8551e-06 0)
(0.199137 -1.59615e-05 0)
(0.199119 -2.08903e-05 0)
(0.199104 -2.48887e-05 0)
(0.19909 -2.80346e-05 0)
(0.199079 -3.02408e-05 0)
(0.19907 -3.13426e-05 0)
(0.199063 -3.12478e-05 0)
(0.199058 -2.99515e-05 0)
(0.199056 -2.76602e-05 0)
(0.199055 -2.46045e-05 0)
(0.199055 -2.11577e-05 0)
(0.199056 -1.75991e-05 0)
(0.199057 -1.42123e-05 0)
(0.199058 -1.11626e-05 0)
(0.199059 -8.5548e-06 0)
(0.19906 -6.40965e-06 0)
(0.199061 -4.71443e-06 0)
(0.199061 -3.39509e-06 0)
(0.199061 -2.41444e-06 0)
(0.199061 -1.67951e-06 0)
(0.199061 -1.16264e-06 0)
(0.199061 -7.81447e-07 0)
(0.199061 -5.25572e-07 0)
(0.199061 -3.38563e-07 0)
(0.19906 -2.23721e-07 0)
(0.19906 -1.41339e-07 0)
(0.19906 -9.98744e-08 0)
(0.19906 -7.41662e-08 0)
(0.19906 -6.95464e-08 0)
(0.199059 -6.23415e-08 0)
(0.197161 0.00575873 0)
(0.19735 0.00625865 0)
(0.19764 0.00671828 0)
(0.198025 0.00710581 0)
(0.198484 0.00738921 0)
(0.198998 0.00754668 0)
(0.199536 0.00757512 0)
(0.200052 0.00749232 0)
(0.200502 0.00732784 0)
(0.200866 0.0071093 0)
(0.201149 0.00685863 0)
(0.201357 0.00659604 0)
(0.201494 0.0063378 0)
(0.201571 0.00609094 0)
(0.201612 0.00585917 0)
(0.201634 0.00564863 0)
(0.201645 0.00545845 0)
(0.201649 0.00527802 0)
(0.201651 0.00510099 0)
(0.201654 0.00492847 0)
(0.201651 0.00475939 0)
(0.201637 0.00459221 0)
(0.201617 0.00443134 0)
(0.201598 0.00428193 0)
(0.20158 0.00414183 0)
(0.201562 0.00400214 0)
(0.201546 0.00385653 0)
(0.201526 0.003709 0)
(0.201501 0.00356762 0)
(0.201479 0.00343261 0)
(0.201461 0.00329793 0)
(0.201445 0.00316065 0)
(0.201428 0.0030221 0)
(0.20141 0.00288432 0)
(0.201393 0.00274876 0)
(0.201374 0.00261487 0)
(0.201356 0.0024802 0)
(0.201336 0.00234382 0)
(0.201314 0.00220694 0)
(0.20129 0.00207008 0)
(0.201264 0.00193304 0)
(0.201236 0.00179648 0)
(0.201204 0.0016613 0)
(0.201169 0.0015278 0)
(0.201132 0.00139679 0)
(0.201091 0.00126987 0)
(0.201045 0.00114805 0)
(0.200995 0.00103176 0)
(0.200941 0.000921649 0)
(0.200882 0.000818654 0)
(0.200819 0.000723552 0)
(0.200753 0.000636567 0)
(0.200685 0.000557465 0)
(0.200616 0.000485873 0)
(0.200546 0.000421561 0)
(0.200478 0.000364398 0)
(0.200413 0.000313915 0)
(0.200352 0.000269202 0)
(0.200294 0.000229266 0)
(0.200241 0.000193484 0)
(0.200192 0.000161681 0)
(0.200147 0.000133711 0)
(0.200107 0.00010923 0)
(0.200071 8.76684e-05 0)
(0.200039 6.84548e-05 0)
(0.20001 5.11703e-05 0)
(0.199984 3.57893e-05 0)
(0.19996 2.23826e-05 0)
(0.199939 1.11027e-05 0)
(0.199921 1.87382e-06 0)
(0.199904 -5.58872e-06 0)
(0.199889 -1.16606e-05 0)
(0.199876 -1.66448e-05 0)
(0.199864 -2.06926e-05 0)
(0.199853 -2.38044e-05 0)
(0.199843 -2.58495e-05 0)
(0.199835 -2.67363e-05 0)
(0.199828 -2.64136e-05 0)
(0.199822 -2.50281e-05 0)
(0.199817 -2.27659e-05 0)
(0.199814 -1.99568e-05 0)
(0.199811 -1.68717e-05 0)
(0.199809 -1.37949e-05 0)
(0.199808 -1.09268e-05 0)
(0.199807 -8.39964e-06 0)
(0.199806 -6.27161e-06 0)
(0.199806 -4.5569e-06 0)
(0.199805 -3.20277e-06 0)
(0.199804 -2.18904e-06 0)
(0.199804 -1.43431e-06 0)
(0.199803 -9.08823e-07 0)
(0.199802 -5.35995e-07 0)
(0.199802 -2.89684e-07 0)
(0.199801 -1.29313e-07 0)
(0.199801 -3.21553e-08 0)
(0.1998 1.90681e-08 0)
(0.1998 4.52147e-08 0)
(0.1998 3.73375e-08 0)
(0.1998 3.56369e-08 0)
(0.199799 2.67394e-09 0)
(0.197628 0.00555663 0)
(0.197789 0.00596808 0)
(0.198027 0.0063472 0)
(0.198335 0.0066738 0)
(0.198693 0.00692616 0)
(0.199094 0.00708479 0)
(0.199523 0.00714314 0)
(0.199946 0.00711157 0)
(0.200327 0.0070074 0)
(0.200645 0.00684783 0)
(0.200903 0.0066517 0)
(0.201103 0.00643801 0)
(0.201243 0.00622133 0)
(0.201329 0.00600926 0)
(0.201383 0.00580414 0)
(0.20142 0.00561034 0)
(0.201442 0.00543138 0)
(0.201452 0.00526053 0)
(0.20146 0.00509044 0)
(0.201469 0.00492401 0)
(0.201471 0.004763 0)
(0.201463 0.00460316 0)
(0.201452 0.00444593 0)
(0.201441 0.00429685 0)
(0.201428 0.00415481 0)
(0.201414 0.00401385 0)
(0.201401 0.00387054 0)
(0.201387 0.00372604 0)
(0.201369 0.00358425 0)
(0.201352 0.00344668 0)
(0.201338 0.00331053 0)
(0.201326 0.0031732 0)
(0.201313 0.00303504 0)
(0.201299 0.00289736 0)
(0.201287 0.00276107 0)
(0.201274 0.00262623 0)
(0.20126 0.00249176 0)
(0.201245 0.00235697 0)
(0.201228 0.00222213 0)
(0.201209 0.00208728 0)
(0.20119 0.00195216 0)
(0.201169 0.00181712 0)
(0.201145 0.0016831 0)
(0.201118 0.00155115 0)
(0.201089 0.00142239 0)
(0.201057 0.00129788 0)
(0.201021 0.00117846 0)
(0.200982 0.00106495 0)
(0.200939 0.000958003 0)
(0.200892 0.000857988 0)
(0.20084 0.000765196 0)
(0.200787 0.000679837 0)
(0.200731 0.000601693 0)
(0.200674 0.00053024 0)
(0.200617 0.00046521 0)
(0.20056 0.000406585 0)
(0.200506 0.000354044 0)
(0.200454 0.000306809 0)
(0.200406 0.000264069 0)
(0.200361 0.000225368 0)
(0.20032 0.000190648 0)
(0.200282 0.000159803 0)
(0.200248 0.000132542 0)
(0.200218 0.000108419 0)
(0.20019 8.68855e-05 0)
(0.200166 6.75889e-05 0)
(0.200144 5.0482e-05 0)
(0.200124 3.55272e-05 0)
(0.200107 2.28165e-05 0)
(0.200091 1.22889e-05 0)
(0.200077 3.68107e-06 0)
(0.200064 -3.36693e-06 0)
(0.200052 -9.16892e-06 0)
(0.200042 -1.38923e-05 0)
(0.200032 -1.76035e-05 0)
(0.200023 -2.02226e-05 0)
(0.200015 -2.17107e-05 0)
(0.200008 -2.20345e-05 0)
(0.200001 -2.13102e-05 0)
(0.199996 -1.96974e-05 0)
(0.199991 -1.74885e-05 0)
(0.199987 -1.49328e-05 0)
(0.199984 -1.22855e-05 0)
(0.199981 -9.7537e-06 0)
(0.199979 -7.47454e-06 0)
(0.199977 -5.52292e-06 0)
(0.199976 -3.92962e-06 0)
(0.199974 -2.65262e-06 0)
(0.199973 -1.68506e-06 0)
(0.199972 -9.7006e-07 0)
(0.199971 -4.74895e-07 0)
(0.19997 -1.42882e-07 0)
(0.19997 6.80457e-08 0)
(0.199969 1.82205e-07 0)
(0.199968 2.45654e-07 0)
(0.199968 2.49685e-07 0)
(0.199968 2.5055e-07 0)
(0.199967 1.95873e-07 0)
(0.199967 1.82619e-07 0)
(0.199967 9.97345e-08 0)
(0.198052 0.00537232 0)
(0.198186 0.00571464 0)
(0.198381 0.0060293 0)
(0.198627 0.00630561 0)
(0.198903 0.00652848 0)
(0.199209 0.00668119 0)
(0.199544 0.00675579 0)
(0.199885 0.00675859 0)
(0.200197 0.00670149 0)
(0.200463 0.00659328 0)
(0.200687 0.00644511 0)
(0.200872 0.00627429 0)
(0.201009 0.00609596 0)
(0.201098 0.00591694 0)
(0.201156 0.00573815 0)
(0.201201 0.00556191 0)
(0.201233 0.00539429 0)
(0.201247 0.00523473 0)
(0.201256 0.00507476 0)
(0.201269 0.00491407 0)
(0.201277 0.00475919 0)
(0.201273 0.00460769 0)
(0.201267 0.00445515 0)
(0.201263 0.0043068 0)
(0.201255 0.00416528 0)
(0.201245 0.0040241 0)
(0.201236 0.00388073 0)
(0.201226 0.00373894 0)
(0.201212 0.00359928 0)
(0.201198 0.00345997 0)
(0.201188 0.00332144 0)
(0.201179 0.00318368 0)
(0.201168 0.0030457 0)
(0.201157 0.00290843 0)
(0.201147 0.00277306 0)
(0.201135 0.00263858 0)
(0.201124 0.00250387 0)
(0.201112 0.00236925 0)
(0.201098 0.00223506 0)
(0.201082 0.00210132 0)
(0.201065 0.00196817 0)
(0.201046 0.0018354 0)
(0.201025 0.00170326 0)
(0.201003 0.00157337 0)
(0.200978 0.00144713 0)
(0.20095 0.00132476 0)
(0.20092 0.00120705 0)
(0.200887 0.00109578 0)
(0.200851 0.000991837 0)
(0.20081 0.000894674 0)
(0.200766 0.000804026 0)
(0.200721 0.000720338 0)
(0.200674 0.000643471 0)
(0.200625 0.000572589 0)
(0.200575 0.000507204 0)
(0.200527 0.000447348 0)
(0.20048 0.000392878 0)
(0.200435 0.000343202 0)
(0.200393 0.000297729 0)
(0.200354 0.000256229 0)
(0.200318 0.000218717 0)
(0.200285 0.000185123 0)
(0.200255 0.000155191 0)
(0.200228 0.000128525 0)
(0.200204 0.000104731 0)
(0.200182 8.34657e-05 0)
(0.200163 6.45974e-05 0)
(0.200146 4.81246e-05 0)
(0.20013 3.4061e-05 0)
(0.200116 2.22898e-05 0)
(0.200104 1.25794e-05 0)
(0.200093 4.59268e-06 0)
(0.200082 -1.99743e-06 0)
(0.200073 -7.36909e-06 0)
(0.200065 -1.16377e-05 0)
(0.200057 -1.47245e-05 0)
(0.200049 -1.664e-05 0)
(0.200042 -1.74064e-05 0)
(0.200036 -1.71557e-05 0)
(0.20003 -1.60403e-05 0)
(0.200025 -1.43124e-05 0)
(0.200021 -1.22238e-05 0)
(0.200017 -1.00012e-05 0)
(0.200014 -7.83756e-06 0)
(0.200011 -5.88023e-06 0)
(0.200009 -4.19691e-06 0)
(0.200007 -2.83424e-06 0)
(0.200005 -1.74191e-06 0)
(0.200004 -9.26311e-07 0)
(0.200003 -3.32425e-07 0)
(0.200002 7.64584e-08 0)
(0.200001 3.27777e-07 0)
(0.2 4.73895e-07 0)
(0.199999 5.24327e-07 0)
(0.199999 5.38431e-07 0)
(0.199998 4.87457e-07 0)
(0.199998 4.54592e-07 0)
(0.199997 3.50779e-07 0)
(0.199997 3.223e-07 0)
(0.199997 1.86475e-07 0)
(0.198441 0.00520471 0)
(0.198544 0.00549538 0)
(0.198702 0.00575904 0)
(0.198898 0.00599294 0)
(0.199109 0.00618966 0)
(0.199335 0.0063348 0)
(0.199587 0.0064179 0)
(0.199856 0.00644182 0)
(0.200106 0.00641784 0)
(0.200318 0.00635215 0)
(0.200502 0.00624695 0)
(0.200665 0.00611372 0)
(0.200793 0.00596877 0)
(0.200878 0.00581915 0)
(0.200933 0.00566487 0)
(0.200981 0.0055072 0)
(0.201019 0.00535143 0)
(0.201037 0.00520197 0)
(0.201044 0.00505348 0)
(0.201059 0.00490013 0)
(0.201073 0.00474935 0)
(0.201072 0.0046054 0)
(0.201067 0.00445932 0)
(0.20107 0.00431133 0)
(0.201068 0.0041706 0)
(0.201058 0.00403258 0)
(0.201052 0.00388964 0)
(0.201048 0.00374748 0)
(0.201039 0.00360948 0)
(0.201027 0.00347046 0)
(0.20102 0.00333066 0)
(0.201013 0.00319312 0)
(0.201004 0.00305549 0)
(0.200996 0.00291737 0)
(0.200989 0.00278205 0)
(0.200979 0.00264883 0)
(0.200968 0.00251535 0)
(0.200958 0.00238225 0)
(0.200946 0.00224949 0)
(0.200933 0.00211596 0)
(0.200919 0.00198279 0)
(0.200904 0.00185128 0)
(0.200886 0.00172103 0)
(0.200867 0.00159292 0)
(0.200846 0.00146903 0)
(0.200821 0.00134972 0)
(0.200796 0.00123482 0)
(0.200769 0.00112591 0)
(0.200739 0.00102438 0)
(0.200705 0.000929586 0)
(0.200668 0.000840816 0)
(0.20063 0.000758464 0)
(0.200591 0.000682527 0)
(0.200549 0.000612064 0)
(0.200507 0.00054641 0)
(0.200466 0.00048562 0)
(0.200426 0.000429657 0)
(0.200388 0.000378043 0)
(0.200352 0.00033029 0)
(0.200318 0.000286325 0)
(0.200287 0.000246251 0)
(0.200258 0.000210062 0)
(0.200233 0.000177576 0)
(0.200209 0.000148485 0)
(0.200188 0.000122416 0)
(0.20017 9.9183e-05 0)
(0.200153 7.86067e-05 0)
(0.200138 6.0667e-05 0)
(0.200124 4.52855e-05 0)
(0.200112 3.23001e-05 0)
(0.200101 2.14294e-05 0)
(0.200092 1.23986e-05 0)
(0.200083 4.95239e-06 0)