/*--------------------------------*- C++ -*----------------------------------*\
| =========                 |                                                 |
| \\      /  F ield         | OpenFOAM: The Open Source CFD Toolbox           |
|  \\    /   O peration     | Version:  2.3.0                                 |
|   \\  /    A nd           | Web:      www.OpenFOAM.org                      |
|    \\/     M anipulation  |                                                 |
\*---------------------------------------------------------------------------*/
FoamFile
{
    version     2.0;
    format      ascii;
    class       volScalarField;
    location    "0.7";
    object      p;
}
// * * * * * * * * * * * * * * * * * * * * * * * * * * * * * * * * * * * * * //

dimensions      [0 2 -2 0 0 0 0];

internalField   nonuniform List<scalar> 
3105
(
0.00252331
0.00222453
0.00163284
0.00106946
0.00059971
0.000201819
-0.000134318
-0.000393221
-0.000556198
-0.000626848
-0.000630021
-0.000596066
-0.000548745
-0.000502333
-0.000463443
-0.000433612
-0.000411665
-0.000395488
-0.000383048
-0.000372781
-0.000363641
-0.000355001
-0.000346534
-0.000338105
-0.000329682
-0.000321285
-0.00031295
-0.000304716
-0.00029661
-0.000288653
-0.000280856
-0.000273227
-0.000265766
-0.000258473
-0.000251344
-0.000244377
-0.000237568
-0.000230916
-0.000224417
-0.000218071
-0.000211876
-0.00020583
-0.000199934
-0.000194187
-0.000188587
-0.000183136
-0.00017783
-0.000172671
-0.000167656
-0.000162785
-0.000158055
-0.000153466
-0.000149015
-0.000144701
-0.000140521
-0.000136472
-0.000132552
-0.000128759
-0.000125088
-0.000121538
-0.000118103
-0.000114783
-0.00011157
-0.000108465
-0.000105457
-0.000102551
-9.97313e-05
-9.70056e-05
-9.43547e-05
-9.17892e-05
-8.92853e-05
-8.6858e-05
-8.44766e-05
-8.21631e-05
-7.98773e-05
-7.765e-05
-7.54294e-05
-7.32576e-05
-7.1068e-05
-6.89171e-05
-6.67195e-05
-6.45504e-05
-6.23004e-05
-6.00686e-05
-5.77148e-05
-5.53697e-05
-5.2853e-05
-5.03359e-05
-4.75878e-05
-4.48317e-05
-4.17705e-05
-3.86975e-05
-3.52276e-05
-3.17455e-05
-2.7751e-05
-2.37543e-05
-1.90871e-05
-1.44572e-05
-8.91418e-06
-3.56595e-06
0.00209728
0.00193889
0.00152223
0.00103653
0.000594554
0.000217411
-9.68707e-05
-0.000338598
-0.000496742
-0.000573095
-0.000586129
-0.000561969
-0.000522987
-0.00048308
-0.000448978
-0.00042244
-0.000402644
-0.000387859
-0.000376349
-0.000366749
-0.000358127
-0.00034992
-0.000341833
-0.000333745
-0.000325629
-0.000317511
-0.000309428
-0.000301419
-0.000293518
-0.000285745
-0.000278117
-0.000270641
-0.00026332
-0.000256155
-0.000249145
-0.000242287
-0.000235581
-0.000229023
-0.000222613
-0.000216349
-0.000210231
-0.000204258
-0.00019843
-0.000192747
-0.000187208
-0.000181813
-0.000176561
-0.000171453
-0.000166486
-0.00016166
-0.000156974
-0.000152426
-0.000148014
-0.000143736
-0.000139591
-0.000135576
-0.000131687
-0.000127925
-0.000124283
-0.000120761
-0.000117352
-0.000114058
-0.000110869
-0.000107788
-0.000104802
-0.000101918
-9.9119e-05
-9.64137e-05
-9.37816e-05
-9.12351e-05
-8.87486e-05
-8.63391e-05
-8.39737e-05
-8.1677e-05
-7.94059e-05
-7.71945e-05
-7.49876e-05
-7.28309e-05
-7.06538e-05
-6.85174e-05
-6.63312e-05
-6.4176e-05
-6.19363e-05
-5.9718e-05
-5.73733e-05
-5.50414e-05
-5.25327e-05
-5.00284e-05
-4.72869e-05
-4.45436e-05
-4.14874e-05
-3.84272e-05
-3.49603e-05
-3.14912e-05
-2.7497e-05
-2.35143e-05
-1.88428e-05
-1.42293e-05
-8.67805e-06
-3.36544e-06
0.00180053
0.00170445
0.00141584
0.00101413
0.000610622
0.000258363
-3.08071e-05
-0.000253839
-0.000407794
-0.000494192
-0.00052422
-0.000516675
-0.000490871
-0.000460719
-0.000433175
-0.000410641
-0.000393125
-0.00037962
-0.000368885
-0.000359837
-0.000351683
-0.000343917
-0.000336263
-0.000328597
-0.000320885
-0.000313144
-0.000305407
-0.000297713
-0.000290092
-0.00028257
-0.000275164
-0.000267887
-0.000260743
-0.000253738
-0.000246872
-0.000240145
-0.000233557
-0.000227108
-0.000220797
-0.000214626
-0.000208593
-0.000202699
-0.000196944
-0.000191329
-0.000185854
-0.000180519
-0.000175323
-0.000170268
-0.00016535
-0.000160571
-0.000155929
-0.000151423
-0.00014705
-0.00014281
-0.0001387
-0.000134719
-0.000130862
-0.000127131
-0.000123517
-0.000120023
-0.000116641
-0.000113372
-0.000110207
-0.000107149
-0.000104185
-0.000101323
-9.85433e-05
-9.58582e-05
-9.32443e-05
-9.07167e-05
-8.82469e-05
-8.58553e-05
-8.35052e-05
-8.12256e-05
-7.89684e-05
-7.67734e-05
-7.45792e-05
-7.24384e-05
-7.02728e-05
-6.8152e-05
-6.59762e-05
-6.38363e-05
-6.16059e-05
-5.9403e-05
-5.70662e-05
-5.47501e-05
-5.2248e-05
-4.97599e-05
-4.70235e-05
-4.42972e-05
-4.12442e-05
-3.82024e-05
-3.47367e-05
-3.12875e-05
-2.7292e-05
-2.33317e-05
-1.86561e-05
-1.40671e-05
-8.53095e-06
-3.27028e-06
0.00159618
0.00151889
0.00130769
0.000983203
0.000627623
0.000304496
3.79536e-05
-0.000168586
-0.000316542
-0.000408704
-0.000452449
-0.000460798
-0.000448939
-0.000429304
-0.000409193
-0.000391753
-0.000377687
-0.00036654
-0.000357471
-0.000349666
-0.000342499
-0.000335566
-0.000328644
-0.000321638
-0.000314525
-0.000307324
-0.00030007
-0.000292805
-0.000285565
-0.000278381
-0.000271275
-0.000264265
-0.000257361
-0.000250571
-0.0002439
-0.00023735
-0.000230925
-0.000224624
-0.000218451
-0.000212406
-0.00020649
-0.000200705
-0.000195052
-0.000189532
-0.000184144
-0.000178891
-0.000173773
-0.000168789
-0.000163939
-0.000159223
-0.00015464
-0.000150189
-0.000145869
-0.000141679
-0.000137616
-0.000133679
-0.000129864
-0.000126172
-0.000122596
-0.000119137
-0.000115789
-0.000112552
-0.000109418
-0.000106389
-0.000103453
-0.000100618
-9.78634e-05
-9.52035e-05
-9.26124e-05
-9.0108e-05
-8.7659e-05
-8.52892e-05
-8.2958e-05
-8.06991e-05
-7.84592e-05
-7.6284e-05
-7.41056e-05
-7.1984e-05
-6.98329e-05
-6.77308e-05
-6.55682e-05
-6.34469e-05
-6.12286e-05
-5.90444e-05
-5.67185e-05
-5.44215e-05
-5.19291e-05
-4.94608e-05
-4.67331e-05
-4.40278e-05
-4.09822e-05
-3.79631e-05
-3.45038e-05
-3.10792e-05
-2.70899e-05
-2.31562e-05
-1.84896e-05
-1.39288e-05
-8.43851e-06
-3.23753e-06
0.00143463
0.00136291
0.00119704
0.000936492
0.000632394
0.000342335
9.7479e-05
-9.46086e-05
-0.000235859
-0.000330094
-0.000382991
-0.000403746
-0.000403858
-0.00039383
-0.000380829
-0.000368536
-0.000358198
-0.000349775
-0.000342733
-0.000336481
-0.000330556
-0.000324663
-0.000318649
-0.000312455
-0.000306079
-0.000299548
-0.000292903
-0.000286187
-0.000279441
-0.000272701
-0.000265995
-0.000259343
-0.000252763
-0.000246265
-0.000239859
-0.000233551
-0.000227346
-0.000221249
-0.000215262
-0.00020939
-0.000203634
-0.000197997
-0.000192482
-0.00018709
-0.000181823
-0.000176682
-0.000171669
-0.000166783
-0.000162026
-0.000157398
-0.000152897
-0.000148523
-0.000144276
-0.000140155
-0.000136156
-0.000132281
-0.000128523
-0.000124886
-0.000121362
-0.000117953
-0.000114651
-0.000111459
-0.000108366
-0.000105379
-0.00010248
-9.96819e-05
-9.69614e-05
-9.43353e-05
-9.17752e-05
-8.93018e-05
-8.68812e-05
-8.45402e-05
-8.22348e-05
-8.0003e-05
-7.77868e-05
-7.56373e-05
-7.34807e-05
-7.13836e-05
-6.92526e-05
-6.71744e-05
-6.50306e-05
-6.29328e-05
-6.0732e-05
-5.85714e-05
-5.6262e-05
-5.3989e-05
-5.15124e-05
-4.90689e-05
-4.63566e-05
-4.36774e-05
-4.06472e-05
-3.7656e-05
-3.42133e-05
-3.08182e-05
-2.6849e-05
-2.29461e-05
-1.83101e-05
-1.37833e-05
-8.37048e-06
-3.23554e-06
0.0012971
0.00122827
0.00109068
0.000879579
0.000624548
0.000369659
0.000146696
-3.21765e-05
-0.000166703
-0.000260658
-0.00031916
-0.000349111
-0.000359079
-0.000357589
-0.000351212
-0.000343841
-0.000337139
-0.000331428
-0.000326439
-0.000321779
-0.000317131
-0.000312304
-0.000307216
-0.00030185
-0.000296229
-0.000290391
-0.000284382
-0.000278248
-0.000272034
-0.000265778
-0.000259512
-0.000253261
-0.000247047
-0.000240883
-0.000234784
-0.000228758
-0.000222813
-0.000216956
-0.000211193
-0.000205527
-0.000199965
-0.000194509
-0.000189162
-0.000183929
-0.00017881
-0.000173809
-0.000168927
-0.000164166
-0.000159525
-0.000155007
-0.00015061
-0.000146334
-0.00014218
-0.000138147
-0.00013423
-0.000130435
-0.000126751
-0.000123186
-0.000119728
-0.000116383
-0.000113142
-0.000110008
-0.000106969
-0.000104034
-0.000101185
-9.84347e-05
-9.57587e-05
-9.31764e-05
-9.06569e-05
-8.82237e-05
-8.58401e-05
-8.35363e-05
-8.12647e-05
-7.90677e-05
-7.68825e-05
-7.47658e-05
-7.2638e-05
-7.05722e-05
-6.8468e-05
-6.64199e-05
-6.43014e-05
-6.22332e-05
-6.00567e-05
-5.79254e-05
-5.56397e-05
-5.33963e-05
-5.09435e-05
-4.85303e-05
-4.58428e-05
-4.3195e-05
-4.01916e-05
-3.72334e-05
-3.38221e-05
-3.04612e-05
-2.6532e-05
-2.26647e-05
-1.80869e-05
-1.36028e-05
-8.29849e-06
-3.23629e-06
0.00117684
0.00111105
0.000993382
0.000819917
0.000607543
0.000387139
0.000186625
2.0824e-05
-0.000107023
-0.000199499
-0.000261203
-0.000297735
-0.000315611
-0.000321566
-0.000321286
-0.000318572
-0.000315355
-0.000312272
-0.000309306
-0.000306243
-0.000302891
-0.000299153
-0.000295007
-0.000290479
-0.000285616
-0.000280473
-0.0002751
-0.000269551
-0.000263871
-0.000258102
-0.000252281
-0.000246437
-0.000240594
-0.000234772
-0.000228987
-0.000223251
-0.000217576
-0.00021197
-0.00020644
-0.000200994
-0.000195636
-0.000190373
-0.000185208
-0.000180147
-0.00017519
-0.000170343
-0.000165606
-0.000160982
-0.000156472
-0.000152077
-0.000147798
-0.000143635
-0.000139587
-0.000135655
-0.000131834
-0.000128131
-0.000124534
-0.000121052
-0.000117673
-0.000114404
-0.000111234
-0.000108169
-0.000105195
-0.000102323
-9.95323e-05
-9.68398e-05
-9.42173e-05
-9.16879e-05
-8.92173e-05
-8.68326e-05
-8.44938e-05
-8.2235e-05
-8.00045e-05
-7.78495e-05
-7.57023e-05
-7.36251e-05
-7.15327e-05
-6.95044e-05
-6.74337e-05
-6.54217e-05
-6.33353e-05
-6.13022e-05
-5.91571e-05
-5.70605e-05
-5.48065e-05
-5.25978e-05
-5.0178e-05
-4.77999e-05
-4.51482e-05
-4.25365e-05
-3.95738e-05
-3.6653e-05
-3.32908e-05
-2.99686e-05
-2.61025e-05
-2.22769e-05
-1.77875e-05
-1.33572e-05
-8.1901e-06
-3.20521e-06
0.00107072
0.00100857
0.000906421
0.000761739
0.000584579
0.000395807
0.000217742
6.54351e-05
-5.5449e-05
-0.000145696
-0.000209008
-0.000250088
-0.000274096
-0.000286324
-0.000291501
-0.000293108
-0.000293183
-0.000292615
-0.000291618
-0.000290142
-0.000288106
-0.000285483
-0.000282305
-0.000278635
-0.000274542
-0.000270099
-0.000265366
-0.000260401
-0.000255254
-0.000249973
-0.000244595
-0.000239157
-0.000233685
-0.000228205
-0.000222734
-0.000217289
-0.000211883
-0.000206528
-0.000201233
-0.000196007
-0.000190856
-0.000185788
-0.000180807
-0.00017592
-0.000171128
-0.000166438
-0.00016185
-0.000157368
-0.000152993
-0.000148727
-0.00014457
-0.000140524
-0.000136587
-0.000132762
-0.000129043
-0.000125437
-0.000121934
-0.000118541
-0.000115247
-0.00011206
-0.000108967
-0.000105977
-0.000103074
-0.000100271
-9.75449e-05
-9.4916e-05
-9.23526e-05
-8.98818e-05
-8.74654e-05
-8.5135e-05
-8.28461e-05
-8.06377e-05
-7.84534e-05
-7.63455e-05
-7.42413e-05
-7.22085e-05
-7.01566e-05
-6.81704e-05
-6.61385e-05
-6.41668e-05
-6.21183e-05
-6.01244e-05
-5.80173e-05
-5.5959e-05
-5.37445e-05
-5.15739e-05
-4.91963e-05
-4.68567e-05
-4.42523e-05
-4.16797e-05
-3.87722e-05
-3.5892e-05
-3.2597e-05
-2.93183e-05
-2.55377e-05
-2.17622e-05
-1.73887e-05
-1.30259e-05
-8.01956e-06
-3.11653e-06
0.000976641
0.000918518
0.000829106
0.000706767
0.000558021
0.000396944
0.000240427
0.000102024
-1.13338e-05
-9.86601e-05
-0.00016243
-0.000206494
-0.000235069
-0.00025237
-0.000262249
-0.000267753
-0.000270883
-0.000272689
-0.00027358
-0.000273657
-0.000272933
-0.000271439
-0.000269246
-0.000266446
-0.000263133
-0.000259394
-0.000255302
-0.000250921
-0.000246308
-0.000241514
-0.000236581
-0.00023155
-0.000226451
-0.000221313
-0.000216158
-0.000211006
-0.000205871
-0.000200769
-0.00019571
-0.000190705
-0.000185762
-0.000180891
-0.000176095
-0.000171384
-0.000166758
-0.000162226
-0.000157787
-0.000153449
-0.00014921
-0.000145074
-0.000141041
-0.000137114
-0.00013329
-0.000129574
-0.000125959
-0.000122452
-0.000119043
-0.000115742
-0.000112535
-0.000109432
-0.000106419
-0.000103507
-0.000100677
-9.79456e-05
-9.52864e-05
-9.27238e-05
-9.02218e-05
-8.78125e-05
-8.54527e-05
-8.31792e-05
-8.09427e-05
-7.87872e-05
-7.66518e-05
-7.45934e-05
-7.2535e-05
-7.05488e-05
-6.85407e-05
-6.65985e-05
-6.46093e-05
-6.26797e-05
-6.06736e-05
-5.87204e-05
-5.66567e-05
-5.4638e-05
-5.24698e-05
-5.03384e-05
-4.80114e-05
-4.57116e-05
-4.31646e-05
-4.06331e-05
-3.77932e-05
-3.49566e-05
-3.1744e-05
-2.85143e-05
-2.48374e-05
-2.11225e-05
-1.68865e-05
-1.26064e-05
-7.77855e-06
-2.96812e-06
0.000892791
0.000838833
0.000760088
0.00065548
0.000529572
0.000392074
0.000255448
0.000130982
2.57689e-05
-5.78948e-05
-0.000121186
-0.000167019
-0.000198839
-0.000220071
-0.000233846
-0.000242758
-0.000248662
-0.000252677
-0.000255357
-0.000256927
-0.000257484
-0.00025711
-0.000255901
-0.000253975
-0.000251442
-0.000248407
-0.000244953
-0.000241156
-0.000237075
-0.000232769
-0.000228283
-0.000223661
-0.000218937
-0.000214145
-0.000209309
-0.000204453
-0.000199593
-0.000194747
-0.000189928
-0.000185148
-0.000180417
-0.000175745
-0.000171137
-0.000166605
-0.000162147
-0.000157776
-0.00015349
-0.000149298
-0.000145196
-0.000141193
-0.000137286
-0.00013348
-0.000129771
-0.000126166
-0.000122655
-0.000119251
-0.000115938
-0.00011273
-0.000109611
-0.000106594
-0.000103662
-0.000100829
-9.80731e-05
-9.54149e-05
-9.2824e-05
-9.03288e-05
-8.78898e-05
-8.55427e-05
-8.3241e-05
-8.10254e-05
-7.88428e-05
-7.6741e-05
-7.46563e-05
-7.26477e-05
-7.06375e-05
-6.8698e-05
-6.67363e-05
-6.48381e-05
-6.28946e-05
-6.10068e-05
-5.90468e-05
-5.71341e-05
-5.51181e-05
-5.31391e-05
-5.10223e-05
-4.89303e-05
-4.666e-05
-4.44009e-05
-4.19188e-05
-3.943e-05
-3.66668e-05
-3.38775e-05
-3.07579e-05
-2.75842e-05
-2.40231e-05
-2.0381e-05
-1.62963e-05
-1.21154e-05
-7.47768e-06
-2.7807e-06
0.000817579
0.000767739
0.000698052
0.000607824
0.000500413
0.00038273
0.000263915
0.000152939
5.63134e-05
-2.29542e-05
-8.49227e-05
-0.000131543
-0.000165527
-0.000189675
-0.000206556
-0.000218347
-0.000226707
-0.000232742
-0.000237088
-0.00024007
-0.000241855
-0.000242566
-0.000242323
-0.000241259
-0.000239499
-0.000237161
-0.00023434
-0.000231122
-0.000227571
-0.000223752
-0.000219712
-0.000215501
-0.000211156
-0.000206714
-0.000202201
-0.000197645
-0.000193065
-0.00018848
-0.000183905
-0.000179356
-0.00017484
-0.000170372
-0.000165957
-0.000161607
-0.000157322
-0.000153116
-0.000148986
-0.000144943
-0.000140983
-0.000137117
-0.000133338
-0.000129657
-0.000126065
-0.000122574
-0.000119171
-0.000115871
-0.000112657
-0.000109545
-0.000106516
-0.000103588
-0.000100739
-9.7987e-05
-9.53076e-05
-9.2724e-05
-9.02036e-05
-8.77769e-05
-8.54029e-05
-8.31191e-05
-8.08776e-05
-7.87204e-05
-7.6594e-05
-7.4546e-05
-7.25144e-05
-7.05557e-05
-6.85961e-05
-6.67032e-05
-6.47905e-05
-6.29361e-05
-6.10412e-05
-5.91949e-05
-5.72843e-05
-5.54118e-05
-5.3447e-05
-5.15077e-05
-4.94464e-05
-4.73942e-05
-4.51853e-05
-4.29683e-05
-4.0556e-05
-3.8113e-05
-3.5432e-05
-3.2695e-05
-2.96745e-05
-2.65657e-05
-2.31268e-05
-1.95707e-05
-1.5644e-05
-1.1579e-05
-7.13865e-06
-2.58332e-06
0.000749661
0.000703795
0.000641896
0.00056355
0.000471304
0.000370219
0.000267035
0.000168703
8.08095e-05
6.55282e-06
-5.33265e-05
-9.98963e-05
-0.000135155
-0.000161352
-0.000180606
-0.000194742
-0.000205208
-0.000213043
-0.000218912
-0.000223202
-0.000226139
-0.000227881
-0.000228567
-0.00022834
-0.000227336
-0.000225682
-0.000223485
-0.000220836
-0.00021781
-0.000214474
-0.00021088
-0.00020708
-0.000203115
-0.000199025
-0.000194838
-0.000190586
-0.000186289
-0.00018197
-0.000177644
-0.000173329
-0.000169034
-0.000164775
-0.000160557
-0.000156394
-0.000152287
-0.000148251
-0.000144281
-0.000140392
-0.000136579
-0.000132852
-0.000129207
-0.000125654
-0.000122185
-0.000118811
-0.00011552
-0.000112328
-0.000109216
-0.000106204
-0.000103269
-0.000100432
-9.76688e-05
-9.50008e-05
-9.24012e-05
-8.98942e-05
-8.74476e-05
-8.50912e-05
-8.27856e-05
-8.05664e-05
-7.83883e-05
-7.62906e-05
-7.42236e-05
-7.22303e-05
-7.02549e-05
-6.83468e-05
-6.64408e-05
-6.45952e-05
-6.27345e-05
-6.09244e-05
-5.90814e-05
-5.72771e-05
-5.5419e-05
-5.35877e-05
-5.16773e-05
-4.9779e-05
-4.77763e-05
-4.57661e-05
-4.36217e-05
-4.145e-05
-3.91104e-05
-3.67182e-05
-3.41224e-05
-3.14446e-05
-2.85261e-05
-2.54923e-05
-2.21783e-05
-1.87215e-05
-1.49551e-05
-1.10225e-05
-6.7833e-06
-2.39781e-06
0.000687932
0.000645852
0.000590727
0.000522348
0.000442691
0.000355543
0.000265918
0.000179146
9.98237e-05
3.09941e-05
-2.61355e-05
-7.19226e-05
-0.000107705
-0.000135216
-0.000156189
-0.000172154
-0.000184358
-0.000193746
-0.000200968
-0.000206444
-0.000210439
-0.00021314
-0.0002147
-0.000215271
-0.000214994
-0.000214004
-0.000212413
-0.000210322
-0.00020781
-0.000204949
-0.000201796
-0.000198405
-0.000194819
-0.000191081
-0.000187222
-0.000183276
-0.000179266
-0.000175216
-0.000171142
-0.000167065
-0.000162995
-0.00015895
-0.000154934
-0.000150963
-0.000147039
-0.000143177
-0.000139373
-0.000135643
-0.00013198
-0.000128399
-0.000124892
-0.000121472
-0.000118129
-0.000114877
-0.000111703
-0.000108622
-0.000105618
-0.000102708
-9.98719e-05
-9.7129e-05
-9.44568e-05
-9.18753e-05
-8.93598e-05
-8.69321e-05
-8.45635e-05
-8.22797e-05
-8.00463e-05
-7.78941e-05
-7.57831e-05
-7.3747e-05
-7.17429e-05
-6.98064e-05
-6.78907e-05
-6.6035e-05
-6.41859e-05
-6.23894e-05
-6.0584e-05
-5.88201e-05
-5.70319e-05
-5.52719e-05
-5.34692e-05
-5.16816e-05
-4.98281e-05
-4.79742e-05
-4.60325e-05
-4.40681e-05
-4.19905e-05
-3.98693e-05
-3.76044e-05
-3.52693e-05
-3.27606e-05
-3.01506e-05
-2.73353e-05
-2.43872e-05
-2.11992e-05
-1.78545e-05
-1.42484e-05
-1.04631e-05
-6.42657e-06
-2.23287e-06
0.000631492
0.00059299
0.000543814
0.000483901
0.00041481
0.000339418
0.000261494
0.00018511
0.000113961
5.07527e-05
-3.10983e-06
-4.74809e-05
-8.31348e-05
-0.000111332
-0.000133449
-0.00015076
-0.000164333
-0.000175006
-0.000183391
-0.000189911
-0.000194853
-0.000198424
-0.00020079
-0.000202107
-0.000202518
-0.000202161
-0.000201154
-0.000199602
-0.00019759
-0.000195193
-0.000192472
-0.000189484
-0.000186273
-0.000182885
-0.000179354
-0.000175715
-0.000171993
-0.000168214
-0.000164396
-0.000160561
-0.000156721
-0.000152892
-0.000149083
-0.000145309
-0.000141572
-0.000137888
-0.000134256
-0.000130688
-0.000127183
-0.000123751
-0.000120388
-0.000117104
-0.000113894
-0.000110768
-0.000107715
-0.00010475
-0.000101858
-9.90545e-05
-9.63221e-05
-9.36772e-05
-9.11006e-05
-8.86092e-05
-8.61821e-05
-8.38371e-05
-8.15505e-05
-7.93427e-05
-7.71856e-05
-7.51033e-05
-7.30634e-05
-7.10918e-05
-6.91543e-05
-6.72774e-05
-6.54249e-05
-6.36245e-05
-6.18357e-05
-6.00913e-05
-5.83442e-05
-5.66298e-05
-5.48992e-05
-5.3187e-05
-5.14424e-05
-4.97024e-05
-4.79083e-05
-4.61032e-05
-4.42247e-05
-4.23114e-05
-4.03025e-05
-3.82381e-05
-3.60496e-05
-3.37792e-05
-3.13589e-05
-2.88257e-05
-2.61151e-05
-2.32629e-05
-2.02021e-05
-1.69809e-05
-1.35352e-05
-9.90967e-06
-6.07562e-06
-2.08725e-06
0.000579593
0.000544459
0.000500546
0.000447896
0.000387757
0.000322341
0.000254501
0.000187355
0.000123831
6.62411e-05
1.60018e-05
-2.64297e-05
-6.13904e-05
-8.97244e-05
-0.000112481
-0.000130698
-0.00014528
-0.000156963
-0.000166304
-0.000173711
-0.000179476
-0.000183818
-0.000186909
-0.000188907
-0.000189957
-0.000190195
-0.000189741
-0.000188704
-0.000187171
-0.000185223
-0.000182922
-0.000180327
-0.000177485
-0.000174443
-0.000171238
-0.000167904
-0.00016447
-0.000160964
-0.000157404
-0.000153813
-0.000150205
-0.000146597
-0.000142998
-0.000139425
-0.000135881
-0.00013238
-0.000128923
-0.000125524
-0.000122179
-0.000118902
-0.000115687
-0.000112546
-0.000109472
-0.000106477
-0.000103551
-0.000100706
-9.79312e-05
-9.52385e-05
-9.26143e-05
-9.00717e-05
-8.75952e-05
-8.5198e-05
-8.28637e-05
-8.06055e-05
-7.84051e-05
-7.62771e-05
-7.42002e-05
-7.21917e-05
-7.02264e-05
-6.83232e-05
-6.64559e-05
-6.46422e-05
-6.28561e-05
-6.11149e-05
-5.93895e-05
-5.77011e-05
-5.60152e-05
-5.43544e-05
-5.26842e-05
-5.10241e-05
-4.93401e-05
-4.76526e-05
-4.59203e-05
-4.41694e-05
-4.23563e-05
-4.05003e-05
-3.85621e-05
-3.65612e-05
-3.44512e-05
-3.22532e-05
-2.99232e-05
-2.74756e-05
-2.48718e-05
-2.2125e-05
-1.91931e-05
-1.61054e-05
-1.2821e-05
-9.3646e-06
-5.73228e-06
-1.95574e-06
0.000531605
0.000499629
0.000460401
0.000414037
0.000361548
0.000304647
0.000245512
0.000186533
0.000130017
7.78903e-05
3.14751e-05
-8.61178e-06
-4.23986e-05
-7.03887e-05
-9.33372e-05
-0.000112062
-0.000127317
-0.000139736
-0.000149818
-0.000157945
-0.000164399
-0.000169401
-0.000173126
-0.000175733
-0.000177361
-0.000178147
-0.000178209
-0.000177656
-0.000176579
-0.000175058
-0.000173161
-0.000170946
-0.000168464
-0.000165761
-0.000162876
-0.000159845
-0.000156698
-0.000153463
-0.000150162
-0.000146817
-0.000143443
-0.00014006
-0.000136675
-0.000133306
-0.000129958
-0.000126645
-0.000123368
-0.000120141
-0.000116963
-0.000113845
-0.000110783
-0.000107789
-0.000104857
-0.000101998
-9.92034e-05
-9.6484e-05
-9.3831e-05
-9.12539e-05
-8.87426e-05
-8.63069e-05
-8.3935e-05
-8.16366e-05
-7.93994e-05
-7.72323e-05
-7.51223e-05
-7.30784e-05
-7.10856e-05
-6.91551e-05
-6.72683e-05
-6.54375e-05
-6.36438e-05
-6.18978e-05
-6.01813e-05
-5.85036e-05
-5.68447e-05
-5.52167e-05
-5.35949e-05
-5.19924e-05
-5.03852e-05
-4.87824e-05
-4.71615e-05
-4.55317e-05
-4.38638e-05
-4.21728e-05
-4.04274e-05
-3.8635e-05
-3.67702e-05
-3.48395e-05
-3.28107e-05
-3.06926e-05
-2.84559e-05
-2.61017e-05
-2.36078e-05
-2.09749e-05
-1.8175e-05
-1.52288e-05
-1.21077e-05
-8.82716e-06
-5.39587e-06
-1.83328e-06
0.000486989
0.00045797
0.000422935
0.000382054
0.000336154
0.000286567
0.000234964
0.000183185
0.000133045
8.61261e-05
4.36041e-05
6.14953e-06
-2.607e-05
-5.32987e-05
-7.60419e-05
-9.49166e-05
-0.000110532
-0.000123424
-0.000134032
-0.000142702
-0.000149704
-0.000155248
-0.00015951
-0.000162642
-0.000164782
-0.00016606
-0.000166593
-0.000166488
-0.000165837
-0.00016472
-0.000163206
-0.000161356
-0.000159219
-0.000156846
-0.000154274
-0.000151541
-0.000148678
-0.000145713
-0.00014267
-0.000139572
-0.000136434
-0.000133276
-0.000130108
-0.000126947
-0.000123798
-0.000120677
-0.000117585
-0.000114535
-0.000111528
-0.000108573
-0.00010567
-0.000102828
-0.000100043
-9.73241e-05
-9.46663e-05
-9.20771e-05
-8.95508e-05
-8.70944e-05
-8.47008e-05
-8.23768e-05
-8.01141e-05
-7.79193e-05
-7.57836e-05
-7.37124e-05
-7.16967e-05
-6.97417e-05
-6.7837e-05
-6.59891e-05
-6.41843e-05
-6.24306e-05
-6.0714e-05
-5.90404e-05
-5.73968e-05
-5.57871e-05
-5.41979e-05
-5.26351e-05
-5.10805e-05
-4.95411e-05
-4.8e-05
-4.64594e-05
-4.49048e-05
-4.33377e-05
-4.17374e-05
-4.0112e-05
-3.84375e-05
-3.67145e-05
-3.49266e-05
-3.30724e-05
-3.11283e-05
-2.9097e-05
-2.69575e-05
-2.47042e-05
-2.2324e-05
-1.98121e-05
-1.71488e-05
-1.43506e-05
-1.13954e-05
-8.2953e-06
-5.06485e-06
-1.71632e-06
0.000445275
0.000419023
0.000387765
0.00035171
0.000311534
0.000268266
0.000223197
0.000177755
0.000133376
9.13482e-05
5.26855e-05
1.80437e-05
-1.23022e-05
-3.84152e-05
-6.06014e-05
-7.93009e-05
-9.49872e-05
-0.000108103
-0.000119025
-0.000128064
-0.000135464
-0.000141428
-0.000146121
-0.00014969
-0.000152267
-0.000153976
-0.00015493
-0.000155231
-0.00015497
-0.000154228
-0.000153074
-0.000151568
-0.000149763
-0.000147706
-0.000145438
-0.000142996
-0.000140411
-0.000137714
-0.000134927
-0.000132074
-0.000129173
-0.000126242
-0.000123293
-0.000120342
-0.000117397
-0.00011447
-0.000111567
-0.000108699
-0.000105867
-0.000103081
-0.000100341
-9.76553e-05
-9.50226e-05
-9.24492e-05
-8.99328e-05
-8.74791e-05
-8.50843e-05
-8.27538e-05
-8.04826e-05
-7.82755e-05
-7.61266e-05
-7.40403e-05
-7.20105e-05
-7.00402e-05
-6.81232e-05
-6.62619e-05
-6.44492e-05
-6.26887e-05
-6.097e-05
-5.92981e-05
-5.76624e-05
-5.60656e-05
-5.44986e-05
-5.29617e-05
-5.14457e-05
-4.99527e-05
-4.84689e-05
-4.69974e-05
-4.55257e-05
-4.40524e-05
-4.25676e-05
-4.10684e-05
-3.95393e-05
-3.79848e-05
-3.6385e-05
-3.47372e-05
-3.30301e-05
-3.12586e-05
-2.94037e-05
-2.74653e-05
-2.54276e-05
-2.32821e-05
-2.10205e-05
-1.86358e-05
-1.6114e-05
-1.34698e-05
-1.06832e-05
-7.76693e-06
-4.73753e-06
-1.60246e-06
0.00040605
0.000382382
0.000354563
0.000322816
0.000287657
0.000249877
0.000210486
0.000170617
0.000131415
9.39268e-05
5.90111e-05
2.72682e-05
-9.83762e-07
-2.56928e-05
-4.70165e-05
-6.52484e-05
-8.07399e-05
-9.38433e-05
-0.000104875
-0.000114104
-0.000121752
-0.000128005
-0.000133017
-0.000136928
-0.000139861
-0.000141933
-0.000143249
-0.000143909
-0.000143999
-0.0001436
-0.000142778
-0.000141595
-0.000140102
-0.000138347
-0.000136371
-0.000134211
-0.000131899
-0.000129464
-0.00012693
-0.000124322
-0.000121657
-0.000118954
-0.000116226
-0.000113487
-0.000110748
-0.00010802
-0.000105309
-0.000102626
-9.99737e-05
-9.73607e-05
-9.47892e-05
-9.2265e-05
-8.97891e-05
-8.73666e-05
-8.49966e-05
-8.26835e-05
-8.04253e-05
-7.82258e-05
-7.60819e-05
-7.39969e-05
-7.19666e-05
-6.9994e-05
-6.80748e-05
-6.62103e-05
-6.43964e-05
-6.26337e-05
-6.09175e-05
-5.92491e-05
-5.76207e-05
-5.60353e-05
-5.44845e-05
-5.29694e-05
-5.14829e-05
-5.00235e-05
-4.85847e-05
-4.7166e-05
-4.57569e-05
-4.43581e-05
-4.29597e-05
-4.15586e-05
-4.01475e-05
-3.87211e-05
-3.72676e-05
-3.57892e-05
-3.42683e-05
-3.27014e-05
-3.10797e-05
-2.93964e-05
-2.7636e-05
-2.57967e-05
-2.38657e-05
-2.18342e-05
-1.96969e-05
-1.74452e-05
-1.50698e-05
-1.25847e-05
-9.97038e-06
-7.2406e-06
-4.41253e-06
-1.48988e-06
0.000368908
0.000347649
0.000323055
0.000295223
0.000264503
0.000231518
0.000197083
0.000162116
0.000127547
9.42329e-05
6.289e-05
3.40466e-05
8.02209e-06
-1.50676e-05
-3.52776e-05
-5.27869e-05
-6.78425e-05
-8.07139e-05
-9.16578e-05
-0.000100903
-0.000108646
-0.000115053
-0.000120268
-0.000124418
-0.000127618
-0.000129977
-0.000131592
-0.000132556
-0.000132952
-0.000132857
-0.000132336
-0.000131449
-0.000130246
-0.000128776
-0.000127077
-0.000125188
-0.00012314
-0.000120961
-0.000118677
-0.000116311
-0.000113881
-0.000111405
-0.000108898
-0.000106374
-0.000103843
-0.000101317
-9.88022e-05
-9.63084e-05
-9.38405e-05
-9.14053e-05
-8.90065e-05
-8.6649e-05
-8.4335e-05
-8.20686e-05
-7.98501e-05
-7.7683e-05
-7.55665e-05
-7.35035e-05
-7.1492e-05
-6.95343e-05
-6.76277e-05
-6.5774e-05
-6.39702e-05
-6.22167e-05
-6.05107e-05
-5.88517e-05
-5.72365e-05
-5.56651e-05
-5.41315e-05
-5.26374e-05
-5.11759e-05
-4.97472e-05
-4.83454e-05
-4.69682e-05
-4.56109e-05
-4.42713e-05
-4.2941e-05
-4.16198e-05
-4.02989e-05
-3.89749e-05
-3.76419e-05
-3.62933e-05
-3.49201e-05
-3.35228e-05
-3.20855e-05
-3.06051e-05
-2.9074e-05
-2.74845e-05
-2.58237e-05
-2.40898e-05
-2.22711e-05
-2.03595e-05
-1.8352e-05
-1.62392e-05
-1.40155e-05
-1.16937e-05
-9.25539e-06
-6.71528e-06
-4.08926e-06
-1.37763e-06
0.000326537
0.000308198
0.000287339
0.000263776
0.000237771
0.000209829
0.000180597
0.000150801
0.000121177
9.24035e-05
6.50542e-05
3.95709e-05
1.62501e-05
-4.75633e-06
-2.34243e-05
-3.98324e-05
-5.41274e-05
-6.64929e-05
-7.71202e-05
-8.61919e-05
-9.38721e-05
-0.000100306
-0.00010562
-0.00010993
-0.000113337
-0.000115939
-0.000117825
-0.000119079
-0.000119778
-0.000119992
-0.000119784
-0.000119211
-0.000118323
-0.000117165
-0.000115775
-0.000114191
-0.000112442
-0.000110558
-0.000108563
-0.000106479
-0.000104325
-0.000102119
-9.9875e-05
-9.76073e-05
-9.53258e-05
-9.30424e-05
-9.07641e-05
-8.84999e-05
-8.62555e-05
-8.4037e-05
-8.1849e-05
-7.96955e-05
-7.75798e-05
-7.55053e-05
-7.3473e-05
-7.1486e-05
-6.95441e-05
-6.76497e-05
-6.58019e-05
-6.40021e-05
-6.22486e-05
-6.05427e-05
-5.88821e-05
-5.72668e-05
-5.56949e-05
-5.41652e-05
-5.2676e-05
-5.12259e-05
-4.98105e-05
-4.84308e-05
-4.7081e-05
-4.57607e-05
-4.44651e-05
-4.31912e-05
-4.19362e-05
-4.06963e-05
-3.94651e-05
-3.82417e-05
-3.70186e-05
-3.57921e-05
-3.45575e-05
-3.33072e-05
-3.20354e-05
-3.07409e-05
-2.94091e-05
-2.80378e-05
-2.66209e-05
-2.51499e-05
-2.36141e-05
-2.20122e-05
-2.03344e-05
-1.85724e-05
-1.67256e-05
-1.47847e-05
-1.27482e-05
-1.06254e-05
-8.40045e-06
-6.09003e-06
-3.70647e-06
-1.24585e-06
0.000279993
0.000264648
0.000247435
0.000228213
0.000207047
0.000184251
0.000160313
0.0001358
0.000111285
8.72931e-05
6.42702e-05
4.25683e-05
2.24417e-05
4.0477e-06
-1.25442e-05
-2.73412e-05
-4.04089e-05
-5.18531e-05
-6.18e-05
-7.03819e-05
-7.77263e-05
-8.39516e-05
-8.9165e-05
-9.34639e-05
-9.69373e-05
-9.96685e-05
-0.000101734
-0.000103209
-0.000104159
-0.000104647
-0.000104732
-0.000104465
-0.000103892
-0.000103055
-0.000101992
-0.000100736
-9.93171e-05
-9.7761e-05
-9.60918e-05
-9.43305e-05
-9.24956e-05
-9.06036e-05
-8.86686e-05
-8.67043e-05
-8.47205e-05
-8.27285e-05
-8.07352e-05
-7.87495e-05
-7.67769e-05
-7.48233e-05
-7.28934e-05
-7.0991e-05
-6.91198e-05
-6.72825e-05
-6.5481e-05
-6.37177e-05
-6.1993e-05
-6.03092e-05
-5.86656e-05
-5.70634e-05
-5.55016e-05
-5.39813e-05
-5.25006e-05
-5.10594e-05
-4.96563e-05
-4.829e-05
-4.69597e-05
-4.56632e-05
-4.43976e-05
-4.3163e-05
-4.19549e-05
-4.07727e-05
-3.9612e-05
-3.84702e-05
-3.73453e-05
-3.62331e-05
-3.51288e-05
-3.40306e-05
-3.29325e-05
-3.18316e-05
-3.07229e-05
-2.95992e-05
-2.84576e-05
-2.7295e-05
-2.60985e-05
-2.48677e-05
-2.35965e-05
-2.22773e-05
-2.09013e-05
-1.9467e-05
-1.79674e-05
-1.63954e-05
-1.47496e-05
-1.30228e-05
-1.12189e-05
-9.34092e-06
-7.37517e-06
-5.34348e-06
-3.25186e-06
-1.09206e-06
0.00023264
0.00022036
0.000206833
0.000191716
0.00017499
0.000156881
0.000137771
0.000118109
9.83437e-05
7.88811e-05
6.00635e-05
4.2163e-05
2.53837e-05
9.86504e-06
-4.31163e-06
-1.71176e-05
-2.85679e-05
-3.87121e-05
-4.76235e-05
-5.53889e-05
-6.21e-05
-6.78468e-05
-7.27152e-05
-7.67846e-05
-8.01288e-05
-8.28168e-05
-8.49128e-05
-8.64784e-05
-8.757e-05
-8.82421e-05
-8.85433e-05
-8.85201e-05
-8.82131e-05
-8.76604e-05
-8.68951e-05
-8.59475e-05
-8.48447e-05
-8.36105e-05
-8.22668e-05
-8.08326e-05
-7.9325e-05
-7.77594e-05
-7.61487e-05
-7.45055e-05
-7.28392e-05
-7.11601e-05
-6.94749e-05
-6.77918e-05
-6.61159e-05
-6.44528e-05
-6.28071e-05
-6.11821e-05
-5.95817e-05
-5.80082e-05
-5.64637e-05
-5.49504e-05
-5.34689e-05
-5.20213e-05
-5.06072e-05
-4.92277e-05
-4.78822e-05
-4.65714e-05
-4.52942e-05
-4.40503e-05
-4.28387e-05
-4.16582e-05
-4.05084e-05
-3.9387e-05
-3.82921e-05
-3.72234e-05
-3.61772e-05
-3.51531e-05
-3.41469e-05
-3.3157e-05
-3.21815e-05
-3.1216e-05
-3.02577e-05
-2.93041e-05
-2.835e-05
-2.7394e-05
-2.64308e-05