/*--------------------------------*- C++ -*----------------------------------*\
| =========                 |                                                 |
| \\      /  F ield         | OpenFOAM: The Open Source CFD Toolbox           |
|  \\    /   O peration     | Version:  2.3.0                                 |
|   \\  /    A nd           | Web:      www.OpenFOAM.org                      |
|    \\/     M anipulation  |                                                 |
\*---------------------------------------------------------------------------*/
FoamFile
{
    version     2.0;
    format      ascii;
    class       surfaceScalarField;
    location    "0.3";
    object      phi;
}
// * * * * * * * * * * * * * * * * * * * * * * * * * * * * * * * * * * * * * //

dimensions      [0 3 -1 0 0 0 0];

internalField   nonuniform List<scalar> 
17305
(
2.83772e-08
2.87863e-09
-3.12559e-08
2.55139e-08
2.86332e-09
2.28268e-08
2.6871e-09
2.03498e-08
2.47706e-09
1.80988e-08
2.25095e-09
1.60846e-08
2.01423e-09
1.43095e-08
1.77508e-09
1.27683e-08
1.54124e-09
1.1449e-08
1.31928e-09
1.03344e-08
1.11454e-09
9.40352e-09
9.30929e-10
8.63277e-09
7.70745e-10
7.99815e-09
6.34622e-10
7.47641e-09
5.21733e-10
7.04628e-09
4.30137e-10
6.6891e-09
3.57178e-10
6.38921e-09
2.99891e-10
6.13388e-09
2.55327e-10
5.9131e-09
2.20779e-10
5.71918e-09
1.9392e-10
5.54634e-09
1.72841e-10
5.3903e-09
1.56044e-10
5.24791e-09
1.42394e-10
5.11685e-09
1.31054e-10
4.99543e-09
1.21425e-10
4.88234e-09
1.13082e-10
4.77661e-09
1.05729e-10
4.67745e-09
9.91612e-11
4.58422e-09
9.32338e-11
4.49638e-09
8.78432e-11
4.41346e-09
8.2913e-11
4.33508e-09
7.83841e-11
4.26087e-09
7.42091e-11
4.19052e-09
7.03487e-11
4.12375e-09
6.67689e-11
4.06031e-09
6.344e-11
3.99998e-09
6.03357e-11
3.94254e-09
5.74325e-11
3.88784e-09
5.47092e-11
3.83569e-09
5.2147e-11
3.78596e-09
4.97288e-11
3.73852e-09
4.74394e-11
3.69326e-09
4.52649e-11
3.65006e-09
4.31931e-11
3.60885e-09
4.12125e-11
3.56954e-09
3.93132e-11
3.53205e-09
3.74859e-11
3.49633e-09
3.57221e-11
3.46231e-09
3.40141e-11
3.42996e-09
3.23547e-11
3.39922e-09
3.07373e-11
3.37007e-09
2.91562e-11
3.34246e-09
2.76059e-11
3.31638e-09
2.60818e-11
3.2918e-09
2.458e-11
3.2687e-09
2.30968e-11
3.24707e-09
2.16283e-11
3.2269e-09
2.01694e-11
3.20819e-09
1.87122e-11
3.19095e-09
1.72442e-11
3.1752e-09
1.57463e-11
3.16101e-09
1.4192e-11
3.14846e-09
1.25475e-11
3.13769e-09
1.07746e-11
3.12885e-09
8.83804e-12
3.12214e-09
6.71103e-12
3.11777e-09
4.36895e-12
3.11593e-09
1.84007e-12
3.11635e-09
-4.22306e-13
3.11843e-09
-2.08185e-12
3.12175e-09
-3.31448e-12
3.12596e-09
-4.21478e-12
3.13078e-09
-4.81486e-12
3.13594e-09
-5.15726e-12
3.14123e-09
-5.29242e-12
3.14649e-09
-5.26485e-12
3.15161e-09
-5.11947e-12
3.1565e-09
-4.89238e-12
3.16112e-09
-4.61474e-12
3.16543e-09
-4.31009e-12
3.16943e-09
-3.9961e-12
3.17311e-09
-3.68504e-12
3.1765e-09
-3.38489e-12
3.1796e-09
-3.10039e-12
3.18243e-09
-2.83381e-12
3.18502e-09
-2.58585e-12
3.18737e-09
-2.35607e-12
3.18951e-09
-2.14352e-12
3.19146e-09
-1.94688e-12
3.19323e-09
-1.76464e-12
3.19482e-09
-1.59539e-12
3.19626e-09
-1.43764e-12
3.19755e-09
-1.29004e-12
3.1987e-09
-1.15125e-12
3.19972e-09
-1.01994e-12
3.20062e-09
-8.95294e-13
3.20139e-09
-7.79082e-13
3.20208e-09
-6.88705e-13
3.20281e-09
-7.27305e-13
-1.78054e-12
3.3416e-08
3.14937e-09
-3.36868e-08
3.28316e-08
3.4477e-09
3.20153e-08
3.50341e-09
3.10439e-08
3.4485e-09
2.99727e-08
3.32211e-09
2.88474e-08
3.13959e-09
2.77047e-08
2.91774e-09
2.6573e-08
2.67294e-09
2.54732e-08
2.41911e-09
2.44199e-08
2.16778e-09
2.34228e-08
1.92806e-09
2.24871e-08
1.70649e-09
2.16147e-08
1.50702e-09
2.08051e-08
1.33126e-09
2.00563e-08
1.17899e-09
1.93648e-08
1.04864e-09
1.87268e-08
9.37912e-10
1.8138e-08
8.44132e-10
1.75941e-08
7.64642e-10
1.70911e-08
6.96984e-10
1.66249e-08
6.39015e-10
1.6192e-08
5.88934e-10
1.57891e-08
5.45278e-10
1.54133e-08
5.0688e-10
1.50619e-08
4.72818e-10
1.47326e-08
4.42371e-10
1.44234e-08
4.14972e-10
1.41323e-08
3.90175e-10
1.3858e-08
3.67619e-10
1.35988e-08
3.47014e-10
1.33536e-08
3.28119e-10
1.31212e-08
3.10731e-10
1.29008e-08
2.94678e-10
1.26913e-08
2.79811e-10
1.24921e-08
2.66001e-10
1.23024e-08
2.53133e-10
1.21216e-08
2.41106e-10
1.19492e-08
2.29831e-10
1.17847e-08
2.19228e-10
1.16276e-08
2.09226e-10
1.14776e-08
1.99762e-10
1.13342e-08
1.90776e-10
1.11973e-08
1.82219e-10
1.10664e-08
1.74042e-10
1.09415e-08
1.66202e-10
1.08221e-08
1.58662e-10
1.07082e-08
1.51385e-10
1.05996e-08
1.44338e-10
1.04961e-08
1.3749e-10
1.03977e-08
1.30814e-10
1.03041e-08
1.24283e-10
1.02154e-08
1.17872e-10
1.01314e-08
1.1156e-10
1.00522e-08
1.05327e-10
9.97763e-09
9.91511e-11
9.90771e-09
9.30153e-11
9.84244e-09
8.68989e-11
9.78183e-09
8.07777e-11
9.72592e-09
7.4621e-11
9.67477e-09
6.83881e-11
9.62849e-09
6.20269e-11
9.58721e-09
5.5475e-11
9.55109e-09
4.86651e-11
9.52033e-09
4.15374e-11
9.49511e-09
3.40572e-11
9.47558e-09
2.62378e-11
9.46181e-09
1.81435e-11
9.4538e-09
9.85386e-12
9.4515e-09
1.87261e-12
9.454e-09
-4.57631e-12
9.45984e-09
-9.15729e-12
9.46804e-09
-1.24189e-11
9.47784e-09
-1.46168e-11
9.48863e-09
-1.59448e-11
9.49992e-09
-1.65826e-11
9.51134e-09
-1.66815e-11
9.5226e-09
-1.63845e-11
9.53352e-09
-1.58074e-11
9.54395e-09
-1.50484e-11
9.55383e-09
-1.41824e-11
9.5631e-09
-1.32661e-11
9.57175e-09
-1.23397e-11
9.5798e-09
-1.14302e-11
9.58725e-09
-1.05544e-11
9.59414e-09
-9.72162e-12
9.60049e-09
-8.9359e-12
9.60633e-09
-8.19785e-12
9.61169e-09
-7.50596e-12
9.6166e-09
-6.85768e-12
9.62109e-09
-6.24974e-12
9.62517e-09
-5.67884e-12
9.62887e-09
-5.14163e-12
9.63222e-09
-4.63481e-12
9.63522e-09
-4.15526e-12
9.6379e-09
-3.70027e-12
9.64028e-09
-3.26931e-12
9.64237e-09
-2.87186e-12
9.64424e-09
-2.56272e-12
9.64613e-09
-2.61157e-12
-4.15697e-12
3.48115e-08
2.99557e-09
-3.46577e-08
3.4877e-08
3.38215e-09
3.48165e-08
3.56391e-09
3.46356e-08
3.62944e-09
3.43448e-08
3.61286e-09
3.39585e-08
3.52588e-09
3.34941e-08
3.38221e-09
3.29692e-08
3.19779e-09
3.24007e-08
2.98767e-09
3.18033e-08
2.76515e-09
3.11899e-08
2.5415e-09
3.05708e-08
2.32555e-09
2.99543e-08
2.12353e-09
2.93464e-08
1.9391e-09
2.87516e-08
1.77381e-09
2.81727e-08
1.62755e-09
2.76115e-08
1.49911e-09
2.7069e-08
1.38667e-09
2.65455e-08
1.28813e-09
2.6041e-08
1.20145e-09
2.55553e-08
1.12473e-09
2.50879e-08
1.05635e-09
2.46382e-08
9.94924e-10
2.42058e-08
9.39342e-10
2.37899e-08
8.88706e-10
2.339e-08
8.42301e-10
2.30054e-08
7.99558e-10
2.26355e-08
7.6002e-10
2.22798e-08
7.23314e-10
2.19377e-08
6.89131e-10
2.16086e-08
6.57213e-10
2.1292e-08
6.27336e-10
2.09874e-08
5.99305e-10
2.06942e-08
5.72949e-10
2.04121e-08
5.48112e-10
2.01406e-08
5.24657e-10
1.98793e-08
5.02455e-10
1.96277e-08
4.81392e-10
1.93856e-08
4.61362e-10
1.91525e-08
4.42268e-10
1.89283e-08
4.24019e-10
1.87125e-08
4.06532e-10
1.8505e-08
3.89729e-10
1.83055e-08
3.7354e-10
1.81138e-08
3.57896e-10
1.79297e-08
3.42735e-10
1.77531e-08
3.27996e-10
1.75838e-08
3.13625e-10
1.74218e-08
2.99567e-10
1.72668e-08
2.85773e-10
1.71189e-08
2.72195e-10
1.6978e-08
2.58788e-10
1.6844e-08
2.45508e-10
1.6717e-08
2.32316e-10
1.6597e-08
2.1917e-10
1.6484e-08
2.06033e-10
1.6378e-08
1.9286e-10
1.62792e-08
1.79605e-10
1.61876e-08
1.66211e-10
1.61034e-08
1.52612e-10
1.60267e-08
1.38731e-10
1.59577e-08
1.24489e-10
1.58965e-08
1.09819e-10
1.58434e-08
9.46861e-11
1.57983e-08
7.91232e-11
1.57613e-08
6.32731e-11
1.5732e-08
4.74331e-11
1.57098e-08
3.2057e-11
1.56942e-08
1.74718e-11
1.56857e-08
3.90551e-12
1.56839e-08
-7.33876e-12
1.5687e-08
-1.55e-11
1.56936e-08
-2.12529e-11
1.57028e-08
-2.51051e-11
1.57136e-08
-2.74584e-11
1.57256e-08
-2.86305e-11
1.57381e-08
-2.89123e-11
1.57508e-08
-2.85365e-11
1.57635e-08
-2.77013e-11
1.57759e-08
-2.65604e-11
1.57878e-08
-2.52332e-11
1.57993e-08
-2.38074e-11
1.58102e-08
-2.23452e-11
1.58206e-08
-2.08888e-11
1.58303e-08
-1.94649e-11
1.58395e-08
-1.80891e-11
1.5848e-08
-1.67692e-11
1.5856e-08
-1.55079e-11
1.58635e-08
-1.4305e-11
1.58704e-08
-1.31583e-11
1.58768e-08
-1.20648e-11
1.58826e-08
-1.1021e-11
1.5888e-08
-1.00231e-11
1.58929e-08
-9.06771e-12
1.58974e-08
-8.15181e-12
1.59014e-08
-7.27631e-12
1.5905e-08
-6.458e-12
1.59082e-08
-5.7776e-12
1.59112e-08
-5.57667e-12
-6.93851e-12
3.56467e-08
2.80336e-09
-3.54544e-08
3.58427e-08
3.18613e-09
3.59977e-08
3.40892e-09
3.60993e-08
3.52784e-09
3.6141e-08
3.57117e-09
3.61189e-08
3.54799e-09
3.60335e-08
3.46759e-09
3.58889e-08
3.34235e-09
3.56914e-08
3.18515e-09
3.54485e-08
3.00807e-09
3.51682e-08
2.82184e-09
3.48583e-08
2.63547e-09
3.4526e-08
2.4558e-09
3.41776e-08
2.28745e-09
3.38184e-08
2.13301e-09
3.34526e-08
1.99343e-09
3.30832e-08
1.86844e-09
3.27129e-08
1.75702e-09
3.23433e-08
1.65771e-09
3.19758e-08
1.56894e-09
3.16114e-08
1.48917e-09
3.12507e-08
1.41702e-09
3.08943e-08
1.35127e-09
3.05428e-08
1.29094e-09
3.01963e-08
1.2352e-09
2.98552e-08
1.18341e-09
2.95197e-08
1.13503e-09
2.91901e-08
1.08965e-09
2.88664e-08
1.04692e-09
2.8549e-08
1.00657e-09
2.82379e-08
9.68363e-10
2.79331e-08
9.32092e-10
2.76348e-08
8.97587e-10
2.73431e-08
8.64693e-10
2.70579e-08
8.33272e-10
2.67794e-08
8.03197e-10
2.65075e-08
7.74353e-10
2.62422e-08
7.46633e-10
2.59837e-08
7.19936e-10
2.57318e-08
6.94168e-10
2.54865e-08
6.69242e-10
2.5248e-08
6.45074e-10
2.50161e-08
6.21585e-10
2.4791e-08
5.98699e-10
2.45725e-08
5.76342e-10
2.43608e-08
5.54446e-10
2.41559e-08
5.32942e-10
2.39577e-08
5.11766e-10
2.37664e-08
4.90853e-10
2.35821e-08
4.70142e-10
2.34047e-08
4.49572e-10
2.32344e-08
4.29085e-10
2.30713e-08
4.08625e-10
2.29155e-08
3.88136e-10
2.27671e-08
3.67562e-10
2.26263e-08
3.46846e-10
2.24932e-08
3.25929e-10
2.2368e-08
3.04744e-10
2.2251e-08
2.83218e-10
2.21424e-08
2.6127e-10
2.20423e-08
2.38819e-10
2.1951e-08
2.15796e-10
2.18686e-08
1.92164e-10
2.17954e-08
1.67953e-10
2.17312e-08
1.43303e-10
2.1676e-08
1.18507e-10
2.16293e-08
9.40508e-11
2.15908e-08
7.06066e-11
2.15594e-08
4.89058e-11
2.15339e-08
2.94038e-11
2.15147e-08
1.18139e-11
2.15027e-08
-3.45134e-12
2.14967e-08
-1.52811e-11
2.14954e-08
-2.38423e-11
2.14978e-08
-2.98374e-11
2.15029e-08
-3.37697e-11
2.15101e-08
-3.60985e-11
2.15188e-08
-3.71892e-11
2.15284e-08
-3.73606e-11
2.15387e-08
-3.68633e-11
2.15494e-08
-3.58984e-11
2.15602e-08
-3.46194e-11
2.1571e-08
-3.31407e-11
2.15817e-08
-3.15456e-11
2.15921e-08
-2.98918e-11
2.16022e-08
-2.82188e-11
2.1612e-08
-2.65517e-11
2.16214e-08
-2.49061e-11
2.16304e-08
-2.3291e-11
2.1639e-08
-2.17109e-11
2.16471e-08
-2.01677e-11
2.16547e-08
-1.86617e-11
2.16619e-08
-1.71921e-11
2.16686e-08
-1.57574e-11
2.16748e-08
-1.43567e-11
2.16805e-08
-1.29929e-11
2.16857e-08
-1.16855e-11
2.16904e-08
-1.05162e-11
2.16947e-08
-9.79071e-12
-1.03284e-11
3.63986e-08
2.63497e-09
-3.62302e-08
3.6597e-08
2.98771e-09
3.67894e-08
3.21655e-09
3.6963e-08
3.35424e-09
3.71103e-08
3.42384e-09
3.72243e-08
3.43405e-09
3.72999e-08
3.392e-09
3.73349e-08
3.30728e-09
3.73296e-08
3.19044e-09
3.7286e-08
3.0517e-09
3.72074e-08
2.90045e-09
3.70981e-08
2.74481e-09
3.69626e-08
2.5913e-09
3.68054e-08
2.44464e-09
3.66306e-08
2.30782e-09
3.64417e-08
2.18231e-09
3.62417e-08
2.06847e-09
3.60328e-08
1.96584e-09
3.58171e-08
1.87349e-09
3.55958e-08
1.79024e-09
3.53701e-08
1.71489e-09
3.51408e-08
1.64627e-09
3.49087e-08
1.58335e-09
3.46744e-08
1.52526e-09
3.44383e-08
1.47126e-09
3.4201e-08
1.42074e-09
3.39628e-08
1.37322e-09
3.37242e-08
1.32831e-09
3.34854e-08
1.28568e-09
3.32469e-08
1.24509e-09
3.3009e-08
1.2063e-09
3.27719e-08
1.16914e-09
3.2536e-08
1.13346e-09
3.23016e-08
1.09909e-09
3.2069e-08
1.06594e-09
3.18383e-08
1.03387e-09
3.16099e-08
1.00279e-09
3.13839e-08
9.72595e-10
3.11606e-08
9.43201e-10
3.09403e-08
9.14519e-10
3.07231e-08
8.86467e-10
3.05092e-08
8.58967e-10
3.02988e-08
8.31943e-10
3.00922e-08
8.05321e-10
2.98895e-08
7.79031e-10
2.96909e-08
7.53001e-10
2.94967e-08
7.27161e-10
2.9307e-08
7.01444e-10
2.91221e-08
6.75782e-10
2.89421e-08
6.50107e-10
2.87674e-08
6.24353e-10
2.8598e-08
5.98455e-10
2.84343e-08
5.72346e-10
2.82765e-08
5.45961e-10
2.81248e-08
5.19236e-10
2.79795e-08
4.921e-10
2.7841e-08
4.64485e-10
2.77094e-08
4.36312e-10
2.75851e-08
4.07502e-10
2.74684e-08
3.77975e-10
2.73596e-08
3.4766e-10
2.72588e-08
3.16516e-10
2.71665e-08
2.84558e-10
2.70825e-08
2.51895e-10
2.7007e-08
2.18777e-10
2.69399e-08
1.85633e-10
2.68809e-08
1.53092e-10
2.68295e-08
1.2195e-10
2.67854e-08
9.30436e-11
2.67478e-08
6.70152e-11
2.67154e-08
4.41545e-11
2.66877e-08
2.43209e-11
2.66654e-08
7.02991e-12
2.66489e-08
-7.4044e-12
2.66375e-08
-1.84472e-11
2.66303e-08
-2.65728e-11
2.66266e-08
-3.23699e-11
2.66257e-08
-3.62918e-11
2.66271e-08
-3.87534e-11
2.66303e-08
-4.00857e-11
2.6635e-08
-4.05662e-11
2.66408e-08
-4.04131e-11
2.66474e-08
-3.97968e-11
2.66547e-08
-3.8847e-11
2.66625e-08
-3.76601e-11
2.66706e-08
-3.63068e-11
2.66789e-08
-3.48374e-11
2.66873e-08
-3.32876e-11
2.66957e-08
-3.1682e-11
2.6704e-08
-3.00376e-11
2.67122e-08
-2.8366e-11
2.67202e-08
-2.66753e-11
2.6728e-08
-2.49706e-11
2.67355e-08
-2.32556e-11
2.67426e-08
-2.15331e-11
2.67495e-08
-1.98084e-11
2.67559e-08
-1.8098e-11
2.67618e-08
-1.64599e-11
2.67671e-08
-1.50802e-11
-1.42631e-11
3.7144e-08
2.49277e-09
-3.70018e-08
3.73217e-08
2.81008e-09
3.75063e-08
3.03197e-09
3.76857e-08
3.17482e-09
3.78536e-08
3.2559e-09
3.8004e-08
3.28363e-09
3.81318e-08
3.26419e-09
3.82337e-08
3.20542e-09
3.83079e-08
3.11619e-09
3.83544e-08
3.00523e-09
3.83742e-08
2.88067e-09
3.83693e-08
2.7497e-09
3.83424e-08
2.61822e-09
3.82963e-08
2.49073e-09
3.82339e-08
2.37023e-09
3.81577e-08
2.25848e-09
3.807e-08
2.15616e-09
3.79727e-08
2.06321e-09
3.78671e-08
1.97905e-09
3.77545e-08
1.90285e-09
3.76357e-08
1.83364e-09
3.75115e-08
1.77048e-09
3.73824e-08
1.71246e-09
3.72488e-08
1.65883e-09
3.71112e-08
1.60889e-09
3.69698e-08
1.56211e-09
3.6825e-08
1.51802e-09
3.66771e-08
1.47624e-09
3.65263e-08
1.43647e-09
3.63729e-08
1.39845e-09
3.62173e-08
1.36197e-09
3.60596e-08
1.32684e-09
3.59001e-08
1.29292e-09
3.57392e-08
1.26006e-09
3.5577e-08
1.22814e-09
3.54138e-08
1.19706e-09
3.52498e-08
1.16671e-09
3.50854e-08
1.13699e-09
3.49208e-08
1.10782e-09
3.47562e-08
1.07911e-09
3.45919e-08
1.05079e-09
3.44281e-08
1.02276e-09
3.42651e-08
9.94963e-10
3.41031e-08
9.67315e-10
3.39424e-08
9.39744e-10
3.37832e-08
9.12177e-10
3.36258e-08
8.84542e-10
3.34705e-08
8.56764e-10
3.33175e-08
8.28772e-10
3.31671e-08
8.00493e-10
3.30196e-08
7.71854e-10
3.28753e-08
7.42781e-10
3.27344e-08
7.13203e-10
3.25974e-08
6.83045e-10
3.24644e-08
6.52232e-10
3.23358e-08
6.2069e-10
3.22119e-08
5.88339e-10
3.20931e-08
5.55099e-10
3.19797e-08
5.2089e-10
3.18721e-08
4.8564e-10
3.17704e-08
4.49299e-10
3.16751e-08
4.1186e-10
3.15863e-08
3.73393e-10
3.15041e-08
3.34084e-10
3.14286e-08
2.94273e-10
3.13597e-08
2.54492e-10
3.12974e-08
2.15461e-10
3.12413e-08
1.78041e-10
3.11912e-08
1.43107e-10
3.11469e-08
1.11362e-10
3.11078e-08
8.32058e-11
3.10734e-08
5.87141e-11
3.10427e-08
3.77732e-11
3.10153e-08
1.99993e-11
3.0992e-08
4.85554e-12
3.0973e-08
-7.62342e-12
3.09579e-08
-1.7301e-11
3.09463e-08
-2.4625e-11
3.09376e-08
-3.00587e-11
3.09315e-08
-3.39635e-11
3.09276e-08
-3.66602e-11
3.09255e-08
-3.84058e-11
3.09252e-08
-3.94095e-11
3.09261e-08
-3.98365e-11
3.09283e-08
-3.98145e-11
3.09314e-08
-3.94417e-11
3.09354e-08
-3.87919e-11
3.094e-08
-3.79204e-11
3.09452e-08
-3.68686e-11
3.09508e-08
-3.56667e-11
3.09568e-08
-3.43373e-11
3.0963e-08
-3.28974e-11
3.09694e-08
-3.13593e-11
3.09759e-08
-2.97321e-11
3.09824e-08
-2.80225e-11
3.09888e-08
-2.62366e-11
3.09951e-08
-2.43831e-11
3.10011e-08
-2.24806e-11
3.10066e-08
-2.0549e-11
-1.82101e-11
3.78948e-08
2.37089e-09
-3.77729e-08
3.8051e-08
2.65388e-09
3.82194e-08
2.8636e-09
3.83882e-08
3.00594e-09
3.85516e-08
3.09254e-09
3.87044e-08
3.13079e-09
3.88424e-08
3.12622e-09
3.89624e-08
3.08543e-09
3.90626e-08
3.01596e-09
3.91425e-08
2.92541e-09
3.92022e-08
2.82093e-09
3.9243e-08
2.70888e-09
3.92666e-08
2.59462e-09
3.9275e-08
2.48235e-09
3.92702e-08
2.37502e-09
3.92542e-08
2.27448e-09
3.92287e-08
2.18164e-09
3.91952e-08
2.09672e-09
3.91549e-08
2.01943e-09
3.91085e-08
1.94918e-09
3.90569e-08
1.88525e-09
3.90006e-08
1.82684e-09
3.89398e-08
1.7732e-09
3.8875e-08
1.72365e-09
3.88063e-08
1.67757e-09
3.8734e-08
1.63447e-09
3.86581e-08
1.59388e-09
3.85789e-08
1.55547e-09
3.84964e-08
1.51891e-09
3.84109e-08
1.48396e-09
3.83225e-08
1.45041e-09
3.82312e-08
1.41806e-09
3.81374e-08
1.38676e-09
3.80411e-08
1.35636e-09
3.79425e-08
1.32674e-09
3.78418e-08
1.29779e-09
3.77391e-08
1.2694e-09
3.76346e-08
1.24147e-09
3.75285e-08
1.2139e-09
3.74211e-08
1.18661e-09
3.73123e-08
1.1595e-09
3.72026e-08
1.13251e-09
3.7092e-08
1.10554e-09
3.69808e-08
1.07851e-09
3.68692e-08
1.05135e-09
3.67574e-08
1.02398e-09
3.66456e-08
9.96305e-10
3.65341e-08
9.68259e-10
3.64232e-08
9.39758e-10
3.63129e-08
9.10721e-10
3.62037e-08
8.81067e-10
3.60958e-08
8.50716e-10
3.59894e-08
8.19585e-10
3.58849e-08
7.87593e-10
3.57824e-08
7.54658e-10
3.56824e-08
7.20695e-10
3.55851e-08
6.85622e-10
3.54909e-08
6.49356e-10
3.54e-08
6.11821e-10
3.53126e-08
5.72957e-10
3.52292e-08
5.32735e-10
3.51499e-08
4.91184e-10
3.50749e-08
4.4842e-10
3.50043e-08
4.04686e-10
3.49381e-08
3.60389e-10
3.48765e-08
3.16121e-10
3.48193e-08
2.72648e-10
3.47665e-08
2.30852e-10
3.4718e-08
1.9161e-10
3.46737e-08
1.55637e-10
3.46336e-08
1.2338e-10
3.45973e-08
9.50048e-11
3.45646e-08
7.04749e-11
3.4535e-08
4.95519e-11
3.4508e-08
3.19048e-11
3.44833e-08
1.70879e-11
3.44614e-08
4.59727e-12
3.44425e-08
-5.72346e-12
3.44263e-08
-1.39358e-11
3.44127e-08
-2.03705e-11
3.44014e-08
-2.53655e-11
3.43922e-08
-2.91859e-11
3.43849e-08
-3.20569e-11
3.43792e-08
-3.41594e-11
3.4375e-08
-3.56381e-11
3.43722e-08
-3.66074e-11
3.43705e-08
-3.71557e-11
3.437e-08
-3.73517e-11
3.43704e-08
-3.72482e-11
3.43716e-08
-3.68851e-11
3.43735e-08
-3.6293e-11
3.43761e-08
-3.54952e-11
3.43793e-08
-3.45089e-11
3.43829e-08
-3.33465e-11
3.43869e-08
-3.20165e-11
3.43912e-08
-3.05227e-11
3.43957e-08
-2.88622e-11
3.44002e-08
-2.70092e-11
3.44045e-08
-2.48211e-11
-2.12985e-11
3.86526e-08
2.26418e-09
-3.85459e-08
3.87904e-08
2.51605e-09
3.89425e-08
2.71149e-09
3.90981e-08
2.85033e-09
3.92512e-08
2.93948e-09
3.93971e-08
2.98484e-09
3.95321e-08
2.99126e-09
3.96532e-08
2.96427e-09
3.97589e-08
2.9103e-09
3.98483e-08
2.83595e-09
3.99217e-08
2.74753e-09
3.99799e-08
2.65073e-09
4.00241e-08
2.55041e-09
4.0056e-08
2.45048e-09
4.00772e-08
2.35381e-09
4.00894e-08
2.26229e-09
4.0094e-08
2.17701e-09
4.00923e-08
2.0984e-09
4.00853e-08
2.0264e-09
4.00739e-08
1.96065e-09
4.00585e-08
1.90061e-09
4.00397e-08
1.84567e-09
4.00177e-08
1.79518e-09
3.99928e-08
1.74857e-09
3.99651e-08
1.70528e-09
3.99347e-08
1.66486e-09
3.99017e-08
1.62689e-09
3.98661e-08
1.59102e-09
3.98281e-08
1.55695e-09
3.97876e-08
1.52445e-09
3.97447e-08
1.49329e-09
3.96995e-08
1.46328e-09
3.9652e-08
1.43426e-09
3.96023e-08
1.40608e-09
3.95504e-08
1.37862e-09
3.94964e-08
1.35174e-09
3.94405e-08
1.32534e-09
3.93826e-08
1.29932e-09
3.9323e-08
1.27357e-09
3.92616e-08
1.24799e-09
3.91986e-08
1.22249e-09
3.91341e-08
1.19699e-09
3.90683e-08
1.1714e-09
3.90012e-08
1.14561e-09
3.89329e-08
1.11956e-09
3.88638e-08
1.09315e-09
3.87938e-08
1.06629e-09
3.87231e-08
1.0389e-09
3.8652e-08
1.01088e-09
3.85806e-08
9.82153e-10
3.8509e-08
9.52622e-10
3.84375e-08
9.222e-10
3.83663e-08
8.90795e-10
3.82956e-08
8.58319e-10
3.82256e-08
8.24682e-10
3.81565e-08
7.89795e-10
3.80885e-08
7.5357e-10
3.8022e-08
7.15925e-10
3.7957e-08
6.76791e-10
3.78938e-08
6.36117e-10
3.78327e-08
5.93897e-10
3.77737e-08
5.50184e-10
3.7717e-08
5.05131e-10
3.76626e-08
4.59019e-10
3.76107e-08
4.1229e-10
3.75613e-08
3.65561e-10
3.75143e-08
3.19606e-10
3.74699e-08
2.75293e-10
3.7428e-08
2.33476e-10
3.73888e-08
1.94861e-10
3.73523e-08
1.59913e-10
3.73184e-08
1.28844e-10
3.72872e-08
1.01668e-10
3.72586e-08
7.82188e-11
3.72323e-08
5.82217e-11
3.7208e-08
4.13112e-11
3.71855e-08
2.71002e-11
3.71646e-08
1.51843e-11
3.71455e-08
5.14233e-12
3.71284e-08
-3.25183e-12
3.71132e-08
-1.01222e-11
3.70997e-08
-1.56923e-11
3.70878e-08
-2.01954e-11
3.70775e-08
-2.38153e-11
3.70685e-08
-2.67023e-11
3.70609e-08
-2.89777e-11
3.70545e-08
-3.07368e-11
3.70492e-08
-3.20553e-11
3.70449e-08
-3.29923e-11
3.70416e-08
-3.35928e-11
3.70392e-08
-3.38917e-11
3.70377e-08
-3.39154e-11
3.70368e-08
-3.3683e-11
3.70367e-08
-3.32074e-11
3.70372e-08
-3.24957e-11
3.70382e-08
-3.15472e-11
3.70397e-08
-3.03456e-11
3.70415e-08
-2.88263e-11
3.70434e-08
-2.67301e-11
-2.2717e-11
3.94178e-08
2.16901e-09
-3.93226e-08
3.95404e-08
2.39346e-09
3.96778e-08
2.57405e-09
3.98206e-08
2.70753e-09
3.99628e-08
2.7973e-09
4.01e-08
2.84767e-09
4.02286e-08
2.86266e-09
4.03459e-08
2.84692e-09
4.04504e-08
2.80586e-09
4.05411e-08
2.74519e-09
4.06182e-08
2.67044e-09
4.06822e-08
2.5867e-09
4.07343e-08
2.49837e-09
4.07757e-08
2.40908e-09
4.08079e-08
2.32158e-09
4.08324e-08
2.23779e-09
4.08505e-08
2.15892e-09
4.08634e-08
2.08555e-09
4.08719e-08
2.01783e-09
4.0877e-08
1.95561e-09
4.08791e-08
1.8985e-09
4.08787e-08
1.84605e-09
4.08761e-08
1.79775e-09
4.08716e-08
1.7531e-09
4.08653e-08
1.71164e-09
4.08572e-08
1.67294e-09
4.08474e-08
1.63663e-09
4.08361e-08
1.60238e-09
4.08231e-08
1.56992e-09
4.08085e-08
1.53901e-09
4.07924e-08
1.50942e-09
4.07747e-08
1.48098e-09
4.07554e-08
1.45352e-09
4.07346e-08
1.4269e-09
4.07123e-08
1.40097e-09
4.06884e-08
1.37561e-09
4.0663e-08
1.35071e-09
4.06362e-08
1.32615e-09
4.06079e-08
1.30184e-09
4.05783e-08
1.27766e-09
4.05472e-08
1.25353e-09
4.05149e-08
1.22935e-09
4.04813e-08
1.20501e-09
4.04464e-08
1.18044e-09
4.04105e-08
1.15553e-09
4.03734e-08
1.13018e-09
4.03354e-08
1.10432e-09
4.02965e-08
1.07783e-09
4.02567e-08
1.05063e-09
4.02163e-08
1.02261e-09
4.01752e-08
9.93691e-10
4.01336e-08
9.63765e-10
4.00917e-08
9.32738e-10
4.00495e-08
9.00513e-10
4.00072e-08
8.66996e-10
3.99649e-08
8.32094e-10
3.99227e-08
7.95719e-10
3.98809e-08
7.57791e-10
3.98394e-08
7.18244e-10
3.97985e-08
6.77042e-10
3.97582e-08
6.34192e-10
3.97186e-08
5.8977e-10
3.96798e-08
5.4395e-10
3.96418e-08
4.97031e-10
3.96046e-08
4.49469e-10
3.95683e-08
4.01875e-10
3.95329e-08
3.55003e-10
3.94985e-08
3.09684e-10
3.94653e-08
2.6673e-10
3.94333e-08
2.26822e-10
3.94028e-08
1.90429e-10
3.93738e-08
1.57791e-10
3.93465e-08
1.28958e-10
3.93209e-08
1.03814e-10
3.9297e-08
8.21295e-11
3.92748e-08
6.35939e-11
3.9254e-08
4.78599e-11
3.92346e-08
3.4562e-11
3.92164e-08
2.33459e-11
3.91993e-08
1.38842e-11
3.91833e-08
5.86223e-12
3.91685e-08
-9.3652e-13
3.9155e-08
-6.64307e-12
3.91426e-08
-1.14024e-11
3.91312e-08
-1.5371e-11
3.91209e-08
-1.86734e-11
3.91116e-08
-2.14082e-11
3.91032e-08
-2.36558e-11
3.90957e-08
-2.54791e-11
3.9089e-08
-2.69266e-11
3.90832e-08
-2.8036e-11
3.90781e-08
-2.88355e-11
3.90738e-08
-2.93448e-11
3.90701e-08
-2.95761e-11
3.90672e-08
-2.95341e-11
3.90648e-08
-2.92128e-11
3.90631e-08
-2.85843e-11
3.90618e-08
-2.75584e-11
3.90609e-08
-2.58253e-11
-2.2051e-11
4.01911e-08
2.08285e-09
-4.01049e-08
4.03011e-08
2.28342e-09
4.04257e-08
2.44949e-09
4.05567e-08
2.57651e-09
4.06885e-08
2.66547e-09
4.0817e-08
2.71922e-09
4.09386e-08
2.74099e-09
4.1051e-08
2.73459e-09
4.11523e-08
2.70455e-09
4.12417e-08
2.65574e-09
4.13192e-08
2.59301e-09
4.1385e-08
2.52086e-09
4.14401e-08
2.44327e-09
4.14856e-08
2.36359e-09
4.15227e-08
2.28442e-09
4.15528e-08
2.20768e-09
4.15771e-08
2.13464e-09
4.15966e-08
2.06603e-09
4.16123e-08
2.00215e-09
4.16249e-08
1.943e-09
4.16351e-08
1.88837e-09
4.16432e-08
1.83794e-09
4.16496e-08
1.79132e-09
4.16546e-08
1.74809e-09
4.16584e-08
1.70787e-09
4.1661e-08
1.6703e-09
4.16626e-08
1.63503e-09
4.16632e-08
1.60177e-09
4.16629e-08
1.57027e-09
4.16616e-08
1.54028e-09
4.16594e-08
1.51162e-09
4.16563e-08
1.48411e-09
4.16523e-08
1.45757e-09
4.16473e-08
1.43186e-09
4.16414e-08
1.40686e-09
4.16346e-08
1.38243e-09
4.16268e-08
1.35845e-09
4.16182e-08
1.33483e-09
4.16086e-08
1.31144e-09
4.1598e-08
1.2882e-09
4.15866e-08
1.26499e-09
4.15742e-08
1.24172e-09
4.15609e-08
1.21829e-09
4.15468e-08
1.1946e-09
4.15317e-08
1.17056e-09
4.15158e-08
1.14607e-09
4.14991e-08
1.12103e-09
4.14816e-08
1.09533e-09
4.14634e-08
1.06889e-09
4.14444e-08
1.0416e-09
4.14247e-08
1.01336e-09
4.14044e-08
9.84071e-10
4.13835e-08
9.5363e-10
4.13621e-08
9.21939e-10
4.13402e-08
8.88902e-10
4.13178e-08
8.54424e-10
4.12951e-08
8.18418e-10
4.12721e-08
7.80809e-10
4.12488e-08
7.41538e-10
4.12253e-08
7.00579e-10
4.12015e-08
6.57952e-10
4.11776e-08
6.13747e-10
4.11534e-08
5.6815e-10
4.11289e-08
5.21467e-10
4.11042e-08
4.74144e-10
4.10793e-08
4.26774e-10
4.10543e-08
3.80069e-10
4.10292e-08
3.34807e-10
4.10041e-08
2.91749e-10
4.09794e-08
2.5154e-10
4.09552e-08
2.14641e-10
4.09317e-08
1.81309e-10
4.0909e-08
1.51622e-10
4.08873e-08
1.25504e-10
4.08667e-08
1.02768e-10
4.08471e-08
8.31454e-11
4.08287e-08
6.63265e-11
4.08113e-08
5.1982e-11
4.07948e-08
3.97855e-11
4.07793e-08
2.94278e-11
4.07645e-08
2.06254e-11
4.07504e-08
1.31313e-11
4.07371e-08
6.72442e-12
4.07244e-08
1.22797e-12
4.07125e-08
-3.47477e-12
4.07014e-08
-7.47966e-12
4.06908e-08
-1.089e-11
4.0681e-08
-1.37912e-11
4.06717e-08
-1.62502e-11
4.06631e-08
-1.83192e-11
4.06551e-08
-2.00397e-11
4.06477e-08
-2.14423e-11
4.06409e-08
-2.2548e-11
4.06347e-08
-2.33694e-11
4.06291e-08
-2.39097e-11
4.06241e-08
-2.41592e-11
4.06196e-08
-2.40829e-11
4.06156e-08
-2.35813e-11
4.06121e-08
-2.23557e-11
-1.9337e-11
4.09729e-08
2.00391e-09
-4.0894e-08
4.10726e-08
2.18378e-09
4.11859e-08
2.33613e-09
4.13063e-08
2.45611e-09
4.14286e-08
2.54322e-09
4.15487e-08
2.59906e-09
4.16636e-08
2.62611e-09
4.17707e-08
2.62746e-09
4.18684e-08
2.60685e-09
4.19558e-08
2.56842e-09
4.20324e-08
2.51635e-09
4.20986e-08
2.45463e-09
4.21551e-08
2.38683e-09
4.22027e-08
2.31601e-09
4.22425e-08
2.24462e-09
4.22756e-08
2.17453e-09
4.23032e-08
2.10705e-09
4.23263e-08
2.04299e-09
4.23456e-08
1.98279e-09
4.2362e-08
1.92659e-09
4.23761e-08
1.87432e-09
4.23883e-08
1.82576e-09
4.23989e-08
1.78064e-09
4.24084e-08
1.73865e-09
4.24168e-08
1.69944e-09
4.24244e-08
1.66273e-09
4.24312e-08
1.6282e-09
4.24374e-08
1.59562e-09
4.24429e-08
1.56472e-09
4.24479e-08
1.53531e-09
4.24523e-08
1.50719e-09
4.24562e-08
1.4802e-09
4.24596e-08
1.45418e-09
4.24625e-08
1.42898e-09
4.24649e-08
1.40448e-09
4.24667e-08
1.38056e-09
4.24681e-08
1.3571e-09
4.24689e-08
1.33399e-09
4.24692e-08
1.31113e-09
4.2469e-08
1.28841e-09
4.24683e-08
1.26573e-09
4.2467e-08
1.243e-09
4.24652e-08
1.22012e-09
4.24628e-08
1.19699e-09
4.24598e-08
1.17351e-09
4.24563e-08
1.14958e-09
4.24523e-08
1.1251e-09
4.24476e-08
1.09997e-09
4.24424e-08
1.0741e-09
4.24366e-08
1.04738e-09
4.24303e-08
1.01971e-09
4.24234e-08
9.9099e-10
4.24159e-08
9.61115e-10
4.24078e-08
9.2999e-10
4.23992e-08
8.97517e-10
4.239e-08
8.63605e-10
4.23803e-08
8.28171e-10
4.23699e-08
7.91146e-10
4.2359e-08
7.52478e-10
4.23474e-08
7.12153e-10
4.23352e-08
6.702e-10
4.23222e-08
6.26719e-10
4.23085e-08
5.81901e-10
4.22939e-08
5.36048e-10
4.22784e-08
4.89591e-10
4.22621e-08
4.43088e-10
4.2245e-08
3.97201e-10
4.22271e-08
3.52652e-10
4.22087e-08
3.10141e-10
4.219e-08
2.70273e-10
4.21712e-08
2.33492e-10
4.21524e-08
2.00064e-10
4.21339e-08
1.70089e-10
4.21159e-08
1.43525e-10
4.20985e-08
1.20221e-10
4.20817e-08
9.99483e-11
4.20655e-08
8.24318e-11
4.20502e-08
6.73746e-11
4.20355e-08
5.44772e-11
4.20214e-08
4.34522e-11
4.2008e-08
3.40324e-11
4.19952e-08
2.59781e-11
4.19828e-08
1.90769e-11
4.19709e-08
1.31492e-11
4.19594e-08
8.04018e-12
4.19483e-08
3.61971e-12
4.19376e-08
-2.10676e-13
4.19274e-08
-3.52419e-12
4.19175e-08
-6.38652e-12
4.1908e-08
-8.85612e-12
4.1899e-08
-1.09793e-11
4.18903e-08
-1.27909e-11
4.18821e-08
-1.4315e-11
4.18743e-08
-1.55659e-11
4.18669e-08
-1.65476e-11
4.186e-08
-1.72497e-11
4.18536e-08
-1.76357e-11
4.18476e-08
-1.76116e-11
4.18422e-08
-1.69325e-11
-1.49018e-11
4.1764e-08
1.93091e-09
-4.1691e-08
4.1855e-08
2.09283e-09
4.19586e-08
2.2325e-09
4.20694e-08
2.34526e-09
4.21829e-08
2.42974e-09
4.22953e-08
2.48665e-09
4.24037e-08
2.51772e-09
4.25057e-08
2.52544e-09
4.25997e-08
2.51287e-09
4.26846e-08
2.4835e-09
4.27601e-08
2.44091e-09
4.28261e-08
2.38859e-09
4.28832e-08
2.32974e-09
4.29321e-08
2.26712e-09
4.29737e-08
2.20305e-09
4.30089e-08
2.1393e-09
4.30388e-08
2.07719e-09
4.30641e-08
2.0176e-09
4.30859e-08
1.96107e-09
4.31046e-08
1.90783e-09
4.3121e-08
1.85792e-09
4.31355e-08
1.81126e-09
4.31485e-08
1.76766e-09
4.31603e-08
1.72687e-09
4.31711e-08
1.68865e-09
4.31811e-08
1.65274e-09
4.31904e-08
1.61888e-09
4.31991e-08
1.58685e-09
4.32074e-08
1.55644e-09
4.32153e-08
1.52745e-09
4.32228e-08
1.49971e-09
4.32299e-08
1.47306e-09
4.32367e-08
1.44735e-09
4.32433e-08
1.42246e-09
4.32495e-08
1.39824e-09
4.32555e-08
1.3746e-09
4.32611e-08
1.35141e-09
4.32666e-08
1.32857e-09
4.32717e-08
1.30598e-09
4.32766e-08
1.28354e-09
4.32811e-08
1.26115e-09
4.32854e-08
1.23871e-09
4.32894e-08
1.21613e-09
4.32931e-08
1.1933e-09
4.32965e-08
1.17014e-09
4.32995e-08
1.14655e-09
4.33022e-08
1.12242e-09
4.33045e-08
1.09766e-09
4.33064e-08
1.07218e-09
4.33079e-08
1.04586e-09
4.3309e-08
1.01862e-09
4.33097e-08
9.90342e-10
4.33099e-08
9.6094e-10
4.33095e-08
9.30316e-10
4.33087e-08
8.98376e-10
4.33073e-08
8.65033e-10
4.33052e-08
8.30212e-10
4.33025e-08
7.93849e-10
4.32991e-08
7.55903e-10
4.32949e-08
7.16369e-10
4.32898e-08
6.75285e-10
4.32837e-08
6.32759e-10
4.32767e-08
5.88981e-10
4.32685e-08
5.44246e-10
4.32591e-08
4.98961e-10
4.32485e-08
4.53647e-10
4.32368e-08
4.08915e-10
4.3224e-08
3.65424e-10
4.32104e-08
3.23818e-10
4.3196e-08
2.84657e-10
4.31811e-08
2.48365e-10
4.3166e-08
2.15208e-10
4.31508e-08
1.85303e-10
4.31356e-08
1.58636e-10
4.31208e-08
1.3509e-10
4.31063e-08
1.14471e-10
4.30921e-08
9.65378e-11
4.30785e-08
8.10235e-11
4.30653e-08
6.76544e-11
4.30526e-08
5.61636e-11
4.30403e-08
4.63003e-11
4.30285e-08
3.78357e-11
4.3017e-08
3.05648e-11
4.30058e-08
2.43087e-11
4.2995e-08
1.89116e-11
4.29843e-08
1.42413e-11
4.29739e-08
1.01873e-11
4.29638e-08
6.65608e-12
4.29538e-08
3.57005e-12
4.29441e-08
8.67582e-13
4.29346e-08
-1.4975e-12
4.29254e-08
-3.56158e-12
4.29164e-08
-5.35376e-12
4.29077e-08
-6.89248e-12
4.28994e-08
-8.18435e-12
4.28913e-08
-9.22099e-12
4.28837e-08
-9.97e-12
4.28764e-08
-1.03531e-11
4.28697e-08
-1.01987e-11
-9.16411e-12
4.2565e-08
1.8629e-09
-4.2497e-08
4.26486e-08
2.00922e-09
4.27438e-08
2.13732e-09
4.28461e-08
2.24295e-09
4.29516e-08
2.3243e-09
4.30568e-08
2.38142e-09
4.3159e-08
2.41548e-09
4.32561e-08
2.42839e-09
4.33463e-08
2.42263e-09
4.34287e-08
2.40112e-09
4.35027e-08
2.36691e-09
4.35682e-08
2.32305e-09
4.36256e-08
2.27236e-09