/*--------------------------------*- C++ -*----------------------------------*\
| =========                 |                                                 |
| \\      /  F ield         | OpenFOAM: The Open Source CFD Toolbox           |
|  \\    /   O peration     | Version:  2.3.0                                 |
|   \\  /    A nd           | Web:      www.OpenFOAM.org                      |
|    \\/     M anipulation  |                                                 |
\*---------------------------------------------------------------------------*/
FoamFile
{
    version     2.0;
    format      ascii;
    class       surfaceScalarField;
    location    "0.3";
    object      phi_0;
}
// * * * * * * * * * * * * * * * * * * * * * * * * * * * * * * * * * * * * * //

dimensions      [0 3 -1 0 0 0 0];

internalField   nonuniform List<scalar> 
17305
(
2.83773e-08
2.87862e-09
-3.12559e-08
2.5514e-08
2.86331e-09
2.28269e-08
2.68709e-09
2.03498e-08
2.47705e-09
1.80989e-08
2.25095e-09
1.60846e-08
2.01423e-09
1.43096e-08
1.77507e-09
1.27683e-08
1.54124e-09
1.14491e-08
1.31928e-09
1.03345e-08
1.11453e-09
9.4036e-09
9.30926e-10
8.63286e-09
7.70741e-10
7.99824e-09
6.34617e-10
7.47652e-09
5.21729e-10
7.04639e-09
4.30131e-10
6.68921e-09
3.57172e-10
6.38933e-09
2.99885e-10
6.13401e-09
2.55319e-10
5.91324e-09
2.20771e-10
5.71933e-09
1.9391e-10
5.5465e-09
1.7283e-10
5.39047e-09
1.56033e-10
5.24808e-09
1.42382e-10
5.11704e-09
1.31041e-10
4.99563e-09
1.21411e-10
4.88256e-09
1.13066e-10
4.77685e-09
1.05713e-10
4.67771e-09
9.91436e-11
4.58449e-09
9.32148e-11
4.49667e-09
8.78228e-11
4.41378e-09
8.28911e-11
4.33542e-09
7.83605e-11
4.26124e-09
7.41838e-11
4.19091e-09
7.03215e-11
4.12417e-09
6.67396e-11
4.06077e-09
6.34086e-11
4.00046e-09
6.0302e-11
3.94307e-09
5.73963e-11
3.8884e-09
5.46704e-11
3.83629e-09
5.21053e-11
3.78661e-09
4.96841e-11
3.73922e-09
4.73915e-11
3.694e-09
4.52136e-11
3.65086e-09
4.3138e-11
3.60971e-09
4.11536e-11
3.57046e-09
3.92501e-11
3.53304e-09
3.74184e-11
3.49739e-09
3.56499e-11
3.46346e-09
3.39368e-11
3.43118e-09
3.22721e-11
3.40053e-09
3.06492e-11
3.37147e-09
2.90621e-11
3.34397e-09
2.75057e-11
3.31799e-09
2.59752e-11
3.29353e-09
2.44668e-11
3.27055e-09
2.29767e-11
3.24905e-09
2.1501e-11
3.22901e-09
2.0034e-11
3.21045e-09
1.85673e-11
3.19336e-09
1.70871e-11
3.17779e-09
1.55732e-11
3.16379e-09
1.39973e-11
3.15146e-09
1.23245e-11
3.14095e-09
1.0516e-11
3.13241e-09
8.53742e-12
3.12605e-09
6.36263e-12
3.12208e-09
3.96876e-12
3.12066e-09
1.4196e-12
3.12141e-09
-7.52954e-13
3.12375e-09
-2.33765e-12
3.12727e-09
-3.51502e-12
3.13163e-09
-4.36521e-12
3.13655e-09
-4.92162e-12
3.14178e-09
-5.22612e-12
3.14711e-09
-5.33014e-12
3.15239e-09
-5.27845e-12
3.1575e-09
-5.11498e-12
3.16238e-09
-4.87519e-12
3.16697e-09
-4.58927e-12
3.17125e-09
-4.27966e-12
3.17521e-09
-3.9633e-12
3.17886e-09
-3.6516e-12
3.18221e-09
-3.35201e-12
3.18528e-09
-3.0688e-12
3.18809e-09
-2.80387e-12
3.19064e-09
-2.55774e-12
3.19297e-09
-2.32983e-12
3.19509e-09
-2.11908e-12
3.19702e-09
-1.92416e-12
3.19876e-09
-1.74352e-12
3.20034e-09
-1.57576e-12
3.20176e-09
-1.41943e-12
3.20303e-09
-1.27319e-12
3.20416e-09
-1.13571e-12
3.20517e-09
-1.00573e-12
3.20605e-09
-8.82469e-13
3.20682e-09
-7.67765e-13
3.2075e-09
-6.79018e-13
3.20822e-09
-7.18267e-13
-1.76133e-12
3.34161e-08
3.14936e-09
-3.36868e-08
3.28317e-08
3.44769e-09
3.20154e-08
3.5034e-09
3.1044e-08
3.44849e-09
2.99728e-08
3.3221e-09
2.88475e-08
3.13958e-09
2.77048e-08
2.91773e-09
2.65731e-08
2.67292e-09
2.54733e-08
2.4191e-09
2.44201e-08
2.16776e-09
2.34229e-08
1.92804e-09
2.24872e-08
1.70647e-09
2.16148e-08
1.507e-09
2.08053e-08
1.33124e-09
2.00565e-08
1.17896e-09
1.9365e-08
1.04862e-09
1.8727e-08
9.37886e-10
1.81383e-08
8.44104e-10
1.75944e-08
7.64611e-10
1.70914e-08
6.96951e-10
1.66252e-08
6.38978e-10
1.61924e-08
5.88894e-10
1.57895e-08
5.45235e-10
1.54137e-08
5.06833e-10
1.50624e-08
4.72768e-10
1.47331e-08
4.42317e-10
1.44239e-08
4.14914e-10
1.41329e-08
3.90111e-10
1.38586e-08
3.67551e-10
1.35995e-08
3.4694e-10
1.33543e-08
3.28039e-10
1.31221e-08
3.10645e-10
1.29017e-08
2.94585e-10
1.26923e-08
2.79711e-10
1.24931e-08
2.65892e-10
1.23035e-08
2.53015e-10
1.21228e-08
2.40979e-10
1.19505e-08
2.29694e-10
1.17861e-08
2.1908e-10
1.16292e-08
2.09067e-10
1.14793e-08
1.99589e-10
1.13361e-08
1.9059e-10
1.11993e-08
1.82018e-10
1.10686e-08
1.73825e-10
1.09438e-08
1.65969e-10
1.08246e-08
1.58411e-10
1.07109e-08
1.51114e-10
1.06025e-08
1.44046e-10
1.04993e-08
1.37177e-10
1.04011e-08
1.30477e-10
1.03078e-08
1.2392e-10
1.02194e-08
1.17483e-10
1.01357e-08
1.11142e-10
1.00568e-08
1.04878e-10
9.98262e-09
9.86711e-11
9.91309e-09
9.25014e-11
9.84825e-09
8.63483e-11
9.78809e-09
8.01867e-11
9.73268e-09
7.39838e-11
9.68207e-09
6.76969e-11
9.63637e-09
6.12716e-11
9.59572e-09
5.46434e-11
9.5603e-09
4.77448e-11
9.5303e-09
4.05179e-11
9.5059e-09
3.29344e-11
9.48725e-09
2.50167e-11
9.47438e-09
1.68358e-11
9.46733e-09
8.46884e-12
9.46594e-09
6.39716e-13
9.46912e-09
-5.51369e-12
9.47546e-09
-9.8638e-12
9.48404e-09
-1.29441e-11
9.49412e-09
-1.49933e-11
9.50509e-09
-1.61964e-11
9.51649e-09
-1.67329e-11
9.52796e-09
-1.67529e-11
9.53924e-09
-1.63964e-11
9.55015e-09
-1.57766e-11
9.56054e-09
-1.49885e-11
9.57037e-09
-1.41039e-11
9.57958e-09
-1.31771e-11
9.58818e-09
-1.22458e-11
9.59616e-09
-1.13353e-11
9.60355e-09
-1.04611e-11
9.61038e-09
-9.63124e-12
9.61667e-09
-8.84925e-12
9.62246e-09
-8.11522e-12
9.62777e-09
-7.42743e-12
9.63262e-09
-6.78315e-12
9.63706e-09
-6.17906e-12
9.6411e-09
-5.61188e-12
9.64475e-09
-5.07828e-12
9.64806e-09
-4.57501e-12
9.65102e-09
-4.09905e-12
9.65366e-09
-3.64777e-12
9.656e-09
-3.22078e-12
9.65806e-09
-2.82764e-12
9.6599e-09
-2.52299e-12
9.66176e-09
-2.57384e-12
-4.10928e-12
3.48115e-08
2.99555e-09
-3.46577e-08
3.48771e-08
3.38214e-09
3.48166e-08
3.5639e-09
3.46356e-08
3.62942e-09
3.43449e-08
3.61283e-09
3.39586e-08
3.52586e-09
3.34942e-08
3.38219e-09
3.29693e-08
3.19776e-09
3.24008e-08
2.98764e-09
3.18034e-08
2.76512e-09
3.119e-08
2.54147e-09
3.0571e-08
2.32552e-09
2.99545e-08
2.12349e-09
2.93466e-08
1.93906e-09
2.87518e-08
1.77377e-09
2.81729e-08
1.62751e-09
2.76118e-08
1.49906e-09
2.70693e-08
1.38661e-09
2.65458e-08
1.28807e-09
2.60414e-08
1.20138e-09
2.55557e-08
1.12466e-09
2.50883e-08
1.05627e-09
2.46387e-08
9.94841e-10
2.42063e-08
9.39251e-10
2.37904e-08
8.88607e-10
2.33906e-08
8.42194e-10
2.3006e-08
7.99443e-10
2.26363e-08
7.59895e-10
2.22806e-08
7.23178e-10
2.19386e-08
6.88985e-10
2.16096e-08
6.57054e-10
2.1293e-08
6.27164e-10
2.09885e-08
5.99119e-10
2.06955e-08
5.72746e-10
2.04135e-08
5.47893e-10
2.01421e-08
5.24419e-10
1.98809e-08
5.02197e-10
1.96294e-08
4.81113e-10
1.93875e-08
4.6106e-10
1.91546e-08
4.4194e-10
1.89305e-08
4.23663e-10
1.8715e-08
4.06147e-10
1.85077e-08
3.89313e-10
1.83084e-08
3.73089e-10
1.8117e-08
3.57408e-10
1.79332e-08
3.42207e-10
1.77568e-08
3.27426e-10
1.75879e-08
3.13008e-10
1.74262e-08
2.98901e-10
1.72716e-08
2.85054e-10
1.71241e-08
2.71419e-10
1.69836e-08
2.5795e-10
1.68502e-08
2.44606e-10
1.67237e-08
2.31344e-10
1.66042e-08
2.18125e-10
1.64918e-08
2.04908e-10
1.63865e-08
1.9165e-10
1.62884e-08
1.78302e-10
1.61976e-08
1.64804e-10
1.61142e-08
1.51088e-10
1.60384e-08
1.37076e-10
1.59703e-08
1.22689e-10
1.59102e-08
1.07862e-10
1.58582e-08
9.25684e-11
1.58143e-08
7.68571e-11
1.57784e-08
6.08946e-11
1.57502e-08
4.501e-11
1.5729e-08
2.96692e-11
1.57145e-08
1.51307e-11
1.57072e-08
1.78229e-12
1.57064e-08
-8.99553e-12
1.57101e-08
-1.67388e-11
1.57173e-08
-2.217e-11
1.57269e-08
-2.57584e-11
1.57381e-08
-2.78987e-11
1.57502e-08
-2.89033e-11
1.57629e-08
-2.90556e-11
1.57757e-08
-2.85834e-11
1.57884e-08
-2.76789e-11
1.58007e-08
-2.64897e-11
1.58127e-08
-2.51308e-11
1.58241e-08
-2.36852e-11
1.5835e-08
-2.2212e-11
1.58453e-08
-2.07504e-11
1.5855e-08
-1.93251e-11
1.58641e-08
-1.79503e-11
1.58726e-08
-1.66326e-11
1.58806e-08
-1.53744e-11
1.5888e-08
-1.41749e-11
1.58948e-08
-1.30318e-11
1.59011e-08
-1.19419e-11
1.5907e-08
-1.09019e-11
1.59123e-08
-9.90807e-12
1.59172e-08
-8.95702e-12
1.59215e-08
-8.04597e-12
1.59255e-08
-7.176e-12
1.5929e-08
-6.36406e-12
1.59322e-08
-5.69076e-12
1.59351e-08
-5.49544e-12
-6.85873e-12
3.56467e-08
2.80333e-09
-3.54545e-08
3.58427e-08
3.18611e-09
3.59977e-08
3.4089e-09
3.60993e-08
3.52781e-09
3.6141e-08
3.57114e-09
3.61189e-08
3.54796e-09
3.60336e-08
3.46755e-09
3.5889e-08
3.34231e-09
3.56915e-08
3.18512e-09
3.54486e-08
3.00803e-09
3.51683e-08
2.8218e-09
3.48584e-08
2.63542e-09
3.45261e-08
2.45575e-09
3.41778e-08
2.28739e-09
3.38186e-08
2.13295e-09
3.34528e-08
1.99336e-09
3.30835e-08
1.86837e-09
3.27132e-08
1.75694e-09
3.23436e-08
1.65762e-09
3.19761e-08
1.56884e-09
3.16117e-08
1.48907e-09
3.12511e-08
1.4169e-09
3.08948e-08
1.35115e-09
3.05432e-08
1.2908e-09
3.01968e-08
1.23505e-09
2.98557e-08
1.18325e-09
2.95203e-08
1.13486e-09
2.91908e-08
1.08946e-09
2.88672e-08
1.04672e-09
2.85499e-08
1.00635e-09
2.82388e-08
9.68119e-10
2.79341e-08
9.31828e-10
2.7636e-08
8.97299e-10
2.73443e-08
8.64381e-10
2.70593e-08
8.32932e-10
2.67809e-08
8.02828e-10
2.65091e-08
7.73952e-10
2.6244e-08
7.46197e-10
2.59856e-08
7.19462e-10
2.57339e-08
6.93653e-10
2.54889e-08
6.68683e-10
2.52506e-08
6.44467e-10
2.5019e-08
6.20926e-10
2.47941e-08
5.97983e-10
2.45759e-08
5.75566e-10
2.43645e-08
5.53604e-10
2.41599e-08
5.32029e-10
2.39621e-08
5.10776e-10
2.37713e-08
4.89781e-10
2.35873e-08
4.68981e-10
2.34104e-08
4.48316e-10
2.32407e-08
4.27727e-10
2.30781e-08
4.07158e-10
2.29229e-08
3.86551e-10
2.27752e-08
3.65852e-10
2.26351e-08
3.45002e-10
2.25028e-08
3.2394e-10
2.23785e-08
3.02598e-10
2.22624e-08
2.809e-10
2.21547e-08
2.58765e-10
2.20557e-08
2.36111e-10
2.19655e-08
2.12873e-10
2.18844e-08
1.8902e-10
2.18123e-08
1.646e-10
2.17494e-08
1.39774e-10
2.16954e-08
1.14868e-10
2.165e-08
9.04057e-11
2.16126e-08
6.70858e-11
2.15821e-08
4.56347e-11
2.15575e-08
2.63904e-11
2.15395e-08
9.03372e-12
2.15285e-08
-5.80158e-12
2.15234e-08
-1.70742e-11
2.15229e-08
-2.51937e-11
2.15258e-08
-3.08312e-11
2.15314e-08
-3.44775e-11
2.15389e-08
-3.65791e-11
2.15478e-08
-3.74944e-11
2.15577e-08
-3.75331e-11
2.15681e-08
-3.69372e-11
2.15789e-08
-3.5901e-11
2.15898e-08
-3.45713e-11
2.16006e-08
-3.30574e-11
2.16113e-08
-3.14382e-11
2.16218e-08
-2.97682e-11
2.16319e-08
-2.80842e-11
2.16417e-08
-2.64096e-11
2.1651e-08
-2.47589e-11
2.166e-08
-2.31403e-11
2.16685e-08
-2.15577e-11
2.16766e-08
-2.00128e-11
2.16842e-08
-1.85059e-11
2.16913e-08
-1.70361e-11
2.1698e-08
-1.56021e-11
2.17041e-08
-1.42032e-11
2.17098e-08
-1.28427e-11
2.1715e-08
-1.15403e-11
2.17197e-08
-1.03779e-11
2.17238e-08
-9.6613e-12
-1.02175e-11
3.63987e-08
2.63495e-09
-3.62303e-08
3.65971e-08
2.98768e-09
3.67895e-08
3.21652e-09
3.69631e-08
3.35421e-09
3.71104e-08
3.4238e-09
3.72244e-08
3.43402e-09
3.72999e-08
3.39196e-09
3.7335e-08
3.30723e-09
3.73297e-08
3.19039e-09
3.72861e-08
3.05165e-09
3.72075e-08
2.90039e-09
3.70982e-08
2.74475e-09
3.69627e-08
2.59124e-09
3.68055e-08
2.44457e-09
3.66307e-08
2.30774e-09
3.64419e-08
2.18222e-09
3.62419e-08
2.06837e-09
3.60331e-08
1.96574e-09
3.58173e-08
1.87337e-09
3.55961e-08
1.79012e-09
3.53704e-08
1.71475e-09
3.51412e-08
1.64612e-09
3.49091e-08
1.58319e-09
3.46748e-08
1.52509e-09
3.44388e-08
1.47107e-09
3.42015e-08
1.42053e-09
3.39634e-08
1.37299e-09
3.37248e-08
1.32806e-09
3.34861e-08
1.28541e-09
3.32477e-08
1.24479e-09
3.30098e-08
1.20598e-09
3.27728e-08
1.1688e-09
3.2537e-08
1.13308e-09
3.23027e-08
1.09868e-09
3.20702e-08
1.06549e-09
3.18396e-08
1.03338e-09
3.16113e-08
1.00225e-09
3.13855e-08
9.72011e-10
3.11624e-08
9.42565e-10
3.09423e-08
9.13826e-10
3.07252e-08
8.85713e-10
3.05115e-08
8.58146e-10
3.03014e-08
8.3105e-10
3.00951e-08
8.0435e-10
2.98926e-08
7.77975e-10
2.96944e-08
7.51852e-10
2.95005e-08
7.25913e-10
2.93112e-08
7.00089e-10
2.91267e-08
6.74311e-10
2.89471e-08
6.48511e-10
2.87728e-08
6.22623e-10
2.8604e-08
5.9658e-10
2.84408e-08
5.70316e-10
2.82836e-08
5.43766e-10
2.81326e-08
5.16863e-10
2.79881e-08
4.89537e-10
2.78503e-08
4.61716e-10
2.77196e-08
4.33323e-10
2.75962e-08
4.04275e-10
2.74805e-08
3.74494e-10
2.73727e-08
3.4391e-10
2.7273e-08
3.1249e-10
2.71818e-08
2.8026e-10
2.7099e-08
2.47351e-10
2.70248e-08
2.14042e-10
2.69589e-08
1.80798e-10
2.6901e-08
1.48282e-10
2.68507e-08
1.17317e-10
2.68076e-08
8.87312e-11
2.67709e-08
6.31057e-11
2.67393e-08
4.06798e-11
2.67123e-08
2.12142e-11
2.66909e-08
4.28353e-12
2.66754e-08
-9.65587e-12
2.66647e-08
-2.01949e-11
2.66582e-08
-2.79188e-11
2.6655e-08
-3.33871e-11
2.66545e-08
-3.70466e-11
2.66563e-08
-3.93008e-11
2.66598e-08
-4.04715e-11
2.66648e-08
-4.08282e-11
2.66708e-08
-4.05805e-11
2.66776e-08
-3.98924e-11
2.66851e-08
-3.8888e-11
2.6693e-08
-3.76593e-11
2.67011e-08
-3.62734e-11
2.67095e-08
-3.47781e-11
2.6718e-08
-3.32071e-11
2.67264e-08
-3.15837e-11
2.67348e-08
-2.99239e-11
2.6743e-08
-2.82389e-11
2.6751e-08
-2.65363e-11
2.67588e-08
-2.48213e-11
2.67663e-08
-2.30975e-11
2.67735e-08
-2.13681e-11
2.67803e-08
-1.96385e-11
2.67867e-08
-1.7926e-11
2.67926e-08
-1.62895e-11
2.67978e-08
-1.49175e-11
-1.4133e-11
3.71441e-08
2.49275e-09
-3.70019e-08
3.73217e-08
2.81005e-09
3.75063e-08
3.03193e-09
3.76857e-08
3.17479e-09
3.78537e-08
3.25587e-09
3.80041e-08
3.28359e-09
3.81319e-08
3.26415e-09
3.82338e-08
3.20537e-09
3.8308e-08
3.11613e-09
3.83545e-08
3.00517e-09
3.83743e-08
2.88061e-09
3.83694e-08
2.74963e-09
3.83425e-08
2.61815e-09
3.82965e-08
2.49064e-09
3.8234e-08
2.37014e-09
3.81579e-08
2.25838e-09
3.80702e-08
2.15605e-09
3.79729e-08
2.06309e-09
3.78673e-08
1.97892e-09
3.77547e-08
1.90271e-09
3.7636e-08
1.83348e-09
3.75118e-08
1.7703e-09
3.73827e-08
1.71227e-09
3.72492e-08
1.65862e-09
3.71116e-08
1.60867e-09
3.69703e-08
1.56186e-09
3.68255e-08
1.51775e-09
3.66776e-08
1.47595e-09
3.65269e-08
1.43615e-09
3.63736e-08
1.3981e-09
3.6218e-08
1.36158e-09
3.60603e-08
1.32642e-09
3.5901e-08
1.29246e-09
3.57401e-08
1.25956e-09
3.5578e-08
1.2276e-09
3.54149e-08
1.19647e-09
3.52511e-08
1.16606e-09
3.50868e-08
1.13628e-09
3.49223e-08
1.10705e-09
3.47579e-08
1.07827e-09
3.45937e-08
1.04987e-09
3.44301e-08
1.02176e-09
3.42673e-08
9.9387e-10
3.41055e-08
9.66124e-10
3.3945e-08
9.38446e-10
3.37861e-08
9.10764e-10
3.3629e-08
8.83004e-10
3.3474e-08
8.55091e-10
3.33214e-08
8.26954e-10
3.31714e-08
7.98517e-10
3.30243e-08
7.69708e-10
3.28804e-08
7.40454e-10
3.27401e-08
7.1068e-10
3.26035e-08
6.80312e-10
3.24711e-08
6.49276e-10
3.23431e-08
6.17493e-10
3.222e-08
5.84885e-10
3.21019e-08
5.51369e-10
3.19893e-08
5.16866e-10
3.18825e-08
4.81306e-10
3.17818e-08
4.44644e-10
3.16874e-08
4.06882e-10
3.15996e-08
3.68107e-10
3.15184e-08
3.28529e-10
3.14439e-08
2.8852e-10
3.1376e-08
2.48648e-10
3.13147e-08
2.09666e-10
3.12595e-08
1.72453e-10
3.12104e-08
1.37875e-10
3.11669e-08
1.06587e-10
3.11286e-08
7.89415e-11
3.10949e-08
5.49693e-11
3.10647e-08
3.45177e-11
3.10379e-08
1.71451e-11
3.10153e-08
2.38193e-12
3.0997e-08
-9.65732e-12
3.09826e-08
-1.89257e-11
3.09714e-08
-2.592e-11
3.09632e-08
-3.10833e-11
3.09575e-08
-3.477e-11
3.0954e-08
-3.72926e-11
3.09523e-08
-3.8899e-11
3.09522e-08
-3.97923e-11
3.09534e-08
-4.01309e-11
3.09558e-08
-4.00376e-11
3.09591e-08
-3.96064e-11
3.09633e-08
-3.89079e-11
3.09681e-08
-3.79949e-11
3.09734e-08
-3.69068e-11
3.09791e-08
-3.56727e-11
3.09852e-08
-3.43142e-11
3.09915e-08
-3.28476e-11
3.0998e-08
-3.12849e-11
3.10045e-08
-2.96352e-11
3.10111e-08
-2.79053e-11
3.10175e-08
-2.61018e-11
3.10238e-08
-2.4234e-11
3.10299e-08
-2.23221e-11
3.10353e-08
-2.03907e-11
-1.80868e-11
3.78948e-08
2.37086e-09
-3.7773e-08
3.80511e-08
2.65384e-09
3.82194e-08
2.86356e-09
3.83883e-08
3.0059e-09
3.85517e-08
3.0925e-09
3.87045e-08
3.13074e-09
3.88425e-08
3.12617e-09
3.89625e-08
3.08537e-09
3.90627e-08
3.0159e-09
3.91426e-08
2.92535e-09
3.92023e-08
2.82086e-09
3.92431e-08
2.7088e-09
3.92668e-08
2.59454e-09
3.92751e-08
2.48226e-09
3.92704e-08
2.37492e-09
3.92544e-08
2.27436e-09
3.92289e-08
2.18152e-09
3.91954e-08
2.09659e-09
3.91551e-08
2.01928e-09
3.91087e-08
1.94902e-09
3.90571e-08
1.88507e-09
3.90008e-08
1.82664e-09
3.89401e-08
1.77299e-09
3.88753e-08
1.72342e-09
3.88066e-08
1.67732e-09
3.87343e-08
1.63419e-09
3.86585e-08
1.59358e-09
3.85793e-08
1.55514e-09
3.84969e-08
1.51855e-09
3.84114e-08
1.48357e-09
3.8323e-08
1.44998e-09
3.82319e-08
1.41759e-09
3.81381e-08
1.38624e-09
3.80418e-08
1.3558e-09
3.79433e-08
1.32613e-09
3.78427e-08
1.29712e-09
3.77401e-08
1.26866e-09
3.76357e-08
1.24066e-09
3.75297e-08
1.21302e-09
3.74223e-08
1.18565e-09
3.73137e-08
1.15846e-09
3.72041e-08
1.13137e-09
3.70937e-08
1.10429e-09
3.69827e-08
1.07715e-09
3.68713e-08
1.04987e-09
3.67597e-08
1.02236e-09
3.66481e-08
9.94541e-10
3.65369e-08
9.66337e-10
3.64262e-08
9.37667e-10
3.63162e-08
9.08447e-10
3.62074e-08
8.78596e-10
3.60998e-08
8.48032e-10
3.59938e-08
8.16674e-10
3.58897e-08
7.84438e-10
3.57877e-08
7.51241e-10
3.56882e-08
7.16999e-10
3.55914e-08
6.81627e-10
3.54978e-08
6.45045e-10
3.54075e-08
6.07175e-10
3.53208e-08
5.67962e-10
3.52381e-08
5.27383e-10
3.51595e-08
4.8548e-10
3.50852e-08
4.42387e-10
3.50153e-08
3.98373e-10
3.495e-08
3.53878e-10
3.48891e-08
3.09527e-10
3.48327e-08
2.66116e-10
3.47806e-08
2.24541e-10
3.47328e-08
1.85666e-10
3.46892e-08
1.50168e-10
3.46497e-08
1.1845e-10
3.4614e-08
9.06371e-11
3.45819e-08
6.6656e-11
3.45528e-08
4.6246e-11
3.45261e-08
2.90569e-11
3.45018e-08
1.46145e-11
3.44805e-08
2.45692e-12
3.44621e-08
-7.52134e-12
3.44464e-08
-1.54199e-11
3.44332e-08
-2.15993e-11
3.44223e-08
-2.63847e-11
3.44134e-08
-3.00329e-11
3.44064e-08
-3.27631e-11
3.4401e-08
-3.47496e-11
3.43971e-08
-3.61322e-11
3.43945e-08
-3.70207e-11
3.43931e-08
-3.75001e-11
3.43928e-08
-3.76363e-11
3.43934e-08
-3.74798e-11
3.43948e-08
-3.70688e-11
3.43969e-08
-3.64327e-11
3.43996e-08
-3.5594e-11
3.44029e-08
-3.45692e-11
3.44066e-08
-3.33706e-11
3.44107e-08
-3.20064e-11
3.44151e-08
-3.04811e-11
3.44197e-08
-2.87924e-11
3.44243e-08
-2.69163e-11
3.44286e-08
-2.47158e-11
-2.12159e-11
3.86526e-08
2.26414e-09
-3.85459e-08
3.87904e-08
2.51602e-09
3.89426e-08
2.71145e-09
3.90982e-08
2.85028e-09
3.92512e-08
2.93943e-09
3.93972e-08
2.98479e-09
3.95322e-08
2.99121e-09
3.96533e-08
2.96421e-09
3.9759e-08
2.91023e-09
3.98484e-08
2.83588e-09
3.99218e-08
2.74745e-09
3.998e-08
2.65064e-09
4.00242e-08
2.55032e-09
4.00561e-08
2.45038e-09
4.00773e-08
2.3537e-09
4.00895e-08
2.26217e-09
4.00942e-08
2.17688e-09
4.00925e-08
2.09826e-09
4.00855e-08
2.02624e-09
4.00741e-08
1.96048e-09
4.00587e-08
1.90042e-09
4.00399e-08
1.84546e-09
4.00179e-08
1.79496e-09
3.9993e-08
1.74832e-09
3.99653e-08
1.70501e-09
3.9935e-08
1.66456e-09
3.9902e-08
1.62656e-09
3.98665e-08
1.59066e-09
3.98285e-08
1.55656e-09
3.9788e-08
1.52402e-09
3.97452e-08
1.49282e-09
3.97e-08
1.46277e-09
3.96525e-08
1.4337e-09
3.96028e-08
1.40547e-09
3.9551e-08
1.37795e-09
3.94971e-08
1.35101e-09
3.94412e-08
1.32455e-09
3.93835e-08
1.29845e-09
3.93239e-08
1.27261e-09
3.92626e-08
1.24695e-09
3.91997e-08
1.22136e-09
3.91353e-08
1.19575e-09
3.90695e-08
1.17004e-09
3.90025e-08
1.14413e-09
3.89345e-08
1.11794e-09
3.88654e-08
1.09138e-09
3.87956e-08
1.06437e-09
3.87252e-08
1.0368e-09
3.86542e-08
1.0086e-09
3.8583e-08
9.79668e-10
3.85117e-08
9.4992e-10
3.84404e-08
9.19264e-10
3.83695e-08
8.8761e-10
3.82991e-08
8.54866e-10
3.82294e-08
8.20942e-10
3.81606e-08
7.85749e-10
3.80931e-08
7.49199e-10
3.80269e-08
7.11212e-10
3.79623e-08
6.71717e-10
3.78996e-08
6.30672e-10
3.78389e-08
5.88076e-10
3.77804e-08
5.43997e-10
3.77242e-08
4.98608e-10
3.76704e-08
4.52216e-10
3.76189e-08
4.05293e-10
3.757e-08
3.58488e-10
3.75235e-08
3.126e-10
3.74795e-08
2.68509e-10
3.74381e-08
2.27055e-10
3.73994e-08
1.88911e-10
3.73633e-08
1.54502e-10
3.733e-08
1.24003e-10
3.72992e-08
9.73937e-11
3.7271e-08
7.44857e-11
3.72451e-08
5.4985e-11
3.72212e-08
3.85161e-11
3.71989e-08
2.46888e-11
3.71783e-08
1.30881e-11
3.71596e-08
3.31226e-12
3.71428e-08
-4.82879e-12
3.71279e-08
-1.14662e-11
3.71147e-08
-1.68441e-11
3.71031e-08
-2.1188e-11
3.70931e-08
-2.46743e-11
3.70844e-08
-2.7449e-11
3.7077e-08
-2.96288e-11
3.70708e-08
-3.13056e-11
3.70657e-08
-3.25522e-11
3.70617e-08
-3.3425e-11
3.70586e-08
-3.39674e-11
3.70563e-08
-3.42126e-11
3.70549e-08
-3.4186e-11
3.70543e-08
-3.39056e-11
3.70543e-08
-3.3384e-11
3.70549e-08
-3.26281e-11
3.70561e-08
-3.16373e-11
3.70577e-08
-3.0396e-11
3.70596e-08
-2.88414e-11
3.70616e-08
-2.67192e-11
-2.27063e-11
3.94179e-08
2.16897e-09
-3.93227e-08
3.95405e-08
2.39342e-09
3.96779e-08
2.57401e-09
3.98207e-08
2.70749e-09
3.99629e-08
2.79725e-09
4.01001e-08
2.84761e-09
4.02287e-08
2.8626e-09
4.0346e-08
2.84686e-09
4.04505e-08
2.80579e-09
4.05412e-08
2.74511e-09
4.06183e-08
2.67036e-09
4.06824e-08
2.58661e-09
4.07344e-08
2.49827e-09
4.07758e-08
2.40897e-09
4.08081e-08
2.32146e-09
4.08326e-08
2.23766e-09
4.08507e-08
2.15877e-09
4.08635e-08
2.08539e-09
4.08721e-08
2.01767e-09
4.08772e-08
1.95542e-09
4.08793e-08
1.8983e-09
4.08789e-08
1.84583e-09
4.08764e-08
1.79751e-09
4.08719e-08
1.75284e-09
4.08655e-08
1.71135e-09
4.08575e-08
1.67262e-09
4.08477e-08
1.63628e-09
4.08364e-08
1.60201e-09
4.08234e-08
1.56951e-09
4.08089e-08
1.53856e-09
4.07928e-08
1.50893e-09
4.07751e-08
1.48045e-09
4.07559e-08
1.45294e-09
4.07351e-08
1.42625e-09
4.07128e-08
1.40026e-09
4.0689e-08
1.37484e-09
4.06636e-08
1.34987e-09
4.06369e-08
1.32523e-09
4.06086e-08
1.30083e-09
4.0579e-08
1.27657e-09
4.0548e-08
1.25233e-09
4.05158e-08
1.22804e-09
4.04822e-08
1.20358e-09
4.04475e-08
1.17888e-09
4.04116e-08
1.15382e-09
4.03746e-08
1.12832e-09
4.03367e-08
1.10229e-09
4.02979e-08
1.07562e-09
4.02583e-08
1.04822e-09
4.0218e-08
1.01999e-09
4.0177e-08
9.90843e-10
4.01356e-08
9.60671e-10
4.00939e-08
9.2938e-10
4.00519e-08
8.96874e-10
4.00097e-08
8.63056e-10
3.99677e-08
8.27835e-10
3.99257e-08
7.91122e-10
3.98841e-08
7.52837e-10
3.98429e-08
7.1292e-10
3.98022e-08
6.71338e-10
3.97622e-08
6.28109e-10
3.97229e-08
5.83321e-10
3.96843e-08
5.37168e-10
3.96466e-08
4.89976e-10
3.96096e-08
4.42228e-10
3.95735e-08
3.94565e-10
3.95384e-08
3.47761e-10
3.95042e-08
3.02656e-10
3.94712e-08
2.6005e-10
3.94396e-08
2.20596e-10
3.94093e-08
1.84726e-10
3.93807e-08
1.52646e-10
3.93537e-08
1.24374e-10
3.93284e-08
9.97722e-11
3.93048e-08
7.85939e-11
3.92828e-08
6.05177e-11
3.92623e-08
4.51907e-11
3.92432e-08
3.22447e-11
3.92251e-08
2.13296e-11
3.92082e-08
1.21174e-11
3.91924e-08
4.30104e-12
3.91779e-08
-2.31167e-12
3.91646e-08
-7.84745e-12
3.91523e-08
-1.24632e-11
3.91412e-08
-1.63107e-11
3.91311e-08
-1.95096e-11
3.91219e-08
-2.21553e-11
3.91137e-08
-2.43252e-11
3.91064e-08
-2.60794e-11
3.90999e-08
-2.74645e-11
3.90942e-08
-2.85167e-11
3.90892e-08
-2.92624e-11
3.90851e-08
-2.97204e-11
3.90816e-08
-2.9902e-11
3.90788e-08
-2.98116e-11
3.90766e-08
-2.94429e-11
3.90749e-08
-2.87685e-11
3.90738e-08
-2.76996e-11
3.9073e-08
-2.59295e-11
-2.21316e-11
4.01911e-08
2.0828e-09
-4.0105e-08
4.03012e-08
2.28338e-09
4.04257e-08
2.44944e-09
4.05568e-08
2.57645e-09
4.06886e-08
2.66542e-09
4.0817e-08
2.71916e-09
4.09387e-08
2.74092e-09
4.10511e-08
2.73452e-09
4.11524e-08
2.70447e-09
4.12418e-08
2.65566e-09
4.13193e-08
2.59292e-09
4.13851e-08
2.52076e-09
4.14402e-08
2.44317e-09
4.14857e-08
2.36347e-09
4.15229e-08
2.28429e-09
4.1553e-08
2.20755e-09
4.15773e-08
2.13449e-09
4.15968e-08
2.06587e-09
4.16125e-08
2.00197e-09
4.16251e-08
1.9428e-09
4.16353e-08
1.88816e-09
4.16434e-08
1.83771e-09
4.16498e-08
1.79106e-09
4.16549e-08
1.74781e-09
4.16586e-08
1.70757e-09
4.16613e-08
1.66997e-09
4.16629e-08
1.63467e-09
4.16635e-08
1.60138e-09
4.16632e-08
1.56984e-09
4.1662e-08
1.53982e-09
4.16598e-08
1.51111e-09
4.16567e-08
1.48355e-09
4.16527e-08
1.45696e-09
4.16477e-08
1.43119e-09
4.16419e-08
1.40613e-09
4.16351e-08
1.38163e-09
4.16273e-08
1.35758e-09
4.16187e-08
1.33388e-09
4.16091e-08
1.31041e-09
4.15986e-08
1.28706e-09
4.15872e-08
1.26375e-09
4.15749e-08
1.24037e-09
4.15617e-08
1.21681e-09
4.15475e-08
1.19299e-09
4.15326e-08
1.1688e-09
4.15167e-08
1.14415e-09
4.15001e-08
1.11894e-09
4.14826e-08
1.09306e-09
4.14645e-08
1.06641e-09
4.14455e-08
1.03891e-09
4.14259e-08
1.01043e-09
4.14057e-08
9.80891e-10
4.13849e-08
9.50182e-10
4.13636e-08
9.18204e-10
4.13418e-08
8.84861e-10
4.13196e-08
8.50059e-10
4.1297e-08
8.13712e-10
4.12741e-08
7.75745e-10
4.12509e-08
7.36104e-10
4.12275e-08
6.94769e-10
4.12038e-08
6.51769e-10
4.11799e-08
6.07209e-10
4.11558e-08
5.61291e-10
4.11314e-08
5.14348e-10
4.11068e-08
4.66851e-10
4.10819e-08
4.19417e-10
4.10569e-08
3.72777e-10
4.10319e-08
3.27718e-10
4.10069e-08
2.84988e-10
4.09823e-08
2.45207e-10
4.09582e-08
2.08805e-10
4.09349e-08
1.76008e-10
4.09124e-08
1.46864e-10
4.08909e-08
1.21277e-10
4.08704e-08
9.90406e-11
4.08511e-08
7.98775e-11
4.08328e-08
6.34717e-11
4.08155e-08
4.94911e-11
4.07993e-08
3.76107e-11
4.07839e-08
2.75227e-11
4.07692e-08
1.89491e-11
4.07553e-08
1.16467e-11
4.0742e-08
5.39767e-12
4.07295e-08
3.93529e-14
4.07177e-08
-4.53801e-12
4.07067e-08
-8.43545e-12
4.06963e-08
-1.1754e-11
4.06865e-08
-1.4576e-11
4.06774e-08
-1.69653e-11
4.06689e-08
-1.89724e-11
4.0661e-08
-2.06367e-11
4.06537e-08
-2.19872e-11
4.06471e-08
-2.30436e-11
4.0641e-08
-2.38172e-11
4.06355e-08
-2.43105e-11
4.06306e-08
-2.45134e-11
4.06262e-08
-2.43908e-11
4.06223e-08
-2.38439e-11
4.0619e-08
-2.25755e-11
-1.95154e-11
4.0973e-08
2.00386e-09
-4.0894e-08
4.10726e-08
2.18373e-09
4.1186e-08
2.33608e-09
4.13064e-08
2.45606e-09
4.14286e-08
2.54315e-09
4.15488e-08
2.599e-09
4.16637e-08
2.62604e-09
4.17708e-08
2.62738e-09
4.18685e-08
2.60676e-09
4.19559e-08
2.56833e-09
4.20325e-08
2.51626e-09
4.20988e-08
2.45453e-09
4.21552e-08
2.38672e-09
4.22028e-08
2.31588e-09
4.22426e-08
2.24448e-09
4.22758e-08
2.17438e-09
4.23034e-08
2.10689e-09
4.23264e-08
2.04282e-09
4.23458e-08
1.98261e-09
4.23622e-08
1.92639e-09
4.23763e-08
1.8741e-09
4.23885e-08
1.82552e-09
4.23991e-08
1.78038e-09
4.24086e-08
1.73836e-09
4.2417e-08
1.69913e-09
4.24246e-08
1.66238e-09
4.24315e-08
1.62783e-09
4.24376e-08
1.59521e-09
4.24432e-08
1.56428e-09
4.24482e-08
1.53483e-09
4.24526e-08
1.50666e-09
4.24566e-08
1.47962e-09
4.246e-08
1.45355e-09
4.24629e-08
1.42829e-09
4.24653e-08
1.40373e-09
4.24672e-08
1.37974e-09
4.24685e-08
1.35621e-09
4.24694e-08
1.33301e-09
4.24697e-08
1.31006e-09
4.24696e-08
1.28725e-09
4.24688e-08
1.26447e-09
4.24676e-08
1.24162e-09
4.24658e-08
1.21862e-09
4.24634e-08
1.19535e-09
4.24605e-08
1.17172e-09
4.2457e-08
1.14762e-09
4.2453e-08
1.12297e-09
4.24484e-08
1.09766e-09
4.24432e-08
1.07159e-09
4.24375e-08
1.04465e-09
4.24311e-08
1.01675e-09
4.24243e-08
9.87774e-10
4.24168e-08
9.57631e-10
4.24088e-08
9.2622e-10
4.24002e-08
8.93443e-10
4.23911e-08
8.59211e-10
4.23813e-08
8.2344e-10
4.2371e-08
7.86063e-10
4.23601e-08
7.47035e-10
4.23485e-08
7.06345e-10
4.23363e-08
6.64033e-10
4.23232e-08
6.20213e-10
4.23094e-08
5.75092e-10
4.22948e-08
5.28996e-10
4.22793e-08
4.82378e-10
4.22629e-08
4.35817e-10
4.22457e-08
3.89993e-10
4.22277e-08
3.45632e-10
4.22093e-08
3.03426e-10
4.21906e-08
2.63958e-10
4.21717e-08
2.27644e-10
4.2153e-08
1.94722e-10
4.21346e-08
1.65266e-10
4.21167e-08
1.39212e-10
4.20993e-08
1.16395e-10
4.20826e-08
9.6573e-11
4.20666e-08
7.94666e-11
4.20513e-08
6.47751e-11
4.20367e-08
5.21992e-11
4.20228e-08
4.14528e-11
4.20095e-08
3.22723e-11
4.19967e-08
2.44215e-11
4.19844e-08
1.76925e-11
4.19726e-08
1.19098e-11
4.19611e-08
6.92244e-12
4.19501e-08
2.6046e-12
4.19394e-08
-1.13592e-12
4.19292e-08
-4.37019e-12
4.19194e-08
-7.16441e-12
4.191e-08
-9.57502e-12
4.1901e-08
-1.16462e-11
4.18925e-08
-1.34106e-11
4.18843e-08
-1.48908e-11
4.18766e-08
-1.60997e-11
4.18693e-08
-1.70402e-11
4.18625e-08
-1.77008e-11
4.18562e-08
-1.80449e-11
4.18503e-08
-1.79782e-11
4.1845e-08
-1.72557e-11
-1.5175e-11
4.17641e-08
1.93086e-09
-4.16911e-08
4.1855e-08
2.09278e-09
4.19587e-08
2.23245e-09
4.20695e-08
2.3452e-09
4.2183e-08
2.42968e-09
4.22954e-08
2.48658e-09
4.24038e-08
2.51765e-09
4.25058e-08
2.52536e-09
4.25998e-08
2.51278e-09
4.26847e-08
2.4834e-09
4.27602e-08
2.4408e-09
4.28262e-08
2.38848e-09
4.28833e-08
2.32962e-09
4.29322e-08
2.26699e-09
4.29738e-08
2.2029e-09
4.3009e-08
2.13914e-09
4.30389e-08
2.07702e-09
4.30643e-08
2.01742e-09
4.3086e-08
1.96087e-09
4.31048e-08
1.90761e-09
4.31212e-08
1.85769e-09
4.31357e-08
1.81101e-09
4.31487e-08
1.76738e-09
4.31605e-08
1.72657e-09
4.31713e-08
1.68833e-09
4.31813e-08
1.65238e-09
4.31906e-08
1.61849e-09
4.31994e-08
1.58643e-09
4.32077e-08
1.55598e-09
4.32156e-08
1.52695e-09
4.32231e-08
1.49917e-09
4.32302e-08
1.47247e-09
4.32371e-08
1.44671e-09
4.32436e-08
1.42175e-09
4.32499e-08
1.39748e-09
4.32559e-08
1.37376e-09
4.32616e-08
1.3505e-09
4.3267e-08
1.32758e-09
4.32722e-08
1.3049e-09
4.3277e-08
1.28236e-09
4.32816e-08
1.25987e-09
4.3286e-08
1.23731e-09
4.329e-08
1.2146e-09
4.32937e-08
1.19164e-09
4.32971e-08
1.16833e-09
4.33001e-08
1.14458e-09
4.33028e-08
1.12028e-09
4.33051e-08
1.09534e-09
4.33071e-08
1.06965e-09
4.33086e-08
1.04312e-09
4.33097e-08
1.01564e-09
4.33103e-08
9.87121e-10
4.33105e-08
9.57456e-10
4.33102e-08
9.26551e-10
4.33093e-08
8.94313e-10
4.33079e-08
8.60658e-10
4.33058e-08
8.25509e-10
4.33031e-08
7.88806e-10
4.32996e-08
7.50514e-10
4.32953e-08
7.10631e-10
4.32901e-08
6.69207e-10
4.3284e-08
6.26361e-10
4.32768e-08
5.82302e-10
4.32684e-08
5.37341e-10
4.32589e-08
4.91909e-10
4.32482e-08
4.46544e-10
4.32363e-08
4.01872e-10
4.32234e-08
3.58556e-10
4.32095e-08
3.17232e-10
4.31951e-08
2.78441e-10
4.31801e-08
2.42585e-10
4.31649e-08
2.09903e-10
4.31497e-08
1.8049e-10
4.31346e-08
1.54311e-10
4.31198e-08
1.31234e-10
4.31053e-08
1.11054e-10
4.30912e-08
9.3523e-11
4.30776e-08
7.83712e-11
4.30645e-08
6.5324e-11
4.30519e-08
5.41152e-11
4.30396e-08
4.44967e-11
4.30278e-08
3.62424e-11
4.30164e-08
2.91509e-11
4.30052e-08
2.30468e-11
4.29944e-08
1.77776e-11
4.29838e-08
1.3215e-11
4.29734e-08
9.2511e-12
4.29632e-08
5.79476e-12
4.29533e-08
2.77129e-12
4.29436e-08
1.22403e-13
4.29341e-08
-2.19588e-12
4.29249e-08
-4.21922e-12
4.2916e-08
-5.97499e-12
4.29074e-08
-7.47984e-12
4.28991e-08
-8.73882e-12
4.28911e-08
-9.7423e-12
4.28835e-08
-1.04569e-11
4.28764e-08
-1.08037e-11
4.28697e-08
-1.06096e-11
-9.52492e-12
4.25651e-08
1.86284e-09
-4.2497e-08
4.26487e-08
2.00917e-09
4.27439e-08
2.13726e-09
4.28462e-08
2.24288e-09
4.29516e-08
2.32423e-09
4.30569e-08
2.38135e-09
4.31591e-08
2.4154e-09
4.32562e-08
2.4283e-09
4.33464e-08
2.42254e-09
4.34288e-08
2.40101e-09
4.35028e-08
2.3668e-09
4.35683e-08
2.32293e-09