/*--------------------------------*- C++ -*----------------------------------*\
| =========                 |                                                 |
| \\      /  F ield         | OpenFOAM: The Open Source CFD Toolbox           |
|  \\    /   O peration     | Version:  2.3.0                                 |
|   \\  /    A nd           | Web:      www.OpenFOAM.org                      |
|    \\/     M anipulation  |                                                 |
\*---------------------------------------------------------------------------*/
FoamFile
{
    version     2.0;
    format      ascii;
    class       volVectorField;
    location    "0.3";
    object      U;
}
// * * * * * * * * * * * * * * * * * * * * * * * * * * * * * * * * * * * * * //

dimensions      [0 1 -1 0 0 0 0];

internalField   nonuniform List<vector> 
8750
(
(0.17164 0.00593342 0)
(0.155219 0.00601622 0)
(0.139428 0.00560433 0)
(0.124451 0.00501043 0)
(0.110703 0.00435289 0)
(0.0983556 0.00368522 0)
(0.0874203 0.00304425 0)
(0.0778633 0.00245547 0)
(0.0696289 0.00193438 0)
(0.0626331 0.00148886 0)
(0.056763 0.00112063 0)
(0.0518866 0.000826303 0)
(0.047864 0.000598582 0)
(0.0445568 0.000427844 0)
(0.0418355 0.000303649 0)
(0.0395846 0.000215929 0)
(0.0377054 0.000155736 0)
(0.0361164 0.000115591 0)
(0.0347526 8.95385e-05 0)
(0.0335634 7.30331e-05 0)
(0.0325106 6.27411e-05 0)
(0.0315656 5.63151e-05 0)
(0.0307073 5.21725e-05 0)
(0.0299203 4.92957e-05 0)
(0.0291932 4.70657e-05 0)
(0.0285175 4.51305e-05 0)
(0.0278869 4.33078e-05 0)
(0.0272962 4.15168e-05 0)
(0.0267415 3.97327e-05 0)
(0.0262193 3.79587e-05 0)
(0.0257268 3.62087e-05 0)
(0.0252615 3.44988e-05 0)
(0.0248213 3.28427e-05 0)
(0.0244043 3.12502e-05 0)
(0.0240086 2.97275e-05 0)
(0.0236329 2.8277e-05 0)
(0.0232758 2.68991e-05 0)
(0.0229359 2.55917e-05 0)
(0.0226123 2.43521e-05 0)
(0.0223039 2.31765e-05 0)
(0.0220099 2.20609e-05 0)
(0.0217294 2.10012e-05 0)
(0.0214618 1.99935e-05 0)
(0.0212065 1.90337e-05 0)
(0.0209629 1.81183e-05 0)
(0.0207304 1.72439e-05 0)
(0.0205087 1.64073e-05 0)
(0.0202973 1.56055e-05 0)
(0.020096 1.48357e-05 0)
(0.0199044 1.40953e-05 0)
(0.0197222 1.33821e-05 0)
(0.0195493 1.26941e-05 0)
(0.0193854 1.20297e-05 0)
(0.0192303 1.1388e-05 0)
(0.0190841 1.07687e-05 0)
(0.0189464 1.01719e-05 0)
(0.0188172 9.59732e-06 0)
(0.0186965 9.04358e-06 0)
(0.0185841 8.50602e-06 0)
(0.0184802 7.97446e-06 0)
(0.0183849 7.43061e-06 0)
(0.0182983 6.8457e-06 0)
(0.018221 6.1795e-06 0)
(0.0181536 5.3828e-06 0)
(0.0180968 4.41012e-06 0)
(0.0180518 3.2625e-06 0)
(0.0180198 2.04719e-06 0)
(0.0180019 9.35933e-07 0)
(0.0179989 -8.10618e-08 0)
(0.0180069 -1.01325e-06 0)
(0.0180229 -1.77618e-06 0)
(0.018045 -2.35857e-06 0)
(0.0180713 -2.72873e-06 0)
(0.0181003 -2.91636e-06 0)
(0.0181306 -2.9691e-06 0)
(0.0181612 -2.9232e-06 0)
(0.0181913 -2.81026e-06 0)
(0.0182203 -2.65254e-06 0)
(0.0182477 -2.46932e-06 0)
(0.0182735 -2.27472e-06 0)
(0.0182975 -2.07936e-06 0)
(0.0183197 -1.89025e-06 0)
(0.0183401 -1.71172e-06 0)
(0.0183588 -1.54603e-06 0)
(0.0183759 -1.39397e-06 0)
(0.0183916 -1.25543e-06 0)
(0.0184058 -1.12964e-06 0)
(0.0184188 -1.01562e-06 0)
(0.0184306 -9.12227e-07 0)
(0.0184413 -8.18193e-07 0)
(0.018451 -7.32418e-07 0)
(0.0184597 -6.53756e-07 0)
(0.0184676 -5.81173e-07 0)
(0.0184746 -5.13667e-07 0)
(0.0184809 -4.50196e-07 0)
(0.0184864 -3.89945e-07 0)
(0.0184912 -3.33539e-07 0)
(0.0184954 -2.92218e-07 0)
(0.0184986 -3.40766e-07 0)
(0.0185083 -1.34425e-06 0)
(0.190501 0.0093768 0)
(0.188204 0.00989203 0)
(0.184297 0.00966914 0)
(0.179138 0.00917242 0)
(0.17323 0.00854128 0)
(0.166926 0.00782187 0)
(0.160449 0.007052 0)
(0.153966 0.00626644 0)
(0.147612 0.00549428 0)
(0.141489 0.00475935 0)
(0.135663 0.00408028 0)
(0.130176 0.00346993 0)
(0.125045 0.00293514 0)
(0.120275 0.00247715 0)
(0.115857 0.00209265 0)
(0.111775 0.00177508 0)
(0.108008 0.00151602 0)
(0.104532 0.00130635 0)
(0.101324 0.00113717 0)
(0.0983584 0.00100044 0)
(0.0956135 0.000889255 0)
(0.0930673 0.000797942 0)
(0.0907004 0.000722005 0)
(0.0884949 0.000657969 0)
(0.0864352 0.000603203 0)
(0.0845071 0.00055574 0)
(0.0826983 0.000514118 0)
(0.0809977 0.000477248 0)
(0.0793957 0.000444311 0)
(0.0778838 0.000414684 0)
(0.0764545 0.00038788 0)
(0.0751011 0.000363513 0)
(0.0738177 0.000341266 0)
(0.0725991 0.000320878 0)
(0.0714405 0.000302127 0)
(0.070338 0.000284824 0)
(0.0692878 0.000268805 0)
(0.0682865 0.000253926 0)
(0.0673312 0.000240062 0)
(0.0664194 0.000227105 0)
(0.0655486 0.000214956 0)
(0.0647167 0.000203531 0)
(0.0639218 0.000192754 0)
(0.0631624 0.000182557 0)
(0.0624369 0.00017288 0)
(0.0617439 0.000163669 0)
(0.0610824 0.000154877 0)
(0.0604513 0.00014646 0)
(0.0598497 0.000138379 0)
(0.0592769 0.000130597 0)
(0.0587323 0.000123082 0)
(0.0582153 0.000115806 0)
(0.0577255 0.000108743 0)
(0.0572625 0.00010187 0)
(0.0568261 9.51656e-05 0)
(0.0564162 8.86121e-05 0)
(0.0560326 8.21889e-05 0)
(0.0556754 7.58712e-05 0)
(0.0553448 6.96252e-05 0)
(0.0550409 6.34025e-05 0)
(0.0547644 5.71367e-05 0)
(0.0545157 5.07411e-05 0)
(0.0542959 4.41129e-05 0)
(0.054106 3.71419e-05 0)
(0.0539471 2.97329e-05 0)
(0.0538201 2.18553e-05 0)
(0.0537259 1.36179e-05 0)
(0.0536643 5.28739e-06 0)
(0.0536354 -2.41288e-06 0)
(0.0536385 -8.27173e-06 0)
(0.0536638 -1.19892e-05 0)
(0.0537047 -1.44441e-05 0)
(0.0537566 -1.60169e-05 0)
(0.0538157 -1.6845e-05 0)
(0.0538789 -1.7051e-05 0)
(0.0539437 -1.67639e-05 0)
(0.0540083 -1.61304e-05 0)
(0.0540714 -1.52706e-05 0)
(0.0541321 -1.42829e-05 0)
(0.0541898 -1.32378e-05 0)
(0.0542441 -1.2186e-05 0)
(0.054295 -1.11616e-05 0)
(0.0543424 -1.01855e-05 0)
(0.0543863 -9.2697e-06 0)
(0.054427 -8.41869e-06 0)
(0.0544645 -7.63278e-06 0)
(0.054499 -6.9093e-06 0)
(0.0545308 -6.24416e-06 0)
(0.0545599 -5.6326e-06 0)
(0.0545865 -5.06953e-06 0)
(0.0546108 -4.55019e-06 0)
(0.0546329 -4.06988e-06 0)
(0.0546529 -3.62423e-06 0)
(0.0546708 -3.20914e-06 0)
(0.0546869 -2.8209e-06 0)
(0.0547013 -2.45794e-06 0)
(0.0547139 -2.12813e-06 0)
(0.054725 -1.8853e-06 0)
(0.0547345 -2.01007e-06 0)
(0.0547509 -4.1091e-06 0)
(0.193487 0.00899419 0)
(0.194295 0.00995355 0)
(0.194443 0.0102846 0)
(0.19378 0.0102868 0)
(0.192426 0.0100616 0)
(0.190504 0.00964698 0)
(0.188109 0.00908785 0)
(0.18533 0.0084337 0)
(0.182262 0.00772965 0)
(0.178994 0.00701388 0)
(0.175604 0.00631705 0)
(0.172156 0.00566177 0)
(0.168702 0.00506252 0)
(0.165282 0.00452639 0)
(0.161924 0.00405452 0)
(0.158649 0.00364383 0)
(0.155468 0.0032886 0)
(0.15239 0.00298194 0)
(0.149418 0.00271677 0)
(0.146552 0.00248647 0)
(0.143793 0.00228523 0)
(0.141137 0.00210816 0)
(0.138581 0.00195124 0)
(0.136123 0.00181125 0)
(0.133759 0.00168558 0)
(0.131486 0.00157218 0)
(0.1293 0.00146936 0)
(0.127199 0.00137578 0)
(0.125177 0.0012903 0)
(0.123233 0.00121198 0)
(0.121363 0.00114003 0)
(0.119564 0.00107376 0)
(0.117833 0.00101256 0)
(0.116167 0.000955899 0)
(0.114565 0.000903319 0)
(0.113022 0.000854404 0)
(0.111537 0.000808784 0)
(0.110108 0.000766129 0)
(0.108733 0.000726144 0)
(0.107409 0.000688563 0)
(0.106135 0.00065315 0)
(0.104909 0.00061969 0)
(0.103729 0.000587988 0)
(0.102595 0.000557872 0)
(0.101505 0.000529181 0)
(0.100458 0.000501771 0)
(0.0994526 0.000475512 0)
(0.0984887 0.000450282 0)
(0.0975652 0.000425972 0)
(0.0966817 0.00040248 0)
(0.0958376 0.000379715 0)
(0.0950326 0.00035759 0)
(0.0942665 0.000336028 0)
(0.0935392 0.000314959 0)
(0.0928508 0.000294315 0)
(0.0922012 0.000274034 0)
(0.0915907 0.000254048 0)
(0.0910198 0.000234284 0)
(0.0904889 0.000214655 0)
(0.0899987 0.000195055 0)
(0.08955 0.000175359 0)
(0.0891436 0.000155433 0)
(0.0887806 0.000135148 0)
(0.0884619 0.000114418 0)
(0.0881883 9.32401e-05 0)
(0.0879598 7.17476e-05 0)
(0.0877757 5.02343e-05 0)
(0.0876338 2.9112e-05 0)
(0.0875287 9.05488e-06 0)
(0.0874599 -8.52756e-06 0)
(0.0874341 -2.17842e-05 0)
(0.0874398 -3.04266e-05 0)
(0.0874684 -3.56845e-05 0)
(0.0875136 -3.86652e-05 0)
(0.0875704 -4.00182e-05 0)
(0.0876348 -4.01072e-05 0)
(0.0877035 -3.92494e-05 0)
(0.0877744 -3.77171e-05 0)
(0.0878454 -3.57549e-05 0)
(0.0879154 -3.35507e-05 0)
(0.0879834 -3.12445e-05 0)
(0.0880488 -2.89328e-05 0)
(0.0881112 -2.66785e-05 0)
(0.0881705 -2.45202e-05 0)
(0.0882265 -2.24781e-05 0)
(0.0882791 -2.05606e-05 0)
(0.0883285 -1.87678e-05 0)
(0.0883747 -1.70951e-05 0)
(0.0884178 -1.55357e-05 0)
(0.0884577 -1.40813e-05 0)
(0.0884948 -1.27235e-05 0)
(0.0885289 -1.14542e-05 0)
(0.0885603 -1.02654e-05 0)
(0.088589 -9.14976e-06 0)
(0.0886151 -8.10099e-06 0)
(0.0886386 -7.11779e-06 0)
(0.0886598 -6.21897e-06 0)
(0.0886786 -5.50689e-06 0)
(0.088695 -5.44216e-06 0)
(0.088716 -7.65155e-06 0)
(0.194513 0.00834551 0)
(0.195702 0.00940257 0)
(0.196777 0.00995719 0)
(0.197519 0.0101958 0)
(0.19791 0.0102024 0)
(0.197957 0.0100095 0)
(0.197659 0.00965277 0)
(0.197024 0.00917515 0)
(0.196079 0.00861848 0)
(0.194863 0.00801998 0)
(0.19342 0.00741131 0)
(0.191794 0.00681759 0)
(0.190026 0.00625681 0)
(0.188154 0.00574008 0)
(0.18621 0.00527257 0)
(0.184218 0.00485489 0)
(0.182201 0.00448454 0)
(0.180172 0.00415716 0)
(0.178143 0.00386757 0)
(0.176123 0.00361054 0)
(0.174117 0.00338113 0)
(0.17213 0.00317504 0)
(0.170166 0.0029886 0)
(0.168227 0.0028188 0)
(0.166315 0.00266319 0)
(0.164432 0.00251982 0)
(0.162579 0.00238712 0)
(0.160757 0.0022638 0)
(0.158968 0.00214885 0)
(0.157213 0.00204141 0)
(0.155491 0.00194075 0)
(0.153805 0.00184625 0)
(0.152153 0.00175737 0)
(0.150537 0.00167363 0)
(0.148958 0.0015946 0)
(0.147414 0.00151988 0)
(0.145907 0.00144913 0)
(0.144436 0.00138201 0)
(0.143002 0.00131822 0)
(0.141604 0.00125748 0)
(0.140243 0.00119954 0)
(0.138918 0.00114416 0)
(0.13763 0.00109111 0)
(0.136378 0.00104019 0)
(0.135164 0.000991199 0)
(0.133986 0.000943964 0)
(0.132845 0.000898312 0)
(0.131741 0.000854081 0)
(0.130675 0.000811123 0)
(0.129646 0.000769296 0)
(0.128655 0.000728466 0)
(0.127703 0.000688509 0)
(0.12679 0.000649308 0)
(0.125917 0.000610752 0)
(0.125083 0.000572736 0)
(0.124291 0.000535154 0)
(0.123541 0.000497899 0)
(0.122834 0.000460856 0)
(0.122171 0.000423896 0)
(0.121552 0.000386878 0)
(0.120981 0.00034965 0)
(0.120456 0.000312077 0)
(0.119981 0.000274063 0)
(0.119555 0.000235615 0)
(0.119178 0.000196902 0)
(0.118852 0.000158341 0)
(0.118574 0.000120666 0)
(0.118342 8.49173e-05 0)
(0.118152 5.1975e-05 0)
(0.117998 2.21727e-05 0)
(0.117873 -3.82909e-06 0)
(0.117788 -2.47305e-05 0)
(0.117741 -3.97596e-05 0)
(0.117722 -4.95237e-05 0)
(0.117727 -5.53527e-05 0)
(0.117748 -5.83529e-05 0)
(0.117783 -5.93211e-05 0)
(0.117827 -5.87964e-05 0)
(0.117878 -5.72141e-05 0)
(0.117933 -5.49147e-05 0)
(0.117991 -5.21712e-05 0)
(0.11805 -4.91862e-05 0)
(0.118109 -4.61042e-05 0)
(0.118168 -4.30229e-05 0)
(0.118226 -4.00046e-05 0)
(0.118282 -3.70862e-05 0)
(0.118337 -3.42875e-05 0)
(0.118389 -3.16163e-05 0)
(0.11844 -2.90738e-05 0)
(0.118488 -2.66566e-05 0)
(0.118533 -2.43591e-05 0)
(0.118576 -2.21749e-05 0)
(0.118617 -2.00969e-05 0)
(0.118655 -1.81181e-05 0)
(0.11869 -1.62329e-05 0)
(0.118723 -1.44416e-05 0)
(0.118753 -1.27694e-05 0)
(0.11878 -1.13354e-05 0)
(0.118804 -1.06164e-05 0)
(0.118831 -1.19886e-05 0)
(0.195226 0.00783323 0)
(0.196288 0.00883117 0)
(0.197417 0.00942633 0)
(0.198438 0.00973948 0)
(0.19931 0.00984499 0)
(0.200016 0.009773 0)
(0.20053 0.00954986 0)
(0.200831 0.00920807 0)
(0.200911 0.00878143 0)
(0.200776 0.00830152 0)
(0.200442 0.00779644 0)
(0.199931 0.00728973 0)
(0.199266 0.00679946 0)
(0.198473 0.00633801 0)
(0.197574 0.00591249 0)
(0.196591 0.00552571 0)
(0.195541 0.00517732 0)
(0.194437 0.00486486 0)
(0.193292 0.00458475 0)
(0.192114 0.004333 0)
(0.19091 0.00410563 0)
(0.189685 0.00389903 0)
(0.188443 0.00371005 0)
(0.187188 0.00353604 0)
(0.185921 0.00337483 0)
(0.184647 0.00322467 0)
(0.183368 0.00308413 0)
(0.182084 0.00295207 0)
(0.1808 0.00282756 0)
(0.179515 0.00270984 0)
(0.178233 0.00259825 0)
(0.176955 0.00249225 0)
(0.175682 0.00239136 0)
(0.174417 0.00229516 0)
(0.17316 0.00220326 0)
(0.171913 0.00211534 0)
(0.170678 0.00203107 0)
(0.169455 0.00195018 0)
(0.168246 0.00187238 0)
(0.167053 0.00179743 0)
(0.165875 0.00172511 0)
(0.164715 0.00165519 0)
(0.163574 0.00158746 0)
(0.162452 0.00152174 0)
(0.161351 0.00145783 0)
(0.160271 0.00139555 0)
(0.159214 0.00133475 0)
(0.158181 0.00127526 0)
(0.157173 0.00121691 0)
(0.156191 0.00115957 0)
(0.155237 0.00110309 0)
(0.154311 0.00104733 0)
(0.153414 0.000992165 0)
(0.152549 0.000937463 0)
(0.151716 0.000883102 0)
(0.150917 0.000828957 0)
(0.150153 0.000774901 0)
(0.149426 0.000720799 0)
(0.148738 0.000666508 0)
(0.148089 0.000611882 0)
(0.147482 0.000556789 0)
(0.146918 0.000501135 0)
(0.146398 0.000444918 0)
(0.145924 0.000388287 0)
(0.145495 0.00033162 0)
(0.145112 0.000275599 0)
(0.144773 0.000221253 0)
(0.144477 0.000169915 0)
(0.144221 0.00012298 0)
(0.144002 8.13955e-05 0)
(0.143817 4.49354e-05 0)
(0.143655 1.34202e-05 0)
(0.143518 -1.27619e-05 0)
(0.143414 -3.3233e-05 0)
(0.143341 -4.79264e-05 0)
(0.143292 -5.77136e-05 0)
(0.143263 -6.37512e-05 0)
(0.143252 -6.70041e-05 0)
(0.143254 -6.82256e-05 0)
(0.143267 -6.79592e-05 0)
(0.143288 -6.66301e-05 0)
(0.143317 -6.4564e-05 0)
(0.143351 -6.20109e-05 0)
(0.143389 -5.91556e-05 0)
(0.143429 -5.61295e-05 0)
(0.143472 -5.30237e-05 0)
(0.143516 -4.98987e-05 0)
(0.143561 -4.67937e-05 0)
(0.143607 -4.37331e-05 0)
(0.143652 -4.07314e-05 0)
(0.143696 -3.77966e-05 0)
(0.14374 -3.49328e-05 0)
(0.143782 -3.21411e-05 0)
(0.143824 -2.94211e-05 0)
(0.143863 -2.67727e-05 0)
(0.143901 -2.42001e-05 0)
(0.143936 -2.17288e-05 0)
(0.14397 -1.94599e-05 0)
(0.144 -1.77489e-05 0)
(0.144031 -1.73968e-05 0)
(0.195828 0.00739206 0)
(0.196722 0.00829246 0)
(0.197731 0.00887745 0)
(0.198722 0.00921708 0)
(0.19965 0.00937012 0)
(0.200496 0.00936452 0)
(0.201237 0.00922196 0)
(0.201849 0.00896865 0)
(0.202317 0.00863282 0)
(0.202636 0.00824155 0)
(0.20281 0.00781932 0)
(0.202846 0.00738717 0)
(0.202758 0.00696185 0)
(0.202561 0.00655544 0)
(0.202271 0.00617557 0)
(0.201901 0.00582608 0)
(0.201465 0.00550785 0)
(0.200973 0.00521973 0)
(0.200434 0.0049593 0)
(0.199856 0.00472356 0)
(0.199243 0.00450935 0)
(0.1986 0.00431366 0)
(0.19793 0.00413378 0)
(0.197235 0.00396738 0)
(0.196518 0.00381251 0)
(0.19578 0.00366754 0)
(0.195023 0.00353116 0)
(0.194249 0.00340229 0)
(0.193459 0.00328007 0)
(0.192655 0.00316376 0)
(0.191838 0.00305276 0)
(0.191009 0.00294655 0)
(0.190171 0.0028447 0)
(0.189324 0.00274682 0)
(0.188469 0.00265255 0)
(0.187609 0.0025616 0)
(0.186744 0.00247367 0)
(0.185876 0.00238851 0)
(0.185006 0.00230588 0)
(0.184136 0.00222556 0)
(0.183266 0.00214732 0)
(0.182399 0.00207098 0)
(0.181535 0.00199635 0)
(0.180676 0.00192323 0)
(0.179823 0.00185147 0)
(0.178977 0.00178089 0)
(0.17814 0.00171133 0)
(0.177313 0.00164263 0)
(0.176498 0.00157465 0)
(0.175696 0.00150723 0)
(0.174908 0.00144022 0)
(0.174137 0.0013735 0)
(0.173383 0.00130693 0)
(0.172648 0.00124037 0)
(0.171934 0.0011737 0)
(0.171242 0.00110677 0)
(0.170575 0.00103947 0)
(0.169933 0.000971659 0)
(0.169319 0.000903194 0)
(0.168734 0.000833954 0)
(0.168181 0.000763849 0)
(0.16766 0.000692862 0)
(0.167173 0.0006211 0)
(0.166721 0.000548869 0)
(0.166305 0.000476741 0)
(0.165923 0.000405617 0)
(0.165577 0.000336732 0)
(0.165264 0.000271568 0)
(0.164984 0.000211624 0)
(0.164735 0.00015803 0)
(0.164516 0.000111314 0)
(0.164323 7.13427e-05 0)
(0.164152 3.72624e-05 0)
(0.163998 8.62773e-06 0)
(0.163862 -1.46508e-05 0)
(0.163751 -3.28014e-05 0)
(0.163662 -4.61457e-05 0)
(0.163592 -5.54592e-05 0)
(0.163539 -6.16346e-05 0)
(0.1635 -6.54186e-05 0)
(0.163474 -6.74064e-05 0)
(0.163459 -6.80428e-05 0)
(0.163453 -6.76707e-05 0)
(0.163455 -6.65538e-05 0)
(0.163463 -6.48928e-05 0)
(0.163478 -6.28386e-05 0)
(0.163496 -6.05014e-05 0)
(0.163519 -5.79612e-05 0)
(0.163545 -5.52757e-05 0)
(0.163574 -5.24857e-05 0)
(0.163605 -4.96208e-05 0)
(0.163637 -4.67023e-05 0)
(0.163671 -4.37457e-05 0)
(0.163705 -4.0762e-05 0)
(0.163739 -3.77599e-05 0)
(0.163773 -3.47488e-05 0)
(0.163807 -3.17487e-05 0)
(0.16384 -2.88159e-05 0)
(0.16387 -2.60962e-05 0)
(0.163902 -2.35161e-05 0)
(0.196353 0.00701301 0)
(0.19711 0.00781599 0)
(0.197987 0.0083743 0)
(0.198886 0.00872128 0)
(0.199759 0.00889887 0)
(0.200585 0.0089321 0)
(0.201345 0.00884036 0)
(0.202019 0.00864596 0)
(0.202594 0.00837324 0)
(0.203062 0.00804589 0)
(0.203424 0.00768547 0)
(0.203684 0.00731072 0)
(0.203849 0.00693687 0)
(0.203929 0.00657534 0)
(0.203935 0.00623375 0)
(0.203879 0.00591643 0)
(0.203769 0.00562505 0)
(0.203613 0.00535935 0)
(0.20342 0.00511779 0)
(0.203193 0.00489815 0)
(0.202938 0.00469789 0)
(0.202657 0.0045145 0)
(0.202352 0.00434565 0)
(0.202026 0.00418925 0)
(0.201679 0.00404351 0)
(0.201312 0.00390694 0)
(0.200927 0.00377827 0)
(0.200524 0.00365649 0)
(0.200104 0.00354074 0)
(0.199668 0.0034303 0)
(0.199216 0.00332459 0)
(0.19875 0.00322309 0)
(0.198269 0.00312537 0)
(0.197775 0.00303105 0)
(0.197269 0.00293979 0)
(0.196751 0.00285129 0)
(0.196223 0.00276526 0)
(0.195685 0.00268146 0)
(0.195138 0.00259965 0)
(0.194583 0.00251961 0)
(0.194022 0.00244113 0)
(0.193454 0.00236403 0)
(0.192882 0.00228811 0)
(0.192306 0.00221319 0)
(0.191727 0.00213911 0)
(0.191147 0.00206569 0)
(0.190566 0.00199278 0)
(0.189986 0.00192021 0)
(0.189408 0.00184783 0)
(0.188834 0.0017755 0)
(0.188264 0.00170306 0)
(0.1877 0.00163037 0)
(0.187143 0.00155729 0)
(0.186595 0.00148369 0)
(0.186057 0.00140943 0)
(0.185531 0.00133438 0)
(0.185019 0.00125841 0)
(0.184521 0.00118138 0)
(0.18404 0.00110319 0)
(0.183577 0.00102373 0)
(0.183133 0.000942972 0)
(0.18271 0.000860977 0)
(0.182309 0.000777958 0)
(0.181931 0.000694354 0)
(0.181576 0.000610888 0)
(0.181245 0.000528611 0)
(0.180937 0.00044888 0)
(0.180651 0.000373245 0)
(0.180388 0.000303217 0)
(0.180148 0.000239974 0)
(0.179929 0.000184165 0)
(0.179731 0.00013587 0)
(0.179552 9.48333e-05 0)
(0.179391 6.04115e-05 0)
(0.179245 3.15476e-05 0)
(0.17911 7.62152e-06 0)
(0.178988 -1.17629e-05 0)
(0.178883 -2.70741e-05 0)
(0.178792 -3.87315e-05 0)
(0.178715 -4.73278e-05 0)
(0.178651 -5.34942e-05 0)
(0.178598 -5.77593e-05 0)
(0.178555 -6.05442e-05 0)
(0.178522 -6.217e-05 0)
(0.178496 -6.28834e-05 0)
(0.178478 -6.28758e-05 0)
(0.178467 -6.22939e-05 0)
(0.178461 -6.12507e-05 0)
(0.178461 -5.98321e-05 0)
(0.178465 -5.81029e-05 0)
(0.178474 -5.61127e-05 0)
(0.178486 -5.38994e-05 0)
(0.178501 -5.14917e-05 0)
(0.178518 -4.89114e-05 0)
(0.178538 -4.61751e-05 0)
(0.17856 -4.32948e-05 0)
(0.178583 -4.02793e-05 0)
(0.178606 -3.71264e-05 0)
(0.178629 -3.37448e-05 0)
(0.178654 -2.91196e-05 0)
(0.196816 0.00668461 0)
(0.197466 0.00739777 0)
(0.198229 0.00792067 0)
(0.199032 0.00826375 0)
(0.199829 0.00845446 0)
(0.200598 0.0085138 0)
(0.201319 0.00845896 0)
(0.201976 0.00830902 0)
(0.202557 0.00808494 0)
(0.203056 0.00780747 0)
(0.203471 0.00749575 0)
(0.203806 0.00716657 0)
(0.204065 0.00683387 0)
(0.204257 0.00650837 0)
(0.20439 0.00619759 0)
(0.204473 0.00590616 0)
(0.204514 0.00563633 0)
(0.204519 0.00538853 0)
(0.204496 0.00516195 0)
(0.204448 0.004955 0)
(0.204378 0.00476572 0)
(0.20429 0.00459205 0)
(0.204186 0.00443197 0)
(0.204066 0.00428365 0)
(0.203931 0.00414547 0)
(0.203783 0.00401605 0)
(0.203621 0.00389419 0)
(0.203446 0.00377891 0)
(0.203258 0.00366937 0)
(0.203058 0.00356486 0)
(0.202845 0.00346479 0)
(0.20262 0.00336865 0)
(0.202384 0.00327599 0)
(0.202136 0.00318641 0)
(0.201877 0.00309958 0)
(0.201607 0.00301518 0)
(0.201326 0.00293292 0)
(0.201036 0.00285255 0)
(0.200736 0.00277382 0)
(0.200427 0.00269649 0)
(0.20011 0.00262037 0)
(0.199784 0.00254524 0)
(0.199452 0.00247091 0)
(0.199112 0.00239719 0)
(0.198767 0.00232391 0)
(0.198417 0.00225088 0)
(0.198061 0.00217794 0)
(0.197703 0.00210492 0)
(0.197341 0.00203166 0)
(0.196977 0.001958 0)
(0.196612 0.00188378 0)
(0.196247 0.00180886 0)
(0.195883 0.00173308 0)
(0.195521 0.0016563 0)
(0.195161 0.00157838 0)
(0.194806 0.00149918 0)
(0.194456 0.00141859 0)
(0.194113 0.00133647 0)
(0.193777 0.00125272 0)
(0.19345 0.0011673 0)
(0.193133 0.00108021 0)
(0.192826 0.000991574 0)
(0.192531 0.0009017 0)
(0.192248 0.00081112 0)
(0.191977 0.000720651 0)
(0.191718 0.000631425 0)
(0.191473 0.000544842 0)
(0.19124 0.000462455 0)
(0.191019 0.000385749 0)
(0.190813 0.000315895 0)
(0.190619 0.000253579 0)
(0.19044 0.000199001 0)
(0.190274 0.000152008 0)
(0.190122 0.000112098 0)
(0.189982 7.86224e-05 0)
(0.189853 5.07838e-05 0)
(0.189734 2.76046e-05 0)
(0.189623 8.40544e-06 0)
(0.189521 -7.27856e-06 0)
(0.189429 -1.99153e-05 0)
(0.189347 -2.98974e-05 0)
(0.189273 -3.76426e-05 0)
(0.189209 -4.35726e-05 0)
(0.189152 -4.80408e-05 0)
(0.189103 -5.1328e-05 0)
(0.189061 -5.36515e-05 0)
(0.189026 -5.51779e-05 0)
(0.188996 -5.60381e-05 0)
(0.188972 -5.63338e-05 0)
(0.188952 -5.61442e-05 0)
(0.188938 -5.55308e-05 0)
(0.188928 -5.45416e-05 0)
(0.188922 -5.32131e-05 0)
(0.18892 -5.15725e-05 0)
(0.18892 -4.96391e-05 0)
(0.188924 -4.74225e-05 0)
(0.188931 -4.49152e-05 0)
(0.18894 -4.20568e-05 0)
(0.188949 -3.85557e-05 0)
(0.188961 -3.27071e-05 0)
(0.197225 0.0063943 0)
(0.197792 0.00702702 0)
(0.19846 0.0075108 0)
(0.199176 0.00784333 0)
(0.199899 0.00804069 0)
(0.200605 0.0081192 0)
(0.201275 0.00809357 0)
(0.201895 0.00797996 0)
(0.202453 0.00779624 0)
(0.202944 0.00756053 0)
(0.203364 0.00728979 0)
(0.203717 0.00699912 0)
(0.204007 0.00670127 0)
(0.204239 0.0064063 0)
(0.204422 0.00612155 0)
(0.204562 0.00585186 0)
(0.204667 0.00559991 0)
(0.204743 0.00536669 0)
(0.204795 0.005152 0)
(0.204828 0.00495484 0)
(0.204845 0.00477376 0)
(0.204849 0.00460712 0)
(0.204841 0.00445322 0)
(0.204823 0.00431051 0)
(0.204795 0.00417753 0)
(0.204759 0.00405301 0)
(0.204714 0.00393586 0)
(0.204661 0.00382514 0)
(0.2046 0.00372004 0)
(0.204531 0.00361986 0)
(0.204454 0.00352402 0)
(0.204369 0.003432 0)
(0.204277 0.00334336 0)
(0.204176 0.00325769 0)
(0.204068 0.00317463 0)
(0.203952 0.00309387 0)
(0.203829 0.00301511 0)
(0.203698 0.00293807 0)
(0.20356 0.00286251 0)
(0.203415 0.00278817 0)
(0.203263 0.00271485 0)
(0.203104 0.00264232 0)
(0.202938 0.00257037 0)
(0.202767 0.00249882 0)
(0.202589 0.00242746 0)
(0.202406 0.0023561 0)
(0.202218 0.00228458 0)
(0.202025 0.00221271 0)
(0.201828 0.00214031 0)
(0.201627 0.00206722 0)
(0.201422 0.00199326 0)
(0.201215 0.00191828 0)
(0.201006 0.00184212 0)
(0.200795 0.00176463 0)
(0.200583 0.00168567 0)
(0.200371 0.00160508 0)
(0.200159 0.00152276 0)
(0.199948 0.00143858 0)
(0.199739 0.00135247 0)
(0.199533 0.00126439 0)
(0.199329 0.0011744 0)
(0.199129 0.00108268 0)
(0.198932 0.000989587 0)
(0.19874 0.000895704 0)
(0.198552 0.000801898 0)
(0.198367 0.000709314 0)
(0.198188 0.000619341 0)
(0.198013 0.000533478 0)
(0.197843 0.000453155 0)
(0.19768 0.000379509 0)
(0.197523 0.000313245 0)
(0.197374 0.000254628 0)
(0.197233 0.000203564 0)
(0.1971 0.000159669 0)
(0.196976 0.000122379 0)
(0.196861 9.0979e-05 0)
(0.196753 6.47328e-05 0)
(0.196653 4.2904e-05 0)
(0.196559 2.47005e-05 0)
(0.19647 9.52194e-06 0)
(0.196387 -3.05165e-06 0)
(0.19631 -1.34005e-05 0)
(0.196239 -2.18411e-05 0)
(0.196174 -2.86576e-05 0)
(0.196115 -3.41251e-05 0)
(0.196061 -3.84747e-05 0)
(0.196011 -4.18892e-05 0)
(0.195967 -4.45126e-05 0)
(0.195927 -4.64562e-05 0)
(0.195892 -4.78062e-05 0)
(0.195861 -4.86303e-05 0)
(0.195833 -4.89807e-05 0)
(0.19581 -4.88967e-05 0)
(0.19579 -4.84063e-05 0)
(0.195773 -4.75269e-05 0)
(0.19576 -4.62618e-05 0)
(0.19575 -4.45862e-05 0)
(0.195742 -4.23939e-05 0)
(0.195737 -3.92745e-05 0)
(0.195733 -3.32889e-05 0)
(0.197589 0.00613325 0)
(0.19809 0.00669536 0)
(0.198679 0.00713972 0)
(0.199318 0.00745765 0)
(0.199973 0.00765701 0)
(0.20062 0.00774958 0)
(0.20124 0.00774749 0)
(0.201819 0.00766427 0)
(0.202347 0.00751509 0)
(0.202818 0.00731561 0)
(0.203229 0.00708081 0)
(0.203582 0.0068242 0)
(0.203878 0.00655739 0)
(0.204124 0.00628978 0)
(0.204326 0.00602846 0)
(0.20449 0.00577833 0)
(0.204622 0.00554239 0)
(0.204729 0.0053221 0)
(0.204814 0.00511777 0)
(0.204883 0.00492891 0)
(0.204938 0.00475453 0)
(0.204982 0.00459336 0)
(0.205017 0.00444407 0)
(0.205045 0.00430532 0)
(0.205066 0.00417586 0)
(0.205082 0.00405456 0)
(0.205092 0.00394042 0)
(0.205098 0.00383256 0)
(0.205098 0.00373023 0)
(0.205094 0.00363277 0)
(0.205086 0.0035396 0)
(0.205073 0.00345021 0)
(0.205055 0.00336416 0)
(0.205033 0.00328105 0)
(0.205006 0.00320053 0)
(0.204975 0.00312227 0)
(0.204939 0.00304597 0)
(0.204898 0.00297134 0)
(0.204853 0.00289814 0)
(0.204804 0.0028261 0)
(0.20475 0.00275501 0)
(0.204691 0.00268464 0)
(0.204628 0.00261476 0)
(0.20456 0.00254519 0)
(0.204488 0.0024757 0)
(0.204412 0.00240612 0)
(0.204332 0.00233624 0)
(0.204248 0.00226588 0)
(0.20416 0.00219485 0)
(0.204068 0.00212298 0)
(0.203973 0.00205009 0)
(0.203874 0.00197601 0)
(0.203773 0.00190057 0)
(0.203669 0.00182363 0)
(0.203562 0.00174502 0)
(0.203453 0.00166461 0)
(0.203342 0.00158228 0)
(0.203229 0.00149793 0)
(0.203115 0.00141148 0)
(0.203 0.00132294 0)
(0.202884 0.00123239 0)
(0.202766 0.00114003 0)
(0.202647 0.00104627 0)
(0.202528 0.0009517 0)
(0.202407 0.0008572 0)
(0.202285 0.000763886 0)
(0.202162 0.000673085 0)
(0.202038 0.000586216 0)
(0.201915 0.000504623 0)
(0.201792 0.000429392 0)
(0.201671 0.00036123 0)
(0.201554 0.000300442 0)
(0.20144 0.000246998 0)
(0.20133 0.000200591 0)
(0.201226 0.000160727 0)
(0.201127 0.000126784 0)
(0.201034 9.80936e-05 0)
(0.200945 7.3962e-05 0)
(0.200862 5.37279e-05 0)
(0.200783 3.67938e-05 0)
(0.200709 2.25769e-05 0)
(0.200638 1.06056e-05 0)
(0.200571 5.44063e-07 0)
(0.200507 -7.89179e-06 0)
(0.200446 -1.49386e-05 0)
(0.200389 -2.07935e-05 0)
(0.200336 -2.56343e-05 0)
(0.200286 -2.96131e-05 0)
(0.200239 -3.28514e-05 0)
(0.200195 -3.54436e-05 0)
(0.200154 -3.74634e-05 0)
(0.200116 -3.89667e-05 0)
(0.200081 -3.99941e-05 0)
(0.200049 -4.05733e-05 0)
(0.20002 -4.07188e-05 0)
(0.199994 -4.04273e-05 0)
(0.199971 -3.96604e-05 0)
(0.19995 -3.82871e-05 0)
(0.199931 -3.58707e-05 0)
(0.199913 -3.06779e-05 0)
(0.197914 0.00589541 0)
(0.198361 0.00639615 0)
(0.198885 0.00680259 0)
(0.199457 0.00710354 0)
(0.200051 0.00730132 0)
(0.200643 0.00740378 0)
(0.201215 0.00742056 0)
(0.201755 0.00736288 0)
(0.202253 0.00724351 0)
(0.202702 0.00707589 0)
(0.203099 0.00687311 0)
(0.203444 0.00664723 0)
(0.20374 0.00640875 0)
(0.20399 0.00616639 0)
(0.2042 0.00592689 0)
(0.204375 0.00569515 0)
(0.204521 0.00547438 0)
(0.204642 0.00526639 0)
(0.204743 0.00507189 0)
(0.204829 0.00489084 0)
(0.204902 0.00472264 0)
(0.204964 0.00456641 0)
(0.205019 0.00442109 0)
(0.205067 0.00428559 0)
(0.20511 0.00415886 0)
(0.205149 0.00403992 0)
(0.205183 0.00392786 0)
(0.205215 0.0038219 0)
(0.205243 0.00372134 0)
(0.205268 0.00362555 0)
(0.205291 0.00353398 0)
(0.205311 0.00344616 0)
(0.205329 0.00336164 0)
(0.205344 0.00328006 0)
(0.205357 0.00320104 0)
(0.205367 0.00312427 0)
(0.205375 0.00304945 0)
(0.20538 0.00297631 0)
(0.205383 0.00290457 0)
(0.205383 0.00283401 0)
(0.205381 0.00276437 0)
(0.205376 0.00269544 0)
(0.205368 0.002627 0)
(0.205358 0.00255883 0)
(0.205345 0.00249074 0)
(0.205329 0.00242252 0)
(0.205311 0.00235397 0)
(0.20529 0.0022849 0)
(0.205266 0.00221513 0)
(0.20524 0.00214446 0)
(0.20521 0.00207273 0)
(0.205178 0.00199976 0)
(0.205143 0.00192538 0)
(0.205106 0.00184943 0)
(0.205066 0.00177176 0)
(0.205022 0.00169223 0)
(0.204977 0.00161073 0)
(0.204928 0.00152717 0)
(0.204877 0.0014415 0)
(0.204822 0.00135372 0)
(0.204765 0.00126396 0)
(0.204704 0.00117243 0)
(0.204639 0.00107955 0)
(0.204571 0.000985919 0)
(0.204498 0.000892383 0)
(0.204421 0.000800007 0)
(0.204341 0.000710033 0)
(0.204256 0.00062378 0)
(0.204168 0.000542493 0)
(0.204078 0.000467195 0)
(0.203987 0.000398574 0)
(0.203896 0.000336966 0)
(0.203805 0.000282391 0)
(0.203717 0.000234611 0)
(0.203631 0.000193206 0)
(0.203548 0.000157624 0)
(0.203468 0.000127258 0)
(0.203392 0.000101476 0)
(0.20332 7.96671e-05 0)
(0.20325 6.12547e-05 0)
(0.203184 4.57145e-05 0)
(0.203121 3.25956e-05 0)
(0.20306 2.14891e-05 0)
(0.203001 1.20474e-05 0)
(0.202944 4.0153e-06 0)
(0.20289 -2.81151e-06 0)
(0.202837 -8.60968e-06 0)
(0.202786 -1.35204e-05 0)
(0.202738 -1.76617e-05 0)
(0.202691 -2.11339e-05 0)
(0.202646 -2.40181e-05 0)
(0.202603 -2.63767e-05 0)
(0.202563 -2.82548e-05 0)
(0.202524 -2.96816e-05 0)
(0.202487 -3.0671e-05 0)
(0.202453 -3.12159e-05 0)
(0.20242 -3.12717e-05 0)
(0.20239 -3.07044e-05 0)
(0.202363 -2.91268e-05 0)
(0.202333 -2.52755e-05 0)
(0.198206 0.00567644 0)
(0.198609 0.00612396 0)
(0.199078 0.00649498 0)
(0.199592 0.00677781 0)
(0.200131 0.00697134 0)
(0.200672 0.00708029 0)
(0.201201 0.00711203 0)
(0.201704 0.00707574 0)
(0.202171 0.00698207 0)
(0.202598 0.00684246 0)
(0.202979 0.0066683 0)
(0.203315 0.00647026 0)
(0.203607 0.0062578 0)
(0.203858 0.00603893 0)
(0.204072 0.00582003 0)
(0.204253 0.00560588 0)
(0.204407 0.0053998 0)
(0.204537 0.00520387 0)
(0.204648 0.00501912 0)
(0.204743 0.00484586 0)
(0.204826 0.00468386 0)
(0.204898 0.00453254 0)
(0.204963 0.00439113 0)
(0.205021 0.00425877 0)
(0.205075 0.00413459 0)
(0.205124 0.00401774 0)
(0.20517 0.00390745 0)
(0.205212 0.00380301 0)
(0.205253 0.00370378 0)
(0.205291 0.00360918 0)
(0.205327 0.0035187 0)
(0.205362 0.00343189 0)
(0.205395 0.00334834 0)
(0.205427 0.00326767 0)
(0.205457 0.00318954 0)
(0.205486 0.00311364 0)
(0.205514 0.00303968 0)
(0.20554 0.00296738 0)
(0.205565 0.0028965 0)
(0.205589 0.00282679 0)
(0.205612 0.00275802 0)
(0.205633 0.00268995 0)
(0.205652 0.00262239 0)
(0.205671 0.00255511 0)
(0.205687 0.00248791 0)
(0.205702 0.0024206 0)
(0.205716 0.00235297 0)
(0.205728 0.00228485 0)
(0.205738 0.00221603 0)
(0.205746 0.00214633 0)
(0.205752 0.00207558 0)
(0.205757 0.00200361 0)
(0.205759 0.00193025 0)
(0.205758 0.00185534 0)
(0.205755 0.00177873 0)
(0.20575 0.00170031 0)
(0.205742 0.00161995 0)
(0.205731 0.00153758 0)
(0.205716 0.00145317 0)
(0.205698 0.00136675 0)
(0.205676 0.00127844 0)
(0.20565 0.00118849 0)
(0.205619 0.0010973 0)
(0.205582 0.00100546 0)
(0.205541 0.000913785 0)
(0.205493 0.000823262 0)
(0.205441 0.000735042 0)
(0.205382 0.000650333 0)
(0.205319 0.00057028 0)
(0.205252 0.000495833 0)
(0.205183 0.000427655 0)
(0.205111 0.000366095 0)
(0.205039 0.000311216 0)
(0.204966 0.000262842 0)
(0.204895 0.000220615 0)
(0.204825 0.000184055 0)
(0.204757 0.000152613 0)
(0.204691 0.000125715 0)