/*--------------------------------*- C++ -*----------------------------------*\
| =========                 |                                                 |
| \\      /  F ield         | OpenFOAM: The Open Source CFD Toolbox           |
|  \\    /   O peration     | Version:  2.3.0                                 |
|   \\  /    A nd           | Web:      www.OpenFOAM.org                      |
|    \\/     M anipulation  |                                                 |
\*---------------------------------------------------------------------------*/
FoamFile
{
    version     2.0;
    format      ascii;
    class       volVectorField;
    location    "0.3";
    object      U_0;
}
// * * * * * * * * * * * * * * * * * * * * * * * * * * * * * * * * * * * * * //

dimensions      [0 1 -1 0 0 0 0];

internalField   nonuniform List<vector> 
8750
(
(0.17164 0.0059334 0)
(0.15522 0.0060162 0)
(0.139428 0.00560432 0)
(0.124451 0.00501042 0)
(0.110703 0.00435288 0)
(0.098356 0.00368521 0)
(0.0874208 0.00304424 0)
(0.0778637 0.00245547 0)
(0.0696294 0.00193438 0)
(0.0626335 0.00148886 0)
(0.0567635 0.00112063 0)
(0.0518871 0.000826301 0)
(0.0478645 0.000598579 0)
(0.0445573 0.000427841 0)
(0.0418361 0.000303646 0)
(0.0395853 0.000215925 0)
(0.0377061 0.000155731 0)
(0.0361172 0.000115586 0)
(0.0347534 8.95325e-05 0)
(0.0335642 7.30265e-05 0)
(0.0325115 6.27339e-05 0)
(0.0315665 5.63074e-05 0)
(0.0307083 5.21642e-05 0)
(0.0299213 4.92868e-05 0)
(0.0291943 4.70563e-05 0)
(0.0285188 4.51206e-05 0)
(0.0278882 4.32973e-05 0)
(0.0272977 4.15058e-05 0)
(0.026743 3.97212e-05 0)
(0.0262209 3.79465e-05 0)
(0.0257285 3.61959e-05 0)
(0.0252634 3.44853e-05 0)
(0.0248233 3.28285e-05 0)
(0.0244064 3.12353e-05 0)
(0.024011 2.97117e-05 0)
(0.0236355 2.82605e-05 0)
(0.0232785 2.68817e-05 0)
(0.0229388 2.55735e-05 0)
(0.0226154 2.4333e-05 0)
(0.0223073 2.31564e-05 0)
(0.0220135 2.20399e-05 0)
(0.0217333 2.09792e-05 0)
(0.021466 1.99705e-05 0)
(0.021211 1.90097e-05 0)
(0.0209677 1.80933e-05 0)
(0.0207355 1.72178e-05 0)
(0.0205142 1.63801e-05 0)
(0.0203033 1.55771e-05 0)
(0.0201024 1.48061e-05 0)
(0.0199112 1.40646e-05 0)
(0.0197295 1.33502e-05 0)
(0.0195571 1.2661e-05 0)
(0.0193938 1.19955e-05 0)
(0.0192393 1.1353e-05 0)
(0.0190937 1.0733e-05 0)
(0.0189567 1.01358e-05 0)
(0.0188282 9.561e-06 0)
(0.0187082 9.00678e-06 0)
(0.0185967 8.4677e-06 0)
(0.0184937 7.9323e-06 0)
(0.0183993 7.3805e-06 0)
(0.0183138 6.78132e-06 0)
(0.0182377 6.09227e-06 0)
(0.0181716 5.26296e-06 0)
(0.0181165 4.25125e-06 0)
(0.0180734 3.07333e-06 0)
(0.0180435 1.85385e-06 0)
(0.0180281 7.94881e-07 0)
(0.0180273 -2.66177e-07 0)
(0.0180369 -1.16704e-06 0)
(0.0180542 -1.90647e-06 0)
(0.0180773 -2.45502e-06 0)
(0.0181044 -2.7938e-06 0)
(0.0181339 -2.95574e-06 0)
(0.0181645 -2.98888e-06 0)
(0.0181953 -2.92869e-06 0)
(0.0182254 -2.80526e-06 0)
(0.0182542 -2.64041e-06 0)
(0.0182816 -2.45275e-06 0)
(0.0183072 -2.25576e-06 0)
(0.018331 -2.05956e-06 0)
(0.018353 -1.87064e-06 0)
(0.0183732 -1.69295e-06 0)
(0.0183917 -1.52849e-06 0)
(0.0184087 -1.3778e-06 0)
(0.0184241 -1.24067e-06 0)
(0.0184382 -1.11627e-06 0)
(0.0184511 -1.00354e-06 0)
(0.0184627 -9.01342e-07 0)
(0.0184733 -8.08396e-07 0)
(0.0184829 -7.23588e-07 0)
(0.0184915 -6.45821e-07 0)
(0.0184993 -5.74068e-07 0)
(0.0185062 -5.07331e-07 0)
(0.0185124 -4.4462e-07 0)
(0.0185179 -3.85149e-07 0)
(0.0185226 -3.29617e-07 0)
(0.0185267 -2.89291e-07 0)
(0.0185299 -3.38086e-07 0)
(0.0185394 -1.33041e-06 0)
(0.190501 0.00937677 0)
(0.188204 0.00989201 0)
(0.184298 0.00966912 0)
(0.179138 0.0091724 0)
(0.173231 0.00854126 0)
(0.166927 0.00782185 0)
(0.160449 0.00705198 0)
(0.153966 0.00626642 0)
(0.147613 0.00549426 0)
(0.141489 0.00475933 0)
(0.135664 0.00408025 0)
(0.130176 0.00346991 0)
(0.125046 0.00293511 0)
(0.120276 0.00247712 0)
(0.115858 0.00209261 0)
(0.111776 0.00177505 0)
(0.108009 0.00151599 0)
(0.104533 0.00130631 0)
(0.101325 0.00113713 0)
(0.0983601 0.00100039 0)
(0.0956153 0.000889203 0)
(0.0930693 0.000797886 0)
(0.0907025 0.000721945 0)
(0.0884973 0.000657905 0)
(0.0864377 0.000603134 0)
(0.0845099 0.000555666 0)
(0.0827013 0.000514039 0)
(0.0810009 0.000477163 0)
(0.0793992 0.000444221 0)
(0.0778876 0.000414588 0)
(0.0764586 0.000387777 0)
(0.0751055 0.000363402 0)
(0.0738225 0.000341148 0)
(0.0726043 0.000320752 0)
(0.0714462 0.000301993 0)
(0.0703441 0.000284681 0)
(0.0692944 0.000268651 0)
(0.0682937 0.000253762 0)
(0.067339 0.000239888 0)
(0.0664278 0.000226919 0)
(0.0655577 0.000214758 0)
(0.0647265 0.000203319 0)
(0.0639325 0.000192528 0)
(0.063174 0.000182316 0)
(0.0624494 0.000172623 0)
(0.0617574 0.000163397 0)
(0.061097 0.000154587 0)
(0.0604671 0.000146151 0)
(0.0598668 0.00013805 0)
(0.0592955 0.000130247 0)
(0.0587523 0.000122711 0)
(0.0582369 0.000115413 0)
(0.0577489 0.000108326 0)
(0.0572878 0.000101428 0)
(0.0568534 9.46989e-05 0)
(0.0564456 8.81191e-05 0)
(0.0560644 8.16678e-05 0)
(0.0557097 7.53188e-05 0)
(0.0553817 6.90356e-05 0)
(0.0550807 6.27668e-05 0)
(0.0548073 5.64418e-05 0)
(0.0545621 4.99702e-05 0)
(0.0543461 4.32456e-05 0)
(0.0541603 3.61572e-05 0)
(0.0540059 2.8615e-05 0)
(0.0538838 2.06073e-05 0)
(0.0537947 1.22689e-05 0)
(0.0537383 3.9311e-06 0)
(0.0537151 -3.62042e-06 0)
(0.0537227 -9.10992e-06 0)
(0.0537512 -1.25828e-05 0)
(0.0537946 -1.48823e-05 0)
(0.0538483 -1.63308e-05 0)
(0.0539087 -1.70457e-05 0)
(0.0539726 -1.71556e-05 0)
(0.0540379 -1.67944e-05 0)
(0.0541027 -1.61072e-05 0)
(0.0541659 -1.5211e-05 0)
(0.0542264 -1.42006e-05 0)
(0.0542838 -1.31425e-05 0)
(0.0543379 -1.20851e-05 0)
(0.0543884 -1.106e-05 0)
(0.0544354 -1.00866e-05 0)
(0.054479 -9.17523e-06 0)
(0.0545193 -8.32967e-06 0)
(0.0545565 -7.54958e-06 0)
(0.0545907 -6.83189e-06 0)
(0.0546222 -6.17231e-06 0)
(0.054651 -5.56601e-06 0)
(0.0546773 -5.00784e-06 0)
(0.0547013 -4.49306e-06 0)
(0.0547231 -4.01708e-06 0)
(0.0547428 -3.57555e-06 0)
(0.0547606 -3.16444e-06 0)
(0.0547765 -2.78019e-06 0)
(0.0547906 -2.42132e-06 0)
(0.054803 -2.09584e-06 0)
(0.0548139 -1.85741e-06 0)
(0.0548233 -1.98368e-06 0)
(0.0548394 -4.06499e-06 0)
(0.193487 0.00899415 0)
(0.194296 0.00995351 0)
(0.194443 0.0102846 0)
(0.19378 0.0102868 0)
(0.192426 0.0100615 0)
(0.190505 0.00964693 0)
(0.18811 0.0090878 0)
(0.185331 0.00843365 0)
(0.182263 0.0077296 0)
(0.178995 0.00701382 0)
(0.175605 0.00631698 0)
(0.172157 0.00566171 0)
(0.168703 0.00506245 0)
(0.165283 0.00452631 0)
(0.161926 0.00405444 0)
(0.15865 0.00364374 0)
(0.15547 0.0032885 0)
(0.152392 0.00298184 0)
(0.14942 0.00271666 0)
(0.146554 0.00248635 0)
(0.143795 0.0022851 0)
(0.141139 0.00210802 0)
(0.138584 0.00195109 0)
(0.136126 0.00181108 0)
(0.133762 0.00168541 0)
(0.13149 0.00157199 0)
(0.129304 0.00146916 0)
(0.127202 0.00137555 0)
(0.125181 0.00129006 0)
(0.123238 0.00121173 0)
(0.121368 0.00113976 0)
(0.119569 0.00107346 0)
(0.117839 0.00101224 0)
(0.116174 0.000955558 0)
(0.114572 0.000902954 0)
(0.11303 0.000854011 0)
(0.111546 0.000808362 0)
(0.110118 0.000765676 0)
(0.108743 0.000725657 0)
(0.10742 0.000688041 0)
(0.106147 0.000652589 0)
(0.104922 0.000619087 0)
(0.103743 0.000587342 0)
(0.10261 0.000557179 0)
(0.101522 0.000528438 0)
(0.100476 0.000500975 0)
(0.0994725 0.000474659 0)
(0.0985103 0.000449369 0)
(0.0975888 0.000424994 0)
(0.0967073 0.000401434 0)
(0.0958654 0.000378596 0)
(0.0950628 0.000356395 0)
(0.0942993 0.000334753 0)
(0.0935748 0.000313599 0)
(0.0928894 0.000292867 0)
(0.0922431 0.00027249 0)
(0.0916362 0.000252403 0)
(0.0910691 0.000232527 0)
(0.0905423 0.000212773 0)
(0.0900565 0.000193029 0)
(0.0896126 0.000173168 0)
(0.0892114 0.000153053 0)
(0.0888541 0.000132558 0)
(0.0885413 0.000111607 0)
(0.088274 9.02149e-05 0)
(0.088052 6.85434e-05 0)
(0.0878744 4.69148e-05 0)
(0.0877384 2.57467e-05 0)
(0.0876384 5.84907e-06 0)
(0.0875769 -1.12184e-05 0)
(0.0875572 -2.37411e-05 0)
(0.0875673 -3.17607e-05 0)
(0.0875994 -3.66016e-05 0)
(0.0876472 -3.92843e-05 0)
(0.0877058 -4.04024e-05 0)
(0.0877715 -4.03034e-05 0)
(0.0878412 -3.93001e-05 0)
(0.0879126 -3.76629e-05 0)
(0.087984 -3.56299e-05 0)
(0.0880541 -3.3381e-05 0)
(0.088122 -3.10496e-05 0)
(0.0881873 -2.8726e-05 0)
(0.0882496 -2.6469e-05 0)
(0.0883086 -2.43138e-05 0)
(0.0883643 -2.22782e-05 0)
(0.0884167 -2.03689e-05 0)
(0.0884658 -1.8585e-05 0)
(0.0885117 -1.69215e-05 0)
(0.0885544 -1.5371e-05 0)
(0.0885941 -1.39252e-05 0)
(0.0886308 -1.25758e-05 0)
(0.0886646 -1.13146e-05 0)
(0.0886957 -1.01338e-05 0)
(0.0887241 -9.02621e-06 0)
(0.0887499 -7.98578e-06 0)
(0.0887731 -7.01137e-06 0)
(0.088794 -6.12199e-06 0)
(0.0888125 -5.41968e-06 0)
(0.0888287 -5.36123e-06 0)
(0.0888494 -7.56427e-06 0)
(0.194514 0.00834546 0)
(0.195702 0.00940252 0)
(0.196777 0.00995714 0)
(0.19752 0.0101957 0)
(0.19791 0.0102023 0)
(0.197957 0.0100094 0)
(0.197659 0.00965269 0)
(0.197025 0.00917507 0)
(0.19608 0.00861839 0)
(0.194864 0.00801988 0)
(0.193421 0.00741121 0)
(0.191795 0.00681748 0)
(0.190027 0.00625669 0)
(0.188155 0.00573995 0)
(0.186211 0.00527243 0)
(0.18422 0.00485474 0)
(0.182202 0.00448438 0)
(0.180173 0.00415698 0)
(0.178144 0.00386738 0)
(0.176124 0.00361033 0)
(0.174119 0.00338091 0)
(0.172132 0.0031748 0)
(0.170168 0.00298834 0)
(0.168229 0.00281852 0)
(0.166318 0.00266289 0)
(0.164435 0.0025195 0)
(0.162582 0.00238677 0)
(0.160761 0.00226343 0)
(0.158972 0.00214845 0)
(0.157217 0.00204097 0)
(0.155496 0.00194028 0)
(0.15381 0.00184574 0)
(0.152159 0.00175682 0)
(0.150544 0.00167304 0)
(0.148965 0.00159396 0)
(0.147422 0.0015192 0)
(0.145915 0.00144839 0)
(0.144445 0.00138121 0)
(0.143012 0.00131736 0)
(0.141615 0.00125655 0)
(0.140255 0.00119854 0)
(0.138931 0.00114308 0)
(0.137645 0.00108995 0)
(0.136395 0.00103894 0)
(0.135181 0.000989858 0)
(0.134005 0.000942522 0)
(0.132866 0.000896761 0)
(0.131764 0.000852415 0)
(0.1307 0.000809333 0)
(0.129674 0.000767373 0)
(0.128685 0.000726403 0)
(0.127736 0.000686297 0)
(0.126826 0.000646938 0)
(0.125956 0.000608214 0)
(0.125126 0.00057002 0)
(0.124338 0.000532249 0)
(0.123592 0.000494792 0)
(0.122889 0.000457529 0)
(0.12223 0.000420328 0)
(0.121617 0.000383045 0)
(0.121051 0.000345527 0)
(0.120533 0.000307641 0)
(0.120063 0.000269304 0)
(0.119644 0.000230542 0)
(0.119275 0.000191563 0)
(0.118955 0.000152836 0)
(0.118684 0.00011516 0)
(0.118458 7.96033e-05 0)
(0.118274 4.69512e-05 0)
(0.118124 1.75447e-05 0)
(0.118005 -7.85624e-06 0)
(0.117927 -2.79299e-05 0)
(0.117885 -4.20704e-05 0)
(0.117871 -5.11262e-05 0)
(0.117879 -5.64382e-05 0)
(0.117903 -5.90596e-05 0)
(0.11794 -5.97397e-05 0)
(0.117985 -5.89974e-05 0)
(0.118037 -5.72546e-05 0)
(0.118093 -5.48416e-05 0)
(0.118152 -5.20216e-05 0)
(0.118211 -4.89876e-05 0)
(0.118271 -4.58763e-05 0)
(0.11833 -4.2779e-05 0)
(0.118388 -3.97535e-05 0)
(0.118445 -3.68335e-05 0)
(0.118499 -3.40365e-05 0)
(0.118552 -3.1369e-05 0)
(0.118602 -2.88312e-05 0)
(0.11865 -2.64193e-05 0)
(0.118695 -2.41277e-05 0)
(0.118738 -2.19498e-05 0)
(0.118779 -1.98786e-05 0)
(0.118816 -1.79074e-05 0)
(0.118851 -1.60308e-05 0)
(0.118884 -1.42494e-05 0)
(0.118913 -1.25888e-05 0)
(0.11894 -1.11683e-05 0)
(0.118964 -1.04626e-05 0)
(0.11899 -1.18519e-05 0)
(0.195226 0.00783316 0)
(0.196288 0.0088311 0)
(0.197417 0.00942625 0)
(0.198439 0.0097394 0)
(0.19931 0.00984491 0)
(0.200016 0.00977291 0)
(0.20053 0.00954976 0)
(0.200831 0.00920796 0)
(0.200911 0.00878131 0)
(0.200777 0.0083014 0)
(0.200443 0.0077963 0)
(0.199932 0.00728958 0)
(0.199267 0.0067993 0)
(0.198474 0.00633784 0)
(0.197575 0.0059123 0)
(0.196592 0.00552551 0)
(0.195542 0.0051771 0)
(0.194438 0.00486462 0)
(0.193294 0.0045845 0)
(0.192116 0.00433272 0)
(0.190912 0.00410532 0)
(0.189687 0.0038987 0)
(0.188445 0.00370969 0)
(0.18719 0.00353565 0)
(0.185924 0.00337442 0)
(0.18465 0.00322422 0)
(0.18337 0.00308364 0)
(0.182088 0.00295154 0)
(0.180803 0.00282699 0)
(0.179519 0.00270922 0)
(0.178237 0.00259758 0)
(0.17696 0.00249153 0)
(0.175687 0.00239058 0)
(0.174423 0.00229431 0)
(0.173166 0.00220235 0)
(0.17192 0.00211436 0)
(0.170686 0.00203001 0)
(0.169464 0.00194903 0)
(0.168256 0.00187114 0)
(0.167063 0.0017961 0)
(0.165887 0.00172367 0)
(0.164728 0.00165363 0)
(0.163587 0.00158578 0)
(0.162467 0.00151992 0)
(0.161367 0.00145587 0)
(0.160289 0.00139344 0)
(0.159234 0.00133247 0)
(0.158203 0.0012728 0)
(0.157197 0.00121427 0)
(0.156217 0.00115673 0)
(0.155265 0.00110003 0)
(0.154341 0.00104404 0)
(0.153448 0.000988633 0)
(0.152586 0.000933672 0)
(0.151756 0.000879035 0)
(0.150961 0.000824598 0)
(0.150201 0.000770228 0)
(0.149479 0.00071579 0)
(0.148795 0.000661137 0)
(0.148151 0.000606123 0)
(0.14755 0.000550618 0)
(0.146991 0.000494539 0)
(0.146478 0.000437902 0)
(0.14601 0.000380892 0)
(0.145588 0.000323934 0)
(0.145211 0.000267773 0)
(0.144878 0.000213504 0)
(0.144588 0.000162504 0)
(0.144338 0.000116153 0)
(0.144125 7.52289e-05 0)
(0.143943 3.93744e-05 0)
(0.143784 8.53028e-06 0)
(0.143652 -1.68519e-05 0)
(0.143555 -3.64409e-05 0)
(0.143485 -5.0295e-05 0)
(0.14344 -5.94156e-05 0)
(0.143415 -6.4947e-05 0)
(0.143406 -6.78215e-05 0)
(0.14341 -6.87568e-05 0)
(0.143425 -6.82745e-05 0)
(0.143448 -6.6785e-05 0)
(0.143478 -6.46017e-05 0)
(0.143513 -6.19647e-05 0)
(0.143551 -5.90496e-05 0)
(0.143593 -5.59812e-05 0)
(0.143636 -5.28452e-05 0)
(0.143681 -4.96982e-05 0)
(0.143726 -4.65768e-05 0)
(0.143772 -4.35037e-05 0)
(0.143817 -4.04923e-05 0)
(0.143862 -3.75499e-05 0)
(0.143906 -3.46802e-05 0)
(0.143948 -3.18845e-05 0)
(0.14399 -2.91626e-05 0)
(0.144029 -2.65143e-05 0)
(0.144067 -2.39446e-05 0)
(0.144102 -2.14795e-05 0)
(0.144135 -1.92208e-05 0)
(0.144165 -1.75261e-05 0)
(0.144196 -1.72157e-05 0)
(0.195828 0.00739198 0)
(0.196722 0.00829238 0)
(0.197731 0.00887736 0)
(0.198722 0.00921699 0)
(0.199651 0.00937003 0)
(0.200497 0.00936441 0)
(0.201237 0.00922185 0)
(0.201849 0.00896852 0)
(0.202317 0.00863269 0)
(0.202637 0.0082414 0)
(0.20281 0.00781916 0)
(0.202847 0.007387 0)
(0.202759 0.00696166 0)
(0.202562 0.00655523 0)
(0.202272 0.00617535 0)
(0.201902 0.00582584 0)
(0.201465 0.00550759 0)
(0.200974 0.00521944 0)
(0.200435 0.00495899 0)
(0.199857 0.00472322 0)
(0.199245 0.00450898 0)
(0.198602 0.00431326 0)
(0.197931 0.00413335 0)
(0.197237 0.00396691 0)
(0.19652 0.00381199 0)
(0.195782 0.00366698 0)
(0.195025 0.00353055 0)
(0.194252 0.00340164 0)
(0.193462 0.00327936 0)
(0.192658 0.00316299 0)
(0.191841 0.00305193 0)
(0.191013 0.00294565 0)
(0.190175 0.00284372 0)
(0.189328 0.00274576 0)
(0.188474 0.0026514 0)
(0.187615 0.00256035 0)
(0.18675 0.00247233 0)
(0.185883 0.00238706 0)
(0.185014 0.00230431 0)
(0.184144 0.00222385 0)
(0.183276 0.00214548 0)
(0.182409 0.00206899 0)
(0.181546 0.00199419 0)
(0.180688 0.0019209 0)
(0.179836 0.00184895 0)
(0.178992 0.00177816 0)
(0.178156 0.00170839 0)
(0.177331 0.00163946 0)
(0.176518 0.00157122 0)
(0.175717 0.00150353 0)
(0.174932 0.00143624 0)
(0.174163 0.00136922 0)
(0.173411 0.00130232 0)
(0.172679 0.00123541 0)
(0.171968 0.00116837 0)
(0.171279 0.00110106 0)
(0.170615 0.00103334 0)
(0.169977 0.000965083 0)
(0.169367 0.000896146 0)
(0.168787 0.000826409 0)
(0.168238 0.00075579 0)
(0.167723 0.000684287 0)
(0.167241 0.000612036 0)
(0.166794 0.000539383 0)
(0.166383 0.000466958 0)
(0.166007 0.000395725 0)
(0.165666 0.000326978 0)
(0.165358 0.000262235 0)
(0.165083 0.000202975 0)
(0.164839 0.000150227 0)
(0.164624 0.000104434 0)
(0.164435 6.53129e-05 0)
(0.164267 3.19825e-05 0)
(0.164115 4.10902e-06 0)
(0.163984 -1.83975e-05 0)
(0.163876 -3.57821e-05 0)
(0.163791 -4.84333e-05 0)
(0.163724 -5.71901e-05 0)
(0.163673 -6.29331e-05 0)
(0.163637 -6.63852e-05 0)
(0.163613 -6.81174e-05 0)
(0.163599 -6.85552e-05 0)
(0.163595 -6.80295e-05 0)
(0.163598 -6.67933e-05 0)
(0.163608 -6.50392e-05 0)
(0.163623 -6.29112e-05 0)
(0.163643 -6.05145e-05 0)
(0.163667 -5.79254e-05 0)
(0.163694 -5.51983e-05 0)
(0.163723 -5.23725e-05 0)
(0.163755 -4.94761e-05 0)
(0.163788 -4.65299e-05 0)
(0.163822 -4.35488e-05 0)
(0.163856 -4.05438e-05 0)
(0.163891 -3.75238e-05 0)
(0.163925 -3.44989e-05 0)
(0.163959 -3.14897e-05 0)
(0.163992 -2.85545e-05 0)
(0.164022 -2.58445e-05 0)
(0.164054 -2.33181e-05 0)
(0.196353 0.00701292 0)
(0.19711 0.0078159 0)
(0.197988 0.00837421 0)
(0.198886 0.00872117 0)
(0.199759 0.00889875 0)
(0.200586 0.00893198 0)
(0.201346 0.00884023 0)
(0.20202 0.00864582 0)
(0.202594 0.00837309 0)
(0.203063 0.00804572 0)
(0.203425 0.00768529 0)
(0.203684 0.00731052 0)
(0.203849 0.00693666 0)
(0.20393 0.0065751 0)
(0.203936 0.00623349 0)
(0.20388 0.00591615 0)
(0.203769 0.00562475 0)
(0.203614 0.00535902 0)
(0.203421 0.00511744 0)
(0.203194 0.00489776 0)
(0.202939 0.00469747 0)
(0.202658 0.00451405 0)
(0.202354 0.00434515 0)
(0.202027 0.00418871 0)
(0.20168 0.00404292 0)
(0.201314 0.0039063 0)
(0.200929 0.00377758 0)
(0.200527 0.00365574 0)
(0.200107 0.00353992 0)
(0.199671 0.00342942 0)
(0.199219 0.00332363 0)
(0.198753 0.00322205 0)
(0.198272 0.00312424 0)
(0.197779 0.00302982 0)
(0.197273 0.00293846 0)
(0.196756 0.00284984 0)
(0.196228 0.00276369 0)
(0.19569 0.00267976 0)
(0.195144 0.0025978 0)
(0.19459 0.00251761 0)
(0.194029 0.00243897 0)
(0.193462 0.00236168 0)
(0.19289 0.00228556 0)
(0.192315 0.00221044 0)
(0.191737 0.00213613 0)
(0.191158 0.00206246 0)
(0.190578 0.00198929 0)
(0.19 0.00191644 0)
(0.189423 0.00184376 0)
(0.18885 0.0017711 0)
(0.188282 0.00169831 0)
(0.187719 0.00162526 0)
(0.187164 0.00155179 0)
(0.186619 0.00147777 0)
(0.186083 0.00140306 0)
(0.18556 0.00132754 0)
(0.18505 0.00125107 0)
(0.184555 0.00117351 0)
(0.184077 0.00109476 0)
(0.183617 0.00101472 0)
(0.183177 0.000933377 0)
(0.182758 0.000850804 0)
(0.182361 0.000767253 0)
(0.181987 0.000683207 0)
(0.181636 0.000599449 0)
(0.181308 0.00051709 0)
(0.181004 0.000437541 0)
(0.180722 0.000362375 0)
(0.180463 0.000293078 0)
(0.180226 0.000230748 0)
(0.180011 0.000175948 0)
(0.179816 0.000128678 0)
(0.17964 8.86277e-05 0)
(0.179482 5.50588e-05 0)
(0.179338 2.6927e-05 0)
(0.179205 3.69489e-06 0)
(0.179086 -1.50466e-05 0)
(0.178983 -2.97608e-05 0)
(0.178895 -4.08866e-05 0)
(0.17882 -4.90498e-05 0)
(0.178758 -5.4873e-05 0)
(0.178707 -5.88663e-05 0)
(0.178666 -6.14349e-05 0)
(0.178634 -6.28858e-05 0)
(0.17861 -6.34566e-05 0)
(0.178594 -6.33311e-05 0)
(0.178584 -6.26504e-05 0)
(0.178579 -6.15229e-05 0)
(0.17858 -6.00308e-05 0)
(0.178585 -5.82365e-05 0)
(0.178594 -5.61876e-05 0)
(0.178607 -5.39208e-05 0)
(0.178623 -5.14639e-05 0)
(0.178641 -4.88385e-05 0)
(0.178662 -4.60612e-05 0)
(0.178684 -4.31446e-05 0)
(0.178707 -4.00985e-05 0)
(0.178731 -3.6923e-05 0)
(0.178755 -3.35344e-05 0)
(0.178779 -2.89539e-05 0)
(0.196816 0.00668451 0)
(0.197466 0.00739766 0)
(0.19823 0.00792056 0)
(0.199032 0.00826364 0)
(0.19983 0.00845433 0)
(0.200598 0.00851366 0)
(0.201319 0.00845881 0)
(0.201976 0.00830886 0)
(0.202557 0.00808477 0)
(0.203056 0.00780729 0)
(0.203472 0.00749555 0)
(0.203806 0.00716635 0)
(0.204066 0.00683363 0)
(0.204257 0.00650811 0)
(0.204391 0.00619731 0)
(0.204474 0.00590586 0)
(0.204514 0.005636 0)
(0.20452 0.00538818 0)
(0.204497 0.00516156 0)
(0.204449 0.00495458 0)
(0.204379 0.00476526 0)
(0.204291 0.00459155 0)
(0.204187 0.00443142 0)
(0.204067 0.00428305 0)
(0.203933 0.00414483 0)
(0.203784 0.00401535 0)
(0.203623 0.00389343 0)
(0.203448 0.00377808 0)
(0.20326 0.00366847 0)
(0.20306 0.00356389 0)
(0.202847 0.00346373 0)
(0.202623 0.0033675 0)
(0.202386 0.00327474 0)
(0.202139 0.00318506 0)
(0.20188 0.00309811 0)
(0.20161 0.00301359 0)
(0.20133 0.00293119 0)
(0.20104 0.00285067 0)
(0.20074 0.00277177 0)
(0.200432 0.00269428 0)
(0.200115 0.00261797 0)
(0.19979 0.00254263 0)
(0.199458 0.00246808 0)
(0.199119 0.00239413 0)
(0.198775 0.00232059 0)
(0.198425 0.00224729 0)
(0.19807 0.00217405 0)
(0.197712 0.00210072 0)
(0.197352 0.00202711 0)
(0.196989 0.00195309 0)
(0.196625 0.00187848 0)
(0.196261 0.00180313 0)
(0.195898 0.00172691 0)
(0.195537 0.00164965 0)
(0.19518 0.00157123 0)
(0.194826 0.00149151 0)
(0.194478 0.00141035 0)
(0.194137 0.00132764 0)
(0.193803 0.00124329 0)
(0.193479 0.00115723 0)
(0.193164 0.00106951 0)
(0.192859 0.000980266 0)
(0.192567 0.000889843 0)
(0.192286 0.000798819 0)
(0.192018 0.00070807 0)
(0.191762 0.000618785 0)
(0.191518 0.000532408 0)
(0.191288 0.000450509 0)
(0.19107 0.000374546 0)
(0.190865 0.00030562 0)
(0.190675 0.000244338 0)
(0.190498 0.00019083 0)
(0.190334 0.00014488 0)
(0.190184 0.000105946 0)
(0.190046 7.33562e-05 0)
(0.189919 4.62639e-05 0)
(0.189802 2.37078e-05 0)
(0.189693 5.06932e-06 0)
(0.189592 -1.01162e-05 0)
(0.189502 -2.23091e-05 0)
(0.189421 -3.18988e-05 0)
(0.189349 -3.93183e-05 0)
(0.189286 -4.49836e-05 0)
(0.189231 -4.92355e-05 0)
(0.189184 -5.23439e-05 0)
(0.189143 -5.45169e-05 0)
(0.189108 -5.59147e-05 0)
(0.18908 -5.66634e-05 0)
(0.189056 -5.68606e-05 0)
(0.189038 -5.65825e-05 0)
(0.189025 -5.58884e-05 0)
(0.189016 -5.48246e-05 0)
(0.18901 -5.34262e-05 0)
(0.189009 -5.172e-05 0)
(0.189011 -4.97248e-05 0)
(0.189015 -4.74508e-05 0)
(0.189022 -4.48914e-05 0)
(0.189032 -4.1989e-05 0)
(0.189042 -3.84593e-05 0)
(0.189054 -3.26276e-05 0)
(0.197225 0.00639419 0)
(0.197792 0.0070269 0)
(0.198461 0.00751068 0)
(0.199176 0.0078432 0)
(0.199899 0.00804055 0)
(0.200605 0.00811905 0)
(0.201276 0.00809341 0)
(0.201896 0.00797978 0)
(0.202454 0.00779606 0)
(0.202944 0.00756033 0)
(0.203365 0.00728957 0)
(0.203718 0.00699889 0)
(0.204007 0.00670101 0)
(0.20424 0.00640602 0)
(0.204422 0.00612125 0)
(0.204563 0.00585154 0)
(0.204668 0.00559955 0)
(0.204744 0.0053663 0)
(0.204796 0.00515158 0)
(0.204829 0.00495439 0)
(0.204846 0.00477327 0)
(0.20485 0.00460658 0)
(0.204842 0.00445264 0)
(0.204824 0.00430988 0)
(0.204797 0.00417684 0)
(0.20476 0.00405227 0)
(0.204716 0.00393506 0)
(0.204663 0.00382426 0)
(0.204602 0.00371908 0)
(0.204533 0.00361883 0)
(0.204456 0.0035229 0)
(0.204371 0.00343078 0)
(0.204279 0.00334203 0)
(0.204179 0.00325625 0)
(0.204071 0.00317307 0)
(0.203955 0.00309217 0)
(0.203832 0.00301326 0)
(0.203701 0.00293607 0)
(0.203563 0.00286033 0)
(0.203418 0.00278581 0)
(0.203266 0.00271229 0)
(0.203108 0.00263954 0)
(0.202943 0.00256735 0)
(0.202772 0.00249554 0)
(0.202595 0.00242391 0)
(0.202412 0.00235226 0)
(0.202224 0.00228042 0)
(0.202032 0.00220821 0)
(0.201835 0.00213544 0)
(0.201635 0.00206195 0)
(0.201431 0.00198758 0)
(0.201225 0.00191215 0)
(0.201016 0.00183552 0)
(0.200806 0.00175752 0)
(0.200595 0.00167802 0)
(0.200384 0.00159687 0)
(0.200173 0.00151395 0)
(0.199964 0.00142915 0)
(0.199756 0.00134239 0)
(0.199551 0.00125366 0)
(0.199349 0.00116303 0)
(0.19915 0.00107069 0)
(0.198955 0.000977049 0)
(0.198763 0.000882736 0)
(0.198576 0.000788666 0)
(0.198393 0.000696041 0)
(0.198215 0.000606283 0)
(0.198041 0.000520906 0)
(0.197873 0.000441311 0)
(0.19771 0.000368575 0)
(0.197555 0.000303333 0)
(0.197407 0.000245779 0)
(0.197268 0.000195768 0)
(0.197137 0.000152874 0)
(0.197015 0.000116503 0)
(0.1969 8.59219e-05 0)
(0.196794 6.03949e-05 0)
(0.196695 3.91672e-05 0)
(0.196602 2.14557e-05 0)
(0.196514 6.70507e-06 0)
(0.196432 -5.49393e-06 0)
(0.196356 -1.55166e-05 0)
(0.196287 -2.367e-05 0)
(0.196223 -3.02436e-05 0)
(0.196164 -3.55079e-05 0)
(0.196111 -3.96863e-05 0)
(0.196063 -4.29547e-05 0)
(0.196019 -4.54512e-05 0)
(0.19598 -4.72823e-05 0)
(0.195946 -4.85311e-05 0)
(0.195915 -4.92625e-05 0)
(0.195889 -4.95267e-05 0)
(0.195866 -4.93612e-05 0)
(0.195847 -4.87932e-05 0)
(0.195831 -4.78394e-05 0)
(0.195819 -4.65032e-05 0)
(0.195809 -4.47605e-05 0)
(0.195802 -4.25075e-05 0)
(0.195798 -3.93395e-05 0)
(0.195794 -3.33349e-05 0)
(0.197589 0.00613313 0)
(0.19809 0.00669524 0)
(0.19868 0.00713958 0)
(0.199318 0.00745751 0)
(0.199974 0.00765686 0)
(0.20062 0.00774942 0)
(0.20124 0.00774731 0)
(0.20182 0.00766408 0)
(0.202348 0.00751489 0)
(0.202819 0.0073154 0)
(0.20323 0.00708057 0)
(0.203582 0.00682394 0)
(0.203879 0.00655711 0)
(0.204125 0.00628948 0)
(0.204327 0.00602814 0)
(0.204491 0.00577798 0)
(0.204623 0.00554201 0)
(0.204729 0.00532169 0)
(0.204815 0.00511733 0)
(0.204883 0.00492843 0)
(0.204939 0.004754 0)
(0.204983 0.0045928 0)
(0.205018 0.00444346 0)
(0.205046 0.00430465 0)
(0.205068 0.00417514 0)
(0.205083 0.00405377 0)
(0.205094 0.00393957 0)
(0.205099 0.00383164 0)
(0.2051 0.00372924 0)
(0.205096 0.00363169 0)
(0.205087 0.00353842 0)
(0.205074 0.00344893 0)
(0.205057 0.00336277 0)
(0.205035 0.00327955 0)
(0.205008 0.0031989 0)
(0.204977 0.0031205 0)
(0.204941 0.00304404 0)
(0.204901 0.00296925 0)
(0.204856 0.00289587 0)
(0.204807 0.00282364 0)
(0.204753 0.00275234 0)
(0.204694 0.00268174 0)
(0.204631 0.00261162 0)
(0.204564 0.00254178 0)
(0.204492 0.00247201 0)
(0.204417 0.00240212 0)
(0.204337 0.00233191 0)
(0.204253 0.0022612 0)
(0.204165 0.00218979 0)
(0.204073 0.00211751 0)
(0.203979 0.00204418 0)
(0.203881 0.00196964 0)
(0.20378 0.00189371 0)
(0.203676 0.00181625 0)
(0.20357 0.00173709 0)
(0.203461 0.0016561 0)
(0.203351 0.00157316 0)
(0.203239 0.00148817 0)
(0.203125 0.00140108 0)
(0.20301 0.00131189 0)
(0.202894 0.00122069 0)
(0.202777 0.00112773 0)
(0.202659 0.00103344 0)
(0.20254 0.000938466 0)
(0.202419 0.000843724 0)
(0.202298 0.000750381 0)
(0.202175 0.000659796 0)
(0.202051 0.000573395 0)
(0.201928 0.000492499 0)
(0.201806 0.00041814 0)
(0.201686 0.000350961 0)
(0.201569 0.000291206 0)
(0.201456 0.000238793 0)
(0.201347 0.000193377 0)
(0.201244 0.000154433 0)
(0.201146 0.000121324 0)
(0.201053 9.3373e-05 0)
(0.200966 6.98817e-05 0)
(0.200884 5.01991e-05 0)
(0.200806 3.37265e-05 0)
(0.200732 1.98862e-05 0)
(0.200661 8.23605e-06 0)
(0.200594 -1.54608e-06 0)
(0.200531 -9.74015e-06 0)
(0.200471 -1.65763e-05 0)
(0.200415 -2.22491e-05 0)
(0.200362 -2.69341e-05 0)
(0.200313 -3.07787e-05 0)
(0.200266 -3.38995e-05 0)
(0.200223 -3.63869e-05 0)
(0.200183 -3.83116e-05 0)
(0.200146 -3.97267e-05 0)
(0.200111 -4.06708e-05 0)
(0.20008 -4.11701e-05 0)
(0.200051 -4.12382e-05 0)
(0.200026 -4.08712e-05 0)
(0.200003 -4.00312e-05 0)
(0.199983 -3.85886e-05 0)
(0.199965 -3.61101e-05 0)
(0.199947 -3.08666e-05 0)
(0.197914 0.00589528 0)
(0.198362 0.00639601 0)
(0.198885 0.00680245 0)
(0.199458 0.00710339 0)
(0.200051 0.00730116 0)
(0.200643 0.0074036 0)
(0.201216 0.00742037 0)
(0.201756 0.00736268 0)
(0.202253 0.00724329 0)
(0.202702 0.00707565 0)
(0.203099 0.00687286 0)
(0.203445 0.00664696 0)
(0.203741 0.00640846 0)
(0.203991 0.00616607 0)
(0.204201 0.00592655 0)
(0.204376 0.00569478 0)
(0.204521 0.00547398 0)
(0.204643 0.00526595 0)
(0.204744 0.00507143 0)
(0.20483 0.00489033 0)
(0.204902 0.0047221 0)
(0.204965 0.00456581 0)
(0.20502 0.00442044 0)
(0.205068 0.00428489 0)
(0.205111 0.00415811 0)
(0.20515 0.0040391 0)
(0.205185 0.00392698 0)
(0.205216 0.00382095 0)
(0.205244 0.0037203 0)
(0.20527 0.00362442 0)
(0.205292 0.00353276 0)
(0.205313 0.00344484 0)
(0.20533 0.00336021 0)
(0.205346 0.0032785 0)
(0.205358 0.00319935 0)
(0.205369 0.00312244 0)
(0.205377 0.00304747 0)
(0.205382 0.00297416 0)
(0.205385 0.00290224 0)
(0.205385 0.00283148 0)
(0.205383 0.00276163 0)
(0.205378 0.00269248 0)
(0.205371 0.00262378 0)
(0.205361 0.00255535 0)
(0.205348 0.00248697 0)
(0.205333 0.00241843 0)
(0.205315 0.00234955 0)
(0.205294 0.00228012 0)
(0.20527 0.00220996 0)
(0.205244 0.00213889 0)
(0.205214 0.00206672 0)
(0.205183 0.00199328 0)
(0.205148 0.0019184 0)
(0.20511 0.00184193 0)
(0.20507 0.00176371 0)
(0.205027 0.0016836 0)
(0.204982 0.0016015 0)
(0.204933 0.00151731 0)
(0.204882 0.001431 0)
(0.204828 0.00134259 0)
(0.20477 0.0012522 0)
(0.204709 0.0011601 0)
(0.204644 0.00106672 0)
(0.204575 0.000972714 0)
(0.204503 0.000878959 0)
(0.204425 0.000786565 0)
(0.204344 0.000696802 0)
(0.204259 0.000610993 0)
(0.204171 0.000530362 0)
(0.204081 0.000455886 0)
(0.203989 0.000388198 0)
(0.203898 0.000327576 0)
(0.203808 0.000273994 0)
(0.20372 0.000227176 0)
(0.203635 0.000186673 0)
(0.203552 0.000151918 0)
(0.203473 0.000122292 0)
(0.203398 9.71618e-05 0)
(0.203326 7.59193e-05 0)
(0.203257 5.79909e-05 0)
(0.203191 4.28628e-05 0)
(0.203128 3.00907e-05 0)
(0.203067 1.92696e-05 0)
(0.203009 1.00691e-05 0)
(0.202952 2.24534e-06 0)
(0.202898 -4.40293e-06 0)
(0.202846 -1.00463e-05 0)
(0.202795 -1.48218e-05 0)
(0.202747 -1.88453e-05 0)
(0.202701 -2.22144e-05 0)
(0.202656 -2.50069e-05 0)
(0.202614 -2.72822e-05 0)
(0.202573 -2.90823e-05 0)
(0.202535 -3.04348e-05 0)
(0.202499 -3.13517e-05 0)
(0.202464 -3.18252e-05 0)
(0.202433 -3.18102e-05 0)
(0.202403 -3.11733e-05 0)
(0.202376 -2.95281e-05 0)
(0.202347 -2.56061e-05 0)
(0.198206 0.0056763 0)
(0.198609 0.00612381 0)
(0.199078 0.00649483 0)
(0.199592 0.00677765 0)
(0.200131 0.00697116 0)
(0.200673 0.0070801 0)
(0.201201 0.00711183 0)
(0.201704 0.00707552 0)
(0.202172 0.00698183 0)
(0.202598 0.00684221 0)
(0.20298 0.00666803 0)
(0.203316 0.00646997 0)
(0.203608 0.00625749 0)
(0.203859 0.00603859 0)
(0.204073 0.00581966 0)
(0.204254 0.00560549 0)
(0.204407 0.00539938 0)
(0.204537 0.00520341 0)
(0.204648 0.00501863 0)
(0.204744 0.00484533 0)
(0.204826 0.00468329 0)
(0.204899 0.00453192 0)
(0.204964 0.00439046 0)
(0.205023 0.00425805 0)
(0.205076 0.0041338 0)
(0.205125 0.00401689 0)
(0.205171 0.00390654 0)
(0.205214 0.00380202 0)
(0.205254 0.00370271 0)
(0.205292 0.00360802 0)
(0.205329 0.00351745 0)
(0.205364 0.00343053 0)
(0.205397 0.00334687 0)
(0.205429 0.00326607 0)
(0.205459 0.00318781 0)
(0.205488 0.00311177 0)
(0.205516 0.00303765 0)
(0.205542 0.00296519 0)
(0.205567 0.00289413 0)
(0.205591 0.00282422 0)
(0.205614 0.00275523 0)
(0.205635 0.00268694 0)
(0.205655 0.00261912 0)
(0.205673 0.00255157 0)
(0.20569 0.00248409 0)
(0.205705 0.00241647 0)
(0.205719 0.00234851 0)
(0.205731 0.00228002 0)
(0.205741 0.00221082 0)
(0.205749 0.00214072 0)
(0.205755 0.00206954 0)
(0.20576 0.0019971 0)
(0.205762 0.00192325 0)
(0.205761 0.00184782 0)
(0.205759 0.00177067 0)
(0.205753 0.00169168 0)
(0.205745 0.00161073 0)
(0.205733 0.00152776 0)
(0.205719 0.00144273 0)
(0.2057 0.0013557 0)
(0.205678 0.00126681 0)
(0.205651 0.00117631 0)
(0.205619 0.00108466 0)
(0.205583 0.000992478 0)
(0.20554 0.000900606 0)
(0.205492 0.000810075 0)
(0.205438 0.000722058 0)
(0.205379 0.000637766 0)
(0.205316 0.000558326 0)
(0.205248 0.000484648 0)
(0.205178 0.000417346 0)
(0.205106 0.000356719 0)
(0.205034 0.000302787 0)
(0.204961 0.000255336 0)
(0.20489 0.000213983 0)
(0.20482 0.000178231 0)
(0.204753 0.000147521 0)
(0.204687 0.000121272 0)