/*--------------------------------*- C++ -*----------------------------------*\
| =========                 |                                                 |
| \\      /  F ield         | OpenFOAM: The Open Source CFD Toolbox           |
|  \\    /   O peration     | Version:  2.3.0                                 |
|   \\  /    A nd           | Web:      www.OpenFOAM.org                      |
|    \\/     M anipulation  |                                                 |
\*---------------------------------------------------------------------------*/
FoamFile
{
    version     2.0;
    format      ascii;
    class       surfaceScalarField;
    location    "0.05";
    object      phi;
}
// * * * * * * * * * * * * * * * * * * * * * * * * * * * * * * * * * * * * * //

dimensions      [0 3 -1 0 0 0 0];

internalField   nonuniform List<scalar> 
11667
(
2.26971e-08
2.19094e-09
-2.4888e-08
2.00371e-08
2.66001e-09
1.73974e-08
2.63967e-09
1.49712e-08
2.42618e-09
1.27881e-08
2.18308e-09
1.08998e-08
1.88834e-09
9.35682e-09
1.54295e-09
8.15479e-09
1.20203e-09
7.25906e-09
8.95729e-10
6.6149e-09
6.44162e-10
6.15859e-09
4.56308e-10
5.83302e-09
3.25573e-10
5.59627e-09
2.36746e-10
5.41863e-09
1.77639e-10
5.27876e-09
1.39867e-10
5.16308e-09
1.15686e-10
5.06467e-09
9.8407e-11
4.98119e-09
8.34802e-11
4.91194e-09
6.92499e-11
4.85684e-09
5.50971e-11
4.81594e-09
4.09082e-11
4.78906e-09
2.68758e-11
4.77631e-09
1.27472e-11
4.77584e-09
4.69796e-13
4.78439e-09
-8.54852e-12
4.7998e-09
-1.54064e-11
4.81913e-09
-1.93319e-11
4.8398e-09
-2.0671e-11
4.85991e-09
-2.01101e-11
4.87822e-09
-1.8309e-11
4.89407e-09
-1.58535e-11
4.90728e-09
-1.32065e-11
4.91796e-09
-1.06785e-11
4.9264e-09
-8.44379e-12
4.93298e-09
-6.57792e-12
4.93806e-09
-5.08463e-12
4.94199e-09
-3.92367e-12
4.94503e-09
-3.0369e-12
4.9474e-09
-2.37218e-12
4.94928e-09
-1.87764e-12
4.95079e-09
-1.51006e-12
4.95201e-09
-1.22957e-12
4.95303e-09
-1.01674e-12
4.95388e-09
-8.52093e-13
4.95461e-09
-7.22629e-13
4.95522e-09
-6.16145e-13
4.95575e-09
-5.28565e-13
4.95621e-09
-4.56719e-13
4.9566e-09
-3.9527e-13
4.95695e-09
-3.43731e-13
4.95725e-09
-2.99149e-13
4.95751e-09
-2.61332e-13
4.95774e-09
-2.28246e-13
4.95794e-09
-2.00257e-13
4.95811e-09
-1.75697e-13
4.95827e-09
-1.5452e-13
4.9584e-09
-1.36333e-13
4.95852e-09
-1.20504e-13
4.95863e-09
-1.06732e-13
4.95872e-09
-9.49455e-14
4.95881e-09
-8.46345e-14
4.95888e-09
-7.57133e-14
4.95895e-09
-6.79826e-14
4.95901e-09
-6.12792e-14
4.95907e-09
-5.54414e-14
4.95912e-09
-5.03722e-14
4.95917e-09
-4.59551e-14
4.95921e-09
-4.21091e-14
4.95925e-09
-3.87606e-14
4.95928e-09
-3.58396e-14
4.95932e-09
-3.32806e-14
4.95935e-09
-3.10278e-14
4.95938e-09
-2.90397e-14
4.9594e-09
-2.72851e-14
4.95943e-09
-2.57365e-14
4.95945e-09
-2.43651e-14
4.95948e-09
-2.31415e-14
4.9595e-09
-2.20405e-14
4.95952e-09
-2.10442e-14
4.95954e-09
-2.01403e-14
4.95956e-09
-1.93182e-14
4.95958e-09
-1.85661e-14
4.9596e-09
-1.78717e-14
4.95961e-09
-1.72245e-14
4.95963e-09
-1.6618e-14
4.95965e-09
-1.60489e-14
4.95966e-09
-1.55141e-14
4.95968e-09
-1.50093e-14
4.95969e-09
-1.45291e-14
4.9597e-09
-1.4068e-14
4.95972e-09
-1.36229e-14
4.95973e-09
-1.31917e-14
4.95974e-09
-1.27737e-14
4.95976e-09
-1.23679e-14
4.95977e-09
-1.19741e-14
4.95978e-09
-1.15907e-14
4.95979e-09
-1.12172e-14
4.9598e-09
-1.08529e-14
4.95981e-09
-1.04973e-14
4.95982e-09
-1.01483e-14
4.95983e-09
-9.8059e-15
4.95984e-09
-9.46958e-15
4.95985e-09
-9.13876e-15
4.95986e-09
-8.81459e-15
4.95987e-09
-8.49675e-15
4.95988e-09
-8.18661e-15
4.95988e-09
-7.88308e-15
4.95989e-09
-7.5866e-15
4.9599e-09
-7.29548e-15
4.95991e-09
-7.00965e-15
4.95991e-09
-6.72841e-15
4.95992e-09
-6.452e-15
4.95993e-09
-6.18122e-15
4.95993e-09
-5.91596e-15
4.95994e-09
-5.65724e-15
4.95994e-09
-5.40399e-15
4.95995e-09
-5.15688e-15
4.95995e-09
-4.91429e-15
4.95996e-09
-4.67725e-15
4.95996e-09
-4.44418e-15
4.95997e-09
-4.21674e-15
4.95997e-09
-3.99247e-15
4.95997e-09
-3.77384e-15
4.95998e-09
-3.55721e-15
4.95998e-09
-3.34484e-15
4.95998e-09
-3.1365e-15
4.95999e-09
-2.92526e-15
4.95999e-09
-2.73084e-15
4.95999e-09
-2.51078e-15
4.95999e-09
-2.34103e-15
4.96e-09
-2.09835e-15
4.96e-09
-1.96141e-15
4.96e-09
-1.69211e-15
4.96e-09
-1.5755e-15
4.96e-09
-1.30263e-15
4.96e-09
-1.17294e-15
4.96001e-09
-9.09426e-16
4.96001e-09
-7.96054e-16
4.96001e-09
-4.31704e-16
4.96001e-09
-4.88667e-16
4.96001e-09
9.41461e-17
4.96001e-09
-3.68127e-17
4.96001e-09
3.70011e-16
4.96001e-09
7.52226e-16
4.96001e-09
6.35119e-16
4.96e-09
1.26228e-15
4.96e-09
1.43889e-15
4.96e-09
1.67499e-15
4.96e-09
1.89268e-15
3.51991e-15
2.69507e-08
1.93747e-09
-2.66972e-08
2.68583e-08
2.75244e-09
2.63727e-08
3.12527e-09
2.56551e-08
3.14376e-09
2.48024e-08
3.03578e-09
2.38436e-08
2.84713e-09
2.28096e-08
2.57694e-09
2.17585e-08
2.25312e-09
2.07399e-08
1.91431e-09
1.97862e-08
1.59793e-09
1.8915e-08
1.32744e-09
1.81337e-08
1.10687e-09
1.74425e-08
9.28028e-10
1.68387e-08
7.81356e-10
1.63179e-08
6.60752e-10
1.58721e-08
5.61401e-10
1.54934e-08
4.77167e-10
1.51741e-08
4.02765e-10
1.49089e-08
3.34417e-10
1.46938e-08
2.70239e-10
1.4525e-08
2.09704e-10
1.4399e-08
1.52912e-10
1.43109e-08
1.00844e-10
1.4257e-08
5.43632e-11
1.42317e-08
1.66884e-11
1.42283e-08
-1.19571e-11
1.42402e-08
-3.12372e-11
1.42615e-08
-4.19767e-11
1.42873e-08
-4.59558e-11
1.4314e-08
-4.50122e-11
1.43391e-08
-4.09381e-11
1.43612e-08
-3.5262e-11
1.43796e-08
-2.91127e-11
1.43944e-08
-2.32432e-11
1.44059e-08
-1.8064e-11
1.44146e-08
-1.3755e-11
1.4421e-08
-1.03155e-11
1.44256e-08
-7.63909e-12
1.44288e-08
-5.61646e-12
1.4431e-08
-4.11032e-12
1.44325e-08
-2.99971e-12
1.44335e-08
-2.16694e-12
1.4434e-08
-1.55405e-12
1.44343e-08
-1.095e-12
1.44343e-08
-7.48974e-13
1.44341e-08
-4.78291e-13
1.44339e-08
-2.67209e-13
1.44335e-08
-1.02717e-13
1.44331e-08
2.86765e-14
1.44326e-08
1.32768e-13
1.44321e-08
2.15695e-13
1.44316e-08
2.8134e-13
1.4431e-08
3.32921e-13
1.44304e-08
3.72559e-13
1.44299e-08
4.02696e-13
1.44293e-08
4.24622e-13
1.44287e-08
4.39674e-13
1.44281e-08
4.49133e-13
1.44276e-08
4.53869e-13
1.4427e-08
4.54623e-13
1.44265e-08
4.522e-13
1.4426e-08
4.47108e-13
1.44255e-08
4.39841e-13
1.4425e-08
4.30829e-13
1.44245e-08
4.2044e-13
1.4424e-08
4.0897e-13
1.44236e-08
3.96679e-13
1.44232e-08
3.83776e-13
1.44227e-08
3.70442e-13
1.44224e-08
3.56838e-13
1.4422e-08
3.43107e-13
1.44216e-08
3.29368e-13
1.44213e-08
3.15706e-13
1.44209e-08
3.02185e-13
1.44206e-08
2.8886e-13
1.44203e-08
2.75784e-13
1.442e-08
2.63008e-13
1.44198e-08
2.50574e-13
1.44195e-08
2.38506e-13
1.44193e-08
2.26816e-13
1.4419e-08
2.15511e-13
1.44188e-08
2.04599e-13
1.44186e-08
1.94091e-13
1.44184e-08
1.83994e-13
1.44182e-08
1.74304e-13
1.4418e-08
1.65015e-13
1.44179e-08
1.56115e-13
1.44177e-08
1.47598e-13
1.44175e-08
1.3946e-13
1.44174e-08
1.31697e-13
1.44173e-08
1.24301e-13
1.44171e-08
1.17261e-13
1.4417e-08
1.10563e-13
1.44169e-08
1.04192e-13
1.44168e-08
9.81381e-14
1.44167e-08
9.23887e-14
1.44166e-08
8.69335e-14
1.44165e-08
8.17617e-14
1.44164e-08
7.68626e-14
1.44163e-08
7.22256e-14
1.44162e-08
6.78397e-14
1.44162e-08
6.36935e-14
1.44161e-08
5.9777e-14
1.4416e-08
5.6078e-14
1.4416e-08
5.25873e-14
1.44159e-08
4.92934e-14
1.44158e-08
4.61886e-14
1.44158e-08
4.32635e-14
1.44158e-08
4.05114e-14
1.44157e-08
3.79246e-14
1.44157e-08
3.54954e-14
1.44156e-08
3.32161e-14
1.44156e-08
3.10769e-14
1.44156e-08
2.90715e-14
1.44155e-08
2.71904e-14
1.44155e-08
2.54293e-14
1.44155e-08
2.37808e-14
1.44154e-08
2.22417e-14
1.44154e-08
2.0805e-14
1.44154e-08
1.94677e-14
1.44154e-08
1.8222e-14
1.44153e-08
1.70667e-14
1.44153e-08
1.59927e-14
1.44153e-08
1.50015e-14
1.44153e-08
1.40853e-14
1.44153e-08
1.3239e-14
1.44153e-08
1.24748e-14
1.44152e-08
1.17466e-14
1.44152e-08
1.11411e-14
1.44152e-08
1.04929e-14
1.44152e-08
1.0066e-14
1.44152e-08
9.45971e-15
1.44152e-08
9.21977e-15
1.44152e-08
8.65496e-15
1.44152e-08
8.55356e-15
1.44151e-08
8.09463e-15
1.44151e-08
8.06049e-15
1.44151e-08
7.70273e-15
1.44151e-08
7.8877e-15
1.44151e-08
7.30338e-15
1.44151e-08
8.11118e-15
1.44151e-08
7.11649e-15
1.44151e-08
8.19781e-15
1.44151e-08
7.75132e-15
1.44151e-08
8.07278e-15
1.44151e-08
8.48515e-15
1.44151e-08
8.81623e-15
1.44151e-08
8.95308e-15
1.4415e-08
9.29367e-15
1.23106e-14
2.79878e-08
1.81522e-09
-2.78656e-08
2.83115e-08
2.42873e-09
2.85503e-08
2.88654e-09
2.86393e-08
3.05476e-09
2.86225e-08
3.05255e-09
2.85025e-08
2.96717e-09
2.82675e-08
2.81194e-09
2.79298e-08
2.59081e-09
2.75166e-08
2.32748e-09
2.70566e-08
2.05792e-09
2.65735e-08
1.8105e-09
2.60838e-08
1.5966e-09
2.55982e-08
1.41363e-09
2.51268e-08
1.25273e-09
2.468e-08
1.10764e-09
2.42644e-08
9.76914e-10
2.38826e-08
8.59005e-10
2.35351e-08
7.50254e-10
2.32228e-08
6.46724e-10
2.29468e-08
5.46245e-10
2.27079e-08
4.48617e-10
2.25058e-08
3.55046e-10
2.23395e-08
2.67082e-10
2.22069e-08
1.86985e-10
2.21058e-08
1.17761e-10
2.20329e-08
6.09767e-11
2.19843e-08
1.73631e-11
2.19558e-08
-1.34481e-11
2.19429e-08
-3.30862e-11
2.19413e-08
-4.34189e-11
2.1947e-08
-4.66433e-11
2.19567e-08
-4.49468e-11
2.19678e-08
-4.02316e-11
2.19786e-08
-3.40572e-11
2.19881e-08
-2.75263e-11
2.19957e-08
-2.13709e-11
2.20014e-08
-1.59957e-11
2.20053e-08
-1.15133e-11
2.20076e-08
-7.9488e-12
2.20087e-08
-5.18985e-12
2.20088e-08
-3.1286e-12
2.20082e-08
-1.57113e-12
2.20071e-08
-4.45828e-13
2.20056e-08
3.73911e-13
2.20039e-08
9.65587e-13
2.2002e-08
1.39405e-12
2.20001e-08
1.70151e-12
2.1998e-08
1.91926e-12
2.1996e-08
2.07147e-12
2.1994e-08
2.17397e-12
2.19919e-08
2.23861e-12
2.19899e-08
2.27399e-12
2.1988e-08
2.28641e-12
2.19861e-08
2.28069e-12
2.19842e-08
2.26065e-12
2.19824e-08
2.22919e-12
2.19807e-08
2.18866e-12
2.1979e-08
2.14104e-12
2.19773e-08
2.08792e-12
2.19758e-08
2.03059e-12
2.19743e-08
1.97018e-12
2.19728e-08
1.90758e-12
2.19714e-08
1.84355e-12
2.197e-08
1.77871e-12
2.19687e-08
1.71361e-12
2.19675e-08
1.64867e-12
2.19663e-08
1.58425e-12
2.19652e-08
1.52063e-12
2.19641e-08
1.45805e-12
2.19631e-08
1.39672e-12
2.19621e-08
1.33679e-12
2.19611e-08
1.2784e-12
2.19602e-08
1.22163e-12
2.19593e-08
1.16654e-12
2.19585e-08
1.11316e-12
2.19577e-08
1.06154e-12
2.1957e-08
1.01169e-12
2.19563e-08
9.63644e-13
2.19556e-08
9.17381e-13
2.19549e-08
8.72883e-13
2.19543e-08
8.30121e-13
2.19537e-08
7.89065e-13
2.19532e-08
7.49689e-13
2.19527e-08
7.1196e-13
2.19522e-08
6.75837e-13
2.19517e-08
6.41273e-13
2.19512e-08
6.08218e-13
2.19508e-08
5.76624e-13
2.19504e-08
5.46451e-13
2.195e-08
5.17657e-13
2.19496e-08
4.90201e-13
2.19493e-08
4.64035e-13
2.1949e-08
4.39108e-13
2.19487e-08
4.1537e-13
2.19484e-08
3.92772e-13
2.19481e-08
3.71269e-13
2.19478e-08
3.50819e-13
2.19476e-08
3.31382e-13
2.19473e-08
3.12919e-13
2.19471e-08
2.9539e-13
2.19469e-08
2.78753e-13
2.19467e-08
2.62968e-13
2.19465e-08
2.47997e-13
2.19463e-08
2.33802e-13
2.19462e-08
2.20349e-13
2.1946e-08
2.07607e-13
2.19459e-08
1.95543e-13
2.19457e-08
1.84126e-13
2.19456e-08
1.73328e-13
2.19455e-08
1.6312e-13
2.19453e-08
1.53473e-13
2.19452e-08
1.44363e-13
2.19451e-08
1.35761e-13
2.1945e-08
1.27643e-13
2.19449e-08
1.19982e-13
2.19448e-08
1.12759e-13
2.19448e-08
1.05951e-13
2.19447e-08
9.95391e-14
2.19446e-08
9.35035e-14
2.19445e-08
8.78265e-14
2.19445e-08
8.24887e-14
2.19444e-08
7.74762e-14
2.19444e-08
7.27687e-14
2.19443e-08
6.83558e-14
2.19443e-08
6.42221e-14
2.19442e-08
6.03444e-14
2.19442e-08
5.67445e-14
2.19441e-08
5.3328e-14
2.19441e-08
5.02481e-14
2.19441e-08
4.71993e-14
2.1944e-08
4.46557e-14
2.1944e-08
4.1872e-14
2.1944e-08
3.98742e-14
2.19439e-08
3.73154e-14
2.19439e-08
3.57645e-14
2.19439e-08
3.3546e-14
2.19439e-08
3.22365e-14
2.19438e-08
3.04198e-14
2.19438e-08
2.95369e-14
2.19438e-08
2.74736e-14
2.19438e-08
2.79587e-14
2.19437e-08
2.48933e-14
2.19437e-08
2.65061e-14
2.19437e-08
2.40577e-14
2.19437e-08
2.45036e-14
2.19437e-08
2.39862e-14
2.19437e-08
2.40502e-14
2.19437e-08
2.33496e-14
2.19436e-08
2.38398e-14
2.65326e-14
2.90068e-08
1.75782e-09
-2.89494e-08
2.92447e-08
2.19081e-09
2.95469e-08
2.58433e-09
2.98003e-08
2.80133e-09
3.00016e-08
2.85123e-09
3.01575e-08
2.8113e-09
3.02539e-08
2.7156e-09
3.02794e-08
2.56523e-09
3.02366e-08
2.37034e-09
3.0137e-08
2.15749e-09
2.99955e-08
1.95199e-09
2.98246e-08
1.76754e-09
2.96316e-08
1.60664e-09
2.94222e-08
1.46214e-09
2.92043e-08
1.32546e-09
2.89866e-08
1.1947e-09
2.87738e-08
1.07173e-09
2.85681e-08
9.55997e-10
2.83705e-08
8.4435e-10
2.81827e-08
7.34014e-10
2.80068e-08
6.2449e-10
2.78448e-08
5.17067e-10
2.76979e-08
4.13939e-10
2.75669e-08
3.18015e-10
2.74523e-08
2.32373e-10
2.73541e-08
1.59142e-10
2.72723e-08
9.91843e-11
2.72065e-08
5.2346e-11
2.71558e-08
1.76374e-11
2.71186e-08
-6.23181e-12
2.70929e-08
-2.09707e-11
2.70764e-08
-2.84444e-11
2.70667e-08
-3.04774e-11
2.70615e-08
-2.88627e-11
2.7059e-08
-2.50746e-11
2.70579e-08
-2.02413e-11
2.70571e-08
-1.52209e-11
2.70562e-08
-1.05429e-11
2.70547e-08
-6.46729e-12
2.70526e-08
-3.09912e-12
2.70499e-08
-4.57129e-13
2.70468e-08
1.56877e-12
2.70433e-08
3.05919e-12
2.70395e-08
4.12873e-12
2.70356e-08
4.87331e-12
2.70316e-08
5.37325e-12
2.70276e-08
5.69113e-12
2.70237e-08
5.87451e-12
2.70198e-08
5.95994e-12
2.7016e-08
5.97372e-12
2.70123e-08
5.93503e-12
2.70087e-08
5.8578e-12
2.70053e-08
5.75221e-12
2.70019e-08
5.62576e-12
2.69987e-08
5.48407e-12
2.69956e-08
5.33144e-12
2.69926e-08
5.17112e-12
2.69897e-08
5.00571e-12
2.6987e-08
4.83729e-12
2.69843e-08
4.66747e-12
2.69818e-08
4.49758e-12
2.69794e-08
4.32867e-12
2.69771e-08
4.16158e-12
2.69749e-08
3.997e-12
2.69727e-08
3.83548e-12
2.69707e-08
3.67743e-12
2.69688e-08
3.52319e-12
2.69669e-08
3.373e-12
2.69652e-08
3.22704e-12
2.69635e-08
3.08547e-12
2.69619e-08
2.94837e-12
2.69603e-08
2.8158e-12
2.69588e-08
2.68777e-12
2.69575e-08
2.56427e-12
2.69561e-08
2.44524e-12
2.69548e-08
2.33064e-12
2.69536e-08
2.22042e-12
2.69525e-08
2.1145e-12
2.69514e-08
2.01281e-12
2.69504e-08
1.91524e-12
2.69494e-08
1.82167e-12
2.69484e-08
1.732e-12
2.69475e-08
1.64613e-12
2.69467e-08
1.56395e-12
2.69459e-08
1.48534e-12
2.69451e-08
1.41018e-12
2.69444e-08
1.33835e-12
2.69437e-08
1.26974e-12
2.6943e-08
1.20423e-12
2.69424e-08
1.14172e-12
2.69418e-08
1.0821e-12
2.69412e-08
1.02527e-12
2.69407e-08
9.71121e-13
2.69402e-08
9.19534e-13
2.69397e-08
8.70408e-13
2.69393e-08
8.23639e-13
2.69388e-08
7.79133e-13
2.69384e-08
7.368e-13
2.6938e-08
6.96556e-13
2.69377e-08
6.58315e-13
2.69373e-08
6.21989e-13
2.6937e-08
5.8749e-13
2.69367e-08
5.54734e-13
2.69364e-08
5.23644e-13
2.69361e-08
4.94145e-13
2.69359e-08
4.66171e-13
2.69356e-08
4.39653e-13
2.69354e-08
4.14528e-13
2.69352e-08
3.90729e-13
2.6935e-08
3.68198e-13
2.69348e-08
3.46871e-13
2.69346e-08
3.26695e-13
2.69344e-08
3.07613e-13
2.69343e-08
2.89572e-13
2.69341e-08
2.72522e-13
2.6934e-08
2.56415e-13
2.69339e-08
2.41208e-13
2.69337e-08
2.26854e-13
2.69336e-08
2.13315e-13
2.69335e-08
2.00548e-13
2.69334e-08
1.88516e-13
2.69333e-08
1.77183e-13
2.69332e-08
1.66514e-13
2.69331e-08
1.56475e-13
2.6933e-08
1.47047e-13
2.69329e-08
1.38165e-13
2.69329e-08
1.29882e-13
2.69328e-08
1.22005e-13
2.69327e-08
1.14822e-13
2.69327e-08
1.07767e-13
2.69326e-08
1.01695e-13
2.69326e-08
9.52573e-14
2.69325e-08
9.03015e-14
2.69325e-08
8.438e-14
2.69324e-08
8.03624e-14
2.69324e-08
7.51322e-14
2.69323e-08
7.16783e-14
2.69323e-08
6.72427e-14
2.69323e-08
6.46063e-14
2.69322e-08
5.9926e-14
2.69322e-08
5.95434e-14
2.69322e-08
5.34803e-14
2.69322e-08
5.48706e-14
2.69321e-08
4.99354e-14
2.69321e-08
4.96829e-14
2.69321e-08
4.76249e-14
2.69321e-08
4.71483e-14
2.6932e-08
4.50249e-14
2.6932e-08
4.56237e-14
4.57742e-14
3.0041e-08
1.69794e-09
-2.99811e-08
3.02082e-08
2.02359e-09
3.04585e-08
2.33407e-09
3.07105e-08
2.54932e-09
3.09325e-08
2.62923e-09
3.11287e-08
2.61504e-09
3.12967e-08
2.54759e-09
3.14262e-08
2.4358e-09
3.15116e-08
2.28487e-09
3.15549e-08
2.11424e-09
3.15634e-08
1.94353e-09
3.15468e-08
1.78406e-09
3.15118e-08
1.64164e-09
3.14604e-08
1.51354e-09
3.13952e-08
1.3907e-09
3.13212e-08
1.26873e-09
3.12424e-08
1.15051e-09
3.11601e-08
1.03828e-09
3.10746e-08
9.29869e-10
3.09865e-08
8.22112e-10
3.08968e-08
7.14216e-10
3.08064e-08
6.07403e-10
3.07166e-08
5.03755e-10
3.06286e-08
4.05982e-10
3.05439e-08
3.17067e-10
3.04639e-08
2.39179e-10
3.03899e-08
1.73195e-10
3.03232e-08
1.19036e-10
3.02648e-08
7.60633e-11
3.02151e-08
4.34233e-11
3.01742e-08
1.99457e-11
3.01414e-08
4.35976e-12
3.01158e-08
-4.82957e-12
3.0096e-08
-9.08685e-12
3.00808e-08
-9.85622e-12
3.00689e-08
-8.35352e-12
3.00593e-08
-5.61637e-12
3.00511e-08
-2.40834e-12
3.00438e-08
8.14567e-13
3.00371e-08
3.6911e-12
3.00305e-08
6.08792e-12
3.00241e-08
7.97916e-12
3.00178e-08
9.38918e-12
3.00115e-08
1.03802e-11
3.00054e-08
1.10276e-11
2.99993e-08
1.14043e-11
2.99935e-08
1.1574e-11
2.99877e-08
1.15889e-11
2.99822e-08
1.14908e-11
2.99769e-08
1.13118e-11
2.99717e-08
1.10754e-11
2.99668e-08
1.07993e-11
2.9962e-08
1.04962e-11
2.99575e-08
1.01756e-11
2.99531e-08
9.84417e-12
2.9949e-08
9.50716e-12
2.9945e-08
9.16825e-12
2.99411e-08
8.83027e-12
2.99375e-08
8.49541e-12
2.9934e-08
8.16529e-12
2.99306e-08
7.84113e-12
2.99274e-08
7.52387e-12
2.99244e-08
7.21423e-12
2.99215e-08
6.91272e-12
2.99187e-08
6.61973e-12
2.9916e-08
6.3355e-12
2.99135e-08
6.06018e-12
2.99111e-08
5.79385e-12
2.99088e-08
5.53651e-12
2.99066e-08
5.28815e-12
2.99045e-08
5.0487e-12
2.99025e-08
4.81804e-12
2.99005e-08
4.59604e-12
2.98987e-08
4.38251e-12
2.9897e-08
4.17729e-12
2.98953e-08
3.98016e-12
2.98938e-08
3.79095e-12
2.98923e-08
3.60946e-12
2.98909e-08
3.43545e-12
2.98895e-08
3.26871e-12
2.98882e-08
3.10901e-12
2.9887e-08
2.95613e-12
2.98858e-08
2.80983e-12
2.98847e-08
2.66992e-12
2.98837e-08
2.53616e-12
2.98827e-08
2.40833e-12
2.98817e-08
2.28622e-12
2.98808e-08
2.16962e-12
2.988e-08
2.05832e-12
2.98792e-08
1.95213e-12
2.98784e-08
1.85086e-12
2.98777e-08
1.75431e-12
2.9877e-08
1.6623e-12
2.98763e-08
1.57465e-12
2.98757e-08
1.49117e-12
2.98751e-08
1.41168e-12
2.98746e-08
1.33602e-12
2.9874e-08
1.26404e-12
2.98735e-08
1.19558e-12
2.98731e-08
1.1305e-12
2.98726e-08
1.06866e-12
2.98722e-08
1.00991e-12
2.98718e-08
9.54109e-13
2.98714e-08
9.01118e-13
2.98711e-08
8.50814e-13
2.98707e-08
8.03086e-13
2.98704e-08
7.57818e-13
2.98701e-08
7.14904e-13
2.98698e-08
6.74232e-13
2.98695e-08
6.35701e-13
2.98693e-08
5.99205e-13
2.98691e-08
5.64653e-13
2.98688e-08
5.3195e-13
2.98686e-08
5.01008e-13
2.98684e-08
4.71747e-13
2.98682e-08
4.44082e-13
2.98681e-08
4.17942e-13
2.98679e-08
3.93249e-13
2.98677e-08
3.69935e-13
2.98676e-08
3.47929e-13
2.98674e-08
3.27169e-13
2.98673e-08
3.07592e-13
2.98672e-08
2.89143e-13
2.98671e-08
2.71757e-13
2.9867e-08
2.55411e-13
2.98669e-08
2.39981e-13
2.98668e-08
2.25577e-13
2.98667e-08
2.11849e-13
2.98666e-08
1.99301e-13
2.98665e-08
1.86973e-13
2.98664e-08
1.76287e-13
2.98664e-08
1.65019e-13
2.98663e-08
1.56199e-13
2.98663e-08
1.45803e-13
2.98662e-08
1.38592e-13
2.98661e-08
1.29269e-13
2.98661e-08
1.23142e-13
2.9866e-08
1.15006e-13
2.9866e-08
1.10229e-13
2.9866e-08
1.02016e-13
2.98659e-08
1.00183e-13
2.98659e-08
9.07222e-14
2.98658e-08
9.09681e-14
2.98658e-08
8.33221e-14
2.98658e-08
8.1834e-14
2.98657e-08
7.75194e-14
2.98657e-08
7.6469e-14
2.98657e-08
7.21928e-14
2.98657e-08
7.2622e-14
6.93104e-14
3.1072e-08
1.63157e-09
-3.10056e-08
3.12047e-08
1.89086e-09
3.1405e-08
2.13382e-09
3.16275e-08
2.32681e-09
3.18354e-08
2.4213e-09
3.20227e-08
2.42773e-09
3.21901e-08
2.38024e-09
3.23325e-08
2.29332e-09
3.24455e-08
2.17188e-09
3.25278e-08
2.03192e-09
3.25823e-08
1.88909e-09
3.26162e-08
1.75011e-09
3.26373e-08
1.62057e-09
3.2648e-08
1.50281e-09
3.26482e-08
1.39056e-09
3.26392e-08
1.27768e-09
3.26237e-08
1.16601e-09
3.26027e-08
1.05925e-09
3.25763e-08
9.56347e-10
3.25443e-08
8.54072e-10
3.2507e-08
7.51515e-10
3.24644e-08
6.49998e-10
3.24168e-08
5.51409e-10
3.23648e-08
4.579e-10
3.231e-08
3.71924e-10
3.22538e-08
2.95401e-10
3.21978e-08
2.29184e-10
3.21436e-08
1.73239e-10
3.20925e-08
1.27112e-10
3.20457e-08
9.02226e-11
3.20038e-08
6.18229e-11
3.19672e-08
4.10103e-11
3.19357e-08
2.66732e-11
3.1909e-08
1.76383e-11
3.18864e-08
1.26738e-11
3.18674e-08
1.06399e-11
3.18513e-08
1.05308e-11
3.18374e-08
1.15346e-11
3.18251e-08
1.30667e-11
3.18141e-08
1.4695e-11
3.1804e-08
1.61689e-11
3.17946e-08
1.73626e-11
3.17858e-08
1.82306e-11
3.17774e-08
1.87788e-11
3.17694e-08
1.90441e-11
3.17617e-08
1.90751e-11
3.17544e-08
1.89212e-11
3.17473e-08
1.86268e-11
3.17406e-08
1.82301e-11
3.17341e-08
1.77615e-11
3.1728e-08
1.72447e-11
3.17221e-08
1.66974e-11
3.17164e-08
1.61328e-11
3.1711e-08
1.55605e-11
3.17059e-08
1.49876e-11
3.1701e-08
1.44189e-11
3.16963e-08
1.3858e-11
3.16918e-08
1.33076e-11
3.16875e-08
1.27695e-11
3.16835e-08
1.2245e-11
3.16796e-08
1.17348e-11
3.16759e-08
1.12397e-11
3.16723e-08
1.07599e-11
3.16689e-08
1.02957e-11
3.16657e-08
9.84698e-12
3.16626e-08
9.41381e-12
3.16597e-08
8.99599e-12
3.16569e-08
8.59333e-12
3.16542e-08
8.20555e-12
3.16517e-08
7.8324e-12
3.16492e-08
7.47355e-12
3.16469e-08
7.12866e-12
3.16447e-08
6.79738e-12
3.16426e-08
6.47933e-12
3.16406e-08
6.17412e-12
3.16387e-08
5.88138e-12
3.16369e-08
5.60074e-12
3.16352e-08
5.33182e-12
3.16336e-08
5.07425e-12
3.1632e-08
4.82763e-12
3.16305e-08
4.5916e-12
3.16291e-08
4.36577e-12
3.16278e-08
4.1498e-12
3.16265e-08
3.94334e-12
3.16253e-08
3.74603e-12
3.16241e-08
3.55754e-12
3.16231e-08
3.37754e-12
3.1622e-08
3.20568e-12
3.1621e-08
3.04168e-12
3.16201e-08
2.88522e-12
3.16192e-08
2.736e-12
3.16184e-08
2.59376e-12
3.16176e-08
2.4582e-12
3.16168e-08
2.32906e-12
3.16161e-08
2.20605e-12
3.16154e-08
2.08893e-12
3.16148e-08
1.97744e-12
3.16142e-08
1.87134e-12
3.16136e-08
1.77043e-12
3.16131e-08
1.67449e-12
3.16126e-08
1.5833e-12
3.16121e-08
1.49665e-12
3.16116e-08
1.41433e-12
3.16112e-08
1.33614e-12
3.16108e-08
1.2619e-12
3.16104e-08
1.19144e-12
3.161e-08
1.12459e-12
3.16097e-08
1.06121e-12
3.16093e-08
1.00111e-12
3.1609e-08
9.44161e-13
3.16087e-08
8.90202e-13
3.16085e-08
8.39096e-13
3.16082e-08
7.90709e-13
3.1608e-08
7.44909e-13
3.16077e-08
7.01581e-13
3.16075e-08
6.60601e-13
3.16073e-08
6.21864e-13
3.16071e-08
5.85254e-13
3.16069e-08
5.50673e-13
3.16068e-08
5.18017e-13
3.16066e-08
4.87193e-13
3.16065e-08
4.58108e-13
3.16063e-08
4.30688e-13
3.16062e-08
4.04822e-13
3.16061e-08
3.80499e-13
3.16059e-08
3.57507e-13
3.16058e-08
3.36041e-13
3.16057e-08
3.15548e-13
3.16056e-08
2.96811e-13
3.16055e-08
2.78375e-13
3.16054e-08
2.62367e-13
3.16054e-08
2.45499e-13
3.16053e-08
2.32224e-13
3.16052e-08
2.16616e-13
3.16052e-08
2.05762e-13
3.16051e-08
1.9159e-13
3.1605e-08
1.82513e-13
3.1605e-08
1.69902e-13
3.16049e-08
1.62766e-13
3.16049e-08
1.50461e-13
3.16048e-08
1.46691e-13
3.16048e-08
1.33695e-13
3.16047e-08
1.32155e-13
3.16047e-08
1.21557e-13
3.16047e-08
1.18674e-13
3.16046e-08
1.11476e-13
3.16046e-08
1.09819e-13
3.16046e-08
1.02712e-13
3.16045e-08
1.02836e-13
9.6294e-14
3.21087e-08
1.56264e-09
-3.20397e-08
3.22228e-08
1.77668e-09
3.23857e-08
1.97097e-09
3.25765e-08
2.13605e-09
3.27651e-08
2.23266e-09
3.29387e-08
2.25416e-09
3.30949e-08
2.22405e-09
3.32307e-08
2.15751e-09
3.33436e-08
2.05892e-09
3.34334e-08
1.94216e-09
3.35005e-08
1.82202e-09
3.35487e-08
1.70185e-09
3.35853e-08
1.58395e-09
3.36147e-08
1.47346e-09
3.36364e-08
1.36882e-09
3.365e-08
1.26411e-09
3.36568e-08
1.15919e-09
3.36582e-08
1.05788e-09
3.36541e-08
9.60407e-10
3.36444e-08
8.63819e-10
3.3629e-08
7.66926e-10
3.36078e-08
6.71197e-10
3.35806e-08
5.78603e-10
3.35477e-08
4.90808e-10
3.351e-08
4.09551e-10
3.34691e-08
3.36366e-10
3.34262e-08
2.72041e-10
3.33829e-08
2.16612e-10
3.33402e-08
1.69758e-10
3.32993e-08
1.311e-10
3.3261e-08
1.00164e-10
3.32257e-08
7.62845e-11
3.31938e-08
5.8602e-11
3.31653e-08
4.61574e-11
3.314e-08
3.7911e-11
3.31178e-08
3.28484e-11
3.30983e-08
3.00567e-11
3.30811e-08
2.87633e-11
3.30658e-08
2.8368e-11
3.3052e-08
2.84212e-11
3.30396e-08
2.86202e-11
3.30282e-08
2.87816e-11
3.30176e-08
2.88081e-11
3.30077e-08
2.86592e-11
3.29984e-08
2.83334e-11
3.29896e-08
2.785e-11
3.29813e-08
2.72374e-11
3.29734e-08
2.65257e-11
3.29659e-08
2.57431e-11
3.29588e-08
2.49137e-11
3.2952e-08
2.40571e-11
3.29455e-08
2.31885e-11
3.29393e-08
2.23191e-11
3.29334e-08
2.14573e-11
3.29278e-08
2.0609e-11
3.29224e-08
1.97785e-11
3.29173e-08
1.89684e-11
3.29124e-08
1.81806e-11
3.29078e-08
1.74164e-11
3.29033e-08
1.66763e-11
3.28991e-08
1.59607e-11
3.28951e-08
1.52696e-11
3.28912e-08
1.46028e-11
3.28876e-08
1.39601e-11
3.28841e-08
1.33409e-11
3.28808e-08
1.2745e-11
3.28776e-08
1.21717e-11
3.28745e-08
1.16205e-11
3.28717e-08
1.10907e-11
3.28689e-08
1.05819e-11
3.28663e-08
1.00933e-11
3.28638e-08
9.62445e-12
3.28614e-08
9.17466e-12
3.28592e-08
8.74331e-12
3.2857e-08
8.32982e-12
3.28549e-08
7.93357e-12
3.2853e-08
7.554e-12
3.28511e-08
7.19053e-12
3.28494e-08
6.84261e-12
3.28477e-08
6.50966e-12
3.28461e-08
6.19115e-12
3.28446e-08
5.88655e-12
3.28431e-08
5.59534e-12
3.28417e-08
5.31703e-12
3.28404e-08
5.05113e-12
3.28392e-08
4.79717e-12
3.2838e-08
4.55468e-12
3.28369e-08
4.32322e-12
3.28358e-08
4.10235e-12
3.28348e-08
3.89166e-12
3.28339e-08
3.69075e-12
3.2833e-08
3.49922e-12
3.28321e-08
3.31669e-12
3.28313e-08
3.1428e-12
3.28305e-08
2.97717e-12
3.28298e-08
2.81946e-12
3.28291e-08
2.66933e-12
3.28285e-08
2.52646e-12
3.28278e-08
2.39056e-12
3.28273e-08
2.26133e-12
3.28267e-08
2.13849e-12
3.28262e-08
2.02175e-12
3.28257e-08
1.91084e-12
3.28252e-08
1.80548e-12
3.28248e-08
1.70542e-12
3.28243e-08
1.61046e-12
3.28239e-08
1.52034e-12
3.28236e-08
1.43488e-12
3.28232e-08
1.35384e-12
3.28229e-08
1.27702e-12
3.28226e-08
1.20422e-12
3.28223e-08
1.13526e-12
3.2822e-08
1.06996e-12
3.28217e-08
1.00813e-12
3.28215e-08
9.49629e-13
3.28213e-08
8.94284e-13
3.2821e-08
8.41955e-13
3.28208e-08
7.92489e-13
3.28206e-08
7.45751e-13
3.28204e-08
7.01602e-13
3.28203e-08
6.59918e-13
3.28201e-08
6.20572e-13
3.282e-08
5.83468e-13
3.28198e-08
5.48451e-13
3.28197e-08
5.15516e-13
3.28196e-08
4.8436e-13
3.28194e-08
4.55271e-13
3.28193e-08
4.27473e-13
3.28192e-08
4.02053e-13
3.28191e-08
3.77023e-13
3.2819e-08
3.55261e-13
3.28189e-08
3.32348e-13
3.28189e-08
3.1425e-13
3.28188e-08
2.93012e-13
3.28187e-08
2.78231e-13
3.28186e-08
2.58781e-13
3.28186e-08
2.46569e-13
3.28185e-08
2.29058e-13
3.28185e-08
2.19384e-13
3.28184e-08
2.02716e-13
3.28184e-08
1.96677e-13
3.28183e-08
1.80064e-13
3.28183e-08
1.76434e-13
3.28182e-08
1.62618e-13
3.28182e-08
1.5837e-13
3.28182e-08
1.4785e-13
3.28181e-08
1.45525e-13
3.28181e-08
1.35251e-13
3.28181e-08
1.35028e-13
1.25591e-13
3.31574e-08
1.49496e-09
-3.30897e-08
3.32586e-08
1.67544e-09
3.33951e-08
1.83453e-09
3.35582e-08
1.97289e-09
3.37268e-08
2.0641e-09
3.38859e-08
2.09501e-09
3.40308e-08
2.07923e-09
3.41581e-08
2.03019e-09
3.4266e-08
1.95105e-09
3.43552e-08
1.85289e-09
3.44263e-08
1.75097e-09
3.44801e-08
1.64806e-09
3.45217e-08
1.54233e-09
3.45565e-08
1.43865e-09
3.45851e-08
1.34024e-09
3.46059e-08
1.24327e-09
3.46196e-08
1.14547e-09
3.46278e-08
1.04966e-09
3.46309e-08
9.57343e-10
3.46285e-08
8.66259e-10
3.46205e-08
7.74854e-10
3.46072e-08
6.84523e-10
3.45883e-08
5.97512e-10
3.45638e-08
5.15275e-10
3.45345e-08
4.3889e-10
3.45014e-08
3.69414e-10
3.4466e-08
3.07535e-10
3.44292e-08
2.53376e-10
3.43922e-08
2.06748e-10
3.43559e-08
1.67424e-10
3.43209e-08
1.35111e-10
3.42879e-08
1.09321e-10
3.42571e-08
8.93657e-11
3.42289e-08
7.44319e-11
3.42031e-08
6.36264e-11
3.41799e-08
5.60554e-11
3.41591e-08
5.09025e-11
3.41404e-08
4.74633e-11
3.41236e-08
4.5169e-11
3.41084e-08
4.35831e-11
3.40946e-08
4.23908e-11
3.40821e-08
4.13811e-11
3.40704e-08
4.04232e-11
3.40597e-08
3.94434e-11
3.40496e-08
3.84081e-11
3.40401e-08
3.73097e-11
3.40312e-08
3.6155e-11
3.40228e-08
3.49574e-11
3.40148e-08
3.37331e-11
3.40072e-08
3.24973e-11
3.4e-08
3.12631e-11
3.39931e-08
3.00414e-11
3.39866e-08
2.88402e-11
3.39804e-08
2.76655e-11
3.39745e-08
2.65215e-11
3.39689e-08
2.54107e-11
3.39635e-08
2.43349e-11
3.39584e-08
2.32948e-11
3.39535e-08
2.22908e-11
3.39489e-08
2.13226e-11
3.39444e-08
2.03898e-11
3.39402e-08
1.94918e-11
3.39362e-08
1.86279e-11
3.39323e-08
1.77972e-11
3.39287e-08
1.69987e-11
3.39252e-08
1.62317e-11
3.39219e-08
1.5495e-11
3.39187e-08
1.47877e-11
3.39157e-08
1.4109e-11
3.39128e-08
1.34578e-11
3.39101e-08
1.28333e-11
3.39075e-08
1.22345e-11
3.3905e-08
1.16605e-11
3.39026e-08
1.11105e-11
3.39004e-08
1.05836e-11
3.38982e-08
1.0079e-11
3.38962e-08
9.5959e-12
3.38942e-08
9.1335e-12
3.38924e-08
8.69104e-12
3.38906e-08
8.26779e-12
3.3889e-08
7.86301e-12
3.38874e-08
7.47602e-12
3.38859e-08
7.10613e-12
3.38844e-08
6.7527e-12
3.38831e-08
6.41509e-12
3.38818e-08
6.09268e-12
3.38805e-08
5.78488e-12
3.38794e-08
5.4911e-12
3.38782e-08
5.21081e-12
3.38772e-08
4.94344e-12
3.38762e-08
4.68849e-12
3.38753e-08
4.44546e-12
3.38744e-08
4.21385e-12
3.38735e-08
3.99319e-12
3.38727e-08
3.78302e-12
3.38719e-08
3.5829e-12
3.38712e-08
3.39238e-12
3.38705e-08
3.21108e-12
3.38699e-08
3.03862e-12
3.38693e-08
2.87461e-12
3.38687e-08
2.7187e-12
3.38681e-08
2.57052e-12
3.38676e-08
2.42972e-12
3.38671e-08
2.29597e-12
3.38667e-08
2.16895e-12
3.38662e-08
2.04837e-12
3.38658e-08
1.93395e-12
3.38654e-08
1.82541e-12
3.38651e-08
1.72248e-12
3.38647e-08
1.6249e-12
3.38644e-08
1.53242e-12
3.38641e-08
1.4448e-12
3.38638e-08
1.36182e-12
3.38635e-08
1.28324e-12
3.38632e-08
1.20888e-12
3.3863e-08
1.13852e-12
3.38628e-08
1.07199e-12
3.38626e-08
1.00909e-12
3.38623e-08
9.49642e-13
3.38622e-08
8.93481e-13
3.3862e-08
8.40447e-13
3.38618e-08
7.90376e-13
3.38616e-08
7.43151e-13
3.38615e-08
6.98567e-13
3.38614e-08
6.56631e-13
3.38612e-08
6.16942e-13
3.38611e-08
5.79884e-13
3.3861e-08
5.44453e-13
3.38609e-08
5.1204e-13
3.38608e-08
4.80126e-13
3.38607e-08
4.52334e-13
3.38606e-08
4.23119e-13
3.38605e-08
3.99956e-13
3.38604e-08
3.72853e-13
3.38603e-08
3.53942e-13
3.38603e-08
3.28992e-13
3.38602e-08
3.13476e-13
3.38601e-08
2.90874e-13
3.38601e-08
2.78482e-13
3.386e-08
2.57341e-13
3.386e-08
2.48821e-13
3.38599e-08
2.28495e-13
3.38599e-08
2.22679e-13
3.38598e-08
2.05396e-13
3.38598e-08
1.99856e-13
3.38598e-08
1.85725e-13
3.38597e-08
1.82714e-13
3.38597e-08
1.69136e-13
3.38597e-08
1.68534e-13
1.56292e-13
3.42221e-08
1.43067e-09
-3.41578e-08
3.43132e-08
1.58433e-09
3.44312e-08
1.71654e-09
3.45717e-08
1.83243e-09
3.47206e-08
1.91517e-09
3.4865e-08
1.95065e-09
3.49991e-08
1.94508e-09
3.5119e-08
1.91028e-09
3.52215e-08
1.84862e-09
3.53076e-08
1.76677e-09
3.53793e-08
1.67921e-09
3.54367e-08
1.59072e-09
3.54817e-08
1.49731e-09
3.55189e-08
1.40148e-09
3.55499e-08
1.30926e-09
3.55734e-08
1.21971e-09
3.55897e-08
1.12924e-09
3.56003e-08
1.03899e-09