/*--------------------------------*- C++ -*----------------------------------*\
| =========                 |                                                 |
| \\      /  F ield         | OpenFOAM: The Open Source CFD Toolbox           |
|  \\    /   O peration     | Version:  2.3.0                                 |
|   \\  /    A nd           | Web:      www.OpenFOAM.org                      |
|    \\/     M anipulation  |                                                 |
\*---------------------------------------------------------------------------*/
FoamFile
{
    version     2.0;
    format      ascii;
    class       surfaceScalarField;
    location    "0.05";
    object      phi_0;
}
// * * * * * * * * * * * * * * * * * * * * * * * * * * * * * * * * * * * * * //

dimensions      [0 3 -1 0 0 0 0];

internalField   nonuniform List<scalar> 
11667
(
2.2704e-08
2.18593e-09
-2.48899e-08
2.00468e-08
2.65716e-09
1.74066e-08
2.64026e-09
1.49771e-08
2.42944e-09
1.27932e-08
2.18391e-09
1.09078e-08
1.88543e-09
9.36728e-09
1.54051e-09
8.166e-09
1.20128e-09
7.27128e-09
8.94721e-10
6.62824e-09
6.43041e-10
6.17231e-09
4.55924e-10
5.84742e-09
3.2489e-10
5.61247e-09
2.34953e-10
5.43707e-09
1.75402e-10
5.29928e-09
1.37793e-10
5.18561e-09
1.13663e-10
5.08965e-09
9.59669e-11
5.00923e-09
8.04199e-11
4.94362e-09
6.56055e-11
4.8927e-09
5.09259e-11
4.8564e-09
3.62976e-11
4.83453e-09
2.18668e-11
4.82711e-09
7.4234e-12
4.83054e-09
-3.43348e-12
4.84262e-09
-1.2084e-11
4.8605e-09
-1.78796e-11
4.88122e-09
-2.07191e-11
4.90237e-09
-2.11421e-11
4.92225e-09
-1.98876e-11
4.93988e-09
-1.76273e-11
4.95481e-09
-1.49254e-11
4.96701e-09
-1.21994e-11
4.97671e-09
-9.70641e-12
4.98429e-09
-7.57473e-12
4.99013e-09
-5.84147e-12
4.99461e-09
-4.48372e-12
4.99806e-09
-3.44626e-12
5.00072e-09
-2.66331e-12
5.0028e-09
-2.08284e-12
5.00446e-09
-1.65249e-12
5.00579e-09
-1.33327e-12
5.00688e-09
-1.08741e-12
5.00778e-09
-8.99968e-13
5.00853e-09
-7.53939e-13
5.00917e-09
-6.38233e-13
5.00971e-09
-5.41769e-13
5.01017e-09
-4.61845e-13
5.01057e-09
-3.96371e-13
5.01091e-09
-3.40184e-13
5.0112e-09
-2.93113e-13
5.01145e-09
-2.5219e-13
5.01167e-09
-2.17793e-13
5.01186e-09
-1.87549e-13
5.01202e-09
-1.62307e-13
5.01216e-09
-1.40157e-13
5.01228e-09
-1.21156e-13
5.01239e-09
-1.05008e-13
5.01248e-09
-9.10371e-14
5.01256e-09
-7.89328e-14
5.01263e-09
-6.8736e-14
5.01269e-09
-5.98768e-14
5.01274e-09
-5.23043e-14
5.01279e-09
-4.58293e-14
5.01283e-09
-4.02977e-14
5.01286e-09
-3.55511e-14
5.01289e-09
-3.15073e-14
5.01292e-09
-2.8054e-14
5.01295e-09
-2.51135e-14
5.01297e-09
-2.26153e-14
5.01299e-09
-2.04932e-14
5.01301e-09
-1.86876e-14
5.01302e-09
-1.71493e-14
5.01304e-09
-1.58409e-14
5.01306e-09
-1.47323e-14
5.01307e-09
-1.3795e-14
5.01308e-09
-1.30003e-14
5.01309e-09
-1.23214e-14
5.01311e-09
-1.17379e-14
5.01312e-09
-1.12363e-14
5.01313e-09
-1.08064e-14
5.01314e-09
-1.04371e-14
5.01315e-09
-1.01154e-14
5.01316e-09
-9.82905e-15
5.01317e-09
-9.56959e-15
5.01318e-09
-9.33318e-15
5.01319e-09
-9.11826e-15
5.0132e-09
-8.92242e-15
5.0132e-09
-8.74105e-15
5.01321e-09
-8.56849e-15
5.01322e-09
-8.40012e-15
5.01323e-09
-8.23375e-15
5.01324e-09
-8.06886e-15
5.01325e-09
-7.90561e-15
5.01325e-09
-7.74339e-15
5.01326e-09
-7.58211e-15
5.01327e-09
-7.4202e-15
5.01328e-09
-7.25751e-15
5.01328e-09
-7.09388e-15
5.01329e-09
-6.92966e-15
5.0133e-09
-6.76325e-15
5.0133e-09
-6.59523e-15
5.01331e-09
-6.4255e-15
5.01332e-09
-6.25365e-15
5.01332e-09
-6.0809e-15
5.01333e-09
-5.90715e-15
5.01333e-09
-5.73405e-15
5.01334e-09
-5.5608e-15
5.01334e-09
-5.38827e-15
5.01335e-09
-5.21501e-15
5.01335e-09
-5.04148e-15
5.01336e-09
-4.86721e-15
5.01336e-09
-4.69295e-15
5.01337e-09
-4.51953e-15
5.01337e-09
-4.34703e-15
5.01338e-09
-4.1765e-15
5.01338e-09
-4.00691e-15
5.01339e-09
-3.83905e-15
5.01339e-09
-3.6716e-15
5.01339e-09
-3.50587e-15
5.0134e-09
-3.34072e-15
5.0134e-09
-3.17796e-15
5.0134e-09
-3.01546e-15
5.0134e-09
-2.85566e-15
5.01341e-09
-2.69487e-15
5.01341e-09
-2.53623e-15
5.01341e-09
-2.3775e-15
5.01341e-09
-2.21617e-15
5.01342e-09
-2.06465e-15
5.01342e-09
-1.8923e-15
5.01342e-09
-1.75878e-15
5.01342e-09
-1.56158e-15
5.01342e-09
-1.45701e-15
5.01342e-09
-1.22727e-15
5.01343e-09
-1.14539e-15
5.01343e-09
-9.01821e-16
5.01343e-09
-8.09317e-16
5.01343e-09
-5.75446e-16
5.01343e-09
-4.81187e-16
5.01343e-09
-1.70127e-16
5.01343e-09
-2.24254e-16
5.01343e-09
3.20518e-16
5.01343e-09
1.28084e-16
5.01343e-09
5.97702e-16
5.01343e-09
8.55505e-16
5.01343e-09
7.57586e-16
5.01342e-09
1.40605e-15
5.01342e-09
1.48683e-15
5.01342e-09
1.70966e-15
5.01342e-09
1.96984e-15
3.55177e-15
2.69556e-08
1.92992e-09
-2.66996e-08
2.68657e-08
2.74705e-09
2.6382e-08
3.12401e-09
2.56642e-08
3.14721e-09
2.48094e-08
3.03872e-09
2.38498e-08
2.84501e-09
2.28189e-08
2.57145e-09
2.17729e-08
2.24728e-09
2.07583e-08
1.9093e-09
1.9807e-08
1.59437e-09
1.89381e-08
1.32479e-09
1.81598e-08
1.10323e-09
1.74726e-08
9.22101e-10
1.68743e-08
7.73683e-10
1.63596e-08
6.52501e-10
1.59204e-08
5.52867e-10
1.55485e-08
4.67871e-10
1.52368e-08
3.92168e-10
1.49802e-08
3.22221e-10
1.47746e-08
2.56483e-10
1.46162e-08
1.94739e-10
1.45008e-08
1.37191e-10
1.44232e-08
8.50886e-11
1.43797e-08
4.004e-11
1.4363e-08
4.64254e-12
1.43663e-08
-2.11818e-11
1.43829e-08
-3.73267e-11
1.4407e-08
-4.525e-11
1.4434e-08
-4.69019e-11
1.44606e-08
-4.42499e-11
1.44848e-08
-3.90863e-11
1.45054e-08
-3.28548e-11
1.45223e-08
-2.65533e-11
1.45355e-08
-2.08049e-11
1.45456e-08
-1.58999e-11
1.4553e-08
-1.19275e-11
1.45584e-08
-8.82518e-12
1.45622e-08
-6.44981e-12
1.45648e-08
-4.68299e-12
1.45665e-08
-3.37763e-12
1.45676e-08
-2.42259e-12
1.45682e-08
-1.70487e-12
1.45685e-08
-1.17703e-12
1.45685e-08
-7.81395e-13
1.45684e-08
-4.82126e-13
1.45681e-08
-2.45903e-13
1.45677e-08
-6.14721e-14
1.45672e-08
8.17111e-14
1.45667e-08
1.95243e-13
1.45661e-08
2.84883e-13
1.45655e-08
3.55552e-13
1.45648e-08
4.10443e-13
1.45642e-08
4.52635e-13
1.45636e-08
4.83835e-13
1.45629e-08
5.06428e-13
1.45623e-08
5.21555e-13
1.45616e-08
5.30424e-13
1.4561e-08
5.34252e-13
1.45604e-08
5.33868e-13
1.45598e-08
5.29905e-13
1.45592e-08
5.23142e-13
1.45587e-08
5.14047e-13
1.45581e-08
5.03074e-13
1.45576e-08
4.90621e-13
1.45571e-08
4.77033e-13
1.45566e-08
4.6258e-13
1.45561e-08
4.47498e-13
1.45556e-08
4.31982e-13
1.45552e-08
4.16196e-13
1.45548e-08
4.00291e-13
1.45544e-08
3.84395e-13
1.4554e-08
3.68613e-13
1.45536e-08
3.5302e-13
1.45533e-08
3.37671e-13
1.45529e-08
3.22615e-13
1.45526e-08
3.07903e-13
1.45523e-08
2.93579e-13
1.4552e-08
2.79675e-13
1.45517e-08
2.66207e-13
1.45515e-08
2.53182e-13
1.45512e-08
2.40605e-13
1.4551e-08
2.28485e-13
1.45508e-08
2.1683e-13
1.45505e-08
2.05639e-13
1.45503e-08
1.94907e-13
1.45501e-08
1.84621e-13
1.455e-08
1.7477e-13
1.45498e-08
1.65346e-13
1.45496e-08
1.56345e-13
1.45495e-08
1.4776e-13
1.45493e-08
1.3958e-13
1.45492e-08
1.3179e-13
1.4549e-08
1.24375e-13
1.45489e-08
1.17321e-13
1.45488e-08
1.10613e-13
1.45487e-08
1.04241e-13
1.45486e-08
9.81931e-14
1.45485e-08
9.2456e-14
1.45484e-08
8.70173e-14
1.45483e-08
8.18649e-14
1.45482e-08
7.69869e-14
1.45481e-08
7.2371e-14
1.45481e-08
6.80067e-14
1.4548e-08
6.38812e-14
1.45479e-08
5.99843e-14
1.45479e-08
5.63035e-14
1.45478e-08
5.28301e-14
1.45477e-08
4.95536e-14
1.45477e-08
4.64669e-14
1.45476e-08
4.35613e-14
1.45476e-08
4.08285e-14
1.45476e-08
3.82599e-14
1.45475e-08
3.58452e-14
1.45475e-08
3.35773e-14
1.45474e-08
3.14463e-14
1.45474e-08
2.94476e-14
1.45474e-08
2.75732e-14
1.45474e-08
2.58194e-14
1.45473e-08
2.41786e-14
1.45473e-08
2.26469e-14
1.45473e-08
2.12163e-14
1.45472e-08
1.98846e-14
1.45472e-08
1.86427e-14
1.45472e-08
1.74919e-14
1.45472e-08
1.64227e-14
1.45472e-08
1.54336e-14
1.45472e-08
1.45279e-14
1.45471e-08
1.36742e-14
1.45471e-08
1.29347e-14
1.45471e-08
1.21784e-14
1.45471e-08
1.16234e-14
1.45471e-08
1.09218e-14
1.45471e-08
1.05661e-14
1.45471e-08
9.90541e-15
1.45471e-08
9.71231e-15
1.4547e-08
9.1495e-15
1.4547e-08
9.03465e-15
1.4547e-08
8.60226e-15
1.4547e-08
8.65949e-15
1.4547e-08
8.06978e-15
1.4547e-08
8.73303e-15
1.4547e-08
7.65934e-15
1.4547e-08
8.78353e-15
1.4547e-08
8.07062e-15
1.4547e-08
8.47534e-15
1.4547e-08
8.80395e-15
1.4547e-08
8.99079e-15
1.45469e-08
9.06697e-15
1.45469e-08
9.44987e-15
1.23497e-14
2.79918e-08
1.80744e-09
-2.78693e-08
2.83165e-08
2.42231e-09
2.8557e-08
2.88347e-09
2.86479e-08
3.05631e-09
2.86307e-08
3.05596e-09
2.85082e-08
2.96757e-09
2.82726e-08
2.80703e-09
2.79382e-08
2.58163e-09
2.75302e-08
2.31738e-09
2.70744e-08
2.0501e-09
2.65939e-08
1.8053e-09
2.61055e-08
1.59163e-09
2.56217e-08
1.40591e-09
2.51543e-08
1.24107e-09
2.47136e-08
1.09318e-09
2.43052e-08
9.61331e-10
2.39303e-08
8.42713e-10
2.359e-08
7.3251e-10
2.32855e-08
6.26695e-10
2.30183e-08
5.23736e-10
2.27889e-08
4.2412e-10
2.25967e-08
3.29389e-10
2.24404e-08
2.41393e-10
2.23176e-08
1.62817e-10
2.22259e-08
9.63221e-11
2.21616e-08
4.31081e-11
2.21206e-08
3.65598e-12
2.20985e-08
-2.30872e-11
2.20905e-08
-3.89272e-11
2.20923e-08
-4.60368e-11
2.21e-08
-4.67611e-11
2.21104e-08
-4.33262e-11
2.21215e-08
-3.75637e-11
2.21316e-08
-3.09199e-11
2.214e-08
-2.43386e-11
2.21465e-08
-1.84032e-11
2.21511e-08
-1.33917e-11
2.21539e-08
-9.31472e-12
2.21554e-08
-6.15276e-12
2.21557e-08
-3.74248e-12
2.21553e-08
-1.9741e-12
2.21542e-08
-6.45716e-13
2.21528e-08
3.0214e-13
2.2151e-08
9.84898e-13
2.2149e-08
1.47463e-12
2.2147e-08
1.82628e-12
2.21448e-08
2.07524e-12
2.21427e-08
2.24745e-12
2.21405e-08
2.36324e-12
2.21383e-08
2.43634e-12
2.21362e-08
2.47663e-12
2.21341e-08
2.49136e-12
2.21321e-08
2.48603e-12
2.21301e-08
2.46479e-12
2.21282e-08
2.43107e-12
2.21263e-08
2.38746e-12
2.21245e-08
2.33603e-12
2.21228e-08
2.27861e-12
2.21211e-08
2.21663e-12
2.21195e-08
2.15125e-12
2.21179e-08
2.08349e-12
2.21164e-08
2.01416e-12
2.2115e-08
1.94395e-12
2.21136e-08
1.87341e-12
2.21123e-08
1.80305e-12
2.2111e-08
1.73323e-12
2.21098e-08
1.66427e-12
2.21086e-08
1.59642e-12
2.21075e-08
1.5299e-12
2.21064e-08
1.46487e-12
2.21054e-08
1.40148e-12
2.21045e-08
1.33984e-12
2.21035e-08
1.28001e-12
2.21026e-08
1.22203e-12
2.21018e-08
1.16593e-12
2.2101e-08
1.11173e-12
2.21002e-08
1.05946e-12
2.20995e-08
1.0091e-12
2.20988e-08
9.60652e-13
2.20981e-08
9.14072e-13
2.20975e-08
8.69331e-13
2.20969e-08
8.26396e-13
2.20964e-08
7.85234e-13
2.20958e-08
7.45807e-13
2.20953e-08
7.08065e-13
2.20948e-08
6.71954e-13
2.20943e-08
6.37423e-13
2.20939e-08
6.04423e-13
2.20935e-08
5.72911e-13
2.20931e-08
5.42843e-13
2.20927e-08
5.14172e-13
2.20924e-08
4.86844e-13
2.2092e-08
4.60806e-13
2.20917e-08
4.36006e-13
2.20914e-08
4.12394e-13
2.20911e-08
3.89923e-13
2.20909e-08
3.68552e-13
2.20906e-08
3.48236e-13
2.20904e-08
3.28935e-13
2.20901e-08
3.10605e-13
2.20899e-08
2.93202e-13
2.20897e-08
2.76684e-13
2.20895e-08
2.61014e-13
2.20893e-08
2.46153e-13
2.20892e-08
2.32067e-13
2.2089e-08
2.18721e-13
2.20888e-08
2.0608e-13
2.20887e-08
1.94114e-13
2.20886e-08
1.82791e-13
2.20884e-08
1.72083e-13
2.20883e-08
1.61959e-13
2.20882e-08
1.52395e-13
2.20881e-08
1.43359e-13
2.2088e-08
1.34828e-13
2.20879e-08
1.26775e-13
2.20878e-08
1.19177e-13
2.20877e-08
1.12013e-13
2.20876e-08
1.05261e-13
2.20876e-08
9.89022e-14
2.20875e-08
9.29169e-14
2.20874e-08
8.72856e-14
2.20874e-08
8.1993e-14
2.20873e-08
7.70186e-14
2.20873e-08
7.2352e-14
2.20872e-08
6.79743e-14
2.20872e-08
6.38689e-14
2.20871e-08
6.00427e-14
2.20871e-08
5.64257e-14
2.2087e-08
5.31301e-14
2.2087e-08
4.99095e-14
2.2087e-08
4.71565e-14
2.20869e-08
4.4224e-14
2.20869e-08
4.20331e-14
2.20869e-08
3.93243e-14
2.20868e-08
3.76229e-14
2.20868e-08
3.52303e-14
2.20868e-08
3.38013e-14
2.20868e-08
3.185e-14
2.20867e-08
3.07566e-14
2.20867e-08
2.87147e-14
2.20867e-08
2.88961e-14
2.20867e-08
2.57826e-14
2.20867e-08
2.74054e-14
2.20866e-08
2.4517e-14
2.20866e-08
2.51584e-14
2.20866e-08
2.44233e-14
2.20866e-08
2.42877e-14
2.20866e-08
2.35056e-14
2.20866e-08
2.40319e-14
2.64904e-14
2.9011e-08
1.75055e-09
-2.89541e-08
2.92485e-08
2.18488e-09
2.9551e-08
2.58096e-09
2.98066e-08
2.8007e-09
3.00098e-08
2.85271e-09
3.01649e-08
2.81249e-09
3.02595e-08
2.71246e-09
3.02854e-08
2.5557e-09
3.02454e-08
2.35741e-09
3.01494e-08
2.1461e-09
3.00106e-08
1.94409e-09
2.98406e-08
1.76155e-09
2.96476e-08
1.59897e-09
2.9439e-08
1.44968e-09
2.92241e-08
1.30802e-09
2.90109e-08
1.17451e-09
2.8803e-08
1.05061e-09
2.86017e-08
9.339e-10
2.84082e-08
8.20194e-10
2.82248e-08
7.07062e-10
2.8054e-08
5.94965e-10
2.78974e-08
4.85936e-10
2.77562e-08
3.82611e-10
2.76309e-08
2.88098e-10
2.75221e-08
2.05146e-10
2.74298e-08
1.35447e-10
2.73539e-08
7.95215e-11
2.7294e-08
3.6835e-11
2.72488e-08
6.23556e-12
2.72166e-08
-1.37919e-11
2.7195e-08
-2.51685e-11
2.71816e-08
-2.99086e-11
2.71739e-08
-2.98814e-11
2.71699e-08
-2.69005e-11
2.71679e-08
-2.23434e-11
2.71667e-08
-1.72121e-11
2.71655e-08
-1.22288e-11
2.7164e-08
-7.78658e-12
2.71619e-08
-4.06717e-12
2.71592e-08
-1.06488e-12
2.7156e-08
1.22029e-12
2.71524e-08
2.93671e-12
2.71486e-08
4.17048e-12
2.71445e-08
5.03334e-12
2.71404e-08
5.61607e-12
2.71362e-08
5.99079e-12
2.71321e-08
6.2122e-12
2.7128e-08
6.32087e-12
2.7124e-08
6.34777e-12
2.71202e-08
6.31516e-12
2.71164e-08
6.23904e-12
2.71127e-08
6.13103e-12
2.71092e-08
5.99966e-12
2.71058e-08
5.85128e-12
2.71026e-08
5.69069e-12
2.70995e-08
5.52159e-12
2.70964e-08
5.34678e-12
2.70936e-08
5.16853e-12
2.70908e-08
4.98867e-12
2.70881e-08
4.80858e-12
2.70856e-08
4.62943e-12
2.70831e-08
4.45214e-12
2.70808e-08
4.27742e-12
2.70786e-08
4.10588e-12
2.70764e-08
3.93798e-12
2.70744e-08
3.77407e-12
2.70724e-08
3.61442e-12
2.70706e-08
3.45923e-12
2.70688e-08
3.30864e-12
2.70671e-08
3.16275e-12
2.70655e-08
3.02164e-12
2.70639e-08
2.88532e-12
2.70625e-08
2.75377e-12
2.70611e-08
2.62697e-12
2.70597e-08
2.50483e-12
2.70585e-08
2.38732e-12
2.70572e-08
2.27434e-12
2.70561e-08
2.16583e-12
2.7055e-08
2.06167e-12
2.70539e-08
1.96176e-12
2.70529e-08
1.86598e-12
2.7052e-08
1.77421e-12
2.70511e-08
1.68635e-12
2.70502e-08
1.60227e-12
2.70494e-08
1.52185e-12
2.70486e-08
1.44497e-12
2.70479e-08
1.3715e-12
2.70472e-08
1.30132e-12
2.70465e-08
1.23432e-12
2.70459e-08
1.17039e-12
2.70453e-08
1.10942e-12
2.70448e-08
1.05129e-12
2.70442e-08
9.95899e-13
2.70437e-08
9.43128e-13
2.70432e-08
8.92868e-13
2.70428e-08
8.45016e-13
2.70424e-08
7.99477e-13
2.70419e-08
7.56161e-13
2.70416e-08
7.14978e-13
2.70412e-08
6.75838e-13
2.70408e-08
6.38651e-13
2.70405e-08
6.03327e-13
2.70402e-08
5.69782e-13
2.70399e-08
5.37939e-13
2.70396e-08
5.07723e-13
2.70394e-08
4.79066e-13
2.70391e-08
4.51895e-13
2.70389e-08
4.26147e-13
2.70387e-08
4.01751e-13
2.70385e-08
3.7865e-13
2.70383e-08
3.56779e-13
2.70381e-08
3.36083e-13
2.70379e-08
3.16504e-13
2.70378e-08
2.9799e-13
2.70376e-08
2.80489e-13
2.70375e-08
2.63951e-13
2.70373e-08
2.48333e-13
2.70372e-08
2.33587e-13
2.70371e-08
2.19673e-13
2.7037e-08
2.06548e-13
2.70369e-08
1.94174e-13
2.70368e-08
1.82515e-13
2.70367e-08
1.71534e-13
2.70366e-08
1.61199e-13
2.70365e-08
1.51482e-13
2.70364e-08
1.42334e-13
2.70363e-08
1.33781e-13
2.70363e-08
1.25672e-13
2.70362e-08
1.18225e-13
2.70361e-08
1.10977e-13
2.70361e-08
1.0464e-13
2.7036e-08
9.80403e-14
2.7036e-08
9.2836e-14
2.70359e-08
8.67439e-14
2.70359e-08
8.2542e-14
2.70359e-08
7.70907e-14
2.70358e-08
7.35031e-14
2.70358e-08
6.88981e-14
2.70357e-08
6.59796e-14
2.70357e-08
6.13755e-14
2.70357e-08
6.05523e-14
2.70356e-08
5.4465e-14
2.70356e-08
5.58778e-14
2.70356e-08
5.03392e-14
2.70356e-08
5.03735e-14
2.70355e-08
4.80273e-14
2.70355e-08
4.72831e-14
2.70355e-08
4.5081e-14
2.70355e-08
4.5706e-14
4.54982e-14
3.00452e-08
1.6915e-09
-2.99861e-08
3.02117e-08
2.01833e-09
3.04618e-08
2.3309e-09
3.07152e-08
2.54729e-09
3.09397e-08
2.62818e-09
3.11372e-08
2.61499e-09
3.13044e-08
2.54524e-09
3.1433e-08
2.42719e-09
3.15188e-08
2.2716e-09
3.15634e-08
2.10146e-09
3.15737e-08
1.93383e-09
3.15586e-08
1.77665e-09
3.15239e-08
1.63368e-09
3.14721e-08
1.50145e-09
3.14072e-08
1.37289e-09
3.13348e-08
1.24695e-09
3.1258e-08
1.12738e-09
3.11774e-08
1.01453e-09
3.10931e-08
9.04507e-10
3.1006e-08
7.94131e-10
3.09174e-08
6.83626e-10
3.08282e-08
5.75076e-10
3.07398e-08
4.7106e-10
3.06534e-08
3.74465e-10
3.05706e-08
2.87969e-10
3.04928e-08
2.13249e-10
3.04215e-08
1.50817e-10
3.0358e-08
1.00353e-10
3.03031e-08
6.11328e-11
3.02571e-08
3.21966e-11
3.02197e-08
1.22014e-11
3.01901e-08
-3.02121e-13
3.01671e-08
-6.89279e-12
3.01494e-08
-9.17407e-12
3.01356e-08
-8.56818e-12
3.01246e-08
-6.23336e-12
3.01155e-08
-3.10697e-12
3.01075e-08
1.9079e-13
3.01002e-08
3.24582e-12
3.00933e-08
5.87041e-12
3.00865e-08
7.96292e-12
3.00799e-08
9.55288e-12
3.00734e-08
1.06884e-11
3.0067e-08
1.14435e-11
3.00607e-08
1.18966e-11
3.00546e-08
1.21175e-11
3.00486e-08
1.21643e-11
3.00429e-08
1.20831e-11
3.00373e-08
1.191e-11
3.0032e-08
1.16719e-11
3.00268e-08
1.13886e-11
3.00219e-08
1.10748e-11
3.00171e-08
1.07409e-11
3.00126e-08
1.03947e-11
3.00082e-08
1.00419e-11
3.00041e-08
9.68657e-12
3.00001e-08
9.33194e-12
2.99963e-08
8.98032e-12
2.99926e-08
8.63352e-12
2.99891e-08
8.29286e-12
2.99858e-08
7.95936e-12
2.99826e-08
7.63379e-12
2.99796e-08
7.31668e-12
2.99767e-08
7.00846e-12
2.99739e-08
6.7094e-12
2.99713e-08
6.41966e-12
2.99687e-08
6.13933e-12
2.99663e-08
5.86841e-12
2.9964e-08
5.60687e-12
2.99618e-08
5.35464e-12
2.99598e-08
5.11162e-12
2.99578e-08
4.87765e-12
2.99559e-08
4.65258e-12
2.99541e-08
4.43619e-12
2.99523e-08
4.2283e-12
2.99507e-08
4.02868e-12
2.99491e-08
3.83713e-12
2.99476e-08
3.65343e-12
2.99462e-08
3.47734e-12
2.99449e-08
3.30864e-12
2.99436e-08
3.14709e-12
2.99424e-08
2.99245e-12
2.99412e-08
2.84449e-12
2.99401e-08
2.703e-12
2.99391e-08
2.56773e-12
2.99381e-08
2.43848e-12
2.99371e-08
2.315e-12
2.99362e-08
2.1971e-12
2.99354e-08
2.08456e-12
2.99346e-08
1.97719e-12
2.99338e-08
1.87478e-12
2.99331e-08
1.77716e-12
2.99324e-08
1.68412e-12
2.99318e-08
1.59547e-12
2.99311e-08
1.51104e-12
2.99305e-08
1.43064e-12
2.993e-08
1.35411e-12
2.99295e-08
1.2813e-12
2.9929e-08
1.21204e-12
2.99285e-08
1.14621e-12
2.99281e-08
1.08364e-12
2.99276e-08
1.02418e-12
2.99272e-08
9.67701e-13
2.99269e-08
9.14061e-13
2.99265e-08
8.63139e-13
2.99262e-08
8.1482e-13
2.99259e-08
7.68987e-13
2.99256e-08
7.25532e-13
2.99253e-08
6.84338e-13
2.9925e-08
6.45306e-13
2.99248e-08
6.08331e-13
2.99245e-08
5.73319e-13
2.99243e-08
5.40176e-13
2.99241e-08
5.08813e-13
2.99239e-08
4.79149e-13
2.99237e-08
4.51099e-13
2.99235e-08
4.2459e-13
2.99234e-08
3.99542e-13
2.99232e-08
3.75888e-13
2.9923e-08
3.53555e-13
2.99229e-08
3.32482e-13
2.99228e-08
3.12604e-13
2.99227e-08
2.93866e-13
2.99225e-08
2.76206e-13
2.99224e-08
2.59589e-13
2.99223e-08
2.43914e-13
2.99222e-08
2.29247e-13
2.99221e-08
2.1531e-13
2.99221e-08
2.02494e-13
2.9922e-08
1.90003e-13
2.99219e-08
1.79032e-13
2.99218e-08
1.67639e-13
2.99218e-08
1.58543e-13
2.99217e-08
1.48003e-13
2.99217e-08
1.40597e-13
2.99216e-08
1.31049e-13
2.99216e-08
1.24795e-13
2.99215e-08
1.16484e-13
2.99215e-08
1.11398e-13
2.99214e-08
1.03297e-13
2.99214e-08
1.00974e-13
2.99213e-08
9.14815e-14
2.99213e-08
9.17889e-14
2.99213e-08
8.34505e-14
2.99212e-08
8.22817e-14
2.99212e-08
7.76694e-14
2.99212e-08
7.63056e-14
2.99212e-08
7.19414e-14
2.99211e-08
7.23791e-14
6.86545e-14
3.1076e-08
1.62587e-09
-3.10104e-08
3.12085e-08
1.88584e-09
3.14088e-08
2.13065e-09
3.16319e-08
2.3242e-09
3.18417e-08
2.41838e-09
3.2031e-08
2.42565e-09
3.21989e-08
2.3774e-09
3.23405e-08
2.28551e-09
3.24527e-08
2.15946e-09
3.25347e-08
2.01945e-09
3.25897e-08
1.87882e-09
3.26251e-08
1.74124e-09
3.26474e-08
1.61135e-09
3.26582e-08
1.49065e-09
3.26577e-08
1.37339e-09
3.26484e-08
1.2563e-09
3.26328e-08
1.14291e-09
3.26118e-08
1.03556e-09
3.2585e-08
9.31289e-10
3.25525e-08
8.26695e-10
3.25143e-08
7.21817e-10
3.24706e-08
6.18783e-10
3.24218e-08
5.19873e-10
3.23689e-08
4.27354e-10
3.23134e-08
3.43437e-10
3.2257e-08
2.69611e-10
3.22015e-08
2.06393e-10
3.21482e-08
1.53582e-10
3.20987e-08
1.10697e-10
3.20538e-08
7.71158e-11
3.2014e-08
5.19688e-11
3.19795e-08
3.41937e-11
3.19501e-08
2.25443e-11
3.19252e-08
1.57113e-11
3.19042e-08
1.2417e-11
3.18864e-08
1.15364e-11
3.18712e-08
1.21268e-11
3.18579e-08
1.34739e-11
3.18461e-08
1.50698e-11
3.18353e-08
1.66024e-11
3.18254e-08
1.78837e-11
3.18161e-08
1.88454e-11
3.18073e-08
1.94778e-11
3.1799e-08
1.98086e-11
3.1791e-08
1.98853e-11
3.17833e-08
1.97591e-11
3.1776e-08
1.94776e-11
3.1769e-08
1.90817e-11
3.17623e-08
1.8605e-11
3.17559e-08
1.80736e-11
3.17498e-08
1.75073e-11
3.1744e-08
1.69209e-11
3.17384e-08
1.6325e-11
3.17331e-08
1.57275e-11
3.1728e-08
1.51338e-11
3.17231e-08
1.4548e-11
3.17185e-08
1.39729e-11
3.1714e-08
1.34104e-11
3.17098e-08
1.2862e-11
3.17058e-08
1.23286e-11
3.17019e-08
1.18109e-11
3.16982e-08
1.13092e-11
3.16947e-08
1.08236e-11
3.16914e-08
1.03543e-11
3.16882e-08
9.90123e-12
3.16851e-08
9.46414e-12
3.16822e-08
9.04285e-12
3.16795e-08
8.6371e-12
3.16768e-08
8.24657e-12
3.16743e-08
7.87093e-12
3.16719e-08
7.50985e-12
3.16696e-08
7.16295e-12
3.16675e-08
6.82983e-12
3.16654e-08
6.51011e-12
3.16634e-08
6.20337e-12
3.16615e-08
5.90923e-12
3.16597e-08
5.62729e-12
3.1658e-08
5.35717e-12
3.16564e-08
5.09848e-12
3.16549e-08
4.85082e-12
3.16534e-08
4.6138e-12
3.1652e-08
4.38706e-12
3.16507e-08
4.17022e-12
3.16494e-08
3.96294e-12
3.16482e-08
3.76486e-12
3.16471e-08
3.57563e-12
3.1646e-08
3.39491e-12
3.1645e-08
3.22238e-12
3.1644e-08
3.05773e-12
3.16431e-08
2.90065e-12
3.16422e-08
2.75085e-12
3.16414e-08
2.60804e-12
3.16406e-08
2.47194e-12
3.16398e-08
2.34226e-12
3.16391e-08
2.21875e-12
3.16385e-08
2.10113e-12
3.16378e-08
1.98915e-12
3.16372e-08
1.8826e-12
3.16367e-08
1.78125e-12
3.16361e-08
1.68489e-12
3.16356e-08
1.59328e-12
3.16351e-08
1.50623e-12
3.16347e-08
1.42351e-12
3.16342e-08
1.34494e-12
3.16338e-08
1.27033e-12
3.16335e-08
1.19952e-12
3.16331e-08
1.13234e-12
3.16327e-08
1.06862e-12
3.16324e-08
1.0082e-12
3.16321e-08
9.5094e-13
3.16318e-08
8.96678e-13
3.16316e-08
8.45278e-13
3.16313e-08
7.96608e-13
3.16311e-08
7.50535e-13
3.16308e-08
7.06944e-13
3.16306e-08
6.65709e-13
3.16304e-08
6.26725e-13
3.16302e-08
5.89876e-13
3.163e-08
5.55062e-13
3.16299e-08
5.22179e-13
3.16297e-08
4.91135e-13
3.16296e-08
4.61838e-13
3.16294e-08
4.34208e-13
3.16293e-08
4.08146e-13
3.16292e-08
3.83618e-13
3.16291e-08
3.60452e-13
3.16289e-08
3.38775e-13
3.16288e-08
3.18143e-13
3.16287e-08
2.9917e-13
3.16287e-08
2.80647e-13
3.16286e-08
2.64363e-13
3.16285e-08
2.4745e-13
3.16284e-08
2.33893e-13
3.16283e-08
2.18212e-13
3.16283e-08
2.07164e-13
3.16282e-08
1.92809e-13
3.16282e-08
1.83625e-13
3.16281e-08
1.70855e-13
3.16281e-08
1.63435e-13
3.1628e-08
1.5124e-13
3.1628e-08
1.47017e-13
3.16279e-08
1.33964e-13
3.16279e-08
1.32521e-13
3.16278e-08
1.21227e-13
3.16278e-08
1.18647e-13
3.16278e-08
1.11172e-13
3.16277e-08
1.09189e-13
3.16277e-08
1.01976e-13
3.16277e-08
1.02096e-13
9.51398e-14
3.21128e-08
1.55747e-09
-3.20444e-08
3.22269e-08
1.77179e-09
3.23899e-08
1.96761e-09
3.25811e-08
2.13305e-09
3.2771e-08
2.22849e-09
3.29464e-08
2.25017e-09
3.31036e-08
2.22025e-09
3.32389e-08
2.15024e-09
3.33508e-08
2.04748e-09
3.34399e-08
1.93037e-09
3.35069e-08
1.81185e-09
3.35561e-08
1.69203e-09
3.35942e-08
1.57323e-09
3.36242e-08
1.46064e-09
3.36453e-08
1.35232e-09
3.36577e-08
1.24391e-09
3.36635e-08
1.13707e-09
3.3664e-08
1.03502e-09
3.3659e-08
9.36309e-10
3.36481e-08
8.37653e-10
3.36311e-08
7.3877e-10
3.3608e-08
6.41877e-10
3.35787e-08
5.49153e-10
3.35439e-08
4.6224e-10
3.35046e-08
3.82694e-10
3.34625e-08
3.11741e-10
3.3419e-08
2.49907e-10
3.33754e-08
1.97113e-10
3.33331e-08
1.53041e-10
3.32929e-08
1.173e-10
3.32556e-08
8.93125e-11
3.32215e-08
6.82633e-11
3.31909e-08
5.31507e-11
3.31637e-08
4.28907e-11
3.31397e-08
3.63768e-11
3.31187e-08
3.25886e-11
3.31002e-08
3.06532e-11
3.30838e-08
2.98683e-11
3.30691e-08
2.97065e-11
3.30559e-08
2.98072e-11
3.30439e-08
2.99334e-11
3.30328e-08
2.9956e-11
3.30224e-08
2.9816e-11
3.30127e-08
2.94986e-11
3.30036e-08
2.90172e-11
3.2995e-08
2.83984e-11
3.29868e-08
2.76725e-11
3.2979e-08
2.68687e-11
3.29716e-08
2.60126e-11
3.29645e-08
2.51254e-11
3.29578e-08
2.42236e-11
3.29514e-08
2.33196e-11
3.29453e-08
2.24227e-11
3.29395e-08
2.15392e-11
3.2934e-08
2.06739e-11
3.29287e-08
1.98297e-11
3.29236e-08
1.90088e-11
3.29188e-08
1.82124e-11
3.29143e-08
1.74412e-11
3.29099e-08
1.66955e-11
3.29057e-08
1.59753e-11
3.29018e-08
1.52805e-11
3.2898e-08
1.46108e-11
3.28944e-08
1.39657e-11
3.28909e-08
1.33447e-11
3.28876e-08
1.27473e-11
3.28845e-08
1.21729e-11
3.28815e-08
1.16208e-11
3.28787e-08
1.10904e-11
3.2876e-08
1.05811e-11
3.28734e-08
1.00923e-11
3.28709e-08
9.62326e-12
3.28686e-08
9.1734e-12
3.28663e-08
8.74208e-12
3.28642e-08
8.32867e-12
3.28622e-08
7.93256e-12
3.28603e-08
7.55316e-12
3.28584e-08
7.18989e-12
3.28567e-08
6.84218e-12
3.2855e-08
6.50946e-12
3.28535e-08
6.19119e-12
3.2852e-08
5.88682e-12
3.28505e-08
5.59585e-12
3.28492e-08
5.31777e-12
3.28479e-08
5.0521e-12
3.28467e-08
4.79835e-12
3.28455e-08
4.55606e-12
3.28444e-08
4.32479e-12
3.28434e-08
4.1041e-12
3.28424e-08
3.89357e-12
3.28414e-08
3.69281e-12
3.28405e-08
3.50142e-12
3.28397e-08
3.31902e-12
3.28389e-08
3.14523e-12
3.28381e-08
2.9797e-12
3.28374e-08
2.82207e-12
3.28367e-08
2.672e-12
3.28361e-08
2.52919e-12
3.28355e-08
2.39333e-12
3.28349e-08
2.26415e-12
3.28343e-08
2.14133e-12
3.28338e-08
2.02461e-12
3.28333e-08
1.91369e-12
3.28329e-08
1.80832e-12
3.28324e-08
1.70825e-12
3.2832e-08
1.61327e-12
3.28316e-08
1.52313e-12
3.28312e-08
1.43763e-12
3.28309e-08
1.35655e-12
3.28306e-08
1.27969e-12
3.28303e-08
1.20684e-12
3.283e-08
1.13782e-12
3.28297e-08
1.07245e-12
3.28294e-08
1.01056e-12
3.28292e-08
9.51995e-13
3.2829e-08
8.96582e-13
3.28287e-08
8.44182e-13
3.28285e-08
7.9464e-13
3.28283e-08
7.47823e-13
3.28282e-08
7.03592e-13
3.2828e-08
6.61824e-13
3.28278e-08
6.22393e-13
3.28277e-08
5.85198e-13
3.28275e-08
5.50098e-13
3.28274e-08
5.17059e-13
3.28273e-08
4.85832e-13
3.28272e-08
4.56613e-13
3.2827e-08
4.28775e-13
3.28269e-08
4.03175e-13
3.28268e-08
3.7816e-13
3.28268e-08
3.56152e-13
3.28267e-08
3.33301e-13
3.28266e-08
3.14931e-13
3.28265e-08
2.93718e-13
3.28264e-08
2.78752e-13
3.28264e-08
2.5919e-13
3.28263e-08
2.46897e-13
3.28263e-08
2.29257e-13
3.28262e-08
2.19358e-13
3.28261e-08
2.0278e-13
3.28261e-08
1.96369e-13
3.28261e-08
1.79675e-13
3.2826e-08
1.76165e-13
3.2826e-08
1.61706e-13
3.28259e-08
1.5772e-13
3.28259e-08
1.46951e-13
3.28259e-08
1.44318e-13
3.28258e-08
1.33919e-13
3.28258e-08
1.33688e-13
1.23845e-13
3.31616e-08
1.49018e-09
-3.30943e-08
3.32628e-08
1.67066e-09
3.33996e-08
1.83071e-09
3.35633e-08
1.96938e-09
3.37325e-08
2.0593e-09
3.3893e-08
2.08972e-09
3.40388e-08
2.07437e-09
3.4166e-08
2.02312e-09
3.42731e-08
1.94038e-09
3.43618e-08
1.84163e-09
3.44326e-08
1.74107e-09
3.44868e-08
1.63785e-09
3.45296e-08
1.5304e-09
3.45653e-08
1.42496e-09
3.45934e-08
1.32422e-09
3.46129e-08
1.22443e-09
3.46253e-08
1.12466e-09
3.46324e-08
1.0279e-09
3.46343e-08
9.34391e-10
3.46305e-08
8.41448e-10
3.4621e-08
7.48319e-10
3.46057e-08
6.57143e-10
3.45846e-08
5.70235e-10
3.4558e-08
4.88852e-10
3.45268e-08
4.13895e-10
3.44923e-08
3.4624e-10
3.44558e-08
2.86415e-10
3.44184e-08
2.34476e-10
3.43812e-08
1.9025e-10
3.4345e-08
1.53504e-10
3.43105e-08
1.23848e-10
3.42781e-08
1.00649e-10
3.42482e-08
8.30791e-11
3.42209e-08
7.0211e-11
3.41961e-08
6.10861e-11
3.41739e-08
5.47986e-11
3.4154e-08
5.05604e-11
3.41362e-08
4.77207e-11
3.41201e-08
4.57725e-11
3.41056e-08
4.43478e-11
3.40923e-08
4.31894e-11
3.40801e-08
4.21339e-11
3.40689e-08
4.10864e-11
3.40584e-08
3.99987e-11
3.40485e-08
3.88542e-11
3.40393e-08
3.76549e-11
3.40305e-08
3.64124e-11
3.40223e-08
3.51416e-11
3.40144e-08
3.3858e-11
3.4007e-08
3.25754e-11
3.39999e-08
3.1305e-11
3.39931e-08
3.00555e-11
3.39867e-08
2.88334e-11
3.39806e-08
2.7643e-11
3.39748e-08
2.64874e-11
3.39693e-08
2.53682e-11
3.3964e-08
2.42863e-11
3.3959e-08
2.32421e-11
3.39542e-08
2.22354e-11
3.39496e-08
2.12656e-11
3.39453e-08
2.03321e-11
3.39411e-08
1.94341e-11
3.39371e-08
1.85707e-11
3.39334e-08
1.77409e-11
3.39298e-08
1.69437e-11
3.39263e-08
1.61781e-11
3.39231e-08
1.54431e-11
3.39199e-08
1.47376e-11
3.3917e-08
1.40608e-11
3.39141e-08
1.34116e-11
3.39114e-08
1.2789e-11
3.39089e-08
1.21922e-11
3.39064e-08
1.16203e-11
3.39041e-08
1.10723e-11
3.39019e-08
1.05473e-11
3.38998e-08
1.00447e-11
3.38978e-08
9.56341e-12
3.38958e-08
9.10283e-12
3.3894e-08
8.66213e-12
3.38923e-08
8.24058e-12
3.38907e-08
7.83744e-12
3.38891e-08
7.45202e-12
3.38876e-08
7.08365e-12
3.38862e-08
6.73166e-12
3.38848e-08
6.39542e-12
3.38836e-08
6.07432e-12
3.38824e-08
5.76776e-12
3.38812e-08
5.47517e-12
3.38801e-08
5.196e-12
3.38791e-08
4.9297e-12
3.38781e-08
4.67576e-12
3.38772e-08
4.43367e-12
3.38763e-08
4.20295e-12
3.38754e-08
3.98314e-12
3.38746e-08
3.77376e-12
3.38739e-08
3.57437e-12
3.38732e-08
3.38455e-12
3.38725e-08
3.2039e-12
3.38719e-08
3.03205e-12
3.38713e-08
2.86862e-12
3.38707e-08
2.71324e-12
3.38701e-08
2.56555e-12
3.38696e-08
2.42521e-12
3.38692e-08
2.29187e-12
3.38687e-08
2.16524e-12
3.38683e-08
2.04503e-12
3.38679e-08
1.93095e-12
3.38675e-08
1.82272e-12
3.38671e-08
1.72008e-12
3.38668e-08
1.62276e-12
3.38664e-08
1.53052e-12
3.38661e-08
1.44311e-12
3.38658e-08
1.36033e-12
3.38656e-08
1.28193e-12
3.38653e-08
1.20774e-12
3.38651e-08
1.13753e-12
3.38649e-08
1.07113e-12
3.38646e-08
1.00834e-12
3.38644e-08
9.48994e-13
3.38642e-08
8.92919e-13
3.38641e-08
8.39958e-13
3.38639e-08
7.89952e-13
3.38637e-08
7.42774e-13
3.38636e-08
6.98241e-13
3.38635e-08
6.56319e-13
3.38633e-08
6.16679e-13
3.38632e-08
5.79587e-13
3.38631e-08
5.44231e-13
3.3863e-08
5.11709e-13
3.38629e-08
4.79927e-13
3.38628e-08
4.5193e-13
3.38627e-08
4.22896e-13
3.38626e-08
3.9948e-13
3.38625e-08
3.72514e-13
3.38625e-08
3.53432e-13
3.38624e-08
3.28455e-13
3.38623e-08
3.12892e-13
3.38623e-08
2.90196e-13
3.38622e-08
2.77653e-13
3.38621e-08
2.56579e-13
3.38621e-08
2.47782e-13
3.3862e-08
2.27363e-13
3.3862e-08
2.21675e-13
3.3862e-08
2.0383e-13
3.38619e-08
1.98506e-13
3.38619e-08
1.84153e-13
3.38618e-08
1.80871e-13
3.38618e-08
1.67143e-13
3.38618e-08
1.66535e-13
1.53895e-13
3.42264e-08
1.42605e-09
-3.41623e-08
3.43176e-08
1.57947e-09
3.44361e-08
1.71222e-09
3.45769e-08
1.8285e-09
3.47261e-08
1.91011e-09
3.48714e-08
1.94443e-09
3.50067e-08
1.93909e-09
3.51265e-08
1.90328e-09
3.52282e-08
1.83878e-09
3.53139e-08
1.75586e-09
3.53857e-08
1.66924e-09
3.54433e-08
1.58028e-09
3.5489e-08
1.48473e-09
3.55267e-08
1.3872e-09
3.55573e-08
1.29364e-09
3.55796e-08
1.20213e-09
3.55946e-08
1.1097e-09
3.56043e-08