/*--------------------------------*- C++ -*----------------------------------*\
| =========                 |                                                 |
| \\      /  F ield         | OpenFOAM: The Open Source CFD Toolbox           |
|  \\    /   O peration     | Version:  2.3.0                                 |
|   \\  /    A nd           | Web:      www.OpenFOAM.org                      |
|    \\/     M anipulation  |                                                 |
\*---------------------------------------------------------------------------*/
FoamFile
{
    version     2.0;
    format      ascii;
    class       volVectorField;
    location    "0.05";
    object      U_0;
}
// * * * * * * * * * * * * * * * * * * * * * * * * * * * * * * * * * * * * * //

dimensions      [0 1 -1 0 0 0 0];

internalField   nonuniform List<vector> 
5940
(
(0.172966 0.00499137 0)
(0.151903 0.00674241 0)
(0.133751 0.00703118 0)
(0.116553 0.00639583 0)
(0.100041 0.00542017 0)
(0.0850483 0.00433353 0)
(0.07253 0.00322649 0)
(0.0627343 0.00213816 0)
(0.0553701 0.00119888 0)
(0.0499731 0.000534977 0)
(0.0460925 0.000148579 0)
(0.0433191 -4.14091e-05 0)
(0.0413206 -0.000111313 0)
(0.0398524 -0.000113266 0)
(0.0387324 -8.8433e-05 0)
(0.0378321 -6.27754e-05 0)
(0.0370818 -4.12538e-05 0)
(0.0364495 -2.16743e-05 0)
(0.0359257 -7.36626e-06 0)
(0.0355087 3.90284e-07 0)
(0.0351975 3.07143e-06 0)
(0.0349918 2.11526e-06 0)
(0.0348895 -1.26396e-06 0)
(0.0348794 -1.5293e-05 0)
(0.0349394 -2.60341e-05 0)
(0.0350508 -3.11155e-05 0)
(0.0351928 -3.20403e-05 0)
(0.0353459 -3.0192e-05 0)
(0.0354952 -2.6792e-05 0)
(0.0356313 -2.27798e-05 0)
(0.035749 -1.88264e-05 0)
(0.0358468 -1.52748e-05 0)
(0.0359257 -1.22491e-05 0)
(0.0359877 -9.77787e-06 0)
(0.0360359 -7.80182e-06 0)
(0.0360729 -6.24556e-06 0)
(0.0361013 -5.05216e-06 0)
(0.0361232 -4.1365e-06 0)
(0.0361402 -3.43983e-06 0)
(0.0361536 -2.90519e-06 0)
(0.0361643 -2.49332e-06 0)
(0.036173 -2.15529e-06 0)
(0.0361801 -1.88805e-06 0)
(0.0361861 -1.67558e-06 0)
(0.0361911 -1.49915e-06 0)
(0.0361953 -1.34413e-06 0)
(0.0361989 -1.21317e-06 0)
(0.036202 -1.09837e-06 0)
(0.0362047 -1.00007e-06 0)
(0.036207 -9.11409e-07 0)
(0.0362089 -8.34726e-07 0)
(0.0362106 -7.64791e-07 0)
(0.0362121 -7.04589e-07 0)
(0.0362134 -6.48374e-07 0)
(0.0362145 -5.98651e-07 0)
(0.0362154 -5.54745e-07 0)
(0.0362162 -5.14291e-07 0)
(0.0362169 -4.7797e-07 0)
(0.0362175 -4.45753e-07 0)
(0.0362181 -4.1561e-07 0)
(0.0362185 -3.88343e-07 0)
(0.0362189 -3.6352e-07 0)
(0.0362193 -3.40771e-07 0)
(0.0362196 -3.19893e-07 0)
(0.0362199 -3.00782e-07 0)
(0.0362201 -2.83116e-07 0)
(0.0362203 -2.66768e-07 0)
(0.0362205 -2.51619e-07 0)
(0.0362207 -2.37548e-07 0)
(0.0362209 -2.24446e-07 0)
(0.036221 -2.12217e-07 0)
(0.0362211 -2.00781e-07 0)
(0.0362212 -1.90076e-07 0)
(0.0362214 -1.80041e-07 0)
(0.0362215 -1.7062e-07 0)
(0.0362216 -1.61757e-07 0)
(0.0362216 -1.53403e-07 0)
(0.0362217 -1.4552e-07 0)
(0.0362218 -1.38079e-07 0)
(0.0362219 -1.31052e-07 0)
(0.036222 -1.24411e-07 0)
(0.036222 -1.18121e-07 0)
(0.0362221 -1.12155e-07 0)
(0.0362222 -1.0649e-07 0)
(0.0362223 -1.01111e-07 0)
(0.0362223 -9.60052e-08 0)
(0.0362224 -9.11606e-08 0)
(0.0362225 -8.65605e-08 0)
(0.0362225 -8.21878e-08 0)
(0.0362226 -7.80263e-08 0)
(0.0362226 -7.40638e-08 0)
(0.0362227 -7.0291e-08 0)
(0.0362228 -6.67003e-08 0)
(0.0362228 -6.32834e-08 0)
(0.0362229 -6.00291e-08 0)
(0.0362229 -5.69307e-08 0)
(0.036223 -5.39804e-08 0)
(0.036223 -5.11698e-08 0)
(0.0362231 -4.84917e-08 0)
(0.0362231 -4.59473e-08 0)
(0.0362232 -4.35256e-08 0)
(0.0362232 -4.12199e-08 0)
(0.0362233 -3.90248e-08 0)
(0.0362233 -3.69366e-08 0)
(0.0362234 -3.49498e-08 0)
(0.0362234 -3.30612e-08 0)
(0.0362234 -3.12642e-08 0)
(0.0362235 -2.95553e-08 0)
(0.0362235 -2.7928e-08 0)
(0.0362236 -2.63797e-08 0)
(0.0362236 -2.49061e-08 0)
(0.0362236 -2.35055e-08 0)
(0.0362237 -2.21745e-08 0)
(0.0362237 -2.09098e-08 0)
(0.0362237 -1.97081e-08 0)
(0.0362238 -1.85644e-08 0)
(0.0362238 -1.7477e-08 0)
(0.0362238 -1.64419e-08 0)
(0.0362238 -1.54585e-08 0)
(0.0362239 -1.45228e-08 0)
(0.0362239 -1.36349e-08 0)
(0.0362239 -1.27892e-08 0)
(0.0362239 -1.19865e-08 0)
(0.036224 -1.12198e-08 0)
(0.036224 -1.04913e-08 0)
(0.036224 -9.7957e-09 0)
(0.036224 -9.13008e-09 0)
(0.036224 -8.50366e-09 0)
(0.036224 -7.88544e-09 0)
(0.036224 -7.33221e-09 0)
(0.0362241 -6.74055e-09 0)
(0.0362241 -6.26556e-09 0)
(0.0362241 -5.68729e-09 0)
(0.0362241 -5.27853e-09 0)
(0.0362241 -4.7281e-09 0)
(0.0362241 -4.34535e-09 0)
(0.0362241 -3.84186e-09 0)
(0.0362241 -3.4903e-09 0)
(0.0362241 -2.94007e-09 0)
(0.0362241 -2.77424e-09 0)
(0.0362241 -2.01423e-09 0)
(0.0362241 -2.00853e-09 0)
(0.0362241 -1.39591e-09 0)
(0.0362241 -8.53725e-10 0)
(0.0362241 -1.0025e-09 0)
(0.0362241 1.98795e-11 0)
(0.0362241 1.30043e-10 0)
(0.0362241 5.60545e-10 0)
(0.0362241 1.38993e-09 0)
(0.036224 2.99743e-09 0)
(0.190269 0.0089203 0)
(0.188306 0.0122572 0)
(0.18585 0.0135781 0)
(0.182375 0.0134815 0)
(0.177396 0.0127385 0)
(0.171013 0.0116033 0)
(0.163846 0.0101792 0)
(0.156495 0.00857937 0)
(0.149304 0.00692865 0)
(0.142415 0.00538312 0)
(0.135991 0.00408578 0)
(0.130164 0.00307197 0)
(0.124971 0.00229922 0)
(0.120422 0.00172998 0)
(0.116506 0.00133078 0)
(0.113162 0.00104588 0)
(0.110328 0.000825178 0)
(0.107943 0.000645486 0)
(0.10596 0.000493029 0)
(0.104349 0.000358771 0)
(0.103083 0.000238379 0)
(0.102134 0.000132816 0)
(0.101466 4.10173e-05 0)
(0.10105 -4.30846e-05 0)
(0.100848 -0.000107953 0)
(0.10081 -0.000145928 0)
(0.100888 -0.00015951 0)
(0.101038 -0.000155371 0)
(0.101223 -0.00014029 0)
(0.101416 -0.000119792 0)
(0.101596 -9.80547e-05 0)
(0.101755 -7.78261e-05 0)
(0.101887 -6.03901e-05 0)
(0.101993 -4.61184e-05 0)
(0.102074 -3.49426e-05 0)
(0.102135 -2.64144e-05 0)
(0.102179 -2.00288e-05 0)
(0.102211 -1.53125e-05 0)
(0.102233 -1.18478e-05 0)
(0.102248 -9.27647e-06 0)
(0.102257 -7.38555e-06 0)
(0.102263 -5.92555e-06 0)
(0.102266 -4.80084e-06 0)
(0.102267 -3.92077e-06 0)
(0.102267 -3.21617e-06 0)
(0.102265 -2.65617e-06 0)
(0.102262 -2.20604e-06 0)
(0.102259 -1.82476e-06 0)
(0.102256 -1.5057e-06 0)
(0.102252 -1.23577e-06 0)
(0.102248 -1.00977e-06 0)
(0.102243 -8.17696e-07 0)
(0.102239 -6.5763e-07 0)
(0.102234 -5.21651e-07 0)
(0.10223 -4.07109e-07 0)
(0.102225 -3.12069e-07 0)
(0.102221 -2.32254e-07 0)
(0.102216 -1.65813e-07 0)
(0.102212 -1.11572e-07 0)
(0.102208 -6.63652e-08 0)
(0.102204 -2.94511e-08 0)
(0.1022 3.42236e-10 0)
(0.102196 2.41732e-08 0)
(0.102192 4.29708e-08 0)
(0.102188 5.74462e-08 0)
(0.102185 6.8406e-08 0)
(0.102181 7.64111e-08 0)
(0.102178 8.19219e-08 0)
(0.102175 8.53522e-08 0)
(0.102172 8.70837e-08 0)
(0.102169 8.74536e-08 0)
(0.102166 8.67323e-08 0)
(0.102164 8.51215e-08 0)
(0.102161 8.2781e-08 0)
(0.102159 7.98615e-08 0)
(0.102156 7.6516e-08 0)
(0.102154 7.28835e-08 0)
(0.102152 6.90681e-08 0)
(0.10215 6.51352e-08 0)
(0.102148 6.11304e-08 0)
(0.102146 5.71009e-08 0)
(0.102145 5.31021e-08 0)
(0.102143 4.91859e-08 0)
(0.102141 4.53863e-08 0)
(0.10214 4.17164e-08 0)
(0.102139 3.81791e-08 0)
(0.102137 3.47798e-08 0)
(0.102136 3.15317e-08 0)
(0.102135 2.84502e-08 0)
(0.102134 2.55453e-08 0)
(0.102133 2.2818e-08 0)
(0.102132 2.02634e-08 0)
(0.102131 1.78746e-08 0)
(0.10213 1.56475e-08 0)
(0.102129 1.35804e-08 0)
(0.102128 1.16672e-08 0)
(0.102127 9.90071e-09 0)
(0.102127 8.27493e-09 0)
(0.102126 6.78464e-09 0)
(0.102125 5.41814e-09 0)
(0.102125 4.17521e-09 0)
(0.102124 3.05058e-09 0)
(0.102124 2.03921e-09 0)
(0.102123 1.12971e-09 0)
(0.102123 3.16857e-10 0)
(0.102122 -4.10811e-10 0)
(0.102122 -1.05436e-09 0)
(0.102121 -1.62129e-09 0)
(0.102121 -2.10992e-09 0)
(0.102121 -2.52622e-09 0)
(0.10212 -2.87278e-09 0)
(0.10212 -3.15687e-09 0)
(0.10212 -3.38646e-09 0)
(0.102119 -3.56559e-09 0)
(0.102119 -3.70212e-09 0)
(0.102119 -3.79359e-09 0)
(0.102119 -3.84633e-09 0)
(0.102118 -3.85701e-09 0)
(0.102118 -3.83337e-09 0)
(0.102118 -3.7733e-09 0)
(0.102118 -3.68627e-09 0)
(0.102118 -3.56733e-09 0)
(0.102118 -3.4273e-09 0)
(0.102117 -3.2555e-09 0)
(0.102117 -3.06457e-09 0)
(0.102117 -2.84795e-09 0)
(0.102117 -2.59958e-09 0)
(0.102117 -2.36138e-09 0)
(0.102117 -2.03289e-09 0)
(0.102117 -1.81487e-09 0)
(0.102117 -1.36327e-09 0)
(0.102117 -1.20933e-09 0)
(0.102116 -6.08316e-10 0)
(0.102116 -5.10342e-10 0)
(0.102116 1.85025e-10 0)
(0.102116 3.24446e-10 0)
(0.102116 1.03333e-09 0)
(0.102116 1.20695e-09 0)
(0.102116 2.15418e-09 0)
(0.102116 1.9402e-09 0)
(0.102116 3.60566e-09 0)
(0.102116 2.91808e-09 0)
(0.102116 4.62561e-09 0)
(0.102116 4.92937e-09 0)
(0.102116 5.32432e-09 0)
(0.102116 6.70246e-09 0)
(0.102116 7.36898e-09 0)
(0.102116 7.9586e-09 0)
(0.102116 8.66057e-09 0)
(0.102115 1.43318e-08 0)
(0.19143 0.00878892 0)
(0.191934 0.0114991 0)
(0.193088 0.0132557 0)
(0.19445 0.0138678 0)
(0.195262 0.0137447 0)
(0.195059 0.0131616 0)
(0.193846 0.0122232 0)
(0.191865 0.0110246 0)
(0.189329 0.00969895 0)
(0.186372 0.00839456 0)
(0.183155 0.00721531 0)
(0.179813 0.00619395 0)
(0.17644 0.00531583 0)
(0.173135 0.00455851 0)
(0.170002 0.00391002 0)
(0.167089 0.00335712 0)
(0.164414 0.00287459 0)
(0.161976 0.0024361 0)
(0.159778 0.00202625 0)
(0.15783 0.00164033 0)
(0.15614 0.00127672 0)
(0.154708 0.000936967 0)
(0.153523 0.000624994 0)
(0.152575 0.000356377 0)
(0.151847 0.00013709 0)
(0.151319 -2.71297e-05 0)
(0.150964 -0.000136933 0)
(0.150755 -0.000199106 0)
(0.150659 -0.00022307 0)
(0.150644 -0.000219624 0)
(0.150682 -0.000198985 0)
(0.150749 -0.000169639 0)
(0.150826 -0.000137968 0)
(0.1509 -0.000108014 0)
(0.150965 -8.19209e-05 0)
(0.151016 -6.05879e-05 0)
(0.151054 -4.38023e-05 0)
(0.151079 -3.10448e-05 0)
(0.151094 -2.16315e-05 0)
(0.1511 -1.47162e-05 0)
(0.151099 -9.66924e-06 0)
(0.151094 -6.09343e-06 0)
(0.151085 -3.49556e-06 0)
(0.151073 -1.57036e-06 0)
(0.151061 -1.32432e-07 0)
(0.151047 9.29532e-07 0)
(0.151032 1.72016e-06 0)
(0.151018 2.32118e-06 0)
(0.151003 2.77573e-06 0)
(0.150988 3.11399e-06 0)
(0.150974 3.3605e-06 0)
(0.150959 3.5327e-06 0)
(0.150945 3.6455e-06 0)
(0.150932 3.70947e-06 0)
(0.150918 3.7339e-06 0)
(0.150905 3.72634e-06 0)
(0.150893 3.69268e-06 0)
(0.150881 3.63804e-06 0)
(0.150869 3.56693e-06 0)
(0.150858 3.48257e-06 0)
(0.150847 3.38809e-06 0)
(0.150836 3.28594e-06 0)
(0.150826 3.17817e-06 0)
(0.150817 3.06655e-06 0)
(0.150808 2.95256e-06 0)
(0.150799 2.83741e-06 0)
(0.15079 2.72208e-06 0)
(0.150782 2.60735e-06 0)
(0.150774 2.4939e-06 0)
(0.150767 2.38231e-06 0)
(0.15076 2.27304e-06 0)
(0.150753 2.16646e-06 0)
(0.150747 2.06282e-06 0)
(0.15074 1.96228e-06 0)
(0.150735 1.86497e-06 0)
(0.150729 1.771e-06 0)
(0.150724 1.68049e-06 0)
(0.150718 1.59347e-06 0)
(0.150714 1.50995e-06 0)
(0.150709 1.42987e-06 0)
(0.150705 1.35319e-06 0)
(0.1507 1.27986e-06 0)
(0.150696 1.20982e-06 0)
(0.150693 1.14302e-06 0)
(0.150689 1.07935e-06 0)
(0.150686 1.01871e-06 0)
(0.150682 9.6098e-07 0)
(0.150679 9.06077e-07 0)
(0.150676 8.53917e-07 0)
(0.150674 8.04414e-07 0)
(0.150671 7.57471e-07 0)
(0.150669 7.12977e-07 0)
(0.150666 6.70818e-07 0)
(0.150664 6.30889e-07 0)
(0.150662 5.93091e-07 0)
(0.15066 5.57336e-07 0)
(0.150658 5.23536e-07 0)
(0.150656 4.91604e-07 0)
(0.150655 4.6145e-07 0)
(0.150653 4.32989e-07 0)
(0.150651 4.06137e-07 0)
(0.15065 3.80815e-07 0)
(0.150649 3.56951e-07 0)
(0.150647 3.34469e-07 0)
(0.150646 3.13302e-07 0)
(0.150645 2.93375e-07 0)
(0.150644 2.74628e-07 0)
(0.150643 2.56997e-07 0)
(0.150642 2.40429e-07 0)
(0.150641 2.24871e-07 0)
(0.15064 2.10269e-07 0)
(0.150639 1.96574e-07 0)
(0.150639 1.83729e-07 0)
(0.150638 1.71689e-07 0)
(0.150637 1.60401e-07 0)
(0.150637 1.49832e-07 0)
(0.150636 1.39935e-07 0)
(0.150635 1.30682e-07 0)
(0.150635 1.22034e-07 0)
(0.150634 1.13961e-07 0)
(0.150634 1.06425e-07 0)
(0.150634 9.94039e-08 0)
(0.150633 9.28571e-08 0)
(0.150633 8.6773e-08 0)
(0.150632 8.11129e-08 0)
(0.150632 7.58586e-08 0)
(0.150632 7.10112e-08 0)
(0.150631 6.64644e-08 0)
(0.150631 6.23962e-08 0)
(0.150631 5.84037e-08 0)
(0.150631 5.51343e-08 0)
(0.15063 5.15268e-08 0)
(0.15063 4.90789e-08 0)
(0.15063 4.57668e-08 0)
(0.15063 4.40171e-08 0)
(0.15063 4.11431e-08 0)
(0.150629 3.97741e-08 0)
(0.150629 3.74994e-08 0)
(0.150629 3.66459e-08 0)
(0.150629 3.41526e-08 0)
(0.150629 3.52232e-08 0)
(0.150629 3.10719e-08 0)
(0.150629 3.4269e-08 0)
(0.150628 3.05017e-08 0)
(0.150628 3.19943e-08 0)
(0.150628 3.18085e-08 0)
(0.150628 3.15978e-08 0)
(0.150628 3.16338e-08 0)
(0.150628 3.1478e-08 0)
(0.150628 3.85821e-08 0)
(0.192608 0.00824077 0)
(0.193087 0.010114 0)
(0.194211 0.0116719 0)
(0.195964 0.0124814 0)
(0.19786 0.0126438 0)
(0.199383 0.0123859 0)
(0.200331 0.0118071 0)
(0.200755 0.0109745 0)
(0.200712 0.0100066 0)
(0.200244 0.00902157 0)
(0.199449 0.00809061 0)
(0.198417 0.00725302 0)
(0.197183 0.00651218 0)
(0.195801 0.00583599 0)
(0.194358 0.00520308 0)
(0.192921 0.0046215 0)
(0.191519 0.00409341 0)
(0.190161 0.00359959 0)
(0.188851 0.00311989 0)
(0.187601 0.00264646 0)
(0.186427 0.00218326 0)
(0.185343 0.001739 0)
(0.184356 0.00132465 0)
(0.183471 0.000951716 0)
(0.182693 0.000630393 0)
(0.182024 0.00036719 0)
(0.181465 0.00016293 0)
(0.181014 1.44934e-05 0)
(0.180667 -8.38297e-05 0)
(0.180414 -0.000140074 0)
(0.180239 -0.000163647 0)
(0.180128 -0.000163948 0)
(0.180062 -0.000149351 0)
(0.180027 -0.000126977 0)
(0.18001 -0.000101914 0)
(0.180001 -7.76234e-05 0)
(0.179995 -5.60877e-05 0)
(0.179986 -3.8084e-05 0)
(0.179975 -2.37727e-05 0)
(0.179959 -1.28764e-05 0)
(0.17994 -4.6976e-06 0)
(0.179917 1.21619e-06 0)
(0.179892 5.43975e-06 0)
(0.179866 8.42207e-06 0)
(0.179839 1.04795e-05 0)
(0.179811 1.18691e-05 0)
(0.179784 1.2776e-05 0)
(0.179756 1.3327e-05 0)
(0.17973 1.36199e-05 0)
(0.179704 1.37233e-05 0)
(0.179678 1.36864e-05 0)
(0.179654 1.35439e-05 0)
(0.17963 1.33225e-05 0)
(0.179607 1.30411e-05 0)
(0.179585 1.27152e-05 0)
(0.179564 1.23565e-05 0)
(0.179544 1.19739e-05 0)
(0.179524 1.1575e-05 0)
(0.179505 1.11659e-05 0)
(0.179487 1.07512e-05 0)
(0.17947 1.0335e-05 0)
(0.179454 9.92032e-06 0)
(0.179438 9.50969e-06 0)
(0.179423 9.10519e-06 0)
(0.179408 8.70846e-06 0)
(0.179394 8.32076e-06 0)
(0.179381 7.94306e-06 0)
(0.179369 7.57607e-06 0)
(0.179357 7.22034e-06 0)
(0.179345 6.87627e-06 0)
(0.179334 6.54414e-06 0)
(0.179324 6.22409e-06 0)
(0.179314 5.91612e-06 0)
(0.179304 5.62013e-06 0)
(0.179295 5.336e-06 0)
(0.179286 5.06355e-06 0)
(0.179278 4.80262e-06 0)
(0.17927 4.55298e-06 0)
(0.179263 4.31435e-06 0)
(0.179256 4.08641e-06 0)
(0.179249 3.86884e-06 0)
(0.179242 3.66131e-06 0)
(0.179236 3.46353e-06 0)
(0.17923 3.27515e-06 0)
(0.179225 3.09583e-06 0)
(0.17922 2.92521e-06 0)
(0.179215 2.76296e-06 0)
(0.17921 2.60873e-06 0)
(0.179205 2.46222e-06 0)
(0.179201 2.32314e-06 0)
(0.179197 2.19118e-06 0)
(0.179193 2.06604e-06 0)
(0.17919 1.94739e-06 0)
(0.179186 1.83494e-06 0)
(0.179183 1.7284e-06 0)
(0.17918 1.6275e-06 0)
(0.179177 1.53199e-06 0)
(0.179174 1.44163e-06 0)
(0.179171 1.35617e-06 0)
(0.179169 1.27539e-06 0)
(0.179167 1.19906e-06 0)
(0.179164 1.12693e-06 0)
(0.179162 1.05882e-06 0)
(0.17916 9.9451e-07 0)
(0.179158 9.33826e-07 0)
(0.179157 8.76584e-07 0)
(0.179155 8.22611e-07 0)
(0.179153 7.7174e-07 0)
(0.179152 7.2381e-07 0)
(0.179151 6.78673e-07 0)
(0.179149 6.3618e-07 0)
(0.179148 5.96197e-07 0)
(0.179147 5.58583e-07 0)
(0.179146 5.23214e-07 0)
(0.179145 4.89965e-07 0)
(0.179144 4.58724e-07 0)
(0.179143 4.29382e-07 0)
(0.179142 4.01836e-07 0)
(0.179141 3.7599e-07 0)
(0.17914 3.51751e-07 0)
(0.179139 3.29029e-07 0)
(0.179139 3.07746e-07 0)
(0.179138 2.87813e-07 0)
(0.179138 2.69167e-07 0)
(0.179137 2.51733e-07 0)
(0.179136 2.35427e-07 0)
(0.179136 2.20259e-07 0)
(0.179135 2.05982e-07 0)
(0.179135 1.92936e-07 0)
(0.179135 1.8033e-07 0)
(0.179134 1.69371e-07 0)
(0.179134 1.58029e-07 0)
(0.179133 1.49157e-07 0)
(0.179133 1.38817e-07 0)
(0.179133 1.31748e-07 0)
(0.179133 1.22658e-07 0)
(0.179132 1.1664e-07 0)
(0.179132 1.09172e-07 0)
(0.179132 1.04324e-07 0)
(0.179132 9.67872e-08 0)
(0.179131 9.59842e-08 0)
(0.179131 8.52968e-08 0)
(0.179131 8.89888e-08 0)
(0.179131 7.91265e-08 0)
(0.179131 7.98362e-08 0)
(0.17913 7.66298e-08 0)
(0.17913 7.49575e-08 0)
(0.17913 7.19879e-08 0)
(0.17913 7.23116e-08 0)
(0.17913 7.53184e-08 0)
(0.193595 0.00776365 0)
(0.194045 0.00914434 0)
(0.19492 0.0104162 0)
(0.196343 0.0112317 0)
(0.19808 0.0115158 0)
(0.19971 0.0114047 0)
(0.201027 0.0110085 0)
(0.202049 0.010389 0)
(0.20277 0.00963474 0)
(0.203166 0.00884426 0)
(0.203314 0.00807778 0)
(0.203302 0.00737143 0)
(0.203138 0.00673749 0)
(0.202822 0.00614884 0)
(0.20241 0.00557622 0)
(0.201955 0.00502509 0)
(0.201471 0.0045114 0)
(0.200961 0.00402882 0)
(0.200427 0.0035579 0)
(0.199876 0.00308851 0)
(0.199312 0.00262453 0)
(0.19874 0.00217444 0)
(0.198166 0.00174752 0)
(0.1976 0.0013549 0)
(0.197051 0.00100772 0)
(0.19653 0.000712224 0)
(0.196046 0.000470049 0)
(0.195608 0.000279389 0)
(0.195225 0.000136331 0)
(0.194899 3.56613e-05 0)
(0.194632 -2.8916e-05 0)
(0.194418 -6.45353e-05 0)
(0.194251 -7.83597e-05 0)
(0.194122 -7.72127e-05 0)
(0.194023 -6.68991e-05 0)
(0.193946 -5.18851e-05 0)
(0.193883 -3.55797e-05 0)
(0.193829 -2.01082e-05 0)
(0.193781 -6.55518e-06 0)
(0.193735 4.49436e-06 0)
(0.193692 1.30965e-05 0)
(0.193649 1.95628e-05 0)
(0.193606 2.4179e-05 0)
(0.193565 2.73018e-05 0)
(0.193524 2.9277e-05 0)
(0.193484 3.03964e-05 0)
(0.193445 3.08861e-05 0)
(0.193408 3.09188e-05 0)
(0.193371 3.06265e-05 0)
(0.193336 3.01048e-05 0)
(0.193302 2.94228e-05 0)
(0.19327 2.86301e-05 0)
(0.193239 2.77627e-05 0)
(0.193209 2.68469e-05 0)
(0.19318 2.59021e-05 0)
(0.193153 2.49428e-05 0)
(0.193126 2.39797e-05 0)
(0.193101 2.3021e-05 0)
(0.193077 2.20731e-05 0)
(0.193054 2.11408e-05 0)
(0.193033 2.02278e-05 0)
(0.193012 1.93368e-05 0)
(0.192992 1.84699e-05 0)
(0.192972 1.76285e-05 0)
(0.192954 1.68138e-05 0)
(0.192937 1.60264e-05 0)
(0.19292 1.52666e-05 0)
(0.192904 1.45345e-05 0)
(0.192889 1.383e-05 0)
(0.192875 1.31529e-05 0)
(0.192861 1.2503e-05 0)
(0.192848 1.18797e-05 0)
(0.192835 1.12824e-05 0)
(0.192823 1.07106e-05 0)
(0.192812 1.01635e-05 0)
(0.192801 9.64041e-06 0)
(0.192791 9.14072e-06 0)
(0.192781 8.66367e-06 0)
(0.192772 8.20849e-06 0)
(0.192763 7.77443e-06 0)
(0.192754 7.3607e-06 0)
(0.192746 6.96655e-06 0)
(0.192739 6.59127e-06 0)
(0.192731 6.23412e-06 0)
(0.192725 5.89437e-06 0)
(0.192718 5.5713e-06 0)
(0.192712 5.26421e-06 0)
(0.192706 4.97243e-06 0)
(0.1927 4.69532e-06 0)
(0.192695 4.43226e-06 0)
(0.19269 4.18265e-06 0)
(0.192685 3.9459e-06 0)
(0.19268 3.72142e-06 0)
(0.192676 3.50863e-06 0)
(0.192672 3.30699e-06 0)
(0.192668 3.11597e-06 0)
(0.192665 2.93507e-06 0)
(0.192661 2.76384e-06 0)
(0.192658 2.60184e-06 0)
(0.192655 2.44863e-06 0)
(0.192652 2.30376e-06 0)
(0.192649 2.16682e-06 0)
(0.192646 2.0374e-06 0)
(0.192644 1.91514e-06 0)
(0.192641 1.79968e-06 0)
(0.192639 1.69069e-06 0)
(0.192637 1.58784e-06 0)
(0.192635 1.49084e-06 0)
(0.192633 1.39937e-06 0)
(0.192632 1.31315e-06 0)
(0.19263 1.2319e-06 0)
(0.192628 1.15537e-06 0)
(0.192627 1.0833e-06 0)
(0.192625 1.01546e-06 0)
(0.192624 9.51634e-07 0)
(0.192623 8.91594e-07 0)
(0.192622 8.35147e-07 0)
(0.192621 7.82091e-07 0)
(0.19262 7.3225e-07 0)
(0.192619 6.85441e-07 0)
(0.192618 6.41501e-07 0)
(0.192617 6.00276e-07 0)
(0.192616 5.61614e-07 0)
(0.192615 5.25374e-07 0)
(0.192614 4.91445e-07 0)
(0.192614 4.59623e-07 0)
(0.192613 4.29981e-07 0)
(0.192613 4.02001e-07 0)
(0.192612 3.76354e-07 0)
(0.192612 3.51564e-07 0)
(0.192611 3.29811e-07 0)
(0.192611 3.07476e-07 0)
(0.19261 2.89581e-07 0)
(0.19261 2.69197e-07 0)
(0.192609 2.54683e-07 0)
(0.192609 2.36549e-07 0)
(0.192609 2.24228e-07 0)
(0.192608 2.08826e-07 0)
(0.192608 1.98777e-07 0)
(0.192608 1.83735e-07 0)
(0.192607 1.79618e-07 0)
(0.192607 1.61162e-07 0)
(0.192607 1.62895e-07 0)
(0.192607 1.46565e-07 0)
(0.192607 1.448e-07 0)
(0.192606 1.36743e-07 0)
(0.192606 1.33792e-07 0)
(0.192606 1.25965e-07 0)
(0.192606 1.27059e-07 0)
(0.192606 1.2209e-07 0)
(0.194399 0.00736516 0)
(0.194837 0.00845795 0)
(0.195569 0.00950208 0)
(0.196712 0.0102647 0)
(0.198156 0.0105975 0)
(0.19959 0.0105679 0)
(0.200828 0.0102935 0)
(0.201885 0.00981507 0)
(0.202738 0.00919037 0)
(0.203329 0.00852369 0)
(0.203715 0.00787323 0)
(0.203996 0.00725041 0)
(0.204187 0.0066712 0)
(0.204269 0.00613518 0)
(0.204269 0.0056139 0)
(0.204227 0.00509687 0)
(0.20415 0.00460319 0)
(0.204032 0.00414148 0)
(0.203877 0.00369646 0)
(0.203691 0.00325371 0)
(0.203475 0.00281406 0)
(0.203221 0.00238554 0)
(0.202929 0.00197647 0)
(0.202607 0.00159638 0)
(0.202264 0.00125501 0)
(0.201911 0.000958449 0)
(0.201556 0.000708327 0)
(0.201212 0.000503026 0)
(0.200888 0.00033983 0)
(0.20059 0.000215369 0)
(0.200325 0.000125452 0)
(0.200093 6.49611e-05 0)
(0.199893 2.81837e-05 0)
(0.199725 9.47589e-06 0)
(0.199583 3.5375e-06 0)
(0.199463 5.80863e-06 0)
(0.199361 1.26327e-05 0)
(0.199273 2.12882e-05 0)
(0.199195 3.0047e-05 0)
(0.199125 3.7884e-05 0)
(0.199061 4.4231e-05 0)
(0.199001 4.89863e-05 0)
(0.198945 5.22302e-05 0)
(0.198892 5.41707e-05 0)
(0.198841 5.50564e-05 0)
(0.198792 5.51242e-05 0)
(0.198745 5.45794e-05 0)
(0.1987 5.35904e-05 0)
(0.198658 5.22906e-05 0)
(0.198617 5.07809e-05 0)
(0.198578 4.91363e-05 0)
(0.19854 4.74111e-05 0)
(0.198504 4.56447e-05 0)
(0.19847 4.38654e-05 0)
(0.198438 4.20932e-05 0)
(0.198407 4.03427e-05 0)
(0.198377 3.8624e-05 0)
(0.198349 3.69443e-05 0)
(0.198322 3.5309e-05 0)
(0.198296 3.37214e-05 0)
(0.198271 3.21838e-05 0)
(0.198248 3.06976e-05 0)
(0.198225 2.92637e-05 0)
(0.198204 2.78821e-05 0)
(0.198183 2.65526e-05 0)
(0.198164 2.52749e-05 0)
(0.198145 2.40479e-05 0)
(0.198127 2.28708e-05 0)
(0.198111 2.17424e-05 0)
(0.198094 2.06617e-05 0)
(0.198079 1.96272e-05 0)
(0.198064 1.86377e-05 0)
(0.198051 1.76918e-05 0)
(0.198037 1.6788e-05 0)
(0.198025 1.59248e-05 0)
(0.198013 1.5101e-05 0)
(0.198001 1.43151e-05 0)
(0.19799 1.35656e-05 0)
(0.19798 1.28513e-05 0)
(0.19797 1.21708e-05 0)
(0.19796 1.15227e-05 0)
(0.197952 1.09057e-05 0)
(0.197943 1.03185e-05 0)
(0.197935 9.76003e-06 0)
(0.197927 9.22897e-06 0)
(0.19792 8.72417e-06 0)
(0.197913 8.24448e-06 0)
(0.197906 7.78883e-06 0)
(0.1979 7.35616e-06 0)
(0.197894 6.94547e-06 0)
(0.197889 6.55578e-06 0)
(0.197883 6.18616e-06 0)
(0.197878 5.83569e-06 0)
(0.197874 5.50346e-06 0)
(0.197869 5.18862e-06 0)
(0.197865 4.89033e-06 0)
(0.197861 4.60781e-06 0)
(0.197857 4.34034e-06 0)
(0.197853 4.08723e-06 0)
(0.19785 3.84778e-06 0)
(0.197846 3.62134e-06 0)
(0.197843 3.40723e-06 0)
(0.19784 3.20484e-06 0)
(0.197838 3.01357e-06 0)
(0.197835 2.83288e-06 0)
(0.197832 2.66227e-06 0)
(0.19783 2.50122e-06 0)
(0.197828 2.34926e-06 0)
(0.197826 2.20591e-06 0)
(0.197824 2.07074e-06 0)
(0.197822 1.94331e-06 0)
(0.19782 1.82322e-06 0)
(0.197819 1.71008e-06 0)
(0.197817 1.60354e-06 0)
(0.197816 1.50324e-06 0)
(0.197814 1.40885e-06 0)
(0.197813 1.32007e-06 0)
(0.197812 1.23658e-06 0)
(0.197811 1.1581e-06 0)
(0.197809 1.08435e-06 0)
(0.197808 1.01508e-06 0)
(0.197807 9.50038e-07 0)
(0.197807 8.89007e-07 0)
(0.197806 8.3174e-07 0)
(0.197805 7.78104e-07 0)
(0.197804 7.27723e-07 0)
(0.197803 6.80786e-07 0)
(0.197803 6.36389e-07 0)
(0.197802 5.95689e-07 0)
(0.197802 5.5627e-07 0)
(0.197801 5.2163e-07 0)
(0.1978 4.86065e-07 0)
(0.1978 4.57414e-07 0)
(0.1978 4.24879e-07 0)
(0.197799 4.01588e-07 0)
(0.197799 3.72293e-07 0)
(0.197798 3.52848e-07 0)
(0.197798 3.27291e-07 0)
(0.197798 3.11544e-07 0)
(0.197797 2.87208e-07 0)
(0.197797 2.78629e-07 0)
(0.197797 2.51982e-07 0)
(0.197797 2.49702e-07 0)
(0.197796 2.26797e-07 0)
(0.197796 2.2151e-07 0)
(0.197796 2.07344e-07 0)
(0.197796 2.02812e-07 0)
(0.197795 1.89078e-07 0)
(0.197795 1.89617e-07 0)
(0.197795 1.76554e-07 0)
(0.19508 0.00702003 0)
(0.195507 0.00791847 0)
(0.196144 0.00877775 0)
(0.197077 0.00944511 0)
(0.198271 0.00978228 0)
(0.199507 0.00981424 0)
(0.200605 0.00963178 0)
(0.201567 0.00925711 0)
(0.202396 0.00873384 0)
(0.203018 0.00816932 0)
(0.203445 0.00761634 0)
(0.20378 0.00706296 0)
(0.204063 0.00652359 0)
(0.204265 0.00602284 0)
(0.20439 0.0055427 0)
(0.204476 0.00506142 0)
(0.204537 0.00459317 0)
(0.204557 0.00415439 0)
(0.204535 0.00373437 0)
(0.204483 0.00331607 0)
(0.204403 0.00289882 0)
(0.204286 0.00249251 0)
(0.204125 0.00210605 0)
(0.203926 0.00174654 0)
(0.203697 0.00142095 0)
(0.203447 0.00113423 0)
(0.203183 0.00088784 0)
(0.202915 0.000680588 0)
(0.202651 0.000510394 0)
(0.202399 0.000374987 0)
(0.202162 0.000271354 0)
(0.201944 0.000195551 0)
(0.201748 0.000143118 0)
(0.201572 0.000109432 0)
(0.201418 8.98734e-05 0)
(0.201282 8.02585e-05 0)
(0.201162 7.70907e-05 0)
(0.201057 7.76416e-05 0)
(0.200964 7.99051e-05 0)
(0.20088 8.25847e-05 0)
(0.200803 8.48719e-05 0)
(0.200733 8.63921e-05 0)
(0.200669 8.70145e-05 0)
(0.200608 8.67646e-05 0)
(0.200551 8.5757e-05 0)
(0.200497 8.41388e-05 0)
(0.200446 8.2057e-05 0)
(0.200397 7.96432e-05 0)
(0.200351 7.70078e-05 0)
(0.200308 7.42383e-05 0)
(0.200266 7.14012e-05 0)
(0.200226 6.85456e-05 0)
(0.200188 6.57071e-05 0)
(0.200152 6.29107e-05 0)
(0.200117 6.01737e-05 0)
(0.200085 5.75077e-05 0)
(0.200053 5.49205e-05 0)
(0.200023 5.24167e-05 0)
(0.199995 4.99991e-05 0)
(0.199968 4.76687e-05 0)
(0.199942 4.54258e-05 0)
(0.199917 4.32696e-05 0)
(0.199894 4.11988e-05 0)
(0.199871 3.9212e-05 0)
(0.19985 3.73073e-05 0)
(0.199829 3.54824e-05 0)
(0.19981 3.37351e-05 0)
(0.199791 3.20631e-05 0)
(0.199774 3.0464e-05 0)
(0.199757 2.89353e-05 0)
(0.199741 2.74748e-05 0)
(0.199725 2.60799e-05 0)
(0.199711 2.47483e-05 0)
(0.199697 2.34776e-05 0)
(0.199684 2.22654e-05 0)
(0.199671 2.11095e-05 0)
(0.199659 2.00078e-05 0)
(0.199648 1.8958e-05 0)
(0.199637 1.79581e-05 0)
(0.199626 1.7006e-05 0)
(0.199617 1.60998e-05 0)
(0.199607 1.52374e-05 0)
(0.199598 1.44171e-05 0)
(0.19959 1.3637e-05 0)
(0.199582 1.28955e-05 0)
(0.199574 1.21907e-05 0)
(0.199567 1.15212e-05 0)
(0.19956 1.08854e-05 0)
(0.199554 1.02816e-05 0)
(0.199547 9.70864e-06 0)
(0.199542 9.16497e-06 0)
(0.199536 8.64929e-06 0)
(0.199531 8.16033e-06 0)
(0.199526 7.69682e-06 0)
(0.199521 7.25755e-06 0)
(0.199517 6.84136e-06 0)
(0.199512 6.44716e-06 0)
(0.199508 6.07392e-06 0)
(0.199504 5.72067e-06 0)
(0.199501 5.38646e-06 0)
(0.199497 5.07035e-06 0)
(0.199494 4.77143e-06 0)
(0.199491 4.48882e-06 0)
(0.199488 4.22172e-06 0)
(0.199485 3.96934e-06 0)
(0.199483 3.73099e-06 0)
(0.19948 3.50596e-06 0)
(0.199478 3.2936e-06 0)
(0.199476 3.09322e-06 0)
(0.199474 2.90423e-06 0)
(0.199472 2.72602e-06 0)
(0.19947 2.55804e-06 0)
(0.199468 2.39975e-06 0)
(0.199467 2.25063e-06 0)
(0.199465 2.11023e-06 0)
(0.199464 1.97807e-06 0)
(0.199462 1.85372e-06 0)
(0.199461 1.73674e-06 0)
(0.19946 1.62676e-06 0)
(0.199459 1.52337e-06 0)
(0.199458 1.42623e-06 0)
(0.199457 1.33499e-06 0)
(0.199456 1.24934e-06 0)
(0.199455 1.16893e-06 0)
(0.199454 1.09361e-06 0)
(0.199453 1.0228e-06 0)
(0.199453 9.56825e-07 0)
(0.199452 8.94346e-07 0)
(0.199451 8.37076e-07 0)
(0.199451 7.81538e-07 0)
(0.19945 7.32705e-07 0)
(0.199449 6.82561e-07 0)
(0.199449 6.42057e-07 0)
(0.199448 5.96108e-07 0)
(0.199448 5.632e-07 0)
(0.199448 5.21459e-07 0)
(0.199447 4.94377e-07 0)
(0.199447 4.57325e-07 0)
(0.199447 4.35524e-07 0)
(0.199446 4.00872e-07 0)
(0.199446 3.87104e-07 0)
(0.199446 3.51879e-07 0)
(0.199445 3.44697e-07 0)
(0.199445 3.14618e-07 0)
(0.199445 3.05665e-07 0)
(0.199445 2.84374e-07 0)
(0.199444 2.77937e-07 0)
(0.199444 2.57489e-07 0)
(0.199444 2.56504e-07 0)
(0.199444 2.3668e-07 0)
(0.195667 0.00670779 0)
(0.196078 0.00745402 0)
(0.196639 0.0081564 0)
(0.197415 0.00872422 0)
(0.198412 0.00905059 0)
(0.199475 0.00911885 0)
(0.200434 0.00899372 0)
(0.201286 0.00870747 0)
(0.20206 0.00828456 0)
(0.202678 0.00780485 0)
(0.203107 0.00732596 0)
(0.203442 0.00683953 0)
(0.203747 0.00634741 0)
(0.203989 0.00587872 0)
(0.20415 0.00543367 0)
(0.204269 0.00499031 0)
(0.20437 0.00455059 0)
(0.204435 0.00413117 0)
(0.204453 0.00373004 0)
(0.204439 0.00333288 0)
(0.204403 0.00293735 0)
(0.204336 0.00255385 0)
(0.204228 0.00219185 0)
(0.204082 0.00185585 0)
(0.203908 0.00154932 0)
(0.203712 0.00127571 0)
(0.2035 0.00103664 0)
(0.203279 0.000831638 0)
(0.203056 0.000659335 0)
(0.202838 0.000518233 0)
(0.202628 0.000406211 0)
(0.202429 0.000320279 0)
(0.202245 0.000256785 0)
(0.202076 0.000211755 0)
(0.201923 0.000181147 0)
(0.201785 0.000161221 0)
(0.201661 0.000148779 0)
(0.20155 0.000141231 0)
(0.20145 0.000136606 0)
(0.201361 0.000133521 0)
(0.201279 0.000131042 0)
(0.201204 0.000128615 0)
(0.201135 0.000125946 0)
(0.201071 0.000122918 0)
(0.201012 0.000119523 0)
(0.200955 0.000115815 0)
(0.200902 0.000111869 0)
(0.200852 0.000107766 0)
(0.200805 0.000103581 0)
(0.20076 9.93762e-05 0)
(0.200717 9.52003e-05 0)
(0.200676 9.10903e-05 0)
(0.200637 8.70728e-05 0)
(0.2006 8.31659e-05 0)
(0.200565 7.93811e-05 0)
(0.200532 7.57255e-05 0)
(0.2005 7.22025e-05 0)
(0.200469 6.88134e-05 0)
(0.200441 6.55573e-05 0)
(0.200413 6.24326e-05 0)
(0.200387 5.94365e-05 0)
(0.200361 5.65658e-05 0)
(0.200338 5.38171e-05 0)
(0.200315 5.11866e-05 0)
(0.200293 4.86705e-05 0)
(0.200272 4.62648e-05 0)
(0.200252 4.39656e-05 0)
(0.200234 4.1769e-05 0)
(0.200216 3.96711e-05 0)
(0.200199 3.76683e-05 0)
(0.200182 3.57568e-05 0)
(0.200167 3.39331e-05 0)
(0.200152 3.21937e-05 0)
(0.200138 3.05351e-05 0)
(0.200124 2.89541e-05 0)
(0.200112 2.74475e-05 0)
(0.2001 2.60122e-05 0)
(0.200088 2.46453e-05 0)
(0.200077 2.33439e-05 0)
(0.200066 2.21052e-05 0)
(0.200057 2.09265e-05 0)
(0.200047 1.98052e-05 0)
(0.200038 1.87389e-05 0)
(0.200029 1.77251e-05 0)
(0.200021 1.67615e-05 0)
(0.200014 1.58459e-05 0)
(0.200006 1.49762e-05 0)
(0.199999 1.41503e-05 0)
(0.199993 1.33662e-05 0)
(0.199986 1.26221e-05 0)
(0.19998 1.1916e-05 0)
(0.199975 1.12463e-05 0)
(0.199969 1.06114e-05 0)
(0.199964 1.00094e-05 0)
(0.19996 9.43898e-06 0)
(0.199955 8.8985e-06 0)
(0.199951 8.38655e-06 0)
(0.199947 7.90181e-06 0)
(0.199943 7.443e-06 0)
(0.199939 7.00888e-06 0)
(0.199936 6.59824e-06 0)
(0.199932 6.2099e-06 0)
(0.199929 5.84272e-06 0)
(0.199926 5.49566e-06 0)
(0.199923 5.16771e-06 0)
(0.199921 4.85796e-06 0)
(0.199918 4.56548e-06 0)
(0.199916 4.28942e-06 0)
(0.199914 4.02892e-06 0)
(0.199912 3.78318e-06 0)
(0.19991 3.55144e-06 0)
(0.199908 3.33295e-06 0)
(0.199906 3.12705e-06 0)
(0.199905 2.93306e-06 0)
(0.199903 2.75037e-06 0)
(0.199902 2.57837e-06 0)
(0.1999 2.41651e-06 0)
(0.199899 2.26423e-06 0)
(0.199898 2.12102e-06 0)