/*--------------------------------*- C++ -*----------------------------------*\
| =========                 |                                                 |
| \\      /  F ield         | OpenFOAM: The Open Source CFD Toolbox           |
|  \\    /   O peration     | Version:  2.3.0                                 |
|   \\  /    A nd           | Web:      www.OpenFOAM.org                      |
|    \\/     M anipulation  |                                                 |
\*---------------------------------------------------------------------------*/
FoamFile
{
    version     2.0;
    format      ascii;
    class       volScalarField;
    location    "0.35";
    object      p;
}
// * * * * * * * * * * * * * * * * * * * * * * * * * * * * * * * * * * * * * //

dimensions      [0 2 -2 0 0 0 0];

internalField   nonuniform List<scalar> 
2250
(
0.00157905
0.00129744
0.00106713
0.000914794
0.000799207
0.000695153
0.000596734
0.000503575
0.000415039
0.000330191
0.00024848
0.000169815
9.43812e-05
2.25011e-05
-4.54254e-05
-0.00010896
-0.000167659
-0.000221113
-0.000268973
-0.00031098
-0.000346981
-0.000376945
-0.000400963
-0.000419247
-0.00043212
-0.000440001
-0.000443379
-0.000442797
-0.000438823
-0.00043203
-0.000422974
-0.000412179
-0.000400123
-0.000387229
-0.000373865
-0.000360335
-0.000346889
-0.00033372
-0.000320976
-0.000308761
-0.000297142
-0.000286161
-0.000275832
-0.000266155
-0.000257115
-0.000248688
-0.000240843
-0.000233546
-0.000226764
-0.000220459
-0.000214598
-0.000209147
-0.000204074
-0.000199349
-0.000194942
-0.000190827
-0.000186977
-0.000183367
-0.000179971
-0.000176764
-0.000173721
-0.000170817
-0.000168025
-0.000165316
-0.000162664
-0.000160037
-0.000157403
-0.000154728
-0.000151976
-0.000149105
-0.000146072
-0.00014283
-0.000139329
-0.000135519
-0.000131348
-0.000126773
-0.000121753
-0.000116264
-0.000110295
-0.000103855
-9.69762e-05
-8.97111e-05
-8.21354e-05
-7.43439e-05
-6.64481e-05
-5.85706e-05
-5.08402e-05
-4.33859e-05
-3.63304e-05
-2.9785e-05
-2.38437e-05
-1.85781e-05
-1.40346e-05
-1.0236e-05
-7.18606e-06
-4.85222e-06
-3.1695e-06
-2.05973e-06
-1.40488e-06
-1.39082e-06
0.00128821
0.00113595
0.000990302
0.000876771
0.000780486
0.000688567
0.000598332
0.000510535
0.000425502
0.00034302
0.000262964
0.000185477
0.00011088
3.95806e-05
-2.79682e-05
-9.12955e-05
-0.000149938
-0.000203468
-0.000251527
-0.000293842
-0.00033025
-0.000360706
-0.000385288
-0.000404197
-0.000417741
-0.000426326
-0.00043043
-0.000430584
-0.000427346
-0.00042128
-0.000412935
-0.000402829
-0.000391435
-0.000379173
-0.000366406
-0.000353439
-0.000340519
-0.00032784
-0.000315549
-0.000303751
-0.000292516
-0.000281885
-0.000271877
-0.000262493
-0.00025372
-0.000245537
-0.000237915
-0.000230824
-0.000224229
-0.000218098
-0.000212397
-0.000207094
-0.000202158
-0.00019756
-0.000193274
-0.000189271
-0.000185526
-0.000182016
-0.000178714
-0.000175597
-0.00017264
-0.000169817
-0.000167103
-0.00016447
-0.000161891
-0.000159335
-0.00015677
-0.000154164
-0.000151478
-0.000148674
-0.000145707
-0.000142531
-0.000139096
-0.000135352
-0.000131247
-0.000126735
-0.000121778
-0.000116347
-0.000110433
-0.000104042
-9.72061e-05
-8.99761e-05
-8.24271e-05
-7.46539e-05
-6.67676e-05
-5.88917e-05
-5.11561e-05
-4.36914e-05
-3.66225e-05
-3.00622e-05
-2.41055e-05
-1.88255e-05
-1.42697e-05
-1.04581e-05
-7.38479e-06
-5.0229e-06
-3.32102e-06
-2.1952e-06
-1.50455e-06
-1.87394e-06
0.00113833
0.00105049
0.000943061
0.000842008
0.000749639
0.000661464
0.000575606
0.000492279
0.000411718
0.000333778
0.000258302
0.000185319
0.00011503
4.77415e-05
-1.618e-05
-7.63311e-05
-0.000132299
-0.000183691
-0.000230161
-0.000271433
-0.000307321
-0.000337744
-0.000362729
-0.000382414
-0.000397039
-0.000406937
-0.000412514
-0.000414234
-0.000412593
-0.000408101
-0.000401265
-0.00039257
-0.000382465
-0.000371358
-0.000359607
-0.000347518
-0.000335345
-0.000323294
-0.000311524
-0.000300154
-0.00028927
-0.000278924
-0.000269149
-0.000259953
-0.000251335
-0.000243281
-0.000235769
-0.000228773
-0.000222264
-0.000216212
-0.000210585
-0.000205354
-0.000200489
-0.000195962
-0.000191744
-0.00018781
-0.000184135
-0.000180693
-0.00017746
-0.000174411
-0.000171521
-0.000168765
-0.000166117
-0.000163549
-0.000161034
-0.000158541
-0.000156039
-0.000153493
-0.000150868
-0.000148122
-0.000145213
-0.000142093
-0.000138713
-0.000135021
-0.000130967
-0.000126503
-0.000121589
-0.000116199
-0.000110321
-0.000103963
-9.71537e-05
-8.99471e-05
-8.24178e-05
-7.46607e-05
-6.67876e-05
-5.89222e-05
-5.11946e-05
-4.37354e-05
-3.66696e-05
-3.01103e-05
-2.41529e-05
-1.8871e-05
-1.43129e-05
-1.05e-05
-7.42641e-06
-5.06313e-06
-3.36106e-06
-2.24806e-06
-1.6833e-06
-2.81977e-06
0.000991353
0.000932325
0.000852843
0.000770735
0.000691867
0.0006154
0.000540158
0.000466137
0.000393657
0.000322871
0.00025385
0.000186748
0.000121823
5.94056e-05
-1.32922e-07
-5.64019e-05
-0.00010901
-0.000157586
-0.0002018
-0.000241385
-0.000276149
-0.000305989
-0.0003309
-0.00035097
-0.000366382
-0.000377401
-0.000384366
-0.000387669
-0.000387739
-0.000385025
-0.000379979
-0.000373041
-0.000364627
-0.000355116
-0.00034485
-0.000334124
-0.000323189
-0.000312251
-0.000301475
-0.000290986
-0.00028088
-0.000271219
-0.000262045
-0.000253378
-0.000245225
-0.000237582
-0.000230435
-0.000223764
-0.000217547
-0.000211757
-0.000206369
-0.000201356
-0.00019669
-0.000192347
-0.0001883
-0.000184526
-0.000181001
-0.0001777
-0.0001746
-0.000171677
-0.000168908
-0.000166267
-0.000163729
-0.000161268
-0.000158855
-0.000156462
-0.000154057
-0.000151607
-0.000149075
-0.000146421
-0.000143603
-0.000140573
-0.000137283
-0.000133681
-0.000129717
-0.000125345
-0.000120525
-0.000115231
-0.000109449
-0.000103189
-9.64782e-05
-8.93691e-05
-8.1935e-05
-7.42694e-05
-6.64826e-05
-5.86966e-05
-5.10402e-05
-4.3643e-05
-3.66289e-05
-3.01103e-05
-2.41827e-05
-1.89197e-05
-1.43708e-05
-1.05593e-05
-7.48311e-06
-5.11845e-06
-3.42668e-06
-2.37308e-06
-2.08687e-06
-4.03075e-06
0.000865674
0.000825177
0.000768744
0.000705513
0.000640403
0.000574656
0.000508451
0.000442216
0.000376531
0.000311841
0.000248452
0.000186644
0.000126722
6.90207e-05
1.3887e-05
-3.83273e-05
-8.72786e-05
-0.000132644
-0.000174138
-0.000211524
-0.000244629
-0.000273355
-0.00029768
-0.000317664
-0.000333445
-0.000345235
-0.000353306
-0.000357983
-0.000359626
-0.000358616
-0.000355346
-0.000350199
-0.000343545
-0.000335728
-0.000327061
-0.000317819
-0.000308244
-0.000298536
-0.000288861
-0.00027935
-0.000270105
-0.0002612
-0.000252687
-0.000244598
-0.00023695
-0.00022975
-0.000222993
-0.000216668
-0.000210759
-0.000205247
-0.000200111
-0.000195328
-0.000190876
-0.000186731
-0.00018287
-0.000179271
-0.000175911
-0.000172768
-0.000169819
-0.000167041
-0.00016441
-0.000161904
-0.000159496
-0.00015716
-0.00015487
-0.000152596
-0.000150308
-0.000147973
-0.000145553
-0.000143012
-0.000140305
-0.000137388
-0.000134213
-0.00013073
-0.00012689
-0.00012265
-0.000117972
-0.000112829
-0.000107212
-0.000101128
-9.46043e-05
-8.76912e-05
-8.04596e-05
-7.29994e-05
-6.54167e-05
-5.78292e-05
-5.03611e-05
-4.31376e-05
-3.62789e-05
-2.98945e-05
-2.40779e-05
-1.89024e-05
-1.44181e-05
-1.06509e-05
-7.60337e-06
-5.26053e-06
-3.60302e-06
-2.65043e-06
-2.66753e-06
-5.08039e-06
0.000756311
0.00072671
0.000685245
0.00063602
0.000582419
0.000526407
0.000468978
0.000410835
0.000352614
0.000294835
0.000237901
0.000182152
0.000127918
7.55271e-05
2.53123e-05
-2.2401e-05
-6.72996e-05
-0.000109092
-0.000147521
-0.00018237
-0.000213479
-0.000240746
-0.000264138
-0.000283686
-0.00029949
-0.000311713
-0.00032057
-0.000326325
-0.000329274
-0.000329737
-0.000328045
-0.000324532
-0.000319519
-0.000313312
-0.000306194
-0.000298418
-0.00029021
-0.000281762
-0.000273236
-0.000264765
-0.000256453
-0.000248381
-0.00024061
-0.000233181
-0.000226119
-0.000219439
-0.000213145
-0.000207234
-0.000201696
-0.000196519
-0.000191686
-0.00018718
-0.000182981
-0.000179069
-0.000175425
-0.000172027
-0.000168855
-0.000165888
-0.000163105
-0.000160484
-0.000158003
-0.000155638
-0.000153367
-0.000151163
-0.000149
-0.00014685
-0.000144683
-0.000142467
-0.000140168
-0.000137747
-0.000135164
-0.000132375
-0.000129335
-0.000125998
-0.000122318
-0.000118255
-0.000113773
-0.00010885
-0.000103476
-9.76588e-05
-9.14241e-05
-8.48189e-05
-7.79094e-05
-7.07797e-05
-6.35291e-05
-5.62678e-05
-4.91128e-05
-4.21821e-05
-3.55899e-05
-2.94405e-05
-2.38241e-05
-1.88121e-05
-1.44553e-05
-1.0782e-05
-7.80114e-06
-5.50873e-06
-3.90762e-06
-3.06051e-06
-3.26682e-06
-5.62505e-06
0.000659023
0.000636118
0.000604663
0.000566276
0.000522921
0.000476318
0.000427624
0.000377626
0.000326965
0.000276188
0.000225757
0.000176071
0.000127493
8.03683e-05
3.50257e-05
-8.22045e-06
-4.90763e-05
-8.72731e-05
-0.000122574
-0.000154783
-0.000183748
-0.00020937
-0.000231605
-0.000250465
-0.000266021
-0.000278393
-0.000287752
-0.000294306
-0.000298298
-0.000299992
-0.000299666
-0.000297602
-0.000294078
-0.000289361
-0.000283701
-0.000277329
-0.000270449
-0.000263242
-0.000255861
-0.000248438
-0.000241077
-0.000233863
-0.00022686
-0.000220118
-0.000213669
-0.000207534
-0.000201726
-0.000196249
-0.000191099
-0.00018627
-0.000181751
-0.000177529
-0.000173588
-0.000169912
-0.000166484
-0.000163285
-0.000160298
-0.000157503
-0.00015488
-0.000152409
-0.000150069
-0.000147839
-0.000145696
-0.000143615
-0.000141571
-0.000139537
-0.000137485
-0.000135383
-0.000133199
-0.000130897
-0.000128438
-0.000125783
-0.000122888
-0.000119712
-0.000116214
-0.000112357
-0.000108111
-0.000103454
-9.83791e-05
-9.28941e-05
-8.70236e-05
-8.08102e-05
-7.43146e-05
-6.76135e-05
-6.07978e-05
-5.39684e-05
-4.72326e-05
-4.06993e-05
-3.44742e-05
-2.86544e-05
-2.33249e-05
-1.8554e-05
-1.43918e-05
-1.0869e-05
-8.00031e-06
-5.79223e-06
-4.26363e-06
-3.49003e-06
-3.70665e-06
-5.55152e-06
0.000570712
0.000552394
0.000527993
0.000497906
0.000463096
0.000424804
0.000384069
0.000341661
0.000298201
0.000254231
0.000210226
0.000166601
0.000123731
8.19582e-05
4.15999e-05
2.95257e-06
-3.37113e-05
-6.81454e-05
-0.000100134
-0.000129497
-0.000156092
-0.000179822
-0.000200636
-0.00021853
-0.000233546
-0.000245772
-0.000255336
-0.000262401
-0.00026716
-0.000269828
-0.000270631
-0.000269807
-0.00026759
-0.000264209
-0.000259883
-0.000254814
-0.000249189
-0.000243171
-0.000236906
-0.000230517
-0.000224107
-0.000217762
-0.00021155
-0.000205521
-0.000199716
-0.000194162
-0.000188876
-0.000183869
-0.000179142
-0.000174696
-0.000170523
-0.000166614
-0.000162959
-0.000159544
-0.000156355
-0.000153376
-0.000150591
-0.000147983
-0.000145534
-0.000143225
-0.000141037
-0.000138949
-0.00013694
-0.000134988
-0.000133068
-0.000131155
-0.000129221
-0.000127238
-0.000125175
-0.000122998
-0.000120672
-0.00011816
-0.000115424
-0.000112427
-0.00010913
-0.000105504
-0.00010152
-9.71624e-05
-9.24245e-05
-8.73141e-05
-8.18538e-05
-7.60825e-05
-7.00544e-05
-6.38387e-05
-5.75167e-05
-5.11796e-05
-4.4924e-05
-3.88487e-05
-3.30498e-05
-2.76167e-05
-2.26277e-05
-1.81475e-05
-1.42243e-05
-1.08903e-05
-8.16401e-06
-6.05816e-06
-4.59503e-06
-3.83067e-06
-3.88247e-06
-4.96728e-06
0.000489435
0.000474529
0.000455315
0.000431614
0.000403806
0.000372716
0.000339167
0.000303822
0.000267232
0.000229883
0.000192216
0.000154628
0.000117475
8.10843e-05
4.57559e-05
1.17663e-05
-2.06324e-05
-5.12135e-05
-7.97786e-05
-0.00010616
-0.000130226
-0.000151878
-0.00017106
-0.000187753
-0.000201977
-0.000213792
-0.000223291
-0.000230596
-0.000235858
-0.000239246
-0.000240945
-0.000241146
-0.000240046
-0.000237838
-0.000234708
-0.000230833
-0.000226376
-0.000221486
-0.000216294
-0.000210915
-0.000205448
-0.000199975
-0.000194565
-0.000189272
-0.000184137
-0.000179192
-0.000174459
-0.000169953
-0.000165682
-0.000161647
-0.000157848
-0.00015428
-0.000150935
-0.000147802
-0.000144872
-0.000142129
-0.000139562
-0.000137153
-0.000134889
-0.000132751
-0.000130722
-0.000128783
-0.000126914
-0.000125095
-0.000123303
-0.000121514
-0.000119703
-0.000117844
-0.000115907
-0.000113863
-0.000111679
-0.000109322
-0.000106758
-0.000103955
-0.000100881
-9.75089e-05
-9.38159e-05
-8.97884e-05
-8.54222e-05
-8.07251e-05
-7.57177e-05
-7.04348e-05
-6.49246e-05
-5.92481e-05
-5.34772e-05
-4.76922e-05
-4.19791e-05
-3.64255e-05
-3.11173e-05
-2.61347e-05
-2.15489e-05
-1.74193e-05
-1.37913e-05
-1.06959e-05
-8.1521e-06
-6.17112e-06
-4.76326e-06
-3.94118e-06
-3.70283e-06
-4.01507e-06
0.000413705
0.000401513
0.000386292
0.000367614
0.000345544
0.000320609
0.00029341
0.000264469
0.000234236
0.000203123
0.000171512
0.000139759
0.000108188
7.70971e-05
4.67608e-05
1.74303e-05
-1.06656e-05
-3.73218e-05
-6.23582e-05
-8.5622e-05
-0.000106989
-0.000126367
-0.000143693
-0.000158939
-0.00017211
-0.000183239
-0.000192391
-0.000199656
-0.000205146
-0.000208991
-0.000211337
-0.000212338
-0.000212152
-0.000210939
-0.000208855
-0.00020605
-0.000202664
-0.000198827
-0.000194656
-0.000190257
-0.000185719
-0.000181121
-0.000176528
-0.000171994
-0.000167562
-0.000163266
-0.00015913
-0.000155173
-0.000151405
-0.000147834
-0.000144461
-0.000141284
-0.000138299
-0.0001355
-0.000132877
-0.00013042
-0.000128117
-0.000125955
-0.000123921
-0.000121998
-0.000120172
-0.000118425
-0.000116739
-0.000115094
-0.00011347
-0.000111845
-0.000110196
-0.000108498
-0.000106724
-0.000104847
-0.000102838
-0.000100668
-9.83057e-05
-9.5723e-05
-9.28927e-05
-8.97913e-05
-8.64003e-05
-8.27085e-05
-7.87132e-05
-7.44221e-05
-6.98542e-05
-6.50406e-05
-6.00239e-05
-5.48581e-05
-4.96066e-05
-4.43407e-05
-3.91362e-05
-3.40713e-05
-2.92226e-05
-2.46625e-05
-2.04556e-05
-1.66565e-05
-1.33072e-05
-1.04368e-05
-8.06114e-06
-6.18303e-06
-4.79038e-06
-3.84569e-06
-3.26269e-06
-2.95771e-06
0.000357794
0.000347429
0.000334747
0.000319277
0.000300975
0.000280206
0.000257426
0.000233045
0.00020743
0.000180927
0.000153868
0.000126563
9.93011e-05
7.23496e-05
4.59553e-05
2.03447e-05
-4.27589e-06
-2.77214e-05
-4.98291e-05
-7.04599e-05
-8.94997e-05
-0.000106861
-0.000122483
-0.000136333
-0.000148407
-0.000158723
-0.000167329
-0.000174293
-0.000179703
-0.000183663
-0.000186291
-0.000187712
-0.00018806
-0.000187467
-0.000186066
-0.000183986
-0.000181348
-0.000178266
-0.000174845
-0.000171177
-0.000167346
-0.000163424
-0.000159472
-0.000155542
-0.000151675
-0.000147904
-0.000144257
-0.000140751
-0.0001374
-0.000134212
-0.000131193
-0.000128341
-0.000125656
-0.000123132
-0.000120762
-0.000118539
-0.000116452
-0.00011449
-0.000112642
-0.000110893
-0.000109231
-0.000107638
-0.000106099
-0.000104597
-0.000103113
-0.000101627
-0.000100118
-9.85642e-05
-9.69414e-05
-9.52251e-05
-9.33899e-05
-9.14096e-05
-8.92581e-05
-8.69103e-05
-8.4343e-05
-8.15361e-05
-7.84741e-05
-7.51475e-05
-7.15544e-05
-6.77017e-05
-6.36058e-05
-5.92933e-05
-5.4801e-05
-5.01753e-05
-4.54707e-05
-4.07487e-05
-3.60751e-05
-3.15179e-05
-2.71445e-05
-2.30186e-05
-1.91981e-05
-1.57319e-05
-1.26588e-05
-1.00057e-05
-7.78616e-06
-5.99906e-06
-4.6239e-06
-3.6104e-06
-2.86657e-06
-2.34987e-06
0.00031552
0.000306465
0.000295537
0.000282282
0.000266612
0.000248797
0.000229197
0.000208145
0.00018595
0.000162906
0.000139302
0.000115411
9.14923e-05
6.77845e-05
4.45103e-05
2.18742e-05
6.23215e-08
-2.07583e-05
-4.04406e-05
-5.8859e-05
-7.59098e-05
-9.15125e-05
-0.00010561
-0.00011817
-0.000129183
-0.000138661
-0.000146641
-0.000153177
-0.000158339
-0.000162215
-0.000164902
-0.000166507
-0.00016714
-0.000166917
-0.000165951
-0.000164353
-0.00016223
-0.000159682
-0.0001568
-0.00015367
-0.000150365
-0.000146952
-0.000143487
-0.000140018
-0.000136584
-0.000133219
-0.000129947
-0.000126788
-0.000123756
-0.000120859
-0.000118105
-0.000115494
-0.000113026
-0.000110698
-0.000108504
-0.000106439
-0.000104493
-0.000102657
-0.000100921
-9.92737e-05
-9.77016e-05
-9.61915e-05
-9.47292e-05
-9.32993e-05
-9.18855e-05
-9.04704e-05
-8.90357e-05
-8.75621e-05
-8.60295e-05
-8.44167e-05
-8.27023e-05
-8.08645e-05
-7.88818e-05
-7.67337e-05
-7.44017e-05
-7.18699e-05
-6.91267e-05
-6.61652e-05
-6.29851e-05
-5.95933e-05
-5.60045e-05
-5.22417e-05
-4.83361e-05
-4.43266e-05
-4.02587e-05
-3.61832e-05
-3.21542e-05
-2.82273e-05
-2.4457e-05
-2.08946e-05
-1.75859e-05
-1.45694e-05
-1.18742e-05
-9.51902e-06
-7.51e-06
-5.8394e-06
-4.48265e-06
-3.39491e-06
-2.51364e-06
-1.80475e-06
0.000272146
0.000264347
0.000255048
0.000243847
0.000230638
0.000215621
0.000199073
0.000181259
0.000162428
0.000142825
0.00012269
0.000102258
8.17498e-05
6.13747e-05
4.13258e-05
2.17819e-05
2.90585e-06
-1.51559e-05
-3.22744e-05
-4.83389e-05
-6.32576e-05
-7.69585e-05
-8.93895e-05
-0.000100519
-0.000110334
-0.000118842
-0.00012607
-0.000132057
-0.000136861
-0.000140552
-0.000143207
-0.000144914
-0.000145766
-0.000145857
-0.000145283
-0.000144137
-0.00014251
-0.000140488
-0.00013815
-0.000135571
-0.000132815
-0.000129942
-0.000127002
-0.000124039
-0.000121089
-0.000118184
-0.000115346
-0.000112595
-0.000109945
-0.000107407
-0.000104985
-0.000102684
-0.000100504
-9.8443e-05
-9.64977e-05
-9.46629e-05
-9.29318e-05
-9.12966e-05
-8.97484e-05
-8.82772e-05
-8.68722e-05
-8.55219e-05
-8.42135e-05
-8.29336e-05
-8.16681e-05
-8.04017e-05
-7.91185e-05
-7.78017e-05
-7.64337e-05
-7.49963e-05
-7.3471e-05
-7.18392e-05
-7.00827e-05
-6.81841e-05
-6.61278e-05
-6.39007e-05
-6.14929e-05
-5.88991e-05
-5.61189e-05
-5.31583e-05
-5.00296e-05
-4.67519e-05
-4.33514e-05
-3.98604e-05
-3.63169e-05
-3.27632e-05
-2.92444e-05
-2.58068e-05
-2.24959e-05
-1.93548e-05
-1.64218e-05
-1.3729e-05
-1.13007e-05
-9.15208e-06
-7.28763e-06
-5.70017e-06
-4.36961e-06
-3.26211e-06
-2.33144e-06
-1.52386e-06
0.000227479
0.000220966
0.000213283
0.000204094
0.000193292
0.000181017
0.000167479
0.000152878
0.000137408
0.000121265
0.000104642
8.77306e-05
7.07156e-05
5.37703e-05
3.70576e-05
2.07283e-05
4.92051e-06
-1.02416e-05
-2.46481e-05
-3.82043e-05
-5.08314e-05
-6.24666e-05
-7.30639e-05
-8.25935e-05
-9.1042e-05
-9.84119e-05
-0.00010472
-0.000109998
-0.000114288
-0.000117644
-0.000120129
-0.00012181
-0.000122762
-0.000123062
-0.000122787
-0.000122013
-0.000120815
-0.000119264
-0.000117428
-0.000115368
-0.00011314
-0.000110794
-0.000108374
-0.000105918
-0.000103459
-0.000101024
-9.86355e-05
-9.63101e-05
-9.40616e-05
-9.18997e-05
-8.98311e-05
-8.78595e-05
-8.59863e-05
-8.42109e-05
-8.25309e-05
-8.09424e-05
-7.94403e-05
-7.80182e-05
-7.6669e-05
-7.53843e-05
-7.41553e-05
-7.29721e-05
-7.18241e-05
-7.07002e-05
-6.95883e-05
-6.84756e-05
-6.7349e-05
-6.61942e-05
-6.49969e-05
-6.3742e-05
-6.24144e-05
-6.09989e-05
-5.9481e-05
-5.78469e-05
-5.60843e-05
-5.41829e-05
-5.21356e-05
-4.99383e-05
-4.75915e-05
-4.51002e-05
-4.24749e-05
-3.97311e-05
-3.68898e-05
-3.39771e-05
-3.10232e-05
-2.80617e-05
-2.51285e-05
-2.22601e-05
-1.94927e-05
-1.68605e-05
-1.4394e-05
-1.21188e-05
-1.00544e-05
-8.21282e-06
-6.59787e-06
-5.20379e-06
-4.01438e-06
-3.00133e-06
-2.12307e-06
-1.32231e-06
0.000181262
0.000176068
0.000169995
0.000162778
0.000154321
0.000144722
0.000134131
0.000122695
0.00011056
9.78709e-05
8.47788e-05
7.14323e-05
5.79756e-05
4.45466e-05
3.12748e-05
1.82811e-05
5.67626e-06
-6.43964e-06
-1.79779e-05
-2.88617e-05
-3.90268e-05
-4.84216e-05
-5.70074e-05
-6.47587e-05
-7.16623e-05
-7.77177e-05
-8.29357e-05
-8.7338e-05
-9.09559e-05
-9.38291e-05
-9.60041e-05
-9.75332e-05
-9.84725e-05
-9.88808e-05
-9.88179e-05
-9.83437e-05
-9.75166e-05
-9.63928e-05
-9.50254e-05
-9.34638e-05
-9.1753e-05
-8.9934e-05
-8.80427e-05
-8.61108e-05
-8.41654e-05
-8.22293e-05
-8.03215e-05
-7.8457e-05
-7.66478e-05
-7.49027e-05
-7.3228e-05
-7.16275e-05
-7.01031e-05
-6.86549e-05
-6.72817e-05
-6.59806e-05
-6.4748e-05
-6.35791e-05
-6.24681e-05
-6.14089e-05
-6.03942e-05
-5.94162e-05
-5.84666e-05
-5.75363e-05
-5.66159e-05
-5.56951e-05
-5.47633e-05
-5.38094e-05
-5.28219e-05
-5.1789e-05
-5.06988e-05
-4.95395e-05
-4.82998e-05
-4.69691e-05
-4.55379e-05
-4.39987e-05
-4.23458e-05
-4.05764e-05
-3.8691e-05
-3.66937e-05
-3.45924e-05
-3.23991e-05
-3.013e-05
-2.78051e-05
-2.54476e-05
-2.30834e-05
-2.07397e-05
-1.84445e-05
-1.62255e-05
-1.41093e-05
-1.21192e-05
-1.02753e-05
-8.59241e-06
-7.08007e-06
-5.74103e-06
-4.57056e-06
-3.55529e-06
-2.67155e-06
-1.88505e-06
-1.14672e-06
0.000133146
0.000129327
0.00012489
0.000119645
0.000113521
0.000106578
9.89176e-05
9.06419e-05
8.18495e-05
7.26431e-05
6.31289e-05
5.34134e-05
4.36007e-05
3.3791e-05
2.40791e-05
1.45537e-05
5.29656e-06
-3.61827e-06
-1.2125e-05
-2.01663e-05
-2.76941e-05
-3.46694e-05
-4.10627e-05
-4.68536e-05
-5.20313e-05
-5.65934e-05
-6.05463e-05
-6.39039e-05
-6.66874e-05
-6.89238e-05
-7.06456e-05
-7.18892e-05
-7.26943e-05
-7.31027e-05
-7.3157e-05
-7.29004e-05
-7.2375e-05
-7.16217e-05
-7.06793e-05
-6.95842e-05
-6.83698e-05
-6.70665e-05
-6.57015e-05
-6.42987e-05
-6.28786e-05
-6.1459e-05
-6.00545e-05
-5.86771e-05
-5.73361e-05
-5.60388e-05
-5.47905e-05
-5.35945e-05
-5.24528e-05
-5.13658e-05
-5.03329e-05
-4.93524e-05
-4.84218e-05
-4.75378e-05
-4.66962e-05
-4.58926e-05
-4.51217e-05
-4.43779e-05
-4.36549e-05
-4.29463e-05
-4.22449e-05
-4.15433e-05
-4.08336e-05
-4.01079e-05
-3.93576e-05
-3.85743e-05
-3.77493e-05
-3.68742e-05
-3.59409e-05
-3.4942e-05
-3.38707e-05
-3.27218e-05
-3.14916e-05
-3.01781e-05
-2.8782e-05
-2.73061e-05
-2.57565e-05
-2.41416e-05
-2.2473e-05
-2.07648e-05
-1.90336e-05
-1.72984e-05
-1.55778e-05
-1.38913e-05
-1.22588e-05
-1.06989e-05
-9.22817e-06
-7.86066e-06
-6.6071e-06
-5.47411e-06
-4.46356e-06
-3.57187e-06
-2.78918e-06
-2.09834e-06
-1.47557e-06
-8.87436e-07
8.23334e-05
7.99661e-05
7.72266e-05
7.40034e-05
7.02522e-05
6.60067e-05
6.13255e-05
5.62674e-05
5.08905e-05
4.52558e-05
3.94269e-05
3.34681e-05
2.74425e-05
2.14115e-05
1.54331e-05
9.56203e-06
3.84869e-06
-1.66105e-06
-6.92634e-06
-1.19116e-05
-1.65867e-05
-2.09271e-05
-2.49143e-05
-2.8535e-05
-3.17818e-05
-3.46526e-05
-3.71505e-05
-3.92832e-05
-4.10629e-05
-4.25053e-05
-4.36297e-05
-4.44576e-05
-4.50126e-05
-4.532e-05
-4.54053e-05
-4.52947e-05
-4.50138e-05
-4.45877e-05
-4.404e-05
-4.33933e-05
-4.26683e-05
-4.18839e-05
-4.10571e-05
-4.02029e-05
-3.93345e-05
-3.8463e-05
-3.75979e-05
-3.6747e-05
-3.59164e-05
-3.51109e-05
-3.43341e-05
-3.35883e-05
-3.28751e-05
-3.21948e-05
-3.15474e-05
-3.09319e-05
-3.03468e-05
-2.97903e-05
-2.926e-05
-2.87529e-05
-2.82661e-05
-2.7796e-05
-2.73388e-05
-2.68905e-05
-2.64468e-05
-2.6003e-05
-2.55544e-05
-2.5096e-05
-2.46226e-05
-2.41291e-05
-2.36102e-05
-2.30609e-05
-2.24762e-05
-2.18516e-05
-2.11832e-05
-2.04678e-05
-1.97031e-05
-1.88882e-05
-1.80233e-05
-1.71102e-05
-1.61525e-05
-1.51553e-05
-1.41254e-05
-1.30712e-05
-1.20026e-05
-1.09336e-05
-9.87088e-06
-8.8275e-06
-7.81642e-06
-6.84865e-06
-5.93404e-06
-5.08115e-06
-4.29652e-06
-3.58421e-06
-2.94538e-06
-2.37792e-06
-1.8759e-06
-1.42887e-06
-1.02159e-06
-6.25991e-07
2.82399e-05
2.74215e-05
2.64651e-05
2.53437e-05
2.40448e-05
2.25792e-05
2.09659e-05
1.92245e-05
1.73747e-05
1.54372e-05
1.34337e-05
1.13861e-05
9.316e-06
7.24446e-06
5.19142e-06
3.17564e-06
1.21443e-06
-6.76502e-07
-2.48316e-06
-4.1934e-06
-5.79696e-06
-7.28554e-06
-8.6528e-06
-9.89433e-06
-1.10077e-05
-1.19922e-05
-1.28489e-05
-1.35806e-05
-1.41914e-05
-1.46867e-05
-1.50731e-05
-1.53579e-05
-1.55492e-05
-1.56555e-05
-1.56857e-05
-1.56485e-05
-1.55528e-05
-1.5407e-05
-1.52193e-05
-1.49973e-05
-1.47482e-05
-1.44784e-05
-1.41937e-05
-1.38993e-05
-1.35998e-05
-1.3299e-05
-1.30001e-05
-1.27059e-05
-1.24185e-05
-1.21396e-05
-1.18704e-05
-1.16117e-05
-1.1364e-05
-1.11277e-05
-1.09025e-05
-1.06882e-05
-1.04843e-05
-1.02901e-05
-1.01048e-05
-9.92747e-06
-9.75697e-06
-9.59212e-06
-9.43161e-06
-9.27404e-06
-9.11791e-06
-8.96166e-06
-8.80364e-06
-8.64214e-06
-8.47542e-06
-8.30171e-06
-8.11924e-06
-7.92628e-06
-7.72122e-06
-7.50253e-06
-7.26894e-06
-7.01939e-06
-6.75318e-06
-6.47e-06
-6.16999e-06
-5.85379e-06
-5.52256e-06
-5.17795e-06
-4.822e-06
-4.45681e-06
-4.08169e-06
-3.72554e-06
-3.36268e-06
-3.00377e-06
-2.65605e-06
-2.32331e-06
-2.00864e-06
-1.71488e-06
-1.44422e-06
-1.19802e-06
-9.76685e-07
-7.7966e-07
-6.05475e-07
-4.52294e-07
-3.20383e-07
-2.16917e-07
0.000126051
0.000128894
0.000135205
0.000144548
0.000156566
0.000171176
0.000188427
0.000208401
0.000231203
0.00025697
0.000285887
0.000318192
0.000354187
0.000394263
0.000438922
0.000488829
0.000544878
0.000608307
0.000680888
0.00076526
0.000865587
0.0009889
0.00114821
0.001372
0.00172069
0.000125338
0.000128012
0.00013413
0.00014327
0.000155066
0.000169428
0.000186398
0.000206052
0.000228485
0.000253825
0.000282243
0.000313958
0.00034925
0.000388471
0.000432073
0.000480642
0.000534951
0.000596032
0.000665297
0.000744705
0.000836975
0.000945735
0.0010748
0.00122297
0.00136012
0.000124128
0.000126712
0.000132689
0.000141664
0.000153266
0.0001674
0.000184101
0.000203441
0.000225505
0.00025041
0.000278311
0.000309405
0.00034394
0.000382225
0.000424643
0.000471679
0.000523944
0.000582207
0.000647426
0.000720737
0.000803308
0.00089574
0.000996163
0.00109505
0.00116455
0.00012231
0.000124805
0.000130607
0.000139352
0.000150677
0.00016448
0.000180791
0.000199671
0.000221194
0.000245462
0.000272605
0.000302791
0.000336223
0.000373145
0.000413852
0.000458692
0.00050807
0.000562431
0.000622214
0.000687713
0.000758737
0.00083384
0.000908742
0.000973614
0.00101021
0.000119767
0.000122169
0.00012777
0.00013624
0.000147226
0.000160623
0.000176451
0.00019476
0.00021561
0.000239081
0.000265277
0.000294327
0.000326378
0.000361603
0.000400187
0.000442324
0.000488195
0.000537915
0.000591441
0.000648379
0.000707633
0.000766801
0.000821281
0.000863325
0.000882052
0.000116369
0.00011867
0.00012404
0.00013218
0.000142752
0.000155644
0.000170868
0.000188461
0.000208465
0.000230937
0.000255946
0.000283577
0.000313918
0.000347056
0.000383061
0.000421972
0.000463749
0.000508218
0.000554957
0.000603121
0.000651183
0.000696583
0.000735384
0.000762197
0.0007709
0.000111972
0.000114158
0.000119262
0.000127009
0.000137077
0.000149356
0.000163843
0.000180562
0.000199536
0.000220794
0.000244371
0.000270302
0.000298612
0.000329302
0.000362333
0.000397596
0.000434871
0.000473765
0.000513613
0.000553361
0.000591414
0.000625498
0.000652621
0.000669296
0.000672192
0.000106418
0.000108471
0.000113265
0.000120547
0.000130015
0.000141556
0.000155159
0.00017083
0.000188573
0.000208389
0.000230276
0.000254221
0.000280187
0.000308096
0.000337813
0.000369114
0.000401647
0.000434885
0.00046806
0.000500096
0.000529555
0.000554619
0.000573181
0.000583089
0.000582593
9.95378e-05
0.000101436
0.00010587
0.000112607
0.000121366
0.000132036
0.000144594
0.000159032
0.000175333
0.000193472
0.000213412
0.000235097
0.000258435
0.000283286
0.000309442
0.000336599
0.000364334
0.00039207
0.000419043
0.000444281
0.000466599
0.000484651
0.000497027
0.000502456
0.000500054
9.11567e-05
9.28721e-05
9.68863e-05
0.000102988
0.00011092
0.000120572
0.000131913
0.000144922
0.000159564
0.00017579
0.000193536
0.000212709
0.000233178
0.00025476
0.0002772
0.000300162
0.000323202
0.000345761
0.000367155
0.000386573
0.000403111
0.000415824
0.000423814
0.000426359
0.000423039
8.33066e-05
8.48607e-05
8.85011e-05
9.40325e-05
0.000101218
0.000109954
0.000120206
0.000131942
0.000145118
0.000159672
0.000175524
0.000192565
0.000210645
0.000229565
0.000249061
0.000268796
0.000288348
0.000307206
0.000324773
0.000340378
0.000353311
0.000362872
0.000368439
0.00036956
0.000366039
7.65997e-05
7.80229e-05
8.13523e-05
8.64075e-05
9.29703e-05
0.000100943
0.000110289
0.000120971
0.000132938
0.000146122
0.000160435
0.000175759
0.000191938
0.000208766
0.000225984
0.000243265
0.000260215
0.000276369
0.000291206
0.000304161
0.000314658
0.000322157
0.000326205
0.000326501
0.000322937
6.87945e-05
7.00681e-05
7.30417e-05
7.75538e-05
8.34081e-05
9.05144e-05
9.88338e-05
0.000108327
0.00011894
0.000130601
0.000143216
0.000156667
0.000170797
0.000185405
0.000200243
0.000215009
0.000229347
0.000242852
0.000255081
0.000265574
0.000273881
0.000279598
0.000282406
0.00028211
0.000278669
5.97408e-05
6.0843e-05
6.34116e-05
6.73063e-05
7.23563e-05
7.84806e-05
8.56412e-05
9.37983e-05
0.000102897
0.000112867
0.000123616
0.000135029
0.000146957
0.000159215
0.000171577
0.000183777
0.000195508
0.000206431
0.000216187
0.000224416
0.000230779
0.000234985
0.000236819
0.000236166
0.000233022
4.92846e-05
5.01916e-05
5.23006e-05
5.54957e-05
5.96356e-05
6.46515e-05
7.05087e-05
7.71697e-05
8.4584e-05
9.26859e-05
0.000101393
0.0001106
0.000120176
0.000129962
0.000139764
0.000149362
0.000158507
0.000166931
0.000174359
0.000180523
0.00018518
0.000188131
0.000189238
0.000188437
0.000185746
3.72789e-05
3.79643e-05
3.95536e-05
4.1959e-05
4.50733e-05
4.88432e-05
5.32404e-05
5.82336e-05
6.37807e-05
6.98278e-05
7.63071e-05
8.31342e-05
9.0205e-05
9.73937e-05
0.000104553
0.000111514
0.000118095
0.0001241
0.000129336
0.000133618
0.000136785
0.00013871
0.000139311
0.000138557
0.000136474
2.35987e-05
2.40336e-05
2.50379e-05
2.65555e-05
2.85187e-05
3.08933e-05
3.36601e-05
3.67979e-05
4.02782e-05
4.40646e-05
4.81118e-05
5.23638e-05
5.67523e-05
6.11957e-05
6.55996e-05
6.98583e-05
7.38578e-05
7.74799e-05
8.06085e-05
8.31361e-05
8.49708e-05
8.6043e-05
8.63105e-05
8.5762e-05
8.44168e-05
8.16613e-06
8.31838e-06
8.66791e-06
9.19494e-06
9.87614e-06
1.06996e-05
1.16586e-05
1.27456e-05
1.39503e-05
1.52597e-05
1.66577e-05
1.81243e-05
1.96353e-05
2.1162e-05
2.26713e-05
2.41264e-05
2.54879e-05
2.67154e-05
2.77697e-05
2.86148e-05
2.92205e-05
2.95644e-05
2.96337e-05
2.94266e-05
2.89521e-05
)
;

boundaryField
{
    top
    {
        type            fixedValue;
        value           uniform 0;
    }
    inlet
    {
        type            zeroGradient;
    }
    outlet
    {
        type            fixedValue;
        value           uniform 0;
    }
    plate
    {
        type            zeroGradient;
    }
    symmBound
    {
        type            zeroGradient;
    }
    frontAndBack
    {
        type            empty;
    }
}


// ************************************************************************* //
