/*--------------------------------*- C++ -*----------------------------------*\
| =========                 |                                                 |
| \\      /  F ield         | OpenFOAM: The Open Source CFD Toolbox           |
|  \\    /   O peration     | Version:  2.3.0                                 |
|   \\  /    A nd           | Web:      www.OpenFOAM.org                      |
|    \\/     M anipulation  |                                                 |
\*---------------------------------------------------------------------------*/
FoamFile
{
    version     2.0;
    format      ascii;
    class       surfaceScalarField;
    location    "0.35";
    object      phi_0;
}
// * * * * * * * * * * * * * * * * * * * * * * * * * * * * * * * * * * * * * //

dimensions      [0 3 -1 0 0 0 0];

internalField   nonuniform List<scalar> 
4357
(
4.99656e-08
2.04715e-09
-5.20127e-08
4.78111e-08
2.15446e-09
4.56468e-08
2.16425e-09
4.34985e-08
2.1483e-09
4.13783e-08
2.12021e-09
3.92971e-08
2.08123e-09
3.72636e-08
2.0335e-09
3.52846e-08
1.97899e-09
3.33656e-08
1.91901e-09
3.15113e-08
1.85427e-09
2.9726e-08
1.78529e-09
2.80136e-08
1.71249e-09
2.63772e-08
1.63633e-09
2.482e-08
1.55727e-09
2.33441e-08
1.47584e-09
2.19515e-08
1.39262e-09
2.06433e-08
1.30823e-09
1.94199e-08
1.22337e-09
1.82811e-08
1.13876e-09
1.7226e-08
1.05512e-09
1.62528e-08
9.73194e-10
1.53591e-08
8.93684e-10
1.45419e-08
8.17245e-10
1.37974e-08
7.44458e-10
1.31216e-08
6.75816e-10
1.25099e-08
6.11705e-10
1.19575e-08
5.52398e-10
1.14595e-08
4.9805e-10
1.10108e-08
4.48702e-10
1.06065e-08
4.04288e-10
1.02418e-08
3.64651e-10
9.91229e-09
3.2955e-10
9.6136e-09
2.98688e-10
9.34188e-09
2.71721e-10
9.0936e-09
2.48279e-10
8.86562e-09
2.27981e-10
8.65517e-09
2.1045e-10
8.45985e-09
1.95321e-10
8.27759e-09
1.82253e-10
8.10666e-09
1.70932e-10
7.94558e-09
1.61076e-10
7.79315e-09
1.52435e-10
7.64835e-09
1.44794e-10
7.51038e-09
1.37971e-10
7.37857e-09
1.31811e-10
7.25239e-09
1.26187e-10
7.13139e-09
1.20997e-10
7.01523e-09
1.16158e-10
6.90363e-09
1.11603e-10
6.79634e-09
1.07283e-10
6.69319e-09
1.03159e-10
6.59398e-09
9.92004e-11
6.4986e-09
9.53847e-11
6.40691e-09
9.16948e-11
6.31879e-09
8.81177e-11
6.23414e-09
8.46431e-11
6.15288e-09
8.12629e-11
6.07491e-09
7.79703e-11
6.00015e-09
7.47592e-11
5.92853e-09
7.16242e-11
5.85997e-09
6.85604e-11
5.7944e-09
6.55629e-11
5.73178e-09
6.26271e-11
5.67203e-09
5.97485e-11
5.61511e-09
5.69224e-11
5.56096e-09
5.41441e-11
5.50955e-09
5.14078e-11
5.46085e-09
4.8707e-11
5.41481e-09
4.60335e-11
5.37144e-09
4.33777e-11
5.33071e-09
4.07285e-11
5.29263e-09
3.80745e-11
5.25723e-09
3.54053e-11
5.22451e-09
3.27138e-11
5.19452e-09
2.99981e-11
5.16725e-09
2.72642e-11
5.14272e-09
2.45269e-11
5.12091e-09
2.18114e-11
5.10176e-09
1.9152e-11
5.08517e-09
1.65905e-11
5.071e-09
1.41739e-11
5.05905e-09
1.1951e-11
5.04908e-09
9.96905e-12
5.04081e-09
8.27033e-12
5.03392e-09
6.88934e-12
5.02807e-09
5.85014e-12
5.0229e-09
5.16429e-12
5.01807e-09
4.82977e-12
5.01324e-09
4.83047e-12
5.00811e-09
5.13633e-12
5.0024e-09
5.70392e-12
4.99592e-09
6.47809e-12
4.98852e-09
7.40144e-12
4.9801e-09
8.42621e-12
4.9706e-09
9.49244e-12
4.96007e-09
1.0534e-11
4.94852e-09
1.15528e-11
4.93589e-09
1.26249e-11
4.92188e-09
1.40118e-11
3.00503e-11
5.77118e-08
2.15746e-09
-5.78221e-08
5.7469e-08
2.39722e-09
5.70919e-08
2.5414e-09
5.66012e-08
2.639e-09
5.60115e-08
2.70992e-09
5.53343e-08
2.75838e-09
5.45808e-08
2.78701e-09
5.37611e-08
2.79868e-09
5.28846e-08
2.79551e-09
5.196e-08
2.77886e-09
5.09956e-08
2.74973e-09
4.99991e-08
2.70897e-09
4.8978e-08
2.65746e-09
4.79392e-08
2.59608e-09
4.68892e-08
2.52578e-09
4.58343e-08
2.44759e-09
4.47799e-08
2.36261e-09
4.37312e-08
2.27203e-09
4.26929e-08
2.17708e-09
4.1669e-08
2.07905e-09
4.0663e-08
1.9792e-09
3.96779e-08
1.87879e-09
3.87161e-08
1.77901e-09
3.77796e-08
1.68095e-09
3.68699e-08
1.58558e-09
3.59878e-08
1.49372e-09
3.51342e-08
1.40605e-09
3.43092e-08
1.32306e-09
3.35128e-08
1.24509e-09
3.27447e-08
1.17232e-09
3.20046e-08
1.10479e-09
3.12917e-08
1.04243e-09
3.06054e-08
9.85037e-10
2.99447e-08
9.32366e-10
2.93089e-08
8.84101e-10
2.8697e-08
8.39892e-10
2.81081e-08
7.99374e-10
2.75412e-08
7.62181e-10
2.69955e-08
7.27954e-10
2.64701e-08
6.96357e-10
2.59641e-08
6.67077e-10
2.54767e-08
6.39829e-10
2.50071e-08
6.14359e-10
2.45547e-08
5.90447e-10
2.41186e-08
5.67901e-10
2.36982e-08
5.46553e-10
2.32929e-08
5.26262e-10
2.29022e-08
5.06908e-10
2.25254e-08
4.88388e-10
2.21621e-08
4.70616e-10
2.18117e-08
4.53522e-10
2.14739e-08
4.37042e-10
2.11481e-08
4.21125e-10
2.08341e-08
4.05724e-10
2.05314e-08
3.90799e-10
2.02397e-08
3.76314e-10
1.99588e-08
3.62236e-10
1.96882e-08
3.48535e-10
1.94278e-08
3.35182e-10
1.91773e-08
3.22151e-10
1.89364e-08
3.09416e-10
1.8705e-08
2.96954e-10
1.84829e-08
2.84741e-10
1.82699e-08
2.72757e-10
1.80658e-08
2.6098e-10
1.78706e-08
2.49389e-10
1.7684e-08
2.37963e-10
1.75061e-08
2.2668e-10
1.73366e-08
2.15517e-10
1.71755e-08
2.04449e-10
1.70228e-08
1.93455e-10
1.68783e-08
1.82516e-10
1.67421e-08
1.71621e-10
1.66141e-08
1.60774e-10
1.64941e-08
1.49996e-10
1.6382e-08
1.39332e-10
1.62777e-08
1.28856e-10
1.61808e-08
1.18664e-10
1.60911e-08
1.08878e-10
1.6008e-08
9.96393e-11
1.59311e-08
9.10953e-11
1.58597e-08
8.33951e-11
1.5793e-08
7.66768e-11
1.57302e-08
7.10589e-11
1.56704e-08
6.66318e-11
1.56128e-08
6.34511e-11
1.55565e-08
6.1532e-11
1.55004e-08
6.08468e-11
1.5444e-08
6.13226e-11
1.53862e-08
6.28443e-11
1.53267e-08
6.52586e-11
1.52648e-08
6.83817e-11
1.52002e-08
7.20132e-11
1.51326e-08
7.59593e-11
1.50621e-08
8.00389e-11
1.49885e-08
8.41001e-11
1.4912e-08
8.81051e-11
1.48323e-08
9.23006e-11
1.47472e-08
9.91226e-11
1.21377e-10
6.27605e-08
2.14991e-09
-6.2753e-08
6.27724e-08
2.3853e-09
6.2756e-08
2.55778e-09
6.27031e-08
2.69197e-09
6.261e-08
2.80294e-09
6.24737e-08
2.89468e-09
6.22923e-08
2.96845e-09
6.20652e-08
3.02573e-09
6.17929e-08
3.06782e-09
6.14763e-08
3.09554e-09
6.11166e-08
3.10942e-09
6.07156e-08
3.1099e-09
6.02756e-08
3.09746e-09
5.97991e-08
3.07265e-09
5.92887e-08
3.03617e-09
5.87474e-08
2.98883e-09
5.81785e-08
2.93157e-09
5.7585e-08
2.86548e-09
5.69703e-08
2.79179e-09
5.63376e-08
2.71178e-09
5.56899e-08
2.62682e-09
5.50305e-08
2.53827e-09
5.4362e-08
2.4475e-09
5.36871e-08
2.3558e-09
5.30083e-08
2.26436e-09
5.23278e-08
2.17425e-09
5.16475e-08
2.08639e-09
5.0969e-08
2.00152e-09
5.02939e-08
1.92021e-09
4.96233e-08
1.84288e-09
4.89584e-08
1.76977e-09
4.82998e-08
1.70099e-09
4.76483e-08
1.63652e-09
4.70044e-08
1.57624e-09
4.63686e-08
1.51994e-09
4.57411e-08
1.46738e-09
4.51222e-08
1.41826e-09
4.45121e-08
1.37227e-09
4.3911e-08
1.3291e-09
4.33189e-08
1.28843e-09
4.2736e-08
1.24998e-09
4.21624e-08
1.21347e-09
4.15981e-08
1.17867e-09
4.10432e-08
1.14534e-09
4.04978e-08
1.1133e-09
3.9962e-08
1.08238e-09
3.94358e-08
1.05243e-09
3.89194e-08
1.02334e-09
3.84127e-08
9.95006e-10
3.7916e-08
9.67335e-10
3.74293e-08
9.40256e-10
3.69526e-08
9.13706e-10
3.64861e-08
8.87634e-10
3.60298e-08
8.61993e-10
3.55839e-08
8.36742e-10
3.51484e-08
8.11847e-10
3.47233e-08
7.87275e-10
3.43089e-08
7.62994e-10
3.39051e-08
7.38978e-10
3.3512e-08
7.15198e-10
3.31298e-08
6.91631e-10
3.27585e-08
6.68251e-10
3.23982e-08
6.45036e-10
3.2049e-08
6.21963e-10
3.1711e-08
5.9901e-10
3.13842e-08
5.76157e-10
3.10688e-08
5.53381e-10
3.07648e-08
5.30661e-10
3.04724e-08
5.07977e-10
3.01915e-08
4.8531e-10
2.99223e-08
4.62649e-10
2.96648e-08
4.39993e-10
2.94191e-08
4.1736e-10
2.91851e-08
3.94795e-10
2.89627e-08
3.72374e-10
2.87518e-08
3.50214e-10
2.85522e-08
3.28477e-10
2.83635e-08
3.07365e-10
2.81852e-08
2.87116e-10
2.80169e-08
2.67996e-10
2.78577e-08
2.50283e-10
2.77068e-08
2.34252e-10
2.75634e-08
2.20158e-10
2.74262e-08
2.08218e-10
2.72942e-08
1.98599e-10
2.71663e-08
1.91405e-10
2.70412e-08
1.86666e-10
2.69177e-08
1.84337e-10
2.67947e-08
1.84291e-10
2.66712e-08
1.86324e-10
2.65463e-08
1.90166e-10
2.64192e-08
1.95494e-10
2.62893e-08
2.0195e-10
2.6156e-08
2.09175e-10
2.60192e-08
2.16831e-10
2.58787e-08
2.24649e-10
2.57343e-08
2.3254e-10
2.55856e-08
2.40969e-10
2.5432e-08
2.52733e-10
2.73969e-10
6.80027e-08
2.17359e-09
-6.80263e-08
6.80071e-08
2.38084e-09
6.80144e-08
2.55054e-09
6.80153e-08
2.69098e-09
6.80072e-08
2.81104e-09
6.79875e-08
2.91445e-09
6.79535e-08
3.00244e-09
6.79031e-08
3.07608e-09
6.78346e-08
3.13637e-09
6.77461e-08
3.18399e-09
6.76362e-08
3.21932e-09
6.75035e-08
3.24261e-09
6.73469e-08
3.25409e-09
6.71655e-08
3.25402e-09
6.69589e-08
3.24278e-09
6.67269e-08
3.22085e-09
6.64696e-08
3.18887e-09
6.61875e-08
3.14761e-09
6.58813e-08
3.09798e-09
6.5552e-08
3.04102e-09
6.5201e-08
2.97786e-09
6.48296e-08
2.90969e-09
6.44393e-08
2.83773e-09
6.4032e-08
2.76317e-09
6.36091e-08
2.68718e-09
6.31726e-08
2.6108e-09
6.2724e-08
2.535e-09
6.22649e-08
2.46059e-09
6.17969e-08
2.38824e-09
6.13213e-08
2.31847e-09
6.08394e-08
2.25165e-09
6.03524e-08
2.18802e-09
5.98612e-08
2.1277e-09
5.93668e-08
2.07068e-09
5.88698e-08
2.01688e-09
5.83711e-08
1.96615e-09
5.78711e-08
1.91828e-09
5.73703e-08
1.87305e-09
5.68692e-08
1.83019e-09
5.63681e-08
1.78946e-09
5.58675e-08
1.75059e-09
5.53677e-08
1.71334e-09
5.48689e-08
1.67748e-09
5.43714e-08
1.64281e-09
5.38756e-08
1.60913e-09
5.33816e-08
1.5763e-09
5.28899e-08
1.54415e-09
5.24007e-08
1.51257e-09
5.19142e-08
1.48145e-09
5.14309e-08
1.45069e-09
5.09509e-08
1.42023e-09
5.04746e-08
1.38998e-09
5.00024e-08
1.35989e-09
4.95345e-08
1.32991e-09
4.90712e-08
1.3e-09
4.8613e-08
1.27011e-09
4.816e-08
1.2402e-09
4.77128e-08
1.21025e-09
4.72715e-08
1.18023e-09
4.68366e-08
1.15009e-09
4.64084e-08
1.11982e-09
4.59873e-08
1.08939e-09
4.55736e-08
1.05878e-09
4.51676e-08
1.02795e-09
4.47697e-08
9.96896e-10
4.43802e-08
9.65592e-10
4.39996e-08
9.3402e-10
4.36281e-08
9.02165e-10
4.32661e-08
8.70016e-10
4.29138e-08
8.3757e-10
4.25716e-08
8.04838e-10
4.22398e-08
7.71851e-10
4.19184e-08
7.38667e-10
4.16079e-08
7.05386e-10
4.13081e-08
6.7215e-10
4.10191e-08
6.3916e-10
4.07409e-08
6.06669e-10
4.04733e-08
5.74985e-10
4.0216e-08
5.44463e-10
3.99685e-08
5.15489e-10
3.97303e-08
4.88466e-10
3.95008e-08
4.63788e-10
3.92791e-08
4.41822e-10
3.90644e-08
4.22889e-10
3.88558e-08
4.07236e-10
3.86522e-08
3.9503e-10
3.84525e-08
3.86337e-10
3.82557e-08
3.81118e-10
3.80608e-08
3.79227e-10
3.78667e-08
3.80413e-10
3.76725e-08
3.84332e-10
3.74775e-08
3.90566e-10
3.72808e-08
3.98647e-10
3.70818e-08
4.08093e-10
3.68802e-08
4.18446e-10
3.66755e-08
4.2933e-10
3.64675e-08
4.40584e-10
3.62559e-08
4.52586e-10
3.60417e-08
4.66955e-10
4.83926e-10
7.36449e-08
2.23235e-09
-7.37037e-08
7.36147e-08
2.4111e-09
7.35968e-08
2.56841e-09
7.3583e-08
2.70471e-09
7.35702e-08
2.82385e-09
7.35563e-08
2.92842e-09
7.35392e-08
3.01955e-09
7.35172e-08
3.09803e-09
7.3489e-08
3.16459e-09
7.34532e-08
3.2198e-09
7.34085e-08
3.26405e-09
7.33535e-08
3.29759e-09
7.32869e-08
3.32064e-09
7.32075e-08
3.3334e-09
7.31141e-08
3.33618e-09
7.30057e-08
3.32932e-09
7.28812e-08
3.31331e-09
7.27401e-08
3.28871e-09
7.25819e-08
3.25623e-09
7.24062e-08
3.21667e-09
7.22132e-08
3.17092e-09
7.20029e-08
3.11996e-09
7.17758e-08
3.06479e-09
7.15326e-08
3.00642e-09
7.12739e-08
2.94585e-09
7.10007e-08
2.88402e-09
7.07139e-08
2.82179e-09
7.04146e-08
2.75994e-09
7.01037e-08
2.69912e-09
6.97823e-08
2.63986e-09
6.94514e-08
2.58257e-09
6.91118e-08
2.52756e-09
6.87645e-08
2.475e-09
6.84102e-08
2.42497e-09
6.80496e-08
2.37747e-09
6.76833e-08
2.33243e-09
6.73119e-08
2.28973e-09
6.69358e-08
2.24918e-09
6.65554e-08
2.21061e-09
6.6171e-08
2.17379e-09
6.57831e-08
2.13852e-09
6.53918e-08
2.10459e-09
6.49975e-08
2.07178e-09
6.46004e-08
2.03992e-09
6.42007e-08
2.00882e-09
6.37987e-08
1.97832e-09
6.33946e-08
1.94828e-09
6.29886e-08
1.91857e-09
6.2581e-08
1.88907e-09
6.2172e-08
1.85968e-09
6.17619e-08
1.83033e-09
6.13509e-08
1.80092e-09
6.09395e-08
1.77138e-09
6.05277e-08
1.74166e-09
6.0116e-08
1.7117e-09
5.97046e-08
1.68145e-09
5.9294e-08
1.65085e-09
5.88844e-08
1.61987e-09
5.84762e-08
1.58845e-09
5.80697e-08
1.55657e-09
5.76653e-08
1.52419e-09
5.72635e-08
1.49126e-09
5.68645e-08
1.45776e-09
5.64688e-08
1.42366e-09
5.60767e-08
1.38893e-09
5.56888e-08
1.35355e-09
5.53053e-08
1.3175e-09
5.49267e-08
1.28076e-09
5.45534e-08
1.24334e-09
5.41857e-08
1.20523e-09
5.38241e-08
1.16648e-09
5.34688e-08
1.12714e-09
5.31201e-08
1.0873e-09
5.27784e-08
1.04711e-09
5.24438e-08
1.00677e-09
5.21164e-08
9.66525e-10
5.17964e-08
9.26716e-10
5.14836e-08
8.87725e-10
5.11781e-08
8.49989e-10
5.08796e-08
8.13981e-10
5.05879e-08
7.80193e-10
5.03026e-08
7.49106e-10
5.00232e-08
7.21173e-10
4.97493e-08
6.96787e-10
4.94803e-08
6.76268e-10
4.92155e-08
6.59833e-10
4.89542e-08
6.47593e-10
4.86958e-08
6.39532e-10
4.84395e-08
6.35514e-10
4.81847e-08
6.35281e-10
4.79305e-08
6.38464e-10
4.76765e-08
6.4461e-10
4.74219e-08
6.532e-10
4.71663e-08
6.63694e-10
4.69092e-08
6.75566e-10
4.66502e-08
6.88367e-10
4.6389e-08
7.01816e-10
4.61256e-08
7.15931e-10
4.58617e-08
7.30827e-10
7.43259e-10
7.97354e-08
2.31732e-09
-7.98204e-08
7.96751e-08
2.47144e-09
7.963e-08
2.61355e-09
7.95931e-08
2.7416e-09
7.95606e-08
2.85632e-09
7.95302e-08
2.95885e-09
7.94999e-08
3.04983e-09
7.94683e-08
3.12968e-09
7.9434e-08
3.19881e-09
7.93962e-08
3.25761e-09
7.93539e-08
3.3064e-09
7.93061e-08
3.3454e-09
7.92518e-08
3.37485e-09
7.91903e-08
3.39497e-09
7.91204e-08
3.40603e-09
7.90414e-08
3.40837e-09
7.89523e-08
3.40239e-09
7.88524e-08
3.38858e-09
7.87411e-08
3.36754e-09
7.86179e-08
3.33992e-09
7.84823e-08
3.30646e-09
7.83343e-08
3.26797e-09
7.81738e-08
3.22529e-09
7.8001e-08
3.17927e-09
7.78161e-08
3.13076e-09
7.76195e-08
3.08056e-09
7.74119e-08
3.02946e-09
7.71937e-08
2.97813e-09
7.69656e-08
2.92717e-09
7.67284e-08
2.87711e-09
7.64826e-08
2.82835e-09
7.62289e-08
2.7812e-09
7.59681e-08
2.73589e-09
7.57005e-08
2.69253e-09
7.54268e-08
2.65118e-09
7.51474e-08
2.61183e-09
7.48627e-08
2.57441e-09
7.45731e-08
2.5388e-09
7.42788e-08
2.50488e-09
7.39802e-08
2.47246e-09
7.36773e-08
2.44139e-09
7.33704e-08
2.41148e-09
7.30596e-08
2.38255e-09
7.27451e-08
2.35443e-09
7.2427e-08
2.32695e-09
7.21054e-08
2.29997e-09
7.17803e-08
2.27334e-09
7.14519e-08
2.24693e-09
7.11204e-08
2.22062e-09
7.07858e-08
2.19431e-09
7.04482e-08
2.16789e-09
7.01078e-08
2.14127e-09
6.97648e-08
2.11439e-09
6.94194e-08
2.08714e-09
6.90716e-08
2.05948e-09
6.87217e-08
2.03133e-09
6.83699e-08
2.00263e-09
6.80164e-08
1.97333e-09
6.76615e-08
1.94336e-09
6.73054e-08
1.91268e-09
6.69484e-08
1.88123e-09
6.65907e-08
1.84897e-09
6.62326e-08
1.81586e-09
6.58744e-08
1.78185e-09
6.55164e-08
1.74691e-09
6.5159e-08
1.71101e-09
6.48023e-08
1.67413e-09
6.44468e-08
1.63625e-09
6.40928e-08
1.59737e-09
6.37405e-08
1.55751e-09
6.33903e-08
1.51671e-09
6.30424e-08
1.47504e-09
6.26971e-08
1.43263e-09
6.23545e-08
1.38964e-09
6.2015e-08
1.34629e-09
6.16786e-08
1.3029e-09
6.13455e-08
1.25981e-09
6.10158e-08
1.21745e-09
6.06895e-08
1.17631e-09
6.03666e-08
1.1369e-09
6.0047e-08
1.09976e-09
5.97307e-08
1.0654e-09
5.94176e-08
1.03433e-09
5.91073e-08
1.00699e-09
5.87999e-08
9.83731e-10
5.84949e-08
9.64818e-10
5.81921e-08
9.50393e-10
5.78912e-08
9.40474e-10
5.75917e-08
9.3495e-10
5.72934e-08
9.33581e-10
5.69959e-08
9.36016e-10
5.66987e-08
9.41807e-10
5.64014e-08
9.50436e-10
5.61038e-08
9.61352e-10
5.58053e-08
9.74005e-10
5.55058e-08
9.87891e-10
5.5205e-08
1.00259e-09
5.49033e-08
1.0177e-09
5.46018e-08
1.03228e-09
1.04211e-09
8.63104e-08
2.42315e-09
-8.64162e-08
8.62245e-08
2.55735e-09
8.61532e-08
2.68479e-09
8.60917e-08
2.80316e-09
8.60362e-08
2.91176e-09
8.59845e-08
3.01059e-09
8.59345e-08
3.09977e-09
8.58849e-08
3.17937e-09
8.58341e-08
3.24953e-09
8.57813e-08
3.31042e-09
8.57255e-08
3.36222e-09
8.56658e-08
3.4051e-09
8.56014e-08
3.43924e-09
8.55315e-08
3.46485e-09
8.54554e-08
3.48216e-09
8.53723e-08
3.49146e-09
8.52816e-08
3.49311e-09
8.51826e-08
3.48754e-09
8.50749e-08
3.47525e-09
8.4958e-08
3.45681e-09
8.48317e-08
3.43283e-09
8.46956e-08
3.40401e-09
8.45499e-08
3.37105e-09
8.43945e-08
3.33468e-09
8.42296e-08
3.29564e-09
8.40555e-08
3.25464e-09
8.38726e-08
3.21235e-09
8.36814e-08
3.16938e-09
8.34822e-08
3.1263e-09
8.32758e-08
3.08358e-09
8.30625e-08
3.04163e-09
8.28429e-08
3.00076e-09
8.26176e-08
2.96121e-09
8.2387e-08
2.92315e-09
8.21515e-08
2.88667e-09
8.19115e-08
2.85181e-09
8.16674e-08
2.81855e-09
8.14193e-08
2.78683e-09
8.11676e-08
2.75656e-09
8.09125e-08
2.72762e-09
8.0654e-08
2.69989e-09
8.03923e-08
2.6732e-09
8.01274e-08
2.64742e-09
7.98594e-08
2.6224e-09
7.95884e-08
2.59799e-09
7.93143e-08
2.57405e-09
7.90372e-08
2.55045e-09
7.87571e-08
2.52706e-09
7.84739e-08
2.50376e-09
7.81878e-08
2.48045e-09
7.78986e-08
2.45702e-09
7.76065e-08
2.43337e-09
7.73115e-08
2.40941e-09
7.70136e-08
2.38507e-09
7.67128e-08
2.36026e-09
7.64093e-08
2.33489e-09
7.6103e-08
2.30891e-09
7.57941e-08
2.28224e-09
7.54826e-08
2.25482e-09
7.51687e-08
2.22657e-09
7.48525e-08
2.19745e-09
7.45341e-08
2.16738e-09
7.42136e-08
2.13633e-09
7.38912e-08
2.10423e-09
7.35671e-08
2.07105e-09
7.32413e-08
2.03676e-09
7.29142e-08
2.00131e-09
7.25857e-08
1.9647e-09
7.22562e-08
1.92692e-09
7.19257e-08
1.88799e-09
7.15944e-08
1.84797e-09
7.12625e-08
1.80693e-09
7.09302e-08
1.765e-09
7.05974e-08
1.72236e-09
7.02645e-08
1.67925e-09
6.99314e-08
1.63597e-09
6.95983e-08
1.5929e-09
6.92653e-08
1.55046e-09
6.89325e-08
1.50913e-09
6.85999e-08
1.46944e-09
6.82678e-08
1.43193e-09
6.79361e-08
1.39712e-09
6.76049e-08
1.36552e-09
6.72743e-08
1.33759e-09
6.69443e-08
1.3137e-09
6.6615e-08
1.29413e-09
6.62863e-08
1.27905e-09
6.59583e-08
1.26851e-09
6.56308e-08
1.26243e-09
6.53038e-08
1.26061e-09
6.4977e-08
1.26274e-09
6.46505e-08
1.26839e-09
6.43238e-08
1.27708e-09
6.39969e-08
1.28829e-09
6.36694e-08
1.30147e-09
6.33412e-08
1.31607e-09
6.30123e-08
1.33155e-09
6.26827e-08
1.34722e-09
6.23532e-08
1.3618e-09
1.37182e-09
9.3408e-08
2.54775e-09
-9.35326e-08
9.32992e-08
2.66612e-09
9.32034e-08
2.78062e-09
9.31173e-08
2.88929e-09
9.3038e-08
2.99101e-09
9.29634e-08
3.08521e-09
9.28916e-08
3.17157e-09
9.2821e-08
3.24992e-09
9.27504e-08
3.32017e-09
9.26785e-08
3.38228e-09
9.26045e-08
3.43631e-09
9.25272e-08
3.48232e-09
9.24461e-08
3.5204e-09
9.23602e-08
3.55071e-09
9.22689e-08
3.57343e-09
9.21716e-08
3.5888e-09
9.20676e-08
3.5971e-09
9.19564e-08
3.59871e-09
9.18377e-08
3.59403e-09
9.17109e-08
3.58355e-09
9.1576e-08
3.56779e-09
9.14326e-08
3.54733e-09
9.12809e-08
3.52277e-09
9.11208e-08
3.49475e-09
9.09526e-08
3.46389e-09
9.07764e-08
3.4308e-09
9.05927e-08
3.39609e-09
9.04018e-08
3.36031e-09
9.02041e-08
3.32397e-09
9.00002e-08
3.28751e-09
8.97905e-08
3.25133e-09
8.95755e-08
3.21575e-09
8.93557e-08
3.18102e-09
8.91315e-08
3.14732e-09
8.89033e-08
3.1148e-09
8.86716e-08
3.08354e-09
8.84366e-08
3.05355e-09
8.81986e-08
3.02482e-09
8.79579e-08
2.99732e-09
8.77145e-08
2.97097e-09
8.74687e-08
2.94568e-09
8.72206e-08
2.92134e-09
8.69702e-08
2.89784e-09
8.67175e-08
2.87505e-09
8.64626e-08
2.85286e-09
8.62056e-08
2.83114e-09
8.59462e-08
2.80977e-09
8.56846e-08
2.78864e-09
8.54208e-08
2.76764e-09
8.51545e-08
2.74666e-09
8.4886e-08
2.72561e-09
8.46149e-08
2.70437e-09
8.43415e-08
2.68288e-09
8.40655e-08
2.66102e-09
8.37871e-08
2.63873e-09
8.3506e-08
2.61592e-09
8.32224e-08
2.59251e-09
8.29363e-08
2.56842e-09
8.26475e-08
2.54359e-09
8.23561e-08
2.51794e-09
8.20621e-08
2.49141e-09
8.17656e-08
2.46393e-09
8.14665e-08
2.43545e-09
8.11648e-08
2.4059e-09
8.08606e-08
2.37525e-09
8.05539e-08
2.34345e-09
8.02448e-08
2.31047e-09
7.99332e-08
2.27629e-09
7.96192e-08
2.24092e-09
7.93028e-08
2.20437e-09
7.89841e-08
2.16669e-09
7.8663e-08
2.12798e-09
7.83397e-08
2.08835e-09
7.8014e-08
2.04799e-09
7.76862e-08
2.00713e-09
7.73561e-08
1.96606e-09
7.70238e-08
1.92514e-09
7.66895e-08
1.88478e-09
7.63532e-08
1.84544e-09
7.6015e-08
1.80762e-09
7.56752e-08
1.77183e-09
7.53337e-08
1.73858e-09
7.49909e-08
1.70836e-09
7.46468e-08
1.68162e-09
7.43018e-08
1.65872e-09
7.3956e-08
1.63995e-09
7.36095e-08
1.6255e-09
7.32626e-08
1.61544e-09
7.29153e-08
1.60972e-09
7.25677e-08
1.60819e-09
7.22199e-08
1.61058e-09
7.18718e-08
1.61651e-09
7.15233e-08
1.62556e-09
7.11744e-08
1.63723e-09
7.08248e-08
1.65099e-09
7.04746e-08
1.66629e-09
7.01237e-08
1.68252e-09
6.9772e-08
1.69891e-09
6.94194e-08
1.71432e-09
1.72682e-09
1.0107e-07
2.69053e-09
-1.01213e-07
1.0094e-07
2.7964e-09
1.00821e-07
2.89998e-09
1.0071e-07
2.99979e-09
1.00607e-07
3.0947e-09
1.00508e-07
3.18395e-09
1.00412e-07
3.267e-09
1.00319e-07
3.34349e-09
1.00226e-07
3.41316e-09
1.00132e-07
3.47585e-09
1.00037e-07
3.53146e-09
9.99394e-08
3.57998e-09
9.98384e-08
3.62141e-09
9.97333e-08
3.65583e-09
9.96234e-08
3.68336e-09
9.9508e-08
3.70418e-09
9.93866e-08
3.7185e-09
9.92587e-08
3.72663e-09
9.91238e-08
3.72889e-09
9.89817e-08
3.72568e-09
9.8832e-08
3.71743e-09
9.86747e-08
3.70463e-09
9.85097e-08
3.68779e-09
9.8337e-08
3.66743e-09
9.81568e-08
3.6441e-09
9.79693e-08
3.61832e-09
9.77748e-08
3.59063e-09
9.75736e-08
3.56151e-09
9.73661e-08
3.53142e-09
9.71529e-08
3.50079e-09
9.69342e-08
3.46998e-09
9.67107e-08
3.43931e-09
9.64826e-08
3.40904e-09
9.62506e-08
3.37938e-09
9.60149e-08
3.35049e-09
9.57759e-08
3.32249e-09
9.5534e-08
3.29543e-09
9.52895e-08
3.26936e-09
9.50426e-08
3.24425e-09
9.47935e-08
3.2201e-09
9.45423e-08
3.19684e-09
9.42892e-08
3.1744e-09
9.40344e-08
3.15271e-09
9.37777e-08
3.13167e-09
9.35194e-08
3.11119e-09
9.32594e-08
3.09117e-09
9.29977e-08
3.0715e-09
9.27342e-08
3.05209e-09
9.2469e-08
3.03284e-09
9.2202e-08
3.01365e-09
9.19332e-08
2.99443e-09
9.16625e-08
2.97509e-09
9.13898e-08
2.95554e-09
9.11152e-08
2.93569e-09
9.08384e-08
2.91546e-09
9.05596e-08
2.89478e-09
9.02785e-08
2.87355e-09
8.99952e-08
2.85172e-09
8.97097e-08
2.82919e-09
8.94217e-08
2.80591e-09
8.91313e-08
2.78179e-09
8.88384e-08
2.75679e-09
8.85431e-08
2.73084e-09
8.82451e-08
2.70389e-09
8.79444e-08
2.67588e-09
8.76411e-08
2.64678e-09
8.7335e-08
2.61655e-09
8.70261e-08
2.5852e-09
8.67143e-08
2.55271e-09
8.63996e-08
2.51911e-09
8.60818e-08
2.48445e-09
8.5761e-08
2.44882e-09
8.5437e-08
2.41235e-09
8.51098e-08
2.3752e-09
8.47793e-08
2.33759e-09
8.44456e-08
2.2998e-09
8.41086e-08
2.26216e-09
8.37683e-08
2.22506e-09
8.34248e-08
2.18891e-09
8.30782e-08
2.15417e-09
8.27287e-08
2.12133e-09
8.23765e-08
2.09084e-09
8.20217e-08
2.06317e-09
8.16646e-08
2.03874e-09
8.13054e-08
2.01789e-09
8.09444e-08
2.00092e-09
8.05819e-08
1.988e-09
8.02181e-08
1.97924e-09
7.98532e-08
1.97461e-09
7.94874e-08
1.974e-09
7.91208e-08
1.97719e-09
7.87535e-08
1.98386e-09
7.83854e-08
1.99363e-09
7.80166e-08
2.00606e-09
7.76469e-08
2.02064e-09
7.72763e-08
2.03686e-09
7.69047e-08
2.0541e-09
7.6532e-08
2.07168e-09
7.61575e-08
2.08878e-09
2.10466e-09
1.09343e-07
2.85174e-09
-1.09504e-07
1.09191e-07
2.94783e-09
1.09049e-07
3.04251e-09
1.08914e-07
3.1347e-09
1.08785e-07
3.22342e-09
1.08661e-07
3.30791e-09
1.08541e-07
3.38756e-09
1.08422e-07
3.46191e-09
1.08305e-07
3.53062e-09
1.08187e-07
3.59341e-09
1.08069e-07
3.65012e-09
1.07948e-07
3.70062e-09
1.07825e-07
3.74485e-09
1.07698e-07
3.78284e-09
1.07566e-07
3.81461e-09
1.0743e-07
3.8403e-09
1.07289e-07
3.86006e-09
1.07141e-07
3.8741e-09
1.06987e-07
3.88269e-09
1.06827e-07
3.88615e-09
1.06659e-07
3.88482e-09
1.06485e-07
3.8791e-09
1.06303e-07
3.86941e-09
1.06115e-07
3.8562e-09
1.05919e-07
3.83992e-09
1.05716e-07
3.82103e-09
1.05507e-07
3.79998e-09
1.05291e-07
3.77722e-09
1.05069e-07
3.75314e-09
1.04842e-07
3.72814e-09
1.04609e-07
3.70256e-09
1.04372e-07
3.67671e-09
1.0413e-07
3.65085e-09
1.03884e-07
3.62521e-09
1.03635e-07
3.59995e-09
1.03382e-07
3.57521e-09
1.03126e-07
3.55111e-09
1.02868e-07
3.52769e-09
1.02607e-07
3.50499e-09
1.02344e-07
3.48302e-09
1.0208e-07
3.46177e-09
1.01813e-07
3.44119e-09
1.01544e-07
3.42124e-09
1.01274e-07
3.40185e-09
1.01002e-07
3.38296e-09
1.00729e-07
3.36448e-09
1.00454e-07
3.34635e-09
1.00178e-07
3.32847e-09
9.98998e-08
3.31076e-09
9.96203e-08
3.29315e-09
9.93392e-08
3.27553e-09
9.90565e-08
3.25783e-09
9.8772e-08
3.23998e-09
9.84859e-08
3.22188e-09
9.81979e-08
3.20347e-09
9.7908e-08
3.18465e-09
9.76162e-08
3.16537e-09
9.73223e-08
3.14554e-09
9.70264e-08
3.12509e-09
9.67284e-08
3.10396e-09
9.64281e-08
3.08209e-09
9.61255e-08
3.0594e-09
9.58205e-08
3.03584e-09
9.5513e-08
3.01137e-09
9.52029e-08
2.98594e-09
9.48902e-08
2.95952e-09
9.45747e-08
2.93207e-09
9.42563e-08
2.9036e-09
9.39349e-08
2.8741e-09
9.36104e-08
2.84361e-09
9.32827e-08
2.81218e-09
9.29516e-08
2.77989e-09
9.26171e-08
2.74687e-09
9.2279e-08
2.71328e-09
9.19373e-08
2.67932e-09
9.15918e-08
2.64525e-09
9.12426e-08
2.61137e-09
9.08896e-08
2.57802e-09
9.05329e-08
2.5456e-09
9.01726e-08
2.51451e-09
8.98088e-08
2.48518e-09
8.94415e-08
2.45805e-09
8.90712e-08
2.43352e-09
8.86979e-08
2.41199e-09
8.83221e-08
2.39378e-09
8.79438e-08
2.37917e-09
8.75635e-08
2.36834e-09
8.71813e-08
2.36139e-09
8.67976e-08
2.35835e-09
8.64125e-08
2.35911e-09
8.60261e-08
2.36351e-09
8.56387e-08
2.3713e-09
8.52502e-08
2.38213e-09
8.48606e-08
2.39562e-09
8.447e-08
2.41133e-09
8.4078e-08
2.42877e-09
8.36847e-08
2.44742e-09
8.32897e-08
2.4667e-09
8.28924e-08
2.48607e-09
2.50527e-09
6.85677e-08
2.71867e-09
-6.84347e-08
6.87074e-08
2.8082e-09
6.88533e-08
2.89657e-09
6.90051e-08
2.9829e-09
6.91622e-08
3.06633e-09
6.9324e-08
3.14613e-09
6.94898e-08
3.22172e-09
6.96591e-08
3.29264e-09
6.98312e-08
3.3585e-09
7.00056e-08
3.41902e-09
7.01818e-08
3.47398e-09
7.03591e-08
3.52324e-09
7.05373e-08
3.56672e-09
7.07157e-08
3.60438e-09
7.08941e-08
3.63625e-09
7.1072e-08
3.66242e-09
7.1249e-08
3.68299e-09
7.1425e-08
3.69817e-09
7.15995e-08
3.70816e-09
7.17724e-08
3.71324e-09
7.19435e-08
3.71373e-09
7.21126e-08
3.70996e-09
7.22797e-08
3.70231e-09
7.24448e-08
3.69117e-09
7.26077e-08
3.67695e-09
7.27687e-08
3.66007e-09
7.29277e-08
3.64093e-09
7.3085e-08
3.61992e-09
7.32407e-08
3.59744e-09
7.3395e-08
3.57384e-09
7.35482e-08
3.54944e-09
7.37003e-08
3.52453e-09
7.38518e-08
3.49938e-09
7.40028e-08
3.47421e-09
7.41536e-08
3.44918e-09
7.43043e-08
3.42446e-09
7.44553e-08
3.40015e-09
7.46066e-08
3.37633e-09
7.47586e-08
3.35305e-09
7.49113e-08
3.33034e-09
7.50648e-08
3.3082e-09
7.52194e-08
3.28661e-09
7.53751e-08
3.26555e-09
7.5532e-08
3.24496e-09
7.56901e-08
3.2248e-09
7.58496e-08
3.20499e-09
7.60105e-08
3.18548e-09
7.61728e-08
3.16619e-09
7.63365e-08
3.14706e-09
7.65016e-08
3.12799e-09
7.66683e-08
3.10892e-09
7.68363e-08
3.08977e-09
7.70058e-08
3.07047e-09
7.71768e-08
3.05094e-09
7.73491e-08
3.0311e-09
7.75229e-08
3.01089e-09
7.7698e-08
2.99022e-09
7.78745e-08
2.96904e-09
7.80524e-08
2.94728e-09
7.82314e-08
2.92487e-09
7.84118e-08
2.90175e-09
7.85933e-08
2.87787e-09
7.8776e-08
2.85317e-09
7.89598e-08
2.82761e-09
7.91446e-08
2.80115e-09
7.93303e-08
2.77376e-09
7.9517e-08
2.74543e-09
7.97044e-08
2.71615e-09
7.98926e-08
2.68593e-09
8.00814e-08
2.65482e-09
8.02707e-08
2.62287e-09
8.04604e-08
2.59016e-09
8.06505e-08
2.55682e-09
8.08407e-08
2.52301e-09
8.10311e-08
2.48891e-09
8.12216e-08
2.45479e-09
8.14121e-08
2.4209e-09
8.16025e-08
2.38758e-09
8.17929e-08
2.35517e-09
8.19834e-08
2.32405e-09
8.2174e-08
2.29461e-09
8.23648e-08
2.26724e-09
8.2556e-08
2.24232e-09
8.27478e-08
2.22019e-09
8.29404e-08
2.20117e-09
8.31341e-08
2.18549e-09
8.33291e-08
2.17335e-09
8.35257e-08
2.16483e-09
8.3724e-08
2.15997e-09
8.39244e-08
2.1587e-09
8.41271e-08
2.16087e-09
8.43321e-08
2.16628e-09
8.45396e-08
2.17464e-09
8.47496e-08
2.1856e-09
8.49621e-08
2.19879e-09
8.51771e-08
2.21377e-09
8.53945e-08
2.2301e-09
8.56138e-08
2.24733e-09
8.58349e-08
2.26501e-09
2.28267e-09
7.57752e-08
2.57326e-09
-7.56298e-08
7.59267e-08
2.65669e-09
7.60841e-08
2.73916e-09
7.62471e-08
2.81992e-09
7.64152e-08
2.89824e-09
7.65878e-08
2.97345e-09
7.67646e-08
3.045e-09
7.69448e-08
3.11242e-09
7.71279e-08
3.17534e-09
7.73135e-08
3.23345e-09
7.7501e-08
3.28651e-09
7.76899e-08
3.33436e-09
7.78797e-08
3.37687e-09
7.80701e-08
3.414e-09
7.82606e-08
3.44574e-09
7.84509e-08
3.47213e-09
7.86406e-08
3.49327e-09
7.88295e-08
3.50931e-09
7.90172e-08
3.52043e-09
7.92036e-08
3.52687e-09
7.93884e-08
3.52889e-09
7.95716e-08
3.52678e-09
7.9753e-08
3.52088e-09
7.99326e-08
3.51154e-09
8.01105e-08
3.49912e-09
8.02866e-08
3.48398e-09
8.0461e-08
3.4665e-09
8.06339e-08
3.44703e-09
8.08054e-08
3.42594e-09
8.09757e-08
3.40354e-09
8.1145e-08
3.38014e-09
8.13135e-08
3.35603e-09
8.14814e-08
3.33145e-09
8.1649e-08
3.30661e-09
8.18165e-08
3.28171e-09
8.19841e-08
3.25689e-09
8.21519e-08
3.23228e-09
8.23203e-08
3.20796e-09
8.24893e-08
3.18401e-09
8.26592e-08
3.16047e-09
8.28301e-08
3.13735e-09
8.3002e-08
3.11466e-09
8.31752e-08
3.09238e-09
8.33497e-08
3.07048e-09
8.35255e-08
3.04893e-09
8.37028e-08
3.02767e-09
8.38817e-08
3.00666e-09
8.4062e-08
2.98582e-09
8.4244e-08
2.96511e-09
8.44275e-08
2.94444e-09
8.46127e-08
2.92376e-09
8.47995e-08
2.90298e-09
8.49879e-08
2.88205e-09
8.51779e-08
2.8609e-09
8.53696e-08
2.83945e-09
8.55629e-08
2.81763e-09
8.57577e-08
2.79538e-09
8.59541e-08
2.77264e-09
8.6152e-08
2.74934e-09
8.63515e-08
2.72542e-09
8.65524e-08
2.70083e-09
8.67547e-08
2.67552e-09
8.69585e-08
2.64943e-09
8.71635e-08
2.62254e-09
8.73699e-08
2.5948e-09
8.75774e-08
2.56621e-09
8.77861e-08
2.53673e-09
8.79959e-08
2.50639e-09
8.82066e-08
2.4752e-09
8.84182e-08
2.44321e-09
8.86306e-08
2.41047e-09
8.88437e-08
2.37707e-09
8.90574e-08
2.34314e-09
8.92716e-08
2.30883e-09
8.94861e-08
2.27434e-09
8.97011e-08
2.23987e-09
8.99162e-08
2.20571e-09
9.01317e-08
2.17213e-09
9.03474e-08
2.13947e-09
9.05634e-08
2.10806e-09
9.07797e-08
2.07826e-09
9.09965e-08
2.05043e-09
9.12139e-08
2.02489e-09
9.14322e-08
2.00198e-09
9.16514e-08
1.98197e-09
9.18718e-08
1.96508e-09
9.20936e-08
1.95148e-09
9.23172e-08
1.94128e-09
9.25426e-08
1.93451e-09
9.27702e-08
1.93112e-09
9.30001e-08
1.93099e-09
9.32324e-08
1.93395e-09
9.34673e-08
1.93976e-09
9.37048e-08
1.94811e-09
9.39449e-08
1.95868e-09
9.41876e-08
1.9711e-09
9.44327e-08
1.98499e-09
9.46801e-08
1.99994e-09
9.49295e-08
2.01554e-09
2.03143e-09
8.37368e-08
2.41468e-09
-8.35782e-08
8.39011e-08
2.49242e-09
8.40709e-08
2.56935e-09
8.4246e-08
2.64483e-09
8.4426e-08
2.71823e-09
8.46105e-08
2.78895e-09
8.4799e-08
2.85649e-09
8.4991e-08
2.9204e-09
8.51861e-08
2.9803e-09
8.53836e-08
3.03588e-09
8.55833e-08
3.08688e-09
8.57845e-08
3.13313e-09
8.59869e-08
3.17448e-09
8.619e-08
3.21086e-09
8.63935e-08
3.24222e-09
8.65971e-08
3.26859e-09
8.68003e-08
3.29003e-09
8.7003e-08
3.30666e-09
8.72048e-08
3.31862e-09
8.74055e-08
3.3261e-09
8.76051e-08
3.32934e-09
8.78033e-08
3.32859e-09
8.8e-08
3.32414e-09
8.81953e-08
3.31629e-09