/*--------------------------------*- C++ -*----------------------------------*\
| =========                 |                                                 |
| \\      /  F ield         | OpenFOAM: The Open Source CFD Toolbox           |
|  \\    /   O peration     | Version:  2.3.0                                 |
|   \\  /    A nd           | Web:      www.OpenFOAM.org                      |
|    \\/     M anipulation  |                                                 |
\*---------------------------------------------------------------------------*/
FoamFile
{
    version     2.0;
    format      ascii;
    class       volVectorField;
    location    "0.35";
    object      U_0;
}
// * * * * * * * * * * * * * * * * * * * * * * * * * * * * * * * * * * * * * //

dimensions      [0 1 -1 0 0 0 0];

internalField   nonuniform List<vector> 
2250
(
(0.184659 0.00407464 1.18861e-06)
(0.177465 0.00444532 3.06886e-06)
(0.170063 0.00453691 4.39468e-06)
(0.16249 0.00449494 5.44833e-06)
(0.15494 0.00438419 6.28294e-06)
(0.14751 0.00422902 6.84234e-06)
(0.140232 0.00404346 7.10338e-06)
(0.13312 0.00383832 7.07281e-06)
(0.126193 0.00362126 6.75458e-06)
(0.119472 0.00339733 6.14505e-06)
(0.112974 0.00316997 5.24179e-06)
(0.106717 0.00294172 4.04893e-06)
(0.100713 0.00271459 2.57794e-06)
(0.0949765 0.0024903 8.47307e-07)
(0.0895179 0.00227037 -1.11745e-06)
(0.0843467 0.0020562 -3.28378e-06)
(0.0794699 0.00184915 -5.61267e-06)
(0.0748921 0.00165053 -8.05966e-06)
(0.0706155 0.00146156 -1.05764e-05)
(0.0666393 0.00128336 -1.31127e-05)
(0.0629603 0.00111689 -1.56184e-05)
(0.0595721 0.000962954 -1.80457e-05)
(0.0564661 0.000822103 -2.03511e-05)
(0.053631 0.000694649 -2.24972e-05)
(0.0510536 0.000580634 -2.44544e-05)
(0.0487187 0.000479844 -2.62011e-05)
(0.0466098 0.000391822 -2.77247e-05)
(0.0447096 0.000315908 -2.90207e-05)
(0.0430003 0.000251274 -3.00927e-05)
(0.0414638 0.000196978 -3.09508e-05)
(0.0400824 0.000152009 -3.16104e-05)
(0.0388393 0.000115326 -3.20909e-05)
(0.0377182 8.58949e-05 -3.24143e-05)
(0.0367042 6.27181e-05 -3.26036e-05)
(0.0357835 4.48514e-05 -3.26822e-05)
(0.0349439 3.14207e-05 -3.26723e-05)
(0.0341743 2.16304e-05 -3.25946e-05)
(0.0334652 1.47698e-05 -3.2468e-05)
(0.0328081 1.02146e-05 -3.23087e-05)
(0.0321961 7.42667e-06 -3.21307e-05)
(0.0316231 5.95079e-06 -3.19458e-05)
(0.0310841 5.40952e-06 -3.17633e-05)
(0.030575 5.49747e-06 -3.15906e-05)
(0.0300924 5.98033e-06 -3.14334e-05)
(0.0296336 6.67988e-06 -3.12959e-05)
(0.0291964 7.46351e-06 -3.11809e-05)
(0.028779 8.23619e-06 -3.10903e-05)
(0.0283799 8.93324e-06 -3.10253e-05)
(0.0279981 9.51398e-06 -3.09863e-05)
(0.0276326 9.95611e-06 -3.09735e-05)
(0.0272828 1.02509e-05 -3.09866e-05)
(0.0269478 1.03993e-05 -3.1025e-05)
(0.0266274 1.04086e-05 -3.10881e-05)
(0.0263209 1.02902e-05 -3.11751e-05)
(0.0260281 1.00575e-05 -3.1285e-05)
(0.0257486 9.72496e-06 -3.14166e-05)
(0.0254821 9.30653e-06 -3.15685e-05)
(0.0252283 8.81555e-06 -3.17393e-05)
(0.024987 8.26422e-06 -3.19269e-05)
(0.0247579 7.6634e-06 -3.21291e-05)
(0.0245409 7.02267e-06 -3.23433e-05)
(0.0243357 6.35035e-06 -3.25663e-05)
(0.0241423 5.65358e-06 -3.27944e-05)
(0.0239603 4.93839e-06 -3.30232e-05)
(0.0237898 4.20965e-06 -3.32475e-05)
(0.0236305 3.47083e-06 -3.34615e-05)
(0.0234825 2.72369e-06 -3.36581e-05)
(0.0233456 1.96783e-06 -3.38293e-05)
(0.0232198 1.20021e-06 -3.39658e-05)
(0.0231051 4.14841e-07 -3.40565e-05)
(0.0230016 -3.97155e-07 -3.40889e-05)
(0.0229094 -1.24705e-06 -3.40487e-05)
(0.0228286 -2.14742e-06 -3.39198e-05)
(0.0227594 -3.11054e-06 -3.36847e-05)
(0.0227022 -4.14649e-06 -3.33252e-05)
(0.022657 -5.26116e-06 -3.28228e-05)
(0.0226241 -6.45472e-06 -3.21601e-05)
(0.0226036 -7.72042e-06 -3.13224e-05)
(0.0225954 -9.04432e-06 -3.02985e-05)
(0.0225994 -1.04055e-05 -2.90825e-05)
(0.0226151 -1.17769e-05 -2.76749e-05)
(0.022642 -1.31261e-05 -2.60833e-05)
(0.0226791 -1.44165e-05 -2.43231e-05)
(0.0227254 -1.56086e-05 -2.24169e-05)
(0.0227796 -1.6662e-05 -2.03949e-05)
(0.0228404 -1.75396e-05 -1.82931e-05)
(0.0229062 -1.82142e-05 -1.61522e-05)
(0.0229755 -1.86767e-05 -1.40161e-05)
(0.0230467 -1.89416e-05 -1.19298e-05)
(0.0231185 -1.90465e-05 -9.93702e-06)
(0.0231893 -1.90446e-05 -8.07825e-06)
(0.0232583 -1.90009e-05 -6.38856e-06)
(0.0233246 -1.89913e-05 -4.89582e-06)
(0.0233874 -1.90674e-05 -3.62042e-06)
(0.0234466 -1.91525e-05 -2.57499e-06)
(0.0235019 -1.91132e-05 -1.76094e-06)
(0.0235536 -1.89588e-05 -1.16901e-06)
(0.0236016 -1.86962e-05 -7.80069e-07)
(0.0236481 -1.79087e-05 -5.53751e-07)
(0.0236527 -1.11834e-06 -6.66673e-07)
(0.193878 0.00625285 8.26175e-07)
(0.193723 0.00684637 2.41644e-06)
(0.193081 0.00706524 3.76977e-06)
(0.191955 0.00712656 4.83489e-06)
(0.190445 0.00711558 5.63985e-06)
(0.188626 0.00705489 6.18546e-06)
(0.186532 0.00695475 6.46389e-06)
(0.184194 0.00682363 6.47909e-06)
(0.181639 0.00666735 6.23901e-06)
(0.178898 0.00648925 5.74816e-06)
(0.176 0.00629146 5.0097e-06)
(0.17297 0.00607576 4.02942e-06)
(0.169834 0.00584388 2.81741e-06)
(0.166616 0.0055977 1.38842e-06)
(0.163339 0.00533923 -2.37988e-07)
(0.160023 0.00507069 -2.03726e-06)
(0.15669 0.00479449 -3.97999e-06)
(0.153356 0.0045132 -6.03251e-06)
(0.15004 0.00422949 -8.15785e-06)
(0.146756 0.00394609 -1.0317e-05)
(0.143517 0.00366571 -1.24704e-05)
(0.140335 0.00339092 -1.45795e-05)
(0.13722 0.00312417 -1.66083e-05)
(0.13418 0.00286761 -1.8525e-05)
(0.13122 0.00262313 -2.03027e-05)
(0.128346 0.00239224 -2.19209e-05)
(0.125561 0.00217608 -2.33654e-05)
(0.122867 0.0019754 -2.46287e-05)
(0.120264 0.00179058 -2.57097e-05)
(0.117753 0.00162164 -2.66127e-05)
(0.115333 0.00146829 -2.73471e-05)
(0.113002 0.00132996 -2.79259e-05)
(0.110759 0.00120587 -2.8365e-05)
(0.108601 0.00109507 -2.86818e-05)
(0.106526 0.000996505 -2.88946e-05)
(0.10453 0.000909061 -2.90215e-05)
(0.102611 0.000831606 -2.90799e-05)
(0.100767 0.000763027 -2.90859e-05)
(0.0989934 0.00070226 -2.9054e-05)
(0.0972885 0.000648313 -2.8997e-05)
(0.0956491 0.000600276 -2.8926e-05)
(0.0940728 0.000557332 -2.88499e-05)
(0.092557 0.000518754 -2.87764e-05)
(0.0910992 0.000483898 -2.87111e-05)
(0.0896973 0.000452211 -2.86588e-05)
(0.088349 0.000423224 -2.86227e-05)
(0.0870524 0.000396541 -2.86056e-05)
(0.0858055 0.000371835 -2.86089e-05)
(0.0846065 0.000348835 -2.86338e-05)
(0.0834538 0.000327315 -2.86809e-05)
(0.0823459 0.000307093 -2.87505e-05)
(0.0812814 0.000288016 -2.88423e-05)
(0.0802588 0.000269956 -2.89562e-05)
(0.0792771 0.00025281 -2.90916e-05)
(0.0783349 0.000236488 -2.92478e-05)
(0.0774314 0.000220911 -2.94239e-05)
(0.0765656 0.000206015 -2.96188e-05)
(0.0757366 0.000191738 -2.9831e-05)
(0.0749436 0.000178027 -3.0059e-05)
(0.0741859 0.000164833 -3.03006e-05)
(0.0734629 0.000152109 -3.05533e-05)
(0.0727741 0.000139815 -3.08143e-05)
(0.072119 0.000127909 -3.108e-05)
(0.0714971 0.000116356 -3.13462e-05)
(0.0709081 0.000105119 -3.1608e-05)
(0.0703517 9.41643e-05 -3.18598e-05)
(0.0698276 8.34557e-05 -3.20949e-05)
(0.0693358 7.29568e-05 -3.23055e-05)
(0.0688761 6.26281e-05 -3.24826e-05)
(0.0684485 5.24281e-05 -3.26158e-05)
(0.0680529 4.2314e-05 -3.26927e-05)
(0.0676895 3.22454e-05 -3.26995e-05)
(0.0673584 2.21891e-05 -3.26205e-05)
(0.0670595 1.21257e-05 -3.24385e-05)
(0.066793 2.05663e-06 -3.21355e-05)
(0.0665587 -7.98966e-06 -3.16931e-05)
(0.0663563 -1.79536e-05 -3.10941e-05)
(0.0661852 -2.77434e-05 -3.03233e-05)
(0.0660445 -3.72385e-05 -2.93694e-05)
(0.065933 -4.62954e-05 -2.8226e-05)
(0.0658488 -5.47574e-05 -2.6893e-05)
(0.0657898 -6.24657e-05 -2.53772e-05)
(0.0657535 -6.92707e-05 -2.36931e-05)
(0.0657367 -7.50435e-05 -2.18626e-05)
(0.0657361 -7.96861e-05 -1.99148e-05)
(0.0657483 -8.31407e-05 -1.78848e-05)
(0.0657695 -8.53983e-05 -1.58125e-05)
(0.0657959 -8.65055e-05 -1.3741e-05)
(0.0658241 -8.65678e-05 -1.17147e-05)
(0.0658507 -8.57453e-05 -9.77669e-06)
(0.0658727 -8.42395e-05 -7.96712e-06)
(0.0658877 -8.22788e-05 -6.32083e-06)
(0.0658936 -8.01107e-05 -4.86587e-06)
(0.0658892 -7.79621e-05 -3.62101e-06)
(0.0658736 -7.58901e-05 -2.59529e-06)
(0.0658467 -7.37718e-05 -1.79319e-06)
(0.0658083 -7.15057e-05 -1.21073e-06)
(0.0657584 -6.88041e-05 -8.3151e-07)
(0.0657002 -6.32383e-05 -6.44479e-07)
(0.0655679 -3.31086e-05 -1.20142e-06)
(0.194983 0.00543894 6.57328e-07)
(0.1954 0.00603929 2.00578e-06)
(0.195785 0.00645003 3.21945e-06)
(0.196043 0.00676285 4.1622e-06)
(0.196166 0.00701451 4.85422e-06)
(0.196158 0.00720955 5.33359e-06)
(0.196016 0.00734919 5.60226e-06)
(0.195734 0.00743734 5.65568e-06)
(0.195309 0.00747821 5.49729e-06)
(0.194742 0.00747508 5.13299e-06)
(0.194038 0.00743073 4.56731e-06)
(0.193199 0.00734791 3.80499e-06)
(0.192232 0.00722951 2.85311e-06)
(0.191143 0.0070786 1.72202e-06)
(0.189941 0.00689847 4.25426e-07)
(0.188632 0.0066926 -1.01945e-06)
(0.187228 0.00646467 -2.59192e-06)
(0.185736 0.00621854 -4.26804e-06)
(0.184168 0.00595814 -6.0211e-06)
(0.182533 0.00568746 -7.82238e-06)
(0.18084 0.00541041 -9.64202e-06)
(0.1791 0.00513077 -1.14501e-05)
(0.177322 0.00485206 -1.32177e-05)
(0.175514 0.00457749 -1.49178e-05)
(0.173685 0.00430988 -1.65267e-05)
(0.171841 0.00405157 -1.80243e-05)
(0.169989 0.00380446 -1.93952e-05)
(0.168135 0.00356993 -2.06284e-05)
(0.166285 0.0033489 -2.17182e-05)
(0.164442 0.00314186 -2.26632e-05)
(0.16261 0.00294888 -2.34664e-05)
(0.160793 0.00276973 -2.41346e-05)
(0.158992 0.00260389 -2.46773e-05)
(0.15721 0.00245064 -2.51063e-05)
(0.155448 0.00230912 -2.54351e-05)
(0.153708 0.00217842 -2.56778e-05)
(0.151991 0.00205755 -2.58485e-05)
(0.150297 0.00194557 -2.5961e-05)
(0.148627 0.00184155 -2.60285e-05)
(0.146982 0.00174464 -2.60629e-05)
(0.145362 0.00165405 -2.60747e-05)
(0.143768 0.00156908 -2.60732e-05)
(0.1422 0.00148911 -2.60663e-05)
(0.140659 0.00141357 -2.60604e-05)
(0.139144 0.00134199 -2.60606e-05)
(0.137657 0.00127397 -2.60713e-05)
(0.136197 0.00120915 -2.60958e-05)
(0.134766 0.00114724 -2.61366e-05)
(0.133363 0.00108798 -2.61954e-05)
(0.131989 0.00103116 -2.62734e-05)
(0.130645 0.000976598 -2.63714e-05)
(0.129331 0.000924127 -2.64897e-05)
(0.128047 0.000873604 -2.66285e-05)
(0.126794 0.000824904 -2.67875e-05)
(0.125572 0.000777909 -2.69662e-05)
(0.124383 0.000732512 -2.7164e-05)
(0.123226 0.000688613 -2.738e-05)
(0.122102 0.000646114 -2.76129e-05)
(0.121012 0.000604926 -2.78612e-05)
(0.119956 0.00056496 -2.81229e-05)
(0.118934 0.000526131 -2.83958e-05)
(0.117948 0.000488358 -2.86771e-05)
(0.116998 0.000451561 -2.89634e-05)
(0.116084 0.000415663 -2.92508e-05)
(0.115207 0.00038059 -2.95347e-05)
(0.114367 0.000346266 -2.98095e-05)
(0.113567 0.000312617 -3.00691e-05)
(0.112805 0.000279568 -3.03059e-05)
(0.112082 0.000247043 -3.05113e-05)
(0.1114 0.000214969 -3.0675e-05)
(0.110759 0.000183279 -3.07855e-05)
(0.11016 0.000151921 -3.08293e-05)
(0.109602 0.000120867 -3.07912e-05)
(0.109087 9.01246e-05 -3.06548e-05)
(0.108615 5.97528e-05 -3.04027e-05)
(0.108186 2.98677e-05 -3.00172e-05)
(0.107799 6.50373e-07 -2.94817e-05)
(0.107454 -2.7655e-05 -2.87815e-05)
(0.10715 -5.4749e-05 -2.79055e-05)
(0.106886 -8.02928e-05 -2.68473e-05)
(0.106658 -0.000103929 -2.56065e-05)
(0.106466 -0.000125307 -2.41892e-05)
(0.106305 -0.000144109 -2.26089e-05)
(0.106172 -0.000160075 -2.08862e-05)
(0.106064 -0.000173028 -1.90483e-05)
(0.105975 -0.00018289 -1.71284e-05)
(0.105902 -0.000189694 -1.51642e-05)
(0.10584 -0.000193583 -1.31967e-05)
(0.105785 -0.000194808 -1.12676e-05)
(0.105732 -0.000193701 -9.41822e-06)
(0.105678 -0.000190659 -7.68699e-06)
(0.105619 -0.000186108 -6.10762e-06)
(0.105552 -0.000180474 -4.70772e-06)
(0.105476 -0.000174152 -3.50768e-06)
(0.105388 -0.000167489 -2.51938e-06)
(0.105288 -0.000160706 -1.74712e-06)
(0.105174 -0.000153758 -1.19201e-06)
(0.105047 -0.000145926 -8.62964e-07)
(0.104908 -0.000132972 -8.81095e-07)
(0.104701 -0.000100062 -2.07616e-06)
(0.195679 0.00518061 4.74157e-07)
(0.196013 0.00576677 1.45689e-06)
(0.196399 0.0062229 2.43227e-06)
(0.196775 0.00658176 3.28446e-06)
(0.19712 0.00686999 3.96935e-06)
(0.197436 0.0070993 4.48959e-06)
(0.197718 0.00727606 4.83855e-06)
(0.197959 0.00740611 5.00257e-06)
(0.198154 0.00749445 4.97697e-06)
(0.198296 0.00754456 4.7657e-06)
(0.19838 0.00755877 4.37525e-06)
(0.198402 0.00753884 3.81262e-06)
(0.198358 0.00748638 3.08611e-06)
(0.198245 0.00740306 2.206e-06)
(0.198059 0.00729073 1.18463e-06)
(0.197801 0.00715151 3.62522e-08)
(0.197469 0.00698786 -1.22299e-06)
(0.197064 0.00680256 -2.57514e-06)
(0.196587 0.00659868 -4.00055e-06)
(0.196041 0.0063795 -5.47828e-06)
(0.195427 0.00614845 -6.98647e-06)
(0.194751 0.005909 -8.5029e-06)
(0.194017 0.00566455 -1.00056e-05)
(0.193227 0.00541833 -1.14735e-05)
(0.192388 0.00517331 -1.28872e-05)
(0.191505 0.00493216 -1.42295e-05)
(0.190581 0.00469714 -1.54856e-05)
(0.189622 0.00447009 -1.66444e-05)
(0.188633 0.00425243 -1.76975e-05)
(0.187617 0.00404516 -1.86405e-05)
(0.186578 0.00384888 -1.94719e-05)
(0.18552 0.00366385 -2.01936e-05)
(0.184446 0.00349002 -2.081e-05)
(0.183359 0.0033271 -2.13277e-05)
(0.182261 0.00317459 -2.17553e-05)
(0.181154 0.00303186 -2.21024e-05)
(0.18004 0.00289821 -2.23792e-05)
(0.17892 0.00277285 -2.25965e-05)
(0.177797 0.00265501 -2.27645e-05)
(0.176671 0.00254393 -2.28934e-05)
(0.175543 0.00243887 -2.29923e-05)
(0.174414 0.00233915 -2.30697e-05)
(0.173286 0.00224415 -2.31332e-05)
(0.172159 0.00215332 -2.31894e-05)
(0.171033 0.00206617 -2.32439e-05)
(0.169911 0.00198228 -2.33016e-05)
(0.168792 0.00190126 -2.33662e-05)
(0.167678 0.00182282 -2.34409e-05)
(0.16657 0.00174667 -2.35282e-05)
(0.165468 0.00167258 -2.36301e-05)
(0.164374 0.00160037 -2.37478e-05)
(0.163289 0.00152987 -2.38824e-05)
(0.162212 0.00146092 -2.40344e-05)
(0.161147 0.00139341 -2.42042e-05)
(0.160093 0.00132723 -2.43917e-05)
(0.159053 0.00126229 -2.45966e-05)
(0.158026 0.00119848 -2.48182e-05)
(0.157015 0.00113573 -2.50557e-05)
(0.15602 0.00107397 -2.53077e-05)
(0.155042 0.00101312 -2.55727e-05)
(0.154084 0.000953122 -2.58486e-05)
(0.153146 0.0008939 -2.61328e-05)
(0.152229 0.000835396 -2.64224e-05)
(0.151336 0.000777549 -2.67136e-05)
(0.150467 0.000720299 -2.70023e-05)
(0.149623 0.000663588 -2.72832e-05)
(0.148806 0.000607358 -2.75503e-05)
(0.148018 0.000551551 -2.77968e-05)
(0.147259 0.000496114 -2.80143e-05)
(0.146532 0.000441001 -2.81933e-05)
(0.145837 0.000386184 -2.83229e-05)
(0.145175 0.000331659 -2.83906e-05)
(0.144549 0.000277466 -2.83825e-05)
(0.143958 0.000223699 -2.82835e-05)
(0.143405 0.000170521 -2.80777e-05)
(0.142888 0.000118178 -2.77493e-05)
(0.142409 6.69994e-05 -2.72832e-05)
(0.141968 1.73954e-05 -2.66662e-05)
(0.141563 -3.01553e-05 -2.5888e-05)
(0.141195 -7.51284e-05 -2.49427e-05)
(0.140862 -0.000116982 -2.38294e-05)
(0.140562 -0.000155193 -2.25532e-05)
(0.140293 -0.000189285 -2.11253e-05)
(0.140052 -0.00021887 -1.95637e-05)
(0.139837 -0.00024367 -1.78923e-05)
(0.139643 -0.000263542 -1.61404e-05)
(0.139469 -0.000278493 -1.43416e-05)
(0.139309 -0.000288683 -1.25327e-05)
(0.13916 -0.00029442 -1.07517e-05)
(0.139019 -0.000296143 -9.03635e-06)
(0.138882 -0.000294389 -7.42211e-06)
(0.138747 -0.000289759 -5.94083e-06)
(0.138609 -0.000282873 -4.61919e-06)
(0.138467 -0.00027432 -3.47813e-06)
(0.138319 -0.000264622 -2.53308e-06)
(0.138163 -0.000254169 -1.79537e-06)
(0.137997 -0.000243041 -1.28083e-06)
(0.137822 -0.000230445 -1.04267e-06)
(0.137638 -0.00021271 -1.31789e-06)
(0.137402 -0.000183899 -2.82822e-06)
(0.196271 0.00494719 3.46826e-07)
(0.196505 0.00544514 1.07989e-06)
(0.196798 0.00585775 1.86972e-06)
(0.197113 0.00619558 2.62388e-06)
(0.197434 0.00647551 3.26217e-06)
(0.197755 0.00670785 3.76071e-06)
(0.198074 0.00689786 4.11451e-06)
(0.198386 0.00704922 4.31573e-06)
(0.198687 0.00716501 4.35936e-06)
(0.198973 0.0072475 4.24771e-06)
(0.19924 0.00729822 3.98711e-06)
(0.199484 0.00731832 3.58474e-06)
(0.199702 0.00730885 3.04813e-06)
(0.199891 0.00727092 2.38566e-06)
(0.200046 0.00720584 1.60679e-06)
(0.200165 0.00711516 7.21961e-07)
(0.200244 0.00700072 -2.57362e-07)
(0.200281 0.00686467 -1.31873e-06)
(0.200275 0.00670945 -2.4487e-06)
(0.200224 0.00653774 -3.63291e-06)
(0.200127 0.0063524 -4.85624e-06)
(0.199984 0.00615638 -6.10303e-06)
(0.199796 0.00595267 -7.35735e-06)
(0.199565 0.00574415 -8.60336e-06)
(0.199291 0.00553357 -9.8257e-06)
(0.198977 0.00532344 -1.10099e-05)
(0.198625 0.00511598 -1.21428e-05)
(0.198238 0.00491308 -1.32129e-05)
(0.197819 0.00471627 -1.42108e-05)
(0.197369 0.00452672 -1.51293e-05)
(0.196893 0.00434524 -1.59636e-05)
(0.196392 0.00417232 -1.67112e-05)
(0.195868 0.00400817 -1.73721e-05)
(0.195324 0.00385275 -1.79484e-05)
(0.194762 0.0037058 -1.8444e-05)
(0.194183 0.00356692 -1.88643e-05)
(0.19359 0.00343561 -1.92162e-05)
(0.192982 0.00331128 -1.95071e-05)
(0.192362 0.0031933 -1.97449e-05)
(0.191731 0.00308105 -1.9938e-05)
(0.191089 0.00297392 -2.00943e-05)
(0.190437 0.00287132 -2.02216e-05)
(0.189775 0.0027727 -2.03272e-05)
(0.189106 0.00267758 -2.04178e-05)
(0.188428 0.00258552 -2.04992e-05)
(0.187743 0.00249611 -2.05767e-05)
(0.187052 0.00240903 -2.06547e-05)
(0.186354 0.00232397 -2.07371e-05)
(0.185651 0.00224067 -2.0827e-05)
(0.184943 0.00215892 -2.09269e-05)
(0.184231 0.00207852 -2.1039e-05)
(0.183516 0.00199931 -2.11647e-05)
(0.182798 0.00192115 -2.13051e-05)
(0.182079 0.00184391 -2.14609e-05)
(0.181359 0.00176749 -2.16324e-05)
(0.180639 0.00169178 -2.18196e-05)
(0.17992 0.00161669 -2.20221e-05)
(0.179203 0.00154214 -2.22393e-05)
(0.17849 0.00146806 -2.24701e-05)
(0.17778 0.00139436 -2.2713e-05)
(0.177077 0.00132098 -2.29663e-05)
(0.176379 0.00124786 -2.32276e-05)
(0.175689 0.00117493 -2.34941e-05)
(0.175009 0.00110213 -2.37625e-05)
(0.174339 0.00102941 -2.40288e-05)
(0.17368 0.000956714 -2.42882e-05)
(0.173034 0.000883999 -2.45352e-05)
(0.172403 0.00081122 -2.47633e-05)
(0.171788 0.000738346 -2.4965e-05)
(0.171189 0.000665364 -2.51316e-05)
(0.17061 0.000592285 -2.52533e-05)
(0.170049 0.000519164 -2.53191e-05)
(0.16951 0.000446111 -2.53171e-05)
(0.168993 0.000373307 -2.52344e-05)
(0.168499 0.000301021 -2.50577e-05)
(0.168029 0.000229617 -2.47741e-05)
(0.167583 0.00015956 -2.43711e-05)
(0.167162 9.14067e-05 -2.38379e-05)
(0.166766 2.57905e-05 -2.31664e-05)
(0.166394 -3.66058e-05 -2.23515e-05)
(0.166047 -9.5083e-05 -2.13925e-05)
(0.165723 -0.000148964 -2.02932e-05)
(0.165422 -0.000197635 -1.90626e-05)
(0.165141 -0.00024058 -1.77149e-05)
(0.164881 -0.000277421 -1.62695e-05)
(0.164637 -0.000307935 -1.47501e-05)
(0.16441 -0.00033208 -1.31844e-05)
(0.164196 -0.000349993 -1.16029e-05)
(0.163993 -0.00036199 -1.00375e-05)
(0.1638 -0.000368544 -8.5207e-06)
(0.163613 -0.00037026 -7.08345e-06)
(0.16343 -0.000367834 -5.7544e-06)
(0.16325 -0.000362012 -4.55852e-06)
(0.163071 -0.000353537 -3.51678e-06)
(0.162891 -0.000343093 -2.64718e-06)
(0.162708 -0.00033122 -1.96846e-06)
(0.162521 -0.000318135 -1.51345e-06)
(0.162331 -0.000303323 -1.36816e-06)
(0.162138 -0.000284997 -1.75857e-06)
(0.161903 -0.000264301 -2.96737e-06)
(0.19679 0.00477105 2.43028e-07)
(0.19696 0.0051927 7.55091e-07)
(0.197181 0.00556393 1.32273e-06)
(0.197433 0.00588359 1.89774e-06)
(0.197704 0.00615741 2.4168e-06)
(0.197984 0.00639032 2.84992e-06)
(0.198269 0.00658518 3.18804e-06)
(0.198557 0.00674417 3.42242e-06)
(0.198843 0.00686945 3.54375e-06)
(0.199125 0.00696296 3.54748e-06)
(0.1994 0.00702635 3.43415e-06)
(0.199667 0.00706101 3.20677e-06)
(0.199922 0.00706822 2.86946e-06)
(0.200164 0.00704926 2.42725e-06)
(0.200389 0.00700548 1.88623e-06)
(0.200596 0.00693838 1.25338e-06)
(0.200782 0.00684964 5.36457e-07)
(0.200945 0.0067411 -2.56095e-07)
(0.201083 0.00661484 -1.11514e-06)
(0.201195 0.00647309 -2.03086e-06)
(0.201279 0.00631821 -2.99275e-06)
(0.201334 0.00615268 -3.98969e-06)
(0.20136 0.00597898 -5.01005e-06)
(0.201358 0.00579956 -6.04181e-06)
(0.201326 0.00561677 -7.07282e-06)
(0.201267 0.0054328 -8.09102e-06)
(0.201181 0.00524962 -9.08479e-06)
(0.201069 0.00506896 -1.00433e-05)
(0.200934 0.00489225 -1.09567e-05)
(0.200776 0.00472066 -1.18167e-05)
(0.200597 0.00455504 -1.26166e-05)
(0.2004 0.00439599 -1.33515e-05)
(0.200184 0.00424384 -1.40183e-05)
(0.199953 0.00409872 -1.4616e-05)
(0.199707 0.00396055 -1.51452e-05)
(0.199448 0.00382911 -1.56082e-05)
(0.199176 0.00370407 -1.60086e-05)
(0.198892 0.003585 -1.63512e-05)
(0.198598 0.00347143 -1.66416e-05)
(0.198294 0.00336285 -1.68858e-05)
(0.19798 0.00325876 -1.70905e-05)
(0.197657 0.00315866 -1.72619e-05)
(0.197325 0.00306207 -1.74065e-05)
(0.196984 0.00296854 -1.75303e-05)
(0.196636 0.00287767 -1.76388e-05)
(0.19628 0.00278909 -1.77372e-05)
(0.195916 0.00270245 -1.783e-05)
(0.195544 0.00261746 -1.79212e-05)
(0.195165 0.00253385 -1.80143e-05)
(0.194779 0.00245141 -1.81121e-05)
(0.194387 0.00236991 -1.8217e-05)
(0.193988 0.00228918 -1.83309e-05)
(0.193584 0.00220906 -1.84552e-05)
(0.193173 0.00212941 -1.85909e-05)
(0.192758 0.0020501 -1.87388e-05)
(0.192338 0.00197102 -1.8899e-05)
(0.191914 0.00189205 -1.90715e-05)
(0.191486 0.00181311 -1.92559e-05)
(0.191055 0.00173409 -1.94513e-05)
(0.190622 0.00165493 -1.96567e-05)
(0.190187 0.00157554 -1.98704e-05)
(0.189751 0.00149584 -2.00905e-05)
(0.189316 0.00141578 -2.03146e-05)
(0.188881 0.00133529 -2.05397e-05)
(0.188447 0.00125432 -2.07622e-05)
(0.188016 0.00117283 -2.0978e-05)
(0.187589 0.00109076 -2.1182e-05)
(0.187165 0.0010081 -2.13687e-05)
(0.186747 0.000924835 -2.15314e-05)
(0.186336 0.000840987 -2.16629e-05)
(0.185931 0.000756606 -2.17548e-05)
(0.185535 0.000671798 -2.17982e-05)
(0.185147 0.000586734 -2.17836e-05)
(0.18477 0.000501665 -2.17011e-05)
(0.184402 0.000416938 -2.15405e-05)
(0.184046 0.000333003 -2.12921e-05)
(0.183702 0.000250415 -2.09469e-05)
(0.18337 0.000169822 -2.04971e-05)
(0.18305 9.19495e-05 -1.99366e-05)
(0.182743 1.75724e-05 -1.92619e-05)
(0.182448 -5.25218e-05 -1.84722e-05)
(0.182167 -0.000117571 -1.75703e-05)
(0.181898 -0.000176882 -1.65624e-05)
(0.181641 -0.000229866 -1.5459e-05)
(0.181395 -0.000276075 -1.4274e-05)
(0.181161 -0.00031523 -1.30254e-05)
(0.180937 -0.000347235 -1.17339e-05)
(0.180723 -0.000372188 -1.04231e-05)
(0.180518 -0.000390375 -9.11791e-06)
(0.18032 -0.000402256 -7.84415e-06)
(0.180128 -0.000408437 -6.62728e-06)
(0.179942 -0.000409635 -5.49149e-06)
(0.179761 -0.000406634 -4.45903e-06)
(0.179582 -0.000400236 -3.5502e-06)
(0.179406 -0.000391194 -2.78502e-06)
(0.17923 -0.000380144 -2.18774e-06)
(0.179054 -0.000367473 -1.79895e-06)
(0.178879 -0.000353214 -1.69552e-06)
(0.178706 -0.000337582 -1.97081e-06)
(0.178498 -0.000325803 -2.3893e-06)
(0.19725 0.00462622 1.53411e-07)
(0.19738 0.00498481 4.76356e-07)
(0.197549 0.00531288 8.47332e-07)
(0.197749 0.00560522 1.2529e-06)
(0.19797 0.00586169 1.65434e-06)
(0.198205 0.00608376 2.02092e-06)
(0.19845 0.00627284 2.33542e-06)
(0.1987 0.00643027 2.58494e-06)
(0.198952 0.00655747 2.75771e-06)
(0.199205 0.00665588 2.84565e-06)
(0.199454 0.00672682 2.84556e-06)
(0.1997 0.00677148 2.75756e-06)
(0.199939 0.00679099 2.58342e-06)
(0.200169 0.0067865 2.32588e-06)
(0.20039 0.00675921 1.98844e-06)
(0.200598 0.00671045 1.57522e-06)
(0.200794 0.00664168 1.09075e-06)
(0.200973 0.00655451 5.39941e-07)
(0.201137 0.00645071 -7.19134e-08)
(0.201282 0.00633221 -7.39038e-07)
(0.201409 0.00620104 -1.45509e-06)
(0.201517 0.00605929 -2.21308e-06)
(0.201605 0.00590912 -3.00534e-06)
(0.201673 0.00575264 -3.8235e-06)
(0.201721 0.0055919 -4.65858e-06)
(0.201751 0.00542884 -5.50117e-06)
(0.201761 0.00526522 -6.34159e-06)
(0.201755 0.00510263 -7.17018e-06)
(0.201731 0.0049424 -7.97762e-06)
(0.201693 0.00478567 -8.75527e-06)
(0.20164 0.00463331 -9.49539e-06)
(0.201574 0.00448597 -1.01915e-05)
(0.201497 0.00434408 -1.08384e-05)
(0.201409 0.00420788 -1.14325e-05)
(0.201311 0.00407742 -1.19719e-05)
(0.201205 0.00395262 -1.24558e-05)
(0.201091 0.00383329 -1.28854e-05)
(0.20097 0.00371913 -1.32626e-05)
(0.200843 0.00360979 -1.35906e-05)
(0.200709 0.00350489 -1.38735e-05)
(0.20057 0.003404 -1.41159e-05)
(0.200426 0.00330671 -1.43228e-05)
(0.200277 0.0032126 -1.44994e-05)
(0.200122 0.00312129 -1.46508e-05)
(0.199963 0.00303239 -1.47821e-05)
(0.199799 0.00294556 -1.48981e-05)
(0.19963 0.00286049 -1.50032e-05)
(0.199456 0.00277689 -1.51013e-05)
(0.199277 0.00269449 -1.5196e-05)
(0.199093 0.00261305 -1.52904e-05)
(0.198905 0.00253237 -1.53871e-05)
(0.198712 0.00245225 -1.54882e-05)
(0.198514 0.00237253 -1.55954e-05)
(0.198311 0.00229304 -1.57101e-05)
(0.198104 0.00221364 -1.58331e-05)
(0.197892 0.0021342 -1.5965e-05)
(0.197676 0.0020546 -1.6106e-05)
(0.197455 0.00197472 -1.62557e-05)
(0.197231 0.00189447 -1.64137e-05)
(0.197003 0.00181373 -1.65791e-05)
(0.196771 0.00173244 -1.67505e-05)
(0.196536 0.00165049 -1.69263e-05)
(0.196299 0.00156781 -1.71044e-05)
(0.196059 0.00148434 -1.72822e-05)
(0.195816 0.00140001 -1.74565e-05)
(0.195573 0.00131477 -1.76238e-05)
(0.195328 0.0012286 -1.77798e-05)
(0.195082 0.00114146 -1.79197e-05)
(0.194836 0.00105336 -1.80379e-05)
(0.194589 0.000964345 -1.81286e-05)
(0.194344 0.000874483 -1.81851e-05)
(0.1941 0.000783912 -1.82007e-05)
(0.193857 0.000692836 -1.81681e-05)
(0.193615 0.000601544 -1.80803e-05)
(0.193377 0.00051042 -1.79302e-05)
(0.19314 0.000419951 -1.77112e-05)
(0.192907 0.000330725 -1.74175e-05)
(0.192677 0.000243422 -1.7044e-05)
(0.19245 0.000158796 -1.6587e-05)
(0.192228 7.7649e-05 -1.60443e-05)
(0.19201 7.95316e-07 -1.54157e-05)
(0.191796 -7.09753e-05 -1.47029e-05)
(0.191587 -0.000136938 -1.39102e-05)
(0.191383 -0.000196468 -1.30446e-05)
(0.191185 -0.000249081 -1.21157e-05)
(0.190992 -0.000294451 -1.11356e-05)
(0.190805 -0.000332435 -1.01191e-05)
(0.190624 -0.000363082 -9.08274e-06)
(0.190448 -0.000386627 -8.04478e-06)
(0.190277 -0.000403483 -7.02442e-06)
(0.190112 -0.000414215 -6.04119e-06)
(0.189952 -0.000419508 -5.11439e-06)
(0.189796 -0.000420125 -4.26272e-06)
(0.189644 -0.000416864 -3.50456e-06)
(0.189495 -0.000410501 -2.85936e-06)
(0.189349 -0.000401738 -2.3506e-06)
(0.189205 -0.000391174 -2.00949e-06)
(0.189064 -0.000379435 -1.86431e-06)
(0.188926 -0.000368147 -1.8397e-06)
(0.188758 -0.000363728 -1.3539e-06)
(0.197662 0.00450466 7.35502e-08)
(0.197764 0.00481138 2.32358e-07)
(0.197896 0.0050988 4.31924e-07)
(0.198054 0.00536162 6.75466e-07)
(0.198233 0.00559755 9.4385e-07)
(0.198428 0.005806 1.21416e-06)
(0.198634 0.00598705 1.46924e-06)
(0.198847 0.00614105 1.69622e-06)
(0.199064 0.00626857 1.88405e-06)
(0.199284 0.00637033 2.02388e-06)
(0.199503 0.00644714 2.11e-06)
(0.19972 0.00649983 2.13938e-06)
(0.199932 0.00652931 2.11066e-06)
(0.200139 0.00653652 2.02338e-06)
(0.200338 0.00652251 1.87772e-06)
(0.200529 0.00648846 1.67432e-06)
(0.200709 0.00643565 1.41416e-06)
(0.200877 0.00636552 1.09852e-06)
(0.201033 0.00627963 7.28996e-07)
(0.201175 0.00617964 3.07634e-07)
(0.201303 0.00606733 -1.62956e-07)
(0.201416 0.00594454 -6.79445e-07)
(0.201514 0.00581312 -1.23767e-06)
(0.201596 0.00567494 -1.83254e-06)
(0.201664 0.00553179 -2.45804e-06)
(0.201717 0.0053854 -3.1073e-06)
(0.201757 0.00523736 -3.77268e-06)
(0.201783 0.0050891 -4.44606e-06)
(0.201796 0.00494189 -5.11902e-06)
(0.201799 0.0047968 -5.78322e-06)
(0.201791 0.00465471 -6.43067e-06)
(0.201774 0.00451631 -7.05403e-06)
(0.201748 0.00438209 -7.6469e-06)
(0.201715 0.00425237 -8.204e-06)
(0.201677 0.00412733 -8.72132e-06)
(0.201632 0.00400701 -9.19619e-06)
(0.201583 0.00389132 -9.62725e-06)
(0.201531 0.00378011 -1.00144e-05)
(0.201474 0.00367314 -1.03587e-05)
(0.201415 0.00357013 -1.06622e-05)
(0.201353 0.00347076 -1.09277e-05)
(0.201289 0.00337471 -1.11587e-05)
(0.201223 0.00328163 -1.1359e-05)
(0.201155 0.00319118 -1.15326e-05)
(0.201085 0.00310305 -1.16838e-05)
(0.201013 0.00301692 -1.18166e-05)
(0.200939 0.00293251 -1.1935e-05)
(0.200864 0.00284953 -1.20425e-05)
(0.200786 0.00276775 -1.21426e-05)
(0.200706 0.00268692 -1.22382e-05)
(0.200624 0.00260683 -1.23318e-05)
(0.20054 0.00252729 -1.24256e-05)
(0.200454 0.00244811 -1.25215e-05)
(0.200365 0.00236913 -1.26207e-05)
(0.200273 0.00229019 -1.27244e-05)
(0.200179 0.00221115 -1.28332e-05)
(0.200083 0.00213186 -1.29475e-05)
(0.199983 0.00205221 -1.3067e-05)
(0.199881 0.00197208 -1.31917e-05)
(0.199777 0.00189135 -1.33206e-05)
(0.199669 0.00180992 -1.34528e-05)
(0.199559 0.0017277 -1.35869e-05)
(0.199446 0.0016446 -1.37212e-05)
(0.19933 0.00156054 -1.38534e-05)
(0.199212 0.00147546 -1.3981e-05)
(0.199092 0.00138931 -1.4101e-05)
(0.198968 0.00130205 -1.421e-05)
(0.198843 0.00121366 -1.4304e-05)
(0.198715 0.00112416 -1.43788e-05)
(0.198585 0.0010336 -1.44298e-05)
(0.198453 0.000942062 -1.44523e-05)
(0.198319 0.000849704 -1.44414e-05)
(0.198182 0.000756746 -1.43923e-05)
(0.198044 0.00066349 -1.43004e-05)
(0.197904 0.00057033 -1.41616e-05)
(0.197762 0.000477756 -1.39721e-05)
(0.197618 0.000386351 -1.37289e-05)
(0.197473 0.000296786 -1.34293e-05)
(0.197327 0.000209797 -1.30717e-05)
(0.197179 0.000126166 -1.26553e-05)
(0.197031 4.66862e-05 -1.21802e-05)
(0.196883 -2.78708e-05 -1.16476e-05)
(0.196734 -9.6793e-05 -1.10603e-05)
(0.196587 -0.000159462 -1.04223e-05)
(0.196441 -0.000215385 -9.73949e-06)
(0.196297 -0.000264219 -9.01922e-06)
(0.196155 -0.000305793 -8.27066e-06)
(0.196016 -0.000340113 -7.50452e-06)
(0.19588 -0.000367365 -6.73285e-06)
(0.195748 -0.000387903 -5.96876e-06)
(0.19562 -0.00040223 -5.22608e-06)
(0.195496 -0.000410973 -4.51911e-06)
(0.195376 -0.000414844 -3.86213e-06)
(0.195259 -0.000414605 -3.26955e-06)
(0.195146 -0.000411032 -2.75592e-06)
(0.195036 -0.000404897 -2.33451e-06)
(0.194929 -0.000397015 -2.00945e-06)
(0.194826 -0.000388503 -1.74191e-06)
(0.194725 -0.000381637 -1.33567e-06)
(0.1946 -0.000381933 -1.77384e-07)
(0.198034 0.00439795 1.13023e-09)
(0.198115 0.0046624 1.35015e-08)
(0.198219 0.0049141 6.09476e-08)
(0.198344 0.00514871 1.54096e-07)
(0.198488 0.0053634 2.8813e-07)
(0.198647 0.00555655 4.5121e-07)
(0.198818 0.00572732 6.31142e-07)
(0.198996 0.00587533 8.17069e-07)
(0.19918 0.00600049 9.98956e-07)
(0.199367 0.00610301 1.16772e-06)
(0.199555 0.00618326 1.31593e-06)
(0.199743 0.00624176 1.43794e-06)
(0.199928 0.00627914 1.52954e-06)
(0.200108 0.00629614 1.58741e-06)
(0.200284 0.00629361 1.60881e-06)
(0.200452 0.00627254 1.59142e-06)
(0.200612 0.00623401 1.53322e-06)
(0.200764 0.00617924 1.43243e-06)
(0.200904 0.00610956 1.28756e-06)
(0.201034 0.0060264 1.09748e-06)
(0.201152 0.00593128 8.61625e-07)
(0.201259 0.00582577 5.80118e-07)
(0.201352 0.00571147 2.53961e-07)
(0.201434 0.00559 -1.14831e-07)