/*--------------------------------*- C++ -*----------------------------------*\
| =========                 |                                                 |
| \\      /  F ield         | OpenFOAM: The Open Source CFD Toolbox           |
|  \\    /   O peration     | Version:  2.3.0                                 |
|   \\  /    A nd           | Web:      www.OpenFOAM.org                      |
|    \\/     M anipulation  |                                                 |
\*---------------------------------------------------------------------------*/
FoamFile
{
    version     2.0;
    format      ascii;
    class       volScalarField;
    location    "0.8";
    object      p;
}
// * * * * * * * * * * * * * * * * * * * * * * * * * * * * * * * * * * * * * //

dimensions      [0 2 -2 0 0 0 0];

internalField   nonuniform List<scalar> 
3375
(
0.00528819
0.00466498
0.00415136
0.00377859
0.00346888
0.00318872
0.00293756
0.00272
0.00253754
0.00238909
0.00227205
0.0021826
0.0021161
0.00206757
0.00203227
0.00200605
0.00198555
0.00196825
0.00195237
0.00193677
0.00192074
0.00190394
0.00188622
0.00186757
0.00184807
0.0018278
0.00180687
0.00178537
0.0017634
0.00174102
0.0017183
0.00169529
0.00167201
0.00164852
0.00162483
0.00160097
0.00157695
0.0015528
0.00152852
0.00150413
0.00147965
0.00145508
0.00143044
0.00140573
0.00138096
0.00135615
0.00133129
0.00130639
0.00128146
0.00125651
0.00123154
0.00120655
0.00118155
0.00115653
0.00113151
0.00110649
0.00108147
0.00105644
0.00103142
0.0010064
0.000981378
0.000956364
0.000931355
0.000906352
0.000881353
0.000856361
0.000831374
0.000806392
0.000781416
0.000756443
0.000731475
0.000706511
0.000681549
0.000656589
0.000631632
0.000606674
0.000581717
0.00055676
0.0005318
0.000506839
0.000481874
0.000456906
0.000431933
0.000406955
0.000381972
0.000356983
0.000331988
0.000306985
0.000281976
0.000256959
0.000231936
0.000206904
0.000181866
0.000156822
0.000131771
0.000106717
8.16624e-05
5.66229e-05
3.17213e-05
5.03904e-06
0.00499326
0.00454744
0.00412509
0.00378614
0.00349133
0.00321882
0.00297102
0.00275421
0.00257096
0.00242081
0.0023015
0.00220946
0.00214024
0.00208902
0.00205116
0.00202259
0.00199997
0.00198082
0.00196333
0.00194635
0.00192916
0.00191138
0.00189283
0.00187349
0.0018534
0.00183263
0.00181127
0.00178941
0.00176711
0.00174446
0.00172149
0.00169825
0.00167479
0.00165112
0.00162727
0.00160327
0.00157912
0.00155485
0.00153046
0.00150598
0.0014814
0.00145675
0.00143203
0.00140725
0.00138241
0.00135753
0.00133261
0.00130766
0.00128269
0.00125769
0.00123267
0.00120763
0.00118259
0.00115754
0.00113249
0.00110743
0.00108237
0.00105732
0.00103226
0.00100722
0.000982171
0.000957132
0.000932099
0.000907073
0.000882053
0.00085704
0.000832033
0.000807032
0.000782037
0.000757047
0.000732062
0.000707081
0.000682104
0.00065713
0.000632157
0.000607186
0.000582216
0.000557245
0.000532274
0.0005073
0.000482324
0.000457344
0.000432361
0.000407373
0.00038238
0.000357381
0.000332376
0.000307364
0.000282346
0.000257321
0.000232289
0.00020725
0.000182204
0.000157152
0.000132094
0.000107033
8.19728e-05
5.69317e-05
3.21228e-05
4.91928e-06
0.00477917
0.00444578
0.00408769
0.00377467
0.0034959
0.00323743
0.00300067
0.00279112
0.00261157
0.00246206
0.002341
0.00224554
0.00217195
0.00211605
0.00207366
0.00204102
0.00201495
0.00199297
0.00197328
0.0019546
0.00193613
0.00191738
0.0018981
0.0018782
0.00185766
0.00183653
0.00181487
0.00179275
0.00177022
0.00174736
0.0017242
0.00170079
0.00167717
0.00165335
0.00162937
0.00160524
0.00158098
0.0015566
0.00153212
0.00150754
0.00148289
0.00145816
0.00143337
0.00140852
0.00138362
0.00135869
0.00133372
0.00130872
0.00128369
0.00125865
0.00123359
0.00120852
0.00118345
0.00115836
0.00113328
0.00110819
0.00108311
0.00105803
0.00103295
0.00100788
0.000982809
0.00095775
0.000932697
0.000907652
0.000882614
0.000857584
0.00083256
0.000807544
0.000782534
0.00075753
0.000732531
0.000707537
0.000682547
0.00065756
0.000632577
0.000607594
0.000582613
0.000557632
0.000532651
0.000507667
0.000482682
0.000457693
0.000432701
0.000407705
0.000382703
0.000357696
0.000332684
0.000307665
0.00028264
0.000257608
0.000232569
0.000207523
0.000182471
0.000157413
0.000132349
0.000107281
8.2211e-05
5.71562e-05
3.2228e-05
3.91082e-06
0.00459646
0.00433533
0.00403231
0.0037499
0.0034926
0.00325277
0.00303111
0.00283223
0.00265912
0.00251242
0.00239117
0.00229326
0.00221574
0.0021551
0.00210774
0.0020703
0.00203985
0.00201406
0.00199111
0.00196973
0.00194903
0.00192847
0.00190772
0.00188661
0.00186509
0.00184314
0.00182079
0.00179808
0.00177506
0.00175177
0.00172824
0.00170451
0.00168059
0.00165652
0.0016323
0.00160797
0.00158352
0.00155897
0.00153434
0.00150963
0.00148484
0.00146
0.0014351
0.00141016
0.00138517
0.00136016
0.00133511
0.00131004
0.00128495
0.00125985
0.00123473
0.00120961
0.00118449
0.00115936
0.00113423
0.0011091
0.00108398
0.00105886
0.00103375
0.00100865
0.000983554
0.000958467
0.000933388
0.000908318
0.000883257
0.000858204
0.00083316
0.000808124
0.000783094
0.000758072
0.000733056
0.000708046
0.00068304
0.000658038
0.00063304
0.000608044
0.00058305
0.000558056
0.000533062
0.000508067
0.000483071
0.000458071
0.000433069
0.000408062
0.000383051
0.000358035
0.000333014
0.000307986
0.000282953
0.000257912
0.000232866
0.000207812
0.000182753
0.000157687
0.000132614
0.000107535
8.24453e-05
5.73347e-05
3.20575e-05
2.28927e-06
0.00443408
0.00422451
0.0039708
0.0037209
0.00348629
0.00326517
0.0030588
0.00287125
0.00270562
0.00256296
0.00244282
0.00234367
0.00226319
0.0021985
0.00214658
0.00210448
0.0020696
0.00203978
0.00201331
0.0019889
0.00196567
0.001943
0.0019205
0.00189794
0.0018752
0.00185223
0.00182901
0.00180556
0.00178188
0.00175802
0.00173398
0.00170979
0.00168547
0.00166103
0.00163648
0.00161184
0.00158712
0.00156233
0.00153747
0.00151255
0.00148758
0.00146256
0.00143751
0.00141242
0.0013873
0.00136216
0.001337
0.00131183
0.00128664
0.00126145
0.00123626
0.00121106
0.00118586
0.00116067
0.00113548
0.0011103
0.00108512
0.00105995
0.0010348
0.00100965
0.000984512
0.000959386
0.00093427
0.000909166
0.000884072
0.000858989
0.000833916
0.000808852
0.000783797
0.00075875
0.00073371
0.000708677
0.000683651
0.000658629
0.000633611
0.000608597
0.000583585
0.000558574
0.000533565
0.000508554
0.000483543
0.000458529
0.000433513
0.000408493
0.00038347
0.000358441
0.000333408
0.000308369
0.000283325
0.000258274
0.000233217
0.000208154
0.000183085
0.000158008
0.000132924
0.000107827
8.27004e-05
5.7473e-05
3.16828e-05
5.58242e-07
0.00429404
0.00412147
0.00390831
0.00368852
0.00347569
0.00327241
0.00308095
0.00290498
0.00274749
0.00260979
0.00249184
0.00239256
0.00231018
0.00224238
0.00218663
0.00214045
0.00210153
0.00206792
0.00203803
0.00201064
0.00198483
0.00195996
0.0019356
0.00191146
0.00188739
0.00186327
0.00183907
0.00181476
0.00179033
0.0017658
0.00174116
0.00171643
0.00169163
0.00166675
0.0016418
0.0016168
0.00159175
0.00156665
0.00154151
0.00151633
0.00149112
0.00146589
0.00144063
0.00141536
0.00139007
0.00136478
0.00133947
0.00131416
0.00128885
0.00126354
0.00123824
0.00121294
0.00118765
0.00116237
0.0011371
0.00111184
0.00108659
0.00106136
0.00103614
0.00101094
0.000985743
0.000960565
0.000935401
0.000910251
0.000885114
0.00085999
0.000834878
0.000809777
0.000784687
0.000759607
0.000734537
0.000709474
0.000684419
0.000659371
0.000634327
0.000609289
0.000584254
0.000559221
0.00053419
0.000509159
0.000484128
0.000459096
0.000434062
0.000409025
0.000383985
0.000358941
0.000333892
0.000308839
0.00028378
0.000258716
0.000233645
0.000208569
0.000183487
0.000158398
0.000133297
0.000108175
8.29932e-05
5.76036e-05
3.12817e-05
-6.66094e-07
0.00417301
0.0040268
0.00384577
0.0036528
0.00346073
0.00327464
0.0030977
0.0029333
0.00278426
0.00265208
0.00253703
0.00243847
0.00235505
0.00228497
0.00222617
0.00217651
0.00213404
0.002097
0.00206393
0.00203368
0.00200536
0.00197831
0.00195208
0.00192634
0.00190088
0.00187557
0.00185033
0.0018251
0.00179987
0.00177462
0.00174935
0.00172404
0.00169871
0.00167335
0.00164797
0.00162257
0.00159715
0.00157172
0.00154627
0.0015208
0.00149533
0.00146986
0.00144437
0.00141889
0.00139341
0.00136793
0.00134246
0.00131699
0.00129154
0.0012661
0.00124067
0.00121525
0.00118985
0.00116446
0.0011391
0.00111375
0.00108841
0.0010631
0.00103781
0.00101253
0.00098727
0.000962029
0.000936806
0.000911599
0.000886409
0.000861235
0.000836075
0.000810929
0.000785796
0.000760676
0.000735566
0.000710467
0.000685377
0.000660295
0.00063522
0.000610151
0.000585086
0.000560026
0.000534968
0.000509912
0.000484856
0.000459801
0.000434744
0.000409686
0.000384625
0.00035956
0.000334492
0.00030942
0.000284344
0.000259262
0.000234175
0.000209082
0.000183984
0.000158877
0.000133757
0.000108603
8.33569e-05
5.78036e-05
3.10925e-05
-8.58728e-07
0.00406736
0.00394044
0.00378477
0.00361525
0.00344259
0.00327282
0.00310973
0.00295658
0.00281601
0.00268964
0.002578
0.0024808
0.00239708
0.00232546
0.00226427
0.00221175
0.00216622
0.00212613
0.00209017
0.00205727
0.00202657
0.00199742
0.00196935
0.00194201
0.00191516
0.00188864
0.00186234
0.00183618
0.00181012
0.00178413
0.00175819
0.00173228
0.00170641
0.00168055
0.00165472
0.0016289
0.00160309
0.0015773
0.00155152
0.00152576
0.00150001
0.00147427
0.00144855
0.00142284
0.00139716
0.00137148
0.00134583
0.0013202
0.00129459
0.001269
0.00124343
0.00121789
0.00119236
0.00116687
0.00114139
0.00111594
0.00109052
0.00106512
0.00103974
0.00101438
0.000989051
0.00096374
0.00093845
0.000913181
0.000887931
0.0008627
0.000837486
0.000812289
0.000787108
0.000761941
0.000736788
0.000711646
0.000686516
0.000661396
0.000636284
0.00061118
0.000586082
0.000560989
0.0005359
0.000510814
0.000485731
0.000460648
0.000435565
0.000410481
0.000385395
0.000360307
0.000335216
0.000310122
0.000285024
0.000259922
0.000234815
0.000209703
0.000184585
0.000159459
0.000134315
0.000109129
8.38233e-05
5.81537e-05
3.13052e-05
2.00676e-07
0.00397435
0.00386207
0.00372651
0.00357712
0.00342213
0.00326758
0.00311754
0.00297518
0.00284298
0.0027226
0.00261476
0.00251945
0.00243606
0.00236354
0.0023006
0.00224578
0.00219765
0.0021549
0.00211635
0.00208101
0.00204808
0.00201693
0.00198708
0.00195818
0.00192995
0.00190222
0.00187485
0.00184774
0.00182084
0.00179409
0.00176747
0.00174094
0.00171451
0.00168814
0.00166183
0.00163558
0.00160938
0.00158323
0.00155711
0.00153103
0.00150499
0.00147899
0.00145302
0.00142708
0.00140117
0.0013753
0.00134946
0.00132366
0.00129788
0.00127214
0.00124643
0.00122075
0.0011951
0.00116949
0.0011439
0.00111835
0.00109283
0.00106733
0.00104187
0.00101643
0.000991018
0.000965633
0.000940273
0.000914937
0.000889625
0.000864334
0.000839063
0.000813812
0.000788579
0.000763363
0.000738163
0.000712976
0.000687803
0.000662641
0.00063749
0.000612348
0.000587214
0.000562087
0.000536965
0.000511846
0.000486732
0.000461619
0.000436507
0.000411395
0.000386283
0.000361169
0.000336052
0.000310934
0.000285812
0.000260687
0.000235558
0.000210424
0.000185285
0.000160137
0.00013497
0.000109755
8.44107e-05
5.87047e-05
3.19908e-05
2.35952e-06
0.00389188
0.00379107
0.0036716
0.00353925
0.00340008
0.00325954
0.00312169
0.00298958
0.00286555
0.00275123
0.00264747
0.0025545
0.00247196
0.00239912
0.00233497
0.00227837
0.00222811
0.00218308
0.00214223
0.00210468
0.00206969
0.00203665
0.0020051
0.00197467
0.0019451
0.00191616
0.00188772
0.00185965
0.00183189
0.00180438
0.00177706
0.0017499
0.00172289
0.001696
0.00166921
0.00164252
0.00161591
0.00158938
0.00156292
0.00153652
0.00151018
0.0014839
0.00145767
0.0014315
0.00140537
0.00137929
0.00135326
0.00132727
0.00130133
0.00127543
0.00124958
0.00122376
0.00119798
0.00117225
0.00114655
0.00112089
0.00109527
0.00106968
0.00104412
0.0010186
0.000993108
0.000967648
0.000942216
0.000916812
0.000891435
0.000866083
0.000840754
0.000815447
0.000790161
0.000764894
0.000739645
0.000714413
0.000689195
0.000663991
0.0006388
0.000613619
0.000588447
0.000563284
0.000538127
0.000512975
0.000487828
0.000462684
0.000437542
0.000412401
0.000387261
0.000362119
0.000336977
0.000311832
0.000286685
0.000261536
0.000236383
0.000211227
0.000186066
0.000160897
0.000135709
0.000110474
8.51182e-05
5.946e-05
3.3091e-05
5.19121e-06
0.00381827
0.00372674
0.00362027
0.00350229
0.00337708
0.0032493
0.00312274
0.0030003
0.00288414
0.00277585
0.00267636
0.00258606
0.00250481
0.00243215
0.00236731
0.00230939
0.00225744
0.00221048
0.00216763
0.00212811
0.00209123
0.00205644
0.00202327
0.00199138
0.00196049
0.00193036
0.00190086
0.00187184
0.00184322
0.00181492
0.0017869
0.0017591
0.0017315
0.00170407
0.0016768
0.00164965
0.00162263
0.00159571
0.00156889
0.00154216
0.00151552
0.00148895
0.00146247
0.00143605
0.00140969
0.0013834
0.00135717
0.001331
0.00130489
0.00127883
0.00125282
0.00122687
0.00120096
0.0011751
0.00114929
0.00112352
0.00109779
0.0010721
0.00104646
0.00102085
0.000995276
0.000969739
0.000944235
0.000918762
0.000893319
0.000867904
0.000842516
0.000817153
0.000791813
0.000766495
0.000741197
0.000715918
0.000690656
0.000665409
0.000640176
0.000614956
0.000589746
0.000564546
0.000539354
0.000514169
0.000488989
0.000463813
0.000438641
0.00041347
0.000388301
0.000363132
0.000337962
0.000312792
0.000287619
0.000262445
0.000237268
0.000212089
0.000186906
0.000161717
0.000136511
0.000111265
8.59267e-05
6.03809e-05
3.44621e-05
8.19033e-06
0.00375222
0.00366836
0.00357255
0.00346669
0.0033537
0.0032374
0.00312122
0.0030078
0.00289915
0.00279678
0.00270166
0.00261428
0.00253469
0.00246262
0.00239754
0.00233876
0.0022855
0.00223697
0.00219242
0.00215116
0.00211258
0.00207617
0.00204149
0.00200821
0.00197604
0.00194476
0.00191421
0.00188424
0.00185476
0.00182568
0.00179694
0.0017685
0.0017403
0.00171233
0.00168455
0.00165694
0.00162949
0.00160218
0.001575
0.00154793
0.00152098
0.00149412
0.00146736
0.00144069
0.00141411
0.0013876
0.00136117
0.00133481
0.00130852
0.0012823
0.00125614
0.00123004
0.001204
0.00117801
0.00115208
0.0011262
0.00110037
0.00107458
0.00104884
0.00102315
0.000997493
0.000971878
0.000946299
0.000920757
0.000895247
0.000869769
0.000844321
0.000818901
0.000793507
0.000768138
0.00074279
0.000717464
0.000692157
0.000666867
0.000641593
0.000616333
0.000591085
0.000565848
0.000540621
0.000515402
0.000490189
0.000464982
0.000439779
0.000414578
0.00038938
0.000364183
0.000338986
0.000313789
0.000288591
0.000263391
0.000238191
0.000212989
0.000187784
0.000162575
0.000137355
0.000112109
8.68072e-05
6.14068e-05
3.59389e-05
1.09464e-05
0.0036927
0.0036153
0.00352835
0.00343273
0.00333037
0.00322433
0.00311758
0.00301252
0.00291098
0.00281436
0.00272363
0.00263934
0.0025617
0.00249059
0.00242565
0.00236639
0.00231219
0.00226243
0.00221646
0.0021737
0.00213362
0.00209573
0.00205966
0.00202507
0.00199168
0.00195929
0.00192771
0.00189681
0.00186647
0.00183661
0.00180716
0.00177806
0.00174927
0.00172074
0.00169245
0.00166437
0.00163649
0.00160877
0.00158122
0.00155381
0.00152654
0.00149939
0.00147235
0.00144543
0.0014186
0.00139187
0.00136524
0.00133869
0.00131222
0.00128582
0.00125951
0.00123326
0.00120708
0.00118097
0.00115491
0.00112892
0.00110298
0.0010771
0.00105126
0.00102548
0.000999741
0.000974046
0.000948393
0.000922779
0.000897203
0.000871661
0.000846153
0.000820675
0.000795226
0.000769804
0.000744407
0.000719034
0.000693681
0.000668348
0.000643032
0.000617732
0.000592446
0.000567173
0.00054191
0.000516657
0.000491411
0.000466172
0.000440938
0.000415708
0.000390481
0.000365255
0.000340031
0.000314807
0.000289583
0.000264359
0.000239134
0.000213909
0.000188683
0.000163456
0.000138225
0.000112984
8.77283e-05
6.24746e-05
3.73839e-05
1.32279e-05
0.00363886
0.003567
0.00348749
0.00340057
0.00330742
0.00321048
0.00311227
0.0030149
0.00292002
0.00282891
0.00274252
0.00266144
0.00258595
0.00251609
0.00245163
0.00239223
0.00233745
0.00228676
0.00223965
0.00219563
0.00215422
0.00211503
0.00207768
0.00204187
0.00200734
0.00197387
0.00194131
0.00190949
0.00187831
0.00184768
0.00181751
0.00178776
0.00175836
0.00172927
0.00170047
0.00167192
0.00164359
0.00161547
0.00158754
0.00155978
0.00153218
0.00150473
0.00147741
0.00145023
0.00142316
0.0013962
0.00136936
0.00134261
0.00131596
0.00128939
0.00126292
0.00123652
0.0012102
0.00118396
0.00115778
0.00113167
0.00110562
0.00107964
0.00105371
0.00102783
0.00100201
0.000976234
0.000950505
0.000924819
0.000899174
0.000873568
0.000847999
0.000822463
0.000796959
0.000771484
0.000746037
0.000720616
0.000695217
0.00066984
0.000644483
0.000619143
0.000593818
0.000568508
0.00054321
0.000517922
0.000492644
0.000467373
0.000442108
0.000416848
0.000391592
0.000366338
0.000341086
0.000315835
0.000290585
0.000265335
0.000240086
0.000214837
0.00018959
0.000164346
0.000139105
0.000113872
8.86613e-05
6.3532e-05
3.87082e-05
1.49756e-05
0.00359004
0.00352298
0.00344977
0.00337027
0.00328511
0.0031962
0.00310567
0.00301533
0.00292663
0.00284076
0.0027586
0.00268076
0.00260759
0.0025392
0.0024755
0.00241628
0.00236119
0.00230986
0.00226188
0.00221682
0.00217429
0.00213394
0.00209544
0.00205851
0.00202291
0.00198844
0.00195492
0.00192222
0.00189022
0.00185883
0.00182796
0.00179755
0.00176755
0.00173791
0.00170858
0.00167955
0.00165078
0.00162225
0.00159394
0.00156582
0.00153789
0.00151013
0.00148253
0.00145508
0.00142776
0.00140058
0.00137352
0.00134657
0.00131973
0.00129299
0.00126635
0.00123981
0.00121334
0.00118697
0.00116066
0.00113444
0.00110828
0.00108219
0.00105617
0.0010302
0.00100429
0.000978432
0.000952626
0.000926868
0.000901154
0.000875483
0.000849852
0.000824257
0.000798698
0.00077317
0.000747673
0.000722203
0.000696759
0.000671338
0.000645938
0.000620558
0.000595195
0.000569847
0.000544513
0.000519192
0.00049388
0.000468577
0.000443281
0.000417991
0.000392705
0.000367423
0.000342144
0.000316866
0.000291589
0.000266314
0.00024104
0.000215767
0.000190499
0.000165237
0.000139986
0.000114758
8.9583e-05
6.45421e-05
3.987e-05
1.62452e-05
0.00354567
0.0034828
0.003415
0.00334185
0.00326362
0.00318178
0.00309811
0.00301414
0.00293117
0.00285023
0.00277215
0.00269754
0.00262677
0.00256003
0.00249731
0.00243851
0.0023834
0.00233169
0.00228306
0.00223718
0.00219372
0.00215237
0.00211285
0.00207491
0.00203832
0.0020029
0.00196849
0.00193494
0.00190215
0.00187002
0.00183846
0.0018074
0.0017768
0.0017466
0.00171677
0.00168725
0.00165804
0.00162909
0.00160039
0.00157192
0.00154365
0.00151558
0.00148769
0.00145997
0.00143241
0.00140499
0.00137771
0.00135056
0.00132353
0.00129662
0.00126981
0.00124311
0.0012165
0.00118999
0.00116356
0.00113722
0.00111095
0.00108475
0.00105863
0.00103257
0.00100657
0.000980634
0.00095475
0.000928918
0.000903136
0.000877399
0.000851705
0.000826052
0.000800436
0.000774855
0.000749307
0.000723789
0.000698298
0.000672833
0.000647391
0.000621971
0.000596569
0.000571184
0.000545815
0.000520458
0.000495113
0.000469778
0.000444451
0.000419131
0.000393816
0.000368505
0.000343198
0.000317893
0.00029259
0.000267288
0.000241989
0.000216693
0.000191402
0.000166121
0.000140858
0.00011563
9.04756e-05
6.54823e-05
4.08619e-05
1.71416e-05
0.0035053
0.0034461
0.00338298
0.0033153
0.00324308
0.00316745
0.00308987
0.00301167
0.00293395
0.00285761
0.00278343
0.00271198
0.00264365
0.00257867
0.00251712
0.00245895
0.00240404
0.00235217
0.00230312
0.00225662
0.00221241
0.00217022
0.00212981
0.00209096
0.00205348
0.00201719
0.00198193
0.00194758
0.00191403
0.00188118
0.00184894
0.00181726
0.00178607
0.00175532
0.00172497
0.00169498
0.00166532
0.00163596
0.00160687
0.00157804
0.00154944
0.00152106
0.00149288
0.00146488
0.00143707
0.00140941
0.00138191
0.00135456
0.00132734
0.00130025
0.00127327
0.00124642
0.00121966
0.00119301
0.00116646
0.00113999
0.00111361
0.00108731
0.00106109
0.00103494
0.00100885
0.000982831
0.000956869
0.000930964
0.000905112
0.000879309
0.000853553
0.00082784
0.000802168
0.000776534
0.000750935
0.000725368
0.000699831
0.000674322
0.000648838
0.000623377
0.000597936
0.000572515
0.000547109
0.000521718
0.00049634
0.000470973
0.000445615
0.000420264
0.00039492
0.000369581
0.000344245
0.000318913
0.000293583
0.000268255
0.000242929
0.000217608
0.000192294
0.000166992
0.000141714
0.000116479
9.13273e-05
6.63425e-05
4.16972e-05
1.77722e-05
0.00346854
0.0034126
0.00335352
0.00329057
0.00322356
0.00315338
0.00308122
0.0030082
0.00293526
0.0028632
0.0027927
0.0027243
0.00265841
0.00259526
0.002535
0.00247764
0.00242311
0.0023713
0.00232202
0.00227509
0.00223029
0.00218741
0.00214624
0.0021066
0.00206831
0.00203122
0.00199518
0.00196008
0.0019258
0.00189226
0.00185938
0.00182709
0.00179532
0.00176403
0.00173317
0.00170271
0.0016726
0.00164283
0.00161336
0.00158416
0.00155523
0.00152653
0.00149806
0.0014698
0.00144173
0.00141384
0.00138612
0.00135855
0.00133114
0.00130387
0.00127673
0.00124972
0.00122282
0.00119603
0.00116935
0.00114276
0.00111627
0.00108986
0.00106354
0.00103729
0.00101112
0.000985015
0.000958975
0.000932996
0.000907074
0.000881205
0.000855386
0.000829614
0.000803886
0.000778198
0.000752548
0.000726933
0.00070135
0.000675797
0.000650271
0.000624769
0.00059929
0.000573831
0.00054839
0.000522965
0.000497554
0.000472154
0.000446765
0.000421385
0.000396011
0.000370643
0.00034528
0.00031992
0.000294562
0.000269207
0.000243856
0.000218509
0.00019317
0.000167845
0.000142546
0.000117294
9.21286e-05
6.71189e-05
4.23961e-05
1.82215e-05
0.00343507
0.00338202
0.00332647
0.00326762
0.00320515
0.00313973
0.00307237
0.00300398
0.00293538
0.00286724
0.00280019
0.00273471
0.0026712
0.00260992
0.00255103
0.00249459
0.00244061
0.00238901
0.00233968
0.00229248
0.00224725
0.00220382
0.00216202
0.0021217
0.0020827
0.00204489
0.00200813
0.00197233
0.00193738
0.00190319
0.00186968
0.0018368
0.00180448
0.00177266
0.00174131
0.00171038
0.00167984
0.00164966
0.0016198
0.00159025
0.00156099
0.00153198
0.00150322
0.00147468
0.00144636
0.00141823
0.00139029
0.00136253
0.00133492
0.00130747
0.00128016
0.00125299
0.00122595
0.00119902
0.00117221
0.00114551
0.0011189
0.00109239
0.00106597
0.00103963
0.00101336
0.000987178
0.00096106
0.000935007
0.000909016
0.000883081
0.0008572
0.00083137
0.000805585
0.000779844
0.000754144
0.000728481
0.000702852
0.000677255
0.000651687
0.000626146
0.000600628
0.000575132
0.000549656
0.000524197
0.000498753
0.000473321
0.000447901
0.000422491
0.000397088
0.000371691
0.0003463
0.000320912
0.000295527
0.000270145
0.000244766
0.000219392
0.000194027
0.000168676
0.000143352
0.000118074
9.28771e-05
6.78162e-05
4.2984e-05
1.85504e-05
0.00340463
0.00335414
0.00330168
0.00324639
0.00318787
0.00312663
0.0030635
0.00299925
0.00293456
0.00287002
0.00280617
0.00274347
0.00268227
0.00262284
0.00256537
0.00250995
0.00245663
0.00240539
0.00235615
0.00230882
0.0022633
0.00221945
0.00217714
0.00213623
0.00209661
0.00205816
0.00202075
0.0019843
0.00194872
0.00191392
0.00187982
0.00184637
0.00181351
0.00178119
0.00174935
0.00171797
0.001687
0.00165642
0.00162619
0.00159629
0.00156669
0.00153738
0.00150832
0.00147952
0.00145094
0.00142258
0.00139442
0.00136645
0.00133866
0.00131103
0.00128355
0.00125622
0.00122903
0.00120197
0.00117503
0.00114821
0.00112149
0.00109487
0.00106835
0.00104192
0.00101557
0.000989302
0.000963107
0.000936981
0.00091092
0.000884921
0.000858978
0.000833089
0.00080725
0.000781456
0.000755706
0.000729995
0.000704321
0.000678681
0.000653072
0.000627491
0.000601936
0.000576404
0.000550892
0.000525399
0.000499923
0.00047446
0.00044901
0.00042357
0.000398138
0.000372713
0.000347293
0.000321878
0.000296466
0.000271056
0.00024565
0.000220248
0.000194854
0.000169474
0.000144119
0.000118806
9.35644e-05
6.84337e-05
4.34763e-05
1.87881e-05
0.00337181
0.00332402
0.00327475
0.00322315
0.0031687
0.00311177
0.00305305
0.00299315
0.00293262
0.00287195
0.0028116
0.00275196
0.00269338
0.0026361
0.00258034
0.0025262
0.00247378
0.00242309
0.00237411
0.0023268
0.00228108
0.00223688
0.0021941
0.00215263
0.00211239
0.00207327
0.00203518
0.00199804
0.00196177
0.00192629
0.00189155
0.00185746
0.001824
0.0017911
0.00175871
0.00172681
0.00169536
0.00166431
0.00163364
0.00160334
0.00157335
0.00154368
0.0015143
0.00148518
0.00145631
0.00142767
0.00139926
0.00137104
0.00134303
0.00131519
0.00128752
0.00126001
0.00123265
0.00120543
0.00117834
0.00115137
0.00112452
0.00109778
0.00107114
0.0010446
0.00101815
0.000991788
0.000965502
0.000939291
0.000913149
0.000887074
0.000861059
0.000835102
0.000809197
0.000783343
0.000757534
0.000731768
0.000706041
0.00068035
0.000654692
0.000629065
0.000603466
0.000577891
0.000552339
0.000526807
0.000501292
0.000475793
0.000450307
0.000424832
0.000399366
0.000373908
0.000348455
0.000323006
0.000297561
0.000272118
0.000246678
0.000221241
0.000195811
0.000170392
0.000144993
0.00011963
9.43209e-05
6.90918e-05
4.39799e-05
1.89975e-05
0.00333797
0.00329287
0.00324675
0.00319873
0.00314824
0.00309554
0.00304116
0.00298558
0.00292924
0.00287253
0.00281581
0.00275944
0.0027037
0.00264883
0.00259504
0.00254246
0.0024912
0.00244131
0.00239282
0.00234572
0.00229999
0.00225558
0.00221243
0.00217049
0.00212968
0.00208992
0.00205116
0.00201332
0.00197634
0.00194016
0.00190471
0.00186995
0.00183582
0.00180229
0.0017693
0.00173682
0.00170481
0.00167325
0.00164209
0.00161132
0.0015809
0.00155082
0.00152105
0.00149158
0.00146237
0.00143342
0.00140471
0.00137622
0.00134795
0.00131987
0.00129198
0.00126426
0.0012367
0.00120929
0.00118203
0.00115491
0.00112791
0.00110103
0.00107426
0.00104759
0.00102103
0.000994551
0.000968162
0.000941853
0.00091562
0.000889458
0.000863362
0.000837327
0.00081135
0.000785425
0.000759551
0.000733722
0.000707935
0.000682188
0.000656476
0.000630797
0.000605148
0.000579526
0.000553928
0.000528351
0.000502794
0.000477254
0.000451727
0.000426213
0.000400709
0.000375213
0.000349723
0.000324237
0.000298753
0.000273272
0.000247791
0.000222312
0.000196835
0.000171365
0.000145907
0.00012047
9.50669e-05
6.97087e-05
4.44155e-05
1.91632e-05
0.00330733
0.00326465
0.00322129
0.00317639
0.00312935
0.00308033
0.00302975
0.00297799
0.00292538
0.00287224
0.00281885
0.00276551
0.00271246
0.00265993
0.0026081
0.00255713
0.00250712
0.00245815
0.00241029
0.00236356
0.00231797
0.0022735
0.00223014
0.00218785
0.00214659
0.00210631
0.00206696
0.00202851
0.00199088
0.00195405
0.00191795
0.00188254
0.00184778
0.00181364
0.00178006
0.00174701
0.00171446
0.00168238
0.00165074
0.00161951
0.00158866
0.00155817
0.00152801
0.00149817
0.00146863
0.00143936
0.00141035
0.00138158
0.00135305
0.00132472
0.0012966
0.00126867
0.00124091
0.00121332
0.00118588
0.00115859
0.00113144
0.00110441
0.00107751
0.00105071
0.00102403
0.000997438
0.000970943
0.000944535
0.000918208
0.000891956
0.000865776
0.000839661
0.000813608
0.000787612
0.000761669
0.000735775
0.000709927
0.000684121
0.000658353
0.00063262
0.000606919
0.000581247
0.000555602
0.000529979
0.000504378
0.000478794
0.000453226
0.000427671
0.000402126
0.00037659
0.00035106
0.000325533
0.000300009
0.000274485
0.000248959
0.000223431
0.000197901
0.000172369
0.000146838
0.000121313
9.57973e-05
7.02961e-05
4.48218e-05
1.93341e-05
0.00328038
0.00323975
0.00319872
0.00315643
0.00311226
0.00306631
0.00301891
0.00297037
0.00292095
0.00287087
0.00282038
0.00276972
0.00271909
0.0026687
0.00261872
0.00256929
0.00252053
0.00247253
0.00242538
0.00237913
0.0023338
0.00228941
0.00224597
0.00220348
0.0021619
0.00212122
0.00208142
0.00204245
0.00200428
0.00196688
0.00193021
0.00189423
0.00185891
0.0018242
0.00179008
0.00175651
0.00172346
0.0016909
0.0016588
0.00162713
0.00159587
0.00156499
0.00153447
0.00150429
0.00147442
0.00144485
0.00141556
0.00138653
0.00135774
0.00132918
0.00130084
0.00127271
0.00124476
0.00121699
0.00118939
0.00116194
0.00113464
0.00110748
0.00108044
0.00105353
0.00102673
0.00100004
0.000973445
0.000946943
0.000920528
0.000894193
0.000867934
0.000841746
0.000815622
0.00078956
0.000763554
0.000737601
0.000711696
0.000685835
0.000660015
0.000634233
0.000608485
0.000582768
0.000557079
0.000531415
0.000505773
0.00048015
0.000454543
0.000428951
0.000403369
0.000377796
0.000352229
0.000326665
0.000301101
0.000275536
0.000249965
0.000224388
0.000198801
0.000173202
0.00014759
0.000121965
9.63268e-05
7.06764e-05
4.50332e-05
1.93739e-05
0.00325832
0.00321939
0.00318026
0.00314007
0.00309821
0.00305472
0.00300989
0.00296395
0.00291711
0.00286956
0.00282148
0.00277307
0.00272451
0.00267598
0.00262762
0.00257958
0.00253198
0.00248492
0.00243849
0.00239275
0.00234775
0.00230353
0.00226012
0.00221753
0.00217576
0.0021348
0.00209464
0.00205528
0.00201667
0.0019788
0.00194165
0.00190518
0.00186937
0.00183417
0.00179957
0.00176554
0.00173204
0.00169905
0.00166653
0.00163447
0.00160283
0.00157159
0.00154073
0.00151023
0.00148006
0.00145021
0.00142065
0.00139137
0.00136235
0.00133358
0.00130503
0.0012767
0.00124857
0.00122063
0.00119287
0.00116528
0.00113784
0.00111054
0.00108339
0.00105636
0.00102945
0.00100266
0.000975966
0.000949373
0.000922872
0.000896457
0.000870122
0.000843861
0.000817669
0.000791542
0.000765474
0.000739462
0.0007135
0.000687586
0.000661716
0.000635885
0.00061009
0.000584328
0.000558595
0.000532889
0.000507207
0.000481544
0.000455899
0.000430269
0.00040465
0.000379039
0.000353434
0.000327832
0.000302228
0.00027662
0.000251002
0.000225372
0.000199723
0.000174051
0.00014835
0.000122612
9.68345e-05
7.10156e-05
4.51842e-05
1.93432e-05
0.00324163
0.00320394
0.00316617
0.00312749
0.00308727
0.00304555
0.00300255
0.0029585
0.00291353
0.00286782
0.00282151
0.00277476
0.00272775
0.00268062
0.00263352
0.00258657
0.00253989
0.00249359
0.00244776
0.00240247
0.00235778
0.00231376
0.00227043
0.00222781
0.00218594
0.00214481
0.00210443
0.00206479
0.00202588
0.00198768
0.00195017
0.00191334
0.00187716
0.00184161
0.00180665
0.00177226
0.00173842
0.0017051
0.00167226
0.0016399
0.00160797
0.00157646
0.00154534
0.00151459
0.00148419
0.00145412
0.00142436
0.00139489
0.00136569
0.00133675
0.00130804
0.00127957
0.0012513
0.00122323
0.00119535
0.00116764
0.0011401
0.00111271
0.00108546
0.00105835
0.00103136
0.00100448
0.000977722
0.000951063
0.000924499
0.000898024
0.000871632
0.000845318
0.000819077
0.000792902
0.000766789
0.000740734
0.000714733
0.00068878
0.000662873
0.000637007
0.000611178
0.000585384
0.000559621
0.000533885
0.000508173
0.000482483
0.00045681
0.000431153