/*--------------------------------*- C++ -*----------------------------------*\
| =========                 |                                                 |
| \\      /  F ield         | OpenFOAM: The Open Source CFD Toolbox           |
|  \\    /   O peration     | Version:  2.3.0                                 |
|   \\  /    A nd           | Web:      www.OpenFOAM.org                      |
|    \\/     M anipulation  |                                                 |
\*---------------------------------------------------------------------------*/
FoamFile
{
    version     2.0;
    format      ascii;
    class       surfaceScalarField;
    location    "0.8";
    object      phi_0;
}
// * * * * * * * * * * * * * * * * * * * * * * * * * * * * * * * * * * * * * //

dimensions      [0 3 -1 0 0 0 0];

internalField   nonuniform List<scalar> 
6598
(
2.85976e-08
2.85914e-09
-3.14568e-08
2.57449e-08
2.85278e-09
2.30662e-08
2.67864e-09
2.05963e-08
2.46991e-09
1.83513e-08
2.24505e-09
1.63419e-08
2.00935e-09
1.45709e-08
1.77103e-09
1.3033e-08
1.5379e-09
1.17165e-08
1.31649e-09
1.06044e-08
1.11209e-09
9.67579e-09
9.28617e-10
8.90743e-09
7.68359e-10
8.27545e-09
6.31981e-10
7.75674e-09
5.18709e-10
7.33008e-09
4.2666e-10
6.97684e-09
3.53242e-10
6.68129e-09
2.95542e-10
6.43064e-09
2.50649e-10
6.21476e-09
2.15879e-10
6.02586e-09
1.88908e-10
5.85803e-09
1.67824e-10
5.70692e-09
1.51113e-10
5.5693e-09
1.37622e-10
5.4428e-09
1.26497e-10
5.32568e-09
1.1712e-10
5.21663e-09
1.09054e-10
5.11464e-09
1.01993e-10
5.01891e-09
9.5724e-11
4.92881e-09
9.00987e-11
4.8438e-09
8.50115e-11
4.76342e-09
8.03854e-11
4.68725e-09
7.61619e-11
4.61496e-09
7.22949e-11
4.54621e-09
6.87462e-11
4.48073e-09
6.54832e-11
4.41825e-09
6.24777e-11
4.35855e-09
5.97044e-11
4.30141e-09
5.71409e-11
4.24664e-09
5.47668e-11
4.19408e-09
5.25641e-11
4.14356e-09
5.05164e-11
4.09495e-09
4.86093e-11
4.04812e-09
4.68295e-11
4.00295e-09
4.51656e-11
3.95935e-09
4.36069e-11
3.9172e-09
4.21443e-11
3.87643e-09
4.07694e-11
3.83696e-09
3.94747e-11
3.79871e-09
3.82536e-11
3.76161e-09
3.71002e-11
3.7256e-09
3.60089e-11
3.69062e-09
3.4975e-11
3.65663e-09
3.39942e-11
3.62356e-09
3.30624e-11
3.59139e-09
3.21762e-11
3.56006e-09
3.13322e-11
3.52953e-09
3.05276e-11
3.49977e-09
2.97596e-11
3.47074e-09
2.90258e-11
3.44242e-09
2.83239e-11
3.41477e-09
2.7652e-11
3.38776e-09
2.70082e-11
3.36137e-09
2.63907e-11
3.33557e-09
2.5798e-11
3.31034e-09
2.52285e-11
3.28566e-09
2.4681e-11
3.26151e-09
2.41542e-11
3.23786e-09
2.36469e-11
3.2147e-09
2.31581e-11
3.19202e-09
2.26869e-11
3.16978e-09
2.22322e-11
3.14799e-09
2.17933e-11
3.12662e-09
2.13694e-11
3.10566e-09
2.09597e-11
3.0851e-09
2.05635e-11
3.06492e-09
2.01802e-11
3.04511e-09
1.98093e-11
3.02566e-09
1.94501e-11
3.00656e-09
1.91021e-11
2.98779e-09
1.87649e-11
2.96935e-09
1.84381e-11
2.95123e-09
1.81212e-11
2.93342e-09
1.78137e-11
2.9159e-09
1.75154e-11
2.89868e-09
1.7226e-11
2.88173e-09
1.69451e-11
2.86506e-09
1.66723e-11
2.84865e-09
1.64076e-11
2.8325e-09
1.61504e-11
2.8166e-09
1.59007e-11
2.80094e-09
1.5658e-11
2.78552e-09
1.54225e-11
2.77033e-09
1.51942e-11
2.75535e-09
1.49744e-11
2.74058e-09
1.47668e-11
2.726e-09
1.45844e-11
2.71153e-09
1.44717e-11
2.69701e-09
1.45186e-11
2.68208e-09
1.49248e-11
4.28555e-11
3.43093e-08
3.10323e-09
-3.45534e-08
3.37496e-08
3.41246e-09
3.29555e-08
3.47269e-09
3.20045e-08
3.4209e-09
3.0952e-08
3.29756e-09
2.98436e-08
3.11778e-09
2.87163e-08
2.89835e-09
2.75985e-08
2.65566e-09
2.65114e-08
2.40365e-09
2.54697e-08
2.15378e-09
2.44831e-08
1.91516e-09
2.35572e-08
1.69433e-09
2.26939e-08
1.49528e-09
2.18929e-08
1.31971e-09
2.11521e-08
1.16744e-09
2.04683e-08
1.03702e-09
1.98377e-08
9.26184e-10
1.9256e-08
8.32327e-10
1.8719e-08
7.52822e-10
1.82227e-08
6.85229e-10
1.77631e-08
6.2741e-10
1.73367e-08
5.77563e-10
1.69401e-08
5.34218e-10
1.65704e-08
4.96198e-10
1.62249e-08
4.62574e-10
1.59014e-08
4.3262e-10
1.55976e-08
4.05763e-10
1.53118e-08
3.81554e-10
1.50422e-08
3.59634e-10
1.47875e-08
3.39711e-10
1.45464e-08
3.21546e-10
1.43176e-08
3.04938e-10
1.41002e-08
2.89717e-10
1.38932e-08
2.75735e-10
1.36958e-08
2.62864e-10
1.35073e-08
2.50992e-10
1.3327e-08
2.40019e-10
1.31542e-08
2.29858e-10
1.29886e-08
2.2043e-10
1.28295e-08
2.11666e-10
1.26765e-08
2.03504e-10
1.25292e-08
1.95889e-10
1.23873e-08
1.8877e-10
1.22503e-08
1.82105e-10
1.21181e-08
1.75854e-10
1.19902e-08
1.69981e-10
1.18666e-08
1.64454e-10
1.17468e-08
1.59246e-10
1.16307e-08
1.54331e-10
1.15181e-08
1.49685e-10
1.14088e-08
1.45287e-10
1.13027e-08
1.4112e-10
1.11995e-08
1.37165e-10
1.10992e-08
1.33408e-10
1.10015e-08
1.29833e-10
1.09064e-08
1.26429e-10
1.08138e-08
1.23184e-10
1.07235e-08
1.20086e-10
1.06354e-08
1.17127e-10
1.05494e-08
1.14296e-10
1.04654e-08
1.11587e-10
1.03835e-08
1.08991e-10
1.03033e-08
1.06502e-10
1.0225e-08
1.04113e-10
1.01484e-08
1.01818e-10
1.00735e-08
9.96119e-11
1.00002e-08
9.74895e-11
9.92838e-09
9.54461e-11
9.85806e-09
9.34774e-11
9.78917e-09
9.15795e-11
9.72165e-09
8.97485e-11
9.65546e-09
8.79811e-11
9.59056e-09
8.62741e-11
9.52689e-09
8.46244e-11
9.46443e-09
8.30292e-11
9.40312e-09
8.14859e-11
9.34294e-09
7.99921e-11
9.28384e-09
7.85456e-11
9.2258e-09
7.71441e-11
9.16878e-09
7.57857e-11
9.11275e-09
7.44686e-11
9.05768e-09
7.31911e-11
9.00354e-09
7.19515e-11
8.95031e-09
7.07483e-11
8.89796e-09
6.95802e-11
8.84646e-09
6.84458e-11
8.79578e-09
6.73439e-11
8.74592e-09
6.62733e-11
8.69684e-09
6.52328e-11
8.64851e-09
6.42214e-11
8.60093e-09
6.32382e-11
8.55407e-09
6.22825e-11
8.50791e-09
6.1355e-11
8.46243e-09
6.04589e-11
8.41759e-09
5.96069e-11
8.37333e-09
5.88406e-11
8.32951e-09
5.82916e-11
8.28567e-09
5.83602e-11
8.23707e-09
6.35212e-11
1.08178e-10
3.64039e-08
2.92208e-09
-3.62227e-08
3.65013e-08
3.31499e-09
3.64739e-08
3.50012e-09
3.63268e-08
3.56801e-09
3.60701e-08
3.55425e-09
3.57174e-08
3.4705e-09
3.52856e-08
3.33017e-09
3.47922e-08
3.14905e-09
3.42537e-08
2.94208e-09
3.36851e-08
2.72242e-09
3.3099e-08
2.50124e-09
3.2506e-08
2.28735e-09
3.19143e-08
2.08697e-09
3.13302e-08
1.90386e-09
3.0758e-08
1.73962e-09
3.02007e-08
1.59426e-09
2.96603e-08
1.46663e-09
2.91376e-08
1.35499e-09
2.86331e-08
1.25731e-09
2.81468e-08
1.17155e-09
2.76784e-08
1.09584e-09
2.72274e-08
1.02854e-09
2.67933e-08
9.68291e-10
2.63756e-08
9.13953e-10
2.59735e-08
8.64628e-10
2.55866e-08
8.19594e-10
2.5214e-08
7.7828e-10
2.48554e-08
7.40227e-10
2.45099e-08
7.05065e-10
2.41772e-08
6.7249e-10
2.38565e-08
6.42247e-10
2.35473e-08
6.14118e-10
2.32491e-08
5.87917e-10
2.29613e-08
5.63477e-10
2.26836e-08
5.4065e-10
2.24152e-08
5.19305e-10
2.21559e-08
4.99322e-10
2.19052e-08
4.80592e-10
2.16626e-08
4.63017e-10
2.14278e-08
4.46505e-10
2.12003e-08
4.30976e-10
2.09798e-08
4.16353e-10
2.0766e-08
4.02569e-10
2.05586e-08
3.89559e-10
2.03572e-08
3.77268e-10
2.01615e-08
3.65641e-10
1.99713e-08
3.54632e-10
1.97864e-08
3.44196e-10
1.96064e-08
3.34293e-10
1.94312e-08
3.24885e-10
1.92606e-08
3.15939e-10
1.90943e-08
3.07423e-10
1.89321e-08
2.99309e-10
1.8774e-08
2.9157e-10
1.86196e-08
2.84182e-10
1.84689e-08
2.77122e-10
1.83217e-08
2.7037e-10
1.81779e-08
2.63907e-10
1.80373e-08
2.57715e-10
1.78998e-08
2.51778e-10
1.77654e-08
2.4608e-10
1.76337e-08
2.40609e-10
1.75049e-08
2.3535e-10
1.73787e-08
2.30292e-10
1.72551e-08
2.25423e-10
1.7134e-08
2.20734e-10
1.70153e-08
2.16215e-10
1.68988e-08
2.11857e-10
1.67847e-08
2.07651e-10
1.66727e-08
2.03589e-10
1.65627e-08
1.99665e-10
1.64549e-08
1.95871e-10
1.63489e-08
1.92202e-10
1.62449e-08
1.88651e-10
1.61427e-08
1.85213e-10
1.60423e-08
1.81882e-10
1.59437e-08
1.78654e-10
1.58467e-08
1.75524e-10
1.57513e-08
1.72488e-10
1.56576e-08
1.69541e-10
1.55654e-08
1.66681e-10
1.54747e-08
1.63903e-10
1.53854e-08
1.61205e-10
1.52976e-08
1.58582e-10
1.52111e-08
1.56033e-10
1.5126e-08
1.53555e-10
1.50422e-08
1.51144e-10
1.49597e-08
1.48799e-10
1.48784e-08
1.46517e-10
1.47983e-08
1.44296e-10
1.47194e-08
1.42134e-10
1.46417e-08
1.4003e-10
1.45651e-08
1.37984e-10
1.44895e-08
1.36003e-10
1.4415e-08
1.34111e-10
1.43415e-08
1.32385e-10
1.42687e-08
1.31083e-10
1.41958e-08
1.31236e-10
1.4119e-08
1.40357e-10
1.85929e-10
3.79782e-08
2.70465e-09
-3.77608e-08
3.8205e-08
3.08817e-09
3.83932e-08
3.31191e-09
3.853e-08
3.43122e-09
3.86088e-08
3.47553e-09
3.8625e-08
3.45426e-09
3.85787e-08
3.37645e-09
3.84735e-08
3.25425e-09
3.83152e-08
3.10035e-09
3.81111e-08
2.92657e-09
3.78688e-08
2.74349e-09
3.75963e-08
2.55995e-09
3.73005e-08
2.38274e-09
3.69878e-08
2.21651e-09
3.66636e-08
2.06389e-09
3.63319e-08
1.92594e-09
3.59961e-08
1.80246e-09
3.56585e-08
1.69253e-09
3.53211e-08
1.59475e-09
3.4985e-08
1.50761e-09
3.46513e-08
1.42958e-09
3.43205e-08
1.3593e-09
3.39932e-08
1.29557e-09
3.36698e-08
1.23738e-09
3.33505e-08
1.18392e-09
3.30356e-08
1.13452e-09
3.27252e-08
1.08865e-09
3.24196e-08
1.04589e-09
3.21187e-08
1.00591e-09
3.18228e-08
9.68412e-10
3.15319e-08
9.33177e-10
3.1246e-08
9.00008e-10
3.09652e-08
8.68738e-10
3.06894e-08
8.39219e-10
3.04187e-08
8.11322e-10
3.01531e-08
7.84931e-10
2.98925e-08
7.59938e-10
2.96368e-08
7.36249e-10
2.93861e-08
7.13775e-10
2.91402e-08
6.92435e-10
2.8899e-08
6.72153e-10
2.86625e-08
6.52862e-10
2.84305e-08
6.34497e-10
2.82031e-08
6.16999e-10
2.79801e-08
6.00315e-10
2.77613e-08
5.84393e-10
2.75467e-08
5.69187e-10
2.73363e-08
5.54653e-10
2.71298e-08
5.40752e-10
2.69273e-08
5.27446e-10
2.67285e-08
5.14699e-10
2.65335e-08
5.02481e-10
2.6342e-08
4.9076e-10
2.61541e-08
4.79508e-10
2.59695e-08
4.687e-10
2.57884e-08
4.58311e-10
2.56104e-08
4.48318e-10
2.54356e-08
4.38699e-10
2.52639e-08
4.29436e-10
2.50952e-08
4.20509e-10
2.49293e-08
4.11901e-10
2.47664e-08
4.03596e-10
2.46061e-08
3.95578e-10
2.44486e-08
3.87834e-10
2.42937e-08
3.80349e-10
2.41413e-08
3.73111e-10
2.39914e-08
3.66109e-10
2.38439e-08
3.59331e-10
2.36988e-08
3.52766e-10
2.3556e-08
3.46406e-10
2.34154e-08
3.40241e-10
2.3277e-08
3.34261e-10
2.31408e-08
3.2846e-10
2.30066e-08
3.22829e-10
2.28744e-08
3.17362e-10
2.27443e-08
3.1205e-10
2.2616e-08
3.06888e-10
2.24897e-08
3.0187e-10
2.23652e-08
2.96989e-10
2.22425e-08
2.92242e-10
2.21215e-08
2.87621e-10
2.20023e-08
2.83123e-10
2.18848e-08
2.78744e-10
2.17689e-08
2.74478e-10
2.16546e-08
2.70322e-10
2.15419e-08
2.66272e-10
2.14307e-08
2.62325e-10
2.1321e-08
2.58476e-10
2.12128e-08
2.54724e-10
2.1106e-08
2.51063e-10
2.10007e-08
2.47493e-10
2.08967e-08
2.4401e-10
2.07941e-08
2.40616e-10
2.06928e-08
2.37322e-10
2.05927e-08
2.3416e-10
2.04938e-08
2.31248e-10
2.0396e-08
2.28971e-10
2.02983e-08
2.28894e-10
2.02e-08
2.38673e-10
2.74639e-10
3.95155e-08
2.51243e-09
-3.93233e-08
3.97428e-08
2.86084e-09
3.99666e-08
3.08818e-09
4.01731e-08
3.22468e-09
4.0355e-08
3.29364e-09
4.0505e-08
3.30428e-09
4.06178e-08
3.26361e-09
4.06911e-08
3.18101e-09
4.07246e-08
3.06681e-09
4.07202e-08
2.93099e-09
4.0681e-08
2.78269e-09
4.06111e-08
2.62985e-09
4.0515e-08
2.47887e-09
4.0397e-08
2.33443e-09
4.02614e-08
2.19953e-09
4.01116e-08
2.07574e-09
3.99506e-08
1.9635e-09
3.97806e-08
1.86244e-09
3.96037e-08
1.7717e-09
3.94211e-08
1.69019e-09
3.92339e-08
1.61674e-09
3.9043e-08
1.55022e-09
3.8849e-08
1.48961e-09
3.86523e-08
1.43404e-09
3.84535e-08
1.38278e-09
3.82528e-08
1.33521e-09
3.80506e-08
1.29086e-09
3.78471e-08
1.24933e-09
3.76427e-08
1.21029e-09
3.74377e-08
1.1735e-09
3.72321e-08
1.13873e-09
3.70263e-08
1.10581e-09
3.68205e-08
1.07458e-09
3.66148e-08
1.04491e-09
3.64094e-08
1.01669e-09
3.62045e-08
9.89817e-10
3.60003e-08
9.64192e-10
3.57968e-08
9.39734e-10
3.55942e-08
9.16367e-10
3.53926e-08
8.9402e-10
3.51921e-08
8.72631e-10
3.49928e-08
8.52139e-10
3.47948e-08
8.32491e-10
3.45982e-08
8.13637e-10
3.4403e-08
7.95529e-10
3.42093e-08
7.78126e-10
3.40171e-08
7.61386e-10
3.38264e-08
7.45274e-10
3.36374e-08
7.29755e-10
3.34501e-08
7.14797e-10
3.32644e-08
7.0037e-10
3.30804e-08
6.86448e-10
3.28982e-08
6.73002e-10
3.27177e-08
6.60011e-10
3.25389e-08
6.47451e-10
3.2362e-08
6.35301e-10
3.21867e-08
6.23541e-10
3.20133e-08
6.12153e-10
3.18416e-08
6.0112e-10
3.16717e-08
5.90424e-10
3.15035e-08
5.80052e-10
3.13371e-08
5.69988e-10
3.11725e-08
5.60218e-10
3.10096e-08
5.50731e-10
3.08484e-08
5.41513e-10
3.0689e-08
5.32554e-10
3.05313e-08
5.23843e-10
3.03752e-08
5.1537e-10
3.02209e-08
5.07124e-10
3.00682e-08
4.99098e-10
2.99171e-08
4.91282e-10
2.97677e-08
4.83669e-10
2.96199e-08
4.7625e-10
2.94737e-08
4.69018e-10
2.93291e-08
4.61967e-10
2.91861e-08
4.5509e-10
2.90446e-08
4.4838e-10
2.89046e-08
4.41831e-10
2.87662e-08
4.35439e-10
2.86292e-08
4.29198e-10
2.84938e-08
4.23102e-10
2.83597e-08
4.17147e-10
2.82271e-08
4.11329e-10
2.8096e-08
4.05643e-10
2.79662e-08
4.00085e-10
2.78378e-08
3.94651e-10
2.77108e-08
3.89338e-10
2.75852e-08
3.84142e-10
2.74608e-08
3.7906e-10
2.73378e-08
3.74088e-10
2.72161e-08
3.69223e-10
2.70956e-08
3.64464e-10
2.69764e-08
3.59812e-10
2.68585e-08
3.55281e-10
2.67417e-08
3.50913e-10
2.66261e-08
3.46848e-10
2.65115e-08
3.43547e-10
2.63978e-08
3.42668e-10
2.62864e-08
3.49991e-10
3.70467e-10
4.10926e-08
2.34684e-09
-4.0927e-08
4.12981e-08
2.65536e-09
4.15131e-08
2.87314e-09
4.17243e-08
3.01351e-09
4.19249e-08
3.09301e-09
4.21089e-08
3.12034e-09
4.22709e-08
3.10162e-09
4.24074e-08
3.04445e-09
4.25168e-08
2.95742e-09
4.25988e-08
2.84901e-09
4.26544e-08
2.7271e-09
4.26856e-08
2.59866e-09
4.2695e-08
2.46946e-09
4.26855e-08
2.34392e-09
4.26599e-08
2.22507e-09
4.2621e-08
2.1147e-09
4.25709e-08
2.0136e-09
4.25115e-08
1.92181e-09
4.24443e-08
1.83884e-09
4.23706e-08
1.76395e-09
4.22911e-08
1.69624e-09
4.22065e-08
1.6348e-09
4.21173e-08
1.57879e-09
4.20239e-08
1.52743e-09
4.19266e-08
1.48008e-09
4.18257e-08
1.43619e-09
4.17212e-08
1.39529e-09
4.16136e-08
1.35701e-09
4.15028e-08
1.32106e-09
4.13891e-08
1.28718e-09
4.12727e-08
1.25515e-09
4.11537e-08
1.22481e-09
4.10323e-08
1.196e-09
4.09086e-08
1.16861e-09
4.07828e-08
1.14251e-09
4.0655e-08
1.11761e-09
4.05253e-08
1.09383e-09
4.0394e-08
1.07108e-09
4.02611e-08
1.04928e-09
4.01267e-08
1.02839e-09
3.9991e-08
1.00833e-09
3.98541e-08
9.89055e-10
3.97161e-08
9.70511e-10
3.9577e-08
9.52654e-10
3.94371e-08
9.35442e-10
3.92964e-08
9.18835e-10
3.9155e-08
9.02799e-10
3.9013e-08
8.873e-10
3.88704e-08
8.72308e-10
3.87274e-08
8.57795e-10
3.85841e-08
8.43734e-10
3.84404e-08
8.30102e-10
3.82965e-08
8.16876e-10
3.81525e-08
8.04036e-10
3.80084e-08
7.91561e-10
3.78643e-08
7.79435e-10
3.77202e-08
7.67641e-10
3.75762e-08
7.56162e-10
3.74323e-08
7.44985e-10
3.72886e-08
7.34096e-10
3.71452e-08
7.23483e-10
3.7002e-08
7.13133e-10
3.68592e-08
7.03035e-10
3.67168e-08
6.9318e-10
3.65747e-08
6.83557e-10
3.64331e-08
6.74157e-10
3.6292e-08
6.64972e-10
3.61514e-08
6.55994e-10
3.60113e-08
6.47214e-10
3.58718e-08
6.38627e-10
3.57328e-08
6.30224e-10
3.55945e-08
6.22e-10
3.54568e-08
6.13948e-10
3.53197e-08
6.06063e-10
3.51834e-08
5.98339e-10
3.50477e-08
5.90772e-10
3.49127e-08
5.83355e-10
3.47785e-08
5.76086e-10
3.46449e-08
5.68959e-10
3.45122e-08
5.6197e-10
3.43802e-08
5.55115e-10
3.42489e-08
5.4839e-10
3.41184e-08
5.41793e-10
3.39888e-08
5.3532e-10
3.38599e-08
5.28967e-10
3.37318e-08
5.22732e-10
3.36045e-08
5.16611e-10
3.34781e-08
5.10603e-10
3.33524e-08
5.04704e-10
3.32276e-08
4.98911e-10
3.31036e-08
4.93223e-10
3.29804e-08
4.87637e-10
3.28581e-08
4.82158e-10
3.27366e-08
4.76797e-10
3.26159e-08
4.71602e-10
3.2496e-08
4.66714e-10
3.2377e-08
4.62563e-10
3.22592e-08
4.60449e-10
3.21458e-08
4.63399e-10
4.66915e-10
4.27219e-08
2.20141e-09
-4.25764e-08
4.29054e-08
2.4718e-09
4.31039e-08
2.67463e-09
4.33044e-08
2.81306e-09
4.35e-08
2.89736e-09
4.36856e-08
2.93481e-09
4.38564e-08
2.93082e-09
4.40092e-08
2.89164e-09
4.41421e-08
2.82447e-09
4.42545e-08
2.7366e-09
4.43468e-08
2.63488e-09
4.442e-08
2.52543e-09
4.4476e-08
2.41347e-09
4.45168e-08
2.30308e-09
4.45447e-08
2.19721e-09
4.45616e-08
2.09778e-09
4.45694e-08
2.00579e-09
4.45697e-08
1.92156e-09
4.45636e-08
1.84493e-09
4.45521e-08
1.7754e-09
4.4536e-08
1.71234e-09
4.45158e-08
1.65503e-09
4.44918e-08
1.60277e-09
4.44644e-08
1.5549e-09
4.44336e-08
1.51086e-09
4.43996e-08
1.47013e-09
4.43626e-08
1.43231e-09
4.43226e-08
1.39703e-09
4.42797e-08
1.364e-09
4.42339e-08
1.33298e-09
4.41853e-08
1.30375e-09
4.41339e-08
1.27615e-09
4.40799e-08
1.25003e-09
4.40232e-08
1.22526e-09
4.3964e-08
1.20172e-09
4.39023e-08
1.17932e-09
4.38382e-08
1.15796e-09
4.37717e-08
1.13757e-09
4.37029e-08
1.11808e-09
4.36319e-08
1.09942e-09
4.35587e-08
1.08153e-09
4.34834e-08
1.06436e-09
4.3406e-08
1.04785e-09
4.33267e-08
1.03197e-09
4.32455e-08
1.01666e-09
4.31624e-08
1.00189e-09
4.30776e-08
9.87632e-10
4.29911e-08
9.73843e-10
4.29029e-08
9.60497e-10
4.28131e-08
9.47565e-10
4.27218e-08
9.35022e-10
4.26291e-08
9.22846e-10
4.25349e-08
9.11013e-10
4.24395e-08
8.99504e-10
4.23427e-08
8.88302e-10
4.22448e-08
8.77387e-10
4.21457e-08
8.66746e-10
4.20455e-08
8.56363e-10
4.19442e-08
8.46226e-10
4.1842e-08
8.3632e-10
4.17388e-08
8.26636e-10
4.16348e-08
8.17161e-10
4.153e-08
8.07887e-10
4.14243e-08
7.98805e-10
4.1318e-08
7.89904e-10
4.1211e-08
7.81179e-10
4.11033e-08
7.72621e-10
4.09951e-08
7.64223e-10
4.08863e-08
7.5598e-10
4.07771e-08
7.47884e-10
4.06674e-08
7.39931e-10
4.05572e-08
7.32116e-10
4.04468e-08
7.24434e-10
4.03359e-08
7.16879e-10
4.02248e-08
7.09448e-10
4.01135e-08
7.02138e-10
4.00019e-08
6.94943e-10
3.98901e-08
6.87861e-10
3.97782e-08
6.80889e-10
3.96661e-08
6.74023e-10
3.9554e-08
6.67262e-10
3.94418e-08
6.60601e-10
3.93295e-08
6.54039e-10
3.92173e-08
6.47574e-10
3.9105e-08
6.41204e-10
3.89928e-08
6.34925e-10
3.88807e-08
6.28738e-10
3.87687e-08
6.2264e-10
3.86567e-08
6.16628e-10
3.8545e-08
6.10702e-10
3.84333e-08
6.04859e-10
3.83219e-08
5.991e-10
3.82106e-08
5.93425e-10
3.80995e-08
5.87849e-10
3.79887e-08
5.82409e-10
3.78782e-08
5.7722e-10
3.77682e-08
5.72582e-10
3.76595e-08
5.69167e-10
3.75556e-08
5.673e-10
5.56228e-10
4.44062e-08
2.07068e-09
-4.42754e-08
4.45711e-08
2.30685e-09
4.47531e-08
2.49259e-09
4.49404e-08
2.62579e-09
4.5126e-08
2.71178e-09
4.53048e-08
2.75597e-09
4.54727e-08
2.76292e-09
4.56266e-08
2.73779e-09
4.57645e-08
2.68652e-09
4.58858e-08
2.61535e-09
4.59905e-08
2.5302e-09
4.60794e-08
2.4365e-09
4.6154e-08
2.3389e-09
4.62159e-08
2.24118e-09
4.62669e-08
2.14619e-09
4.63088e-08
2.05588e-09
4.63432e-08
1.9714e-09
4.63714e-08
1.89331e-09
4.63947e-08
1.82168e-09
4.64138e-08
1.75627e-09
4.64295e-08
1.69665e-09
4.64422e-08
1.64228e-09
4.64524e-08
1.5926e-09
4.64602e-08
1.54709e-09
4.64658e-08
1.50524e-09
4.64693e-08
1.46661e-09
4.64708e-08
1.43083e-09
4.64703e-08
1.39755e-09
4.64678e-08
1.36651e-09
4.64633e-08
1.33747e-09
4.64568e-08
1.31022e-09
4.64484e-08
1.2846e-09
4.6438e-08
1.26046e-09
4.64256e-08
1.23766e-09
4.64112e-08
1.2161e-09
4.63948e-08
1.19567e-09
4.63765e-08
1.17629e-09
4.63562e-08
1.15786e-09
4.6334e-08
1.14033e-09
4.63098e-08
1.12362e-09
4.62836e-08
1.10767e-09
4.62556e-08
1.09242e-09
4.62256e-08
1.07782e-09
4.61937e-08
1.06384e-09
4.616e-08
1.05041e-09
4.61244e-08
1.0375e-09
4.60869e-08
1.02509e-09
4.60476e-08
1.01312e-09
4.60066e-08
1.00157e-09
4.59637e-08
9.90409e-10
4.59191e-08
9.79615e-10
4.58728e-08
9.69159e-10
4.58248e-08
9.59021e-10
4.57751e-08
9.49178e-10
4.57238e-08
9.39611e-10
4.56709e-08
9.30302e-10
4.56164e-08
9.21236e-10
4.55604e-08
9.12395e-10
4.55029e-08
9.03767e-10
4.54438e-08
8.95339e-10
4.53834e-08
8.87098e-10
4.53215e-08
8.79033e-10
4.52583e-08
8.71135e-10
4.51937e-08
8.63393e-10
4.51278e-08
8.55799e-10
4.50606e-08
8.48344e-10
4.49922e-08
8.41022e-10
4.49226e-08
8.33826e-10
4.48518e-08
8.26749e-10
4.47799e-08
8.19785e-10
4.47069e-08
8.12928e-10
4.46329e-08
8.06175e-10
4.45578e-08
7.9952e-10
4.44817e-08
7.92958e-10
4.44047e-08
7.86487e-10
4.43267e-08
7.80101e-10
4.42479e-08
7.73799e-10
4.41681e-08
7.67577e-10
4.40876e-08
7.61431e-10
4.40063e-08
7.5536e-10
4.39242e-08
7.49361e-10
4.38413e-08
7.43432e-10
4.37578e-08
7.37572e-10
4.36736e-08
7.31777e-10
4.35887e-08
7.26048e-10
4.35033e-08
7.20382e-10
4.34172e-08
7.14778e-10
4.33307e-08
7.09235e-10
4.32435e-08
7.03752e-10
4.31559e-08
6.98327e-10
4.30678e-08
6.92959e-10
4.29793e-08
6.87647e-10
4.28903e-08
6.82392e-10
4.28009e-08
6.77202e-10
4.27112e-08
6.721e-10
4.26213e-08
6.67147e-10
4.25314e-08
6.62456e-10
4.24426e-08
6.58028e-10
4.23577e-08
6.52156e-10
6.31401e-10
4.61474e-08
1.95086e-09
-4.60276e-08
4.62971e-08
2.15713e-09
4.64643e-08
2.32541e-09
4.66388e-08
2.45133e-09
4.68137e-08
2.5368e-09
4.69843e-08
2.5854e-09
4.71465e-08
2.60075e-09
4.72972e-08
2.58702e-09
4.74347e-08
2.54908e-09
4.75579e-08
2.49216e-09
4.76667e-08
2.42137e-09
4.77618e-08
2.34143e-09
4.78441e-08
2.25652e-09
4.79152e-08
2.17009e-09
4.79766e-08
2.08483e-09
4.80298e-08
2.00269e-09
4.80762e-08
1.92495e-09
4.81172e-08
1.8523e-09
4.81539e-08
1.78504e-09
4.81871e-08
1.72311e-09
4.82174e-08
1.66628e-09
4.82455e-08
1.61419e-09
4.82717e-08
1.56641e-09
4.82963e-08
1.52252e-09
4.83194e-08
1.4821e-09
4.83412e-08
1.44479e-09
4.83618e-08
1.41024e-09
4.83812e-08
1.37815e-09
4.83995e-08
1.34827e-09
4.84166e-08
1.32039e-09
4.84325e-08
1.2943e-09
4.84472e-08
1.26985e-09
4.84608e-08
1.24689e-09
4.84732e-08
1.22529e-09
4.84843e-08
1.20494e-09
4.84943e-08
1.18574e-09
4.85029e-08
1.16761e-09
4.85104e-08
1.15045e-09
4.85165e-08
1.1342e-09
4.85213e-08
1.11879e-09
4.85248e-08
1.10416e-09
4.8527e-08
1.09024e-09
4.85278e-08
1.077e-09
4.85273e-08
1.06437e-09
4.85254e-08
1.05232e-09
4.85221e-08
1.0408e-09
4.85174e-08
1.02977e-09
4.85113e-08
1.01921e-09
4.85038e-08
1.00907e-09
4.84949e-08
9.99328e-10
4.84845e-08
9.89954e-10
4.84728e-08
9.80923e-10
4.84596e-08
9.7221e-10
4.8445e-08
9.63794e-10
4.84289e-08
9.55652e-10
4.84115e-08
9.47768e-10
4.83926e-08
9.40121e-10
4.83723e-08
9.32697e-10
4.83506e-08
9.2548e-10
4.83274e-08
9.18455e-10
4.83029e-08
9.11611e-10
4.8277e-08
9.04933e-10
4.82497e-08
8.98412e-10
4.82211e-08
8.92038e-10
4.81911e-08
8.85799e-10
4.81598e-08
8.79688e-10
4.81271e-08
8.73696e-10
4.80931e-08
8.67815e-10
4.80578e-08
8.62039e-10
4.80212e-08
8.5636e-10
4.79834e-08
8.50774e-10
4.79443e-08
8.45273e-10
4.7904e-08
8.39854e-10
4.78624e-08
8.34511e-10
4.78197e-08
8.29239e-10
4.77757e-08
8.24035e-10
4.77306e-08
8.18896e-10
4.76844e-08
8.13816e-10
4.7637e-08
8.08794e-10
4.75886e-08
8.03827e-10
4.7539e-08
7.98912e-10
4.74884e-08
7.94046e-10
4.74367e-08
7.89228e-10
4.73841e-08
7.84456e-10
4.73304e-08
7.79728e-10
4.72757e-08
7.75043e-10
4.72201e-08
7.70399e-10
4.71635e-08
7.65796e-10
4.7106e-08
7.61231e-10
4.70477e-08
7.56704e-10
4.69884e-08
7.52213e-10
4.69283e-08
7.47755e-10
4.68674e-08
7.4333e-10
4.68056e-08
7.38937e-10
4.67432e-08
7.34578e-10
4.66801e-08
7.3025e-10
4.66166e-08
7.25875e-10
4.65537e-08
7.20922e-10
4.64933e-08
7.12575e-10
6.87823e-10
4.79477e-08
1.83934e-09
-4.78362e-08
4.80851e-08
2.01978e-09
4.82393e-08
2.17121e-09
4.84019e-08
2.28867e-09
4.85668e-08
2.37198e-09
4.8729e-08
2.42313e-09
4.8885e-08
2.44484e-09
4.90316e-08
2.44038e-09
4.9167e-08
2.4137e-09
4.929e-08
2.36911e-09
4.94004e-08
2.31095e-09
4.94985e-08
2.24334e-09
4.95851e-08
2.16993e-09
4.96613e-08
2.09388e-09
4.97285e-08
2.01769e-09
4.97879e-08
1.94327e-09
4.98409e-08
1.87193e-09
4.98887e-08
1.80451e-09
4.99323e-08
1.74144e-09
4.99726e-08
1.68286e-09
5.00102e-08
1.62867e-09
5.00457e-08
1.57867e-09
5.00795e-08
1.53257e-09
5.0112e-08
1.49004e-09
5.01433e-08
1.45076e-09
5.01737e-08
1.41441e-09
5.02032e-08
1.38071e-09
5.0232e-08
1.3494e-09
5.026e-08
1.32024e-09
5.02874e-08
1.29305e-09
5.0314e-08
1.26763e-09
5.034e-08
1.24384e-09
5.03654e-08
1.22154e-09
5.03901e-08
1.2006e-09
5.04141e-08
1.18092e-09
5.04374e-08
1.16241e-09
5.04601e-08
1.14497e-09
5.0482e-08
1.12852e-09
5.05032e-08
1.113e-09
5.05237e-08
1.09833e-09
5.05434e-08
1.08445e-09
5.05623e-08
1.07132e-09
5.05804e-08
1.05887e-09
5.05977e-08
1.04705e-09
5.06142e-08
1.03583e-09
5.06299e-08
1.02516e-09
5.06446e-08
1.015e-09
5.06585e-08
1.00532e-09
5.06715e-08
9.96089e-10
5.06836e-08
9.87266e-10
5.06947e-08
9.78827e-10
5.07049e-08
9.70747e-10
5.07141e-08
9.62999e-10
5.07223e-08
9.55561e-10
5.07295e-08
9.48413e-10
5.07358e-08
9.41533e-10
5.0741e-08
9.34903e-10
5.07452e-08
9.28506e-10
5.07483e-08
9.22326e-10
5.07504e-08
9.16349e-10
5.07515e-08
9.1056e-10
5.07515e-08
9.04945e-10
5.07504e-08
8.99495e-10
5.07482e-08
8.94196e-10
5.0745e-08
8.89039e-10
5.07407e-08
8.84014e-10
5.07353e-08
8.79112e-10
5.07288e-08
8.74324e-10
5.07212e-08
8.69643e-10
5.07124e-08
8.65061e-10
5.07027e-08
8.60572e-10
5.06918e-08
8.56169e-10
5.06798e-08
8.51847e-10
5.06667e-08
8.47599e-10
5.06525e-08
8.43422e-10
5.06372e-08
8.39309e-10
5.06209e-08
8.35258e-10
5.06034e-08
8.31263e-10
5.05849e-08
8.27321e-10
5.05653e-08
8.23429e-10
5.05446e-08
8.19584e-10
5.05229e-08
8.15782e-10
5.05001e-08
8.12022e-10
5.04762e-08
8.08301e-10
5.04513e-08
8.04617e-10
5.04254e-08
8.00968e-10
5.03985e-08
7.97353e-10
5.03705e-08
7.9377e-10
5.03415e-08
7.90218e-10
5.03115e-08
7.86694e-10
5.02805e-08
7.83196e-10
5.02486e-08
7.7972e-10
5.02156e-08
7.76262e-10
5.01818e-08
7.72813e-10
5.0147e-08
7.69352e-10
5.01114e-08
7.65817e-10
5.00753e-08
7.6198e-10
5.00392e-08
7.57004e-10
5.0004e-08
7.47838e-10
7.23973e-10
4.98097e-08
1.7343e-09
-4.97047e-08
4.9937e-08
1.89249e-09
5.008e-08
2.02821e-09
5.0232e-08
2.1367e-09
5.03873e-08
2.21663e-09
5.05416e-08
2.26883e-09
5.06913e-08
2.29516e-09
5.08336e-08
2.29813e-09
5.09664e-08
2.28087e-09
5.10886e-08
2.24691e-09
5.11997e-08
2.19988e-09
5.12997e-08
2.14329e-09
5.13893e-08
2.08038e-09
5.14692e-08
2.01394e-09
5.15406e-08
1.9463e-09
5.16046e-08
1.87927e-09
5.16623e-08
1.81419e-09
5.17149e-08
1.75195e-09
5.17632e-08
1.69311e-09
5.18082e-08
1.63792e-09
5.18504e-08
1.58646e-09
5.18904e-08
1.53862e-09
5.19288e-08
1.49424e-09
5.19657e-08
1.4531e-09
5.20015e-08
1.41493e-09
5.20364e-08
1.37951e-09
5.20706e-08
1.34658e-09
5.2104e-08
1.31593e-09
5.21369e-08
1.28735e-09
5.21693e-08
1.26068e-09
5.22012e-08
1.23574e-09
5.22326e-08
1.21239e-09
5.22637e-08
1.19052e-09
5.22943e-08
1.16999e-09
5.23245e-08
1.15072e-09
5.23543e-08
1.1326e-09
5.23837e-08
1.11556e-09
5.24127e-08
1.09951e-09
5.24413e-08
1.08439e-09
5.24695e-08
1.07013e-09
5.24973e-08
1.05667e-09
5.25246e-08
1.04396e-09
5.25516e-08
1.03195e-09
5.2578e-08
1.02058e-09
5.2604e-08
1.00982e-09
5.26296e-08
9.99618e-10
5.26546e-08
9.89944e-10
5.26792e-08
9.8076e-10
5.27033e-08
9.72034e-10
5.27268e-08
9.63734e-10
5.27498e-08
9.55832e-10
5.27722e-08
9.48303e-10
5.27941e-08
9.4112e-10
5.28154e-08
9.34261e-10
5.28361e-08
9.27704e-10
5.28562e-08
9.2143e-10
5.28757e-08
9.1542e-10
5.28946e-08
9.09656e-10
5.29128e-08
9.04122e-10
5.29303e-08
8.98803e-10
5.29472e-08
8.93685e-10
5.29634e-08
8.88755e-10
5.29789e-08
8.84e-10
5.29937e-08
8.79409e-10
5.30077e-08
8.74971e-10
5.30211e-08
8.70676e-10
5.30337e-08
8.66514e-10
5.30455e-08
8.62478e-10
5.30566e-08
8.58558e-10
5.30669e-08
8.54747e-10
5.30764e-08
8.51038e-10
5.30852e-08
8.47424e-10
5.30931e-08
8.43899e-10
5.31003e-08
8.40457e-10
5.31066e-08
8.37092e-10
5.31121e-08
8.338e-10
5.31168e-08
8.30575e-10
5.31206e-08
8.27413e-10
5.31237e-08
8.24311e-10
5.31258e-08
8.21264e-10
5.31271e-08
8.18268e-10
5.31276e-08
8.15321e-10
5.31272e-08
8.1242e-10
5.31259e-08
8.09562e-10
5.31238e-08
8.06744e-10
5.31208e-08
8.03966e-10
5.31169e-08
8.01224e-10
5.31122e-08
7.98517e-10
5.31066e-08
7.95843e-10
5.31001e-08
7.93199e-10
5.30927e-08
7.90583e-10
5.30844e-08
7.8799e-10
5.30753e-08
7.8541e-10
5.30652e-08
7.82827e-10
5.30544e-08
7.80202e-10
5.30428e-08
7.77428e-10
5.30306e-08
7.74195e-10
5.3018e-08
7.69585e-10
5.30049e-08
7.60938e-10
7.41125e-10
5.1736e-08
1.63442e-09
-5.16361e-08
5.1855e-08
1.77345e-09
5.19884e-08
1.8948e-09
5.21309e-08
1.99426e-09
5.22775e-08
2.07001e-09
5.24243e-08
2.12204e-09
5.25679e-08
2.15152e-09
5.27057e-08
2.1603e-09
5.28358e-08
2.15083e-09
5.29568e-08
2.12592e-09
5.3068e-08
2.08861e-09
5.31695e-08
2.04186e-09
5.32614e-08
1.98846e-09
5.33445e-08
1.9309e-09
5.34195e-08
1.87129e-09
5.34874e-08
1.81133e-09
5.35493e-08
1.75234e-09
5.36059e-08
1.69525e-09
5.36584e-08
1.64069e-09
5.37073e-08
1.58902e-09
5.37533e-08
1.54042e-09
5.3797e-08
1.4949e-09
5.38389e-08
1.45239e-09
5.38792e-08
1.41276e-09
5.39183e-08
1.37582e-09
5.39564e-08
1.3414e-09
5.39937e-08
1.30931e-09
5.40303e-08
1.27936e-09
5.40662e-08
1.25139e-09
5.41017e-08
1.22524e-09
5.41366e-08
1.20076e-09
5.41712e-08
1.17782e-09
5.42054e-08
1.15632e-09
5.42393e-08
1.13614e-09
5.42728e-08
1.11719e-09
5.4306e-08
1.09937e-09
5.4339e-08
1.08262e-09
5.43716e-08
1.06685e-09
5.4404e-08
1.052e-09
5.44361e-08
1.03801e-09
5.4468e-08
1.02482e-09
5.44996e-08
1.01237e-09
5.45309e-08
1.00062e-09
5.4562e-08
9.89515e-10
5.45928e-08
9.79019e-10
5.46233e-08
9.69091e-10
5.46535e-08
9.59692e-10
5.46835e-08
9.50788e-10
5.47132e-08
9.42347e-10
5.47426e-08
9.34339e-10
5.47717e-08
9.26736e-10
5.48005e-08
9.19511e-10
5.4829e-08
9.12641e-10
5.48571e-08
9.06103e-10
5.4885e-08
8.99875e-10
5.49124e-08
8.93938e-10
5.49396e-08
8.88273e-10
5.49664e-08
8.82864e-10
5.49928e-08
8.77693e-10
5.50189e-08
8.72747e-10
5.50445e-08
8.6801e-10
5.50698e-08
8.63471e-10
5.50947e-08
8.59116e-10
5.51192e-08
8.54935e-10
5.51432e-08
8.50916e-10
5.51669e-08
8.4705e-10
5.51901e-08
8.43328e-10
5.52128e-08
8.3974e-10
5.52351e-08
8.36278e-10
5.52569e-08
8.32935e-10
5.52782e-08
8.29704e-10
5.52991e-08
8.26577e-10
5.53194e-08
8.23549e-10
5.53393e-08
8.20613e-10
5.53586e-08
8.17764e-10
5.53774e-08
8.14997e-10
5.53957e-08
8.12307e-10
5.54134e-08
8.09689e-10
5.54306e-08
8.07139e-10
5.54472e-08
8.04654e-10
5.54632e-08
8.02229e-10
5.54787e-08
7.99862e-10
5.54935e-08
7.97549e-10
5.55078e-08
7.95288e-10
5.55215e-08
7.93077e-10
5.55345e-08
7.90912e-10
5.5547e-08
7.88793e-10
5.55588e-08
7.86717e-10
5.55699e-08
7.84682e-10
5.55804e-08
7.82687e-10
5.55903e-08
7.80726e-10
5.55995e-08
7.78795e-10
5.5608e-08
7.76882e-10
5.56159e-08
7.74964e-10
5.56231e-08
7.7299e-10
5.56297e-08
7.70831e-10
5.56357e-08
7.6816e-10
5.56412e-08
7.6415e-10
5.56452e-08
7.5685e-10
7.42385e-10
5.37292e-08
1.53873e-09
-5.36336e-08
5.38415e-08
1.66119e-09
5.39667e-08
1.76956e-09
5.41007e-08
1.86026e-09
5.42394e-08
1.93131e-09
5.43792e-08
1.98224e-09
5.45171e-08
2.01365e-09
5.46506e-08
2.02684e-09
5.47777e-08
2.02368e-09
5.48972e-08
2.00641e-09
5.50084e-08
1.97749e-09
5.51108e-08
1.93941e-09
5.52047e-08
1.89458e-09
5.52904e-08
1.84515e-09
5.53687e-08
1.79303e-09
5.54402e-08
1.7398e-09
5.55059e-08
1.6867e-09
5.55664e-08
1.63469e-09
5.56227e-08
1.58443e-09
5.56753e-08
1.53637e-09
5.5725e-08
1.49076e-09
5.57722e-08
1.44771e-09
5.58174e-08
1.40723e-09
5.58609e-08
1.36926e-09
5.5903e-08