/*--------------------------------*- C++ -*----------------------------------*\
| =========                 |                                                 |
| \\      /  F ield         | OpenFOAM: The Open Source CFD Toolbox           |
|  \\    /   O peration     | Version:  2.3.0                                 |
|   \\  /    A nd           | Web:      www.OpenFOAM.org                      |
|    \\/     M anipulation  |                                                 |
\*---------------------------------------------------------------------------*/
FoamFile
{
    version     2.0;
    format      ascii;
    class       surfaceScalarField;
    location    "0.3";
    object      phi_0;
}
// * * * * * * * * * * * * * * * * * * * * * * * * * * * * * * * * * * * * * //

dimensions      [0 3 -1 0 0 0 0];

internalField   nonuniform List<scalar> 
5273
(
3.22995e-08
2.28548e-09
2.89637e-08
3.33585e-09
2.57746e-08
3.18915e-09
2.27033e-08
3.07127e-09
1.97343e-08
2.96894e-09
1.69806e-08
2.75371e-09
1.45843e-08
2.39634e-09
1.2605e-08
1.97927e-09
1.1052e-08
1.55299e-09
9.8876e-09
1.16442e-09
9.03991e-09
8.47696e-10
8.42987e-09
6.10039e-10
7.98666e-09
4.43207e-10
7.65378e-09
3.32879e-10
7.3903e-09
2.63484e-10
7.16819e-09
2.22103e-10
6.96982e-09
1.98372e-10
6.78552e-09
1.84304e-10
6.61089e-09
1.74625e-10
6.44448e-09
1.66418e-10
6.2861e-09
1.58372e-10
6.136e-09
1.50105e-10
5.99433e-09
1.41672e-10
5.86105e-09
1.33281e-10
5.73589e-09
1.25151e-10
5.61845e-09
1.1745e-10
5.50817e-09
1.10276e-10
5.4045e-09
1.03672e-10
5.30686e-09
9.76347e-11
5.21473e-09
9.21362e-11
5.1276e-09
8.71305e-11
5.04503e-09
8.25665e-11
4.96664e-09
7.83939e-11
4.89207e-09
7.45653e-11
4.82103e-09
7.10368e-11
4.75326e-09
6.77711e-11
4.68853e-09
6.47371e-11
4.62662e-09
6.1906e-11
4.56737e-09
5.9253e-11
4.51061e-09
5.6758e-11
4.4562e-09
5.44055e-11
4.40402e-09
5.21785e-11
4.35396e-09
5.0062e-11
4.30592e-09
4.80464e-11
4.25979e-09
4.61228e-11
4.21551e-09
4.42796e-11
4.17301e-09
4.25058e-11
4.13221e-09
4.07972e-11
4.09306e-09
3.9149e-11
4.05551e-09
3.7551e-11
4.01952e-09
3.59945e-11
3.98504e-09
3.44771e-11
3.95204e-09
3.29998e-11
3.92049e-09
3.15523e-11
3.89036e-09
3.01246e-11
3.86164e-09
2.87176e-11
3.83431e-09
2.73377e-11
3.80833e-09
2.59762e-11
3.78371e-09
2.462e-11
3.76044e-09
2.32703e-11
3.7385e-09
2.1942e-11
3.71787e-09
2.06302e-11
3.69855e-09
1.93225e-11
3.68054e-09
1.80089e-11
3.66382e-09
1.67161e-11
3.64837e-09
1.54464e-11
3.63417e-09
1.42017e-11
3.62123e-09
1.29455e-11
3.6095e-09
1.1729e-11
3.59894e-09
1.05585e-11
3.58942e-09
9.51883e-12
3.5809e-09
8.52334e-12
3.57321e-09
7.68311e-12
3.56632e-09
6.89697e-12
3.55991e-09
6.40324e-12
3.55397e-09
5.9446e-12
3.54821e-09
5.76342e-12
3.54278e-09
5.42546e-12
3.5374e-09
5.38079e-12
3.53224e-09
5.15951e-12
3.52697e-09
5.26629e-12
3.52185e-09
5.11997e-12
3.51679e-09
5.06203e-12
3.51191e-09
4.88505e-12
3.5073e-09
4.61076e-12
3.50256e-09
4.74136e-12
3.49822e-09
4.33531e-12
3.49354e-09
4.68069e-12
3.4896e-09
3.94281e-12
3.48538e-09
4.21862e-12
3.48181e-09
3.56919e-12
3.47796e-09
3.84571e-12
3.47427e-09
3.69277e-12
3.47056e-09
3.70532e-12
3.46699e-09
3.57268e-12
3.46368e-09
3.30861e-12
3.46072e-09
2.96274e-12
3.45766e-09
3.05979e-12
3.45477e-09
2.89296e-12
3.66858e-12
3.6636e-08
1.51951e-09
3.6764e-08
3.20789e-09
3.632e-08
3.63314e-09
3.56876e-08
3.70368e-09
3.48599e-08
3.79665e-09
3.38057e-08
3.8079e-09
3.25631e-08
3.63895e-09
3.12201e-08
3.32221e-09
2.98572e-08
2.91594e-09
2.85338e-08
2.48777e-09
2.72868e-08
2.09477e-09
2.61323e-08
1.76452e-09
2.50746e-08
1.5009e-09
2.41108e-08
1.29667e-09
2.32369e-08
1.13739e-09
2.24453e-08
1.01369e-09
2.17263e-08
9.17376e-10
2.10705e-08
8.40132e-10
2.04695e-08
7.75623e-10
1.99162e-08
7.19667e-10
1.94048e-08
6.69764e-10
1.89304e-08
6.24509e-10
1.8489e-08
5.83138e-10
1.8077e-08
5.45227e-10
1.76917e-08
5.1051e-10
1.73303e-08
4.78778e-10
1.69908e-08
4.49824e-10
1.6671e-08
4.23432e-10
1.63693e-08
3.99382e-10
1.6084e-08
3.7745e-10
1.58137e-08
3.57411e-10
1.55572e-08
3.39057e-10
1.53134e-08
3.22197e-10
1.50813e-08
3.06658e-10
1.486e-08
2.92284e-10
1.46489e-08
2.78941e-10
1.44471e-08
2.66513e-10
1.42541e-08
2.54895e-10
1.40694e-08
2.43997e-10
1.38924e-08
2.3374e-10
1.37227e-08
2.24061e-10
1.356e-08
2.14895e-10
1.34039e-08
2.06185e-10
1.3254e-08
1.97887e-10
1.31102e-08
1.89962e-10
1.29721e-08
1.82366e-10
1.28396e-08
1.75057e-10
1.27124e-08
1.68011e-10
1.25903e-08
1.61202e-10
1.24733e-08
1.54596e-10
1.23611e-08
1.48161e-10
1.22537e-08
1.41881e-10
1.21509e-08
1.35749e-10
1.20528e-08
1.29732e-10
1.19591e-08
1.23802e-10
1.18698e-08
1.17955e-10
1.1785e-08
1.12198e-10
1.17044e-08
1.06509e-10
1.16282e-08
1.00856e-10
1.15562e-08
9.52441e-11
1.14885e-08
8.97039e-11
1.14249e-08
8.42271e-11
1.13654e-08
7.87931e-11
1.131e-08
7.33881e-11
1.12587e-08
6.8082e-11
1.12112e-08
6.2891e-11
1.11676e-08
5.78392e-11
1.11277e-08
5.28692e-11
1.10913e-08
4.81238e-11
1.10582e-08
4.36377e-11
1.10281e-08
3.96224e-11
1.10007e-08
3.59e-11
1.09756e-08
3.27366e-11
1.09526e-08
2.98964e-11
1.09312e-08
2.79002e-11
1.0911e-08
2.61284e-11
1.08916e-08
2.51188e-11
1.08732e-08
2.38433e-11
1.08552e-08
2.33321e-11
1.0838e-08
2.24239e-11
1.08209e-08
2.23302e-11
1.08045e-08
2.15841e-11
1.07883e-08
2.11736e-11
1.07729e-08
2.03573e-11
1.07579e-08
1.95434e-11
1.07433e-08
1.93967e-11
1.07293e-08
1.83189e-11
1.07153e-08
1.86386e-11
1.07024e-08
1.68598e-11
1.06895e-08
1.71132e-11
1.06775e-08
1.55847e-11
1.06655e-08
1.58797e-11
1.06537e-08
1.54782e-11
1.06423e-08
1.5067e-11
1.0631e-08
1.48655e-11
1.06206e-08
1.37335e-11
1.06103e-08
1.32444e-11
1.06003e-08
1.30494e-11
1.05904e-08
1.28175e-11
1.39545e-11
3.77193e-08
1.00295e-09
3.83634e-08
2.56387e-09
3.87096e-08
3.28693e-09
3.89172e-08
3.49606e-09
3.90806e-08
3.63328e-09
3.91377e-08
3.75081e-09
3.90251e-08
3.7515e-09
3.87462e-08
3.6011e-09
3.833e-08
3.33217e-09
3.78135e-08
3.0043e-09
3.72327e-08
2.67551e-09
3.66144e-08
2.38281e-09
3.59763e-08
2.139e-09
3.53314e-08
1.94164e-09
3.46875e-08
1.78125e-09
3.4051e-08
1.65022e-09
3.34261e-08
1.54227e-09
3.28151e-08
1.45109e-09
3.22193e-08
1.37138e-09
3.16396e-08
1.29942e-09
3.10765e-08
1.2329e-09
3.05304e-08
1.17056e-09
3.00018e-08
1.11176e-09
2.94908e-08
1.05621e-09
2.89975e-08
1.00379e-09
2.85219e-08
9.54415e-10
2.80637e-08
9.0803e-10
2.76226e-08
8.64527e-10
2.71982e-08
8.23789e-10
2.679e-08
7.85668e-10
2.63974e-08
7.49996e-10
2.60198e-08
7.166e-10
2.56567e-08
6.85306e-10
2.53074e-08
6.55949e-10
2.49714e-08
6.28364e-10
2.46479e-08
6.02399e-10
2.43365e-08
5.77921e-10
2.40366e-08
5.54796e-10
2.37477e-08
5.329e-10
2.34693e-08
5.12126e-10
2.3201e-08
4.92379e-10
2.29423e-08
4.73558e-10
2.26929e-08
4.55572e-10
2.24525e-08
4.38346e-10
2.22206e-08
4.21812e-10
2.19971e-08
4.05893e-10
2.17816e-08
3.90515e-10
2.1574e-08
3.75629e-10
2.1374e-08
3.61189e-10
2.11815e-08
3.47128e-10
2.09963e-08
3.33388e-10
2.08182e-08
3.19934e-10
2.06472e-08
3.06748e-10
2.04832e-08
2.93772e-10
2.0326e-08
2.80951e-10
2.01757e-08
2.68274e-10
2.00322e-08
2.55751e-10
1.98953e-08
2.4334e-10
1.97652e-08
2.30991e-10
1.96417e-08
2.18707e-10
1.95249e-08
2.06545e-10
1.94146e-08
1.94493e-10
1.93109e-08
1.82528e-10
1.92136e-08
1.70631e-10
1.91228e-08
1.58935e-10
1.90382e-08
1.4748e-10
1.89597e-08
1.36334e-10
1.88872e-08
1.25416e-10
1.88203e-08
1.14987e-10
1.87588e-08
1.05119e-10
1.87023e-08
9.61867e-11
1.86502e-08
8.79019e-11
1.86023e-08
8.07247e-11
1.85579e-08
7.42498e-11
1.85164e-08
6.93595e-11
1.84776e-08
6.49919e-11
1.84406e-08
6.20777e-11
1.84056e-08
5.88279e-11
1.83719e-08
5.70323e-11
1.83398e-08
5.45849e-11
1.83084e-08
5.37085e-11
1.82784e-08
5.16277e-11
1.82491e-08
5.04438e-11
1.82212e-08
4.82693e-11
1.81941e-08
4.66229e-11
1.8168e-08
4.55024e-11
1.81427e-08
4.36151e-11
1.81181e-08
4.32307e-11
1.80946e-08
4.03896e-11
1.80718e-08
3.99188e-11
1.80497e-08
3.76338e-11
1.80284e-08
3.72319e-11
1.80069e-08
3.6926e-11
1.79866e-08
3.53552e-11
1.7966e-08
3.55302e-11
1.79468e-08
3.29321e-11
1.79275e-08
3.24879e-11
1.79087e-08
3.18285e-11
1.789e-08
3.15603e-11
3.27093e-11
3.88712e-08
7.16816e-10
3.94287e-08
2.00641e-09
3.98964e-08
2.81921e-09
4.02411e-08
3.15137e-09
4.05779e-08
3.29643e-09
4.09129e-08
3.41588e-09
4.11877e-08
3.47665e-09
4.1365e-08
3.42377e-09
4.1436e-08
3.26118e-09
4.14115e-08
3.02879e-09
4.13113e-08
2.77572e-09
4.11541e-08
2.54006e-09
4.09542e-08
2.3389e-09
4.07218e-08
2.17405e-09
4.04632e-08
2.03976e-09
4.01841e-08
1.92937e-09
3.9889e-08
1.8374e-09
3.9581e-08
1.75906e-09
3.92622e-08
1.69018e-09
3.89341e-08
1.62754e-09
3.8598e-08
1.56901e-09
3.82552e-08
1.51332e-09
3.79071e-08
1.45983e-09
3.75551e-08
1.40825e-09
3.72004e-08
1.35849e-09
3.68442e-08
1.31057e-09
3.64878e-08
1.26449e-09
3.6132e-08
1.22026e-09
3.5778e-08
1.17786e-09
3.54264e-08
1.13725e-09
3.5078e-08
1.09837e-09
3.47335e-08
1.06114e-09
3.43933e-08
1.02548e-09
3.40579e-08
9.91303e-10
3.37278e-08
9.58511e-10
3.34032e-08
9.27019e-10
3.30843e-08
8.96754e-10
3.27715e-08
8.67628e-10
3.24649e-08
8.39556e-10
3.21645e-08
8.12467e-10
3.18706e-08
7.86303e-10
3.15832e-08
7.60981e-10
3.13023e-08
7.36425e-10
3.10281e-08
7.12583e-10
3.07605e-08
6.89401e-10
3.04996e-08
6.66803e-10
3.02454e-08
6.44715e-10
2.99979e-08
6.23098e-10
2.97572e-08
6.01911e-10
2.95232e-08
5.81077e-10
2.92961e-08
5.60525e-10
2.90758e-08
5.40227e-10
2.88624e-08
5.20171e-10
2.86559e-08
5.00278e-10
2.84564e-08
4.80476e-10
2.82639e-08
4.60763e-10
2.80785e-08
4.41161e-10
2.79002e-08
4.21612e-10
2.77291e-08
4.02048e-10
2.75654e-08
3.8248e-10
2.74089e-08
3.63003e-10
2.72598e-08
3.43603e-10
2.71181e-08
3.24254e-10
2.69838e-08
3.04934e-10
2.68568e-08
2.85858e-10
2.67372e-08
2.67094e-10
2.66248e-08
2.48757e-10
2.65195e-08
2.30728e-10
2.64211e-08
2.1342e-10
2.63293e-08
1.96917e-10
2.62436e-08
1.81801e-10
2.61639e-08
1.67598e-10
2.60896e-08
1.55046e-10
2.60204e-08
1.43487e-10
2.59554e-08
1.34345e-10
2.58945e-08
1.25932e-10
2.58367e-08
1.1986e-10
2.57823e-08
1.13235e-10
2.57302e-08
1.0913e-10
2.56809e-08
1.03878e-10
2.56331e-08
1.01532e-10
2.55878e-08
9.6934e-11
2.55436e-08
9.45888e-11
2.5502e-08
8.98774e-11
2.54613e-08
8.73146e-11
2.54228e-08
8.40519e-11
2.53849e-08
8.14958e-11
2.53489e-08
7.92258e-11
2.53137e-08
7.55589e-11
2.52803e-08
7.32897e-11
2.52474e-08
7.05421e-11
2.5216e-08
6.86332e-11
2.51844e-08
6.85834e-11
2.51543e-08
6.5444e-11
2.5124e-08
6.57748e-11
2.5095e-08
6.19669e-11
2.50664e-08
6.11375e-11
2.50377e-08
6.04461e-11
2.50091e-08
6.02357e-11
6.12757e-11
4.01879e-08
5.47632e-10
4.06127e-08
1.58154e-09
4.10566e-08
2.37532e-09
4.14165e-08
2.79153e-09
4.17381e-08
2.97478e-09
4.2072e-08
3.08198e-09
4.23965e-08
3.15219e-09
4.26753e-08
3.145e-09
4.28874e-08
3.04902e-09
4.30311e-08
2.88509e-09
4.31168e-08
2.69e-09
4.31585e-08
2.49837e-09
4.31672e-08
2.33021e-09
4.31502e-08
2.19111e-09
4.31118e-08
2.07811e-09
4.30555e-08
1.98566e-09
4.29841e-08
1.90878e-09
4.28996e-08
1.84355e-09
4.28031e-08
1.78674e-09
4.26949e-08
1.7357e-09
4.25755e-08
1.68849e-09
4.2445e-08
1.64382e-09
4.23038e-08
1.60097e-09
4.21525e-08
1.55955e-09
4.19916e-08
1.51937e-09
4.18218e-08
1.48039e-09
4.16437e-08
1.44259e-09
4.1458e-08
1.40594e-09
4.12655e-08
1.37041e-09
4.10667e-08
1.33601e-09
4.08624e-08
1.30267e-09
4.06533e-08
1.27032e-09
4.04398e-08
1.23892e-09
4.02227e-08
1.20842e-09
4.00025e-08
1.17874e-09
3.97797e-08
1.1498e-09
3.95549e-08
1.12158e-09
3.93285e-08
1.09402e-09
3.9101e-08
1.06703e-09
3.88729e-08
1.04058e-09
3.86445e-08
1.01464e-09
3.84164e-08
9.89154e-10
3.81888e-08
9.6403e-10
3.79621e-08
9.39254e-10
3.77367e-08
9.14815e-10
3.75128e-08
8.90627e-10
3.7291e-08
8.66606e-10
3.70713e-08
8.42752e-10
3.68541e-08
8.19064e-10
3.66398e-08
7.95439e-10
3.64285e-08
7.71785e-10
3.62206e-08
7.48117e-10
3.60163e-08
7.24467e-10
3.58159e-08
7.00717e-10
3.56196e-08
6.76761e-10
3.54277e-08
6.52642e-10
3.52405e-08
6.28446e-10
3.5058e-08
6.04067e-10
3.48807e-08
5.79394e-10
3.47087e-08
5.54473e-10
3.45422e-08
5.29502e-10
3.43813e-08
5.04438e-10
3.42264e-08
4.79208e-10
3.40775e-08
4.53783e-10
3.39348e-08
4.28551e-10
3.37983e-08
4.03589e-10
3.36681e-08
3.79025e-10
3.35442e-08
3.54612e-10
3.34266e-08
3.31033e-10
3.33151e-08
3.08367e-10
3.32095e-08
2.87448e-10
3.31097e-08
2.67379e-10
3.30154e-08
2.4936e-10
3.29265e-08
2.32324e-10
3.28422e-08
2.18658e-10
3.27626e-08
2.05514e-10
3.26867e-08
1.95755e-10
3.26154e-08
1.8458e-10
3.25469e-08
1.77664e-10
3.24824e-08
1.68391e-10
3.24194e-08
1.64494e-10
3.23604e-08
1.55895e-10
3.23026e-08
1.52446e-10
3.2249e-08
1.4345e-10
3.21957e-08
1.40579e-10
3.21461e-08
1.33652e-10
3.20964e-08
1.31205e-10
3.20502e-08
1.25439e-10
3.20047e-08
1.21109e-10
3.19619e-08
1.16066e-10
3.19198e-08
1.12659e-10
3.18787e-08
1.09723e-10
3.18385e-08
1.08799e-10
3.17988e-08
1.05148e-10
3.17611e-08
1.03479e-10
3.17236e-08
9.94229e-11
3.16873e-08
9.74282e-11
3.16507e-08
9.70928e-11
3.16127e-08
9.81666e-11
9.89083e-11
4.16167e-08
4.36477e-10
4.19301e-08
1.26816e-09
4.23167e-08
1.98878e-09
4.26666e-08
2.44157e-09
4.29692e-08
2.67221e-09
4.32642e-08
2.78696e-09
4.3561e-08
2.85534e-09
4.38356e-08
2.87043e-09
4.40668e-08
2.81786e-09
4.42468e-08
2.70509e-09
4.43807e-08
2.55612e-09
4.44796e-08
2.39941e-09
4.45539e-08
2.25595e-09
4.46103e-08
2.13467e-09
4.4653e-08
2.03542e-09
4.46846e-08
1.95406e-09
4.47071e-08
1.88625e-09
4.47221e-08
1.8286e-09
4.47303e-08
1.77858e-09
4.47318e-08
1.73413e-09
4.47267e-08
1.69362e-09
4.47146e-08
1.65587e-09
4.46955e-08
1.62011e-09
4.46692e-08
1.5859e-09
4.46355e-08
1.55298e-09
4.45947e-08
1.52121e-09
4.45468e-08
1.49053e-09
4.44918e-08
1.46089e-09
4.44301e-08
1.43219e-09
4.43616e-08
1.40442e-09
4.42868e-08
1.37753e-09
4.42057e-08
1.3514e-09
4.41187e-08
1.32597e-09
4.40259e-08
1.30121e-09
4.39276e-08
1.27702e-09
4.38241e-08
1.2533e-09
4.37156e-08
1.23003e-09
4.36025e-08
1.20717e-09
4.34849e-08
1.18461e-09
4.33632e-08
1.16226e-09
4.32377e-08
1.14016e-09
4.31086e-08
1.11826e-09
4.29763e-08
1.09639e-09
4.2841e-08
1.07454e-09
4.2703e-08
1.05277e-09
4.25626e-08
1.031e-09
4.24202e-08
1.00903e-09
4.22761e-08
9.86875e-10
4.21305e-08
9.64658e-10
4.19837e-08
9.42243e-10
4.18361e-08
9.19404e-10
4.1688e-08
8.96187e-10
4.15397e-08
8.72783e-10
4.13914e-08
8.49023e-10
4.12435e-08
8.24638e-10
4.10965e-08
7.99695e-10
4.09504e-08
7.74495e-10
4.08056e-08
7.48897e-10
4.06624e-08
7.22585e-10
4.05213e-08
6.95573e-10
4.03824e-08
6.68356e-10
4.02459e-08
6.40924e-10
4.01122e-08
6.12993e-10
3.99816e-08
5.84341e-10
3.98544e-08
5.55735e-10
3.97306e-08
5.27406e-10
3.96102e-08
4.99435e-10
3.94938e-08
4.71055e-10
3.93814e-08
4.43366e-10
3.92732e-08
4.16566e-10
3.91686e-08
3.92074e-10
3.90681e-08
3.67912e-10
3.89715e-08
3.45893e-10
3.88797e-08
3.24157e-10
3.87911e-08
3.07249e-10
3.87065e-08
2.9013e-10
3.86244e-08
2.77872e-10
3.85473e-08
2.61681e-10
3.84724e-08
2.52528e-10
3.84024e-08
2.38417e-10
3.83323e-08
2.34568e-10
3.82672e-08
2.20959e-10
3.82021e-08
2.17613e-10
3.81435e-08
2.02044e-10
3.8084e-08
2.00102e-10
3.80292e-08
1.88382e-10
3.79727e-08
1.8774e-10
3.79201e-08
1.78079e-10
3.78691e-08
1.72055e-10
3.78207e-08
1.6448e-10
3.77756e-08
1.57736e-10
3.7728e-08
1.57373e-10
3.76837e-08
1.53099e-10
3.76363e-08
1.52534e-10
3.75939e-08
1.4588e-10
3.75526e-08
1.40742e-10
3.75126e-08
1.37418e-10
3.74742e-08
1.35481e-10
3.74312e-08
1.41131e-10
1.42912e-10
4.31278e-08
3.56418e-10
4.33579e-08
1.03806e-09
4.36816e-08
1.66504e-09
4.40056e-08
2.11757e-09
4.42946e-08
2.38325e-09
4.45619e-08
2.51964e-09
4.4826e-08
2.59128e-09
4.50777e-08
2.6187e-09
4.53001e-08
2.59547e-09
4.54829e-08
2.52228e-09
4.56265e-08
2.41255e-09
4.57386e-08
2.28726e-09
4.58288e-08
2.1658e-09
4.59041e-08
2.05938e-09
4.59689e-08
1.97058e-09
4.60259e-08
1.89703e-09
4.6077e-08
1.8352e-09
4.61234e-08
1.78215e-09
4.61662e-08
1.73575e-09
4.62059e-08
1.69448e-09
4.62424e-08
1.65707e-09
4.62758e-08
1.62253e-09
4.63057e-08
1.59015e-09
4.63321e-08
1.55952e-09
4.63548e-08
1.5303e-09
4.63737e-08
1.50233e-09
4.63887e-08
1.47555e-09
4.63997e-08
1.44987e-09
4.64067e-08
1.42516e-09
4.64097e-08
1.40141e-09
4.64087e-08
1.37858e-09
4.64035e-08
1.35653e-09
4.63944e-08
1.33515e-09
4.63811e-08
1.31447e-09
4.63637e-08
1.29438e-09
4.63423e-08
1.27471e-09
4.63169e-08
1.25542e-09
4.62875e-08
1.23658e-09
4.62541e-08
1.21801e-09
4.62169e-08
1.19952e-09
4.61758e-08
1.1812e-09
4.6131e-08
1.1631e-09
4.60824e-08
1.14495e-09
4.60304e-08
1.12659e-09
4.59749e-08
1.10825e-09
4.5916e-08
1.08991e-09
4.58538e-08
1.07119e-09
4.57887e-08
1.05201e-09
4.57207e-08
1.03269e-09
4.56497e-08
1.01318e-09
4.55761e-08
9.92996e-10
4.55003e-08
9.72053e-10
4.54222e-08
9.50848e-10
4.53419e-08
9.29325e-10
4.52597e-08
9.06875e-10
4.5176e-08
8.83363e-10
4.5091e-08
8.59491e-10
4.50046e-08
8.35324e-10
4.4917e-08
8.10171e-10
4.48289e-08
7.83654e-10
4.47405e-08
7.56731e-10
4.46517e-08
7.29783e-10
4.45624e-08
7.02278e-10
4.44735e-08
6.73237e-10
4.43854e-08
6.43833e-10
4.4298e-08
6.14854e-10
4.42107e-08
5.86697e-10
4.41244e-08
5.57331e-10
4.40397e-08
5.28054e-10
4.39571e-08
4.99214e-10
4.38752e-08
4.73944e-10
4.37947e-08
4.48414e-10
4.37156e-08
4.25016e-10
4.364e-08
3.99697e-10
4.35659e-08
3.81371e-10
4.34944e-08
3.6168e-10
4.34223e-08
3.49958e-10
4.33547e-08
3.29224e-10
4.32879e-08
3.19357e-10
4.32271e-08
2.9926e-10
4.31633e-08
2.98315e-10
4.31044e-08
2.7986e-10
4.30424e-08
2.79657e-10
4.29888e-08
2.55653e-10
4.29337e-08
2.55146e-10
4.28839e-08
2.38231e-10
4.28309e-08
2.40756e-10
4.27782e-08
2.30772e-10
4.27296e-08
2.2061e-10
4.26806e-08
2.13468e-10
4.26417e-08
1.9662e-10
4.25952e-08
2.03937e-10
4.25543e-08
1.93977e-10
4.25054e-08
2.01442e-10
4.24601e-08
1.91193e-10
4.24202e-08
1.80666e-10
4.23804e-08
1.77138e-10
4.23481e-08
1.67791e-10
4.23099e-08
1.79349e-10
1.87399e-10
4.47078e-08
2.95744e-10
4.48816e-08
8.64353e-10
4.5146e-08
1.40057e-09
4.54347e-08
1.82891e-09
4.57074e-08
2.11051e-09
4.59568e-08
2.27022e-09
4.6195e-08
2.35307e-09
4.64237e-08
2.39009e-09
4.66321e-08
2.38702e-09
4.68106e-08
2.34379e-09
4.6956e-08
2.26711e-09
4.70725e-08
2.17083e-09
4.71675e-08
2.07083e-09
4.7248e-08
1.97887e-09
4.73187e-08
1.8998e-09
4.73825e-08
1.83323e-09
4.74411e-08
1.77663e-09
4.74958e-08
1.72748e-09
4.75476e-08
1.68396e-09
4.75972e-08
1.64487e-09
4.7645e-08
1.6093e-09
4.7691e-08
1.57646e-09
4.77354e-08
1.54578e-09
4.7778e-08
1.5169e-09
4.78188e-08
1.48948e-09
4.78578e-08
1.46332e-09
4.7895e-08
1.43839e-09
4.79303e-08
1.41461e-09
4.79636e-08
1.3918e-09
4.79951e-08
1.36996e-09
4.80245e-08
1.34911e-09
4.8052e-08
1.32908e-09
4.80774e-08
1.30971e-09
4.81008e-08
1.29109e-09
4.8122e-08
1.27318e-09
4.8141e-08
1.25568e-09
4.81579e-08
1.23856e-09
4.81725e-08
1.222e-09
4.81847e-08
1.20581e-09
4.81946e-08
1.18964e-09
4.82021e-08
1.17364e-09
4.82072e-08
1.15802e-09
4.82097e-08
1.14241e-09
4.82099e-08
1.12645e-09
4.82076e-08
1.11051e-09
4.82027e-08
1.09479e-09
4.81952e-08
1.0787e-09
4.81854e-08
1.06188e-09
4.81731e-08
1.04494e-09
4.81582e-08
1.02809e-09
4.81407e-08
1.01051e-09
4.81209e-08
9.91793e-10
4.8099e-08
9.72793e-10
4.80745e-08
9.53824e-10
4.80475e-08
9.33901e-10
4.80185e-08
9.1235e-10
4.79877e-08
8.90314e-10
4.79545e-08
8.68426e-10
4.7919e-08
8.45674e-10
4.78819e-08
8.20799e-10
4.78435e-08
7.95143e-10
4.78034e-08
7.69905e-10
4.7761e-08
7.44645e-10
4.77172e-08
7.1701e-10
4.76728e-08
6.88245e-10
4.76277e-08
6.59937e-10
4.75807e-08
6.337e-10
4.75324e-08
6.05665e-10
4.74836e-08
5.76843e-10
4.74357e-08
5.47079e-10
4.73868e-08
5.2287e-10
4.73371e-08
4.98131e-10
4.72859e-08
4.76252e-10
4.72373e-08
4.483e-10
4.71887e-08
4.29927e-10
4.71422e-08
4.08184e-10
4.70917e-08
4.00457e-10
4.70446e-08
3.76315e-10
4.69959e-08
3.68025e-10
4.6955e-08
3.40217e-10
4.69089e-08
3.44374e-10
4.6867e-08
3.21746e-10
4.68181e-08
3.28615e-10
4.67772e-08
2.9651e-10
4.67359e-08
2.96431e-10
4.66994e-08
2.7477e-10
4.66613e-08
2.78865e-10
4.66162e-08
2.75906e-10
4.6578e-08
2.5875e-10
4.65332e-08
2.58307e-10
4.65066e-08
2.23162e-10
4.647e-08
2.40582e-10
4.644e-08
2.24008e-10
4.63998e-08
2.41619e-10
4.63548e-08
2.36189e-10
4.63201e-08
2.15359e-10
4.62834e-08
2.13795e-10
4.62603e-08
1.90941e-10
4.62369e-08
2.02701e-10
2.23938e-10
4.63535e-08
2.4831e-10
4.64896e-08
7.28243e-10
4.67031e-08
1.18709e-09
4.69543e-08
1.57767e-09
4.72056e-08
1.85923e-09
4.744e-08
2.03583e-09
4.76593e-08
2.13371e-09
4.7868e-08
2.18144e-09
4.80618e-08
2.19317e-09
4.82334e-08
2.17218e-09
4.83783e-08
2.12221e-09
4.84974e-08
2.05178e-09
4.85956e-08
1.97258e-09
4.86792e-08
1.89529e-09
4.87529e-08
1.8261e-09
4.88197e-08
1.76646e-09
4.88812e-08
1.71508e-09
4.89387e-08
1.66995e-09
4.89932e-08
1.62946e-09
4.90455e-08
1.59265e-09
4.90959e-08
1.55884e-09
4.91449e-08
1.52745e-09
4.91926e-08
1.49808e-09
4.92391e-08
1.47044e-09
4.92844e-08
1.44422e-09
4.93285e-08
1.41918e-09
4.93715e-08
1.39535e-09
4.94135e-08
1.37264e-09
4.94545e-08
1.35084e-09
4.94945e-08
1.32996e-09
4.95335e-08
1.3101e-09
4.95715e-08
1.29105e-09
4.96086e-08
1.2726e-09
4.96448e-08
1.25492e-09
4.96799e-08
1.23805e-09
4.97141e-08
1.22155e-09
4.97472e-08
1.20539e-09
4.97793e-08
1.1899e-09
4.98102e-08
1.17488e-09
4.98401e-08
1.15982e-09
4.98688e-08
1.1449e-09
4.98963e-08
1.13056e-09
4.99224e-08
1.11632e-09
4.99472e-08
1.10159e-09
4.99709e-08
1.08688e-09
4.9993e-08
1.07268e-09
5.00135e-08
1.05819e-09
5.00326e-08
1.04272e-09
5.00504e-08
1.02714e-09
5.00665e-08
1.01204e-09
5.00807e-08
9.96313e-10
5.00934e-08
9.79042e-10
5.01048e-08
9.61472e-10
5.01142e-08
9.44441e-10
5.01214e-08
9.26639e-10
5.01271e-08
9.06636e-10
5.01315e-08
8.85972e-10
5.01338e-08
8.66062e-10
5.01338e-08
8.45748e-10
5.0132e-08
8.22577e-10
5.0129e-08
7.98111e-10
5.01244e-08
7.7456e-10
5.0117e-08
7.52018e-10
5.01076e-08
7.26411e-10
5.00971e-08
6.98732e-10
5.00858e-08
6.71237e-10
5.00719e-08
6.47646e-10
5.00555e-08
6.22005e-10
5.00375e-08
5.94852e-10
5.00202e-08
5.6442e-10
5.00011e-08
5.41957e-10
4.99804e-08
5.18843e-10
4.9956e-08
5.00606e-10
4.99337e-08
4.706e-10
4.99106e-08
4.53066e-10
4.989e-08
4.28739e-10
4.98631e-08
4.27362e-10
4.98387e-08
4.00769e-10
4.98103e-08
3.96384e-10
4.9791e-08
3.59497e-10
4.9766e-08
3.69413e-10
4.97446e-08
3.4311e-10
4.97136e-08
3.59592e-10
4.96881e-08
3.2204e-10
4.96642e-08
3.20327e-10
4.96433e-08
2.95708e-10
4.96255e-08
2.96677e-10
4.95929e-08
3.08426e-10
4.957e-08
2.81734e-10
4.95332e-08
2.95088e-10
4.95196e-08
2.36698e-10
4.94978e-08
2.62459e-10
4.94814e-08
2.40338e-10
4.94578e-08
2.65215e-10
4.94184e-08
2.7567e-10
4.93913e-08
2.4246e-10
4.93602e-08
2.44802e-10
4.93445e-08
2.06654e-10
4.93393e-08
2.07908e-10
2.4647e-10
4.80645e-08
2.10356e-10
4.81739e-08
6.18842e-10
4.83473e-08
1.01368e-09
4.85628e-08
1.36214e-09
4.87893e-08
1.63278e-09
4.90077e-08
1.81744e-09
4.92122e-08
1.92922e-09
4.94046e-08
1.98897e-09
4.95847e-08
2.01307e-09
4.97481e-08
2.00879e-09
4.98906e-08
1.97975e-09
5.00111e-08
1.93128e-09
5.01122e-08
1.87141e-09
5.01988e-08
1.80878e-09
5.02751e-08
1.74978e-09
5.03443e-08
1.69726e-09
5.04082e-08
1.65121e-09
5.04678e-08
1.61027e-09
5.05242e-08
1.5731e-09
5.0578e-08
1.53888e-09
5.06297e-08
1.50711e-09
5.06798e-08
1.47733e-09
5.07286e-08
1.44932e-09
5.07761e-08
1.42292e-09
5.08225e-08
1.39781e-09
5.08679e-08
1.37378e-09
5.09124e-08
1.35089e-09
5.0956e-08
1.32907e-09
5.09988e-08
1.30803e-09
5.10409e-08
1.28786e-09
5.10823e-08
1.2687e-09
5.1123e-08
1.25028e-09
5.11633e-08
1.23237e-09
5.12029e-08
1.21526e-09
5.1242e-08
1.19897e-09
5.12806e-08
1.18299e-09
5.13187e-08
1.1673e-09
5.13562e-08
1.15236e-09
5.13931e-08
1.13794e-09
5.14296e-08
1.12338e-09
5.14655e-08
1.10894e-09
5.15008e-08
1.09525e-09
5.15354e-08
1.08172e-09
5.15695e-08
1.06754e-09
5.1603e-08
1.0534e-09
5.16356e-08
1.04002e-09
5.16674e-08
1.0264e-09
5.16986e-08
1.01157e-09
5.1729e-08
9.96682e-10
5.17584e-08
9.82631e-10
5.17867e-08
9.68025e-10
5.18142e-08
9.51524e-10
5.1841e-08
9.34748e-10
5.18664e-08
9.19006e-10
5.18903e-08
9.02689e-10
5.19133e-08
8.83651e-10
5.19355e-08
8.63833e-10
5.19562e-08
8.45369e-10
5.19749e-08
8.27022e-10
5.19923e-08
8.05148e-10
5.20089e-08
7.81536e-10
5.20242e-08
7.59296e-10
5.2037e-08
7.39221e-10
5.20479e-08
7.15467e-10
5.20578e-08
6.88837e-10
5.20671e-08
6.61939e-10
5.20738e-08
6.4096e-10
5.20781e-08
6.17715e-10
5.20803e-08
5.92621e-10
5.20833e-08
5.61467e-10
5.20843e-08
5.40931e-10
5.20838e-08
5.1931e-10
5.20788e-08
5.05578e-10
5.20758e-08
4.73673e-10
5.20712e-08
4.57614e-10
5.20699e-08
4.3007e-10
5.20614e-08
4.35898e-10
5.2055e-08
4.07159e-10
5.20433e-08
4.08036e-10
5.20409e-08
3.61883e-10
5.20332e-08
3.77156e-10
5.20286e-08
3.47724e-10
5.20144e-08
3.73788e-10
5.20022e-08
3.34169e-10
5.19941e-08
3.28507e-10
5.19859e-08
3.03868e-10
5.1986e-08
2.96629e-10
5.19664e-08
3.28007e-10
5.19581e-08
2.90043e-10
5.19316e-08
3.21559e-10
5.19283e-08
2.39978e-10
5.19207e-08
2.70046e-10
5.19159e-08
2.45111e-10
5.19095e-08
2.71686e-10
5.18795e-08
3.05692e-10
5.18608e-08
2.61145e-10
5.18376e-08
2.67957e-10
5.1827e-08
2.17265e-10
5.18361e-08
1.98773e-10
2.54586e-10
4.98418e-08
1.79479e-10
4.99313e-08
5.29386e-10
5.00741e-08
8.70853e-10
5.02577e-08
1.17861e-09
5.04586e-08
1.43185e-09
5.06593e-08
1.61675e-09
5.08502e-08
1.73835e-09
5.10294e-08
1.80969e-09
5.11974e-08
1.84511e-09
5.13522e-08
1.85402e-09
5.14907e-08
1.84123e-09
5.16112e-08
1.81075e-09
5.17146e-08
1.76802e-09
5.18039e-08
1.71947e-09
5.18829e-08
1.67084e-09
5.19544e-08
1.62567e-09
5.20206e-08
1.58506e-09
5.20824e-08
1.54842e-09
5.21408e-08
1.51476e-09
5.21963e-08
1.48341e-09
5.22494e-08
1.45394e-09
5.23007e-08
1.426e-09
5.23505e-08
1.39955e-09
5.23989e-08
1.3745e-09
5.24462e-08
1.35056e-09
5.24924e-08
1.32759e-09
5.25376e-08
1.3057e-09
5.25819e-08
1.28475e-09
5.26254e-08
1.26448e-09
5.26683e-08
1.24501e-09
5.27105e-08
1.22651e-09
5.27521e-08
1.20865e-09
5.27932e-08
1.19123e-09
5.28339e-08
1.17462e-09
5.2874e-08
1.1588e-09
5.29138e-08
1.1432e-09
5.29533e-08
1.12787e-09
5.29923e-08
1.11334e-09
5.30309e-08
1.09932e-09
5.30692e-08
1.08505e-09
5.31072e-08
1.07095e-09
5.31448e-08
1.0577e-09
5.31819e-08
1.04455e-09
5.32188e-08
1.03065e-09
5.32553e-08
1.01689e-09
5.32913e-08
1.00404e-09
5.33268e-08
9.90891e-10
5.3362e-08
9.76385e-10
5.33967e-08
9.61959e-10
5.34308e-08
9.48597e-10
5.34641e-08
9.34636e-10
5.34971e-08
9.18547e-10
5.35295e-08
9.02335e-10
5.3561e-08
8.87503e-10
5.35916e-08
8.72136e-10
5.36216e-08
8.53659e-10
5.36509e-08
8.34493e-10
5.36791e-08
8.17148e-10
5.37059e-08
8.0022e-10
5.37319e-08
7.79183e-10
5.37572e-08
7.56289e-10
5.37813e-08
7.35169e-10
5.38034e-08
7.17097e-10
5.38242e-08
6.94664e-10
5.38441e-08
6.6897e-10
5.38634e-08
6.42665e-10
5.38802e-08
6.24087e-10
5.38953e-08
6.02655e-10
5.39085e-08
5.79446e-10
5.39223e-08
5.47652e-10
5.39339e-08
5.29263e-10
5.39446e-08
5.08676e-10
5.3951e-08
4.99172e-10
5.39594e-08
4.65277e-10
5.39657e-08
4.51251e-10
5.39753e-08
4.20546e-10
5.39779e-08
4.33257e-10
5.39829e-08
4.02143e-10
5.39827e-08
4.08255e-10
5.39906e-08
3.53987e-10
5.39938e-08
3.73946e-10
5.39992e-08
3.42308e-10
5.39972e-08
3.7579e-10
5.39948e-08
3.36622e-10
5.3998e-08
3.25252e-10
5.39981e-08
3.0375e-10
5.40093e-08
2.85495e-10
5.39997e-08
3.37599e-10
5.4002e-08
2.87744e-10
5.39861e-08
3.37477e-10
5.39897e-08
2.36395e-10
5.39925e-08
2.67208e-10
5.39949e-08
2.42736e-10
5.40002e-08
2.66365e-10
5.39804e-08
3.25464e-10
5.39696e-08
2.71952e-10
5.39552e-08
2.82362e-10
5.39489e-08
2.23591e-10
5.39656e-08
1.82011e-10
2.52383e-10
5.16871e-08
1.54027e-10
5.17613e-08
4.55234e-10
5.18806e-08
7.51551e-10
5.20365e-08
1.02274e-09
5.22132e-08
1.2551e-09
5.23953e-08
1.43465e-09
5.25725e-08
1.5612e-09
5.27402e-08
1.64199e-09
5.28976e-08
1.68768e-09
5.3044e-08
1.70759e-09
5.31777e-08
1.70759e-09
5.32969e-08
1.69155e-09
5.34015e-08
1.66341e-09
5.34931e-08
1.62781e-09
5.35746e-08
1.58938e-09
5.36485e-08
1.55174e-09
5.37169e-08
1.51669e-09
5.37809e-08
1.48439e-09
5.38413e-08
1.45433e-09
5.38987e-08
1.42602e-09
5.39536e-08
1.39905e-09
5.40064e-08
1.37318e-09
5.40575e-08
1.34846e-09
5.41071e-08
1.32489e-09
5.41555e-08
1.30223e-09
5.42027e-08
1.28041e-09
5.42488e-08
1.25958e-09
5.4294e-08
1.23955e-09
5.43384e-08
1.22009e-09
5.4382e-08
1.20139e-09
5.44249e-08
1.18359e-09
5.44673e-08
1.16629e-09
5.45091e-08
1.14941e-09
5.45504e-08
1.13333e-09
5.45912e-08
1.11796e-09
5.46317e-08
1.10272e-09
5.46718e-08
1.08779e-09
5.47114e-08
1.07369e-09
5.47508e-08
1.05998e-09
5.47899e-08
1.04598e-09
5.48286e-08
1.03224e-09
5.48669e-08
1.01937e-09
5.49049e-08
1.00649e-09
5.49428e-08
9.92834e-10
5.49802e-08
9.7947e-10
5.50172e-08
9.67038e-10
5.50539e-08
9.54158e-10
5.50904e-08
9.39917e-10
5.51264e-08
9.2598e-10
5.51618e-08
9.1315e-10
5.51969e-08
8.99545e-10
5.52317e-08
8.83773e-10
5.52658e-08
8.68178e-10
5.52993e-08
8.54079e-10
5.53321e-08
8.3927e-10
5.53646e-08
8.21186e-10
5.53963e-08
8.02771e-10
5.54271e-08
7.86419e-10
5.54568e-08
7.70428e-10
5.54861e-08
7.49904e-10
5.55146e-08
7.27857e-10
5.55418e-08
7.07904e-10
5.55676e-08
6.9136e-10
5.55925e-08
6.69674e-10
5.56166e-08
6.44934e-10
5.56397e-08
6.19525e-10
5.56607e-08
6.03147e-10
5.56806e-08
5.82758e-10
5.5699e-08
5.61037e-10
5.57176e-08
5.28989e-10
5.57338e-08
5.13111e-10
5.57493e-08
4.93117e-10
5.57617e-08
4.86858e-10
5.5776e-08
4.50926e-10
5.57878e-08
4.39471e-10
5.58019e-08
4.06445e-10
5.58102e-08
4.24964e-10
5.58213e-08
3.91052e-10
5.58282e-08
4.01344e-10
5.58411e-08
3.41115e-10
5.58498e-08
3.65239e-10
5.58595e-08
3.32583e-10
5.5865e-08
3.70311e-10
5.58689e-08
3.32682e-10
5.58792e-08
3.14952e-10
5.58839e-08
2.99102e-10
5.58993e-08
2.70077e-10
5.58962e-08
3.40716e-10
5.59045e-08
2.79433e-10
5.5898e-08
3.43952e-10
5.59058e-08
2.28548e-10
5.59145e-08
2.58587e-10
5.59199e-08
2.37254e-10
5.59303e-08
2.56058e-10
5.59193e-08
3.36417e-10
5.59152e-08
2.76061e-10
5.59091e-08
2.88502e-10
5.59072e-08
2.25406e-10
5.59256e-08
1.63663e-10
2.45265e-10
5.36024e-08
1.32798e-10
5.36646e-08
3.93079e-10
5.37652e-08
6.50913e-10
5.3898e-08
8.89974e-10
5.40527e-08
1.10039e-09
5.42164e-08
1.27099e-09
5.43795e-08
1.39809e-09
5.45362e-08
1.48526e-09
5.46843e-08
1.53959e-09
5.4823e-08
1.5689e-09
5.49513e-08
1.57924e-09
5.50681e-08
1.57473e-09
5.51729e-08
1.55869e-09
5.52662e-08
1.5345e-09
5.53498e-08
1.50571e-09
5.5426e-08
1.47557e-09
5.54965e-08
1.44617e-09
5.55627e-08
1.41826e-09
5.56252e-08
1.39183e-09
5.56846e-08
1.36662e-09
5.57414e-08
1.34227e-09
5.57959e-08
1.31862e-09
5.58486e-08
1.2958e-09
5.58996e-08
1.27382e-09
5.59493e-08
1.25253e-09
5.59978e-08
1.23196e-09
5.60451e-08
1.21225e-09
5.60915e-08
1.19319e-09
5.6137e-08
1.17461e-09
5.61816e-08
1.15675e-09
5.62255e-08
1.13966e-09
5.62688e-08