/*--------------------------------*- C++ -*----------------------------------*\
| =========                 |                                                 |
| \\      /  F ield         | OpenFOAM: The Open Source CFD Toolbox           |
|  \\    /   O peration     | Version:  2.3.0                                 |
|   \\  /    A nd           | Web:      www.OpenFOAM.org                      |
|    \\/     M anipulation  |                                                 |
\*---------------------------------------------------------------------------*/
FoamFile
{
    version     2.0;
    format      ascii;
    class       volVectorField;
    location    "0.3";
    object      U;
}
// * * * * * * * * * * * * * * * * * * * * * * * * * * * * * * * * * * * * * //

dimensions      [0 1 -1 0 0 0 0];

internalField   nonuniform List<vector> 
2700
(
(0.188981 0.00340193 0)
(0.175075 0.00574081 0)
(0.159252 0.00577884 0)
(0.141379 0.00534407 0)
(0.123026 0.00494618 0)
(0.105659 0.00441711 0)
(0.090415 0.00366468 0)
(0.0777817 0.00271063 0)
(0.0677727 0.00172806 0)
(0.0601451 0.000921351 0)
(0.0544913 0.000379165 0)
(0.0503698 7.14451e-05 0)
(0.0473739 -7.27469e-05 0)
(0.0451553 -0.000114005 0)
(0.043446 -9.86059e-05 0)
(0.0420523 -5.88435e-05 0)
(0.0408441 -1.48967e-05 0)
(0.0397435 2.22502e-05 0)
(0.0387101 4.8678e-05 0)
(0.0377273 6.47875e-05 0)
(0.0367906 7.2805e-05 0)
(0.0359005 7.52489e-05 0)
(0.0350583 7.4248e-05 0)
(0.0342646 7.13556e-05 0)
(0.0335186 6.75968e-05 0)
(0.0328182 6.35881e-05 0)
(0.0321607 5.96627e-05 0)
(0.0315429 5.59751e-05 0)
(0.0309616 5.2581e-05 0)
(0.0304136 4.94845e-05 0)
(0.0298958 4.66642e-05 0)
(0.0294057 4.40902e-05 0)
(0.0289407 4.17331e-05 0)
(0.0284988 3.95659e-05 0)
(0.0280781 3.75639e-05 0)
(0.027677 3.57064e-05 0)
(0.0272941 3.39777e-05 0)
(0.0269281 3.23626e-05 0)
(0.0265779 3.08479e-05 0)
(0.0262425 2.94231e-05 0)
(0.0259211 2.80815e-05 0)
(0.0256129 2.68143e-05 0)
(0.0253172 2.56129e-05 0)
(0.0250335 2.44728e-05 0)
(0.0247611 2.33906e-05 0)
(0.0244995 2.23602e-05 0)
(0.0242484 2.13745e-05 0)
(0.0240073 2.04318e-05 0)
(0.0237759 1.95312e-05 0)
(0.0235538 1.86669e-05 0)
(0.0233409 1.78325e-05 0)
(0.0231367 1.70264e-05 0)
(0.0229412 1.62519e-05 0)
(0.0227541 1.5503e-05 0)
(0.0225753 1.47709e-05 0)
(0.0224046 1.40553e-05 0)
(0.022242 1.3363e-05 0)
(0.0220872 1.2689e-05 0)
(0.0219403 1.20217e-05 0)
(0.0218011 1.13583e-05 0)
(0.0216696 1.07106e-05 0)
(0.0215458 1.00761e-05 0)
(0.0214295 9.44432e-06 0)
(0.0213207 8.80001e-06 0)
(0.0212195 8.16055e-06 0)
(0.0211256 7.52585e-06 0)
(0.0210391 6.90003e-06 0)
(0.0209597 6.24382e-06 0)
(0.0208874 5.5926e-06 0)
(0.0208222 4.94109e-06 0)
(0.0207633 4.36822e-06 0)
(0.0207105 3.79617e-06 0)
(0.020663 3.32117e-06 0)
(0.0206203 2.84044e-06 0)
(0.0205813 2.56921e-06 0)
(0.0205455 2.29327e-06 0)
(0.0205113 2.24197e-06 0)
(0.020479 2.04166e-06 0)
(0.0204473 2.07088e-06 0)
(0.0204171 1.94123e-06 0)
(0.0203866 2.072e-06 0)
(0.0203569 2.02375e-06 0)
(0.0203271 2.02519e-06 0)
(0.0202983 1.96791e-06 0)
(0.0202707 1.76206e-06 0)
(0.0202432 1.93932e-06 0)
(0.0202178 1.62453e-06 0)
(0.0201903 1.98458e-06 0)
(0.0201671 1.44024e-06 0)
(0.0201407 1.71514e-06 0)
(0.0201211 1.2355e-06 0)
(0.0200958 1.46274e-06 0)
(0.0200786 1.37516e-06 0)
(0.0200519 1.44055e-06 0)
(0.0200369 1.35892e-06 0)
(0.0200092 1.27608e-06 0)
(0.0199998 9.50723e-07 0)
(0.0199713 1.13411e-06 0)
(0.0199672 9.54114e-07 0)
(0.0199331 1.61602e-06 0)
(0.200079 0.00563383 0)
(0.202857 0.010296 0)
(0.203844 0.0111993 0)
(0.202051 0.0110638 0)
(0.197797 0.0108804 0)
(0.19183 0.0105329 0)
(0.184955 0.00983434 0)
(0.177638 0.00873275 0)
(0.170179 0.0073613 0)
(0.162813 0.0059387 0)
(0.155708 0.0046475 0)
(0.148992 0.00357784 0)
(0.142765 0.00274557 0)
(0.137069 0.00212643 0)
(0.131906 0.00168548 0)
(0.127246 0.00138428 0)
(0.123033 0.00118313 0)
(0.119208 0.0010469 0)
(0.115716 0.000949278 0)
(0.112511 0.000873205 0)
(0.109554 0.000808907 0)
(0.106815 0.000751397 0)
(0.104269 0.000698466 0)
(0.101896 0.000649317 0)
(0.0996778 0.000603774 0)
(0.0976001 0.000561839 0)
(0.0956494 0.00052349 0)
(0.093814 0.000488605 0)
(0.0920837 0.000456973 0)
(0.090449 0.000428319 0)
(0.0889018 0.000402336 0)
(0.0874348 0.000378717 0)
(0.0860413 0.000357176 0)
(0.0847157 0.000337455 0)
(0.0834528 0.000319322 0)
(0.082248 0.000302578 0)
(0.0810974 0.000287059 0)
(0.0799974 0.00027262 0)
(0.0789447 0.000259135 0)
(0.0779366 0.000246498 0)
(0.0769703 0.000234626 0)
(0.0760438 0.000223437 0)
(0.0751548 0.000212857 0)
(0.0743017 0.00020283 0)
(0.0734827 0.00019331 0)
(0.0726963 0.000184243 0)
(0.0719413 0.000175579 0)
(0.0712165 0.000167284 0)
(0.0705208 0.000159335 0)
(0.0698534 0.000151692 0)
(0.0692134 0.000144315 0)
(0.0686002 0.000137182 0)
(0.0680131 0.00013029 0)
(0.0674516 0.000123609 0)
(0.0669153 0.000117099 0)
(0.0664038 0.000110749 0)
(0.0659167 0.000104576 0)
(0.0654538 9.856e-05 0)
(0.0650148 9.26604e-05 0)
(0.0645995 8.68659e-05 0)
(0.0642078 8.12175e-05 0)
(0.0638393 7.57132e-05 0)
(0.0634939 7.03259e-05 0)
(0.0631712 6.50129e-05 0)
(0.0628712 5.98448e-05 0)
(0.0625932 5.48386e-05 0)
(0.0623368 5.003e-05 0)
(0.0621014 4.53101e-05 0)
(0.0618863 4.08182e-05 0)
(0.0616904 3.6557e-05 0)
(0.0615122 3.28073e-05 0)
(0.0613503 2.93193e-05 0)
(0.0612024 2.64081e-05 0)
(0.0610675 2.37132e-05 0)
(0.060942 2.19177e-05 0)
(0.0608256 2.02753e-05 0)
(0.0607142 1.95101e-05 0)
(0.0606092 1.83417e-05 0)
(0.0605065 1.79978e-05 0)
(0.060409 1.71415e-05 0)
(0.060312 1.71899e-05 0)
(0.0602192 1.66117e-05 0)
(0.0601274 1.62825e-05 0)
(0.0600391 1.56656e-05 0)
(0.0599546 1.47058e-05 0)
(0.0598699 1.48348e-05 0)
(0.0597934 1.35703e-05 0)
(0.0597097 1.43078e-05 0)
(0.0596421 1.23476e-05 0)
(0.0595596 1.28521e-05 0)
(0.0595024 1.11194e-05 0)
(0.05942 1.15054e-05 0)
(0.0593713 1.10476e-05 0)
(0.0592859 1.0887e-05 0)
(0.0592466 1.05626e-05 0)
(0.0591569 9.79536e-06 0)
(0.0591325 8.92577e-06 0)
(0.0590363 8.89644e-06 0)
(0.059026 8.45353e-06 0)
(0.0589191 1.00525e-05 0)
(0.200022 0.00371264 0)
(0.202939 0.00827235 0)
(0.206299 0.0100805 0)
(0.208905 0.0106226 0)
(0.210345 0.0108965 0)
(0.210714 0.0110312 0)
(0.210247 0.0108432 0)
(0.209069 0.010239 0)
(0.207241 0.00930228 0)
(0.204834 0.00820965 0)
(0.201951 0.00713399 0)
(0.198722 0.00618131 0)
(0.195288 0.00538748 0)
(0.191765 0.00474229 0)
(0.188239 0.00422235 0)
(0.184759 0.0038032 0)
(0.18135 0.00346096 0)
(0.17802 0.00317465 0)
(0.174774 0.00292803 0)
(0.171615 0.00270989 0)
(0.168544 0.00251319 0)
(0.165565 0.00233375 0)
(0.162678 0.00216919 0)
(0.159884 0.00201804 0)
(0.157186 0.00187935 0)
(0.154582 0.00175231 0)
(0.152073 0.00163617 0)
(0.149656 0.00153015 0)
(0.14733 0.00143344 0)
(0.145093 0.00134521 0)
(0.142941 0.00126463 0)
(0.140871 0.00119093 0)
(0.138881 0.00112336 0)
(0.136967 0.00106126 0)
(0.135125 0.00100403 0)
(0.133353 0.000951112 0)
(0.131647 0.00090205 0)
(0.130004 0.00085642 0)
(0.128421 0.000813847 0)
(0.126897 0.000774005 0)
(0.125427 0.000736624 0)
(0.124011 0.000701445 0)
(0.122645 0.000668232 0)
(0.121328 0.000636796 0)
(0.120058 0.000606972 0)
(0.118833 0.000578595 0)
(0.117652 0.000551503 0)
(0.116514 0.000525579 0)
(0.115418 0.000500728 0)
(0.114361 0.000476832 0)
(0.113345 0.000453774 0)
(0.112367 0.000431478 0)
(0.111427 0.000409906 0)
(0.110524 0.000388973 0)
(0.109659 0.000368581 0)
(0.10883 0.000348691 0)
(0.108038 0.000329314 0)
(0.107281 0.000310404 0)
(0.106561 0.00029188 0)
(0.105876 0.000273713 0)
(0.105227 0.000255978 0)
(0.104613 0.00023868 0)
(0.104035 0.000221781 0)
(0.103491 0.000205218 0)
(0.102982 0.000189143 0)
(0.102507 0.000173615 0)
(0.102064 0.000158742 0)
(0.101655 0.000144363 0)
(0.101277 0.000130782 0)
(0.100928 0.000118038 0)
(0.100608 0.000106693 0)
(0.100314 9.63104e-05 0)
(0.100042 8.74943e-05 0)
(0.099792 7.95532e-05 0)
(0.099559 7.37244e-05 0)
(0.0993425 6.85543e-05 0)
(0.0991366 6.53581e-05 0)
(0.0989434 6.16532e-05 0)
(0.0987566 5.97232e-05 0)
(0.0985801 5.68948e-05 0)
(0.0984076 5.59493e-05 0)
(0.0982425 5.37268e-05 0)
(0.0980827 5.22939e-05 0)
(0.0979265 5.00282e-05 0)
(0.0977819 4.76455e-05 0)
(0.0976315 4.67171e-05 0)
(0.0975036 4.39489e-05 0)
(0.0973537 4.41456e-05 0)
(0.0972443 4.0287e-05 0)
(0.0970931 4.01778e-05 0)
(0.097004 3.68784e-05 0)
(0.0968493 3.6598e-05 0)
(0.096778 3.57752e-05 0)
(0.0966155 3.43122e-05 0)
(0.0965621 3.41328e-05 0)
(0.09639 3.13389e-05 0)
(0.0963584 3.03938e-05 0)
(0.0961765 2.93328e-05 0)
(0.0961625 2.85356e-05 0)
(0.0959681 3.03259e-05 0)
(0.200008 0.00252622 0)
(0.201847 0.0063304 0)
(0.204533 0.00842017 0)
(0.207326 0.00932342 0)
(0.209692 0.00975007 0)
(0.211535 0.0100005 0)
(0.212949 0.0100233 0)
(0.21399 0.00973324 0)
(0.214632 0.00915232 0)
(0.214833 0.0083946 0)
(0.214588 0.00759636 0)
(0.213946 0.00685894 0)
(0.212991 0.00622841 0)
(0.211812 0.00570917 0)
(0.210483 0.00528392 0)
(0.20905 0.00493102 0)
(0.207541 0.00463206 0)
(0.205968 0.00437249 0)
(0.204339 0.00414115 0)
(0.202661 0.00392992 0)
(0.200939 0.00373333 0)
(0.19918 0.00354804 0)
(0.197389 0.00337223 0)
(0.195574 0.003205 0)
(0.193741 0.00304597 0)
(0.191898 0.002895 0)
(0.190049 0.00275196 0)
(0.188202 0.0026167 0)
(0.186361 0.002489 0)
(0.184531 0.00236858 0)
(0.182716 0.00225506 0)
(0.180919 0.00214808 0)
(0.179144 0.00204723 0)
(0.177392 0.00195214 0)
(0.175667 0.0018624 0)
(0.173969 0.00177763 0)
(0.172301 0.0016975 0)
(0.170663 0.00162168 0)
(0.169057 0.00154982 0)
(0.167484 0.00148162 0)
(0.165943 0.00141684 0)
(0.164435 0.0013552 0)
(0.162962 0.00129642 0)
(0.161523 0.0012403 0)
(0.160117 0.00118662 0)
(0.158747 0.00113518 0)
(0.157411 0.00108575 0)
(0.156109 0.00103817 0)
(0.154843 0.000992315 0)
(0.153611 0.000947997 0)
(0.152415 0.000905036 0)
(0.151253 0.000863311 0)
(0.150127 0.000822769 0)
(0.149037 0.000783271 0)
(0.147982 0.000744655 0)
(0.146964 0.000706852 0)
(0.145982 0.000669882 0)
(0.145036 0.000633671 0)
(0.144128 0.000598087 0)
(0.143257 0.000563083 0)
(0.142424 0.000528785 0)
(0.141628 0.000495211 0)
(0.14087 0.000462317 0)
(0.140151 0.000430002 0)
(0.13947 0.000398537 0)
(0.138827 0.000368044 0)
(0.138221 0.000338732 0)
(0.137653 0.00031036 0)
(0.137121 0.000283442 0)
(0.136624 0.000258054 0)
(0.13616 0.000235125 0)
(0.135729 0.000213957 0)
(0.135326 0.00019554 0)
(0.134951 0.000178768 0)
(0.1346 0.000165671 0)
(0.134272 0.000153905 0)
(0.133962 0.000145671 0)
(0.13367 0.000136868 0)
(0.133392 0.000131347 0)
(0.133128 0.000124461 0)
(0.132876 0.000121157 0)
(0.132631 0.000115562 0)
(0.132403 0.000112086 0)
(0.132171 0.000106521 0)
(0.131971 0.000102081 0)
(0.131744 9.8561e-05 0)
(0.131574 9.40169e-05 0)
(0.131343 9.22178e-05 0)
(0.131207 8.63979e-05 0)
(0.130969 8.41481e-05 0)
(0.130867 7.95276e-05 0)
(0.13062 7.70626e-05 0)
(0.130545 7.66273e-05 0)
(0.130287 7.24532e-05 0)
(0.130236 7.3125e-05 0)
(0.12997 6.75446e-05 0)
(0.129939 6.62654e-05 0)
(0.129666 6.44244e-05 0)
(0.12965 6.3065e-05 0)
(0.129362 6.45561e-05 0)
(0.200008 0.00186498 0)
(0.201221 0.00499622 0)
(0.203187 0.00711714 0)
(0.205506 0.00824006 0)
(0.20772 0.0087685 0)
(0.209625 0.00902656 0)
(0.211244 0.00909351 0)
(0.212641 0.00893731 0)
(0.213824 0.00855245 0)
(0.214755 0.00800209 0)
(0.215399 0.00738571 0)
(0.21576 0.00679232 0)
(0.215881 0.00627304 0)
(0.215821 0.00584183 0)
(0.215635 0.00548891 0)
(0.215362 0.00519681 0)
(0.215021 0.00494974 0)
(0.214622 0.00473568 0)
(0.214166 0.00454559 0)
(0.213654 0.00437258 0)
(0.213086 0.00421161 0)
(0.212462 0.00405926 0)
(0.211783 0.00391345 0)
(0.211053 0.00377306 0)
(0.210272 0.00363756 0)
(0.209445 0.00350675 0)
(0.208575 0.00338058 0)
(0.207665 0.003259 0)
(0.206719 0.00314192 0)
(0.20574 0.00302927 0)
(0.204732 0.0029209 0)
(0.203698 0.00281663 0)
(0.202641 0.0027163 0)
(0.201564 0.00261974 0)
(0.20047 0.00252673 0)
(0.199362 0.00243709 0)
(0.198242 0.00235067 0)
(0.197114 0.0022673 0)
(0.195979 0.00218678 0)
(0.19484 0.00210896 0)
(0.193698 0.00203371 0)
(0.192556 0.00196086 0)
(0.191416 0.00189024 0)
(0.19028 0.00182171 0)
(0.18915 0.00175519 0)
(0.188026 0.0016905 0)
(0.186911 0.00162746 0)
(0.185806 0.00156597 0)
(0.184713 0.00150596 0)
(0.183634 0.00144727 0)
(0.182568 0.00138972 0)
(0.181519 0.00133322 0)
(0.180488 0.00127777 0)
(0.179474 0.00122322 0)
(0.178481 0.0011694 0)
(0.177509 0.00111624 0)
(0.176559 0.00106384 0)
(0.175632 0.0010121 0)
(0.17473 0.000960873 0)
(0.173854 0.00091011 0)
(0.173005 0.000860031 0)
(0.172184 0.000810665 0)
(0.171392 0.000761984 0)
(0.170629 0.00071385 0)
(0.169897 0.000666689 0)
(0.169195 0.000620669 0)
(0.168525 0.000576146 0)
(0.167886 0.000532746 0)
(0.167278 0.000491261 0)
(0.166702 0.000451724 0)
(0.166156 0.000415546 0)
(0.165639 0.00038161 0)
(0.165151 0.000351503 0)
(0.164689 0.000323437 0)
(0.164254 0.000300684 0)
(0.163841 0.000279553 0)
(0.163451 0.000263904 0)
(0.163078 0.000247147 0)
(0.162731 0.000236001 0)
(0.16239 0.000222294 0)
(0.16208 0.000215231 0)
(0.161759 0.000203637 0)
(0.161486 0.000197435 0)
(0.161177 0.000185991 0)
(0.160948 0.000179449 0)
(0.160638 0.00017075 0)
(0.160456 0.000164789 0)
(0.160131 0.00015848 0)
(0.16 0.000151213 0)
(0.159663 0.00014471 0)
(0.15958 0.000139133 0)
(0.159232 0.000133112 0)
(0.159175 0.000132651 0)
(0.158824 0.000125644 0)
(0.158782 0.000125633 0)
(0.158441 0.000118692 0)
(0.158411 0.000115564 0)
(0.158072 0.000113935 0)
(0.158054 0.000112247 0)
(0.157687 0.000112994 0)
(0.200006 0.00145131 0)
(0.200859 0.00404486 0)
(0.202315 0.00602747 0)
(0.204166 0.00725389 0)
(0.206078 0.00788472 0)
(0.207818 0.00817518 0)
(0.209329 0.0082674 0)
(0.210651 0.00818612 0)
(0.211814 0.00792789 0)
(0.212809 0.00752277 0)
(0.213613 0.00703727 0)
(0.214217 0.00654521 0)
(0.214645 0.00609899 0)
(0.214938 0.00572049 0)
(0.21514 0.00540808 0)
(0.215285 0.00514949 0)
(0.215393 0.00493143 0)
(0.215472 0.00474332 0)
(0.215524 0.00457736 0)
(0.215547 0.00442769 0)
(0.215539 0.00428989 0)
(0.215499 0.00416072 0)
(0.215425 0.00403804 0)
(0.215316 0.00392051 0)
(0.215172 0.00380737 0)
(0.214992 0.0036982 0)
(0.214779 0.00359282 0)
(0.21453 0.00349105 0)
(0.214249 0.00339269 0)
(0.213935 0.00329764 0)
(0.213589 0.00320573 0)
(0.213213 0.00311671 0)
(0.212807 0.0030304 0)
(0.212374 0.00294669 0)
(0.211913 0.00286536 0)
(0.211426 0.00278617 0)
(0.210915 0.00270903 0)
(0.21038 0.00263384 0)
(0.209824 0.00256037 0)
(0.209247 0.00248844 0)
(0.208651 0.00241808 0)
(0.208037 0.00234914 0)
(0.207406 0.00228137 0)
(0.20676 0.00221471 0)
(0.206101 0.0021492 0)
(0.20543 0.00208467 0)
(0.204748 0.00202087 0)
(0.204056 0.00195776 0)
(0.203357 0.00189545 0)
(0.202652 0.00183374 0)
(0.201941 0.00177234 0)
(0.201227 0.00171126 0)
(0.200512 0.0016507 0)
(0.199796 0.00159043 0)
(0.199081 0.00153014 0)
(0.198368 0.00146987 0)
(0.197661 0.00140994 0)
(0.196958 0.0013502 0)
(0.196262 0.00129032 0)
(0.195574 0.00123029 0)
(0.194898 0.00117067 0)
(0.194232 0.00111146 0)
(0.193579 0.00105246 0)
(0.192938 0.000993424 0)
(0.192315 0.000935245 0)
(0.191707 0.000878151 0)
(0.191117 0.000822502 0)
(0.190542 0.000767479 0)
(0.189988 0.000714493 0)
(0.189453 0.000663562 0)
(0.188939 0.000616754 0)
(0.18844 0.000571789 0)
(0.187964 0.000531308 0)
(0.187503 0.000492467 0)
(0.187071 0.000460976 0)
(0.186645 0.000430329 0)
(0.186249 0.000407417 0)
(0.18585 0.000380993 0)
(0.185498 0.000364087 0)
(0.185125 0.000341607 0)
(0.184816 0.000331561 0)
(0.184449 0.000311212 0)
(0.184185 0.00030288 0)
(0.183815 0.000281942 0)
(0.183617 0.0002749 0)
(0.183234 0.000258357 0)
(0.183094 0.00025276 0)
(0.182679 0.000239276 0)
(0.182594 0.000230084 0)
(0.182171 0.000218264 0)
(0.182135 0.000210084 0)
(0.181724 0.000203333 0)
(0.181686 0.000199359 0)
(0.18129 0.000192976 0)
(0.181235 0.000186942 0)
(0.180871 0.000179825 0)
(0.180838 0.000173762 0)
(0.180478 0.000171786 0)
(0.180476 0.000173417 0)
(0.180064 0.000173215 0)
(0.200005 0.00116849 0)
(0.200632 0.00332709 0)
(0.20173 0.00509784 0)
(0.203194 0.00632476 0)
(0.204804 0.0070323 0)
(0.206348 0.00737889 0)
(0.207726 0.00750863 0)
(0.208934 0.00748387 0)
(0.209996 0.00731784 0)
(0.210922 0.00702673 0)
(0.211703 0.00665171 0)
(0.212331 0.00624862 0)
(0.212819 0.00586574 0)
(0.213195 0.00552994 0)
(0.213495 0.00524709 0)
(0.213748 0.00501055 0)
(0.213977 0.00481004 0)
(0.21419 0.00463637 0)
(0.214392 0.00448271 0)
(0.214583 0.00434421 0)
(0.21476 0.00421726 0)
(0.214924 0.00409912 0)
(0.215071 0.00398785 0)
(0.215203 0.00388219 0)
(0.215317 0.00378126 0)
(0.215414 0.00368451 0)
(0.215493 0.00359168 0)
(0.215553 0.00350253 0)
(0.215595 0.00341674 0)
(0.215618 0.00333414 0)
(0.215623 0.00325459 0)
(0.215608 0.00317777 0)
(0.215575 0.00310337 0)
(0.215522 0.00303133 0)
(0.215451 0.00296144 0)
(0.215361 0.00289332 0)
(0.215252 0.00282683 0)
(0.215125 0.00276198 0)
(0.214979 0.0026985 0)
(0.214814 0.002636 0)
(0.214632 0.00257456 0)
(0.214432 0.00251423 0)
(0.214215 0.00245458 0)
(0.213981 0.00239532 0)
(0.213731 0.0023367 0)
(0.213465 0.00227875 0)
(0.213183 0.00222088 0)
(0.212887 0.00216291 0)
(0.212577 0.00210527 0)
(0.212254 0.00204791 0)
(0.211917 0.00199014 0)
(0.211569 0.00193179 0)
(0.211211 0.00187353 0)
(0.210843 0.00181532 0)
(0.210464 0.00175632 0)
(0.210077 0.00169633 0)
(0.209685 0.00163628 0)
(0.209286 0.00157629 0)
(0.208881 0.00151548 0)
(0.208471 0.00145336 0)
(0.20806 0.00139119 0)
(0.207647 0.00132949 0)
(0.207233 0.00126766 0)
(0.206816 0.0012045 0)
(0.206403 0.00114158 0)
(0.205993 0.00107986 0)
(0.205588 0.00102003 0)
(0.205181 0.000959598 0)
(0.204783 0.000900464 0)
(0.204389 0.000842924 0)
(0.204011 0.000791175 0)
(0.203627 0.000740333 0)
(0.20326 0.000694038 0)
(0.202887 0.000646796 0)
(0.20255 0.000610076 0)
(0.202195 0.0005726 0)
(0.201882 0.000546859 0)
(0.201524 0.000511081 0)
(0.201247 0.000490508 0)
(0.200897 0.000457722 0)
(0.200675 0.000449078 0)
(0.200306 0.000419385 0)
(0.200126 0.000412732 0)
(0.199725 0.000378343 0)
(0.199622 0.000372438 0)
(0.199203 0.000346732 0)
(0.199165 0.000344529 0)
(0.198704 0.000326409 0)
(0.198687 0.000312061 0)
(0.198233 0.000297407 0)
(0.198237 0.000278322 0)
(0.197851 0.000278891 0)
(0.197821 0.000267006 0)
(0.197466 0.000268899 0)
(0.19738 0.000254691 0)
(0.197034 0.000242587 0)
(0.197001 0.000234587 0)
(0.196654 0.000225326 0)
(0.1967 0.000235055 0)
(0.196306 0.000239251 0)
(0.200004 0.000960881 0)
(0.200479 0.00276655 0)
(0.201323 0.00431757 0)
(0.202482 0.00548253 0)
(0.203817 0.00622883 0)
(0.205164 0.00663392 0)
(0.206408 0.00681108 0)
(0.207512 0.00683616 0)
(0.208482 0.00673992 0)
(0.209332 0.00653814 0)
(0.210061 0.00625675 0)
(0.210669 0.00593499 0)
(0.211161 0.00561309 0)
(0.211555 0.00531906 0)
(0.211878 0.00506421 0)
(0.212156 0.00484727 0)
(0.212409 0.00466132 0)
(0.212649 0.00449881 0)
(0.212881 0.0043538 0)
(0.213106 0.00422222 0)
(0.213324 0.00410127 0)
(0.213534 0.00398877 0)
(0.213737 0.00388312 0)
(0.213933 0.0037833 0)
(0.214119 0.00368842 0)
(0.214298 0.00359783 0)
(0.214469 0.00351129 0)
(0.214631 0.00342858 0)
(0.214785 0.00334928 0)
(0.21493 0.00327316 0)
(0.215066 0.00320024 0)
(0.215194 0.00313014 0)
(0.215312 0.00306242 0)
(0.215421 0.0029971 0)
(0.215521 0.00293411 0)
(0.215611 0.00287288 0)
(0.215691 0.00281315 0)
(0.215762 0.00275517 0)
(0.215822 0.00269871 0)
(0.215871 0.00264305 0)
(0.21591 0.00258826 0)
(0.215939 0.00253473 0)
(0.215956 0.00248195 0)
(0.215961 0.00242918 0)
(0.215957 0.00237682 0)
(0.215941 0.00232533 0)
(0.215913 0.00227388 0)
(0.215874 0.00222171 0)
(0.215824 0.00216959 0)
(0.215763 0.00211805 0)
(0.215691 0.00206596 0)
(0.215606 0.00201244 0)
(0.215513 0.00195865 0)
(0.215409 0.00190529 0)
(0.215294 0.00185104 0)
(0.215167 0.00179468 0)
(0.215033 0.00173771 0)
(0.21489 0.00168128 0)
(0.214737 0.00162418 0)
(0.214572 0.00156442 0)
(0.214403 0.00150369 0)
(0.214227 0.00144385 0)
(0.214044 0.00138466 0)
(0.213848 0.00132279 0)
(0.21365 0.00125972 0)
(0.213447 0.00119764 0)
(0.213245 0.00113925 0)
(0.213028 0.00107941 0)
(0.212812 0.00101945 0)
(0.212587 0.00095884 0)
(0.21238 0.000906831 0)
(0.212149 0.000855349 0)
(0.211936 0.000809532 0)
(0.211688 0.000756639 0)
(0.211493 0.000717994 0)
(0.211249 0.000675553 0)
(0.211076 0.000653706 0)
(0.210799 0.00061104 0)
(0.21065 0.000591132 0)
(0.210356 0.000545403 0)
(0.210275 0.000542657 0)
(0.209946 0.000504723 0)
(0.209904 0.000506915 0)
(0.209506 0.00045863 0)
(0.209531 0.000453266 0)
(0.209122 0.00041831 0)
(0.209208 0.000418637 0)
(0.208778 0.000406532 0)
(0.208823 0.000382804 0)
(0.208418 0.000374373 0)
(0.208427 0.000330955 0)
(0.208149 0.000344505 0)
(0.208114 0.00032204 0)
(0.207875 0.000337619 0)
(0.207778 0.000325648 0)
(0.207472 0.000300519 0)
(0.207452 0.000293861 0)
(0.20713 0.000267077 0)
(0.207227 0.000279338 0)
(0.206926 0.000298444 0)
(0.200003 0.000800788 0)
(0.200371 0.00232328 0)
(0.201031 0.00367199 0)
(0.201954 0.00474531 0)
(0.203054 0.00549434 0)
(0.204211 0.00594485 0)
(0.20532 0.00617097 0)
(0.206326 0.00624304 0)
(0.207217 0.00620238 0)
(0.207999 0.0060701 0)
(0.208679 0.00586568 0)
(0.209258 0.00561609 0)
(0.209741 0.00535235 0)
(0.21014 0.00510022 0)
(0.210472 0.00487396 0)
(0.210758 0.00467673 0)
(0.211017 0.0045051 0)
(0.211261 0.00435346 0)
(0.211495 0.00421679 0)
(0.211722 0.00409167 0)
(0.211943 0.00397594 0)
(0.212158 0.00386786 0)
(0.212367 0.00376624 0)
(0.212571 0.0036703 0)
(0.212769 0.00357927 0)
(0.212962 0.00349239 0)
(0.21315 0.0034095 0)
(0.213333 0.00333045 0)
(0.213512 0.00325467 0)
(0.213687 0.00318195 0)
(0.213857 0.00311247 0)
(0.214024 0.00304586 0)
(0.214186 0.00298149 0)
(0.214344 0.00291951 0)
(0.214498 0.00286008 0)
(0.214647 0.00280243 0)
(0.214793 0.00274613 0)
(0.214934 0.0026917 0)
(0.21507 0.00263911 0)
(0.215201 0.00258724 0)
(0.215327 0.00253606 0)
(0.215449 0.00248643 0)
(0.215565 0.00243787 0)
(0.215674 0.00238905 0)
(0.215779 0.00234044 0)
(0.215878 0.00229317 0)
(0.215971 0.00224625 0)
(0.216056 0.00219811 0)
(0.216136 0.00214976 0)
(0.216209 0.0021026 0)
(0.216275 0.00205526 0)
(0.216332 0.00200574 0)
(0.216385 0.00195552 0)
(0.21643 0.00190647 0)
(0.216467 0.00185711 0)
(0.216493 0.00180464 0)
(0.216515 0.00175078 0)
(0.216531 0.00169824 0)
(0.216537 0.00164609 0)
(0.216531 0.00159015 0)
(0.216521 0.00153191 0)
(0.216504 0.00147493 0)
(0.216482 0.00142052 0)
(0.216443 0.00136261 0)
(0.216401 0.00130168 0)
(0.216351 0.00124062 0)
(0.216304 0.00118614 0)
(0.216233 0.00113027 0)
(0.216165 0.00107331 0)
(0.216076 0.00101131 0)
(0.216012 0.000961216 0)
(0.215912 0.000911596 0)
(0.215838 0.000871531 0)
(0.215702 0.000815279 0)
(0.21564 0.000777269 0)
(0.215497 0.000729316 0)
(0.215464 0.000716518 0)
(0.21527 0.000669494 0)
(0.215253 0.00065574 0)
(0.215018 0.000594792 0)
(0.215078 0.000599857 0)
(0.214802 0.000554323 0)
(0.214901 0.000571235 0)
(0.214539 0.000513709 0)
(0.214676 0.000506525 0)
(0.214316 0.000464815 0)
(0.214495 0.000460188 0)
(0.214161 0.000467351 0)
(0.21424 0.000430234 0)
(0.213949 0.000441088 0)
(0.21393 0.000364037 0)
(0.213793 0.000388966 0)
(0.213753 0.00035645 0)
(0.213646 0.000382195 0)
(0.213577 0.000390578 0)
(0.21332 0.000348694 0)
(0.213326 0.000347178 0)
(0.213042 0.000299051 0)
(0.213158 0.000297302 0)
(0.212991 0.000338538 0)
(0.200002 0.000674148 0)
(0.200292 0.00196812 0)
(0.200816 0.00313845 0)
(0.201557 0.00411034 0)
(0.202462 0.00483497 0)
(0.203446 0.00531094 0)
(0.204423 0.00557933 0)
(0.205333 0.00569519 0)
(0.20615 0.00570147 0)
(0.206872 0.00562435 0)
(0.207506 0.00548219 0)
(0.208056 0.00529463 0)
(0.208525 0.0050846 0)
(0.208922 0.00487375 0)
(0.209259 0.00467687 0)
(0.209551 0.00450015 0)
(0.209815 0.0043434 0)
(0.210059 0.00420313 0)
(0.210293 0.00407541 0)
(0.210518 0.00395745 0)
(0.210736 0.00384752 0)
(0.210948 0.00374421 0)
(0.211154 0.00364669 0)
(0.211354 0.00355449 0)
(0.21155 0.00346692 0)
(0.211741 0.00338322 0)
(0.211928 0.00330334 0)
(0.212111 0.00322715 0)
(0.21229 0.003154 0)
(0.212467 0.00308368 0)
(0.212641 0.00301656 0)
(0.212812 0.00295224 0)
(0.21298 0.00288993 0)
(0.213146 0.00282993 0)
(0.21331 0.00277262 0)
(0.213472 0.00271702 0)
(0.213631 0.00266256 0)
(0.213789 0.0026101 0)
(0.213944 0.00255968 0)
(0.214096 0.00250986 0)
(0.214247 0.00246053 0)
(0.214396 0.00241305 0)
(0.214541 0.00236694 0)
(0.214684 0.00232027 0)
(0.214825 0.00227361 0)
(0.214963 0.00222879 0)
(0.215097 0.00218471 0)
(0.215228 0.00213891 0)
(0.215356 0.00209265 0)
(0.215482 0.00204826 0)
(0.215602 0.00200421 0)
(0.215718 0.00195728 0)
(0.215831 0.00190923 0)
(0.21594 0.00186321 0)
(0.216044 0.0018177 0)
(0.216141 0.00176819 0)
(0.216235 0.00171649 0)
(0.216325 0.00166693 0)
(0.216409 0.00161923 0)
(0.216483 0.00156686 0)
(0.216554 0.00151079 0)
(0.21662 0.00145617 0)
(0.216683 0.00140656 0)
(0.21673 0.00135307 0)
(0.216776 0.00129487 0)
(0.216811 0.00123473 0)
(0.216854 0.00118453 0)
(0.21687 0.00113345 0)
(0.216893 0.00108124 0)
(0.216887 0.00101825 0)
(0.216916 0.000970757 0)
(0.216897 0.000923149 0)
(0.216918 0.000891601 0)
(0.216857 0.000833081 0)
(0.216889 0.000797564 0)
(0.216814 0.00074271 0)
(0.216881 0.000741339 0)
(0.216748 0.000691116 0)
(0.216831 0.000687535 0)
(0.216644 0.000610866 0)
(0.216804 0.000623473 0)
(0.216579 0.000570887 0)
(0.216774 0.000603826 0)
(0.216468 0.000543894 0)
(0.216671 0.000531545 0)
(0.216385 0.00048828 0)
(0.2166 0.000468907 0)
(0.216383 0.000505062 0)
(0.216464 0.000451439 0)
(0.216307 0.000491437 0)
(0.216255 0.000380129 0)
(0.21624 0.000409889 0)
(0.216198 0.000371195 0)
(0.216193 0.000397424 0)
(0.21617 0.000440581 0)
(0.215969 0.000384093 0)
(0.216 0.000389508 0)
(0.21577 0.000324751 0)
(0.215874 0.000292371 0)
(0.215829 0.000355805 0)
(0.200002 0.00057231 0)
(0.200233 0.00167893 0)
(0.200654 0.00269538 0)
(0.201254 0.00356671 0)
(0.202 0.00424993 0)
(0.202832 0.00473164 0)
(0.203683 0.00503061 0)
(0.204498 0.00518468 0)
(0.205244 0.00523182 0)
(0.205912 0.0052 0)
(0.206504 0.00510829 0)
(0.207023 0.00497286 0)
(0.207476 0.00481082 0)
(0.207867 0.00463934 0)
(0.208206 0.004472 0)
(0.208502 0.00431658 0)
(0.208769 0.00417543 0)
(0.209015 0.00404716 0)
(0.209248 0.00392905 0)
(0.209472 0.00381903 0)
(0.209688 0.00371567 0)
(0.209897 0.0036178 0)
(0.2101 0.00352489 0)
(0.210297 0.00343679 0)
(0.210489 0.00335285 0)
(0.210676 0.00327242 0)
(0.21086 0.00319558 0)
(0.211039 0.00312222 0)
(0.211215 0.00305157 0)
(0.211388 0.00298354 0)
(0.211559 0.00291861 0)
(0.211727 0.0028563 0)
(0.211893 0.00279575 0)
(0.212057 0.00273748 0)
(0.212219 0.0026819 0)
(0.21238 0.00262787 0)
(0.212539 0.0025748 0)
(0.212696 0.00252383 0)
(0.212852 0.00247501 0)
(0.213006 0.00242653 0)
(0.21316 0.00237845 0)
(0.213311 0.00233248 0)
(0.213461 0.00228801 0)
(0.21361 0.00224268 0)
(0.213757 0.00219727 0)
(0.213903 0.00215412 0)
(0.214047 0.00211187 0)
(0.214188 0.00206748 0)
(0.214329 0.00202256 0)
(0.214468 0.00198011 0)
(0.214603 0.00193829 0)
(0.214736 0.00189297 0)
(0.214868 0.00184636 0)
(0.214997 0.00180254 0)
(0.215122 0.00175985 0)
(0.215242 0.00171234 0)
(0.215363 0.00166217 0)
(0.215479 0.00161493 0)
(0.215591 0.00157079 0)
(0.215695 0.0015211 0)
(0.2158 0.00146676 0)
(0.215898 0.00141407 0)
(0.215996 0.00136866 0)
(0.216078 0.00131884 0)
(0.216164 0.00126315 0)
(0.216237 0.00120376 0)
(0.21632 0.00115771 0)
(0.216376 0.00111076 0)
(0.216444 0.00106336 0)
(0.216481 0.000999376 0)
(0.216555 0.000954948 0)
(0.216575 0.000908741 0)
(0.216646 0.000886069 0)
(0.216628 0.000825229 0)
(0.216713 0.000793403 0)
(0.216674 0.000731283 0)
(0.216793 0.000741626 0)
(0.216699 0.000688154 0)
(0.216838 0.000695742 0)
(0.216692 0.000604788 0)
(0.216897 0.000623883 0)
(0.216716 0.000565785 0)
(0.216949 0.000611984 0)
(0.216707 0.00055514 0)
(0.216928 0.000534244 0)
(0.216721 0.000495315 0)
(0.216925 0.000454711 0)
(0.21681 0.000523701 0)
(0.216872 0.000452164 0)
(0.216824 0.000523716 0)
(0.216755 0.000383754 0)
(0.216819 0.000411634 0)
(0.216782 0.000372239 0)
(0.216832 0.000390161 0)
(0.216845 0.000473064 0)
(0.216702 0.000406611 0)
(0.216747 0.000418059 0)
(0.216584 0.000344623 0)
(0.216662 0.000273553 0)
(0.216697 0.000354857 0)
(0.200002 0.000489167 0)
(0.200188 0.00144024 0)
(0.20053 0.00232479 0)
(0.201019 0.00310136 0)
(0.201636 0.00373433 0)
(0.202338 0.00420635 0)
(0.203074 0.00452295 0)
(0.203797 0.0047075 0)
(0.204474 0.00478984 0)
(0.20509 0.00479621 0)
(0.205642 0.00474597 0)
(0.206132 0.00465387 0)
(0.206566 0.00453354 0)
(0.206948 0.00439834 0)
(0.207284 0.00425982 0)
(0.207583 0.0041261 0)
(0.207852 0.00400116 0)
(0.2081 0.00388539 0)
(0.208334 0.00377741 0)
(0.208557 0.00367589 0)
(0.208772 0.00357969 0)
(0.208979 0.00348784 0)
(0.20918 0.00340009 0)
(0.209375 0.00331648 0)
(0.209564 0.00323644 0)
(0.209749 0.0031595 0)
(0.209929 0.00308591 0)
(0.210105 0.00301548 0)
(0.210278 0.00294743 0)
(0.210449 0.00288183 0)
(0.210616 0.00281919 0)
(0.210781 0.00275889 0)
(0.210944 0.00270015 0)
(0.211105 0.00264368 0)
(0.211263 0.00258982 0)
(0.211421 0.00253724 0)
(0.211577 0.00248557 0)
(0.211731 0.00243611 0)
(0.211884 0.0023887 0)
(0.212035 0.0023414 0)
(0.212186 0.00229454 0)
(0.212335 0.00224999 0)
(0.212483 0.0022068 0)
(0.21263 0.00216252 0)
(0.212776 0.00211835 0)
(0.21292 0.00207667 0)
(0.213062 0.00203575 0)
(0.213204 0.00199239 0)
(0.213345 0.00194876 0)
(0.213483 0.00190799 0)
(0.21362 0.00186773 0)
(0.213755 0.00182355 0)
(0.213889 0.00177833 0)
(0.21402 0.00173647 0)
(0.214149 0.0016958 0)
(0.214275 0.00164964 0)
(0.2144 0.00160098 0)
(0.214521 0.00155594 0)
(0.21464 0.00151454 0)
(0.214753 0.00146664 0)
(0.214867 0.00141395 0)
(0.214974 0.00136334 0)
(0.21508 0.00132155 0)
(0.215174 0.00127422 0)
(0.215275 0.00122069 0)
(0.215361 0.00116244 0)
(0.215456 0.00112053 0)
(0.215525 0.00107654 0)
(0.215613 0.00103307 0)
(0.215667 0.000968281 0)
(0.215759 0.000927724 0)
(0.215794 0.000882505 0)
(0.215884 0.000867416 0)
(0.215888 0.000803694 0)
(0.215996 0.000776303 0)
(0.215977 0.000708235 0)
(0.21611 0.00072933 0)
(0.216042 0.000672034 0)
(0.216199 0.00068907 0)
(0.216091 0.000586762 0)
(0.216298 0.000611532 0)
(0.216158 0.000550508 0)
(0.216381 0.000605195 0)
(0.216204 0.00055391 0)
(0.21641 0.000522206 0)
(0.216276 0.000492261 0)
(0.216444 0.000429703 0)
(0.216397 0.000529997 0)
(0.216436 0.00044102 0)
(0.216458 0.000539684 0)
(0.216395 0.00037869 0)
(0.216494 0.000401146 0)
(0.216465 0.000366003 0)
(0.216532 0.000371955 0)