/*--------------------------------*- C++ -*----------------------------------*\
| =========                 |                                                 |
| \\      /  F ield         | OpenFOAM: The Open Source CFD Toolbox           |
|  \\    /   O peration     | Version:  2.3.0                                 |
|   \\  /    A nd           | Web:      www.OpenFOAM.org                      |
|    \\/     M anipulation  |                                                 |
\*---------------------------------------------------------------------------*/
FoamFile
{
    version     2.0;
    format      ascii;
    class       surfaceScalarField;
    location    "0.05";
    object      phi;
}
// * * * * * * * * * * * * * * * * * * * * * * * * * * * * * * * * * * * * * //

dimensions      [0 3 -1 0 0 0 0];

internalField   nonuniform List<scalar> 
5764
(
1.95299e-08
4.26537e-09
-2.37952e-08
1.57778e-08
3.75205e-09
1.27091e-08
3.06871e-09
1.03114e-08
2.39775e-09
8.52206e-09
1.78929e-09
7.24059e-09
1.28147e-09
6.35079e-09
8.89803e-10
5.74499e-09
6.05798e-10
5.33828e-09
4.06707e-10
5.07142e-09
2.66859e-10
4.90606e-09
1.65362e-10
4.81778e-09
8.82846e-11
4.78943e-09
2.83501e-11
4.79897e-09
-9.54383e-12
4.82433e-09
-2.5363e-11
4.85352e-09
-2.9184e-11
4.88016e-09
-2.66416e-11
4.90169e-09
-2.15313e-11
4.9179e-09
-1.62127e-11
4.92959e-09
-1.16882e-11
4.93779e-09
-8.20296e-12
4.94347e-09
-5.67499e-12
4.94738e-09
-3.91324e-12
4.9501e-09
-2.71751e-12
4.95202e-09
-1.91642e-12
4.9534e-09
-1.38348e-12
4.95443e-09
-1.02762e-12
4.95521e-09
-7.84854e-13
4.95583e-09
-6.16491e-13
4.95633e-09
-4.97923e-13
4.95674e-09
-4.13411e-13
4.95709e-09
-3.51358e-13
4.95739e-09
-3.03661e-13
4.95766e-09
-2.65882e-13
4.9579e-09
-2.34819e-13
4.9581e-09
-2.08782e-13
4.95829e-09
-1.86742e-13
4.95846e-09
-1.67871e-13
4.95861e-09
-1.5155e-13
4.95875e-09
-1.37293e-13
4.95887e-09
-1.24717e-13
4.95899e-09
-1.13538e-13
4.95909e-09
-1.03528e-13
4.95918e-09
-9.45027e-14
4.95927e-09
-8.63192e-14
4.95935e-09
-7.88586e-14
4.95942e-09
-7.2043e-14
4.95949e-09
-6.57862e-14
4.95955e-09
-6.00429e-14
4.9596e-09
-5.47512e-14
4.95965e-09
-4.98843e-14
4.9597e-09
-4.53908e-14
4.95974e-09
-4.12326e-14
4.95978e-09
-3.73969e-14
4.95981e-09
-3.38526e-14
4.95984e-09
-3.05794e-14
4.95987e-09
-2.75554e-14
4.95989e-09
-2.47605e-14
4.95991e-09
-2.21797e-14
4.95993e-09
-1.97921e-14
4.95995e-09
-1.75792e-14
4.95997e-09
-1.55263e-14
4.95998e-09
-1.36111e-14
4.95999e-09
-1.1825e-14
4.96e-09
-1.01491e-14
4.96001e-09
-8.56448e-15
4.96002e-09
-7.06075e-15
4.96002e-09
-5.60369e-15
4.96003e-09
-4.18313e-15
4.96003e-09
-2.7713e-15
4.96003e-09
-1.35863e-15
4.96003e-09
1.70052e-16
4.96003e-09
2.12683e-15
4.96003e-09
4.47861e-15
2.34996e-14
2.59422e-08
5.14549e-09
-2.68223e-08
2.45545e-08
5.13972e-09
2.29691e-08
4.65414e-09
2.13681e-08
3.9987e-09
1.98632e-08
3.29421e-09
1.85189e-08
2.62575e-09
1.73647e-08
2.04406e-09
1.64087e-08
1.56174e-09
1.56483e-08
1.16713e-09
1.50738e-08
8.41413e-10
1.46692e-08
5.69939e-10
1.44105e-08
3.46921e-10
1.42658e-08
1.73112e-10
1.42092e-08
4.6986e-11
1.42134e-08
-2.95498e-11
1.42463e-08
-6.20881e-11
1.42869e-08
-6.72153e-11
1.43248e-08
-5.93924e-11
1.43558e-08
-4.72128e-11
1.43792e-08
-3.50816e-11
1.43958e-08
-2.4838e-11
1.44071e-08
-1.69421e-11
1.44144e-08
-1.12103e-11
1.44189e-08
-7.22513e-12
1.44215e-08
-4.53683e-12
1.44229e-08
-2.76572e-12
1.44235e-08
-1.61543e-12
1.44235e-08
-8.71844e-13
1.44233e-08
-3.95796e-13
1.44229e-08
-9.30814e-14
1.44224e-08
9.24885e-14
1.44219e-08
1.98419e-13
1.44213e-08
2.53685e-13
1.44208e-08
2.78446e-13
1.44202e-08
2.85024e-13
1.44198e-08
2.80418e-13
1.44193e-08
2.68811e-13
1.44189e-08
2.52954e-13
1.44185e-08
2.3469e-13
1.44181e-08
2.15311e-13
1.44178e-08
1.95713e-13
1.44175e-08
1.76511e-13
1.44173e-08
1.58114e-13
1.4417e-08
1.40794e-13
1.44168e-08
1.24707e-13
1.44166e-08
1.09934e-13
1.44165e-08
9.64813e-14
1.44163e-08
8.43355e-14
1.44162e-08
7.34396e-14
1.44161e-08
6.37306e-14
1.4416e-08
5.51288e-14
1.44159e-08
4.75598e-14
1.44158e-08
4.09395e-14
1.44157e-08
3.51711e-14
1.44156e-08
3.01821e-14
1.44156e-08
2.58949e-14
1.44155e-08
2.22427e-14
1.44155e-08
1.91578e-14
1.44155e-08
1.65835e-14
1.44154e-08
1.44647e-14
1.44154e-08
1.2762e-14
1.44154e-08
1.14307e-14
1.44153e-08
1.04426e-14
1.44153e-08
9.7651e-15
1.44153e-08
9.37488e-15
1.44153e-08
9.26394e-15
1.44153e-08
9.4182e-15
1.44153e-08
9.85726e-15
1.44152e-08
1.05937e-14
1.44152e-08
1.16763e-14
1.44152e-08
1.32096e-14
1.44152e-08
1.54106e-14
1.44152e-08
1.87693e-14
1.44152e-08
2.6218e-14
5.71088e-14
2.82255e-08
5.0913e-09
-2.81713e-08
2.79688e-08
5.39643e-09
2.7454e-08
5.16901e-09
2.67669e-08
4.68573e-09
2.59878e-08
4.07337e-09
2.51875e-08
3.42599e-09
2.44218e-08
2.80983e-09
2.37304e-08
2.25315e-09
2.314e-08
1.75745e-09
2.26658e-08
1.31568e-09
2.23108e-08
9.24956e-10
2.20669e-08
5.90811e-10
2.19166e-08
3.23362e-10
2.18365e-08
1.27119e-10
2.18078e-08
-8.68168e-13
2.18145e-08
-6.88402e-11
2.18397e-08
-9.24151e-11
2.18713e-08
-9.09032e-11
2.19017e-08
-7.76834e-11
2.19274e-08
-6.08005e-11
2.19472e-08
-4.45461e-11
2.1961e-08
-3.08211e-11
2.197e-08
-2.01431e-11
2.19751e-08
-1.23207e-11
2.19774e-08
-6.85751e-12
2.19778e-08
-3.20264e-12
2.1977e-08
-8.21341e-13
2.19754e-08
7.16562e-13
2.19734e-08
1.65716e-12
2.19711e-08
2.1563e-12
2.19689e-08
2.36479e-12
2.19667e-08
2.39994e-12
2.19646e-08
2.33877e-12
2.19626e-08
2.22688e-12
2.19608e-08
2.09019e-12
2.19592e-08
1.94306e-12
2.19576e-08
1.79359e-12
2.19562e-08
1.64656e-12
2.1955e-08
1.50484e-12
2.19538e-08
1.37014e-12
2.19528e-08
1.24344e-12
2.19518e-08
1.12523e-12
2.1951e-08
1.01566e-12
2.19502e-08
9.14655e-13
2.19495e-08
8.21969e-13
2.19489e-08
7.37263e-13
2.19483e-08
6.6011e-13
2.19478e-08
5.90058e-13
2.19473e-08
5.26632e-13
2.19469e-08
4.69353e-13
2.19466e-08
4.17754e-13
2.19463e-08
3.71383e-13
2.1946e-08
3.29803e-13
2.19457e-08
2.92588e-13
2.19455e-08
2.59358e-13
2.19453e-08
2.2975e-13
2.19451e-08
2.03431e-13
2.19449e-08
1.80091e-13
2.19448e-08
1.5945e-13
2.19447e-08
1.41247e-13
2.19445e-08
1.25256e-13
2.19444e-08
1.11262e-13
2.19444e-08
9.90805e-14
2.19443e-08
8.85425e-14
2.19442e-08
7.94977e-14
2.19441e-08
7.18305e-14
2.19441e-08
6.54321e-14
2.1944e-08
6.02396e-14
2.1944e-08
5.62079e-14
2.1944e-08
5.33442e-14
2.19439e-08
5.17608e-14
2.19439e-08
5.17664e-14
2.19438e-08
5.4271e-14
2.19438e-08
6.42626e-14
9.67197e-14
2.94944e-08
4.79927e-09
-2.92024e-08
2.96615e-08
5.22938e-09
2.96632e-08
5.16723e-09
2.95146e-08
4.83433e-09
2.92468e-08
4.34117e-09
2.89028e-08
3.77006e-09
2.85267e-08
3.18593e-09
2.81563e-08
2.62355e-09
2.78199e-08
2.09381e-09
2.75359e-08
1.59974e-09
2.73124e-08
1.14841e-09
2.71492e-08
7.53976e-10
2.70397e-08
4.32862e-10
2.69721e-08
1.94758e-10
2.6935e-08
3.61958e-11
2.69214e-08
-5.51685e-11
2.69242e-08
-9.52183e-11
2.69363e-08
-1.03047e-10
2.6952e-08
-9.34105e-11
2.69674e-08
-7.6165e-11
2.69801e-08
-5.72842e-11
2.69893e-08
-3.99842e-11
2.69948e-08
-2.5672e-11
2.69972e-08
-1.46707e-11
2.6997e-08
-6.70062e-12
2.6995e-08
-1.19873e-12
2.69917e-08
2.45405e-12
2.69877e-08
4.70897e-12
2.69835e-08
5.92294e-12
2.69792e-08
6.4293e-12
2.69751e-08
6.49411e-12
2.69712e-08
6.30585e-12
2.69675e-08
5.98445e-12
2.69642e-08
5.60064e-12
2.69611e-08
5.19442e-12
2.69582e-08
4.78774e-12
2.69556e-08
4.39256e-12
2.69532e-08
4.01536e-12
2.69511e-08
3.65951e-12
2.69491e-08
3.32658e-12
2.69474e-08
3.01705e-12
2.69457e-08
2.73071e-12
2.69443e-08
2.46692e-12
2.6943e-08
2.22475e-12
2.69418e-08
2.0031e-12
2.69407e-08
1.8008e-12
2.69398e-08
1.61659e-12
2.69389e-08
1.44922e-12
2.69382e-08
1.29748e-12
2.69375e-08
1.16016e-12
2.69368e-08
1.03613e-12
2.69363e-08
9.24309e-13
2.69358e-08
8.23662e-13
2.69354e-08
7.33219e-13
2.6935e-08
6.52087e-13
2.69346e-08
5.79431e-13
2.69343e-08
5.14482e-13
2.6934e-08
4.56525e-13
2.69338e-08
4.04914e-13
2.69336e-08
3.59046e-13
2.69334e-08
3.18387e-13
2.69332e-08
2.82436e-13
2.69331e-08
2.5075e-13
2.69329e-08
2.22929e-13
2.69328e-08
1.98608e-13
2.69327e-08
1.77485e-13
2.69326e-08
1.59283e-13
2.69325e-08
1.4379e-13
2.69324e-08
1.3084e-13
2.69324e-08
1.2034e-13
2.69323e-08
1.12348e-13
2.69323e-08
1.07203e-13
2.69322e-08
1.06099e-13
2.69322e-08
1.14373e-13
1.41741e-13
3.05057e-08
4.47526e-09
-3.01817e-08
3.07984e-08
4.93668e-09
3.10017e-08
4.96391e-09
3.11045e-08
4.73155e-09
3.11108e-08
4.33486e-09
3.10393e-08
3.84159e-09
3.09166e-08
3.30866e-09
3.07686e-08
2.77146e-09
3.06163e-08
2.24615e-09
3.04736e-08
1.74243e-09
3.03485e-08
1.27357e-09
3.02441e-08
8.58339e-10
3.0161e-08
5.16001e-10
3.00974e-08
2.58342e-10
3.00499e-08
8.36978e-11
3.00163e-08
-2.16027e-11
2.99953e-08
-7.41931e-11
2.99837e-08
-9.14353e-11
2.99781e-08
-8.78179e-11
2.99756e-08
-7.36952e-11
2.99741e-08
-5.58166e-11
2.99723e-08
-3.81901e-11
2.99696e-08
-2.28861e-11
2.99656e-08
-1.07002e-11
2.99605e-08
-1.61947e-12
2.99546e-08
4.74354e-12
2.99482e-08
8.86036e-12
2.99417e-08
1.12159e-11
2.99353e-08
1.22975e-11
2.99292e-08
1.25308e-11
2.99234e-08
1.22439e-11
2.99181e-08
1.1666e-11
2.99131e-08
1.09436e-11
2.99085e-08
1.0164e-11
2.99044e-08
9.37712e-12
2.99005e-08
8.61031e-12
2.98971e-08
7.87799e-12
2.98939e-08
7.18738e-12
2.9891e-08
6.54161e-12
2.98884e-08
5.94145e-12
2.9886e-08
5.38624e-12
2.98839e-08
4.87456e-12
2.98819e-08
4.40444e-12
2.98802e-08
3.9737e-12
2.98786e-08
3.57997e-12
2.98772e-08
3.22085e-12
2.98759e-08
2.89393e-12
2.98748e-08
2.59689e-12
2.98737e-08
2.32745e-12
2.98728e-08
2.08346e-12
2.9872e-08
1.86287e-12
2.98712e-08
1.66375e-12
2.98706e-08
1.48428e-12
2.987e-08
1.32277e-12
2.98695e-08
1.17764e-12
2.9869e-08
1.04742e-12
2.98686e-08
9.30778e-13
2.98682e-08
8.26457e-13
2.98679e-08
7.33321e-13
2.98676e-08
6.5032e-13
2.98673e-08
5.76506e-13
2.98671e-08
5.11004e-13
2.98669e-08
4.53025e-13
2.98667e-08
4.01857e-13
2.98666e-08
3.56856e-13
2.98664e-08
3.17462e-13
2.98663e-08
2.83173e-13
2.98662e-08
2.5357e-13
2.98661e-08
2.28315e-13
2.9866e-08
2.07165e-13
2.98659e-08
1.90068e-13
2.98659e-08
1.77308e-13
2.98658e-08
1.70102e-13
2.98657e-08
1.73168e-13
1.91805e-13
3.14692e-08
4.17368e-09
-3.11676e-08
3.17801e-08
4.62582e-09
3.2043e-08
4.70102e-09
3.22408e-08
4.53375e-09
3.23679e-08
4.20769e-09
3.24299e-08
3.77967e-09
3.24403e-08
3.29825e-09
3.24146e-08
2.7971e-09
3.23657e-08
2.29507e-09
3.23025e-08
1.80563e-09
3.22311e-08
1.34495e-09
3.21563e-08
9.3321e-10
3.20824e-08
5.89913e-10
3.20136e-08
3.27055e-10
3.19529e-08
1.44425e-10
3.19014e-08
2.98912e-11
3.18599e-08
-3.26915e-11
3.18276e-08
-5.91406e-11
3.18028e-08
-6.29884e-11
3.17835e-08
-5.4398e-11
3.1768e-08
-4.03265e-11
3.1755e-08
-2.51552e-11
3.17434e-08
-1.13502e-11
3.17328e-08
-3.52121e-14
3.17227e-08
8.49445e-12
3.1713e-08
1.43742e-11
3.17039e-08
1.79836e-11
3.16953e-08
1.98111e-11
3.16873e-08
2.03516e-11
3.16797e-08
2.00379e-11
3.16728e-08
1.92061e-11
3.16664e-08
1.80935e-11
3.16604e-08
1.68543e-11
3.1655e-08
1.55819e-11
3.16501e-08
1.43303e-11
3.16456e-08
1.31289e-11
3.16414e-08
1.19928e-11
3.16377e-08
1.09287e-11
3.16343e-08
9.9386e-12
3.16312e-08
9.02185e-12
3.16284e-08
8.17616e-12
3.16259e-08
7.39842e-12
3.16236e-08
6.685e-12
3.16216e-08
6.03206e-12
3.16197e-08
5.43569e-12
3.1618e-08
4.89199e-12
3.16165e-08
4.39718e-12
3.16152e-08
3.94757e-12
3.1614e-08
3.5397e-12
3.16129e-08
3.17024e-12
3.16119e-08
2.83607e-12
3.1611e-08
2.53425e-12
3.16103e-08
2.26205e-12
3.16096e-08
2.0169e-12
3.1609e-08
1.79643e-12
3.16084e-08
1.59845e-12
3.16079e-08
1.42091e-12
3.16075e-08
1.26197e-12
3.16071e-08
1.11989e-12
3.16067e-08
9.93098e-13
3.16064e-08
8.80168e-13
3.16062e-08
7.79782e-13
3.16059e-08
6.90744e-13
3.16057e-08
6.11979e-13
3.16055e-08
5.42507e-13
3.16054e-08
4.81469e-13
3.16052e-08
4.28093e-13
3.16051e-08
3.81716e-13
3.1605e-08
3.41789e-13
3.16049e-08
3.07882e-13
3.16048e-08
2.79792e-13
3.16047e-08
2.57676e-13
3.16046e-08
2.42585e-13
3.16046e-08
2.38277e-13
2.46533e-13
3.2442e-08
3.90422e-09
-3.21726e-08
3.27379e-08
4.32995e-09
3.30067e-08
4.43227e-09
3.323e-08
4.31042e-09
3.34001e-08
4.03759e-09
3.35167e-08
3.66307e-09
3.35863e-08
3.22866e-09
3.36176e-08
2.76578e-09
3.36181e-08
2.29456e-09
3.35933e-08
1.83041e-09
3.35479e-08
1.3904e-09
3.34868e-08
9.94258e-10
3.34164e-08
6.60369e-10
3.33433e-08
4.00138e-10
3.32735e-08
2.14196e-10
3.32106e-08
9.28117e-11
3.31563e-08
2.16392e-11
3.31109e-08
-1.37666e-11
3.30737e-08
-2.57914e-11
3.30434e-08
-2.40668e-11
3.30185e-08
-1.54534e-11
3.29978e-08
-4.45273e-12
3.29802e-08
6.2487e-12
3.29649e-08
1.52504e-11
3.29514e-08
2.20031e-11
3.29393e-08
2.64809e-11
3.29283e-08
2.89532e-11
3.29183e-08
2.98275e-11
3.29091e-08
2.95395e-11
3.29007e-08
2.84813e-11
3.28929e-08
2.69643e-11
3.28858e-08
2.5213e-11
3.28793e-08
2.33758e-11
3.28733e-08
2.15445e-11
3.28679e-08
1.97722e-11
3.28629e-08
1.80876e-11
3.28584e-08
1.65046e-11
3.28543e-08
1.50285e-11
3.28506e-08
1.36595e-11
3.28472e-08
1.23948e-11
3.28442e-08
1.12303e-11
3.28414e-08
1.01608e-11
3.28389e-08
9.18076e-12
3.28367e-08
8.28445e-12
3.28346e-08
7.46621e-12
3.28328e-08
6.72049e-12
3.28311e-08
6.04193e-12
3.28297e-08
5.42542e-12
3.28283e-08
4.86609e-12
3.28272e-08
4.35937e-12
3.28261e-08
3.90094e-12
3.28251e-08
3.48678e-12
3.28243e-08
3.11313e-12
3.28235e-08
2.77648e-12
3.28229e-08
2.47358e-12
3.28222e-08
2.20143e-12
3.28217e-08
1.95727e-12
3.28212e-08
1.73853e-12
3.28208e-08
1.54287e-12
3.28204e-08
1.36814e-12
3.28201e-08
1.21237e-12
3.28198e-08
1.07377e-12
3.28196e-08
9.50708e-13
3.28193e-08
8.41695e-13
3.28191e-08
7.45393e-13
3.28189e-08
6.60611e-13
3.28188e-08
5.86284e-13
3.28186e-08
5.21479e-13
3.28185e-08
4.65412e-13
3.28184e-08
4.17444e-13
3.28183e-08
3.7719e-13
3.28182e-08
3.44637e-13
3.28181e-08
3.2057e-13
3.28181e-08
3.07752e-13
3.05262e-13
3.34388e-08
3.66502e-09
-3.31996e-08
3.37115e-08
4.05723e-09
3.39688e-08
4.17497e-09
3.41916e-08
4.0876e-09
3.43716e-08
3.85758e-09
3.45063e-08
3.52841e-09
3.45983e-08
3.13657e-09
3.46529e-08
2.71119e-09
3.46747e-08
2.27283e-09
3.46673e-08
1.83783e-09
3.46345e-08
1.42319e-09
3.45813e-08
1.04739e-09
3.45145e-08
7.27244e-10
3.44413e-08
4.73318e-10
3.43686e-08
2.86893e-10
3.43011e-08
1.60345e-10
3.42412e-08
8.15021e-11
3.41898e-08
3.76005e-11
3.41467e-08
1.73552e-11
3.41108e-08
1.17724e-11
3.40811e-08
1.42505e-11
3.40564e-08
2.02934e-11
3.40356e-08
2.70811e-11
3.40178e-08
3.30311e-11
3.40024e-08
3.74132e-11
3.39888e-08
4.00399e-11
3.39767e-08
4.10454e-11
3.39658e-08
4.07283e-11
3.39559e-08
3.94407e-11
3.39469e-08
3.75145e-11
3.39386e-08
3.52221e-11
3.39311e-08
3.27643e-11
3.39242e-08
3.02767e-11
3.39179e-08
2.7844e-11
3.39121e-08
2.55154e-11
3.39069e-08
2.33171e-11
3.39021e-08
2.12604e-11
3.38978e-08
1.93485e-11
3.38939e-08
1.75791e-11
3.38904e-08
1.59473e-11
3.38871e-08
1.44465e-11
3.38842e-08
1.30694e-11
3.38816e-08
1.18084e-11
3.38792e-08
1.06557e-11
3.38771e-08
9.60379e-12
3.38752e-08
8.64534e-12
3.38734e-08
7.77333e-12
3.38719e-08
6.98109e-12
3.38705e-08
6.26233e-12
3.38692e-08
5.61112e-12
3.38681e-08
5.0219e-12
3.38671e-08
4.48949e-12
3.38662e-08
4.00905e-12
3.38654e-08
3.57608e-12
3.38647e-08
3.18642e-12
3.38641e-08
2.83621e-12
3.38635e-08
2.52189e-12
3.3863e-08
2.24021e-12
3.38626e-08
1.98814e-12
3.38622e-08
1.76293e-12
3.38618e-08
1.56207e-12
3.38615e-08
1.38323e-12
3.38612e-08
1.22433e-12
3.3861e-08
1.08345e-12
3.38608e-08
9.58888e-13
3.38606e-08
8.4909e-13
3.38604e-08
7.52681e-13
3.38603e-08
6.68446e-13
3.38601e-08
5.95353e-13
3.386e-08
5.32538e-13
3.38599e-08
4.79416e-13
3.38598e-08
4.35774e-13
3.38597e-08
4.02086e-13
3.38597e-08
3.80207e-13
3.67291e-13
3.44629e-08
3.45197e-09
-3.42498e-08
3.47118e-08
3.80831e-09
3.4953e-08
3.93372e-09
3.51669e-08
3.87368e-09
3.53448e-08
3.67973e-09
3.54829e-08
3.39026e-09
3.55821e-08
3.03737e-09
3.56454e-08
2.64788e-09
3.56761e-08
2.24219e-09
3.5677e-08
1.83695e-09
3.56515e-08
1.44868e-09
3.56044e-08
1.09444e-09
3.55422e-08
7.89444e-10
3.54721e-08
5.4342e-10
3.54008e-08
3.58175e-10
3.53333e-08
2.2789e-10
3.52724e-08
1.42433e-10
3.52193e-08
9.07132e-11
3.5174e-08
6.26063e-11
3.5136e-08
4.9809e-11
3.51042e-08
4.60462e-11
3.50776e-08
4.69054e-11
3.50551e-08
4.95066e-11
3.5036e-08
5.21354e-11
3.50195e-08
5.39048e-11
3.50051e-08
5.44763e-11
3.49923e-08
5.38493e-11
3.49808e-08
5.22099e-11
3.49704e-08
4.98212e-11
3.4961e-08
4.69496e-11
3.49524e-08
4.38225e-11
3.49446e-08
4.06125e-11
3.49374e-08
3.74383e-11
3.49309e-08
3.43749e-11
3.49249e-08
3.14657e-11
3.49195e-08
2.87326e-11
3.49146e-08
2.61838e-11
3.49101e-08
2.38197e-11
3.4906e-08
2.16353e-11
3.49024e-08
1.96231e-11
3.4899e-08
1.7774e-11
3.4896e-08
1.60785e-11
3.48933e-08
1.45267e-11
3.48909e-08
1.31087e-11
3.48886e-08
1.1815e-11
3.48867e-08
1.06364e-11
3.48849e-08
9.56426e-12
3.48833e-08
8.59024e-12
3.48818e-08
7.70656e-12
3.48805e-08
6.90589e-12
3.48794e-08
6.18139e-12
3.48783e-08
5.52666e-12
3.48774e-08
4.93576e-12
3.48766e-08
4.40317e-12
3.48758e-08
3.92376e-12
3.48752e-08
3.4928e-12
3.48746e-08
3.10594e-12
3.48741e-08
2.75914e-12
3.48736e-08
2.44873e-12
3.48732e-08
2.1713e-12
3.48728e-08
1.92378e-12
3.48725e-08
1.70332e-12
3.48722e-08
1.50734e-12
3.4872e-08
1.33351e-12
3.48718e-08
1.1797e-12
3.48716e-08
1.04402e-12
3.48714e-08
9.2476e-13
3.48712e-08
8.20416e-13
3.48711e-08
7.29695e-13
3.4871e-08
6.51501e-13
3.48709e-08
5.85033e-13
3.48708e-08
5.29861e-13
3.48707e-08
4.86132e-13
3.48706e-08
4.54906e-13
4.32113e-13
3.55154e-08
3.26107e-09
-3.53245e-08
3.57419e-08
3.58174e-09
3.59664e-08
3.70922e-09
3.61691e-08
3.67098e-09
3.63409e-08
3.50802e-09
3.64773e-08
3.25385e-09
3.65778e-08
2.93681e-09
3.66443e-08
2.58137e-09
3.66792e-08
2.20732e-09
3.66849e-08
1.8312e-09
3.66648e-08
1.46885e-09
3.66232e-08
1.13599e-09
3.65663e-08
8.46381e-10
3.65007e-08
6.08984e-10
3.64329e-08
4.26028e-10
3.63675e-08
2.93217e-10
3.63077e-08
2.02234e-10
3.62549e-08
1.43551e-10
3.62093e-08
1.0818e-10
3.61706e-08
8.85322e-11
3.61379e-08
7.87095e-11
3.61104e-08
7.44363e-11
3.60871e-08
7.282e-11
3.60672e-08
7.20512e-11
3.605e-08
7.11128e-11
3.60349e-08
6.95307e-11
3.60216e-08
6.71792e-11
3.60097e-08
6.41366e-11
3.59989e-08
6.05786e-11
3.59891e-08
5.67058e-11
3.59803e-08
5.26995e-11
3.59722e-08
4.87017e-11
3.59648e-08
4.48123e-11
3.59581e-08
4.10948e-11
3.5952e-08
3.75851e-11
3.59464e-08
3.43001e-11
3.59413e-08
3.12444e-11
3.59367e-08
2.84147e-11
3.59326e-08
2.58033e-11
3.59288e-08
2.33998e-11
3.59254e-08
2.11928e-11
3.59223e-08
1.917e-11
3.59195e-08
1.73193e-11
3.5917e-08
1.56286e-11
3.59147e-08
1.40865e-11
3.59127e-08
1.26818e-11
3.59108e-08
1.1404e-11
3.59092e-08
1.02432e-11
3.59077e-08
9.19012e-12
3.59063e-08
8.23592e-12
3.59052e-08
7.37244e-12
3.59041e-08
6.59207e-12
3.59031e-08
5.88771e-12
3.59023e-08
5.25278e-12
3.59015e-08
4.68118e-12
3.59009e-08
4.16728e-12
3.59003e-08
3.70588e-12
3.58997e-08
3.29221e-12
3.58993e-08
2.92186e-12
3.58988e-08
2.5908e-12
3.58985e-08
2.29535e-12
3.58981e-08
2.03213e-12
3.58978e-08
1.79806e-12
3.58976e-08
1.59037e-12
3.58974e-08
1.40652e-12
3.58972e-08
1.24425e-12
3.5897e-08
1.10151e-12
3.58968e-08
9.76505e-13
3.58967e-08
8.67667e-13
3.58966e-08
7.7366e-13
3.58965e-08
6.9346e-13
3.58964e-08
6.26403e-13
3.58963e-08
5.72308e-13
3.58962e-08
5.31557e-13
4.99409e-13
3.65968e-08
3.08891e-09
-3.64247e-08
3.6803e-08
3.37557e-09
3.70112e-08
3.50106e-09
3.72022e-08
3.47993e-09
3.73666e-08
3.34368e-09
3.74994e-08
3.12105e-09
3.75992e-08
2.83699e-09
3.76669e-08
2.51368e-09
3.77043e-08
2.16992e-09
3.77137e-08
1.82182e-09
3.7698e-08
1.48447e-09
3.76617e-08
1.17235e-09
3.76101e-08
8.97948e-10
3.75495e-08
6.69564e-10
3.74858e-08
4.89755e-10
3.74235e-08
3.55484e-10
3.73657e-08
2.60028e-10
3.7314e-08
1.95281e-10
3.72689e-08
1.53335e-10
3.72301e-08
1.27319e-10
3.7197e-08
1.11738e-10
3.7169e-08
1.02496e-10
3.71451e-08
9.67288e-11
3.71246e-08
9.25651e-11
3.71068e-08
8.88841e-11
3.70912e-08
8.50947e-11
3.70775e-08
8.09583e-11
3.70651e-08
7.6453e-11
3.7054e-08
7.1672e-11
3.7044e-08
6.67521e-11
3.70349e-08
6.18282e-11
3.70266e-08
5.70114e-11
3.7019e-08
5.23812e-11
3.70121e-08
4.79881e-11
3.70058e-08
4.38598e-11
3.70001e-08
4.00074e-11
3.69949e-08
3.64308e-11
3.69902e-08
3.31234e-11
3.69859e-08
3.0074e-11
3.69821e-08
2.72695e-11
3.69786e-08
2.46954e-11
3.69754e-08
2.23372e-11
3.69725e-08
2.01802e-11
3.697e-08
1.82101e-11
3.69676e-08
1.64134e-11
3.69655e-08
1.4777e-11
3.69637e-08
1.32886e-11
3.6962e-08
1.19365e-11
3.69604e-08
1.07098e-11
3.69591e-08
9.59836e-12
3.69579e-08
8.59252e-12
3.69568e-08
7.68344e-12
3.69558e-08
6.86285e-12
3.69549e-08
6.12309e-12
3.69541e-08
5.45705e-12
3.69535e-08
4.85819e-12
3.69528e-08
4.32045e-12
3.69523e-08
3.83826e-12
3.69518e-08
3.40651e-12
3.69514e-08
3.02051e-12
3.6951e-08
2.67597e-12
3.69507e-08
2.36894e-12
3.69504e-08
2.09587e-12
3.69501e-08
1.85349e-12
3.69499e-08
1.63887e-12
3.69497e-08
1.44935e-12
3.69495e-08
1.28256e-12
3.69493e-08
1.13639e-12
3.69492e-08
1.00898e-12
3.69491e-08
8.98765e-13
3.69489e-08
8.04477e-13
3.69489e-08
7.25213e-13
3.69488e-08
6.60469e-13
3.69487e-08
6.1006e-13
5.68965e-13
3.77079e-08
2.93269e-09
-3.75517e-08
3.78957e-08
3.18782e-09
3.80883e-08
3.30847e-09
3.82677e-08
3.30047e-09
3.84243e-08
3.18714e-09
3.85527e-08
2.99264e-09
3.86508e-08
2.73882e-09
3.87189e-08
2.44563e-09
3.87581e-08
2.13065e-09
3.87706e-08
1.80933e-09
3.87592e-08
1.49591e-09
3.87278e-08
1.20376e-09
3.86815e-08
9.44271e-10
3.86259e-08
7.25141e-10
3.85665e-08
5.49189e-10
3.85075e-08
4.14417e-10
3.84521e-08
3.15478e-10
3.84018e-08
2.45553e-10
3.83574e-08
1.97743e-10
3.83188e-08
1.65879e-10
3.82857e-08
1.44892e-10
3.82573e-08
1.30896e-10
3.82329e-08
1.21089e-10
3.82119e-08
1.1357e-10
3.81937e-08
1.07141e-10
3.81776e-08
1.01113e-10
3.81634e-08
9.51473e-11
3.81508e-08
8.91315e-11
3.81394e-08
8.30816e-11
3.8129e-08
7.70735e-11
3.81197e-08
7.11972e-11
3.81111e-08
6.5532e-11
3.81034e-08
6.01367e-11
3.80963e-08
5.50477e-11
3.80899e-08
5.02834e-11
3.80841e-08
4.58485e-11
3.80788e-08
4.17379e-11
3.80739e-08
3.7941e-11
3.80696e-08
3.44431e-11
3.80656e-08
3.1228e-11
3.8062e-08
2.82783e-11
3.80588e-08
2.55768e-11
3.80559e-08
2.31064e-11
3.80532e-08
2.08506e-11
3.80508e-08
1.87935e-11
3.80487e-08
1.69201e-11
3.80468e-08
1.52162e-11
3.8045e-08
1.36684e-11
3.80435e-08
1.22642e-11
3.80421e-08
1.09918e-11
3.80408e-08
9.84038e-12
3.80397e-08
8.79965e-12
3.80387e-08
7.86018e-12
3.80378e-08
7.0132e-12
3.8037e-08
6.25058e-12
3.80363e-08
5.56482e-12
3.80357e-08
4.949e-12
3.80352e-08
4.39674e-12
3.80347e-08
3.9022e-12
3.80342e-08
3.46001e-12
3.80338e-08
3.06525e-12
3.80335e-08
2.71343e-12
3.80332e-08
2.40045e-12
3.80329e-08
2.1226e-12
3.80327e-08
1.8765e-12
3.80325e-08
1.65912e-12
3.80323e-08
1.46773e-12
3.80321e-08
1.29989e-12
3.8032e-08
1.15349e-12
3.80318e-08
1.02669e-12
3.80317e-08
9.17975e-13
3.80316e-08
8.262e-13
3.80315e-08
7.50549e-13
3.80315e-08
6.90367e-13
6.40614e-13
3.88493e-08
2.79019e-09
-3.87068e-08
3.90205e-08
3.01659e-09
3.91985e-08
3.13057e-09
3.93666e-08
3.13235e-09
3.95152e-08
3.03855e-09
3.96388e-08
2.86904e-09
3.97348e-08
2.64284e-09
3.98027e-08
2.37773e-09
3.98434e-08
2.08994e-09
3.98586e-08
1.79406e-09
3.98511e-08
1.50347e-09
3.98243e-08
1.2305e-09
3.9783e-08
9.85563e-10
3.97323e-08
7.75845e-10
3.96772e-08
6.04347e-10
3.96217e-08
4.69931e-10
3.95687e-08
3.68431e-10
3.95201e-08
2.94176e-10
3.94766e-08
2.41205e-10
3.94385e-08
2.04029e-10
3.94054e-08
1.78013e-10
3.93767e-08
1.59505e-10
3.9352e-08
1.45796e-10
3.93306e-08
1.34987e-10
3.93119e-08
1.25825e-10
3.92955e-08
1.17543e-10
3.92809e-08
1.09715e-10
3.92679e-08
1.0215e-10
3.92562e-08
9.47911e-11
3.92456e-08
8.76579e-11
3.9236e-08
8.07967e-11
3.92273e-08
7.42557e-11
3.92194e-08
6.80719e-11
3.92122e-08
6.22674e-11
3.92056e-08
5.68504e-11
3.91996e-08
5.18184e-11
3.91942e-08
4.71612e-11
3.91893e-08
4.28634e-11
3.91848e-08
3.89068e-11
3.91808e-08
3.52719e-11
3.91771e-08
3.19384e-11
3.91738e-08
2.88862e-11
3.91708e-08
2.60956e-11
3.91681e-08
2.35477e-11
3.91657e-08
2.12246e-11
3.91635e-08
1.9109e-11
3.91615e-08
1.7185e-11
3.91597e-08
1.54373e-11
3.91582e-08
1.38518e-11
3.91567e-08
1.24151e-11
3.91555e-08
1.11149e-11
3.91543e-08
9.93974e-12
3.91533e-08
8.87886e-12
3.91524e-08
7.92236e-12
3.91516e-08
7.06109e-12
3.91509e-08
6.28657e-12
3.91502e-08
5.59099e-12
3.91497e-08
4.96717e-12
3.91491e-08
4.40849e-12
3.91487e-08
3.90891e-12
3.91483e-08
3.46286e-12
3.91479e-08
3.06528e-12
3.91476e-08
2.71155e-12
3.91474e-08
2.39746e-12
3.91471e-08
2.11922e-12
3.91469e-08
1.87337e-12
3.91467e-08
1.65685e-12
3.91465e-08
1.46689e-12
3.91464e-08
1.30108e-12
3.91463e-08
1.15732e-12
3.91462e-08
1.03385e-12
3.9146e-08
9.29282e-13
3.9146e-08
8.42486e-13
3.91459e-08
7.72426e-13
7.14204e-13
4.00219e-08
2.65961e-09
-3.98913e-08
4.01783e-08
2.86017e-09
4.03425e-08
2.9664e-09
4.04996e-08
2.97521e-09
4.06402e-08
2.89792e-09
4.07587e-08
2.75055e-09
4.08521e-08
2.54944e-09
4.09195e-08
2.31036e-09
4.09613e-08
2.04812e-09
4.09791e-08
1.77632e-09
4.09751e-08
1.50744e-09
4.09528e-08
1.25284e-09
4.09163e-08
1.02207e-09
4.08702e-08
8.21847e-10
4.08193e-08
6.55308e-10
4.07672e-08
5.2201e-10
4.07168e-08
4.18796e-10
4.067e-08
3.41013e-10
4.06276e-08
2.83568e-10
4.05901e-08
2.41617e-10
4.05571e-08
2.10961e-10
4.05284e-08
1.88204e-10
4.05035e-08
1.70755e-10
4.04817e-08
1.56741e-10
4.04626e-08
1.44879e-10
4.04458e-08
1.3434e-10
4.04309e-08
1.2463e-10
4.04176e-08
1.15484e-10
4.04056e-08
1.06782e-10
4.03948e-08
9.84912e-11
4.0385e-08
9.06156e-11
4.0376e-08
8.31731e-11
4.03679e-08
7.6179e-11
4.03606e-08
6.96403e-11
4.03539e-08
6.35546e-11
4.03478e-08
5.79116e-11
4.03422e-08
5.26954e-11
4.03372e-08
4.78859e-11
4.03326e-08
4.3461e-11
4.03285e-08
3.93975e-11
4.03248e-08
3.56722e-11
4.03214e-08
3.2262e-11
4.03184e-08
2.91447e-11
4.03156e-08
2.62989e-11
4.03131e-08
2.37044e-11
4.03109e-08
2.13418e-11
4.03089e-08
1.91933e-11
4.03071e-08
1.72417e-11
4.03055e-08
1.54711e-11
4.0304e-08
1.38669e-11
4.03027e-08
1.2415e-11
4.03016e-08
1.11026e-11
4.03005e-08
9.91788e-12
4.02996e-08
8.84969e-12
4.02988e-08
7.88779e-12
4.0298e-08
7.02274e-12
4.02974e-08
6.24582e-12
4.02968e-08
5.549e-12
4.02963e-08
4.9249e-12
4.02958e-08
4.36677e-12
4.02954e-08
3.86842e-12
4.0295e-08
3.42417e-12
4.02947e-08
3.02886e-12
4.02944e-08
2.67782e-12
4.02942e-08
2.36677e-12
4.0294e-08
2.0919e-12
4.02938e-08
1.84974e-12
4.02936e-08
1.63721e-12
4.02935e-08
1.4516e-12
4.02933e-08
1.29053e-12
4.02932e-08
1.15201e-12
4.02931e-08
1.03436e-12
4.0293e-08
9.36206e-13
4.02929e-08
8.56171e-13
7.89587e-13
4.12265e-08
2.5395e-09
-4.11064e-08
4.13697e-08
2.71701e-09
4.15211e-08
2.81502e-09
4.16676e-08
2.82865e-09
4.18003e-08
2.76522e-09
4.19135e-08
2.63735e-09
4.2004e-08
2.45894e-09
4.20705e-08
2.24387e-09
4.21131e-08
2.00552e-09
4.2133e-08
1.7564e-09
4.21324e-08
1.5081e-09
4.21141e-08
1.27105e-09
4.20822e-08
1.05404e-09
4.20407e-08
8.63343e-10
4.19938e-08
7.02176e-10
4.19452e-08
5.70666e-10
4.18974e-08
4.66509e-10
4.18525e-08
3.85954e-10
4.18114e-08
3.24693e-10
4.17745e-08
2.785e-10
4.17418e-08
2.43605e-10
4.17132e-08
2.16878e-10
4.16881e-08
1.95869e-10
4.1666e-08
1.78754e-10
4.16467e-08
1.64241e-10
4.16296e-08
1.51459e-10
4.16143e-08
1.39856e-10
4.16007e-08
1.29106e-10
4.15885e-08
1.19034e-10
4.15774e-08
1.09557e-10
4.15674e-08
1.0064e-10
4.15583e-08
9.22728e-11
4.155e-08
8.44481e-11
4.15425e-08
7.71577e-11
4.15357e-08
7.03881e-11
4.15294e-08
6.4121e-11
4.15238e-08
5.83342e-11
4.15187e-08
5.30028e-11
4.15141e-08
4.81003e-11
4.15098e-08
4.36001e-11
4.1506e-08
3.94755e-11
4.15026e-08
3.57005e-11
4.14995e-08
3.22504e-11
4.14967e-08
2.91011e-11
4.14942e-08
2.62301e-11
4.14919e-08
2.36159e-11
4.14899e-08
2.12387e-11
4.1488e-08
1.90793e-11
4.14864e-08
1.71204e-11
4.14849e-08
1.53454e-11
4.14836e-08
1.3739e-11
4.14824e-08
1.2287e-11
4.14813e-08
1.09761e-11
4.14804e-08
9.79413e-12
4.14795e-08
8.72975e-12
4.14788e-08
7.7725e-12
4.14781e-08
6.91272e-12
4.14775e-08
6.14156e-12
4.1477e-08
5.45084e-12
4.14765e-08
4.83309e-12
4.14761e-08
4.28145e-12
4.14758e-08
3.78967e-12
4.14754e-08
3.35203e-12
4.14751e-08
2.96334e-12
4.14749e-08
2.6189e-12
4.14747e-08
2.31445e-12
4.14745e-08
2.04618e-12
4.14743e-08
1.81066e-12
4.14741e-08
1.60487e-12
4.1474e-08
1.42617e-12
4.14739e-08
1.2723e-12
4.14738e-08
1.14133e-12
4.14737e-08
1.03161e-12
4.14736e-08
9.4151e-13
8.66615e-13
4.24642e-08
2.42871e-09
-4.23534e-08
4.25955e-08
2.58576e-09
4.2735e-08
2.67548e-09
4.28714e-08
2.69222e-09
4.29963e-08
2.64033e-09
4.31041e-08
2.52957e-09
4.31914e-08
2.37162e-09
4.32567e-08
2.17858e-09
4.32998e-08
1.96243e-09
4.33216e-08
1.73461e-09
4.33239e-08
1.50575e-09
4.33096e-08
1.28544e-09
4.32819e-08
1.08174e-09
4.32447e-08
9.00537e-10
4.32018e-08
7.45073e-10
4.31565e-08
6.15931e-10
4.31115e-08
5.1153e-10
4.30685e-08
4.28904e-10
4.30288e-08
3.64461e-10
4.29927e-08
3.14548e-10
4.29605e-08
2.75817e-10
4.2932e-08
2.45412e-10
4.29068e-08
2.21039e-10
4.28846e-08
2.00944e-10
4.2865e-08
1.83845e-10
4.28476e-08
1.68845e-10
4.28321e-08
1.55351e-10
4.28182e-08
1.42984e-10
4.28058e-08
1.31521e-10
4.27945e-08
1.20834e-10
4.27843e-08
1.10854e-10
4.2775e-08
1.01541e-10
4.27666e-08
9.28673e-11
4.27589e-08
8.48091e-11
4.2752e-08
7.73417e-11
4.27457e-08
7.04384e-11
4.27399e-08
6.40703e-11
4.27347e-08
5.82073e-11
4.273e-08
5.28187e-11
4.27257e-08
4.78739e-11
4.27219e-08
4.33431e-11
4.27184e-08
3.91972e-11
4.27152e-08
3.54085e-11
4.27124e-08
3.19505e-11
4.27098e-08
2.87983e-11
4.27075e-08
2.59283e-11
4.27054e-08
2.33184e-11
4.27035e-08
2.09479e-11
4.27018e-08
1.87974e-11
4.27003e-08
1.68488e-11
4.2699e-08
1.50853e-11
4.26978e-08
1.34912e-11
4.26967e-08
1.20521e-11
4.26958e-08
1.07544e-11
4.26949e-08
9.58584e-12
4.26941e-08
8.53484e-12
4.26935e-08
7.59083e-12
4.26929e-08
6.74407e-12
4.26923e-08
5.98561e-12
4.26918e-08
5.30723e-12
4.26914e-08
4.70142e-12
4.26911e-08
4.16131e-12
4.26907e-08
3.68062e-12
4.26904e-08
3.25366e-12
4.26902e-08
2.87525e-12
4.269e-08
2.54073e-12
4.26898e-08
2.2459e-12
4.26896e-08
1.987e-12
4.26894e-08
1.7607e-12
4.26893e-08
1.56406e-12
4.26892e-08
1.39457e-12
4.26891e-08
1.25005e-12
4.2689e-08
1.12859e-12
4.26889e-08
1.02833e-12
9.45134e-13
4.37361e-08
2.32628e-09
-4.36337e-08
4.38566e-08
2.46526e-09
4.39852e-08
2.5469e-09
4.4112e-08
2.56542e-09
4.42292e-08
2.52309e-09
4.43315e-08
2.42728e-09
4.44154e-08
2.28767e-09
4.44793e-08
2.11476e-09
4.45225e-08
1.91917e-09
4.45459e-08
1.71125e-09
4.45509e-08
1.5007e-09
4.45401e-08
1.2963e-09
4.45164e-08
1.10545e-09
4.44833e-08
9.33643e-10
4.44442e-08
7.84134e-10
4.44023e-08
6.57859e-10
4.436e-08
5.53837e-10
4.43191e-08
4.69788e-10