/*--------------------------------*- C++ -*----------------------------------*\
| =========                 |                                                 |
| \\      /  F ield         | OpenFOAM: The Open Source CFD Toolbox           |
|  \\    /   O peration     | Version:  2.3.0                                 |
|   \\  /    A nd           | Web:      www.OpenFOAM.org                      |
|    \\/     M anipulation  |                                                 |
\*---------------------------------------------------------------------------*/
FoamFile
{
    version     2.0;
    format      ascii;
    class       volVectorField;
    location    "0.75";
    object      U;
}
// * * * * * * * * * * * * * * * * * * * * * * * * * * * * * * * * * * * * * //

dimensions      [0 1 -1 0 0 0 0];

internalField   nonuniform List<vector> 
868
(
(0.18854 0.00228602 0)
(0.177354 0.00334554 0)
(0.166741 0.00374347 0)
(0.155971 0.00370674 0)
(0.144886 0.00353423 0)
(0.133565 0.003374 0)
(0.122183 0.00323553 0)
(0.110895 0.00307484 0)
(0.0998747 0.00285817 0)
(0.0892962 0.00256572 0)
(0.0794171 0.00220942 0)
(0.0704653 0.00178987 0)
(0.0626431 0.00131983 0)
(0.0561075 0.000843609 0)
(0.0508812 0.000423034 0)
(0.0468622 0.000105128 0)
(0.0438398 -9.82615e-05 0)
(0.041603 -0.000206426 0)
(0.0399491 -0.00024862 0)
(0.0387039 -0.000243143 0)
(0.037732 -0.000213509 0)
(0.0369316 -0.000173199 0)
(0.03622 -0.000128929 0)
(0.0355506 -8.90907e-05 0)
(0.0348917 -5.43677e-05 0)
(0.0342333 -2.6897e-05 0)
(0.0335732 -6.80455e-06 0)
(0.0329116 8.27716e-06 0)
(0.0322613 1.79888e-05 0)
(0.0316162 2.38047e-05 0)
(0.030999 2.77638e-05 0)
(0.0303902 2.88606e-05 0)
(0.0298227 2.94875e-05 0)
(0.0292599 2.91494e-05 0)
(0.0287513 2.75811e-05 0)
(0.0282354 2.70915e-05 0)
(0.0277879 2.55106e-05 0)
(0.027313 2.40981e-05 0)
(0.0269234 2.33328e-05 0)
(0.026479 2.21154e-05 0)
(0.0261469 2.04963e-05 0)
(0.0257219 2.10128e-05 0)
(0.0254439 1.8508e-05 0)
(0.0250291 1.87024e-05 0)
(0.0248066 1.86006e-05 0)
(0.0243799 1.77748e-05 0)
(0.0242191 1.64772e-05 0)
(0.023765 1.88629e-05 0)
(0.0236713 1.73123e-05 0)
(0.0231436 2.17429e-05 0)
(0.195815 0.00407938 0)
(0.195245 0.00576729 0)
(0.194503 0.0066326 0)
(0.193413 0.0068526 0)
(0.191752 0.006827 0)
(0.189416 0.00678805 0)
(0.186434 0.00677876 0)
(0.182859 0.00674878 0)
(0.17878 0.00664653 0)
(0.174257 0.00643425 0)
(0.169404 0.00609918 0)
(0.164315 0.00563356 0)
(0.15909 0.0050488 0)
(0.153871 0.00437153 0)
(0.148744 0.0036641 0)
(0.143805 0.00298637 0)
(0.139083 0.0023883 0)
(0.13461 0.00189365 0)
(0.130409 0.00150064 0)
(0.12646 0.00119828 0)
(0.122781 0.000975728 0)
(0.119341 0.000817403 0)
(0.11613 0.000714225 0)
(0.113114 0.000640549 0)
(0.110278 0.000590837 0)
(0.107592 0.000552406 0)
(0.105069 0.000518639 0)
(0.102647 0.000490292 0)
(0.100393 0.000462791 0)
(0.0982004 0.000434027 0)
(0.0961807 0.000410117 0)
(0.0941941 0.000382047 0)
(0.0923899 0.000358228 0)
(0.0905812 0.000334093 0)
(0.0889874 0.000310525 0)
(0.0873241 0.000289732 0)
(0.0859322 0.000270186 0)
(0.0843905 0.000250435 0)
(0.0831815 0.000237322 0)
(0.0817376 0.000218813 0)
(0.080709 0.000205371 0)
(0.0793215 0.000195647 0)
(0.0784862 0.000181815 0)
(0.0771191 0.000169479 0)
(0.076471 0.000167376 0)
(0.0751004 0.00015378 0)
(0.0746498 0.000147663 0)
(0.0732112 0.00014552 0)
(0.0729963 0.000139465 0)
(0.0714347 0.000144755 0)
(0.1963 0.00382573 0)
(0.196258 0.00493645 0)
(0.196464 0.00582138 0)
(0.196873 0.00630874 0)
(0.197295 0.00654236 0)
(0.197561 0.00669807 0)
(0.197611 0.00685586 0)
(0.197418 0.00700359 0)
(0.197006 0.00709442 0)
(0.196356 0.00708243 0)
(0.19547 0.00693464 0)
(0.194332 0.00663843 0)
(0.192935 0.00620968 0)
(0.191292 0.00566506 0)
(0.189432 0.00506703 0)
(0.18738 0.00446611 0)
(0.185204 0.00391825 0)
(0.182897 0.00344882 0)
(0.180572 0.00306726 0)
(0.178169 0.00276095 0)
(0.175822 0.00252105 0)
(0.17344 0.0023305 0)
(0.17113 0.00218567 0)
(0.168785 0.00205818 0)
(0.166519 0.00195371 0)
(0.164191 0.00185321 0)
(0.161984 0.00175999 0)
(0.159661 0.00166768 0)
(0.157519 0.00158204 0)
(0.155219 0.00149081 0)
(0.153142 0.00141188 0)
(0.150881 0.00132453 0)
(0.148894 0.00125056 0)
(0.146663 0.00116995 0)
(0.144811 0.00110086 0)
(0.142597 0.0010274 0)
(0.140901 0.000968492 0)
(0.138723 0.000898973 0)
(0.137178 0.00085224 0)
(0.135036 0.000789512 0)
(0.133685 0.000747315 0)
(0.131526 0.00069456 0)
(0.130421 0.000658798 0)
(0.128237 0.000608497 0)
(0.127352 0.000588052 0)
(0.125149 0.000538884 0)
(0.124531 0.000521768 0)
(0.122213 0.000488351 0)
(0.121916 0.000472509 0)
(0.119461 0.00045175 0)
(0.196824 0.0036915 0)
(0.196772 0.00451735 0)
(0.196917 0.00530008 0)
(0.197282 0.00587842 0)
(0.197829 0.00624011 0)
(0.198391 0.00646668 0)
(0.198936 0.00664263 0)
(0.199386 0.00679429 0)
(0.199812 0.00690209 0)
(0.200148 0.00692997 0)
(0.200451 0.00684464 0)
(0.20062 0.0066305 0)
(0.200704 0.0063048 0)
(0.200579 0.00586803 0)
(0.200343 0.00538434 0)
(0.199859 0.00487732 0)
(0.199302 0.00440731 0)
(0.198505 0.00399109 0)
(0.197722 0.00364805 0)
(0.196734 0.00337258 0)
(0.195844 0.00315731 0)
(0.194772 0.00297738 0)
(0.193846 0.00284465 0)
(0.192722 0.0027157 0)
(0.191777 0.00262202 0)
(0.190581 0.00251988 0)
(0.189622 0.00243783 0)
(0.188336 0.00234703 0)
(0.187356 0.00226998 0)
(0.185983 0.00217814 0)
(0.184975 0.00210792 0)
(0.183516 0.00201247 0)
(0.182504 0.00194709 0)
(0.18094 0.00185186 0)
(0.179958 0.00178722 0)
(0.178288 0.0016975 0)
(0.177343 0.00163512 0)
(0.175588 0.00154794 0)
(0.174694 0.00149851 0)
(0.172843 0.00140565 0)
(0.172045 0.00136455 0)
(0.170072 0.00128381 0)
(0.169399 0.00123582 0)
(0.167326 0.00116047 0)
(0.166765 0.00113435 0)
(0.164595 0.00104671 0)
(0.164206 0.00102935 0)
(0.161882 0.000964129 0)
(0.161697 0.000941839 0)
(0.159233 0.000885916 0)
(0.197295 0.00364697 0)
(0.197242 0.00432425 0)
(0.197353 0.00500681 0)
(0.1976 0.0055844 0)
(0.198065 0.00600655 0)
(0.19856 0.00627421 0)
(0.199132 0.00645469 0)
(0.199611 0.00658153 0)
(0.200138 0.00666399 0)
(0.200561 0.00667899 0)
(0.20105 0.00660795 0)
(0.201406 0.00642427 0)
(0.20181 0.00615613 0)
(0.202006 0.00578148 0)
(0.202232 0.00537391 0)
(0.202192 0.00492942 0)
(0.202199 0.00451777 0)
(0.201923 0.0041388 0)
(0.201764 0.00382785 0)
(0.201334 0.00356721 0)
(0.201107 0.00336977 0)
(0.200615 0.00319418 0)
(0.200385 0.00307448 0)
(0.19987 0.002945 0)
(0.199658 0.00286597 0)
(0.199108 0.00276572 0)
(0.19891 0.00269805 0)
(0.198302 0.00261168 0)
(0.19811 0.00255157 0)
(0.197433 0.00246317 0)
(0.197227 0.00241076 0)
(0.196478 0.00231668 0)
(0.196266 0.00227023 0)
(0.195423 0.00217503 0)
(0.195215 0.00212559 0)
(0.194278 0.00203877 0)
(0.19407 0.00198734 0)
(0.193042 0.00189853 0)
(0.192845 0.00186486 0)
(0.191719 0.00176532 0)
(0.191542 0.00173474 0)
(0.190312 0.0016538 0)
(0.190162 0.00160789 0)
(0.188836 0.00153058 0)
(0.188708 0.00151355 0)
(0.187289 0.001413 0)
(0.187202 0.00140189 0)
(0.185673 0.00133222 0)
(0.185639 0.00130908 0)
(0.184018 0.00124489 0)
(0.197712 0.00361979 0)
(0.19766 0.00419119 0)
(0.197757 0.00478135 0)
(0.197922 0.00530539 0)
(0.198305 0.00573039 0)
(0.198703 0.00601574 0)
(0.199236 0.00620638 0)
(0.199668 0.00631937 0)
(0.200184 0.00638491 0)
(0.200564 0.00638451 0)
(0.201039 0.00632444 0)
(0.201362 0.0061643 0)
(0.201782 0.00594534 0)
(0.201991 0.00562417 0)
(0.20229 0.00528106 0)
(0.202331 0.00488971 0)
(0.202467 0.00452777 0)
(0.202329 0.0041785 0)
(0.202336 0.00389266 0)
(0.202076 0.00363985 0)
(0.202032 0.00345184 0)
(0.201733 0.00327548 0)
(0.201698 0.00316104 0)
(0.201402 0.0030272 0)
(0.2014 0.00295186 0)
(0.201108 0.00284894 0)
(0.201142 0.00278656 0)
(0.200831 0.00269729 0)
(0.200892 0.0026434 0)
(0.20056 0.00255664 0)
(0.200619 0.0025105 0)
(0.200262 0.00241624 0)
(0.200328 0.002379 0)
(0.199927 0.00228759 0)
(0.199996 0.00224204 0)
(0.199552 0.00216134 0)
(0.199624 0.00211806 0)
(0.19913 0.0020303 0)
(0.199203 0.00200371 0)
(0.198672 0.00191179 0)
(0.198729 0.00188192 0)
(0.198152 0.00181147 0)
(0.198214 0.0017686 0)
(0.197577 0.00169633 0)
(0.197627 0.00168353 0)
(0.196955 0.00159183 0)
(0.196984 0.00158196 0)
(0.196255 0.00152068 0)
(0.196279 0.00149609 0)
(0.195508 0.00144159 0)
(0.198081 0.00359127 0)
(0.198037 0.00407775 0)
(0.198117 0.00458479 0)
(0.198232 0.00504567 0)
(0.198538 0.00544595 0)
(0.198857 0.00572986 0)
(0.199322 0.00592858 0)
(0.199711 0.00604044 0)
(0.200183 0.00610226 0)
(0.20053 0.00609578 0)
(0.200955 0.00604725 0)
(0.201244 0.00590968 0)
(0.201614 0.00573458 0)
(0.201811 0.00546429 0)
(0.202084 0.00517994 0)
(0.202153 0.00483966 0)
(0.202293 0.00452242 0)
(0.202219 0.00420337 0)
(0.202246 0.00393822 0)
(0.20207 0.00369333 0)
(0.202042 0.00350959 0)
(0.201837 0.00333196 0)
(0.201809 0.00321618 0)
(0.201614 0.00307852 0)
(0.201616 0.00299943 0)
(0.201437 0.00289181 0)
(0.201477 0.00282767 0)
(0.2013 0.00273496 0)
(0.201362 0.00267689 0)
(0.201195 0.00259129 0)
(0.201257 0.00254356 0)
(0.20109 0.00244867 0)
(0.201163 0.0024099 0)
(0.20098 0.00232378 0)
(0.20106 0.00227577 0)
(0.200862 0.00219673 0)
(0.200948 0.00215622 0)
(0.200738 0.00207244 0)
(0.200814 0.00204085 0)
(0.200608 0.00196067 0)
(0.200672 0.0019263 0)
(0.200442 0.00186039 0)
(0.200517 0.00182155 0)
(0.200264 0.00175668 0)
(0.200314 0.00173826 0)
(0.200061 0.00165858 0)
(0.200098 0.0016486 0)
(0.199808 0.00159575 0)
(0.199831 0.0015693 0)
(0.199534 0.00152533 0)
(0.19841 0.00355737 0)
(0.19838 0.00397373 0)
(0.198437 0.00440848 0)
(0.198523 0.00480963 0)
(0.198759 0.00517688 0)
(0.199018 0.00544763 0)
(0.199405 0.0056487 0)
(0.199752 0.00576603 0)
(0.200166 0.00583429 0)
(0.20049 0.00583132 0)
(0.200858 0.00579681 0)
(0.201125 0.00568034 0)
(0.201437 0.0055411 0)
(0.201624 0.00531736 0)
(0.201855 0.00508252 0)
(0.201941 0.00479088 0)
(0.202062 0.00451322 0)
(0.202036 0.00422496 0)
(0.202055 0.00397993 0)
(0.201942 0.0037444 0)
(0.201902 0.00356336 0)
(0.201761 0.00338588 0)
(0.201714 0.00326575 0)
(0.201577 0.00312613 0)
(0.201553 0.00304075 0)
(0.201431 0.00292889 0)
(0.201438 0.00285969 0)
(0.201331 0.00276451 0)
(0.201349 0.00269992 0)
(0.201262 0.00261424 0)
(0.201283 0.00256181 0)
(0.201199 0.00246768 0)
(0.201232 0.00242389 0)
(0.201141 0.00234012 0)
(0.201185 0.00229019 0)
(0.201088 0.00221066 0)
(0.201132 0.00216886 0)
(0.201045 0.00209011 0)
(0.201074 0.00205033 0)
(0.200996 0.00197808 0)
(0.20103 0.00194205 0)
(0.200931 0.00187469 0)
(0.200976 0.00183748 0)
(0.200879 0.00177921 0)
(0.200895 0.00175578 0)
(0.2008 0.0016839 0)
(0.200829 0.0016718 0)
(0.200702 0.00162324 0)
(0.200714 0.0015985 0)
(0.200597 0.00155994 0)
(0.198707 0.00351917 0)
(0.198689 0.00387916 0)
(0.198725 0.00425354 0)
(0.198789 0.00460134 0)
(0.198967 0.00493315 0)
(0.199176 0.00518502 0)
(0.199491 0.00538338 0)
(0.199794 0.00550526 0)
(0.200148 0.00558423 0)
(0.200444 0.00558983 0)
(0.200761 0.00557044 0)
(0.201007 0.00547468 0)
(0.201267 0.00536206 0)
(0.201441 0.00517856 0)
(0.201633 0.00498401 0)
(0.201725 0.00473547 0)
(0.201829 0.00449403 0)
(0.201832 0.00423558 0)
(0.201849 0.00401133 0)
(0.201779 0.00378729 0)
(0.201738 0.00360989 0)
(0.201638 0.00343394 0)
(0.201585 0.00330974 0)
(0.201482 0.00316881 0)
(0.201445 0.00307755 0)
(0.201354 0.00296233 0)
(0.201341 0.00288748 0)
(0.201269 0.0027906 0)
(0.201262 0.00272041 0)
(0.201209 0.00263352 0)
(0.201208 0.00257717 0)
(0.201157 0.00248285 0)
(0.201168 0.0024356 0)
(0.201108 0.00235208 0)
(0.201134 0.00230043 0)
(0.201073 0.00222054 0)
(0.201089 0.00217645 0)
(0.201049 0.00210179 0)
(0.201052 0.00205635 0)
(0.201011 0.00198575 0)
(0.201033 0.00195132 0)
(0.200971 0.00188348 0)
(0.200995 0.00184548 0)
(0.200954 0.00178967 0)
(0.200949 0.00176494 0)
(0.200896 0.00169848 0)
(0.200924 0.00168391 0)
(0.200844 0.00163689 0)
(0.200849 0.00161594 0)
(0.200788 0.00157894 0)
(0.198977 0.00347565 0)
(0.198964 0.00379282 0)
(0.198984 0.00411907 0)
(0.199026 0.00442173 0)
(0.199158 0.00471802 0)
(0.199324 0.00494954 0)
(0.199578 0.00514207 0)
(0.199834 0.0052655 0)
(0.200134 0.00535378 0)
(0.200392 0.00537089 0)
(0.200665 0.00536574 0)
(0.200886 0.00528934 0)
(0.201104 0.00519747 0)
(0.201258 0.00504602 0)
(0.20142 0.00488412 0)
(0.201507 0.00467236 0)
(0.201598 0.00446372 0)
(0.201615 0.00423392 0)
(0.201635 0.00403013 0)
(0.201592 0.00381915 0)
(0.201559 0.00364829 0)
(0.201487 0.00347419 0)
(0.201439 0.003348 0)
(0.201357 0.00320591 0)
(0.201321 0.00311003 0)
(0.201246 0.00299306 0)
(0.201228 0.00291243 0)
(0.201172 0.00281473 0)
(0.201157 0.00274091 0)
(0.201118 0.00265088 0)
(0.20111 0.00259279 0)
(0.201073 0.00249773 0)
(0.201078 0.00244709 0)
(0.201028 0.00236351 0)
(0.201049 0.00231054 0)
(0.201002 0.00223033 0)
(0.201006 0.00218379 0)
(0.200985 0.00211027 0)
(0.200978 0.00206369 0)
(0.200946 0.00199337 0)
(0.200967 0.00195744 0)
(0.200916 0.00188934 0)
(0.200928 0.00185505 0)
(0.200909 0.00179858 0)
(0.200896 0.00177084 0)
(0.200852 0.00171101 0)
(0.200884 0.00169411 0)
(0.200815 0.00164625 0)
(0.200818 0.00163086 0)
(0.200775 0.00159419 0)
(0.199242 0.00342418 0)
(0.199229 0.00370325 0)
(0.199233 0.00398934 0)
(0.199252 0.00425374 0)
(0.199345 0.00451594 0)
(0.199468 0.00472729 0)
(0.199668 0.00491256 0)
(0.199874 0.00503608 0)
(0.200119 0.00513213 0)
(0.200335 0.00516037 0)
(0.200561 0.0051696 0)
(0.20075 0.00511156 0)
(0.20093 0.00503777 0)
(0.20106 0.00491349 0)
(0.201194 0.0047782 0)
(0.201268 0.00459959 0)
(0.201348 0.00442118 0)
(0.20137 0.00421873 0)
(0.201395 0.00403693 0)
(0.201371 0.00383949 0)
(0.201349 0.0036794 0)
(0.201298 0.0035083 0)
(0.201261 0.0033819 0)
(0.201196 0.00324046 0)
(0.201167 0.0031395 0)
(0.201103 0.00302276 0)
(0.201088 0.00293746 0)
(0.201042 0.00283751 0)
(0.201027 0.00276294 0)
(0.200997 0.00266941 0)
(0.200988 0.00260891 0)
(0.200958 0.00251428 0)
(0.200963 0.00246044 0)
(0.200919 0.00237563 0)
(0.200938 0.00232162 0)
(0.2009 0.0022409 0)
(0.200898 0.0021935 0)
(0.200887 0.00211853 0)
(0.200878 0.00207089 0)
(0.20085 0.00200252 0)
(0.20087 0.00196498 0)
(0.200827 0.0018946 0)
(0.200832 0.00186461 0)
(0.200824 0.00180766 0)
(0.200808 0.00177674 0)
(0.20077 0.00172451 0)
(0.200804 0.00170434 0)
(0.20074 0.00165401 0)
(0.200743 0.00164512 0)
(0.200711 0.00160888 0)
(0.199504 0.00335871 0)
(0.199488 0.00359778 0)
(0.199479 0.00384518 0)
(0.199476 0.00407667 0)
(0.199533 0.00430945 0)
(0.199614 0.00450291 0)
(0.19976 0.00468285 0)
(0.199914 0.00480613 0)
(0.200098 0.00491038 0)
(0.200264 0.00494941 0)
(0.200438 0.00497232 0)
(0.200586 0.004934 0)
(0.200725 0.00487755 0)
(0.200826 0.00477828 0)
(0.200931 0.0046665 0)
(0.200988 0.00451729 0)
(0.201054 0.00436834 0)
(0.201075 0.00419072 0)
(0.201102 0.00403316 0)
(0.201092 0.00385 0)
(0.201081 0.00370295 0)
(0.20105 0.00353775 0)
(0.201025 0.00341154 0)
(0.200978 0.00327242 0)
(0.200958 0.003167 0)
(0.200908 0.00305018 0)
(0.200897 0.00296243 0)
(0.200861 0.00285949 0)
(0.200849 0.0027845 0)
(0.200828 0.00268871 0)
(0.200819 0.00262621 0)
(0.200797 0.0025314 0)
(0.200803 0.00247511 0)
(0.200767 0.00238863 0)
(0.200783 0.0023349 0)
(0.200755 0.00225196 0)
(0.200751 0.00220362 0)
(0.200745 0.00212932 0)
(0.200737 0.00207907 0)
(0.200716 0.00201062 0)
(0.200732 0.00197329 0)
(0.200696 0.00190122 0)
(0.2007 0.00187577 0)
(0.2007 0.00181658 0)
(0.200681 0.00178203 0)
(0.200651 0.0017389 0)
(0.200686 0.00171473 0)
(0.200627 0.00166217 0)
(0.200631 0.00166037 0)
(0.20061 0.00162345 0)
(0.199743 0.00328236 0)
(0.199724 0.00348085 0)
(0.199707 0.00369292 0)
(0.199691 0.00389676 0)
(0.199716 0.00410905 0)
(0.19976 0.00429142 0)
(0.199851 0.004469 0)
(0.199949 0.00459417 0)
(0.200066 0.00470539 0)
(0.200173 0.0047561 0)
(0.200288 0.00479097 0)
(0.200384 0.00477029 0)
(0.200476 0.00473118 0)
(0.200543 0.00465244 0)
(0.200613 0.00456079 0)
(0.200652 0.00443525 0)
(0.200698 0.00431129 0)
(0.200715 0.00415502 0)
(0.200739 0.00401863 0)
(0.200736 0.00385028 0)
(0.200736 0.00371606 0)
(0.200721 0.00355767 0)
(0.200709 0.00343388 0)
(0.200682 0.00329667 0)
(0.200671 0.00318855 0)
(0.200638 0.00307186 0)
(0.200633 0.00298191 0)
(0.20061 0.00287759 0)
(0.200603 0.00280317 0)
(0.200592 0.00270488 0)
(0.200584 0.00264155 0)
(0.200572 0.00254782 0)
(0.200579 0.00248858 0)
(0.200553 0.00240063 0)
(0.200566 0.0023479 0)
(0.200548 0.00226299 0)
(0.200546 0.00221336 0)
(0.200545 0.00213961 0)
(0.200538 0.00208744 0)
(0.200524 0.00201964 0)
(0.200537 0.00198179 0)
(0.200514 0.00190685 0)
(0.200514 0.0018869 0)
(0.200518 0.00182601 0)
(0.200502 0.00178787 0)
(0.200485 0.00175478 0)
(0.200513 0.00172363 0)
(0.200468 0.00166904 0)
(0.200471 0.00167659 0)
(0.200462 0.00163854 0)
(0.199927 0.00321997 0)
(0.199917 0.00338766 0)
(0.199907 0.00357532 0)
(0.199896 0.00376168 0)
(0.199901 0.00396247 0)
(0.199913 0.00414125 0)
(0.199945 0.00431788 0)
(0.199979 0.00444642 0)
(0.20002 0.00456123 0)
(0.200057 0.0046208 0)
(0.200099 0.00466334 0)
(0.200133 0.00465294 0)
(0.200167 0.00462606 0)
(0.200192 0.00455956 0)
(0.200218 0.0044803 0)
(0.200233 0.00436957 0)
(0.200251 0.00425981 0)
(0.200259 0.0041178 0)
(0.20027 0.00399454 0)
(0.200271 0.00383571 0)
(0.200274 0.00371175 0)
(0.200272 0.00355724 0)
(0.200269 0.00343655 0)
(0.200262 0.00330183 0)
(0.20026 0.00319064 0)
(0.200249 0.0030764 0)
(0.200249 0.00298436 0)
(0.200242 0.00287911 0)
(0.20024 0.00280636 0)
(0.200238 0.00270622 0)
(0.200236 0.0026422 0)
(0.200233 0.0025501 0)
(0.200237 0.00248895 0)
(0.200229 0.00240072 0)
(0.200235 0.00234828 0)
(0.20023 0.0022626 0)
(0.200229 0.00221262 0)
(0.200231 0.00213942 0)
(0.200229 0.00208481 0)
(0.200226 0.00201857 0)
(0.20023 0.00198101 0)
(0.200224 0.00190328 0)
(0.200224 0.00188731 0)
(0.20023 0.00182555 0)
(0.200222 0.00178366 0)
(0.200216 0.00176016 0)
(0.200229 0.00172344 0)
(0.200214 0.00166635 0)
(0.200215 0.00168136 0)
(0.200214 0.00164329 0)
(0.192461 -7.11432e-05 0)
(0.207645 6.94927e-06 0)
(0.192324 4.7946e-05 0)
(0.207184 4.12258e-05 0)
(0.192064 0.000110963 0)
(0.206536 7.05242e-05 0)
(0.191573 0.000177774 0)
(0.205651 0.000127416 0)
(0.190721 0.000303559 0)
(0.204345 0.000307251 0)
(0.18931 0.000717841 0)
(0.202553 0.00111782 0)
(0.196647 -7.73786e-05 0)
(0.20288 -9.27602e-07 0)
(0.197 0.000120188 0)
(0.202006 8.83758e-05 0)
(0.197209 0.000233986 0)
(0.200939 0.00014862 0)
(0.197184 0.000351847 0)
(0.199648 0.000271734 0)
(0.196819 0.000620101 0)
(0.198009 0.000688389 0)
(0.196118 0.00149032 0)
(0.196184 0.00224643 0)
(0.199184 -8.50856e-06 0)
(0.200476 -1.96905e-05 0)
(0.199208 0.000151832 0)
(0.199954 0.000128097 0)
(0.199023 0.00027546 0)
(0.199294 0.000255416 0)
(0.198588 0.000414078 0)
(0.198475 0.000489859 0)
(0.197846 0.000777377 0)
(0.197447 0.00112147 0)
(0.196903 0.00178193 0)
(0.196517 0.00271417 0)
(0.19988 1.48725e-05 0)
(0.199974 1.49843e-05 0)
(0.199712 0.00016198 0)
(0.199638 0.000189649 0)
(0.199356 0.000323173 0)
(0.199133 0.000374662 0)
(0.198813 0.000527339 0)
(0.198468 0.000695289 0)
(0.198071 0.00100234 0)
(0.197654 0.0014296 0)
(0.197272 0.00204754 0)
(0.196979 0.00285495 0)
(0.199996 2.67266e-05 0)
(0.199921 6.46614e-05 0)
(0.199804 0.000175115 0)
(0.199629 0.000253487 0)
(0.199433 0.000380244 0)
(0.199166 0.000494907 0)
(0.198906 0.000659739 0)
(0.198571 0.000891908 0)
(0.198256 0.00121972 0)
(0.197896 0.00166833 0)
(0.197619 0.00224286 0)
(0.197386 0.00293998 0)
(0.200013 3.62388e-05 0)
(0.199917 0.000105711 0)
(0.199835 0.000206573 0)
(0.199643 0.000311427 0)
(0.199478 0.00045161 0)
(0.199212 0.000607226 0)
(0.198993 0.000804631 0)
(0.198684 0.00107097 0)
(0.198439 0.00141778 0)
(0.19813 0.00186012 0)
(0.197938 0.00239577 0)
(0.197751 0.00300615 0)
(0.200017 4.62145e-05 0)
(0.199917 0.000137926 0)
(0.199853 0.00024913 0)
(0.199663 0.000370203 0)
(0.19952 0.000531267 0)
(0.199271 0.00071708 0)
(0.199084 0.000948397 0)
(0.19881 0.00123476 0)
(0.198619 0.00159213 0)
(0.198362 0.00201874 0)
(0.19823 0.00251785 0)
(0.198091 0.00305754 0)
(0.200017 5.72844e-05 0)
(0.199922 0.000165487 0)
(0.199865 0.000296234 0)
(0.199692 0.000434074 0)
(0.199564 0.000616713 0)
(0.199343 0.000825879 0)
(0.199181 0.00108349 0)
(0.19895 0.00138235 0)
(0.198797 0.00174143 0)
(0.198595 0.0021478 0)
(0.1985 0.00261084 0)
(0.198408 0.00309147 0)
(0.200014 6.89733e-05 0)
(0.19993 0.00019267 0)
(0.199877 0.000345463 0)
(0.199727 0.000501926 0)
(0.199612 0.000704685 0)
(0.199425 0.000931616 0)
(0.199284 0.00120705 0)
(0.199097 0.00151197 0)
(0.198974 0.00186734 0)
(0.198822 0.00225081 0)
(0.198752 0.00267842 0)
(0.198699 0.00310801 0)
(0.200012 8.09476e-05 0)
(0.199939 0.000221755 0)
(0.19989 0.000395956 0)
(0.199766 0.000572023 0)
(0.199666 0.00079168 0)
(0.199513 0.00103229 0)
(0.199393 0.00131854 0)
(0.199245 0.00162421 0)
(0.199149 0.00197109 0)
(0.199038 0.00233174 0)
(0.198989 0.00272432 0)
(0.198963 0.00310912 0)
(0.20001 9.40437e-05 0)
(0.199949 0.000255747 0)
(0.199908 0.000451669 0)
(0.199809 0.00064793 0)
(0.199728 0.00088291 0)
(0.199609 0.00113351 0)
(0.199514 0.00142489 0)
(0.1994 0.00172697 0)
(0.199332 0.00206126 0)
(0.199254 0.00239714 0)
(0.199225 0.00275567 0)
(0.199221 0.0030992 0)
(0.200008 0.000108877 0)
(0.19996 0.000297396 0)
(0.19993 0.0005176 0)
(0.199859 0.00073504 0)
(0.199801 0.000983972 0)
(0.199716 0.00124171 0)
(0.19965 0.00153282 0)
(0.19957 0.0018263 0)
(0.199528 0.00214511 0)
(0.199479 0.00245318 0)
(0.199469 0.00277702 0)
(0.19948 0.00307893 0)
(0.200006 0.000124757 0)
(0.199973 0.000343554 0)
(0.199956 0.000589995 0)
(0.199913 0.000828174 0)
(0.199881 0.00108941 0)
(0.199831 0.00135059 0)
(0.199793 0.00163834 0)
(0.199747 0.00191838 0)
(0.199726 0.00221978 0)
(0.199701 0.00249929 0)
(0.199704 0.002789 0)
(0.19972 0.00304897 0)
(0.200003 0.000137144 0)
(0.199989 0.000381635 0)
(0.199985 0.000649915 0)
(0.19997 0.000905059 0)
(0.199961 0.00117619 0)
(0.199945 0.00143855 0)
(0.199934 0.00172219 0)
(0.199919 0.00198951 0)
(0.199914 0.00227567 0)
(0.199907 0.00253148 0)
(0.19991 0.00279505 0)
(0.199918 0.00302236 0)
)
;

boundaryField
{
    top
    {
        type            zeroGradient;
    }
    inlet
    {
        type            fixedValue;
        value           uniform (0.2 0 0);
    }
    outlet
    {
        type            zeroGradient;
    }
    plate
    {
        type            fixedValue;
        value           uniform (0 0 0);
    }
    symmBound
    {
        type            zeroGradient;
    }
    frontAndBack
    {
        type            empty;
    }
}


// ************************************************************************* //
