/*--------------------------------*- C++ -*----------------------------------*\
| =========                 |                                                 |
| \\      /  F ield         | OpenFOAM: The Open Source CFD Toolbox           |
|  \\    /   O peration     | Version:  2.3.0                                 |
|   \\  /    A nd           | Web:      www.OpenFOAM.org                      |
|    \\/     M anipulation  |                                                 |
\*---------------------------------------------------------------------------*/
FoamFile
{
    version     2.0;
    format      ascii;
    class       volScalarField;
    location    "1";
    object      p;
}
// * * * * * * * * * * * * * * * * * * * * * * * * * * * * * * * * * * * * * //

dimensions      [0 2 -2 0 0 0 0];

internalField   nonuniform List<scalar> 
3375
(
0.00251455
0.00218296
0.00157598
0.00101337
0.000550359
0.000159169
-0.000171466
-0.000425258
-0.000583134
-0.000649258
-0.000649082
-0.000613014
-0.000564485
-0.000517394
-0.000478046
-0.000447772
-0.000425294
-0.000408474
-0.000395297
-0.000384237
-0.000374277
-0.000364821
-0.000355559
-0.000346367
-0.000337218
-0.000328134
-0.000319149
-0.000310298
-0.000301606
-0.000293091
-0.00028476
-0.000276619
-0.000268664
-0.000260896
-0.000253308
-0.000245897
-0.000238656
-0.000231586
-0.000224678
-0.000217935
-0.00021135
-0.000204925
-0.000198654
-0.000192541
-0.000186579
-0.000180773
-0.000175113
-0.000169607
-0.000164243
-0.00015903
-0.000153955
-0.000149027
-0.000144231
-0.000139579
-0.000135052
-0.000130665
-0.000126397
-0.000122263
-0.000118241
-0.000114348
-0.000110559
-0.000106895
-0.000103324
-9.98739e-05
-9.65072e-05
-9.32571e-05
-9.00791e-05
-8.70133e-05
-8.40075e-05
-8.11101e-05
-7.82593e-05
-7.55135e-05
-7.27993e-05
-7.01875e-05
-6.75906e-05
-6.50941e-05
-6.25937e-05
-6.01929e-05
-5.77666e-05
-5.54405e-05
-5.30639e-05
-5.07899e-05
-4.84362e-05
-4.61898e-05
-4.38293e-05
-4.15837e-05
-3.91829e-05
-3.69087e-05
-3.44292e-05
-3.20938e-05
-2.94911e-05
-2.70579e-05
-2.42792e-05
-2.17073e-05
-1.86875e-05
-1.59321e-05
-1.25855e-05
-9.60237e-06
-5.78727e-06
-2.5782e-06
0.00208094
0.00190123
0.00146831
0.000980661
0.000544641
0.000174711
-0.000133577
-0.00037026
-0.000523761
-0.000595952
-0.000605739
-0.00057942
-0.000539138
-0.000498462
-0.00046382
-0.00043677
-0.000416392
-0.00040093
-0.000388664
-0.000378258
-0.000368811
-0.000359784
-0.0003509
-0.000342046
-0.000333203
-0.000324395
-0.000315659
-0.000307033
-0.000298542
-0.00029021
-0.000282045
-0.000274055
-0.000266239
-0.000258599
-0.000251127
-0.000243825
-0.000236685
-0.000229708
-0.000222888
-0.000216226
-0.000209717
-0.000203364
-0.00019716
-0.00019111
-0.000185207
-0.000179456
-0.000173849
-0.000168393
-0.000163076
-0.000157907
-0.000152874
-0.000147986
-0.000143228
-0.000138611
-0.000134118
-0.000129764
-0.000125526
-0.000121422
-0.000117427
-0.000113561
-0.000109796
-0.000106157
-0.000102609
-9.91813e-05
-9.58352e-05
-9.26057e-05
-8.94463e-05
-8.63996e-05
-8.34107e-05
-8.05309e-05
-7.76954e-05
-7.4966e-05
-7.22658e-05
-6.96692e-05
-6.70849e-05
-6.46027e-05
-6.21137e-05
-5.97264e-05
-5.73102e-05
-5.49968e-05
-5.26292e-05
-5.03673e-05
-4.80215e-05
-4.57867e-05
-4.34329e-05
-4.11985e-05
-3.88032e-05
-3.654e-05
-3.40646e-05
-3.17401e-05
-2.914e-05
-2.67178e-05
-2.39398e-05
-2.13796e-05
-1.8358e-05
-1.56155e-05
-1.2263e-05
-9.29546e-06
-5.47362e-06
-2.30134e-06
0.00177889
0.00166905
0.00136556
0.000959703
0.000560632
0.000215541
-6.72104e-05
-0.000285216
-0.000435027
-0.000517788
-0.000544767
-0.000534965
-0.000507684
-0.000476568
-0.000448304
-0.000425127
-0.000406949
-0.000392729
-0.000381224
-0.00037137
-0.000362394
-0.000353815
-0.000345367
-0.000336939
-0.000328501
-0.00032007
-0.000311679
-0.000303364
-0.000295152
-0.000287068
-0.000279124
-0.000271331
-0.00026369
-0.000256208
-0.000248878
-0.000241705
-0.000234682
-0.000227813
-0.000221091
-0.000214521
-0.000208095
-0.00020182
-0.000195688
-0.000189707
-0.000183866
-0.000178175
-0.000172623
-0.000167219
-0.00016195
-0.000156828
-0.000151837
-0.000146991
-0.00014227
-0.000137691
-0.000133232
-0.000128911
-0.000124703
-0.000120629
-0.000116661
-0.000112823
-0.000109083
-0.000105468
-0.000101942
-9.85377e-05
-9.52113e-05
-9.2003e-05
-8.88613e-05
-8.58343e-05
-8.28613e-05
-7.99999e-05
-7.71787e-05
-7.44665e-05
-7.17789e-05
-6.91987e-05
-6.66255e-05
-6.41589e-05
-6.16797e-05
-5.93073e-05
-5.68996e-05
-5.46007e-05
-5.22402e-05
-4.99926e-05
-4.76524e-05
-4.5432e-05
-4.30823e-05
-4.08625e-05
-3.84698e-05
-3.62214e-05
-3.3747e-05
-3.14381e-05
-2.8837e-05
-2.64315e-05
-2.36504e-05
-2.11084e-05
-1.8081e-05
-1.53588e-05
-1.19992e-05
-9.05384e-06
-5.25641e-06
-2.1495e-06
0.00157048
0.00148413
0.00126083
0.000931232
0.000578466
0.000261794
1.6963e-06
-0.000199782
-0.000343867
-0.000432814
-0.000473799
-0.000479925
-0.00046644
-0.000445646
-0.00042465
-0.000406448
-0.000391645
-0.000379739
-0.000369878
-0.000361257
-0.000353265
-0.000345518
-0.000337804
-0.000330038
-0.000322197
-0.000314305
-0.000306394
-0.000298507
-0.000290673
-0.000282924
-0.000275277
-0.00026775
-0.000260347
-0.000253079
-0.000245943
-0.000238946
-0.000232085
-0.000225364
-0.000218778
-0.000212334
-0.000206025
-0.000199859
-0.000193827
-0.00018794
-0.000182186
-0.000176577
-0.0001711
-0.000165768
-0.000160566
-0.000155507
-0.000150574
-0.000145783
-0.000141114
-0.000136585
-0.000132171
-0.000127894
-0.000123727
-0.000119693
-0.000115761
-0.000111958
-0.00010825
-0.000104668
-0.00010117
-9.77955e-05
-9.44947e-05
-9.13135e-05
-8.81947e-05
-8.51926e-05
-8.22401e-05
-7.94017e-05
-7.65988e-05
-7.39081e-05
-7.12369e-05
-6.86768e-05
-6.61182e-05
-6.36707e-05
-6.12043e-05
-5.88501e-05
-5.64537e-05
-5.41724e-05
-5.18216e-05
-4.95912e-05
-4.72593e-05
-4.50558e-05
-4.27131e-05
-4.05102e-05
-3.81229e-05
-3.58918e-05
-3.34215e-05
-3.11303e-05
-2.85319e-05
-2.6145e-05
-2.33652e-05
-2.08428e-05
-1.78164e-05
-1.51141e-05
-1.17609e-05
-8.83637e-06
-5.10083e-06
-2.07217e-06
0.00140611
0.00132806
0.0011529
0.000887379
0.000584744
0.000300091
6.13229e-05
-0.000125741
-0.000263233
-0.000354512
-0.000404895
-0.000423522
-0.000421935
-0.000410605
-0.000396585
-0.000383428
-0.000372286
-0.000363065
-0.00035521
-0.000348131
-0.000341378
-0.000334671
-0.000327866
-0.000320913
-0.000313811
-0.00030659
-0.000299288
-0.000291949
-0.000284608
-0.000277302
-0.000270052
-0.000262883
-0.000255802
-0.000248825
-0.000241954
-0.000235199
-0.000228558
-0.00022204
-0.00021564
-0.000209369
-0.00020322
-0.000197202
-0.000191309
-0.00018555
-0.000179917
-0.000174421
-0.000169049
-0.000163816
-0.000158706
-0.000153735
-0.000148884
-0.000144171
-0.000139574
-0.000135114
-0.000130765
-0.00012655
-0.00012244
-0.000118462
-0.000114581
-0.000110829
-0.000107166
-0.000103629
-0.000100173
-9.68389e-05
-9.35747e-05
-9.0431e-05
-8.73451e-05
-8.43771e-05
-8.14543e-05
-7.86472e-05
-7.5871e-05
-7.32093e-05
-7.05619e-05
-6.80288e-05
-6.54917e-05
-6.30694e-05
-6.06224e-05
-5.82919e-05
-5.59129e-05
-5.36542e-05
-5.13192e-05
-4.91103e-05
-4.67927e-05
-4.46101e-05
-4.22802e-05
-4.00978e-05
-3.77223e-05
-3.55114e-05
-3.3052e-05
-3.0781e-05
-2.81932e-05
-2.58264e-05
-2.30579e-05
-2.0555e-05
-1.75432e-05
-1.48583e-05
-1.15328e-05
-8.62847e-06
-4.98636e-06
-2.03793e-06
0.00126663
0.00119312
0.00104852
0.000833186
0.000578789
0.000328196
0.000110697
-6.3323e-05
-0.000194132
-0.000285255
-0.000341423
-0.000369358
-0.000377619
-0.000374738
-0.000367233
-0.000358908
-0.00035134
-0.000344792
-0.000338967
-0.00033347
-0.000327989
-0.00032235
-0.000316473
-0.000310352
-0.000304008
-0.000297483
-0.000290819
-0.000284064
-0.000277255
-0.000270435
-0.000263626
-0.000256858
-0.000250144
-0.000243503
-0.000236938
-0.000230467
-0.000224086
-0.00021781
-0.000211635
-0.000205573
-0.000199618
-0.000193783
-0.000188059
-0.000182461
-0.000176977
-0.000171623
-0.000166384
-0.000161277
-0.000156284
-0.000151426
-0.000146679
-0.000142067
-0.000137564
-0.000133194
-0.000128929
-0.000124795
-0.00012076
-0.000116855
-0.000113042
-0.000109356
-0.000105754
-0.000102278
-9.88759e-05
-9.55968e-05
-9.23824e-05
-8.92884e-05
-8.62476e-05
-8.3325e-05
-8.0443e-05
-7.76776e-05
-7.49384e-05
-7.23151e-05
-6.97014e-05
-6.72038e-05
-6.46975e-05
-6.2308e-05
-5.98892e-05
-5.75895e-05
-5.52364e-05
-5.30065e-05
-5.06956e-05
-4.85141e-05
-4.62189e-05
-4.40623e-05
-4.17538e-05
-3.95963e-05
-3.72416e-05
-3.50546e-05
-3.26161e-05
-3.0368e-05
-2.78023e-05
-2.54571e-05
-2.27141e-05
-2.02303e-05
-1.72517e-05
-1.45825e-05
-1.13099e-05
-8.42764e-06
-4.90198e-06
-2.02479e-06
0.00114496
0.00107564
0.000952696
0.000775885
0.000563774
0.000346728
0.000150946
-1.03123e-05
-0.000134508
-0.000224202
-0.00028368
-0.0003183
-0.000334502
-0.000339024
-0.000337538
-0.000333793
-0.000329649
-0.00032569
-0.000321867
-0.000317957
-0.000313771
-0.000309221
-0.000304289
-0.00029901
-0.000293428
-0.000287602
-0.000281577
-0.000275409
-0.000269136
-0.000262806
-0.000256443
-0.000250084
-0.000243744
-0.000237447
-0.000231199
-0.000225021
-0.000218912
-0.00021289
-0.000206951
-0.000201111
-0.000195364
-0.000189725
-0.000184186
-0.000178764
-0.000173444
-0.000168247
-0.000163156
-0.00015819
-0.000153331
-0.0001486
-0.000143975
-0.000139478
-0.000135084
-0.000130819
-0.000126653
-0.000122615
-0.00011867
-0.000114852
-0.00011112
-0.000107514
-0.000103987
-0.000100583
-9.72495e-05
-9.4037e-05
-9.08847e-05
-8.78518e-05
-8.48676e-05
-8.20012e-05
-7.91711e-05
-7.64574e-05
-7.37658e-05
-7.11901e-05
-6.86203e-05
-6.61668e-05
-6.3701e-05
-6.13526e-05
-5.89714e-05
-5.67099e-05
-5.43921e-05
-5.2198e-05
-4.99205e-05
-4.77724e-05
-4.55094e-05
-4.33843e-05
-4.11073e-05
-3.89794e-05
-3.66565e-05
-3.44973e-05
-3.2092e-05
-2.98695e-05
-2.73404e-05
-2.50181e-05
-2.23179e-05
-1.98535e-05
-1.69292e-05
-1.42763e-05
-1.10822e-05
-8.22605e-06
-4.83139e-06
-2.0043e-06
0.00103783
0.000973028
0.000866909
0.000719716
0.00054274
0.000356637
0.000182592
3.4421e-05
-8.29477e-05
-0.00017045
-0.000231592
-0.00027084
-0.000293225
-0.000304017
-0.000307939
-0.000308452
-0.000307547
-0.000306068
-0.000304193
-0.000301863
-0.00029899
-0.000295559
-0.000291598
-0.000287181
-0.000282374
-0.000277251
-0.00027187
-0.00026629
-0.000260554
-0.000254713
-0.000248798
-0.000242848
-0.000236881
-0.000230929
-0.000224999
-0.000219115
-0.000213279
-0.000207512
-0.000201812
-0.000196196
-0.00019066
-0.000185221
-0.00017987
-0.000174626
-0.000169476
-0.000164441
-0.000159503
-0.000154684
-0.000149964
-0.000145367
-0.000140868
-0.000136494
-0.000132216
-0.000128064
-0.000124004
-0.000120069
-0.000116222
-0.000112499
-0.000108858
-0.00010534
-0.000101896
-9.85726e-05
-9.53153e-05
-9.21776e-05
-8.90958e-05
-8.6132e-05
-8.3213e-05
-8.04107e-05
-7.7641e-05
-7.49866e-05
-7.23511e-05
-6.98305e-05
-6.7313e-05
-6.49107e-05
-6.24939e-05
-6.01931e-05
-5.78583e-05
-5.56412e-05
-5.33676e-05
-5.12149e-05
-4.898e-05
-4.68707e-05
-4.46496e-05
-4.25606e-05
-4.03257e-05
-3.82314e-05
-3.59519e-05
-3.38237e-05
-3.14648e-05
-2.92704e-05
-2.6793e-05
-2.44953e-05
-2.18555e-05
-1.94123e-05
-1.65625e-05
-1.39302e-05
-1.08365e-05
-8.01235e-06
-4.7552e-06
-1.95315e-06
0.00094305
0.000882994
0.000790627
0.000666483
0.000517984
0.000359107
0.000205997
7.12835e-05
-3.87652e-05
-0.000123409
-0.000185044
-0.000227328
-0.000254329
-0.000270211
-0.000278815
-0.000283185
-0.000285291
-0.000286154
-0.00028615
-0.000285367
-0.000283806
-0.000281507
-0.000278536
-0.000274994
-0.000270971
-0.000266558
-0.000261821
-0.00025683
-0.000251632
-0.000246283
-0.000240816
-0.000235277
-0.000229687
-0.000224081
-0.00021847
-0.000212883
-0.000207323
-0.000201814
-0.000196354
-0.000190965
-0.000185641
-0.000180404
-0.000175243
-0.00017018
-0.000165202
-0.00016033
-0.000155547
-0.000150878
-0.000146299
-0.000141839
-0.00013747
-0.000133221
-0.000129062
-0.000125025
-0.000121076
-0.000117247
-0.000113502
-0.000109878
-0.000106331
-0.000102904
-9.95468e-05
-9.63088e-05
-9.31325e-05
-9.00738e-05
-8.70674e-05
-8.4177e-05
-8.13284e-05
-7.85944e-05
-7.58905e-05
-7.32998e-05
-7.07261e-05
-6.82649e-05
-6.58057e-05
-6.34588e-05
-6.10974e-05
-5.88483e-05
-5.65665e-05
-5.43978e-05
-5.21755e-05
-5.0068e-05
-4.78836e-05
-4.58164e-05
-4.36457e-05
-4.1596e-05
-3.94126e-05
-3.73546e-05
-3.51291e-05
-3.30342e-05
-3.07336e-05
-2.85695e-05
-2.6157e-05
-2.38869e-05
-2.13219e-05
-1.89044e-05
-1.61448e-05
-1.3541e-05
-1.05629e-05
-7.77844e-06
-4.65839e-06
-1.86493e-06
0.000858777
0.000803474
0.000722582
0.00061674
0.000491194
0.000355593
0.000221879
0.000100669
-1.48959e-06
-8.2572e-05
-0.000143763
-0.00018785
-0.000218137
-0.000237977
-0.000250478
-0.000258233
-0.000263083
-0.000266131
-0.000267901
-0.000268606
-0.000268328
-0.000267152
-0.000265171
-0.000262508
-0.000259271
-0.000255567
-0.000251475
-0.000247072
-0.000242412
-0.000237555
-0.00023254
-0.000227415
-0.000222205
-0.00021695
-0.000211663
-0.000206377
-0.000201097
-0.00019585
-0.000190635
-0.000185477
-0.000180369
-0.000175338
-0.00017037
-0.000165492
-0.000160688
-0.000155984
-0.000151359
-0.000146842
-0.000142409
-0.000138087
-0.000133851
-0.00012973
-0.000125694
-0.000121774
-0.000117937
-0.000114218
-0.000110577
-0.000107054
-0.000103604
-0.000100271
-9.70041e-05
-9.38532e-05
-9.07612e-05
-8.77836e-05
-8.4856e-05
-8.20412e-05
-7.92665e-05
-7.66029e-05
-7.39686e-05
-7.14437e-05
-6.89358e-05
-6.6536e-05
-6.41395e-05
-6.18499e-05
-5.95487e-05
-5.73532e-05
-5.51295e-05
-5.3011e-05
-5.08456e-05
-4.8785e-05
-4.66571e-05
-4.46338e-05
-4.25202e-05
-4.05115e-05
-3.8387e-05
-3.63671e-05
-3.42037e-05
-3.21443e-05
-2.99107e-05
-2.77799e-05
-2.54416e-05
-2.32033e-05
-2.07228e-05
-1.8338e-05
-1.56782e-05
-1.31134e-05
-1.02582e-05
-7.5228e-06
-4.53495e-06
-1.75039e-06
0.000783394
0.000732688
0.000661499
0.000570495
0.000463569
0.000347581
0.000231294
0.000123186
2.93444e-05
-4.74777e-05
-0.000107398
-0.000152299
-0.00018478
-0.000207564
-0.000223185
-0.000233815
-0.000241105
-0.000246156
-0.000249582
-0.000251695
-0.000252648
-0.000252563
-0.000251555
-0.000249761
-0.000247304
-0.000244304
-0.000240851
-0.000237034
-0.00023291
-0.000228546
-0.000223983
-0.000219274
-0.000214449
-0.000209549
-0.000204592
-0.000199612
-0.000194617
-0.000189637
-0.000184672
-0.000179749
-0.000174864
-0.000170043
-0.000165275
-0.000160585
-0.000155961
-0.000151428
-0.000146967
-0.000142605
-0.000138321
-0.000134142
-0.000130043
-0.000126054
-0.000122144
-0.000118345
-0.000114625
-0.000111018
-0.000107485
-0.000104066
-0.000100716
-9.74792e-05
-9.43064e-05
-9.12448e-05
-8.82406e-05
-8.5346e-05
-8.25007e-05
-7.97632e-05
-7.70659e-05
-7.44744e-05
-7.19133e-05
-6.94556e-05
-6.70172e-05
-6.46801e-05
-6.235e-05
-6.0119e-05
-5.78818e-05
-5.57411e-05
-5.35797e-05
-5.15124e-05
-4.94084e-05
-4.73959e-05
-4.53291e-05
-4.33509e-05
-4.12994e-05
-3.9333e-05
-3.72726e-05
-3.52929e-05
-3.31967e-05
-3.11758e-05
-2.90144e-05
-2.69211e-05
-2.4662e-05
-2.24617e-05
-2.00702e-05
-1.77271e-05
-1.51709e-05
-1.26569e-05
-9.92494e-06
-7.24955e-06
-4.38742e-06
-1.62824e-06
0.000715531
0.000669187
0.0006063
0.000527545
0.000435894
0.000336365
0.000235412
0.000139618
5.42454e-05
-1.77231e-05
-7.56263e-05
-0.000120508
-0.00015429
-0.000179149
-0.000197163
-0.000210147
-0.000219543
-0.000226387
-0.000231329
-0.00023475
-0.000236859
-0.000237812
-0.000237741
-0.000236793
-0.000235099
-0.000232792
-0.00022997
-0.00022673
-0.000223138
-0.000219264
-0.000215153
-0.000210863
-0.000206424
-0.000201883
-0.000197259
-0.000192589
-0.000187884
-0.000183176
-0.000178467
-0.000173785
-0.000169128
-0.000164522
-0.000159959
-0.000155463
-0.000151024
-0.000146667
-0.000142375
-0.000138174
-0.000134045
-0.000130013
-0.000126056
-0.000122202
-0.000118423
-0.00011475
-0.000111151
-0.000107659
-0.00010424
-0.000100927
-9.7683e-05
-9.45451e-05
-9.14705e-05
-8.8501e-05
-8.55888e-05
-8.27796e-05
-8.00207e-05
-7.73628e-05
-7.47469e-05
-7.22295e-05
-6.97454e-05
-6.73567e-05
-6.49917e-05
-6.27189e-05
-6.0459e-05
-5.82881e-05
-5.61187e-05
-5.40343e-05
-5.19389e-05
-4.99244e-05
-4.78853e-05
-4.59224e-05
-4.39205e-05
-4.19893e-05
-4.00033e-05
-3.80818e-05
-3.60886e-05
-3.41522e-05
-3.21263e-05
-3.01481e-05
-2.80613e-05
-2.60112e-05
-2.3833e-05
-2.16784e-05
-1.9377e-05
-1.70855e-05
-1.46327e-05
-1.21812e-05
-9.56862e-06
-6.9648e-06
-4.22288e-06
-1.51393e-06
0.00065406
0.000611812
0.00055611
0.000487616
0.000408645
0.000322949
0.000235322
0.000150812
7.37704e-05
7.06504e-06
-4.81775e-05
-9.23189e-05
-0.000126649
-0.000152849
-0.000172607
-0.000187437
-0.00019858
-0.00020698
-0.000213277
-0.000217886
-0.000221059
-0.000222978
-0.000223792
-0.000223652
-0.000222696
-0.000221061
-0.000218855
-0.000216181
-0.000213112
-0.000209722
-0.000206061
-0.000202187
-0.000198135
-0.000193953
-0.000189665
-0.000185309
-0.000180899
-0.000176466
-0.000172018
-0.000167582
-0.000163158
-0.000158772
-0.000154419
-0.000150122
-0.000145875
-0.000141698
-0.000137581
-0.000133546
-0.000129577
-0.000125697
-0.000121888
-0.000118174
-0.000114532
-0.000110988
-0.000107517
-0.000104144
-0.000100843
-9.76411e-05
-9.45069e-05
-9.14719e-05
-8.85003e-05
-8.56262e-05
-8.28105e-05
-8.00902e-05
-7.7422e-05
-7.48467e-05
-7.23163e-05
-6.98758e-05
-6.74727e-05
-6.51557e-05
-6.28678e-05
-6.0662e-05
-5.84759e-05
-5.63677e-05
-5.42694e-05
-5.22438e-05
-5.02175e-05
-4.82585e-05
-4.62873e-05
-4.43771e-05
-4.24425e-05
-4.05616e-05
-3.86434e-05
-3.67706e-05
-3.48465e-05
-3.29581e-05
-3.10037e-05
-2.90737e-05
-2.70623e-05
-2.50622e-05
-2.29651e-05
-2.08646e-05
-1.86524e-05
-1.64228e-05
-1.4071e-05
-1.16931e-05
-9.19469e-06
-6.67356e-06
-4.04833e-06
-1.41424e-06
0.000598058
0.000559636
0.00051021
0.000450415
0.000382082
0.000308059
0.000231944
0.000157593
8.85115e-05
2.72683e-05
-2.48063e-05
-6.75856e-05
-0.00010182
-0.000128732
-0.000149661
-0.000165861
-0.000178391
-0.000188087
-0.000195555
-0.000201215
-0.000205343
-0.000208143
-0.000209774
-0.000210392
-0.000210136
-0.000209146
-0.000207535
-0.000205411
-0.000202852
-0.000199935
-0.000196716
-0.000193253
-0.000189587
-0.000185764
-0.000181812
-0.000177771
-0.000173658
-0.000169504
-0.000165321
-0.000161134
-0.000156948
-0.000152787
-0.000148649
-0.000144557
-0.000140506
-0.000136516
-0.000132579
-0.000128714
-0.000124911
-0.000121189
-0.000117534
-0.000113965
-0.000110465
-0.000107055
-0.000103716
-0.000100468
-9.72902e-05
-9.4204e-05
-9.11848e-05
-8.82571e-05
-8.53932e-05
-8.26189e-05
-7.99042e-05
-7.72767e-05
-7.47034e-05
-7.22146e-05
-6.97739e-05
-6.7414e-05
-6.50957e-05
-6.28542e-05
-6.06468e-05
-5.85116e-05
-5.64025e-05
-5.43605e-05
-5.23364e-05
-5.03733e-05
-4.84188e-05
-4.65191e-05
-4.46181e-05
-4.27646e-05
-4.08995e-05
-3.90734e-05
-3.72245e-05
-3.54054e-05
-3.35515e-05
-3.17166e-05
-2.98344e-05
-2.79591e-05
-2.60231e-05
-2.40805e-05
-2.20639e-05
-2.00261e-05
-1.79021e-05
-1.57436e-05
-1.34906e-05
-1.11955e-05
-8.80719e-06
-6.37857e-06
-3.86858e-06
-1.32864e-06
0.000546761
0.000511901
0.000467998
0.00041565
0.000356321
0.000292202
0.000226014
0.000160709
9.90683e-05
4.32951e-05
-5.25896e-06
-4.61622e-05
-7.97434e-05
-0.000106823
-0.000128421
-0.000145555
-0.000159119
-0.000169844
-0.000178282
-0.00018484
-0.000189804
-0.000193387
-0.000195757
-0.00019707
-0.000197467
-0.000197085
-0.000196041
-0.000194443
-0.000192376
-0.000189919
-0.000187131
-0.000184072
-0.000180784
-0.000177317
-0.000173701
-0.000169974
-0.000166159
-0.000162287
-0.000158371
-0.000154437
-0.000150493
-0.000146561
-0.000142644
-0.000138761
-0.000134912
-0.000131113
-0.000127362
-0.000123674
-0.000120042
-0.000116483
-0.000112986
-0.000109568
-0.000106216
-0.000102946
-9.97441e-05
-9.66262e-05
-9.35762e-05
-9.06107e-05
-8.77114e-05
-8.48961e-05
-8.21444e-05
-7.94748e-05
-7.68654e-05
-7.43356e-05
-7.18613e-05
-6.94636e-05
-6.71163e-05
-6.48416e-05
-6.26117e-05
-6.04499e-05
-5.83264e-05
-5.62662e-05
-5.42372e-05
-5.22659e-05
-5.03186e-05
-4.84225e-05
-4.65422e-05
-4.47064e-05
-4.28778e-05
-4.10858e-05
-3.92918e-05
-3.75256e-05
-3.57475e-05
-3.39875e-05
-3.2205e-05
-3.04296e-05
-2.86203e-05
-2.68062e-05
-2.49461e-05
-2.30682e-05
-2.11322e-05
-1.91649e-05
-1.71286e-05
-1.50494e-05
-1.2894e-05
-1.06892e-05
-8.40883e-06
-6.0807e-06
-3.68604e-06
-1.25328e-06
0.000499531
0.000467976
0.000428961
0.000383039
0.000331392
0.000275722
0.000218105
0.000160806
0.000106016
5.55724e-05
1.07414e-05
-2.78876e-05
-6.03439e-05
-8.71171e-05
-0.000108941
-0.000126616
-0.000140881
-0.000152366
-0.000161566
-0.00016886
-0.000174528
-0.000178787
-0.000181808
-0.000183745
-0.000184737
-0.000184918
-0.000184405
-0.000183305
-0.000181707
-0.00017969
-0.000177319
-0.000174652
-0.000171735
-0.000168618
-0.000165333
-0.00016192
-0.000158403
-0.000154813
-0.000151166
-0.000147488
-0.000143789
-0.00014009
-0.000136397
-0.000132728
-0.000129085
-0.000125483
-0.000121923
-0.000118416
-0.000114961
-0.000111571
-0.000108238
-0.000104976
-0.000101777
-9.86529e-05
-9.55937e-05
-9.26112e-05
-8.96945e-05
-8.68552e-05
-8.40807e-05
-8.13831e-05
-7.87484e-05
-7.61886e-05
-7.3689e-05
-7.12618e-05
-6.88908e-05
-6.65892e-05
-6.43392e-05
-6.21546e-05
-6.00166e-05
-5.79394e-05
-5.59032e-05
-5.39226e-05
-5.19768e-05
-5.00809e-05
-4.82132e-05
-4.6389e-05
-4.45854e-05
-4.28186e-05
-4.10644e-05
-3.93391e-05
-3.76182e-05
-3.59172e-05
-3.42116e-05
-3.25164e-05
-3.08066e-05
-2.90967e-05
-2.73616e-05
-2.5615e-05
-2.38319e-05
-2.20252e-05
-2.01708e-05
-1.82807e-05
-1.63331e-05
-1.43397e-05
-1.22822e-05
-1.01738e-05
-8.00117e-06
-5.7797e-06
-3.50155e-06
-1.18403e-06
0.000455826
0.000427328
0.000392655
0.000352314
0.000307269
0.000258849
0.000208652
0.000158421
0.000109876
6.45235e-05
2.34898e-05
-1.25811e-05
-4.35271e-05
-6.95842e-05
-9.12422e-05
-0.000109103
-0.000123761
-0.000135749
-0.0001455
-0.00015336
-0.000159595
-0.000164416
-0.000167991
-0.000170473
-0.000171995
-0.000172687
-0.000172661
-0.000172025
-0.000170868
-0.00016927
-0.000167295
-0.000165006
-0.00016245
-0.000159674
-0.000156715
-0.000153611
-0.00015039
-0.000147081
-0.000143704
-0.000140283
-0.000136831
-0.000133369
-0.000129903
-0.000126452
-0.00012302
-0.00011962
-0.000116255
-0.000112936
-0.000109663
-0.000106446
-0.000103283
-0.000100183
-9.71427e-05
-9.41694e-05
-9.12582e-05
-8.84169e-05
-8.56387e-05
-8.29312e-05
-8.02865e-05
-7.77121e-05
-7.51991e-05
-7.27548e-05
-7.03694e-05
-6.80503e-05
-6.57867e-05
-6.35864e-05
-6.14377e-05
-5.93483e-05
-5.7306e-05
-5.53186e-05
-5.3373e-05
-5.14772e-05
-4.96177e-05
-4.78023e-05
-4.60172e-05
-4.42698e-05
-4.25457e-05
-4.08527e-05
-3.91756e-05
-3.75221e-05
-3.58766e-05
-3.42461e-05
-3.26152e-05
-3.09901e-05
-2.93552e-05
-2.77162e-05
-2.60574e-05
-2.43839e-05
-2.26799e-05
-2.09502e-05
-1.91797e-05
-1.73726e-05
-1.55156e-05
-1.36136e-05
-1.16555e-05
-9.64843e-06
-7.58495e-06
-5.47483e-06
-3.31506e-06
-1.11776e-06
0.00041519
0.000389511
0.000358705
0.00032324
0.000283903
0.000241738
0.000197985
0.00015399
0.000111103
7.05442e-05
3.32825e-05
-5.08343e-08
-2.91863e-05
-5.41809e-05
-7.5328e-05
-9.30544e-05
-0.000107822
-0.000120067
-0.000130162
-0.000138417
-0.000145075
-0.000150337
-0.000154366
-0.000157305
-0.000159286
-0.000160428
-0.000160842
-0.000160631
-0.000159881
-0.000158675
-0.000157076
-0.000155147
-0.000152936
-0.000150491
-0.00014785
-0.00014505
-0.00014212
-0.000139091
-0.000135983
-0.000132819
-0.000129616
-0.000126392
-0.000123158
-0.000119928
-0.000116711
-0.000113517
-0.000110352
-0.000107225
-0.000104139
-0.000101102
-9.81139e-05
-9.51821e-05
-9.2305e-05
-8.94889e-05
-8.67309e-05
-8.40367e-05
-8.14022e-05
-7.88324e-05
-7.63226e-05
-7.38772e-05
-7.14907e-05
-6.91674e-05
-6.6901e-05
-6.46954e-05
-6.25439e-05
-6.04502e-05
-5.8407e-05
-5.64182e-05
-5.44755e-05
-5.25829e-05
-5.07318e-05
-4.89258e-05
-4.71562e-05
-4.54263e-05
-4.3727e-05
-4.20614e-05
-4.04199e-05
-3.88058e-05
-3.72089e-05
-3.5632e-05
-3.40648e-05
-3.25098e-05
-3.09564e-05
-2.94064e-05
-2.78493e-05
-2.62863e-05
-2.47067e-05
-2.31114e-05
-2.14895e-05
-1.9842e-05
-1.81583e-05
-1.64393e-05
-1.46758e-05
-1.28698e-05
-1.10139e-05
-9.11219e-06
-7.16028e-06
-5.1653e-06
-3.12612e-06
-1.05239e-06
0.000377239
0.000354155
0.000326807
0.000295623
0.000261248
0.000224508
0.000186367
0.000147875
0.000110091
7.39963e-05
4.04054e-05
9.89845e-06
-1.72097e-05
-4.08597e-05
-6.11968e-05
-7.85022e-05
-9.3117e-05
-0.000105387
-0.000115626
-0.000124102
-0.000131036
-0.000136613
-0.000140986
-0.000144291
-0.000146651
-0.000148178
-0.000148977
-0.000149145
-0.000148767
-0.000147921
-0.000146673
-0.000145082
-0.0001432
-0.000141073
-0.000138739
-0.000136236
-0.000133593
-0.00013084
-0.000127999
-0.000125093
-0.00012214
-0.000119156
-0.000116155
-0.00011315
-0.000110151
-0.000107168
-0.000104207
-0.000101278
-9.83837e-05
-9.55317e-05
-9.27237e-05
-8.99656e-05
-8.72575e-05
-8.46044e-05
-8.20052e-05
-7.94639e-05
-7.69786e-05
-7.45524e-05
-7.21827e-05
-6.98722e-05
-6.76175e-05
-6.54208e-05
-6.32783e-05
-6.11918e-05
-5.9157e-05
-5.71755e-05
-5.52424e-05
-5.33592e-05
-5.15206e-05
-4.9728e-05
-4.79754e-05
-4.62643e-05
-4.45885e-05
-4.29489e-05
-4.13394e-05
-3.97603e-05
-3.82052e-05
-3.66746e-05
-3.51613e-05
-3.36658e-05
-3.21806e-05
-3.07055e-05
-2.92333e-05
-2.7763e-05
-2.62872e-05
-2.48049e-05
-2.3308e-05
-2.17957e-05
-2.02596e-05
-1.86989e-05
-1.71057e-05
-1.54794e-05
-1.3813e-05
-1.21073e-05
-1.03567e-05
-8.56429e-06
-6.72691e-06
-4.85039e-06
-2.93427e-06
-9.86663e-07
0.000341633
0.000320958
0.000296726
0.000269328
0.000239295
0.000207284
0.000174049
0.000140414
0.000107216
7.52397e-05
4.51584e-05
1.74835e-05
-7.46423e-06
-2.95582e-05
-4.88393e-05
-6.54737e-05
-7.96989e-05
-9.17786e-05
-0.000101967
-0.000110494
-0.000117554
-0.000123315
-0.000127918
-0.00013149
-0.000134143
-0.000135982
-0.000137104
-0.000137599
-0.000137549
-0.000137028
-0.0001361
-0.000134825
-0.000133251
-0.000131426
-0.000129387
-0.00012717
-0.000124807
-0.000122325
-0.000119749
-0.000117099
-0.000114395
-0.000111653
-0.000108887
-0.00010611
-0.000103332
-0.000100564
-9.78124e-05
-9.50855e-05
-9.23881e-05
-8.97267e-05
-8.71042e-05
-8.45256e-05
-8.19922e-05
-7.95081e-05
-7.70734e-05
-7.46911e-05
-7.23606e-05
-7.0084e-05
-6.786e-05
-6.56903e-05
-6.35727e-05
-6.15086e-05
-5.94953e-05
-5.75336e-05
-5.56205e-05
-5.37566e-05
-5.19384e-05
-5.01664e-05
-4.84364e-05
-4.67489e-05
-4.50995e-05
-4.34882e-05
-4.19106e-05
-4.03662e-05
-3.88505e-05
-3.73628e-05
-3.58981e-05
-3.44557e-05
-3.30301e-05
-3.16206e-05
-3.02211e-05
-2.88308e-05
-2.74435e-05
-2.60576e-05
-2.4667e-05
-2.327e-05
-2.18599e-05
-2.04351e-05
-1.89888e-05
-1.75195e-05
-1.60208e-05
-1.44916e-05
-1.29262e-05
-1.13249e-05
-9.68335e-06
-8.00392e-06
-6.28434e-06
-4.52946e-06
-2.73915e-06
-9.2004e-07
0.000301648
0.000283688
0.00026285
0.000239486
0.000214026
0.000186972
0.000158887
0.000130384
0.00010209
7.46024e-05
4.84501e-05
2.4061e-05
1.73787e-06
-1.83509e-05
-3.61633e-05
-5.17632e-05
-6.52878e-05
-7.69154e-05
-8.68364e-05
-9.52339e-05
-0.000102273
-0.0001081
-0.00011284
-0.000116607
-0.000119502
-0.000121618
-0.000123043
-0.000123858
-0.000124139
-0.000123954
-0.000123366
-0.000122429
-0.000121194
-0.000119703
-0.000117995
-0.000116104
-0.000114062
-0.000111894
-0.000109626
-0.000107277
-0.000104867
-0.000102413
-9.9927e-05
-9.74234e-05
-9.49122e-05
-9.24034e-05
-8.99048e-05
-8.74239e-05
-8.49663e-05
-8.25378e-05
-8.01422e-05
-7.77837e-05
-7.54647e-05
-7.31886e-05
-7.09563e-05
-6.87703e-05
-6.66307e-05
-6.45392e-05
-6.24954e-05
-6.05001e-05
-5.85524e-05
-5.66528e-05
-5.47996e-05
-5.2993e-05
-5.12311e-05
-4.95136e-05
-4.78382e-05
-4.62046e-05
-4.46098e-05
-4.30535e-05
-4.15324e-05
-4.00457e-05
-3.85904e-05
-3.7165e-05
-3.57664e-05
-3.43929e-05
-3.30409e-05
-3.1709e-05
-3.03928e-05
-2.90909e-05
-2.77987e-05
-2.65143e-05
-2.52332e-05
-2.3953e-05
-2.26689e-05
-2.13786e-05
-2.00768e-05
-1.87615e-05
-1.74272e-05
-1.60719e-05
-1.46908e-05
-1.32821e-05
-1.18418e-05
-1.03696e-05
-8.86229e-06
-7.32162e-06
-5.74628e-06
-4.13987e-06
-2.50278e-06
-8.39858e-07
0.000257395
0.000242421
0.000225199
0.000206021
0.000185227
0.000163194
0.000140327
0.000117057
9.38252e-05
7.10618e-05
4.91628e-05
2.84683e-05
9.24439e-06
-8.32862e-06
-2.41584e-05
-3.8234e-05
-5.06102e-05
-6.13882e-05
-7.0694e-05
-7.8662e-05
-8.54218e-05
-9.10932e-05
-9.57832e-05
-9.95882e-05
-0.000102595
-0.000104885
-0.000106533
-0.000107609
-0.00010818
-0.000108307
-0.000108046
-0.000107448
-0.00010656
-0.000105421
-0.000104069
-0.000102536
-0.000100849
-9.90366e-05
-9.71196e-05
-9.51189e-05
-9.3052e-05
-9.0935e-05
-8.87816e-05
-8.66039e-05
-8.44126e-05
-8.2217e-05
-8.00249e-05
-7.78436e-05
-7.56789e-05
-7.35361e-05
-7.14193e-05
-6.93326e-05
-6.72786e-05
-6.52604e-05
-6.32793e-05
-6.13376e-05
-5.9436e-05
-5.75757e-05
-5.57569e-05
-5.39801e-05
-5.2245e-05
-5.05519e-05
-4.88996e-05
-4.72882e-05
-4.57162e-05
-4.41832e-05
-4.26875e-05
-4.12285e-05
-3.9804e-05
-3.84135e-05
-3.70542e-05
-3.57253e-05
-3.44244e-05
-3.31497e-05
-3.18989e-05
-3.06704e-05
-2.94609e-05
-2.82692e-05
-2.70915e-05
-2.59263e-05
-2.47699e-05
-2.36202e-05
-2.24736e-05
-2.13276e-05
-2.01784e-05
-1.90236e-05
-1.7859e-05
-1.66825e-05
-1.54896e-05
-1.42785e-05
-1.30452e-05
-1.17883e-05
-1.05046e-05
-9.19358e-06
-7.85317e-06
-6.48457e-06
-5.08712e-06
-3.66345e-06
-2.21411e-06
-7.4266e-07
0.000213216
0.000201123
0.000187316
0.00017202
0.000155497
0.000138026
0.000119895
0.000101402
8.28478e-05
6.45347e-05
4.6751e-05
2.97575e-05
1.37741e-05
-1.03203e-06
-1.45522e-05
-2.67365e-05
-3.75877e-05
-4.71508e-05
-5.54996e-05
-6.2724e-05
-6.89189e-05
-7.41766e-05
-7.85833e-05
-8.22179e-05
-8.51523e-05
-8.74529e-05
-8.9182e-05
-9.03985e-05
-9.11578e-05
-9.15123e-05
-9.15105e-05
-9.11973e-05
-9.06134e-05
-8.97954e-05
-8.8776e-05
-8.75848e-05
-8.62478e-05
-8.47884e-05
-8.32274e-05
-8.15834e-05
-7.98727e-05
-7.811e-05
-7.6308e-05
-7.44782e-05
-7.26304e-05
-7.07734e-05
-6.89145e-05
-6.70605e-05
-6.5217e-05
-6.33889e-05
-6.15804e-05
-5.9795e-05
-5.80355e-05
-5.63047e-05
-5.46043e-05
-5.29362e-05
-5.13012e-05
-4.97007e-05
-4.81349e-05
-4.66044e-05
-4.51091e-05
-4.36491e-05
-4.22239e-05
-4.08333e-05
-3.94763e-05
-3.81525e-05
-3.68606e-05
-3.55999e-05
-3.43688e-05
-3.31667e-05
-3.19914e-05
-3.08421e-05
-2.97167e-05
-2.86139e-05
-2.75316e-05
-2.64683e-05
-2.54213e-05
-2.43896e-05
-2.33699e-05