/*--------------------------------*- C++ -*----------------------------------*\
| =========                 |                                                 |
| \\      /  F ield         | OpenFOAM: The Open Source CFD Toolbox           |
|  \\    /   O peration     | Version:  2.3.0                                 |
|   \\  /    A nd           | Web:      www.OpenFOAM.org                      |
|    \\/     M anipulation  |                                                 |
\*---------------------------------------------------------------------------*/
FoamFile
{
    version     2.0;
    format      ascii;
    class       volVectorField;
    location    "0.2";
    object      U;
}
// * * * * * * * * * * * * * * * * * * * * * * * * * * * * * * * * * * * * * //

dimensions      [0 1 -1 0 0 0 0];

internalField   nonuniform List<vector> 
1500
(
(0.170786 0.00604935 0)
(0.154029 0.00612375 0)
(0.137907 0.00570183 0)
(0.122622 0.00509321 0)
(0.108596 0.00441633 0)
(0.0960092 0.00372618 0)
(0.0848819 0.00306161 0)
(0.0751856 0.00245011 0)
(0.0668659 0.00190892 0)
(0.0598358 0.00144723 0)
(0.0539762 0.00106754 0)
(0.0491463 0.00076654 0)
(0.045196 0.000536481 0)
(0.0419771 0.000366903 0)
(0.0393514 0.000246403 0)
(0.0371967 0.00016399 0)
(0.0354095 0.000109921 0)
(0.0339057 7.60801e-05 0)
(0.0326192 5.60418e-05 0)
(0.0315 4.49483e-05 0)
(0.0305108 3.92969e-05 0)
(0.0296247 3.66882e-05 0)
(0.0288223 3.55717e-05 0)
(0.02809 3.50149e-05 0)
(0.0274178 3.45083e-05 0)
(0.0267984 3.3814e-05 0)
(0.0262265 3.28552e-05 0)
(0.0256977 3.1642e-05 0)
(0.0252085 3.02233e-05 0)
(0.024756 2.86593e-05 0)
(0.0243376 2.7007e-05 0)
(0.023951 2.53138e-05 0)
(0.0235942 2.36154e-05 0)
(0.0232654 2.19374e-05 0)
(0.0229629 2.0297e-05 0)
(0.0226855 1.87061e-05 0)
(0.0224318 1.71733e-05 0)
(0.0222007 1.57057e-05 0)
(0.0219913 1.43082e-05 0)
(0.0218027 1.29787e-05 0)
(0.021634 1.16973e-05 0)
(0.0214849 1.04086e-05 0)
(0.0213551 9.00945e-06 0)
(0.021245 7.37815e-06 0)
(0.021156 5.49341e-06 0)
(0.0210912 3.3937e-06 0)
(0.0210552 1.4978e-06 0)
(0.0210523 -3.01265e-07 0)
(0.0210736 -2.0643e-06 0)
(0.0211128 -4.04764e-06 0)
(0.021166 -5.89768e-06 0)
(0.0212293 -7.15512e-06 0)
(0.0212989 -7.78799e-06 0)
(0.0213711 -7.89195e-06 0)
(0.0214428 -7.60057e-06 0)
(0.0215112 -7.04158e-06 0)
(0.0215748 -6.32464e-06 0)
(0.0216323 -5.53827e-06 0)
(0.0216832 -4.74715e-06 0)
(0.0217277 -3.99433e-06 0)
(0.0217658 -3.30553e-06 0)
(0.0217981 -2.69365e-06 0)
(0.0218252 -2.16263e-06 0)
(0.0218477 -1.71058e-06 0)
(0.0218661 -1.33212e-06 0)
(0.021881 -1.02005e-06 0)
(0.021893 -7.66534e-07 0)
(0.0219025 -5.63755e-07 0)
(0.0219099 -4.03842e-07 0)
(0.0219156 -2.79357e-07 0)
(0.0219199 -1.83803e-07 0)
(0.0219231 -1.11663e-07 0)
(0.0219253 -5.83432e-08 0)
(0.0219267 -2.00886e-08 0)
(0.0219276 6.14339e-09 0)
(0.021928 2.48602e-08 0)
(0.0219281 6.51763e-08 0)
(0.0219278 9.77344e-08 0)
(0.0219273 1.12655e-07 0)
(0.0219265 1.15175e-07 0)
(0.0219257 1.17102e-07 0)
(0.0219247 1.16952e-07 0)
(0.0219237 1.15227e-07 0)
(0.0219227 1.09019e-07 0)
(0.0219217 1.04355e-07 0)
(0.0219207 9.85851e-08 0)
(0.0219198 9.08523e-08 0)
(0.021919 8.18499e-08 0)
(0.0219183 7.19615e-08 0)
(0.0219176 6.14887e-08 0)
(0.021917 5.24033e-08 0)
(0.0219165 4.42609e-08 0)
(0.0219161 3.69558e-08 0)
(0.0219158 3.0452e-08 0)
(0.0219155 2.44757e-08 0)
(0.0219153 1.92652e-08 0)
(0.0219151 1.49342e-08 0)
(0.021915 1.1504e-08 0)
(0.0219149 8.66058e-09 0)
(0.0219147 1.27179e-08 0)
(0.190016 0.0096104 0)
(0.187757 0.0101581 0)
(0.183923 0.00996557 0)
(0.178849 0.00948625 0)
(0.173016 0.00885871 0)
(0.166764 0.00813054 0)
(0.160312 0.0073416 0)
(0.153826 0.00652913 0)
(0.147441 0.005725 0)
(0.14126 0.00495584 0)
(0.135355 0.00424286 0)
(0.129768 0.00360102 0)
(0.124523 0.00303853 0)
(0.119627 0.00255732 0)
(0.115077 0.0021541 0)
(0.110862 0.00182186 0)
(0.106963 0.0015514 0)
(0.103362 0.00133274 0)
(0.100038 0.00115621 0)
(0.0969686 0.00101308 0)
(0.0941341 0.000895968 0)
(0.0915146 0.000798906 0)
(0.089092 0.000717236 0)
(0.0868497 0.000647431 0)
(0.0847725 0.000586873 0)
(0.0828469 0.000533639 0)
(0.0810607 0.000486322 0)
(0.0794031 0.00044388 0)
(0.0778644 0.000405529 0)
(0.076436 0.00037066 0)
(0.0751104 0.000338789 0)
(0.073881 0.000309517 0)
(0.0727418 0.000282506 0)
(0.0716877 0.000257467 0)
(0.0707142 0.000234149 0)
(0.0698175 0.000212334 0)
(0.0689941 0.000191837 0)
(0.0682412 0.000172495 0)
(0.0675563 0.000154164 0)
(0.0669374 0.000136701 0)
(0.066383 0.000119933 0)
(0.0658922 0.000103607 0)
(0.0654645 8.73368e-05 0)
(0.0651006 7.05887e-05 0)
(0.0648021 5.27911e-05 0)
(0.064571 3.33587e-05 0)
(0.0644089 1.20109e-05 0)
(0.0643201 -9.8308e-06 0)
(0.0643151 -2.68694e-05 0)
(0.0643684 -3.71574e-05 0)
(0.0644631 -4.31335e-05 0)
(0.0645868 -4.6627e-05 0)
(0.0647293 -4.81585e-05 0)
(0.0648817 -4.77507e-05 0)
(0.0650366 -4.56547e-05 0)
(0.0651884 -4.23291e-05 0)
(0.0653326 -3.82662e-05 0)
(0.0654665 -3.38784e-05 0)
(0.0655883 -2.94734e-05 0)
(0.0656976 -2.5261e-05 0)
(0.0657943 -2.13707e-05 0)
(0.0658788 -1.78702e-05 0)
(0.0659522 -1.47832e-05 0)
(0.0660152 -1.21045e-05 0)
(0.0660689 -9.81047e-06 0)
(0.0661144 -7.86759e-06 0)
(0.0661526 -6.23792e-06 0)
(0.0661844 -4.88273e-06 0)
(0.0662107 -3.76446e-06 0)
(0.0662322 -2.84821e-06 0)
(0.0662496 -2.10282e-06 0)
(0.0662635 -1.50129e-06 0)
(0.0662743 -1.02075e-06 0)
(0.0662826 -6.42462e-07 0)
(0.0662888 -3.51914e-07 0)
(0.0662932 -1.36528e-07 0)
(0.0662961 4.03929e-08 0)
(0.066298 1.69882e-07 0)
(0.066299 2.73774e-07 0)
(0.0662994 3.94226e-07 0)
(0.0662992 4.72437e-07 0)
(0.0662985 5.19933e-07 0)
(0.0662975 5.462e-07 0)
(0.0662963 5.36729e-07 0)
(0.0662949 5.15106e-07 0)
(0.0662935 4.84469e-07 0)
(0.0662921 4.44851e-07 0)
(0.0662907 3.99335e-07 0)
(0.0662894 3.50083e-07 0)
(0.0662883 2.98823e-07 0)
(0.0662873 2.53625e-07 0)
(0.0662864 2.13312e-07 0)
(0.0662856 1.77437e-07 0)
(0.066285 1.45821e-07 0)
(0.0662845 1.17475e-07 0)
(0.0662841 9.29995e-08 0)
(0.0662837 7.26783e-08 0)
(0.0662834 5.65314e-08 0)
(0.0662832 4.43083e-08 0)
(0.066283 4.42154e-08 0)
(0.193025 0.00916378 0)
(0.193776 0.0101494 0)
(0.193971 0.0105348 0)
(0.193443 0.0105918 0)
(0.192279 0.0104135 0)
(0.190578 0.0100352 0)
(0.188417 0.00950044 0)
(0.18587 0.0088592 0)
(0.183022 0.00815846 0)
(0.179953 0.00743882 0)
(0.176739 0.00673338 0)
(0.17344 0.00606678 0)
(0.17011 0.00545485 0)
(0.16679 0.00490539 0)
(0.16351 0.00441969 0)
(0.160293 0.00399442 0)
(0.157156 0.00362351 0)
(0.154108 0.00329971 0)
(0.151156 0.00301573 0)
(0.148305 0.0027649 0)
(0.145555 0.00254156 0)
(0.142907 0.00234104 0)
(0.140362 0.00215965 0)
(0.137918 0.00199448 0)
(0.135575 0.00184326 0)
(0.133332 0.00170421 0)
(0.131187 0.00157588 0)
(0.129139 0.00145708 0)
(0.127187 0.00134681 0)
(0.125329 0.00124418 0)
(0.123564 0.00114841 0)
(0.121892 0.0010588 0)
(0.12031 0.000974709 0)
(0.118817 0.000895546 0)
(0.117414 0.00082078 0)
(0.116098 0.000749923 0)
(0.114869 0.000682536 0)
(0.113727 0.000618215 0)
(0.112672 0.000556577 0)
(0.111702 0.000497238 0)
(0.110819 0.000439775 0)
(0.110023 0.000383687 0)
(0.109314 0.000328358 0)
(0.108694 0.000273081 0)
(0.108163 0.000217158 0)
(0.107722 0.000160173 0)
(0.107368 0.000102148 0)
(0.10709 4.40577e-05 0)
(0.106876 -1.06991e-05 0)
(0.106761 -5.7051e-05 0)
(0.106736 -9.01033e-05 0)
(0.106778 -0.000110163 0)
(0.106868 -0.00012073 0)
(0.106993 -0.000124324 0)
(0.107142 -0.000122591 0)
(0.107304 -0.000116928 0)
(0.107473 -0.000108631 0)
(0.107641 -9.8813e-05 0)
(0.107804 -8.83451e-05 0)
(0.10796 -7.78667e-05 0)
(0.108106 -6.78123e-05 0)
(0.108241 -5.84517e-05 0)
(0.108364 -4.99298e-05 0)
(0.108477 -4.23025e-05 0)
(0.108578 -3.55653e-05 0)
(0.108668 -2.96758e-05 0)
(0.108749 -2.45701e-05 0)
(0.10882 -2.01742e-05 0)
(0.108882 -1.64115e-05 0)
(0.108936 -1.32072e-05 0)
(0.108983 -1.04915e-05 0)
(0.109024 -8.20136e-06 0)
(0.109058 -6.28103e-06 0)
(0.109087 -4.68231e-06 0)
(0.109111 -3.36496e-06 0)
(0.10913 -2.2968e-06 0)
(0.109146 -1.45701e-06 0)
(0.109158 -8.14871e-07 0)
(0.109168 -3.18316e-07 0)
(0.109175 9.15537e-08 0)
(0.10918 3.70855e-07 0)
(0.109184 5.40181e-07 0)
(0.109187 6.39494e-07 0)
(0.109189 7.48143e-07 0)
(0.10919 8.28849e-07 0)
(0.10919 8.64485e-07 0)
(0.10919 8.57114e-07 0)
(0.10919 8.16578e-07 0)
(0.10919 7.52837e-07 0)
(0.109189 6.6827e-07 0)
(0.109188 5.8243e-07 0)
(0.109188 4.99392e-07 0)
(0.109187 4.21463e-07 0)
(0.109186 3.50319e-07 0)
(0.109186 2.85261e-07 0)
(0.109186 2.28321e-07 0)
(0.109185 1.80528e-07 0)
(0.109185 1.42137e-07 0)
(0.109185 1.12824e-07 0)
(0.109184 9.24123e-08 0)
(0.194152 0.00848866 0)
(0.19515 0.00954086 0)
(0.196108 0.0101366 0)
(0.196817 0.0104268 0)
(0.197244 0.0104857 0)
(0.197388 0.0103434 0)
(0.197237 0.0100328 0)
(0.19679 0.00959467 0)
(0.196062 0.00906993 0)
(0.195081 0.00849596 0)
(0.193882 0.00790494 0)
(0.192502 0.00732276 0)
(0.190979 0.00676818 0)
(0.189349 0.00625295 0)
(0.18764 0.00578272 0)
(0.185878 0.00535841 0)
(0.184084 0.00497778 0)
(0.182273 0.00463667 0)
(0.180457 0.00433014 0)
(0.178646 0.00405318 0)
(0.176846 0.00380115 0)
(0.175062 0.00357002 0)
(0.1733 0.00335643 0)
(0.171563 0.00315766 0)
(0.169854 0.00297154 0)
(0.168176 0.00279635 0)
(0.166532 0.00263073 0)
(0.164925 0.00247356 0)
(0.163357 0.00232394 0)
(0.161831 0.0021811 0)
(0.16035 0.00204434 0)
(0.158916 0.00191308 0)
(0.157532 0.00178676 0)
(0.156199 0.00166488 0)
(0.15492 0.00154698 0)
(0.153699 0.00143263 0)
(0.152536 0.00132143 0)
(0.151435 0.001213 0)
(0.150398 0.00110696 0)
(0.149429 0.0010029 0)
(0.148528 0.000900364 0)
(0.147699 0.000798841 0)
(0.146945 0.000697756 0)
(0.146268 0.000596601 0)
(0.14567 0.00049519 0)
(0.145149 0.000394172 0)
(0.144704 0.000295635 0)
(0.144333 0.000202443 0)
(0.144028 0.000114886 0)
(0.143768 3.35021e-05 0)
(0.143562 -3.79103e-05 0)
(0.143432 -9.45355e-05 0)
(0.143365 -0.000134844 0)
(0.143352 -0.000160889 0)
(0.143384 -0.000175305 0)
(0.143452 -0.000180523 0)
(0.143547 -0.000178775 0)
(0.143663 -0.00017205 0)
(0.143792 -0.000162017 0)
(0.14393 -0.000150003 0)
(0.144073 -0.000137014 0)
(0.144216 -0.000123779 0)
(0.144358 -0.000110802 0)
(0.144497 -9.84093e-05 0)
(0.14463 -8.67966e-05 0)
(0.144757 -7.60633e-05 0)
(0.144878 -6.62441e-05 0)
(0.144991 -5.73308e-05 0)
(0.145095 -4.92894e-05 0)
(0.145192 -4.2071e-05 0)
(0.145281 -3.56207e-05 0)
(0.145362 -2.9883e-05 0)
(0.145435 -2.48041e-05 0)
(0.1455 -2.03345e-05 0)
(0.145557 -1.64283e-05 0)
(0.145607 -1.30429e-05 0)
(0.145651 -1.0142e-05 0)
(0.145689 -7.68867e-06 0)
(0.14572 -5.6537e-06 0)
(0.145747 -4.0189e-06 0)
(0.145769 -2.72832e-06 0)
(0.145786 -1.73486e-06 0)
(0.1458 -9.80827e-07 0)
(0.145811 -3.62601e-07 0)
(0.145819 1.04952e-07 0)
(0.145825 4.18158e-07 0)
(0.14583 5.97064e-07 0)
(0.145833 6.70836e-07 0)
(0.145835 6.82118e-07 0)
(0.145837 6.79266e-07 0)
(0.145838 6.53648e-07 0)
(0.145839 6.10884e-07 0)
(0.14584 5.56089e-07 0)
(0.14584 4.94352e-07 0)
(0.14584 4.27137e-07 0)
(0.14584 3.59716e-07 0)
(0.145839 2.97255e-07 0)
(0.145839 2.43294e-07 0)
(0.145839 1.98478e-07 0)
(0.145839 1.52716e-07 0)
(0.195026 0.00796747 0)
(0.195828 0.00892339 0)
(0.196726 0.00953649 0)
(0.197569 0.00988779 0)
(0.19831 0.0100381 0)
(0.19893 0.0100159 0)
(0.199407 0.00984483 0)
(0.199718 0.00955417 0)
(0.199852 0.00917514 0)
(0.199811 0.00873765 0)
(0.199605 0.00826869 0)
(0.199249 0.0077912 0)
(0.198762 0.00732306 0)
(0.198166 0.00687678 0)
(0.197481 0.00645978 0)
(0.196725 0.00607531 0)
(0.195914 0.00572346 0)
(0.19506 0.0054023 0)
(0.194174 0.00510872 0)
(0.193264 0.00483918 0)
(0.192335 0.00459017 0)
(0.191393 0.00435852 0)
(0.190441 0.00414146 0)
(0.189482 0.00393671 0)
(0.188521 0.00374241 0)
(0.187558 0.00355706 0)
(0.186597 0.00337945 0)
(0.18564 0.00320859 0)
(0.184691 0.00304364 0)
(0.18375 0.0028839 0)
(0.182822 0.00272872 0)
(0.181908 0.00257754 0)
(0.181012 0.00242984 0)
(0.180136 0.00228513 0)
(0.179283 0.00214296 0)
(0.178455 0.00200292 0)
(0.177657 0.00186461 0)
(0.17689 0.00172766 0)
(0.176157 0.00159168 0)
(0.175462 0.00145629 0)
(0.174808 0.00132107 0)
(0.174198 0.00118562 0)
(0.173633 0.00104958 0)
(0.173117 0.00091284 0)
(0.17265 0.000775805 0)
(0.172233 0.000639783 0)
(0.171864 0.000507224 0)
(0.171543 0.000381425 0)
(0.171268 0.000265815 0)
(0.171036 0.000162151 0)
(0.170836 6.95882e-05 0)
(0.17066 -1.11103e-05 0)
(0.170523 -7.69554e-05 0)
(0.170425 -0.00012715 0)
(0.170362 -0.000163025 0)
(0.170332 -0.000186672 0)
(0.170331 -0.000200285 0)
(0.170356 -0.000205973 0)
(0.170403 -0.000205633 0)
(0.170469 -0.000200884 0)
(0.170549 -0.000193046 0)
(0.170641 -0.000183159 0)
(0.170742 -0.000172015 0)
(0.17085 -0.000160204 0)
(0.170962 -0.000148145 0)
(0.171077 -0.000136134 0)
(0.171193 -0.000124368 0)
(0.171308 -0.000112976 0)
(0.171422 -0.000102039 0)
(0.171532 -9.16069e-05 0)
(0.171639 -8.17104e-05 0)
(0.171741 -7.23693e-05 0)
(0.171838 -6.35989e-05 0)
(0.17193 -5.54126e-05 0)
(0.172014 -4.78239e-05 0)
(0.172092 -4.08453e-05 0)
(0.172164 -3.4488e-05 0)
(0.172228 -2.87565e-05 0)
(0.172285 -2.36483e-05 0)
(0.172336 -1.91565e-05 0)
(0.17238 -1.52489e-05 0)
(0.172418 -1.18912e-05 0)
(0.172449 -9.0452e-06 0)
(0.172476 -6.70239e-06 0)
(0.172498 -4.82096e-06 0)
(0.172516 -3.3521e-06 0)
(0.17253 -2.23829e-06 0)
(0.172541 -1.4179e-06 0)
(0.17255 -8.22101e-07 0)
(0.172556 -3.76001e-07 0)
(0.172561 -6.4625e-08 0)
(0.172564 1.37419e-07 0)
(0.172566 2.53708e-07 0)
(0.172568 3.05858e-07 0)
(0.172569 3.19567e-07 0)
(0.17257 3.09484e-07 0)
(0.17257 2.85645e-07 0)
(0.17257 2.57168e-07 0)
(0.172571 2.27905e-07 0)
(0.172571 1.83921e-07 0)
(0.195808 0.00752664 0)
(0.196411 0.00835126 0)
(0.197129 0.00893174 0)
(0.197859 0.00929965 0)
(0.198555 0.00949425 0)
(0.199195 0.00953899 0)
(0.19976 0.00945254 0)
(0.200231 0.00925706 0)
(0.200595 0.00897727 0)
(0.200848 0.00863764 0)
(0.20099 0.00826076 0)
(0.20103 0.00786627 0)
(0.200978 0.00747016 0)
(0.200844 0.00708429 0)
(0.200644 0.00671652 0)
(0.200389 0.00637119 0)
(0.200089 0.0060499 0)
(0.199755 0.00575227 0)
(0.199393 0.00547669 0)
(0.19901 0.00522089 0)
(0.198609 0.00498238 0)
(0.198195 0.00475873 0)
(0.197768 0.00454773 0)
(0.197332 0.00434742 0)
(0.196888 0.00415617 0)
(0.196438 0.00397259 0)
(0.195981 0.00379549 0)
(0.195521 0.0036239 0)
(0.195058 0.00345697 0)
(0.194593 0.00329395 0)
(0.194129 0.00313418 0)
(0.193666 0.00297706 0)
(0.193207 0.00282203 0)
(0.192752 0.00266859 0)
(0.192305 0.00251627 0)
(0.191866 0.00236463 0)
(0.191437 0.00221328 0)
(0.191022 0.00206183 0)
(0.190621 0.00190992 0)
(0.190236 0.0017572 0)
(0.189871 0.00160337 0)
(0.189525 0.00144817 0)
(0.189202 0.00129153 0)
(0.188901 0.00113373 0)
(0.188624 0.000975614 0)
(0.18837 0.000818912 0)
(0.188138 0.000666263 0)
(0.18793 0.000520962 0)
(0.187743 0.000386336 0)
(0.187579 0.000264981 0)
(0.187437 0.000158359 0)
(0.187314 6.59825e-05 0)
(0.187202 -1.24455e-05 0)
(0.187109 -7.61946e-05 0)
(0.187034 -0.000125701 0)
(0.186978 -0.000162471 0)
(0.18694 -0.000188366 0)
(0.186921 -0.000205272 0)
(0.186917 -0.000214958 0)
(0.186929 -0.000218993 0)
(0.186954 -0.000218706 0)
(0.186992 -0.000215186 0)
(0.187039 -0.000209299 0)
(0.187095 -0.000201714 0)
(0.187159 -0.00019294 0)
(0.187229 -0.000183352 0)
(0.187304 -0.000173225 0)
(0.187383 -0.000162756 0)
(0.187464 -0.000152089 0)
(0.187547 -0.000141331 0)
(0.187631 -0.000130566 0)
(0.187715 -0.000119866 0)
(0.187797 -0.000109298 0)
(0.187878 -9.89304e-05 0)
(0.187956 -8.88336e-05 0)
(0.18803 -7.90806e-05 0)
(0.188101 -6.97457e-05 0)
(0.188167 -6.08996e-05 0)
(0.188229 -5.26075e-05 0)
(0.188285 -4.49273e-05 0)
(0.188336 -3.7897e-05 0)
(0.188381 -3.15414e-05 0)
(0.188421 -2.58732e-05 0)
(0.188456 -2.09032e-05 0)
(0.188486 -1.66133e-05 0)
(0.188511 -1.29745e-05 0)
(0.188532 -9.94031e-06 0)
(0.188549 -7.45017e-06 0)
(0.188563 -5.44243e-06 0)
(0.188574 -3.86577e-06 0)
(0.188582 -2.65228e-06 0)
(0.188588 -1.74329e-06 0)
(0.188593 -1.08274e-06 0)
(0.188597 -6.1869e-07 0)
(0.188599 -2.9958e-07 0)
(0.188601 -8.83949e-08 0)
(0.188602 4.46682e-08 0)
(0.188603 1.24895e-07 0)
(0.188603 1.65148e-07 0)
(0.188603 1.74476e-07 0)
(0.196518 0.00716297 0)
(0.196969 0.00786473 0)
(0.197521 0.00839651 0)
(0.198109 0.00876099 0)
(0.198691 0.00897766 0)
(0.199243 0.00906335 0)
(0.199749 0.00903301 0)
(0.200194 0.00890396 0)
(0.200567 0.00869585 0)
(0.200864 0.00842869 0)
(0.201085 0.00812133 0)
(0.201233 0.00779054 0)
(0.201315 0.00745039 0)
(0.201339 0.00711185 0)
(0.201316 0.00678277 0)
(0.201253 0.00646819 0)
(0.20116 0.00617074 0)
(0.201043 0.00589128 0)
(0.200908 0.00562942 0)
(0.20076 0.00538396 0)
(0.200602 0.00515332 0)
(0.200436 0.00493575 0)
(0.200265 0.00472954 0)
(0.20009 0.00453308 0)
(0.19991 0.00434493 0)
(0.199728 0.00416382 0)
(0.199543 0.00398864 0)
(0.199355 0.00381841 0)
(0.199166 0.00365227 0)
(0.198976 0.00348944 0)
(0.198784 0.00332921 0)
(0.198593 0.00317096 0)
(0.198401 0.00301409 0)
(0.198211 0.00285805 0)
(0.198022 0.00270235 0)
(0.197835 0.00254651 0)
(0.197652 0.00239012 0)
(0.197473 0.00223279 0)
(0.197298 0.00207419 0)
(0.19713 0.00191402 0)
(0.196967 0.00175207 0)
(0.196812 0.00158826 0)
(0.196663 0.00142275 0)
(0.196522 0.00125608 0)
(0.196388 0.00108936 0)
(0.196259 0.000924419 0)
(0.196137 0.000763815 0)
(0.196021 0.000610562 0)
(0.19591 0.000467681 0)
(0.195808 0.000337722 0)
(0.195714 0.000222515 0)
(0.195629 0.000122775 0)
(0.195552 3.78595e-05 0)
(0.195483 -3.2796e-05 0)
(0.195422 -8.97953e-05 0)
(0.195372 -0.000134298 0)
(0.195332 -0.000167878 0)
(0.195302 -0.000192202 0)
(0.195283 -0.000208871 0)
(0.195272 -0.000219345 0)
(0.195271 -0.000224894 0)
(0.195278 -0.000226587 0)
(0.195292 -0.000225297 0)
(0.195313 -0.000221716 0)
(0.195339 -0.000216385 0)
(0.19537 -0.000209711 0)
(0.195405 -0.000202001 0)
(0.195444 -0.000193479 0)
(0.195486 -0.000184313 0)
(0.195531 -0.000174628 0)
(0.195577 -0.000164523 0)
(0.195624 -0.000154085 0)
(0.195673 -0.000143395 0)
(0.195721 -0.000132538 0)
(0.195769 -0.000121603 0)
(0.195816 -0.000110689 0)
(0.195862 -9.99e-05 0)
(0.195905 -8.93442e-05 0)
(0.195947 -7.91296e-05 0)
(0.195986 -6.93607e-05 0)
(0.196022 -6.01289e-05 0)
(0.196055 -5.15138e-05 0)
(0.196085 -4.35825e-05 0)
(0.196111 -3.63914e-05 0)
(0.196135 -2.99717e-05 0)
(0.196155 -2.4332e-05 0)
(0.196172 -1.94559e-05 0)
(0.196187 -1.53054e-05 0)
(0.196199 -1.18295e-05 0)
(0.196208 -8.97056e-06 0)
(0.196216 -6.65853e-06 0)
(0.196222 -4.82544e-06 0)
(0.196226 -3.40159e-06 0)
(0.19623 -2.31858e-06 0)
(0.196232 -1.51772e-06 0)
(0.196234 -9.44211e-07 0)
(0.196235 -5.45099e-07 0)
(0.196236 -2.72203e-07 0)
(0.196237 -9.34418e-08 0)
(0.196237 4.1731e-08 0)
(0.197167 0.00686462 0)
(0.197502 0.00746085 0)
(0.197918 0.0079377 0)
(0.198374 0.00828571 0)
(0.198837 0.00851105 0)
(0.199287 0.00862378 0)
(0.199706 0.00863496 0)
(0.200083 0.00855762 0)
(0.200409 0.00840685 0)
(0.200679 0.00819857 0)
(0.200892 0.00794825 0)
(0.201051 0.00767006 0)
(0.20116 0.00737629 0)
(0.201225 0.007077 0)
(0.201254 0.00677986 0)
(0.201253 0.00649029 0)
(0.201229 0.00621173 0)
(0.201187 0.00594601 0)
(0.201134 0.00569375 0)
(0.201072 0.00545472 0)
(0.201004 0.00522818 0)
(0.200933 0.00501306 0)
(0.200861 0.00480817 0)
(0.200788 0.0046123 0)
(0.200715 0.00442429 0)
(0.200642 0.00424305 0)
(0.20057 0.00406756 0)
(0.200498 0.00389691 0)
(0.200428 0.00373026 0)
(0.200358 0.00356683 0)
(0.200289 0.00340591 0)
(0.200221 0.00324684 0)
(0.200154 0.003089 0)
(0.200088 0.00293182 0)
(0.200023 0.00277478 0)
(0.199959 0.0026174 0)
(0.199896 0.00245925 0)
(0.199835 0.00229996 0)
(0.199774 0.00213923 0)
(0.199716 0.00197681 0)
(0.199658 0.00181261 0)
(0.199601 0.00164669 0)
(0.199545 0.00147935 0)
(0.199489 0.00131128 0)
(0.199431 0.00114368 0)
(0.199372 0.000978281 0)
(0.199311 0.000817393 0)
(0.199248 0.000663646 0)
(0.199183 0.000519678 0)
(0.199117 0.000387777 0)
(0.199053 0.00026966 0)
(0.198991 0.000166308 0)
(0.198934 7.77295e-05 0)
(0.19888 3.165e-06 0)
(0.198831 -5.82421e-05 0)
(0.198788 -0.000107556 0)
(0.198751 -0.000146119 0)
(0.19872 -0.000175393 0)
(0.198696 -0.000196818 0)
(0.198678 -0.000211736 0)
(0.198666 -0.000221347 0)
(0.198659 -0.000226687 0)
(0.198657 -0.000228623 0)
(0.198659 -0.000227859 0)
(0.198665 -0.00022496 0)
(0.198674 -0.000220362 0)
(0.198685 -0.000214402 0)
(0.198699 -0.000207333 0)
(0.198715 -0.000199343 0)
(0.198732 -0.00019058 0)
(0.19875 -0.000181157 0)
(0.19877 -0.000171172 0)
(0.19879 -0.000160718 0)
(0.19881 -0.000149886 0)
(0.19883 -0.000138775 0)
(0.198851 -0.000127492 0)
(0.198871 -0.000116155 0)
(0.19889 -0.000104887 0)
(0.198908 -9.38144e-05 0)
(0.198926 -8.30646e-05 0)
(0.198942 -7.27569e-05 0)
(0.198957 -6.30005e-05 0)
(0.198971 -5.38924e-05 0)
(0.198983 -4.55142e-05 0)
(0.198994 -3.79236e-05 0)
(0.199004 -3.11524e-05 0)
(0.199012 -2.52064e-05 0)
(0.199019 -2.00668e-05 0)
(0.199025 -1.56967e-05 0)
(0.199029 -1.20458e-05 0)
(0.199033 -9.0501e-06 0)
(0.199036 -6.63882e-06 0)
(0.199038 -4.7362e-06 0)
(0.199039 -3.26518e-06 0)
(0.199041 -2.15593e-06 0)
(0.199041 -1.3443e-06 0)
(0.199042 -7.66508e-07 0)
(0.199042 -3.5965e-07 0)
(0.199042 -8.72155e-08 0)
(0.199042 1.0261e-07 0)
(0.197733 0.00662886 0)
(0.197982 0.0071428 0)
(0.198291 0.00756988 0)
(0.198637 0.0078975 0)
(0.198996 0.0081244 0)
(0.19935 0.00825507 0)
(0.199685 0.00829677 0)
(0.199991 0.00825895 0)
(0.200261 0.00815299 0)
(0.200488 0.00799142 0)
(0.200674 0.00778687 0)
(0.200817 0.00755132 0)
(0.200922 0.00729551 0)
(0.200992 0.00702862 0)
(0.201033 0.00675801 0)
(0.20105 0.00648928 0)
(0.201049 0.00622639 0)
(0.201033 0.00597187 0)
(0.201007 0.00572716 0)
(0.200975 0.0054928 0)
(0.200938 0.00526875 0)
(0.2009 0.00505455 0)
(0.20086 0.00484949 0)
(0.200822 0.00465274 0)
(0.200784 0.00446341 0)
(0.200748 0.00428061 0)
(0.200714 0.00410347 0)
(0.200682 0.00393115 0)
(0.200651 0.00376287 0)
(0.200623 0.00359788 0)
(0.200596 0.00343548 0)
(0.200571 0.00327502 0)
(0.200547 0.00311588 0)
(0.200525 0.00295749 0)
(0.200503 0.00279935 0)
(0.200483 0.00264097 0)
(0.200464 0.00248195 0)
(0.200446 0.00232195 0)
(0.200428 0.00216068 0)
(0.20041 0.00199801 0)
(0.200392 0.00183389 0)
(0.200372 0.00166849 0)
(0.200351 0.00150221 0)
(0.200328 0.00133582 0)
(0.200302 0.00117045 0)
(0.200271 0.00100773 0)
(0.200236 0.000849656 0)
(0.200197 0.000698489 0)
(0.200154 0.000556484 0)
(0.200108 0.000425638 0)
(0.20006 0.000307491 0)
(0.200012 0.000203003 0)
(0.199966 0.000112449 0)
(0.199922 3.53902e-05 0)
(0.199881 -2.89869e-05 0)
(0.199843 -8.16836e-05 0)
(0.199811 -0.000123855 0)
(0.199782 -0.000156776 0)
(0.199759 -0.000181739 0)
(0.199739 -0.000199979 0)
(0.199724 -0.000212624 0)
(0.199713 -0.000220671 0)
(0.199705 -0.000224976 0)
(0.1997 -0.000226251 0)
(0.199697 -0.00022508 0)
(0.199696 -0.000221927 0)
(0.199698 -0.000217159 0)
(0.1997 -0.000211058 0)
(0.199704 -0.000203842 0)
(0.199709 -0.000195681 0)
(0.199714 -0.000186713 0)
(0.19972 -0.000177053 0)
(0.199726 -0.000166809 0)
(0.199732 -0.000156085 0)
(0.199739 -0.000144989 0)
(0.199745 -0.00013364 0)
(0.199751 -0.00012216 0)
(0.199757 -0.000110683 0)
(0.199762 -9.93426e-05 0)
(0.199767 -8.8275e-05 0)
(0.199772 -7.76094e-05 0)
(0.199776 -6.74655e-05 0)
(0.19978 -5.795e-05 0)
(0.199783 -4.91527e-05 0)
(0.199786 -4.11405e-05 0)
(0.199788 -3.39546e-05 0)
(0.19979 -2.76099e-05 0)
(0.199792 -2.20965e-05 0)
(0.199793 -1.73835e-05 0)
(0.199794 -1.34241e-05 0)
(0.199794 -1.01568e-05 0)
(0.199794 -7.51103e-06 0)
(0.199794 -5.40994e-06 0)
(0.199794 -3.77376e-06 0)
(0.199794 -2.53094e-06 0)
(0.199794 -1.61858e-06 0)
(0.199794 -9.65908e-07 0)
(0.199793 -4.96118e-07 0)
(0.199793 -1.62122e-07 0)
(0.199792 6.7539e-08 0)
(0.198294 0.00643958 0)
(0.19847 0.00688595 0)
(0.198688 0.0072667 0)
(0.198934 0.00757016 0)
(0.199194 0.00779174 0)
(0.199454 0.00793206 0)
(0.199704 0.00799511 0)
(0.199935 0.00798733 0)
(0.200141 0.00791704 0)
(0.200318 0.00779385 0)
(0.200465 0.00762787 0)
(0.200581 0.00742904 0)
(0.20067 0.0072066 0)
(0.200732 0.00696875 0)
(0.200772 0.00672242 0)
(0.200794 0.00647317 0)
(0.200801 0.00622524 0)
(0.200796 0.00598167 0)
(0.200783 0.0057445 0)
(0.200765 0.00551493 0)
(0.200743 0.00529349 0)
(0.20072 0.00508029 0)
(0.200695 0.00487507 0)
(0.200672 0.00467736 0)
(0.200649 0.00448655 0)
(0.200628 0.00430196 0)
(0.200609 0.00412288 0)
(0.200591 0.00394858 0)
(0.200575 0.00377835 0)
(0.200562 0.00361148 0)
(0.20055 0.00344733 0)
(0.200539 0.00328525 0)
(0.20053 0.00312465 0)
(0.200523 0.00296498 0)
(0.200517 0.00280575 0)
(0.200512 0.0026465 0)
(0.200507 0.00248684 0)
(0.200503 0.00232648 0)
(0.2005 0.0021652 0)
(0.200496 0.00200289 0)
(0.200491 0.00183959 0)
(0.200485 0.00167555 0)
(0.200477 0.00151123 0)
(0.200467 0.0013474 0)
(0.200453 0.00118516 0)
(0.200436 0.00102596 0)
(0.200414 0.000871537 0)
(0.200389 0.000723815 0)
(0.200359 0.000584708 0)
(0.200326 0.000455935 0)
(0.200292 0.000338853 0)
(0.200256 0.000234354 0)
(0.20022 0.000142795 0)
(0.200186 6.39868e-05 0)
(0.200154 -2.68076e-06 0)
(0.200124 -5.80518e-05 0)
(0.200098 -0.00010313 0)
(0.200074 -0.00013903 0)
(0.200054 -0.000166908 0)
(0.200037 -0.000187895 0)
(0.200023 -0.000203049 0)
(0.200012 -0.000213325 0)
(0.200004 -0.00021956 0)
(0.199997 -0.000222469 0)
(0.199992 -0.000222648 0)
(0.199989 -0.000220584 0)
(0.199987 -0.000216667 0)
(0.199986 -0.000211209 0)
(0.199986 -0.000204455 0)
(0.199986 -0.000196601 0)
(0.199986 -0.000187809 0)
(0.199987 -0.000178217 0)
(0.199988 -0.000167951 0)
(0.199988 -0.000157134 0)
(0.199989 -0.000145892 0)
(0.19999 -0.000134356 0)
(0.19999 -0.000122663 0)
(0.19999 -0.000110957 0)
(0.19999 -9.93833e-05 0)
(0.19999 -8.80867e-05 0)
(0.199989 -7.72048e-05 0)
(0.199989 -6.68642e-05 0)
(0.199988 -5.71763e-05 0)
(0.199987 -4.82331e-05 0)
(0.199986 -4.01027e-05 0)
(0.199985 -3.28265e-05 0)
(0.199983 -2.64191e-05 0)
(0.199982 -2.08696e-05 0)
(0.199981 -1.61453e-05 0)
(0.19998 -1.21958e-05 0)
(0.199979 -8.95697e-06 0)
(0.199977 -6.35496e-06 0)
(0.199976 -4.3092e-06 0)
(0.199975 -2.73474e-06 0)
(0.199974 -1.56071e-06 0)
(0.199973 -7.36105e-07 0)
(0.199973 -1.78129e-07 0)
(0.199972 1.6847e-07 0)
(0.199971 3.82801e-07 0)
(0.199971 5.12185e-07 0)
(0.198894 0.00627197 0)
(0.198998 0.00666374 0)
(0.199126 0.00700485 0)
(0.199273 0.00728549 0)
(0.199431 0.00749986 0)
(0.199592 0.00764615 0)
(0.199748 0.00772581 0)
(0.199894 0.0077427 0)
(0.200026 0.0077026 0)
(0.200143 0.00761261 0)
(0.200241 0.0074806 0)
(0.200321 0.00731466 0)
(0.200384 0.00712261 0)
(0.20043 0.00691168 0)
(0.200462 0.00668828 0)
(0.200482 0.00645778 0)
(0.200492 0.00622458 0)
(0.200494 0.00599206 0)
(0.200491 0.00576273 0)
(0.200483 0.00553829 0)
(0.200473 0.00531982 0)
(0.200461 0.0051079 0)
(0.200448 0.0049027 0)
(0.200435 0.00470411 0)
(0.200423 0.0045118 0)
(0.200412 0.00432532 0)
(0.200402 0.00414412 0)
(0.200393 0.0039676 0)
(0.200385 0.00379515 0)
(0.200378 0.00362613 0)
(0.200373 0.00345993 0)
(0.200369 0.00329596 0)
(0.200366 0.00313365 0)
(0.200363 0.00297248 0)
(0.200362 0.00281198 0)
(0.200361 0.00265171 0)
(0.200361 0.00249133 0)
(0.200362 0.00233058 0)
(0.200362 0.00216928 0)
(0.200362 0.00200739 0)
(0.200361 0.001845 0)
(0.20036 0.0016824 0)
(0.200357 0.0015201 0)
(0.200352 0.00135885 0)
(0.200345 0.00119967 0)
(0.200336 0.00104387 0)
(0.200323 0.000892941 0)
(0.200308 0.000748525 0)
(0.200291 0.000612242 0)
(0.200271 0.000485563 0)
(0.200249 0.00036968 0)
(0.200227 0.000265412 0)
(0.200205 0.000173155 0)
(0.200183 9.28764e-05 0)
(0.200162 2.41711e-05 0)
(0.200143 -3.36349e-05 0)
(0.200126 -8.1394e-05 0)
(0.200111 -0.000120073 0)
(0.200098 -0.000150699 0)
(0.200087 -0.000174303 0)
(0.200078 -0.00019187 0)
(0.20007 -0.000204313 0)
(0.200065 -0.000212447 0)
(0.20006 -0.000216984 0)
(0.200057 -0.00021853 0)
(0.200055 -0.000217593 0)
(0.200053 -0.000214587 0)
(0.200052 -0.000209849 0)
(0.200052 -0.000203653 0)
(0.200051 -0.000196221 0)
(0.200051 -0.000187739 0)
(0.200051 -0.000178366 0)
(0.20005 -0.000168248 0)
(0.20005 -0.000157526 0)
(0.200049 -0.000146339 0)
(0.200048 -0.000134828 0)
(0.200047 -0.000123143 0)
(0.200045 -0.000111432 0)
(0.200043 -9.98486e-05 0)
(0.200041 -8.85401e-05 0)
(0.200039 -7.76471e-05 0)
(0.200036 -6.72977e-05 0)
(0.200033 -5.76033e-05 0)
(0.20003 -4.86548e-05 0)
(0.200028 -4.05187e-05 0)
(0.200025 -3.32357e-05 0)
(0.200022 -2.68201e-05 0)
(0.200019 -2.12615e-05 0)
(0.200017 -1.65279e-05 0)
(0.200014 -1.25702e-05 0)
(0.200012 -9.32537e-06 0)
(0.20001 -6.72071e-06 0)
(0.200008 -4.66842e-06 0)
(0.200006 -3.07097e-06 0)
(0.200005 -1.8764e-06 0)
(0.200004 -9.96106e-07 0)
(0.200002 -3.72799e-07 0)
(0.200001 2.42678e-08 0)
(0.200001 2.58193e-07 0)
(0.2 3.9431e-07 0)
(0.199521 0.00618913 0)
(0.19955 0.00654624 0)
(0.199587 0.00685967 0)
(0.199632 0.00712115 0)
(0.199683 0.00732502 0)
(0.199736 0.00746869 0)
(0.19979 0.00755248 0)
(0.199842 0.00757901 0)
(0.199891 0.00755271 0)
(0.199935 0.00747928 0)
(0.199975 0.00736529 0)
(0.200009 0.00721766 0)
(0.200038 0.00704328 0)
(0.200061 0.00684868 0)
(0.200079 0.00663976 0)
(0.200093 0.00642168 0)
(0.200104 0.00619874 0)
(0.200111 0.00597441 0)
(0.200117 0.00575138 0)
(0.20012 0.00553158 0)
(0.200122 0.00531637 0)
(0.200123 0.00510656 0)
(0.200124 0.00490256 0)
(0.200124 0.00470448 0)
(0.200125 0.00451218 0)
(0.200125 0.00432533 0)
(0.200126 0.00414351 0)
(0.200126 0.00396621 0)
(0.200128 0.00379288 0)
(0.200129 0.00362295 0)
(0.200131 0.00345584 0)
(0.200133 0.003291 0)
(0.200135 0.0031279 0)
(0.200138 0.00296603 0)
(0.200141 0.00280495 0)
(0.200144 0.00264427 0)
(0.200147 0.00248367 0)
(0.20015 0.00232292 0)
(0.200153 0.00216188 0)
(0.200156 0.00200055 0)
(0.200159 0.00183908 0)
(0.200162 0.00167778 0)
(0.200163 0.00151718 0)
(0.200164 0.00135801 0)
(0.200164 0.00120126 0)
(0.200164 0.00104811 0)
(0.200161 0.000899911 0)
(0.200158 0.000758117 0)
(0.200154 0.00062416 0)
(0.200149 0.000499346 0)
(0.200143 0.000384748 0)
(0.200137 0.00028113 0)
(0.20013 0.000188894 0)
(0.200124 0.000108077 0)
(0.200118 3.83899e-05 0)
(0.200112 -2.0714e-05 0)
(0.200107 -6.99763e-05 0)
(0.200103 -0.000110265 0)
(0.200099 -0.000142516 0)
(0.200096 -0.000167683 0)
(0.200093 -0.000186695 0)
(0.200091 -0.000200423 0)
(0.20009 -0.000209656 0)
(0.200089 -0.000215092 0)
(0.200088 -0.000217332 0)
(0.200088 -0.000216885 0)
(0.200088 -0.000214173 0)
(0.200087 -0.000209543 0)
(0.200087 -0.000203284 0)
(0.200087 -0.000195633 0)
(0.200086 -0.000186794 0)