/*--------------------------------*- C++ -*----------------------------------*\
| =========                 |                                                 |
| \\      /  F ield         | OpenFOAM: The Open Source CFD Toolbox           |
|  \\    /   O peration     | Version:  2.3.0                                 |
|   \\  /    A nd           | Web:      www.OpenFOAM.org                      |
|    \\/     M anipulation  |                                                 |
\*---------------------------------------------------------------------------*/
FoamFile
{
    version     2.0;
    format      ascii;
    class       volVectorField;
    location    "0.2";
    object      U_0;
}
// * * * * * * * * * * * * * * * * * * * * * * * * * * * * * * * * * * * * * //

dimensions      [0 1 -1 0 0 0 0];

internalField   nonuniform List<vector> 
1500
(
(0.170786 0.00604931 0)
(0.154029 0.00612372 0)
(0.137907 0.00570181 0)
(0.122622 0.00509319 0)
(0.108597 0.0044163 0)
(0.09601 0.00372615 0)
(0.0848828 0.00306158 0)
(0.0751866 0.00245008 0)
(0.0668671 0.00190889 0)
(0.0598371 0.0014472 0)
(0.0539777 0.00106751 0)
(0.049148 0.00076651 0)
(0.0451979 0.00053645 0)
(0.0419792 0.000366871 0)
(0.0393537 0.000246369 0)
(0.0371993 0.000163954 0)
(0.0354124 0.000109883 0)
(0.0339088 7.60393e-05 0)
(0.0326228 5.59979e-05 0)
(0.0315039 4.49011e-05 0)
(0.0305152 3.92463e-05 0)
(0.0296295 3.6634e-05 0)
(0.0288277 3.55139e-05 0)
(0.0280959 3.49536e-05 0)
(0.0274243 3.44433e-05 0)
(0.0268056 3.37452e-05 0)
(0.0262344 3.27827e-05 0)
(0.0257065 3.15656e-05 0)
(0.0252182 3.0143e-05 0)
(0.0247666 2.85749e-05 0)
(0.0243492 2.69184e-05 0)
(0.0239637 2.52208e-05 0)
(0.023608 2.35179e-05 0)
(0.0232805 2.18354e-05 0)
(0.0229794 2.01908e-05 0)
(0.0227034 1.85962e-05 0)
(0.0224512 1.70607e-05 0)
(0.0222218 1.55916e-05 0)
(0.0220141 1.41933e-05 0)
(0.0218272 1.28616e-05 0)
(0.0216605 1.15714e-05 0)
(0.0215134 1.02583e-05 0)
(0.0213859 8.81119e-06 0)
(0.0212784 7.11456e-06 0)
(0.0211927 5.17286e-06 0)
(0.0211321 3.02688e-06 0)
(0.0211017 1.31578e-06 0)
(0.0211041 -6.67446e-07 0)
(0.0211291 -2.44171e-06 0)
(0.0211715 -4.44998e-06 0)
(0.0212274 -6.23788e-06 0)
(0.0212927 -7.39172e-06 0)
(0.0213637 -7.92258e-06 0)
(0.0214367 -7.94198e-06 0)
(0.0215085 -7.58653e-06 0)
(0.0215768 -6.98289e-06 0)
(0.0216398 -6.23844e-06 0)
(0.0216966 -5.43837e-06 0)
(0.0217467 -4.64358e-06 0)
(0.0217903 -3.8938e-06 0)
(0.0218276 -3.21217e-06 0)
(0.0218592 -2.60966e-06 0)
(0.0218855 -2.08883e-06 0)
(0.0219073 -1.64694e-06 0)
(0.0219251 -1.27809e-06 0)
(0.0219396 -9.74841e-07 0)
(0.0219511 -7.29259e-07 0)
(0.0219603 -5.33424e-07 0)
(0.0219674 -3.79359e-07 0)
(0.0219728 -2.59744e-07 0)
(0.0219769 -1.68232e-07 0)
(0.0219798 -9.94465e-08 0)
(0.0219819 -4.89246e-08 0)
(0.0219832 -1.30221e-08 0)
(0.0219839 1.12988e-08 0)
(0.0219842 3.13762e-08 0)
(0.0219842 7.73243e-08 0)
(0.0219839 1.05568e-07 0)
(0.0219833 1.16016e-07 0)
(0.0219825 1.18582e-07 0)
(0.0219816 1.19852e-07 0)
(0.0219806 1.19126e-07 0)
(0.0219796 1.16186e-07 0)
(0.0219785 1.09592e-07 0)
(0.0219775 1.04778e-07 0)
(0.0219766 9.83505e-08 0)
(0.0219757 9.00297e-08 0)
(0.0219748 8.06436e-08 0)
(0.0219741 7.00386e-08 0)
(0.0219735 5.98841e-08 0)
(0.0219729 5.08927e-08 0)
(0.0219724 4.28388e-08 0)
(0.021972 3.5641e-08 0)
(0.0219717 2.92375e-08 0)
(0.0219714 2.33438e-08 0)
(0.0219712 1.82936e-08 0)
(0.0219711 1.41508e-08 0)
(0.0219709 1.0924e-08 0)
(0.0219708 8.25891e-09 0)
(0.0219707 1.24276e-08 0)
(0.190016 0.00961034 0)
(0.187757 0.0101581 0)
(0.183924 0.0099655 0)
(0.17885 0.00948618 0)
(0.173017 0.00885863 0)
(0.166765 0.00813045 0)
(0.160313 0.00734149 0)
(0.153827 0.00652901 0)
(0.147443 0.00572487 0)
(0.141262 0.00495569 0)
(0.135357 0.0042427 0)
(0.12977 0.00360084 0)
(0.124526 0.00303833 0)
(0.119631 0.00255711 0)
(0.115082 0.00215387 0)
(0.110866 0.0018216 0)
(0.106969 0.00155111 0)
(0.103368 0.00133243 0)
(0.100045 0.00115586 0)
(0.0969768 0.0010127 0)
(0.0941433 0.00089555 0)
(0.0915251 0.000798449 0)
(0.0891038 0.000716738 0)
(0.0868629 0.000646889 0)
(0.0847874 0.000586285 0)
(0.0828636 0.000533004 0)
(0.0810794 0.000485636 0)
(0.0794239 0.000443141 0)
(0.0778875 0.000404734 0)
(0.0764618 0.000369807 0)
(0.0751391 0.000337876 0)
(0.0739127 0.00030854 0)
(0.0727768 0.000281463 0)
(0.0717263 0.000256356 0)
(0.0707568 0.000232968 0)
(0.0698643 0.000211083 0)
(0.0690455 0.000190514 0)
(0.0682975 0.0001711 0)
(0.0676179 0.000152695 0)
(0.0670047 0.00013515 0)
(0.0664565 0.000118276 0)
(0.0659723 0.000101799 0)
(0.065552 8.52971e-05 0)
(0.0651963 6.82139e-05 0)
(0.064907 4.99765e-05 0)
(0.0646861 2.99819e-05 0)
(0.0645349 8.2007e-06 0)
(0.0644605 -1.35943e-05 0)
(0.0644678 -2.95414e-05 0)
(0.0645301 -3.88963e-05 0)
(0.0646316 -4.44086e-05 0)
(0.0647605 -4.75614e-05 0)
(0.0649066 -4.87288e-05 0)
(0.0650612 -4.79611e-05 0)
(0.0652173 -4.55641e-05 0)
(0.0653692 -4.20208e-05 0)
(0.0655128 -3.782e-05 0)
(0.0656456 -3.33595e-05 0)
(0.0657661 -2.89301e-05 0)
(0.0658739 -2.47269e-05 0)
(0.065969 -2.08669e-05 0)
(0.0660521 -1.74085e-05 0)
(0.0661239 -1.4369e-05 0)
(0.0661856 -1.17385e-05 0)
(0.0662381 -9.49089e-06 0)
(0.0662824 -7.59101e-06 0)
(0.0663196 -6.00025e-06 0)
(0.0663505 -4.67963e-06 0)
(0.0663759 -3.59159e-06 0)
(0.0663967 -2.70158e-06 0)
(0.0664134 -1.97895e-06 0)
(0.0664267 -1.39722e-06 0)
(0.066437 -9.34111e-07 0)
(0.0664449 -5.71527e-07 0)
(0.0664506 -2.95688e-07 0)
(0.0664547 -9.17996e-08 0)
(0.0664573 8.09697e-08 0)
(0.0664589 2.00222e-07 0)
(0.0664598 3.18083e-07 0)
(0.06646 4.27832e-07 0)
(0.0664597 4.96938e-07 0)
(0.0664589 5.39409e-07 0)
(0.0664578 5.5712e-07 0)
(0.0664565 5.40828e-07 0)
(0.0664551 5.16412e-07 0)
(0.0664536 4.82605e-07 0)
(0.0664522 4.40232e-07 0)
(0.0664508 3.92876e-07 0)
(0.0664496 3.40813e-07 0)
(0.0664484 2.90599e-07 0)
(0.0664475 2.45948e-07 0)
(0.0664466 2.06179e-07 0)
(0.0664459 1.70921e-07 0)
(0.0664453 1.39919e-07 0)
(0.0664448 1.12102e-07 0)
(0.0664444 8.84064e-08 0)
(0.066444 6.89395e-08 0)
(0.0664438 5.36886e-08 0)
(0.0664436 4.22253e-08 0)
(0.0664434 4.30008e-08 0)
(0.193026 0.00916368 0)
(0.193776 0.0101493 0)
(0.193971 0.0105347 0)
(0.193444 0.0105917 0)
(0.19228 0.0104133 0)
(0.190579 0.010035 0)
(0.188418 0.00950022 0)
(0.185872 0.00885894 0)
(0.183023 0.00815816 0)
(0.179955 0.00743849 0)
(0.176741 0.00673301 0)
(0.173443 0.00606636 0)
(0.170113 0.00545438 0)
(0.166793 0.00490486 0)
(0.163514 0.0044191 0)
(0.160298 0.00399377 0)
(0.157161 0.00362278 0)
(0.154114 0.0032989 0)
(0.151164 0.00301482 0)
(0.148313 0.0027639 0)
(0.145564 0.00254045 0)
(0.142918 0.00233982 0)
(0.140375 0.00215831 0)
(0.137933 0.001993 0)
(0.135592 0.00184165 0)
(0.133351 0.00170245 0)
(0.131208 0.00157395 0)
(0.129163 0.00145498 0)
(0.127214 0.00134453 0)
(0.12536 0.0012417 0)
(0.123599 0.00114573 0)
(0.12193 0.00105591 0)
(0.120353 0.000971588 0)
(0.118866 0.000892188 0)
(0.117467 0.000817173 0)
(0.116157 0.000746059 0)
(0.114935 0.000678404 0)
(0.1138 0.000613802 0)
(0.112752 0.000551866 0)
(0.111791 0.0004922 0)
(0.110916 0.000434364 0)
(0.11013 0.000377829 0)
(0.109431 0.000321952 0)
(0.108822 0.000266008 0)
(0.108304 0.000209314 0)
(0.107876 0.000151534 0)
(0.107534 9.27156e-05 0)
(0.107265 3.43557e-05 0)
(0.107065 -1.98962e-05 0)
(0.106967 -6.45849e-05 0)
(0.106955 -9.54462e-05 0)
(0.107007 -0.000113758 0)
(0.107105 -0.000123022 0)
(0.107236 -0.000125571 0)
(0.107389 -0.000122992 0)
(0.107555 -0.000116686 0)
(0.107725 -0.00010794 0)
(0.107893 -9.78368e-05 0)
(0.108057 -8.72147e-05 0)
(0.108212 -7.6678e-05 0)
(0.108357 -6.66316e-05 0)
(0.108491 -5.73214e-05 0)
(0.108614 -4.88746e-05 0)
(0.108725 -4.13343e-05 0)
(0.108825 -3.46876e-05 0)
(0.108914 -2.88867e-05 0)
(0.108993 -2.38649e-05 0)
(0.109063 -1.95466e-05 0)
(0.109124 -1.58548e-05 0)
(0.109177 -1.27147e-05 0)
(0.109223 -1.00572e-05 0)
(0.109263 -7.81983e-06 0)
(0.109296 -5.94751e-06 0)
(0.109324 -4.39291e-06 0)
(0.109347 -3.11692e-06 0)
(0.109366 -2.08899e-06 0)
(0.10938 -1.28883e-06 0)
(0.109392 -6.80017e-07 0)
(0.109401 -1.93298e-07 0)
(0.109408 1.86436e-07 0)
(0.109413 4.36396e-07 0)
(0.109416 5.83339e-07 0)
(0.109419 6.7707e-07 0)
(0.109421 7.8657e-07 0)
(0.109422 8.56662e-07 0)
(0.109422 8.80274e-07 0)
(0.109422 8.62321e-07 0)
(0.109422 8.14298e-07 0)
(0.109421 7.41292e-07 0)
(0.10942 6.54632e-07 0)
(0.10942 5.6771e-07 0)
(0.109419 4.84531e-07 0)
(0.109418 4.07135e-07 0)
(0.109418 3.36913e-07 0)
(0.109417 2.7284e-07 0)
(0.109417 2.17571e-07 0)
(0.109417 1.71638e-07 0)
(0.109416 1.35228e-07 0)
(0.109416 1.07619e-07 0)
(0.109416 8.96587e-08 0)
(0.194152 0.00848852 0)
(0.19515 0.00954071 0)
(0.196108 0.0101364 0)
(0.196818 0.0104266 0)
(0.197245 0.0104855 0)
(0.197388 0.0103431 0)
(0.197238 0.0100325 0)
(0.196792 0.00959428 0)
(0.196064 0.00906949 0)
(0.195082 0.00849546 0)
(0.193883 0.00790437 0)
(0.192504 0.00732211 0)
(0.190982 0.00676745 0)
(0.189351 0.00625212 0)
(0.187643 0.00578178 0)
(0.185882 0.00535736 0)
(0.184088 0.00497659 0)
(0.182278 0.00463534 0)
(0.180463 0.00432865 0)
(0.178653 0.00405152 0)
(0.176854 0.0037993 0)
(0.175072 0.00356796 0)
(0.173311 0.00335415 0)
(0.171575 0.00315515 0)
(0.169868 0.00296877 0)
(0.168192 0.0027933 0)
(0.166551 0.00262738 0)
(0.164946 0.00246989 0)
(0.163381 0.00231993 0)
(0.161859 0.00217671 0)
(0.160381 0.00203957 0)
(0.158951 0.00190789 0)
(0.157571 0.00178113 0)
(0.156243 0.00165879 0)
(0.15497 0.00154041 0)
(0.153754 0.00142554 0)
(0.152598 0.00131381 0)
(0.151504 0.00120481 0)
(0.150475 0.00109815 0)
(0.149513 0.000993434 0)
(0.148622 0.000890176 0)
(0.147803 0.000787838 0)
(0.14706 0.000685844 0)
(0.146394 0.00058371 0)
(0.145807 0.000481351 0)
(0.145298 0.000379643 0)
(0.144865 0.000280955 0)
(0.144505 0.00018802 0)
(0.144209 0.000100639 0)
(0.143956 1.98877e-05 0)
(0.143763 -4.97191e-05 0)
(0.143644 -0.000103847 0)
(0.143588 -0.000141746 0)
(0.143585 -0.000165726 0)
(0.143624 -0.000178427 0)
(0.143698 -0.000182263 0)
(0.143798 -0.000179452 0)
(0.143918 -0.000171949 0)
(0.14405 -0.000161375 0)
(0.14419 -0.000149007 0)
(0.144334 -0.000135804 0)
(0.144479 -0.000122458 0)
(0.144621 -0.000109441 0)
(0.14476 -9.70549e-05 0)
(0.144893 -8.54777e-05 0)
(0.14502 -7.4797e-05 0)
(0.14514 -6.50393e-05 0)
(0.145252 -5.61918e-05 0)
(0.145356 -4.82173e-05 0)
(0.145452 -4.10659e-05 0)
(0.14554 -3.46823e-05 0)
(0.14562 -2.9011e-05 0)
(0.145691 -2.39986e-05 0)
(0.145755 -1.95956e-05 0)
(0.145811 -1.57564e-05 0)
(0.145861 -1.24384e-05 0)
(0.145903 -9.60589e-06 0)
(0.145939 -7.2201e-06 0)
(0.14597 -5.26031e-06 0)
(0.145995 -3.6939e-06 0)
(0.146016 -2.46716e-06 0)
(0.146033 -1.53054e-06 0)
(0.146046 -8.13248e-07 0)
(0.146056 -2.21121e-07 0)
(0.146064 2.10596e-07 0)
(0.14607 4.8904e-07 0)
(0.146074 6.3831e-07 0)
(0.146077 6.9041e-07 0)
(0.146079 6.97767e-07 0)
(0.146081 6.85829e-07 0)
(0.146082 6.53475e-07 0)
(0.146083 6.05768e-07 0)
(0.146083 5.4742e-07 0)
(0.146083 4.83375e-07 0)
(0.146083 4.1425e-07 0)
(0.146083 3.46803e-07 0)
(0.146083 2.85405e-07 0)
(0.146083 2.33363e-07 0)
(0.146082 1.90402e-07 0)
(0.146082 1.48466e-07 0)
(0.195026 0.00796729 0)
(0.195829 0.00892319 0)
(0.196727 0.00953626 0)
(0.19757 0.00988752 0)
(0.198311 0.0100378 0)
(0.198931 0.0100155 0)
(0.199407 0.00984441 0)
(0.199719 0.00955369 0)
(0.199853 0.00917459 0)
(0.199813 0.00873701 0)
(0.199606 0.00826796 0)
(0.19925 0.00779036 0)
(0.198764 0.00732212 0)
(0.198168 0.0068757 0)
(0.197484 0.00645856 0)
(0.196728 0.00607392 0)
(0.195917 0.0057219 0)
(0.195064 0.00540054 0)
(0.194178 0.00510674 0)
(0.193269 0.00483696 0)
(0.192341 0.00458769 0)
(0.191399 0.00435575 0)
(0.190449 0.00413838 0)
(0.189491 0.00393329 0)
(0.188531 0.00373862 0)
(0.18757 0.00355287 0)
(0.186611 0.00337482 0)
(0.185656 0.00320349 0)
(0.184708 0.00303803 0)
(0.183771 0.00287774 0)
(0.182845 0.00272199 0)
(0.181934 0.00257019 0)
(0.181042 0.00242183 0)
(0.180169 0.00227643 0)
(0.17932 0.00213353 0)
(0.178497 0.00199272 0)
(0.177704 0.00185359 0)
(0.176942 0.00171577 0)
(0.176216 0.00157887 0)
(0.175527 0.0014425 0)
(0.17488 0.00130623 0)
(0.174277 0.00116965 0)
(0.173721 0.00103242 0)
(0.173213 0.000894511 0)
(0.172755 0.000756449 0)
(0.172347 0.000619757 0)
(0.171987 0.000487097 0)
(0.171674 0.00036189 0)
(0.171407 0.000247481 0)
(0.171182 0.000145066 0)
(0.170986 5.3801e-05 0)
(0.170817 -2.49645e-05 0)
(0.170688 -8.8418e-05 0)
(0.170596 -0.000136187 0)
(0.170539 -0.000169889 0)
(0.170515 -0.000191676 0)
(0.17052 -0.000203752 0)
(0.17055 -0.000208213 0)
(0.170602 -0.000206921 0)
(0.170671 -0.000201451 0)
(0.170755 -0.000193079 0)
(0.170849 -0.000182802 0)
(0.170953 -0.000171378 0)
(0.171062 -0.000159365 0)
(0.171176 -0.000147163 0)
(0.171292 -0.000135048 0)
(0.171408 -0.000123207 0)
(0.171524 -0.00011176 0)
(0.171638 -0.000100783 0)
(0.171748 -9.0325e-05 0)
(0.171855 -8.0414e-05 0)
(0.171957 -7.10706e-05 0)
(0.172053 -6.23104e-05 0)
(0.172143 -5.41478e-05 0)
(0.172227 -4.65968e-05 0)
(0.172304 -3.96697e-05 0)
(0.172374 -3.33778e-05 0)
(0.172437 -2.77227e-05 0)
(0.172493 -2.27032e-05 0)
(0.172542 -1.8303e-05 0)
(0.172585 -1.44896e-05 0)
(0.172621 -1.1225e-05 0)
(0.172652 -8.47435e-06 0)
(0.172678 -6.22969e-06 0)
(0.172699 -4.43934e-06 0)
(0.172715 -3.05299e-06 0)
(0.172729 -2.0106e-06 0)
(0.172739 -1.24879e-06 0)
(0.172747 -6.8925e-07 0)
(0.172753 -2.79261e-07 0)
(0.172757 2.38055e-09 0)
(0.17276 1.80482e-07 0)
(0.172762 2.78067e-07 0)
(0.172764 3.16945e-07 0)
(0.172765 3.23718e-07 0)
(0.172766 3.0862e-07 0)
(0.172766 2.81947e-07 0)
(0.172766 2.52787e-07 0)
(0.172766 2.23166e-07 0)
(0.172766 1.81882e-07 0)
(0.195808 0.00752643 0)
(0.196411 0.00835102 0)
(0.197129 0.00893147 0)
(0.19786 0.00929933 0)
(0.198556 0.00949389 0)
(0.199196 0.00953856 0)
(0.199761 0.00945205 0)
(0.200232 0.0092565 0)
(0.200596 0.00897662 0)
(0.200849 0.0086369 0)
(0.200992 0.00825991 0)
(0.201032 0.0078653 0)
(0.200979 0.00746905 0)
(0.200846 0.00708303 0)
(0.200646 0.00671509 0)
(0.200391 0.00636957 0)
(0.200092 0.00604807 0)
(0.199758 0.0057502 0)
(0.199397 0.00547436 0)
(0.199014 0.00521827 0)
(0.198614 0.00497944 0)
(0.198199 0.00475544 0)
(0.197774 0.00454405 0)
(0.197339 0.00434333 0)
(0.196895 0.00415162 0)
(0.196446 0.00396754 0)
(0.19599 0.0037899 0)
(0.195531 0.00361773 0)
(0.19507 0.00345017 0)
(0.194607 0.00328648 0)
(0.194144 0.00312598 0)
(0.193683 0.00296808 0)
(0.193226 0.00281222 0)
(0.192774 0.0026579 0)
(0.192329 0.00250465 0)
(0.191893 0.00235204 0)
(0.191468 0.00219965 0)
(0.191055 0.0020471 0)
(0.190658 0.00189404 0)
(0.190278 0.00174012 0)
(0.189916 0.00158502 0)
(0.189576 0.0014285 0)
(0.189257 0.00127055 0)
(0.188961 0.00111152 0)
(0.188689 0.00095241 0)
(0.188439 0.000795123 0)
(0.188213 0.000642471 0)
(0.188008 0.000497843 0)
(0.187826 0.000364516 0)
(0.187667 0.000244955 0)
(0.187529 0.000140242 0)
(0.187408 4.97655e-05 0)
(0.1873 -2.64785e-05 0)
(0.18721 -8.79196e-05 0)
(0.187139 -0.000135227 0)
(0.187087 -0.000170034 0)
(0.187053 -0.000194241 0)
(0.187037 -0.000209738 0)
(0.187037 -0.000218273 0)
(0.187051 -0.000221382 0)
(0.187079 -0.000220359 0)
(0.187119 -0.000216254 0)
(0.187169 -0.0002099 0)
(0.187227 -0.000201938 0)
(0.187293 -0.000192854 0)
(0.187364 -0.000183005 0)
(0.18744 -0.000172652 0)
(0.18752 -0.000161984 0)
(0.187602 -0.000151139 0)
(0.187686 -0.000140221 0)
(0.18777 -0.000129313 0)
(0.187854 -0.000118489 0)
(0.187936 -0.000107817 0)
(0.188016 -9.73677e-05 0)
(0.188094 -8.72141e-05 0)
(0.188168 -7.74311e-05 0)
(0.188238 -6.80941e-05 0)
(0.188303 -5.92733e-05 0)
(0.188363 -5.1034e-05 0)
(0.188418 -4.34292e-05 0)
(0.188467 -3.64936e-05 0)
(0.188512 -3.02479e-05 0)
(0.18855 -2.47027e-05 0)
(0.188584 -1.98646e-05 0)
(0.188612 -1.57086e-05 0)
(0.188636 -1.22014e-05 0)
(0.188656 -9.29117e-06 0)
(0.188673 -6.91403e-06 0)
(0.188685 -5.01242e-06 0)
(0.188696 -3.52681e-06 0)
(0.188704 -2.39226e-06 0)
(0.18871 -1.54948e-06 0)
(0.188714 -9.42638e-07 0)
(0.188717 -5.20457e-07 0)
(0.188719 -2.31225e-07 0)
(0.188721 -4.31416e-08 0)
(0.188722 7.35118e-08 0)
(0.188723 1.41642e-07 0)
(0.188723 1.73599e-07 0)
(0.188723 1.79652e-07 0)
(0.196518 0.00716272 0)
(0.196969 0.00786445 0)
(0.197521 0.00839619 0)
(0.198109 0.00876062 0)
(0.198691 0.00897724 0)
(0.199244 0.00906286 0)
(0.19975 0.00903246 0)
(0.200195 0.00890333 0)
(0.200568 0.00869512 0)
(0.200865 0.00842786 0)
(0.201086 0.00812038 0)
(0.201234 0.00778946 0)
(0.201316 0.00744916 0)
(0.201341 0.00711045 0)
(0.201318 0.00678118 0)
(0.201255 0.00646639 0)
(0.201162 0.0061687 0)
(0.201045 0.00588899 0)
(0.200911 0.00562684 0)
(0.200763 0.00538106 0)
(0.200605 0.00515007 0)
(0.20044 0.00493211 0)
(0.200269 0.00472548 0)
(0.200094 0.00452855 0)
(0.199915 0.00433989 0)
(0.199733 0.00415823 0)
(0.199549 0.00398244 0)
(0.199362 0.00381156 0)
(0.199174 0.00364471 0)
(0.198984 0.00348112 0)
(0.198794 0.00332009 0)
(0.198603 0.00316097 0)
(0.198413 0.00300317 0)
(0.198223 0.00284614 0)
(0.198036 0.00268939 0)
(0.197851 0.00253245 0)
(0.197669 0.00237491 0)
(0.197492 0.00221637 0)
(0.197319 0.0020565 0)
(0.197152 0.00189502 0)
(0.196992 0.00173172 0)
(0.196838 0.00156656 0)
(0.196692 0.00139975 0)
(0.196553 0.00123192 0)
(0.19642 0.00106432 0)
(0.196293 0.000898909 0)
(0.196173 0.000738381 0)
(0.196058 0.000585817 0)
(0.195949 0.000444209 0)
(0.195848 0.000316022 0)
(0.195755 0.000202918 0)
(0.195672 0.000105346 0)
(0.195597 2.26021e-05 0)
(0.195529 -4.58882e-05 0)
(0.19547 -0.000100776 0)
(0.195422 -0.000143349 0)
(0.195384 -0.000175234 0)
(0.195356 -0.000198105 0)
(0.195338 -0.000213554 0)
(0.19533 -0.000223015 0)
(0.19533 -0.00022773 0)
(0.195339 -0.000228737 0)
(0.195354 -0.000226877 0)
(0.195376 -0.000222819 0)
(0.195403 -0.000217078 0)
(0.195435 -0.000210045 0)
(0.195472 -0.000202012 0)
(0.195511 -0.000193195 0)
(0.195554 -0.000183754 0)
(0.195599 -0.000173811 0)
(0.195646 -0.000163466 0)
(0.195693 -0.000152805 0)
(0.195741 -0.000141913 0)
(0.19579 -0.000130878 0)
(0.195837 -0.000119794 0)
(0.195884 -0.000108763 0)
(0.195929 -9.78928e-05 0)
(0.195972 -8.72928e-05 0)
(0.196013 -7.70724e-05 0)
(0.196051 -6.73338e-05 0)
(0.196087 -5.8166e-05 0)
(0.196119 -4.96454e-05 0)
(0.196148 -4.18357e-05 0)
(0.196173 -3.47886e-05 0)
(0.196196 -2.85276e-05 0)
(0.196215 -2.30542e-05 0)
(0.196231 -1.83448e-05 0)
(0.196245 -1.43559e-05 0)
(0.196256 -1.1034e-05 0)
(0.196265 -8.31496e-06 0)
(0.196272 -6.1291e-06 0)
(0.196278 -4.40665e-06 0)
(0.196282 -3.07698e-06 0)
(0.196285 -2.07271e-06 0)
(0.196288 -1.33727e-06 0)
(0.196289 -8.15787e-07 0)
(0.19629 -4.5587e-07 0)
(0.196291 -2.1234e-07 0)
(0.196291 -5.41008e-08 0)
(0.196291 6.66853e-08 0)
(0.197167 0.00686433 0)
(0.197503 0.00746053 0)
(0.197918 0.00793733 0)
(0.198374 0.00828529 0)
(0.198838 0.00851057 0)
(0.199287 0.00862324 0)
(0.199707 0.00863434 0)
(0.200084 0.00855691 0)
(0.200409 0.00840604 0)
(0.20068 0.00819765 0)
(0.200893 0.0079472 0)
(0.201052 0.00766887 0)
(0.201161 0.00737495 0)
(0.201227 0.00707548 0)
(0.201255 0.00677814 0)
(0.201254 0.00648835 0)
(0.20123 0.00620954 0)
(0.201189 0.00594354 0)
(0.201136 0.00569098 0)
(0.201074 0.00545162 0)
(0.201007 0.00522471 0)
(0.200936 0.00500918 0)
(0.200864 0.00480384 0)
(0.200791 0.00460749 0)
(0.200718 0.00441894 0)
(0.200646 0.00423711 0)
(0.200574 0.00406099 0)
(0.200503 0.00388965 0)
(0.200433 0.00372226 0)
(0.200364 0.00355804 0)
(0.200295 0.00339627 0)
(0.200228 0.00323628 0)
(0.200161 0.00307747 0)
(0.200095 0.00291927 0)
(0.200031 0.00276114 0)
(0.199968 0.00260262 0)
(0.199906 0.00244328 0)
(0.199845 0.00228275 0)
(0.199786 0.00212074 0)
(0.199727 0.00195702 0)
(0.19967 0.00179151 0)
(0.199614 0.0016243 0)
(0.199558 0.00145577 0)
(0.199502 0.00128668 0)
(0.199445 0.00111833 0)
(0.199385 0.000952584 0)
(0.199324 0.000791831 0)
(0.19926 0.000638756 0)
(0.199195 0.000495978 0)
(0.19913 0.000365714 0)
(0.199066 0.000249565 0)
(0.199004 0.000148367 0)
(0.198947 6.19221e-05 0)
(0.198894 -1.05473e-05 0)
(0.198846 -6.99455e-05 0)
(0.198804 -0.000117402 0)
(0.198768 -0.000154305 0)
(0.198738 -0.000182127 0)
(0.198715 -0.000202306 0)
(0.198698 -0.000216167 0)
(0.198687 -0.000224889 0)
(0.198681 -0.000229479 0)
(0.19868 -0.000230779 0)
(0.198682 -0.000229471 0)
(0.198689 -0.000226098 0)
(0.198698 -0.000221079 0)
(0.19871 -0.000214736 0)
(0.198724 -0.000207312 0)
(0.19874 -0.00019899 0)
(0.198757 -0.000189912 0)
(0.198776 -0.000180192 0)
(0.198795 -0.000169928 0)
(0.198815 -0.000159216 0)
(0.198835 -0.000148151 0)
(0.198856 -0.000136838 0)
(0.198876 -0.000125388 0)
(0.198895 -0.000113922 0)
(0.198914 -0.000102567 0)
(0.198933 -9.14527e-05 0)
(0.19895 -8.07046e-05 0)
(0.198966 -7.04406e-05 0)
(0.19898 -6.07673e-05 0)
(0.198994 -5.17775e-05 0)
(0.199005 -4.35476e-05 0)
(0.199016 -3.61272e-05 0)
(0.199025 -2.95405e-05 0)
(0.199033 -2.37851e-05 0)
(0.199039 -1.88356e-05 0)
(0.199045 -1.46501e-05 0)
(0.199049 -1.11723e-05 0)
(0.199052 -8.33531e-06 0)
(0.199055 -6.0656e-06 0)
(0.199057 -4.28553e-06 0)
(0.199058 -2.91881e-06 0)
(0.199059 -1.89663e-06 0)
(0.19906 -1.15624e-06 0)
(0.19906 -6.33289e-07 0)
(0.19906 -2.67442e-07 0)
(0.19906 -3.03641e-08 0)
(0.19906 1.34267e-07 0)
(0.197733 0.00662854 0)
(0.197982 0.00714244 0)
(0.198291 0.00756947 0)
(0.198637 0.00789704 0)
(0.198996 0.00812387 0)
(0.199351 0.00825447 0)
(0.199686 0.00829609 0)
(0.199992 0.00825817 0)
(0.200261 0.00815211 0)
(0.200489 0.00799042 0)
(0.200674 0.00778574 0)
(0.200818 0.00755004 0)
(0.200923 0.00729407 0)
(0.200993 0.00702699 0)
(0.201034 0.00675617 0)
(0.201052 0.00648721 0)
(0.20105 0.00622406 0)
(0.201034 0.00596927 0)
(0.201009 0.00572424 0)
(0.200976 0.00548954 0)
(0.20094 0.00526511 0)
(0.200902 0.00505048 0)
(0.200863 0.00484497 0)
(0.200824 0.00464772 0)
(0.200787 0.00445784 0)
(0.200751 0.00427445 0)
(0.200717 0.00409666 0)
(0.200685 0.00392365 0)
(0.200655 0.00375462 0)
(0.200627 0.00358882 0)
(0.2006 0.00342556 0)
(0.200575 0.00326417 0)
(0.200552 0.00310406 0)
(0.20053 0.00294465 0)
(0.200509 0.00278542 0)
(0.200489 0.00262591 0)
(0.200471 0.00246571 0)
(0.200452 0.00230449 0)
(0.200435 0.00214199 0)
(0.200417 0.00197807 0)
(0.200398 0.00181272 0)
(0.200379 0.00164615 0)
(0.200358 0.00147881 0)
(0.200334 0.00131154 0)
(0.200307 0.00114556 0)
(0.200275 0.000982587 0)
(0.20024 0.000824687 0)
(0.2002 0.000674156 0)
(0.200156 0.000533238 0)
(0.200109 0.000403872 0)
(0.200061 0.000287511 0)
(0.200013 0.000185002 0)
(0.199967 9.64846e-05 0)
(0.199923 2.14214e-05 0)
(0.199882 -4.10561e-05 0)
(0.199845 -9.19768e-05 0)
(0.199813 -0.000132533 0)
(0.199785 -0.000164019 0)
(0.199762 -0.000187729 0)
(0.199744 -0.000204885 0)
(0.199729 -0.000216601 0)
(0.199718 -0.000223853 0)
(0.199711 -0.000227474 0)
(0.199706 -0.000228157 0)
(0.199704 -0.000226464 0)
(0.199704 -0.000222846 0)
(0.199705 -0.000217654 0)
(0.199708 -0.000211161 0)
(0.199712 -0.000203578 0)
(0.199717 -0.000195072 0)
(0.199722 -0.000185777 0)
(0.199728 -0.000175812 0)
(0.199734 -0.000165284 0)
(0.19974 -0.000154305 0)
(0.199746 -0.000142986 0)
(0.199752 -0.00013145 0)
(0.199758 -0.000119825 0)
(0.199764 -0.000108247 0)
(0.199769 -9.68524e-05 0)
(0.199774 -8.57774e-05 0)
(0.199778 -7.51496e-05 0)
(0.199783 -6.50859e-05 0)
(0.199786 -5.56885e-05 0)
(0.199789 -4.70415e-05 0)
(0.199792 -3.92043e-05 0)
(0.199794 -3.221e-05 0)
(0.199796 -2.60653e-05 0)
(0.199797 -2.07531e-05 0)
(0.199798 -1.62364e-05 0)
(0.199799 -1.24626e-05 0)
(0.199799 -9.36634e-06 0)
(0.199799 -6.87391e-06 0)
(0.199799 -4.90593e-06 0)
(0.199799 -3.38436e-06 0)
(0.199799 -2.23768e-06 0)
(0.199799 -1.40558e-06 0)
(0.199798 -8.13287e-07 0)
(0.199798 -3.88112e-07 0)
(0.199798 -9.00517e-08 0)
(0.199797 1.08499e-07 0)
(0.198295 0.00643923 0)
(0.19847 0.00688555 0)
(0.198688 0.00726625 0)
(0.198934 0.00756965 0)
(0.199194 0.00779116 0)
(0.199455 0.0079314 0)
(0.199704 0.00799437 0)
(0.199935 0.00798649 0)
(0.200141 0.00791609 0)
(0.200318 0.00779278 0)
(0.200465 0.00762666 0)
(0.200582 0.00742767 0)
(0.20067 0.00720506 0)
(0.200733 0.00696702 0)
(0.200773 0.00672048 0)
(0.200795 0.00647099 0)
(0.200802 0.00622279 0)
(0.200797 0.00597894 0)
(0.200785 0.00574145 0)
(0.200766 0.00551151 0)
(0.200745 0.00528969 0)
(0.200721 0.00507606 0)
(0.200697 0.00487037 0)
(0.200674 0.00467215 0)
(0.200651 0.00448079 0)
(0.20063 0.00429561 0)
(0.200611 0.00411588 0)
(0.200594 0.00394087 0)
(0.200578 0.00376988 0)
(0.200565 0.00360221 0)
(0.200553 0.0034372 0)
(0.200543 0.0032742 0)
(0.200534 0.00311263 0)
(0.200527 0.00295195 0)
(0.200521 0.00279165 0)
(0.200516 0.00263129 0)
(0.200511 0.00247049 0)
(0.200508 0.00230896 0)
(0.200504 0.00214649 0)
(0.2005 0.00198301 0)
(0.200495 0.00181859 0)
(0.200489 0.00165349 0)
(0.20048 0.00148824 0)
(0.200469 0.00132367 0)
(0.200455 0.00116094 0)
(0.200437 0.00100156 0)
(0.200414 0.000847341 0)
(0.200388 0.000700218 0)
(0.200358 0.000562099 0)
(0.200324 0.000434659 0)
(0.200289 0.000319185 0)
(0.200253 0.000216478 0)
(0.200217 0.000126798 0)
(0.200183 4.98611e-05 0)
(0.200151 -1.50001e-05 0)
(0.200122 -6.86713e-05 0)
(0.200095 -0.000112182 0)
(0.200073 -0.000146666 0)
(0.200053 -0.000173287 0)
(0.200036 -0.000193171 0)
(0.200023 -0.000207363 0)
(0.200012 -0.000216804 0)
(0.200004 -0.000222312 0)
(0.199998 -0.000224583 0)
(0.199993 -0.000224197 0)
(0.19999 -0.000221625 0)
(0.199988 -0.000217246 0)
(0.199987 -0.000211361 0)
(0.199987 -0.000204208 0)
(0.199987 -0.00019598 0)
(0.199988 -0.000186837 0)
(0.199988 -0.000176918 0)
(0.199989 -0.000166352 0)
(0.19999 -0.000155267 0)
(0.19999 -0.000143792 0)
(0.199991 -0.000132064 0)
(0.199991 -0.000120223 0)
(0.199991 -0.000108417 0)
(0.199991 -9.6793e-05 0)
(0.199991 -8.54954e-05 0)
(0.19999 -7.46601e-05 0)
(0.199989 -6.44101e-05 0)
(0.199988 -5.48517e-05 0)
(0.199987 -4.60706e-05 0)
(0.199986 -3.81269e-05 0)
(0.199985 -3.10536e-05 0)
(0.199984 -2.4857e-05 0)
(0.199983 -1.95186e-05 0)
(0.199981 -1.49992e-05 0)
(0.19998 -1.12428e-05 0)
(0.199979 -8.18102e-06 0)
(0.199978 -5.73697e-06 0)
(0.199977 -3.82632e-06 0)
(0.199976 -2.36952e-06 0)
(0.199975 -1.29389e-06 0)
(0.199974 -5.53561e-07 0)
(0.199973 -5.81805e-08 0)
(0.199973 2.40531e-07 0)
(0.199972 4.26615e-07 0)
(0.199972 5.31852e-07 0)
(0.198895 0.00627158 0)
(0.198998 0.00666331 0)
(0.199127 0.00700436 0)
(0.199274 0.00728493 0)
(0.199431 0.00749923 0)
(0.199592 0.00764545 0)
(0.199748 0.00772501 0)
(0.199894 0.00774181 0)
(0.200027 0.00770159 0)
(0.200143 0.00761147 0)
(0.200241 0.00747932 0)
(0.200322 0.00731321 0)
(0.200384 0.00712099 0)
(0.200431 0.00690987 0)
(0.200463 0.00668624 0)
(0.200483 0.0064555 0)
(0.200493 0.00622203 0)
(0.200495 0.00598921 0)
(0.200492 0.00575955 0)
(0.200484 0.00553475 0)
(0.200474 0.00531589 0)
(0.200462 0.00510354 0)
(0.200449 0.00489787 0)
(0.200437 0.00469876 0)
(0.200425 0.00450589 0)
(0.200414 0.00431881 0)
(0.200403 0.00413696 0)
(0.200395 0.00395974 0)
(0.200387 0.00378654 0)
(0.20038 0.00361672 0)
(0.200375 0.00344967 0)
(0.200371 0.00328479 0)
(0.200368 0.00312153 0)
(0.200366 0.00295936 0)
(0.200365 0.00279781 0)
(0.200364 0.00263646 0)
(0.200364 0.00247499 0)
(0.200364 0.00231312 0)
(0.200364 0.0021507 0)
(0.200364 0.00198772 0)
(0.200364 0.0018243 0)
(0.200362 0.00166075 0)
(0.200359 0.00149764 0)
(0.200354 0.00133575 0)
(0.200346 0.00117618 0)
(0.200336 0.00102027 0)
(0.200323 0.000869564 0)
(0.200307 0.000725708 0)
(0.200289 0.00059032 0)
(0.200269 0.000464837 0)
(0.200247 0.000350396 0)
(0.200224 0.000247746 0)
(0.200202 0.000157204 0)
(0.20018 7.86656e-05 0)
(0.20016 1.16651e-05 0)
(0.200141 -4.45191e-05 0)
(0.200124 -9.07627e-05 0)
(0.200109 -0.000128053 0)
(0.200096 -0.000157427 0)
(0.200085 -0.000179917 0)
(0.200077 -0.000196499 0)
(0.20007 -0.000208076 0)
(0.200064 -0.000215448 0)
(0.20006 -0.000219311 0)
(0.200057 -0.000220257 0)
(0.200055 -0.000218779 0)
(0.200053 -0.00021528 0)
(0.200052 -0.000210089 0)
(0.200052 -0.000203471 0)
(0.200051 -0.000195646 0)
(0.200051 -0.000186796 0)
(0.200051 -0.000177085 0)
(0.20005 -0.000166658 0)
(0.20005 -0.000155662 0)
(0.200049 -0.000144237 0)
(0.200048 -0.000132533 0)
(0.200046 -0.0001207 0)
(0.200044 -0.000108891 0)
(0.200042 -9.72598e-05 0)
(0.20004 -8.59532e-05 0)
(0.200038 -7.51099e-05 0)
(0.200035 -6.48539e-05 0)
(0.200032 -5.52914e-05 0)
(0.200029 -4.65062e-05 0)
(0.200027 -3.85574e-05 0)
(0.200024 -3.14772e-05 0)
(0.200021 -2.52719e-05 0)
(0.200018 -1.99236e-05 0)
(0.200016 -1.5394e-05 0)
(0.200013 -1.16286e-05 0)
(0.200011 -8.5602e-06 0)
(0.200009 -6.11288e-06 0)
(0.200007 -4.18722e-06 0)
(0.200006 -2.70758e-06 0)
(0.200004 -1.60946e-06 0)
(0.200003 -8.01289e-07 0)
(0.200002 -2.39565e-07 0)
(0.200001 1.07322e-07 0)
(0.200001 3.06292e-07 0)
(0.2 4.18951e-07 0)
(0.199521 0.00618872 0)
(0.19955 0.00654577 0)
(0.199587 0.00685915 0)
(0.199632 0.00712056 0)
(0.199683 0.00732435 0)
(0.199736 0.00746794 0)
(0.19979 0.00755164 0)
(0.199842 0.00757806 0)
(0.199891 0.00755164 0)
(0.199936 0.00747808 0)
(0.199975 0.00736394 0)
(0.200009 0.00721614 0)
(0.200038 0.00704158 0)
(0.200061 0.00684677 0)
(0.20008 0.00663763 0)
(0.200094 0.00641929 0)
(0.200104 0.00619608 0)
(0.200112 0.00597145 0)
(0.200117 0.00574808 0)
(0.200121 0.00552792 0)
(0.200123 0.0053123 0)
(0.200124 0.00510205 0)
(0.200125 0.00489758 0)
(0.200125 0.00469898 0)
(0.200126 0.00450612 0)
(0.200126 0.00431866 0)
(0.200127 0.00413619 0)
(0.200127 0.00395818 0)
(0.200128 0.0037841 0)
(0.20013 0.00361337 0)
(0.200132 0.00344541 0)
(0.200134 0.00327968 0)
(0.200136 0.00311563 0)
(0.200139 0.00295278 0)
(0.200142 0.00279067 0)
(0.200145 0.00262894 0)
(0.200148 0.00246728 0)
(0.200151 0.00230545 0)
(0.200155 0.00214335 0)
(0.200158 0.00198099 0)
(0.20016 0.00181856 0)
(0.200163 0.00165639 0)
(0.200164 0.00149506 0)
(0.200165 0.00133534 0)
(0.200165 0.00117826 0)
(0.200164 0.00102505 0)
(0.200162 0.000877088 0)
(0.200158 0.000735835 0)
(0.200154 0.000602717 0)
(0.200149 0.000479015 0)
(0.200143 0.000365755 0)
(0.200136 0.00026364 0)
(0.20013 0.000173009 0)
(0.200123 9.3834e-05 0)
(0.200117 2.5771e-05 0)
(0.200112 -3.17626e-05 0)
(0.200107 -7.95453e-05 0)
(0.200102 -0.000118465 0)
(0.200099 -0.000149469 0)
(0.200096 -0.000173512 0)
(0.200093 -0.00019152 0)
(0.200091 -0.000204353 0)
(0.20009 -0.000212791 0)
(0.200089 -0.000217515 0)
(0.200088 -0.000219115 0)
(0.200088 -0.000218085 0)
(0.200088 -0.000214837 0)
(0.200088 -0.000209713 0)
(0.200087 -0.000202992 0)