/*--------------------------------*- C++ -*----------------------------------*\
| =========                 |                                                 |
| \\      /  F ield         | OpenFOAM: The Open Source CFD Toolbox           |
|  \\    /   O peration     | Version:  2.3.0                                 |
|   \\  /    A nd           | Web:      www.OpenFOAM.org                      |
|    \\/     M anipulation  |                                                 |
\*---------------------------------------------------------------------------*/
FoamFile
{
    version     2.0;
    format      ascii;
    class       surfaceScalarField;
    location    "0.25";
    object      phi;
}
// * * * * * * * * * * * * * * * * * * * * * * * * * * * * * * * * * * * * * //

dimensions      [0 3 -1 0 0 0 0];

internalField   nonuniform List<scalar> 
11667
(
2.26002e-08
2.20924e-09
-2.48094e-08
1.99159e-08
2.68433e-09
1.72447e-08
2.67115e-09
1.47888e-08
2.4559e-09
1.25842e-08
2.20466e-09
1.06765e-08
1.9077e-09
9.11256e-09
1.5639e-09
7.89231e-09
1.22025e-09
6.98168e-09
9.1063e-10
6.3213e-09
6.60379e-10
5.84632e-09
4.7498e-10
5.49991e-09
3.4641e-10
5.23812e-09
2.61789e-10
5.02965e-09
2.08476e-10
4.85347e-09
1.76183e-10
4.69682e-09
1.56648e-10
4.55287e-09
1.43945e-10
4.41845e-09
1.3442e-10
4.29229e-09
1.26157e-10
4.17395e-09
1.18343e-10
4.06318e-09
1.1077e-10
3.95968e-09
1.035e-10
3.86303e-09
9.66563e-11
3.7727e-09
9.03243e-11
3.68817e-09
8.45319e-11
3.60891e-09
7.92634e-11
3.53442e-09
7.4482e-11
3.46428e-09
7.0144e-11
3.39808e-09
6.62031e-11
3.33546e-09
6.26132e-11
3.27613e-09
5.9332e-11
3.21981e-09
5.63229e-11
3.16625e-09
5.35561e-11
3.11525e-09
5.10057e-11
3.0666e-09
4.8648e-11
3.02014e-09
4.64606e-11
2.97572e-09
4.44226e-11
2.9332e-09
4.25156e-11
2.89248e-09
4.07235e-11
2.85344e-09
3.90334e-11
2.81601e-09
3.74348e-11
2.78009e-09
3.59193e-11
2.74561e-09
3.44803e-11
2.7125e-09
3.3112e-11
2.68069e-09
3.18087e-11
2.65012e-09
3.05649e-11
2.62075e-09
2.93744e-11
2.59252e-09
2.82319e-11
2.56538e-09
2.71328e-11
2.53931e-09
2.60742e-11
2.51426e-09
2.50547e-11
2.49018e-09
2.40733e-11
2.46705e-09
2.31293e-11
2.44483e-09
2.22208e-11
2.42349e-09
2.13452e-11
2.40299e-09
2.0499e-11
2.38331e-09
1.96786e-11
2.36443e-09
1.88807e-11
2.34632e-09
1.81032e-11
2.32898e-09
1.73444e-11
2.31238e-09
1.66032e-11
2.2965e-09
1.5878e-11
2.28133e-09
1.51674e-11
2.26686e-09
1.44694e-11
2.25308e-09
1.37823e-11
2.23998e-09
1.31046e-11
2.22754e-09
1.24354e-11
2.21577e-09
1.17743e-11
2.20465e-09
1.11207e-11
2.19417e-09
1.04741e-11
2.18434e-09
9.83385e-12
2.17514e-09
9.19912e-12
2.16657e-09
8.56908e-12
2.15863e-09
7.94333e-12
2.1513e-09
7.32172e-12
2.1446e-09
6.70349e-12
2.13851e-09
6.08764e-12
2.13304e-09
5.47397e-12
2.12818e-09
4.86251e-12
2.12392e-09
4.25243e-12
2.12028e-09
3.64324e-12
2.11724e-09
3.03768e-12
2.1148e-09
2.44052e-12
2.11295e-09
1.85384e-12
2.11167e-09
1.27906e-12
2.11095e-09
7.20645e-13
2.11078e-09
1.69191e-13
2.1111e-09
-3.22434e-13
2.11186e-09
-7.61154e-13
2.11302e-09
-1.15925e-12
2.11451e-09
-1.49223e-12
2.11629e-09
-1.77333e-12
2.11827e-09
-1.98125e-12
2.1204e-09
-2.12624e-12
2.12261e-09
-2.21512e-12
2.12486e-09
-2.25012e-12
2.1271e-09
-2.23904e-12
2.12929e-09
-2.18988e-12
2.1314e-09
-2.11075e-12
2.13341e-09
-2.01352e-12
2.13532e-09
-1.90753e-12
2.13712e-09
-1.79837e-12
2.13881e-09
-1.69199e-12
2.1404e-09
-1.59188e-12
2.14191e-09
-1.50111e-12
2.14333e-09
-1.42041e-12
2.14468e-09
-1.35009e-12
2.14596e-09
-1.28925e-12
2.1472e-09
-1.23717e-12
2.14839e-09
-1.1916e-12
2.14955e-09
-1.15188e-12
2.15066e-09
-1.11577e-12
2.15174e-09
-1.08224e-12
2.15279e-09
-1.049e-12
2.15381e-09
-1.01679e-12
2.15479e-09
-9.84141e-13
2.15574e-09
-9.51488e-13
2.15666e-09
-9.17476e-13
2.15755e-09
-8.83724e-13
2.15839e-09
-8.4786e-13
2.15921e-09
-8.12702e-13
2.15998e-09
-7.75613e-13
2.16072e-09
-7.40222e-13
2.16143e-09
-7.03613e-13
2.1621e-09
-6.6937e-13
2.16273e-09
-6.34093e-13
2.16333e-09
-6.01022e-13
2.1639e-09
-5.66902e-13
2.16443e-09
-5.3482e-13
2.16493e-09
-5.01808e-13
2.16541e-09
-4.71387e-13
2.16585e-09
-4.40237e-13
2.16626e-09
-4.12484e-13
2.16664e-09
-3.84079e-13
2.167e-09
-3.59191e-13
2.16733e-09
-3.33573e-13
2.16765e-09
-3.10901e-13
2.16793e-09
-2.8727e-13
2.1682e-09
-2.66093e-13
2.16844e-09
-2.4396e-13
2.16867e-09
-2.23883e-13
2.16887e-09
-2.03764e-13
2.16906e-09
-1.8493e-13
2.16922e-09
-1.67887e-13
2.16937e-09
-1.5079e-13
2.16951e-09
-1.38105e-13
2.16964e-09
-1.22804e-13
2.16975e-09
-1.15306e-13
2.16985e-09
-1.01313e-13
-1.04799e-13
2.68505e-08
1.96745e-09
-2.66087e-08
2.6737e-08
2.79778e-09
2.62243e-08
3.18389e-09
2.54727e-08
3.20748e-09
2.45832e-08
3.09421e-09
2.35878e-08
2.90309e-09
2.25129e-08
2.63874e-09
2.14111e-08
2.32211e-09
2.03327e-08
1.98897e-09
1.93142e-08
1.67894e-09
1.83735e-08
1.41568e-09
1.75159e-08
1.20404e-09
1.67404e-08
1.03724e-09
1.60439e-08
9.05026e-10
1.5419e-08
8.01085e-10
1.48573e-08
7.1835e-10
1.43504e-08
6.50841e-10
1.38906e-08
5.94174e-10
1.34714e-08
5.45392e-10
1.30871e-08
5.02604e-10
1.27332e-08
4.6465e-10
1.24059e-08
4.30817e-10
1.2102e-08
4.00613e-10
1.18187e-08
3.73624e-10
1.15537e-08
3.4946e-10
1.13052e-08
3.27754e-10
1.10715e-08
3.08182e-10
1.08512e-08
2.90468e-10
1.0643e-08
2.74376e-10
1.0446e-08
2.597e-10
1.0259e-08
2.46262e-10
1.00814e-08
2.33911e-10
9.91246e-09
2.22526e-10
9.75147e-09
2.11999e-10
9.59788e-09
2.02239e-10
9.45118e-09
1.93161e-10
9.31091e-09
1.84689e-10
9.17667e-09
1.76756e-10
9.04809e-09
1.69304e-10
8.92484e-09
1.62285e-10
8.80662e-09
1.55656e-10
8.69316e-09
1.49382e-10
8.5842e-09
1.43433e-10
8.47953e-09
1.37782e-10
8.37894e-09
1.32403e-10
8.28223e-09
1.27272e-10
8.18924e-09
1.22366e-10
8.09981e-09
1.17663e-10
8.0138e-09
1.13146e-10
7.93107e-09
1.08799e-10
7.85151e-09
1.04615e-10
7.775e-09
1.00583e-10
7.70144e-09
9.66967e-11
7.63071e-09
9.2946e-11
7.56273e-09
8.93202e-11
7.49743e-09
8.58066e-11
7.43471e-09
8.23933e-11
7.37452e-09
7.90695e-11
7.3168e-09
7.58269e-11
7.26149e-09
7.26591e-11
7.20853e-09
6.95603e-11
7.15788e-09
6.6525e-11
7.1095e-09
6.35469e-11
7.06335e-09
6.06197e-11
7.0194e-09
5.77372e-11
6.97761e-09
5.48947e-11
6.93795e-09
5.20887e-11
6.90041e-09
4.93167e-11
6.86496e-09
4.65764e-11
6.83156e-09
4.38654e-11
6.80022e-09
4.11816e-11
6.77089e-09
3.85228e-11
6.74357e-09
3.5887e-11
6.71824e-09
3.32733e-11
6.69488e-09
3.06819e-11
6.67348e-09
2.81119e-11
6.654e-09
2.55626e-11
6.63644e-09
2.30354e-11
6.62077e-09
2.0533e-11
6.60696e-09
1.80571e-11
6.595e-09
1.56109e-11
6.58483e-09
1.32051e-11
6.57641e-09
1.08557e-11
6.56969e-09
8.5765e-12
6.56459e-09
6.38034e-12
6.56102e-09
4.2861e-12
6.55889e-09
2.30707e-12
6.55807e-09
4.92174e-13
6.5584e-09
-1.09241e-12
6.55975e-09
-2.50814e-12
6.56195e-09
-3.68917e-12
6.56485e-09
-4.67076e-12
6.56827e-09
-5.408e-12
6.57208e-09
-5.93338e-12
6.57614e-09
-6.2701e-12
6.58032e-09
-6.43333e-12
6.58453e-09
-6.45073e-12
6.58869e-09
-6.35068e-12
6.59274e-09
-6.16144e-12
6.59665e-09
-5.9186e-12
6.60039e-09
-5.64967e-12
6.60396e-09
-5.37223e-12
6.60737e-09
-5.10303e-12
6.61063e-09
-4.85196e-12
6.61376e-09
-4.62693e-12
6.61677e-09
-4.42915e-12
6.61968e-09
-4.25867e-12
6.6225e-09
-4.11238e-12
6.62525e-09
-3.98719e-12
6.62794e-09
-3.87685e-12
6.63056e-09
-3.77881e-12
6.63313e-09
-3.68699e-12
6.63565e-09
-3.59822e-12
6.63811e-09
-3.50694e-12
6.64051e-09
-3.41487e-12
6.64284e-09
-3.31853e-12
6.64511e-09
-3.219e-12
6.6473e-09
-3.11349e-12
6.64943e-09
-3.00597e-12
6.65147e-09
-2.8914e-12
6.65343e-09
-2.77673e-12
6.65531e-09
-2.65618e-12
6.65711e-09
-2.53848e-12
6.65883e-09
-2.41707e-12
6.66046e-09
-2.30058e-12
6.662e-09
-2.18117e-12
6.66347e-09
-2.0669e-12
6.66485e-09
-1.95006e-12
6.66616e-09
-1.83872e-12
6.66738e-09
-1.7254e-12
6.66853e-09
-1.61954e-12
6.6696e-09
-1.51225e-12
6.6706e-09
-1.41481e-12
6.67154e-09
-1.31587e-12
6.6724e-09
-1.22758e-12
6.67321e-09
-1.13718e-12
6.67395e-09
-1.05677e-12
6.67464e-09
-9.73258e-13
6.67527e-09
-8.99478e-13
6.67585e-09
-8.2195e-13
6.67638e-09
-7.54445e-13
6.67686e-09
-6.84133e-13
6.6773e-09
-6.23761e-13
6.67769e-09
-5.62756e-13
6.67806e-09
-5.11245e-13
6.67838e-09
-4.6151e-13
6.67868e-09
-4.20294e-13
6.67894e-09
-3.81598e-13
6.6792e-09
-3.54298e-13
-3.32764e-13
2.78792e-08
1.8531e-09
-2.77649e-08
2.81906e-08
2.48641e-09
2.84145e-08
2.96002e-09
2.84825e-08
3.13946e-09
2.84375e-08
3.1392e-09
2.82877e-08
3.05293e-09
2.8023e-08
2.90341e-09
2.76495e-08
2.69559e-09
2.71893e-08
2.44916e-09
2.66716e-08
2.19665e-09
2.61218e-08
1.96548e-09
2.55578e-08
1.76803e-09
2.49914e-08
1.6037e-09
2.44297e-08
1.46671e-09
2.38787e-08
1.35208e-09
2.33421e-08
1.2549e-09
2.28222e-08
1.17074e-09
2.23202e-08
1.09619e-09
2.18367e-08
1.0289e-09
2.13719e-08
9.67363e-10
2.09259e-08
9.10691e-10
2.04984e-08
8.58364e-10
2.0089e-08
8.10021e-10
1.96972e-08
7.65365e-10
1.93226e-08
7.24109e-10
1.89643e-08
6.85969e-10
1.86218e-08
6.50687e-10
1.82943e-08
6.18027e-10
1.79809e-08
5.8777e-10
1.76809e-08
5.59708e-10
1.73935e-08
5.33637e-10
1.7118e-08
5.0937e-10
1.68538e-08
4.86736e-10
1.66003e-08
4.65581e-10
1.63567e-08
4.45765e-10
1.61227e-08
4.27155e-10
1.58978e-08
4.09635e-10
1.56814e-08
3.93101e-10
1.54733e-08
3.77463e-10
1.52729e-08
3.62645e-10
1.508e-08
3.48584e-10
1.48942e-08
3.35221e-10
1.47151e-08
3.22505e-10
1.45425e-08
3.10388e-10
1.43761e-08
2.98824e-10
1.42156e-08
2.87767e-10
1.40608e-08
2.77172e-10
1.39114e-08
2.66997e-10
1.37674e-08
2.57207e-10
1.36284e-08
2.47771e-10
1.34943e-08
2.38667e-10
1.3365e-08
2.29874e-10
1.32404e-08
2.21374e-10
1.31202e-08
2.13145e-10
1.30043e-08
2.05165e-10
1.28927e-08
1.97409e-10
1.27853e-08
1.89854e-10
1.26819e-08
1.8248e-10
1.25824e-08
1.75269e-10
1.24869e-08
1.6821e-10
1.23951e-08
1.61292e-10
1.23072e-08
1.54502e-10
1.22229e-08
1.47829e-10
1.21422e-08
1.41261e-10
1.20652e-08
1.34786e-10
1.19917e-08
1.28395e-10
1.19217e-08
1.22081e-10
1.18552e-08
1.15839e-10
1.17921e-08
1.09664e-10
1.17324e-08
1.03552e-10
1.16761e-08
9.74988e-11
1.16231e-08
9.15004e-11
1.15734e-08
8.55541e-11
1.1527e-08
7.96591e-11
1.14839e-08
7.38173e-11
1.1444e-08
6.80292e-11
1.14073e-08
6.2296e-11
1.13737e-08
5.66231e-11
1.13432e-08
5.102e-11
1.13157e-08
4.54946e-11
1.12913e-08
4.00569e-11
1.12698e-08
3.47305e-11
1.12511e-08
2.95476e-11
1.12351e-08
2.45375e-11
1.12218e-08
1.97287e-11
1.12109e-08
1.51625e-11
1.12023e-08
1.08844e-11
1.11959e-08
6.95397e-12
1.11914e-08
3.41364e-12
1.11885e-08
3.1133e-13
1.11872e-08
-2.3321e-12
1.11871e-08
-4.56875e-12
1.1188e-08
-6.31787e-12
1.11897e-08
-7.64757e-12
1.1192e-08
-8.59707e-12
1.11948e-08
-9.19968e-12
1.11978e-08
-9.5075e-12
1.12011e-08
-9.57699e-12
1.12044e-08
-9.46225e-12
1.12077e-08
-9.22982e-12
1.1211e-08
-8.93166e-12
1.12142e-08
-8.60278e-12
1.12174e-08
-8.2751e-12
1.12205e-08
-7.96826e-12
1.12236e-08
-7.69765e-12
1.12266e-08
-7.46633e-12
1.12296e-08
-7.27507e-12
1.12326e-08
-7.11894e-12
1.12356e-08
-6.99229e-12
1.12386e-08
-6.88431e-12
1.12416e-08
-6.79025e-12
1.12447e-08
-6.69985e-12
1.12477e-08
-6.60695e-12
1.12507e-08
-6.50239e-12
1.12536e-08
-6.38898e-12
1.12566e-08
-6.26114e-12
1.12595e-08
-6.12038e-12
1.12623e-08
-5.96312e-12
1.12651e-08
-5.79575e-12
1.12678e-08
-5.61072e-12
1.12705e-08
-5.41976e-12
1.1273e-08
-5.21405e-12
1.12755e-08
-5.00808e-12
1.12779e-08
-4.792e-12
1.12802e-08
-4.57993e-12
1.12823e-08
-4.35983e-12
1.12844e-08
-4.14522e-12
1.12864e-08
-3.92373e-12
1.12883e-08
-3.70965e-12
1.129e-08
-3.48999e-12
1.12917e-08
-3.28243e-12
1.12932e-08
-3.07026e-12
1.12947e-08
-2.87555e-12
1.12961e-08
-2.67615e-12
1.12973e-08
-2.49692e-12
1.12985e-08
-2.31188e-12
1.12996e-08
-2.1476e-12
1.13006e-08
-1.97534e-12
1.13015e-08
-1.82546e-12
1.13024e-08
-1.6653e-12
1.13031e-08
-1.53054e-12
1.13038e-08
-1.38463e-12
1.13045e-08
-1.26738e-12
1.13051e-08
-1.13847e-12
1.13056e-08
-1.0424e-12
1.13061e-08
-9.32195e-13
1.13065e-08
-8.60642e-13
1.13069e-08
-7.67202e-13
1.13073e-08
-7.26511e-13
-6.60718e-13
2.88887e-08
1.80635e-09
-2.8842e-08
2.9116e-08
2.25912e-09
2.94087e-08
2.66734e-09
2.96507e-08
2.89748e-09
2.98337e-08
2.95618e-09
2.9967e-08
2.9196e-09
3.00421e-08
2.82839e-09
3.00459e-08
2.69173e-09
2.99757e-08
2.51935e-09
2.98412e-08
2.33112e-09
2.96574e-08
2.1493e-09
2.94377e-08
1.98779e-09
2.91911e-08
1.85028e-09
2.89235e-08
1.73429e-09
2.86399e-08
1.63571e-09
2.83441e-08
1.55065e-09
2.80391e-08
1.47573e-09
2.77271e-08
1.40821e-09
2.74099e-08
1.34611e-09
2.70891e-08
1.28815e-09
2.67662e-08
1.23361e-09
2.64425e-08
1.18211e-09
2.61191e-08
1.13341e-09
2.57971e-08
1.08734e-09
2.54775e-08
1.04371e-09
2.51611e-08
1.00231e-09
2.48488e-08
9.62993e-10
2.45412e-08
9.25624e-10
2.42389e-08
8.90118e-10
2.39422e-08
8.56411e-10
2.36514e-08
8.24451e-10
2.33666e-08
7.94174e-10
2.30878e-08
7.65496e-10
2.28151e-08
7.38301e-10
2.25484e-08
7.1245e-10
2.22878e-08
6.87793e-10
2.20332e-08
6.64188e-10
2.17848e-08
6.41517e-10
2.15426e-08
6.19696e-10
2.13065e-08
5.98669e-10
2.10767e-08
5.78405e-10
2.08531e-08
5.58881e-10
2.06355e-08
5.40078e-10
2.04239e-08
5.21969e-10
2.02182e-08
5.04521e-10
2.00183e-08
4.87693e-10
1.9824e-08
4.71443e-10
1.96353e-08
4.55727e-10
1.9452e-08
4.40509e-10
1.9274e-08
4.25759e-10
1.91012e-08
4.11451e-10
1.89335e-08
3.97562e-10
1.87708e-08
3.84065e-10
1.8613e-08
3.7093e-10
1.84601e-08
3.58124e-10
1.83119e-08
3.45609e-10
1.81684e-08
3.33353e-10
1.80295e-08
3.21328e-10
1.78953e-08
3.09512e-10
1.77656e-08
2.97891e-10
1.76405e-08
2.86449e-10
1.75198e-08
2.75174e-10
1.74036e-08
2.64051e-10
1.72918e-08
2.53064e-10
1.71843e-08
2.422e-10
1.70813e-08
2.31446e-10
1.69826e-08
2.20794e-10
1.68882e-08
2.10238e-10
1.67981e-08
1.99775e-10
1.67122e-08
1.89398e-10
1.66306e-08
1.79103e-10
1.65532e-08
1.68886e-10
1.64801e-08
1.58744e-10
1.6411e-08
1.48678e-10
1.63462e-08
1.38693e-10
1.62854e-08
1.28793e-10
1.62287e-08
1.18984e-10
1.61761e-08
1.09276e-10
1.61274e-08
9.96889e-11
1.60826e-08
9.02399e-11
1.60417e-08
8.09485e-11
1.60046e-08
7.18507e-11
1.59712e-08
6.29991e-11
1.59413e-08
5.44403e-11
1.59148e-08
4.62182e-11
1.58916e-08
3.83931e-11
1.58714e-08
3.10361e-11
1.58541e-08
2.42369e-11
1.58395e-08
1.80606e-11
1.58272e-08
1.2535e-11
1.58172e-08
7.69317e-12
1.58091e-08
3.52244e-12
1.58027e-08
1.20953e-13
1.57977e-08
-2.62774e-12
1.57938e-08
-4.77461e-12
1.5791e-08
-6.36833e-12
1.5789e-08
-7.47819e-12
1.57876e-08
-8.18619e-12
1.57867e-08
-8.5709e-12
1.57862e-08
-8.73564e-12
1.5786e-08
-8.75789e-12
1.57861e-08
-8.69358e-12
1.57864e-08
-8.59387e-12
1.5787e-08
-8.49256e-12
1.57877e-08
-8.41658e-12
1.57886e-08
-8.37402e-12
1.57897e-08
-8.36958e-12
1.5791e-08
-8.39882e-12
1.57924e-08
-8.45575e-12
1.57941e-08
-8.52575e-12
1.57959e-08
-8.60258e-12
1.57979e-08
-8.67207e-12
1.58e-08
-8.72481e-12
1.58022e-08
-8.74794e-12
1.58046e-08
-8.74534e-12
1.5807e-08
-8.70902e-12
1.58096e-08
-8.64041e-12
1.58121e-08
-8.53586e-12
1.58147e-08
-8.40378e-12
1.58174e-08
-8.23416e-12
1.582e-08
-8.04399e-12
1.58226e-08
-7.82117e-12
1.58252e-08
-7.58682e-12
1.58277e-08
-7.32782e-12
1.58302e-08
-7.06455e-12
1.58326e-08
-6.78047e-12
1.5835e-08
-6.49592e-12
1.58372e-08
-6.19272e-12
1.58394e-08
-5.89393e-12
1.58415e-08
-5.57855e-12
1.58435e-08
-5.27652e-12
1.58454e-08
-4.95955e-12
1.58472e-08
-4.66565e-12
1.58489e-08
-4.35731e-12
1.58504e-08
-4.07803e-12
1.58519e-08
-3.78329e-12
1.58533e-08
-3.52138e-12
1.58545e-08
-3.24077e-12
1.58557e-08
-2.99921e-12
1.58568e-08
-2.73448e-12
1.58578e-08
-2.51749e-12
1.58587e-08
-2.27369e-12
1.58595e-08
-2.08713e-12
1.58602e-08
-1.86866e-12
1.58609e-08
-1.71923e-12
1.58615e-08
-1.52814e-12
1.5862e-08
-1.42075e-12
1.58625e-08
-1.25455e-12
1.5863e-08
-1.19578e-12
-1.0712e-12
2.99159e-08
1.75704e-09
-2.98666e-08
3.00734e-08
2.1017e-09
3.03147e-08
2.42596e-09
3.05582e-08
2.65397e-09
3.07676e-08
2.74686e-09
3.09459e-08
2.74125e-09
3.10954e-08
2.67889e-09
3.12077e-08
2.57943e-09
3.1275e-08
2.45207e-09
3.12976e-08
2.30857e-09
3.12827e-08
2.16414e-09
3.12393e-08
2.03126e-09
3.11736e-08
1.91596e-09
3.10897e-08
1.81818e-09
3.09904e-08
1.73504e-09
3.08777e-08
1.66333e-09
3.07531e-08
1.60027e-09
3.06178e-08
1.54358e-09
3.04724e-08
1.4915e-09
3.03177e-08
1.44285e-09
3.01544e-08
1.3969e-09
2.99832e-08
1.35329e-09
2.98048e-08
1.31179e-09
2.96199e-08
1.27223e-09
2.94292e-08
1.23441e-09
2.92334e-08
1.19813e-09
2.90332e-08
1.16317e-09
2.88295e-08
1.12938e-09
2.86229e-08
1.09667e-09
2.84143e-08
1.06502e-09
2.82043e-08
1.03449e-09
2.79933e-08
1.00513e-09
2.77818e-08
9.77017e-10
2.757e-08
9.50147e-10
2.7358e-08
9.24442e-10
2.7146e-08
8.99754e-10
2.69343e-08
8.75889e-10
2.67232e-08
8.52655e-10
2.6513e-08
8.29899e-10
2.63041e-08
8.07533e-10
2.6097e-08
7.85533e-10
2.58919e-08
7.63923e-10
2.56893e-08
7.42743e-10
2.54892e-08
7.22029e-10
2.52919e-08
7.01793e-10
2.50976e-08
6.82019e-10
2.49064e-08
6.62678e-10
2.47184e-08
6.43742e-10
2.45337e-08
6.2519e-10
2.43524e-08
6.07021e-10
2.41746e-08
5.8924e-10
2.40003e-08
5.71848e-10
2.38296e-08
5.54832e-10
2.36623e-08
5.38163e-10
2.34987e-08
5.21795e-10
2.33386e-08
5.05679e-10
2.31822e-08
4.89768e-10
2.30295e-08
4.74027e-10
2.28806e-08
4.58435e-10
2.27355e-08
4.42978e-10
2.25943e-08
4.27647e-10
2.2457e-08
4.12432e-10
2.23237e-08
3.97318e-10
2.21945e-08
3.82291e-10
2.20694e-08
3.67339e-10
2.19484e-08
3.52456e-10
2.18315e-08
3.37638e-10
2.17189e-08
3.22887e-10
2.16105e-08
3.08203e-10
2.15063e-08
2.93584e-10
2.14063e-08
2.79029e-10
2.13107e-08
2.64535e-10
2.12193e-08
2.50105e-10
2.11323e-08
2.35743e-10
2.10495e-08
2.21459e-10
2.0971e-08
2.07265e-10
2.08968e-08
1.93173e-10
2.08269e-08
1.792e-10
2.07612e-08
1.65376e-10
2.06997e-08
1.5173e-10
2.06424e-08
1.38297e-10
2.05891e-08
1.25123e-10
2.05398e-08
1.12278e-10
2.04944e-08
9.98265e-11
2.04528e-08
8.78265e-11
2.04149e-08
7.63583e-11
2.03804e-08
6.55197e-11
2.03492e-08
5.54137e-11
2.03212e-08
4.61052e-11
2.02961e-08
3.76423e-11
2.02737e-08
3.00837e-11
2.02537e-08
2.34522e-11
2.02361e-08
1.77773e-11
2.02205e-08
1.29881e-11
2.02067e-08
9.03143e-12
2.01945e-08
5.83654e-12
2.01837e-08
3.32139e-12
2.01741e-08
1.38078e-12
2.01656e-08
-6.326e-14
2.0158e-08
-1.15332e-12
2.01512e-08
-1.9916e-12
2.01452e-08
-2.6536e-12
2.01398e-08
-3.20946e-12
2.0135e-08
-3.70948e-12
2.01308e-08
-4.19535e-12
2.01271e-08
-4.68399e-12
2.01239e-08
-5.1883e-12
2.01212e-08
-5.70578e-12
2.0119e-08
-6.23375e-12
2.01173e-08
-6.75599e-12
2.01159e-08
-7.26824e-12
2.0115e-08
-7.75245e-12
2.01145e-08
-8.19531e-12
2.01143e-08
-8.5819e-12
2.01145e-08
-8.91666e-12
2.0115e-08
-9.18873e-12
2.01157e-08
-9.39825e-12
2.01167e-08
-9.54261e-12
2.01179e-08
-9.63083e-12
2.01194e-08
-9.65081e-12
2.01209e-08
-9.62482e-12
2.01227e-08
-9.53684e-12
2.01245e-08
-9.41566e-12
2.01264e-08
-9.24417e-12
2.01284e-08
-9.04987e-12
2.01304e-08
-8.8104e-12
2.01325e-08
-8.55505e-12
2.01345e-08
-8.25755e-12
2.01366e-08
-7.95323e-12
2.01386e-08
-7.60998e-12
2.01406e-08
-7.27424e-12
2.01426e-08
-6.90245e-12
2.01445e-08
-6.55274e-12
2.01463e-08
-6.16826e-12
2.0148e-08
-5.81572e-12
2.01497e-08
-5.42737e-12
2.01512e-08
-5.07974e-12
2.01527e-08
-4.69204e-12
2.0154e-08
-4.35903e-12
2.01553e-08
-3.98022e-12
2.01564e-08
-3.67395e-12
2.01575e-08
-3.31666e-12
2.01584e-08
-3.05114e-12
2.01593e-08
-2.72537e-12
2.01601e-08
-2.51355e-12
2.01608e-08
-2.22451e-12
2.01614e-08
-2.07425e-12
2.0162e-08
-1.82059e-12
2.01625e-08
-1.73928e-12
-1.53939e-12
3.09423e-08
1.70058e-09
-3.08858e-08
3.10657e-08
1.97828e-09
3.12564e-08
2.23523e-09
3.14704e-08
2.44004e-09
3.16683e-08
2.54893e-09
3.18411e-08
2.56849e-09
3.19913e-08
2.52861e-09
3.21175e-08
2.45326e-09
3.22148e-08
2.35481e-09
3.22814e-08
2.24192e-09
3.23209e-08
2.1246e-09
3.23394e-08
2.01278e-09
3.23424e-08
1.91301e-09
3.23334e-08
1.82712e-09
3.23148e-08
1.7537e-09
3.22877e-08
1.69036e-09
3.22532e-08
1.63482e-09
3.22116e-08
1.58515e-09
3.21633e-08
1.53986e-09
3.21082e-08
1.49786e-09
3.20467e-08
1.45846e-09
3.19787e-08
1.42127e-09
3.19044e-08
1.38606e-09
3.1824e-08
1.35265e-09
3.17376e-08
1.32085e-09
3.16453e-08
1.29041e-09
3.15474e-08
1.26107e-09
3.14442e-08
1.23258e-09
3.13361e-08
1.20476e-09
3.12236e-08
1.17753e-09
3.11072e-08
1.15094e-09
3.09872e-08
1.12512e-09
3.08639e-08
1.10025e-09
3.07376e-08
1.07644e-09
3.06083e-08
1.05375e-09
3.0476e-08
1.03209e-09
3.03407e-08
1.01124e-09
3.02024e-08
9.90943e-10
3.00613e-08
9.70921e-10
2.99179e-08
9.50968e-10
2.97725e-08
9.30975e-10
2.96254e-08
9.1094e-10
2.94773e-08
8.90934e-10
2.93282e-08
8.71049e-10
2.91787e-08
8.51355e-10
2.90288e-08
8.31873e-10
2.88789e-08
8.12582e-10
2.87292e-08
7.93441e-10
2.858e-08
7.74423e-10
2.84315e-08
7.55539e-10
2.82839e-08
7.36833e-10
2.81374e-08
7.18361e-10
2.7992e-08
7.0016e-10
2.7848e-08
6.82233e-10
2.77052e-08
6.64536e-10
2.75639e-08
6.46998e-10
2.74241e-08
6.29545e-10
2.7286e-08
6.12118e-10
2.71498e-08
5.94688e-10
2.70155e-08
5.77244e-10
2.68834e-08
5.59786e-10
2.67535e-08
5.42306e-10
2.6626e-08
5.24792e-10
2.65011e-08
5.07225e-10
2.63788e-08
4.89592e-10
2.62594e-08
4.7189e-10
2.61429e-08
4.5413e-10
2.60295e-08
4.36328e-10
2.59192e-08
4.18496e-10
2.58121e-08
4.00643e-10
2.57084e-08
3.82771e-10
2.5608e-08
3.64886e-10
2.55111e-08
3.46995e-10
2.54178e-08
3.2911e-10
2.5328e-08
3.11249e-10
2.52418e-08
2.93434e-10
2.51593e-08
2.75684e-10
2.50805e-08
2.58027e-10
2.50053e-08
2.40504e-10
2.49339e-08
2.23155e-10
2.48662e-08
2.06031e-10
2.48021e-08
1.89193e-10
2.47417e-08
1.7272e-10
2.46848e-08
1.56694e-10
2.46314e-08
1.41188e-10
2.45815e-08
1.26299e-10
2.45349e-08
1.12136e-10
2.44915e-08
9.88062e-11
2.44512e-08
8.63882e-11
2.44139e-08
7.49593e-11
2.43794e-08
6.45803e-11
2.43476e-08
5.52774e-11
2.43183e-08
4.70793e-11
2.42913e-08
3.99474e-11
2.42665e-08
3.38197e-11
2.42437e-08
2.86238e-11
2.42228e-08
2.42791e-11
2.42035e-08
2.06805e-11
2.41857e-08
1.77142e-11
2.41693e-08
1.52405e-11
2.41542e-08
1.31446e-11
2.41402e-08
1.1331e-11
2.41273e-08
9.71263e-12
2.41153e-08
8.22291e-12
2.41043e-08
6.80599e-12
2.40942e-08
5.43553e-12
2.40849e-08
4.08584e-12
2.40765e-08
2.75472e-12
2.40688e-08
1.43888e-12
2.40619e-08
1.60968e-13
2.40557e-08
-1.08256e-12
2.40502e-08
-2.27342e-12
2.40454e-08
-3.3908e-12
2.40413e-08
-4.42116e-12
2.40377e-08
-5.36807e-12
2.40347e-08
-6.21735e-12
2.40323e-08
-6.9657e-12
2.40304e-08
-7.61335e-12
2.40289e-08
-8.16589e-12
2.40279e-08
-8.61077e-12
2.40272e-08
-8.97476e-12
2.40269e-08
-9.23718e-12
2.40269e-08
-9.43652e-12
2.40273e-08
-9.5497e-12
2.40278e-08
-9.61218e-12
2.40286e-08
-9.59317e-12
2.40296e-08
-9.53232e-12
2.40307e-08
-9.39278e-12
2.4032e-08
-9.22477e-12
2.40334e-08
-8.98364e-12
2.40348e-08
-8.73494e-12
2.40363e-08
-8.4188e-12
2.40379e-08
-8.11487e-12
2.40395e-08
-7.74502e-12
2.40411e-08
-7.40019e-12
2.40426e-08
-6.98597e-12
2.40441e-08
-6.60994e-12
2.40456e-08
-6.15764e-12
2.4047e-08
-5.76623e-12
2.40483e-08
-5.29278e-12
2.40496e-08
-4.91017e-12
2.40507e-08
-4.4417e-12
2.40517e-08
-4.09738e-12
2.40527e-08
-3.65677e-12
2.40535e-08
-3.37696e-12
2.40543e-08
-2.97863e-12
2.4055e-08
-2.77946e-12
2.40556e-08
-2.42661e-12
2.40562e-08
-2.32007e-12
-2.02804e-12
3.19756e-08
1.6415e-09
-3.19166e-08
3.20806e-08
1.87331e-09
3.2234e-08
2.08187e-09
3.24157e-08
2.25826e-09
3.25952e-08
2.36942e-09
3.27564e-08
2.40732e-09
3.28969e-08
2.38809e-09
3.30173e-08
2.33288e-09
3.3116e-08
2.25612e-09
3.31917e-08
2.16625e-09
3.32458e-08
2.07044e-09
3.32826e-08
1.97603e-09
3.33067e-08
1.88894e-09
3.33217e-08
1.81204e-09
3.33301e-08
1.74532e-09
3.33332e-08
1.68729e-09
3.33318e-08
1.63619e-09
3.33265e-08
1.59046e-09
3.33175e-08
1.54886e-09
3.33049e-08
1.51044e-09
3.32888e-08
1.47458e-09
3.32692e-08
1.44092e-09
3.3246e-08
1.40927e-09
3.32192e-08
1.37944e-09
3.31887e-08
1.35128e-09
3.31546e-08
1.32454e-09
3.31167e-08
1.29894e-09
3.30751e-08
1.27417e-09
3.30299e-08
1.24998e-09
3.29812e-08
1.22621e-09
3.29293e-08
1.20284e-09
3.28744e-08
1.18001e-09
3.28167e-08
1.15793e-09
3.27564e-08
1.13683e-09
3.26932e-08
1.11688e-09
3.26272e-08
1.0981e-09
3.25581e-08
1.08034e-09
3.24857e-08
1.0633e-09
3.241e-08
1.04663e-09
3.2331e-08
1.02998e-09
3.22489e-08
1.01313e-09
3.21638e-08
9.95973e-10
3.20762e-08
9.78552e-10
3.19863e-08
9.60983e-10
3.18943e-08
9.43387e-10
3.18003e-08
9.25831e-10
3.17046e-08
9.08306e-10
3.16073e-08
8.9075e-10
3.15086e-08
8.73095e-10
3.14088e-08
8.55319e-10
3.13082e-08
8.37467e-10
3.12069e-08
8.19638e-10
3.11051e-08
8.01941e-10
3.10029e-08
7.84442e-10
3.09003e-08
7.67137e-10
3.07974e-08
7.49951e-10
3.06941e-08
7.32775e-10
3.05907e-08
7.15508e-10
3.04873e-08
6.98085e-10
3.03841e-08
6.8049e-10
3.02811e-08
6.62726e-10
3.01787e-08
6.44798e-10
3.00768e-08
6.26692e-10
2.99756e-08
6.08377e-10
2.98754e-08
5.89823e-10
2.97762e-08
5.71018e-10
2.96784e-08
5.51976e-10
2.9582e-08
5.32729e-10
2.94872e-08
5.13311e-10
2.93941e-08
4.93744e-10
2.93028e-08
4.74039e-10
2.92135e-08
4.54204e-10
2.91262e-08
4.3425e-10
2.90412e-08
4.14196e-10
2.89583e-08
3.94071e-10
2.88779e-08
3.73905e-10
2.87998e-08
3.53726e-10
2.87243e-08
3.33571e-10
2.86513e-08
3.13487e-10
2.85809e-08
2.9353e-10
2.85132e-08
2.73762e-10
2.84481e-08
2.54262e-10
2.83857e-08
2.35117e-10
2.8326e-08
2.16419e-10
2.82689e-08
1.98258e-10
2.82145e-08
1.80735e-10
2.81627e-08
1.63964e-10
2.81134e-08
1.48058e-10
2.80667e-08
1.33104e-10
2.80225e-08
1.19187e-10
2.79807e-08
1.0637e-10
2.79413e-08
9.46924e-11
2.79041e-08
8.41925e-11
2.78692e-08
7.48477e-11
2.78365e-08
6.66055e-11
2.78057e-08
5.9408e-11
2.77768e-08
5.31751e-11
2.77497e-08
4.78033e-11
2.77242e-08
4.31778e-11
2.77003e-08
3.91657e-11
2.76778e-08
3.56417e-11
2.76566e-08
3.24971e-11
2.76367e-08
2.96312e-11
2.76179e-08
2.69649e-11
2.76003e-08
2.44298e-11
2.75838e-08
2.19864e-11
2.75683e-08
1.95992e-11
2.75538e-08
1.72639e-11
2.75402e-08
1.49645e-11
2.75277e-08
1.27178e-11
2.75161e-08
1.05255e-11
2.75054e-08
8.40866e-12
2.74956e-08
6.39537e-12
2.74867e-08
4.49382e-12
2.74786e-08
2.70271e-12
2.74714e-08
1.03868e-12
2.74649e-08
-4.84502e-13
2.74591e-08
-1.87493e-12
2.74541e-08
-3.12569e-12
2.74497e-08
-4.22653e-12
2.74459e-08
-5.2062e-12
2.74427e-08
-6.03777e-12
2.74401e-08
-6.77459e-12
2.74379e-08
-7.38508e-12
2.74362e-08
-7.91359e-12
2.74349e-08
-8.31804e-12
2.74341e-08
-8.64702e-12
2.74335e-08
-8.85096e-12
2.74333e-08
-8.9939e-12
2.74333e-08
-9.02017e-12
2.74336e-08
-9.01429e-12
2.74341e-08
-8.90357e-12
2.74348e-08
-8.78833e-12
2.74356e-08
-8.57095e-12
2.74365e-08
-8.36397e-12
2.74376e-08
-8.0453e-12
2.74387e-08
-7.75036e-12
2.74399e-08
-7.32957e-12
2.74411e-08
-6.95986e-12
2.74423e-08
-6.45695e-12
2.74434e-08
-6.0467e-12
2.74445e-08
-5.50296e-12
2.74455e-08
-5.10295e-12
2.74464e-08
-4.56187e-12
2.74472e-08
-4.22083e-12
2.7448e-08
-3.71498e-12
2.74486e-08
-3.46681e-12
2.74492e-08
-3.0105e-12
2.74498e-08
-2.87864e-12
-2.48336e-12
3.30226e-08
1.58353e-09
-3.29646e-08
3.31148e-08
1.7811e-09
3.32421e-08
1.95459e-09
3.33956e-08
2.10474e-09
3.35549e-08
2.21012e-09
3.37034e-08
2.25884e-09
3.38344e-08
2.25708e-09
3.39473e-08
2.21996e-09
3.40422e-08
2.16126e-09
3.41185e-08
2.08991e-09
3.4177e-08
2.01198e-09
3.42201e-08
1.93293e-09
3.42514e-08
1.85758e-09
3.42745e-08
1.78902e-09
3.42916e-08
1.72823e-09
3.43042e-08
1.6746e-09
3.43135e-08
1.62693e-09
3.432e-08
1.584e-09
3.4324e-08
1.54478e-09
3.4326e-08
1.50851e-09
3.43259e-08
1.47466e-09
3.43239e-08
1.44292e-09
3.432e-08
1.41313e-09
3.43143e-08
1.38514e-09
3.43068e-08
1.35882e-09
3.42974e-08
1.33395e-09
3.42861e-08
1.31027e-09
3.42728e-08
1.28748e-09
3.42575e-08
1.26527e-09
3.42402e-08
1.24345e-09
3.42211e-08
1.22193e-09
3.42003e-08
1.20082e-09
3.41779e-08
1.18033e-09
3.4154e-08
1.16074e-09
3.41286e-08
1.14231e-09
3.41016e-08
1.12515e-09
3.40727e-08
1.10922e-09
3.40417e-08
1.09425e-09
3.40085e-08
1.07987e-09
3.39728e-08
1.06567e-09
3.39346e-08
1.0513e-09
3.38941e-08
1.03656e-09
3.38512e-08
1.02143e-09
3.38061e-08
1.00601e-09
3.37591e-08
9.9044e-10
3.37101e-08
9.74839e-10
3.36592e-08
9.59225e-10
3.36064e-08
9.43525e-10
3.35519e-08
9.27629e-10
3.34957e-08
9.11454e-10
3.34382e-08
8.95007e-10
3.33794e-08
8.7839e-10
3.33196e-08
8.61763e-10
3.32588e-08
8.45267e-10
3.3197e-08
8.28965e-10
3.31341e-08
8.12814e-10
3.30702e-08
7.9669e-10
3.30052e-08
7.80446e-10
3.29394e-08
7.63971e-10
3.28726e-08
7.47217e-10
3.28052e-08
7.30187e-10
3.27371e-08
7.129e-10
3.26684e-08
6.9535e-10
3.25993e-08
6.77498e-10
3.25298e-08
6.59286e-10
3.24602e-08
6.40674e-10
3.23905e-08
6.21661e-10
3.23209e-08
6.02283e-10
3.22516e-08
5.82594e-10
3.21828e-08
5.62638e-10
3.21144e-08
5.42436e-10
3.20466e-08
5.21996e-10
3.19795e-08
5.01326e-10
3.19132e-08
4.80446e-10
3.18479e-08
4.59392e-10
3.17836e-08
4.382e-10
3.17204e-08
4.16906e-10
3.16585e-08
3.95551e-10
3.15978e-08
3.74185e-10
3.15384e-08
3.52872e-10
3.14805e-08
3.31687e-10
3.1424e-08
3.1072e-10
3.13691e-08
2.90071e-10
3.13157e-08
2.69838e-10
3.12638e-08
2.5012e-10
3.12135e-08
2.3102e-10
3.11648e-08
2.12654e-10
3.11178e-08
1.95128e-10
3.10723e-08
1.78529e-10
3.10286e-08
1.62939e-10
3.09865e-08
1.48424e-10
3.09462e-08
1.3503e-10
3.09076e-08
1.22798e-10
3.08707e-08
1.11726e-10
3.08355e-08
1.0178e-10
3.0802e-08
9.29175e-11
3.07701e-08
8.50688e-11
3.07398e-08
7.81495e-11
3.07109e-08
7.20573e-11
3.06834e-08
6.66697e-11
3.06572e-08
6.18598e-11
3.06322e-08
5.7512e-11
3.06083e-08
5.35128e-11
3.05855e-08
4.97717e-11
3.05637e-08
4.62092e-11
3.05429e-08
4.27733e-11
3.05231e-08
3.94178e-11
3.05042e-08
3.61217e-11
3.04863e-08
3.28604e-11
3.04694e-08
2.96457e-11
3.04535e-08
2.64828e-11
3.04385e-08
2.34005e-11
3.04244e-08
2.04239e-11
3.04114e-08
1.75718e-11
3.03992e-08
1.4841e-11
3.0388e-08
1.22564e-11
3.03777e-08
9.8207e-12
3.03683e-08
7.54717e-12
3.03597e-08
5.44941e-12
3.03519e-08
3.54015e-12
3.03449e-08
1.78947e-12
3.03387e-08
2.3734e-13
3.03331e-08
-1.19194e-12
3.03281e-08
-2.45789e-12
3.03239e-08
-3.61513e-12
3.03201e-08
-4.61029e-12
3.0317e-08
-5.49583e-12
3.03143e-08
-6.20869e-12
3.03122e-08
-6.81992e-12
3.03104e-08
-7.26579e-12
3.03091e-08
-7.64597e-12
3.0308e-08
-7.8822e-12
3.03073e-08
-8.0933e-12
3.03069e-08
-8.16934e-12
3.03068e-08
-8.23969e-12
3.03069e-08
-8.15878e-12
3.03073e-08
-8.08077e-12
3.03077e-08
-7.82416e-12
3.03084e-08
-7.59355e-12
3.03091e-08
-7.16972e-12
3.03099e-08
-6.81895e-12
3.03106e-08
-6.27633e-12
3.03114e-08
-5.87519e-12
3.03121e-08
-5.28016e-12
3.03128e-08
-4.90611e-12
3.03134e-08
-4.31732e-12
3.0314e-08
-4.03221e-12
3.03145e-08
-3.48374e-12
3.03149e-08
-3.33102e-12
-2.83536e-12
3.40873e-08
1.52852e-09
-3.40323e-08
3.41694e-08
1.69902e-09
3.42781e-08
1.8458e-09
3.44087e-08
1.97414e-09
3.45485e-08
2.07032e-09
3.46836e-08
2.1238e-09
3.48054e-08
2.13522e-09
3.49116e-08
2.1138e-09
3.50021e-08