/*--------------------------------*- C++ -*----------------------------------*\
| =========                 |                                                 |
| \\      /  F ield         | OpenFOAM: The Open Source CFD Toolbox           |
|  \\    /   O peration     | Version:  2.3.0                                 |
|   \\  /    A nd           | Web:      www.OpenFOAM.org                      |
|    \\/     M anipulation  |                                                 |
\*---------------------------------------------------------------------------*/
FoamFile
{
    version     2.0;
    format      ascii;
    class       surfaceScalarField;
    location    "0.2";
    object      phi;
}
// * * * * * * * * * * * * * * * * * * * * * * * * * * * * * * * * * * * * * //

dimensions      [0 3 -1 0 0 0 0];

internalField   nonuniform List<scalar> 
6068
(
2.83131e-08
2.83046e-09
-3.11435e-08
2.54553e-08
2.85771e-09
2.27618e-08
2.69351e-09
2.02774e-08
2.48444e-09
1.80192e-08
2.2582e-09
1.59981e-08
2.02105e-09
1.42171e-08
1.781e-09
1.26712e-08
1.54595e-09
1.13485e-08
1.32265e-09
1.02319e-08
1.1166e-09
9.30008e-09
9.3185e-10
8.52931e-09
7.70767e-10
7.89529e-09
6.34026e-10
7.3745e-09
5.20794e-10
6.94541e-09
4.29088e-10
6.58921e-09
3.56193e-10
6.29014e-09
2.99074e-10
6.03542e-09
2.54717e-10
5.81506e-09
2.20364e-10
5.62141e-09
1.93646e-10
5.44878e-09
1.72629e-10
5.29298e-09
1.55802e-10
5.15095e-09
1.42027e-10
5.02048e-09
1.3047e-10
4.89995e-09
1.20538e-10
4.78813e-09
1.11816e-10
4.68411e-09
1.04019e-10
4.58716e-09
9.69501e-11
4.49669e-09
9.04718e-11
4.4122e-09
8.44868e-11
4.33328e-09
7.89229e-11
4.25956e-09
7.37242e-11
4.19071e-09
6.8845e-11
4.12646e-09
6.42467e-11
4.06657e-09
5.98954e-11
4.01081e-09
5.57618e-11
3.95899e-09
5.18197e-11
3.91094e-09
4.80459e-11
3.86652e-09
4.44192e-11
3.8256e-09
4.09178e-11
3.78809e-09
3.75158e-11
3.75391e-09
3.41782e-11
3.72306e-09
3.08541e-11
3.69559e-09
2.747e-11
3.67166e-09
2.39267e-11
3.65156e-09
2.01024e-11
3.63571e-09
1.58504e-11
3.62473e-09
1.09787e-11
3.61938e-09
5.34913e-12
3.61955e-09
-1.75583e-13
3.62387e-09
-4.31342e-12
3.63124e-09
-7.37421e-12
3.64086e-09
-9.62107e-12
3.65198e-09
-1.11178e-11
3.66393e-09
-1.19487e-11
3.67615e-09
-1.22242e-11
3.68822e-09
-1.20686e-11
3.69983e-09
-1.16055e-11
3.71077e-09
-1.09417e-11
3.72093e-09
-1.01639e-11
3.73027e-09
-9.33746e-12
3.73878e-09
-8.50814e-12
3.74648e-09
-7.70574e-12
3.75343e-09
-6.94788e-12
3.75968e-09
-6.24354e-12
3.76527e-09
-5.59589e-12
3.77028e-09
-5.00449e-12
3.77474e-09
-4.46677e-12
3.77872e-09
-3.97917e-12
3.78226e-09
-3.5378e-12
3.7854e-09
-3.13876e-12
3.78818e-09
-2.77842e-12
3.79063e-09
-2.45344e-12
3.79279e-09
-2.16084e-12
3.79469e-09
-1.89793e-12
3.79635e-09
-1.66231e-12
3.7978e-09
-1.4518e-12
3.79907e-09
-1.26439e-12
3.80017e-09
-1.09821e-12
3.80112e-09
-9.51529e-13
3.80194e-09
-8.22653e-13
3.80265e-09
-7.09986e-13
3.80326e-09
-6.11975e-13
3.80379e-09
-5.27115e-13
3.80424e-09
-4.53956e-13
3.80463e-09
-3.91106e-13
3.80497e-09
-3.3724e-13
3.80526e-09
-2.91112e-13
3.80551e-09
-2.51575e-13
3.80573e-09
-2.17556e-13
3.80592e-09
-1.88082e-13
3.80608e-09
-1.62254e-13
3.80622e-09
-1.39269e-13
3.80634e-09
-1.18337e-13
3.80644e-09
-9.86249e-14
3.80652e-09
-7.92271e-14
3.80658e-09
-5.90152e-14
3.80661e-09
-3.68426e-14
3.80663e-09
-1.26634e-14
2.74786e-15
3.40225e-08
3.11647e-09
-3.43085e-08
3.34359e-08
3.44423e-09
3.26109e-08
3.51855e-09
3.16264e-08
3.46899e-09
3.05393e-08
3.34522e-09
2.93956e-08
3.16475e-09
2.82326e-08
2.94405e-09
2.7079e-08
2.6995e-09
2.59564e-08
2.44534e-09
2.48796e-08
2.19333e-09
2.38587e-08
1.95277e-09
2.28992e-08
1.73032e-09
2.20032e-08
1.53002e-09
2.11705e-08
1.3535e-09
2.0399e-08
1.20051e-09
1.96858e-08
1.06946e-09
1.90269e-08
9.57979e-10
1.84182e-08
8.6335e-10
1.78557e-08
7.82873e-10
1.73353e-08
7.14062e-10
1.68532e-08
6.54755e-10
1.64058e-08
6.03148e-10
1.59901e-08
5.5778e-10
1.56031e-08
5.17491e-10
1.52422e-08
4.81371e-10
1.49053e-08
4.48709e-10
1.45904e-08
4.1895e-10
1.42957e-08
3.91651e-10
1.40197e-08
3.6646e-10
1.37611e-08
3.43086e-10
1.35188e-08
3.21288e-10
1.32916e-08
3.00858e-10
1.30788e-08
2.81617e-10
1.28797e-08
2.63409e-10
1.26935e-08
2.46093e-10
1.25197e-08
2.29545e-10
1.23579e-08
2.13652e-10
1.22076e-08
1.98311e-10
1.20686e-08
1.83422e-10
1.19406e-08
1.68887e-10
1.18236e-08
1.54596e-10
1.17173e-08
1.40421e-10
1.1622e-08
1.26208e-10
1.15377e-08
1.11767e-10
1.14647e-08
9.68838e-11
1.14035e-08
8.13375e-11
1.13544e-08
6.49543e-11
1.13177e-08
4.76594e-11
1.12936e-08
2.94446e-11
1.12829e-08
1.05291e-11
1.12847e-08
-6.08337e-12
1.12955e-08
-1.82274e-11
1.13126e-08
-2.67505e-11
1.1334e-08
-3.2474e-11
1.13579e-08
-3.59044e-11
1.13832e-08
-3.74731e-11
1.14087e-08
-3.75956e-11
1.14338e-08
-3.66609e-11
1.14578e-08
-3.50027e-11
1.14806e-08
-3.28941e-11
1.15018e-08
-3.05453e-11
1.15214e-08
-2.81085e-11
1.15394e-08
-2.56875e-11
1.15558e-08
-2.33491e-11
1.15706e-08
-2.11321e-11
1.15841e-08
-1.90569e-11
1.15962e-08
-1.71309e-11
1.16071e-08
-1.53539e-11
1.16169e-08
-1.37214e-11
1.16256e-08
-1.22266e-11
1.16333e-08
-1.0862e-11
1.16401e-08
-9.61968e-12
1.16462e-08
-8.49221e-12
1.16515e-08
-7.47237e-12
1.16561e-08
-6.55335e-12
1.16602e-08
-5.72861e-12
1.16637e-08
-4.99185e-12
1.16668e-08
-4.33692e-12
1.16695e-08
-3.75776e-12
1.16718e-08
-3.24836e-12
1.16737e-08
-2.80276e-12
1.16754e-08
-2.41509e-12
1.16769e-08
-2.07956e-12
1.16782e-08
-1.79051e-12
1.16793e-08
-1.54251e-12
1.16802e-08
-1.33037e-12
1.1681e-08
-1.14919e-12
1.16817e-08
-9.94468e-13
1.16823e-08
-8.6207e-13
1.16829e-08
-7.48254e-13
1.16833e-08
-6.49668e-13
1.16837e-08
-5.63324e-13
1.16841e-08
-4.86555e-13
1.16844e-08
-4.16869e-13
1.16846e-08
-3.5174e-13
1.16848e-08
-2.88469e-13
1.1685e-08
-2.23854e-13
1.16851e-08
-1.54314e-13
1.16852e-08
-7.91726e-14
-1.4661e-14
3.61145e-08
2.97415e-09
-3.59722e-08
3.61835e-08
3.37522e-09
3.61279e-08
3.57412e-09
3.5949e-08
3.64786e-09
3.56578e-08
3.63644e-09
3.52682e-08
3.55431e-09
3.47974e-08
3.41487e-09
3.42632e-08
3.23376e-09
3.36824e-08
3.02614e-09
3.30702e-08
2.80551e-09
3.24397e-08
2.58325e-09
3.18017e-08
2.36831e-09
3.11648e-08
2.16698e-09
3.05353e-08
1.98298e-09
2.99179e-08
1.81787e-09
2.93159e-08
1.6715e-09
2.87312e-08
1.54265e-09
2.81651e-08
1.42944e-09
2.76182e-08
1.32977e-09
2.70907e-08
1.24156e-09
2.65826e-08
1.16291e-09
2.60936e-08
1.09217e-09
2.56234e-08
1.02798e-09
2.51716e-08
9.69231e-10
2.47379e-08
9.15033e-10
2.4322e-08
8.64682e-10
2.39233e-08
8.17618e-10
2.35416e-08
7.73388e-10
2.31764e-08
7.3162e-10
2.28275e-08
6.92006e-10
2.24945e-08
6.54277e-10
2.21772e-08
6.182e-10
2.18752e-08
5.83564e-10
2.15884e-08
5.50179e-10
2.13167e-08
5.17865e-10
2.10598e-08
4.86459e-10
2.08176e-08
4.55801e-10
2.05902e-08
4.2574e-10
2.03775e-08
3.96119e-10
2.01796e-08
3.66778e-10
1.99966e-08
3.37539e-10
1.98289e-08
3.08198e-10
1.96766e-08
2.78527e-10
1.954e-08
2.48279e-10
1.94197e-08
2.17217e-10
1.93159e-08
1.85165e-10
1.92287e-08
1.52116e-10
1.9158e-08
1.18381e-10
1.91026e-08
8.48021e-11
1.90607e-08
5.24533e-11
1.90332e-08
2.14309e-11
1.90215e-08
-6.476e-12
1.90227e-08
-2.80189e-11
1.90335e-08
-4.32353e-11
1.90511e-08
-5.35094e-11
1.90734e-08
-5.97977e-11
1.90987e-08
-6.29319e-11
1.91258e-08
-6.36654e-11
1.91534e-08
-6.26411e-11
1.91809e-08
-6.03955e-11
1.92077e-08
-5.73551e-11
1.92334e-08
-5.38441e-11
1.92578e-08
-5.00991e-11
1.92808e-08
-4.6286e-11
1.93022e-08
-4.25159e-11
1.9322e-08
-3.88604e-11
1.93402e-08
-3.53627e-11
1.93569e-08
-3.20474e-11
1.93721e-08
-2.89267e-11
1.93859e-08
-2.60054e-11
1.93983e-08
-2.32841e-11
1.94094e-08
-2.07607e-11
1.94194e-08
-1.84317e-11
1.94282e-08
-1.62927e-11
1.9436e-08
-1.43386e-11
1.94428e-08
-1.25635e-11
1.94488e-08
-1.0961e-11
1.9454e-08
-9.52354e-12
1.94585e-08
-8.24292e-12
1.94623e-08
-7.10998e-12
1.94656e-08
-6.11479e-12
1.94685e-08
-5.24675e-12
1.94709e-08
-4.49476e-12
1.94729e-08
-3.84746e-12
1.94747e-08
-3.29343e-12
1.94762e-08
-2.82145e-12
1.94775e-08
-2.42073e-12
1.94785e-08
-2.08106e-12
1.94795e-08
-1.79304e-12
1.94803e-08
-1.54806e-12
1.9481e-08
-1.33841e-12
1.94816e-08
-1.15723e-12
1.94821e-08
-9.98488e-13
1.94825e-08
-8.56688e-13
1.94829e-08
-7.26548e-13
1.94832e-08
-6.02677e-13
1.94835e-08
-4.78953e-13
1.94836e-08
-3.48086e-13
1.94838e-08
-2.0412e-13
-5.28813e-14
3.76816e-08
2.78899e-09
-3.74965e-08
3.78805e-08
3.17633e-09
3.80434e-08
3.41126e-09
3.81529e-08
3.53834e-09
3.82019e-08
3.58745e-09
3.81861e-08
3.57007e-09
3.81055e-08
3.4955e-09
3.79636e-08
3.37566e-09
3.77664e-08
3.22333e-09
3.75214e-08
3.05056e-09
3.72365e-08
2.86811e-09
3.69198e-08
2.68498e-09
3.65788e-08
2.50801e-09
3.62199e-08
2.34183e-09
3.58488e-08
2.18905e-09
3.54697e-08
2.05058e-09
3.50862e-08
1.92616e-09
3.47009e-08
1.81473e-09
3.43158e-08
1.71483e-09
3.39325e-08
1.62486e-09
3.35521e-08
1.54328e-09
3.31756e-08
1.46869e-09
3.28037e-08
1.39988e-09
3.24371e-08
1.33585e-09
3.20763e-08
1.27579e-09
3.1722e-08
1.21904e-09
3.13745e-08
1.16507e-09
3.10345e-08
1.11346e-09
3.07022e-08
1.06385e-09
3.03783e-08
1.01595e-09
3.00631e-08
9.69493e-10
2.9757e-08
9.24258e-10
2.94605e-08
8.80039e-10
2.91741e-08
8.36643e-10
2.8898e-08
7.93886e-10
2.86329e-08
7.51595e-10
2.83791e-08
7.09595e-10
2.81371e-08
6.67711e-10
2.79075e-08
6.25763e-10
2.76907e-08
5.83555e-10
2.74874e-08
5.40874e-10
2.72981e-08
4.97487e-10
2.71235e-08
4.5315e-10
2.69641e-08
4.07633e-10
2.68206e-08
3.60768e-10
2.66932e-08
3.12539e-10
2.65821e-08
2.63202e-10
2.64871e-08
2.13439e-10
2.64074e-08
1.64478e-10
2.63419e-08
1.1796e-10
2.62879e-08
7.54272e-11
2.62445e-08
3.69432e-11
2.6214e-08
2.48229e-12
2.61965e-08
-2.57594e-11
2.61897e-08
-4.66817e-11
2.61914e-08
-6.15182e-11
2.61998e-08
-7.13512e-11
2.62133e-08
-7.71877e-11
2.62306e-08
-7.99076e-11
2.62505e-08
-8.02779e-11
2.6272e-08
-7.89342e-11
2.62946e-08
-7.63837e-11
2.63175e-08
-7.30182e-11
2.63403e-08
-6.91319e-11
2.63628e-08
-6.49405e-11
2.63845e-08
-6.05986e-11
2.64054e-08
-5.62154e-11
2.64252e-08
-5.18674e-11
2.64439e-08
-4.76082e-11
2.64613e-08
-4.3476e-11
2.64776e-08
-3.94988e-11
2.64925e-08
-3.56977e-11
2.65061e-08
-3.20892e-11
2.65185e-08
-2.86866e-11
2.65297e-08
-2.55003e-11
2.65397e-08
-2.25382e-11
2.65485e-08
-1.98056e-11
2.65563e-08
-1.7305e-11
2.65631e-08
-1.5036e-11
2.6569e-08
-1.2995e-11
2.6574e-08
-1.11755e-11
2.65784e-08
-9.56816e-12
2.6582e-08
-8.16095e-12
2.65851e-08
-6.9398e-12
2.65877e-08
-5.88897e-12
2.65899e-08
-4.99162e-12
2.65917e-08
-4.23045e-12
2.65932e-08
-3.58819e-12
2.65945e-08
-3.04815e-12
2.65955e-08
-2.59454e-12
2.65964e-08
-2.21276e-12
2.65971e-08
-1.88958e-12
2.65977e-08
-1.61317e-12
2.65982e-08
-1.3729e-12
2.65987e-08
-1.15884e-12
2.6599e-08
-9.61358e-13
2.65993e-08
-7.70126e-13
2.65995e-08
-5.72493e-13
2.65997e-08
-3.52005e-13
-8.44694e-14
3.92082e-08
2.62513e-09
-3.90444e-08
3.94083e-08
2.97626e-09
3.96073e-08
3.21231e-09
3.97887e-08
3.35695e-09
3.9944e-08
3.43211e-09
4.0066e-08
3.4481e-09
4.01492e-08
3.4123e-09
4.0191e-08
3.33389e-09
4.01911e-08
3.22317e-09
4.01514e-08
3.09022e-09
4.00752e-08
2.94432e-09
3.99667e-08
2.7935e-09
3.98305e-08
2.6442e-09
3.96713e-08
2.50109e-09
3.94932e-08
2.36712e-09
3.93e-08
2.24377e-09
3.90948e-08
2.13136e-09
3.88801e-08
2.02944e-09
3.86579e-08
1.93705e-09
3.84297e-08
1.85302e-09
3.81969e-08
1.77612e-09
3.79604e-08
1.70518e-09
3.77211e-08
1.63917e-09
3.74798e-08
1.57718e-09
3.72371e-08
1.51847e-09
3.69937e-08
1.46242e-09
3.67503e-08
1.40853e-09
3.65073e-08
1.35637e-09
3.62656e-08
1.30561e-09
3.60256e-08
1.25594e-09
3.5788e-08
1.2071e-09
3.55534e-08
1.15887e-09
3.53224e-08
1.11102e-09
3.50957e-08
1.06337e-09
3.48738e-08
1.01572e-09
3.46576e-08
9.67873e-10
3.44475e-08
9.19645e-10
3.42444e-08
8.70842e-10
3.40489e-08
8.2126e-10
3.38618e-08
7.70684e-10
3.36837e-08
7.18886e-10
3.35156e-08
6.65628e-10
3.33581e-08
6.10687e-10
3.32118e-08
5.5389e-10
3.30774e-08
4.95181e-10
3.29552e-08
4.3472e-10
3.28454e-08
3.73006e-10
3.27479e-08
3.10992e-10
3.26622e-08
2.50131e-10
3.25879e-08
1.92218e-10
3.25244e-08
1.38994e-10
3.24697e-08
9.15824e-11
3.2422e-08
5.01999e-11
3.23822e-08
1.40944e-11
3.23517e-08
-1.62072e-11
3.23299e-08
-3.9735e-11
3.23158e-08
-5.71917e-11
3.23082e-08
-6.9622e-11
3.23062e-08
-7.79287e-11
3.23089e-08
-8.2946e-11
3.23153e-08
-8.53961e-11
3.23248e-08
-8.58808e-11
3.23367e-08
-8.48872e-11
3.23504e-08
-8.27988e-11
3.23653e-08
-7.99123e-11
3.23812e-08
-7.64537e-11
3.23976e-08
-7.25935e-11
3.24142e-08
-6.84609e-11
3.24307e-08
-6.41541e-11
3.2447e-08
-5.97499e-11
3.24628e-08
-5.53101e-11
3.2478e-08
-5.08862e-11
3.24924e-08
-4.65226e-11
3.2506e-08
-4.2259e-11
3.25186e-08
-3.81312e-11
3.25303e-08
-3.41713e-11
3.25409e-08
-3.04082e-11
3.25504e-08
-2.68667e-11
3.2559e-08
-2.35671e-11
3.25665e-08
-2.05246e-11
3.25731e-08
-1.77489e-11
3.25787e-08
-1.52443e-11
3.25836e-08
-1.30089e-11
3.25877e-08
-1.1036e-11
3.25911e-08
-9.31354e-12
3.25939e-08
-7.82566e-12
3.25963e-08
-6.55327e-12
3.25981e-08
-5.47511e-12
3.25997e-08
-4.56878e-12
3.26009e-08
-3.81158e-12
3.26019e-08
-3.1813e-12
3.26026e-08
-2.65689e-12
3.26032e-08
-2.21886e-12
3.26037e-08
-1.84929e-12
3.26041e-08
-1.53153e-12
3.26044e-08
-1.24976e-12
3.26046e-08
-9.87817e-13
3.26047e-08
-7.26188e-13
3.26048e-08
-4.35053e-13
-4.85927e-14
4.07726e-08
2.486e-09
-4.06335e-08
4.09513e-08
2.79758e-09
4.11411e-08
3.02255e-09
4.13272e-08
3.17078e-09
4.15022e-08
3.25714e-09
4.16597e-08
3.29062e-09
4.17943e-08
3.27768e-09
4.19024e-08
3.2258e-09
4.19821e-08
3.14348e-09
4.2033e-08
3.03925e-09
4.20563e-08
2.92105e-09
4.20539e-08
2.79589e-09
4.20286e-08
2.66956e-09
4.19832e-08
2.54646e-09
4.19208e-08
2.42956e-09
4.1844e-08
2.32055e-09
4.17552e-08
2.22014e-09
4.16564e-08
2.12824e-09
4.15492e-08
2.0443e-09
4.14347e-08
1.96746e-09
4.13141e-08
1.89676e-09
4.1188e-08
1.83124e-09
4.10572e-08
1.76999e-09
4.09221e-08
1.71223e-09
4.07834e-08
1.65725e-09
4.06413e-08
1.60446e-09
4.04965e-08
1.55339e-09
4.03492e-08
1.5036e-09
4.02001e-08
1.45475e-09
4.00495e-08
1.40652e-09
3.9898e-08
1.35865e-09
3.97459e-08
1.31088e-09
3.9594e-08
1.26299e-09
3.94426e-08
1.21475e-09
3.92924e-08
1.16596e-09
3.91438e-08
1.11641e-09
3.89976e-08
1.06588e-09
3.88543e-08
1.01416e-09
3.87145e-08
9.61032e-10
3.85789e-08
9.06263e-10
3.84482e-08
8.49621e-10
3.83229e-08
7.90882e-10
3.82037e-08
7.29858e-10
3.80912e-08
6.66444e-10
3.79857e-08
6.00691e-10
3.78875e-08
5.32903e-10
3.77968e-08
4.6374e-10
3.77135e-08
3.94304e-10
3.76375e-08
3.26129e-10
3.75687e-08
2.61014e-10
3.7507e-08
2.00693e-10
3.74521e-08
1.46442e-10
3.74034e-08
9.89313e-11
3.73592e-08
5.82196e-11
3.73195e-08
2.35771e-11
3.72852e-08
-5.47511e-12
3.72567e-08
-2.87013e-11
3.72337e-08
-4.65595e-11
3.72156e-08
-5.98712e-11
3.72021e-08
-6.94366e-11
3.71926e-08
-7.59589e-11
3.71868e-08
-8.0044e-11
3.71841e-08
-8.21983e-11
3.71842e-08
-8.28327e-11
3.71865e-08
-8.22753e-11
3.71908e-08
-8.07838e-11
3.71968e-08
-7.85591e-11
3.72041e-08
-7.57572e-11
3.72125e-08
-7.25012e-11
3.72216e-08
-6.88894e-11
3.72313e-08
-6.50033e-11
3.72413e-08
-6.09127e-11
3.72515e-08
-5.668e-11
3.72616e-08
-5.23629e-11
3.72715e-08
-4.80162e-11
3.7281e-08
-4.36926e-11
3.729e-08
-3.94426e-11
3.72985e-08
-3.53138e-11
3.73062e-08
-3.13504e-11
3.73133e-08
-2.75918e-11
3.73196e-08
-2.40711e-11
3.73252e-08
-2.08148e-11
3.733e-08
-1.78414e-11
3.73342e-08
-1.51613e-11
3.73376e-08
-1.27769e-11
3.73405e-08
-1.06829e-11
3.73428e-08
-8.86711e-12
3.73446e-08
-7.31199e-12
3.73461e-08
-5.99554e-12
3.73471e-08
-4.89286e-12
3.73479e-08
-3.97741e-12
3.73485e-08
-3.22234e-12
3.73489e-08
-2.60147e-12
3.73491e-08
-2.08978e-12
3.73493e-08
-1.66346e-12
3.73493e-08
-1.29982e-12
3.73493e-08
-9.76191e-13
3.73492e-08
-6.66146e-13
3.73491e-08
-3.29959e-13
1.38409e-13
4.23877e-08
2.36631e-09
-4.2268e-08
4.25446e-08
2.64068e-09
4.27171e-08
2.85006e-09
4.28918e-08
2.99606e-09
4.30614e-08
3.08753e-09
4.32204e-08
3.13162e-09
4.33642e-08
3.13392e-09
4.34893e-08
3.10066e-09
4.35939e-08
3.03895e-09
4.36771e-08
2.95605e-09
4.37393e-08
2.85885e-09
4.37816e-08
2.7535e-09
4.3806e-08
2.64519e-09
4.38145e-08
2.53798e-09
4.38093e-08
2.43476e-09
4.37925e-08
2.33736e-09
4.3766e-08
2.24668e-09
4.37313e-08
2.16295e-09
4.36897e-08
2.08589e-09
4.36422e-08
2.01493e-09
4.35896e-08
1.94935e-09
4.35325e-08
1.88836e-09
4.34713e-08
1.8312e-09
4.34063e-08
1.77716e-09
4.3338e-08
1.72561e-09
4.32664e-08
1.67599e-09
4.3192e-08
1.62784e-09
4.31149e-08
1.58073e-09
4.30353e-08
1.5343e-09
4.29536e-08
1.48824e-09
4.287e-08
1.44226e-09
4.27848e-08
1.39609e-09
4.26983e-08
1.34948e-09
4.26108e-08
1.3022e-09
4.25228e-08
1.25402e-09
4.24345e-08
1.2047e-09
4.23464e-08
1.15402e-09
4.22588e-08
1.10175e-09
4.21721e-08
1.04766e-09
4.20869e-08
9.91505e-10
4.20035e-08
9.33066e-10
4.19222e-08
8.72138e-10
4.18435e-08
8.08574e-10
4.17676e-08
7.42332e-10
4.16947e-08
6.73544e-10
4.1625e-08
6.02606e-10
4.15585e-08
5.30258e-10
4.14952e-08
4.57641e-10
4.1435e-08
3.8626e-10
4.13782e-08
3.17828e-10
4.13249e-08
2.53986e-10
4.12754e-08
1.96004e-10
4.12297e-08
1.44657e-10
4.11877e-08
1.00221e-10
4.11487e-08
6.2506e-11
4.11124e-08
3.08806e-11
4.1079e-08
4.61835e-12
4.10492e-08
-1.67477e-11
4.10229e-08
-3.35054e-11
4.09998e-08
-4.63933e-11
4.09799e-08
-5.60657e-11
4.0963e-08
-6.30992e-11
4.09488e-08
-6.79864e-11
4.09371e-08
-7.11354e-11
4.09277e-08
-7.28786e-11
4.09204e-08
-7.34817e-11
4.0915e-08
-7.31539e-11
4.09113e-08
-7.20597e-11
4.09091e-08
-7.03284e-11
4.09083e-08
-6.80636e-11
4.09086e-08
-6.53502e-11
4.091e-08
-6.22603e-11
4.09122e-08
-5.88586e-11
4.0915e-08
-5.52057e-11
4.09183e-08
-5.13604e-11
4.0922e-08
-4.73817e-11
4.09259e-08
-4.33288e-11
4.09299e-08
-3.9261e-11
4.09338e-08
-3.5237e-11
4.09375e-08
-3.1313e-11
4.09409e-08
-2.75411e-11
4.09441e-08
-2.39677e-11
4.09469e-08
-2.06315e-11
4.09493e-08
-1.75626e-11
4.09513e-08
-1.47815e-11
4.09529e-08
-1.22987e-11
4.09542e-08
-1.01153e-11
4.09551e-08
-8.22347e-12
4.09557e-08
-6.60823e-12
4.0956e-08
-5.24847e-12
4.09562e-08
-4.11873e-12
4.09561e-08
-3.19095e-12
4.0956e-08
-2.4361e-12
4.09557e-08
-1.82506e-12
4.09554e-08
-1.32913e-12
4.0955e-08
-9.20483e-13
4.09546e-08
-5.71416e-13
4.09542e-08
-2.51352e-13
4.09538e-08
8.53914e-14
5.62197e-13
4.40566e-08
2.26132e-09
-4.39516e-08
4.41948e-08
2.50252e-09
4.435e-08
2.6948e-09
4.45106e-08
2.83547e-09
4.46693e-08
2.92888e-09
4.48208e-08
2.98009e-09
4.4961e-08
2.99374e-09
4.50867e-08
2.97495e-09
4.5196e-08
2.92963e-09
4.52881e-08
2.86395e-09
4.53631e-08
2.78385e-09
4.54219e-08
2.69474e-09
4.54658e-08
2.60127e-09
4.54966e-08
2.50718e-09
4.55161e-08
2.41525e-09
4.55261e-08
2.32734e-09
4.55283e-08
2.24453e-09
4.55239e-08
2.16728e-09
4.55143e-08
2.09556e-09
4.55002e-08
2.02903e-09
4.54823e-08
1.96719e-09
4.54613e-08
1.90942e-09
4.54374e-08
1.8551e-09
4.54109e-08
1.80361e-09
4.53821e-08
1.75441e-09
4.53511e-08
1.70699e-09
4.53181e-08
1.66089e-09
4.52831e-08
1.61572e-09
4.52463e-08
1.57112e-09
4.52077e-08
1.52677e-09
4.51676e-08
1.48237e-09
4.5126e-08
1.43766e-09
4.50832e-08
1.39237e-09
4.50391e-08
1.34626e-09
4.4994e-08
1.29909e-09
4.49481e-08
1.2506e-09
4.49016e-08
1.20058e-09
4.48545e-08
1.14877e-09
4.48072e-08
1.09496e-09
4.47598e-08
1.0389e-09
4.47125e-08
9.80391e-10
4.46654e-08
9.19254e-10
4.46186e-08
8.55382e-10
4.45721e-08
7.88784e-10
4.4526e-08
7.19649e-10
4.44802e-08
6.48417e-10
4.44346e-08
5.75844e-10
4.43893e-08
5.03034e-10
4.43441e-08
4.31396e-10
4.42994e-08
3.62499e-10
4.42556e-08
2.97849e-10
4.42129e-08
2.38652e-10
4.41719e-08
1.85692e-10
4.41328e-08
1.39325e-10
4.40958e-08
9.95107e-11
4.40608e-08
6.58847e-11
4.40275e-08
3.78955e-11
4.3996e-08
1.47853e-11
4.39665e-08
-4.04554e-12
4.39392e-08
-1.90853e-11
4.3914e-08
-3.08682e-11
4.38909e-08
-3.99446e-11
4.38697e-08
-4.67902e-11
4.38503e-08
-5.18047e-11
4.38328e-08
-5.53207e-11
4.38169e-08
-5.76073e-11
4.38026e-08
-5.88788e-11
4.37899e-08
-5.93041e-11
4.37786e-08
-5.90157e-11
4.37686e-08
-5.81178e-11
4.37599e-08
-5.66933e-11
4.37525e-08
-5.48105e-11
4.37462e-08
-5.25282e-11
4.37409e-08
-4.99006e-11
4.37365e-08
-4.69799e-11
4.37329e-08
-4.38195e-11
4.37301e-08
-4.04749e-11
4.37278e-08
-3.70042e-11
4.3726e-08
-3.34675e-11
4.37247e-08
-2.99257e-11
4.37236e-08
-2.64385e-11
4.37226e-08
-2.30624e-11
4.37219e-08
-1.98484e-11
4.37211e-08
-1.684e-11
4.37204e-08
-1.40716e-11
4.37197e-08
-1.15673e-11
4.37189e-08
-9.34091e-12
4.37181e-08
-7.39582e-12
4.37172e-08
-5.72623e-12
4.37163e-08
-4.31816e-12
4.37153e-08
-3.15105e-12
4.37143e-08
-2.19972e-12
4.37133e-08
-1.43624e-12
4.37123e-08
-8.31344e-13
4.37114e-08
-3.55799e-13
4.37104e-08
1.97267e-14
4.37095e-08
3.26396e-13
4.37087e-08
5.98046e-13
4.37079e-08
8.81021e-13
1.27431e-12
4.57812e-08
2.16764e-09
-4.56875e-08
4.59037e-08
2.37997e-09
4.60434e-08
2.55516e-09
4.61901e-08
2.68869e-09
4.63372e-08
2.78186e-09
4.64794e-08
2.83787e-09
4.66128e-08
2.86031e-09
4.67344e-08
2.85333e-09
4.68423e-08
2.82174e-09
4.69355e-08
2.77072e-09
4.7014e-08
2.70537e-09
4.70784e-08
2.6304e-09
4.71297e-08
2.54994e-09
4.71695e-08
2.46741e-09
4.71993e-08
2.38545e-09
4.72207e-08
2.30593e-09
4.72352e-08
2.23003e-09
4.72441e-08
2.15839e-09
4.72485e-08
2.09117e-09
4.72492e-08
2.02827e-09
4.72471e-08
1.96934e-09
4.72425e-08
1.91396e-09
4.7236e-08
1.86164e-09
4.72277e-08
1.81186e-09
4.7218e-08
1.76416e-09
4.72069e-08
1.71809e-09
4.71945e-08
1.67323e-09
4.7181e-08
1.62922e-09
4.71664e-08
1.58571e-09
4.71508e-08
1.54241e-09
4.71342e-08
1.49901e-09
4.71166e-08
1.45525e-09
4.70981e-08
1.41087e-09
4.70787e-08
1.36563e-09
4.70585e-08
1.31928e-09
4.70375e-08
1.27158e-09
4.70158e-08
1.2223e-09
4.69934e-08
1.17122e-09
4.69702e-08
1.11809e-09
4.69464e-08
1.06272e-09
4.69219e-08
1.00492e-09
4.68966e-08
9.44536e-10
4.68705e-08
8.81508e-10
4.68434e-08
8.15884e-10
4.68151e-08
7.47888e-10
4.67856e-08
6.77971e-10
4.67546e-08
6.06868e-10
4.6722e-08
5.35605e-10
4.66879e-08
4.65458e-10
4.66526e-08
3.97833e-10
4.66164e-08
3.3408e-10
4.65797e-08
2.7531e-10
4.65431e-08
2.22284e-10
4.6507e-08
1.75391e-10
4.64719e-08
1.34673e-10
4.64379e-08
9.98894e-11
4.64052e-08
7.06085e-11
4.63737e-08
4.62588e-11
4.63434e-08
2.62432e-11
4.63144e-08
9.94179e-12
4.62867e-08
-3.19402e-12
4.62604e-08
-1.36285e-11
4.62354e-08
-2.1797e-11
4.62117e-08
-2.80946e-11
4.61892e-08
-3.28562e-11
4.6168e-08
-3.63566e-11
4.61479e-08
-3.88177e-11
4.6129e-08
-4.04163e-11
4.61113e-08
-4.12912e-11
4.60947e-08
-4.15502e-11
4.60793e-08
-4.12768e-11
4.6065e-08
-4.05366e-11
4.60519e-08
-3.93828e-11
4.60398e-08
-3.78612e-11
4.60289e-08
-3.60146e-11
4.60189e-08
-3.38857e-11
4.601e-08
-3.15197e-11
4.6002e-08
-2.89654e-11
4.59948e-08
-2.62752e-11
4.59883e-08
-2.35047e-11
4.59826e-08
-2.07109e-11
4.59775e-08
-1.79501e-11
4.59729e-08
-1.52758e-11
4.59688e-08
-1.27359e-11
4.59651e-08
-1.03711e-11
4.59618e-08
-8.21318e-12
4.59587e-08
-6.28375e-12
4.59559e-08
-4.59437e-12
4.59533e-08
-3.14696e-12
4.59509e-08
-1.93465e-12
4.59487e-08
-9.43349e-13
4.59467e-08
-1.52892e-13
4.59448e-08
4.62427e-13
4.5943e-08
9.30085e-13
4.59414e-08
1.27737e-12
4.59399e-08
1.53199e-12
4.59385e-08
1.72208e-12
4.59372e-08
1.87824e-12
4.59361e-08
2.0395e-12
2.26499e-12
4.75635e-08
2.08292e-09
-4.74788e-08
4.76731e-08
2.27041e-09
4.77989e-08
2.42934e-09
4.79329e-08
2.55475e-09
4.80686e-08
2.64611e-09
4.82014e-08
2.7051e-09
4.83274e-08
2.73432e-09
4.84437e-08
2.73703e-09
4.85483e-08
2.7171e-09
4.86402e-08
2.6788e-09
4.87192e-08
2.62645e-09
4.87854e-08
2.56412e-09
4.88399e-08
2.49544e-09
4.88838e-08
2.42352e-09
4.89185e-08
2.35081e-09
4.89453e-08
2.27914e-09
4.89655e-08
2.20975e-09
4.89805e-08
2.1434e-09
4.89912e-08
2.08044e-09
4.89986e-08
2.0209e-09
4.90033e-08
1.96464e-09
4.90059e-08
1.91136e-09
4.90069e-08
1.8607e-09
4.90065e-08
1.81226e-09
4.9005e-08
1.76566e-09
4.90025e-08
1.72051e-09
4.89993e-08
1.67645e-09
4.89954e-08
1.63314e-09
4.89908e-08
1.59028e-09
4.89857e-08
1.54756e-09
4.898e-08
1.50473e-09
4.89737e-08
1.46152e-09
4.89669e-08
1.41768e-09
4.89595e-08
1.37299e-09
4.89516e-08
1.3272e-09
4.89431e-08
1.28009e-09
4.8934e-08
1.23143e-09
4.89242e-08
1.18102e-09
4.89136e-08
1.12864e-09
4.89022e-08
1.07412e-09
4.88899e-08
1.01728e-09
4.88764e-08
9.58027e-10
4.88616e-08
8.96323e-10
4.88452e-08
8.32254e-10
4.8827e-08
7.66062e-10
4.88068e-08
6.98195e-10
4.87843e-08
6.29343e-10
4.87595e-08
5.6044e-10
4.87323e-08
4.92623e-10
4.8703e-08
4.27132e-10
4.86719e-08
3.65163e-10
4.86395e-08
3.07722e-10
4.86063e-08
2.55525e-10
4.85727e-08
2.08974e-10
4.85392e-08
1.68168e-10
4.85061e-08
1.32951e-10
4.84738e-08
1.02983e-10
4.84422e-08
7.77964e-11
4.84116e-08
5.68686e-11
4.83819e-08
3.96585e-11
4.8353e-08
2.56389e-11
4.83251e-08
1.43178e-11
4.82981e-08
5.25151e-12
4.82719e-08
-1.94393e-12
4.82466e-08
-7.59266e-12
4.82223e-08
-1.19721e-11
4.81988e-08
-1.53146e-11
4.81761e-08
-1.78081e-11
4.81545e-08
-1.9601e-11
4.81337e-08
-2.08086e-11
4.8114e-08
-2.15185e-11
4.80952e-08
-2.17968e-11
4.80775e-08
-2.16937e-11
4.80609e-08
-2.12487e-11
4.80454e-08
-2.04952e-11
4.8031e-08
-1.9465e-11
4.80176e-08
-1.81908e-11
4.80054e-08
-1.67087e-11
4.79942e-08
-1.50592e-11
4.7984e-08
-1.32866e-11
4.79747e-08
-1.14385e-11
4.79663e-08
-9.56419e-12
4.79587e-08
-7.71199e-12
4.79519e-08
-5.9273e-12
4.79458e-08
-4.25029e-12
4.79403e-08
-2.71415e-12
4.79354e-08
-1.34391e-12
4.79309e-08
-1.55202e-13
4.79269e-08
8.46249e-13
4.79233e-08
1.66275e-12
4.79201e-08
2.30314e-12
4.79172e-08
2.78216e-12
4.79145e-08
3.11885e-12
4.79121e-08
3.33528e-12
4.79099e-08
3.45541e-12
4.79079e-08
3.50379e-12
4.79062e-08
3.50506e-12
4.79045e-08
3.48469e-12
4.79031e-08
3.47014e-12
3.48184e-12
4.94061e-08
2.0055e-09
-4.93287e-08
4.95048e-08
2.17172e-09
4.96185e-08
2.31564e-09
4.97407e-08
2.43258e-09
4.98658e-08
2.52102e-09
4.99893e-08
2.58153e-09
5.01078e-08
2.61584e-09
5.02184e-08
2.62642e-09
5.03192e-08
2.61634e-09
5.04089e-08
2.58907e-09
5.04872e-08
2.54821e-09
5.05541e-08
2.49723e-09
5.06102e-08
2.43932e-09
5.06565e-08
2.37724e-09
5.0694e-08
2.31325e-09
5.07241e-08
2.2491e-09
5.07478e-08
2.18605e-09
5.07662e-08
2.12493e-09
5.07805e-08
2.0662e-09
5.07913e-08
2.01006e-09
5.07995e-08
1.95648e-09
5.08055e-08
1.90532e-09
5.08099e-08
1.85632e-09
5.0813e-08
1.80919e-09
5.0815e-08
1.76362e-09
5.08162e-08
1.71929e-09
5.08168e-08
1.67589e-09
5.08168e-08
1.63313e-09
5.08164e-08
1.59072e-09
5.08155e-08
1.54841e-09
5.08143e-08
1.50595e-09
5.08127e-08
1.46309e-09
5.08108e-08
1.41961e-09
5.08085e-08
1.37528e-09
5.08058e-08
1.32989e-09
5.08027e-08
1.28323e-09
5.0799e-08
1.23509e-09
5.07947e-08
1.18529e-09
5.07897e-08
1.13363e-09
5.07839e-08
1.07996e-09
5.0777e-08
1.02416e-09
5.07689e-08
9.66145e-10
5.07593e-08
9.05922e-10
5.0748e-08
8.436e-10
5.07346e-08
7.79434e-10
5.07189e-08
7.1386e-10
5.07008e-08
6.47514e-10
5.068e-08
5.81239e-10
5.06565e-08
5.1604e-10
5.06307e-08
4.53002e-10
5.06027e-08
3.93179e-10
5.05729e-08
3.37471e-10
5.05419e-08
2.86544e-10
5.05101e-08
2.40798e-10
5.04779e-08
2.00371e-10
5.04456e-08
1.65174e-10
5.04137e-08
1.34944e-10
5.03822e-08
1.09296e-10
5.03513e-08
8.77756e-11
5.0321e-08
6.99001e-11
5.02915e-08
5.51846e-11
5.02626e-08
4.31654e-11
5.02345e-08
3.34161e-11
5.0207e-08
2.55529e-11
5.01801e-08
1.92383e-11
5.0154e-08
1.41835e-11
5.01285e-08
1.01465e-11
5.01038e-08
6.92829e-12
5.00798e-08
4.36952e-12
5.00567e-08
2.34601e-12
5.00344e-08
7.64051e-13
5.0013e-08
-4.44521e-13
4.99927e-08
-1.32808e-12
4.99733e-08
-1.92145e-12
4.99551e-08
-2.25035e-12
4.9938e-08
-2.33591e-12
4.9922e-08
-2.19845e-12
4.99071e-08
-1.8604e-12
4.98934e-08
-1.348e-12
4.98808e-08
-6.92159e-13
4.98693e-08
7.20541e-14
4.98588e-08
9.06875e-13
4.98493e-08
1.77342e-12
4.98408e-08
2.63345e-12
4.98331e-08
3.45167e-12
4.98262e-08
4.19764e-12
4.982e-08
4.84733e-12
4.98144e-08
5.38393e-12
4.98095e-08
5.79804e-12
4.98051e-08
6.08769e-12
4.98011e-08
6.25758e-12
4.97976e-08
6.3177e-12
4.97944e-08
6.28211e-12
4.97916e-08
6.16777e-12
4.9789e-08
5.99358e-12
4.97868e-08
5.77914e-12
4.97847e-08
5.54394e-12
4.97829e-08
5.30673e-12
4.97813e-08
5.08312e-12
4.86634e-12
5.13113e-08
1.93421e-09
-5.12401e-08
5.14008e-08
2.08222e-09
5.15039e-08
2.21255e-09
5.16154e-08
2.3211e-09
5.17305e-08
2.40589e-09
5.18453e-08
2.46677e-09
5.19564e-08
2.50474e-09
5.20612e-08
2.52162e-09
5.21577e-08
2.51977e-09
5.22448e-08
2.50199e-09
5.23218e-08
2.47123e-09
5.23886e-08
2.43043e-09
5.24456e-08
2.38233e-09
5.24935e-08
2.32937e-09
5.25331e-08
2.2736e-09
5.25656e-08
2.21666e-09
5.25918e-08
2.15979e-09
5.26129e-08
2.10387e-09
5.26296e-08
2.04944e-09
5.26429e-08
1.9968e-09
5.26533e-08
1.94604e-09
5.26615e-08
1.89713e-09
5.26679e-08
1.84992e-09
5.26729e-08
1.8042e-09
5.26768e-08
1.75974e-09
5.26798e-08
1.71629e-09
5.26821e-08
1.67359e-09
5.26838e-08
1.63139e-09
5.26851e-08
1.58945e-09
5.2686e-08
1.54753e-09
5.26865e-08
1.50541e-09
5.26867e-08
1.46287e-09
5.26866e-08
1.4197e-09
5.26862e-08
1.37569e-09
5.26855e-08
1.33066e-09
5.26843e-08
1.2844e-09
5.26826e-08
1.23675e-09
5.26804e-08
1.18753e-09
5.26774e-08
1.13658e-09
5.26736e-08
1.08377e-09
5.26688e-08
1.02902e-09
5.26626e-08
9.72268e-10
5.2655e-08
9.13558e-10
5.26456e-08
8.53017e-10
5.26341e-08
7.90907e-10
5.26203e-08
7.27643e-10
5.2604e-08
6.63813e-10
5.25851e-08
6.00171e-10
5.25635e-08
5.37604e-10
5.25395e-08
4.77062e-10
5.25132e-08
4.19469e-10
5.2485e-08
3.65629e-10
5.24554e-08
3.16155e-10
5.24248e-08
2.71436e-10
5.23935e-08
2.31636e-10
5.2362e-08
1.9672e-10
5.23304e-08
1.6649e-10
5.22991e-08
1.40628e-10
5.22681e-08
1.18745e-10
5.22376e-08
1.00408e-10
5.22076e-08
8.51742e-11
5.21782e-08
7.26091e-11
5.21493e-08
6.2302e-11
5.2121e-08
5.38757e-11
5.20932e-08
4.69917e-11
5.20661e-08
4.13538e-11
5.20395e-08
3.67091e-11
5.20136e-08
3.28467e-11
5.19883e-08
2.9596e-11
5.19639e-08
2.68231e-11
5.19402e-08
2.44273e-11
5.19174e-08
2.2336e-11
5.18956e-08
2.05005e-11
5.18748e-08
1.88898e-11
5.18551e-08
1.74856e-11
5.18364e-08
1.62769e-11
5.1819e-08
1.5256e-11
5.18027e-08
1.44146e-11
5.17876e-08
1.37414e-11
5.17737e-08
1.32204e-11
5.17609e-08
1.28312e-11
5.17493e-08
1.25487e-11
5.17387e-08
1.2345e-11
5.17292e-08
1.21914e-11
5.17206e-08
1.20595e-11
5.17128e-08
1.19238e-11
5.17059e-08
1.17629e-11
5.16998e-08
1.15605e-11
5.16942e-08
1.1306e-11
5.16893e-08
1.09946e-11
5.1685e-08
1.06272e-11
5.16811e-08
1.0209e-11
5.16776e-08
9.74905e-12
5.16745e-08
9.2588e-12
5.16718e-08
8.75158e-12
5.16693e-08
8.24137e-12
5.16671e-08
7.7417e-12
5.16651e-08
7.26428e-12
5.16634e-08
6.81453e-12
6.37155e-12
5.32818e-08
1.86821e-09
-5.32158e-08
5.33635e-08
2.0006e-09
5.34572e-08
2.1188e-09
5.3559e-08
2.21929e-09
5.36649e-08
2.30002e-09
5.37713e-08