/*--------------------------------*- C++ -*----------------------------------*\
| =========                 |                                                 |
| \\      /  F ield         | OpenFOAM: The Open Source CFD Toolbox           |
|  \\    /   O peration     | Version:  2.3.0                                 |
|   \\  /    A nd           | Web:      www.OpenFOAM.org                      |
|    \\/     M anipulation  |                                                 |
\*---------------------------------------------------------------------------*/
FoamFile
{
    version     2.0;
    format      ascii;
    class       volVectorField;
    location    "0.2";
    object      U_0;
}
// * * * * * * * * * * * * * * * * * * * * * * * * * * * * * * * * * * * * * //

dimensions      [0 1 -1 0 0 0 0];

internalField   nonuniform List<vector> 
3105
(
(0.171609 0.00583871 0)
(0.154995 0.00598391 0)
(0.139185 0.00560628 0)
(0.12419 0.00502087 0)
(0.110391 0.00436394 0)
(0.0979836 0.00369462 0)
(0.0869966 0.00305058 0)
(0.0773984 0.00245801 0)
(0.0691325 0.00193317 0)
(0.0621139 0.00148441 0)
(0.0562294 0.00111372 0)
(0.0513456 0.000817804 0)
(0.0473209 0.000589321 0)
(0.0440151 0.000418521 0)
(0.041297 0.000294793 0)
(0.0390499 0.000207892 0)
(0.0371742 0.000148712 0)
(0.0355878 0.00010964 0)
(0.0342257 8.46199e-05 0)
(0.0330374 6.90339e-05 0)
(0.031985 5.95061e-05 0)
(0.0310405 5.36722e-05 0)
(0.0301833 4.99516e-05 0)
(0.0293985 4.73418e-05 0)
(0.0286753 4.52455e-05 0)
(0.0280056 4.33346e-05 0)
(0.0273833 4.14501e-05 0)
(0.0268039 3.95321e-05 0)
(0.0262635 3.75732e-05 0)
(0.025759 3.55905e-05 0)
(0.0252879 3.36091e-05 0)
(0.0248479 3.16532e-05 0)
(0.024437 2.97431e-05 0)
(0.0240535 2.78936e-05 0)
(0.023696 2.61153e-05 0)
(0.0233629 2.44154e-05 0)
(0.0230533 2.27994e-05 0)
(0.022766 2.12713e-05 0)
(0.0225001 1.98328e-05 0)
(0.0222549 1.84807e-05 0)
(0.0220297 1.72015e-05 0)
(0.0218241 1.59626e-05 0)
(0.0216378 1.4702e-05 0)
(0.0214712 1.33171e-05 0)
(0.0213248 1.16634e-05 0)
(0.0212002 9.58987e-06 0)
(0.0210997 7.06172e-06 0)
(0.0210263 4.24471e-06 0)
(0.0209845 1.50909e-06 0)
(0.0209778 -9.69355e-07 0)
(0.0209974 -3.06694e-06 0)
(0.0210357 -4.99368e-06 0)
(0.0210884 -6.58288e-06 0)
(0.021151 -7.58249e-06 0)
(0.0212194 -8.02886e-06 0)
(0.0212904 -8.06043e-06 0)
(0.0213611 -7.80609e-06 0)
(0.0214296 -7.36861e-06 0)
(0.0214944 -6.82676e-06 0)
(0.0215549 -6.23868e-06 0)
(0.0216106 -5.64493e-06 0)
(0.0216615 -5.0719e-06 0)
(0.0217076 -4.53497e-06 0)
(0.0217492 -4.04164e-06 0)
(0.0217867 -3.59417e-06 0)
(0.0218203 -3.19157e-06 0)
(0.0218503 -2.831e-06 0)
(0.0218771 -2.50878e-06 0)
(0.021901 -2.22102e-06 0)
(0.0219222 -1.96395e-06 0)
(0.0219411 -1.73412e-06 0)
(0.0219578 -1.52849e-06 0)
(0.0219726 -1.34439e-06 0)
(0.0219856 -1.17959e-06 0)
(0.021997 -1.03213e-06 0)
(0.022007 -9.00375e-07 0)
(0.0220158 -7.82908e-07 0)
(0.0220234 -6.78475e-07 0)
(0.02203 -5.8599e-07 0)
(0.0220358 -5.04442e-07 0)
(0.0220408 -4.329e-07 0)
(0.022045 -3.70478e-07 0)
(0.0220488 -3.16332e-07 0)
(0.022052 -2.69626e-07 0)
(0.0220547 -2.29565e-07 0)
(0.0220571 -1.95357e-07 0)
(0.0220591 -1.66266e-07 0)
(0.0220609 -1.41574e-07 0)
(0.0220625 -1.2062e-07 0)
(0.0220638 -1.02783e-07 0)
(0.0220649 -8.74907e-08 0)
(0.0220659 -7.42234e-08 0)
(0.0220668 -6.24992e-08 0)
(0.0220675 -5.18459e-08 0)
(0.0220681 -4.17477e-08 0)
(0.0220687 -3.16249e-08 0)
(0.0220691 -2.06854e-08 0)
(0.0220693 -7.8139e-09 0)
(0.0220695 4.18147e-09 0)
(0.0220695 4.78912e-09 0)
(0.19064 0.00925621 0)
(0.188281 0.00987656 0)
(0.184406 0.00971429 0)
(0.179295 0.00923541 0)
(0.173414 0.00860946 0)
(0.167122 0.00789178 0)
(0.160648 0.00712072 0)
(0.15416 0.00633145 0)
(0.147793 0.00555396 0)
(0.141647 0.00481289 0)
(0.135792 0.00412746 0)
(0.130268 0.00351101 0)
(0.125095 0.00297068 0)
(0.120278 0.00250789 0)
(0.11581 0.00211937 0)
(0.111676 0.0017985 0)
(0.107855 0.00153669 0)
(0.104328 0.00132465 0)
(0.101069 0.00115334 0)
(0.0980555 0.00101456 0)
(0.0952664 0.000901296 0)
(0.0926809 0.0008078 0)
(0.09028 0.000729537 0)
(0.0880471 0.000663014 0)
(0.085967 0.000605603 0)
(0.0840263 0.000555345 0)
(0.0822134 0.000510792 0)
(0.0805179 0.000470872 0)
(0.0789308 0.000434778 0)
(0.0774442 0.000401894 0)
(0.0760514 0.00037174 0)
(0.0747462 0.00034393 0)
(0.0735235 0.000318148 0)
(0.0723789 0.000294128 0)
(0.0713085 0.000271644 0)
(0.070309 0.000250502 0)
(0.0693776 0.000230534 0)
(0.0685119 0.000211591 0)
(0.0677102 0.000193538 0)
(0.0669709 0.000176238 0)
(0.066293 0.000159542 0)
(0.0656761 0.000143265 0)
(0.0651203 0.000127167 0)
(0.0646262 0.000110932 0)
(0.0641954 9.41598e-05 0)
(0.0638299 7.64088e-05 0)
(0.0635321 5.73361e-05 0)
(0.0633041 3.68402e-05 0)
(0.0631467 1.51303e-05 0)
(0.063061 -6.2267e-06 0)
(0.0630545 -2.30662e-05 0)
(0.0631034 -3.34865e-05 0)
(0.063191 -3.97901e-05 0)
(0.0633053 -4.35114e-05 0)
(0.0634366 -4.51772e-05 0)
(0.0635771 -4.5098e-05 0)
(0.0637206 -4.36666e-05 0)
(0.0638625 -4.13138e-05 0)
(0.0639994 -3.84146e-05 0)
(0.0641293 -3.52572e-05 0)
(0.0642508 -3.20465e-05 0)
(0.0643633 -2.89183e-05 0)
(0.0644667 -2.59556e-05 0)
(0.0645612 -2.32024e-05 0)
(0.064647 -2.06765e-05 0)
(0.0647246 -1.8379e-05 0)
(0.0647946 -1.6301e-05 0)
(0.0648575 -1.44282e-05 0)
(0.0649138 -1.27446e-05 0)
(0.064964 -1.12337e-05 0)
(0.0650087 -9.88006e-06 0)
(0.0650483 -8.66912e-06 0)
(0.0650833 -7.58775e-06 0)
(0.0651141 -6.62415e-06 0)
(0.0651411 -5.76763e-06 0)
(0.0651647 -5.00853e-06 0)
(0.0651853 -4.33803e-06 0)
(0.0652031 -3.74798e-06 0)
(0.0652186 -3.23085e-06 0)
(0.065232 -2.7796e-06 0)
(0.0652435 -2.38758e-06 0)
(0.0652534 -2.04855e-06 0)
(0.065262 -1.7566e-06 0)
(0.0652694 -1.50619e-06 0)
(0.0652757 -1.2921e-06 0)
(0.0652812 -1.10949e-06 0)
(0.0652859 -9.53895e-07 0)
(0.06529 -8.21258e-07 0)
(0.0652936 -7.07912e-07 0)
(0.0652967 -6.10569e-07 0)
(0.0652994 -5.263e-07 0)
(0.0653018 -4.52525e-07 0)
(0.0653039 -3.86931e-07 0)
(0.0653056 -3.27334e-07 0)
(0.0653071 -2.71502e-07 0)
(0.0653084 -2.17008e-07 0)
(0.0653095 -1.60914e-07 0)
(0.0653102 -9.98704e-08 0)
(0.0653108 -3.65118e-08 0)
(0.065311 3.39839e-09 0)
(0.193614 0.0089168 0)
(0.194368 0.00994059 0)
(0.194531 0.0103249 0)
(0.19392 0.0103501 0)
(0.192624 0.0101383 0)
(0.190761 0.00973548 0)
(0.188425 0.00918553 0)
(0.185703 0.00853737 0)
(0.182686 0.00783665 0)
(0.179462 0.00712227 0)
(0.176107 0.00642549 0)
(0.172686 0.00576937 0)
(0.16925 0.00516869 0)
(0.165838 0.00463072 0)
(0.162482 0.00415663 0)
(0.159201 0.0037433 0)
(0.156009 0.00338492 0)
(0.152914 0.0030745 0)
(0.149923 0.00280489 0)
(0.147035 0.00256943 0)
(0.144253 0.00236231 0)
(0.141574 0.00217865 0)
(0.138997 0.0020145 0)
(0.136521 0.00186667 0)
(0.134143 0.00173263 0)
(0.131862 0.00161035 0)
(0.129675 0.00149822 0)
(0.12758 0.00139491 0)
(0.125575 0.00129931 0)
(0.123659 0.00121051 0)
(0.121829 0.0011277 0)
(0.120085 0.00105018 0)
(0.118424 0.000977331 0)
(0.116846 0.000908611 0)
(0.115349 0.000843522 0)
(0.113932 0.000781617 0)
(0.112596 0.00072249 0)
(0.11134 0.000665763 0)
(0.110163 0.000611077 0)
(0.109066 0.000558072 0)
(0.108049 0.000506366 0)
(0.107115 0.000455542 0)
(0.106263 0.00040513 0)
(0.105497 0.000354622 0)
(0.104817 0.000303512 0)
(0.104226 0.000251393 0)
(0.103726 0.000198106 0)
(0.103316 0.000143939 0)
(0.102994 8.96592e-05 0)
(0.102747 3.66258e-05 0)
(0.102567 -1.20066e-05 0)
(0.10248 -5.09187e-05 0)
(0.102469 -7.72871e-05 0)
(0.102514 -9.30869e-05 0)
(0.1026 -0.000101537 0)
(0.102715 -0.000104786 0)
(0.102848 -0.000104179 0)
(0.102993 -0.000100793 0)
(0.103142 -9.55526e-05 0)
(0.103291 -8.92053e-05 0)
(0.103438 -8.23169e-05 0)
(0.103579 -7.52887e-05 0)
(0.103713 -6.8389e-05 0)
(0.10384 -6.17849e-05 0)
(0.103958 -5.55708e-05 0)
(0.104067 -4.9792e-05 0)
(0.104168 -4.44616e-05 0)
(0.104261 -3.95732e-05 0)
(0.104345 -3.51101e-05 0)
(0.104422 -3.10501e-05 0)
(0.104491 -2.73693e-05 0)
(0.104553 -2.40436e-05 0)
(0.104608 -2.10495e-05 0)
(0.104657 -1.83646e-05 0)
(0.104701 -1.59672e-05 0)
(0.104739 -1.38364e-05 0)
(0.104772 -1.19521e-05 0)
(0.104801 -1.02944e-05 0)
(0.104827 -8.84403e-06 0)
(0.104848 -7.58208e-06 0)
(0.104867 -6.49009e-06 0)
(0.104883 -5.55015e-06 0)
(0.104896 -4.74507e-06 0)
(0.104908 -4.05846e-06 0)
(0.104918 -3.4749e-06 0)
(0.104926 -2.98006e-06 0)
(0.104933 -2.56082e-06 0)
(0.104939 -2.20532e-06 0)
(0.104945 -1.903e-06 0)
(0.104949 -1.64454e-06 0)
(0.104953 -1.4218e-06 0)
(0.104956 -1.22774e-06 0)
(0.104959 -1.05622e-06 0)
(0.104962 -9.01671e-07 0)
(0.104964 -7.58738e-07 0)
(0.104966 -6.21852e-07 0)
(0.104967 -4.84612e-07 0)
(0.104968 -3.39622e-07 0)
(0.104969 -1.83134e-07 0)
(0.10497 -3.6904e-08 0)
(0.194651 0.00829299 0)
(0.195769 0.00937683 0)
(0.196812 0.0099709 0)
(0.197561 0.0102337 0)
(0.197975 0.0102575 0)
(0.198056 0.0100811 0)
(0.197803 0.00974001 0)
(0.197222 0.00927583 0)
(0.196336 0.0087303 0)
(0.195181 0.00814091 0)
(0.193798 0.00753953 0)
(0.19223 0.00695146 0)
(0.190517 0.00639485 0)
(0.188695 0.00588094 0)
(0.186797 0.00541497 0)
(0.184847 0.00499759 0)
(0.182867 0.00462629 0)
(0.180871 0.00429671 0)
(0.178873 0.00400366 0)
(0.17688 0.00374188 0)
(0.1749 0.00350646 0)
(0.172939 0.00329309 0)
(0.170999 0.00309815 0)
(0.169086 0.00291865 0)
(0.167201 0.00275218 0)
(0.165349 0.0025968 0)
(0.163532 0.00245099 0)
(0.161751 0.0023135 0)
(0.160011 0.0021833 0)
(0.158312 0.00205954 0)
(0.156658 0.0019415 0)
(0.155051 0.00182853 0)
(0.153492 0.00172006 0)
(0.151985 0.00161559 0)
(0.150531 0.00151461 0)
(0.149132 0.0014167 0)
(0.147792 0.00132142 0)
(0.146513 0.00122835 0)
(0.145296 0.00113707 0)
(0.144146 0.00104716 0)
(0.143064 0.000958131 0)
(0.142055 0.000869488 0)
(0.141121 0.000780695 0)
(0.140265 0.000691237 0)
(0.139491 0.000600714 0)
(0.138801 0.000509008 0)
(0.138196 0.00041654 0)
(0.137676 0.000324619 0)
(0.137237 0.000235755 0)
(0.136876 0.000152807 0)
(0.136581 7.66281e-05 0)
(0.136333 8.32974e-06 0)
(0.136151 -4.85369e-05 0)
(0.136042 -9.10222e-05 0)
(0.135991 -0.000119531 0)
(0.135988 -0.000136954 0)
(0.136023 -0.000146012 0)
(0.136087 -0.000148836 0)
(0.136172 -0.000147123 0)
(0.136272 -0.000142243 0)
(0.136383 -0.000135281 0)
(0.136499 -0.000127062 0)
(0.136619 -0.000118188 0)
(0.136738 -0.000109084 0)
(0.136856 -0.000100037 0)
(0.136971 -9.12342e-05 0)
(0.137081 -8.27935e-05 0)
(0.137186 -7.47838e-05 0)
(0.137285 -6.72431e-05 0)
(0.137378 -6.01895e-05 0)
(0.137464 -5.36291e-05 0)
(0.137544 -4.75604e-05 0)
(0.137617 -4.19771e-05 0)
(0.137683 -3.68695e-05 0)
(0.137743 -3.22253e-05 0)
(0.137796 -2.80295e-05 0)
(0.137844 -2.42645e-05 0)
(0.137886 -2.09101e-05 0)
(0.137922 -1.79437e-05 0)
(0.137954 -1.53402e-05 0)
(0.137982 -1.30726e-05 0)
(0.138005 -1.11123e-05 0)
(0.138025 -9.42984e-06 0)
(0.138042 -7.99558e-06 0)
(0.138056 -6.78011e-06 0)
(0.138067 -5.75508e-06 0)
(0.138077 -4.89363e-06 0)
(0.138086 -4.17089e-06 0)
(0.138092 -3.56426e-06 0)
(0.138098 -3.05353e-06 0)
(0.138103 -2.62091e-06 0)
(0.138107 -2.25098e-06 0)
(0.13811 -1.93047e-06 0)
(0.138113 -1.64766e-06 0)
(0.138115 -1.39184e-06 0)
(0.138117 -1.15257e-06 0)
(0.138119 -9.18489e-07 0)
(0.13812 -6.75749e-07 0)
(0.138121 -4.08686e-07 0)
(0.138122 -1.05624e-07 0)
(0.195387 0.00779804 0)
(0.196373 0.00879911 0)
(0.197441 0.00941957 0)
(0.198427 0.00975378 0)
(0.19928 0.00987562 0)
(0.199977 0.00982007 0)
(0.200494 0.00961398 0)
(0.20081 0.00928875 0)
(0.200915 0.00887756 0)
(0.200814 0.00841177 0)
(0.200521 0.00791928 0)
(0.200054 0.00742347 0)
(0.199437 0.00694233 0)
(0.198693 0.00648819 0)
(0.197845 0.00606815 0)
(0.196913 0.00568505 0)
(0.195914 0.00533852 0)
(0.194862 0.00502613 0)
(0.193768 0.00474431 0)
(0.192641 0.00448906 0)
(0.191488 0.00425642 0)
(0.190315 0.0040428 0)
(0.189126 0.00384507 0)
(0.187925 0.0036606 0)
(0.186716 0.00348724 0)
(0.185502 0.00332323 0)
(0.184286 0.00316717 0)
(0.183072 0.00301792 0)
(0.181862 0.00287453 0)
(0.18066 0.0027362 0)
(0.179468 0.00260227 0)
(0.17829 0.00247212 0)
(0.177129 0.00234521 0)
(0.175987 0.00222106 0)
(0.174869 0.00209919 0)
(0.173778 0.00197916 0)
(0.172716 0.00186053 0)
(0.171688 0.00174289 0)
(0.170697 0.00162578 0)
(0.169746 0.00150874 0)
(0.16884 0.0013913 0)
(0.167981 0.00127295 0)
(0.167175 0.00115321 0)
(0.166424 0.00103171 0)
(0.165732 0.000908314 0)
(0.165101 0.000783345 0)
(0.164531 0.000657825 0)
(0.164024 0.00053375 0)
(0.163577 0.000414166 0)
(0.163189 0.000302711 0)
(0.162855 0.000202592 0)
(0.162571 0.000114477 0)
(0.162321 3.76789e-05 0)
(0.162105 -2.69542e-05 0)
(0.161939 -7.76912e-05 0)
(0.161817 -0.000114582 0)
(0.161736 -0.00013965 0)
(0.161689 -0.00015531 0)
(0.161671 -0.000163681 0)
(0.161678 -0.000166513 0)
(0.161706 -0.000165243 0)
(0.16175 -0.000161023 0)
(0.161806 -0.000154753 0)
(0.161873 -0.000147114 0)
(0.161946 -0.000138615 0)
(0.162025 -0.000129626 0)
(0.162107 -0.000120415 0)
(0.16219 -0.000111176 0)
(0.162273 -0.000102047 0)
(0.162356 -9.31323e-05 0)
(0.162436 -8.45088e-05 0)
(0.162513 -7.6237e-05 0)
(0.162587 -6.83647e-05 0)
(0.162656 -6.09305e-05 0)
(0.162721 -5.3965e-05 0)
(0.162781 -4.74917e-05 0)
(0.162835 -4.15267e-05 0)
(0.162885 -3.60786e-05 0)
(0.162929 -3.11483e-05 0)
(0.162968 -2.67288e-05 0)
(0.163002 -2.28055e-05 0)
(0.163031 -1.93568e-05 0)
(0.163057 -1.63549e-05 0)
(0.163078 -1.37668e-05 0)
(0.163096 -1.15559e-05 0)
(0.163111 -9.68334e-06 0)
(0.163123 -8.10917e-06 0)
(0.163133 -6.79408e-06 0)
(0.163141 -5.7003e-06 0)
(0.163147 -4.79249e-06 0)
(0.163153 -4.03832e-06 0)
(0.163157 -3.40898e-06 0)
(0.16316 -2.8791e-06 0)
(0.163162 -2.42635e-06 0)
(0.163164 -2.03069e-06 0)
(0.163166 -1.67359e-06 0)
(0.163167 -1.33616e-06 0)
(0.163168 -9.95711e-07 0)
(0.163169 -6.19432e-07 0)
(0.163169 -1.40478e-07 0)
(0.196014 0.00736755 0)
(0.196832 0.00825628 0)
(0.197766 0.00885438 0)
(0.198699 0.00921097 0)
(0.19958 0.00937935 0)
(0.200387 0.00938983 0)
(0.201096 0.00926483 0)
(0.201686 0.00902959 0)
(0.202141 0.00871146 0)
(0.202457 0.00833703 0)
(0.202635 0.00793037 0)
(0.202683 0.00751217 0)
(0.202613 0.00709888 0)
(0.202439 0.00670245 0)
(0.202175 0.00633041 0)
(0.201837 0.00598657 0)
(0.201435 0.00567184 0)
(0.200981 0.00538508 0)
(0.200483 0.00512391 0)
(0.199948 0.00488535 0)
(0.19938 0.00466628 0)
(0.198786 0.0044637 0)
(0.198167 0.0042749 0)
(0.197526 0.00409756 0)
(0.196867 0.0039297 0)
(0.19619 0.00376971 0)
(0.1955 0.00361623 0)
(0.194797 0.00346815 0)
(0.194084 0.00332454 0)
(0.193362 0.00318462 0)
(0.192636 0.0030477 0)
(0.191906 0.00291319 0)
(0.191175 0.00278053 0)
(0.190446 0.00264923 0)
(0.189721 0.0025188 0)
(0.189004 0.0023888 0)
(0.188296 0.00225876 0)
(0.187601 0.00212826 0)
(0.186923 0.00199683 0)
(0.186263 0.001864 0)
(0.185626 0.00172931 0)
(0.185014 0.00159232 0)
(0.18443 0.00145265 0)
(0.183877 0.00131012 0)
(0.183358 0.00116488 0)
(0.182874 0.00101765 0)
(0.182426 0.000869904 0)
(0.182014 0.000724064 0)
(0.181637 0.00058343 0)
(0.181295 0.000451743 0)
(0.180987 0.000332357 0)
(0.180712 0.000227356 0)
(0.18047 0.000137177 0)
(0.180252 6.05263e-05 0)
(0.180051 -3.52982e-06 0)
(0.179877 -5.48097e-05 0)
(0.179731 -9.38565e-05 0)
(0.179612 -0.000122172 0)
(0.179518 -0.000141689 0)
(0.179446 -0.000154191 0)
(0.179395 -0.000161189 0)
(0.179362 -0.000163932 0)
(0.179345 -0.000163431 0)
(0.179342 -0.000160487 0)
(0.17935 -0.000155725 0)
(0.179369 -0.000149624 0)
(0.179396 -0.000142553 0)
(0.179429 -0.000134793 0)
(0.179469 -0.000126562 0)
(0.179512 -0.000118034 0)
(0.179558 -0.000109349 0)
(0.179606 -0.000100626 0)
(0.179656 -9.19683e-05 0)
(0.179705 -8.34669e-05 0)
(0.179753 -7.5205e-05 0)
(0.1798 -6.72575e-05 0)
(0.179844 -5.96908e-05 0)
(0.179886 -5.25622e-05 0)
(0.179924 -4.59189e-05 0)
(0.179959 -3.97964e-05 0)
(0.179991 -3.4218e-05 0)
(0.180018 -2.91943e-05 0)
(0.180042 -2.47234e-05 0)
(0.180063 -2.07913e-05 0)
(0.180081 -1.73737e-05 0)
(0.180095 -1.44373e-05 0)
(0.180107 -1.1942e-05 0)
(0.180116 -9.84339e-06 0)
(0.180123 -8.09459e-06 0)
(0.180129 -6.64836e-06 0)
(0.180133 -5.45871e-06 0)
(0.180136 -4.48246e-06 0)
(0.180138 -3.67997e-06 0)
(0.180139 -3.01531e-06 0)
(0.18014 -2.45588e-06 0)
(0.18014 -1.97189e-06 0)
(0.18014 -1.53433e-06 0)
(0.18014 -1.1098e-06 0)
(0.18014 -6.48188e-07 0)
(0.180139 -2.26415e-08 0)
(0.196564 0.00699584 0)
(0.197245 0.00777733 0)
(0.19804 0.00833852 0)
(0.198867 0.00869791 0)
(0.199678 0.00888992 0)
(0.200448 0.00893947 0)
(0.201156 0.00886622 0)
(0.201785 0.00869152 0)
(0.202321 0.0084386 0)
(0.202759 0.00813037 0)
(0.203096 0.00778783 0)
(0.203338 0.00742921 0)
(0.203491 0.00706937 0)
(0.203565 0.00671947 0)
(0.20357 0.00638702 0)
(0.203517 0.00607633 0)
(0.203414 0.00578909 0)
(0.20327 0.00552511 0)
(0.203091 0.00528293 0)
(0.202884 0.00506037 0)
(0.20265 0.00485496 0)
(0.202395 0.00466422 0)
(0.20212 0.00448581 0)
(0.201827 0.00431766 0)
(0.201518 0.00415794 0)
(0.201193 0.00400513 0)
(0.200855 0.00385791 0)
(0.200503 0.00371519 0)
(0.20014 0.00357604 0)
(0.199766 0.00343965 0)
(0.199383 0.00330532 0)
(0.198991 0.00317242 0)
(0.198594 0.00304038 0)
(0.198191 0.00290866 0)
(0.197784 0.00277676 0)
(0.197376 0.0026442 0)
(0.196968 0.00251051 0)
(0.196562 0.00237522 0)
(0.196159 0.00223786 0)
(0.195762 0.00209797 0)
(0.195373 0.00195512 0)
(0.194993 0.00180894 0)
(0.194624 0.00165916 0)
(0.194269 0.00150578 0)
(0.193926 0.0013492 0)
(0.193599 0.00119038 0)
(0.193286 0.00103107 0)
(0.192987 0.000873848 0)
(0.192704 0.000722018 0)
(0.192435 0.000579178 0)
(0.192182 0.000448543 0)
(0.191947 0.000332342 0)
(0.191728 0.0002316 0)
(0.191528 0.00014623 0)
(0.191344 7.48585e-05 0)
(0.19117 1.58978e-05 0)
(0.19101 -3.16374e-05 0)
(0.190866 -6.8722e-05 0)
(0.190738 -9.66797e-05 0)
(0.190626 -0.000117048 0)
(0.190529 -0.000131268 0)
(0.190446 -0.000140572 0)
(0.190377 -0.000145976 0)
(0.190319 -0.0001483 0)
(0.190272 -0.000148197 0)
(0.190235 -0.000146183 0)
(0.190208 -0.000142658 0)
(0.190188 -0.000137937 0)
(0.190176 -0.000132268 0)
(0.190171 -0.00012585 0)
(0.190171 -0.000118847 0)
(0.190176 -0.000111402 0)
(0.190185 -0.000103641 0)
(0.190198 -9.56819e-05 0)
(0.190213 -8.76347e-05 0)
(0.19023 -7.96061e-05 0)
(0.190248 -7.1698e-05 0)
(0.190266 -6.40067e-05 0)
(0.190284 -5.66205e-05 0)
(0.190302 -4.96183e-05 0)
(0.190318 -4.30665e-05 0)
(0.190333 -3.70172e-05 0)
(0.190347 -3.15071e-05 0)
(0.190358 -2.65564e-05 0)
(0.190368 -2.21693e-05 0)
(0.190376 -1.83348e-05 0)
(0.190382 -1.50287e-05 0)
(0.190386 -1.22161e-05 0)
(0.190389 -9.85387e-06 0)
(0.190391 -7.8934e-06 0)
(0.190392 -6.28338e-06 0)
(0.190392 -4.97239e-06 0)
(0.190391 -3.91077e-06 0)
(0.19039 -3.05147e-06 0)
(0.190389 -2.35054e-06 0)
(0.190387 -1.7672e-06 0)
(0.190385 -1.2624e-06 0)
(0.190383 -7.93805e-07 0)
(0.190381 -2.99724e-07 0)
(0.190379 3.84202e-07 0)
(0.197047 0.00667297 0)
(0.197622 0.00735768 0)
(0.1983 0.00787485 0)
(0.199022 0.00822538 0)
(0.199747 0.00842906 0)
(0.200448 0.00850497 0)
(0.201106 0.00846982 0)
(0.201706 0.00834155 0)
(0.202235 0.00813977 0)
(0.202687 0.00788414 0)
(0.203062 0.00759297 0)
(0.203361 0.0072824 0)
(0.203589 0.00696587 0)
(0.203755 0.00665377 0)
(0.203865 0.00635348 0)
(0.20393 0.0060696 0)
(0.203955 0.00580444 0)
(0.203949 0.00555854 0)
(0.203916 0.00533119 0)
(0.203862 0.00512094 0)
(0.20379 0.00492591 0)
(0.203702 0.00474408 0)
(0.203602 0.00457351 0)
(0.203489 0.00441236 0)
(0.203365 0.004259 0)
(0.203232 0.00411199 0)
(0.203088 0.00397011 0)
(0.202936 0.00383227 0)
(0.202776 0.00369756 0)
(0.202608 0.00356514 0)
(0.202432 0.00343431 0)
(0.20225 0.00330441 0)
(0.202061 0.00317484 0)
(0.201867 0.00304504 0)
(0.201668 0.00291448 0)
(0.201466 0.00278265 0)
(0.201259 0.00264906 0)
(0.201051 0.00251323 0)
(0.200841 0.0023747 0)
(0.20063 0.00223303 0)
(0.200419 0.00208781 0)
(0.200209 0.00193875 0)
(0.2 0.00178569 0)
(0.199792 0.00162879 0)
(0.199586 0.00146856 0)
(0.199381 0.00130614 0)
(0.199177 0.00114333 0)
(0.198974 0.000982675 0)
(0.198772 0.000827303 0)
(0.198571 0.000680545 0)
(0.198373 0.000545387 0)
(0.19818 0.000423985 0)
(0.197993 0.000317487 0)
(0.197815 0.000226104 0)
(0.197645 0.000149225 0)
(0.197486 8.54974e-05 0)
(0.197334 3.32779e-05 0)
(0.197189 -8.88705e-06 0)
(0.197054 -4.2214e-05 0)
(0.196928 -6.79468e-05 0)
(0.196812 -8.73302e-05 0)
(0.196705 -0.000101523 0)
(0.196607 -0.000111516 0)
(0.196517 -0.000118125 0)
(0.196436 -0.000122012 0)
(0.196363 -0.000123702 0)
(0.196296 -0.000123606 0)
(0.196237 -0.00012205 0)
(0.196184 -0.000119287 0)
(0.196138 -0.000115519 0)
(0.196097 -0.000110912 0)
(0.196063 -0.000105605 0)
(0.196033 -9.9722e-05 0)
(0.196008 -9.33768e-05 0)
(0.195987 -8.66808e-05 0)
(0.19597 -7.97439e-05 0)
(0.195957 -7.26762e-05 0)
(0.195946 -6.55876e-05 0)
(0.195937 -5.85852e-05 0)
(0.195931 -5.17716e-05 0)
(0.195925 -4.5241e-05 0)
(0.195921 -3.90759e-05 0)
(0.195918 -3.33446e-05 0)
(0.195914 -2.80989e-05 0)
(0.195911 -2.33722e-05 0)
(0.195908 -1.91803e-05 0)
(0.195904 -1.55213e-05 0)
(0.195901 -1.23781e-05 0)
(0.195897 -9.72056e-06 0)
(0.195892 -7.50836e-06 0)
(0.195888 -5.69396e-06 0)
(0.195884 -4.22614e-06 0)
(0.195879 -3.05292e-06 0)
(0.195875 -2.12311e-06 0)
(0.19587 -1.38782e-06 0)
(0.195866 -8.00234e-07 0)
(0.195862 -3.13784e-07 0)
(0.195858 1.20209e-07 0)
(0.195854 5.68433e-07 0)
(0.19585 1.18706e-06 0)
(0.197473 0.00638717 0)
(0.197965 0.00698651 0)
(0.198545 0.00745751 0)
(0.199174 0.00779243 0)
(0.199817 0.00800068 0)
(0.200448 0.00809555 0)
(0.201048 0.00809054 0)
(0.201602 0.00800042 0)
(0.2021 0.0078415 0)
(0.202536 0.00763047 0)
(0.202907 0.00738323 0)
(0.203215 0.00711401 0)
(0.203464 0.00683492 0)
(0.20366 0.0065556 0)
(0.203808 0.00628318 0)
(0.203917 0.00602245 0)
(0.203993 0.00577613 0)
(0.204042 0.00554538 0)
(0.20407 0.00533015 0)
(0.20408 0.00512959 0)
(0.204077 0.00494239 0)
(0.204062 0.00476702 0)
(0.204038 0.00460186 0)
(0.204006 0.00444539 0)
(0.203967 0.00429616 0)
(0.203922 0.0041529 0)
(0.203871 0.00401444 0)
(0.203816 0.00387979 0)
(0.203756 0.00374804 0)
(0.203691 0.0036184 0)
(0.203621 0.00349014 0)
(0.203548 0.00336262 0)
(0.20347 0.00323522 0)
(0.203389 0.00310738 0)
(0.203304 0.00297857 0)
(0.203215 0.00284826 0)
(0.203124 0.00271598 0)
(0.203029 0.00258124 0)
(0.202931 0.00244359 0)
(0.20283 0.00230263 0)
(0.202726 0.00215802 0)
(0.202619 0.00200952 0)
(0.202508 0.00185709 0)
(0.202393 0.00170094 0)
(0.202273 0.00154172 0)
(0.202148 0.00138057 0)
(0.202016 0.00121927 0)
(0.201878 0.00106019 0)
(0.201733 0.000906184 0)
(0.201582 0.000760252 0)
(0.201426 0.000625093 0)
(0.201267 0.000502727 0)
(0.201108 0.000394317 0)
(0.200951 0.000300204 0)
(0.200797 0.000220009 0)
(0.200647 0.000152785 0)
(0.200503 9.72543e-05 0)
(0.200365 5.19134e-05 0)
(0.200232 1.52964e-05 0)
(0.200104 -1.38574e-05 0)
(0.199982 -3.67004e-05 0)
(0.199866 -5.42857e-05 0)
(0.199756 -6.75443e-05 0)
(0.199651 -7.72772e-05 0)
(0.199552 -8.41504e-05 0)
(0.199459 -8.87011e-05 0)
(0.19937 -9.13564e-05 0)
(0.199287 -9.24517e-05 0)
(0.199208 -9.22489e-05 0)
(0.199135 -9.09525e-05 0)
(0.199067 -8.87244e-05 0)
(0.199004 -8.56961e-05 0)
(0.198946 -8.19796e-05 0)
(0.198892 -7.76756e-05 0)
(0.198844 -7.28804e-05 0)
(0.198799 -6.76904e-05 0)
(0.19876 -6.22049e-05 0)
(0.198724 -5.65262e-05 0)
(0.198692 -5.07591e-05 0)
(0.198664 -4.50083e-05 0)
(0.198638 -3.93751e-05 0)
(0.198615 -3.3954e-05 0)
(0.198595 -2.88285e-05 0)
(0.198577 -2.40681e-05 0)
(0.198561 -1.97256e-05 0)
(0.198546 -1.58361e-05 0)
(0.198532 -1.24165e-05 0)
(0.19852 -9.46643e-06 0)
(0.198509 -6.97065e-06 0)
(0.198498 -4.90106e-06 0)
(0.198488 -3.21979e-06 0)
(0.198479 -1.88164e-06 0)
(0.198471 -8.36923e-07 0)
(0.198463 -3.56618e-08 0)
(0.198456 5.69999e-07 0)
(0.19845 1.02658e-06 0)
(0.198443 1.38074e-06 0)
(0.198438 1.68099e-06 0)
(0.198433 1.98913e-06 0)
(0.198427 2.41515e-06 0)
(0.197848 0.00613022 0)
(0.198274 0.0066556 0)
(0.198774 0.00708162 0)
(0.199322 0.00739715 0)
(0.19989 0.00760477 0)
(0.200456 0.00771286 0)
(0.200999 0.00773175 0)
(0.201507 0.00767334 0)
(0.201969 0.00755102 0)
(0.20238 0.00737881 0)
(0.202736 0.00717035 0)
(0.203039 0.00693809 0)
(0.203289 0.00669285 0)
(0.203493 0.00644346 0)
(0.203655 0.00619673 0)
(0.203782 0.00595745 0)
(0.203879 0.00572866 0)
(0.203951 0.00551196 0)
(0.204003 0.00530784 0)
(0.20404 0.005116 0)
(0.204065 0.00493563 0)
(0.20408 0.00476562 0)
(0.204087 0.00460473 0)
(0.204088 0.0044517 0)
(0.204084 0.00430533 0)
(0.204076 0.00416449 0)
(0.204064 0.00402815 0)
(0.204049 0.00389539 0)
(0.204032 0.00376537 0)
(0.204012 0.00363733 0)
(0.203989 0.00351059 0)
(0.203965 0.00338452 0)
(0.203938 0.00325853 0)
(0.203908 0.00313206 0)
(0.203877 0.0030046 0)
(0.203843 0.00287564 0)
(0.203806 0.00274472 0)
(0.203767 0.0026114 0)
(0.203725 0.00247525 0)
(0.203679 0.00233592 0)
(0.203629 0.00219313 0)
(0.203575 0.00204671 0)
(0.203516 0.0018967 0)
(0.20345 0.00174338 0)
(0.203378 0.00158745 0)
(0.203296 0.00143001 0)
(0.203206 0.00127275 0)
(0.203106 0.00111782 0)
(0.202995 0.000967765 0)
(0.202876 0.000825228 0)
(0.202748 0.00069261 0)
(0.202613 0.00057176 0)
(0.202475 0.000463812 0)
(0.202334 0.000369182 0)
(0.202194 0.000287648 0)
(0.202054 0.000218483 0)
(0.201918 0.000160627 0)
(0.201784 0.000112851 0)
(0.201655 7.38554e-05 0)
(0.201529 4.23425e-05 0)
(0.201407 1.71218e-05 0)
(0.201289 -2.83041e-06 0)
(0.201174 -1.84211e-05 0)
(0.201064 -3.04339e-05 0)
(0.200957 -3.95283e-05 0)
(0.200854 -4.62503e-05 0)
(0.200754 -5.10431e-05 0)
(0.200659 -5.42597e-05 0)
(0.200567 -5.61759e-05 0)
(0.200479 -5.70051e-05 0)
(0.200395 -5.69118e-05 0)
(0.200316 -5.60238e-05 0)
(0.200241 -5.44433e-05 0)
(0.20017 -5.22565e-05 0)
(0.200105 -4.95417e-05 0)
(0.200043 -4.63756e-05 0)
(0.199987 -4.28377e-05 0)
(0.199935 -3.9012e-05 0)
(0.199887 -3.49876e-05 0)
(0.199843 -3.08568e-05 0)
(0.199804 -2.6713e-05 0)
(0.199768 -2.26467e-05 0)
(0.199736 -1.87416e-05 0)
(0.199707 -1.50714e-05 0)
(0.199681 -1.1696e-05 0)
(0.199658 -8.65998e-06 0)
(0.199637 -5.99147e-06 0)
(0.199618 -3.70151e-06 0)
(0.199601 -1.78538e-06 0)
(0.199585 -2.25658e-07 0)
(0.199572 1.00504e-06 0)
(0.199559 1.94248e-06 0)
(0.199548 2.62838e-06 0)
(0.199538 3.1063e-06 0)
(0.199528 3.41941e-06 0)
(0.19952 3.60997e-06 0)
(0.199512 3.71895e-06 0)
(0.199506 3.78799e-06 0)
(0.1995 3.8645e-06 0)
(0.199493 4.00187e-06 0)
(0.19818 0.00589653 0)
(0.198552 0.0063584 0)
(0.198986 0.0067423 0)
(0.199464 0.00703656 0)
(0.199966 0.00723969 0)
(0.20047 0.00735627 0)
(0.20096 0.00739378 0)
(0.201424 0.00736161 0)
(0.20185 0.00727058 0)
(0.202234 0.00713231 0)
(0.202572 0.00695836 0)
(0.202864 0.00675951 0)
(0.20311 0.00654532 0)
(0.203315 0.00632381 0)
(0.203482 0.00610135 0)
(0.203617 0.00588263 0)
(0.203724 0.00567087 0)
(0.203807 0.00546798 0)
(0.203872 0.00527489 0)
(0.203922 0.00509174 0)
(0.203959 0.00491814 0)
(0.203987 0.00475338 0)
(0.204008 0.00459657 0)
(0.204023 0.00444671 0)
(0.204033 0.00430283 0)
(0.20404 0.00416398 0)
(0.204043 0.00402925 0)
(0.204044 0.00389782 0)
(0.204044 0.00376895 0)
(0.204041 0.00364193 0)
(0.204037 0.00351613 0)
(0.204032 0.00339095 0)
(0.204025 0.00326584 0)
(0.204017 0.00314029 0)
(0.204007 0.0030138 0)
(0.203995 0.00288591 0)
(0.203981 0.00275618 0)
(0.203965 0.00262422 0)
(0.203947 0.00248965 0)
(0.203925 0.00235218 0)
(0.203899 0.00221159 0)
(0.203868 0.00206779 0)
(0.203832 0.00192087 0)
(0.203789 0.00177118 0)
(0.203738 0.00161941 0)
(0.203678 0.00146664 0)
(0.203608 0.0013144 0)
(0.203528 0.00116463 0)
(0.203437 0.00101956 0)
(0.203335 0.000881517 0)
(0.203225 0.000752604 0)
(0.203106 0.00063449 0)
(0.202982 0.00052825 0)
(0.202854 0.000434345 0)
(0.202724 0.000352676 0)
(0.202594 0.000282686 0)
(0.202464 0.000223502 0)
(0.202336 0.000174061 0)
(0.20221 0.000133205 0)
(0.202087 9.97796e-05 0)
(0.201967 7.26898e-05 0)
(0.201849 5.09149e-05 0)
(0.201735 3.35366e-05 0)
(0.201623 1.97604e-05 0)
(0.201514 8.92129e-06 0)
(0.201407 4.61466e-07 0)
(0.201304 -6.07976e-06 0)
(0.201203 -1.10734e-05 0)
(0.201106 -1.48117e-05 0)
(0.201011 -1.75195e-05 0)
(0.200921 -1.93667e-05 0)
(0.200834 -2.04796e-05 0)
(0.200751 -2.09539e-05 0)
(0.200672 -2.08636e-05 0)
(0.200598 -2.02705e-05 0)
(0.200528 -1.92312e-05 0)
(0.200462 -1.78029e-05 0)
(0.200402 -1.60471e-05 0)
(0.200346 -1.40309e-05 0)
(0.200294 -1.18272e-05 0)
(0.200247 -9.51218e-06 0)
(0.200204 -7.16279e-06 0)
(0.200165 -4.85322e-06 0)
(0.20013 -2.65136e-06 0)
(0.200099 -6.15535e-07 0)
(0.20007 1.20805e-06 0)
(0.200045 2.78688e-06 0)
(0.200022 4.1031e-06 0)
(0.200002 5.15337e-06 0)
(0.199984 5.94626e-06 0)
(0.199968 6.50004e-06 0)
(0.199953 6.84057e-06 0)
(0.19994 6.9986e-06 0)
(0.199929 7.00807e-06 0)
(0.199918 6.9045e-06 0)
(0.199909 6.72304e-06 0)
(0.199901 6.49748e-06 0)
(0.199893 6.26038e-06 0)
(0.199886 6.04189e-06 0)
(0.199879 5.84881e-06 0)
(0.198473 0.00568211 0)
(0.198801 0.00608962 0)
(0.199179 0.00643505 0)
(0.199597 0.00670754 0)
(0.20004 0.0069035 0)
(0.200489 0.00702477 0)
(0.200931 0.00707647 0)
(0.201351 0.00706576 0)
(0.201743 0.00700128 0)
(0.2021 0.00689252 0)
(0.202419 0.00674917 0)
(0.202697 0.00658045 0)
(0.202937 0.00639474 0)
(0.203139 0.00619921 0)
(0.203308 0.00599976 0)
(0.203447 0.00580088 0)
(0.203559 0.00560584 0)
(0.20365 0.00541677 0)
(0.203723 0.0052349 0)
(0.20378 0.00506072 0)
(0.203825 0.00489424 0)
(0.203861 0.00473506 0)
(0.203889 0.00458261 0)
(0.203911 0.00443614 0)
(0.203928 0.0042949 0)
(0.203941 0.0041581 0)
(0.203951 0.004025 0)
(0.203959 0.00389487 0)
(0.203965 0.00376705 0)
(0.203969 0.00364092 0)
(0.203972 0.0035159 0)
(0.203974 0.00339145 0)
(0.203974 0.00326706 0)
(0.203973 0.00314225 0)
(0.203971 0.00301658 0)
(0.203967 0.00288963 0)
(0.203962 0.00276101 0)
(0.203954 0.00263036 0)
(0.203944 0.00249737 0)
(0.20393 0.00236181 0)
(0.203913 0.00222353 0)
(0.203891 0.00208249 0)
(0.203863 0.00193885 0)
(0.203829 0.00179299 0)
(0.203788 0.00164559 0)
(0.203737 0.00149769 0)
(0.203677 0.00135067 0)
(0.203607 0.00120626 0)
(0.203526 0.00106641 0)
(0.203435 0.000933155 0)
(0.203335 0.000808332 0)
(0.203227 0.000693435 0)
(0.203113 0.000589467 0)
(0.202995 0.000496911 0)
(0.202873 0.00041576 0)
(0.20275 0.000345599 0)
(0.202627 0.00028571 0)
(0.202505 0.000235179 0)
(0.202383 0.000192984 0)
(0.202264 0.000158077 0)
(0.202146 0.000129433 0)
(0.202031 0.000106082 0)
(0.201918 8.71489e-05 0)
(0.201807 7.18535e-05 0)
(0.201698 5.95135e-05 0)
(0.201591 4.95473e-05 0)
(0.201487 4.14718e-05 0)
(0.201386 3.48942e-05 0)
(0.201287 2.95038e-05 0)
(0.201191 2.50607e-05 0)