/*--------------------------------*- C++ -*----------------------------------*\
| =========                 |                                                 |
| \\      /  F ield         | OpenFOAM: The Open Source CFD Toolbox           |
|  \\    /   O peration     | Version:  2.3.0                                 |
|   \\  /    A nd           | Web:      www.OpenFOAM.org                      |
|    \\/     M anipulation  |                                                 |
\*---------------------------------------------------------------------------*/
FoamFile
{
    version     2.0;
    format      ascii;
    class       volVectorField;
    location    "0.2";
    object      U;
}
// * * * * * * * * * * * * * * * * * * * * * * * * * * * * * * * * * * * * * //

dimensions      [0 1 -1 0 0 0 0];

internalField   nonuniform List<vector> 
3375
(
(0.176339 0.00552832 0)
(0.15498 0.00613098 0)
(0.134515 0.00600151 0)
(0.115682 0.00538873 0)
(0.0985421 0.00448125 0)
(0.0834359 0.00344 0)
(0.0708495 0.0024482 0)
(0.0609071 0.00156289 0)
(0.053469 0.00082725 0)
(0.047944 0.000404914 0)
(0.0437773 0.00014946 0)
(0.0407407 1.21952e-05 0)
(0.0385144 -2.08587e-05 0)
(0.0367684 -1.27347e-05 0)
(0.0353512 2.30847e-06 0)
(0.0341728 2.34682e-05 0)
(0.033124 4.39053e-05 0)
(0.0321453 5.5614e-05 0)
(0.031242 5.85428e-05 0)
(0.0304142 5.96772e-05 0)
(0.0296333 6.3081e-05 0)
(0.0288925 6.0953e-05 0)
(0.0282083 5.45821e-05 0)
(0.0275834 5.03715e-05 0)
(0.027006 4.70213e-05 0)
(0.026467 4.41411e-05 0)
(0.0259595 4.23056e-05 0)
(0.0254875 3.79103e-05 0)
(0.0250533 3.42755e-05 0)
(0.0246491 3.32944e-05 0)
(0.0242705 3.03466e-05 0)
(0.0239206 2.75397e-05 0)
(0.0235974 2.58447e-05 0)
(0.0232979 2.34427e-05 0)
(0.0230203 2.23781e-05 0)
(0.0227638 2.03936e-05 0)
(0.0225311 1.7752e-05 0)
(0.0223176 1.78006e-05 0)
(0.022119 1.61284e-05 0)
(0.0219471 1.18789e-05 0)
(0.0217959 1.23189e-05 0)
(0.0216579 1.11312e-05 0)
(0.0215438 6.83711e-06 0)
(0.0214531 6.59488e-06 0)
(0.0213726 6.31294e-06 0)
(0.0213107 3.14979e-06 0)
(0.0212704 2.52663e-06 0)
(0.0212495 9.76705e-07 0)
(0.0212553 -2.3381e-06 0)
(0.0212752 -8.00132e-07 0)
(0.0213056 -5.3779e-06 0)
(0.0213557 -8.99384e-06 0)
(0.0214113 -6.31841e-06 0)
(0.0214614 -6.83883e-06 0)
(0.0215196 -9.32733e-06 0)
(0.0215735 -5.48437e-06 0)
(0.0216079 -3.26398e-06 0)
(0.0216403 -5.47769e-06 0)
(0.0216765 -4.2352e-06 0)
(0.0217017 -1.70559e-06 0)
(0.0217203 -2.55691e-06 0)
(0.021742 -2.7239e-06 0)
(0.0217595 -1.06897e-06 0)
(0.0217736 -1.70577e-06 0)
(0.0217918 -2.5316e-06 0)
(0.021811 -1.76442e-06 0)
(0.0218268 -1.55874e-06 0)
(0.0218421 -1.84389e-06 0)
(0.021856 -1.14085e-06 0)
(0.0218681 -1.15847e-06 0)
(0.0218815 -1.71588e-06 0)
(0.0218949 -1.16779e-06 0)
(0.0219051 -7.54849e-07 0)
(0.0219148 -1.17862e-06 0)
(0.0219258 -1.17609e-06 0)
(0.0219351 -7.17641e-07 0)
(0.0219428 -7.75728e-07 0)
(0.0219504 -8.30044e-07 0)
(0.0219576 -6.45357e-07 0)
(0.021964 -6.29989e-07 0)
(0.02197 -6.04921e-07 0)
(0.0219753 -4.53613e-07 0)
(0.0219796 -3.73092e-07 0)
(0.0219835 -3.8831e-07 0)
(0.0219873 -3.60828e-07 0)
(0.0219905 -2.44306e-07 0)
(0.021993 -2.04557e-07 0)
(0.0219955 -2.66117e-07 0)
(0.0219981 -2.29532e-07 0)
(0.022 -1.27824e-07 0)
(0.0220017 -1.55667e-07 0)
(0.0220034 -1.76054e-07 0)
(0.0220051 -1.21611e-07 0)
(0.0220062 -7.27026e-08 0)
(0.0220072 -1.02983e-07 0)
(0.0220083 -8.80217e-08 0)
(0.0220092 -6.50177e-08 0)
(0.0220099 -5.17415e-08 0)
(0.0220104 -4.49787e-08 0)
(0.0220111 -5.6148e-08 0)
(0.191644 0.00913104 0)
(0.190803 0.0120619 0)
(0.188048 0.0134495 0)
(0.183625 0.0125529 0)
(0.177642 0.0112898 0)
(0.170048 0.0102747 0)
(0.161595 0.00893763 0)
(0.153093 0.00734007 0)
(0.145073 0.00574006 0)
(0.137612 0.00454912 0)
(0.130613 0.00344204 0)
(0.124237 0.00254228 0)
(0.118568 0.00199121 0)
(0.113533 0.00159126 0)
(0.109031 0.00126008 0)
(0.105029 0.00105999 0)
(0.101472 0.000949007 0)
(0.0982455 0.000856382 0)
(0.0952996 0.000766415 0)
(0.0926273 0.000697884 0)
(0.0901695 0.00065717 0)
(0.0878883 0.000607434 0)
(0.0857855 0.000548343 0)
(0.0838514 0.000501217 0)
(0.0820602 0.000462002 0)
(0.0803895 0.000428534 0)
(0.0788224 0.0004012 0)
(0.0773656 0.000366398 0)
(0.0760138 0.000334907 0)
(0.0747534 0.000313603 0)
(0.0735781 0.000287654 0)
(0.0724833 0.000263242 0)
(0.0714688 0.000243236 0)
(0.0705281 0.000221587 0)
(0.0696546 0.000204883 0)
(0.0688504 0.000185817 0)
(0.0681122 0.000165113 0)
(0.0674369 0.000153986 0)
(0.0668216 0.000138029 0)
(0.0662724 0.000113451 0)
(0.0657823 0.000105059 0)
(0.0653503 9.14047e-05 0)
(0.0649784 6.7564e-05 0)
(0.0646678 5.82243e-05 0)
(0.0644081 4.93163e-05 0)
(0.0642008 3.01973e-05 0)
(0.0640519 2.03217e-05 0)
(0.0639592 6.00945e-06 0)
(0.0639196 -1.52617e-05 0)
(0.0639175 -1.59107e-05 0)
(0.0639519 -2.53446e-05 0)
(0.0640172 -3.80939e-05 0)
(0.0640943 -3.01888e-05 0)
(0.0641753 -3.12062e-05 0)
(0.0642617 -3.84912e-05 0)
(0.0643382 -2.43394e-05 0)
(0.0643955 -1.61115e-05 0)
(0.064446 -2.28103e-05 0)
(0.0644969 -1.86056e-05 0)
(0.0645383 -1.01878e-05 0)
(0.0645715 -1.25371e-05 0)
(0.0646055 -1.31414e-05 0)
(0.0646363 -7.66585e-06 0)
(0.0646659 -9.3973e-06 0)
(0.0646992 -1.20741e-05 0)
(0.0647345 -9.62066e-06 0)
(0.0647663 -8.48899e-06 0)
(0.0647958 -8.98347e-06 0)
(0.0648229 -6.86888e-06 0)
(0.0648496 -6.89191e-06 0)
(0.0648768 -8.25346e-06 0)
(0.0649025 -6.34489e-06 0)
(0.0649253 -4.91026e-06 0)
(0.0649471 -5.95411e-06 0)
(0.0649692 -5.77996e-06 0)
(0.0649887 -4.1214e-06 0)
(0.0650057 -4.0862e-06 0)
(0.0650214 -4.10393e-06 0)
(0.0650363 -3.4189e-06 0)
(0.0650498 -3.20549e-06 0)
(0.065062 -2.96795e-06 0)
(0.0650726 -2.3747e-06 0)
(0.0650819 -2.01764e-06 0)
(0.0650901 -1.96859e-06 0)
(0.0650978 -1.81018e-06 0)
(0.0651045 -1.36807e-06 0)
(0.0651102 -1.17685e-06 0)
(0.0651156 -1.31354e-06 0)
(0.0651207 -1.14735e-06 0)
(0.0651249 -7.80214e-07 0)
(0.0651287 -8.30945e-07 0)
(0.0651323 -8.52854e-07 0)
(0.0651355 -6.45538e-07 0)
(0.0651381 -4.5461e-07 0)
(0.0651404 -5.26459e-07 0)
(0.0651426 -4.49464e-07 0)
(0.0651445 -3.58904e-07 0)
(0.065146 -2.86528e-07 0)
(0.0651471 -2.6525e-07 0)
(0.0651489 -2.51215e-07 0)
(0.192297 0.00882848 0)
(0.192586 0.0107879 0)
(0.194046 0.0109517 0)
(0.195782 0.0121652 0)
(0.196827 0.0117735 0)
(0.196437 0.011515 0)
(0.194617 0.0111015 0)
(0.191783 0.00956948 0)
(0.18846 0.00850835 0)
(0.184925 0.00772667 0)
(0.1809 0.00666406 0)
(0.176633 0.00560067 0)
(0.17244 0.00484212 0)
(0.168392 0.00429528 0)
(0.164418 0.00379775 0)
(0.160552 0.00336849 0)
(0.156912 0.00304536 0)
(0.153465 0.00277834 0)
(0.150125 0.00251398 0)
(0.146923 0.00228428 0)
(0.143881 0.00211731 0)
(0.140973 0.00194847 0)
(0.138196 0.00177571 0)
(0.135578 0.00163241 0)
(0.133116 0.00150646 0)
(0.13078 0.00139632 0)
(0.128534 0.00130087 0)
(0.126397 0.00119332 0)
(0.124385 0.00109742 0)
(0.122492 0.00102425 0)
(0.120707 0.00094363 0)
(0.119018 0.000868434 0)
(0.117435 0.000802254 0)
(0.115954 0.000733957 0)
(0.114562 0.000677609 0)
(0.113264 0.000618359 0)
(0.112058 0.000555221 0)
(0.110942 0.000510726 0)
(0.109914 0.000460192 0)
(0.108975 0.000393547 0)
(0.108123 0.000357471 0)
(0.10736 0.000312952 0)
(0.10668 0.000250292 0)
(0.106084 0.000214467 0)
(0.10557 0.000180222 0)
(0.105131 0.000127195 0)
(0.104774 9.13414e-05 0)
(0.104502 5.05661e-05 0)
(0.104298 4.40425e-06 0)
(0.104147 -3.33335e-06 0)
(0.104061 -4.01202e-05 0)
(0.10402 -6.77203e-05 0)
(0.10401 -5.71535e-05 0)
(0.10402 -5.92889e-05 0)
(0.104047 -7.31666e-05 0)
(0.104077 -4.82944e-05 0)
(0.104099 -3.23649e-05 0)
(0.104116 -4.31148e-05 0)
(0.104138 -3.66845e-05 0)
(0.10416 -2.11774e-05 0)
(0.104173 -2.49303e-05 0)
(0.104186 -2.62531e-05 0)
(0.104203 -1.81938e-05 0)
(0.104221 -2.14616e-05 0)
(0.104243 -2.60465e-05 0)
(0.104272 -2.17785e-05 0)
(0.1043 -1.98998e-05 0)
(0.104326 -2.07922e-05 0)
(0.104351 -1.62524e-05 0)
(0.104378 -1.6647e-05 0)
(0.104406 -1.93683e-05 0)
(0.104434 -1.55421e-05 0)
(0.10446 -1.29768e-05 0)
(0.104485 -1.46831e-05 0)
(0.104511 -1.38782e-05 0)
(0.104535 -1.04891e-05 0)
(0.104557 -1.01184e-05 0)
(0.104576 -9.84363e-06 0)
(0.104595 -8.47808e-06 0)
(0.104612 -7.8438e-06 0)
(0.104628 -7.13513e-06 0)
(0.104641 -5.89453e-06 0)
(0.104653 -5.06127e-06 0)
(0.104664 -4.78684e-06 0)
(0.104673 -4.39041e-06 0)
(0.104682 -3.48126e-06 0)
(0.104689 -3.0231e-06 0)
(0.104696 -3.1769e-06 0)
(0.104702 -2.78356e-06 0)
(0.104708 -2.04477e-06 0)
(0.104712 -2.07724e-06 0)
(0.104717 -2.04364e-06 0)
(0.104721 -1.61054e-06 0)
(0.104724 -1.20921e-06 0)
(0.104727 -1.29796e-06 0)
(0.10473 -1.10611e-06 0)
(0.104733 -9.19161e-07 0)
(0.104735 -7.27304e-07 0)
(0.104736 -7.01409e-07 0)
(0.104738 -5.90574e-07 0)
(0.192908 0.00809989 0)
(0.193483 0.00910005 0)
(0.195126 0.010871 0)
(0.19695 0.0102131 0)
(0.198325 0.0111467 0)
(0.19968 0.0106463 0)
(0.200641 0.0109173 0)
(0.200944 0.0107551 0)
(0.201142 0.00818021 0)
(0.20067 0.00818155 0)
(0.199395 0.00760447 0)
(0.197753 0.00689159 0)
(0.196049 0.00636836 0)
(0.194321 0.00576923 0)
(0.192391 0.00526607 0)
(0.190235 0.00488042 0)
(0.188054 0.00452958 0)
(0.185934 0.00426149 0)
(0.183788 0.00399512 0)
(0.1816 0.00373139 0)
(0.179413 0.00354062 0)
(0.177217 0.00332802 0)
(0.175004 0.00308304 0)
(0.172823 0.00286903 0)
(0.170733 0.00268092 0)
(0.168733 0.0025294 0)
(0.166752 0.00240323 0)
(0.164765 0.00224026 0)
(0.162814 0.00207954 0)
(0.160939 0.00195441 0)
(0.159142 0.00182045 0)
(0.157402 0.00169416 0)
(0.155729 0.00157982 0)
(0.154133 0.00146202 0)
(0.152608 0.00136201 0)
(0.151151 0.00125541 0)
(0.149765 0.00114176 0)
(0.148457 0.00105751 0)
(0.147226 0.000963004 0)
(0.146074 0.000842895 0)
(0.145007 0.000771702 0)
(0.144032 0.000688057 0)
(0.143134 0.00057506 0)
(0.142313 0.000505359 0)
(0.141575 0.000436254 0)
(0.140911 0.000338705 0)
(0.140329 0.000270246 0)
(0.139837 0.000193871 0)
(0.139419 0.000109657 0)
(0.13906 8.19184e-05 0)
(0.138771 2.33248e-05 0)
(0.138536 -3.34429e-05 0)
(0.138347 -2.36226e-05 0)
(0.138194 -4.10211e-05 0)
(0.138074 -7.3945e-05 0)
(0.13798 -4.14499e-05 0)
(0.1379 -2.33256e-05 0)
(0.137822 -4.54041e-05 0)
(0.137764 -3.71774e-05 0)
(0.137725 -1.67222e-05 0)
(0.13768 -2.39088e-05 0)
(0.137634 -2.84012e-05 0)
(0.1376 -1.58884e-05 0)
(0.137576 -2.35449e-05 0)
(0.137558 -3.30341e-05 0)
(0.137553 -2.90108e-05 0)
(0.137553 -2.64326e-05 0)
(0.137554 -2.88194e-05 0)
(0.137557 -2.44342e-05 0)
(0.137563 -2.38073e-05 0)
(0.137573 -2.82896e-05 0)
(0.137589 -2.46896e-05 0)
(0.137606 -2.06678e-05 0)
(0.137622 -2.34933e-05 0)
(0.137642 -2.33594e-05 0)
(0.137663 -1.82925e-05 0)
(0.137683 -1.74039e-05 0)
(0.137702 -1.65315e-05 0)
(0.137721 -1.44277e-05 0)
(0.137739 -1.34212e-05 0)
(0.137755 -1.20823e-05 0)
(0.137769 -1.01406e-05 0)
(0.137782 -8.73781e-06 0)
(0.137793 -8.10603e-06 0)
(0.137802 -7.43174e-06 0)
(0.137811 -6.01719e-06 0)
(0.137819 -5.2042e-06 0)
(0.137825 -5.37998e-06 0)
(0.137832 -4.73793e-06 0)
(0.137838 -3.56796e-06 0)
(0.137843 -3.55322e-06 0)
(0.137847 -3.44567e-06 0)
(0.137851 -2.77988e-06 0)
(0.137855 -2.12758e-06 0)
(0.137858 -2.21427e-06 0)
(0.137861 -1.89335e-06 0)
(0.137863 -1.60043e-06 0)
(0.137865 -1.26731e-06 0)
(0.137867 -1.233e-06 0)
(0.137869 -9.92148e-07 0)
(0.193709 0.0076596 0)
(0.194458 0.00862357 0)
(0.195723 0.00985233 0)
(0.197134 0.00963682 0)
(0.198297 0.0107742 0)
(0.199657 0.0099659 0)
(0.200727 0.011417 0)
(0.201597 0.0082552 0)
(0.202367 0.00962609 0)
(0.202999 0.00810623 0)
(0.202897 0.00775112 0)
(0.202609 0.00685656 0)
(0.202308 0.00640098 0)
(0.202013 0.00610387 0)
(0.201561 0.00572671 0)
(0.200808 0.00547275 0)
(0.199952 0.00517119 0)
(0.199141 0.00486172 0)
(0.19828 0.0046156 0)
(0.19732 0.00439659 0)
(0.196308 0.00425778 0)
(0.195229 0.00411291 0)
(0.194058 0.00391357 0)
(0.192818 0.00369317 0)
(0.191583 0.0034592 0)
(0.190414 0.00329116 0)
(0.189259 0.0031897 0)
(0.188037 0.00303998 0)
(0.186746 0.00287561 0)
(0.18544 0.0027373 0)
(0.184152 0.00257357 0)
(0.182879 0.00242763 0)
(0.181626 0.00228772 0)
(0.180402 0.00213253 0)
(0.179208 0.00201654 0)
(0.178036 0.0018898 0)
(0.176883 0.00173754 0)
(0.17577 0.00163413 0)
(0.174688 0.00151517 0)
(0.173637 0.00134185 0)
(0.172649 0.00123973 0)
(0.171734 0.00112829 0)
(0.170865 0.000971363 0)
(0.170046 0.000877165 0)
(0.169281 0.000780404 0)
(0.168553 0.000640046 0)
(0.167877 0.000543445 0)
(0.167273 0.000432733 0)
(0.166735 0.000306093 0)
(0.166247 0.000264315 0)
(0.165809 0.000177765 0)
(0.165415 8.42055e-05 0)
(0.16507 8.74828e-05 0)
(0.164765 5.32025e-05 0)
(0.164491 -6.59577e-06 0)
(0.164259 2.29034e-05 0)
(0.164055 3.79136e-05 0)
(0.163854 -1.08539e-06 0)
(0.163685 -2.41194e-06 0)
(0.16356 1.85471e-05 0)
(0.163439 6.63683e-06 0)
(0.163316 -1.01534e-06 0)
(0.163208 9.07648e-06 0)
(0.163118 -6.33937e-06 0)
(0.16304 -2.20071e-05 0)
(0.16298 -1.77004e-05 0)
(0.162932 -1.94245e-05 0)
(0.162891 -2.48154e-05 0)
(0.162858 -1.82434e-05 0)
(0.162829 -2.1819e-05 0)
(0.162804 -3.0943e-05 0)
(0.162789 -2.63562e-05 0)
(0.162783 -2.25938e-05 0)
(0.162778 -2.68371e-05 0)
(0.162778 -2.80617e-05 0)
(0.162784 -2.40003e-05 0)
(0.162794 -2.39854e-05 0)
(0.162805 -2.32807e-05 0)
(0.162818 -1.99311e-05 0)
(0.162832 -1.87182e-05 0)
(0.162844 -1.72892e-05 0)
(0.162857 -1.44835e-05 0)
(0.162868 -1.22764e-05 0)
(0.162877 -1.13233e-05 0)
(0.162885 -1.0448e-05 0)
(0.162893 -8.40757e-06 0)
(0.162899 -7.16354e-06 0)
(0.162904 -7.52388e-06 0)
(0.162909 -6.70275e-06 0)
(0.162914 -4.96598e-06 0)
(0.162918 -4.96891e-06 0)
(0.162921 -4.85988e-06 0)
(0.162925 -3.88936e-06 0)
(0.162928 -2.98919e-06 0)
(0.16293 -3.09461e-06 0)
(0.162932 -2.67192e-06 0)
(0.162934 -2.23645e-06 0)
(0.162936 -1.78482e-06 0)
(0.162937 -1.75778e-06 0)
(0.162939 -1.36526e-06 0)
(0.194559 0.0069279 0)
(0.195217 0.00783237 0)
(0.196135 0.00900001 0)
(0.197275 0.00923968 0)
(0.198295 0.00986729 0)
(0.199455 0.0095941 0)
(0.200659 0.0105534 0)
(0.201488 0.00868116 0)
(0.202106 0.00884083 0)
(0.202937 0.00780163 0)
(0.202969 0.00757005 0)
(0.202937 0.00706062 0)
(0.203084 0.00658375 0)
(0.203147 0.00606692 0)
(0.203064 0.00595881 0)
(0.202898 0.00559151 0)
(0.202719 0.00527305 0)
(0.202588 0.00507488 0)
(0.202394 0.00487607 0)
(0.202124 0.00470279 0)
(0.201855 0.00453569 0)
(0.20154 0.00436809 0)
(0.201123 0.00422902 0)
(0.200602 0.00408135 0)
(0.20006 0.00383093 0)
(0.199589 0.00363553 0)
(0.19915 0.00355301 0)
(0.198649 0.00344782 0)
(0.19806 0.00330019 0)
(0.197414 0.00317958 0)
(0.19674 0.00302224 0)
(0.196049 0.00288084 0)
(0.195353 0.00274855 0)
(0.194663 0.00257164 0)
(0.193985 0.00244635 0)
(0.193296 0.0023298 0)
(0.192584 0.00215936 0)
(0.19189 0.00204725 0)
(0.191187 0.00193857 0)
(0.190448 0.00174443 0)
(0.189741 0.00162343 0)
(0.189094 0.00148985 0)
(0.188467 0.00129874 0)
(0.187863 0.00119836 0)
(0.187278 0.00109636 0)
(0.186684 0.000932786 0)
(0.186099 0.000827097 0)
(0.185546 0.000691737 0)
(0.185035 0.000524631 0)
(0.184571 0.000479476 0)
(0.184131 0.000377966 0)
(0.183704 0.000251521 0)
(0.183315 0.000251987 0)
(0.182955 0.000199981 0)
(0.182614 0.000111525 0)
(0.182318 0.000135847 0)
(0.182052 0.0001461 0)
(0.181779 8.92996e-05 0)
(0.181532 7.41442e-05 0)
(0.181342 8.80842e-05 0)
(0.181169 6.80104e-05 0)
(0.180994 5.46605e-05 0)
(0.180832 6.30712e-05 0)
(0.180684 4.08046e-05 0)
(0.180551 1.54004e-05 0)
(0.18044 1.35158e-05 0)
(0.180347 8.51755e-06 0)
(0.180266 -5.64176e-06 0)
(0.180198 1.0988e-06 0)
(0.180136 -3.49028e-06 0)
(0.180074 -1.66398e-05 0)
(0.180023 -1.6429e-05 0)
(0.179988 -1.45032e-05 0)
(0.179957 -2.26007e-05 0)
(0.179931 -2.64396e-05 0)
(0.179913 -2.2126e-05 0)
(0.179902 -2.35451e-05 0)
(0.179897 -2.5461e-05 0)
(0.179899 -2.40078e-05 0)
(0.179903 -2.14835e-05 0)
(0.179908 -2.0499e-05 0)
(0.179914 -1.85955e-05 0)
(0.179921 -1.54727e-05 0)
(0.179927 -1.35003e-05 0)
(0.179931 -1.26559e-05 0)
(0.179935 -1.03365e-05 0)
(0.179938 -8.47255e-06 0)
(0.179941 -8.56937e-06 0)
(0.179943 -8.19778e-06 0)
(0.179946 -6.19468e-06 0)
(0.179948 -5.78875e-06 0)
(0.179949 -5.98111e-06 0)
(0.179952 -4.88454e-06 0)
(0.179953 -3.52477e-06 0)
(0.179954 -3.64535e-06 0)
(0.179955 -3.15237e-06 0)
(0.179957 -2.81571e-06 0)
(0.179957 -2.0513e-06 0)
(0.179958 -2.13262e-06 0)
(0.179959 -1.61716e-06 0)
(0.195302 0.00676404 0)
(0.195908 0.00755871 0)
(0.196582 0.00840155 0)
(0.197477 0.00867223 0)
(0.198388 0.00940207 0)
(0.199412 0.00845818 0)
(0.200481 0.0109171 0)
(0.201409 0.00755667 0)
(0.201722 0.00850517 0)
(0.202475 0.00796917 0)
(0.202822 0.00731587 0)
(0.202792 0.00688208 0)
(0.20302 0.00632129 0)
(0.203111 0.00602151 0)
(0.203034 0.00586803 0)
(0.202994 0.00570825 0)
(0.203035 0.00527268 0)
(0.203052 0.00508105 0)
(0.203003 0.00480853 0)
(0.202979 0.00465564 0)
(0.202978 0.00459467 0)
(0.202924 0.00450337 0)
(0.202822 0.00437182 0)
(0.202658 0.00420135 0)
(0.202485 0.00393529 0)
(0.202383 0.00371103 0)
(0.202303 0.00361453 0)
(0.202163 0.00354209 0)
(0.201957 0.00347934 0)
(0.201732 0.00337129 0)
(0.201491 0.00320098 0)
(0.20122 0.0030606 0)
(0.20092 0.00294761 0)
(0.200617 0.00278046 0)
(0.200346 0.00265118 0)
(0.200058 0.00253897 0)
(0.199714 0.00237289 0)
(0.199389 0.00227597 0)
(0.199057 0.00218041 0)
(0.198647 0.00197312 0)
(0.198237 0.00186031 0)
(0.197876 0.00172122 0)
(0.197528 0.00150445 0)
(0.197196 0.00140357 0)
(0.196861 0.00130503 0)
(0.196486 0.00113542 0)
(0.196088 0.00104787 0)
(0.195679 0.000907344 0)
(0.195284 0.000703062 0)
(0.194938 0.000661086 0)
(0.194602 0.000556439 0)
(0.194253 0.00040804 0)
(0.193927 0.000412776 0)
(0.193611 0.000353631 0)
(0.193294 0.000240971 0)
(0.193021 0.000258306 0)
(0.192775 0.000267951 0)
(0.192508 0.000199617 0)
(0.192252 0.000170654 0)
(0.192051 0.00017497 0)
(0.191872 0.000143774 0)
(0.191694 0.000125317 0)
(0.191526 0.00013423 0)
(0.191361 0.000105288 0)
(0.191204 6.91449e-05 0)
(0.19107 6.34737e-05 0)
(0.190954 4.8931e-05 0)
(0.190852 2.73184e-05 0)
(0.190768 3.16774e-05 0)
(0.19069 2.74355e-05 0)
(0.190608 9.52832e-06 0)
(0.190534 4.22758e-06 0)
(0.190478 3.27856e-06 0)
(0.190427 -6.82258e-06 0)
(0.19038 -1.26248e-05 0)
(0.190342 -1.11374e-05 0)
(0.190312 -1.98546e-05 0)
(0.190291 -2.21689e-05 0)
(0.190278 -2.14694e-05 0)
(0.19027 -2.22517e-05 0)
(0.190263 -2.04206e-05 0)
(0.19026 -1.84156e-05 0)
(0.190261 -1.64558e-05 0)
(0.19026 -1.50609e-05 0)
(0.19026 -1.35765e-05 0)
(0.19026 -1.05775e-05 0)
(0.190259 -8.49278e-06 0)
(0.190258 -1.01112e-05 0)
(0.190257 -8.17257e-06 0)
(0.190257 -5.8652e-06 0)
(0.190256 -6.36497e-06 0)
(0.190255 -5.87087e-06 0)
(0.190255 -5.00222e-06 0)
(0.190255 -3.89815e-06 0)
(0.190255 -3.89716e-06 0)
(0.190254 -3.39403e-06 0)
(0.190254 -2.60834e-06 0)
(0.190253 -2.24111e-06 0)
(0.190253 -2.11967e-06 0)
(0.190252 -1.61142e-06 0)
(0.196046 0.00642722 0)
(0.196449 0.00719619 0)
(0.196871 0.00779024 0)
(0.197604 0.00829731 0)
(0.1985 0.0087698 0)
(0.199385 0.00826664 0)
(0.200368 0.00966347 0)
(0.201302 0.00799412 0)
(0.201471 0.00786066 0)
(0.201954 0.00755034 0)
(0.202609 0.00712501 0)
(0.202627 0.0066511 0)
(0.202771 0.00684572 0)
(0.202937 0.00586662 0)
(0.202865 0.00578446 0)
(0.202844 0.00564778 0)
(0.202983 0.00523817 0)
(0.203047 0.00502324 0)
(0.203025 0.00486002 0)
(0.203029 0.00468613 0)
(0.202989 0.00456873 0)
(0.202974 0.00443727 0)
(0.203007 0.00434418 0)
(0.20298 0.0042975 0)
(0.202942 0.00390976 0)
(0.202955 0.00373765 0)
(0.202938 0.00369855 0)
(0.202896 0.00359858 0)
(0.202855 0.00348621 0)
(0.202807 0.00340184 0)
(0.202742 0.00328515 0)
(0.20267 0.00315771 0)
(0.202584 0.00299431 0)
(0.202479 0.00280727 0)
(0.202405 0.00272152 0)
(0.202322 0.00263973 0)
(0.202173 0.00243363 0)
(0.20205 0.00235384 0)
(0.201936 0.00230553 0)
(0.201749 0.0020815 0)
(0.201552 0.00197007 0)
(0.201381 0.00182572 0)
(0.201223 0.00159443 0)
(0.201091 0.0015103 0)
(0.200943 0.0014238 0)
(0.200744 0.00125248 0)
(0.200516 0.00119223 0)
(0.200251 0.00105788 0)
(0.199978 0.000822435 0)
(0.199755 0.000786573 0)
(0.199535 0.000682408 0)
(0.199294 0.000524562 0)
(0.19907 0.000536608 0)
(0.198837 0.000476095 0)
(0.198587 0.000350936 0)
(0.198374 0.000360638 0)
(0.198186 0.000370002 0)
(0.19797 0.000299627 0)
(0.197754 0.000262002 0)
(0.19758 0.000255542 0)
(0.197428 0.000213504 0)
(0.19728 0.00019122 0)
(0.197141 0.000200865 0)
(0.196997 0.000169174 0)
(0.196851 0.000127925 0)
(0.196722 0.000117485 0)
(0.196607 9.5199e-05 0)
(0.196506 6.30285e-05 0)
(0.196427 6.46074e-05 0)
(0.196353 6.23589e-05 0)
(0.19627 3.98076e-05 0)
(0.196192 3.14376e-05 0)
(0.19613 2.84183e-05 0)
(0.196071 1.45416e-05 0)
(0.196016 5.55686e-06 0)
(0.195968 3.39163e-06 0)
(0.195929 -5.76209e-06 0)
(0.195897 -1.41563e-05 0)
(0.195875 -1.56551e-05 0)
(0.195858 -1.51819e-05 0)
(0.195841 -1.70472e-05 0)
(0.195828 -1.77074e-05 0)
(0.195821 -1.51062e-05 0)
(0.195815 -1.32687e-05 0)
(0.195809 -1.27785e-05 0)
(0.195805 -9.8562e-06 0)
(0.195801 -7.31619e-06 0)
(0.195795 -8.0368e-06 0)
(0.195791 -7.85715e-06 0)
(0.195788 -5.50836e-06 0)
(0.195784 -5.24287e-06 0)
(0.195781 -6.03884e-06 0)
(0.195779 -4.65334e-06 0)
(0.195777 -3.27523e-06 0)
(0.195775 -3.40762e-06 0)
(0.195773 -3.00648e-06 0)
(0.195772 -2.37741e-06 0)
(0.19577 -1.85505e-06 0)
(0.195769 -1.81273e-06 0)
(0.195767 -1.33468e-06 0)
(0.196524 0.00648094 0)
(0.196815 0.00706259 0)
(0.197136 0.00737369 0)
(0.197759 0.00797156 0)
(0.198598 0.00802716 0)
(0.199362 0.00769179 0)
(0.200262 0.00903199 0)
(0.201172 0.00794499 0)
(0.201289 0.00717632 0)
(0.201647 0.00762344 0)
(0.202383 0.00694955 0)
(0.202461 0.00647468 0)
(0.202554 0.00625025 0)
(0.202705 0.00606171 0)
(0.202668 0.00593581 0)
(0.202748 0.0055892 0)
(0.202964 0.00519552 0)
(0.202948 0.00508288 0)
(0.202846 0.00485164 0)
(0.20284 0.00473581 0)
(0.20288 0.00455897 0)
(0.202959 0.0044017 0)
(0.202988 0.00440486 0)
(0.202971 0.00427481 0)
(0.202955 0.00389115 0)
(0.202956 0.00376656 0)
(0.202954 0.00364663 0)
(0.202962 0.00356491 0)
(0.202972 0.00352217 0)
(0.202936 0.00345088 0)
(0.202887 0.00324512 0)
(0.202887 0.00313439 0)
(0.202884 0.00309782 0)
(0.202867 0.00282454 0)
(0.202873 0.00270111 0)
(0.20284 0.00266889 0)
(0.202758 0.00250969 0)
(0.20272 0.00236185 0)
(0.202681 0.00233334 0)
(0.202603 0.00215073 0)
(0.202533 0.00201111 0)
(0.202441 0.00186576 0)
(0.202368 0.001608 0)
(0.20234 0.00153275 0)
(0.202276 0.00147408 0)
(0.20217 0.00131548 0)
(0.202052 0.00128913 0)
(0.201882 0.00116113 0)
(0.201694 0.000898263 0)
(0.201554 0.000874344 0)
(0.201409 0.000766828 0)
(0.201246 0.000601931 0)
(0.201104 0.000623793 0)
(0.200943 0.000566373 0)
(0.200754 0.000435543 0)
(0.200594 0.000437195 0)
(0.200458 0.000446145 0)
(0.200295 0.000377415 0)
(0.200126 0.000337328 0)
(0.199989 0.000323873 0)
(0.199867 0.000267892 0)
(0.199753 0.000240322 0)
(0.199651 0.000255258 0)
(0.19954 0.000225261 0)
(0.199421 0.000179891 0)
(0.199313 0.000167002 0)
(0.199212 0.000137612 0)
(0.199121 9.46152e-05 0)
(0.199055 9.41497e-05 0)
(0.198995 9.36251e-05 0)
(0.198923 6.95877e-05 0)
(0.198853 5.85665e-05 0)
(0.198795 5.3168e-05 0)
(0.19874 3.6837e-05 0)
(0.198685 2.62033e-05 0)
(0.198638 2.28616e-05 0)
(0.198596 8.61819e-06 0)
(0.198562 -4.07901e-06 0)
(0.198538 -5.97661e-06 0)
(0.198517 -7.40399e-06 0)
(0.198495 -1.06709e-05 0)
(0.198476 -1.24453e-05 0)
(0.198463 -1.09972e-05 0)
(0.198452 -1.00587e-05 0)
(0.198441 -1.04525e-05 0)
(0.198434 -7.32786e-06 0)
(0.198426 -4.45483e-06 0)
(0.198417 -6.21299e-06 0)
(0.19841 -6.19824e-06 0)
(0.198405 -3.48175e-06 0)
(0.1984 -3.70955e-06 0)
(0.198394 -4.84898e-06 0)
(0.198391 -3.57609e-06 0)
(0.198388 -2.28229e-06 0)
(0.198384 -2.59048e-06 0)
(0.198381 -2.26079e-06 0)
(0.198379 -1.5694e-06 0)
(0.198376 -1.16459e-06 0)
(0.198374 -1.18577e-06 0)
(0.198371 -7.80616e-07 0)
(0.196776 0.00602954 0)
(0.197119 0.00661179 0)
(0.19748 0.00698646 0)
(0.198048 0.00730688 0)
(0.198792 0.0077661 0)
(0.19945 0.00698485 0)
(0.200148 0.00852989 0)
(0.201029 0.00790452 0)
(0.2012 0.00685292 0)
(0.201388 0.0073795 0)
(0.202089 0.00688277 0)
(0.202339 0.00638145 0)
(0.202324 0.00621204 0)
(0.202441 0.00608046 0)
(0.202533 0.00580017 0)
(0.202732 0.00535091 0)
(0.202879 0.00516773 0)
(0.202808 0.00517218 0)
(0.202675 0.00485924 0)
(0.202667 0.00463479 0)
(0.202736 0.0045495 0)
(0.202844 0.00454786 0)
(0.202916 0.00424151 0)
(0.202914 0.00429896 0)
(0.202903 0.00393834 0)
(0.202899 0.00371372 0)
(0.202922 0.0036481 0)
(0.20293 0.00359762 0)
(0.202903 0.00354244 0)
(0.202859 0.00338043 0)
(0.202859 0.00330636 0)
(0.202874 0.00316879 0)
(0.202853 0.00300569 0)
(0.20286 0.00283859 0)
(0.202896 0.00274361 0)
(0.202863 0.00272406 0)
(0.202819 0.00242288 0)
(0.202789 0.00240124 0)
(0.202757 0.00243226 0)
(0.202763 0.00205452 0)
(0.202733 0.00211227 0)
(0.202623 0.00191712 0)
(0.202572 0.00161314 0)
(0.202583 0.00156137 0)
(0.202545 0.00149643 0)
(0.202489 0.00134283 0)
(0.202437 0.00135117 0)
(0.202317 0.00122348 0)
(0.202173 0.000942085 0)
(0.202072 0.000937085 0)
(0.201953 0.0008275 0)
(0.201832 0.000658103 0)
(0.201738 0.000680157 0)
(0.201619 0.000634531 0)
(0.201469 0.000506571 0)
(0.20134 0.000494336 0)
(0.201232 0.00050785 0)
(0.201106 0.00044066 0)
(0.200975 0.000395697 0)
(0.200862 0.000382534 0)
(0.200757 0.000313213 0)
(0.200667 0.000274979 0)
(0.200592 0.000294192 0)
(0.200507 0.000269899 0)
(0.200413 0.000225242 0)
(0.200325 0.00021083 0)
(0.200237 0.000174742 0)
(0.200158 0.000121238 0)
(0.200105 0.0001181 0)
(0.200057 0.000120359 0)
(0.199995 9.62374e-05 0)
(0.199935 8.21092e-05 0)
(0.199885 7.52382e-05 0)
(0.199836 5.80812e-05 0)
(0.199788 4.65582e-05 0)
(0.199744 4.06013e-05 0)
(0.199704 2.32526e-05 0)
(0.199671 6.92398e-06 0)
(0.199649 3.00522e-06 0)
(0.199629 1.69792e-06 0)
(0.199606 -2.07276e-06 0)
(0.199584 -5.65968e-06 0)
(0.199568 -5.2268e-06 0)
(0.199553 -5.09631e-06 0)
(0.19954 -6.60294e-06 0)
(0.199529 -3.63676e-06 0)
(0.19952 -7.82255e-07 0)
(0.199509 -3.19963e-06 0)
(0.199501 -3.62585e-06 0)
(0.199494 -9.87624e-07 0)
(0.199487 -1.51158e-06 0)
(0.199481 -3.16041e-06 0)
(0.199476 -2.0092e-06 0)
(0.199472 -8.73013e-07 0)
(0.199468 -1.36646e-06 0)
(0.199464 -1.13035e-06 0)
(0.199461 -4.77151e-07 0)
(0.199458 -2.19251e-07 0)
(0.199455 -3.07164e-07 0)
(0.199451 -2.0348e-08 0)
(0.197158 0.00604799 0)
(0.19749 0.00642525 0)
(0.197779 0.00675977 0)
(0.198292 0.00687995 0)
(0.198961 0.00731718 0)
(0.199494 0.00679982 0)
(0.200048 0.00768756 0)
(0.200885 0.00805241 0)
(0.201144 0.00659459 0)
(0.201179 0.00689974 0)
(0.201794 0.00676945 0)
(0.202183 0.00618898 0)
(0.202127 0.00616782 0)
(0.202243 0.0060068 0)
(0.202444 0.00580644 0)
(0.202624 0.00520901 0)
(0.202727 0.0050805 0)
(0.202682 0.00516989 0)
(0.202559 0.00494474 0)
(0.202544 0.00470709 0)
(0.202617 0.00452671 0)
(0.202717 0.00414562 0)
(0.202789 0.00463825 0)
(0.202843 0.00411243 0)
(0.202847 0.00390984 0)
(0.202859 0.00375436 0)
(0.202857 0.00366491 0)
(0.202836 0.00361598 0)
(0.202801 0.00353044 0)
(0.202761 0.0034351 0)
(0.202777 0.00330889 0)
(0.202821 0.00314664 0)
(0.202802 0.00303018 0)
(0.202787 0.00278549 0)
(0.20279 0.00276092 0)
(0.202785 0.00267353 0)
(0.202781 0.0025311 0)
(0.202735 0.0024322 0)
(0.202718 0.00227088 0)
(0.202738 0.00221111 0)
(0.202701 0.002142 0)
(0.202606 0.00189472 0)
(0.20256 0.00161728 0)
(0.202561 0.0015692 0)
(0.202528 0.00149889 0)
(0.202497 0.00135158 0)
(0.20246 0.00142118 0)
(0.202349 0.00128826 0)
(0.202235 0.00100325 0)
(0.202161 0.000999845 0)
(0.202052 0.000866057 0)
(0.201947 0.000711799 0)
(0.201876 0.000729134 0)
(0.201775 0.000688801 0)
(0.201644 0.000573064 0)
(0.201527 0.000541707 0)
(0.201428 0.000557973 0)
(0.201321 0.000500405 0)
(0.201217 0.000449417 0)
(0.201118 0.000432708 0)
(0.201016 0.000355722 0)
(0.200937 0.000307812 0)
(0.20088 0.00032388 0)
(0.200811 0.000302976 0)
(0.200733 0.000263633 0)
(0.200656 0.000251006 0)
(0.200575 0.000209707 0)
(0.200502 0.000145235 0)
(0.200459 0.000139122 0)
(0.20042 0.000143633 0)
(0.200365 0.000119664 0)
(0.200312 0.000103324 0)
(0.200267 9.53733e-05 0)
(0.200224 7.75413e-05 0)
(0.200181 6.47652e-05 0)
(0.200142 5.71093e-05 0)
(0.200104 3.74377e-05 0)
(0.200073 1.70357e-05 0)
(0.200054 1.17031e-05 0)
(0.200036 1.11052e-05 0)
(0.200013 6.80569e-06 0)
(0.19999 1.72198e-06 0)
(0.199973 1.8057e-06 0)
(0.199957 1.07759e-06 0)
(0.199942 -2.03274e-06 0)
(0.19993 8.1299e-07 0)
(0.199919 3.76276e-06 0)
(0.199907 3.46406e-07 0)
(0.199898 -6.97192e-07 0)
(0.199892 1.99164e-06 0)
(0.199884 1.13063e-06 0)
(0.199877 -1.13667e-06 0)
(0.199872 -1.5179e-07 0)
(0.199867 8.23219e-07 0)
(0.199862 1.05461e-07 0)
(0.199858 2.27101e-07 0)
(0.199855 8.18257e-07 0)
(0.199851 9.1884e-07 0)
(0.199849 7.23397e-07 0)
(0.199844 8.74912e-07 0)
(0.197508 0.00578214 0)
(0.197799 0.00629587 0)
(0.19804 0.00618428 0)
(0.198515 0.00663849 0)
(0.199107 0.00682359 0)
(0.199495 0.00651469 0)
(0.199962 0.0069459 0)
(0.200709 0.00808508 0)
(0.201057 0.00635209 0)
(0.201073 0.00652263 0)
(0.201663 0.00645794 0)
(0.202006 0.00614292 0)
(0.201935 0.00609366 0)
(0.20206 0.00597418 0)
(0.202368 0.00543703 0)
(0.202471 0.00531125 0)
(0.202503 0.00517778 0)
(0.202546 0.00510695 0)
(0.202453 0.00496086 0)
(0.202389 0.00469161 0)
(0.202546 0.00438021 0)
(0.202689 0.00428843 0)
(0.202698 0.00424298 0)
(0.202738 0.004359 0)
(0.202778 0.00385883 0)
(0.202779 0.00373051 0)
(0.202755 0.00363749 0)
(0.202721 0.0036284 0)
(0.202691 0.00357204 0)
(0.202672 0.00342893 0)
(0.202703 0.00325077 0)
(0.202745 0.003158 0)
(0.202741 0.00307512 0)
(0.202723 0.00280434 0)
(0.202683 0.00274205 0)
(0.202677 0.00268439 0)
(0.202691 0.00253473 0)
(0.202655 0.00244287 0)
(0.20263 0.00235535 0)
(0.202652 0.00216559 0)
(0.202639 0.00208412 0)
(0.202574 0.00202946 0)
(0.202513 0.00161365 0)
(0.202468 0.00164321 0)
(0.202429 0.00148218 0)
(0.202434 0.0013911 0)
(0.2024 0.00145206 0)
(0.202286 0.00129364 0)
(0.202194 0.0010484 0)
(0.202135 0.00107013 0)
(0.202032 0.000902016 0)
(0.201937 0.000737469 0)
(0.201871 0.000771676 0)
(0.201777 0.000747717 0)
(0.201655 0.000630458 0)
(0.201543 0.000592387 0)
(0.201444 0.0006057 0)
(0.201347 0.000543049 0)
(0.201261 0.000503244 0)
(0.201171 0.000488142 0)
(0.201066 0.000390884 0)
(0.200989 0.000335661 0)
(0.200943 0.000355219 0)
(0.200886 0.000335517 0)
(0.200816 0.000297782 0)
(0.200743 0.000286983 0)
(0.20066 0.000240798 0)
(0.20059 0.000166546 0)
(0.200554 0.000159765 0)
(0.20052 0.000165475 0)
(0.200471 0.000140981 0)
(0.200423 0.000123695 0)
(0.200381 0.000114677 0)