/*--------------------------------*- C++ -*----------------------------------*\
| =========                 |                                                 |
| \\      /  F ield         | OpenFOAM: The Open Source CFD Toolbox           |
|  \\    /   O peration     | Version:  2.3.0                                 |
|   \\  /    A nd           | Web:      www.OpenFOAM.org                      |
|    \\/     M anipulation  |                                                 |
\*---------------------------------------------------------------------------*/
FoamFile
{
    version     2.0;
    format      ascii;
    class       surfaceScalarField;
    location    "0.65";
    object      phi;
}
// * * * * * * * * * * * * * * * * * * * * * * * * * * * * * * * * * * * * * //

dimensions      [0 3 -1 0 0 0 0];

internalField   nonuniform List<scalar> 
17305
(
2.83171e-08
2.88398e-09
-3.12011e-08
2.54505e-08
2.86662e-09
2.27606e-08
2.68984e-09
2.02813e-08
2.47936e-09
1.80285e-08
2.25278e-09
1.60129e-08
2.01561e-09
1.42368e-08
1.77603e-09
1.2695e-08
1.54182e-09
1.13755e-08
1.31957e-09
1.02608e-08
1.11462e-09
9.32992e-09
9.30916e-10
8.55917e-09
7.70753e-10
7.92441e-09
6.34756e-10
7.40234e-09
5.22078e-10
6.97158e-09
4.30753e-10
6.61349e-09
3.58098e-10
6.31236e-09
3.01124e-10
6.0555e-09
2.5686e-10
5.83291e-09
2.22591e-10
5.63693e-09
1.9598e-10
5.46181e-09
1.75117e-10
5.30331e-09
1.58506e-10
5.15829e-09
1.45017e-10
5.02447e-09
1.33817e-10
4.90016e-09
1.24313e-10
4.78407e-09
1.16086e-10
4.67523e-09
1.08844e-10
4.57284e-09
1.02386e-10
4.47627e-09
9.65699e-11
4.38498e-09
9.12942e-11
4.2985e-09
8.64843e-11
4.21641e-09
8.20823e-11
4.13837e-09
7.8042e-11
4.06405e-09
7.43246e-11
3.99315e-09
7.08969e-11
3.92542e-09
6.77299e-11
3.86062e-09
6.47979e-11
3.79854e-09
6.20779e-11
3.73899e-09
5.95496e-11
3.6818e-09
5.71947e-11
3.6268e-09
5.49971e-11
3.57386e-09
5.29422e-11
3.52284e-09
5.10171e-11
3.47363e-09
4.92103e-11
3.42612e-09
4.75116e-11
3.38021e-09
4.59117e-11
3.33581e-09
4.44025e-11
3.29283e-09
4.29765e-11
3.2512e-09
4.16272e-11
3.21085e-09
4.03486e-11
3.17172e-09
3.91353e-11
3.13374e-09
3.79825e-11
3.09685e-09
3.68857e-11
3.06101e-09
3.5841e-11
3.02617e-09
3.48446e-11
2.99227e-09
3.38932e-11
2.95929e-09
3.29838e-11
2.92718e-09
3.21135e-11
2.8959e-09
3.12798e-11
2.86542e-09
3.04804e-11
2.8357e-09
2.97129e-11
2.80673e-09
2.89755e-11
2.77846e-09
2.82662e-11
2.75088e-09
2.75834e-11
2.72395e-09
2.69253e-11
2.69766e-09
2.62907e-11
2.67198e-09
2.5678e-11
2.6469e-09
2.5086e-11
2.62238e-09
2.45136e-11
2.59842e-09
2.39596e-11
2.575e-09
2.3423e-11
2.5521e-09
2.2903e-11
2.5297e-09
2.23985e-11
2.50779e-09
2.1909e-11
2.48636e-09
2.14335e-11
2.46539e-09
2.09715e-11
2.44486e-09
2.05223e-11
2.42478e-09
2.00855e-11
2.40512e-09
1.96606e-11
2.38587e-09
1.92472e-11
2.36702e-09
1.88449e-11
2.34857e-09
1.84537e-11
2.3305e-09
1.80732e-11
2.31279e-09
1.77035e-11
2.29545e-09
1.73447e-11
2.27845e-09
1.69969e-11
2.26179e-09
1.66606e-11
2.24546e-09
1.63363e-11
2.22943e-09
1.60248e-11
2.2137e-09
1.57273e-11
2.19826e-09
1.54454e-11
2.18308e-09
1.51817e-11
2.16814e-09
1.49398e-11
2.15341e-09
1.47261e-11
2.13886e-09
1.45524e-11
2.12441e-09
1.44439e-11
2.10995e-09
1.44665e-11
2.09516e-09
1.47841e-11
2.07969e-09
1.54718e-11
4.43873e-11
3.33517e-08
3.16022e-09
-3.36279e-08
3.27617e-08
3.45662e-09
3.19397e-08
3.51183e-09
3.09624e-08
3.45662e-09
2.98854e-08
3.32986e-09
2.87541e-08
3.14692e-09
2.76054e-08
2.92466e-09
2.64678e-08
2.67947e-09
2.5362e-08
2.42533e-09
2.43029e-08
2.17378e-09
2.32998e-08
1.93396e-09
2.23581e-08
1.71243e-09
2.14798e-08
1.51312e-09
2.06642e-08
1.33764e-09
1.99092e-08
1.18572e-09
1.92116e-08
1.05578e-09
1.85672e-08
9.45485e-10
1.79719e-08
8.52143e-10
1.74214e-08
7.73083e-10
1.69116e-08
7.05841e-10
1.64384e-08
6.48269e-10
1.59983e-08
5.98571e-10
1.55881e-08
5.55286e-10
1.52046e-08
5.17252e-10
1.48454e-08
4.83554e-10
1.4508e-08
4.53477e-10
1.41904e-08
4.26459e-10
1.38907e-08
4.02057e-10
1.36074e-08
3.79917e-10
1.33389e-08
3.59751e-10
1.30841e-08
3.4132e-10
1.28417e-08
3.24427e-10
1.26109e-08
3.08901e-10
1.23906e-08
2.94595e-10
1.21801e-08
2.81384e-10
1.19787e-08
2.69155e-10
1.17857e-08
2.57811e-10
1.16005e-08
2.47266e-10
1.14226e-08
2.37443e-10
1.12515e-08
2.28275e-10
1.10868e-08
2.19701e-10
1.09281e-08
2.11669e-10
1.0775e-08
2.0413e-10
1.06271e-08
1.97042e-10
1.04843e-08
1.90367e-10
1.03461e-08
1.84072e-10
1.02124e-08
1.78124e-10
1.00829e-08
1.72497e-10
9.95735e-09
1.67167e-10
9.83559e-09
1.6211e-10
9.71742e-09
1.57306e-10
9.60267e-09
1.52737e-10
9.49117e-09
1.48385e-10
9.38277e-09
1.44236e-10
9.27734e-09
1.40276e-10
9.17474e-09
1.36491e-10
9.07485e-09
1.3287e-10
8.97757e-09
1.29402e-10
8.88277e-09
1.26077e-10
8.79036e-09
1.22886e-10
8.70025e-09
1.19821e-10
8.61236e-09
1.16872e-10
8.52659e-09
1.14034e-10
8.44288e-09
1.11299e-10
8.36114e-09
1.08661e-10
8.28132e-09
1.06114e-10
8.20334e-09
1.03652e-10
8.12716e-09
1.01272e-10
8.0527e-09
9.89671e-11
7.97993e-09
9.67338e-11
7.90878e-09
9.45679e-11
7.83922e-09
9.24654e-11
7.7712e-09
9.04229e-11
7.70467e-09
8.8437e-11
7.6396e-09
8.65047e-11
7.57595e-09
8.46232e-11
7.51368e-09
8.27897e-11
7.45276e-09
8.10021e-11
7.39317e-09
7.92582e-11
7.33486e-09
7.75561e-11
7.27781e-09
7.58942e-11
7.22199e-09
7.42713e-11
7.16738e-09
7.26863e-11
7.11394e-09
7.11385e-11
7.06166e-09
6.96278e-11
7.0105e-09
6.81542e-11
6.96044e-09
6.67186e-11
6.91146e-09
6.53223e-11
6.86351e-09
6.39676e-11
6.81658e-09
6.2658e-11
6.77063e-09
6.13983e-11
6.72562e-09
6.01963e-11
6.68149e-09
5.90638e-11
6.6382e-09
5.80207e-11
6.59565e-09
5.71044e-11
6.55369e-09
5.63965e-11
6.51206e-09
5.61025e-11
6.47009e-09
5.67544e-11
6.42288e-09
6.26774e-11
1.11446e-10
3.47468e-08
3.01058e-09
-3.45972e-08
3.48075e-08
3.3959e-09
3.47419e-08
3.57748e-09
3.45554e-08
3.64313e-09
3.42586e-08
3.6266e-09
3.38659e-08
3.5396e-09
3.33947e-08
3.39588e-09
3.28628e-08
3.2114e-09
3.22869e-08
3.00126e-09
3.16818e-08
2.7788e-09
3.10605e-08
2.55531e-09
3.04333e-08
2.33965e-09
2.98084e-08
2.13802e-09
2.91919e-08
1.95412e-09
2.85882e-08
1.78943e-09
2.80001e-08
1.64383e-09
2.74295e-08
1.51609e-09
2.68773e-08
1.40435e-09
2.63439e-08
1.30652e-09
2.58292e-08
1.22055e-09
2.53329e-08
1.14452e-09
2.48547e-08
1.07683e-09
2.43939e-08
1.01609e-09
2.39499e-08
9.61201e-10
2.35222e-08
9.11274e-10
2.31101e-08
8.65601e-10
2.27129e-08
8.23621e-10
2.23301e-08
7.84885e-10
2.1961e-08
7.49025e-10
2.1605e-08
7.15741e-10
2.12615e-08
6.8478e-10
2.093e-08
6.55924e-10
2.06099e-08
6.28984e-10
2.03007e-08
6.03795e-10
2.00019e-08
5.80209e-10
1.9713e-08
5.58093e-10
1.94335e-08
5.37327e-10
1.91629e-08
5.17804e-10
1.89009e-08
4.99426e-10
1.86471e-08
4.82103e-10
1.8401e-08
4.65756e-10
1.81624e-08
4.50309e-10
1.79308e-08
4.35696e-10
1.7706e-08
4.21855e-10
1.74877e-08
4.08731e-10
1.72755e-08
3.96273e-10
1.70692e-08
3.84432e-10
1.68685e-08
3.73168e-10
1.66732e-08
3.62439e-10
1.64831e-08
3.5221e-10
1.6298e-08
3.42448e-10
1.61176e-08
3.33122e-10
1.59418e-08
3.24203e-10
1.57703e-08
3.15666e-10
1.56031e-08
3.07486e-10
1.544e-08
2.99641e-10
1.52807e-08
2.92111e-10
1.51253e-08
2.84874e-10
1.49734e-08
2.77915e-10
1.48251e-08
2.71216e-10
1.46802e-08
2.64761e-10
1.45385e-08
2.58536e-10
1.44e-08
2.52528e-10
1.42646e-08
2.46724e-10
1.41321e-08
2.41111e-10
1.40026e-08
2.35678e-10
1.38758e-08
2.30416e-10
1.37517e-08
2.25315e-10
1.36304e-08
2.20364e-10
1.35115e-08
2.15556e-10
1.33952e-08
2.10882e-10
1.32813e-08
2.06334e-10
1.31699e-08
2.01906e-10
1.30607e-08
1.97591e-10
1.29538e-08
1.93382e-10
1.28492e-08
1.89274e-10
1.27467e-08
1.8526e-10
1.26464e-08
1.81337e-10
1.25481e-08
1.77499e-10
1.24519e-08
1.73743e-10
1.23578e-08
1.70064e-10
1.22656e-08
1.66461e-10
1.21753e-08
1.62929e-10
1.2087e-08
1.59468e-10
1.20006e-08
1.56076e-10
1.1916e-08
1.52753e-10
1.18332e-08
1.495e-10
1.17522e-08
1.4632e-10
1.16729e-08
1.43214e-10
1.15954e-08
1.40191e-10
1.15196e-08
1.37259e-10
1.14453e-08
1.34431e-10
1.13726e-08
1.3173e-10
1.13015e-08
1.29194e-10
1.12317e-08
1.26892e-10
1.11631e-08
1.24979e-10
1.10954e-08
1.23849e-10
1.10274e-08
1.24718e-10
1.09545e-08
1.35538e-10
1.89315e-10
3.55811e-08
2.8219e-09
-3.53924e-08
3.5773e-08
3.20395e-09
3.59237e-08
3.4268e-09
3.60207e-08
3.54614e-09
3.60573e-08
3.58993e-09
3.60298e-08
3.56717e-09
3.59385e-08
3.48717e-09
3.57876e-08
3.36232e-09
3.55833e-08
3.20555e-09
3.53332e-08
3.02893e-09
3.50452e-08
2.84326e-09
3.47273e-08
2.65755e-09
3.43867e-08
2.47866e-09
3.40296e-08
2.31119e-09
3.36613e-08
2.15772e-09
3.3286e-08
2.01918e-09
3.29068e-08
1.89527e-09
3.25262e-08
1.78495e-09
3.21459e-08
1.68676e-09
3.17674e-08
1.59912e-09
3.13914e-08
1.52048e-09
3.10188e-08
1.44946e-09
3.065e-08
1.38486e-09
3.02855e-08
1.32569e-09
2.99256e-08
1.27116e-09
2.95706e-08
1.2206e-09
2.92207e-08
1.17352e-09
2.88761e-08
1.12949e-09
2.8537e-08
1.08818e-09
2.82034e-08
1.04934e-09
2.78754e-08
1.01272e-09
2.75532e-08
9.78142e-10
2.72368e-08
9.45442e-10
2.69261e-08
9.14473e-10
2.66212e-08
8.8511e-10
2.6322e-08
8.57237e-10
2.60286e-08
8.30752e-10
2.57409e-08
8.05559e-10
2.54587e-08
7.81573e-10
2.51821e-08
7.58715e-10
2.49109e-08
7.36913e-10
2.46452e-08
7.161e-10
2.43846e-08
6.96215e-10
2.41293e-08
6.772e-10
2.3879e-08
6.59004e-10
2.36337e-08
6.41576e-10
2.33933e-08
6.24873e-10
2.31576e-08
6.08851e-10
2.29266e-08
5.93472e-10
2.27001e-08
5.78699e-10
2.2478e-08
5.64498e-10
2.22603e-08
5.50836e-10
2.20468e-08
5.37684e-10
2.18375e-08
5.25014e-10
2.16322e-08
5.12799e-10
2.14308e-08
5.01015e-10
2.12333e-08
4.89638e-10
2.10395e-08
4.78646e-10
2.08494e-08
4.68019e-10
2.06629e-08
4.57737e-10
2.04798e-08
4.47782e-10
2.03002e-08
4.38135e-10
2.0124e-08
4.28781e-10
1.9951e-08
4.19704e-10
1.97812e-08
4.10889e-10
1.96146e-08
4.02322e-10
1.9451e-08
3.9399e-10
1.92905e-08
3.85879e-10
1.91328e-08
3.77978e-10
1.89781e-08
3.70275e-10
1.88262e-08
3.6276e-10
1.86772e-08
3.55421e-10
1.85308e-08
3.4825e-10
1.83872e-08
3.41236e-10
1.82462e-08
3.34371e-10
1.81078e-08
3.27647e-10
1.7972e-08
3.21056e-10
1.78388e-08
3.1459e-10
1.7708e-08
3.08244e-10
1.75797e-08
3.0201e-10
1.74539e-08
2.95883e-10
1.73305e-08
2.89859e-10
1.72095e-08
2.83934e-10
1.70909e-08
2.78105e-10
1.69746e-08
2.7237e-10
1.68606e-08
2.66728e-10
1.67489e-08
2.6118e-10
1.66395e-08
2.5573e-10
1.65324e-08
2.50382e-10
1.64274e-08
2.45146e-10
1.63246e-08
2.40034e-10
1.6224e-08
2.35068e-10
1.61254e-08
2.30282e-10
1.60289e-08
2.2573e-10
1.59343e-08
2.21521e-10
1.58414e-08
2.17884e-10
1.57498e-08
2.15412e-10
1.56585e-08
2.1601e-10
1.55654e-08
2.28689e-10
2.77278e-10
3.63317e-08
2.65685e-09
-3.61667e-08
3.65264e-08
3.00925e-09
3.67149e-08
3.23829e-09
3.68845e-08
3.37657e-09
3.70276e-08
3.44687e-09
3.71369e-08
3.45781e-09
3.72076e-08
3.41651e-09
3.72373e-08
3.33256e-09
3.72264e-08
3.21654e-09
3.71766e-08
3.07867e-09
3.70915e-08
2.92837e-09
3.69753e-08
2.77379e-09
3.68325e-08
2.62145e-09
3.66676e-08
2.47605e-09
3.64847e-08
2.34058e-09
3.62874e-08
2.21651e-09
3.60785e-08
2.10417e-09
3.58604e-08
2.00307e-09
3.56349e-08
1.91229e-09
3.54033e-08
1.83063e-09
3.51669e-08
1.7569e-09
3.49265e-08
1.68992e-09
3.46826e-08
1.62868e-09
3.4436e-08
1.5723e-09
3.41871e-08
1.52006e-09
3.39364e-08
1.47137e-09
3.36841e-08
1.42575e-09
3.34308e-08
1.38282e-09
3.31767e-08
1.34228e-09
3.29222e-08
1.30388e-09
3.26675e-08
1.26741e-09
3.24129e-08
1.23271e-09
3.21587e-08
1.19963e-09
3.19051e-08
1.16804e-09
3.16524e-08
1.13784e-09
3.14007e-08
1.10893e-09
3.11503e-08
1.08121e-09
3.09012e-08
1.05463e-09
3.06537e-08
1.0291e-09
3.04078e-08
1.00456e-09
3.01638e-08
9.80945e-10
2.99217e-08
9.58212e-10
2.96816e-08
9.36307e-10
2.94436e-08
9.15184e-10
2.92078e-08
8.94801e-10
2.89743e-08
8.75118e-10
2.8743e-08
8.561e-10
2.85142e-08
8.37712e-10
2.82877e-08
8.19923e-10
2.80637e-08
8.02702e-10
2.78422e-08
7.86022e-10
2.76232e-08
7.69856e-10
2.74067e-08
7.5418e-10
2.71927e-08
7.38971e-10
2.69813e-08
7.24205e-10
2.67725e-08
7.09862e-10
2.65662e-08
6.95922e-10
2.63625e-08
6.82366e-10
2.61613e-08
6.69175e-10
2.59627e-08
6.56333e-10
2.57667e-08
6.43823e-10
2.55732e-08
6.31628e-10
2.53822e-08
6.19734e-10
2.51938e-08
6.08125e-10
2.50079e-08
5.96789e-10
2.48245e-08
5.85711e-10
2.46436e-08
5.74878e-10
2.44652e-08
5.64278e-10
2.42893e-08
5.53898e-10
2.41159e-08
5.43728e-10
2.39449e-08
5.33756e-10
2.37763e-08
5.2397e-10
2.36102e-08
5.14362e-10
2.34465e-08
5.0492e-10
2.32853e-08
4.95636e-10
2.31264e-08
4.865e-10
2.297e-08
4.77503e-10
2.28159e-08
4.68639e-10
2.26643e-08
4.59898e-10
2.2515e-08
4.51274e-10
2.23681e-08
4.42762e-10
2.22236e-08
4.34355e-10
2.20815e-08
4.2605e-10
2.19418e-08
4.17843e-10
2.18044e-08
4.09731e-10
2.16694e-08
4.01716e-10
2.15368e-08
3.93798e-10
2.14065e-08
3.85981e-10
2.12787e-08
3.78274e-10
2.11531e-08
3.70688e-10
2.10299e-08
3.63241e-10
2.0909e-08
3.55962e-10
2.07904e-08
3.48895e-10
2.0674e-08
3.42116e-10
2.05598e-08
3.35764e-10
2.04475e-08
3.30138e-10
2.03369e-08
3.25987e-10
2.02274e-08
3.25566e-10
2.01191e-08
3.36931e-10
3.73728e-10
3.70758e-08
2.51792e-09
-3.69368e-08
3.72498e-08
2.83519e-09
3.74307e-08
3.05742e-09
3.76063e-08
3.20094e-09
3.77703e-08
3.28286e-09
3.79167e-08
3.3115e-09
3.80401e-08
3.29303e-09
3.81374e-08
3.2353e-09
3.82068e-08
3.14716e-09
3.82481e-08
3.03737e-09
3.82624e-08
2.91408e-09
3.82517e-08
2.78448e-09
3.82186e-08
2.65449e-09
3.81661e-08
2.52858e-09
3.80969e-08
2.40979e-09
3.80136e-08
2.29982e-09
3.79184e-08
2.19936e-09
3.78132e-08
2.10832e-09
3.76993e-08
2.02614e-09
3.7578e-08
1.95196e-09
3.74501e-08
1.88482e-09
3.73162e-08
1.82377e-09
3.71769e-08
1.76793e-09
3.70327e-08
1.71653e-09
3.68839e-08
1.66891e-09
3.67307e-08
1.62453e-09
3.65735e-08
1.58293e-09
3.64126e-08
1.54376e-09
3.62481e-08
1.50673e-09
3.60804e-08
1.47159e-09
3.59097e-08
1.43814e-09
3.57362e-08
1.40623e-09
3.55601e-08
1.37571e-09
3.53817e-08
1.34646e-09
3.52011e-08
1.31839e-09
3.50187e-08
1.2914e-09
3.48345e-08
1.26542e-09
3.46487e-08
1.24037e-09
3.44616e-08
1.21619e-09
3.42734e-08
1.19282e-09
3.40841e-08
1.17022e-09
3.3894e-08
1.14834e-09
3.37031e-08
1.12713e-09
3.35118e-08
1.10655e-09
3.332e-08
1.08658e-09
3.3128e-08
1.06717e-09
3.29358e-08
1.0483e-09
3.27435e-08
1.02994e-09
3.25514e-08
1.01206e-09
3.23594e-08
9.94649e-10
3.21678e-08
9.77672e-10
3.19765e-08
9.61113e-10
3.17858e-08
9.44951e-10
3.15956e-08
9.29168e-10
3.1406e-08
9.13747e-10
3.12172e-08
8.98672e-10
3.10292e-08
8.83925e-10
3.08421e-08
8.69493e-10
3.06559e-08
8.55361e-10
3.04707e-08
8.41515e-10
3.02866e-08
8.27942e-10
3.01036e-08
8.14629e-10
2.99218e-08
8.01564e-10
2.97411e-08
7.88735e-10
2.95618e-08
7.7613e-10
2.93838e-08
7.63738e-10
2.92071e-08
7.51548e-10
2.90318e-08
7.39549e-10
2.8858e-08
7.27731e-10
2.86857e-08
7.16084e-10
2.85148e-08
7.04598e-10
2.83455e-08
6.93263e-10
2.81778e-08
6.8207e-10
2.80117e-08
6.7101e-10
2.78473e-08
6.60074e-10
2.76845e-08
6.49254e-10
2.75235e-08
6.38542e-10
2.73642e-08
6.2793e-10
2.72067e-08
6.1741e-10
2.7051e-08
6.06978e-10
2.68971e-08
5.96625e-10
2.67451e-08
5.86349e-10
2.6595e-08
5.76143e-10
2.64469e-08
5.66007e-10
2.63007e-08
5.55939e-10
2.61564e-08
5.45939e-10
2.60142e-08
5.36011e-10
2.5874e-08
5.2616e-10
2.57359e-08
5.16397e-10
2.55999e-08
5.06738e-10
2.54659e-08
4.97206e-10
2.5334e-08
4.87837e-10
2.52042e-08
4.78685e-10
2.50765e-08
4.69842e-10
2.49508e-08
4.61476e-10
2.4827e-08
4.53932e-10
2.4705e-08
4.48022e-10
2.45846e-08
4.45928e-10
2.44679e-08
4.5361e-10
4.75222e-10
3.78251e-08
2.3993e-09
-3.77065e-08
3.79778e-08
2.68251e-09
3.81425e-08
2.89271e-09
3.83077e-08
3.0358e-09
3.84672e-08
3.12333e-09
3.86161e-08
3.1626e-09
3.875e-08
3.15915e-09
3.88657e-08
3.11955e-09
3.89615e-08
3.05136e-09
3.90367e-08
2.9622e-09
3.90916e-08
2.85919e-09
3.91273e-08
2.74874e-09
3.91456e-08
2.6362e-09
3.91484e-08
2.52576e-09
3.91379e-08
2.42037e-09
3.91158e-08
2.32187e-09
3.9084e-08
2.23117e-09
3.90438e-08
2.14847e-09
3.89965e-08
2.07348e-09
3.89429e-08
2.0056e-09
3.88836e-08
1.94409e-09
3.88192e-08
1.88819e-09
3.875e-08
1.83714e-09
3.86762e-08
1.79027e-09
3.85982e-08
1.74697e-09
3.8516e-08
1.70675e-09
3.84297e-08
1.66918e-09
3.83396e-08
1.63391e-09
3.82456e-08
1.60067e-09
3.8148e-08
1.5692e-09
3.80468e-08
1.53931e-09
3.79422e-08
1.51084e-09
3.78343e-08
1.48364e-09
3.77231e-08
1.4576e-09
3.76089e-08
1.43262e-09
3.74917e-08
1.4086e-09
3.73717e-08
1.38546e-09
3.72489e-08
1.36313e-09
3.71235e-08
1.34156e-09
3.69957e-08
1.32068e-09
3.68655e-08
1.30044e-09
3.6733e-08
1.2808e-09
3.65984e-08
1.26172e-09
3.64618e-08
1.24316e-09
3.63233e-08
1.22508e-09
3.6183e-08
1.20746e-09
3.6041e-08
1.19026e-09
3.58975e-08
1.17346e-09
3.57525e-08
1.15705e-09
3.56062e-08
1.14098e-09
3.54586e-08
1.12525e-09
3.53099e-08
1.10984e-09
3.51601e-08
1.09473e-09
3.50094e-08
1.07989e-09
3.48578e-08
1.06533e-09
3.47055e-08
1.05101e-09
3.45525e-08
1.03694e-09
3.43989e-08
1.02309e-09
3.42448e-08
1.00946e-09
3.40903e-08
9.96025e-10
3.39354e-08
9.82784e-10
3.37803e-08
9.69722e-10
3.36251e-08
9.56829e-10
3.34697e-08
9.44096e-10
3.33143e-08
9.31512e-10
3.3159e-08
9.19068e-10
3.30038e-08
9.06754e-10
3.28488e-08
8.94562e-10
3.2694e-08
8.82482e-10
3.25396e-08
8.70505e-10
3.23856e-08
8.58624e-10
3.2232e-08
8.46829e-10
3.2079e-08
8.35112e-10
3.19265e-08
8.23465e-10
3.17747e-08
8.1188e-10
3.16236e-08
8.0035e-10
3.14733e-08
7.88866e-10
3.13238e-08
7.77424e-10
3.11752e-08
7.66015e-10
3.10275e-08
7.54634e-10
3.08809e-08
7.43275e-10
3.07353e-08
7.31936e-10
3.05908e-08
7.20611e-10
3.04475e-08
7.093e-10
3.03055e-08
6.98002e-10
3.01647e-08
6.8672e-10
3.00252e-08
6.75458e-10
2.98872e-08
6.64224e-10
2.97505e-08
6.53031e-10
2.96154e-08
6.41899e-10
2.94817e-08
6.30856e-10
2.93496e-08
6.19944e-10
2.92191e-08
6.09227e-10
2.90901e-08
5.98809e-10
2.89627e-08
5.88875e-10
2.88369e-08
5.79781e-10
2.87126e-08
5.72302e-10
2.85903e-08
5.68206e-10
2.8473e-08
5.70957e-10
5.76952e-10
3.85815e-08
2.29587e-09
-3.84781e-08
3.87158e-08
2.54818e-09
3.88643e-08
2.74425e-09
3.90161e-08
2.88392e-09
3.91654e-08
2.97408e-09
3.93074e-08
3.02058e-09
3.94383e-08
3.02822e-09
3.95553e-08
3.00255e-09
3.96567e-08
2.94999e-09
3.97418e-08
2.87716e-09
3.98106e-08
2.79037e-09
3.9864e-08
2.69532e-09
3.99033e-08
2.59688e-09
3.99301e-08
2.49894e-09
3.99461e-08
2.40438e-09
3.99529e-08
2.3151e-09
3.99519e-08
2.23216e-09
3.99444e-08
2.15598e-09
3.99314e-08
2.0865e-09
3.99136e-08
2.02337e-09
3.98917e-08
1.96604e-09
3.9866e-08
1.91389e-09
3.98368e-08
1.86631e-09
3.98044e-08
1.82271e-09
3.97688e-08
1.78255e-09
3.97301e-08
1.7454e-09
3.96885e-08
1.71084e-09
3.96438e-08
1.67855e-09
3.95963e-08
1.64825e-09
3.95458e-08
1.6197e-09
3.94924e-08
1.59271e-09
3.94361e-08
1.56712e-09
3.9377e-08
1.54277e-09
3.9315e-08
1.51955e-09
3.92503e-08
1.49736e-09
3.91828e-08
1.47609e-09
3.91126e-08
1.45566e-09
3.90397e-08
1.43601e-09
3.89642e-08
1.41706e-09
3.88861e-08
1.39876e-09
3.88055e-08
1.38105e-09
3.87224e-08
1.36389e-09
3.86369e-08
1.34723e-09
3.8549e-08
1.33104e-09
3.84588e-08
1.31527e-09
3.83664e-08
1.2999e-09
3.82718e-08
1.28489e-09
3.8175e-08
1.27022e-09
3.80762e-08
1.25586e-09
3.79754e-08
1.24179e-09
3.78727e-08
1.22799e-09
3.77681e-08
1.21444e-09
3.76617e-08
1.20112e-09
3.75535e-08
1.18802e-09
3.74437e-08
1.17511e-09
3.73324e-08
1.16239e-09
3.72195e-08
1.14983e-09
3.71051e-08
1.13743e-09
3.69894e-08
1.12518e-09
3.68724e-08
1.11305e-09
3.67541e-08
1.10105e-09
3.66347e-08
1.08916e-09
3.65141e-08
1.07736e-09
3.63926e-08
1.06566e-09
3.62701e-08
1.05403e-09
3.61467e-08
1.04248e-09
3.60224e-08
1.03098e-09
3.58974e-08
1.01954e-09
3.57718e-08
1.00814e-09
3.56455e-08
9.9677e-10
3.55187e-08
9.85428e-10
3.53915e-08
9.74104e-10
3.52638e-08
9.62788e-10
3.51358e-08
9.51474e-10
3.50075e-08
9.40152e-10
3.4879e-08
9.28816e-10
3.47504e-08
9.17458e-10
3.46218e-08
9.06072e-10
3.44931e-08
8.9465e-10
3.43646e-08
8.83188e-10
3.42362e-08
8.7168e-10
3.4108e-08
8.60123e-10
3.39801e-08
8.48512e-10
3.38526e-08
8.36847e-10
3.37254e-08
8.25129e-10
3.35988e-08
8.1336e-10
3.34727e-08
8.01547e-10
3.33472e-08
7.89698e-10
3.32224e-08
7.7783e-10
3.30984e-08
7.65965e-10
3.29751e-08
7.54135e-10
3.28526e-08
7.42387e-10
3.27311e-08
7.30791e-10
3.26104e-08
7.1946e-10
3.24907e-08
7.08579e-10
3.2372e-08
6.98486e-10
3.22545e-08
6.89828e-10
3.21389e-08
6.83772e-10
3.20284e-08
6.81442e-10
6.73828e-10
3.93453e-08
2.20401e-09
-3.92535e-08
3.94644e-08
2.42909e-09
3.95982e-08
2.61046e-09
3.97372e-08
2.74489e-09
3.98756e-08
2.83576e-09
4.00088e-08
2.88734e-09
4.01334e-08
2.90366e-09
4.02466e-08
2.88934e-09
4.03467e-08
2.84981e-09
4.04331e-08
2.79077e-09
4.05057e-08
2.71777e-09
4.05652e-08
2.6359e-09
4.06125e-08
2.54956e-09
4.0649e-08
2.46239e-09
4.06763e-08
2.37713e-09
4.06957e-08
2.29571e-09
4.07085e-08
2.21931e-09
4.0716e-08
2.14853e-09
4.07189e-08
2.08351e-09
4.07182e-08
2.02407e-09
4.07144e-08
1.96987e-09
4.07079e-08
1.92043e-09
4.06989e-08
1.87527e-09
4.06877e-08
1.83387e-09
4.06745e-08
1.7958e-09
4.06592e-08
1.76065e-09
4.0642e-08
1.72805e-09
4.06229e-08
1.6977e-09
4.06018e-08
1.66934e-09
4.05787e-08
1.64274e-09
4.05537e-08
1.6177e-09
4.05268e-08
1.59408e-09
4.04978e-08
1.57172e-09
4.04669e-08
1.5505e-09
4.04339e-08
1.53032e-09
4.03989e-08
1.51107e-09
4.03619e-08
1.49268e-09
4.03229e-08
1.47507e-09
4.02818e-08
1.45817e-09
4.02386e-08
1.44192e-09
4.01934e-08
1.42627e-09
4.01461e-08
1.41116e-09
4.00968e-08
1.39654e-09
4.00455e-08
1.38239e-09
3.99921e-08
1.36865e-09
3.99367e-08
1.3553e-09
3.98793e-08
1.3423e-09
3.98199e-08
1.32961e-09
3.97585e-08
1.31723e-09
3.96952e-08
1.30511e-09
3.96299e-08
1.29324e-09
3.95628e-08
1.28159e-09
3.94938e-08
1.27014e-09
3.94229e-08
1.25888e-09
3.93502e-08
1.24779e-09
3.92758e-08
1.23684e-09
3.91996e-08
1.22603e-09
3.91217e-08
1.21534e-09
3.90421e-08
1.20476e-09
3.89609e-08
1.19427e-09
3.88781e-08
1.18385e-09
3.87937e-08
1.17351e-09
3.87079e-08
1.16321e-09
3.86206e-08
1.15297e-09
3.85318e-08
1.14275e-09
3.84418e-08
1.13256e-09
3.83504e-08
1.12238e-09
3.82577e-08
1.1122e-09
3.81638e-08
1.10201e-09
3.80688e-08
1.0918e-09
3.79727e-08
1.08156e-09
3.78755e-08
1.07129e-09
3.77773e-08
1.06097e-09
3.76782e-08
1.0506e-09
3.75782e-08
1.04016e-09
3.74774e-08
1.02965e-09
3.73758e-08
1.01905e-09
3.72735e-08
1.00837e-09
3.71705e-08
9.97593e-10
3.7067e-08
9.86713e-10
3.69629e-08
9.75725e-10
3.68584e-08
9.64625e-10
3.67535e-08
9.53408e-10
3.66483e-08
9.42074e-10
3.65428e-08
9.30623e-10
3.64371e-08
9.19057e-10
3.63313e-08
9.07384e-10
3.62254e-08
8.95614e-10
3.61194e-08
8.83763e-10
3.60136e-08
8.71856e-10
3.59078e-08
8.59927e-10
3.58021e-08
8.48027e-10
3.56967e-08
8.3623e-10
3.55915e-08
8.24646e-10
3.54866e-08
8.13454e-10
3.53822e-08
8.02945e-10
3.52784e-08
7.93583e-10
3.51763e-08
7.85907e-10
3.50785e-08
7.79196e-10
7.61548e-10
4.01172e-08
2.12119e-09
-4.00344e-08
4.02237e-08
2.32258e-09
4.03446e-08
2.48956e-09
4.04718e-08
2.61764e-09
4.05998e-08
2.70781e-09
4.07242e-08
2.76288e-09
4.08418e-08
2.78607e-09
4.095e-08
2.78119e-09
4.1047e-08
2.75278e-09
4.11321e-08
2.70571e-09
4.1205e-08
2.64484e-09
4.12662e-08
2.57466e-09
4.13166e-08
2.49917e-09
4.13573e-08
2.42171e-09
4.13896e-08
2.34489e-09
4.14147e-08
2.27062e-09
4.14338e-08
2.20017e-09
4.14481e-08
2.13426e-09
4.14584e-08
2.0732e-09
4.14655e-08
2.01698e-09
4.14699e-08
1.9654e-09
4.14722e-08
1.91814e-09
4.14727e-08
1.87482e-09
4.14715e-08
1.83504e-09
4.14689e-08
1.79841e-09
4.1465e-08
1.76458e-09
4.14598e-08
1.73325e-09
4.14533e-08
1.70412e-09
4.14457e-08
1.67696e-09
4.14369e-08
1.65155e-09
4.14269e-08
1.62772e-09
4.14157e-08
1.6053e-09
4.14032e-08
1.58417e-09
4.13895e-08
1.5642e-09
4.13746e-08
1.54528e-09
4.13583e-08
1.52733e-09
4.13408e-08
1.51025e-09
4.13219e-08
1.49397e-09
4.13016e-08
1.47843e-09
4.12799e-08
1.46357e-09
4.12569e-08
1.44932e-09
4.12324e-08
1.43563e-09
4.12065e-08
1.42246e-09
4.11791e-08
1.40977e-09
4.11502e-08
1.39752e-09
4.11199e-08
1.38566e-09
4.1088e-08
1.37417e-09
4.10546e-08
1.36301e-09
4.10197e-08
1.35216e-09
4.09832e-08
1.34158e-09
4.09452e-08
1.33126e-09
4.09056e-08
1.32116e-09
4.08645e-08
1.31127e-09
4.08218e-08
1.30157e-09
4.07776e-08
1.29203e-09
4.07318e-08
1.28264e-09
4.06844e-08
1.27338e-09
4.06355e-08
1.26424e-09
4.05851e-08
1.25519e-09
4.05331e-08
1.24622e-09
4.04797e-08
1.23732e-09
4.04247e-08
1.22847e-09
4.03683e-08
1.21966e-09
4.03103e-08
1.21088e-09
4.0251e-08
1.20211e-09
4.01902e-08
1.19334e-09
4.0128e-08
1.18456e-09
4.00645e-08
1.17576e-09
3.99996e-08
1.16692e-09
3.99333e-08
1.15803e-09
3.98658e-08
1.14909e-09
3.9797e-08
1.14008e-09
3.9727e-08
1.13099e-09
3.96558e-08
1.1218e-09
3.95834e-08
1.11252e-09
3.95099e-08
1.10313e-09
3.94354e-08
1.09362e-09
3.93598e-08
1.08397e-09
3.92832e-08
1.07419e-09
3.92056e-08
1.06427e-09
3.91271e-08
1.05419e-09
3.90478e-08
1.04395e-09
3.89677e-08
1.03355e-09
3.88868e-08
1.02299e-09
3.88051e-08
1.01226e-09
3.87228e-08
1.00136e-09
3.86399e-08
9.90308e-10
3.85564e-08
9.79109e-10
3.84724e-08
9.67781e-10
3.83879e-08
9.56347e-10
3.8303e-08
9.44845e-10
3.82177e-08
9.33325e-10
3.81321e-08
9.2186e-10
3.80461e-08
9.10558e-10
3.796e-08
8.99577e-10
3.78738e-08
8.89145e-10
3.77879e-08
8.79532e-10
3.7703e-08
8.70737e-10
3.76214e-08
8.6084e-10
8.37291e-10
4.08976e-08
2.04564e-09
-4.08221e-08
4.09937e-08
2.22648e-09
4.11034e-08
2.3799e-09
4.12199e-08
2.50106e-09
4.13383e-08
2.58947e-09
4.14544e-08
2.64674e-09
4.15652e-08
2.67531e-09
4.16681e-08
2.67828e-09
4.17615e-08
2.65941e-09
4.18444e-08
2.62282e-09
4.19165e-08
2.57271e-09
4.19781e-08
2.51307e-09
4.20298e-08
2.44746e-09
4.20725e-08
2.37896e-09
4.21074e-08
2.31001e-09
4.21355e-08
2.24249e-09
4.2158e-08
2.1777e-09
4.21758e-08
2.11645e-09
4.21898e-08
2.05919e-09
4.22008e-08
2.00604e-09
4.22092e-08
1.95693e-09
4.22157e-08
1.91168e-09
4.22205e-08
1.87e-09
4.2224e-08
1.83159e-09
4.22262e-08
1.79613e-09
4.22275e-08
1.76333e-09
4.22278e-08
1.73291e-09
4.22273e-08
1.70463e-09
4.2226e-08
1.67827e-09
4.22239e-08
1.65363e-09
4.22211e-08
1.63054e-09
4.22175e-08
1.60887e-09
4.22132e-08
1.58848e-09
4.22082e-08
1.56925e-09
4.22024e-08
1.55108e-09
4.21958e-08
1.53389e-09
4.21885e-08
1.5176e-09
4.21803e-08
1.50212e-09
4.21714e-08
1.4874e-09
4.21616e-08
1.47337e-09
4.21509e-08
1.45997e-09
4.21394e-08
1.44717e-09
4.21269e-08
1.43491e-09
4.21135e-08
1.42314e-09
4.20992e-08
1.41183e-09
4.20839e-08
1.40094e-09
4.20677e-08
1.39044e-09
4.20504e-08
1.3803e-09
4.20321e-08
1.37048e-09
4.20127e-08
1.36096e-09
4.19922e-08
1.35171e-09
4.19707e-08
1.34271e-09
4.1948e-08
1.33393e-09
4.19243e-08
1.32535e-09
4.18993e-08
1.31696e-09
4.18733e-08
1.30872e-09
4.1846e-08
1.30063e-09
4.18176e-08
1.29266e-09
4.1788e-08
1.2848e-09
4.17571e-08
1.27704e-09
4.17251e-08
1.26934e-09
4.16919e-08
1.26171e-09
4.16574e-08
1.25411e-09
4.16218e-08
1.24655e-09
4.15849e-08
1.239e-09
4.15468e-08
1.23146e-09
4.15074e-08
1.22389e-09
4.14669e-08
1.21631e-09
4.14251e-08
1.20868e-09
4.13821e-08
1.201e-09
4.1338e-08
1.19326e-09
4.12926e-08
1.18543e-09
4.12461e-08
1.17752e-09
4.11984e-08
1.1695e-09
4.11496e-08
1.16137e-09
4.10996e-08
1.15311e-09
4.10485e-08
1.14471e-09
4.09963e-08
1.13616e-09
4.0943e-08
1.12746e-09
4.08887e-08
1.11858e-09
4.08334e-08
1.10953e-09
4.0777e-08
1.1003e-09
4.07197e-08
1.09088e-09
4.06614e-08
1.08126e-09
4.06022e-08
1.07145e-09
4.05421e-08
1.06145e-09
4.04812e-08
1.05126e-09
4.04194e-08
1.04089e-09
4.03568e-08
1.03036e-09
4.02935e-08
1.01969e-09
4.02294e-08
1.00893e-09
4.01646e-08
9.98111e-10
4.00992e-08
9.87314e-10
4.00331e-08
9.76637e-10
3.99664e-08
9.66211e-10
3.98994e-08
9.56199e-10
3.98322e-08
9.46695e-10
3.97657e-08
9.37311e-10
3.97009e-08
9.25555e-10
8.99933e-10
4.16873e-08
1.97607e-09
-4.16177e-08
4.17747e-08
2.13912e-09
4.18746e-08
2.27999e-09
4.19816e-08
2.39406e-09
4.20911e-08
2.47996e-09
4.21994e-08
2.53839e-09
4.23036e-08
2.57109e-09
4.24014e-08
2.58054e-09
4.2491e-08
2.56981e-09
4.25714e-08
2.54238e-09
4.26423e-08
2.50185e-09
4.27036e-08
2.45171e-09
4.2756e-08
2.39515e-09
4.28e-08
2.33495e-09
4.28365e-08
2.27342e-09
4.28667e-08
2.21234e-09
4.28914e-08
2.15302e-09
4.29115e-08
2.09634e-09
4.29279e-08
2.04284e-09
4.29411e-08
1.99275e-09
4.29519e-08
1.94614e-09
4.29607e-08
1.9029e-09
4.29679e-08
1.86286e-09
4.29737e-08
1.82579e-09
4.29783e-08
1.79145e-09
4.29821e-08
1.75959e-09
4.2985e-08
1.72998e-09
4.29872e-08
1.70241e-09
4.29888e-08
1.67668e-09
4.29898e-08
1.65263e-09
4.29903e-08
1.63008e-09
4.29902e-08
1.60892e-09
4.29897e-08
1.58902e-09
4.29886e-08
1.57027e-09
4.29871e-08
1.55258e-09
4.29852e-08
1.53586e-09
4.29827e-08
1.52003e-09
4.29798e-08
1.50503e-09
4.29764e-08
1.49079e-09
4.29726e-08
1.47725e-09
4.29682e-08
1.46435e-09
4.29633e-08
1.45206e-09
4.29579e-08
1.44032e-09
4.29519e-08
1.4291e-09
4.29454e-08
1.41835e-09
4.29383e-08
1.40804e-09
4.29306e-08
1.39813e-09
4.29223e-08
1.3886e-09
4.29134e-08
1.37941e-09
4.29038e-08
1.37053e-09
4.28936e-08
1.36195e-09
4.28826e-08
1.35364e-09
4.2871e-08
1.34556e-09
4.28586e-08
1.33771e-09
4.28455e-08
1.33006e-09
4.28317e-08
1.32259e-09
4.2817e-08
1.31528e-09
4.28016e-08
1.30811e-09
4.27853e-08
1.30106e-09
4.27682e-08
1.29412e-09
4.27503e-08
1.28727e-09
4.27315e-08
1.2805e-09
4.27118e-08
1.27378e-09
4.26913e-08
1.26711e-09
4.26698e-08
1.26046e-09
4.26474e-08
1.25383e-09
4.26241e-08
1.24719e-09
4.25999e-08
1.24053e-09
4.25747e-08
1.23385e-09
4.25486e-08
1.22712e-09
4.25216e-08
1.22033e-09
4.24935e-08
1.21346e-09
4.24645e-08
1.20651e-09
4.24346e-08
1.19946e-09
4.24036e-08
1.1923e-09
4.23717e-08
1.18501e-09
4.23389e-08
1.17758e-09
4.2305e-08
1.17e-09
4.22702e-08
1.16226e-09
4.22344e-08
1.15435e-09
4.21977e-08
1.14625e-09
4.21601e-08
1.13797e-09
4.21215e-08
1.12948e-09
4.20819e-08
1.1208e-09
4.20415e-08
1.11191e-09
4.20001e-08
1.10281e-09
4.19578e-08
1.09352e-09
4.19147e-08
1.08404e-09
4.18707e-08
1.07439e-09
4.18258e-08
1.06458e-09
4.178e-08
1.05466e-09
4.17335e-08
1.04468e-09
4.16861e-08
1.03469e-09
4.16379e-08
1.02479e-09
4.15891e-08
1.01509e-09
4.15396e-08
1.00568e-09
4.14898e-08
9.96521e-10
4.14401e-08
9.87009e-10
4.1391e-08
9.74588e-10
9.49855e-10
4.24868e-08
1.91154e-09
-4.24223e-08
4.25668e-08
2.05913e-09
4.26582e-08
2.18856e-09
4.27567e-08
2.29562e-09
4.28581e-08
2.37851e-09
4.29592e-08
2.43727e-09
4.30573e-08
2.47307e-09
4.315e-08
2.48781e-09
4.32358e-08
2.484e-09
4.33137e-08
2.46454e-09
4.3383e-08
2.43249e-09
4.34438e-08
2.39091e-09
4.34963e-08
2.34262e-09
4.35412e-08
2.29012e-09
4.3579e-08
2.23556e-09
4.36107e-08
2.18062e-09
4.36372e-08
2.1266e-09
4.36591e-08
2.07442e-09
4.36772e-08
2.02467e-09
4.36923e-08
1.9777e-09
4.37048e-08
1.93363e-09
4.37152e-08
1.89248e-09
4.37239e-08
1.85415e-09
4.37313e-08
1.81848e-09
4.37374e-08