/*--------------------------------*- C++ -*----------------------------------*\
| =========                 |                                                 |
| \\      /  F ield         | OpenFOAM: The Open Source CFD Toolbox           |
|  \\    /   O peration     | Version:  2.3.0                                 |
|   \\  /    A nd           | Web:      www.OpenFOAM.org                      |
|    \\/     M anipulation  |                                                 |
\*---------------------------------------------------------------------------*/
FoamFile
{
    version     2.0;
    format      ascii;
    class       volScalarField;
    location    "0.6";
    object      p;
}
// * * * * * * * * * * * * * * * * * * * * * * * * * * * * * * * * * * * * * //

dimensions      [0 2 -2 0 0 0 0];

internalField   nonuniform List<scalar> 
2945
(
0.00257149
0.00163863
0.000620472
-0.000174031
-0.000598937
-0.000691743
-0.000661499
-0.000595715
-0.000525969
-0.000489517
-0.00047766
-0.000458947
-0.00043176
-0.00041124
-0.000396334
-0.000382853
-0.000370966
-0.000359006
-0.000345244
-0.000331436
-0.000318982
-0.000306213
-0.000293517
-0.000283008
-0.000274198
-0.000265217
-0.000255035
-0.000244193
-0.000233435
-0.000224413
-0.000217
-0.000209199
-0.000200844
-0.000192864
-0.000185707
-0.00017967
-0.000173602
-0.000167191
-0.000160726
-0.000154285
-0.000148962
-0.000144639
-0.000140277
-0.00013538
-0.000130585
-0.00012594
-0.000121162
-0.000117405
-0.000114257
-0.00011104
-0.000107816
-0.000104297
-0.000101127
-9.82433e-05
-9.58691e-05
-9.33334e-05
-9.01873e-05
-8.73254e-05
-8.47477e-05
-8.17219e-05
-7.898e-05
-7.60335e-05
-7.27171e-05
-6.96039e-05
-6.65072e-05
-6.23665e-05
-5.84059e-05
-5.40258e-05
-4.86729e-05
-4.27915e-05
-3.7702e-05
-3.02384e-05
-2.32228e-05
-1.274e-05
-6.40984e-06
0.00222165
0.00151903
0.000651302
-0.000109826
-0.000537751
-0.000643779
-0.000630934
-0.000575745
-0.000510779
-0.000478378
-0.000470108
-0.000452911
-0.000425739
-0.000405794
-0.000391639
-0.00037862
-0.00036722
-0.00035573
-0.000342218
-0.00032859
-0.000316435
-0.000303877
-0.000291234
-0.000280878
-0.000272289
-0.000263509
-0.000253448
-0.00024268
-0.000231933
-0.000222982
-0.000215732
-0.000208037
-0.000199718
-0.000191773
-0.000184655
-0.000178707
-0.00017272
-0.000166345
-0.000159926
-0.000153491
-0.000148186
-0.000143936
-0.000139639
-0.000134765
-0.000129989
-0.000125383
-0.000120604
-0.000116867
-0.000113767
-0.000110577
-0.000107383
-0.000103876
-0.000100716
-9.78495e-05
-9.55005e-05
-9.30093e-05
-8.98633e-05
-8.70049e-05
-8.44609e-05
-8.14441e-05
-7.87135e-05
-7.57976e-05
-7.24786e-05
-6.93763e-05
-6.63143e-05
-6.2177e-05
-5.82145e-05
-5.38742e-05
-4.85177e-05
-4.26269e-05
-3.75634e-05
-3.01304e-05
-2.30944e-05
-1.26349e-05
-6.3166e-06
0.00196984
0.00142491
0.000689421
-1.70679e-05
-0.000451604
-0.000573477
-0.000589743
-0.000549383
-0.000491483
-0.000464992
-0.000460902
-0.000445715
-0.000418976
-0.00039997
-0.000386783
-0.000374355
-0.000363534
-0.000352577
-0.000339315
-0.000325856
-0.000314042
-0.000301707
-0.000289073
-0.000278887
-0.000270545
-0.000261976
-0.000252024
-0.000241319
-0.000230517
-0.000221635
-0.000214599
-0.000207008
-0.000198701
-0.000190774
-0.00018368
-0.000177848
-0.000171948
-0.000165593
-0.000159211
-0.000152758
-0.000147467
-0.000143308
-0.000139085
-0.000134221
-0.000129458
-0.000124889
-0.000120082
-0.000116375
-0.000113334
-0.000110167
-0.000107007
-0.000103499
-0.000100344
-9.74922e-05
-9.51748e-05
-9.27357e-05
-8.9575e-05
-8.67161e-05
-8.42137e-05
-8.1197e-05
-7.84793e-05
-7.55987e-05
-7.2266e-05
-6.91769e-05
-6.6162e-05
-6.20169e-05
-5.8051e-05
-5.37656e-05
-4.83899e-05
-4.24877e-05
-3.74629e-05
-3.00699e-05
-2.29776e-05
-1.25525e-05
-6.35283e-06
0.00176143
0.00134496
0.000693844
5.60961e-05
-0.000358524
-0.000485672
-0.000537481
-0.000509896
-0.000462463
-0.000445685
-0.000446379
-0.000434027
-0.000409366
-0.000392356
-0.000380385
-0.000368736
-0.000358666
-0.000348373
-0.000335521
-0.000322403
-0.000311064
-0.000299033
-0.000286443
-0.000276517
-0.000268464
-0.000260138
-0.00025034
-0.000239742
-0.000228841
-0.000220056
-0.000213297
-0.000205824
-0.000197535
-0.000189626
-0.000182556
-0.000176879
-0.000171084
-0.000164743
-0.000158401
-0.000151924
-0.000146649
-0.000142599
-0.00013847
-0.000133619
-0.000128868
-0.000124334
-0.000119483
-0.000115823
-0.000112854
-0.00010971
-0.00010659
-0.000103076
-9.9927e-05
-9.70904e-05
-9.48109e-05
-9.24363e-05
-8.92525e-05
-8.6392e-05
-8.39389e-05
-8.09188e-05
-7.82166e-05
-7.53802e-05
-7.20258e-05
-6.89549e-05
-6.59992e-05
-6.18428e-05
-5.78705e-05
-5.36598e-05
-4.82485e-05
-4.23442e-05
-3.73554e-05
-3.00369e-05
-2.28248e-05
-1.24867e-05
-6.50554e-06
0.00157391
0.00122169
0.000682283
0.000109129
-0.000250954
-0.000408048
-0.000498138
-0.000463251
-0.000424968
-0.000420983
-0.000427337
-0.000418483
-0.000397091
-0.000382636
-0.000371861
-0.000361133
-0.000351966
-0.0003425
-0.000330282
-0.000317719
-0.000307019
-0.000295449
-0.000282996
-0.000273445
-0.000265693
-0.000257645
-0.000248107
-0.000237716
-0.000226684
-0.000218036
-0.000211611
-0.000204277
-0.000196046
-0.000188173
-0.000181135
-0.000175656
-0.000169985
-0.000163663
-0.000157375
-0.000150886
-0.000145631
-0.000141701
-0.000137689
-0.00013287
-0.00012814
-0.000123634
-0.00011873
-0.000115143
-0.000112251
-0.000109135
-0.000106066
-0.000102548
-9.94075e-05
-9.65872e-05
-9.43496e-05
-9.20514e-05
-8.88456e-05
-8.59853e-05
-8.35836e-05
-8.05618e-05
-7.78798e-05
-7.50962e-05
-7.1717e-05
-6.8671e-05
-6.57831e-05
-6.16189e-05
-5.76384e-05
-5.35197e-05
-4.8061e-05
-4.21729e-05
-3.72072e-05
-3.00064e-05
-2.26146e-05
-1.24241e-05
-6.76761e-06
0.00140891
0.00111096
0.000679806
0.000169862
-0.000167986
-0.000322819
-0.000475956
-0.000418393
-0.000386574
-0.00039347
-0.000404413
-0.000399
-0.000382211
-0.000370916
-0.000361426
-0.000351928
-0.000343626
-0.000334967
-0.000323632
-0.000311803
-0.000301754
-0.000290756
-0.000278592
-0.00026962
-0.000262119
-0.000254317
-0.000245153
-0.000235129
-0.000223938
-0.000215477
-0.000209417
-0.000202235
-0.000194129
-0.000186319
-0.000179319
-0.000174083
-0.000168554
-0.000162262
-0.000156047
-0.000149573
-0.000144343
-0.000140532
-0.000136661
-0.000131907
-0.000127213
-0.000122722
-0.000117762
-0.000114284
-0.000111466
-0.000108384
-0.00010538
-0.000101864
-9.87399e-05
-9.59364e-05
-9.37409e-05
-9.15286e-05
-8.8312e-05
-8.54557e-05
-8.31008e-05
-8.00829e-05
-7.7427e-05
-7.47042e-05
-7.13014e-05
-6.82873e-05
-6.54722e-05
-6.131e-05
-5.73218e-05
-5.33072e-05
-4.77954e-05
-4.19484e-05
-3.69888e-05
-2.99458e-05
-2.23389e-05
-1.23503e-05
-7.11102e-06
0.00127296
0.0010228
0.000663888
0.000225285
-8.83505e-05
-0.000260604
-0.000399351
-0.000391655
-0.000363117
-0.000369357
-0.000380389
-0.000377735
-0.000366743
-0.000359349
-0.000350248
-0.000341877
-0.000334307
-0.000326222
-0.000315921
-0.000305092
-0.000295638
-0.000285126
-0.000273213
-0.000265136
-0.000257868
-0.000250239
-0.000241465
-0.000231934
-0.000220576
-0.000212396
-0.000206687
-0.00019964
-0.00019174
-0.000184016
-0.000177055
-0.000172106
-0.000166728
-0.000160482
-0.00015436
-0.000147937
-0.00014273
-0.000139028
-0.00013532
-0.000130674
-0.00012604
-0.000121542
-0.000116527
-0.000113203
-0.000110444
-0.000107404
-0.000104477
-0.000100977
-9.78801e-05
-9.50915e-05
-9.29349e-05
-9.0814e-05
-8.76087e-05
-8.47618e-05
-8.24413e-05
-7.94369e-05
-7.68132e-05
-7.4158e-05
-7.07382e-05
-6.77623e-05
-6.50208e-05
-6.08773e-05
-5.68846e-05
-5.2978e-05
-4.7417e-05
-4.16385e-05
-3.66721e-05
-2.98119e-05
-2.19964e-05
-1.22524e-05
-7.4746e-06
0.00116096
0.000945731
0.000629891
0.000268841
-1.10523e-05
-0.000227017
-0.000330601
-0.000349426
-0.000344094
-0.000351658
-0.000357862
-0.000356125
-0.000350515
-0.000345532
-0.000341873
-0.000331778
-0.000324499
-0.000316901
-0.000307587
-0.000297968
-0.000289042
-0.000278967
-0.000267098
-0.000260216
-0.000253105
-0.000245639
-0.000237258
-0.000228224
-0.000216596
-0.000208899
-0.000203512
-0.000196521
-0.000188921
-0.000181314
-0.000174344
-0.000169712
-0.000164494
-0.00015832
-0.000152316
-0.000145976
-0.000140771
-0.000137168
-0.000133631
-0.000129145
-0.000124604
-0.000120064
-0.00011499
-0.000111875
-0.000109147
-0.000106157
-0.00010332
-9.98548e-05
-9.67979e-05
-9.40181e-05
-9.18916e-05
-8.9863e-05
-8.67038e-05
-8.38715e-05
-8.15634e-05
-7.85871e-05
-7.60013e-05
-7.3417e-05
-6.99925e-05
-6.70592e-05
-6.43869e-05
-6.02853e-05
-5.62959e-05
-5.24882e-05
-4.68963e-05
-4.12101e-05
-3.62359e-05
-2.95586e-05
-2.15911e-05
-1.21236e-05
-7.77396e-06
0.00106984
0.000876027
0.000601846
0.000304095
3.25455e-05
-0.000174558
-0.000280968
-0.000305228
-0.000320016
-0.000332323
-0.0003323
-0.000332601
-0.000333956
-0.000333101
-0.000331545
-0.000320778
-0.000314687
-0.000307238
-0.000298758
-0.000290618
-0.000282172
-0.000272231
-0.000260324
-0.000255386
-0.00024809
-0.000240654
-0.000232685
-0.000224218
-0.000212086
-0.000205095
-0.000200054
-0.000192978
-0.00018571
-0.000178343
-0.000171306
-0.000166953
-0.000161876
-0.000155807
-0.000149958
-0.000143748
-0.000138497
-0.000134988
-0.000131602
-0.00012731
-0.000122921
-0.000118309
-0.00011315
-0.000110313
-0.000107581
-0.000104631
-0.000101888
-9.84888e-05
-9.54916e-05
-9.27109e-05
-9.0596e-05
-8.86488e-05
-8.55847e-05
-8.27755e-05
-8.04444e-05
-7.75125e-05
-7.4973e-05
-7.24591e-05
-6.90451e-05
-6.61563e-05
-6.3543e-05
-5.95104e-05
-5.55392e-05
-5.18039e-05
-4.62173e-05
-4.06386e-05
-3.5671e-05
-2.91499e-05
-2.11322e-05
-1.19667e-05
-7.92282e-06
0.000990084
0.000814632
0.000575561
0.000315589
7.41006e-05
-0.000117561
-0.000241035
-0.000265231
-0.000293316
-0.000313102
-0.000303648
-0.000310251
-0.000321587
-0.000325433
-0.00031575
-0.00030871
-0.000304604
-0.000297261
-0.000289565
-0.000282817
-0.000275243
-0.000265531
-0.000251966
-0.000250601
-0.000243192
-0.000235631
-0.000227892
-0.000219947
-0.000207222
-0.000201192
-0.000196342
-0.000189207
-0.000182178
-0.000175136
-0.000168059
-0.000163962
-0.000158947
-0.000153014
-0.000147342
-0.000141318
-0.000135944
-0.000132578
-0.000129301
-0.000125182
-0.00012101
-0.000116338
-0.000111044
-0.000108538
-0.000105797
-0.000102869
-0.000100181
-9.68819e-05
-9.39792e-05
-9.11936e-05
-8.90696e-05
-8.71741e-05
-8.42571e-05
-8.14915e-05
-7.90931e-05
-7.6213e-05
-7.37278e-05
-7.12849e-05
-6.79003e-05
-6.50544e-05
-6.24835e-05
-5.85463e-05
-5.46165e-05
-5.09078e-05
-4.53815e-05
-3.99163e-05
-3.49819e-05
-2.85698e-05
-2.06299e-05
-1.17919e-05
-7.85922e-06
0.000911735
0.00075615
0.000546905
0.000317102
0.000116884
-7.16447e-05
-0.000202255
-0.000235361
-0.000267503
-0.000292663
-0.000277132
-0.000295835
-0.000306128
-0.000313315
-0.000299997
-0.000296655
-0.000293387
-0.000288782
-0.00027955
-0.000274553
-0.000267309
-0.000257488
-0.000245489
-0.000245939
-0.000237477
-0.000230105
-0.000222946
-0.000215347
-0.000201564
-0.000197759
-0.00019237
-0.000185175
-0.000178549
-0.000171855
-0.00016467
-0.000160811
-0.000155769
-0.000149974
-0.000144566
-0.000138821
-0.000133123
-0.000130005
-0.000126816
-0.000122826
-0.000118879
-0.000114187
-0.000108751
-0.000106584
-0.000103815
-0.000100958
-9.82645e-05
-9.50517e-05
-9.22866e-05
-8.94988e-05
-8.73462e-05
-8.5469e-05
-8.27402e-05
-8.00509e-05
-7.75494e-05
-7.47195e-05
-7.22867e-05
-6.99096e-05
-6.65756e-05
-6.37775e-05
-6.12291e-05
-5.74081e-05
-5.35456e-05
-4.98009e-05
-4.44067e-05
-3.90556e-05
-3.41837e-05
-2.78295e-05
-2.00927e-05
-1.16111e-05
-7.56584e-06
0.000839831
0.000700314
0.000523253
0.000315083
0.000145758
-2.98847e-05
-0.000158517
-0.000211592
-0.000242176
-0.000272051
-0.000263957
-0.000278208
-0.000288164
-0.000295815
-0.000283896
-0.000285093
-0.000281975
-0.000279162
-0.000270936
-0.000266091
-0.000258551
-0.000248626
-0.000242397
-0.000239384
-0.000230896
-0.000224244
-0.000217768
-0.000209716
-0.000197078
-0.000193995
-0.000188126
-0.000180591
-0.000174592
-0.000168104
-0.000161561
-0.00015763
-0.00015254
-0.000146679
-0.000141467
-0.00013646
-0.000130168
-0.000127326
-0.000124165
-0.000120312
-0.000116612
-0.000111852
-0.000106314
-0.000104553
-0.00010164
-9.88792e-05
-9.6232e-05
-9.30627e-05
-9.04499e-05
-8.76875e-05
-8.54668e-05
-8.3569e-05
-8.10516e-05
-7.84725e-05
-7.58551e-05
-7.30767e-05
-7.06957e-05
-6.83737e-05
-6.50903e-05
-6.23539e-05
-5.9817e-05
-5.61326e-05
-5.23603e-05
-4.84982e-05
-4.33174e-05
-3.80852e-05
-3.32953e-05
-2.69649e-05
-1.95288e-05
-1.14312e-05
-7.07472e-06
0.000775999
0.000650232
0.000499277
0.000311746
0.000161641
5.0241e-06
-0.000106294
-0.000188276
-0.000221408
-0.000255279
-0.000248428
-0.000253232
-0.000275661
-0.000277286
-0.00026852
-0.000273197
-0.00027076
-0.000266578
-0.000264505
-0.000257426
-0.000250055
-0.000240457
-0.000238485
-0.000231809
-0.000224704
-0.000218808
-0.000212491
-0.000203105
-0.000194136
-0.000189195
-0.000183453
-0.000175756
-0.000169919
-0.000165538
-0.000157759
-0.000154067
-0.000149117
-0.000143503
-0.000137832
-0.000133637
-0.000127402
-0.000124787
-0.000121428
-0.000117577
-0.000114273
-0.000109416
-0.000103759
-0.000102484
-9.94117e-05
-9.65913e-05
-9.40355e-05
-9.09847e-05
-8.84963e-05
-8.58122e-05
-8.3496e-05
-8.15436e-05
-7.92369e-05
-7.67668e-05
-7.40335e-05
-7.13095e-05
-6.89838e-05
-6.67334e-05
-6.34778e-05
-6.08122e-05
-5.82793e-05
-5.47587e-05
-5.11017e-05
-4.70317e-05
-4.2141e-05
-3.70382e-05
-3.23299e-05
-2.60202e-05
-1.89475e-05
-1.12538e-05
-6.45476e-06
0.000712412
0.00060435
0.000472644
0.000308419
0.000169187
3.42582e-05
-6.20065e-05
-0.000161463
-0.000205739
-0.000235118
-0.000230122
-0.000231827
-0.000258236
-0.000257092
-0.000258453
-0.000260701
-0.000259287
-0.00025617
-0.000255796
-0.000248492
-0.000241071
-0.000229576
-0.000235877
-0.000224541
-0.000218949
-0.000212596
-0.000207878
-0.00019663
-0.0001894
-0.000185252
-0.000178827
-0.000170895
-0.000165477
-0.000162734
-0.000153995
-0.000150157
-0.000145499
-0.000139975
-0.00013395
-0.000130345
-0.00012515
-0.00012204
-0.000118737
-0.000114632
-0.000111571
-0.000106777
-0.000101491
-0.000100325
-9.71693e-05
-9.42907e-05
-9.16162e-05
-8.87494e-05
-8.64553e-05
-8.38713e-05
-8.14333e-05
-7.94248e-05
-7.73698e-05
-7.49938e-05
-7.21278e-05
-6.94452e-05
-6.71651e-05
-6.50171e-05
-6.17623e-05
-5.9187e-05
-5.66484e-05
-5.33218e-05
-4.97948e-05
-4.54257e-05
-4.0919e-05
-3.59529e-05
-3.12947e-05
-2.50285e-05
-1.83498e-05
-1.10784e-05
-5.78937e-06
0.000650909
0.000563393
0.000445913
0.000305803
0.00017202
6.07164e-05
-3.75791e-05
-0.000138889
-0.000179749
-0.00020648
-0.000217691
-0.000218972
-0.000234718
-0.00024421
-0.000246654
-0.000247402
-0.000247801
-0.000247868
-0.00024443
-0.000239488
-0.000231459
-0.000221485
-0.000230689
-0.000217073
-0.000212144
-0.000207159
-0.000203027
-0.00018737
-0.000186084
-0.000181579
-0.000174144
-0.000166058
-0.000161791
-0.000157149
-0.000151347
-0.000146598
-0.000141853
-0.000136046
-0.000130433
-0.000126732
-0.00012299
-0.000118939
-0.000115891
-0.000111922
-0.000108553
-0.000102552
-0.000100293
-9.82049e-05
-9.47806e-05
-9.20294e-05
-8.92506e-05
-8.62909e-05
-8.43573e-05
-8.18522e-05
-7.92156e-05
-7.71852e-05
-7.54223e-05
-7.31933e-05
-7.02461e-05
-6.74794e-05
-6.52586e-05
-6.32683e-05
-5.99634e-05
-5.75141e-05
-5.49305e-05
-5.18411e-05
-4.84927e-05
-4.36776e-05
-3.96668e-05
-3.48679e-05
-3.02083e-05
-2.40182e-05
-1.77238e-05
-1.0902e-05
-5.15274e-06
0.000596403
0.000527192
0.000421874
0.000299935
0.000173245
7.88977e-05
-1.65863e-05
-0.00011614
-0.000153041
-0.000180945
-0.000198246
-0.000202125
-0.000222702
-0.000236151
-0.000228551
-0.000234223
-0.000236718
-0.000238211
-0.000233676
-0.000230438
-0.000222056
-0.000219145
-0.000218699
-0.000210864
-0.000204939
-0.000201474
-0.000195781
-0.000180362
-0.000183194
-0.000176727
-0.000168073
-0.000161619
-0.000158556
-0.000151504
-0.000147829
-0.000142712
-0.000138168
-0.000132183
-0.000127721
-0.00012282
-0.000119886
-0.000115947
-0.000112715
-0.000109404
-0.000105141
-9.97068e-05
-9.86409e-05
-9.53825e-05
-9.24176e-05
-8.9413e-05
-8.6999e-05
-8.37725e-05
-8.22207e-05
-7.99177e-05
-7.67573e-05
-7.47401e-05
-7.3272e-05
-7.12894e-05
-6.85938e-05
-6.54615e-05
-6.31842e-05
-6.14874e-05
-5.80765e-05
-5.58892e-05
-5.31947e-05
-5.02207e-05
-4.71979e-05
-4.18783e-05
-3.84076e-05
-3.37721e-05
-2.90612e-05
-2.30151e-05
-1.70714e-05
-1.07214e-05
-4.59621e-06
0.000551905
0.000493761
0.000398674
0.000287275
0.000175423
8.8853e-05
3.65629e-06
-9.02595e-05
-0.000140003
-0.000156117
-0.000174568
-0.000188231
-0.000215346
-0.000216044
-0.00021496
-0.000222469
-0.00022638
-0.000227291
-0.000223445
-0.00022143
-0.000211634
-0.000215829
-0.000207806
-0.000205191
-0.000197066
-0.000194147
-0.000187403
-0.00017953
-0.000175852
-0.000170899
-0.000161962
-0.000157207
-0.000154637
-0.000146936
-0.000144169
-0.000138473
-0.000133506
-0.000128181
-0.000125686
-0.000118503
-0.000116284
-0.000113269
-0.000109837
-0.000105766
-0.000101516
-9.80518e-05
-9.64151e-05
-9.22863e-05
-8.99065e-05
-8.66781e-05
-8.48081e-05
-8.13932e-05
-7.97864e-05
-7.78069e-05
-7.3857e-05
-7.2455e-05
-7.15494e-05
-6.90354e-05
-6.63283e-05
-6.39571e-05
-6.09922e-05
-5.97405e-05
-5.60207e-05
-5.4146e-05
-5.16248e-05
-4.86452e-05
-4.56449e-05
-3.99878e-05
-3.73255e-05
-3.273e-05
-2.78324e-05
-2.19727e-05
-1.63986e-05
-1.05333e-05
-4.15344e-06
0.000515503
0.000461402
0.000376341
0.000272589
0.000174898
0.000100203
1.66007e-05
-7.03056e-05
-0.000120103
-0.000128262
-0.00015759
-0.000183076
-0.000195874
-0.000192753
-0.000207623
-0.000210396
-0.000216335
-0.000215381
-0.000213623
-0.000211826
-0.000204598
-0.000206736
-0.000201465
-0.000196517
-0.000189676
-0.000186932
-0.000180713
-0.000177446
-0.000167657
-0.000164375
-0.000156415
-0.000152882
-0.00014956
-0.000143046
-0.000140279
-0.000134123
-0.000128851
-0.000125131
-0.000122859
-0.000113322
-0.000113735
-0.000109109
-0.000106473
-0.000102677
-9.78533e-05
-9.471e-05
-9.44837e-05
-8.96882e-05
-8.73597e-05
-8.4178e-05
-8.24342e-05
-7.90484e-05
-7.72172e-05
-7.5185e-05
-7.1072e-05
-7.07272e-05
-6.95915e-05
-6.61007e-05
-6.37276e-05
-6.26449e-05
-5.89991e-05
-5.77541e-05
-5.44677e-05
-5.20377e-05
-4.96749e-05
-4.73675e-05
-4.43225e-05
-3.74505e-05
-3.64178e-05
-3.17543e-05
-2.66721e-05
-2.08956e-05
-1.56793e-05
-1.03229e-05
-3.8411e-06
0.000482302
0.000430167
0.000353791
0.00025959
0.00017338
0.000111151
2.57826e-05
-5.54535e-05
-9.21883e-05
-0.000112879
-0.000147636
-0.000171655
-0.000168128
-0.000182081
-0.000197082
-0.000197833
-0.000205101
-0.000204379
-0.000203165
-0.000202405
-0.000201193
-0.000195643
-0.000195921
-0.000186489
-0.000182092
-0.000179623
-0.000174449
-0.000170339
-0.000162485
-0.000157949
-0.000151244
-0.000148361
-0.000144401
-0.00013862
-0.000135385
-0.000129701
-0.000124319
-0.000122379
-0.000117146
-0.000110669
-0.000110766
-0.000105431
-0.000102175
-9.99475e-05
-9.35957e-05
-9.26339e-05
-9.12347e-05
-8.69112e-05
-8.48423e-05
-8.15197e-05
-7.97517e-05
-7.65792e-05
-7.45039e-05
-7.2229e-05
-6.9532e-05
-6.85282e-05
-6.67557e-05
-6.33899e-05
-6.17398e-05
-6.08631e-05
-5.69377e-05
-5.5206e-05
-5.34274e-05
-5.00572e-05
-4.75963e-05
-4.60329e-05
-4.22866e-05
-3.59149e-05
-3.55118e-05
-3.04343e-05
-2.54901e-05
-1.98826e-05
-1.49615e-05
-9.97391e-06
-3.58967e-06
0.000448671
0.000401058
0.000326501
0.000246468
0.000171051
0.000117343
4.01607e-05
-4.12103e-05
-7.58947e-05
-9.87732e-05
-0.000136216
-0.000157604
-0.000149664
-0.000175376
-0.00017852
-0.000185468
-0.000191686
-0.000196368
-0.000193379
-0.000191896
-0.000194012
-0.000188509
-0.000185994
-0.0001794
-0.000175863
-0.000170922
-0.000168544
-0.000160649
-0.000157748
-0.000152451
-0.000146902
-0.000143165
-0.00013952
-0.000133496
-0.000130485
-0.0001255
-0.000119817
-0.000118384
-0.000110092
-0.000110339
-0.000106487
-0.000101874
-9.8663e-05
-9.52894e-05
-9.07523e-05
-9.03503e-05
-8.75692e-05
-8.41777e-05
-8.2111e-05
-7.88992e-05
-7.64572e-05
-7.39991e-05
-7.17478e-05
-6.96174e-05
-6.81394e-05
-6.56193e-05
-6.4061e-05
-6.12235e-05
-5.94877e-05
-5.87317e-05
-5.47835e-05
-5.2288e-05
-5.22604e-05
-4.8667e-05
-4.59785e-05
-4.38231e-05
-3.93928e-05
-3.62281e-05
-3.40704e-05
-2.8304e-05
-2.40963e-05
-1.89352e-05
-1.45678e-05
-9.48027e-06
-3.27184e-06
0.000412403
0.000375948
0.000301591
0.000232369
0.000169449
0.00011708
4.85613e-05
-1.37147e-05
-7.20412e-05
-8.72999e-05
-0.000113533
-0.000151235
-0.000143226
-0.000150262
-0.000166987
-0.000176388
-0.000178282
-0.000190109
-0.000185031
-0.000180955
-0.000182709
-0.000182264
-0.000175179
-0.000171272
-0.000170466
-0.000163403
-0.000160723
-0.00015343
-0.000151684
-0.000146774
-0.000141904
-0.000138484
-0.000134402
-0.000127848
-0.000125759
-0.00012089
-0.00011592
-0.000112953
-0.000106356
-0.000106892
-0.000102431
-9.83034e-05
-9.49349e-05
-9.10627e-05
-8.9101e-05
-8.63667e-05
-8.37072e-05
-8.14874e-05
-7.91625e-05
-7.64476e-05
-7.32521e-05
-7.13318e-05
-6.90828e-05
-6.69296e-05
-6.5987e-05
-6.2878e-05
-6.15374e-05
-5.88205e-05
-5.70955e-05
-5.63858e-05
-5.28188e-05
-4.98652e-05
-5.0545e-05
-4.72377e-05
-4.37899e-05
-4.14085e-05
-3.76336e-05
-3.62306e-05
-3.15652e-05
-2.68325e-05
-2.28182e-05
-1.78216e-05
-1.42018e-05
-8.96762e-06
-3.04414e-06
0.000383566
0.000353486
0.000284707
0.000217082
0.000165737
0.000113324
5.25828e-05
-6.17411e-06
-5.96266e-05
-6.78752e-05
-9.68411e-05
-0.000136445
-0.000129673
-0.000134067
-0.000157879
-0.000166245
-0.000170224
-0.000179148
-0.000173188
-0.000171888
-0.000173492
-0.000173372
-0.000163068
-0.000165152
-0.000162958
-0.000157805
-0.000149209
-0.000150136
-0.000147044
-0.000139559
-0.000136787
-0.000133508
-0.000127878
-0.000123386
-0.000120807
-0.000116192
-0.00011231
-0.000105626
-0.000106312
-0.000100913
-9.78731e-05
-9.49379e-05
-9.1025e-05
-8.77001e-05
-8.54841e-05
-8.35603e-05
-8.02666e-05
-7.81941e-05
-7.56802e-05
-7.34002e-05
-7.10832e-05
-6.8717e-05
-6.55748e-05
-6.40627e-05
-6.36065e-05
-6.07007e-05
-5.86682e-05
-5.63191e-05
-5.46934e-05
-5.38847e-05
-5.09692e-05
-4.85205e-05
-4.80327e-05
-4.51477e-05
-4.16278e-05
-3.9355e-05
-3.61208e-05
-3.58992e-05
-2.87616e-05
-2.54322e-05
-2.17474e-05
-1.69504e-05
-1.36964e-05
-8.44464e-06
-2.84987e-06
0.000362672
0.000321525
0.000271521
0.000206118
0.000155525
0.000115866
5.44532e-05
-2.15881e-05
-2.88693e-05
-4.83246e-05
-8.87571e-05
-0.00011441
-0.000119259
-0.000133308
-0.000143455
-0.000149478
-0.000163649
-0.000165371
-0.000161356
-0.000162447
-0.000163879
-0.00015915
-0.00015619
-0.00015908
-0.000156429
-0.000150398
-0.00014042
-0.000145539
-0.000140698
-0.000132001
-0.000131128
-0.000127369
-0.000120494
-0.000120241
-0.000115264
-0.000111149
-0.000108875
-9.95926e-05
-0.000103863
-9.58198e-05
-9.39835e-05
-9.15688e-05
-8.59238e-05
-8.44024e-05
-8.1808e-05
-8.09765e-05
-7.69115e-05
-7.45064e-05
-7.20216e-05
-6.98893e-05
-6.83774e-05
-6.62447e-05
-6.25009e-05
-6.16044e-05
-6.07899e-05
-5.85656e-05
-5.56473e-05
-5.34542e-05
-5.22128e-05
-5.14055e-05
-4.95524e-05
-4.67078e-05
-4.52885e-05
-4.25511e-05
-3.9912e-05
-3.72941e-05
-3.44788e-05
-3.40824e-05
-2.75572e-05
-2.37904e-05
-2.00216e-05
-1.66858e-05
-1.32228e-05
-7.87842e-06
-2.62868e-06
0.000333309
0.000295378
0.0002602
0.000194851
0.00014414
0.000112317
5.14573e-05
-4.98087e-06
-1.6337e-05
-4.26096e-05
-8.00477e-05
-9.72319e-05
-0.000116691
-0.000118123
-0.000133643
-0.00013311
-0.000153339
-0.000152632
-0.000153208
-0.000153185
-0.000148653
-0.000151679
-0.000151211
-0.000150318
-0.000148349
-0.000141272
-0.00013745
-0.000138495
-0.00013019
-0.000127175
-0.000124839
-0.000121102
-0.000115243
-0.000115176
-0.000109415
-0.000105759
-0.000103452
-9.65322e-05
-9.77778e-05
-9.2069e-05
-9.04878e-05
-8.68563e-05
-8.25161e-05
-8.04805e-05
-7.89481e-05
-7.6771e-05
-7.31953e-05
-7.10244e-05
-6.84059e-05
-6.70226e-05
-6.49738e-05
-6.30041e-05
-6.06024e-05
-5.87041e-05
-5.77862e-05
-5.62409e-05
-5.2665e-05
-5.06801e-05
-4.97594e-05
-4.90138e-05
-4.82949e-05
-4.36238e-05
-4.2889e-05
-4.02969e-05
-3.82931e-05
-3.50736e-05
-3.28991e-05
-3.11998e-05
-2.66992e-05
-2.28405e-05
-1.85744e-05
-1.6222e-05
-1.2453e-05
-7.31206e-06
-2.49532e-06
0.000306523
0.000271181
0.000257446
0.000164723
0.000144558
0.00010965
4.58165e-05
3.80995e-06
-7.32789e-06
-3.06292e-05
-7.12625e-05
-8.75137e-05
-0.000106322
-0.000107009
-0.000120564
-0.00012666
-0.000141375
-0.000140695
-0.000144079
-0.000142072
-0.000137746
-0.000146813
-0.000141286
-0.000140544
-0.000137493
-0.00013343
-0.000132254
-0.000131823
-0.000121007
-0.000122098
-0.000118569
-0.000114335
-0.000111023
-0.000108595
-0.000103727
-9.99797e-05
-9.7034e-05
-9.33692e-05
-9.12634e-05
-8.88e-05
-8.60825e-05
-8.26314e-05
-7.92208e-05
-7.59881e-05
-7.5445e-05
-7.27942e-05
-6.92676e-05
-6.72749e-05
-6.49505e-05
-6.41552e-05
-6.15812e-05
-5.98145e-05
-5.8495e-05
-5.54207e-05
-5.46813e-05
-5.38471e-05
-4.9446e-05
-4.84519e-05
-4.72772e-05
-4.62708e-05
-4.60978e-05
-4.07521e-05
-4.04253e-05
-3.84276e-05
-3.62036e-05
-3.32426e-05
-3.11417e-05
-2.88652e-05
-2.58036e-05
-2.16564e-05
-1.78238e-05
-1.50981e-05
-1.15687e-05
-6.71185e-06
-2.31252e-06
0.000271675
0.000229782
0.000203966
0.000159363
0.000146902
0.000102872
4.653e-05
1.89944e-05
3.88611e-07
-2.68499e-05
-5.90299e-05
-6.83421e-05
-7.80264e-05
-9.19053e-05
-0.000102383
-0.000117365
-0.00012306
-0.000126551
-0.000129025
-0.000126612
-0.000128868
-0.000127382
-0.000128625
-0.000126565
-0.00012521
-0.000124029
-0.000119888
-0.000115782
-0.000114433
-0.000110221
-0.00010867
-0.00010453
-0.000103063
-9.91521e-05
-9.4898e-05
-9.21542e-05
-8.83019e-05
-8.75239e-05
-8.11688e-05
-8.29887e-05
-7.96067e-05
-7.69638e-05
-7.32417e-05
-6.96532e-05
-6.94053e-05
-6.57465e-05
-6.46206e-05
-6.15721e-05
-5.95736e-05
-5.84024e-05
-5.58082e-05
-5.62646e-05
-5.50185e-05
-4.99375e-05
-5.0276e-05
-4.87204e-05
-4.52319e-05
-4.45745e-05
-4.34806e-05
-4.23962e-05
-4.17094e-05
-3.77973e-05
-3.61945e-05
-3.56673e-05
-3.25668e-05
-3.07037e-05
-2.83166e-05
-2.5745e-05
-2.3696e-05
-2.03006e-05
-1.62915e-05
-1.35519e-05
-1.04468e-05
-5.78559e-06
-1.95938e-06
0.000210906
0.000205147
0.000139869
0.000152881
0.000101251
0.000110669
8.93049e-05
3.63423e-05
-2.27476e-05
-2.42825e-05
-2.81049e-05
-5.76831e-05
-6.45016e-05
-6.65367e-05
-8.15965e-05
-8.55226e-05
-0.000109106
-0.000111991
-0.000107999
-0.000108251
-0.000113673
-0.000108825
-0.000112097
-0.000104871
-0.000104662
-0.000106998
-0.000103817
-9.98871e-05
-9.99856e-05
-9.32478e-05
-9.32489e-05
-9.07449e-05
-9.01953e-05
-8.54081e-05
-8.25788e-05
-7.99977e-05
-7.66654e-05
-7.74812e-05
-7.18745e-05
-7.14039e-05
-6.88567e-05
-6.71448e-05
-6.3162e-05
-6.16003e-05
-5.92919e-05
-5.7326e-05
-5.73197e-05
-5.3871e-05
-5.20197e-05
-5.06208e-05
-4.90181e-05
-4.95595e-05
-4.72569e-05
-4.39231e-05
-4.36231e-05
-4.07959e-05
-4.12156e-05
-3.84482e-05
-3.75491e-05
-3.66561e-05
-3.57736e-05
-3.32955e-05
-3.14794e-05
-3.07821e-05
-2.80866e-05
-2.62199e-05
-2.45627e-05
-2.15695e-05
-1.99882e-05
-1.8079e-05
-1.41072e-05
-1.14771e-05
-8.42407e-06
-4.65956e-06
-1.78225e-06
0.000169325
0.000154084
0.000134193
0.000117866
9.31314e-05
7.78664e-05
5.56216e-05
2.21911e-05
-7.2106e-07
-5.40626e-06
-2.04144e-05
-3.92506e-05
-4.18294e-05
-5.15673e-05
-6.49145e-05
-7.69305e-05
-8.18194e-05
-8.53736e-05
-8.86906e-05
-8.39893e-05
-8.86064e-05
-9.09906e-05
-8.96067e-05
-8.54729e-05
-8.67488e-05
-8.81251e-05
-8.46683e-05
-8.11983e-05
-7.92359e-05
-7.98716e-05
-7.78208e-05
-7.61453e-05
-7.33307e-05
-6.9393e-05
-6.63548e-05
-6.48563e-05
-6.66203e-05
-6.35748e-05
-6.09666e-05
-5.84372e-05
-5.64288e-05
-5.55696e-05
-5.16962e-05
-5.19636e-05
-4.89048e-05
-4.90712e-05
-4.65954e-05
-4.53933e-05
-4.31569e-05
-4.13979e-05
-4.10385e-05
-4.02125e-05
-3.81713e-05
-3.62657e-05
-3.51132e-05
-3.53158e-05
-3.57409e-05
-3.14877e-05
-2.95097e-05
-3.0751e-05
-2.99548e-05
-2.87595e-05
-2.47316e-05
-2.40065e-05
-2.30993e-05
-2.19026e-05
-2.01886e-05
-1.74737e-05
-1.64881e-05
-1.42055e-05
-1.1897e-05
-9.18603e-06
-6.58904e-06
-3.74052e-06
-1.56207e-06
0.000135107
9.37498e-05
0.000103002
0.000104902
8.59158e-05
2.00457e-05
3.57208e-05
2.44651e-05
1.37879e-05
2.19764e-06
-1.18042e-05
-2.09379e-05
-2.5008e-05
-3.81043e-05
-5.04162e-05
-4.78046e-05
-4.08015e-05
-5.53554e-05
-6.81173e-05
-6.65238e-05
-6.19531e-05
-6.69953e-05
-6.40198e-05
-6.76473e-05
-6.85905e-05
-6.41852e-05
-6.50468e-05
-6.11607e-05
-6.13659e-05
-6.14782e-05
-5.8322e-05
-5.77982e-05
-5.50472e-05
-5.1304e-05
-5.117e-05
-5.11895e-05
-4.80703e-05
-4.53423e-05
-4.60822e-05
-4.47625e-05
-4.37029e-05
-4.34917e-05
-4.03471e-05
-3.75858e-05
-4.05468e-05
-3.57122e-05
-3.60696e-05
-3.54723e-05
-3.3529e-05
-2.88895e-05
-3.04671e-05
-2.92542e-05
-2.87542e-05
-2.91474e-05
-2.77939e-05
-2.65767e-05
-2.52847e-05
-2.40035e-05
-2.36049e-05
-2.32251e-05
-2.25747e-05
-2.12174e-05
-1.92709e-05
-1.80652e-05
-1.72813e-05
-1.67084e-05
-1.56275e-05
-1.3227e-05
-1.16932e-05
-1.01029e-05
-9.2225e-06
-7.0115e-06
-5.05674e-06
-3.03527e-06
-9.13467e-07
7.75038e-05
7.22235e-05
6.13207e-05
5.30645e-05
4.26453e-05
4.09717e-05
3.73694e-05
1.92369e-05
-8.27097e-07
3.00019e-08
-6.19431e-06
-1.79437e-05
-1.81488e-05
-2.05904e-05
-2.56577e-05
-2.98315e-05
-3.35566e-05
-4.00438e-05
-4.2144e-05
-4.24704e-05
-4.0963e-05
-4.40932e-05
-3.94268e-05
-4.05011e-05
-4.09703e-05
-4.13974e-05
-4.28595e-05
-4.05089e-05
-4.10401e-05
-3.6894e-05
-3.63004e-05
-3.52319e-05
-3.5586e-05
-3.31761e-05
-3.26084e-05
-3.24972e-05
-2.90862e-05
-3.06924e-05
-3.11089e-05
-2.72462e-05
-2.62731e-05
-2.68795e-05
-2.65513e-05
-2.44577e-05
-2.51054e-05
-2.32563e-05
-2.19914e-05
-2.24035e-05
-2.21066e-05
-1.94317e-05
-1.93648e-05
-1.8594e-05
-1.76511e-05
-1.9692e-05
-1.71918e-05
-1.64921e-05
-1.60537e-05
-1.58234e-05
-1.64603e-05
-1.32815e-05
-1.28814e-05
-1.33378e-05
-1.37751e-05
-1.16526e-05
-1.11146e-05
-1.02246e-05
-9.57955e-06
-8.59316e-06
-7.89324e-06
-6.77385e-06
-5.67959e-06
-4.29796e-06
-2.61689e-06
-2.29329e-06
-8.40286e-07
3.07022e-05
2.60062e-05
1.47544e-05
1.93801e-05
1.53388e-05
7.31154e-06
3.71811e-06
1.10536e-06
2.82729e-06
1.99738e-06
2.3553e-06
2.26933e-06
-1.32577e-05
-9.12522e-06
-8.75251e-06
-1.56008e-05
-1.40525e-05
-9.61596e-06
-1.19238e-05
-1.3712e-05
-1.5102e-05
-1.63658e-05
-1.25489e-05
-1.40815e-05
-1.39943e-05
-1.32374e-05