/*--------------------------------*- C++ -*----------------------------------*\
| =========                 |                                                 |
| \\      /  F ield         | OpenFOAM: The Open Source CFD Toolbox           |
|  \\    /   O peration     | Version:  2.3.0                                 |
|   \\  /    A nd           | Web:      www.OpenFOAM.org                      |
|    \\/     M anipulation  |                                                 |
\*---------------------------------------------------------------------------*/
FoamFile
{
    version     2.0;
    format      ascii;
    class       surfaceScalarField;
    location    "0.6";
    object      phi;
}
// * * * * * * * * * * * * * * * * * * * * * * * * * * * * * * * * * * * * * //

dimensions      [0 3 -1 0 0 0 0];

internalField   nonuniform List<scalar> 
5764
(
1.97601e-08
5.01175e-09
-2.47718e-08
1.4662e-08
5.09808e-09
1.08054e-08
3.85664e-09
8.21237e-09
2.59299e-09
6.57899e-09
1.63338e-09
5.62949e-09
9.49502e-10
5.035e-09
5.94483e-10
4.64306e-09
3.91945e-10
4.36407e-09
2.78991e-10
4.12125e-09
2.42816e-10
3.90351e-09
2.17743e-10
3.72413e-09
1.79376e-10
3.56952e-09
1.54619e-10
3.42594e-09
1.43576e-10
3.29533e-09
1.30608e-10
3.17699e-09
1.18337e-10
3.06839e-09
1.08602e-10
2.96989e-09
9.84968e-11
2.88118e-09
8.87155e-11
2.7991e-09
8.20797e-11
2.72239e-09
7.67092e-11
2.65223e-09
7.01647e-11
2.58657e-09
6.56532e-11
2.52366e-09
6.29078e-11
2.4637e-09
5.99645e-11
2.40792e-09
5.57752e-11
2.35652e-09
5.1408e-11
2.30842e-09
4.81017e-11
2.26287e-09
4.55441e-11
2.21872e-09
4.41468e-11
2.17623e-09
4.24944e-11
2.13669e-09
3.95431e-11
2.09954e-09
3.71489e-11
2.06393e-09
3.56041e-11
2.02963e-09
3.43086e-11
1.99625e-09
3.33726e-11
1.96485e-09
3.14061e-11
1.93498e-09
2.98679e-11
1.90667e-09
2.83111e-11
1.87985e-09
2.68189e-11
1.85321e-09
2.66431e-11
1.82734e-09
2.5864e-11
1.80291e-09
2.44328e-11
1.78002e-09
2.28901e-11
1.75776e-09
2.22621e-11
1.73645e-09
2.13057e-11
1.71647e-09
1.9984e-11
1.69648e-09
1.99873e-11
1.67715e-09
1.93321e-11
1.65875e-09
1.84018e-11
1.64111e-09
1.76393e-11
1.6246e-09
1.65087e-11
1.60833e-09
1.62715e-11
1.59275e-09
1.5573e-11
1.57726e-09
1.54906e-11
1.56283e-09
1.4428e-11
1.54947e-09
1.33648e-11
1.53616e-09
1.33108e-11
1.52325e-09
1.29123e-11
1.51143e-09
1.18163e-11
1.49953e-09
1.18998e-11
1.48855e-09
1.09818e-11
1.47813e-09
1.04194e-11
1.46782e-09
1.03113e-11
1.4578e-09
1.00138e-11
1.44913e-09
8.67656e-12
1.43986e-09
9.27254e-12
1.43145e-09
8.40414e-12
1.42364e-09
7.80735e-12
1.41639e-09
7.24932e-12
1.40754e-09
8.85058e-12
1.40191e-09
5.6384e-12
1.39332e-09
8.58068e-12
1.39088e-09
2.4455e-12
1.03142e-11
2.70173e-08
5.14103e-09
-2.71466e-08
2.55081e-08
6.60729e-09
2.34604e-08
5.90429e-09
2.12311e-08
4.82235e-09
1.91324e-08
3.73208e-09
1.73937e-08
2.68814e-09
1.59177e-08
2.07052e-09
1.47129e-08
1.59675e-09
1.37465e-08
1.24539e-09
1.29351e-08
1.05424e-09
1.22494e-08
9.03412e-10
1.16782e-08
7.50589e-10
1.11819e-08
6.50931e-10
1.07316e-08
5.93863e-10
1.03234e-08
5.38837e-10
9.95338e-09
4.88316e-10
9.61679e-09
4.45194e-10
9.31097e-09
4.04318e-10
9.03223e-09
3.67455e-10
8.77451e-09
3.39804e-10
8.5348e-09
3.16412e-10
8.3127e-09
2.92267e-10
8.10435e-09
2.74002e-10
7.90738e-09
2.59881e-10
7.72164e-09
2.45708e-10
7.54821e-09
2.29196e-10
7.38622e-09
2.13405e-10
7.23325e-09
2.01074e-10
7.08804e-09
1.90745e-10
6.9491e-09
1.8309e-10
6.81674e-09
1.74857e-10
6.69209e-09
1.64189e-10
6.57374e-09
1.55501e-10
6.46057e-09
1.48778e-10
6.3522e-09
1.42675e-10
6.248e-09
1.37578e-10
6.14902e-09
1.30378e-10
6.05451e-09
1.24379e-10
5.96442e-09
1.184e-10
5.87817e-09
1.13075e-10
5.79425e-09
1.10565e-10
5.71371e-09
1.06403e-10
5.63705e-09
1.01086e-10
5.56407e-09
9.58724e-11
5.49349e-09
9.28442e-11
5.42584e-09
8.8953e-11
5.36128e-09
8.45506e-11
5.29813e-09
8.31284e-11
5.2375e-09
7.9966e-11
5.17949e-09
7.64135e-11
5.12385e-09
7.32796e-11
5.07084e-09
6.9519e-11
5.01927e-09
6.7842e-11
4.96985e-09
6.4996e-11
4.92179e-09
6.35505e-11
4.87651e-09
5.97055e-11
4.83345e-09
5.64271e-11
4.79156e-09
5.52005e-11
4.7514e-09
5.3071e-11
4.71364e-09
4.95755e-11
4.67682e-09
4.87143e-11
4.64237e-09
4.5434e-11
4.60939e-09
4.34039e-11
4.57763e-09
4.20642e-11
4.54733e-09
4.03171e-11
4.51958e-09
3.64224e-11
4.49188e-09
3.69749e-11
4.46648e-09
3.38038e-11
4.44241e-09
3.18802e-11
4.41978e-09
2.98741e-11
4.39607e-09
3.25668e-11
4.37747e-09
2.42363e-11
4.35551e-09
3.05421e-11
4.34215e-09
1.5805e-11
3.26605e-11
2.84458e-08
4.62371e-09
-2.79285e-08
2.9181e-08
5.87211e-09
2.85007e-08
6.58457e-09
2.77382e-08
5.58482e-09
2.66431e-08
4.8272e-09
2.55294e-08
3.80185e-09
2.43446e-08
3.25529e-09
2.32141e-08
2.72723e-09
2.21629e-08
2.29661e-09
2.11731e-08
2.04406e-09
2.0271e-08
1.80548e-09
1.94782e-08
1.54339e-09
1.8766e-08
1.36318e-09
1.81041e-08
1.25576e-09
1.74875e-08
1.15539e-09
1.69164e-08
1.05945e-09
1.63901e-08
9.71455e-10
1.59066e-08
8.87831e-10
1.54607e-08
8.13392e-10
1.50448e-08
7.55667e-10
1.46555e-08
7.05713e-10
1.42921e-08
6.55663e-10
1.39499e-08
6.1623e-10
1.36256e-08
5.84172e-10
1.33185e-08
5.52858e-10
1.30297e-08
5.17949e-10
1.27583e-08
4.84806e-10
1.2501e-08
4.58325e-10
1.22562e-08
4.35575e-10
1.20218e-08
4.17538e-10
1.1798e-08
3.98588e-10
1.15863e-08
3.75965e-10
1.13845e-08
3.57255e-10
1.11914e-08
3.41905e-10
1.10064e-08
3.27692e-10
1.08285e-08
3.15436e-10
1.06589e-08
3.00013e-10
1.04965e-08
2.86752e-10
1.03412e-08
2.7366e-10
1.01922e-08
2.62065e-10
1.00479e-08
2.549e-10
9.90939e-09
2.4492e-10
9.77694e-09
2.33536e-10
9.65025e-09
2.22567e-10
9.52784e-09
2.15251e-10
9.41029e-09
2.06503e-10
9.29765e-09
1.97189e-10
9.18811e-09
1.92676e-10
9.08289e-09
1.85187e-10
8.98193e-09
1.77372e-10
8.88492e-09
1.70286e-10
8.7921e-09
1.62341e-10
8.70213e-09
1.5781e-10
8.61579e-09
1.51333e-10
8.53222e-09
1.4712e-10
8.45294e-09
1.38987e-10
8.3772e-09
1.32165e-10
8.30395e-09
1.28453e-10
8.23379e-09
1.23233e-10
8.16733e-09
1.16037e-10
8.1031e-09
1.12942e-10
8.04256e-09
1.05975e-10
7.98466e-09
1.01299e-10
7.92924e-09
9.74915e-11
7.87648e-09
9.30701e-11
7.82748e-09
8.5427e-11
7.77966e-09
8.47926e-11
7.73529e-09
7.81776e-11
7.69343e-09
7.37354e-11
7.65392e-09
6.93894e-11
7.61464e-09
7.18453e-11
7.58109e-09
5.77823e-11
7.54599e-09
6.56464e-11
7.51837e-09
4.34228e-11
6.57437e-11
2.92105e-08
4.32232e-09
-2.89091e-08
2.97792e-08
5.30347e-09
3.0054e-08
6.30974e-09
3.01994e-08
5.4394e-09
2.99808e-08
5.04584e-09
2.9613e-08
4.16966e-09
2.90535e-08
3.81472e-09
2.84531e-08
3.32769e-09
2.7797e-08
2.95268e-09
2.7087e-08
2.75404e-09
2.63648e-08
2.52771e-09
2.56803e-08
2.2279e-09
2.5035e-08
2.00844e-09
2.44089e-08
1.88185e-09
2.37939e-08
1.77043e-09
2.31921e-08
1.6612e-09
2.26136e-08
1.55001e-09
2.20664e-08
1.43504e-09
2.15506e-08
1.3291e-09
2.10595e-08
1.24681e-09
2.05901e-08
1.17512e-09
2.01446e-08
1.10112e-09
1.97204e-08
1.04044e-09
1.9314e-08
9.90576e-10
1.89235e-08
9.43351e-10
1.85511e-08
8.90386e-10
1.81976e-08
8.38307e-10
1.78606e-08
7.95318e-10
1.75379e-08
7.58308e-10
1.72262e-08
7.29184e-10
1.69263e-08
6.9846e-10
1.66406e-08
6.61723e-10
1.63672e-08
6.30671e-10
1.61044e-08
6.04714e-10
1.58513e-08
5.80716e-10
1.56071e-08
5.59652e-10
1.53732e-08
5.339e-10
1.51485e-08
5.11456e-10
1.49328e-08
4.89419e-10
1.47249e-08
4.69915e-10
1.45232e-08
4.56621e-10
1.43291e-08
4.3901e-10
1.41428e-08
4.19843e-10
1.3964e-08
4.01368e-10
1.37909e-08
3.88314e-10
1.36242e-08
3.7321e-10
1.3464e-08
3.57472e-10
1.33081e-08
3.48542e-10
1.31581e-08
3.35151e-10
1.30138e-08
3.21685e-10
1.28748e-08
3.09272e-10
1.27415e-08
2.95711e-10
1.26121e-08
2.87118e-10
1.24878e-08
2.75691e-10
1.23674e-08
2.67538e-10
1.22527e-08
2.53709e-10
1.21428e-08
2.42042e-10
1.20365e-08
2.34709e-10
1.19346e-08
2.25129e-10
1.18377e-08
2.12999e-10
1.17441e-08
2.06492e-10
1.16556e-08
1.94527e-10
1.15708e-08
1.86055e-10
1.14897e-08
1.78628e-10
1.14124e-08
1.70313e-10
1.13401e-08
1.577e-10
1.12701e-08
1.54792e-10
1.12048e-08
1.43572e-10
1.11432e-08
1.35338e-10
1.10848e-08
1.27734e-10
1.1028e-08
1.28622e-10
1.09775e-08
1.08297e-10
1.09277e-08
1.15485e-10
1.08835e-08
8.76236e-11
1.11097e-10
3.01475e-08
4.09454e-09
-2.99198e-08
3.05771e-08
4.87389e-09
3.10288e-08
5.85805e-09
3.12719e-08
5.19632e-09
3.12753e-08
5.04242e-09
3.1367e-08
4.07796e-09
3.12269e-08
3.9548e-09
3.10618e-08
3.49282e-09
3.08111e-08
3.20337e-09
3.0478e-08
3.08712e-09
3.0079e-08
2.92674e-09
2.96623e-08
2.64459e-09
2.92511e-08
2.41969e-09
2.88388e-08
2.29408e-09
2.84112e-08
2.19803e-09
2.79601e-08
2.11232e-09
2.74933e-08
2.01686e-09
2.70268e-08
1.90147e-09
2.65729e-08
1.78307e-09
2.61293e-08
1.69037e-09
2.56922e-08
1.61218e-09
2.52647e-08
1.52861e-09
2.48484e-08
1.45677e-09
2.44425e-08
1.39645e-09
2.40439e-08
1.34197e-09
2.3654e-08
1.28034e-09
2.32761e-08
1.21618e-09
2.29118e-08
1.15958e-09
2.25601e-08
1.11005e-09
2.22155e-08
1.07373e-09
2.18784e-08
1.03558e-09
2.15529e-08
9.87253e-10
2.12388e-08
9.4472e-10
2.09349e-08
9.08691e-10
2.06395e-08
8.76126e-10
2.03516e-08
8.47489e-10
2.00741e-08
8.11418e-10
1.9806e-08
7.79506e-10
1.95472e-08
7.48281e-10
1.92961e-08
7.21019e-10
1.90506e-08
7.02072e-10
1.8813e-08
6.76604e-10
1.85838e-08
6.49034e-10
1.83632e-08
6.22017e-10
1.81489e-08
6.02654e-10
1.79413e-08
5.80734e-10
1.77407e-08
5.5813e-10
1.75448e-08
5.44395e-10
1.73558e-08
5.24179e-10
1.71732e-08
5.04269e-10
1.69968e-08
4.85658e-10
1.6827e-08
4.65528e-10
1.66619e-08
4.52231e-10
1.65025e-08
4.35072e-10
1.63477e-08
4.22342e-10
1.61996e-08
4.01777e-10
1.60575e-08
3.84219e-10
1.59196e-08
3.72585e-10
1.5787e-08
3.57763e-10
1.56602e-08
3.39774e-10
1.55377e-08
3.29e-10
1.54212e-08
3.10961e-10
1.53095e-08
2.97769e-10
1.52023e-08
2.85898e-10
1.50999e-08
2.72637e-10
1.50036e-08
2.53992e-10
1.49105e-08
2.47954e-10
1.48229e-08
2.31172e-10
1.47403e-08
2.17915e-10
1.46616e-08
2.06442e-10
1.45858e-08
2.04407e-10
1.45164e-08
1.77729e-10
1.44503e-08
1.81518e-10
1.43873e-08
1.50629e-10
1.70484e-10
3.11323e-08
3.89945e-09
-3.09372e-08
3.1446e-08
4.56012e-09
3.19481e-08
5.35594e-09
3.20069e-08
5.13761e-09
3.22999e-08
4.74936e-09
3.24001e-08
3.97783e-09
3.23447e-08
4.0102e-09
3.23966e-08
3.44092e-09
3.23646e-08
3.23528e-09
3.22682e-08
3.18354e-09
3.21026e-08
3.09236e-09
3.19065e-08
2.84067e-09
3.17105e-08
2.61577e-09
3.15189e-08
2.48565e-09
3.13128e-08
2.40411e-09
3.1072e-08
2.35307e-09
3.07919e-08
2.29699e-09
3.04845e-08
2.20891e-09
3.01702e-08
2.0973e-09
2.98556e-08
2.00507e-09
2.95364e-08
1.93134e-09
2.92122e-08
1.85281e-09
2.88856e-08
1.78334e-09
2.85597e-08
1.72242e-09
2.82314e-08
1.67022e-09
2.78996e-08
1.61221e-09
2.75665e-08
1.54921e-09
2.72385e-08
1.48761e-09
2.69187e-08
1.42985e-09
2.66002e-08
1.39221e-09
2.62812e-08
1.3546e-09
2.59661e-08
1.3023e-09
2.56575e-08
1.2534e-09
2.53556e-08
1.21059e-09
2.50582e-08
1.17346e-09
2.47639e-08
1.14186e-09
2.44766e-08
1.09864e-09
2.4197e-08
1.05916e-09
2.39252e-08
1.02001e-09
2.36593e-08
9.86945e-10
2.3396e-08
9.65361e-10
2.31381e-08
9.34579e-10
2.2887e-08
9.00133e-10
2.26443e-08
8.6463e-10
2.24078e-08
8.39194e-10
2.21774e-08
8.11114e-10
2.19527e-08
7.82887e-10
2.17313e-08
7.65714e-10
2.15164e-08
7.39094e-10
2.13077e-08
7.12996e-10
2.11053e-08
6.88061e-10
2.09097e-08
6.61103e-10
2.07187e-08
6.43276e-10
2.05332e-08
6.20551e-10
2.0352e-08
6.03585e-10
2.01778e-08
5.75987e-10
2.001e-08
5.51942e-10
1.98467e-08
5.35944e-10
1.96887e-08
5.15746e-10
1.95368e-08
4.91651e-10
1.93895e-08
4.76317e-10
1.92488e-08
4.51606e-10
1.91134e-08
4.3319e-10
1.89827e-08
4.16642e-10
1.88575e-08
3.97818e-10
1.87391e-08
3.72437e-10
1.86242e-08
3.62774e-10
1.85155e-08
3.39952e-10
1.84127e-08
3.20644e-10
1.83139e-08
3.05275e-10
1.82192e-08
2.99061e-10
1.81303e-08
2.66655e-10
1.80478e-08
2.64062e-10
1.7965e-08
2.3336e-10
2.44921e-10
3.21376e-08
3.72204e-09
-3.19602e-08
3.23854e-08
4.31227e-09
3.28386e-08
4.90273e-09
3.29311e-08
5.04512e-09
3.32399e-08
4.44063e-09
3.31669e-08
4.05077e-09
3.30786e-08
4.0985e-09
3.33508e-08
3.16873e-09
3.34109e-08
3.17513e-09
3.34024e-08
3.19213e-09
3.33476e-08
3.14714e-09
3.32633e-08
2.92499e-09
3.31835e-08
2.69555e-09
3.31229e-08
2.54621e-09
3.30619e-08
2.46517e-09
3.2977e-08
2.43797e-09
3.2854e-08
2.41993e-09
3.26945e-08
2.36842e-09
3.25183e-08
2.27358e-09
3.23374e-08
2.18589e-09
3.21509e-08
2.11791e-09
3.19542e-08
2.04948e-09
3.17481e-08
1.98946e-09
3.15367e-08
1.93379e-09
3.13185e-08
1.88845e-09
3.10895e-08
1.84115e-09
3.08478e-08
1.79094e-09
3.06014e-08
1.734e-09
3.03586e-08
1.67264e-09
3.01127e-08
1.63816e-09
2.98596e-08
1.60765e-09
2.96019e-08
1.56002e-09
2.93432e-08
1.51205e-09
2.90867e-08
1.46717e-09
2.88296e-08
1.43053e-09
2.85692e-08
1.40228e-09
2.83102e-08
1.35764e-09
2.80547e-08
1.31465e-09
2.78051e-08
1.26959e-09
2.7559e-08
1.23302e-09
2.73114e-08
1.21304e-09
2.70638e-08
1.18214e-09
2.68186e-08
1.14537e-09
2.65799e-08
1.10325e-09
2.63466e-08
1.07254e-09
2.61186e-08
1.03911e-09
2.58939e-08
1.0076e-09
2.56693e-08
9.90264e-10
2.54487e-08
9.59709e-10
2.52323e-08
9.29394e-10
2.50214e-08
8.99013e-10
2.48168e-08
8.65635e-10
2.46161e-08
8.44056e-10
2.44197e-08
8.16928e-10
2.42259e-08
7.97405e-10
2.40381e-08
7.63705e-10
2.38569e-08
7.3322e-10
2.36795e-08
7.133e-10
2.35068e-08
6.88443e-10
2.33394e-08
6.59033e-10
2.3176e-08
6.39708e-10
2.30192e-08
6.08439e-10
2.28676e-08
5.84822e-10
2.27201e-08
5.64099e-10
2.25781e-08
5.39833e-10
2.24429e-08
5.07623e-10
2.23114e-08
4.94279e-10
2.21858e-08
4.65578e-10
2.20669e-08
4.39551e-10
2.19511e-08
4.21013e-10
2.18405e-08
4.09706e-10
2.17341e-08
3.73031e-10
2.16369e-08
3.6129e-10
2.15361e-08
3.34179e-10
3.33615e-10
3.31647e-08
3.55622e-09
-3.29989e-08
3.3377e-08
4.09992e-09
3.37194e-08
4.56037e-09
3.3933e-08
4.83155e-09
3.41372e-08
4.23642e-09
3.4177e-08
4.01092e-09
3.43004e-08
3.97508e-09
3.42967e-08
3.17248e-09
3.43707e-08
3.10111e-09
3.43844e-08
3.17843e-09
3.43608e-08
3.17071e-09
3.43219e-08
2.96394e-09
3.42841e-08
2.73337e-09
3.42719e-08
2.55836e-09
3.42706e-08
2.46644e-09
3.42606e-08
2.44796e-09
3.42248e-08
2.45575e-09
3.41586e-08
2.43461e-09
3.40751e-08
2.35713e-09
3.39858e-08
2.27522e-09
3.38943e-08
2.20933e-09
3.37956e-08
2.14822e-09
3.36898e-08
2.09527e-09
3.35792e-08
2.04442e-09
3.34628e-08
2.00481e-09
3.33355e-08
1.96847e-09
3.31901e-08
1.93634e-09
3.30349e-08
1.88924e-09
3.28814e-08
1.82613e-09
3.2723e-08
1.79648e-09
3.25553e-08
1.77541e-09
3.23775e-08
1.73779e-09
3.21932e-08
1.69633e-09
3.20078e-08
1.65259e-09
3.18183e-08
1.62009e-09
3.16201e-08
1.60046e-09
3.14173e-08
1.56048e-09
3.12128e-08
1.51906e-09
3.10124e-08
1.47007e-09
3.08144e-08
1.43097e-09
3.0612e-08
1.41546e-09
3.04042e-08
1.38996e-09
3.01921e-08
1.3575e-09
2.99825e-08
1.31283e-09
2.97764e-08
1.27857e-09
2.95757e-08
1.23981e-09
2.93766e-08
1.20673e-09
2.9174e-08
1.19291e-09
2.89712e-08
1.16245e-09
2.87687e-08
1.13194e-09
2.85693e-08
1.0984e-09
2.83752e-08
1.05977e-09
2.8184e-08
1.03525e-09
2.79957e-08
1.00517e-09
2.78073e-08
9.85795e-10
2.76226e-08
9.48436e-10
2.74433e-08
9.12543e-10
2.72672e-08
8.89417e-10
2.70945e-08
8.61062e-10
2.69255e-08
8.28079e-10
2.67588e-08
8.06377e-10
2.65976e-08
7.6962e-10
2.64411e-08
7.4138e-10
2.62876e-08
7.17614e-10
2.61386e-08
6.88849e-10
2.59956e-08
6.50557e-10
2.58559e-08
6.34019e-10
2.57212e-08
6.00263e-10
2.55935e-08
5.67266e-10
2.54675e-08
5.46957e-10
2.5347e-08
5.30253e-10
2.52285e-08
4.91484e-10
2.51211e-08
4.68701e-10
2.50072e-08
4.48128e-10
4.33242e-10
3.42036e-08
3.41391e-09
-3.40613e-08
3.43943e-08
3.90929e-09
3.46606e-08
4.29402e-09
3.49401e-08
4.55204e-09
3.506e-08
4.11654e-09
3.51929e-08
3.87801e-09
3.52847e-08
3.88332e-09
3.52761e-08
3.18106e-09
3.53418e-08
3.03542e-09
3.53615e-08
3.15878e-09
3.53523e-08
3.17987e-09
3.5332e-08
2.98422e-09
3.53077e-08
2.75763e-09
3.53028e-08
2.56331e-09
3.53149e-08
2.45434e-09
3.53261e-08
2.43673e-09
3.53231e-08
2.45874e-09
3.53013e-08
2.45646e-09
3.52662e-08
2.39226e-09
3.52217e-08
2.31971e-09
3.51783e-08
2.25265e-09
3.51325e-08
2.19407e-09
3.50872e-08
2.14055e-09
3.50411e-08
2.09053e-09
3.49926e-08
2.05329e-09
3.49361e-08
2.02501e-09
3.48612e-08
2.01124e-09
3.47772e-08
1.97325e-09
3.46973e-08
1.90595e-09
3.46131e-08
1.88068e-09
3.45204e-08
1.86819e-09
3.44164e-08
1.84179e-09
3.43039e-08
1.80878e-09
3.41906e-08
1.76588e-09
3.40727e-08
1.73797e-09
3.39439e-08
1.72925e-09
3.38061e-08
1.69836e-09
3.3662e-08
1.66313e-09
3.35205e-08
1.61151e-09
3.33826e-08
1.56895e-09
3.32403e-08
1.55772e-09
3.30895e-08
1.54077e-09
3.29283e-08
1.51868e-09
3.27645e-08
1.4766e-09
3.26014e-08
1.44173e-09
3.24443e-08
1.3969e-09
3.22887e-08
1.36229e-09
3.21276e-08
1.35398e-09
3.19629e-08
1.32724e-09
3.17933e-08
1.3015e-09
3.16233e-08
1.26836e-09
3.14564e-08
1.22672e-09
3.12917e-08
1.1999e-09
3.11292e-08
1.16768e-09
3.0964e-08
1.15097e-09
3.07991e-08
1.11335e-09
3.06374e-08
1.07425e-09
3.04779e-08
1.0489e-09
3.03209e-08
1.01809e-09
3.01655e-08
9.83517e-10
3.00101e-08
9.61714e-10
2.98582e-08
9.21518e-10
2.97098e-08
8.89829e-10
2.95629e-08
8.64519e-10
2.9419e-08
8.32751e-10
2.92797e-08
7.89891e-10
2.91424e-08
7.71258e-10
2.90088e-08
7.33864e-10
2.8882e-08
6.94103e-10
2.87552e-08
6.73713e-10
2.86335e-08
6.52015e-10
2.85113e-08
6.13633e-10
2.84006e-08
5.79419e-10
2.82815e-08
5.67208e-10
5.37999e-10
3.52535e-08
3.3118e-09
-3.51514e-08
3.54484e-08
3.71438e-09
3.56619e-08
4.08056e-09
3.59495e-08
4.26442e-09
3.60551e-08
4.01094e-09
3.61944e-08
3.73877e-09
3.62762e-08
3.80147e-09
3.62951e-08
3.16212e-09
3.63427e-08
2.98785e-09
3.63565e-08
3.14496e-09
3.63659e-08
3.17048e-09
3.63552e-08
2.99496e-09
3.63375e-08
2.77537e-09
3.6334e-08
2.56673e-09
3.63489e-08
2.43945e-09
3.6359e-08
2.42669e-09
3.63605e-08
2.45719e-09
3.63554e-08
2.46155e-09
3.6342e-08
2.40568e-09
3.63165e-08
2.34524e-09
3.62878e-08
2.28129e-09
3.6263e-08
2.21893e-09
3.6247e-08
2.1565e-09
3.62322e-08
2.10533e-09
3.62174e-08
2.06811e-09
3.61968e-08
2.04558e-09
3.61598e-08
2.04828e-09
3.61185e-08
2.01452e-09
3.6086e-08
1.93845e-09
3.60502e-08
1.91655e-09
3.60069e-08
1.9115e-09
3.59534e-08
1.89523e-09
3.58928e-08
1.8694e-09
3.58346e-08
1.82406e-09
3.57743e-08
1.79835e-09
3.57037e-08
1.79981e-09
3.56218e-08
1.78023e-09
3.55305e-08
1.75447e-09
3.54414e-08
1.7006e-09
3.5358e-08
1.6523e-09
3.52734e-08
1.6424e-09
3.51801e-08
1.634e-09
3.50732e-08
1.62561e-09
3.49595e-08
1.59031e-09
3.48428e-08
1.55839e-09
3.47333e-08
1.50643e-09
3.46266e-08
1.46898e-09
3.45149e-08
1.46573e-09
3.43978e-08
1.44426e-09
3.42722e-08
1.42716e-09
3.41426e-08
1.39797e-09
3.40128e-08
1.35648e-09
3.38847e-08
1.32797e-09
3.37588e-08
1.29361e-09
3.3629e-08
1.2808e-09
3.34964e-08
1.24595e-09
3.33642e-08
1.20646e-09
3.3233e-08
1.18009e-09
3.31035e-08
1.14753e-09
3.29742e-08
1.11288e-09
3.28429e-08
1.09304e-09
3.27125e-08
1.05189e-09
3.25839e-08
1.01838e-09
3.24553e-08
9.93139e-10
3.23281e-08
9.60018e-10
3.22035e-08
9.14411e-10
3.20796e-08
8.95205e-10
3.19575e-08
8.55964e-10
3.18414e-08
8.10194e-10
3.17239e-08
7.91227e-10
3.16103e-08
7.65555e-10
3.14943e-08
7.29651e-10
3.13883e-08
6.85402e-10
3.12737e-08
6.81813e-10
6.4056e-10
3.63415e-08
3.23209e-09
-3.62618e-08
3.65323e-08
3.52361e-09
3.67121e-08
3.90072e-09
3.6959e-08
4.01757e-09
3.71265e-08
3.8434e-09
3.72291e-08
3.63622e-09
3.72614e-08
3.76913e-09
3.73413e-08
3.08227e-09
3.73747e-08
2.95442e-09
3.73898e-08
3.12984e-09
3.73989e-08
3.16143e-09
3.73982e-08
2.99559e-09
3.73887e-08
2.78489e-09
3.7391e-08
2.56448e-09
3.74041e-08
2.42633e-09
3.74092e-08
2.42162e-09
3.7411e-08
2.45538e-09
3.74133e-08
2.45921e-09
3.7407e-08
2.41194e-09
3.73879e-08
2.36433e-09
3.73613e-08
2.30791e-09
3.73457e-08
2.23456e-09
3.73399e-08
2.16233e-09
3.73375e-08
2.10771e-09
3.73347e-08
2.07091e-09
3.73271e-08
2.05317e-09
3.73045e-08
2.07091e-09
3.72863e-08
2.03267e-09
3.72778e-08
1.94691e-09
3.72654e-08
1.92896e-09
3.72472e-08
1.92974e-09
3.72201e-08
1.92228e-09
3.71889e-08
1.90064e-09
3.71642e-08
1.84871e-09
3.71403e-08
1.82231e-09
3.71085e-08
1.83156e-09
3.70652e-08
1.82357e-09
3.70105e-08
1.80917e-09
3.69582e-08
1.75291e-09
3.69142e-08
1.69635e-09
3.68729e-08
1.6836e-09
3.68251e-08
1.68182e-09
3.67633e-08
1.68746e-09
3.66927e-08
1.66089e-09
3.6616e-08
1.63508e-09
3.65477e-08
1.57478e-09
3.64836e-08
1.53308e-09
3.64167e-08
1.53258e-09
3.63452e-08
1.51579e-09
3.62634e-08
1.50894e-09
3.61757e-08
1.48562e-09
3.60847e-08
1.4475e-09
3.59948e-08
1.41789e-09
3.59073e-08
1.38108e-09
3.58162e-08
1.37196e-09
3.57206e-08
1.34151e-09
3.5623e-08
1.30407e-09
3.55254e-08
1.27773e-09
3.54291e-08
1.24377e-09
3.53322e-08
1.20982e-09
3.52321e-08
1.19315e-09
3.51308e-08
1.15311e-09
3.50298e-08
1.11941e-09
3.49273e-08
1.09564e-09
3.48247e-08
1.06268e-09
3.47231e-08
1.01594e-09
3.46206e-08
9.97695e-10
3.45183e-08
9.58266e-10
3.44207e-08
9.07822e-10
3.43207e-08
8.91245e-10
3.42231e-08
8.63105e-10
3.41221e-08
8.30713e-10
3.40282e-08
7.79321e-10
3.3927e-08
7.8296e-10
7.33689e-10
3.74655e-08
3.15152e-09
-3.73849e-08
3.76293e-08
3.35977e-09
3.78234e-08
3.70659e-09
3.79851e-08
3.85594e-09
3.8237e-08
3.59143e-09
3.8226e-08
3.64727e-09
3.83909e-08
3.6042e-09
3.84189e-08
3.05431e-09
3.84398e-08
2.93351e-09
3.84638e-08
3.10583e-09
3.84782e-08
3.14703e-09
3.84718e-08
3.00199e-09
3.84664e-08
2.79026e-09
3.84756e-08
2.55531e-09
3.84847e-08
2.41719e-09
3.84864e-08
2.41996e-09
3.84908e-08
2.45098e-09
3.84983e-08
2.45174e-09
3.84947e-08
2.41553e-09
3.84767e-08
2.38235e-09
3.84535e-08
2.33105e-09
3.84411e-08
2.24702e-09
3.84336e-08
2.16979e-09
3.84362e-08
2.10512e-09
3.84368e-08
2.0703e-09
3.84322e-08
2.05778e-09
3.84169e-08
2.08618e-09
3.84066e-08
2.04296e-09
3.84084e-08
1.94514e-09
3.84035e-08
1.93386e-09
3.83967e-08
1.93654e-09
3.838e-08
1.93896e-09
3.83622e-08
1.91849e-09
3.83544e-08
1.85652e-09
3.83475e-08
1.82919e-09
3.83363e-08
1.84277e-09
3.83142e-08
1.84559e-09
3.82812e-08
1.84224e-09
3.82505e-08
1.78357e-09
3.82293e-08
1.71753e-09
3.82146e-08
1.69829e-09
3.81953e-08
1.70115e-09
3.81637e-08
1.71904e-09
3.81236e-08
1.701e-09
3.80753e-08
1.68335e-09
3.80372e-08
1.61297e-09
3.80033e-08
1.56689e-09
3.79695e-08
1.56641e-09
3.79328e-08
1.55251e-09
3.78863e-08
1.55545e-09
3.78342e-08
1.53772e-09
3.77765e-08
1.50522e-09
3.77195e-08
1.47487e-09
3.76649e-08
1.43564e-09
3.76077e-08
1.42917e-09
3.75459e-08
1.40334e-09
3.74807e-08
1.36925e-09
3.74152e-08
1.34324e-09
3.73511e-08
1.30784e-09
3.72861e-08
1.27485e-09
3.72175e-08
1.2617e-09
3.71467e-08
1.22393e-09
3.70751e-08
1.19107e-09
3.70012e-08
1.16953e-09
3.69259e-08
1.13791e-09
3.68507e-08
1.09122e-09
3.67732e-08
1.07516e-09
3.6695e-08
1.03648e-09
3.66197e-08
9.83079e-10
3.65419e-08
9.6911e-10
3.64646e-08
9.40371e-10
3.6384e-08
9.11283e-10
3.63069e-08
8.5643e-10
3.62254e-08
8.645e-10
8.11931e-10
3.86222e-08
3.06767e-09
-3.85384e-08
3.87692e-08
3.2128e-09
3.89621e-08
3.51369e-09
3.90777e-08
3.74033e-09
3.93283e-08
3.34085e-09
3.93263e-08
3.64919e-09
3.94905e-08
3.44006e-09
3.95246e-08
3.02016e-09
3.95367e-08
2.92144e-09
3.95625e-08
3.08005e-09
3.95927e-08
3.11679e-09
3.95748e-08
3.01992e-09
3.95741e-08
2.79099e-09
3.95899e-08
2.53945e-09
3.95938e-08
2.41332e-09
3.95963e-08
2.41743e-09
3.96062e-08
2.44108e-09
3.96156e-08
2.44231e-09
3.96109e-08
2.42024e-09
3.95928e-08
2.40049e-09
3.95703e-08
2.35351e-09
3.95619e-08
2.25545e-09
3.95535e-08
2.17822e-09
3.95608e-08
2.09781e-09
3.95618e-08
2.06928e-09
3.95536e-08
2.06599e-09
3.95451e-08
2.09468e-09
3.95379e-08
2.05014e-09
3.95384e-08
1.94468e-09
3.95339e-08
1.93835e-09
3.95281e-08
1.94236e-09
3.95179e-08
1.94917e-09
3.9507e-08
1.92938e-09
3.95044e-08
1.85912e-09
3.95044e-08
1.82919e-09
3.95006e-08
1.84651e-09
3.94882e-08
1.85806e-09
3.94679e-08
1.86245e-09
3.94498e-08
1.80173e-09
3.94389e-08
1.72837e-09
3.94368e-08
1.70048e-09
3.94309e-08
1.70702e-09
3.94159e-08
1.73404e-09
3.9394e-08
1.72284e-09
3.93629e-08
1.71453e-09
3.93444e-08
1.63146e-09
3.93284e-08
1.58283e-09
3.93143e-08
1.58055e-09
3.9299e-08
1.56778e-09
3.92761e-08
1.57836e-09
3.92491e-08
1.56471e-09
3.92158e-08
1.53856e-09
3.91835e-08
1.50719e-09
3.91524e-08
1.46672e-09
3.912e-08
1.4616e-09
3.90834e-08
1.43991e-09
3.90435e-08
1.40918e-09
3.9004e-08
1.38271e-09
3.89663e-08
1.34551e-09
3.89277e-08
1.3135e-09
3.88856e-08
1.3038e-09
3.88409e-08
1.26856e-09
3.87952e-08
1.23685e-09
3.87473e-08
1.21737e-09
3.86974e-08
1.1878e-09
3.86468e-08
1.14188e-09
3.85931e-08
1.12887e-09
3.85387e-08
1.09084e-09
3.84855e-08
1.03628e-09
3.84303e-08
1.0243e-09
3.83737e-08
9.96981e-10
3.83149e-08
9.70111e-10
3.82557e-08
9.15543e-10
3.81958e-08
9.24423e-10
8.7274e-10
3.98136e-08
2.97187e-09
-3.97178e-08
3.99543e-08
3.07209e-09
4.01247e-08
3.3433e-09
4.02359e-08
3.62915e-09
4.04175e-08
3.15917e-09
4.04879e-08
3.57887e-09
4.06016e-08
3.32635e-09
4.0647e-08
2.97471e-09
4.06759e-08
2.89255e-09
4.06988e-08
3.05721e-09
4.07178e-08
3.09778e-09
4.07122e-08
3.0255e-09
4.07225e-08
2.78064e-09
4.07375e-08
2.52452e-09
4.07356e-08
2.41521e-09
4.07412e-08
2.41176e-09
4.07563e-08
2.426e-09
4.07635e-08
2.4351e-09
4.0758e-08
2.42574e-09
4.07379e-08
2.42059e-09
4.07188e-08
2.37265e-09
4.07129e-08
2.26134e-09
4.07067e-08
2.18445e-09
4.0716e-08
2.0885e-09
4.07166e-08
2.06861e-09
4.07047e-08
2.07795e-09
4.07017e-08
2.09763e-09
4.0699e-08
2.05288e-09
4.06927e-08
1.95097e-09
4.06871e-08
1.94393e-09
4.06806e-08
1.94885e-09
4.06759e-08
1.95388e-09
4.0667e-08
1.93832e-09
4.06617e-08
1.86443e-09
4.06636e-08
1.82728e-09
4.06614e-08
1.84872e-09
4.06527e-08
1.86674e-09
4.06401e-08
1.87501e-09
4.06294e-08
1.81248e-09
4.06219e-08
1.73583e-09
4.06241e-08
1.6983e-09
4.06222e-08
1.7089e-09
4.06147e-08
1.74153e-09
4.06023e-08
1.73529e-09
4.0581e-08
1.73577e-09
4.05747e-08
1.63777e-09
4.05666e-08
1.59093e-09
4.05621e-08
1.58505e-09
4.05566e-08
1.57327e-09
4.05472e-08
1.58774e-09
4.05354e-08
1.57657e-09
4.05173e-08
1.55663e-09
4.05017e-08
1.52282e-09
4.04843e-08
1.48406e-09
4.04671e-08
1.47883e-09
4.04463e-08
1.46073e-09
4.04231e-08
1.4324e-09
4.04019e-08
1.40385e-09
4.03829e-08
1.36449e-09
4.03629e-08
1.33358e-09
4.03396e-08
1.32706e-09
4.03141e-08
1.29407e-09
4.02877e-08
1.26329e-09
4.02601e-08
1.2449e-09
4.02303e-08
1.21768e-09
4.01992e-08
1.17296e-09
4.01646e-08
1.16349e-09
4.01303e-08
1.12505e-09
4.00956e-08
1.07105e-09
4.00602e-08
1.05965e-09
4.00215e-08
1.03567e-09
3.9982e-08
1.00965e-09
3.99388e-08
9.58693e-10
3.98986e-08
9.64694e-10
9.1662e-10
4.104e-08
2.86115e-09
-4.09293e-08
4.11718e-08
2.94031e-09
4.13129e-08
3.2022e-09
4.14368e-08
3.50528e-09
4.15361e-08
3.05984e-09
4.16857e-08
3.42926e-09
4.1709e-08
3.30306e-09
4.17782e-08
2.90553e-09
4.18407e-08
2.83005e-09
4.18778e-08
3.02006e-09
4.18812e-08
3.09446e-09
4.18925e-08
3.01412e-09
4.19087e-08
2.76446e-09
4.19121e-08
2.52118e-09
4.19099e-08
2.41735e-09
4.19211e-08
2.40061e-09
4.19382e-08
2.4089e-09
4.19435e-08
2.42976e-09
4.19362e-08
2.43303e-09
4.19159e-08
2.44091e-09
4.19027e-08
2.38585e-09
4.18952e-08
2.26888e-09
4.18947e-08
2.18498e-09
4.18995e-08
2.08367e-09
4.19033e-08
2.06476e-09
4.18883e-08
2.09298e-09
4.18884e-08
2.09758e-09
4.18885e-08
2.05274e-09
4.18789e-08
1.96054e-09
4.18717e-08
1.95112e-09
4.1866e-08
1.95462e-09
4.18617e-08
1.95815e-09
4.18544e-08
1.9456e-09
4.18471e-08
1.87171e-09
4.1848e-08
1.82643e-09
4.18448e-08
1.8519e-09
4.18382e-08
1.8734e-09
4.18309e-08
1.88222e-09
4.18242e-08
1.81922e-09
4.1816e-08
1.74402e-09
4.18188e-08
1.69556e-09
4.18169e-08
1.7108e-09
4.18127e-08
1.74567e-09
4.18023e-08
1.74568e-09
4.17914e-08
1.74668e-09
4.17904e-08
1.63884e-09
4.17836e-08
1.59774e-09
4.1783e-08
1.58562e-09
4.17804e-08
1.57589e-09
4.17775e-08
1.59057e-09
4.17734e-08
1.58066e-09
4.17645e-08
1.5656e-09
4.17585e-08
1.52877e-09
4.17473e-08
1.4953e-09
4.17379e-08
1.48824e-09
4.17251e-08
1.47353e-09
4.17119e-08
1.44562e-09
4.17022e-08
1.41346e-09
4.16947e-08
1.37206e-09
4.16855e-08
1.34272e-09
4.16737e-08
1.33888e-09
4.16604e-08
1.30734e-09
4.16464e-08
1.27735e-09
4.16325e-08
1.25872e-09
4.16163e-08
1.23388e-09
4.15986e-08
1.19074e-09
4.15771e-08
1.18494e-09
4.1558e-08
1.14421e-09
4.15365e-08
1.09255e-09
4.15163e-08
1.07984e-09
4.14911e-08
1.06081e-09
4.14663e-08
1.03447e-09
4.14352e-08
9.89788e-10
4.141e-08
9.8986e-10
9.46334e-10
4.22961e-08
2.74409e-09
-4.21791e-08
4.24057e-08
2.83077e-09
4.25291e-08
3.07875e-09
4.2656e-08
3.37843e-09
4.27171e-08
2.99872e-09
4.28879e-08
3.25843e-09
4.2894e-08
3.297e-09
4.30025e-08
2.79704e-09
4.30013e-08
2.83118e-09
4.30454e-08
2.97598e-09
4.30912e-08
3.04866e-09
4.31274e-08
2.97796e-09
4.31205e-08
2.77134e-09
4.31167e-08
2.52501e-09
4.31152e-08
2.41882e-09
4.31355e-08
2.3803e-09
4.31518e-08
2.39257e-09
4.31568e-08
2.42477e-09
4.31461e-08
2.44373e-09
4.31313e-08
2.4557e-09
4.31198e-08
2.3974e-09
4.31114e-08
2.27721e-09
4.31173e-08
2.17914e-09
4.31234e-08
2.07754e-09
4.31206e-08
2.06761e-09
4.31053e-08
2.10822e-09
4.31031e-08
2.09984e-09
4.31065e-08
2.04928e-09
4.30999e-08
1.96714e-09
4.30909e-08
1.96015e-09
4.30876e-08
1.95794e-09
4.30805e-08
1.96517e-09
4.30739e-08
1.95225e-09
4.30668e-08
1.8788e-09
4.30638e-08
1.8294e-09
4.30595e-08
1.85623e-09
4.30537e-08
1.87924e-09
4.30507e-08
1.88519e-09
4.30457e-08
1.82419e-09
4.30382e-08
1.75158e-09
4.30409e-08
1.69288e-09
4.30367e-08
1.71499e-09
4.3036e-08
1.74631e-09
4.30246e-08
1.75707e-09
4.30189e-08
1.75238e-09
4.30172e-08
1.64054e-09
4.30136e-08
1.60137e-09
4.30147e-08
1.58454e-09
4.30099e-08
1.58069e-09
4.30109e-08
1.5896e-09
4.30096e-08
1.58189e-09
4.30068e-08
1.56846e-09
4.30051e-08
1.53038e-09
4.29955e-08
1.50498e-09
4.29894e-08
1.49433e-09
4.29808e-08
1.48208e-09
4.29738e-08
1.45267e-09
4.29699e-08
1.41736e-09
4.29672e-08
1.37478e-09
4.29636e-08
1.34628e-09
4.29581e-08
1.3444e-09
4.29525e-08
1.31297e-09
4.29451e-08
1.28468e-09
4.29389e-08
1.26493e-09
4.29305e-08
1.24236e-09
4.29206e-08
1.2006e-09
4.29071e-08
1.19842e-09
4.28982e-08
1.15315e-09
4.28849e-08
1.10584e-09
4.2875e-08
1.08973e-09
4.28588e-08
1.07699e-09
4.28437e-08
1.04953e-09
4.28205e-08
1.01299e-09
4.28052e-08
1.00521e-09
9.65669e-10
4.35819e-08
2.63242e-09
-4.34703e-08
4.36689e-08
2.74386e-09
4.37816e-08
2.96596e-09
4.38885e-08
3.27157e-09
4.39749e-08
2.91228e-09
4.40976e-08
3.13578e-09
4.41645e-08
3.23012e-09
4.42177e-08
2.74379e-09
4.42634e-08
2.78547e-09
4.43066e-08
2.93286e-09
4.43502e-08
3.00505e-09
4.43845e-08
2.94364e-09
4.4366e-08
2.78984e-09
4.43561e-08
2.5349e-09
4.43574e-08
2.41751e-09
4.4385e-08
2.35269e-09
4.43994e-08
2.37824e-09
4.44041e-08
2.42e-09
4.439e-08
2.45782e-09
4.43813e-08
2.4644e-09
4.43724e-08
2.40638e-09
4.43666e-08
2.28298e-09
4.4374e-08
2.17171e-09
4.43781e-08