/*--------------------------------*- C++ -*----------------------------------*\
| =========                 |                                                 |
| \\      /  F ield         | OpenFOAM: The Open Source CFD Toolbox           |
|  \\    /   O peration     | Version:  2.3.0                                 |
|   \\  /    A nd           | Web:      www.OpenFOAM.org                      |
|    \\/     M anipulation  |                                                 |
\*---------------------------------------------------------------------------*/
FoamFile
{
    version     2.0;
    format      ascii;
    class       surfaceScalarField;
    location    "0.75";
    object      phi_0;
}
// * * * * * * * * * * * * * * * * * * * * * * * * * * * * * * * * * * * * * //

dimensions      [0 3 -1 0 0 0 0];

internalField   nonuniform List<scalar> 
5764
(
2.00247e-08
5.01072e-09
-2.50354e-08
1.48947e-08
5.13001e-09
1.0926e-08
3.96868e-09
8.23238e-09
2.69361e-09
6.59123e-09
1.64115e-09
5.64088e-09
9.50348e-10
5.07083e-09
5.70057e-10
4.69108e-09
3.79747e-10
4.40202e-09
2.89058e-10
4.15949e-09
2.42534e-10
3.94713e-09
2.12351e-10
3.75923e-09
1.87902e-10
3.59273e-09
1.66504e-10
3.44474e-09
1.47991e-10
3.31239e-09
1.32346e-10
3.1931e-09
1.19289e-10
3.08477e-09
1.08333e-10
2.98572e-09
9.9049e-11
2.89467e-09
9.10481e-11
2.81058e-09
8.40896e-11
2.73263e-09
7.79559e-11
2.66009e-09
7.25351e-11
2.59241e-09
6.76859e-11
2.52905e-09
6.33609e-11
2.4696e-09
5.94441e-11
2.41367e-09
5.59294e-11
2.36096e-09
5.27092e-11
2.31116e-09
4.9805e-11
2.26404e-09
4.71184e-11
2.21936e-09
4.46835e-11
2.17694e-09
4.24162e-11
2.13659e-09
4.03528e-11
2.09817e-09
3.84174e-11
2.06151e-09
3.66563e-11
2.02653e-09
3.49846e-11
1.99306e-09
3.34708e-11
1.96104e-09
3.20139e-11
1.93034e-09
3.06995e-11
1.90092e-09
2.94252e-11
1.87265e-09
2.82725e-11
1.84549e-09
2.71562e-11
1.81935e-09
2.61378e-11
1.7942e-09
2.51531e-11
1.76995e-09
2.42497e-11
1.74658e-09
2.33721e-11
1.72402e-09
2.25622e-11
1.70223e-09
2.17808e-11
1.68119e-09
2.10478e-11
1.66083e-09
2.03555e-11
1.64114e-09
1.96865e-11
1.62207e-09
1.90755e-11
1.60362e-09
1.84493e-11
1.5857e-09
1.79153e-11
1.56839e-09
1.73138e-11
1.55153e-09
1.68579e-11
1.53525e-09
1.62829e-11
1.51935e-09
1.59029e-11
1.50401e-09
1.53365e-11
1.48898e-09
1.50347e-11
1.47452e-09
1.44517e-11
1.46027e-09
1.42526e-11
1.44664e-09
1.36362e-11
1.43309e-09
1.35472e-11
1.42018e-09
1.29044e-11
1.40725e-09
1.2934e-11
1.39504e-09
1.22084e-11
1.38261e-09
1.2428e-11
1.37101e-09
1.16081e-11
1.359e-09
1.2009e-11
1.34791e-09
1.10844e-11
1.33612e-09
1.17949e-11
1.32546e-09
1.066e-11
1.31369e-09
1.17639e-11
1.3033e-09
1.03969e-11
1.29323e-11
2.69246e-08
4.9053e-09
-2.68191e-08
2.55755e-08
6.4791e-09
2.35615e-08
5.98262e-09
2.14038e-08
4.85137e-09
1.9377e-08
3.66793e-09
1.76083e-08
2.71908e-09
1.61247e-08
2.05367e-09
1.49067e-08
1.59773e-09
1.39109e-08
1.28486e-09
1.30879e-08
1.06551e-09
1.2394e-08
9.06215e-10
1.17966e-08
7.85288e-10
1.12736e-08
6.89572e-10
1.08098e-08
6.11772e-10
1.03946e-08
5.47531e-10
1.00199e-08
4.93973e-10
9.67943e-09
4.48818e-10
9.36811e-09
4.10367e-10
9.08197e-09
3.77197e-10
8.81771e-09
3.48344e-10
8.57271e-09
3.22962e-10
8.3447e-09
3.00538e-10
8.13187e-09
2.80523e-10
7.93258e-09
2.62651e-10
7.74551e-09
2.46509e-10
7.56946e-09
2.31983e-10
7.40345e-09
2.1872e-10
7.24654e-09
2.06713e-10
7.09801e-09
1.95649e-10
6.95711e-09
1.8558e-10
6.82329e-09
1.76236e-10
6.69595e-09
1.67697e-10
6.57465e-09
1.59715e-10
6.45889e-09
1.52411e-10
6.34836e-09
1.45519e-10
6.24261e-09
1.39222e-10
6.14141e-09
1.33217e-10
6.04436e-09
1.27742e-10
5.95131e-09
1.2248e-10
5.8619e-09
1.17681e-10
5.77601e-09
1.1305e-10
5.69333e-09
1.08815e-10
5.61377e-09
1.04711e-10
5.53707e-09
1.00955e-10
5.46315e-09
9.72843e-11
5.39178e-09
9.39305e-11
5.32293e-09
9.06377e-11
5.25635e-09
8.76229e-11
5.19204e-09
8.46653e-11
5.12979e-09
8.19385e-11
5.06959e-09
7.92734e-11
5.01127e-09
7.67708e-11
4.95482e-09
7.43688e-11
4.90009e-09
7.20394e-11
4.84706e-09
6.98884e-11
4.79562e-09
6.77244e-11
4.74572e-09
6.57992e-11
4.6973e-09
6.37558e-11
4.6503e-09
6.20441e-11
4.60468e-09
6.00686e-11
4.56032e-09
5.86118e-11
4.51729e-09
5.66669e-11
4.47536e-09
5.54725e-11
4.43469e-09
5.35788e-11
4.39498e-09
5.2642e-11
4.35649e-09
5.07017e-11
4.31874e-09
5.0174e-11
4.28218e-09
4.81699e-11
4.24616e-09
4.80256e-11
4.21125e-09
4.59963e-11
4.17657e-09
4.64787e-11
4.14296e-09
4.42643e-11
4.10919e-09
4.55333e-11
4.07627e-09
4.33171e-11
4.75072e-11
2.83084e-08
4.27258e-09
-2.76756e-08
2.86204e-08
6.16701e-09
2.83094e-08
6.29363e-09
2.75913e-08
5.56952e-09
2.66293e-08
4.62988e-09
2.55494e-08
3.79902e-09
2.44391e-08
3.16399e-09
2.33509e-08
2.68588e-09
2.23191e-08
2.31665e-09
2.13604e-08
2.02426e-09
2.0478e-08
1.78859e-09
1.96684e-08
1.59487e-09
1.8926e-08
1.43206e-09
1.82445e-08
1.2932e-09
1.76183e-08
1.17373e-09
1.70417e-08
1.07059e-09
1.65094e-08
9.81154e-10
1.60164e-08
9.03294e-10
1.55586e-08
8.35002e-10
1.51322e-08
7.74823e-10
1.47338e-08
7.21356e-10
1.43606e-08
6.73707e-10
1.40102e-08
6.30887e-10
1.36805e-08
5.92387e-10
1.33696e-08
5.57438e-10
1.30758e-08
5.25799e-10
1.27977e-08
4.96812e-10
1.2534e-08
4.70427e-10
1.22835e-08
4.46057e-10
1.20454e-08
4.23773e-10
1.18185e-08
4.03053e-10
1.16022e-08
3.84037e-10
1.13957e-08
3.66239e-10
1.11982e-08
3.49879e-10
1.10093e-08
3.34439e-10
1.08282e-08
3.20263e-10
1.06547e-08
3.06757e-10
1.04881e-08
2.9438e-10
1.0328e-08
2.82494e-10
1.01741e-08
2.71612e-10
1.00261e-08
2.61099e-10
9.88341e-09
2.51475e-10
9.74601e-09
2.42111e-10
9.6134e-09
2.33561e-10
9.48554e-09
2.2515e-10
9.36195e-09
2.17512e-10
9.24267e-09
2.09923e-10
9.12722e-09
2.03067e-10
9.0157e-09
1.96193e-10
8.90762e-09
1.90013e-10
8.80314e-09
1.83751e-10
8.70179e-09
1.78125e-10
8.60376e-09
1.72396e-10
8.50857e-09
1.67233e-10
8.41647e-09
1.61987e-10
8.32693e-09
1.57265e-10
8.2403e-09
1.52433e-10
8.15598e-09
1.48078e-10
8.07441e-09
1.43609e-10
7.99493e-09
1.39547e-10
7.91807e-09
1.35474e-10
7.84308e-09
1.31659e-10
7.77059e-09
1.27965e-10
7.69972e-09
1.24445e-10
7.63128e-09
1.21086e-10
7.56423e-09
1.17751e-10
7.49948e-09
1.14926e-10
7.43586e-09
1.1179e-10
7.37445e-09
1.09428e-10
7.31382e-09
1.06631e-10
7.25525e-09
1.0505e-10
7.19705e-09
1.02459e-10
7.14069e-09
1.01899e-10
7.08411e-09
9.98976e-11
1.03569e-10
2.9128e-08
3.86311e-09
-2.87185e-08
2.97214e-08
5.57356e-09
3.00073e-08
6.00778e-09
3.00102e-08
5.56662e-09
2.97928e-08
4.84724e-09
2.94118e-08
4.18001e-09
2.8916e-08
3.65983e-09
2.8341e-08
3.26081e-09
2.7718e-08
2.93974e-09
2.70709e-08
2.67134e-09
2.64161e-08
2.44342e-09
2.57636e-08
2.24736e-09
2.51202e-08
2.07546e-09
2.4491e-08
1.92235e-09
2.38801e-08
1.78464e-09
2.32901e-08
1.66054e-09
2.27229e-08
1.54844e-09
2.2179e-08
1.4472e-09
2.16585e-08
1.35541e-09
2.11612e-08
1.27212e-09
2.06864e-08
1.19618e-09
2.02332e-08
1.12696e-09
1.98006e-08
1.06349e-09
1.93875e-08
1.00543e-09
1.89931e-08
9.51893e-10
1.86161e-08
9.02761e-10
1.82557e-08
8.57196e-10
1.79109e-08
8.15269e-10
1.75808e-08
7.76167e-10
1.72644e-08
7.40099e-10
1.69612e-08
7.06289e-10
1.66702e-08
6.75041e-10
1.63908e-08
6.45586e-10
1.61224e-08
6.18354e-10
1.58643e-08
5.92501e-10
1.56159e-08
5.68642e-10
1.53769e-08
5.45797e-10
1.51465e-08
5.24776e-10
1.49245e-08
5.04486e-10
1.47103e-08
4.85864e-10
1.45036e-08
4.67761e-10
1.43039e-08
4.51186e-10
1.41111e-08
4.34934e-10
1.39245e-08
4.20131e-10
1.37442e-08
4.05428e-10
1.35696e-08
3.92157e-10
1.34007e-08
3.78787e-10
1.32369e-08
3.66847e-10
1.30785e-08
3.54632e-10
1.29246e-08
3.43862e-10
1.27758e-08
3.32628e-10
1.2631e-08
3.22849e-10
1.2491e-08
3.12452e-10
1.23547e-08
3.03535e-10
1.22228e-08
2.93871e-10
1.20943e-08
2.85783e-10
1.197e-08
2.76722e-10
1.18487e-08
2.69362e-10
1.17315e-08
2.608e-10
1.1617e-08
2.54079e-10
1.15064e-08
2.46014e-10
1.13982e-08
2.39898e-10
1.12939e-08
2.32268e-10
1.11915e-08
2.26836e-10
1.1093e-08
2.19545e-10
1.09961e-08
2.14696e-10
1.09031e-08
2.07958e-10
1.08111e-08
2.03762e-10
1.07231e-08
1.97453e-10
1.06355e-08
1.94167e-10
1.05519e-08
1.8868e-10
1.04682e-08
1.86187e-10
1.03881e-08
1.81973e-10
1.03073e-08
1.80673e-10
1.81909e-10
3.00304e-08
3.62052e-09
-2.97878e-08
3.05687e-08
5.0352e-09
3.09675e-08
5.609e-09
3.11779e-08
5.35624e-09
3.12444e-08
4.7807e-09
3.12024e-08
4.22208e-09
3.1073e-08
3.78917e-09
3.08708e-08
3.46307e-09
3.06095e-08
3.20099e-09
3.03027e-08
2.97814e-09
2.99609e-08
2.78522e-09
2.95912e-08
2.61711e-09
2.91986e-08
2.46803e-09
2.87879e-08
2.3331e-09
2.83636e-08
2.20894e-09
2.79301e-08
2.09401e-09
2.74914e-08
1.98716e-09
2.70507e-08
1.88785e-09
2.6611e-08
1.79513e-09
2.61745e-08
1.70866e-09
2.57431e-08
1.62757e-09
2.53183e-08
1.55176e-09
2.49013e-08
1.48046e-09
2.4493e-08
1.41374e-09
2.40941e-08
1.35081e-09
2.37049e-08
1.29193e-09
2.33259e-08
1.23622e-09
2.2957e-08
1.18413e-09
2.25985e-08
1.13469e-09
2.22501e-08
1.08849e-09
2.19119e-08
1.04451e-09
2.15835e-08
1.00344e-09
2.12649e-08
9.64186e-10
2.09557e-08
9.27588e-10
2.06558e-08
8.92408e-10
2.03647e-08
8.5973e-10
2.00824e-08
8.28078e-10
1.98083e-08
7.98823e-10
1.95426e-08
7.70262e-10
1.92844e-08
7.43994e-10
1.90341e-08
7.18141e-10
1.87908e-08
6.94487e-10
1.85547e-08
6.70975e-10
1.83252e-08
6.49643e-10
1.81025e-08
6.28117e-10
1.78858e-08
6.08844e-10
1.76756e-08
5.89046e-10
1.74708e-08
5.71602e-10
1.72721e-08
5.53303e-10
1.70785e-08
5.37501e-10
1.68907e-08
5.20478e-10
1.67074e-08
5.06107e-10
1.65297e-08
4.90158e-10
1.63561e-08
4.77075e-10
1.6188e-08
4.6204e-10
1.60235e-08
4.50217e-10
1.58644e-08
4.3591e-10
1.57085e-08
4.25231e-10
1.55578e-08
4.11488e-10
1.541e-08
4.0187e-10
1.52674e-08
3.88639e-10
1.51272e-08
3.80069e-10
1.49922e-08
3.67248e-10
1.48592e-08
3.59841e-10
1.47315e-08
3.47267e-10
1.46052e-08
3.40952e-10
1.44844e-08
3.28847e-10
1.43644e-08
3.23747e-10
1.42499e-08
3.11952e-10
1.41356e-08
3.08423e-10
1.40268e-08
2.9745e-10
1.39177e-08
2.95328e-10
1.38137e-08
2.85965e-10
1.37088e-08
2.85573e-10
2.82616e-10
3.10012e-08
3.46155e-09
-3.08422e-08
3.14454e-08
4.59102e-09
3.18425e-08
5.21194e-09
3.20898e-08
5.10888e-09
3.22242e-08
4.64632e-09
3.22884e-08
4.1579e-09
3.23007e-08
3.77682e-09
3.2268e-08
3.49578e-09
3.21955e-08
3.27351e-09
3.20894e-08
3.08422e-09
3.19553e-08
2.91931e-09
3.17963e-08
2.7761e-09
3.16138e-08
2.65052e-09
3.14089e-08
2.53806e-09
3.1183e-08
2.4348e-09
3.09382e-08
2.33886e-09
3.06765e-08
2.24878e-09
3.04002e-08
2.16414e-09
3.01114e-08
2.08392e-09
2.98121e-08
2.00799e-09
2.95042e-08
1.93544e-09
2.91896e-08
1.86644e-09
2.88699e-08
1.80017e-09
2.85465e-08
1.73706e-09
2.82211e-08
1.67622e-09
2.78947e-08
1.61833e-09
2.75686e-08
1.56234e-09
2.72436e-08
1.50915e-09
2.69207e-08
1.4576e-09
2.66004e-08
1.40876e-09
2.62836e-08
1.36133e-09
2.59705e-08
1.31652e-09
2.56618e-08
1.27288e-09
2.53576e-08
1.23182e-09
2.50584e-08
1.19159e-09
2.47641e-08
1.15399e-09
2.44753e-08
1.11686e-09
2.41917e-08
1.08244e-09
2.39138e-08
1.04818e-09
2.36411e-08
1.01667e-09
2.33743e-08
9.85023e-10
2.31126e-08
9.56169e-10
2.28567e-08
9.26833e-10
2.26059e-08
9.00423e-10
2.2361e-08
8.73091e-10
2.21209e-08
8.48942e-10
2.18865e-08
8.23396e-10
2.16568e-08
8.01324e-10
2.14328e-08
7.7734e-10
2.12131e-08
7.57182e-10
2.0999e-08
7.34526e-10
2.0789e-08
7.16095e-10
2.05847e-08
6.94546e-10
2.0384e-08
6.77734e-10
2.01889e-08
6.57101e-10
1.99972e-08
6.4191e-10
1.98112e-08
6.21972e-10
1.96281e-08
6.08293e-10
1.94508e-08
5.8884e-10
1.9276e-08
5.76631e-10
1.91071e-08
5.57568e-10
1.89403e-08
5.46845e-10
1.87795e-08
5.2805e-10
1.86204e-08
5.18968e-10
1.84674e-08
5.00216e-10
1.83156e-08
4.92749e-10
1.81702e-08
4.74291e-10
1.80253e-08
4.6859e-10
1.7887e-08
4.50265e-10
1.77487e-08
4.46767e-10
1.76169e-08
4.29255e-10
1.74845e-08
4.27698e-10
1.73583e-08
4.12172e-10
1.7231e-08
4.12837e-10
4.04301e-10
3.20117e-08
3.34037e-09
-3.18906e-08
3.2368e-08
4.23476e-09
3.27401e-08
4.83988e-09
3.29922e-08
4.85669e-09
3.31376e-08
4.50094e-09
3.32237e-08
4.07183e-09
3.32752e-08
3.72531e-09
3.32992e-08
3.4718e-09
3.32983e-08
3.27435e-09
3.32766e-08
3.10597e-09
3.32382e-08
2.9577e-09
3.31855e-08
2.82879e-09
3.31189e-08
2.71715e-09
3.30377e-08
2.61926e-09
3.29416e-08
2.53093e-09
3.28304e-08
2.45e-09
3.27047e-08
2.37451e-09
3.25647e-08
2.30409e-09
3.24113e-08
2.23741e-09
3.22448e-08
2.17445e-09
3.20663e-08
2.11398e-09
3.18763e-08
2.05636e-09
3.16761e-08
2.00042e-09
3.14663e-08
1.94687e-09
3.1248e-08
1.89447e-09
3.10221e-08
1.84426e-09
3.07896e-08
1.7948e-09
3.05513e-08
1.74745e-09
3.03084e-08
1.70057e-09
3.00613e-08
1.65585e-09
2.98112e-08
1.61144e-09
2.95584e-08
1.56927e-09
2.93041e-08
1.52721e-09
2.90484e-08
1.48752e-09
2.87923e-08
1.44764e-09
2.8536e-08
1.41033e-09
2.82804e-08
1.37248e-09
2.80253e-08
1.33748e-09
2.77719e-08
1.30162e-09
2.75197e-08
1.2689e-09
2.72697e-08
1.23497e-09
2.70215e-08
1.2044e-09
2.67761e-08
1.17222e-09
2.65328e-08
1.14373e-09
2.62928e-08
1.11305e-09
2.60552e-08
1.08659e-09
2.58213e-08
1.05732e-09
2.55897e-08
1.03284e-09
2.53623e-08
1.00482e-09
2.51372e-08
9.82224e-10
2.49165e-08
9.55225e-10
2.46982e-08
9.34376e-10
2.44846e-08
9.08207e-10
2.42732e-08
8.89105e-10
2.40667e-08
8.63604e-10
2.38623e-08
8.46305e-10
2.3663e-08
8.21231e-10
2.34657e-08
8.0565e-10
2.32738e-08
7.8077e-10
2.30834e-08
7.6695e-10
2.28988e-08
7.42168e-10
2.27155e-08
7.30155e-10
2.25382e-08
7.05361e-10
2.23618e-08
6.95355e-10
2.21918e-08
6.7027e-10
2.20222e-08
6.62299e-10
2.18593e-08
6.37257e-10
2.16964e-08
6.31473e-10
2.15403e-08
6.06346e-10
2.13838e-08
6.03255e-10
2.12341e-08
5.78918e-10
2.10837e-08
5.78149e-10
2.09397e-08
5.56138e-10
2.07945e-08
5.58031e-10
5.43247e-10
3.30509e-08
3.2324e-09
-3.29429e-08
3.33344e-08
3.95123e-09
3.36713e-08
4.50302e-09
3.39221e-08
4.60589e-09
3.40715e-08
4.35152e-09
3.41606e-08
3.9827e-09
3.42204e-08
3.66559e-09
3.42602e-08
3.43195e-09
3.42822e-08
3.25234e-09
3.42891e-08
3.09908e-09
3.42851e-08
2.96174e-09
3.42731e-08
2.84072e-09
3.42545e-08
2.73583e-09
3.42286e-08
2.64513e-09
3.41949e-08
2.56457e-09
3.41529e-08
2.49203e-09
3.41023e-08
2.42511e-09
3.40428e-08
2.36361e-09
3.39743e-08
2.30588e-09
3.38966e-08
2.25219e-09
3.38097e-08
2.2009e-09
3.37134e-08
2.15264e-09
3.3608e-08
2.10578e-09
3.34935e-08
2.06137e-09
3.33704e-08
2.01765e-09
3.32385e-08
1.97609e-09
3.30987e-08
1.93464e-09
3.29509e-08
1.89523e-09
3.2796e-08
1.85547e-09
3.26341e-08
1.8178e-09
3.2466e-08
1.77951e-09
3.22918e-08
1.74344e-09
3.21125e-08
1.70651e-09
3.1928e-08
1.67201e-09
3.17394e-08
1.63624e-09
3.15466e-08
1.6032e-09
3.13507e-08
1.5684e-09
3.11514e-08
1.53678e-09
3.095e-08
1.50298e-09
3.0746e-08
1.47287e-09
3.05408e-08
1.44016e-09
3.03337e-08
1.41154e-09
3.01261e-08
1.37978e-09
2.99172e-08
1.35264e-09
2.97087e-08
1.32159e-09
2.94993e-08
1.29598e-09
2.9291e-08
1.26563e-09
2.90822e-08
1.24165e-09
2.8875e-08
1.21199e-09
2.86676e-08
1.18962e-09
2.84625e-08
1.16038e-09
2.82573e-08
1.13952e-09
2.8055e-08
1.11052e-09
2.78528e-08
1.09129e-09
2.76539e-08
1.0625e-09
2.74552e-08
1.04507e-09
2.72602e-08
1.01621e-09
2.70654e-08
1.00048e-09
2.68748e-08
9.713e-10
2.66844e-08
9.57415e-10
2.64986e-08
9.27899e-10
2.63128e-08
9.15953e-10
2.61322e-08
8.86021e-10
2.59513e-08
8.76246e-10
2.5776e-08
8.45567e-10
2.56003e-08
8.38036e-10
2.54304e-08
8.07108e-10
2.52599e-08
8.01954e-10
2.50956e-08
7.70697e-10
2.49303e-08
7.68512e-10
2.47712e-08
7.37996e-10
2.46111e-08
7.38284e-10
2.44569e-08
7.10368e-10
2.43013e-08
7.13643e-10
6.92941e-10
3.41129e-08
3.12768e-09
-3.40082e-08
3.43425e-08
3.7217e-09
3.46392e-08
4.20626e-09
3.48831e-08
4.36203e-09
3.50369e-08
4.19773e-09
3.51277e-08
3.89194e-09
3.51889e-08
3.60431e-09
3.52336e-08
3.38732e-09
3.52637e-08
3.22227e-09
3.52805e-08
3.08221e-09
3.52878e-08
2.95447e-09
3.5289e-08
2.83947e-09
3.52864e-08
2.73845e-09
3.52802e-08
2.65132e-09
3.52704e-08
2.57445e-09
3.52563e-08
2.50605e-09
3.52382e-08
2.44329e-09
3.52155e-08
2.38629e-09
3.51883e-08
2.33307e-09
3.51561e-08
2.28439e-09
3.51188e-08
2.23815e-09
3.5076e-08
2.19547e-09
3.50276e-08
2.15414e-09
3.49732e-08
2.11578e-09
3.49129e-08
2.07793e-09
3.48463e-08
2.04277e-09
3.47735e-08
2.00737e-09
3.46942e-08
1.97452e-09
3.46089e-08
1.94079e-09
3.45171e-08
1.9096e-09
3.44195e-08
1.87713e-09
3.43156e-08
1.84735e-09
3.42062e-08
1.81592e-09
3.40907e-08
1.78747e-09
3.39702e-08
1.75679e-09
3.38439e-08
1.72945e-09
3.37131e-08
1.69917e-09
3.35771e-08
1.67278e-09
3.34373e-08
1.64283e-09
3.32927e-08
1.61747e-09
3.31449e-08
1.58798e-09
3.29927e-08
1.56369e-09
3.28379e-08
1.53455e-09
3.26793e-08
1.51128e-09
3.25188e-08
1.4821e-09
3.23549e-08
1.45988e-09
3.21898e-08
1.43067e-09
3.20218e-08
1.4097e-09
3.18532e-08
1.38058e-09
3.16819e-08
1.36096e-09
3.15106e-08
1.33162e-09
3.1337e-08
1.31314e-09
3.11642e-08
1.28331e-09
3.09893e-08
1.26616e-09
3.08159e-08
1.23598e-09
3.06404e-08
1.22055e-09
3.04668e-08
1.18975e-09
3.02915e-08
1.17581e-09
3.01188e-08
1.14404e-09
2.99444e-08
1.1318e-09
2.97731e-08
1.09919e-09
2.96002e-08
1.08884e-09
2.94308e-08
1.05538e-09
2.92599e-08
1.04715e-09
2.90931e-08
1.01242e-09
2.89247e-08
1.00637e-09
2.87607e-08
9.71127e-10
2.85953e-08
9.67363e-10
2.84345e-08
9.31553e-10
2.82722e-08
9.30814e-10
2.81145e-08
8.957e-10
2.79555e-08
8.97266e-10
2.78009e-08
8.64967e-10
2.76448e-08
8.69699e-10
8.4446e-10
3.51961e-08
3.02464e-09
-3.50931e-08
3.53883e-08
3.52956e-09
3.56456e-08
3.94896e-09
3.58768e-08
4.13076e-09
3.60338e-08
4.04078e-09
3.61277e-08
3.79799e-09
3.61899e-08
3.54217e-09
3.62365e-08
3.34074e-09
3.62707e-08
3.18807e-09
3.62927e-08
3.06021e-09
3.63049e-08
2.94219e-09
3.63109e-08
2.83351e-09
3.63134e-08
2.73596e-09
3.63134e-08
2.65136e-09
3.63112e-08
2.57663e-09
3.63066e-08
2.51062e-09
3.62999e-08
2.44998e-09
3.62909e-08
2.39526e-09
3.62799e-08
2.34407e-09
3.62666e-08
2.29778e-09
3.62509e-08
2.25377e-09
3.62326e-08
2.21385e-09
3.62116e-08
2.1751e-09
3.61874e-08
2.13995e-09
3.61603e-08
2.10508e-09
3.61294e-08
2.0736e-09
3.60953e-08
2.04155e-09
3.6057e-08
2.01281e-09
3.6015e-08
1.98275e-09
3.59686e-08
1.956e-09
3.59183e-08
1.92739e-09
3.58634e-08
1.90229e-09
3.58045e-08
1.87483e-09
3.57407e-08
1.8513e-09
3.56728e-08
1.82463e-09
3.55999e-08
1.80236e-09
3.55231e-08
1.77602e-09
3.54411e-08
1.75469e-09
3.53556e-08
1.72841e-09
3.5265e-08
1.70803e-09
3.5171e-08
1.68197e-09
3.50721e-08
1.66257e-09
3.49701e-08
1.63663e-09
3.48632e-08
1.61816e-09
3.47536e-08
1.59173e-09
3.46394e-08
1.57406e-09
3.4523e-08
1.54705e-09
3.44023e-08
1.53038e-09
3.42798e-08
1.50306e-09
3.41531e-08
1.48768e-09
3.4025e-08
1.45971e-09
3.3893e-08
1.44519e-09
3.37602e-08
1.41611e-09
3.36238e-08
1.40253e-09
3.34872e-08
1.37255e-09
3.33471e-08
1.3607e-09
3.32071e-08
1.32972e-09
3.30638e-08
1.31907e-09
3.29214e-08
1.28653e-09
3.27759e-08
1.27726e-09
3.26317e-08
1.24338e-09
3.24847e-08
1.23586e-09
3.23392e-08
1.20083e-09
3.21912e-08
1.19524e-09
3.20451e-08
1.15846e-09
3.18968e-08
1.15469e-09
3.17507e-08
1.11726e-09
3.16026e-08
1.11543e-09
3.14569e-08
1.07722e-09
3.13094e-08
1.07835e-09
3.11642e-08
1.04092e-09
3.10176e-08
1.0438e-09
3.08733e-08
1.00932e-09
3.07275e-08
1.01545e-09
9.87844e-10
3.63016e-08
2.92475e-09
-3.62018e-08
3.64681e-08
3.36313e-09
3.66903e-08
3.72672e-09
3.69049e-08
3.9162e-09
3.70623e-08
3.88339e-09
3.71603e-08
3.69992e-09
3.7224e-08
3.47855e-09
3.72716e-08
3.29309e-09
3.73085e-08
3.15121e-09
3.73343e-08
3.03441e-09
3.73502e-08
2.92625e-09
3.73591e-08
2.82468e-09
3.73639e-08
2.73115e-09
3.73661e-08
2.64913e-09
3.73665e-08
2.57622e-09
3.7365e-08
2.51211e-09
3.7362e-08
2.45296e-09
3.73575e-08
2.39981e-09
3.73519e-08
2.34966e-09
3.7345e-08
2.30467e-09
3.73372e-08
2.26155e-09
3.73281e-08
2.22299e-09
3.7318e-08
2.18522e-09
3.73063e-08
2.15161e-09
3.72935e-08
2.11788e-09
3.72789e-08
2.08824e-09
3.72629e-08
2.05756e-09
3.72447e-08
2.031e-09
3.72249e-08
2.00258e-09
3.72025e-08
1.97833e-09
3.71783e-08
1.9516e-09
3.71513e-08
1.92934e-09
3.71222e-08
1.90394e-09
3.70899e-08
1.88361e-09
3.70553e-08
1.85924e-09
3.70171e-08
1.84052e-09
3.69765e-08
1.81663e-09
3.6932e-08
1.79912e-09
3.68852e-08
1.7753e-09
3.68343e-08
1.7589e-09
3.67809e-08
1.73533e-09
3.67234e-08
1.72005e-09
3.66634e-08
1.69666e-09
3.6599e-08
1.68255e-09
3.65322e-08
1.65854e-09
3.6461e-08
1.64526e-09
3.63877e-08
1.6204e-09
3.631e-08
1.60802e-09
3.62304e-08
1.58267e-09
3.61464e-08
1.57173e-09
3.60604e-08
1.54566e-09
3.59701e-08
1.5355e-09
3.58782e-08
1.50797e-09
3.57824e-08
1.49841e-09
3.56854e-08
1.46949e-09
3.55844e-08
1.46178e-09
3.54822e-08
1.43185e-09
3.53762e-08
1.42511e-09
3.52695e-08
1.39325e-09
3.51592e-08
1.38751e-09
3.50487e-08
1.35391e-09
3.49348e-08
1.3497e-09
3.48208e-08
1.31491e-09
3.47035e-08
1.31245e-09
3.45864e-08
1.27563e-09
3.44667e-08
1.27437e-09
3.43469e-08
1.23702e-09
3.42251e-08
1.23726e-09
3.41035e-08
1.19882e-09
3.398e-08
1.20189e-09
3.38562e-08
1.16473e-09
3.37313e-08
1.16868e-09
3.36062e-08
1.13436e-09
3.348e-08
1.14169e-09
1.11416e-09
3.74318e-08
2.82971e-09
-3.73367e-08
3.75796e-08
3.21533e-09
3.77726e-08
3.53369e-09
3.79685e-08
3.72027e-09
3.81232e-08
3.72875e-09
3.82251e-08
3.59799e-09
3.8291e-08
3.41263e-09
3.83395e-08
3.24454e-09
3.83782e-08
3.11257e-09
3.8407e-08
3.00557e-09
3.84263e-08
2.90698e-09
3.84378e-08
2.8132e-09
3.84445e-08
2.72444e-09
3.84481e-08
2.64547e-09
3.84499e-08
2.57445e-09
3.84498e-08
2.51223e-09
3.84483e-08
2.45449e-09
3.84453e-08
2.4028e-09
3.84415e-08
2.35347e-09
3.84366e-08
2.3095e-09
3.84314e-08
2.26683e-09
3.84252e-08
2.22912e-09
3.84188e-08
2.19167e-09
3.84115e-08
2.1589e-09
3.84039e-08
2.12545e-09
3.83954e-08
2.09676e-09
3.83866e-08
2.06638e-09
3.83766e-08
2.04092e-09
3.83663e-08
2.01294e-09
3.83546e-08
1.98996e-09
3.83424e-08
1.96382e-09
3.83287e-08
1.94307e-09
3.83143e-08
1.91835e-09
3.82981e-08
1.89984e-09
3.8281e-08
1.87631e-09
3.82618e-08
1.85973e-09
3.82415e-08
1.83688e-09
3.82188e-08
1.82183e-09
3.8195e-08
1.79912e-09
3.81685e-08
1.78538e-09
3.81407e-08
1.76312e-09
3.81101e-08
1.75066e-09
3.8078e-08
1.72875e-09
3.80427e-08
1.71785e-09
3.80059e-08
1.69537e-09
3.79656e-08
1.68552e-09
3.79239e-08
1.66215e-09
3.78787e-08
1.65318e-09
3.78321e-08
1.6293e-09
3.77818e-08
1.622e-09
3.77298e-08
1.59763e-09
3.76741e-08
1.59122e-09
3.76167e-08
1.5654e-09
3.75557e-08
1.55936e-09
3.74936e-08
1.53165e-09
3.74277e-08
1.52764e-09
3.73602e-08
1.49935e-09
3.72892e-08
1.49614e-09
3.72165e-08
1.46589e-09
3.71407e-08
1.46335e-09
3.70635e-08
1.43108e-09
3.69834e-08
1.42981e-09
3.69018e-08
1.39656e-09
3.68172e-08
1.39702e-09
3.67311e-08
1.36177e-09
3.66429e-08
1.36256e-09
3.65527e-08
1.32716e-09
3.64608e-08
1.3292e-09
3.63674e-08
1.29221e-09
3.62725e-08
1.29684e-09
3.61749e-08
1.26227e-09
3.60767e-08
1.26689e-09
3.59765e-08
1.23459e-09
3.58754e-08
1.24279e-09
1.21745e-09
3.85888e-08
2.74038e-09
-3.84995e-08
3.87219e-08
3.08221e-09
3.88913e-08
3.3643e-09
3.90686e-08
3.54297e-09
3.92176e-08
3.57977e-09
3.93222e-08
3.49345e-09
3.93909e-08
3.34384e-09
3.94406e-08
3.1949e-09
3.94804e-08
3.07275e-09
3.95116e-08
2.97441e-09
3.95338e-08
2.88475e-09
3.95479e-08
2.79907e-09
3.95566e-08
2.71578e-09
3.95617e-08
2.64041e-09
3.95646e-08
2.57154e-09
3.95655e-08
2.51132e-09
3.95649e-08
2.45505e-09
3.95628e-08
2.40491e-09
3.95598e-08
2.35646e-09
3.95558e-08
2.31351e-09
3.95514e-08
2.27122e-09
3.95463e-08
2.23426e-09
3.9541e-08
2.19696e-09
3.95351e-08
2.16482e-09
3.95292e-08
2.13135e-09
3.95227e-08
2.10326e-09
3.95163e-08
2.07279e-09
3.95092e-08
2.04792e-09
3.95023e-08
2.01989e-09
3.94947e-08
1.99755e-09
3.94872e-08
1.97137e-09
3.94788e-08
1.95142e-09
3.94706e-08
1.92662e-09
3.94613e-08
1.90909e-09
3.94521e-08
1.88557e-09
3.94417e-08
1.87014e-09
3.94311e-08
1.84742e-09
3.94192e-08
1.83379e-09
3.9407e-08
1.81128e-09
3.93933e-08
1.79908e-09
3.93792e-08
1.77723e-09
3.93635e-08
1.7664e-09
3.93471e-08
1.74506e-09
3.93288e-08
1.73617e-09
3.93099e-08
1.71434e-09
3.92886e-08
1.70675e-09
3.92666e-08
1.68417e-09
3.92424e-08
1.67743e-09
3.92173e-08
1.65438e-09
3.91898e-08
1.64951e-09
3.9161e-08
1.62637e-09
3.91298e-08
1.62249e-09
3.9097e-08
1.59817e-09
3.90617e-08
1.59468e-09
3.90254e-08
1.56796e-09
3.89865e-08
1.56652e-09
3.89458e-08
1.54003e-09
3.89027e-08
1.53926e-09
3.88576e-08
1.51101e-09
3.88101e-08
1.51079e-09
3.87609e-08
1.48033e-09
3.87096e-08
1.48104e-09
3.86562e-08
1.44998e-09
3.86007e-08
1.45256e-09
3.85425e-08
1.41995e-09
3.84833e-08
1.4218e-09
3.84209e-08
1.38952e-09
3.83572e-08
1.39288e-09
3.82911e-08
1.3583e-09
3.82244e-08
1.36363e-09
3.81533e-08
1.33332e-09
3.8082e-08
1.3382e-09
3.80077e-08
1.30893e-09
3.79329e-08
1.31757e-09
1.29579e-09
3.97749e-08
2.65689e-09
-3.96914e-08
3.98956e-08
2.96152e-09
4.00459e-08
3.21404e-09
4.02058e-08
3.38308e-09
4.03471e-08
3.43848e-09
4.04524e-08
3.38812e-09
4.05241e-08
3.27214e-09
4.05752e-08
3.14378e-09
4.06159e-08
3.03206e-09
4.06487e-08
2.94159e-09
4.06735e-08
2.86e-09
4.06902e-08
2.78237e-09
4.07009e-08
2.70508e-09
4.07074e-08
2.63389e-09
4.07114e-08
2.56751e-09
4.07133e-08
2.50941e-09
4.07137e-08
2.45471e-09
4.07124e-08
2.40624e-09
4.071e-08
2.35877e-09
4.07066e-08
2.31696e-09
4.07027e-08
2.27511e-09
4.0698e-08
2.23892e-09
4.06932e-08
2.20178e-09
4.06878e-08
2.17022e-09
4.06825e-08
2.1367e-09
4.06766e-08
2.1091e-09
4.0671e-08
2.07845e-09
4.06649e-08
2.05398e-09
4.0659e-08
2.02576e-09
4.06528e-08
2.00378e-09
4.06468e-08
1.97736e-09
4.06404e-08
1.95786e-09
4.06343e-08
1.9327e-09
4.06277e-08
1.91571e-09
4.06214e-08
1.89186e-09
4.06145e-08
1.87701e-09
4.06079e-08
1.85401e-09
4.06006e-08
1.84113e-09
4.05934e-08
1.81841e-09
4.05856e-08
1.80695e-09
4.05777e-08
1.78512e-09
4.05691e-08
1.77501e-09
4.05604e-08
1.75372e-09
4.05507e-08
1.74591e-09
4.05408e-08
1.72418e-09
4.05298e-08
1.71781e-09
4.05184e-08
1.69558e-09
4.05058e-08
1.69e-09
4.04928e-08
1.66735e-09
4.04786e-08
1.66371e-09
4.04636e-08
1.64141e-09
4.04473e-08
1.63877e-09
4.04298e-08
1.61567e-09
4.04108e-08
1.6137e-09
4.03911e-08
1.58767e-09
4.03701e-08
1.58751e-09
4.03473e-08
1.56277e-09
4.03235e-08
1.56313e-09
4.02976e-08
1.53688e-09
4.02705e-08
1.53791e-09
4.02414e-08
1.50939e-09
4.02116e-08
1.51093e-09
4.01794e-08
1.48218e-09
4.01461e-08
1.48582e-09
4.01097e-08
1.45637e-09
4.00734e-08
1.45812e-09
4.00336e-08
1.42929e-09
3.99929e-08
1.43353e-09
3.99496e-08
1.40167e-09
3.99066e-08
1.40659e-09
3.98586e-08
1.38129e-09
3.98106e-08
1.38624e-09
3.97593e-08
1.36016e-09
3.97081e-08
1.3688e-09
1.35104e-09
4.09917e-08
2.57891e-09
-4.09137e-08
4.11015e-08
2.8517e-09
4.1236e-08
3.07951e-09
4.13803e-08
3.2388e-09
4.15128e-08
3.30604e-09
4.1617e-08
3.28386e-09
4.16911e-08
3.19804e-09
4.1744e-08
3.09091e-09
4.17855e-08
2.99054e-09
4.18195e-08
2.90762e-09
4.18462e-08
2.83328e-09
4.18653e-08
2.76332e-09
4.1878e-08
2.69232e-09
4.18861e-08
2.6258e-09
4.18913e-08
2.56232e-09
4.18942e-08
2.5065e-09
4.18954e-08
2.4535e-09
4.18949e-08
2.40676e-09
4.18932e-08
2.36042e-09
4.18904e-08
2.31983e-09
4.18869e-08
2.27855e-09
4.18827e-08
2.24317e-09
4.18782e-08
2.20628e-09
4.18731e-08
2.17528e-09
4.1868e-08
2.14179e-09
4.18625e-08
2.11463e-09
4.18571e-08
2.08387e-09
4.18514e-08
2.05967e-09
4.18458e-08
2.03132e-09
4.18401e-08
2.00953e-09
4.18346e-08
1.98288e-09
4.18287e-08
1.96367e-09
4.18233e-08
1.93813e-09
4.18176e-08
1.92143e-09
4.18123e-08
1.8972e-09
4.18067e-08
1.8826e-09
4.18014e-08
1.85924e-09
4.17958e-08
1.84672e-09
4.17906e-08
1.82369e-09
4.1785e-08
1.81247e-09
4.17796e-08
1.79059e-09
4.1774e-08
1.78062e-09
4.17685e-08
1.75921e-09
4.17625e-08
1.75185e-09
4.17567e-08
1.72998e-09
4.17504e-08
1.7241e-09
4.17439e-08
1.70206e-09
4.17371e-08
1.69685e-09
4.173e-08
1.67443e-09
4.17226e-08
1.67111e-09
4.17146e-08
1.64946e-09
4.17063e-08
1.64702e-09
4.16971e-08
1.62488e-09
4.16872e-08
1.6236e-09
4.16768e-08
1.59812e-09
4.16662e-08
1.59811e-09
4.16539e-08
1.57503e-09
4.16416e-08
1.57538e-09
4.16276e-08
1.55093e-09
4.16132e-08
1.55228e-09
4.1597e-08
1.52563e-09
4.15809e-08
1.52702e-09
4.15627e-08
1.50038e-09
4.15444e-08
1.5041e-09
4.15229e-08
1.4779e-09
4.15024e-08
1.47862e-09
4.14788e-08
1.4529e-09
4.14546e-08
1.45773e-09
4.14278e-08
1.4285e-09
4.14024e-08
1.43199e-09
4.13721e-08
1.41155e-09
4.13417e-08
1.41665e-09
4.13085e-08
1.39331e-09
4.12758e-08
1.40155e-09
1.38755e-09
4.22406e-08
2.50601e-09
-4.21677e-08
4.23407e-08
2.75151e-09
4.2462e-08
2.95825e-09
4.25925e-08
3.10827e-09
4.27158e-08
3.18278e-09
4.28174e-08
3.18224e-09
4.2893e-08
3.12248e-09
4.29477e-08
3.03621e-09
4.29901e-08
2.94814e-09
4.30249e-08
2.87283e-09
4.30531e-08
2.8051e-09
4.30741e-08
2.74223e-09
4.30889e-08
2.67759e-09
4.30986e-08
2.61611e-09
4.31049e-08
2.55595e-09
4.31088e-08
2.5026e-09
4.31109e-08
2.45141e-09
4.31112e-08
2.40647e-09
4.31102e-08
2.36138e-09
4.3108e-08
2.3221e-09
4.3105e-08
2.28152e-09
4.31012e-08
2.24698e-09
4.3097e-08
2.21046e-09
4.30923e-08
2.18002e-09
4.30874e-08
2.14665e-09
4.30821e-08
2.1199e-09
4.30769e-08
2.08913e-09
4.30714e-08
2.06512e-09
4.3066e-08
2.03675e-09
4.30605e-08
2.01505e-09
4.30551e-08
1.98825e-09
4.30496e-08
1.96923e-09
4.30443e-08
1.94337e-09
4.30389e-08
1.92682e-09
4.30338e-08
1.9023e-09
4.30287e-08
1.88775e-09
4.30238e-08
1.86408e-09
4.30189e-08
1.85166e-09
4.30142e-08
1.82843e-09
4.30095e-08
1.8171e-09
4.30048e-08
1.79528e-09
4.30004e-08
1.7851e-09
4.2996e-08
1.76359e-09
4.29916e-08
1.75628e-09
4.29873e-08
1.73427e-09
4.2983e-08
1.72837e-09
4.29785e-08
1.70655e-09
4.29741e-08
1.70121e-09
4.29695e-08
1.67905e-09
4.29652e-08
1.67544e-09
4.29602e-08
1.65441e-09
4.29558e-08
1.65147e-09
4.29506e-08
1.63012e-09
4.29452e-08
1.62899e-09
4.29392e-08
1.60403e-09
4.29339e-08
1.60342e-09
4.29271e-08
1.5819e-09
4.2921e-08
1.58149e-09
4.29133e-08
1.55854e-09
4.2906e-08
1.5596e-09
4.2897e-08
1.53465e-09
4.28887e-08
1.53529e-09
4.28787e-08
1.51042e-09
4.28693e-08
1.5135e-09
4.28568e-08
1.49037e-09
4.28459e-08
1.48954e-09
4.28326e-08
1.4662e-09
4.28188e-08
1.47148e-09
4.28027e-08
1.44465e-09
4.27886e-08
1.44605e-09
4.27705e-08
1.42971e-09
4.2752e-08
1.43517e-09
4.27314e-08
1.41391e-09
4.27114e-08
1.42152e-09
1.41059e-09
4.35228e-08
2.43776e-09
-4.34546e-08
4.36145e-08
2.65985e-09
4.37243e-08
2.84839e-09
4.38428e-08
2.9898e-09
4.3957e-08
3.06856e-09
4.40549e-08
3.08439e-09
4.41308e-08
3.04654e-09
4.41871e-08
2.9799e-09
4.42305e-08
2.90476e-09
4.42659e-08
2.83741e-09
4.42952e-08
2.77588e-09
4.43179e-08
2.7195e-09
4.43344e-08
2.66105e-09
4.43457e-08
2.60481e-09
4.43533e-08
2.54837e-09
4.43582e-08
2.49771e-09
4.43611e-08
2.44849e-09
4.43622e-08
2.40538e-09
4.43619e-08
2.36165e-09
4.43603e-08
2.32374e-09
4.43578e-08
2.284e-09
4.43545e-08
2.25034e-09
4.43506e-08
2.2143e-09
4.43462e-08
2.18442e-09