/*--------------------------------*- C++ -*----------------------------------*\
| =========                 |                                                 |
| \\      /  F ield         | OpenFOAM: The Open Source CFD Toolbox           |
|  \\    /   O peration     | Version:  2.3.0                                 |
|   \\  /    A nd           | Web:      www.OpenFOAM.org                      |
|    \\/     M anipulation  |                                                 |
\*---------------------------------------------------------------------------*/
FoamFile
{
    version     2.0;
    format      ascii;
    class       volVectorField;
    location    "0.3";
    object      U;
}
// * * * * * * * * * * * * * * * * * * * * * * * * * * * * * * * * * * * * * //

dimensions      [0 1 -1 0 0 0 0];

internalField   nonuniform List<vector> 
2945
(
(0.160103 0.00658098 0)
(0.120715 0.00660453 0)
(0.0888638 0.0046735 0)
(0.0670013 0.00235599 0)
(0.0525249 0.00114192 0)
(0.0434152 0.000372337 0)
(0.0380573 9.43375e-05 0)
(0.0348602 5.69799e-05 0)
(0.0325088 7.6289e-05 0)
(0.0305823 7.66803e-05 0)
(0.0290194 6.81297e-05 0)
(0.0276824 7.33057e-05 0)
(0.0264467 7.37002e-05 0)
(0.0253243 6.27533e-05 0)
(0.0243431 5.35438e-05 0)
(0.0234704 4.83239e-05 0)
(0.022679 4.30506e-05 0)
(0.0219601 3.89448e-05 0)
(0.0213011 3.6437e-05 0)
(0.0206992 3.19222e-05 0)
(0.0201454 2.96884e-05 0)
(0.0196274 2.84244e-05 0)
(0.0191464 2.487e-05 0)
(0.0187039 2.30548e-05 0)
(0.0182899 2.19792e-05 0)
(0.0179038 1.95991e-05 0)
(0.0175433 1.88441e-05 0)
(0.0172077 1.69314e-05 0)
(0.0168979 1.49219e-05 0)
(0.0166076 1.483e-05 0)
(0.0163347 1.33444e-05 0)
(0.0160801 1.235e-05 0)
(0.015841 1.22062e-05 0)
(0.0156194 1.03874e-05 0)
(0.0154179 9.27945e-06 0)
(0.0152276 9.72782e-06 0)
(0.0150504 8.26327e-06 0)
(0.0148961 6.22757e-06 0)
(0.0147558 6.58475e-06 0)
(0.0146184 7.28105e-06 0)
(0.0144949 5.33164e-06 0)
(0.0143951 3.65584e-06 0)
(0.0143013 5.25411e-06 0)
(0.0142101 4.73012e-06 0)
(0.0141422 2.02313e-06 0)
(0.014092 2.4115e-06 0)
(0.0140467 2.35062e-06 0)
(0.014017 5.7914e-07 0)
(0.0140029 3.26726e-07 0)
(0.0139962 5.67254e-07 0)
(0.0140002 -8.20618e-07 0)
(0.0140163 -1.37842e-06 0)
(0.0140386 -1.59952e-06 0)
(0.014064 -1.86009e-06 0)
(0.0140913 -1.99406e-06 0)
(0.0141161 -1.58053e-06 0)
(0.0141356 -1.16715e-06 0)
(0.0141529 -1.2679e-06 0)
(0.0141688 -1.03363e-06 0)
(0.0141798 -4.36947e-07 0)
(0.0141866 -2.84541e-07 0)
(0.0141944 -5.44996e-07 0)
(0.0142041 -6.13813e-07 0)
(0.0142143 -5.92869e-07 0)
(0.0142231 -4.26292e-07 0)
(0.0142309 -3.77484e-07 0)
(0.0142366 -1.68149e-07 0)
(0.0142419 -2.18345e-07 0)
(0.0142477 -3.23536e-07 0)
(0.0142552 -4.57457e-07 0)
(0.0142616 -2.72713e-07 0)
(0.0142665 -1.99091e-07 0)
(0.0142696 -2.22957e-08 0)
(0.0142723 -2.21834e-07 0)
(0.0142781 -2.21066e-07 0)
(0.191322 0.012409 0)
(0.184143 0.0137711 0)
(0.171257 0.0123386 0)
(0.157233 0.00892145 0)
(0.142059 0.00662823 0)
(0.128119 0.00393324 0)
(0.116453 0.00226378 0)
(0.107122 0.00160312 0)
(0.099589 0.00126232 0)
(0.0934436 0.000975829 0)
(0.0883998 0.000778915 0)
(0.084134 0.000694318 0)
(0.0803785 0.000629247 0)
(0.0770186 0.000546943 0)
(0.074036 0.00047843 0)
(0.0713772 0.000429191 0)
(0.0689707 0.000385199 0)
(0.0667732 0.000347702 0)
(0.0647618 0.000317922 0)
(0.0629244 0.000285504 0)
(0.0612254 0.000263184 0)
(0.0596479 0.00024521 0)
(0.0581837 0.000221799 0)
(0.0568229 0.000204641 0)
(0.0555558 0.000190687 0)
(0.054373 0.000173911 0)
(0.053266 0.000162756 0)
(0.0522387 0.000148775 0)
(0.0512786 0.000135728 0)
(0.0503783 0.000128587 0)
(0.049538 0.000117677 0)
(0.048749 0.000108772 0)
(0.0480143 0.000102215 0)
(0.0473354 9.13428e-05 0)
(0.0467058 8.31645e-05 0)
(0.0461189 7.94897e-05 0)
(0.0455798 7.0275e-05 0)
(0.0450922 6.008e-05 0)
(0.0446433 5.71489e-05 0)
(0.0442258 5.48929e-05 0)
(0.0438545 4.4867e-05 0)
(0.0435328 3.63473e-05 0)
(0.0432396 3.77317e-05 0)
(0.0429778 3.21498e-05 0)
(0.0427689 2.02432e-05 0)
(0.0426027 1.8361e-05 0)
(0.042467 1.50492e-05 0)
(0.0423716 6.74802e-06 0)
(0.0423137 3.55887e-06 0)
(0.0422836 6.04943e-07 0)
(0.0422835 -3.68257e-06 0)
(0.0423093 -6.92972e-06 0)
(0.0423485 -8.08702e-06 0)
(0.0423944 -8.83046e-06 0)
(0.042442 -8.86271e-06 0)
(0.042484 -7.10391e-06 0)
(0.0425176 -5.47314e-06 0)
(0.042547 -5.45804e-06 0)
(0.0425721 -4.44449e-06 0)
(0.0425906 -2.52668e-06 0)
(0.042605 -2.10592e-06 0)
(0.0426217 -2.93164e-06 0)
(0.042641 -3.14012e-06 0)
(0.0426613 -3.03202e-06 0)
(0.0426792 -2.41792e-06 0)
(0.0426964 -2.23204e-06 0)
(0.0427103 -1.51913e-06 0)
(0.0427249 -1.72679e-06 0)
(0.0427397 -1.95309e-06 0)
(0.0427564 -2.27535e-06 0)
(0.04277 -1.52405e-06 0)
(0.0427815 -1.266e-06 0)
(0.0427904 -6.13063e-07 0)
(0.042798 -1.31105e-06 0)
(0.0428118 -1.08348e-06 0)
(0.191198 0.0107717 0)
(0.193782 0.0136483 0)
(0.194472 0.0138883 0)
(0.192428 0.0109744 0)
(0.186529 0.0107942 0)
(0.178662 0.00821466 0)
(0.170192 0.00578626 0)
(0.162066 0.00452122 0)
(0.154531 0.00377258 0)
(0.147601 0.00309461 0)
(0.141318 0.00254545 0)
(0.135701 0.00221759 0)
(0.130627 0.00196713 0)
(0.125918 0.00171941 0)
(0.121546 0.00150995 0)
(0.117553 0.001347 0)
(0.113915 0.00120985 0)
(0.110567 0.00109484 0)
(0.107462 0.000998182 0)
(0.104584 0.000902444 0)
(0.101896 0.000830285 0)
(0.0993891 0.000768236 0)
(0.0970564 0.000700966 0)
(0.0948744 0.000647536 0)
(0.0928331 0.000601151 0)
(0.0909167 0.000552342 0)
(0.0891102 0.0005143 0)
(0.0874258 0.000472566 0)
(0.085842 0.00043532 0)
(0.0843498 0.00040818 0)
(0.0829562 0.00037545 0)
(0.0816414 0.000347627 0)
(0.080413 0.000323109 0)
(0.0792745 0.000292719 0)
(0.0782105 0.000268296 0)
(0.0772181 0.000251005 0)
(0.0763036 0.000224861 0)
(0.0754639 0.000198636 0)
(0.0746886 0.000184637 0)
(0.0739736 0.000171118 0)
(0.0733305 0.000145088 0)
(0.0727605 0.000122847 0)
(0.0722447 0.000117438 0)
(0.0717866 9.93118e-05 0)
(0.0714032 7.10724e-05 0)
(0.0710871 6.09672e-05 0)
(0.0708269 4.82585e-05 0)
(0.0706268 2.76281e-05 0)
(0.0704855 1.69385e-05 0)
(0.0703921 7.61625e-06 0)
(0.0703416 -6.00955e-06 0)
(0.0703345 -1.35097e-05 0)
(0.0703484 -1.6416e-05 0)
(0.0703756 -1.81936e-05 0)
(0.0704087 -1.80784e-05 0)
(0.0704379 -1.44444e-05 0)
(0.0704602 -1.12052e-05 0)
(0.0704794 -1.08528e-05 0)
(0.0704948 -8.71649e-06 0)
(0.0705054 -5.46034e-06 0)
(0.0705135 -5.06328e-06 0)
(0.0705255 -6.58887e-06 0)
(0.0705419 -7.07041e-06 0)
(0.070561 -6.95233e-06 0)
(0.0705786 -5.86766e-06 0)
(0.0705972 -5.57713e-06 0)
(0.0706131 -4.28546e-06 0)
(0.070631 -4.79948e-06 0)
(0.0706492 -5.06645e-06 0)
(0.0706698 -5.46995e-06 0)
(0.0706869 -3.89822e-06 0)
(0.0707023 -3.4415e-06 0)
(0.0707148 -2.10153e-06 0)
(0.0707256 -3.50985e-06 0)
(0.070745 -2.63881e-06 0)
(0.191837 0.00975137 0)
(0.194257 0.0114986 0)
(0.196805 0.0129304 0)
(0.200127 0.0123014 0)
(0.200851 0.00854307 0)
(0.198361 0.00882928 0)
(0.194674 0.00778011 0)
(0.190606 0.00672753 0)
(0.1863 0.00586905 0)
(0.181736 0.00503935 0)
(0.17705 0.00430699 0)
(0.172534 0.00382391 0)
(0.168279 0.00346231 0)
(0.164117 0.00312802 0)
(0.159959 0.00282658 0)
(0.155897 0.00255479 0)
(0.152051 0.00230982 0)
(0.148445 0.0021064 0)
(0.145033 0.00193788 0)
(0.14178 0.00177127 0)
(0.13865 0.00163903 0)
(0.135665 0.0015191 0)
(0.132851 0.00139248 0)
(0.130197 0.00129073 0)
(0.12769 0.00120176 0)
(0.125309 0.00111155 0)
(0.123034 0.00103797 0)
(0.120887 0.00095839 0)
(0.118849 0.000887734 0)
(0.11691 0.00083214 0)
(0.115085 0.000768464 0)
(0.11335 0.000713697 0)
(0.111714 0.000663365 0)
(0.110187 0.000605257 0)
(0.108751 0.000557087 0)
(0.107403 0.00051926 0)
(0.10615 0.000469216 0)
(0.104987 0.000420106 0)
(0.103906 0.000388519 0)
(0.102903 0.000357676 0)
(0.101989 0.000309118 0)
(0.101167 0.000266467 0)
(0.100419 0.000249095 0)
(0.0997473 0.000213051 0)
(0.099164 0.000162258 0)
(0.0986667 0.00013878 0)
(0.098245 0.00011177 0)
(0.0978974 7.37273e-05 0)
(0.0976248 5.07654e-05 0)
(0.0974178 3.02819e-05 0)
(0.0972666 7.51303e-06 0)
(0.0971688 -8.74527e-06 0)
(0.0971092 -1.65218e-05 0)
(0.0970736 -2.11052e-05 0)
(0.0970535 -2.18034e-05 0)
(0.0970372 -1.70914e-05 0)
(0.0970194 -1.27973e-05 0)
(0.0970035 -1.25399e-05 0)
(0.0969878 -9.77711e-06 0)
(0.0969702 -5.457e-06 0)
(0.096953 -5.3607e-06 0)
(0.0969425 -8.56836e-06 0)
(0.0969407 -9.7184e-06 0)
(0.0969439 -9.8335e-06 0)
(0.0969476 -8.66513e-06 0)
(0.0969552 -8.5802e-06 0)
(0.0969625 -7.01958e-06 0)
(0.0969744 -7.8593e-06 0)
(0.0969885 -8.46575e-06 0)
(0.0970067 -9.0916e-06 0)
(0.0970223 -6.65327e-06 0)
(0.097037 -6.06733e-06 0)
(0.0970492 -3.95427e-06 0)
(0.0970604 -6.40076e-06 0)
(0.0970823 -4.58644e-06 0)
(0.192843 0.00922713 0)
(0.19468 0.0102473 0)
(0.196899 0.0140778 0)
(0.200161 0.00726237 0)
(0.202139 0.017113 0)
(0.202853 0.0071867 0)
(0.20192 0.00681849 0)
(0.200625 0.00650808 0)
(0.199066 0.00627196 0)
(0.197103 0.00581045 0)
(0.194743 0.00525123 0)
(0.192272 0.00483268 0)
(0.189847 0.00447647 0)
(0.187348 0.00416149 0)
(0.184622 0.00389775 0)
(0.181684 0.00362623 0)
(0.178691 0.00333406 0)
(0.175783 0.00307318 0)
(0.172978 0.00286323 0)
(0.170223 0.00265969 0)
(0.167457 0.00249848 0)
(0.164696 0.00234134 0)
(0.162006 0.00216313 0)
(0.159423 0.00201664 0)
(0.156954 0.00188857 0)
(0.154574 0.00176077 0)
(0.152254 0.00165701 0)
(0.15002 0.00154185 0)
(0.147865 0.00143779 0)
(0.145784 0.00135391 0)
(0.143794 0.00125799 0)
(0.141877 0.00117451 0)
(0.140039 0.00109583 0)
(0.1383 0.00100624 0)
(0.136653 0.000930895 0)
(0.135094 0.000869352 0)
(0.133629 0.000791582 0)
(0.132251 0.000715832 0)
(0.130957 0.000663192 0)
(0.129742 0.000611815 0)
(0.128612 0.000536266 0)
(0.127584 0.000467881 0)
(0.126644 0.000435168 0)
(0.125785 0.000377886 0)
(0.125017 0.000300049 0)
(0.124343 0.000259722 0)
(0.123754 0.000214841 0)
(0.123243 0.000155495 0)
(0.122814 0.000116999 0)
(0.12246 8.23719e-05 0)
(0.122169 4.46206e-05 0)
(0.121941 1.79768e-05 0)
(0.121765 2.81034e-06 0)
(0.121627 -7.44882e-06 0)
(0.121517 -1.19195e-05 0)
(0.121423 -7.96542e-06 0)
(0.121337 -4.08096e-06 0)
(0.121261 -5.47359e-06 0)
(0.121192 -2.97288e-06 0)
(0.121125 1.73592e-06 0)
(0.121062 5.66782e-07 0)
(0.12101 -4.65435e-06 0)
(0.120972 -7.42245e-06 0)
(0.120944 -8.56189e-06 0)
(0.120918 -7.7335e-06 0)
(0.120899 -8.66593e-06 0)
(0.120883 -7.4002e-06 0)
(0.120876 -9.54824e-06 0)
(0.120876 -1.05597e-05 0)
(0.120883 -1.18708e-05 0)
(0.120891 -8.86406e-06 0)
(0.120898 -8.17558e-06 0)
(0.120904 -5.54417e-06 0)
(0.120911 -9.17556e-06 0)
(0.12093 -6.64341e-06 0)
(0.193819 0.00879471 0)
(0.195066 0.0102964 0)
(0.197239 0.0115893 0)
(0.199528 0.00985361 0)
(0.201613 0.0106053 0)
(0.203306 0.00867903 0)
(0.203064 0.00849564 0)
(0.202722 0.00756788 0)
(0.202391 0.00688128 0)
(0.201829 0.00634414 0)
(0.200967 0.00575886 0)
(0.200019 0.00532965 0)
(0.199089 0.00497448 0)
(0.198095 0.00468584 0)
(0.196871 0.00449441 0)
(0.19533 0.00429333 0)
(0.193564 0.00402457 0)
(0.191751 0.00375308 0)
(0.189976 0.00353554 0)
(0.188199 0.00333306 0)
(0.186332 0.00318916 0)
(0.184342 0.00303937 0)
(0.182287 0.00284033 0)
(0.18025 0.00266833 0)
(0.178273 0.00251687 0)
(0.17634 0.00236581 0)
(0.174415 0.00224742 0)
(0.17251 0.00211202 0)
(0.170627 0.001987 0)
(0.168772 0.0018848 0)
(0.166966 0.0017658 0)
(0.165187 0.00166282 0)
(0.16344 0.00156305 0)
(0.161748 0.00144439 0)
(0.160121 0.00134336 0)
(0.158568 0.00126115 0)
(0.157091 0.00115716 0)
(0.155684 0.00105518 0)
(0.154347 0.000982898 0)
(0.15307 0.000913714 0)
(0.15185 0.000811153 0)
(0.150719 0.000713921 0)
(0.14968 0.000664953 0)
(0.148718 0.000586039 0)
(0.147837 0.000479331 0)
(0.147046 0.000421541 0)
(0.146336 0.000357815 0)
(0.145696 0.000275644 0)
(0.145133 0.000220304 0)
(0.144643 0.000169956 0)
(0.144211 0.000115835 0)
(0.143843 7.47036e-05 0)
(0.143536 4.88818e-05 0)
(0.143278 2.97547e-05 0)
(0.143061 1.85489e-05 0)
(0.142872 1.91635e-05 0)
(0.142701 2.04968e-05 0)
(0.142548 1.5438e-05 0)
(0.142411 1.61173e-05 0)
(0.142282 2.04366e-05 0)
(0.142157 1.72811e-05 0)
(0.142048 8.38612e-06 0)
(0.14196 2.79761e-06 0)
(0.141889 1.37365e-08 0)
(0.141821 7.08787e-08 0)
(0.141761 -2.52276e-06 0)
(0.141707 -2.28052e-06 0)
(0.141666 -6.67277e-06 0)
(0.141639 -9.7992e-06 0)
(0.141625 -1.21653e-05 0)
(0.141616 -9.12691e-06 0)
(0.141609 -8.5009e-06 0)
(0.1416 -5.68642e-06 0)
(0.141598 -1.09342e-05 0)
(0.141605 -8.08983e-06 0)
(0.194577 0.00835905 0)
(0.195533 0.00971543 0)
(0.197408 0.0104791 0)
(0.199324 0.00980772 0)
(0.201155 0.00911951 0)
(0.202649 0.0104085 0)
(0.203028 0.00703259 0)
(0.202935 0.00685372 0)
(0.202871 0.00664614 0)
(0.202659 0.00634081 0)
(0.202361 0.00581413 0)
(0.20214 0.00536298 0)
(0.201969 0.00501466 0)
(0.20178 0.00481563 0)
(0.201455 0.00471847 0)
(0.200871 0.00460876 0)
(0.200052 0.00438616 0)
(0.19915 0.00412256 0)
(0.198273 0.00390672 0)
(0.197402 0.00371139 0)
(0.196448 0.00360489 0)
(0.195329 0.00349889 0)
(0.194059 0.00331484 0)
(0.192739 0.00313822 0)
(0.19144 0.00297669 0)
(0.190159 0.00281752 0)
(0.18886 0.00270262 0)
(0.187533 0.00256354 0)
(0.186172 0.00243362 0)
(0.184798 0.00232787 0)
(0.183436 0.00219867 0)
(0.182067 0.00209033 0)
(0.180676 0.00198826 0)
(0.179277 0.00185341 0)
(0.177896 0.00173105 0)
(0.176559 0.00163453 0)
(0.175274 0.00151162 0)
(0.174035 0.00138786 0)
(0.172851 0.0013003 0)
(0.171698 0.00122253 0)
(0.170555 0.00110107 0)
(0.169462 0.000976247 0)
(0.16845 0.000912311 0)
(0.167501 0.000814089 0)
(0.166617 0.000679551 0)
(0.165813 0.000606868 0)
(0.165076 0.000526427 0)
(0.164389 0.000422943 0)
(0.163764 0.000352784 0)
(0.163197 0.000288259 0)
(0.162673 0.000218683 0)
(0.1622 0.000162806 0)
(0.161786 0.000123793 0)
(0.161425 9.2861e-05 0)
(0.161112 7.19276e-05 0)
(0.160837 6.68011e-05 0)
(0.160587 6.35601e-05 0)
(0.160363 5.268e-05 0)
(0.160162 4.99826e-05 0)
(0.159973 5.33303e-05 0)
(0.159786 4.74813e-05 0)
(0.159615 3.35601e-05 0)
(0.159471 2.35163e-05 0)
(0.159353 1.79871e-05 0)
(0.159242 1.70221e-05 0)
(0.159136 1.26773e-05 0)
(0.159035 1.10246e-05 0)
(0.158949 3.12624e-06 0)
(0.158882 -2.87236e-06 0)
(0.158838 -8.51817e-06 0)
(0.158806 -5.47699e-06 0)
(0.158779 -6.01171e-06 0)
(0.15875 -2.19203e-06 0)
(0.15873 -1.11731e-05 0)
(0.158716 -7.7662e-06 0)
(0.195153 0.00806557 0)
(0.196008 0.00923604 0)
(0.197562 0.00987099 0)
(0.199271 0.00906524 0)
(0.200749 0.00942767 0)
(0.202141 0.00870587 0)
(0.202903 0.00743069 0)
(0.202818 0.00718504 0)
(0.202752 0.00683255 0)
(0.202633 0.00644359 0)
(0.202532 0.00580391 0)
(0.202499 0.0053864 0)
(0.202535 0.00508067 0)
(0.202643 0.00481332 0)
(0.202655 0.00475828 0)
(0.202499 0.0047139 0)
(0.202172 0.00452841 0)
(0.201797 0.00426379 0)
(0.20146 0.00405451 0)
(0.201151 0.00386609 0)
(0.200805 0.00379239 0)
(0.200314 0.00373182 0)
(0.199655 0.00358147 0)
(0.198926 0.00341989 0)
(0.198213 0.00325397 0)
(0.197522 0.00308485 0)
(0.196818 0.00298308 0)
(0.196072 0.00285577 0)
(0.195262 0.00273141 0)
(0.194409 0.00263098 0)
(0.193553 0.00250145 0)
(0.192685 0.00239451 0)
(0.191773 0.00230544 0)
(0.190803 0.0021767 0)
(0.189801 0.00204472 0)
(0.188807 0.00193957 0)
(0.187834 0.00180469 0)
(0.18689 0.00166527 0)
(0.185994 0.00156656 0)
(0.185115 0.0014899 0)
(0.184197 0.00136374 0)
(0.183274 0.00122016 0)
(0.182406 0.00114579 0)
(0.181578 0.00103163 0)
(0.180794 0.000871711 0)
(0.180083 0.00078874 0)
(0.179422 0.00069586 0)
(0.178788 0.000575107 0)
(0.178195 0.000494771 0)
(0.17764 0.000420414 0)
(0.177103 0.000339593 0)
(0.176595 0.000271878 0)
(0.176131 0.000220213 0)
(0.175714 0.00017652 0)
(0.175347 0.00014409 0)
(0.175021 0.000131518 0)
(0.174723 0.000122288 0)
(0.174454 0.000103857 0)
(0.174215 9.64837e-05 0)
(0.173989 9.89745e-05 0)
(0.17376 9.09811e-05 0)
(0.173539 7.15471e-05 0)
(0.173347 5.52461e-05 0)
(0.173189 4.53653e-05 0)
(0.173045 4.29955e-05 0)
(0.172903 3.74602e-05 0)
(0.17276 3.42052e-05 0)
(0.172628 2.24865e-05 0)
(0.172517 1.14693e-05 0)
(0.172436 1.60213e-06 0)
(0.172376 2.22945e-06 0)
(0.172327 1.52715e-06 0)
(0.172274 4.39908e-06 0)
(0.172235 -5.90814e-06 0)
(0.172191 -5.11271e-06 0)
(0.195595 0.00732743 0)
(0.196401 0.00869534 0)
(0.197735 0.00916333 0)
(0.199218 0.00880313 0)
(0.200483 0.00870524 0)
(0.201724 0.00885495 0)
(0.202699 0.00722932 0)
(0.202647 0.0069211 0)
(0.202597 0.00678603 0)
(0.202551 0.00643038 0)
(0.2025 0.00592758 0)
(0.202464 0.00548336 0)
(0.202552 0.00503737 0)
(0.202751 0.00478981 0)
(0.202815 0.0047596 0)
(0.202754 0.00475352 0)
(0.202619 0.00460631 0)
(0.202492 0.00433898 0)
(0.202406 0.00408906 0)
(0.202341 0.0038861 0)
(0.202268 0.00385275 0)
(0.202092 0.00384182 0)
(0.201775 0.00370599 0)
(0.201406 0.00355382 0)
(0.201066 0.00339229 0)
(0.200763 0.00321283 0)
(0.20047 0.00311483 0)
(0.200146 0.00300423 0)
(0.199753 0.00289549 0)
(0.199303 0.00280362 0)
(0.198846 0.00267644 0)
(0.198397 0.00257105 0)
(0.197916 0.00249635 0)
(0.197361 0.00238525 0)
(0.196745 0.00225936 0)
(0.196107 0.00215629 0)
(0.195463 0.00201556 0)
(0.19483 0.00186304 0)
(0.19425 0.00175441 0)
(0.193695 0.00168587 0)
(0.193071 0.00156566 0)
(0.192394 0.00141488 0)
(0.19174 0.00134104 0)
(0.191098 0.0012161 0)
(0.190475 0.00103183 0)
(0.18992 0.000942479 0)
(0.189407 0.000841564 0)
(0.188901 0.000708717 0)
(0.188419 0.000623931 0)
(0.187953 0.000545098 0)
(0.187482 0.000458985 0)
(0.187014 0.000384959 0)
(0.186569 0.000324027 0)
(0.186155 0.000268891 0)
(0.185785 0.000224832 0)
(0.185456 0.00020439 0)
(0.185152 0.000188743 0)
(0.184875 0.000161605 0)
(0.184635 0.000148555 0)
(0.184411 0.000151016 0)
(0.184175 0.000142834 0)
(0.183932 0.000119011 0)
(0.183713 9.56634e-05 0)
(0.183531 7.97295e-05 0)
(0.183371 7.52699e-05 0)
(0.183213 6.94715e-05 0)
(0.183047 6.60825e-05 0)
(0.182881 5.11348e-05 0)
(0.182731 3.45399e-05 0)
(0.182615 1.83987e-05 0)
(0.182528 1.52515e-05 0)
(0.18246 1.35551e-05 0)
(0.182385 1.57886e-05 0)
(0.18233 3.4122e-06 0)
(0.182254 9.84058e-07 0)
(0.195899 0.00755523 0)
(0.196719 0.00833001 0)
(0.19792 0.00882739 0)
(0.199227 0.00802524 0)
(0.200266 0.00905194 0)
(0.201462 0.00749209 0)
(0.202266 0.00828273 0)
(0.202551 0.0066202 0)
(0.202529 0.00668408 0)
(0.202472 0.00640715 0)
(0.202397 0.00583707 0)
(0.202364 0.0053872 0)
(0.202509 0.00494498 0)
(0.202745 0.00473039 0)
(0.202779 0.00473968 0)
(0.202709 0.00478016 0)
(0.202625 0.0046474 0)
(0.202596 0.00431826 0)
(0.202595 0.00410752 0)
(0.202607 0.00392068 0)
(0.202618 0.0038562 0)
(0.202539 0.00389162 0)
(0.202362 0.00379647 0)
(0.202179 0.00363129 0)
(0.202034 0.00343603 0)
(0.201926 0.0032508 0)
(0.201842 0.00316483 0)
(0.201749 0.00306058 0)
(0.201602 0.00296709 0)
(0.201394 0.00288449 0)
(0.201173 0.00275932 0)
(0.20098 0.00265313 0)
(0.200788 0.0025927 0)
(0.200536 0.00249544 0)
(0.20022 0.00237955 0)
(0.19987 0.00228615 0)
(0.199493 0.00214591 0)
(0.199107 0.00198549 0)
(0.198782 0.00186294 0)
(0.198503 0.00180681 0)
(0.19815 0.00170264 0)
(0.197717 0.00154706 0)
(0.197285 0.00148239 0)
(0.196838 0.00135852 0)
(0.196386 0.00115279 0)
(0.195999 0.00105748 0)
(0.195649 0.000949064 0)
(0.195296 0.000807954 0)
(0.19496 0.000724218 0)
(0.194624 0.000645934 0)
(0.194264 0.000560374 0)
(0.193887 0.000486091 0)
(0.193511 0.00042052 0)
(0.19315 0.000356841 0)
(0.192823 0.00030256 0)
(0.192531 0.000275254 0)
(0.192256 0.000253936 0)
(0.192005 0.000217497 0)
(0.191794 0.000197602 0)
(0.191605 0.000200744 0)
(0.191398 0.000195018 0)
(0.191169 0.000169609 0)
(0.190949 0.00014014 0)
(0.190765 0.000117126 0)
(0.190608 0.000109486 0)
(0.190456 0.000104065 0)
(0.19029 0.000102444 0)
(0.190113 8.64957e-05 0)
(0.18994 6.48736e-05 0)
(0.189797 4.16718e-05 0)
(0.18969 3.2811e-05 0)
(0.189608 2.94897e-05 0)
(0.18952 3.07269e-05 0)
(0.189453 1.72848e-05 0)
(0.189352 1.05116e-05 0)
(0.196259 0.00657099 0)
(0.197031 0.00803192 0)
(0.198131 0.00790363 0)
(0.199182 0.00838508 0)
(0.200201 0.00773609 0)
(0.201232 0.00829822 0)
(0.20199 0.00728729 0)
(0.202421 0.00655945 0)
(0.202424 0.00672783 0)
(0.202337 0.00649218 0)
(0.202271 0.00586525 0)
(0.202269 0.00541156 0)
(0.202452 0.00488885 0)
(0.202685 0.00470797 0)
(0.20268 0.004769 0)
(0.202606 0.00483263 0)
(0.202585 0.00455354 0)
(0.202582 0.00433083 0)
(0.20259 0.00412204 0)
(0.202627 0.00388191 0)
(0.202634 0.00389048 0)
(0.202553 0.00387946 0)
(0.202432 0.00381542 0)
(0.20235 0.00365081 0)
(0.20229 0.0034883 0)
(0.202256 0.00326463 0)
(0.20225 0.00315756 0)
(0.202247 0.00307301 0)
(0.202214 0.00300214 0)
(0.202127 0.00292749 0)
(0.202018 0.00278774 0)
(0.201939 0.00267242 0)
(0.201891 0.00263318 0)
(0.201808 0.00254557 0)
(0.201678 0.00243501 0)
(0.201518 0.00236138 0)
(0.201323 0.00221615 0)
(0.201102 0.00204339 0)
(0.200935 0.00191001 0)
(0.200835 0.0018601 0)
(0.200671 0.00178278 0)
(0.200424 0.00163419 0)
(0.200174 0.00157248 0)
(0.199891 0.00145114 0)
(0.199583 0.0012359 0)
(0.199335 0.00114012 0)
(0.19912 0.00102139 0)
(0.198901 0.000871385 0)
(0.198699 0.000790916 0)
(0.19849 0.00071636 0)
(0.198246 0.000635871 0)
(0.197974 0.000566268 0)
(0.197687 0.000500264 0)
(0.197401 0.000431123 0)
(0.19714 0.000368584 0)
(0.196909 0.000336414 0)
(0.196685 0.000311388 0)
(0.196474 0.000265814 0)
(0.196306 0.000237609 0)
(0.196169 0.000241269 0)
(0.196013 0.000240142 0)
(0.195823 0.000216577 0)
(0.195628 0.000183345 0)
(0.19546 0.000153308 0)
(0.195321 0.000141433 0)
(0.195191 0.000136604 0)
(0.195045 0.000138438 0)
(0.194876 0.000124233 0)
(0.1947 9.93978e-05 0)
(0.194545 6.94409e-05 0)
(0.194426 5.3304e-05 0)
(0.19434 4.79112e-05 0)
(0.194247 4.78527e-05 0)
(0.194176 3.42699e-05 0)
(0.194058 2.27238e-05 0)
(0.196722 0.00637431 0)
(0.197298 0.00773259 0)
(0.198257 0.00742782 0)
(0.199139 0.00803027 0)
(0.200172 0.00737401 0)
(0.201109 0.00798825 0)
(0.201704 0.00712313 0)
(0.202267 0.00641913 0)
(0.202302 0.00668422 0)
(0.202168 0.00639142 0)
(0.202156 0.00600533 0)
(0.202229 0.00530108 0)
(0.202387 0.00490197 0)
(0.202561 0.00472107 0)
(0.202557 0.00476873 0)
(0.202513 0.00473656 0)
(0.202519 0.00467018 0)
(0.202541 0.00437321 0)
(0.202581 0.00407231 0)
(0.202603 0.0038731 0)
(0.202562 0.00391872 0)
(0.202461 0.00399172 0)
(0.202396 0.00381777 0)
(0.202371 0.00365621 0)
(0.202331 0.00347228 0)
(0.202317 0.00324417 0)
(0.202325 0.00317271 0)
(0.202344 0.00307006 0)
(0.202352 0.00300256 0)
(0.202318 0.00294318 0)
(0.202255 0.00284796 0)
(0.202216 0.00265618 0)
(0.202218 0.00263147 0)
(0.2022 0.00256683 0)
(0.202161 0.00245448 0)
(0.202108 0.00239013 0)
(0.202017 0.00227768 0)
(0.201899 0.00208464 0)
(0.201818 0.00191521 0)
(0.201797 0.00187192 0)
(0.20173 0.00180659 0)
(0.201598 0.00167369 0)
(0.201469 0.00163858 0)
(0.201302 0.00151063 0)
(0.2011 0.00127716 0)
(0.20095 0.00118986 0)
(0.20082 0.00106526 0)
(0.200691 0.000909111 0)
(0.200589 0.000831497 0)
(0.200475 0.000760506 0)
(0.200323 0.00068703 0)
(0.20014 0.000624853 0)
(0.199933 0.000561106 0)
(0.19972 0.000488676 0)
(0.199528 0.000419312 0)
(0.199361 0.000384315 0)
(0.199192 0.00035834 0)
(0.199022 0.00030481 0)
(0.198895 0.000266893 0)
(0.198807 0.000269989 0)
(0.198705 0.000274305 0)
(0.198564 0.000255359 0)
(0.198406 0.000221234 0)
(0.198264 0.000185175 0)
(0.19815 0.0001685 0)
(0.198048 0.000164062 0)
(0.197931 0.000170467 0)
(0.197785 0.000160404 0)
(0.197619 0.000134759 0)
(0.197465 9.91006e-05 0)
(0.197345 7.50177e-05 0)
(0.197261 6.70449e-05 0)
(0.197171 6.55388e-05 0)
(0.197102 5.26211e-05 0)
(0.196979 3.65784e-05 0)
(0.197079 0.00647361 0)
(0.197536 0.00708695 0)
(0.198353 0.00770178 0)
(0.199212 0.00699582 0)
(0.200116 0.00755842 0)
(0.200973 0.00773918 0)
(0.201528 0.00636335 0)
(0.201937 0.00708317 0)
(0.202162 0.00642591 0)
(0.20207 0.00627447 0)
(0.202097 0.00593975 0)
(0.202221 0.005243 0)
(0.202299 0.00478403 0)
(0.202414 0.00463167 0)
(0.202453 0.00478035 0)
(0.202416 0.00479371 0)
(0.202436 0.00461831 0)
(0.202524 0.004316 0)
(0.20256 0.00406484 0)
(0.20254 0.00390914 0)
(0.202473 0.00393083 0)
(0.202367 0.00389948 0)
(0.202343 0.00387662 0)
(0.202341 0.00372576 0)
(0.202323 0.00348516 0)
(0.202317 0.00326473 0)
(0.202319 0.00315909 0)
(0.202335 0.00306169 0)
(0.202347 0.00300222 0)
(0.20233 0.00295748 0)
(0.202285 0.00281867 0)
(0.202256 0.00268091 0)
(0.202262 0.00262436 0)
(0.20226 0.00257462 0)
(0.202257 0.00246018 0)
(0.202253 0.00240983 0)
(0.20222 0.00227562 0)
(0.202166 0.00212057 0)
(0.202128 0.00191713 0)
(0.202115 0.00188279 0)
(0.202076 0.00184469 0)
(0.202013 0.00168861 0)
(0.20196 0.00164993 0)
(0.20185 0.00157049 0)
(0.201718 0.00132543 0)
(0.201637 0.00121901 0)
(0.201549 0.00108025 0)
(0.201465 0.000920445 0)
(0.20142 0.000850965 0)
(0.201363 0.000784824 0)
(0.201269 0.000719376 0)
(0.201148 0.000665916 0)
(0.201001 0.0006059 0)
(0.200843 0.000531377 0)
(0.200705 0.000455807 0)
(0.200593 0.000419414 0)
(0.20047 0.000395242 0)
(0.200335 0.000335814 0)
(0.200236 0.000287163 0)
(0.200184 0.000288229 0)
(0.200125 0.000297535 0)
(0.200027 0.000284716 0)
(0.199906 0.000252124 0)
(0.199793 0.00021157 0)
(0.199704 0.000189922 0)
(0.199628 0.000185666 0)
(0.199539 0.000197043 0)
(0.199417 0.000192858 0)
(0.199269 0.000168543 0)
(0.199125 0.000128548 0)
(0.199011 9.64371e-05 0)
(0.198933 8.54393e-05 0)
(0.198851 8.25889e-05 0)
(0.198788 7.0983e-05 0)
(0.198666 5.10857e-05 0)
(0.197364 0.00619751 0)
(0.197722 0.00679399 0)
(0.198455 0.00730149 0)
(0.19932 0.00661344 0)
(0.20005 0.00735957 0)
(0.200845 0.00716565 0)
(0.201427 0.00656158 0)
(0.201665 0.00658112 0)
(0.201899 0.00678151 0)
(0.202012 0.00609321 0)
(0.202053 0.00584504 0)
(0.202172 0.00538497 0)
(0.202224 0.00463916 0)
(0.202304 0.00461973 0)
(0.202346 0.00480702 0)
(0.202311 0.00477609 0)
(0.202372 0.00461372 0)
(0.20251 0.00427806 0)
(0.202506 0.00410703 0)
(0.202437 0.00394223 0)
(0.202373 0.00391252 0)
(0.202319 0.00397776 0)
(0.202296 0.0038253 0)
(0.202285 0.00369966 0)
(0.202297 0.00349985 0)
(0.202312 0.00326937 0)
(0.202298 0.00316125 0)
(0.202295 0.00306165 0)
(0.202303 0.00301122 0)
(0.202296 0.0029654 0)
(0.202261 0.00285036 0)
(0.202229 0.00266147 0)
(0.202229 0.00265461 0)
(0.202235 0.00256032 0)
(0.202244 0.00244574 0)
(0.202247 0.0024044 0)
(0.202243 0.002294 0)
(0.202234 0.00210897 0)
(0.202197 0.00194943 0)
(0.202156 0.0019201 0)
(0.202136 0.00182061 0)
(0.202123 0.00171279 0)
(0.2021 0.00167387 0)
(0.202013 0.00153476 0)
(0.201931 0.00133337 0)
(0.201888 0.0012571 0)
(0.201807 0.00112582 0)
(0.201744 0.000938801 0)
(0.201729 0.000859803 0)
(0.201695 0.000800092 0)
(0.201632 0.000741809 0)
(0.201547 0.000695988 0)
(0.201438 0.000639686 0)
(0.201315 0.000563339 0)
(0.201213 0.000481352 0)
(0.201139 0.000444385 0)
(0.201053 0.000424211 0)
(0.200943 0.000361423 0)
(0.20086 0.000301922 0)
(0.200827 0.000299552 0)
(0.200794 0.000312394 0)
(0.200728 0.000305967 0)
(0.200637 0.000276522 0)
(0.200548 0.000232882 0)
(0.200477 0.000206422 0)
(0.200421 0.000202272 0)
(0.200353 0.000218643 0)
(0.200253 0.000221273 0)
(0.200123 0.000199735 0)
(0.199991 0.000156668 0)
(0.199885 0.000116685 0)
(0.199815 0.000102369 0)
(0.199742 9.84064e-05 0)
(0.199687 8.85964e-05 0)
(0.199569 6.56101e-05 0)
(0.197601 0.00609171 0)
(0.197903 0.00649886 0)
(0.19858 0.00696545 0)
(0.199403 0.00646 0)
(0.200014 0.00674287 0)
(0.200734 0.0072395 0)
(0.201349 0.00631416 0)
(0.201417 0.00645575 0)
(0.201628 0.00656927 0)
(0.201949 0.00618735 0)
(0.202029 0.00565521 0)
(0.202089 0.00532512 0)
(0.202133 0.00471411 0)
(0.202189 0.00473418 0)
(0.202253 0.00474766 0)
(0.202237 0.00474635 0)
(0.202331 0.00451466 0)
(0.20246 0.00433729 0)
(0.202426 0.0040629 0)
(0.202337 0.00397919 0)
(0.202276 0.0039891 0)
(0.202244 0.00396725 0)
(0.202258 0.00392669 0)
(0.202262 0.00365498 0)
(0.202276 0.00345952 0)
(0.2023 0.00326408 0)
(0.202271 0.00316512 0)
(0.202242 0.0030501 0)
(0.202247 0.00301155 0)
(0.202246 0.00296035 0)
(0.202214 0.00287994 0)
(0.202184 0.00266752 0)
(0.202177 0.00264064 0)
(0.20219 0.00256098 0)
(0.202209 0.00244383 0)
(0.202205 0.00239 0)
(0.20221 0.0022842 0)
(0.202219 0.00214212 0)
(0.202176 0.00196097 0)
(0.202121 0.00187315 0)
(0.202125 0.00184758 0)
(0.20213 0.00168368 0)
(0.202081 0.00176438 0)
(0.202024 0.00162325 0)
(0.202013 0.00129158 0)
(0.201965 0.00128772 0)
(0.201855 0.00110899 0)
(0.201808 0.000931628 0)
(0.201813 0.000870153 0)
(0.201785 0.000810529 0)
(0.201735 0.000758707 0)
(0.20167 0.000719968 0)
(0.201581 0.000667331 0)
(0.201478 0.000589275 0)
(0.201395 0.000499735 0)
(0.201346 0.000461958 0)
(0.201284 0.000447077 0)
(0.201193 0.000383153 0)
(0.201118 0.000314763 0)
(0.20109 0.000307999 0)
(0.20107 0.000322498 0)
(0.201022 0.000321567 0)
(0.200952 0.000296078 0)
(0.200879 0.000250452 0)
(0.200822 0.000219411 0)
(0.200778 0.000215398 0)
(0.200724 0.000236673 0)
(0.200638 0.000246406 0)
(0.200522 0.000228509 0)
(0.200401 0.000183199 0)
(0.200303 0.000135595 0)
(0.200241 0.000117779 0)
(0.200176 0.000112903 0)
(0.200127 0.000105305 0)
(0.200015 7.99244e-05 0)
(0.197804 0.00598565 0)
(0.198119 0.00616158 0)
(0.198728 0.00672564 0)
(0.199483 0.00615498 0)
(0.200005 0.00630972 0)
(0.200607 0.00722827 0)
(0.201255 0.00613353 0)
(0.201229 0.00626738 0)
(0.201398 0.00661994 0)
(0.201835 0.00602667 0)
(0.201972 0.00572666 0)
(0.202013 0.00533538 0)
(0.202058 0.00460936 0)
(0.202096 0.00460709 0)
(0.202152 0.0047972 0)
(0.202166 0.00470432 0)
(0.202287 0.00452893 0)
(0.202395 0.00426899 0)
(0.202342 0.00408096 0)
(0.202253 0.00400384 0)
(0.202163 0.0040046 0)
(0.202155 0.00397311 0)
(0.202245 0.00381838 0)
(0.202257 0.00369735 0)
(0.202249 0.0034601 0)
(0.202269 0.00329586 0)
(0.202243 0.00317323 0)
(0.202194 0.00306161 0)
(0.202183 0.00300821 0)
(0.202182 0.00297878 0)
(0.202157 0.00287678 0)
(0.202135 0.00267244 0)
(0.202131 0.00263831 0)
(0.202146 0.00254359 0)
(0.202155 0.00246233 0)
(0.202144 0.00240473 0)
(0.202158 0.00228488 0)
(0.202173 0.00212906 0)
(0.202135 0.00197424 0)
(0.202081 0.00190223 0)
(0.202082 0.00184002 0)
(0.202088 0.00175445 0)
(0.202028 0.00168935 0)
(0.202011 0.00151174 0)
(0.202026 0.00140917 0)
(0.201964 0.001323 0)
(0.201849 0.00112543 0)
(0.2018 0.000947527 0)
(0.201803 0.00088564 0)
(0.20178 0.000822531 0)
(0.201737 0.00077563 0)
(0.201683 0.000741885 0)
(0.201607 0.000692734 0)
(0.201513 0.000613539 0)
(0.201438 0.000515552 0)
(0.2014 0.000475274 0)
(0.201356 0.000465325 0)
(0.201279 0.000403132 0)
(0.20121 0.000328028 0)
(0.20118 0.000315481 0)
(0.201162 0.000330732 0)