/*--------------------------------*- C++ -*----------------------------------*\
| =========                 |                                                 |
| \\      /  F ield         | OpenFOAM: The Open Source CFD Toolbox           |
|  \\    /   O peration     | Version:  2.3.0                                 |
|   \\  /    A nd           | Web:      www.OpenFOAM.org                      |
|    \\/     M anipulation  |                                                 |
\*---------------------------------------------------------------------------*/
FoamFile
{
    version     2.0;
    format      ascii;
    class       surfaceScalarField;
    location    "0.2";
    object      phi_0;
}
// * * * * * * * * * * * * * * * * * * * * * * * * * * * * * * * * * * * * * //

dimensions      [0 3 -1 0 0 0 0];

internalField   nonuniform List<scalar> 
5273
(
3.22996e-08
2.28546e-09
2.89638e-08
3.3358e-09
2.57747e-08
3.18905e-09
2.27036e-08
3.07112e-09
1.97349e-08
2.96871e-09
1.69815e-08
2.7534e-09
1.45855e-08
2.39595e-09
1.26067e-08
1.97882e-09
1.10542e-08
1.55251e-09
9.89027e-09
1.16392e-09
9.04311e-09
8.47168e-10
8.43363e-09
6.09479e-10
7.99104e-09
4.42592e-10
7.65885e-09
3.32188e-10
7.39613e-09
2.62716e-10
7.1749e-09
2.21234e-10
6.97752e-09
1.97379e-10
6.79434e-09
1.83177e-10
6.62099e-09
1.73352e-10
6.45601e-09
1.6498e-10
6.29925e-09
1.5676e-10
6.15095e-09
1.48305e-10
6.01128e-09
1.39661e-10
5.88024e-09
1.31043e-10
5.75757e-09
1.22668e-10
5.64288e-09
1.14695e-10
5.53565e-09
1.07223e-10
5.43536e-09
1.00296e-10
5.34145e-09
9.39104e-11
5.25342e-09
8.80274e-11
5.17082e-09
8.26019e-11
5.09323e-09
7.75892e-11
5.02029e-09
7.29361e-11
4.95171e-09
6.85842e-11
4.88722e-09
6.44895e-11
4.8266e-09
6.0621e-11
4.76965e-09
5.6952e-11
4.7162e-09
5.34457e-11
4.66614e-09
5.00629e-11
4.61935e-09
4.67876e-11
4.57572e-09
4.3627e-11
4.53515e-09
4.05702e-11
4.49758e-09
3.75718e-11
4.46298e-09
3.46064e-11
4.43128e-09
3.16959e-11
4.40241e-09
2.88699e-11
4.3763e-09
2.6106e-11
4.35295e-09
2.3354e-11
4.33235e-09
2.06013e-11
4.31444e-09
1.79112e-11
4.29906e-09
1.53784e-11
4.286e-09
1.30576e-11
4.27504e-09
1.09636e-11
4.26591e-09
9.13079e-12
4.25825e-09
7.65785e-12
4.25161e-09
6.63476e-12
4.24557e-09
6.04314e-12
4.23984e-09
5.73535e-12
4.2343e-09
5.53779e-12
4.22892e-09
5.37809e-12
4.22362e-09
5.29562e-12
4.21827e-09
5.35168e-12
4.21276e-09
5.50795e-12
4.20714e-09
5.62237e-12
4.20159e-09
5.55242e-12
4.19632e-09
5.27232e-12
4.19141e-09
4.90699e-12
4.18678e-09
4.62893e-12
4.18225e-09
4.53249e-12
4.17769e-09
4.55737e-12
4.17316e-09
4.53065e-12
4.16887e-09
4.29385e-12
4.16506e-09
3.80162e-12
4.16191e-09
3.1597e-12
4.15935e-09
2.55915e-12
4.15717e-09
2.17316e-12
4.1551e-09
2.07722e-12
4.15288e-09
2.21271e-12
4.15045e-09
2.43504e-12
4.14786e-09
2.58547e-12
4.14531e-09
2.55649e-12
4.14298e-09
2.32883e-12
4.14103e-09
1.94519e-12
4.13955e-09
1.48174e-12
4.13854e-09
1.0137e-12
4.13794e-09
5.92238e-13
4.1377e-09
2.43212e-13
4.13772e-09
-1.4273e-14
4.13791e-09
-1.9463e-13
4.13821e-09
-2.957e-13
4.13856e-09
-3.50718e-13
4.13892e-09
-3.59199e-13
4.13926e-09
-3.42673e-13
4.13956e-09
-3.05358e-13
4.13983e-09
-2.66225e-13
4.14005e-09
-2.16978e-13
4.14022e-09
-1.77741e-13
4.14035e-09
-1.27953e-13
4.14045e-09
-9.9926e-14
-5.78178e-14
3.6636e-08
1.51948e-09
3.6764e-08
3.20779e-09
3.63201e-08
3.63296e-09
3.56878e-08
3.70341e-09
3.48603e-08
3.79624e-09
3.38064e-08
3.80733e-09
3.25641e-08
3.63821e-09
3.12216e-08
3.32129e-09
2.98593e-08
2.91486e-09
2.85367e-08
2.48653e-09
2.72905e-08
2.09335e-09
2.61371e-08
1.76292e-09
2.50806e-08
1.49905e-09
2.41183e-08
1.29453e-09
2.3246e-08
1.13497e-09
2.24563e-08
1.01092e-09
2.17395e-08
9.14208e-10
2.10861e-08
8.36517e-10
2.0488e-08
7.71508e-10
1.9938e-08
7.14991e-10
1.94303e-08
6.64472e-10
1.896e-08
6.18535e-10
1.85233e-08
5.76402e-10
1.81167e-08
5.37651e-10
1.77373e-08
5.0201e-10
1.73828e-08
4.69248e-10
1.70509e-08
4.39153e-10
1.67396e-08
4.11514e-10
1.64475e-08
3.86099e-10
1.61728e-08
3.62654e-10
1.59145e-08
3.40954e-10
1.56713e-08
3.20796e-10
1.54422e-08
3.0198e-10
1.52265e-08
2.84303e-10
1.50234e-08
2.67605e-10
1.48323e-08
2.5176e-10
1.46525e-08
2.36662e-10
1.44838e-08
2.22184e-10
1.43257e-08
2.08205e-10
1.41778e-08
1.94658e-10
1.40399e-08
1.81531e-10
1.39117e-08
1.68779e-10
1.3793e-08
1.5629e-10
1.36836e-08
1.44004e-10
1.35833e-08
1.31967e-10
1.34919e-08
1.20249e-10
1.34092e-08
1.08823e-10
1.33349e-08
9.7614e-11
1.32689e-08
8.66472e-11
1.32107e-08
7.61208e-11
1.31598e-08
6.63056e-11
1.31154e-08
5.73831e-11
1.3077e-08
4.94382e-11
1.30435e-08
4.25788e-11
1.30141e-08
3.70192e-11
1.29879e-08
3.29158e-11
1.29637e-08
3.01609e-11
1.29411e-08
2.83581e-11
1.29196e-08
2.7062e-11
1.28989e-08
2.60552e-11
1.28789e-08
2.53633e-11
1.28592e-08
2.5058e-11
1.28397e-08
2.50034e-11
1.28204e-08
2.48646e-11
1.28016e-08
2.43359e-11
1.27835e-08
2.33802e-11
1.27661e-08
2.22791e-11
1.27494e-08
2.13944e-11
1.2733e-08
2.08994e-11
1.27169e-08
2.06318e-11
1.27013e-08
2.02064e-11
1.26863e-08
1.92939e-11
1.26722e-08
1.78208e-11
1.26594e-08
1.60287e-11
1.26476e-08
1.4317e-11
1.26368e-08
1.30225e-11
1.26266e-08
1.22611e-11
1.26169e-08
1.18709e-11
1.26078e-08
1.15344e-11
1.25995e-08
1.09382e-11
1.25921e-08
9.90835e-12
1.2586e-08
8.46917e-12
1.25812e-08
6.77244e-12
1.25776e-08
5.02284e-12
1.25752e-08
3.40127e-12
1.25738e-08
2.02004e-12
1.25731e-08
9.24205e-13
1.2573e-08
1.25795e-13
1.25732e-08
-4.21056e-13
1.25736e-08
-7.31531e-13
1.25742e-08
-8.98204e-13
1.25748e-08
-9.34863e-13
1.25753e-08
-8.99211e-13
1.25758e-08
-8.06223e-13
1.25763e-08
-7.07301e-13
1.25766e-08
-5.78706e-13
1.25769e-08
-4.78913e-13
1.25771e-08
-3.46012e-13
1.25773e-08
-2.7809e-13
-1.5781e-13
3.77194e-08
1.00292e-09
3.83634e-08
2.56374e-09
3.87097e-08
3.2867e-09
3.89174e-08
3.49571e-09
3.90809e-08
3.63275e-09
3.91381e-08
3.75008e-09
3.90258e-08
3.75055e-09
3.87471e-08
3.59991e-09
3.83313e-08
3.33071e-09
3.78153e-08
3.00257e-09
3.72352e-08
2.67346e-09
3.66177e-08
2.38041e-09
3.59805e-08
2.13619e-09
3.53367e-08
1.93834e-09
3.46943e-08
1.77742e-09
3.40594e-08
1.64578e-09
3.34365e-08
1.53712e-09
3.28279e-08
1.44514e-09
3.22349e-08
1.36452e-09
3.16583e-08
1.29152e-09
3.1099e-08
1.22386e-09
3.05573e-08
1.16024e-09
3.00336e-08
1.1e-09
2.95284e-08
1.04285e-09
2.90418e-08
9.88651e-10
2.85738e-08
9.3729e-10
2.81242e-08
8.88684e-10
2.7693e-08
8.42738e-10
2.72798e-08
7.99304e-10
2.68843e-08
7.58185e-10
2.6506e-08
7.19198e-10
2.61446e-08
6.82176e-10
2.57997e-08
6.46925e-10
2.54708e-08
6.1322e-10
2.51575e-08
5.80878e-10
2.48595e-08
5.49761e-10
2.45764e-08
5.19744e-10
2.4308e-08
4.90651e-10
2.40539e-08
4.623e-10
2.38139e-08
4.34604e-10
2.35879e-08
4.07555e-10
2.33756e-08
3.81083e-10
2.31769e-08
3.55019e-10
2.29916e-08
3.29275e-10
2.28196e-08
3.03941e-10
2.26607e-08
2.79147e-10
2.25147e-08
2.54883e-10
2.23812e-08
2.31073e-10
2.226e-08
2.07805e-10
2.21507e-08
1.85447e-10
2.20526e-08
1.64471e-10
2.19647e-08
1.4519e-10
2.18864e-08
1.27761e-10
2.18166e-08
1.12392e-10
2.17542e-08
9.94724e-11
2.16978e-08
8.92886e-11
2.16463e-08
8.16847e-11
2.15986e-08
7.60259e-11
2.15541e-08
7.15862e-11
2.15121e-08
6.79921e-11
2.14723e-08
6.524e-11
2.14339e-08
6.33814e-11
2.13968e-08
6.2138e-11
2.13607e-08
6.09343e-11
2.13258e-08
5.92719e-11
2.12921e-08
5.70945e-11
2.12595e-08
5.48377e-11
2.12279e-08
5.30391e-11
2.11968e-08
5.19216e-11
2.11663e-08
5.11966e-11
2.11362e-08
5.02651e-11
2.11069e-08
4.86545e-11
2.10784e-08
4.62956e-11
2.10509e-08
4.35639e-11
2.10242e-08
4.10052e-11
2.09982e-08
3.89965e-11
2.09729e-08
3.75438e-11
2.09485e-08
3.62512e-11
2.09255e-08
3.45588e-11
2.09044e-08
3.20127e-11
2.08859e-08
2.84625e-11
2.08702e-08
2.41151e-11
2.08576e-08
1.93815e-11
2.08479e-08
1.47224e-11
2.08408e-08
1.05123e-11
2.08359e-08
6.96728e-12
2.08326e-08
4.1621e-12
2.08307e-08
2.0765e-12
2.08296e-08
6.09494e-13
2.08292e-08
-3.09459e-13
2.08292e-08
-8.69009e-13
2.08294e-08
-1.12996e-12
2.08297e-08
-1.20579e-12
2.083e-08
-1.14506e-12
2.08304e-08
-1.04598e-12
2.08307e-08
-8.74251e-13
2.08309e-08
-7.40858e-13
2.08311e-08
-5.37184e-13
2.08313e-08
-4.41871e-13
-2.44699e-13
3.88712e-08
7.1677e-10
3.94287e-08
2.00624e-09
3.98965e-08
2.81893e-09
4.02412e-08
3.15095e-09
4.05782e-08
3.29582e-09
4.09132e-08
3.41506e-09
4.11882e-08
3.47558e-09
4.13657e-08
3.42241e-09
4.14369e-08
3.25951e-09
4.14126e-08
3.02677e-09
4.13128e-08
2.77331e-09
4.1156e-08
2.5372e-09
4.09567e-08
2.33552e-09
4.07249e-08
2.17006e-09
4.04673e-08
2.03507e-09
4.01892e-08
1.92387e-09
3.98953e-08
1.83098e-09
3.95889e-08
1.75159e-09
3.92719e-08
1.68149e-09
3.8946e-08
1.61746e-09
3.86125e-08
1.55738e-09
3.82728e-08
1.49993e-09
3.79283e-08
1.44443e-09
3.75806e-08
1.39062e-09
3.72308e-08
1.33838e-09
3.68805e-08
1.28765e-09
3.65308e-08
1.23839e-09
3.61829e-08
1.19064e-09
3.58378e-08
1.14436e-09
3.54966e-08
1.0994e-09
3.51602e-08
1.05565e-09
3.48293e-08
1.01309e-09
3.45046e-08
9.71588e-10
3.41869e-08
9.30943e-10
3.38767e-08
8.91007e-10
3.35747e-08
8.5175e-10
3.32814e-08
8.13129e-10
3.29971e-08
7.74945e-10
3.27224e-08
7.36977e-10
3.24578e-08
6.99217e-10
3.22035e-08
6.61787e-10
3.196e-08
6.24627e-10
3.17276e-08
5.8747e-10
3.15066e-08
5.5024e-10
3.12973e-08
5.1319e-10
3.10999e-08
4.76604e-10
3.09143e-08
4.40442e-10
3.07408e-08
4.0456e-10
3.05795e-08
3.69153e-10
3.043e-08
3.34889e-10
3.0292e-08
3.02484e-10
3.0165e-08
2.72261e-10
3.00484e-08
2.44301e-10
2.99419e-08
2.18924e-10
2.98445e-08
1.96866e-10
2.97551e-08
1.78703e-10
2.96725e-08
1.64226e-10
2.95961e-08
1.52481e-10
2.95252e-08
1.42507e-10
2.94591e-08
1.34017e-10
2.93971e-08
1.27256e-10
2.93382e-08
1.22333e-10
2.92817e-08
1.18644e-10
2.92275e-08
1.15113e-10
2.91758e-08
1.10973e-10
2.91265e-08
1.06344e-10
2.90793e-08
1.02118e-10
2.90331e-08
9.91483e-11
2.89875e-08
9.75358e-11
2.89422e-08
9.64885e-11
2.88976e-08
9.48822e-11
2.88542e-08
9.20966e-11
2.88121e-08
8.84088e-11
2.87708e-08
8.48276e-11
2.87294e-08
8.24191e-11
2.86868e-08
8.16256e-11
2.86423e-08
8.19817e-11
2.85963e-08
8.22476e-11
2.85499e-08
8.09896e-11
2.85047e-08
7.71733e-11
2.84627e-08
7.05282e-11
2.84252e-08
6.15759e-11
2.83933e-08
5.13084e-11
2.83672e-08
4.0824e-11
2.83466e-08
3.10431e-11
2.83311e-08
2.25425e-11
2.83196e-08
1.55877e-11
2.83115e-08
1.01937e-11
2.83059e-08
6.2059e-12
2.83022e-08
3.42653e-12
2.82998e-08
1.55979e-12
2.82982e-08
3.9761e-13
2.82973e-08
-2.68975e-13
2.82967e-08
-5.89807e-13
2.82964e-08
-7.33214e-13
2.82963e-08
-7.00287e-13
2.82962e-08
-6.51995e-13
2.82961e-08
-4.80182e-13
2.82961e-08
-4.0955e-13
-1.98534e-13
4.01879e-08
5.47577e-10
4.06128e-08
1.58135e-09
4.10567e-08
2.37499e-09
4.14166e-08
2.79105e-09
4.17383e-08
2.97409e-09
4.20723e-08
3.08108e-09
4.23969e-08
3.15103e-09
4.26758e-08
3.14353e-09
4.28881e-08
3.0472e-09
4.3032e-08
2.88289e-09
4.31179e-08
2.68738e-09
4.31598e-08
2.49525e-09
4.31689e-08
2.3265e-09
4.31522e-08
2.18672e-09
4.31143e-08
2.07296e-09
4.30586e-08
1.97959e-09
4.29879e-08
1.90165e-09
4.29043e-08
1.83525e-09
4.28087e-08
1.77706e-09
4.27017e-08
1.72442e-09
4.25837e-08
1.67542e-09
4.24549e-08
1.62874e-09
4.23158e-08
1.58355e-09
4.21669e-08
1.53947e-09
4.20089e-08
1.49639e-09
4.18424e-08
1.45411e-09
4.16683e-08
1.4125e-09
4.14874e-08
1.37159e-09
4.13003e-08
1.33143e-09
4.11079e-08
1.29179e-09
4.09111e-08
1.25248e-09
4.07106e-08
1.21355e-09
4.05072e-08
1.17504e-09
4.03015e-08
1.13663e-09
4.00945e-08
1.09801e-09
3.9887e-08
1.05926e-09
3.96795e-08
1.02061e-09
3.94726e-08
9.81796e-10
3.92673e-08
9.42296e-10
3.90645e-08
9.02084e-10
3.88646e-08
8.61672e-10
3.8668e-08
8.21182e-10
3.84755e-08
7.80002e-10
3.8288e-08
7.37749e-10
3.81062e-08
6.94979e-10
3.79303e-08
6.52528e-10
3.77603e-08
6.10369e-10
3.75971e-08
5.67825e-10
3.74413e-08
5.24878e-10
3.72935e-08
4.82783e-10
3.71529e-08
4.43005e-10
3.70194e-08
4.05825e-10
3.68931e-08
3.7059e-10
3.67747e-08
3.37259e-10
3.66644e-08
3.07246e-10
3.65609e-08
2.82184e-10
3.6463e-08
2.6209e-10
3.63704e-08
2.45131e-10
3.62835e-08
2.29377e-10
3.62029e-08
2.14662e-10
3.61277e-08
2.02421e-10
3.60562e-08
1.93817e-10
3.59868e-08
1.88014e-10
3.59194e-08
1.82516e-10
3.58552e-08
1.75229e-10
3.57953e-08
1.66266e-10
3.57395e-08
1.57924e-10
3.56859e-08
1.52715e-10
3.56321e-08
1.51284e-10
3.55769e-08
1.51765e-10
3.55207e-08
1.51076e-10
3.54656e-08
1.47142e-10
3.54137e-08
1.40299e-10
3.53654e-08
1.3314e-10
3.53189e-08
1.2894e-10
3.52708e-08
1.29734e-10
3.52176e-08
1.35208e-10
3.51571e-08
1.42755e-10
3.50893e-08
1.48703e-10
3.50167e-08
1.49832e-10
3.49427e-08
1.44476e-10
3.48715e-08
1.32837e-10
3.48063e-08
1.16511e-10
3.47494e-08
9.77154e-11
3.47018e-08
7.86188e-11
3.46635e-08
6.08465e-11
3.46337e-08
4.54227e-11
3.46111e-08
3.27613e-11
3.45944e-08
2.28693e-11
3.45824e-08
1.54726e-11
3.45738e-08
1.01467e-11
3.45678e-08
6.44875e-12
3.45635e-08
3.97146e-12
3.45605e-08
2.37268e-12
3.45585e-08
1.35909e-12
3.4557e-08
7.66462e-13
3.45559e-08
4.19858e-13
3.45552e-08
2.75392e-13
3.45546e-08
1.90145e-13
2.2155e-13
4.16167e-08
4.36413e-10
4.19301e-08
1.26795e-09
4.23167e-08
1.98842e-09
4.26667e-08
2.44103e-09
4.29694e-08
2.67145e-09
4.32645e-08
2.78597e-09
4.35614e-08
2.85409e-09
4.38361e-08
2.86886e-09
4.40674e-08
2.81591e-09
4.42475e-08
2.70273e-09
4.43816e-08
2.55333e-09
4.44807e-08
2.3961e-09
4.45552e-08
2.25198e-09
4.4612e-08
2.13001e-09
4.46549e-08
2.02999e-09
4.46869e-08
1.94765e-09
4.47098e-08
1.87869e-09
4.47252e-08
1.81984e-09
4.47339e-08
1.76839e-09
4.47361e-08
1.72222e-09
4.47317e-08
1.6798e-09
4.47205e-08
1.63997e-09
4.47023e-08
1.60174e-09
4.46772e-08
1.56463e-09
4.46449e-08
1.52859e-09
4.46057e-08
1.49339e-09
4.45596e-08
1.45861e-09
4.45069e-08
1.42425e-09
4.44478e-08
1.39056e-09
4.43823e-08
1.35726e-09
4.43109e-08
1.32384e-09
4.42342e-08
1.29033e-09
4.41521e-08
1.25712e-09
4.40648e-08
1.2239e-09
4.39729e-08
1.18989e-09
4.38772e-08
1.15501e-09
4.37778e-08
1.12002e-09
4.36746e-08
1.08493e-09
4.35683e-08
1.04864e-09
4.34598e-08
1.01057e-09
4.33498e-08
9.71711e-10
4.3238e-08
9.32983e-10
4.31244e-08
8.9352e-10
4.30103e-08
8.51894e-10
4.28968e-08
8.08473e-10
4.27841e-08
7.65213e-10
4.26716e-08
7.22894e-10
4.25594e-08
6.80021e-10
4.24491e-08
6.35218e-10
4.2342e-08
5.89888e-10
4.22378e-08
5.47179e-10
4.21353e-08
5.08358e-10
4.20342e-08
4.71605e-10
4.19365e-08
4.34959e-10
4.1844e-08
3.99741e-10
4.17565e-08
3.69702e-10
4.16718e-08
3.4679e-10
4.15884e-08
3.28563e-10
4.15073e-08
3.10513e-10
4.14311e-08
2.9084e-10
4.13612e-08
2.72299e-10
4.12958e-08
2.59187e-10
4.12314e-08
2.52475e-10
4.11657e-08
2.48221e-10
4.11001e-08
2.40833e-10
4.10383e-08
2.28053e-10
4.0983e-08
2.13154e-10
4.09334e-08
2.02319e-10
4.08851e-08
1.99644e-10
4.08331e-08
2.03755e-10
4.07755e-08
2.08631e-10
4.07148e-08
2.07867e-10
4.06561e-08
1.98996e-10
4.06041e-08
1.85168e-10
4.05597e-08
1.73284e-10
4.05194e-08
1.70055e-10
4.04762e-08
1.78453e-10
4.04227e-08
1.96226e-10
4.03542e-08
2.17158e-10
4.02702e-08
2.33887e-10
4.01739e-08
2.40746e-10
4.00714e-08
2.35335e-10
3.99694e-08
2.18518e-10
3.98738e-08
1.93328e-10
3.97887e-08
1.63679e-10
3.97164e-08
1.33152e-10
3.96573e-08
1.0454e-10
3.96106e-08
7.94935e-11
3.95746e-08
5.88097e-11
3.95476e-08
4.24718e-11
3.95277e-08
3.01038e-11
3.95131e-08
2.09983e-11
3.95026e-08
1.45333e-11
3.9495e-08
9.98023e-12
3.94894e-08
6.90827e-12
3.94854e-08
4.75147e-12
3.94824e-08
3.4129e-12
3.94803e-08
2.39637e-12
3.94786e-08
1.90788e-12
1.36473e-12
4.31278e-08
3.56346e-10
4.33579e-08
1.03783e-09
4.36817e-08
1.66463e-09
4.40058e-08
2.11698e-09
4.42948e-08
2.38243e-09
4.45622e-08
2.51857e-09
4.48263e-08
2.58995e-09
4.50782e-08
2.61704e-09
4.53007e-08
2.5934e-09
4.54836e-08
2.51977e-09
4.56273e-08
2.40962e-09
4.57397e-08
2.28378e-09
4.583e-08
2.16162e-09
4.59055e-08
2.05449e-09
4.59706e-08
1.96492e-09
4.60279e-08
1.89035e-09
4.60793e-08
1.82733e-09
4.6126e-08
1.77306e-09
4.61692e-08
1.72526e-09
4.62092e-08
1.68218e-09
4.62462e-08
1.6428e-09
4.628e-08
1.60622e-09
4.63104e-08
1.57135e-09
4.63373e-08
1.53765e-09
4.63607e-08
1.50524e-09
4.63801e-08
1.47392e-09
4.63958e-08
1.44297e-09
4.64077e-08
1.4123e-09
4.64158e-08
1.38249e-09
4.64198e-08
1.35332e-09
4.64198e-08
1.32384e-09
4.64161e-08
1.29394e-09
4.64087e-08
1.26452e-09
4.63971e-08
1.23551e-09
4.63815e-08
1.20549e-09
4.63626e-08
1.17394e-09
4.63404e-08
1.14223e-09
4.63142e-08
1.1111e-09
4.6284e-08
1.07888e-09
4.62507e-08
1.04391e-09
4.6215e-08
1.00741e-09
4.61763e-08
9.71653e-10
4.61338e-08
9.36047e-10
4.6088e-08
8.97681e-10
4.60406e-08
8.55865e-10
4.59921e-08
8.13724e-10
4.59411e-08
7.73866e-10
4.58867e-08
7.3446e-10
4.58301e-08
6.91817e-10
4.57737e-08
6.46268e-10
4.5718e-08
6.02877e-10
4.56609e-08
5.65396e-10
4.5601e-08
5.31564e-10
4.55397e-08
4.96266e-10
4.54806e-08
4.58857e-10
4.54252e-08
4.25047e-10
4.53714e-08
4.00629e-10
4.53156e-08
3.84374e-10
4.52574e-08
3.68686e-10
4.52006e-08
3.47636e-10
4.51494e-08
3.23455e-10
4.51042e-08
3.04477e-10
4.50602e-08
2.9644e-10
4.50123e-08
2.96132e-10
4.49594e-08
2.93678e-10
4.49062e-08
2.81241e-10
4.48592e-08
2.60206e-10
4.48211e-08
2.40405e-10
4.47884e-08
2.32389e-10
4.47531e-08
2.39044e-10
4.47086e-08
2.53147e-10
4.46541e-08
2.62364e-10
4.45955e-08
2.57543e-10
4.4542e-08
2.38662e-10
4.45004e-08
2.1491e-10
4.4471e-08
1.99445e-10
4.4447e-08
2.02415e-10
4.44173e-08
2.25961e-10
4.43708e-08
2.637e-10
4.43006e-08
3.0405e-10
4.42061e-08
3.35218e-10
4.40923e-08
3.49162e-10
4.39676e-08
3.43258e-10
4.38413e-08
3.19606e-10
4.37216e-08
2.83329e-10
4.36144e-08
2.4036e-10
4.35228e-08
1.96202e-10
4.34475e-08
1.54799e-10
4.33876e-08
1.18698e-10
4.33412e-08
8.88025e-11
4.33061e-08
6.5245e-11
4.32799e-08
4.71926e-11
4.32605e-08
3.39292e-11
4.32463e-08
2.4173e-11
4.32358e-08
1.74074e-11
4.32282e-08
1.23664e-11
4.32224e-08
9.18606e-12
4.32183e-08
6.49713e-12
4.3215e-08
5.2505e-12
3.5507e-12
4.47078e-08
2.95665e-10
4.48816e-08
8.64099e-10
4.51461e-08
1.40013e-09
4.54348e-08
1.82827e-09
4.57076e-08
2.10962e-09
4.59571e-08
2.26907e-09
4.61954e-08
2.35165e-09
4.64241e-08
2.38833e-09
4.66327e-08
2.38482e-09
4.68113e-08
2.34115e-09
4.69569e-08
2.26404e-09
4.70735e-08
2.16718e-09
4.71686e-08
2.06645e-09
4.72494e-08
1.97378e-09
4.73203e-08
1.89395e-09
4.73844e-08
1.8263e-09
4.74432e-08
1.76847e-09
4.74981e-08
1.71815e-09
4.75502e-08
1.67322e-09
4.76001e-08
1.63225e-09
4.76482e-08
1.59469e-09
4.76945e-08
1.5599e-09
4.77392e-08
1.52673e-09
4.77822e-08
1.49466e-09
4.78233e-08
1.46406e-09
4.78625e-08
1.43474e-09
4.78998e-08
1.40565e-09
4.79355e-08
1.37669e-09
4.79691e-08
1.3488e-09
4.80006e-08
1.32187e-09
4.803e-08
1.29445e-09
4.80576e-08
1.26628e-09
4.80833e-08
1.23885e-09
4.81064e-08
1.2124e-09
4.8127e-08
1.18489e-09
4.81457e-08
1.15521e-09
4.81626e-08
1.12536e-09
4.81767e-08
1.09699e-09
4.81876e-08
1.06798e-09
4.81961e-08
1.0354e-09
4.82031e-08
1.00048e-09
4.82077e-08
9.67049e-10
4.82086e-08
9.35144e-10
4.82059e-08
9.00343e-10
4.82013e-08
8.60421e-10
4.81956e-08
8.19439e-10
4.81872e-08
7.82304e-10
4.81742e-08
7.47407e-10
4.81575e-08
7.08518e-10
4.81398e-08
6.64035e-10
4.81221e-08
6.20585e-10
4.81023e-08
5.85161e-10
4.80779e-08
5.56012e-10
4.80494e-08
5.24672e-10
4.80211e-08
4.87208e-10
4.79958e-08
4.50367e-10
4.79719e-08
4.24505e-10
4.7945e-08
4.1129e-10
4.79129e-08
4.00751e-10
4.7879e-08
3.81577e-10
4.7849e-08
3.53401e-10
4.78256e-08
3.27903e-10
4.78049e-08
3.17176e-10
4.77798e-08
3.21237e-10
4.77465e-08
3.26953e-10
4.77084e-08
3.1933e-10
4.76737e-08
2.94895e-10
4.76489e-08
2.65252e-10
4.7633e-08
2.48259e-10
4.76179e-08
2.54167e-10
4.75934e-08
2.77651e-10
4.75544e-08
3.01308e-10
4.75047e-08
3.07245e-10
4.74548e-08
2.88544e-10
4.74162e-08
2.53503e-10
4.73948e-08
2.20868e-10
4.73874e-08
2.0987e-10
4.73826e-08
2.30697e-10
4.73659e-08
2.80462e-10
4.73245e-08
3.45465e-10
4.7252e-08
4.07702e-10
4.71495e-08
4.51595e-10
4.70244e-08
4.68361e-10
4.68873e-08
4.56734e-10
4.67491e-08
4.21516e-10
4.6619e-08
3.70464e-10
4.65031e-08
3.12095e-10
4.64046e-08
2.53364e-10
4.63238e-08
1.9945e-10
4.62597e-08
1.52901e-10
4.621e-08
1.14964e-10
4.61722e-08
8.49679e-11
4.61438e-08
6.23692e-11
4.61227e-08
4.52639e-11
4.61069e-08
3.31867e-11
4.60954e-08
2.39053e-11
4.60866e-08
1.79948e-11
4.60803e-08
1.27738e-11
4.60751e-08
1.03873e-11
6.88591e-12
4.63535e-08
2.48224e-10
4.64896e-08
7.27971e-10
4.67031e-08
1.18662e-09
4.69544e-08
1.57699e-09
4.72057e-08
1.85828e-09
4.74402e-08
2.03461e-09
4.76596e-08
2.13221e-09
4.78684e-08
2.17958e-09
4.80623e-08
2.19086e-09
4.82341e-08
2.16944e-09
4.83791e-08
2.11902e-09
4.84983e-08
2.04796e-09
4.85967e-08
1.96801e-09
4.86805e-08
1.89003e-09
4.87544e-08
1.82006e-09
4.88214e-08
1.75929e-09
4.88832e-08
1.70669e-09
4.89409e-08
1.66042e-09
4.89956e-08
1.6185e-09
4.90481e-08
1.57973e-09
4.90989e-08
1.54397e-09
4.9148e-08
1.51073e-09
4.91959e-08
1.47883e-09
4.92427e-08
1.44791e-09
4.92882e-08
1.41859e-09
4.93323e-08
1.39058e-09
4.93754e-08
1.36259e-09
4.94175e-08
1.33457e-09
4.94585e-08
1.30784e-09
4.94981e-08
1.28225e-09
4.95366e-08
1.25592e-09
4.95743e-08
1.22856e-09
4.9611e-08
1.20221e-09
4.9646e-08
1.17734e-09
4.96797e-08
1.15126e-09
4.97124e-08
1.12248e-09
4.97441e-08
1.09363e-09
4.9774e-08
1.0671e-09
4.98017e-08
1.04026e-09
4.9828e-08
1.00916e-09
4.98533e-08
9.75158e-10
4.9877e-08
9.43385e-10
4.98977e-08
9.14386e-10
4.99157e-08
8.82423e-10
4.99321e-08
8.43979e-10
4.99476e-08
8.03936e-10
4.99607e-08
7.69196e-10
4.99697e-08
7.3839e-10
4.99752e-08
7.03086e-10
4.99793e-08
6.59887e-10
4.99832e-08
6.16658e-10
4.99851e-08
5.833e-10
4.99823e-08
5.5877e-10
4.99753e-08
5.31741e-10
4.99674e-08
4.95059e-10
4.99618e-08
4.55951e-10
4.99575e-08
4.28831e-10
4.99503e-08
4.18522e-10
4.99375e-08
4.13488e-10
4.99217e-08
3.97402e-10
4.99084e-08
3.66679e-10
4.99011e-08
3.35281e-10
4.98969e-08
3.21334e-10
4.98891e-08
3.28988e-10
4.98729e-08
3.43202e-10
4.98499e-08
3.42293e-10
4.98279e-08
3.16917e-10
4.98145e-08
2.78706e-10
4.98109e-08
2.51811e-10
4.98106e-08
2.5452e-10
4.98028e-08
2.85404e-10
4.97802e-08
3.23895e-10
4.97437e-08
3.43771e-10
4.97025e-08
3.29755e-10
4.96693e-08
2.86728e-10
4.96533e-08
2.36859e-10
4.96553e-08
2.07848e-10
4.96668e-08
2.19225e-10
4.9673e-08
2.7417e-10
4.9659e-08
3.59494e-10
4.96142e-08
4.52568e-10
4.95354e-08
5.30332e-10
4.94271e-08
5.76641e-10
4.92988e-08
5.85077e-10
4.91618e-08
5.5848e-10
4.9027e-08
5.05327e-10
4.89023e-08
4.36723e-10
4.8793e-08
3.62699e-10
4.8701e-08
2.91469e-10
4.86262e-08
2.27686e-10
4.8567e-08
1.74203e-10
4.85211e-08
1.30807e-10
4.8486e-08
9.74479e-11
4.84597e-08
7.16348e-11
4.84397e-08
5.31506e-11
4.8425e-08
3.86371e-11
4.84136e-08
2.93278e-11
4.84055e-08
2.0888e-11
4.83989e-08
1.70568e-11
1.12082e-11
4.80645e-08
2.10263e-10
4.81739e-08
6.18556e-10
4.83473e-08
1.0132e-09
4.85629e-08
1.36141e-09
4.87894e-08
1.63177e-09
4.90079e-08
1.81617e-09
4.92124e-08
1.92765e-09
4.9405e-08
1.987e-09
4.95852e-08
2.01065e-09
4.97487e-08
2.00596e-09
4.98913e-08
1.97643e-09
5.00119e-08
1.92729e-09
5.01133e-08
1.86669e-09
5.01999e-08
1.80339e-09
5.02764e-08
1.74355e-09
5.03459e-08
1.68986e-09
5.04099e-08
1.64263e-09
5.04698e-08
1.60059e-09
5.05263e-08
1.56191e-09
5.05804e-08
1.52569e-09
5.06323e-08
1.49205e-09
5.06825e-08
1.46049e-09
5.07315e-08
1.42988e-09
5.07792e-08
1.40015e-09
5.08257e-08
1.37211e-09
5.08711e-08
1.34525e-09
5.09155e-08
1.31813e-09
5.09591e-08
1.29096e-09
5.10017e-08
1.26527e-09
5.10432e-08
1.24069e-09
5.10841e-08
1.21505e-09
5.11244e-08
1.1883e-09
5.11637e-08
1.16288e-09
5.12019e-08
1.13912e-09
5.12393e-08
1.11388e-09
5.12761e-08
1.08567e-09
5.1312e-08
1.0577e-09
5.13466e-08
1.03256e-09
5.13797e-08
1.00711e-09
5.1412e-08
9.76889e-10
5.14434e-08
9.43702e-10
5.14734e-08
9.13463e-10
5.15011e-08
8.86662e-10
5.15269e-08
8.5659e-10
5.15517e-08
8.19244e-10
5.15753e-08
7.80346e-10
5.15965e-08
7.47919e-10
5.16146e-08
7.20329e-10
5.16301e-08
6.87628e-10
5.16443e-08
6.45589e-10
5.16578e-08
6.03185e-10
5.1669e-08
5.72098e-10
5.16764e-08
5.51365e-10
5.16806e-08
5.27578e-10
5.1684e-08
4.91607e-10
5.16887e-08
4.5128e-10
5.16937e-08
4.23831e-10
5.16961e-08
4.16102e-10
5.16943e-08
4.15313e-10
5.16901e-08
4.016e-10
5.16877e-08
3.69138e-10
5.16894e-08
3.33539e-10
5.16934e-08
3.17338e-10
5.16945e-08
3.27857e-10
5.16889e-08
3.48848e-10
5.16775e-08
3.53665e-10
5.16662e-08
3.28225e-10
5.16612e-08
2.83673e-10
5.16643e-08
2.48699e-10
5.16708e-08
2.48098e-10
5.16719e-08
2.84294e-10
5.16607e-08
3.35052e-10
5.16367e-08
3.6776e-10
5.16067e-08
3.59793e-10
5.15814e-08
3.11997e-10
5.15702e-08
2.48068e-10
5.1576e-08
2.021e-10
5.15933e-08
2.01868e-10
5.16104e-08
2.57068e-10
5.16132e-08
3.56715e-10
5.15901e-08
4.75615e-10
5.15357e-08
5.84735e-10
5.14513e-08
6.61073e-10
5.13438e-08
6.92606e-10
5.1223e-08
6.79224e-10
5.10993e-08
6.29038e-10
5.09812e-08
5.54888e-10
5.08745e-08
4.69367e-10
5.07824e-08
3.83561e-10
5.07058e-08
3.04264e-10
5.06439e-08
2.3615e-10
5.0595e-08
1.79655e-10
5.0557e-08
1.3548e-10
5.0528e-08
1.00654e-10
5.05057e-08
7.54146e-11
5.04891e-08
5.52409e-11
5.04762e-08
4.22215e-11
5.04669e-08
3.01794e-11
5.04592e-08
2.47362e-11
1.61944e-11
4.98419e-08
1.79379e-10
4.99313e-08
5.29089e-10
5.00742e-08
8.70342e-10
5.02578e-08
1.17783e-09
5.04587e-08
1.43079e-09
5.06595e-08
1.61543e-09
5.08504e-08
1.73671e-09
5.10298e-08
1.80763e-09
5.11978e-08
1.84261e-09
5.13527e-08
1.85111e-09
5.14913e-08
1.83779e-09
5.1612e-08
1.8066e-09
5.17155e-08
1.76318e-09
5.18049e-08
1.71397e-09
5.18841e-08
1.66442e-09
5.19559e-08
1.61806e-09
5.20221e-08
1.57634e-09
5.20841e-08
1.53861e-09
5.21427e-08
1.50335e-09
5.21984e-08
1.47001e-09
5.22516e-08
1.43878e-09
5.2303e-08
1.40909e-09
5.2353e-08
1.37993e-09
5.24015e-08
1.35159e-09
5.24487e-08
1.32493e-09
5.24948e-08
1.29919e-09
5.254e-08
1.27294e-09
5.25842e-08
1.24675e-09
5.26273e-08
1.22216e-09
5.26695e-08
1.19844e-09
5.27112e-08
1.1734e-09
5.27521e-08
1.14738e-09
5.2792e-08
1.12297e-09
5.2831e-08
1.1001e-09
5.28695e-08
1.07538e-09
5.29074e-08
1.04778e-09
5.29442e-08
1.02089e-09
5.29798e-08
9.96988e-10
5.30145e-08
9.7237e-10
5.30487e-08
9.4277e-10
5.30817e-08
9.10671e-10
5.3113e-08
8.8213e-10
5.31427e-08
8.56976e-10
5.31713e-08
8.27997e-10
5.31989e-08
7.91638e-10
5.32248e-08
7.5443e-10
5.32483e-08
7.24435e-10
5.32695e-08
6.99156e-10
5.32891e-08
6.67978e-10
5.33077e-08
6.27069e-10
5.33245e-08
5.86387e-10
5.33386e-08
5.57963e-10
5.33499e-08
5.40013e-10
5.33596e-08
5.17948e-10
5.33688e-08
4.82365e-10
5.3378e-08
4.42098e-10
5.33861e-08
4.15704e-10
5.33919e-08
4.10286e-10
5.33954e-08
4.11853e-10
5.33981e-08
3.98897e-10
5.34021e-08
3.65134e-10
5.34081e-08
3.27574e-10
5.34144e-08
3.11027e-10
5.34182e-08
3.24022e-10
5.34178e-08
3.4921e-10
5.34144e-08
3.57125e-10
5.34114e-08
3.31261e-10
5.34123e-08
2.82767e-10
5.34179e-08
2.43106e-10
5.3425e-08
2.40938e-10
5.34283e-08
2.81044e-10
5.34231e-08
3.40242e-10
5.34089e-08
3.81934e-10
5.33901e-08
3.78602e-10
5.33741e-08
3.28028e-10
5.33677e-08
2.54394e-10
5.3374e-08
1.95784e-10
5.33901e-08
1.85784e-10
5.34078e-08
2.39354e-10
5.34164e-08
3.48122e-10
5.3406e-08
4.86007e-10
5.33707e-08
6.20087e-10
5.33096e-08
7.22129e-10
5.3227e-08
7.7524e-10
5.313e-08
7.76207e-10
5.3027e-08
7.32046e-10
5.29255e-08
6.56415e-10
5.28312e-08
5.63636e-10
5.27477e-08
4.67099e-10
5.26765e-08
3.75419e-10
5.26176e-08
2.95024e-10
5.25703e-08
2.27041e-10
5.25327e-08
1.73089e-10
5.25035e-08
1.29832e-10
5.24807e-08
9.81467e-11
5.24636e-08
7.24027e-11
5.24501e-08
5.56994e-11
5.24403e-08
3.99688e-11
5.24322e-08
3.28837e-11
2.15087e-11
5.16872e-08
1.53923e-10
5.17613e-08
4.54928e-10
5.18806e-08
7.51017e-10
5.20365e-08
1.02193e-09
5.22133e-08
1.25401e-09
5.23955e-08
1.4333e-09
5.25727e-08
1.55949e-09
5.27405e-08
1.63983e-09
5.2898e-08
1.68511e-09
5.30445e-08
1.70462e-09
5.31782e-08
1.70403e-09
5.32976e-08
1.68726e-09
5.34023e-08
1.65848e-09
5.3494e-08
1.62222e-09
5.35756e-08
1.5828e-09
5.36497e-08
1.54397e-09
5.37182e-08
1.50789e-09
5.37823e-08
1.47448e-09
5.38429e-08
1.44274e-09
5.39005e-08
1.41248e-09
5.39554e-08
1.38388e-09
5.40082e-08
1.35621e-09
5.40595e-08
1.3287e-09
5.41091e-08
1.30197e-09
5.41572e-08
1.27678e-09
5.42043e-08
1.25214e-09
5.42504e-08
1.22687e-09
5.42953e-08
1.20184e-09
5.4339e-08
1.17841e-09
5.4382e-08
1.15547e-09
5.44244e-08
1.13103e-09
5.44658e-08
1.10595e-09
5.45061e-08
1.08265e-09
5.45457e-08
1.06051e-09
5.45849e-08
1.03621e-09
5.46233e-08
1.00941e-09
5.46603e-08
9.83833e-10
5.46963e-08
9.61024e-10
5.47318e-08
9.36897e-10
5.47666e-08
9.07904e-10
5.48e-08
8.77265e-10
5.48316e-08
8.50565e-10
5.4862e-08
8.2661e-10
5.48917e-08
7.98214e-10
5.49204e-08
7.62977e-10
5.49468e-08
7.28025e-10
5.49707e-08
7.00518e-10
5.49931e-08
6.76759e-10
5.50148e-08
6.46324e-10
5.50351e-08
6.06732e-10
5.50529e-08
5.68642e-10
5.50677e-08
5.43148e-10
5.50807e-08
5.27e-10
5.50933e-08
5.05358e-10
5.51056e-08
4.70031e-10
5.51166e-08
4.31101e-10
5.51253e-08
4.07014e-10
5.5132e-08
4.03572e-10
5.51382e-08
4.05669e-10
5.51452e-08
3.91945e-10
5.5153e-08
3.57329e-10
5.51605e-08
3.20009e-10
5.51665e-08
3.05042e-10
5.51703e-08
3.20202e-10
5.51725e-08
3.47004e-10
5.51745e-08
3.55185e-10
5.51775e-08
3.28213e-10
5.51823e-08
2.78011e-10
5.51881e-08
2.37285e-10
5.51932e-08
2.3586e-10
5.51952e-08
2.78976e-10
5.51927e-08
3.42753e-10
5.51858e-08
3.88818e-10
5.51769e-08
3.87504e-10
5.51698e-08
3.3515e-10
5.51682e-08
2.56038e-10
5.51738e-08
1.90138e-10
5.51854e-08
1.74166e-10
5.51984e-08
2.26369e-10
5.5206e-08
3.40522e-10
5.52013e-08
4.90736e-10
5.51792e-08
6.42167e-10
5.5138e-08
7.63354e-10
5.50794e-08
8.33884e-10
5.50077e-08
8.47898e-10
5.49287e-08
8.10988e-10
5.48483e-08
7.36858e-10
5.47712e-08
6.40676e-10
5.47009e-08
5.37392e-10
5.46394e-08
4.36941e-10
5.45872e-08
3.4725e-10
5.45442e-08
2.70066e-10
5.45093e-08
2.07987e-10
5.44817e-08
1.5742e-10
5.44598e-08
1.20017e-10
5.44431e-08
8.91438e-11
5.44298e-08
6.90189e-11
5.442e-08
4.97315e-11
5.44118e-08
4.10764e-11
2.6887e-11
5.36024e-08
1.32689e-10
5.36646e-08
3.92765e-10
5.37652e-08
6.50359e-10
5.3898e-08
8.89127e-10
5.40528e-08
1.09926e-09
5.42165e-08
1.26959e-09
5.43797e-08
1.39632e-09
5.45365e-08
1.48304e-09
5.46846e-08
1.53697e-09
5.48233e-08
1.56586e-09
5.49518e-08
1.57558e-09
5.50687e-08
1.57035e-09
5.51735e-08
1.5537e-09
5.52669e-08
1.52881e-09
5.53507e-08
1.49899e-09
5.5427e-08
1.4677e-09
5.54975e-08
1.43732e-09
5.55638e-08
1.40825e-09
5.56264e-08
1.3801e-09
5.56859e-08
1.35303e-09
5.57426e-08
1.32714e-09
5.57972e-08
1.30162e-09
5.58499e-08
1.27596e-09
5.59009e-08
1.25102e-09
5.59503e-08
1.22736e-09
5.59986e-08
1.20387e-09
5.60458e-08
1.17969e-09
5.60916e-08
1.15597e-09
5.61363e-08
1.13371e-09
5.61803e-08