/*--------------------------------*- C++ -*----------------------------------*\
| =========                 |                                                 |
| \\      /  F ield         | OpenFOAM: The Open Source CFD Toolbox           |
|  \\    /   O peration     | Version:  2.3.0                                 |
|   \\  /    A nd           | Web:      www.OpenFOAM.org                      |
|    \\/     M anipulation  |                                                 |
\*---------------------------------------------------------------------------*/
FoamFile
{
    version     2.0;
    format      ascii;
    class       volVectorField;
    location    "0.2";
    object      U;
}
// * * * * * * * * * * * * * * * * * * * * * * * * * * * * * * * * * * * * * //

dimensions      [0 1 -1 0 0 0 0];

internalField   nonuniform List<vector> 
2700
(
(0.188981 0.00340191 0)
(0.175075 0.00574074 0)
(0.159252 0.00577871 0)
(0.14138 0.00534386 0)
(0.123028 0.00494584 0)
(0.105663 0.00441664 0)
(0.0904209 0.00366409 0)
(0.07779 0.00270994 0)
(0.0677837 0.00172735 0)
(0.0601588 0.000920657 0)
(0.0545079 0.000378482 0)
(0.0503894 7.07444e-05 0)
(0.0473967 -7.35102e-05 0)
(0.0451819 -0.00011488 0)
(0.0434766 -9.95714e-05 0)
(0.0420875 -5.99e-05 0)
(0.0408846 -1.60524e-05 0)
(0.0397899 2.09967e-05 0)
(0.0387634 4.73225e-05 0)
(0.0377882 6.33212e-05 0)
(0.0368601 7.12261e-05 0)
(0.0359796 7.35548e-05 0)
(0.0351482 7.24306e-05 0)
(0.0343664 6.94122e-05 0)
(0.0336337 6.55275e-05 0)
(0.032948 6.13872e-05 0)
(0.0323069 5.73236e-05 0)
(0.0317072 5.34987e-05 0)
(0.0311459 4.99673e-05 0)
(0.03062 4.67228e-05 0)
(0.0301266 4.37425e-05 0)
(0.0296632 4.10033e-05 0)
(0.0292277 3.84748e-05 0)
(0.0288181 3.61202e-05 0)
(0.0284328 3.39134e-05 0)
(0.0280703 3.18388e-05 0)
(0.0277296 2.98856e-05 0)
(0.0274094 2.80329e-05 0)
(0.0271091 2.62526e-05 0)
(0.0268279 2.45311e-05 0)
(0.0265651 2.28781e-05 0)
(0.0263203 2.12924e-05 0)
(0.0260929 1.97378e-05 0)
(0.0258825 1.81835e-05 0)
(0.0256891 1.66376e-05 0)
(0.0255121 1.51252e-05 0)
(0.0253513 1.36354e-05 0)
(0.0252064 1.21252e-05 0)
(0.0250772 1.05702e-05 0)
(0.0249637 9.01075e-06 0)
(0.0248654 7.52747e-06 0)
(0.0247813 6.17153e-06 0)
(0.0247101 4.94497e-06 0)
(0.0246504 3.84795e-06 0)
(0.0246005 2.94199e-06 0)
(0.0245583 2.31436e-06 0)
(0.0245211 1.98818e-06 0)
(0.0244869 1.87275e-06 0)
(0.0244541 1.82875e-06 0)
(0.0244224 1.78518e-06 0)
(0.0243914 1.77194e-06 0)
(0.0243606 1.85698e-06 0)
(0.0243294 2.03325e-06 0)
(0.0242975 2.19623e-06 0)
(0.0242651 2.2211e-06 0)
(0.0242335 2.06464e-06 0)
(0.0242035 1.81254e-06 0)
(0.0241756 1.6109e-06 0)
(0.024149 1.56013e-06 0)
(0.0241228 1.63461e-06 0)
(0.0240966 1.70466e-06 0)
(0.0240709 1.63841e-06 0)
(0.0240468 1.38233e-06 0)
(0.0240257 9.98578e-07 0)
(0.0240082 6.26515e-07 0)
(0.0239939 4.10139e-07 0)
(0.0239814 4.30551e-07 0)
(0.0239693 6.5867e-07 0)
(0.0239563 9.81646e-07 0)
(0.0239422 1.26434e-06 0)
(0.0239274 1.40904e-06 0)
(0.023913 1.38761e-06 0)
(0.0239001 1.22551e-06 0)
(0.0238895 9.78929e-07 0)
(0.0238815 7.0639e-07 0)
(0.0238761 4.5282e-07 0)
(0.0238731 2.40532e-07 0)
(0.023872 7.15543e-08 0)
(0.0238723 -8.79171e-08 0)
(0.0238735 -1.71117e-07 0)
(0.0238753 -2.1814e-07 0)
(0.0238772 -2.29602e-07 0)
(0.0238793 -2.22264e-07 0)
(0.0238812 -1.98504e-07 0)
(0.0238829 -1.72484e-07 0)
(0.0238844 -1.39273e-07 0)
(0.0238856 -1.12182e-07 0)
(0.0238865 -7.93053e-08 0)
(0.0238872 -6.01052e-08 0)
(0.0238877 -3.36769e-08 0)
(0.200079 0.00563377 0)
(0.202858 0.0102958 0)
(0.203844 0.0111989 0)
(0.202052 0.0110633 0)
(0.197799 0.0108795 0)
(0.191833 0.0105318 0)
(0.184959 0.00983288 0)
(0.177645 0.00873093 0)
(0.170189 0.00735917 0)
(0.162827 0.00593634 0)
(0.155726 0.00464491 0)
(0.149015 0.00357505 0)
(0.142794 0.00274253 0)
(0.137105 0.00212306 0)
(0.131951 0.00168171 0)
(0.127301 0.00137998 0)
(0.123099 0.00117819 0)
(0.119287 0.00104127 0)
(0.115809 0.000942885 0)
(0.11262 0.000865966 0)
(0.109682 0.000800765 0)
(0.106964 0.000742282 0)
(0.104442 0.000688279 0)
(0.102096 0.000637974 0)
(0.0999093 0.000591188 0)
(0.0978663 0.000547898 0)
(0.0959546 0.000508071 0)
(0.0941631 0.000471601 0)
(0.0924819 0.000438274 0)
(0.0909022 0.000407788 0)
(0.0894164 0.000379834 0)
(0.0880178 0.000354122 0)
(0.0867005 0.000330369 0)
(0.0854595 0.000308286 0)
(0.0842903 0.000287632 0)
(0.0831893 0.000268224 0)
(0.0821532 0.000249927 0)
(0.0811792 0.000232587 0)
(0.0802649 0.000216035 0)
(0.0794084 0.000200164 0)
(0.078608 0.000184963 0)
(0.0778621 0.000170405 0)
(0.0771693 0.00015635 0)
(0.0765285 0.000142682 0)
(0.0759389 0.000129429 0)
(0.0753993 0.00011669 0)
(0.0749085 0.000104445 0)
(0.0744653 9.25743e-05 0)
(0.0740684 8.103e-05 0)
(0.0737164 6.99931e-05 0)
(0.0734068 5.97945e-05 0)
(0.0731363 5.0675e-05 0)
(0.0729012 4.2698e-05 0)
(0.0726969 3.58839e-05 0)
(0.0725188 3.04061e-05 0)
(0.0723615 2.64724e-05 0)
(0.0722197 2.40439e-05 0)
(0.0720886 2.26982e-05 0)
(0.0719649 2.18586e-05 0)
(0.0718468 2.11854e-05 0)
(0.0717328 2.069e-05 0)
(0.0716218 2.05388e-05 0)
(0.0715126 2.06875e-05 0)
(0.0714047 2.07919e-05 0)
(0.0712985 2.04421e-05 0)
(0.0711951 1.94913e-05 0)
(0.0710955 1.82116e-05 0)
(0.0709998 1.7069e-05 0)
(0.0709073 1.63795e-05 0)
(0.0708168 1.60576e-05 0)
(0.0707282 1.56789e-05 0)
(0.0706421 1.48073e-05 0)
(0.0705601 1.32719e-05 0)
(0.0704837 1.12961e-05 0)
(0.0704136 9.35851e-06 0)
(0.0703493 7.9353e-06 0)
(0.0702899 7.2779e-06 0)
(0.0702339 7.28379e-06 0)
(0.070181 7.59397e-06 0)
(0.0701314 7.78279e-06 0)
(0.0700863 7.54451e-06 0)
(0.070047 6.80321e-06 0)
(0.0700145 5.66019e-06 0)
(0.0699893 4.31663e-06 0)
(0.0699711 2.97547e-06 0)
(0.069959 1.7792e-06 0)
(0.069952 8.06498e-07 0)
(0.0699489 6.58885e-08 0)
(0.0699486 -4.9266e-07 0)
(0.0699501 -7.91467e-07 0)
(0.0699527 -9.43413e-07 0)
(0.0699558 -9.67831e-07 0)
(0.069959 -9.22787e-07 0)
(0.069962 -8.21178e-07 0)
(0.0699648 -7.13576e-07 0)
(0.0699671 -5.78603e-07 0)
(0.069969 -4.7147e-07 0)
(0.0699705 -3.35294e-07 0)
(0.0699716 -2.62067e-07 0)
(0.0699727 -1.47763e-07 0)
(0.200022 0.00371256 0)
(0.202939 0.00827205 0)
(0.206299 0.01008 0)
(0.208906 0.0106218 0)
(0.210346 0.0108952 0)
(0.210716 0.0110295 0)
(0.210249 0.010841 0)
(0.209073 0.0102362 0)
(0.207247 0.00929889 0)
(0.204842 0.00820569 0)
(0.201962 0.00712939 0)
(0.198737 0.00617606 0)
(0.195308 0.00538148 0)
(0.19179 0.00473542 0)
(0.18827 0.00421449 0)
(0.184799 0.00379419 0)
(0.181399 0.0034506 0)
(0.17808 0.00316281 0)
(0.174848 0.00291455 0)
(0.171704 0.00269456 0)
(0.168652 0.00249581 0)
(0.165693 0.00231412 0)
(0.162831 0.00214703 0)
(0.160066 0.00199308 0)
(0.1574 0.0018513 0)
(0.154833 0.00172084 0)
(0.152366 0.00160088 0)
(0.149998 0.00149067 0)
(0.147727 0.00138938 0)
(0.145552 0.00129611 0)
(0.143471 0.00121001 0)
(0.141481 0.00113032 0)
(0.139581 0.00105632 0)
(0.137768 0.000987262 0)
(0.136039 0.000922508 0)
(0.134393 0.000861541 0)
(0.132828 0.000803948 0)
(0.131342 0.000749299 0)
(0.129933 0.000697136 0)
(0.128601 0.000647136 0)
(0.127343 0.000599188 0)
(0.126159 0.000553175 0)
(0.125049 0.000508777 0)
(0.12401 0.000465729 0)
(0.123043 0.000424062 0)
(0.122146 0.000383988 0)
(0.121319 0.000345523 0)
(0.12056 0.000308481 0)
(0.119868 0.000272827 0)
(0.119241 0.000238987 0)
(0.118676 0.000207684 0)
(0.118169 0.00017947 0)
(0.117716 0.00015456 0)
(0.117312 0.00013309 0)
(0.116951 0.000115443 0)
(0.116628 0.000101987 0)
(0.116335 9.25312e-05 0)
(0.116066 8.61098e-05 0)
(0.115816 8.14501e-05 0)
(0.115582 7.77357e-05 0)
(0.115361 7.48341e-05 0)
(0.11515 7.29297e-05 0)
(0.114947 7.18418e-05 0)
(0.11475 7.08508e-05 0)
(0.114559 6.91355e-05 0)
(0.114373 6.63931e-05 0)
(0.114195 6.31225e-05 0)
(0.114022 6.01923e-05 0)
(0.113853 5.81841e-05 0)
(0.113688 5.69256e-05 0)
(0.113525 5.55968e-05 0)
(0.113366 5.33288e-05 0)
(0.11321 4.97352e-05 0)
(0.113059 4.51658e-05 0)
(0.112913 4.04532e-05 0)
(0.112771 3.64267e-05 0)
(0.112632 3.35109e-05 0)
(0.112498 3.15183e-05 0)
(0.112369 2.98455e-05 0)
(0.112248 2.78106e-05 0)
(0.112138 2.49753e-05 0)
(0.112042 2.13242e-05 0)
(0.111961 1.71493e-05 0)
(0.111897 1.28872e-05 0)
(0.111849 8.94808e-06 0)
(0.111813 5.59132e-06 0)
(0.111789 2.92276e-06 0)
(0.111774 9.62468e-07 0)
(0.111765 -3.89403e-07 0)
(0.11176 -1.27072e-06 0)
(0.111758 -1.73722e-06 0)
(0.111758 -1.88035e-06 0)
(0.11176 -1.8392e-06 0)
(0.111761 -1.65826e-06 0)
(0.111763 -1.45956e-06 0)
(0.111765 -1.1931e-06 0)
(0.111767 -9.88377e-07 0)
(0.111768 -7.08669e-07 0)
(0.111769 -5.68374e-07 0)
(0.11177 -3.17302e-07 0)
(0.200008 0.00252611 0)
(0.201847 0.00633 0)
(0.204533 0.00841947 0)
(0.207327 0.00932236 0)
(0.209693 0.00974853 0)
(0.211536 0.00999844 0)
(0.212951 0.0100206 0)
(0.213992 0.00972982 0)
(0.214635 0.00914815 0)
(0.214837 0.00838963 0)
(0.214594 0.00759049 0)
(0.213954 0.00685207 0)
(0.213002 0.00622041 0)
(0.211827 0.00569983 0)
(0.210501 0.00527307 0)
(0.209073 0.00491843 0)
(0.20757 0.0046175 0)
(0.206004 0.00435575 0)
(0.204383 0.00412195 0)
(0.202715 0.00390793 0)
(0.201006 0.00370824 0)
(0.19926 0.0035195 0)
(0.197486 0.0033398 0)
(0.195691 0.00316824 0)
(0.193882 0.00300443 0)
(0.192065 0.0028481 0)
(0.190249 0.00269907 0)
(0.188438 0.00255719 0)
(0.18664 0.00242221 0)
(0.184859 0.0022937 0)
(0.1831 0.00217126 0)
(0.181368 0.00205452 0)
(0.179666 0.00194306 0)
(0.177998 0.00183635 0)
(0.176367 0.00173395 0)
(0.174777 0.00163548 0)
(0.173231 0.00154065 0)
(0.171729 0.0014491 0)
(0.170276 0.00136035 0)
(0.168874 0.00127409 0)
(0.167524 0.00119028 0)
(0.166228 0.00110885 0)
(0.164989 0.00102944 0)
(0.163807 0.000951742 0)
(0.162685 0.000875834 0)
(0.161624 0.000802082 0)
(0.160624 0.000730634 0)
(0.159686 0.000661358 0)
(0.15881 0.000594281 0)
(0.157997 0.000530076 0)
(0.157244 0.0004699 0)
(0.15655 0.000414687 0)
(0.155911 0.000364848 0)
(0.155326 0.000320634 0)
(0.154791 0.000282691 0)
(0.154301 0.000251729 0)
(0.153851 0.000227696 0)
(0.153435 0.000209357 0)
(0.153049 0.000194874 0)
(0.152691 0.000182935 0)
(0.152357 0.00017317 0)
(0.152042 0.000165713 0)
(0.151741 0.000160229 0)
(0.151453 0.000155617 0)
(0.151177 0.000150608 0)
(0.150914 0.00014464 0)
(0.150663 0.000138284 0)
(0.150421 0.000132665 0)
(0.150184 0.000128548 0)
(0.149949 0.000125708 0)
(0.149716 0.000123072 0)
(0.149487 0.000119542 0)
(0.149265 0.000114663 0)
(0.149049 0.00010888 0)
(0.148837 0.000103129 0)
(0.148623 9.81613e-05 0)
(0.148402 9.40888e-05 0)
(0.148171 9.02327e-05 0)
(0.147932 8.55231e-05 0)
(0.147693 7.90333e-05 0)
(0.147462 7.04021e-05 0)
(0.14725 6.00161e-05 0)
(0.147062 4.87519e-05 0)
(0.146904 3.76331e-05 0)
(0.146775 2.75287e-05 0)
(0.146675 1.89655e-05 0)
(0.1466 1.21356e-05 0)
(0.146545 7.01536e-06 0)
(0.146507 3.36879e-06 0)
(0.146481 8.89642e-07 0)
(0.146463 -6.38337e-07 0)
(0.146452 -1.43218e-06 0)
(0.146445 -1.85089e-06 0)
(0.146441 -1.89443e-06 0)
(0.146439 -1.79994e-06 0)
(0.146437 -1.53034e-06 0)
(0.146437 -1.31467e-06 0)
(0.146436 -9.52317e-07 0)
(0.146436 -7.85552e-07 0)
(0.146435 -4.19703e-07 0)
(0.200008 0.00186484 0)
(0.201221 0.00499574 0)
(0.203187 0.0071163 0)
(0.205507 0.00823882 0)
(0.207721 0.00876673 0)
(0.209626 0.00902421 0)
(0.211245 0.0090905 0)
(0.212643 0.00893351 0)
(0.213827 0.0085478 0)
(0.214759 0.00799651 0)
(0.215404 0.00737911 0)
(0.215766 0.00678453 0)
(0.215888 0.00626388 0)
(0.21583 0.00583109 0)
(0.215646 0.00547639 0)
(0.215376 0.00518218 0)
(0.215038 0.00493271 0)
(0.214642 0.00471601 0)
(0.214191 0.00452289 0)
(0.213684 0.0043464 0)
(0.213122 0.00418156 0)
(0.212506 0.00402489 0)
(0.211836 0.00387414 0)
(0.211116 0.00372819 0)
(0.210349 0.00358661 0)
(0.209537 0.00344899 0)
(0.208685 0.00331506 0)
(0.207796 0.00318488 0)
(0.206875 0.00305844 0)
(0.205925 0.00293535 0)
(0.20495 0.00281526 0)
(0.203955 0.00269817 0)
(0.202944 0.00258397 0)
(0.201919 0.00247214 0)
(0.200885 0.00236218 0)
(0.199846 0.00225411 0)
(0.198806 0.00214805 0)
(0.197768 0.00204357 0)
(0.196734 0.00193998 0)
(0.19571 0.00183719 0)
(0.1947 0.00173572 0)
(0.193706 0.00163563 0)
(0.192729 0.00153617 0)
(0.191774 0.00143696 0)
(0.190845 0.00133865 0)
(0.189947 0.00124214 0)
(0.189078 0.00114747 0)
(0.188239 0.0010541 0)
(0.187435 0.000962254 0)
(0.18667 0.000873455 0)
(0.185944 0.000789541 0)
(0.185254 0.000711298 0)
(0.184598 0.000638658 0)
(0.183979 0.000572041 0)
(0.1834 0.000513094 0)
(0.182861 0.000463433 0)
(0.182354 0.000422899 0)
(0.181874 0.000389368 0)
(0.18142 0.000360429 0)
(0.180995 0.000335239 0)
(0.180601 0.000314423 0)
(0.180234 0.00029848 0)
(0.179882 0.000286214 0)
(0.17954 0.000275052 0)
(0.179207 0.000262913 0)
(0.178891 0.000249771 0)
(0.178598 0.000237618 0)
(0.178324 0.000228605 0)
(0.17806 0.000223197 0)
(0.177792 0.000219646 0)
(0.177515 0.000215201 0)
(0.177235 0.000208158 0)
(0.176962 0.000198998 0)
(0.176708 0.000190117 0)
(0.176471 0.000184265 0)
(0.176241 0.000182791 0)
(0.175999 0.000184814 0)
(0.175729 0.000187454 0)
(0.175421 0.000187138 0)
(0.175077 0.000181057 0)
(0.174711 0.00016813 0)
(0.174343 0.000149211 0)
(0.173992 0.000126456 0)
(0.173675 0.000102451 0)
(0.173401 7.95004e-05 0)
(0.173174 5.91475e-05 0)
(0.172993 4.22016e-05 0)
(0.172853 2.88232e-05 0)
(0.172748 1.87602e-05 0)
(0.172671 1.1575e-05 0)
(0.172616 6.63915e-06 0)
(0.172576 3.43486e-06 0)
(0.172549 1.36134e-06 0)
(0.172529 2.05986e-07 0)
(0.172516 -4.28102e-07 0)
(0.172506 -6.32907e-07 0)
(0.1725 -7.10709e-07 0)
(0.172494 -5.37794e-07 0)
(0.172492 -4.77325e-07 0)
(0.172488 -1.77357e-07 0)
(0.200006 0.00145115 0)
(0.200859 0.00404431 0)
(0.202315 0.00602651 0)
(0.204166 0.00725248 0)
(0.206079 0.00788274 0)
(0.207819 0.00817258 0)
(0.209331 0.00826412 0)
(0.210653 0.00818204 0)
(0.211817 0.00792288 0)
(0.212812 0.00751673 0)
(0.213617 0.00703015 0)
(0.214222 0.00653683 0)
(0.214651 0.00608907 0)
(0.214945 0.00570886 0)
(0.215149 0.00539458 0)
(0.215295 0.0051337 0)
(0.215405 0.00491297 0)
(0.215486 0.00472199 0)
(0.21554 0.00455277 0)
(0.215566 0.00439922 0)
(0.215561 0.00425709 0)
(0.215525 0.00412319 0)
(0.215455 0.00399503 0)
(0.21535 0.00387115 0)
(0.215212 0.00375113 0)
(0.21504 0.00363444 0)
(0.214834 0.00352031 0)
(0.214595 0.00340858 0)
(0.214326 0.00329954 0)
(0.214025 0.0031928 0)
(0.213694 0.00308743 0)
(0.213336 0.00298332 0)
(0.212952 0.00288099 0)
(0.212544 0.00277998 0)
(0.21211 0.00267899 0)
(0.211656 0.00257778 0)
(0.211185 0.00247739 0)
(0.210696 0.00237791 0)
(0.21019 0.00227765 0)
(0.209669 0.00217566 0)
(0.20914 0.00207336 0)
(0.208605 0.00197215 0)
(0.208061 0.0018708 0)
(0.207509 0.00176726 0)
(0.206956 0.0016621 0)
(0.206408 0.0015582 0)
(0.205864 0.00145672 0)
(0.205321 0.00135569 0)
(0.20478 0.00125343 0)
(0.20425 0.00115217 0)
(0.203737 0.0010565 0)
(0.203239 0.000968386 0)
(0.202747 0.000885705 0)
(0.202262 0.000806283 0)
(0.201795 0.000732318 0)
(0.201356 0.000668871 0)
(0.20094 0.000618151 0)
(0.200536 0.000576462 0)
(0.200135 0.000537641 0)
(0.199748 0.000499311 0)
(0.199387 0.000464809 0)
(0.199058 0.000439004 0)
(0.198749 0.000422238 0)
(0.19844 0.000408897 0)
(0.198122 0.000392006 0)
(0.197807 0.000369297 0)
(0.197514 0.00034533 0)
(0.197256 0.000327589 0)
(0.197023 0.000320285 0)
(0.196792 0.000320797 0)
(0.196538 0.000321409 0)
(0.196256 0.000314885 0)
(0.195961 0.000299379 0)
(0.195681 0.00027969 0)
(0.195437 0.000264286 0)
(0.195232 0.000260313 0)
(0.195042 0.000269754 0)
(0.194831 0.000288349 0)
(0.194563 0.000307767 0)
(0.19422 0.000319291 0)
(0.193802 0.000317092 0)
(0.193329 0.000299727 0)
(0.192832 0.000269629 0)
(0.192343 0.000231425 0)
(0.191891 0.000190237 0)
(0.191493 0.000150295 0)
(0.191159 0.000114539 0)
(0.190888 8.44338e-05 0)
(0.190676 6.04011e-05 0)
(0.190513 4.20278e-05 0)
(0.190393 2.85311e-05 0)
(0.190303 1.89398e-05 0)
(0.190239 1.23658e-05 0)
(0.190191 7.96805e-06 0)
(0.190159 5.10666e-06 0)
(0.190133 3.26393e-06 0)
(0.190117 2.15382e-06 0)
(0.190101 1.46762e-06 0)
(0.190095 1.11558e-06 0)
(0.190083 8.9525e-07 0)
(0.200005 0.0011683 0)
(0.200632 0.00332647 0)
(0.20173 0.00509676 0)
(0.203194 0.0063232 0)
(0.204804 0.00703014 0)
(0.206349 0.00737605 0)
(0.207728 0.0075051 0)
(0.208936 0.00747953 0)
(0.209999 0.0073125 0)
(0.210925 0.00702028 0)
(0.211706 0.00664416 0)
(0.212336 0.00623977 0)
(0.212824 0.00585522 0)
(0.213201 0.00551761 0)
(0.213502 0.00523289 0)
(0.213757 0.00499399 0)
(0.213986 0.00479061 0)
(0.214201 0.00461396 0)
(0.214405 0.00445703 0)
(0.214597 0.00431444 0)
(0.214776 0.00418285 0)
(0.214942 0.0040599 0)
(0.215091 0.00394304 0)
(0.215225 0.00383057 0)
(0.215342 0.0037223 0)
(0.215442 0.00361792 0)
(0.215523 0.00351608 0)
(0.215587 0.00341615 0)
(0.215634 0.00331894 0)
(0.215662 0.00322442 0)
(0.215671 0.00313089 0)
(0.215661 0.00303761 0)
(0.215636 0.00294589 0)
(0.215592 0.00285603 0)
(0.215529 0.00276577 0)
(0.215447 0.00267362 0)
(0.215351 0.00258145 0)
(0.215239 0.00249098 0)
(0.215109 0.00239993 0)
(0.214959 0.00230514 0)
(0.214797 0.00220787 0)
(0.214624 0.00211204 0)
(0.214438 0.00201752 0)
(0.214232 0.0019198 0)
(0.214012 0.00181705 0)
(0.213787 0.00171377 0)
(0.213558 0.00161474 0)
(0.213315 0.00151806 0)
(0.213056 0.00141802 0)
(0.212788 0.0013144 0)
(0.212524 0.00121482 0)
(0.212265 0.00112598 0)
(0.211996 0.00104557 0)
(0.211713 0.000966043 0)
(0.211425 0.000885769 0)
(0.211151 0.000812812 0)
(0.210897 0.000756104 0)
(0.210648 0.000714441 0)
(0.210386 0.000676678 0)
(0.210112 0.000633401 0)
(0.209849 0.000586883 0)
(0.209617 0.000548654 0)
(0.209413 0.000526976 0)
(0.20921 0.00051743 0)
(0.208983 0.000506001 0)
(0.208732 0.000481442 0)
(0.208484 0.000445548 0)
(0.208271 0.000411931 0)
(0.208104 0.00039503 0)
(0.207957 0.000398476 0)
(0.207791 0.00041199 0)
(0.207575 0.000418736 0)
(0.207311 0.000406837 0)
(0.207035 0.00037715 0)
(0.206792 0.000342671 0)
(0.20661 0.000320844 0)
(0.206485 0.000324117 0)
(0.206379 0.000353682 0)
(0.206235 0.000399535 0)
(0.206004 0.000445579 0)
(0.205657 0.00047653 0)
(0.205197 0.000483026 0)
(0.204652 0.000463303 0)
(0.204064 0.000421683 0)
(0.203478 0.000365917 0)
(0.20293 0.000304144 0)
(0.202446 0.000243362 0)
(0.202035 0.000188224 0)
(0.201702 0.000141416 0)
(0.201438 0.000103586 0)
(0.201236 7.44176e-05 0)
(0.201082 5.25786e-05 0)
(0.20097 3.68534e-05 0)
(0.200885 2.55909e-05 0)
(0.200826 1.79254e-05 0)
(0.200778 1.2423e-05 0)
(0.200749 8.98921e-06 0)
(0.20072 6.26652e-06 0)
(0.200707 4.97165e-06 0)
(0.200686 3.40739e-06 0)
(0.200004 0.000960672 0)
(0.200479 0.00276586 0)
(0.201323 0.0043164 0)
(0.202482 0.00548085 0)
(0.203818 0.00622651 0)
(0.205165 0.00663085 0)
(0.206409 0.00680731 0)
(0.207513 0.00683158 0)
(0.208484 0.00673426 0)
(0.209334 0.0065313 0)
(0.210065 0.00624881 0)
(0.210673 0.00592572 0)
(0.211166 0.00560203 0)
(0.211561 0.00530613 0)
(0.211885 0.00504944 0)
(0.212164 0.00483008 0)
(0.212418 0.0046411 0)
(0.212659 0.00447561 0)
(0.212892 0.00432739 0)
(0.213118 0.00419157 0)
(0.213337 0.00406577 0)
(0.213549 0.00394855 0)
(0.213753 0.00383744 0)
(0.21395 0.00373049 0)
(0.214138 0.00362799 0)
(0.214319 0.00353003 0)
(0.21449 0.00343465 0)
(0.214653 0.00334065 0)
(0.214808 0.00324954 0)
(0.214955 0.00316193 0)
(0.21509 0.00307532 0)
(0.215217 0.00298803 0)
(0.215337 0.00290225 0)
(0.215447 0.00281961 0)
(0.215545 0.00273695 0)
(0.215632 0.00265097 0)
(0.215712 0.00256409 0)
(0.215783 0.00248042 0)
(0.21584 0.00239772 0)
(0.215883 0.00230996 0)
(0.215916 0.00221727 0)
(0.215943 0.00212642 0)
(0.215958 0.00203981 0)
(0.215956 0.0019507 0)
(0.215937 0.00185326 0)
(0.215912 0.00175248 0)
(0.215883 0.00165796 0)
(0.215841 0.00156987 0)
(0.215775 0.00147823 0)
(0.215694 0.00137773 0)
(0.215611 0.00127747 0)
(0.21553 0.00119073 0)
(0.215438 0.00111808 0)
(0.215321 0.00104655 0)
(0.215188 0.000967134 0)
(0.215059 0.000887923 0)
(0.214948 0.000826036 0)
(0.214842 0.000787309 0)
(0.214717 0.000758007 0)
(0.214567 0.000718814 0)
(0.214411 0.000665533 0)
(0.21428 0.000614151 0)
(0.214182 0.000584515 0)
(0.214092 0.000579634 0)
(0.213975 0.000581265 0)
(0.213816 0.00056566 0)
(0.21364 0.000524822 0)
(0.213487 0.000473966 0)
(0.213385 0.000439645 0)
(0.213323 0.000438799 0)
(0.213256 0.00046555 0)
(0.213137 0.000495257 0)
(0.212948 0.000501351 0)
(0.212714 0.000472644 0)
(0.21249 0.00042011 0)
(0.212327 0.00037019 0)
(0.212246 0.000350284 0)
(0.212226 0.000374794 0)
(0.212208 0.000439247 0)
(0.212123 0.000523755 0)
(0.211916 0.000602663 0)
(0.211564 0.0006544 0)
(0.211079 0.00066757 0)
(0.2105 0.000641598 0)
(0.209876 0.00058425 0)
(0.209257 0.000506978 0)
(0.208683 0.000421778 0)
(0.208176 0.00033811 0)
(0.207751 0.00026271 0)
(0.207404 0.00019867 0)
(0.207133 0.000147218 0)
(0.206922 0.000107155 0)
(0.206765 7.7372e-05 0)
(0.206643 5.52293e-05 0)
(0.206558 3.97906e-05 0)
(0.206489 2.82051e-05 0)
(0.206445 2.08763e-05 0)
(0.206403 1.46418e-05 0)
(0.206384 1.17452e-05 0)
(0.206352 7.76539e-06 0)
(0.200003 0.000800559 0)
(0.200371 0.00232254 0)
(0.201031 0.00367073 0)
(0.201954 0.00474351 0)
(0.203055 0.00549185 0)
(0.204212 0.00594159 0)
(0.205322 0.00616698 0)
(0.206328 0.00623821 0)
(0.207219 0.0061964 0)
(0.208002 0.00606292 0)
(0.208682 0.0058574 0)
(0.209262 0.0056064 0)
(0.209746 0.00534076 0)
(0.210145 0.00508679 0)
(0.210477 0.00485871 0)
(0.210765 0.00465894 0)
(0.211025 0.00448419 0)
(0.21127 0.00432964 0)
(0.211504 0.0041898 0)
(0.211733 0.00406028 0)
(0.211955 0.0039396 0)
(0.212171 0.00382702 0)
(0.212381 0.00372005 0)
(0.212585 0.00361673 0)
(0.212784 0.00351797 0)
(0.212978 0.00342419 0)
(0.213166 0.00333271 0)
(0.213349 0.00324195 0)
(0.213529 0.00315428 0)
(0.213704 0.00307086 0)
(0.213872 0.00298825 0)
(0.214036 0.00290398 0)
(0.214197 0.0028213 0)
(0.214353 0.00274307 0)
(0.214501 0.00266524 0)
(0.214643 0.00258275 0)
(0.214783 0.00249863 0)
(0.214918 0.00241933 0)
(0.215043 0.00234271 0)
(0.215159 0.00226008 0)
(0.21527 0.0021703 0)
(0.215377 0.0020828 0)
(0.215476 0.00200266 0)
(0.215561 0.00192133 0)
(0.215634 0.00182889 0)
(0.215702 0.00173027 0)
(0.215767 0.00163972 0)
(0.21582 0.00156016 0)
(0.215853 0.0014779 0)
(0.215871 0.00138205 0)
(0.215886 0.00128204 0)
(0.215902 0.00119759 0)
(0.215907 0.00113338 0)
(0.215889 0.00107223 0)
(0.215852 0.00099697 0)
(0.215816 0.000913702 0)
(0.215794 0.000846869 0)
(0.215776 0.000810979 0)
(0.215742 0.000792166 0)
(0.21568 0.000761577 0)
(0.215607 0.000706018 0)
(0.215551 0.000642952 0)
(0.215526 0.000603597 0)
(0.215511 0.000601537 0)
(0.215474 0.000617979 0)
(0.215395 0.000617324 0)
(0.215288 0.000578468 0)
(0.215192 0.000513555 0)
(0.215142 0.000459131 0)
(0.215136 0.000447809 0)
(0.215139 0.000483421 0)
(0.215099 0.000537953 0)
(0.214988 0.000570523 0)
(0.214816 0.000553844 0)
(0.214632 0.000490789 0)
(0.214494 0.000412199 0)
(0.21444 0.000359809 0)
(0.214465 0.000364829 0)
(0.214524 0.000434281 0)
(0.214548 0.000549981 0)
(0.214471 0.000678701 0)
(0.214251 0.000786044 0)
(0.213883 0.000847859 0)
(0.21339 0.000854642 0)
(0.212819 0.000810774 0)
(0.21222 0.000728991 0)
(0.211639 0.000625757 0)
(0.211109 0.00051582 0)
(0.21065 0.00041106 0)
(0.210266 0.000318118 0)
(0.209958 0.000240847 0)
(0.209714 0.000178791 0)
(0.209528 0.000131524 0)
(0.209383 9.54325e-05 0)
(0.20928 6.98259e-05 0)
(0.209195 5.00909e-05 0)
(0.209141 3.74936e-05 0)
(0.209088 2.64031e-05 0)
(0.209065 2.12989e-05 0)
(0.209025 1.38922e-05 0)
(0.200002 0.000673899 0)
(0.200292 0.00196733 0)
(0.200816 0.00313712 0)
(0.201557 0.00410841 0)
(0.202462 0.00483231 0)
(0.203447 0.00530751 0)
(0.204424 0.00557517 0)
(0.205334 0.00569009 0)
(0.206151 0.00569518 0)
(0.206874 0.00561689 0)
(0.207509 0.00547361 0)
(0.208059 0.0052845 0)
(0.208529 0.00507254 0)
(0.208926 0.00485992 0)
(0.209264 0.00466117 0)
(0.209557 0.00448175 0)
(0.209821 0.00432188 0)
(0.210067 0.00417886 0)
(0.210301 0.00404793 0)
(0.210527 0.00392535 0)
(0.210746 0.00381052 0)
(0.210959 0.003703 0)
(0.211165 0.00360012 0)
(0.211367 0.00350029 0)
(0.211563 0.00340514 0)
(0.211754 0.00331505 0)
(0.21194 0.00322666 0)
(0.212123 0.00313846 0)
(0.212303 0.00305366 0)
(0.212478 0.00297353 0)
(0.212649 0.00289367 0)
(0.212818 0.0028114 0)
(0.212984 0.00273104 0)
(0.213146 0.0026561 0)
(0.213303 0.00258149 0)
(0.213457 0.00250115 0)
(0.21361 0.00241901 0)
(0.213758 0.00234308 0)
(0.213899 0.00227084 0)
(0.214035 0.0021916 0)
(0.214168 0.00210385 0)
(0.214297 0.00201921 0)
(0.21442 0.00194434 0)
(0.214532 0.00186889 0)
(0.214637 0.00178018 0)
(0.214738 0.00168362 0)
(0.214835 0.00159696 0)
(0.21492 0.00152472 0)
(0.214991 0.00145013 0)
(0.215052 0.00135829 0)
(0.21511 0.00125924 0)
(0.215165 0.00117759 0)
(0.215209 0.001121 0)
(0.215235 0.00106884 0)
(0.215248 0.000997641 0)
(0.21526 0.000911893 0)
(0.215281 0.000841718 0)
(0.215302 0.000808623 0)
(0.21531 0.000799019 0)
(0.215297 0.00077659 0)
(0.215277 0.000720442 0)
(0.215267 0.000648428 0)
(0.215279 0.000600758 0)
(0.215299 0.000600483 0)
(0.215301 0.000629718 0)
(0.215271 0.000643659 0)
(0.215217 0.00060935 0)
(0.215169 0.000534406 0)
(0.215153 0.000462329 0)
(0.215174 0.000439406 0)
(0.215205 0.000479993 0)
(0.215206 0.000555838 0)
(0.215149 0.000614909 0)
(0.215037 0.000614701 0)
(0.214904 0.000547912 0)
(0.214801 0.000445912 0)
(0.214766 0.000361305 0)
(0.214805 0.000341 0)
(0.214888 0.000405339 0)
(0.214962 0.000541615 0)
(0.214963 0.000712892 0)
(0.214847 0.000874251 0)
(0.214595 0.000988933 0)
(0.214219 0.00103691 0)
(0.213752 0.00101686 0)
(0.213237 0.000940613 0)
(0.212719 0.000827669 0)
(0.21223 0.000697414 0)
(0.211794 0.000566916 0)
(0.211421 0.000446726 0)
(0.211115 0.000343917 0)
(0.210867 0.000259215 0)
(0.210675 0.000193409 0)
(0.210523 0.000142079 0)
(0.210412 0.000105149 0)
(0.21032 7.61061e-05 0)
(0.210261 5.74317e-05 0)
(0.210203 4.06032e-05 0)
(0.210177 3.28951e-05 0)
(0.210133 2.13404e-05 0)
(0.200002 0.000572042 0)
(0.200233 0.0016781 0)
(0.200654 0.00269399 0)
(0.201254 0.00356466 0)
(0.202 0.00424711 0)
(0.202833 0.00472807 0)
(0.203684 0.00502627 0)
(0.204499 0.00517931 0)
(0.205246 0.00522525 0)
(0.205914 0.00519232 0)
(0.206506 0.00509943 0)
(0.207026 0.0049623 0)
(0.207479 0.00479835 0)
(0.207871 0.0046252 0)
(0.20821 0.00445588 0)
(0.208507 0.0042976 0)
(0.208775 0.00415344 0)
(0.209022 0.00402256 0)
(0.209255 0.0039011 0)
(0.20948 0.00378629 0)
(0.209697 0.00367824 0)
(0.209906 0.00357639 0)
(0.210109 0.00347796 0)
(0.210307 0.00338207 0)
(0.2105 0.00329096 0)
(0.210686 0.00320452 0)
(0.210869 0.00311903 0)
(0.211048 0.00303355 0)
(0.211224 0.00295185 0)
(0.211395 0.00287475 0)
(0.211563 0.00279714 0)
(0.211729 0.00271681 0)
(0.211892 0.00263904 0)
(0.21205 0.00256707 0)
(0.212205 0.00249475 0)
(0.212359 0.00241611 0)
(0.21251 0.00233632 0)
(0.212656 0.00226373 0)
(0.212797 0.00219466 0)
(0.212935 0.0021176 0)
(0.213071 0.00203199 0)
(0.213202 0.00195081 0)
(0.213326 0.00188047 0)
(0.213443 0.00180897 0)
(0.213556 0.0017229 0)
(0.213665 0.00162913 0)
(0.213768 0.00154714 0)
(0.213859 0.00148095 0)
(0.213941 0.00141148 0)
(0.214018 0.00132257 0)
(0.214091 0.00122582 0)
(0.214157 0.00114845 0)
(0.21421 0.00109839 0)
(0.214253 0.00105221 0)
(0.214289 0.000983397 0)
(0.214325 0.000896801 0)
(0.214362 0.000826288 0)
(0.214394 0.000796701 0)
(0.214415 0.000793573 0)
(0.214426 0.000775896 0)
(0.214436 0.000718829 0)
(0.214453 0.00064129 0)
(0.214479 0.000589275 0)
(0.214506 0.000591384 0)
(0.21452 0.000629843 0)
(0.214514 0.000653776 0)
(0.214497 0.000622576 0)
(0.214484 0.000540888 0)
(0.214491 0.00045676 0)
(0.214518 0.000425767 0)
(0.21455 0.000469916 0)
(0.21456 0.000561499 0)
(0.214533 0.000641097 0)
(0.214467 0.000655068 0)
(0.214386 0.000587645 0)
(0.214322 0.00046908 0)
(0.214304 0.000358924 0)
(0.21434 0.000315828 0)
(0.214415 0.000371555 0)
(0.214489 0.000519794 0)
(0.214519 0.000722895 0)
(0.214463 0.000928896 0)
(0.214303 0.00109096 0)
(0.214037 0.00117941 0)
(0.213687 0.00118663 0)
(0.213285 0.0011221 0)
(0.212866 0.00100675 0)
(0.212457 0.000863264 0)
(0.212084 0.000713088 0)
(0.211754 0.00057029 0)
(0.211478 0.000445192 0)
(0.211249 0.000339864 0)
(0.211069 0.000256657 0)
(0.210923 0.000190551 0)
(0.210815 0.000142419 0)
(0.210724 0.000103894 0)
(0.210665 7.89694e-05 0)
(0.210606 5.60635e-05 0)
(0.21058 4.56095e-05 0)
(0.210534 2.95419e-05 0)
(0.200002 0.000488881 0)
(0.200188 0.00143938 0)
(0.20053 0.00232334 0)
(0.20102 0.0030992 0)
(0.201636 0.00373137 0)
(0.202338 0.00420267 0)
(0.203074 0.00451846 0)
(0.203798 0.00470188 0)
(0.204475 0.00478303 0)
(0.205091 0.00478836 0)
(0.205643 0.00473682 0)
(0.206135 0.00464291 0)
(0.206569 0.00452076 0)
(0.206951 0.00438396 0)
(0.207288 0.0042433 0)
(0.207587 0.00410662 0)
(0.207857 0.00397884 0)
(0.208105 0.00386055 0)
(0.208339 0.00374901 0)
(0.208563 0.00364264 0)
(0.208778 0.00354207 0)
(0.208986 0.00344636 0)
(0.209187 0.00335281 0)
(0.209382 0.00326145 0)
(0.209571 0.00317478 0)
(0.209755 0.00309204 0)
(0.209935 0.00300948 0)
(0.210111 0.00292711 0)
(0.210283 0.00284887 0)
(0.21045 0.00277462 0)
(0.210615 0.00269908 0)
(0.210778 0.00262106 0)
(0.210936 0.00254634 0)
(0.211091 0.00247714 0)
(0.211242 0.00240658 0)
(0.211393 0.00232975 0)
(0.211541 0.00225297 0)
(0.211682 0.0021838 0)
(0.21182 0.00211701 0)
(0.211956 0.00204155 0)
(0.21209 0.0019587 0)
(0.212218 0.0018818 0)
(0.212338 0.00181542 0)
(0.212454 0.00174631 0)
(0.212568 0.00166239 0)
(0.212678 0.00157257 0)
(0.212778 0.00149613 0)
(0.212867 0.00143479 0)
(0.212952 0.00136819 0)
(0.213035 0.0012816 0)
(0.213112 0.00118885 0)
(0.213178 0.00111728 0)
(0.213233 0.00107259 0)
(0.213281 0.0010293 0)
(0.213329 0.000961282 0)
(0.213376 0.000875673 0)
(0.213418 0.000808073 0)
(0.213449 0.000782782 0)
(0.213473 0.000783101 0)
(0.213497 0.000766195 0)
(0.213524 0.000707453 0)
(0.213555 0.000627983 0)
(0.213585 0.000576318 0)
(0.213607 0.000582023 0)
(0.21362 0.000625859 0)
(0.213627 0.000653849 0)
(0.213634 0.000622721 0)
(0.213646 0.000536921 0)
(0.213666 0.000447302 0)
(0.21369 0.000413829 0)
(0.213711 0.000461818 0)
(0.213717 0.00056343 0)
(0.213704 0.000655231 0)
(0.213673 0.000677524 0)
(0.213635 0.000609665 0)
(0.213608 0.000480862 0)
(0.213606 0.000354309 0)
(0.213634 0.000295645 0)
(0.213685 0.000344289 0)
(0.213738 0.000499172 0)
(0.213766 0.000723583 0)
(0.213739 0.000961868 0)
(0.213641 0.00116059 0)
(0.213467 0.00128279 0)
(0.213226 0.00131535 0)
(0.212937 0.00126484 0)
(0.212625 0.00115227 0)
(0.21231 0.00100212 0)
(0.212014 0.000838937 0)