/*--------------------------------*- C++ -*----------------------------------*\
| =========                 |                                                 |
| \\      /  F ield         | OpenFOAM: The Open Source CFD Toolbox           |
|  \\    /   O peration     | Version:  2.3.0                                 |
|   \\  /    A nd           | Web:      www.OpenFOAM.org                      |
|    \\/     M anipulation  |                                                 |
\*---------------------------------------------------------------------------*/
FoamFile
{
    version     2.0;
    format      ascii;
    class       surfaceScalarField;
    location    "0.95";
    object      phi;
}
// * * * * * * * * * * * * * * * * * * * * * * * * * * * * * * * * * * * * * //

dimensions      [0 3 -1 0 0 0 0];

internalField   nonuniform List<scalar> 
2863
(
2.8889e-08
2.77934e-09
-3.16684e-08
2.54108e-08
3.47819e-09
2.19511e-08
3.45979e-09
1.87415e-08
3.20958e-09
1.58153e-08
2.92617e-09
1.32526e-08
2.5627e-09
1.11508e-08
2.10182e-09
9.52633e-09
1.62444e-09
8.34245e-09
1.18388e-09
7.51272e-09
8.29739e-10
6.93768e-09
5.75035e-10
6.53192e-09
4.05764e-10
6.23244e-09
2.99481e-10
5.99599e-09
2.3645e-10
5.79389e-09
2.02096e-10
5.60971e-09
1.84179e-10
5.43594e-09
1.73768e-10
5.27028e-09
1.65665e-10
5.11276e-09
1.57518e-10
4.9641e-09
1.48663e-10
4.82488e-09
1.3922e-10
4.69529e-09
1.29584e-10
4.57514e-09
1.20153e-10
4.4639e-09
1.11237e-10
4.36088e-09
1.03021e-10
4.26529e-09
9.55968e-11
4.17632e-09
8.89685e-11
4.09321e-09
8.31049e-11
4.01528e-09
7.79309e-11
3.94191e-09
7.33708e-11
3.87258e-09
6.93318e-11
3.80684e-09
6.57429e-11
3.74431e-09
6.25244e-11
3.68469e-09
5.96265e-11
3.6277e-09
5.69887e-11
3.57312e-09
5.45823e-11
3.52075e-09
5.23621e-11
3.47044e-09
5.03159e-11
3.42203e-09
4.84082e-11
3.37539e-09
4.66385e-11
3.33041e-09
4.49761e-11
3.28699e-09
4.34286e-11
3.24502e-09
4.19666e-11
3.20442e-09
4.06039e-11
3.16511e-09
3.931e-11
3.127e-09
3.81042e-11
3.09005e-09
3.69528e-11
3.05417e-09
3.58811e-11
3.01932e-09
3.48512e-11
2.98542e-09
3.38941e-11
2.95245e-09
3.29673e-11
2.92035e-09
3.21082e-11
2.88908e-09
3.12684e-11
2.85858e-09
3.04931e-11
2.82886e-09
2.97266e-11
2.79983e-09
2.90234e-11
2.77152e-09
2.83184e-11
2.74384e-09
2.76775e-11
2.71681e-09
2.70246e-11
2.69038e-09
2.64382e-11
2.66455e-09
2.58292e-11
2.63926e-09
2.52913e-11
2.61454e-09
2.47192e-11
2.59031e-09
2.42253e-11
2.56663e-09
2.36844e-11
2.5434e-09
2.32307e-11
2.52068e-09
2.2716e-11
2.49838e-09
2.23e-11
2.47657e-09
2.18069e-11
2.45515e-09
2.1427e-11
2.4342e-09
2.09509e-11
2.41359e-09
2.06065e-11
2.39345e-09
2.01432e-11
2.37361e-09
1.98342e-11
2.35423e-09
1.93793e-11
2.33513e-09
1.91069e-11
2.31647e-09
1.86559e-11
2.29805e-09
1.84221e-11
2.28008e-09
1.79706e-11
2.2623e-09
1.77786e-11
2.24498e-09
1.73213e-11
2.2278e-09
1.71767e-11
2.21109e-09
1.67072e-11
2.19447e-09
1.66176e-11
2.17835e-09
1.61296e-11
2.16224e-09
1.61048e-11
2.14665e-09
1.55902e-11
2.13101e-09
1.56445e-11
2.11591e-09
1.5093e-11
2.10067e-09
1.52462e-11
2.08602e-09
1.46442e-11
2.0711e-09
1.49245e-11
2.05685e-09
1.42527e-11
2.04215e-09
1.47e-11
2.02822e-09
1.39294e-11
2.01361e-09
1.46069e-11
1.99992e-09
1.36868e-11
1.98519e-09
1.47294e-11
1.97159e-09
1.36056e-11
1.71865e-11
3.63144e-08
2.4895e-09
-3.60245e-08
3.61382e-08
3.65434e-09
3.54207e-08
4.17734e-09
3.44172e-08
4.21301e-09
3.32406e-08
4.10279e-09
3.19107e-08
3.89265e-09
3.04509e-08
3.56163e-09
2.89391e-08
3.13625e-09
2.74524e-08
2.6706e-09
2.6047e-08
2.23505e-09
2.47481e-08
1.87395e-09
2.3558e-08
1.59591e-09
2.24749e-08
1.38256e-09
2.14976e-08
1.21374e-09
2.06167e-08
1.08303e-09
1.98216e-08
9.79281e-10
1.9102e-08
8.93352e-10
1.84485e-08
8.19135e-10
1.78529e-08
7.53098e-10
1.73082e-08
6.93398e-10
1.68083e-08
6.39097e-10
1.63482e-08
5.89727e-10
1.59233e-08
5.44988e-10
1.55299e-08
5.04645e-10
1.51645e-08
4.68424e-10
1.48241e-08
4.36025e-10
1.4506e-08
4.07099e-10
1.42078e-08
3.81316e-10
1.39274e-08
3.58308e-10
1.3663e-08
3.37748e-10
1.3413e-08
3.193e-10
1.31761e-08
3.02693e-10
1.2951e-08
2.87656e-10
1.27366e-08
2.73992e-10
1.25321e-08
2.61497e-10
1.23366e-08
2.50042e-10
1.21495e-08
2.39473e-10
1.19701e-08
2.29712e-10
1.17979e-08
2.20642e-10
1.16323e-08
2.12222e-10
1.14729e-08
2.04357e-10
1.13193e-08
1.97027e-10
1.11711e-08
1.90151e-10
1.1028e-08
1.83727e-10
1.08896e-08
1.77676e-10
1.07557e-08
1.72013e-10
1.0626e-08
1.66658e-10
1.05003e-08
1.61639e-10
1.03783e-08
1.56872e-10
1.02598e-08
1.52398e-10
1.01446e-08
1.48128e-10
1.00326e-08
1.44117e-10
9.92359e-09
1.40268e-10
9.81743e-09
1.36651e-10
9.714e-09
1.33158e-10
9.61314e-09
1.29877e-10
9.51477e-09
1.26687e-10
9.41876e-09
1.23694e-10
9.32502e-09
1.20762e-10
9.23344e-09
1.18019e-10
9.14396e-09
1.15309e-10
9.05647e-09
1.12784e-10
8.97092e-09
1.10264e-10
8.88722e-09
1.07932e-10
8.80532e-09
1.05578e-10
8.72514e-09
1.03418e-10
8.64664e-09
1.01208e-10
8.56974e-09
9.92029e-11
8.49443e-09
9.71177e-11
8.4206e-09
9.52548e-11
8.34827e-09
9.32777e-11
8.27733e-09
9.15464e-11
8.20782e-09
8.96626e-11
8.13959e-09
8.80552e-11
8.07272e-09
8.62511e-11
8.00707e-09
8.47626e-11
7.9427e-09
8.30259e-11
7.87947e-09
8.16537e-11
7.81746e-09
7.99735e-11
7.75652e-09
7.87182e-11
7.69676e-09
7.70836e-11
7.63799e-09
7.5951e-11
7.58034e-09
7.43514e-11
7.52361e-09
7.33515e-11
7.46796e-09
7.17783e-11
7.41314e-09
7.09265e-11
7.35936e-09
6.93718e-11
7.30631e-09
6.86917e-11
7.25425e-09
6.71475e-11
7.20283e-09
6.66739e-11
7.15234e-09
6.51324e-11
7.10235e-09
6.49151e-11
7.05323e-09
6.33679e-11
7.00446e-09
6.34759e-11
6.95648e-09
6.1911e-11
6.90863e-09
6.24512e-11
6.86147e-09
6.0846e-11
6.8141e-09
6.20996e-11
6.7671e-09
6.06078e-11
6.63276e-11
4.03647e-08
2.37497e-09
-4.02502e-08
4.07802e-08
3.23888e-09
4.10341e-08
3.92338e-09
4.10957e-08
4.15141e-09
4.10412e-08
4.15734e-09
4.08658e-08
4.06808e-09
4.05328e-08
3.89462e-09
4.00419e-08
3.62713e-09
3.94232e-08
3.28925e-09
3.87213e-08
2.93704e-09
3.7974e-08
2.62125e-09
3.72061e-08
2.36381e-09
3.64306e-08
2.15798e-09
3.56547e-08
1.98966e-09
3.48869e-08
1.85082e-09
3.41326e-08
1.73363e-09
3.33949e-08
1.63108e-09
3.26758e-08
1.53821e-09
3.19768e-08
1.45207e-09
3.1299e-08
1.37115e-09
3.06434e-08
1.29474e-09
3.00106e-08
1.22258e-09
2.94009e-08
1.15461e-09
2.88148e-08
1.09082e-09
2.8252e-08
1.0312e-09
2.77124e-08
9.75659e-10
2.71954e-08
9.24069e-10
2.67004e-08
8.76278e-10
2.62267e-08
8.32058e-10
2.57732e-08
7.9118e-10
2.53392e-08
7.53373e-10
2.49235e-08
7.18399e-10
2.45251e-08
6.85996e-10
2.41432e-08
6.55957e-10
2.37766e-08
6.28051e-10
2.34245e-08
6.02112e-10
2.30861e-08
5.77945e-10
2.27604e-08
5.55422e-10
2.24466e-08
5.3438e-10
2.21441e-08
5.1472e-10
2.18522e-08
4.96304e-10
2.15701e-08
4.79056e-10
2.12974e-08
4.62857e-10
2.10335e-08
4.4765e-10
2.07779e-08
4.33329e-10
2.053e-08
4.19855e-10
2.02895e-08
4.07128e-10
2.00561e-08
3.95125e-10
1.98292e-08
3.83754e-10
1.96086e-08
3.73003e-10
1.93939e-08
3.62787e-10
1.91849e-08
3.53103e-10
1.89813e-08
3.43872e-10
1.87829e-08
3.35101e-10
1.85893e-08
3.26713e-10
1.84005e-08
3.18725e-10
1.82161e-08
3.11062e-10
1.8036e-08
3.03749e-10
1.78601e-08
2.96713e-10
1.76881e-08
2.89985e-10
1.75199e-08
2.83494e-10
1.73554e-08
2.77277e-10
1.71944e-08
2.71262e-10
1.70369e-08
2.65494e-10
1.68826e-08
2.59897e-10
1.67315e-08
2.54525e-10
1.65834e-08
2.49299e-10
1.64383e-08
2.44277e-10
1.6296e-08
2.39381e-10
1.61566e-08
2.34672e-10
1.60198e-08
2.3007e-10
1.58857e-08
2.25642e-10
1.57541e-08
2.21305e-10
1.5625e-08
2.1713e-10
1.54982e-08
2.13031e-10
1.53739e-08
2.09087e-10
1.52517e-08
2.05206e-10
1.51319e-08
2.01473e-10
1.50141e-08
1.97795e-10
1.48985e-08
1.94258e-10
1.47848e-08
1.90772e-10
1.46734e-08
1.87423e-10
1.45636e-08
1.8412e-10
1.4456e-08
1.80958e-10
1.43499e-08
1.77841e-10
1.4246e-08
1.74869e-10
1.41434e-08
1.71946e-10
1.40429e-08
1.69178e-10
1.39436e-08
1.66467e-10
1.38464e-08
1.63932e-10
1.375e-08
1.61462e-10
1.36557e-08
1.59207e-10
1.35621e-08
1.5702e-10
1.34704e-08
1.55119e-10
1.33791e-08
1.53259e-10
1.32897e-08
1.51867e-10
1.32002e-08
1.50343e-10
1.31122e-08
1.50053e-10
1.30238e-08
1.49047e-10
1.53973e-10
4.48458e-08
2.3322e-09
-4.4803e-08
4.51503e-08
2.93436e-09
4.55395e-08
3.53415e-09
4.58386e-08
3.85233e-09
4.60654e-08
3.93053e-09
4.62466e-08
3.88687e-09
4.63599e-08
3.78135e-09
4.63778e-08
3.60918e-09
4.62902e-08
3.37688e-09
4.61113e-08
3.11599e-09
4.58674e-08
2.86511e-09
4.55801e-08
2.65115e-09
4.52607e-08
2.47739e-09
4.4914e-08
2.33629e-09
4.4546e-08
2.21881e-09
4.41615e-08
2.11814e-09
4.37636e-08
2.029e-09
4.33542e-08
1.9476e-09
4.29349e-08
1.87143e-09
4.25069e-08
1.79907e-09
4.20719e-08
1.72979e-09
4.16312e-08
1.66329e-09
4.11863e-08
1.59945e-09
4.07389e-08
1.53829e-09
4.02902e-08
1.47986e-09
3.98417e-08
1.42417e-09
3.93945e-08
1.37123e-09
3.89498e-08
1.32099e-09
3.85085e-08
1.2734e-09
3.80713e-08
1.22833e-09
3.76391e-08
1.18564e-09
3.72123e-08
1.1452e-09
3.67914e-08
1.10686e-09
3.63769e-08
1.07046e-09
3.5969e-08
1.03591e-09
3.55681e-08
1.00305e-09
3.51742e-08
9.71813e-10
3.47876e-08
9.42066e-10
3.44082e-08
9.13748e-10
3.40362e-08
8.86752e-10
3.36715e-08
8.61035e-10
3.3314e-08
8.36489e-10
3.29638e-08
8.13095e-10
3.26207e-08
7.90741e-10
3.22846e-08
7.69426e-10
3.19554e-08
7.49032e-10
3.1633e-08
7.29578e-10
3.13172e-08
7.10934e-10
3.10078e-08
6.93142e-10
3.07047e-08
6.76057e-10
3.04078e-08
6.5975e-10
3.01168e-08
6.4405e-10
2.98316e-08
6.29065e-10
2.95521e-08
6.14595e-10
2.9278e-08
6.00785e-10
2.90094e-08
5.87406e-10
2.87458e-08
5.74643e-10
2.84873e-08
5.62229e-10
2.82336e-08
5.50402e-10
2.79848e-08
5.38841e-10
2.77404e-08
5.2785e-10
2.75006e-08
5.17048e-10
2.72651e-08
5.06807e-10
2.70339e-08
4.96676e-10
2.68067e-08
4.87111e-10
2.65836e-08
4.77575e-10
2.63643e-08
4.68624e-10
2.6149e-08
4.59612e-10
2.59371e-08
4.51221e-10
2.57291e-08
4.42673e-10
2.55244e-08
4.34796e-10
2.53234e-08
4.26656e-10
2.51255e-08
4.19255e-10
2.49311e-08
4.11473e-10
2.47396e-08
4.04518e-10
2.45517e-08
3.97048e-10
2.43663e-08
3.90517e-10
2.41845e-08
3.83318e-10
2.40051e-08
3.77199e-10
2.38291e-08
3.70231e-10
2.36554e-08
3.64521e-10
2.3485e-08
3.57756e-10
2.33167e-08
3.52459e-10
2.31518e-08
3.45872e-10
2.29886e-08
3.41012e-10
2.28289e-08
3.34586e-10
2.26707e-08
3.30198e-10
2.25159e-08
3.2393e-10
2.23623e-08
3.20067e-10
2.22123e-08
3.13976e-10
2.2063e-08
3.10708e-10
2.19174e-08
3.04849e-10
2.17721e-08
3.02253e-10
2.16305e-08
2.96748e-10
2.14889e-08
2.9488e-10
2.13507e-08
2.90018e-10
2.12122e-08
2.88861e-10
2.10767e-08
2.85602e-10
2.09403e-08
2.85388e-10
2.86861e-10
4.98102e-08
2.28244e-09
-4.97604e-08
5.00133e-08
2.73118e-09
5.03548e-08
3.19271e-09
5.06816e-08
3.5255e-09
5.09484e-08
3.66377e-09
5.11719e-08
3.66335e-09
5.13643e-08
3.58893e-09
5.15095e-08
3.46401e-09
5.15903e-08
3.29605e-09
5.16055e-08
3.10085e-09
5.15686e-08
2.902e-09
5.14982e-08
2.7215e-09
5.14053e-08
2.5703e-09
5.12942e-08
2.4474e-09
5.1168e-08
2.34502e-09
5.10292e-08
2.25688e-09
5.08796e-08
2.17869e-09
5.07196e-08
2.10754e-09
5.05495e-08
2.0415e-09
5.03693e-08
1.97929e-09
5.01789e-08
1.92017e-09
4.99786e-08
1.86367e-09
4.97684e-08
1.80958e-09
4.9549e-08
1.75775e-09
4.93207e-08
1.70816e-09
4.90841e-08
1.66076e-09
4.88397e-08
1.61555e-09
4.85883e-08
1.57244e-09
4.83303e-08
1.53142e-09
4.80663e-08
1.49234e-09
4.77968e-08
1.45515e-09
4.75223e-08
1.41965e-09
4.72434e-08
1.3858e-09
4.69604e-08
1.35337e-09
4.6674e-08
1.32238e-09
4.63844e-08
1.2926e-09
4.60922e-08
1.26407e-09
4.57977e-08
1.23656e-09
4.55013e-08
1.21017e-09
4.52034e-08
1.18465e-09
4.49042e-08
1.16015e-09
4.46043e-08
1.13639e-09
4.43038e-08
1.11358e-09
4.40032e-08
1.09139e-09
4.37025e-08
1.07009e-09
4.34022e-08
1.04931e-09
4.31024e-08
1.02938e-09
4.28035e-08
1.00987e-09
4.25055e-08
9.91177e-10
4.22087e-08
9.7281e-10
4.19132e-08
9.55245e-10
4.16194e-08
9.37907e-10
4.13271e-08
9.21371e-10
4.10367e-08
9.04961e-10
4.07481e-08
8.89365e-10
4.04617e-08
8.73789e-10
4.01773e-08
8.59057e-10
3.98953e-08
8.44233e-10
3.96154e-08
8.30298e-10
3.93381e-08
8.1615e-10
3.9063e-08
8.02956e-10
3.87906e-08
7.89417e-10
3.85205e-08
7.76912e-10
3.82533e-08
7.6392e-10
3.79883e-08
7.52065e-10
3.77264e-08
7.39558e-10
3.74667e-08
7.28321e-10
3.721e-08
7.16242e-10
3.69556e-08
7.05596e-10
3.67044e-08
6.93892e-10
3.64554e-08
6.83813e-10
3.62096e-08
6.72433e-10
3.5966e-08
6.62906e-10
3.57257e-08
6.51797e-10
3.54874e-08
6.42815e-10
3.52525e-08
6.31928e-10
3.50195e-08
6.2349e-10
3.47901e-08
6.12774e-10
3.45624e-08
6.04893e-10
3.43383e-08
5.94299e-10
3.41158e-08
5.86994e-10
3.38971e-08
5.76484e-10
3.36798e-08
5.69782e-10
3.34663e-08
5.59324e-10
3.32541e-08
5.53275e-10
3.30458e-08
5.42845e-10
3.28385e-08
5.37513e-10
3.26353e-08
5.27111e-10
3.24328e-08
5.22576e-10
3.22345e-08
5.12239e-10
3.20366e-08
5.08591e-10
3.18431e-08
4.9842e-10
3.16496e-08
4.95751e-10
3.14604e-08
4.85947e-10
3.12709e-08
4.84321e-10
3.10856e-08
4.75307e-10
3.08997e-08
4.74783e-10
3.07177e-08
4.67621e-10
3.05345e-08
4.68605e-10
4.6496e-10
5.52712e-08
2.221e-09
-5.52097e-08
5.54256e-08
2.57672e-09
5.56946e-08
2.9238e-09
5.59936e-08
3.22647e-09
5.62596e-08
3.39781e-09
5.64796e-08
3.44335e-09
5.66659e-08
3.40259e-09
5.68192e-08
3.31069e-09
5.69301e-08
3.18515e-09
5.69939e-08
3.03708e-09
5.70161e-08
2.87976e-09
5.70097e-08
2.72796e-09
5.69864e-08
2.59357e-09
5.69529e-08
2.48092e-09
5.6912e-08
2.38593e-09
5.68655e-08
2.30339e-09
5.68145e-08
2.22964e-09
5.67598e-08
2.16229e-09
5.67013e-08
2.09998e-09
5.66389e-08
2.04169e-09
5.65722e-08
1.98685e-09
5.6501e-08
1.93494e-09
5.64248e-08
1.88577e-09
5.63435e-08
1.83901e-09
5.6257e-08
1.79468e-09
5.61652e-08
1.75255e-09
5.6068e-08
1.71271e-09
5.59656e-08
1.67491e-09
5.58577e-08
1.63926e-09
5.57446e-08
1.60544e-09
5.56262e-08
1.57358e-09
5.55026e-08
1.54328e-09
5.53737e-08
1.5147e-09
5.52396e-08
1.48739e-09
5.51004e-08
1.46158e-09
5.49563e-08
1.43678e-09
5.4807e-08
1.4133e-09
5.4653e-08
1.39061e-09
5.44941e-08
1.36909e-09
5.43305e-08
1.34818e-09
5.41624e-08
1.32834e-09
5.39898e-08
1.30893e-09
5.38129e-08
1.29054e-09
5.36319e-08
1.2724e-09
5.34467e-08
1.25525e-09
5.32578e-08
1.23821e-09
5.3065e-08
1.22214e-09
5.28689e-08
1.20603e-09
5.26691e-08
1.1909e-09
5.24664e-08
1.17559e-09
5.22603e-08
1.16128e-09
5.20516e-08
1.14663e-09
5.18399e-08
1.13305e-09
5.16259e-08
1.11897e-09
5.14093e-08
1.10603e-09
5.11906e-08
1.09242e-09
5.09696e-08
1.08005e-09
5.0747e-08
1.06683e-09
5.05223e-08
1.05499e-09
5.02964e-08
1.04208e-09
5.00686e-08
1.03072e-09
4.984e-08
1.01807e-09
4.96097e-08
1.00716e-09
4.93789e-08
9.94715e-10
4.91468e-08
9.8423e-10
4.89144e-08
9.71933e-10
4.86809e-08
9.61868e-10
4.84474e-08
9.49667e-10
4.8213e-08
9.40018e-10
4.7979e-08
9.2787e-10
4.77442e-08
9.18637e-10
4.75101e-08
9.06499e-10
4.72754e-08
8.97692e-10
4.70416e-08
8.85516e-10
4.68073e-08
8.77153e-10
4.65743e-08
8.64899e-10
4.63408e-08
8.57003e-10
4.6109e-08
8.44627e-10
4.58766e-08
8.37236e-10
4.56462e-08
8.24697e-10
4.54154e-08
8.17851e-10
4.51867e-08
8.05124e-10
4.49576e-08
7.98873e-10
4.4731e-08
7.85941e-10
4.45039e-08
7.80354e-10
4.42796e-08
7.67215e-10
4.40547e-08
7.62374e-10
4.38328e-08
7.49061e-10
4.36103e-08
7.45062e-10
4.33908e-08
7.31656e-10
4.31708e-08
7.28607e-10
4.2954e-08
7.15267e-10
4.27365e-08
7.13286e-10
4.25221e-08
7.00279e-10
4.23069e-08
6.99504e-10
4.20949e-08
6.87308e-10
4.18817e-08
6.87983e-10
4.16718e-08
6.77519e-10
4.14603e-08
6.80098e-10
6.72135e-10
6.12844e-08
2.1565e-09
-6.12198e-08
6.1414e-08
2.44703e-09
6.1618e-08
2.71988e-09
6.18725e-08
2.97193e-09
6.21187e-08
3.15161e-09
6.23312e-08
3.23083e-09
6.25062e-08
3.2276e-09
6.26481e-08
3.16884e-09
6.27567e-08
3.07652e-09
6.28299e-08
2.96386e-09
6.28693e-08
2.84032e-09
6.2882e-08
2.71525e-09
6.28777e-08
2.59788e-09
6.28646e-08
2.49407e-09
6.28464e-08
2.40415e-09
6.2825e-08
2.32478e-09
6.28014e-08
2.25316e-09
6.27766e-08
2.18713e-09
6.27508e-08
2.12573e-09
6.27244e-08
2.0681e-09
6.26973e-08
2.01402e-09
6.26693e-08
1.96293e-09
6.26402e-08
1.91484e-09
6.261e-08
1.86925e-09
6.25783e-08
1.82634e-09
6.25452e-08
1.78565e-09
6.25104e-08
1.74748e-09
6.2474e-08
1.71133e-09
6.24357e-08
1.67757e-09
6.23955e-08
1.6456e-09
6.23533e-08
1.61585e-09
6.23089e-08
1.58763e-09
6.22622e-08
1.56141e-09
6.22132e-08
1.53641e-09
6.21616e-08
1.51321e-09
6.21074e-08
1.49095e-09
6.20504e-08
1.47034e-09
6.19906e-08
1.45039e-09
6.19277e-08
1.43196e-09
6.18619e-08
1.41396e-09
6.17929e-08
1.39741e-09
6.17207e-08
1.38106e-09
6.16452e-08
1.36611e-09
6.15664e-08
1.35113e-09
6.14841e-08
1.33755e-09
6.13986e-08
1.32374e-09
6.13094e-08
1.31134e-09
6.1217e-08
1.29848e-09
6.11208e-08
1.28709e-09
6.10213e-08
1.27502e-09
6.09181e-08
1.26449e-09
6.08117e-08
1.25306e-09
6.07015e-08
1.24327e-09
6.05881e-08
1.23234e-09
6.04709e-08
1.22319e-09
6.03507e-08
1.21264e-09
6.02267e-08
1.20403e-09
6.00998e-08
1.19376e-09
5.99692e-08
1.18563e-09
5.98357e-08
1.17553e-09
5.96986e-08
1.16782e-09
5.95589e-08
1.15782e-09
5.94156e-08
1.15048e-09
5.92698e-08
1.14051e-09
5.91205e-08
1.13351e-09
5.89689e-08
1.12349e-09
5.8814e-08
1.11682e-09
5.8657e-08
1.10668e-09
5.84967e-08
1.10031e-09
5.83345e-08
1.09001e-09
5.81692e-08
1.08394e-09
5.80023e-08
1.07342e-09
5.78323e-08
1.06766e-09
5.7661e-08
1.05686e-09
5.74867e-08
1.05142e-09
5.73113e-08
1.04031e-09
5.71331e-08
1.0352e-09
5.6954e-08
1.02373e-09
5.67723e-08
1.01898e-09
5.65899e-08
1.00712e-09
5.64049e-08
1.00277e-09
5.62196e-08
9.90505e-10
5.60318e-08
9.86594e-10
5.58439e-08
9.73926e-10
5.56537e-08
9.70514e-10
5.54634e-08
9.57469e-10
5.52712e-08
9.54629e-10
5.5079e-08
9.41275e-10
5.48849e-08
9.391e-10
5.4691e-08
9.25554e-10
5.44955e-08
9.24165e-10
5.43001e-08
9.10625e-10
5.41032e-08
9.10175e-10
5.39066e-08
8.96944e-10
5.37084e-08
8.97664e-10
5.35105e-08
8.85225e-10
5.3311e-08
8.87513e-10
5.31119e-08
8.76569e-10
5.29113e-08
8.80724e-10
8.72013e-10
6.79146e-08
2.09505e-09
-6.78531e-08
6.80238e-08
2.33782e-09
6.81823e-08
2.56134e-09
6.83864e-08
2.76788e-09
6.86007e-08
2.93729e-09
6.87968e-08
3.03475e-09
6.89604e-08
3.06395e-09
6.90906e-08
3.03869e-09
6.91905e-08
2.97661e-09
6.92623e-08
2.89203e-09
6.93074e-08
2.79522e-09
6.93293e-08
2.69342e-09
6.9334e-08
2.59318e-09
6.93287e-08
2.49937e-09
6.93181e-08
2.41468e-09
6.93046e-08
2.3383e-09
6.92891e-08
2.26865e-09
6.92724e-08
2.20381e-09
6.9255e-08
2.14312e-09
6.92375e-08
2.08565e-09
6.922e-08
2.03156e-09
6.92027e-08
1.98022e-09
6.91855e-08
1.93197e-09
6.91686e-08
1.88614e-09
6.91518e-08
1.84315e-09
6.91352e-08
1.80231e-09
6.91185e-08
1.76415e-09
6.91019e-08
1.72791e-09
6.90852e-08
1.69424e-09
6.90686e-08
1.66226e-09
6.90517e-08
1.63272e-09
6.90348e-08
1.60459e-09
6.90174e-08
1.57874e-09
6.89998e-08
1.55399e-09
6.89817e-08
1.53136e-09
6.89631e-08
1.50954e-09
6.89437e-08
1.4897e-09
6.89238e-08
1.47038e-09
6.89028e-08
1.45295e-09
6.8881e-08
1.43576e-09
6.8858e-08
1.42042e-09
6.8834e-08
1.40505e-09
6.88086e-08
1.39152e-09
6.8782e-08
1.37771e-09
6.87538e-08
1.36574e-09
6.87243e-08
1.35325e-09
6.8693e-08
1.34264e-09
6.86602e-08
1.33125e-09
6.86255e-08
1.32182e-09
6.85892e-08
1.31136e-09
6.85507e-08
1.30296e-09
6.85105e-08
1.29325e-09
6.8468e-08
1.28574e-09
6.84238e-08
1.27663e-09
6.8377e-08
1.2699e-09
6.83284e-08
1.26127e-09
6.82772e-08
1.25521e-09
6.82241e-08
1.24693e-09
6.81682e-08
1.24146e-09
6.81103e-08
1.23343e-09
6.80497e-08
1.22847e-09
6.79869e-08
1.22059e-09
6.79213e-08
1.21608e-09
6.78536e-08
1.20827e-09
6.77829e-08
1.20417e-09
6.77101e-08
1.19633e-09
6.76343e-08
1.1926e-09
6.75563e-08
1.18468e-09
6.74753e-08
1.18127e-09
6.73921e-08
1.1732e-09
6.7306e-08
1.17009e-09
6.72176e-08
1.16181e-09
6.71263e-08
1.15899e-09
6.70327e-08
1.15044e-09
6.69362e-08
1.14789e-09
6.68375e-08
1.13904e-09
6.67359e-08
1.13675e-09
6.66321e-08
1.12755e-09
6.65256e-08
1.12552e-09
6.64167e-08
1.11595e-09
6.63053e-08
1.11419e-09
6.61916e-08
1.10424e-09
6.60754e-08
1.10277e-09
6.59569e-08
1.09246e-09
6.58361e-08
1.0913e-09
6.57129e-08
1.08067e-09
6.55876e-08
1.07988e-09
6.54599e-08
1.06901e-09
6.53303e-08
1.06867e-09
6.51982e-08
1.0577e-09
6.50644e-08
1.05794e-09
6.4928e-08
1.04707e-09
6.47901e-08
1.04806e-09
6.46494e-08
1.03761e-09
6.45074e-08
1.03965e-09
6.43626e-08
1.03009e-09
6.42165e-08
1.0336e-09
6.40676e-08
1.02547e-09
6.39177e-08
1.03062e-09
1.02497e-09
6.76202e-08
2.04852e-09
-6.75736e-08
6.76995e-08
2.25852e-09
6.78122e-08
2.44858e-09
6.79558e-08
2.62424e-09
6.81158e-08
2.77735e-09
6.82696e-08
2.88093e-09
6.84037e-08
2.92983e-09
6.85124e-08
2.93004e-09
6.85959e-08
2.89309e-09
6.86569e-08
2.83105e-09
6.86977e-08
2.75443e-09
6.87209e-08
2.67022e-09
6.873e-08
2.58403e-09
6.87297e-08
2.49968e-09
6.87239e-08
2.42044e-09
6.87153e-08
2.34696e-09
6.87048e-08
2.27913e-09
6.86932e-08
2.21544e-09
6.86808e-08
2.15553e-09
6.8668e-08
2.09839e-09
6.86552e-08
2.04439e-09
6.86426e-08
1.99286e-09
6.86302e-08
1.94437e-09
6.86181e-08
1.89816e-09
6.86064e-08
1.85485e-09
6.85952e-08
1.81358e-09
6.85842e-08
1.7751e-09
6.85737e-08
1.73841e-09
6.85635e-08
1.70442e-09
6.85538e-08
1.67199e-09
6.85444e-08
1.64214e-09
6.85354e-08
1.61358e-09
6.85267e-08
1.58747e-09
6.85183e-08
1.56236e-09
6.85101e-08
1.53956e-09
6.85022e-08
1.51746e-09
6.84943e-08
1.49755e-09
6.84867e-08
1.47804e-09
6.8479e-08
1.46065e-09
6.84713e-08
1.44338e-09
6.84636e-08
1.42819e-09
6.84558e-08
1.41285e-09
6.84477e-08
1.39957e-09
6.84395e-08
1.38589e-09
6.8431e-08
1.37429e-09
6.84222e-08
1.36202e-09
6.8413e-08
1.35189e-09
6.84034e-08
1.34082e-09
6.83932e-08
1.33198e-09
6.83827e-08
1.32193e-09
6.83714e-08
1.31421e-09
6.83596e-08
1.30502e-09
6.83471e-08
1.29829e-09
6.83339e-08
1.28981e-09
6.83199e-08
1.28395e-09
6.83051e-08
1.27603e-09
6.82894e-08
1.27094e-09
6.82728e-08
1.26348e-09
6.82552e-08
1.25906e-09
6.82367e-08
1.25195e-09
6.8217e-08
1.24812e-09
6.81963e-08
1.24128e-09
6.81745e-08
1.23797e-09
6.81514e-08
1.23129e-09
6.81272e-08
1.22845e-09
6.81016e-08
1.22186e-09
6.80748e-08
1.21944e-09
6.80466e-08
1.21288e-09
6.80171e-08
1.21081e-09
6.7986e-08
1.20422e-09
6.79536e-08
1.20249e-09
6.79196e-08
1.1958e-09
6.78843e-08
1.19437e-09
6.78472e-08
1.18754e-09
6.78087e-08
1.18636e-09
6.77684e-08
1.17937e-09
6.77267e-08
1.17843e-09
6.7683e-08
1.17122e-09
6.7638e-08
1.17051e-09
6.75909e-08
1.16307e-09
6.75425e-08
1.16256e-09
6.74919e-08
1.15491e-09
6.744e-08
1.1546e-09
6.73858e-08
1.14674e-09
6.73304e-08
1.14666e-09
6.72724e-08
1.13864e-09
6.72135e-08
1.13882e-09
6.71517e-08
1.13073e-09
6.70892e-08
1.13126e-09
6.70236e-08
1.12324e-09
6.69573e-08
1.12423e-09
6.68879e-08
1.1165e-09
6.68178e-08
1.11815e-09
6.67444e-08
1.11101e-09
6.66704e-08
1.11365e-09
6.65929e-08
1.10754e-09
6.6515e-08
1.11154e-09
6.64336e-08
1.10687e-09
6.63514e-08
1.11281e-09
1.11029e-09
8.54424e-08
2.00075e-09
-8.53946e-08
8.55162e-08
2.18472e-09
8.56169e-08
2.3479e-09
8.57421e-08
2.49907e-09
8.58855e-08
2.63388e-09
8.60259e-08
2.74054e-09
8.61527e-08
2.80306e-09
8.62582e-08
2.82456e-09
8.63401e-08
2.81115e-09
8.64003e-08
2.77091e-09
8.64418e-08
2.71289e-09
8.64679e-08
2.64415e-09
8.64814e-08
2.57052e-09
8.64856e-08
2.4955e-09
8.64837e-08
2.42236e-09
8.64782e-08
2.35243e-09
8.64705e-08
2.28681e-09
8.64613e-08
2.22467e-09
8.64508e-08
2.16595e-09
8.64396e-08
2.10959e-09
8.6428e-08
2.05603e-09
8.64163e-08
2.00456e-09
8.64048e-08
1.95591e-09
8.63936e-08
1.90936e-09
8.63827e-08
1.86568e-09
8.63723e-08
1.82398e-09
8.63623e-08
1.7851e-09
8.63528e-08
1.74798e-09
8.63436e-08
1.71356e-09
8.63349e-08
1.68067e-09
8.63267e-08
1.65037e-09
8.63189e-08
1.62135e-09
8.63116e-08
1.59479e-09
8.63047e-08
1.56924e-09
8.62983e-08
1.54602e-09
8.62922e-08
1.52352e-09
8.62865e-08
1.50326e-09
8.62811e-08
1.48342e-09
8.6276e-08
1.46574e-09
8.62712e-08
1.44821e-09
8.62666e-08
1.43278e-09
8.62622e-08
1.41726e-09
8.6258e-08
1.40379e-09
8.62539e-08
1.39e-09
8.62499e-08
1.37826e-09
8.6246e-08
1.36594e-09
8.62421e-08
1.35572e-09
8.62383e-08
1.34468e-09
8.62345e-08
1.33579e-09
8.62305e-08
1.32585e-09
8.62266e-08
1.31811e-09
8.62226e-08
1.3091e-09
8.62185e-08
1.30239e-09
8.62141e-08
1.29417e-09
8.62097e-08
1.28835e-09
8.62049e-08
1.28078e-09
8.62001e-08
1.27577e-09
8.61949e-08
1.26874e-09
8.61895e-08
1.26441e-09
8.61836e-08
1.25784e-09
8.61777e-08
1.25411e-09
8.6171e-08
1.2479e-09
8.61643e-08
1.24471e-09
8.61568e-08
1.23877e-09
8.61492e-08
1.23606e-09
8.61407e-08
1.23034e-09
8.61321e-08
1.22803e-09
8.61225e-08
1.22247e-09
8.61128e-08
1.22052e-09
8.6102e-08
1.21506e-09
8.6091e-08
1.21344e-09
8.60788e-08
1.20801e-09
8.60665e-08
1.20666e-09
8.60528e-08
1.20127e-09
8.6039e-08
1.20014e-09
8.60237e-08
1.19474e-09
8.60083e-08
1.19383e-09
8.59911e-08
1.18836e-09
8.5974e-08
1.18764e-09
8.59549e-08
1.18214e-09
8.59359e-08
1.18157e-09
8.59148e-08
1.17602e-09
8.58938e-08
1.17562e-09
8.58705e-08
1.17004e-09
8.58473e-08
1.16982e-09
8.58217e-08
1.16427e-09
8.57963e-08
1.16427e-09
8.57682e-08
1.15883e-09
8.57403e-08
1.15914e-09
8.57096e-08
1.15396e-09
8.56791e-08
1.15471e-09
8.56456e-08
1.14999e-09
8.56123e-08
1.15141e-09
8.55759e-08
1.14745e-09
8.55397e-08
1.14987e-09
8.55001e-08
1.14708e-09
8.54608e-08
1.15086e-09
8.5418e-08
1.14968e-09
8.53754e-08
1.15545e-09
1.1562e-09
1.07982e-07
1.96081e-09
-1.07942e-07
1.0804e-07
2.1262e-09
1.08117e-07
2.27099e-09
1.0821e-07
2.40564e-09
1.08318e-07
2.52654e-09
1.08426e-07
2.63262e-09
1.08525e-07
2.70386e-09
1.0861e-07
2.7394e-09
1.08678e-07
2.74332e-09
1.08728e-07
2.72043e-09
1.08764e-07
2.67745e-09
1.08787e-07
2.62065e-09
1.08802e-07
2.5562e-09
1.08809e-07
2.48818e-09
1.08811e-07
2.42016e-09
1.0881e-07
2.35372e-09
1.08806e-07
2.29037e-09
1.08801e-07
2.22989e-09
1.08794e-07
2.17249e-09
1.08787e-07
2.11723e-09
1.08779e-07
2.06438e-09
1.0877e-07
2.01328e-09
1.08761e-07
1.96464e-09
1.08752e-07
1.91792e-09
1.08744e-07
1.87392e-09
1.08736e-07
1.83192e-09
1.08729e-07
1.79271e-09
1.08721e-07
1.75531e-09
1.08714e-07
1.72056e-09
1.08708e-07
1.68738e-09
1.08701e-07
1.6567e-09
1.08695e-07
1.62736e-09
1.0869e-07
1.60038e-09
1.08684e-07
1.57452e-09
1.0868e-07
1.5509e-09
1.08675e-07
1.52813e-09
1.08671e-07
1.50748e-09
1.08667e-07
1.48742e-09
1.08663e-07
1.46938e-09
1.0866e-07
1.45169e-09
1.08657e-07
1.43592e-09
1.08653e-07
1.42028e-09
1.08651e-07
1.4065e-09
1.08648e-07
1.39264e-09
1.08646e-07
1.3806e-09
1.08643e-07
1.36828e-09
1.08641e-07
1.35777e-09
1.08639e-07
1.34677e-09
1.08638e-07
1.33759e-09
1.08636e-07
1.32774e-09
1.08634e-07
1.31972e-09
1.08632e-07
1.31086e-09
1.08631e-07
1.30386e-09
1.08629e-07
1.29584e-09
1.08628e-07
1.28974e-09
1.08626e-07
1.28241e-09
1.08625e-07
1.2771e-09
1.08623e-07
1.27038e-09
1.08622e-07
1.26574e-09
1.0862e-07
1.25954e-09
1.08619e-07
1.25548e-09
1.08617e-07
1.2497e-09
1.08615e-07
1.24617e-09
1.08613e-07
1.24073e-09
1.08612e-07
1.23765e-09
1.0861e-07
1.2325e-09
1.08608e-07
1.22979e-09
1.08606e-07
1.22489e-09
1.08604e-07
1.22251e-09
1.08601e-07
1.21777e-09
1.08599e-07
1.21572e-09
1.08595e-07
1.21109e-09
1.08593e-07
1.20927e-09
1.08589e-07
1.20478e-09
1.08586e-07
1.20315e-09
1.08582e-07
1.19872e-09
1.08579e-07
1.1973e-09
1.08574e-07
1.1929e-09
1.0857e-07
1.19163e-09
1.08565e-07
1.1873e-09
1.08561e-07
1.18617e-09
1.08555e-07
1.18186e-09
1.08549e-07
1.18092e-09
1.08543e-07
1.17666e-09
1.08537e-07
1.17588e-09
1.08529e-07
1.17176e-09
1.08522e-07
1.17122e-09
1.08514e-07
1.16727e-09
1.08506e-07
1.16708e-09
1.08496e-07
1.16347e-09
1.08487e-07
1.16377e-09
1.08477e-07
1.1607e-09
1.08466e-07
1.16175e-09
1.08454e-07
1.15949e-09
1.08443e-07
1.16159e-09
1.08429e-07
1.16055e-09
1.08416e-07
1.16413e-09
1.08401e-07
1.16479e-09
1.08386e-07
1.1704e-09
1.17269e-09
1.36515e-07
-1.36501e-07
1.36538e-07
1.36567e-07
1.36604e-07
1.36646e-07
1.36691e-07
1.36734e-07
1.36771e-07
1.36803e-07
1.36827e-07
1.36845e-07
1.36857e-07
1.36866e-07
1.36871e-07
1.36874e-07
1.36876e-07
1.36876e-07
1.36876e-07
1.36875e-07
1.36873e-07
1.36871e-07
1.36868e-07
1.36865e-07
1.36863e-07
1.3686e-07
1.36858e-07
1.36855e-07
1.36853e-07
1.36851e-07
1.36849e-07
1.36847e-07
1.36845e-07
1.36843e-07
1.36841e-07
1.3684e-07
1.36838e-07
1.36837e-07
1.36836e-07
1.36835e-07
1.36834e-07
1.36833e-07
1.36832e-07
1.36831e-07
1.36831e-07
1.3683e-07
1.36829e-07
1.36829e-07
1.36828e-07
1.36828e-07
1.36828e-07
1.36827e-07
1.36827e-07
1.36827e-07
1.36827e-07
1.36827e-07
1.36826e-07
1.36826e-07
1.36826e-07
1.36826e-07
1.36826e-07
1.36826e-07
1.36826e-07
1.36826e-07
1.36825e-07
1.36825e-07
1.36825e-07
1.36825e-07
1.36825e-07
1.36825e-07
1.36825e-07
1.36825e-07
1.36824e-07
1.36824e-07
1.36824e-07
1.36824e-07
1.36823e-07
1.36823e-07
1.36822e-07
1.36822e-07
1.36821e-07
1.36821e-07
1.3682e-07
1.36819e-07
1.36818e-07
1.36818e-07
1.36816e-07
1.36815e-07
1.36814e-07
1.36813e-07
1.36811e-07
1.36809e-07
1.36807e-07
1.36805e-07
1.36803e-07
1.36801e-07
1.36798e-07
1.36795e-07
1.36792e-07
1.36788e-07
3.44473e-08
8.81013e-11
3.44492e-08
-6.21383e-11
3.44458e-08
7.40985e-11
3.44491e-08
-5.82148e-11
3.4442e-08
6.83015e-11
3.44404e-08
-4.67047e-11
3.44288e-08
6.81797e-11
3.44228e-08
-3.21655e-11
3.4406e-08
7.12851e-11
3.43946e-08
-1.34118e-11
3.43704e-08
8.05409e-11
3.43532e-08
1.34201e-11
3.43194e-08
9.75538e-11
3.42906e-08
4.82319e-11
3.42446e-08
1.20235e-10
3.42006e-08
9.31531e-11
3.41376e-08
1.52604e-10
3.40727e-08
1.53725e-10
3.39859e-08
1.99522e-10
3.38892e-08
2.38469e-10
3.37607e-08
2.76027e-10
3.35859e-08
3.9043e-10
3.33145e-08
4.85049e-10
3.27395e-08
9.52953e-10
1.57503e-09
3.80435e-08
9.32804e-11
3.80445e-08
-6.31202e-11
3.80403e-08
7.83552e-11
3.80398e-08
-5.77698e-11
3.80338e-08
7.43531e-11
3.80274e-08
-4.03662e-11
3.80199e-08
7.57051e-11
3.80063e-08
-1.85892e-11
3.79969e-08
8.07328e-11
3.79732e-08
1.02328e-11
3.79604e-08
9.33819e-11
3.79246e-08
4.92262e-11
3.79061e-08
1.16051e-10
3.78534e-08
1.00964e-10
3.78263e-08
1.47299e-10
3.77508e-08
1.686e-10
3.77115e-08
1.91993e-10
3.76044e-08
2.60755e-10
3.75457e-08
2.5827e-10
3.73901e-08
3.94087e-10
3.7286e-08
3.80062e-10
3.70271e-08
6.4939e-10
3.67646e-08
7.47508e-10
3.63232e-08
1.39435e-09
1.8737e-09
4.20233e-08
7.91545e-11
4.20021e-08
-4.19083e-11
4.20192e-08
6.12067e-11
4.19957e-08
-3.41791e-11
4.20122e-08
5.7769e-11
4.19819e-08
-1.00631e-11
4.19963e-08
6.13761e-11
4.1959e-08
1.87076e-11
4.19694e-08
7.0267e-11
4.19239e-08
5.58144e-11
4.19277e-08
8.95288e-11
4.18722e-08
1.04726e-10
4.18652e-08
1.23091e-10
4.1798e-08
1.68125e-10
4.1773e-08
1.72327e-10
4.16925e-08
2.49067e-10
4.16398e-08
2.44666e-10
4.15434e-08
3.57162e-10
4.14462e-08
3.5552e-10
4.13223e-08
5.17992e-10
4.11376e-08
5.6471e-10
4.0949e-08
8.38014e-10
4.06304e-08
1.06613e-09
4.04437e-08
1.58103e-09
2.06722e-09