/*--------------------------------*- C++ -*----------------------------------*\
| =========                 |                                                 |
| \\      /  F ield         | OpenFOAM: The Open Source CFD Toolbox           |
|  \\    /   O peration     | Version:  2.3.0                                 |
|   \\  /    A nd           | Web:      www.OpenFOAM.org                      |
|    \\/     M anipulation  |                                                 |
\*---------------------------------------------------------------------------*/
FoamFile
{
    version     2.0;
    format      ascii;
    class       volScalarField;
    location    "0.45";
    object      p;
}
// * * * * * * * * * * * * * * * * * * * * * * * * * * * * * * * * * * * * * //

dimensions      [0 2 -2 0 0 0 0];

internalField   nonuniform List<scalar> 
3375
(
0.00222975
0.00165375
0.00118612
0.000850013
0.000573028
0.00032514
0.000106535
-7.8188e-05
-0.000227539
-0.000342594
-0.000426061
-0.000481914
-0.000514984
-0.000530376
-0.000532915
-0.000526757
-0.000515212
-0.000500725
-0.000484976
-0.000469034
-0.000453508
-0.000438698
-0.000424706
-0.00041152
-0.000399072
-0.000387274
-0.000376039
-0.000365288
-0.000354959
-0.000345002
-0.00033538
-0.000326066
-0.000317043
-0.000308295
-0.000299815
-0.000291595
-0.000283631
-0.000275918
-0.000268454
-0.000261237
-0.000254262
-0.000247529
-0.000241033
-0.000234773
-0.000228746
-0.000222949
-0.000217378
-0.000212031
-0.000206903
-0.000201992
-0.000197293
-0.000192801
-0.000188513
-0.000184423
-0.000180526
-0.000176816
-0.000173289
-0.000169936
-0.000166751
-0.000163728
-0.000160857
-0.000158131
-0.00015554
-0.000153075
-0.000150726
-0.000148481
-0.000146329
-0.000144256
-0.000142249
-0.000140294
-0.000138375
-0.000136475
-0.000134577
-0.000132661
-0.000130709
-0.000128698
-0.000126608
-0.000124412
-0.000122086
-0.000119599
-0.000116917
-0.000113999
-0.000110798
-0.000107259
-0.000103322
-9.89263e-05
-9.40219e-05
-8.85761e-05
-8.2582e-05
-7.61224e-05
-6.92463e-05
-6.2072e-05
-5.47077e-05
-4.72558e-05
-3.97969e-05
-3.2386e-05
-2.50661e-05
-1.78456e-05
-1.06934e-05
-3.51292e-06
0.00195283
0.00154496
0.00116281
0.000858826
0.000596158
0.000355577
0.000140155
-4.38973e-05
-0.000194051
-0.00031081
-0.000396545
-0.00045498
-0.000490753
-0.000508819
-0.000513897
-0.000510076
-0.000500626
-0.000487979
-0.000473822
-0.000459238
-0.000444862
-0.000431021
-0.000417844
-0.000405346
-0.000393482
-0.000382183
-0.000371377
-0.000360998
-0.000350995
-0.000341325
-0.000331959
-0.000322873
-0.000314055
-0.000305493
-0.000297182
-0.000289116
-0.000281292
-0.000273709
-0.000266365
-0.000259258
-0.000252386
-0.000245747
-0.000239341
-0.000233164
-0.000227215
-0.000221491
-0.000215989
-0.000210706
-0.00020564
-0.000200787
-0.000196142
-0.000191703
-0.000187464
-0.000183422
-0.00017957
-0.000175904
-0.000172417
-0.000169104
-0.000165958
-0.000162971
-0.000160135
-0.000157443
-0.000154886
-0.000152453
-0.000150134
-0.00014792
-0.000145797
-0.000143752
-0.000141774
-0.000139846
-0.000137953
-0.00013608
-0.000134207
-0.000132317
-0.000130389
-0.000128403
-0.000126337
-0.000124165
-0.000121862
-0.000119398
-0.00011674
-0.000113847
-0.000110671
-0.000107159
-0.000103249
-9.88818e-05
-9.40034e-05
-8.8581e-05
-8.2628e-05
-7.61737e-05
-6.93046e-05
-6.21328e-05
-5.47687e-05
-4.7316e-05
-3.98555e-05
-3.2441e-05
-2.51172e-05
-1.78924e-05
-1.07343e-05
-3.54488e-06
0.00174708
0.00144615
0.00112443
0.000845669
0.000599238
0.000372831
0.00016848
-8.33073e-06
-0.000154846
-0.000271034
-0.000358596
-0.000420498
-0.00046063
-0.000483313
-0.000492795
-0.000492873
-0.000486684
-0.000476645
-0.000464501
-0.000451434
-0.000438187
-0.000425185
-0.000412639
-0.000400627
-0.00038915
-0.000378169
-0.000367636
-0.000357498
-0.000347711
-0.000338239
-0.000329055
-0.000320138
-0.000311477
-0.000303061
-0.000294885
-0.000286944
-0.000279238
-0.000271764
-0.000264521
-0.000257508
-0.000250724
-0.000244168
-0.000237838
-0.000231734
-0.000225852
-0.000220191
-0.000214749
-0.000209523
-0.00020451
-0.000199707
-0.000195111
-0.000190717
-0.000186521
-0.00018252
-0.000178707
-0.000175078
-0.000171628
-0.000168349
-0.000165236
-0.000162281
-0.000159477
-0.000156815
-0.000154286
-0.000151882
-0.000149591
-0.000147403
-0.000145305
-0.000143287
-0.000141333
-0.00013943
-0.000137561
-0.000135711
-0.000133862
-0.000131995
-0.00013009
-0.000128127
-0.000126083
-0.000123933
-0.000121653
-0.000119212
-0.000116577
-0.000113707
-0.000110556
-0.000107068
-0.000103184
-9.88408e-05
-9.3985e-05
-8.85799e-05
-8.26207e-05
-7.61658e-05
-6.93151e-05
-6.21592e-05
-5.48021e-05
-4.73528e-05
-3.98949e-05
-3.24821e-05
-2.51624e-05
-1.79435e-05
-1.0792e-05
-3.62809e-06
0.00157024
0.00133892
0.00106937
0.000820086
0.000594819
0.000386825
0.000197325
3.09764e-05
-0.000109275
-0.000222835
-0.000310734
-0.000375186
-0.000419301
-0.000446691
-0.000461044
-0.000465762
-0.000463747
-0.000457312
-0.000448191
-0.000437609
-0.000426376
-0.000414998
-0.000403761
-0.000392808
-0.000382194
-0.000371926
-0.000361987
-0.000352352
-0.000342995
-0.000333895
-0.000325037
-0.000316407
-0.000308001
-0.000299813
-0.000291841
-0.000284086
-0.000276548
-0.000269228
-0.000262125
-0.000255241
-0.000248576
-0.00024213
-0.000235903
-0.000229893
-0.0002241
-0.000218522
-0.000213157
-0.000208004
-0.00020306
-0.000198321
-0.000193786
-0.000189449
-0.000185308
-0.000181359
-0.000177595
-0.000174014
-0.000170608
-0.000167372
-0.0001643
-0.000161384
-0.000158617
-0.000155992
-0.000153498
-0.000151127
-0.000148869
-0.000146713
-0.000144646
-0.000142658
-0.000140734
-0.000138859
-0.000137019
-0.000135197
-0.000133375
-0.000131535
-0.000129657
-0.00012772
-0.000125702
-0.00012358
-0.000121326
-0.000118912
-0.000116304
-0.000113461
-0.000110337
-0.000106876
-0.000103017
-9.86987e-05
-9.3865e-05
-8.84813e-05
-8.25445e-05
-7.60856e-05
-6.92213e-05
-6.20912e-05
-5.47719e-05
-4.73533e-05
-3.99175e-05
-3.25202e-05
-2.5219e-05
-1.80243e-05
-1.09118e-05
-3.87476e-06
0.00141219
0.00123101
0.00100853
0.00079042
0.000587304
0.0003977
0.000223215
6.7978e-05
-6.49865e-05
-0.000174674
-0.000261611
-0.000327425
-0.000374567
-0.000406006
-0.000424865
-0.000434113
-0.000436355
-0.000433736
-0.000427916
-0.000420118
-0.000411197
-0.000401718
-0.000392038
-0.000382365
-0.000372812
-0.000363432
-0.000354246
-0.000345258
-0.000336464
-0.00032786
-0.00031944
-0.000311203
-0.00030315
-0.00029528
-0.000287597
-0.000280105
-0.000272806
-0.000265704
-0.000258801
-0.0002521
-0.000245604
-0.000239313
-0.000233229
-0.000227352
-0.000221682
-0.000216218
-0.00021096
-0.000205906
-0.000201054
-0.000196402
-0.000191948
-0.000187688
-0.000183619
-0.000179737
-0.000176038
-0.000172517
-0.000169169
-0.000165987
-0.000162967
-0.0001601
-0.000157381
-0.0001548
-0.00015235
-0.00015002
-0.000147802
-0.000145684
-0.000143655
-0.000141703
-0.000139813
-0.000137973
-0.000136166
-0.000134377
-0.000132588
-0.00013078
-0.000128934
-0.000127028
-0.000125042
-0.000122951
-0.000120728
-0.000118346
-0.000115769
-0.000112957
-0.000109864
-0.000106433
-0.000102604
-9.8314e-05
-9.35097e-05
-8.81572e-05
-8.22569e-05
-7.58497e-05
-6.90324e-05
-6.19047e-05
-5.45957e-05
-4.72345e-05
-3.98636e-05
-3.25221e-05
-2.52742e-05
-1.81381e-05
-1.11197e-05
-4.35831e-06
0.00127522
0.0011302
0.000946662
0.000757455
0.000575527
0.000403432
0.000243585
9.96874e-05
-2.5341e-05
-0.000130242
-0.000215153
-0.000281221
-0.000330347
-0.000364926
-0.000387562
-0.000400798
-0.000406933
-0.000407911
-0.000405291
-0.000400264
-0.000393698
-0.000386199
-0.000378175
-0.000369889
-0.000361503
-0.000353115
-0.000344779
-0.000336528
-0.00032838
-0.000320346
-0.000312435
-0.000304655
-0.000297014
-0.000289519
-0.000282177
-0.000274996
-0.000267982
-0.000261142
-0.00025448
-0.000248002
-0.000241711
-0.000235611
-0.000229703
-0.00022399
-0.000218472
-0.000213151
-0.000208025
-0.000203095
-0.000198359
-0.000193816
-0.000189463
-0.000185299
-0.000181319
-0.000177522
-0.000173902
-0.000170455
-0.000167177
-0.000164063
-0.000161105
-0.000158298
-0.000155635
-0.000153108
-0.000150708
-0.000148427
-0.000146256
-0.000144182
-0.000142196
-0.000140284
-0.000138435
-0.000136633
-0.000134864
-0.000133111
-0.000131358
-0.000129586
-0.000127775
-0.000125904
-0.000123953
-0.000121897
-0.00011971
-0.000117362
-0.00011482
-0.000112043
-0.000108983
-0.000105587
-0.000101794
-9.7543e-05
-9.27829e-05
-8.74826e-05
-8.16451e-05
-7.53145e-05
-6.85808e-05
-6.15493e-05
-5.43345e-05
-4.70154e-05
-3.96799e-05
-3.24155e-05
-2.52608e-05
-1.82358e-05
-1.13876e-05
-5.05958e-06
0.00115632
0.00103716
0.000884624
0.000721252
0.000559489
0.000404216
0.000258594
0.000126012
9.22306e-06
-9.03465e-05
-0.000172503
-0.000237982
-0.000288212
-0.000325092
-0.000350761
-0.000367373
-0.000376926
-0.000381163
-0.000381521
-0.000379133
-0.000374857
-0.00036932
-0.000362965
-0.000356096
-0.000348916
-0.000341559
-0.000334114
-0.000326638
-0.00031917
-0.00031174
-0.000304368
-0.000297074
-0.000289872
-0.000282776
-0.0002758
-0.000268953
-0.000262247
-0.000255691
-0.000249292
-0.000243056
-0.000236991
-0.000231099
-0.000225386
-0.000219855
-0.000214507
-0.000209343
-0.000204366
-0.000199574
-0.000194968
-0.000190547
-0.000186309
-0.000182252
-0.000178373
-0.000174671
-0.00017114
-0.000167778
-0.000164579
-0.000161538
-0.000158651
-0.00015591
-0.00015331
-0.000150841
-0.000148498
-0.00014627
-0.000144148
-0.000142122
-0.000140182
-0.000138314
-0.000136506
-0.000134745
-0.000133015
-0.000131301
-0.000129585
-0.000127849
-0.000126075
-0.000124241
-0.000122326
-0.000120306
-0.000118156
-0.000115845
-0.00011334
-0.0001106
-0.000107579
-0.000104224
-0.000100476
-9.62784e-05
-9.1583e-05
-8.63624e-05
-8.06216e-05
-7.44045e-05
-6.77952e-05
-6.08938e-05
-5.38049e-05
-4.66151e-05
-3.9412e-05
-3.22653e-05
-2.52079e-05
-1.82922e-05
-1.16306e-05
-5.76902e-06
0.00105202
0.000951832
0.000823887
0.000683178
0.00054026
0.000400929
0.000268867
0.000147281
3.87575e-05
-5.5178e-05
-0.000134064
-0.000198291
-0.000248884
-0.000287321
-0.000315334
-0.000334723
-0.000347207
-0.000354325
-0.000357382
-0.00035744
-0.000355329
-0.000351679
-0.000346952
-0.000341483
-0.000335507
-0.000329189
-0.000322645
-0.000315957
-0.000309185
-0.000302372
-0.000295553
-0.000288757
-0.000282006
-0.000275321
-0.000268721
-0.000262219
-0.000255831
-0.000249567
-0.000243439
-0.000237455
-0.000231622
-0.000225948
-0.000220438
-0.000215095
-0.000209923
-0.000204925
-0.000200102
-0.000195456
-0.000190986
-0.000186692
-0.000182573
-0.000178628
-0.000174855
-0.000171252
-0.000167814
-0.000164539
-0.000161422
-0.000158459
-0.000155644
-0.000152971
-0.000150434
-0.000148026
-0.000145738
-0.000143563
-0.000141492
-0.000139513
-0.000137617
-0.000135792
-0.000134025
-0.000132302
-0.00013061
-0.000128932
-0.000127252
-0.000125551
-0.000123812
-0.000122013
-0.000120133
-0.000118149
-0.000116034
-0.00011376
-0.000111292
-0.000108592
-0.000105613
-0.000102306
-9.8614e-05
-9.44854e-05
-8.98764e-05
-8.47635e-05
-7.91531e-05
-7.30874e-05
-6.66429e-05
-5.99127e-05
-5.29944e-05
-4.59736e-05
-3.89307e-05
-3.19331e-05
-2.5028e-05
-1.82792e-05
-1.18253e-05
-6.29576e-06
0.000959696
0.000873937
0.000765578
0.000644374
0.000518644
0.000394176
0.000274884
0.000163848
6.34929e-05
-2.46205e-05
-9.98352e-05
-0.000162256
-0.000212577
-0.000251913
-0.000281641
-0.000303246
-0.000318185
-0.000327801
-0.000333263
-0.000335552
-0.000335456
-0.000333592
-0.000330431
-0.000326326
-0.000321536
-0.000316251
-0.00031061
-0.000304715
-0.000298644
-0.000292456
-0.000286198
-0.000279906
-0.000273613
-0.000267345
-0.000261126
-0.000254974
-0.000248908
-0.000242942
-0.000237089
-0.00023136
-0.000225765
-0.000220312
-0.000215007
-0.000209856
-0.000204864
-0.000200034
-0.000195368
-0.000190869
-0.000186536
-0.000182372
-0.000178374
-0.000174543
-0.000170877
-0.000167373
-0.000164029
-0.000160841
-0.000157806
-0.000154919
-0.000152175
-0.000149569
-0.000147094
-0.000144744
-0.000142511
-0.000140387
-0.000138362
-0.000136428
-0.000134574
-0.000132788
-0.000131057
-0.00012937
-0.000127711
-0.000126065
-0.000124417
-0.000122748
-0.000121039
-0.000119272
-0.000117424
-0.000115473
-0.000113392
-0.000111153
-0.000108722
-0.000106062
-0.00010313
-9.98757e-05
-9.62504e-05
-9.22054e-05
-8.77021e-05
-8.2721e-05
-7.72693e-05
-7.13864e-05
-6.5141e-05
-5.86183e-05
-5.19078e-05
-4.50914e-05
-3.82449e-05
-3.14345e-05
-2.47129e-05
-1.81492e-05
-1.1894e-05
-6.53085e-06
0.000877279
0.000802883
0.000710247
0.000605629
0.000495301
0.000384524
0.000277169
0.000176171
8.37974e-05
1.59341e-06
-6.96518e-05
-0.00012982
-0.000179325
-0.00021898
-0.000249856
-0.000273153
-0.000290094
-0.000301831
-0.000309402
-0.000313695
-0.000315448
-0.000315254
-0.000313581
-0.00031079
-0.000307156
-0.000302887
-0.00029814
-0.000293037
-0.00028767
-0.00028211
-0.000276415
-0.000270634
-0.000264803
-0.000258957
-0.000253124
-0.000247327
-0.000241587
-0.000235922
-0.000230349
-0.000224879
-0.000219524
-0.000214295
-0.000209199
-0.000204243
-0.000199433
-0.000194772
-0.000190266
-0.000185915
-0.000181723
-0.000177689
-0.000173813
-0.000170097
-0.000166537
-0.000163133
-0.000159882
-0.000156782
-0.000153828
-0.000151016
-0.000148343
-0.000145802
-0.000143388
-0.000141093
-0.000138912
-0.000136836
-0.000134856
-0.000132963
-0.000131146
-0.000129396
-0.000127699
-0.000126043
-0.000124413
-0.000122796
-0.000121175
-0.000119534
-0.000117853
-0.000116113
-0.000114294
-0.000112372
-0.000110323
-0.000108117
-0.000105724
-0.000103106
-0.000100222
-9.70285e-05
-9.34785e-05
-8.95292e-05
-8.51471e-05
-8.03159e-05
-7.50436e-05
-6.93659e-05
-6.33442e-05
-5.70552e-05
-5.05804e-05
-4.39965e-05
-3.73749e-05
-3.07788e-05
-2.42631e-05
-1.78982e-05
-1.1823e-05
-6.48777e-06
0.000803146
0.000737966
0.0006581
0.000567525
0.000470832
0.000372534
0.000276246
0.000184718
0.000100056
2.37558e-05
-4.33168e-05
-0.000100874
-0.000149106
-0.000188572
-0.00022008
-0.000244586
-0.000263095
-0.000276587
-0.000285966
-0.000292027
-0.00029545
-0.000296795
-0.000296516
-0.000294975
-0.000292455
-0.000289176
-0.000285309
-0.000280989
-0.000276322
-0.00027139
-0.000266262
-0.000260993
-0.00025563
-0.00025021
-0.000244767
-0.000239329
-0.00023392
-0.000228562
-0.000223271
-0.000218065
-0.000212955
-0.000207954
-0.000203071
-0.000198313
-0.000193688
-0.000189202
-0.000184857
-0.000180658
-0.000176608
-0.000172707
-0.000168956
-0.000165355
-0.000161904
-0.000158601
-0.000155445
-0.000152432
-0.00014956
-0.000146825
-0.000144221
-0.000141745
-0.000139391
-0.000137152
-0.000135022
-0.000132992
-0.000131055
-0.000129201
-0.000127421
-0.000125704
-0.000124038
-0.000122411
-0.000120809
-0.000119217
-0.000117622
-0.000116005
-0.000114349
-0.000112635
-0.000110843
-0.000108949
-0.00010693
-0.000104758
-0.000102403
-9.98291e-05
-9.69989e-05
-9.38711e-05
-9.04044e-05
-8.65607e-05
-8.23113e-05
-7.76427e-05
-7.25632e-05
-6.7105e-05
-6.13223e-05
-5.52836e-05
-4.90625e-05
-4.273e-05
-3.63524e-05
-2.99893e-05
-2.36952e-05
-1.75347e-05
-1.16182e-05
-6.23728e-06
0.000736007
0.000678489
0.000609141
0.000530458
0.000445735
0.000358702
0.000272594
0.00018993
0.000112648
4.21676e-05
-2.06113e-05
-7.52818e-05
-0.000121859
-0.000160693
-0.000192374
-0.000217642
-0.000237313
-0.000252203
-0.000263091
-0.000270679
-0.000275582
-0.000278322
-0.000279331
-0.000278963
-0.000277503
-0.000275176
-0.000272165
-0.000268613
-0.000264637
-0.000260329
-0.000255766
-0.000251011
-0.000246116
-0.000241126
-0.000236077
-0.000231002
-0.000225929
-0.000220882
-0.00021588
-0.000210941
-0.000206081
-0.000201313
-0.000196647
-0.000192092
-0.000187658
-0.000183349
-0.000179171
-0.000175128
-0.000171223
-0.000167458
-0.000163835
-0.000160354
-0.000157015
-0.000153816
-0.000150757
-0.000147834
-0.000145046
-0.000142388
-0.000139857
-0.000137447
-0.000135154
-0.000132971
-0.000130893
-0.00012891
-0.000127017
-0.000125202
-0.000123459
-0.000121775
-0.000120139
-0.000118541
-0.000116965
-0.0001154
-0.000113829
-0.000112236
-0.000110605
-0.000108917
-0.000107151
-0.000105287
-0.000103299
-0.000101163
-9.88482e-05
-9.63226e-05
-9.35507e-05
-9.04953e-05
-8.71193e-05
-8.33894e-05
-7.92811e-05
-7.47837e-05
-6.99051e-05
-6.46743e-05
-5.9139e-05
-5.33598e-05
-4.74029e-05
-4.13331e-05
-3.52113e-05
-2.90932e-05
-2.30296e-05
-1.70757e-05
-1.1307e-05
-5.87625e-06
0.000674828
0.00062381
0.000563244
0.000494663
0.000420397
0.000343458
0.000266647
0.000192223
0.000121944
5.71372e-05
-1.30031e-06
-5.28843e-05
-9.74982e-05
-0.000135324
-0.000166771
-0.000192397
-0.000212847
-0.000228795
-0.000240899
-0.00024977
-0.000255956
-0.000259935
-0.000262113
-0.000262829
-0.000262362
-0.000260941
-0.000258751
-0.000255945
-0.000252644
-0.000248951
-0.000244947
-0.000240703
-0.000236276
-0.000231715
-0.000227063
-0.000222354
-0.000217621
-0.000212888
-0.000208179
-0.000203513
-0.000198908
-0.000194377
-0.000189934
-0.000185588
-0.000181348
-0.000177222
-0.000173215
-0.000169333
-0.000165579
-0.000161955
-0.000158464
-0.000155107
-0.000151883
-0.000148793
-0.000145834
-0.000143005
-0.000140304
-0.000137727
-0.000135271
-0.000132931
-0.000130701
-0.000128578
-0.000126553
-0.00012462
-0.000122771
-0.000120999
-0.000119293
-0.000117644
-0.000116041
-0.000114473
-0.000112926
-0.000111387
-0.000109843
-0.000108276
-0.000106672
-0.000105011
-0.000103274
-0.000101441
-9.94882e-05
-9.73909e-05
-9.51212e-05
-9.26489e-05
-8.99414e-05
-8.69652e-05
-8.36871e-05
-8.00784e-05
-7.61181e-05
-7.17977e-05
-6.7125e-05
-6.21257e-05
-5.68417e-05
-5.13265e-05
-4.56391e-05
-3.98381e-05
-3.39792e-05
-2.81132e-05
-2.2286e-05
-1.65411e-05
-1.09225e-05
-5.48567e-06
0.000618766
0.000573352
0.000520215
0.00046026
0.000395111
0.000327165
0.000258796
0.000191983
0.000128302
6.89703e-05
1.48587e-05
-3.35073e-05
-7.59158e-05
-0.00011242
-0.000143278
-0.000168898
-0.000189779
-0.000206462
-0.000219497
-0.000229407
-0.000236675
-0.00024173
-0.000244946
-0.000246645
-0.000247095
-0.000246521
-0.000245111
-0.000243018
-0.000240371
-0.000237275
-0.00023382
-0.00023008
-0.000226117
-0.000221984
-0.000217728
-0.000213387
-0.000208995
-0.00020458
-0.000200168
-0.000195779
-0.000191433
-0.000187145
-0.000182929
-0.000178796
-0.000174757
-0.000170819
-0.000166989
-0.000163273
-0.000159674
-0.000156197
-0.000152843
-0.000149615
-0.000146511
-0.000143533
-0.00014068
-0.00013795
-0.00013534
-0.000132848
-0.000130471
-0.000128203
-0.000126042
-0.00012398
-0.000122013
-0.000120133
-0.000118333
-0.000116605
-0.000114941
-0.00011333
-0.000111762
-0.000110227
-0.000108711
-0.000107203
-0.000105687
-0.00010415
-0.000102575
-0.000100945
-9.92412e-05
-9.74434e-05
-9.55298e-05
-9.34766e-05
-9.12577e-05
-8.8845e-05
-8.62089e-05
-8.33191e-05
-8.01463e-05
-7.66656e-05
-7.28593e-05
-6.87206e-05
-6.4257e-05
-5.94913e-05
-5.44602e-05
-4.92108e-05
-4.37953e-05
-3.82665e-05
-3.26747e-05
-2.70656e-05
-2.14791e-05
-1.59481e-05
-1.04926e-05
-5.1142e-06
0.000567123
0.000526607
0.000479828
0.00042728
0.000370082
0.000310123
0.000249382
0.000189563
0.000132056
7.79645e-05
2.81107e-05
-1.69653e-05
-5.69883e-05
-9.19137e-05
-0.000121882
-0.000147175
-0.000168166
-0.000185284
-0.000198977
-0.000209688
-0.000217834
-0.000223796
-0.000227914
-0.000230485
-0.000231765
-0.000231972
-0.000231288
-0.000229869
-0.000227845
-0.000225326
-0.000222403
-0.000219155
-0.000215649
-0.00021194
-0.000208077
-0.000204103
-0.000200052
-0.000195957
-0.000191844
-0.000187735
-0.000183652
-0.000179611
-0.000175627
-0.000171712
-0.000167878
-0.000164134
-0.000160486
-0.000156941
-0.000153503
-0.000150178
-0.000146967
-0.000143872
-0.000140894
-0.000138034
-0.000135291
-0.000132664
-0.00013015
-0.000127748
-0.000125454
-0.000123264
-0.000121174
-0.000119179
-0.000117274
-0.000115451
-0.000113703
-0.000112024
-0.000110405
-0.000108836
-0.000107307
-0.000105809
-0.000104329
-0.000102854
-0.000101373
-9.98688e-05
-9.83277e-05
-9.67329e-05
-9.50664e-05
-9.33091e-05
-9.14401e-05
-8.9437e-05
-8.72754e-05
-8.49295e-05
-8.23721e-05
-7.95762e-05
-7.65161e-05
-7.31701e-05
-6.95233e-05
-6.55705e-05
-6.13187e-05
-5.6788e-05
-5.20105e-05
-4.70276e-05
-4.18854e-05
-3.66308e-05
-3.13089e-05
-2.59604e-05
-2.06193e-05
-1.53094e-05
-1.00362e-05
-4.7804e-06
0.000519315
0.000483125
0.000441844
0.0003957
0.000345448
0.000292571
0.000238698
0.000185278
0.000133518
8.44048e-05
3.86986e-05
-3.06686e-06
-4.05791e-05
-7.37232e-05
-0.000102549
-0.000127234
-0.000148049
-0.000165324
-0.000179418
-0.000190698
-0.00019952
-0.000206217
-0.000211093
-0.00021442
-0.000216434
-0.000217344
-0.000217327
-0.000216535
-0.000215098
-0.000213127
-0.000210715
-0.000207943
-0.000204881
-0.000201587
-0.000198112
-0.000194501
-0.000190791
-0.000187015
-0.000183202
-0.000179376
-0.000175558
-0.000171768
-0.00016802
-0.000164328
-0.000160704
-0.000157158
-0.000153697
-0.000150328
-0.000147058
-0.000143889
-0.000140826
-0.00013787
-0.000135024
-0.000132287
-0.000129659
-0.00012714
-0.000124728
-0.00012242
-0.000120215
-0.000118107
-0.000116094
-0.00011417
-0.000112331
-0.000110569
-0.000108879
-0.000107253
-0.000105683
-0.000104161
-0.000102676
-0.000101219
-9.97786e-05
-9.83429e-05
-9.68991e-05
-9.54336e-05
-9.39315e-05
-9.23772e-05
-9.07536e-05
-8.90426e-05
-8.72244e-05
-8.5278e-05
-8.31809e-05
-8.09091e-05
-7.84383e-05
-7.57441e-05
-7.28041e-05
-6.95995e-05
-6.61177e-05
-6.23549e-05
-5.83174e-05
-5.4023e-05
-4.94998e-05
-4.47838e-05
-3.99156e-05
-3.49369e-05
-2.98875e-05
-2.48033e-05
-1.97129e-05
-1.46336e-05
-9.56371e-06
-4.4831e-06
0.000474846
0.00044251
0.00040603
0.000365459
0.000321293
0.000274694
0.000226994
0.000179408
0.000132975
8.85614e-05
4.68607e-05
8.38362e-06
-2.65406e-05
-5.77495e-05
-8.52243e-05
-0.000109062
-0.000129448
-0.000146627
-0.000160882
-0.000172512
-0.000181813
-0.000189074
-0.000194562
-0.00019852
-0.000201167
-0.000202697
-0.000203278
-0.000203058
-0.000202164
-0.000200706
-0.000198778
-0.000196462
-0.000193828
-0.000190937
-0.000187841
-0.000184587
-0.000181213
-0.000177755
-0.000174241
-0.000170698
-0.000167148
-0.00016361
-0.000160102
-0.000156636
-0.000153227
-0.000149883
-0.000146614
-0.000143428
-0.000140329
-0.000137322
-0.000134413
-0.000131602
-0.000128892
-0.000126283
-0.000123776
-0.000121371
-0.000119065
-0.000116858
-0.000114746
-0.000112726
-0.000110795
-0.000108947
-0.000107179
-0.000105483
-0.000103855
-0.000102287
-0.000100772
-9.93003e-05
-9.78642e-05
-9.64535e-05
-9.50578e-05
-9.36657e-05
-9.22651e-05
-9.0843e-05
-8.93854e-05
-8.78773e-05
-8.63026e-05
-8.46441e-05
-8.28834e-05
-8.10008e-05
-7.89754e-05
-7.67855e-05
-7.44091e-05
-7.18245e-05
-6.9012e-05
-6.59554e-05
-6.26443e-05
-5.90755e-05
-5.5255e-05
-5.11985e-05
-4.69303e-05
-4.2482e-05
-3.78889e-05
-3.31877e-05
-2.84136e-05
-2.35977e-05
-1.87643e-05
-1.39262e-05
-9.07987e-06
-4.21281e-06
0.000433287
0.000404411
0.000372158
0.000336468
0.000297656
0.000256628
0.00021447
0.000172194
0.00013068
9.06825e-05
5.28234e-05
1.75798e-05
-1.47184e-05
-4.388e-05
-6.9837e-05
-9.26244e-05
-0.000112358
-0.000129215
-0.000143409
-0.000155179
-0.00016477
-0.000172425
-0.000178376
-0.000182839
-0.000186012
-0.000188072
-0.000189178
-0.00018947
-0.00018907
-0.000188085
-0.000186609
-0.000184722
-0.000182497
-0.000179993
-0.000177265
-0.00017436
-0.000171317
-0.000168172
-0.000164956
-0.000161695
-0.000158413
-0.00015513
-0.000151864
-0.000148628
-0.000145437
-0.0001423
-0.000139228
-0.000136228
-0.000133306
-0.000130468
-0.000127717
-0.000125056
-0.000122488
-0.000120013
-0.000117633
-0.000115347
-0.000113153
-0.000111051
-0.000109038
-0.000107111
-0.000105267
-0.000103501
-0.000101808
-0.000100185
-9.86237e-05
-9.71187e-05
-9.56626e-05
-9.42476e-05
-9.28651e-05
-9.15059e-05
-9.01601e-05
-8.88171e-05
-8.74652e-05
-8.60922e-05
-8.46848e-05
-8.32289e-05
-8.17094e-05
-8.01101e-05
-7.84138e-05
-7.66022e-05
-7.46563e-05
-7.25563e-05
-7.02822e-05
-6.7815e-05
-6.51374e-05
-6.22356e-05
-5.91007e-05
-5.57302e-05
-5.21299e-05
-4.83131e-05
-4.43013e-05
-4.01216e-05
-3.5805e-05
-3.13834e-05
-2.68876e-05
-2.23448e-05
-1.77754e-05
-1.31895e-05
-8.58492e-06
-3.95796e-06
0.000394269
0.000368523
0.000340021
0.000308637
0.000274553
0.000238481
0.000201301
0.000163848
0.000126865
9.09986e-05
5.67997e-05
2.47051e-05
-4.96585e-06
-3.20081e-05
-5.63206e-05
-7.78922e-05
-9.67849e-05
-0.000113118
-0.00012705
-0.000138766
-0.000148465
-0.00015635
-0.000162617
-0.000167456
-0.000171042
-0.000173537
-0.000175087
-0.000175822
-0.000175859
-0.000175302
-0.000174239
-0.000172752
-0.00017091
-0.000168775
-0.000166399
-0.00016383
-0.000161109
-0.000158271
-0.000155348
-0.000152368
-0.000149354
-0.000146326
-0.000143303
-0.000140299
-0.000137329
-0.000134404
-0.000131532
-0.000128723
-0.000125983
-0.000123318
-0.000120731
-0.000118226
-0.000115805
-0.00011347
-0.000111222
-0.000109061
-0.000106985
-0.000104994
-0.000103085
-0.000101256
-9.95043e-05
-9.78252e-05
-9.62147e-05
-9.46679e-05
-9.31793e-05
-9.17427e-05
-9.03513e-05
-8.8998e-05
-8.76745e-05
-8.63723e-05
-8.5082e-05
-8.37936e-05
-8.24962e-05
-8.11781e-05
-7.98271e-05
-7.84297e-05
-7.6972e-05
-7.54387e-05
-7.3814e-05
-7.20811e-05
-7.02224e-05
-6.82201e-05
-6.60564e-05
-6.37145e-05
-6.11793e-05
-5.84389e-05
-5.54858e-05
-5.23183e-05
-4.89413e-05
-4.53667e-05
-4.16129e-05
-3.77034e-05
-3.3665e-05
-2.95255e-05
-2.53117e-05
-2.1047e-05
-1.6749e-05
-1.24264e-05
-8.07909e-06
-3.71012e-06
0.000357444
0.000334543
0.000309395
0.000281834
0.000251952
0.000220306
0.000187609
0.000154548
0.00012174
8.97369e-05
5.90186e-05
2.99781e-05
2.9158e-06
-2.19609e-05
-4.45311e-05
-6.47508e-05
-8.2641e-05
-9.82748e-05
-0.000111765
-0.000123251
-0.000132891
-0.000140849
-0.000147291
-0.000152381
-0.000156271
-0.000159105
-0.000161017
-0.000162127
-0.000162544
-0.000162364
-0.000161676
-0.000160555
-0.000159069
-0.000157279
-0.000155238
-0.000152992
-0.000150583
-0.000148045
-0.00014541
-0.000142707
-0.000139958
-0.000137185
-0.000134406
-0.000131637
-0.000128891
-0.00012618
-0.000123513
-0.0001209
-0.000118346
-0.000115859
-0.000113441
-0.000111097
-0.00010883
-0.00010664
-0.00010453
-0.000102499
-0.000100546
-9.86719e-05
-9.68734e-05
-9.51486e-05
-9.34947e-05
-9.19082e-05
-9.0385e-05
-8.89207e-05
-8.751e-05
-8.61473e-05
-8.48264e-05
-8.35403e-05
-8.22815e-05
-8.1042e-05
-7.98131e-05
-7.85852e-05
-7.73482e-05
-7.60914e-05
-7.48031e-05
-7.34709e-05
-7.20818e-05
-7.06217e-05
-6.90761e-05
-6.74294e-05
-6.5666e-05
-6.37695e-05
-6.17244e-05
-5.95157e-05
-5.71303e-05
-5.4558e-05
-5.17926e-05
-4.88328e-05
-4.56829e-05
-4.23533e-05
-3.88598e-05
-3.52227e-05
-3.14649e-05
-2.76107e-05
-2.3683e-05
-1.97023e-05
-1.56837e-05
-1.16352e-05
-7.55913e-06
-3.46014e-06
0.00031599
0.000296178
0.000274609
0.000251095
0.000225657
0.000198707
0.000170797
0.000142468
0.000114211
8.64759e-05
5.96638e-05
3.41145e-05
1.00992e-05
-1.21821e-05
-3.25975e-05
-5.10779e-05
-6.7609e-05
-8.22227e-05
-9.49871e-05
-0.000105998
-0.00011537
-0.00012323
-0.000129709
-0.000134939
-0.000139051
-0.000142166
-0.000144402
-0.000145865
-0.000146653
-0.000146857
-0.000146556
-0.000145823
-0.000144723
-0.000143312
-0.000141644
-0.000139762
-0.000137706
-0.000135512
-0.000133212
-0.000130831
-0.000128394
-0.000125923
-0.000123434
-0.000120944
-0.000118467
-0.000116014
-0.000113596
-0.00011122
-0.000108893
-0.000106623
-0.000104413
-0.000102267
-0.000100188
-9.81784e-05
-9.62387e-05
-9.43697e-05
-9.25712e-05
-9.08424e-05
-8.91819e-05
-8.75877e-05
-8.60573e-05
-8.45876e-05
-8.31751e-05
-8.18156e-05
-8.05045e-05
-7.92366e-05
-7.80061e-05
-7.68069e-05
-7.56319e-05
-7.4474e-05
-7.33249e-05
-7.21762e-05
-7.10185e-05
-6.9842e-05
-6.8636e-05
-6.73894e-05
-6.60902e-05
-6.47258e-05
-6.3283e-05
-6.17482e-05
-6.01074e-05
-5.83464e-05
-5.64517e-05
-5.44106e-05
-5.22122e-05
-4.98478e-05
-4.73125e-05
-4.46054e-05
-4.17303e-05
-3.86957e-05
-3.55147e-05
-3.22043e-05
-2.87834e-05
-2.52722e-05
-2.169e-05
-1.80539e-05
-1.43768e-05
-1.06663e-05
-6.92732e-06
-3.15971e-06
0.000269996
0.00025344
0.000235566
0.00021619
0.000195282
0.000173135
0.00015016
0.000126759
0.000103308
8.01548e-05
5.76169e-05
3.59733e-05
1.54553e-05
-3.75706e-06
-2.1534e-05
-3.77939e-05
-5.24986e-05
-6.5648e-05
-7.72735e-05
-8.74318e-05
-9.61986e-05
-0.000103663
-0.000109921
-0.000115076
-0.000119228
-0.000122477
-0.000124919
-0.000126645
-0.00012774
-0.000128282
-0.000128342
-0.000127985
-0.000127271
-0.000126253
-0.000124977
-0.000123487
-0.000121821
-0.000120011
-0.000118087
-0.000116076
-0.000114
-0.00011188
-0.000109734
-0.000107576
-0.00010542
-0.000103278
-0.000101159
-9.9072e-05
-9.70239e-05
-9.50206e-05
-9.30668e-05
-9.11664e-05
-8.93224e-05
-8.75369e-05
-8.58113e-05
-8.41463e-05
-8.2542e-05
-8.0998e-05
-7.95131e-05
-7.80858e-05
-7.67139e-05
-7.53949e-05
-7.41255e-05
-7.29023e-05
-7.17212e-05
-7.05775e-05
-6.94664e-05
-6.83821e-05
-6.73187e-05
-6.62697e-05
-6.52278e-05
-6.41856e-05
-6.31347e-05
-6.20666e-05
-6.09718e-05
-5.98405e-05
-5.86622e-05
-5.7426e-05
-5.61205e-05
-5.4734e-05
-5.32545e-05
-5.16702e-05
-4.99699e-05
-4.81431e-05
-4.6181e-05
-4.40767e-05
-4.18264e-05
-3.94295e-05
-3.68889e-05
-3.42116e-05
-3.14081e-05
-2.84916e-05
-2.54774e-05
-2.23814e-05
-1.92192e-05
-1.60046e-05
-1.27485e-05
-9.45828e-06
-6.14036e-06
-2.7949e-06
0.000223822
0.000210398
0.000196016
0.000180504
0.000163809
0.000146133
0.000127771
0.000109018
9.01474e-05
7.14183e-05
5.30741e-05
3.53335e-05
1.83842e-05
2.37942e-06
-1.25635e-05
-2.63622e-05
-3.8967e-05
-5.03578e-05
-6.05405e-05
-6.95425e-05
-7.74086e-05
-8.41964e-05
-8.99731e-05
-9.48117e-05
-9.87881e-05
-0.000101979
-0.000104461
-0.000106305
-0.000107583
-0.00010836
-0.000108695
-0.000108646
-0.000108264
-0.000107596
-0.000106684
-0.000105565
-0.000104275
-0.000102844
-0.000101299
-9.96637e-05
-9.79599e-05
-9.62062e-05
-9.44191e-05
-9.2613e-05
-9.08005e-05
-8.89925e-05
-8.71982e-05
-8.54257e-05
-8.36817e-05
-8.19719e-05
-8.0301e-05
-7.86727e-05
-7.70899e-05
-7.5555e-05
-7.40693e-05
-7.26338e-05
-7.12487e-05
-6.9914e-05
-6.86287e-05
-6.73917e-05
-6.62012e-05
-6.50552e-05
-6.3951e-05
-6.28857e-05
-6.18557e-05
-6.08572e-05
-5.9886e-05
-5.89372e-05
-5.80057e-05
-5.7086e-05
-5.61719e-05
-5.52569e-05
-5.4334e-05
-5.33958e-05
-5.24343e-05
-5.14411e-05
-5.04075e-05
-4.93242e-05
-4.81817e-05
-4.69702e-05