/*--------------------------------*- C++ -*----------------------------------*\
| =========                 |                                                 |
| \\      /  F ield         | OpenFOAM: The Open Source CFD Toolbox           |
|  \\    /   O peration     | Version:  2.3.0                                 |
|   \\  /    A nd           | Web:      www.OpenFOAM.org                      |
|    \\/     M anipulation  |                                                 |
\*---------------------------------------------------------------------------*/
FoamFile
{
    version     2.0;
    format      ascii;
    class       surfaceScalarField;
    location    "0.65";
    object      phi;
}
// * * * * * * * * * * * * * * * * * * * * * * * * * * * * * * * * * * * * * //

dimensions      [0 3 -1 0 0 0 0];

internalField   nonuniform List<scalar> 
1660
(
6.34737e-08
2.7139e-09
-6.61876e-08
5.97935e-08
3.68015e-09
5.58192e-08
3.97434e-09
5.18743e-08
3.94486e-09
4.79776e-08
3.89672e-09
4.40887e-08
3.88894e-09
4.02122e-08
3.87652e-09
3.63857e-08
3.82648e-09
3.26725e-08
3.71319e-09
2.9154e-08
3.51848e-09
2.59129e-08
3.24108e-09
2.30162e-08
2.89672e-09
2.05239e-08
2.49228e-09
1.84726e-08
2.05136e-09
1.68573e-08
1.61526e-09
1.56305e-08
1.22677e-09
1.47234e-08
9.0716e-10
1.40594e-08
6.63942e-10
1.35687e-08
4.90716e-10
1.31962e-08
3.72541e-10
1.28979e-08
2.98273e-10
1.26442e-08
2.53754e-10
1.2411e-08
2.3319e-10
1.21854e-08
2.2552e-10
1.19615e-08
2.23972e-10
1.17368e-08
2.24701e-10
1.15126e-08
2.24145e-10
1.12902e-08
2.22383e-10
1.10701e-08
2.20148e-10
1.08584e-08
2.11719e-10
1.06519e-08
2.06523e-10
1.04542e-08
1.97659e-10
1.02681e-08
1.86132e-10
1.00902e-08
1.77821e-10
9.92158e-09
1.68666e-10
9.7656e-09
1.55976e-10
9.61641e-09
1.49189e-10
9.47739e-09
1.39018e-10
9.34845e-09
1.28944e-10
9.22505e-09
1.23399e-10
9.10894e-09
1.16106e-10
9.00408e-09
1.04866e-10
8.90224e-09
1.01838e-10
8.8046e-09
9.76417e-11
8.71658e-09
8.80214e-11
8.63302e-09
8.35592e-11
8.54982e-09
8.31975e-11
8.47028e-09
7.95433e-11
8.39556e-09
7.47157e-11
7.97917e-11
7.27365e-08
2.50154e-09
-7.25242e-08
7.2864e-08
3.55271e-09
7.25315e-08
4.30677e-09
7.1856e-08
4.62042e-09
7.09898e-08
4.76287e-09
6.99763e-08
4.90244e-09
6.87835e-08
5.06933e-09
6.73913e-08
5.21876e-09
6.58171e-08
5.28737e-09
6.40938e-08
5.24171e-09
6.22495e-08
5.08538e-09
6.03259e-08
4.82039e-09
5.83631e-08
4.45507e-09
5.64078e-08
4.00669e-09
5.45021e-08
3.52092e-09
5.26817e-08
3.04713e-09
5.0967e-08
2.62194e-09
4.93622e-08
2.26873e-09
4.78627e-08
1.99019e-09
4.6457e-08
1.77821e-09
4.51446e-08
1.61075e-09
4.39185e-08
1.47984e-09
4.27671e-08
1.38452e-09
4.16848e-08
1.30788e-09
4.06632e-08
1.24552e-09
3.96988e-08
1.18916e-09
3.87868e-08
1.13614e-09
3.79241e-08
1.08508e-09
3.71056e-08
1.03862e-09
3.63338e-08
9.83583e-10
3.56004e-08
9.39862e-10
3.4909e-08
8.89083e-10
3.42559e-08
8.39192e-10
3.364e-08
7.93725e-10
3.30565e-08
7.52202e-10
3.25107e-08
7.01768e-10
3.1993e-08
6.66878e-10
3.15091e-08
6.22917e-10
3.10501e-08
5.87997e-10
3.06216e-08
5.51868e-10
3.02162e-08
5.21508e-10
2.98421e-08
4.78923e-10
2.94817e-08
4.62261e-10
2.91514e-08
4.27953e-10
2.88382e-08
4.01196e-10
2.85514e-08
3.704e-10
2.82698e-08
3.64826e-10
2.80165e-08
3.32754e-10
2.7768e-08
3.23225e-10
3.096e-10
7.87651e-08
2.47021e-09
-7.87337e-08
7.90837e-08
3.23412e-09
7.93631e-08
4.02731e-09
7.94928e-08
4.4907e-09
7.95161e-08
4.73962e-09
7.94991e-08
4.91945e-09
7.94601e-08
5.10828e-09
7.93658e-08
5.31304e-09
7.91874e-08
5.46583e-09
7.89022e-08
5.52693e-09
7.85044e-08
5.48313e-09
7.79933e-08
5.33152e-09
7.73669e-08
5.08145e-09
7.66387e-08
4.73493e-09
7.58242e-08
4.33539e-09
7.49505e-08
3.92077e-09
7.40424e-08
3.53007e-09
7.31147e-08
3.19646e-09
7.21788e-08
2.92606e-09
7.12448e-08
2.71222e-09
7.03082e-08
2.54736e-09
6.9377e-08
2.41103e-09
6.84479e-08
2.31367e-09
6.75279e-08
2.22784e-09
6.66116e-08
2.16186e-09
6.57036e-08
2.09712e-09
6.48026e-08
2.03712e-09
6.3911e-08
1.97665e-09
6.30275e-08
1.92218e-09
6.21597e-08
1.8514e-09
6.12993e-08
1.80023e-09
6.0461e-08
1.72737e-09
5.96337e-08
1.66646e-09
5.88288e-08
1.59862e-09
5.80405e-08
1.54049e-09
5.72782e-08
1.46414e-09
5.6529e-08
1.41604e-09
5.58165e-08
1.33542e-09
5.51161e-08
1.2884e-09
5.4448e-08
1.21995e-09
5.38003e-08
1.16925e-09
5.31921e-08
1.0871e-09
5.25899e-08
1.06449e-09
5.2033e-08
9.84811e-10
5.14914e-08
9.42807e-10
5.09902e-08
8.71626e-10
5.04932e-08
8.61818e-10
5.00432e-08
7.82699e-10
4.95963e-08
7.70136e-10
7.165e-10
8.5341e-08
2.47298e-09
-8.53438e-08
8.55105e-08
3.06464e-09
8.58064e-08
3.73138e-09
8.60617e-08
4.23539e-09
8.6238e-08
4.56335e-09
8.63829e-08
4.77452e-09
8.65546e-08
4.93657e-09
8.67515e-08
5.1162e-09
8.69456e-08
5.27167e-09
8.71118e-08
5.36081e-09
8.72263e-08
5.36856e-09
8.72816e-08
5.27626e-09
8.72614e-08
5.10168e-09
8.71625e-08
4.83377e-09
8.69817e-08
4.51622e-09
8.67312e-08
4.17123e-09
8.64264e-08
3.83491e-09
8.6082e-08
3.54088e-09
8.57101e-08
3.29796e-09
8.5321e-08
3.10126e-09
8.49102e-08
2.95814e-09
8.4489e-08
2.83227e-09
8.40513e-08
2.75135e-09
8.36072e-08
2.67193e-09
8.31487e-08
2.62042e-09
8.26816e-08
2.56414e-09
8.22015e-08
2.51729e-09
8.1713e-08
2.4651e-09
8.12075e-08
2.42769e-09
8.0699e-08
2.35996e-09
8.01711e-08
2.32813e-09
7.96435e-08
2.25495e-09
7.91002e-08
2.20979e-09
7.85565e-08
2.14223e-09
7.80022e-08
2.09481e-09
7.74537e-08
2.01263e-09
7.68886e-08
1.98122e-09
7.63383e-08
1.88572e-09
7.57764e-08
1.85027e-09
7.52247e-08
1.77162e-09
7.46689e-08
1.7251e-09
7.41343e-08
1.62162e-09
7.3585e-08
1.61384e-09
7.30608e-08
1.50899e-09
7.25369e-08
1.46677e-09
7.20358e-08
1.37267e-09
7.15274e-08
1.37027e-09
7.10479e-08
1.26214e-09
7.05664e-08
1.25161e-09
1.17365e-09
9.2434e-08
2.469e-09
-9.243e-08
9.25423e-08
2.95634e-09
9.27795e-08
3.4942e-09
9.30344e-08
3.98049e-09
9.3251e-08
4.34668e-09
9.34333e-08
4.59225e-09
9.36195e-08
4.75038e-09
9.38334e-08
4.90229e-09
9.40697e-08
5.03541e-09
9.43082e-08
5.1223e-09
9.45226e-08
5.15416e-09
9.47037e-08
5.09509e-09
9.48378e-08
4.96758e-09
9.49201e-08
4.75154e-09
9.49417e-08
4.49454e-09
9.49098e-08
4.20322e-09
9.48324e-08
3.91221e-09
9.47257e-08
3.64762e-09
9.45968e-08
3.42687e-09
9.44582e-08
3.23987e-09
9.43053e-08
3.11108e-09
9.41487e-08
2.98882e-09
9.39831e-08
2.91695e-09
9.38179e-08
2.83717e-09
9.36441e-08
2.79422e-09
9.34683e-08
2.73997e-09
9.32834e-08
2.70217e-09
9.30972e-08
2.65125e-09
9.28962e-08
2.62866e-09
9.2693e-08
2.56323e-09
9.24728e-08
2.54833e-09
9.22516e-08
2.47611e-09
9.20136e-08
2.44777e-09
9.17706e-08
2.38528e-09
9.15125e-08
2.35287e-09
9.12559e-08
2.26927e-09
9.09798e-08
2.25732e-09
9.07036e-08
2.16192e-09
9.04146e-08
2.13925e-09
9.01215e-08
2.06476e-09
8.98173e-08
2.02931e-09
8.9516e-08
1.92285e-09
8.91999e-08
1.92999e-09
8.88847e-08
1.82412e-09
8.85615e-08
1.79002e-09
8.82395e-08
1.69467e-09
8.79166e-08
1.69312e-09
8.75915e-08
1.58731e-09
8.72581e-08
1.58504e-09
1.50602e-09
1.00073e-07
2.45535e-09
-1.00059e-07
1.00158e-07
2.87106e-09
1.00342e-07
3.31081e-09
1.00571e-07
3.75088e-09
1.00798e-07
4.12011e-09
1.01003e-07
4.3867e-09
1.01192e-07
4.56228e-09
1.01393e-07
4.70046e-09
1.01613e-07
4.81561e-09
1.01844e-07
4.89129e-09
1.02062e-07
4.93605e-09
1.02257e-07
4.90069e-09
1.02415e-07
4.80976e-09
1.02531e-07
4.63501e-09
1.02599e-07
4.42697e-09
1.02621e-07
4.18089e-09
1.02604e-07
3.92965e-09
1.02563e-07
3.68846e-09
1.02503e-07
3.48628e-09
1.02438e-07
3.30469e-09
1.02367e-07
3.18262e-09
1.02295e-07
3.06028e-09
1.02222e-07
2.99037e-09
1.02154e-07
2.90544e-09
1.02084e-07
2.86373e-09
1.02018e-07
2.80592e-09
1.01951e-07
2.76974e-09
1.01888e-07
2.71446e-09
1.01819e-07
2.69671e-09
1.01753e-07
2.62987e-09
1.01679e-07
2.62264e-09
1.01606e-07
2.54894e-09
1.01527e-07
2.52675e-09
1.01445e-07
2.46744e-09
1.01353e-07
2.44465e-09
1.01262e-07
2.35973e-09
1.01166e-07
2.35353e-09
1.01062e-07
2.26583e-09
1.00955e-07
2.24623e-09
1.00843e-07
2.17711e-09
1.00724e-07
2.14783e-09
1.00599e-07
2.04791e-09
1.00469e-07
2.06025e-09
1.00333e-07
1.95989e-09
1.00192e-07
1.93115e-09
1.00035e-07
1.85205e-09
9.9887e-08
1.84086e-09
9.97331e-08
1.74119e-09
9.95668e-08
1.75138e-09
1.68275e-09
1.08309e-07
2.43547e-09
-1.08289e-07
1.08385e-07
2.79514e-09
1.08526e-07
3.16957e-09
1.08728e-07
3.54865e-09
1.08946e-07
3.90262e-09
1.09161e-07
4.17174e-09
1.09353e-07
4.36986e-09
1.09547e-07
4.50607e-09
1.09749e-07
4.61372e-09
1.0996e-07
4.68054e-09
1.10165e-07
4.73152e-09
1.10353e-07
4.71219e-09
1.10511e-07
4.65158e-09
1.10633e-07
4.51366e-09
1.10711e-07
4.34811e-09
1.10749e-07
4.14342e-09
1.10749e-07
3.92924e-09
1.10727e-07
3.71093e-09
1.10686e-07
3.52696e-09
1.10639e-07
3.35173e-09
1.10589e-07
3.23244e-09
1.10539e-07
3.11069e-09
1.10489e-07
3.03979e-09
1.10445e-07
2.95003e-09
1.10403e-07
2.906e-09
1.10365e-07
2.84368e-09
1.10329e-07
2.80533e-09
1.10298e-07
2.74536e-09
1.10269e-07
2.72641e-09
1.10242e-07
2.6565e-09
1.10214e-07
2.65052e-09
1.10187e-07
2.57587e-09
1.10161e-07
2.55253e-09
1.10135e-07
2.49399e-09
1.10105e-07
2.47449e-09
1.10073e-07
2.39128e-09
1.10046e-07
2.38076e-09
1.10011e-07
2.30095e-09
1.09978e-07
2.27951e-09
1.09943e-07
2.2117e-09
1.09907e-07
2.18388e-09
1.09863e-07
2.09214e-09
1.09819e-07
2.10401e-09
1.0977e-07
2.00953e-09
1.09721e-07
1.97979e-09
1.09655e-07
1.91826e-09
1.09595e-07
1.90049e-09
1.09536e-07
1.80069e-09
1.09468e-07
1.81932e-09
1.76203e-09
1.17193e-07
2.41119e-09
-1.17169e-07
1.17262e-07
2.72633e-09
1.17381e-07
3.05111e-09
1.1755e-07
3.37931e-09
1.17752e-07
3.70113e-09
1.1796e-07
3.9629e-09
1.18158e-07
4.17273e-09
1.18346e-07
4.31796e-09
1.18534e-07
4.4257e-09
1.18724e-07
4.48999e-09
1.18913e-07
4.54321e-09
1.19089e-07
4.53576e-09
1.19242e-07
4.49838e-09
1.19362e-07
4.39331e-09
1.19446e-07
4.26467e-09
1.19492e-07
4.09743e-09
1.19503e-07
3.91856e-09
1.1949e-07
3.72385e-09
1.19459e-07
3.55799e-09
1.19418e-07
3.39192e-09
1.19377e-07
3.2743e-09
1.19333e-07
3.1541e-09
1.19292e-07
3.08134e-09
1.19253e-07
2.98897e-09
1.19217e-07
2.94146e-09
1.19186e-07
2.8749e-09
1.19157e-07
2.83396e-09
1.19132e-07
2.77029e-09
1.19111e-07
2.74834e-09
1.19092e-07
2.67529e-09
1.19075e-07
2.66697e-09
1.19058e-07
2.59267e-09
1.19045e-07
2.56635e-09
1.19031e-07
2.50767e-09
1.19018e-07
2.48705e-09
1.19002e-07
2.40756e-09
1.18992e-07
2.39102e-09
1.18977e-07
2.31588e-09
1.18963e-07
2.29305e-09
1.18952e-07
2.22301e-09
1.18941e-07
2.19533e-09
1.18922e-07
2.11033e-09
1.18907e-07
2.11903e-09
1.18885e-07
2.03155e-09
1.18865e-07
1.99994e-09
1.18837e-07
1.94657e-09
1.18809e-07
1.92882e-09
1.18781e-07
1.82832e-09
1.18751e-07
1.84965e-09
1.80039e-09
1.26782e-07
2.38271e-09
-1.26753e-07
1.26845e-07
2.66328e-09
1.26946e-07
2.94941e-09
1.2709e-07
3.23552e-09
1.2727e-07
3.52151e-09
1.27465e-07
3.76803e-09
1.27657e-07
3.98037e-09
1.27841e-07
4.13391e-09
1.28016e-07
4.25036e-09
1.2819e-07
4.31663e-09
1.28361e-07
4.37179e-09
1.28522e-07
4.37452e-09
1.28666e-07
4.35442e-09
1.28782e-07
4.27733e-09
1.28867e-07
4.17992e-09
1.28919e-07
4.04522e-09
1.28939e-07
3.89896e-09
1.28934e-07
3.72845e-09
1.28911e-07
3.58104e-09
1.28878e-07
3.42571e-09
1.28841e-07
3.31095e-09
1.28802e-07
3.19268e-09
1.28766e-07
3.11759e-09
1.2873e-07
3.0248e-09
1.28698e-07
2.97366e-09
1.2867e-07
2.90305e-09
1.28643e-07
2.8605e-09
1.2862e-07
2.79347e-09
1.286e-07
2.76867e-09
1.28582e-07
2.6933e-09
1.28568e-07
2.68066e-09
1.28553e-07
2.60755e-09
1.28541e-07
2.57846e-09
1.2853e-07
2.5187e-09
1.28521e-07
2.49578e-09
1.28509e-07
2.42029e-09
1.285e-07
2.3994e-09
1.28491e-07
2.32563e-09
1.28481e-07
2.30269e-09
1.28475e-07
2.22859e-09
1.28468e-07
2.20251e-09
1.28455e-07
2.12329e-09
1.28448e-07
2.12575e-09
1.28434e-07
2.04595e-09
1.28418e-07
2.01637e-09
1.28402e-07
1.96221e-09
1.28384e-07
1.94697e-09
1.28363e-07
1.8489e-09
1.28342e-07
1.87055e-09
1.82575e-09
1.37133e-07
2.35933e-09
-1.3711e-07
1.37187e-07
2.60941e-09
1.37275e-07
2.86105e-09
1.374e-07
3.11052e-09
1.37556e-07
3.36632e-09
1.37733e-07
3.59057e-09
1.37912e-07
3.80181e-09
1.38086e-07
3.95908e-09
1.38251e-07
4.08525e-09
1.3841e-07
4.15812e-09
1.38564e-07
4.21779e-09
1.38709e-07
4.22973e-09
1.3884e-07
4.2231e-09
1.38948e-07
4.16907e-09
1.39031e-07
4.09691e-09
1.39087e-07
3.98943e-09
1.39114e-07
3.87195e-09
1.39118e-07
3.72491e-09
1.39102e-07
3.59676e-09
1.39075e-07
3.45293e-09
1.39043e-07
3.3424e-09
1.39009e-07
3.22694e-09
1.38977e-07
3.14913e-09
1.38945e-07
3.05683e-09
1.38916e-07
3.00265e-09
1.38891e-07
2.92843e-09
1.38866e-07
2.88528e-09
1.38845e-07
2.81453e-09
1.38826e-07
2.78751e-09
1.38808e-07
2.71144e-09
1.38796e-07
2.69289e-09
1.38782e-07
2.62123e-09
1.3877e-07
2.59099e-09
1.3876e-07
2.5287e-09
1.38752e-07
2.50356e-09
1.38741e-07
2.43138e-09
1.38733e-07
2.4075e-09
1.38724e-07
2.33415e-09
1.38715e-07
2.31247e-09
1.3871e-07
2.23278e-09
1.38704e-07
2.20863e-09
1.38692e-07
2.13544e-09
1.38687e-07
2.1304e-09
1.38675e-07
2.05809e-09
1.38658e-07
2.03385e-09
1.38646e-07
1.97424e-09
1.38632e-07
1.96041e-09
1.38614e-07
1.86732e-09
1.38595e-07
1.88986e-09
1.84724e-09
1.70127e-07
2.31569e-09
-1.70083e-07
1.70196e-07
2.53968e-09
1.70292e-07
2.76512e-09
1.70419e-07
2.98339e-09
1.70573e-07
3.21312e-09
1.70747e-07
3.41577e-09
1.7093e-07
3.61922e-09
1.71109e-07
3.77986e-09
1.7128e-07
3.91433e-09
1.71441e-07
3.99725e-09
1.71594e-07
4.06441e-09
1.71737e-07
4.08656e-09
1.71869e-07
4.092e-09
1.71979e-07
4.05863e-09
1.72067e-07
4.00858e-09
1.72131e-07
3.9257e-09
1.72167e-07
3.83605e-09
1.72179e-07
3.71279e-09
1.7217e-07
3.60572e-09
1.72147e-07
3.47629e-09
1.72117e-07
3.37196e-09
1.72085e-07
3.25958e-09
1.72055e-07
3.17899e-09
1.72024e-07
3.08756e-09
1.71996e-07
3.03072e-09
1.71972e-07
2.95216e-09
1.71947e-07
2.91002e-09
1.71926e-07
2.83618e-09
1.71907e-07
2.80595e-09
1.71888e-07
2.7311e-09
1.71874e-07
2.7064e-09
1.7186e-07
2.63494e-09
1.71847e-07
2.6043e-09
1.71837e-07
2.53914e-09
1.71828e-07
2.51266e-09
1.71817e-07
2.44237e-09
1.71809e-07
2.41517e-09
1.71801e-07
2.34251e-09
1.7179e-07
2.32351e-09
1.71785e-07
2.23744e-09
1.71778e-07
2.21574e-09
1.71764e-07
2.14891e-09
1.7176e-07
2.13435e-09
1.71749e-07
2.06916e-09
1.7173e-07
2.05362e-09
1.71716e-07
1.98749e-09
1.71703e-07
1.97346e-09
1.71685e-07
1.88591e-09
1.71665e-07
1.90967e-09
1.86897e-09
2.14623e-07
2.26357e-09
-2.1457e-07
2.14702e-07
2.46046e-09
2.14804e-07
2.66253e-09
2.14931e-07
2.8568e-09
2.15077e-07
3.06746e-09
2.15238e-07
3.25461e-09
2.15409e-07
3.44749e-09
2.1558e-07
3.60884e-09
2.15745e-07
3.75004e-09
2.15899e-07
3.8431e-09
2.16044e-07
3.91901e-09
2.16178e-07
3.9532e-09
2.163e-07
3.96973e-09
2.16406e-07
3.95295e-09
2.16493e-07
3.92154e-09
2.16559e-07
3.85897e-09
2.16602e-07
3.79313e-09
2.16623e-07
3.69197e-09
2.16623e-07
3.60586e-09
2.16608e-07
3.49106e-09
2.16583e-07
3.39734e-09
2.16553e-07
3.28949e-09
2.16526e-07
3.20596e-09
2.165e-07
3.11382e-09
2.16475e-07
3.05532e-09
2.16454e-07
2.9731e-09
2.16433e-07
2.93117e-09
2.16413e-07
2.85611e-09
2.16396e-07
2.82324e-09
2.16377e-07
2.74969e-09
2.16364e-07
2.71959e-09
2.1635e-07
2.64881e-09
2.16337e-07
2.61768e-09
2.16328e-07
2.54827e-09
2.16319e-07
2.52085e-09
2.16309e-07
2.45299e-09
2.163e-07
2.42404e-09
2.16292e-07
2.35014e-09
2.16284e-07
2.33206e-09
2.1628e-07
2.24155e-09
2.1627e-07
2.22515e-09
2.16256e-07
2.16278e-09
2.16254e-07
2.13711e-09
2.16243e-07
2.07948e-09
2.16223e-07
2.07432e-09
2.16209e-07
2.00077e-09
2.16198e-07
1.98457e-09
2.1618e-07
1.90398e-09
2.16161e-07
1.92891e-09
1.89025e-09
2.70789e-07
2.21027e-09
-2.70736e-07
2.70864e-07
2.38552e-09
2.70957e-07
2.56972e-09
2.71064e-07
2.75003e-09
2.71182e-07
2.94912e-09
2.71309e-07
3.12764e-09
2.71442e-07
3.31459e-09
2.7158e-07
3.47089e-09
2.71712e-07
3.61803e-09
2.71837e-07
3.71817e-09
2.71955e-07
3.80084e-09
2.72062e-07
3.84582e-09
2.7216e-07
3.87179e-09
2.72246e-07
3.86691e-09
2.7232e-07
3.84845e-09
2.72378e-07
3.80031e-09
2.7242e-07
3.75138e-09
2.72445e-07
3.66714e-09
2.72454e-07
3.59706e-09
2.7245e-07
3.49466e-09
2.72435e-07
3.41279e-09
2.72414e-07
3.30958e-09
2.72392e-07
3.22848e-09
2.72372e-07
3.1335e-09
2.72357e-07
3.07016e-09
2.72343e-07
2.98786e-09
2.72328e-07
2.94537e-09
2.72316e-07
2.8687e-09
2.72304e-07
2.83557e-09
2.72289e-07
2.76464e-09
2.72279e-07
2.72917e-09
2.72269e-07
2.65902e-09
2.72259e-07
2.62743e-09
2.72251e-07
2.55675e-09
2.72244e-07
2.5278e-09
2.72239e-07
2.45713e-09
2.72235e-07
2.42892e-09
2.72226e-07
2.35835e-09
2.72218e-07
2.33994e-09
2.72217e-07
2.24336e-09
2.7221e-07
2.23158e-09
2.722e-07
2.17301e-09
2.72199e-07
2.13793e-09
2.7219e-07
2.08888e-09
2.72172e-07
2.09243e-09
2.72161e-07
2.01135e-09
2.72154e-07
1.99217e-09
2.72139e-07
1.91874e-09
2.72122e-07
1.94522e-09
1.905e-09
3.41737e-07
-3.41713e-07
3.4177e-07
3.41811e-07
3.41857e-07
3.41907e-07
3.41961e-07
3.42017e-07
3.42077e-07
3.42136e-07
3.42192e-07
3.42246e-07
3.42295e-07
3.42341e-07
3.42381e-07
3.42415e-07
3.42444e-07
3.42466e-07
3.42482e-07
3.4249e-07
3.42494e-07
3.4249e-07
3.42486e-07
3.42478e-07
3.4247e-07
3.42466e-07
3.42463e-07
3.42459e-07
3.42456e-07
3.42452e-07
3.42449e-07
3.42446e-07
3.42442e-07
3.42441e-07
3.42441e-07
3.42439e-07
3.42437e-07
3.42436e-07
3.42436e-07
3.42438e-07
3.42438e-07
3.42433e-07
3.42429e-07
3.42433e-07
3.42432e-07
3.42426e-07
3.42422e-07
3.4242e-07
3.42415e-07
3.42409e-07
6.90546e-08
-1.46132e-10
6.9044e-08
1.57707e-11
6.89722e-08
1.29282e-10
6.89082e-08
1.0585e-10
6.88208e-08
2.20501e-10
6.87352e-08
1.56402e-10
6.8622e-08
3.02631e-10
6.84915e-08
2.41845e-10
6.82598e-08
4.95954e-10
6.79295e-08
5.5705e-10
6.7268e-08
1.16674e-09
1.77705e-09
7.44571e-08
-6.84352e-11
7.44902e-08
-1.73249e-11
7.44084e-08
2.11118e-10
7.4374e-08
1.40282e-10
7.42589e-08
3.35536e-10
7.41781e-08
2.37231e-10
7.40192e-08
4.61497e-10
7.38586e-08
4.02436e-10
7.35967e-08
7.57902e-10
7.3229e-08
9.24688e-10
7.28066e-08
1.58922e-09
2.05945e-09
8.04289e-08
4.69358e-12
8.04134e-08
-1.82967e-12
8.03775e-08
2.47077e-10
8.02963e-08
2.2147e-10
8.02261e-08
4.05735e-10
8.00741e-08
3.89209e-10
7.99646e-08
5.70974e-10
7.97039e-08
6.63166e-10
7.95045e-08
9.57312e-10
7.91426e-08
1.28654e-09
7.89656e-08
1.76632e-09
2.29127e-09
8.69131e-08
3.8626e-11
8.6848e-08
6.32381e-11
8.68362e-08
2.5893e-10
8.67378e-08
3.19816e-10
8.66705e-08
4.73084e-10
8.65075e-08
5.52166e-10
8.63658e-08
7.12714e-10
8.61307e-08
8.9825e-10
8.59112e-08
1.17685e-09
8.56553e-08
1.54241e-09
8.54849e-08
1.93668e-09
2.43243e-09
9.38903e-08
5.62961e-11
9.38164e-08
1.37128e-10
9.37901e-08
2.85238e-10
9.37004e-08
4.09495e-10
9.36136e-08
5.59976e-10
9.34595e-08
7.06258e-10
9.32921e-08
8.8009e-10
9.30837e-08
1.10665e-09
9.28727e-08
1.38787e-09
9.26779e-08
1.73717e-09
9.25147e-08
2.09988e-09
2.51713e-09
1.01411e-07
7.13117e-11
1.01348e-07
2.00481e-10
1.01295e-07
3.38467e-10
1.01211e-07
4.9349e-10
1.01107e-07
6.63778e-10
1.00962e-07
8.51303e-10
1.00789e-07
1.05245e-09
1.00599e-07
1.29731e-09
1.00408e-07
1.57899e-09
1.00247e-07
1.8978e-09
1.00116e-07
2.23103e-09
2.57357e-09
1.0953e-07
8.73324e-11
1.09477e-07
2.543e-10
1.09406e-07
4.08798e-10
1.09316e-07
5.83567e-10
1.09203e-07
7.76601e-10
1.09064e-07
9.91134e-10
1.08899e-07
1.21691e-09
1.08725e-07
1.47085e-09
1.08558e-07
1.74638e-09
1.08424e-07
2.03233e-09
1.08326e-07
2.32901e-09
2.61037e-09
1.18299e-07
1.05004e-10
1.18251e-07
3.02718e-10
1.18171e-07
4.8806e-10
1.18074e-07
6.81217e-10
1.17956e-07
8.93892e-10
1.1782e-07
1.12704e-09
1.17669e-07
1.36873e-09
1.17515e-07
1.62484e-09
1.17373e-07
1.88791e-09
1.17262e-07
2.14322e-09
1.1719e-07
2.40155e-09
2.6309e-09
1.2777e-07
1.24116e-10
1.27722e-07
3.50464e-10
1.27641e-07
5.69038e-10
1.27539e-07
7.83056e-10
1.27421e-07
1.01229e-09
1.2729e-07
1.2577e-09
1.27153e-07
1.50654e-09
1.27019e-07
1.75872e-09
1.26905e-07
2.00195e-09
1.26816e-07
2.23143e-09
1.26762e-07
2.45574e-09
2.6399e-09
1.38e-07
1.44267e-10
1.3795e-07
3.99817e-10
1.37871e-07
6.48618e-10
1.37769e-07
8.85012e-10
1.37653e-07
1.12789e-09
1.3753e-07
1.38086e-09
1.37407e-07
1.62931e-09
1.37293e-07
1.87347e-09
1.37205e-07
2.08952e-09
1.3714e-07
2.29626e-09
1.37109e-07
2.48668e-09
2.63937e-09
1.70994e-07
1.68253e-10
1.70934e-07
4.60636e-10
1.70841e-07
7.41295e-10
1.70725e-07
1.00141e-09
1.70597e-07
1.25567e-09
1.70465e-07
1.51216e-09
1.70342e-07
1.7527e-09
1.70237e-07
1.97898e-09
1.70155e-07
2.171e-09
1.70098e-07
2.35361e-09
1.70071e-07
2.51333e-09
2.62757e-09
2.15442e-07
1.95951e-10
2.1537e-07
5.32665e-10
2.15265e-07
8.46474e-10
2.15138e-07
1.12794e-09
2.15005e-07
1.38914e-09
2.14874e-07
1.64321e-09
2.14758e-07
1.86855e-09
2.14671e-07
2.06564e-09
2.14597e-07
2.24495e-09
2.14554e-07
2.39727e-09
2.14544e-07
2.52329e-09
2.6009e-09
2.71447e-07
2.23335e-10
2.71377e-07
6.03207e-10
2.71276e-07
9.4791e-10
2.71157e-07
1.24684e-09
2.71035e-07
1.51097e-09
2.70925e-07
1.75333e-09
2.70847e-07
1.9461e-09
2.70774e-07
2.13851e-09
2.70723e-07
2.29639e-09
2.70698e-07
2.422e-09
2.70701e-07
2.52029e-09
2.56599e-09
3.42022e-07
3.41982e-07
3.41926e-07
3.41861e-07
3.41797e-07
3.4176e-07
3.41723e-07
3.41696e-07
3.41683e-07
3.41682e-07
3.41691e-07
)
;

boundaryField
{
    top
    {
        type            calculated;
        value           nonuniform List<scalar> 
62
(
2.18574e-09
2.35291e-09
2.52851e-09
2.70415e-09
2.89876e-09
3.07397e-09
3.25864e-09
3.41044e-09
3.55956e-09
3.66183e-09
3.74664e-09
3.79667e-09
3.82664e-09
3.82664e-09
3.81403e-09
3.7719e-09
3.72869e-09
3.65196e-09
3.58865e-09
3.49108e-09
3.41603e-09
3.31437e-09
3.23576e-09
3.14209e-09
3.07402e-09
2.99098e-09
2.94891e-09
2.87229e-09
2.83868e-09
2.76838e-09
2.73139e-09
2.66342e-09
2.62892e-09
2.55645e-09
2.52967e-09
2.45944e-09
2.43012e-09
2.35782e-09
2.33837e-09
2.24285e-09
2.23629e-09
2.17716e-09
2.13389e-09
2.08993e-09
2.09913e-09
2.01515e-09
1.99378e-09
1.92376e-09
1.9516e-09
1.90879e-09
2.38592e-10
6.42535e-10
1.00412e-09
1.31184e-09
1.57513e-09
1.79026e-09
1.9832e-09
2.16509e-09
2.31e-09
2.42307e-09
2.51048e-09
2.54484e-09
)
;
    }
    inlet
    {
        type            calculated;
        value           nonuniform List<scalar> 
14
(
-1.71018e-07
-2.1547e-07
-2.71475e-07
-3.42037e-07
-6.90099e-08
-7.45348e-08
-8.05021e-08
-8.6947e-08
-9.3908e-08
-1.01426e-07
-1.09546e-07
-1.18317e-07
-1.27789e-07
-1.3802e-07
)
;
    }
    outlet
    {
        type            calculated;
        value           nonuniform List<scalar> 
14
(
1.71643e-07
2.1614e-07
2.72108e-07
3.42405e-07
8.31577e-09
2.75382e-08
4.91894e-08
7.01093e-08
8.69257e-08
9.93901e-08
1.09388e-07
1.18712e-07
1.28317e-07
1.38573e-07
)
;
    }
    plate
    {
        type            calculated;
        value           uniform 0;
    }
    symmBound
    {
        type            calculated;
        value           nonuniform List<scalar> 
12
(
1.0147e-10
-5.22389e-12
-5.74183e-11
-4.18445e-11
-1.33106e-10
-7.08478e-11
-1.89468e-10
-1.11281e-10
-2.64305e-10
-2.26716e-10
-5.05197e-10
-6.967e-10
)
;
    }
    frontAndBack
    {
        type            empty;
        value           nonuniform 0();
    }
}


// ************************************************************************* //
