/*--------------------------------*- C++ -*----------------------------------*\
| =========                 |                                                 |
| \\      /  F ield         | OpenFOAM: The Open Source CFD Toolbox           |
|  \\    /   O peration     | Version:  2.3.0                                 |
|   \\  /    A nd           | Web:      www.OpenFOAM.org                      |
|    \\/     M anipulation  |                                                 |
\*---------------------------------------------------------------------------*/
FoamFile
{
    version     2.0;
    format      ascii;
    class       surfaceScalarField;
    location    "0.65";
    object      phi_0;
}
// * * * * * * * * * * * * * * * * * * * * * * * * * * * * * * * * * * * * * //

dimensions      [0 3 -1 0 0 0 0];

internalField   nonuniform List<scalar> 
1660
(
6.34739e-08
2.71385e-09
-6.61877e-08
5.97938e-08
3.68008e-09
5.58194e-08
3.97441e-09
5.18744e-08
3.94496e-09
4.79775e-08
3.89694e-09
4.40885e-08
3.88899e-09
4.02121e-08
3.87642e-09
3.63855e-08
3.82653e-09
3.26725e-08
3.71301e-09
2.91542e-08
3.51837e-09
2.5913e-08
3.2411e-09
2.30164e-08
2.89667e-09
2.05241e-08
2.49232e-09
1.84728e-08
2.05128e-09
1.68575e-08
1.61529e-09
1.56307e-08
1.22682e-09
1.47236e-08
9.0707e-10
1.40596e-08
6.63976e-10
1.3569e-08
4.90635e-10
1.31965e-08
3.72515e-10
1.28982e-08
2.98282e-10
1.26445e-08
2.53694e-10
1.24113e-08
2.3321e-10
1.21858e-08
2.25468e-10
1.19619e-08
2.23935e-10
1.17373e-08
2.24615e-10
1.15132e-08
2.24035e-10
1.12908e-08
2.22443e-10
1.10708e-08
2.20003e-10
1.08592e-08
2.11612e-10
1.06526e-08
2.06601e-10
1.04551e-08
1.97416e-10
1.02691e-08
1.86012e-10
1.00913e-08
1.7788e-10
9.92285e-09
1.68403e-10
9.76701e-09
1.55835e-10
9.61784e-09
1.49176e-10
9.47911e-09
1.38725e-10
9.3503e-09
1.28815e-10
9.22692e-09
1.23379e-10
9.11119e-09
1.15733e-10
9.00656e-09
1.0463e-10
8.90472e-09
1.01836e-10
8.80745e-09
9.72728e-11
8.71984e-09
8.76126e-11
8.63636e-09
8.34782e-11
8.55336e-09
8.29992e-11
8.47424e-09
7.91222e-11
8.39985e-09
7.43898e-11
7.94806e-11
7.27367e-08
2.50139e-09
-7.25242e-08
7.28642e-08
3.55261e-09
7.25317e-08
4.30685e-09
7.18562e-08
4.62052e-09
7.09898e-08
4.76332e-09
6.99762e-08
4.90256e-09
6.87834e-08
5.06926e-09
6.7391e-08
5.21888e-09
6.5817e-08
5.28705e-09
6.40938e-08
5.24155e-09
6.22496e-08
5.08534e-09
6.03259e-08
4.8203e-09
5.83632e-08
4.45505e-09
5.6408e-08
4.0065e-09
5.45023e-08
3.52098e-09
5.2682e-08
3.04712e-09
5.09673e-08
2.6218e-09
4.93625e-08
2.26877e-09
4.78631e-08
1.99002e-09
4.64574e-08
1.77818e-09
4.5145e-08
1.61071e-09
4.39189e-08
1.47973e-09
4.27677e-08
1.3845e-09
4.16854e-08
1.30772e-09
4.06639e-08
1.2454e-09
3.96997e-08
1.18889e-09
3.87879e-08
1.13585e-09
3.79252e-08
1.08509e-09
3.7107e-08
1.03823e-09
3.63353e-08
9.83301e-10
3.5602e-08
9.39842e-10
3.4911e-08
8.88487e-10
3.42582e-08
8.38814e-10
3.36424e-08
7.93634e-10
3.30593e-08
7.51535e-10
3.25139e-08
7.01266e-10
3.19965e-08
6.66534e-10
3.1513e-08
6.22191e-10
3.10544e-08
5.87479e-10
3.06264e-08
5.51368e-10
3.02217e-08
5.20448e-10
2.98481e-08
4.78211e-10
2.94882e-08
4.61734e-10
2.91588e-08
4.26703e-10
2.88464e-08
3.99994e-10
2.85601e-08
3.69757e-10
2.82793e-08
3.63811e-10
2.80271e-08
3.31316e-10
2.77795e-08
3.22006e-10
3.08379e-10
7.87652e-08
2.47001e-09
-7.87338e-08
7.90838e-08
3.23398e-09
7.93632e-08
4.0274e-09
7.9493e-08
4.49075e-09
7.95161e-08
4.74021e-09
7.94991e-08
4.91963e-09
7.946e-08
5.10833e-09
7.93656e-08
5.31323e-09
7.91873e-08
5.46542e-09
7.8902e-08
5.52682e-09
7.85044e-08
5.48298e-09
7.79932e-08
5.33146e-09
7.73669e-08
5.0814e-09
7.66388e-08
4.73461e-09
7.58242e-08
4.33549e-09
7.49508e-08
3.92057e-09
7.40427e-08
3.52993e-09
7.31149e-08
3.19652e-09
7.21792e-08
2.92579e-09
7.12451e-08
2.71221e-09
7.03087e-08
2.54717e-09
6.93775e-08
2.41095e-09
6.84483e-08
2.31363e-09
6.75284e-08
2.22759e-09
6.66121e-08
2.16178e-09
6.57043e-08
2.09666e-09
6.48034e-08
2.03674e-09
6.39119e-08
1.97663e-09
6.30286e-08
1.92149e-09
6.21609e-08
1.85104e-09
6.13008e-08
1.79993e-09
6.04629e-08
1.72641e-09
5.96357e-08
1.66597e-09
5.88312e-08
1.59814e-09
5.80433e-08
1.5394e-09
5.72811e-08
1.46351e-09
5.65325e-08
1.41513e-09
5.58206e-08
1.33411e-09
5.51204e-08
1.28765e-09
5.4453e-08
1.21878e-09
5.38062e-08
1.16725e-09
5.31985e-08
1.08595e-09
5.25969e-08
1.06329e-09
5.20412e-08
9.8236e-10
5.15006e-08
9.40684e-10
5.10001e-08
8.70217e-10
5.05042e-08
8.59668e-10
5.00556e-08
7.79961e-10
4.96098e-08
7.67762e-10
7.14051e-10
8.53411e-08
2.47275e-09
-8.53438e-08
8.55106e-08
3.06446e-09
8.58064e-08
3.73153e-09
8.60618e-08
4.23539e-09
8.62381e-08
4.56394e-09
8.6383e-08
4.77473e-09
8.65546e-08
4.9367e-09
8.67513e-08
5.1165e-09
8.69455e-08
5.27123e-09
8.71116e-08
5.36073e-09
8.72263e-08
5.36832e-09
8.72815e-08
5.27622e-09
8.72613e-08
5.10161e-09
8.71625e-08
4.83337e-09
8.69816e-08
4.5164e-09
8.67314e-08
4.17085e-09
8.64266e-08
3.83469e-09
8.60822e-08
3.54095e-09
8.57103e-08
3.29761e-09
8.53212e-08
3.10138e-09
8.49106e-08
2.95777e-09
8.44894e-08
2.83208e-09
8.40517e-08
2.75135e-09
8.36076e-08
2.67165e-09
8.3149e-08
2.62047e-09
8.26821e-08
2.56354e-09
8.2202e-08
2.51677e-09
8.17135e-08
2.46521e-09
8.12082e-08
2.42679e-09
8.06996e-08
2.35955e-09
8.01719e-08
2.32771e-09
7.96446e-08
2.25367e-09
7.91013e-08
2.20924e-09
7.8558e-08
2.14142e-09
7.80042e-08
2.09322e-09
7.74558e-08
2.01198e-09
7.68909e-08
1.98e-09
7.63412e-08
1.88384e-09
7.57794e-08
1.84941e-09
7.52282e-08
1.77e-09
7.46731e-08
1.72228e-09
7.41389e-08
1.62019e-09
7.359e-08
1.61222e-09
7.30669e-08
1.50547e-09
7.25438e-08
1.4638e-09
7.20433e-08
1.37062e-09
7.15358e-08
1.36725e-09
7.10575e-08
1.25826e-09
7.05771e-08
1.24815e-09
1.17006e-09
9.2434e-08
2.46875e-09
-9.243e-08
9.25424e-08
2.95607e-09
9.27794e-08
3.49448e-09
9.30343e-08
3.98053e-09
9.32511e-08
4.34711e-09
9.34334e-08
4.59247e-09
9.36195e-08
4.75056e-09
9.38334e-08
4.90265e-09
9.40696e-08
5.03503e-09
9.4308e-08
5.12227e-09
9.45225e-08
5.15388e-09
9.47036e-08
5.09505e-09
9.48378e-08
4.96747e-09
9.49201e-08
4.75104e-09
9.49417e-08
4.49482e-09
9.49097e-08
4.20279e-09
9.48326e-08
3.91186e-09
9.47259e-08
3.64766e-09
9.45971e-08
3.42642e-09
9.44584e-08
3.24007e-09
9.43054e-08
3.1107e-09
9.4149e-08
2.98849e-09
9.39835e-08
2.91686e-09
9.38183e-08
2.83692e-09
9.36443e-08
2.79447e-09
9.34685e-08
2.73937e-09
9.32838e-08
2.70145e-09
9.30976e-08
2.65143e-09
9.28965e-08
2.62782e-09
9.26932e-08
2.56286e-09
9.24732e-08
2.54775e-09
9.22522e-08
2.47461e-09
9.20141e-08
2.44735e-09
9.17712e-08
2.38439e-09
9.15136e-08
2.35073e-09
9.12572e-08
2.26842e-09
9.0981e-08
2.25616e-09
9.07052e-08
2.15965e-09
9.04164e-08
2.13827e-09
9.01234e-08
2.06302e-09
8.98196e-08
2.02601e-09
8.95186e-08
1.92117e-09
8.92027e-08
1.92819e-09
8.88879e-08
1.82025e-09
8.8565e-08
1.78668e-09
8.8244e-08
1.69162e-09
8.79219e-08
1.68935e-09
8.75968e-08
1.58337e-09
8.72638e-08
1.58112e-09
1.50152e-09
1.00073e-07
2.45506e-09
-1.00059e-07
1.00159e-07
2.87056e-09
1.00342e-07
3.31123e-09
1.00571e-07
3.75116e-09
1.00798e-07
4.1203e-09
1.01004e-07
4.38687e-09
1.01192e-07
4.56256e-09
1.01393e-07
4.70079e-09
1.01613e-07
4.81529e-09
1.01844e-07
4.89133e-09
1.02062e-07
4.93581e-09
1.02257e-07
4.90066e-09
1.02414e-07
4.80958e-09
1.02531e-07
4.63438e-09
1.02599e-07
4.42733e-09
1.02621e-07
4.18054e-09
1.02604e-07
3.92912e-09
1.02563e-07
3.68847e-09
1.02503e-07
3.4858e-09
1.02439e-07
3.30481e-09
1.02367e-07
3.18231e-09
1.02296e-07
3.05992e-09
1.02222e-07
2.9901e-09
1.02154e-07
2.90517e-09
1.02084e-07
2.86416e-09
1.02018e-07
2.8054e-09
1.01951e-07
2.76888e-09
1.01888e-07
2.71461e-09
1.0182e-07
2.69593e-09
1.01753e-07
2.62965e-09
1.01679e-07
2.62202e-09
1.01606e-07
2.54713e-09
1.01527e-07
2.52637e-09
1.01445e-07
2.46681e-09
1.01353e-07
2.44228e-09
1.01263e-07
2.35834e-09
1.01167e-07
2.35252e-09
1.01063e-07
2.26353e-09
1.00956e-07
2.24491e-09
1.00844e-07
2.17531e-09
1.00726e-07
2.14454e-09
1.00601e-07
2.04619e-09
1.00471e-07
2.0582e-09
1.00335e-07
1.95586e-09
1.00193e-07
1.92837e-09
1.00036e-07
1.84842e-09
9.98901e-08
1.8357e-09
9.9736e-08
1.73743e-09
9.95691e-08
1.74802e-09
1.67798e-09
1.08309e-07
2.4352e-09
-1.08289e-07
1.08385e-07
2.79428e-09
1.08526e-07
3.16997e-09
1.08728e-07
3.54935e-09
1.08946e-07
3.90263e-09
1.09161e-07
4.17172e-09
1.09353e-07
4.3703e-09
1.09547e-07
4.50636e-09
1.09749e-07
4.61335e-09
1.0996e-07
4.68066e-09
1.10164e-07
4.73146e-09
1.10353e-07
4.71216e-09
1.10511e-07
4.65129e-09
1.10633e-07
4.51288e-09
1.10711e-07
4.34852e-09
1.10749e-07
4.14323e-09
1.10749e-07
3.92853e-09
1.10727e-07
3.71088e-09
1.10686e-07
3.52656e-09
1.10639e-07
3.35166e-09
1.10589e-07
3.23216e-09
1.10539e-07
3.11043e-09
1.1049e-07
3.03936e-09
1.10445e-07
2.94969e-09
1.10403e-07
2.90651e-09
1.10365e-07
2.84325e-09
1.10329e-07
2.80446e-09
1.10299e-07
2.74549e-09
1.10269e-07
2.72559e-09
1.10242e-07
2.65637e-09
1.10214e-07
2.65001e-09
1.10187e-07
2.57383e-09
1.10162e-07
2.55202e-09
1.10135e-07
2.49359e-09
1.10105e-07
2.47227e-09
1.10074e-07
2.38939e-09
1.10047e-07
2.3797e-09
1.10012e-07
2.29885e-09
1.09979e-07
2.27778e-09
1.09944e-07
2.20969e-09
1.09908e-07
2.18081e-09
1.09864e-07
2.09059e-09
1.0982e-07
2.10185e-09
1.09771e-07
2.00525e-09
1.09721e-07
1.97756e-09
1.09655e-07
1.91477e-09
1.09597e-07
1.8941e-09
1.09537e-07
1.79668e-09
1.09469e-07
1.81676e-09
1.75746e-09
1.17193e-07
2.41103e-09
-1.17169e-07
1.17262e-07
2.72525e-09
1.17381e-07
3.05133e-09
1.1755e-07
3.38033e-09
1.17751e-07
3.70114e-09
1.1796e-07
3.96267e-09
1.18158e-07
4.17326e-09
1.18346e-07
4.31825e-09
1.18534e-07
4.42525e-09
1.18724e-07
4.49011e-09
1.18912e-07
4.54338e-09
1.19089e-07
4.5357e-09
1.19242e-07
4.49798e-09
1.19363e-07
4.39246e-09
1.19446e-07
4.26502e-09
1.19492e-07
4.0974e-09
1.19503e-07
3.91776e-09
1.1949e-07
3.72367e-09
1.19459e-07
3.55771e-09
1.19419e-07
3.39168e-09
1.19377e-07
3.27397e-09
1.19333e-07
3.15393e-09
1.19292e-07
3.08085e-09
1.19253e-07
2.98858e-09
1.19218e-07
2.9419e-09
1.19186e-07
2.87457e-09
1.19158e-07
2.83318e-09
1.19133e-07
2.77043e-09
1.19111e-07
2.74747e-09
1.19092e-07
2.67508e-09
1.19075e-07
2.66659e-09
1.19059e-07
2.59059e-09
1.19045e-07
2.56569e-09
1.19031e-07
2.50726e-09
1.19019e-07
2.48506e-09
1.19002e-07
2.40548e-09
1.18992e-07
2.38975e-09
1.18977e-07
2.31396e-09
1.18964e-07
2.29101e-09
1.18953e-07
2.22068e-09
1.18941e-07
2.19251e-09
1.18923e-07
2.10893e-09
1.18908e-07
2.11702e-09
1.18886e-07
2.02725e-09
1.18866e-07
1.99773e-09
1.18837e-07
1.94334e-09
1.18809e-07
1.92196e-09
1.18782e-07
1.82393e-09
1.18751e-07
1.84751e-09
1.79609e-09
1.26782e-07
2.38269e-09
-1.26753e-07
1.26845e-07
2.66227e-09
1.26947e-07
2.94939e-09
1.2709e-07
3.23656e-09
1.2727e-07
3.52163e-09
1.27465e-07
3.76775e-09
1.27657e-07
3.98087e-09
1.27841e-07
4.1342e-09
1.28016e-07
4.24993e-09
1.2819e-07
4.31669e-09
1.28361e-07
4.37212e-09
1.28522e-07
4.37441e-09
1.28666e-07
4.35398e-09
1.28782e-07
4.27654e-09
1.28867e-07
4.18013e-09
1.28919e-07
4.04526e-09
1.28939e-07
3.89817e-09
1.28935e-07
3.72814e-09
1.28911e-07
3.58083e-09
1.28878e-07
3.42538e-09
1.28841e-07
3.31057e-09
1.28802e-07
3.19251e-09
1.28766e-07
3.11712e-09
1.2873e-07
3.02443e-09
1.28698e-07
2.9739e-09
1.2867e-07
2.90279e-09
1.28643e-07
2.85984e-09
1.2862e-07
2.79361e-09
1.286e-07
2.76783e-09
1.28582e-07
2.69294e-09
1.28568e-07
2.68034e-09
1.28553e-07
2.60557e-09
1.28541e-07
2.57766e-09
1.28531e-07
2.51812e-09
1.28522e-07
2.49402e-09
1.28509e-07
2.41829e-09
1.28501e-07
2.39784e-09
1.28491e-07
2.32375e-09
1.28481e-07
2.30044e-09
1.28476e-07
2.226e-09
1.28469e-07
2.19998e-09
1.28456e-07
2.12184e-09
1.28449e-07
2.1239e-09
1.28434e-07
2.04202e-09
1.28418e-07
2.01384e-09
1.28402e-07
1.95893e-09
1.28384e-07
1.94022e-09
1.28364e-07
1.84431e-09
1.28343e-07
1.86845e-09
1.82162e-09
1.37133e-07
2.35933e-09
-1.3711e-07
1.37187e-07
2.60872e-09
1.37275e-07
2.8609e-09
1.374e-07
3.11134e-09
1.37556e-07
3.36653e-09
1.37733e-07
3.59039e-09
1.37912e-07
3.80224e-09
1.38086e-07
3.95933e-09
1.38251e-07
4.08495e-09
1.3841e-07
4.15813e-09
1.38564e-07
4.21816e-09
1.38709e-07
4.22954e-09
1.3884e-07
4.22272e-09
1.38948e-07
4.16842e-09
1.39031e-07
4.09691e-09
1.39087e-07
3.98947e-09
1.39114e-07
3.87121e-09
1.39118e-07
3.72454e-09
1.39102e-07
3.59657e-09
1.39075e-07
3.45253e-09
1.39043e-07
3.34205e-09
1.39009e-07
3.2267e-09
1.38978e-07
3.14867e-09
1.38946e-07
3.05654e-09
1.38917e-07
3.00267e-09
1.38891e-07
2.92827e-09
1.38866e-07
2.88471e-09
1.38845e-07
2.81461e-09
1.38826e-07
2.78681e-09
1.38809e-07
2.71088e-09
1.38796e-07
2.69251e-09
1.38782e-07
2.61949e-09
1.3877e-07
2.59008e-09
1.3876e-07
2.52785e-09
1.38752e-07
2.50197e-09
1.38741e-07
2.42957e-09
1.38733e-07
2.40571e-09
1.38725e-07
2.3323e-09
1.38715e-07
2.31001e-09
1.38711e-07
2.2299e-09
1.38705e-07
2.20641e-09
1.38693e-07
2.13385e-09
1.38688e-07
2.12866e-09
1.38675e-07
2.05478e-09
1.38658e-07
2.0309e-09
1.38646e-07
1.97058e-09
1.38633e-07
1.954e-09
1.38614e-07
1.86277e-09
1.38595e-07
1.88769e-09
1.84318e-09
1.70127e-07
2.31563e-09
-1.70083e-07
1.70196e-07
2.53943e-09
1.70292e-07
2.76497e-09
1.70419e-07
2.98392e-09
1.70573e-07
3.21336e-09
1.70747e-07
3.41575e-09
1.7093e-07
3.61959e-09
1.71109e-07
3.78e-09
1.7128e-07
3.91426e-09
1.71441e-07
3.99723e-09
1.71594e-07
4.0647e-09
1.71738e-07
4.08629e-09
1.71869e-07
4.09173e-09
1.71979e-07
4.05816e-09
1.72067e-07
4.00834e-09
1.72131e-07
3.92572e-09
1.72167e-07
3.83538e-09
1.72179e-07
3.7124e-09
1.7217e-07
3.60552e-09
1.72147e-07
3.4758e-09
1.72117e-07
3.37167e-09
1.72085e-07
3.25924e-09
1.72055e-07
3.17854e-09
1.72024e-07
3.08738e-09
1.71996e-07
3.03047e-09
1.71972e-07
2.95207e-09
1.71948e-07
2.90961e-09
1.71926e-07
2.83608e-09
1.71907e-07
2.80541e-09
1.71888e-07
2.73046e-09
1.71875e-07
2.70586e-09
1.71861e-07
2.63341e-09
1.71847e-07
2.60334e-09
1.71837e-07
2.53809e-09
1.71828e-07
2.51119e-09
1.71817e-07
2.44064e-09
1.71809e-07
2.41318e-09
1.71801e-07
2.3408e-09
1.7179e-07
2.32087e-09
1.71786e-07
2.23425e-09
1.71778e-07
2.2139e-09
1.71765e-07
2.14706e-09
1.71761e-07
2.13257e-09
1.71749e-07
2.06663e-09
1.7173e-07
2.05038e-09
1.71717e-07
1.98335e-09
1.71704e-07
1.96734e-09
1.71685e-07
1.88143e-09
1.71665e-07
1.90739e-09
1.86496e-09
2.14623e-07
2.26347e-09
-2.14571e-07
2.14702e-07
2.46056e-09
2.14804e-07
2.66245e-09
2.14931e-07
2.85716e-09
2.15077e-07
3.06772e-09
2.15238e-07
3.25473e-09
2.15409e-07
3.44783e-09
2.15581e-07
3.60887e-09
2.15745e-07
3.75018e-09
2.15899e-07
3.84301e-09
2.16044e-07
3.91921e-09
2.16178e-07
3.9529e-09
2.163e-07
3.96951e-09
2.16406e-07
3.95265e-09
2.16493e-07
3.92113e-09
2.1656e-07
3.85893e-09
2.16602e-07
3.79249e-09
2.16623e-07
3.69161e-09
2.16623e-07
3.60563e-09
2.16608e-07
3.49047e-09
2.16583e-07
3.39713e-09
2.16553e-07
3.28906e-09
2.16526e-07
3.20547e-09
2.165e-07
3.11375e-09
2.16475e-07
3.05495e-09
2.16454e-07
2.97301e-09
2.16433e-07
2.9309e-09
2.16413e-07
2.85589e-09
2.16396e-07
2.82279e-09
2.16377e-07
2.74895e-09
2.16364e-07
2.71893e-09
2.1635e-07
2.64752e-09
2.16337e-07
2.61657e-09
2.16328e-07
2.547e-09
2.1632e-07
2.51961e-09
2.16309e-07
2.45143e-09
2.163e-07
2.42182e-09
2.16293e-07
2.34837e-09
2.16284e-07
2.32922e-09
2.1628e-07
2.23829e-09
2.1627e-07
2.22376e-09
2.16257e-07
2.16052e-09
2.16254e-07
2.13518e-09
2.16243e-07
2.07782e-09
2.16223e-07
2.07088e-09
2.1621e-07
1.99602e-09
2.16199e-07
1.97866e-09
2.1618e-07
1.89969e-09
2.16161e-07
1.92657e-09
1.88627e-09
2.7079e-07
2.2103e-09
-2.70737e-07
2.70865e-07
2.38583e-09
2.70957e-07
2.56981e-09
2.71064e-07
2.75043e-09
2.71182e-07
2.94938e-09
2.71309e-07
3.12791e-09
2.71442e-07
3.3149e-09
2.7158e-07
3.47083e-09
2.71712e-07
3.61835e-09
2.71837e-07
3.71799e-09
2.71955e-07
3.80099e-09
2.72062e-07
3.84556e-09
2.7216e-07
3.87156e-09
2.72246e-07
3.86668e-09
2.7232e-07
3.84794e-09
2.72378e-07
3.80026e-09
2.7242e-07
3.75079e-09
2.72445e-07
3.66682e-09
2.72454e-07
3.59673e-09
2.7245e-07
3.49409e-09
2.72435e-07
3.41257e-09
2.72415e-07
3.30906e-09
2.72392e-07
3.22809e-09
2.72372e-07
3.13333e-09
2.72358e-07
3.06975e-09
2.72343e-07
2.98789e-09
2.72329e-07
2.94502e-09
2.72316e-07
2.86838e-09
2.72304e-07
2.83535e-09
2.72289e-07
2.7638e-09
2.72279e-07
2.72832e-09
2.72269e-07
2.65792e-09
2.72259e-07
2.62632e-09
2.72251e-07
2.55543e-09
2.72244e-07
2.5264e-09
2.7224e-07
2.45549e-09
2.72235e-07
2.42692e-09
2.72226e-07
2.35676e-09
2.72219e-07
2.3367e-09
2.72217e-07
2.23982e-09
2.7221e-07
2.2306e-09
2.72201e-07
2.17048e-09
2.722e-07
2.13598e-09
2.7219e-07
2.08801e-09
2.72172e-07
2.0888e-09
2.72162e-07
2.00603e-09
2.72154e-07
1.98641e-09
2.72139e-07
1.91458e-09
2.72123e-07
1.94279e-09
1.90103e-09
3.41737e-07
-3.41713e-07
3.4177e-07
3.41811e-07
3.41857e-07
3.41907e-07
3.41961e-07
3.42017e-07
3.42077e-07
3.42136e-07
3.42192e-07
3.42246e-07
3.42295e-07
3.42341e-07
3.42381e-07
3.42415e-07
3.42444e-07
3.42466e-07
3.42482e-07
3.4249e-07
3.42494e-07
3.4249e-07
3.42486e-07
3.42478e-07
3.4247e-07
3.42466e-07
3.42463e-07
3.42459e-07
3.42456e-07
3.42452e-07
3.42449e-07
3.42446e-07
3.42442e-07
3.42441e-07
3.42441e-07
3.42439e-07
3.42437e-07
3.42436e-07
3.42436e-07
3.42438e-07
3.42438e-07
3.42433e-07
3.4243e-07
3.42434e-07
3.42432e-07
3.42425e-07
3.42422e-07
3.4242e-07
3.42415e-07
3.42409e-07
6.90546e-08
-1.45406e-10
6.90439e-08
1.61934e-11
6.8972e-08
1.27849e-10
6.8908e-08
1.04954e-10
6.88205e-08
2.20064e-10
6.87351e-08
1.55925e-10
6.86221e-08
3.02138e-10
6.84916e-08
2.41848e-10
6.82599e-08
4.96474e-10
6.79295e-08
5.57572e-10
6.7268e-08
1.16679e-09
1.77702e-09
7.44571e-08
-6.77173e-11
7.44902e-08
-1.68596e-11
7.44083e-08
2.09778e-10
7.43738e-08
1.39446e-10
7.42587e-08
3.35142e-10
7.41779e-08
2.36677e-10
7.40192e-08
4.60858e-10
7.38587e-08
4.02337e-10
7.35967e-08
7.58526e-10
7.32291e-08
9.25194e-10
7.28067e-08
1.58918e-09
2.05944e-09
8.0429e-08
5.35899e-12
8.04135e-08
-1.35427e-12
8.03774e-08
2.45864e-10
8.02961e-08
2.20749e-10
8.02259e-08
4.05378e-10
8.00739e-08
3.88585e-10
7.99646e-08
5.70231e-10
7.9704e-08
6.62942e-10
7.95045e-08
9.58002e-10
7.91426e-08
1.28707e-09
7.89656e-08
1.76617e-09
2.2913e-09
8.69131e-08
3.9258e-11
8.68481e-08
6.36932e-11
8.68361e-08
2.57841e-10
8.67377e-08
3.19194e-10
8.66703e-08
4.72764e-10
8.65074e-08
5.51491e-10
8.63657e-08
7.11949e-10
8.61307e-08
8.97906e-10
8.59112e-08
1.17747e-09
8.56553e-08
1.543e-09
8.5485e-08
1.93647e-09
2.43249e-09
9.38904e-08
5.68734e-11
9.38165e-08
1.37586e-10
9.379e-08
2.84282e-10
9.37003e-08
4.08914e-10
9.36134e-08
5.59688e-10
9.34593e-08
7.05585e-10
9.32919e-08
8.79359e-10
9.30836e-08
1.10624e-09
9.28727e-08
1.38832e-09
9.2678e-08
1.73775e-09
9.25148e-08
2.09968e-09
2.51724e-09
1.01411e-07
7.182e-11
1.01348e-07
2.00952e-10
1.01295e-07
3.37677e-10
1.01211e-07
4.92893e-10
1.01107e-07
6.63489e-10
1.00962e-07
8.50678e-10
1.00789e-07
1.05178e-09
1.00599e-07
1.29689e-09
1.00408e-07
1.57923e-09
1.00247e-07
1.89827e-09
1.00116e-07
2.2309e-09
2.57384e-09
1.0953e-07
8.77792e-11
1.09477e-07
2.5476e-10
1.09406e-07
4.08205e-10
1.09316e-07
5.82925e-10
1.09203e-07
7.76279e-10
1.09063e-07
9.90569e-10
1.08899e-07
1.21632e-09
1.08725e-07
1.47046e-09
1.08558e-07
1.74645e-09
1.08424e-07
2.03263e-09
1.08326e-07
2.32888e-09
2.61091e-09
1.18299e-07
1.05412e-10
1.18251e-07
3.03127e-10
1.18171e-07
4.87669e-10
1.18074e-07
6.80532e-10
1.17956e-07
8.93526e-10
1.1782e-07
1.12653e-09
1.17668e-07
1.36821e-09
1.17514e-07
1.6245e-09
1.17373e-07
1.88786e-09
1.17262e-07
2.14337e-09
1.1719e-07
2.40136e-09
2.63164e-09
1.2777e-07
1.24508e-10
1.27722e-07
3.50791e-10
1.27641e-07
5.68834e-10
1.27539e-07
7.82339e-10
1.27421e-07
1.01189e-09
1.2729e-07
1.25722e-09
1.27152e-07
1.50608e-09
1.27018e-07
1.75843e-09
1.26905e-07
2.00179e-09
1.26816e-07
2.23151e-09
1.26762e-07
2.45547e-09
2.64066e-09
1.38e-07
1.44662e-10
1.3795e-07
4.00049e-10
1.37871e-07
6.48567e-10
1.37769e-07
8.84272e-10
1.37653e-07
1.12746e-09
1.3753e-07
1.38038e-09
1.37407e-07
1.62888e-09
1.37292e-07
1.87323e-09
1.37205e-07
2.08928e-09
1.3714e-07
2.29632e-09
1.37109e-07
2.4864e-09
2.63999e-09
1.70994e-07
1.68659e-10
1.70934e-07
4.60749e-10
1.70841e-07
7.41359e-10
1.70725e-07
1.00063e-09
1.70597e-07
1.25523e-09
1.70466e-07
1.51168e-09
1.70342e-07
1.75227e-09
1.70237e-07
1.97881e-09
1.70155e-07
2.17067e-09
1.70098e-07
2.35365e-09
1.70071e-07
2.5131e-09
2.628e-09
2.15442e-07
1.96373e-10
2.1537e-07
5.3263e-10
2.15265e-07
8.4659e-10
2.15138e-07
1.12712e-09
2.15005e-07
1.38869e-09
2.14874e-07
1.64266e-09
2.14758e-07
1.86808e-09
2.14671e-07
2.0655e-09
2.14598e-07
2.24453e-09
2.14554e-07
2.39731e-09
2.14544e-07
2.52312e-09
2.60119e-09
2.71447e-07
2.23769e-10
2.71377e-07
6.03012e-10
2.71276e-07
9.48004e-10
2.71157e-07
1.24597e-09
2.71035e-07
1.51048e-09
2.70925e-07
1.75264e-09
2.70848e-07
1.94556e-09
2.70775e-07
2.1384e-09
2.70723e-07
2.29584e-09
2.70699e-07
2.4221e-09
2.70702e-07
2.52012e-09
2.56619e-09
3.42022e-07
3.41982e-07
3.41926e-07
3.41861e-07
3.41797e-07
3.4176e-07
3.41723e-07
3.41697e-07
3.41683e-07
3.41682e-07
3.41692e-07
)
;

boundaryField
{
    top
    {
        type            calculated;
        value           nonuniform List<scalar> 
62
(
2.18594e-09
2.35324e-09
2.52868e-09
2.70466e-09
2.899e-09
3.07432e-09
3.25891e-09
3.41034e-09
3.55997e-09
3.66157e-09
3.74679e-09
3.79644e-09
3.82637e-09
3.82646e-09
3.81356e-09
3.77178e-09
3.72809e-09
3.65171e-09
3.58823e-09
3.49056e-09
3.41582e-09
3.31372e-09
3.23554e-09
3.14187e-09
3.0735e-09
2.99109e-09
2.94859e-09
2.87192e-09
2.83845e-09
2.76749e-09
2.73064e-09
2.66235e-09
2.62754e-09
2.55522e-09
2.5285e-09
2.45779e-09
2.4279e-09
2.35606e-09
2.33514e-09
2.2396e-09
2.23555e-09
2.17417e-09
2.13176e-09
2.08957e-09
2.09553e-09
2.00956e-09
1.98805e-09
1.91968e-09
1.94915e-09
1.90481e-09
2.39024e-10
6.42233e-10
1.00416e-09
1.31089e-09
1.57458e-09
1.78947e-09
1.98262e-09
2.16499e-09
2.30939e-09
2.42325e-09
2.51028e-09
2.54507e-09
)
;
    }
    inlet
    {
        type            calculated;
        value           nonuniform List<scalar> 
14
(
-1.71018e-07
-2.1547e-07
-2.71475e-07
-3.42037e-07
-6.90099e-08
-7.45348e-08
-8.05021e-08
-8.6947e-08
-9.3908e-08
-1.01426e-07
-1.09546e-07
-1.18317e-07
-1.27789e-07
-1.3802e-07
)
;
    }
    outlet
    {
        type            calculated;
        value           nonuniform List<scalar> 
14
(
1.71643e-07
2.1614e-07
2.72108e-07
3.42405e-07
8.32037e-09
2.75506e-08
4.92042e-08
7.01211e-08
8.69324e-08
9.93927e-08
1.09389e-07
1.18713e-07
1.28317e-07
1.38573e-07
)
;
    }
    plate
    {
        type            calculated;
        value           uniform 0;
    }
    symmBound
    {
        type            calculated;
        value           nonuniform List<scalar> 
12
(
1.00756e-10
-5.53938e-12
-5.59511e-11
-4.09157e-11
-1.32624e-10
-7.04653e-11
-1.89142e-10
-1.11338e-10
-2.64773e-10
-2.27199e-10
-5.05328e-10
-6.967e-10
)
;
    }
    frontAndBack
    {
        type            empty;
        value           nonuniform 0();
    }
}


// ************************************************************************* //
