/*--------------------------------*- C++ -*----------------------------------*\
| =========                 |                                                 |
| \\      /  F ield         | OpenFOAM: The Open Source CFD Toolbox           |
|  \\    /   O peration     | Version:  2.3.0                                 |
|   \\  /    A nd           | Web:      www.OpenFOAM.org                      |
|    \\/     M anipulation  |                                                 |
\*---------------------------------------------------------------------------*/
FoamFile
{
    version     2.0;
    format      ascii;
    class       volVectorField;
    location    "0.65";
    object      U_0;
}
// * * * * * * * * * * * * * * * * * * * * * * * * * * * * * * * * * * * * * //

dimensions      [0 1 -1 0 0 0 0];

internalField   nonuniform List<vector> 
868
(
(0.188536 0.00228682 0)
(0.177349 0.00334512 0)
(0.16674 0.00374234 0)
(0.155975 0.003706 0)
(0.144893 0.00353439 0)
(0.133571 0.00337431 0)
(0.12219 0.00323525 0)
(0.110903 0.00307422 0)
(0.0998852 0.00285695 0)
(0.0893115 0.0025646 0)
(0.0794366 0.00220943 0)
(0.070487 0.00178967 0)
(0.0626669 0.00131924 0)
(0.0561342 0.000843188 0)
(0.0509118 0.000422409 0)
(0.0468947 0.00010481 0)
(0.0438772 -9.89916e-05 0)
(0.0416431 -0.000207193 0)
(0.0399948 -0.000249042 0)
(0.0387544 -0.000244249 0)
(0.0377874 -0.000214004 0)
(0.0369939 -0.000173966 0)
(0.0362877 -0.000130097 0)
(0.0356275 -8.98389e-05 0)
(0.0349755 -5.55132e-05 0)
(0.0343288 -2.8111e-05 0)
(0.0336784 -8.06545e-06 0)
(0.0330327 6.77818e-06 0)
(0.0323915 1.7145e-05 0)
(0.0317675 2.19456e-05 0)
(0.0311599 2.62981e-05 0)
(0.0305766 2.77091e-05 0)
(0.0300209 2.72555e-05 0)
(0.0294923 2.71842e-05 0)
(0.0289945 2.62512e-05 0)
(0.0285203 2.45302e-05 0)
(0.0280844 2.38041e-05 0)
(0.0276606 2.15719e-05 0)
(0.0272831 2.02117e-05 0)
(0.0269031 2.03769e-05 0)
(0.0265778 1.83868e-05 0)
(0.0262336 1.63307e-05 0)
(0.0259645 1.67635e-05 0)
(0.0256386 1.69367e-05 0)
(0.0254208 1.4097e-05 0)
(0.0251104 1.49312e-05 0)
(0.0249466 1.50622e-05 0)
(0.0246169 1.57522e-05 0)
(0.0245179 1.43475e-05 0)
(0.0241421 1.75232e-05 0)
(0.195811 0.00407964 0)
(0.195241 0.00576531 0)
(0.1945 0.00663014 0)
(0.193414 0.00684945 0)
(0.191758 0.00682535 0)
(0.189421 0.00678886 0)
(0.186444 0.00677753 0)
(0.182865 0.00674837 0)
(0.178787 0.00664559 0)
(0.174266 0.00642972 0)
(0.169415 0.00609723 0)
(0.164333 0.00563215 0)
(0.15911 0.00504622 0)
(0.153897 0.00436986 0)
(0.148776 0.00366077 0)
(0.143838 0.00298445 0)
(0.139129 0.0023852 0)
(0.134658 0.00188964 0)
(0.130466 0.00149825 0)
(0.126532 0.00119344 0)
(0.122855 0.000972032 0)
(0.119438 0.000813267 0)
(0.116231 0.000707988 0)
(0.113239 0.000635814 0)
(0.110414 0.000584101 0)
(0.107757 0.000544365 0)
(0.105247 0.000510559 0)
(0.102868 0.00048076 0)
(0.100622 0.000453719 0)
(0.0984915 0.000422296 0)
(0.0964757 0.000398945 0)
(0.0945668 0.00037012 0)
(0.0927737 0.000341574 0)
(0.0910573 0.000319505 0)
(0.0894756 0.000295847 0)
(0.0879324 0.00026863 0)
(0.0865419 0.000252258 0)
(0.0851618 0.000231442 0)
(0.0839506 0.000211278 0)
(0.0826877 0.000196639 0)
(0.0816681 0.0001824 0)
(0.0805132 0.000163638 0)
(0.079659 0.00015519 0)
(0.0785739 0.000143556 0)
(0.0779195 0.000130262 0)
(0.0768651 0.000120971 0)
(0.0764058 0.00011834 0)
(0.0753319 0.000108774 0)
(0.0751019 0.000103552 0)
(0.0739482 0.00010632 0)
(0.196297 0.00382624 0)
(0.196252 0.0049332 0)
(0.196462 0.00581775 0)
(0.196873 0.00630323 0)
(0.197299 0.00653899 0)
(0.197567 0.00669896 0)
(0.197619 0.00685407 0)
(0.197425 0.00700431 0)
(0.19701 0.00709376 0)
(0.196362 0.007077 0)
(0.195472 0.00693126 0)
(0.194344 0.00663507 0)
(0.192943 0.00620484 0)
(0.191309 0.00566079 0)
(0.189451 0.00506182 0)
(0.187402 0.00446232 0)
(0.18523 0.00391143 0)
(0.182932 0.00344247 0)
(0.1806 0.00306039 0)
(0.178226 0.00275158 0)
(0.175861 0.00251267 0)
(0.173518 0.0023211 0)
(0.171191 0.00217331 0)
(0.168882 0.00204607 0)
(0.166608 0.00193888 0)
(0.164324 0.00183717 0)
(0.162101 0.0017403 0)
(0.159851 0.00164702 0)
(0.157675 0.00156043 0)
(0.155477 0.00146502 0)
(0.153356 0.00138445 0)
(0.151214 0.00129654 0)
(0.149199 0.00121352 0)
(0.147097 0.00113307 0)
(0.145209 0.00106271 0)
(0.143186 0.000983224 0)
(0.141414 0.000919689 0)
(0.139473 0.000847457 0)
(0.137882 0.000793893 0)
(0.135977 0.000731278 0)
(0.134583 0.000680403 0)
(0.132758 0.00061841 0)
(0.131562 0.000587706 0)
(0.129756 0.000530782 0)
(0.128837 0.000493834 0)
(0.127029 0.000446974 0)
(0.126381 0.000431432 0)
(0.124533 0.000384165 0)
(0.124207 0.000367924 0)
(0.12226 0.000341076 0)
(0.19682 0.00369136 0)
(0.19677 0.00451357 0)
(0.196911 0.00529546 0)
(0.197284 0.00587224 0)
(0.197827 0.00623471 0)
(0.198399 0.00646658 0)
(0.198937 0.00663948 0)
(0.199399 0.00679604 0)
(0.199812 0.00690162 0)
(0.200158 0.006925 0)
(0.200447 0.00684178 0)
(0.200635 0.00662546 0)
(0.2007 0.0062987 0)
(0.200598 0.0058628 0)
(0.200346 0.00537634 0)
(0.199883 0.00487418 0)
(0.199306 0.00439696 0)
(0.19854 0.00398421 0)
(0.197723 0.00363899 0)
(0.196784 0.0033602 0)
(0.195848 0.00314584 0)
(0.194835 0.00296325 0)
(0.193864 0.00282859 0)
(0.192799 0.00270101 0)
(0.191806 0.00259981 0)
(0.190682 0.00249982 0)
(0.189659 0.00240933 0)
(0.188475 0.00231968 0)
(0.187414 0.0022392 0)
(0.186164 0.00214071 0)
(0.185069 0.00207043 0)
(0.183746 0.00197085 0)
(0.182648 0.00189282 0)
(0.181239 0.00180226 0)
(0.180158 0.00172548 0)
(0.178693 0.00162971 0)
(0.177628 0.00156944 0)
(0.176098 0.00146584 0)
(0.175107 0.00140753 0)
(0.173493 0.00132156 0)
(0.17259 0.00125838 0)
(0.170932 0.00116027 0)
(0.170137 0.00112917 0)
(0.168388 0.00103247 0)
(0.167766 0.000982332 0)
(0.165941 0.000900379 0)
(0.165497 0.000879551 0)
(0.163572 0.000789137 0)
(0.163347 0.000767489 0)
(0.16131 0.000701001 0)
(0.197287 0.00364631 0)
(0.197244 0.00431993 0)
(0.197342 0.00500052 0)
(0.197609 0.00557852 0)
(0.198055 0.00599866 0)
(0.198573 0.00627329 0)
(0.199126 0.00645056 0)
(0.199628 0.00658332 0)
(0.200134 0.00666434 0)
(0.200578 0.00667525 0)
(0.201041 0.00660465 0)
(0.201428 0.00641948 0)
(0.201796 0.00614808 0)
(0.202031 0.00577567 0)
(0.202223 0.00536362 0)
(0.202221 0.00492637 0)
(0.202189 0.00450565 0)
(0.201961 0.00413216 0)
(0.20175 0.00381637 0)
(0.201383 0.00355356 0)
(0.201095 0.0033571 0)
(0.200672 0.00317771 0)
(0.200379 0.00305431 0)
(0.199937 0.00292936 0)
(0.199657 0.00284075 0)
(0.199188 0.0027438 0)
(0.198907 0.00266492 0)
(0.198402 0.00257983 0)
(0.198117 0.00251608 0)
(0.197557 0.00241934 0)
(0.197249 0.00236722 0)
(0.196626 0.00226624 0)
(0.196315 0.00220612 0)
(0.195604 0.00211796 0)
(0.195288 0.00205239 0)
(0.194509 0.00195191 0)
(0.194193 0.00190993 0)
(0.19333 0.00179799 0)
(0.193032 0.00175187 0)
(0.19208 0.00166279 0)
(0.191797 0.00160538 0)
(0.190778 0.00149514 0)
(0.190527 0.00147709 0)
(0.189411 0.00136969 0)
(0.189213 0.0013192 0)
(0.188004 0.00122413 0)
(0.187875 0.00120918 0)
(0.186605 0.00110798 0)
(0.186525 0.00108497 0)
(0.185154 0.00100374 0)
(0.1977 0.00361873 0)
(0.197665 0.0041863 0)
(0.197743 0.00477299 0)
(0.197934 0.00530043 0)
(0.19829 0.00572087 0)
(0.198718 0.00601349 0)
(0.199228 0.00620204 0)
(0.199687 0.00632036 0)
(0.200177 0.00638463 0)
(0.200584 0.00638178 0)
(0.201031 0.00632025 0)
(0.201387 0.00616057 0)
(0.201766 0.00593629 0)
(0.202016 0.00561749 0)
(0.20228 0.00526877 0)
(0.202359 0.00488698 0)
(0.202457 0.00451453 0)
(0.202363 0.00417113 0)
(0.202323 0.00388016 0)
(0.202117 0.00362489 0)
(0.202021 0.00343809 0)
(0.201779 0.00325835 0)
(0.20169 0.00313859 0)
(0.201454 0.00300853 0)
(0.2014 0.00292576 0)
(0.201169 0.00282719 0)
(0.201137 0.00275089 0)
(0.200904 0.00266162 0)
(0.200891 0.00260645 0)
(0.200644 0.00250759 0)
(0.200631 0.00246503 0)
(0.200351 0.00236192 0)
(0.200355 0.00230912 0)
(0.200034 0.002223 0)
(0.200035 0.00216863 0)
(0.199675 0.00206413 0)
(0.199681 0.0020309 0)
(0.199285 0.00192318 0)
(0.199289 0.00188119 0)
(0.19885 0.00179544 0)
(0.198849 0.00174384 0)
(0.198378 0.00163684 0)
(0.198376 0.00162373 0)
(0.197841 0.00151838 0)
(0.197855 0.00147431 0)
(0.197267 0.00138495 0)
(0.19726 0.00136033 0)
(0.196667 0.00126651 0)
(0.196673 0.00125174 0)
(0.195996 0.00117441 0)
(0.198069 0.00359001 0)
(0.198041 0.00407212 0)
(0.198103 0.0045743 0)
(0.198244 0.00504156 0)
(0.198525 0.0054357 0)
(0.198869 0.00572479 0)
(0.199318 0.00592453 0)
(0.199726 0.00604145 0)
(0.200177 0.00610044 0)
(0.200546 0.00609321 0)
(0.200953 0.00604319 0)
(0.201264 0.00590681 0)
(0.201603 0.00572586 0)
(0.201828 0.00545703 0)
(0.20208 0.00516546 0)
(0.202171 0.00483667 0)
(0.202289 0.00450927 0)
(0.202243 0.00419399 0)
(0.202241 0.00392556 0)
(0.202099 0.00367714 0)
(0.202041 0.00349464 0)
(0.201869 0.00331344 0)
(0.201812 0.0031935 0)
(0.201647 0.00305712 0)
(0.201626 0.00297153 0)
(0.20148 0.0028695 0)
(0.201481 0.0027918 0)
(0.201351 0.00269554 0)
(0.201372 0.00264049 0)
(0.201247 0.00253824 0)
(0.201282 0.00249633 0)
(0.201142 0.00239139 0)
(0.201195 0.00233872 0)
(0.201045 0.00225249 0)
(0.201101 0.00220283 0)
(0.200937 0.00209764 0)
(0.200989 0.00206097 0)
(0.200826 0.00196141 0)
(0.200881 0.00191882 0)
(0.200696 0.00183462 0)
(0.200745 0.00178285 0)
(0.200566 0.00168291 0)
(0.20061 0.00167049 0)
(0.200379 0.00156931 0)
(0.200429 0.00152593 0)
(0.200203 0.00145105 0)
(0.200206 0.00141667 0)
(0.199967 0.00132461 0)
(0.2 0.00131743 0)
(0.199717 0.00125145 0)
(0.1984 0.00355584 0)
(0.19838 0.00396695 0)
(0.198426 0.00439619 0)
(0.19853 0.00480576 0)
(0.198752 0.0051666 0)
(0.199025 0.00543918 0)
(0.199406 0.00564519 0)
(0.199764 0.00576746 0)
(0.200165 0.00583197 0)
(0.2005 0.00582803 0)
(0.200862 0.0057919 0)
(0.201138 0.00567883 0)
(0.201433 0.00553333 0)
(0.201634 0.00530934 0)
(0.201856 0.00506732 0)
(0.201951 0.00478624 0)
(0.202066 0.004501 0)
(0.20205 0.00421335 0)
(0.202058 0.00396659 0)
(0.201962 0.00372715 0)
(0.201909 0.00354723 0)
(0.201782 0.00336649 0)
(0.201726 0.00324241 0)
(0.201596 0.00310262 0)
(0.201568 0.00301261 0)
(0.201464 0.00290352 0)
(0.201451 0.00282361 0)
(0.201366 0.00272361 0)
(0.201371 0.00266343 0)
(0.201293 0.00255773 0)
(0.201319 0.00251422 0)
(0.201232 0.00240703 0)
(0.201271 0.00235163 0)
(0.201185 0.00226524 0)
(0.201226 0.00221451 0)
(0.201147 0.00211325 0)
(0.201171 0.00207105 0)
(0.201098 0.00197439 0)
(0.201145 0.0019285 0)
(0.201049 0.00184623 0)
(0.201082 0.00179602 0)
(0.20102 0.0016998 0)
(0.201056 0.00168385 0)
(0.200936 0.00158687 0)
(0.200967 0.00154231 0)
(0.200888 0.00147865 0)
(0.200888 0.00144104 0)
(0.200769 0.0013464 0)
(0.200799 0.00134314 0)
(0.200673 0.00128629 0)
(0.198696 0.00351643 0)
(0.198684 0.00387045 0)
(0.198717 0.00424038 0)
(0.19879 0.00459593 0)
(0.198965 0.00492326 0)
(0.19918 0.00517407 0)
(0.199495 0.00537916 0)
(0.199803 0.00550698 0)
(0.200151 0.00558178 0)
(0.200449 0.00558583 0)
(0.200767 0.00556482 0)
(0.201014 0.00547363 0)
(0.201268 0.00535571 0)
(0.201447 0.00516994 0)
(0.201638 0.00496874 0)
(0.201728 0.00472913 0)
(0.201837 0.00448284 0)
(0.20184 0.00422188 0)
(0.201853 0.00399725 0)
(0.201793 0.00376995 0)
(0.201748 0.00359163 0)
(0.201651 0.00341439 0)
(0.201601 0.00328637 0)
(0.201494 0.00314211 0)
(0.201461 0.00304919 0)
(0.201378 0.00293534 0)
(0.201358 0.00285065 0)
(0.201294 0.00274755 0)
(0.201287 0.00268407 0)
(0.20123 0.00257466 0)
(0.201245 0.00252821 0)
(0.201179 0.00242081 0)
(0.201208 0.00236195 0)
(0.201144 0.00227526 0)
(0.20117 0.00222059 0)
(0.201127 0.00212273 0)
(0.201128 0.00207937 0)
(0.20108 0.00198445 0)
(0.201124 0.0019343 0)
(0.201055 0.00184914 0)
(0.201069 0.00180239 0)
(0.201045 0.00171035 0)
(0.201074 0.0016903 0)
(0.200987 0.00159954 0)
(0.201002 0.00155401 0)
(0.20097 0.00149057 0)
(0.200971 0.00145434 0)
(0.200883 0.0013616 0)
(0.200907 0.00136018 0)
(0.20083 0.00130723 0)
(0.198962 0.00347155 0)
(0.198954 0.00378222 0)
(0.198977 0.00410595 0)
(0.199024 0.00441387 0)
(0.19916 0.00470788 0)
(0.199328 0.0049378 0)
(0.199585 0.0051363 0)
(0.199843 0.00526567 0)
(0.200138 0.00535122 0)
(0.200397 0.00536638 0)
(0.200672 0.00536003 0)
(0.200889 0.00528721 0)
(0.201107 0.0051915 0)
(0.201262 0.00503778 0)
(0.201424 0.00486916 0)
(0.201506 0.00466412 0)
(0.201606 0.0044534 0)
(0.201621 0.0042191 0)
(0.201639 0.00401454 0)
(0.201602 0.003802 0)
(0.201569 0.00362886 0)
(0.201496 0.00345302 0)
(0.201454 0.00332418 0)
(0.201364 0.00317932 0)
(0.201337 0.00307944 0)
(0.201263 0.00296319 0)
(0.201244 0.00287723 0)
(0.201192 0.00276877 0)
(0.201181 0.00270364 0)
(0.201135 0.00259215 0)
(0.201145 0.00254059 0)
(0.201088 0.00243486 0)
(0.201115 0.0023724 0)
(0.20106 0.00228479 0)
(0.201076 0.00222965 0)
(0.201052 0.00213104 0)
(0.201044 0.00208293 0)
(0.201002 0.00199317 0)
(0.201045 0.0019448 0)
(0.200986 0.00185137 0)
(0.200989 0.00180593 0)
(0.200981 0.00172019 0)
(0.201005 0.00169444 0)
(0.200927 0.00160952 0)
(0.200937 0.00156661 0)
(0.20092 0.00150069 0)
(0.200921 0.00146634 0)
(0.200845 0.00137515 0)
(0.200865 0.00137385 0)
(0.200806 0.00132349 0)
(0.199222 0.00341904 0)
(0.199213 0.00369293 0)
(0.199225 0.00397785 0)
(0.199249 0.00424381 0)
(0.199348 0.00450653 0)
(0.199474 0.0047157 0)
(0.199676 0.00490659 0)
(0.199883 0.00503334 0)
(0.200123 0.00512809 0)
(0.200339 0.0051558 0)
(0.200567 0.00516279 0)
(0.20075 0.00510744 0)
(0.200932 0.00503088 0)
(0.201062 0.00490519 0)
(0.201196 0.00476454 0)
(0.201267 0.00458961 0)
(0.201354 0.00441037 0)
(0.201374 0.00420317 0)
(0.201397 0.00402061 0)
(0.201379 0.00382157 0)
(0.201356 0.00365861 0)
(0.201304 0.00348756 0)
(0.201276 0.00335506 0)
(0.201198 0.00321398 0)
(0.20118 0.00310978 0)
(0.201117 0.00298755 0)
(0.201101 0.00290334 0)
(0.201058 0.00279088 0)
(0.201046 0.00272299 0)
(0.20101 0.00261148 0)
(0.201018 0.0025532 0)
(0.200967 0.00245004 0)
(0.200993 0.00238616 0)
(0.200949 0.00229288 0)
(0.200957 0.00223855 0)
(0.200941 0.00214451 0)
(0.200934 0.00208933 0)
(0.200898 0.00199823 0)
(0.200936 0.00195399 0)
(0.200883 0.00185574 0)
(0.200881 0.00181147 0)
(0.200883 0.00173154 0)
(0.200902 0.00169845 0)
(0.200829 0.00161799 0)
(0.200842 0.00157955 0)
(0.200833 0.00150989 0)
(0.200828 0.0014769 0)
(0.200762 0.00138997 0)
(0.200783 0.00138891 0)
(0.200735 0.00133916 0)
(0.199478 0.00335568 0)
(0.199468 0.0035908 0)
(0.199469 0.00384071 0)
(0.199472 0.0040685 0)
(0.199537 0.00430482 0)
(0.199622 0.00449475 0)
(0.19977 0.00467821 0)
(0.199923 0.00480255 0)
(0.200102 0.00490415 0)
(0.200268 0.00494458 0)
(0.200442 0.00496442 0)
(0.200583 0.0049272 0)
(0.200726 0.00486907 0)
(0.200826 0.00476931 0)
(0.200931 0.00465334 0)
(0.200986 0.00450556 0)
(0.201056 0.00435674 0)
(0.201079 0.00417401 0)
(0.201102 0.00401593 0)
(0.201096 0.00383255 0)
(0.201087 0.00367908 0)
(0.201051 0.0035176 0)
(0.201036 0.00338357 0)
(0.200979 0.00324221 0)
(0.200967 0.00313917 0)
(0.200915 0.00301218 0)
(0.200906 0.00292706 0)
(0.200873 0.00281249 0)
(0.200862 0.00274147 0)
(0.200836 0.00263195 0)
(0.200844 0.00256758 0)
(0.200802 0.00246382 0)
(0.200822 0.00240222 0)
(0.20079 0.00230548 0)
(0.200798 0.00224687 0)
(0.200786 0.00215485 0)
(0.200776 0.002099 0)
(0.20075 0.00200675 0)
(0.200785 0.0019637 0)
(0.200738 0.00186067 0)
(0.200735 0.00181739 0)
(0.200745 0.00174095 0)
(0.200756 0.00170255 0)
(0.20069 0.00162966 0)
(0.200707 0.00159617 0)
(0.200706 0.00151842 0)
(0.200695 0.00148539 0)
(0.200643 0.00140398 0)
(0.200663 0.00140448 0)
(0.200625 0.00135532 0)
(0.199711 0.00328741 0)
(0.199704 0.00348466 0)
(0.199696 0.00370177 0)
(0.199685 0.00390108 0)
(0.199721 0.00411644 0)
(0.199768 0.00429371 0)
(0.199862 0.00447131 0)
(0.199956 0.00459361 0)
(0.200069 0.004702 0)
(0.200178 0.00475278 0)
(0.200289 0.00478312 0)
(0.20038 0.00476342 0)
(0.200477 0.00472173 0)
(0.200542 0.00464241 0)
(0.200611 0.0045484 0)
(0.200652 0.00442231 0)
(0.200698 0.00429806 0)
(0.200716 0.00413823 0)
(0.200738 0.00399997 0)
(0.200737 0.00383237 0)
(0.200739 0.00369117 0)
(0.200721 0.0035347 0)
(0.200713 0.00340542 0)
(0.20068 0.00326461 0)
(0.200677 0.00315903 0)
(0.200639 0.00303159 0)
(0.200638 0.00294634 0)
(0.200617 0.00283003 0)
(0.20061 0.00275663 0)
(0.200595 0.00264811 0)
(0.200599 0.00258084 0)
(0.200573 0.00247749 0)
(0.20059 0.0024139 0)
(0.200567 0.00231692 0)
(0.200571 0.00225809 0)
(0.200567 0.00216395 0)
(0.200562 0.0021072 0)
(0.200546 0.00201515 0)
(0.20057 0.00197019 0)
(0.200532 0.00186489 0)
(0.200531 0.00182937 0)
(0.20055 0.00175199 0)
(0.200555 0.00170206 0)
(0.200503 0.00163797 0)
(0.200517 0.00161392 0)
(0.200524 0.00152987 0)
(0.200512 0.001494 0)
(0.200475 0.00141766 0)
(0.200491 0.00141896 0)
(0.200468 0.0013703 0)
(0.199908 0.00323318 0)
(0.199905 0.00340739 0)
(0.199901 0.00359986 0)
(0.199892 0.00378454 0)
(0.199903 0.00398779 0)
(0.199917 0.00415829 0)
(0.199949 0.00433375 0)
(0.199981 0.00445372 0)
(0.200021 0.00456683 0)
(0.200059 0.0046234 0)
(0.200099 0.00465904 0)
(0.200132 0.0046507 0)
(0.200167 0.00461897 0)
(0.200191 0.00455191 0)
(0.200217 0.0044709 0)
(0.200232 0.00435868 0)
(0.200251 0.0042476 0)
(0.200259 0.00410308 0)
(0.20027 0.00397717 0)
(0.200271 0.00381757 0)
(0.200274 0.00368835 0)
(0.20027 0.00353332 0)
(0.20027 0.00340821 0)
(0.200261 0.0032703 0)
(0.200261 0.00316031 0)
(0.200248 0.00303548 0)
(0.200251 0.00295002 0)
(0.200244 0.00283071 0)
(0.20024 0.00275816 0)
(0.200239 0.00265135 0)
(0.200242 0.00257828 0)
(0.200231 0.00247966 0)
(0.200239 0.00241441 0)
(0.200234 0.0023149 0)
(0.200237 0.00225762 0)
(0.200236 0.00216233 0)
(0.200232 0.0021058 0)
(0.200229 0.00201486 0)
(0.200243 0.00196638 0)
(0.20023 0.00185723 0)
(0.200226 0.00182964 0)
(0.200236 0.00175493 0)
(0.200239 0.00169355 0)
(0.200221 0.00163635 0)
(0.200227 0.00162019 0)
(0.200234 0.00153072 0)
(0.200227 0.00149077 0)
(0.200215 0.00142005 0)
(0.200222 0.00142339 0)
(0.200216 0.00137494 0)
(0.19246 -6.93969e-05 0)
(0.207645 7.97545e-06 0)
(0.192324 4.42341e-05 0)
(0.207177 3.82075e-05 0)
(0.192058 0.000108812 0)
(0.206532 7.01049e-05 0)
(0.191566 0.000178547 0)
(0.205644 0.000126399 0)
(0.190719 0.000302789 0)
(0.204343 0.000310106 0)
(0.189305 0.000721582 0)
(0.202549 0.00112009 0)
(0.196646 -7.59428e-05 0)
(0.20288 7.34404e-07 0)
(0.197001 0.000117255 0)
(0.202 8.65023e-05 0)
(0.197203 0.000232112 0)
(0.200935 0.000148869 0)
(0.197177 0.000353175 0)
(0.19964 0.000269323 0)
(0.196817 0.00061793 0)
(0.198005 0.000691603 0)
(0.196113 0.00149313 0)
(0.19618 0.00224797 0)
(0.199183 -7.15803e-06 0)
(0.200478 -1.76481e-05 0)
(0.199209 0.000150484 0)
(0.199948 0.000126652 0)
(0.199017 0.000273473 0)
(0.199289 0.000256463 0)
(0.198582 0.000415487 0)
(0.198468 0.000486313 0)
(0.197841 0.000774634 0)
(0.197443 0.00112566 0)
(0.196898 0.00178491 0)
(0.196511 0.0027166 0)
(0.199878 1.60632e-05 0)
(0.199978 1.7722e-05 0)
(0.199711 0.000160423 0)
(0.199636 0.000188455 0)
(0.199347 0.000320889 0)
(0.199131 0.000376283 0)
(0.198805 0.000529105 0)
(0.198464 0.000691773 0)
(0.19806 0.000998783 0)
(0.197652 0.00143398 0)
(0.197265 0.00205054 0)
(0.196976 0.00285696 0)
(0.19999 2.70262e-05 0)
(0.199929 6.80204e-05 0)
(0.199799 0.000174348 0)
(0.199633 0.000253991 0)
(0.199418 0.000378054 0)
(0.199168 0.000497114 0)
(0.198894 0.000661214 0)
(0.198573 0.000889228 0)
(0.198237 0.00121562 0)
(0.197897 0.00167214 0)
(0.197606 0.00224485 0)
(0.197388 0.00294195 0)
(0.200004 3.59214e-05 0)
(0.199929 0.000110092 0)
(0.199825 0.000205941 0)
(0.199652 0.000313497 0)
(0.19946 0.00044925 0)
(0.199217 0.000609826 0)
(0.198976 0.000805219 0)
(0.198691 0.00107001 0)
(0.198415 0.00141384 0)
(0.198133 0.00186337 0)
(0.197919 0.00239565 0)
(0.197758 0.00300823 0)
(0.200008 4.50881e-05 0)
(0.199929 0.0001435 0)
(0.199842 0.000248339 0)
(0.199673 0.000373641 0)
(0.199502 0.000529081 0)
(0.199275 0.000720575 0)
(0.199066 0.000948074 0)
(0.198817 0.00123551 0)
(0.198594 0.00158856 0)
(0.198364 0.00202215 0)
(0.198209 0.00251532 0)
(0.198097 0.00305857 0)
(0.200011 5.53426e-05 0)
(0.19993 0.000172151 0)
(0.199857 0.000295596 0)
(0.199698 0.000438667 0)
(0.199549 0.000614786 0)
(0.199344 0.000830316 0)
(0.199163 0.0010823 0)
(0.198952 0.0013844 0)
(0.198774 0.00173832 0)
(0.198593 0.0021516 0)
(0.198479 0.00260646 0)
(0.198407 0.00309062 0)
(0.200012 6.63479e-05 0)
(0.199934 0.000200035 0)
(0.199872 0.000345361 0)
(0.199728 0.000507305 0)
(0.199601 0.000702918 0)
(0.199421 0.000936839 0)
(0.199269 0.00120543 0)
(0.199094 0.00151498 0)
(0.198954 0.00186473 0)
(0.198816 0.00225511 0)
(0.198733 0.00267351 0)
(0.198691 0.00310574 0)
(0.200012 7.77922e-05 0)
(0.19994 0.000229261 0)
(0.199888 0.000396472 0)
(0.199763 0.000577869 0)
(0.199658 0.00078996 0)
(0.199505 0.00103809 0)
(0.19938 0.00131658 0)
(0.199237 0.00162828 0)
(0.199131 0.00196877 0)
(0.199027 0.00233659 0)
(0.198971 0.00272031 0)
(0.198951 0.00310635 0)
(0.200011 9.04298e-05 0)
(0.199948 0.000262673 0)
(0.199907 0.000452297 0)
(0.199804 0.000653618 0)
(0.199722 0.000880479 0)
(0.199599 0.00113943 0)
(0.199501 0.00142201 0)
(0.19939 0.00173205 0)
(0.199315 0.00205893 0)
(0.19924 0.00240194 0)
(0.199206 0.00275359 0)
(0.199204 0.00309761 0)
(0.200009 0.000104773 0)
(0.199959 0.000302657 0)
(0.19993 0.000516806 0)
(0.199852 0.000738949 0)
(0.199796 0.000979117 0)
(0.199706 0.00124641 0)
(0.199638 0.00152744 0)
(0.199559 0.00183115 0)
(0.199512 0.00214192 0)
(0.199464 0.00245743 0)
(0.199449 0.00277578 0)
(0.199459 0.0030807 0)
(0.200007 0.000119858 0)
(0.199971 0.000345726 0)
(0.199957 0.00058535 0)
(0.199907 0.000827394 0)
(0.199877 0.00107929 0)
(0.199821 0.00135101 0)
(0.199784 0.00162721 0)
(0.199737 0.00192036 0)
(0.199713 0.00221238 0)
(0.199686 0.002502 0)
(0.199686 0.00278769 0)
(0.199698 0.00305263 0)
(0.200004 0.000131326 0)
(0.199988 0.000379577 0)
(0.199986 0.000639393 0)
(0.199967 0.000896713 0)
(0.19996 0.00115727 0)
(0.199941 0.00143084 0)
(0.19993 0.00170108 0)
(0.199914 0.00198527 0)
(0.199908 0.00225994 0)
(0.199898 0.00252907 0)
(0.199901 0.00279248 0)
(0.199906 0.00302521 0)
)
;

boundaryField
{
    top
    {
        type            zeroGradient;
    }
    inlet
    {
        type            fixedValue;
        value           uniform (0.2 0 0);
    }
    outlet
    {
        type            zeroGradient;
    }
    plate
    {
        type            fixedValue;
        value           uniform (0 0 0);
    }
    symmBound
    {
        type            zeroGradient;
    }
    frontAndBack
    {
        type            empty;
    }
}


// ************************************************************************* //
