/*--------------------------------*- C++ -*----------------------------------*\
| =========                 |                                                 |
| \\      /  F ield         | OpenFOAM: The Open Source CFD Toolbox           |
|  \\    /   O peration     | Version:  2.3.0                                 |
|   \\  /    A nd           | Web:      www.OpenFOAM.org                      |
|    \\/     M anipulation  |                                                 |
\*---------------------------------------------------------------------------*/
FoamFile
{
    version     2.0;
    format      ascii;
    class       volVectorField;
    location    "0.15";
    object      U_0;
}
// * * * * * * * * * * * * * * * * * * * * * * * * * * * * * * * * * * * * * //

dimensions      [0 1 -1 0 0 0 0];

internalField   nonuniform List<vector> 
3375
(
(0.170803 0.00598542 0)
(0.154295 0.00605052 0)
(0.138431 0.00562728 0)
(0.1234 0.00502368 0)
(0.109616 0.00435706 0)
(0.0972482 0.00368113 0)
(0.0863089 0.00303303 0)
(0.076764 0.00243853 0)
(0.0685566 0.00191334 0)
(0.0615999 0.00146537 0)
(0.055778 0.00109628 0)
(0.0509556 0.000802408 0)
(0.0469896 0.000576133 0)
(0.0437391 0.000407461 0)
(0.041073 0.00028562 0)
(0.0388745 0.000200284 0)
(0.0370448 0.000142321 0)
(0.0355027 0.000104137 0)
(0.0341838 7.9715e-05 0)
(0.0330388 6.44903e-05 0)
(0.0320305 5.51421e-05 0)
(0.0311315 4.93563e-05 0)
(0.0303219 4.55946e-05 0)
(0.0295875 4.28872e-05 0)
(0.0289178 4.06619e-05 0)
(0.0283053 3.861e-05 0)
(0.0277443 3.65894e-05 0)
(0.0272306 3.45557e-05 0)
(0.0267606 3.25144e-05 0)
(0.0263318 3.04857e-05 0)
(0.0259417 2.84755e-05 0)
(0.0255886 2.64506e-05 0)
(0.0252714 2.43166e-05 0)
(0.0249897 2.19048e-05 0)
(0.0247438 1.89826e-05 0)
(0.0245355 1.53406e-05 0)
(0.0243678 1.0979e-05 0)
(0.0242453 6.04287e-06 0)
(0.0241749 1.11435e-06 0)
(0.0241626 -2.96895e-06 0)
(0.0241931 -5.96879e-06 0)
(0.0242529 -8.62504e-06 0)
(0.0243341 -1.08459e-05 0)
(0.0244288 -1.2112e-05 0)
(0.02453 -1.24414e-05 0)
(0.0246322 -1.21041e-05 0)
(0.0247314 -1.1365e-05 0)
(0.0248248 -1.04191e-05 0)
(0.024911 -9.39795e-06 0)
(0.0249893 -8.38449e-06 0)
(0.0250598 -7.42651e-06 0)
(0.0251227 -6.54778e-06 0)
(0.0251786 -5.75682e-06 0)
(0.025228 -5.05304e-06 0)
(0.0252716 -4.43104e-06 0)
(0.0253099 -3.88324e-06 0)
(0.0253436 -3.40151e-06 0)
(0.0253731 -2.97806e-06 0)
(0.025399 -2.60589e-06 0)
(0.0254217 -2.27884e-06 0)
(0.0254415 -1.99163e-06 0)
(0.0254589 -1.73974e-06 0)
(0.025474 -1.51926e-06 0)
(0.0254873 -1.32678e-06 0)
(0.0254989 -1.15927e-06 0)
(0.0255091 -1.01397e-06 0)
(0.025518 -8.88359e-07 0)
(0.0255259 -7.80101e-07 0)
(0.0255329 -6.87018e-07 0)
(0.0255391 -6.07087e-07 0)
(0.0255446 -5.38448e-07 0)
(0.0255495 -4.7941e-07 0)
(0.025554 -4.28462e-07 0)
(0.025558 -3.84264e-07 0)
(0.0255616 -3.45676e-07 0)
(0.0255649 -3.11723e-07 0)
(0.0255679 -2.81606e-07 0)
(0.0255706 -2.54675e-07 0)
(0.0255731 -2.30412e-07 0)
(0.0255754 -2.08415e-07 0)
(0.0255774 -1.88369e-07 0)
(0.0255793 -1.70029e-07 0)
(0.025581 -1.53216e-07 0)
(0.0255826 -1.37769e-07 0)
(0.025584 -1.23581e-07 0)
(0.0255852 -1.10536e-07 0)
(0.0255864 -9.8553e-08 0)
(0.0255874 -8.75469e-08 0)
(0.0255883 -7.74365e-08 0)
(0.0255891 -6.81556e-08 0)
(0.0255899 -5.96226e-08 0)
(0.0255905 -5.17775e-08 0)
(0.0255911 -4.4549e-08 0)
(0.0255916 -3.78761e-08 0)
(0.025592 -3.16985e-08 0)
(0.0255923 -2.59591e-08 0)
(0.0255926 -2.06351e-08 0)
(0.0255928 -1.58687e-08 0)
(0.025593 -1.30402e-08 0)
(0.0255932 -2.27211e-08 0)
(0.189719 0.00944348 0)
(0.18741 0.00995148 0)
(0.183502 0.00972862 0)
(0.178351 0.00923054 0)
(0.172457 0.00859509 0)
(0.166167 0.007869 0)
(0.159703 0.00709087 0)
(0.153234 0.00629622 0)
(0.146893 0.00551487 0)
(0.140782 0.00477131 0)
(0.134968 0.00408465 0)
(0.129491 0.00346801 0)
(0.124373 0.00292827 0)
(0.119615 0.00246653 0)
(0.115212 0.0020792 0)
(0.111148 0.0017594 0)
(0.107404 0.00149835 0)
(0.103958 0.00128664 0)
(0.100787 0.00111516 0)
(0.0978692 0.000975688 0)
(0.0951825 0.000861228 0)
(0.0927077 0.000766069 0)
(0.0904268 0.00068571 0)
(0.0883242 0.000616693 0)
(0.0863859 0.000556418 0)
(0.0845998 0.000502952 0)
(0.0829555 0.000454867 0)
(0.0814443 0.000411107 0)
(0.0800587 0.000370874 0)
(0.0787927 0.000333534 0)
(0.0776413 0.000298537 0)
(0.076601 0.000265344 0)
(0.0756695 0.000233367 0)
(0.0748461 0.000201928 0)
(0.074131 0.000170252 0)
(0.0735259 0.000137557 0)
(0.073033 0.0001033 0)
(0.0726538 6.72134e-05 0)
(0.0723867 2.93329e-05 0)
(0.0722303 -8.16345e-06 0)
(0.0722018 -3.80227e-05 0)
(0.0722646 -5.59844e-05 0)
(0.072388 -6.55273e-05 0)
(0.0725514 -6.99357e-05 0)
(0.0727382 -7.05785e-05 0)
(0.0729356 -6.83691e-05 0)
(0.073134 -6.42496e-05 0)
(0.0733265 -5.90604e-05 0)
(0.0735087 -5.34325e-05 0)
(0.073678 -4.77912e-05 0)
(0.0738333 -4.23977e-05 0)
(0.0739742 -3.73946e-05 0)
(0.074101 -3.28449e-05 0)
(0.0742143 -2.87614e-05 0)
(0.0743152 -2.51287e-05 0)
(0.0744045 -2.1916e-05 0)
(0.0744832 -1.90869e-05 0)
(0.0745523 -1.66035e-05 0)
(0.0746129 -1.44295e-05 0)
(0.0746657 -1.25315e-05 0)
(0.0747118 -1.0879e-05 0)
(0.0747518 -9.44444e-06 0)
(0.0747866 -8.20284e-06 0)
(0.0748168 -7.13165e-06 0)
(0.074843 -6.21034e-06 0)
(0.0748658 -5.42015e-06 0)
(0.0748856 -4.74397e-06 0)
(0.074903 -4.16625e-06 0)
(0.0749183 -3.67288e-06 0)
(0.0749318 -3.25123e-06 0)
(0.0749437 -2.89005e-06 0)
(0.0749543 -2.57949e-06 0)
(0.0749639 -2.31102e-06 0)
(0.0749724 -2.0774e-06 0)
(0.0749802 -1.87256e-06 0)
(0.0749872 -1.69148e-06 0)
(0.0749936 -1.53014e-06 0)
(0.0749994 -1.38528e-06 0)
(0.0750046 -1.25437e-06 0)
(0.0750095 -1.13541e-06 0)
(0.0750139 -1.02686e-06 0)
(0.0750178 -9.27502e-07 0)
(0.0750215 -8.36405e-07 0)
(0.0750248 -7.52769e-07 0)
(0.0750278 -6.75975e-07 0)
(0.0750305 -6.05445e-07 0)
(0.0750329 -5.4069e-07 0)
(0.0750351 -4.81252e-07 0)
(0.0750371 -4.26688e-07 0)
(0.0750389 -3.76603e-07 0)
(0.0750404 -3.30588e-07 0)
(0.0750418 -2.88278e-07 0)
(0.075043 -2.49308e-07 0)
(0.0750441 -2.13334e-07 0)
(0.075045 -1.80029e-07 0)
(0.0750458 -1.49082e-07 0)
(0.0750464 -1.20293e-07 0)
(0.075047 -9.39872e-08 0)
(0.0750474 -7.34571e-08 0)
(0.0750478 -7.78003e-08 0)
(0.192707 0.00905931 0)
(0.193491 0.0100117 0)
(0.193639 0.0103466 0)
(0.192999 0.0103535 0)
(0.191684 0.0101307 0)
(0.189811 0.00971642 0)
(0.187469 0.00915551 0)
(0.184748 0.00849798 0)
(0.181737 0.00778955 0)
(0.178526 0.00706897 0)
(0.175191 0.00636735 0)
(0.171798 0.0057075 0)
(0.168396 0.00510386 0)
(0.165028 0.00456334 0)
(0.161721 0.00408676 0)
(0.158499 0.00367069 0)
(0.155374 0.00330911 0)
(0.152356 0.00299487 0)
(0.149451 0.0027207 0)
(0.14666 0.0024799 0)
(0.143987 0.0022666 0)
(0.14143 0.0020759 0)
(0.138989 0.0019038 0)
(0.136665 0.00174708 0)
(0.134457 0.00160318 0)
(0.132365 0.00147003 0)
(0.130388 0.00134597 0)
(0.128527 0.00122959 0)
(0.126783 0.00111974 0)
(0.125156 0.00101534 0)
(0.123648 0.000915374 0)
(0.122261 0.000818831 0)
(0.120997 0.000724655 0)
(0.11986 0.000631782 0)
(0.118852 0.000539214 0)
(0.117978 0.000446184 0)
(0.117239 0.000352397 0)
(0.116636 0.000258372 0)
(0.116163 0.00016543 0)
(0.115804 7.54025e-05 0)
(0.115537 -6.58538e-06 0)
(0.115398 -7.19469e-05 0)
(0.115371 -0.000116002 0)
(0.115427 -0.000141807 0)
(0.115542 -0.000154423 0)
(0.1157 -0.00015759 0)
(0.115883 -0.000154132 0)
(0.116081 -0.000146339 0)
(0.116284 -0.000135995 0)
(0.116485 -0.0001244 0)
(0.11668 -0.00011245 0)
(0.116866 -0.000100728 0)
(0.117039 -8.95857e-05 0)
(0.117201 -7.92159e-05 0)
(0.117349 -6.97082e-05 0)
(0.117483 -6.10858e-05 0)
(0.117604 -5.33329e-05 0)
(0.117713 -4.64115e-05 0)
(0.11781 -4.02716e-05 0)
(0.117895 -3.48578e-05 0)
(0.11797 -3.01123e-05 0)
(0.118036 -2.5977e-05 0)
(0.118093 -2.23943e-05 0)
(0.118142 -1.93079e-05 0)
(0.118184 -1.66635e-05 0)
(0.118221 -1.44088e-05 0)
(0.118252 -1.24943e-05 0)
(0.118279 -1.08739e-05 0)
(0.118302 -9.5048e-06 0)
(0.118322 -8.34832e-06 0)
(0.118339 -7.36986e-06 0)
(0.118355 -6.53908e-06 0)
(0.118368 -5.82982e-06 0)
(0.118379 -5.21992e-06 0)
(0.11839 -4.69098e-06 0)
(0.118399 -4.22798e-06 0)
(0.118407 -3.81884e-06 0)
(0.118415 -3.45406e-06 0)
(0.118421 -3.12621e-06 0)
(0.118428 -2.82958e-06 0)
(0.118433 -2.55978e-06 0)
(0.118438 -2.31342e-06 0)
(0.118443 -2.08789e-06 0)
(0.118447 -1.8811e-06 0)
(0.118451 -1.69135e-06 0)
(0.118454 -1.51717e-06 0)
(0.118457 -1.35729e-06 0)
(0.11846 -1.21056e-06 0)
(0.118463 -1.07588e-06 0)
(0.118465 -9.52246e-07 0)
(0.118467 -8.3869e-07 0)
(0.118469 -7.34289e-07 0)
(0.11847 -6.38163e-07 0)
(0.118472 -5.49465e-07 0)
(0.118473 -4.67391e-07 0)
(0.118474 -3.91172e-07 0)
(0.118475 -3.20182e-07 0)
(0.118475 -2.54452e-07 0)
(0.118476 -1.97193e-07 0)
(0.118476 -1.62821e-07 0)
(0.193746 0.00840711 0)
(0.194885 0.00945077 0)
(0.195929 0.0100055 0)
(0.196663 0.0102475 0)
(0.197063 0.0102576 0)
(0.197136 0.0100678 0)
(0.196877 0.00971355 0)
(0.196292 0.00923752 0)
(0.195405 0.00868156 0)
(0.194253 0.00808301 0)
(0.192879 0.00747358 0)
(0.191324 0.00687835 0)
(0.189631 0.00631519 0)
(0.187837 0.00579497 0)
(0.185972 0.00532259 0)
(0.184064 0.00489839 0)
(0.182133 0.00451956 0)
(0.180197 0.00418154 0)
(0.178267 0.00387897 0)
(0.176353 0.00360644 0)
(0.174464 0.00335893 0)
(0.172606 0.00313204 0)
(0.170786 0.00292202 0)
(0.169007 0.00272579 0)
(0.167275 0.00254082 0)
(0.165596 0.00236506 0)
(0.163973 0.00219685 0)
(0.162413 0.00203478 0)
(0.16092 0.00187763 0)
(0.1595 0.00172429 0)
(0.158159 0.00157369 0)
(0.156901 0.00142474 0)
(0.155735 0.00127636 0)
(0.154665 0.00112757 0)
(0.153697 0.000977615 0)
(0.152836 0.000826287 0)
(0.152084 0.000674261 0)
(0.151442 0.000523636 0)
(0.150906 0.00037851 0)
(0.15047 0.000244114 0)
(0.150122 0.000122577 0)
(0.149833 1.53341e-05 0)
(0.149628 -7.19434e-05 0)
(0.149509 -0.00013557 0)
(0.149463 -0.00017757 0)
(0.149477 -0.000202325 0)
(0.149539 -0.000213909 0)
(0.149638 -0.00021578 0)
(0.149764 -0.000210806 0)
(0.149909 -0.000201259 0)
(0.150067 -0.000188861 0)
(0.15023 -0.000174871 0)
(0.150395 -0.000160182 0)
(0.150558 -0.000145411 0)
(0.150717 -0.000130974 0)
(0.150868 -0.000117144 0)
(0.151011 -0.0001041 0)
(0.151144 -9.19477e-05 0)
(0.151266 -8.07503e-05 0)
(0.151378 -7.05354e-05 0)
(0.151479 -6.13059e-05 0)
(0.15157 -5.30452e-05 0)
(0.15165 -4.57205e-05 0)
(0.15172 -3.92857e-05 0)
(0.151781 -3.36842e-05 0)
(0.151833 -2.88508e-05 0)
(0.151879 -2.47148e-05 0)
(0.151917 -2.12019e-05 0)
(0.15195 -1.82376e-05 0)
(0.151978 -1.57485e-05 0)
(0.152001 -1.36653e-05 0)
(0.152021 -1.19236e-05 0)
(0.152037 -1.04656e-05 0)
(0.152052 -9.24037e-06 0)
(0.152064 -8.20421e-06 0)
(0.152075 -7.32054e-06 0)
(0.152084 -6.55933e-06 0)
(0.152092 -5.89648e-06 0)
(0.152099 -5.31301e-06 0)
(0.152105 -4.79422e-06 0)
(0.152111 -4.32889e-06 0)
(0.152116 -3.90851e-06 0)
(0.152121 -3.52667e-06 0)
(0.152125 -3.17844e-06 0)
(0.152129 -2.86003e-06 0)
(0.152132 -2.56842e-06 0)
(0.152136 -2.30106e-06 0)
(0.152138 -2.05584e-06 0)
(0.152141 -1.83081e-06 0)
(0.152143 -1.62424e-06 0)
(0.152145 -1.43449e-06 0)
(0.152147 -1.26003e-06 0)
(0.152149 -1.0994e-06 0)
(0.15215 -9.51228e-07 0)
(0.152151 -8.14182e-07 0)
(0.152152 -6.86985e-07 0)
(0.152153 -5.6847e-07 0)
(0.152154 -4.57867e-07 0)
(0.152155 -3.55918e-07 0)
(0.152155 -2.64603e-07 0)
(0.194484 0.00789274 0)
(0.195481 0.00886913 0)
(0.196555 0.00945857 0)
(0.197536 0.00977147 0)
(0.198381 0.00987843 0)
(0.199073 0.00980914 0)
(0.199587 0.00958957 0)
(0.1999 0.00925165 0)
(0.200005 0.00882873 0)
(0.199905 0.00835205 0)
(0.199615 0.0078494 0)
(0.199156 0.00734398 0)
(0.19855 0.00685353 0)
(0.197823 0.00639007 0)
(0.196996 0.00596036 0)
(0.196092 0.00556692 0)
(0.195126 0.00520907 0)
(0.194114 0.00488414 0)
(0.193069 0.00458832 0)
(0.191998 0.00431741 0)
(0.190911 0.00406729 0)
(0.189814 0.00383416 0)
(0.188713 0.00361473 0)
(0.187613 0.00340618 0)
(0.18652 0.00320618 0)
(0.185438 0.00301276 0)
(0.184372 0.00282431 0)
(0.183329 0.00263942 0)
(0.182313 0.00245685 0)
(0.18133 0.00227547 0)
(0.180386 0.00209416 0)
(0.179486 0.00191187 0)
(0.178638 0.00172761 0)
(0.177846 0.00154063 0)
(0.177115 0.00135064 0)
(0.176449 0.00115809 0)
(0.175851 0.000964623 0)
(0.175321 0.000773441 0)
(0.174857 0.00058949 0)
(0.174458 0.000418833 0)
(0.174119 0.000266771 0)
(0.173835 0.000134699 0)
(0.173587 2.20936e-05 0)
(0.173385 -6.89907e-05 0)
(0.173235 -0.000137466 0)
(0.173133 -0.000185565 0)
(0.173076 -0.00021692 0)
(0.173058 -0.000235022 0)
(0.173074 -0.000242924 0)
(0.173118 -0.000243191 0)
(0.173185 -0.000237897 0)
(0.17327 -0.000228665 0)
(0.173369 -0.00021674 0)
(0.173478 -0.000203063 0)
(0.173592 -0.000188342 0)
(0.17371 -0.000173111 0)
(0.173829 -0.000157777 0)
(0.173946 -0.000142654 0)
(0.174059 -0.000127987 0)
(0.174167 -0.000113968 0)
(0.174268 -0.000100746 0)
(0.174362 -8.84328e-05 0)
(0.174448 -7.71068e-05 0)
(0.174526 -6.68151e-05 0)
(0.174595 -5.75755e-05 0)
(0.174657 -4.93784e-05 0)
(0.17471 -4.21904e-05 0)
(0.174756 -3.59577e-05 0)
(0.174795 -3.06105e-05 0)
(0.174828 -2.60673e-05 0)
(0.174856 -2.224e-05 0)
(0.174879 -1.90383e-05 0)
(0.174898 -1.63735e-05 0)
(0.174914 -1.41615e-05 0)
(0.174928 -1.23254e-05 0)
(0.174939 -1.07972e-05 0)
(0.174948 -9.51784e-06 0)
(0.174956 -8.43806e-06 0)
(0.174962 -7.5173e-06 0)
(0.174968 -6.72311e-06 0)
(0.174973 -6.03002e-06 0)
(0.174977 -5.41841e-06 0)
(0.174981 -4.87335e-06 0)
(0.174984 -4.38359e-06 0)
(0.174987 -3.94064e-06 0)
(0.17499 -3.5381e-06 0)
(0.174993 -3.17097e-06 0)
(0.174995 -2.83534e-06 0)
(0.174997 -2.52792e-06 0)
(0.174999 -2.24599e-06 0)
(0.175 -1.9871e-06 0)
(0.175002 -1.74907e-06 0)
(0.175003 -1.52987e-06 0)
(0.175004 -1.32761e-06 0)
(0.175005 -1.14051e-06 0)
(0.175006 -9.66828e-07 0)
(0.175006 -8.049e-07 0)
(0.175007 -6.53014e-07 0)
(0.175008 -5.08667e-07 0)
(0.175008 -3.59126e-07 0)
(0.195114 0.00744977 0)
(0.195936 0.00832062 0)
(0.196876 0.00889423 0)
(0.197808 0.00923056 0)
(0.198687 0.00938353 0)
(0.199491 0.00938013 0)
(0.200199 0.00924154 0)
(0.200788 0.00899318 0)
(0.201243 0.00866259 0)
(0.201559 0.00827626 0)
(0.20174 0.00785814 0)
(0.201793 0.00742873 0)
(0.201731 0.00700427 0)
(0.201567 0.0065964 0)
(0.201318 0.00621236 0)
(0.200997 0.00585564 0)
(0.200618 0.00552682 0)
(0.20019 0.00522449 0)
(0.199724 0.00494601 0)
(0.199226 0.00468816 0)
(0.198702 0.00444756 0)
(0.198158 0.00422098 0)
(0.197597 0.0040055 0)
(0.197024 0.00379853 0)
(0.196441 0.00359784 0)
(0.195853 0.00340155 0)
(0.195262 0.003208 0)
(0.194673 0.00301578 0)
(0.194089 0.00282359 0)
(0.193514 0.00263026 0)
(0.192953 0.00243469 0)
(0.192408 0.00223588 0)
(0.191885 0.00203299 0)
(0.191386 0.00182557 0)
(0.190915 0.00161371 0)
(0.190473 0.00139845 0)
(0.190062 0.00118206 0)
(0.189682 0.000968315 0)
(0.189333 0.000762433 0)
(0.189014 0.000570453 0)
(0.188727 0.000397908 0)
(0.188471 0.000248166 0)
(0.188245 0.000121186 0)
(0.188038 1.55249e-05 0)
(0.187858 -6.91238e-05 0)
(0.187708 -0.000133678 0)
(0.187587 -0.00018065 0)
(0.187496 -0.000213072 0)
(0.187432 -0.000233768 0)
(0.187393 -0.000245189 0)
(0.187376 -0.000249385 0)
(0.187379 -0.000248023 0)
(0.1874 -0.000242428 0)
(0.187434 -0.000233646 0)
(0.187481 -0.000222499 0)
(0.187536 -0.000209644 0)
(0.187599 -0.000195608 0)
(0.187666 -0.000180831 0)
(0.187737 -0.000165681 0)
(0.187808 -0.000150477 0)
(0.187879 -0.000135495 0)
(0.187947 -0.000120971 0)
(0.188013 -0.000107106 0)
(0.188074 -9.40657e-05 0)
(0.188131 -8.19755e-05 0)
(0.188182 -7.09237e-05 0)
(0.188228 -6.09604e-05 0)
(0.188269 -5.20997e-05 0)
(0.188304 -4.4323e-05 0)
(0.188334 -3.75836e-05 0)
(0.188359 -3.18121e-05 0)
(0.188381 -2.69233e-05 0)
(0.188398 -2.28215e-05 0)
(0.188412 -1.94071e-05 0)
(0.188424 -1.65812e-05 0)
(0.188433 -1.42501e-05 0)
(0.188441 -1.23279e-05 0)
(0.188447 -1.07387e-05 0)
(0.188452 -9.41735e-06 0)
(0.188456 -8.30919e-06 0)
(0.188459 -7.36989e-06 0)
(0.188462 -6.56408e-06 0)
(0.188464 -5.86419e-06 0)
(0.188466 -5.2491e-06 0)
(0.188468 -4.70277e-06 0)
(0.18847 -4.21319e-06 0)
(0.188471 -3.77128e-06 0)
(0.188472 -3.37017e-06 0)
(0.188473 -3.00453e-06 0)
(0.188474 -2.67012e-06 0)
(0.188475 -2.36347e-06 0)
(0.188476 -2.08161e-06 0)
(0.188477 -1.82196e-06 0)
(0.188477 -1.58217e-06 0)
(0.188478 -1.3601e-06 0)
(0.188478 -1.15368e-06 0)
(0.188478 -9.60885e-07 0)
(0.188479 -7.79272e-07 0)
(0.188479 -6.03835e-07 0)
(0.188479 -4.11979e-07 0)
(0.195667 0.00707029 0)
(0.196348 0.00783674 0)
(0.197149 0.00837794 0)
(0.197977 0.00871855 0)
(0.198787 0.00889486 0)
(0.199555 0.00893022 0)
(0.200263 0.0088432 0)
(0.200892 0.00865506 0)
(0.20143 0.00838918 0)
(0.201868 0.00806839 0)
(0.202209 0.00771354 0)
(0.202455 0.00734267 0)
(0.202614 0.00697043 0)
(0.202696 0.00660771 0)
(0.202711 0.00626174 0)
(0.20267 0.00593649 0)
(0.202583 0.00563337 0)
(0.202457 0.00535189 0)
(0.202299 0.00509029 0)
(0.202116 0.00484613 0)
(0.201911 0.00461668 0)
(0.201688 0.00439917 0)
(0.201449 0.00419099 0)
(0.201197 0.00398977 0)
(0.200934 0.00379341 0)
(0.200662 0.00360005 0)
(0.200382 0.00340806 0)
(0.200097 0.003216 0)
(0.199808 0.00302255 0)
(0.199517 0.00282654 0)
(0.199227 0.00262689 0)
(0.198938 0.00242269 0)
(0.198653 0.00221329 0)
(0.198373 0.00199844 0)
(0.198098 0.00177857 0)
(0.19783 0.00155503 0)
(0.197567 0.00133037 0)
(0.197311 0.00110847 0)
(0.19706 0.000894409 0)
(0.196816 0.000693798 0)
(0.196582 0.000511764 0)
(0.196359 0.000351854 0)
(0.196151 0.000215411 0)
(0.195959 0.000101357 0)
(0.195778 7.77035e-06 0)
(0.195614 -6.68625e-05 0)
(0.195468 -0.000124379 0)
(0.195341 -0.00016721 0)
(0.195234 -0.000197855 0)
(0.195145 -0.000218561 0)
(0.195074 -0.000231244 0)
(0.19502 -0.000237497 0)
(0.194981 -0.000238613 0)
(0.194955 -0.000235634 0)
(0.194941 -0.000229399 0)
(0.194938 -0.000220587 0)
(0.194944 -0.000209766 0)
(0.194958 -0.000197416 0)
(0.194977 -0.000183958 0)
(0.195001 -0.000169769 0)
(0.195029 -0.000155191 0)
(0.195058 -0.000140534 0)
(0.195088 -0.000126079 0)
(0.195119 -0.000112075 0)
(0.195149 -9.87336e-05 0)
(0.195177 -8.62281e-05 0)
(0.195203 -7.46887e-05 0)
(0.195226 -6.4203e-05 0)
(0.195247 -5.4816e-05 0)
(0.195266 -4.65335e-05 0)
(0.195282 -3.93265e-05 0)
(0.195295 -3.31374e-05 0)
(0.195306 -2.78869e-05 0)
(0.195315 -2.34809e-05 0)
(0.195322 -1.98181e-05 0)
(0.195327 -1.67952e-05 0)
(0.195331 -1.43127e-05 0)
(0.195335 -1.22781e-05 0)
(0.195337 -1.06088e-05 0)
(0.195339 -9.23311e-06 0)
(0.19534 -8.09093e-06 0)
(0.195341 -7.13283e-06 0)
(0.195341 -6.31937e-06 0)
(0.195342 -5.61963e-06 0)
(0.195342 -5.00985e-06 0)
(0.195342 -4.47203e-06 0)
(0.195343 -3.99262e-06 0)
(0.195343 -3.56149e-06 0)
(0.195343 -3.17097e-06 0)
(0.195343 -2.81521e-06 0)
(0.195343 -2.48961e-06 0)
(0.195343 -2.19045e-06 0)
(0.195343 -1.91464e-06 0)
(0.195343 -1.6595e-06 0)
(0.195343 -1.42265e-06 0)
(0.195343 -1.20187e-06 0)
(0.195343 -9.9496e-07 0)
(0.195343 -7.99178e-07 0)
(0.195343 -6.08663e-07 0)
(0.195343 -4.00314e-07 0)
(0.196155 0.0067424 0)
(0.196728 0.0074132 0)
(0.19741 0.00791317 0)
(0.198134 0.00824631 0)
(0.198859 0.00843431 0)
(0.19956 0.00849575 0)
(0.200218 0.00844661 0)
(0.200818 0.00830465 0)
(0.201348 0.0080895 0)
(0.201803 0.00782077 0)
(0.20218 0.00751663 0)
(0.202483 0.00719305 0)
(0.202717 0.00686324 0)
(0.202889 0.00653736 0)
(0.203008 0.00622251 0)
(0.203082 0.00592299 0)
(0.203119 0.00564081 0)
(0.203126 0.00537622 0)
(0.203108 0.00512824 0)
(0.203071 0.00489511 0)
(0.203018 0.00467468 0)
(0.202951 0.00446465 0)
(0.202873 0.00426277 0)
(0.202785 0.00406689 0)
(0.202688 0.00387508 0)
(0.202583 0.00368558 0)
(0.202472 0.00349681 0)
(0.202354 0.00330735 0)
(0.20223 0.00311592 0)
(0.202101 0.00292138 0)
(0.201967 0.00272272 0)
(0.201829 0.00251913 0)
(0.201686 0.00231011 0)
(0.201537 0.00209559 0)
(0.201383 0.00187617 0)
(0.201223 0.00165335 0)
(0.201055 0.00142967 0)
(0.200879 0.00120885 0)
(0.200696 0.000995498 0)
(0.200505 0.000794653 0)
(0.200311 0.000610894 0)
(0.200117 0.000447533 0)
(0.199926 0.000306175 0)
(0.199742 0.000186703 0)
(0.199567 8.75362e-05 0)
(0.199402 6.59805e-06 0)
(0.199247 -5.80085e-05 0)
(0.199106 -0.000108306 0)
(0.198978 -0.000146435 0)
(0.198864 -0.000174412 0)
(0.198763 -0.000194005 0)
(0.198676 -0.000206709 0)
(0.1986 -0.000213759 0)
(0.198536 -0.000216167 0)
(0.198483 -0.000214761 0)
(0.19844 -0.000210221 0)
(0.198405 -0.00020312 0)
(0.198378 -0.000193951 0)
(0.198357 -0.000183154 0)
(0.198343 -0.000171127 0)
(0.198334 -0.000158239 0)
(0.198328 -0.000144835 0)
(0.198327 -0.000131234 0)
(0.198327 -0.000117729 0)
(0.19833 -0.000104581 0)
(0.198334 -9.2013e-05 0)
(0.198339 -8.02094e-05 0)
(0.198344 -6.93088e-05 0)
(0.198349 -5.94048e-05 0)
(0.198353 -5.05475e-05 0)
(0.198357 -4.2746e-05 0)
(0.198361 -3.59737e-05 0)
(0.198364 -3.01751e-05 0)
(0.198366 -2.5273e-05 0)
(0.198367 -2.11756e-05 0)
(0.198368 -1.7784e-05 0)
(0.198369 -1.4998e-05 0)
(0.198369 -1.27212e-05 0)
(0.198368 -1.08648e-05 0)
(0.198368 -9.34939e-06 0)
(0.198367 -8.10687e-06 0)
(0.198366 -7.08009e-06 0)
(0.198366 -6.22245e-06 0)
(0.198365 -5.49689e-06 0)
(0.198364 -4.8745e-06 0)
(0.198363 -4.33314e-06 0)
(0.198362 -3.85606e-06 0)
(0.198362 -3.43074e-06 0)
(0.198361 -3.04779e-06 0)
(0.19836 -2.70015e-06 0)
(0.19836 -2.38242e-06 0)
(0.198359 -2.09037e-06 0)
(0.198359 -1.8206e-06 0)
(0.198358 -1.57028e-06 0)
(0.198358 -1.33695e-06 0)
(0.198357 -1.11843e-06 0)
(0.198357 -9.1254e-07 0)
(0.198357 -7.16695e-07 0)
(0.198356 -5.25779e-07 0)
(0.198356 -3.23876e-07 0)
(0.196588 0.00645328 0)
(0.197077 0.00703914 0)
(0.19766 0.00749458 0)
(0.198291 0.00781323 0)
(0.198935 0.00800597 0)
(0.199566 0.00808621 0)
(0.200166 0.008067 0)
(0.200721 0.00796292 0)
(0.20122 0.00779025 0)
(0.201658 0.00756564 0)
(0.202032 0.00730486 0)
(0.202344 0.00702198 0)
(0.202597 0.0067289 0)
(0.202799 0.00643504 0)
(0.202954 0.00614728 0)
(0.203072 0.00587012 0)
(0.203157 0.00560603 0)
(0.203217 0.00535586 0)
(0.203257 0.00511928 0)
(0.20328 0.00489519 0)
(0.20329 0.00468197 0)
(0.203289 0.00447781 0)
(0.20328 0.00428081 0)
(0.203264 0.00408912 0)
(0.203241 0.003901 0)
(0.203212 0.00371484 0)
(0.203178 0.00352919 0)
(0.203138 0.00334269 0)
(0.203092 0.00315416 0)
(0.20304 0.00296252 0)
(0.202983 0.00276686 0)
(0.202918 0.0025665 0)
(0.202846 0.00236107 0)
(0.202764 0.00215062 0)
(0.202672 0.00193587 0)
(0.202569 0.0017183 0)
(0.202453 0.00150033 0)
(0.202322 0.00128531 0)
(0.202178 0.00107734 0)
(0.202022 0.000880798 0)
(0.201855 0.000699688 0)
(0.201682 0.000536995 0)
(0.201506 0.00039433 0)
(0.201332 0.000271915 0)
(0.201162 0.000168825 0)
(0.200999 8.33759e-05 0)
(0.200844 1.36025e-05 0)
(0.200698 -4.23756e-05 0)
(0.200562 -8.64098e-05 0)
(0.200437 -0.000120292 0)
(0.200323 -0.000145634 0)
(0.20022 -0.000163828 0)
(0.200126 -0.000176045 0)
(0.200042 -0.000183264 0)
(0.199968 -0.000186295 0)
(0.199902 -0.000185816 0)
(0.199844 -0.000182402 0)
(0.199793 -0.000176556 0)
(0.199749 -0.000168725 0)
(0.199711 -0.000159318 0)
(0.199678 -0.000148718 0)
(0.199651 -0.000137285 0)
(0.199628 -0.000125353 0)
(0.199608 -0.000113237 0)
(0.199593 -0.000101218 0)
(0.19958 -8.9546e-05 0)
(0.199569 -7.84302e-05 0)
(0.19956 -6.80381e-05 0)
(0.199553 -5.84923e-05 0)
(0.199547 -4.98709e-05 0)
(0.199542 -4.221e-05 0)
(0.199538 -3.55075e-05 0)
(0.199535 -2.97296e-05 0)
(0.199532 -2.48172e-05 0)
(0.199529 -2.06932e-05 0)
(0.199526 -1.72698e-05 0)
(0.199523 -1.44545e-05 0)
(0.199521 -1.21558e-05 0)
(0.199519 -1.02874e-05 0)
(0.199517 -8.77088e-06 0)
(0.199515 -7.53733e-06 0)
(0.199513 -6.52828e-06 0)
(0.199511 -5.69534e-06 0)
(0.199509 -4.99949e-06 0)
(0.199508 -4.40998e-06 0)
(0.199506 -3.90302e-06 0)
(0.199505 -3.46052e-06 0)
(0.199504 -3.06888e-06 0)
(0.199503 -2.71792e-06 0)
(0.199501 -2.40005e-06 0)
(0.199501 -2.10953e-06 0)
(0.1995 -1.84196e-06 0)
(0.199499 -1.59389e-06 0)
(0.199498 -1.36252e-06 0)
(0.199498 -1.14549e-06 0)
(0.199497 -9.40759e-07 0)
(0.199496 -7.46406e-07 0)
(0.199496 -5.60304e-07 0)
(0.199495 -3.79052e-07 0)
(0.199495 -1.96436e-07 0)
(0.196973 0.00619412 0)
(0.197395 0.00670616 0)
(0.197897 0.00711753 0)
(0.198447 0.00741759 0)
(0.199016 0.00760995 0)
(0.199582 0.0077033 0)
(0.200125 0.00770778 0)
(0.200634 0.00763515 0)
(0.201098 0.00749873 0)
(0.20151 0.0073125 0)
(0.201869 0.00708998 0)
(0.202175 0.00684348 0)
(0.20243 0.00658362 0)
(0.202639 0.00631906 0)
(0.202808 0.00605634 0)
(0.202942 0.00580001 0)
(0.203047 0.00555287 0)
(0.203128 0.00531625 0)
(0.203191 0.00509036 0)
(0.203238 0.00487465 0)
(0.203273 0.00466803 0)
(0.203299 0.00446912 0)
(0.203317 0.00427639 0)
(0.203329 0.00408831 0)
(0.203335 0.00390337 0)
(0.203336 0.00372015 0)
(0.203332 0.00353733 0)
(0.203323 0.00335371 0)
(0.203308 0.0031682 0)
(0.203288 0.00297984 0)
(0.203262 0.00278786 0)
(0.203228 0.00259167 0)
(0.203185 0.00239104 0)
(0.203133 0.00218614 0)
(0.203069 0.00197769 0)
(0.202992 0.00176714 0)
(0.2029 0.00155669 0)
(0.202793 0.00134933 0)
(0.202671 0.0011486 0)
(0.202534 0.000958261 0)
(0.202386 0.000781767 0)
(0.202228 0.000621768 0)
(0.202066 0.000479806 0)
(0.201902 0.000356283 0)
(0.201739 0.000250633 0)
(0.201581 0.000161632 0)
(0.201429 8.76788e-05 0)
(0.201285 2.70295e-05 0)
(0.201148 -2.20004e-05 0)
(0.201021 -6.09758e-05 0)
(0.200902 -9.13631e-05 0)
(0.200793 -0.000114452 0)
(0.200692 -0.000131347 0)
(0.2006 -0.000142987 0)
(0.200516 -0.000150163 0)
(0.20044 -0.000153546 0)
(0.200371 -0.000153716 0)
(0.200309 -0.000151181 0)
(0.200254 -0.000146396 0)
(0.200204 -0.00013978 0)
(0.20016 -0.000131723 0)
(0.200121 -0.000122592 0)
(0.200087 -0.000112732 0)
(0.200058 -0.000102462 0)
(0.200032 -9.20739e-05 0)
(0.20001 -8.18267e-05 0)
(0.199991 -7.1942e-05 0)
(0.199975 -6.26006e-05 0)
(0.199961 -5.394e-05 0)
(0.199949 -4.60551e-05 0)
(0.199939 -3.89992e-05 0)
(0.199931 -3.27882e-05 0)
(0.199923 -2.74059e-05 0)
(0.199917 -2.28098e-05 0)
(0.199912 -1.89384e-05 0)
(0.199907 -1.57174e-05 0)
(0.199903 -1.30662e-05 0)
(0.199899 -1.09029e-05 0)
(0.199895 -9.14877e-06 0)
(0.199892 -7.73121e-06 0)
(0.19989 -6.58564e-06 0)
(0.199887 -5.65644e-06 0)
(0.199885 -4.8971e-06 0)
(0.199883 -4.26974e-06 0)
(0.199881 -3.74417e-06 0)
(0.199879 -3.2969e-06 0)
(0.199877 -2.90989e-06 0)
(0.199876 -2.56956e-06 0)
(0.199874 -2.26572e-06 0)
(0.199873 -1.99077e-06 0)
(0.199872 -1.73906e-06 0)
(0.199871 -1.50626e-06 0)
(0.19987 -1.28907e-06 0)
(0.199869 -1.08488e-06 0)
(0.199868 -8.91541e-07 0)
(0.199868 -7.07268e-07 0)
(0.199867 -5.30486e-07 0)
(0.199866 -3.59723e-07 0)
(0.199866 -1.93488e-07 0)
(0.199865 -3.33413e-08 0)
(0.197317 0.005959 0)
(0.197685 0.00640755 0)
(0.198119 0.00677727 0)
(0.198599 0.00705656 0)
(0.199102 0.00724464 0)
(0.199607 0.00734641 0)
(0.200097 0.00736934 0)
(0.200561 0.00732269 0)
(0.200989 0.00721723 0)
(0.201375 0.00706453 0)
(0.201716 0.00687604 0)
(0.20201 0.00666242 0)
(0.202261 0.00643307 0)
(0.20247 0.00619582 0)
(0.202643 0.00595681 0)
(0.202785 0.00572053 0)
(0.202899 0.00548996 0)
(0.20299 0.00526678 0)
(0.203063 0.00505164 0)
(0.203122 0.00484445 0)
(0.203168 0.00464457 0)
(0.203205 0.00445104 0)
(0.203234 0.00426268 0)
(0.203257 0.00407826 0)
(0.203273 0.00389652 0)
(0.203285 0.00371625 0)
(0.203292 0.0035363 0)
(0.203294 0.00335561 0)
(0.20329 0.00317323 0)
(0.203281 0.00298834 0)
(0.203265 0.00280028 0)
(0.203242 0.0026086 0)
(0.203211 0.00241318 0)
(0.203169 0.00221424 0)
(0.203115 0.00201255 0)
(0.203049 0.00180944 0)
(0.202969 0.0016069 0)
(0.202873 0.00140755 0)
(0.202763 0.00121444 0)
(0.202639 0.00103078 0)
(0.202504 0.000859521 0)
(0.202359 0.000703005 0)
(0.202207 0.000562674 0)
(0.202053 0.000439039 0)
(0.2019 0.000331794 0)
(0.201748 0.000240038 0)
(0.201602 0.000162505 0)
(0.201461 9.77586e-05 0)
(0.201328 4.43092e-05 0)
(0.201202 7.21447e-07 0)
(0.201085 -3.43015e-05 0)
(0.200975 -6.19364e-05 0)
(0.200873 -8.32244e-05 0)
(0.200779 -9.90615e-05 0)
(0.200693 -0.000110216 0)
(0.200613 -0.00011735 0)
(0.200541 -0.00012104 0)
(0.200475 -0.000121799 0)
(0.200415 -0.000120089 0)
(0.200361 -0.000116336 0)
(0.200313 -0.000110935 0)
(0.20027 -0.000104259 0)
(0.200231 -9.66539e-05 0)
(0.200197 -8.84442e-05 0)
(0.200167 -7.99242e-05 0)
(0.200141 -7.13562e-05 0)
(0.200118 -6.29666e-05 0)
(0.200099 -5.49426e-05 0)
(0.200082 -4.74303e-05 0)
(0.200068 -4.0535e-05 0)
(0.200055 -3.43224e-05 0)
(0.200045 -2.88224e-05 0)
(0.200036 -2.40335e-05 0)
(0.200028 -1.99288e-05 0)
(0.200021 -1.64617e-05 0)
(0.200015 -1.35724e-05 0)
(0.20001 -1.11934e-05 0)
(0.200006 -9.25453e-06 0)
(0.200002 -7.68706e-06 0)
(0.199999 -6.42663e-06 0)
(0.199995 -5.41528e-06 0)
(0.199993 -4.60253e-06 0)
(0.19999 -3.94572e-06 0)
(0.199988 -3.40975e-06 0)
(0.199985 -2.96641e-06 0)
(0.199984 -2.59358e-06 0)
(0.199982 -2.27416e-06 0)
(0.19998 -1.9952e-06 0)
(0.199979 -1.74699e-06 0)
(0.199977 -1.52229e-06 0)
(0.199976 -1.31573e-06 0)
(0.199975 -1.1233e-06 0)
(0.199974 -9.41948e-07 0)
(0.199973 -7.69331e-07 0)
(0.199972 -6.03602e-07 0)
(0.199972 -4.43282e-07 0)
(0.199971 -2.87203e-07 0)
(0.19997 -1.34564e-07 0)
(0.19997 1.45453e-08 0)
(0.199969 1.54204e-07 0)
(0.197624 0.00574375 0)
(0.197947 0.00613787 0)
(0.198326 0.00646932 0)
(0.198746 0.00672714 0)
(0.199189 0.00690819 0)
(0.199639 0.0070146 0)
(0.200081 0.00705154 0)
(0.200502 0.0070261 0)
(0.200895 0.00694688 0)
(0.201254 0.00682331 0)
(0.201575 0.00666499 0)
(0.201856 0.00648103 0)
(0.202099 0.00627965 0)
(0.202306 0.00606788 0)
(0.20248 0.0058514 0)
(0.202624 0.00563453 0)
(0.202743 0.0054203 0)
(0.202841 0.00521064 0)
(0.202921 0.00500653 0)
(0.202985 0.00480827 0)
(0.203038 0.00461559 0)
(0.203081 0.0044279 0)
(0.203115 0.00424435 0)
(0.203143 0.00406398 0)
(0.203164 0.0038858 0)
(0.20318 0.00370878 0)
(0.203191 0.00353197 0)
(0.203196 0.00335445 0)
(0.203196 0.00317543 0)
(0.20319 0.00299422 0)
(0.203177 0.00281028 0)
(0.203157 0.00262328 0)
(0.203128 0.00243318 0)
(0.20309 0.00224027 0)
(0.203041 0.00204531 0)
(0.202979 0.00184953 0)
(0.202904 0.00165471 0)
(0.202816 0.00146312 0)
(0.202714 0.00127739 0)
(0.202599 0.00110025 0)
(0.202473 0.000934245 0)
(0.202338 0.000781404 0)
(0.202197 0.000643073 0)
(0.202053 0.000519828 0)
(0.201908 0.000411559 0)
(0.201764 0.000317627 0)
(0.201625 0.000237044 0)
(0.20149 0.000168627 0)
(0.201361 0.000111122 0)
(0.20124 6.32816e-05 0)
(0.201125 2.3919e-05 0)
(0.201017 -8.04149e-06 0)
(0.200917 -3.3547e-05 0)
(0.200824 -5.3444e-05 0)
(0.200738 -6.84772e-05 0)
(0.200659 -7.92955e-05 0)
(0.200587 -8.64713e-05 0)
(0.20052 -9.05165e-05 0)
(0.20046 -9.18967e-05 0)
(0.200405 -9.10411e-05 0)