/*--------------------------------*- C++ -*----------------------------------*\
| =========                 |                                                 |
| \\      /  F ield         | OpenFOAM: The Open Source CFD Toolbox           |
|  \\    /   O peration     | Version:  2.3.0                                 |
|   \\  /    A nd           | Web:      www.OpenFOAM.org                      |
|    \\/     M anipulation  |                                                 |
\*---------------------------------------------------------------------------*/
FoamFile
{
    version     2.0;
    format      ascii;
    class       surfaceScalarField;
    location    "0.95";
    object      phi_0;
}
// * * * * * * * * * * * * * * * * * * * * * * * * * * * * * * * * * * * * * //

dimensions      [0 3 -1 0 0 0 0];

internalField   nonuniform List<scalar> 
4357
(
4.99619e-08
2.04764e-09
-5.20096e-08
4.7807e-08
2.15488e-09
4.56424e-08
2.16469e-09
4.34936e-08
2.14876e-09
4.13729e-08
2.1207e-09
3.92911e-08
2.08176e-09
3.72571e-08
2.03407e-09
3.52775e-08
1.97962e-09
3.33578e-08
1.91969e-09
3.15028e-08
1.85501e-09
2.97167e-08
1.78609e-09
2.80033e-08
1.71336e-09
2.6366e-08
1.63726e-09
2.48078e-08
1.55828e-09
2.33308e-08
1.47692e-09
2.19371e-08
1.39377e-09
2.06276e-08
1.30946e-09
1.94029e-08
1.22468e-09
1.82628e-08
1.14014e-09
1.72062e-08
1.05658e-09
1.62315e-08
9.74735e-10
1.53362e-08
8.95306e-10
1.45172e-08
8.18949e-10
1.3771e-08
7.46249e-10
1.30933e-08
6.77697e-10
1.24796e-08
6.13682e-10
1.19251e-08
5.54478e-10
1.14249e-08
5.00241e-10
1.09739e-08
4.51013e-10
1.05671e-08
4.06732e-10
1.01999e-08
3.67237e-10
9.86759e-09
3.32294e-10
9.56599e-09
3.01602e-10
9.29117e-09
2.74819e-10
9.03959e-09
2.51576e-10
8.8081e-09
2.31493e-10
8.59391e-09
2.14192e-10
8.3946e-09
1.99308e-10
8.2081e-09
1.86501e-10
8.03264e-09
1.75456e-10
7.86675e-09
1.65891e-10
7.70919e-09
1.57558e-10
7.55895e-09
1.50241e-10
7.4152e-09
1.43755e-10
7.27725e-09
1.3795e-10
7.14455e-09
1.32698e-10
7.01665e-09
1.27896e-10
6.89319e-09
1.23463e-10
6.77386e-09
1.19333e-10
6.6584e-09
1.15457e-10
6.54661e-09
1.11797e-10
6.43828e-09
1.08323e-10
6.33327e-09
1.05013e-10
6.23142e-09
1.01852e-10
6.13259e-09
9.88274e-11
6.03666e-09
9.59295e-11
5.94351e-09
9.31511e-11
5.85302e-09
9.04863e-11
5.76509e-09
8.793e-11
5.67962e-09
8.54775e-11
5.59649e-09
8.31246e-11
5.51562e-09
8.08668e-11
5.43692e-09
7.87e-11
5.3603e-09
7.66201e-11
5.28568e-09
7.46227e-11
5.21298e-09
7.27036e-11
5.14212e-09
7.08588e-11
5.07303e-09
6.90842e-11
5.00566e-09
6.73758e-11
4.93993e-09
6.57298e-11
4.87579e-09
6.41425e-11
4.81318e-09
6.26104e-11
4.75205e-09
6.11303e-11
4.69235e-09
5.96991e-11
4.63403e-09
5.8314e-11
4.57706e-09
5.69724e-11
4.52139e-09
5.56718e-11
4.46698e-09
5.44102e-11
4.41379e-09
5.31855e-11
4.3618e-09
5.19961e-11
4.31096e-09
5.08405e-11
4.26124e-09
4.97175e-11
4.21261e-09
4.86261e-11
4.16505e-09
4.75654e-11
4.11851e-09
4.65352e-11
4.07298e-09
4.55352e-11
4.02841e-09
4.45656e-11
3.98478e-09
4.36274e-11
3.94206e-09
4.27219e-11
3.90021e-09
4.18515e-11
3.85919e-09
4.10201e-11
3.81896e-09
4.02341e-11
3.77945e-09
3.95042e-11
3.7406e-09
3.88493e-11
3.7023e-09
3.83052e-11
3.66435e-09
3.79483e-11
3.62639e-09
3.79628e-11
3.58765e-09
3.87404e-11
3.54512e-09
4.25283e-11
9.7952e-11
5.77077e-08
2.15837e-09
-5.78185e-08
5.74645e-08
2.39811e-09
5.70869e-08
2.54233e-09
5.65956e-08
2.64001e-09
5.60053e-08
2.71102e-09
5.53275e-08
2.75959e-09
5.45732e-08
2.78834e-09
5.37527e-08
2.80015e-09
5.28752e-08
2.79713e-09
5.19496e-08
2.78065e-09
5.0984e-08
2.75168e-09
4.99862e-08
2.71111e-09
4.89637e-08
2.6598e-09
4.79233e-08
2.59863e-09
4.68717e-08
2.52856e-09
4.58149e-08
2.45061e-09
4.47585e-08
2.36588e-09
4.37076e-08
2.27556e-09
4.26668e-08
2.1809e-09
4.16402e-08
2.08315e-09
4.06314e-08
1.98361e-09
3.96431e-08
1.88353e-09
3.8678e-08
1.78409e-09
3.77379e-08
1.68639e-09
3.68242e-08
1.5914e-09
3.59379e-08
1.49996e-09
3.50796e-08
1.41273e-09
3.42497e-08
1.33021e-09
3.34479e-08
1.25274e-09
3.26742e-08
1.18051e-09
3.19278e-08
1.11356e-09
3.12083e-08
1.05181e-09
3.05149e-08
9.95079e-10
2.98466e-08
9.43117e-10
2.92025e-08
8.95609e-10
2.85818e-08
8.52209e-10
2.79834e-08
8.12552e-10
2.74065e-08
7.76275e-10
2.685e-08
7.43023e-10
2.6313e-08
7.1246e-10
2.57946e-08
6.84276e-10
2.52939e-08
6.5819e-10
2.48102e-08
6.33952e-10
2.43426e-08
6.11339e-10
2.38904e-08
5.90165e-10
2.34529e-08
5.70267e-10
2.30292e-08
5.51505e-10
2.26189e-08
5.33763e-10
2.22213e-08
5.16943e-10
2.18358e-08
5.00962e-10
2.14619e-08
4.85751e-10
2.10989e-08
4.71254e-10
2.07465e-08
4.57421e-10
2.04042e-08
4.4421e-10
2.00714e-08
4.31584e-10
1.97478e-08
4.19511e-10
1.9433e-08
4.07961e-10
1.91266e-08
3.96908e-10
1.88282e-08
3.86327e-10
1.85375e-08
3.76194e-10
1.82541e-08
3.66487e-10
1.79778e-08
3.57184e-10
1.77083e-08
3.48264e-10
1.74452e-08
3.39708e-10
1.71883e-08
3.31496e-10
1.69374e-08
3.2361e-10
1.66922e-08
3.16032e-10
1.64526e-08
3.08745e-10
1.62182e-08
3.01733e-10
1.59889e-08
2.94981e-10
1.57646e-08
2.88474e-10
1.5545e-08
2.82198e-10
1.533e-08
2.76141e-10
1.51194e-08
2.70291e-10
1.49131e-08
2.64636e-10
1.47109e-08
2.59167e-10
1.45127e-08
2.53873e-10
1.43184e-08
2.48747e-10
1.41278e-08
2.4378e-10
1.39408e-08
2.38966e-10
1.37573e-08
2.34298e-10
1.35773e-08
2.2977e-10
1.34005e-08
2.25379e-10
1.3227e-08
2.2112e-10
1.30565e-08
2.16992e-10
1.28891e-08
2.12991e-10
1.27245e-08
2.09117e-10
1.25628e-08
2.05372e-10
1.24037e-08
2.01759e-10
1.22473e-08
1.98284e-10
1.20934e-08
1.94957e-10
1.19418e-08
1.91796e-10
1.17925e-08
1.88831e-10
1.16452e-08
1.86116e-10
1.14998e-08
1.83757e-10
1.13557e-08
1.81977e-10
1.12124e-08
1.81314e-10
1.10677e-08
1.83465e-10
1.09118e-08
1.98345e-10
2.78313e-10
6.27562e-08
2.15118e-09
-6.2749e-08
6.27677e-08
2.38661e-09
6.27509e-08
2.55918e-09
6.26974e-08
2.69349e-09
6.26038e-08
2.8046e-09
6.24669e-08
2.89651e-09
6.22848e-08
2.97047e-09
6.2057e-08
3.02795e-09
6.17838e-08
3.07027e-09
6.14662e-08
3.09825e-09
6.11055e-08
3.11241e-09
6.07034e-08
3.1132e-09
6.02621e-08
3.10108e-09
5.97841e-08
3.07664e-09
5.92721e-08
3.04054e-09
5.87291e-08
2.9936e-09
5.81582e-08
2.93678e-09
5.75626e-08
2.87117e-09
5.69456e-08
2.79797e-09
5.63102e-08
2.7185e-09
5.56597e-08
2.6341e-09
5.49971e-08
2.54616e-09
5.43251e-08
2.45604e-09
5.36465e-08
2.36503e-09
5.29636e-08
2.27433e-09
5.22785e-08
2.18502e-09
5.15932e-08
2.098e-09
5.09094e-08
2.01404e-09
5.02284e-08
1.93372e-09
4.95515e-08
1.85744e-09
4.88796e-08
1.78547e-09
4.82135e-08
1.7179e-09
4.75538e-08
1.65473e-09
4.69011e-08
1.59584e-09
4.62557e-08
1.54104e-09
4.56178e-08
1.49009e-09
4.49877e-08
1.44268e-09
4.43654e-08
1.39852e-09
4.37511e-08
1.3573e-09
4.31449e-08
1.31872e-09
4.25467e-08
1.28249e-09
4.19565e-08
1.24834e-09
4.13744e-08
1.21604e-09
4.08004e-08
1.18537e-09
4.02344e-08
1.15616e-09
3.96764e-08
1.12824e-09
3.91265e-08
1.10148e-09
3.85845e-08
1.07576e-09
3.80504e-08
1.051e-09
3.75243e-08
1.0271e-09
3.7006e-08
1.00402e-09
3.64956e-08
9.81687e-10
3.59929e-08
9.6007e-10
3.5498e-08
9.3913e-10
3.50107e-08
9.18835e-10
3.45311e-08
8.9916e-10
3.4059e-08
8.80082e-10
3.35943e-08
8.61578e-10
3.3137e-08
8.4363e-10
3.2687e-08
8.26218e-10
3.22441e-08
8.09326e-10
3.18084e-08
7.92936e-10
3.13796e-08
7.77031e-10
3.09577e-08
7.61594e-10
3.05426e-08
7.46609e-10
3.01342e-08
7.32059e-10
2.97323e-08
7.17928e-10
2.93368e-08
7.04202e-10
2.89477e-08
6.90864e-10
2.85648e-08
6.779e-10
2.81879e-08
6.65295e-10
2.78171e-08
6.53037e-10
2.74521e-08
6.4111e-10
2.70929e-08
6.29504e-10
2.67394e-08
6.18205e-10
2.63913e-08
6.07204e-10
2.60487e-08
5.96489e-10
2.57114e-08
5.86051e-10
2.53793e-08
5.75882e-10
2.50523e-08
5.65973e-10
2.47303e-08
5.56317e-10
2.44131e-08
5.46908e-10
2.41008e-08
5.37742e-10
2.37931e-08
5.28814e-10
2.34899e-08
5.20123e-10
2.31913e-08
5.11667e-10
2.28969e-08
5.03448e-10
2.26068e-08
4.9547e-10
2.23209e-08
4.8774e-10
2.20389e-08
4.80271e-10
2.17608e-08
4.73083e-10
2.14863e-08
4.66209e-10
2.12155e-08
4.59706e-10
2.09479e-08
4.53671e-10
2.06834e-08
4.48294e-10
2.04214e-08
4.43983e-10
2.01609e-08
4.41737e-10
1.98997e-08
4.44719e-10
1.96322e-08
4.65845e-10
5.39117e-10
6.79981e-08
2.17521e-09
-6.80221e-08
6.80021e-08
2.38256e-09
6.80089e-08
2.55238e-09
6.80094e-08
2.69297e-09
6.80008e-08
2.81321e-09
6.79805e-08
2.91683e-09
6.79459e-08
3.00506e-09
6.78949e-08
3.07896e-09
6.78256e-08
3.13954e-09
6.77364e-08
3.18749e-09
6.76256e-08
3.22318e-09
6.74919e-08
3.24686e-09
6.73343e-08
3.25876e-09
6.71518e-08
3.25916e-09
6.69439e-08
3.24842e-09
6.67104e-08
3.22704e-09
6.64516e-08
3.19565e-09
6.61677e-08
3.15503e-09
6.58596e-08
3.10608e-09
6.55282e-08
3.04986e-09
6.51748e-08
2.98749e-09
6.48008e-08
2.92017e-09
6.44077e-08
2.84912e-09
6.39972e-08
2.77555e-09
6.35709e-08
2.70061e-09
6.31306e-08
2.62538e-09
6.26778e-08
2.5508e-09
6.22141e-08
2.47771e-09
6.1741e-08
2.40678e-09
6.12599e-08
2.33854e-09
6.0772e-08
2.27338e-09
6.02784e-08
2.21153e-09
5.978e-08
2.15312e-09
5.92777e-08
2.09815e-09
5.87722e-08
2.04657e-09
5.82641e-08
1.99821e-09
5.77538e-08
1.9529e-09
5.7242e-08
1.91041e-09
5.67288e-08
1.87048e-09
5.62146e-08
1.83288e-09
5.56997e-08
1.79737e-09
5.51844e-08
1.7637e-09
5.46687e-08
1.73167e-09
5.4153e-08
1.70108e-09
5.36374e-08
1.67176e-09
5.31221e-08
1.64357e-09
5.26072e-08
1.61636e-09
5.20929e-08
1.59003e-09
5.15795e-08
1.56449e-09
5.10669e-08
1.53967e-09
5.05554e-08
1.5155e-09
5.00452e-08
1.49193e-09
4.95363e-08
1.46892e-09
4.9029e-08
1.44643e-09
4.85234e-08
1.42445e-09
4.80196e-08
1.40294e-09
4.75178e-08
1.38189e-09
4.70181e-08
1.36128e-09
4.65207e-08
1.34109e-09
4.60256e-08
1.32132e-09
4.5533e-08
1.30194e-09
4.50429e-08
1.28295e-09
4.45556e-08
1.26434e-09
4.40711e-08
1.24609e-09
4.35895e-08
1.2282e-09
4.31109e-08
1.21065e-09
4.26355e-08
1.19342e-09
4.21631e-08
1.17652e-09
4.16941e-08
1.15993e-09
4.12283e-08
1.14364e-09
4.0766e-08
1.12764e-09
4.03071e-08
1.11193e-09
3.98517e-08
1.09649e-09
3.93999e-08
1.08131e-09
3.89517e-08
1.0664e-09
3.85072e-08
1.05174e-09
3.80663e-08
1.03732e-09
3.76292e-08
1.02315e-09
3.71959e-08
1.00922e-09
3.67663e-08
9.9553e-10
3.63406e-08
9.82072e-10
3.59186e-08
9.68847e-10
3.55005e-08
9.55858e-10
3.50862e-08
9.43105e-10
3.46758e-08
9.30593e-10
3.42691e-08
9.18328e-10
3.38662e-08
9.06317e-10
3.34671e-08
8.94574e-10
3.30718e-08
8.83115e-10
3.26801e-08
8.71965e-10
3.2292e-08
8.61159e-10
3.19075e-08
8.50751e-10
3.15263e-08
8.40828e-10
3.11485e-08
8.31535e-10
3.07736e-08
8.23147e-10
3.04014e-08
8.16234e-10
3.0031e-08
8.12138e-10
2.96611e-08
8.14541e-10
2.92933e-08
8.33684e-10
8.8156e-10
7.364e-08
2.23435e-09
-7.36992e-08
7.36093e-08
2.41324e-09
7.3591e-08
2.5707e-09
7.35768e-08
2.70719e-09
7.35635e-08
2.82654e-09
7.3549e-08
2.93134e-09
7.35313e-08
3.02275e-09
7.35087e-08
3.10153e-09
7.34798e-08
3.16842e-09
7.34433e-08
3.22401e-09
7.33978e-08
3.26868e-09
7.3342e-08
3.30267e-09
7.32745e-08
3.32621e-09
7.31942e-08
3.33952e-09
7.30997e-08
3.34288e-09
7.29901e-08
3.33667e-09
7.28644e-08
3.32135e-09
7.27219e-08
3.2975e-09
7.25622e-08
3.26584e-09
7.23849e-08
3.22716e-09
7.219e-08
3.18237e-09
7.19777e-08
3.13244e-09
7.17484e-08
3.07838e-09
7.15028e-08
3.02122e-09
7.12414e-08
2.96194e-09
7.09653e-08
2.90151e-09
7.06753e-08
2.8408e-09
7.03724e-08
2.78058e-09
7.00577e-08
2.72152e-09
6.97321e-08
2.66417e-09
6.93965e-08
2.60894e-09
6.90519e-08
2.55615e-09
6.8699e-08
2.50599e-09
6.83386e-08
2.45855e-09
6.79713e-08
2.41384e-09
6.75978e-08
2.3718e-09
6.72183e-08
2.33232e-09
6.68335e-08
2.29525e-09
6.64436e-08
2.26041e-09
6.60488e-08
2.22761e-09
6.56496e-08
2.19664e-09
6.52459e-08
2.16732e-09
6.48381e-08
2.13946e-09
6.44263e-08
2.11289e-09
6.40106e-08
2.08745e-09
6.35912e-08
2.063e-09
6.31682e-08
2.03942e-09
6.27416e-08
2.01661e-09
6.23116e-08
1.99446e-09
6.18784e-08
1.97292e-09
6.14419e-08
1.95191e-09
6.10025e-08
1.93138e-09
6.05601e-08
1.91129e-09
6.01149e-08
1.8916e-09
5.96671e-08
1.87229e-09
5.92167e-08
1.85332e-09
5.87639e-08
1.83467e-09
5.83089e-08
1.81633e-09
5.78517e-08
1.79829e-09
5.73925e-08
1.78051e-09
5.69314e-08
1.763e-09
5.64686e-08
1.74575e-09
5.60042e-08
1.72873e-09
5.55384e-08
1.71193e-09
5.50712e-08
1.69535e-09
5.46029e-08
1.67898e-09
5.41335e-08
1.6628e-09
5.36632e-08
1.64681e-09
5.31922e-08
1.63099e-09
5.27205e-08
1.61534e-09
5.22483e-08
1.59985e-09
5.17757e-08
1.58451e-09
5.13029e-08
1.56931e-09
5.08299e-08
1.55425e-09
5.0357e-08
1.53932e-09
4.98842e-08
1.52453e-09
4.94117e-08
1.50985e-09
4.89395e-08
1.49531e-09
4.84679e-08
1.48088e-09
4.79968e-08
1.46658e-09
4.75265e-08
1.4524e-09
4.7057e-08
1.43835e-09
4.65884e-08
1.42443e-09
4.61209e-08
1.41065e-09
4.56545e-08
1.39702e-09
4.51892e-08
1.38355e-09
4.47253e-08
1.37026e-09
4.42627e-08
1.35716e-09
4.38015e-08
1.34429e-09
4.33418e-08
1.33168e-09
4.28836e-08
1.31937e-09
4.24269e-08
1.30745e-09
4.19717e-08
1.29603e-09
4.1518e-08
1.28529e-09
4.10656e-08
1.27555e-09
4.06143e-08
1.26746e-09
4.01641e-08
1.26237e-09
3.97154e-08
1.2632e-09
3.92742e-08
1.27494e-09
1.29278e-09
7.97303e-08
2.3197e-09
-7.98156e-08
7.96695e-08
2.474e-09
7.96239e-08
2.6163e-09
7.95866e-08
2.74456e-09
7.95536e-08
2.85953e-09
7.95226e-08
2.96233e-09
7.94917e-08
3.05362e-09
7.94594e-08
3.13381e-09
7.94245e-08
3.20332e-09
7.9386e-08
3.26254e-09
7.93429e-08
3.31177e-09
7.92943e-08
3.35128e-09
7.92392e-08
3.38127e-09
7.91768e-08
3.40199e-09
7.91059e-08
3.4137e-09
7.90259e-08
3.41675e-09
7.89357e-08
3.41155e-09
7.88346e-08
3.39858e-09
7.8722e-08
3.37844e-09
7.85973e-08
3.35181e-09
7.84603e-08
3.31942e-09
7.83106e-08
3.28209e-09
7.81484e-08
3.24066e-09
7.79736e-08
3.19599e-09
7.77866e-08
3.14894e-09
7.75878e-08
3.10033e-09
7.73777e-08
3.05094e-09
7.71568e-08
3.00146e-09
7.69258e-08
2.95251e-09
7.66853e-08
2.90462e-09
7.64361e-08
2.8582e-09
7.61786e-08
2.81359e-09
7.59136e-08
2.77101e-09
7.56416e-08
2.73061e-09
7.53629e-08
2.69246e-09
7.50782e-08
2.65655e-09
7.47877e-08
2.62285e-09
7.44917e-08
2.59125e-09
7.41905e-08
2.56163e-09
7.38842e-08
2.53386e-09
7.35731e-08
2.50777e-09
7.32572e-08
2.48322e-09
7.29366e-08
2.46005e-09
7.26114e-08
2.4381e-09
7.22816e-08
2.41725e-09
7.19472e-08
2.39737e-09
7.16083e-08
2.37833e-09
7.12649e-08
2.36005e-09
7.09169e-08
2.34243e-09
7.05644e-08
2.3254e-09
7.02074e-08
2.30889e-09
6.9846e-08
2.29285e-09
6.948e-08
2.27722e-09
6.91097e-08
2.26197e-09
6.87349e-08
2.24707e-09
6.83557e-08
2.23247e-09
6.79722e-08
2.21816e-09
6.75845e-08
2.20411e-09
6.71924e-08
2.19031e-09
6.67962e-08
2.17672e-09
6.63959e-08
2.16334e-09
6.59915e-08
2.15015e-09
6.55831e-08
2.13713e-09
6.51707e-08
2.12427e-09
6.47545e-08
2.11156e-09
6.43345e-08
2.09897e-09
6.39109e-08
2.0865e-09
6.34835e-08
2.07412e-09
6.30527e-08
2.06184e-09
6.26184e-08
2.04964e-09
6.21807e-08
2.03751e-09
6.17398e-08
2.02543e-09
6.12957e-08
2.0134e-09
6.08485e-08
2.00141e-09
6.03984e-08
1.98945e-09
5.99454e-08
1.97752e-09
5.94897e-08
1.96561e-09
5.90312e-08
1.95372e-09
5.85703e-08
1.94184e-09
5.81069e-08
1.92998e-09
5.76411e-08
1.91814e-09
5.71732e-08
1.90631e-09
5.67031e-08
1.89451e-09
5.6231e-08
1.88274e-09
5.5757e-08
1.87101e-09
5.52812e-08
1.85934e-09
5.48038e-08
1.84774e-09
5.43247e-08
1.83625e-09
5.38441e-08
1.82488e-09
5.33621e-08
1.81369e-09
5.28787e-08
1.80274e-09
5.2394e-08
1.7921e-09
5.19082e-08
1.78191e-09
5.14211e-08
1.77235e-09
5.09329e-08
1.76377e-09
5.04436e-08
1.75671e-09
4.99538e-08
1.75217e-09
4.94654e-08
1.7516e-09
4.89852e-08
1.75522e-09
1.75015e-09
8.6305e-08
2.42593e-09
-8.64112e-08
8.62187e-08
2.56033e-09
8.6147e-08
2.688e-09
8.60849e-08
2.80662e-09
8.6029e-08
2.9155e-09
8.59766e-08
3.01464e-09
8.59261e-08
3.10416e-09
8.58758e-08
3.18414e-09
8.58244e-08
3.25472e-09
8.57709e-08
3.31606e-09
8.57143e-08
3.36836e-09
8.56538e-08
3.41178e-09
8.55885e-08
3.44652e-09
8.55177e-08
3.47278e-09
8.54406e-08
3.49079e-09
8.53565e-08
3.50086e-09
8.52647e-08
3.50335e-09
8.51646e-08
3.49869e-09
8.50557e-08
3.48738e-09
8.49375e-08
3.47e-09
8.48097e-08
3.44718e-09
8.46722e-08
3.4196e-09
8.45249e-08
3.38799e-09
8.43678e-08
3.35309e-09
8.42011e-08
3.31564e-09
8.4025e-08
3.27635e-09
8.38401e-08
3.23592e-09
8.36466e-08
3.19496e-09
8.3445e-08
3.15405e-09
8.3236e-08
3.11368e-09
8.30199e-08
3.07427e-09
8.27973e-08
3.03615e-09
8.25688e-08
2.99957e-09
8.23347e-08
2.96473e-09
8.20954e-08
2.93172e-09
8.18513e-08
2.9006e-09
8.16028e-08
2.87138e-09
8.13501e-08
2.84401e-09
8.10933e-08
2.81843e-09
8.08326e-08
2.79455e-09
8.05681e-08
2.77225e-09
8.02999e-08
2.75142e-09
8.0028e-08
2.73193e-09
7.97524e-08
2.71367e-09
7.94732e-08
2.69652e-09
7.91902e-08
2.68036e-09
7.89034e-08
2.66511e-09
7.86128e-08
2.65066e-09
7.83183e-08
2.63694e-09
7.80198e-08
2.62387e-09
7.77173e-08
2.61139e-09
7.74107e-08
2.59944e-09
7.71e-08
2.58797e-09
7.6785e-08
2.57694e-09
7.64658e-08
2.5663e-09
7.61422e-08
2.55603e-09
7.58143e-08
2.54609e-09
7.54819e-08
2.53646e-09
7.51451e-08
2.52712e-09
7.48038e-08
2.51802e-09
7.4458e-08
2.50917e-09
7.41076e-08
2.50053e-09
7.37527e-08
2.49208e-09
7.33931e-08
2.48381e-09
7.3029e-08
2.4757e-09
7.26602e-08
2.46772e-09
7.22869e-08
2.45987e-09
7.19089e-08
2.45212e-09
7.15263e-08
2.44445e-09
7.1139e-08
2.43686e-09
7.07472e-08
2.42933e-09
7.03508e-08
2.42184e-09
6.99498e-08
2.41438e-09
6.95443e-08
2.40693e-09
6.91343e-08
2.39949e-09
6.87197e-08
2.39205e-09
6.83008e-08
2.3846e-09
6.78774e-08
2.37712e-09
6.74496e-08
2.36963e-09
6.70175e-08
2.3621e-09
6.65811e-08
2.35454e-09
6.61404e-08
2.34695e-09
6.56956e-08
2.33933e-09
6.52466e-08
2.33169e-09
6.47936e-08
2.32404e-09
6.43366e-08
2.31638e-09
6.38756e-08
2.30874e-09
6.34107e-08
2.30115e-09
6.29419e-08
2.29363e-09
6.24694e-08
2.28622e-09
6.19931e-08
2.279e-09
6.15132e-08
2.27203e-09
6.10296e-08
2.26545e-09
6.05426e-08
2.25943e-09
6.00521e-08
2.25424e-09
5.95586e-08
2.25023e-09
5.90629e-08
2.24785e-09
5.85674e-08
2.24714e-09
5.80769e-08
2.24568e-09
2.23058e-09
9.34025e-08
2.55093e-09
-9.35275e-08
9.32933e-08
2.66953e-09
9.3197e-08
2.78429e-09
9.31104e-08
2.89325e-09
9.30306e-08
2.99529e-09
9.29554e-08
3.08983e-09
9.2883e-08
3.17657e-09
9.28118e-08
3.25534e-09
9.27405e-08
3.32604e-09
9.26679e-08
3.38865e-09
9.2593e-08
3.44322e-09
9.2515e-08
3.48981e-09
9.2433e-08
3.52855e-09
9.23462e-08
3.55955e-09
9.22539e-08
3.58303e-09
9.21556e-08
3.59922e-09
9.20505e-08
3.60842e-09
9.19382e-08
3.611e-09
9.18182e-08
3.60737e-09
9.16902e-08
3.59802e-09
9.15539e-08
3.58349e-09
9.14091e-08
3.56436e-09
9.12559e-08
3.54125e-09
9.10942e-08
3.51478e-09
9.09242e-08
3.48561e-09
9.07462e-08
3.45435e-09
9.05605e-08
3.42161e-09
9.03675e-08
3.38796e-09
9.01677e-08
3.35392e-09
8.99614e-08
3.31995e-09
8.97492e-08
3.28646e-09
8.95316e-08
3.25379e-09
8.93089e-08
3.22219e-09
8.90818e-08
3.19189e-09
8.88505e-08
3.16303e-09
8.86153e-08
3.13571e-09
8.83767e-08
3.10998e-09
8.81349e-08
3.08585e-09
8.789e-08
3.0633e-09
8.76423e-08
3.04228e-09
8.73918e-08
3.02272e-09
8.71387e-08
3.00455e-09
8.68829e-08
2.98768e-09
8.66246e-08
2.97203e-09
8.63636e-08
2.95749e-09
8.61e-08
2.94398e-09
8.58337e-08
2.93142e-09
8.55646e-08
2.91974e-09
8.52927e-08
2.90885e-09
8.50179e-08
2.8987e-09
8.47401e-08
2.88922e-09
8.44591e-08
2.88036e-09
8.4175e-08
2.87207e-09
8.38876e-08
2.86432e-09
8.35969e-08
2.85705e-09
8.33027e-08
2.85024e-09
8.30049e-08
2.84386e-09
8.27035e-08
2.83787e-09
8.23984e-08
2.83225e-09
8.20894e-08
2.82697e-09
8.17766e-08
2.82201e-09
8.14598e-08
2.81734e-09
8.11389e-08
2.81294e-09
8.08139e-08
2.8088e-09
8.04847e-08
2.80488e-09
8.01513e-08
2.80118e-09
7.98135e-08
2.79766e-09
7.94713e-08
2.79431e-09
7.91246e-08
2.79112e-09
7.87734e-08
2.78805e-09
7.84177e-08
2.7851e-09
7.80573e-08
2.78225e-09
7.76922e-08
2.77947e-09
7.73223e-08
2.77677e-09
7.69477e-08
2.77411e-09
7.65683e-08
2.7715e-09
7.6184e-08
2.76891e-09
7.57947e-08
2.76634e-09
7.54006e-08
2.76377e-09
7.50015e-08
2.76121e-09
7.45974e-08
2.75864e-09
7.41883e-08
2.75606e-09
7.37741e-08
2.75348e-09
7.33549e-08
2.75089e-09
7.29307e-08
2.7483e-09
7.25013e-08
2.74573e-09
7.20669e-08
2.74318e-09
7.16274e-08
2.74068e-09
7.11827e-08
2.73826e-09
7.0733e-08
2.73595e-09
7.02782e-08
2.73383e-09
6.98183e-08
2.73195e-09
6.93533e-08
2.73042e-09
6.88834e-08
2.72937e-09
6.84086e-08
2.72896e-09
6.79296e-08
2.72931e-09
6.74471e-08
2.73035e-09
6.69629e-08
2.7313e-09
6.64792e-08
2.72935e-09
2.71652e-09
1.01065e-07
2.6941e-09
-1.01208e-07
1.00934e-07
2.80024e-09
1.00814e-07
2.90412e-09
1.00703e-07
3.00425e-09
1.00599e-07
3.09951e-09
1.005e-07
3.18913e-09
1.00404e-07
3.2726e-09
1.00309e-07
3.34954e-09
1.00216e-07
3.41971e-09
1.00122e-07
3.48294e-09
1.00026e-07
3.53914e-09
9.99271e-08
3.58829e-09
9.98253e-08
3.63041e-09
9.97192e-08
3.66558e-09
9.96083e-08
3.69393e-09
9.94919e-08
3.71562e-09
9.93695e-08
3.7309e-09
9.92404e-08
3.74005e-09
9.91043e-08
3.74343e-09
9.89609e-08
3.74143e-09
9.88099e-08
3.73449e-09
9.86512e-08
3.7231e-09
9.84847e-08
3.70778e-09
9.83104e-08
3.68906e-09
9.81285e-08
3.66751e-09
9.79392e-08
3.64365e-09
9.77428e-08
3.61803e-09
9.75396e-08
3.59115e-09
9.733e-08
3.56349e-09
9.71145e-08
3.53546e-09
9.68935e-08
3.50747e-09
9.66674e-08
3.47984e-09
9.64368e-08
3.45285e-09
9.62019e-08
3.42673e-09
9.59633e-08
3.40166e-09
9.57212e-08
3.37777e-09
9.54761e-08
3.35514e-09
9.52281e-08
3.33384e-09
9.49775e-08
3.31387e-09
9.47246e-08
3.29525e-09
9.44693e-08
3.27793e-09
9.4212e-08
3.26189e-09
9.39526e-08
3.24706e-09
9.36913e-08
3.2334e-09
9.34279e-08
3.22083e-09
9.31626e-08
3.20929e-09
9.28953e-08
3.19873e-09
9.2626e-08
3.18907e-09
9.23546e-08
3.18025e-09
9.2081e-08
3.17224e-09
9.18053e-08
3.16496e-09
9.15273e-08
3.15837e-09
9.12469e-08
3.15244e-09
9.09641e-08
3.14712e-09
9.06788e-08
3.14238e-09
9.03908e-08
3.13818e-09
9.01002e-08
3.13449e-09
8.98068e-08
3.13129e-09
8.95105e-08
3.12855e-09
8.92112e-08
3.12623e-09
8.89089e-08
3.12433e-09
8.86034e-08
3.12281e-09
8.82947e-08
3.12165e-09
8.79827e-08
3.12083e-09
8.76672e-08
3.12033e-09
8.73483e-08
3.12013e-09
8.70257e-08
3.12022e-09
8.66995e-08
3.12056e-09
8.63695e-08
3.12113e-09
8.60356e-08
3.12194e-09
8.56977e-08
3.12294e-09
8.53559e-08
3.12413e-09
8.50099e-08
3.12548e-09
8.46596e-08
3.12699e-09
8.43051e-08
3.12864e-09
8.39462e-08
3.13041e-09
8.35828e-08
3.13229e-09
8.32149e-08
3.13427e-09
8.28423e-08
3.13633e-09
8.2465e-08
3.13848e-09
8.2083e-08
3.1407e-09
8.1696e-08
3.14299e-09
8.13042e-08
3.14535e-09
8.09073e-08
3.14777e-09
8.05053e-08
3.15027e-09
8.00982e-08
3.15284e-09
7.96859e-08
3.15551e-09
7.92683e-08
3.15829e-09
7.88453e-08
3.16121e-09
7.8417e-08
3.16431e-09
7.79832e-08
3.16762e-09
7.75439e-08
3.17121e-09
7.70992e-08
3.17514e-09
7.66491e-08
3.1795e-09
7.61937e-08
3.18432e-09
7.57334e-08
3.18955e-09
7.5269e-08
3.19484e-09
7.4801e-08
3.19922e-09
7.43296e-08
3.20077e-09
3.19677e-09
1.09337e-07
2.85571e-09
-1.09499e-07
1.09185e-07
2.95209e-09
1.09042e-07
3.0471e-09
1.08907e-07
3.13964e-09
1.08778e-07
3.22875e-09
1.08653e-07
3.31366e-09
1.08532e-07
3.39376e-09
1.08413e-07
3.4686e-09
1.08295e-07
3.53784e-09
1.08177e-07
3.60122e-09
1.08057e-07
3.65855e-09
1.07936e-07
3.70973e-09
1.07812e-07
3.7547e-09
1.07684e-07
3.79348e-09
1.07551e-07
3.82613e-09
1.07414e-07
3.85275e-09
1.07272e-07
3.87352e-09
1.07123e-07
3.88865e-09
1.06968e-07
3.89843e-09
1.06806e-07
3.90316e-09
1.06638e-07
3.9032e-09
1.06462e-07
3.89897e-09
1.06279e-07
3.89089e-09
1.06088e-07
3.87941e-09
1.05891e-07
3.865e-09
1.05686e-07
3.84812e-09
1.05475e-07
3.82925e-09
1.05258e-07
3.80882e-09
1.05034e-07
3.78727e-09
1.04804e-07
3.765e-09
1.04569e-07
3.74236e-09
1.04329e-07
3.71967e-09
1.04085e-07
3.69722e-09
1.03837e-07
3.67525e-09
1.03584e-07
3.65394e-09
1.03329e-07
3.63347e-09
1.0307e-07
3.61394e-09
1.02808e-07
3.59545e-09
1.02544e-07
3.57805e-09
1.02277e-07
3.56178e-09
1.02009e-07
3.54664e-09
1.01738e-07
3.53263e-09
1.01465e-07
3.51972e-09
1.01191e-07
3.5079e-09
1.00915e-07
3.49712e-09
1.00637e-07
3.48733e-09
1.00357e-07
3.4785e-09
1.00075e-07
3.47058e-09
9.9792e-08
3.46353e-09
9.95069e-08
3.4573e-09
9.922e-08
3.45185e-09
9.89313e-08
3.44714e-09
9.86406e-08
3.44313e-09
9.83479e-08
3.4398e-09
9.80532e-08
3.4371e-09
9.77564e-08
3.43501e-09
9.74574e-08
3.43349e-09
9.71561e-08
3.43253e-09
9.68526e-08
3.4321e-09
9.65466e-08
3.43217e-09
9.62382e-08
3.43272e-09
9.59273e-08
3.43373e-09
9.56138e-08
3.43518e-09
9.52976e-08
3.43705e-09
9.49786e-08
3.43931e-09
9.46568e-08
3.44195e-09
9.4332e-08
3.44495e-09
9.40043e-08
3.44829e-09
9.36735e-08
3.45195e-09
9.33395e-08
3.45592e-09
9.30023e-08
3.46017e-09
9.26617e-08
3.46469e-09
9.23177e-08
3.46947e-09
9.19702e-08
3.47449e-09
9.16191e-08
3.47973e-09
9.12643e-08
3.48518e-09
9.09058e-08
3.49083e-09
9.05434e-08
3.49667e-09
9.0177e-08
3.50269e-09
8.98066e-08
3.50888e-09
8.94321e-08
3.51523e-09
8.90533e-08
3.52174e-09
8.86703e-08
3.52841e-09
8.82828e-08
3.53523e-09
8.78909e-08
3.54222e-09
8.74943e-08
3.54937e-09
8.70931e-08
3.55671e-09
8.66872e-08
3.56424e-09
8.62764e-08
3.57198e-09
8.58608e-08
3.57997e-09
8.54401e-08
3.58824e-09
8.50145e-08
3.59683e-09
8.45839e-08
3.60577e-09
8.41483e-08
3.6151e-09
8.37078e-08
3.62478e-09
8.32627e-08
3.6347e-09
8.2813e-08
3.6445e-09
8.23588e-08
3.65346e-09
8.1899e-08
3.66054e-09
3.66514e-09
6.85646e-08
2.72288e-09
-6.84317e-08
6.87039e-08
2.81272e-09
6.88496e-08
2.90144e-09
6.90011e-08
2.98814e-09
6.91579e-08
3.07198e-09
6.93193e-08
3.15222e-09
6.94848e-08
3.22829e-09
6.96537e-08
3.29972e-09
6.98254e-08
3.36614e-09
6.99993e-08
3.42726e-09
7.0175e-08
3.48289e-09
7.03518e-08
3.53286e-09
7.05294e-08
3.57711e-09
7.07073e-08
3.61561e-09
7.08851e-08
3.64838e-09
7.10623e-08
3.67551e-09
7.12387e-08
3.69714e-09
7.14139e-08
3.71345e-09
7.15876e-08
3.72467e-09
7.17597e-08
3.73108e-09
7.19299e-08
3.733e-09
7.20981e-08
3.73077e-09
7.22642e-08
3.72478e-09
7.24282e-08
3.71543e-09
7.259e-08
3.70315e-09
7.27498e-08
3.68835e-09
7.29076e-08
3.67145e-09
7.30636e-08
3.65287e-09
7.32178e-08
3.63299e-09
7.33706e-08
3.6122e-09
7.35222e-08
3.59082e-09
7.36727e-08
3.56918e-09
7.38224e-08
3.54753e-09
7.39715e-08
3.52613e-09
7.41202e-08
3.50517e-09
7.42689e-08
3.48481e-09
7.44176e-08
3.4652e-09
7.45667e-08
3.44643e-09
7.47161e-08
3.42857e-09
7.48662e-08
3.41168e-09
7.50171e-08
3.39579e-09
7.51688e-08
3.38091e-09
7.53215e-08
3.36704e-09
7.54752e-08
3.35416e-09
7.56301e-08
3.34225e-09
7.57861e-08
3.33129e-09
7.59434e-08
3.32124e-09
7.61019e-08
3.31208e-09
7.62617e-08
3.30375e-09
7.64227e-08
3.29624e-09
7.65851e-08
3.2895e-09
7.67487e-08
3.2835e-09
7.69137e-08
3.27821e-09
7.70799e-08
3.27359e-09
7.72473e-08
3.26963e-09
7.7416e-08
3.26629e-09
7.7586e-08
3.26354e-09
7.77572e-08
3.26137e-09
7.79295e-08
3.25974e-09
7.81031e-08
3.25864e-09
7.82777e-08
3.25805e-09
7.84535e-08
3.25794e-09
7.86304e-08
3.2583e-09
7.88084e-08
3.2591e-09
7.89873e-08
3.26033e-09
7.91673e-08
3.26198e-09
7.93482e-08
3.26402e-09
7.95301e-08
3.26644e-09
7.97128e-08
3.26922e-09
7.98964e-08
3.27235e-09
8.00808e-08
3.27581e-09
8.02659e-08
3.2796e-09
8.04516e-08
3.28369e-09
8.06381e-08
3.28807e-09
8.08251e-08
3.29274e-09
8.10126e-08
3.29768e-09
8.12005e-08
3.30288e-09
8.13888e-08
3.30834e-09
8.15775e-08
3.31406e-09
8.17663e-08
3.32002e-09
8.19553e-08
3.32623e-09
8.21444e-08
3.33268e-09
8.23334e-08
3.33938e-09
8.25223e-08
3.34633e-09
8.2711e-08
3.35355e-09
8.28993e-08
3.36104e-09
8.30872e-08
3.36881e-09
8.32746e-08
3.3769e-09
8.34613e-08
3.38531e-09
8.36471e-08
3.39409e-09
8.38321e-08
3.40325e-09
8.40161e-08
3.41284e-09
8.4199e-08
3.42286e-09
8.43808e-08
3.43333e-09
8.45614e-08
3.44419e-09
8.47408e-08
3.45532e-09
8.49188e-08
3.46646e-09
8.50951e-08
3.47717e-09
8.52689e-08
3.48675e-09
3.49425e-09
7.57719e-08
2.57771e-09
-7.56268e-08
7.59232e-08
2.66147e-09
7.60803e-08
2.74431e-09
7.6243e-08
2.82546e-09
7.64108e-08
2.90421e-09
7.65831e-08
2.97988e-09
7.67595e-08
3.05193e-09
7.69393e-08
3.1199e-09
7.7122e-08
3.1834e-09
7.73071e-08
3.24215e-09
7.74941e-08
3.2959e-09
7.76825e-08
3.34449e-09
7.78718e-08
3.3878e-09
7.80616e-08
3.4258e-09
7.82515e-08
3.45847e-09
7.84411e-08
3.48588e-09
7.86302e-08
3.50812e-09
7.88183e-08
3.52534e-09
7.90052e-08
3.53773e-09
7.91908e-08
3.54554e-09
7.93747e-08
3.54904e-09
7.9557e-08
3.54853e-09
7.97374e-08
3.54435e-09
7.9916e-08
3.53686e-09
8.00927e-08
3.52644e-09
8.02676e-08
3.51345e-09
8.04407e-08
3.49829e-09
8.06123e-08
3.48132e-09
8.07824e-08
3.46291e-09
8.09512e-08
3.4434e-09
8.11189e-08
3.42312e-09
8.12857e-08
3.40236e-09
8.14519e-08
3.38138e-09
8.16176e-08
3.36042e-09
8.17831e-08
3.33968e-09
8.19485e-08
3.31934e-09
8.21142e-08
3.29953e-09
8.22802e-08
3.28038e-09
8.24468e-08
3.26198e-09
8.26141e-08
3.24438e-09
8.27823e-08
3.22764e-09
8.29514e-08
3.21179e-09
8.31216e-08
3.19684e-09
8.3293e-08
3.18279e-09
8.34656e-08
3.16963e-09
8.36395e-08
3.15736e-09
8.38148e-08
3.14595e-09
8.39915e-08
3.13538e-09
8.41697e-08
3.12562e-09
8.43493e-08
3.11665e-09
8.45303e-08
3.10844e-09
8.47129e-08
3.10095e-09
8.48969e-08
3.09417e-09
8.50824e-08
3.08806e-09
8.52695e-08
3.0826e-09
8.5458e-08
3.07776e-09
8.5648e-08
3.07352e-09
8.58395e-08
3.06986e-09
8.60325e-08
3.06676e-09
8.62269e-08
3.06419e-09
8.64229e-08
3.06214e-09
8.66202e-08
3.06058e-09
8.6819e-08
3.05951e-09
8.70192e-08
3.05889e-09
8.72208e-08
3.05871e-09
8.74238e-08
3.05897e-09
8.76282e-08
3.05963e-09
8.7834e-08
3.06069e-09
8.80411e-08
3.06213e-09
8.82495e-08
3.06395e-09
8.84592e-08
3.06612e-09
8.86701e-08
3.06863e-09
8.88823e-08
3.07148e-09
8.90958e-08
3.07465e-09
8.93104e-08
3.07814e-09
8.95261e-08
3.08193e-09
8.9743e-08
3.08603e-09
8.99609e-08
3.09042e-09
9.01798e-08
3.09511e-09
9.03998e-08
3.10009e-09
9.06206e-08
3.10536e-09
9.08424e-08
3.11093e-09
9.1065e-08
3.1168e-09
9.12883e-08
3.12299e-09
9.15124e-08
3.1295e-09
9.1737e-08
3.13635e-09
9.19623e-08
3.14355e-09
9.21881e-08
3.15114e-09
9.24142e-08
3.15913e-09
9.26408e-08
3.16756e-09
9.28676e-08
3.17644e-09
9.30946e-08
3.18582e-09
9.33218e-08
3.1957e-09
9.3549e-08
3.20609e-09
9.37762e-08
3.21696e-09
9.40033e-08
3.22822e-09
9.42301e-08
3.2397e-09
9.44561e-08
3.25113e-09
9.4681e-08
3.2619e-09
3.27151e-09
8.37336e-08
2.41937e-09
-8.35753e-08
8.38976e-08
2.49746e-09
8.40672e-08
2.57477e-09
8.42419e-08
2.65067e-09
8.44216e-08
2.72452e-09
8.46058e-08
2.79573e-09
8.47939e-08
2.86379e-09
8.49856e-08
2.92826e-09
8.51802e-08
2.98878e-09
8.53773e-08
3.04502e-09
8.55765e-08
3.09674e-09
8.57772e-08
3.14376e-09
8.59791e-08
3.18595e-09
8.61816e-08
3.22323e-09
8.63845e-08
3.25556e-09
8.65874e-08
3.28298e-09
8.679e-08
3.30556e-09
8.69919e-08
3.32341e-09
8.7193e-08
3.33669e-09
8.73929e-08
3.3456e-09
8.75916e-08
3.35037e-09
8.77888e-08
3.35127e-09
8.79846e-08
3.34859e-09
8.81788e-08
3.34265e-09