/*--------------------------------*- C++ -*----------------------------------*\
| =========                 |                                                 |
| \\      /  F ield         | OpenFOAM: The Open Source CFD Toolbox           |
|  \\    /   O peration     | Version:  2.3.0                                 |
|   \\  /    A nd           | Web:      www.OpenFOAM.org                      |
|    \\/     M anipulation  |                                                 |
\*---------------------------------------------------------------------------*/
FoamFile
{
    version     2.0;
    format      ascii;
    class       volVectorField;
    location    "0.95";
    object      U;
}
// * * * * * * * * * * * * * * * * * * * * * * * * * * * * * * * * * * * * * //

dimensions      [0 1 -1 0 0 0 0];

internalField   nonuniform List<vector> 
2250
(
(0.184647 0.00407599 1.19028e-06)
(0.177451 0.0044464 3.07454e-06)
(0.170047 0.00453788 4.40544e-06)
(0.162473 0.00449587 5.46514e-06)
(0.154921 0.00438511 6.3068e-06)
(0.14749 0.00422995 6.87441e-06)
(0.140209 0.00404442 7.14497e-06)
(0.133095 0.00383931 7.12533e-06)
(0.126166 0.00362229 6.81957e-06)
(0.119442 0.00339841 6.22421e-06)
(0.112941 0.0031711 5.33694e-06)
(0.10668 0.0029429 4.16206e-06)
(0.100673 0.00271584 2.71119e-06)
(0.0949331 0.0024916 1.00299e-06)
(0.0894706 0.00227171 -9.36844e-07)
(0.0842951 0.0020576 -3.07559e-06)
(0.0794137 0.0018506 -5.37401e-06)
(0.0748311 0.00165202 -7.78744e-06)
(0.0705493 0.00146308 -1.02673e-05)
(0.0665677 0.0012849 -1.27632e-05)
(0.0628828 0.00111845 -1.52245e-05)
(0.0594885 0.000964528 -1.76032e-05)
(0.056376 0.000823687 -1.98556e-05)
(0.0535341 0.000696239 -2.19438e-05)
(0.0509495 0.000582228 -2.38379e-05)
(0.048607 0.000481442 -2.55159e-05)
(0.0464902 0.000393425 -2.69647e-05)
(0.0445816 0.000317518 -2.81795e-05)
(0.0428634 0.000252896 -2.91635e-05)
(0.0413174 0.000198618 -2.99261e-05)
(0.0399261 0.000153673 -3.04825e-05)
(0.0386723 0.000117023 -3.08516e-05)
(0.0375399 8.76366e-05 -3.10548e-05)
(0.0365138 6.45143e-05 -3.11148e-05)
(0.0355803 4.67133e-05 -3.10543e-05)
(0.034727 3.33591e-05 -3.08951e-05)
(0.0339427 2.36558e-05 -3.06573e-05)
(0.0332179 1.6892e-05 -3.03591e-05)
(0.0325441 1.24426e-05 -3.00164e-05)
(0.0319142 9.76873e-06 -2.96425e-05)
(0.0313221 8.41462e-06 -2.92486e-05)
(0.0307628 8.0027e-06 -2.88434e-05)
(0.0302319 8.22704e-06 -2.84338e-05)
(0.0297262 8.84612e-06 -2.80249e-05)
(0.0292427 9.67997e-06 -2.76202e-05)
(0.0287793 1.05966e-05 -2.72223e-05)
(0.0283339 1.15019e-05 -2.68325e-05)
(0.0279052 1.23317e-05 -2.64516e-05)
(0.0274919 1.30459e-05 -2.60799e-05)
(0.027093 1.36229e-05 -2.57172e-05)
(0.0267077 1.40545e-05 -2.53631e-05)
(0.0263351 1.43421e-05 -2.50173e-05)
(0.0259749 1.44938e-05 -2.46794e-05)
(0.0256262 1.45215e-05 -2.43488e-05)
(0.0252888 1.44394e-05 -2.40252e-05)
(0.024962 1.42622e-05 -2.37085e-05)
(0.0246456 1.40047e-05 -2.33984e-05)
(0.024339 1.36806e-05 -2.30949e-05)
(0.0240419 1.33026e-05 -2.27979e-05)
(0.023754 1.28819e-05 -2.25075e-05)
(0.0234748 1.24282e-05 -2.22238e-05)
(0.023204 1.19498e-05 -2.1947e-05)
(0.0229414 1.14539e-05 -2.1677e-05)
(0.0226865 1.09461e-05 -2.14141e-05)
(0.0224391 1.04314e-05 -2.11583e-05)
(0.0221989 9.91339e-06 -2.09095e-05)
(0.0219657 9.39529e-06 -2.06677e-05)
(0.0217391 8.87949e-06 -2.04328e-05)
(0.021519 8.36785e-06 -2.02046e-05)
(0.0213052 7.86179e-06 -1.99826e-05)
(0.0210973 7.36237e-06 -1.97664e-05)
(0.0208953 6.87034e-06 -1.95555e-05)
(0.0206989 6.38626e-06 -1.93491e-05)
(0.020508 5.91049e-06 -1.91463e-05)
(0.0203223 5.44328e-06 -1.89461e-05)
(0.0201419 4.98476e-06 -1.87473e-05)
(0.0199664 4.535e-06 -1.85486e-05)
(0.0197958 4.09401e-06 -1.83482e-05)
(0.01963 3.66179e-06 -1.81445e-05)
(0.0194689 3.23833e-06 -1.79352e-05)
(0.0193122 2.82364e-06 -1.77183e-05)
(0.01916 2.41775e-06 -1.74909e-05)
(0.0190121 2.02073e-06 -1.72501e-05)
(0.0188684 1.63276e-06 -1.69927e-05)
(0.0187289 1.25408e-06 -1.67149e-05)
(0.0185934 8.85106e-07 -1.64124e-05)
(0.0184618 5.2637e-07 -1.60805e-05)
(0.0183341 1.78726e-07 -1.57139e-05)
(0.01821 -1.56604e-07 -1.53063e-05)
(0.0180896 -4.77919e-07 -1.4851e-05)
(0.0179727 -7.82526e-07 -1.43397e-05)
(0.017859 -1.06639e-06 -1.37633e-05)
(0.0177485 -1.32286e-06 -1.31109e-05)
(0.0176409 -1.54045e-06 -1.23692e-05)
(0.0175357 -1.69788e-06 -1.15219e-05)
(0.0174323 -1.75052e-06 -1.05477e-05)
(0.0173295 -1.58914e-06 -9.41703e-06)
(0.0172252 -1.18664e-06 -8.07767e-06)
(0.017126 -2.12313e-07 -6.42899e-06)
(0.0167998 5.75504e-05 -5.28635e-06)
(0.193866 0.00625479 8.2795e-07)
(0.193709 0.00684812 2.42219e-06)
(0.193065 0.00706702 3.78019e-06)
(0.191937 0.00712848 4.85081e-06)
(0.190426 0.00711767 5.66218e-06)
(0.188604 0.00705718 6.21519e-06)
(0.186508 0.00695727 6.50212e-06)
(0.184167 0.0068264 6.52704e-06)
(0.181609 0.00667038 6.298e-06)
(0.178865 0.00649257 5.81963e-06)
(0.175962 0.00629508 5.09524e-06)
(0.172928 0.00607969 4.13073e-06)
(0.169788 0.00584815 2.93637e-06)
(0.166565 0.00560231 1.52706e-06)
(0.163281 0.00534419 -7.74662e-08)
(0.15996 0.00507602 -1.85247e-06)
(0.156619 0.0048002 -3.76836e-06)
(0.153278 0.00451929 -5.79124e-06)
(0.149954 0.00423598 -7.88391e-06)
(0.146661 0.00395299 -1.00071e-05)
(0.143412 0.00367302 -1.21209e-05)
(0.14022 0.00339866 -1.41866e-05)
(0.137093 0.00313234 -1.61678e-05)
(0.13404 0.00287625 -1.80323e-05)
(0.131067 0.00263224 -1.97529e-05)
(0.128178 0.00240184 -2.13086e-05)
(0.125377 0.0021862 -2.26848e-05)
(0.122665 0.00198608 -2.38738e-05)
(0.120044 0.00180185 -2.48737e-05)
(0.117513 0.00163354 -2.56886e-05)
(0.115071 0.00148086 -2.63274e-05)
(0.112717 0.00134324 -2.68026e-05)
(0.110448 0.00121991 -2.71296e-05)
(0.108263 0.00110991 -2.73253e-05)
(0.106158 0.00101221 -2.74074e-05)
(0.104131 0.000925671 -2.73936e-05)
(0.102179 0.000849173 -2.73006e-05)
(0.100298 0.0007816 -2.71441e-05)
(0.0984852 0.000721889 -2.6938e-05)
(0.0967382 0.000669045 -2.66944e-05)
(0.0950538 0.000622159 -2.64239e-05)
(0.0934292 0.000580411 -2.61349e-05)
(0.0918615 0.000543078 -2.58343e-05)
(0.0903483 0.000509525 -2.55274e-05)
(0.0888869 0.0004792 -2.52183e-05)
(0.087475 0.000451631 -2.49098e-05)
(0.0861102 0.000426425 -2.4604e-05)
(0.0847904 0.000403256 -2.43021e-05)
(0.0835136 0.000381853 -2.4005e-05)
(0.0822778 0.000361995 -2.3713e-05)
(0.081081 0.0003435 -2.34262e-05)
(0.0799216 0.000326219 -2.31445e-05)
(0.0787978 0.00031003 -2.28678e-05)
(0.0777081 0.00029483 -2.2596e-05)
(0.076651 0.000280534 -2.23289e-05)
(0.075625 0.000267069 -2.20665e-05)
(0.0746288 0.000254372 -2.18086e-05)
(0.073661 0.000242387 -2.15554e-05)
(0.0727205 0.000231066 -2.13069e-05)
(0.071806 0.000220363 -2.10633e-05)
(0.0709165 0.000210236 -2.08247e-05)
(0.070051 0.000200649 -2.05912e-05)
(0.0692084 0.000191565 -2.03631e-05)
(0.0683877 0.00018295 -2.01405e-05)
(0.0675882 0.000174773 -1.99235e-05)
(0.066809 0.000167006 -1.97121e-05)
(0.0660492 0.000159619 -1.95064e-05)
(0.0653082 0.000152587 -1.93062e-05)
(0.0645852 0.000145886 -1.91113e-05)
(0.0638795 0.000139493 -1.89215e-05)
(0.0631906 0.000133386 -1.87364e-05)
(0.0625178 0.000127547 -1.85554e-05)
(0.0618606 0.000121957 -1.83778e-05)
(0.0612185 0.0001166 -1.8203e-05)
(0.0605909 0.000111459 -1.80298e-05)
(0.0599773 0.000106522 -1.78572e-05)
(0.0593774 0.000101774 -1.76838e-05)
(0.0587907 9.72041e-05 -1.75082e-05)
(0.0582168 9.28017e-05 -1.73285e-05)
(0.0576553 8.85568e-05 -1.71428e-05)
(0.0571059 8.44606e-05 -1.69489e-05)
(0.0565681 8.05049e-05 -1.67441e-05)
(0.0560417 7.66827e-05 -1.65256e-05)
(0.0555264 7.29876e-05 -1.62902e-05)
(0.0550217 6.94142e-05 -1.60342e-05)
(0.0545274 6.59578e-05 -1.57534e-05)
(0.0540432 6.26147e-05 -1.54432e-05)
(0.0535686 5.93825e-05 -1.50983e-05)
(0.0531036 5.62602e-05 -1.47127e-05)
(0.0526475 5.3249e-05 -1.42795e-05)
(0.0522002 5.03536e-05 -1.37909e-05)
(0.0517612 4.75842e-05 -1.32376e-05)
(0.0513299 4.49616e-05 -1.26091e-05)
(0.0509059 4.25269e-05 -1.18924e-05)
(0.0504884 4.03655e-05 -1.10718e-05)
(0.050076 3.86705e-05 -1.01272e-05)
(0.0496664 3.79208e-05 -9.03179e-06)
(0.0492551 3.95259e-05 -7.74007e-06)
(0.0488492 5.26062e-05 -6.22266e-06)
(0.0481383 0.000163643 -6.55842e-06)
(0.19497 0.00544214 6.59074e-07)
(0.195386 0.00604257 2.01138e-06)
(0.195769 0.00645352 3.22946e-06)
(0.196026 0.00676663 4.17735e-06)
(0.196147 0.00701862 4.87535e-06)
(0.196138 0.00721404 5.36157e-06)
(0.195994 0.0073541 5.63806e-06)
(0.195709 0.00744271 5.70035e-06)
(0.195281 0.00748408 5.55199e-06)
(0.194712 0.0074815 5.19899e-06)
(0.194004 0.00743774 4.64601e-06)
(0.193162 0.00735555 3.89789e-06)
(0.192191 0.00723783 2.96188e-06)
(0.191098 0.00708764 1.84845e-06)
(0.18989 0.00690827 5.71477e-07)
(0.188577 0.0067032 -8.51649e-07)
(0.187166 0.00647613 -2.40005e-06)
(0.185668 0.00623089 -4.04957e-06)
(0.184092 0.00597143 -5.77329e-06)
(0.182449 0.00570174 -7.54226e-06)
(0.180747 0.00542573 -9.32634e-06)
(0.178998 0.00514718 -1.10953e-05)
(0.177208 0.00486963 -1.282e-05)
(0.175389 0.00459629 -1.44731e-05)
(0.173546 0.00432996 -1.60304e-05)
(0.171688 0.00407303 -1.74716e-05)
(0.16982 0.00382737 -1.87807e-05)
(0.167949 0.00359438 -1.99466e-05)
(0.16608 0.003375 -2.09629e-05)
(0.164217 0.00316971 -2.18279e-05)
(0.162362 0.0029786 -2.25442e-05)
(0.16052 0.00280144 -2.31179e-05)
(0.158693 0.0026377 -2.35581e-05)
(0.156882 0.00248669 -2.38764e-05)
(0.155089 0.00234756 -2.40853e-05)
(0.153314 0.00221937 -2.41986e-05)
(0.15156 0.00210116 -2.42299e-05)
(0.149826 0.00199199 -2.41925e-05)
(0.148113 0.00189093 -2.40988e-05)
(0.14642 0.00179714 -2.39602e-05)
(0.144749 0.00170984 -2.37867e-05)
(0.1431 0.00162833 -2.3587e-05)
(0.141472 0.00155198 -2.33684e-05)
(0.139866 0.00148026 -2.31368e-05)
(0.138282 0.0014127 -2.28968e-05)
(0.136719 0.0013489 -2.2652e-05)
(0.135178 0.0012885 -2.24054e-05)
(0.133659 0.00123123 -2.21589e-05)
(0.132162 0.00117684 -2.1914e-05)
(0.130687 0.00112512 -2.16716e-05)
(0.129233 0.0010759 -2.14323e-05)
(0.127802 0.00102902 -2.11964e-05)
(0.126392 0.000984349 -2.09642e-05)
(0.125003 0.000941767 -2.07355e-05)
(0.123637 0.00090117 -2.05106e-05)
(0.122292 0.000862458 -2.02894e-05)
(0.120968 0.000825541 -2.0072e-05)
(0.119666 0.000790334 -1.98584e-05)
(0.118384 0.000756754 -1.96487e-05)
(0.117124 0.000724724 -1.94431e-05)
(0.115884 0.000694169 -1.92416e-05)
(0.114665 0.000665017 -1.90445e-05)
(0.113466 0.000637198 -1.88518e-05)
(0.112286 0.000610645 -1.86637e-05)
(0.111127 0.000585292 -1.84803e-05)
(0.109987 0.000561078 -1.83017e-05)
(0.108867 0.000537941 -1.81277e-05)
(0.107765 0.000515825 -1.79584e-05)
(0.106682 0.000494674 -1.77936e-05)
(0.105617 0.000474436 -1.76329e-05)
(0.104571 0.000455061 -1.74761e-05)
(0.103542 0.000436501 -1.73226e-05)
(0.10253 0.000418711 -1.71719e-05)
(0.101536 0.00040165 -1.70231e-05)
(0.100558 0.000385277 -1.68753e-05)
(0.0995976 0.000369554 -1.67275e-05)
(0.098653 0.000354447 -1.65785e-05)
(0.0977243 0.000339922 -1.64267e-05)
(0.0968113 0.000325948 -1.62705e-05)
(0.0959137 0.000312496 -1.6108e-05)
(0.0950311 0.00029954 -1.5937e-05)
(0.0941634 0.000287055 -1.57551e-05)
(0.0933101 0.000275017 -1.55595e-05)
(0.0924711 0.000263406 -1.5347e-05)
(0.091646 0.000252202 -1.51142e-05)
(0.0908344 0.000241388 -1.48569e-05)
(0.0900362 0.000230949 -1.45708e-05)
(0.0892509 0.000220873 -1.42506e-05)
(0.0884783 0.000211151 -1.38906e-05)
(0.0877179 0.000201779 -1.34842e-05)
(0.0869694 0.000192761 -1.30238e-05)
(0.0862322 0.000184114 -1.2501e-05)
(0.085506 0.000175876 -1.19058e-05)
(0.0847899 0.000168133 -1.12269e-05)
(0.0840832 0.000161071 -1.04519e-05)
(0.0833843 0.000155125 -9.5682e-06)
(0.0826908 0.00015142 -8.56934e-06)
(0.0819984 0.00015376 -7.49001e-06)
(0.0813104 0.000180717 -6.76301e-06)
(0.0803547 0.000300374 -9.61561e-06)
(0.195667 0.00518486 4.75853e-07)
(0.195999 0.0057712 1.46235e-06)
(0.196384 0.0062276 2.44198e-06)
(0.196758 0.00658682 3.29902e-06)
(0.197103 0.00687547 3.98947e-06)
(0.197416 0.00710527 4.51606e-06)
(0.197696 0.00728258 4.87221e-06)
(0.197936 0.00741326 5.04437e-06)
(0.198129 0.00750229 5.02793e-06)
(0.198268 0.00755316 4.82695e-06)
(0.19835 0.00756821 4.44802e-06)
(0.19837 0.00754918 3.89826e-06)
(0.198322 0.0074977 3.18608e-06)
(0.198206 0.00741543 2.32191e-06)
(0.198017 0.00730422 1.31822e-06)
(0.197755 0.00716621 1.89419e-07)
(0.197418 0.00700385 -1.04818e-06)
(0.197008 0.00681991 -2.37642e-06)
(0.196525 0.00661748 -3.77548e-06)
(0.195973 0.00639984 -5.22418e-06)
(0.195353 0.00617043 -6.70045e-06)
(0.194669 0.00593272 -8.1818e-06)
(0.193926 0.00569011 -9.646e-06)
(0.193128 0.00544585 -1.10717e-05)
(0.192279 0.00520293 -1.24392e-05)
(0.191384 0.00496401 -1.37308e-05)
(0.190448 0.00473136 -1.49316e-05)
(0.189476 0.00450685 -1.603e-05)
(0.188471 0.0042919 -1.70172e-05)
(0.187439 0.00408751 -1.78884e-05)
(0.186382 0.00389432 -1.86418e-05)
(0.185304 0.00371259 -1.92787e-05)
(0.184208 0.00354228 -1.98031e-05)
(0.183097 0.0033831 -2.02211e-05)
(0.181973 0.00323457 -2.05409e-05)
(0.180838 0.0030961 -2.07715e-05)
(0.179693 0.00296695 -2.09227e-05)
(0.17854 0.00284639 -2.10045e-05)
(0.177379 0.00273363 -2.10269e-05)
(0.176213 0.00262794 -2.09993e-05)
(0.175041 0.00252859 -2.09304e-05)
(0.173865 0.00243491 -2.08281e-05)
(0.172684 0.0023463 -2.06993e-05)
(0.1715 0.00226222 -2.05501e-05)
(0.170313 0.00218219 -2.03856e-05)
(0.169124 0.00210579 -2.021e-05)
(0.167932 0.00203269 -2.00267e-05)
(0.16674 0.00196258 -1.98384e-05)
(0.165546 0.0018952 -1.96473e-05)
(0.164351 0.00183034 -1.94548e-05)
(0.163157 0.00176783 -1.92622e-05)
(0.161962 0.00170751 -1.90704e-05)
(0.160769 0.00164926 -1.88799e-05)
(0.159576 0.00159298 -1.86912e-05)
(0.158386 0.00153858 -1.85047e-05)
(0.157197 0.00148596 -1.83207e-05)
(0.156011 0.00143508 -1.81392e-05)
(0.154828 0.00138585 -1.79607e-05)
(0.153648 0.00133823 -1.77851e-05)
(0.152472 0.00129215 -1.76128e-05)
(0.1513 0.00124758 -1.74438e-05)
(0.150133 0.00120445 -1.72783e-05)
(0.148971 0.00116271 -1.71165e-05)
(0.147813 0.00112234 -1.69584e-05)
(0.146662 0.00108326 -1.68043e-05)
(0.145516 0.00104546 -1.6654e-05)
(0.144376 0.00100887 -1.65077e-05)
(0.143243 0.000973458 -1.63652e-05)
(0.142117 0.000939184 -1.62263e-05)
(0.140998 0.000906008 -1.60909e-05)
(0.139886 0.00087389 -1.59586e-05)
(0.138781 0.000842793 -1.58288e-05)
(0.137685 0.00081268 -1.57012e-05)
(0.136596 0.000783517 -1.55748e-05)
(0.135516 0.00075527 -1.5449e-05)
(0.134443 0.000727905 -1.53226e-05)
(0.13338 0.000701393 -1.51946e-05)
(0.132325 0.000675702 -1.50634e-05)
(0.131279 0.000650804 -1.49276e-05)
(0.130242 0.000626672 -1.47853e-05)
(0.129214 0.00060328 -1.46345e-05)
(0.128196 0.000580602 -1.44727e-05)
(0.127186 0.000558616 -1.42974e-05)
(0.126186 0.000537299 -1.41055e-05)
(0.125196 0.000516632 -1.38936e-05)
(0.124214 0.000496597 -1.36579e-05)
(0.123243 0.000477177 -1.33941e-05)
(0.12228 0.00045836 -1.30973e-05)
(0.121327 0.000440139 -1.2762e-05)
(0.120384 0.000422514 -1.23822e-05)
(0.119449 0.000405495 -1.19511e-05)
(0.118523 0.000389114 -1.1461e-05)
(0.117606 0.00037344 -1.09042e-05)
(0.116697 0.000358613 -1.02732e-05)
(0.115796 0.000344942 -9.56318e-06)
(0.114901 0.000333127 -8.78068e-06)
(0.114011 0.000324967 -7.9713e-06)
(0.113123 0.000325935 -7.33761e-06)
(0.112245 0.000354707 -7.80114e-06)
(0.111145 0.000450297 -1.27333e-05)
(0.196259 0.00495251 3.48424e-07)
(0.196492 0.00545076 1.08502e-06)
(0.196783 0.00586375 1.87882e-06)
(0.197097 0.00620203 2.63745e-06)
(0.197417 0.00648248 3.28083e-06)
(0.197736 0.00671541 3.78515e-06)
(0.198054 0.00690609 4.1455e-06)
(0.198364 0.00705819 4.35409e-06)
(0.198663 0.0071748 4.40602e-06)
(0.198947 0.00725818 4.30365e-06)
(0.199212 0.00730989 4.05343e-06)
(0.199454 0.00733107 3.66263e-06)
(0.19967 0.00732276 3.13888e-06)
(0.199856 0.0072861 2.49069e-06)
(0.200008 0.00722239 1.72762e-06)
(0.200124 0.00713317 8.60285e-07)
(0.200199 0.00702031 -9.97247e-08)
(0.200233 0.00688596 -1.13979e-06)
(0.200223 0.00673256 -2.24629e-06)
(0.200167 0.0065628 -3.40469e-06)
(0.200065 0.00637954 -4.59966e-06)
(0.199917 0.00618574 -5.81531e-06)
(0.199723 0.0059844 -7.03548e-06)
(0.199485 0.00577843 -8.2441e-06)
(0.199204 0.00557057 -9.42553e-06)
(0.198882 0.00536335 -1.0565e-05)
(0.198522 0.005159 -1.16491e-05)
(0.198125 0.00495944 -1.2666e-05)
(0.197695 0.0047662 -1.36058e-05)
(0.197234 0.00458046 -1.44611e-05)
(0.196745 0.00440307 -1.52267e-05)
(0.196229 0.00423454 -1.58998e-05)
(0.19569 0.00407507 -1.64798e-05)
(0.195129 0.00392465 -1.69685e-05)
(0.194548 0.00378305 -1.73694e-05)
(0.193949 0.00364989 -1.76874e-05)
(0.193333 0.00352467 -1.79288e-05)
(0.192701 0.00340682 -1.81007e-05)
(0.192054 0.00329576 -1.82104e-05)
(0.191394 0.00319087 -1.82658e-05)
(0.190719 0.00309156 -1.82744e-05)
(0.190032 0.00299726 -1.82434e-05)
(0.189332 0.00290746 -1.81795e-05)
(0.18862 0.0028217 -1.8089e-05)
(0.187896 0.00273954 -1.79772e-05)
(0.187161 0.00266064 -1.78489e-05)
(0.186415 0.00258466 -1.77081e-05)
(0.185657 0.00251135 -1.75582e-05)
(0.184889 0.00244048 -1.74019e-05)
(0.18411 0.00237184 -1.72416e-05)
(0.183321 0.00230529 -1.7079e-05)
(0.182521 0.00224068 -1.69156e-05)
(0.181712 0.00217791 -1.67524e-05)
(0.180894 0.00211688 -1.65902e-05)
(0.180066 0.0020575 -1.64297e-05)
(0.179229 0.00199971 -1.62713e-05)
(0.178383 0.00194345 -1.61154e-05)
(0.177529 0.00188866 -1.59622e-05)
(0.176667 0.00183529 -1.58121e-05)
(0.175798 0.0017833 -1.5665e-05)
(0.17492 0.00173263 -1.55213e-05)
(0.174036 0.00168325 -1.53809e-05)
(0.173145 0.00163512 -1.5244e-05)
(0.172247 0.00158819 -1.51106e-05)
(0.171344 0.00154243 -1.49807e-05)
(0.170434 0.0014978 -1.48544e-05)
(0.169519 0.00145427 -1.47315e-05)
(0.168599 0.00141179 -1.4612e-05)
(0.167674 0.00137035 -1.44955e-05)
(0.166744 0.0013299 -1.4382e-05)
(0.165811 0.00129041 -1.42709e-05)
(0.164874 0.00125186 -1.41619e-05)
(0.163933 0.00121422 -1.40544e-05)
(0.162989 0.00117746 -1.39477e-05)
(0.162042 0.00114155 -1.3841e-05)
(0.161093 0.00110647 -1.37333e-05)
(0.160142 0.0010722 -1.36234e-05)
(0.159189 0.00103872 -1.35102e-05)
(0.158235 0.001006 -1.3392e-05)
(0.15728 0.000974036 -1.32671e-05)
(0.156323 0.000942802 -1.31336e-05)
(0.155367 0.000912284 -1.29892e-05)
(0.15441 0.000882469 -1.28313e-05)
(0.153453 0.000853343 -1.26572e-05)
(0.152496 0.000824895 -1.24636e-05)
(0.15154 0.000797118 -1.22468e-05)
(0.150585 0.000770004 -1.20029e-05)
(0.14963 0.000743553 -1.17272e-05)
(0.148677 0.000717768 -1.14149e-05)
(0.147726 0.000692664 -1.10606e-05)
(0.146775 0.00066827 -1.06585e-05)
(0.145827 0.000644642 -1.02031e-05)
(0.144879 0.000621889 -9.68986e-06)
(0.143933 0.000600218 -9.11778e-06)
(0.142989 0.000580052 -8.49582e-06)
(0.142045 0.000562315 -7.86083e-06)
(0.141101 0.000549192 -7.33119e-06)
(0.140158 0.000546253 -7.27245e-06)
(0.139229 0.000566646 -8.74014e-06)
(0.13811 0.000620963 -1.38415e-05)
(0.196777 0.00477749 2.44485e-07)
(0.196947 0.00519955 7.59767e-07)
(0.197167 0.00557124 1.33102e-06)
(0.197418 0.00589143 1.91008e-06)
(0.197687 0.00616586 2.43372e-06)
(0.197966 0.00639943 2.872e-06)
(0.19825 0.00659504 3.21594e-06)
(0.198536 0.00675487 3.45686e-06)
(0.19882 0.00688105 3.58551e-06)
(0.1991 0.00697557 3.59742e-06)
(0.199374 0.00704006 3.49322e-06)
(0.199638 0.00707592 3.27601e-06)
(0.199892 0.00708443 2.94998e-06)
(0.200131 0.00706688 2.52029e-06)
(0.200354 0.00702463 1.99312e-06)
(0.200558 0.00695919 1.37558e-06)
(0.200741 0.00687223 6.7556e-07)
(0.200901 0.00676561 -9.83648e-08)
(0.201036 0.00664142 -9.36908e-07)
(0.201144 0.00650188 -1.83008e-06)
(0.201224 0.00634939 -2.76722e-06)
(0.201275 0.00618642 -3.73702e-06)
(0.201297 0.00601546 -4.72765e-06)
(0.20129 0.00583899 -5.72688e-06)
(0.201253 0.00565936 -6.72234e-06)
(0.201188 0.00547877 -7.70174e-06)
(0.201095 0.00529923 -8.6532e-06)
(0.200977 0.00512247 -9.56559e-06)
(0.200834 0.00494995 -1.04289e-05)
(0.200668 0.00478285 -1.12344e-05)
(0.20048 0.00462204 -1.19751e-05)
(0.200273 0.00446815 -1.26458e-05)
(0.200047 0.00432154 -1.32431e-05)
(0.199804 0.00418235 -1.37655e-05)
(0.199545 0.00405053 -1.42133e-05)
(0.199272 0.00392588 -1.45885e-05)
(0.198984 0.0038081 -1.48942e-05)
(0.198684 0.00369679 -1.51347e-05)
(0.198372 0.0035915 -1.53154e-05)
(0.198047 0.00349176 -1.54418e-05)
(0.197712 0.00339709 -1.552e-05)
(0.197365 0.00330702 -1.5556e-05)
(0.197007 0.00322112 -1.55556e-05)
(0.196638 0.00313895 -1.55246e-05)
(0.196259 0.00306016 -1.5468e-05)
(0.195868 0.0029844 -1.53906e-05)
(0.195467 0.00291137 -1.52965e-05)
(0.195055 0.00284082 -1.51894e-05)
(0.194632 0.00277252 -1.50723e-05)
(0.194197 0.00270628 -1.4948e-05)
(0.193752 0.00264193 -1.48185e-05)
(0.193296 0.00257933 -1.46858e-05)
(0.192828 0.00251837 -1.45513e-05)
(0.19235 0.00245895 -1.4416e-05)
(0.19186 0.00240097 -1.42809e-05)
(0.191359 0.00234436 -1.41468e-05)
(0.190846 0.00228906 -1.40142e-05)
(0.190323 0.00223502 -1.38835e-05)
(0.189788 0.00218217 -1.3755e-05)
(0.189242 0.00213046 -1.3629e-05)
(0.188685 0.00207987 -1.35058e-05)
(0.188117 0.00203034 -1.33854e-05)
(0.187539 0.00198184 -1.3268e-05)
(0.186949 0.00193432 -1.31536e-05)
(0.186348 0.00188776 -1.30423e-05)
(0.185737 0.00184212 -1.2934e-05)
(0.185115 0.00179737 -1.28287e-05)
(0.184483 0.00175348 -1.27263e-05)
(0.18384 0.00171042 -1.26264e-05)
(0.183188 0.00166816 -1.2529e-05)
(0.182525 0.00162667 -1.24336e-05)
(0.181852 0.00158593 -1.23399e-05)
(0.18117 0.00154592 -1.22472e-05)
(0.180478 0.00150662 -1.21549e-05)
(0.179777 0.001468 -1.20623e-05)
(0.179066 0.00143005 -1.19684e-05)
(0.178347 0.00139274 -1.18722e-05)
(0.177618 0.00135607 -1.17724e-05)
(0.176881 0.00132002 -1.16676e-05)
(0.176136 0.00128457 -1.15561e-05)
(0.175383 0.00124972 -1.14361e-05)
(0.174621 0.00121546 -1.13054e-05)
(0.173852 0.00118177 -1.11617e-05)
(0.173075 0.00114866 -1.10022e-05)
(0.172291 0.00111612 -1.08239e-05)
(0.1715 0.00108415 -1.06235e-05)
(0.170702 0.00105275 -1.03972e-05)
(0.169897 0.00102193 -1.0141e-05)
(0.169085 0.000991713 -9.85057e-06)
(0.168268 0.000962119 -9.52156e-06)
(0.167443 0.000933197 -9.14989e-06)
(0.166613 0.00090503 -8.73266e-06)
(0.165777 0.00087776 -8.27001e-06)
(0.164935 0.00085165 -7.76955e-06)
(0.164086 0.000827198 -7.25669e-06)
(0.163232 0.00080541 -6.79975e-06)
(0.162373 0.00078837 -6.57025e-06)
(0.161512 0.000780254 -6.96461e-06)
(0.160664 0.000786772 -8.67268e-06)
(0.159645 0.000798195 -1.17527e-05)
(0.197238 0.0046338 1.54685e-07)
(0.197367 0.00499289 4.80437e-07)
(0.197535 0.00532152 8.54566e-07)
(0.197734 0.00561448 1.26365e-06)
(0.197954 0.00587164 1.66902e-06)
(0.198188 0.00609447 2.04002e-06)
(0.198431 0.00628439 2.35948e-06)
(0.19868 0.00644274 2.61457e-06)
(0.198931 0.00657095 2.79354e-06)
(0.199181 0.00667047 2.88842e-06)
(0.199429 0.00674261 2.89606e-06)
(0.199673 0.00678857 2.81666e-06)
(0.19991 0.00680951 2.65206e-06)
(0.200138 0.00680655 2.4051e-06)
(0.200356 0.00678092 2.07938e-06)
(0.200563 0.00673396 1.67911e-06)
(0.200755 0.00666712 1.20893e-06)
(0.200932 0.00658204 6.73864e-07)
(0.201093 0.00648049 7.93407e-08)
(0.201235 0.0063644 -5.68734e-07)
(0.201359 0.00623582 -1.26388e-06)
(0.201463 0.00609686 -1.99895e-06)
(0.201547 0.00594968 -2.76611e-06)
(0.201611 0.00579642 -3.55683e-06)
(0.201656 0.00563913 -4.36195e-06)
(0.20168 0.00547978 -5.17185e-06)
(0.201686 0.00532015 -5.97665e-06)
(0.201674 0.00516183 -6.76648e-06)
(0.201645 0.00500619 -7.53179e-06)
(0.2016 0.00485439 -8.26366e-06)
(0.20154 0.00470732 -8.95412e-06)
(0.201467 0.00456566 -9.59638e-06)
(0.201382 0.00442985 -1.0185e-05)
(0.201285 0.00430018 -1.07162e-05)
(0.201179 0.00417671 -1.11874e-05)
(0.201063 0.0040594 -1.1598e-05)
(0.200938 0.00394809 -1.19484e-05)
(0.200806 0.0038425 -1.22404e-05)
(0.200666 0.00374233 -1.24768e-05)
(0.200519 0.00364722 -1.26614e-05)
(0.200365 0.00355679 -1.27985e-05)
(0.200205 0.00347065 -1.28925e-05)
(0.200038 0.00338844 -1.29484e-05)
(0.199864 0.00330979 -1.29711e-05)
(0.199685 0.00323439 -1.29652e-05)
(0.199498 0.00316192 -1.29352e-05)
(0.199305 0.00309211 -1.28851e-05)
(0.199105 0.00302473 -1.28188e-05)
(0.198897 0.00295954 -1.27395e-05)
(0.198683 0.00289638 -1.26501e-05)
(0.198461 0.00283507 -1.25531e-05)
(0.198231 0.00277547 -1.24506e-05)
(0.197993 0.00271746 -1.23444e-05)
(0.197746 0.00266094 -1.22359e-05)
(0.197492 0.00260581 -1.21262e-05)
(0.197229 0.00255199 -1.20164e-05)
(0.196956 0.00249942 -1.19071e-05)
(0.196675 0.00244801 -1.1799e-05)
(0.196385 0.00239773 -1.16924e-05)
(0.196086 0.0023485 -1.15877e-05)
(0.195777 0.0023003 -1.14852e-05)
(0.195458 0.00225306 -1.13851e-05)
(0.195129 0.00220674 -1.12874e-05)
(0.194791 0.0021613 -1.11922e-05)
(0.194443 0.00211671 -1.10995e-05)
(0.194084 0.00207293 -1.10094e-05)
(0.193715 0.00202991 -1.09216e-05)
(0.193336 0.00198762 -1.08361e-05)
(0.192946 0.00194604 -1.07527e-05)
(0.192545 0.00190514 -1.0671e-05)
(0.192134 0.00186487 -1.05909e-05)
(0.191712 0.00182522 -1.05117e-05)
(0.19128 0.00178616 -1.04331e-05)
(0.190836 0.00174766 -1.03544e-05)
(0.190382 0.00170971 -1.02748e-05)
(0.189917 0.00167228 -1.01935e-05)
(0.189441 0.00163535 -1.01095e-05)
(0.188954 0.00159892 -1.00215e-05)
(0.188455 0.00156296 -9.92835e-06)
(0.187946 0.00152746 -9.82834e-06)
(0.187426 0.00149241 -9.71976e-06)
(0.186895 0.0014578 -9.6006e-06)
(0.186353 0.00142363 -9.46861e-06)
(0.1858 0.0013899 -9.32128e-06)
(0.185236 0.00135659 -9.1558e-06)
(0.184661 0.00132372 -8.96913e-06)
(0.184075 0.00129128 -8.75792e-06)
(0.183479 0.0012593 -8.5187e-06)
(0.182871 0.0012278 -8.24804e-06)
(0.182253 0.00119681 -7.94277e-06)
(0.181624 0.0011664 -7.60079e-06)
(0.180984 0.00113665 -7.22234e-06)
(0.180333 0.00110775 -6.81271e-06)
(0.179672 0.00107996 -6.38776e-06)
(0.179 0.00105379 -5.98549e-06)
(0.178318 0.00103012 -5.68855e-06)
(0.177627 0.00101047 -5.66017e-06)
(0.176932 0.000996809 -6.15045e-06)
(0.176245 0.000988404 -7.19009e-06)
(0.175403 0.000965836 -7.06714e-06)
(0.197651 0.00451341 7.45925e-08)
(0.197752 0.00482072 2.35691e-07)
(0.197883 0.00510878 4.37827e-07)
(0.19804 0.00537232 6.84229e-07)
(0.198218 0.00560902 9.55796e-07)
(0.198412 0.00581833 1.22967e-06)
(0.198616 0.00600031 1.48872e-06)
(0.198828 0.00615532 1.72014e-06)
(0.199044 0.00628395 1.91292e-06)
(0.199262 0.00638691 2.05826e-06)
(0.199479 0.00646503 2.15052e-06)
(0.199694 0.00651914 2.18672e-06)
(0.199905 0.00655014 2.16557e-06)
(0.20011 0.00655901 2.08668e-06)
(0.200307 0.00654679 1.9503e-06)
(0.200495 0.00651466 1.75716e-06)
(0.200673 0.00646393 1.50834e-06)
(0.200838 0.00639604 1.20519e-06)
(0.200992 0.00631254 8.4942e-07)
(0.201131 0.00621514 4.43183e-07)
(0.201256 0.0061056 -1.07994e-08)
(0.201366 0.00598579 -5.09077e-07)
(0.20146 0.00585757 -1.04736e-06)
(0.201539 0.00572282 -1.62042e-06)
(0.201603 0.00558337 -2.2221e-06)
(0.201652 0.00544093 -2.84537e-06)
(0.201687 0.00529714 -3.48245e-06)
(0.201709 0.00515344 -4.12501e-06)
(0.201718 0.00501112 -4.76448e-06)
(0.201715 0.00487129 -5.39231e-06)
(0.201701 0.00473483 -6.0003e-06)
(0.201678 0.00460247 -6.5809e-06)
(0.201646 0.00447473 -7.12749e-06)
(0.201607 0.00435196 -7.63454e-06)
(0.201561 0.00423436 -8.09781e-06)
(0.201509 0.004122 -8.51436e-06)
(0.201451 0.00401485 -8.88258e-06)
(0.20139 0.00391276 -9.20213e-06)
(0.201324 0.00381555 -9.47377e-06)
(0.201255 0.00372296 -9.69927e-06)
(0.201182 0.00363473 -9.88119e-06)
(0.201107 0.00355056 -1.00227e-05)
(0.201028 0.00347015 -1.01273e-05)
(0.200947 0.00339322 -1.0199e-05)
(0.200862 0.00331949 -1.02416e-05)
(0.200775 0.00324869 -1.02589e-05)
(0.200685 0.00318059 -1.02547e-05)
(0.200592 0.00311496 -1.02324e-05)
(0.200495 0.0030516 -1.01952e-05)
(0.200395 0.00299034 -1.01459e-05)
(0.200292 0.00293102 -1.00872e-05)
(0.200184 0.00287349 -1.00211e-05)
(0.200072 0.00281764 -9.94954e-06)
(0.199956 0.00276334 -9.87409e-06)
(0.199835 0.00271051 -9.79604e-06)
(0.199709 0.00265905 -9.71646e-06)
(0.199579 0.00260889 -9.63619e-06)
(0.199442 0.00255995 -9.55592e-06)
(0.199301 0.00251216 -9.47617e-06)
(0.199153 0.00246547 -9.39734e-06)
(0.199 0.00241982 -9.31974e-06)
(0.19884 0.00237515 -9.24358e-06)
(0.198673 0.00233141 -9.16899e-06)
(0.1985 0.00228856 -9.09607e-06)
(0.19832 0.00224654 -9.02484e-06)
(0.198133 0.00220532 -8.95527e-06)
(0.197938 0.00216486 -8.88728e-06)
(0.197736 0.0021251 -8.82074e-06)
(0.197526 0.00208602 -8.75546e-06)
(0.197307 0.00204758 -8.69118e-06)
(0.197081 0.00200974 -8.6276e-06)
(0.196846 0.00197248 -8.5643e-06)
(0.196602 0.00193576 -8.50082e-06)
(0.19635 0.00189955 -8.43655e-06)
(0.196088 0.00186383 -8.37083e-06)
(0.195817 0.00182856 -8.30284e-06)
(0.195537 0.00179374 -8.23163e-06)
(0.195246 0.00175934 -8.1561e-06)
(0.194947 0.00172534 -8.075e-06)
(0.194637 0.00169173 -7.98687e-06)
(0.194317 0.00165848 -7.89008e-06)
(0.193986 0.00162559 -7.78278e-06)
(0.193645 0.00159306 -7.66288e-06)
(0.193294 0.00156086 -7.52807e-06)
(0.192931 0.001529 -7.37581e-06)
(0.192558 0.00149749 -7.20339e-06)
(0.192173 0.00146632 -7.00793e-06)
(0.191777 0.00143551 -6.7866e-06)
(0.19137 0.00140507 -6.53691e-06)
(0.190951 0.00137506 -6.2571e-06)
(0.19052 0.00134553 -5.94715e-06)
(0.190078 0.00131658 -5.61038e-06)
(0.189624 0.00128838 -5.25628e-06)
(0.189157 0.0012612 -4.90521e-06)
(0.188679 0.00123542 -4.59568e-06)
(0.18819 0.00121164 -4.39082e-06)
(0.187691 0.00119044 -4.3654e-06)
(0.187186 0.00117152 -4.49417e-06)
(0.186682 0.00115002 -4.18747e-06)
(0.186044 0.00110596 -1.02902e-06)
(0.198024 0.00440787 1.8918e-09)
(0.198104 0.00467299 1.59322e-08)
(0.198206 0.00492543 6.52478e-08)
(0.198331 0.00516084 1.60471e-07)
(0.198474 0.00537639 2.96804e-07)
(0.198632 0.00557048 4.62438e-07)
(0.198801 0.00574227 6.45209e-07)
(0.198978 0.00589139 8.34294e-07)
(0.199161 0.00601776 1.01969e-06)
(0.199346 0.00612158 1.19236e-06)
(0.199533 0.00620324 1.34491e-06)
(0.199719 0.00626326 1.47175e-06)
(0.199902 0.00630228 1.56871e-06)
(0.200081 0.00632105 1.63252e-06)
(0.200255 0.00632043 1.66051e-06)
(0.200421 0.00630141 1.65043e-06)
(0.200579 0.00626509 1.6003e-06)
(0.200728 0.0062127 1.50843e-06)
(0.200866 0.00614557 1.3734e-06)
(0.200993 0.00606514 1.19417e-06)
(0.201109 0.00597295 9.7025e-07)
(0.201212 0.00587059 7.01857e-07)
(0.201303 0.00575967 3.90087e-07)
(0.201381 0.00564182 3.70597e-08)
(0.201447 0.00551864 -3.54007e-07)
(0.2015 0.00539165 -7.78776e-07)
(0.201542 0.00526231 -1.23185e-06)
(0.201573 0.00513195 -1.70693e-06)
(0.201593 0.00500176 -2.19699e-06)
(0.201604 0.00487279 -2.69456e-06)
(0.201607 0.00474592 -3.19204e-06)
(0.201601 0.0046219 -3.68196e-06)