/*--------------------------------*- C++ -*----------------------------------*\
| =========                 |                                                 |
| \\      /  F ield         | OpenFOAM: The Open Source CFD Toolbox           |
|  \\    /   O peration     | Version:  2.3.0                                 |
|   \\  /    A nd           | Web:      www.OpenFOAM.org                      |
|    \\/     M anipulation  |                                                 |
\*---------------------------------------------------------------------------*/
FoamFile
{
    version     2.0;
    format      ascii;
    class       volVectorField;
    location    "0.95";
    object      U_0;
}
// * * * * * * * * * * * * * * * * * * * * * * * * * * * * * * * * * * * * * //

dimensions      [0 1 -1 0 0 0 0];

internalField   nonuniform List<vector> 
2250
(
(0.184647 0.00407599 1.19028e-06)
(0.177451 0.0044464 3.07454e-06)
(0.170047 0.00453788 4.40544e-06)
(0.162473 0.00449587 5.46514e-06)
(0.154921 0.00438511 6.3068e-06)
(0.14749 0.00422995 6.87441e-06)
(0.140209 0.00404442 7.14497e-06)
(0.133095 0.00383931 7.12533e-06)
(0.126166 0.00362229 6.81957e-06)
(0.119442 0.00339841 6.22421e-06)
(0.112941 0.0031711 5.33694e-06)
(0.10668 0.0029429 4.16206e-06)
(0.100673 0.00271584 2.71119e-06)
(0.0949331 0.0024916 1.00298e-06)
(0.0894706 0.00227171 -9.36852e-07)
(0.0842951 0.0020576 -3.0756e-06)
(0.0794137 0.0018506 -5.37402e-06)
(0.0748311 0.00165202 -7.78745e-06)
(0.0705493 0.00146308 -1.02673e-05)
(0.0665677 0.0012849 -1.27632e-05)
(0.0628828 0.00111845 -1.52245e-05)
(0.0594885 0.000964528 -1.76033e-05)
(0.056376 0.000823687 -1.98556e-05)
(0.0535341 0.000696239 -2.19439e-05)
(0.0509495 0.000582228 -2.38379e-05)
(0.048607 0.000481442 -2.55159e-05)
(0.0464902 0.000393425 -2.69647e-05)
(0.0445816 0.000317518 -2.81796e-05)
(0.0428634 0.000252896 -2.91635e-05)
(0.0413174 0.000198618 -2.99262e-05)
(0.0399261 0.000153673 -3.04826e-05)
(0.0386723 0.000117023 -3.08517e-05)
(0.0375399 8.76365e-05 -3.10549e-05)
(0.0365138 6.45143e-05 -3.11149e-05)
(0.0355803 4.67133e-05 -3.10544e-05)
(0.034727 3.3359e-05 -3.08951e-05)
(0.0339428 2.36557e-05 -3.06574e-05)
(0.0332179 1.68919e-05 -3.03592e-05)
(0.0325441 1.24425e-05 -3.00165e-05)
(0.0319142 9.76862e-06 -2.96426e-05)
(0.0313221 8.41451e-06 -2.92487e-05)
(0.0307628 8.00258e-06 -2.88436e-05)
(0.0302319 8.22691e-06 -2.8434e-05)
(0.0297262 8.84598e-06 -2.8025e-05)
(0.0292427 9.67983e-06 -2.76204e-05)
(0.0287793 1.05965e-05 -2.72225e-05)
(0.0283339 1.15017e-05 -2.68327e-05)
(0.0279052 1.23315e-05 -2.64519e-05)
(0.0274919 1.30458e-05 -2.60802e-05)
(0.027093 1.36227e-05 -2.57174e-05)
(0.0267077 1.40543e-05 -2.53634e-05)
(0.0263352 1.43419e-05 -2.50176e-05)
(0.0259749 1.44936e-05 -2.46797e-05)
(0.0256263 1.45213e-05 -2.43491e-05)
(0.0252888 1.44391e-05 -2.40256e-05)
(0.0249621 1.4262e-05 -2.37089e-05)
(0.0246456 1.40044e-05 -2.33989e-05)
(0.0243391 1.36804e-05 -2.30954e-05)
(0.024042 1.33023e-05 -2.27984e-05)
(0.023754 1.28816e-05 -2.25081e-05)
(0.0234749 1.24279e-05 -2.22244e-05)
(0.0232041 1.19495e-05 -2.19476e-05)
(0.0229414 1.14536e-05 -2.16777e-05)
(0.0226866 1.09458e-05 -2.14149e-05)
(0.0224392 1.0431e-05 -2.11591e-05)
(0.022199 9.91301e-06 -2.09103e-05)
(0.0219658 9.3949e-06 -2.06686e-05)
(0.0217392 8.87908e-06 -2.04338e-05)
(0.0215191 8.36742e-06 -2.02056e-05)
(0.0213053 7.86134e-06 -1.99837e-05)
(0.0210974 7.3619e-06 -1.97676e-05)
(0.0208954 6.86985e-06 -1.95568e-05)
(0.020699 6.38575e-06 -1.93504e-05)
(0.0205081 5.90996e-06 -1.91477e-05)
(0.0203224 5.44272e-06 -1.89476e-05)
(0.020142 4.98418e-06 -1.87489e-05)
(0.0199665 4.53439e-06 -1.85502e-05)
(0.019796 4.09338e-06 -1.83499e-05)
(0.0196302 3.66113e-06 -1.81463e-05)
(0.019469 3.23765e-06 -1.79371e-05)
(0.0193124 2.82293e-06 -1.77202e-05)
(0.0191602 2.417e-06 -1.74929e-05)
(0.0190123 2.01996e-06 -1.72523e-05)
(0.0188686 1.63196e-06 -1.69949e-05)
(0.0187291 1.25325e-06 -1.67171e-05)
(0.0185936 8.84249e-07 -1.64147e-05)
(0.018462 5.25493e-07 -1.60829e-05)
(0.0183343 1.7781e-07 -1.57162e-05)
(0.0182103 -1.57545e-07 -1.53087e-05)
(0.0180899 -4.78879e-07 -1.48533e-05)
(0.0179729 -7.8352e-07 -1.43421e-05)
(0.0178593 -1.0674e-06 -1.37656e-05)
(0.0177488 -1.32389e-06 -1.31131e-05)
(0.0176412 -1.54151e-06 -1.23712e-05)
(0.017536 -1.69895e-06 -1.15237e-05)
(0.0174327 -1.7516e-06 -1.05493e-05)
(0.0173299 -1.59023e-06 -9.41839e-06)
(0.0172256 -1.18774e-06 -8.07865e-06)
(0.0171264 -2.13474e-07 -6.42954e-06)
(0.0168002 5.75429e-05 -5.28621e-06)
(0.193866 0.00625479 8.2795e-07)
(0.193709 0.00684812 2.42219e-06)
(0.193065 0.00706702 3.78019e-06)
(0.191937 0.00712848 4.8508e-06)
(0.190426 0.00711767 5.66218e-06)
(0.188604 0.00705718 6.21519e-06)
(0.186508 0.00695727 6.50212e-06)
(0.184167 0.0068264 6.52704e-06)
(0.181609 0.00667038 6.29799e-06)
(0.178865 0.00649257 5.81963e-06)
(0.175962 0.00629508 5.09523e-06)
(0.172928 0.00607969 4.13072e-06)
(0.169788 0.00584815 2.93637e-06)
(0.166565 0.00560231 1.52706e-06)
(0.163281 0.00534419 -7.74728e-08)
(0.15996 0.00507602 -1.85248e-06)
(0.156619 0.0048002 -3.76837e-06)
(0.153278 0.00451929 -5.79125e-06)
(0.149954 0.00423598 -7.88392e-06)
(0.146661 0.00395299 -1.00071e-05)
(0.143412 0.00367302 -1.2121e-05)
(0.14022 0.00339866 -1.41866e-05)
(0.137093 0.00313234 -1.61678e-05)
(0.13404 0.00287625 -1.80323e-05)
(0.131067 0.00263224 -1.97529e-05)
(0.128178 0.00240184 -2.13086e-05)
(0.125377 0.0021862 -2.26849e-05)
(0.122665 0.00198608 -2.38738e-05)
(0.120044 0.00180185 -2.48737e-05)
(0.117513 0.00163354 -2.56887e-05)
(0.115071 0.00148086 -2.63275e-05)
(0.112717 0.00134324 -2.68027e-05)
(0.110448 0.00121991 -2.71296e-05)
(0.108263 0.00110991 -2.73253e-05)
(0.106158 0.00101221 -2.74075e-05)
(0.104131 0.00092567 -2.73937e-05)
(0.102179 0.000849172 -2.73007e-05)
(0.100298 0.000781599 -2.71442e-05)
(0.0984852 0.000721888 -2.69381e-05)
(0.0967382 0.000669045 -2.66946e-05)
(0.0950538 0.000622158 -2.6424e-05)
(0.0934292 0.00058041 -2.6135e-05)
(0.0918616 0.000543077 -2.58344e-05)
(0.0903483 0.000509524 -2.55276e-05)
(0.0888869 0.000479199 -2.52185e-05)
(0.087475 0.00045163 -2.491e-05)
(0.0861102 0.000426424 -2.46042e-05)
(0.0847905 0.000403255 -2.43023e-05)
(0.0835137 0.000381852 -2.40053e-05)
(0.0822778 0.000361993 -2.37133e-05)
(0.0810811 0.000343499 -2.34265e-05)
(0.0799216 0.000326218 -2.31448e-05)
(0.0787979 0.000310028 -2.28682e-05)
(0.0777082 0.000294828 -2.25964e-05)
(0.0766511 0.000280532 -2.23293e-05)
(0.0756251 0.000267067 -2.20669e-05)
(0.0746289 0.00025437 -2.18091e-05)
(0.0736611 0.000242385 -2.15559e-05)
(0.0727206 0.000231064 -2.13074e-05)
(0.0718061 0.00022036 -2.10638e-05)
(0.0709166 0.000210234 -2.08253e-05)
(0.0700511 0.000200646 -2.05919e-05)
(0.0692085 0.000191562 -2.03638e-05)
(0.0683879 0.000182947 -2.01412e-05)
(0.0675884 0.00017477 -1.99243e-05)
(0.0668091 0.000167003 -1.97129e-05)
(0.0660494 0.000159616 -1.95073e-05)
(0.0653084 0.000152584 -1.93071e-05)
(0.0645854 0.000145882 -1.91123e-05)
(0.0638797 0.000139489 -1.89226e-05)
(0.0631908 0.000133382 -1.87375e-05)
(0.062518 0.000127543 -1.85566e-05)
(0.0618609 0.000121953 -1.83791e-05)
(0.0612187 0.000116595 -1.82043e-05)
(0.0605911 0.000111455 -1.80312e-05)
(0.0599776 0.000106517 -1.78587e-05)
(0.0593777 0.000101769 -1.76854e-05)
(0.058791 9.71989e-05 -1.75099e-05)
(0.0582171 9.27963e-05 -1.73303e-05)
(0.0576557 8.85512e-05 -1.71447e-05)
(0.0571063 8.44547e-05 -1.69508e-05)
(0.0565685 8.04987e-05 -1.67461e-05)
(0.0560422 7.66763e-05 -1.65277e-05)
(0.0555268 7.2981e-05 -1.62924e-05)
(0.0550222 6.94073e-05 -1.60364e-05)
(0.0545279 6.59506e-05 -1.57557e-05)
(0.0540437 6.26072e-05 -1.54455e-05)
(0.0535692 5.93746e-05 -1.51006e-05)
(0.0531042 5.6252e-05 -1.47151e-05)
(0.0526482 5.32406e-05 -1.42819e-05)
(0.0522009 5.03449e-05 -1.37932e-05)
(0.0517619 4.75752e-05 -1.32399e-05)
(0.0513307 4.49524e-05 -1.26113e-05)
(0.0509068 4.25173e-05 -1.18944e-05)
(0.0504892 4.03556e-05 -1.10737e-05)
(0.0500769 3.86603e-05 -1.01288e-05)
(0.0496673 3.79103e-05 -9.03317e-06)
(0.0492561 3.95149e-05 -7.74108e-06)
(0.0488502 5.25935e-05 -6.22325e-06)
(0.0481394 0.000163617 -6.55821e-06)
(0.19497 0.00544214 6.59074e-07)
(0.195386 0.00604257 2.01138e-06)
(0.195769 0.00645352 3.22946e-06)
(0.196026 0.00676663 4.17735e-06)
(0.196147 0.00701862 4.87535e-06)
(0.196138 0.00721404 5.36157e-06)
(0.195994 0.0073541 5.63806e-06)
(0.195709 0.00744271 5.70035e-06)
(0.195281 0.00748408 5.55199e-06)
(0.194712 0.0074815 5.19899e-06)
(0.194004 0.00743774 4.64601e-06)
(0.193162 0.00735555 3.89789e-06)
(0.192191 0.00723783 2.96188e-06)
(0.191098 0.00708764 1.84844e-06)
(0.18989 0.00690827 5.71471e-07)
(0.188577 0.0067032 -8.51656e-07)
(0.187166 0.00647613 -2.40006e-06)
(0.185668 0.00623089 -4.04958e-06)
(0.184092 0.00597143 -5.7733e-06)
(0.182449 0.00570174 -7.54227e-06)
(0.180747 0.00542573 -9.32636e-06)
(0.178998 0.00514718 -1.10954e-05)
(0.177208 0.00486963 -1.282e-05)
(0.175389 0.00459629 -1.44731e-05)
(0.173546 0.00432996 -1.60304e-05)
(0.171688 0.00407303 -1.74716e-05)
(0.16982 0.00382736 -1.87807e-05)
(0.167949 0.00359438 -1.99466e-05)
(0.16608 0.003375 -2.09629e-05)
(0.164217 0.00316971 -2.1828e-05)
(0.162362 0.0029786 -2.25442e-05)
(0.16052 0.00280144 -2.31179e-05)
(0.158693 0.0026377 -2.35582e-05)
(0.156882 0.00248669 -2.38764e-05)
(0.155089 0.00234756 -2.40854e-05)
(0.153314 0.00221937 -2.41987e-05)
(0.15156 0.00210116 -2.423e-05)
(0.149826 0.00199198 -2.41926e-05)
(0.148113 0.00189093 -2.40989e-05)
(0.14642 0.00179714 -2.39603e-05)
(0.14475 0.00170984 -2.37868e-05)
(0.1431 0.00162832 -2.35871e-05)
(0.141472 0.00155198 -2.33685e-05)
(0.139866 0.00148026 -2.31369e-05)
(0.138282 0.0014127 -2.28969e-05)
(0.136719 0.00134889 -2.26522e-05)
(0.135178 0.0012885 -2.24055e-05)
(0.133659 0.00123123 -2.21591e-05)
(0.132162 0.00117684 -2.19142e-05)
(0.130687 0.00112512 -2.16718e-05)
(0.129233 0.0010759 -2.14326e-05)
(0.127802 0.00102902 -2.11967e-05)
(0.126392 0.000984344 -2.09645e-05)
(0.125003 0.000941763 -2.07359e-05)
(0.123637 0.000901165 -2.0511e-05)
(0.122292 0.000862453 -2.02898e-05)
(0.120968 0.000825536 -2.00724e-05)
(0.119666 0.000790328 -1.98588e-05)
(0.118384 0.000756748 -1.96492e-05)
(0.117124 0.000724717 -1.94436e-05)
(0.115884 0.000694162 -1.92422e-05)
(0.114665 0.00066501 -1.90451e-05)
(0.113466 0.000637191 -1.88524e-05)
(0.112287 0.000610637 -1.86644e-05)
(0.111127 0.000585284 -1.84811e-05)
(0.109988 0.000561069 -1.83025e-05)
(0.108867 0.000537932 -1.81286e-05)
(0.107765 0.000515815 -1.79593e-05)
(0.106682 0.000494664 -1.77945e-05)
(0.105617 0.000474426 -1.7634e-05)
(0.104571 0.00045505 -1.74772e-05)
(0.103542 0.000436489 -1.73238e-05)
(0.102531 0.000418699 -1.71731e-05)
(0.101536 0.000401637 -1.70244e-05)
(0.100559 0.000385264 -1.68767e-05)
(0.0995979 0.00036954 -1.6729e-05)
(0.0986533 0.000354432 -1.658e-05)
(0.0977247 0.000339906 -1.64283e-05)
(0.0968117 0.000325932 -1.62722e-05)
(0.0959141 0.000312479 -1.61098e-05)
(0.0950316 0.000299523 -1.59389e-05)
(0.0941639 0.000287036 -1.57571e-05)
(0.0933107 0.000274998 -1.55615e-05)
(0.0924717 0.000263386 -1.53491e-05)
(0.0916466 0.000252181 -1.51163e-05)
(0.0908351 0.000241366 -1.48591e-05)
(0.0900369 0.000230926 -1.4573e-05)
(0.0892517 0.000220849 -1.42529e-05)
(0.0884791 0.000211126 -1.38929e-05)
(0.0877188 0.000201753 -1.34865e-05)
(0.0869703 0.000192734 -1.30261e-05)
(0.0862332 0.000184086 -1.25032e-05)
(0.0855071 0.000175847 -1.19079e-05)
(0.0847911 0.000168103 -1.12289e-05)
(0.0840844 0.00016104 -1.04538e-05)
(0.0833856 0.000155092 -9.56984e-06)
(0.0826921 0.000151387 -8.57072e-06)
(0.0819998 0.000153725 -7.49102e-06)
(0.0813119 0.000180677 -6.76355e-06)
(0.0803563 0.000300319 -9.61514e-06)
(0.195667 0.00518486 4.75853e-07)
(0.195999 0.0057712 1.46235e-06)
(0.196384 0.0062276 2.44198e-06)
(0.196758 0.00658681 3.29901e-06)
(0.197103 0.00687546 3.98947e-06)
(0.197416 0.00710527 4.51606e-06)
(0.197696 0.00728258 4.87221e-06)
(0.197936 0.00741326 5.04437e-06)
(0.198129 0.00750229 5.02793e-06)
(0.198268 0.00755316 4.82695e-06)
(0.19835 0.0075682 4.44802e-06)
(0.19837 0.00754918 3.89826e-06)
(0.198322 0.0074977 3.18608e-06)
(0.198206 0.00741543 2.3219e-06)
(0.198017 0.00730422 1.31821e-06)
(0.197755 0.00716621 1.89412e-07)
(0.197418 0.00700385 -1.04819e-06)
(0.197008 0.00681991 -2.37643e-06)
(0.196525 0.00661748 -3.77549e-06)
(0.195973 0.00639984 -5.22419e-06)
(0.195353 0.00617043 -6.70046e-06)
(0.194669 0.00593272 -8.18182e-06)
(0.193926 0.00569011 -9.64602e-06)
(0.193128 0.00544585 -1.10717e-05)
(0.192279 0.00520293 -1.24392e-05)
(0.191384 0.00496401 -1.37308e-05)
(0.190448 0.00473136 -1.49317e-05)
(0.189476 0.00450685 -1.603e-05)
(0.188471 0.00429189 -1.70173e-05)
(0.187439 0.00408751 -1.78885e-05)
(0.186382 0.00389432 -1.86419e-05)
(0.185304 0.00371259 -1.92787e-05)
(0.184208 0.00354227 -1.98031e-05)
(0.183097 0.00338309 -2.02212e-05)
(0.181973 0.00323457 -2.0541e-05)
(0.180838 0.00309609 -2.07715e-05)
(0.179693 0.00296695 -2.09227e-05)
(0.17854 0.00284638 -2.10046e-05)
(0.177379 0.00273363 -2.1027e-05)
(0.176213 0.00262794 -2.09994e-05)
(0.175041 0.00252859 -2.09305e-05)
(0.173865 0.00243491 -2.08282e-05)
(0.172684 0.0023463 -2.06994e-05)
(0.1715 0.00226221 -2.05502e-05)
(0.170313 0.00218218 -2.03857e-05)
(0.169124 0.00210579 -2.02101e-05)
(0.167933 0.00203269 -2.00269e-05)
(0.16674 0.00196257 -1.98386e-05)
(0.165546 0.00189519 -1.96475e-05)
(0.164351 0.00183033 -1.9455e-05)
(0.163157 0.00176782 -1.92624e-05)
(0.161962 0.0017075 -1.90706e-05)
(0.160769 0.00164926 -1.88801e-05)
(0.159576 0.00159297 -1.86915e-05)
(0.158386 0.00153857 -1.8505e-05)
(0.157197 0.00148596 -1.8321e-05)
(0.156011 0.00143507 -1.81396e-05)
(0.154828 0.00138584 -1.79611e-05)
(0.153648 0.00133822 -1.77856e-05)
(0.152472 0.00129214 -1.76132e-05)
(0.1513 0.00124757 -1.74443e-05)
(0.150133 0.00120443 -1.72788e-05)
(0.148971 0.0011627 -1.71171e-05)
(0.147813 0.00112232 -1.69591e-05)
(0.146662 0.00108325 -1.6805e-05)
(0.145516 0.00104544 -1.66548e-05)
(0.144377 0.00100885 -1.65085e-05)
(0.143243 0.00097344 -1.6366e-05)
(0.142117 0.000939166 -1.62272e-05)
(0.140998 0.000905989 -1.60919e-05)
(0.139886 0.00087387 -1.59596e-05)
(0.138782 0.000842772 -1.58299e-05)
(0.137685 0.000812658 -1.57023e-05)
(0.136596 0.000783494 -1.55761e-05)
(0.135516 0.000755245 -1.54503e-05)
(0.134444 0.000727879 -1.5324e-05)
(0.13338 0.000701365 -1.5196e-05)
(0.132325 0.000675673 -1.5065e-05)
(0.13128 0.000650774 -1.49292e-05)
(0.130243 0.000626641 -1.4787e-05)
(0.129215 0.000603247 -1.46362e-05)
(0.128196 0.000580567 -1.44745e-05)
(0.127187 0.00055858 -1.42993e-05)
(0.126187 0.000537261 -1.41074e-05)
(0.125196 0.000516592 -1.38956e-05)
(0.124215 0.000496555 -1.366e-05)
(0.123243 0.000477133 -1.33962e-05)
(0.122281 0.000458315 -1.30995e-05)
(0.121328 0.000440092 -1.27642e-05)
(0.120385 0.000422465 -1.23844e-05)
(0.11945 0.000405444 -1.19532e-05)
(0.118524 0.000389061 -1.14632e-05)
(0.117607 0.000373384 -1.09063e-05)
(0.116699 0.000358555 -1.02751e-05)
(0.115797 0.000344882 -9.56498e-06)
(0.114902 0.000333064 -8.78227e-06)
(0.114012 0.000324902 -7.97261e-06)
(0.113124 0.000325866 -7.33855e-06)
(0.112246 0.000354632 -7.80153e-06)
(0.111147 0.000450209 -1.27325e-05)
(0.196259 0.00495251 3.48424e-07)
(0.196492 0.00545076 1.08502e-06)
(0.196783 0.00586375 1.87882e-06)
(0.197097 0.00620203 2.63745e-06)
(0.197417 0.00648247 3.28082e-06)
(0.197736 0.00671541 3.78515e-06)
(0.198054 0.00690609 4.1455e-06)
(0.198364 0.00705819 4.35409e-06)
(0.198663 0.0071748 4.40602e-06)
(0.198947 0.00725818 4.30365e-06)
(0.199212 0.00730989 4.05343e-06)
(0.199454 0.00733107 3.66262e-06)
(0.19967 0.00732276 3.13888e-06)
(0.199856 0.0072861 2.49068e-06)
(0.200008 0.00722238 1.72762e-06)
(0.200124 0.00713317 8.60279e-07)
(0.200199 0.00702031 -9.97313e-08)
(0.200233 0.00688596 -1.1398e-06)
(0.200223 0.00673256 -2.2463e-06)
(0.200167 0.0065628 -3.4047e-06)
(0.200065 0.00637954 -4.59967e-06)
(0.199917 0.00618574 -5.81532e-06)
(0.199723 0.0059844 -7.0355e-06)
(0.199485 0.00577843 -8.24411e-06)
(0.199204 0.00557056 -9.42554e-06)
(0.198882 0.00536335 -1.0565e-05)
(0.198522 0.005159 -1.16491e-05)
(0.198125 0.00495944 -1.2666e-05)
(0.197695 0.00476619 -1.36058e-05)
(0.197234 0.00458046 -1.44612e-05)
(0.196745 0.00440307 -1.52267e-05)
(0.196229 0.00423453 -1.58998e-05)
(0.19569 0.00407507 -1.64799e-05)
(0.195129 0.00392465 -1.69686e-05)
(0.194548 0.00378305 -1.73694e-05)
(0.193949 0.00364989 -1.76875e-05)
(0.193333 0.00352466 -1.79289e-05)
(0.192701 0.00340682 -1.81007e-05)
(0.192054 0.00329576 -1.82105e-05)
(0.191394 0.00319086 -1.82659e-05)
(0.190719 0.00309155 -1.82745e-05)
(0.190032 0.00299726 -1.82435e-05)
(0.189332 0.00290746 -1.81796e-05)
(0.18862 0.00282169 -1.80891e-05)
(0.187896 0.00273954 -1.79773e-05)
(0.187161 0.00266063 -1.7849e-05)
(0.186415 0.00258466 -1.77082e-05)
(0.185657 0.00251135 -1.75583e-05)
(0.184889 0.00244047 -1.74021e-05)
(0.18411 0.00237183 -1.72418e-05)
(0.183321 0.00230528 -1.70792e-05)
(0.182521 0.00224067 -1.69158e-05)
(0.181712 0.0021779 -1.67526e-05)
(0.180894 0.00211686 -1.65905e-05)
(0.180066 0.00205749 -1.643e-05)
(0.179229 0.0019997 -1.62716e-05)
(0.178383 0.00194344 -1.61157e-05)
(0.17753 0.00188865 -1.59626e-05)
(0.176668 0.00183528 -1.58124e-05)
(0.175798 0.00178328 -1.56654e-05)
(0.174921 0.00173261 -1.55217e-05)
(0.174036 0.00168323 -1.53814e-05)
(0.173145 0.0016351 -1.52445e-05)
(0.172247 0.00158817 -1.51112e-05)
(0.171344 0.00154241 -1.49813e-05)
(0.170434 0.00149778 -1.48551e-05)
(0.169519 0.00145424 -1.47322e-05)
(0.168599 0.00141177 -1.46127e-05)
(0.167674 0.00137032 -1.44963e-05)
(0.166745 0.00132987 -1.43828e-05)
(0.165811 0.00129039 -1.42718e-05)
(0.164874 0.00125183 -1.41629e-05)
(0.163933 0.00121419 -1.40555e-05)
(0.162989 0.00117742 -1.39488e-05)
(0.162043 0.00114151 -1.38422e-05)
(0.161094 0.00110643 -1.37345e-05)
(0.160143 0.00107216 -1.36248e-05)
(0.15919 0.00103867 -1.35116e-05)
(0.158235 0.00100596 -1.33934e-05)
(0.15728 0.000973989 -1.32686e-05)
(0.156324 0.000942752 -1.31352e-05)
(0.155367 0.000912232 -1.29909e-05)
(0.15441 0.000882414 -1.28331e-05)
(0.153453 0.000853285 -1.26591e-05)
(0.152496 0.000824835 -1.24655e-05)
(0.15154 0.000797054 -1.22488e-05)
(0.150585 0.000769938 -1.20049e-05)
(0.149631 0.000743484 -1.17293e-05)
(0.148678 0.000717696 -1.1417e-05)
(0.147726 0.000692589 -1.10626e-05)
(0.146776 0.000668191 -1.06605e-05)
(0.145828 0.00064456 -1.02051e-05)
(0.14488 0.000621803 -9.69176e-06)
(0.143935 0.000600128 -9.11957e-06)
(0.14299 0.000579959 -8.49746e-06)
(0.142046 0.000562219 -7.86227e-06)
(0.141102 0.000549092 -7.33235e-06)
(0.140159 0.000546148 -7.27321e-06)
(0.139231 0.000566533 -8.74028e-06)
(0.138112 0.00062084 -1.38406e-05)
(0.196777 0.00477749 2.44485e-07)
(0.196947 0.00519954 7.59767e-07)
(0.197167 0.00557124 1.33102e-06)
(0.197418 0.00589143 1.91008e-06)
(0.197687 0.00616586 2.43371e-06)
(0.197966 0.00639943 2.872e-06)
(0.19825 0.00659504 3.21594e-06)
(0.198536 0.00675486 3.45686e-06)
(0.19882 0.00688105 3.5855e-06)
(0.1991 0.00697557 3.59742e-06)
(0.199374 0.00704006 3.49322e-06)
(0.199638 0.00707592 3.27601e-06)
(0.199892 0.00708443 2.94998e-06)
(0.200131 0.00706688 2.52028e-06)
(0.200354 0.00702463 1.99311e-06)
(0.200558 0.00695919 1.37558e-06)
(0.200741 0.00687223 6.75554e-07)
(0.200901 0.00676561 -9.83715e-08)
(0.201036 0.00664142 -9.36915e-07)
(0.201144 0.00650188 -1.83009e-06)
(0.201224 0.00634939 -2.76723e-06)
(0.201275 0.00618642 -3.73703e-06)
(0.201297 0.00601546 -4.72766e-06)
(0.20129 0.00583898 -5.7269e-06)
(0.201253 0.00565935 -6.72236e-06)
(0.201188 0.00547877 -7.70176e-06)
(0.201095 0.00529923 -8.65322e-06)
(0.200977 0.00512247 -9.56561e-06)
(0.200834 0.00494995 -1.04289e-05)
(0.200668 0.00478284 -1.12344e-05)
(0.20048 0.00462204 -1.19751e-05)
(0.200273 0.00446815 -1.26458e-05)
(0.200047 0.00432154 -1.32431e-05)
(0.199804 0.00418235 -1.37655e-05)
(0.199545 0.00405052 -1.42134e-05)
(0.199272 0.00392588 -1.45885e-05)
(0.198984 0.0038081 -1.48942e-05)
(0.198684 0.00369678 -1.51348e-05)
(0.198372 0.00359149 -1.53154e-05)
(0.198047 0.00349175 -1.54419e-05)
(0.197712 0.00339708 -1.55201e-05)
(0.197365 0.00330702 -1.55561e-05)
(0.197007 0.00322111 -1.55557e-05)
(0.196638 0.00313895 -1.55247e-05)
(0.196259 0.00306015 -1.54681e-05)
(0.195868 0.00298439 -1.53907e-05)
(0.195467 0.00291137 -1.52966e-05)
(0.195055 0.00284081 -1.51895e-05)
(0.194632 0.00277251 -1.50725e-05)
(0.194197 0.00270627 -1.49481e-05)
(0.193752 0.00264192 -1.48187e-05)
(0.193296 0.00257932 -1.4686e-05)
(0.192828 0.00251836 -1.45515e-05)
(0.19235 0.00245893 -1.44162e-05)
(0.19186 0.00240095 -1.42812e-05)
(0.191359 0.00234435 -1.41471e-05)
(0.190846 0.00228905 -1.40145e-05)
(0.190323 0.002235 -1.38838e-05)
(0.189788 0.00218215 -1.37553e-05)
(0.189242 0.00213045 -1.36294e-05)
(0.188685 0.00207985 -1.35062e-05)
(0.188118 0.00203032 -1.33858e-05)
(0.187539 0.00198181 -1.32685e-05)
(0.186949 0.0019343 -1.31541e-05)
(0.186348 0.00188774 -1.30429e-05)
(0.185737 0.0018421 -1.29346e-05)
(0.185115 0.00179734 -1.28293e-05)
(0.184483 0.00175345 -1.27269e-05)
(0.183841 0.00171039 -1.26272e-05)
(0.183188 0.00166812 -1.25298e-05)
(0.182525 0.00162663 -1.24345e-05)
(0.181852 0.00158589 -1.23407e-05)
(0.18117 0.00154588 -1.22481e-05)
(0.180478 0.00150658 -1.21559e-05)
(0.179777 0.00146795 -1.20634e-05)
(0.179066 0.00143 -1.19696e-05)
(0.178347 0.00139269 -1.18734e-05)
(0.177619 0.00135601 -1.17737e-05)
(0.176882 0.00131996 -1.16689e-05)
(0.176137 0.00128451 -1.15575e-05)
(0.175383 0.00124965 -1.14375e-05)
(0.174622 0.00121539 -1.13069e-05)
(0.173852 0.0011817 -1.11633e-05)
(0.173076 0.00114859 -1.10038e-05)
(0.172292 0.00111604 -1.08256e-05)
(0.1715 0.00108407 -1.06252e-05)
(0.170702 0.00105266 -1.03989e-05)
(0.169897 0.00102184 -1.01428e-05)
(0.169086 0.000991618 -9.85236e-06)
(0.168268 0.000962018 -9.52335e-06)
(0.167444 0.000933092 -9.15166e-06)
(0.166614 0.00090492 -8.73438e-06)
(0.165778 0.000877646 -8.27166e-06)
(0.164936 0.00085153 -7.77109e-06)
(0.164087 0.000827074 -7.25808e-06)
(0.163233 0.00080528 -6.80093e-06)
(0.162374 0.000788234 -6.57116e-06)
(0.161513 0.000780112 -6.9651e-06)
(0.160665 0.000786622 -8.67258e-06)
(0.159647 0.000798038 -1.17518e-05)
(0.197238 0.0046338 1.54685e-07)
(0.197367 0.00499289 4.80437e-07)
(0.197535 0.00532152 8.54566e-07)
(0.197734 0.00561448 1.26365e-06)
(0.197954 0.00587164 1.66902e-06)
(0.198188 0.00609447 2.04002e-06)
(0.198431 0.00628439 2.35948e-06)
(0.19868 0.00644274 2.61457e-06)
(0.198931 0.00657095 2.79354e-06)
(0.199181 0.00667046 2.88842e-06)
(0.199429 0.00674261 2.89606e-06)
(0.199673 0.00678857 2.81665e-06)
(0.19991 0.0068095 2.65206e-06)
(0.200138 0.00680655 2.4051e-06)
(0.200356 0.00678092 2.07938e-06)
(0.200563 0.00673396 1.6791e-06)
(0.200755 0.00666712 1.20892e-06)
(0.200932 0.00658204 6.73858e-07)
(0.201093 0.00648049 7.93342e-08)
(0.201235 0.0063644 -5.68742e-07)
(0.201359 0.00623582 -1.26389e-06)
(0.201463 0.00609686 -1.99896e-06)
(0.201547 0.00594968 -2.76612e-06)
(0.201611 0.00579642 -3.55684e-06)
(0.201656 0.00563913 -4.36196e-06)
(0.20168 0.00547978 -5.17187e-06)
(0.201686 0.00532015 -5.97667e-06)
(0.201674 0.00516182 -6.7665e-06)
(0.201645 0.00500619 -7.53181e-06)
(0.2016 0.00485439 -8.26368e-06)
(0.20154 0.00470732 -8.95414e-06)
(0.201467 0.00456565 -9.5964e-06)
(0.201382 0.00442985 -1.01851e-05)
(0.201285 0.00430017 -1.07162e-05)
(0.201179 0.00417671 -1.11875e-05)
(0.201063 0.0040594 -1.1598e-05)
(0.200938 0.00394808 -1.19484e-05)
(0.200806 0.0038425 -1.22404e-05)
(0.200666 0.00374233 -1.24769e-05)
(0.200519 0.00364721 -1.26615e-05)
(0.200365 0.00355678 -1.27985e-05)
(0.200205 0.00347064 -1.28926e-05)
(0.200038 0.00338843 -1.29485e-05)
(0.199865 0.00330979 -1.29712e-05)
(0.199685 0.00323438 -1.29653e-05)
(0.199498 0.00316191 -1.29353e-05)
(0.199305 0.0030921 -1.28852e-05)
(0.199105 0.00302472 -1.28189e-05)
(0.198897 0.00295953 -1.27396e-05)
(0.198683 0.00289637 -1.26502e-05)
(0.198461 0.00283505 -1.25532e-05)
(0.198231 0.00277546 -1.24508e-05)
(0.197993 0.00271745 -1.23445e-05)
(0.197746 0.00266093 -1.2236e-05)
(0.197492 0.0026058 -1.21264e-05)
(0.197229 0.00255198 -1.20166e-05)
(0.196957 0.0024994 -1.19074e-05)
(0.196675 0.00244799 -1.17992e-05)
(0.196385 0.00239771 -1.16927e-05)
(0.196086 0.00234848 -1.15881e-05)
(0.195777 0.00230027 -1.14856e-05)
(0.195458 0.00225303 -1.13854e-05)
(0.195129 0.00220671 -1.12878e-05)
(0.194791 0.00216128 -1.11926e-05)
(0.194443 0.00211668 -1.11e-05)
(0.194084 0.00207289 -1.10099e-05)
(0.193715 0.00202987 -1.09221e-05)
(0.193336 0.00198759 -1.08367e-05)
(0.192946 0.00194601 -1.07533e-05)
(0.192545 0.0019051 -1.06717e-05)
(0.192134 0.00186483 -1.05916e-05)
(0.191713 0.00182517 -1.05125e-05)
(0.19128 0.00178611 -1.04339e-05)
(0.190837 0.00174761 -1.03552e-05)
(0.190382 0.00170965 -1.02757e-05)
(0.189917 0.00167222 -1.01945e-05)
(0.189441 0.00163529 -1.01105e-05)
(0.188954 0.00159885 -1.00226e-05)
(0.188456 0.00156289 -9.92946e-06)
(0.187947 0.00152738 -9.82951e-06)
(0.187426 0.00149233 -9.72097e-06)
(0.186895 0.00145772 -9.60187e-06)
(0.186353 0.00142355 -9.46994e-06)
(0.1858 0.00138981 -9.32265e-06)
(0.185236 0.00135649 -9.15722e-06)
(0.184661 0.00132362 -8.97058e-06)
(0.184076 0.00129118 -8.7594e-06)
(0.183479 0.00125919 -8.52021e-06)
(0.182872 0.00122769 -8.24954e-06)
(0.182253 0.00119669 -7.94426e-06)
(0.181624 0.00116627 -7.60225e-06)
(0.180984 0.00113652 -7.22375e-06)
(0.180334 0.00110761 -6.81404e-06)
(0.179672 0.00107981 -6.38898e-06)
(0.179 0.00105363 -5.98656e-06)
(0.178318 0.00102996 -5.68941e-06)
(0.177628 0.00101031 -5.66077e-06)
(0.176933 0.000996635 -6.15067e-06)
(0.176246 0.000988223 -7.18985e-06)
(0.175404 0.00096565 -7.06658e-06)
(0.197651 0.00451341 7.45924e-08)
(0.197752 0.00482072 2.35691e-07)
(0.197883 0.00510878 4.37827e-07)
(0.19804 0.00537232 6.84228e-07)
(0.198218 0.00560902 9.55796e-07)
(0.198412 0.00581832 1.22967e-06)
(0.198616 0.00600031 1.48872e-06)
(0.198828 0.00615532 1.72014e-06)
(0.199044 0.00628395 1.91292e-06)
(0.199262 0.00638691 2.05826e-06)
(0.199479 0.00646503 2.15051e-06)
(0.199694 0.00651914 2.18672e-06)
(0.199905 0.00655014 2.16556e-06)
(0.20011 0.00655901 2.08667e-06)
(0.200307 0.00654679 1.9503e-06)
(0.200495 0.00651466 1.75716e-06)
(0.200673 0.00646393 1.50833e-06)
(0.200838 0.00639604 1.20518e-06)
(0.200992 0.00631254 8.49414e-07)
(0.201131 0.00621514 4.43177e-07)
(0.201256 0.0061056 -1.08063e-08)
(0.201366 0.00598579 -5.09085e-07)
(0.20146 0.00585757 -1.04736e-06)
(0.201539 0.00572282 -1.62043e-06)
(0.201603 0.00558336 -2.22211e-06)
(0.201652 0.00544093 -2.84538e-06)
(0.201687 0.00529714 -3.48246e-06)
(0.201709 0.00515344 -4.12503e-06)
(0.201718 0.00501112 -4.7645e-06)
(0.201715 0.00487128 -5.39233e-06)
(0.201701 0.00473483 -6.00032e-06)
(0.201678 0.00460247 -6.58093e-06)
(0.201646 0.00447473 -7.12751e-06)
(0.201607 0.00435195 -7.63457e-06)
(0.201561 0.00423436 -8.09784e-06)
(0.201509 0.004122 -8.51439e-06)
(0.201451 0.00401484 -8.88262e-06)
(0.20139 0.00391275 -9.20217e-06)
(0.201324 0.00381554 -9.47382e-06)
(0.201255 0.00372295 -9.69932e-06)
(0.201182 0.00363472 -9.88124e-06)
(0.201107 0.00355055 -1.00227e-05)
(0.201028 0.00347014 -1.01274e-05)
(0.200947 0.00339321 -1.01991e-05)
(0.200862 0.00331948 -1.02416e-05)
(0.200775 0.00324868 -1.0259e-05)
(0.200685 0.00318058 -1.02547e-05)
(0.200592 0.00311495 -1.02325e-05)
(0.200495 0.00305159 -1.01953e-05)
(0.200395 0.00299033 -1.01461e-05)
(0.200292 0.00293101 -1.00873e-05)
(0.200184 0.00287348 -1.00212e-05)
(0.200072 0.00281762 -9.94969e-06)
(0.199956 0.00276333 -9.87425e-06)
(0.199835 0.00271049 -9.79622e-06)
(0.199709 0.00265904 -9.71665e-06)
(0.199579 0.00260887 -9.63639e-06)
(0.199442 0.00255993 -9.55614e-06)
(0.199301 0.00251214 -9.4764e-06)
(0.199153 0.00246545 -9.39759e-06)
(0.199 0.00241979 -9.32001e-06)
(0.19884 0.00237512 -9.24387e-06)
(0.198673 0.00233138 -9.16931e-06)
(0.1985 0.00228853 -9.09642e-06)
(0.19832 0.00224651 -9.02522e-06)
(0.198133 0.00220529 -8.95567e-06)
(0.197938 0.00216482 -8.88771e-06)
(0.197736 0.00212506 -8.8212e-06)
(0.197526 0.00208598 -8.75595e-06)
(0.197307 0.00204754 -8.69172e-06)
(0.197081 0.0020097 -8.62817e-06)
(0.196846 0.00197243 -8.56491e-06)
(0.196602 0.0019357 -8.50146e-06)
(0.19635 0.00189949 -8.43724e-06)
(0.196088 0.00186376 -8.37155e-06)
(0.195817 0.0018285 -8.3036e-06)
(0.195537 0.00179368 -8.23243e-06)
(0.195247 0.00175927 -8.15694e-06)
(0.194947 0.00172526 -8.07588e-06)
(0.194637 0.00169164 -7.9878e-06)
(0.194317 0.00165839 -7.89106e-06)
(0.193986 0.0016255 -7.7838e-06)
(0.193645 0.00159296 -7.66394e-06)
(0.193294 0.00156076 -7.52916e-06)
(0.192931 0.0015289 -7.37693e-06)
(0.192558 0.00149738 -7.20453e-06)
(0.192173 0.0014662 -7.00909e-06)
(0.191778 0.00143538 -6.78778e-06)
(0.19137 0.00140494 -6.53806e-06)
(0.190951 0.00137492 -6.25823e-06)
(0.190521 0.00134539 -5.94824e-06)
(0.190078 0.00131643 -5.61141e-06)
(0.189624 0.00128822 -5.25722e-06)
(0.189158 0.00126103 -4.90604e-06)
(0.18868 0.00123525 -4.59635e-06)
(0.18819 0.00121146 -4.39129e-06)
(0.187692 0.00119025 -4.36565e-06)
(0.187187 0.00117132 -4.49413e-06)
(0.186683 0.00114982 -4.18722e-06)
(0.186045 0.00110575 -1.02889e-06)
(0.198024 0.00440787 1.89177e-09)
(0.198104 0.00467299 1.59321e-08)
(0.198206 0.00492543 6.52476e-08)
(0.198331 0.00516084 1.60471e-07)
(0.198474 0.00537639 2.96804e-07)
(0.198632 0.00557048 4.62437e-07)
(0.198801 0.00574227 6.45209e-07)
(0.198978 0.00589139 8.34293e-07)
(0.199161 0.00601776 1.01969e-06)
(0.199346 0.00612158 1.19236e-06)
(0.199533 0.00620324 1.34491e-06)
(0.199719 0.00626326 1.47175e-06)
(0.199902 0.00630228 1.56871e-06)
(0.200081 0.00632105 1.63252e-06)
(0.200255 0.00632043 1.66051e-06)
(0.200421 0.00630141 1.65042e-06)
(0.200579 0.00626509 1.6003e-06)
(0.200728 0.00621269 1.50843e-06)
(0.200866 0.00614556 1.3734e-06)
(0.200993 0.00606514 1.19417e-06)
(0.201109 0.00597295 9.70245e-07)
(0.201212 0.00587059 7.01851e-07)
(0.201303 0.00575967 3.90081e-07)
(0.201381 0.00564182 3.70524e-08)
(0.201447 0.00551864 -3.54015e-07)
(0.2015 0.00539165 -7.78785e-07)
(0.201542 0.00526231 -1.23186e-06)
(0.201573 0.00513195 -1.70694e-06)
(0.201593 0.00500176 -2.197e-06)
(0.201604 0.00487278 -2.69458e-06)
(0.201607 0.00474592 -3.19206e-06)