/*--------------------------------*- C++ -*----------------------------------*\
| =========                 |                                                 |
| \\      /  F ield         | OpenFOAM: The Open Source CFD Toolbox           |
|  \\    /   O peration     | Version:  2.3.0                                 |
|   \\  /    A nd           | Web:      www.OpenFOAM.org                      |
|    \\/     M anipulation  |                                                 |
\*---------------------------------------------------------------------------*/
FoamFile
{
    version     2.0;
    format      ascii;
    class       volScalarField;
    location    "0.4";
    object      p;
}
// * * * * * * * * * * * * * * * * * * * * * * * * * * * * * * * * * * * * * //

dimensions      [0 2 -2 0 0 0 0];

internalField   nonuniform List<scalar> 
3375
(
0.00502451
0.00440612
0.00391801
0.00355748
0.00325125
0.00297268
0.00272301
0.00250674
0.00232525
0.00217755
0.00206113
0.00197222
0.00190619
0.00185809
0.00182317
0.00179728
0.00177708
0.00176003
0.00174438
0.00172897
0.00171311
0.00169645
0.00167886
0.00166031
0.0016409
0.0016207
0.00159982
0.00157837
0.00155644
0.00153409
0.00151138
0.00148838
0.00146511
0.00144161
0.00141791
0.00139403
0.00136999
0.00134581
0.00132151
0.00129709
0.00127257
0.00124796
0.00122327
0.00119852
0.0011737
0.00114884
0.00112393
0.00109899
0.00107402
0.00104903
0.00102402
0.000999004
0.000973985
0.000948967
0.000923957
0.000898961
0.000873984
0.000849033
0.000824114
0.000799233
0.000774399
0.000749618
0.000724899
0.000700253
0.000675688
0.000651217
0.000626852
0.000602607
0.000578497
0.000554539
0.000530751
0.000507154
0.000483768
0.000460619
0.000437732
0.000415136
0.000392862
0.000370945
0.000349422
0.000328333
0.000307722
0.000287632
0.000268106
0.000249183
0.000230895
0.000213258
0.000196275
0.000179926
0.000164169
0.000148938
0.000134148
0.000119704
0.000105505
9.14365e-05
7.74242e-05
6.34034e-05
4.93345e-05
3.51991e-05
2.10014e-05
6.76926e-06
0.00475324
0.00430686
0.00389875
0.00356791
0.00327545
0.00300392
0.00275721
0.00254145
0.00235906
0.0022096
0.00209087
0.00199936
0.00193062
0.00187983
0.00184234
0.0018141
0.00179177
0.00177285
0.00175558
0.00173877
0.00172172
0.00170406
0.00168562
0.00166637
0.00164635
0.00162564
0.00160433
0.0015825
0.00156024
0.0015376
0.00151464
0.00149141
0.00146795
0.00144427
0.00142041
0.00139638
0.00137221
0.00134791
0.00132349
0.00129897
0.00127436
0.00124966
0.00122489
0.00120006
0.00117518
0.00115025
0.00112528
0.00110028
0.00107526
0.00105022
0.00102516
0.0010001
0.000975035
0.000949976
0.000924927
0.000899893
0.00087488
0.000849894
0.000824942
0.000800029
0.000775163
0.000750351
0.000725604
0.000700928
0.000676335
0.000651837
0.000627444
0.000603173
0.000579036
0.000555052
0.000531238
0.000507614
0.000484203
0.000461028
0.000438116
0.000415494
0.000393194
0.00037125
0.0003497
0.000328584
0.000307945
0.000287828
0.000268274
0.000249324
0.000231008
0.000213345
0.000196338
0.000179967
0.000164191
0.000148946
0.000134146
0.000119695
0.000105482
9.14164e-05
7.74046e-05
6.33852e-05
4.93182e-05
3.51846e-05
2.09911e-05
6.73976e-06
0.00455817
0.00421662
0.00386381
0.00355632
0.00327985
0.00302244
0.00278674
0.00257823
0.00239954
0.00225073
0.00213025
0.00203531
0.00196217
0.00190667
0.00186463
0.00183229
0.0018065
0.00178477
0.00176529
0.00174681
0.0017285
0.0017099
0.00169074
0.00167095
0.0016505
0.00162944
0.00160784
0.00158576
0.00156327
0.00154043
0.00151729
0.00149389
0.00147027
0.00144645
0.00142246
0.00139831
0.00137403
0.00134962
0.00132511
0.0013005
0.0012758
0.00125103
0.0012262
0.0012013
0.00117636
0.00115137
0.00112635
0.0011013
0.00107623
0.00105115
0.00102605
0.00100095
0.000975855
0.000950763
0.000925682
0.000900617
0.000875576
0.000850562
0.000825583
0.000800644
0.000775753
0.000750918
0.000726147
0.000701449
0.000676834
0.000652313
0.000627899
0.000603606
0.000579448
0.000555443
0.000531608
0.000507963
0.000484531
0.000461335
0.000438401
0.000415758
0.000393436
0.00037147
0.000349897
0.000328759
0.000308097
0.000287956
0.000268381
0.000249409
0.000231073
0.000213392
0.000196368
0.000179984
0.000164197
0.000148944
0.000134139
0.000119686
0.000105479
9.14159e-05
7.73978e-05
6.33709e-05
4.92985e-05
3.51569e-05
2.09497e-05
6.62804e-06
0.00438094
0.00411124
0.00381006
0.00353194
0.00327706
0.0030384
0.0028177
0.00261975
0.00244744
0.00230138
0.00218067
0.00208324
0.00200614
0.00194588
0.00189886
0.00186172
0.00183154
0.00180598
0.00178325
0.00176205
0.00174151
0.00172108
0.00170044
0.00167943
0.00165798
0.0016361
0.0016138
0.00159114
0.00156815
0.00154488
0.00152137
0.00149764
0.00147372
0.00144964
0.00142542
0.00140106
0.00137659
0.00135202
0.00132735
0.0013026
0.00127778
0.00125289
0.00122795
0.00120296
0.00117793
0.00115286
0.00112776
0.00110264
0.00107751
0.00105236
0.00102721
0.00100206
0.000976912
0.000951773
0.000926649
0.000901544
0.000876464
0.000851414
0.000826401
0.00080143
0.000776508
0.000751643
0.000726843
0.000702118
0.000677476
0.00065293
0.000628491
0.000604173
0.000579992
0.000555963
0.000532104
0.000508437
0.000484981
0.000461762
0.000438804
0.000416137
0.000393791
0.000371802
0.000350205
0.000329042
0.000308355
0.00028819
0.00026859
0.000249595
0.000231236
0.000213533
0.000196489
0.000180086
0.000164282
0.000149013
0.000134195
0.000119728
0.000105506
9.14309e-05
7.74135e-05
6.33819e-05
4.92891e-05
3.51176e-05
2.08616e-05
6.38365e-06
0.00422201
0.00400562
0.00375194
0.00350469
0.00327194
0.00305174
0.00284608
0.00265927
0.00249431
0.00235221
0.00223255
0.00213384
0.00205374
0.0019894
0.00193779
0.00189597
0.00186135
0.00183175
0.00180547
0.00178124
0.00175816
0.00173562
0.00171322
0.00169076
0.0016681
0.00164519
0.00162203
0.00159862
0.00157498
0.00155114
0.00152711
0.00150293
0.00147861
0.00145416
0.00142961
0.00140495
0.00138021
0.00135539
0.0013305
0.00130555
0.00128054
0.00125548
0.00123038
0.00120525
0.00118009
0.0011549
0.00112969
0.00110447
0.00107925
0.00105401
0.00102878
0.00100356
0.000978343
0.000953142
0.000927959
0.000902801
0.000877671
0.000852574
0.000827517
0.000802505
0.000777545
0.000752645
0.000727811
0.000703054
0.000678382
0.000653807
0.000629342
0.000604998
0.000580791
0.000556738
0.000532856
0.000509165
0.000485686
0.000462444
0.000439464
0.000416774
0.000394405
0.000372392
0.000350772
0.000329584
0.000308873
0.000288683
0.000269056
0.000250033
0.000231645
0.000213912
0.000196836
0.000180399
0.00016456
0.000149255
0.0001344
0.000119896
0.000105639
9.15273e-05
7.74735e-05
6.34087e-05
4.92881e-05
3.50838e-05
2.0756e-05
6.00474e-06
0.00408465
0.00390673
0.0036925
0.00347392
0.00326231
0.00305974
0.00286884
0.00269346
0.00253654
0.00239935
0.00228183
0.00218295
0.00210091
0.00203344
0.00197798
0.00193206
0.00189337
0.00185997
0.00183027
0.00180304
0.00177737
0.00175262
0.00172837
0.00170432
0.00168033
0.00165627
0.00163212
0.00160785
0.00158345
0.00155894
0.00153432
0.0015096
0.0014848
0.00145991
0.00143496
0.00140994
0.00138487
0.00135975
0.00133458
0.00130937
0.00128413
0.00125886
0.00123356
0.00120825
0.00118292
0.00115758
0.00113223
0.00110688
0.00108154
0.0010562
0.00103086
0.00100554
0.000980243
0.000954962
0.000929706
0.00090448
0.000879287
0.000854133
0.000829023
0.000803962
0.000778957
0.000754015
0.000729144
0.000704351
0.000679647
0.000655043
0.000630549
0.000606179
0.000581949
0.000557873
0.00053397
0.000510259
0.000486761
0.0004635
0.000440501
0.000417792
0.000395405
0.000373373
0.000351733
0.000330524
0.00030979
0.000289574
0.000269919
0.000250863
0.000232437
0.00021466
0.000197533
0.00018104
0.000165139
0.000149767
0.000134843
0.000120268
0.000105941
9.17631e-05
7.76474e-05
6.35258e-05
4.93494e-05
3.50788e-05
2.06376e-05
5.56919e-06
0.00396551
0.00381503
0.00363243
0.00343975
0.00324838
0.0030628
0.00288629
0.00272234
0.00257376
0.00244201
0.00232734
0.00222911
0.00214601
0.00207622
0.00201767
0.00196826
0.00192599
0.00188914
0.00185625
0.00182615
0.00179796
0.00177103
0.0017449
0.00171924
0.00169385
0.0016686
0.00164341
0.00161823
0.00159303
0.0015678
0.00154254
0.00151725
0.00149192
0.00146656
0.00144117
0.00141576
0.00139032
0.00136487
0.00133939
0.0013139
0.0012884
0.00126289
0.00123738
0.00121186
0.00118634
0.00116083
0.00113532
0.00110982
0.00108434
0.00105887
0.00103343
0.001008
0.000982599
0.000957227
0.000931888
0.000906585
0.000881322
0.000856104
0.000830935
0.000805821
0.000780767
0.000755781
0.00073087
0.000706042
0.000681306
0.000656673
0.000632153
0.000607761
0.000583511
0.000559417
0.000535498
0.000511773
0.000488262
0.000464989
0.000441979
0.000419259
0.00039686
0.000374816
0.000353162
0.000331938
0.000311184
0.000290944
0.000271258
0.000252163
0.000233689
0.000215853
0.000198656
0.000182081
0.000166087
0.000150614
0.000135583
0.000120899
0.000106465
9.21847e-05
7.79744e-05
6.37659e-05
4.95069e-05
3.51464e-05
2.05735e-05
5.24811e-06
0.00386123
0.00373087
0.00357352
0.00340373
0.00323133
0.00306185
0.00289904
0.00274621
0.00260599
0.00247996
0.00236863
0.00227172
0.00218827
0.00211691
0.00205595
0.00200364
0.0019583
0.00191838
0.00188258
0.00184982
0.00181924
0.0017902
0.00176222
0.00173496
0.00170818
0.00168172
0.00165546
0.00162935
0.00160332
0.00157735
0.00155142
0.00152553
0.00149966
0.0014738
0.00144796
0.00142213
0.00139631
0.00137051
0.00134471
0.00131892
0.00129315
0.00126739
0.00124164
0.0012159
0.00119019
0.00116449
0.00113881
0.00111316
0.00108753
0.00106193
0.00103636
0.00101082
0.000985313
0.000959846
0.000934419
0.000909035
0.000883699
0.000858414
0.000833185
0.000808017
0.000782915
0.000757886
0.000732937
0.000708075
0.000683311
0.000658653
0.000634114
0.000609705
0.00058544
0.000561336
0.000537408
0.000513677
0.000490162
0.000466886
0.000443873
0.000421152
0.000398751
0.000376703
0.000355043
0.000333809
0.000313041
0.000292779
0.000273061
0.000253924
0.000235393
0.000217485
0.000200199
0.000183519
0.000167405
0.0001518
0.000136628
0.000121801
0.000107226
9.28101e-05
7.84741e-05
6.41503e-05
4.97833e-05
3.53133e-05
2.06127e-05
5.16526e-06
0.00376929
0.00365419
0.00351701
0.003367
0.00321195
0.00305748
0.00290757
0.0027654
0.00263345
0.00251332
0.00240573
0.00231067
0.0022275
0.00215521
0.00209246
0.00203782
0.00198987
0.00194728
0.00190886
0.00187365
0.00184083
0.00180978
0.00178002
0.00175119
0.00172303
0.00169535
0.00166802
0.00164095
0.00161408
0.00158735
0.00156075
0.00153423
0.0015078
0.00148144
0.00145513
0.00142887
0.00140266
0.00137649
0.00135036
0.00132427
0.00129821
0.00127219
0.0012462
0.00122024
0.00119432
0.00116843
0.00114258
0.00111676
0.00109098
0.00106524
0.00103955
0.00101389
0.000988277
0.000962711
0.000937195
0.00091173
0.00088632
0.000860969
0.00083568
0.000810459
0.00078531
0.000760241
0.000735256
0.000710365
0.000685576
0.000660899
0.000636344
0.000611924
0.000587652
0.000563544
0.000539616
0.000515887
0.000492376
0.000469106
0.0004461
0.000423385
0.000400991
0.000378947
0.000357289
0.000336052
0.000315274
0.000294993
0.000275244
0.000256061
0.000237467
0.000219477
0.00020209
0.000185288
0.000169034
0.000153275
0.000137938
0.000122942
0.000108199
9.36225e-05
7.91363e-05
6.46743e-05
5.01798e-05
3.55899e-05
2.07831e-05
5.35968e-06
0.00368764
0.00358452
0.00346352
0.00333039
0.00319091
0.00305028
0.00291244
0.00278042
0.00265653
0.00254238
0.00243882
0.00234603
0.00226367
0.00219101
0.00212704
0.00207059
0.00202048
0.00197558
0.00193485
0.00189742
0.00186252
0.00182958
0.00179811
0.00176775
0.00173823
0.00170934
0.00168094
0.00165291
0.00162518
0.00159769
0.00157038
0.00154324
0.00151624
0.00148935
0.00146256
0.00143587
0.00140925
0.00138271
0.00135624
0.00132983
0.00130348
0.00127719
0.00125095
0.00122477
0.00119863
0.00117255
0.00114652
0.00112054
0.0010946
0.00106872
0.0010429
0.00101712
0.0009914
0.000965736
0.000940129
0.000914582
0.000889098
0.000863681
0.000838334
0.000813061
0.000787868
0.000762759
0.000737742
0.000712825
0.000688015
0.000663321
0.000638755
0.000614329
0.000590056
0.000565949
0.000542026
0.000518305
0.000494805
0.000471547
0.000448554
0.000425854
0.000403472
0.000381439
0.000359788
0.000338553
0.000317768
0.000297469
0.000277691
0.00025846
0.0002398
0.000221723
0.000204226
0.000187292
0.000170887
0.000154959
0.000139443
0.000124262
0.000109335
9.45815e-05
7.99287e-05
6.53132e-05
5.06789e-05
3.5966e-05
2.10775e-05
5.77437e-06
0.00361471
0.00352122
0.00341337
0.00329453
0.00316886
0.00304085
0.00291419
0.00279174
0.00267564
0.00256745
0.00246808
0.00237791
0.00229681
0.00222428
0.00215958
0.0021018
0.00204996
0.00200312
0.00196038
0.00192095
0.00188416
0.00184945
0.00181635
0.00178453
0.00175368
0.0017236
0.00169414
0.00166515
0.00163656
0.00160828
0.00158027
0.00155249
0.0015249
0.00149748
0.0014702
0.00144306
0.00141603
0.00138911
0.00136229
0.00133556
0.00130891
0.00128234
0.00125585
0.00122943
0.00120308
0.0011768
0.00115058
0.00112443
0.00109834
0.00107232
0.00104636
0.00102046
0.000994628
0.000968862
0.000943163
0.000917534
0.000891976
0.000866493
0.000841087
0.000815763
0.000790525
0.000765379
0.000740331
0.000715388
0.000690558
0.000665851
0.000641277
0.000616847
0.000592574
0.000568473
0.000544559
0.000520849
0.000497363
0.000474122
0.000451147
0.000428463
0.000406098
0.000384079
0.000362438
0.000341206
0.000320417
0.000300102
0.000280292
0.000261014
0.000242286
0.000224118
0.000206507
0.000189437
0.000172875
0.000156774
0.000141072
0.000125699
0.00011058
9.56409e-05
8.08126e-05
6.60348e-05
5.12544e-05
3.64188e-05
2.14638e-05
6.30162e-06
0.00354921
0.00346369
0.00336662
0.00325989
0.00314635
0.00302972
0.00291334
0.00279982
0.00269116
0.00258882
0.00249377
0.00240647
0.00232698
0.00225501
0.00219003
0.00213135
0.00207819
0.00202976
0.0019853
0.00194412
0.00190561
0.00186927
0.00183466
0.00180143
0.0017693
0.00173807
0.00170755
0.00167761
0.00164815
0.0016191
0.00159037
0.00156194
0.00153376
0.00150579
0.00147802
0.00145041
0.00142296
0.00139565
0.00136847
0.00134141
0.00131446
0.00128761
0.00126086
0.0012342
0.00120762
0.00118114
0.00115473
0.0011284
0.00110216
0.00107598
0.00104989
0.00102387
0.000997925
0.000972056
0.000946265
0.000920551
0.000894918
0.000869367
0.000843902
0.000818526
0.000793243
0.000768059
0.00074298
0.000718012
0.000693164
0.000668444
0.000643862
0.000619429
0.000595159
0.000571064
0.000547159
0.000523463
0.000499993
0.000476768
0.000453812
0.000431147
0.000408799
0.000386796
0.000365165
0.000343937
0.000323142
0.000302811
0.000282969
0.000263641
0.000244844
0.000226584
0.000208859
0.000191653
0.000174933
0.000158657
0.000142768
0.000127202
0.000111889
9.67614e-05
8.17539e-05
6.68101e-05
5.18807e-05
3.69225e-05
2.1902e-05
6.83915e-06
0.00349014
0.00341131
0.00332323
0.00322676
0.0031238
0.00301735
0.00291035
0.00280512
0.0027035
0.00260684
0.00251612
0.00243187
0.00235428
0.00228324
0.00221837
0.00215918
0.00210506
0.00205537
0.00200948
0.00196679
0.00192676
0.00188894
0.00185291
0.00181837
0.00178502
0.00175266
0.00172112
0.00169024
0.00165993
0.00163009
0.00160065
0.00157156
0.00154278
0.00151426
0.00148598
0.00145791
0.00143003
0.00140232
0.00137478
0.00134738
0.00132011
0.00129297
0.00126595
0.00123905
0.00121225
0.00118555
0.00115895
0.00113245
0.00110604
0.00107971
0.00105348
0.00102733
0.00100127
0.000975299
0.000949412
0.000923613
0.000897902
0.000872283
0.000846757
0.000821328
0.000796
0.000770777
0.000745666
0.000720673
0.000695806
0.000671072
0.000646482
0.000622047
0.000597778
0.000573688
0.000549794
0.00052611
0.000502656
0.000479449
0.000456511
0.000433864
0.000411533
0.000389543
0.000367921
0.000346696
0.000325894
0.000305544
0.000285669
0.000266291
0.000247423
0.000229072
0.000211233
0.00019389
0.000177015
0.000160566
0.000144493
0.000128736
0.000113231
9.79148e-05
8.27279e-05
6.76172e-05
5.25376e-05
3.74547e-05
2.23575e-05
7.32143e-06
0.00343668
0.00336358
0.00328304
0.00319531
0.00310155
0.00300416
0.00290564
0.00280805
0.00271302
0.00262183
0.0025354
0.00245431
0.00237884
0.002309
0.00224459
0.00218524
0.0021305
0.00207986
0.00203281
0.00198884
0.00194748
0.00190833
0.00187102
0.00183525
0.00180075
0.00176732
0.00173478
0.00170299
0.00167183
0.00164121
0.00161106
0.00158132
0.00155193
0.00152286
0.00149407
0.00146552
0.00143721
0.0014091
0.00138118
0.00135343
0.00132585
0.00129842
0.00127113
0.00124397
0.00121694
0.00119003
0.00116323
0.00113654
0.00110997
0.00108349
0.00105711
0.00103084
0.00100466
0.000978579
0.000952594
0.000926707
0.000900917
0.000875227
0.000849639
0.000824156
0.000798781
0.000773519
0.000748375
0.000723356
0.000698468
0.00067372
0.000649121
0.000624681
0.000600413
0.000576329
0.000552443
0.000528771
0.000505331
0.00048214
0.000459218
0.000436588
0.000414272
0.000392294
0.000370679
0.000349454
0.000328643
0.000308272
0.000288362
0.000268932
0.000249993
0.00023155
0.000213598
0.000196121
0.000179094
0.000162477
0.000146223
0.000130278
0.000114585
9.90831e-05
8.37184e-05
6.84412e-05
5.32105e-05
3.79987e-05
2.28068e-05
7.72309e-06
0.00338818
0.00332002
0.0032459
0.00316563
0.00307987
0.00299048
0.00289959
0.00280899
0.00272011
0.00263411
0.00255186
0.00247398
0.00240078
0.00233239
0.0022687
0.0022095
0.00215444
0.00210314
0.00205519
0.00201016
0.00196767
0.00192735
0.00188888
0.00185198
0.00181641
0.00178196
0.00174846
0.00171579
0.0016838
0.00165243
0.00162157
0.00159118
0.00156119
0.00153156
0.00150225
0.00147323
0.00144447
0.00141596
0.00138766
0.00135957
0.00133166
0.00130393
0.00127636
0.00124895
0.00122168
0.00119455
0.00116755
0.00114068
0.00111393
0.0010873
0.00106078
0.00103437
0.00100807
0.000981883
0.000955799
0.000929822
0.000903952
0.00087819
0.000852538
0.000826999
0.000801576
0.000776273
0.000751095
0.000726048
0.000701139
0.000676375
0.000651766
0.000627321
0.000603052
0.000578972
0.000555093
0.000531432
0.000508004
0.000484827
0.00046192
0.000439305
0.000417001
0.000395032
0.000373422
0.000352194
0.000331372
0.000310978
0.000291031
0.000271547
0.000252536
0.000234002
0.000215938
0.000198331
0.000181154
0.000164373
0.000147944
0.000131817
0.000115939
0.000100255
8.47149e-05
6.92722e-05
5.38895e-05
3.85431e-05
2.32373e-05
8.04701e-06
0.00334408
0.00328024
0.00321162
0.00313775
0.00305893
0.0029766
0.00289255
0.00280829
0.00272509
0.00264399
0.00256579
0.00249109
0.00242027
0.00235348
0.00229076
0.00223195
0.00217684
0.00212514
0.00207653
0.00203067
0.00198723
0.0019459
0.0019064
0.00186847
0.00183191
0.00179651
0.00176211
0.00172858
0.0016958
0.00166368
0.00163214
0.0016011
0.00157051
0.00154032
0.0015105
0.001481
0.00145181
0.00142288
0.0013942
0.00136576
0.00133752
0.00130949
0.00128164
0.00125397
0.00122646
0.00119911
0.00117191
0.00114485
0.00111793
0.00109113
0.00106447
0.00103793
0.00101151
0.000985203
0.000959017
0.000932949
0.000906996
0.000881161
0.000855444
0.000829848
0.000804376
0.00077903
0.000753817
0.000728741
0.000703809
0.000679028
0.000654408
0.000629956
0.000605686
0.000581607
0.000557734
0.000534081
0.000510664
0.000487499
0.000464605
0.000442001
0.000419708
0.000397746
0.000376137
0.000354904
0.000334068
0.000313648
0.000293662
0.000274123
0.000255041
0.000236416
0.000218243
0.000200508
0.000183186
0.000166245
0.000149646
0.000133342
0.000117284
0.000101423
8.57097e-05
7.01028e-05
5.45671e-05
3.90802e-05
2.36435e-05
8.30848e-06
0.00330394
0.00324389
0.00318001
0.00311166
0.00303887
0.00296275
0.00288479
0.00280627
0.00272829
0.00265176
0.00257743
0.00250586
0.00243744
0.0023724
0.0023108
0.00225261
0.00219768
0.00214581
0.00209675
0.00205026
0.00200605
0.00196386
0.00192346
0.00188463
0.00184716
0.00181087
0.00177563
0.00174129
0.00170775
0.00167491
0.00164269
0.00161102
0.00157985
0.00154911
0.00151878
0.00148881
0.00145917
0.00142983
0.00140077
0.00137197
0.00134341
0.00131507
0.00128694
0.00125901
0.00123126
0.00120369
0.00117628
0.00114903
0.00112193
0.00109498
0.00106816
0.00104149
0.00101494
0.000988525
0.000962237
0.000936075
0.00091004
0.00088413
0.000858347
0.000832693
0.00080717
0.000781781
0.000756531
0.000731425
0.000706469
0.00068167
0.000657037
0.000632578
0.000608304
0.000584226
0.000560357
0.000536711
0.000513302
0.000490148
0.000467264
0.000444669
0.000422383
0.000400425
0.000378816
0.000357575
0.000336722
0.000316274
0.000296247
0.000276653
0.000257499
0.000238785
0.000220504
0.000202644
0.000185182
0.000168087
0.000151323
0.000134847
0.000118615
0.00010258
8.66975e-05
7.09281e-05
5.52384e-05
3.96059e-05
2.40258e-05
8.52576e-06
0.00326738
0.00321067
0.00315091
0.00308734
0.00301978
0.00294912
0.00287657
0.00280322
0.00273
0.00265772
0.00258704
0.0025185
0.00245249
0.00238926
0.00232893
0.00227151
0.00221695
0.00216511
0.00211582
0.00206887
0.00202406
0.00198117
0.00194001
0.00190037
0.00186208
0.00182499
0.00178896
0.00175387
0.0017196
0.00168607
0.0016532
0.00162092
0.00158917
0.00155789
0.00152706
0.00149661
0.00146653
0.00143679
0.00140735
0.0013782
0.00134931
0.00132066
0.00129225
0.00126406
0.00123606
0.00120826
0.00118065
0.00115321
0.00112593
0.00109881
0.00107185
0.00104504
0.00101837
0.000991836
0.000965444
0.000939189
0.000913069
0.000887084
0.000861234
0.000835521
0.000809946
0.000784513
0.000759226
0.000734089
0.000709108
0.000684289
0.000659642
0.000635173
0.000610894
0.000586815
0.000562949
0.000539307
0.000515905
0.000492759
0.000469883
0.000447296
0.000425015
0.000403058
0.000381445
0.000360194
0.000339322
0.000318844
0.000298776
0.000279126
0.0002599
0.000241097
0.000222712
0.000204731
0.000187132
0.000169889
0.000152965
0.000136324
0.000119923
0.000103719
8.76705e-05
7.17405e-05
5.58965e-05
4.01147e-05
2.43837e-05
8.71101e-06
0.00323409
0.00318034
0.00312416
0.00306474
0.00300175
0.00293587
0.00286811
0.00279938
0.00273049
0.00266211
0.00259486
0.00252922
0.00246557
0.00240417
0.00234519
0.00228869
0.00223465
0.002183
0.00213364
0.00208641
0.00204116
0.00199771
0.0019559
0.00191557
0.00187657
0.00183875
0.001802
0.0017662
0.00173125
0.00169707
0.00166358
0.00163071
0.0015984
0.0015666
0.00153527
0.00150436
0.00147385
0.0014437
0.00141389
0.00138439
0.00135517
0.00132622
0.00129753
0.00126907
0.00124084
0.00121281
0.00118499
0.00115736
0.0011299
0.00110263
0.00107551
0.00104856
0.00102177
0.000995122
0.000968627
0.000942278
0.000916073
0.000890012
0.000864095
0.000838322
0.000812695
0.000787217
0.000761891
0.000736723
0.000711716
0.000686877
0.000662214
0.000637735
0.00061345
0.000589368
0.000565502
0.000541864
0.000518467
0.000495326
0.000472456
0.000449874
0.000427595
0.000405638
0.000384019
0.000362755
0.000341862
0.000321354
0.000301242
0.000281536
0.000262239
0.00024335
0.000224863
0.000206765
0.000189035
0.000171648
0.000154571
0.00013777
0.000121206
0.000104838
8.86273e-05
7.2539e-05
5.65411e-05
4.06082e-05
2.47226e-05
8.87685e-06
0.0032038
0.00315267
0.00309963
0.00304381
0.0029848
0.00292311
0.00285959
0.002795
0.00273001
0.00266522
0.00260115
0.00253826
0.0024769
0.00241735
0.00235976
0.00230426
0.00225086
0.00219955
0.00215027
0.0021029
0.00205734
0.00201346
0.00197113
0.00193021
0.00189058
0.00185211
0.00181471
0.00177826
0.00174267
0.00170787
0.00167379
0.00164035
0.0016075
0.0015752
0.00154339
0.00151203
0.0014811
0.00145055
0.00142037
0.00139051
0.00136098
0.00133173
0.00130275
0.00127404
0.00124556
0.00121732
0.00118929
0.00116146
0.00113383
0.00110639
0.00107913
0.00105204
0.00102512
0.000998361
0.000971762
0.000945319
0.000919029
0.000892892
0.000866907
0.000841074
0.000815394
0.000789871
0.000764506
0.000739305
0.000714271
0.000689411
0.000664732
0.000640241
0.000615948
0.000591862
0.000567995
0.000544358
0.000520964
0.000497827
0.000474961
0.000452381
0.000430103
0.000408142
0.000386515
0.000365237
0.000344321
0.000323781
0.000303626
0.000283863
0.000264496
0.000245524
0.000226938
0.000208726
0.000190871
0.000173346
0.000156123
0.000139169
0.000122447
0.00010592
8.95526e-05
7.33092e-05
5.71591e-05
4.10753e-05
2.50356e-05
9.02091e-06
0.00317113
0.00312277
0.00307298
0.00302088
0.00296597
0.00290862
0.00284952
0.00278928
0.00272844
0.00266751
0.00260692
0.00254708
0.00248832
0.0024309
0.002375
0.00232076
0.00226824
0.00221747
0.00216842
0.00212105
0.00207529
0.00203105
0.00198823
0.00194674
0.00190647
0.00186734
0.00182924
0.0017921
0.00175582
0.00172035
0.0016856
0.00165153
0.00161808
0.0015852
0.00155284
0.00152097
0.00148955
0.00145854
0.00142793
0.00139768
0.00136776
0.00133817
0.00130887
0.00127985
0.00125109
0.00122258
0.00119431
0.00116626
0.00113843
0.0011108
0.00108336
0.00105611
0.00102904
0.00100215
0.00097543
0.000948876
0.000922487
0.00089626
0.000870195
0.000844291
0.000818549
0.000792972
0.000767561
0.00074232
0.000717254
0.000692367
0.000667668
0.000643162
0.000618859
0.000594767
0.000570896
0.000547259
0.000523866
0.000500731
0.000477867
0.000455287
0.000433007
0.000411041
0.000389402
0.000368104
0.000347159
0.00032658
0.000306373
0.000286544
0.000267096
0.000248026
0.000229327
0.000210987
0.000192987
0.000175306
0.000157917
0.000140788
0.000123887
0.000107178
9.06287e-05
7.4205e-05
5.78765e-05
4.16149e-05
2.53948e-05
9.18399e-06
0.00313744
0.00309184
0.00304525
0.00299677
0.00294585
0.00289276
0.002838
0.00278209
0.00272545
0.00266846
0.0026115
0.00255491
0.00249897
0.00244394
0.00239
0.00233729
0.00228591
0.00223592
0.00218735
0.00214018
0.00209438
0.00204992
0.00200672
0.00196474
0.0019239
0.00188412
0.00184534
0.00180749
0.0017705
0.00173431
0.00169887
0.00166412
0.00163001
0.00159649
0.00156353
0.00153108
0.00149912
0.0014676
0.0014365
0.00140579
0.00137545
0.00134546
0.00131579
0.00128642
0.00125734
0.00122854
0.00119999
0.00117168
0.00114361
0.00111576
0.00108812
0.00106069
0.00103345
0.0010064
0.000979543
0.000952861
0.000926357
0.000900027
0.000873869
0.000847883
0.00082207
0.00079643
0.000770965
0.000745678
0.000720574
0.000695657
0.000670933
0.000646408
0.000622091
0.00059799
0.000574114
0.000550475
0.000527081
0.000503946
0.000481082
0.000458501
0.000436216
0.000414239
0.000392584
0.000371262
0.000350283
0.000329657
0.00030939
0.000289487
0.000269948
0.00025077
0.000231946
0.000213464
0.000195307
0.000177456
0.000159884
0.000142563
0.000125464
0.000108554
9.18014e-05
7.51744e-05
5.86431e-05
4.21791e-05
2.57564e-05
9.33949e-06
0.00310694
0.0030638
0.00302001
0.0029747
0.00292726
0.00287786
0.00282693
0.00277485
0.00272194
0.00266852
0.00261488
0.00256131
0.00250806
0.00245534
0.00240335
0.00235223
0.00230208
0.002253
0.00220504
0.00215822
0.00211255
0.00206801
0.00202459
0.00198225
0.00194095
0.00190064
0.00186127
0.00182279
0.00178516
0.00174832
0.00171222
0.00167682
0.00164208
0.00160795
0.0015744
0.00154139
0.00150889
0.00147686
0.00144528
0.00141412
0.00138335
0.00135296
0.00132291
0.00129319
0.00126379
0.00123468
0.00120585
0.00117728
0.00114897
0.00112089
0.00109305
0.00106543
0.00103801
0.00101081
0.000983802
0.000956988
0.000930364
0.000903926
0.000877671
0.000851599
0.000825709
0.000800002
0.000774478
0.000749141
0.000723994
0.000699041
0.000674288
0.00064974
0.000625404
0.000601289
0.000577402
0.000553754
0.000530355
0.000507214
0.000484343
0.000461754
0.000439458
0.000417465
0.000395788
0.000374436
0.000353417
0.00033274
0.000312409
0.000292428
0.000272795
0.000253508
0.000234559
0.000215936
0.000197624
0.000179603
0.000161851
0.000144341
0.000127046
0.000109935
9.29774e-05
7.6144e-05
5.94056e-05
4.27352e-05
2.61091e-05
9.49328e-06
0.0030801
0.00303905
0.00299764
0.00295496
0.00291042
0.00286412
0.00281639
0.00276753
0.00271781
0.00266746
0.00261671
0.00256582
0.00251498
0.00246439
0.00241423
0.00236463
0.00231573
0.00226761
0.00222034
0.00217398
0.00212856
0.00208409
0.00204058
0.00199803
0.0019564
0.00191568
0.00187585
0.00183685
0.00179867
0.00176126
0.00172459
0.00168862
0.0016533
0.00161862
0.00158453
0.001551
0.001518
0.0014855
0.00145346
0.00142188
0.00139071
0.00135993
0.00132953
0.00129948
0.00126977
0.00124037
0.00121127
0.00118245
0.00115391
0.00112562
0.00109758
0.00106978
0.0010422
0.00101485
0.000987702
0.000960763
0.000934026
0.000907486
0.00088114
0.000854987
0.000829025
0.000803255
0.000777677
0.000752294
0.000727107
0.000702121
0.000677341
0.000652771
0.000628419
0.00060429
0.000580395
0.000556739
0.000533334
0.000510188
0.000487312
0.000464715
0.000442408
0.000420401
0.000398702
0.000377321
0.000356266
0.000335541
0.00031515
0.000295097
0.000275379
0.000255992
0.000236929
0.000218178
0.000199725
0.000181551
0.000163634
0.000145951
0.000128475
0.000111176
9.40253e-05
7.69942e-05
6.00551e-05
4.31837e-05
2.63637e-05
9.57478e-06
0.00305814
0.00301883
0.00297933
0.00293879
0.00289658
0.00285275
0.0028076
0.00276136
0.00271423
0.00266641
0.00261807
0.00256942
0.00252064
0.00247191
0.00242336
0.00237515
0.0023274
0.00228019
0.00223363
0.00218778
0.00214268
0.00209837
0.00205488
0.00201222
0.00197039
0.00192938
0.00188919
0.00184979
0.00181116
0.00177329
0.00173613
0.00169966
0.00166386
0.00162869
0.00159412
0.00156013
0.00152668
0.00149375
0.00146131
0.00142933
0.00139779
0.00136666
0.00133593
0.00130558
0.00127557
0.0012459
0.00121655
0.0011875
0.00115874
0.00113025
0.00110203
0.00107405
0.00104632
0.00101881
0.000991536
0.000964476
0.000937627
0.000910987
0.00088455
0.000858316
0.000832281
0.000806445
0.00078081
0.000755376
0.000730145
0.000705121
0.000680308
0.000655711
0.000631335
0.000607187
0.000583274
0.000559604
0.000536184
0.000513025
0.000490135
0.000467522
0.000445196
0.000423166
0.00040144
0.000380025
0.000358926
0.00033815
0.000317699
0.000297573
0.000277771
0.000258287
0.000239115
0.000220242
0.000201655
0.000183336
0.000165266
0.000147421
0.000129775
0.000112299
9.49653e-05
7.77426e-05
6.06039e-05
4.35272e-05
2.65065e-05
9.55554e-06
0.00304152
0.00300346
0.00296535
0.00292633
0.00288579
0.00284375
0.00280044
0.00275609
0.00271084
0.00266485
0.00261829
0.00257131
0.00252407
0.00247673
0.00242943
0.0023823
0.00233546
0.00228901
0.00224304
0.00219763
0.00215284
0.00210872
0.0020653
0.00202261
0.00198067
0.00193949
0.00189906
0.00185939
0.00182045
0.00178224
0.00174473
0.0017079
0.00167174
0.0016362
0.00160128
0.00156693
0.00153314
0.00149988
0.00146713
0.00143485
0.00140303
0.00137164
0.00134066
0.00131006
0.00127984
0.00124996
0.00122042
0.00119119
0.00116226
0.00113362
0.00110525
0.00107714
0.00104929
0.00102168
0.000994298
0.000967146
0.000940216
0.000913501
0.000886998
0.000860704
0.000834617
0.000808735