/*--------------------------------*- C++ -*----------------------------------*\
| =========                 |                                                 |
| \\      /  F ield         | OpenFOAM: The Open Source CFD Toolbox           |
|  \\    /   O peration     | Version:  2.3.0                                 |
|   \\  /    A nd           | Web:      www.OpenFOAM.org                      |
|    \\/     M anipulation  |                                                 |
\*---------------------------------------------------------------------------*/
FoamFile
{
    version     2.0;
    format      ascii;
    class       surfaceScalarField;
    location    "0.95";
    object      phi_0;
}
// * * * * * * * * * * * * * * * * * * * * * * * * * * * * * * * * * * * * * //

dimensions      [0 3 -1 0 0 0 0];

internalField   nonuniform List<scalar> 
2863
(
2.80641e-08
2.92467e-09
-3.09887e-08
2.51571e-08
2.90703e-09
2.24275e-08
2.7296e-09
1.99106e-08
2.5169e-09
1.76244e-08
2.28618e-09
1.55812e-08
2.04317e-09
1.37846e-08
1.7966e-09
1.22298e-08
1.5548e-09
1.09049e-08
1.32495e-09
9.79186e-09
1.11299e-09
8.86851e-09
9.23356e-10
8.10984e-09
7.58671e-10
7.49016e-09
6.19682e-10
6.98469e-09
5.05469e-10
6.57085e-09
4.13836e-10
6.22905e-09
3.41797e-10
5.94302e-09
2.86034e-10
5.69974e-09
2.43284e-10
5.48914e-09
2.10591e-10
5.30369e-09
1.85452e-10
5.13784e-09
1.65857e-10
4.98757e-09
1.50263e-10
4.85004e-09
1.37535e-10
4.72317e-09
1.26865e-10
4.60548e-09
1.17696e-10
4.49582e-09
1.09652e-10
4.39334e-09
1.02486e-10
4.29731e-09
9.60327e-11
4.20712e-09
9.01825e-11
4.12226e-09
8.48585e-11
4.04226e-09
8.00037e-11
3.96669e-09
7.55723e-11
3.89516e-09
7.15253e-11
3.82734e-09
6.78276e-11
3.76289e-09
6.44468e-11
3.70154e-09
6.13529e-11
3.64302e-09
5.8518e-11
3.5871e-09
5.59163e-11
3.53358e-09
5.35242e-11
3.48226e-09
5.132e-11
3.43297e-09
4.92844e-11
3.38557e-09
4.74001e-11
3.33992e-09
4.56514e-11
3.2959e-09
4.40246e-11
3.25339e-09
4.25075e-11
3.2123e-09
4.10893e-11
3.17254e-09
3.97604e-11
3.13403e-09
3.85125e-11
3.09669e-09
3.73381e-11
3.06046e-09
3.62307e-11
3.02527e-09
3.51845e-11
2.99108e-09
3.41943e-11
2.95782e-09
3.32554e-11
2.92546e-09
3.23639e-11
2.89394e-09
3.15161e-11
2.86324e-09
3.07085e-11
2.8333e-09
2.99384e-11
2.80409e-09
2.92029e-11
2.77559e-09
2.84997e-11
2.74777e-09
2.78265e-11
2.72059e-09
2.71814e-11
2.69402e-09
2.65625e-11
2.66806e-09
2.59682e-11
2.64266e-09
2.53968e-11
2.61781e-09
2.48471e-11
2.59349e-09
2.43177e-11
2.56969e-09
2.38075e-11
2.54637e-09
2.33152e-11
2.52353e-09
2.284e-11
2.50115e-09
2.2381e-11
2.47921e-09
2.19371e-11
2.45771e-09
2.15077e-11
2.43661e-09
2.1092e-11
2.41592e-09
2.06894e-11
2.39562e-09
2.02992e-11
2.3757e-09
1.99208e-11
2.35615e-09
1.95538e-11
2.33695e-09
1.91976e-11
2.3181e-09
1.88518e-11
2.29958e-09
1.85161e-11
2.28139e-09
1.81902e-11
2.26352e-09
1.78736e-11
2.24595e-09
1.75663e-11
2.22869e-09
1.7268e-11
2.21171e-09
1.69786e-11
2.19501e-09
1.66981e-11
2.17858e-09
1.64265e-11
2.16242e-09
1.61641e-11
2.14651e-09
1.59112e-11
2.13084e-09
1.56682e-11
2.1154e-09
1.5436e-11
2.10019e-09
1.52163e-11
2.08518e-09
1.50117e-11
2.07035e-09
1.48276e-11
2.05567e-09
1.46752e-11
2.04109e-09
1.45814e-11
2.02648e-09
1.46167e-11
2.01159e-09
1.4888e-11
1.99491e-09
1.66721e-11
4.60877e-11
3.59819e-08
3.2177e-09
-3.6275e-08
3.53616e-08
3.52737e-09
3.44949e-08
3.59636e-09
3.34599e-08
3.55189e-09
3.23138e-08
3.43222e-09
3.11044e-08
3.25261e-09
2.98707e-08
3.03031e-09
2.86431e-08
2.7824e-09
2.74444e-08
2.52366e-09
2.62909e-08
2.26645e-09
2.51936e-08
2.02068e-09
2.41588e-08
1.79347e-09
2.31894e-08
1.58908e-09
2.22856e-08
1.40921e-09
2.1446e-08
1.25351e-09
2.06675e-08
1.12023e-09
1.99467e-08
1.00682e-09
1.92796e-08
9.10398e-10
1.86621e-08
8.28155e-10
1.809e-08
7.57545e-10
1.75594e-08
6.964e-10
1.70667e-08
6.42946e-10
1.66085e-08
5.9578e-10
1.61816e-08
5.5381e-10
1.5783e-08
5.16201e-10
1.54104e-08
4.8231e-10
1.50612e-08
4.5164e-10
1.47335e-08
4.23799e-10
1.44252e-08
3.98468e-10
1.41347e-08
3.75382e-10
1.38603e-08
3.54316e-10
1.36008e-08
3.35071e-10
1.33549e-08
3.1747e-10
1.31214e-08
3.01354e-10
1.28992e-08
2.86579e-10
1.26876e-08
2.73014e-10
1.24856e-08
2.60541e-10
1.22924e-08
2.49051e-10
1.21075e-08
2.38449e-10
1.19302e-08
2.28647e-10
1.17599e-08
2.19566e-10
1.15962e-08
2.11136e-10
1.14385e-08
2.03294e-10
1.12866e-08
1.95984e-10
1.11399e-08
1.89157e-10
1.09982e-08
1.82767e-10
1.08612e-08
1.76776e-10
1.07286e-08
1.71147e-10
1.06001e-08
1.6585e-10
1.04754e-08
1.60855e-10
1.03545e-08
1.56138e-10
1.0237e-08
1.51676e-10
1.01228e-08
1.47448e-10
1.00117e-08
1.43437e-10
9.90363e-09
1.39626e-10
9.79834e-09
1.35999e-10
9.69573e-09
1.32544e-10
9.59569e-09
1.29248e-10
9.49809e-09
1.261e-10
9.40283e-09
1.23089e-10
9.3098e-09
1.20207e-10
9.21892e-09
1.17445e-10
9.13009e-09
1.14795e-10
9.04324e-09
1.1225e-10
8.95828e-09
1.09803e-10
8.87515e-09
1.07449e-10
8.79378e-09
1.05182e-10
8.71409e-09
1.02997e-10
8.63604e-09
1.00889e-10
8.55957e-09
9.88537e-11
8.48462e-09
9.68871e-11
8.41114e-09
9.49855e-11
8.33909e-09
9.31455e-11
8.26842e-09
9.13639e-11
8.19908e-09
8.96377e-11
8.13103e-09
8.79642e-11
8.06425e-09
8.63409e-11
7.99868e-09
8.47656e-11
7.9343e-09
8.32361e-11
7.87106e-09
8.17505e-11
7.80894e-09
8.03072e-11
7.74791e-09
7.89046e-11
7.68794e-09
7.75416e-11
7.62899e-09
7.6217e-11
7.57104e-09
7.493e-11
7.51406e-09
7.36801e-11
7.45801e-09
7.24673e-11
7.40289e-09
7.12916e-11
7.34864e-09
7.01539e-11
7.29526e-09
6.90556e-11
7.24269e-09
6.79997e-11
7.19092e-09
6.69909e-11
7.13989e-09
6.60382e-11
7.08956e-09
6.51593e-11
7.03984e-09
6.43915e-11
6.9906e-09
6.38249e-11
6.94153e-09
6.36852e-11
6.89177e-09
6.4651e-11
6.8354e-09
7.30421e-11
1.25493e-10
4.06539e-08
3.05635e-09
-4.04926e-08
4.07311e-08
3.45021e-09
4.0679e-08
3.64844e-09
4.04995e-08
3.73142e-09
4.02003e-08
3.73137e-09
3.97939e-08
3.65906e-09
3.92968e-08
3.5274e-09
3.87271e-08
3.3521e-09
3.81023e-08
3.14843e-09
3.74386e-08
2.93014e-09
3.67503e-08
2.70903e-09
3.60493e-08
2.49445e-09
3.53454e-08
2.29301e-09
3.4646e-08
2.1086e-09
3.39567e-08
1.94283e-09
3.32813e-08
1.79559e-09
3.26225e-08
1.66561e-09
3.19819e-08
1.55098e-09
3.13605e-08
1.4496e-09
3.07586e-08
1.35942e-09
3.01764e-08
1.27859e-09
2.96138e-08
1.20558e-09
2.90704e-08
1.13912e-09
2.8546e-08
1.07822e-09
2.80401e-08
1.02212e-09
2.75522e-08
9.70224e-10
2.70818e-08
9.22071e-10
2.66283e-08
8.77299e-10
2.61911e-08
8.3561e-10
2.57697e-08
7.96758e-10
2.53635e-08
7.60525e-10
2.49719e-08
7.2672e-10
2.45942e-08
6.95167e-10
2.42298e-08
6.65704e-10
2.38782e-08
6.38177e-10
2.35388e-08
6.12447e-10
2.3211e-08
5.88379e-10
2.28942e-08
5.6585e-10
2.25879e-08
5.44744e-10
2.22916e-08
5.24953e-10
2.20048e-08
5.06376e-10
2.1727e-08
4.88922e-10
2.14578e-08
4.72505e-10
2.11967e-08
4.57046e-10
2.09434e-08
4.42473e-10
2.06974e-08
4.28719e-10
2.04585e-08
4.15723e-10
2.02262e-08
4.03429e-10
2.00003e-08
3.91785e-10
1.97804e-08
3.80743e-10
1.95663e-08
3.70262e-10
1.93576e-08
3.603e-10
1.91543e-08
3.50821e-10
1.89559e-08
3.41792e-10
1.87623e-08
3.33182e-10
1.85734e-08
3.24963e-10
1.83888e-08
3.17108e-10
1.82085e-08
3.09593e-10
1.80322e-08
3.02397e-10
1.78598e-08
2.95499e-10
1.76911e-08
2.8888e-10
1.7526e-08
2.82523e-10
1.73644e-08
2.76412e-10
1.72061e-08
2.70532e-10
1.7051e-08
2.6487e-10
1.68991e-08
2.59412e-10
1.67501e-08
2.54148e-10
1.66041e-08
2.49066e-10
1.64608e-08
2.44156e-10
1.63202e-08
2.39408e-10
1.61823e-08
2.34815e-10
1.60469e-08
2.30368e-10
1.5914e-08
2.26059e-10
1.57835e-08
2.21882e-10
1.56553e-08
2.17829e-10
1.55294e-08
2.13895e-10
1.54056e-08
2.10075e-10
1.5284e-08
2.06362e-10
1.51645e-08
2.02753e-10
1.5047e-08
1.99242e-10
1.49315e-08
1.95827e-10
1.48179e-08
1.92503e-10
1.47062e-08
1.89267e-10
1.45963e-08
1.86117e-10
1.44882e-08
1.83051e-10
1.43818e-08
1.80068e-10
1.42771e-08
1.77165e-10
1.4174e-08
1.74344e-10
1.40726e-08
1.71606e-10
1.39727e-08
1.68953e-10
1.38743e-08
1.6639e-10
1.37773e-08
1.63928e-10
1.36818e-08
1.61582e-10
1.35876e-08
1.59387e-10
1.34946e-08
1.57417e-10
1.34025e-08
1.55846e-10
1.33111e-08
1.55139e-10
1.32188e-08
1.56963e-10
1.31206e-08
1.71241e-10
2.2876e-10
4.51603e-08
2.85592e-09
-4.49599e-08
4.53763e-08
3.23422e-09
4.55561e-08
3.46865e-09
4.56838e-08
3.60371e-09
4.57503e-08
3.66484e-09
4.57489e-08
3.66046e-09
4.56776e-08
3.59871e-09
4.55387e-08
3.49095e-09
4.53376e-08
3.34953e-09
4.50815e-08
3.18624e-09
4.47788e-08
3.01178e-09
4.4438e-08
2.8352e-09
4.40675e-08
2.66347e-09
4.36748e-08
2.50137e-09
4.3266e-08
2.35161e-09
4.28463e-08
2.21525e-09
4.24198e-08
2.09213e-09
4.19895e-08
1.9813e-09
4.15577e-08
1.88145e-09
4.1126e-08
1.79111e-09
4.06957e-08
1.70888e-09
4.02677e-08
1.63353e-09
3.98428e-08
1.56402e-09
3.94216e-08
1.49949e-09
3.90044e-08
1.4393e-09
3.85917e-08
1.38292e-09
3.81838e-08
1.32995e-09
3.7781e-08
1.28009e-09
3.73836e-08
1.23306e-09
3.69916e-08
1.18868e-09
3.66054e-08
1.14676e-09
3.6225e-08
1.10713e-09
3.58505e-08
1.06967e-09
3.5482e-08
1.03423e-09
3.51195e-08
1.00068e-09
3.4763e-08
9.68923e-10
3.44125e-08
9.3883e-10
3.40681e-08
9.10299e-10
3.37296e-08
8.83231e-10
3.3397e-08
8.57532e-10
3.30703e-08
8.33113e-10
3.27493e-08
8.09892e-10
3.2434e-08
7.87791e-10
3.21243e-08
7.66739e-10
3.18201e-08
7.46668e-10
3.15213e-08
7.27516e-10
3.12278e-08
7.09226e-10
3.09395e-08
6.91743e-10
3.06563e-08
6.75018e-10
3.0378e-08
6.59005e-10
3.01046e-08
6.43659e-10
2.9836e-08
6.28943e-10
2.9572e-08
6.14818e-10
2.93125e-08
6.0125e-10
2.90575e-08
5.88206e-10
2.88068e-08
5.75658e-10
2.85603e-08
5.63577e-10
2.8318e-08
5.51936e-10
2.80797e-08
5.40713e-10
2.78453e-08
5.29884e-10
2.76148e-08
5.19427e-10
2.7388e-08
5.09325e-10
2.71648e-08
4.99557e-10
2.69452e-08
4.90106e-10
2.67291e-08
4.80958e-10
2.65165e-08
4.72095e-10
2.63071e-08
4.63504e-10
2.6101e-08
4.55171e-10
2.58981e-08
4.47085e-10
2.56982e-08
4.39233e-10
2.55015e-08
4.31603e-10
2.53076e-08
4.24186e-10
2.51167e-08
4.16972e-10
2.49287e-08
4.09952e-10
2.47434e-08
4.03116e-10
2.45608e-08
3.96457e-10
2.43809e-08
3.89967e-10
2.42036e-08
3.83639e-10
2.40289e-08
3.77467e-10
2.38567e-08
3.71444e-10
2.3687e-08
3.65565e-10
2.35197e-08
3.59825e-10
2.33547e-08
3.5422e-10
2.31921e-08
3.48746e-10
2.30317e-08
3.434e-10
2.28736e-08
3.38181e-10
2.27177e-08
3.33087e-10
2.25639e-08
3.28119e-10
2.24123e-08
3.23278e-10
2.22626e-08
3.18569e-10
2.2115e-08
3.14001e-10
2.19694e-08
3.09587e-10
2.18256e-08
3.05356e-10
2.16836e-08
3.01359e-10
2.15433e-08
2.9771e-10
2.14045e-08
2.94675e-10
2.12667e-08
2.92973e-10
2.11286e-08
2.95064e-10
2.09891e-08
3.10705e-10
3.58241e-10
5.00484e-08
2.68534e-09
-4.98778e-08
5.02616e-08
3.02103e-09
5.04755e-08
3.25468e-09
5.06738e-08
3.40542e-09
5.08472e-08
3.49143e-09
5.09869e-08
3.52078e-09
5.10861e-08
3.49957e-09
5.11409e-08
3.43611e-09
5.11505e-08
3.33993e-09
5.11162e-08
3.22054e-09
5.10412e-08
3.08678e-09
5.093e-08
2.94643e-09
5.07876e-08
2.80583e-09
5.06193e-08
2.66969e-09
5.04298e-08
2.54107e-09
5.02234e-08
2.42164e-09
5.00036e-08
2.31193e-09
4.97732e-08
2.21173e-09
4.95343e-08
2.12035e-09
4.92886e-08
2.03684e-09
4.90372e-08
1.96024e-09
4.87812e-08
1.88959e-09
4.85211e-08
1.82407e-09
4.82576e-08
1.76299e-09
4.79911e-08
1.70578e-09
4.77221e-08
1.65198e-09
4.74508e-08
1.60125e-09
4.71776e-08
1.5533e-09
4.69027e-08
1.5079e-09
4.66265e-08
1.46486e-09
4.63493e-08
1.42402e-09
4.60712e-08
1.38524e-09
4.57924e-08
1.3484e-09
4.55133e-08
1.31336e-09
4.5234e-08
1.28004e-09
4.49546e-08
1.24831e-09
4.46753e-08
1.21808e-09
4.43964e-08
1.18926e-09
4.41178e-08
1.16176e-09
4.38399e-08
1.1355e-09
4.35626e-08
1.11039e-09
4.32861e-08
1.08637e-09
4.30105e-08
1.06336e-09
4.2736e-08
1.04129e-09
4.24625e-08
1.02012e-09
4.21903e-08
9.9978e-10
4.19193e-08
9.8022e-10
4.16496e-08
9.61393e-10
4.13814e-08
9.43253e-10
4.11146e-08
9.25761e-10
4.08494e-08
9.08877e-10
4.05858e-08
8.92566e-10
4.03238e-08
8.76796e-10
4.00635e-08
8.61535e-10
3.9805e-08
8.46755e-10
3.95482e-08
8.32431e-10
3.92932e-08
8.18537e-10
3.90401e-08
8.05052e-10
3.87889e-08
7.91954e-10
3.85396e-08
7.79223e-10
3.82921e-08
7.66842e-10
3.80467e-08
7.54793e-10
3.78032e-08
7.4306e-10
3.75616e-08
7.31629e-10
3.73221e-08
7.20485e-10
3.70846e-08
7.09616e-10
3.68491e-08
6.99008e-10
3.66156e-08
6.88651e-10
3.63842e-08
6.78533e-10
3.61547e-08
6.68645e-10
3.59274e-08
6.58977e-10
3.5702e-08
6.49519e-10
3.54788e-08
6.40262e-10
3.52575e-08
6.312e-10
3.50383e-08
6.22324e-10
3.48211e-08
6.13627e-10
3.4606e-08
6.05102e-10
3.43929e-08
5.96743e-10
3.41818e-08
5.88544e-10
3.39728e-08
5.80501e-10
3.37657e-08
5.72608e-10
3.35607e-08
5.64861e-10
3.33576e-08
5.57256e-10
3.31566e-08
5.49792e-10
3.29575e-08
5.42466e-10
3.27604e-08
5.35277e-10
3.25653e-08
5.28226e-10
3.23721e-08
5.21316e-10
3.21808e-08
5.14549e-10
3.19915e-08
5.07935e-10
3.1804e-08
5.01485e-10
3.16183e-08
4.95221e-10
3.14345e-08
4.8918e-10
3.12524e-08
4.83433e-10
3.1072e-08
4.78127e-10
3.08931e-08
4.73599e-10
3.07154e-08
4.70707e-10
3.05385e-08
4.71942e-10
3.03652e-08
4.84041e-10
5.11453e-10
5.54434e-08
2.5467e-09
-5.53048e-08
5.56285e-08
2.836e-09
5.58282e-08
3.05497e-09
5.6026e-08
3.20756e-09
5.62133e-08
3.30417e-09
5.63825e-08
3.35155e-09
5.65273e-08
3.35476e-09
5.66434e-08
3.32006e-09
5.67284e-08
3.25488e-09
5.67821e-08
3.1669e-09
5.68055e-08
3.06339e-09
5.68009e-08
2.95093e-09
5.67717e-08
2.83507e-09
5.67213e-08
2.72015e-09
5.66531e-08
2.60925e-09
5.65704e-08
2.50434e-09
5.64759e-08
2.4064e-09
5.63719e-08
2.31573e-09
5.62601e-08
2.23211e-09
5.61419e-08
2.15507e-09
5.60182e-08
2.08398e-09
5.58896e-08
2.01818e-09
5.57566e-08
1.95705e-09
5.56196e-08
1.90003e-09
5.54787e-08
1.84665e-09
5.53341e-08
1.79653e-09
5.51861e-08
1.74933e-09
5.50346e-08
1.70479e-09
5.48798e-08
1.66269e-09
5.47218e-08
1.62285e-09
5.45607e-08
1.58512e-09
5.43966e-08
1.54934e-09
5.42296e-08
1.51539e-09
5.40598e-08
1.48317e-09
5.38873e-08
1.45254e-09
5.37122e-08
1.42343e-09
5.35345e-08
1.39572e-09
5.33545e-08
1.36933e-09
5.31721e-08
1.34416e-09
5.29874e-08
1.32014e-09
5.28006e-08
1.29719e-09
5.26118e-08
1.27523e-09
5.24209e-08
1.25421e-09
5.22282e-08
1.23404e-09
5.20336e-08
1.21468e-09
5.18373e-08
1.19606e-09
5.16394e-08
1.17814e-09
5.14399e-08
1.16087e-09
5.1239e-08
1.1442e-09
5.10367e-08
1.1281e-09
5.0833e-08
1.11252e-09
5.06281e-08
1.09743e-09
5.04221e-08
1.0828e-09
5.02151e-08
1.0686e-09
5.0007e-08
1.0548e-09
4.97981e-08
1.04138e-09
4.95883e-08
1.02831e-09
4.93778e-08
1.01557e-09
4.91666e-08
1.00315e-09
4.89548e-08
9.91013e-10
4.87425e-08
9.79155e-10
4.85297e-08
9.67558e-10
4.83166e-08
9.56207e-10
4.81031e-08
9.45089e-10
4.78894e-08
9.34191e-10
4.76755e-08
9.23501e-10
4.74615e-08
9.1301e-10
4.72475e-08
9.02706e-10
4.70334e-08
8.92581e-10
4.68194e-08
8.82626e-10
4.66056e-08
8.72832e-10
4.63919e-08
8.63193e-10
4.61785e-08
8.53701e-10
4.59653e-08
8.4435e-10
4.57525e-08
8.35134e-10
4.55401e-08
8.26046e-10
4.53281e-08
8.17082e-10
4.51166e-08
8.08237e-10
4.49056e-08
7.99506e-10
4.46953e-08
7.90887e-10
4.44855e-08
7.82376e-10
4.42764e-08
7.7397e-10
4.4068e-08
7.65667e-10
4.38603e-08
7.57468e-10
4.36534e-08
7.49371e-10
4.34473e-08
7.41378e-10
4.3242e-08
7.33493e-10
4.30376e-08
7.25719e-10
4.28341e-08
7.18065e-10
4.26315e-08
7.10541e-10
4.24298e-08
7.03166e-10
4.22291e-08
6.95966e-10
4.20293e-08
6.88987e-10
4.18304e-08
6.82313e-10
4.16324e-08
6.76106e-10
4.14353e-08
6.70712e-10
4.12391e-08
6.66908e-10
4.10446e-08
6.66433e-10
4.08568e-08
6.71863e-10
6.76541e-10
6.14084e-08
2.43325e-09
-6.1295e-08
6.1564e-08
2.68039e-09
6.17394e-08
2.8796e-09
6.19191e-08
3.0278e-09
6.20943e-08
3.12904e-09
6.22581e-08
3.18777e-09
6.24049e-08
3.20791e-09
6.25308e-08
3.19417e-09
6.26334e-08
3.15222e-09
6.27121e-08
3.0882e-09
6.27675e-08
3.00807e-09
6.2801e-08
2.91739e-09
6.28151e-08
2.82096e-09
6.28125e-08
2.72275e-09
6.2796e-08
2.62575e-09
6.27683e-08
2.53207e-09
6.27317e-08
2.44302e-09
6.26881e-08
2.35928e-09
6.26392e-08
2.28105e-09
6.2586e-08
2.20823e-09
6.25295e-08
2.14053e-09
6.24701e-08
2.07755e-09
6.24083e-08
2.01887e-09
6.23442e-08
1.9641e-09
6.2278e-08
1.91286e-09
6.22097e-08
1.86483e-09
6.21393e-08
1.81973e-09
6.20667e-08
1.77732e-09
6.1992e-08
1.73738e-09
6.19152e-08
1.69974e-09
6.1836e-08
1.66424e-09
6.17546e-08
1.63074e-09
6.16709e-08
1.5991e-09
6.15849e-08
1.56921e-09
6.14965e-08
1.54096e-09
6.14057e-08
1.51423e-09
6.13125e-08
1.48892e-09
6.12168e-08
1.46495e-09
6.11188e-08
1.44221e-09
6.10183e-08
1.42064e-09
6.09153e-08
1.40013e-09
6.081e-08
1.38062e-09
6.07021e-08
1.36204e-09
6.05919e-08
1.34431e-09
6.04791e-08
1.32738e-09
6.0364e-08
1.31119e-09
6.02465e-08
1.29568e-09
6.01265e-08
1.2808e-09
6.00042e-08
1.26651e-09
5.98796e-08
1.25275e-09
5.97526e-08
1.2395e-09
5.96233e-08
1.2267e-09
5.94918e-08
1.21434e-09
5.9358e-08
1.20237e-09
5.92221e-08
1.19077e-09
5.9084e-08
1.1795e-09
5.89437e-08
1.16855e-09
5.88014e-08
1.15789e-09
5.86571e-08
1.14749e-09
5.85107e-08
1.13735e-09
5.83625e-08
1.12743e-09
5.82123e-08
1.11773e-09
5.80603e-08
1.10823e-09
5.79064e-08
1.09891e-09
5.77509e-08
1.08976e-09
5.75936e-08
1.08077e-09
5.74347e-08
1.07192e-09
5.72742e-08
1.06321e-09
5.71121e-08
1.05462e-09
5.69486e-08
1.04615e-09
5.67837e-08
1.03779e-09
5.66173e-08
1.02953e-09
5.64497e-08
1.02136e-09
5.62807e-08
1.01328e-09
5.61106e-08
1.00528e-09
5.59393e-08
9.97354e-10
5.57669e-08
9.89495e-10
5.55934e-08
9.81701e-10
5.54189e-08
9.73968e-10
5.52435e-08
9.66291e-10
5.50672e-08
9.58669e-10
5.48901e-08
9.51099e-10
5.47122e-08
9.4358e-10
5.45335e-08
9.36112e-10
5.43542e-08
9.28696e-10
5.41743e-08
9.21334e-10
5.39937e-08
9.14032e-10
5.38126e-08
9.06794e-10
5.36311e-08
8.99632e-10
5.34491e-08
8.92559e-10
5.32666e-08
8.85594e-10
5.30838e-08
8.78769e-10
5.29007e-08
8.72133e-10
5.27172e-08
8.65767e-10
5.25335e-08
8.59822e-10
5.23497e-08
8.5457e-10
5.21661e-08
8.505e-10
5.19843e-08
8.48229e-10
5.18093e-08
8.4679e-10
8.34295e-10
6.80023e-08
2.3401e-09
-6.79092e-08
6.81307e-08
2.55198e-09
6.82796e-08
2.73077e-09
6.84361e-08
2.87125e-09
6.85916e-08
2.97352e-09
6.87398e-08
3.03964e-09
6.88754e-08
3.07227e-09
6.89948e-08
3.07479e-09
6.90956e-08
3.05141e-09
6.91769e-08
3.00687e-09
6.9239e-08
2.946e-09
6.9283e-08
2.8734e-09
6.93107e-08
2.79323e-09
6.93244e-08
2.70904e-09
6.93265e-08
2.62369e-09
6.93192e-08
2.53934e-09
6.93047e-08
2.45751e-09
6.92848e-08
2.37918e-09
6.9261e-08
2.30488e-09
6.92344e-08
2.23485e-09
6.92058e-08
2.16908e-09
6.91759e-08
2.10743e-09
6.91451e-08
2.04968e-09
6.91136e-08
1.9956e-09
6.90816e-08
1.94493e-09
6.9049e-08
1.89741e-09
6.90159e-08
1.85283e-09
6.89823e-08
1.81097e-09
6.8948e-08
1.77165e-09
6.8913e-08
1.7347e-09
6.88773e-08
1.69997e-09
6.88407e-08
1.66732e-09
6.88032e-08
1.63661e-09
6.87647e-08
1.60773e-09
6.87251e-08
1.58055e-09
6.86844e-08
1.55497e-09
6.86424e-08
1.53089e-09
6.85991e-08
1.50821e-09
6.85545e-08
1.48683e-09
6.85085e-08
1.46667e-09
6.8461e-08
1.44764e-09
6.84119e-08
1.42967e-09
6.83613e-08
1.41267e-09
6.8309e-08
1.39658e-09
6.82551e-08
1.38133e-09
6.81994e-08
1.36687e-09
6.81419e-08
1.35313e-09
6.80827e-08
1.34005e-09
6.80216e-08
1.3276e-09
6.79586e-08
1.31571e-09
6.78938e-08
1.30436e-09
6.7827e-08
1.29349e-09
6.77583e-08
1.28307e-09
6.76876e-08
1.27307e-09
6.76149e-08
1.26345e-09
6.75402e-08
1.25418e-09
6.74635e-08
1.24524e-09
6.73848e-08
1.2366e-09
6.73041e-08
1.22823e-09
6.72213e-08
1.22011e-09
6.71365e-08
1.21223e-09
6.70497e-08
1.20456e-09
6.69608e-08
1.19709e-09
6.68699e-08
1.18979e-09
6.6777e-08
1.18266e-09
6.66821e-08
1.17568e-09
6.65852e-08
1.16883e-09
6.64863e-08
1.16211e-09
6.63854e-08
1.1555e-09
6.62826e-08
1.14899e-09
6.61778e-08
1.14257e-09
6.60711e-08
1.13624e-09
6.59625e-08
1.12998e-09
6.5852e-08
1.12378e-09
6.57396e-08
1.11764e-09
6.56255e-08
1.11155e-09
6.55095e-08
1.1055e-09
6.53917e-08
1.09949e-09
6.52721e-08
1.09352e-09
6.51508e-08
1.08757e-09
6.50279e-08
1.08165e-09
6.49032e-08
1.07575e-09
6.47769e-08
1.06987e-09
6.4649e-08
1.06401e-09
6.45195e-08
1.05817e-09
6.43885e-08
1.05236e-09
6.4256e-08
1.04657e-09
6.4122e-08
1.04081e-09
6.39865e-08
1.0351e-09
6.38496e-08
1.02944e-09
6.37113e-08
1.02387e-09
6.35717e-08
1.0184e-09
6.34308e-08
1.01308e-09
6.32886e-08
1.00798e-09
6.31452e-08
1.0032e-09
6.30008e-08
9.98895e-10
6.28562e-08
9.95177e-10
6.27127e-08
9.91718e-10
6.25737e-08
9.85767e-10
9.66111e-10
6.76716e-08
2.27126e-09
-6.76027e-08
6.7766e-08
2.45754e-09
6.78773e-08
2.61948e-09
6.79967e-08
2.75184e-09
6.81173e-08
2.85289e-09
6.82339e-08
2.92308e-09
6.83422e-08
2.96394e-09
6.84392e-08
2.97786e-09
6.85226e-08
2.96794e-09
6.85917e-08
2.93786e-09
6.86461e-08
2.89153e-09
6.86867e-08
2.83279e-09
6.87147e-08
2.76525e-09
6.87317e-08
2.69209e-09
6.87394e-08
2.61599e-09
6.87396e-08
2.53912e-09
6.8734e-08
2.46311e-09
6.87241e-08
2.38912e-09
6.8711e-08
2.31792e-09
6.86959e-08
2.24999e-09
6.86794e-08
2.18554e-09
6.86622e-08
2.12464e-09
6.86447e-08
2.06724e-09
6.8627e-08
2.01324e-09
6.86095e-08
1.96248e-09
6.85921e-08
1.91478e-09
6.85749e-08
1.86998e-09
6.8558e-08
1.82791e-09
6.85412e-08
1.78841e-09
6.85246e-08
1.75132e-09
6.85081e-08
1.7165e-09
6.84916e-08
1.68381e-09
6.84751e-08
1.65312e-09
6.84585e-08
1.62433e-09
6.84417e-08
1.5973e-09
6.84248e-08
1.57193e-09
6.84076e-08
1.54811e-09
6.839e-08
1.52576e-09
6.83721e-08
1.50477e-09
6.83537e-08
1.48505e-09
6.83348e-08
1.46651e-09
6.83154e-08
1.44909e-09
6.82954e-08
1.4327e-09
6.82747e-08
1.41726e-09
6.82533e-08
1.40272e-09
6.82312e-08
1.38901e-09
6.82082e-08
1.37607e-09
6.81844e-08
1.36384e-09
6.81598e-08
1.35228e-09
6.81341e-08
1.34133e-09
6.81076e-08
1.33094e-09
6.808e-08
1.32109e-09
6.80513e-08
1.31172e-09
6.80216e-08
1.3028e-09
6.79907e-08
1.2943e-09
6.79587e-08
1.28618e-09
6.79255e-08
1.27842e-09
6.78911e-08
1.27099e-09
6.78555e-08
1.26386e-09
6.78186e-08
1.25701e-09
6.77804e-08
1.25042e-09
6.77409e-08
1.24407e-09
6.77001e-08
1.23793e-09
6.76579e-08
1.23199e-09
6.76143e-08
1.22623e-09
6.75693e-08
1.22065e-09
6.7523e-08
1.21521e-09
6.74752e-08
1.20992e-09
6.74259e-08
1.20475e-09
6.73752e-08
1.19969e-09
6.73231e-08
1.19474e-09
6.72694e-08
1.18987e-09
6.72143e-08
1.18509e-09
6.71577e-08
1.18039e-09
6.70996e-08
1.17574e-09
6.704e-08
1.17116e-09
6.69789e-08
1.16662e-09
6.69162e-08
1.16212e-09
6.68521e-08
1.15765e-09
6.67864e-08
1.15322e-09
6.67193e-08
1.14881e-09
6.66506e-08
1.14442e-09
6.65804e-08
1.14005e-09
6.65088e-08
1.13569e-09
6.64356e-08
1.13136e-09
6.63609e-08
1.12703e-09
6.62847e-08
1.12274e-09
6.62071e-08
1.11847e-09
6.61279e-08
1.11423e-09
6.60473e-08
1.11005e-09
6.59653e-08
1.10594e-09
6.58817e-08
1.10192e-09
6.57968e-08
1.09802e-09
6.57105e-08
1.09431e-09
6.56229e-08
1.09081e-09
6.55342e-08
1.08756e-09
6.5445e-08
1.08441e-09
6.53561e-08
1.08061e-09
6.52685e-08
1.07332e-09
1.05447e-09
8.54872e-08
2.20969e-09
-8.54256e-08
8.55708e-08
2.37396e-09
8.56701e-08
2.52011e-09
8.57783e-08
2.64362e-09
8.58892e-08
2.742e-09
8.59978e-08
2.81455e-09
8.60999e-08
2.8618e-09
8.61926e-08
2.88521e-09
8.62736e-08
2.88693e-09
8.63417e-08
2.86967e-09
8.63968e-08
2.83649e-09
8.64391e-08
2.7905e-09
8.64695e-08
2.73477e-09
8.64895e-08
2.67209e-09
8.65006e-08
2.60495e-09
8.65043e-08
2.53544e-09
8.65021e-08
2.46525e-09
8.64956e-08
2.39567e-09
8.64858e-08
2.32768e-09
8.64739e-08
2.26193e-09
8.64606e-08
2.19886e-09
8.64465e-08
2.13872e-09
8.64321e-08
2.08162e-09
8.64177e-08
2.02759e-09
8.64036e-08
1.97658e-09
8.63899e-08
1.9285e-09
8.63767e-08
1.88324e-09
8.63639e-08
1.84068e-09
8.63516e-08
1.80067e-09
8.63399e-08
1.76309e-09
8.63286e-08
1.72781e-09
8.63177e-08
1.6947e-09
8.63072e-08
1.66363e-09
8.6297e-08
1.6345e-09
8.62871e-08
1.60718e-09
8.62775e-08
1.58156e-09
8.6268e-08
1.55755e-09
8.62587e-08
1.53504e-09
8.62496e-08
1.51394e-09
8.62404e-08
1.49416e-09
8.62313e-08
1.47562e-09
8.62222e-08
1.45822e-09
8.6213e-08
1.4419e-09
8.62037e-08
1.42658e-09
8.61942e-08
1.41219e-09
8.61846e-08
1.39868e-09
8.61747e-08
1.38597e-09
8.61645e-08
1.37402e-09
8.6154e-08
1.36277e-09
8.61431e-08
1.35217e-09
8.61319e-08
1.34218e-09
8.61202e-08
1.33275e-09
8.61081e-08
1.32384e-09
8.60955e-08
1.31541e-09
8.60824e-08
1.30744e-09
8.60687e-08
1.29989e-09
8.60544e-08
1.29272e-09
8.60394e-08
1.28591e-09
8.60239e-08
1.27944e-09
8.60076e-08
1.27328e-09
8.59906e-08
1.26741e-09
8.59729e-08
1.2618e-09
8.59544e-08
1.25643e-09
8.59351e-08
1.2513e-09
8.59149e-08
1.24637e-09
8.58939e-08
1.24164e-09
8.5872e-08
1.23709e-09
8.58493e-08
1.23271e-09
8.58255e-08
1.22847e-09
8.58008e-08
1.22438e-09
8.57752e-08
1.22041e-09
8.57485e-08
1.21656e-09
8.57208e-08
1.21281e-09
8.5692e-08
1.20916e-09
8.56622e-08
1.20559e-09
8.56312e-08
1.2021e-09
8.55992e-08
1.19868e-09
8.5566e-08
1.19532e-09
8.55316e-08
1.19201e-09
8.54961e-08
1.18875e-09
8.54593e-08
1.18554e-09
8.54214e-08
1.18236e-09
8.53822e-08
1.17922e-09
8.53418e-08
1.17611e-09
8.53001e-08
1.17303e-09
8.52572e-08
1.16999e-09
8.52129e-08
1.16698e-09
8.51674e-08
1.16402e-09
8.51205e-08
1.16111e-09
8.50723e-08
1.15826e-09
8.50227e-08
1.15549e-09
8.49718e-08
1.15281e-09
8.49196e-08
1.15025e-09
8.48661e-08
1.14783e-09
8.48114e-08
1.14552e-09
8.47557e-08
1.14326e-09
8.46993e-08
1.14077e-09
8.46426e-08
1.13729e-09
8.4585e-08
1.13099e-09
1.11873e-09
1.08014e-07
2.16395e-09
-1.07969e-07
1.08076e-07
2.31201e-09
1.08151e-07
2.44579e-09
1.08233e-07
2.56152e-09
1.08318e-07
2.65662e-09
1.08403e-07
2.7298e-09
1.08484e-07
2.78093e-09
1.08558e-07
2.81076e-09
1.08624e-07
2.82075e-09
1.08681e-07
2.81291e-09
1.08728e-07
2.78961e-09
1.08765e-07
2.75342e-09
1.08793e-07
2.70694e-09
1.08812e-07
2.65264e-09
1.08824e-07
2.59281e-09
1.0883e-07
2.52943e-09
1.08832e-07
2.4642e-09
1.08829e-07
2.39849e-09
1.08823e-07
2.33339e-09
1.08815e-07
2.26969e-09
1.08806e-07
2.208e-09
1.08796e-07
2.14868e-09
1.08786e-07
2.09199e-09
1.08775e-07
2.03806e-09
1.08765e-07
1.98693e-09
1.08755e-07
1.93858e-09
1.08745e-07
1.89295e-09
1.08736e-07
1.84996e-09
1.08727e-07
1.8095e-09
1.08719e-07
1.77146e-09
1.08711e-07
1.73572e-09
1.08703e-07
1.70217e-09
1.08696e-07
1.67069e-09
1.0869e-07
1.64115e-09
1.08683e-07
1.61346e-09
1.08677e-07
1.58751e-09
1.08672e-07
1.56318e-09
1.08666e-07
1.54039e-09
1.08661e-07
1.51903e-09
1.08656e-07
1.49902e-09
1.08652e-07
1.48026e-09
1.08647e-07
1.46269e-09
1.08643e-07
1.44622e-09
1.08639e-07
1.43078e-09
1.08635e-07
1.41629e-09
1.08631e-07
1.4027e-09
1.08627e-07
1.38995e-09
1.08623e-07
1.37797e-09
1.08619e-07
1.36672e-09
1.08615e-07
1.35614e-09
1.08611e-07
1.34618e-09
1.08607e-07
1.33682e-09
1.08603e-07
1.32799e-09
1.08598e-07
1.31967e-09
1.08594e-07
1.31182e-09
1.08589e-07
1.30441e-09
1.08585e-07
1.29741e-09
1.0858e-07
1.29079e-09
1.08575e-07
1.28452e-09
1.08569e-07
1.27858e-09
1.08564e-07
1.27295e-09
1.08558e-07
1.2676e-09
1.08552e-07
1.26252e-09
1.08546e-07
1.25768e-09
1.08539e-07
1.25307e-09
1.08532e-07
1.24868e-09
1.08525e-07
1.24448e-09
1.08517e-07
1.24047e-09
1.08509e-07
1.23663e-09
1.085e-07
1.23294e-09
1.08491e-07
1.2294e-09
1.08482e-07
1.226e-09
1.08472e-07
1.22272e-09
1.08461e-07
1.21955e-09
1.0845e-07
1.21649e-09
1.08439e-07
1.21352e-09
1.08427e-07
1.21065e-09
1.08414e-07
1.20785e-09
1.08401e-07
1.20513e-09
1.08388e-07
1.20247e-09
1.08373e-07
1.19988e-09
1.08358e-07
1.19734e-09
1.08343e-07
1.19486e-09
1.08326e-07
1.19244e-09
1.08309e-07
1.19006e-09
1.08292e-07
1.18774e-09
1.08273e-07
1.18548e-09
1.08254e-07
1.18328e-09
1.08234e-07
1.18115e-09
1.08213e-07
1.1791e-09
1.08191e-07
1.17714e-09
1.08169e-07
1.17529e-09
1.08146e-07
1.17354e-09
1.08121e-07
1.1719e-09
1.08097e-07
1.17031e-09
1.08071e-07
1.16865e-09
1.08045e-07
1.16665e-09
1.08019e-07
1.16387e-09
1.0799e-07
1.15977e-09
1.15477e-09
1.36495e-07
-1.3648e-07
1.36517e-07
1.36545e-07
1.36577e-07
1.36612e-07
1.36648e-07
1.36683e-07
1.36717e-07
1.36748e-07
1.36776e-07
1.36801e-07
1.36821e-07
1.36838e-07
1.36851e-07
1.36861e-07
1.36868e-07
1.36873e-07
1.36876e-07
1.36877e-07
1.36877e-07
1.36877e-07
1.36875e-07
1.36873e-07
1.36871e-07
1.36869e-07
1.36867e-07
1.36865e-07
1.36862e-07
1.3686e-07
1.36858e-07
1.36856e-07
1.36854e-07
1.36853e-07
1.36851e-07
1.36849e-07
1.36848e-07
1.36847e-07
1.36845e-07
1.36844e-07
1.36843e-07
1.36842e-07
1.36841e-07
1.3684e-07
1.36839e-07
1.36838e-07
1.36837e-07
1.36836e-07
1.36836e-07
1.36835e-07
1.36834e-07
1.36833e-07
1.36832e-07
1.36832e-07
1.36831e-07
1.3683e-07
1.36829e-07
1.36828e-07
1.36827e-07
1.36826e-07
1.36825e-07
1.36824e-07
1.36823e-07
1.36822e-07
1.3682e-07
1.36819e-07
1.36817e-07
1.36816e-07
1.36814e-07
1.36812e-07
1.3681e-07
1.36808e-07
1.36806e-07
1.36804e-07
1.36801e-07
1.36798e-07
1.36795e-07
1.36792e-07
1.36789e-07
1.36786e-07
1.36782e-07
1.36778e-07
1.36774e-07
1.36769e-07
1.36765e-07
1.3676e-07
1.36754e-07
1.36749e-07
1.36743e-07
1.36737e-07
1.3673e-07
1.36724e-07
1.36716e-07
1.36709e-07
1.36701e-07
1.36693e-07
1.36684e-07
1.36676e-07
1.36666e-07
1.36656e-07
3.44604e-08
2.20093e-12
3.44581e-08
4.82998e-12
3.44546e-08
8.02119e-12
3.44499e-08
1.18961e-11
3.44436e-08
1.65927e-11
3.44356e-08
2.22694e-11
3.44255e-08
2.9107e-11
3.4413e-08
3.73085e-11
3.43974e-08
4.71012e-11
3.43784e-08
5.874e-11
3.43553e-08
7.25135e-11
3.43273e-08
8.87526e-11
3.42936e-08
1.07846e-10
3.42532e-08
1.30266e-10
3.42049e-08
1.56613e-10
3.41471e-08
1.87694e-10
3.40779e-08
2.24656e-10
3.39944e-08
2.6924e-10
3.38928e-08
3.24279e-10
3.37664e-08
3.94749e-10
3.3604e-08
4.90298e-10
3.33832e-08
6.32227e-10
3.30513e-08
8.7722e-10
3.24431e-08
1.43171e-09
3.06226e-09
3.80474e-08
3.52114e-12
3.80449e-08
7.33663e-12
3.80411e-08
1.17879e-11
3.80359e-08
1.70736e-11
3.80291e-08
2.34016e-11
3.80204e-08
3.09997e-11
3.80094e-08
4.01176e-11
3.79957e-08
5.10294e-11
3.79787e-08
6.40383e-11
3.7958e-08
7.94827e-11
3.79328e-08
9.77442e-11
3.79023e-08
1.19261e-10
3.78655e-08
1.44553e-10
3.78216e-08
1.74256e-10
3.7769e-08
2.09191e-10
3.77062e-08
2.50474e-10
3.76311e-08
2.99719e-10
3.7541e-08
3.59404e-10
3.74317e-08
4.33574e-10
3.72971e-08
5.29313e-10
3.71273e-08
6.60062e-10
3.69057e-08
8.539e-10
3.66071e-08
1.17575e-09
3.62518e-08
1.7871e-09
3.03904e-09
4.20078e-08
4.92681e-12
4.20051e-08
1.00438e-11
4.2001e-08
1.58584e-11
4.19954e-08
2.2673e-11
4.1988e-08
3.07697e-11
4.19786e-08
4.04496e-11
4.19667e-08
5.20368e-11
4.19518e-08
6.58823e-11
4.19335e-08
8.23711e-11
4.1911e-08
1.0193e-10
4.18837e-08
1.2504e-10
4.18507e-08
1.52253e-10
4.18111e-08
1.84219e-10
4.17636e-08
2.21742e-10
4.17069e-08
2.65856e-10
4.16394e-08
3.17972e-10
4.1559e-08
3.80126e-10
4.1463e-08
4.5542e-10
4.13477e-08
5.48847e-10
4.12082e-08
6.6889e-10
4.10375e-08
8.30764e-10
4.08282e-08
1.06313e-09
4.05831e-08
1.42086e-09
4.03699e-08
2.00029e-09
2.91641e-09
4.63804e-08
6.41729e-12
4.63775e-08