/*--------------------------------*- C++ -*----------------------------------*\
| =========                 |                                                 |
| \\      /  F ield         | OpenFOAM: The Open Source CFD Toolbox           |
|  \\    /   O peration     | Version:  2.3.0                                 |
|   \\  /    A nd           | Web:      www.OpenFOAM.org                      |
|    \\/     M anipulation  |                                                 |
\*---------------------------------------------------------------------------*/
FoamFile
{
    version     2.0;
    format      ascii;
    class       volVectorField;
    location    "0.95";
    object      U;
}
// * * * * * * * * * * * * * * * * * * * * * * * * * * * * * * * * * * * * * //

dimensions      [0 1 -1 0 0 0 0];

internalField   nonuniform List<vector> 
1500
(
(0.170766 0.00605151 0)
(0.154005 0.00612539 0)
(0.137878 0.0057033 0)
(0.122589 0.00509464 0)
(0.108558 0.00441775 0)
(0.0959655 0.00372762 0)
(0.0848319 0.00306308 0)
(0.0751287 0.00245162 0)
(0.0668015 0.00191046 0)
(0.0597633 0.00144882 0)
(0.0538949 0.00106916 0)
(0.0490554 0.000768222 0)
(0.0450946 0.000538232 0)
(0.0418642 0.000368739 0)
(0.0392258 0.000248345 0)
(0.0370569 0.000166062 0)
(0.035254 0.000112149 0)
(0.0337326 7.84887e-05 0)
(0.0324266 5.86514e-05 0)
(0.0312856 4.77752e-05 0)
(0.0302723 4.23534e-05 0)
(0.0293595 3.99835e-05 0)
(0.0285278 3.91139e-05 0)
(0.0277631 3.88118e-05 0)
(0.0270554 3.85682e-05 0)
(0.0263972 3.81464e-05 0)
(0.0257829 3.7471e-05 0)
(0.025208 3.65531e-05 0)
(0.0246685 3.54425e-05 0)
(0.0241614 3.42005e-05 0)
(0.0236838 3.28846e-05 0)
(0.023233 3.15427e-05 0)
(0.0228068 3.02111e-05 0)
(0.0224029 2.89149e-05 0)
(0.0220196 2.76707e-05 0)
(0.021655 2.64876e-05 0)
(0.0213075 2.537e-05 0)
(0.0209758 2.43187e-05 0)
(0.0206586 2.33319e-05 0)
(0.0203546 2.24068e-05 0)
(0.020063 2.15395e-05 0)
(0.0197827 2.07259e-05 0)
(0.0195129 1.99618e-05 0)
(0.0192528 1.92433e-05 0)
(0.0190019 1.85664e-05 0)
(0.0187595 1.79276e-05 0)
(0.018525 1.73238e-05 0)
(0.018298 1.6752e-05 0)
(0.018078 1.62097e-05 0)
(0.0178647 1.56944e-05 0)
(0.0176575 1.52041e-05 0)
(0.0174563 1.47369e-05 0)
(0.0172607 1.42911e-05 0)
(0.0170703 1.38651e-05 0)
(0.016885 1.34577e-05 0)
(0.0167045 1.30676e-05 0)
(0.0165286 1.26937e-05 0)
(0.0163571 1.23349e-05 0)
(0.0161897 1.19904e-05 0)
(0.0160263 1.16593e-05 0)
(0.0158667 1.13409e-05 0)
(0.0157108 1.10344e-05 0)
(0.0155584 1.07392e-05 0)
(0.0154094 1.04546e-05 0)
(0.0152636 1.01803e-05 0)
(0.015121 9.91556e-06 0)
(0.0149814 9.65999e-06 0)
(0.0148447 9.41315e-06 0)
(0.0147108 9.17463e-06 0)
(0.0145796 8.94404e-06 0)
(0.014451 8.72104e-06 0)
(0.014325 8.5053e-06 0)
(0.0142014 8.29651e-06 0)
(0.0140801 8.09439e-06 0)
(0.0139612 7.89867e-06 0)
(0.0138445 7.70913e-06 0)
(0.01373 7.52553e-06 0)
(0.0136175 7.34768e-06 0)
(0.0135071 7.17539e-06 0)
(0.0133987 7.00852e-06 0)
(0.0132922 6.84692e-06 0)
(0.0131876 6.69047e-06 0)
(0.0130847 6.53906e-06 0)
(0.0129837 6.39262e-06 0)
(0.0128843 6.25111e-06 0)
(0.0127866 6.11453e-06 0)
(0.0126905 5.98291e-06 0)
(0.0125959 5.85634e-06 0)
(0.0125028 5.73497e-06 0)
(0.0124112 5.61902e-06 0)
(0.0123209 5.50897e-06 0)
(0.012232 5.40562e-06 0)
(0.0121443 5.31032e-06 0)
(0.0120577 5.22584e-06 0)
(0.0119721 5.15797e-06 0)
(0.0118873 5.12057e-06 0)
(0.0118027 5.15079e-06 0)
(0.0117171 5.20885e-06 0)
(0.011641 5.54988e-06 0)
(0.0114053 3.1926e-05 0)
(0.189995 0.00961357 0)
(0.187731 0.0101611 0)
(0.183892 0.00996895 0)
(0.178811 0.00949016 0)
(0.172971 0.00886319 0)
(0.16671 0.00813564 0)
(0.160248 0.00734733 0)
(0.153749 0.00653553 0)
(0.147351 0.0057321 0)
(0.141154 0.00496368 0)
(0.13523 0.0042515 0)
(0.129622 0.00361053 0)
(0.124354 0.003049 0)
(0.119432 0.00256888 0)
(0.114852 0.00216687 0)
(0.110603 0.00183598 0)
(0.106667 0.00156701 0)
(0.103024 0.00135 0)
(0.099652 0.00117526 0)
(0.0965303 0.00103406 0)
(0.0936372 0.000919031 0)
(0.0909527 0.000824195 0)
(0.0884579 0.000744901 0)
(0.0861356 0.000677625 0)
(0.08397 0.000619755 0)
(0.0819467 0.000569376 0)
(0.0800528 0.000525088 0)
(0.0782766 0.000485857 0)
(0.0766075 0.000450905 0)
(0.0750361 0.000419634 0)
(0.0735537 0.000391562 0)
(0.0721526 0.000366298 0)
(0.0708259 0.000343508 0)
(0.0695673 0.000322905 0)
(0.0683711 0.000304237 0)
(0.0672323 0.000287283 0)
(0.0661462 0.000271848 0)
(0.0651086 0.000257759 0)
(0.0641159 0.000244864 0)
(0.0631647 0.000233028 0)
(0.0622519 0.000222133 0)
(0.0613747 0.000212076 0)
(0.0605307 0.000202766 0)
(0.0597175 0.000194125 0)
(0.0589333 0.000186084 0)
(0.0581759 0.000178582 0)
(0.0574439 0.000171566 0)
(0.0567356 0.000164991 0)
(0.0560496 0.000158815 0)
(0.0553847 0.000153003 0)
(0.0547396 0.000147524 0)
(0.0541132 0.000142349 0)
(0.0535046 0.000137454 0)
(0.0529127 0.000132816 0)
(0.0523369 0.000128416 0)
(0.0517763 0.000124235 0)
(0.0512301 0.000120259 0)
(0.0506976 0.000116472 0)
(0.0501783 0.000112861 0)
(0.0496716 0.000109414 0)
(0.0491769 0.00010612 0)
(0.0486937 0.00010297 0)
(0.0482215 9.99545e-05 0)
(0.0477599 9.70648e-05 0)
(0.0473085 9.42934e-05 0)
(0.0468668 9.16335e-05 0)
(0.0464345 8.90784e-05 0)
(0.0460113 8.66222e-05 0)
(0.0455969 8.42594e-05 0)
(0.0451908 8.19849e-05 0)
(0.0447929 7.9794e-05 0)
(0.0444029 7.76823e-05 0)
(0.0440205 7.56457e-05 0)
(0.0436454 7.36806e-05 0)
(0.0432775 7.17834e-05 0)
(0.0429165 6.99509e-05 0)
(0.0425621 6.81801e-05 0)
(0.0422143 6.64684e-05 0)
(0.0418728 6.48132e-05 0)
(0.0415374 6.32122e-05 0)
(0.041208 6.16633e-05 0)
(0.0408844 6.01647e-05 0)
(0.0405664 5.87147e-05 0)
(0.0402538 5.73118e-05 0)
(0.0399466 5.59548e-05 0)
(0.0396445 5.46429e-05 0)
(0.0393475 5.33753e-05 0)
(0.0390553 5.21519e-05 0)
(0.0387679 5.09726e-05 0)
(0.038485 4.98385e-05 0)
(0.0382065 4.87514e-05 0)
(0.0379323 4.77153e-05 0)
(0.0376621 4.67373e-05 0)
(0.0373957 4.58328e-05 0)
(0.0371329 4.50349e-05 0)
(0.0368729 4.44238e-05 0)
(0.0366148 4.42046e-05 0)
(0.036356 4.48897e-05 0)
(0.0361076 5.17358e-05 0)
(0.0356227 0.00011611 0)
(0.193005 0.0091694 0)
(0.193751 0.0101555 0)
(0.193942 0.0105418 0)
(0.193409 0.0105999 0)
(0.192238 0.0104228 0)
(0.190529 0.0100459 0)
(0.188358 0.00951269 0)
(0.185801 0.00887311 0)
(0.182939 0.00817419 0)
(0.179855 0.00745655 0)
(0.176622 0.00675333 0)
(0.173303 0.00608918 0)
(0.169949 0.00547998 0)
(0.1666 0.00493355 0)
(0.163288 0.00445122 0)
(0.160035 0.00402967 0)
(0.156856 0.00366285 0)
(0.153761 0.00334353 0)
(0.150755 0.00306443 0)
(0.147842 0.00281894 0)
(0.145024 0.00260138 0)
(0.142299 0.00240713 0)
(0.139666 0.00223252 0)
(0.137125 0.00207469 0)
(0.134673 0.00193139 0)
(0.132308 0.00180087 0)
(0.130028 0.00168172 0)
(0.127829 0.00157277 0)
(0.12571 0.00147306 0)
(0.123667 0.00138173 0)
(0.121698 0.00129803 0)
(0.1198 0.00122127 0)
(0.117969 0.00115085 0)
(0.116204 0.00108617 0)
(0.1145 0.00102673 0)
(0.112856 0.000972046 0)
(0.111268 0.000921673 0)
(0.109735 0.000875214 0)
(0.108252 0.000832303 0)
(0.106818 0.000792608 0)
(0.105431 0.000755829 0)
(0.104088 0.000721695 0)
(0.102786 0.000689963 0)
(0.101524 0.00066041 0)
(0.1003 0.000632842 0)
(0.0991124 0.000607078 0)
(0.0979587 0.000582961 0)
(0.0968374 0.000560346 0)
(0.095747 0.000539105 0)
(0.0946862 0.000519122 0)
(0.0936534 0.000500294 0)
(0.0926475 0.000482526 0)
(0.0916671 0.000465734 0)
(0.0907111 0.000449842 0)
(0.0897785 0.00043478 0)
(0.0888682 0.000420487 0)
(0.0879793 0.000406906 0)
(0.0871109 0.000393985 0)
(0.0862621 0.000381678 0)
(0.0854323 0.000369943 0)
(0.0846205 0.00035874 0)
(0.0838263 0.000348035 0)
(0.0830488 0.000337795 0)
(0.0822874 0.000327991 0)
(0.0815417 0.000318595 0)
(0.080811 0.000309582 0)
(0.0800948 0.00030093 0)
(0.0793926 0.000292617 0)
(0.078704 0.000284625 0)
(0.0780285 0.000276934 0)
(0.0773657 0.000269529 0)
(0.0767152 0.000262394 0)
(0.0760766 0.000255515 0)
(0.0754496 0.000248878 0)
(0.0748338 0.000242472 0)
(0.074229 0.000236285 0)
(0.0736347 0.000230306 0)
(0.0730508 0.000224526 0)
(0.0724769 0.000218935 0)
(0.0719128 0.000213527 0)
(0.0713581 0.000208292 0)
(0.0708128 0.000203224 0)
(0.0702764 0.000198317 0)
(0.0697489 0.000193566 0)
(0.0692299 0.000188965 0)
(0.0687193 0.000184511 0)
(0.0682168 0.0001802 0)
(0.0677223 0.000176031 0)
(0.0672355 0.000172003 0)
(0.0667562 0.000168116 0)
(0.0662841 0.000164375 0)
(0.0658192 0.000160787 0)
(0.065361 0.000157372 0)
(0.0649092 0.000154165 0)
(0.0644636 0.000151248 0)
(0.0640233 0.000148819 0)
(0.063587 0.000147403 0)
(0.0631521 0.000148833 0)
(0.0627241 0.000165477 0)
(0.0620785 0.000246527 0)
(0.194132 0.00849626 0)
(0.195127 0.00954935 0)
(0.19608 0.0101464 0)
(0.196785 0.0104382 0)
(0.197207 0.010499 0)
(0.197345 0.0103588 0)
(0.197187 0.0100507 0)
(0.196732 0.00961521 0)
(0.195994 0.00909349 0)
(0.195 0.00852286 0)
(0.193787 0.00793557 0)
(0.192391 0.00735754 0)
(0.190849 0.0068076 0)
(0.189196 0.00629753 0)
(0.187461 0.00583303 0)
(0.185669 0.00541509 0)
(0.18384 0.00504149 0)
(0.181989 0.00470814 0)
(0.180127 0.00441014 0)
(0.178263 0.00414252 0)
(0.176404 0.00390071 0)
(0.174552 0.00368072 0)
(0.172713 0.00347928 0)
(0.170888 0.0032937 0)
(0.169079 0.00312191 0)
(0.16729 0.00296224 0)
(0.16552 0.0028134 0)
(0.163772 0.00267436 0)
(0.162047 0.00254428 0)
(0.160345 0.00242245 0)
(0.158667 0.00230827 0)
(0.157014 0.00220119 0)
(0.155386 0.00210074 0)
(0.153784 0.00200646 0)
(0.152208 0.00191793 0)
(0.150658 0.00183476 0)
(0.149134 0.0017566 0)
(0.147636 0.00168309 0)
(0.146164 0.00161392 0)
(0.144717 0.00154878 0)
(0.143296 0.0014874 0)
(0.141899 0.00142952 0)
(0.140528 0.00137489 0)
(0.13918 0.00132329 0)
(0.137857 0.00127452 0)
(0.136557 0.00122837 0)
(0.13528 0.00118467 0)
(0.134026 0.00114325 0)
(0.132794 0.00110396 0)
(0.131583 0.00106666 0)
(0.130394 0.00103121 0)
(0.129226 0.00099749 0)
(0.128077 0.000965393 0)
(0.126949 0.000934812 0)
(0.12584 0.000905648 0)
(0.12475 0.000877814 0)
(0.123678 0.000851226 0)
(0.122624 0.000825808 0)
(0.121588 0.000801487 0)
(0.120569 0.000778198 0)
(0.119567 0.00075588 0)
(0.118581 0.000734476 0)
(0.117611 0.000713932 0)
(0.116656 0.000694201 0)
(0.115717 0.000675236 0)
(0.114793 0.000656995 0)
(0.113883 0.000639438 0)
(0.112987 0.000622528 0)
(0.112106 0.000606232 0)
(0.111237 0.000590517 0)
(0.110382 0.000575354 0)
(0.10954 0.000560714 0)
(0.108711 0.000546571 0)
(0.107894 0.000532902 0)
(0.107089 0.000519683 0)
(0.106296 0.000506893 0)
(0.105514 0.000494513 0)
(0.104744 0.000482524 0)
(0.103986 0.000470909 0)
(0.103238 0.000459652 0)
(0.1025 0.000448739 0)
(0.101774 0.000438156 0)
(0.101057 0.00042789 0)
(0.100351 0.000417932 0)
(0.0996548 0.000408271 0)
(0.0989682 0.000398899 0)
(0.0982911 0.000389809 0)
(0.0976234 0.000380997 0)
(0.0969648 0.00037246 0)
(0.0963152 0.000364198 0)
(0.0956743 0.000356218 0)
(0.095042 0.000348532 0)
(0.0944179 0.00034117 0)
(0.0938019 0.000334193 0)
(0.0931933 0.000327736 0)
(0.0925917 0.000322128 0)
(0.0919958 0.000318258 0)
(0.0914038 0.000319241 0)
(0.09082 0.000339514 0)
(0.0900559 0.000413527 0)
(0.195006 0.00797701 0)
(0.195806 0.00893414 0)
(0.1967 0.00954883 0)
(0.19754 0.0099021 0)
(0.198276 0.0100548 0)
(0.198891 0.0100352 0)
(0.199362 0.00986721 0)
(0.199667 0.00958003 0)
(0.199794 0.00920492 0)
(0.199745 0.00877182 0)
(0.199528 0.00830781 0)
(0.19916 0.00783586 0)
(0.19866 0.00737394 0)
(0.198048 0.00693461 0)
(0.197344 0.00652538 0)
(0.196567 0.00614956 0)
(0.195731 0.00580734 0)
(0.194849 0.00549684 0)
(0.19393 0.00521505 0)
(0.192982 0.00495853 0)
(0.19201 0.00472384 0)
(0.191018 0.00450791 0)
(0.190009 0.00430808 0)
(0.188986 0.00412217 0)
(0.187951 0.00394844 0)
(0.186905 0.0037855 0)
(0.185849 0.00363226 0)
(0.184785 0.00348785 0)
(0.183715 0.00335155 0)
(0.182639 0.00322276 0)
(0.181558 0.00310099 0)
(0.180473 0.00298575 0)
(0.179385 0.00287664 0)
(0.178296 0.00277327 0)
(0.177205 0.00267527 0)
(0.176114 0.00258231 0)
(0.175023 0.00249407 0)
(0.173933 0.00241024 0)
(0.172844 0.00233054 0)
(0.171757 0.0022547 0)
(0.170673 0.00218248 0)
(0.169591 0.00211364 0)
(0.168513 0.00204798 0)
(0.167439 0.00198528 0)
(0.166369 0.00192537 0)
(0.165303 0.00186808 0)
(0.164242 0.00181324 0)
(0.163186 0.00176071 0)
(0.162136 0.00171036 0)
(0.161091 0.00166205 0)
(0.160052 0.00161568 0)
(0.159019 0.00157113 0)
(0.157993 0.0015283 0)
(0.156973 0.00148711 0)
(0.15596 0.00144745 0)
(0.154954 0.00140926 0)
(0.153954 0.00137246 0)
(0.152962 0.00133697 0)
(0.151977 0.00130273 0)
(0.151 0.00126968 0)
(0.15003 0.00123776 0)
(0.149067 0.00120692 0)
(0.148112 0.00117711 0)
(0.147165 0.00114827 0)
(0.146226 0.00112037 0)
(0.145294 0.00109335 0)
(0.14437 0.00106719 0)
(0.143455 0.00104185 0)
(0.142547 0.00101727 0)
(0.141647 0.000993449 0)
(0.140755 0.000970336 0)
(0.139871 0.000947906 0)
(0.138995 0.00092613 0)
(0.138127 0.000904981 0)
(0.137267 0.000884434 0)
(0.136414 0.000864466 0)
(0.13557 0.000845053 0)
(0.134734 0.000826174 0)
(0.133906 0.00080781 0)
(0.133085 0.000789942 0)
(0.132273 0.000772552 0)
(0.131468 0.000755625 0)
(0.130671 0.000739145 0)
(0.129882 0.0007231 0)
(0.1291 0.000707479 0)
(0.128327 0.000692271 0)
(0.127561 0.000677469 0)
(0.126802 0.000663068 0)
(0.126052 0.000649065 0)
(0.125308 0.000635463 0)
(0.124572 0.00062227 0)
(0.123844 0.000609507 0)
(0.123122 0.000597216 0)
(0.122408 0.000585484 0)
(0.1217 0.000574496 0)
(0.120998 0.000564697 0)
(0.120302 0.000557251 0)
(0.119611 0.000555792 0)
(0.118933 0.000572095 0)
(0.118107 0.000621324 0)
(0.195789 0.00753816 0)
(0.19639 0.00836429 0)
(0.197104 0.00894663 0)
(0.197832 0.00931678 0)
(0.198524 0.00951402 0)
(0.19916 0.00956181 0)
(0.19972 0.00947886 0)
(0.200186 0.00928738 0)
(0.200544 0.00901212 0)
(0.20079 0.00867761 0)
(0.200925 0.00830651 0)
(0.200956 0.00791854 0)
(0.200894 0.00752976 0)
(0.20075 0.00715212 0)
(0.200536 0.00679356 0)
(0.200267 0.00645855 0)
(0.19995 0.00614876 0)
(0.199597 0.00586394 0)
(0.199214 0.00560258 0)
(0.198806 0.00536252 0)
(0.198377 0.00514142 0)
(0.19793 0.00493696 0)
(0.197466 0.00474708 0)
(0.196989 0.00456997 0)
(0.196497 0.00440415 0)
(0.195992 0.00424838 0)
(0.195474 0.00410165 0)
(0.194944 0.00396315 0)
(0.194402 0.00383219 0)
(0.193849 0.00370819 0)
(0.193285 0.00359065 0)
(0.192709 0.00347914 0)
(0.192124 0.00337324 0)
(0.191528 0.0032726 0)
(0.190922 0.00317687 0)
(0.190307 0.00308573 0)
(0.189683 0.00299889 0)
(0.189051 0.00291607 0)
(0.188409 0.002837 0)
(0.18776 0.00276144 0)
(0.187103 0.00268916 0)
(0.186439 0.00261995 0)
(0.185767 0.00255361 0)
(0.185088 0.00248995 0)
(0.184403 0.00242881 0)
(0.183712 0.00237002 0)
(0.183015 0.00231344 0)
(0.182312 0.00225893 0)
(0.181604 0.00220637 0)
(0.18089 0.00215565 0)
(0.180172 0.00210666 0)
(0.179449 0.00205929 0)
(0.178723 0.00201347 0)
(0.177992 0.0019691 0)
(0.177258 0.0019261 0)
(0.17652 0.00188442 0)
(0.175779 0.00184397 0)
(0.175036 0.00180471 0)
(0.17429 0.00176656 0)
(0.173542 0.00172949 0)
(0.172792 0.00169343 0)
(0.17204 0.00165835 0)
(0.171286 0.0016242 0)
(0.170532 0.00159094 0)
(0.169776 0.00155853 0)
(0.16902 0.00152695 0)
(0.168263 0.00149615 0)
(0.167506 0.00146611 0)
(0.166749 0.00143679 0)
(0.165992 0.00140818 0)
(0.165235 0.00138024 0)
(0.164479 0.00135295 0)
(0.163723 0.00132628 0)
(0.162969 0.00130023 0)
(0.162215 0.00127476 0)
(0.161463 0.00124985 0)
(0.160712 0.0012255 0)
(0.159963 0.00120167 0)
(0.159216 0.00117837 0)
(0.158471 0.00115556 0)
(0.157728 0.00113324 0)
(0.156987 0.00111139 0)
(0.156248 0.00109001 0)
(0.155512 0.00106908 0)
(0.154779 0.0010486 0)
(0.154048 0.00102856 0)
(0.153321 0.00100895 0)
(0.152596 0.000989781 0)
(0.151874 0.000971049 0)
(0.151156 0.000952764 0)
(0.150441 0.000934942 0)
(0.149729 0.000917613 0)
(0.14902 0.000900832 0)
(0.148315 0.000884708 0)
(0.147613 0.000869466 0)
(0.146914 0.0008556 0)
(0.146219 0.000844305 0)
(0.145528 0.00083863 0)
(0.144853 0.000845035 0)
(0.144054 0.000860897 0)
(0.1965 0.00717649 0)
(0.196949 0.00788004 0)
(0.197498 0.00841394 0)
(0.198083 0.00878093 0)
(0.198662 0.00900051 0)
(0.199211 0.00908955 0)
(0.199713 0.00906306 0)
(0.200153 0.00893839 0)
(0.200521 0.00873525 0)
(0.200813 0.00847372 0)
(0.201027 0.00817272 0)
(0.201168 0.0078491 0)
(0.201243 0.00751701 0)
(0.201259 0.00718753 0)
(0.201226 0.00686863 0)
(0.201153 0.00656542 0)
(0.201048 0.00628068 0)
(0.200917 0.00601538 0)
(0.200768 0.00576927 0)
(0.200603 0.00554129 0)
(0.200427 0.00533001 0)
(0.20024 0.00513384 0)
(0.200046 0.00495122 0)
(0.199844 0.00478074 0)
(0.199635 0.00462113 0)
(0.19942 0.00447131 0)
(0.199197 0.00433038 0)
(0.198968 0.00419754 0)
(0.198733 0.00407215 0)
(0.19849 0.00395362 0)
(0.19824 0.00384145 0)
(0.197983 0.0037352 0)
(0.197718 0.00363446 0)
(0.197446 0.00353886 0)
(0.197167 0.00344805 0)
(0.19688 0.0033617 0)
(0.196585 0.00327953 0)
(0.196282 0.00320123 0)
(0.195972 0.00312655 0)
(0.195654 0.00305524 0)
(0.195328 0.00298706 0)
(0.194995 0.0029218 0)
(0.194653 0.00285925 0)
(0.194304 0.00279923 0)
(0.193946 0.00274156 0)
(0.193581 0.00268607 0)
(0.193209 0.00263264 0)
(0.192828 0.0025811 0)
(0.19244 0.00253134 0)
(0.192044 0.00248325 0)
(0.191641 0.0024367 0)
(0.191231 0.00239161 0)
(0.190813 0.00234789 0)
(0.190388 0.00230544 0)
(0.189956 0.0022642 0)
(0.189517 0.00222409 0)
(0.189071 0.00218505 0)
(0.188618 0.00214701 0)
(0.188159 0.00210993 0)
(0.187693 0.00207375 0)
(0.187221 0.00203843 0)
(0.186743 0.00200391 0)
(0.186259 0.00197017 0)
(0.185769 0.00193717 0)
(0.185273 0.00190487 0)
(0.184772 0.00187323 0)
(0.184266 0.00184224 0)
(0.183754 0.00181186 0)
(0.183237 0.00178207 0)
(0.182715 0.00175285 0)
(0.182189 0.00172416 0)
(0.181658 0.001696 0)
(0.181123 0.00166835 0)
(0.180584 0.00164117 0)
(0.180041 0.00161447 0)
(0.179494 0.00158823 0)
(0.178943 0.00156242 0)
(0.178389 0.00153704 0)
(0.177831 0.00151207 0)
(0.177271 0.00148751 0)
(0.176707 0.00146335 0)
(0.176141 0.00143957 0)
(0.175572 0.00141617 0)
(0.175001 0.00139315 0)
(0.174428 0.00137049 0)
(0.173852 0.00134821 0)
(0.173274 0.0013263 0)
(0.172695 0.00130477 0)
(0.172114 0.00128362 0)
(0.171531 0.00126288 0)
(0.170948 0.00124255 0)
(0.170362 0.00122269 0)
(0.169776 0.00120336 0)
(0.169189 0.00118468 0)
(0.1686 0.00116687 0)
(0.168011 0.00115038 0)
(0.167423 0.00113612 0)
(0.166837 0.00112576 0)
(0.166263 0.00112018 0)
(0.165588 0.0011053 0)
(0.197151 0.00688013 0)
(0.197485 0.00747841 0)
(0.197898 0.00795764 0)
(0.198351 0.00830842 0)
(0.198812 0.00853693 0)
(0.199258 0.00865332 0)
(0.199673 0.00866865 0)
(0.200046 0.00859603 0)
(0.200368 0.00845061 0)
(0.200633 0.00824838 0)
(0.200841 0.00800487 0)
(0.200994 0.00773435 0)
(0.201097 0.0074492 0)
(0.201156 0.00715957 0)
(0.201177 0.00687326 0)
(0.201167 0.0065958 0)
(0.201134 0.00633074 0)
(0.201083 0.00608006 0)
(0.201018 0.00584452 0)
(0.200944 0.00562405 0)
(0.200863 0.00541806 0)
(0.200778 0.00522564 0)
(0.200689 0.00504581 0)
(0.200599 0.00487753 0)
(0.200506 0.00471984 0)
(0.200412 0.00457184 0)
(0.200317 0.00443276 0)
(0.20022 0.00430189 0)
(0.200122 0.00417859 0)
(0.200021 0.00406233 0)
(0.199919 0.0039526 0)
(0.199814 0.00384894 0)
(0.199707 0.00375094 0)
(0.199596 0.00365822 0)
(0.199483 0.00357041 0)
(0.199367 0.00348718 0)
(0.199247 0.00340821 0)
(0.199123 0.00333321 0)
(0.198996 0.00326191 0)
(0.198864 0.00319403 0)
(0.198728 0.00312934 0)
(0.198588 0.00306761 0)
(0.198444 0.00300863 0)
(0.198294 0.00295219 0)
(0.19814 0.00289813 0)
(0.197981 0.00284626 0)
(0.197817 0.00279643 0)
(0.197648 0.00274849 0)
(0.197473 0.0027023 0)
(0.197293 0.00265776 0)
(0.197108 0.00261473 0)
(0.196917 0.00257312 0)
(0.19672 0.00253282 0)
(0.196518 0.00249375 0)
(0.19631 0.00245582 0)
(0.196096 0.00241897 0)
(0.195877 0.00238311 0)
(0.195651 0.00234818 0)
(0.19542 0.00231413 0)
(0.195182 0.00228091 0)
(0.194939 0.00224845 0)
(0.19469 0.00221671 0)
(0.194435 0.00218566 0)
(0.194175 0.00215525 0)
(0.193908 0.00212545 0)
(0.193635 0.00209622 0)
(0.193357 0.00206754 0)
(0.193073 0.00203936 0)
(0.192783 0.00201168 0)
(0.192487 0.00198445 0)
(0.192186 0.00195767 0)
(0.191879 0.0019313 0)
(0.191567 0.00190534 0)
(0.191249 0.00187975 0)
(0.190926 0.00185454 0)
(0.190597 0.00182967 0)
(0.190263 0.00180514 0)
(0.189924 0.00178093 0)
(0.189579 0.00175704 0)
(0.18923 0.00173345 0)
(0.188875 0.00171015 0)
(0.188516 0.00168714 0)
(0.188152 0.00166442 0)
(0.187783 0.00164197 0)
(0.187409 0.0016198 0)
(0.187031 0.00159791 0)
(0.186649 0.0015763 0)
(0.186262 0.00155498 0)
(0.185871 0.00153396 0)
(0.185476 0.00151327 0)
(0.185077 0.00149292 0)
(0.184673 0.00147296 0)
(0.184266 0.00145346 0)
(0.183855 0.00143452 0)
(0.183441 0.00141633 0)
(0.183023 0.00139918 0)
(0.182603 0.00138351 0)
(0.182184 0.00136944 0)
(0.181773 0.00135405 0)
(0.181278 0.00132017 0)
(0.197719 0.00664618 0)
(0.197966 0.0071624 0)
(0.198273 0.00759209 0)
(0.198617 0.00792272 0)
(0.198973 0.00815304 0)
(0.199325 0.00828762 0)
(0.199657 0.00833375 0)
(0.19996 0.00830095 0)
(0.200225 0.00820066 0)
(0.200449 0.00804547 0)
(0.20063 0.00784811 0)
(0.200768 0.00762062 0)
(0.200868 0.00737386 0)
(0.200932 0.00711709 0)
(0.200967 0.0068578 0)
(0.200977 0.0066017 0)
(0.200968 0.00635288 0)
(0.200944 0.00611401 0)
(0.200909 0.00588667 0)
(0.200867 0.00567155 0)
(0.200821 0.00546878 0)
(0.200771 0.00527808 0)
(0.20072 0.00509892 0)
(0.200668 0.00493066 0)
(0.200616 0.00477262 0)
(0.200565 0.00462411 0)
(0.200515 0.00448447 0)
(0.200465 0.0043531 0)
(0.200416 0.00422942 0)
(0.200367 0.00411291 0)
(0.200318 0.00400308 0)
(0.20027 0.0038995 0)
(0.200222 0.00380175 0)
(0.200174 0.00370943 0)
(0.200125 0.00362218 0)
(0.200076 0.00353967 0)
(0.200026 0.00346157 0)
(0.199975 0.00338758 0)
(0.199923 0.00331742 0)
(0.19987 0.00325081 0)
(0.199816 0.00318752 0)
(0.19976 0.0031273 0)
(0.199702 0.00306994 0)
(0.199643 0.00301523 0)
(0.199581 0.00296298 0)
(0.199518 0.00291301 0)
(0.199452 0.00286517 0)
(0.199383 0.0028193 0)
(0.199313 0.00277525 0)
(0.199239 0.0027329 0)
(0.199163 0.00269212 0)
(0.199084 0.0026528 0)
(0.199001 0.00261485 0)
(0.198916 0.00257816 0)
(0.198828 0.00254265 0)
(0.198736 0.00250823 0)
(0.19864 0.00247483 0)
(0.198542 0.00244238 0)
(0.198439 0.00241082 0)
(0.198333 0.00238008 0)
(0.198224 0.00235012 0)
(0.19811 0.00232088 0)
(0.197993 0.00229232 0)
(0.197871 0.00226439 0)
(0.197746 0.00223705 0)
(0.197616 0.00221027 0)
(0.197483 0.00218401 0)
(0.197345 0.00215824 0)
(0.197203 0.00213293 0)
(0.197057 0.00210805 0)
(0.196907 0.00208358 0)
(0.196752 0.00205949 0)
(0.196593 0.00203577 0)
(0.19643 0.00201239 0)
(0.196262 0.00198933 0)
(0.19609 0.00196658 0)
(0.195914 0.00194412 0)
(0.195733 0.00192193 0)
(0.195547 0.00190001 0)
(0.195358 0.00187834 0)
(0.195163 0.00185691 0)
(0.194965 0.00183572 0)
(0.194762 0.00181475 0)
(0.194554 0.00179401 0)
(0.194343 0.00177348 0)
(0.194126 0.00175318 0)
(0.193906 0.00173311 0)
(0.193681 0.00171327 0)
(0.193452 0.00169368 0)
(0.193218 0.00167436 0)
(0.19298 0.00165532 0)
(0.192738 0.00163662 0)
(0.192492 0.0016183 0)
(0.192241 0.00160044 0)
(0.191987 0.00158316 0)
(0.191729 0.00156656 0)
(0.191469 0.00155061 0)
(0.191208 0.00153443 0)
(0.190949 0.0015138 0)
(0.190627 0.00147455 0)
(0.198283 0.00645868 0)
(0.198457 0.00690754 0)
(0.198673 0.00729113 0)
(0.198918 0.00759783 0)
(0.199176 0.00782307 0)
(0.199434 0.00796755 0)
(0.199681 0.00803532 0)
(0.199909 0.00803284 0)
(0.200112 0.00796854 0)
(0.200286 0.00785208 0)
(0.200429 0.00769364 0)
(0.200542 0.00750326 0)
(0.200626 0.00729028 0)
(0.200683 0.007063 0)
(0.200719 0.00682845 0)
(0.200735 0.00659232 0)
(0.200735 0.00635897 0)
(0.200724 0.0061316 0)
(0.200705 0.00591237 0)
(0.200679 0.00570263 0)
(0.200649 0.00550311 0)
(0.200617 0.00531406 0)
(0.200584 0.00513542 0)
(0.20055 0.0049669 0)
(0.200517 0.00480811 0)
(0.200484 0.00465856 0)
(0.200453 0.00451774 0)
(0.200423 0.00438516 0)
(0.200394 0.00426031 0)
(0.200366 0.0041427 0)
(0.200339 0.00403189 0)
(0.200313 0.00392744 0)
(0.200289 0.00382895 0)
(0.200265 0.00373602 0)
(0.200241 0.0036483 0)
(0.200219 0.00356544 0)
(0.200197 0.00348711 0)
(0.200175 0.00341301 0)
(0.200154 0.00334286 0)
(0.200132 0.00327638 0)
(0.200111 0.00321332 0)
(0.20009 0.00315344 0)
(0.200069 0.00309651 0)
(0.200047 0.00304234 0)
(0.200026 0.00299072 0)
(0.200004 0.00294147 0)
(0.199981 0.00289443 0)
(0.199958 0.00284944 0)
(0.199934 0.00280635 0)
(0.199909 0.00276503 0)
(0.199883 0.00272536 0)
(0.199857 0.00268721 0)
(0.199829 0.00265049 0)
(0.1998 0.00261509 0)
(0.199771 0.00258092 0)
(0.199739 0.00254789 0)
(0.199707 0.00251594 0)
(0.199673 0.00248498 0)
(0.199638 0.00245495 0)
(0.199601 0.00242579 0)
(0.199562 0.00239744 0)
(0.199522 0.00236985 0)
(0.19948 0.00234296 0)
(0.199436 0.00231674 0)
(0.19939 0.00229113 0)
(0.199343 0.00226611 0)
(0.199293 0.00224162 0)
(0.199241 0.00221765 0)
(0.199187 0.00219416 0)
(0.199131 0.00217111 0)
(0.199072 0.00214848 0)
(0.199012 0.00212625 0)
(0.198949 0.00210438 0)
(0.198883 0.00208286 0)
(0.198815 0.00206167 0)
(0.198745 0.00204079 0)
(0.198671 0.0020202 0)
(0.198596 0.00199988 0)
(0.198517 0.00197982 0)
(0.198436 0.00196001 0)
(0.198352 0.00194043 0)
(0.198266 0.00192107 0)
(0.198176 0.00190193 0)
(0.198084 0.001883 0)
(0.197989 0.00186428 0)
(0.197891 0.00184577 0)
(0.197789 0.00182747 0)
(0.197685 0.00180938 0)
(0.197578 0.00179153 0)
(0.197468 0.00177392 0)
(0.197354 0.00175657 0)
(0.197238 0.00173953 0)
(0.197118 0.00172281 0)
(0.196995 0.00170647 0)
(0.196869 0.00169052 0)
(0.196741 0.00167491 0)
(0.196611 0.00165931 0)
(0.19648 0.00164252 0)
(0.196347 0.00162106 0)
(0.196171 0.0015868 0)
(0.198886 0.0062927 0)
(0.198989 0.00668715 0)
(0.199116 0.0070313 0)
(0.199262 0.00731537 0)
(0.199418 0.00753363 0)
(0.199577 0.00768431 0)
(0.199731 0.00776891 0)
(0.199876 0.00779137 0)
(0.200006 0.00775753 0)
(0.20012 0.00767455 0)
(0.200216 0.00755039 0)
(0.200293 0.00739323 0)
(0.200353 0.00721098 0)
(0.200396 0.00701099 0)
(0.200424 0.00679974 0)
(0.200441 0.00658277 0)
(0.200447 0.00636457 0)
(0.200444 0.00614868 0)
(0.200436 0.00593773 0)
(0.200423 0.0057336 0)
(0.200407 0.00553753 0)
(0.200389 0.00535025 0)
(0.20037 0.00517213 0)
(0.200351 0.00500323 0)
(0.200332 0.00484343 0)
(0.200313 0.00469248 0)
(0.200295 0.00455004 0)
(0.200277 0.0044157 0)
(0.20026 0.00428907 0)
(0.200244 0.0041697 0)
(0.200229 0.00405719 0)
(0.200215 0.00395112 0)
(0.200202 0.00385111 0)
(0.200189 0.00375676 0)
(0.200177 0.00366773 0)
(0.200166 0.00358367 0)
(0.200156 0.00350424 0)
(0.200145 0.00342915 0)
(0.200136 0.00335811 0)
(0.200127 0.00329083 0)
(0.200118 0.00322707 0)
(0.20011 0.00316658 0)
(0.200102 0.00310913 0)
(0.200094 0.00305451 0)
(0.200086 0.00300253 0)
(0.200079 0.00295301 0)
(0.200071 0.00290576 0)
(0.200064 0.00286063 0)
(0.200057 0.00281747 0)
(0.200049 0.00277614 0)
(0.200042 0.00273652 0)
(0.200035 0.00269849 0)
(0.200027 0.00266194 0)
(0.200019 0.00262676 0)
(0.200011 0.00259287 0)
(0.200003 0.00256018 0)
(0.199995 0.0025286 0)
(0.199986 0.00249807 0)
(0.199977 0.00246851 0)
(0.199967 0.00243986 0)
(0.199957 0.00241207 0)
(0.199947 0.00238507 0)
(0.199936 0.00235882 0)
(0.199924 0.00233327 0)
(0.199912 0.00230837 0)
(0.1999 0.00228409 0)
(0.199886 0.00226039 0)
(0.199873 0.00223723 0)
(0.199858 0.00221458 0)
(0.199842 0.00219241 0)
(0.199826 0.00217069 0)
(0.199809 0.00214939 0)
(0.199792 0.0021285 0)
(0.199773 0.00210797 0)
(0.199753 0.0020878 0)
(0.199733 0.00206797 0)
(0.199711 0.00204844 0)
(0.199689 0.00202922 0)
(0.199665 0.00201028 0)
(0.19964 0.0019916 0)
(0.199614 0.00197318 0)
(0.199587 0.00195501 0)
(0.199559 0.00193706 0)
(0.19953 0.00191935 0)
(0.199499 0.00190187 0)
(0.199467 0.00188461 0)
(0.199434 0.00186757 0)
(0.199399 0.00185077 0)
(0.199363 0.00183421 0)
(0.199325 0.00181791 0)
(0.199286 0.00180187 0)
(0.199245 0.00178613 0)
(0.199203 0.00177069 0)
(0.199159 0.00175554 0)
(0.199114 0.00174065 0)
(0.199068 0.00172583 0)
(0.199021 0.00171068 0)
(0.198973 0.00169427 0)
(0.198922 0.00167492 0)
(0.198849 0.00165089 0)
(0.199518 0.00621135 0)
(0.199545 0.00657132 0)
(0.199582 0.00688798 0)
(0.199627 0.0071531 0)
(0.199677 0.00736106 0)
(0.199729 0.00750934 0)
(0.199782 0.00759831 0)
(0.199833 0.00763066 0)
(0.199881 0.00761087 0)
(0.199925 0.00754474 0)
(0.199963 0.0074389 0)
(0.199996 0.00730036 0)
(0.200023 0.00713613 0)
(0.200045 0.0069528 0)
(0.200061 0.00675642 0)
(0.200074 0.00655225 0)
(0.200082 0.00634473 0)
(0.200088 0.00613747 0)
(0.200091 0.00593328 0)
(0.200092 0.00573427 0)
(0.200091 0.00554193 0)
(0.20009 0.00535727 0)
(0.200087 0.00518088 0)
(0.200084 0.00501302 0)
(0.200081 0.00485377 0)
(0.200078 0.00470299 0)
(0.200075 0.00456045 0)
(0.200071 0.00442585 0)
(0.200068 0.00429883 0)
(0.200065 0.00417902 0)
(0.200062 0.00406603 0)
(0.200059 0.00395947 0)
(0.200057 0.00385896 0)
(0.200054 0.00376414 0)
(0.200052 0.00367464 0)
(0.200049 0.00359014 0)
(0.200047 0.00351031 0)
(0.200045 0.00343484 0)
(0.200044 0.00336344 0)
(0.200042 0.00329584 0)
(0.20004 0.00323178 0)
(0.200039 0.00317103 0)
(0.200037 0.00311335 0)
(0.200036 0.00305853 0)
(0.200035 0.00300638 0)
(0.200033 0.0029567 0)
(0.200032 0.00290933 0)
(0.200031 0.00286411 0)
(0.20003 0.00282088 0)
(0.200029 0.00277951 0)
(0.200027 0.00273987 0)
(0.200026 0.00270184 0)
(0.200025 0.00266531 0)
(0.200024 0.00263018 0)
(0.200023 0.00259635 0)
(0.200022 0.00256374 0)
(0.20002 0.00253226 0)
(0.200019 0.00250185 0)
(0.200018 0.00247243 0)
(0.200016 0.00244394 0)
(0.200015 0.00241632 0)
(0.200013 0.00238952 0)
(0.200011 0.00236348 0)
(0.200009 0.00233816 0)
(0.200007 0.00231351 0)
(0.200005 0.00228949 0)
(0.200003 0.00226607 0)
(0.2 0.00224321 0)
(0.199998 0.00222088 0)
(0.199995 0.00219904 0)
(0.199992 0.00217768 0)
(0.199989 0.00215675 0)
(0.199985 0.00213624 0)
(0.199982 0.00211612 0)
(0.199978 0.00209638 0)
(0.199974 0.00207699 0)
(0.199969 0.00205793 0)
(0.199965 0.00203919 0)
(0.19996 0.00202075 0)
(0.199955 0.00200259 0)
(0.199949 0.00198471 0)
(0.199943 0.0019671 0)
(0.199937 0.00194974 0)
(0.19993 0.00193264 0)
(0.199923 0.00191578 0)
(0.199916 0.00189917 0)
(0.199908 0.0018828 0)
(0.1999 0.00186669 0)
(0.199891 0.00185084 0)
(0.199882 0.00183527 0)
(0.199872 0.00181999 0)
(0.199862 0.00180499 0)
(0.199851 0.0017903 0)
(0.19984 0.00177585 0)
(0.199828 0.00176158 0)
(0.199816 0.00174728 0)
(0.199803 0.00173257 0)
(0.19979 0.00171698 0)
(0.199775 0.00170023 0)
(0.199754 0.00168371 0)
(0.199997 1.5764e-06 0)