/*--------------------------------*- C++ -*----------------------------------*\
| =========                 |                                                 |
| \\      /  F ield         | OpenFOAM: The Open Source CFD Toolbox           |
|  \\    /   O peration     | Version:  2.3.0                                 |
|   \\  /    A nd           | Web:      www.OpenFOAM.org                      |
|    \\/     M anipulation  |                                                 |
\*---------------------------------------------------------------------------*/
FoamFile
{
    version     2.0;
    format      ascii;
    class       volVectorField;
    location    "0.2";
    object      U;
}
// * * * * * * * * * * * * * * * * * * * * * * * * * * * * * * * * * * * * * //

dimensions      [0 1 -1 0 0 0 0];

internalField   nonuniform List<vector> 
2700
(
(0.185025 0.00502028 0)
(0.173514 0.0057813 0)
(0.158817 0.00543631 0)
(0.143356 0.00502201 0)
(0.128975 0.00454747 0)
(0.115971 0.00399847 0)
(0.104225 0.00342392 0)
(0.0936886 0.0028661 0)
(0.0843735 0.00234772 0)
(0.0762617 0.00188178 0)
(0.0692899 0.00147634 0)
(0.063364 0.00113469 0)
(0.0583733 0.000855623 0)
(0.0541991 0.00063442 0)
(0.0507214 0.000464097 0)
(0.0478252 0.000336573 0)
(0.0454054 0.000243647 0)
(0.0433696 0.000177708 0)
(0.0416395 0.00013213 0)
(0.0401508 0.000101431 0)
(0.0388522 8.12582e-05 0)
(0.0377036 6.82759e-05 0)
(0.0366744 6.00221e-05 0)
(0.0357415 5.47439e-05 0)
(0.0348875 5.12424e-05 0)
(0.0340997 4.87332e-05 0)
(0.0333685 4.67286e-05 0)
(0.0326866 4.4945e-05 0)
(0.0320485 4.32318e-05 0)
(0.0314498 4.15204e-05 0)
(0.0308871 3.97899e-05 0)
(0.0303574 3.8044e-05 0)
(0.0298582 3.62969e-05 0)
(0.0293875 3.45657e-05 0)
(0.0289434 3.28659e-05 0)
(0.0285243 3.121e-05 0)
(0.0281286 2.96067e-05 0)
(0.0277552 2.8062e-05 0)
(0.027403 2.65793e-05 0)
(0.0270709 2.51606e-05 0)
(0.026758 2.38066e-05 0)
(0.0264637 2.25165e-05 0)
(0.0261873 2.12873e-05 0)
(0.0259282 2.01114e-05 0)
(0.0256861 1.89756e-05 0)
(0.0254605 1.7859e-05 0)
(0.0252515 1.67326e-05 0)
(0.0250591 1.55612e-05 0)
(0.0248835 1.43073e-05 0)
(0.0247251 1.29375e-05 0)
(0.0245844 1.14297e-05 0)
(0.0244619 9.7818e-06 0)
(0.024358 8.01807e-06 0)
(0.0242726 6.19492e-06 0)
(0.0242053 4.40133e-06 0)
(0.0241552 2.74303e-06 0)
(0.0241209 1.29148e-06 0)
(0.0241003 9.42757e-08 0)
(0.0240912 -7.71411e-07 0)
(0.0240907 -1.33109e-06 0)
(0.024095 -1.51037e-06 0)
(0.0241019 -1.55682e-06 0)
(0.0241097 -1.54184e-06 0)
(0.0241175 -1.47472e-06 0)
(0.0241245 -1.3674e-06 0)
(0.0241302 -1.26129e-06 0)
(0.0241342 -1.16793e-06 0)
(0.024136 -1.05099e-06 0)
(0.024135 -6.8139e-07 0)
(0.0241303 -2.49038e-07 0)
(0.0241222 1.49797e-07 0)
(0.0241109 4.82318e-07 0)
(0.0240971 7.39308e-07 0)
(0.0240816 9.22481e-07 0)
(0.024065 1.03914e-06 0)
(0.0240479 1.09967e-06 0)
(0.0240308 1.1153e-06 0)
(0.0240142 1.09701e-06 0)
(0.0239983 1.05428e-06 0)
(0.0239834 9.94892e-07 0)
(0.0239696 9.24882e-07 0)
(0.023957 8.48649e-07 0)
(0.0239457 7.69414e-07 0)
(0.0239356 6.893e-07 0)
(0.0239266 6.09867e-07 0)
(0.0239189 5.32204e-07 0)
(0.0239122 4.57183e-07 0)
(0.0239065 3.85619e-07 0)
(0.0239018 3.18236e-07 0)
(0.023898 2.55897e-07 0)
(0.023895 1.99497e-07 0)
(0.0238926 1.5037e-07 0)
(0.0238908 1.09937e-07 0)
(0.0238896 7.97946e-08 0)
(0.0238886 6.24095e-08 0)
(0.0238879 6.20194e-08 0)
(0.0238872 8.63933e-08 0)
(0.0238862 1.54496e-07 0)
(0.0238845 3.08953e-07 0)
(0.0238789 1.01019e-06 0)
(0.200885 0.00843002 0)
(0.202375 0.00989651 0)
(0.200758 0.00956109 0)
(0.196719 0.00920127 0)
(0.191614 0.00878808 0)
(0.185986 0.00823123 0)
(0.180002 0.00757387 0)
(0.17381 0.00687009 0)
(0.167576 0.00615236 0)
(0.161436 0.00544356 0)
(0.155486 0.00476373 0)
(0.149791 0.0041295 0)
(0.14439 0.00355279 0)
(0.139307 0.00304054 0)
(0.134547 0.00259509 0)
(0.130108 0.00221492 0)
(0.125978 0.00189551 0)
(0.122141 0.00163048 0)
(0.118578 0.00141246 0)
(0.11527 0.00123394 0)
(0.112195 0.00108785 0)
(0.109335 0.000967876 0)
(0.10667 0.00086863 0)
(0.104183 0.000785696 0)
(0.101859 0.000715546 0)
(0.0996827 0.000655428 0)
(0.0976417 0.000603228 0)
(0.0957245 0.000557344 0)
(0.093921 0.000516564 0)
(0.0922222 0.000479971 0)
(0.0906201 0.000446866 0)
(0.0891077 0.000416707 0)
(0.0876789 0.000389066 0)
(0.0863281 0.000363599 0)
(0.0850505 0.000340019 0)
(0.083842 0.000318088 0)
(0.0826989 0.000297599 0)
(0.081618 0.000278373 0)
(0.0805965 0.000260257 0)
(0.0796322 0.000243112 0)
(0.078723 0.000226819 0)
(0.0778674 0.000211268 0)
(0.0770639 0.000196358 0)
(0.0763118 0.000181988 0)
(0.0756101 0.000168054 0)
(0.0749587 0.000154446 0)
(0.0743574 0.000141049 0)
(0.0738064 0.000127752 0)
(0.0733061 0.000114461 0)
(0.072857 0.000101123 0)
(0.0724592 8.77434e-05 0)
(0.0721128 7.44075e-05 0)
(0.071817 6.12873e-05 0)
(0.0715704 4.86421e-05 0)
(0.0713704 3.68021e-05 0)
(0.0712133 2.61286e-05 0)
(0.0710945 1.69269e-05 0)
(0.0710081 9.39657e-06 0)
(0.0709481 3.64e-06 0)
(0.0709084 -4.45807e-07 0)
(0.0708851 -2.91595e-06 0)
(0.0708735 -4.04843e-06 0)
(0.0708679 -4.16196e-06 0)
(0.0708643 -3.7147e-06 0)
(0.0708605 -3.07704e-06 0)
(0.0708554 -2.16097e-06 0)
(0.0708464 -8.151e-07 0)
(0.070831 8.70052e-07 0)
(0.0708076 2.90966e-06 0)
(0.0707763 4.96585e-06 0)
(0.0707378 6.77479e-06 0)
(0.0706931 8.20918e-06 0)
(0.0706436 9.22822e-06 0)
(0.0705909 9.8426e-06 0)
(0.0705363 1.0093e-05 0)
(0.0704813 1.00366e-05 0)
(0.0704271 9.73644e-06 0)
(0.0703747 9.25426e-06 0)
(0.0703247 8.64525e-06 0)
(0.0702779 7.95603e-06 0)
(0.0702346 7.22416e-06 0)
(0.070195 6.47858e-06 0)
(0.0701593 5.74107e-06 0)
(0.0701275 5.0273e-06 0)
(0.0700995 4.34845e-06 0)
(0.0700752 3.71211e-06 0)
(0.0700543 3.12337e-06 0)
(0.0700366 2.5855e-06 0)
(0.0700219 2.10039e-06 0)
(0.0700099 1.66918e-06 0)
(0.0700002 1.29233e-06 0)
(0.0699925 9.70507e-07 0)
(0.0699866 7.05017e-07 0)
(0.0699822 4.98536e-07 0)
(0.0699789 3.57594e-07 0)
(0.0699765 2.95927e-07 0)
(0.0699744 3.4228e-07 0)
(0.0699723 5.65633e-07 0)
(0.0699694 1.14853e-06 0)
(0.0699613 3.00163e-06 0)
(0.201535 0.0062358 0)
(0.204572 0.00851764 0)
(0.206672 0.00908154 0)
(0.207308 0.00942159 0)
(0.207015 0.00959713 0)
(0.206102 0.0095074 0)
(0.204632 0.0091932 0)
(0.20266 0.00872893 0)
(0.200283 0.00816885 0)
(0.1976 0.007553 0)
(0.194698 0.00691552 0)
(0.191651 0.00628507 0)
(0.188519 0.00568342 0)
(0.185352 0.00512526 0)
(0.182189 0.00461883 0)
(0.179059 0.00416711 0)
(0.175983 0.00376903 0)
(0.172976 0.00342087 0)
(0.170047 0.00311738 0)
(0.167202 0.00285275 0)
(0.164444 0.00262129 0)
(0.161773 0.00241775 0)
(0.159189 0.00223758 0)
(0.156692 0.00207697 0)
(0.154279 0.00193277 0)
(0.15195 0.00180243 0)
(0.149702 0.00168391 0)
(0.147534 0.00157556 0)
(0.145443 0.00147605 0)
(0.143428 0.00138426 0)
(0.141487 0.00129929 0)
(0.139619 0.00122035 0)
(0.137821 0.00114677 0)
(0.136093 0.00107797 0)
(0.134433 0.00101341 0)
(0.132839 0.000952637 0)
(0.131312 0.00089521 0)
(0.129849 0.00084075 0)
(0.12845 0.000788904 0)
(0.127115 0.000739352 0)
(0.125843 0.000691799 0)
(0.124634 0.000645969 0)
(0.123489 0.000601604 0)
(0.122407 0.000558452 0)
(0.121389 0.000516268 0)
(0.120436 0.000474816 0)
(0.119549 0.000433879 0)
(0.118729 0.000393284 0)
(0.117978 0.000352929 0)
(0.117295 0.000312824 0)
(0.116682 0.000273127 0)
(0.116138 0.000234162 0)
(0.115662 0.000196427 0)
(0.115253 0.000160561 0)
(0.114906 0.000127287 0)
(0.114618 9.73282e-05 0)
(0.114382 7.13178e-05 0)
(0.114193 4.96895e-05 0)
(0.114044 3.25563e-05 0)
(0.113928 1.97053e-05 0)
(0.113837 1.06902e-05 0)
(0.113764 5.07001e-06 0)
(0.113707 2.23696e-06 0)
(0.11366 1.4315e-06 0)
(0.113619 2.07538e-06 0)
(0.113579 4.09876e-06 0)
(0.113535 7.52215e-06 0)
(0.113484 1.2024e-05 0)
(0.113426 1.69973e-05 0)
(0.11336 2.18469e-05 0)
(0.113286 2.61154e-05 0)
(0.113204 2.95283e-05 0)
(0.113116 3.196e-05 0)
(0.113023 3.33978e-05 0)
(0.112927 3.39067e-05 0)
(0.112829 3.36008e-05 0)
(0.112731 3.26189e-05 0)
(0.112635 3.11051e-05 0)
(0.112542 2.91971e-05 0)
(0.112452 2.70182e-05 0)
(0.112368 2.46745e-05 0)
(0.112289 2.2254e-05 0)
(0.112216 1.98285e-05 0)
(0.11215 1.74545e-05 0)
(0.11209 1.51765e-05 0)
(0.112037 1.30276e-05 0)
(0.11199 1.10321e-05 0)
(0.111949 9.20683e-06 0)
(0.111914 7.56196e-06 0)
(0.111885 6.10252e-06 0)
(0.11186 4.8293e-06 0)
(0.11184 3.74024e-06 0)
(0.111823 2.83212e-06 0)
(0.11181 2.10293e-06 0)
(0.1118 1.55643e-06 0)
(0.111792 1.21003e-06 0)
(0.111785 1.11401e-06 0)
(0.11178 1.40045e-06 0)
(0.111774 2.43125e-06 0)
(0.111764 5.32364e-06 0)
(0.200979 0.00442465 0)
(0.20338 0.00699375 0)
(0.205872 0.00811886 0)
(0.207688 0.00879014 0)
(0.208965 0.00923106 0)
(0.209886 0.00940267 0)
(0.210458 0.00933145 0)
(0.210659 0.00908261 0)
(0.210503 0.00870949 0)
(0.210026 0.00825163 0)
(0.209268 0.00774285 0)
(0.208273 0.00721284 0)
(0.20708 0.00668577 0)
(0.205728 0.00617952 0)
(0.204254 0.00570595 0)
(0.202686 0.00527164 0)
(0.201052 0.00487896 0)
(0.199371 0.00452719 0)
(0.197659 0.00421359 0)
(0.19593 0.00393428 0)
(0.194191 0.00368498 0)
(0.192452 0.00346145 0)
(0.190716 0.00325981 0)
(0.188988 0.00307663 0)
(0.187273 0.00290902 0)
(0.185572 0.00275458 0)
(0.183888 0.00261136 0)
(0.182225 0.00247779 0)
(0.180583 0.00235258 0)
(0.178965 0.0022347 0)
(0.177372 0.00212329 0)
(0.175807 0.00201763 0)
(0.174271 0.00191711 0)
(0.172767 0.00182117 0)
(0.171295 0.00172935 0)
(0.169857 0.00164119 0)
(0.168455 0.00155629 0)
(0.167091 0.00147426 0)
(0.165766 0.00139475 0)
(0.164482 0.00131742 0)
(0.163242 0.00124195 0)
(0.162047 0.00116802 0)
(0.160899 0.00109534 0)
(0.1598 0.00102359 0)
(0.158754 0.000952502 0)
(0.157761 0.0008818 0)
(0.156825 0.000811265 0)
(0.155949 0.000740762 0)
(0.155133 0.000670283 0)
(0.15438 0.0006 0)
(0.153692 0.000530307 0)
(0.153069 0.00046184 0)
(0.15251 0.000395469 0)
(0.152014 0.000332248 0)
(0.151579 0.000273325 0)
(0.151202 0.000219816 0)
(0.150878 0.000172669 0)
(0.150602 0.000132531 0)
(0.150369 9.964e-05 0)
(0.150172 7.38163e-05 0)
(0.150007 5.45002e-05 0)
(0.149866 4.08609e-05 0)
(0.149746 3.19204e-05 0)
(0.149641 2.6878e-05 0)
(0.149545 2.52828e-05 0)
(0.149454 2.68215e-05 0)
(0.149364 3.10269e-05 0)
(0.149271 3.71862e-05 0)
(0.149174 4.43786e-05 0)
(0.149071 5.17188e-05 0)
(0.148961 5.84878e-05 0)
(0.148844 6.41873e-05 0)
(0.14872 6.85231e-05 0)
(0.148589 7.13706e-05 0)
(0.148453 7.27351e-05 0)
(0.148314 7.27128e-05 0)
(0.148172 7.14562e-05 0)
(0.148029 6.9147e-05 0)
(0.147887 6.59758e-05 0)
(0.147747 6.21296e-05 0)
(0.147611 5.77839e-05 0)
(0.14748 5.30991e-05 0)
(0.147356 4.82196e-05 0)
(0.147239 4.32732e-05 0)
(0.14713 3.83714e-05 0)
(0.14703 3.36099e-05 0)
(0.14694 2.90682e-05 0)
(0.146859 2.48105e-05 0)
(0.146787 2.08857e-05 0)
(0.146724 1.73282e-05 0)
(0.14667 1.41591e-05 0)
(0.146624 1.13884e-05 0)
(0.146586 9.0174e-06 0)
(0.146554 7.043e-06 0)
(0.146528 5.46467e-06 0)
(0.146506 4.29747e-06 0)
(0.146489 3.60272e-06 0)
(0.146475 3.56054e-06 0)
(0.146463 4.67192e-06 0)
(0.146446 8.33642e-06 0)
(0.200608 0.00333585 0)
(0.202297 0.00577189 0)
(0.20439 0.00710254 0)
(0.206232 0.00789194 0)
(0.207778 0.00842355 0)
(0.209141 0.00872102 0)
(0.210332 0.00879909 0)
(0.211313 0.00870437 0)
(0.212064 0.00848216 0)
(0.212587 0.00816732 0)
(0.212894 0.00778944 0)
(0.213 0.00737522 0)
(0.212924 0.00694749 0)
(0.212689 0.00652422 0)
(0.212316 0.00611834 0)
(0.211829 0.0057381 0)
(0.211246 0.00538785 0)
(0.210584 0.00506884 0)
(0.209859 0.00478016 0)
(0.209081 0.00451952 0)
(0.208259 0.00428394 0)
(0.207401 0.00407018 0)
(0.206513 0.00387515 0)
(0.2056 0.00369599 0)
(0.204664 0.00353023 0)
(0.20371 0.00337581 0)
(0.202741 0.00323098 0)
(0.201758 0.00309435 0)
(0.200766 0.00296478 0)
(0.199765 0.00284131 0)
(0.198758 0.00272316 0)
(0.197748 0.00260968 0)
(0.196737 0.0025003 0)
(0.195728 0.00239451 0)
(0.194722 0.00229184 0)
(0.193721 0.00219189 0)
(0.192729 0.00209425 0)
(0.191748 0.00199856 0)
(0.19078 0.00190444 0)
(0.189827 0.00181156 0)
(0.188893 0.00171958 0)
(0.187979 0.00162818 0)
(0.187089 0.00153703 0)
(0.186226 0.00144582 0)
(0.185392 0.00135427 0)
(0.18459 0.00126212 0)
(0.183824 0.00116921 0)
(0.183096 0.00107549 0)
(0.182408 0.000981099 0)
(0.181764 0.000886405 0)
(0.181164 0.000792058 0)
(0.180609 0.000698999 0)
(0.180101 0.000608441 0)
(0.179639 0.00052179 0)
(0.179222 0.000440538 0)
(0.178848 0.000366108 0)
(0.178515 0.000299698 0)
(0.17822 0.000242137 0)
(0.177959 0.000193784 0)
(0.17773 0.000154512 0)
(0.177528 0.000123762 0)
(0.177349 0.000100683 0)
(0.17719 8.43155e-05 0)
(0.177045 7.38294e-05 0)
(0.176911 6.86073e-05 0)
(0.176784 6.80648e-05 0)
(0.17666 7.14557e-05 0)
(0.176537 7.78091e-05 0)
(0.176412 8.59885e-05 0)
(0.176283 9.48933e-05 0)
(0.176149 0.000103595 0)
(0.176009 0.000111396 0)
(0.175861 0.000117822 0)
(0.175705 0.000122595 0)
(0.175542 0.000125591 0)
(0.175372 0.000126805 0)
(0.175196 0.000126312 0)
(0.175015 0.000124238 0)
(0.17483 0.000120741 0)
(0.174644 0.000115998 0)
(0.174458 0.000110194 0)
(0.174273 0.000103518 0)
(0.174092 9.6166e-05 0)
(0.173917 8.83307e-05 0)
(0.17375 8.02039e-05 0)
(0.173592 7.19711e-05 0)
(0.173444 6.38066e-05 0)
(0.173308 5.58692e-05 0)
(0.173184 4.82981e-05 0)
(0.173073 4.12088e-05 0)
(0.172974 3.46921e-05 0)
(0.172888 2.88132e-05 0)
(0.172813 2.36142e-05 0)
(0.172749 1.91189e-05 0)
(0.172696 1.53424e-05 0)
(0.172651 1.23086e-05 0)
(0.172615 1.00902e-05 0)
(0.172584 8.89698e-06 0)
(0.172559 9.31672e-06 0)
(0.172532 1.30425e-05 0)
(0.200397 0.002615 0)
(0.201585 0.00476193 0)
(0.203226 0.00612977 0)
(0.204838 0.00698547 0)
(0.206289 0.00756905 0)
(0.207632 0.00793871 0)
(0.208883 0.0081092 0)
(0.210014 0.0081146 0)
(0.211002 0.00799412 0)
(0.211841 0.0077801 0)
(0.212531 0.00749942 0)
(0.213078 0.007176 0)
(0.213488 0.00683064 0)
(0.213775 0.00648022 0)
(0.213951 0.00613736 0)
(0.21403 0.00581073 0)
(0.214026 0.00550549 0)
(0.213952 0.00522401 0)
(0.213817 0.00496656 0)
(0.213631 0.00473199 0)
(0.213401 0.00451832 0)
(0.213132 0.00432316 0)
(0.21283 0.00414407 0)
(0.212497 0.00397871 0)
(0.212136 0.00382499 0)
(0.21175 0.00368108 0)
(0.21134 0.00354543 0)
(0.210909 0.00341675 0)
(0.210458 0.00329398 0)
(0.209989 0.0031762 0)
(0.209503 0.00306267 0)
(0.209001 0.00295275 0)
(0.208487 0.00284587 0)
(0.20796 0.00274153 0)
(0.207423 0.00263928 0)
(0.206877 0.00253868 0)
(0.206325 0.00243935 0)
(0.205768 0.0023409 0)
(0.205208 0.00224296 0)
(0.204647 0.00214517 0)
(0.204088 0.00204718 0)
(0.203532 0.00194864 0)
(0.202981 0.00184924 0)
(0.202439 0.00174864 0)
(0.201907 0.00164658 0)
(0.201388 0.00154283 0)
(0.200884 0.00143729 0)
(0.200398 0.00133 0)
(0.199931 0.00122123 0)
(0.199485 0.00111151 0)
(0.199063 0.00100168 0)
(0.198664 0.000892907 0)
(0.19829 0.00078664 0)
(0.197942 0.000684516 0)
(0.197619 0.000588246 0)
(0.19732 0.000499449 0)
(0.197046 0.000419487 0)
(0.196795 0.000349326 0)
(0.196566 0.000289436 0)
(0.196357 0.000239784 0)
(0.196167 0.000199901 0)
(0.195994 0.000169023 0)
(0.195834 0.000146269 0)
(0.195686 0.000130818 0)
(0.195546 0.000121961 0)
(0.195412 0.000118978 0)
(0.195282 0.000120979 0)
(0.195152 0.000126861 0)
(0.195022 0.000135386 0)
(0.194889 0.000145347 0)
(0.194752 0.000155695 0)
(0.194608 0.000165599 0)
(0.194456 0.000174445 0)
(0.194296 0.000181809 0)
(0.194125 0.000187421 0)
(0.193945 0.000191135 0)
(0.193755 0.000192884 0)
(0.193555 0.000192664 0)
(0.193346 0.000190514 0)
(0.19313 0.000186508 0)
(0.192908 0.00018075 0)
(0.192683 0.000173378 0)
(0.192456 0.000164566 0)
(0.192232 0.00015452 0)
(0.192011 0.000143478 0)
(0.191797 0.000131704 0)
(0.191592 0.000119477 0)
(0.191398 0.000107078 0)
(0.191218 9.4783e-05 0)
(0.191052 8.28458e-05 0)
(0.190902 7.14903e-05 0)
(0.190767 6.0903e-05 0)
(0.190648 5.12297e-05 0)
(0.190544 4.25773e-05 0)
(0.190455 3.50226e-05 0)
(0.19038 2.86319e-05 0)
(0.190316 2.35046e-05 0)
(0.190263 1.98698e-05 0)
(0.19022 1.83433e-05 0)
(0.190177 2.07499e-05 0)
(0.200273 0.00210912 0)
(0.20113 0.0039616 0)
(0.202406 0.00528507 0)
(0.203765 0.00617211 0)
(0.205052 0.00678696 0)
(0.206268 0.00719787 0)
(0.207425 0.00742571 0)
(0.208504 0.0074977 0)
(0.209486 0.00744753 0)
(0.210362 0.00730513 0)
(0.211131 0.00709541 0)
(0.211795 0.00684006 0)
(0.212358 0.00655798 0)
(0.212828 0.00626477 0)
(0.213213 0.00597246 0)
(0.213525 0.00568967 0)
(0.213772 0.00542194 0)
(0.213965 0.00517232 0)
(0.214111 0.0049419 0)
(0.214217 0.00473038 0)
(0.214289 0.00453654 0)
(0.214331 0.00435869 0)
(0.214347 0.00419493 0)
(0.21434 0.00404336 0)
(0.21431 0.00390218 0)
(0.214261 0.0037698 0)
(0.214192 0.00364481 0)
(0.214105 0.00352604 0)
(0.214001 0.00341244 0)
(0.213881 0.00330317 0)
(0.213744 0.00319748 0)
(0.213593 0.00309473 0)
(0.213427 0.00299435 0)
(0.213248 0.00289582 0)
(0.213056 0.00279868 0)
(0.212852 0.00270249 0)
(0.212638 0.00260683 0)
(0.212413 0.00251129 0)
(0.21218 0.00241548 0)
(0.211939 0.00231903 0)
(0.211692 0.00222157 0)
(0.21144 0.00212272 0)
(0.211183 0.00202216 0)
(0.210925 0.00191955 0)
(0.210665 0.00181463 0)
(0.210406 0.00170722 0)
(0.210148 0.00159724 0)
(0.209893 0.00148481 0)
(0.209642 0.00137027 0)
(0.209397 0.00125426 0)
(0.209157 0.00113774 0)
(0.208924 0.00102196 0)
(0.208699 0.000908491 0)
(0.208482 0.000799054 0)
(0.208273 0.000695446 0)
(0.208074 0.000599361 0)
(0.207884 0.000512236 0)
(0.207704 0.000435113 0)
(0.207534 0.000368556 0)
(0.207374 0.000312641 0)
(0.207224 0.000267025 0)
(0.207082 0.000231074 0)
(0.206949 0.000204019 0)
(0.206822 0.000185099 0)
(0.2067 0.000173591 0)
(0.206582 0.000168728 0)
(0.206467 0.000169576 0)
(0.206352 0.000175016 0)
(0.206236 0.000183815 0)
(0.206118 0.000194764 0)
(0.205996 0.00020679 0)
(0.205867 0.000219006 0)
(0.20573 0.000230715 0)
(0.205584 0.000241387 0)
(0.205426 0.000250628 0)
(0.205256 0.000258141 0)
(0.205072 0.000263699 0)
(0.204876 0.000267125 0)
(0.204666 0.000268276 0)
(0.204443 0.000267051 0)
(0.20421 0.000263391 0)
(0.203967 0.000257293 0)
(0.203717 0.000248819 0)
(0.203464 0.000238108 0)
(0.203209 0.000225377 0)
(0.202957 0.000210915 0)
(0.202711 0.000195076 0)
(0.202473 0.00017826 0)
(0.202247 0.000160891 0)
(0.202036 0.000143397 0)
(0.20184 0.000126189 0)
(0.201662 0.000109636 0)
(0.201501 9.40553e-05 0)
(0.201359 7.97057e-05 0)
(0.201235 6.67882e-05 0)
(0.201128 5.54629e-05 0)
(0.201036 4.58901e-05 0)
(0.20096 3.83209e-05 0)
(0.200897 3.33316e-05 0)
(0.200835 3.25499e-05 0)
(0.200197 0.0017388 0)
(0.200832 0.00333071 0)
(0.20183 0.0045645 0)
(0.202961 0.00544681 0)
(0.204082 0.00607478 0)
(0.205163 0.00650996 0)
(0.206203 0.00677741 0)
(0.207187 0.00689999 0)
(0.2081 0.00690559 0)
(0.208932 0.00682088 0)
(0.209679 0.00666869 0)
(0.210342 0.00646879 0)
(0.210926 0.00623842 0)
(0.211435 0.00599205 0)
(0.211876 0.00574113 0)
(0.212259 0.00549416 0)
(0.21259 0.00525696 0)
(0.212878 0.00503308 0)
(0.21313 0.00482427 0)
(0.213351 0.00463091 0)
(0.213547 0.00445249 0)
(0.213721 0.0042879 0)
(0.213877 0.00413576 0)
(0.214016 0.00399455 0)
(0.214141 0.00386282 0)
(0.214252 0.00373919 0)
(0.214351 0.00362242 0)
(0.214438 0.00351143 0)
(0.214513 0.00340527 0)
(0.214577 0.00330311 0)
(0.21463 0.00320424 0)
(0.214673 0.00310801 0)
(0.214705 0.00301387 0)
(0.214727 0.00292127 0)
(0.214739 0.00282975 0)
(0.214742 0.00273884 0)
(0.214735 0.00264811 0)
(0.214718 0.00255714 0)
(0.214694 0.00246551 0)
(0.214661 0.00237284 0)
(0.21462 0.00227872 0)
(0.214571 0.0021828 0)
(0.214516 0.00208472 0)
(0.214454 0.00198416 0)
(0.214386 0.00188086 0)
(0.214312 0.00177466 0)
(0.214233 0.00166553 0)
(0.214149 0.00155361 0)
(0.21406 0.00143929 0)
(0.213967 0.00132324 0)
(0.21387 0.00120643 0)
(0.213768 0.00109015 0)
(0.213663 0.000975932 0)
(0.213555 0.000865489 0)
(0.213444 0.000760583 0)
(0.213332 0.000662885 0)
(0.213219 0.00057382 0)
(0.213106 0.000494453 0)
(0.212995 0.00042541 0)
(0.212886 0.000366866 0)
(0.21278 0.000318608 0)
(0.212677 0.000280145 0)
(0.212577 0.000250835 0)
(0.21248 0.000230001 0)
(0.212386 0.000216956 0)
(0.212293 0.000210947 0)
(0.212201 0.000211078 0)
(0.21211 0.000216296 0)
(0.212018 0.000225451 0)
(0.211923 0.000237411 0)
(0.211825 0.000251151 0)
(0.21172 0.000265796 0)
(0.211608 0.000280626 0)
(0.211487 0.000295056 0)
(0.211354 0.000308597 0)
(0.211207 0.00032083 0)
(0.211047 0.000331374 0)
(0.210871 0.000339866 0)
(0.210679 0.000345964 0)
(0.210471 0.000349344 0)
(0.210248 0.000349728 0)
(0.210012 0.000346902 0)
(0.209765 0.000340742 0)
(0.209508 0.000331238 0)
(0.209246 0.000318505 0)
(0.208982 0.000302791 0)
(0.208719 0.000284469 0)
(0.208462 0.000264017 0)
(0.208213 0.000241995 0)
(0.207976 0.000219009 0)
(0.207753 0.000195674 0)
(0.207548 0.000172584 0)
(0.20736 0.000150279 0)
(0.207192 0.000129223 0)
(0.207043 0.000109802 0)
(0.206912 9.23202e-05 0)
(0.2068 7.70394e-05 0)
(0.206705 6.42446e-05 0)
(0.206626 5.44128e-05 0)
(0.206549 4.86364e-05 0)
(0.200147 0.00145713 0)
(0.20063 0.00282706 0)
(0.201417 0.00395157 0)
(0.202354 0.0048023 0)
(0.203322 0.00542852 0)
(0.204276 0.00587707 0)
(0.205205 0.00617273 0)
(0.206095 0.0063351 0)
(0.20693 0.00638687 0)
(0.207701 0.00635101 0)
(0.208402 0.00624805 0)
(0.209035 0.00609594 0)
(0.209599 0.00591041 0)
(0.210101 0.00570482 0)
(0.210545 0.00549003 0)
(0.210939 0.00527433 0)
(0.211289 0.00506368 0)
(0.211602 0.00486203 0)
(0.211884 0.00467163 0)
(0.21214 0.00449348 0)
(0.212376 0.00432764 0)
(0.212594 0.00417357 0)
(0.212799 0.00403034 0)
(0.212991 0.00389684 0)
(0.213173 0.00377194 0)
(0.213345 0.00365448 0)
(0.21351 0.00354343 0)
(0.213667 0.00343782 0)
(0.213817 0.0033368 0)
(0.21396 0.0032396 0)
(0.214097 0.00314556 0)
(0.214226 0.00305404 0)
(0.21435 0.0029645 0)
(0.214467 0.00287643 0)
(0.214577 0.00278934 0)
(0.214681 0.00270277 0)
(0.214778 0.00261629 0)
(0.214869 0.00252948 0)
(0.214953 0.00244192 0)
(0.215031 0.0023532 0)
(0.215102 0.00226295 0)
(0.215166 0.00217079 0)
(0.215223 0.00207638 0)
(0.215273 0.00197942 0)
(0.215315 0.00187966 0)
(0.21535 0.00177697 0)
(0.215378 0.00167132 0)
(0.215397 0.00156289 0)
(0.215408 0.00145207 0)
(0.21541 0.00133953 0)
(0.215403 0.0012262 0)
(0.215386 0.00111331 0)
(0.215361 0.0010023 0)
(0.215326 0.000894792 0)
(0.215283 0.00079244 0)
(0.215233 0.000696816 0)
(0.215176 0.00060928 0)
(0.215115 0.000530871 0)
(0.215049 0.000462242 0)
(0.214981 0.000403644 0)
(0.214911 0.000354978 0)
(0.214841 0.000315883 0)
(0.214771 0.000285842 0)
(0.214701 0.000264271 0)
(0.214632 0.000250549 0)
(0.214563 0.00024398 0)
(0.214495 0.00024375 0)
(0.214427 0.000248913 0)
(0.214358 0.000258449 0)
(0.214287 0.000271345 0)
(0.214212 0.000286671 0)
(0.214133 0.000303615 0)
(0.214047 0.000321481 0)
(0.213953 0.000339671 0)
(0.213848 0.000357647 0)
(0.213731 0.0003749 0)
(0.213599 0.000390921 0)
(0.213453 0.000405183 0)
(0.21329 0.000417141 0)
(0.21311 0.000426248 0)
(0.212915 0.000431981 0)
(0.212703 0.000433879 0)
(0.212478 0.000431584 0)
(0.212241 0.000424877 0)
(0.211995 0.000413713 0)
(0.211743 0.000398234 0)
(0.21149 0.000378773 0)
(0.211238 0.000355839 0)
(0.210991 0.000330087 0)
(0.210753 0.000302278 0)
(0.210527 0.000273229 0)
(0.210316 0.000243763 0)
(0.210122 0.000214661 0)
(0.209945 0.000186626 0)
(0.209786 0.00016026 0)
(0.209647 0.00013605 0)
(0.209525 0.000114388 0)
(0.209421 9.5606e-05 0)
(0.209334 8.00524e-05 0)
(0.209249 6.81157e-05 0)
(0.200113 0.00123618 0)
(0.200487 0.00241921 0)
(0.201115 0.00343114 0)
(0.201891 0.00423334 0)
(0.202722 0.00484505 0)
(0.20356 0.00529732 0)
(0.204387 0.00561138 0)
(0.205189 0.00580394 0)
(0.20595 0.00589337 0)
(0.20666 0.00589898 0)
(0.207314 0.00583879 0)
(0.207909 0.00572891 0)
(0.208447 0.00558352 0)
(0.20893 0.00541489 0)
(0.209363 0.00523317 0)
(0.209751 0.00504633 0)
(0.2101 0.00486036 0)
(0.210415 0.00467944 0)
(0.210702 0.00450622 0)
(0.210966 0.0043422 0)
(0.211211 0.00418792 0)
(0.21144 0.00404333 0)
(0.211657 0.00390794 0)
(0.211863 0.00378101 0)
(0.212061 0.0036617 0)
(0.212251 0.00354913 0)
(0.212436 0.00344243 0)
(0.212614 0.0033408 0)
(0.212788 0.00324348 0)
(0.212957 0.0031498 0)
(0.213122 0.00305914 0)
(0.213283 0.00297092 0)
(0.213439 0.00288463 0)
(0.213591 0.00279978 0)
(0.213739 0.0027159 0)
(0.213883 0.00263256 0)
(0.214022 0.00254933 0)
(0.214157 0.0024658 0)
(0.214287 0.00238157 0)
(0.214412 0.00229626 0)
(0.214532 0.00220949 0)
(0.214647 0.00212091 0)
(0.214755 0.00203019 0)
(0.214857 0.00193707 0)
(0.214953 0.00184132 0)
(0.21504 0.00174283 0)
(0.21512 0.00164161 0)
(0.215191 0.00153783 0)
(0.215253 0.00143188 0)
(0.215305 0.00132439 0)
(0.215346 0.00121625 0)
(0.215376 0.00110857 0)
(0.215395 0.00100268 0)
(0.215402 0.000900074 0)
(0.2154 0.000802244 0)
(0.215387 0.000710637 0)
(0.215365 0.00062651 0)
(0.215336 0.000550848 0)
(0.215301 0.000484299 0)
(0.215261 0.000427166 0)
(0.215217 0.000379439 0)
(0.215171 0.000340869 0)
(0.215123 0.000311047 0)
(0.215074 0.000289485 0)
(0.215025 0.000275635 0)
(0.214975 0.000268881 0)
(0.214925 0.000268503 0)
(0.214875 0.000273681 0)
(0.214825 0.000283537 0)
(0.214773 0.000297194 0)
(0.214719 0.000313839 0)
(0.214661 0.000332748 0)
(0.214598 0.000353282 0)
(0.214527 0.000374861 0)
(0.214448 0.000396933 0)
(0.214358 0.000418934 0)
(0.214256 0.000440259 0)
(0.21414 0.000460246 0)
(0.21401 0.000478176 0)
(0.213864 0.000493294 0)
(0.213702 0.00050484 0)
(0.213525 0.000512104 0)
(0.213334 0.000514481 0)
(0.21313 0.00051152 0)
(0.212916 0.000502982 0)
(0.212695 0.000488863 0)
(0.212469 0.000469414 0)
(0.212243 0.000445129 0)
(0.212019 0.000416719 0)
(0.2118 0.000385064 0)
(0.211591 0.000351152 0)
(0.211394 0.000316018 0)
(0.21121 0.000280675 0)
(0.211042 0.000246065 0)
(0.21089 0.000213009 0)
(0.210754 0.00018219 0)
(0.210635 0.00015414 0)
(0.210533 0.000129253 0)
(0.210446 0.000107752 0)
(0.210361 8.9399e-05 0)
(0.200088 0.00105858 0)
(0.200384 0.00208433 0)
(0.20089 0.00298853 0)
(0.201534 0.00373298 0)
(0.202244 0.00431996 0)
(0.202977 0.00476732 0)
(0.203711 0.00509126 0)
(0.204431 0.00530552 0)
(0.205123 0.00542488 0)
(0.205776 0.00546521 0)
(0.206384 0.00544199 0)
(0.206943 0.0053694 0)
(0.207453 0.00526011 0)
(0.207915 0.00512523 0)
(0.208334 0.00497413 0)
(0.208712 0.00481441 0)
(0.209055 0.00465192 0)
(0.209367 0.00449097 0)
(0.209653 0.00433449 0)
(0.209917 0.00418433 0)
(0.210162 0.00404147 0)
(0.210393 0.00390626 0)
(0.210611 0.00377858 0)
(0.21082 0.00365805 0)
(0.21102 0.00354411 0)
(0.211213 0.0034361 0)
(0.211401 0.00333337 0)
(0.211584 0.00323525 0)
(0.211762 0.00314111 0)
(0.211936 0.00305037 0)
(0.212107 0.00296247 0)
(0.212275 0.0028769 0)
(0.212439 0.00279319 0)
(0.212601 0.00271088 0)
(0.212759 0.00262953 0)
(0.212913 0.00254875 0)
(0.213065 0.00246813 0)
(0.213213 0.00238727 0)
(0.213358 0.00230582 0)
(0.213498 0.00222341 0)
(0.213634 0.00213968 0)
(0.213766 0.00205432 0)
(0.213893 0.00196704 0)
(0.214014 0.00187759 0)
(0.214128 0.00178578 0)
(0.214236 0.00169153 0)
(0.214337 0.00159487 0)
(0.214429 0.00149598 0)
(0.214512 0.00139524 0)
(0.214585 0.00129324 0)
(0.214647 0.00119079 0)
(0.214699 0.00108891 0)
(0.214739 0.0009888 0)
(0.214768 0.000891784 0)
(0.214787 0.000799217 0)
(0.214794 0.000712398 0)
(0.214793 0.000632472 0)
(0.214783 0.000560353 0)
(0.214766 0.000496666 0)
(0.214744 0.000441744 0)
(0.214717 0.000395643 0)
(0.214686 0.000358201 0)
(0.214653 0.000329107 0)
(0.214619 0.000307957 0)
(0.214584 0.00029428 0)
(0.214548 0.000287539 0)
(0.214512 0.000287114 0)
(0.214475 0.000292308 0)
(0.214439 0.000302377 0)
(0.214401 0.00031658 0)
(0.214362 0.000334225 0)
(0.21432 0.000354681 0)
(0.214275 0.000377379 0)
(0.214223 0.000401776 0)
(0.214165 0.000427327 0)
(0.214099 0.000453438 0)
(0.214022 0.000479441 0)
(0.213934 0.000504569 0)
(0.213834 0.000527964 0)
(0.213721 0.000548691 0)
(0.213594 0.000565788 0)
(0.213453 0.000578319 0)
(0.2133 0.000585445 0)
(0.213135 0.000586495 0)
(0.21296 0.00058103 0)
(0.212778 0.000568889 0)
(0.21259 0.000550219 0)
(0.2124 0.000525471 0)
(0.21221 0.000495376 0)
(0.212024 0.000460893 0)
(0.211844 0.000423148 0)
(0.211673 0.00038335 0)
(0.211512 0.000342713 0)
(0.211364 0.000302391 0)
(0.211229 0.000263409 0)
(0.211107 0.000226632 0)
(0.211 0.00019273 0)
(0.210907 0.000162158 0)
(0.210827 0.000135062 0)
(0.210748 0.000110826 0)
(0.20007 0.000913039 0)
(0.200308 0.0018058 0)
(0.200719 0.00261064 0)
(0.201255 0.00329374 0)
(0.20186 0.00384877 0)
(0.202499 0.00428406 0)
(0.203149 0.00461061 0)
(0.203794 0.00483914 0)
(0.204422 0.00498133 0)
(0.20502 0.00505001 0)
(0.205583 0.00505818 0)
(0.206107 0.00501809 0)
(0.20659 0.00494093 0)
(0.207032 0.00483663 0)
(0.207435 0.00471377 0)
(0.207803 0.00457945 0)
(0.208139 0.00443931 0)
(0.208447 0.00429766 0)
(0.20873 0.00415762 0)
(0.208992 0.00402128 0)
(0.209237 0.00388995 0)
(0.209467 0.00376431 0)
(0.209685 0.00364459 0)
(0.209893 0.00353069 0)
(0.210093 0.00342231 0)
(0.210285 0.00331903 0)
(0.210472 0.00322037 0)
(0.210654 0.00312582 0)
(0.210832 0.00303486 0)
(0.211005 0.002947 0)
(0.211176 0.00286177 0)
(0.211343 0.00277872 0)
(0.211507 0.00269741 0)
(0.211668 0.00261744 0)
(0.211827 0.00253842 0)
(0.211982 0.00245997 0)
(0.212135 0.00238171 0)
(0.212284 0.00230329 0)
(0.212431 0.00222438 0)
(0.212573 0.00214462 0)
(0.212712 0.00206372 0)
(0.212847 0.00198138 0)
(0.212977 0.00189734 0)
(0.213102 0.00181138 0)
(0.213222 0.00172338 0)
(0.213335 0.00163325 0)
(0.213441 0.00154106 0)
(0.213539 0.001447 0)
(0.213629 0.00135142 0)
(0.213709 0.00125488 0)
(0.21378 0.00115811 0)
(0.21384 0.00106204 0)
(0.213889 0.00096774 0)
(0.213928 0.000876392 0)
(0.213956 0.000789203 0)
(0.213975 0.000707333 0)
(0.213984 0.000631815 0)
(0.213986 0.000563485 0)
(0.21398 0.000502941 0)
(0.213968 0.000450525 0)
(0.213952 0.000406342 0)
(0.213932 0.000370302 0)
(0.21391 0.000342173 0)
(0.213886 0.000321627 0)
(0.21386 0.000308266 0)
(0.213834 0.000301631 0)
(0.213808 0.000301195 0)
(0.213781 0.00030637 0)
(0.213755 0.000316537 0)
(0.213728 0.000331077 0)
(0.2137 0.000349409 0)
(0.21367 0.000370995 0)
(0.213638 0.000395332 0)
(0.213601 0.000421922 0)
(0.21356 0.000450236 0)
(0.213512 0.000479669 0)
(0.213457 0.000509508 0)
(0.213393 0.000538915 0)
(0.213319 0.000566919 0)
(0.213235 0.000592451 0)
(0.21314 0.000614379 0)
(0.213034 0.000631581 0)
(0.212917 0.000643022 0)
(0.21279 0.000647839 0)
(0.212655 0.000645412 0)
(0.212513 0.000635435 0)
(0.212365 0.000617946 0)
(0.212215 0.000593339 0)
(0.212063 0.000562338 0)
(0.211914 0.000525953 0)
(0.211768 0.000485402 0)