/*--------------------------------*- C++ -*----------------------------------*\
| =========                 |                                                 |
| \\      /  F ield         | OpenFOAM: The Open Source CFD Toolbox           |
|  \\    /   O peration     | Version:  2.3.0                                 |
|   \\  /    A nd           | Web:      www.OpenFOAM.org                      |
|    \\/     M anipulation  |                                                 |
\*---------------------------------------------------------------------------*/
FoamFile
{
    version     2.0;
    format      ascii;
    class       volVectorField;
    location    "0.2";
    object      U_0;
}
// * * * * * * * * * * * * * * * * * * * * * * * * * * * * * * * * * * * * * //

dimensions      [0 1 -1 0 0 0 0];

internalField   nonuniform List<vector> 
2700
(
(0.185025 0.00502028 0)
(0.173514 0.0057813 0)
(0.158817 0.0054363 0)
(0.143356 0.005022 0)
(0.128975 0.00454746 0)
(0.115972 0.00399846 0)
(0.104225 0.00342391 0)
(0.0936887 0.0028661 0)
(0.0843736 0.00234771 0)
(0.0762618 0.00188177 0)
(0.0692901 0.00147633 0)
(0.0633643 0.00113468 0)
(0.0583736 0.000855612 0)
(0.0541994 0.000634408 0)
(0.0507218 0.000464085 0)
(0.0478257 0.000336559 0)
(0.045406 0.000243633 0)
(0.0433703 0.000177692 0)
(0.0416403 0.000132113 0)
(0.0401517 0.000101414 0)
(0.0388532 8.12393e-05 0)
(0.0377048 6.82556e-05 0)
(0.0366758 6.00001e-05 0)
(0.035743 5.47201e-05 0)
(0.0348892 5.12168e-05 0)
(0.0341017 4.87054e-05 0)
(0.0333707 4.66987e-05 0)
(0.0326891 4.49129e-05 0)
(0.0320513 4.31973e-05 0)
(0.031453 4.14835e-05 0)
(0.0308907 3.97505e-05 0)
(0.0303614 3.80019e-05 0)
(0.0298627 3.62521e-05 0)
(0.0293926 3.45182e-05 0)
(0.0289491 3.28157e-05 0)
(0.0285306 3.1157e-05 0)
(0.0281356 2.9551e-05 0)
(0.0277631 2.80038e-05 0)
(0.0274117 2.65188e-05 0)
(0.0270805 2.50983e-05 0)
(0.0267687 2.3743e-05 0)
(0.0264755 2.24519e-05 0)
(0.0262003 2.12214e-05 0)
(0.0259425 2.00429e-05 0)
(0.0257018 1.89017e-05 0)
(0.0254778 1.77748e-05 0)
(0.0252706 1.66312e-05 0)
(0.0250801 1.54343e-05 0)
(0.0249066 1.41461e-05 0)
(0.0247507 1.27343e-05 0)
(0.0246127 1.118e-05 0)
(0.0244933 9.48598e-06 0)
(0.0243925 7.68348e-06 0)
(0.0243105 5.83733e-06 0)
(0.0242466 4.04435e-06 0)
(0.0241998 2.40854e-06 0)
(0.0241685 9.91825e-07 0)
(0.0241507 -1.54045e-07 0)
(0.0241439 -9.392e-07 0)
(0.024145 -1.42066e-06 0)
(0.0241503 -1.55279e-06 0)
(0.0241576 -1.58358e-06 0)
(0.0241657 -1.55477e-06 0)
(0.0241735 -1.47607e-06 0)
(0.0241804 -1.36198e-06 0)
(0.0241859 -1.25534e-06 0)
(0.0241896 -1.16143e-06 0)
(0.0241909 -9.95953e-07 0)
(0.0241892 -6.02204e-07 0)
(0.0241839 -1.67668e-07 0)
(0.024175 2.23228e-07 0)
(0.0241631 5.43462e-07 0)
(0.0241489 7.86677e-07 0)
(0.0241331 9.56285e-07 0)
(0.0241163 1.06062e-06 0)
(0.0240991 1.11063e-06 0)
(0.0240821 1.11772e-06 0)
(0.0240656 1.09278e-06 0)
(0.02405 1.04504e-06 0)
(0.0240353 9.81988e-07 0)
(0.0240218 9.09345e-07 0)
(0.0240095 8.31263e-07 0)
(0.0239985 7.50763e-07 0)
(0.0239886 6.69823e-07 0)
(0.02398 5.89922e-07 0)
(0.0239725 5.12097e-07 0)
(0.0239662 4.37204e-07 0)
(0.0239608 3.66055e-07 0)
(0.0239564 2.99376e-07 0)
(0.0239528 2.38036e-07 0)
(0.0239499 1.82936e-07 0)
(0.0239478 1.35403e-07 0)
(0.0239462 9.67594e-08 0)
(0.023945 6.83979e-08 0)
(0.0239443 5.24882e-08 0)
(0.0239437 5.27755e-08 0)
(0.0239431 7.64467e-08 0)
(0.0239422 1.41292e-07 0)
(0.0239406 2.87549e-07 0)
(0.0239354 9.40295e-07 0)
(0.200885 0.00843001 0)
(0.202375 0.0098965 0)
(0.200758 0.00956108 0)
(0.196719 0.00920126 0)
(0.191614 0.00878806 0)
(0.185986 0.00823121 0)
(0.180002 0.00757385 0)
(0.17381 0.00687007 0)
(0.167576 0.00615233 0)
(0.161436 0.00544353 0)
(0.155486 0.00476369 0)
(0.149791 0.00412946 0)
(0.144391 0.00355274 0)
(0.139307 0.00304049 0)
(0.134548 0.00259504 0)
(0.130108 0.00221485 0)
(0.125978 0.00189544 0)
(0.122142 0.00163039 0)
(0.11858 0.00141236 0)
(0.115271 0.00123384 0)
(0.112197 0.00108774 0)
(0.109337 0.000967742 0)
(0.106673 0.000868479 0)
(0.104186 0.000785528 0)
(0.101863 0.000715358 0)
(0.0996868 0.000655218 0)
(0.0976463 0.000602995 0)
(0.0957298 0.000557084 0)
(0.0939271 0.000516276 0)
(0.0922292 0.000479652 0)
(0.0906282 0.000446513 0)
(0.089117 0.000416318 0)
(0.0876894 0.000388638 0)
(0.0863401 0.000363128 0)
(0.0850641 0.000339502 0)
(0.0838574 0.000317521 0)
(0.0827163 0.000296979 0)
(0.0816377 0.000277697 0)
(0.0806187 0.00025952 0)
(0.0796572 0.000242313 0)
(0.078751 0.000225953 0)
(0.0778988 0.000210332 0)
(0.0770991 0.000195347 0)
(0.076351 0.000180893 0)
(0.075654 0.000166865 0)
(0.0750076 0.000153147 0)
(0.0744118 0.000139622 0)
(0.073867 0.00012618 0)
(0.0733734 0.000112731 0)
(0.0729315 9.92308e-05 0)
(0.0725415 8.56995e-05 0)
(0.0722033 7.22405e-05 0)
(0.0719159 5.90473e-05 0)
(0.0716777 4.63996e-05 0)
(0.0714859 3.46447e-05 0)
(0.0713365 2.41453e-05 0)
(0.0712246 1.51883e-05 0)
(0.0711441 7.95365e-06 0)
(0.0710887 2.52794e-06 0)
(0.071053 -1.24423e-06 0)
(0.071033 -3.41439e-06 0)
(0.0710234 -4.27753e-06 0)
(0.0710188 -4.19903e-06 0)
(0.0710155 -3.6662e-06 0)
(0.0710117 -2.98337e-06 0)
(0.0710062 -1.97158e-06 0)
(0.0709962 -5.34087e-07 0)
(0.0709793 1.24671e-06 0)
(0.0709542 3.33108e-06 0)
(0.0709214 5.37063e-06 0)
(0.0708814 7.12414e-06 0)
(0.0708354 8.48353e-06 0)
(0.070785 9.42095e-06 0)
(0.0707316 9.95556e-06 0)
(0.0706768 1.01336e-05 0)
(0.0706218 1.00154e-05 0)
(0.0705678 9.66512e-06 0)
(0.0705158 9.14435e-06 0)
(0.0704665 8.50719e-06 0)
(0.0704204 7.7988e-06 0)
(0.070378 7.05518e-06 0)
(0.0703393 6.30384e-06 0)
(0.0703046 5.5653e-06 0)
(0.0702738 4.85421e-06 0)
(0.0702467 4.18092e-06 0)
(0.0702233 3.55237e-06 0)
(0.0702033 2.97313e-06 0)
(0.0701865 2.44608e-06 0)
(0.0701726 1.97273e-06 0)
(0.0701612 1.55391e-06 0)
(0.0701522 1.1898e-06 0)
(0.0701451 8.80779e-07 0)
(0.0701397 6.27784e-07 0)
(0.0701356 4.32999e-07 0)
(0.0701327 3.02263e-07 0)
(0.0701305 2.48029e-07 0)
(0.0701287 2.96463e-07 0)
(0.0701269 5.11232e-07 0)
(0.0701242 1.06269e-06 0)
(0.0701167 2.79237e-06 0)
(0.201535 0.0062358 0)
(0.204572 0.00851763 0)
(0.206672 0.00908153 0)
(0.207308 0.00942157 0)
(0.207015 0.00959711 0)
(0.206102 0.00950737 0)
(0.204632 0.00919317 0)
(0.20266 0.00872889 0)
(0.200283 0.0081688 0)
(0.1976 0.00755294 0)
(0.194699 0.00691545 0)
(0.191652 0.00628499 0)
(0.18852 0.00568333 0)
(0.185353 0.00512515 0)
(0.18219 0.00461871 0)
(0.17906 0.00416696 0)
(0.175984 0.00376887 0)
(0.172977 0.00342068 0)
(0.170049 0.00311716 0)
(0.167204 0.00285251 0)
(0.164445 0.00262101 0)
(0.161775 0.00241743 0)
(0.159192 0.00223722 0)
(0.156695 0.00207656 0)
(0.154283 0.00193231 0)
(0.151954 0.00180192 0)
(0.149707 0.00168333 0)
(0.14754 0.00157491 0)
(0.14545 0.00147532 0)
(0.143436 0.00138344 0)
(0.141497 0.00129837 0)
(0.13963 0.00121933 0)
(0.137834 0.00114563 0)
(0.136107 0.0010767 0)
(0.134449 0.00101201 0)
(0.132858 0.000951075 0)
(0.131333 0.000893482 0)
(0.129873 0.000838842 0)
(0.128478 0.000786802 0)
(0.127146 0.000737041 0)
(0.125878 0.000689263 0)
(0.124674 0.00064319 0)
(0.123534 0.000598562 0)
(0.122458 0.000555123 0)
(0.121446 0.000512624 0)
(0.120501 0.000470828 0)
(0.119622 0.000429519 0)
(0.11881 0.000388533 0)
(0.118068 0.000347784 0)
(0.117395 0.000307309 0)
(0.116793 0.000267301 0)
(0.11626 0.000228124 0)
(0.115795 0.000190316 0)
(0.115397 0.000154547 0)
(0.115061 0.000121557 0)
(0.114783 9.20711e-05 0)
(0.114557 6.66972e-05 0)
(0.114376 4.58167e-05 0)
(0.114234 2.94613e-05 0)
(0.114123 1.73578e-05 0)
(0.114036 9.04395e-06 0)
(0.113967 4.06678e-06 0)
(0.113912 1.74478e-06 0)
(0.113867 1.30351e-06 0)
(0.113827 2.24533e-06 0)
(0.113786 4.594e-06 0)
(0.113741 8.31326e-06 0)
(0.113689 1.30112e-05 0)
(0.11363 1.80555e-05 0)
(0.113562 2.28612e-05 0)
(0.113485 2.70039e-05 0)
(0.113402 3.02404e-05 0)
(0.113312 3.24718e-05 0)
(0.113218 3.37055e-05 0)
(0.113121 3.40214e-05 0)
(0.113023 3.35433e-05 0)
(0.112925 3.24146e-05 0)
(0.112829 3.07814e-05 0)
(0.112736 2.87805e-05 0)
(0.112648 2.65334e-05 0)
(0.112565 2.41434e-05 0)
(0.112487 2.16958e-05 0)
(0.112416 1.92596e-05 0)
(0.112351 1.6889e-05 0)
(0.112293 1.46258e-05 0)
(0.112241 1.25011e-05 0)
(0.112196 1.05373e-05 0)
(0.112157 8.74929e-06 0)
(0.112123 7.14552e-06 0)
(0.112095 5.72947e-06 0)
(0.112072 4.50044e-06 0)
(0.112053 3.45498e-06 0)
(0.112037 2.58858e-06 0)
(0.112025 1.89782e-06 0)
(0.112016 1.38487e-06 0)
(0.112008 1.06475e-06 0)
(0.112002 9.83068e-07 0)
(0.111997 1.26209e-06 0)
(0.111992 2.23845e-06 0)
(0.111982 4.94741e-06 0)
(0.200979 0.00442465 0)
(0.20338 0.00699374 0)
(0.205872 0.00811884 0)
(0.207688 0.00879012 0)
(0.208965 0.00923104 0)
(0.209886 0.00940264 0)
(0.210458 0.00933141 0)
(0.21066 0.00908256 0)
(0.210503 0.00870942 0)
(0.210026 0.00825155 0)
(0.209269 0.00774275 0)
(0.208273 0.00721273 0)
(0.20708 0.00668563 0)
(0.205729 0.00617936 0)
(0.204254 0.00570576 0)
(0.202687 0.00527142 0)
(0.201053 0.00487871 0)
(0.199372 0.00452691 0)
(0.19766 0.00421326 0)
(0.195931 0.0039339 0)
(0.194193 0.00368454 0)
(0.192453 0.00346096 0)
(0.190718 0.00325925 0)
(0.188991 0.00307599 0)
(0.187276 0.00290829 0)
(0.185576 0.00275376 0)
(0.183893 0.00261043 0)
(0.18223 0.00247673 0)
(0.180589 0.00235138 0)
(0.178972 0.00223335 0)
(0.17738 0.00212177 0)
(0.175817 0.00201593 0)
(0.174283 0.0019152 0)
(0.17278 0.00181904 0)
(0.171309 0.00172697 0)
(0.169874 0.00163853 0)
(0.168475 0.00155333 0)
(0.167113 0.00147097 0)
(0.165792 0.00139111 0)
(0.164512 0.00131339 0)
(0.163276 0.0012375 0)
(0.162085 0.00116311 0)
(0.160943 0.00108993 0)
(0.15985 0.00101765 0)
(0.15881 0.000945973 0)
(0.157825 0.000874644 0)
(0.156897 0.00080345 0)
(0.156029 0.000732273 0)
(0.155223 0.000661139 0)
(0.15448 0.000590261 0)
(0.153803 0.000520087 0)
(0.15319 0.000451313 0)
(0.152642 0.000384864 0)
(0.152158 0.000321835 0)
(0.151734 0.000263395 0)
(0.151367 0.00021065 0)
(0.151052 0.000164508 0)
(0.150785 0.000125547 0)
(0.150559 9.391e-05 0)
(0.150369 6.93348e-05 0)
(0.150209 5.11813e-05 0)
(0.150074 3.85469e-05 0)
(0.149957 3.04454e-05 0)
(0.149854 2.61422e-05 0)
(0.149759 2.52449e-05 0)
(0.149669 2.7423e-05 0)
(0.149578 3.21636e-05 0)
(0.149485 3.8694e-05 0)
(0.149386 4.60693e-05 0)
(0.149281 5.34181e-05 0)
(0.149169 6.00582e-05 0)
(0.14905 6.55318e-05 0)
(0.148924 6.95818e-05 0)
(0.148791 7.2115e-05 0)
(0.148654 7.31612e-05 0)
(0.148513 7.28343e-05 0)
(0.148371 7.12983e-05 0)
(0.148227 6.87416e-05 0)
(0.148085 6.53584e-05 0)
(0.147946 6.13367e-05 0)
(0.14781 5.68518e-05 0)
(0.14768 5.20631e-05 0)
(0.147557 4.71133e-05 0)
(0.147442 4.21281e-05 0)
(0.147335 3.72167e-05 0)
(0.147238 3.24716e-05 0)
(0.14715 2.7969e-05 0)
(0.147071 2.37695e-05 0)
(0.147002 1.99179e-05 0)
(0.146941 1.64445e-05 0)
(0.146889 1.33666e-05 0)
(0.146846 1.06899e-05 0)
(0.146809 8.41221e-06 0)
(0.146779 6.52665e-06 0)
(0.146754 5.02878e-06 0)
(0.146734 3.92889e-06 0)
(0.146718 3.28106e-06 0)
(0.146705 3.25144e-06 0)
(0.146693 4.30584e-06 0)
(0.146678 7.74654e-06 0)
(0.200608 0.00333584 0)
(0.202297 0.00577188 0)
(0.20439 0.00710253 0)
(0.206232 0.00789191 0)
(0.207778 0.00842352 0)
(0.209141 0.00872098 0)
(0.210332 0.00879904 0)
(0.211313 0.00870431 0)
(0.212064 0.00848208 0)
(0.212587 0.00816722 0)
(0.212894 0.00778933 0)
(0.213 0.00737507 0)
(0.212924 0.00694732 0)
(0.212689 0.00652402 0)
(0.212317 0.00611811 0)
(0.211829 0.00573783 0)
(0.211246 0.00538753 0)
(0.210585 0.00506847 0)
(0.20986 0.00477974 0)
(0.209082 0.00451904 0)
(0.20826 0.00428338 0)
(0.207403 0.00406955 0)
(0.206515 0.00387442 0)
(0.205602 0.00369515 0)
(0.204667 0.00352928 0)
(0.203713 0.00337472 0)
(0.202744 0.00322974 0)
(0.201762 0.00309295 0)
(0.20077 0.00296318 0)
(0.19977 0.0028395 0)
(0.198764 0.00272112 0)
(0.197755 0.00260738 0)
(0.196746 0.00249771 0)
(0.195737 0.0023916 0)
(0.194733 0.00228858 0)
(0.193734 0.00218824 0)
(0.192745 0.00209017 0)
(0.191766 0.001994 0)
(0.1908 0.00189937 0)
(0.18985 0.00180593 0)
(0.188919 0.00171334 0)
(0.18801 0.00162127 0)
(0.187124 0.0015294 0)
(0.186266 0.00143741 0)
(0.185437 0.00134502 0)
(0.184642 0.00125198 0)
(0.183882 0.00115815 0)
(0.183161 0.00106351 0)
(0.182481 0.000968235 0)
(0.181844 0.000872758 0)
(0.181253 0.000777796 0)
(0.180707 0.000684361 0)
(0.180208 0.000593726 0)
(0.179755 0.000507346 0)
(0.179347 0.000426731 0)
(0.178981 0.000353286 0)
(0.178656 0.000288157 0)
(0.178368 0.00023209 0)
(0.178114 0.000185339 0)
(0.177891 0.000147676 0)
(0.177694 0.000118455 0)
(0.17752 9.67631e-05 0)
(0.177364 8.16367e-05 0)
(0.177222 7.22854e-05 0)
(0.17709 6.81184e-05 0)
(0.176964 6.85241e-05 0)
(0.17684 7.27085e-05 0)
(0.176716 7.96471e-05 0)
(0.17659 8.81807e-05 0)
(0.17646 9.7222e-05 0)
(0.176324 0.000105879 0)
(0.176181 0.000113494 0)
(0.176031 0.000119635 0)
(0.175873 0.000124058 0)
(0.175707 0.000126668 0)
(0.175535 0.000127482 0)
(0.175357 0.00012659 0)
(0.175174 0.000124132 0)
(0.174988 0.000120273 0)
(0.174801 0.000115196 0)
(0.174614 0.000109093 0)
(0.174429 0.000102159 0)
(0.174249 9.45928e-05 0)
(0.174075 8.65912e-05 0)
(0.17391 7.83484e-05 0)
(0.173754 7.00498e-05 0)
(0.173608 6.18683e-05 0)
(0.173475 5.39596e-05 0)
(0.173354 4.64575e-05 0)
(0.173246 3.94714e-05 0)
(0.173151 3.30843e-05 0)
(0.173068 2.73537e-05 0)
(0.172996 2.23134e-05 0)
(0.172936 1.79791e-05 0)
(0.172885 1.43576e-05 0)
(0.172843 1.14642e-05 0)
(0.172808 9.35973e-06 0)
(0.17278 8.23475e-06 0)
(0.172756 8.6337e-06 0)
(0.17273 1.21364e-05 0)
(0.200397 0.00261499 0)
(0.201585 0.00476192 0)
(0.203226 0.00612975 0)
(0.204838 0.00698544 0)
(0.206289 0.00756901 0)
(0.207632 0.00793866 0)
(0.208883 0.00810914 0)
(0.210014 0.00811452 0)
(0.211002 0.00799403 0)
(0.211841 0.00777999 0)
(0.212532 0.00749929 0)
(0.213078 0.00717584 0)
(0.213489 0.00683045 0)
(0.213775 0.00647999 0)
(0.213951 0.0061371 0)
(0.21403 0.00581042 0)
(0.214027 0.00550514 0)
(0.213952 0.0052236 0)
(0.213818 0.00496609 0)
(0.213632 0.00473144 0)
(0.213402 0.00451768 0)
(0.213133 0.00432243 0)
(0.212831 0.00414322 0)
(0.212498 0.00397774 0)
(0.212137 0.00382388 0)
(0.211751 0.00367981 0)
(0.211342 0.00354398 0)
(0.210911 0.0034151 0)
(0.210461 0.0032921 0)
(0.209992 0.00317407 0)
(0.209507 0.00306026 0)
(0.209006 0.00295002 0)
(0.208492 0.00284278 0)
(0.207966 0.00273805 0)
(0.20743 0.00263536 0)
(0.206886 0.00253429 0)
(0.206335 0.00243442 0)
(0.20578 0.00233539 0)
(0.205221 0.00223681 0)
(0.204663 0.00213831 0)
(0.204105 0.00203956 0)
(0.203552 0.0019402 0)
(0.203004 0.00183989 0)
(0.202465 0.00173833 0)
(0.201937 0.00163523 0)
(0.201422 0.0015304 0)
(0.200923 0.00142375 0)
(0.200441 0.00131536 0)
(0.199979 0.00120556 0)
(0.199539 0.00109493 0)
(0.199122 0.000984398 0)
(0.198729 0.000875211 0)
(0.198361 0.000768873 0)
(0.198018 0.000667072 0)
(0.197701 0.000571533 0)
(0.197408 0.000483853 0)
(0.197139 0.000405337 0)
(0.196893 0.00033686 0)
(0.196669 0.000278788 0)
(0.196464 0.000230982 0)
(0.196278 0.000192887 0)
(0.196108 0.000163682 0)
(0.195951 0.000142475 0)
(0.195805 0.000128462 0)
(0.195667 0.000120945 0)
(0.195534 0.000119173 0)
(0.195404 0.000122206 0)
(0.195274 0.000128893 0)
(0.195143 0.000137974 0)
(0.195009 0.000148252 0)
(0.19487 0.00015871 0)
(0.194723 0.000168555 0)
(0.194569 0.000177208 0)
(0.194405 0.000184278 0)
(0.194232 0.000189524 0)
(0.194048 0.000192815 0)
(0.193854 0.000194104 0)
(0.193651 0.000193397 0)
(0.193439 0.000190744 0)
(0.19322 0.000186231 0)
(0.192997 0.000179974 0)
(0.19277 0.000172124 0)
(0.192543 0.00016287 0)
(0.192318 0.000152431 0)
(0.192098 0.000141058 0)
(0.191885 0.000129025 0)
(0.191683 0.000116617 0)
(0.191492 0.000104119 0)
(0.191315 9.18039e-05 0)
(0.191153 7.99206e-05 0)
(0.191007 6.86841e-05 0)
(0.190877 5.82688e-05 0)
(0.190762 4.88071e-05 0)
(0.190662 4.03914e-05 0)
(0.190577 3.30835e-05 0)
(0.190505 2.69338e-05 0)
(0.190445 2.20235e-05 0)
(0.190395 1.85558e-05 0)
(0.190355 1.70973e-05 0)
(0.190314 1.93521e-05 0)
(0.200273 0.00210911 0)
(0.20113 0.00396158 0)
(0.202406 0.00528505 0)
(0.203765 0.00617208 0)
(0.205052 0.00678692 0)
(0.206268 0.00719782 0)
(0.207425 0.00742564 0)
(0.208504 0.00749762 0)
(0.209486 0.00744743 0)
(0.210363 0.00730501 0)
(0.211131 0.00709526 0)
(0.211795 0.00683989 0)
(0.212358 0.00655778 0)
(0.212828 0.00626453 0)
(0.213214 0.00597218 0)
(0.213525 0.00568934 0)
(0.213773 0.00542155 0)
(0.213965 0.00517188 0)
(0.214111 0.00494139 0)
(0.214217 0.00472978 0)
(0.21429 0.00453585 0)
(0.214332 0.0043579 0)
(0.214348 0.00419402 0)
(0.214341 0.0040423 0)
(0.214311 0.00390097 0)
(0.214262 0.00376841 0)
(0.214193 0.00364323 0)
(0.214107 0.00352423 0)
(0.214003 0.00341039 0)
(0.213883 0.00330084 0)
(0.213747 0.00319483 0)
(0.213596 0.00309173 0)
(0.21343 0.00299095 0)
(0.213251 0.00289199 0)
(0.21306 0.00279437 0)
(0.212857 0.00269764 0)
(0.212643 0.00260138 0)
(0.212419 0.00250518 0)
(0.212187 0.00240866 0)
(0.211948 0.00231143 0)
(0.211702 0.0022131 0)
(0.211451 0.00211333 0)
(0.211196 0.00201175 0)
(0.210939 0.00190807 0)
(0.210681 0.00180201 0)
(0.210424 0.0016934 0)
(0.210168 0.00158221 0)
(0.209916 0.0014686 0)
(0.209668 0.00135295 0)
(0.209424 0.00123599 0)
(0.209188 0.00111874 0)
(0.208957 0.00100253 0)
(0.208735 0.000888998 0)
(0.20852 0.000779906 0)
(0.208314 0.000677065 0)
(0.208117 0.000582145 0)
(0.20793 0.000496524 0)
(0.207753 0.000421157 0)
(0.207585 0.000356506 0)
(0.207427 0.000302549 0)
(0.207279 0.000258858 0)
(0.20714 0.000224747 0)
(0.207008 0.000199429 0)
(0.206883 0.000182146 0)
(0.206762 0.000172175 0)
(0.206644 0.000168713 0)
(0.206529 0.000170781 0)
(0.206414 0.000177219 0)
(0.206298 0.000186773 0)
(0.206178 0.00019824 0)
(0.206054 0.000210573 0)
(0.205923 0.000222914 0)
(0.205784 0.000234596 0)
(0.205634 0.000245114 0)
(0.205472 0.000254091 0)
(0.205298 0.000261244 0)
(0.20511 0.000266355 0)
(0.204909 0.000269253 0)
(0.204694 0.000269805 0)
(0.204468 0.000267921 0)
(0.204231 0.000263558 0)
(0.203985 0.000256731 0)
(0.203733 0.000247531 0)
(0.203478 0.00023612 0)
(0.203223 0.000222743 0)
(0.202971 0.000207716 0)
(0.202726 0.000191412 0)
(0.202491 0.000174248 0)
(0.202269 0.000156656 0)
(0.202061 0.000139066 0)
(0.20187 0.000121881 0)
(0.201696 0.000105458 0)
(0.201541 9.00973e-05 0)
(0.201404 7.60358e-05 0)
(0.201285 6.34512e-05 0)
(0.201183 5.24786e-05 0)
(0.201096 4.32511e-05 0)
(0.201023 3.59862e-05 0)
(0.200963 3.12077e-05 0)
(0.200906 3.04327e-05 0)
(0.200197 0.00173879 0)
(0.200832 0.0033307 0)
(0.20183 0.00456447 0)
(0.202961 0.00544678 0)
(0.204082 0.00607473 0)
(0.205163 0.0065099 0)
(0.206203 0.00677734 0)
(0.207187 0.0068999 0)
(0.2081 0.00690548 0)
(0.208932 0.00682075 0)
(0.209679 0.00666854 0)
(0.210342 0.0064686 0)
(0.210926 0.0062382 0)
(0.211435 0.00599179 0)
(0.211877 0.00574083 0)
(0.212259 0.00549382 0)
(0.21259 0.00525656 0)
(0.212879 0.00503261 0)
(0.21313 0.00482372 0)
(0.213352 0.00463028 0)
(0.213547 0.00445177 0)
(0.213722 0.00428707 0)
(0.213877 0.0041348 0)
(0.214017 0.00399345 0)
(0.214141 0.00386156 0)
(0.214253 0.00373774 0)
(0.214352 0.00362077 0)
(0.214439 0.00350955 0)
(0.214514 0.00340313 0)
(0.214578 0.00330068 0)
(0.214632 0.00320148 0)
(0.214674 0.00310489 0)
(0.214707 0.00301033 0)
(0.214729 0.00291728 0)
(0.214741 0.00282525 0)
(0.214744 0.00273377 0)
(0.214737 0.00264242 0)
(0.214721 0.00255076 0)
(0.214697 0.00245838 0)
(0.214664 0.00236489 0)
(0.214624 0.00226988 0)
(0.214576 0.00217298 0)
(0.214521 0.00207385 0)
(0.214459 0.00197218 0)
(0.214392 0.0018677 0)
(0.214319 0.00176029 0)
(0.21424 0.00164993 0)
(0.214157 0.00153682 0)
(0.214068 0.0014214 0)
(0.213975 0.0013044 0)
(0.213878 0.00118689 0)
(0.213777 0.00107019 0)
(0.213672 0.000955922 0)
(0.213564 0.000845827 0)
(0.213454 0.000741681 0)
(0.213342 0.000645128 0)
(0.213229 0.000557544 0)
(0.213117 0.000479912 0)
(0.213006 0.000412764 0)
(0.212898 0.000356186 0)
(0.212793 0.00030989 0)
(0.212691 0.00027333 0)
(0.212591 0.000245845 0)
(0.212495 0.00022675 0)
(0.212401 0.000215348 0)
(0.212308 0.000210857 0)
(0.212216 0.00021234 0)
(0.212124 0.000218707 0)
(0.212031 0.000228793 0)
(0.211936 0.000241467 0)
(0.211836 0.000255723 0)
(0.211729 0.000270706 0)
(0.211614 0.000285719 0)
(0.211489 0.000300188 0)
(0.211352 0.000313634 0)
(0.211202 0.00032564 0)
(0.211036 0.000335821 0)
(0.210855 0.000343814 0)
(0.210658 0.000349275 0)
(0.210445 0.000351889 0)
(0.210218 0.000351392 0)
(0.209977 0.000347594 0)
(0.209726 0.000340404 0)
(0.209467 0.000329851 0)
(0.209203 0.000316094 0)
(0.208938 0.000299424 0)
(0.208676 0.000280256 0)
(0.20842 0.000259103 0)
(0.208174 0.000236548 0)
(0.207941 0.00021321 0)
(0.207723 0.000189709 0)
(0.207523 0.000166627 0)
(0.207341 0.000144487 0)
(0.207178 0.000123726 0)
(0.207034 0.000104697 0)
(0.20691 8.76715e-05 0)
(0.206802 7.28717e-05 0)
(0.206712 6.05414e-05 0)
(0.206637 5.11045e-05 0)
(0.206565 4.55702e-05 0)
(0.200147 0.00145712 0)
(0.20063 0.00282704 0)
(0.201417 0.00395154 0)
(0.202354 0.00480226 0)
(0.203322 0.00542847 0)
(0.204276 0.005877 0)
(0.205205 0.00617265 0)
(0.206095 0.00633501 0)
(0.20693 0.00638676 0)
(0.207701 0.00635087 0)
(0.208403 0.00624788 0)
(0.209035 0.00609575 0)
(0.209599 0.00591018 0)
(0.210101 0.00570455 0)
(0.210546 0.00548972 0)
(0.210939 0.00527397 0)
(0.211289 0.00506326 0)
(0.211602 0.00486154 0)
(0.211884 0.00467107 0)
(0.212141 0.00449283 0)
(0.212376 0.0043269 0)
(0.212595 0.00417271 0)
(0.212799 0.00402935 0)
(0.212991 0.00389572 0)
(0.213173 0.00377065 0)
(0.213346 0.00365301 0)
(0.213511 0.00354175 0)
(0.213668 0.00343591 0)
(0.213818 0.00333462 0)
(0.213961 0.00323713 0)
(0.214097 0.00314275 0)
(0.214227 0.00305087 0)
(0.214351 0.00296092 0)
(0.214467 0.00287239 0)
(0.214578 0.00278478 0)
(0.214682 0.00269765 0)
(0.214779 0.00261055 0)
(0.21487 0.00252305 0)
(0.214954 0.00243474 0)
(0.215032 0.0023452 0)
(0.215102 0.00225406 0)
(0.215166 0.00216094 0)
(0.215223 0.00206549 0)
(0.215273 0.00196743 0)
(0.215315 0.00186653 0)
(0.21535 0.00176265 0)
(0.215377 0.00165582 0)
(0.215395 0.00154625 0)
(0.215405 0.00143439 0)
(0.215406 0.00132096 0)
(0.215398 0.00120697 0)
(0.21538 0.0010937 0)
(0.215353 0.000982656 0)
(0.215317 0.00087549 0)
(0.215273 0.000773863 0)
(0.215222 0.00067933 0)
(0.215164 0.000593201 0)
(0.215101 0.000516447 0)
(0.215035 0.000449638 0)
(0.214966 0.000392946 0)
(0.214897 0.000346203 0)
(0.214826 0.000308999 0)
(0.214756 0.000280793 0)
(0.214686 0.000260987 0)
(0.214617 0.000248946 0)
(0.214548 0.000243951 0)
(0.214479 0.000245152 0)
(0.214411 0.000251575 0)
(0.214341 0.000262184 0)
(0.214269 0.000275968 0)
(0.214193 0.000292008 0)
(0.214112 0.000309505 0)
(0.214023 0.000327775 0)
(0.213926 0.000346223 0)
(0.213817 0.000364308 0)
(0.213695 0.00038151 0)
(0.213559 0.000397304 0)
(0.213408 0.000411148 0)
(0.21324 0.000422488 0)
(0.213055 0.000430774 0)
(0.212854 0.000435492 0)
(0.212638 0.000436205 0)
(0.212408 0.000432592 0)
(0.212168 0.000424486 0)
(0.21192 0.0004119 0)
(0.211667 0.000395039 0)
(0.211413 0.000374298 0)
(0.211162 0.000350244 0)
(0.210917 0.000323577 0)
(0.210683 0.000295088 0)
(0.210461 0.000265609 0)
(0.210255 0.000235961 0)
(0.210065 0.00020691 0)
(0.209894 0.000179129 0)
(0.209741 0.00015318 0)
(0.209607 0.000129507 0)
(0.209491 0.000108452 0)
(0.209392 9.02994e-05 0)
(0.20931 7.53441e-05 0)
(0.20923 6.39274e-05 0)
(0.200113 0.00123617 0)
(0.200487 0.00241919 0)
(0.201115 0.00343111 0)
(0.201891 0.0042333 0)
(0.202722 0.004845 0)
(0.20356 0.00529725 0)
(0.204387 0.00561129 0)
(0.205189 0.00580384 0)
(0.20595 0.00589325 0)
(0.20666 0.00589883 0)
(0.207314 0.00583862 0)
(0.207909 0.0057287 0)
(0.208447 0.00558329 0)
(0.20893 0.00541462 0)
(0.209363 0.00523284 0)
(0.209751 0.00504596 0)
(0.2101 0.00485993 0)
(0.210415 0.00467894 0)
(0.210702 0.00450565 0)
(0.210966 0.00434153 0)
(0.211211 0.00418716 0)
(0.21144 0.00404246 0)
(0.211657 0.00390694 0)
(0.211864 0.00377987 0)
(0.212061 0.0036604 0)
(0.212252 0.00354764 0)
(0.212436 0.00344074 0)
(0.212615 0.00333887 0)
(0.212789 0.0032413 0)
(0.212958 0.00314733 0)
(0.213123 0.00305633 0)
(0.213283 0.00296776 0)
(0.213439 0.00288106 0)
(0.213592 0.00279575 0)
(0.213739 0.00271138 0)
(0.213883 0.00262748 0)
(0.214022 0.00254364 0)
(0.214157 0.00245944 0)
(0.214287 0.00237449 0)
(0.214412 0.00228838 0)
(0.214531 0.00220075 0)
(0.214645 0.00211124 0)
(0.214753 0.00201954 0)
(0.214855 0.00192537 0)
(0.214949 0.00182854 0)
(0.215036 0.00172894 0)
(0.215115 0.00162661 0)
(0.215185 0.00152178 0)
(0.215245 0.00141487 0)
(0.215295 0.00130658 0)
(0.215334 0.00119784 0)
(0.215362 0.00108983 0)
(0.215379 0.000983934 0)
(0.215385 0.000881654 0)
(0.21538 0.000784507 0)
(0.215365 0.000693917 0)
(0.215342 0.000611103 0)
(0.215311 0.000536988 0)
(0.215275 0.000472151 0)
(0.215233 0.000416826 0)
(0.215189 0.000370941 0)
(0.215142 0.000334202 0)
(0.215093 0.000306175 0)
(0.215044 0.000286355 0)
(0.214994 0.000274181 0)
(0.214944 0.000269013 0)
(0.214894 0.000270105 0)
(0.214843 0.000276616 0)
(0.214792 0.000287653 0)
(0.214739 0.00030234 0)
(0.214684 0.000319871 0)
(0.214624 0.000339529 0)
(0.214559 0.000360677 0)
(0.214485 0.00038273 0)
(0.214403 0.00040512 0)
(0.214309 0.000427261 0)
(0.214203 0.000448518 0)
(0.214083 0.000468202 0)
(0.213948 0.00048557 0)
(0.213797 0.000499852 0)
(0.21363 0.000510292 0)
(0.213448 0.000516201 0)
(0.213253 0.00051701 0)
(0.213046 0.000512331 0)
(0.212829 0.000501992 0)
(0.212606 0.000486075 0)
(0.21238 0.000464911 0)
(0.212153 0.000439075 0)
(0.211931 0.000409345 0)
(0.211715 0.00037665 0)
(0.21151 0.000342009 0)
(0.211316 0.000306466 0)
(0.211137 0.000271021 0)
(0.210974 0.000236586 0)
(0.210827 0.00020394 0)
(0.210697 0.000173712 0)
(0.210584 0.000146377 0)
(0.210486 0.00012227 0)
(0.210404 0.000101566 0)
(0.210324 8.40102e-05 0)
(0.200088 0.00105857 0)
(0.200384 0.00208431 0)
(0.20089 0.0029885 0)
(0.201534 0.00373294 0)
(0.202244 0.00431991 0)
(0.202977 0.00476725 0)
(0.203711 0.00509117 0)
(0.204431 0.00530541 0)
(0.205123 0.00542475 0)
(0.205776 0.00546506 0)
(0.206384 0.00544181 0)
(0.206943 0.00536919 0)
(0.207453 0.00525987 0)
(0.207916 0.00512494 0)
(0.208334 0.0049738 0)
(0.208713 0.00481402 0)
(0.209055 0.00465148 0)
(0.209367 0.00449045 0)
(0.209653 0.0043339 0)
(0.209917 0.00418365 0)
(0.210163 0.0040407 0)
(0.210393 0.00390537 0)
(0.210612 0.00377757 0)
(0.21082 0.0036569 0)
(0.21102 0.00354279 0)
(0.211214 0.00343461 0)
(0.211401 0.00333167 0)
(0.211584 0.00323332 0)
(0.211762 0.00313893 0)
(0.211937 0.0030479 0)
(0.212108 0.00295969 0)
(0.212275 0.00287376 0)
(0.212439 0.00278965 0)
(0.212601 0.0027069 0)
(0.212758 0.00262508 0)
(0.212913 0.00254376 0)
(0.213065 0.00246255 0)
(0.213212 0.00238106 0)
(0.213357 0.00229891 0)
(0.213497 0.00221574 0)
(0.213633 0.00213119 0)
(0.213764 0.00204496 0)
(0.21389 0.00195675 0)
(0.21401 0.00186632 0)
(0.214124 0.0017735 0)
(0.21423 0.00167823 0)
(0.21433 0.00158056 0)
(0.21442 0.00148072 0)
(0.214501 0.00137913 0)
(0.214573 0.00127641 0)
(0.214633 0.00117344 0)
(0.214682 0.00107128 0)
(0.21472 0.000971185 0)
(0.214747 0.000874489 0)
(0.214763 0.000782561 0)
(0.214769 0.000696686 0)
(0.214765 0.000617973 0)
(0.214753 0.000547286 0)
(0.214735 0.000485193 0)
(0.214711 0.000431965 0)
(0.214683 0.000387604 0)
(0.214651 0.000351911 0)
(0.214618 0.000324547 0)
(0.214583 0.000305089 0)
(0.214547 0.000293054 0)
(0.21451 0.000287886 0)
(0.214474 0.000288944 0)
(0.214437 0.000295513 0)
(0.2144 0.000306841 0)
(0.214361 0.000322185 0)
(0.214321 0.000340856 0)
(0.214278 0.000362226 0)
(0.21423 0.000385721 0)
(0.214177 0.000410784 0)
(0.214116 0.000436845 0)
(0.214047 0.000463278 0)
(0.213967 0.000489371 0)
(0.213875 0.000514318 0)
(0.213771 0.000537223 0)
(0.213653 0.000557129 0)
(0.213522 0.000573065 0)
(0.213378 0.000584111 0)
(0.213221 0.000589467 0)
(0.213052 0.000588527 0)
(0.212875 0.000580933 0)
(0.212691 0.000566622 0)
(0.212502 0.000545842 0)
(0.212312 0.000519143 0)
(0.212123 0.000487344 0)
(0.211939 0.000451475 0)
(0.211762 0.000412704 0)
(0.211594 0.000372262 0)
(0.211437 0.000331356 0)
(0.211293 0.000291112 0)
(0.211162 0.000252509 0)
(0.211046 0.000216351 0)
(0.210943 0.000183245 0)
(0.210854 0.000153582 0)
(0.210779 0.000127457 0)
(0.210704 0.000104256 0)
(0.20007 0.000913029 0)
(0.200308 0.00180578 0)
(0.200719 0.00261061 0)
(0.201255 0.00329369 0)
(0.20186 0.00384871 0)
(0.202499 0.00428398 0)
(0.203149 0.00461051 0)
(0.203794 0.00483903 0)
(0.204422 0.00498119 0)
(0.20502 0.00504985 0)
(0.205583 0.00505799 0)
(0.206107 0.00501787 0)
(0.20659 0.00494067 0)
(0.207032 0.00483634 0)
(0.207436 0.00471343 0)
(0.207804 0.00457905 0)
(0.208139 0.00443886 0)
(0.208447 0.00429714 0)
(0.20873 0.00415702 0)
(0.208992 0.00402059 0)
(0.209237 0.00388917 0)
(0.209467 0.00376342 0)
(0.209685 0.00364357 0)
(0.209893 0.00352953 0)
(0.210093 0.00342099 0)
(0.210286 0.00331754 0)
(0.210472 0.00321868 0)
(0.210654 0.0031239 0)
(0.210832 0.00303269 0)
(0.211006 0.00294455 0)
(0.211176 0.00285901 0)
(0.211343 0.00277562 0)
(0.211507 0.00269393 0)
(0.211668 0.00261354 0)
(0.211826 0.00253406 0)
(0.211982 0.00245509 0)
(0.212134 0.00237627 0)
(0.212283 0.00229725 0)
(0.212429 0.00221767 0)
(0.212572 0.0021372 0)
(0.21271 0.00205553 0)
(0.212844 0.00197237 0)
(0.212974 0.00188746 0)
(0.213098 0.00180061 0)
(0.213216 0.00171168 0)
(0.213328 0.00162063 0)
(0.213433 0.00152753 0)
(0.21353 0.00143261 0)
(0.213618 0.00133627 0)
(0.213696 0.0012391 0)
(0.213765 0.00114189 0)
(0.213822 0.00104559 0)
(0.21387 0.000951331 0)
(0.213906 0.000860296 0)
(0.213932 0.000773705 0)
(0.213949 0.000692708 0)
(0.213956 0.000618308 0)
(0.213955 0.0005513 0)
(0.213948 0.000492231 0)
(0.213935 0.000441393 0)
(0.213917 0.000398846 0)
(0.213897 0.000364462 0)
(0.213873 0.000337985 0)
(0.213848 0.000319068 0)
(0.213822 0.000307301 0)
(0.213796 0.000302209 0)
(0.213769 0.00030325 0)
(0.213742 0.000309822 0)
(0.213715 0.000321299 0)
(0.213687 0.000337063 0)
(0.213659 0.00035653 0)
(0.213628 0.000379161 0)
(0.213594 0.000404444 0)
(0.213556 0.00043186 0)
(0.213512 0.000460848 0)
(0.213462 0.000490758 0)
(0.213404 0.000520827 0)
(0.213337 0.000550165 0)
(0.21326 0.000577755 0)
(0.213173 0.000602491 0)
(0.213074 0.000623228 0)
(0.212965 0.000638853 0)
(0.212845 0.000648372 0)
(0.212716 0.000650984 0)
(0.212578 0.000646163 0)
(0.212434 0.00063371 0)
(0.212286 0.00061378 0)
(0.212135 0.000586882 0)
(0.211984 0.000553847 0)