/*--------------------------------*- C++ -*----------------------------------*\
| =========                 |                                                 |
| \\      /  F ield         | OpenFOAM: The Open Source CFD Toolbox           |
|  \\    /   O peration     | Version:  2.3.0                                 |
|   \\  /    A nd           | Web:      www.OpenFOAM.org                      |
|    \\/     M anipulation  |                                                 |
\*---------------------------------------------------------------------------*/
FoamFile
{
    version     2.0;
    format      ascii;
    class       volVectorField;
    location    "0.15";
    object      U_0;
}
// * * * * * * * * * * * * * * * * * * * * * * * * * * * * * * * * * * * * * //

dimensions      [0 1 -1 0 0 0 0];

internalField   nonuniform List<vector> 
3105
(
(0.171673 0.0058329 0)
(0.155069 0.00597988 0)
(0.139268 0.00560304 0)
(0.124282 0.00501809 0)
(0.110493 0.00436152 0)
(0.0980953 0.00369246 0)
(0.0871183 0.00304863 0)
(0.0775305 0.00245623 0)
(0.0692751 0.00193151 0)
(0.0622675 0.00148283 0)
(0.0563943 0.00111216 0)
(0.0515225 0.000816209 0)
(0.0475106 0.00058764 0)
(0.0442186 0.000416712 0)
(0.0415159 0.00029282 0)
(0.0392857 0.000205728 0)
(0.0374288 0.000146338 0)
(0.0358635 0.000107045 0)
(0.0345247 8.17991e-05 0)
(0.0333623 6.59914e-05 0)
(0.0323387 5.62522e-05 0)
(0.0314258 5.02214e-05 0)
(0.0306033 4.63209e-05 0)
(0.0298566 4.35488e-05 0)
(0.0291751 4.13083e-05 0)
(0.0285508 3.92728e-05 0)
(0.0279781 3.72878e-05 0)
(0.0274526 3.53003e-05 0)
(0.0269708 3.33105e-05 0)
(0.02653 3.13357e-05 0)
(0.0261278 2.93817e-05 0)
(0.0257625 2.74176e-05 0)
(0.0254329 2.53549e-05 0)
(0.0251387 2.3034e-05 0)
(0.0248802 2.02303e-05 0)
(0.024659 1.67218e-05 0)
(0.0244779 1.24552e-05 0)
(0.0243411 7.59197e-06 0)
(0.0242546 2.43481e-06 0)
(0.0242256 -1.45337e-06 0)
(0.0242455 -5.17488e-06 0)
(0.0242966 -7.77924e-06 0)
(0.0243708 -1.00952e-05 0)
(0.0244599 -1.15813e-05 0)
(0.024557 -1.21145e-05 0)
(0.0246562 -1.19177e-05 0)
(0.0247531 -1.12648e-05 0)
(0.0248449 -1.03676e-05 0)
(0.0249299 -9.36994e-06 0)
(0.0250072 -8.36398e-06 0)
(0.0250767 -7.40442e-06 0)
(0.0251387 -6.51986e-06 0)
(0.0251936 -5.72177e-06 0)
(0.0252421 -5.01131e-06 0)
(0.0252847 -4.38394e-06 0)
(0.0253221 -3.8324e-06 0)
(0.0253549 -3.34858e-06 0)
(0.0253835 -2.92449e-06 0)
(0.0254085 -2.55284e-06 0)
(0.0254303 -2.22726e-06 0)
(0.0254494 -1.94223e-06 0)
(0.0254659 -1.69303e-06 0)
(0.0254804 -1.47559e-06 0)
(0.0254929 -1.28637e-06 0)
(0.0255039 -1.12221e-06 0)
(0.0255135 -9.8029e-07 0)
(0.025522 -8.58024e-07 0)
(0.0255294 -7.53015e-07 0)
(0.0255359 -6.63043e-07 0)
(0.0255417 -5.86058e-07 0)
(0.0255469 -5.20178e-07 0)
(0.0255515 -4.6369e-07 0)
(0.0255557 -4.15068e-07 0)
(0.0255594 -3.72982e-07 0)
(0.0255628 -3.36275e-07 0)
(0.0255659 -3.03993e-07 0)
(0.0255688 -2.75335e-07 0)
(0.0255713 -2.49667e-07 0)
(0.0255737 -2.26485e-07 0)
(0.0255759 -2.054e-07 0)
(0.0255778 -1.86118e-07 0)
(0.0255796 -1.68414e-07 0)
(0.0255813 -1.52115e-07 0)
(0.0255827 -1.37086e-07 0)
(0.0255841 -1.23218e-07 0)
(0.0255853 -1.10421e-07 0)
(0.0255864 -9.86117e-08 0)
(0.0255874 -8.77112e-08 0)
(0.0255883 -7.76511e-08 0)
(0.0255891 -6.83479e-08 0)
(0.0255898 -5.97379e-08 0)
(0.0255904 -5.17361e-08 0)
(0.0255909 -4.42636e-08 0)
(0.0255914 -3.72268e-08 0)
(0.0255918 -3.04975e-08 0)
(0.0255921 -2.39088e-08 0)
(0.0255924 -1.71771e-08 0)
(0.0255926 -9.8869e-09 0)
(0.0255927 -3.5596e-09 0)
(0.0255927 5.93168e-09 0)
(0.190708 0.00924856 0)
(0.18836 0.00987001 0)
(0.184498 0.00970747 0)
(0.179401 0.009228 0)
(0.173536 0.00860146 0)
(0.167261 0.00788322 0)
(0.160806 0.00711161 0)
(0.15434 0.00632179 0)
(0.147996 0.00554376 0)
(0.141877 0.00480209 0)
(0.13605 0.004116 0)
(0.130557 0.00349875 0)
(0.125419 0.00295749 0)
(0.12064 0.00249359 0)
(0.116213 0.00210378 0)
(0.112125 0.00178142 0)
(0.108355 0.00151795 0)
(0.104883 0.00130407 0)
(0.101686 0.00113073 0)
(0.0987402 0.000989753 0)
(0.0960258 0.000874116 0)
(0.0935228 0.000778072 0)
(0.0912133 0.000697073 0)
(0.0890813 0.000627613 0)
(0.0871131 0.000567044 0)
(0.0852963 0.000513394 0)
(0.0836207 0.0004652 0)
(0.0820773 0.000421377 0)
(0.0806589 0.000381102 0)
(0.0793594 0.000343727 0)
(0.078174 0.000308692 0)
(0.0770992 0.000275456 0)
(0.0761331 0.000243437 0)
(0.0752746 0.000211978 0)
(0.0745245 0.000180333 0)
(0.0738843 0.000147742 0)
(0.0733564 0.000113652 0)
(0.0729426 7.78795e-05 0)
(0.0726422 4.04249e-05 0)
(0.0724509 3.01148e-06 0)
(0.0723835 -2.97611e-05 0)
(0.0724198 -5.06836e-05 0)
(0.0725229 -6.17205e-05 0)
(0.0726702 -6.69484e-05 0)
(0.0728442 -6.82845e-05 0)
(0.0730315 -6.66642e-05 0)
(0.0732216 -6.29775e-05 0)
(0.0734073 -5.80697e-05 0)
(0.0735838 -5.26088e-05 0)
(0.0737481 -4.70569e-05 0)
(0.0738988 -4.17055e-05 0)
(0.0740354 -3.67195e-05 0)
(0.0741581 -3.21764e-05 0)
(0.0742676 -2.80981e-05 0)
(0.0743646 -2.44736e-05 0)
(0.0744503 -2.12745e-05 0)
(0.0745255 -1.84644e-05 0)
(0.0745913 -1.60051e-05 0)
(0.0746487 -1.38594e-05 0)
(0.0746985 -1.19926e-05 0)
(0.0747417 -1.03733e-05 0)
(0.0747791 -8.97296e-06 0)
(0.0748113 -7.76602e-06 0)
(0.0748392 -6.72926e-06 0)
(0.0748633 -5.84163e-06 0)
(0.0748841 -5.08403e-06 0)
(0.0749021 -4.43908e-06 0)
(0.0749178 -3.89097e-06 0)
(0.0749315 -3.42547e-06 0)
(0.0749436 -3.02982e-06 0)
(0.0749543 -2.69271e-06 0)
(0.0749638 -2.40429e-06 0)
(0.0749722 -2.15604e-06 0)
(0.0749799 -1.94077e-06 0)
(0.0749868 -1.75247e-06 0)
(0.074993 -1.58624e-06 0)
(0.0749987 -1.43814e-06 0)
(0.0750039 -1.30503e-06 0)
(0.0750087 -1.18451e-06 0)
(0.075013 -1.07469e-06 0)
(0.075017 -9.74169e-07 0)
(0.0750206 -8.81842e-07 0)
(0.0750239 -7.96864e-07 0)
(0.0750269 -7.18555e-07 0)
(0.0750296 -6.4636e-07 0)
(0.0750321 -5.79792e-07 0)
(0.0750343 -5.18421e-07 0)
(0.0750363 -4.6183e-07 0)
(0.0750381 -4.09639e-07 0)
(0.0750397 -3.61448e-07 0)
(0.0750411 -3.16887e-07 0)
(0.0750424 -2.75564e-07 0)
(0.0750435 -2.37073e-07 0)
(0.0750444 -2.00979e-07 0)
(0.0750453 -1.66739e-07 0)
(0.0750459 -1.33672e-07 0)
(0.0750465 -1.00779e-07 0)
(0.0750469 -6.66164e-08 0)
(0.0750472 -3.07917e-08 0)
(0.0750472 8.4737e-09 0)
(0.193682 0.00890354 0)
(0.194445 0.00992726 0)
(0.194619 0.0103106 0)
(0.194021 0.0103344 0)
(0.192739 0.0101211 0)
(0.190892 0.00971672 0)
(0.188574 0.00916517 0)
(0.185873 0.00851531 0)
(0.18288 0.00781277 0)
(0.179683 0.0070964 0)
(0.176359 0.0063974 0)
(0.172972 0.00573879 0)
(0.169574 0.00513529 0)
(0.166206 0.00459415 0)
(0.162897 0.00411652 0)
(0.159669 0.00369924 0)
(0.156537 0.00333648 0)
(0.153509 0.00302124 0)
(0.150592 0.00274631 0)
(0.147787 0.00250501 0)
(0.145097 0.00229148 0)
(0.142521 0.00210077 0)
(0.14006 0.00192886 0)
(0.137712 0.00177249 0)
(0.135478 0.00162904 0)
(0.133358 0.00149641 0)
(0.13135 0.00137288 0)
(0.129456 0.00125703 0)
(0.127676 0.00114765 0)
(0.126011 0.00104365 0)
(0.124463 0.000943979 0)
(0.123034 0.000847624 0)
(0.121727 0.000753526 0)
(0.120546 0.000660631 0)
(0.119493 0.000567958 0)
(0.118573 0.000474754 0)
(0.117788 0.000380721 0)
(0.117139 0.000286326 0)
(0.116623 0.000192999 0)
(0.116227 0.000102338 0)
(0.115925 1.86374e-05 0)
(0.115737 -5.12572e-05 0)
(0.115672 -0.000100722 0)
(0.115695 -0.000130428 0)
(0.115785 -0.000145649 0)
(0.11592 -0.000150686 0)
(0.116084 -0.000148606 0)
(0.116266 -0.00014179 0)
(0.116455 -0.000132109 0)
(0.116643 -0.000120952 0)
(0.116827 -0.00010929 0)
(0.117002 -9.77614e-05 0)
(0.117167 -8.67605e-05 0)
(0.117319 -7.65072e-05 0)
(0.117458 -6.71074e-05 0)
(0.117585 -5.85934e-05 0)
(0.117698 -5.09536e-05 0)
(0.1178 -4.41509e-05 0)
(0.11789 -3.81349e-05 0)
(0.117969 -3.28487e-05 0)
(0.118038 -2.82327e-05 0)
(0.118097 -2.4227e-05 0)
(0.118149 -2.07726e-05 0)
(0.118193 -1.78118e-05 0)
(0.118231 -1.52889e-05 0)
(0.118263 -1.3151e-05 0)
(0.118291 -1.13478e-05 0)
(0.118314 -9.83261e-06 0)
(0.118334 -8.56229e-06 0)
(0.118351 -7.49792e-06 0)
(0.118365 -6.60484e-06 0)
(0.118378 -5.85273e-06 0)
(0.118389 -5.21555e-06 0)
(0.118398 -4.67138e-06 0)
(0.118407 -4.20208e-06 0)
(0.118414 -3.79296e-06 0)
(0.118421 -3.43235e-06 0)
(0.118427 -3.11109e-06 0)
(0.118432 -2.82218e-06 0)
(0.118437 -2.56028e-06 0)
(0.118442 -2.32142e-06 0)
(0.118446 -2.10258e-06 0)
(0.11845 -1.90148e-06 0)
(0.118453 -1.71634e-06 0)
(0.118456 -1.54573e-06 0)
(0.118459 -1.38844e-06 0)
(0.118462 -1.24342e-06 0)
(0.118464 -1.10969e-06 0)
(0.118466 -9.86323e-07 0)
(0.118468 -8.72428e-07 0)
(0.118469 -7.67121e-07 0)
(0.118471 -6.69523e-07 0)
(0.118472 -5.78711e-07 0)
(0.118473 -4.93722e-07 0)
(0.118474 -4.1341e-07 0)
(0.118475 -3.36354e-07 0)
(0.118476 -2.60565e-07 0)
(0.118476 -1.83029e-07 0)
(0.118477 -9.8839e-08 0)
(0.118477 -4.1035e-09 0)
(0.194718 0.00827552 0)
(0.195844 0.00935854 0)
(0.196897 0.00995097 0)
(0.197656 0.0102116 0)
(0.198081 0.010233 0)
(0.198175 0.010054 0)
(0.197937 0.00971007 0)
(0.197373 0.00924283 0)
(0.196507 0.00869398 0)
(0.195374 0.00810097 0)
(0.194017 0.00749562 0)
(0.192478 0.00690313 0)
(0.190798 0.00634161 0)
(0.189013 0.00582223 0)
(0.187157 0.00535018 0)
(0.185255 0.00492604 0)
(0.183328 0.00454725 0)
(0.181392 0.00420938 0)
(0.179461 0.00390718 0)
(0.177545 0.00363528 0)
(0.175651 0.00338868 0)
(0.173785 0.00316297 0)
(0.171954 0.00295436 0)
(0.170163 0.00275973 0)
(0.168416 0.00257651 0)
(0.166719 0.00240259 0)
(0.165076 0.00223623 0)
(0.163491 0.00207598 0)
(0.161972 0.00192055 0)
(0.160522 0.00176879 0)
(0.159148 0.00161958 0)
(0.157856 0.00147178 0)
(0.156652 0.00132431 0)
(0.155542 0.00117616 0)
(0.154532 0.00102657 0)
(0.153628 0.000875277 0)
(0.152832 0.000722885 0)
(0.152146 0.000571279 0)
(0.151567 0.0004242 0)
(0.15109 0.000286949 0)
(0.150705 0.000163151 0)
(0.150388 5.33751e-05 0)
(0.150138 -3.88358e-05 0)
(0.149978 -0.000108441 0)
(0.149895 -0.000155537 0)
(0.149875 -0.000184188 0)
(0.149907 -0.000198748 0)
(0.149978 -0.000202889 0)
(0.15008 -0.000199619 0)
(0.150202 -0.00019134 0)
(0.150338 -0.00017989 0)
(0.150483 -0.000166624 0)
(0.15063 -0.000152509 0)
(0.150776 -0.000138215 0)
(0.150919 -0.000124196 0)
(0.151055 -0.000110748 0)
(0.151184 -9.80642e-05 0)
(0.151304 -8.62607e-05 0)
(0.151415 -7.54036e-05 0)
(0.151515 -6.55227e-05 0)
(0.151605 -5.66209e-05 0)
(0.151685 -4.86808e-05 0)
(0.151756 -4.16686e-05 0)
(0.151817 -3.5537e-05 0)
(0.15187 -3.02278e-05 0)
(0.151915 -2.56748e-05 0)
(0.151953 -2.18061e-05 0)
(0.151984 -1.85465e-05 0)
(0.152011 -1.58208e-05 0)
(0.152033 -1.35553e-05 0)
(0.152051 -1.16802e-05 0)
(0.152066 -1.01312e-05 0)
(0.152078 -8.85082e-06 0)
(0.152089 -7.7884e-06 0)
(0.152097 -6.90088e-06 0)
(0.152105 -6.15235e-06 0)
(0.152111 -5.5136e-06 0)
(0.152116 -4.96135e-06 0)
(0.152121 -4.47752e-06 0)
(0.152125 -4.04829e-06 0)
(0.152129 -3.66333e-06 0)
(0.152132 -3.31498e-06 0)
(0.152135 -2.99761e-06 0)
(0.152138 -2.70701e-06 0)
(0.15214 -2.44008e-06 0)
(0.152143 -2.19435e-06 0)
(0.152145 -1.96786e-06 0)
(0.152146 -1.75891e-06 0)
(0.152148 -1.566e-06 0)
(0.15215 -1.38771e-06 0)
(0.152151 -1.22268e-06 0)
(0.152152 -1.06959e-06 0)
(0.152153 -9.27043e-07 0)
(0.152154 -7.93602e-07 0)
(0.152155 -6.67597e-07 0)
(0.152155 -5.46954e-07 0)
(0.152156 -4.28791e-07 0)
(0.152156 -3.08506e-07 0)
(0.152156 -1.77457e-07 0)
(0.152157 -1.71754e-08 0)
(0.195454 0.00777668 0)
(0.196447 0.0087764 0)
(0.197523 0.00939482 0)
(0.198519 0.00972638 0)
(0.199381 0.00984517 0)
(0.200088 0.00978621 0)
(0.200617 0.00957637 0)
(0.200947 0.00924702 0)
(0.201067 0.00883132 0)
(0.200984 0.00836056 0)
(0.20071 0.0078626 0)
(0.200266 0.00736074 0)
(0.199674 0.00687287 0)
(0.198959 0.00641124 0)
(0.198143 0.00598288 0)
(0.197247 0.00559052 0)
(0.196289 0.00523371 0)
(0.195284 0.00490991 0)
(0.194243 0.00461543 0)
(0.193175 0.00434613 0)
(0.192089 0.00409792 0)
(0.190992 0.00386701 0)
(0.189889 0.00365008 0)
(0.188785 0.00344428 0)
(0.187685 0.00324721 0)
(0.186595 0.00305685 0)
(0.185519 0.00287152 0)
(0.184462 0.00268974 0)
(0.18343 0.0025102 0)
(0.182429 0.00233168 0)
(0.181464 0.00215301 0)
(0.180541 0.00197306 0)
(0.179666 0.00179081 0)
(0.178845 0.00160544 0)
(0.178084 0.00141659 0)
(0.177385 0.00122464 0)
(0.176753 0.00103108 0)
(0.176187 0.000838886 0)
(0.175688 0.000652733 0)
(0.175252 0.000478555 0)
(0.174878 0.000322156 0)
(0.174561 0.000186404 0)
(0.174287 7.05165e-05 0)
(0.174047 -2.53504e-05 0)
(0.17386 -9.93249e-05 0)
(0.173722 -0.000152398 0)
(0.173629 -0.000187842 0)
(0.173576 -0.000209262 0)
(0.173559 -0.000219854 0)
(0.173572 -0.000222302 0)
(0.173609 -0.00021879 0)
(0.173666 -0.000211037 0)
(0.173738 -0.000200369 0)
(0.173821 -0.000187786 0)
(0.173912 -0.000174043 0)
(0.174007 -0.000159707 0)
(0.174104 -0.000145205 0)
(0.1742 -0.000130867 0)
(0.174294 -0.000116948 0)
(0.174384 -0.000103644 0)
(0.174469 -9.11083e-05 0)
(0.174547 -7.94551e-05 0)
(0.174618 -6.87638e-05 0)
(0.174682 -5.90817e-05 0)
(0.174738 -5.04264e-05 0)
(0.174787 -4.27879e-05 0)
(0.174829 -3.61324e-05 0)
(0.174865 -3.0405e-05 0)
(0.174894 -2.55354e-05 0)
(0.174918 -2.14413e-05 0)
(0.174938 -1.80345e-05 0)
(0.174953 -1.52244e-05 0)
(0.174966 -1.29224e-05 0)
(0.174975 -1.1045e-05 0)
(0.174983 -9.51605e-06 0)
(0.174988 -8.26859e-06 0)
(0.174993 -7.24505e-06 0)
(0.174996 -6.39743e-06 0)
(0.174999 -5.6868e-06 0)
(0.175001 -5.08236e-06 0)
(0.175002 -4.56029e-06 0)
(0.175004 -4.1026e-06 0)
(0.175005 -3.6959e-06 0)
(0.175006 -3.33036e-06 0)
(0.175006 -2.99886e-06 0)
(0.175007 -2.69619e-06 0)
(0.175008 -2.41848e-06 0)
(0.175008 -2.16277e-06 0)
(0.175009 -1.92668e-06 0)
(0.175009 -1.70821e-06 0)
(0.17501 -1.50556e-06 0)
(0.17501 -1.31706e-06 0)
(0.175011 -1.14101e-06 0)
(0.175011 -9.75705e-07 0)
(0.175011 -8.19152e-07 0)
(0.175011 -6.68902e-07 0)
(0.175011 -5.21568e-07 0)
(0.175011 -3.71662e-07 0)
(0.175011 -2.0843e-07 0)
(0.175011 2.32457e-09 0)
(0.196081 0.00734233 0)
(0.196906 0.00822927 0)
(0.197847 0.00882498 0)
(0.198788 0.00917861 0)
(0.199678 0.00934354 0)
(0.200495 0.00935013 0)
(0.201214 0.0092208 0)
(0.201815 0.00898074 0)
(0.202282 0.00865729 0)
(0.202611 0.00827696 0)
(0.202805 0.00786377 0)
(0.20287 0.00743831 0)
(0.202819 0.00701695 0)
(0.202666 0.00661153 0)
(0.202427 0.00622949 0)
(0.202115 0.00587452 0)
(0.201743 0.0055474 0)
(0.201322 0.00524686 0)
(0.200862 0.00497038 0)
(0.200369 0.00471479 0)
(0.199849 0.00447678 0)
(0.199308 0.00425312 0)
(0.198749 0.00404088 0)
(0.198176 0.00383743 0)
(0.197593 0.00364052 0)
(0.197003 0.00344818 0)
(0.196409 0.00325872 0)
(0.195815 0.00307061 0)
(0.195225 0.00288251 0)
(0.194642 0.00269314 0)
(0.19407 0.00250132 0)
(0.193513 0.00230596 0)
(0.192974 0.00210617 0)
(0.192459 0.00190138 0)
(0.191968 0.0016916 0)
(0.191505 0.00147772 0)
(0.191071 0.00126186 0)
(0.190667 0.00104757 0)
(0.190292 0.000839869 0)
(0.189945 0.000644716 0)
(0.189629 0.000467893 0)
(0.189342 0.000313387 0)
(0.189086 0.000182364 0)
(0.188855 7.31594e-05 0)
(0.188641 -1.5694e-05 0)
(0.188456 -8.48393e-05 0)
(0.1883 -0.00013605 0)
(0.188172 -0.000172121 0)
(0.188072 -0.000195939 0)
(0.187997 -0.000210056 0)
(0.187945 -0.000216609 0)
(0.187913 -0.000217341 0)
(0.1879 -0.000213639 0)
(0.187902 -0.000206598 0)
(0.187917 -0.000197076 0)
(0.187942 -0.000185754 0)
(0.187976 -0.000173177 0)
(0.188017 -0.000159792 0)
(0.188061 -0.000145975 0)
(0.188108 -0.000132049 0)
(0.188156 -0.00011829 0)
(0.188203 -0.000104939 0)
(0.188248 -9.21973e-05 0)
(0.18829 -8.02309e-05 0)
(0.188329 -6.91668e-05 0)
(0.188363 -5.90937e-05 0)
(0.188394 -5.00617e-05 0)
(0.18842 -4.20851e-05 0)
(0.188442 -3.51449e-05 0)
(0.188459 -2.9194e-05 0)
(0.188473 -2.41629e-05 0)
(0.188484 -1.99661e-05 0)
(0.188492 -1.65082e-05 0)
(0.188497 -1.36902e-05 0)
(0.188501 -1.14142e-05 0)
(0.188503 -9.58793e-06 0)
(0.188504 -8.12743e-06 0)
(0.188504 -6.95887e-06 0)
(0.188503 -6.01944e-06 0)
(0.188502 -5.25725e-06 0)
(0.188501 -4.63061e-06 0)
(0.188499 -4.10689e-06 0)
(0.188498 -3.66115e-06 0)
(0.188497 -3.27475e-06 0)
(0.188495 -2.93404e-06 0)
(0.188494 -2.62918e-06 0)
(0.188493 -2.35309e-06 0)
(0.188492 -2.10068e-06 0)
(0.188491 -1.86823e-06 0)
(0.18849 -1.65292e-06 0)
(0.188489 -1.45247e-06 0)
(0.188488 -1.26497e-06 0)
(0.188488 -1.08864e-06 0)
(0.188487 -9.21697e-07 0)
(0.188486 -7.62161e-07 0)
(0.188486 -6.07551e-07 0)
(0.188485 -4.54419e-07 0)
(0.188485 -2.97334e-07 0)
(0.188484 -1.24873e-07 0)
(0.188484 1.02364e-07 0)
(0.19663 0.00696678 0)
(0.197318 0.00774608 0)
(0.19812 0.00830457 0)
(0.198955 0.00866072 0)
(0.199774 0.00884899 0)
(0.200552 0.00889431 0)
(0.20127 0.00881634 0)
(0.201909 0.00863636 0)
(0.202456 0.00837758 0)
(0.202905 0.00806285 0)
(0.203256 0.00771308 0)
(0.203511 0.00734642 0)
(0.20368 0.00697763 0)
(0.20377 0.00661776 0)
(0.203794 0.00627422 0)
(0.20376 0.00595118 0)
(0.203679 0.0056502 0)
(0.203559 0.00537092 0)
(0.203407 0.00511171 0)
(0.203229 0.0048702 0)
(0.203028 0.0046437 0)
(0.202809 0.00442948 0)
(0.202574 0.00422492 0)
(0.202325 0.00402765 0)
(0.202064 0.00383552 0)
(0.201794 0.00364662 0)
(0.201515 0.00345928 0)
(0.20123 0.00327195 0)
(0.200941 0.00308328 0)
(0.200648 0.00289198 0)
(0.200355 0.00269689 0)
(0.200062 0.00249702 0)
(0.199771 0.0022916 0)
(0.199483 0.00208029 0)
(0.199199 0.00186339 0)
(0.198919 0.00164211 0)
(0.198644 0.00141882 0)
(0.198372 0.00119721 0)
(0.198104 0.000982188 0)
(0.19784 0.000779348 0)
(0.197584 0.00059399 0)
(0.197336 0.000430013 0)
(0.197101 0.000289307 0)
(0.19688 0.00017165 0)
(0.196673 7.49448e-05 0)
(0.196477 -3.01763e-06 0)
(0.196297 -6.40179e-05 0)
(0.196134 -0.000110159 0)
(0.19599 -0.000143809 0)
(0.195863 -0.000167256 0)
(0.195754 -0.000182486 0)
(0.195661 -0.000191148 0)
(0.195584 -0.000194579 0)
(0.195521 -0.00019385 0)
(0.195471 -0.000189816 0)
(0.195433 -0.000183166 0)
(0.195405 -0.000174466 0)
(0.195385 -0.000164193 0)
(0.195374 -0.000152762 0)
(0.195368 -0.000140541 0)
(0.195367 -0.000127867 0)
(0.19537 -0.000115046 0)
(0.195376 -0.000102356 0)
(0.195383 -9.00433e-05 0)
(0.195391 -7.83191e-05 0)
(0.195398 -6.73559e-05 0)
(0.195405 -5.72841e-05 0)
(0.195411 -4.81911e-05 0)
(0.195416 -4.01222e-05 0)
(0.195419 -3.30829e-05 0)
(0.195421 -2.70444e-05 0)
(0.195422 -2.19491e-05 0)
(0.195421 -1.77182e-05 0)
(0.195419 -1.42588e-05 0)
(0.195416 -1.14706e-05 0)
(0.195412 -9.25263e-06 0)
(0.195408 -7.5078e-06 0)
(0.195404 -6.14675e-06 0)
(0.1954 -5.09035e-06 0)
(0.195395 -4.27091e-06 0)
(0.195391 -3.63227e-06 0)
(0.195387 -3.12919e-06 0)
(0.195383 -2.72624e-06 0)
(0.195379 -2.39636e-06 0)
(0.195376 -2.11951e-06 0)
(0.195372 -1.88112e-06 0)
(0.19537 -1.67086e-06 0)
(0.195367 -1.48147e-06 0)
(0.195364 -1.30788e-06 0)
(0.195362 -1.14655e-06 0)
(0.19536 -9.94909e-07 0)
(0.195358 -8.51011e-07 0)
(0.195357 -7.13205e-07 0)
(0.195355 -5.79974e-07 0)
(0.195354 -4.49693e-07 0)
(0.195353 -3.20453e-07 0)
(0.195352 -1.89346e-07 0)
(0.19535 -5.11947e-08 0)
(0.195349 1.05247e-07 0)
(0.195348 3.13258e-07 0)
(0.197112 0.00664005 0)
(0.197694 0.00732221 0)
(0.198378 0.00783637 0)
(0.199108 0.00818338 0)
(0.199841 0.00838306 0)
(0.20055 0.00845445 0)
(0.201217 0.00841426 0)
(0.201826 0.00828037 0)
(0.202365 0.00807235 0)
(0.202829 0.00780978 0)
(0.203214 0.00751091 0)
(0.203526 0.00719179 0)
(0.203767 0.00686575 0)
(0.203947 0.00654308 0)
(0.204073 0.00623103 0)
(0.204153 0.00593407 0)
(0.204196 0.00565436 0)
(0.204208 0.00539228 0)
(0.204195 0.00514694 0)
(0.204162 0.00491668 0)
(0.204113 0.00469939 0)
(0.204051 0.00449282 0)
(0.203976 0.00429471 0)
(0.203892 0.00410294 0)
(0.203799 0.00391553 0)
(0.203698 0.00373069 0)
(0.203589 0.0035468 0)
(0.203474 0.00336237 0)
(0.203353 0.00317607 0)
(0.203226 0.00298667 0)
(0.203094 0.00279308 0)
(0.202956 0.0025944 0)
(0.202812 0.00239002 0)
(0.202662 0.00217977 0)
(0.202505 0.00196413 0)
(0.20234 0.00174442 0)
(0.202165 0.00152306 0)
(0.201981 0.00130355 0)
(0.201786 0.00109041 0)
(0.201582 0.000888639 0)
(0.201371 0.000702954 0)
(0.201157 0.000536926 0)
(0.200942 0.000392497 0)
(0.200732 0.00026994 0)
(0.200529 0.000168117 0)
(0.200334 8.49195e-05 0)
(0.200147 1.7996e-05 0)
(0.19997 -3.47428e-05 0)
(0.199806 -7.53258e-05 0)
(0.199653 -0.000105727 0)
(0.199513 -0.000127741 0)
(0.199385 -0.000142903 0)
(0.19927 -0.000152477 0)
(0.199166 -0.000157484 0)
(0.199074 -0.000158749 0)
(0.198991 -0.000156939 0)
(0.198919 -0.000152607 0)
(0.198856 -0.000146222 0)
(0.198801 -0.000138197 0)
(0.198753 -0.000128909 0)
(0.198712 -0.000118705 0)
(0.198678 -0.000107913 0)
(0.198648 -9.68401e-05 0)
(0.198622 -8.57697e-05 0)
(0.1986 -7.49559e-05 0)
(0.198581 -6.46187e-05 0)
(0.198565 -5.49388e-05 0)
(0.19855 -4.60539e-05 0)
(0.198537 -3.80571e-05 0)
(0.198524 -3.09981e-05 0)
(0.198513 -2.48861e-05 0)
(0.198502 -1.96952e-05 0)
(0.198492 -1.53711e-05 0)
(0.198482 -1.18379e-05 0)
(0.198472 -9.00637e-06 0)
(0.198463 -6.7806e-06 0)
(0.198455 -5.06416e-06 0)
(0.198446 -3.76487e-06 0)
(0.198438 -2.79862e-06 0)
(0.198431 -2.09155e-06 0)
(0.198424 -1.58113e-06 0)
(0.198418 -1.21607e-06 0)
(0.198412 -9.55744e-07 0)
(0.198406 -7.68845e-07 0)
(0.198401 -6.31842e-07 0)
(0.198397 -5.2754e-07 0)
(0.198393 -4.43759e-07 0)
(0.198389 -3.72105e-07 0)
(0.198385 -3.0694e-07 0)
(0.198382 -2.44573e-07 0)
(0.198379 -1.82574e-07 0)
(0.198377 -1.19351e-07 0)
(0.198374 -5.37281e-08 0)
(0.198372 1.52651e-08 0)
(0.19837 8.86512e-08 0)
(0.198368 1.67679e-07 0)
(0.198367 2.54467e-07 0)
(0.198365 3.53157e-07 0)
(0.198364 4.72235e-07 0)
(0.198363 6.30473e-07 0)
(0.197537 0.00635038 0)
(0.198035 0.00694682 0)
(0.198622 0.00741452 0)
(0.199258 0.00774565 0)
(0.199908 0.00794962 0)
(0.200548 0.0080397 0)
(0.201156 0.00802936 0)
(0.201719 0.00793332 0)
(0.202227 0.00776783 0)
(0.202673 0.00754953 0)
(0.203055 0.00729422 0)
(0.203374 0.00701607 0)
(0.203635 0.00672707 0)
(0.203843 0.00643677 0)
(0.204005 0.00615216 0)
(0.204128 0.00587789 0)
(0.204219 0.00561657 0)
(0.204284 0.00536917 0)
(0.204327 0.00513545 0)
(0.204355 0.00491438 0)
(0.204369 0.00470442 0)
(0.204372 0.00450379 0)
(0.204367 0.0043106 0)
(0.204354 0.00412303 0)
(0.204335 0.00393933 0)
(0.20431 0.00375786 0)
(0.20428 0.00357712 0)
(0.204244 0.00339575 0)
(0.204202 0.00321247 0)
(0.204155 0.00302618 0)
(0.2041 0.00283587 0)
(0.204039 0.0026408 0)
(0.203968 0.00244048 0)
(0.203888 0.0022349 0)
(0.203797 0.00202461 0)
(0.203693 0.00181098 0)
(0.203573 0.00159627 0)
(0.203438 0.0013837 0)
(0.203287 0.00117725 0)
(0.20312 0.000981268 0)
(0.20294 0.000799856 0)
(0.20275 0.000636185 0)
(0.202554 0.000492102 0)
(0.202355 0.000368067 0)
(0.202158 0.000263359 0)
(0.201965 0.00017646 0)
(0.201778 0.000105393 0)
(0.201598 4.80335e-05 0)
(0.201426 2.37459e-06 0)
(0.201263 -3.33668e-05 0)
(0.201109 -6.07958e-05 0)
(0.200964 -8.13172e-05 0)
(0.20083 -9.61138e-05 0)
(0.200705 -0.00010616 0)
(0.200589 -0.000112245 0)
(0.200483 -0.000115014 0)
(0.200385 -0.000114997 0)
(0.200297 -0.00011265 0)
(0.200216 -0.000108372 0)
(0.200143 -0.000102529 0)
(0.200077 -9.54628e-05 0)
(0.200018 -8.75005e-05 0)
(0.199965 -7.89518e-05 0)
(0.199918 -7.01084e-05 0)
(0.199877 -6.12384e-05 0)
(0.199839 -5.25802e-05 0)
(0.199806 -4.4337e-05 0)
(0.199777 -3.66717e-05 0)
(0.19975 -2.97045e-05 0)
(0.199727 -2.35125e-05 0)
(0.199705 -1.81319e-05 0)
(0.199686 -1.35618e-05 0)
(0.199669 -9.77024e-06 0)
(0.199653 -6.70075e-06 0)
(0.199639 -4.27971e-06 0)
(0.199626 -2.42336e-06 0)
(0.199614 -1.04472e-06 0)
(0.199603 -5.89012e-08 0)
(0.199592 6.1336e-07 0)
(0.199583 1.04306e-06 0)
(0.199575 1.29136e-06 0)
(0.199567 1.40905e-06 0)
(0.19956 1.43675e-06 0)
(0.199553 1.40594e-06 0)
(0.199547 1.34027e-06 0)
(0.199542 1.25695e-06 0)
(0.199537 1.16798e-06 0)
(0.199532 1.08139e-06 0)
(0.199528 1.00232e-06 0)
(0.199524 9.33793e-07 0)
(0.199521 8.77523e-07 0)
(0.199518 8.34312e-07 0)
(0.199515 8.04523e-07 0)
(0.199513 7.88316e-07 0)
(0.199511 7.8592e-07 0)
(0.199508 7.97914e-07 0)
(0.199507 8.25449e-07 0)
(0.199505 8.70628e-07 0)
(0.199503 9.37343e-07 0)
(0.199502 1.0278e-06 0)
(0.197911 0.00608955 0)
(0.198343 0.00661172 0)
(0.19885 0.00703413 0)
(0.199404 0.0073456 0)
(0.19998 0.00754868 0)
(0.200553 0.0076517 0)
(0.201104 0.00766498 0)
(0.201621 0.00760036 0)
(0.202092 0.00747118 0)
(0.202513 0.00729139 0)
(0.202879 0.00707456 0)
(0.203192 0.00683305 0)
(0.203454 0.00657758 0)
(0.20367 0.00631689 0)
(0.203844 0.00605766 0)
(0.203984 0.00580454 0)
(0.204094 0.00556046 0)
(0.20418 0.00532684 0)
(0.204246 0.00510401 0)
(0.204298 0.00489147 0)
(0.204337 0.00468819 0)
(0.204367 0.00449285 0)
(0.204389 0.00430395 0)
(0.204404 0.00411996 0)
(0.204414 0.00393938 0)
(0.204419 0.00376079 0)
(0.204419 0.00358286 0)
(0.204415 0.00340434 0)
(0.204405 0.00322411 0)
(0.204389 0.00304119 0)
(0.204367 0.00285472 0)
(0.204337 0.00266408 0)
(0.204298 0.00246894 0)
(0.204248 0.00226938 0)
(0.204186 0.00206604 0)
(0.204109 0.00186022 0)
(0.204016 0.001654 0)
(0.203906 0.00145024 0)
(0.203778 0.00125239 0)
(0.203634 0.00106417 0)
(0.203474 0.000889091 0)
(0.203301 0.000729915 0)
(0.20312 0.000588344 0)
(0.202933 0.000464931 0)
(0.202745 0.000359225 0)
(0.202558 0.000270052 0)
(0.202374 0.00019581 0)
(0.202195 0.000134713 0)
(0.202022 8.49634e-05 0)
(0.201857 4.48421e-05 0)
(0.201699 1.28335e-05 0)
(0.201548 -1.23504e-05 0)
(0.201407 -3.18037e-05 0)
(0.201273 -4.64363e-05 0)
(0.201148 -5.70019e-05 0)
(0.201031 -6.41185e-05 0)
(0.200922 -6.82997e-05 0)
(0.200822 -6.99829e-05 0)
(0.200729 -6.95534e-05 0)
(0.200644 -6.73622e-05 0)
(0.200566 -6.37384e-05 0)
(0.200495 -5.89964e-05 0)
(0.20043 -5.34373e-05 0)
(0.200372 -4.73469e-05 0)
(0.20032 -4.09913e-05 0)
(0.200273 -3.46105e-05 0)
(0.200231 -2.84133e-05 0)
(0.200194 -2.25718e-05 0)
(0.200161 -1.72188e-05 0)
(0.200131 -1.24464e-05 0)
(0.200104 -8.30803e-06 0)
(0.200081 -4.82081e-06 0)
(0.200059 -1.97154e-06 0)
(0.20004 2.77595e-07 0)
(0.200023 1.98259e-06 0)
(0.200008 3.21124e-06 0)
(0.199994 4.03659e-06 0)
(0.199982 4.53156e-06 0)
(0.19997 4.7654e-06 0)
(0.19996 4.80098e-06 0)
(0.19995 4.69302e-06 0)
(0.199942 4.48728e-06 0)
(0.199934 4.22065e-06 0)
(0.199927 3.92177e-06 0)
(0.199921 3.61191e-06 0)
(0.199915 3.30623e-06 0)
(0.199909 3.015e-06 0)
(0.199905 2.74473e-06 0)
(0.1999 2.49917e-06 0)
(0.199896 2.28011e-06 0)
(0.199893 2.08809e-06 0)
(0.19989 1.9228e-06 0)
(0.199887 1.78353e-06 0)
(0.199884 1.66944e-06 0)
(0.199882 1.57974e-06 0)
(0.199879 1.51392e-06 0)
(0.199877 1.47183e-06 0)
(0.199876 1.45361e-06 0)
(0.199874 1.4591e-06 0)
(0.199872 1.4794e-06 0)
(0.198242 0.00585196 0)
(0.19862 0.00631033 0)
(0.199059 0.00669034 0)
(0.199544 0.00698025 0)
(0.200053 0.00717858 0)
(0.200565 0.00728983 0)
(0.201063 0.00732146 0)
(0.201534 0.0072828 0)
(0.201969 0.00718463 0)
(0.202363 0.0070385 0)
(0.20271 0.00685589 0)
(0.203012 0.00664751 0)
(0.203269 0.00642282 0)
(0.203485 0.00618974 0)
(0.203663 0.00595453 0)
(0.20381 0.00572177 0)
(0.203929 0.00549452 0)
(0.204025 0.00527457 0)
(0.204103 0.00506267 0)
(0.204165 0.00485878 0)
(0.204216 0.00466234 0)
(0.204256 0.00447241 0)
(0.204289 0.00428788 0)
(0.204316 0.00410751 0)
(0.204337 0.00393008 0)
(0.204353 0.00375437 0)
(0.204364 0.00357923 0)
(0.20437 0.0034036 0)
(0.204371 0.0032265 0)
(0.204367 0.00304709 0)
(0.204355 0.00286468 0)
(0.204336 0.00267877 0)
(0.204308 0.00248916 0)
(0.20427 0.00229604 0)
(0.204218 0.00210006 0)
(0.204153 0.00190247 0)
(0.204072 0.00170513 0)
(0.203974 0.00151056 0)
(0.203859 0.00132171 0)
(0.203727 0.00114174 0)
(0.203581 0.000973638 0)
(0.203422 0.000819777 0)
(0.203253 0.000681692 0)
(0.203077 0.000559973 0)
(0.202899 0.000454362 0)
(0.202719 0.000363956 0)
(0.202542 0.000287442 0)
(0.202368 0.000223299 0)
(0.202198 0.000169959 0)
(0.202035 0.000125918 0)
(0.201878 8.98011e-05 0)
(0.201728 6.03875e-05 0)
(0.201585 3.66342e-05 0)
(0.20145 1.76779e-05 0)
(0.201322 2.81526e-06 0)
(0.201203 -8.53649e-06 0)
(0.20109 -1.6864e-05 0)
(0.200986 -2.2582e-05 0)
(0.200889 -2.60552e-05 0)
(0.200799 -2.76183e-05 0)
(0.200717 -2.75846e-05 0)
(0.200642 -2.6253e-05 0)
(0.200573 -2.39106e-05 0)
(0.200511 -2.08312e-05 0)
(0.200454 -1.72712e-05 0)
(0.200404 -1.34646e-05 0)
(0.200358 -9.61767e-06 0)
(0.200317 -5.90437e-06 0)
(0.200281 -2.46304e-06 0)
(0.200249 6.04939e-07 0)
(0.20022 3.23428e-06 0)
(0.200194 5.39321e-06 0)
(0.200171 7.07909e-06 0)
(0.200151 8.31264e-06 0)
(0.200133 9.13228e-06 0)
(0.200117 9.58834e-06 0)
(0.200102 9.73788e-06 0)
(0.200089 9.63999e-06 0)
(0.200077 9.35176e-06 0)
(0.200066 8.92548e-06 0)
(0.200056 8.4068e-06 0)
(0.200047 7.83401e-06 0)
(0.200039 7.23784e-06 0)
(0.200032 6.64197e-06 0)
(0.200026 6.06375e-06 0)
(0.20002 5.51519e-06 0)
(0.200014 5.00404e-06 0)
(0.200009 4.5347e-06 0)
(0.200005 4.10912e-06 0)
(0.200001 3.72755e-06 0)
(0.199997 3.38909e-06 0)
(0.199994 3.09214e-06 0)
(0.199991 2.83481e-06 0)
(0.199988 2.6151e-06 0)
(0.199986 2.43109e-06 0)
(0.199983 2.28111e-06 0)
(0.199981 2.16366e-06 0)
(0.19998 2.07704e-06 0)
(0.199978 2.01785e-06 0)
(0.199976 1.97165e-06 0)
(0.198533 0.00563365 0)
(0.198867 0.00603738 0)
(0.19925 0.00637864 0)
(0.199675 0.00664652 0)
(0.200124 0.00683741 0)
(0.200581 0.0069531 0)
(0.201029 0.00699865 0)
(0.201458 0.00698119 0)
(0.201858 0.0069093 0)
(0.202224 0.00679242 0)
(0.202552 0.00664014 0)
(0.20284 0.00646164 0)
(0.203089 0.00626518 0)
(0.203302 0.00605787 0)
(0.203481 0.00584546 0)
(0.203631 0.00563236 0)
(0.203755 0.00542171 0)
(0.203857 0.0052155 0)
(0.203941 0.00501481 0)
(0.20401 0.00481997 0)
(0.204067 0.00463082 0)
(0.204114 0.00444677 0)
(0.204152 0.00426704 0)
(0.204184 0.0040907 0)
(0.204209 0.00391677 0)
(0.204229 0.00374425 0)
(0.204244 0.00357219 0)
(0.204254 0.0033997 0)
(0.204259 0.00322596 0)
(0.204257 0.00305029 0)
(0.204249 0.00287212 0)
(0.204233 0.00269111 0)
(0.204208 0.00250717 0)
(0.204173 0.00232055 0)
(0.204125 0.00213193 0)
(0.204064 0.00194246 0)
(0.203989 0.00175383 0)
(0.203898 0.00156821 0)
(0.203791 0.00138813 0)
(0.203668 0.00121627 0)
(0.203532 0.00105514 0)
(0.203383 0.000906777 0)
(0.203225 0.000772549 0)
(0.20306 0.00065304 0)
(0.202891 0.000548126 0)
(0.202721 0.000457121 0)
(0.202551 0.000378951 0)
(0.202383 0.00031233 0)
(0.202219 0.000255902 0)
(0.20206 0.000208331 0)
(0.201907 0.000168377 0)
(0.20176 0.000134934 0)
(0.20162 0.000107053 0)
(0.201486 8.39303e-05 0)
(0.20136 6.48974e-05 0)
(0.201241 4.94004e-05 0)
(0.201129 3.69784e-05 0)
(0.201025 2.72388e-05 0)
(0.200928 1.9838e-05 0)
(0.200838 1.44653e-05 0)
(0.200755 1.08295e-05 0)
(0.200679 8.65127e-06 0)
(0.200609 7.66144e-06 0)