/*--------------------------------*- C++ -*----------------------------------*\
| =========                 |                                                 |
| \\      /  F ield         | OpenFOAM: The Open Source CFD Toolbox           |
|  \\    /   O peration     | Version:  2.3.0                                 |
|   \\  /    A nd           | Web:      www.OpenFOAM.org                      |
|    \\/     M anipulation  |                                                 |
\*---------------------------------------------------------------------------*/
FoamFile
{
    version     2.0;
    format      ascii;
    class       surfaceScalarField;
    location    "0.45";
    object      phi;
}
// * * * * * * * * * * * * * * * * * * * * * * * * * * * * * * * * * * * * * //

dimensions      [0 3 -1 0 0 0 0];

internalField   nonuniform List<scalar> 
6068
(
2.91061e-08
2.73898e-09
-3.1845e-08
2.56779e-08
3.42817e-09
2.22622e-08
3.41573e-09
1.90935e-08
3.16862e-09
1.62061e-08
2.88744e-09
1.36718e-08
2.5343e-09
1.15796e-08
2.09222e-09
9.94893e-09
1.63065e-09
8.7476e-09
1.20133e-09
7.89502e-09
8.5258e-10
7.29646e-09
5.98559e-10
6.86934e-09
4.27122e-10
6.55163e-09
3.17705e-10
6.30031e-09
2.5132e-10
6.08675e-09
2.13556e-10
5.89421e-09
1.92545e-10
5.71447e-09
1.7974e-10
5.54436e-09
1.7011e-10
5.38311e-09
1.6125e-10
5.23079e-09
1.52319e-10
5.08755e-09
1.4324e-10
4.95333e-09
1.34226e-10
4.82779e-09
1.2553e-10
4.71045e-09
1.1735e-10
4.60065e-09
1.09798e-10
4.49773e-09
1.02919e-10
4.40103e-09
9.66949e-11
4.30996e-09
9.10766e-11
4.22396e-09
8.59947e-11
4.14258e-09
8.13825e-11
4.0654e-09
7.7177e-11
3.99207e-09
7.33275e-11
3.92229e-09
6.97854e-11
3.85578e-09
6.65115e-11
3.79231e-09
6.34678e-11
3.73168e-09
6.06289e-11
3.67371e-09
5.79713e-11
3.61823e-09
5.54801e-11
3.56509e-09
5.31382e-11
3.51416e-09
5.09333e-11
3.46531e-09
4.88505e-11
3.41843e-09
4.68807e-11
3.37341e-09
4.50139e-11
3.33017e-09
4.32431e-11
3.28861e-09
4.156e-11
3.24865e-09
3.99584e-11
3.21022e-09
3.84293e-11
3.17325e-09
3.69689e-11
3.13768e-09
3.55693e-11
3.10345e-09
3.4232e-11
3.07051e-09
3.29447e-11
3.03879e-09
3.1715e-11
3.00827e-09
3.05226e-11
2.97889e-09
2.93842e-11
2.95062e-09
2.82691e-11
2.92341e-09
2.72066e-11
2.89726e-09
2.61545e-11
2.8721e-09
2.51558e-11
2.84794e-09
2.4158e-11
2.82473e-09
2.32148e-11
2.80246e-09
2.22674e-11
2.78109e-09
2.13698e-11
2.76062e-09
2.04674e-11
2.74102e-09
1.96048e-11
2.72228e-09
1.87392e-11
2.70438e-09
1.78976e-11
2.68732e-09
1.70616e-11
2.67108e-09
1.62411e-11
2.65565e-09
1.54305e-11
2.64101e-09
1.46332e-11
2.62718e-09
1.38358e-11
2.61411e-09
1.30674e-11
2.60183e-09
1.22785e-11
2.59029e-09
1.15411e-11
2.57954e-09
1.07491e-11
2.56951e-09
1.00285e-11
2.56027e-09
9.24108e-12
2.55175e-09
8.52734e-12
2.54399e-09
7.75865e-12
2.53693e-09
7.0531e-12
2.53061e-09
6.32188e-12
2.52497e-09
5.64662e-12
2.52004e-09
4.92932e-12
2.51575e-09
4.28359e-12
2.5122e-09
3.54799e-12
2.50924e-09
2.96806e-12
2.50696e-09
2.27418e-12
2.50515e-09
1.80923e-12
2.50395e-09
1.19874e-12
2.50312e-09
8.31024e-13
2.50282e-09
3.00036e-13
2.50274e-09
8.55906e-14
2.50303e-09
-2.90418e-13
2.50326e-09
-2.29677e-13
2.50368e-09
-4.26025e-13
2.50379e-09
-1.02474e-13
2.50395e-09
-1.66587e-13
2.50364e-09
3.14204e-13
2.50335e-09
2.85931e-13
9.23376e-13
3.435e-08
2.45584e-09
-3.40668e-08
3.41843e-08
3.59378e-09
3.35053e-08
4.09481e-09
3.25406e-08
4.13329e-09
3.14049e-08
4.02315e-09
3.01266e-08
3.81262e-09
2.8735e-08
3.48379e-09
2.73035e-08
3.06214e-09
2.59041e-08
2.60079e-09
2.45888e-08
2.16787e-09
2.33809e-08
1.8064e-09
2.22835e-08
1.52459e-09
2.12922e-08
1.309e-09
2.04024e-08
1.14107e-09
1.96036e-08
1.01234e-09
1.88842e-08
9.1194e-10
1.82332e-08
8.30797e-10
1.76407e-08
7.62586e-10
1.70986e-08
7.03378e-10
1.66e-08
6.50887e-10
1.61394e-08
6.03802e-10
1.57123e-08
5.61355e-10
1.53148e-08
5.23034e-10
1.49437e-08
4.88449e-10
1.45962e-08
4.5726e-10
1.427e-08
4.29142e-10
1.3963e-08
4.03765e-10
1.36732e-08
3.80809e-10
1.33992e-08
3.59969e-10
1.31397e-08
3.40975e-10
1.28932e-08
3.2359e-10
1.26589e-08
3.0762e-10
1.24358e-08
2.92887e-10
1.22231e-08
2.79246e-10
1.202e-08
2.6656e-10
1.18259e-08
2.54727e-10
1.16402e-08
2.43656e-10
1.14624e-08
2.33278e-10
1.12921e-08
2.23526e-10
1.11286e-08
2.14344e-10
1.09718e-08
2.05675e-10
1.08212e-08
1.97477e-10
1.06765e-08
1.8971e-10
1.05374e-08
1.82341e-10
1.04036e-08
1.75336e-10
1.02749e-08
1.68666e-10
1.01511e-08
1.62299e-10
1.00318e-08
1.56215e-10
9.91701e-09
1.50388e-10
9.80643e-09
1.44808e-10
9.69994e-09
1.39441e-10
9.59736e-09
1.34295e-10
9.49856e-09
1.29318e-10
9.40341e-09
1.24538e-10
9.31179e-09
1.19883e-10
9.22359e-09
1.1541e-10
9.13872e-09
1.11022e-10
9.05707e-09
1.06808e-10
8.97858e-09
1.02648e-10
8.90314e-09
9.86542e-11
8.83071e-09
9.46936e-11
8.7612e-09
9.08814e-11
8.69457e-09
8.70929e-11
8.63076e-09
8.34221e-11
8.56972e-09
7.97737e-11
8.51142e-09
7.62023e-11
8.45581e-09
7.26689e-11
8.40287e-09
6.9187e-11
8.35254e-09
6.57511e-11
8.30482e-09
6.23553e-11
8.25967e-09
5.89838e-11
8.21706e-09
5.5681e-11
8.17698e-09
5.23575e-11
8.13938e-09
4.91477e-11
8.10428e-09
4.58441e-11
8.07161e-09
4.26992e-11
8.04141e-09
3.94373e-11
8.0136e-09
3.63442e-11
7.98819e-09
3.31673e-11
7.9651e-09
3.01412e-11
7.94432e-09
2.71063e-11
7.92575e-09
2.4208e-11
7.9094e-09
2.12842e-11
7.89514e-09
1.85404e-11
7.88299e-09
1.56966e-11
7.87273e-09
1.32339e-11
7.86436e-09
1.06431e-11
7.85756e-09
8.61213e-12
7.85234e-09
6.41055e-12
7.84835e-09
4.8292e-12
7.84557e-09
3.0755e-12
7.84353e-09
2.12372e-12
7.84225e-09
9.89907e-13
7.84111e-09
9.15494e-13
7.84024e-09
4.3665e-13
7.83901e-09
1.13427e-12
7.83773e-09
1.10682e-12
7.83578e-09
2.26592e-12
7.8337e-09
2.37014e-12
3.88699e-12
3.58525e-08
2.32425e-09
-3.57209e-08
3.6239e-08
3.20727e-09
3.64719e-08
3.86191e-09
3.65203e-08
4.08493e-09
3.6449e-08
4.09446e-09
3.62576e-08
4.00401e-09
3.59195e-08
3.82186e-09
3.54388e-08
3.54286e-09
3.48442e-08
3.19536e-09
3.41769e-08
2.83522e-09
3.3472e-08
2.51129e-09
3.27524e-08
2.24423e-09
3.20313e-08
2.03007e-09
3.13161e-08
1.85623e-09
3.06141e-08
1.71441e-09
2.99293e-08
1.59668e-09
2.92641e-08
1.496e-09
2.86196e-08
1.40711e-09
2.79964e-08
1.32659e-09
2.73949e-08
1.25243e-09
2.68152e-08
1.1835e-09
2.62573e-08
1.11922e-09
2.57211e-08
1.05924e-09
2.52062e-08
1.0033e-09
2.47123e-08
9.51234e-10
2.42386e-08
9.02841e-10
2.37844e-08
8.57886e-10
2.33491e-08
8.16126e-10
2.29318e-08
7.77292e-10
2.25316e-08
7.41138e-10
2.21478e-08
7.07422e-10
2.17795e-08
6.75941e-10
2.14259e-08
6.4649e-10
2.10862e-08
6.18894e-10
2.07598e-08
5.92974e-10
2.0446e-08
5.68589e-10
2.0144e-08
5.45604e-10
1.98534e-08
5.23914e-10
1.95735e-08
5.03408e-10
1.93038e-08
4.83995e-10
1.90439e-08
4.65578e-10
1.87933e-08
4.48082e-10
1.85516e-08
4.31432e-10
1.83184e-08
4.15569e-10
1.80933e-08
4.00431e-10
1.7876e-08
3.85963e-10
1.76662e-08
3.72109e-10
1.74636e-08
3.58825e-10
1.72679e-08
3.46064e-10
1.70789e-08
3.33801e-10
1.68964e-08
3.21979e-10
1.67201e-08
3.10598e-10
1.65498e-08
2.99576e-10
1.63854e-08
2.88946e-10
1.62267e-08
2.78593e-10
1.60735e-08
2.68596e-10
1.59257e-08
2.58802e-10
1.57832e-08
2.4934e-10
1.56458e-08
2.40023e-10
1.55135e-08
2.31013e-10
1.5386e-08
2.2211e-10
1.52634e-08
2.13473e-10
1.51456e-08
2.04924e-10
1.50325e-08
1.96577e-10
1.49239e-08
1.88316e-10
1.48199e-08
1.80182e-10
1.47205e-08
1.72156e-10
1.46254e-08
1.64207e-10
1.45348e-08
1.56378e-10
1.44486e-08
1.486e-10
1.43666e-08
1.40907e-10
1.4289e-08
1.33304e-10
1.42157e-08
1.25718e-10
1.41465e-08
1.18288e-10
1.40816e-08
1.10765e-10
1.40208e-08
1.03464e-10
1.39642e-08
9.60509e-11
1.39117e-08
8.88672e-11
1.38632e-08
8.16478e-11
1.38187e-08
7.46238e-11
1.37781e-08
6.77118e-11
1.37414e-08
6.09717e-11
1.37083e-08
5.43502e-11
1.36789e-08
4.79748e-11
1.36529e-08
4.16416e-11
1.36303e-08
3.58816e-11
1.36107e-08
3.01733e-11
1.3594e-08
2.53228e-11
1.35799e-08
2.05159e-11
1.35681e-08
1.66559e-11
1.35583e-08
1.28994e-11
1.355e-08
1.03554e-11
1.35431e-08
7.93683e-12
1.35369e-08
7.08457e-12
1.35313e-08
6.03461e-12
1.35258e-08
6.64912e-12
1.35204e-08
6.55379e-12
1.35145e-08
8.08262e-12
1.35086e-08
8.30404e-12
1.04298e-11
3.73887e-08
2.27376e-09
-3.73382e-08
3.76793e-08
2.91667e-09
3.80278e-08
3.51341e-09
3.82964e-08
3.8164e-09
3.85025e-08
3.88837e-09
3.86615e-08
3.84494e-09
3.87529e-08
3.73053e-09
3.87527e-08
3.54305e-09
3.86544e-08
3.29358e-09
3.84725e-08
3.0172e-09
3.82291e-08
2.75466e-09
3.79435e-08
2.5298e-09
3.7627e-08
2.3466e-09
3.72854e-08
2.1978e-09
3.69247e-08
2.07513e-09
3.65495e-08
1.97192e-09
3.61628e-08
1.88267e-09
3.57668e-08
1.80309e-09
3.53632e-08
1.73017e-09
3.49536e-08
1.66203e-09
3.45395e-08
1.59756e-09
3.41226e-08
1.5362e-09
3.37042e-08
1.47762e-09
3.32858e-08
1.4217e-09
3.28687e-08
1.36834e-09
3.2454e-08
1.31749e-09
3.20429e-08
1.26904e-09
3.16361e-08
1.22288e-09
3.12345e-08
1.17889e-09
3.08387e-08
1.13692e-09
3.04493e-08
1.09685e-09
3.00667e-08
1.05858e-09
2.96912e-08
1.02197e-09
2.93231e-08
9.86934e-10
2.89628e-08
9.53363e-10
2.86102e-08
9.21179e-10
2.82655e-08
8.90299e-10
2.79287e-08
8.60666e-10
2.75999e-08
8.32207e-10
2.72791e-08
8.0486e-10
2.69661e-08
7.78556e-10
2.66609e-08
7.53235e-10
2.63635e-08
7.28842e-10
2.60738e-08
7.05323e-10
2.57916e-08
6.82638e-10
2.55168e-08
6.60731e-10
2.52493e-08
6.3956e-10
2.49891e-08
6.19078e-10
2.47359e-08
5.99245e-10
2.44897e-08
5.80029e-10
2.42503e-08
5.61374e-10
2.40176e-08
5.43276e-10
2.37915e-08
5.25644e-10
2.3572e-08
5.08515e-10
2.33588e-08
4.91754e-10
2.31519e-08
4.75456e-10
2.29513e-08
4.59438e-10
2.27568e-08
4.43851e-10
2.25683e-08
4.28472e-10
2.23859e-08
4.13486e-10
2.22093e-08
3.98662e-10
2.20386e-08
3.8417e-10
2.18737e-08
3.69822e-10
2.17146e-08
3.55709e-10
2.15612e-08
3.41745e-10
2.14134e-08
3.27905e-10
2.12713e-08
3.14255e-10
2.11349e-08
3.00648e-10
2.1004e-08
2.87257e-10
2.08788e-08
2.73864e-10
2.0759e-08
2.60642e-10
2.06449e-08
2.47468e-10
2.05362e-08
2.34382e-10
2.04331e-08
2.21428e-10
2.03354e-08
2.08427e-10
2.02432e-08
1.95638e-10
2.01565e-08
1.82805e-10
2.00752e-08
1.70172e-10
1.99992e-08
1.57641e-10
1.99285e-08
1.45242e-10
1.98631e-08
1.33201e-10
1.98028e-08
1.21245e-10
1.97474e-08
1.09708e-10
1.96971e-08
9.83436e-11
1.96513e-08
8.73512e-11
1.96103e-08
7.697e-11
1.95734e-08
6.70602e-11
1.95406e-08
5.81241e-11
1.95113e-08
4.97429e-11
1.94856e-08
4.23908e-11
1.94627e-08
3.57768e-11
1.94426e-08
3.04747e-11
1.94245e-08
2.60519e-11
1.94083e-08
2.3331e-11
1.93931e-08
2.11568e-11
1.93791e-08
2.07064e-11
1.93655e-08
2.01605e-11
1.93523e-08
2.12116e-11
1.93393e-08
2.13501e-11
2.32646e-11
3.898e-08
2.22388e-09
-3.89302e-08
3.91797e-08
2.71699e-09
3.94869e-08
3.20623e-09
3.97756e-08
3.5277e-09
4.00173e-08
3.64665e-09
4.02288e-08
3.63344e-09
4.04111e-08
3.54826e-09
4.05466e-08
3.40752e-09
4.0621e-08
3.21917e-09
4.06348e-08
3.00349e-09
4.06005e-08
2.78893e-09
4.05323e-08
2.59802e-09
4.0439e-08
2.43987e-09
4.03252e-08
2.31161e-09
4.0194e-08
2.20632e-09
4.0048e-08
2.11798e-09
3.98886e-08
2.04198e-09
3.97169e-08
1.97481e-09
3.95332e-08
1.91385e-09
3.9338e-08
1.8573e-09
3.91315e-08
1.804e-09
3.89145e-08
1.75325e-09
3.86875e-08
1.70464e-09
3.84512e-08
1.65795e-09
3.82065e-08
1.61303e-09
3.79542e-08
1.56979e-09
3.76951e-08
1.52812e-09
3.74301e-08
1.48794e-09
3.71599e-08
1.44912e-09
3.68852e-08
1.41158e-09
3.66069e-08
1.37521e-09
3.63255e-08
1.33993e-09
3.60418e-08
1.30565e-09
3.57565e-08
1.27231e-09
3.547e-08
1.23982e-09
3.5183e-08
1.20816e-09
3.48961e-08
1.17726e-09
3.46096e-08
1.14712e-09
3.43241e-08
1.1177e-09
3.404e-08
1.08898e-09
3.37576e-08
1.06093e-09
3.34773e-08
1.03351e-09
3.31995e-08
1.0067e-09
3.29243e-08
9.80459e-10
3.26522e-08
9.54774e-10
3.23833e-08
9.29596e-10
3.2118e-08
9.04937e-10
3.18563e-08
8.80751e-10
3.15985e-08
8.57055e-10
3.13447e-08
8.33809e-10
3.10951e-08
8.11003e-10
3.08497e-08
7.8861e-10
3.06088e-08
7.66574e-10
3.03724e-08
7.4491e-10
3.01407e-08
7.23517e-10
2.99136e-08
7.02478e-10
2.96914e-08
6.81641e-10
2.94741e-08
6.61152e-10
2.92618e-08
6.40815e-10
2.90545e-08
6.208e-10
2.88522e-08
6.00902e-10
2.86552e-08
5.8125e-10
2.84633e-08
5.61716e-10
2.82767e-08
5.42305e-10
2.80954e-08
5.23042e-10
2.79195e-08
5.03766e-10
2.7749e-08
4.84723e-10
2.75841e-08
4.65561e-10
2.74247e-08
4.46692e-10
2.72709e-08
4.27639e-10
2.71227e-08
4.08841e-10
2.69803e-08
3.89914e-10
2.68435e-08
3.71164e-10
2.67125e-08
3.52378e-10
2.65873e-08
3.33633e-10
2.6468e-08
3.1494e-10
2.63545e-08
2.96342e-10
2.62469e-08
2.77748e-10
2.61451e-08
2.59491e-10
2.60492e-08
2.41105e-10
2.59589e-08
2.2346e-10
2.58746e-08
2.05584e-10
2.57957e-08
1.88615e-10
2.57226e-08
1.71477e-10
2.56546e-08
1.55284e-10
2.55922e-08
1.39421e-10
2.55345e-08
1.24755e-10
2.54818e-08
1.10784e-10
2.54333e-08
9.82596e-11
2.53893e-08
8.63587e-11
2.53488e-08
7.63054e-11
2.53122e-08
6.70768e-11
2.52782e-08
6.00669e-11
2.52473e-08
5.42145e-11
2.52181e-08
5.03571e-11
2.51913e-08
4.75222e-11
2.51654e-08
4.60584e-11
2.51413e-08
4.53142e-11
2.51175e-08
4.51245e-11
4.5528e-11
4.05991e-08
2.16384e-09
-4.05391e-08
4.07523e-08
2.56382e-09
4.10025e-08
2.95601e-09
4.127e-08
3.26019e-09
4.15073e-08
3.40939e-09
4.17131e-08
3.42757e-09
4.18956e-08
3.36581e-09
4.20486e-08
3.25448e-09
4.21616e-08
3.10623e-09
4.22311e-08
2.93393e-09
4.22639e-08
2.75615e-09
4.22706e-08
2.59134e-09
4.22598e-08
2.45064e-09
4.22364e-08
2.33505e-09
4.22027e-08
2.23994e-09
4.21606e-08
2.16016e-09
4.21109e-08
2.09169e-09
4.20541e-08
2.03161e-09
4.19902e-08
1.97773e-09
4.1919e-08
1.92845e-09
4.18404e-08
1.88266e-09
4.1754e-08
1.8396e-09
4.16599e-08
1.79878e-09
4.15579e-08
1.75987e-09
4.14483e-08
1.72266e-09
4.13311e-08
1.68697e-09
4.12066e-08
1.65267e-09
4.10749e-08
1.61963e-09
4.09363e-08
1.58771e-09
4.07911e-08
1.5568e-09
4.06395e-08
1.52678e-09
4.04819e-08
1.49756e-09
4.03185e-08
1.46903e-09
4.01497e-08
1.44111e-09
3.99758e-08
1.41371e-09
3.97972e-08
1.38677e-09
3.96142e-08
1.36024e-09
3.94272e-08
1.33409e-09
3.92366e-08
1.3083e-09
3.90428e-08
1.28285e-09
3.8846e-08
1.25773e-09
3.86466e-08
1.2329e-09
3.84449e-08
1.20837e-09
3.82413e-08
1.18405e-09
3.80361e-08
1.15998e-09
3.78297e-08
1.13603e-09
3.76223e-08
1.11229e-09
3.74144e-08
1.08866e-09
3.72062e-08
1.06524e-09
3.69981e-08
1.04195e-09
3.67902e-08
1.01888e-09
3.65829e-08
9.95938e-10
3.63763e-08
9.73154e-10
3.61708e-08
9.50437e-10
3.59665e-08
9.2778e-10
3.57638e-08
9.05159e-10
3.55629e-08
8.82538e-10
3.53641e-08
8.59979e-10
3.51675e-08
8.37412e-10
3.49734e-08
8.14931e-10
3.47818e-08
7.92442e-10
3.45931e-08
7.69964e-10
3.44073e-08
7.47481e-10
3.42248e-08
7.24851e-10
3.40456e-08
7.02265e-10
3.387e-08
6.79367e-10
3.3698e-08
6.56666e-10
3.35301e-08
6.33532e-10
3.3366e-08
6.10724e-10
3.32063e-08
5.87379e-10
3.30508e-08
5.64376e-10
3.28998e-08
5.40875e-10
3.27533e-08
5.17671e-10
3.26116e-08
4.94037e-10
3.24747e-08
4.70577e-10
3.23428e-08
4.4678e-10
3.22159e-08
4.23294e-10
3.20942e-08
3.99398e-10
3.19776e-08
3.76177e-10
3.18663e-08
3.52324e-10
3.17601e-08
3.29723e-10
3.16594e-08
3.06245e-10
3.15637e-08
2.84334e-10
3.14737e-08
2.61521e-10
3.13884e-08
2.40539e-10
3.13086e-08
2.19182e-10
3.12333e-08
2.00135e-10
3.11631e-08
1.80934e-10
3.10969e-08
1.64452e-10
3.10358e-08
1.47494e-10
3.09781e-08
1.33999e-10
3.09251e-08
1.20118e-10
3.08747e-08
1.10462e-10
3.08283e-08
1.00583e-10
3.07837e-08
9.48965e-11
3.07427e-08
8.85372e-11
3.07029e-08
8.59056e-11
3.06662e-08
8.20316e-11
3.06299e-08
8.13462e-11
7.89143e-11
4.22518e-08
2.09802e-09
-4.2186e-08
4.23814e-08
2.43426e-09
4.25836e-08
2.75373e-09
4.28197e-08
3.02413e-09
4.30438e-08
3.18529e-09
4.32399e-08
3.23146e-09
4.34109e-08
3.19486e-09
4.35571e-08
3.10822e-09
4.36735e-08
2.98984e-09
4.37565e-08
2.85089e-09
4.3809e-08
2.70367e-09
4.38385e-08
2.56187e-09
4.38531e-08
2.4361e-09
4.38581e-08
2.33003e-09
4.38564e-08
2.24161e-09
4.38496e-08
2.16692e-09
4.38388e-08
2.10252e-09
4.38245e-08
2.04589e-09
4.3807e-08
1.99523e-09
4.37862e-08
1.94922e-09
4.3762e-08
1.90688e-09
4.37341e-08
1.8675e-09
4.37023e-08
1.83057e-09
4.36665e-08
1.79573e-09
4.36264e-08
1.76272e-09
4.35821e-08
1.73133e-09
4.35333e-08
1.70141e-09
4.34801e-08
1.67281e-09
4.34225e-08
1.64537e-09
4.33603e-08
1.61898e-09
4.32936e-08
1.59351e-09
4.32223e-08
1.56884e-09
4.31464e-08
1.54488e-09
4.3066e-08
1.5215e-09
4.29811e-08
1.49862e-09
4.28918e-08
1.47614e-09
4.2798e-08
1.454e-09
4.27e-08
1.43212e-09
4.25978e-08
1.41051e-09
4.24915e-08
1.38908e-09
4.23814e-08
1.36788e-09
4.22675e-08
1.34682e-09
4.21499e-08
1.32597e-09
4.20287e-08
1.30516e-09
4.19042e-08
1.28449e-09
4.17765e-08
1.26372e-09
4.16458e-08
1.24301e-09
4.15124e-08
1.2221e-09
4.13764e-08
1.20126e-09
4.12381e-08
1.18022e-09
4.10977e-08
1.15931e-09
4.09554e-08
1.13824e-09
4.08113e-08
1.11727e-09
4.06656e-08
1.09608e-09
4.05186e-08
1.07484e-09
4.03704e-08
1.0533e-09
4.02214e-08
1.03159e-09
4.00718e-08
1.00957e-09
3.99218e-08
9.87381e-10
3.97718e-08
9.64981e-10
3.96217e-08
9.42455e-10
3.9472e-08
9.19702e-10
3.93227e-08
8.96819e-10
3.9174e-08
8.735e-10
3.90262e-08
8.50066e-10
3.88796e-08
8.25949e-10
3.87343e-08
8.01951e-10
3.85908e-08
7.7711e-10
3.84489e-08
7.52637e-10
3.83091e-08
7.27109e-10
3.81714e-08
7.02072e-10
3.80363e-08
6.75995e-10
3.79035e-08
6.50464e-10
3.77737e-08
6.2389e-10
3.76465e-08
5.97689e-10
3.75228e-08
5.70534e-10
3.74021e-08
5.43945e-10
3.72852e-08
5.16342e-10
3.71716e-08
4.89818e-10
3.70619e-08
4.62021e-10
3.69554e-08
4.3615e-10
3.68532e-08
4.08457e-10
3.67545e-08
3.83088e-10
3.66605e-08
3.55528e-10
3.65701e-08
3.30949e-10
3.64843e-08
3.04903e-10
3.64017e-08
2.82788e-10
3.63234e-08
2.59228e-10
3.62479e-08
2.39909e-10
3.61772e-08
2.18264e-10
3.61092e-08
2.01908e-10
3.60461e-08
1.83281e-10
3.59851e-08
1.71454e-10
3.59283e-08
1.57422e-10
3.58728e-08
1.50386e-10
3.58211e-08
1.40213e-10
3.57704e-08
1.36568e-10
3.57236e-08
1.28904e-10
3.56773e-08
1.27648e-10
1.21601e-10
4.39467e-08
2.03143e-09
-4.38801e-08
4.40615e-08
2.31938e-09
4.42289e-08
2.58639e-09
4.44329e-08
2.82016e-09
4.46386e-08
2.97952e-09
4.48245e-08
3.0456e-09
4.49855e-08
3.03379e-09
4.51231e-08
2.9707e-09
4.5236e-08
2.87693e-09
4.53221e-08
2.76473e-09
4.53823e-08
2.64349e-09
4.54212e-08
2.52299e-09
4.54454e-08
2.41194e-09
4.54602e-08
2.31516e-09
4.54691e-08
2.23279e-09
4.54736e-08
2.16239e-09
4.5475e-08
2.10116e-09
4.54739e-08
2.04692e-09
4.5471e-08
1.99817e-09
4.54664e-08
1.95383e-09
4.54602e-08
1.9131e-09
4.54523e-08
1.87536e-09
4.54427e-08
1.84015e-09
4.54314e-08
1.80709e-09
4.54182e-08
1.77594e-09
4.5403e-08
1.74647e-09
4.53859e-08
1.71853e-09
4.53667e-08
1.69196e-09
4.53455e-08
1.66662e-09
4.53221e-08
1.64239e-09
4.52964e-08
1.61916e-09
4.52685e-08
1.59679e-09
4.52382e-08
1.57521e-09
4.52054e-08
1.55429e-09
4.517e-08
1.53396e-09
4.51321e-08
1.51407e-09
4.50915e-08
1.49462e-09
4.50482e-08
1.47543e-09
4.50021e-08
1.45656e-09
4.49533e-08
1.43785e-09
4.49018e-08
1.41944e-09
4.48475e-08
1.40111e-09
4.47904e-08
1.38308e-09
4.47305e-08
1.36504e-09
4.46677e-08
1.34725e-09
4.46022e-08
1.32925e-09
4.45338e-08
1.31139e-09
4.44628e-08
1.29313e-09
4.43891e-08
1.27499e-09
4.43129e-08
1.25639e-09
4.42342e-08
1.23799e-09
4.41533e-08
1.21919e-09
4.40699e-08
1.20062e-09
4.39844e-08
1.18163e-09
4.38965e-08
1.1627e-09
4.38066e-08
1.14321e-09
4.37147e-08
1.12354e-09
4.3621e-08
1.10327e-09
4.35256e-08
1.0827e-09
4.34289e-08
1.06171e-09
4.33309e-08
1.04048e-09
4.32317e-08
1.01892e-09
4.31314e-08
9.97139e-10
4.30301e-08
9.74801e-10
4.29279e-08
9.52215e-10
4.28252e-08
9.28633e-10
4.27221e-08
9.05118e-10
4.26188e-08
8.80352e-10
4.25153e-08
8.56126e-10
4.24122e-08
8.30205e-10
4.23093e-08
8.0505e-10
4.22071e-08
7.7817e-10
4.21052e-08
7.52295e-10
4.20044e-08
7.24702e-10
4.19044e-08
6.97761e-10
4.18057e-08
6.69204e-10
4.17082e-08
6.41416e-10
4.16126e-08
6.11984e-10
4.15185e-08
5.83918e-10
4.14266e-08
5.53906e-10
4.1336e-08
5.26723e-10
4.12477e-08
4.96756e-10
4.11607e-08
4.70072e-10
4.1077e-08
4.39309e-10
4.09953e-08
4.12583e-10
4.09173e-08
3.82911e-10
4.08409e-08
3.5918e-10
4.07673e-08
3.32883e-10
4.06946e-08
3.1256e-10
4.06252e-08
2.87652e-10
4.05576e-08
2.69523e-10
4.04943e-08
2.46623e-10
4.04326e-08
2.33147e-10
4.03745e-08
2.15464e-10
4.03171e-08
2.07782e-10
4.02627e-08
1.94652e-10
4.02087e-08
1.90527e-10
4.01581e-08
1.79551e-10
4.01079e-08
1.77832e-10
1.68142e-10
4.56901e-08
1.96669e-09
-4.56254e-08
4.57936e-08
2.2159e-09
4.59366e-08
2.44336e-09
4.6112e-08
2.64478e-09
4.62971e-08
2.7944e-09
4.64709e-08
2.87183e-09
4.66234e-08
2.88125e-09
4.67536e-08
2.84049e-09
4.68621e-08
2.76848e-09
4.69483e-08
2.6785e-09
4.70125e-08
2.57926e-09
4.70574e-08
2.47809e-09
4.70877e-08
2.38166e-09
4.71082e-08
2.2947e-09
4.71222e-08
2.21877e-09
4.71317e-08
2.15283e-09
4.7138e-08
2.0949e-09
4.71418e-08
2.04314e-09
4.71437e-08
1.99626e-09
4.71441e-08
1.95338e-09
4.71434e-08
1.91386e-09
4.71415e-08
1.87721e-09
4.71387e-08
1.84301e-09
4.71348e-08
1.81094e-09
4.713e-08
1.78073e-09
4.71243e-08
1.75218e-09
4.71177e-08
1.72514e-09
4.71102e-08
1.69945e-09
4.71019e-08
1.67499e-09
4.70926e-08
1.65163e-09
4.70825e-08
1.62931e-09
4.70714e-08
1.60785e-09
4.70594e-08
1.58724e-09
4.70464e-08
1.56731e-09
4.70323e-08
1.54805e-09
4.70171e-08
1.52926e-09
4.70007e-08
1.51101e-09
4.69831e-08
1.49303e-09
4.69642e-08
1.47547e-09
4.6944e-08
1.45804e-09
4.69224e-08
1.44103e-09
4.68995e-08
1.42403e-09
4.68751e-08
1.4075e-09
4.68492e-08
1.39088e-09
4.68217e-08
1.37474e-09
4.67927e-08
1.35828e-09
4.67619e-08
1.34222e-09
4.67294e-08
1.32557e-09
4.66952e-08
1.30925e-09
4.66593e-08
1.29222e-09
4.66217e-08
1.2756e-09
4.65826e-08
1.25833e-09
4.65417e-08
1.24155e-09
4.64991e-08
1.22418e-09
4.64547e-08
1.20709e-09
4.64086e-08
1.18933e-09
4.63607e-08
1.17147e-09
4.6311e-08
1.15292e-09
4.62598e-08
1.13394e-09
4.6207e-08
1.11448e-09
4.61529e-08
1.0946e-09
4.60973e-08
1.07451e-09
4.60404e-08
1.05406e-09
4.5982e-08
1.03317e-09
4.59223e-08
1.01194e-09
4.58614e-08
9.89532e-10
4.57993e-08
9.67211e-10
4.57364e-08
9.43245e-10
4.56723e-08
9.20228e-10
4.56077e-08
8.94831e-10
4.55421e-08
8.70624e-10
4.54763e-08
8.43905e-10
4.54099e-08
8.18771e-10
4.53432e-08
7.91406e-10
4.5276e-08
7.64931e-10
4.52088e-08
7.36429e-10
4.51414e-08
7.08737e-10
4.50744e-08
6.79036e-10
4.50076e-08
6.50745e-10
4.49417e-08
6.19775e-10
4.48758e-08
5.92613e-10
4.48107e-08
5.61898e-10
4.47448e-08
5.35901e-10
4.46804e-08
5.0378e-10
4.46166e-08
4.76329e-10
4.45555e-08
4.44045e-10
4.44952e-08
4.19438e-10
4.44363e-08
3.91808e-10
4.43767e-08
3.72149e-10
4.43183e-08
3.46038e-10
4.42602e-08
3.27627e-10
4.42053e-08
3.01543e-10
4.41518e-08
2.86659e-10
4.41012e-08
2.66031e-10
4.40511e-08
2.57899e-10
4.40025e-08
2.43223e-10
4.39538e-08
2.39277e-10
4.3907e-08
2.26337e-10
4.38602e-08
2.24661e-10
2.11947e-10
4.74866e-08
1.90455e-09
-4.74245e-08
4.75806e-08
2.12197e-09
4.77058e-08
2.31811e-09
4.78577e-08
2.49293e-09
4.80223e-08
2.62974e-09
4.81824e-08
2.71179e-09
4.83263e-08
2.73729e-09
4.84503e-08
2.71648e-09
4.85546e-08
2.66425e-09
4.86396e-08
2.59345e-09
4.8706e-08
2.51292e-09
4.87552e-08
2.42886e-09
4.87904e-08
2.34643e-09
4.88154e-08
2.26966e-09
4.88335e-08
2.20072e-09
4.88466e-08
2.13968e-09
4.88561e-08
2.08538e-09
4.88628e-08
2.03643e-09
4.88674e-08
1.99174e-09
4.88702e-08
1.95055e-09
4.88717e-08
1.9124e-09
4.8872e-08
1.87685e-09
4.88714e-08
1.84362e-09
4.887e-08
1.81238e-09
4.88677e-08
1.78294e-09
4.88649e-08
1.75505e-09
4.88614e-08
1.72862e-09
4.88574e-08
1.70345e-09
4.88529e-08
1.67948e-09
4.8848e-08
1.65654e-09
4.88427e-08
1.63462e-09
4.8837e-08
1.61352e-09
4.8831e-08
1.59328e-09
4.88246e-08
1.57368e-09
4.88179e-08
1.55481e-09
4.88108e-08
1.53636e-09
4.88032e-08
1.51855e-09
4.87953e-08
1.50095e-09
4.87869e-08
1.4839e-09
4.8778e-08
1.46688e-09
4.87686e-08
1.45042e-09
4.87588e-08
1.43384e-09
4.87484e-08
1.41792e-09
4.87375e-08
1.40175e-09
4.87259e-08
1.38633e-09
4.87138e-08
1.37041e-09
4.87008e-08
1.3552e-09
4.86872e-08
1.33919e-09
4.86727e-08
1.32381e-09
4.86574e-08
1.30746e-09
4.86412e-08
1.29178e-09
4.86244e-08
1.2752e-09
4.86066e-08
1.25934e-09
4.8588e-08
1.24277e-09
4.85684e-08
1.22667e-09
4.85478e-08
1.20991e-09
4.85262e-08
1.19308e-09
4.85034e-08
1.17572e-09
4.84797e-08
1.15768e-09
4.84548e-08
1.13938e-09
4.84291e-08
1.1203e-09
4.84022e-08
1.10134e-09
4.83746e-08
1.08174e-09
4.83457e-08
1.062e-09
4.83158e-08
1.04186e-09
4.82849e-08
1.02046e-09
4.82528e-08
9.99275e-10
4.82201e-08
9.76004e-10
4.8186e-08
9.54316e-10
4.81512e-08
9.29594e-10
4.81152e-08
9.06607e-10
4.80788e-08
8.80337e-10
4.80415e-08
8.56116e-10
4.80034e-08
8.29493e-10
4.79645e-08
8.0375e-10
4.79249e-08
7.76036e-10
4.78848e-08
7.48876e-10
4.7844e-08
7.19826e-10
4.78027e-08
6.92078e-10
4.77616e-08
6.60859e-10
4.77199e-08
6.34281e-10
4.76784e-08
6.03437e-10
4.76351e-08
5.79185e-10
4.75916e-08
5.47239e-10
4.75477e-08
5.20237e-10
4.75054e-08
4.86415e-10
4.74638e-08
4.61031e-10
4.74229e-08
4.32719e-10
4.73806e-08
4.14425e-10
4.73378e-08
3.88836e-10
4.72939e-08
3.71536e-10
4.72516e-08
3.43861e-10
4.72105e-08
3.2771e-10
4.71717e-08
3.04883e-10
4.71337e-08
2.95851e-10
4.70963e-08
2.80639e-10
4.70583e-08
2.7731e-10
4.70209e-08
2.6374e-10
4.69826e-08
2.62927e-10
2.48277e-10
4.93401e-08
1.84501e-09
-4.92805e-08
4.94259e-08
2.03615e-09
4.95371e-08
2.20686e-09
4.96701e-08
2.35994e-09
4.98161e-08
2.48382e-09
4.99618e-08
2.56608e-09
5.00964e-08
2.6026e-09
5.02146e-08
2.59838e-09
5.03149e-08
2.56386e-09
5.03983e-08
2.51011e-09
5.04654e-08
2.44577e-09
5.05176e-08
2.37672e-09
5.05568e-08
2.30723e-09
5.05858e-08
2.24062e-09
5.06075e-08
2.17908e-09
5.06238e-08
2.12335e-09
5.06361e-08
2.07304e-09
5.06453e-08
2.02721e-09
5.06521e-08
1.98503e-09
5.06568e-08
1.94585e-09
5.06599e-08
1.90931e-09
5.06616e-08
1.87507e-09
5.06623e-08
1.84294e-09
5.06621e-08
1.81262e-09
5.0661e-08
1.78399e-09
5.06593e-08
1.75678e-09
5.0657e-08
1.73095e-09
5.06542e-08
1.70626e-09
5.06509e-08
1.68272e-09
5.06474e-08
1.6601e-09
5.06435e-08
1.63849e-09
5.06394e-08
1.6176e-09
5.06351e-08
1.59758e-09
5.06307e-08
1.57809e-09
5.06261e-08
1.5594e-09
5.06215e-08
1.54102e-09
5.06166e-08
1.52337e-09
5.06118e-08
1.50583e-09
5.06067e-08
1.48897e-09
5.06016e-08
1.47198e-09
5.05963e-08
1.45573e-09
5.05909e-08
1.43915e-09
5.05854e-08
1.42345e-09
5.05799e-08
1.40725e-09
5.05742e-08
1.39208e-09
5.05684e-08
1.37615e-09
5.05624e-08
1.36127e-09
5.05562e-08
1.34533e-09
5.05497e-08
1.33036e-09
5.0543e-08
1.31414e-09
5.05359e-08
1.29886e-09
5.05287e-08
1.28245e-09
5.05211e-08
1.26691e-09
5.05133e-08
1.2506e-09
5.05052e-08
1.23478e-09
5.04966e-08
1.21849e-09
5.04877e-08
1.20195e-09
5.04782e-08
1.18529e-09
5.04683e-08
1.16754e-09
5.04577e-08
1.15001e-09
5.04468e-08
1.13115e-09
5.04352e-08
1.11293e-09
5.04234e-08
1.09362e-09
5.04108e-08
1.07454e-09
5.03977e-08
1.055e-09
5.03839e-08
1.03417e-09
5.03694e-08
1.01379e-09
5.03546e-08
9.90804e-10
5.03388e-08
9.70161e-10
5.03225e-08
9.45897e-10
5.03051e-08
9.23965e-10
5.02873e-08
8.9815e-10
5.02689e-08
8.74522e-10
5.02497e-08
8.48735e-10
5.023e-08
8.23414e-10
5.02093e-08
7.96689e-10
5.01883e-08
7.69905e-10
5.01664e-08
7.41797e-10
5.01435e-08
7.14909e-10
5.01206e-08
6.8381e-10
5.00969e-08
6.57991e-10
5.00733e-08
6.27009e-10
5.00479e-08
6.04529e-10
5.00217e-08
5.73518e-10
4.99943e-08
5.47621e-10
4.99673e-08
5.13366e-10
4.99411e-08
4.87222e-10
4.99154e-08
4.58409e-10
4.98886e-08
4.41248e-10
4.98605e-08
4.16941e-10
4.98306e-08
4.01471e-10
4.98007e-08
3.73773e-10
4.97717e-08
3.5664e-10
4.97442e-08
3.3241e-10
4.97181e-08
3.2193e-10
4.96924e-08
3.06379e-10
4.9666e-08
3.0374e-10
4.96395e-08
2.90185e-10
4.96115e-08
2.90904e-10
2.75589e-10
5.12538e-08
1.78802e-09
-5.11968e-08
5.13326e-08
1.95736e-09
5.14323e-08
2.10713e-09
5.155e-08
2.24229e-09
5.16795e-08
2.35431e-09
5.18112e-08
2.43433e-09
5.19361e-08
2.47773e-09
5.2048e-08
2.48645e-09
5.21447e-08
2.46723e-09
5.22261e-08
2.42869e-09
5.22932e-08
2.37865e-09
5.23471e-08
2.3228e-09
5.23893e-08
2.26505e-09
5.24217e-08
2.20818e-09
5.24466e-08
2.1542e-09
5.24659e-08
2.10412e-09
5.24808e-08
2.0581e-09
5.24924e-08
2.01566e-09
5.25011e-08
1.97626e-09
5.25076e-08
1.93934e-09
5.25123e-08
1.90467e-09
5.25154e-08
1.87195e-09
5.25172e-08
1.8411e-09
5.2518e-08
1.81184e-09
5.25179e-08
1.78413e-09
5.2517e-08
1.75768e-09
5.25154e-08
1.73252e-09
5.25133e-08
1.70836e-09
5.25107e-08
1.68531e-09
5.25078e-08
1.66304e-09
5.25045e-08
1.64176e-09
5.2501e-08
1.62107e-09
5.24974e-08
1.60127e-09
5.24936e-08
1.58187e-09
5.24897e-08
1.56332e-09
5.24857e-08
1.54494e-09
5.24817e-08
1.52741e-09
5.24777e-08
1.50982e-09
5.24736e-08
1.49307e-09
5.24696e-08
1.47599e-09
5.24655e-08
1.45986e-09
5.24615e-08
1.44313e-09
5.24574e-08
1.42753e-09
5.24535e-08
1.41113e-09
5.24496e-08
1.39604e-09
5.24458e-08
1.37988e-09
5.2442e-08
1.36512e-09
5.24383e-08
1.349e-09
5.24345e-08
1.33417e-09
5.24308e-08
1.31785e-09
5.2427e-08
1.30271e-09
5.24232e-08
1.28626e-09
5.24193e-08
1.27072e-09
5.24155e-08
1.25446e-09
5.24117e-08
1.23851e-09
5.24078e-08
1.22243e-09
5.24041e-08
1.20569e-09
5.23999e-08
1.18948e-09
5.23958e-08
1.17155e-09
5.23913e-08
1.15461e-09
5.23868e-08
1.13556e-09
5.23819e-08
1.11787e-09
5.2377e-08
1.09847e-09
5.23719e-08
1.07973e-09
5.23665e-08
1.06039e-09
5.23609e-08
1.03973e-09
5.23549e-08
1.01986e-09
5.23489e-08
9.96811e-10
5.23421e-08
9.76884e-10
5.23352e-08
9.52814e-10
5.23275e-08
9.31647e-10
5.23194e-08
9.06275e-10
5.23111e-08
8.82854e-10
5.23019e-08
8.57859e-10
5.22929e-08
8.32507e-10
5.22828e-08
8.0673e-10
5.22727e-08
7.7999e-10
5.22618e-08
7.52733e-10
5.225e-08
7.26741e-10
5.22378e-08
6.9595e-10
5.22248e-08
6.71015e-10
5.22121e-08
6.39753e-10
5.21981e-08
6.18529e-10
5.21831e-08
5.88469e-10
5.2167e-08
5.63747e-10
5.21504e-08
5.29965e-10
5.21343e-08
5.0332e-10
5.21185e-08
4.74179e-10
5.21022e-08
4.57561e-10
5.20847e-08
4.34433e-10
5.20655e-08
4.20715e-10
5.20452e-08
3.94013e-10
5.20255e-08
3.76343e-10
5.20064e-08
3.51481e-10
5.1989e-08
3.3942e-10
5.19721e-08
3.23188e-10
5.19548e-08
3.21043e-10
5.19376e-08
3.07432e-10
5.19187e-08
3.09843e-10
2.94977e-10
5.32311e-08
1.73361e-09
-5.31767e-08
5.33037e-08
1.88475e-09
5.33936e-08
2.01716e-09
5.34986e-08
2.13738e-09
5.36139e-08
2.23896e-09
5.37327e-08
2.31553e-09
5.38476e-08
2.36282e-09
5.39529e-08
2.38115e-09
5.40456e-08
2.37458e-09
5.41249e-08
2.34939e-09
5.41914e-08
2.3121e-09
5.42462e-08
2.26799e-09
5.42905e-08
2.2208e-09
5.43256e-08
2.17303e-09
5.43533e-08
2.12649e-09
5.43752e-08
2.08224e-09
5.43925e-08
2.04076e-09
5.44063e-08
2.00194e-09
5.4417e-08
1.96552e-09
5.44252e-08
1.93109e-09
5.44314e-08
1.8985e-09
5.44359e-08
1.8675e-09
5.44389e-08
1.8381e-09
5.44407e-08