/*--------------------------------*- C++ -*----------------------------------*\
| =========                 |                                                 |
| \\      /  F ield         | OpenFOAM: The Open Source CFD Toolbox           |
|  \\    /   O peration     | Version:  2.3.0                                 |
|   \\  /    A nd           | Web:      www.OpenFOAM.org                      |
|    \\/     M anipulation  |                                                 |
\*---------------------------------------------------------------------------*/
FoamFile
{
    version     2.0;
    format      ascii;
    class       volScalarField;
    location    "0.65";
    object      p;
}
// * * * * * * * * * * * * * * * * * * * * * * * * * * * * * * * * * * * * * //

dimensions      [0 2 -2 0 0 0 0];

internalField   nonuniform List<scalar> 
5940
(
0.00296691
0.00264648
0.00194884
0.00126658
0.000708087
0.000255528
-0.00011008
-0.000382882
-0.00055405
-0.000633613
-0.00064774
-0.000625084
-0.000587665
-0.000548947
-0.00051548
-0.000489204
-0.000469547
-0.000454963
-0.000443828
-0.000434828
-0.000427035
-0.000419865
-0.000412987
-0.000406237
-0.000399553
-0.000392922
-0.000386356
-0.000379871
-0.00037348
-0.000367194
-0.000361015
-0.000354944
-0.000348977
-0.00034311
-0.000337336
-0.00033165
-0.000326047
-0.000320522
-0.000315072
-0.000309693
-0.000304383
-0.00029914
-0.000293963
-0.000288851
-0.000283803
-0.000278819
-0.000273898
-0.000269042
-0.000264249
-0.000259519
-0.000254854
-0.000250253
-0.000245716
-0.000241245
-0.000236837
-0.000232496
-0.000228219
-0.000224008
-0.000219863
-0.000215784
-0.000211771
-0.000207824
-0.000203943
-0.000200129
-0.000196381
-0.000192699
-0.000189083
-0.000185533
-0.000182049
-0.00017863
-0.000175277
-0.00017199
-0.000168767
-0.000165608
-0.000162513
-0.000159482
-0.000156514
-0.000153609
-0.000150765
-0.000147983
-0.000145261
-0.000142599
-0.000139996
-0.000137452
-0.000134965
-0.000132535
-0.000130161
-0.000127841
-0.000125575
-0.000123363
-0.000121201
-0.00011909
-0.000117029
-0.000115016
-0.000113049
-0.000111129
-0.000109252
-0.000107418
-0.000105626
-0.000103873
-0.000102158
-0.000100481
-9.88371e-05
-9.72275e-05
-9.5648e-05
-9.4099e-05
-9.2576e-05
-9.10796e-05
-8.96048e-05
-8.81525e-05
-8.67168e-05
-8.52993e-05
-8.38929e-05
-8.25001e-05
-8.11123e-05
-7.97333e-05
-7.83527e-05
-7.69756e-05
-7.55895e-05
-7.42015e-05
-7.2796e-05
-7.1383e-05
-6.99431e-05
-6.84897e-05
-6.69987e-05
-6.54881e-05
-6.39276e-05
-6.23413e-05
-6.06913e-05
-5.90092e-05
-5.72473e-05
-5.54475e-05
-5.35489e-05
-5.16069e-05
-4.95441e-05
-4.7433e-05
-4.51749e-05
-4.2865e-05
-4.03767e-05
-3.78353e-05
-3.50768e-05
-3.22678e-05
-2.91933e-05
-2.60766e-05
-2.26312e-05
-1.91629e-05
-1.52779e-05
-1.14142e-05
-6.98893e-06
-2.7132e-06
0.00244177
0.0022586
0.00178211
0.00121709
0.000705813
0.000282887
-5.55027e-05
-0.000308537
-0.00047426
-0.000560386
-0.000586485
-0.000576451
-0.000550205
-0.000520446
-0.000493693
-0.000472152
-0.000455695
-0.000443248
-0.00043358
-0.000425639
-0.000418666
-0.000412169
-0.00040587
-0.000399631
-0.000393405
-0.000387186
-0.000380991
-0.00037484
-0.000368752
-0.00036274
-0.000356809
-0.000350964
-0.000345204
-0.000339527
-0.000333927
-0.000328403
-0.00032295
-0.000317564
-0.000312244
-0.000306986
-0.000301789
-0.000296653
-0.000291576
-0.000286557
-0.000281598
-0.000276697
-0.000271855
-0.000267073
-0.000262351
-0.000257688
-0.000253087
-0.000248546
-0.000244067
-0.00023965
-0.000235295
-0.000231003
-0.000226774
-0.000222608
-0.000218507
-0.000214469
-0.000210496
-0.000206587
-0.000202743
-0.000198963
-0.000195249
-0.000191599
-0.000188015
-0.000184495
-0.000181039
-0.000177649
-0.000174322
-0.00017106
-0.000167862
-0.000164727
-0.000161656
-0.000158647
-0.000155701
-0.000152816
-0.000149992
-0.000147229
-0.000144526
-0.000141883
-0.000139298
-0.000136771
-0.0001343
-0.000131887
-0.000129528
-0.000127224
-0.000124973
-0.000122774
-0.000120626
-0.000118529
-0.000116481
-0.000114481
-0.000112527
-0.000110618
-0.000108753
-0.000106931
-0.00010515
-0.000103408
-0.000101704
-0.000100037
-9.84036e-05
-9.6804e-05
-9.52343e-05
-9.36948e-05
-9.21811e-05
-9.06939e-05
-8.92279e-05
-8.77844e-05
-8.63572e-05
-8.49481e-05
-8.35498e-05
-8.21651e-05
-8.07851e-05
-7.9414e-05
-7.80408e-05
-7.66713e-05
-7.52923e-05
-7.39116e-05
-7.25129e-05
-7.1107e-05
-6.96735e-05
-6.82271e-05
-6.67422e-05
-6.52382e-05
-6.36836e-05
-6.21038e-05
-6.04592e-05
-5.87835e-05
-5.70267e-05
-5.5233e-05
-5.33391e-05
-5.14032e-05
-4.93445e-05
-4.72394e-05
-4.49849e-05
-4.2681e-05
-4.01955e-05
-3.76601e-05
-3.49035e-05
-3.21008e-05
-2.90269e-05
-2.5917e-05
-2.24702e-05
-1.90098e-05
-1.51201e-05
-1.12674e-05
-6.83238e-06
-2.5896e-06
0.00206612
0.00194749
0.0016284
0.00118165
0.000731379
0.000344108
3.4558e-05
-0.00019958
-0.000362429
-0.000460377
-0.000505654
-0.00051502
-0.000504929
-0.000487475
-0.000469322
-0.00045337
-0.000440384
-0.000430096
-0.00042185
-0.000414952
-0.000408833
-0.000403095
-0.000397496
-0.00039191
-0.00038629
-0.000380628
-0.00037494
-0.000369246
-0.000363567
-0.00035792
-0.000352315
-0.000346762
-0.000341262
-0.000335819
-0.000330431
-0.000325099
-0.00031982
-0.000314594
-0.00030942
-0.000304297
-0.000299225
-0.000294204
-0.000289234
-0.000284316
-0.000279449
-0.000274636
-0.000269877
-0.000265171
-0.000260522
-0.000255928
-0.00025139
-0.000246911
-0.000242489
-0.000238127
-0.000233824
-0.000229581
-0.000225399
-0.000221278
-0.000217219
-0.000213222
-0.000209288
-0.000205416
-0.000201607
-0.000197862
-0.00019418
-0.000190562
-0.000187007
-0.000183516
-0.000180088
-0.000176724
-0.000173423
-0.000170186
-0.000167012
-0.0001639
-0.00016085
-0.000157863
-0.000154937
-0.000152072
-0.000149268
-0.000146523
-0.000143838
-0.000141212
-0.000138644
-0.000136133
-0.000133679
-0.00013128
-0.000128936
-0.000126646
-0.000124409
-0.000122224
-0.00012009
-0.000118006
-0.00011597
-0.000113982
-0.000112039
-0.000110143
-0.000108289
-0.000106478
-0.000104707
-0.000102976
-0.000101282
-9.96247e-05
-9.80009e-05
-9.64108e-05
-9.48503e-05
-9.332e-05
-9.1815e-05
-9.03366e-05
-8.8879e-05
-8.74441e-05
-8.60248e-05
-8.4624e-05
-8.32333e-05
-8.18567e-05
-8.0484e-05
-7.91206e-05
-7.77544e-05
-7.63925e-05
-7.50201e-05
-7.36469e-05
-7.22545e-05
-7.0856e-05
-6.94285e-05
-6.79893e-05
-6.65101e-05
-6.50134e-05
-6.3464e-05
-6.18915e-05
-6.02518e-05
-5.85835e-05
-5.6831e-05
-5.50449e-05
-5.31547e-05
-5.12267e-05
-4.91711e-05
-4.70744e-05
-4.48221e-05
-4.25271e-05
-4.00427e-05
-3.75171e-05
-3.47602e-05
-3.19685e-05
-2.88925e-05
-2.57953e-05
-2.2344e-05
-1.88989e-05
-1.50013e-05
-1.11682e-05
-6.7326e-06
-2.5336e-06
0.00181493
0.00171846
0.00148926
0.00114123
0.00075755
0.000409451
0.000125631
-9.22755e-05
-0.000250366
-0.000355248
-0.000415317
-0.000441955
-0.000447634
-0.000442762
-0.000434018
-0.000424888
-0.000416796
-0.000410045
-0.000404418
-0.000399535
-0.000395033
-0.000390645
-0.000386209
-0.000381644
-0.000376926
-0.000372065
-0.000367085
-0.00036202
-0.000356897
-0.000351744
-0.000346578
-0.000341416
-0.000336268
-0.00033114
-0.000326037
-0.000320963
-0.00031592
-0.00031091
-0.000305933
-0.000300992
-0.000296088
-0.000291222
-0.000286396
-0.000281611
-0.000276869
-0.000272171
-0.000267519
-0.000262915
-0.000258359
-0.000253854
-0.0002494
-0.000244998
-0.00024065
-0.000236357
-0.000232119
-0.000227938
-0.000223815
-0.00021975
-0.000215743
-0.000211796
-0.000207909
-0.000204083
-0.000200317
-0.000196613
-0.000192971
-0.00018939
-0.000185871
-0.000182414
-0.00017902
-0.000175687
-0.000172417
-0.000169209
-0.000166062
-0.000162977
-0.000159953
-0.000156991
-0.000154089
-0.000151247
-0.000148465
-0.000145742
-0.000143078
-0.000140472
-0.000137923
-0.00013543
-0.000132994
-0.000130613
-0.000128286
-0.000126013
-0.000123791
-0.000121622
-0.000119502
-0.000117433
-0.000115411
-0.000113436
-0.000111507
-0.000109623
-0.000107782
-0.000105983
-0.000104224
-0.000102505
-0.000100822
-9.91762e-05
-9.75631e-05
-9.59837e-05
-9.44333e-05
-9.29132e-05
-9.14179e-05
-8.99493e-05
-8.8501e-05
-8.70755e-05
-8.56651e-05
-8.42734e-05
-8.28912e-05
-8.15234e-05
-8.01589e-05
-7.88042e-05
-7.74457e-05
-7.60924e-05
-7.47274e-05
-7.33626e-05
-7.19773e-05
-7.05872e-05
-6.91664e-05
-6.77356e-05
-6.62627e-05
-6.47745e-05
-6.32311e-05
-6.16673e-05
-6.0033e-05
-5.83736e-05
-5.66261e-05
-5.48494e-05
-5.29636e-05
-5.10454e-05
-4.89936e-05
-4.69073e-05
-4.46581e-05
-4.23744e-05
-3.9892e-05
-3.73789e-05
-3.46228e-05
-3.18454e-05
-2.87685e-05
-2.56879e-05
-2.22337e-05
-1.88083e-05
-1.49065e-05
-1.10974e-05
-6.67476e-06
-2.5216e-06
0.00162401
0.00153632
0.00135725
0.00108379
0.000764414
0.000458384
0.000200017
-2.80024e-06
-0.0001544
-0.000261306
-0.000330221
-0.000369187
-0.000387375
-0.000393261
-0.000393084
-0.00039058
-0.00038758
-0.00038475
-0.000382175
-0.000379715
-0.000377191
-0.000374466
-0.000371466
-0.000368164
-0.00036457
-0.000360715
-0.000356639
-0.000352384
-0.000347989
-0.000343487
-0.000338908
-0.000334272
-0.000329598
-0.000324899
-0.000320185
-0.000315463
-0.000310742
-0.000306025
-0.000301317
-0.000296623
-0.000291947
-0.000287291
-0.000282659
-0.000278055
-0.000273481
-0.00026894
-0.000264434
-0.000259966
-0.000255538
-0.000251152
-0.00024681
-0.000242514
-0.000238266
-0.000234066
-0.000229917
-0.00022582
-0.000221775
-0.000217785
-0.00021385
-0.00020997
-0.000206147
-0.000202382
-0.000198674
-0.000195025
-0.000191435
-0.000187905
-0.000184434
-0.000181023
-0.000177672
-0.000174382
-0.000171151
-0.000167981
-0.000164872
-0.000161822
-0.000158832
-0.000155902
-0.000153032
-0.00015022
-0.000147467
-0.000144772
-0.000142134
-0.000139554
-0.00013703
-0.000134562
-0.000132148
-0.00012979
-0.000127484
-0.000125232
-0.000123031
-0.000120881
-0.00011878
-0.000116729
-0.000114724
-0.000112767
-0.000110855
-0.000108987
-0.000107161
-0.000105378
-0.000103634
-0.000101929
-0.00010026
-9.86275e-05
-9.70276e-05
-9.54611e-05
-9.39233e-05
-9.24155e-05
-9.09322e-05
-8.94755e-05
-8.80385e-05
-8.66244e-05
-8.52248e-05
-8.38442e-05
-8.24724e-05
-8.11154e-05
-7.97606e-05
-7.84165e-05
-7.70675e-05
-7.57244e-05
-7.43686e-05
-7.3014e-05
-7.16374e-05
-7.02574e-05
-6.8845e-05
-6.74244e-05
-6.59595e-05
-6.44817e-05
-6.29459e-05
-6.13926e-05
-5.97657e-05
-5.81171e-05
-5.63765e-05
-5.46112e-05
-5.27318e-05
-5.08257e-05
-4.87798e-05
-4.67065e-05
-4.44626e-05
-4.2193e-05
-3.97152e-05
-3.72179e-05
-3.44655e-05
-3.17059e-05
-2.86318e-05
-2.55717e-05
-2.21197e-05
-1.87177e-05
-1.48201e-05
-1.10389e-05
-6.64235e-06
-2.5339e-06
0.00146546
0.00138307
0.00123453
0.00101521
0.000752462
0.000488891
0.000256861
6.91107e-05
-7.50103e-05
-0.000180842
-0.000254273
-0.000301468
-0.000329153
-0.000343952
-0.000351291
-0.000354827
-0.000356597
-0.000357528
-0.000357936
-0.000357876
-0.000357327
-0.000356272
-0.00035472
-0.0003527
-0.000350258
-0.000347445
-0.000344316
-0.000340922
-0.00033731
-0.00033352
-0.000329588
-0.000325543
-0.000321406
-0.000317198
-0.000312932
-0.000308622
-0.000304279
-0.00029991
-0.000295523
-0.000291127
-0.000286726
-0.000282326
-0.000277932
-0.000273549
-0.000269182
-0.000264834
-0.000260509
-0.000256211
-0.000251942
-0.000247706
-0.000243506
-0.000239342
-0.000235219
-0.000231138
-0.000227101
-0.00022311
-0.000219166
-0.000215271
-0.000211426
-0.000207633
-0.000203892
-0.000200204
-0.000196571
-0.000192993
-0.000189471
-0.000186005
-0.000182596
-0.000179244
-0.000175949
-0.000172713
-0.000169535
-0.000166414
-0.000163352
-0.000160348
-0.000157403
-0.000154515
-0.000151685
-0.000148912
-0.000146196
-0.000143537
-0.000140934
-0.000138387
-0.000135895
-0.000133458
-0.000131074
-0.000128744
-0.000126467
-0.000124241
-0.000122066
-0.000119941
-0.000117864
-0.000115836
-0.000113854
-0.000111919
-0.000110027
-0.00010818
-0.000106374
-0.00010461
-0.000102884
-0.000101198
-9.95461e-05
-9.79309e-05
-9.63475e-05
-9.47972e-05
-9.32749e-05
-9.17826e-05
-9.03141e-05
-8.8872e-05
-8.74491e-05
-8.60491e-05
-8.46629e-05
-8.32959e-05
-8.19367e-05
-8.05929e-05
-7.92504e-05
-7.7919e-05
-7.65818e-05
-7.52512e-05
-7.39067e-05
-7.25645e-05
-7.11988e-05
-6.98312e-05
-6.84293e-05
-6.70212e-05
-6.55665e-05
-6.41012e-05
-6.25754e-05
-6.10349e-05
-5.94177e-05
-5.77825e-05
-5.60513e-05
-5.43e-05
-5.24297e-05
-5.05385e-05
-4.85015e-05
-4.64442e-05
-4.42089e-05
-4.19569e-05
-3.94875e-05
-3.70097e-05
-3.42654e-05
-3.15279e-05
-2.84623e-05
-2.54269e-05
-2.19849e-05
-1.86106e-05
-1.4729e-05
-1.09799e-05
-6.62297e-06
-2.55783e-06
0.00132905
0.00125148
0.00112439
0.000944894
0.000728868
0.000504909
0.000299579
0.000127451
-8.57639e-06
-0.00011177
-0.000187083
-0.000239559
-0.000274298
-0.000296361
-0.000310207
-0.00031916
-0.000325301
-0.000329734
-0.000332967
-0.000335218
-0.000336595
-0.000337182
-0.000337058
-0.000336305
-0.000335
-0.000333219
-0.000331027
-0.000328488
-0.000325655
-0.000322578
-0.000319296
-0.000315844
-0.000312252
-0.000308543
-0.000304737
-0.000300851
-0.000296899
-0.000292892
-0.000288843
-0.000284759
-0.00028065
-0.000276523
-0.000272385
-0.000268242
-0.0002641
-0.000259963
-0.000255837
-0.000251727
-0.000247635
-0.000243567
-0.000239524
-0.000235511
-0.00023153
-0.000227584
-0.000223676
-0.000219806
-0.000215978
-0.000212194
-0.000208454
-0.000204761
-0.000201116
-0.000197521
-0.000193975
-0.000190481
-0.000187039
-0.00018365
-0.000180315
-0.000177033
-0.000173807
-0.000170635
-0.000167519
-0.000164459
-0.000161455
-0.000158506
-0.000155614
-0.000152778
-0.000149997
-0.000147271
-0.000144601
-0.000141986
-0.000139426
-0.00013692
-0.000134467
-0.000132068
-0.000129722
-0.000127427
-0.000125183
-0.000122991
-0.000120847
-0.000118753
-0.000116706
-0.000114707
-0.000112753
-0.000110844
-0.000108979
-0.000107157
-0.000105375
-0.000103635
-0.000101932
-0.000100267
-9.86373e-05
-9.70431e-05
-9.54797e-05
-9.39493e-05
-9.24461e-05
-9.09725e-05
-8.9522e-05
-8.80978e-05
-8.66919e-05
-8.53091e-05
-8.39391e-05
-8.25885e-05
-8.12449e-05
-7.99169e-05
-7.85893e-05
-7.72733e-05
-7.59504e-05
-7.46349e-05
-7.33043e-05
-7.19769e-05
-7.06247e-05
-6.92719e-05
-6.78831e-05
-6.64899e-05
-6.50479e-05
-6.35978e-05
-6.20847e-05
-6.05598e-05
-5.8955e-05
-5.7336e-05
-5.56171e-05
-5.38829e-05
-5.20249e-05
-5.0152e-05
-4.81275e-05
-4.60897e-05
-4.38674e-05
-4.16367e-05
-3.91806e-05
-3.67265e-05
-3.39966e-05
-3.12853e-05
-2.82364e-05
-2.52299e-05
-2.18091e-05
-1.84663e-05
-1.46162e-05
-1.09034e-05
-6.60106e-06
-2.57797e-06
0.00121029
0.00113782
0.00102755
0.0008781
0.000699341
0.000510099
0.000330506
0.000174429
4.70871e-05
-5.25289e-05
-0.000128085
-0.000183726
-0.000223483
-0.000251237
-0.000270527
-0.000284208
-0.000294266
-0.000301904
-0.000307774
-0.000312227
-0.000315474
-0.000317674
-0.000318963
-0.000319465
-0.000319288
-0.000318525
-0.000317259
-0.000315563
-0.000313499
-0.000311123
-0.000308483
-0.000305618
-0.000302564
-0.000299349
-0.000295998
-0.000292532
-0.000288968
-0.000285323
-0.000281609
-0.000277838
-0.000274021
-0.000270168
-0.000266286
-0.000262385
-0.000258469
-0.000254547
-0.000250624
-0.000246705
-0.000242795
-0.000238898
-0.000235019
-0.000231161
-0.000227328
-0.000223523
-0.000219749
-0.000216007
-0.000212302
-0.000208635
-0.000205008
-0.000201422
-0.00019788
-0.000194383
-0.000190933
-0.000187529
-0.000184175
-0.00018087
-0.000177616
-0.000174412
-0.000171261
-0.000168162
-0.000165115
-0.000162122
-0.000159182
-0.000156297
-0.000153464
-0.000150686
-0.000147961
-0.00014529
-0.000142672
-0.000140107
-0.000137596
-0.000135137
-0.000132729
-0.000130374
-0.00012807
-0.000125816
-0.000123612
-0.000121458
-0.000119352
-0.000117293
-0.000115281
-0.000113315
-0.000111394
-0.000109517
-0.000107681
-0.000105889
-0.000104136
-0.000102423
-0.000100747
-9.91082e-05
-9.75033e-05
-9.59336e-05
-9.4394e-05
-9.28867e-05
-9.14058e-05
-8.99542e-05
-8.85248e-05
-8.71216e-05
-8.57357e-05
-8.43728e-05
-8.30219e-05
-8.16906e-05
-8.03651e-05
-7.90557e-05
-7.77455e-05
-7.64475e-05
-7.51415e-05
-7.38437e-05
-7.25293e-05
-7.12194e-05
-6.98831e-05
-6.85478e-05
-6.71745e-05
-6.57988e-05
-6.43723e-05
-6.29401e-05
-6.14423e-05
-5.99357e-05
-5.83465e-05
-5.67466e-05
-5.50434e-05
-5.33293e-05
-5.14874e-05
-4.9636e-05
-4.76284e-05
-4.56137e-05
-4.34094e-05
-4.12037e-05
-3.87675e-05
-3.63406e-05
-3.36334e-05
-3.09519e-05
-2.79303e-05
-2.49561e-05
-2.15706e-05
-1.8263e-05
-1.44621e-05
-1.07899e-05
-6.55898e-06
-2.57799e-06
0.00110634
0.00103924
0.000942826
0.000816584
0.000667175
0.000507155
0.000351182
0.000211082
9.29913e-05
-2.25329e-06
-7.68733e-05
-0.000134097
-0.000177169
-0.00020913
-0.000232756
-0.000250409
-0.000263885
-0.000274396
-0.000282686
-0.000289203
-0.000294236
-0.000298
-0.000300672
-0.000302407
-0.000303338
-0.000303578
-0.000303223
-0.000302357
-0.00030105
-0.000299366
-0.000297359
-0.000295074
-0.000292552
-0.000289827
-0.000286927
-0.000283878
-0.0002807
-0.000277413
-0.000274032
-0.000270572
-0.000267045
-0.000263463
-0.000259837
-0.000256175
-0.000252485
-0.000248776
-0.000245054
-0.000241325
-0.000237596
-0.000233871
-0.000230154
-0.000226452
-0.000222767
-0.000219102
-0.000215463
-0.000211851
-0.000208269
-0.000204719
-0.000201205
-0.000197729
-0.000194291
-0.000190895
-0.000187541
-0.000184231
-0.000180967
-0.000177748
-0.000174577
-0.000171455
-0.000168381
-0.000165357
-0.000162383
-0.00015946
-0.000156588
-0.000153768
-0.000150999
-0.000148282
-0.000145617
-0.000143003
-0.000140441
-0.00013793
-0.000135471
-0.000133062
-0.000130704
-0.000128396
-0.000126138
-0.000123929
-0.000121768
-0.000119655
-0.000117589
-0.00011557
-0.000113595
-0.000111666
-0.00010978
-0.000107938
-0.000106136
-0.000104376
-0.000102654
-0.000100972
-9.93255e-05
-9.7716e-05
-9.61388e-05
-9.45964e-05
-9.3083e-05
-9.16016e-05
-9.01454e-05
-8.87183e-05
-8.73124e-05
-8.59324e-05
-8.45689e-05
-8.32283e-05
-8.18986e-05
-8.05887e-05
-7.92835e-05
-7.79949e-05
-7.67042e-05
-7.54264e-05
-7.41393e-05
-7.28613e-05
-7.15653e-05
-7.0275e-05
-6.89567e-05
-6.7641e-05
-6.62854e-05
-6.49297e-05
-6.35209e-05
-6.21089e-05
-6.06291e-05
-5.91434e-05
-5.75726e-05
-5.59944e-05
-5.43102e-05
-5.26191e-05
-5.07973e-05
-4.89702e-05
-4.69843e-05
-4.49955e-05
-4.28154e-05
-4.06375e-05
-3.82287e-05
-3.58319e-05
-3.31569e-05
-3.05079e-05
-2.75258e-05
-2.45869e-05
-2.12521e-05
-1.79835e-05
-1.42501e-05
-1.06234e-05
-6.48153e-06
-2.54545e-06
0.00101486
0.000953138
0.00086834
0.000760427
0.000634183
0.000498261
0.000363193
0.000238431
0.000129979
3.98469e-05
-3.28716e-05
-9.04515e-05
-0.000135456
-0.00017031
-0.000197208
-0.000218066
-0.000234438
-0.000247471
-0.000257942
-0.00026636
-0.000273068
-0.000278319
-0.00028232
-0.00028525
-0.000287259
-0.000288476
-0.000289011
-0.000288958
-0.000288395
-0.000287393
-0.00028601
-0.0002843
-0.000282306
-0.000280067
-0.000277616
-0.000274982
-0.000272189
-0.000269259
-0.000266211
-0.000263061
-0.000259824
-0.000256514
-0.000253142
-0.00024972
-0.000246256
-0.000242759
-0.000239238
-0.000235699
-0.000232149
-0.000228595
-0.000225041
-0.000221493
-0.000217955
-0.000214432
-0.000210926
-0.000207442
-0.000203983
-0.000200552
-0.000197151
-0.000193783
-0.00019045
-0.000187154
-0.000183897
-0.000180681
-0.000177506
-0.000174374
-0.000171287
-0.000168245
-0.00016525
-0.000162302
-0.000159401
-0.000156549
-0.000153746
-0.000150992
-0.000148287
-0.000145633
-0.000143028
-0.000140473
-0.000137967
-0.000135512
-0.000133106
-0.000130749
-0.000128441
-0.000126182
-0.000123971
-0.000121808
-0.000119691
-0.000117622
-0.000115598
-0.000113619
-0.000111684
-0.000109794
-0.000107945
-0.000106138
-0.000104371
-0.000102645
-0.000100957
-9.93066e-05
-9.76908e-05
-9.61117e-05
-9.45637e-05
-9.30501e-05
-9.15643e-05
-9.01101e-05
-8.86801e-05
-8.72789e-05
-8.58977e-05
-8.45425e-05
-8.32025e-05
-8.18856e-05
-8.05784e-05
-7.92914e-05
-7.80077e-05
-7.67412e-05
-7.54713e-05
-7.42151e-05
-7.29481e-05
-7.16914e-05
-7.04152e-05
-6.9146e-05
-6.78471e-05
-6.65526e-05
-6.52165e-05
-6.38821e-05
-6.2493e-05
-6.11029e-05
-5.96434e-05
-5.81802e-05
-5.66305e-05
-5.50758e-05
-5.3414e-05
-5.17475e-05
-4.99499e-05
-4.81489e-05
-4.61899e-05
-4.42289e-05
-4.20793e-05
-3.9931e-05
-3.75577e-05
-3.51928e-05
-3.25599e-05
-2.99456e-05
-2.70153e-05
-2.41145e-05
-2.0845e-05
-1.762e-05
-1.39711e-05
-1.0396e-05
-6.35996e-06
-2.47531e-06
0.000933828
0.000877272
0.000802297
0.000709144
0.000601399
0.000485238
0.000368259
0.000257751
0.000159023
7.46117e-05
4.61352e-06
-5.23497e-05
-9.81959e-05
-0.000134851
-0.000164071
-0.0001874
-0.000206146
-0.000221339
-0.000233736
-0.00024387
-0.000252116
-0.000258754
-0.000264011
-0.000268079
-0.000271123
-0.000273283
-0.000274682
-0.000275419
-0.000275583
-0.000275248
-0.000274481
-0.000273337
-0.000271865
-0.000270109
-0.000268105
-0.000265885
-0.000263476
-0.000260903
-0.000258187
-0.000255348
-0.000252402
-0.000249364
-0.000246248
-0.000243065
-0.000239828
-0.000236544
-0.000233225
-0.000229877
-0.000226508
-0.000223125
-0.000219735
-0.000216342
-0.000212952
-0.000209569
-0.000206198
-0.000202843
-0.000199508
-0.000196195
-0.000192907
-0.000189648
-0.00018642
-0.000183225
-0.000180065
-0.000176941
-0.000173857
-0.000170812
-0.000167809
-0.000164848
-0.000161931
-0.000159059
-0.000156232
-0.000153451
-0.000150716
-0.000148029
-0.000145389
-0.000142797
-0.000140253
-0.000137757
-0.000135308
-0.000132909
-0.000130556
-0.000128252
-0.000125994
-0.000123784
-0.000121621
-0.000119504
-0.000117432
-0.000115407
-0.000113425
-0.000111487
-0.000109592
-0.000107741
-0.000105929
-0.000104159
-0.000102428
-0.000100737
-9.90811e-05
-9.74638e-05
-9.58794e-05
-9.43313e-05
-9.2813e-05
-9.13287e-05
-8.98709e-05
-8.84446e-05
-8.70411e-05
-8.56664e-05
-8.43104e-05
-8.29805e-05
-8.16644e-05
-8.03718e-05
-7.90875e-05
-7.78239e-05
-7.65623e-05
-7.53185e-05
-7.40699e-05
-7.28359e-05
-7.15898e-05
-7.03548e-05
-6.90992e-05
-6.78517e-05
-6.65733e-05
-6.53005e-05
-6.39851e-05
-6.26728e-05
-6.1305e-05
-5.99374e-05
-5.85e-05
-5.70601e-05
-5.5534e-05
-5.40035e-05
-5.23672e-05
-5.07262e-05
-4.89567e-05
-4.71826e-05
-4.52554e-05
-4.3323e-05
-4.121e-05
-3.90924e-05
-3.67618e-05
-3.44304e-05
-3.18485e-05
-2.9271e-05
-2.64029e-05
-2.35437e-05
-2.0352e-05
-1.71759e-05
-1.36253e-05
-1.01097e-05
-6.19383e-06
-2.37135e-06
0.00086152
0.000809807
0.000743217
0.000662165
0.00056942
0.000469518
0.000368004
0.00027041
0.000181159
0.000102856
3.62361e-05
-1.93319e-05
-6.51632e-05
-0.000102742
-0.000133472
-0.000158603
-0.000179213
-0.000196194
-0.000210247
-0.000221893
-0.000231522
-0.000239427
-0.000245846
-0.00025098
-0.000255002
-0.000258062
-0.000260288
-0.000261788
-0.000262655
-0.000262971
-0.000262804
-0.000262216
-0.000261259
-0.000259979
-0.000258417
-0.000256607
-0.00025458
-0.000252363
-0.00024998
-0.000247452
-0.000244796
-0.000242031
-0.000239171
-0.00023623
-0.00023322
-0.000230151
-0.000227035
-0.000223879
-0.000220693
-0.000217483
-0.000214257
-0.000211021
-0.00020778
-0.00020454
-0.000201305
-0.00019808
-0.000194869
-0.000191676
-0.000188503
-0.000185354
-0.000182231
-0.000179138
-0.000176076
-0.000173047
-0.000170053
-0.000167097
-0.000164178
-0.0001613
-0.000158462
-0.000155666
-0.000152913
-0.000150204
-0.000147539
-0.000144919
-0.000142344
-0.000139815
-0.000137332
-0.000134895
-0.000132505
-0.000130161
-0.000127862
-0.000125611
-0.000123404
-0.000121244
-0.000119128
-0.000117058
-0.000115032
-0.00011305
-0.000111111
-0.000109215
-0.00010736
-0.000105547
-0.000103773
-0.000102041
-0.000100345
-9.86883e-05
-9.70662e-05
-9.54818e-05
-9.3929e-05
-9.24119e-05
-9.09234e-05
-8.94685e-05
-8.80389e-05
-8.66405e-05
-8.52637e-05
-8.39155e-05
-8.25848e-05
-8.12803e-05
-7.99884e-05
-7.872e-05
-7.74588e-05
-7.62186e-05
-7.49793e-05
-7.37582e-05
-7.25313e-05
-7.13194e-05
-7.00945e-05
-6.88814e-05
-6.76469e-05
-6.6421e-05
-6.5164e-05
-6.39128e-05
-6.26192e-05
-6.13288e-05
-5.99836e-05
-5.86384e-05
-5.72251e-05
-5.58083e-05
-5.4308e-05
-5.28017e-05
-5.11938e-05
-4.95782e-05
-4.78403e-05
-4.60933e-05
-4.4202e-05
-4.22986e-05
-4.02273e-05
-3.81413e-05
-3.58596e-05
-3.3563e-05
-3.10392e-05
-2.8501e-05
-2.57034e-05
-2.28899e-05
-1.9785e-05
-1.66645e-05
-1.32219e-05
-9.7752e-06
-5.99036e-06
-2.24442e-06
0.000796539
0.000749308
0.000689947
0.000618974
0.000538573
0.000452144
0.000363788
0.000277683
0.000197396
0.000125336
6.25672e-05
9.00938e-06
-3.61291e-05
-7.39298e-05
-0.000105494
-0.00013183
-0.000153819
-0.000172217
-0.000187641
-0.000200582
-0.000211421
-0.000220455
-0.000227928
-0.000234042
-0.000238975
-0.00024288
-0.000245889
-0.000248115
-0.000249658
-0.0002506
-0.000251015
-0.000250967
-0.000250512
-0.0002497
-0.000248572
-0.000247167
-0.000245518
-0.000243654
-0.000241601
-0.000239382
-0.000237017
-0.000234525
-0.000231921
-0.000229222
-0.00022644
-0.000223587
-0.000220675
-0.000217713
-0.00021471
-0.000211675
-0.000208615
-0.000205537
-0.000202447
-0.000199351
-0.000196254
-0.000193161
-0.000190077
-0.000187005
-0.000183948
-0.000180911
-0.000177896
-0.000174906
-0.000171943
-0.000169011
-0.000166109
-0.000163242
-0.00016041
-0.000157615
-0.000154858
-0.00015214
-0.000149462
-0.000146826
-0.000144232
-0.00014168
-0.000139172
-0.000136707
-0.000134287
-0.00013191
-0.000129578
-0.000127291
-0.000125048
-0.00012285
-0.000120695
-0.000118585
-0.000116518
-0.000114496
-0.000112515
-0.000110578
-0.000108682
-0.000106828
-0.000105014
-0.000103241
-0.000101505
-9.98098e-05
-9.81499e-05
-9.65285e-05
-9.49404e-05
-9.33891e-05
-9.18682e-05
-9.03825e-05
-8.89241e-05
-8.74988e-05
-8.60977e-05
-8.47273e-05
-8.33774e-05
-8.20559e-05
-8.07508e-05
-7.94716e-05
-7.82041e-05
-7.696e-05
-7.57222e-05
-7.45053e-05
-7.32886e-05
-7.20901e-05
-7.08853e-05
-6.96954e-05
-6.84923e-05
-6.73007e-05
-6.6088e-05
-6.48835e-05
-6.36485e-05
-6.24189e-05
-6.1148e-05
-5.98793e-05
-5.85579e-05
-5.72349e-05
-5.58471e-05
-5.44532e-05
-5.29808e-05
-5.14984e-05
-4.99212e-05
-4.83311e-05
-4.66277e-05
-4.49079e-05
-4.30559e-05
-4.11822e-05
-3.91563e-05
-3.71031e-05
-3.48745e-05
-3.26151e-05
-3.01541e-05
-2.76587e-05
-2.49366e-05
-2.21741e-05
-1.91615e-05
-1.61041e-05
-1.27753e-05
-9.40797e-06
-5.76127e-06
-2.10824e-06
0.000737766
0.000694661
0.000641587
0.000579121
0.000509008
0.000433834
0.000356665
0.000280665
0.000208661
0.000142757
8.41239e-05
3.30422e-05
-1.08639e-05
-4.83207e-05
-8.01596e-05
-0.000107181
-0.000130103
-0.000149552
-0.00016606
-0.000180068
-0.000191935
-0.000201951
-0.000210356
-0.000217353
-0.000223118
-0.000227803
-0.000231544
-0.000234454
-0.000236636
-0.000238175
-0.000239148
-0.000239621
-0.000239652
-0.000239294
-0.000238591
-0.000237582
-0.000236305
-0.000234789
-0.000233062
-0.000231149
-0.000229072
-0.000226851
-0.000224504
-0.000222046
-0.000219492
-0.000216856
-0.000214148
-0.000211381
-0.000208563
-0.000205703
-0.000202811
-0.000199893
-0.000196955
-0.000194005
-0.000191048
-0.000188089
-0.000185133
-0.000182183
-0.000179245
-0.000176322
-0.000173416
-0.000170531
-0.00016767
-0.000164836
-0.000162029
-0.000159253
-0.000156509
-0.000153799
-0.000151124
-0.000148486
-0.000145886
-0.000143324
-0.000140802
-0.000138321
-0.00013588
-0.000133482
-0.000131125
-0.000128811
-0.000126538
-0.000124309
-0.000122123
-0.000119979
-0.000117878
-0.00011582
-0.000113803
-0.000111829
-0.000109895
-0.000108004
-0.000106152
-0.000104341
-0.000102568
-0.000100836
-9.91396e-05
-9.74824e-05
-9.58594e-05
-9.4274e-05
-9.27205e-05
-9.1203e-05
-8.97149e-05
-8.8261e-05
-8.68335e-05
-8.54384e-05
-8.40663e-05
-8.27244e-05
-8.14021e-05
-8.01076e-05
-7.88288e-05
-7.75752e-05
-7.63327e-05
-7.51131e-05
-7.38994e-05
-7.27059e-05
-7.15126e-05
-7.03367e-05
-6.91547e-05
-6.79868e-05
-6.68063e-05
-6.56363e-05
-6.44462e-05
-6.32631e-05
-6.20512e-05
-6.08428e-05
-5.95959e-05
-5.83488e-05
-5.70527e-05
-5.57518e-05
-5.4391e-05
-5.30201e-05
-5.15771e-05
-5.01191e-05
-4.85744e-05
-4.70102e-05
-4.53434e-05
-4.36518e-05
-4.18414e-05
-3.99987e-05
-3.80207e-05
-3.60025e-05
-3.38297e-05
-3.16104e-05
-2.92152e-05
-2.6767e-05
-2.41233e-05
-2.14177e-05
-1.84999e-05
-1.55137e-05
-1.23011e-05
-9.02379e-06
-5.51888e-06
-1.97478e-06
0.000684301
0.000644985
0.000597422
0.000542211
0.000480763
0.000415061
0.000347422
0.000280253
0.00021578
0.00015578
0.0001014
5.31215e-05
1.08703e-05
-2.57846e-05
-5.74354e-05
-8.46998e-05
-0.000108154
-0.00012831
-0.000145619
-0.000160463
-0.000173171
-0.000184015
-0.000193225
-0.000200998
-0.000207507
-0.000212901
-0.000217313
-0.000220858
-0.000223637
-0.000225739
-0.00022724
-0.00022821
-0.000228708
-0.000228787
-0.000228494
-0.000227872
-0.000226956
-0.00022578
-0.000224374
-0.000222763
-0.00022097
-0.000219018
-0.000216924
-0.000214707
-0.00021238
-0.000209959
-0.000207457
-0.000204884
-0.000202252
-0.000199569
-0.000196845
-0.000194088
-0.000191304
-0.000188502
-0.000185686
-0.000182862
-0.000180035
-0.000177211
-0.000174393
-0.000171585
-0.000168791
-0.000166013
-0.000163256
-0.000160521
-0.000157811
-0.000155128
-0.000152474
-0.000149851
-0.000147261
-0.000144704
-0.000142183
-0.000139698
-0.000137251
-0.000134841
-0.00013247
-0.00013014
-0.000127848
-0.000125598
-0.000123387
-0.000121218
-0.00011909
-0.000117003
-0.000114956
-0.000112951
-0.000110985
-0.000109061
-0.000107176
-0.000105332
-0.000103526
-0.00010176
-0.00010003
-9.83392e-05
-9.66834e-05
-9.50655e-05
-9.34806e-05
-9.19322e-05
-9.04146e-05
-8.8932e-05
-8.74777e-05
-8.60567e-05
-8.46611e-05
-8.32969e-05
-8.19551e-05
-8.06424e-05
-7.93488e-05
-7.80819e-05
-7.68303e-05
-7.5603e-05
-7.43866e-05
-7.3192e-05
-7.20034e-05
-7.08339e-05
-6.96649e-05
-6.8512e-05
-6.7354e-05
-6.62084e-05
-6.50516e-05
-6.39035e-05
-6.27373e-05
-6.15758e-05
-6.03883e-05
-5.92016e-05
-5.79799e-05
-5.67548e-05
-5.54852e-05
-5.4207e-05
-5.28746e-05
-5.15275e-05
-5.01153e-05
-4.86825e-05
-4.7172e-05
-4.5635e-05
-4.40064e-05
-4.23445e-05
-4.05773e-05
-3.8768e-05
-3.68393e-05
-3.48593e-05
-3.27436e-05
-3.05685e-05
-2.82404e-05
-2.58444e-05
-2.32803e-05
-2.06382e-05
-1.7816e-05
-1.49089e-05
-1.18129e-05
-8.63534e-06
-5.27314e-06
-1.85148e-06
0.00063541
0.000599576
0.000556873
0.000507902
0.000453812
0.000396136
0.000336638
0.000277164
0.000219467
0.00016502
0.000114875
6.96013e-05
2.93222e-05
-6.16453e-06
-3.72472e-05
-6.43811e-05
-8.80165e-05
-0.000108568
-0.000126407
-0.000141863
-0.000155223
-0.000166737
-0.000176619
-0.000185058
-0.000192217
-0.00019824