/*--------------------------------*- C++ -*----------------------------------*\
| =========                 |                                                 |
| \\      /  F ield         | OpenFOAM: The Open Source CFD Toolbox           |
|  \\    /   O peration     | Version:  2.3.0                                 |
|   \\  /    A nd           | Web:      www.OpenFOAM.org                      |
|    \\/     M anipulation  |                                                 |
\*---------------------------------------------------------------------------*/
FoamFile
{
    version     2.0;
    format      ascii;
    class       surfaceScalarField;
    location    "0.65";
    object      phi;
}
// * * * * * * * * * * * * * * * * * * * * * * * * * * * * * * * * * * * * * //

dimensions      [0 3 -1 0 0 0 0];

internalField   nonuniform List<scalar> 
11667
(
2.25819e-08
2.21207e-09
-2.47939e-08
1.98978e-08
2.68407e-09
1.7229e-08
2.66876e-09
1.47762e-08
2.45284e-09
1.25736e-08
2.2026e-09
1.06664e-08
1.90717e-09
9.10193e-09
1.5645e-09
7.88072e-09
1.22121e-09
6.96934e-09
9.11376e-10
6.3086e-09
6.60745e-10
5.83344e-09
4.75156e-10
5.48681e-09
3.46633e-10
5.22466e-09
2.62153e-10
5.01568e-09
2.08973e-10
4.83891e-09
1.76774e-10
4.68162e-09
1.57285e-10
4.53704e-09
1.44586e-10
4.40198e-09
1.35055e-10
4.27516e-09
1.26819e-10
4.15608e-09
1.19085e-10
4.04445e-09
1.11631e-10
3.93997e-09
1.04475e-10
3.84226e-09
9.77079e-11
3.75085e-09
9.14111e-11
3.66522e-09
8.56314e-11
3.58485e-09
8.03758e-11
3.50922e-09
7.56216e-11
3.4379e-09
7.13284e-11
3.37045e-09
6.7448e-11
3.30652e-09
6.3931e-11
3.24579e-09
6.07312e-11
3.18798e-09
5.78075e-11
3.13285e-09
5.51241e-11
3.0802e-09
5.2651e-11
3.02984e-09
5.03628e-11
2.9816e-09
4.82384e-11
2.93534e-09
4.626e-11
2.89093e-09
4.44127e-11
2.84825e-09
4.26837e-11
2.80718e-09
4.10623e-11
2.76764e-09
3.95389e-11
2.72954e-09
3.81053e-11
2.69279e-09
3.6754e-11
2.65731e-09
3.54786e-11
2.62303e-09
3.42732e-11
2.5899e-09
3.31325e-11
2.55785e-09
3.20516e-11
2.52682e-09
3.10263e-11
2.49677e-09
3.00525e-11
2.46764e-09
2.91268e-11
2.4394e-09
2.82456e-11
2.41199e-09
2.74062e-11
2.38539e-09
2.66055e-11
2.35954e-09
2.58414e-11
2.33443e-09
2.51112e-11
2.31002e-09
2.4413e-11
2.28628e-09
2.37448e-11
2.26317e-09
2.31049e-11
2.24068e-09
2.24913e-11
2.21878e-09
2.1903e-11
2.19744e-09
2.1338e-11
2.17664e-09
2.07956e-11
2.15637e-09
2.0274e-11
2.1366e-09
1.97725e-11
2.11731e-09
1.92896e-11
2.09848e-09
1.88249e-11
2.08011e-09
1.83769e-11
2.06216e-09
1.79453e-11
2.04463e-09
1.75286e-11
2.0275e-09
1.71269e-11
2.01077e-09
1.67386e-11
1.9944e-09
1.63639e-11
1.9784e-09
1.60013e-11
1.96275e-09
1.56512e-11
1.94744e-09
1.53118e-11
1.93245e-09
1.49839e-11
1.91779e-09
1.46657e-11
1.90343e-09
1.43581e-11
1.88937e-09
1.40592e-11
1.8756e-09
1.37701e-11
1.86211e-09
1.34888e-11
1.8489e-09
1.32167e-11
1.83594e-09
1.29514e-11
1.82325e-09
1.26947e-11
1.8108e-09
1.24441e-11
1.7986e-09
1.22017e-11
1.78664e-09
1.19644e-11
1.7749e-09
1.1735e-11
1.76339e-09
1.151e-11
1.7521e-09
1.12925e-11
1.74102e-09
1.10787e-11
1.73015e-09
1.08722e-11
1.71948e-09
1.06686e-11
1.70901e-09
1.04724e-11
1.69873e-09
1.02781e-11
1.68864e-09
1.00912e-11
1.67873e-09
9.90554e-12
1.66901e-09
9.72734e-12
1.65946e-09
9.5494e-12
1.65008e-09
9.37931e-12
1.64087e-09
9.20839e-12
1.63182e-09
9.0459e-12
1.62294e-09
8.88133e-12
1.61422e-09
8.726e-12
1.60565e-09
8.56714e-12
1.59723e-09
8.41862e-12
1.58897e-09
8.26486e-12
1.58084e-09
8.12288e-12
1.57287e-09
7.97359e-12
1.56503e-09
7.83801e-12
1.55734e-09
7.69253e-12
1.54978e-09
7.56335e-12
1.54235e-09
7.42097e-12
1.53506e-09
7.29836e-12
1.5279e-09
7.15837e-12
1.52086e-09
7.04262e-12
1.51395e-09
6.90425e-12
1.50716e-09
6.79581e-12
1.5005e-09
6.6582e-12
1.49394e-09
6.55779e-12
1.48752e-09
6.41989e-12
1.48119e-09
6.32858e-12
1.475e-09
6.1891e-12
1.46889e-09
6.10838e-12
1.46293e-09
5.96577e-12
1.45703e-09
5.89754e-12
1.45128e-09
5.75e-12
1.44558e-09
5.69663e-12
1.44004e-09
5.54198e-12
1.43453e-09
5.50661e-12
1.42919e-09
5.34201e-12
1.42386e-09
5.32886e-12
1.41871e-09
5.15064e-12
1.41355e-09
5.16516e-12
1.40858e-09
4.96869e-12
1.40356e-09
5.01769e-12
1.39876e-09
4.79724e-12
1.39388e-09
4.88957e-12
1.38924e-09
4.63774e-12
1.38445e-09
4.78552e-12
1.37996e-09
4.49224e-12
1.37525e-09
4.71184e-12
1.37088e-09
4.36353e-12
1.36621e-09
4.67717e-12
1.36195e-09
4.25502e-12
1.35726e-09
4.69513e-12
1.35309e-09
4.17051e-12
1.34829e-09
4.79251e-12
1.34416e-09
4.13395e-12
5.57168e-12
2.68336e-08
1.97259e-09
-2.65941e-08
2.67189e-08
2.79872e-09
2.62061e-08
3.1816e-09
2.54557e-08
3.20325e-09
2.45679e-08
3.0904e-09
2.35737e-08
2.90137e-09
2.24988e-08
2.63934e-09
2.13956e-08
2.32442e-09
2.03147e-08
1.99225e-09
1.92929e-08
1.68256e-09
1.83488e-08
1.41923e-09
1.74882e-08
1.20732e-09
1.67102e-08
1.04009e-09
1.60117e-08
9.07497e-10
1.53852e-08
8.03282e-10
1.48221e-08
7.20407e-10
1.43138e-08
6.52881e-10
1.38525e-08
5.963e-10
1.34316e-08
5.47717e-10
1.30455e-08
5.05246e-10
1.26894e-08
4.67685e-10
1.23596e-08
4.3424e-10
1.2053e-08
4.04344e-10
1.17669e-08
3.77567e-10
1.14989e-08
3.5355e-10
1.12473e-08
3.31973e-10
1.10104e-08
3.12547e-10
1.07867e-08
2.95008e-10
1.05751e-08
2.7912e-10
1.03743e-08
2.64675e-10
1.01836e-08
2.51492e-10
1.0002e-08
2.39415e-10
9.82877e-09
2.28309e-10
9.66336e-09
2.18061e-10
9.50515e-09
2.08574e-10
9.35362e-09
1.99766e-10
9.20831e-09
1.91566e-10
9.06881e-09
1.83913e-10
8.93474e-09
1.76755e-10
8.80576e-09
1.70047e-10
8.68155e-09
1.63748e-10
8.56183e-09
1.57825e-10
8.44634e-09
1.52245e-10
8.33484e-09
1.4698e-10
8.2271e-09
1.42006e-10
8.12293e-09
1.37301e-10
8.02214e-09
1.32843e-10
7.92455e-09
1.28616e-10
7.83e-09
1.24601e-10
7.73835e-09
1.20784e-10
7.64944e-09
1.17152e-10
7.56316e-09
1.13691e-10
7.47937e-09
1.10391e-10
7.39797e-09
1.0724e-10
7.31885e-09
1.04229e-10
7.24192e-09
1.01351e-10
7.16707e-09
9.8595e-11
7.09422e-09
9.59556e-11
7.02328e-09
9.34251e-11
6.95419e-09
9.09976e-11
6.88686e-09
8.86667e-11
6.82123e-09
8.64278e-11
6.75722e-09
8.42748e-11
6.69479e-09
8.22042e-11
6.63387e-09
8.02104e-11
6.57441e-09
7.82906e-11
6.51634e-09
7.64397e-11
6.45963e-09
7.46556e-11
6.40423e-09
7.29335e-11
6.35008e-09
7.12719e-11
6.29716e-09
6.96661e-11
6.2454e-09
6.81153e-11
6.19479e-09
6.66147e-11
6.14528e-09
6.51643e-11
6.09683e-09
6.37593e-11
6.04941e-09
6.24001e-11
6.003e-09
6.10819e-11
5.95755e-09
5.98058e-11
5.91304e-09
5.85667e-11
5.86945e-09
5.73664e-11
5.82674e-09
5.61995e-11
5.78488e-09
5.50684e-11
5.74387e-09
5.39674e-11
5.70366e-09
5.28997e-11
5.66425e-09
5.18589e-11
5.6256e-09
5.08491e-11
5.5877e-09
4.98634e-11
5.55053e-09
4.89067e-11
5.51407e-09
4.79713e-11
5.4783e-09
4.70634e-11
5.4432e-09
4.61742e-11
5.40876e-09
4.53111e-11
5.37497e-09
4.44641e-11
5.3418e-09
4.36422e-11
5.30924e-09
4.28338e-11
5.27728e-09
4.20498e-11
5.24591e-09
4.12768e-11
5.21511e-09
4.05278e-11
5.18488e-09
3.97871e-11
5.15518e-09
3.90703e-11
5.12603e-09
3.8359e-11
5.09741e-09
3.76723e-11
5.0693e-09
3.69877e-11
5.0417e-09
3.63289e-11
5.0146e-09
3.56687e-11
4.98798e-09
3.5036e-11
4.96185e-09
3.43978e-11
4.93618e-09
3.37897e-11
4.91098e-09
3.31713e-11
4.88623e-09
3.25867e-11
4.86194e-09
3.19859e-11
4.83808e-09
3.14239e-11
4.81466e-09
3.08385e-11
4.79166e-09
3.02989e-11
4.76909e-09
2.97267e-11
4.74693e-09
2.92096e-11
4.72518e-09
2.86485e-11
4.70382e-09
2.81542e-11
4.68288e-09
2.76019e-11
4.66231e-09
2.71316e-11
4.64214e-09
2.65857e-11
4.62233e-09
2.61413e-11
4.60292e-09
2.55988e-11
4.58384e-09
2.51834e-11
4.56517e-09
2.46411e-11
4.54681e-09
2.42585e-11
4.52884e-09
2.37127e-11
4.51117e-09
2.33679e-11
4.4939e-09
2.28145e-11
4.47689e-09
2.25142e-11
4.46029e-09
2.1948e-11
4.44391e-09
2.17011e-11
4.42795e-09
2.11158e-11
4.41218e-09
2.09339e-11
4.39683e-09
2.03217e-11
4.38163e-09
2.02188e-11
4.36685e-09
1.95708e-11
4.35218e-09
1.9565e-11
4.33794e-09
1.88708e-11
4.32374e-09
1.89857e-11
4.31e-09
1.82322e-11
4.29622e-09
1.84979e-11
4.28291e-09
1.76706e-11
4.26946e-09
1.81238e-11
4.25651e-09
1.72094e-11
4.24331e-09
1.7893e-11
4.23059e-09
1.68879e-11
4.21753e-09
1.78576e-11
4.20479e-09
1.68689e-11
1.89266e-11
2.78637e-08
1.85982e-09
-2.7751e-08
2.81739e-08
2.48851e-09
2.83971e-08
2.95848e-09
2.84651e-08
3.13519e-09
2.84212e-08
3.13432e-09
2.82729e-08
3.04971e-09
2.80093e-08
2.90293e-09
2.76359e-08
2.69782e-09
2.71745e-08
2.45366e-09
2.66542e-08
2.20276e-09
2.6101e-08
1.97252e-09
2.5533e-08
1.77529e-09
2.49625e-08
1.61062e-09
2.4397e-08
1.47297e-09
2.38426e-08
1.35763e-09
2.33032e-08
1.25987e-09
2.27807e-08
1.17537e-09
2.22762e-08
1.10077e-09
2.17902e-08
1.03369e-09
2.13229e-08
9.72593e-10
2.08741e-08
9.16517e-10
2.04435e-08
8.64832e-10
2.00307e-08
8.17097e-10
1.96353e-08
7.72993e-10
1.92566e-08
7.32246e-10
1.8894e-08
6.94603e-10
1.85467e-08
6.59819e-10
1.8214e-08
6.27657e-10
1.78953e-08
5.9789e-10
1.75896e-08
5.70305e-10
1.72964e-08
5.44705e-10
1.70149e-08
5.20908e-10
1.67445e-08
4.9875e-10
1.64845e-08
4.78082e-10
1.62343e-08
4.58772e-10
1.59933e-08
4.40698e-10
1.57612e-08
4.23755e-10
1.55372e-08
4.07846e-10
1.53211e-08
3.92885e-10
1.51123e-08
3.78795e-10
1.49106e-08
3.65506e-10
1.47155e-08
3.52957e-10
1.45266e-08
3.4109e-10
1.43437e-08
3.29853e-10
1.41665e-08
3.19202e-10
1.39948e-08
3.09093e-10
1.38281e-08
2.99487e-10
1.36664e-08
2.90351e-10
1.35093e-08
2.81651e-10
1.33567e-08
2.7336e-10
1.32085e-08
2.65449e-10
1.30642e-08
2.57896e-10
1.2924e-08
2.50676e-10
1.27874e-08
2.43769e-10
1.26545e-08
2.37157e-10
1.2525e-08
2.30822e-10
1.23989e-08
2.24747e-10
1.22759e-08
2.18918e-10
1.2156e-08
2.13321e-10
1.20391e-08
2.07943e-10
1.1925e-08
2.02771e-10
1.18136e-08
1.97795e-10
1.17049e-08
1.93004e-10
1.15987e-08
1.8839e-10
1.1495e-08
1.83941e-10
1.13936e-08
1.79651e-10
1.12945e-08
1.75511e-10
1.11977e-08
1.71515e-10
1.11029e-08
1.67654e-10
1.10103e-08
1.63923e-10
1.09196e-08
1.60315e-10
1.08309e-08
1.56825e-10
1.07441e-08
1.53446e-10
1.06591e-08
1.50176e-10
1.05758e-08
1.47006e-10
1.04943e-08
1.43935e-10
1.04144e-08
1.40955e-10
1.03362e-08
1.38066e-10
1.02595e-08
1.3526e-10
1.01843e-08
1.32538e-10
1.01106e-08
1.29891e-10
1.00384e-08
1.27321e-10
9.96752e-09
1.2482e-10
9.89803e-09
1.2239e-10
9.82987e-09
1.20021e-10
9.763e-09
1.1772e-10
9.69739e-09
1.15473e-10
9.633e-09
1.13289e-10
9.56982e-09
1.11155e-10
9.50781e-09
1.09078e-10
9.44693e-09
1.07047e-10
9.38717e-09
1.0507e-10
9.32851e-09
1.03133e-10
9.2709e-09
1.01247e-10
9.21434e-09
9.93961e-11
9.15879e-09
9.75941e-11
9.10425e-09
9.58226e-11
9.05068e-09
9.40979e-11
8.99807e-09
9.2399e-11
8.94639e-09
9.07455e-11
8.89564e-09
8.91129e-11
8.84578e-09
8.75254e-11
8.79682e-09
8.59534e-11
8.74872e-09
8.44268e-11
8.70148e-09
8.29102e-11
8.65508e-09
8.14402e-11
8.6095e-09
7.99741e-11
8.56473e-09
7.85568e-11
8.52077e-09
7.71365e-11
8.47758e-09
7.57688e-11
8.43518e-09
7.43897e-11
8.39354e-09
7.30693e-11
8.35265e-09
7.17271e-11
8.31249e-09
7.04521e-11
8.27308e-09
6.91429e-11
8.23437e-09
6.79122e-11
8.19639e-09
6.6632e-11
8.1591e-09
6.54451e-11
8.12251e-09
6.41902e-11
8.0866e-09
6.30478e-11
8.05137e-09
6.18143e-11
8.01679e-09
6.07182e-11
7.98289e-09
5.95019e-11
7.94962e-09
5.84556e-11
7.917e-09
5.7252e-11
7.885e-09
5.62602e-11
7.85365e-09
5.50652e-11
7.82288e-09
5.41339e-11
7.79276e-09
5.29432e-11
7.76319e-09
5.20807e-11
7.73425e-09
5.08892e-11
7.70584e-09
5.0107e-11
7.67805e-09
4.89091e-11
7.65076e-09
4.82215e-11
7.62407e-09
4.70115e-11
7.59785e-09
4.64355e-11
7.57222e-09
4.52087e-11
7.54702e-09
4.47651e-11
7.52237e-09
4.35182e-11
7.49812e-09
4.32331e-11
7.47439e-09
4.19653e-11
7.45102e-09
4.18684e-11
7.4281e-09
4.05871e-11
7.40552e-09
4.07073e-11
7.38329e-09
3.94396e-11
7.36138e-09
3.97978e-11
7.33966e-09
3.86121e-11
7.31827e-09
3.92452e-11
7.29678e-09
3.83564e-11
4.004e-11
2.88745e-08
1.81429e-09
-2.88289e-08
2.91007e-08
2.26226e-09
2.93927e-08
2.66654e-09
2.96342e-08
2.89363e-09
2.98175e-08
2.95101e-09
2.99519e-08
2.91539e-09
3.00281e-08
2.82672e-09
3.00327e-08
2.69317e-09
2.99625e-08
2.52385e-09
2.9827e-08
2.33829e-09
2.9641e-08
2.15847e-09
2.94183e-08
1.99807e-09
2.91681e-08
1.86079e-09
2.88967e-08
1.74435e-09
2.86094e-08
1.64496e-09
2.83102e-08
1.55904e-09
2.80022e-08
1.48344e-09
2.76873e-08
1.41558e-09
2.73675e-08
1.35353e-09
2.70441e-08
1.296e-09
2.67185e-08
1.24214e-09
2.63919e-08
1.19144e-09
2.60654e-08
1.14356e-09
2.57401e-08
1.09829e-09
2.54169e-08
1.05546e-09
2.50965e-08
1.01494e-09
2.47798e-08
9.7659e-10
2.44671e-08
9.40281e-10
2.41592e-08
9.05887e-10
2.38562e-08
8.73289e-10
2.35585e-08
8.42371e-10
2.32664e-08
8.13024e-10
2.298e-08
7.85148e-10
2.26994e-08
7.58649e-10
2.24248e-08
7.3344e-10
2.2156e-08
7.09444e-10
2.18932e-08
6.86585e-10
2.16362e-08
6.64798e-10
2.13851e-08
6.44018e-10
2.11397e-08
6.24188e-10
2.08999e-08
6.05253e-10
2.06657e-08
5.87163e-10
2.0437e-08
5.69869e-10
2.02135e-08
5.53329e-10
1.99952e-08
5.37499e-10
1.97819e-08
5.22341e-10
1.95736e-08
5.07818e-10
1.93701e-08
4.93896e-10
1.91712e-08
4.80542e-10
1.89768e-08
4.67725e-10
1.87868e-08
4.55418e-10
1.86011e-08
4.43593e-10
1.84196e-08
4.32226e-10
1.82421e-08
4.21292e-10
1.80685e-08
4.1077e-10
1.78986e-08
4.0064e-10
1.77325e-08
3.9088e-10
1.757e-08
3.81473e-10
1.74109e-08
3.72402e-10
1.72552e-08
3.63651e-10
1.71027e-08
3.55203e-10
1.69535e-08
3.47046e-10
1.68073e-08
3.39164e-10
1.66642e-08
3.31547e-10
1.65239e-08
3.2418e-10
1.63865e-08
3.17055e-10
1.62519e-08
3.10157e-10
1.61199e-08
3.0348e-10
1.59906e-08
2.97011e-10
1.58637e-08
2.90744e-10
1.57394e-08
2.84667e-10
1.56174e-08
2.78775e-10
1.54978e-08
2.73057e-10
1.53805e-08
2.67509e-10
1.52654e-08
2.62121e-10
1.51524e-08
2.56889e-10
1.50416e-08
2.51803e-10
1.49328e-08
2.46861e-10
1.4826e-08
2.42053e-10
1.47211e-08
2.37378e-10
1.46182e-08
2.32826e-10
1.45171e-08
2.28397e-10
1.44179e-08
2.2408e-10
1.43204e-08
2.19878e-10
1.42246e-08
2.15778e-10
1.41306e-08
2.11784e-10
1.40382e-08
2.07884e-10
1.39474e-08
2.04083e-10
1.38581e-08
2.00366e-10
1.37705e-08
1.96742e-10
1.36843e-08
1.93195e-10
1.35997e-08
1.89735e-10
1.35165e-08
1.86344e-10
1.34347e-08
1.83034e-10
1.33543e-08
1.79788e-10
1.32753e-08
1.76617e-10
1.31976e-08
1.73503e-10
1.31212e-08
1.70459e-10
1.30461e-08
1.67467e-10
1.29723e-08
1.64542e-10
1.28998e-08
1.61661e-10
1.28285e-08
1.58845e-10
1.27584e-08
1.56067e-10
1.26894e-08
1.53352e-10
1.26217e-08
1.50667e-10
1.25551e-08
1.48045e-10
1.24896e-08
1.45447e-10
1.24253e-08
1.42912e-10
1.2362e-08
1.40392e-10
1.22998e-08
1.37937e-10
1.22387e-08
1.35489e-10
1.21787e-08
1.3311e-10
1.21197e-08
1.30726e-10
1.20617e-08
1.28419e-10
1.20048e-08
1.26095e-10
1.19488e-08
1.23856e-10
1.18939e-08
1.21585e-10
1.18399e-08
1.19413e-10
1.17869e-08
1.1719e-10
1.17349e-08
1.15084e-10
1.16838e-08
1.12904e-10
1.16336e-08
1.10864e-10
1.15844e-08
1.08723e-10
1.15361e-08
1.06751e-10
1.14887e-08
1.04645e-10
1.14422e-08
1.02745e-10
1.13966e-08
1.0067e-10
1.13519e-08
9.88474e-11
1.13081e-08
9.68015e-11
1.12651e-08
9.50634e-11
1.12229e-08
9.30448e-11
1.11816e-08
9.1402e-11
1.11411e-08
8.94097e-11
1.11015e-08
8.78752e-11
1.10626e-08
8.59111e-11
1.10245e-08
8.44993e-11
1.09872e-08
8.25704e-11
1.09506e-08
8.12976e-11
1.09147e-08
7.94175e-11
1.08797e-08
7.83034e-11
1.08451e-08
7.64952e-11
1.08114e-08
7.55593e-11
1.07782e-08
7.38654e-11
1.07457e-08
7.31204e-11
1.07136e-08
7.1616e-11
1.06823e-08
7.10691e-11
1.0651e-08
6.98737e-11
1.06207e-08
6.95974e-11
1.05901e-08
6.8924e-11
6.96151e-11
2.99031e-08
1.76587e-09
-2.98547e-08
3.00596e-08
2.10582e-09
3.03001e-08
2.426e-09
3.05428e-08
2.6509e-09
3.07517e-08
2.74211e-09
3.09303e-08
2.73684e-09
3.10804e-08
2.6766e-09
3.11934e-08
2.58021e-09
3.1261e-08
2.45623e-09
3.12833e-08
2.31599e-09
3.12674e-08
2.17433e-09
3.12221e-08
2.04336e-09
3.1154e-08
1.92896e-09
3.10671e-08
1.83117e-09
3.09647e-08
1.74739e-09
3.0849e-08
1.67476e-09
3.07216e-08
1.61081e-09
3.05837e-08
1.55351e-09
3.0436e-08
1.50127e-09
3.02791e-08
1.4529e-09
3.01136e-08
1.40762e-09
2.99402e-08
1.36487e-09
2.97594e-08
1.3243e-09
2.9572e-08
1.28567e-09
2.93787e-08
1.24881e-09
2.918e-08
1.21358e-09
2.89768e-08
1.17987e-09
2.87695e-08
1.14756e-09
2.85588e-08
1.11656e-09
2.83453e-08
1.08679e-09
2.81295e-08
1.05815e-09
2.7912e-08
1.03059e-09
2.76931e-08
1.00402e-09
2.74734e-08
9.78398e-10
2.72531e-08
9.53662e-10
2.70328e-08
9.29769e-10
2.68127e-08
9.06675e-10
2.65932e-08
8.84343e-10
2.63744e-08
8.62739e-10
2.61568e-08
8.41832e-10
2.59405e-08
8.21593e-10
2.57256e-08
8.01996e-10
2.55125e-08
7.83017e-10
2.53012e-08
7.64632e-10
2.50919e-08
7.46818e-10
2.48846e-08
7.29556e-10
2.46796e-08
7.12824e-10
2.44769e-08
6.96605e-10
2.42766e-08
6.8088e-10
2.40787e-08
6.6563e-10
2.38833e-08
6.5084e-10
2.36904e-08
6.36493e-10
2.35e-08
6.22573e-10
2.33122e-08
6.09066e-10
2.31271e-08
5.95956e-10
2.29445e-08
5.8323e-10
2.27645e-08
5.70874e-10
2.25871e-08
5.58876e-10
2.24123e-08
5.47222e-10
2.224e-08
5.35902e-10
2.20703e-08
5.24901e-10
2.19031e-08
5.1421e-10
2.17385e-08
5.03818e-10
2.15763e-08
4.93715e-10
2.14166e-08
4.83888e-10
2.12593e-08
4.74332e-10
2.11045e-08
4.65033e-10
2.0952e-08
4.55986e-10
2.08018e-08
4.47179e-10
2.06539e-08
4.38606e-10
2.05083e-08
4.30256e-10
2.0365e-08
4.22126e-10
2.02238e-08
4.14202e-10
2.00849e-08
4.06483e-10
1.9948e-08
3.98957e-10
1.98133e-08
3.91621e-10
1.96806e-08
3.84464e-10
1.955e-08
3.77486e-10
1.94214e-08
3.70674e-10
1.92947e-08
3.64027e-10
1.917e-08
3.57536e-10
1.90472e-08
3.512e-10
1.89263e-08
3.45007e-10
1.88072e-08
3.38959e-10
1.86899e-08
3.33044e-10
1.85745e-08
3.27264e-10
1.84607e-08
3.21607e-10
1.83488e-08
3.16076e-10
1.82385e-08
3.10659e-10
1.81298e-08
3.05359e-10
1.80229e-08
3.00166e-10
1.79175e-08
2.95081e-10
1.78138e-08
2.90094e-10
1.77116e-08
2.85208e-10
1.7611e-08
2.80414e-10
1.75119e-08
2.75713e-10
1.74143e-08
2.71096e-10
1.73182e-08
2.66565e-10
1.72235e-08
2.62113e-10
1.71303e-08
2.57741e-10
1.70386e-08
2.5344e-10
1.69482e-08
2.49214e-10
1.68592e-08
2.45053e-10
1.67716e-08
2.40962e-10
1.66853e-08
2.36931e-10
1.66004e-08
2.32965e-10
1.65168e-08
2.29053e-10
1.64345e-08
2.25202e-10
1.63535e-08
2.214e-10
1.62738e-08
2.17656e-10
1.61953e-08
2.13954e-10
1.61181e-08
2.1031e-10
1.60421e-08
2.06701e-10
1.59674e-08
2.03151e-10
1.58939e-08
1.99626e-10
1.58216e-08
1.96164e-10
1.57504e-08
1.92719e-10
1.56805e-08
1.89339e-10
1.56117e-08
1.85968e-10
1.55442e-08
1.82667e-10
1.54777e-08
1.79365e-10
1.54124e-08
1.76142e-10
1.53482e-08
1.72906e-10
1.52852e-08
1.6976e-10
1.52233e-08
1.66587e-10
1.51625e-08
1.6352e-10
1.51028e-08
1.6041e-10
1.50442e-08
1.57422e-10
1.49866e-08
1.54378e-10
1.49302e-08
1.51474e-10
1.48747e-08
1.48502e-10
1.48205e-08
1.45687e-10
1.47671e-08
1.42794e-10
1.47149e-08
1.40077e-10
1.46635e-08
1.37277e-10
1.46133e-08
1.34664e-10
1.45639e-08
1.31982e-10
1.45158e-08
1.29481e-10
1.44682e-08
1.26952e-10
1.44219e-08
1.24573e-10
1.43762e-08
1.22248e-10
1.43318e-08
1.2e-10
1.42877e-08
1.17953e-10
1.42449e-08
1.15844e-10
1.42024e-08
1.14181e-10
1.41612e-08
1.12234e-10
1.412e-08
1.11089e-10
1.40801e-08
1.09447e-10
1.40401e-08
1.08991e-10
1.08225e-10
3.09308e-08
1.71002e-09
-3.0875e-08
3.10533e-08
1.98335e-09
3.1243e-08
2.23633e-09
3.14558e-08
2.43806e-09
3.16528e-08
2.54514e-09
3.1825e-08
2.56463e-09
3.19752e-08
2.52642e-09
3.21015e-08
2.45391e-09
3.21988e-08
2.35885e-09
3.22654e-08
2.24945e-09
3.23044e-08
2.1353e-09
3.23219e-08
2.0259e-09
3.23233e-08
1.92757e-09
3.23123e-08
1.84211e-09
3.22914e-08
1.76834e-09
3.22619e-08
1.70417e-09
3.22251e-08
1.64768e-09
3.21813e-08
1.59725e-09
3.2131e-08
1.5516e-09
3.20742e-08
1.50973e-09
3.20109e-08
1.47089e-09
3.19412e-08
1.43453e-09
3.18653e-08
1.40029e-09
3.17831e-08
1.36787e-09
3.16948e-08
1.33706e-09
3.16007e-08
1.30771e-09
3.15009e-08
1.27966e-09
3.13956e-08
1.2528e-09
3.12852e-08
1.22702e-09
3.11698e-08
1.20221e-09
3.10496e-08
1.17829e-09
3.0925e-08
1.15517e-09
3.07963e-08
1.1328e-09
3.06636e-08
1.1111e-09
3.05272e-08
1.09003e-09
3.03874e-08
1.06953e-09
3.02445e-08
1.04958e-09
3.00988e-08
1.03013e-09
2.99503e-08
1.01115e-09
2.97995e-08
9.92627e-10
2.96466e-08
9.7453e-10
2.94918e-08
9.56842e-10
2.93352e-08
9.39546e-10
2.91772e-08
9.22626e-10
2.9018e-08
9.0607e-10
2.88577e-08
8.89866e-10
2.86965e-08
8.74003e-10
2.85346e-08
8.58471e-10
2.83723e-08
8.4326e-10
2.82095e-08
8.28364e-10
2.80466e-08
8.13773e-10
2.78836e-08
7.99482e-10
2.77207e-08
7.85482e-10
2.7558e-08
7.7177e-10
2.73956e-08
7.58336e-10
2.72337e-08
7.45178e-10
2.70722e-08
7.32287e-10
2.69115e-08
7.1966e-10
2.67514e-08
7.0729e-10
2.65921e-08
6.95173e-10
2.64337e-08
6.83302e-10
2.62763e-08
6.71673e-10
2.61198e-08
6.60281e-10
2.59644e-08
6.49121e-10
2.58101e-08
6.38188e-10
2.56569e-08
6.27478e-10
2.5505e-08
6.16985e-10
2.53543e-08
6.06705e-10
2.52048e-08
5.96633e-10
2.50567e-08
5.86766e-10
2.49098e-08
5.77096e-10
2.47643e-08
5.67621e-10
2.46202e-08
5.58335e-10
2.44774e-08
5.49235e-10
2.43361e-08
5.40315e-10
2.41961e-08
5.31571e-10
2.40576e-08
5.22998e-10
2.39205e-08
5.14594e-10
2.37848e-08
5.06352e-10
2.36506e-08
4.98269e-10
2.35178e-08
4.9034e-10
2.33864e-08
4.82563e-10
2.32565e-08
4.74931e-10
2.3128e-08
4.67442e-10
2.30009e-08
4.60091e-10
2.28753e-08
4.52873e-10
2.27512e-08
4.45787e-10
2.26284e-08
4.38825e-10
2.25071e-08
4.31989e-10
2.23872e-08
4.25268e-10
2.22687e-08
4.18666e-10
2.21516e-08
4.12171e-10
2.20359e-08
4.0579e-10
2.19216e-08
3.99507e-10
2.18087e-08
3.93332e-10
2.16971e-08
3.87246e-10
2.1587e-08
3.81265e-10
2.14782e-08
3.75363e-10
2.13707e-08
3.69562e-10
2.12646e-08
3.63832e-10
2.11599e-08
3.58199e-10
2.10565e-08
3.52627e-10
2.09544e-08
3.47151e-10
2.08536e-08
3.41726e-10
2.07541e-08
3.36396e-10
2.0656e-08
3.31107e-10
2.05591e-08
3.25913e-10
2.04636e-08
3.20748e-10
2.03693e-08
3.15681e-10
2.02763e-08
3.10631e-10
2.01846e-08
3.05681e-10
2.00942e-08
3.00737e-10
2.0005e-08
2.95897e-10
1.99171e-08
2.91051e-10
1.98304e-08
2.86313e-10
1.9745e-08
2.81557e-10
1.96608e-08
2.76918e-10
1.95779e-08
2.72243e-10
1.94962e-08
2.67699e-10
1.94157e-08
2.631e-10
1.93364e-08
2.58649e-10
1.92585e-08
2.54121e-10
1.91816e-08
2.49761e-10
1.91061e-08
2.453e-10
1.90316e-08
2.41034e-10
1.89585e-08
2.36637e-10
1.88864e-08
2.32471e-10
1.88157e-08
2.28133e-10
1.8746e-08
2.24079e-10
1.86777e-08
2.19798e-10
1.86103e-08
2.1587e-10
1.85444e-08
2.11647e-10
1.84793e-08
2.07864e-10
1.84157e-08
2.03699e-10
1.83529e-08
2.00091e-10
1.82916e-08
1.95982e-10
1.82309e-08
1.92592e-10
1.81719e-08
1.88537e-10
1.81134e-08
1.85423e-10
1.80566e-08
1.81425e-10
1.80002e-08
1.78658e-10
1.79454e-08
1.74728e-10
1.7891e-08
1.72402e-10
1.78383e-08
1.68559e-10
1.77856e-08
1.6679e-10
1.77348e-08
1.63097e-10
1.76839e-08
1.62014e-10
1.76346e-08
1.58676e-10
1.75852e-08
1.58425e-10
1.55888e-10
3.19652e-08
1.65135e-09
-3.19065e-08
3.20692e-08
1.87928e-09
3.22214e-08
2.08416e-09
3.24018e-08
2.25764e-09
3.258e-08
2.367e-09
3.274e-08
2.40458e-09
3.28798e-08
2.38664e-09
3.29997e-08
2.33396e-09
3.30981e-08
2.26043e-09
3.31736e-08
2.17403e-09
3.32274e-08
2.08148e-09
3.32635e-08
1.98974e-09
3.32867e-08
1.90443e-09
3.33005e-08
1.82832e-09
3.33073e-08
1.76154e-09
3.33086e-08
1.70287e-09
3.33054e-08
1.6509e-09
3.32982e-08
1.60438e-09
3.32875e-08
1.56231e-09
3.32734e-08
1.52388e-09
3.32558e-08
1.48847e-09
3.32347e-08
1.45559e-09
3.32101e-08
1.42488e-09
3.3182e-08
1.39604e-09
3.31501e-08
1.36887e-09
3.31147e-08
1.34319e-09
3.30755e-08
1.31883e-09
3.30326e-08
1.29567e-09
3.29861e-08
1.27359e-09
3.29358e-08
1.25247e-09
3.28819e-08
1.23223e-09
3.28243e-08
1.21277e-09
3.2763e-08
1.19401e-09
3.26983e-08
1.17589e-09
3.26299e-08
1.15834e-09
3.25582e-08
1.1413e-09
3.2483e-08
1.12473e-09
3.24046e-08
1.10859e-09
3.23229e-08
1.09284e-09
3.22381e-08
1.07745e-09
3.21502e-08
1.06238e-09
3.20594e-08
1.04762e-09
3.19658e-08
1.03314e-09
3.18695e-08
1.01893e-09
3.17706e-08
1.00497e-09
3.16692e-08
9.91243e-10
3.15655e-08
9.77737e-10
3.14595e-08
9.64443e-10
3.13514e-08
9.51349e-10
3.12414e-08
9.38449e-10
3.11294e-08
9.25734e-10
3.10157e-08
9.13198e-10
3.09003e-08
9.00836e-10
3.07835e-08
8.88643e-10
3.06652e-08
8.76614e-10
3.05456e-08
8.64748e-10
3.04249e-08
8.5304e-10
3.0303e-08
8.41488e-10
3.01802e-08
8.30089e-10
3.00566e-08
8.18841e-10
2.99321e-08
8.0774e-10
2.9807e-08
7.96787e-10
2.96813e-08
7.85977e-10
2.95551e-08
7.75311e-10
2.94285e-08
7.64786e-10
2.93016e-08
7.54402e-10
2.91744e-08
7.44156e-10
2.90471e-08
7.34048e-10
2.89196e-08
7.24076e-10
2.87922e-08
7.14239e-10
2.86647e-08
7.04536e-10
2.85374e-08
6.94964e-10
2.84102e-08
6.85522e-10
2.82832e-08
6.76208e-10
2.81565e-08
6.67022e-10
2.80301e-08
6.57959e-10
2.79041e-08
6.49022e-10
2.77785e-08
6.40204e-10
2.76533e-08
6.31509e-10
2.75287e-08
6.22929e-10
2.74046e-08
6.14469e-10
2.7281e-08
6.06119e-10
2.7158e-08
5.97887e-10
2.70357e-08
5.89758e-10
2.69141e-08
5.81745e-10
2.67931e-08
5.73828e-10
2.66729e-08
5.66025e-10
2.65534e-08
5.58311e-10
2.64347e-08
5.50709e-10
2.63168e-08
5.43189e-10
2.61996e-08
5.35781e-10
2.60834e-08
5.28445e-10
2.59679e-08
5.21222e-10
2.58534e-08
5.1406e-10
2.57397e-08
5.07011e-10
2.56269e-08
5.00013e-10
2.55151e-08
4.9313e-10
2.54041e-08
4.86286e-10
2.52941e-08
4.79559e-10
2.51851e-08
4.72858e-10
2.5077e-08
4.6628e-10
2.497e-08
4.59712e-10
2.48638e-08
4.53273e-10
2.47587e-08
4.46828e-10
2.46546e-08
4.40521e-10
2.45515e-08
4.34188e-10
2.44494e-08
4.28006e-10
2.43484e-08
4.21774e-10
2.42484e-08
4.1571e-10
2.41494e-08
4.0957e-10
2.40515e-08
4.03618e-10
2.39547e-08
3.9756e-10
2.38589e-08
3.91714e-10
2.37642e-08
3.85731e-10
2.36705e-08
3.79988e-10
2.3578e-08
3.74067e-10
2.34865e-08
3.68427e-10
2.33962e-08
3.6256e-10
2.33068e-08
3.57023e-10
2.32187e-08
3.512e-10
2.31316e-08
3.45768e-10
2.30458e-08
3.39982e-10
2.29609e-08
3.34661e-10
2.28773e-08
3.28904e-10
2.27946e-08
3.23702e-10
2.27133e-08
3.17966e-10
2.26328e-08
3.12898e-10
2.25538e-08
3.07173e-10
2.24756e-08
3.0226e-10
2.23989e-08
2.96537e-10
2.23229e-08
2.91805e-10
2.22485e-08
2.86078e-10
2.21748e-08
2.81559e-10
2.21027e-08
2.75824e-10
2.20312e-08
2.71561e-10
2.19614e-08
2.6581e-10
2.18921e-08
2.61863e-10
2.18246e-08
2.56088e-10
2.17575e-08
2.52529e-10
2.16922e-08
2.46739e-10
2.16272e-08
2.43652e-10
2.1564e-08
2.37866e-10
2.15011e-08
2.35351e-10
2.144e-08
2.29613e-10
2.1379e-08
2.2779e-10
2.13199e-08
2.22203e-10
2.12607e-08
2.21198e-10
2.12034e-08
2.16009e-10
2.11459e-08
2.15963e-10
2.11538e-10
3.30127e-08
1.59363e-09
-3.2955e-08
3.31041e-08
1.78789e-09
3.32302e-08
1.95813e-09
3.33822e-08
2.10564e-09
3.35398e-08
2.20936e-09
3.36867e-08
2.25767e-09
3.38164e-08
2.25691e-09
3.39284e-08
2.22197e-09
3.40227e-08
2.16621e-09
3.40986e-08
2.09811e-09
3.41567e-08
2.02335e-09
3.41995e-08
1.94701e-09
3.42303e-08
1.87359e-09
3.42525e-08
1.80608e-09
3.42686e-08
1.7455e-09
3.428e-08
1.69148e-09
3.42878e-08
1.6431e-09
3.42927e-08
1.59946e-09
3.42952e-08
1.55977e-09
3.42957e-08
1.52343e-09
3.42942e-08
1.48994e-09
3.42909e-08
1.45891e-09
3.42857e-08
1.43002e-09
3.42788e-08
1.403e-09
3.427e-08
1.37766e-09
3.42594e-08
1.35382e-09
3.42468e-08
1.33134e-09
3.42324e-08
1.31009e-09
3.42161e-08
1.28995e-09
3.41977e-08
1.27082e-09
3.41773e-08
1.2526e-09
3.41549e-08
1.23521e-09
3.41304e-08
1.21856e-09
3.41037e-08
1.20258e-09
3.40748e-08
1.18721e-09
3.40437e-08
1.17239e-09
3.40104e-08
1.15806e-09
3.39748e-08
1.14419e-09
3.39369e-08
1.13072e-09
3.38967e-08
1.11762e-09
3.38543e-08
1.10487e-09
3.38095e-08
1.09242e-09
3.37624e-08
1.08025e-09
3.3713e-08
1.06833e-09
3.36613e-08
1.05666e-09
3.36073e-08
1.0452e-09
3.35511e-08
1.03394e-09
3.34927e-08
1.02286e-09
3.34321e-08
1.01195e-09
3.33694e-08
1.0012e-09
3.33045e-08
9.90596e-10
3.32376e-08
9.80127e-10
3.31686e-08
9.69786e-10
3.30977e-08
9.59565e-10
3.30249e-08
9.49456e-10
3.29501e-08
9.39456e-10
3.28736e-08
9.29558e-10
3.27954e-08
9.19757e-10
3.27154e-08
9.10051e-10
3.26338e-08
9.00435e-10
3.25506e-08
8.90907e-10
3.2466e-08
8.81461e-10
3.23798e-08
8.72098e-10
3.22923e-08
8.62813e-10
3.22035e-08
8.53607e-10
3.21134e-08
8.44475e-10
3.20222e-08
8.35419e-10
3.19298e-08
8.26436e-10
3.18363e-08
8.17529e-10
3.17419e-08
8.08692e-10
3.16465e-08
7.9993e-10
3.15502e-08
7.91235e-10
3.14531e-08
7.82616e-10
3.13553e-08
7.7406e-10
3.12567e-08
7.65578e-10
3.11575e-08
7.57158e-10
3.10577e-08
7.48812e-10
3.09574e-08
7.40524e-10
3.08566e-08
7.32313e-10
3.07554e-08
7.24157e-10
3.06538e-08
7.16079e-10
3.05518e-08
7.08052e-10
3.04496e-08
7.00105e-10
3.03472e-08
6.92203e-10
3.02445e-08
6.84384e-10
3.01418e-08
6.76603e-10
3.00389e-08
6.68907e-10
2.99359e-08
6.61241e-10
2.9833e-08
6.53666e-10
2.97301e-08
6.46112e-10
2.96272e-08
6.38655e-10
2.95244e-08
6.31207e-10
2.94218e-08
6.23864e-10
2.93193e-08
6.16518e-10
2.92171e-08
6.09284e-10
2.9115e-08
6.02031e-10
2.90133e-08
5.94902e-10
2.89118e-08
5.87737e-10
2.88107e-08
5.80708e-10
2.87099e-08
5.73622e-10
2.86095e-08
5.66689e-10
2.85095e-08
5.59676e-10
2.841e-08
5.52835e-10
2.83109e-08
5.45885e-10
2.82123e-08
5.39133e-10
2.81142e-08
5.32238e-10
2.80167e-08
5.25573e-10
2.79197e-08
5.18723e-10
2.78233e-08
5.12141e-10
2.77275e-08
5.05327e-10
2.76323e-08
4.98827e-10
2.75379e-08
4.9204e-10
2.74439e-08
4.8562e-10
2.73508e-08
4.78851e-10
2.72583e-08
4.72514e-10
2.71666e-08
4.65751e-10
2.70755e-08
4.59502e-10
2.69854e-08
4.52733e-10
2.68958e-08
4.46579e-10
2.68072e-08
4.39793e-10
2.67192e-08
4.33741e-10
2.66323e-08
4.26928e-10
2.6546e-08
4.20991e-10
2.64607e-08
4.1414e-10
2.63761e-08
4.08334e-10
2.62926e-08
4.01433e-10
2.62098e-08
3.95782e-10
2.61281e-08
3.88816e-10
2.6047e-08
3.83352e-10
2.59672e-08
3.76309e-10
2.5888e-08
3.71067e-10
2.58101e-08
3.63938e-10
2.57327e-08
3.58959e-10
2.56568e-08
3.51738e-10
2.55813e-08
3.47077e-10
2.55074e-08
3.39753e-10
2.54337e-08
3.35481e-10
2.53618e-08
3.28052e-10
2.529e-08
3.2425e-10
2.52201e-08
3.16733e-10
2.51502e-08
3.13487e-10
2.50822e-08
3.05921e-10
2.50142e-08
3.03334e-10
2.4948e-08
2.95788e-10
2.48818e-08
2.93981e-10
2.48174e-08
2.86593e-10
2.47529e-08
2.85698e-10
2.46902e-08
2.78736e-10
2.46273e-08
2.78903e-10
2.72713e-10
3.40776e-08
1.53874e-09
-3.40227e-08
3.4159e-08
1.70654e-09
3.42665e-08
1.85059e-09
3.43955e-08
1.97667e-09
3.45334e-08
2.0714e-09
3.46666e-08
2.12448e-09
3.47869e-08
2.13667e-09
3.48918e-08
2.11708e-09
3.49813e-08
2.07665e-09
3.50557e-08
2.02374e-09
3.51152e-08
1.96382e-09
3.51613e-08
1.90093e-09
3.51963e-08
1.83859e-09
3.52229e-08
1.7795e-09
3.52432e-08
1.72512e-09
3.5259e-08
1.67573e-09
3.52712e-08
1.63091e-09
3.52806e-08
1.59005e-09
3.52878e-08
1.55259e-09
3.52931e-08
1.51807e-09
3.52969e-08
1.48613e-09
3.52994e-08
1.45645e-09
3.53006e-08
1.42879e-09
3.53007e-08
1.40291e-09
3.52998e-08
1.37864e-09
3.52978e-08