/*--------------------------------*- C++ -*----------------------------------*\
| =========                 |                                                 |
| \\      /  F ield         | OpenFOAM: The Open Source CFD Toolbox           |
|  \\    /   O peration     | Version:  2.3.0                                 |
|   \\  /    A nd           | Web:      www.OpenFOAM.org                      |
|    \\/     M anipulation  |                                                 |
\*---------------------------------------------------------------------------*/
FoamFile
{
    version     2.0;
    format      ascii;
    class       surfaceScalarField;
    location    "0.65";
    object      phi_0;
}
// * * * * * * * * * * * * * * * * * * * * * * * * * * * * * * * * * * * * * //

dimensions      [0 3 -1 0 0 0 0];

internalField   nonuniform List<scalar> 
11667
(
2.25819e-08
2.21207e-09
-2.47939e-08
1.98978e-08
2.68407e-09
1.7229e-08
2.66876e-09
1.47762e-08
2.45284e-09
1.25736e-08
2.2026e-09
1.06664e-08
1.90717e-09
9.10193e-09
1.5645e-09
7.88073e-09
1.22121e-09
6.96935e-09
9.11377e-10
6.3086e-09
6.60746e-10
5.83345e-09
4.75157e-10
5.48681e-09
3.46633e-10
5.22466e-09
2.62153e-10
5.01569e-09
2.08973e-10
4.83891e-09
1.76774e-10
4.68163e-09
1.57285e-10
4.53704e-09
1.44586e-10
4.40199e-09
1.35055e-10
4.27517e-09
1.26818e-10
4.15608e-09
1.19085e-10
4.04445e-09
1.11631e-10
3.93998e-09
1.04475e-10
3.84227e-09
9.77076e-11
3.75086e-09
9.14109e-11
3.66523e-09
8.56311e-11
3.58485e-09
8.03755e-11
3.50923e-09
7.56213e-11
3.4379e-09
7.13281e-11
3.37046e-09
6.74477e-11
3.30653e-09
6.39307e-11
3.24579e-09
6.07309e-11
3.18799e-09
5.78071e-11
3.13286e-09
5.51237e-11
3.08021e-09
5.26505e-11
3.02985e-09
5.03623e-11
2.98161e-09
4.82379e-11
2.93535e-09
4.62595e-11
2.89094e-09
4.44121e-11
2.84826e-09
4.26832e-11
2.8072e-09
4.10618e-11
2.76766e-09
3.95383e-11
2.72955e-09
3.81047e-11
2.6928e-09
3.67534e-11
2.65732e-09
3.5478e-11
2.62305e-09
3.42725e-11
2.58992e-09
3.31318e-11
2.55787e-09
3.20509e-11
2.52684e-09
3.10256e-11
2.49679e-09
3.00517e-11
2.46766e-09
2.9126e-11
2.43942e-09
2.82448e-11
2.41201e-09
2.74053e-11
2.38541e-09
2.66046e-11
2.35957e-09
2.58404e-11
2.33446e-09
2.51102e-11
2.31005e-09
2.4412e-11
2.2863e-09
2.37437e-11
2.2632e-09
2.31037e-11
2.24071e-09
2.24902e-11
2.21881e-09
2.19018e-11
2.19747e-09
2.13368e-11
2.17668e-09
2.07943e-11
2.1564e-09
2.02726e-11
2.13663e-09
1.97711e-11
2.11734e-09
1.92881e-11
2.09852e-09
1.88234e-11
2.08015e-09
1.83753e-11
2.0622e-09
1.79436e-11
2.04468e-09
1.75269e-11
2.02755e-09
1.71251e-11
2.01081e-09
1.67368e-11
1.99445e-09
1.63621e-11
1.97845e-09
1.59994e-11
1.9628e-09
1.56491e-11
1.94749e-09
1.53097e-11
1.93251e-09
1.49817e-11
1.91785e-09
1.46635e-11
1.90349e-09
1.43558e-11
1.88944e-09
1.40568e-11
1.87567e-09
1.37676e-11
1.86218e-09
1.34862e-11
1.84897e-09
1.3214e-11
1.83602e-09
1.29486e-11
1.82333e-09
1.26919e-11
1.81089e-09
1.24411e-11
1.79869e-09
1.21986e-11
1.78673e-09
1.19612e-11
1.77499e-09
1.17317e-11
1.76349e-09
1.15065e-11
1.7522e-09
1.1289e-11
1.74112e-09
1.1075e-11
1.73026e-09
1.08684e-11
1.71959e-09
1.06647e-11
1.70912e-09
1.04683e-11
1.69885e-09
1.0274e-11
1.68876e-09
1.00869e-11
1.67886e-09
9.90108e-12
1.66914e-09
9.72274e-12
1.65959e-09
9.54464e-12
1.65022e-09
9.3744e-12
1.64102e-09
9.20332e-12
1.63197e-09
9.04066e-12
1.6231e-09
8.87593e-12
1.61438e-09
8.72042e-12
1.60582e-09
8.5614e-12
1.5974e-09
8.41269e-12
1.58915e-09
8.25876e-12
1.58103e-09
8.11657e-12
1.57306e-09
7.96711e-12
1.56523e-09
7.8313e-12
1.55754e-09
7.68565e-12
1.54999e-09
7.55621e-12
1.54257e-09
7.41369e-12
1.53528e-09
7.29079e-12
1.52813e-09
7.15066e-12
1.5211e-09
7.0346e-12
1.5142e-09
6.8961e-12
1.50742e-09
6.78732e-12
1.50077e-09
6.6496e-12
1.49422e-09
6.54879e-12
1.48781e-09
6.41082e-12
1.48149e-09
6.31906e-12
1.47531e-09
6.17956e-12
1.46921e-09
6.09832e-12
1.46325e-09
5.95573e-12
1.45737e-09
5.88692e-12
1.45163e-09
5.73946e-12
1.44594e-09
5.68545e-12
1.44041e-09
5.53094e-12
1.43492e-09
5.49482e-12
1.42959e-09
5.33048e-12
1.42427e-09
5.31646e-12
1.41913e-09
5.13863e-12
1.41398e-09
5.15215e-12
1.40902e-09
4.95617e-12
1.40402e-09
5.00404e-12
1.39923e-09
4.7842e-12
1.39436e-09
4.87527e-12
1.38973e-09
4.62429e-12
1.38496e-09
4.77059e-12
1.38049e-09
4.47845e-12
1.37579e-09
4.69626e-12
1.37144e-09
4.34938e-12
1.36678e-09
4.66094e-12
1.36254e-09
4.24062e-12
1.35786e-09
4.67821e-12
1.3537e-09
4.15608e-12
1.34893e-09
4.7747e-12
1.34481e-09
4.11925e-12
5.5482e-12
2.68336e-08
1.97259e-09
-2.65941e-08
2.67189e-08
2.79872e-09
2.62061e-08
3.1816e-09
2.54557e-08
3.20325e-09
2.45679e-08
3.0904e-09
2.35737e-08
2.90137e-09
2.24988e-08
2.63933e-09
2.13956e-08
2.32442e-09
2.03147e-08
1.99225e-09
1.92929e-08
1.68256e-09
1.83489e-08
1.41923e-09
1.74882e-08
1.20732e-09
1.67102e-08
1.04009e-09
1.60117e-08
9.07496e-10
1.53852e-08
8.03282e-10
1.48221e-08
7.20407e-10
1.43138e-08
6.5288e-10
1.38525e-08
5.96299e-10
1.34316e-08
5.47716e-10
1.30455e-08
5.05245e-10
1.26894e-08
4.67685e-10
1.23597e-08
4.34239e-10
1.2053e-08
4.04343e-10
1.17669e-08
3.77566e-10
1.1499e-08
3.53549e-10
1.12474e-08
3.31972e-10
1.10104e-08
3.12546e-10
1.07868e-08
2.95006e-10
1.05751e-08
2.79118e-10
1.03743e-08
2.64674e-10
1.01836e-08
2.51491e-10
1.0002e-08
2.39413e-10
9.82879e-09
2.28308e-10
9.66338e-09
2.1806e-10
9.50517e-09
2.08573e-10
9.35365e-09
1.99764e-10
9.20834e-09
1.91564e-10
9.06884e-09
1.83911e-10
8.93477e-09
1.76753e-10
8.80579e-09
1.70045e-10
8.68158e-09
1.63746e-10
8.56186e-09
1.57823e-10
8.44638e-09
1.52242e-10
8.33488e-09
1.46978e-10
8.22714e-09
1.42004e-10
8.12298e-09
1.37298e-10
8.02219e-09
1.32841e-10
7.9246e-09
1.28613e-10
7.83005e-09
1.24598e-10
7.7384e-09
1.20781e-10
7.6495e-09
1.17149e-10
7.56321e-09
1.13688e-10
7.47943e-09
1.10387e-10
7.39803e-09
1.07236e-10
7.31892e-09
1.04226e-10
7.24198e-09
1.01347e-10
7.16714e-09
9.85909e-11
7.09429e-09
9.59514e-11
7.02336e-09
9.34206e-11
6.95427e-09
9.0993e-11
6.88694e-09
8.86619e-11
6.82131e-09
8.64228e-11
6.75732e-09
8.42696e-11
6.69489e-09
8.21987e-11
6.63397e-09
8.02047e-11
6.57451e-09
7.82847e-11
6.51645e-09
7.64336e-11
6.45975e-09
7.46493e-11
6.40435e-09
7.2927e-11
6.35021e-09
7.12651e-11
6.29729e-09
6.96591e-11
6.24554e-09
6.8108e-11
6.19493e-09
6.66072e-11
6.14542e-09
6.51565e-11
6.09698e-09
6.37511e-11
6.04957e-09
6.23916e-11
6.00316e-09
6.10731e-11
5.95772e-09
5.97967e-11
5.91322e-09
5.85572e-11
5.86963e-09
5.73566e-11
5.82693e-09
5.61893e-11
5.78509e-09
5.50579e-11
5.74408e-09
5.39565e-11
5.70388e-09
5.28884e-11
5.66448e-09
5.18472e-11
5.62584e-09
5.0837e-11
5.58795e-09
4.98507e-11
5.55079e-09
4.88937e-11
5.51433e-09
4.79578e-11
5.47857e-09
4.70494e-11
5.44349e-09
4.61596e-11
5.40906e-09
4.52961e-11
5.37528e-09
4.44485e-11
5.34212e-09
4.36261e-11
5.30958e-09
4.28172e-11
5.27763e-09
4.20326e-11
5.24627e-09
4.1259e-11
5.21549e-09
4.05094e-11
5.18526e-09
3.9768e-11
5.15559e-09
3.90506e-11
5.12645e-09
3.83386e-11
5.09784e-09
3.76512e-11
5.06975e-09
3.6966e-11
5.04217e-09
3.63064e-11
5.01508e-09
3.56455e-11
4.98848e-09
3.5012e-11
4.96237e-09
3.43731e-11
4.93672e-09
3.37642e-11
4.91154e-09
3.3145e-11
4.88681e-09
3.25594e-11
4.86254e-09
3.19579e-11
4.8387e-09
3.13949e-11
4.81531e-09
3.08088e-11
4.79233e-09
3.02681e-11
4.76979e-09
2.96952e-11
4.74764e-09
2.91768e-11
4.72592e-09
2.8615e-11
4.70459e-09
2.81195e-11
4.68368e-09
2.75665e-11
4.66313e-09
2.70948e-11
4.64299e-09
2.65482e-11
4.62321e-09
2.61024e-11
4.60383e-09
2.55593e-11
4.58479e-09
2.51422e-11
4.56614e-09
2.45993e-11
4.54781e-09
2.42149e-11
4.52988e-09
2.36687e-11
4.51225e-09
2.3322e-11
4.49501e-09
2.27683e-11
4.47804e-09
2.24658e-11
4.46147e-09
2.18995e-11
4.44514e-09
2.16502e-11
4.42921e-09
2.10651e-11
4.41348e-09
2.08804e-11
4.39817e-09
2.02686e-11
4.38301e-09
2.01628e-11
4.36828e-09
1.95154e-11
4.35365e-09
1.95064e-11
4.33946e-09
1.88132e-11
4.32531e-09
1.89245e-11
4.31161e-09
1.81727e-11
4.29787e-09
1.84342e-11
4.28461e-09
1.76092e-11
4.27122e-09
1.80577e-11
4.25831e-09
1.71462e-11
4.24517e-09
1.78244e-11
4.2325e-09
1.68236e-11
4.21949e-09
1.77862e-11
4.2068e-09
1.68025e-11
1.88438e-11
2.78637e-08
1.85982e-09
-2.7751e-08
2.81739e-08
2.48851e-09
2.83971e-08
2.95848e-09
2.84651e-08
3.13519e-09
2.84212e-08
3.13432e-09
2.82729e-08
3.04971e-09
2.80093e-08
2.90293e-09
2.76359e-08
2.69782e-09
2.71745e-08
2.45366e-09
2.66543e-08
2.20276e-09
2.6101e-08
1.97252e-09
2.5533e-08
1.77529e-09
2.49625e-08
1.61062e-09
2.4397e-08
1.47297e-09
2.38426e-08
1.35763e-09
2.33032e-08
1.25987e-09
2.27807e-08
1.17537e-09
2.22762e-08
1.10076e-09
2.17903e-08
1.03368e-09
2.13229e-08
9.72592e-10
2.08741e-08
9.16516e-10
2.04435e-08
8.64831e-10
2.00307e-08
8.17095e-10
1.96353e-08
7.72991e-10
1.92566e-08
7.32244e-10
1.8894e-08
6.94601e-10
1.85467e-08
6.59817e-10
1.82141e-08
6.27654e-10
1.78953e-08
5.97887e-10
1.75897e-08
5.70302e-10
1.72965e-08
5.44702e-10
1.7015e-08
5.20905e-10
1.67445e-08
4.98747e-10
1.64845e-08
4.78079e-10
1.62343e-08
4.58768e-10
1.59934e-08
4.40695e-10
1.57612e-08
4.23751e-10
1.55373e-08
4.07842e-10
1.53211e-08
3.92881e-10
1.51124e-08
3.78791e-10
1.49106e-08
3.65502e-10
1.47155e-08
3.52952e-10
1.45267e-08
3.41085e-10
1.43438e-08
3.29848e-10
1.41666e-08
3.19197e-10
1.39948e-08
3.09087e-10
1.38282e-08
2.99481e-10
1.36664e-08
2.90345e-10
1.35094e-08
2.81645e-10
1.33568e-08
2.73354e-10
1.32085e-08
2.65443e-10
1.30643e-08
2.57889e-10
1.2924e-08
2.50668e-10
1.27875e-08
2.43762e-10
1.26546e-08
2.37149e-10
1.25251e-08
2.30814e-10
1.2399e-08
2.24739e-10
1.2276e-08
2.18909e-10
1.21561e-08
2.13311e-10
1.20392e-08
2.07933e-10
1.19251e-08
2.0276e-10
1.18137e-08
1.97784e-10
1.1705e-08
1.92993e-10
1.15988e-08
1.88378e-10
1.14951e-08
1.83929e-10
1.13938e-08
1.79639e-10
1.12947e-08
1.75498e-10
1.11978e-08
1.71502e-10
1.11031e-08
1.6764e-10
1.10105e-08
1.63909e-10
1.09198e-08
1.603e-10
1.08311e-08
1.5681e-10
1.07443e-08
1.5343e-10
1.06593e-08
1.50159e-10
1.05761e-08
1.46988e-10
1.04945e-08
1.43916e-10
1.04147e-08
1.40936e-10
1.03364e-08
1.38046e-10
1.02598e-08
1.35239e-10
1.01846e-08
1.32517e-10
1.01109e-08
1.29869e-10
1.00387e-08
1.27298e-10
9.96783e-09
1.24796e-10
9.89836e-09
1.22365e-10
9.83021e-09
1.19996e-10
9.76335e-09
1.17693e-10
9.69776e-09
1.15446e-10
9.63339e-09
1.1326e-10
9.57022e-09
1.11125e-10
9.50823e-09
1.09048e-10
9.44737e-09
1.07015e-10
9.38763e-09
1.05037e-10
9.32898e-09
1.03099e-10
9.27139e-09
1.01211e-10
9.21485e-09
9.93594e-11
9.15933e-09
9.75561e-11
9.1048e-09
9.57833e-11
9.05126e-09
9.40572e-11
8.99867e-09
9.23569e-11
8.94702e-09
9.0702e-11
8.89629e-09
8.90678e-11
8.84646e-09
8.74787e-11
8.79752e-09
8.59052e-11
8.74945e-09
8.43769e-11
8.70224e-09
8.28586e-11
8.65586e-09
8.13869e-11
8.61032e-09
7.9919e-11
8.56558e-09
7.84999e-11
8.52165e-09
7.70777e-11
8.4785e-09
7.57081e-11
8.43613e-09
7.43272e-11
8.39452e-09
7.30045e-11
8.35367e-09
7.16605e-11
8.31355e-09
7.03832e-11
8.27418e-09
6.9072e-11
8.23551e-09
6.78388e-11
8.19757e-09
6.65567e-11
8.16032e-09
6.53672e-11
8.12378e-09
6.41103e-11
8.08791e-09
6.29651e-11
8.05273e-09
6.17296e-11
8.0182e-09
6.06305e-11
7.98435e-09
5.94123e-11
7.95113e-09
5.83627e-11
7.91857e-09
5.71574e-11
7.88662e-09
5.6162e-11
7.85533e-09
5.49653e-11
7.82462e-09
5.40302e-11
7.79455e-09
5.28379e-11
7.76504e-09
5.19714e-11
7.73616e-09
5.07786e-11
7.70782e-09
4.99919e-11
7.68009e-09
4.8793e-11
7.65287e-09
4.81006e-11
7.62625e-09
4.68897e-11
7.60011e-09
4.63087e-11
7.57454e-09
4.50812e-11
7.54941e-09
4.46324e-11
7.52484e-09
4.33855e-11
7.50067e-09
4.30946e-11
7.47702e-09
4.18275e-11
7.45373e-09
4.17242e-11
7.43089e-09
4.04443e-11
7.40839e-09
4.05576e-11
7.38625e-09
3.92923e-11
7.36443e-09
3.9643e-11
7.34279e-09
3.8461e-11
7.32149e-09
3.90845e-11
7.30009e-09
3.82002e-11
3.98638e-11
2.88745e-08
1.81429e-09
-2.88289e-08
2.91007e-08
2.26226e-09
2.93927e-08
2.66654e-09
2.96342e-08
2.89363e-09
2.98175e-08
2.951e-09
2.99519e-08
2.91539e-09
3.00281e-08
2.82672e-09
3.00327e-08
2.69317e-09
2.99625e-08
2.52385e-09
2.9827e-08
2.33829e-09
2.96411e-08
2.15847e-09
2.94183e-08
1.99807e-09
2.91681e-08
1.86079e-09
2.88967e-08
1.74435e-09
2.86094e-08
1.64496e-09
2.83102e-08
1.55904e-09
2.80022e-08
1.48344e-09
2.76874e-08
1.41558e-09
2.73675e-08
1.35353e-09
2.70441e-08
1.296e-09
2.67185e-08
1.24214e-09
2.63919e-08
1.19144e-09
2.60654e-08
1.14356e-09
2.57401e-08
1.09829e-09
2.54169e-08
1.05546e-09
2.50966e-08
1.01494e-09
2.47798e-08
9.76587e-10
2.44672e-08
9.40277e-10
2.41592e-08
9.05884e-10
2.38562e-08
8.73285e-10
2.35585e-08
8.42367e-10
2.32664e-08
8.1302e-10
2.298e-08
7.85143e-10
2.26995e-08
7.58644e-10
2.24248e-08
7.33435e-10
2.2156e-08
7.09438e-10
2.18932e-08
6.86579e-10
2.16363e-08
6.64792e-10
2.13851e-08
6.44011e-10
2.11397e-08
6.24181e-10
2.09e-08
6.05246e-10
2.06658e-08
5.87155e-10
2.0437e-08
5.69862e-10
2.02135e-08
5.53321e-10
1.99953e-08
5.37491e-10
1.9782e-08
5.22332e-10
1.95737e-08
5.07809e-10
1.93701e-08
4.93886e-10
1.91713e-08
4.80531e-10
1.89769e-08
4.67715e-10
1.87869e-08
4.55407e-10
1.86012e-08
4.43582e-10
1.84197e-08
4.32214e-10
1.82422e-08
4.2128e-10
1.80686e-08
4.10757e-10
1.78987e-08
4.00626e-10
1.77326e-08
3.90865e-10
1.75701e-08
3.81458e-10
1.7411e-08
3.72386e-10
1.72553e-08
3.63635e-10
1.71029e-08
3.55186e-10
1.69536e-08
3.47028e-10
1.68075e-08
3.39146e-10
1.66643e-08
3.31528e-10
1.65241e-08
3.2416e-10
1.63867e-08
3.17034e-10
1.62521e-08
3.10136e-10
1.61201e-08
3.03458e-10
1.59908e-08
2.96988e-10
1.58639e-08
2.9072e-10
1.57396e-08
2.84642e-10
1.56177e-08
2.78749e-10
1.54981e-08
2.7303e-10
1.53807e-08
2.67481e-10
1.52656e-08
2.62091e-10
1.51527e-08
2.56858e-10
1.50419e-08
2.51771e-10
1.49331e-08
2.46828e-10
1.48263e-08
2.42018e-10
1.47215e-08
2.37342e-10
1.46186e-08
2.32789e-10
1.45175e-08
2.28358e-10
1.44183e-08
2.2404e-10
1.43208e-08
2.19836e-10
1.4225e-08
2.15735e-10
1.4131e-08
2.11739e-10
1.40386e-08
2.07837e-10
1.39478e-08
2.04034e-10
1.38586e-08
2.00316e-10
1.3771e-08
1.9669e-10
1.36849e-08
1.93141e-10
1.36002e-08
1.89679e-10
1.3517e-08
1.86286e-10
1.34353e-08
1.82974e-10
1.33549e-08
1.79725e-10
1.32759e-08
1.76552e-10
1.31983e-08
1.73435e-10
1.31219e-08
1.7039e-10
1.30469e-08
1.67395e-10
1.29731e-08
1.64467e-10
1.29006e-08
1.61584e-10
1.28293e-08
1.58765e-10
1.27592e-08
1.55984e-10
1.26904e-08
1.53266e-10
1.26226e-08
1.50578e-10
1.25561e-08
1.47953e-10
1.24906e-08
1.45352e-10
1.24263e-08
1.42813e-10
1.23631e-08
1.4029e-10
1.2301e-08
1.37832e-10
1.22399e-08
1.3538e-10
1.21799e-08
1.32998e-10
1.2121e-08
1.30611e-10
1.20631e-08
1.283e-10
1.20062e-08
1.25972e-10
1.19503e-08
1.23729e-10
1.18954e-08
1.21454e-10
1.18415e-08
1.19278e-10
1.17885e-08
1.17051e-10
1.17366e-08
1.14939e-10
1.16855e-08
1.12756e-10
1.16355e-08
1.10711e-10
1.15863e-08
1.08566e-10
1.15381e-08
1.06589e-10
1.14908e-08
1.04479e-10
1.14443e-08
1.02573e-10
1.13988e-08
1.00494e-10
1.13542e-08
9.8666e-11
1.13104e-08
9.66161e-11
1.12675e-08
9.48719e-11
1.12254e-08
9.28496e-11
1.11842e-08
9.12001e-11
1.11438e-08
8.92044e-11
1.11042e-08
8.76629e-11
1.10654e-08
8.56955e-11
1.10275e-08
8.42765e-11
1.09902e-08
8.23444e-11
1.09538e-08
8.10643e-11
1.0918e-08
7.91816e-11
1.0883e-08
7.80596e-11
1.08486e-08
7.62498e-11
1.0815e-08
7.53054e-11
1.07819e-08
7.36105e-11
1.07496e-08
7.28568e-11
1.07175e-08
7.13523e-11
1.06863e-08
7.0796e-11
1.06552e-08
6.96024e-11
1.0625e-08
6.93144e-11
1.05945e-08
6.86439e-11
6.93133e-11
2.99031e-08
1.76587e-09
-2.98547e-08
3.00596e-08
2.10582e-09
3.03001e-08
2.426e-09
3.05429e-08
2.65089e-09
3.07518e-08
2.7421e-09
3.09303e-08
2.73684e-09
3.10804e-08
2.6766e-09
3.11934e-08
2.58021e-09
3.1261e-08
2.45622e-09
3.12833e-08
2.31599e-09
3.12674e-08
2.17432e-09
3.12221e-08
2.04336e-09
3.1154e-08
1.92896e-09
3.10672e-08
1.83117e-09
3.09647e-08
1.74738e-09
3.0849e-08
1.67475e-09
3.07216e-08
1.61081e-09
3.05837e-08
1.55351e-09
3.0436e-08
1.50126e-09
3.02791e-08
1.4529e-09
3.01136e-08
1.40762e-09
2.99402e-08
1.36487e-09
2.97594e-08
1.3243e-09
2.9572e-08
1.28567e-09
2.93787e-08
1.24881e-09
2.91801e-08
1.21358e-09
2.89768e-08
1.17986e-09
2.87695e-08
1.14755e-09
2.85588e-08
1.11656e-09
2.83453e-08
1.08678e-09
2.81296e-08
1.05815e-09
2.7912e-08
1.03058e-09
2.76931e-08
1.00402e-09
2.74734e-08
9.78391e-10
2.72532e-08
9.53655e-10
2.70328e-08
9.29761e-10
2.68127e-08
9.06667e-10
2.65932e-08
8.84334e-10
2.63745e-08
8.6273e-10
2.61568e-08
8.41822e-10
2.59405e-08
8.21583e-10
2.57257e-08
8.01986e-10
2.55125e-08
7.83006e-10
2.53012e-08
7.6462e-10
2.50919e-08
7.46806e-10
2.48847e-08
7.29544e-10
2.46797e-08
7.12812e-10
2.4477e-08
6.96592e-10
2.42767e-08
6.80865e-10
2.40788e-08
6.65615e-10
2.38833e-08
6.50824e-10
2.36905e-08
6.36477e-10
2.35001e-08
6.22556e-10
2.33123e-08
6.09048e-10
2.31272e-08
5.95937e-10
2.29446e-08
5.83211e-10
2.27646e-08
5.70854e-10
2.25872e-08
5.58855e-10
2.24124e-08
5.472e-10
2.22401e-08
5.35879e-10
2.20704e-08
5.24877e-10
2.19033e-08
5.14186e-10
2.17386e-08
5.03792e-10
2.15765e-08
4.93688e-10
2.14168e-08
4.8386e-10
2.12595e-08
4.74302e-10
2.11046e-08
4.65002e-10
2.09521e-08
4.55954e-10
2.0802e-08
4.47145e-10
2.06541e-08
4.38571e-10
2.05086e-08
4.3022e-10
2.03652e-08
4.22088e-10
2.02241e-08
4.14163e-10
2.00851e-08
4.06442e-10
1.99483e-08
3.98914e-10
1.98136e-08
3.91577e-10
1.96809e-08
3.84418e-10
1.95503e-08
3.77438e-10
1.94217e-08
3.70624e-10
1.92951e-08
3.63975e-10
1.91704e-08
3.57482e-10
1.90476e-08
3.51144e-10
1.89267e-08
3.44949e-10
1.88076e-08
3.38898e-10
1.86904e-08
3.32981e-10
1.85749e-08
3.27198e-10
1.84612e-08
3.21539e-10
1.83493e-08
3.16005e-10
1.8239e-08
3.10586e-10
1.81304e-08
3.05283e-10
1.80235e-08
3.00087e-10
1.79181e-08
2.94999e-10
1.78144e-08
2.90009e-10
1.77123e-08
2.8512e-10
1.76117e-08
2.80322e-10
1.75126e-08
2.75617e-10
1.7415e-08
2.70997e-10
1.7319e-08
2.66463e-10
1.72244e-08
2.62006e-10
1.71312e-08
2.5763e-10
1.70395e-08
2.53325e-10
1.69491e-08
2.49095e-10
1.68602e-08
2.4493e-10
1.67726e-08
2.40835e-10
1.66864e-08
2.36799e-10
1.66015e-08
2.32828e-10
1.6518e-08
2.28911e-10
1.64357e-08
2.25056e-10
1.63548e-08
2.21248e-10
1.62751e-08
2.17499e-10
1.61967e-08
2.13792e-10
1.61195e-08
2.10143e-10
1.60436e-08
2.06528e-10
1.59689e-08
2.02971e-10
1.58955e-08
1.99442e-10
1.58232e-08
1.95973e-10
1.57522e-08
1.92522e-10
1.56823e-08
1.89135e-10
1.56136e-08
1.85758e-10
1.55461e-08
1.8245e-10
1.54797e-08
1.79142e-10
1.54145e-08
1.75912e-10
1.53504e-08
1.72669e-10
1.52875e-08
1.69516e-10
1.52256e-08
1.66336e-10
1.51649e-08
1.6326e-10
1.51053e-08
1.60144e-10
1.50468e-08
1.57148e-10
1.49893e-08
1.54097e-10
1.4933e-08
1.51184e-10
1.48776e-08
1.48205e-10
1.48235e-08
1.45381e-10
1.47702e-08
1.42481e-10
1.47181e-08
1.39755e-10
1.46668e-08
1.36948e-10
1.46168e-08
1.34326e-10
1.45675e-08
1.31637e-10
1.45194e-08
1.29126e-10
1.4472e-08
1.26592e-10
1.44259e-08
1.24202e-10
1.43803e-08
1.21872e-10
1.4336e-08
1.19613e-10
1.4292e-08
1.17562e-10
1.42494e-08
1.15441e-10
1.4207e-08
1.13776e-10
1.4166e-08
1.11817e-10
1.41249e-08
1.1067e-10
1.40852e-08
1.09015e-10
1.40453e-08
1.08559e-10
1.07772e-10
3.09308e-08
1.71002e-09
-3.0875e-08
3.10533e-08
1.98334e-09
3.1243e-08
2.23633e-09
3.14558e-08
2.43806e-09
3.16528e-08
2.54514e-09
3.1825e-08
2.56462e-09
3.19752e-08
2.52642e-09
3.21015e-08
2.4539e-09
3.21989e-08
2.35885e-09
3.22654e-08
2.24945e-09
3.23044e-08
2.1353e-09
3.23219e-08
2.0259e-09
3.23233e-08
1.92757e-09
3.23123e-08
1.84211e-09
3.22914e-08
1.76833e-09
3.2262e-08
1.70417e-09
3.22251e-08
1.64768e-09
3.21813e-08
1.59725e-09
3.2131e-08
1.5516e-09
3.20742e-08
1.50973e-09
3.20109e-08
1.47088e-09
3.19413e-08
1.43453e-09
3.18653e-08
1.40028e-09
3.17831e-08
1.36786e-09
3.16948e-08
1.33706e-09
3.16007e-08
1.3077e-09
3.15009e-08
1.27966e-09
3.13957e-08
1.2528e-09
3.12852e-08
1.22701e-09
3.11698e-08
1.2022e-09
3.10497e-08
1.17828e-09
3.09251e-08
1.15517e-09
3.07963e-08
1.13279e-09
3.06636e-08
1.11109e-09
3.05272e-08
1.09002e-09
3.03875e-08
1.06952e-09
3.02446e-08
1.04957e-09
3.00988e-08
1.03012e-09
2.99504e-08
1.01114e-09
2.97996e-08
9.92616e-10
2.96466e-08
9.74518e-10
2.94918e-08
9.5683e-10
2.93353e-08
9.39533e-10
2.91773e-08
9.22613e-10
2.9018e-08
9.06056e-10
2.88577e-08
8.89851e-10
2.86966e-08
8.73987e-10
2.85347e-08
8.58454e-10
2.83723e-08
8.43242e-10
2.82096e-08
8.28345e-10
2.80467e-08
8.13753e-10
2.78837e-08
7.99461e-10
2.77208e-08
7.85461e-10
2.75581e-08
7.71747e-10
2.73957e-08
7.58313e-10
2.72338e-08
7.45153e-10
2.70723e-08
7.32262e-10
2.69116e-08
7.19634e-10
2.67515e-08
7.07262e-10
2.65922e-08
6.95144e-10
2.64338e-08
6.83271e-10
2.62764e-08
6.71641e-10
2.61199e-08
6.60248e-10
2.59645e-08
6.49087e-10
2.58102e-08
6.38152e-10
2.56571e-08
6.2744e-10
2.55052e-08
6.16945e-10
2.53545e-08
6.06664e-10
2.5205e-08
5.9659e-10
2.50569e-08
5.86721e-10
2.491e-08
5.77049e-10
2.47645e-08
5.67572e-10
2.46204e-08
5.58284e-10
2.44777e-08
5.49182e-10
2.43363e-08
5.40259e-10
2.41964e-08
5.31513e-10
2.40579e-08
5.22938e-10
2.39208e-08
5.14531e-10
2.37851e-08
5.06286e-10
2.36509e-08
4.98201e-10
2.35181e-08
4.90269e-10
2.33868e-08
4.82489e-10
2.32569e-08
4.74854e-10
2.31284e-08
4.67362e-10
2.30014e-08
4.60008e-10
2.28758e-08
4.52786e-10
2.27516e-08
4.45697e-10
2.26289e-08
4.38732e-10
2.25076e-08
4.31891e-10
2.23877e-08
4.25166e-10
2.22692e-08
4.18561e-10
2.21522e-08
4.12062e-10
2.20365e-08
4.05676e-10
2.19222e-08
3.99388e-10
2.18094e-08
3.93209e-10
2.16979e-08
3.87119e-10
2.15877e-08
3.81133e-10
2.1479e-08
3.75226e-10
2.13715e-08
3.69419e-10
2.12655e-08
3.63683e-10
2.11608e-08
3.58045e-10
2.10574e-08
3.52468e-10
2.09553e-08
3.46986e-10
2.08546e-08
3.41555e-10
2.07552e-08
3.36218e-10
2.06571e-08
3.30923e-10
2.05603e-08
3.25722e-10
2.04648e-08
3.20551e-10
2.03706e-08
3.15476e-10
2.02777e-08
3.10419e-10
2.0186e-08
3.05462e-10
2.00956e-08
3.0051e-10
2.00065e-08
2.95662e-10
1.99186e-08
2.90808e-10
1.9832e-08
2.86062e-10
1.97467e-08
2.81297e-10
1.96626e-08
2.7665e-10
1.95797e-08
2.71966e-10
1.94981e-08
2.67413e-10
1.94177e-08
2.62805e-10
1.93385e-08
2.58344e-10
1.92606e-08
2.53806e-10
1.91839e-08
2.49437e-10
1.91084e-08
2.44966e-10
1.90341e-08
2.4069e-10
1.8961e-08
2.36282e-10
1.88891e-08
2.32106e-10
1.88185e-08
2.27757e-10
1.87489e-08
2.23692e-10
1.86807e-08
2.194e-10
1.86134e-08
2.15462e-10
1.85476e-08
2.11226e-10
1.84826e-08
2.07433e-10
1.84191e-08
2.03255e-10
1.83564e-08
1.99637e-10
1.82952e-08
1.95515e-10
1.82347e-08
1.92115e-10
1.81758e-08
1.88047e-10
1.81175e-08
1.84923e-10
1.80608e-08
1.80912e-10
1.80045e-08
1.78137e-10
1.79499e-08
1.74193e-10
1.78956e-08
1.71858e-10
1.78431e-08
1.68002e-10
1.77906e-08
1.66226e-10
1.77399e-08
1.62518e-10
1.76892e-08
1.61431e-10
1.76401e-08
1.58077e-10
1.75908e-08
1.57823e-10
1.55264e-10
3.19652e-08
1.65135e-09
-3.19065e-08
3.20692e-08
1.87928e-09
3.22214e-08
2.08416e-09
3.24018e-08
2.25764e-09
3.258e-08
2.36699e-09
3.274e-08
2.40458e-09
3.28798e-08
2.38664e-09
3.29997e-08
2.33396e-09
3.30982e-08
2.26043e-09
3.31736e-08
2.17402e-09
3.32274e-08
2.08148e-09
3.32636e-08
1.98974e-09
3.32867e-08
1.90443e-09
3.33005e-08
1.82832e-09
3.33073e-08
1.76153e-09
3.33086e-08
1.70287e-09
3.33054e-08
1.6509e-09
3.32982e-08
1.60438e-09
3.32875e-08
1.5623e-09
3.32734e-08
1.52388e-09
3.32558e-08
1.48847e-09
3.32347e-08
1.45559e-09
3.32101e-08
1.42487e-09
3.3182e-08
1.39604e-09
3.31502e-08
1.36887e-09
3.31147e-08
1.34318e-09
3.30755e-08
1.31882e-09
3.30326e-08
1.29566e-09
3.29861e-08
1.27358e-09
3.29358e-08
1.25247e-09
3.28819e-08
1.23222e-09
3.28243e-08
1.21276e-09
3.27631e-08
1.194e-09
3.26983e-08
1.17588e-09
3.263e-08
1.15833e-09
3.25582e-08
1.14129e-09
3.2483e-08
1.12472e-09
3.24046e-08
1.10858e-09
3.23229e-08
1.09283e-09
3.22381e-08
1.07743e-09
3.21502e-08
1.06237e-09
3.20595e-08
1.04761e-09
3.19659e-08
1.03313e-09
3.18696e-08
1.01892e-09
3.17707e-08
1.00495e-09
3.16693e-08
9.91226e-10
3.15656e-08
9.77719e-10
3.14596e-08
9.64424e-10
3.13515e-08
9.51329e-10
3.12414e-08
9.38428e-10
3.11295e-08
9.25711e-10
3.10157e-08
9.13174e-10
3.09004e-08
9.0081e-10
3.07835e-08
8.88616e-10
3.06652e-08
8.76587e-10
3.05457e-08
8.6472e-10
3.04249e-08
8.5301e-10
3.03031e-08
8.41457e-10
3.01803e-08
8.30056e-10
3.00567e-08
8.18806e-10
2.99322e-08
8.07704e-10
2.98071e-08
7.96749e-10
2.96814e-08
7.85938e-10
2.95552e-08
7.75269e-10
2.94287e-08
7.64742e-10
2.93017e-08
7.54356e-10
2.91746e-08
7.44108e-10
2.90472e-08
7.33998e-10
2.89198e-08
7.24024e-10
2.87923e-08
7.14185e-10
2.86649e-08
7.04479e-10
2.85376e-08
6.94905e-10
2.84104e-08
6.85461e-10
2.82834e-08
6.76144e-10
2.81567e-08
6.66955e-10
2.80304e-08
6.57889e-10
2.79044e-08
6.48948e-10
2.77788e-08
6.40127e-10
2.76536e-08
6.31429e-10
2.7529e-08
6.22845e-10
2.74049e-08
6.14383e-10
2.72813e-08
6.06029e-10
2.71584e-08
5.97793e-10
2.70361e-08
5.8966e-10
2.69144e-08
5.81642e-10
2.67935e-08
5.73721e-10
2.66733e-08
5.65913e-10
2.65538e-08
5.58195e-10
2.64351e-08
5.50589e-10
2.63172e-08
5.43064e-10
2.62001e-08
5.35651e-10
2.60839e-08
5.2831e-10
2.59685e-08
5.2108e-10
2.5854e-08
5.13913e-10
2.57403e-08
5.06859e-10
2.56276e-08
4.99855e-10
2.55158e-08
4.92965e-10
2.54049e-08
4.86114e-10
2.52949e-08
4.79381e-10
2.51859e-08
4.72673e-10
2.50779e-08
4.66088e-10
2.49708e-08
4.59513e-10
2.48647e-08
4.53066e-10
2.47597e-08
4.46613e-10
2.46556e-08
4.40298e-10
2.45526e-08
4.33957e-10
2.44505e-08
4.27766e-10
2.43496e-08
4.21526e-10
2.42496e-08
4.15452e-10
2.41507e-08
4.09303e-10
2.40528e-08
4.03341e-10
2.39561e-08
3.97274e-10
2.38603e-08
3.91418e-10
2.37657e-08
3.85424e-10
2.36721e-08
3.7967e-10
2.35796e-08
3.73739e-10
2.34882e-08
3.68087e-10
2.3398e-08
3.62209e-10
2.33087e-08
3.56659e-10
2.32207e-08
3.50825e-10
2.31336e-08
3.45381e-10
2.30479e-08
3.39582e-10
2.29631e-08
3.34248e-10
2.28795e-08
3.28478e-10
2.2797e-08
3.23263e-10
2.27157e-08
3.17514e-10
2.26354e-08
3.12431e-10
2.25565e-08
3.06692e-10
2.24784e-08
3.01765e-10
2.24018e-08
2.96027e-10
2.2326e-08
2.91281e-10
2.22516e-08
2.8554e-10
2.21781e-08
2.81006e-10
2.21061e-08
2.75256e-10
2.20347e-08
2.70978e-10
2.1965e-08
2.65211e-10
2.18959e-08
2.61249e-10
2.18285e-08
2.55459e-10
2.17615e-08
2.51886e-10
2.16964e-08
2.46078e-10
2.16315e-08
2.42979e-10
2.15685e-08
2.37176e-10
2.15057e-08
2.34649e-10
2.14449e-08
2.28893e-10
2.1384e-08
2.2706e-10
2.13251e-08
2.21455e-10
2.12661e-08
2.20442e-10
2.12089e-08
2.15234e-10
2.11516e-08
2.15182e-10
2.10734e-10
3.30127e-08
1.59362e-09
-3.2955e-08
3.31041e-08
1.78789e-09
3.32302e-08
1.95813e-09
3.33822e-08
2.10564e-09
3.35398e-08
2.20935e-09
3.36867e-08
2.25767e-09
3.38165e-08
2.25691e-09
3.39284e-08
2.22196e-09
3.40227e-08
2.1662e-09
3.40986e-08
2.09811e-09
3.41567e-08
2.02335e-09
3.41995e-08
1.947e-09
3.42303e-08
1.87359e-09
3.42525e-08
1.80608e-09
3.42686e-08
1.7455e-09
3.428e-08
1.69148e-09
3.42878e-08
1.6431e-09
3.42927e-08
1.59945e-09
3.42952e-08
1.55976e-09
3.42957e-08
1.52342e-09
3.42942e-08
1.48994e-09
3.42909e-08
1.45891e-09
3.42858e-08
1.43001e-09
3.42788e-08
1.403e-09
3.427e-08
1.37766e-09
3.42594e-08
1.35382e-09
3.42469e-08
1.33134e-09
3.42324e-08
1.31008e-09
3.42161e-08
1.28994e-09
3.41977e-08
1.27081e-09
3.41774e-08
1.25259e-09
3.41549e-08
1.2352e-09
3.41304e-08
1.21855e-09
3.41037e-08
1.20257e-09
3.40748e-08
1.1872e-09
3.40437e-08
1.17237e-09
3.40104e-08
1.15805e-09
3.39748e-08
1.14417e-09
3.39369e-08
1.13071e-09
3.38968e-08
1.11761e-09
3.38543e-08
1.10485e-09
3.38095e-08
1.0924e-09
3.37624e-08
1.08023e-09
3.3713e-08
1.06832e-09
3.36613e-08
1.05664e-09
3.36074e-08
1.04518e-09
3.35512e-08
1.03392e-09
3.34927e-08
1.02284e-09
3.34321e-08
1.01193e-09
3.33694e-08
1.00118e-09
3.33045e-08
9.90571e-10
3.32376e-08
9.80101e-10
3.31687e-08
9.69758e-10
3.30977e-08
9.59535e-10
3.30249e-08
9.49425e-10
3.29502e-08
9.39423e-10
3.28737e-08
9.29524e-10
3.27954e-08
9.19722e-10
3.27155e-08
9.10015e-10
3.26339e-08
9.00397e-10
3.25507e-08
8.90867e-10
3.2466e-08
8.81419e-10
3.23799e-08
8.72054e-10
3.22924e-08
8.62766e-10
3.22036e-08
8.53557e-10
3.21135e-08
8.44422e-10
3.20223e-08
8.35365e-10
3.19299e-08
8.26379e-10
3.18365e-08
8.1747e-10
3.1742e-08
8.0863e-10
3.16466e-08
7.99866e-10
3.15504e-08
7.91169e-10
3.14533e-08
7.82546e-10
3.13554e-08
7.73986e-10
3.12569e-08
7.65501e-10
3.11577e-08
7.57077e-10
3.10579e-08
7.48727e-10
3.09576e-08
7.40436e-10
3.08568e-08
7.32221e-10
3.07556e-08
7.2406e-10
3.0654e-08
7.15979e-10
3.05521e-08
7.07947e-10
3.04499e-08
6.99997e-10
3.03475e-08
6.9209e-10
3.02448e-08
6.84266e-10
3.01421e-08
6.76479e-10
3.00392e-08
6.68778e-10
2.99363e-08
6.61107e-10
2.98334e-08
6.53525e-10
2.97305e-08
6.45966e-10
2.96276e-08
6.38502e-10
2.95249e-08
6.31049e-10
2.94223e-08
6.23699e-10
2.93198e-08
6.16346e-10
2.92176e-08
6.09105e-10
2.91156e-08
6.01845e-10
2.90138e-08
5.94708e-10
2.89124e-08
5.87535e-10
2.88113e-08
5.80498e-10
2.87106e-08
5.73404e-10
2.86102e-08
5.66462e-10
2.85103e-08
5.5944e-10
2.84108e-08
5.52589e-10
2.83117e-08
5.45631e-10
2.82132e-08
5.38869e-10
2.81152e-08
5.31964e-10
2.80176e-08
5.25288e-10
2.79207e-08
5.18428e-10
2.78244e-08
5.11834e-10
2.77286e-08
5.05009e-10
2.76335e-08
4.98497e-10
2.75391e-08
4.91698e-10
2.74452e-08
4.85266e-10
2.73522e-08
4.78484e-10
2.72597e-08
4.72134e-10
2.71681e-08
4.65358e-10
2.70771e-08
4.59094e-10
2.6987e-08
4.52313e-10
2.68975e-08
4.46143e-10
2.6809e-08
4.39343e-10
2.67211e-08
4.33275e-10
2.66342e-08
4.26447e-10
2.6548e-08
4.20494e-10
2.64628e-08
4.13627e-10
2.63783e-08
4.07804e-10
2.62949e-08
4.00887e-10
2.62121e-08
3.95218e-10
2.61306e-08
3.88236e-10
2.60496e-08
3.82754e-10
2.59699e-08
3.75693e-10
2.58908e-08
3.70433e-10
2.5813e-08
3.63285e-10
2.57357e-08
3.58289e-10
2.56599e-08
3.51048e-10
2.55845e-08
3.46368e-10
2.55107e-08
3.39026e-10
2.54372e-08
3.34735e-10
2.53654e-08
3.27287e-10
2.52938e-08
3.23466e-10
2.5224e-08
3.15929e-10
2.51543e-08
3.12667e-10
2.50864e-08
3.05079e-10
2.50186e-08
3.02477e-10
2.49525e-08
2.9491e-10
2.48865e-08
2.93087e-10
2.48223e-08
2.85679e-10
2.4758e-08
2.84772e-10
2.46954e-08
2.77788e-10
2.46326e-08
2.77947e-10
2.71733e-10
3.40776e-08
1.53874e-09
-3.40227e-08
3.4159e-08
1.70653e-09
3.42665e-08
1.85059e-09
3.43955e-08
1.97667e-09
3.45334e-08
2.0714e-09
3.46666e-08
2.12448e-09
3.47869e-08
2.13666e-09
3.48918e-08
2.11708e-09
3.49813e-08
2.07664e-09
3.50557e-08
2.02374e-09
3.51152e-08
1.96381e-09
3.51613e-08
1.90093e-09
3.51963e-08
1.83859e-09
3.52229e-08
1.7795e-09
3.52433e-08
1.72512e-09
3.5259e-08
1.67573e-09
3.52712e-08
1.6309e-09
3.52806e-08
1.59004e-09
3.52878e-08
1.55259e-09
3.52931e-08
1.51807e-09
3.5297e-08
1.48613e-09
3.52994e-08
1.45645e-09
3.53006e-08
1.42878e-09
3.53007e-08