/*--------------------------------*- C++ -*----------------------------------*\
| =========                 |                                                 |
| \\      /  F ield         | OpenFOAM: The Open Source CFD Toolbox           |
|  \\    /   O peration     | Version:  2.3.0                                 |
|   \\  /    A nd           | Web:      www.OpenFOAM.org                      |
|    \\/     M anipulation  |                                                 |
\*---------------------------------------------------------------------------*/
FoamFile
{
    version     2.0;
    format      ascii;
    class       volScalarField;
    location    "0.15";
    object      p;
}
// * * * * * * * * * * * * * * * * * * * * * * * * * * * * * * * * * * * * * //

dimensions      [0 2 -2 0 0 0 0];

internalField   nonuniform List<scalar> 
1500
(
0.00193686
0.0013697
0.000912886
0.000590078
0.000328154
9.67402e-05
-0.000104059
-0.000269637
-0.000398572
-0.000492163
-0.000553506
-0.000587077
-0.000598253
-0.000592656
-0.000575542
-0.000551378
-0.000523651
-0.000494876
-0.000466712
-0.000440142
-0.000415659
-0.000393423
-0.000373393
-0.000355414
-0.000339279
-0.000324764
-0.000311648
-0.000299721
-0.000288784
-0.000278647
-0.000269117
-0.000259992
-0.000251042
-0.000241997
-0.000232534
-0.00022224
-0.000210635
-0.000197312
-0.000181736
-0.000164176
-0.000145019
-0.000125101
-0.000105179
-8.60528e-05
-6.83711e-05
-5.25557e-05
-3.88032e-05
-2.71345e-05
-1.74526e-05
-9.58958e-06
-3.34189e-06
1.50452e-06
5.15788e-06
7.81202e-06
9.64155e-06
1.07999e-05
1.14198e-05
1.16143e-05
1.14793e-05
1.10948e-05
1.05279e-05
9.83427e-06
9.06e-06
8.23948e-06
7.41023e-06
6.58662e-06
5.7893e-06
5.03492e-06
4.32666e-06
3.67271e-06
3.09196e-06
2.57801e-06
2.12684e-06
1.73498e-06
1.39886e-06
1.11516e-06
8.79786e-07
6.86855e-07
5.30472e-07
4.04974e-07
3.05565e-07
2.27749e-07
1.67677e-07
1.21717e-07
8.7015e-08
6.11223e-08
4.20426e-08
2.82181e-08
1.82997e-08
1.13661e-08
6.53862e-09
3.31206e-09
1.17931e-09
-1.61912e-10
-9.41943e-10
-1.36505e-09
-1.50046e-09
-1.46634e-09
-1.26224e-09
-1.0537e-09
0.00164446
0.00125275
0.000886135
0.000597695
0.000351463
0.000128317
-6.86534e-05
-0.000233151
-0.000362652
-0.000457851
-0.00052148
-0.000557748
-0.000571813
-0.000569128
-0.00055482
-0.000533272
-0.00050792
-0.000481255
-0.000454934
-0.000429954
-0.000406831
-0.000385754
-0.000366711
-0.000349576
-0.000334167
-0.000320282
-0.000307718
-0.00029628
-0.00028578
-0.000276039
-0.000266875
-0.000258093
-0.000249473
-0.000240748
-0.000231594
-0.000221615
-0.000210327
-0.000197162
-0.000182068
-0.000164808
-0.000145754
-0.000125796
-0.000105794
-8.65887e-05
-6.88357e-05
-5.29561e-05
-3.91453e-05
-2.74245e-05
-1.76967e-05
-9.79371e-06
-3.51148e-06
1.36455e-06
5.04355e-06
7.71983e-06
9.56824e-06
1.07426e-05
1.13757e-05
1.15813e-05
1.14552e-05
1.10779e-05
1.05166e-05
9.82733e-06
9.05642e-06
8.24306e-06
7.41168e-06
6.5863e-06
5.78877e-06
5.03639e-06
4.32898e-06
3.67406e-06
3.09442e-06
2.58047e-06
2.12903e-06
1.73678e-06
1.4002e-06
1.1161e-06
8.80479e-07
6.87358e-07
5.30832e-07
4.05217e-07
3.05727e-07
2.27862e-07
1.67766e-07
1.21791e-07
8.70738e-08
6.11771e-08
4.20904e-08
2.82671e-08
1.83468e-08
1.14146e-08
6.5869e-09
3.35889e-09
1.22667e-09
-1.17478e-10
-8.97624e-10
-1.32307e-09
-1.46037e-09
-1.42806e-09
-1.22027e-09
-1.09611e-09
0.00141891
0.0011428
0.000842466
0.000582268
0.000354513
0.000147707
-3.63245e-05
-0.000192235
-0.000317329
-0.000411736
-0.000477432
-0.000517736
-0.000536917
-0.000539657
-0.000530512
-0.000513507
-0.000491919
-0.000468226
-0.000444166
-0.000420864
-0.000398974
-0.000378807
-0.000360455
-0.000343866
-0.000328912
-0.000315427
-0.00030323
-0.000292139
-0.000281976
-0.000272565
-0.000263726
-0.000255267
-0.000246969
-0.000238567
-0.000229731
-0.000220055
-0.000209047
-0.000196108
-0.000180696
-0.000163261
-0.000144671
-0.000125282
-0.000105654
-8.66703e-05
-6.90606e-05
-5.32723e-05
-3.95118e-05
-2.78099e-05
-1.8078e-05
-1.01552e-05
-3.84372e-06
1.06649e-06
4.78143e-06
7.49325e-06
9.37542e-06
1.05809e-05
1.12421e-05
1.14724e-05
1.13677e-05
1.10085e-05
1.04624e-05
9.78535e-06
9.02395e-06
8.21689e-06
7.39341e-06
6.58044e-06
5.79012e-06
5.03383e-06
4.32417e-06
3.66463e-06
3.08607e-06
2.57288e-06
2.1224e-06
1.73109e-06
1.39529e-06
1.11207e-06
8.77337e-07
6.84931e-07
5.28942e-07
4.03724e-07
3.04543e-07
2.26946e-07
1.67073e-07
1.21278e-07
8.66936e-08
6.09063e-08
4.19001e-08
2.81444e-08
1.82764e-08
1.13805e-08
6.58193e-09
3.36983e-09
1.25189e-09
-8.60635e-11
-8.61967e-10
-1.28558e-09
-1.42554e-09
-1.39687e-09
-1.21464e-09
-1.23028e-09
0.00121535
0.0010149
0.000773765
0.000548593
0.000346482
0.000162162
-3.44238e-06
-0.000146058
-0.000262877
-0.000353422
-0.000418905
-0.000461758
-0.000485312
-0.000493386
-0.000489842
-0.000478216
-0.000461493
-0.000442019
-0.000421514
-0.000401154
-0.00038167
-0.000363471
-0.000346731
-0.000331476
-0.000317639
-0.000305105
-0.000293731
-0.000283362
-0.000273843
-0.000265012
-0.000256702
-0.000248726
-0.000240869
-0.000232867
-0.00022439
-0.000215028
-0.000204298
-0.000191698
-0.000176899
-0.000159874
-0.000141344
-0.000122455
-0.000103673
-8.54406e-05
-6.84404e-05
-5.31304e-05
-3.9725e-05
-2.82698e-05
-1.86957e-05
-1.08617e-05
-4.58735e-06
3.23155e-07
4.06434e-06
6.81958e-06
8.7557e-06
1.00207e-05
1.07435e-05
1.10349e-05
1.09888e-05
1.06847e-05
1.01892e-05
9.55801e-06
8.83719e-06
8.06486e-06
7.27075e-06
6.47983e-06
5.70845e-06
4.97132e-06
4.28051e-06
3.65295e-06
3.07491e-06
2.56482e-06
2.11623e-06
1.72577e-06
1.39018e-06
1.10732e-06
8.73369e-07
6.81784e-07
5.2653e-07
4.01922e-07
3.03262e-07
2.26119e-07
1.66591e-07
1.21037e-07
8.66052e-08
6.09048e-08
4.19492e-08
2.82286e-08
1.83845e-08
1.14938e-08
6.70021e-09
3.48115e-09
1.35875e-09
1.18778e-11
-7.7422e-10
-1.20662e-09
-1.36108e-09
-1.35021e-09
-1.22322e-09
-1.34006e-09
0.00102726
0.000880944
0.000694154
0.000507332
0.000333193
0.000172161
2.58231e-05
-0.000102168
-0.00020901
-0.00029379
-0.000357146
-0.000400821
-0.00042736
-0.00043979
-0.000441273
-0.000434795
-0.00042296
-0.00040789
-0.000391202
-0.000374062
-0.000357249
-0.000341242
-0.0003263
-0.000312529
-0.000299931
-0.000288448
-0.00027798
-0.000268408
-0.000259598
-0.000251406
-0.000243675
-0.000236225
-0.000228845
-0.000221277
-0.000213203
-0.000204243
-0.000193967
-0.000181968
-0.000168003
-0.000152126
-0.00013478
-0.000116877
-9.92024e-05
-8.22209e-05
-6.6344e-05
-5.19619e-05
-3.92876e-05
-2.83823e-05
-1.92025e-05
-1.16357e-05
-5.52842e-06
-7.08755e-07
2.99827e-06
5.76037e-06
7.73223e-06
9.05257e-06
9.84326e-06
1.02098e-05
1.02423e-05
1.00173e-05
9.59919e-06
9.04203e-06
8.39075e-06
7.68247e-06
6.94686e-06
6.2081e-06
5.48395e-06
4.78829e-06
4.13325e-06
3.53098e-06
2.97932e-06
2.49009e-06
2.05946e-06
1.68429e-06
1.36287e-06
1.09077e-06
8.63147e-07
6.75351e-07
5.22444e-07
3.9926e-07
3.01506e-07
2.25049e-07
1.66053e-07
1.20863e-07
8.66885e-08
6.11087e-08
4.22184e-08
2.85312e-08
1.86981e-08
1.17899e-08
6.97757e-09
3.7277e-09
1.57835e-09
2.03489e-10
-6.10903e-10
-1.06702e-09
-1.25089e-09
-1.27374e-09
-1.2073e-09
-1.31775e-09
0.000859844
0.000751892
0.000609671
0.000458749
0.000312173
0.000174152
4.73402e-05
-6.50705e-05
-0.000160512
-0.000237857
-0.000297306
-0.000340036
-0.000367925
-0.000383301
-0.000388672
-0.000386484
-0.000378937
-0.000367887
-0.000354807
-0.000340803
-0.000326663
-0.000312905
-0.000299847
-0.000287654
-0.000276388
-0.000266038
-0.000256544
-0.00024782
-0.000239754
-0.000232222
-0.000225077
-0.000218152
-0.00021125
-0.000204131
-0.000196511
-0.000188061
-0.000178432
-0.000167315
-0.000154547
-0.000140206
-0.000124658
-0.000108441
-9.2353e-05
-7.69671e-05
-6.25876e-05
-4.94912e-05
-3.78685e-05
-2.77926e-05
-1.9244e-05
-1.21395e-05
-6.35649e-06
-1.75094e-06
1.8277e-06
4.52692e-06
6.48501e-06
7.82766e-06
8.66655e-06
9.09922e-06
9.20971e-06
9.06976e-06
8.74011e-06
8.27187e-06
7.70772e-06
7.08298e-06
6.42624e-06
5.76059e-06
5.10378e-06
4.46966e-06
3.87027e-06
3.31561e-06
2.80826e-06
2.35434e-06
1.95302e-06
1.60216e-06
1.29992e-06
1.04292e-06
8.27554e-07
6.49616e-07
5.04488e-07
3.8765e-07
2.94578e-07
2.21074e-07
1.63991e-07
1.1995e-07
8.64753e-08
6.12509e-08
4.25752e-08
2.90013e-08
1.9213e-08
1.22934e-08
7.45235e-09
4.15394e-09
1.95531e-09
5.30782e-10
-3.33503e-10
-8.32927e-10
-1.06411e-09
-1.13506e-09
-1.12061e-09
-1.16735e-09
0.000710194
0.000629226
0.000521746
0.000402766
0.000282919
0.00016779
6.07133e-05
-3.54545e-05
-0.000118451
-0.000187063
-0.000241144
-0.000281392
-0.000309121
-0.000326053
-0.000334117
-0.000335255
-0.000331273
-0.000323741
-0.000313953
-0.000302919
-0.000291388
-0.000279884
-0.000268753
-0.000258201
-0.000248332
-0.000239173
-0.000230704
-0.000222865
-0.000215573
-0.000208721
-0.000202183
-0.000195809
-0.000189424
-0.000182819
-0.000175753
-0.000167959
-0.00015917
-0.000149164
-0.000137836
-0.000125261
-0.000111719
-9.76272e-05
-8.35492e-05
-7.00174e-05
-5.73589e-05
-4.57751e-05
-3.5424e-05
-2.63831e-05
-1.86524e-05
-1.21755e-05
-6.85874e-06
-2.58671e-06
7.65416e-07
3.32283e-06
5.20511e-06
6.5226e-06
7.37457e-06
7.8486e-06
8.02083e-06
7.95673e-06
7.712e-06
7.33375e-06
6.86143e-06
6.32778e-06
5.75951e-06
5.17822e-06
4.60091e-06
4.0409e-06
3.50925e-06
3.01453e-06
2.56103e-06
2.15292e-06
1.79087e-06
1.47362e-06
1.19948e-06
9.65808e-07
7.69301e-07
6.06213e-07
4.72552e-07
3.64321e-07
2.7765e-07
2.09008e-07
1.55437e-07
1.14546e-07
8.2939e-08
5.89546e-08
4.12326e-08
2.82923e-08
1.89136e-08
1.22421e-08
7.55409e-09
4.33508e-09
2.17433e-09
7.60508e-10
-1.13366e-10
-6.29767e-10
-8.90504e-10
-9.95752e-10
-1.01322e-09
-1.01378e-09
0.00057452
0.000513481
0.000433114
0.000341781
0.00024699
0.000154022
6.63461e-05
-1.34461e-05
-8.3383e-05
-0.000142268
-0.000189729
-0.000226095
-0.000252222
-0.000269333
-0.000278858
-0.000282287
-0.000281048
-0.000276426
-0.000269508
-0.000261177
-0.000252111
-0.000242808
-0.000233613
-0.000224751
-0.00021635
-0.000208469
-0.000201114
-0.000194253
-0.000187826
-0.000181747
-0.000175912
-0.000170195
-0.000164446
-0.000158492
-0.00015214
-0.000145184
-0.000137427
-0.000128715
-0.000118984
-0.000108301
-9.68757e-05
-8.50302e-05
-7.31602e-05
-6.16723e-05
-5.08695e-05
-4.09394e-05
-3.20106e-05
-2.41566e-05
-1.7391e-05
-1.16789e-05
-6.95243e-06
-3.12268e-06
-8.9964e-08
2.24823e-06
3.99175e-06
5.23416e-06
6.06072e-06
6.54747e-06
6.7611e-06
6.75932e-06
6.59157e-06
6.29983e-06
5.91936e-06
5.47953e-06
5.00446e-06
4.51368e-06
4.02278e-06
3.54404e-06
3.08736e-06
2.66033e-06
2.26764e-06
1.91263e-06
1.59644e-06
1.31842e-06
1.07724e-06
8.70841e-07
6.9651e-07
5.51201e-07
4.31634e-07
3.34426e-07
2.56281e-07
1.9411e-07
1.45537e-07
1.08582e-07
7.92171e-08
5.65097e-08
3.98916e-08
2.76801e-08
1.87708e-08
1.23812e-08
7.85642e-09
4.71378e-09
2.57708e-09
1.15562e-09
2.51742e-10
-3.02618e-10
-6.11151e-10
-7.66119e-10
-8.29892e-10
-8.50452e-10
0.000455869
0.000409633
0.000349671
0.00028064
0.000207476
0.000134427
6.46109e-05
3.09666e-07
-5.67945e-05
-0.000105616
-0.000145689
-0.000177106
-0.000200393
-0.000216389
-0.000226127
-0.000230716
-0.000231255
-0.000228757
-0.000224105
-0.000218036
-0.000211133
-0.00020384
-0.000196479
-0.000189268
-0.000182343
-0.000175777
-0.000169595
-0.000163784
-0.000158303
-0.000153089
-0.000148059
-0.000143108
-0.000138118
-0.000132951
-0.000127455
-0.000121478
-0.000114875
-0.000107543
-9.94445e-05
-9.06339e-05
-8.12676e-05
-7.15845e-05
-6.18742e-05
-5.24326e-05
-4.35052e-05
-3.52591e-05
-2.78056e-05
-2.12102e-05
-1.54924e-05
-1.06332e-05
-6.5851e-06
-3.28167e-06
-6.4569e-07
1.4042e-06
2.94872e-06
4.06465e-06
4.82276e-06
5.28682e-06
5.51322e-06
5.55109e-06
5.44277e-06
5.22434e-06
4.92622e-06
4.57384e-06
4.18815e-06
3.78621e-06
3.38169e-06
2.98541e-06
2.60599e-06
2.24995e-06
1.92166e-06
1.62395e-06
1.35802e-06
1.12366e-06
9.199e-07
7.45109e-07
5.9714e-07
4.73507e-07
3.71519e-07
2.88361e-07
2.21219e-07
1.67344e-07
1.25115e-07
9.37237e-08
6.73768e-08
4.88148e-08
3.46012e-08
2.40392e-08
1.63214e-08
1.07723e-08
6.839e-09
4.10273e-09
2.24105e-09
1.00246e-09
2.12736e-10
-2.7202e-10
-5.46526e-10
-6.90496e-10
-7.59663e-10
-7.90057e-10
0.000340612
0.000307294
0.000264806
0.000215583
0.000162594
0.000108852
5.68149e-05
8.32296e-06
-3.52801e-05
-7.30928e-05
-0.000104653
-0.000129906
-0.000149129
-0.000162848
-0.00017175
-0.000176607
-0.000178203
-0.000177282
-0.000174511
-0.000170461
-0.000165597
-0.000160282
-0.000154791
-0.000149315
-0.000143983
-0.000138871
-0.000134011
-0.000129406
-0.000125032
-0.000120846
-0.000116786
-0.000112775
-0.000108724
-0.000104532
-0.000100089
-9.52866e-05
-9.00297e-05
-8.42509e-05
-7.79305e-05
-7.11112e-05
-6.39023e-05
-5.64698e-05
-4.90142e-05
-4.17416e-05
-3.48303e-05
-2.84121e-05
-2.25821e-05
-1.73942e-05
-1.28692e-05
-8.99917e-06
-5.75386e-06
-3.08711e-06
-9.43184e-07
7.38221e-07
2.01804e-06
2.9551e-06
3.60429e-06
4.01552e-06
4.23332e-06
4.29673e-06
4.23957e-06
4.09077e-06
3.87484e-06
3.61234e-06
3.32025e-06
3.01248e-06
2.70022e-06
2.39241e-06
2.09609e-06
1.81663e-06
1.55778e-06
1.32194e-06
1.1103e-06
9.22994e-07
7.59427e-07
6.18475e-07
4.98593e-07
3.97945e-07
3.14538e-07
2.4627e-07
1.90913e-07
1.458e-07
1.10394e-07
8.70628e-08
6.19507e-08
4.43965e-08
3.19506e-08
2.26503e-08
1.57491e-08
1.07197e-08
7.1032e-09
4.5407e-09
2.75707e-09
1.53686e-09
7.25349e-10
1.98302e-10
-1.32294e-10
-3.38641e-10
-4.77209e-10
-5.96896e-10
0.000214644
0.000194143
0.000168416
0.000138578
0.000106148
7.28742e-05
4.03092e-05
9.65691e-06
-1.81964e-05
-4.26411e-05
-6.33309e-05
-8.01663e-05
-9.32582e-05
-0.000102879
-0.000109413
-0.000113308
-0.000115031
-0.000115038
-0.000113748
-0.000111527
-0.000108681
-0.000105456
-0.00010204
-9.85717e-05
-9.51461e-05
-9.18233e-05
-8.86343e-05
-8.55875e-05
-8.26731e-05
-7.98666e-05
-7.71312e-05
-7.44199e-05
-7.16771e-05
-6.88404e-05
-6.58445e-05
-6.26259e-05
-5.913e-05
-5.53206e-05
-5.11894e-05
-4.67636e-05
-4.21078e-05
-3.73188e-05
-3.2514e-05
-2.78153e-05
-2.33324e-05
-1.91483e-05
-1.53287e-05
-1.19125e-05
-8.91652e-06
-6.33971e-06
-4.16633e-06
-2.36974e-06
-9.16251e-07
2.31516e-07
1.11209e-06
1.76322e-06
2.22056e-06
2.51692e-06
2.68176e-06
2.74115e-06
2.7178e-06
2.63124e-06
2.49811e-06
2.33237e-06
2.14563e-06
1.94742e-06
1.74542e-06
1.54575e-06
1.35323e-06
1.17149e-06
1.00308e-06
8.49649e-07
7.12004e-07
5.90278e-07
4.84095e-07
3.92706e-07
3.15081e-07
2.49996e-07
1.96132e-07
1.52146e-07
1.16646e-07
8.557e-08
5.89811e-08
4.28305e-08
3.46946e-08
2.53031e-08
1.77743e-08
1.227e-08
8.23827e-09
5.33212e-09
3.28334e-09
1.86993e-09
9.19933e-10
2.99821e-10
-8.71625e-11
-3.16831e-10
-4.44964e-10
-5.18814e-10
-5.81218e-10
-6.55564e-10
7.46463e-05
6.7525e-05
5.86673e-05
4.84275e-05
3.72808e-05
2.57967e-05
1.45055e-05
3.83001e-06
-5.91617e-06
-1.4516e-05
-2.1842e-05
-2.78503e-05
-3.25697e-05
-3.6085e-05
-3.8521e-05
-4.00258e-05
-4.07568e-05
-4.0869e-05
-4.05068e-05
-3.97976e-05
-3.88496e-05
-3.77505e-05
-3.6569e-05
-3.53559e-05
-3.41471e-05
-3.29656e-05
-3.18241e-05
-3.07269e-05
-2.96715e-05
-2.865e-05
-2.765e-05
-2.66556e-05
-2.56478e-05
-2.46058e-05
-2.35083e-05
-2.23346e-05
-2.10679e-05
-1.96974e-05
-1.82217e-05
-1.66505e-05
-1.50053e-05
-1.3318e-05
-1.16268e-05
-9.9719e-06
-8.38992e-06
-6.91201e-06
-5.55614e-06
-4.33759e-06
-3.26421e-06
-2.33673e-06
-1.55048e-06
-8.96874e-07
-3.64675e-07
5.88354e-08
3.86921e-07
6.32695e-07
8.08617e-07
9.26183e-07
9.95764e-07
1.02655e-06
1.02655e-06
1.00268e-06
9.60837e-07
9.05986e-07
8.42281e-07
7.73161e-07
7.01438e-07
6.29392e-07
5.5885e-07
4.91241e-07
4.27629e-07
3.68758e-07
3.15087e-07
2.66837e-07
2.24037e-07
1.8658e-07
1.54252e-07
1.26777e-07
1.03877e-07
8.54559e-08
7.3293e-08
5.45902e-08
4.4456e-08
3.26225e-08
2.49778e-08
1.90165e-08
1.42674e-08
1.06626e-08
7.92436e-09
5.84372e-09
4.27475e-09
3.09998e-09
2.22658e-09
1.58131e-09
1.10813e-09
7.61892e-10
5.05631e-10
3.01577e-10
8.7192e-11
-3.07043e-10
1.35303e-05
1.46514e-05
1.72297e-05
2.12172e-05
2.6671e-05
3.38144e-05
4.29689e-05
5.45211e-05
6.89245e-05
8.67109e-05
0.0001085
0.000135008
0.000167064
0.000205633
0.000251848
0.000307074
0.000373007
0.00045184
0.000546575
0.000661586
0.000803768
0.000985044
0.00122873
0.0015932
0.00225345
1.34143e-05
1.44937e-05
1.7018e-05
2.09375e-05
2.63049e-05
3.33386e-05
4.23543e-05
5.37319e-05
6.79166e-05
8.54308e-05
0.000106882
0.000132971
0.000164509
0.000202435
0.000247845
0.000302055
0.000366675
0.000443764
0.000536079
0.000647521
0.000783954
0.000954708
0.00117502
0.00146649
0.00183122
1.32084e-05
1.4251e-05
1.67134e-05
2.05493e-05
2.58074e-05
3.27004e-05
4.15372e-05
5.26895e-05
6.6593e-05
8.37579e-05
0.000104777
0.000130334
0.000161213
0.000198321
0.000242707
0.000295611
0.000358527
0.000433313
0.000522363
0.000628872
0.000757201
0.000913153
0.00110281
0.00132328
0.00152469
1.2892e-05
1.38953e-05
1.62773e-05
1.99991e-05
2.51059e-05
3.18029e-05
4.03894e-05
5.1226e-05
6.47347e-05
8.14092e-05
0.000101821
0.000126628
0.00015658
0.000192536
0.000235477
0.000286539
0.000347053
0.000418599
0.000503083
0.000602791
0.000720294
0.00085773
0.00101383
0.00117422
0.00128835
1.24372e-05
1.3394e-05
1.5672e-05
1.92415e-05
2.41449e-05
3.05772e-05
3.88253e-05
4.92347e-05
6.22093e-05
7.82204e-05
9.78122e-05
0.000121607
0.00015031
0.000184716
0.00022572
0.000274323
0.000331646
0.000398927
0.000477493
0.000568616
0.000673072
0.000789907
0.000913269
0.00102553
0.00108698
1.18124e-05
1.27129e-05
1.48595e-05
1.82312e-05
2.2868e-05
2.89525e-05
3.67551e-05
4.66019e-05
5.88731e-05
7.40112e-05
9.25248e-05
0.000114992
0.000142059
0.000174444
0.000212932
0.000258364
0.000311616
0.000373545
0.000444863
0.000525861
0.000615796
0.000711611
0.000805491
0.000881124
0.00091087
1.09823e-05
1.18137e-05
1.37958e-05
1.69149e-05
2.12086e-05
2.68445e-05
3.40723e-05
4.31929e-05
5.45566e-05
6.85693e-05
8.56954e-05
0.000106457
0.000131432
0.000161244
0.000196552
0.000238018
0.000286259
0.000341743
0.000404612
0.000474341
0.00054913
0.000624887
0.000693752
0.000742663
0.000753811
9.90812e-06
1.06544e-05
1.24323e-05
1.52338e-05
1.90936e-05
2.41614e-05
3.06608e-05
3.88613e-05
4.90758e-05
6.16654e-05
7.704e-05
9.5656e-05
0.000118009
0.000144618
0.000176006
0.000212652
0.000254917
0.000302929
0.00035637
0.000414162
0.000473975
0.000531581
0.00058019
0.000610299
0.000611063
8.6217e-06
9.27004e-06
1.0811e-05
1.32402e-05
1.65894e-05
2.09879e-05
2.6629e-05
3.37455e-05
4.26073e-05
5.3524e-05
6.68447e-05
8.29534e-05
0.000102259
0.000125175
0.000152094
0.000183332
0.000219049
0.000259126
0.000302975
0.000349282
0.000395669
0.00043836
0.000471999
0.000489994
0.000485824
7.01491e-06
7.54376e-06
8.7945e-06
1.07656e-05
1.34847e-05
1.70564e-05
2.16372e-05
2.74153e-05
3.46082e-05
4.34641e-05
5.42607e-05
6.7299e-05
8.28918e-05
0.000101344
0.000122921
0.000147797
0.000175979
0.000207195
0.000240752
0.000275347
0.000308893
0.000338399
0.00036005
0.00036966
0.000363616
4.78535e-06
5.14881e-06
6.00175e-06
7.34419e-06
9.19627e-06
1.16296e-05
1.47503e-05
1.86861e-05
2.3584e-05
2.96107e-05
3.69512e-05
4.58024e-05
5.63638e-05
6.882e-05
8.33142e-05
9.99078e-05
0.000118524
0.000138871
0.000160352
0.000181972
0.000202274
0.000219345
0.00023096
0.000234918
0.000229551
1.75181e-06
1.88721e-06
2.20169e-06
2.69532e-06
3.37611e-06
4.27063e-06
5.41794e-06
6.86501e-06
8.66582e-06
1.08814e-05
1.35788e-05
1.68289e-05
2.07014e-05
2.52582e-05
3.05417e-05
3.65591e-05
4.326e-05
5.05093e-05
5.80579e-05
6.55178e-05
7.23522e-05
7.78962e-05
8.14244e-05
8.22697e-05
7.9979e-05
)
;

boundaryField
{
    top
    {
        type            fixedValue;
        value           uniform 0;
    }
    inlet
    {
        type            zeroGradient;
    }
    outlet
    {
        type            fixedValue;
        value           uniform 0;
    }
    plate
    {
        type            zeroGradient;
    }
    symmBound
    {
        type            zeroGradient;
    }
    frontAndBack
    {
        type            empty;
    }
}


// ************************************************************************* //
