/*--------------------------------*- C++ -*----------------------------------*\
| =========                 |                                                 |
| \\      /  F ield         | OpenFOAM: The Open Source CFD Toolbox           |
|  \\    /   O peration     | Version:  2.3.0                                 |
|   \\  /    A nd           | Web:      www.OpenFOAM.org                      |
|    \\/     M anipulation  |                                                 |
\*---------------------------------------------------------------------------*/
FoamFile
{
    version     2.0;
    format      ascii;
    class       surfaceScalarField;
    location    "0.15";
    object      phi;
}
// * * * * * * * * * * * * * * * * * * * * * * * * * * * * * * * * * * * * * //

dimensions      [0 3 -1 0 0 0 0];

internalField   nonuniform List<scalar> 
2863
(
2.80742e-08
2.92263e-09
-3.09968e-08
2.5169e-08
2.90521e-09
2.24414e-08
2.72761e-09
1.99267e-08
2.51466e-09
1.7643e-08
2.28369e-09
1.56026e-08
2.04041e-09
1.38091e-08
1.79356e-09
1.22576e-08
1.55149e-09
1.09362e-08
1.32136e-09
9.82711e-09
1.1091e-09
8.90797e-09
9.19145e-10
8.15387e-09
7.54095e-10
7.53919e-09
6.14683e-10
7.03921e-09
4.99974e-10
6.63145e-09
4.07765e-10
6.29639e-09
3.35063e-10
6.01784e-09
2.78551e-10
5.78287e-09
2.34966e-10
5.58151e-09
2.01359e-10
5.40628e-09
1.75229e-10
5.25171e-09
1.5457e-10
5.11387e-09
1.3784e-10
4.98997e-09
1.23904e-10
4.87802e-09
1.11952e-10
4.77659e-09
1.01423e-10
4.68465e-09
9.19407e-11
4.6014e-09
8.32531e-11
4.5262e-09
7.51957e-11
4.45855e-09
6.76584e-11
4.39798e-09
6.05617e-11
4.34415e-09
5.38365e-11
4.29674e-09
4.74053e-11
4.25558e-09
4.11655e-11
4.2206e-09
3.49751e-11
4.192e-09
2.85982e-11
4.1704e-09
2.16003e-11
4.15696e-09
1.34391e-11
4.15309e-09
3.87266e-12
4.15732e-09
-4.22952e-12
4.1676e-09
-1.02798e-11
4.1822e-09
-1.46018e-11
4.19988e-09
-1.76743e-11
4.21932e-09
-1.94453e-11
4.23931e-09
-1.99859e-11
4.25883e-09
-1.95206e-11
4.27717e-09
-1.83377e-11
4.29388e-09
-1.67151e-11
4.30876e-09
-1.4876e-11
4.32174e-09
-1.29816e-11
4.33288e-09
-1.11405e-11
4.3423e-09
-9.41965e-12
4.35015e-09
-7.85497e-12
4.35661e-09
-6.46163e-12
4.36186e-09
-5.24154e-12
4.36604e-09
-4.18798e-12
4.36933e-09
-3.28938e-12
4.37187e-09
-2.53184e-12
4.37377e-09
-1.90067e-12
4.37515e-09
-1.38148e-12
4.37611e-09
-9.60785e-13
4.37674e-09
-6.26435e-13
4.3771e-09
-3.67853e-13
4.37728e-09
-1.75507e-13
4.37731e-09
-3.03562e-14
4.37723e-09
7.72163e-14
4.37705e-09
1.79089e-13
4.37681e-09
2.40225e-13
4.37652e-09
2.88776e-13
4.3762e-09
3.20581e-13
4.37587e-09
3.30167e-13
4.37556e-09
3.14528e-13
4.37526e-09
2.93861e-13
4.37499e-09
2.70344e-13
4.37475e-09
2.44916e-13
4.37453e-09
2.17957e-13
4.37434e-09
1.89146e-13
4.37418e-09
1.60842e-13
4.37405e-09
1.34799e-13
4.37393e-09
1.11678e-13
4.37384e-09
9.15408e-14
4.37377e-09
7.41744e-14
4.37371e-09
5.94233e-14
4.37366e-09
4.71818e-14
4.37363e-09
3.7166e-14
4.3736e-09
2.90063e-14
4.37357e-09
2.25124e-14
4.37356e-09
1.74335e-14
4.37354e-09
1.34787e-14
4.37353e-09
1.04378e-14
4.37352e-09
8.12279e-15
4.37352e-09
6.37782e-15
4.37351e-09
5.07269e-15
4.37351e-09
4.10598e-15
4.37351e-09
3.39399e-15
4.3735e-09
2.8723e-15
4.3735e-09
2.50029e-15
4.3735e-09
2.23565e-15
4.3735e-09
2.07054e-15
4.37349e-09
1.97937e-15
4.24371e-15
3.59938e-08
3.21348e-09
-3.62846e-08
3.5376e-08
3.523e-09
3.45122e-08
3.59137e-09
3.34808e-08
3.54611e-09
3.23389e-08
3.42554e-09
3.11344e-08
3.24495e-09
2.99064e-08
3.02157e-09
2.86854e-08
2.77248e-09
2.74943e-08
2.51245e-09
2.63496e-08
2.25384e-09
2.52622e-08
2.00651e-09
2.42387e-08
1.77758e-09
2.32822e-08
1.57126e-09
2.23929e-08
1.38923e-09
2.15695e-08
1.23113e-09
2.08094e-08
1.09518e-09
2.01091e-08
9.78817e-10
1.9465e-08
8.79147e-10
1.8873e-08
7.93345e-10
1.83294e-08
7.18854e-10
1.78304e-08
6.53489e-10
1.73728e-08
5.95459e-10
1.69534e-08
5.43341e-10
1.65693e-08
4.96024e-10
1.62181e-08
4.52648e-10
1.58975e-08
4.12551e-10
1.56055e-08
3.75214e-10
1.53405e-08
3.40222e-10
1.51009e-08
3.07232e-10
1.48855e-08
2.75939e-10
1.46933e-08
2.46048e-10
1.45235e-08
2.17248e-10
1.43755e-08
1.89179e-10
1.4249e-08
1.61408e-10
1.41442e-08
1.33432e-10
1.40611e-08
1.04712e-10
1.39998e-08
7.47587e-11
1.3961e-08
4.2602e-11
1.39476e-08
9.21466e-12
1.39566e-08
-1.92821e-11
1.39806e-08
-3.85907e-11
1.40148e-08
-5.18893e-11
1.40555e-08
-6.01073e-11
1.40994e-08
-6.3969e-11
1.41442e-08
-6.42971e-11
1.41879e-08
-6.2e-11
1.42291e-08
-5.79417e-11
1.42671e-08
-5.28405e-11
1.43013e-08
-4.72452e-11
1.43317e-08
-4.15504e-11
1.43583e-08
-3.60215e-11
1.43813e-08
-3.08252e-11
1.44009e-08
-2.60558e-11
1.44174e-08
-2.17578e-11
1.44312e-08
-1.79421e-11
1.44425e-08
-1.4598e-11
1.44517e-08
-1.17012e-11
1.4459e-08
-9.21998e-12
1.44647e-08
-7.11908e-12
1.44691e-08
-5.36198e-12
1.44724e-08
-3.91265e-12
1.44748e-08
-2.73651e-12
1.44764e-08
-1.80048e-12
1.44774e-08
-1.07143e-12
1.44781e-08
-5.34249e-13
1.44784e-08
-1.29923e-13
1.44784e-08
1.56747e-13
1.44783e-08
4.06694e-13
1.44781e-08
5.88062e-13
1.44777e-08
6.92747e-13
1.44773e-08
7.18668e-13
1.44769e-08
7.14925e-13
1.44765e-08
6.88269e-13
1.44761e-08
6.44855e-13
1.44757e-08
5.88924e-13
1.44753e-08
5.22406e-13
1.44751e-08
4.5279e-13
1.44748e-08
3.85641e-13
1.44746e-08
3.23911e-13
1.44744e-08
2.68753e-13
1.44743e-08
2.20302e-13
1.44742e-08
1.78559e-13
1.44741e-08
1.43424e-13
1.4474e-08
1.14363e-13
1.44739e-08
9.04803e-14
1.44739e-08
7.13072e-14
1.44738e-08
5.6135e-14
1.44738e-08
4.42361e-14
1.44738e-08
3.49969e-14
1.44738e-08
2.79046e-14
1.44737e-08
2.24978e-14
1.44737e-08
1.84119e-14
1.44737e-08
1.53397e-14
1.44737e-08
1.30443e-14
1.44737e-08
1.13345e-14
1.44737e-08
1.00732e-14
1.44737e-08
9.1536e-15
1.44737e-08
8.52651e-15
1.44737e-08
8.48111e-15
1.10105e-14
4.06665e-08
3.05024e-09
-4.05032e-08
4.0746e-08
3.44348e-09
4.06967e-08
3.64065e-09
4.05205e-08
3.72227e-09
4.02254e-08
3.72064e-09
3.98238e-08
3.64654e-09
3.93325e-08
3.51287e-09
3.87697e-08
3.33532e-09
3.8153e-08
3.12915e-09
3.74988e-08
2.90806e-09
3.68215e-08
2.68383e-09
3.61333e-08
2.46576e-09
3.54441e-08
2.2604e-09
3.47618e-08
2.0716e-09
3.4092e-08
1.90093e-09
3.34389e-08
1.74823e-09
3.28056e-08
1.61218e-09
3.21939e-08
1.49084e-09
3.16052e-08
1.38207e-09
3.10402e-08
1.28376e-09
3.04997e-08
1.19404e-09
2.99839e-08
1.11129e-09
2.9493e-08
1.03422e-09
2.90272e-08
9.61772e-10
2.85868e-08
8.93123e-10
2.81717e-08
8.27619e-10
2.77822e-08
7.64738e-10
2.74183e-08
7.04048e-10
2.70804e-08
6.4517e-10
2.67686e-08
5.87752e-10
2.64832e-08
5.31432e-10
2.62246e-08
4.7582e-10
2.59933e-08
4.20476e-10
2.57898e-08
3.64925e-10
2.56145e-08
3.08709e-10
2.54677e-08
2.51525e-10
2.53489e-08
1.93593e-10
2.52553e-08
1.36176e-10
2.51836e-08
8.09588e-11
2.51369e-08
2.74081e-11
2.51184e-08
-2.01319e-11
2.51233e-08
-5.6731e-11
2.51456e-08
-8.24306e-11
2.51806e-08
-9.89976e-11
2.52243e-08
-1.07938e-10
2.52731e-08
-1.10842e-10
2.53244e-08
-1.09247e-10
2.53761e-08
-1.04494e-10
2.54265e-08
-9.76759e-11
2.54746e-08
-8.96421e-11
2.55196e-08
-8.10248e-11
2.5561e-08
-7.22781e-11
2.55987e-08
-6.37168e-11
2.56325e-08
-5.55508e-11
2.56625e-08
-4.79127e-11
2.56888e-08
-4.08798e-11
2.57115e-08
-3.449e-11
2.57311e-08
-2.87538e-11
2.57476e-08
-2.36628e-11
2.57615e-08
-1.91954e-11
2.57729e-08
-1.53207e-11
2.57821e-08
-1.20011e-11
2.57895e-08
-9.19337e-12
2.57953e-08
-6.84888e-12
2.57997e-08
-4.92181e-12
2.58029e-08
-3.34912e-12
2.58052e-08
-2.11586e-12
2.58068e-08
-1.17695e-12
2.58079e-08
-5.10565e-13
2.58086e-08
-5.55423e-14
2.58091e-08
2.35735e-13
2.58093e-08
4.60026e-13
2.58094e-08
6.06683e-13
2.58094e-08
6.85102e-13
2.58093e-08
7.07709e-13
2.58091e-08
6.8415e-13
2.58089e-08
6.33293e-13
2.58087e-08
5.68534e-13
2.58086e-08
4.98736e-13
2.58084e-08
4.29293e-13
2.58083e-08
3.632e-13
2.58081e-08
3.02697e-13
2.5808e-08
2.49278e-13
2.58079e-08
2.034e-13
2.58079e-08
1.64449e-13
2.58078e-08
1.32344e-13
2.58078e-08
1.06323e-13
2.58077e-08
8.54933e-14
2.58077e-08
6.90211e-14
2.58077e-08
5.61561e-14
2.58076e-08
4.61904e-14
2.58076e-08
3.85393e-14
2.58076e-08
3.26953e-14
2.58076e-08
2.82576e-14
2.58076e-08
2.48949e-14
2.58076e-08
2.23601e-14
2.58075e-08
2.04684e-14
2.58075e-08
1.91386e-14
2.58075e-08
1.86864e-14
1.95226e-14
4.51737e-08
2.84802e-09
-4.49714e-08
4.53918e-08
3.22532e-09
4.55741e-08
3.45836e-09
4.57047e-08
3.59164e-09
4.57747e-08
3.65067e-09
4.57774e-08
3.64386e-09
4.57109e-08
3.57932e-09
4.55779e-08
3.46841e-09
4.53836e-08
3.32341e-09
4.51356e-08
3.15608e-09
4.48423e-08
2.97707e-09
4.45127e-08
2.79535e-09
4.41553e-08
2.61784e-09
4.37777e-08
2.44923e-09
4.33864e-08
2.29216e-09
4.29871e-08
2.14761e-09
4.25839e-08
2.01535e-09
4.21804e-08
1.89435e-09
4.17792e-08
1.7832e-09
4.13826e-08
1.68037e-09
4.09923e-08
1.58436e-09
4.06098e-08
1.49384e-09
4.02363e-08
1.40768e-09
3.98732e-08
1.32492e-09
3.95215e-08
1.24479e-09
3.91824e-08
1.16667e-09
3.88571e-08
1.09004e-09
3.85467e-08
1.01446e-09
3.82523e-08
9.39539e-10
3.79752e-08
8.64892e-10
3.77165e-08
7.90141e-10
3.74774e-08
7.14888e-10
3.72592e-08
6.38731e-10
3.70628e-08
5.61308e-10
3.68891e-08
4.82414e-10
3.67384e-08
4.02201e-10
3.66105e-08
3.21503e-10
3.65045e-08
2.42132e-10
3.64188e-08
1.66742e-10
3.63486e-08
9.75212e-11
3.62938e-08
3.46732e-11
3.62578e-08
-2.07314e-11
3.62401e-08
-6.47231e-11
3.62385e-08
-9.73521e-11
3.62505e-08
-1.19919e-10
3.62736e-08
-1.33978e-10
3.63055e-08
-1.41145e-10
3.63439e-08
-1.4294e-10
3.6387e-08
-1.40701e-10
3.64329e-08
-1.35539e-10
3.64802e-08
-1.28351e-10
3.65277e-08
-1.19837e-10
3.65746e-08
-1.10533e-10
3.66199e-08
-1.00845e-10
3.6663e-08
-9.10773e-11
3.67036e-08
-8.14543e-11
3.67413e-08
-7.21428e-11
3.67758e-08
-6.32655e-11
3.6807e-08
-5.49119e-11
3.6835e-08
-4.71461e-11
3.68597e-08
-4.00117e-11
3.68812e-08
-3.35346e-11
3.68997e-08
-2.77248e-11
3.69154e-08
-2.25769e-11
3.69286e-08
-1.80755e-11
3.69394e-08
-1.41897e-11
3.69482e-08
-1.09033e-11
3.69552e-08
-8.17805e-12
3.69607e-08
-5.96637e-12
3.69648e-08
-4.2022e-12
3.69679e-08
-2.8358e-12
3.69701e-08
-1.78595e-12
3.69718e-08
-1.01084e-12
3.69729e-08
-4.66648e-13
3.69737e-08
-1.0512e-13
3.69743e-08
1.21629e-13
3.69747e-08
2.64086e-13
3.69749e-08
3.43138e-13
3.6975e-08
3.76008e-13
3.69751e-08
3.76796e-13
3.69751e-08
3.56197e-13
3.69751e-08
3.23339e-13
3.6975e-08
2.85184e-13
3.6975e-08
2.46354e-13
3.69749e-08
2.08891e-13
3.69749e-08
1.75203e-13
3.69748e-08
1.4592e-13
3.69748e-08
1.21114e-13
3.69748e-08
1.00566e-13
3.69748e-08
8.387e-14
3.69747e-08
7.0491e-14
3.69747e-08
5.99056e-14
3.69747e-08
5.16004e-14
3.69747e-08
4.51357e-14
3.69747e-08
4.01227e-14
3.69746e-08
3.62549e-14
3.69746e-08
3.32979e-14
3.69746e-08
3.11211e-14
3.69746e-08
2.97914e-14
2.84126e-14
5.00626e-08
2.67565e-09
-4.98902e-08
5.02779e-08
3.01002e-09
5.04943e-08
3.24199e-09
5.06952e-08
3.39065e-09
5.08717e-08
3.4742e-09
5.10149e-08
3.50067e-09
5.11181e-08
3.47614e-09
5.11776e-08
3.40887e-09
5.11927e-08
3.30835e-09
5.11647e-08
3.18401e-09
5.10972e-08
3.04464e-09
5.09946e-08
2.89792e-09
5.08623e-08
2.75013e-09
5.07057e-08
2.60586e-09
5.05298e-08
2.46808e-09
5.0339e-08
2.33833e-09
5.01373e-08
2.21707e-09
4.99277e-08
2.10396e-09
4.97127e-08
1.99817e-09
4.94945e-08
1.89865e-09
4.92745e-08
1.80429e-09
4.90544e-08
1.71401e-09
4.88352e-08
1.62684e-09
4.86182e-08
1.54193e-09
4.84044e-08
1.45856e-09
4.8195e-08
1.37613e-09
4.79909e-08
1.29411e-09
4.77933e-08
1.21203e-09
4.76034e-08
1.12949e-09
4.74222e-08
1.04609e-09
4.72509e-08
9.61456e-10
4.70905e-08
8.75222e-10
4.69422e-08
7.87079e-10
4.68067e-08
6.9684e-10
4.66845e-08
6.04574e-10
4.65759e-08
5.10799e-10
4.64807e-08
4.16717e-10
4.63985e-08
3.24356e-10
4.63288e-08
2.3639e-10
4.62709e-08
1.55473e-10
4.62221e-08
8.34006e-11
4.61813e-08
2.00807e-11
4.61503e-08
-3.36648e-11
4.61294e-08
-7.64438e-11
4.61184e-08
-1.08959e-10
4.61168e-08
-1.32403e-10
4.61238e-08
-1.48128e-10
4.61384e-08
-1.57488e-10
4.61594e-08
-1.61733e-10
4.61858e-08
-1.6196e-10
4.62165e-08
-1.59091e-10
4.62506e-08
-1.53881e-10
4.6287e-08
-1.46938e-10
4.63249e-08
-1.38747e-10
4.63635e-08
-1.29692e-10
4.64021e-08
-1.20081e-10
4.64402e-08
-1.10161e-10
4.6477e-08
-1.00135e-10
4.65123e-08
-9.01717e-11
4.65456e-08
-8.04161e-11
4.65765e-08
-7.09918e-11
4.6605e-08
-6.20047e-11
4.66308e-08
-5.35433e-11
4.66539e-08
-4.56789e-11
4.66743e-08
-3.84666e-11
4.66921e-08
-3.19435e-11
4.67073e-08
-2.61395e-11
4.67202e-08
-2.1061e-11
4.67309e-08
-1.66909e-11
4.67397e-08
-1.29905e-11
4.67468e-08
-9.9166e-12
4.67524e-08
-7.40222e-12
4.67568e-08
-5.38862e-12
4.67601e-08
-3.81173e-12
4.67626e-08
-2.60325e-12
4.67644e-08
-1.70182e-12
4.67658e-08
-1.045e-12
4.67667e-08
-5.80755e-13
4.67673e-08
-2.65291e-13
4.67678e-08
-6.11412e-14
4.6768e-08
6.42146e-14
4.67682e-08
1.36592e-13
4.67683e-08
1.72563e-13
4.67684e-08
1.84604e-13
4.67684e-08
1.80408e-13
4.67684e-08
1.68033e-13
4.67684e-08
1.51589e-13
4.67684e-08
1.33949e-13
4.67684e-08
1.16902e-13
4.67684e-08
1.01424e-13
4.67684e-08
8.79273e-14
4.67684e-08
7.65061e-14
4.67683e-08
6.70386e-14
4.67683e-08
5.93211e-14
4.67683e-08
5.30969e-14
4.67683e-08
4.81248e-14
4.67683e-08
4.41953e-14
4.67683e-08
4.1145e-14
4.67683e-08
3.88142e-14
3.60278e-14
5.54583e-08
2.53519e-09
-5.53179e-08
5.56454e-08
2.82289e-09
5.58475e-08
3.03992e-09
5.6048e-08
3.19017e-09
5.62382e-08
3.28402e-09
5.64107e-08
3.32819e-09
5.65591e-08
3.32769e-09
5.66793e-08
3.28873e-09
5.67689e-08
3.21867e-09
5.68278e-08
3.12513e-09
5.68572e-08
3.01529e-09
5.68594e-08
2.89565e-09
5.68379e-08
2.77164e-09
5.67963e-08
2.64751e-09
5.67381e-08
2.52622e-09
5.66669e-08
2.40959e-09
5.65855e-08
2.2985e-09
5.64963e-08
2.19309e-09
5.64015e-08
2.09301e-09
5.63025e-08
1.99762e-09
5.62007e-08
1.90613e-09
5.6097e-08
1.81771e-09
5.59922e-08
1.73157e-09
5.58872e-08
1.64698e-09
5.57825e-08
1.56326e-09
5.56788e-08
1.47983e-09
5.55767e-08
1.39619e-09
5.54769e-08
1.31185e-09
5.538e-08
1.2264e-09
5.52866e-08
1.13945e-09
5.51974e-08
1.05065e-09
5.5113e-08
9.59708e-10
5.50336e-08
8.66422e-10
5.49597e-08
7.70767e-10
5.48912e-08
6.73016e-10
5.48281e-08
5.73892e-10
5.47702e-08
4.74714e-10
5.47171e-08
3.77448e-10
5.46689e-08
2.84535e-10
5.46259e-08
1.98456e-10
5.45881e-08
1.21246e-10
5.45544e-08
5.37845e-11
5.45247e-08
-4.0062e-12
5.45002e-08
-5.1872e-11
5.44812e-08
-9.0004e-11
5.44681e-08
-1.1928e-10
5.44607e-08
-1.40802e-10
5.4459e-08
-1.55716e-10
5.44624e-08
-1.6512e-10
5.44704e-08
-1.70009e-10
5.44826e-08
-1.7125e-10
5.44983e-08
-1.69572e-10
5.45169e-08
-1.65581e-10
5.45379e-08
-1.59773e-10
5.45608e-08
-1.52552e-10
5.4585e-08
-1.4425e-10
5.46099e-08
-1.35144e-10
5.46353e-08
-1.25468e-10
5.46605e-08
-1.15427e-10
5.46853e-08
-1.05203e-10
5.47093e-08
-9.49625e-11
5.47321e-08
-8.48579e-11
5.47536e-08
-7.50288e-11
5.47736e-08
-6.56008e-11
5.47918e-08
-5.66848e-11
5.48082e-08
-4.83746e-11
5.48228e-08
-4.07491e-11
5.48356e-08
-3.38629e-11
5.48467e-08
-2.77433e-11
5.48561e-08
-2.23909e-11
5.48639e-08
-1.77885e-11
5.48704e-08
-1.38945e-11
5.48757e-08
-1.0658e-11
5.48799e-08
-8.01804e-12
5.48832e-08
-5.90433e-12
5.48857e-08
-4.24582e-12
5.48877e-08
-2.97009e-12
5.48891e-08
-2.00937e-12
5.48901e-08
-1.30222e-12
5.48909e-08
-7.94519e-13
5.48914e-08
-4.40721e-13
5.48917e-08
-2.02969e-13
5.48919e-08
-4.97734e-14
5.48921e-08
4.48964e-14
5.48922e-08
9.71534e-14
5.48922e-08
1.23304e-13
5.48922e-08
1.31909e-13
5.48922e-08
1.29963e-13
5.48922e-08
1.22207e-13
5.48922e-08
1.11753e-13
5.48922e-08
1.00541e-13
5.48922e-08
8.9721e-14
5.48922e-08
7.98838e-14
5.48922e-08
7.12899e-14
5.48922e-08
6.39761e-14
5.48921e-08
5.78735e-14
5.48921e-08
5.28633e-14
5.48921e-08
4.8796e-14
5.48921e-08
4.54488e-14
4.20234e-14
6.14237e-08
2.41991e-09
-6.13084e-08
6.15814e-08
2.66519e-09
6.17591e-08
2.8622e-09
6.19415e-08
3.0078e-09
6.21195e-08
3.10602e-09
6.22864e-08
3.16124e-09
6.24368e-08
3.17736e-09
6.25665e-08
3.15899e-09
6.26734e-08
3.11176e-09
6.27568e-08
3.04171e-09
6.28174e-08
2.95475e-09
6.28567e-08
2.85631e-09
6.28772e-08
2.7511e-09
6.28818e-08
2.64296e-09
6.28732e-08
2.53477e-09
6.28543e-08
2.4285e-09
6.28275e-08
2.32531e-09
6.27949e-08
2.22573e-09
6.27581e-08
2.12981e-09
6.27184e-08
2.03728e-09
6.26769e-08
1.94765e-09
6.26342e-08
1.86036e-09
6.2591e-08
1.7748e-09
6.25476e-08
1.69036e-09
6.25044e-08
1.60648e-09
6.24616e-08
1.52264e-09
6.24195e-08
1.43833e-09
6.23782e-08
1.35313e-09
6.23379e-08
1.26664e-09
6.22989e-08
1.17851e-09
6.22611e-08
1.08843e-09
6.22246e-08
9.96189e-10
6.21893e-08
9.01695e-10
6.2155e-08
8.0505e-10
6.21214e-08
7.06644e-10
6.2088e-08
6.07267e-10
6.20546e-08
5.08189e-10
6.20208e-08
4.11165e-10
6.19871e-08
3.18287e-10
6.19539e-08
2.31684e-10
6.19219e-08
1.53177e-10
6.18918e-08
8.39443e-11
6.18636e-08
2.4192e-11
6.18379e-08
-2.62247e-11
6.18155e-08
-6.75819e-11
6.17967e-08
-1.0051e-10
6.17818e-08
-1.2588e-10
6.17707e-08
-1.44649e-10
6.17634e-08
-1.57765e-10
6.17595e-08
-1.66119e-10
6.17588e-08
-1.70507e-10
6.17608e-08
-1.71623e-10
6.17653e-08
-1.7006e-10
6.17718e-08
-1.66313e-10
6.17801e-08
-1.60799e-10
6.17897e-08
-1.53867e-10
6.18004e-08
-1.45811e-10
6.18118e-08
-1.36889e-10
6.18237e-08
-1.27326e-10
6.18358e-08
-1.17326e-10
6.18479e-08
-1.07079e-10
6.18598e-08
-9.67611e-11
6.18713e-08
-8.6538e-11
6.18823e-08
-7.65626e-11
6.18926e-08
-6.69739e-11
6.19021e-08
-5.78953e-11
6.19108e-08
-4.94323e-11
6.19186e-08
-4.16669e-11
6.19255e-08
-3.46536e-11
6.19315e-08
-2.84194e-11
6.19367e-08
-2.29672e-11
6.19411e-08
-1.82756e-11
6.19447e-08
-1.43062e-11
6.19477e-08
-1.10062e-11
6.19501e-08
-8.31092e-12
6.1952e-08
-6.14964e-12
6.19535e-08
-4.44854e-12
6.19546e-08
-3.13508e-12
6.19555e-08
-2.14124e-12
6.19561e-08
-1.40527e-12
6.19565e-08
-8.73162e-13
6.19568e-08
-4.98595e-13
6.1957e-08
-2.42872e-13
6.19571e-08
-7.45997e-14
6.19572e-08
2.82921e-14
6.19572e-08
8.92523e-14
6.19572e-08
1.20376e-13
6.19572e-08
1.32426e-13
6.19572e-08
1.327e-13
6.19572e-08
1.26254e-13
6.19572e-08
1.1645e-13
6.19572e-08
1.05442e-13
6.19572e-08
9.45173e-14
6.19572e-08
8.43969e-14
6.19571e-08
7.54131e-14
6.19571e-08
6.76708e-14
6.19571e-08
6.11426e-14
6.19571e-08
5.57107e-14
6.19571e-08
5.11808e-14
4.718e-14
6.80176e-08
2.32498e-09
-6.79227e-08
6.8148e-08
2.53475e-09
6.82991e-08
2.71109e-09
6.84582e-08
2.84872e-09
6.86165e-08
2.9477e-09
6.87678e-08
3.01004e-09
6.89068e-08
3.03834e-09
6.90298e-08
3.03591e-09
6.91347e-08
3.00689e-09
6.92205e-08
2.95595e-09
6.92874e-08
2.88783e-09
6.93367e-08
2.80702e-09
6.93702e-08
2.71758e-09
6.93902e-08
2.62294e-09
6.93992e-08
2.52583e-09
6.93994e-08
2.42828e-09
6.9393e-08
2.33166e-09
6.9382e-08
2.23679e-09
6.93677e-08
2.14406e-09
6.93515e-08
2.0535e-09
6.93342e-08
1.96496e-09
6.93165e-08
1.87809e-09
6.92988e-08
1.79249e-09
6.92814e-08
1.70772e-09
6.92646e-08
1.62333e-09
6.92483e-08
1.53888e-09
6.92327e-08
1.45394e-09
6.92177e-08
1.36814e-09
6.92032e-08
1.28112e-09
6.91892e-08
1.1926e-09
6.91752e-08
1.10234e-09
6.91612e-08
1.01021e-09
6.91467e-08
9.16199e-10
6.91313e-08
8.20503e-10
6.91143e-08
7.23568e-10
6.90954e-08
6.26171e-10
6.90742e-08
5.29459e-10
6.90504e-08
4.34932e-10
6.90244e-08
3.44324e-10
6.89967e-08
2.59392e-10
6.89682e-08
1.81672e-10
6.89398e-08
1.12257e-10
6.89124e-08
5.16287e-11
6.88864e-08
-2.61417e-13
6.88626e-08
-4.37042e-11
6.88412e-08
-7.91768e-11
6.88227e-08
-1.07354e-10
6.88071e-08
-1.29019e-10
6.87943e-08
-1.44983e-10
6.87842e-08
-1.56031e-10
6.87766e-08
-1.62893e-10
6.87712e-08
-1.66224e-10
6.87677e-08
-1.66599e-10
6.87659e-08
-1.64517e-10
6.87655e-08
-1.60405e-10
6.87663e-08
-1.5463e-10
6.8768e-08
-1.47511e-10
6.87704e-08
-1.39327e-10
6.87734e-08
-1.30326e-10
6.87769e-08
-1.20735e-10
6.87805e-08
-1.10763e-10
6.87844e-08
-1.00604e-10
6.87883e-08
-9.04388e-11
6.87922e-08
-8.04361e-11
6.87959e-08
-7.07483e-11
6.87995e-08
-6.15107e-11
6.8803e-08
-5.28391e-11
6.88061e-08
-4.48257e-11
6.8809e-08
-3.75358e-11
6.88116e-08
-3.10074e-11
6.88139e-08
-2.52533e-11
6.88159e-08
-2.02622e-11
6.88176e-08
-1.60032e-11
6.8819e-08
-1.24297e-11
6.88202e-08
-9.48247e-12
6.88211e-08
-7.09408e-12
6.88218e-08
-5.19311e-12
6.88224e-08
-3.70793e-12
6.88228e-08
-2.56997e-12
6.88232e-08
-1.71591e-12
6.88234e-08
-1.08911e-12
6.88235e-08
-6.40153e-13
6.88236e-08
-3.28324e-13
6.88236e-08
-1.22222e-13
6.88237e-08
1.18037e-14
6.88237e-08
9.20911e-14
6.88236e-08
1.3526e-13
6.88236e-08
1.53832e-13
6.88236e-08
1.56853e-13
6.88236e-08
1.50681e-13
6.88235e-08
1.39609e-13
6.88235e-08
1.26465e-13
6.88235e-08
1.1301e-13
6.88235e-08
1.00274e-13
6.88235e-08
8.87868e-14
6.88235e-08
7.87596e-14
6.88235e-08
7.02132e-14
6.88235e-08
6.30431e-14
6.88234e-08
5.70806e-14
5.21071e-14
6.76848e-08
2.25459e-09
-6.76144e-08
6.7781e-08
2.43856e-09
6.78943e-08
2.59785e-09
6.80158e-08
2.72714e-09
6.81389e-08
2.82468e-09
6.82581e-08
2.89085e-09
6.83693e-08
2.92713e-09
6.84694e-08
2.93582e-09
6.85563e-08
2.91998e-09
6.8629e-08
2.88319e-09
6.86876e-08
2.82927e-09
6.87326e-08
2.76197e-09
6.87654e-08
2.68478e-09
6.87876e-08
2.60077e-09
6.88009e-08
2.5125e-09
6.88072e-08
2.422e-09
6.88081e-08
2.33074e-09
6.88052e-08
2.23975e-09
6.87996e-08
2.14963e-09
6.87924e-08
2.06068e-09
6.87844e-08
1.97296e-09
6.87762e-08
1.88634e-09
6.87681e-08
1.8006e-09
6.87604e-08
1.71543e-09
6.87532e-08
1.63049e-09
6.87466e-08
1.54544e-09
6.87406e-08
1.45994e-09
6.87351e-08
1.37365e-09
6.87299e-08
1.28631e-09
6.87249e-08
1.19766e-09
6.87197e-08
1.10754e-09
6.8714e-08
1.01589e-09
6.87074e-08
9.22766e-10
6.86995e-08
8.28413e-10
6.86898e-08
7.33296e-10
6.86778e-08
6.38153e-10
6.86633e-08
5.44008e-10
6.86461e-08
4.52144e-10
6.86264e-08
3.64014e-10
6.86047e-08
2.81086e-10
6.85817e-08
2.04661e-10
6.85582e-08
1.35712e-10
6.85351e-08
7.4787e-11
6.85128e-08
2.19976e-11
6.84919e-08
-2.28371e-11
6.84729e-08
-6.00896e-11
6.84558e-08
-9.029e-11
6.84409e-08
-1.14085e-10
6.84281e-08
-1.32172e-10
6.84173e-08
-1.45252e-10
6.84084e-08
-1.53993e-10
6.84012e-08
-1.59015e-10
6.83954e-08
-1.60877e-10
6.8391e-08
-1.60075e-10
6.83876e-08
-1.57047e-10
6.83852e-08
-1.52177e-10
6.83835e-08
-1.45801e-10
6.83824e-08
-1.3822e-10
6.83817e-08
-1.29703e-10
6.83815e-08
-1.20496e-10
6.83816e-08
-1.10826e-10
6.83819e-08
-1.00901e-10
6.83823e-08
-9.09143e-11
6.8383e-08
-8.10444e-11
6.83837e-08
-7.1451e-11
6.83844e-08
-6.22749e-11
6.83852e-08
-5.36355e-11
6.8386e-08
-4.56281e-11
6.83868e-08
-3.83212e-11
6.83876e-08
-3.17565e-11
6.83882e-08
-2.59503e-11
6.83889e-08
-2.08955e-11
6.83894e-08
-1.65649e-11
6.83899e-08
-1.29153e-11
6.83903e-08
-9.8909e-12
6.83907e-08
-7.42734e-12
6.83909e-08
-5.45593e-12
6.83911e-08
-3.90711e-12
6.83913e-08
-2.71366e-12
6.83914e-08
-1.81285e-12
6.83914e-08
-1.14786e-12
6.83915e-08
-6.68238e-13
6.83915e-08
-3.32387e-13
6.83915e-08
-1.08512e-13
6.83914e-08
3.43801e-14
6.83914e-08
1.20665e-13
6.83914e-08
1.6633e-13
6.83913e-08
1.85254e-13
6.83913e-08
1.87039e-13
6.83913e-08
1.78536e-13
6.83913e-08
1.64533e-13
6.83912e-08
1.48224e-13
6.83912e-08
1.31622e-13
6.83912e-08
1.15922e-13
6.83912e-08
1.01749e-13
6.83912e-08
8.93554e-14
6.83912e-08
7.87696e-14
6.83912e-08
6.98783e-14
6.83912e-08
6.25192e-14
5.65912e-14
8.55009e-08
2.19144e-09
-8.54377e-08
8.55862e-08
2.3532e-09
8.56876e-08
2.49649e-09
8.5798e-08
2.61671e-09
8.59114e-08
2.71135e-09
8.60226e-08
2.77964e-09
8.61277e-08
2.82205e-09
8.62235e-08
2.83996e-09
8.6308e-08
2.83547e-09
8.638e-08
2.81119e-09
8.64392e-08
2.77008e-09
8.6486e-08
2.71519e-09
8.65213e-08
2.64944e-09
8.65466e-08
2.57553e-09
8.65633e-08
2.49582e-09
8.6573e-08
2.41227e-09
8.65773e-08
2.32641e-09
8.65776e-08
2.23941e-09
8.65752e-08
2.15207e-09
8.6571e-08
2.06489e-09
8.65658e-08
1.97813e-09
8.65603e-08
1.89189e-09
8.65548e-08
1.80608e-09
8.65497e-08
1.72057e-09
8.6545e-08
1.63513e-09
8.6541e-08
1.54951e-09
8.65374e-08
1.46347e-09
8.65343e-08
1.37675e-09
8.65315e-08
1.28913e-09
8.65287e-08
1.20044e-09
8.65257e-08
1.11059e-09
8.6522e-08
1.01956e-09
8.65173e-08
9.2748e-10
8.65111e-08
8.34621e-10
8.65029e-08
7.41455e-10
8.64924e-08
6.48661e-10
8.64793e-08
5.57141e-10
8.64635e-08
4.6798e-10
8.64451e-08
3.82382e-10
8.64246e-08
3.01558e-10
8.64027e-08
2.266e-10
8.638e-08
1.58366e-10
8.63574e-08
9.74052e-11
8.63355e-08
4.39469e-11
8.63147e-08
-2.06712e-12
8.62955e-08
-4.08866e-11
8.62781e-08
-7.29083e-11
8.62627e-08
-9.86541e-11
8.62492e-08
-1.18712e-10
8.62376e-08
-1.33695e-10
8.62279e-08
-1.44212e-10
8.62197e-08
-1.50841e-10
8.62129e-08
-1.54122e-10
8.62074e-08
-1.54546e-10
8.62029e-08
-1.52558e-10
8.61993e-08
-1.48554e-10
8.61964e-08
-1.42891e-10
8.61941e-08
-1.35891e-10
8.61922e-08
-1.27844e-10
8.61907e-08
-1.19017e-10
8.61896e-08
-1.09653e-10
8.61886e-08
-9.99766e-11
8.61879e-08
-9.01948e-11
8.61874e-08
-8.04945e-11
8.61869e-08
-7.10428e-11
8.61867e-08
-6.19854e-11
8.61865e-08
-5.34442e-11
8.61864e-08
-4.55158e-11
8.61863e-08
-3.82701e-11
8.61863e-08
-3.17501e-11
8.61863e-08
-2.59737e-11
8.61864e-08
-2.09354e-11
8.61864e-08
-1.66103e-11
8.61864e-08
-1.29572e-11
8.61865e-08
-9.92251e-12
8.61865e-08
-7.44431e-12
8.61865e-08
-5.45614e-12
8.61865e-08
-3.89045e-12
8.61864e-08
-2.68155e-12
8.61864e-08
-1.76774e-12
8.61863e-08
-1.09259e-12
8.61863e-08
-6.04683e-13
8.61862e-08
-2.63176e-13
8.61862e-08
-5.14838e-14
8.61861e-08
1.00794e-13
8.6186e-08
1.82901e-13
8.6186e-08
2.24472e-13
8.61859e-08
2.37901e-13
8.61859e-08
2.33647e-13
8.61858e-08
2.19089e-13
8.61858e-08
1.9927e-13
8.61858e-08
1.77558e-13
8.61857e-08
1.56078e-13
8.61857e-08
1.36071e-13
8.61857e-08
1.18169e-13
8.61857e-08
1.026e-13
8.61857e-08
8.93442e-14
8.61857e-08
7.82378e-14
8.61857e-08
6.90674e-14
6.16085e-14
1.08026e-07
2.14429e-09
-1.07979e-07
1.0809e-07
2.28968e-09
1.08166e-07
2.4204e-09
1.0825e-07
2.53266e-09
1.08338e-07
2.62382e-09
1.08425e-07
2.69252e-09
1.08508e-07
2.73858e-09
1.08586e-07
2.76268e-09
1.08655e-07
2.76619e-09
1.08715e-07
2.75106e-09
1.08765e-07
2.71955e-09
1.08807e-07
2.67415e-09
1.08839e-07
2.61734e-09
1.08863e-07
2.55149e-09
1.0888e-07
2.47875e-09
1.08891e-07
2.40098e-09
1.08898e-07
2.31973e-09
1.08901e-07
2.23625e-09
1.08901e-07
2.15145e-09
1.089e-07
2.06598e-09
1.08898e-07
1.98027e-09
1.08896e-07
1.89454e-09
1.08893e-07
1.80887e-09
1.0889e-07
1.72323e-09
1.08888e-07
1.6375e-09
1.08886e-07
1.55154e-09
1.08884e-07
1.46514e-09
1.08883e-07
1.37815e-09
1.08881e-07
1.29039e-09
1.0888e-07
1.20176e-09
1.08878e-07
1.1122e-09
1.08876e-07
1.02177e-09
1.08873e-07
9.30624e-10
1.08869e-07
8.39053e-10
1.08863e-07
7.4752e-10
1.08855e-07
6.56655e-10
1.08845e-07
5.67259e-10
1.08832e-07
4.80267e-10
1.08818e-07
3.96701e-10
1.08802e-07
3.17586e-10
1.08785e-07
2.43859e-10
1.08767e-07
1.76288e-10
1.08749e-07
1.15408e-10
1.08731e-07
6.15068e-11
1.08714e-07
1.46402e-11
1.08699e-07
-2.53797e-11
1.08685e-07
-5.88084e-11
1.08672e-07
-8.60807e-11
1.08661e-07
-1.07693e-10
1.08652e-07
-1.24184e-10
1.08644e-07
-1.36108e-10
1.08637e-07
-1.44008e-10
1.08631e-07
-1.48404e-10
1.08626e-07
-1.49781e-10
1.08622e-07
-1.48585e-10
1.08619e-07
-1.45225e-10
1.08616e-07
-1.40073e-10
1.08614e-07
-1.3347e-10
1.08612e-07
-1.25726e-10
1.0861e-07
-1.17126e-10
1.08608e-07
-1.07934e-10
1.08606e-07
-9.83886e-11
1.08605e-07
-8.8711e-11
1.08604e-07
-7.90989e-11
1.08602e-07
-6.97274e-11
1.08601e-07
-6.07474e-11
1.086e-07
-5.22837e-11
1.08599e-07
-4.44339e-11
1.08598e-07
-3.7268e-11
1.08597e-07
-3.08282e-11
1.08596e-07
-2.51314e-11
1.08595e-07
-2.0171e-11
1.08595e-07
-1.59207e-11
1.08594e-07
-1.23383e-11
1.08593e-07
-9.36971e-12
1.08593e-07
-6.95262e-12
1.08592e-07
-5.02062e-12
1.08592e-07
-3.50646e-12
1.08592e-07
-2.3448e-12
1.08591e-07
-1.47412e-12
1.08591e-07
-8.38216e-13
1.08591e-07
-3.80541e-13
1.08591e-07
-5.56038e-14
1.08591e-07
1.21592e-13
1.0859e-07
2.41406e-13
1.0859e-07
3.02031e-13
1.0859e-07
3.23965e-13
1.0859e-07
3.20892e-13
1.0859e-07
3.02476e-13
1.0859e-07
2.75764e-13
1.0859e-07
2.45612e-13
1.0859e-07
2.15189e-13
1.0859e-07
1.86429e-13
1.0859e-07
1.60389e-13
1.0859e-07
1.37526e-13
1.0859e-07
1.17907e-13
1.0859e-07
1.01359e-13
1.0859e-07
8.75855e-14
1.0859e-07
7.62963e-14
6.76047e-14
1.36502e-07
-1.36486e-07
1.36525e-07
1.36554e-07
1.36587e-07
1.36624e-07
1.36661e-07
1.36698e-07
1.36734e-07
1.36767e-07
1.36797e-07
1.36823e-07
1.36846e-07
1.36865e-07
1.36881e-07
1.36894e-07
1.36905e-07
1.36913e-07
1.36919e-07
1.36925e-07
1.36929e-07
1.36933e-07
1.36936e-07
1.36939e-07
1.36941e-07
1.36944e-07
1.36947e-07
1.3695e-07
1.36953e-07
1.36956e-07
1.36958e-07
1.36961e-07
1.36963e-07
1.36964e-07
1.36965e-07
1.36965e-07
1.36964e-07
1.36962e-07
1.36958e-07
1.36954e-07
1.36949e-07
1.36943e-07
1.36937e-07
1.3693e-07
1.36924e-07
1.36918e-07
1.36912e-07
1.36906e-07
1.36901e-07
1.36897e-07
1.36893e-07
1.3689e-07
1.36887e-07
1.36884e-07
1.36881e-07
1.36879e-07
1.36877e-07
1.36874e-07
1.36872e-07
1.3687e-07
1.36867e-07
1.36864e-07
1.36861e-07
1.36859e-07
1.36856e-07
1.36852e-07
1.36849e-07
1.36846e-07
1.36843e-07
1.3684e-07
1.36838e-07
1.36835e-07
1.36832e-07
1.3683e-07
1.36828e-07
1.36826e-07
1.36825e-07
1.36823e-07
1.36822e-07
1.36821e-07
1.3682e-07
1.36819e-07
1.36818e-07
1.36817e-07
1.36817e-07
1.36816e-07
1.36816e-07
1.36816e-07
1.36816e-07
1.36815e-07
1.36815e-07
1.36815e-07
1.36815e-07
1.36815e-07
1.36815e-07
1.36815e-07
1.36815e-07
1.36815e-07
1.36815e-07
1.36815e-07
3.44604e-08
2.18803e-12
3.44581e-08
4.80037e-12
3.44547e-08
7.96973e-12
3.44499e-08
1.18165e-11
3.44437e-08
1.64776e-11
3.44358e-08
2.21099e-11
3.44258e-08
2.88925e-11
3.44133e-08
3.70269e-11
3.43979e-08
4.67385e-11
3.4379e-08
5.82802e-11
3.4356e-08
7.19384e-11
3.43282e-08
8.80417e-11
3.42947e-08
1.06977e-10
3.42546e-08
1.29213e-10
3.42066e-08
1.5535e-10
3.41492e-08
1.86191e-10
3.40804e-08
2.22881e-10
3.39975e-08
2.67161e-10
3.38963e-08
3.21862e-10
3.37706e-08
3.91962e-10
3.3609e-08
4.87117e-10
3.3389e-08
6.28639e-10
3.30579e-08
8.73255e-10
3.24505e-08
1.42749e-09
3.05823e-09
3.80474e-08
3.50073e-12
3.80449e-08
7.29218e-12
3.80412e-08
1.17134e-11
3.8036e-08
1.69614e-11
3.80293e-08
2.32425e-11
3.80206e-08
3.07828e-11
3.80096e-08
3.98296e-11
3.7996e-08
5.06553e-11
3.79792e-08
6.35606e-11
3.79586e-08
7.88814e-11
3.79335e-08
9.69968e-11
3.79032e-08
1.18343e-10
3.78668e-08
1.43436e-10
3.78231e-08
1.72909e-10
3.77708e-08
2.0758e-10
3.77085e-08
2.48565e-10
3.76339e-08
2.97474e-10
3.75443e-08
3.56783e-10
3.74356e-08
4.30539e-10
3.73017e-08
5.25826e-10
3.71327e-08
6.56094e-10
3.69119e-08
8.4944e-10
3.66144e-08
1.17082e-09
3.626e-08
1.78182e-09
3.03364e-09
4.20078e-08
4.89842e-12
4.20051e-08
9.98343e-12
4.2001e-08
1.5759e-11
4.19955e-08
2.25257e-11
4.19882e-08
3.05632e-11
4.19788e-08
4.01707e-11
4.19669e-08
5.16695e-11
4.19522e-08
6.54082e-11