/*--------------------------------*- C++ -*----------------------------------*\
| =========                 |                                                 |
| \\      /  F ield         | OpenFOAM: The Open Source CFD Toolbox           |
|  \\    /   O peration     | Version:  2.3.0                                 |
|   \\  /    A nd           | Web:      www.OpenFOAM.org                      |
|    \\/     M anipulation  |                                                 |
\*---------------------------------------------------------------------------*/
FoamFile
{
    version     2.0;
    format      ascii;
    class       surfaceScalarField;
    location    "0.15";
    object      phi_0;
}
// * * * * * * * * * * * * * * * * * * * * * * * * * * * * * * * * * * * * * //

dimensions      [0 3 -1 0 0 0 0];

internalField   nonuniform List<scalar> 
2863
(
2.80744e-08
2.92259e-09
-3.0997e-08
2.51692e-08
2.90517e-09
2.24417e-08
2.72756e-09
1.99271e-08
2.51461e-09
1.76434e-08
2.28363e-09
1.56031e-08
2.04035e-09
1.38096e-08
1.7935e-09
1.22582e-08
1.55142e-09
1.09369e-08
1.32128e-09
9.82786e-09
1.10902e-09
8.90881e-09
9.19055e-10
8.15481e-09
7.53998e-10
7.54023e-09
6.14577e-10
7.04037e-09
4.99858e-10
6.63274e-09
4.07637e-10
6.29782e-09
3.34921e-10
6.01942e-09
2.78394e-10
5.78463e-09
2.34792e-10
5.58346e-09
2.01167e-10
5.40845e-09
1.75017e-10
5.25411e-09
1.54336e-10
5.11653e-09
1.37583e-10
4.99291e-09
1.23623e-10
4.88126e-09
1.11646e-10
4.78017e-09
1.01091e-10
4.68859e-09
9.15807e-11
4.60572e-09
8.28648e-11
4.53094e-09
7.47787e-11
4.46373e-09
6.72119e-11
4.40365e-09
6.00837e-11
4.35033e-09
5.33215e-11
4.30349e-09
4.68417e-11
4.26295e-09
4.0533e-11
4.22871e-09
3.4241e-11
4.20102e-09
2.76943e-11
4.18059e-09
2.04225e-11
4.16873e-09
1.18623e-11
4.16658e-09
2.14925e-12
4.17215e-09
-5.56696e-12
4.18351e-09
-1.13601e-11
4.19896e-09
-1.54532e-11
4.21728e-09
-1.8316e-11
4.23713e-09
-1.98493e-11
4.25729e-09
-2.01661e-11
4.27681e-09
-1.95195e-11
4.29502e-09
-1.82074e-11
4.31152e-09
-1.6503e-11
4.32614e-09
-1.46192e-11
4.33885e-09
-1.27072e-11
4.34972e-09
-1.0867e-11
4.35888e-09
-9.15853e-12
4.36649e-09
-7.613e-12
4.37273e-09
-6.24223e-12
4.37778e-09
-5.04588e-12
4.38179e-09
-4.01582e-12
4.38493e-09
-3.13967e-12
4.38734e-09
-2.40308e-12
4.38913e-09
-1.79118e-12
4.39042e-09
-1.28955e-12
4.3913e-09
-8.84812e-13
4.39187e-09
-5.64987e-13
4.39219e-09
-3.19748e-13
4.39233e-09
-1.38466e-13
4.39233e-09
-2.5135e-15
4.39222e-09
1.04456e-13
4.39202e-09
1.98996e-13
4.39177e-09
2.54316e-13
4.39147e-09
2.99712e-13
4.39114e-09
3.27161e-13
4.39081e-09
3.28923e-13
4.3905e-09
3.11562e-13
4.39021e-09
2.89548e-13
4.38995e-09
2.65063e-13
4.38971e-09
2.38923e-13
4.3895e-09
2.11283e-13
4.38932e-09
1.82213e-13
4.38916e-09
1.54261e-13
4.38903e-09
1.2884e-13
4.38893e-09
1.06431e-13
4.38884e-09
8.6971e-14
4.38877e-09
7.02612e-14
4.38871e-09
5.61474e-14
4.38867e-09
4.45152e-14
4.38863e-09
3.50107e-14
4.38861e-09
2.72848e-14
4.38858e-09
2.11731e-14
4.38857e-09
1.63929e-14
4.38856e-09
1.26906e-14
4.38855e-09
9.84252e-15
4.38854e-09
7.68502e-15
4.38853e-09
6.05788e-15
4.38853e-09
4.84028e-15
4.38852e-09
3.94344e-15
4.38852e-09
3.27633e-15
4.38852e-09
2.79308e-15
4.38851e-09
2.44431e-15
4.38851e-09
2.19671e-15
4.38851e-09
2.04285e-15
4.38851e-09
1.95468e-15
4.19728e-15
3.5994e-08
3.21339e-09
-3.62848e-08
3.53763e-08
3.52291e-09
3.45126e-08
3.59127e-09
3.34812e-08
3.54598e-09
3.23395e-08
3.4254e-09
3.1135e-08
3.24478e-09
2.99071e-08
3.02138e-09
2.86863e-08
2.77226e-09
2.74954e-08
2.51221e-09
2.63508e-08
2.25357e-09
2.52637e-08
2.00621e-09
2.42404e-08
1.77723e-09
2.32842e-08
1.57087e-09
2.23952e-08
1.3888e-09
2.15722e-08
1.23065e-09
2.08125e-08
1.09464e-09
2.01127e-08
9.78212e-10
1.9469e-08
8.78472e-10
1.88776e-08
7.92593e-10
1.83346e-08
7.18019e-10
1.78363e-08
6.52564e-10
1.73795e-08
5.94436e-10
1.69609e-08
5.42213e-10
1.65777e-08
4.94783e-10
1.62275e-08
4.51287e-10
1.59081e-08
4.1106e-10
1.56173e-08
3.73585e-10
1.53537e-08
3.38446e-10
1.51156e-08
3.05296e-10
1.49019e-08
2.73825e-10
1.47114e-08
2.43731e-10
1.45436e-08
2.14687e-10
1.43978e-08
1.86315e-10
1.42739e-08
1.58162e-10
1.41719e-08
1.29708e-10
1.40919e-08
1.00422e-10
1.4034e-08
6.97962e-11
1.39994e-08
3.66905e-11
1.39905e-08
3.37341e-12
1.40029e-08
-2.3761e-11
1.40293e-08
-4.192e-11
1.40654e-08
-5.43537e-11
1.41073e-08
-6.17484e-11
1.4152e-08
-6.48705e-11
1.41971e-08
-6.45915e-11
1.42407e-08
-6.184e-11
1.42816e-08
-5.74687e-11
1.43192e-08
-5.2171e-11
1.4353e-08
-4.64684e-11
1.43828e-08
-4.07308e-11
1.44089e-08
-3.52036e-11
1.44313e-08
-3.00378e-11
1.44504e-08
-2.53167e-11
1.44664e-08
-2.10771e-11
1.44797e-08
-1.73245e-11
1.44906e-08
-1.40448e-11
1.44994e-08
-1.12114e-11
1.45064e-08
-8.79133e-12
1.45119e-08
-6.74834e-12
1.4516e-08
-5.04544e-12
1.45191e-08
-3.64639e-12
1.45213e-08
-2.51651e-12
1.45228e-08
-1.62227e-12
1.45237e-08
-9.33401e-13
1.45243e-08
-4.30708e-13
1.45245e-08
-5.2576e-14
1.45246e-08
2.20822e-13
1.45244e-08
4.58345e-13
1.45241e-08
6.23437e-13
1.45237e-08
7.04986e-13
1.45233e-08
7.22862e-13
1.45229e-08
7.11807e-13
1.45225e-08
6.79749e-13
1.45221e-08
6.32301e-13
1.45217e-08
5.73131e-13
1.45214e-08
5.04907e-13
1.45211e-08
4.35385e-13
1.45209e-08
3.69343e-13
1.45207e-08
3.09183e-13
1.45205e-08
2.55722e-13
1.45204e-08
2.08994e-13
1.45203e-08
1.68996e-13
1.45202e-08
1.35541e-13
1.45201e-08
1.07945e-13
1.452e-08
8.53249e-14
1.452e-08
6.72557e-14
1.452e-08
5.29815e-14
1.45199e-08
4.18202e-14
1.45199e-08
3.31728e-14
1.45199e-08
2.65424e-14
1.45199e-08
2.14983e-14
1.45199e-08
1.76802e-14
1.45198e-08
1.48169e-14
1.45198e-08
1.26702e-14
1.45198e-08
1.10712e-14
1.45198e-08
9.88989e-15
1.45198e-08
9.0219e-15
1.45198e-08
8.43127e-15
1.45198e-08
8.39784e-15
1.08947e-14
4.06667e-08
3.05011e-09
-4.05034e-08
4.07463e-08
3.44334e-09
4.06971e-08
3.64048e-09
4.0521e-08
3.72207e-09
4.0226e-08
3.72041e-09
3.98245e-08
3.64627e-09
3.93333e-08
3.51256e-09
3.87706e-08
3.33496e-09
3.81541e-08
3.12873e-09
3.75001e-08
2.90758e-09
3.6823e-08
2.68328e-09
3.61351e-08
2.46514e-09
3.54463e-08
2.25969e-09
3.47643e-08
2.07079e-09
3.40949e-08
1.90002e-09
3.34423e-08
1.7472e-09
3.28095e-08
1.61101e-09
3.21985e-08
1.48953e-09
3.16105e-08
1.3806e-09
3.10464e-08
1.28211e-09
3.05068e-08
1.19219e-09
2.9992e-08
1.10924e-09
2.95022e-08
1.03194e-09
2.90378e-08
9.59239e-10
2.85987e-08
8.9032e-10
2.81853e-08
8.24524e-10
2.77975e-08
7.61327e-10
2.74357e-08
7.00294e-10
2.70999e-08
6.41041e-10
2.67906e-08
5.83206e-10
2.65079e-08
5.26416e-10
2.62523e-08
4.70265e-10
2.60243e-08
4.14297e-10
2.58245e-08
3.58032e-10
2.56531e-08
3.01023e-10
2.55105e-08
2.4303e-10
2.53959e-08
1.84445e-10
2.53058e-08
1.26738e-10
2.52379e-08
7.13261e-11
2.51962e-08
1.78945e-11
2.51826e-08
-2.82728e-11
2.51912e-08
-6.29624e-11
2.52164e-08
-8.70062e-11
2.52537e-08
-1.02104e-10
2.52989e-08
-1.09801e-10
2.53488e-08
-1.11713e-10
2.54007e-08
-1.09368e-10
2.54526e-08
-1.04074e-10
2.5503e-08
-9.68849e-11
2.55509e-08
-8.86118e-11
2.55955e-08
-7.98542e-11
2.56365e-08
-7.10393e-11
2.56737e-08
-6.24614e-11
2.57069e-08
-5.43152e-11
2.57363e-08
-4.67222e-11
2.5762e-08
-3.97517e-11
2.57842e-08
-3.3436e-11
2.58032e-08
-2.77818e-11
2.58192e-08
-2.27775e-11
2.58326e-08
-1.83992e-11
2.58436e-08
-1.46142e-11
2.58524e-08
-1.1383e-11
2.58595e-08
-8.66049e-12
2.58649e-08
-6.39754e-12
2.5869e-08
-4.54456e-12
2.5872e-08
-3.0411e-12
2.58741e-08
-1.87398e-12
2.58756e-08
-9.96783e-13
2.58766e-08
-3.82259e-13
2.58773e-08
2.34736e-14
2.58777e-08
3.00241e-13
2.58779e-08
5.03782e-13
2.5878e-08
6.3187e-13
2.58779e-08
6.94661e-13
2.58778e-08
7.0447e-13
2.58776e-08
6.72199e-13
2.58774e-08
6.16729e-13
2.58772e-08
5.50025e-13
2.58771e-08
4.79953e-13
2.58769e-08
4.11212e-13
2.58768e-08
3.46469e-13
2.58766e-08
2.87819e-13
2.58765e-08
2.3652e-13
2.58765e-08
1.92659e-13
2.58764e-08
1.55578e-13
2.58763e-08
1.2519e-13
2.58763e-08
1.00636e-13
2.58762e-08
8.10477e-14
2.58762e-08
6.56041e-14
2.58762e-08
5.35576e-14
2.58762e-08
4.42476e-14
2.58761e-08
3.70948e-14
2.58761e-08
3.16392e-14
2.58761e-08
2.74892e-14
2.58761e-08
2.4339e-14
2.58761e-08
2.19621e-14
2.58761e-08
2.01758e-14
2.58761e-08
1.89198e-14
2.58761e-08
1.84996e-14
1.93114e-14
4.51739e-08
2.84785e-09
-4.49717e-08
4.53921e-08
3.22514e-09
4.55745e-08
3.45814e-09
4.57052e-08
3.59138e-09
4.57752e-08
3.65036e-09
4.5778e-08
3.64351e-09
4.57117e-08
3.57891e-09
4.55787e-08
3.46792e-09
4.53846e-08
3.32284e-09
4.51367e-08
3.15543e-09
4.48437e-08
2.97632e-09
4.45143e-08
2.79449e-09
4.41572e-08
2.61685e-09
4.37799e-08
2.4481e-09
4.3389e-08
2.29087e-09
4.29901e-08
2.14614e-09
4.25874e-08
2.01367e-09
4.21845e-08
1.89245e-09
4.1784e-08
1.78106e-09
4.13882e-08
1.67796e-09
4.09987e-08
1.58165e-09
4.06172e-08
1.4908e-09
4.02448e-08
1.40427e-09
3.98829e-08
1.32112e-09
3.95327e-08
1.24056e-09
3.91953e-08
1.16198e-09
3.88717e-08
1.08484e-09
3.85633e-08
1.0087e-09
3.82712e-08
9.33171e-10
3.79966e-08
8.57852e-10
3.77406e-08
7.82356e-10
3.75046e-08
7.06275e-10
3.72897e-08
6.29203e-10
3.70969e-08
5.50795e-10
3.69271e-08
4.70895e-10
3.67803e-08
3.89762e-10
3.66564e-08
3.08412e-10
3.65542e-08
2.28862e-10
3.64717e-08
1.53861e-10
3.64043e-08
8.52754e-11
3.63528e-08
2.32523e-11
3.63206e-08
-3.07149e-11
3.63062e-08
-7.26726e-11
3.63075e-08
-1.03419e-10
3.6322e-08
-1.24317e-10
3.63473e-08
-1.3696e-10
3.63809e-08
-1.42969e-10
3.64207e-08
-1.43849e-10
3.64647e-08
-1.40902e-10
3.65113e-08
-1.35206e-10
3.65591e-08
-1.27622e-10
3.66068e-08
-1.1882e-10
3.66537e-08
-1.09312e-10
3.66989e-08
-9.94855e-11
3.67418e-08
-8.96296e-11
3.6782e-08
-7.99591e-11
3.68192e-08
-7.06333e-11
3.68532e-08
-6.17693e-11
3.68838e-08
-5.34529e-11
3.69112e-08
-4.57449e-11
3.69352e-08
-3.86858e-11
3.69562e-08
-3.22987e-11
3.69741e-08
-2.65901e-11
3.69892e-08
-2.15516e-11
3.70019e-08
-1.71635e-11
3.70122e-08
-1.33936e-11
3.70206e-08
-1.02248e-11
3.70272e-08
-7.61259e-12
3.70323e-08
-5.50388e-12
3.70362e-08
-3.83782e-12
3.7039e-08
-2.54876e-12
3.70411e-08
-1.56917e-12
3.70426e-08
-8.54467e-13
3.70436e-08
-3.60398e-13
3.70444e-08
-3.6803e-14
3.70449e-08
1.64925e-13
3.70452e-08
2.89286e-13
3.70454e-08
3.54735e-13
3.70455e-08
3.77916e-13
3.70455e-08
3.72135e-13
3.70455e-08
3.47547e-13
3.70455e-08
3.12801e-13
3.70455e-08
2.7433e-13
3.70454e-08
2.35899e-13
3.70454e-08
1.99358e-13
3.70453e-08
1.66896e-13
3.70453e-08
1.38891e-13
3.70453e-08
1.15326e-13
3.70452e-08
9.59133e-14
3.70452e-08
8.01889e-14
3.70452e-08
6.76336e-14
3.70452e-08
5.77089e-14
3.70452e-08
4.99356e-14
3.70451e-08
4.38831e-14
3.70451e-08
3.91824e-14
3.70451e-08
3.55532e-14
3.70451e-08
3.27633e-14
3.70451e-08
3.07049e-14
3.70451e-08
2.94387e-14
2.80649e-14
5.00629e-08
2.67544e-09
-4.98905e-08
5.02782e-08
3.00979e-09
5.04946e-08
3.24172e-09
5.06957e-08
3.39034e-09
5.08722e-08
3.47384e-09
5.10155e-08
3.50024e-09
5.11187e-08
3.47564e-09
5.11784e-08
3.40829e-09
5.11936e-08
3.30767e-09
5.11658e-08
3.18323e-09
5.10983e-08
3.04373e-09
5.0996e-08
2.89688e-09
5.08639e-08
2.74893e-09
5.07075e-08
2.60448e-09
5.05319e-08
2.4665e-09
5.03415e-08
2.33653e-09
5.01401e-08
2.21502e-09
4.9931e-08
2.10162e-09
4.97165e-08
1.99552e-09
4.94988e-08
1.89566e-09
4.92796e-08
1.80091e-09
4.90601e-08
1.71021e-09
4.88419e-08
1.62257e-09
4.86258e-08
1.53715e-09
4.84132e-08
1.45323e-09
4.82049e-08
1.37019e-09
4.80023e-08
1.2875e-09
4.78063e-08
1.2047e-09
4.76181e-08
1.12137e-09
4.74388e-08
1.03711e-09
4.72696e-08
9.51536e-10
4.71116e-08
8.64281e-10
4.69658e-08
7.75051e-10
4.68329e-08
6.83693e-10
4.67134e-08
5.90347e-10
4.66075e-08
4.95651e-10
4.6515e-08
4.00973e-10
4.64353e-08
3.08511e-10
4.63682e-08
2.2103e-10
4.63123e-08
1.41113e-10
4.62653e-08
7.02664e-11
4.62263e-08
8.28626e-12
4.61973e-08
-4.36897e-11
4.61785e-08
-8.46001e-11
4.61696e-08
-1.15378e-10
4.61699e-08
-1.37279e-10
4.61786e-08
-1.51681e-10
4.61947e-08
-1.59933e-10
4.62171e-08
-1.63267e-10
4.62446e-08
-1.62754e-10
4.62763e-08
-1.59285e-10
4.6311e-08
-1.5359e-10
4.6348e-08
-1.46256e-10
4.63862e-08
-1.37749e-10
4.64251e-08
-1.2844e-10
4.64637e-08
-1.18626e-10
4.65016e-08
-1.08549e-10
4.65383e-08
-9.84059e-11
4.65732e-08
-8.83649e-11
4.6606e-08
-7.85681e-11
4.66365e-08
-6.91377e-11
4.66643e-08
-6.01778e-11
4.66895e-08
-5.17744e-11
4.6712e-08
-4.39955e-11
4.67317e-08
-3.68922e-11
4.67488e-08
-3.04975e-11
4.67634e-08
-2.48376e-11
4.67757e-08
-1.99109e-11
4.67859e-08
-1.56935e-11
4.67942e-08
-1.21443e-11
4.68009e-08
-9.20995e-12
4.68061e-08
-6.82539e-12
4.68102e-08
-4.92891e-12
4.68133e-08
-3.45373e-12
4.68156e-08
-2.33154e-12
4.68173e-08
-1.50102e-12
4.68184e-08
-9.00866e-13
4.68193e-08
-4.81033e-13
4.68199e-08
-1.99599e-13
4.68202e-08
-2.00836e-14
4.68205e-08
8.84956e-14
4.68207e-08
1.49229e-13
4.68208e-08
1.77626e-13
4.68208e-08
1.84552e-13
4.68208e-08
1.77404e-13
4.68208e-08
1.63551e-13
4.68208e-08
1.46588e-13
4.68208e-08
1.29044e-13
4.68208e-08
1.12434e-13
4.68208e-08
9.75337e-14
4.68208e-08
8.46613e-14
4.68208e-08
7.38259e-14
4.68207e-08
6.48843e-14
4.68207e-08
5.76129e-14
4.68207e-08
5.17504e-14
4.68207e-08
4.70704e-14
4.68207e-08
4.33593e-14
4.68207e-08
4.04708e-14
4.68207e-08
3.82419e-14
3.55017e-14
5.54586e-08
2.53494e-09
-5.53181e-08
5.56458e-08
2.82261e-09
5.58479e-08
3.0396e-09
5.60485e-08
3.1898e-09
5.62387e-08
3.28359e-09
5.64113e-08
3.32769e-09
5.65598e-08
3.32711e-09
5.668e-08
3.28806e-09
5.67698e-08
3.2179e-09
5.68288e-08
3.12423e-09
5.68583e-08
3.01426e-09
5.68607e-08
2.89446e-09
5.68393e-08
2.77028e-09
5.67979e-08
2.64595e-09
5.67399e-08
2.52443e-09
5.66689e-08
2.40755e-09
5.65877e-08
2.29618e-09
5.64989e-08
2.19045e-09
5.64044e-08
2.09002e-09
5.63058e-08
1.99423e-09
5.62044e-08
1.90231e-09
5.61012e-08
1.81341e-09
5.5997e-08
1.72675e-09
5.58926e-08
1.64157e-09
5.57886e-08
1.55722e-09
5.56857e-08
1.4731e-09
5.55845e-08
1.3887e-09
5.54857e-08
1.30355e-09
5.53898e-08
1.21721e-09
5.52977e-08
1.12931e-09
5.52097e-08
1.03948e-09
5.51265e-08
9.47454e-10
5.50485e-08
8.53042e-10
5.4976e-08
7.56271e-10
5.49088e-08
6.57488e-10
5.48469e-08
5.57528e-10
5.47901e-08
4.57847e-10
5.4738e-08
3.60542e-10
5.46909e-08
2.68126e-10
5.4649e-08
1.83055e-10
5.4612e-08
1.07248e-10
5.4579e-08
4.12749e-11
5.45503e-08
-1.49325e-11
5.45267e-08
-6.10705e-11
5.45089e-08
-9.7542e-11
5.44969e-08
-1.25302e-10
5.44907e-08
-1.45482e-10
5.449e-08
-1.59234e-10
5.44944e-08
-1.67645e-10
5.45034e-08
-1.71695e-10
5.45163e-08
-1.72226e-10
5.45326e-08
-1.69948e-10
5.45518e-08
-1.65447e-10
5.45733e-08
-1.59202e-10
5.45965e-08
-1.51608e-10
5.46208e-08
-1.42986e-10
5.46459e-08
-1.33608e-10
5.46712e-08
-1.23706e-10
5.46963e-08
-1.13483e-10
5.47209e-08
-1.03121e-10
5.47445e-08
-9.27881e-11
5.4767e-08
-8.26356e-11
5.4788e-08
-7.28026e-11
5.48074e-08
-6.34129e-11
5.48251e-08
-5.45744e-11
5.4841e-08
-4.63765e-11
5.4855e-08
-3.88932e-11
5.48673e-08
-3.2171e-11
5.48778e-08
-2.62289e-11
5.48867e-08
-2.10613e-11
5.48942e-08
-1.66418e-11
5.49003e-08
-1.29244e-11
5.49052e-08
-9.85389e-12
5.49091e-08
-7.36471e-12
5.49122e-08
-5.38441e-12
5.49145e-08
-3.84089e-12
5.49163e-08
-2.6616e-12
5.49176e-08
-1.77984e-12
5.49185e-08
-1.13575e-12
5.49191e-08
-6.77274e-13
5.49196e-08
-3.60968e-13
5.49199e-08
-1.51239e-13
5.49201e-08
-1.7249e-14
5.49202e-08
6.36143e-14
5.49203e-08
1.06754e-13
5.49203e-08
1.26897e-13
5.49203e-08
1.31852e-13
5.49203e-08
1.27881e-13
5.49203e-08
1.19162e-13
5.49203e-08
1.08402e-13
5.49203e-08
9.72839e-14
5.49203e-08
8.67583e-14
5.49203e-08
7.73059e-14
5.49203e-08
6.91124e-14
5.49203e-08
6.21687e-14
5.49203e-08
5.63939e-14
5.49202e-08
5.16514e-14
5.49202e-08
4.77967e-14
5.49202e-08
4.46028e-14
4.1276e-14
6.1424e-08
2.41963e-09
-6.13087e-08
6.15818e-08
2.66487e-09
6.17595e-08
2.86183e-09
6.19419e-08
3.00738e-09
6.212e-08
3.10553e-09
6.2287e-08
3.16068e-09
6.24374e-08
3.1767e-09
6.25672e-08
3.15824e-09
6.26742e-08
3.1109e-09
6.27578e-08
3.04072e-09
6.28184e-08
2.95362e-09
6.28579e-08
2.85501e-09
6.28785e-08
2.74961e-09
6.28832e-08
2.64126e-09
6.28748e-08
2.53283e-09
6.28561e-08
2.42629e-09
6.28295e-08
2.3228e-09
6.2797e-08
2.22288e-09
6.27605e-08
2.12659e-09
6.27211e-08
2.03364e-09
6.26798e-08
1.94355e-09
6.26375e-08
1.85575e-09
6.25946e-08
1.76963e-09
6.25516e-08
1.68459e-09
6.25087e-08
1.60005e-09
6.24664e-08
1.51548e-09
6.24247e-08
1.43039e-09
6.23839e-08
1.34435e-09
6.23441e-08
1.25695e-09
6.23056e-08
1.16784e-09
6.22683e-08
1.07675e-09
6.22324e-08
9.83448e-10
6.21975e-08
8.87888e-10
6.21636e-08
7.90216e-10
6.21302e-08
6.90895e-10
6.20969e-08
5.90807e-10
6.20634e-08
4.9133e-10
6.20296e-08
3.94315e-10
6.19958e-08
3.01906e-10
6.19627e-08
2.16221e-10
6.19309e-08
1.38999e-10
6.1901e-08
7.12494e-11
6.1873e-08
1.30202e-11
6.18478e-08
-3.58326e-11
6.18259e-08
-7.56466e-11
6.18077e-08
-1.07131e-10
6.17934e-08
-1.31192e-10
6.1783e-08
-1.48797e-10
6.17762e-08
-1.60894e-10
6.17729e-08
-1.6836e-10
6.17726e-08
-1.7198e-10
6.17751e-08
-1.7243e-10
6.178e-08
-1.70285e-10
6.17868e-08
-1.66031e-10
6.17952e-08
-1.60073e-10
6.1805e-08
-1.52751e-10
6.18158e-08
-1.44357e-10
6.18272e-08
-1.35144e-10
6.18391e-08
-1.25338e-10
6.18511e-08
-1.15144e-10
6.1863e-08
-1.04753e-10
6.18747e-08
-9.43415e-11
6.1886e-08
-8.40753e-11
6.18967e-08
-7.41062e-11
6.19067e-08
-6.45708e-11
6.19159e-08
-5.55885e-11
6.19243e-08
-4.72592e-11
6.19318e-08
-3.96573e-11
6.19384e-08
-3.28288e-11
6.19441e-08
-2.67925e-11
6.1949e-08
-2.15427e-11
6.19531e-08
-1.70512e-11
6.19566e-08
-1.32736e-11
6.19593e-08
-1.01518e-11
6.19616e-08
-7.61763e-12
6.19633e-08
-5.59818e-12
6.19647e-08
-4.01873e-12
6.19657e-08
-2.80716e-12
6.19665e-08
-1.89665e-12
6.1967e-08
-1.22729e-12
6.19674e-08
-7.47225e-13
6.19677e-08
-4.12418e-13
6.19678e-08
-1.85722e-13
6.19679e-08
-3.88972e-14
6.1968e-08
4.91757e-14
6.1968e-08
9.99444e-14
6.1968e-08
1.24579e-13
6.1968e-08
1.32638e-13
6.1968e-08
1.30637e-13
6.1968e-08
1.2306e-13
6.1968e-08
1.12862e-13
6.1968e-08
1.01894e-13
6.1968e-08
9.12492e-14
6.19679e-08
8.15176e-14
6.19679e-08
7.29464e-14
6.19679e-08
6.56006e-14
6.19679e-08
5.94209e-14
6.19679e-08
5.4282e-14
6.19679e-08
4.99837e-14
4.61542e-14
6.80179e-08
2.32466e-09
-6.79229e-08
6.81484e-08
2.53438e-09
6.82996e-08
2.71067e-09
6.84587e-08
2.84825e-09
6.86171e-08
2.94715e-09
6.87683e-08
3.00941e-09
6.89074e-08
3.03762e-09
6.90306e-08
3.03508e-09
6.91355e-08
3.00594e-09
6.92214e-08
2.95487e-09
6.92884e-08
2.88659e-09
6.93378e-08
2.80561e-09
6.93714e-08
2.71597e-09
6.93916e-08
2.62111e-09
6.94007e-08
2.52375e-09
6.9401e-08
2.42592e-09
6.93948e-08
2.32899e-09
6.93839e-08
2.23378e-09
6.93699e-08
2.14066e-09
6.93538e-08
2.04968e-09
6.93367e-08
1.96066e-09
6.93192e-08
1.87328e-09
6.93017e-08
1.78712e-09
6.92846e-08
1.70173e-09
6.92679e-08
1.61667e-09
6.92519e-08
1.53149e-09
6.92365e-08
1.44578e-09
6.92217e-08
1.35914e-09
6.92074e-08
1.27124e-09
6.91935e-08
1.18179e-09
6.91797e-08
1.09056e-09
6.91657e-08
9.9745e-10
6.91511e-08
9.02477e-10
6.91354e-08
8.05877e-10
6.91182e-08
7.08161e-10
6.90988e-08
6.1018e-10
6.9077e-08
5.13162e-10
6.90526e-08
4.18676e-10
6.9026e-08
3.28493e-10
6.89979e-08
2.44361e-10
6.89691e-08
1.67758e-10
6.89407e-08
9.9673e-11
6.89132e-08
4.04603e-11
6.88874e-08
-9.99575e-12
6.88638e-08
-5.20153e-11
6.88428e-08
-8.61287e-11
6.88246e-08
-1.13045e-10
6.88094e-08
-1.33564e-10
6.8797e-08
-1.48502e-10
6.87873e-08
-1.58639e-10
6.878e-08
-1.64696e-10
6.87749e-08
-1.67317e-10
6.87717e-08
-1.67066e-10
6.87701e-08
-1.64431e-10
6.87698e-08
-1.5983e-10
6.87707e-08
-1.53626e-10
6.87725e-08
-1.46132e-10
6.8775e-08
-1.37624e-10
6.8778e-08
-1.28352e-10
6.87814e-08
-1.18542e-10
6.8785e-08
-1.08404e-10
6.87888e-08
-9.81324e-11
6.87926e-08
-8.79092e-11
6.87964e-08
-7.79005e-11
6.88001e-08
-6.82562e-11
6.88036e-08
-5.91073e-11
6.88069e-08
-5.05639e-11
6.881e-08
-4.27108e-11
6.88128e-08
-3.56048e-11
6.88153e-08
-2.92757e-11
6.88174e-08
-2.37277e-11
6.88193e-08
-1.8942e-11
6.88209e-08
-1.48816e-11
6.88223e-08
-1.14944e-11
6.88234e-08
-8.71698e-12
6.88243e-08
-6.47959e-12
6.8825e-08
-4.70956e-12
6.88255e-08
-3.33525e-12
6.88259e-08
-2.28901e-12
6.88262e-08
-1.50911e-12
6.88264e-08
-9.40896e-13
6.88265e-08
-5.3738e-13
6.88266e-08
-2.59892e-13
6.88266e-08
-7.83082e-14
6.88266e-08
3.80504e-14
6.88266e-08
1.05585e-13
6.88266e-08
1.40673e-13
6.88266e-08
1.54149e-13
6.88265e-08
1.54216e-13
6.88265e-08
1.46525e-13
6.88265e-08
1.34876e-13
6.88265e-08
1.21731e-13
6.88265e-08
1.08602e-13
6.88264e-08
9.63533e-14
6.88264e-08
8.54026e-14
6.88264e-08
7.59023e-14
6.88264e-08
6.78327e-14
6.88264e-08
6.10744e-14
6.88264e-08
5.54518e-14
5.07514e-14
6.76851e-08
2.25424e-09
-6.76147e-08
6.77813e-08
2.43816e-09
6.78946e-08
2.59739e-09
6.80162e-08
2.72662e-09
6.81393e-08
2.82408e-09
6.82586e-08
2.89017e-09
6.83698e-08
2.92635e-09
6.847e-08
2.93493e-09
6.8557e-08
2.91896e-09
6.86298e-08
2.88203e-09
6.86884e-08
2.82795e-09
6.87336e-08
2.76047e-09
6.87665e-08
2.68307e-09
6.87888e-08
2.59884e-09
6.88022e-08
2.51032e-09
6.88086e-08
2.41953e-09
6.88096e-08
2.32795e-09
6.88068e-08
2.23661e-09
6.88014e-08
2.1461e-09
6.87943e-08
2.05672e-09
6.87865e-08
1.96853e-09
6.87783e-08
1.88139e-09
6.87704e-08
1.79509e-09
6.87628e-08
1.7093e-09
6.87558e-08
1.6237e-09
6.87493e-08
1.53794e-09
6.87434e-08
1.45167e-09
6.8738e-08
1.36458e-09
6.87329e-08
1.27638e-09
6.87278e-08
1.18685e-09
6.87225e-08
1.09583e-09
6.87167e-08
1.00328e-09
6.87099e-08
9.09287e-10
6.87016e-08
8.14138e-10
6.86914e-08
7.18351e-10
6.86789e-08
6.22723e-10
6.86637e-08
5.28339e-10
6.86459e-08
4.36535e-10
6.86256e-08
3.48789e-10
6.86034e-08
2.66561e-10
6.858e-08
1.9111e-10
6.85563e-08
1.23336e-10
6.85331e-08
6.36981e-11
6.85109e-08
1.22353e-11
6.84901e-08
-3.1275e-11
6.84713e-08
-6.72415e-11
6.84544e-08
-9.62272e-11
6.84398e-08
-1.18899e-10
6.84272e-08
-1.35962e-10
6.84167e-08
-1.48118e-10
6.8408e-08
-1.56032e-10
6.8401e-08
-1.60316e-10
6.83955e-08
-1.61521e-10
6.83912e-08
-1.60137e-10
6.8388e-08
-1.56592e-10
6.83856e-08
-1.51266e-10
6.8384e-08
-1.44493e-10
6.83829e-08
-1.36571e-10
6.83823e-08
-1.2777e-10
6.83821e-08
-1.18333e-10
6.83822e-08
-1.0849e-10
6.83825e-08
-9.84471e-11
6.8383e-08
-8.83986e-11
6.83836e-08
-7.85197e-11
6.83843e-08
-6.89672e-11
6.83851e-08
-5.98773e-11
6.83859e-08
-5.13635e-11
6.83867e-08
-4.35133e-11
6.83875e-08
-3.63874e-11
6.83882e-08
-3.00191e-11
6.83889e-08
-2.44165e-11
6.83896e-08
-1.9565e-11
6.83901e-08
-1.54314e-11
6.83906e-08
-1.19671e-11
6.8391e-08
-9.11224e-12
6.83913e-08
-6.80009e-12
6.83915e-08
-4.96059e-12
6.83917e-08
-3.52405e-12
6.83919e-08
-2.42399e-12
6.8392e-08
-1.59908e-12
6.8392e-08
-9.94296e-13
6.8392e-08
-5.61847e-13
6.8392e-08
-2.62073e-13
6.8392e-08
-6.21558e-14
6.8392e-08
5.96163e-14
6.8392e-08
1.33304e-13
6.83919e-08
1.70469e-13
6.83919e-08
1.84078e-13
6.83919e-08
1.82778e-13
6.83919e-08
1.7274e-13
6.83918e-08
1.58226e-13
6.83918e-08
1.42039e-13
6.83918e-08
1.25917e-13
6.83918e-08
1.10871e-13
6.83918e-08
9.74015e-14
6.83918e-08
8.56916e-14
6.83918e-08
7.57263e-14
6.83917e-08
6.73745e-14
6.83917e-08
6.04669e-14
5.4902e-14
8.55012e-08
2.19105e-09
-8.5438e-08
8.55866e-08
2.35276e-09
8.5688e-08
2.49599e-09
8.57984e-08
2.61614e-09
8.59118e-08
2.7107e-09
8.60231e-08
2.7789e-09
8.61282e-08
2.82121e-09
8.62242e-08
2.83901e-09
8.63087e-08
2.83438e-09
8.63808e-08
2.80995e-09
8.64401e-08
2.76868e-09
8.6487e-08
2.7136e-09
8.65224e-08
2.64764e-09
8.65477e-08
2.5735e-09
8.65645e-08
2.49353e-09
8.65744e-08
2.40968e-09
8.65788e-08
2.3235e-09
8.65793e-08
2.23615e-09
8.6577e-08
2.14841e-09
8.65729e-08
2.0608e-09
8.65679e-08
1.97357e-09
8.65624e-08
1.88681e-09
8.65571e-08
1.80044e-09
8.65521e-08
1.71432e-09
8.65475e-08
1.62823e-09
8.65436e-08
1.54192e-09
8.65401e-08
1.45514e-09
8.6537e-08
1.36764e-09
8.65342e-08
1.27921e-09
8.65313e-08
1.1897e-09
8.65282e-08
1.09901e-09
8.65243e-08
1.00716e-09
8.65193e-08
9.14309e-10
8.65126e-08
8.20758e-10
8.6504e-08
7.27022e-10
8.64929e-08
6.3383e-10
8.64791e-08
5.42127e-10
8.64626e-08
4.53036e-10
8.64436e-08
3.67781e-10
8.64226e-08
2.87565e-10
8.64002e-08
2.13452e-10
8.63773e-08
1.46246e-10
8.63546e-08
8.64365e-11
8.63326e-08
3.41921e-11
8.6312e-08
-1.05949e-11
8.62929e-08
-4.82009e-11
8.62757e-08
-7.90576e-11
8.62606e-08
-1.03707e-10
8.62473e-08
-1.22748e-10
8.6236e-08
-1.36801e-10
8.62265e-08
-1.46472e-10
8.62185e-08
-1.52339e-10
8.62119e-08
-1.54936e-10
8.62065e-08
-1.54749e-10
8.62021e-08
-1.52219e-10
8.61986e-08
-1.47737e-10
8.61958e-08
-1.41659e-10
8.61935e-08
-1.34304e-10
8.61917e-08
-1.25962e-10
8.61903e-08
-1.16898e-10
8.61891e-08
-1.07356e-10
8.61882e-08
-9.75614e-11
8.61876e-08
-8.77172e-11
8.6187e-08
-7.80084e-11
8.61867e-08
-6.85983e-11
8.61864e-08
-5.96272e-11
8.61863e-08
-5.12106e-11
8.61862e-08
-4.34378e-11
8.61862e-08
-3.63704e-11
8.61862e-08
-3.00435e-11
8.61863e-08
-2.44669e-11
8.61863e-08
-1.96282e-11
8.61864e-08
-1.54962e-11
8.61864e-08
-1.20247e-11
8.61865e-08
-9.15652e-12
8.61865e-08
-6.82714e-12
8.61865e-08
-4.9689e-12
8.61865e-08
-3.51406e-12
8.61865e-08
-2.39758e-12
8.61864e-08
-1.55899e-12
8.61864e-08
-9.4315e-13
8.61863e-08
-5.02561e-13
8.61863e-08
-2.00109e-13
8.61862e-08
-6.71307e-15
8.61862e-08
1.21729e-13
8.61861e-08
1.9175e-13
8.6186e-08
2.24918e-13
8.6186e-08
2.33225e-13
8.6186e-08
2.26199e-13
8.61859e-08
2.10444e-13
8.61859e-08
1.90458e-13
8.61859e-08
1.69205e-13
8.61858e-08
1.48523e-13
8.61858e-08
1.29464e-13
8.61858e-08
1.12531e-13
8.61858e-08
9.78788e-14
8.61858e-08
8.54468e-14
8.61858e-08
7.50543e-14
8.61858e-08
6.64853e-14
5.95237e-14
1.08027e-07
2.14388e-09
-1.0798e-07
1.0809e-07
2.28921e-09
1.08166e-07
2.41987e-09
1.0825e-07
2.53205e-09
1.08338e-07
2.62312e-09
1.08425e-07
2.69174e-09
1.08509e-07
2.73769e-09
1.08586e-07
2.76166e-09
1.08655e-07
2.76504e-09
1.08716e-07
2.74975e-09
1.08766e-07
2.71808e-09
1.08807e-07
2.67249e-09
1.0884e-07
2.61546e-09
1.08864e-07
2.54937e-09
1.08881e-07
2.47636e-09
1.08892e-07
2.39829e-09
1.08899e-07
2.31672e-09
1.08902e-07
2.23288e-09
1.08903e-07
2.14768e-09
1.08902e-07
2.06178e-09
1.089e-07
1.9756e-09
1.08897e-07
1.88935e-09
1.08895e-07
1.80313e-09
1.08892e-07
1.71689e-09
1.0889e-07
1.63052e-09
1.08888e-07
1.54387e-09
1.08886e-07
1.45676e-09
1.08885e-07
1.36902e-09
1.08884e-07
1.28049e-09
1.08882e-07
1.19108e-09
1.08881e-07
1.10075e-09
1.08878e-07
1.00957e-09
1.08875e-07
9.17724e-10
1.0887e-07
8.2554e-10
1.08863e-07
7.33513e-10
1.08855e-07
6.42314e-10
1.08844e-07
5.52774e-10
1.08831e-07
4.65858e-10
1.08817e-07
3.82602e-10
1.088e-07
3.04026e-10
1.08783e-07
2.31047e-10
1.08764e-07
1.64393e-10
1.08746e-07
1.04555e-10
1.08729e-07
5.17741e-11
1.08712e-07
6.05481e-12
1.08697e-07
-3.28109e-11
1.08683e-07
-6.51158e-11
1.0867e-07
-9.13138e-11
1.0866e-07
-1.11916e-10
1.0865e-07
-1.2747e-10
1.08642e-07
-1.38533e-10
1.08636e-07
-1.4565e-10
1.0863e-07
-1.49338e-10
1.08625e-07
-1.50079e-10
1.08621e-07
-1.48317e-10
1.08618e-07
-1.44459e-10
1.08615e-07
-1.38875e-10
1.08613e-07
-1.31903e-10
1.08611e-07
-1.23856e-10
1.08609e-07
-1.15015e-10
1.08607e-07
-1.05645e-10
1.08606e-07
-9.59828e-11
1.08604e-07
-8.62471e-11
1.08603e-07
-7.66321e-11
1.08602e-07
-6.73084e-11
1.086e-07
-5.84208e-11
1.08599e-07
-5.00872e-11
1.08598e-07
-4.23973e-11
1.08597e-07
-3.54127e-11
1.08596e-07
-2.91677e-11
1.08596e-07
-2.36711e-11
1.08595e-07
-1.89095e-11
1.08594e-07
-1.48506e-11
1.08594e-07
-1.14474e-11
1.08593e-07
-8.6423e-12
1.08593e-07
-6.37081e-12
1.08592e-07
-4.56544e-12
1.08592e-07
-3.15889e-12
1.08592e-07
-2.08661e-12
1.08591e-07
-1.28838e-12
1.08591e-07
-7.06807e-13
1.08591e-07
-2.92963e-13
1.08591e-07
-8.72179e-15
1.08591e-07
1.49936e-13
1.0859e-07
2.52071e-13
1.0859e-07
3.01379e-13
1.0859e-07
3.16481e-13
1.0859e-07
3.09565e-13
1.0859e-07
2.89451e-13
1.0859e-07
2.62483e-13
1.0859e-07
2.32973e-13
1.0859e-07
2.037e-13
1.0859e-07
1.76324e-13
1.0859e-07
1.51723e-13
1.0859e-07
1.30239e-13
1.0859e-07
1.11874e-13
1.0859e-07
9.64286e-14
1.0859e-07
8.35982e-14
1.0859e-07
7.30969e-14
6.50163e-14
1.36502e-07
-1.36486e-07
1.36525e-07
1.36554e-07
1.36588e-07
1.36624e-07
1.36661e-07
1.36699e-07
1.36734e-07
1.36767e-07
1.36797e-07
1.36824e-07
1.36847e-07
1.36866e-07
1.36882e-07
1.36895e-07
1.36905e-07
1.36914e-07
1.3692e-07
1.36926e-07
1.3693e-07
1.36934e-07
1.36937e-07
1.3694e-07
1.36943e-07
1.36946e-07
1.36948e-07
1.36951e-07
1.36954e-07
1.36957e-07
1.3696e-07
1.36962e-07
1.36964e-07
1.36965e-07
1.36966e-07
1.36966e-07
1.36964e-07
1.36962e-07
1.36959e-07
1.36954e-07
1.36949e-07
1.36943e-07
1.36936e-07
1.3693e-07
1.36923e-07
1.36917e-07
1.36911e-07
1.36906e-07
1.36901e-07
1.36897e-07
1.36893e-07
1.36889e-07
1.36886e-07
1.36883e-07
1.36881e-07
1.36878e-07
1.36876e-07
1.36874e-07
1.36871e-07
1.36869e-07
1.36866e-07
1.36863e-07
1.3686e-07
1.36857e-07
1.36854e-07
1.36851e-07
1.36848e-07
1.36845e-07
1.36842e-07
1.36839e-07
1.36837e-07
1.36834e-07
1.36832e-07
1.36829e-07
1.36827e-07
1.36826e-07
1.36824e-07
1.36822e-07
1.36821e-07
1.3682e-07
1.36819e-07
1.36818e-07
1.36818e-07
1.36817e-07
1.36817e-07
1.36816e-07
1.36816e-07
1.36816e-07
1.36816e-07
1.36815e-07
1.36815e-07
1.36815e-07
1.36815e-07
1.36815e-07
1.36815e-07
1.36815e-07
1.36815e-07
1.36815e-07
1.36815e-07
1.36815e-07
3.44604e-08
2.18777e-12
3.44581e-08
4.79976e-12
3.44547e-08
7.96866e-12
3.44499e-08
1.18149e-11
3.44437e-08
1.64751e-11
3.44358e-08
2.21065e-11
3.44258e-08
2.8888e-11
3.44133e-08
3.70209e-11
3.43979e-08
4.67307e-11
3.4379e-08
5.82703e-11
3.4356e-08
7.1926e-11
3.43282e-08
8.80264e-11
3.42948e-08
1.06958e-10
3.42546e-08
1.29191e-10
3.42066e-08
1.55323e-10
3.41492e-08
1.86158e-10
3.40804e-08
2.22842e-10
3.39975e-08
2.67116e-10
3.38964e-08
3.21809e-10
3.37707e-08
3.91901e-10
3.36091e-08
4.87047e-10
3.33891e-08
6.28561e-10
3.3058e-08
8.73168e-10
3.24506e-08
1.4274e-09
3.05814e-09
3.80474e-08
3.50032e-12
3.80449e-08
7.29127e-12
3.80412e-08
1.17119e-11
3.8036e-08
1.69591e-11
3.80293e-08
2.32392e-11
3.80206e-08
3.07782e-11
3.80096e-08
3.98236e-11
3.7996e-08
5.06473e-11
3.79792e-08
6.35504e-11
3.79586e-08
7.88686e-11
3.79336e-08
9.69808e-11
3.79033e-08
1.18323e-10
3.78668e-08
1.43412e-10
3.78231e-08
1.7288e-10
3.77709e-08
2.07545e-10
3.77085e-08
2.48523e-10
3.76339e-08
2.97425e-10
3.75443e-08
3.56726e-10
3.74357e-08
4.30473e-10
3.73018e-08
5.25751e-10
3.71329e-08
6.56008e-10
3.69121e-08
8.49343e-10
3.66145e-08
1.17071e-09
3.62602e-08
1.7817e-09
3.03352e-09
4.20078e-08
4.89785e-12
4.20051e-08
9.98219e-12
4.20011e-08
1.5757e-11
4.19955e-08
2.25226e-11
4.19882e-08
3.05589e-11
4.19788e-08
4.01648e-11
4.19669e-08
5.16618e-11
4.19522e-08
6.53982e-11
4.1934e-08
8.17563e-11