/*--------------------------------*- C++ -*----------------------------------*\
| =========                 |                                                 |
| \\      /  F ield         | OpenFOAM: The Open Source CFD Toolbox           |
|  \\    /   O peration     | Version:  2.3.0                                 |
|   \\  /    A nd           | Web:      www.OpenFOAM.org                      |
|    \\/     M anipulation  |                                                 |
\*---------------------------------------------------------------------------*/
FoamFile
{
    version     2.0;
    format      ascii;
    class       surfaceScalarField;
    location    "1";
    object      phi;
}
// * * * * * * * * * * * * * * * * * * * * * * * * * * * * * * * * * * * * * //

dimensions      [0 3 -1 0 0 0 0];

internalField   nonuniform List<scalar> 
3859
(
2.88216e-08
2.77032e-09
-3.15919e-08
2.53567e-08
3.46489e-09
2.1915e-08
3.44166e-09
1.87276e-08
3.18741e-09
1.58267e-08
2.90089e-09
1.32904e-08
2.53628e-09
1.12127e-08
2.0777e-09
9.60773e-09
1.60501e-09
8.43759e-09
1.17014e-09
7.61644e-09
8.21144e-10
7.04621e-09
5.70239e-10
6.6426e-09
4.0361e-10
6.34337e-09
2.99229e-10
6.10595e-09
2.37416e-10
5.90211e-09
2.03837e-10
5.71559e-09
1.86523e-10
5.5389e-09
1.76692e-10
5.36972e-09
1.6918e-10
5.20811e-09
1.61607e-10
5.05484e-09
1.5327e-10
4.91058e-09
1.44257e-10
4.77564e-09
1.34947e-10
4.64991e-09
1.2573e-10
4.53298e-09
1.16925e-10
4.42426e-09
1.08724e-10
4.32302e-09
1.01235e-10
4.22855e-09
9.44733e-11
4.14013e-09
8.84242e-11
4.0571e-09
8.30219e-11
3.9789e-09
7.82056e-11
3.90501e-09
7.38891e-11
3.83499e-09
7.00139e-11
3.76849e-09
6.65034e-11
3.70517e-09
6.33172e-11
3.64478e-09
6.03942e-11
3.58707e-09
5.77133e-11
3.53184e-09
5.52257e-11
3.47891e-09
5.29261e-11
3.42814e-09
5.07736e-11
3.37937e-09
4.87745e-11
3.33247e-09
4.68916e-11
3.28734e-09
4.51398e-11
3.24385e-09
4.34822e-11
3.20191e-09
4.19405e-11
3.16144e-09
4.04757e-11
3.12232e-09
3.91159e-11
3.0845e-09
3.78177e-11
3.04789e-09
3.66159e-11
3.01243e-09
3.54619e-11
2.97803e-09
3.43972e-11
2.94466e-09
3.33672e-11
2.91224e-09
3.24213e-11
2.88074e-09
3.14972e-11
2.85009e-09
3.06539e-11
2.82027e-09
2.98199e-11
2.7912e-09
2.90652e-11
2.7629e-09
2.83077e-11
2.73527e-09
2.76297e-11
2.70833e-09
2.69369e-11
2.682e-09
2.6326e-11
2.65632e-09
2.56879e-11
2.63118e-09
2.51365e-11
2.60663e-09
2.45445e-11
2.58259e-09
2.40463e-11
2.55909e-09
2.34932e-11
2.53605e-09
2.30435e-11
2.51353e-09
2.25229e-11
2.49141e-09
2.21179e-11
2.46979e-09
2.16242e-11
2.44852e-09
2.12615e-11
2.42774e-09
2.07894e-11
2.40727e-09
2.04676e-11
2.38726e-09
2.00121e-11
2.36752e-09
1.97309e-11
2.34824e-09
1.92868e-11
2.32919e-09
1.90468e-11
2.31058e-09
1.86095e-11
2.29217e-09
1.84124e-11
2.27419e-09
1.79768e-11
2.25637e-09
1.78258e-11
2.23898e-09
1.73861e-11
2.22169e-09
1.72861e-11
2.20486e-09
1.68355e-11
2.18806e-09
1.67937e-11
2.17174e-09
1.63248e-11
2.15539e-09
1.63509e-11
2.13953e-09
1.58545e-11
2.12357e-09
1.59618e-11
2.10815e-09
1.54257e-11
2.09251e-09
1.56329e-11
2.07747e-09
1.5041e-11
2.0621e-09
1.53748e-11
2.04739e-09
1.47046e-11
2.03219e-09
1.52036e-11
2.01777e-09
1.44213e-11
2.00262e-09
1.51482e-11
1.98842e-09
1.41977e-11
1.97313e-09
1.52925e-11
1.95901e-09
1.41199e-11
1.78859e-11
3.62376e-08
2.47166e-09
-3.5939e-08
3.60723e-08
3.63025e-09
3.53685e-08
4.14539e-09
3.43818e-08
4.17412e-09
3.32252e-08
4.05752e-09
3.19187e-08
3.84278e-09
3.04859e-08
3.51046e-09
2.90037e-08
3.08722e-09
2.75474e-08
2.62644e-09
2.61716e-08
2.197e-09
2.49e-08
1.84182e-09
2.37346e-08
1.56898e-09
2.26725e-08
1.36129e-09
2.17123e-08
1.19766e-09
2.08444e-08
1.07179e-09
2.00582e-08
9.72662e-10
1.93438e-08
8.91122e-10
1.8692e-08
8.20977e-10
1.8095e-08
7.58593e-10
1.75462e-08
7.02054e-10
1.70401e-08
6.50387e-10
1.65719e-08
6.0313e-10
1.61376e-08
5.60006e-10
1.57337e-08
5.20833e-10
1.53571e-08
4.85382e-10
1.50049e-08
4.53414e-10
1.46747e-08
4.24632e-10
1.43644e-08
3.98755e-10
1.4072e-08
3.75455e-10
1.37957e-08
3.54449e-10
1.35342e-08
3.35428e-10
1.3286e-08
3.1816e-10
1.30501e-08
3.02392e-10
1.28255e-08
2.87956e-10
1.26112e-08
2.74656e-10
1.24066e-08
2.62386e-10
1.22108e-08
2.50993e-10
1.20233e-08
2.40421e-10
1.18435e-08
2.30547e-10
1.1671e-08
2.21347e-10
1.15051e-08
2.12716e-10
1.13456e-08
2.04657e-10
1.1192e-08
1.97072e-10
1.1044e-08
1.89981e-10
1.09012e-08
1.83289e-10
1.07633e-08
1.7703e-10
1.063e-08
1.71104e-10
1.0501e-08
1.65563e-10
1.03762e-08
1.60299e-10
1.02552e-08
1.55377e-10
1.01379e-08
1.50681e-10
1.0024e-08
1.46293e-10
9.91344e-09
1.42086e-10
9.80594e-09
1.38158e-10
9.70139e-09
1.34369e-10
9.59962e-09
1.30838e-10
9.50051e-09
1.27408e-10
9.40392e-09
1.24221e-10
9.30976e-09
1.211e-10
9.21787e-09
1.18211e-10
9.12821e-09
1.15356e-10
9.04061e-09
1.1273e-10
8.95505e-09
1.10104e-10
8.87139e-09
1.07708e-10
8.7896e-09
1.05281e-10
8.70956e-09
1.03092e-10
8.63124e-09
1.00838e-10
8.55453e-09
9.88333e-11
8.47942e-09
9.67297e-11
8.40579e-09
9.48935e-11
8.33366e-09
9.29206e-11
8.26288e-09
9.12395e-11
8.19352e-09
8.93797e-11
8.1254e-09
8.78442e-11
8.05861e-09
8.60814e-11
7.99297e-09
8.46849e-11
7.92858e-09
8.30053e-11
7.86524e-09
8.17437e-11
7.80309e-09
8.01346e-11
7.7419e-09
7.90078e-11
7.68183e-09
7.74568e-11
7.62265e-09
7.64684e-11
7.56452e-09
7.49633e-11
7.5072e-09
7.41219e-11
7.45087e-09
7.2651e-11
7.39525e-09
7.19703e-11
7.34058e-09
7.05217e-11
7.28652e-09
7.00218e-11
7.23337e-09
6.8582e-11
7.18071e-09
6.82926e-11
7.1289e-09
6.68462e-11
7.07747e-09
6.68102e-11
7.02683e-09
6.53379e-11
6.97642e-09
6.56171e-11
6.92675e-09
6.40929e-11
6.87711e-09
6.47873e-11
6.82814e-09
6.31711e-11
6.77886e-09
6.45695e-11
6.72996e-09
6.30177e-11
6.91131e-11
4.02781e-08
2.34687e-09
-4.01533e-08
4.07051e-08
3.20329e-09
4.09712e-08
3.87921e-09
4.10463e-08
4.09905e-09
4.10064e-08
4.09746e-09
4.08474e-08
4.00179e-09
4.05337e-08
3.82414e-09
4.00652e-08
3.55566e-09
3.94716e-08
3.22005e-09
3.87963e-08
2.87237e-09
3.8076e-08
2.56204e-09
3.73346e-08
2.31038e-09
3.65849e-08
2.111e-09
3.58332e-08
1.94943e-09
3.50874e-08
1.81751e-09
3.43527e-08
1.70739e-09
3.36319e-08
1.61195e-09
3.29268e-08
1.52607e-09
3.22388e-08
1.44657e-09
3.15691e-08
1.37179e-09
3.09186e-08
1.30091e-09
3.02881e-08
1.23363e-09
2.96782e-08
1.16985e-09
2.90894e-08
1.10961e-09
2.85219e-08
1.05289e-09
2.79757e-08
9.99671e-10
2.74504e-08
9.49846e-10
2.69459e-08
9.03324e-10
2.64614e-08
8.59914e-10
2.59964e-08
8.19449e-10
2.55502e-08
7.81695e-10
2.51218e-08
7.46479e-10
2.47107e-08
7.1357e-10
2.43158e-08
6.82821e-10
2.39364e-08
6.54025e-10
2.35717e-08
6.27067e-10
2.3221e-08
6.01768e-10
2.28833e-08
5.78044e-10
2.25582e-08
5.55738e-10
2.22447e-08
5.34791e-10
2.19424e-08
5.15062e-10
2.16505e-08
4.96515e-10
2.13686e-08
4.79019e-10
2.1096e-08
4.62555e-10
2.08323e-08
4.46997e-10
2.0577e-08
4.32343e-10
2.03296e-08
4.1847e-10
2.00898e-08
4.0539e-10
1.98571e-08
3.92982e-10
1.96312e-08
3.8127e-10
1.94117e-08
3.70133e-10
1.91984e-08
3.5961e-10
1.89909e-08
3.49578e-10
1.8789e-08
3.40087e-10
1.85924e-08
3.31014e-10
1.84008e-08
3.22423e-10
1.8214e-08
3.14186e-10
1.80318e-08
3.06378e-10
1.78541e-08
2.9887e-10
1.76805e-08
2.91749e-10
1.7511e-08
2.84879e-10
1.73454e-08
2.78361e-10
1.71834e-08
2.72053e-10
1.70251e-08
2.66066e-10
1.68701e-08
2.60253e-10
1.67184e-08
2.54738e-10
1.65699e-08
2.49364e-10
1.64245e-08
2.44268e-10
1.62819e-08
2.39285e-10
1.61423e-08
2.34563e-10
1.60053e-08
2.29931e-10
1.58709e-08
2.25545e-10
1.57391e-08
2.21227e-10
1.56098e-08
2.17147e-10
1.54828e-08
2.13114e-10
1.53581e-08
2.09312e-10
1.52356e-08
2.05541e-10
1.51154e-08
2.01995e-10
1.4997e-08
1.98466e-10
1.48809e-08
1.95159e-10
1.47665e-08
1.91857e-10
1.46542e-08
1.88779e-10
1.45434e-08
1.85694e-10
1.44347e-08
1.82838e-10
1.43274e-08
1.79966e-10
1.4222e-08
1.77332e-10
1.41179e-08
1.74675e-10
1.40156e-08
1.72271e-10
1.39144e-08
1.69836e-10
1.3815e-08
1.67677e-10
1.37164e-08
1.65479e-10
1.36196e-08
1.63598e-10
1.35233e-08
1.61657e-10
1.34288e-08
1.60112e-10
1.33344e-08
1.58447e-10
1.32418e-08
1.57372e-10
1.3149e-08
1.55957e-10
1.30577e-08
1.55953e-10
1.29657e-08
1.54963e-10
1.60399e-10
4.47471e-08
2.29286e-09
-4.46931e-08
4.5064e-08
2.88636e-09
4.54661e-08
3.47719e-09
4.57786e-08
3.78648e-09
4.60193e-08
3.85678e-09
4.62149e-08
3.80624e-09
4.63436e-08
3.69544e-09
4.63786e-08
3.52066e-09
4.63098e-08
3.28882e-09
4.61511e-08
3.03101e-09
4.59283e-08
2.78489e-09
4.5662e-08
2.57669e-09
4.53635e-08
2.40949e-09
4.50373e-08
2.27564e-09
4.46888e-08
2.16597e-09
4.43227e-08
2.07351e-09
4.39418e-08
1.99283e-09
4.3548e-08
1.9199e-09
4.31426e-08
1.85201e-09
4.27268e-08
1.78754e-09
4.23021e-08
1.7256e-09
4.18699e-08
1.66582e-09
4.14318e-08
1.60804e-09
4.09891e-08
1.55227e-09
4.05435e-08
1.49854e-09
4.00962e-08
1.4469e-09
3.96487e-08
1.39737e-09
3.92021e-08
1.34995e-09
3.87574e-08
1.30458e-09
3.83157e-08
1.2612e-09
3.78776e-08
1.21972e-09
3.74441e-08
1.18003e-09
3.70156e-08
1.14204e-09
3.65928e-08
1.10566e-09
3.6176e-08
1.07079e-09
3.57657e-08
1.03738e-09
3.53621e-08
1.00533e-09
3.49656e-08
9.7461e-10
3.45762e-08
9.45146e-10
3.41941e-08
9.1689e-10
3.38193e-08
8.89801e-10
3.3452e-08
8.63825e-10
3.30921e-08
8.38934e-10
3.27396e-08
8.1507e-10
3.23944e-08
7.92217e-10
3.20564e-08
7.70306e-10
3.17255e-08
7.49335e-10
3.14017e-08
7.29223e-10
3.10847e-08
7.09983e-10
3.07745e-08
6.91518e-10
3.04707e-08
6.73863e-10
3.01734e-08
6.569e-10
2.98823e-08
6.40687e-10
2.95973e-08
6.25085e-10
2.93182e-08
6.10182e-10
2.90448e-08
5.95809e-10
2.87769e-08
5.82093e-10
2.85144e-08
5.68825e-10
2.82571e-08
5.56182e-10
2.8005e-08
5.43908e-10
2.77576e-08
5.32234e-10
2.75151e-08
5.20851e-10
2.72771e-08
5.10055e-10
2.70437e-08
4.9947e-10
2.68145e-08
4.89471e-10
2.65896e-08
4.79599e-10
2.63687e-08
4.70325e-10
2.61518e-08
4.6109e-10
2.59386e-08
4.52479e-10
2.57294e-08
4.43811e-10
2.55235e-08
4.35812e-10
2.53214e-08
4.27649e-10
2.51224e-08
4.20217e-10
2.49271e-08
4.12504e-10
2.47346e-08
4.05602e-10
2.45456e-08
3.98289e-10
2.43593e-08
3.91892e-10
2.41763e-08
3.84931e-10
2.39958e-08
3.79023e-10
2.38185e-08
3.72375e-10
2.36435e-08
3.66947e-10
2.34717e-08
3.60577e-10
2.33017e-08
3.55631e-10
2.3135e-08
3.4951e-10
2.297e-08
3.45059e-10
2.28081e-08
3.39163e-10
2.26476e-08
3.35235e-10
2.24903e-08
3.2955e-10
2.23339e-08
3.26182e-10
2.21809e-08
3.20709e-10
2.20284e-08
3.17948e-10
2.18793e-08
3.12718e-10
2.17304e-08
3.10608e-10
2.15848e-08
3.05714e-10
2.14389e-08
3.0427e-10
2.12963e-08
2.99971e-10
2.11532e-08
2.99122e-10
2.10128e-08
2.96369e-10
2.08714e-08
2.9632e-10
2.98423e-10
4.96967e-08
2.23094e-09
-4.96347e-08
4.99133e-08
2.66967e-09
5.0269e-08
3.12155e-09
5.06109e-08
3.4446e-09
5.08932e-08
3.57441e-09
5.11326e-08
3.56688e-09
5.13411e-08
3.48693e-09
5.15029e-08
3.35886e-09
5.16011e-08
3.19064e-09
5.16342e-08
2.99791e-09
5.16154e-08
2.8037e-09
5.15627e-08
2.62932e-09
5.1487e-08
2.48525e-09
5.13923e-08
2.37036e-09
5.12815e-08
2.27668e-09
5.11573e-08
2.19774e-09
5.10211e-08
2.12902e-09
5.08736e-08
2.06739e-09
5.0715e-08
2.01067e-09
5.05451e-08
1.95741e-09
5.0364e-08
1.90671e-09
5.01718e-08
1.85804e-09
4.99687e-08
1.81112e-09
4.97552e-08
1.76579e-09
4.95317e-08
1.72203e-09
4.92988e-08
1.67978e-09
4.90571e-08
1.63907e-09
4.88072e-08
1.59982e-09
4.85498e-08
1.56203e-09
4.82854e-08
1.5256e-09
4.80146e-08
1.49049e-09
4.77381e-08
1.45657e-09
4.74563e-08
1.42383e-09
4.71698e-08
1.3921e-09
4.68792e-08
1.36142e-09
4.65849e-08
1.33162e-09
4.62875e-08
1.30277e-09
4.59874e-08
1.2747e-09
4.56851e-08
1.2475e-09
4.53809e-08
1.22101e-09
4.50754e-08
1.19536e-09
4.47689e-08
1.17033e-09
4.44617e-08
1.14613e-09
4.41542e-08
1.1225e-09
4.38468e-08
1.09967e-09
4.35397e-08
1.07736e-09
4.32332e-08
1.05584e-09
4.29277e-08
1.03477e-09
4.26232e-08
1.0145e-09
4.23201e-08
9.94603e-10
4.20184e-08
9.75514e-10
4.17186e-08
9.56722e-10
4.14206e-08
9.38749e-10
4.11246e-08
9.20988e-10
4.08308e-08
9.04068e-10
4.05393e-08
8.87266e-10
4.02501e-08
8.71339e-10
3.99635e-08
8.55424e-10
3.96792e-08
8.40433e-10
3.93978e-08
8.25338e-10
3.91188e-08
8.11228e-10
3.88427e-08
7.96889e-10
3.85692e-08
7.83612e-10
3.82987e-08
7.69963e-10
3.80307e-08
7.57477e-10
3.77658e-08
7.44456e-10
3.75034e-08
7.32724e-10
3.72443e-08
7.20272e-10
3.69875e-08
7.09261e-10
3.6734e-08
6.97319e-10
3.64828e-08
6.87004e-10
3.62349e-08
6.75516e-10
3.59892e-08
6.65878e-10
3.5747e-08
6.54789e-10
3.55067e-08
6.45815e-10
3.527e-08
6.35074e-10
3.50351e-08
6.26762e-10
3.48037e-08
6.16315e-10
3.45741e-08
6.08672e-10
3.4348e-08
5.98471e-10
3.41234e-08
5.91513e-10
3.39025e-08
5.81514e-10
3.36828e-08
5.75268e-10
3.34669e-08
5.65433e-10
3.3252e-08
5.59938e-10
3.30409e-08
5.50238e-10
3.28306e-08
5.45547e-10
3.26242e-08
5.35967e-10
3.24183e-08
5.32138e-10
3.22163e-08
5.22696e-10
3.20144e-08
5.1979e-10
3.18166e-08
5.10552e-10
3.16186e-08
5.08616e-10
3.14246e-08
4.99746e-10
3.123e-08
4.98788e-10
3.10394e-08
4.9066e-10
3.08478e-08
4.90673e-10
3.06598e-08
4.84319e-10
3.04705e-08
4.85642e-10
4.82755e-10
5.51391e-08
2.15619e-09
-5.50644e-08
5.53085e-08
2.50028e-09
5.55937e-08
2.83631e-09
5.591e-08
3.12835e-09
5.61942e-08
3.29022e-09
5.6433e-08
3.32813e-09
5.66382e-08
3.28169e-09
5.68106e-08
3.18651e-09
5.69407e-08
3.06053e-09
5.70236e-08
2.91496e-09
5.70646e-08
2.76268e-09
5.70761e-08
2.61785e-09
5.70696e-08
2.49176e-09
5.70515e-08
2.38847e-09
5.70246e-08
2.30356e-09
5.69907e-08
2.23159e-09
5.69512e-08
2.1686e-09
5.69066e-08
2.11197e-09
5.68571e-08
2.0601e-09
5.68028e-08
2.01178e-09
5.67431e-08
1.96635e-09
5.6678e-08
1.92318e-09
5.66071e-08
1.88205e-09
5.65302e-08
1.84264e-09
5.64473e-08
1.80493e-09
5.63584e-08
1.76872e-09
5.62634e-08
1.7341e-09
5.61623e-08
1.70084e-09
5.60553e-08
1.66907e-09
5.59424e-08
1.63852e-09
5.58235e-08
1.60931e-09
5.5699e-08
1.58112e-09
5.55687e-08
1.55413e-09
5.54328e-08
1.52796e-09
5.52914e-08
1.50286e-09
5.51446e-08
1.47842e-09
5.49924e-08
1.45494e-09
5.48352e-08
1.43197e-09
5.46727e-08
1.40991e-09
5.45055e-08
1.38824e-09
5.43334e-08
1.36744e-09
5.41568e-08
1.34692e-09
5.39757e-08
1.32727e-09
5.37904e-08
1.30779e-09
5.36009e-08
1.28919e-09
5.34076e-08
1.27067e-09
5.32104e-08
1.25304e-09
5.30098e-08
1.23538e-09
5.28056e-08
1.21866e-09
5.25984e-08
1.20178e-09
5.2388e-08
1.18591e-09
5.2175e-08
1.16975e-09
5.19591e-08
1.15466e-09
5.17409e-08
1.13914e-09
5.15202e-08
1.12478e-09
5.12976e-08
1.10985e-09
5.10728e-08
1.09618e-09
5.08465e-08
1.08176e-09
5.06181e-08
1.06875e-09
5.03887e-08
1.05479e-09
5.01575e-08
1.04239e-09
4.99256e-08
1.02883e-09
4.96922e-08
1.01702e-09
4.94583e-08
1.00382e-09
4.92232e-08
9.92588e-10
4.8988e-08
9.79686e-10
4.87517e-08
9.69016e-10
4.85156e-08
9.56368e-10
4.82786e-08
9.46256e-10
4.80421e-08
9.33815e-10
4.78048e-08
9.24264e-10
4.75684e-08
9.11983e-10
4.73313e-08
9.03002e-10
4.70952e-08
8.90839e-10
4.68586e-08
8.82442e-10
4.66233e-08
8.70356e-10
4.63875e-08
8.62568e-10
4.61533e-08
8.50517e-10
4.59186e-08
8.43373e-10
4.56857e-08
8.31321e-10
4.54524e-08
8.24862e-10
4.52211e-08
8.12778e-10
4.49893e-08
8.07055e-10
4.47599e-08
7.9492e-10
4.45298e-08
7.89992e-10
4.43022e-08
7.77803e-10
4.4074e-08
7.73739e-10
4.38485e-08
7.61512e-10
4.36222e-08
7.58386e-10
4.33988e-08
7.46181e-10
4.31745e-08
7.44065e-10
4.2953e-08
7.32e-10
4.27307e-08
7.30961e-10
4.25112e-08
7.19255e-10
4.22906e-08
7.19362e-10
4.20728e-08
7.08432e-10
4.18537e-08
7.09851e-10
4.16374e-08
7.0056e-10
4.14194e-08
7.03637e-10
6.96564e-10
6.11288e-08
2.07684e-09
-6.10494e-08
6.12754e-08
2.35368e-09
6.14981e-08
2.61362e-09
6.17728e-08
2.85358e-09
6.20406e-08
3.0225e-09
6.22755e-08
3.09316e-09
6.24734e-08
3.08385e-09
6.26381e-08
3.02177e-09
6.27694e-08
2.92922e-09
6.28648e-08
2.81953e-09
6.29256e-08
2.7019e-09
6.29584e-08
2.5851e-09
6.29724e-08
2.4777e-09
6.29758e-08
2.3851e-09
6.29722e-08
2.30715e-09
6.29636e-08
2.24017e-09
6.29512e-08
2.181e-09
6.2936e-08
2.12722e-09
6.29185e-08
2.07763e-09
6.2899e-08
2.03122e-09
6.28777e-08
1.98766e-09
6.28546e-08
1.94633e-09
6.28294e-08
1.90722e-09
6.28022e-08
1.86983e-09
6.27728e-08
1.83432e-09
6.27413e-08
1.80027e-09
6.27074e-08
1.76796e-09
6.26713e-08
1.73695e-09
6.26328e-08
1.70758e-09
6.2592e-08
1.67934e-09
6.25486e-08
1.65265e-09
6.25028e-08
1.62691e-09
6.24544e-08
1.6026e-09
6.24033e-08
1.57903e-09
6.23494e-08
1.55679e-09
6.22927e-08
1.5351e-09
6.2233e-08
1.51466e-09
6.21703e-08
1.4946e-09
6.21045e-08
1.47575e-09
6.20356e-08
1.45711e-09
6.19634e-08
1.43967e-09
6.1888e-08
1.42228e-09
6.18092e-08
1.40612e-09
6.17272e-08
1.38984e-09
6.16415e-08
1.37482e-09
6.15527e-08
1.35953e-09
6.14601e-08
1.34556e-09
6.13644e-08
1.33114e-09
6.12649e-08
1.31812e-09
6.11622e-08
1.30447e-09
6.10558e-08
1.29231e-09
6.09462e-08
1.27934e-09
6.08329e-08
1.26796e-09
6.07165e-08
1.25556e-09
6.05964e-08
1.24491e-09
6.04732e-08
1.23299e-09
6.03464e-08
1.22299e-09
6.02167e-08
1.21147e-09
6.00834e-08
1.20207e-09
5.99473e-08
1.19087e-09
5.98077e-08
1.18202e-09
5.96654e-08
1.17108e-09
5.95197e-08
1.16275e-09
5.93716e-08
1.15198e-09
5.922e-08
1.14414e-09
5.90662e-08
1.13349e-09
5.89091e-08
1.12612e-09
5.87499e-08
1.11552e-09
5.85876e-08
1.10862e-09
5.84234e-08
1.09802e-09
5.82561e-08
1.09157e-09
5.80871e-08
1.08092e-09
5.79152e-08
1.07493e-09
5.77419e-08
1.06419e-09
5.75656e-08
1.05866e-09
5.73882e-08
1.04778e-09
5.7208e-08
1.04275e-09
5.70268e-08
1.0317e-09
5.6843e-08
1.02719e-09
5.66584e-08
1.01594e-09
5.64713e-08
1.01199e-09
5.62835e-08
1.00053e-09
5.60934e-08
9.97178e-10
5.59028e-08
9.85508e-10
5.571e-08
9.8281e-10
5.55168e-08
9.70957e-10
5.53216e-08
9.68976e-10
5.51261e-08
9.5699e-10
5.49287e-08
9.55798e-10
5.47311e-08
9.43774e-10
5.45317e-08
9.4345e-10
5.43322e-08
9.31545e-10
5.4131e-08
9.32186e-10
5.39296e-08
9.2064e-10
5.37265e-08
9.224e-10
5.35233e-08
9.1163e-10
5.33184e-08
9.14817e-10
5.31135e-08
9.0543e-10
5.29069e-08
9.10214e-10
9.0256e-10
6.77288e-08
1.99858e-09
-6.76505e-08
6.78575e-08
2.22492e-09
6.80379e-08
2.43328e-09
6.82658e-08
2.62564e-09
6.85059e-08
2.78241e-09
6.87292e-08
2.86985e-09
6.89209e-08
2.89215e-09
6.90792e-08
2.86353e-09
6.92066e-08
2.80182e-09
6.93048e-08
2.72128e-09
6.93749e-08
2.63184e-09
6.94198e-08
2.54015e-09
6.94454e-08
2.4521e-09
6.94586e-08
2.37191e-09
6.94641e-08
2.30164e-09
6.94644e-08
2.23995e-09
6.94605e-08
2.18484e-09
6.94536e-08
2.1341e-09
6.94444e-08
2.08685e-09
6.94336e-08
2.04207e-09
6.94214e-08
1.9998e-09
6.94084e-08
1.95941e-09
6.93944e-08
1.92119e-09
6.93797e-08
1.88451e-09
6.93643e-08
1.84978e-09
6.93482e-08
1.81634e-09
6.93314e-08
1.78471e-09
6.93142e-08
1.75418e-09
6.92964e-08
1.72542e-09
6.92781e-08
1.6976e-09
6.92593e-08
1.67149e-09
6.924e-08
1.64616e-09
6.92202e-08
1.62248e-09
6.91998e-08
1.59939e-09
6.91787e-08
1.57788e-09
6.9157e-08
1.55677e-09
6.91345e-08
1.53722e-09
6.91112e-08
1.51786e-09
6.90869e-08
1.50006e-09
6.90617e-08
1.48227e-09
6.90354e-08
1.46604e-09
6.9008e-08
1.44965e-09
6.89793e-08
1.43487e-09
6.89494e-08
1.41974e-09
6.89179e-08
1.40627e-09
6.88852e-08
1.39227e-09
6.88507e-08
1.38002e-09
6.88148e-08
1.36702e-09
6.87771e-08
1.35588e-09
6.87377e-08
1.34378e-09
6.86964e-08
1.33366e-09
6.86534e-08
1.32234e-09
6.86082e-08
1.31315e-09
6.85613e-08
1.30252e-09
6.8512e-08
1.29417e-09
6.84609e-08
1.28412e-09
6.84073e-08
1.27655e-09
6.83518e-08
1.26698e-09
6.82937e-08
1.26012e-09
6.82337e-08
1.25095e-09
6.81709e-08
1.24474e-09
6.81061e-08
1.23589e-09
6.80386e-08
1.23028e-09
6.79689e-08
1.22165e-09
6.78965e-08
1.2166e-09
6.78218e-08
1.20813e-09
6.77444e-08
1.20359e-09
6.76647e-08
1.19522e-09
6.75821e-08
1.19117e-09
6.74973e-08
1.18283e-09
6.74096e-08
1.17924e-09
6.73197e-08
1.17088e-09
6.72269e-08
1.16773e-09
6.71317e-08
1.15931e-09
6.70338e-08
1.15659e-09
6.69335e-08
1.14806e-09
6.68305e-08
1.14577e-09
6.67251e-08
1.1371e-09
6.66171e-08
1.13525e-09
6.65066e-08
1.12643e-09
6.63936e-08
1.12502e-09
6.6278e-08
1.11604e-09
6.61601e-08
1.1151e-09
6.60396e-08
1.10598e-09
6.59169e-08
1.10553e-09
6.57916e-08
1.09632e-09
6.56641e-08
1.0964e-09
6.5534e-08
1.08716e-09
6.54019e-08
1.08785e-09
6.5267e-08
1.07869e-09
6.51304e-08
1.08005e-09
6.49908e-08
1.07114e-09
6.48497e-08
1.0733e-09
6.47055e-08
1.06488e-09
6.45598e-08
1.06805e-09
6.44109e-08
1.06051e-09
6.42607e-08
1.06503e-09
6.41074e-08
1.05878e-09
6.3953e-08
1.06463e-09
1.06031e-09
6.79273e-08
1.93344e-09
-6.78622e-08
6.80285e-08
2.1237e-09
6.81656e-08
2.29626e-09
6.83356e-08
2.45559e-09
6.85248e-08
2.59322e-09
6.87101e-08
2.68452e-09
6.88765e-08
2.72578e-09
6.9017e-08
2.723e-09
6.91313e-08
2.68756e-09
6.92213e-08
2.63123e-09
6.92891e-08
2.56402e-09
6.93369e-08
2.49236e-09
6.93679e-08
2.4211e-09
6.93866e-08
2.35327e-09
6.93969e-08
2.29128e-09
6.94018e-08
2.23512e-09
6.94024e-08
2.18417e-09
6.93999e-08
2.13662e-09
6.93948e-08
2.09191e-09
6.93879e-08
2.049e-09
6.93795e-08
2.00817e-09
6.93702e-08
1.96878e-09
6.936e-08
1.93138e-09
6.93492e-08
1.89526e-09
6.9338e-08
1.86104e-09
6.93264e-08
1.8279e-09
6.93145e-08
1.79657e-09
6.93026e-08
1.76616e-09
6.92905e-08
1.73751e-09
6.92784e-08
1.70963e-09
6.92664e-08
1.68352e-09
6.92545e-08
1.65804e-09
6.92427e-08
1.63429e-09
6.92311e-08
1.61101e-09
6.92195e-08
1.58944e-09
6.92082e-08
1.56815e-09
6.91968e-08
1.54856e-09
6.91856e-08
1.52907e-09
6.91744e-08
1.51129e-09
6.91632e-08
1.49342e-09
6.9152e-08
1.4773e-09
6.91407e-08
1.46091e-09
6.91293e-08
1.44631e-09
6.91177e-08
1.43125e-09
6.9106e-08
1.41806e-09
6.9094e-08
1.40422e-09
6.90817e-08
1.39234e-09
6.90691e-08
1.3796e-09
6.90561e-08
1.36892e-09
6.90427e-08
1.35717e-09
6.90287e-08
1.3476e-09
6.90143e-08
1.33674e-09
6.89993e-08
1.3282e-09
6.89837e-08
1.31812e-09
6.89673e-08
1.31052e-09
6.89503e-08
1.30113e-09
6.89325e-08
1.2944e-09
6.89139e-08
1.2856e-09
6.88943e-08
1.27966e-09
6.88739e-08
1.27138e-09
6.88525e-08
1.26616e-09
6.88301e-08
1.25831e-09
6.88066e-08
1.25377e-09
6.8782e-08
1.24626e-09
6.87562e-08
1.24235e-09
6.87292e-08
1.23513e-09
6.8701e-08
1.23177e-09
6.86715e-08
1.22478e-09
6.86407e-08
1.22195e-09
6.86084e-08
1.21512e-09
6.85748e-08
1.21279e-09
6.85397e-08
1.20607e-09
6.85032e-08
1.20419e-09
6.8465e-08
1.19755e-09
6.84254e-08
1.1961e-09
6.8384e-08
1.1895e-09
6.83413e-08
1.18847e-09
6.82965e-08
1.18189e-09
6.82505e-08
1.18126e-09
6.82022e-08
1.17469e-09
6.81528e-08
1.17445e-09
6.8101e-08
1.16789e-09
6.8048e-08
1.16806e-09
6.79924e-08
1.16155e-09
6.79358e-08
1.16212e-09
6.78764e-08
1.1557e-09
6.78161e-08
1.15673e-09
6.77528e-08
1.15047e-09
6.76887e-08
1.152e-09
6.76213e-08
1.14602e-09
6.75532e-08
1.14814e-09
6.74818e-08
1.1426e-09
6.74096e-08
1.14546e-09
6.73339e-08
1.1406e-09
6.72575e-08
1.14441e-09
6.71775e-08
1.14057e-09
6.70969e-08
1.14563e-09
6.70125e-08
1.1431e-09
6.69275e-08
1.14966e-09
1.14899e-09
7.51811e-08
1.87123e-09
-7.51189e-08
7.52715e-08
2.03335e-09
7.53896e-08
2.17818e-09
7.5533e-08
2.31219e-09
7.56955e-08
2.43065e-09
7.58601e-08
2.51994e-09
7.60139e-08
2.57197e-09
7.61484e-08
2.58855e-09
7.62601e-08
2.57579e-09
7.63498e-08
2.54161e-09
7.64193e-08
2.49444e-09
7.64712e-08
2.44047e-09
7.65079e-08
2.38444e-09
7.65323e-08
2.32883e-09
7.65477e-08
2.27589e-09
7.65567e-08
2.22611e-09
7.65611e-08
2.17985e-09
7.65617e-08
2.13594e-09
7.65595e-08
2.0942e-09
7.65548e-08
2.05362e-09
7.65484e-08
2.01461e-09
7.65406e-08
1.97657e-09
7.65318e-08
1.9402e-09
7.65222e-08
1.90482e-09
7.65121e-08
1.87117e-09
7.65016e-08
1.83843e-09
7.64908e-08
1.80739e-09
7.64798e-08
1.77711e-09
7.64688e-08
1.74852e-09
7.64578e-08
1.72059e-09
7.6447e-08
1.69436e-09
7.64363e-08
1.66869e-09
7.64259e-08
1.64471e-09
7.64158e-08
1.62116e-09
7.64059e-08
1.59931e-09
7.63963e-08
1.57773e-09
7.6387e-08
1.55784e-09
7.6378e-08
1.53806e-09
7.63693e-08
1.51998e-09
7.63609e-08
1.50184e-09
7.63528e-08
1.48544e-09
7.63449e-08
1.46882e-09
7.63372e-08
1.45396e-09
7.63297e-08
1.43873e-09
7.63225e-08
1.42531e-09
7.63154e-08
1.41134e-09
7.63084e-08
1.39927e-09
7.63016e-08
1.38646e-09
7.62949e-08
1.37562e-09
7.62882e-08
1.36387e-09
7.62816e-08
1.35418e-09
7.6275e-08
1.34339e-09
7.62684e-08
1.33475e-09
7.62617e-08
1.32482e-09
7.62551e-08
1.31716e-09
7.62482e-08
1.308e-09
7.62413e-08
1.30124e-09
7.62342e-08
1.29276e-09
7.6227e-08
1.28682e-09
7.62195e-08
1.27895e-09
7.62119e-08
1.27376e-09
7.62037e-08
1.26642e-09
7.61956e-08
1.26193e-09
7.61868e-08
1.25505e-09
7.6178e-08
1.25119e-09
7.61684e-08
1.24472e-09
7.61587e-08
1.24143e-09
7.61482e-08
1.2353e-09
7.61376e-08
1.23256e-09
7.6126e-08
1.22672e-09
7.61143e-08
1.22446e-09
7.61015e-08
1.21888e-09
7.60886e-08
1.21707e-09
7.60744e-08
1.21172e-09
7.60602e-08
1.21034e-09
7.60445e-08
1.20517e-09
7.60288e-08
1.20418e-09
7.60115e-08
1.1992e-09
7.59942e-08
1.19859e-09
7.59751e-08
1.19378e-09
7.5956e-08
1.19354e-09
7.5935e-08
1.18892e-09
7.5914e-08
1.18906e-09
7.58909e-08
1.18465e-09
7.58678e-08
1.18518e-09
7.58425e-08
1.18104e-09
7.58172e-08
1.182e-09
7.57895e-08
1.17819e-09
7.57619e-08
1.17964e-09
7.57316e-08
1.1763e-09
7.57014e-08
1.17834e-09
7.56684e-08
1.1756e-09
7.56355e-08
1.1784e-09
7.55996e-08
1.17649e-09
7.55637e-08
1.18026e-09
7.55248e-08
1.17948e-09
7.54859e-08
1.18449e-09
7.54439e-08
1.18512e-09
7.54018e-08
1.19179e-09
1.19416e-09
8.31886e-08
1.81331e-09
-8.31307e-08
8.32686e-08
1.95336e-09
8.33701e-08
2.07669e-09
8.3491e-08
2.19126e-09
8.36281e-08
2.29359e-09
8.37701e-08
2.37799e-09
8.3907e-08
2.43507e-09
8.40309e-08
2.46463e-09
8.41371e-08
2.46957e-09
8.42243e-08
2.4544e-09
8.42936e-08
2.42517e-09
8.4347e-08
2.38703e-09
8.43869e-08
2.34457e-09
8.44154e-08
2.30028e-09
8.4435e-08
2.25635e-09
8.44477e-08
2.21338e-09
8.44553e-08
2.17223e-09
8.4459e-08
2.13231e-09
8.44594e-08
2.0938e-09
8.44571e-08
2.05588e-09
8.44527e-08
2.01901e-09
8.44466e-08
1.98265e-09
8.44393e-08
1.94753e-09
8.4431e-08
1.91312e-09
8.4422e-08
1.88015e-09
8.44125e-08
1.84794e-09
8.44027e-08
1.81723e-09
8.43926e-08
1.7872e-09
8.43824e-08
1.7587e-09
8.43722e-08
1.73081e-09
8.43621e-08
1.70447e-09
8.43521e-08
1.67868e-09
8.43423e-08
1.65446e-09
8.43328e-08
1.63071e-09
8.43236e-08
1.60853e-09
8.43146e-08
1.5867e-09
8.4306e-08
1.56644e-09
8.42976e-08
1.5464e-09
8.42897e-08
1.52793e-09
8.4282e-08
1.50955e-09
8.42747e-08
1.49275e-09
8.42676e-08
1.4759e-09
8.42609e-08
1.46065e-09
8.42544e-08
1.44523e-09
8.42483e-08
1.43142e-09
8.42423e-08
1.4173e-09
8.42368e-08
1.40485e-09
8.42313e-08
1.39193e-09
8.42262e-08
1.38072e-09
8.42211e-08
1.36891e-09
8.42165e-08
1.35884e-09
8.42118e-08
1.34805e-09
8.42075e-08
1.33905e-09
8.42032e-08
1.32916e-09
8.41992e-08
1.32115e-09
8.41951e-08
1.31209e-09
8.41914e-08
1.30496e-09
8.41875e-08
1.29667e-09
8.41839e-08
1.29035e-09
8.41802e-08
1.28273e-09
8.41768e-08
1.27717e-09
8.4173e-08
1.27013e-09
8.41697e-08
1.26527e-09
8.4166e-08
1.25877e-09
8.41626e-08
1.25452e-09
8.41588e-08
1.24852e-09
8.41554e-08
1.24484e-09
8.41515e-08
1.23924e-09
8.4148e-08
1.2361e-09
8.41438e-08
1.23088e-09
8.414e-08
1.22821e-09
8.41356e-08
1.22334e-09
8.41316e-08
1.22111e-09
8.41267e-08
1.21655e-09
8.41223e-08
1.21473e-09
8.4117e-08
1.21045e-09
8.41122e-08
1.20902e-09
8.41064e-08
1.20503e-09
8.4101e-08
1.20396e-09
8.40945e-08
1.20023e-09
8.40885e-08
1.19955e-09
8.40814e-08
1.1961e-09
8.40746e-08
1.19579e-09
8.40666e-08
1.19266e-09
8.4059e-08
1.19275e-09
8.40501e-08
1.18998e-09
8.40416e-08
1.19053e-09
8.40315e-08
1.1882e-09
8.40219e-08
1.18927e-09
8.40107e-08
1.18749e-09
8.39999e-08
1.18921e-09
8.39874e-08
1.18811e-09
8.39751e-08
1.19064e-09
8.39611e-08
1.19046e-09
8.39474e-08
1.19402e-09
8.39319e-08
1.195e-09
8.39165e-08
1.19987e-09
8.38993e-08
1.20232e-09
8.38822e-08
1.20891e-09
1.21302e-09
9.20309e-08
1.76166e-09
-9.19793e-08
9.20998e-08
1.88451e-09
9.21853e-08
1.99121e-09
9.22857e-08
2.09083e-09
9.23984e-08
2.18089e-09
9.25174e-08
2.25896e-09
9.26348e-08
2.31766e-09
9.27444e-08
2.35509e-09
9.28413e-08
2.3726e-09
9.29233e-08
2.37245e-09
9.299e-08
2.35849e-09
9.30426e-08
2.33437e-09
9.30832e-08
2.30402e-09
9.31135e-08
2.26993e-09
9.31356e-08
2.23433e-09
9.31509e-08
2.19804e-09
9.31611e-08
2.16206e-09
9.31671e-08
2.12626e-09
9.31699e-08
2.09104e-09
9.31698e-08
2.05592e-09
9.31675e-08
2.02132e-09
9.31633e-08
1.98685e-09
9.31577e-08
1.95316e-09
9.31509e-08
1.91989e-09
9.31433e-08
1.88773e-09
9.31351e-08
1.85615e-09
9.31265e-08
1.82584e-09
9.31176e-08
1.79615e-09
9.31085e-08
1.76777e-09
9.30993e-08
1.74001e-09
9.30902e-08
1.7136e-09
9.30811e-08
1.68778e-09
9.30722e-08
1.66335e-09
9.30634e-08
1.63947e-09
9.3055e-08
1.61699e-09
9.30467e-08
1.59497e-09
9.30388e-08
1.57436e-09
9.30311e-08
1.55411e-09
9.30238e-08
1.53526e-09
9.30167e-08
1.51667e-09
9.30099e-08
1.49947e-09
9.30034e-08
1.48243e-09
9.29973e-08
1.46678e-09
9.29913e-08
1.45119e-09
9.29857e-08
1.43699e-09
9.29803e-08
1.42273e-09
9.29753e-08
1.40988e-09
9.29704e-08
1.39686e-09
9.29658e-08
1.38525e-09
9.29614e-08
1.37337e-09
9.29573e-08
1.36291e-09
9.29533e-08
1.35209e-09
9.29496e-08
1.3427e-09
9.2946e-08
1.33282e-09
9.29427e-08
1.32442e-09
9.29394e-08
1.3154e-09
9.29365e-08
1.30789e-09
9.29334e-08
1.29968e-09
9.29308e-08
1.29298e-09
9.29281e-08
1.28547e-09
9.29257e-08
1.27954e-09
9.29232e-08
1.27266e-09
9.2921e-08
1.26741e-09
9.29187e-08
1.26112e-09
9.29167e-08
1.25648e-09
9.29145e-08
1.25072e-09
9.29127e-08
1.24665e-09
9.29106e-08
1.24134e-09
9.29089e-08
1.2378e-09
9.29069e-08
1.23291e-09
9.29053e-08
1.22983e-09
9.29033e-08
1.22534e-09
9.29017e-08
1.2227e-09
9.28997e-08
1.21855e-09
9.28981e-08
1.21633e-09
9.2896e-08
1.21251e-09
9.28944e-08
1.21067e-09
9.28922e-08
1.20717e-09
9.28905e-08
1.20571e-09
9.28882e-08
1.20251e-09
9.28863e-08
1.20145e-09
9.28838e-08
1.19857e-09
9.28817e-08
1.19789e-09
9.2879e-08
1.19537e-09
9.28766e-08
1.19513e-09
9.28736e-08
1.193e-09
9.28709e-08
1.19325e-09
9.28675e-08
1.19159e-09
9.28643e-08
1.19241e-09
9.28605e-08
1.19134e-09
9.28568e-08
1.19286e-09
9.28524e-08
1.19251e-09
9.28482e-08
1.1949e-09
9.28432e-08
1.19548e-09
9.28382e-08
1.19896e-09
9.28325e-08
1.20069e-09
9.28269e-08
1.20554e-09
9.28204e-08
1.20876e-09
9.2814e-08
1.21532e-09
1.22013e-09
1.01797e-07
1.71789e-09
-1.01753e-07
1.01854e-07
1.82775e-09
1.01923e-07
1.92194e-09
1.02003e-07
2.01035e-09
1.02093e-07
2.09121e-09
1.02189e-07
2.16308e-09
1.02285e-07
2.22146e-09
1.02377e-07
2.26321e-09
1.02461e-07
2.28896e-09
1.02533e-07
2.29971e-09
1.02594e-07
2.29771e-09
1.02643e-07
2.28531e-09
1.02682e-07
2.26543e-09
1.02711e-07
2.24027e-09
1.02734e-07
2.21202e-09
1.0275e-07
2.18172e-09
1.02762e-07
2.15053e-09
1.02769e-07
2.11861e-09
1.02774e-07
2.08654e-09
1.02776e-07
2.05409e-09
1.02775e-07
2.02172e-09
1.02773e-07
1.98916e-09
1.02769e-07
1.95698e-09
1.02764e-07
1.92493e-09
1.02758e-07
1.89363e-09