/*--------------------------------*- C++ -*----------------------------------*\
| =========                 |                                                 |
| \\      /  F ield         | OpenFOAM: The Open Source CFD Toolbox           |
|  \\    /   O peration     | Version:  2.3.0                                 |
|   \\  /    A nd           | Web:      www.OpenFOAM.org                      |
|    \\/     M anipulation  |                                                 |
\*---------------------------------------------------------------------------*/
FoamFile
{
    version     2.0;
    format      ascii;
    class       volVectorField;
    location    "1";
    object      U;
}
// * * * * * * * * * * * * * * * * * * * * * * * * * * * * * * * * * * * * * //

dimensions      [0 1 -1 0 0 0 0];

internalField   nonuniform List<vector> 
2000
(
(0.175523 0.00442171 0)
(0.154832 0.00604567 0)
(0.136033 0.00619893 0)
(0.117683 0.00557969 0)
(0.0999735 0.0047526 0)
(0.0837885 0.00383731 0)
(0.0702265 0.00284648 0)
(0.0596734 0.00180371 0)
(0.0519014 0.000897391 0)
(0.0463439 0.000287299 0)
(0.0424176 -3.12974e-05 0)
(0.0396388 -0.000151644 0)
(0.0376197 -0.000161707 0)
(0.0360753 -0.000122106 0)
(0.0348037 -6.56213e-05 0)
(0.0336775 -1.16686e-05 0)
(0.032629 2.98739e-05 0)
(0.0316294 5.6842e-05 0)
(0.0306726 7.13777e-05 0)
(0.0297612 7.69968e-05 0)
(0.0288997 7.69731e-05 0)
(0.0280911 7.38147e-05 0)
(0.0273362 6.9202e-05 0)
(0.0266334 6.41756e-05 0)
(0.0259799 5.92882e-05 0)
(0.0253718 5.48017e-05 0)
(0.024805 5.07868e-05 0)
(0.0242751 4.72479e-05 0)
(0.0237785 4.41245e-05 0)
(0.0233113 4.13692e-05 0)
(0.0228707 3.89104e-05 0)
(0.0224536 3.67134e-05 0)
(0.0220581 3.47208e-05 0)
(0.0216816 3.29164e-05 0)
(0.0213232 3.12545e-05 0)
(0.0209806 2.97331e-05 0)
(0.0206534 2.83134e-05 0)
(0.0203396 2.70047e-05 0)
(0.0200392 2.57715e-05 0)
(0.0197503 2.46311e-05 0)
(0.0194732 2.35488e-05 0)
(0.019206 2.25485e-05 0)
(0.0189493 2.15937e-05 0)
(0.0187013 2.07142e-05 0)
(0.0184627 1.98698e-05 0)
(0.0182315 1.90962e-05 0)
(0.0180088 1.83481e-05 0)
(0.0177924 1.76676e-05 0)
(0.0175839 1.70032e-05 0)
(0.0173807 1.64041e-05 0)
(0.0171848 1.58117e-05 0)
(0.0169933 1.52832e-05 0)
(0.0168086 1.47519e-05 0)
(0.0166276 1.42846e-05 0)
(0.016453 1.38048e-05 0)
(0.0162813 1.33902e-05 0)
(0.0161159 1.29534e-05 0)
(0.0159526 1.25847e-05 0)
(0.0157955 1.21837e-05 0)
(0.0156397 1.18553e-05 0)
(0.0154902 1.14839e-05 0)
(0.0153412 1.11915e-05 0)
(0.0151988 1.08445e-05 0)
(0.015056 1.05847e-05 0)
(0.0149201 1.02576e-05 0)
(0.0147829 1.00281e-05 0)
(0.0146531 9.71677e-06 0)
(0.0145209 9.51605e-06 0)
(0.0143969 9.21686e-06 0)
(0.0142693 9.04394e-06 0)
(0.0141508 8.75348e-06 0)
(0.0140273 8.60819e-06 0)
(0.0139141 8.32288e-06 0)
(0.0137942 8.20594e-06 0)
(0.013686 7.92208e-06 0)
(0.0135693 7.83475e-06 0)
(0.0134661 7.5487e-06 0)
(0.013352 7.49296e-06 0)
(0.0132537 7.20067e-06 0)
(0.0131419 7.17961e-06 0)
(0.0130485 6.8762e-06 0)
(0.0129382 6.8942e-06 0)
(0.0128499 6.57384e-06 0)
(0.0127406 6.63692e-06 0)
(0.0126575 6.29277e-06 0)
(0.0125483 6.40902e-06 0)
(0.0124707 6.03247e-06 0)
(0.0123609 6.21254e-06 0)
(0.0122892 5.792e-06 0)
(0.0121777 6.05105e-06 0)
(0.0121125 5.57085e-06 0)
(0.0119978 5.93074e-06 0)
(0.0119401 5.36778e-06 0)
(0.0118202 5.86155e-06 0)
(0.0117714 5.17917e-06 0)
(0.0116438 5.86349e-06 0)
(0.0116061 4.99737e-06 0)
(0.0114663 5.97936e-06 0)
(0.0114446 4.95479e-06 0)
(0.0112774 8.09177e-06 0)
(0.190918 0.00783044 0)
(0.189228 0.0109759 0)
(0.186858 0.0120926 0)
(0.183187 0.011954 0)
(0.177955 0.0113245 0)
(0.171346 0.0104234 0)
(0.163978 0.00925684 0)
(0.156303 0.00782303 0)
(0.148675 0.00627542 0)
(0.141305 0.00483494 0)
(0.134326 0.00364648 0)
(0.127844 0.00274302 0)
(0.121909 0.00209177 0)
(0.116545 0.00164654 0)
(0.111719 0.00135458 0)
(0.107372 0.00116513 0)
(0.10344 0.00103725 0)
(0.0998651 0.000943246 0)
(0.0965986 0.000866893 0)
(0.0936003 0.000799878 0)
(0.0908386 0.000738465 0)
(0.0882863 0.000681367 0)
(0.0859213 0.000628337 0)
(0.0837236 0.000579546 0)
(0.0816767 0.000535121 0)
(0.0797646 0.000495099 0)
(0.0779746 0.000459282 0)
(0.0762937 0.000427402 0)
(0.0747122 0.000399026 0)
(0.0732193 0.00037376 0)
(0.0718081 0.000351135 0)
(0.0704697 0.000330809 0)
(0.0691995 0.000312392 0)
(0.0679899 0.000295653 0)
(0.0668381 0.000280298 0)
(0.0657375 0.000266199 0)
(0.0646866 0.000253133 0)
(0.0636795 0.000241047 0)
(0.0627158 0.000229764 0)
(0.0617897 0.000219282 0)
(0.0609018 0.000209448 0)
(0.0600464 0.000200294 0)
(0.0592251 0.000191674 0)
(0.0584318 0.000183648 0)
(0.057669 0.000176065 0)
(0.0569303 0.000169008 0)
(0.0562194 0.000162316 0)
(0.055529 0.000156093 0)
(0.0548641 0.000150166 0)
(0.0542165 0.000144662 0)
(0.0535926 0.00013939 0)
(0.052983 0.000134503 0)
(0.0523958 0.000129791 0)
(0.0518202 0.000125435 0)
(0.051266 0.0001212 0)
(0.0507208 0.000117301 0)
(0.0501965 0.000113473 0)
(0.0496786 0.000109968 0)
(0.0491816 0.000106489 0)
(0.0486883 0.000103326 0)
(0.0482162 0.000100145 0)
(0.0477451 9.72843e-05 0)
(0.047296 9.43602e-05 0)
(0.046845 9.17661e-05 0)
(0.0464172 8.90635e-05 0)
(0.0459844 8.67085e-05 0)
(0.0455766 8.4197e-05 0)
(0.0451602 8.20589e-05 0)
(0.0447712 7.97124e-05 0)
(0.0443695 7.77731e-05 0)
(0.0439984 7.55685e-05 0)
(0.0436099 7.38145e-05 0)
(0.0432558 7.17305e-05 0)
(0.0428791 7.01526e-05 0)
(0.0425416 6.81695e-05 0)
(0.042175 6.67614e-05 0)
(0.0418537 6.48615e-05 0)
(0.0414957 6.36204e-05 0)
(0.0411905 6.17865e-05 0)
(0.0408395 6.07139e-05 0)
(0.0405504 5.89281e-05 0)
(0.0402045 5.80302e-05 0)
(0.039932 5.62737e-05 0)
(0.0395893 5.55621e-05 0)
(0.0393339 5.38152e-05 0)
(0.0389921 5.33081e-05 0)
(0.0387548 5.15487e-05 0)
(0.0384111 5.12714e-05 0)
(0.0381935 4.94724e-05 0)
(0.0378445 4.94626e-05 0)
(0.0376487 4.75906e-05 0)
(0.03729 4.79017e-05 0)
(0.0371191 4.59138e-05 0)
(0.036745 4.66207e-05 0)
(0.0366036 4.44615e-05 0)
(0.0362061 4.56762e-05 0)
(0.0361013 4.32843e-05 0)
(0.0356677 4.52861e-05 0)
(0.0356128 4.26555e-05 0)
(0.0351177 5.05159e-05 0)
(0.192154 0.00753143 0)
(0.192528 0.0100956 0)
(0.193528 0.0116829 0)
(0.194621 0.0122203 0)
(0.195207 0.0121372 0)
(0.194966 0.011704 0)
(0.193877 0.0109749 0)
(0.192026 0.00998383 0)
(0.189544 0.00883689 0)
(0.186573 0.00769285 0)
(0.183248 0.00667738 0)
(0.179708 0.00584081 0)
(0.176065 0.0051707 0)
(0.172416 0.00463785 0)
(0.168809 0.00420764 0)
(0.165264 0.00384933 0)
(0.161792 0.00353992 0)
(0.158397 0.0032646 0)
(0.155083 0.00301469 0)
(0.151854 0.00278552 0)
(0.148714 0.00257452 0)
(0.145666 0.00238028 0)
(0.142715 0.00220181 0)
(0.139862 0.0020384 0)
(0.137111 0.00188928 0)
(0.134459 0.00175374 0)
(0.13191 0.00163087 0)
(0.129458 0.00151976 0)
(0.127106 0.00141934 0)
(0.124845 0.00132859 0)
(0.122678 0.00124643 0)
(0.120596 0.00117194 0)
(0.1186 0.00110415 0)
(0.116681 0.00104235 0)
(0.11484 0.000985751 0)
(0.113069 0.00093384 0)
(0.111368 0.000885995 0)
(0.109729 0.000841871 0)
(0.108154 0.000800975 0)
(0.106633 0.000763093 0)
(0.10517 0.00072782 0)
(0.103754 0.000695038 0)
(0.102391 0.000664398 0)
(0.101069 0.000635853 0)
(0.0997961 0.000609083 0)
(0.0985583 0.000584098 0)
(0.0973655 0.00056059 0)
(0.0962029 0.000538617 0)
(0.0950823 0.000517873 0)
(0.0939872 0.000498456 0)
(0.0929319 0.00048006 0)
(0.0918974 0.000462821 0)
(0.0909012 0.000446422 0)
(0.0899214 0.000431043 0)
(0.0889791 0.000416349 0)
(0.0880486 0.000402564 0)
(0.0871555 0.000389331 0)
(0.0862696 0.000376918 0)
(0.0854217 0.000364942 0)
(0.0845764 0.000353718 0)
(0.0837702 0.000342828 0)
(0.0829615 0.000332639 0)
(0.082194 0.000322693 0)
(0.0814186 0.000313413 0)
(0.0806872 0.00030429 0)
(0.079942 0.000295813 0)
(0.0792446 0.000287414 0)
(0.0785265 0.000279651 0)
(0.0778613 0.000271887 0)
(0.0771676 0.000264764 0)
(0.0765331 0.000257564 0)
(0.0758612 0.000251018 0)
(0.0752563 0.000244318 0)
(0.0746037 0.0002383 0)
(0.0740276 0.000232042 0)
(0.0733915 0.000226511 0)
(0.0728439 0.000220651 0)
(0.0722216 0.000215572 0)
(0.0717024 0.000210068 0)
(0.0710911 0.00020542 0)
(0.0706006 0.000200236 0)
(0.0699973 0.000196002 0)
(0.0695363 0.000191108 0)
(0.0689374 0.000187282 0)
(0.0685074 0.000182651 0)
(0.0679087 0.000179238 0)
(0.0675117 0.000174851 0)
(0.0669086 0.000171861 0)
(0.0665475 0.000167702 0)
(0.0659341 0.000165161 0)
(0.0656128 0.000161222 0)
(0.0649819 0.000159168 0)
(0.064706 0.000155453 0)
(0.0640481 0.000153942 0)
(0.0638253 0.000150467 0)
(0.0631278 0.000149622 0)
(0.062969 0.000146353 0)
(0.0622149 0.000146878 0)
(0.0621348 0.000143568 0)
(0.0613017 0.000152184 0)
(0.193328 0.00709897 0)
(0.19365 0.00886065 0)
(0.194567 0.0102902 0)
(0.195981 0.0110401 0)
(0.197498 0.0112056 0)
(0.198775 0.0109941 0)
(0.199644 0.0105239 0)
(0.20006 0.00985863 0)
(0.200025 0.00906903 0)
(0.199576 0.00825045 0)
(0.198769 0.00749353 0)
(0.197684 0.00684965 0)
(0.1964 0.00632572 0)
(0.194987 0.0059 0)
(0.193487 0.00554576 0)
(0.19192 0.00524087 0)
(0.190299 0.00496944 0)
(0.188625 0.00472106 0)
(0.186904 0.0044892 0)
(0.185135 0.0042701 0)
(0.183325 0.00406157 0)
(0.181478 0.00386253 0)
(0.179602 0.00367241 0)
(0.177701 0.00349107 0)
(0.175786 0.0033184 0)
(0.173858 0.00315446 0)
(0.171929 0.00299914 0)
(0.169998 0.00285234 0)
(0.168077 0.00271372 0)
(0.166163 0.00258301 0)
(0.164267 0.00245973 0)
(0.162385 0.00234355 0)
(0.160528 0.00223398 0)
(0.15869 0.00213069 0)
(0.156882 0.00203325 0)
(0.155096 0.00194137 0)
(0.153343 0.00185465 0)
(0.151615 0.00177289 0)
(0.149924 0.00169572 0)
(0.148257 0.00162295 0)
(0.146629 0.00155425 0)
(0.145025 0.00148948 0)
(0.143461 0.00142832 0)
(0.141921 0.00137065 0)
(0.140422 0.00131618 0)
(0.138943 0.00126479 0)
(0.137508 0.00121622 0)
(0.13609 0.00117037 0)
(0.134715 0.00112699 0)
(0.133356 0.00108599 0)
(0.13204 0.00104715 0)
(0.130736 0.00101041 0)
(0.129477 0.000975542 0)
(0.128225 0.000942504 0)
(0.12702 0.000911101 0)
(0.125817 0.000881294 0)
(0.124663 0.000852917 0)
(0.123505 0.00082593 0)
(0.122401 0.000800199 0)
(0.121286 0.000775679 0)
(0.120227 0.000752267 0)
(0.119151 0.000729908 0)
(0.118137 0.000708537 0)
(0.117098 0.000688079 0)
(0.116126 0.000668511 0)
(0.115119 0.000649729 0)
(0.114188 0.00063176 0)
(0.113212 0.000614461 0)
(0.112321 0.000597919 0)
(0.111371 0.000581936 0)
(0.110518 0.000566674 0)
(0.109593 0.000551863 0)
(0.108778 0.000537756 0)
(0.107874 0.000523995 0)
(0.107097 0.000510937 0)
(0.106211 0.000498119 0)
(0.105471 0.000486026 0)
(0.104599 0.000474057 0)
(0.103898 0.00046286 0)
(0.103037 0.000451662 0)
(0.102375 0.000441308 0)
(0.101521 0.000430814 0)
(0.1009 0.000421265 0)
(0.100048 0.00041142 0)
(0.0994713 0.000402659 0)
(0.0986155 0.000393417 0)
(0.0980856 0.000385443 0)
(0.0972198 0.000376771 0)
(0.0967415 0.000369601 0)
(0.095858 0.00036148 0)
(0.0954368 0.000355148 0)
(0.0945263 0.000347593 0)
(0.0941696 0.000342133 0)
(0.0932206 0.000335238 0)
(0.0929377 0.000330625 0)
(0.0919362 0.000324729 0)
(0.0917384 0.000320723 0)
(0.0906677 0.000317087 0)
(0.0905674 0.000313421 0)
(0.0894096 0.000317855 0)
(0.194314 0.00677699 0)
(0.194605 0.00806645 0)
(0.195288 0.00923181 0)
(0.196385 0.00999618 0)
(0.197708 0.0102827 0)
(0.199004 0.0101943 0)
(0.200102 0.0098565 0)
(0.200932 0.00935835 0)
(0.201484 0.00876567 0)
(0.201768 0.00814089 0)
(0.201815 0.00754532 0)
(0.201664 0.00702182 0)
(0.201373 0.00658531 0)
(0.200986 0.00622678 0)
(0.200542 0.00592814 0)
(0.200054 0.00567228 0)
(0.199532 0.00544622 0)
(0.198973 0.00524104 0)
(0.198378 0.00505082 0)
(0.197738 0.00487176 0)
(0.197057 0.0047014 0)
(0.196329 0.00453824 0)
(0.19556 0.00438136 0)
(0.194744 0.00423026 0)
(0.193893 0.00408464 0)
(0.192999 0.00394438 0)
(0.192073 0.00380937 0)
(0.19111 0.0036795 0)
(0.190121 0.00355463 0)
(0.189099 0.00343457 0)
(0.188056 0.00331912 0)
(0.186983 0.00320804 0)
(0.185896 0.00310114 0)
(0.184781 0.00299818 0)
(0.183658 0.00289903 0)
(0.182511 0.00280345 0)
(0.18136 0.00271138 0)
(0.180187 0.0026226 0)
(0.179016 0.0025371 0)
(0.177825 0.00245467 0)
(0.176641 0.00237531 0)
(0.175438 0.00229882 0)
(0.174247 0.00222526 0)
(0.173038 0.00215436 0)
(0.171847 0.00208625 0)
(0.170636 0.00202061 0)
(0.169449 0.00195761 0)
(0.168242 0.00189689 0)
(0.167063 0.00183868 0)
(0.165862 0.00178255 0)
(0.164696 0.00172879 0)
(0.163506 0.0016769 0)
(0.162355 0.00162728 0)
(0.161177 0.0015793 0)
(0.160045 0.00153349 0)
(0.15888 0.00148911 0)
(0.157769 0.00144681 0)
(0.15662 0.00140572 0)
(0.155532 0.00136664 0)
(0.154398 0.00132855 0)
(0.153335 0.00129243 0)
(0.152217 0.00125706 0)
(0.151181 0.00122366 0)
(0.150079 0.00119077 0)
(0.14907 0.00115985 0)
(0.147983 0.0011292 0)
(0.147003 0.00110057 0)
(0.145932 0.00107193 0)
(0.144981 0.00104542 0)
(0.143923 0.0010186 0)
(0.143004 0.000994039 0)
(0.141958 0.000968855 0)
(0.141072 0.000946106 0)
(0.140035 0.00092239 0)
(0.139184 0.000901337 0)
(0.138154 0.000878934 0)
(0.137339 0.000859486 0)
(0.136314 0.00083825 0)
(0.135538 0.000820337 0)
(0.134513 0.000800138 0)
(0.133779 0.000783709 0)
(0.132751 0.000764434 0)
(0.132062 0.000749459 0)
(0.131026 0.000731005 0)
(0.130386 0.000717477 0)
(0.129337 0.000699761 0)
(0.12875 0.000687696 0)
(0.12768 0.000670657 0)
(0.127153 0.000660079 0)
(0.126055 0.000643704 0)
(0.125593 0.000634632 0)
(0.124458 0.000618989 0)
(0.12407 0.000611407 0)
(0.122887 0.000596712 0)
(0.122582 0.00059051 0)
(0.121338 0.00057729 0)
(0.121126 0.000572226 0)
(0.119806 0.000561802 0)
(0.119698 0.000558083 0)
(0.118289 0.000554321 0)
(0.195156 0.00650514 0)
(0.195425 0.00750658 0)
(0.19596 0.00843715 0)
(0.196787 0.00913034 0)
(0.197824 0.00947864 0)
(0.198906 0.00949801 0)
(0.199892 0.00927651 0)
(0.200697 0.00890276 0)
(0.201301 0.0084432 0)
(0.201707 0.00794844 0)
(0.20194 0.00746148 0)
(0.202028 0.00701625 0)
(0.202014 0.0066308 0)
(0.20193 0.00630567 0)
(0.201812 0.00603126 0)
(0.201673 0.00579526 0)
(0.201527 0.00558712 0)
(0.201369 0.00539902 0)
(0.201205 0.00522577 0)
(0.201022 0.00506391 0)
(0.200826 0.00491128 0)
(0.200605 0.00476632 0)
(0.200369 0.00462814 0)
(0.200105 0.00449592 0)
(0.199826 0.00436933 0)
(0.199518 0.00424788 0)
(0.199197 0.00413145 0)
(0.198845 0.00401962 0)
(0.198482 0.00391237 0)
(0.198087 0.00380921 0)
(0.197683 0.00371015 0)
(0.197246 0.00361463 0)
(0.196802 0.00352272 0)
(0.196323 0.00343384 0)
(0.195841 0.00334815 0)
(0.195322 0.00326503 0)
(0.194802 0.00318479 0)
(0.194245 0.00310675 0)
(0.19369 0.00303135 0)
(0.193096 0.00295787 0)
(0.192507 0.00288687 0)
(0.191878 0.00281754 0)
(0.191259 0.00275059 0)
(0.190596 0.00268509 0)
(0.189948 0.00262192 0)
(0.189254 0.00255999 0)
(0.188582 0.00250035 0)
(0.187858 0.00244175 0)
(0.187163 0.00238543 0)
(0.186413 0.00232994 0)
(0.185698 0.00227675 0)
(0.184923 0.00222417 0)
(0.184192 0.00217393 0)
(0.183395 0.00212406 0)
(0.18265 0.0020766 0)
(0.181832 0.00202927 0)
(0.181077 0.00198444 0)
(0.18024 0.00193946 0)
(0.179477 0.00189712 0)
(0.178623 0.00185434 0)
(0.177856 0.00181436 0)
(0.176985 0.00177362 0)
(0.176217 0.00173589 0)
(0.175332 0.00169704 0)
(0.174565 0.00166145 0)
(0.173665 0.00162435 0)
(0.172904 0.00159082 0)
(0.171991 0.00155533 0)
(0.171237 0.00152377 0)
(0.17031 0.00148976 0)
(0.169568 0.00146012 0)
(0.168627 0.00142745 0)
(0.1679 0.00139967 0)
(0.166945 0.00136823 0)
(0.166236 0.00134226 0)
(0.165265 0.00131194 0)
(0.164577 0.00128775 0)
(0.16359 0.00125842 0)
(0.162928 0.00123601 0)
(0.161921 0.00120758 0)
(0.161289 0.00118694 0)
(0.160261 0.0011593 0)
(0.159664 0.00114045 0)
(0.15861 0.00111354 0)
(0.158052 0.00109649 0)
(0.156969 0.00107026 0)
(0.156457 0.00105505 0)
(0.155339 0.00102948 0)
(0.154878 0.00101614 0)
(0.15372 0.000991282 0)
(0.153317 0.000979832 0)
(0.152112 0.00095583 0)
(0.151774 0.000946259 0)
(0.150513 0.000923396 0)
(0.150248 0.000915667 0)
(0.148924 0.000894471 0)
(0.148739 0.000888606 0)
(0.14734 0.000870163 0)
(0.147246 0.000866773 0)
(0.145763 0.000853218 0)
(0.195892 0.00625459 0)
(0.196136 0.00704881 0)
(0.196566 0.00778829 0)
(0.197195 0.00837713 0)
(0.197991 0.0087322 0)
(0.198854 0.00883185 0)
(0.199685 0.00871755 0)
(0.200399 0.00845543 0)
(0.200965 0.00810591 0)
(0.20137 0.00771528 0)
(0.201639 0.00731875 0)
(0.201785 0.00694266 0)
(0.201847 0.00660404 0)
(0.201845 0.00630852 0)
(0.201815 0.00605307 0)
(0.201764 0.00582994 0)
(0.201714 0.00563136 0)
(0.201656 0.00545065 0)
(0.201605 0.00528365 0)
(0.201543 0.00512721 0)
(0.201485 0.00497992 0)
(0.201411 0.00484027 0)
(0.20134 0.00470786 0)
(0.201251 0.00458165 0)
(0.201167 0.00446164 0)
(0.201062 0.0043469 0)
(0.200964 0.00423769 0)
(0.200844 0.00413308 0)
(0.200733 0.0040335 0)
(0.200597 0.00393793 0)
(0.200471 0.00384691 0)
(0.200318 0.0037593 0)
(0.200178 0.00367579 0)
(0.200007 0.0035951 0)
(0.199851 0.00351808 0)
(0.199661 0.00344335 0)
(0.199488 0.00337196 0)
(0.199277 0.00330238 0)
(0.199087 0.00323592 0)
(0.198855 0.00317086 0)
(0.198647 0.00310876 0)
(0.198391 0.00304768 0)
(0.198165 0.00298948 0)
(0.197885 0.00293196 0)
(0.19764 0.00287728 0)
(0.197335 0.00282295 0)
(0.197071 0.00277148 0)
(0.196741 0.00272001 0)
(0.196459 0.00267145 0)
(0.196103 0.00262255 0)
(0.195802 0.00257665 0)
(0.19542 0.00253007 0)
(0.195102 0.00248661 0)
(0.194692 0.00244209 0)
(0.194357 0.00240088 0)
(0.19392 0.00235821 0)
(0.19357 0.00231908 0)
(0.193106 0.00227806 0)
(0.192741 0.00224086 0)
(0.192249 0.0022013 0)
(0.191872 0.00216591 0)
(0.191352 0.00212767 0)
(0.190963 0.00209397 0)
(0.190415 0.0020569 0)
(0.190017 0.00202483 0)
(0.18944 0.00198878 0)
(0.189035 0.00195827 0)
(0.18843 0.00192314 0)
(0.188019 0.00189414 0)
(0.187385 0.00185981 0)
(0.186972 0.00183229 0)
(0.186308 0.00179867 0)
(0.185895 0.00177262 0)
(0.1852 0.0017396 0)
(0.184791 0.00171501 0)
(0.184064 0.00168253 0)
(0.183661 0.00165941 0)
(0.182902 0.0016274 0)
(0.182508 0.00160577 0)
(0.181715 0.00157417 0)
(0.181335 0.00155406 0)
(0.180505 0.00152283 0)
(0.180143 0.00150429 0)
(0.179275 0.00147342 0)
(0.178934 0.00145649 0)
(0.178026 0.001426 0)
(0.177711 0.00141074 0)
(0.17676 0.00138069 0)
(0.176475 0.00136715 0)
(0.175477 0.00133765 0)
(0.175228 0.00132591 0)
(0.174179 0.00129716 0)
(0.173971 0.00128727 0)
(0.172867 0.00125958 0)
(0.172704 0.00125167 0)
(0.171542 0.00122553 0)
(0.171429 0.00121988 0)
(0.170202 0.00119618 0)
(0.170145 0.00119351 0)
(0.168849 0.00117321 0)
(0.196542 0.00601158 0)
(0.196757 0.00664551 0)
(0.197104 0.00723352 0)
(0.197587 0.00772101 0)
(0.198194 0.00805214 0)
(0.198867 0.00819849 0)
(0.199545 0.00817103 0)
(0.200154 0.00800816 0)
(0.200662 0.00775637 0)
(0.201045 0.00745612 0)
(0.201318 0.00713907 0)
(0.201486 0.00682745 0)
(0.201582 0.00653658 0)
(0.201616 0.00627361 0)
(0.201622 0.00603984 0)
(0.201601 0.00583113 0)
(0.201582 0.00564276 0)
(0.201549 0.00546926 0)
(0.201527 0.00530769 0)
(0.201491 0.00515507 0)
(0.201466 0.00501084 0)
(0.201424 0.00487342 0)
(0.201393 0.00474315 0)
(0.201345 0.00461868 0)
(0.201309 0.00450063 0)
(0.201254 0.00438754 0)
(0.201215 0.00428029 0)
(0.201156 0.0041773 0)
(0.201115 0.00407968 0)
(0.201051 0.00398573 0)
(0.201009 0.00389678 0)
(0.200941 0.00381091 0)
(0.200898 0.00372968 0)
(0.200825 0.00365096 0)
(0.20078 0.00357656 0)
(0.200702 0.00350411 0)
(0.200655 0.00343572 0)
(0.20057 0.00336876 0)
(0.200521 0.00330571 0)
(0.200428 0.0032436 0)
(0.200376 0.0031853 0)
(0.200274 0.0031275 0)
(0.200218 0.00307348 0)
(0.200106 0.00301952 0)
(0.200045 0.00296936 0)
(0.199922 0.00291883 0)
(0.199857 0.00287217 0)
(0.199721 0.00282469 0)
(0.19965 0.00278121 0)
(0.1995 0.00273645 0)
(0.199423 0.00269583 0)
(0.199258 0.00265348 0)
(0.199176 0.00261547 0)
(0.198994 0.00257523 0)
(0.198905 0.00253958 0)
(0.198706 0.00250118 0)
(0.198611 0.00246769 0)
(0.198393 0.00243088 0)
(0.198291 0.00239934 0)
(0.198053 0.00236392 0)
(0.197945 0.00233417 0)
(0.197686 0.00229993 0)
(0.197572 0.00227182 0)
(0.197291 0.00223857 0)
(0.197172 0.00221199 0)
(0.196867 0.00217958 0)
(0.196742 0.00215442 0)
(0.196413 0.0021227 0)
(0.196284 0.00209888 0)
(0.195929 0.00206772 0)
(0.195797 0.00204518 0)
(0.195415 0.00201447 0)
(0.195281 0.00199316 0)
(0.19487 0.0019628 0)
(0.194735 0.00194268 0)
(0.194295 0.0019126 0)
(0.19416 0.00189366 0)
(0.193689 0.0018638 0)
(0.193557 0.00184602 0)
(0.193054 0.00181634 0)
(0.192924 0.00179973 0)
(0.192388 0.00177022 0)
(0.192264 0.0017548 0)
(0.191693 0.00172547 0)
(0.191576 0.00171127 0)
(0.190969 0.00168218 0)
(0.190861 0.00166925 0)
(0.190217 0.00164048 0)
(0.190119 0.00162888 0)
(0.189436 0.00160058 0)
(0.189351 0.00159041 0)
(0.188628 0.0015628 0)
(0.188557 0.00155418 0)
(0.187792 0.00152756 0)
(0.187737 0.00152072 0)
(0.186929 0.00149557 0)
(0.186892 0.00149093 0)
(0.186039 0.00146798 0)
(0.186021 0.00146615 0)
(0.185123 0.00144573 0)
(0.197088 0.00578626 0)
(0.197274 0.00629973 0)
(0.197558 0.00677598 0)
(0.197937 0.00718077 0)
(0.198407 0.00747875 0)
(0.198932 0.00764531 0)
(0.199477 0.00767791 0)
(0.199984 0.00759416 0)
(0.200427 0.00742501 0)
(0.200777 0.00720212 0)
(0.201041 0.00695354 0)
(0.201216 0.00669913 0)
(0.201331 0.00645328 0)
(0.201386 0.0062232 0)
(0.201416 0.00601264 0)
(0.201414 0.00581993 0)
(0.201411 0.00564309 0)
(0.201392 0.00547787 0)
(0.201381 0.00532264 0)
(0.201355 0.00517454 0)
(0.20134 0.0050338 0)
(0.201308 0.00489869 0)
(0.201288 0.00477029 0)
(0.20125 0.00464694 0)
(0.201227 0.00452992 0)
(0.201184 0.00441732 0)
(0.201159 0.00431061 0)
(0.201114 0.00420767 0)
(0.20109 0.00411025 0)
(0.201043 0.00401602 0)
(0.20102 0.00392703 0)
(0.200972 0.00384069 0)
(0.200951 0.00375933 0)
(0.200902 0.00368009 0)
(0.200885 0.00360561 0)
(0.200835 0.00353272 0)
(0.200819 0.0034644 0)
(0.200768 0.00339715 0)
(0.200755 0.00333437 0)
(0.200702 0.00327216 0)
(0.200691 0.00321437 0)
(0.200635 0.00315668 0)
(0.200627 0.00310342 0)
(0.200568 0.00304981 0)
(0.200561 0.00300067 0)
(0.200498 0.00295072 0)
(0.200493 0.00290533 0)
(0.200425 0.00285867 0)
(0.200422 0.00281671 0)
(0.200348 0.00277298 0)
(0.200346 0.00273413 0)
(0.200265 0.00269304 0)
(0.200264 0.00265701 0)
(0.200176 0.00261824 0)
(0.200175 0.00258479 0)
(0.200079 0.00254807 0)
(0.200079 0.00251696 0)
(0.199973 0.00248203 0)
(0.199973 0.00245305 0)
(0.199857 0.00241969 0)
(0.199857 0.00239263 0)
(0.19973 0.00236063 0)
(0.19973 0.00233535 0)
(0.199591 0.00230449 0)
(0.19959 0.00228083 0)
(0.199438 0.00225098 0)
(0.199437 0.00222878 0)
(0.199271 0.00219978 0)
(0.19927 0.00217895 0)
(0.199088 0.00215064 0)
(0.199087 0.00213109 0)
(0.198889 0.00210337 0)
(0.198887 0.00208499 0)
(0.198672 0.00205778 0)
(0.19867 0.00204051 0)
(0.198437 0.00201371 0)
(0.198436 0.00199749 0)
(0.198183 0.00197106 0)
(0.198182 0.00195584 0)
(0.19791 0.00192974 0)
(0.197909 0.00191551 0)
(0.197616 0.00188973 0)
(0.197615 0.00187646 0)
(0.197301 0.00185103 0)
(0.197301 0.00183872 0)
(0.196964 0.0018137 0)
(0.196964 0.00180239 0)
(0.196605 0.00177786 0)
(0.196606 0.00176761 0)
(0.196223 0.00174374 0)
(0.196225 0.00173462 0)
(0.195818 0.00171162 0)
(0.195821 0.00170381 0)
(0.195389 0.00168197 0)
(0.195392 0.00167574 0)
(0.194935 0.00165551 0)
(0.194938 0.00165129 0)
(0.194457 0.00163328 0)
(0.194459 0.00163152 0)
(0.193953 0.00161585 0)
(0.19756 0.00558641 0)
(0.19772 0.00601118 0)
(0.197951 0.00640532 0)
(0.19825 0.0067456 0)
(0.198618 0.00700951 0)
(0.199028 0.00717836 0)
(0.19946 0.00724594 0)
(0.199873 0.00721846 0)
(0.20025 0.00711446 0)
(0.200559 0.00695606 0)
(0.200805 0.00676621 0)
(0.200978 0.00656213 0)
(0.201101 0.00635751 0)
(0.20117 0.00615937 0)
(0.201215 0.0059727 0)
(0.201228 0.00579732 0)
(0.201237 0.00563335 0)
(0.201228 0.00547773 0)
(0.201225 0.00533003 0)
(0.201207 0.00518765 0)
(0.201198 0.00505143 0)
(0.201173 0.00491957 0)
(0.201159 0.00479367 0)
(0.201128 0.00467195 0)
(0.20111 0.00455616 0)
(0.201074 0.00444422 0)
(0.201054 0.00433798 0)
(0.201016 0.00423506 0)
(0.200996 0.00413758 0)
(0.200957 0.00404292 0)
(0.200939 0.00395348 0)
(0.200899 0.00386641 0)
(0.200883 0.00378439 0)
(0.200844 0.00370426 0)
(0.20083 0.00362902 0)
(0.200791 0.0035552 0)
(0.20078 0.00348614 0)
(0.200741 0.00341801 0)
(0.200734 0.00335454 0)
(0.200695 0.00329155 0)
(0.20069 0.00323316 0)
(0.200651 0.00317482 0)
(0.20065 0.00312107 0)
(0.20061 0.00306693 0)
(0.200612 0.00301742 0)
(0.20057 0.0029671 0)
(0.200575 0.00292147 0)
(0.200533 0.00287458 0)
(0.20054 0.00283249 0)
(0.200496 0.00278871 0)
(0.200507 0.00274983 0)
(0.20046 0.00270887 0)
(0.200473 0.00267292 0)
(0.200424 0.00263445 0)
(0.20044 0.0026012 0)
(0.200388 0.00256494 0)
(0.200405 0.00253413 0)
(0.20035 0.00249987 0)
(0.20037 0.00247125 0)
(0.20031 0.00243876 0)
(0.200332 0.00241215 0)
(0.200268 0.0023812 0)
(0.200292 0.00235644 0)
(0.200223 0.00232685 0)
(0.200248 0.00230375 0)
(0.200173 0.00227539 0)
(0.200201 0.00225378 0)
(0.20012 0.00222648 0)
(0.200148 0.00220628 0)
(0.200061 0.00217989 0)
(0.200091 0.00216096 0)
(0.199996 0.00213541 0)
(0.200027 0.00211763 0)
(0.199925 0.00209281 0)
(0.199956 0.00207612 0)
(0.199846 0.00205196 0)
(0.199878 0.00203626 0)
(0.199759 0.00201272 0)
(0.199791 0.00199795 0)
(0.199664 0.00197499 0)
(0.199695 0.00196114 0)
(0.199559 0.00193874 0)
(0.19959 0.00192576 0)
(0.199443 0.00190397 0)
(0.199473 0.00189185 0)
(0.199317 0.00187072 0)
(0.199345 0.00185949 0)
(0.199179 0.00183911 0)
(0.199205 0.00182884 0)
(0.199028 0.00180936 0)
(0.199052 0.00180014 0)
(0.198863 0.00178175 0)
(0.198884 0.00177377 0)
(0.198684 0.00175676 0)
(0.198701 0.0017503 0)
(0.19849 0.0017351 0)
(0.198503 0.00173058 0)
(0.19828 0.00171765 0)
(0.198287 0.0017154 0)
(0.198054 0.00170496 0)
(0.197991 0.00540331 0)
(0.198125 0.00575873 0)
(0.198311 0.00608861 0)
(0.198545 0.00637692 0)
(0.198829 0.00660904 0)
(0.199144 0.00677144 0)
(0.19948 0.00685807 0)
(0.199808 0.00686977 0)
(0.200117 0.00681669 0)
(0.20038 0.00671262 0)
(0.200599 0.00657456 0)
(0.200762 0.00641629 0)
(0.200884 0.00625021 0)
(0.200961 0.00608309 0)
(0.201015 0.00592057 0)
(0.201039 0.00576355 0)
(0.201057 0.00561356 0)
(0.201057 0.00546876 0)
(0.201059 0.00532961 0)
(0.201049 0.00519409 0)
(0.201044 0.00506331 0)
(0.201026 0.00493572 0)
(0.201016 0.00481303 0)
(0.200992 0.00469369 0)
(0.200977 0.00457957 0)
(0.200949 0.00446875 0)
(0.200932 0.00436316 0)
(0.200901 0.00426058 0)
(0.200883 0.00416309 0)
(0.200852 0.00406825 0)
(0.200834 0.00397835 0)
(0.200803 0.00389075 0)
(0.200787 0.00380796 0)
(0.200756 0.00372711 0)
(0.200742 0.00365095 0)
(0.200711 0.00357632 0)
(0.200699 0.00350627 0)
(0.200669 0.00343734 0)
(0.20066 0.00337288 0)
(0.200631 0.00330915 0)
(0.200624 0.00324979 0)
(0.200595 0.0031908 0)
(0.200591 0.00313612 0)
(0.200563 0.00308143 0)
(0.200561 0.00303104 0)
(0.200533 0.00298027 0)
(0.200533 0.0029338 0)
(0.200505 0.00288659 0)
(0.200508 0.0028437 0)
(0.20048 0.00279973 0)
(0.200485 0.00276009 0)
(0.200457 0.00271905 0)
(0.200464 0.00268239 0)
(0.200436 0.00264396 0)
(0.200445 0.00261003 0)
(0.200415 0.00257396 0)
(0.200426 0.00254247 0)
(0.200396 0.00250855 0)
(0.200409 0.00247927 0)
(0.200378 0.00244726 0)
(0.200393 0.00242002 0)
(0.20036 0.00238968 0)
(0.200377 0.0023643 0)
(0.200343 0.00233549 0)
(0.20036 0.00231175 0)
(0.200325 0.00228433 0)
(0.200344 0.00226209 0)
(0.200307 0.00223588 0)
(0.200327 0.00221504 0)
(0.200288 0.00218991 0)
(0.20031 0.00217032 0)
(0.200268 0.00214621 0)
(0.20029 0.00212775 0)
(0.200247 0.00210455 0)
(0.20027 0.00208716 0)
(0.200224 0.00206478 0)
(0.200247 0.00204837 0)
(0.200198 0.0020268 0)
(0.200222 0.0020113 0)
(0.20017 0.00199047 0)
(0.200193 0.00197587 0)
(0.200139 0.0019558 0)
(0.200162 0.00194205 0)
(0.200104 0.00192277 0)
(0.200126 0.00190989 0)
(0.200066 0.00189141 0)
(0.200086 0.00187946 0)
(0.200022 0.00186189 0)
(0.200041 0.00185092 0)
(0.199974 0.0018344 0)
(0.199991 0.00182455 0)
(0.199919 0.00180925 0)
(0.199934 0.00180073 0)
(0.199858 0.00178693 0)
(0.19987 0.00178002 0)
(0.19979 0.0017681 0)
(0.199799 0.00176319 0)
(0.199715 0.00175353 0)
(0.199719 0.00175094 0)
(0.199631 0.00174383 0)
(0.198388 0.00523867 0)
(0.198496 0.00553971 0)
(0.198641 0.00581923 0)
(0.198821 0.00606615 0)
(0.199036 0.00627068 0)
(0.199273 0.00642325 0)
(0.199528 0.006519 0)
(0.199781 0.00655664 0)
(0.200024 0.00654128 0)
(0.200239 0.00648073 0)
(0.200424 0.00638647 0)
(0.20057 0.00626859 0)
(0.200683 0.00613743 0)
(0.200761 0.0059993 0)
(0.200816 0.00585997 0)
(0.200848 0.00572126 0)
(0.20087 0.00558553 0)
(0.200878 0.00545206 0)
(0.200883 0.00532196 0)
(0.20088 0.00519391 0)
(0.200877 0.00506914 0)
(0.200867 0.0049465 0)
(0.200859 0.00482759 0)
(0.200843 0.00471125 0)
(0.200831 0.00459919 0)
(0.200811 0.00448996 0)
(0.200795 0.00438528 0)
(0.200773 0.00428339 0)
(0.200756 0.00418605 0)
(0.200732 0.00409131 0)
(0.200716 0.00400107 0)
(0.200692 0.0039132 0)
(0.200677 0.00382974 0)
(0.200653 0.00374838 0)
(0.200639 0.00367135 0)
(0.200616 0.0035961 0)
(0.200604 0.00352507 0)
(0.200582 0.00345549 0)
(0.200571 0.00339 0)
(0.20055 0.00332566 0)
(0.20054 0.00326527 0)
(0.20052 0.00320573 0)
(0.200513 0.00315003 0)
(0.200493 0.00309487 0)
(0.200487 0.0030435 0)
(0.200469 0.00299234 0)
(0.200465 0.00294491 0)
(0.200447 0.00289741 0)
(0.200444 0.00285358 0)
(0.200427 0.00280942 0)
(0.200425 0.00276886 0)
(0.200408 0.00272771 0)
(0.200408 0.00269017 0)
(0.200392 0.00265173 0)
(0.200393 0.00261693 0)
(0.200377 0.00258095 0)
(0.20038 0.0025486 0)
(0.200364 0.00251486 0)
(0.200368 0.00248474 0)
(0.200352 0.00245299 0)
(0.200357 0.00242492 0)
(0.200341 0.00239495 0)
(0.200347 0.00236872 0)
(0.200331 0.00234039 0)
(0.200337 0.00231579 0)
(0.200321 0.00228894 0)
(0.200329 0.00226585 0)
(0.200313 0.00224029 0)
(0.200321 0.0022186 0)
(0.200304 0.00219422 0)
(0.200313 0.00217376 0)
(0.200296 0.00215049 0)
(0.200305 0.00213117 0)
(0.200288 0.00210888 0)
(0.200298 0.00209064 0)
(0.20028 0.00206926 0)
(0.20029 0.00205199 0)
(0.200272 0.0020315 0)
(0.200282 0.00201517 0)
(0.200263 0.0019955 0)
(0.200273 0.00198008 0)
(0.200254 0.00196124 0)
(0.200264 0.00194671 0)
(0.200244 0.00192872 0)
(0.200253 0.00191511 0)
(0.200232 0.001898 0)
(0.200241 0.00188536 0)
(0.200219 0.00186923 0)
(0.200228 0.00185764 0)
(0.200205 0.00184262 0)
(0.200212 0.00183226 0)
(0.200188 0.0018185 0)
(0.200194 0.00180956 0)
(0.200169 0.00179736 0)
(0.200174 0.00179013 0)
(0.200147 0.00177981 0)
(0.20015 0.00177466 0)
(0.200122 0.00176656 0)
(0.200123 0.00176379 0)
(0.200093 0.00175826 0)
(0.198756 0.00509553 0)