/*--------------------------------*- C++ -*----------------------------------*\
| =========                 |                                                 |
| \\      /  F ield         | OpenFOAM: The Open Source CFD Toolbox           |
|  \\    /   O peration     | Version:  2.3.0                                 |
|   \\  /    A nd           | Web:      www.OpenFOAM.org                      |
|    \\/     M anipulation  |                                                 |
\*---------------------------------------------------------------------------*/
FoamFile
{
    version     2.0;
    format      ascii;
    class       volVectorField;
    location    "0.15";
    object      U_0;
}
// * * * * * * * * * * * * * * * * * * * * * * * * * * * * * * * * * * * * * //

dimensions      [0 1 -1 0 0 0 0];

internalField   nonuniform List<vector> 
2945
(
(0.160705 0.00658822 0)
(0.121101 0.00662665 0)
(0.0890651 0.00465899 0)
(0.066888 0.00243524 0)
(0.0525107 0.0010825 0)
(0.0437583 0.000331242 0)
(0.0385544 0.000105707 0)
(0.03511 9.03801e-05 0)
(0.0326432 5.90038e-05 0)
(0.0308601 5.20676e-05 0)
(0.0294134 7.29657e-05 0)
(0.0280931 7.18748e-05 0)
(0.0269204 6.18964e-05 0)
(0.0258885 5.74739e-05 0)
(0.0249555 5.32138e-05 0)
(0.0241275 4.45694e-05 0)
(0.0234143 3.68642e-05 0)
(0.0227883 3.41464e-05 0)
(0.0222135 3.32978e-05 0)
(0.0216975 2.84158e-05 0)
(0.0212616 2.14027e-05 0)
(0.0208849 2.11172e-05 0)
(0.0205535 1.79803e-05 0)
(0.0202853 1.16682e-05 0)
(0.0200607 1.31996e-05 0)
(0.0198583 1.22813e-05 0)
(0.0197123 5.32882e-06 0)
(0.0196293 3.13242e-06 0)
(0.0195877 3.18252e-06 0)
(0.0195955 -3.26736e-06 0)
(0.0196481 -6.16768e-06 0)
(0.0197188 -6.32356e-06 0)
(0.019796 -7.38414e-06 0)
(0.0198703 -5.89951e-06 0)
(0.0199284 -4.0994e-06 0)
(0.0199759 -4.00208e-06 0)
(0.0200163 -2.90275e-06 0)
(0.0200468 -1.84268e-06 0)
(0.020075 -2.32932e-06 0)
(0.0201055 -2.35751e-06 0)
(0.0201324 -1.67688e-06 0)
(0.0201556 -1.66348e-06 0)
(0.0201775 -1.55095e-06 0)
(0.020197 -1.19643e-06 0)
(0.0202149 -1.28096e-06 0)
(0.0202326 -1.27734e-06 0)
(0.0202479 -9.41828e-07 0)
(0.0202606 -8.31741e-07 0)
(0.0202724 -8.42478e-07 0)
(0.0202832 -6.86502e-07 0)
(0.0202921 -5.3893e-07 0)
(0.0202996 -4.76161e-07 0)
(0.0203061 -3.97283e-07 0)
(0.020312 -3.6585e-07 0)
(0.0203174 -3.49451e-07 0)
(0.0203222 -2.78685e-07 0)
(0.0203261 -2.20703e-07 0)
(0.0203296 -2.23727e-07 0)
(0.0203331 -2.15003e-07 0)
(0.0203361 -1.6805e-07 0)
(0.0203386 -1.31012e-07 0)
(0.0203407 -1.23306e-07 0)
(0.0203427 -1.16763e-07 0)
(0.0203444 -9.90072e-08 0)
(0.0203459 -7.82123e-08 0)
(0.0203472 -6.82396e-08 0)
(0.0203483 -6.0594e-08 0)
(0.0203493 -5.23406e-08 0)
(0.0203501 -4.09982e-08 0)
(0.0203508 -3.60671e-08 0)
(0.0203514 -2.77122e-08 0)
(0.0203519 -2.60995e-08 0)
(0.0203523 -1.60481e-08 0)
(0.0203526 -1.65015e-08 0)
(0.0203529 -1.02764e-08 0)
(0.191995 0.0123317 0)
(0.184597 0.0139005 0)
(0.17169 0.0123384 0)
(0.157075 0.00911085 0)
(0.142064 0.0063543 0)
(0.12861 0.0038236 0)
(0.117236 0.0024222 0)
(0.107712 0.00174746 0)
(0.1001 0.00119263 0)
(0.0940987 0.000883286 0)
(0.0892588 0.000775821 0)
(0.0851426 0.000671698 0)
(0.0815349 0.000577394 0)
(0.078354 0.000513159 0)
(0.0755224 0.000457353 0)
(0.0730112 0.000393396 0)
(0.0708051 0.000336428 0)
(0.0688543 0.00029954 0)
(0.0670987 0.000272203 0)
(0.065544 0.000234107 0)
(0.0641989 0.000191224 0)
(0.0630252 0.000171226 0)
(0.0620148 0.000143767 0)
(0.0611655 0.000108469 0)
(0.0604475 9.84112e-05 0)
(0.0598569 8.07734e-05 0)
(0.0594242 4.47556e-05 0)
(0.0591454 2.51973e-05 0)
(0.0589923 7.23565e-06 0)
(0.0589661 -1.65791e-05 0)
(0.0590294 -2.61831e-05 0)
(0.0591403 -2.93835e-05 0)
(0.0592654 -3.2048e-05 0)
(0.0593841 -2.60066e-05 0)
(0.0594826 -1.909e-05 0)
(0.0595643 -1.7757e-05 0)
(0.0596316 -1.35805e-05 0)
(0.0596884 -1.02437e-05 0)
(0.0597447 -1.17889e-05 0)
(0.0598025 -1.13845e-05 0)
(0.0598557 -8.89869e-06 0)
(0.0599039 -8.53684e-06 0)
(0.0599488 -7.88372e-06 0)
(0.0599901 -6.563e-06 0)
(0.0600291 -6.51971e-06 0)
(0.0600654 -6.14326e-06 0)
(0.0600967 -4.78659e-06 0)
(0.0601232 -4.21114e-06 0)
(0.0601473 -4.04396e-06 0)
(0.0601689 -3.37115e-06 0)
(0.0601871 -2.72497e-06 0)
(0.0602024 -2.38532e-06 0)
(0.0602159 -2.04645e-06 0)
(0.0602282 -1.8684e-06 0)
(0.0602394 -1.7192e-06 0)
(0.0602491 -1.40924e-06 0)
(0.0602573 -1.17138e-06 0)
(0.0602648 -1.13446e-06 0)
(0.0602719 -1.0521e-06 0)
(0.060278 -8.50444e-07 0)
(0.0602831 -6.9315e-07 0)
(0.0602877 -6.37813e-07 0)
(0.0602918 -5.8638e-07 0)
(0.0602955 -5.00195e-07 0)
(0.0602986 -4.07457e-07 0)
(0.0603013 -3.54617e-07 0)
(0.0603037 -3.10425e-07 0)
(0.0603057 -2.6666e-07 0)
(0.0603075 -2.14227e-07 0)
(0.0603089 -1.8528e-07 0)
(0.0603101 -1.4512e-07 0)
(0.0603112 -1.30557e-07 0)
(0.060312 -8.6611e-08 0)
(0.0603126 -8.60195e-08 0)
(0.0603133 -4.88577e-08 0)
(0.191806 0.0108721 0)
(0.194304 0.0139817 0)
(0.194973 0.0135638 0)
(0.192399 0.0120365 0)
(0.186537 0.0100212 0)
(0.178969 0.00731912 0)
(0.170857 0.00579695 0)
(0.162708 0.00485478 0)
(0.155145 0.00372216 0)
(0.148302 0.00292104 0)
(0.142266 0.00249595 0)
(0.136905 0.00214049 0)
(0.132 0.00185081 0)
(0.127491 0.00163199 0)
(0.123367 0.00144164 0)
(0.119625 0.00125125 0)
(0.116259 0.00108392 0)
(0.113234 0.000959012 0)
(0.110485 0.000856905 0)
(0.108013 0.000741813 0)
(0.105835 0.000623722 0)
(0.103914 0.00054904 0)
(0.102239 0.000463652 0)
(0.100788 0.000369164 0)
(0.0995353 0.000319361 0)
(0.0984957 0.000255371 0)
(0.097683 0.000161632 0)
(0.0970882 0.000100565 0)
(0.0966925 4.96585e-05 0)
(0.0964654 -1.32139e-05 0)
(0.0963816 -4.95028e-05 0)
(0.096392 -5.58843e-05 0)
(0.0964437 -6.20529e-05 0)
(0.0965102 -5.25379e-05 0)
(0.0965737 -3.9945e-05 0)
(0.0966298 -3.6432e-05 0)
(0.096677 -2.88328e-05 0)
(0.0967202 -2.2957e-05 0)
(0.0967677 -2.62616e-05 0)
(0.0968199 -2.56209e-05 0)
(0.0968723 -2.11206e-05 0)
(0.0969231 -2.02358e-05 0)
(0.0969723 -1.87143e-05 0)
(0.0970202 -1.62422e-05 0)
(0.0970671 -1.58164e-05 0)
(0.0971114 -1.44516e-05 0)
(0.0971502 -1.15292e-05 0)
(0.0971833 -1.01235e-05 0)
(0.0972124 -9.45352e-06 0)
(0.0972384 -7.95705e-06 0)
(0.0972605 -6.52829e-06 0)
(0.097279 -5.6746e-06 0)
(0.0972952 -4.91868e-06 0)
(0.0973099 -4.47989e-06 0)
(0.0973233 -4.05681e-06 0)
(0.0973349 -3.36539e-06 0)
(0.0973449 -2.85494e-06 0)
(0.097354 -2.71119e-06 0)
(0.0973624 -2.47462e-06 0)
(0.0973698 -2.03391e-06 0)
(0.097376 -1.69024e-06 0)
(0.0973814 -1.53927e-06 0)
(0.0973864 -1.3974e-06 0)
(0.0973909 -1.19724e-06 0)
(0.0973947 -9.89584e-07 0)
(0.097398 -8.59955e-07 0)
(0.0974008 -7.48923e-07 0)
(0.0974033 -6.42288e-07 0)
(0.0974054 -5.22524e-07 0)
(0.0974072 -4.4858e-07 0)
(0.0974087 -3.55944e-07 0)
(0.09741 -3.12619e-07 0)
(0.097411 -2.13659e-07 0)
(0.0974118 -2.09188e-07 0)
(0.0974125 -1.169e-07 0)
(0.1924 0.00937842 0)
(0.194682 0.0120474 0)
(0.197345 0.0131705 0)
(0.200474 0.0113291 0)
(0.200368 0.0105251 0)
(0.198324 0.00869282 0)
(0.195273 0.00728831 0)
(0.191333 0.00664399 0)
(0.186847 0.00567405 0)
(0.182194 0.00482058 0)
(0.177769 0.00420473 0)
(0.173597 0.00366303 0)
(0.169521 0.00326444 0)
(0.165506 0.0029638 0)
(0.161586 0.00268115 0)
(0.157826 0.00237656 0)
(0.154306 0.00209565 0)
(0.151051 0.00187868 0)
(0.147998 0.00169371 0)
(0.145141 0.00148407 0)
(0.142542 0.00126748 0)
(0.140213 0.00112073 0)
(0.138144 0.000962448 0)
(0.136293 0.000792109 0)
(0.134638 0.000686623 0)
(0.133207 0.000557863 0)
(0.132017 0.000388786 0)
(0.131063 0.000269567 0)
(0.130338 0.000163852 0)
(0.129812 5.33359e-05 0)
(0.129448 -1.07007e-05 0)
(0.129214 -4.42392e-05 0)
(0.129072 -6.61094e-05 0)
(0.128987 -5.83816e-05 0)
(0.128931 -4.58288e-05 0)
(0.128891 -4.42363e-05 0)
(0.128863 -3.45442e-05 0)
(0.128845 -3.00423e-05 0)
(0.128842 -3.47931e-05 0)
(0.128853 -3.58445e-05 0)
(0.128872 -3.12381e-05 0)
(0.128897 -3.0874e-05 0)
(0.128927 -2.94627e-05 0)
(0.128961 -2.62926e-05 0)
(0.129001 -2.62494e-05 0)
(0.129042 -2.41454e-05 0)
(0.129081 -1.93263e-05 0)
(0.129115 -1.68453e-05 0)
(0.129145 -1.55392e-05 0)
(0.129171 -1.30676e-05 0)
(0.129192 -1.07786e-05 0)
(0.12921 -9.33882e-06 0)
(0.129225 -8.0803e-06 0)
(0.129239 -7.3494e-06 0)
(0.129252 -6.63769e-06 0)
(0.129263 -5.53006e-06 0)
(0.129273 -4.70939e-06 0)
(0.129281 -4.44256e-06 0)
(0.129289 -4.04089e-06 0)
(0.129296 -3.34566e-06 0)
(0.129302 -2.79564e-06 0)
(0.129307 -2.53384e-06 0)
(0.129312 -2.29373e-06 0)
(0.129316 -1.97181e-06 0)
(0.12932 -1.63979e-06 0)
(0.129323 -1.42352e-06 0)
(0.129326 -1.23799e-06 0)
(0.129328 -1.06283e-06 0)
(0.12933 -8.69045e-07 0)
(0.129332 -7.44024e-07 0)
(0.129333 -5.92499e-07 0)
(0.129335 -5.20428e-07 0)
(0.129335 -3.58155e-07 0)
(0.129336 -3.46406e-07 0)
(0.129337 -1.90387e-07 0)
(0.193348 0.00909987 0)
(0.195127 0.0110746 0)
(0.197527 0.0126775 0)
(0.200469 0.0109104 0)
(0.201956 0.0115332 0)
(0.202371 0.00803668 0)
(0.202218 0.00772046 0)
(0.201394 0.00726899 0)
(0.199662 0.00622323 0)
(0.197409 0.00558789 0)
(0.195188 0.00517723 0)
(0.193047 0.00465287 0)
(0.190813 0.00425791 0)
(0.188414 0.0039707 0)
(0.185841 0.00369437 0)
(0.183141 0.00336091 0)
(0.180458 0.00301595 0)
(0.177902 0.00274458 0)
(0.175423 0.00252773 0)
(0.172963 0.00226978 0)
(0.17059 0.00197103 0)
(0.1684 0.00175734 0)
(0.166421 0.00153432 0)
(0.164608 0.00129699 0)
(0.162928 0.0011473 0)
(0.161391 0.000960716 0)
(0.160021 0.00071527 0)
(0.158848 0.000536245 0)
(0.157882 0.000375472 0)
(0.157098 0.000205024 0)
(0.156467 0.000100929 0)
(0.15597 3.80709e-05 0)
(0.155589 -1.19089e-05 0)
(0.155302 -1.9273e-05 0)
(0.155077 -1.46831e-05 0)
(0.154892 -2.30371e-05 0)
(0.154743 -1.82018e-05 0)
(0.154626 -1.56263e-05 0)
(0.154537 -2.94975e-05 0)
(0.154475 -3.39642e-05 0)
(0.154435 -3.03162e-05 0)
(0.154408 -3.32371e-05 0)
(0.154392 -3.37341e-05 0)
(0.154391 -3.22409e-05 0)
(0.154401 -3.35428e-05 0)
(0.154423 -3.28587e-05 0)
(0.154453 -2.71052e-05 0)
(0.154482 -2.34682e-05 0)
(0.154507 -2.13526e-05 0)
(0.154529 -1.78277e-05 0)
(0.154547 -1.45739e-05 0)
(0.154561 -1.25687e-05 0)
(0.154573 -1.08187e-05 0)
(0.154583 -9.83066e-06 0)
(0.154592 -8.91335e-06 0)
(0.1546 -7.44344e-06 0)
(0.154608 -6.3161e-06 0)
(0.154614 -5.94514e-06 0)
(0.15462 -5.42748e-06 0)
(0.154625 -4.50658e-06 0)
(0.15463 -3.75838e-06 0)
(0.154634 -3.39647e-06 0)
(0.154637 -3.0826e-06 0)
(0.15464 -2.66004e-06 0)
(0.154643 -2.21228e-06 0)
(0.154646 -1.9205e-06 0)
(0.154648 -1.67082e-06 0)
(0.154649 -1.43669e-06 0)
(0.154651 -1.17528e-06 0)
(0.154652 -1.00773e-06 0)
(0.154653 -7.97123e-07 0)
(0.154654 -6.9891e-07 0)
(0.154655 -4.80803e-07 0)
(0.154656 -4.97503e-07 0)
(0.154656 -2.37754e-07 0)
(0.194031 0.00866681 0)
(0.195586 0.0106893 0)
(0.197705 0.0114223 0)
(0.200247 0.0107053 0)
(0.201815 0.0105997 0)
(0.20233 0.00834754 0)
(0.203089 0.0075467 0)
(0.203466 0.00739136 0)
(0.202926 0.00678992 0)
(0.202084 0.00598585 0)
(0.201317 0.00548704 0)
(0.200592 0.00498521 0)
(0.199808 0.00465795 0)
(0.19889 0.00444585 0)
(0.19775 0.00424132 0)
(0.196335 0.0039563 0)
(0.194781 0.0036229 0)
(0.193267 0.00333511 0)
(0.191779 0.00311598 0)
(0.190192 0.00287246 0)
(0.188515 0.00254818 0)
(0.186889 0.00229961 0)
(0.185382 0.00203008 0)
(0.183984 0.00174076 0)
(0.182672 0.00157414 0)
(0.181398 0.0013634 0)
(0.180158 0.00106705 0)
(0.179019 0.000843789 0)
(0.178022 0.000637046 0)
(0.177158 0.00041639 0)
(0.17641 0.000277445 0)
(0.175765 0.000182548 0)
(0.175222 9.79808e-05 0)
(0.174785 6.9053e-05 0)
(0.174429 5.92611e-05 0)
(0.17412 3.52969e-05 0)
(0.173858 3.0003e-05 0)
(0.173641 2.34775e-05 0)
(0.173459 -3.70019e-07 0)
(0.173316 -1.25485e-05 0)
(0.173208 -1.40175e-05 0)
(0.173123 -2.15729e-05 0)
(0.173054 -2.58995e-05 0)
(0.173 -2.73783e-05 0)
(0.172961 -3.31512e-05 0)
(0.172949 -3.56906e-05 0)
(0.172955 -3.24296e-05 0)
(0.17297 -2.92272e-05 0)
(0.172986 -2.63424e-05 0)
(0.173002 -2.17234e-05 0)
(0.173013 -1.76502e-05 0)
(0.173021 -1.46429e-05 0)
(0.173027 -1.24082e-05 0)
(0.173031 -1.12594e-05 0)
(0.173035 -1.02982e-05 0)
(0.173039 -8.69888e-06 0)
(0.173042 -7.35565e-06 0)
(0.173045 -6.88448e-06 0)
(0.173047 -6.32459e-06 0)
(0.17305 -5.3077e-06 0)
(0.173052 -4.3841e-06 0)
(0.173054 -3.93136e-06 0)
(0.173056 -3.57906e-06 0)
(0.173057 -3.12721e-06 0)
(0.173059 -2.59118e-06 0)
(0.17306 -2.23974e-06 0)
(0.173061 -1.94867e-06 0)
(0.173061 -1.68763e-06 0)
(0.173062 -1.37154e-06 0)
(0.173063 -1.17917e-06 0)
(0.173063 -9.29523e-07 0)
(0.173064 -8.23917e-07 0)
(0.173064 -5.389e-07 0)
(0.173064 -4.92728e-07 0)
(0.173064 -2.93215e-07 0)
(0.194571 0.00798062 0)
(0.195891 0.0100306 0)
(0.197809 0.0104381 0)
(0.200122 0.0105894 0)
(0.201529 0.0101032 0)
(0.202032 0.00803178 0)
(0.203053 0.00721822 0)
(0.203463 0.0074876 0)
(0.203107 0.00653075 0)
(0.202884 0.00635403 0)
(0.202819 0.005508 0)
(0.202693 0.00505719 0)
(0.202563 0.00474134 0)
(0.202413 0.00458275 0)
(0.202135 0.00446549 0)
(0.2016 0.00422275 0)
(0.200895 0.00389664 0)
(0.200204 0.00362808 0)
(0.19956 0.00342207 0)
(0.198803 0.00321479 0)
(0.197872 0.00290126 0)
(0.196907 0.0026573 0)
(0.195972 0.00237098 0)
(0.195094 0.00203968 0)
(0.194298 0.00187062 0)
(0.193481 0.00166812 0)
(0.192587 0.001358 0)
(0.191693 0.00111929 0)
(0.190855 0.000886156 0)
(0.190086 0.000629045 0)
(0.189397 0.000468539 0)
(0.188765 0.000352841 0)
(0.188194 0.000236292 0)
(0.187718 0.000184801 0)
(0.187322 0.000159434 0)
(0.186968 0.000118083 0)
(0.186658 0.00010117 0)
(0.186389 8.59026e-05 0)
(0.18615 4.94534e-05 0)
(0.18595 2.64195e-05 0)
(0.185793 1.77429e-05 0)
(0.185664 3.37476e-06 0)
(0.185553 -4.7915e-06 0)
(0.185455 -9.20567e-06 0)
(0.185374 -2.31314e-05 0)
(0.185317 -3.21924e-05 0)
(0.185287 -3.02719e-05 0)
(0.18528 -2.95389e-05 0)
(0.185282 -2.87496e-05 0)
(0.185288 -2.40816e-05 0)
(0.185292 -1.83293e-05 0)
(0.185293 -1.57876e-05 0)
(0.185291 -1.29355e-05 0)
(0.185288 -1.15259e-05 0)
(0.185286 -1.05605e-05 0)
(0.185283 -8.81906e-06 0)
(0.185282 -7.46413e-06 0)
(0.18528 -7.12483e-06 0)
(0.185279 -6.57233e-06 0)
(0.185279 -5.4202e-06 0)
(0.185278 -4.50159e-06 0)
(0.185277 -4.05602e-06 0)
(0.185277 -3.71584e-06 0)
(0.185276 -3.21297e-06 0)
(0.185276 -2.66913e-06 0)
(0.185276 -2.31216e-06 0)
(0.185275 -2.01978e-06 0)
(0.185275 -1.72926e-06 0)
(0.185275 -1.41766e-06 0)
(0.185274 -1.19176e-06 0)
(0.185274 -9.6012e-07 0)
(0.185274 -7.90564e-07 0)
(0.185274 -5.6927e-07 0)
(0.185273 -5.1551e-07 0)
(0.185273 -2.38156e-07 0)
(0.195111 0.00752315 0)
(0.196179 0.0094905 0)
(0.197855 0.00929009 0)
(0.199937 0.0104962 0)
(0.201372 0.00914213 0)
(0.201853 0.00811691 0)
(0.202844 0.00723286 0)
(0.203138 0.0070096 0)
(0.202895 0.00658251 0)
(0.202939 0.00620146 0)
(0.203069 0.00581582 0)
(0.20308 0.00495807 0)
(0.203102 0.00470684 0)
(0.203212 0.00454264 0)
(0.203252 0.00449186 0)
(0.2031 0.00434133 0)
(0.202841 0.00403933 0)
(0.202614 0.00370833 0)
(0.202442 0.00351324 0)
(0.202183 0.00336235 0)
(0.201759 0.00307244 0)
(0.201302 0.00284292 0)
(0.200823 0.00255761 0)
(0.20035 0.00219839 0)
(0.199969 0.00203196 0)
(0.199562 0.00185021 0)
(0.199033 0.00154966 0)
(0.198449 0.00132154 0)
(0.197847 0.00108288 0)
(0.197257 0.000803422 0)
(0.196717 0.000633871 0)
(0.196201 0.00050921 0)
(0.195705 0.000368784 0)
(0.195281 0.000299054 0)
(0.194925 0.00026055 0)
(0.1946 0.000203649 0)
(0.194312 0.000177246 0)
(0.194056 0.000155957 0)
(0.193812 0.000109078 0)
(0.193598 7.5494e-05 0)
(0.193424 5.81055e-05 0)
(0.193278 3.70236e-05 0)
(0.193149 2.43343e-05 0)
(0.193032 1.61089e-05 0)
(0.192924 -9.03391e-07 0)
(0.192835 -1.54866e-05 0)
(0.192775 -2.24921e-05 0)
(0.192742 -2.78491e-05 0)
(0.192726 -2.86655e-05 0)
(0.19272 -2.3278e-05 0)
(0.192716 -1.85135e-05 0)
(0.192709 -1.45548e-05 0)
(0.1927 -1.14679e-05 0)
(0.192691 -1.00302e-05 0)
(0.192681 -9.28147e-06 0)
(0.192673 -7.81554e-06 0)
(0.192667 -6.59178e-06 0)
(0.192661 -6.39222e-06 0)
(0.192656 -6.00131e-06 0)
(0.192652 -5.00069e-06 0)
(0.192649 -4.057e-06 0)
(0.192646 -3.63678e-06 0)
(0.192643 -3.36472e-06 0)
(0.192641 -2.96382e-06 0)
(0.192639 -2.42937e-06 0)
(0.192637 -2.08917e-06 0)
(0.192635 -1.82572e-06 0)
(0.192634 -1.58165e-06 0)
(0.192632 -1.26782e-06 0)
(0.192631 -1.06977e-06 0)
(0.19263 -8.3189e-07 0)
(0.19263 -7.03184e-07 0)
(0.192629 -4.4657e-07 0)
(0.192628 -4.07093e-07 0)
(0.192627 -1.4197e-07 0)
(0.195626 0.00702071 0)
(0.196525 0.00925024 0)
(0.197943 0.00840924 0)
(0.199761 0.00981901 0)
(0.201194 0.00943335 0)
(0.201771 0.00749335 0)
(0.202396 0.0071674 0)
(0.202808 0.0074837 0)
(0.202809 0.00636202 0)
(0.202932 0.0059915 0)
(0.203076 0.00557754 0)
(0.203076 0.00507659 0)
(0.203124 0.00467463 0)
(0.203278 0.00452076 0)
(0.203369 0.004505 0)
(0.203305 0.00435926 0)
(0.203219 0.00400121 0)
(0.203202 0.00375473 0)
(0.20323 0.00355346 0)
(0.203163 0.00342299 0)
(0.202975 0.00314887 0)
(0.202818 0.00293912 0)
(0.202618 0.0026373 0)
(0.202374 0.00225671 0)
(0.202219 0.00210211 0)
(0.20205 0.00194543 0)
(0.201775 0.00165995 0)
(0.201444 0.00145409 0)
(0.201053 0.00122301 0)
(0.200628 0.000931042 0)
(0.200237 0.000760061 0)
(0.199853 0.00063425 0)
(0.199463 0.00047702 0)
(0.199126 0.000394965 0)
(0.198841 0.000347487 0)
(0.198575 0.00027669 0)
(0.198345 0.000242732 0)
(0.198138 0.000219186 0)
(0.197929 0.000166258 0)
(0.197734 0.000124815 0)
(0.19757 0.000100141 0)
(0.197429 7.17194e-05 0)
(0.197304 5.52418e-05 0)
(0.19719 4.67199e-05 0)
(0.197077 2.58997e-05 0)
(0.196976 4.50059e-06 0)
(0.196898 -8.13392e-06 0)
(0.196846 -1.88133e-05 0)
(0.196814 -2.41929e-05 0)
(0.196796 -2.10296e-05 0)
(0.196783 -1.59218e-05 0)
(0.196769 -1.20113e-05 0)
(0.196754 -8.6332e-06 0)
(0.196739 -7.14486e-06 0)
(0.196725 -6.71514e-06 0)
(0.196712 -5.60595e-06 0)
(0.196701 -4.68311e-06 0)
(0.196691 -4.8244e-06 0)
(0.196683 -4.73067e-06 0)
(0.196677 -3.90382e-06 0)
(0.196671 -3.06531e-06 0)
(0.196666 -2.75467e-06 0)
(0.196661 -2.62188e-06 0)
(0.196657 -2.33936e-06 0)
(0.196654 -1.87063e-06 0)
(0.196651 -1.59897e-06 0)
(0.196648 -1.40742e-06 0)
(0.196646 -1.2233e-06 0)
(0.196644 -9.5073e-07 0)
(0.196642 -7.90857e-07 0)
(0.19664 -5.89512e-07 0)
(0.196639 -4.796e-07 0)
(0.196638 -2.53888e-07 0)
(0.196637 -2.17016e-07 0)
(0.196635 2.01374e-08 0)
(0.196113 0.00666922 0)
(0.196906 0.00896738 0)
(0.198114 0.00759278 0)
(0.199584 0.00957789 0)
(0.200946 0.00913414 0)
(0.20161 0.0072765 0)
(0.202056 0.00717803 0)
(0.202587 0.00689979 0)
(0.202807 0.00639698 0)
(0.202884 0.00605964 0)
(0.202974 0.00567458 0)
(0.202995 0.00502182 0)
(0.203063 0.00466305 0)
(0.203221 0.00447777 0)
(0.203289 0.00448911 0)
(0.203257 0.00434569 0)
(0.203218 0.00403741 0)
(0.203241 0.00374131 0)
(0.203325 0.00351588 0)
(0.203291 0.00349912 0)
(0.203213 0.00312759 0)
(0.20321 0.00292707 0)
(0.203119 0.00270076 0)
(0.202984 0.00229933 0)
(0.202918 0.00211799 0)
(0.202833 0.00198333 0)
(0.202685 0.0017103 0)
(0.202513 0.00153389 0)
(0.202256 0.00132008 0)
(0.201943 0.0010228 0)
(0.201658 0.000854722 0)
(0.201371 0.000730679 0)
(0.201067 0.000559963 0)
(0.200808 0.000470903 0)
(0.200584 0.000418021 0)
(0.200372 0.000333762 0)
(0.200195 0.000293232 0)
(0.200042 0.000269881 0)
(0.199877 0.000214537 0)
(0.199714 0.000168768 0)
(0.199571 0.000138807 0)
(0.199443 0.000104212 0)
(0.199332 8.45602e-05 0)
(0.199231 7.52531e-05 0)
(0.199129 5.26686e-05 0)
(0.19903 2.76764e-05 0)
(0.198949 1.02036e-05 0)
(0.198887 -6.58688e-06 0)
(0.198844 -1.6889e-05 0)
(0.198817 -1.58717e-05 0)
(0.198797 -1.1708e-05 0)
(0.198777 -8.02252e-06 0)
(0.198758 -4.50901e-06 0)
(0.198739 -3.06714e-06 0)
(0.19872 -3.02916e-06 0)
(0.198704 -2.41607e-06 0)
(0.19869 -1.9497e-06 0)
(0.198678 -2.5501e-06 0)
(0.198668 -2.8408e-06 0)
(0.198659 -2.29926e-06 0)
(0.198652 -1.64126e-06 0)
(0.198645 -1.48989e-06 0)
(0.198639 -1.53948e-06 0)
(0.198634 -1.42702e-06 0)
(0.19863 -1.06497e-06 0)
(0.198626 -8.92122e-07 0)
(0.198622 -7.99295e-07 0)
(0.198619 -7.03789e-07 0)
(0.198617 -4.94649e-07 0)
(0.198615 -3.91364e-07 0)
(0.198613 -2.43302e-07 0)
(0.198611 -1.68765e-07 0)
(0.198609 1.10052e-08 0)
(0.198608 4.0497e-08 0)
(0.198606 2.35746e-07 0)
(0.196515 0.00629754 0)
(0.197282 0.00871321 0)
(0.198309 0.00704404 0)
(0.199419 0.0091459 0)
(0.200694 0.0087085 0)
(0.201443 0.00708471 0)
(0.201831 0.00713493 0)
(0.202483 0.00678095 0)
(0.202754 0.00627606 0)
(0.202737 0.00598873 0)
(0.202867 0.00565305 0)
(0.202941 0.00496701 0)
(0.202978 0.00460964 0)
(0.203127 0.00441861 0)
(0.203182 0.00449652 0)
(0.203152 0.00438782 0)
(0.203132 0.00403619 0)
(0.203177 0.0037256 0)
(0.203269 0.0035126 0)
(0.203251 0.00345207 0)
(0.203232 0.00313446 0)
(0.203219 0.00299192 0)
(0.203148 0.00282382 0)
(0.203109 0.00223027 0)
(0.203073 0.00213679 0)
(0.202975 0.00202108 0)
(0.202868 0.00174323 0)
(0.202778 0.0015931 0)
(0.20259 0.00139487 0)
(0.20234 0.0010943 0)
(0.20212 0.000931379 0)
(0.201892 0.000808938 0)
(0.201642 0.00062566 0)
(0.201433 0.000533784 0)
(0.201248 0.000477893 0)
(0.201066 0.000379478 0)
(0.200927 0.000331995 0)
(0.200814 0.000309583 0)
(0.200683 0.000254019 0)
(0.200547 0.000206809 0)
(0.200421 0.000173865 0)
(0.200304 0.000133787 0)
(0.200206 0.00011023 0)
(0.20012 0.000100416 0)
(0.200032 7.73932e-05 0)
(0.199944 5.01365e-05 0)
(0.199867 2.89538e-05 0)
(0.199804 7.28928e-06 0)
(0.199755 -7.35728e-06 0)
(0.199722 -8.79022e-06 0)
(0.199696 -5.97134e-06 0)
(0.199672 -2.86777e-06 0)
(0.19965 5.57425e-07 0)
(0.199628 1.85512e-06 0)
(0.199608 1.42881e-06 0)
(0.19959 1.45907e-06 0)
(0.199574 1.38364e-06 0)
(0.19956 2.45694e-07 0)
(0.199548 -5.10293e-07 0)
(0.199539 -3.29181e-07 0)
(0.19953 9.93166e-08 0)
(0.199522 5.53851e-08 0)
(0.199516 -2.16985e-07 0)
(0.19951 -3.13461e-07 0)
(0.199505 -8.20569e-08 0)
(0.199501 -2.90692e-08 0)
(0.199497 -5.74404e-08 0)
(0.199493 -7.07333e-08 0)
(0.19949 6.09554e-08 0)
(0.199488 9.31189e-08 0)
(0.199485 1.76228e-07 0)
(0.199484 2.03761e-07 0)
(0.199482 3.31523e-07 0)
(0.19948 3.45982e-07 0)
(0.199478 4.90406e-07 0)
(0.196837 0.0060378 0)
(0.197604 0.00837726 0)
(0.198492 0.00659974 0)
(0.199316 0.00865906 0)
(0.200502 0.00844823 0)
(0.201345 0.00687029 0)
(0.201659 0.00702142 0)
(0.202296 0.00667823 0)
(0.202653 0.00618297 0)
(0.202617 0.00579592 0)
(0.202751 0.00588148 0)
(0.202901 0.00483049 0)
(0.202909 0.00451394 0)
(0.203014 0.00440629 0)
(0.203066 0.00449504 0)
(0.203024 0.00433898 0)
(0.203018 0.0040613 0)
(0.203091 0.00368843 0)
(0.203202 0.00346787 0)
(0.203196 0.00346356 0)
(0.203174 0.00315366 0)
(0.203126 0.00305134 0)
(0.203085 0.00262597 0)
(0.203108 0.00236877 0)
(0.203066 0.00219334 0)
(0.202936 0.00205116 0)
(0.202835 0.00175823 0)
(0.202777 0.00163885 0)
(0.202616 0.00145444 0)
(0.202403 0.00115266 0)
(0.202224 0.000999406 0)
(0.202026 0.000877622 0)
(0.201805 0.000681528 0)
(0.201625 0.000590228 0)
(0.201456 0.000532762 0)
(0.201288 0.000418576 0)
(0.201171 0.000363476 0)
(0.201082 0.000342274 0)
(0.200971 0.000287768 0)
(0.200851 0.000241332 0)
(0.200735 0.000206924 0)
(0.200622 0.000161367 0)
(0.200531 0.00013335 0)
(0.200458 0.000122653 0)
(0.200383 9.9148e-05 0)
(0.200307 7.0599e-05 0)
(0.200237 4.72426e-05 0)
(0.200175 2.19383e-05 0)
(0.200124 3.55617e-06 0)
(0.200087 -2.69094e-07 0)
(0.200057 9.49211e-07 0)
(0.200031 3.1297e-06 0)
(0.200007 6.26125e-06 0)
(0.199984 7.30891e-06 0)
(0.199962 6.36255e-06 0)
(0.199943 5.76926e-06 0)
(0.199926 5.10667e-06 0)
(0.199912 3.38156e-06 0)
(0.199899 2.11199e-06 0)
(0.199889 1.88677e-06 0)
(0.19988 2.05259e-06 0)
(0.199872 1.78899e-06 0)
(0.199865 1.26302e-06 0)
(0.199859 9.31089e-07 0)
(0.199853 1.01777e-06 0)
(0.199849 9.36473e-07 0)
(0.199844 7.71135e-07 0)
(0.199841 6.36328e-07 0)
(0.199838 6.81566e-07 0)
(0.199835 6.33275e-07 0)
(0.199833 6.43949e-07 0)
(0.199831 6.17068e-07 0)
(0.199829 6.89237e-07 0)
(0.199827 6.82193e-07 0)
(0.199825 7.72182e-07 0)
(0.197152 0.005807 0)
(0.197868 0.00794183 0)
(0.198636 0.00647171 0)
(0.199278 0.00810806 0)
(0.200381 0.00819921 0)
(0.201286 0.00667848 0)
(0.201504 0.00678935 0)
(0.202031 0.00657944 0)
(0.202548 0.00604576 0)
(0.202529 0.00578833 0)
(0.202639 0.00568819 0)
(0.202858 0.00482129 0)
(0.202855 0.00455711 0)
(0.202889 0.00442636 0)
(0.202925 0.00448834 0)
(0.202887 0.0043491 0)
(0.2029 0.0040409 0)
(0.203029 0.00366188 0)
(0.203135 0.00343052 0)
(0.203104 0.00366852 0)
(0.203093 0.00304581 0)
(0.203052 0.00303756 0)
(0.20302 0.00264417 0)
(0.203045 0.0023527 0)
(0.202998 0.00220659 0)
(0.202851 0.00206756 0)
(0.202757 0.00177711 0)
(0.202712 0.0016831 0)
(0.20256 0.00150732 0)
(0.202371 0.00120476 0)
(0.202217 0.00106071 0)
(0.20203 0.000940673 0)
(0.201823 0.000732082 0)
(0.201662 0.000645848 0)
(0.201502 0.000587813 0)
(0.201338 0.000455423 0)
(0.201234 0.000391953 0)
(0.201157 0.000371908 0)
(0.201056 0.000318918 0)
(0.200944 0.000274871 0)
(0.20083 0.000240134 0)
(0.200717 0.000188917 0)
(0.200629 0.000155241 0)
(0.200564 0.000142457 0)
(0.200501 0.000118197 0)
(0.200435 8.92084e-05 0)
(0.200372 6.48301e-05 0)
(0.200311 3.68259e-05 0)
(0.200259 1.53642e-05 0)
(0.20022 9.33879e-06 0)
(0.200187 8.75584e-06 0)
(0.200159 9.72493e-06 0)
(0.200134 1.23781e-05 0)
(0.200111 1.30773e-05 0)
(0.200089 1.15681e-05 0)
(0.20007 1.03334e-05 0)
(0.200053 9.06488e-06 0)
(0.200038 6.73009e-06 0)
(0.200025 4.92247e-06 0)
(0.200014 4.26126e-06 0)
(0.200005 4.14558e-06 0)
(0.199997 3.6497e-06 0)
(0.199989 2.84606e-06 0)
(0.199983 2.25793e-06 0)
(0.199978 2.19267e-06 0)
(0.199973 1.96837e-06 0)
(0.199969 1.65517e-06 0)
(0.199965 1.38987e-06 0)
(0.199962 1.34409e-06 0)
(0.199959 1.2088e-06 0)
(0.199956 1.14313e-06 0)
(0.199954 1.05593e-06 0)
(0.199952 1.07181e-06 0)
(0.199951 1.03742e-06 0)
(0.199949 1.07261e-06 0)
(0.197492 0.00563608 0)
(0.198074 0.00763955 0)
(0.198751 0.00618402 0)
(0.199284 0.0075044 0)
(0.200287 0.0080996 0)
(0.201238 0.00632576 0)
(0.201372 0.00649911 0)
(0.201789 0.00650653 0)
(0.202425 0.00594179 0)
(0.202439 0.00572963 0)
(0.202532 0.00560592 0)
(0.202767 0.00484217 0)
(0.202773 0.00453116 0)
(0.202772 0.00441539 0)
(0.202794 0.00447335 0)
(0.20277 0.00433178 0)
(0.202806 0.00400907 0)
(0.202971 0.00359677 0)
(0.203038 0.00352435 0)
(0.203019 0.0033652 0)
(0.203015 0.00318943 0)
(0.202965 0.00310184 0)
(0.202952 0.00266592 0)
(0.202972 0.00236789 0)
(0.202898 0.00223592 0)
(0.202744 0.0021741 0)
(0.20268 0.00176179 0)
(0.20264 0.00171101 0)
(0.20249 0.00154744 0)
(0.202321 0.00124825 0)
(0.202181 0.00112063 0)
(0.201994 0.001001 0)
(0.201795 0.000778632 0)
(0.20165 0.00070012 0)
(0.201496 0.000641163 0)
(0.201335 0.000489139 0)
(0.20124 0.000418695 0)
(0.20117 0.000400238 0)
(0.201072 0.000349251 0)
(0.200963 0.000309003 0)
(0.200848 0.000274703 0)
(0.200732 0.000217297 0)
(0.200644 0.000176594 0)
(0.200586 0.000160539 0)
(0.200532 0.000135162 0)
(0.200474 0.000106357 0)
(0.200416 8.18504e-05 0)
(0.200356 5.1889e-05 0)
(0.200304 2.79226e-05 0)
(0.200263 1.98405e-05 0)
(0.200229 1.72319e-05 0)
(0.200199 1.67268e-05 0)
(0.200174 1.87506e-05 0)
(0.200151 1.90251e-05 0)
(0.20013 1.69238e-05 0)
(0.20011 1.50464e-05 0)
(0.200093 1.31699e-05 0)
(0.200078 1.02168e-05 0)
(0.200065 7.85897e-06 0)
(0.200055 6.74191e-06 0)
(0.200045 6.33661e-06 0)
(0.200037 5.60396e-06 0)
(0.200029 4.50126e-06 0)
(0.200023 3.63878e-06 0)
(0.200018 3.41924e-06 0)
(0.200013 3.04653e-06 0)
(0.200008 2.57678e-06 0)
(0.200005 2.1741e-06 0)
(0.200001 2.03551e-06 0)
(0.199999 1.80812e-06 0)
(0.199996 1.66413e-06 0)
(0.199994 1.51157e-06 0)
(0.199992 1.47217e-06 0)
(0.199991 1.40537e-06 0)
(0.199988 1.38657e-06 0)
(0.197767 0.00549229 0)
(0.198252 0.00723681 0)
(0.19887 0.00608516 0)
(0.199331 0.00708766 0)
(0.200205 0.00787232 0)
(0.201183 0.00618721 0)
(0.201248 0.00624966 0)
(0.201621 0.00629993 0)
(0.2023 0.00584528 0)
(0.202324 0.00566544 0)
(0.202408 0.00552025 0)
(0.202655 0.00481731 0)
(0.202673 0.00453657 0)
(0.20265 0.00439936 0)
(0.202676 0.00460894 0)
(0.202691 0.00424557 0)
(0.202731 0.0039422 0)
(0.20289 0.00359074 0)
(0.202939 0.00345292 0)
(0.202932 0.00351559 0)
(0.202933 0.00320439 0)
(0.202879 0.00295484 0)
(0.202865 0.00269622 0)
(0.202881 0.0024169 0)
(0.202799 0.00222885 0)
(0.202664 0.00212565 0)
(0.202617 0.00185046 0)
(0.20255 0.0017799 0)
(0.202399 0.00160954 0)
(0.202261 0.00130535 0)
(0.20214 0.00118866 0)
(0.201948 0.00106281 0)
(0.201754 0.00082075 0)
(0.201625 0.000753298 0)
(0.201474 0.000694344 0)
(0.201316 0.000522289 0)
(0.201228 0.000445658 0)
(0.201162 0.000428154 0)
(0.201065 0.000379007 0)
(0.200959 0.000343856 0)
(0.200843 0.000310894 0)
(0.200723 0.000246763 0)
(0.200635 0.000197466 0)
(0.200582 0.000177077 0)
(0.200534 0.000150451 0)
(0.200483 0.000122437 0)
(0.200428 9.85653e-05 0)
(0.20037 6.72597e-05 0)
(0.200316 4.12584e-05 0)
(0.200274 3.1136e-05 0)
(0.200239 2.62083e-05 0)
(0.200209 2.39799e-05 0)
(0.200184 2.52677e-05 0)
(0.200162 2.5075e-05 0)
(0.200141 2.23723e-05 0)
(0.200122 1.98636e-05 0)
(0.200105 1.73824e-05 0)
(0.200089 1.38059e-05 0)
(0.200077 1.08901e-05 0)
(0.200066 9.30085e-06 0)
(0.200057 8.60459e-06 0)
(0.200048 7.63672e-06 0)
(0.20004 6.21381e-06 0)
(0.200034 5.05932e-06 0)
(0.200029 4.68627e-06 0)
(0.200024 4.16137e-06 0)
(0.20002 3.5271e-06 0)
(0.200016 2.9811e-06 0)
(0.200013 2.74948e-06 0)
(0.20001 2.42555e-06 0)
(0.200007 2.20211e-06 0)
(0.200005 1.97983e-06 0)
(0.200003 1.88669e-06 0)
(0.200002 1.78313e-06 0)
(0.199999 1.71122e-06 0)
(0.197951 0.00546341 0)
(0.198426 0.00677571 0)
(0.199019 0.00604113 0)
(0.199415 0.0066005 0)
(0.200155 0.00753462 0)
(0.201077 0.00613015 0)
(0.201143 0.00600653 0)
(0.201492 0.00620402 0)
(0.202174 0.00575907 0)
(0.202197 0.00557397 0)
(0.202262 0.00541168 0)
(0.202532 0.00485002 0)
(0.202595 0.00444708 0)
(0.202542 0.00439297 0)
(0.202565 0.00452228 0)
(0.202605 0.00429191 0)
(0.202654 0.00390201 0)
(0.202821 0.00353868 0)
(0.202857 0.00347183 0)
(0.20282 0.00341789 0)
(0.202821 0.00322594 0)
(0.2028 0.00317035 0)
(0.202794 0.0026171 0)
(0.202791 0.00234749 0)
(0.202687 0.00237847 0)
(0.202584 0.00217947 0)
(0.202564 0.0018509 0)
(0.202469 0.00178297 0)
(0.202307 0.00162594 0)
(0.20219 0.00133716 0)
(0.202087 0.00125209 0)
(0.201895 0.00112812 0)
(0.201711 0.000867551 0)
(0.201599 0.000811398 0)
(0.201449 0.000746976 0)
(0.201291 0.000553611 0)
(0.20121 0.000474239 0)
(0.201144 0.00045723 0)
(0.201048 0.000409333 0)
(0.200946 0.000380205 0)
(0.200832 0.000349061 0)
(0.200711 0.000277633 0)
(0.200622 0.000218689 0)
(0.200571 0.000192843 0)
(0.200528 0.000164379 0)