/*--------------------------------*- C++ -*----------------------------------*\
| =========                 |                                                 |
| \\      /  F ield         | OpenFOAM: The Open Source CFD Toolbox           |
|  \\    /   O peration     | Version:  2.3.0                                 |
|   \\  /    A nd           | Web:      www.OpenFOAM.org                      |
|    \\/     M anipulation  |                                                 |
\*---------------------------------------------------------------------------*/
FoamFile
{
    version     2.0;
    format      ascii;
    class       surfaceScalarField;
    location    "0.75";
    object      phi;
}
// * * * * * * * * * * * * * * * * * * * * * * * * * * * * * * * * * * * * * //

dimensions      [0 3 -1 0 0 0 0];

internalField   nonuniform List<scalar> 
6068
(
2.82982e-08
2.83265e-09
-3.11308e-08
2.54388e-08
2.85944e-09
2.27435e-08
2.69524e-09
2.02573e-08
2.48621e-09
1.79973e-08
2.26e-09
1.59744e-08
2.02287e-09
1.41916e-08
1.78284e-09
1.26438e-08
1.54779e-09
1.13193e-08
1.32451e-09
1.02008e-08
1.11848e-09
9.26704e-09
9.33777e-10
8.49427e-09
7.72775e-10
7.85811e-09
6.36158e-10
7.33502e-09
5.23094e-10
6.90342e-09
4.31599e-10
6.54446e-09
3.58954e-10
6.24234e-09
3.02118e-10
5.98427e-09
2.5807e-10
5.76023e-09
2.24046e-10
5.56256e-09
1.97672e-10
5.38554e-09
1.77014e-10
5.22499e-09
1.60558e-10
5.07782e-09
1.47166e-10
4.94181e-09
1.36008e-10
4.81532e-09
1.26493e-10
4.69711e-09
1.18208e-10
4.58624e-09
1.10872e-10
4.48195e-09
1.0429e-10
4.38362e-09
9.83299e-11
4.29072e-09
9.28957e-11
4.2028e-09
8.79185e-11
4.11946e-09
8.33452e-11
4.04033e-09
7.91325e-11
3.96508e-09
7.52445e-11
3.89343e-09
7.16497e-11
3.82511e-09
6.83203e-11
3.75988e-09
6.52315e-11
3.69752e-09
6.23609e-11
3.63783e-09
5.96884e-11
3.58063e-09
5.7196e-11
3.52577e-09
5.48675e-11
3.47308e-09
5.26884e-11
3.42243e-09
5.06459e-11
3.3737e-09
4.87283e-11
3.32678e-09
4.69253e-11
3.28155e-09
4.52276e-11
3.23792e-09
4.36269e-11
3.19581e-09
4.21158e-11
3.15512e-09
4.06874e-11
3.11579e-09
3.93358e-11
3.07773e-09
3.80554e-11
3.04089e-09
3.68413e-11
3.0052e-09
3.56887e-11
2.97061e-09
3.45937e-11
2.93705e-09
3.35523e-11
2.90449e-09
3.25611e-11
2.87288e-09
3.16168e-11
2.84216e-09
3.07165e-11
2.8123e-09
2.98574e-11
2.78327e-09
2.9037e-11
2.75501e-09
2.82529e-11
2.72751e-09
2.75031e-11
2.70072e-09
2.67853e-11
2.67463e-09
2.60979e-11
2.64919e-09
2.5439e-11
2.62438e-09
2.4807e-11
2.60018e-09
2.42004e-11
2.57656e-09
2.36178e-11
2.5535e-09
2.30579e-11
2.53099e-09
2.25196e-11
2.50898e-09
2.20016e-11
2.48748e-09
2.1503e-11
2.46646e-09
2.10228e-11
2.4459e-09
2.05602e-11
2.42578e-09
2.01142e-11
2.4061e-09
1.96843e-11
2.38683e-09
1.92698e-11
2.36796e-09
1.887e-11
2.34947e-09
1.84845e-11
2.33136e-09
1.81128e-11
2.31361e-09
1.77546e-11
2.2962e-09
1.74095e-11
2.27912e-09
1.70774e-11
2.26236e-09
1.67581e-11
2.24591e-09
1.64517e-11
2.22975e-09
1.61581e-11
2.21387e-09
1.58777e-11
2.19826e-09
1.56106e-11
2.18291e-09
1.53576e-11
2.16779e-09
1.51194e-11
2.15289e-09
1.48972e-11
2.1382e-09
1.46929e-11
2.12369e-09
1.45095e-11
2.10933e-09
1.43524e-11
2.0951e-09
1.42323e-11
2.08093e-09
1.41737e-11
2.06669e-09
1.42433e-11
2.05211e-09
1.458e-11
2.03651e-09
1.55936e-11
4.53357e-11
3.40062e-08
3.12087e-09
-3.42944e-08
3.34172e-08
3.4484e-09
3.25895e-08
3.52296e-09
3.1602e-08
3.47374e-09
3.05116e-08
3.35031e-09
2.93643e-08
3.17019e-09
2.81973e-08
2.94984e-09
2.70395e-08
2.70565e-09
2.59121e-08
2.45186e-09
2.48303e-08
2.20026e-09
2.3804e-08
1.96015e-09
2.28385e-08
1.73823e-09
2.19362e-08
1.53851e-09
2.10966e-08
1.36266e-09
2.03178e-08
1.21042e-09
1.95965e-08
1.0802e-09
1.8929e-08
9.69627e-10
1.83111e-08
8.75979e-10
1.77386e-08
7.96556e-10
1.72074e-08
7.28873e-10
1.67136e-08
6.7077e-10
1.62537e-08
6.20448e-10
1.58245e-08
5.76453e-10
1.54228e-08
5.37631e-10
1.50462e-08
5.03083e-10
1.46923e-08
4.72107e-10
1.43591e-08
4.44157e-10
1.40445e-08
4.18804e-10
1.37472e-08
3.95706e-10
1.34655e-08
3.74584e-10
1.31982e-08
3.55208e-10
1.29441e-08
3.37387e-10
1.27023e-08
3.20955e-10
1.24718e-08
3.05769e-10
1.22517e-08
2.91704e-10
1.20414e-08
2.78651e-10
1.18401e-08
2.66513e-10
1.16473e-08
2.55203e-10
1.14623e-08
2.44646e-10
1.12848e-08
2.34774e-10
1.11141e-08
2.25526e-10
1.09499e-08
2.1685e-10
1.07919e-08
2.08695e-10
1.06396e-08
2.01021e-10
1.04927e-08
1.93789e-10
1.0351e-08
1.86963e-10
1.02141e-08
1.80513e-10
1.00818e-08
1.74411e-10
9.95386e-09
1.68632e-10
9.83005e-09
1.63152e-10
9.71015e-09
1.57952e-10
9.59398e-09
1.53011e-10
9.48136e-09
1.48313e-10
9.37211e-09
1.43841e-10
9.26608e-09
1.39582e-10
9.16312e-09
1.3552e-10
9.06309e-09
1.31645e-10
8.96586e-09
1.27944e-10
8.87131e-09
1.24408e-10
8.77933e-09
1.21025e-10
8.68979e-09
1.17788e-10
8.60261e-09
1.14687e-10
8.51768e-09
1.11715e-10
8.43491e-09
1.08864e-10
8.35422e-09
1.06127e-10
8.27553e-09
1.03498e-10
8.19876e-09
1.00972e-10
8.12384e-09
9.85417e-11
8.05069e-09
9.62028e-11
7.97926e-09
9.39504e-11
7.90948e-09
9.17798e-11
7.8413e-09
8.9687e-11
7.77465e-09
8.7668e-11
7.70949e-09
8.57191e-11
7.64577e-09
8.38372e-11
7.58344e-09
8.2019e-11
7.52245e-09
8.02619e-11
7.46275e-09
7.85633e-11
7.40432e-09
7.69208e-11
7.3471e-09
7.53326e-11
7.29105e-09
7.37969e-11
7.23615e-09
7.23122e-11
7.18235e-09
7.08773e-11
7.12962e-09
6.94915e-11
7.07791e-09
6.81542e-11
7.02721e-09
6.68654e-11
6.97746e-09
6.56253e-11
6.92864e-09
6.44347e-11
6.8807e-09
6.32953e-11
6.83361e-09
6.22094e-11
6.78732e-09
6.11806e-11
6.7418e-09
6.02149e-11
6.69699e-09
5.93219e-11
6.65282e-09
5.85188e-11
6.60922e-09
5.78401e-11
6.56602e-09
5.73662e-11
6.52296e-09
5.7304e-11
6.47934e-09
5.8207e-11
6.42985e-09
6.50812e-11
1.16218e-10
3.60979e-08
2.98038e-09
-3.59575e-08
3.61648e-08
3.38156e-09
3.61068e-08
3.58097e-09
3.59251e-08
3.65539e-09
3.56307e-08
3.64471e-09
3.52376e-08
3.56335e-09
3.47627e-08
3.42471e-09
3.42239e-08
3.24444e-09
3.3638e-08
3.03773e-09
3.30202e-08
2.81806e-09
3.23835e-08
2.59685e-09
3.17387e-08
2.38306e-09
3.10942e-08
2.18301e-09
3.04564e-08
2.00042e-09
2.983e-08
1.83684e-09
2.92181e-08
1.69215e-09
2.86226e-08
1.56512e-09
2.80447e-08
1.45389e-09
2.74849e-08
1.35635e-09
2.69433e-08
1.27042e-09
2.64199e-08
1.19421e-09
2.59142e-08
1.12611e-09
2.54259e-08
1.06475e-09
2.49545e-08
1.00904e-09
2.44995e-08
9.58111e-10
2.40603e-08
9.11289e-10
2.36365e-08
8.68031e-10
2.32274e-08
8.2791e-10
2.28325e-08
7.90583e-10
2.24513e-08
7.55768e-10
2.20833e-08
7.23227e-10
2.17279e-08
6.92761e-10
2.13847e-08
6.64193e-10
2.10531e-08
6.37369e-10
2.07326e-08
6.1215e-10
2.04229e-08
5.88412e-10
2.01233e-08
5.66044e-10
1.98336e-08
5.44941e-10
1.95532e-08
5.25012e-10
1.92818e-08
5.06172e-10
1.9019e-08
4.88344e-10
1.87644e-08
4.71455e-10
1.85177e-08
4.55443e-10
1.82784e-08
4.40248e-10
1.80464e-08
4.25815e-10
1.78213e-08
4.12094e-10
1.76027e-08
3.9904e-10
1.73905e-08
3.8661e-10
1.71844e-08
3.74766e-10
1.69841e-08
3.63472e-10
1.67893e-08
3.52694e-10
1.66e-08
3.42402e-10
1.64157e-08
3.32567e-10
1.62364e-08
3.23163e-10
1.60618e-08
3.14164e-10
1.58918e-08
3.05549e-10
1.57261e-08
2.97295e-10
1.55647e-08
2.89382e-10
1.54073e-08
2.81791e-10
1.52538e-08
2.74506e-10
1.51041e-08
2.67509e-10
1.4958e-08
2.60785e-10
1.48154e-08
2.54319e-10
1.46762e-08
2.48098e-10
1.45402e-08
2.42109e-10
1.44073e-08
2.3634e-10
1.42775e-08
2.3078e-10
1.41506e-08
2.25417e-10
1.40266e-08
2.20242e-10
1.39053e-08
2.15246e-10
1.37867e-08
2.10418e-10
1.36706e-08
2.05752e-10
1.3557e-08
2.0124e-10
1.34459e-08
1.96873e-10
1.33371e-08
1.92646e-10
1.32305e-08
1.88552e-10
1.31262e-08
1.84585e-10
1.3024e-08
1.80741e-10
1.29239e-08
1.77013e-10
1.28259e-08
1.73399e-10
1.27298e-08
1.69894e-10
1.26356e-08
1.66494e-10
1.25433e-08
1.63198e-10
1.24528e-08
1.60004e-10
1.2364e-08
1.56909e-10
1.2277e-08
1.53914e-10
1.21916e-08
1.51018e-10
1.21078e-08
1.48223e-10
1.20256e-08
1.45532e-10
1.19448e-08
1.42948e-10
1.18655e-08
1.40479e-10
1.17876e-08
1.38136e-10
1.1711e-08
1.35936e-10
1.16356e-08
1.33913e-10
1.15613e-08
1.32133e-10
1.14879e-08
1.30748e-10
1.14151e-08
1.30163e-10
1.13416e-08
1.31703e-10
1.12625e-08
1.44166e-10
2.00912e-10
3.76647e-08
2.79684e-09
-3.74812e-08
3.78617e-08
3.18458e-09
3.80225e-08
3.42022e-09
3.81296e-08
3.54823e-09
3.8176e-08
3.59838e-09
3.81572e-08
3.58213e-09
3.80731e-08
3.50878e-09
3.79273e-08
3.39025e-09
3.77257e-08
3.23932e-09
3.74757e-08
3.06807e-09
3.71853e-08
2.88727e-09
3.68624e-08
2.70593e-09
3.65145e-08
2.53094e-09
3.6148e-08
2.36692e-09
3.57683e-08
2.2165e-09
3.53798e-08
2.08061e-09
3.4986e-08
1.95899e-09
3.45893e-08
1.8506e-09
3.41916e-08
1.75398e-09
3.37945e-08
1.66756e-09
3.33989e-08
1.5898e-09
3.30057e-08
1.51934e-09
3.26154e-08
1.45498e-09
3.22287e-08
1.39577e-09
3.18459e-08
1.34091e-09
3.14674e-08
1.28978e-09
3.10935e-08
1.24191e-09
3.07246e-08
1.19688e-09
3.03607e-08
1.15441e-09
3.00023e-08
1.11424e-09
2.96493e-08
1.07617e-09
2.9302e-08
1.04003e-09
2.89606e-08
1.00567e-09
2.8625e-08
9.72962e-10
2.82953e-08
9.41794e-10
2.79717e-08
9.12066e-10
2.7654e-08
8.83687e-10
2.73424e-08
8.56572e-10
2.70368e-08
8.30648e-10
2.67371e-08
8.05844e-10
2.64433e-08
7.82097e-10
2.61554e-08
7.59347e-10
2.58733e-08
7.3754e-10
2.5597e-08
7.16626e-10
2.53262e-08
6.96559e-10
2.5061e-08
6.77294e-10
2.48013e-08
6.58791e-10
2.45469e-08
6.41012e-10
2.42977e-08
6.23921e-10
2.40537e-08
6.07486e-10
2.38147e-08
5.91675e-10
2.35807e-08
5.76457e-10
2.33514e-08
5.61807e-10
2.31269e-08
5.47696e-10
2.2907e-08
5.341e-10
2.26915e-08
5.20995e-10
2.24805e-08
5.08359e-10
2.22737e-08
4.9617e-10
2.2071e-08
4.84408e-10
2.18725e-08
4.73053e-10
2.16779e-08
4.62088e-10
2.14872e-08
4.51493e-10
2.13003e-08
4.41254e-10
2.1117e-08
4.31352e-10
2.09374e-08
4.21774e-10
2.07612e-08
4.12504e-10
2.05884e-08
4.03529e-10
2.0419e-08
3.94835e-10
2.02529e-08
3.8641e-10
2.00899e-08
3.78242e-10
1.993e-08
3.70319e-10
1.97731e-08
3.6263e-10
1.96192e-08
3.55166e-10
1.94681e-08
3.47916e-10
1.93199e-08
3.40872e-10
1.91744e-08
3.34025e-10
1.90316e-08
3.27367e-10
1.88915e-08
3.20891e-10
1.87539e-08
3.1459e-10
1.86188e-08
3.08458e-10
1.84862e-08
3.02491e-10
1.83561e-08
2.96682e-10
1.82282e-08
2.9103e-10
1.81027e-08
2.8553e-10
1.79794e-08
2.80181e-10
1.78584e-08
2.74982e-10
1.77394e-08
2.69934e-10
1.76226e-08
2.65039e-10
1.75079e-08
2.60301e-10
1.73951e-08
2.55726e-10
1.72842e-08
2.51326e-10
1.71753e-08
2.47116e-10
1.70681e-08
2.43126e-10
1.69626e-08
2.39405e-10
1.68587e-08
2.36054e-10
1.67561e-08
2.33302e-10
1.66545e-08
2.31767e-10
1.65527e-08
2.33524e-10
1.64486e-08
2.48245e-10
2.99166e-10
3.91908e-08
2.63455e-09
-3.90285e-08
3.93891e-08
2.98629e-09
3.95861e-08
3.2232e-09
3.97654e-08
3.36893e-09
3.99185e-08
3.44534e-09
4.00379e-08
3.46271e-09
4.01182e-08
3.42843e-09
4.01568e-08
3.35168e-09
4.01534e-08
3.24276e-09
4.01097e-08
3.11177e-09
4.00289e-08
2.96801e-09
3.99153e-08
2.81952e-09
3.97735e-08
2.67278e-09
3.96079e-08
2.53248e-09
3.94229e-08
2.40158e-09
3.92219e-08
2.28157e-09
3.90081e-08
2.17282e-09
3.87838e-08
2.07487e-09
3.8551e-08
1.98679e-09
3.83111e-08
1.90744e-09
3.80653e-08
1.83562e-09
3.78144e-08
1.77018e-09
3.75593e-08
1.71012e-09
3.73005e-08
1.6546e-09
3.70385e-08
1.6029e-09
3.67738e-08
1.55445e-09
3.65069e-08
1.5088e-09
3.62382e-08
1.4656e-09
3.59681e-08
1.42456e-09
3.56969e-08
1.38545e-09
3.54249e-08
1.34808e-09
3.51527e-08
1.31231e-09
3.48803e-08
1.27801e-09
3.46082e-08
1.24507e-09
3.43366e-08
1.2134e-09
3.40658e-08
1.18291e-09
3.37959e-08
1.15353e-09
3.35273e-08
1.12519e-09
3.32601e-08
1.09785e-09
3.29945e-08
1.07144e-09
3.27307e-08
1.04592e-09
3.24688e-08
1.02125e-09
3.2209e-08
9.97374e-10
3.19513e-08
9.74271e-10
3.1696e-08
9.51902e-10
3.1443e-08
9.30236e-10
3.11926e-08
9.09244e-10
3.09447e-08
8.88898e-10
3.06994e-08
8.69175e-10
3.04569e-08
8.50048e-10
3.0217e-08
8.31497e-10
2.998e-08
8.13499e-10
2.97458e-08
7.96035e-10
2.95144e-08
7.79084e-10
2.92859e-08
7.62628e-10
2.90602e-08
7.46649e-10
2.88374e-08
7.31131e-10
2.86175e-08
7.16055e-10
2.84005e-08
7.01407e-10
2.81864e-08
6.87172e-10
2.79752e-08
6.73333e-10
2.77668e-08
6.59876e-10
2.75613e-08
6.46788e-10
2.73586e-08
6.34055e-10
2.71587e-08
6.21663e-10
2.69616e-08
6.096e-10
2.67673e-08
5.97854e-10
2.65757e-08
5.86413e-10
2.63868e-08
5.75264e-10
2.62007e-08
5.64397e-10
2.60172e-08
5.53801e-10
2.58363e-08
5.43467e-10
2.56581e-08
5.33383e-10
2.54825e-08
5.23541e-10
2.53094e-08
5.13932e-10
2.51389e-08
5.04547e-10
2.49709e-08
4.95379e-10
2.48054e-08
4.8642e-10
2.46423e-08
4.77664e-10
2.44817e-08
4.69105e-10
2.43234e-08
4.60738e-10
2.41675e-08
4.52558e-10
2.4014e-08
4.44562e-10
2.38628e-08
4.36748e-10
2.37139e-08
4.29114e-10
2.35672e-08
4.21661e-10
2.34227e-08
4.1439e-10
2.32805e-08
4.07306e-10
2.31403e-08
4.00415e-10
2.30023e-08
3.93728e-10
2.28664e-08
3.87259e-10
2.27325e-08
3.81031e-10
2.26005e-08
3.75085e-10
2.24705e-08
3.69485e-10
2.23421e-08
3.64366e-10
2.22154e-08
3.60026e-10
2.20899e-08
3.57237e-10
2.19651e-08
3.58402e-10
2.18415e-08
3.71775e-10
4.09259e-10
4.07547e-08
2.49699e-09
-4.06171e-08
4.09316e-08
2.80936e-09
4.11195e-08
3.03532e-09
4.13036e-08
3.18477e-09
4.14764e-08
3.27252e-09
4.16316e-08
3.30756e-09
4.17637e-08
3.29634e-09
4.1869e-08
3.24635e-09
4.19457e-08
3.16611e-09
4.19933e-08
3.06415e-09
4.20129e-08
2.94844e-09
4.20064e-08
2.82601e-09
4.19765e-08
2.70268e-09
4.19261e-08
2.58287e-09
4.18581e-08
2.46956e-09
4.17752e-08
2.3645e-09
4.16796e-08
2.26839e-09
4.15733e-08
2.18119e-09
4.14577e-08
2.10236e-09
4.13341e-08
2.03108e-09
4.12033e-08
1.96644e-09
4.10659e-08
1.9075e-09
4.09227e-08
1.85342e-09
4.07738e-08
1.80343e-09
4.06198e-08
1.75692e-09
4.04609e-08
1.71334e-09
4.02974e-08
1.67228e-09
4.01297e-08
1.63339e-09
3.99578e-08
1.59639e-09
3.97822e-08
1.56106e-09
3.96031e-08
1.52723e-09
3.94206e-08
1.49474e-09
3.92352e-08
1.46347e-09
3.90469e-08
1.43332e-09
3.88561e-08
1.40419e-09
3.8663e-08
1.37603e-09
3.84678e-08
1.34875e-09
3.82707e-08
1.3223e-09
3.80719e-08
1.29663e-09
3.78717e-08
1.2717e-09
3.76701e-08
1.24746e-09
3.74675e-08
1.22387e-09
3.7264e-08
1.20092e-09
3.70597e-08
1.17856e-09
3.68548e-08
1.15677e-09
3.66495e-08
1.13553e-09
3.64439e-08
1.11481e-09
3.62382e-08
1.0946e-09
3.60325e-08
1.07488e-09
3.58269e-08
1.05563e-09
3.56216e-08
1.03684e-09
3.54166e-08
1.01848e-09
3.52121e-08
1.00055e-09
3.50082e-08
9.83034e-10
3.48049e-08
9.65917e-10
3.46023e-08
9.49189e-10
3.44006e-08
9.32838e-10
3.41998e-08
9.16852e-10
3.4e-08
9.01219e-10
3.38013e-08
8.85931e-10
3.36036e-08
8.70976e-10
3.34071e-08
8.56343e-10
3.32119e-08
8.42024e-10
3.3018e-08
8.28008e-10
3.28253e-08
8.14286e-10
3.26341e-08
8.00849e-10
3.24443e-08
7.87686e-10
3.22559e-08
7.74791e-10
3.2069e-08
7.62152e-10
3.18836e-08
7.49763e-10
3.16998e-08
7.37615e-10
3.15176e-08
7.257e-10
3.13369e-08
7.1401e-10
3.1158e-08
7.02538e-10
3.09806e-08
6.91277e-10
3.08049e-08
6.8022e-10
3.0631e-08
6.69362e-10
3.04587e-08
6.58696e-10
3.02881e-08
6.48218e-10
3.01193e-08
6.37923e-10
2.99522e-08
6.27808e-10
2.97869e-08
6.1787e-10
2.96234e-08
6.08107e-10
2.94616e-08
5.98519e-10
2.93016e-08
5.89107e-10
2.91434e-08
5.79872e-10
2.8987e-08
5.7082e-10
2.88323e-08
5.61957e-10
2.86794e-08
5.53294e-10
2.85283e-08
5.44843e-10
2.8379e-08
5.36627e-10
2.82313e-08
5.28676e-10
2.80854e-08
5.21038e-10
2.7941e-08
5.13795e-10
2.77983e-08
5.07104e-10
2.7657e-08
5.01303e-10
2.75171e-08
4.97209e-10
2.73784e-08
4.97024e-10
2.72439e-08
5.06331e-10
5.26612e-10
4.23693e-08
2.37889e-09
-4.22512e-08
4.25244e-08
2.65421e-09
4.26951e-08
2.86471e-09
4.28678e-08
3.01204e-09
4.30353e-08
3.10503e-09
4.3192e-08
3.15081e-09
4.33334e-08
3.15499e-09
4.34559e-08
3.1238e-09
4.35577e-08
3.06436e-09
4.36379e-08
2.98396e-09
4.36968e-08
2.8895e-09
4.37357e-08
2.78716e-09
4.37562e-08
2.68215e-09
4.37605e-08
2.57857e-09
4.37507e-08
2.47932e-09
4.3729e-08
2.38627e-09
4.3697e-08
2.30036e-09
4.36564e-08
2.22183e-09
4.36083e-08
2.15045e-09
4.35536e-08
2.08569e-09
4.34932e-08
2.02686e-09
4.34275e-08
1.97323e-09
4.33568e-08
1.92408e-09
4.32815e-08
1.87877e-09
4.32017e-08
1.83673e-09
4.31176e-08
1.79747e-09
4.30292e-08
1.76061e-09
4.29368e-08
1.7258e-09
4.28404e-08
1.69278e-09
4.27402e-08
1.66132e-09
4.26361e-08
1.63125e-09
4.25285e-08
1.60241e-09
4.24173e-08
1.57467e-09
4.23026e-08
1.54794e-09
4.21847e-08
1.52212e-09
4.20636e-08
1.49713e-09
4.19395e-08
1.47291e-09
4.18124e-08
1.4494e-09
4.16825e-08
1.42654e-09
4.15499e-08
1.40429e-09
4.14147e-08
1.38261e-09
4.12771e-08
1.36147e-09
4.11372e-08
1.34083e-09
4.09951e-08
1.32067e-09
4.08509e-08
1.30096e-09
4.07047e-08
1.28168e-09
4.05567e-08
1.26281e-09
4.0407e-08
1.24433e-09
4.02557e-08
1.22622e-09
4.01028e-08
1.20847e-09
3.99486e-08
1.19108e-09
3.97931e-08
1.17401e-09
3.96363e-08
1.15727e-09
3.94785e-08
1.14084e-09
3.93197e-08
1.12471e-09
3.916e-08
1.10888e-09
3.89996e-08
1.09333e-09
3.88384e-08
1.07805e-09
3.86765e-08
1.06304e-09
3.85142e-08
1.04828e-09
3.83514e-08
1.03378e-09
3.81882e-08
1.01952e-09
3.80247e-08
1.00549e-09
3.78611e-08
9.91692e-10
3.76972e-08
9.78112e-10
3.75333e-08
9.64747e-10
3.73694e-08
9.51587e-10
3.72056e-08
9.38627e-10
3.70419e-08
9.25859e-10
3.68784e-08
9.13278e-10
3.67151e-08
9.00877e-10
3.65522e-08
8.8865e-10
3.63896e-08
8.76592e-10
3.62274e-08
8.64696e-10
3.60657e-08
8.52957e-10
3.59046e-08
8.41372e-10
3.5744e-08
8.29934e-10
3.55841e-08
8.18641e-10
3.54248e-08
8.07489e-10
3.52663e-08
7.96476e-10
3.51085e-08
7.856e-10
3.49515e-08
7.74859e-10
3.47953e-08
7.64255e-10
3.46401e-08
7.53788e-10
3.44857e-08
7.43462e-10
3.43323e-08
7.33282e-10
3.41799e-08
7.23254e-10
3.40284e-08
7.1339e-10
3.3878e-08
7.03702e-10
3.37287e-08
6.94208e-10
3.35803e-08
6.84936e-10
3.34331e-08
6.75922e-10
3.32869e-08
6.67222e-10
3.31418e-08
6.58929e-10
3.29977e-08
6.5121e-10
3.28546e-08
6.44402e-10
3.27126e-08
6.39233e-10
3.25723e-08
6.37308e-10
3.24374e-08
6.4121e-10
6.44354e-10
4.40377e-08
2.27549e-09
-4.39343e-08
4.41741e-08
2.51778e-09
4.43275e-08
2.71133e-09
4.44861e-08
2.85345e-09
4.46426e-08
2.94849e-09
4.47919e-08
3.00152e-09
4.49297e-08
3.01719e-09
4.50529e-08
3.00062e-09
4.51595e-08
2.95774e-09
4.52487e-08
2.89473e-09
4.53207e-08
2.81757e-09
4.53761e-08
2.73168e-09
4.54165e-08
2.64175e-09
4.54436e-08
2.55153e-09
4.54591e-08
2.46384e-09
4.54648e-08
2.38058e-09
4.54622e-08
2.30287e-09
4.54529e-08
2.23117e-09
4.54378e-08
2.16552e-09
4.54179e-08
2.10561e-09
4.53938e-08
2.05099e-09
4.53659e-08
2.0011e-09
4.53346e-08
1.95536e-09
4.53002e-08
1.91324e-09
4.52627e-08
1.87424e-09
4.52222e-08
1.83794e-09
4.51788e-08
1.80397e-09
4.51326e-08
1.77202e-09
4.50835e-08
1.74183e-09
4.50317e-08
1.71319e-09
4.4977e-08
1.68591e-09
4.49196e-08
1.65985e-09
4.48594e-08
1.63488e-09
4.47964e-08
1.61088e-09
4.47308e-08
1.58777e-09
4.46624e-08
1.56547e-09
4.45914e-08
1.5439e-09
4.45178e-08
1.523e-09
4.44417e-08
1.50272e-09
4.43629e-08
1.48302e-09
4.42817e-08
1.46384e-09
4.4198e-08
1.44515e-09
4.41119e-08
1.42692e-09
4.40235e-08
1.40912e-09
4.39327e-08
1.39172e-09
4.38397e-08
1.37469e-09
4.37445e-08
1.35802e-09
4.36471e-08
1.34169e-09
4.35477e-08
1.32567e-09
4.34462e-08
1.30996e-09
4.33427e-08
1.29454e-09
4.32374e-08
1.27939e-09
4.31301e-08
1.2645e-09
4.30211e-08
1.24986e-09
4.29103e-08
1.23547e-09
4.27979e-08
1.2213e-09
4.26839e-08
1.20736e-09
4.25683e-08
1.19363e-09
4.24513e-08
1.1801e-09
4.23328e-08
1.16677e-09
4.22129e-08
1.15362e-09
4.20918e-08
1.14066e-09
4.19694e-08
1.12786e-09
4.18459e-08
1.11524e-09
4.17212e-08
1.10277e-09
4.15955e-08
1.09045e-09
4.14688e-08
1.07828e-09
4.13412e-08
1.06625e-09
4.12127e-08
1.05435e-09
4.10834e-08
1.04258e-09
4.09533e-08
1.03093e-09
4.08226e-08
1.01939e-09
4.06912e-08
1.00797e-09
4.05593e-08
9.96647e-10
4.04268e-08
9.85427e-10
4.02939e-08
9.74303e-10
4.01605e-08
9.63271e-10
4.00268e-08
9.5233e-10
3.98929e-08
9.41474e-10
3.97586e-08
9.30705e-10
3.96242e-08
9.20019e-10
3.94897e-08
9.09418e-10
3.9355e-08
8.98904e-10
3.92203e-08
8.88478e-10
3.90856e-08
8.78146e-10
3.8951e-08
8.67914e-10
3.88165e-08
8.57792e-10
3.86821e-08
8.47792e-10
3.85478e-08
8.37931e-10
3.84138e-08
8.28231e-10
3.828e-08
8.18721e-10
3.81465e-08
8.09443e-10
3.80133e-08
8.00459e-10
3.78803e-08
7.91864e-10
3.77477e-08
7.83821e-10
3.76155e-08
7.76622e-10
3.74839e-08
7.70802e-10
3.7354e-08
7.67196e-10
3.72295e-08
7.65757e-10
7.55013e-10
4.57618e-08
2.18342e-09
-4.56698e-08
4.58826e-08
2.39699e-09
4.60204e-08
2.57358e-09
4.61651e-08
2.70868e-09
4.631e-08
2.8036e-09
4.645e-08
2.86156e-09
4.6581e-08
2.88615e-09
4.67001e-08
2.88153e-09
4.68053e-08
2.85253e-09
4.68957e-08
2.80435e-09
4.69712e-08
2.74211e-09
4.70323e-08
2.67054e-09
4.70802e-08
2.59381e-09
4.71164e-08
2.51536e-09
4.71424e-08
2.43786e-09
4.71598e-08
2.36322e-09
4.717e-08
2.29266e-09
4.71743e-08
2.22683e-09
4.71738e-08
2.16597e-09
4.71695e-08
2.10999e-09
4.71618e-08
2.05862e-09
4.71515e-08
2.01147e-09
4.71387e-08
1.96812e-09
4.71238e-08
1.92812e-09
4.7107e-08
1.89107e-09
4.70883e-08
1.85661e-09
4.70679e-08
1.8244e-09
4.70457e-08
1.79418e-09
4.70219e-08
1.76569e-09
4.69963e-08
1.73875e-09
4.69691e-08
1.71317e-09
4.69401e-08
1.68882e-09
4.69094e-08
1.66556e-09
4.6877e-08
1.64329e-09
4.68428e-08
1.62193e-09
4.68069e-08
1.60138e-09
4.67693e-08
1.58157e-09
4.67298e-08
1.56245e-09
4.66886e-08
1.54396e-09
4.66455e-08
1.52605e-09
4.66007e-08
1.50868e-09
4.65541e-08
1.4918e-09
4.65056e-08
1.47538e-09
4.64553e-08
1.45939e-09
4.64032e-08
1.4438e-09
4.63493e-08
1.42859e-09
4.62936e-08
1.41373e-09
4.62361e-08
1.3992e-09
4.61768e-08
1.38498e-09
4.61157e-08
1.37106e-09
4.60528e-08
1.35741e-09
4.59882e-08
1.34403e-09
4.59218e-08
1.33089e-09
4.58537e-08
1.31798e-09
4.57838e-08
1.3053e-09
4.57123e-08
1.29283e-09
4.56391e-08
1.28056e-09
4.55643e-08
1.26848e-09
4.54878e-08
1.25658e-09
4.54097e-08
1.24485e-09
4.533e-08
1.23328e-09
4.52488e-08
1.22186e-09
4.51661e-08
1.21058e-09
4.50819e-08
1.19944e-09
4.49963e-08
1.18843e-09
4.49092e-08
1.17754e-09
4.48207e-08
1.16676e-09
4.47309e-08
1.15608e-09
4.46397e-08
1.1455e-09
4.45473e-08
1.13501e-09
4.44536e-08
1.1246e-09
4.43587e-08
1.11427e-09
4.42627e-08
1.10401e-09
4.41655e-08
1.09382e-09
4.40673e-08
1.08369e-09
4.3968e-08
1.07361e-09
4.38676e-08
1.06359e-09
4.37663e-08
1.05361e-09
4.36641e-08
1.04368e-09
4.3561e-08
1.0338e-09
4.34571e-08
1.02395e-09
4.33524e-08
1.01415e-09
4.32469e-08
1.00439e-09
4.31407e-08
9.94682e-10
4.30338e-08
9.85025e-10
4.29263e-08
9.75428e-10
4.28182e-08
9.65902e-10
4.27095e-08
9.56461e-10
4.26003e-08
9.47123e-10
4.24906e-08
9.37912e-10
4.23805e-08
9.2886e-10
4.22699e-08
9.20011e-10
4.2159e-08
9.11428e-10
4.20476e-08
9.03201e-10
4.1936e-08
8.95472e-10
4.18241e-08
8.88461e-10
4.17125e-08
8.82463e-10
4.16021e-08
8.77575e-10
4.14959e-08
8.71922e-10
8.52368e-10
4.75438e-08
2.10033e-09
-4.74607e-08
4.76516e-08
2.2892e-09
4.77755e-08
2.44965e-09
4.79074e-08
2.57676e-09
4.80411e-08
2.67e-09
4.81715e-08
2.73107e-09
4.82951e-08
2.76257e-09
4.84089e-08
2.76778e-09
4.85108e-08
2.75058e-09
4.85999e-08
2.71528e-09
4.86758e-08
2.6662e-09
4.87389e-08
2.60744e-09
4.879e-08
2.54267e-09
4.88304e-08
2.47502e-09
4.88613e-08
2.40696e-09
4.88841e-08
2.34037e-09
4.89002e-08
2.27653e-09
4.89109e-08
2.21623e-09
4.8917e-08
2.15984e-09
4.89195e-08
2.10747e-09
4.89191e-08
2.05902e-09
4.89163e-08
2.01424e-09
4.89116e-08
1.97283e-09
4.89053e-08
1.93447e-09
4.88975e-08
1.89883e-09
4.88885e-08
1.86562e-09
4.88784e-08
1.83454e-09
4.88672e-08
1.80537e-09
4.8855e-08
1.77788e-09
4.88418e-08
1.7519e-09
4.88277e-08
1.72727e-09
4.88127e-08
1.70385e-09
4.87967e-08
1.68152e-09
4.87798e-08
1.66019e-09
4.8762e-08
1.63977e-09
4.87432e-08
1.62018e-09
4.87234e-08
1.60134e-09
4.87027e-08
1.58321e-09
4.86809e-08
1.56573e-09
4.86581e-08
1.54884e-09
4.86343e-08
1.53251e-09
4.86094e-08
1.51669e-09
4.85834e-08
1.50136e-09
4.85563e-08
1.48648e-09
4.85281e-08
1.47202e-09
4.84987e-08
1.45795e-09
4.84682e-08
1.44426e-09
4.84365e-08
1.43092e-09
4.84036e-08
1.4179e-09
4.83694e-08
1.40519e-09
4.83341e-08
1.39278e-09
4.82974e-08
1.38064e-09
4.82596e-08
1.36877e-09
4.82204e-08
1.35714e-09
4.818e-08
1.34574e-09
4.81382e-08
1.33457e-09
4.80952e-08
1.3236e-09
4.80508e-08
1.31283e-09
4.80052e-08
1.30225e-09
4.79582e-08
1.29183e-09
4.79099e-08
1.28159e-09
4.78603e-08
1.27149e-09
4.78093e-08
1.26154e-09
4.7757e-08
1.25172e-09
4.77034e-08
1.24203e-09
4.76485e-08
1.23245e-09
4.75923e-08
1.22298e-09
4.75348e-08
1.2136e-09
4.74759e-08
1.20432e-09
4.74158e-08
1.19511e-09
4.73544e-08
1.18598e-09
4.72918e-08
1.17691e-09
4.72279e-08
1.1679e-09
4.71628e-08
1.15895e-09
4.70964e-08
1.15003e-09
4.70289e-08
1.14116e-09
4.69602e-08
1.13232e-09
4.68903e-08
1.1235e-09
4.68193e-08
1.11472e-09
4.67471e-08
1.10596e-09
4.66738e-08
1.09721e-09
4.65995e-08
1.08849e-09
4.65241e-08
1.07979e-09
4.64477e-08
1.07112e-09
4.63702e-08
1.06247e-09
4.62918e-08
1.05387e-09
4.62124e-08
1.04531e-09
4.6132e-08
1.03681e-09
4.60507e-08
1.0284e-09
4.59686e-08
1.02009e-09
4.58855e-08
1.01191e-09
4.58016e-08
1.00393e-09
4.57169e-08
9.9618e-10
4.56313e-08
9.88756e-10
4.5545e-08
9.81767e-10
4.54581e-08
9.75346e-10
4.5371e-08
9.69557e-10
4.52846e-08
9.63949e-10
4.52008e-08
9.55729e-10
9.32694e-10
4.9386e-08
2.02455e-09
-4.93102e-08
4.94829e-08
2.19227e-09
4.95947e-08
2.33784e-09
4.97149e-08
2.45662e-09
4.98378e-08
2.54706e-09
4.99591e-08
2.60978e-09
5.00752e-08
2.6465e-09
5.01832e-08
2.65972e-09
5.02813e-08
2.65253e-09
5.03682e-08
2.62841e-09
5.04434e-08
2.59098e-09
5.05071e-08
2.54374e-09
5.05598e-08
2.48992e-09
5.06026e-08
2.43228e-09
5.06364e-08
2.37313e-09
5.06625e-08
2.31425e-09
5.06821e-08
2.25693e-09
5.06963e-08
2.20205e-09
5.0706e-08
2.15012e-09
5.07122e-08
2.10136e-09
5.07154e-08
2.05581e-09
5.07162e-08
2.01338e-09
5.07152e-08
1.97386e-09
5.07126e-08
1.93704e-09
5.07088e-08
1.90266e-09
5.07039e-08
1.8705e-09
5.06981e-08
1.84033e-09
5.06916e-08
1.81193e-09
5.06843e-08
1.78513e-09
5.06764e-08
1.75978e-09
5.0668e-08
1.73571e-09
5.0659e-08
1.71283e-09
5.06495e-08
1.69101e-09
5.06396e-08
1.67016e-09
5.06291e-08
1.65022e-09
5.06182e-08
1.63109e-09
5.06068e-08
1.61273e-09
5.0595e-08
1.59506e-09
5.05826e-08
1.57805e-09
5.05698e-08
1.56165e-09
5.05565e-08
1.54582e-09
5.05427e-08
1.53051e-09
5.05284e-08
1.5157e-09
5.05135e-08
1.50136e-09
5.0498e-08
1.48746e-09
5.0482e-08
1.47398e-09
5.04654e-08
1.46088e-09
5.04481e-08
1.44816e-09
5.04303e-08
1.43578e-09
5.04117e-08
1.42374e-09
5.03925e-08
1.41201e-09
5.03725e-08
1.40058e-09
5.03519e-08
1.38943e-09
5.03305e-08
1.37855e-09
5.03083e-08
1.36793e-09
5.02853e-08
1.35754e-09
5.02615e-08
1.34739e-09
5.02369e-08
1.33745e-09
5.02114e-08
1.32771e-09
5.01851e-08
1.31817e-09
5.01579e-08
1.30881e-09
5.01297e-08
1.29962e-09
5.01007e-08
1.29059e-09
5.00707e-08
1.2817e-09
5.00398e-08
1.27296e-09
5.00079e-08
1.26434e-09
4.9975e-08
1.25584e-09
4.99412e-08
1.24746e-09
4.99063e-08
1.23917e-09
4.98705e-08
1.23097e-09
4.98336e-08
1.22285e-09
4.97957e-08
1.2148e-09
4.97568e-08
1.20682e-09
4.97168e-08
1.1989e-09
4.96758e-08
1.19103e-09
4.96338e-08
1.18319e-09
4.95907e-08
1.1754e-09
4.95466e-08
1.16763e-09
4.95014e-08
1.15989e-09
4.94552e-08
1.15217e-09
4.94079e-08
1.14448e-09
4.93596e-08
1.1368e-09
4.93103e-08
1.12914e-09
4.92599e-08
1.12151e-09
4.92085e-08
1.1139e-09
4.9156e-08
1.10632e-09
4.91025e-08
1.09879e-09
4.9048e-08
1.09132e-09
4.89925e-08
1.08392e-09
4.8936e-08
1.07663e-09
4.88784e-08
1.06947e-09
4.88198e-08
1.06249e-09
4.87603e-08
1.05573e-09
4.86998e-08
1.04928e-09
4.86383e-08
1.04319e-09
4.85761e-08
1.03754e-09
4.85135e-08
1.0322e-09
4.8451e-08
1.02642e-09
4.83895e-08
1.01728e-09
9.95094e-10
5.12909e-08
1.95491e-09
-5.12213e-08
5.13787e-08
2.10455e-09
5.14798e-08
2.23667e-09
5.15893e-08
2.34717e-09
5.17023e-08
2.4341e-09
5.18147e-08
2.49731e-09
5.19234e-08
2.53783e-09
5.20256e-08
2.55749e-09
5.21195e-08
2.55868e-09
5.22037e-08
2.54419e-09
5.22776e-08
2.51703e-09
5.23413e-08
2.48013e-09
5.23949e-08
2.43628e-09
5.24392e-08
2.38793e-09
5.24752e-08
2.33718e-09
5.25037e-08
2.2857e-09
5.25259e-08
2.23476e-09
5.25427e-08
2.18527e-09
5.2555e-08
2.13783e-09
5.25636e-08
2.09277e-09
5.25691e-08
2.05025e-09
5.25722e-08
2.01027e-09
5.25733e-08
1.97274e-09
5.25729e-08
1.93753e-09
5.2571e-08
1.90448e-09
5.25681e-08
1.87339e-09
5.25644e-08
1.8441e-09
5.25599e-08
1.81645e-09
5.25547e-08
1.79027e-09
5.25491e-08
1.76543e-09
5.2543e-08
1.74182e-09
5.25365e-08
1.71932e-09
5.25296e-08
1.69783e-09
5.25225e-08
1.67729e-09
5.25151e-08
1.65761e-09
5.25075e-08
1.63872e-09
5.24996e-08
1.62058e-09
5.24916e-08
1.60313e-09
5.24833e-08
1.58632e-09
5.24749e-08
1.57011e-09
5.24662e-08
1.55446e-09
5.24574e-08
1.53935e-09
5.24483e-08
1.52474e-09
5.24391e-08
1.5106e-09
5.24297e-08
1.49691e-09
5.242e-08
1.48364e-09
5.24101e-08
1.47077e-09
5.24e-08
1.45829e-09
5.23896e-08
1.44617e-09
5.23789e-08
1.4344e-09
5.2368e-08
1.42296e-09
5.23567e-08
1.41183e-09
5.23451e-08
1.401e-09
5.23332e-08
1.39046e-09
5.2321e-08
1.38019e-09
5.23083e-08
1.37019e-09
5.22953e-08
1.36043e-09
5.22818e-08
1.3509e-09
5.2268e-08
1.3416e-09
5.22536e-08
1.33251e-09
5.22388e-08
1.32363e-09
5.22235e-08
1.31493e-09
5.22077e-08
1.30641e-09
5.21913e-08
1.29806e-09
5.21744e-08
1.28987e-09
5.21569e-08
1.28182e-09
5.21388e-08
1.27392e-09
5.21202e-08
1.26614e-09
5.21008e-08
1.25848e-09
5.20809e-08
1.25092e-09
5.20603e-08
1.24347e-09
5.2039e-08
1.2361e-09
5.2017e-08
1.22882e-09
5.19943e-08
1.2216e-09
5.19708e-08
1.21446e-09
5.19467e-08
1.20737e-09
5.19217e-08
1.20033e-09
5.1896e-08
1.19333e-09
5.18696e-08
1.18638e-09
5.18423e-08
1.17946e-09
5.18142e-08
1.17257e-09
5.17853e-08
1.16571e-09
5.17555e-08
1.15889e-09
5.17249e-08
1.1521e-09
5.16935e-08
1.14535e-09
5.16612e-08
1.13864e-09
5.1628e-08
1.13199e-09
5.15939e-08
1.12541e-09
5.15589e-08
1.11891e-09
5.1523e-08
1.11253e-09
5.14862e-08
1.10629e-09
5.14484e-08
1.10024e-09
5.14097e-08
1.09441e-09
5.13701e-08
1.08887e-09
5.13297e-08
1.08366e-09
5.12885e-08
1.07877e-09
5.12467e-08
1.07398e-09
5.12047e-08
1.06845e-09
5.11623e-08
1.05966e-09
1.04105e-09
5.32612e-08
1.89057e-09
-5.31969e-08
5.3341e-08
2.02471e-09
5.34329e-08
2.14481e-09
5.35327e-08
2.24739e-09
5.36364e-08
2.33039e-09
5.37405e-08
2.39321e-09
5.38419e-08
2.43636e-09
5.39383e-08
2.46109e-09
5.40278e-08
2.46924e-09
5.4109e-08
2.46299e-09
5.41812e-08
2.44479e-09
5.42442e-08
2.4171e-09
5.42982e-08
2.38229e-09
5.43437e-08
2.34252e-09
5.43812e-08
2.29964e-09
5.44117e-08
2.25521e-09
5.4436e-08
2.21047e-09
5.44549e-08
2.16631e-09
5.44694e-08
2.12339e-09
5.448e-08
2.08212e-09
5.44875e-08
2.04274e-09
5.44924e-08
2.00536e-09
5.44952e-08
1.96997e-09
5.44962e-08
1.93651e-09