/*--------------------------------*- C++ -*----------------------------------*\
| =========                 |                                                 |
| \\      /  F ield         | OpenFOAM: The Open Source CFD Toolbox           |
|  \\    /   O peration     | Version:  2.3.0                                 |
|   \\  /    A nd           | Web:      www.OpenFOAM.org                      |
|    \\/     M anipulation  |                                                 |
\*---------------------------------------------------------------------------*/
FoamFile
{
    version     2.0;
    format      ascii;
    class       volVectorField;
    location    "0.75";
    object      U_0;
}
// * * * * * * * * * * * * * * * * * * * * * * * * * * * * * * * * * * * * * //

dimensions      [0 1 -1 0 0 0 0];

internalField   nonuniform List<vector> 
3105
(
(0.171529 0.00584553 0)
(0.154904 0.00598858 0)
(0.139082 0.00560996 0)
(0.124077 0.00502395 0)
(0.110268 0.00436656 0)
(0.0978503 0.00369686 0)
(0.0868526 0.00305251 0)
(0.0772436 0.0024597 0)
(0.0689669 0.00193466 0)
(0.0619374 0.00148578 0)
(0.0560418 0.00111503 0)
(0.0511466 0.000819126 0)
(0.0471099 0.00059072 0)
(0.0437911 0.000420052 0)
(0.041059 0.000296496 0)
(0.0387965 0.000209797 0)
(0.0369038 0.00015084 0)
(0.0352987 0.000112003 0)
(0.0339159 8.72201e-05 0)
(0.0327051 7.18672e-05 0)
(0.0316281 6.2564e-05 0)
(0.0306568 5.69443e-05 0)
(0.0297706 5.34277e-05 0)
(0.0289546 5.10139e-05 0)
(0.0281977 4.91084e-05 0)
(0.0274918 4.7386e-05 0)
(0.0268307 4.56905e-05 0)
(0.0262097 4.39639e-05 0)
(0.0256248 4.22005e-05 0)
(0.0250727 4.04183e-05 0)
(0.0245506 3.86426e-05 0)
(0.024056 3.68979e-05 0)
(0.0235868 3.52039e-05 0)
(0.0231409 3.35748e-05 0)
(0.0227166 3.20192e-05 0)
(0.0223123 3.05418e-05 0)
(0.0219265 2.91439e-05 0)
(0.0215579 2.78242e-05 0)
(0.0212053 2.65804e-05 0)
(0.0208677 2.5409e-05 0)
(0.0205439 2.4306e-05 0)
(0.0202331 2.32674e-05 0)
(0.0199346 2.22889e-05 0)
(0.0196474 2.13668e-05 0)
(0.019371 2.0497e-05 0)
(0.0191048 1.96762e-05 0)
(0.018848 1.89009e-05 0)
(0.0186002 1.81681e-05 0)
(0.0183609 1.7475e-05 0)
(0.0181297 1.68189e-05 0)
(0.017906 1.61973e-05 0)
(0.0176896 1.5608e-05 0)
(0.01748 1.5049e-05 0)
(0.0172769 1.45182e-05 0)
(0.0170799 1.4014e-05 0)
(0.0168889 1.35346e-05 0)
(0.0167034 1.30786e-05 0)
(0.0165232 1.26444e-05 0)
(0.0163482 1.22308e-05 0)
(0.016178 1.18366e-05 0)
(0.0160124 1.14605e-05 0)
(0.0158513 1.11016e-05 0)
(0.0156944 1.07588e-05 0)
(0.0155415 1.04312e-05 0)
(0.0153926 1.0118e-05 0)
(0.0152474 9.81831e-06 0)
(0.0151057 9.5315e-06 0)
(0.0149675 9.25682e-06 0)
(0.0148326 8.99367e-06 0)
(0.0147009 8.74144e-06 0)
(0.0145722 8.49958e-06 0)
(0.0144465 8.26764e-06 0)
(0.0143236 8.04512e-06 0)
(0.0142034 7.83158e-06 0)
(0.0140859 7.6267e-06 0)
(0.0139709 7.43009e-06 0)
(0.0138583 7.24146e-06 0)
(0.0137481 7.06053e-06 0)
(0.0136401 6.88705e-06 0)
(0.0135344 6.72083e-06 0)
(0.0134308 6.56168e-06 0)
(0.0133291 6.40947e-06 0)
(0.0132295 6.26409e-06 0)
(0.0131317 6.1255e-06 0)
(0.0130358 5.99367e-06 0)
(0.0129416 5.86861e-06 0)
(0.012849 5.75044e-06 0)
(0.0127581 5.63927e-06 0)
(0.0126686 5.53536e-06 0)
(0.0125806 5.43908e-06 0)
(0.0124939 5.35095e-06 0)
(0.0124084 5.27188e-06 0)
(0.0123241 5.20335e-06 0)
(0.0122407 5.14807e-06 0)
(0.0121582 5.11142e-06 0)
(0.0120762 5.10558e-06 0)
(0.0119943 5.16633e-06 0)
(0.0119108 5.31824e-06 0)
(0.0118391 4.91569e-06 0)
(0.0116116 3.17316e-05 0)
(0.190555 0.00926523 0)
(0.188183 0.00988417 0)
(0.184293 0.0097221 0)
(0.179166 0.00924376 0)
(0.173268 0.00861833 0)
(0.166956 0.00790112 0)
(0.16046 0.00713048 0)
(0.153949 0.00634159 0)
(0.147557 0.00556447 0)
(0.141384 0.00482378 0)
(0.135499 0.00413881 0)
(0.129943 0.0035229 0)
(0.124736 0.00298326 0)
(0.119881 0.0025213 0)
(0.115373 0.00213376 0)
(0.111195 0.001814 0)
(0.107328 0.00155344 0)
(0.10375 0.00134277 0)
(0.100437 0.00117292 0)
(0.0973648 0.00103568 0)
(0.0945125 0.000924024 0)
(0.0918587 0.00083221 0)
(0.0893842 0.000755698 0)
(0.0870719 0.000691003 0)
(0.084906 0.000635502 0)
(0.0828728 0.000587249 0)
(0.08096 0.000544807 0)
(0.0791567 0.000507113 0)
(0.0774532 0.000473372 0)
(0.0758409 0.00044298 0)
(0.0743123 0.000415467 0)
(0.0728606 0.000390458 0)
(0.0714797 0.000367646 0)
(0.0701642 0.000346776 0)
(0.0689092 0.000327629 0)
(0.0677105 0.000310018 0)
(0.066564 0.000293781 0)
(0.0654661 0.000278776 0)
(0.0644137 0.000264879 0)
(0.0634038 0.00025198 0)
(0.0624336 0.000239984 0)
(0.0615008 0.000228806 0)
(0.0606032 0.000218371 0)
(0.0597385 0.000208612 0)
(0.058905 0.000199473 0)
(0.0581009 0.000190899 0)
(0.0573246 0.000182846 0)
(0.0565746 0.00017527 0)
(0.0558495 0.000168136 0)
(0.055148 0.000161408 0)
(0.0544689 0.000155058 0)
(0.0538111 0.000149057 0)
(0.0531736 0.00014338 0)
(0.0525553 0.000138005 0)
(0.0519554 0.000132911 0)
(0.0513731 0.000128078 0)
(0.0508074 0.00012349 0)
(0.0502577 0.00011913 0)
(0.0497233 0.000114984 0)
(0.0492035 0.000111038 0)
(0.0486977 0.000107279 0)
(0.0482052 0.000103696 0)
(0.0477256 0.000100278 0)
(0.0472583 9.7015e-05 0)
(0.0468028 9.38978e-05 0)
(0.0463587 9.09179e-05 0)
(0.0459254 8.80673e-05 0)
(0.0455027 8.53386e-05 0)
(0.0450901 8.2725e-05 0)
(0.0446872 8.02201e-05 0)
(0.0442938 7.7818e-05 0)
(0.0439093 7.55133e-05 0)
(0.0435336 7.33009e-05 0)
(0.0431663 7.1176e-05 0)
(0.0428072 6.91345e-05 0)
(0.042456 6.71723e-05 0)
(0.0421124 6.52858e-05 0)
(0.0417761 6.34717e-05 0)
(0.041447 6.17269e-05 0)
(0.0411247 6.00487e-05 0)
(0.0408092 5.84347e-05 0)
(0.0405001 5.68828e-05 0)
(0.0401972 5.53912e-05 0)
(0.0399004 5.39583e-05 0)
(0.0396095 5.2583e-05 0)
(0.0393242 5.12644e-05 0)
(0.0390444 5.00022e-05 0)
(0.0387699 4.87963e-05 0)
(0.0385004 4.76474e-05 0)
(0.0382357 4.65567e-05 0)
(0.0379757 4.55268e-05 0)
(0.03772 4.4562e-05 0)
(0.0374685 4.367e-05 0)
(0.0372208 4.28655e-05 0)
(0.0369764 4.21782e-05 0)
(0.0367349 4.16792e-05 0)
(0.0364952 4.15566e-05 0)
(0.0362539 4.22707e-05 0)
(0.036027 4.7286e-05 0)
(0.0355677 0.000110432 0)
(0.193531 0.00893243 0)
(0.194273 0.00995614 0)
(0.194423 0.0103415 0)
(0.193798 0.0103681 0)
(0.192486 0.0101577 0)
(0.190605 0.00975626 0)
(0.188247 0.00920773 0)
(0.185502 0.00856104 0)
(0.182459 0.00786185 0)
(0.179206 0.00714912 0)
(0.175819 0.00645415 0)
(0.172362 0.00580003 0)
(0.168887 0.00520158 0)
(0.165433 0.00466608 0)
(0.162029 0.00419473 0)
(0.158697 0.00378437 0)
(0.155448 0.0034292 0)
(0.152292 0.00312223 0)
(0.149233 0.00285629 0)
(0.146273 0.00262474 0)
(0.14341 0.00242177 0)
(0.140644 0.00224254 0)
(0.137973 0.0020831 0)
(0.135395 0.00194028 0)
(0.132905 0.00181159 0)
(0.130502 0.00169504 0)
(0.128183 0.00158902 0)
(0.125945 0.00149226 0)
(0.123785 0.00140368 0)
(0.1217 0.00132239 0)
(0.119687 0.00124763 0)
(0.117743 0.00117873 0)
(0.115866 0.00111513 0)
(0.114053 0.00105631 0)
(0.112301 0.00100181 0)
(0.110608 0.000951244 0)
(0.108971 0.000904246 0)
(0.107388 0.000860494 0)
(0.105856 0.000819702 0)
(0.104373 0.000781611 0)
(0.102938 0.00074599 0)
(0.101548 0.000712632 0)
(0.100201 0.00068135 0)
(0.098895 0.000651977 0)
(0.0976288 0.000624362 0)
(0.0964004 0.000598367 0)
(0.0952083 0.00057387 0)
(0.094051 0.000550759 0)
(0.092927 0.000528932 0)
(0.0918349 0.000508298 0)
(0.0907733 0.000488772 0)
(0.0897412 0.000470277 0)
(0.0887372 0.000452743 0)
(0.0877603 0.000436106 0)
(0.0868093 0.000420306 0)
(0.0858834 0.00040529 0)
(0.0849814 0.000391007 0)
(0.0841025 0.00037741 0)
(0.0832458 0.000364458 0)
(0.0824106 0.00035211 0)
(0.0815958 0.00034033 0)
(0.080801 0.000329083 0)
(0.0800252 0.000318338 0)
(0.0792679 0.000308066 0)
(0.0785284 0.000298239 0)
(0.0778061 0.000288831 0)
(0.0771004 0.00027982 0)
(0.0764107 0.000271183 0)
(0.0757365 0.000262899 0)
(0.0750773 0.000254949 0)
(0.0744326 0.000247315 0)
(0.073802 0.000239981 0)
(0.073185 0.00023293 0)
(0.0725812 0.00022615 0)
(0.0719902 0.000219625 0)
(0.0714117 0.000213345 0)
(0.0708452 0.000207296 0)
(0.0702904 0.00020147 0)
(0.069747 0.000195856 0)
(0.0692146 0.000190445 0)
(0.068693 0.00018523 0)
(0.0681819 0.000180203 0)
(0.0676809 0.000175358 0)
(0.0671898 0.00017069 0)
(0.0667083 0.000166194 0)
(0.0662361 0.000161867 0)
(0.0657729 0.000157707 0)
(0.0653185 0.000153712 0)
(0.0648727 0.000149882 0)
(0.064435 0.000146221 0)
(0.0640053 0.000142733 0)
(0.0635831 0.000139427 0)
(0.0631682 0.000136323 0)
(0.0627601 0.000133454 0)
(0.0623584 0.000130893 0)
(0.0619622 0.000128809 0)
(0.0615701 0.000127659 0)
(0.061179 0.000128881 0)
(0.0607984 0.000142966 0)
(0.0602 0.000222081 0)
(0.194567 0.00831361 0)
(0.195676 0.0093982 0)
(0.196709 0.00999395 0)
(0.197446 0.0102589 0)
(0.197846 0.0102851 0)
(0.197913 0.0101113 0)
(0.197643 0.0097729 0)
(0.197043 0.00931155 0)
(0.196135 0.00876902 0)
(0.194955 0.00818282 0)
(0.193545 0.00758488 0)
(0.191946 0.00700054 0)
(0.190198 0.006448 0)
(0.188339 0.00593852 0)
(0.186398 0.00547737 0)
(0.184402 0.00506522 0)
(0.182369 0.00469955 0)
(0.180317 0.00437601 0)
(0.178256 0.00408944 0)
(0.176194 0.00383457 0)
(0.174138 0.00360654 0)
(0.172092 0.00340107 0)
(0.170061 0.00321456 0)
(0.168047 0.00304408 0)
(0.166052 0.00288726 0)
(0.164078 0.00274224 0)
(0.162128 0.00260753 0)
(0.160203 0.00248196 0)
(0.158303 0.00236457 0)
(0.156431 0.00225458 0)
(0.154587 0.00215134 0)
(0.152772 0.00205431 0)
(0.150987 0.00196298 0)
(0.149233 0.00187694 0)
(0.147508 0.00179581 0)
(0.145815 0.00171923 0)
(0.144153 0.00164689 0)
(0.142523 0.00157852 0)
(0.140923 0.00151383 0)
(0.139354 0.00145259 0)
(0.137816 0.00139458 0)
(0.136309 0.00133959 0)
(0.134832 0.00128742 0)
(0.133385 0.0012379 0)
(0.131967 0.00119088 0)
(0.130578 0.00114618 0)
(0.129218 0.00110368 0)
(0.127886 0.00106324 0)
(0.126581 0.00102475 0)
(0.125303 0.000988076 0)
(0.124051 0.000953127 0)
(0.122826 0.000919801 0)
(0.121625 0.000888004 0)
(0.120449 0.000857651 0)
(0.119298 0.000828661 0)
(0.11817 0.000800959 0)
(0.117064 0.000774472 0)
(0.115982 0.000749136 0)
(0.114921 0.000724887 0)
(0.113882 0.000701666 0)
(0.112863 0.000679419 0)
(0.111865 0.000658094 0)
(0.110886 0.000637642 0)
(0.109927 0.000618017 0)
(0.108987 0.000599176 0)
(0.108065 0.000581079 0)
(0.107161 0.000563687 0)
(0.106274 0.000546964 0)
(0.105405 0.000530877 0)
(0.104552 0.000515393 0)
(0.103715 0.000500483 0)
(0.102895 0.000486119 0)
(0.102089 0.000472274 0)
(0.101299 0.000458923 0)
(0.100524 0.000446043 0)
(0.0997631 0.000433614 0)
(0.0990164 0.000421614 0)
(0.0982834 0.000410025 0)
(0.097564 0.00039883 0)
(0.0968577 0.000388013 0)
(0.0961644 0.000377559 0)
(0.0954837 0.000367455 0)
(0.0948154 0.000357691 0)
(0.0941592 0.000348256 0)
(0.0935148 0.000339141 0)
(0.0928819 0.000330339 0)
(0.0922604 0.000321846 0)
(0.0916499 0.000313659 0)
(0.0910502 0.000305778 0)
(0.090461 0.000298205 0)
(0.089882 0.000290949 0)
(0.0893128 0.000284026 0)
(0.0887532 0.000277464 0)
(0.0882026 0.000271321 0)
(0.0876606 0.000265715 0)
(0.0871264 0.000260927 0)
(0.0865986 0.000257714 0)
(0.0860745 0.000258628 0)
(0.085561 0.0002773 0)
(0.0848632 0.000353749 0)
(0.195303 0.00782327 0)
(0.19628 0.00882568 0)
(0.197339 0.00944826 0)
(0.198315 0.00978519 0)
(0.199157 0.00991013 0)
(0.199842 0.00985796 0)
(0.200345 0.00965554 0)
(0.200646 0.00933424 0)
(0.200734 0.00892725 0)
(0.200614 0.00846598 0)
(0.200299 0.00797836 0)
(0.199808 0.00748784 0)
(0.199164 0.00701244 0)
(0.19839 0.00656454 0)
(0.197508 0.00615128 0)
(0.196539 0.00577552 0)
(0.195498 0.00543692 0)
(0.1944 0.00513308 0)
(0.193256 0.00486045 0)
(0.192072 0.00461507 0)
(0.190857 0.00439304 0)
(0.189615 0.0041908 0)
(0.188349 0.00400529 0)
(0.187064 0.00383394 0)
(0.185762 0.00367467 0)
(0.184445 0.00352583 0)
(0.183117 0.00338609 0)
(0.181778 0.00325441 0)
(0.180431 0.00312994 0)
(0.179077 0.003012 0)
(0.17772 0.00290004 0)
(0.17636 0.00279357 0)
(0.174998 0.00269219 0)
(0.173637 0.00259556 0)
(0.172279 0.00250336 0)
(0.170923 0.00241531 0)
(0.169571 0.00233116 0)
(0.168226 0.00225069 0)
(0.166887 0.00217368 0)
(0.165555 0.00209994 0)
(0.164232 0.0020293 0)
(0.162918 0.00196159 0)
(0.161614 0.00189667 0)
(0.160321 0.0018344 0)
(0.159039 0.00177464 0)
(0.157769 0.00171727 0)
(0.156511 0.00166219 0)
(0.155266 0.00160928 0)
(0.154033 0.00155844 0)
(0.152814 0.00150958 0)
(0.151609 0.00146261 0)
(0.150417 0.00141744 0)
(0.14924 0.001374 0)
(0.148076 0.0013322 0)
(0.146927 0.00129198 0)
(0.145792 0.00125326 0)
(0.144672 0.00121598 0)
(0.143566 0.00118007 0)
(0.142474 0.00114548 0)
(0.141397 0.00111214 0)
(0.140334 0.00108001 0)
(0.139286 0.00104902 0)
(0.138252 0.00101913 0)
(0.137232 0.000990298 0)
(0.136226 0.000962467 0)
(0.135234 0.000935597 0)
(0.134256 0.000909646 0)
(0.133292 0.000884574 0)
(0.132341 0.000860342 0)
(0.131405 0.000836916 0)
(0.130481 0.00081426 0)
(0.129571 0.00079234 0)
(0.128674 0.000771127 0)
(0.12779 0.00075059 0)
(0.126919 0.000730702 0)
(0.126061 0.000711435 0)
(0.125215 0.000692766 0)
(0.124382 0.000674672 0)
(0.123561 0.00065713 0)
(0.122752 0.00064012 0)
(0.121956 0.000623626 0)
(0.121171 0.000607629 0)
(0.120398 0.000592115 0)
(0.119637 0.000577072 0)
(0.118888 0.000562489 0)
(0.11815 0.000548356 0)
(0.117422 0.000534669 0)
(0.116706 0.000521423 0)
(0.116001 0.00050862 0)
(0.115307 0.000496264 0)
(0.114623 0.000484368 0)
(0.113949 0.000472955 0)
(0.113286 0.000462066 0)
(0.112631 0.000451781 0)
(0.111987 0.000442265 0)
(0.11135 0.000433903 0)
(0.110721 0.000427714 0)
(0.110098 0.000426994 0)
(0.10949 0.000444707 0)
(0.108726 0.000505186 0)
(0.195931 0.00739737 0)
(0.196741 0.00828796 0)
(0.197665 0.00888853 0)
(0.198589 0.00924819 0)
(0.19946 0.00942009 0)
(0.200256 0.00943447 0)
(0.200954 0.00931375 0)
(0.201531 0.00908317 0)
(0.201972 0.0087701 0)
(0.202272 0.00840114 0)
(0.202432 0.00800044 0)
(0.202461 0.0075887 0)
(0.20237 0.00718246 0)
(0.202173 0.00679368 0)
(0.201884 0.00642997 0)
(0.201517 0.00609517 0)
(0.201084 0.00579023 0)
(0.200595 0.00551406 0)
(0.200058 0.00526432 0)
(0.19948 0.00503811 0)
(0.198866 0.00483233 0)
(0.198219 0.00464407 0)
(0.197542 0.00447072 0)
(0.196838 0.00431002 0)
(0.196108 0.00416012 0)
(0.195353 0.00401948 0)
(0.194576 0.00388689 0)
(0.193778 0.00376134 0)
(0.192959 0.00364207 0)
(0.192122 0.00352842 0)
(0.191267 0.00341987 0)
(0.190395 0.00331599 0)
(0.189509 0.00321641 0)
(0.188608 0.00312083 0)
(0.187694 0.00302896 0)
(0.186769 0.00294058 0)
(0.185833 0.00285547 0)
(0.184888 0.00277345 0)
(0.183934 0.00269435 0)
(0.182972 0.00261801 0)
(0.182004 0.00254431 0)
(0.18103 0.0024731 0)
(0.180051 0.00240429 0)
(0.179068 0.00233775 0)
(0.178082 0.0022734 0)
(0.177094 0.00221115 0)
(0.176104 0.0021509 0)
(0.175113 0.00209258 0)
(0.174122 0.00203612 0)
(0.173131 0.00198144 0)
(0.17214 0.00192848 0)
(0.171152 0.00187718 0)
(0.170165 0.00182748 0)
(0.169181 0.00177931 0)
(0.1682 0.00173262 0)
(0.167222 0.00168737 0)
(0.166248 0.0016435 0)
(0.165278 0.00160096 0)
(0.164313 0.0015597 0)
(0.163353 0.00151968 0)
(0.162397 0.00148086 0)
(0.161448 0.0014432 0)
(0.160504 0.00140664 0)
(0.159567 0.00137116 0)
(0.158635 0.00133671 0)
(0.157711 0.00130326 0)
(0.156792 0.00127077 0)
(0.155881 0.00123921 0)
(0.154977 0.00120854 0)
(0.154081 0.00117873 0)
(0.153191 0.00114975 0)
(0.152309 0.00112157 0)
(0.151435 0.00109417 0)
(0.150569 0.00106751 0)
(0.149711 0.00104157 0)
(0.14886 0.00101632 0)
(0.148018 0.000991749 0)
(0.147184 0.000967823 0)
(0.146358 0.000944527 0)
(0.145541 0.00092184 0)
(0.144732 0.000899746 0)
(0.143931 0.00087823 0)
(0.143139 0.000857276 0)
(0.142356 0.000836875 0)
(0.141581 0.000817016 0)
(0.140815 0.000797692 0)
(0.140057 0.0007789 0)
(0.139308 0.00076064 0)
(0.138568 0.000742914 0)
(0.137836 0.000725734 0)
(0.137112 0.000709118 0)
(0.136397 0.000693098 0)
(0.135691 0.000677729 0)
(0.134992 0.000663113 0)
(0.134301 0.000649455 0)
(0.133618 0.000637215 0)
(0.132941 0.000627551 0)
(0.132272 0.000623809 0)
(0.13162 0.00063586 0)
(0.130836 0.000672452 0)
(0.196481 0.00703026 0)
(0.197154 0.00781406 0)
(0.197941 0.00837807 0)
(0.198759 0.00874082 0)
(0.19956 0.00893666 0)
(0.20032 0.00899048 0)
(0.201017 0.00892195 0)
(0.201634 0.0087524 0)
(0.202158 0.00850511 0)
(0.202582 0.00820302 0)
(0.202905 0.00786716 0)
(0.203131 0.00751582 0)
(0.203267 0.00716392 0)
(0.203322 0.00682266 0)
(0.203306 0.00649964 0)
(0.20323 0.00619918 0)
(0.203103 0.00592307 0)
(0.202933 0.00567114 0)
(0.202725 0.00544201 0)
(0.202485 0.00523357 0)
(0.202217 0.00504343 0)
(0.201923 0.00486919 0)
(0.201606 0.00470861 0)
(0.201266 0.00455973 0)
(0.200905 0.00442085 0)
(0.200524 0.00429055 0)
(0.200123 0.00416768 0)
(0.199703 0.0040513 0)
(0.199265 0.00394062 0)
(0.198808 0.00383502 0)
(0.198333 0.00373399 0)
(0.197841 0.0036371 0)
(0.197332 0.00354399 0)
(0.196808 0.00345435 0)
(0.196267 0.00336793 0)
(0.195712 0.0032845 0)
(0.195142 0.00320385 0)
(0.194558 0.00312582 0)
(0.193961 0.00305025 0)
(0.193351 0.00297701 0)
(0.192729 0.00290596 0)
(0.192095 0.002837 0)
(0.19145 0.00277003 0)
(0.190795 0.00270497 0)
(0.19013 0.00264171 0)
(0.189455 0.0025802 0)
(0.188772 0.00252037 0)
(0.18808 0.00246214 0)
(0.187381 0.00240546 0)
(0.186674 0.00235028 0)
(0.18596 0.00229654 0)
(0.185241 0.00224419 0)
(0.184515 0.0021932 0)
(0.183784 0.00214351 0)
(0.183049 0.00209509 0)
(0.182309 0.0020479 0)
(0.181565 0.00200189 0)
(0.180818 0.00195704 0)
(0.180067 0.0019133 0)
(0.179314 0.00187064 0)
(0.178559 0.00182904 0)
(0.177802 0.00178845 0)
(0.177043 0.00174884 0)
(0.176283 0.0017102 0)
(0.175522 0.00167248 0)
(0.174761 0.00163566 0)
(0.173999 0.00159971 0)
(0.173238 0.00156461 0)
(0.172477 0.00153033 0)
(0.171717 0.00149683 0)
(0.170958 0.00146411 0)
(0.1702 0.00143214 0)
(0.169444 0.00140088 0)
(0.16869 0.00137033 0)
(0.167938 0.00134046 0)
(0.167188 0.00131125 0)
(0.166441 0.00128268 0)
(0.165696 0.00125473 0)
(0.164955 0.0012274 0)
(0.164217 0.00120066 0)
(0.163482 0.0011745 0)
(0.162751 0.00114891 0)
(0.162024 0.00112388 0)
(0.161301 0.00109941 0)
(0.160582 0.00107548 0)
(0.159867 0.0010521 0)
(0.159157 0.00102927 0)
(0.158452 0.00100698 0)
(0.157751 0.000985262 0)
(0.157055 0.000964119 0)
(0.156364 0.000943581 0)
(0.155678 0.000923691 0)
(0.154997 0.000904517 0)
(0.154321 0.000886181 0)
(0.153649 0.000868911 0)
(0.152983 0.000853193 0)
(0.152321 0.000840144 0)
(0.151666 0.000832503 0)
(0.15103 0.00083599 0)
(0.150278 0.00084623 0)
(0.196965 0.00671203 0)
(0.197532 0.00739946 0)
(0.198202 0.00791979 0)
(0.198915 0.00827398 0)
(0.199631 0.0084818 0)
(0.200322 0.0085623 0)
(0.20097 0.00853221 0)
(0.201558 0.00840949 0)
(0.202076 0.00821376 0)
(0.202516 0.00796474 0)
(0.202877 0.00768078 0)
(0.203161 0.00737807 0)
(0.203374 0.0070701 0)
(0.203523 0.00676734 0)
(0.203616 0.00647721 0)
(0.203662 0.00620439 0)
(0.203667 0.00595124 0)
(0.203639 0.00571838 0)
(0.203582 0.00550517 0)
(0.203503 0.00531023 0)
(0.203403 0.00513178 0)
(0.203286 0.00496791 0)
(0.203153 0.00481677 0)
(0.203006 0.00467666 0)
(0.202844 0.00454606 0)
(0.20267 0.00442371 0)
(0.202482 0.0043085 0)
(0.202281 0.00419954 0)
(0.202068 0.00409609 0)
(0.201841 0.00399751 0)
(0.201603 0.0039033 0)
(0.201352 0.00381302 0)
(0.201088 0.00372631 0)
(0.200812 0.00364286 0)
(0.200524 0.00356239 0)
(0.200224 0.00348468 0)
(0.199912 0.00340953 0)
(0.199588 0.00333676 0)
(0.199252 0.0032662 0)
(0.198905 0.00319772 0)
(0.198547 0.0031312 0)
(0.198178 0.00306653 0)
(0.197797 0.0030036 0)
(0.197406 0.00294233 0)
(0.197005 0.00288263 0)
(0.196593 0.00282444 0)
(0.196172 0.00276768 0)
(0.19574 0.0027123 0)
(0.195299 0.00265824 0)
(0.194849 0.00260544 0)
(0.19439 0.00255388 0)
(0.193922 0.00250349 0)
(0.193446 0.00245423 0)
(0.192962 0.00240608 0)
(0.192469 0.00235899 0)
(0.191969 0.00231293 0)
(0.191462 0.00226787 0)
(0.190948 0.00222377 0)
(0.190427 0.00218061 0)
(0.189899 0.00213835 0)
(0.189365 0.00209698 0)
(0.188826 0.00205646 0)
(0.18828 0.00201677 0)
(0.187729 0.00197788 0)
(0.187173 0.00193977 0)
(0.186613 0.00190242 0)
(0.186047 0.0018658 0)
(0.185478 0.00182989 0)
(0.184904 0.00179468 0)
(0.184327 0.00176013 0)
(0.183746 0.00172624 0)
(0.183162 0.00169298 0)
(0.182575 0.00166034 0)
(0.181985 0.00162829 0)
(0.181393 0.00159683 0)
(0.180798 0.00156593 0)
(0.180202 0.00153558 0)
(0.179604 0.00150578 0)
(0.179005 0.0014765 0)
(0.178404 0.00144773 0)
(0.177803 0.00141948 0)
(0.1772 0.00139173 0)
(0.176598 0.00136447 0)
(0.175994 0.00133771 0)
(0.175391 0.00131144 0)
(0.174788 0.00128567 0)
(0.174186 0.0012604 0)
(0.173584 0.00123565 0)
(0.172982 0.00121142 0)
(0.172382 0.00118775 0)
(0.171782 0.00116467 0)
(0.171184 0.00114222 0)
(0.170587 0.0011205 0)
(0.169991 0.00109963 0)
(0.169397 0.00107984 0)
(0.168804 0.00106159 0)
(0.168214 0.00104578 0)
(0.167628 0.00103414 0)
(0.167059 0.00102832 0)
(0.166389 0.00101479 0)
(0.197392 0.00643092 0)
(0.197876 0.00703335 0)
(0.198449 0.00750787 0)
(0.199069 0.00784677 0)
(0.199703 0.00805945 0)
(0.200325 0.00815922 0)
(0.200914 0.00815961 0)
(0.201458 0.00807538 0)
(0.201945 0.00792289 0)
(0.202369 0.00771888 0)
(0.202727 0.00747927 0)
(0.203021 0.00721837 0)
(0.203256 0.00694833 0)
(0.203436 0.00667886 0)
(0.203568 0.00641717 0)
(0.20366 0.00616807 0)
(0.203718 0.00593441 0)
(0.203748 0.00571738 0)
(0.203755 0.00551702 0)
(0.203743 0.00533258 0)
(0.203717 0.00516283 0)
(0.203677 0.00500636 0)
(0.203627 0.00486167 0)
(0.203567 0.00472735 0)
(0.203498 0.00460211 0)
(0.203421 0.0044848 0)
(0.203337 0.00437446 0)
(0.203244 0.00427023 0)
(0.203145 0.00417142 0)
(0.203038 0.00407743 0)
(0.202924 0.00398775 0)
(0.202803 0.00390196 0)
(0.202674 0.0038197 0)
(0.202538 0.00374065 0)
(0.202394 0.00366454 0)
(0.202243 0.00359113 0)
(0.202084 0.00352022 0)
(0.201917 0.00345163 0)
(0.201743 0.00338519 0)
(0.201561 0.00332076 0)
(0.201371 0.00325821 0)
(0.201174 0.00319743 0)
(0.200968 0.0031383 0)
(0.200755 0.00308074 0)
(0.200534 0.00302467 0)
(0.200305 0.00297 0)
(0.200068 0.00291666 0)
(0.199824 0.00286459 0)
(0.199572 0.00281374 0)
(0.199312 0.00276405 0)
(0.199044 0.00271547 0)
(0.198768 0.00266796 0)
(0.198485 0.00262146 0)
(0.198195 0.00257595 0)
(0.197897 0.00253138 0)
(0.197592 0.00248772 0)
(0.197279 0.00244494 0)
(0.196959 0.00240301 0)
(0.196633 0.00236189 0)
(0.196299 0.00232155 0)
(0.195958 0.00228198 0)
(0.195611 0.00224314 0)
(0.195257 0.00220501 0)
(0.194896 0.00216756 0)
(0.194529 0.00213078 0)
(0.194156 0.00209463 0)
(0.193777 0.00205911 0)
(0.193392 0.00202418 0)
(0.193002 0.00198983 0)
(0.192605 0.00195604 0)
(0.192203 0.00192279 0)
(0.191796 0.00189006 0)
(0.191384 0.00185784 0)
(0.190967 0.00182612 0)
(0.190545 0.00179487 0)
(0.190118 0.00176409 0)
(0.189687 0.00173376 0)
(0.189252 0.00170387 0)
(0.188812 0.00167442 0)
(0.188369 0.00164539 0)
(0.187922 0.00161677 0)
(0.187472 0.00158857 0)
(0.187018 0.00156079 0)
(0.186561 0.00153341 0)
(0.186101 0.00150645 0)
(0.185638 0.00147991 0)
(0.185173 0.00145381 0)
(0.184705 0.00142815 0)
(0.184234 0.00140296 0)
(0.183762 0.00137827 0)
(0.183288 0.00135412 0)
(0.182811 0.00133057 0)
(0.182333 0.0013077 0)
(0.181853 0.00128564 0)
(0.181372 0.00126462 0)
(0.18089 0.00124499 0)
(0.180407 0.00122733 0)
(0.179928 0.00121228 0)
(0.17946 0.00119826 0)
(0.178904 0.00116721 0)
(0.197769 0.0061787 0)
(0.198187 0.00670754 0)
(0.19868 0.00713742 0)
(0.199219 0.00745724 0)
(0.199779 0.00766961 0)
(0.200335 0.00778293 0)
(0.200868 0.00780753 0)
(0.201366 0.00775536 0)
(0.201817 0.00763984 0)
(0.202216 0.00747502 0)
(0.20256 0.00727459 0)
(0.20285 0.00705106 0)
(0.203087 0.0068153 0)
(0.203276 0.00657621 0)
(0.203423 0.00634066 0)
(0.203533 0.0061135 0)
(0.203613 0.00589786 0)
(0.203667 0.00569541 0)
(0.203701 0.00550673 0)
(0.203718 0.00533159 0)
(0.203721 0.00516929 0)
(0.203714 0.00501884 0)
(0.203698 0.0048791 0)
(0.203674 0.00474896 0)
(0.203645 0.00462735 0)
(0.20361 0.00451328 0)
(0.20357 0.00440591 0)
(0.203525 0.00430447 0)
(0.203476 0.00420833 0)
(0.203424 0.00411693 0)
(0.203367 0.0040298 0)
(0.203306 0.00394653 0)
(0.203242 0.00386677 0)
(0.203173 0.00379022 0)
(0.203101 0.00371661 0)
(0.203025 0.00364571 0)
(0.202944 0.00357732 0)
(0.20286 0.00351125 0)
(0.202771 0.00344735 0)
(0.202679 0.00338547 0)
(0.202581 0.00332547 0)
(0.20248 0.00326725 0)
(0.202374 0.00321069 0)
(0.202264 0.0031557 0)
(0.202148 0.00310219 0)
(0.202029 0.00305008 0)
(0.201904 0.0029993 0)
(0.201774 0.00294978 0)
(0.20164 0.00290145 0)
(0.2015 0.00285427 0)
(0.201356 0.00280818 0)
(0.201206 0.00276313 0)
(0.201051 0.00271907 0)
(0.20089 0.00267596 0)
(0.200724 0.00263377 0)
(0.200553 0.00259244 0)
(0.200377 0.00255195 0)
(0.200195 0.00251226 0)
(0.200007 0.00247334 0)
(0.199815 0.00243516 0)
(0.199616 0.00239769 0)
(0.199412 0.0023609 0)
(0.199203 0.00232476 0)
(0.198988 0.00228924 0)
(0.198767 0.00225433 0)
(0.198542 0.00222 0)
(0.19831 0.00218622 0)
(0.198073 0.00215297 0)
(0.197831 0.00212024 0)
(0.197584 0.002088 0)
(0.197331 0.00205623 0)
(0.197072 0.00202491 0)
(0.196809 0.00199403 0)
(0.19654 0.00196358 0)
(0.196267 0.00193352 0)
(0.195988 0.00190387 0)
(0.195704 0.00187459 0)
(0.195416 0.00184568 0)
(0.195122 0.00181713 0)
(0.194824 0.00178893 0)
(0.194522 0.00176107 0)
(0.194214 0.00173356 0)
(0.193903 0.00170639 0)
(0.193587 0.00167956 0)
(0.193266 0.00165308 0)
(0.192942 0.00162696 0)
(0.192614 0.0016012 0)
(0.192281 0.00157583 0)
(0.191945 0.00155086 0)
(0.191605 0.00152635 0)
(0.191261 0.00150231 0)
(0.190913 0.00147883 0)
(0.190562 0.00145598 0)
(0.190208 0.00143388 0)
(0.18985 0.00141271 0)
(0.18949 0.00139271 0)
(0.189128 0.00137414 0)
(0.188766 0.00135666 0)
(0.188412 0.00133676 0)
(0.187981 0.00129598 0)
(0.198102 0.00594978 0)
(0.198467 0.00641546 0)
(0.198893 0.00680356 0)
(0.199363 0.00710243 0)
(0.199857 0.00731064 0)
(0.200352 0.00743276 0)
(0.200833 0.00747632 0)
(0.201286 0.00745073 0)
(0.201702 0.00736685 0)
(0.202075 0.00723635 0)
(0.202401 0.00707081 0)
(0.20268 0.00688108 0)
(0.202913 0.00667678 0)
(0.203104 0.00646599 0)
(0.203256 0.00625514 0)
(0.203375 0.00604899 0)
(0.203466 0.00585082 0)
(0.203532 0.00566265 0)
(0.203579 0.00548546 0)
(0.20361 0.0053195 0)
(0.203628 0.00516448 0)
(0.203636 0.00501979 0)
(0.203635 0.00488465 0)
(0.203627 0.00475821 0)
(0.203614 0.00463963 0)
(0.203596 0.00452809 0)
(0.203575 0.00442286 0)
(0.20355 0.0043233 0)
(0.203522 0.00422884 0)
(0.203491 0.00413896 0)
(0.203459 0.00405325 0)
(0.203424 0.00397132 0)
(0.203387 0.00389284 0)
(0.203347 0.00381754 0)
(0.203306 0.00374516 0)
(0.203264 0.00367549 0)
(0.203219 0.00360832 0)
(0.203172 0.00354348 0)
(0.203124 0.00348082 0)
(0.203073 0.00342019 0)
(0.203021 0.00336147 0)
(0.202966 0.00330455 0)
(0.20291 0.00324932 0)
(0.202851 0.00319568 0)
(0.20279 0.00314355 0)
(0.202727 0.00309286 0)
(0.202662 0.00304351 0)
(0.202594 0.00299546 0)
(0.202523 0.00294863 0)
(0.20245 0.00290297 0)
(0.202374 0.00285841 0)
(0.202296 0.00281492 0)
(0.202214 0.00277245 0)
(0.20213 0.00273094 0)
(0.202042 0.00269036 0)
(0.201952 0.00265066 0)
(0.201858 0.00261181 0)
(0.201761 0.00257377 0)
(0.20166 0.0025365 0)
(0.201556 0.00249998 0)
(0.201449 0.00246416 0)
(0.201337 0.00242903 0)
(0.201223 0.00239454 0)
(0.201104 0.00236067 0)
(0.200982 0.00232739 0)
(0.200856 0.00229468 0)
(0.200726 0.00226252 0)
(0.200592 0.00223086 0)
(0.200454 0.00219971 0)
(0.200312 0.00216902 0)
(0.200166 0.00213878 0)
(0.200016 0.00210897 0)
(0.199862 0.00207958 0)
(0.199704 0.00205057 0)
(0.199541 0.00202194 0)
(0.199375 0.00199367 0)
(0.199204 0.00196575 0)
(0.199029 0.00193816 0)
(0.19885 0.0019109 0)
(0.198666 0.00188395 0)
(0.198479 0.0018573 0)
(0.198287 0.00183096 0)
(0.198091 0.00180492 0)
(0.197891 0.00177919 0)
(0.197686 0.00175376 0)
(0.197478 0.00172864 0)
(0.197265 0.00170386 0)
(0.197049 0.00167942 0)
(0.196828 0.00165535 0)
(0.196603 0.00163169 0)
(0.196374 0.00160848 0)
(0.196141 0.00158578 0)
(0.195904 0.00156367 0)
(0.195663 0.00154225 0)
(0.195419 0.00152166 0)
(0.195171 0.001502 0)
(0.19492 0.00148323 0)
(0.194669 0.00146441 0)
(0.19442 0.0014413 0)
(0.194108 0.00139805 0)
(0.198397 0.00574017 0)
(0.198718 0.00615182 0)
(0.199088 0.00650178 0)
(0.199499 0.00677921 0)
(0.199934 0.00698057 0)
(0.200374 0.00710771 0)
(0.200806 0.00716579 0)
(0.201217 0.00716201 0)
(0.201599 0.00710503 0)
(0.201945 0.00700441 0)
(0.202252 0.00686984 0)
(0.202518 0.00671064 0)
(0.202745 0.00653521 0)
(0.202934 0.00635081 0)
(0.203089 0.00616337 0)
(0.203212 0.00597749 0)
(0.20331 0.00579647 0)
(0.203384 0.00562254 0)
(0.203439 0.00545701 0)
(0.203479 0.00530047 0)
(0.203505 0.00515301 0)
(0.203522 0.00501435 0)
(0.203529 0.00488401 0)
(0.20353 0.0047614 0)
(0.203525 0.00464587 0)
(0.203516 0.0045368 0)
(0.203503 0.00443359 0)
(0.203487 0.00433568 0)
(0.203468 0.00424258 0)
(0.203447 0.00415386 0)
(0.203424 0.00406912 0)
(0.2034 0.00398804 0)
(0.203374 0.00391031 0)
(0.203347 0.00383567 0)
(0.203319 0.00376389 0)
(0.203289 0.00369476 0)
(0.203259 0.00362811 0)
(0.203229 0.00356377 0)
(0.203197 0.00350158 0)
(0.203165 0.00344143 0)
(0.203132 0.00338319 0)
(0.203098 0.00332675 0)
(0.203063 0.00327202 0)
(0.203028 0.00321889 0)
(0.202992 0.0031673 0)
(0.202955 0.00311715 0)
(0.202917 0.00306839 0)
(0.202878 0.00302094 0)
(0.202838 0.00297475 0)
(0.202798 0.00292975 0)
(0.202756 0.0028859 0)
(0.202713 0.00284314 0)
(0.202669 0.00280142 0)
(0.202623 0.00276071 0)
(0.202576 0.00272094 0)
(0.202528 0.0026821 0)
(0.202479 0.00264413 0)
(0.202427 0.002607 0)
(0.202374 0.00257067 0)
(0.20232 0.00253511 0)
(0.202263 0.00250028 0)
(0.202205 0.00246615 0)
(0.202145 0.0024327 0)
(0.202083 0.00239989 0)
(0.202018 0.00236769 0)
(0.201952 0.00233607 0)
(0.201883 0.00230501 0)
(0.201812 0.00227449 0)
(0.201738 0.00224446 0)
(0.201662 0.00221493 0)
(0.201584 0.00218585 0)
(0.201503 0.0021572 0)
(0.201419 0.00212898 0)
(0.201333 0.00210115 0)
(0.201243 0.0020737 0)
(0.201151 0.00204661 0)
(0.201056 0.00201986 0)
(0.200958 0.00199345 0)
(0.200857 0.00196736 0)
(0.200753 0.00194158 0)
(0.200646 0.0019161 0)
(0.200536 0.00189091 0)
(0.200422 0.00186602 0)
(0.200306 0.00184142 0)
(0.200186 0.00181713 0)
(0.200062 0.00179313 0)
(0.199936 0.00176946 0)
(0.199805 0.00174612 0)
(0.199672 0.00172314 0)
(0.199535 0.00170056 0)
(0.199394 0.00167841 0)
(0.19925 0.00165676 0)
(0.199102 0.00163567 0)
(0.198951 0.00161523 0)
(0.198796 0.00159551 0)
(0.198638 0.00157654 0)
(0.198477 0.00155804 0)
(0.198315 0.00153881 0)
(0.198152 0.00151485 0)
(0.197938 0.00147446 0)