/*--------------------------------*- C++ -*----------------------------------*\
| =========                 |                                                 |
| \\      /  F ield         | OpenFOAM: The Open Source CFD Toolbox           |
|  \\    /   O peration     | Version:  2.3.0                                 |
|   \\  /    A nd           | Web:      www.OpenFOAM.org                      |
|    \\/     M anipulation  |                                                 |
\*---------------------------------------------------------------------------*/
FoamFile
{
    version     2.0;
    format      ascii;
    class       surfaceScalarField;
    location    "0.55";
    object      phi;
}
// * * * * * * * * * * * * * * * * * * * * * * * * * * * * * * * * * * * * * //

dimensions      [0 3 -1 0 0 0 0];

internalField   nonuniform List<scalar> 
6598
(
2.81562e-08
2.8978e-09
-3.1054e-08
2.52798e-08
2.87645e-09
2.25818e-08
2.69797e-09
2.0096e-08
2.48577e-09
1.78389e-08
2.25713e-09
1.58212e-08
2.01773e-09
1.40452e-08
1.77593e-09
1.25056e-08
1.53965e-09
1.119e-08
1.31561e-09
1.00807e-08
1.1093e-09
9.15596e-09
9.24717e-10
8.39177e-09
7.64186e-10
7.76349e-09
6.28287e-10
7.2474e-09
5.16091e-10
6.82188e-09
4.25517e-10
6.46811e-09
3.53768e-10
6.17036e-09
2.97748e-10
5.91596e-09
2.54404e-10
5.695e-09
2.20961e-10
5.49995e-09
1.95049e-10
5.32521e-09
1.74745e-10
5.16665e-09
1.58554e-10
5.02129e-09
1.45357e-10
4.88695e-09
1.3434e-10
4.76203e-09
1.24926e-10
4.64531e-09
1.16716e-10
4.53588e-09
1.09436e-10
4.43298e-09
1.02897e-10
4.33601e-09
9.69717e-11
4.24444e-09
9.15667e-11
4.15783e-09
8.66145e-11
4.07576e-09
8.20628e-11
3.99789e-09
7.78691e-11
3.9239e-09
7.39973e-11
3.85348e-09
7.0416e-11
3.78638e-09
6.70975e-11
3.72237e-09
6.40169e-11
3.66122e-09
6.11517e-11
3.60273e-09
5.84819e-11
3.54674e-09
5.59894e-11
3.49309e-09
5.36581e-11
3.44161e-09
5.14735e-11
3.39219e-09
4.94226e-11
3.3447e-09
4.74939e-11
3.29902e-09
4.5677e-11
3.25506e-09
4.39626e-11
3.21271e-09
4.23424e-11
3.1719e-09
4.08088e-11
3.13255e-09
3.93552e-11
3.09457e-09
3.79753e-11
3.05791e-09
3.66635e-11
3.0225e-09
3.54149e-11
2.98827e-09
3.42248e-11
2.95518e-09
3.30888e-11
2.92318e-09
3.20032e-11
2.89221e-09
3.09643e-11
2.86225e-09
2.99688e-11
2.83323e-09
2.90135e-11
2.80514e-09
2.80958e-11
2.77792e-09
2.72128e-11
2.75156e-09
2.63622e-11
2.72602e-09
2.55417e-11
2.70127e-09
2.47491e-11
2.67729e-09
2.39824e-11
2.65405e-09
2.32398e-11
2.63153e-09
2.25195e-11
2.60971e-09
2.18199e-11
2.58857e-09
2.11394e-11
2.56809e-09
2.04768e-11
2.54826e-09
1.98306e-11
2.52906e-09
1.91996e-11
2.51048e-09
1.85827e-11
2.4925e-09
1.79789e-11
2.47511e-09
1.73871e-11
2.45831e-09
1.68066e-11
2.44207e-09
1.62365e-11
2.4264e-09
1.56762e-11
2.41127e-09
1.5125e-11
2.39669e-09
1.45825e-11
2.38264e-09
1.40482e-11
2.36912e-09
1.35218e-11
2.35611e-09
1.30031e-11
2.34362e-09
1.24921e-11
2.33163e-09
1.19889e-11
2.32014e-09
1.14938e-11
2.30913e-09
1.10075e-11
2.2986e-09
1.05311e-11
2.28854e-09
1.0066e-11
2.27892e-09
9.61418e-12
2.26974e-09
9.17794e-12
2.26098e-09
8.75993e-12
2.25262e-09
8.36277e-12
2.24463e-09
7.98907e-12
2.23699e-09
7.64173e-12
2.22966e-09
7.32577e-12
2.22261e-09
7.05379e-12
2.21575e-09
6.86328e-12
2.20889e-09
6.85375e-12
2.20167e-09
7.22292e-12
1.80717e-11
3.38284e-08
3.18246e-09
-3.41131e-08
3.32275e-08
3.47738e-09
3.2392e-08
3.53348e-09
3.13989e-08
3.47889e-09
3.0304e-08
3.35196e-09
2.91536e-08
3.16822e-09
2.79848e-08
2.94472e-09
2.68263e-08
2.69807e-09
2.56995e-08
2.44246e-09
2.46191e-08
2.18965e-09
2.35949e-08
1.94891e-09
2.26323e-08
1.72684e-09
2.17332e-08
1.52738e-09
2.08972e-08
1.35206e-09
2.01222e-08
1.20051e-09
1.94049e-08
1.07105e-09
1.87415e-08
9.61211e-10
1.81276e-08
8.68244e-10
1.75592e-08
7.89418e-10
1.7032e-08
7.22239e-10
1.65422e-08
6.64552e-10
1.60862e-08
6.14568e-10
1.56607e-08
5.70844e-10
1.52628e-08
5.32241e-10
1.48898e-08
4.97871e-10
1.45395e-08
4.67042e-10
1.42097e-08
4.39214e-10
1.38987e-08
4.13966e-10
1.36047e-08
3.90956e-10
1.33263e-08
3.69911e-10
1.30624e-08
3.50602e-10
1.28116e-08
3.32837e-10
1.2573e-08
3.16452e-10
1.23457e-08
3.01303e-10
1.21288e-08
2.87266e-10
1.19217e-08
2.74232e-10
1.17236e-08
2.62104e-10
1.1534e-08
2.50795e-10
1.13522e-08
2.40229e-10
1.11779e-08
2.30338e-10
1.10105e-08
2.21063e-10
1.08496e-08
2.12349e-10
1.06949e-08
2.04148e-10
1.05459e-08
1.96417e-10
1.04025e-08
1.89117e-10
1.02643e-08
1.82214e-10
1.01309e-08
1.75677e-10
1.00023e-08
1.69477e-10
9.87802e-09
1.63588e-10
9.75801e-09
1.57988e-10
9.64202e-09
1.52654e-10
9.52986e-09
1.47569e-10
9.42138e-09
1.42713e-10
9.3164e-09
1.3807e-10
9.21477e-09
1.33626e-10
9.11637e-09
1.29367e-10
9.02106e-09
1.25279e-10
8.92872e-09
1.2135e-10
8.83925e-09
1.1757e-10
8.75254e-09
1.13927e-10
8.66848e-09
1.10413e-10
8.58701e-09
1.07018e-10
8.50802e-09
1.03734e-10
8.43145e-09
1.00552e-10
8.35723e-09
9.74648e-11
8.28528e-09
9.4466e-11
8.21555e-09
9.15487e-11
8.14799e-09
8.87066e-11
8.08253e-09
8.59339e-11
8.01914e-09
8.32251e-11
7.95776e-09
8.05752e-11
7.89836e-09
7.79792e-11
7.84091e-09
7.54328e-11
7.78536e-09
7.29318e-11
7.7317e-09
7.04724e-11
7.67988e-09
6.8051e-11
7.6299e-09
6.56645e-11
7.58171e-09
6.331e-11
7.53531e-09
6.09851e-11
7.49067e-09
5.86875e-11
7.44778e-09
5.64155e-11
7.40661e-09
5.41679e-11
7.36716e-09
5.19438e-11
7.3294e-09
4.97431e-11
7.29333e-09
4.75664e-11
7.25892e-09
4.54153e-11
7.22616e-09
4.32925e-11
7.19503e-09
4.12017e-11
7.16549e-09
3.91481e-11
7.13753e-09
3.71374e-11
7.11112e-09
3.51763e-11
7.08621e-09
3.32713e-11
7.06277e-09
3.14297e-11
7.04075e-09
2.96613e-11
7.02009e-09
2.79855e-11
7.00069e-09
2.64493e-11
6.98238e-09
2.51772e-11
6.96472e-09
2.45091e-11
6.94563e-09
2.63125e-11
4.47004e-11
3.59112e-08
3.03255e-09
-3.57613e-08
3.59727e-08
3.41589e-09
3.59072e-08
3.59897e-09
3.57193e-08
3.66678e-09
3.5419e-08
3.65225e-09
3.50203e-08
3.56696e-09
3.45404e-08
3.42463e-09
3.39972e-08
3.24127e-09
3.34076e-08
3.03208e-09
3.27867e-08
2.81053e-09
3.21476e-08
2.58802e-09
3.15009e-08
2.37347e-09
3.08552e-08
2.17309e-09
3.02168e-08
1.99051e-09
2.95901e-08
1.82717e-09
2.89783e-08
1.68283e-09
2.83834e-08
1.55619e-09
2.78063e-08
1.44533e-09
2.72476e-08
1.34811e-09
2.67074e-08
1.26244e-09
2.61855e-08
1.18643e-09
2.56816e-08
1.11845e-09
2.51953e-08
1.05717e-09
2.47261e-08
1.00149e-09
2.42733e-08
9.50578e-10
2.38366e-08
9.03744e-10
2.34154e-08
8.6046e-10
2.30091e-08
8.20304e-10
2.26171e-08
7.82935e-10
2.22389e-08
7.48072e-10
2.1874e-08
7.1548e-10
2.15219e-08
6.84958e-10
2.1182e-08
6.5633e-10
2.08539e-08
6.29439e-10
2.0537e-08
6.04147e-10
2.02309e-08
5.80328e-10
1.99352e-08
5.57869e-10
1.96493e-08
5.36667e-10
1.93729e-08
5.16628e-10
1.91056e-08
4.97665e-10
1.88469e-08
4.79701e-10
1.85966e-08
4.62664e-10
1.83543e-08
4.46487e-10
1.81196e-08
4.31112e-10
1.78922e-08
4.16481e-10
1.76719e-08
4.02546e-10
1.74583e-08
3.89258e-10
1.72512e-08
3.76574e-10
1.70503e-08
3.64455e-10
1.68555e-08
3.52863e-10
1.66664e-08
3.41764e-10
1.64828e-08
3.31127e-10
1.63046e-08
3.2092e-10
1.61315e-08
3.11116e-10
1.59635e-08
3.0169e-10
1.58002e-08
2.92617e-10
1.56416e-08
2.83874e-10
1.54875e-08
2.75439e-10
1.53378e-08
2.67293e-10
1.51923e-08
2.59416e-10
1.5051e-08
2.51789e-10
1.49136e-08
2.44397e-10
1.47801e-08
2.37222e-10
1.46504e-08
2.3025e-10
1.45244e-08
2.23466e-10
1.4402e-08
2.16856e-10
1.42831e-08
2.10408e-10
1.41677e-08
2.04108e-10
1.40557e-08
1.97945e-10
1.3947e-08
1.91908e-10
1.38416e-08
1.85987e-10
1.37394e-08
1.80171e-10
1.36404e-08
1.7445e-10
1.35445e-08
1.68818e-10
1.34517e-08
1.63264e-10
1.3362e-08
1.57782e-10
1.32753e-08
1.52364e-10
1.31916e-08
1.47004e-10
1.31109e-08
1.41696e-10
1.30332e-08
1.36436e-10
1.29584e-08
1.3122e-10
1.28865e-08
1.26043e-10
1.28175e-08
1.20904e-10
1.27515e-08
1.15802e-10
1.26883e-08
1.10737e-10
1.2628e-08
1.05711e-10
1.25706e-08
1.00729e-10
1.2516e-08
9.57962e-11
1.24642e-08
9.09213e-11
1.24152e-08
8.61136e-11
1.2369e-08
8.13842e-11
1.23255e-08
7.67453e-11
1.22848e-08
7.2212e-11
1.22466e-08
6.78073e-11
1.2211e-08
6.35758e-11
1.21778e-08
5.96173e-11
1.21468e-08
5.61794e-11
1.21174e-08
5.39662e-11
1.20874e-08
5.63212e-11
7.69045e-11
3.74688e-08
2.84228e-09
-3.72786e-08
3.76647e-08
3.22006e-09
3.78204e-08
3.44324e-09
3.79228e-08
3.56441e-09
3.79644e-08
3.61057e-09
3.79408e-08
3.59058e-09
3.78518e-08
3.5136e-09
3.77012e-08
3.39188e-09
3.7495e-08
3.23828e-09
3.72407e-08
3.06488e-09
3.69463e-08
2.88243e-09
3.66198e-08
2.69993e-09
3.62687e-08
2.5242e-09
3.58994e-08
2.35979e-09
3.55174e-08
2.20921e-09
3.51269e-08
2.07331e-09
3.47314e-08
1.95174e-09
3.43333e-08
1.84341e-09
3.39346e-08
1.74683e-09
3.35366e-08
1.6604e-09
3.31404e-08
1.58259e-09
3.27469e-08
1.51202e-09
3.23565e-08
1.44751e-09
3.19699e-08
1.38811e-09
3.15875e-08
1.33303e-09
3.12095e-08
1.28168e-09
3.08364e-08
1.23355e-09
3.04685e-08
1.18828e-09
3.01058e-08
1.14555e-09
2.97488e-08
1.10512e-09
2.93975e-08
1.06679e-09
2.90521e-08
1.03038e-09
2.87126e-08
9.95755e-10
2.83793e-08
9.62775e-10
2.80521e-08
9.31331e-10
2.77311e-08
9.01319e-10
2.74163e-08
8.72647e-10
2.71078e-08
8.45231e-10
2.68054e-08
8.18992e-10
2.65092e-08
7.9386e-10
2.62192e-08
7.6977e-10
2.59352e-08
7.46659e-10
2.56572e-08
7.24473e-10
2.53851e-08
7.03158e-10
2.51189e-08
6.82666e-10
2.48585e-08
6.62952e-10
2.46038e-08
6.43973e-10
2.43547e-08
6.25688e-10
2.41111e-08
6.08061e-10
2.38729e-08
5.91055e-10
2.364e-08
5.74637e-10
2.34124e-08
5.58775e-10
2.31899e-08
5.43438e-10
2.29724e-08
5.28598e-10
2.27598e-08
5.14226e-10
2.25522e-08
5.00297e-10
2.23493e-08
4.86786e-10
2.2151e-08
4.73667e-10
2.19574e-08
4.60918e-10
2.17683e-08
4.48516e-10
2.15837e-08
4.3644e-10
2.14034e-08
4.24669e-10
2.12274e-08
4.13183e-10
2.10557e-08
4.01963e-10
2.08882e-08
3.90991e-10
2.07248e-08
3.80247e-10
2.05655e-08
3.69716e-10
2.04102e-08
3.5938e-10
2.02589e-08
3.49224e-10
2.01116e-08
3.39232e-10
1.99682e-08
3.29389e-10
1.98287e-08
3.19682e-10
1.9693e-08
3.10096e-10
1.95612e-08
3.00619e-10
1.94333e-08
2.9124e-10
1.93091e-08
2.81946e-10
1.91887e-08
2.72727e-10
1.90722e-08
2.63573e-10
1.89594e-08
2.54477e-10
1.88504e-08
2.45429e-10
1.87452e-08
2.36424e-10
1.86438e-08
2.27456e-10
1.85462e-08
2.18522e-10
1.84523e-08
2.0962e-10
1.83623e-08
2.0075e-10
1.82761e-08
1.91915e-10
1.81937e-08
1.83121e-10
1.81152e-08
1.74375e-10
1.80404e-08
1.65691e-10
1.79694e-08
1.5708e-10
1.79022e-08
1.4856e-10
1.78388e-08
1.40152e-10
1.77792e-08
1.31882e-10
1.77232e-08
1.23792e-10
1.76708e-08
1.15963e-10
1.76219e-08
1.08557e-10
1.75761e-08
1.01959e-10
1.75328e-08
9.72207e-11
1.74909e-08
9.82843e-11
1.16421e-10
3.8986e-08
2.67621e-09
-3.88199e-08
3.91844e-08
3.02166e-09
3.93782e-08
3.24939e-09
3.9554e-08
3.38863e-09
3.97037e-08
3.46091e-09
3.98195e-08
3.47474e-09
3.9896e-08
3.43705e-09
3.99307e-08
3.35723e-09
3.99233e-08
3.24569e-09
3.98756e-08
3.11252e-09
3.97911e-08
2.967e-09
3.96738e-08
2.81719e-09
3.95285e-08
2.66949e-09
3.93598e-08
2.52854e-09
3.91718e-08
2.39721e-09
3.89681e-08
2.27694e-09
3.87519e-08
2.168e-09
3.85254e-08
2.06989e-09
3.82906e-08
1.98164e-09
3.80489e-08
1.90209e-09
3.78015e-08
1.83002e-09
3.75492e-08
1.7643e-09
3.72928e-08
1.70391e-09
3.70329e-08
1.64802e-09
3.677e-08
1.59593e-09
3.65046e-08
1.54707e-09
3.62371e-08
1.50099e-09
3.59681e-08
1.45735e-09
3.56978e-08
1.41586e-09
3.54266e-08
1.37629e-09
3.51549e-08
1.33846e-09
3.48831e-08
1.30222e-09
3.46114e-08
1.26744e-09
3.43402e-08
1.23401e-09
3.40697e-08
1.20184e-09
3.38001e-08
1.17085e-09
3.35318e-08
1.14095e-09
3.3265e-08
1.11208e-09
3.29998e-08
1.08419e-09
3.27365e-08
1.05721e-09
3.24751e-08
1.03109e-09
3.2216e-08
1.0058e-09
3.19592e-08
9.81289e-10
3.17048e-08
9.57514e-10
3.1453e-08
9.34442e-10
3.1204e-08
9.12038e-10
3.09577e-08
8.9027e-10
3.07142e-08
8.69109e-10
3.04738e-08
8.48525e-10
3.02363e-08
8.28492e-10
3.0002e-08
8.08983e-10
2.97708e-08
7.89973e-10
2.95428e-08
7.71438e-10
2.9318e-08
7.53356e-10
2.90966e-08
7.35703e-10
2.88784e-08
7.18457e-10
2.86636e-08
7.01597e-10
2.84522e-08
6.85102e-10
2.82441e-08
6.68951e-10
2.80395e-08
6.53125e-10
2.78384e-08
6.37603e-10
2.76407e-08
6.22367e-10
2.74464e-08
6.07396e-10
2.72557e-08
5.92673e-10
2.70685e-08
5.78179e-10
2.68849e-08
5.63896e-10
2.67048e-08
5.49807e-10
2.65283e-08
5.35893e-10
2.63554e-08
5.22138e-10
2.61861e-08
5.08525e-10
2.60204e-08
4.95038e-10
2.58585e-08
4.81662e-10
2.57002e-08
4.68381e-10
2.55456e-08
4.5518e-10
2.53948e-08
4.42046e-10
2.52478e-08
4.28966e-10
2.51046e-08
4.15927e-10
2.49652e-08
4.02917e-10
2.48298e-08
3.89927e-10
2.46983e-08
3.76947e-10
2.45707e-08
3.63969e-10
2.44472e-08
3.50988e-10
2.43277e-08
3.38e-10
2.42123e-08
3.25003e-10
2.41011e-08
3.11997e-10
2.3994e-08
2.98989e-10
2.38911e-08
2.85984e-10
2.37925e-08
2.72995e-10
2.36982e-08
2.60037e-10
2.36081e-08
2.47129e-10
2.35224e-08
2.34295e-10
2.3441e-08
2.21567e-10
2.33639e-08
2.08987e-10
2.3291e-08
1.96622e-10
2.32224e-08
1.84591e-10
2.31579e-08
1.73123e-10
2.30971e-08
1.62716e-10
2.30397e-08
1.5462e-10
2.29854e-08
1.52556e-10
1.64165e-10
4.05415e-08
2.53693e-09
-4.04022e-08
4.07186e-08
2.84462e-09
4.09043e-08
3.06369e-09
4.10856e-08
3.20727e-09
4.12557e-08
3.29084e-09
4.1408e-08
3.32239e-09
4.15372e-08
3.30793e-09
4.16394e-08
3.25501e-09
4.17129e-08
3.17221e-09
4.17573e-08
3.0681e-09
4.17737e-08
2.95062e-09
4.17641e-08
2.82678e-09
4.17312e-08
2.70238e-09
4.16779e-08
2.58177e-09
4.16073e-08
2.46787e-09
4.15219e-08
2.36237e-09
4.14239e-08
2.26591e-09
4.13154e-08
2.1784e-09
4.11978e-08
2.09926e-09
4.10723e-08
2.02765e-09
4.09396e-08
1.96265e-09
4.08006e-08
1.90331e-09
4.06558e-08
1.84879e-09
4.05054e-08
1.79833e-09
4.03501e-08
1.7513e-09
4.01899e-08
1.7072e-09
4.00254e-08
1.66558e-09
3.98566e-08
1.62612e-09
3.96839e-08
1.58853e-09
3.95076e-08
1.55261e-09
3.93279e-08
1.51816e-09
3.91451e-08
1.48504e-09
3.89594e-08
1.45313e-09
3.87711e-08
1.42232e-09
3.85804e-08
1.39253e-09
3.83875e-08
1.36367e-09
3.81928e-08
1.33568e-09
3.79964e-08
1.30849e-09
3.77985e-08
1.28206e-09
3.75994e-08
1.25633e-09
3.73992e-08
1.23127e-09
3.71982e-08
1.20684e-09
3.69965e-08
1.18299e-09
3.67943e-08
1.1597e-09
3.65918e-08
1.13693e-09
3.63892e-08
1.11467e-09
3.61866e-08
1.09288e-09
3.59841e-08
1.07155e-09
3.5782e-08
1.05064e-09
3.55804e-08
1.03014e-09
3.53793e-08
1.01003e-09
3.5179e-08
9.90283e-10
3.49796e-08
9.70887e-10
3.47811e-08
9.51822e-10
3.45837e-08
9.33069e-10
3.43876e-08
9.14612e-10
3.41927e-08
8.96432e-10
3.39993e-08
8.78513e-10
3.38075e-08
8.60837e-10
3.36172e-08
8.43387e-10
3.34286e-08
8.26146e-10
3.32419e-08
8.09097e-10
3.30571e-08
7.92224e-10
3.28743e-08
7.7551e-10
3.26935e-08
7.58937e-10
3.25149e-08
7.42489e-10
3.23386e-08
7.26149e-10
3.21646e-08
7.09901e-10
3.1993e-08
6.93728e-10
3.18239e-08
6.77614e-10
3.16574e-08
6.61542e-10
3.14935e-08
6.45498e-10
3.13324e-08
6.29465e-10
3.11742e-08
6.13428e-10
3.10189e-08
5.97374e-10
3.08666e-08
5.81288e-10
3.07173e-08
5.65158e-10
3.05713e-08
5.48971e-10
3.04285e-08
5.32718e-10
3.0289e-08
5.16388e-10
3.0153e-08
4.99974e-10
3.00205e-08
4.83471e-10
2.98917e-08
4.66874e-10
2.97665e-08
4.50184e-10
2.96451e-08
4.33404e-10
2.95275e-08
4.1654e-10
2.94139e-08
3.99603e-10
2.93043e-08
3.82609e-10
2.91988e-08
3.65577e-10
2.90974e-08
3.48534e-10
2.90001e-08
3.31514e-10
2.89071e-08
3.14559e-10
2.88184e-08
2.97731e-10
2.87339e-08
2.81124e-10
2.86536e-08
2.64893e-10
2.85774e-08
2.49325e-10
2.85051e-08
2.34982e-10
2.84366e-08
2.23111e-10
2.83726e-08
2.16617e-10
2.18894e-10
4.21485e-08
2.41837e-09
-4.203e-08
4.23034e-08
2.68972e-09
4.24723e-08
2.89482e-09
4.26426e-08
3.03696e-09
4.28076e-08
3.12581e-09
4.29619e-08
3.16813e-09
4.31006e-08
3.16916e-09
4.32205e-08
3.13511e-09
4.33196e-08
3.07315e-09
4.33971e-08
2.9906e-09
4.34534e-08
2.89434e-09
4.34896e-08
2.79053e-09
4.35077e-08
2.68435e-09
4.35096e-08
2.57985e-09
4.34976e-08
2.47989e-09
4.34737e-08
2.38626e-09
4.34397e-08
2.29987e-09
4.33972e-08
2.22091e-09
4.33473e-08
2.14912e-09
4.32911e-08
2.08393e-09
4.32291e-08
2.02466e-09
4.31618e-08
1.97055e-09
4.30897e-08
1.92089e-09
4.3013e-08
1.87504e-09
4.29319e-08
1.83242e-09
4.28465e-08
1.79257e-09
4.2757e-08
1.75508e-09
4.26635e-08
1.71962e-09
4.25661e-08
1.68593e-09
4.2465e-08
1.65378e-09
4.23601e-08
1.623e-09
4.22517e-08
1.59343e-09
4.21399e-08
1.56494e-09
4.20248e-08
1.53744e-09
4.19065e-08
1.51082e-09
4.17852e-08
1.485e-09
4.16609e-08
1.45993e-09
4.15339e-08
1.43553e-09
4.14042e-08
1.41175e-09
4.1272e-08
1.38854e-09
4.11374e-08
1.36586e-09
4.10006e-08
1.34368e-09
4.08616e-08
1.32195e-09
4.07207e-08
1.30064e-09
4.05779e-08
1.27973e-09
4.04333e-08
1.25919e-09
4.02872e-08
1.23899e-09
4.01397e-08
1.21912e-09
3.99908e-08
1.19954e-09
3.98407e-08
1.18025e-09
3.96895e-08
1.16121e-09
3.95373e-08
1.14242e-09
3.93844e-08
1.12386e-09
3.92307e-08
1.1055e-09
3.90764e-08
1.08734e-09
3.89217e-08
1.06935e-09
3.87666e-08
1.05152e-09
3.86113e-08
1.03383e-09
3.84558e-08
1.01627e-09
3.83004e-08
9.98822e-10
3.81451e-08
9.81465e-10
3.799e-08
9.64187e-10
3.78352e-08
9.46969e-10
3.76809e-08
9.29796e-10
3.75272e-08
9.12652e-10
3.73742e-08
8.95519e-10
3.7222e-08
8.78382e-10
3.70706e-08
8.61222e-10
3.69203e-08
8.44024e-10
3.67712e-08
8.26771e-10
3.66233e-08
8.09446e-10
3.64768e-08
7.92033e-10
3.63317e-08
7.74516e-10
3.61883e-08
7.56879e-10
3.60465e-08
7.39108e-10
3.59066e-08
7.21188e-10
3.57687e-08
7.03106e-10
3.56328e-08
6.84849e-10
3.54991e-08
6.66406e-10
3.53677e-08
6.47767e-10
3.52388e-08
6.28927e-10
3.51124e-08
6.09878e-10
3.49886e-08
5.90618e-10
3.48677e-08
5.71149e-10
3.47496e-08
5.51476e-10
3.46345e-08
5.31607e-10
3.45226e-08
5.11556e-10
3.44138e-08
4.91343e-10
3.43084e-08
4.70995e-10
3.42064e-08
4.50544e-10
3.41079e-08
4.30033e-10
3.40129e-08
4.0952e-10
3.39216e-08
3.89085e-10
3.38339e-08
3.68845e-10
3.37498e-08
3.4899e-10
3.36692e-08
3.2984e-10
3.35923e-08
3.11965e-10
3.35189e-08
2.96433e-10
3.34505e-08
2.85034e-10
2.77201e-10
4.38098e-08
2.31529e-09
-4.37068e-08
4.39456e-08
2.55396e-09
4.40974e-08
2.74302e-09
4.42538e-08
2.88056e-09
4.4408e-08
2.97161e-09
4.45549e-08
3.02122e-09
4.46903e-08
3.03379e-09
4.4811e-08
3.0144e-09
4.49151e-08
2.96901e-09
4.50019e-08
2.90383e-09
4.50714e-08
2.82481e-09
4.51246e-08
2.73738e-09
4.51628e-08
2.64616e-09
4.51877e-08
2.5549e-09
4.52012e-08
2.46636e-09
4.52051e-08
2.3824e-09
4.52009e-08
2.30408e-09
4.519e-08
2.23183e-09
4.51734e-08
2.16566e-09
4.51521e-08
2.10525e-09
4.51267e-08
2.0501e-09
4.50976e-08
1.99966e-09
4.50651e-08
1.95336e-09
4.50295e-08
1.91064e-09
4.49909e-08
1.87102e-09
4.49494e-08
1.83407e-09
4.4905e-08
1.79942e-09
4.48579e-08
1.76677e-09
4.48079e-08
1.73586e-09
4.47552e-08
1.70647e-09
4.46998e-08
1.67843e-09
4.46417e-08
1.65157e-09
4.45808e-08
1.62578e-09
4.45173e-08
1.60093e-09
4.44512e-08
1.57695e-09
4.43825e-08
1.55373e-09
4.43112e-08
1.53121e-09
4.42374e-08
1.50933e-09
4.41611e-08
1.48802e-09
4.40824e-08
1.46724e-09
4.40014e-08
1.44693e-09
4.3918e-08
1.42707e-09
4.38323e-08
1.4076e-09
4.37445e-08
1.3885e-09
4.36545e-08
1.36973e-09
4.35624e-08
1.35127e-09
4.34683e-08
1.33308e-09
4.33723e-08
1.31515e-09
4.32744e-08
1.29744e-09
4.31747e-08
1.27995e-09
4.30733e-08
1.26264e-09
4.29702e-08
1.24549e-09
4.28655e-08
1.2285e-09
4.27594e-08
1.21163e-09
4.26519e-08
1.19487e-09
4.25431e-08
1.1782e-09
4.2433e-08
1.1616e-09
4.23217e-08
1.14506e-09
4.22094e-08
1.12856e-09
4.20962e-08
1.11208e-09
4.19821e-08
1.0956e-09
4.18671e-08
1.0791e-09
4.17515e-08
1.06257e-09
4.16353e-08
1.04599e-09
4.15186e-08
1.02934e-09
4.14016e-08
1.0126e-09
4.12842e-08
9.9575e-10
4.11666e-08
9.78776e-10
4.1049e-08
9.61657e-10
4.09314e-08
9.44375e-10
4.08139e-08
9.26912e-10
4.06967e-08
9.0925e-10
4.05799e-08
8.91371e-10
4.04635e-08
8.73256e-10
4.03477e-08
8.54891e-10
4.02326e-08
8.36258e-10
4.01184e-08
8.17343e-10
4.00051e-08
7.98132e-10
3.98929e-08
7.78612e-10
3.97819e-08
7.58773e-10
3.96722e-08
7.38608e-10
3.9564e-08
7.1811e-10
3.94573e-08
6.97277e-10
3.93524e-08
6.7611e-10
3.92492e-08
6.54616e-10
3.9148e-08
6.32805e-10
3.90489e-08
6.10695e-10
3.89519e-08
5.88308e-10
3.88572e-08
5.65676e-10
3.8765e-08
5.42838e-10
3.86751e-08
5.19847e-10
3.85879e-08
4.96773e-10
3.85033e-08
4.73711e-10
3.84213e-08
4.50802e-10
3.8342e-08
4.28257e-10
3.82655e-08
4.06408e-10
3.81917e-08
3.8578e-10
3.81209e-08
3.6716e-10
3.80547e-08
3.51243e-10
3.34623e-10
4.55274e-08
2.22402e-09
-4.54361e-08
4.56472e-08
2.43418e-09
4.57833e-08
2.60684e-09
4.5926e-08
2.73785e-09
4.60687e-08
2.82899e-09
4.62063e-08
2.88358e-09
4.6335e-08
2.90511e-09
4.64517e-08
2.8977e-09
4.65545e-08
2.8662e-09
4.66425e-08
2.81581e-09
4.67157e-08
2.75165e-09
4.67746e-08
2.67843e-09
4.68205e-08
2.60031e-09
4.68547e-08
2.52069e-09
4.68788e-08
2.44221e-09
4.68945e-08
2.36673e-09
4.69032e-08
2.29543e-09
4.69061e-08
2.22893e-09
4.69043e-08
2.16744e-09
4.68987e-08
2.11085e-09
4.68899e-08
2.05887e-09
4.68785e-08
2.01111e-09
4.68647e-08
1.96712e-09
4.68489e-08
1.92646e-09
4.68312e-08
1.88874e-09
4.68116e-08
1.85358e-09
4.67904e-08
1.82065e-09
4.67675e-08
1.78968e-09
4.67429e-08
1.76043e-09
4.67167e-08
1.7327e-09
4.66888e-08
1.70631e-09
4.66593e-08
1.68111e-09
4.66281e-08
1.65698e-09
4.65952e-08
1.63381e-09
4.65607e-08
1.61151e-09
4.65244e-08
1.58999e-09
4.64864e-08
1.56917e-09
4.64468e-08
1.549e-09
4.64054e-08
1.5294e-09
4.63623e-08
1.51034e-09
4.63175e-08
1.49175e-09
4.62709e-08
1.4736e-09
4.62227e-08
1.45585e-09
4.61727e-08
1.43845e-09
4.61211e-08
1.42139e-09
4.60677e-08
1.40461e-09
4.60127e-08
1.3881e-09
4.5956e-08
1.37183e-09
4.58977e-08
1.35576e-09
4.58378e-08
1.33989e-09
4.57762e-08
1.32417e-09
4.57131e-08
1.3086e-09
4.56485e-08
1.29314e-09
4.55823e-08
1.27777e-09
4.55147e-08
1.26249e-09
4.54457e-08
1.24725e-09
4.53752e-08
1.23205e-09
4.53034e-08
1.21686e-09
4.52303e-08
1.20166e-09
4.5156e-08
1.18643e-09
4.50804e-08
1.17115e-09
4.50038e-08
1.1558e-09
4.4926e-08
1.14036e-09
4.48472e-08
1.1248e-09
4.47674e-08
1.10911e-09
4.46867e-08
1.09327e-09
4.46052e-08
1.07725e-09
4.4523e-08
1.06104e-09
4.444e-08
1.0446e-09
4.43565e-08
1.02792e-09
4.42724e-08
1.01098e-09
4.41879e-08
9.93761e-10
4.4103e-08
9.76235e-10
4.40179e-08
9.58385e-10
4.39326e-08
9.40192e-10
4.38472e-08
9.21636e-10
4.37619e-08
9.02701e-10
4.36766e-08
8.83371e-10
4.35916e-08
8.6363e-10
4.35069e-08
8.43467e-10
4.34226e-08
8.22873e-10
4.33389e-08
8.01839e-10
4.32558e-08
7.80363e-10
4.31735e-08
7.58446e-10
4.3092e-08
7.36094e-10
4.30115e-08
7.13319e-10
4.2932e-08
6.9014e-10
4.28538e-08
6.66581e-10
4.27768e-08
6.42679e-10
4.27011e-08
6.18478e-10
4.26269e-08
5.94039e-10
4.25543e-08
5.69442e-10
4.24832e-08
5.44796e-10
4.24137e-08
5.20257e-10
4.23459e-08
4.96046e-10
4.22799e-08
4.72487e-10
4.22156e-08
4.5003e-10
4.21536e-08
4.29169e-10
4.20951e-08
4.09762e-10
3.87091e-10
4.73033e-08
2.14205e-09
-4.72213e-08
4.74098e-08
2.32765e-09
4.75321e-08
2.48454e-09
4.7662e-08
2.60793e-09
4.77934e-08
2.69758e-09
4.79216e-08
2.75537e-09
4.80429e-08
2.78386e-09
4.81543e-08
2.78631e-09
4.82539e-08
2.7666e-09
4.83406e-08
2.72905e-09
4.84143e-08
2.67799e-09
4.84752e-08
2.6175e-09
4.85243e-08
2.55123e-09
4.85627e-08
2.48228e-09
4.85918e-08
2.41311e-09
4.8613e-08
2.34554e-09
4.86276e-08
2.28083e-09
4.86368e-08
2.21972e-09
4.86417e-08
2.16259e-09
4.8643e-08
2.10951e-09
4.86415e-08
2.06035e-09
4.86378e-08
2.01487e-09
4.86321e-08
1.97275e-09
4.86249e-08
1.93367e-09
4.86164e-08
1.8973e-09
4.86066e-08
1.86332e-09
4.85958e-08
1.83148e-09
4.8584e-08
1.80151e-09
4.85712e-08
1.77321e-09
4.85575e-08
1.74639e-09
4.85429e-08
1.7209e-09
4.85275e-08
1.69659e-09
4.85111e-08
1.67335e-09
4.84938e-08
1.65107e-09
4.84757e-08
1.62967e-09
4.84566e-08
1.60905e-09
4.84366e-08
1.58916e-09
4.84157e-08
1.56992e-09
4.83938e-08
1.55127e-09
4.8371e-08
1.53318e-09
4.83472e-08
1.51557e-09
4.83223e-08
1.49842e-09
4.82965e-08
1.48168e-09
4.82696e-08
1.46532e-09
4.82417e-08
1.4493e-09
4.82127e-08
1.43359e-09
4.81827e-08
1.41815e-09
4.81516e-08
1.40296e-09
4.81193e-08
1.38799e-09
4.8086e-08
1.37322e-09
4.80516e-08
1.35861e-09
4.8016e-08
1.34415e-09
4.79793e-08
1.32981e-09
4.79415e-08
1.31556e-09
4.79026e-08
1.30139e-09
4.78626e-08
1.28727e-09
4.78215e-08
1.27317e-09
4.77793e-08
1.25908e-09
4.7736e-08
1.24496e-09
4.76916e-08
1.23081e-09
4.76462e-08
1.21658e-09
4.75997e-08
1.20227e-09
4.75522e-08
1.18784e-09
4.75037e-08
1.17328e-09
4.74543e-08
1.15856e-09
4.74039e-08
1.14365e-09
4.73526e-08
1.12853e-09
4.73005e-08
1.11318e-09
4.72475e-08
1.09757e-09
4.71938e-08
1.08167e-09
4.71393e-08
1.06547e-09
4.70841e-08
1.04894e-09
4.70283e-08
1.03205e-09
4.69719e-08
1.01478e-09
4.6915e-08
9.97117e-10
4.68576e-08
9.79028e-10
4.67998e-08
9.60498e-10
4.67416e-08
9.41506e-10
4.66832e-08
9.22037e-10
4.66246e-08
9.02075e-10
4.65659e-08
8.8161e-10
4.65071e-08
8.60631e-10
4.64483e-08
8.39135e-10
4.63896e-08
8.17123e-10
4.63311e-08
7.94598e-10
4.62729e-08
7.71574e-10
4.6215e-08
7.4807e-10
4.61574e-08
7.24113e-10
4.61004e-08
6.9974e-10
4.60438e-08
6.75002e-10
4.59879e-08
6.49964e-10
4.59326e-08
6.24715e-10
4.58781e-08
5.99374e-10
4.58242e-08
5.74103e-10
4.57711e-08
5.49127e-10
4.57189e-08
5.24749e-10
4.56676e-08
5.01331e-10
4.56176e-08
4.79137e-10
4.55698e-08
4.57559e-10
4.31955e-10
4.914e-08
2.06764e-09
-4.90656e-08
4.92354e-08
2.2322e-09
4.93455e-08
2.37446e-09
4.94637e-08
2.48977e-09
4.95845e-08
2.57681e-09
4.97035e-08
2.63633e-09
4.98173e-08
2.6701e-09
4.9923e-08
2.68058e-09
5.00187e-08
2.67087e-09
5.01033e-08
2.64447e-09
5.01763e-08
2.605e-09
5.02379e-08
2.55595e-09
5.02886e-08
2.50052e-09
5.03294e-08
2.44147e-09
5.03614e-08
2.38107e-09
5.03859e-08
2.32108e-09
5.04039e-08
2.26276e-09
5.04167e-08
2.20696e-09
5.04251e-08
2.15417e-09
5.04301e-08
2.10458e-09
5.04322e-08
2.05823e-09
5.0432e-08
2.015e-09
5.04301e-08
1.97469e-09
5.04267e-08
1.93707e-09
5.04221e-08
1.9019e-09
5.04165e-08
1.86892e-09
5.04101e-08
1.83791e-09
5.04029e-08
1.80867e-09
5.03951e-08
1.781e-09
5.03867e-08
1.75475e-09
5.03779e-08
1.72978e-09
5.03685e-08
1.70596e-09
5.03587e-08
1.68318e-09
5.03484e-08
1.66134e-09
5.03377e-08
1.64036e-09
5.03266e-08
1.62017e-09
5.0315e-08
1.6007e-09
5.03031e-08
1.58188e-09
5.02907e-08
1.56366e-09
5.02779e-08
1.546e-09
5.02646e-08
1.52884e-09
5.02509e-08
1.51215e-09
5.02367e-08
1.49588e-09
5.0222e-08
1.48e-09
5.02068e-08
1.46448e-09
5.01911e-08
1.44928e-09
5.01749e-08
1.43437e-09
5.01581e-08
1.41973e-09
5.01408e-08
1.40533e-09
5.01229e-08
1.39114e-09
5.01044e-08
1.37713e-09
5.00852e-08
1.36328e-09
5.00655e-08
1.34957e-09
5.00451e-08
1.33596e-09
5.0024e-08
1.32245e-09
5.00023e-08
1.30899e-09
4.99799e-08
1.29557e-09
4.99568e-08
1.28216e-09
4.9933e-08
1.26875e-09
4.99085e-08
1.25529e-09
4.98834e-08
1.24177e-09
4.98575e-08
1.22817e-09
4.98308e-08
1.21446e-09
4.98035e-08
1.20061e-09
4.97755e-08
1.18659e-09
4.97467e-08
1.17239e-09
4.97173e-08
1.15797e-09
4.96872e-08
1.1433e-09
4.96564e-08
1.12837e-09
4.96249e-08
1.11314e-09
4.95928e-08
1.09759e-09
4.956e-08
1.08169e-09
4.95267e-08
1.06541e-09
4.94927e-08
1.04873e-09
4.94582e-08
1.03163e-09
4.94232e-08
1.01408e-09
4.93876e-08
9.96058e-10
4.93516e-08
9.77543e-10
4.93151e-08
9.58516e-10
4.92782e-08
9.38962e-10
4.92409e-08
9.18866e-10
4.92034e-08
8.98218e-10
4.91655e-08
8.77014e-10
4.91274e-08
8.55251e-10
4.9089e-08
8.32935e-10
4.90505e-08
8.10078e-10
4.90119e-08
7.86699e-10
4.89732e-08
7.62828e-10
4.89344e-08
7.38502e-10
4.88956e-08
7.13777e-10
4.88569e-08
6.88722e-10
4.88182e-08
6.63431e-10
4.87795e-08
6.38028e-10
4.87409e-08
6.1268e-10
4.87024e-08
5.87607e-10
4.86641e-08
5.63083e-10
4.8626e-08
5.39401e-10
4.85885e-08
5.16676e-10
4.85519e-08
4.94193e-10
4.683e-10
5.10401e-08
1.99956e-09
-5.0972e-08
5.11262e-08
2.14612e-09
5.12256e-08
2.27508e-09
5.1333e-08
2.38231e-09
5.14438e-08
2.46599e-09
5.15541e-08
2.5261e-09
5.16605e-08
2.56371e-09
5.17604e-08
2.58065e-09
5.18519e-08
2.57932e-09
5.19339e-08
2.56253e-09
5.20056e-08
2.53326e-09
5.20671e-08
2.49448e-09
5.21187e-08
2.44893e-09
5.21611e-08
2.39906e-09
5.21952e-08
2.34694e-09
5.22221e-08
2.29422e-09
5.22427e-08
2.24216e-09
5.2258e-08
2.19163e-09
5.2269e-08
2.14321e-09
5.22763e-08
2.09722e-09
5.22808e-08
2.05379e-09
5.22829e-08
2.01292e-09
5.2283e-08
1.97452e-09
5.22817e-08
1.93844e-09
5.22791e-08
1.9045e-09
5.22755e-08
1.87253e-09
5.2271e-08
1.84234e-09
5.22659e-08
1.81378e-09
5.22602e-08
1.78667e-09
5.22541e-08
1.7609e-09
5.22476e-08
1.73632e-09
5.22407e-08
1.71283e-09
5.22335e-08
1.69034e-09
5.22261e-08
1.66875e-09
5.22185e-08
1.64799e-09
5.22107e-08
1.62799e-09
5.22027e-08
1.60869e-09
5.21945e-08
1.59003e-09
5.21862e-08
1.57197e-09
5.21778e-08
1.55445e-09
5.21692e-08
1.53743e-09
5.21604e-08
1.52088e-09
5.21516e-08
1.50476e-09
5.21425e-08
1.48903e-09
5.21333e-08
1.47367e-09
5.2124e-08
1.45863e-09
5.21145e-08
1.4439e-09
5.21048e-08
1.42944e-09
5.20949e-08
1.41524e-09
5.20847e-08
1.40125e-09
5.20744e-08
1.38746e-09
5.20638e-08
1.37385e-09
5.2053e-08
1.36038e-09
5.20419e-08
1.34704e-09
5.20306e-08
1.3338e-09
5.20189e-08
1.32063e-09
5.2007e-08
1.30752e-09
5.19947e-08
1.29443e-09
5.19821e-08
1.28134e-09
5.19692e-08
1.26823e-09
5.19559e-08
1.25507e-09
5.19422e-08
1.24184e-09
5.19282e-08
1.2285e-09
5.19138e-08
1.21504e-09
5.18989e-08
1.20142e-09
5.18837e-08
1.18763e-09
5.1868e-08
1.17362e-09
5.1852e-08
1.15938e-09
5.18355e-08
1.14487e-09
5.18185e-08
1.13007e-09
5.18011e-08
1.11496e-09
5.17833e-08
1.09949e-09
5.17651e-08
1.08365e-09
5.17464e-08
1.06741e-09
5.17273e-08
1.05074e-09
5.17078e-08
1.03362e-09
5.16878e-08
1.01602e-09
5.16675e-08
9.97919e-10
5.16467e-08
9.79303e-10
5.16255e-08
9.6015e-10
5.16039e-08
9.40448e-10
5.15819e-08
9.20184e-10
5.15596e-08
8.99352e-10
5.15369e-08
8.77952e-10
5.15138e-08
8.55987e-10
5.14905e-08
8.33471e-10
5.14667e-08
8.10422e-10
5.14427e-08
7.86872e-10
5.14183e-08
7.62861e-10
5.13937e-08
7.38446e-10
5.13687e-08
7.137e-10
5.13434e-08
6.88721e-10
5.13178e-08
6.63636e-10
5.12919e-08
6.38611e-10
5.12656e-08
6.13859e-10
5.12391e-08
5.89629e-10
5.12123e-08
5.66161e-10
5.11855e-08
5.43518e-10
5.11585e-08
5.21117e-10
4.96662e-10
5.30063e-08
1.93693e-09
-5.29437e-08
5.30844e-08
2.06806e-09
5.31743e-08
2.18511e-09
5.32721e-08
2.28455e-09
5.33737e-08
2.36442e-09
5.34755e-08
2.42422e-09
5.35748e-08
2.4645e-09
5.36689e-08
2.48654e-09
5.3756e-08
2.49216e-09
5.3835e-08
2.48358e-09
5.3905e-08
2.46323e-09
5.39659e-08
2.43358e-09
5.40178e-08
2.39699e-09
5.40613e-08
2.35559e-09
5.4097e-08
2.31123e-09
5.41258e-08
2.26546e-09
5.41485e-08
2.21947e-09
5.4166e-08
2.17415e-09
5.4179e-08
2.13014e-09
5.41884e-08
2.08783e-09
5.41947e-08
2.04745e-09
5.41986e-08
2.00908e-09
5.42004e-08
1.97273e-09
5.42005e-08
1.93831e-09