/*--------------------------------*- C++ -*----------------------------------*\
| =========                 |                                                 |
| \\      /  F ield         | OpenFOAM: The Open Source CFD Toolbox           |
|  \\    /   O peration     | Version:  2.3.0                                 |
|   \\  /    A nd           | Web:      www.OpenFOAM.org                      |
|    \\/     M anipulation  |                                                 |
\*---------------------------------------------------------------------------*/
FoamFile
{
    version     2.0;
    format      ascii;
    class       surfaceScalarField;
    location    "0.75";
    object      phi;
}
// * * * * * * * * * * * * * * * * * * * * * * * * * * * * * * * * * * * * * //

dimensions      [0 3 -1 0 0 0 0];

internalField   nonuniform List<scalar> 
6068
(
2.91045e-08
2.73926e-09
-3.18438e-08
2.56761e-08
3.42843e-09
2.22601e-08
3.41603e-09
1.90911e-08
3.16895e-09
1.62033e-08
2.88777e-09
1.36687e-08
2.53461e-09
1.15763e-08
2.09247e-09
9.94544e-09
1.63083e-09
8.74397e-09
1.20147e-09
7.89126e-09
8.52704e-10
7.29256e-09
5.98701e-10
6.86526e-09
4.273e-10
6.54734e-09
3.17924e-10
6.29575e-09
2.51585e-10
6.08189e-09
2.13866e-10
5.88899e-09
1.92894e-10
5.70887e-09
1.80122e-10
5.53835e-09
1.70521e-10
5.37666e-09
1.6169e-10
5.22388e-09
1.52786e-10
5.08014e-09
1.43732e-10
4.9454e-09
1.34743e-10
4.81933e-09
1.26075e-10
4.7014e-09
1.17926e-10
4.59099e-09
1.10412e-10
4.48742e-09
1.03572e-10
4.39003e-09
9.73877e-11
4.29822e-09
9.18083e-11
4.21145e-09
8.67702e-11
4.12924e-09
8.22057e-11
4.05119e-09
7.80537e-11
3.97693e-09
7.42568e-11
3.90616e-09
7.07699e-11
3.83861e-09
6.75509e-11
3.77404e-09
6.45695e-11
3.71225e-09
6.17963e-11
3.65304e-09
5.92107e-11
3.59624e-09
5.67927e-11
3.54172e-09
5.45274e-11
3.48931e-09
5.2401e-11
3.43891e-09
5.0402e-11
3.39039e-09
4.85203e-11
3.34365e-09
4.67466e-11
3.29857e-09
4.50731e-11
3.25508e-09
4.34921e-11
3.21308e-09
4.19975e-11
3.1725e-09
4.05819e-11
3.13326e-09
3.92422e-11
3.09529e-09
3.79689e-11
3.05853e-09
3.67638e-11
3.02291e-09
3.56135e-11
2.98839e-09
3.45258e-11
2.9549e-09
3.34825e-11
2.92241e-09
3.24973e-11
2.89086e-09
3.15472e-11
2.86021e-09
3.06525e-11
2.83042e-09
2.97833e-11
2.80145e-09
2.89692e-11
2.77328e-09
2.817e-11
2.74586e-09
2.74285e-11
2.71917e-09
2.66897e-11
2.69315e-09
2.60139e-11
2.66783e-09
2.53273e-11
2.64311e-09
2.47112e-11
2.61904e-09
2.40694e-11
2.59554e-09
2.35086e-11
2.57263e-09
2.29043e-11
2.55024e-09
2.23957e-11
2.52841e-09
2.1822e-11
2.50705e-09
2.13633e-11
2.48624e-09
2.08139e-11
2.46583e-09
2.0404e-11
2.44596e-09
1.98724e-11
2.42645e-09
1.95117e-11
2.40746e-09
1.89908e-11
2.38878e-09
1.86812e-11
2.37061e-09
1.81643e-11
2.3527e-09
1.79084e-11
2.33532e-09
1.73885e-11
2.31812e-09
1.7191e-11
2.30146e-09
1.66598e-11
2.28494e-09
1.65279e-11
2.26896e-09
1.59766e-11
2.25304e-09
1.59191e-11
2.2377e-09
1.53379e-11
2.22234e-09
1.53673e-11
2.20759e-09
1.47437e-11
2.19271e-09
1.48782e-11
2.17852e-09
1.41961e-11
2.16406e-09
1.44589e-11
2.15036e-09
1.37013e-11
2.13624e-09
1.41219e-11
2.12297e-09
1.32672e-11
2.10908e-09
1.38888e-11
2.09617e-09
1.29055e-11
2.08238e-09
1.37935e-11
2.06975e-09
1.26356e-11
2.05585e-09
1.3898e-11
2.04333e-09
1.25191e-11
1.5824e-11
3.43484e-08
2.45633e-09
-3.40655e-08
3.41825e-08
3.59434e-09
3.35031e-08
4.09543e-09
3.25381e-08
4.13399e-09
3.14019e-08
4.02392e-09
3.01231e-08
3.81342e-09
2.8731e-08
3.4846e-09
2.72989e-08
3.06294e-09
2.58988e-08
2.60158e-09
2.45828e-08
2.16868e-09
2.33742e-08
1.80727e-09
2.2276e-08
1.52554e-09
2.12839e-08
1.31001e-09
2.03933e-08
1.14217e-09
1.95936e-08
1.01352e-09
1.88733e-08
9.13203e-10
1.82213e-08
8.32145e-10
1.76278e-08
7.64022e-10
1.70846e-08
7.04909e-10
1.65849e-08
6.52515e-10
1.61231e-08
6.0553e-10
1.56946e-08
5.63185e-10
1.52957e-08
5.24975e-10
1.49231e-08
4.90514e-10
1.45741e-08
4.59464e-10
1.42462e-08
4.3149e-10
1.39373e-08
4.06263e-10
1.36456e-08
3.83461e-10
1.33696e-08
3.6279e-10
1.31078e-08
3.43977e-10
1.28591e-08
3.26793e-10
1.26223e-08
3.11025e-10
1.23966e-08
2.96508e-10
1.21811e-08
2.83086e-10
1.1975e-08
2.70642e-10
1.17777e-08
2.59064e-10
1.15887e-08
2.4827e-10
1.14073e-08
2.38177e-10
1.12331e-08
2.28726e-10
1.10656e-08
2.19856e-10
1.09045e-08
2.11522e-10
1.07494e-08
2.03674e-10
1.05998e-08
1.96281e-10
1.04556e-08
1.893e-10
1.03164e-08
1.82708e-10
1.01819e-08
1.76468e-10
1.00519e-08
1.70563e-10
9.92621e-09
1.64962e-10
9.80453e-09
1.59647e-10
9.68669e-09
1.54599e-10
9.57251e-09
1.49796e-10
9.46181e-09
1.45229e-10
9.35442e-09
1.40871e-10
9.25019e-09
1.36724e-10
9.14899e-09
1.32755e-10
9.05066e-09
1.28976e-10
8.9551e-09
1.25348e-10
8.86217e-09
1.21896e-10
8.77178e-09
1.18565e-10
8.6838e-09
1.15403e-10
8.59816e-09
1.12333e-10
8.51474e-09
1.09431e-10
8.43348e-09
1.06589e-10
8.35427e-09
1.0392e-10
8.27706e-09
1.01279e-10
8.20175e-09
9.88214e-11
8.1283e-09
9.63549e-11
8.0566e-09
9.40899e-11
7.98665e-09
9.17744e-11
7.91833e-09
8.96873e-11
7.85164e-09
8.7502e-11
7.78646e-09
8.55811e-11
7.72283e-09
8.35058e-11
7.6606e-09
8.17436e-11
7.59983e-09
7.97588e-11
7.54036e-09
7.81513e-11
7.48228e-09
7.62391e-11
7.42541e-09
7.47845e-11
7.36987e-09
7.29285e-11
7.31543e-09
7.16296e-11
7.26228e-09
6.98122e-11
7.21013e-09
6.86772e-11
7.15922e-09
6.68815e-11
7.10922e-09
6.59221e-11
7.06042e-09
6.41325e-11
7.01242e-09
6.33674e-11
6.9656e-09
6.15652e-11
6.91946e-09
6.10252e-11
6.87446e-09
5.91892e-11
6.83001e-09
5.89136e-11
6.78668e-09
5.70277e-11
6.74374e-09
5.70651e-11
6.70189e-09
5.51165e-11
6.66024e-09
5.55364e-11
6.61963e-09
5.35143e-11
6.57901e-09
5.44138e-11
6.53932e-09
5.23254e-11
6.49934e-09
5.38761e-11
6.45995e-09
5.19171e-11
5.67222e-11
3.5851e-08
2.32493e-09
-3.57195e-08
3.62372e-08
3.20805e-09
3.64699e-08
3.86278e-09
3.6518e-08
4.0859e-09
3.64464e-08
4.09553e-09
3.62546e-08
4.00518e-09
3.59161e-08
3.82311e-09
3.54349e-08
3.54417e-09
3.48397e-08
3.19674e-09
3.41717e-08
2.83668e-09
3.34661e-08
2.51287e-09
3.27457e-08
2.24597e-09
3.20237e-08
2.03197e-09
3.13076e-08
1.85829e-09
3.06045e-08
1.71663e-09
2.99186e-08
1.59907e-09
2.92522e-08
1.49857e-09
2.86064e-08
1.40986e-09
2.79817e-08
1.32953e-09
2.73787e-08
1.25557e-09
2.67973e-08
1.18687e-09
2.62377e-08
1.12281e-09
2.56996e-08
1.06307e-09
2.51827e-08
1.00739e-09
2.46866e-08
9.55613e-10
2.42106e-08
9.07515e-10
2.3754e-08
8.62875e-10
2.3316e-08
8.21435e-10
2.28958e-08
7.82955e-10
2.24926e-08
7.47173e-10
2.21055e-08
7.1387e-10
2.17338e-08
6.82811e-10
2.13765e-08
6.53818e-10
2.10328e-08
6.26687e-10
2.07022e-08
6.01282e-10
2.03838e-08
5.77432e-10
2.00771e-08
5.55033e-10
1.97813e-08
5.33944e-10
1.9496e-08
5.14086e-10
1.92205e-08
4.95338e-10
1.89543e-08
4.77643e-10
1.86971e-08
4.60896e-10
1.84483e-08
4.45059e-10
1.82076e-08
4.30032e-10
1.79745e-08
4.15798e-10
1.77487e-08
4.0226e-10
1.75299e-08
3.89416e-10
1.73177e-08
3.77175e-10
1.71118e-08
3.65541e-10
1.69119e-08
3.54433e-10
1.67179e-08
3.43859e-10
1.65294e-08
3.33745e-10
1.63461e-08
3.24102e-10
1.6168e-08
3.14864e-10
1.59947e-08
3.06043e-10
1.58261e-08
2.97578e-10
1.5662e-08
2.89484e-10
1.55022e-08
2.81706e-10
1.53465e-08
2.74255e-10
1.51948e-08
2.67089e-10
1.50469e-08
2.60208e-10
1.49027e-08
2.53589e-10
1.47621e-08
2.47215e-10
1.4625e-08
2.41085e-10
1.44911e-08
2.35162e-10
1.43604e-08
2.29471e-10
1.42328e-08
2.23949e-10
1.41083e-08
2.18655e-10
1.39865e-08
2.13489e-10
1.38677e-08
2.08554e-10
1.37515e-08
2.03704e-10
1.3638e-08
1.99096e-10
1.35269e-08
1.94527e-10
1.34185e-08
1.90222e-10
1.33123e-08
1.859e-10
1.32086e-08
1.81876e-10
1.31071e-08
1.77773e-10
1.30078e-08
1.74014e-10
1.29107e-08
1.70108e-10
1.28157e-08
1.66603e-10
1.27226e-08
1.6287e-10
1.26317e-08
1.59616e-10
1.25425e-08
1.5604e-10
1.24554e-08
1.53036e-10
1.23699e-08
1.49607e-10
1.22864e-08
1.46862e-10
1.22044e-08
1.4357e-10
1.21244e-08
1.41108e-10
1.20456e-08
1.37949e-10
1.19687e-08
1.35802e-10
1.18929e-08
1.3279e-10
1.1819e-08
1.30998e-10
1.1746e-08
1.28169e-10
1.16747e-08
1.26794e-10
1.1604e-08
1.24205e-10
1.15351e-08
1.23354e-10
1.14663e-08
1.21095e-10
1.13991e-08
1.21095e-10
1.13316e-08
1.19449e-10
1.23227e-10
3.73871e-08
2.27462e-09
-3.73368e-08
3.76775e-08
2.91765e-09
3.80258e-08
3.51449e-09
3.82941e-08
3.8176e-09
3.85e-08
3.88968e-09
3.86588e-08
3.84638e-09
3.87498e-08
3.73208e-09
3.87492e-08
3.54472e-09
3.86506e-08
3.29537e-09
3.84682e-08
3.01913e-09
3.82243e-08
2.75676e-09
3.79381e-08
2.53211e-09
3.7621e-08
2.34915e-09
3.72787e-08
2.20059e-09
3.69171e-08
2.07818e-09
3.65409e-08
1.97524e-09
3.61532e-08
1.88626e-09
3.57561e-08
1.80696e-09
3.53513e-08
1.73435e-09
3.49404e-08
1.66652e-09
3.45248e-08
1.6024e-09
3.41063e-08
1.5414e-09
3.36861e-08
1.48323e-09
3.32658e-08
1.42773e-09
3.28465e-08
1.37484e-09
3.24296e-08
1.32446e-09
3.20159e-08
1.27653e-09
3.16065e-08
1.2309e-09
3.12019e-08
1.18748e-09
3.0803e-08
1.14611e-09
3.04102e-08
1.10671e-09
3.00239e-08
1.0691e-09
2.96444e-08
1.03324e-09
2.92722e-08
9.98971e-10
2.89072e-08
9.6625e-10
2.85497e-08
9.34941e-10
2.81997e-08
9.05026e-10
2.78573e-08
8.76372e-10
2.75224e-08
8.48979e-10
2.7195e-08
8.22719e-10
2.6875e-08
7.97606e-10
2.65624e-08
7.73509e-10
2.6257e-08
7.50463e-10
2.59587e-08
7.28324e-10
2.56674e-08
7.07152e-10
2.53828e-08
6.86786e-10
2.51049e-08
6.67311e-10
2.48336e-08
6.48554e-10
2.45685e-08
6.30615e-10
2.43096e-08
6.13313e-10
2.40567e-08
5.96765e-10
2.38097e-08
5.80779e-10
2.35683e-08
5.65493e-10
2.33325e-08
5.50694e-10
2.31019e-08
5.36552e-10
2.28767e-08
5.22825e-10
2.26565e-08
5.09719e-10
2.24412e-08
4.96963e-10
2.22307e-08
4.84792e-10
2.20248e-08
4.72916e-10
2.18235e-08
4.61593e-10
2.16265e-08
4.50509e-10
2.14338e-08
4.39956e-10
2.12453e-08
4.29586e-10
2.10607e-08
4.19732e-10
2.08802e-08
4.10007e-10
2.07034e-08
4.00788e-10
2.05304e-08
3.91643e-10
2.03608e-08
3.83002e-10
2.0195e-08
3.7438e-10
2.00325e-08
3.66266e-10
1.98734e-08
3.58114e-10
1.97175e-08
3.50484e-10
1.9565e-08
3.42757e-10
1.94153e-08
3.35569e-10
1.92689e-08
3.28226e-10
1.91253e-08
3.2145e-10
1.89848e-08
3.14454e-10
1.88469e-08
3.08067e-10
1.87121e-08
3.01385e-10
1.85796e-08
2.95369e-10
1.84502e-08
2.88978e-10
1.83229e-08
2.83325e-10
1.81988e-08
2.77203e-10
1.80764e-08
2.71919e-10
1.79573e-08
2.66053e-10
1.78397e-08
2.6115e-10
1.77252e-08
2.55546e-10
1.76121e-08
2.51049e-10
1.75022e-08
2.4572e-10
1.73933e-08
2.41686e-10
1.72877e-08
2.36657e-10
1.71827e-08
2.33173e-10
1.70809e-08
2.28512e-10
1.69795e-08
2.25681e-10
1.68813e-08
2.21566e-10
1.67829e-08
2.19488e-10
1.66875e-08
2.16501e-10
1.65915e-08
2.15454e-10
2.16259e-10
3.89784e-08
2.22493e-09
-3.89287e-08
3.91779e-08
2.71816e-09
3.94848e-08
3.20751e-09
3.97733e-08
3.52911e-09
4.00148e-08
3.64818e-09
4.02261e-08
3.63511e-09
4.04081e-08
3.55007e-09
4.05434e-08
3.40947e-09
4.06175e-08
3.22127e-09
4.06308e-08
3.00575e-09
4.05962e-08
2.7914e-09
4.05276e-08
2.60073e-09
4.04338e-08
2.44287e-09
4.03195e-08
2.3149e-09
4.01878e-08
2.20994e-09
4.00411e-08
2.12193e-09
3.98811e-08
2.04629e-09
3.97085e-08
1.97947e-09
3.9524e-08
1.91891e-09
3.93277e-08
1.86277e-09
3.91202e-08
1.80991e-09
3.8902e-08
1.75964e-09
3.86737e-08
1.71156e-09
3.8436e-08
1.66543e-09
3.81897e-08
1.62114e-09
3.79356e-08
1.57854e-09
3.76745e-08
1.53759e-09
3.74073e-08
1.49813e-09
3.71346e-08
1.46012e-09
3.68574e-08
1.42339e-09
3.65761e-08
1.38792e-09
3.62917e-08
1.35355e-09
3.60046e-08
1.3203e-09
3.57156e-08
1.288e-09
3.54252e-08
1.2567e-09
3.51339e-08
1.22624e-09
3.48422e-08
1.19671e-09
3.45506e-08
1.16794e-09
3.42595e-08
1.14005e-09
3.39694e-08
1.11285e-09
3.36805e-08
1.08648e-09
3.33933e-08
1.06076e-09
3.31079e-08
1.03585e-09
3.28247e-08
1.01153e-09
3.25438e-08
9.88003e-10
3.22656e-08
9.65003e-10
3.19901e-08
9.42798e-10
3.17176e-08
9.2106e-10
3.14481e-08
9.00106e-10
3.11819e-08
8.79565e-10
3.09189e-08
8.598e-10
3.06592e-08
8.40389e-10
3.0403e-08
8.21752e-10
3.01503e-08
8.03401e-10
2.9901e-08
7.85834e-10
2.96553e-08
7.68474e-10
2.94131e-08
7.51916e-10
2.91746e-08
7.35484e-10
2.89395e-08
7.19873e-10
2.87082e-08
7.04305e-10
2.84802e-08
6.89583e-10
2.82559e-08
6.74813e-10
2.80349e-08
6.60927e-10
2.78176e-08
6.46889e-10
2.76035e-08
6.33789e-10
2.73931e-08
6.20419e-10
2.71858e-08
6.08056e-10
2.69822e-08
5.95294e-10
2.67816e-08
5.83625e-10
2.65845e-08
5.71409e-10
2.63904e-08
5.60396e-10
2.61999e-08
5.48667e-10
2.60121e-08
5.38276e-10
2.58278e-08
5.26981e-10
2.56462e-08
5.17184e-10
2.54682e-08
5.06268e-10
2.52926e-08
4.97046e-10
2.51206e-08
4.86458e-10
2.49509e-08
4.77801e-10
2.47847e-08
4.67493e-10
2.46207e-08
4.59401e-10
2.44604e-08
4.49329e-10
2.43019e-08
4.41814e-10
2.41471e-08
4.31937e-10
2.3994e-08
4.2503e-10
2.38448e-08
4.15317e-10
2.36969e-08
4.09056e-10
2.35529e-08
3.99497e-10
2.341e-08
3.93939e-10
2.32712e-08
3.8454e-10
2.31331e-08
3.79776e-10
2.29992e-08
3.70566e-10
2.28657e-08
3.66713e-10
2.27364e-08
3.57803e-10
2.26071e-08
3.54974e-10
2.2482e-08
3.46652e-10
2.23565e-08
3.4495e-10
2.2235e-08
3.37991e-10
2.21127e-08
3.37751e-10
3.34227e-10
4.05974e-08
2.16506e-09
-4.05376e-08
4.07504e-08
2.56518e-09
4.10004e-08
2.9575e-09
4.12677e-08
3.26182e-09
4.15047e-08
3.41116e-09
4.17103e-08
3.42947e-09
4.18925e-08
3.36787e-09
4.20453e-08
3.25669e-09
4.2158e-08
3.10861e-09
4.22272e-08
2.9365e-09
4.22597e-08
2.75894e-09
4.2266e-08
2.59439e-09
4.22549e-08
2.454e-09
4.22311e-08
2.33873e-09
4.2197e-08
2.24398e-09
4.21544e-08
2.16457e-09
4.21042e-08
2.09651e-09
4.20468e-08
2.03684e-09
4.19823e-08
1.98341e-09
4.19105e-08
1.9346e-09
4.18311e-08
1.88934e-09
4.17439e-08
1.84681e-09
4.16488e-08
1.80661e-09
4.15459e-08
1.76834e-09
4.14352e-08
1.73187e-09
4.13168e-08
1.69694e-09
4.11909e-08
1.66351e-09
4.10577e-08
1.63133e-09
4.09174e-08
1.60041e-09
4.07703e-08
1.57047e-09
4.06166e-08
1.54157e-09
4.04568e-08
1.51343e-09
4.02909e-08
1.48616e-09
4.01194e-08
1.45948e-09
3.99426e-08
1.43355e-09
3.97608e-08
1.40806e-09
3.95742e-08
1.38325e-09
3.93834e-08
1.35879e-09
3.91885e-08
1.33495e-09
3.89899e-08
1.31139e-09
3.8788e-08
1.28844e-09
3.8583e-08
1.2657e-09
3.83753e-08
1.24358e-09
3.81652e-08
1.22161e-09
3.79529e-08
1.20028e-09
3.77389e-08
1.17904e-09
3.75232e-08
1.15847e-09
3.73063e-08
1.13794e-09
3.70883e-08
1.11812e-09
3.68696e-08
1.09827e-09
3.66503e-08
1.07917e-09
3.64307e-08
1.05999e-09
3.62108e-08
1.04161e-09
3.59911e-08
1.02306e-09
3.57716e-08
1.0054e-09
3.55526e-08
9.87465e-10
3.5334e-08
9.70509e-10
3.51163e-08
9.53158e-10
3.48993e-08
9.36889e-10
3.46835e-08
9.201e-10
3.44686e-08
9.04505e-10
3.42551e-08
8.88244e-10
3.40428e-08
8.73313e-10
3.38321e-08
8.57541e-10
3.36226e-08
8.43262e-10
3.34151e-08
8.27939e-10
3.32089e-08
8.143e-10
3.30048e-08
7.99384e-10
3.2802e-08
7.86375e-10
3.26016e-08
7.71818e-10
3.24026e-08
7.59432e-10
3.22061e-08
7.45186e-10
3.20109e-08
7.3342e-10
3.18185e-08
7.19433e-10
3.16274e-08
7.08286e-10
3.14391e-08
6.9451e-10
3.12522e-08
6.8399e-10
3.10683e-08
6.70371e-10
3.08856e-08
6.60496e-10
3.07061e-08
6.46981e-10
3.05277e-08
6.37777e-10
3.03527e-08
6.24318e-10
3.01787e-08
6.15825e-10
3.00083e-08
6.02376e-10
2.98387e-08
5.94651e-10
2.96728e-08
5.81178e-10
2.95076e-08
5.74289e-10
2.93463e-08
5.60783e-10
2.91854e-08
5.54809e-10
2.90286e-08
5.41293e-10
2.88721e-08
5.36343e-10
2.87198e-08
5.2288e-10
2.85674e-08
5.19088e-10
2.84194e-08
5.05845e-10
2.8271e-08
5.03337e-10
2.81269e-08
4.90701e-10
2.79823e-08
4.89623e-10
2.78418e-08
4.78449e-10
2.77003e-08
4.79227e-10
4.71039e-10
4.22501e-08
2.09943e-09
-4.21844e-08
4.23794e-08
2.43582e-09
4.25815e-08
2.75543e-09
4.28173e-08
3.02597e-09
4.30412e-08
3.18729e-09
4.32371e-08
3.23361e-09
4.34078e-08
3.19717e-09
4.35538e-08
3.1107e-09
4.36699e-08
2.99251e-09
4.37526e-08
2.85376e-09
4.38048e-08
2.70677e-09
4.38339e-08
2.56524e-09
4.38482e-08
2.43979e-09
4.38528e-08
2.33406e-09
4.38508e-08
2.24602e-09
4.38436e-08
2.17172e-09
4.38324e-08
2.10777e-09
4.38176e-08
2.05157e-09
4.37996e-08
2.00142e-09
4.37783e-08
1.9559e-09
4.37535e-08
1.91414e-09
4.3725e-08
1.87533e-09
4.36925e-08
1.83908e-09
4.36559e-08
1.80492e-09
4.36151e-08
1.77273e-09
4.35699e-08
1.74215e-09
4.35202e-08
1.71321e-09
4.3466e-08
1.68555e-09
4.34071e-08
1.65924e-09
4.33437e-08
1.63392e-09
4.32755e-08
1.60973e-09
4.32027e-08
1.58626e-09
4.31251e-08
1.56373e-09
4.30429e-08
1.5417e-09
4.2956e-08
1.52049e-09
4.28645e-08
1.49959e-09
4.27683e-08
1.47942e-09
4.26676e-08
1.45942e-09
4.25625e-08
1.44009e-09
4.24531e-08
1.42082e-09
4.23393e-08
1.4022e-09
4.22215e-08
1.38353e-09
4.20995e-08
1.36552e-09
4.19738e-08
1.34735e-09
4.18442e-08
1.32988e-09
4.17111e-08
1.31214e-09
4.15744e-08
1.29517e-09
4.14345e-08
1.27781e-09
4.12914e-08
1.26129e-09
4.11453e-08
1.24429e-09
4.09963e-08
1.2282e-09
4.08448e-08
1.21151e-09
4.06906e-08
1.19584e-09
4.05342e-08
1.17944e-09
4.03754e-08
1.16419e-09
4.02148e-08
1.14804e-09
4.00521e-08
1.13322e-09
3.9888e-08
1.11731e-09
3.97219e-08
1.1029e-09
3.95548e-08
1.08721e-09
3.93861e-08
1.07322e-09
3.92167e-08
1.05771e-09
3.90458e-08
1.04416e-09
3.88745e-08
1.02881e-09
3.87021e-08
1.0157e-09
3.85296e-08
1.00048e-09
3.8356e-08
9.87822e-10
3.81827e-08
9.72687e-10
3.80086e-08
9.60499e-10
3.7835e-08
9.45416e-10
3.76607e-08
9.33714e-10
3.74873e-08
9.18641e-10
3.73132e-08
9.07447e-10
3.71403e-08
8.92339e-10
3.69669e-08
8.81677e-10
3.6795e-08
8.66493e-10
3.66226e-08
8.56393e-10
3.64518e-08
8.41083e-10
3.62808e-08
8.31589e-10
3.61116e-08
8.16107e-10
3.59421e-08
8.07267e-10
3.57749e-08
7.91571e-10
3.56073e-08
7.83448e-10
3.54421e-08
7.67502e-10
3.52766e-08
7.60171e-10
3.51138e-08
7.43954e-10
3.49506e-08
7.37502e-10
3.47904e-08
7.21027e-10
3.46296e-08
7.15545e-10
3.44721e-08
6.98871e-10
3.43139e-08
6.94472e-10
3.41591e-08
6.77708e-10
3.40037e-08
6.74543e-10
3.38516e-08
6.57912e-10
3.36988e-08
6.56132e-10
3.35494e-08
6.40093e-10
3.33991e-08
6.3992e-10
3.32522e-08
6.25324e-10
3.31042e-08
6.27245e-10
6.15307e-10
4.39449e-08
2.03303e-09
-4.38785e-08
4.40596e-08
2.32113e-09
4.42267e-08
2.58831e-09
4.44305e-08
2.82223e-09
4.4636e-08
2.98176e-09
4.48216e-08
3.048e-09
4.49824e-08
3.03637e-09
4.51196e-08
2.97345e-09
4.52323e-08
2.87989e-09
4.53181e-08
2.76789e-09
4.5378e-08
2.64691e-09
4.54166e-08
2.52667e-09
4.54404e-08
2.41596e-09
4.54549e-08
2.31952e-09
4.54634e-08
2.23757e-09
4.54675e-08
2.16756e-09
4.54685e-08
2.10681e-09
4.54671e-08
2.05302e-09
4.54637e-08
2.00482e-09
4.54586e-08
1.96098e-09
4.54518e-08
1.92088e-09
4.54434e-08
1.88372e-09
4.54333e-08
1.84925e-09
4.54213e-08
1.81689e-09
4.54074e-08
1.78662e-09
4.53916e-08
1.75798e-09
4.53737e-08
1.73109e-09
4.53538e-08
1.70548e-09
4.53316e-08
1.68138e-09
4.53073e-08
1.65825e-09
4.52806e-08
1.63643e-09
4.52516e-08
1.6153e-09
4.522e-08
1.59531e-09
4.51859e-08
1.57578e-09
4.51491e-08
1.55727e-09
4.51097e-08
1.53902e-09
4.50674e-08
1.5217e-09
4.50224e-08
1.50446e-09
4.49743e-08
1.48812e-09
4.49235e-08
1.4717e-09
4.48695e-08
1.45617e-09
4.48126e-08
1.4404e-09
4.47526e-08
1.42556e-09
4.46896e-08
1.41032e-09
4.46234e-08
1.39607e-09
4.45543e-08
1.38125e-09
4.4482e-08
1.36751e-09
4.44067e-08
1.35304e-09
4.43283e-08
1.33974e-09
4.4247e-08
1.32554e-09
4.41626e-08
1.31265e-09
4.40754e-08
1.29866e-09
4.39851e-08
1.28614e-09
4.38922e-08
1.27231e-09
4.37963e-08
1.26014e-09
4.36979e-08
1.2464e-09
4.35966e-08
1.23457e-09
4.3493e-08
1.22089e-09
4.33865e-08
1.20937e-09
4.3278e-08
1.19572e-09
4.31667e-08
1.18451e-09
4.30536e-08
1.17083e-09
4.29378e-08
1.15995e-09
4.28205e-08
1.1462e-09
4.27005e-08
1.13563e-09
4.25792e-08
1.12177e-09
4.24555e-08
1.11154e-09
4.23307e-08
1.09752e-09
4.22035e-08
1.08764e-09
4.20755e-08
1.07341e-09
4.19454e-08
1.0639e-09
4.18146e-08
1.04942e-09
4.16817e-08
1.0403e-09
4.15485e-08
1.02552e-09
4.14134e-08
1.01683e-09
4.12782e-08
1.00171e-09
4.11411e-08
9.93476e-10
4.10042e-08
9.77964e-10
4.08656e-08
9.70237e-10
4.07274e-08
9.54296e-10
4.05875e-08
9.47126e-10
4.04484e-08
9.30724e-10
4.03076e-08
9.24179e-10
4.01678e-08
9.0729e-10
4.00266e-08
9.01447e-10
3.98864e-08
8.84073e-10
3.97449e-08
8.79017e-10
3.96048e-08
8.61201e-10
3.94633e-08
8.57016e-10
3.93233e-08
8.38858e-10
3.91821e-08
8.35654e-10
3.90425e-08
8.17305e-10
3.89018e-08
8.15244e-10
3.87628e-08
7.9697e-10
3.86227e-08
7.96238e-10
3.84842e-08
7.78543e-10
3.83447e-08
7.79429e-10
3.82069e-08
7.63129e-10
3.8068e-08
7.66149e-10
7.52353e-10
4.56883e-08
1.96848e-09
-4.56238e-08
4.57916e-08
2.21785e-09
4.59344e-08
2.44549e-09
4.61096e-08
2.64708e-09
4.62944e-08
2.79689e-09
4.64679e-08
2.87448e-09
4.66202e-08
2.8841e-09
4.67501e-08
2.84352e-09
4.68583e-08
2.77174e-09
4.69442e-08
2.68196e-09
4.70081e-08
2.58301e-09
4.70527e-08
2.48209e-09
4.70826e-08
2.38603e-09
4.71028e-08
2.2994e-09
4.71164e-08
2.22391e-09
4.71256e-08
2.15837e-09
4.71315e-08
2.10096e-09
4.71348e-08
2.04964e-09
4.71363e-08
2.00336e-09
4.71363e-08
1.96098e-09
4.7135e-08
1.92216e-09
4.71327e-08
1.88608e-09
4.71292e-08
1.85269e-09
4.71248e-08
1.8213e-09
4.71194e-08
1.79205e-09
4.71131e-08
1.76431e-09
4.71057e-08
1.7384e-09
4.70976e-08
1.71366e-09
4.70884e-08
1.69053e-09
4.70784e-08
1.66827e-09
4.70674e-08
1.64747e-09
4.70554e-08
1.62726e-09
4.70423e-08
1.60837e-09
4.70283e-08
1.58983e-09
4.7013e-08
1.57253e-09
4.69967e-08
1.55537e-09
4.6979e-08
1.53939e-09
4.69601e-08
1.52335e-09
4.69398e-08
1.50848e-09
4.69181e-08
1.49337e-09
4.68948e-08
1.47946e-09
4.68701e-08
1.4651e-09
4.68436e-08
1.45202e-09
4.68157e-08
1.43829e-09
4.67858e-08
1.42594e-09
4.67543e-08
1.41272e-09
4.67209e-08
1.40101e-09
4.66857e-08
1.38821e-09
4.66484e-08
1.37706e-09
4.66093e-08
1.3646e-09
4.6568e-08
1.35396e-09
4.65249e-08
1.34175e-09
4.64795e-08
1.33157e-09
4.64323e-08
1.31954e-09
4.63826e-08
1.3098e-09
4.63311e-08
1.29788e-09
4.62771e-08
1.28853e-09
4.62214e-08
1.27666e-09
4.61631e-08
1.26768e-09
4.6103e-08
1.2558e-09
4.60403e-08
1.24717e-09
4.5976e-08
1.23521e-09
4.5909e-08
1.22693e-09
4.58404e-08
1.21482e-09
4.57691e-08
1.20687e-09
4.56963e-08
1.19457e-09
4.56209e-08
1.18695e-09
4.5544e-08
1.17439e-09
4.54646e-08
1.1671e-09
4.53837e-08
1.15423e-09
4.53004e-08
1.14728e-09
4.52158e-08
1.13402e-09
4.51286e-08
1.12743e-09
4.50404e-08
1.11375e-09
4.49497e-08
1.10751e-09
4.48581e-08
1.09336e-09
4.47641e-08
1.08751e-09
4.46692e-08
1.07282e-09
4.4572e-08
1.0674e-09
4.44742e-08
1.05215e-09
4.43741e-08
1.04717e-09
4.42735e-08
1.03135e-09
4.41708e-08
1.02688e-09
4.40676e-08
1.01045e-09
4.39625e-08
1.00654e-09
4.38571e-08
9.89544e-10
4.37498e-08
9.86263e-10
4.36423e-08
9.68751e-10
4.35331e-08
9.6617e-10
4.34237e-08
9.48281e-10
4.33129e-08
9.46486e-10
4.32018e-08
9.28405e-10
4.30894e-08
9.27569e-10
4.29768e-08
9.09576e-10
4.28632e-08
9.09918e-10
4.27492e-08
8.92541e-10
4.26342e-08
8.94387e-10
4.25189e-08
8.78395e-10
4.24028e-08
8.82291e-10
8.68761e-10
4.74849e-08
1.90654e-09
-4.74229e-08
4.75786e-08
2.12413e-09
4.77036e-08
2.32047e-09
4.78552e-08
2.49545e-09
4.80196e-08
2.63248e-09
4.81794e-08
2.7147e-09
4.83231e-08
2.74042e-09
4.84468e-08
2.71979e-09
4.85507e-08
2.66782e-09
4.86355e-08
2.59722e-09
4.87015e-08
2.517e-09
4.87504e-08
2.43319e-09
4.87853e-08
2.35115e-09
4.881e-08
2.2747e-09
4.88276e-08
2.20624e-09
4.88404e-08
2.14558e-09
4.88495e-08
2.09186e-09
4.88558e-08
2.04334e-09
4.88599e-08
1.9993e-09
4.88623e-08
1.95861e-09
4.88632e-08
1.9212e-09
4.88631e-08
1.88624e-09
4.88619e-08
1.85387e-09
4.88599e-08
1.82331e-09
4.8857e-08
1.79489e-09
4.88535e-08
1.7678e-09
4.88494e-08
1.74257e-09
4.88447e-08
1.71832e-09
4.88395e-08
1.69577e-09
4.88338e-08
1.67391e-09
4.88277e-08
1.65361e-09
4.88212e-08
1.63374e-09
4.88142e-08
1.61535e-09
4.88069e-08
1.59713e-09
4.87991e-08
1.58034e-09
4.8791e-08
1.56351e-09
4.87823e-08
1.54808e-09
4.87732e-08
1.53239e-09
4.87636e-08
1.51814e-09
4.87535e-08
1.50343e-09
4.87428e-08
1.49021e-09
4.87315e-08
1.47631e-09
4.87195e-08
1.46402e-09
4.8707e-08
1.4508e-09
4.86936e-08
1.43933e-09
4.86797e-08
1.4267e-09
4.86647e-08
1.41597e-09
4.86491e-08
1.40383e-09
4.86324e-08
1.39378e-09
4.86149e-08
1.38204e-09
4.85963e-08
1.37262e-09
4.85768e-08
1.3612e-09
4.8556e-08
1.35236e-09
4.85344e-08
1.34118e-09
4.85113e-08
1.33288e-09
4.84873e-08
1.32187e-09
4.84618e-08
1.31407e-09
4.84353e-08
1.30318e-09
4.84071e-08
1.29584e-09
4.83779e-08
1.28499e-09
4.8347e-08
1.2781e-09
4.8315e-08
1.2672e-09
4.82812e-08
1.26075e-09
4.82462e-08
1.24975e-09
4.82094e-08
1.24369e-09
4.81715e-08
1.23253e-09
4.81316e-08
1.22685e-09
4.80905e-08
1.21546e-09
4.80474e-08
1.21016e-09
4.80032e-08
1.19847e-09
4.79569e-08
1.19354e-09
4.79095e-08
1.18148e-09
4.786e-08
1.17691e-09
4.78093e-08
1.16445e-09
4.77566e-08
1.16022e-09
4.77026e-08
1.1473e-09
4.76467e-08
1.14344e-09
4.75895e-08
1.12999e-09
4.75305e-08
1.12649e-09
4.74701e-08
1.11251e-09
4.74079e-08
1.10938e-09
4.73444e-08
1.09485e-09
4.72791e-08
1.09213e-09
4.72126e-08
1.07702e-09
4.71444e-08
1.07474e-09
4.70748e-08
1.05912e-09
4.70038e-08
1.05731e-09
4.69313e-08
1.04123e-09
4.68575e-08
1.03996e-09
4.67822e-08
1.02359e-09
4.67058e-08
1.02291e-09
4.66277e-08
1.00645e-09
4.65487e-08
1.00656e-09
4.6468e-08
9.90272e-10
4.63865e-08
9.91401e-10
4.63033e-08
9.7583e-10
4.62193e-08
9.78321e-10
4.61335e-08
9.64176e-10
4.60472e-08
9.6863e-10
9.56918e-10
4.93383e-08
1.8472e-09
-4.9279e-08
4.94239e-08
2.03853e-09
4.95349e-08
2.20946e-09
4.96677e-08
2.36271e-09
4.98133e-08
2.48682e-09
4.99588e-08
2.56925e-09
5.00932e-08
2.60602e-09
5.0211e-08
2.60197e-09
5.03111e-08
2.56773e-09
5.03941e-08
2.51418e-09
5.04609e-08
2.45018e-09
5.05128e-08
2.38137e-09
5.05516e-08
2.31231e-09
5.05803e-08
2.24601e-09
5.06016e-08
2.18498e-09
5.06175e-08
2.12963e-09
5.06294e-08
2.07993e-09
5.06383e-08
2.03453e-09
5.06445e-08
1.99305e-09
5.06488e-08
1.95436e-09
5.06513e-08
1.91863e-09
5.06526e-08
1.88496e-09
5.06527e-08
1.85376e-09
5.06519e-08
1.82412e-09
5.06502e-08
1.79657e-09
5.06479e-08
1.77015e-09
5.06449e-08
1.74558e-09
5.06414e-08
1.7218e-09
5.06374e-08
1.69975e-09
5.06331e-08
1.6782e-09
5.06284e-08
1.6583e-09
5.06235e-08
1.63863e-09
5.06183e-08
1.62054e-09
5.0613e-08
1.60246e-09
5.06074e-08
1.58593e-09
5.06018e-08
1.56918e-09
5.05958e-08
1.554e-09
5.05899e-08
1.53837e-09
5.05836e-08
1.52437e-09
5.05774e-08
1.50969e-09
5.05708e-08
1.49676e-09
5.05643e-08
1.48288e-09
5.05574e-08
1.4709e-09
5.05504e-08
1.45773e-09
5.05432e-08
1.44661e-09
5.05358e-08
1.43406e-09
5.0528e-08
1.42372e-09
5.05202e-08
1.4117e-09
5.05119e-08
1.40209e-09
5.05034e-08
1.39051e-09
5.04944e-08
1.3816e-09
5.04852e-08
1.37037e-09
5.04755e-08
1.36212e-09
5.04654e-08
1.35119e-09
5.04548e-08
1.34355e-09
5.04438e-08
1.33285e-09
5.04321e-08
1.32577e-09
5.042e-08
1.31525e-09
5.04072e-08
1.30871e-09
5.03939e-08
1.29829e-09
5.03797e-08
1.29228e-09
5.0365e-08
1.28188e-09
5.03494e-08
1.27636e-09
5.03332e-08
1.26594e-09
5.0316e-08
1.26087e-09
5.02982e-08
1.25038e-09
5.02793e-08
1.24575e-09
5.02596e-08
1.2351e-09
5.02389e-08
1.23089e-09
5.02174e-08
1.22002e-09
5.01947e-08
1.21622e-09
5.01711e-08
1.20508e-09
5.01463e-08
1.20165e-09
5.01206e-08
1.1902e-09
5.00937e-08
1.18712e-09
5.00657e-08
1.17531e-09
5.00365e-08
1.17259e-09
5.00061e-08
1.16036e-09
4.99747e-08
1.15796e-09
4.99419e-08
1.14533e-09
4.9908e-08
1.14324e-09
4.98727e-08
1.13017e-09
4.98364e-08
1.12844e-09
4.97984e-08
1.11493e-09
4.97597e-08
1.11354e-09
4.97191e-08
1.09966e-09
4.96778e-08
1.09864e-09
4.96346e-08
1.08444e-09
4.95907e-08
1.08386e-09
4.95447e-08
1.06953e-09
4.94982e-08
1.06939e-09
4.94496e-08
1.05513e-09
4.94004e-08
1.05569e-09
4.9349e-08
1.04171e-09
4.92972e-08
1.04321e-09
4.92429e-08
1.03007e-09
4.91884e-08
1.03284e-09
4.91314e-08
1.02119e-09
4.90741e-08
1.02592e-09
1.01663e-09
5.1252e-08
1.79043e-09
-5.11953e-08
5.13306e-08
1.95995e-09
5.14301e-08
2.10997e-09
5.15475e-08
2.2453e-09
5.16767e-08
2.35759e-09
5.18082e-08
2.43777e-09
5.19328e-08
2.48144e-09
5.20444e-08
2.49033e-09
5.21407e-08
2.47141e-09
5.22219e-08
2.43306e-09
5.22887e-08
2.38338e-09
5.23423e-08
2.32777e-09
5.23841e-08
2.27048e-09
5.24162e-08
2.21391e-09
5.24407e-08
2.16048e-09
5.24595e-08
2.11077e-09
5.24741e-08
2.0654e-09
5.24852e-08
2.0234e-09
5.24935e-08
1.98473e-09
5.24996e-08
1.94832e-09
5.25037e-08
1.9145e-09
5.25063e-08
1.88236e-09
5.25076e-08
1.85249e-09
5.25078e-08
1.82391e-09
5.2507e-08
1.79734e-09
5.25055e-08
1.77167e-09
5.25032e-08
1.74784e-09
5.25004e-08
1.72459e-09
5.24971e-08
1.70308e-09
5.24934e-08
1.68188e-09
5.24894e-08
1.66236e-09
5.24851e-08
1.64291e-09
5.24805e-08
1.62511e-09
5.24758e-08
1.60715e-09
5.24709e-08
1.59082e-09
5.2466e-08
1.57412e-09
5.24609e-08
1.5591e-09
5.24558e-08
1.54347e-09
5.24506e-08
1.52959e-09
5.24454e-08
1.51487e-09
5.24401e-08
1.50205e-09
5.24349e-08
1.48811e-09
5.24295e-08
1.47624e-09
5.24243e-08
1.46299e-09
5.24189e-08
1.45197e-09
5.24136e-08
1.43934e-09
5.24083e-08
1.4291e-09
5.24029e-08
1.41702e-09
5.23975e-08
1.40753e-09
5.23921e-08
1.3959e-09
5.23866e-08
1.38713e-09
5.23811e-08
1.37587e-09
5.23754e-08
1.36778e-09
5.23698e-08
1.35684e-09
5.23639e-08
1.34938e-09
5.23581e-08
1.33874e-09
5.2352e-08
1.33185e-09
5.23458e-08
1.32144e-09
5.23394e-08
1.31513e-09
5.23328e-08
1.30485e-09
5.2326e-08
1.29911e-09
5.23189e-08
1.28891e-09
5.23116e-08
1.28368e-09
5.2304e-08
1.27355e-09
5.22961e-08
1.26878e-09
5.22878e-08
1.25867e-09
5.22792e-08
1.25436e-09
5.22701e-08
1.24416e-09
5.22607e-08
1.2403e-09
5.22508e-08
1.22997e-09
5.22405e-08
1.22652e-09
5.22295e-08
1.21604e-09
5.22182e-08
1.21296e-09
5.22061e-08
1.20229e-09
5.21937e-08
1.19955e-09
5.21804e-08
1.18862e-09
5.21667e-08
1.18625e-09
5.21521e-08
1.17504e-09
5.21371e-08
1.17294e-09
5.21209e-08
1.1615e-09
5.21045e-08
1.15968e-09
5.20867e-08
1.14791e-09
5.20687e-08
1.14643e-09
5.20493e-08
1.13439e-09
5.20297e-08
1.13317e-09
5.20084e-08
1.12093e-09
5.1987e-08
1.12006e-09
5.19638e-08
1.10762e-09
5.19405e-08
1.10715e-09
5.19153e-08
1.09476e-09
5.189e-08
1.09466e-09
5.18626e-08
1.08249e-09
5.18352e-08
1.08308e-09
5.18057e-08
1.0713e-09
5.1776e-08
1.07282e-09
5.17441e-08
1.062e-09
5.17122e-08
1.0648e-09
5.16779e-08
1.05548e-09
5.16435e-08
1.06029e-09
1.05325e-09
5.32293e-08
1.73624e-09
-5.31751e-08
5.33017e-08
1.88758e-09
5.33914e-08
2.02026e-09
5.34961e-08
2.14066e-09
5.36111e-08
2.24252e-09
5.37296e-08
2.31926e-09
5.38443e-08
2.36683e-09
5.39493e-08
2.38532e-09
5.40416e-08
2.37907e-09
5.41206e-08
2.35406e-09
5.41868e-08
2.31716e-09
5.42413e-08
2.27328e-09
5.42852e-08
2.22657e-09
5.432e-08
2.17912e-09
5.43473e-08
2.13316e-09
5.43688e-08
2.08927e-09
5.43858e-08
2.04848e-09
5.43991e-08
2.01009e-09
5.44093e-08
1.97445e-09
5.44171e-08
1.94053e-09
5.44228e-08
1.90883e-09
5.44267e-08
1.87843e-09
5.44292e-08
1.85005e-09