/*--------------------------------*- C++ -*----------------------------------*\
| =========                 |                                                 |
| \\      /  F ield         | OpenFOAM: The Open Source CFD Toolbox           |
|  \\    /   O peration     | Version:  2.3.0                                 |
|   \\  /    A nd           | Web:      www.OpenFOAM.org                      |
|    \\/     M anipulation  |                                                 |
\*---------------------------------------------------------------------------*/
FoamFile
{
    version     2.0;
    format      ascii;
    class       volScalarField;
    location    "0.2";
    object      p;
}
// * * * * * * * * * * * * * * * * * * * * * * * * * * * * * * * * * * * * * //

dimensions      [0 2 -2 0 0 0 0];

internalField   nonuniform List<scalar> 
3375
(
0.00476054
0.00413711
0.00362326
0.00325028
0.00294038
0.00266001
0.00240863
0.00219084
0.00200813
0.00185941
0.00174208
0.00165232
0.00158549
0.00153661
0.00150093
0.00147431
0.00145338
0.00143564
0.0014193
0.0014032
0.00138665
0.00136931
0.00135103
0.00133181
0.00131171
0.00129084
0.0012693
0.0012472
0.00122463
0.00120168
0.00117843
0.00115494
0.00113126
0.00110746
0.00108359
0.00105971
0.00103587
0.00101212
0.000988546
0.000965201
0.000942167
0.000919533
0.000897401
0.000875895
0.000855161
0.000835374
0.000816731
0.000799437
0.000783692
0.000769658
0.000757419
0.000746947
0.000737873
0.000729939
0.000722656
0.000715608
0.00070843
0.000700838
0.00069264
0.00068372
0.000674029
0.000663561
0.000652345
0.000640432
0.000627879
0.000614747
0.000601094
0.000586973
0.00057243
0.000557504
0.000542231
0.000526637
0.000510749
0.000494586
0.000478164
0.0004615
0.000444607
0.000427495
0.000410177
0.000392661
0.000374957
0.000357073
0.000339017
0.000320797
0.000302419
0.00028389
0.000265215
0.000246398
0.000227446
0.000208358
0.000189138
0.000169789
0.000150309
0.0001307
0.00011096
9.10894e-05
7.10862e-05
5.09476e-05
3.0671e-05
1.02519e-05
0.00446554
0.00401954
0.00359698
0.00325784
0.00296284
0.00269012
0.00244209
0.00222505
0.00204155
0.00189112
0.00177152
0.00167916
0.00160961
0.00155804
0.0015198
0.00149082
0.00146778
0.00144817
0.00143021
0.00141273
0.00139501
0.00137668
0.00135757
0.00133764
0.00131694
0.00129556
0.00127358
0.0012511
0.0012282
0.00120495
0.00118144
0.0011577
0.00113381
0.00110982
0.00108576
0.00106171
0.00103771
0.00101382
0.000990095
0.000966614
0.000943449
0.000920686
0.000898427
0.000876793
0.000855929
0.000836007
0.000817225
0.000799793
0.000783917
0.00076976
0.000757409
0.000746769
0.000737684
0.000729715
0.000722436
0.000715409
0.000708249
0.000700674
0.000692491
0.000683588
0.000673911
0.000663456
0.000652253
0.000640351
0.000627808
0.000614685
0.000601041
0.000586926
0.000572389
0.00055747
0.000542202
0.000526613
0.000510729
0.000494569
0.000478151
0.00046149
0.000444599
0.000427489
0.000410172
0.000392658
0.000374955
0.000357072
0.000339016
0.000320797
0.000302419
0.000283891
0.000265216
0.000246399
0.000227446
0.000208359
0.000189139
0.000169789
0.000150309
0.0001307
0.00011096
9.10896e-05
7.10865e-05
5.09479e-05
3.06714e-05
1.02527e-05
0.00425143
0.00391788
0.00355961
0.0032464
0.00296744
0.00270877
0.00247179
0.00226201
0.0020822
0.00193243
0.00181107
0.0017153
0.00164138
0.00158513
0.00154236
0.00150931
0.00148281
0.00146038
0.00144021
0.00142103
0.00140203
0.00138273
0.00136288
0.00134239
0.00132124
0.00129949
0.0012772
0.00125445
0.00123131
0.00120785
0.00118413
0.00116021
0.00113615
0.00111199
0.00108779
0.00106359
0.00103945
0.00101543
0.00099158
0.000967978
0.000944694
0.000921814
0.00089944
0.000877689
0.000856709
0.00083667
0.000817772
0.000800226
0.000784244
0.000769994
0.000757573
0.000746969
0.000737949
0.000729931
0.000722503
0.000715388
0.000708192
0.000700598
0.000692405
0.000683495
0.000673817
0.000663364
0.000652164
0.000640267
0.00062773
0.000614613
0.000600975
0.000586868
0.000572337
0.000557424
0.000542162
0.000526579
0.0005107
0.000494545
0.000478131
0.000461473
0.000444585
0.000427479
0.000410164
0.000392652
0.00037495
0.000357068
0.000339014
0.000320795
0.000302418
0.00028389
0.000265215
0.0002464
0.000227447
0.000208359
0.000189138
0.000169789
0.000150309
0.0001307
0.00011096
9.10895e-05
7.10865e-05
5.09482e-05
3.06723e-05
1.02553e-05
0.00406872
0.00380745
0.00350426
0.00322168
0.0029642
0.00272417
0.0025023
0.0023032
0.00212985
0.00198289
0.00186135
0.00176314
0.00168529
0.00162431
0.00157658
0.00153874
0.00150788
0.00148163
0.00145822
0.00143634
0.00141513
0.00139402
0.00137271
0.00135102
0.00132889
0.00130633
0.00128337
0.00126004
0.00123641
0.00121253
0.00118845
0.00116421
0.00113986
0.00111544
0.00109101
0.0010666
0.00104227
0.00101808
0.000994069
0.000970315
0.000946888
0.000923873
0.000901369
0.000879495
0.000858396
0.000838243
0.000819236
0.000801586
0.000785503
0.000771154
0.000758624
0.000747866
0.000738688
0.000730678
0.000723186
0.000715842
0.000708442
0.000700706
0.000692416
0.00068344
0.000673715
0.000663232
0.000652016
0.000640112
0.000627575
0.000614463
0.000600832
0.000586734
0.000572214
0.000557311
0.00054206
0.000526487
0.000510618
0.000494473
0.000478068
0.000461419
0.000444539
0.00042744
0.000410131
0.000392624
0.000374927
0.00035705
0.000338999
0.000320783
0.000302409
0.000283882
0.00026521
0.000246396
0.000227443
0.000208356
0.000189138
0.000169788
0.000150308
0.000130699
0.000110959
9.10892e-05
7.10866e-05
5.09488e-05
3.06742e-05
1.0261e-05
0.00390635
0.00369665
0.00344279
0.00319273
0.00295795
0.00273665
0.00253008
0.00234232
0.00217646
0.00203355
0.00191314
0.0018137
0.00173291
0.0016679
0.00161562
0.00157314
0.00153786
0.00150762
0.0014807
0.00145582
0.0014321
0.00140891
0.00138587
0.00136276
0.00133945
0.0013159
0.0012921
0.00126806
0.00124382
0.0012194
0.00119485
0.00117019
0.00114548
0.00112074
0.00109601
0.00107134
0.00104678
0.00102237
0.000998173
0.000974248
0.000950665
0.000927509
0.000904876
0.000882886
0.000861679
0.000841425
0.000822317
0.000804559
0.000788349
0.000773843
0.000761111
0.000750094
0.000740578
0.000732171
0.000724483
0.000716966
0.000709259
0.000701225
0.000692706
0.000683561
0.000673713
0.000663142
0.000651866
0.000639924
0.000627366
0.000614244
0.000600612
0.000586518
0.000572006
0.000557114
0.000541875
0.000526316
0.00051046
0.000494329
0.000477938
0.000461302
0.000444434
0.000427347
0.00041005
0.000392554
0.000374867
0.000356999
0.000338956
0.000320747
0.000302379
0.000283858
0.00026519
0.00024638
0.00022743
0.000208347
0.00018913
0.000169782
0.000150304
0.000130696
0.000110959
9.10887e-05
7.10868e-05
5.09501e-05
3.06777e-05
1.02702e-05
0.00376632
0.00359363
0.00338034
0.0031604
0.00294741
0.00274396
0.00255232
0.00237615
0.00221844
0.00208052
0.00196231
0.00186277
0.00178009
0.00171198
0.00165591
0.00160938
0.00157009
0.00153608
0.00150578
0.00147795
0.00145168
0.00142634
0.00140148
0.00137685
0.00135225
0.00132761
0.00130288
0.00127805
0.00125311
0.00122809
0.00120302
0.0011779
0.00115278
0.00112768
0.00110264
0.0010777
0.0010529
0.00102828
0.00100389
0.000979804
0.000956082
0.000932805
0.000910069
0.000887989
0.000866701
0.000846368
0.000827169
0.000809295
0.000792925
0.000778194
0.000765156
0.000753744
0.00074375
0.000734827
0.000726592
0.000718646
0.000710623
0.000702244
0.00069339
0.000683976
0.000673921
0.000663196
0.000651807
0.000639785
0.000627173
0.000614017
0.000600364
0.000586261
0.000571747
0.000556859
0.000541627
0.000526078
0.000510235
0.000494117
0.00047774
0.000461119
0.000444267
0.000427195
0.000409914
0.000392432
0.000374759
0.000356904
0.000338874
0.000320677
0.000302319
0.000283808
0.000265148
0.000246345
0.000227402
0.000208324
0.000189112
0.000169768
0.000150293
0.000130688
0.000110953
9.10849e-05
7.10848e-05
5.09503e-05
3.06812e-05
1.02817e-05
0.00364532
0.003499
0.00331785
0.00312474
0.00293253
0.00274628
0.00256916
0.00240458
0.00225534
0.00212295
0.00200767
0.00190886
0.00182518
0.00175481
0.0016957
0.00164573
0.00160292
0.00156552
0.00153207
0.00150143
0.0014727
0.00144523
0.00141856
0.00139237
0.00136645
0.00134069
0.00131499
0.00128932
0.00126367
0.00123803
0.00121241
0.00118682
0.00116129
0.00113583
0.00111048
0.00108526
0.00106022
0.0010354
0.00101085
0.000986624
0.000962787
0.000939417
0.000916606
0.000894465
0.000873122
0.000852727
0.000833444
0.000815444
0.000798883
0.000783873
0.000770451
0.00075855
0.000747977
0.000738428
0.000729556
0.000721002
0.000712467
0.000703679
0.00069445
0.000684699
0.000674374
0.000663438
0.00065189
0.000639749
0.000627051
0.000613834
0.000600141
0.000586011
0.000571481
0.000556586
0.000541353
0.000525807
0.000509971
0.000493863
0.000477498
0.000460891
0.000444053
0.000426997
0.000409731
0.000392265
0.000374609
0.000356769
0.000338754
0.000320572
0.000302228
0.00028373
0.000265082
0.000246289
0.000227356
0.000208286
0.000189081
0.000169744
0.000150274
0.000130673
0.000110942
9.10772e-05
7.108e-05
5.09484e-05
3.06832e-05
1.02915e-05
0.00353969
0.00341267
0.00325689
0.00308726
0.00291446
0.00274454
0.0025813
0.00242798
0.00228723
0.00216066
0.00204881
0.00195138
0.00186742
0.00179555
0.00173408
0.00168128
0.00163544
0.00159503
0.00155874
0.00152549
0.00149442
0.00146491
0.00143646
0.00140874
0.0013815
0.0013546
0.00132793
0.00130142
0.00127504
0.00124876
0.00122259
0.00119652
0.00117057
0.00114475
0.00111908
0.0010936
0.00106834
0.00104333
0.00101862
0.000994266
0.00097033
0.000946885
0.000924017
0.000901829
0.000880442
0.00085999
0.000840621
0.000822482
0.000805706
0.000790383
0.000776537
0.0007641
0.000752899
0.000742672
0.00073311
0.000723896
0.000714753
0.000705453
0.000695801
0.000685681
0.000675045
0.000663861
0.000652118
0.000639829
0.000627018
0.000613719
0.000599967
0.000585795
0.000571237
0.000556324
0.000541081
0.000525532
0.000509696
0.000493593
0.000477236
0.000460639
0.000443814
0.000426771
0.00040952
0.00039207
0.00037443
0.000356607
0.000338609
0.000320442
0.000302114
0.00028363
0.000264996
0.000246216
0.000227295
0.000208235
0.000189039
0.00016971
0.000150247
0.000130652
0.000110925
9.10652e-05
7.10718e-05
5.09439e-05
3.06825e-05
1.02959e-05
0.00344673
0.00333435
0.0031987
0.00304919
0.00289409
0.0027394
0.00258922
0.0024467
0.00231434
0.00219378
0.00208575
0.00199024
0.00190663
0.00183389
0.0017707
0.00171562
0.00166723
0.0016242
0.00158536
0.00154972
0.00151648
0.00148502
0.00145486
0.00142564
0.0013971
0.00136907
0.00134142
0.00131405
0.00128693
0.00126001
0.00123327
0.00120671
0.00118033
0.00115415
0.00112817
0.00110242
0.00107693
0.00105173
0.00102687
0.00100239
0.000978359
0.000954841
0.000931918
0.000909684
0.000888248
0.000867732
0.000848264
0.000829971
0.000812961
0.000797307
0.00078302
0.000770035
0.000758198
0.000747283
0.000737019
0.000727129
0.000717359
0.000707498
0.000697375
0.000686862
0.000675892
0.000664435
0.000652475
0.000640016
0.000627075
0.000613676
0.000599849
0.000585623
0.000571026
0.000556086
0.000540825
0.000525266
0.000509426
0.000493323
0.00047697
0.00046038
0.000443565
0.000426534
0.000409297
0.000391862
0.000374237
0.00035643
0.000338449
0.000320298
0.000301986
0.000283518
0.000264898
0.000246132
0.000227223
0.000208175
0.000188989
0.000169668
0.000150214
0.000130626
0.000110905
9.10499e-05
7.10609e-05
5.09371e-05
3.06792e-05
1.02939e-05
0.0033643
0.00326341
0.00314385
0.00301139
0.00287212
0.00273146
0.00259348
0.00246124
0.00233706
0.00222258
0.00211866
0.0020255
0.00194277
0.00186973
0.00180538
0.00174855
0.00169807
0.00165279
0.0016117
0.0015739
0.00153865
0.00150536
0.00147356
0.00144289
0.00141308
0.00138392
0.00135529
0.00132707
0.00129919
0.00127162
0.00124431
0.00121725
0.00119043
0.00116387
0.00113757
0.00111154
0.00108581
0.00106042
0.0010354
0.00101079
0.00098666
0.000963061
0.000940072
0.00091778
0.000896282
0.000875684
0.000856099
0.000837633
0.000820375
0.000804379
0.000789649
0.000776122
0.000763664
0.000752076
0.000741124
0.000730564
0.000720169
0.000709743
0.000699127
0.000688199
0.000676882
0.000665137
0.000652944
0.000640299
0.000627213
0.000613702
0.000599788
0.000585497
0.000570852
0.000555877
0.000540592
0.000525017
0.000509168
0.000493061
0.000476709
0.000460124
0.000443316
0.000426295
0.00040907
0.000391649
0.000374039
0.000356248
0.000338282
0.000320148
0.000301852
0.000283399
0.000264794
0.000246042
0.000227146
0.000208109
0.000188934
0.000169623
0.000150177
0.000130596
0.000110881
9.10322e-05
7.1048e-05
5.09284e-05
3.06736e-05
1.02875e-05
0.00329074
0.00319913
0.00309259
0.00297452
0.00284922
0.00272133
0.00259466
0.0024721
0.00235581
0.00224738
0.00214775
0.00205729
0.00197588
0.00190304
0.00183803
0.00177993
0.00172778
0.00168062
0.00163758
0.00159785
0.00156078
0.00152579
0.00149244
0.00146038
0.00142932
0.00139907
0.00136946
0.00134038
0.00131175
0.00128351
0.00125562
0.00122805
0.00120079
0.00117384
0.0011472
0.00112088
0.00109491
0.00106931
0.00104412
0.00101937
0.000995119
0.000971425
0.000948354
0.000925985
0.000904404
0.000883705
0.000863982
0.000845325
0.000827805
0.000811463
0.000796294
0.00078224
0.000769181
0.000756946
0.000745332
0.000734123
0.000723115
0.00071213
0.000701019
0.000689668
0.000677994
0.000665951
0.000653513
0.000640671
0.000627427
0.000613792
0.000599783
0.000585417
0.000570716
0.000555699
0.000540384
0.000524788
0.000508926
0.000492812
0.000476458
0.000459874
0.000443072
0.000426059
0.000408845
0.000391436
0.00037384
0.000356063
0.000338113
0.000319994
0.000301714
0.000283276
0.000264686
0.000245948
0.000227065
0.00020804
0.000188876
0.000169575
0.000150137
0.000130564
0.000110856
9.10127e-05
7.10335e-05
5.09182e-05
3.06665e-05
1.02793e-05
0.00322475
0.00314082
0.00304494
0.00293901
0.00282593
0.00270955
0.00259327
0.00247974
0.00237099
0.0022685
0.00217326
0.00208574
0.00200602
0.00193381
0.00186859
0.00180965
0.00175624
0.00170756
0.00166286
0.00162145
0.00158272
0.00154618
0.00151139
0.001478
0.00144575
0.00141443
0.00138386
0.00135394
0.00132455
0.00129564
0.00126716
0.00123907
0.00121135
0.001184
0.00115701
0.00113039
0.00110416
0.00107834
0.00105296
0.00102806
0.00100368
0.000979873
0.000956702
0.000934235
0.00091255
0.000891727
0.000871846
0.00085298
0.000835187
0.000818495
0.000802894
0.000788329
0.000774695
0.000761842
0.000749593
0.00073776
0.000726159
0.000714628
0.000703029
0.000691251
0.000679215
0.000666867
0.000654176
0.000641127
0.000627716
0.000613947
0.000599832
0.000585384
0.000570619
0.000555554
0.000540203
0.000524581
0.000508701
0.000492577
0.000476217
0.000459634
0.000442835
0.000425829
0.000408623
0.000391225
0.000373642
0.000355879
0.000337944
0.00031984
0.000301575
0.000283152
0.000264576
0.000245852
0.000226982
0.000207969
0.000188816
0.000169524
0.000150096
0.00013053
0.000110829
9.09918e-05
7.10178e-05
5.09068e-05
3.06583e-05
1.02712e-05
0.00316529
0.00308784
0.00300082
0.00290514
0.00280271
0.00269659
0.00258977
0.00248462
0.00238299
0.00228627
0.00219544
0.00211105
0.0020333
0.00196208
0.00189703
0.00183765
0.00178335
0.00173347
0.0016874
0.00164455
0.00160437
0.00156642
0.00153029
0.00149567
0.00146229
0.00142993
0.00139844
0.00136767
0.00133754
0.00130796
0.00127888
0.00125026
0.00122208
0.00119432
0.00116697
0.00114005
0.00111355
0.00108749
0.00106191
0.00103684
0.00101231
0.00098837
0.000965079
0.000942495
0.000920684
0.000899716
0.000879657
0.000860568
0.000842491
0.000825447
0.000809423
0.000794365
0.00078018
0.000766738
0.000753883
0.000741451
0.000729278
0.000717217
0.000705138
0.000692938
0.000680536
0.000667878
0.000654927
0.000641663
0.000628075
0.000614164
0.000599935
0.000585397
0.000570562
0.000555442
0.000540049
0.000524397
0.000508496
0.000492358
0.00047599
0.000459404
0.000442606
0.000425605
0.000408407
0.000391019
0.000373447
0.000355697
0.000337775
0.000319686
0.000301435
0.000283027
0.000264466
0.000245754
0.000226897
0.000207896
0.000188754
0.000169472
0.000150052
0.000130495
0.000110801
9.09696e-05
7.1001e-05
5.08945e-05
3.06494e-05
1.0264e-05
0.00311152
0.00303962
0.00296005
0.00287308
0.00277988
0.00268287
0.0025846
0.00248717
0.00239221
0.00230103
0.00221456
0.0021334
0.00205784
0.00198789
0.00192336
0.00186388
0.00180902
0.00175827
0.00171111
0.00166704
0.00162561
0.0015864
0.00154907
0.0015133
0.00147885
0.0014455
0.00141311
0.00138153
0.00135066
0.00132042
0.00129075
0.0012616
0.00123295
0.00120477
0.00117706
0.00114981
0.00112303
0.00109673
0.00107093
0.00104567
0.00102098
0.00099689
0.00097346
0.000950739
0.000928783
0.00090765
0.000887397
0.000868069
0.000849702
0.000832307
0.000815867
0.000800332
0.00078562
0.000771616
0.000758184
0.00074518
0.000732457
0.000719881
0.000707333
0.000694716
0.00068195
0.000668978
0.000655762
0.000642276
0.000628505
0.000614444
0.000600093
0.000585457
0.000570545
0.000555364
0.000539925
0.000524238
0.000508312
0.000492155
0.000475777
0.000459186
0.000442387
0.000425389
0.000408197
0.000390817
0.000373256
0.000355518
0.000337609
0.000319534
0.000301296
0.000282902
0.000264354
0.000245656
0.000226811
0.000207822
0.000188691
0.000169419
0.000150008
0.000130459
0.000110771
9.09463e-05
7.09831e-05
5.08813e-05
3.064e-05
1.02575e-05
0.00306277
0.00299567
0.00292243
0.00284289
0.00275769
0.00266873
0.00257815
0.00248776
0.00239901
0.00231309
0.00223088
0.00215299
0.00207977
0.00201133
0.00194758
0.00188832
0.00183321
0.00178186
0.00173386
0.00168881
0.00164631
0.00160601
0.00156759
0.00153078
0.00149534
0.00146107
0.00142782
0.00139545
0.00136386
0.00133297
0.00130271
0.00127304
0.00124392
0.00121532
0.00118723
0.00115965
0.00113257
0.00110602
0.00107999
0.00105453
0.00102966
0.00100541
0.00098182
0.000958943
0.000936823
0.000915509
0.000895045
0.00087547
0.000856806
0.000839061
0.000822214
0.00080622
0.000791003
0.000776463
0.000762482
0.00074893
0.000735679
0.000722606
0.000709602
0.000696574
0.000683446
0.000670161
0.000656676
0.000642963
0.000629002
0.000614783
0.000600304
0.000585564
0.000570568
0.000555321
0.000539831
0.000524104
0.000508149
0.000491972
0.00047558
0.00045898
0.000442178
0.000425181
0.000407993
0.000390621
0.000373069
0.000355342
0.000337445
0.000319382
0.000301158
0.000282777
0.000264243
0.000245557
0.000226725
0.000207747
0.000188626
0.000169364
0.000149962
0.000130421
0.000110741
9.09219e-05
7.09643e-05
5.08674e-05
3.06303e-05
1.02515e-05
0.00301849
0.00295558
0.00288776
0.00281458
0.00273632
0.00265445
0.00257074
0.00248675
0.00240374
0.00232278
0.00224467
0.00217003
0.00209924
0.00203248
0.00196976
0.00191096
0.00185585
0.00180417
0.00175558
0.00170976
0.00166639
0.00162515
0.00158578
0.00154802
0.00151167
0.00147654
0.00144248
0.00140937
0.00137709
0.00134556
0.00131473
0.00128453
0.00125494
0.00122592
0.00119745
0.00116953
0.00114215
0.00111533
0.00108907
0.00106339
0.00103832
0.00101389
0.000990134
0.000967085
0.000944785
0.000923274
0.000902587
0.000882754
0.000863791
0.000845697
0.000828453
0.000812015
0.000796316
0.000781266
0.000766761
0.000752688
0.00073893
0.000725378
0.000711931
0.000698501
0.000685016
0.000671417
0.000657662
0.000643717
0.000629561
0.000615181
0.000600567
0.000585717
0.000570632
0.000555313
0.000539767
0.000523996
0.000508008
0.000491806
0.000475398
0.000458788
0.000441981
0.000424982
0.000407797
0.000390431
0.000372886
0.000355169
0.000337283
0.000319233
0.000301021
0.000282653
0.000264131
0.000245458
0.000226637
0.000207671
0.000188561
0.000169308
0.000149915
0.000130382
0.000110709
9.08965e-05
7.09446e-05
5.08528e-05
3.06202e-05
1.02457e-05
0.0029782
0.00291899
0.00285584
0.00278815
0.00271591
0.00264026
0.00256267
0.00248446
0.00240672
0.00233038
0.0022562
0.00218475
0.00211642
0.00205146
0.00198993
0.0019318
0.00187694
0.00182515
0.00177619
0.0017298
0.00168573
0.00164371
0.00160352
0.00156493
0.00152776
0.00149184
0.00145702
0.0014232
0.00139026
0.00135812
0.00132673
0.00129602
0.00126596
0.00123652
0.00120767
0.00117941
0.00115172
0.00112462
0.00109812
0.00107222
0.00104694
0.00102232
0.00099837
0.000975134
0.000952641
0.00093092
0.000910001
0.000889904
0.000870638
0.000852201
0.000834571
0.000817705
0.000801544
0.000786009
0.000771006
0.000756436
0.000742194
0.000728182
0.000714306
0.000700484
0.000686648
0.000672739
0.000658713
0.000644535
0.000630181
0.000615633
0.00060088
0.000585915
0.000570735
0.000555341
0.000539733
0.000523915
0.00050789
0.000491661
0.000475233
0.00045861
0.000441796
0.000424794
0.000407611
0.000390248
0.00037271
0.000355001
0.000337126
0.000319086
0.000300887
0.00028253
0.000264021
0.00024536
0.00022655
0.000207595
0.000188495
0.000169252
0.000149867
0.000130342
0.000110676
9.08703e-05
7.09243e-05
5.08377e-05
3.06099e-05
1.024e-05
0.00294152
0.00288558
0.0028265
0.00276354
0.00269653
0.00262634
0.00255419
0.00248118
0.00240824
0.00233619
0.00226572
0.00219735
0.00213149
0.00206839
0.00200819
0.0019509
0.00189647
0.00184477
0.00179563
0.00174887
0.00170426
0.00166162
0.00162073
0.00158142
0.00154352
0.00150688
0.00147137
0.00143688
0.00140331
0.00137059
0.00133866
0.00130745
0.00127693
0.00124707
0.00121785
0.00118924
0.00116125
0.00113387
0.0011071
0.00108097
0.00105548
0.00103065
0.0010065
0.000983066
0.000960366
0.000938426
0.000917265
0.000896899
0.000877332
0.000858556
0.00084055
0.000823273
0.000806672
0.000790674
0.000775199
0.000760156
0.000745453
0.000730999
0.00071671
0.000702508
0.000688327
0.000674112
0.000659817
0.000645406
0.000630851
0.000616133
0.000601236
0.000586152
0.000570874
0.0005554
0.000539728
0.000523858
0.000507793
0.000491534
0.000475084
0.000458445
0.000441622
0.000424616
0.000407431
0.000390071
0.000372539
0.000354838
0.000336971
0.000318942
0.000300754
0.000282409
0.00026391
0.000245261
0.000226463
0.000207518
0.000188428
0.000169195
0.000149819
0.000130301
0.000110643
9.08433e-05
7.09031e-05
5.0822e-05
3.05992e-05
1.02341e-05
0.00290815
0.0028551
0.00279956
0.00274072
0.00267826
0.00261285
0.00254551
0.00247715
0.00240857
0.00234047
0.00227346
0.00220804
0.00214459
0.00208339
0.00202459
0.00196827
0.00191442
0.00186298
0.00181384
0.00176685
0.00172188
0.00167874
0.00163729
0.00159736
0.00155882
0.00152154
0.0014854
0.0014503
0.00141615
0.00138289
0.00135043
0.00131875
0.00128779
0.00125752
0.00122792
0.00119897
0.00117067
0.001143
0.00111598
0.0010896
0.00106388
0.00103884
0.00101449
0.000990844
0.00096793
0.000945762
0.000924356
0.000903719
0.000883852
0.000864746
0.000846375
0.000828705
0.000811683
0.000795248
0.000779325
0.000763834
0.000748692
0.000733817
0.000719131
0.000704562
0.000690047
0.000675532
0.000660972
0.000646328
0.000631573
0.000616682
0.00060164
0.000586433
0.000571053
0.000555495
0.000539754
0.00052383
0.000507722
0.00049143
0.000474955
0.000458299
0.000441463
0.000424451
0.000407264
0.000389905
0.000372377
0.000354682
0.000336823
0.000318803
0.000300625
0.000282291
0.000263803
0.000245164
0.000226377
0.000207442
0.000188362
0.000169138
0.00014977
0.00013026
0.000110609
9.08159e-05
7.08817e-05
5.0806e-05
3.05884e-05
1.02283e-05
0.0028778
0.00282732
0.00277488
0.00271962
0.00266112
0.00259991
0.00253681
0.00247261
0.00240796
0.00234348
0.0022797
0.00221708
0.00215597
0.00209665
0.00203931
0.00198404
0.0019309
0.00187985
0.00183084
0.00178379
0.00173857
0.00169507
0.00165317
0.00161273
0.00157364
0.0015358
0.00149909
0.00146343
0.00142874
0.00139495
0.00136201
0.00132986
0.00129847
0.0012678
0.00123784
0.00120855
0.00117994
0.00115199
0.0011247
0.00109808
0.00107213
0.00104686
0.00102229
0.000998431
0.000975294
0.000952894
0.000931238
0.000910331
0.000890168
0.000870738
0.000852017
0.000833969
0.000816548
0.000799698
0.000783351
0.000767436
0.000751878
0.000736602
0.000721537
0.000706615
0.000691778
0.000676971
0.000662149
0.000647277
0.000632322
0.000617259
0.00060207
0.000586739
0.000571255
0.000555611
0.0005398
0.000523819
0.000507666
0.000491339
0.000474837
0.000458162
0.000441314
0.000424293
0.000407103
0.000389744
0.000372219
0.000354529
0.000336677
0.000318666
0.000300497
0.000282173
0.000263696
0.000245068
0.00022629
0.000207366
0.000188295
0.000169079
0.00014972
0.000130218
0.000110574
9.07876e-05
7.08594e-05
5.07893e-05
3.0577e-05
1.02221e-05
0.00284509
0.00279733
0.0027481
0.00269652
0.00264211
0.00258524
0.00252657
0.00246674
0.00240628
0.00234569
0.00228543
0.00222591
0.00216745
0.00211032
0.00205472
0.00200078
0.00194858
0.00189814
0.00184944
0.00180246
0.00175712
0.00171334
0.00167103
0.00163011
0.00159048
0.00155206
0.00151476
0.00147851
0.00144323
0.00140888
0.0013754
0.00134274
0.00131087
0.00127975
0.00124936
0.00121968
0.00119071
0.00116242
0.00113482
0.0011079
0.00108168
0.00105615
0.00103131
0.00100719
0.000983789
0.00096111
0.000939158
0.000917933
0.000897427
0.000877625
0.000858504
0.00084003
0.000822161
0.000804845
0.000788024
0.000771635
0.000755611
0.000739885
0.000724391
0.000709069
0.000693862
0.00067872
0.000663598
0.000648458
0.000633268
0.000618001
0.000602636
0.000587156
0.000571546
0.000555797
0.000539899
0.000523848
0.000507637
0.000491265
0.000474729
0.000458028
0.000441161
0.000424129
0.000406932
0.000389571
0.000372047
0.000354362
0.000336517
0.000318514
0.000300355
0.000282041
0.000263575
0.000244958
0.000226192
0.000207279
0.000188218
0.000169013
0.000149663
0.00013017
0.000110534
9.07549e-05
7.08336e-05
5.077e-05
3.0564e-05
1.02152e-05
0.00281139
0.00276634
0.00272027
0.00267229
0.00262186
0.00256923
0.00251492
0.00245944
0.0024032
0.00234659
0.00229001
0.00223378
0.0021782
0.00212352
0.00206994
0.0020176
0.00196661
0.00191703
0.00186889
0.00182218
0.00177689
0.00173298
0.00169039
0.00164908
0.00160897
0.00157001
0.00153214
0.0014953
0.00145943
0.00142449
0.00139044
0.00135723
0.00132483
0.00129321
0.00126235
0.00123224
0.00120285
0.00117418
0.00114621
0.00111895
0.0010924
0.00106655
0.00104141
0.00101697
0.000993255
0.000970248
0.000947952
0.000926362
0.000905467
0.000885249
0.000865686
0.000846745
0.000828388
0.000810569
0.000793237
0.000776336
0.000759807
0.000743592
0.000727632
0.000711871
0.000696256
0.00068074
0.000665279
0.00064984
0.000634384
0.000618883
0.000603316
0.000587663
0.000571906
0.000556033
0.000540032
0.000523896
0.000507617
0.00049119
0.000474612
0.000457879
0.00044099
0.000423942
0.000406736
0.000389371
0.000371848
0.000354167
0.000336329
0.000318335
0.000300187
0.000281886
0.000263432
0.000244828
0.000226075
0.000207174
0.000188126
0.000168932
0.000149594
0.000130111
0.000110484
9.07139e-05
7.08009e-05
5.07452e-05
3.05468e-05
1.02057e-05
0.0027809
0.00273827
0.00269498
0.00265014
0.00260318
0.00255424
0.00250376
0.00245212
0.00239964
0.00234663
0.00229341
0.00224024
0.0021874
0.0021351
0.00208353
0.00203284
0.00198315
0.00193455
0.00188709
0.00184082
0.00179574
0.00175184
0.00170912
0.00166754
0.00162707
0.00158768
0.00154933
0.00151197
0.00147558
0.0014401
0.00140551
0.00137178
0.00133887
0.00130677
0.00127545
0.00124489
0.00121509
0.00118602
0.00115769
0.00113007
0.00110317
0.00107699
0.00105152
0.00102676
0.00100271
0.000979361
0.000956711
0.000934749
0.000913461
0.00089283
0.000872831
0.000853434
0.000834604
0.0008163
0.000798476
0.000781084
0.00076407
0.000747383
0.000730971
0.000714782
0.000698768
0.000682884
0.00066709
0.000651342
0.000635615
0.000619876
0.000604101
0.000588266
0.000572355
0.00055635
0.000540239
0.000524011
0.000507657
0.000491169
0.000474543
0.000457772
0.000440855
0.000423787
0.000406568
0.000389196
0.00037167
0.00035399
0.000336157
0.00031817
0.00030003
0.000281739
0.000263296
0.000244704
0.000225962
0.000207073
0.000188037
0.000168854
0.000149525
0.000130052
0.000110435
9.06734e-05
7.07686e-05
5.07207e-05
3.05298e-05
1.01962e-05
0.00275408
0.00271353
0.00267258
0.00263037
0.0025863
0.00254045
0.00249318
0.00244477
0.0023955
0.00234559
0.00229529
0.00224484
0.00219446
0.00214433
0.00209465
0.00204555
0.00199716
0.00194959
0.0019029
0.00185716
0.0018124
0.00176866
0.00172594
0.00168423
0.00164353
0.00160383
0.00156511
0.00152734
0.0014905
0.00145457
0.00141952
0.00138532
0.00135196
0.00131942
0.00128768
0.00125671
0.00122652
0.00119708
0.00116838
0.00114043
0.0011132
0.00108669
0.00106091
0.00103583
0.00101146
0.000987781
0.000964792
0.000942478
0.000920823
0.000899807
0.000879405
0.000859591
0.00084033
0.000821585
0.000803316
0.000785478
0.000768025
0.00075091
0.000734086
0.000717506
0.000701125
0.0006849
0.000668795
0.000652768
0.000636787
0.000620823
0.00060485
0.000588843
0.000572783
0.000556652
0.000540434
0.000524117
0.000507689
0.000491142
0.000474469
0.000457662
0.000440717
0.00042363
0.000406398
0.000389018
0.00037149
0.000353811
0.000335982
0.000318001
0.00029987
0.000281589
0.000263157
0.000244576
0.000225846
0.000206968
0.000187943
0.000168771
0.000149454
0.00012999
0.000110382
9.06296e-05
7.0733e-05
5.06929e-05
3.05099e-05
1.01848e-05
0.00273216
0.00269332
0.00265427
0.00261418
0.00257243
0.00252907
0.00248438
0.0024386
0.00239193
0.00234458
0.00229671
0.00224855
0.00220026
0.00215202
0.002104
0.00205634
0.00200915
0.00196256
0.00191664
0.00187146
0.0018271
0.00178359
0.00174095
0.00169922
0.0016584
0.00161849
0.0015795
0.00154141
0.00150422
0.00146791
0.00143247
0.00139788
0.00136413
0.00133119
0.00129907
0.00126773
0.00123718
0.00120739
0.00117836
0.00115008
0.00112253
0.00109572
0.00106962
0.00104424
0.00101956
0.000995566
0.000972256
0.00094961
0.000927611
0.000906238
0.000885468
0.000865273
0.000845623
0.000826482
0.000807813
0.000789577
0.00077173
0.00075423
0.000737035
0.000720102
0.000703387
0.000686853
0.000670457
0.000654168
0.000637951
0.000621777
0.000605616
0.000589446
0.000573243
0.00055699
0.000540667
0.000524262
0.000507762
0.000491155
0.000474433
0.000457588
0.000440614
0.000423505
0.000406258
0.000388869
0.000371335
0.000353656
0.000335828
0.000317853
0.000299728
0.000281455
0.000263032
0.000244461
0.000225741
0.000206873
0.000187858
0.000168696
0.000149387
0.000129933
0.000110333
9.05884e-05
7.0699e-05
5.06656e-05
3.04892e-05
1.01714e-05
0.00271558
0.00267798
0.00264032
0.00260174
0.00256165
0.00252007
0.00247723
0.00243335
0.00238858
0.00234307
0.002297
0.00225053
0.00220381
0.00215701
0.00211027
0.00206373
0.0020175
0.0019717
0.00192642
0.00188174
0.00183774
0.00179446
0.00175196
0.00171026
0.00166939
0.00162938
0.00159022
0.00155193
0.0015145
0.00147793
0.00144221
0.00140733
0.00137329
0.00134007
0.00130765
0.00127604
0.00124522
0.00121516
0.00118588
0.00115735