/*--------------------------------*- C++ -*----------------------------------*\
| =========                 |                                                 |
| \\      /  F ield         | OpenFOAM: The Open Source CFD Toolbox           |
|  \\    /   O peration     | Version:  2.3.0                                 |
|   \\  /    A nd           | Web:      www.OpenFOAM.org                      |
|    \\/     M anipulation  |                                                 |
\*---------------------------------------------------------------------------*/
FoamFile
{
    version     2.0;
    format      ascii;
    class       surfaceScalarField;
    location    "0.4";
    object      phi_0;
}
// * * * * * * * * * * * * * * * * * * * * * * * * * * * * * * * * * * * * * //

dimensions      [0 3 -1 0 0 0 0];

internalField   nonuniform List<scalar> 
3859
(
2.80026e-08
2.91585e-09
-3.09184e-08
2.51075e-08
2.89506e-09
2.2392e-08
2.71548e-09
1.9891e-08
2.50106e-09
1.76218e-08
2.26918e-09
1.55961e-08
2.02567e-09
1.38168e-08
1.77933e-09
1.22783e-08
1.53848e-09
1.09681e-08
1.31019e-09
9.86784e-09
1.10026e-09
8.95491e-09
9.12935e-10
8.20426e-09
7.50649e-10
7.59028e-09
6.13975e-10
7.08842e-09
5.01864e-10
6.67637e-09
4.12049e-10
6.33485e-09
3.4152e-10
6.04788e-09
2.86973e-10
5.8027e-09
2.45177e-10
5.58948e-09
2.13222e-10
5.40083e-09
1.88646e-10
5.23136e-09
1.69474e-10
5.07717e-09
1.54191e-10
4.93549e-09
1.4168e-10
4.80434e-09
1.31148e-10
4.68229e-09
1.22046e-10
4.56828e-09
1.14007e-10
4.4615e-09
1.06787e-10
4.36127e-09
1.00228e-10
4.26704e-09
9.42262e-11
4.17833e-09
8.87106e-11
4.0947e-09
8.36297e-11
4.01576e-09
7.89436e-11
3.94114e-09
7.46187e-11
3.87052e-09
7.06248e-11
3.80358e-09
6.6934e-11
3.74006e-09
6.35201e-11
3.6797e-09
6.03586e-11
3.62228e-09
5.74262e-11
3.56758e-09
5.47014e-11
3.51541e-09
5.21644e-11
3.46561e-09
4.97969e-11
3.41803e-09
4.75821e-11
3.37253e-09
4.55052e-11
3.32897e-09
4.35523e-11
3.28726e-09
4.17112e-11
3.24729e-09
3.99708e-11
3.20897e-09
3.8321e-11
3.17222e-09
3.67528e-11
3.13696e-09
3.52582e-11
3.10313e-09
3.38298e-11
3.07067e-09
3.24608e-11
3.03952e-09
3.11453e-11
3.00965e-09
2.98777e-11
2.98099e-09
2.86531e-11
2.95353e-09
2.74668e-11
2.92721e-09
2.63145e-11
2.90202e-09
2.51926e-11
2.87792e-09
2.40973e-11
2.8549e-09
2.30255e-11
2.83292e-09
2.19742e-11
2.81198e-09
2.09406e-11
2.79206e-09
1.99221e-11
2.77314e-09
1.89166e-11
2.75522e-09
1.79218e-11
2.73829e-09
1.69361e-11
2.72233e-09
1.59578e-11
2.70734e-09
1.49861e-11
2.69332e-09
1.40202e-11
2.68026e-09
1.30604e-11
2.66815e-09
1.2107e-11
2.65699e-09
1.11607e-11
2.64677e-09
1.02212e-11
2.63749e-09
9.28591e-12
2.62914e-09
8.34813e-12
2.62174e-09
7.39464e-12
2.61534e-09
6.4039e-12
2.60999e-09
5.34615e-12
2.60581e-09
4.18734e-12
2.60292e-09
2.88841e-12
2.60151e-09
1.41259e-12
2.60156e-09
-5.66355e-14
2.60276e-09
-1.19437e-12
2.60486e-09
-2.10418e-12
2.60766e-09
-2.80321e-12
2.61099e-09
-3.32153e-12
2.61468e-09
-3.69173e-12
2.61856e-09
-3.88358e-12
2.6225e-09
-3.94274e-12
2.62641e-09
-3.90313e-12
2.63018e-09
-3.76937e-12
2.63375e-09
-3.57248e-12
2.63708e-09
-3.33628e-12
2.64016e-09
-3.07497e-12
2.64296e-09
-2.80447e-12
2.6455e-09
-2.53662e-12
2.64778e-09
-2.27985e-12
2.64982e-09
-2.04419e-12
2.65169e-09
-1.86907e-12
2.65369e-09
-2.00064e-12
-3.84486e-12
3.59118e-08
3.19914e-09
-3.61951e-08
3.53036e-08
3.50326e-09
3.44514e-08
3.56761e-09
3.34334e-08
3.51907e-09
3.23065e-08
3.39607e-09
3.1118e-08
3.21419e-09
2.99065e-08
2.99083e-09
2.87019e-08
2.74314e-09
2.75262e-08
2.48583e-09
2.63954e-08
2.23111e-09
2.53197e-08
1.98864e-09
2.43051e-08
1.76528e-09
2.3354e-08
1.56502e-09
2.24665e-08
1.38936e-09
2.16408e-08
1.23779e-09
2.08738e-08
1.10844e-09
2.01621e-08
9.98681e-10
1.95017e-08
9.05616e-10
1.88885e-08
8.26414e-10
1.83186e-08
7.58524e-10
1.77883e-08
6.99775e-10
1.72941e-08
6.48398e-10
1.68328e-08
6.02992e-10
1.64015e-08
5.62473e-10
1.59975e-08
5.26014e-10
1.56185e-08
4.92987e-10
1.52624e-08
4.62909e-10
1.49272e-08
4.35408e-10
1.46113e-08
4.10187e-10
1.4313e-08
3.87003e-10
1.4031e-08
3.65652e-10
1.37639e-08
3.45959e-10
1.35108e-08
3.27768e-10
1.32705e-08
3.10941e-10
1.30421e-08
2.95353e-10
1.28247e-08
2.80889e-10
1.26176e-08
2.67444e-10
1.24201e-08
2.54926e-10
1.22316e-08
2.43246e-10
1.20514e-08
2.32327e-10
1.18791e-08
2.22097e-10
1.17142e-08
2.12492e-10
1.15562e-08
2.03452e-10
1.14049e-08
1.94925e-10
1.12597e-08
1.86863e-10
1.11205e-08
1.79221e-10
1.09868e-08
1.7196e-10
1.08585e-08
1.65045e-10
1.07354e-08
1.58441e-10
1.06171e-08
1.5212e-10
1.05035e-08
1.46052e-10
1.03944e-08
1.40215e-10
1.02897e-08
1.34583e-10
1.01892e-08
1.29136e-10
1.00928e-08
1.23855e-10
1.00004e-08
1.1872e-10
9.9119e-09
1.13716e-10
9.82717e-09
1.08827e-10
9.74616e-09
1.04038e-10
9.6688e-09
9.93362e-11
9.59503e-09
9.47096e-11
9.5248e-09
9.0147e-11
9.45808e-09
8.56381e-11
9.39483e-09
8.11738e-11
9.33502e-09
7.6746e-11
9.27863e-09
7.2348e-11
9.22564e-09
6.79742e-11
9.17604e-09
6.36209e-11
9.12982e-09
5.92851e-11
9.08696e-09
5.4965e-11
9.04746e-09
5.06572e-11
9.01133e-09
4.63553e-11
8.97857e-09
4.20456e-11
8.94921e-09
3.77036e-11
8.92332e-09
3.32907e-11
8.90097e-09
2.87539e-11
8.88228e-09
2.40297e-11
8.86741e-09
1.9056e-11
8.85652e-09
1.37847e-11
8.84976e-09
8.17477e-12
8.84734e-09
2.36423e-12
8.8488e-09
-2.66077e-12
8.85315e-09
-6.45479e-12
8.8596e-09
-9.24652e-12
8.86754e-09
-1.12707e-11
8.87653e-09
-1.26802e-11
8.88611e-09
-1.34617e-11
8.89593e-09
-1.3764e-11
8.90573e-09
-1.36998e-11
8.91527e-09
-1.33146e-11
8.92441e-09
-1.27083e-11
8.93303e-09
-1.19591e-11
8.94108e-09
-1.11209e-11
8.94852e-09
-1.02475e-11
8.95537e-09
-9.38055e-12
8.96164e-09
-8.55446e-12
8.96741e-09
-7.81528e-12
8.97284e-09
-7.29454e-12
8.97836e-09
-7.52744e-12
-9.89954e-12
4.05742e-08
3.02691e-09
-4.04019e-08
4.06638e-08
3.41363e-09
4.0626e-08
3.60534e-09
4.04628e-08
3.68236e-09
4.01817e-08
3.67712e-09
3.97951e-08
3.60076e-09
3.93195e-08
3.46648e-09
3.87725e-08
3.29015e-09
3.81713e-08
3.08706e-09
3.75315e-08
2.87085e-09
3.68671e-08
2.6531e-09
3.61894e-08
2.4429e-09
3.55079e-08
2.24655e-09
3.48296e-08
2.06768e-09
3.41597e-08
1.90769e-09
3.35019e-08
1.76627e-09
3.28586e-08
1.642e-09
3.22313e-08
1.53289e-09
3.16209e-08
1.43675e-09
3.1028e-08
1.35147e-09
3.04526e-08
1.27517e-09
2.98948e-08
1.20626e-09
2.93543e-08
1.14345e-09
2.8831e-08
1.08575e-09
2.83247e-08
1.03238e-09
2.78349e-08
9.82739e-10
2.73614e-08
9.36383e-10
2.69039e-08
8.92963e-10
2.64619e-08
8.52204e-10
2.6035e-08
8.13883e-10
2.56228e-08
7.77813e-10
2.52249e-08
7.43831e-10
2.48409e-08
7.11792e-10
2.44703e-08
6.81562e-10
2.41126e-08
6.5302e-10
2.37675e-08
6.26049e-10
2.34344e-08
6.00541e-10
2.31129e-08
5.76394e-10
2.28026e-08
5.53513e-10
2.25032e-08
5.31806e-10
2.22141e-08
5.11189e-10
2.1935e-08
4.9158e-10
2.16655e-08
4.72905e-10
2.14054e-08
4.55093e-10
2.11541e-08
4.38076e-10
2.09116e-08
4.21793e-10
2.06773e-08
4.06184e-10
2.04512e-08
3.91195e-10
2.02329e-08
3.76772e-10
2.00221e-08
3.62868e-10
1.98187e-08
3.49435e-10
1.96225e-08
3.36431e-10
1.94333e-08
3.23814e-10
1.92509e-08
3.11545e-10
1.90751e-08
2.99589e-10
1.8906e-08
2.8791e-10
1.87432e-08
2.76476e-10
1.85868e-08
2.65258e-10
1.84366e-08
2.54226e-10
1.82926e-08
2.43354e-10
1.81546e-08
2.32617e-10
1.80228e-08
2.21992e-10
1.7897e-08
2.11458e-10
1.77772e-08
2.00995e-10
1.76633e-08
1.90587e-10
1.75555e-08
1.80218e-10
1.74536e-08
1.69876e-10
1.73576e-08
1.59552e-10
1.72677e-08
1.49236e-10
1.71837e-08
1.38921e-10
1.71058e-08
1.28597e-10
1.70339e-08
1.18247e-10
1.69681e-08
1.07847e-10
1.69084e-08
9.73577e-11
1.6855e-08
8.67264e-11
1.68079e-08
7.58915e-11
1.67671e-08
6.47976e-11
1.67327e-08
5.3426e-11
1.67047e-08
4.1842e-11
1.66826e-08
3.02345e-11
1.66662e-08
1.8791e-11
1.6656e-08
7.46512e-12
1.66525e-08
-2.87336e-12
1.6654e-08
-1.07936e-11
1.66593e-08
-1.65797e-11
1.66674e-08
-2.07787e-11
1.66774e-08
-2.34921e-11
1.66888e-08
-2.50693e-11
1.67008e-08
-2.57584e-11
1.67132e-08
-2.56862e-11
1.67255e-08
-2.50657e-11
1.67376e-08
-2.40619e-11
1.67493e-08
-2.27962e-11
1.67605e-08
-2.13859e-11
1.6771e-08
-1.99242e-11
1.67809e-08
-1.84902e-11
1.67903e-08
-1.71766e-11
1.67992e-08
-1.61668e-11
1.68076e-08
-1.59652e-11
-1.71562e-11
4.50686e-08
2.81449e-09
-4.48562e-08
4.52979e-08
3.18437e-09
4.54923e-08
3.4109e-09
4.5636e-08
3.53867e-09
4.57198e-08
3.59335e-09
4.57368e-08
3.5837e-09
4.56851e-08
3.51817e-09
4.55669e-08
3.40835e-09
4.53873e-08
3.26666e-09
4.51533e-08
3.10486e-09
4.48729e-08
2.93347e-09
4.45545e-08
2.76132e-09
4.4206e-08
2.59511e-09
4.38343e-08
2.4393e-09
4.34457e-08
2.29638e-09
4.30448e-08
2.16715e-09
4.26355e-08
2.05126e-09
4.22208e-08
1.94762e-09
4.18028e-08
1.85476e-09
4.13831e-08
1.77112e-09
4.09631e-08
1.69522e-09
4.05436e-08
1.62573e-09
4.01255e-08
1.56157e-09
3.97094e-08
1.50185e-09
3.92959e-08
1.44587e-09
3.88855e-08
1.39311e-09
3.84787e-08
1.34317e-09
3.8076e-08
1.29573e-09
3.76776e-08
1.25056e-09
3.7284e-08
1.20748e-09
3.68955e-08
1.16633e-09
3.65123e-08
1.12698e-09
3.61348e-08
1.08934e-09
3.57631e-08
1.05329e-09
3.53974e-08
1.01874e-09
3.50378e-08
9.85605e-10
3.46845e-08
9.53805e-10
3.43377e-08
9.2326e-10
3.39973e-08
8.93894e-10
3.36635e-08
8.65634e-10
3.33362e-08
8.38411e-10
3.30157e-08
8.12158e-10
3.27018e-08
7.8681e-10
3.23945e-08
7.62306e-10
3.2094e-08
7.38587e-10
3.18002e-08
7.15595e-10
3.15131e-08
6.93276e-10
3.12328e-08
6.71576e-10
3.09591e-08
6.50445e-10
3.06921e-08
6.29834e-10
3.04319e-08
6.09694e-10
3.01783e-08
5.8998e-10
2.99315e-08
5.70648e-10
2.96914e-08
5.51654e-10
2.9458e-08
5.32958e-10
2.92314e-08
5.1452e-10
2.90116e-08
4.96301e-10
2.87986e-08
4.78264e-10
2.85924e-08
4.60376e-10
2.83932e-08
4.42602e-10
2.82009e-08
4.24911e-10
2.80156e-08
4.07274e-10
2.78374e-08
3.89662e-10
2.76663e-08
3.72051e-10
2.75025e-08
3.54418e-10
2.7346e-08
3.36743e-10
2.71968e-08
3.1901e-10
2.70552e-08
3.01204e-10
2.69211e-08
2.83313e-10
2.67947e-08
2.65325e-10
2.66761e-08
2.47224e-10
2.65653e-08
2.2899e-10
2.64626e-08
2.10594e-10
2.63679e-08
1.91996e-10
2.62815e-08
1.73151e-10
2.62034e-08
1.5402e-10
2.61336e-08
1.34595e-10
2.60721e-08
1.14941e-10
2.60187e-08
9.52387e-11
2.59731e-08
7.58253e-11
2.59347e-08
5.71826e-11
2.59023e-08
3.98552e-11
2.58755e-08
2.39505e-11
2.58557e-08
9.00601e-12
2.58435e-08
-4.41531e-12
2.58377e-08
-1.49198e-11
2.58366e-08
-2.24395e-11
2.58393e-08
-2.77689e-11
2.58449e-08
-3.13347e-11
2.58526e-08
-3.33738e-11
2.58618e-08
-3.42618e-11
2.5872e-08
-3.42802e-11
2.58828e-08
-3.36469e-11
2.5894e-08
-3.25722e-11
2.59053e-08
-3.12244e-11
2.59166e-08
-2.97453e-11
2.59277e-08
-2.82743e-11
2.59385e-08
-2.69845e-11
2.59486e-08
-2.60992e-11
-2.51075e-11
4.99422e-08
2.63054e-09
-4.97582e-08
5.017e-08
2.9565e-09
5.03999e-08
3.18103e-09
5.06151e-08
3.32344e-09
5.08064e-08
3.40215e-09
5.09646e-08
3.4255e-09
5.10828e-08
3.39991e-09
5.11573e-08
3.33386e-09
5.11869e-08
3.23701e-09
5.1173e-08
3.11884e-09
5.11184e-08
2.98806e-09
5.10274e-08
2.85226e-09
5.0905e-08
2.71754e-09
5.0756e-08
2.58829e-09
5.05851e-08
2.46732e-09
5.03962e-08
2.35602e-09
5.01927e-08
2.25473e-09
4.99774e-08
2.163e-09
4.97521e-08
2.07999e-09
4.95186e-08
2.00461e-09
4.92781e-08
1.93576e-09
4.90314e-08
1.87239e-09
4.87794e-08
1.8136e-09
4.85226e-08
1.75864e-09
4.82616e-08
1.70688e-09
4.79969e-08
1.65786e-09
4.77288e-08
1.61121e-09
4.74579e-08
1.56663e-09
4.71846e-08
1.5239e-09
4.69092e-08
1.48287e-09
4.66321e-08
1.44339e-09
4.63537e-08
1.40535e-09
4.60744e-08
1.36866e-09
4.57945e-08
1.33322e-09
4.55143e-08
1.29897e-09
4.5234e-08
1.26583e-09
4.49541e-08
1.23373e-09
4.46748e-08
1.20261e-09
4.43962e-08
1.17241e-09
4.41188e-08
1.14306e-09
4.38427e-08
1.11451e-09
4.35682e-08
1.0867e-09
4.32954e-08
1.05957e-09
4.30247e-08
1.03307e-09
4.27561e-08
1.00715e-09
4.24899e-08
9.81753e-10
4.22264e-08
9.5683e-10
4.19656e-08
9.32332e-10
4.17079e-08
9.0821e-10
4.14533e-08
8.84417e-10
4.12021e-08
8.60908e-10
4.09544e-08
8.37635e-10
4.07105e-08
8.14555e-10
4.04705e-08
7.91625e-10
4.02347e-08
7.688e-10
4.00032e-08
7.4604e-10
3.97762e-08
7.23305e-10
3.95539e-08
7.00554e-10
3.93365e-08
6.7775e-10
3.91242e-08
6.54857e-10
3.89173e-08
6.3184e-10
3.87159e-08
6.08667e-10
3.85203e-08
5.85306e-10
3.83306e-08
5.61731e-10
3.81471e-08
5.37917e-10
3.797e-08
5.13842e-10
3.77995e-08
4.89488e-10
3.76359e-08
4.6484e-10
3.74793e-08
4.39883e-10
3.733e-08
4.14607e-10
3.71883e-08
3.88995e-10
3.70542e-08
3.6303e-10
3.69281e-08
3.36688e-10
3.68102e-08
3.09944e-10
3.67005e-08
2.82779e-10
3.65994e-08
2.55199e-10
3.65067e-08
2.27265e-10
3.64225e-08
1.99132e-10
3.63467e-08
1.71088e-10
3.62789e-08
1.43578e-10
3.62189e-08
1.17173e-10
3.61663e-08
9.2464e-11
3.61204e-08
6.98391e-11
3.60798e-08
4.95854e-11
3.60437e-08
3.17343e-11
3.60129e-08
1.58995e-11
3.59887e-08
1.77593e-12
3.59709e-08
-1.00566e-11
3.59587e-08
-1.90435e-11
3.59509e-08
-2.55847e-11
3.59468e-08
-3.02323e-11
3.59459e-08
-3.33494e-11
3.59475e-08
-3.52355e-11
3.59511e-08
-3.61941e-11
3.59564e-08
-3.64687e-11
3.59629e-08
-3.62675e-11
3.59704e-08
-3.57707e-11
3.59785e-08
-3.51149e-11
3.59866e-08
-3.42175e-11
-3.16366e-11
5.53192e-08
2.47683e-09
-5.51655e-08
5.55209e-08
2.75487e-09
5.57385e-08
2.96339e-09
5.59554e-08
3.10658e-09
5.61624e-08
3.19511e-09
5.63519e-08
3.23599e-09
5.65173e-08
3.23453e-09
5.6654e-08
3.19716e-09
5.67596e-08
3.13138e-09
5.68336e-08
3.04484e-09
5.6877e-08
2.94469e-09
5.68919e-08
2.83731e-09
5.68815e-08
2.72799e-09
5.6849e-08
2.62079e-09
5.67978e-08
2.51851e-09
5.6731e-08
2.42282e-09
5.66512e-08
2.33447e-09
5.65608e-08
2.2535e-09
5.64612e-08
2.17951e-09
5.6354e-08
2.11186e-09
5.624e-08
2.04976e-09
5.61199e-08
1.99245e-09
5.59943e-08
1.93919e-09
5.58636e-08
1.88938e-09
5.5728e-08
1.84248e-09
5.55878e-08
1.79806e-09
5.54432e-08
1.75579e-09
5.52944e-08
1.71539e-09
5.51417e-08
1.67665e-09
5.49852e-08
1.6394e-09
5.4825e-08
1.60351e-09
5.46615e-08
1.56886e-09
5.44948e-08
1.53536e-09
5.43251e-08
1.50292e-09
5.41526e-08
1.47147e-09
5.39775e-08
1.44094e-09
5.38e-08
1.41125e-09
5.36202e-08
1.38236e-09
5.34385e-08
1.35418e-09
5.32549e-08
1.32668e-09
5.30696e-08
1.29978e-09
5.28829e-08
1.27343e-09
5.26948e-08
1.24758e-09
5.25058e-08
1.22216e-09
5.23158e-08
1.19713e-09
5.21251e-08
1.17243e-09
5.19339e-08
1.14801e-09
5.17424e-08
1.12381e-09
5.15509e-08
1.09979e-09
5.13594e-08
1.0759e-09
5.11682e-08
1.05207e-09
5.09776e-08
1.02828e-09
5.07877e-08
1.00445e-09
5.05988e-08
9.80549e-10
5.0411e-08
9.56526e-10
5.02247e-08
9.32333e-10
5.00401e-08
9.07923e-10
4.98574e-08
8.83253e-10
4.96769e-08
8.58278e-10
4.94988e-08
8.32956e-10
4.93234e-08
8.07247e-10
4.91509e-08
7.81113e-10
4.89817e-08
7.54518e-10
4.8816e-08
7.27431e-10
4.86541e-08
6.99824e-10
4.84963e-08
6.7167e-10
4.83428e-08
6.42949e-10
4.8194e-08
6.13643e-10
4.80502e-08
5.83738e-10
4.79116e-08
5.53222e-10
4.77785e-08
5.22083e-10
4.76512e-08
4.90307e-10
4.753e-08
4.57886e-10
4.74151e-08
4.24816e-10
4.73068e-08
3.91113e-10
4.72052e-08
3.56832e-10
4.71103e-08
3.22103e-10
4.70223e-08
2.87156e-10
4.6941e-08
2.52359e-10
4.68664e-08
2.18215e-10
4.67982e-08
1.85327e-10
4.67364e-08
1.543e-10
4.66806e-08
1.25604e-10
4.66306e-08
9.95829e-11
4.6586e-08
7.63875e-11
4.65459e-08
5.60241e-11
4.65092e-08
3.84557e-11
4.64757e-08
2.33727e-11
4.64464e-08
1.0298e-11
4.64218e-08
-9.54615e-13
4.64017e-08
-1.01891e-11
4.63858e-08
-1.73803e-11
4.63734e-08
-2.28791e-11
4.63643e-08
-2.70372e-11
4.63579e-08
-3.01211e-11
4.6354e-08
-3.23686e-11
4.63522e-08
-3.39745e-11
4.63521e-08
-3.50464e-11
4.63533e-08
-3.5389e-11
-3.36155e-11
6.12614e-08
2.3462e-09
-6.11308e-08
6.14361e-08
2.58018e-09
6.16322e-08
2.76731e-09
6.1834e-08
2.90482e-09
6.2032e-08
2.99707e-09
6.22192e-08
3.04879e-09
6.23896e-08
3.06409e-09
6.2539e-08
3.04782e-09
6.26647e-08
3.00569e-09
6.27658e-08
2.94375e-09
6.28426e-08
2.86783e-09
6.28967e-08
2.78324e-09
6.29302e-08
2.69452e-09
6.29457e-08
2.6053e-09
6.29459e-08
2.51828e-09
6.29335e-08
2.43525e-09
6.29107e-08
2.35723e-09
6.28795e-08
2.28464e-09
6.28416e-08
2.21745e-09
6.27981e-08
2.15538e-09
6.27499e-08
2.09795e-09
6.26977e-08
2.04466e-09
6.26419e-08
1.99498e-09
6.25828e-08
1.94843e-09
6.25207e-08
1.9046e-09
6.24557e-08
1.86311e-09
6.23878e-08
1.82368e-09
6.23171e-08
1.78605e-09
6.22438e-08
1.75003e-09
6.21677e-08
1.71546e-09
6.2089e-08
1.6822e-09
6.20077e-08
1.65014e-09
6.19239e-08
1.61918e-09
6.18376e-08
1.58924e-09
6.17488e-08
1.56023e-09
6.16577e-08
1.53209e-09
6.15642e-08
1.50474e-09
6.14684e-08
1.47812e-09
6.13704e-08
1.45216e-09
6.12703e-08
1.42679e-09
6.11681e-08
1.40197e-09
6.1064e-08
1.37761e-09
6.09579e-08
1.35368e-09
6.08499e-08
1.33009e-09
6.07403e-08
1.3068e-09
6.06289e-08
1.28374e-09
6.05161e-08
1.26086e-09
6.04018e-08
1.2381e-09
6.02862e-08
1.2154e-09
6.01694e-08
1.19269e-09
6.00515e-08
1.16993e-09
5.99328e-08
1.14706e-09
5.98132e-08
1.12401e-09
5.9693e-08
1.10074e-09
5.95723e-08
1.07718e-09
5.94514e-08
1.05328e-09
5.93303e-08
1.02898e-09
5.92094e-08
1.00424e-09
5.90886e-08
9.78997e-10
5.89684e-08
9.53202e-10
5.88488e-08
9.26808e-10
5.87302e-08
8.99768e-10
5.86126e-08
8.7204e-10
5.84965e-08
8.43585e-10
5.8382e-08
8.14368e-10
5.82693e-08
7.84358e-10
5.81587e-08
7.53528e-10
5.80505e-08
7.21857e-10
5.79449e-08
6.89328e-10
5.78422e-08
6.55928e-10
5.77426e-08
6.21648e-10
5.76464e-08
5.86483e-10
5.75539e-08
5.50439e-10
5.74652e-08
5.13534e-10
5.73805e-08
4.75819e-10
5.72999e-08
4.37394e-10
5.72236e-08
3.98436e-10
5.71515e-08
3.59227e-10
5.70837e-08
3.20172e-10
5.70201e-08
2.81793e-10
5.69607e-08
2.44686e-10
5.69056e-08
2.09441e-10
5.68547e-08
1.76548e-10
5.68079e-08
1.4637e-10
5.67651e-08
1.19118e-10
5.67263e-08
9.48657e-11
5.66911e-08
7.36048e-11
5.66594e-08
5.51682e-11
5.66303e-08
3.93468e-11
5.66035e-08
2.58975e-11
5.65788e-08
1.4428e-11
5.65569e-08
4.56161e-12
5.65378e-08
-3.81554e-12
5.65215e-08
-1.07119e-11
5.65077e-08
-1.63259e-11
5.64962e-08
-2.09017e-11
5.64869e-08
-2.46267e-11
5.64795e-08
-2.76066e-11
5.64738e-08
-2.97546e-11
-3.05998e-11
6.78261e-08
2.23317e-09
-6.77131e-08
6.79768e-08
2.42949e-09
6.815e-08
2.59414e-09
6.83325e-08
2.7223e-09
6.85151e-08
2.81443e-09
6.8691e-08
2.87289e-09
6.88546e-08
2.90052e-09
6.90016e-08
2.90079e-09
6.91294e-08
2.8779e-09
6.92367e-08
2.83646e-09
6.93235e-08
2.78109e-09
6.93906e-08
2.7161e-09
6.94398e-08
2.64532e-09
6.94732e-08
2.57193e-09
6.9493e-08
2.49843e-09
6.95017e-08
2.42662e-09
6.95012e-08
2.35768e-09
6.94935e-08
2.29231e-09
6.94802e-08
2.23078e-09
6.94625e-08
2.1731e-09
6.94413e-08
2.1191e-09
6.94175e-08
2.0685e-09
6.93915e-08
2.02098e-09
6.93637e-08
1.97621e-09
6.93344e-08
1.9339e-09
6.93038e-08
1.89376e-09
6.92719e-08
1.85557e-09
6.92388e-08
1.81912e-09
6.92046e-08
1.78424e-09
6.91693e-08
1.75079e-09
6.91328e-08
1.71864e-09
6.90953e-08
1.6877e-09
6.90566e-08
1.65786e-09
6.90168e-08
1.62905e-09
6.89758e-08
1.60119e-09
6.89337e-08
1.5742e-09
6.88904e-08
1.54802e-09
6.8846e-08
1.52257e-09
6.88003e-08
1.4978e-09
6.87535e-08
1.47363e-09
6.87055e-08
1.45e-09
6.86562e-08
1.42686e-09
6.86058e-08
1.40412e-09
6.85541e-08
1.38173e-09
6.85013e-08
1.35963e-09
6.84473e-08
1.33775e-09
6.83921e-08
1.31603e-09
6.83359e-08
1.29439e-09
6.82785e-08
1.27279e-09
6.822e-08
1.25116e-09
6.81605e-08
1.22942e-09
6.81e-08
1.20752e-09
6.80387e-08
1.1854e-09
6.79764e-08
1.16298e-09
6.79134e-08
1.1402e-09
6.78497e-08
1.11701e-09
6.77853e-08
1.09334e-09
6.77204e-08
1.06912e-09
6.76551e-08
1.0443e-09
6.75895e-08
1.01882e-09
6.75237e-08
9.92623e-10
6.74578e-08
9.65657e-10
6.7392e-08
9.3787e-10
6.73264e-08
9.09217e-10
6.72611e-08
8.79656e-10
6.71963e-08
8.4915e-10
6.71321e-08
8.17668e-10
6.70688e-08
7.85184e-10
6.70065e-08
7.51678e-10
6.69452e-08
7.17138e-10
6.68853e-08
6.81557e-10
6.68269e-08
6.4494e-10
6.677e-08
6.07304e-10
6.67149e-08
5.6869e-10
6.66615e-08
5.29176e-10
6.661e-08
4.8889e-10
6.65604e-08
4.48041e-10
6.65127e-08
4.06931e-10
6.64669e-08
3.65966e-10
6.6423e-08
3.25652e-10
6.63812e-08
2.86548e-10
6.63414e-08
2.49207e-10
6.63039e-08
2.14106e-10
6.62686e-08
1.81608e-10
6.62358e-08
1.5195e-10
6.62054e-08
1.25245e-10
6.61775e-08
1.0151e-10
6.6152e-08
8.0646e-11
6.61289e-08
6.24901e-11
6.61079e-08
4.6844e-11
6.60889e-08
3.344e-11
6.60715e-08
2.20116e-11
6.60554e-08
1.22577e-11
6.60408e-08
3.87067e-12
6.60278e-08
-3.30925e-12
6.60163e-08
-9.38452e-12
6.60062e-08
-1.45146e-11
6.59974e-08
-1.88303e-11
6.59901e-08
-2.24095e-11
-2.54891e-11
6.79891e-08
2.14274e-09
-6.78986e-08
6.8108e-08
2.3105e-09
6.82464e-08
2.45578e-09
6.83948e-08
2.57387e-09
6.85458e-08
2.66345e-09
6.86934e-08
2.72528e-09
6.88329e-08
2.76106e-09
6.89605e-08
2.7732e-09
6.90736e-08
2.76474e-09
6.91709e-08
2.73916e-09
6.9252e-08
2.70005e-09
6.93172e-08
2.6509e-09
6.93676e-08
2.59489e-09
6.94047e-08
2.53478e-09
6.94304e-08
2.47281e-09
6.94462e-08
2.41073e-09
6.94541e-08
2.34979e-09
6.94556e-08
2.29083e-09
6.94521e-08
2.23432e-09
6.94447e-08
2.18051e-09
6.94343e-08
2.12944e-09
6.94218e-08
2.08102e-09
6.94077e-08
2.03511e-09
6.93924e-08
1.99152e-09
6.93762e-08
1.95007e-09
6.93594e-08
1.91057e-09
6.93421e-08
1.87284e-09
6.93245e-08
1.83674e-09
6.93066e-08
1.80214e-09
6.92885e-08
1.76891e-09
6.92701e-08
1.73696e-09
6.92516e-08
1.70619e-09
6.9233e-08
1.67653e-09
6.92141e-08
1.64789e-09
6.91951e-08
1.6202e-09
6.91759e-08
1.5934e-09
6.91565e-08
1.56743e-09
6.91369e-08
1.5422e-09
6.9117e-08
1.51767e-09
6.90969e-08
1.49377e-09
6.90764e-08
1.47043e-09
6.90557e-08
1.44758e-09
6.90347e-08
1.42517e-09
6.90133e-08
1.40313e-09
6.89915e-08
1.3814e-09
6.89693e-08
1.3599e-09
6.89468e-08
1.33858e-09
6.89238e-08
1.31736e-09
6.89004e-08
1.29619e-09
6.88766e-08
1.27498e-09
6.88523e-08
1.25368e-09
6.88276e-08
1.23222e-09
6.88025e-08
1.21053e-09
6.87769e-08
1.18854e-09
6.8751e-08
1.16618e-09
6.87246e-08
1.14339e-09
6.86978e-08
1.1201e-09
6.86707e-08
1.09624e-09
6.86432e-08
1.07175e-09
6.86155e-08
1.04657e-09
6.85875e-08
1.02064e-09
6.85592e-08
9.93895e-10
6.85308e-08
9.66284e-10
6.85023e-08
9.37756e-10
6.84737e-08
9.08268e-10
6.8445e-08
8.77777e-10
6.84165e-08
8.4625e-10
6.8388e-08
8.1366e-10
6.83597e-08
7.79986e-10
6.83316e-08
7.45217e-10
6.83038e-08
7.09351e-10
6.82763e-08
6.72401e-10
6.82492e-08
6.34395e-10
6.82225e-08
5.95389e-10
6.81962e-08
5.55479e-10
6.81703e-08
5.14811e-10
6.81448e-08
4.73603e-10
6.81195e-08
4.32158e-10
6.80946e-08
3.90864e-10
6.80701e-08
3.5019e-10
6.8046e-08
3.10646e-10
6.80225e-08
2.72739e-10
6.79997e-08
2.36915e-10
6.79777e-08
2.03527e-10
6.79569e-08
1.72819e-10
6.79372e-08
1.44925e-10
6.79188e-08
1.19885e-10
6.79018e-08
9.76436e-11
6.78862e-08
7.80753e-11
6.78721e-08
6.1014e-11
6.78593e-08
4.62419e-11
6.78477e-08
3.3527e-11
6.78374e-08
2.26263e-11
6.7828e-08
1.3285e-11
6.78194e-08
5.25289e-12
6.78117e-08
-1.66335e-12
6.78048e-08
-7.5954e-12
6.77986e-08
-1.26766e-11
6.77933e-08
-1.70678e-11
-2.11332e-11
7.5228e-08
2.0621e-09
-7.51474e-08
7.53323e-08
2.20624e-09
7.54539e-08
2.33412e-09
7.5586e-08
2.4418e-09
7.57221e-08
2.52733e-09
7.58569e-08
2.59045e-09
7.5986e-08
2.63195e-09
7.61059e-08
2.65332e-09
7.6214e-08
2.65666e-09
7.63087e-08
2.64447e-09
7.63893e-08
2.61947e-09
7.64558e-08
2.58437e-09
7.65089e-08
2.54176e-09
7.65498e-08
2.49395e-09
7.65797e-08
2.4429e-09
7.66002e-08
2.39024e-09
7.66128e-08
2.33721e-09
7.66189e-08
2.28472e-09
7.66198e-08
2.2334e-09
7.66166e-08
2.18365e-09
7.66104e-08
2.13569e-09
7.66018e-08
2.0896e-09
7.65915e-08
2.0454e-09
7.658e-08
2.00303e-09
7.65677e-08
1.96241e-09
7.65548e-08
1.92344e-09
7.65416e-08
1.88603e-09
7.65283e-08
1.85008e-09
7.65149e-08
1.81551e-09
7.65016e-08
1.78222e-09
7.64884e-08
1.75013e-09
7.64755e-08
1.71919e-09
7.64627e-08
1.68931e-09
7.64501e-08
1.66045e-09
7.64378e-08
1.63252e-09
7.64257e-08
1.60547e-09
7.64139e-08
1.57925e-09
7.64023e-08
1.55379e-09
7.6391e-08
1.52903e-09
7.63798e-08
1.50491e-09
7.63689e-08
1.48137e-09
7.63581e-08
1.45835e-09
7.63475e-08
1.43577e-09
7.6337e-08
1.41359e-09
7.63267e-08
1.39173e-09
7.63165e-08
1.37013e-09
7.63063e-08
1.34873e-09
7.62963e-08
1.32745e-09
7.62862e-08
1.30623e-09
7.62762e-08
1.285e-09
7.62662e-08
1.2637e-09
7.62561e-08
1.24225e-09
7.62461e-08
1.22059e-09
7.6236e-08
1.19864e-09
7.62258e-08
1.17634e-09
7.62156e-08
1.15362e-09
7.62053e-08
1.13041e-09
7.61949e-08
1.10664e-09
7.61844e-08
1.08225e-09
7.61738e-08
1.05717e-09
7.61631e-08
1.03134e-09
7.61523e-08
1.00471e-09
7.61414e-08
9.77208e-10
7.61303e-08
9.48793e-10
7.61192e-08
9.19414e-10
7.61079e-08
8.89033e-10
7.60965e-08
8.57614e-10
7.60851e-08
8.25131e-10
7.60735e-08
7.91565e-10
7.60618e-08
7.56908e-10
7.605e-08
7.21165e-10
7.6038e-08
6.84355e-10
7.60259e-08
6.46519e-10
7.60136e-08
6.07724e-10
7.6001e-08
5.68078e-10
7.59881e-08
5.27737e-10
7.59747e-08
4.86919e-10
7.5961e-08
4.45912e-10
7.59468e-08
4.05079e-10
7.59321e-08
3.64842e-10
7.59171e-08
3.25656e-10
7.59019e-08
2.87975e-10
7.58866e-08
2.52204e-10
7.58714e-08
2.18677e-10
7.58566e-08
1.87635e-10
7.58423e-08
1.59226e-10
7.58287e-08
1.33509e-10
7.58159e-08
1.10462e-10
7.58039e-08
8.99962e-11
7.5793e-08
7.19742e-11
7.5783e-08
5.62181e-11
7.5774e-08
4.25276e-11
7.57659e-08
3.06916e-11
7.57587e-08
2.04914e-11
7.57523e-08
1.17111e-11
7.57465e-08
4.14382e-12
7.57413e-08
-2.38554e-12
7.57366e-08
-8.01993e-12
7.57325e-08
-1.29313e-11
-1.73806e-11
8.32234e-08
1.99094e-09
-8.31523e-08
8.33138e-08
2.11583e-09
8.34193e-08
2.2287e-09
8.35346e-08
2.32646e-09
8.36548e-08
2.40716e-09
8.37752e-08
2.47002e-09
8.3892e-08
2.51516e-09
8.40019e-08
2.54339e-09
8.41025e-08
2.55604e-09
8.41922e-08
2.55484e-09
8.42699e-08
2.54173e-09
8.43355e-08
2.51879e-09
8.43892e-08
2.48803e-09
8.44318e-08
2.45133e-09
8.44644e-08
2.4104e-09
8.44879e-08
2.36665e-09
8.45039e-08
2.32129e-09
8.45133e-08
2.27523e-09
8.45176e-08
2.22919e-09
8.45175e-08
2.18368e-09
8.45142e-08
2.13905e-09
8.45082e-08
2.09553e-09
8.45004e-08
2.05325e-09
8.44911e-08
2.01229e-09
8.44809e-08
1.97265e-09
8.447e-08
1.93434e-09
8.44587e-08
1.89733e-09
8.44472e-08
1.86157e-09
8.44357e-08
1.82703e-09
8.44242e-08
1.79365e-09
8.4413e-08
1.76139e-09
8.4402e-08
1.7302e-09
8.43913e-08
1.70002e-09
8.43809e-08
1.67081e-09
8.43709e-08
1.64252e-09
8.43613e-08
1.61509e-09
8.43521e-08
1.58847e-09
8.43433e-08
1.56261e-09
8.43348e-08
1.53744e-09
8.43268e-08
1.51292e-09
8.43192e-08
1.48899e-09
8.4312e-08
1.46557e-09
8.43051e-08
1.44263e-09
8.42986e-08
1.42008e-09
8.42925e-08
1.39787e-09
8.42867e-08
1.37594e-09
8.42812e-08
1.35422e-09
8.4276e-08
1.33264e-09
8.42711e-08
1.31114e-09
8.42665e-08
1.28964e-09
8.42621e-08
1.26809e-09
8.42579e-08
1.24642e-09
8.42539e-08
1.22454e-09
8.42502e-08
1.2024e-09
8.42466e-08
1.17993e-09
8.42432e-08
1.15706e-09
8.42398e-08
1.13371e-09
8.42367e-08
1.10983e-09
8.42336e-08
1.08535e-09
8.42305e-08
1.0602e-09
8.42276e-08
1.03432e-09
8.42246e-08
1.00765e-09
8.42217e-08
9.80144e-10
8.42187e-08
9.51743e-10
8.42157e-08
9.22405e-10
8.42127e-08
8.92089e-10
8.42095e-08
8.60764e-10
8.42063e-08
8.28405e-10
8.42028e-08
7.94998e-10
8.41992e-08
7.6054e-10
8.41953e-08
7.25041e-10
8.41911e-08
6.8853e-10
8.41866e-08
6.51057e-10
8.41816e-08
6.12699e-10
8.41761e-08
5.73571e-10
8.417e-08
5.33834e-10
8.41633e-08
4.93699e-10
8.41557e-08
4.5344e-10
8.41474e-08
4.13385e-10
8.41384e-08
3.73912e-10
8.41286e-08
3.35424e-10
8.41182e-08
2.9832e-10
8.41075e-08
2.62968e-10
8.40965e-08
2.29674e-10
8.40854e-08
1.98672e-10
8.40746e-08
1.70115e-10
8.4064e-08
1.4408e-10
8.40539e-08
1.2057e-10
8.40443e-08
9.9526e-11
8.40355e-08
8.08428e-11
8.40273e-08
6.43744e-11
8.40199e-08
4.99499e-11
8.40132e-08
3.7384e-11
8.40072e-08
2.64841e-11
8.40019e-08
1.70583e-11
8.39971e-08
8.92023e-12
8.39928e-08
1.89409e-12
8.3989e-08
-4.17738e-12
8.39855e-08
-9.4483e-12
-1.4069e-11
9.20556e-08
1.92953e-09
-9.19941e-08
9.21323e-08
2.03906e-09
9.22216e-08
2.13944e-09
9.23197e-08
2.22837e-09
9.24227e-08
2.3041e-09
9.25271e-08
2.36566e-09
9.26294e-08
2.41281e-09
9.2727e-08
2.44584e-09
9.28175e-08
2.46551e-09
9.28994e-08
2.47295e-09
9.29717e-08
2.4695e-09
9.30338e-08
2.45667e-09
9.30858e-08
2.436e-09
9.31281e-08
2.40899e-09
9.31615e-08
2.37705e-09
9.31867e-08
2.34142e-09
9.32048e-08
2.30319e-09
9.32168e-08
2.26326e-09
9.32236e-08
2.22237e-09
9.32262e-08
2.1811e-09
9.32254e-08
2.13988e-09
9.32218e-08
2.09906e-09
9.32162e-08
2.05887e-09
9.3209e-08
2.01947e-09
9.32007e-08
1.98099e-09
9.31915e-08
1.94348e-09
9.31819e-08
1.90699e-09
9.31719e-08
1.87153e-09
9.31618e-08
1.83712e-09
9.31517e-08
1.80373e-09
9.31418e-08
1.77135e-09
9.3132e-08
1.73995e-09
9.31225e-08
1.70951e-09
9.31134e-08
1.67998e-09
9.31046e-08
1.65133e-09
9.30961e-08
1.62352e-09
9.30881e-08
1.5965e-09
9.30805e-08
1.57022e-09
9.30733e-08
1.54463e-09
9.30665e-08
1.51969e-09
9.30602e-08
1.49532e-09
9.30543e-08
1.47149e-09
9.30488e-08
1.44812e-09
9.30437e-08
1.42516e-09
9.3039e-08
1.40255e-09
9.30347e-08
1.38023e-09
9.30308e-08
1.35812e-09
9.30273e-08
1.33618e-09
9.30241e-08
1.31432e-09
9.30213e-08
1.29249e-09
9.30187e-08
1.27061e-09
9.30165e-08
1.24862e-09
9.30146e-08
1.22646e-09
9.3013e-08
1.20404e-09
9.30116e-08
1.18131e-09
9.30104e-08
1.1582e-09
9.30095e-08
1.13464e-09
9.30088e-08
1.11056e-09
9.30082e-08
1.0859e-09
9.30079e-08
1.06059e-09
9.30076e-08
1.03459e-09
9.30074e-08
1.00782e-09
9.30073e-08
9.80237e-10
9.30073e-08
9.51792e-10
9.30072e-08
9.22441e-10
9.30072e-08
8.92148e-10
9.30071e-08
8.60883e-10
9.30068e-08
8.28626e-10
9.30065e-08
7.95368e-10
9.30059e-08
7.61109e-10
9.30051e-08
7.25869e-10
9.30039e-08
6.89682e-10
9.30024e-08
6.52607e-10
9.30003e-08
6.1473e-10
9.29977e-08
5.76169e-10
9.29945e-08
5.37086e-10
9.29905e-08
4.97686e-10
9.29857e-08
4.58223e-10
9.29801e-08
4.18996e-10
9.29737e-08
3.80342e-10
9.29665e-08
3.42618e-10
9.29586e-08
3.06177e-10
9.29502e-08
2.71348e-10
9.29415e-08
2.38414e-10
9.29326e-08
2.07596e-10
9.29236e-08
1.79051e-10
9.29149e-08
1.52866e-10
9.29064e-08
1.29066e-10
9.28983e-08
1.07619e-10
9.28907e-08
8.84442e-11
9.28836e-08
7.14255e-11
9.28771e-08
5.64184e-11
9.28713e-08
4.32614e-11
9.2866e-08
3.17836e-11
9.28612e-08
2.18119e-11
9.2857e-08
1.31768e-11
9.28531e-08
5.71667e-12
9.28497e-08
-7.21822e-13
9.28465e-08
-6.2728e-12
-1.10294e-11
1.01813e-07
1.87864e-09
-1.01762e-07
1.01876e-07
1.97628e-09
1.01949e-07
2.06673e-09
1.02029e-07
2.14825e-09
1.02114e-07
2.21938e-09
1.022e-07
2.27916e-09
1.02286e-07
2.32713e-09
1.02368e-07
2.36326e-09
1.02446e-07
2.38794e-09
1.02517e-07
2.40182e-09
1.02581e-07
2.40582e-09
1.02636e-07
2.40099e-09
1.02684e-07
2.38848e-09
1.02723e-07
2.36948e-09
1.02755e-07
2.34512e-09
1.0278e-07
2.31647e-09
1.02799e-07
2.2845e-09
1.02812e-07
2.25006e-09
1.02821e-07
2.21387e-09
1.02825e-07