/*--------------------------------*- C++ -*----------------------------------*\
| =========                 |                                                 |
| \\      /  F ield         | OpenFOAM: The Open Source CFD Toolbox           |
|  \\    /   O peration     | Version:  2.3.0                                 |
|   \\  /    A nd           | Web:      www.OpenFOAM.org                      |
|    \\/     M anipulation  |                                                 |
\*---------------------------------------------------------------------------*/
FoamFile
{
    version     2.0;
    format      ascii;
    class       surfaceScalarField;
    location    "0.35";
    object      phi;
}
// * * * * * * * * * * * * * * * * * * * * * * * * * * * * * * * * * * * * * //

dimensions      [0 3 -1 0 0 0 0];

internalField   nonuniform List<scalar> 
6598
(
2.89684e-08
2.75047e-09
-3.17188e-08
2.55322e-08
3.43621e-09
2.21198e-08
3.41238e-09
1.89536e-08
3.16617e-09
1.60676e-08
2.88601e-09
1.35384e-08
2.52924e-09
1.14566e-08
2.08174e-09
9.83973e-09
1.61688e-09
8.65241e-09
1.18732e-09
7.81162e-09
8.40788e-10
7.22209e-09
5.89539e-10
6.80163e-09
4.20458e-10
6.48863e-09
3.13002e-10
6.24035e-09
2.48274e-10
6.02884e-09
2.11515e-10
5.83805e-09
1.90785e-10
5.66013e-09
1.77918e-10
5.49187e-09
1.68266e-10
5.33239e-09
1.59477e-10
5.18188e-09
1.50509e-10
5.04071e-09
1.41177e-10
4.90884e-09
1.3187e-10
4.78574e-09
1.23096e-10
4.67067e-09
1.15068e-10
4.56298e-09
1.07688e-10
4.46216e-09
1.00827e-10
4.36765e-09
9.45103e-11
4.27882e-09
8.8822e-11
4.19508e-09
8.3748e-11
4.11592e-09
7.91533e-11
4.04103e-09
7.48887e-11
3.97014e-09
7.08974e-11
3.90293e-09
6.72091e-11
3.83907e-09
6.38574e-11
3.77825e-09
6.0818e-11
3.72024e-09
5.8015e-11
3.66487e-09
5.53634e-11
3.61206e-09
5.28122e-11
3.56172e-09
5.03432e-11
3.51376e-09
4.79613e-11
3.46807e-09
4.5686e-11
3.42453e-09
4.35394e-11
3.383e-09
4.15288e-11
3.34335e-09
3.96523e-11
3.30546e-09
3.78898e-11
3.26925e-09
3.62077e-11
3.23468e-09
3.45693e-11
3.20173e-09
3.29548e-11
3.17037e-09
3.13577e-11
3.14058e-09
2.97924e-11
3.11231e-09
2.82728e-11
3.0855e-09
2.68072e-11
3.06011e-09
2.53872e-11
3.0361e-09
2.40108e-11
3.01343e-09
2.26727e-11
2.99205e-09
2.13772e-11
2.97194e-09
2.01152e-11
2.95305e-09
1.8882e-11
2.9354e-09
1.76576e-11
2.91896e-09
1.644e-11
2.90374e-09
1.52193e-11
2.88973e-09
1.40056e-11
2.87694e-09
1.27925e-11
2.86534e-09
1.15983e-11
2.85493e-09
1.04122e-11
2.84568e-09
9.24711e-12
2.83759e-09
8.08781e-12
2.83064e-09
6.95623e-12
2.82481e-09
5.82642e-12
2.82009e-09
4.71897e-12
2.81648e-09
3.61537e-12
2.81392e-09
2.55762e-12
2.8124e-09
1.52259e-12
2.81186e-09
5.3548e-13
2.81224e-09
-3.75867e-13
2.81338e-09
-1.1466e-12
2.81519e-09
-1.8102e-12
2.81748e-09
-2.28537e-12
2.82011e-09
-2.62687e-12
2.82291e-09
-2.80423e-12
2.82576e-09
-2.85253e-12
2.82854e-09
-2.77885e-12
2.83117e-09
-2.63343e-12
2.8336e-09
-2.42931e-12
2.83582e-09
-2.21852e-12
2.83782e-09
-1.99574e-12
2.83962e-09
-1.80439e-12
2.84124e-09
-1.61652e-12
2.84272e-09
-1.48235e-12
2.84406e-09
-1.34322e-12
2.84533e-09
-1.26262e-12
2.84648e-09
-1.15494e-12
2.84759e-09
-1.10552e-12
2.84859e-09
-9.98863e-13
2.84954e-09
-9.56775e-13
2.85037e-09
-8.26004e-13
2.85115e-09
-7.76355e-13
2.85177e-09
-6.24482e-13
2.85234e-09
-5.74986e-13
-4.99761e-13
3.41611e-08
2.47913e-09
-3.38898e-08
3.39822e-08
3.6151e-09
3.32963e-08
4.09827e-09
3.23304e-08
4.13212e-09
3.11941e-08
4.02234e-09
2.99129e-08
3.81038e-09
2.85179e-08
3.47673e-09
2.70852e-08
3.04956e-09
2.56877e-08
2.58483e-09
2.43768e-08
2.1517e-09
2.31743e-08
1.79202e-09
2.20823e-08
1.51253e-09
2.10966e-08
1.29867e-09
2.02126e-08
1.13225e-09
1.94198e-08
1.00437e-09
1.87065e-08
9.04024e-10
1.80618e-08
8.22621e-10
1.74757e-08
7.54401e-10
1.69397e-08
6.95475e-10
1.64471e-08
6.43117e-10
1.59925e-08
5.9575e-10
1.55715e-08
5.52898e-10
1.518e-08
5.14529e-10
1.48148e-08
4.8029e-10
1.44731e-08
4.49432e-10
1.41526e-08
4.21294e-10
1.38515e-08
3.95642e-10
1.35678e-08
3.72453e-10
1.33e-08
3.51549e-10
1.30467e-08
3.32515e-10
1.28067e-08
3.14922e-10
1.2579e-08
2.98555e-10
1.23628e-08
2.83404e-10
1.21572e-08
2.69475e-10
1.19613e-08
2.56657e-10
1.17746e-08
2.44736e-10
1.15965e-08
2.33489e-10
1.14265e-08
2.22774e-10
1.12644e-08
2.12528e-10
1.11096e-08
2.02741e-10
1.09618e-08
1.9343e-10
1.08207e-08
1.84618e-10
1.0686e-08
1.76293e-10
1.05572e-08
1.68427e-10
1.04341e-08
1.60954e-10
1.03166e-08
1.53785e-10
1.02043e-08
1.46829e-10
1.00972e-08
1.40035e-10
9.9952e-09
1.33382e-10
9.8981e-09
1.26893e-10
9.80578e-09
1.20592e-10
9.7181e-09
1.14487e-10
9.63494e-09
1.08552e-10
9.55617e-09
1.02776e-10
9.48171e-09
9.7139e-11
9.41144e-09
9.1644e-11
9.34529e-09
8.62631e-11
9.28319e-09
8.098e-11
9.22511e-09
7.57463e-11
9.17099e-09
7.0557e-11
9.12082e-09
6.53884e-11
9.07456e-09
6.02647e-11
9.03218e-09
5.51717e-11
8.99363e-09
5.01524e-11
8.95886e-09
4.51836e-11
8.9278e-09
4.03003e-11
8.90042e-09
3.54731e-11
8.87661e-09
3.07607e-11
8.85633e-09
2.61135e-11
8.83945e-09
2.15953e-11
8.82588e-09
1.71812e-11
8.81545e-09
1.2994e-11
8.80797e-09
8.997e-12
8.8032e-09
5.31188e-12
8.80089e-09
1.92786e-12
8.80063e-09
-8.79523e-13
8.80209e-09
-3.27082e-12
8.80482e-09
-5.01565e-12
8.80847e-09
-6.28477e-12
8.81268e-09
-7.00768e-12
8.81714e-09
-7.317e-12
8.8216e-09
-7.24068e-12
8.82592e-09
-6.94892e-12
8.82996e-09
-6.47242e-12
8.83372e-09
-5.97993e-12
8.83717e-09
-5.44119e-12
8.84036e-09
-4.99997e-12
8.8433e-09
-4.55441e-12
8.84609e-09
-4.26475e-12
8.84868e-09
-3.93839e-12
8.8512e-09
-3.78138e-12
8.85356e-09
-3.51525e-12
8.85588e-09
-3.42484e-12
8.85801e-09
-3.13246e-12
8.86011e-09
-3.04978e-12
8.86195e-09
-2.66925e-12
8.86374e-09
-2.56296e-12
8.86522e-09
-2.11338e-12
8.86665e-09
-2.00512e-12
-1.69688e-12
3.56642e-08
2.34813e-09
-3.55332e-08
3.6044e-08
3.23528e-09
3.62659e-08
3.8764e-09
3.63089e-08
4.08918e-09
3.62349e-08
4.09629e-09
3.604e-08
4.0053e-09
3.56962e-08
3.82053e-09
3.52091e-08
3.53666e-09
3.46093e-08
3.1846e-09
3.39388e-08
2.82218e-09
3.32326e-08
2.49829e-09
3.25126e-08
2.2325e-09
3.17915e-08
2.01977e-09
3.10765e-08
1.84725e-09
3.03747e-08
1.70615e-09
2.96905e-08
1.58824e-09
2.90264e-08
1.48672e-09
2.83839e-08
1.39687e-09
2.77639e-08
1.31552e-09
2.71665e-08
1.24047e-09
2.65917e-08
1.17056e-09
2.60391e-08
1.10553e-09
2.55083e-08
1.04537e-09
2.49988e-08
9.89701e-10
2.45105e-08
9.37795e-10
2.40427e-08
8.89047e-10
2.35951e-08
8.4331e-10
2.31668e-08
8.00717e-10
2.27571e-08
7.6126e-10
2.2365e-08
7.24606e-10
2.19896e-08
6.90299e-10
2.16301e-08
6.58064e-10
2.12857e-08
6.27851e-10
2.09555e-08
5.99639e-10
2.06389e-08
5.73257e-10
2.03352e-08
5.48408e-10
2.00439e-08
5.24789e-10
1.97645e-08
5.02215e-10
1.94964e-08
4.80596e-10
1.92392e-08
4.59914e-10
1.89925e-08
4.40178e-10
1.87557e-08
4.21394e-10
1.85285e-08
4.0352e-10
1.83104e-08
3.86493e-10
1.81012e-08
3.70192e-10
1.79005e-08
3.54472e-10
1.77081e-08
3.3919e-10
1.75239e-08
3.24263e-10
1.73476e-08
3.09656e-10
1.71791e-08
2.95402e-10
1.70182e-08
2.81526e-10
1.68646e-08
2.68031e-10
1.67183e-08
2.54861e-10
1.65791e-08
2.41989e-10
1.64469e-08
2.29378e-10
1.63215e-08
2.1703e-10
1.62029e-08
2.04899e-10
1.60909e-08
1.92957e-10
1.59855e-08
1.81126e-10
1.58867e-08
1.69396e-10
1.57943e-08
1.57729e-10
1.57084e-08
1.46162e-10
1.56289e-08
1.34675e-10
1.55557e-08
1.23335e-10
1.54888e-08
1.12112e-10
1.5428e-08
1.01068e-10
1.53734e-08
9.01637e-11
1.53246e-08
7.9509e-11
1.52817e-08
6.90404e-11
1.52444e-08
5.88819e-11
1.52126e-08
4.90102e-11
1.51859e-08
3.96482e-11
1.51642e-08
3.07588e-11
1.51469e-08
2.25764e-11
1.51337e-08
1.51066e-11
1.51241e-08
8.71381e-12
1.51176e-08
3.25197e-12
1.51135e-08
-9.25746e-13
1.51114e-08
-4.14809e-12
1.51106e-08
-6.27803e-12
1.51109e-08
-7.582e-12
1.51118e-08
-8.09707e-12
1.5113e-08
-8.16308e-12
1.51143e-08
-7.81325e-12
1.51157e-08
-7.39473e-12
1.51171e-08
-6.82235e-12
1.51185e-08
-6.40537e-12
1.51199e-08
-5.92141e-12
1.51213e-08
-5.71044e-12
1.51228e-08
-5.3797e-12
1.51243e-08
-5.35623e-12
1.51259e-08
-5.08466e-12
1.51276e-08
-5.13882e-12
1.51293e-08
-4.7839e-12
1.5131e-08
-4.81519e-12
1.51327e-08
-4.28488e-12
1.51343e-08
-4.2304e-12
1.51358e-08
-3.57767e-12
1.51372e-08
-3.46003e-12
-2.97345e-12
3.71867e-08
2.29473e-09
-3.71333e-08
3.74791e-08
2.94296e-09
3.7821e-08
3.53448e-09
3.80838e-08
3.82633e-09
3.82873e-08
3.89282e-09
3.84444e-08
3.84824e-09
3.85324e-08
3.73254e-09
3.85272e-08
3.54179e-09
3.84237e-08
3.28815e-09
3.82373e-08
3.00857e-09
3.79909e-08
2.74467e-09
3.77035e-08
2.51995e-09
3.73855e-08
2.33771e-09
3.70426e-08
2.19013e-09
3.66803e-08
2.06844e-09
3.63031e-08
1.96551e-09
3.59141e-08
1.87574e-09
3.55159e-08
1.79505e-09
3.51109e-08
1.72054e-09
3.4701e-08
1.65031e-09
3.42881e-08
1.58352e-09
3.38733e-08
1.52026e-09
3.34579e-08
1.46078e-09
3.30428e-08
1.40487e-09
3.26287e-08
1.35182e-09
3.22169e-08
1.30091e-09
3.18084e-08
1.25173e-09
3.14049e-08
1.20424e-09
3.10076e-08
1.15854e-09
3.06176e-08
1.11466e-09
3.02352e-08
1.07265e-09
2.98607e-08
1.03263e-09
2.94938e-08
9.94742e-10
2.91345e-08
9.58922e-10
2.8783e-08
9.24811e-10
2.84395e-08
8.91899e-10
2.81045e-08
8.59773e-10
2.77784e-08
8.28298e-10
2.74614e-08
7.97551e-10
2.71536e-08
7.67725e-10
2.68548e-08
7.39012e-10
2.65647e-08
7.11495e-10
2.62831e-08
6.85111e-10
2.60099e-08
6.59709e-10
2.5745e-08
6.35059e-10
2.54886e-08
6.10935e-10
2.52406e-08
5.87173e-10
2.50011e-08
5.63732e-10
2.47701e-08
5.40634e-10
2.45475e-08
5.17982e-10
2.43332e-08
4.95832e-10
2.41271e-08
4.7418e-10
2.3929e-08
4.52927e-10
2.3739e-08
4.32015e-10
2.3557e-08
4.11388e-10
2.3383e-08
3.91045e-10
2.32169e-08
3.7093e-10
2.30589e-08
3.51016e-10
2.29088e-08
3.31209e-10
2.27667e-08
3.11509e-10
2.26325e-08
2.9188e-10
2.25063e-08
2.72384e-10
2.2388e-08
2.52992e-10
2.22775e-08
2.33805e-10
2.21749e-08
2.1478e-10
2.20799e-08
1.96007e-10
2.19927e-08
1.77434e-10
2.19129e-08
1.5923e-10
2.18406e-08
1.41324e-10
2.17756e-08
1.23912e-10
2.17177e-08
1.06972e-10
2.16665e-08
9.08455e-11
2.16217e-08
7.54914e-11
2.1583e-08
6.12691e-11
2.155e-08
4.81789e-11
2.15219e-08
3.67292e-11
2.14984e-08
2.67749e-11
2.14788e-08
1.86898e-11
2.14625e-08
1.21221e-11
2.1449e-08
7.27856e-12
2.14377e-08
3.73532e-12
2.14281e-08
1.49292e-12
2.14199e-08
2.09943e-14
2.14127e-08
-6.72487e-13
2.14065e-08
-1.16e-12
2.1401e-08
-1.27449e-12
2.13961e-08
-1.52816e-12
2.13917e-08
-1.57689e-12
2.1388e-08
-1.95542e-12
2.13847e-08
-2.1001e-12
2.1382e-08
-2.62468e-12
2.13797e-08
-2.78106e-12
2.13778e-08
-3.31399e-12
2.13764e-08
-3.31606e-12
2.13753e-08
-3.71292e-12
2.13745e-08
-3.46319e-12
2.13738e-08
-3.62058e-12
2.13735e-08
-3.21157e-12
2.13732e-08
-3.16347e-12
-2.89841e-12
3.87679e-08
2.24407e-09
-3.87173e-08
3.89703e-08
2.74056e-09
3.9275e-08
3.2298e-09
3.9559e-08
3.54237e-09
3.97974e-08
3.65436e-09
4.00073e-08
3.63838e-09
4.01878e-08
3.55199e-09
4.03205e-08
3.40916e-09
4.03911e-08
3.21752e-09
4.04012e-08
2.99846e-09
4.03643e-08
2.7816e-09
4.02944e-08
2.58986e-09
4.02001e-08
2.43202e-09
4.00855e-08
2.30472e-09
3.99533e-08
2.20057e-09
3.98058e-08
2.11309e-09
3.96442e-08
2.03734e-09
3.94696e-08
1.96959e-09
3.92831e-08
1.90709e-09
3.90854e-08
1.84793e-09
3.88777e-08
1.79127e-09
3.86606e-08
1.73732e-09
3.84348e-08
1.68657e-09
3.82006e-08
1.63908e-09
3.79581e-08
1.59437e-09
3.77073e-08
1.55168e-09
3.74488e-08
1.51022e-09
3.71837e-08
1.46938e-09
3.69135e-08
1.42876e-09
3.66399e-08
1.38825e-09
3.63644e-08
1.34813e-09
3.60879e-08
1.30908e-09
3.58108e-08
1.27186e-09
3.55328e-08
1.23689e-09
3.52537e-08
1.20392e-09
3.49735e-08
1.17213e-09
3.46928e-08
1.14051e-09
3.44127e-08
1.10839e-09
3.41346e-08
1.07558e-09
3.38599e-08
1.0425e-09
3.3589e-08
1.0099e-09
3.3322e-08
9.78454e-10
3.30587e-08
9.4847e-10
3.27986e-08
9.19784e-10
3.25418e-08
8.91836e-10
3.22888e-08
8.63976e-10
3.20402e-08
8.35758e-10
3.17968e-08
8.0713e-10
3.15591e-08
7.78326e-10
3.13273e-08
7.4973e-10
3.11016e-08
7.21585e-10
3.08818e-08
6.93938e-10
3.06681e-08
6.66643e-10
3.04605e-08
6.39596e-10
3.02592e-08
6.12705e-10
3.00643e-08
5.85947e-10
2.9876e-08
5.59217e-10
2.96946e-08
5.3246e-10
2.95202e-08
5.05558e-10
2.93532e-08
4.78551e-10
2.91936e-08
4.51447e-10
2.90416e-08
4.24393e-10
2.88972e-08
3.97392e-10
2.87604e-08
3.70596e-10
2.86313e-08
3.43953e-10
2.85097e-08
3.17584e-10
2.83957e-08
2.91399e-10
2.82893e-08
2.65613e-10
2.81905e-08
2.40126e-10
2.80992e-08
2.15222e-10
2.80153e-08
1.90864e-10
2.79387e-08
1.67523e-10
2.7869e-08
1.45146e-10
2.7806e-08
1.24257e-10
2.77494e-08
1.04823e-10
2.76986e-08
8.75074e-11
2.76533e-08
7.2107e-11
2.76128e-08
5.91162e-11
2.75769e-08
4.80973e-11
2.75448e-08
3.9371e-11
2.75161e-08
3.2368e-11
2.74904e-08
2.7183e-11
2.74674e-08
2.31e-11
2.74465e-08
2.01816e-11
2.74276e-08
1.77278e-11
2.74104e-08
1.59101e-11
2.73948e-08
1.4123e-11
2.73805e-08
1.26679e-11
2.73676e-08
1.1027e-11
2.73558e-08
9.6315e-12
2.73451e-08
8.05251e-12
2.73356e-08
6.74333e-12
2.73269e-08
5.37843e-12
2.73193e-08
4.30469e-12
2.73123e-08
3.33232e-12
2.73062e-08
2.56804e-12
2.73005e-08
2.09921e-12
2.72958e-08
1.51364e-12
2.72912e-08
1.4471e-12
7.80848e-13
4.03811e-08
2.18523e-09
-4.03222e-08
4.05356e-08
2.58602e-09
4.07853e-08
2.98007e-09
4.10495e-08
3.27823e-09
4.12832e-08
3.42064e-09
4.14869e-08
3.43472e-09
4.16678e-08
3.37106e-09
4.18189e-08
3.25808e-09
4.19291e-08
3.10727e-09
4.19958e-08
2.93178e-09
4.20262e-08
2.7512e-09
4.20313e-08
2.58478e-09
4.20196e-08
2.44371e-09
4.19957e-08
2.32863e-09
4.19617e-08
2.23457e-09
4.19188e-08
2.15596e-09
4.18678e-08
2.08832e-09
4.18092e-08
2.02827e-09
4.1743e-08
1.97326e-09
4.16695e-08
1.92141e-09
4.1589e-08
1.87182e-09
4.15017e-08
1.82464e-09
4.14078e-08
1.78045e-09
4.13072e-08
1.73964e-09
4.11995e-08
1.70208e-09
4.1084e-08
1.6672e-09
4.09601e-08
1.63412e-09
4.08277e-08
1.60172e-09
4.06875e-08
1.56897e-09
4.05406e-08
1.5352e-09
4.03883e-08
1.50045e-09
4.02318e-08
1.46551e-09
4.0072e-08
1.43169e-09
3.99087e-08
1.4002e-09
3.97412e-08
1.37147e-09
3.95684e-08
1.34488e-09
3.93899e-08
1.31902e-09
3.9206e-08
1.29233e-09
3.90179e-08
1.26367e-09
3.88275e-08
1.23287e-09
3.86366e-08
1.20085e-09
3.84459e-08
1.16908e-09
3.82555e-08
1.13888e-09
3.80645e-08
1.1108e-09
3.7872e-08
1.08433e-09
3.76777e-08
1.05824e-09
3.74823e-08
1.0312e-09
3.72869e-08
1.0025e-09
3.70929e-08
9.7236e-10
3.6901e-08
9.41611e-10
3.67116e-08
9.11002e-10
3.65247e-08
8.80817e-10
3.63405e-08
8.50893e-10
3.6159e-08
8.21074e-10
3.59804e-08
7.9128e-10
3.58048e-08
7.61524e-10
3.56324e-08
7.31627e-10
3.54635e-08
7.0139e-10
3.52985e-08
6.70527e-10
3.51381e-08
6.3902e-10
3.49826e-08
6.06911e-10
3.48325e-08
5.74489e-10
3.4688e-08
5.41879e-10
3.45492e-08
5.09377e-10
3.44162e-08
4.76969e-10
3.4289e-08
4.44844e-10
3.41675e-08
4.12862e-10
3.40519e-08
3.81254e-10
3.39421e-08
3.49839e-10
3.38384e-08
3.18957e-10
3.37408e-08
2.88506e-10
3.36492e-08
2.59078e-10
3.35638e-08
2.30592e-10
3.34843e-08
2.03766e-10
3.34106e-08
1.78517e-10
3.33424e-08
1.55692e-10
3.32795e-08
1.35016e-10
3.32214e-08
1.17136e-10
3.3168e-08
1.01511e-10
3.31188e-08
8.85677e-11
3.30736e-08
7.76367e-11
3.30319e-08
6.88527e-11
3.29935e-08
6.14938e-11
3.29581e-08
5.5537e-11
3.29254e-08
5.04304e-11
3.28953e-08
4.60503e-11
3.28673e-08
4.21292e-11
3.28415e-08
3.84182e-11
3.28175e-08
3.5032e-11
3.27956e-08
3.15348e-11
3.27751e-08
2.85454e-11
3.27567e-08
2.52258e-11
3.27392e-08
2.28253e-11
3.27237e-08
1.98335e-11
3.27088e-08
1.82555e-11
3.26957e-08
1.56736e-11
3.26828e-08
1.49672e-11
3.26717e-08
1.26348e-11
3.26606e-08
1.25276e-11
1.02264e-11
4.20292e-08
2.12158e-09
-4.19656e-08
4.21588e-08
2.45645e-09
4.23612e-08
2.77764e-09
4.25951e-08
3.04433e-09
4.28161e-08
3.19964e-09
4.30096e-08
3.2412e-09
4.31788e-08
3.20187e-09
4.33235e-08
3.11346e-09
4.34377e-08
2.99299e-09
4.35184e-08
2.85116e-09
4.35686e-08
2.701e-09
4.35962e-08
2.55711e-09
4.36096e-08
2.43037e-09
4.36139e-08
2.32432e-09
4.36118e-08
2.23665e-09
4.36046e-08
2.16311e-09
4.35932e-08
2.09974e-09
4.3578e-08
2.04349e-09
4.35592e-08
1.99206e-09
4.35369e-08
1.94372e-09
4.35112e-08
1.89756e-09
4.34822e-08
1.85364e-09
4.34501e-08
1.81253e-09
4.34149e-08
1.77482e-09
4.33762e-08
1.74072e-09
4.33335e-08
1.70995e-09
4.32859e-08
1.68175e-09
4.32328e-08
1.65483e-09
4.3174e-08
1.62776e-09
4.31098e-08
1.59936e-09
4.30411e-08
1.56917e-09
4.29688e-08
1.53776e-09
4.2894e-08
1.50655e-09
4.28168e-08
1.47737e-09
4.27368e-08
1.45148e-09
4.26527e-08
1.42896e-09
4.25632e-08
1.40853e-09
4.24674e-08
1.3881e-09
4.23656e-08
1.3655e-09
4.2259e-08
1.33943e-09
4.21497e-08
1.31019e-09
4.20392e-08
1.27954e-09
4.19283e-08
1.24978e-09
4.18164e-08
1.22271e-09
4.17021e-08
1.19867e-09
4.15839e-08
1.17644e-09
4.14613e-08
1.15376e-09
4.13351e-08
1.12868e-09
4.12069e-08
1.10061e-09
4.10779e-08
1.07056e-09
4.09489e-08
1.04e-09
4.082e-08
1.00977e-09
4.06911e-08
9.79782e-10
4.05624e-08
9.49749e-10
4.04341e-08
9.19595e-10
4.03061e-08
8.89517e-10
4.01783e-08
8.59444e-10
4.00506e-08
8.29062e-10
3.99234e-08
7.97771e-10
3.97971e-08
7.6527e-10
3.96726e-08
7.31448e-10
3.95504e-08
6.96657e-10
3.94311e-08
6.61164e-10
3.9315e-08
6.25479e-10
3.92023e-08
5.89729e-10
3.90929e-08
5.54259e-10
3.89868e-08
5.18947e-10
3.8884e-08
4.84061e-10
3.87845e-08
4.49302e-10
3.86885e-08
4.15012e-10
3.8596e-08
3.80947e-10
3.85073e-08
3.47755e-10
3.84227e-08
3.15263e-10
3.83421e-08
2.84359e-10
3.82657e-08
2.54923e-10
3.81934e-08
2.27993e-10
3.81251e-08
2.0327e-10
3.80607e-08
1.81518e-10
3.80001e-08
1.6218e-10
3.7943e-08
1.45653e-10
3.78893e-08
1.31352e-10
3.78389e-08
1.19202e-10
3.77916e-08
1.08827e-10
3.77474e-08
9.9735e-11
3.77057e-08
9.20782e-11
3.76669e-08
8.48641e-11
3.76301e-08
7.88966e-11
3.7596e-08
7.25562e-11
3.75635e-08
6.75104e-11
3.75337e-08
6.1408e-11
3.75051e-08
5.70711e-11
3.74793e-08
5.10995e-11
3.74544e-08
4.77316e-11
3.7432e-08
4.2144e-11
3.74102e-08
4.01148e-11
3.73907e-08
3.51715e-11
3.73712e-08
3.44664e-11
3.73538e-08
3.0048e-11
3.73362e-08
3.00978e-11
2.59564e-11
4.37194e-08
2.05735e-09
-4.36551e-08
4.38335e-08
2.34227e-09
4.40008e-08
2.61038e-09
4.42034e-08
2.84171e-09
4.44068e-08
2.99628e-09
4.45901e-08
3.05787e-09
4.47492e-08
3.04276e-09
4.48852e-08
2.97751e-09
4.49963e-08
2.8818e-09
4.50804e-08
2.76708e-09
4.51384e-08
2.64302e-09
4.51753e-08
2.5202e-09
4.51979e-08
2.40777e-09
4.52117e-08
2.31053e-09
4.52198e-08
2.22852e-09
4.52239e-08
2.159e-09
4.5225e-08
2.0987e-09
4.52236e-08
2.0449e-09
4.52201e-08
1.99552e-09
4.52147e-08
1.94907e-09
4.52076e-08
1.90472e-09
4.51988e-08
1.86243e-09
4.51886e-08
1.82271e-09
4.51772e-08
1.78621e-09
4.51646e-08
1.75333e-09
4.51505e-08
1.72404e-09
4.51345e-08
1.69775e-09
4.51161e-08
1.67328e-09
4.50948e-08
1.64907e-09
4.50705e-08
1.62367e-09
4.50434e-08
1.59626e-09
4.50141e-08
1.56704e-09
4.49834e-08
1.53723e-09
4.49519e-08
1.50886e-09
4.49196e-08
1.48382e-09
4.48857e-08
1.46288e-09
4.48489e-08
1.44526e-09
4.48082e-08
1.42888e-09
4.47627e-08
1.411e-09
4.47128e-08
1.3893e-09
4.46599e-08
1.3631e-09
4.46056e-08
1.33382e-09
4.45512e-08
1.30422e-09
4.44968e-08
1.27713e-09
4.44414e-08
1.25407e-09
4.43832e-08
1.23456e-09
4.43209e-08
1.21611e-09
4.42541e-08
1.19549e-09
4.41839e-08
1.1708e-09
4.41118e-08
1.14264e-09
4.40388e-08
1.11304e-09
4.39649e-08
1.08363e-09
4.38901e-08
1.05457e-09
4.38145e-08
1.02537e-09
4.37383e-08
9.95834e-10
4.36614e-08
9.66362e-10
4.35836e-08
9.37218e-10
4.35045e-08
9.08206e-10
4.34238e-08
8.78485e-10
4.33417e-08
8.47353e-10
4.32588e-08
8.14341e-10
4.31758e-08
7.79672e-10
4.30933e-08
7.43644e-10
4.30119e-08
7.06942e-10
4.29317e-08
6.69861e-10
4.2853e-08
6.32964e-10
4.27757e-08
5.96245e-10
4.26997e-08
5.60088e-10
4.26249e-08
5.24135e-10
4.25512e-08
4.88713e-10
4.24787e-08
4.53408e-10
4.24076e-08
4.18832e-10
4.23382e-08
3.84662e-10
4.22707e-08
3.51834e-10
4.22054e-08
3.20216e-10
4.21425e-08
2.90949e-10
4.20819e-08
2.63846e-10
4.20238e-08
2.39657e-10
4.19679e-08
2.18038e-10
4.19145e-08
1.99086e-10
4.18632e-08
1.82637e-10
4.18145e-08
1.67952e-10
4.17678e-08
1.555e-10
4.17238e-08
1.43747e-10
4.16816e-08
1.34257e-10
4.1642e-08
1.24493e-10
4.16037e-08
1.17157e-10
4.15678e-08
1.08407e-10
4.1533e-08
1.02358e-10
4.15007e-08
9.37374e-11
4.14692e-08
8.85801e-11
4.14404e-08
7.98288e-11
4.14123e-08
7.58217e-11
4.13871e-08
6.73978e-11
4.13621e-08
6.51138e-11
4.13395e-08
5.77535e-11
4.13167e-08
5.72447e-11
4.12957e-08
5.10675e-11
4.12744e-08
5.14524e-11
4.60576e-11
4.54577e-08
1.99486e-09
-4.53952e-08
4.55601e-08
2.23987e-09
4.57026e-08
2.46784e-09
4.5877e-08
2.6673e-09
4.60603e-08
2.81299e-09
4.62318e-08
2.88631e-09
4.63824e-08
2.89224e-09
4.65109e-08
2.84892e-09
4.66178e-08
2.77491e-09
4.67022e-08
2.68268e-09
4.67644e-08
2.58083e-09
4.68073e-08
2.47731e-09
4.68358e-08
2.37926e-09
4.68549e-08
2.29145e-09
4.6868e-08
2.21544e-09
4.6877e-08
2.15e-09
4.6883e-08
2.09271e-09
4.68867e-08
2.0412e-09
4.68885e-08
1.99365e-09
4.68888e-08
1.9488e-09
4.68876e-08
1.90593e-09
4.68851e-08
1.86497e-09
4.68814e-08
1.82633e-09
4.6877e-08
1.79062e-09
4.68721e-08
1.75828e-09
4.68667e-08
1.72942e-09
4.68608e-08
1.70361e-09
4.68543e-08
1.67986e-09
4.68466e-08
1.65669e-09
4.68377e-08
1.6326e-09
4.68273e-08
1.60667e-09
4.68155e-08
1.57879e-09
4.68029e-08
1.54987e-09
4.679e-08
1.5218e-09
4.67771e-08
1.49669e-09
4.67642e-08
1.47578e-09
4.67507e-08
1.45874e-09
4.67357e-08
1.44387e-09
4.67183e-08
1.42841e-09
4.66981e-08
1.40952e-09
4.66755e-08
1.38568e-09
4.66516e-08
1.35769e-09
4.66276e-08
1.32826e-09
4.66041e-08
1.30062e-09
4.6581e-08
1.27717e-09
4.65572e-08
1.2584e-09
4.6531e-08
1.24225e-09
4.65016e-08
1.22492e-09
4.64691e-08
1.20325e-09
4.64348e-08
1.177e-09
4.63994e-08
1.14837e-09
4.63634e-08
1.11967e-09
4.63265e-08
1.09148e-09
4.62887e-08
1.06317e-09
4.62503e-08
1.03425e-09
4.62114e-08
1.00525e-09
4.61718e-08
9.76798e-10
4.6131e-08
9.49033e-10
4.60884e-08
9.21098e-10
4.60437e-08
8.91977e-10
4.59973e-08
8.60804e-10
4.59494e-08
8.27532e-10
4.59007e-08
7.92358e-10
4.58516e-08
7.5601e-10
4.58026e-08
7.18883e-10
4.57539e-08
6.81713e-10
4.57054e-08
6.44657e-10
4.56573e-08
6.08264e-10
4.56092e-08
5.72231e-10
4.5561e-08
5.36896e-10
4.55126e-08
5.01751e-10
4.54642e-08
4.67301e-10
4.54157e-08
4.33102e-10
4.53676e-08
3.99957e-10
4.53201e-08
3.67775e-10
4.52734e-08
3.37602e-10
4.52277e-08
3.09569e-10
4.51832e-08
2.84178e-10
4.51396e-08
2.61622e-10
4.50973e-08
2.41349e-10
4.50559e-08
2.24013e-10
4.50162e-08
2.0773e-10
4.49774e-08
1.94273e-10
4.49406e-08
1.80526e-10
4.49048e-08
1.70037e-10
4.48711e-08
1.58219e-10
4.4838e-08
1.50303e-10
4.48067e-08
1.39672e-10
4.47756e-08
1.33455e-10
4.47465e-08
1.2284e-10
4.47175e-08
1.17586e-10
4.46909e-08
1.06432e-10
4.46645e-08
1.02196e-10
4.46407e-08
9.11792e-11
4.46171e-08
8.87089e-11
4.45956e-08
7.93227e-11
4.45738e-08
7.89587e-11
4.45531e-08
7.18585e-11
4.45319e-08
7.25826e-11
6.71222e-11
4.7249e-08
1.93487e-09
-4.7189e-08
4.73417e-08
2.14722e-09
4.74661e-08
2.34339e-09
4.76171e-08
2.51637e-09
4.77802e-08
2.64983e-09
4.79384e-08
2.72818e-09
4.80803e-08
2.75027e-09
4.82026e-08
2.72663e-09
4.83053e-08
2.6722e-09
4.83887e-08
2.59931e-09
4.84532e-08
2.51639e-09
4.85004e-08
2.43005e-09
4.85338e-08
2.34588e-09
4.85573e-08
2.26799e-09
4.85742e-08
2.19853e-09
4.85866e-08
2.13753e-09
4.85959e-08
2.08347e-09
4.86026e-08
2.03445e-09
4.86074e-08
1.98891e-09
4.86103e-08
1.94582e-09
4.86117e-08
1.9046e-09
4.86115e-08
1.86513e-09
4.86101e-08
1.82774e-09
4.86078e-08
1.79295e-09
4.86049e-08
1.76118e-09
4.86018e-08
1.73255e-09
4.85986e-08
1.70676e-09
4.85955e-08
1.683e-09
4.85922e-08
1.65999e-09
4.85884e-08
1.63635e-09
4.85839e-08
1.6112e-09
4.85784e-08
1.58431e-09
4.8572e-08
1.55627e-09
4.85651e-08
1.52866e-09
4.85583e-08
1.50349e-09
4.85519e-08
1.48214e-09
4.85461e-08
1.4646e-09
4.85404e-08
1.44957e-09
4.85341e-08
1.43465e-09
4.85267e-08
1.417e-09
4.85177e-08
1.39466e-09
4.85075e-08
1.36788e-09
4.84968e-08
1.33899e-09
4.84863e-08
1.3111e-09
4.84766e-08
1.28688e-09
4.84674e-08
1.26755e-09
4.84579e-08
1.2518e-09
4.84469e-08
1.23595e-09
4.8434e-08
1.21617e-09
4.84196e-08
1.19138e-09
4.84044e-08
1.16353e-09
4.83888e-08
1.13531e-09
4.83726e-08
1.10766e-09
4.83559e-08
1.07992e-09
4.83387e-08
1.05139e-09
4.83214e-08
1.02252e-09
4.8304e-08
9.9423e-10
4.8286e-08
9.67002e-10
4.8267e-08
9.40158e-10
4.82464e-08
9.12567e-10
4.82241e-08
8.83105e-10
4.82002e-08
8.51439e-10
4.81749e-08
8.17609e-10
4.81487e-08
7.82247e-10
4.81218e-08
7.45761e-10
4.80946e-08
7.08924e-10
4.80672e-08
6.72036e-10
4.80397e-08
6.35774e-10
4.8012e-08
5.99993e-10
4.79838e-08
5.65052e-10
4.79551e-08
5.30496e-10
4.79257e-08
4.96684e-10
4.78956e-08
4.63172e-10
4.78651e-08
4.30468e-10
4.78342e-08
3.98622e-10
4.78035e-08
3.6835e-10
4.77728e-08
3.40295e-10
4.77425e-08
3.14467e-10
4.77122e-08
2.91879e-10
4.76825e-08
2.71033e-10
4.76528e-08
2.53717e-10
4.7624e-08
2.36555e-10
4.75954e-08
2.22901e-10
4.75682e-08
2.07732e-10
4.75414e-08
1.96841e-10
4.75162e-08
1.83398e-10
4.74911e-08
1.75426e-10
4.74673e-08
1.63418e-10
4.74431e-08
1.57654e-10
4.74203e-08
1.45676e-10
4.7397e-08
1.40912e-10
4.73754e-08
1.27975e-10
4.73538e-08
1.23802e-10
4.73343e-08
1.10724e-10
4.7315e-08
1.0795e-10
4.72972e-08
9.71366e-11
4.72796e-08
9.66039e-11
4.72619e-08
8.95309e-11
4.72441e-08
9.03908e-11
8.61642e-11
4.90976e-08
1.87746e-09
-4.90402e-08
4.9182e-08
2.06284e-09
4.92923e-08
2.23314e-09
4.94242e-08
2.38442e-09
4.95688e-08
2.50529e-09
4.97128e-08
2.58417e-09
4.98456e-08
2.61746e-09
4.99619e-08
2.6103e-09
5.00607e-08
2.57338e-09
5.01425e-08
2.51757e-09
5.02078e-08
2.45105e-09
5.0258e-08
2.37981e-09
5.02954e-08
2.30852e-09
5.03228e-08
2.24057e-09
5.03432e-08
2.17813e-09
5.03588e-08
2.12197e-09
5.03708e-08
2.07146e-09
5.03801e-08
2.02519e-09
5.0387e-08
1.98192e-09
5.0392e-08
1.94085e-09
5.03951e-08
1.9015e-09
5.03965e-08
1.86374e-09
5.03964e-08
1.82782e-09
5.03952e-08
1.79418e-09
5.03932e-08
1.76317e-09
5.03909e-08
1.73487e-09
5.03886e-08
1.70905e-09
5.03865e-08
1.68508e-09
5.03846e-08
1.66191e-09
5.03826e-08
1.63835e-09
5.03801e-08
1.61368e-09
5.03768e-08
1.58764e-09
5.03725e-08
1.56058e-09
5.03674e-08
1.53371e-09
5.03621e-08
1.50879e-09
5.03572e-08
1.48709e-09
5.0353e-08
1.46874e-09
5.03498e-08
1.45276e-09
5.03472e-08
1.43727e-09
5.03444e-08
1.41977e-09
5.03409e-08
1.39824e-09
5.03361e-08
1.37258e-09
5.03305e-08
1.34465e-09
5.03245e-08
1.31712e-09
5.03189e-08
1.29245e-09
5.03143e-08
1.27215e-09
5.03105e-08
1.25561e-09
5.03067e-08
1.23973e-09
5.03022e-08
1.2207e-09
5.02967e-08
1.19688e-09
5.02904e-08
1.16975e-09
5.02838e-08
1.14192e-09
5.02769e-08
1.11457e-09
5.02697e-08
1.08714e-09
5.02623e-08
1.05883e-09
5.02548e-08
1.02996e-09
5.02475e-08
1.00155e-09
5.02402e-08
9.74287e-10
5.02326e-08
9.47764e-10
5.02243e-08
9.20916e-10
5.02148e-08
8.92564e-10
5.02041e-08
8.62178e-10
5.0192e-08
8.29659e-10
5.01788e-08
7.95463e-10
5.01646e-08
7.59937e-10
5.01498e-08
7.2376e-10
5.01345e-08
6.87314e-10
5.0119e-08
6.51303e-10
5.01032e-08
6.15792e-10
5.00871e-08
5.81142e-10
5.00705e-08
5.47093e-10
5.00533e-08
5.13831e-10
5.00354e-08
4.81078e-10
5.0017e-08
4.48932e-10
4.99979e-08
4.17718e-10
4.99786e-08
3.87627e-10
4.99589e-08
3.59957e-10
4.99394e-08
3.34032e-10
4.99194e-08
3.1186e-10
4.98996e-08
2.90838e-10
4.98793e-08
2.74021e-10
4.98594e-08
2.56417e-10
4.98393e-08
2.43004e-10
4.98203e-08
2.26792e-10
4.98013e-08
2.15789e-10
4.97837e-08
2.00998e-10
4.9766e-08
1.93174e-10
4.97493e-08
1.80118e-10
4.97318e-08
1.75093e-10
4.97152e-08
1.62255e-10
4.96979e-08
1.58289e-10
4.96817e-08
1.44157e-10
4.96653e-08
1.40152e-10
4.96505e-08
1.25571e-10
4.96362e-08
1.22269e-10
4.96227e-08
1.10583e-10
4.96099e-08
1.09465e-10
4.95962e-08
1.03163e-10
4.95828e-08
1.03846e-10
1.01859e-10
5.10071e-08
1.82264e-09
-5.09523e-08
5.10843e-08
1.98563e-09
5.11828e-08
2.1346e-09
5.12993e-08
2.26792e-09
5.14275e-08
2.37717e-09
5.15576e-08
2.454e-09
5.16807e-08
2.49435e-09
5.17908e-08
2.50019e-09
5.18858e-08
2.47843e-09
5.19656e-08
2.43777e-09
5.2031e-08
2.38567e-09
5.20831e-08
2.3277e-09
5.21235e-08
2.26809e-09
5.21543e-08
2.20973e-09
5.21779e-08
2.15454e-09
5.21963e-08
2.10359e-09
5.22108e-08
2.05693e-09
5.22223e-08
2.0137e-09
5.22313e-08
1.97295e-09
5.22381e-08
1.9341e-09
5.22427e-08
1.89681e-09
5.22455e-08
1.86096e-09
5.22467e-08
1.82669e-09
5.22465e-08
1.79438e-09
5.22453e-08
1.76431e-09
5.22437e-08
1.73649e-09
5.2242e-08
1.71074e-09
5.22405e-08
1.6866e-09
5.22392e-08
1.66323e-09
5.22379e-08
1.63967e-09
5.22362e-08
1.61534e-09
5.22338e-08
1.59006e-09
5.22303e-08
1.56401e-09
5.2226e-08
1.53807e-09
5.22211e-08
1.51363e-09
5.22165e-08
1.49179e-09
5.22125e-08
1.47267e-09
5.22097e-08
1.45554e-09
5.2208e-08
1.43901e-09
5.22067e-08
1.42105e-09
5.22051e-08
1.39988e-09
5.22025e-08
1.37521e-09
5.21987e-08
1.34845e-09
5.2194e-08
1.32173e-09
5.21894e-08
1.29708e-09
5.21856e-08
1.27593e-09
5.21831e-08
1.25813e-09
5.21815e-08
1.24134e-09
5.218e-08
1.22221e-09
5.21779e-08
1.19896e-09
5.21751e-08
1.17254e-09
5.21719e-08
1.14516e-09
5.21684e-08
1.11803e-09
5.21648e-08
1.09075e-09
5.21611e-08
1.06259e-09
5.21573e-08
1.03376e-09
5.21536e-08
1.00521e-09
5.21502e-08
9.77678e-10
5.2147e-08
9.50993e-10
5.21436e-08
9.24264e-10
5.21398e-08
8.96442e-10
5.2135e-08
8.66903e-10
5.21292e-08
8.35482e-10
5.21223e-08
8.02417e-10
5.21142e-08
7.67978e-10
5.21053e-08
7.32644e-10
5.20958e-08
6.96838e-10
5.20859e-08
6.61169e-10
5.20758e-08
6.25934e-10
5.20655e-08
5.91433e-10
5.20549e-08
5.57712e-10
5.2044e-08
5.2475e-10
5.20325e-08
4.92581e-10
5.20206e-08
4.60836e-10
5.2008e-08
4.30231e-10
5.19954e-08
4.00319e-10
5.19822e-08
3.73125e-10
5.1969e-08
3.47194e-10
5.19553e-08
3.25582e-10
5.19416e-08
3.04551e-10
5.19272e-08
2.88403e-10
5.19131e-08
2.70572e-10
5.18985e-08
2.57553e-10
5.18848e-08
2.40513e-10
5.18711e-08
2.2948e-10
5.18586e-08
2.13497e-10
5.18459e-08
2.05832e-10
5.18342e-08
1.919e-10
5.18216e-08
1.87662e-10
5.18096e-08
1.74276e-10
5.17967e-08
1.7119e-10
5.17845e-08
1.56281e-10
5.17723e-08
1.52422e-10
5.17611e-08
1.36757e-10
5.17506e-08
1.32719e-10
5.17407e-08
1.20546e-10
5.17316e-08
1.18499e-10
5.17214e-08
1.13403e-10
5.17116e-08
1.13623e-10
1.14461e-10
5.29807e-08
1.77044e-09
-5.29285e-08
5.30516e-08
1.91472e-09
5.31402e-08
2.04598e-09
5.32439e-08
2.16428e-09
5.33578e-08
2.26322e-09
5.3475e-08
2.33677e-09
5.35883e-08
2.38114e-09
5.36917e-08
2.39671e-09
5.37826e-08
2.38754e-09
5.38603e-08
2.36013e-09
5.39251e-08
2.32081e-09
5.39782e-08
2.27464e-09
5.40208e-08
2.22551e-09
5.40544e-08
2.17613e-09
5.40808e-08
2.12815e-09
5.41017e-08
2.08264e-09
5.41185e-08
2.0401e-09
5.41321e-08
2.00016e-09
5.41429e-08
1.96216e-09
5.41513e-08
1.92572e-09
5.41574e-08