/*--------------------------------*- C++ -*----------------------------------*\
| =========                 |                                                 |
| \\      /  F ield         | OpenFOAM: The Open Source CFD Toolbox           |
|  \\    /   O peration     | Version:  2.3.0                                 |
|   \\  /    A nd           | Web:      www.OpenFOAM.org                      |
|    \\/     M anipulation  |                                                 |
\*---------------------------------------------------------------------------*/
FoamFile
{
    version     2.0;
    format      ascii;
    class       volVectorField;
    location    "0.35";
    object      U;
}
// * * * * * * * * * * * * * * * * * * * * * * * * * * * * * * * * * * * * * //

dimensions      [0 1 -1 0 0 0 0];

internalField   nonuniform List<vector> 
3375
(
(0.175683 0.00438503 0)
(0.155202 0.00597335 0)
(0.13663 0.00611687 0)
(0.118508 0.00551798 0)
(0.10099 0.00472073 0)
(0.0849384 0.00383561 0)
(0.0714222 0.00286866 0)
(0.0608439 0.00184883 0)
(0.053003 0.000962857 0)
(0.0473548 0.000363937 0)
(0.0433302 4.56766e-05 0)
(0.0404579 -8.31798e-05 0)
(0.0383593 -0.000106354 0)
(0.0367509 -8.01398e-05 0)
(0.0354316 -3.65629e-05 0)
(0.0342761 5.79927e-06 0)
(0.0332161 3.82452e-05 0)
(0.0322199 5.90519e-05 0)
(0.0312757 6.99508e-05 0)
(0.030382 7.36645e-05 0)
(0.0295407 7.28386e-05 0)
(0.028753 6.9678e-05 0)
(0.0280172 6.56906e-05 0)
(0.0273299 6.15947e-05 0)
(0.026687 5.75799e-05 0)
(0.0260852 5.37074e-05 0)
(0.0255213 5.01062e-05 0)
(0.0249921 4.68977e-05 0)
(0.0244938 4.40727e-05 0)
(0.0240234 4.15082e-05 0)
(0.0235786 3.90855e-05 0)
(0.0231575 3.67854e-05 0)
(0.0227587 3.46656e-05 0)
(0.0223801 3.27736e-05 0)
(0.0220199 3.10926e-05 0)
(0.0216766 2.95543e-05 0)
(0.021349 2.80846e-05 0)
(0.0210365 2.66445e-05 0)
(0.0207384 2.52258e-05 0)
(0.0204544 2.38428e-05 0)
(0.0201838 2.25238e-05 0)
(0.019926 2.1297e-05 0)
(0.0196802 2.01739e-05 0)
(0.0194456 1.9155e-05 0)
(0.0192215 1.82209e-05 0)
(0.0190074 1.73393e-05 0)
(0.0188028 1.64766e-05 0)
(0.0186077 1.56176e-05 0)
(0.0184218 1.476e-05 0)
(0.0182451 1.39209e-05 0)
(0.0180773 1.31151e-05 0)
(0.0179181 1.23517e-05 0)
(0.0177672 1.1624e-05 0)
(0.0176244 1.09318e-05 0)
(0.0174895 1.02713e-05 0)
(0.0173622 9.64709e-06 0)
(0.0172423 9.05055e-06 0)
(0.0171295 8.47739e-06 0)
(0.0170239 7.90967e-06 0)
(0.0169254 7.34639e-06 0)
(0.0168339 6.77869e-06 0)
(0.0167494 6.21595e-06 0)
(0.016672 5.65198e-06 0)
(0.0166014 5.10188e-06 0)
(0.0165379 4.55366e-06 0)
(0.016481 4.01603e-06 0)
(0.016431 3.47132e-06 0)
(0.0163875 2.93218e-06 0)
(0.0163507 2.37032e-06 0)
(0.0163202 1.80562e-06 0)
(0.0162963 1.24781e-06 0)
(0.0162785 7.61418e-07 0)
(0.0162669 3.20026e-07 0)
(0.0162611 -4.71034e-08 0)
(0.0162609 -5.98005e-07 0)
(0.0162654 -9.7616e-07 0)
(0.0162742 -1.35768e-06 0)
(0.0162861 -1.62613e-06 0)
(0.0163006 -1.82522e-06 0)
(0.0163163 -1.91562e-06 0)
(0.0163328 -1.92103e-06 0)
(0.0163491 -1.84689e-06 0)
(0.0163648 -1.7256e-06 0)
(0.0163794 -1.56725e-06 0)
(0.0163929 -1.40427e-06 0)
(0.016405 -1.23697e-06 0)
(0.016416 -1.09063e-06 0)
(0.0164259 -9.5128e-07 0)
(0.0164348 -8.48209e-07 0)
(0.016443 -7.47571e-07 0)
(0.0164504 -6.85155e-07 0)
(0.0164576 -6.12089e-07 0)
(0.0164639 -5.74313e-07 0)
(0.0164704 -5.08306e-07 0)
(0.0164755 -4.76369e-07 0)
(0.0164814 -4.00653e-07 0)
(0.0164851 -3.62878e-07 0)
(0.0164903 -2.79796e-07 0)
(0.0164922 -2.47856e-07 0)
(0.0164973 -2.2171e-07 0)
(0.190905 0.00776065 0)
(0.189162 0.0108441 0)
(0.186701 0.0118879 0)
(0.182872 0.0117128 0)
(0.177408 0.0110788 0)
(0.170526 0.0101874 0)
(0.162872 0.00902933 0)
(0.154944 0.00760544 0)
(0.147127 0.00607774 0)
(0.139644 0.00466763 0)
(0.132623 0.00351276 0)
(0.126159 0.00263944 0)
(0.120298 0.00201298 0)
(0.115047 0.00158569 0)
(0.110359 0.00130429 0)
(0.106166 0.00111963 0)
(0.102394 0.000994167 0)
(0.0989781 0.00090277 0)
(0.0958649 0.000829666 0)
(0.09301 0.000765753 0)
(0.0903796 0.000707014 0)
(0.0879463 0.000652869 0)
(0.0856872 0.000603886 0)
(0.0835827 0.000559953 0)
(0.0816158 0.000520162 0)
(0.079773 0.000483765 0)
(0.0780428 0.000450654 0)
(0.076415 0.00042091 0)
(0.0748798 0.00039426 0)
(0.0734288 0.000370072 0)
(0.0720549 0.000347762 0)
(0.0707525 0.000327105 0)
(0.0695164 0.000308145 0)
(0.0683416 0.000290892 0)
(0.0672234 0.000275146 0)
(0.0661577 0.000260562 0)
(0.0651414 0.000246814 0)
(0.0641717 0.000233721 0)
(0.0632465 0.000221224 0)
(0.0623634 0.000209333 0)
(0.0615206 0.00019809 0)
(0.0607159 0.000187536 0)
(0.0599474 0.00017766 0)
(0.0592131 0.000168422 0)
(0.0585114 0.000159732 0)
(0.0578408 0.000151465 0)
(0.0572004 0.000143496 0)
(0.0565892 0.000135756 0)
(0.0560065 0.000128223 0)
(0.0554516 0.000120937 0)
(0.0549238 0.000113934 0)
(0.0544222 0.00010723 0)
(0.0539461 0.000100788 0)
(0.0534948 9.45958e-05 0)
(0.0530678 8.86278e-05 0)
(0.0526644 8.28891e-05 0)
(0.0522843 7.73432e-05 0)
(0.0519268 7.19699e-05 0)
(0.0515919 6.67053e-05 0)
(0.0512792 6.15439e-05 0)
(0.0509886 5.64547e-05 0)
(0.0507198 5.14691e-05 0)
(0.0504729 4.65669e-05 0)
(0.0502473 4.18015e-05 0)
(0.0500431 3.71383e-05 0)
(0.0498596 3.26157e-05 0)
(0.049697 2.81874e-05 0)
(0.0495544 2.39129e-05 0)
(0.0494318 1.97135e-05 0)
(0.0493283 1.56551e-05 0)
(0.0492439 1.17216e-05 0)
(0.0491772 8.08478e-06 0)
(0.0491279 4.69475e-06 0)
(0.049094 1.69085e-06 0)
(0.0490749 -1.18479e-06 0)
(0.049068 -3.79571e-06 0)
(0.0490721 -5.89144e-06 0)
(0.049084 -7.26383e-06 0)
(0.0491025 -8.16005e-06 0)
(0.0491244 -8.55692e-06 0)
(0.0491491 -8.57966e-06 0)
(0.0491739 -8.25523e-06 0)
(0.0491987 -7.74267e-06 0)
(0.0492219 -7.08771e-06 0)
(0.0492438 -6.43743e-06 0)
(0.0492638 -5.77041e-06 0)
(0.0492822 -5.20588e-06 0)
(0.0492995 -4.66133e-06 0)
(0.0493151 -4.26942e-06 0)
(0.0493305 -3.86686e-06 0)
(0.0493442 -3.62367e-06 0)
(0.0493586 -3.30497e-06 0)
(0.0493706 -3.14227e-06 0)
(0.0493844 -2.82395e-06 0)
(0.0493945 -2.68214e-06 0)
(0.0494077 -2.30075e-06 0)
(0.049415 -2.1523e-06 0)
(0.0494277 -1.71932e-06 0)
(0.0494313 -1.59517e-06 0)
(0.0494441 -1.35354e-06 0)
(0.192002 0.00747408 0)
(0.192428 0.0100971 0)
(0.193501 0.0116544 0)
(0.194572 0.0121408 0)
(0.194996 0.0120324 0)
(0.194467 0.0115926 0)
(0.193008 0.0108521 0)
(0.190749 0.00983274 0)
(0.187851 0.00864612 0)
(0.184476 0.0074608 0)
(0.180771 0.00640895 0)
(0.17688 0.00554205 0)
(0.172924 0.00484797 0)
(0.169 0.00429602 0)
(0.165156 0.00385152 0)
(0.161414 0.00348462 0)
(0.157783 0.0031738 0)
(0.15427 0.00290513 0)
(0.150879 0.00266888 0)
(0.14761 0.00245756 0)
(0.144462 0.00226622 0)
(0.141434 0.00209277 0)
(0.138523 0.00193644 0)
(0.135728 0.00179592 0)
(0.133047 0.00166889 0)
(0.130478 0.00155331 0)
(0.128019 0.0014483 0)
(0.125665 0.00135355 0)
(0.123414 0.00126819 0)
(0.12126 0.00119064 0)
(0.119199 0.00111929 0)
(0.117225 0.00105324 0)
(0.115333 0.000992329 0)
(0.113521 0.000936474 0)
(0.111783 0.000885252 0)
(0.110117 0.000837906 0)
(0.108519 0.000793624 0)
(0.106986 0.000751835 0)
(0.105515 0.000712225 0)
(0.104104 0.000674687 0)
(0.10275 0.000639225 0)
(0.101451 0.000605856 0)
(0.100204 0.000574502 0)
(0.0990076 0.000545016 0)
(0.0978595 0.000517142 0)
(0.096758 0.000490581 0)
(0.095702 0.000465053 0)
(0.09469 0.000440396 0)
(0.0937214 0.000416533 0)
(0.0927949 0.000393511 0)
(0.0919098 0.000371364 0)
(0.0910647 0.000350096 0)
(0.090259 0.000329615 0)
(0.0894917 0.000309871 0)
(0.0887623 0.000290796 0)
(0.0880699 0.000272374 0)
(0.0874142 0.000254519 0)
(0.0867944 0.000237177 0)
(0.0862105 0.000220222 0)
(0.0856615 0.000203635 0)
(0.085148 0.000187356 0)
(0.0846689 0.00017144 0)
(0.0842246 0.000155852 0)
(0.0838142 0.000140689 0)
(0.0834379 0.000125896 0)
(0.0830947 0.000111554 0)
(0.0827848 9.75968e-05 0)
(0.0825068 8.41634e-05 0)
(0.082261 7.11455e-05 0)
(0.0820455 5.86978e-05 0)
(0.0818605 4.67601e-05 0)
(0.0817035 3.56051e-05 0)
(0.0815743 2.51525e-05 0)
(0.0814696 1.57367e-05 0)
(0.0813889 7.4228e-06 0)
(0.0813279 2.40857e-07 0)
(0.0812858 -5.5185e-06 0)
(0.0812574 -1.00278e-05 0)
(0.0812417 -1.31872e-05 0)
(0.0812341 -1.48891e-05 0)
(0.0812337 -1.56004e-05 0)
(0.0812367 -1.54303e-05 0)
(0.0812427 -1.47684e-05 0)
(0.0812496 -1.36879e-05 0)
(0.0812571 -1.26043e-05 0)
(0.0812648 -1.14364e-05 0)
(0.081272 -1.05018e-05 0)
(0.08128 -9.55879e-06 0)
(0.0812868 -8.95966e-06 0)
(0.0812956 -8.26964e-06 0)
(0.0813025 -7.94481e-06 0)
(0.0813125 -7.37076e-06 0)
(0.0813194 -7.17656e-06 0)
(0.0813309 -6.53487e-06 0)
(0.0813372 -6.35941e-06 0)
(0.0813498 -5.53457e-06 0)
(0.0813545 -5.31946e-06 0)
(0.0813678 -4.37181e-06 0)
(0.0813701 -4.13346e-06 0)
(0.0813837 -3.48123e-06 0)
(0.193038 0.0070475 0)
(0.193416 0.00894719 0)
(0.194493 0.010432 0)
(0.196068 0.0111604 0)
(0.197655 0.0112987 0)
(0.198893 0.0110797 0)
(0.199637 0.0106029 0)
(0.199865 0.00990944 0)
(0.199599 0.00906657 0)
(0.198881 0.00818245 0)
(0.197772 0.00736108 0)
(0.196359 0.00666021 0)
(0.194731 0.00608721 0)
(0.192962 0.00561929 0)
(0.191097 0.00522902 0)
(0.189161 0.00489381 0)
(0.187165 0.00459775 0)
(0.185121 0.00433065 0)
(0.183038 0.00408551 0)
(0.180927 0.00385724 0)
(0.178794 0.00364327 0)
(0.176649 0.00344326 0)
(0.174497 0.00325722 0)
(0.172343 0.00308383 0)
(0.170194 0.00292072 0)
(0.168052 0.00276596 0)
(0.165924 0.00261907 0)
(0.163818 0.00248066 0)
(0.161741 0.00235117 0)
(0.159699 0.00223026 0)
(0.157697 0.00211699 0)
(0.155736 0.00201057 0)
(0.153815 0.00191054 0)
(0.151932 0.00181655 0)
(0.15009 0.00172802 0)
(0.148288 0.00164428 0)
(0.146529 0.00156473 0)
(0.144816 0.00148906 0)
(0.143149 0.00141706 0)
(0.14153 0.00134858 0)
(0.139958 0.00128346 0)
(0.138432 0.00122156 0)
(0.136951 0.00116273 0)
(0.135513 0.0011068 0)
(0.134119 0.0010535 0)
(0.132767 0.00100245 0)
(0.13146 0.000953255 0)
(0.130197 0.000905667 0)
(0.128978 0.000859549 0)
(0.127803 0.000814946 0)
(0.126671 0.000771887 0)
(0.125581 0.00073034 0)
(0.124534 0.000690138 0)
(0.123528 0.000651194 0)
(0.122564 0.00061341 0)
(0.121641 0.000576777 0)
(0.12076 0.000541172 0)
(0.11992 0.000506513 0)
(0.119122 0.000472601 0)
(0.118364 0.000439399 0)
(0.117649 0.000406811 0)
(0.116974 0.000374911 0)
(0.11634 0.000343645 0)
(0.115747 0.000313165 0)
(0.115195 0.000283394 0)
(0.114683 0.000254466 0)
(0.114211 0.000226295 0)
(0.113779 0.000199121 0)
(0.113385 0.000172802 0)
(0.113029 0.000147603 0)
(0.112712 0.000123466 0)
(0.112429 0.000100864 0)
(0.112181 7.97044e-05 0)
(0.111965 6.04381e-05 0)
(0.11178 4.30768e-05 0)
(0.111622 2.84179e-05 0)
(0.11149 1.61801e-05 0)
(0.111378 6.24309e-06 0)
(0.111286 -1.40843e-06 0)
(0.111209 -6.48516e-06 0)
(0.111146 -9.69654e-06 0)
(0.111092 -1.11837e-05 0)
(0.111046 -1.18202e-05 0)
(0.111007 -1.16411e-05 0)
(0.110972 -1.12141e-05 0)
(0.110942 -1.03975e-05 0)
(0.110915 -9.87794e-06 0)
(0.110892 -9.17259e-06 0)
(0.11087 -8.99984e-06 0)
(0.110853 -8.54747e-06 0)
(0.110836 -8.68587e-06 0)
(0.110825 -8.30795e-06 0)
(0.110812 -8.55357e-06 0)
(0.110806 -7.99421e-06 0)
(0.110797 -8.15495e-06 0)
(0.110794 -7.27706e-06 0)
(0.110788 -7.23367e-06 0)
(0.110788 -6.15997e-06 0)
(0.110785 -5.93078e-06 0)
(0.110784 -5.10447e-06 0)
(0.193901 0.00674934 0)
(0.19425 0.00819651 0)
(0.195096 0.00947958 0)
(0.196415 0.0102627 0)
(0.197925 0.010518 0)
(0.199328 0.0104 0)
(0.200466 0.0100405 0)
(0.201293 0.00951109 0)
(0.201812 0.00886494 0)
(0.202035 0.00817156 0)
(0.201985 0.00750638 0)
(0.201707 0.00692232 0)
(0.201259 0.00643713 0)
(0.200693 0.00604013 0)
(0.200043 0.00571053 0)
(0.199324 0.00542897 0)
(0.198542 0.00518098 0)
(0.197699 0.00495667 0)
(0.196797 0.00474906 0)
(0.195838 0.00455332 0)
(0.194825 0.00436733 0)
(0.193764 0.00419125 0)
(0.192657 0.00402567 0)
(0.191508 0.00386997 0)
(0.190316 0.00372235 0)
(0.189084 0.00358071 0)
(0.18781 0.00344344 0)
(0.1865 0.00330975 0)
(0.185159 0.00317946 0)
(0.183798 0.00305285 0)
(0.182425 0.00293065 0)
(0.181045 0.00281398 0)
(0.179661 0.00270375 0)
(0.178275 0.00259988 0)
(0.176883 0.00250108 0)
(0.175485 0.00240545 0)
(0.174082 0.0023115 0)
(0.172679 0.00221878 0)
(0.171282 0.0021278 0)
(0.1699 0.00203958 0)
(0.168536 0.00195501 0)
(0.167192 0.00187444 0)
(0.165868 0.00179753 0)
(0.16456 0.00172359 0)
(0.163268 0.00165181 0)
(0.161993 0.00158158 0)
(0.160739 0.00151261 0)
(0.159509 0.00144494 0)
(0.158306 0.00137877 0)
(0.157133 0.00131437 0)
(0.15599 0.00125189 0)
(0.154877 0.00119127 0)
(0.153793 0.00113223 0)
(0.15274 0.00107457 0)
(0.151719 0.00101813 0)
(0.150728 0.000962879 0)
(0.149771 0.000908709 0)
(0.148846 0.000855582 0)
(0.147957 0.000803308 0)
(0.147104 0.000751908 0)
(0.146288 0.000701308 0)
(0.145509 0.000651645 0)
(0.144769 0.000602842 0)
(0.144066 0.0005551 0)
(0.143402 0.000508309 0)
(0.142775 0.000462656 0)
(0.142187 0.000418012 0)
(0.141636 0.00037473 0)
(0.141124 0.000332651 0)
(0.140649 0.000292188 0)
(0.140212 0.000253275 0)
(0.13981 0.000216585 0)
(0.139446 0.000182006 0)
(0.139114 0.00015026 0)
(0.138816 0.000121281 0)
(0.138548 9.59468e-05 0)
(0.138309 7.38865e-05 0)
(0.138095 5.58931e-05 0)
(0.137905 4.12264e-05 0)
(0.137735 3.01451e-05 0)
(0.137584 2.17848e-05 0)
(0.137448 1.61552e-05 0)
(0.137327 1.19898e-05 0)
(0.137218 9.33782e-06 0)
(0.137118 7.29134e-06 0)
(0.137029 6.12861e-06 0)
(0.136947 4.81239e-06 0)
(0.136873 3.98853e-06 0)
(0.136804 2.65093e-06 0)
(0.136743 1.79903e-06 0)
(0.136687 3.62472e-07 0)
(0.136636 -4.15348e-07 0)
(0.136592 -1.72491e-06 0)
(0.136549 -2.19184e-06 0)
(0.136516 -3.13274e-06 0)
(0.136479 -3.15972e-06 0)
(0.136456 -3.58124e-06 0)
(0.136421 -3.35827e-06 0)
(0.136409 -3.32983e-06 0)
(0.136374 -3.28892e-06 0)
(0.194621 0.00651352 0)
(0.194958 0.00768259 0)
(0.195656 0.00876423 0)
(0.196722 0.00952056 0)
(0.197998 0.0098463 0)
(0.199262 0.00981092 0)
(0.200359 0.00953521 0)
(0.201233 0.00910766 0)
(0.201881 0.00858343 0)
(0.202318 0.00801214 0)
(0.202563 0.00744826 0)
(0.202645 0.00693744 0)
(0.202606 0.00650247 0)
(0.202486 0.00614264 0)
(0.202317 0.00584427 0)
(0.202111 0.00559152 0)
(0.201875 0.0053712 0)
(0.201608 0.00517353 0)
(0.201308 0.00499136 0)
(0.200973 0.00481974 0)
(0.200603 0.0046563 0)
(0.200199 0.00450122 0)
(0.199762 0.00435562 0)
(0.199294 0.00421992 0)
(0.198793 0.00409322 0)
(0.198256 0.0039736 0)
(0.19768 0.00385865 0)
(0.197062 0.00374592 0)
(0.196404 0.00363359 0)
(0.19571 0.00352093 0)
(0.194988 0.00340861 0)
(0.194242 0.00329867 0)
(0.19348 0.00319373 0)
(0.192702 0.00309557 0)
(0.191906 0.00300399 0)
(0.191087 0.00291686 0)
(0.190241 0.00283105 0)
(0.189367 0.00274393 0)
(0.188468 0.00265436 0)
(0.187554 0.00256316 0)
(0.186634 0.00247271 0)
(0.185714 0.00238557 0)
(0.184796 0.00230322 0)
(0.183878 0.00222548 0)
(0.182955 0.00215061 0)
(0.182023 0.00207639 0)
(0.181083 0.00200121 0)
(0.18014 0.00192486 0)
(0.1792 0.00184817 0)
(0.17827 0.0017724 0)
(0.177351 0.00169836 0)
(0.176444 0.00162623 0)
(0.17555 0.00155563 0)
(0.174669 0.0014863 0)
(0.173801 0.00141801 0)
(0.172948 0.00135064 0)
(0.172109 0.00128387 0)
(0.171286 0.00121752 0)
(0.170481 0.00115131 0)
(0.169696 0.00108538 0)
(0.168935 0.00101983 0)
(0.168198 0.00095508 0)
(0.167489 0.000891179 0)
(0.166806 0.000828476 0)
(0.166152 0.00076684 0)
(0.165524 0.000706503 0)
(0.164925 0.000647225 0)
(0.164354 0.000589409 0)
(0.163811 0.000532818 0)
(0.163296 0.000478019 0)
(0.162812 0.000424894 0)
(0.162356 0.000374373 0)
(0.16193 0.000326325 0)
(0.161532 0.000281757 0)
(0.161164 0.000240479 0)
(0.160822 0.00020375 0)
(0.160507 0.000171129 0)
(0.160215 0.000143485 0)
(0.159948 0.000119834 0)
(0.1597 0.000100751 0)
(0.159473 8.50729e-05 0)
(0.159264 7.29831e-05 0)
(0.159072 6.31832e-05 0)
(0.158894 5.57712e-05 0)
(0.158731 4.94591e-05 0)
(0.158579 4.44419e-05 0)
(0.15844 3.97506e-05 0)
(0.158309 3.57089e-05 0)
(0.158192 3.16515e-05 0)
(0.158078 2.79614e-05 0)
(0.157981 2.43407e-05 0)
(0.157881 2.09712e-05 0)
(0.157803 1.80181e-05 0)
(0.157712 1.51482e-05 0)
(0.157654 1.31288e-05 0)
(0.157568 1.08228e-05 0)
(0.157528 9.83258e-06 0)
(0.157443 7.84123e-06 0)
(0.157423 7.62944e-06 0)
(0.157334 5.64185e-06 0)
(0.19524 0.0063038 0)
(0.195563 0.00727584 0)
(0.196158 0.00818174 0)
(0.197032 0.00886575 0)
(0.198093 0.00922109 0)
(0.199187 0.00925793 0)
(0.20018 0.00906173 0)
(0.201001 0.00871878 0)
(0.201637 0.00828764 0)
(0.202099 0.00781048 0)
(0.202407 0.00732808 0)
(0.202586 0.00687744 0)
(0.202666 0.00648184 0)
(0.202683 0.00614708 0)
(0.202662 0.00586645 0)
(0.202621 0.00562833 0)
(0.202567 0.00542123 0)
(0.202501 0.00523588 0)
(0.202421 0.00506539 0)
(0.202327 0.00490489 0)
(0.202216 0.00475197 0)
(0.20209 0.00460678 0)
(0.201948 0.00447079 0)
(0.201791 0.00434506 0)
(0.201621 0.00422951 0)
(0.201432 0.00412289 0)
(0.201223 0.00402291 0)
(0.20099 0.00392643 0)
(0.200729 0.00383024 0)
(0.200443 0.0037321 0)
(0.200133 0.00363149 0)
(0.199804 0.00353015 0)
(0.199462 0.00343154 0)
(0.199109 0.00333936 0)
(0.198744 0.00325557 0)
(0.198365 0.00317924 0)
(0.197963 0.00310687 0)
(0.197533 0.00303392 0)
(0.197073 0.0029565 0)
(0.196587 0.00287323 0)
(0.196083 0.00278593 0)
(0.195571 0.00269867 0)
(0.195056 0.00261562 0)
(0.19454 0.00253916 0)
(0.194016 0.00246865 0)
(0.193477 0.00240083 0)
(0.192918 0.00233162 0)
(0.192339 0.00225846 0)
(0.191746 0.00218149 0)
(0.191147 0.00210304 0)
(0.190547 0.00202538 0)
(0.189948 0.00194949 0)
(0.189349 0.00187498 0)
(0.18875 0.00180147 0)
(0.188154 0.00172883 0)
(0.187558 0.00165719 0)
(0.186964 0.00158615 0)
(0.18637 0.00151512 0)
(0.185778 0.00144327 0)
(0.185188 0.00137043 0)
(0.184605 0.00129669 0)
(0.184031 0.00122279 0)
(0.18347 0.00114914 0)
(0.182923 0.00107646 0)
(0.182391 0.00100483 0)
(0.181875 0.000934659 0)
(0.181375 0.00086563 0)
(0.180889 0.000798147 0)
(0.18042 0.000731748 0)
(0.179965 0.000667047 0)
(0.179528 0.000603751 0)
(0.179106 0.000542983 0)
(0.178704 0.000484504 0)
(0.178319 0.000429706 0)
(0.177956 0.00037837 0)
(0.177609 0.000332084 0)
(0.177284 0.000290194 0)
(0.176975 0.000253826 0)
(0.176685 0.000221886 0)
(0.176411 0.0001951 0)
(0.176155 0.000172242 0)
(0.175912 0.000153463 0)
(0.175687 0.000137564 0)
(0.175472 0.000124255 0)
(0.175276 0.000112868 0)
(0.175085 0.000102764 0)
(0.174915 9.39912e-05 0)
(0.174744 8.54226e-05 0)
(0.174598 7.80491e-05 0)
(0.174442 7.01205e-05 0)
(0.174321 6.38515e-05 0)
(0.174177 5.64338e-05 0)
(0.17408 5.15702e-05 0)
(0.173945 4.48881e-05 0)
(0.173874 4.18037e-05 0)
(0.173741 3.59749e-05 0)
(0.173694 3.46031e-05 0)
(0.173558 2.93638e-05 0)
(0.173535 2.90449e-05 0)
(0.173392 2.41384e-05 0)
(0.19578 0.00610619 0)
(0.196085 0.00692428 0)
(0.1966 0.00768385 0)
(0.197327 0.008283 0)
(0.198211 0.00863713 0)
(0.199148 0.0087285 0)
(0.20003 0.00860557 0)
(0.200785 0.00833903 0)
(0.201386 0.00798631 0)
(0.201839 0.00758761 0)
(0.20216 0.00717646 0)
(0.202369 0.00678217 0)
(0.202492 0.00642539 0)
(0.202556 0.00611524 0)
(0.202585 0.00585055 0)
(0.202594 0.00562368 0)
(0.202594 0.00542512 0)
(0.202587 0.00524663 0)
(0.202575 0.00508199 0)
(0.202556 0.00492683 0)
(0.202529 0.0047789 0)
(0.202493 0.00463821 0)
(0.202451 0.0045061 0)
(0.202402 0.00438394 0)
(0.202348 0.00427229 0)
(0.202289 0.00417066 0)
(0.202222 0.00407728 0)
(0.202145 0.00398901 0)
(0.202056 0.00390195 0)
(0.201954 0.00381276 0)
(0.201839 0.00371991 0)
(0.201711 0.0036243 0)
(0.201576 0.00352926 0)
(0.201436 0.00343941 0)
(0.201294 0.00335853 0)
(0.201146 0.00328747 0)
(0.20099 0.00322365 0)
(0.200817 0.00316204 0)
(0.200624 0.00309677 0)
(0.20041 0.00302371 0)
(0.200178 0.00294261 0)
(0.199936 0.00285733 0)
(0.199691 0.00277383 0)
(0.199448 0.00269732 0)
(0.199204 0.00262974 0)
(0.198951 0.00256884 0)
(0.198683 0.00250903 0)
(0.198393 0.00244463 0)
(0.198084 0.00237326 0)
(0.197764 0.00229706 0)
(0.197438 0.0022199 0)
(0.197109 0.00214427 0)
(0.196777 0.00207012 0)
(0.196439 0.00199668 0)
(0.196099 0.00192373 0)
(0.195756 0.00185193 0)
(0.195411 0.00178136 0)
(0.195059 0.00171136 0)
(0.194702 0.00164044 0)
(0.194336 0.00156764 0)
(0.193966 0.00149254 0)
(0.193594 0.00141583 0)
(0.193223 0.00133816 0)
(0.192855 0.00126073 0)
(0.192493 0.00118395 0)
(0.192137 0.00110864 0)
(0.191788 0.00103464 0)
(0.191444 0.000962455 0)
(0.191107 0.000891426 0)
(0.190774 0.000822123 0)
(0.190447 0.00075392 0)
(0.190125 0.00068795 0)
(0.189811 0.00062376 0)
(0.189503 0.000563005 0)
(0.189207 0.000505396 0)
(0.188918 0.000452793 0)
(0.188643 0.000404603 0)
(0.188375 0.000362131 0)
(0.188122 0.00032441 0)
(0.187874 0.00029192 0)
(0.187642 0.000263755 0)
(0.187415 0.000239358 0)
(0.187205 0.000218504 0)
(0.186996 0.000199742 0)
(0.186811 0.000184136 0)
(0.186619 0.000169049 0)
(0.186456 0.000156947 0)
(0.186276 0.000143743 0)
(0.186135 0.000133704 0)
(0.185964 0.000121145 0)
(0.185846 0.00011269 0)
(0.185681 0.000100516 0)
(0.185589 9.40444e-05 0)
(0.185429 8.27578e-05 0)
(0.185364 7.89012e-05 0)
(0.185203 6.90723e-05 0)
(0.185163 6.76685e-05 0)
(0.184997 5.91498e-05 0)
(0.184978 5.89947e-05 0)
(0.184802 5.12636e-05 0)
(0.196254 0.00591585 0)
(0.196539 0.00660905 0)
(0.196988 0.00724983 0)
(0.197601 0.00776938 0)
(0.198342 0.00810561 0)
(0.199141 0.00823282 0)
(0.199916 0.00817216 0)
(0.200602 0.00797418 0)
(0.201165 0.00769025 0)
(0.201601 0.00735933 0)
(0.201923 0.00701099 0)
(0.202147 0.00666915 0)
(0.202293 0.00635129 0)
(0.202382 0.00606737 0)
(0.202436 0.00581961 0)
(0.202468 0.00560382 0)
(0.202489 0.0054129 0)
(0.202504 0.0052401 0)
(0.202514 0.00508009 0)
(0.202518 0.00492905 0)
(0.202517 0.00478493 0)
(0.202509 0.00464747 0)
(0.202495 0.00451774 0)
(0.202477 0.00439723 0)
(0.202457 0.00428694 0)
(0.202434 0.00418679 0)
(0.20241 0.00409539 0)
(0.202383 0.00400989 0)
(0.202353 0.00392648 0)
(0.202318 0.00384153 0)
(0.202276 0.00375292 0)
(0.202228 0.00366077 0)
(0.202174 0.00356767 0)
(0.202118 0.0034782 0)
(0.202062 0.00339709 0)
(0.202007 0.00332666 0)
(0.201951 0.00326556 0)
(0.20189 0.00320931 0)
(0.201821 0.00315146 0)
(0.20174 0.00308603 0)
(0.201647 0.00301055 0)
(0.201545 0.00292768 0)
(0.20144 0.0028437 0)
(0.201337 0.00276548 0)
(0.201237 0.00269742 0)
(0.201137 0.0026394 0)
(0.201031 0.00258616 0)
(0.200911 0.00252987 0)
(0.200777 0.00246513 0)
(0.200631 0.00239256 0)
(0.20048 0.00231689 0)
(0.200326 0.00224234 0)
(0.200169 0.0021696 0)
(0.200007 0.00209747 0)
(0.199842 0.0020253 0)
(0.199675 0.00195408 0)
(0.199506 0.00188473 0)
(0.199333 0.0018171 0)
(0.199154 0.00174939 0)
(0.198965 0.00167988 0)
(0.198768 0.0016073 0)
(0.198564 0.00153192 0)
(0.198355 0.00145432 0)
(0.198143 0.00137595 0)
(0.197931 0.00129751 0)
(0.197719 0.00122026 0)
(0.19751 0.00114433 0)
(0.197301 0.00107053 0)
(0.197095 0.000998194 0)
(0.196886 0.000927858 0)
(0.196679 0.000858616 0)
(0.196468 0.000791466 0)
(0.19626 0.00072567 0)
(0.19605 0.000662796 0)
(0.195845 0.000602553 0)
(0.195639 0.000546878 0)
(0.195442 0.000495573 0)
(0.195243 0.00044974 0)
(0.195057 0.000409013 0)
(0.194867 0.000373032 0)
(0.194691 0.000341948 0)
(0.194509 0.000313693 0)
(0.194348 0.000289909 0)
(0.194174 0.000266914 0)
(0.19403 0.000248654 0)
(0.193865 0.000229449 0)
(0.193739 0.000215467 0)
(0.193579 0.000198446 0)
(0.193469 0.000187162 0)
(0.19331 0.000170633 0)
(0.193218 0.000161144 0)
(0.193059 0.000144525 0)
(0.192989 0.000137108 0)
(0.19283 0.000121271 0)
(0.192785 0.000116874 0)
(0.192624 0.000103363 0)
(0.192602 0.000102063 0)
(0.192433 9.12551e-05 0)
(0.192425 9.14276e-05 0)
(0.192247 8.2341e-05 0)
(0.196672 0.00573224 0)
(0.196936 0.00632331 0)
(0.19733 0.00686869 0)
(0.197853 0.0073194 0)
(0.19848 0.00763048 0)
(0.19916 0.00777739 0)
(0.199836 0.00776555 0)
(0.200453 0.00762732 0)
(0.200974 0.00740473 0)
(0.201391 0.00713346 0)
(0.201709 0.00684026 0)
(0.20194 0.00654591 0)
(0.2021 0.00626566 0)
(0.202209 0.00600874 0)
(0.202281 0.00577887 0)
(0.20233 0.00557487 0)
(0.202365 0.00539223 0)
(0.202391 0.00522566 0)
(0.202413 0.00507065 0)
(0.202428 0.00492395 0)
(0.202437 0.00478375 0)
(0.20244 0.00464974 0)
(0.202436 0.00452276 0)
(0.202427 0.00440419 0)
(0.202416 0.00429505 0)
(0.202403 0.00419541 0)
(0.20239 0.00410413 0)
(0.202376 0.0040189 0)
(0.202363 0.00393631 0)
(0.202349 0.00385298 0)
(0.202332 0.00376663 0)
(0.202311 0.00367686 0)
(0.202286 0.00358546 0)
(0.202257 0.00349647 0)
(0.202228 0.00341472 0)
(0.202201 0.00334316 0)
(0.202175 0.00328139 0)
(0.202152 0.00322585 0)
(0.202128 0.0031706 0)
(0.2021 0.00310915 0)
(0.202066 0.0030376 0)
(0.202025 0.0029572 0)
(0.201981 0.00287361 0)
(0.201936 0.00279396 0)
(0.201893 0.00272387 0)
(0.201855 0.00266519 0)
(0.201817 0.00261415 0)
(0.201775 0.00256248 0)
(0.201725 0.00250262 0)
(0.201667 0.00243327 0)
(0.201606 0.00235901 0)
(0.201541 0.00228524 0)
(0.201475 0.00221354 0)
(0.201406 0.00214253 0)
(0.201336 0.00207097 0)
(0.201264 0.00199989 0)
(0.201192 0.00193092 0)
(0.201118 0.00186465 0)
(0.201042 0.0017995 0)
(0.20096 0.00173329 0)
(0.200871 0.00166407 0)
(0.200774 0.0015915 0)
(0.200672 0.0015159 0)
(0.200564 0.00143864 0)
(0.200454 0.00136057 0)
(0.20034 0.00128315 0)
(0.200227 0.00120682 0)
(0.200112 0.00113273 0)
(0.199998 0.0010604 0)
(0.199881 0.000990429 0)
(0.199764 0.000921848 0)
(0.199641 0.000855417 0)
(0.19952 0.000790241 0)
(0.199391 0.000727489 0)
(0.199266 0.000667041 0)
(0.199133 0.000610481 0)
(0.199009 0.000558329 0)
(0.198877 0.000511009 0)
(0.198757 0.000469339 0)
(0.198625 0.000431591 0)
(0.198509 0.000399646 0)
(0.198377 0.000369153 0)
(0.198269 0.000344231 0)
(0.198139 0.000318214 0)
(0.198043 0.000298641 0)
(0.197916 0.00027624 0)
(0.197833 0.000261595 0)
(0.197706 0.000241776 0)
(0.197636 0.000230572 0)
(0.197504 0.000211189 0)
(0.197447 0.000201835 0)
(0.197309 0.000181726 0)
(0.197269 0.000173993 0)
(0.197127 0.000154359 0)
(0.197108 0.00014941 0)
(0.196964 0.000133118 0)
(0.196962 0.000131654 0)
(0.196814 0.000120053 0)
(0.196818 0.000120432 0)
(0.196663 0.000112063 0)
(0.197042 0.00555592 0)
(0.197286 0.00606361 0)
(0.197634 0.00653184 0)
(0.198084 0.00692451 0)
(0.198617 0.00720845 0)
(0.199199 0.00736325 0)
(0.199786 0.00738722 0)
(0.200335 0.00729913 0)
(0.200813 0.00713039 0)
(0.201207 0.00691152 0)
(0.201516 0.00666665 0)
(0.20175 0.00641483 0)
(0.201921 0.00616985 0)
(0.202043 0.00593977 0)
(0.20213 0.00572873 0)
(0.202192 0.0055377 0)
(0.202238 0.00536441 0)
(0.202275 0.00520486 0)
(0.202304 0.00505539 0)
(0.202327 0.00491351 0)
(0.202343 0.00477779 0)
(0.202352 0.00464792 0)
(0.202354 0.00452452 0)
(0.202351 0.00440862 0)
(0.202344 0.00430103 0)
(0.202335 0.00420186 0)
(0.202325 0.00411035 0)
(0.202316 0.00402464 0)
(0.202308 0.00394178 0)
(0.2023 0.00385879 0)
(0.202291 0.0037737 0)
(0.20228 0.00368592 0)
(0.202265 0.00359656 0)
(0.202245 0.00350891 0)
(0.202224 0.00342728 0)
(0.202202 0.0033546 0)
(0.202184 0.00329092 0)
(0.202169 0.00323361 0)
(0.202158 0.0031778 0)
(0.202148 0.00311746 0)
(0.202136 0.0030482 0)
(0.202119 0.00297024 0)
(0.202098 0.00288824 0)
(0.202074 0.00280859 0)
(0.20205 0.00273688 0)
(0.202029 0.00267604 0)
(0.202013 0.002624 0)
(0.201998 0.00257339 0)
(0.201982 0.00251598 0)
(0.201962 0.00244893 0)
(0.201938 0.00237598 0)
(0.201912 0.00230281 0)
(0.201885 0.0022317 0)
(0.201856 0.00216133 0)
(0.201827 0.00209013 0)
(0.201796 0.00201888 0)
(0.201767 0.00194958 0)
(0.201738 0.00188344 0)
(0.201709 0.00181935 0)
(0.201677 0.00175509 0)
(0.201642 0.0016884 0)
(0.201601 0.00161847 0)
(0.201556 0.00154528 0)
(0.201504 0.00146995 0)
(0.20145 0.00139325 0)
(0.20139 0.0013166 0)
(0.201331 0.00124065 0)
(0.201267 0.00116672 0)
(0.201206 0.00109468 0)
(0.201141 0.00102518 0)
(0.201077 0.000957481 0)
(0.201007 0.00089203 0)
(0.20094 0.000828092 0)
(0.200863 0.000766205 0)
(0.200792 0.000706617 0)
(0.20071 0.000650113 0)
(0.200637 0.000598235 0)
(0.200552 0.000550373 0)
(0.20048 0.000508969 0)
(0.200391 0.000470513 0)
(0.20032 0.000438954 0)
(0.200228 0.000407269 0)
(0.200161 0.000382298 0)
(0.200066 0.000354132 0)
(0.200008 0.000334025 0)
(0.199913 0.00030909 0)
(0.199867 0.00029441 0)
(0.19977 0.000272553 0)
(0.199734 0.000262193 0)
(0.19963 0.000240967 0)
(0.199602 0.000232509 0)
(0.199489 0.000209997 0)
(0.199473 0.00020231 0)
(0.199356 0.000179862 0)
(0.199356 0.000174123 0)
(0.199238 0.00015603 0)
(0.199251 0.000153837 0)
(0.199132 0.000142792 0)
(0.199145 0.000142987 0)
(0.199021 0.000137176 0)
(0.197372 0.00538758 0)
(0.197597 0.00582689 0)
(0.197904 0.00623195 0)
(0.198294 0.00657587 0)
(0.198751 0.0068336 0)
(0.19925 0.00698883 0)
(0.199759 0.00703752 0)
(0.200244 0.00698952 0)
(0.200679 0.00686653 0)
(0.201047 0.00669342 0)
(0.201345 0.00649152 0)
(0.201578 0.00627801 0)
(0.201754 0.00606545 0)
(0.201885 0.0058613 0)
(0.201984 0.00566969 0)
(0.202057 0.00549263 0)
(0.202114 0.00532949 0)
(0.202158 0.00517764 0)
(0.202194 0.00503446 0)
(0.202223 0.0048982 0)
(0.202244 0.00476773 0)
(0.202259 0.0046426 0)
(0.202266 0.00452325 0)
(0.202267 0.00441049 0)
(0.202264 0.00430493 0)
(0.202258 0.00420666 0)
(0.202251 0.00411513 0)
(0.202244 0.0040289 0)
(0.202239 0.00394549 0)
(0.202234 0.00386238 0)
(0.202229 0.00377811 0)
(0.202221 0.00369219 0)
(0.20221 0.00360517 0)
(0.202194 0.00351945 0)
(0.202176 0.00343865 0)
(0.202156 0.00336536 0)
(0.202139 0.0032997 0)
(0.202126 0.00323976 0)
(0.202118 0.00318182 0)
(0.202112 0.00312087 0)
(0.202108 0.00305271 0)
(0.2021 0.002977 0)
(0.202087 0.00289738 0)
(0.20207 0.00281908 0)
(0.202051 0.00274688 0)
(0.202034 0.00268388 0)
(0.202022 0.0026293 0)
(0.202015 0.00257731 0)
(0.20201 0.0025203 0)
(0.202003 0.00245471 0)
(0.201994 0.00238314 0)
(0.201981 0.00231073 0)
(0.201969 0.00224 0)
(0.201955 0.00216995 0)
(0.201941 0.00209899 0)
(0.201925 0.00202764 0)
(0.201911 0.00195791 0)
(0.201897 0.00189124 0)
(0.201885 0.00182703 0)
(0.201872 0.00176337 0)
(0.201859 0.00169805 0)
(0.201842 0.00163 0)
(0.201823 0.00155899 0)
(0.201797 0.00148573 0)
(0.201769 0.00141086 0)
(0.201735 0.00133551 0)
(0.2017 0.00126044 0)
(0.201661 0.0011869 0)
(0.201624 0.00111519 0)
(0.201582 0.00104591 0)
(0.201545 0.000978777 0)
(0.2015 0.000913924 0)
(0.201461 0.000851061 0)
(0.201411 0.00078993 0)
(0.201368 0.00073135 0)
(0.201314 0.000675059 0)
(0.20127 0.00062384 0)
(0.201212 0.000575814 0)
(0.201168 0.000535188 0)
(0.201105 0.000496504 0)
(0.201062 0.000465846 0)
(0.200993 0.000433514 0)
(0.200952 0.000408973 0)
(0.20088 0.000379185 0)
(0.200846 0.000358854 0)
(0.200774 0.000331772 0)
(0.20075 0.000317221 0)
(0.200675 0.000293753 0)