/*--------------------------------*- C++ -*----------------------------------*\
| =========                 |                                                 |
| \\      /  F ield         | OpenFOAM: The Open Source CFD Toolbox           |
|  \\    /   O peration     | Version:  2.3.0                                 |
|   \\  /    A nd           | Web:      www.OpenFOAM.org                      |
|    \\/     M anipulation  |                                                 |
\*---------------------------------------------------------------------------*/
FoamFile
{
    version     2.0;
    format      ascii;
    class       volScalarField;
    location    "0.5";
    object      p;
}
// * * * * * * * * * * * * * * * * * * * * * * * * * * * * * * * * * * * * * //

dimensions      [0 2 -2 0 0 0 0];

internalField   nonuniform List<scalar> 
2250
(
0.0015805
0.00129909
0.001069
0.000916858
0.000801452
0.000697584
0.000599358
0.000506402
0.000418077
0.000333449
0.000251969
0.000173545
9.83628e-05
2.67459e-05
-4.09058e-05
-0.000104153
-0.000162552
-0.000215693
-0.000263225
-0.000304888
-0.000340529
-0.000370115
-0.000393736
-0.000411604
-0.00042404
-0.000431461
-0.000434357
-0.000433269
-0.000428765
-0.000421417
-0.00041178
-0.000400379
-0.000387691
-0.00037414
-0.000360091
-0.000345851
-0.000331669
-0.000317737
-0.000304205
-0.000291175
-0.000278717
-0.000266871
-0.000255653
-0.000245064
-0.00023509
-0.000225708
-0.00021689
-0.000208604
-0.000200819
-0.000193502
-0.000186621
-0.000180149
-0.000174057
-0.000168323
-0.000162922
-0.000157835
-0.000153044
-0.000148533
-0.000144285
-0.000140288
-0.000136529
-0.000132995
-0.000129674
-0.000126554
-0.000123626
-0.000120877
-0.000118296
-0.000115872
-0.000113592
-0.000111446
-0.000109419
-0.0001075
-0.000105674
-0.000103928
-0.000102247
-0.000100615
-9.90154e-05
-9.74312e-05
-9.5844e-05
-9.42345e-05
-9.2582e-05
-9.08649e-05
-8.90598e-05
-8.71421e-05
-8.50853e-05
-8.28611e-05
-8.04392e-05
-7.77868e-05
-7.4868e-05
-7.16442e-05
-6.80726e-05
-6.41063e-05
-5.96927e-05
-5.47731e-05
-4.92801e-05
-4.31347e-05
-3.62385e-05
-2.8456e-05
-1.95892e-05
-9.75026e-06
0.00128976
0.00113767
0.000992196
0.000878841
0.000782731
0.000690993
0.00060095
0.000513353
0.00042853
0.000346269
0.000266443
0.000189198
0.000114853
4.38182e-05
-2.34544e-05
-8.6493e-05
-0.000144833
-0.000198048
-0.000245777
-0.000287745
-0.00032379
-0.000353866
-0.000378048
-0.000396537
-0.00040964
-0.000417762
-0.00042138
-0.000421024
-0.000417251
-0.000410626
-0.000401697
-0.00039098
-0.00037895
-0.000366025
-0.00035257
-0.000338888
-0.000325226
-0.00031178
-0.000298695
-0.000286077
-0.000273997
-0.000262496
-0.000251593
-0.00024129
-0.000231576
-0.000222431
-0.000213829
-0.00020574
-0.000198135
-0.000190982
-0.000184253
-0.000177919
-0.000171956
-0.000166339
-0.000161047
-0.000156061
-0.000151364
-0.00014694
-0.000142774
-0.000138853
-0.000135165
-0.000131698
-0.00012844
-0.000125381
-0.000122508
-0.000119813
-0.000117283
-0.000114907
-0.000112674
-0.000110572
-0.000108588
-0.00010671
-0.000104924
-0.000103217
-0.000101573
-9.99768e-05
-9.84128e-05
-9.68634e-05
-9.53103e-05
-9.37343e-05
-9.21148e-05
-9.04301e-05
-8.86572e-05
-8.67712e-05
-8.47459e-05
-8.25529e-05
-8.01619e-05
-7.75401e-05
-7.4652e-05
-7.14585e-05
-6.79173e-05
-6.3981e-05
-5.95975e-05
-5.47076e-05
-4.9244e-05
-4.3127e-05
-3.62581e-05
-2.84947e-05
-1.95875e-05
-1.04013e-05
0.00113991
0.0010522
0.000944926
0.000844037
0.000751837
0.000663839
0.000578168
0.000495037
0.000414681
0.000336958
0.000261708
0.000188962
0.000118922
5.18941e-05
-1.17544e-05
-7.16198e-05
-0.000127289
-0.000178367
-0.000224509
-0.000265436
-0.000300963
-0.000331006
-0.000355592
-0.000374858
-0.000389043
-0.000398478
-0.00040357
-0.00040478
-0.000402604
-0.000397553
-0.000390132
-0.000380825
-0.000370082
-0.000358311
-0.000345869
-0.000333062
-0.000320145
-0.000307322
-0.000294753
-0.000282559
-0.000270823
-0.000259602
-0.000248925
-0.000238806
-0.000229241
-0.000220219
-0.00021172
-0.00020372
-0.000196193
-0.000189112
-0.00018245
-0.00017618
-0.000170278
-0.000164722
-0.00015949
-0.000154564
-0.000149926
-0.00014556
-0.000141451
-0.000137587
-0.000133955
-0.000130542
-0.000127337
-0.000124329
-0.000121508
-0.000118861
-0.000116378
-0.000114048
-0.000111859
-0.000109799
-0.000107856
-0.000106018
-0.00010427
-0.0001026
-0.000100991
-9.94297e-05
-9.78988e-05
-9.63814e-05
-9.48594e-05
-9.33135e-05
-9.17233e-05
-9.00671e-05
-8.8322e-05
-8.64631e-05
-8.44644e-05
-8.22976e-05
-7.99324e-05
-7.73361e-05
-7.44732e-05
-7.13051e-05
-6.77891e-05
-6.38784e-05
-5.9521e-05
-5.46585e-05
-4.92245e-05
-4.3142e-05
-3.63182e-05
-2.86316e-05
-1.9999e-05
-1.21801e-05
0.000992929
0.000934029
0.000854688
0.000772732
0.000694024
0.000617725
0.000542661
0.000468826
0.000396544
0.000325964
0.000257161
0.000190288
0.000125603
6.34374e-05
4.16338e-06
-5.18281e-05
-0.000104145
-0.000152415
-0.000196309
-0.000235557
-0.000269967
-0.000299436
-0.000323956
-0.000343615
-0.000358594
-0.000369159
-0.000375647
-0.000378448
-0.000377991
-0.000374726
-0.000369103
-0.000361562
-0.000352518
-0.00034235
-0.000331401
-0.000319964
-0.000308292
-0.000296589
-0.000285021
-0.000273714
-0.000262762
-0.000252231
-0.000242161
-0.000232574
-0.000223479
-0.000214871
-0.000206739
-0.000199066
-0.000191831
-0.000185013
-0.000178588
-0.000172534
-0.00016683
-0.000161454
-0.000156389
-0.000151616
-0.000147121
-0.000142887
-0.000138903
-0.000135154
-0.000131629
-0.000128317
-0.000125208
-0.000122289
-0.000119552
-0.000116984
-0.000114577
-0.000112318
-0.000110197
-0.000108202
-0.000106321
-0.000104541
-0.000102851
-0.000101235
-9.96791e-05
-9.81688e-05
-9.66878e-05
-9.5219e-05
-9.37444e-05
-9.22451e-05
-9.07008e-05
-8.909e-05
-8.73897e-05
-8.55755e-05
-8.36213e-05
-8.14989e-05
-7.91784e-05
-7.66272e-05
-7.381e-05
-7.06883e-05
-6.722e-05
-6.3359e-05
-5.90539e-05
-5.42482e-05
-4.8879e-05
-4.28769e-05
-3.61695e-05
-2.87045e-05
-2.06993e-05
-1.47636e-05
0.000867234
0.000826857
0.000770554
0.000707462
0.000642501
0.000576913
0.000510875
0.000444817
0.000379319
0.000314826
0.000251645
0.000190055
0.000130363
7.29026e-05
1.80225e-05
-3.39256e-05
-8.25972e-05
-0.000127669
-0.000168854
-0.000205916
-0.00023868
-0.000267047
-0.000290994
-0.000310581
-0.000325945
-0.000337295
-0.000344905
-0.000349096
-0.00035023
-0.000348687
-0.000344857
-0.000339126
-0.000331861
-0.000323406
-0.000314075
-0.000304142
-0.000293849
-0.000283397
-0.00027295
-0.000262641
-0.000252571
-0.000242815
-0.000233426
-0.000224437
-0.000215867
-0.000207722
-0.000199999
-0.000192692
-0.000185785
-0.000179262
-0.000173107
-0.000167301
-0.000161826
-0.000156664
-0.000151799
-0.000147215
-0.000142896
-0.000138831
-0.000135005
-0.000131407
-0.000128026
-0.00012485
-0.000121869
-0.000119074
-0.000116452
-0.000113995
-0.000111693
-0.000109534
-0.000107507
-0.000105602
-0.000103807
-0.00010211
-0.000100497
-9.89563e-05
-9.74728e-05
-9.60318e-05
-9.46176e-05
-9.32135e-05
-9.18019e-05
-9.0364e-05
-8.88798e-05
-8.73281e-05
-8.56863e-05
-8.39301e-05
-8.20338e-05
-7.99695e-05
-7.77076e-05
-7.52158e-05
-7.24594e-05
-6.94004e-05
-6.59976e-05
-6.22062e-05
-5.79769e-05
-5.32572e-05
-4.79912e-05
-4.21256e-05
-3.56273e-05
-2.85551e-05
-2.14416e-05
-1.73217e-05
0.000757837
0.000728351
0.000687006
0.000637909
0.000584447
0.000528584
0.000471312
0.000413336
0.000355291
0.000297698
0.00024096
0.000185418
0.000131401
7.9239e-05
2.92646e-05
-1.81959e-05
-6.28287e-05
-0.000104342
-0.000142477
-0.000177017
-0.000207801
-0.000234726
-0.000257758
-0.000276927
-0.000292333
-0.000304137
-0.000312554
-0.000317846
-0.000320309
-0.000320262
-0.000318037
-0.000313965
-0.000308369
-0.000301553
-0.0002938
-0.000285365
-0.00027647
-0.000267309
-0.000258044
-0.000248807
-0.000239705
-0.000230818
-0.000222206
-0.000213912
-0.000205964
-0.000198375
-0.000191154
-0.000184297
-0.000177799
-0.000171649
-0.000165834
-0.000160342
-0.000155156
-0.000150264
-0.00014565
-0.0001413
-0.000137202
-0.000133344
-0.000129713
-0.000126299
-0.000123091
-0.000120078
-0.000117252
-0.000114602
-0.000112118
-0.000109791
-0.000107611
-0.000105568
-0.000103652
-0.000101851
-0.000100155
-9.85521e-05
-9.70296e-05
-9.55747e-05
-9.41738e-05
-9.28124e-05
-9.14752e-05
-9.0146e-05
-8.88074e-05
-8.74411e-05
-8.60276e-05
-8.45461e-05
-8.29742e-05
-8.12883e-05
-7.94629e-05
-7.74708e-05
-7.52827e-05
-7.2867e-05
-7.01896e-05
-6.72137e-05
-6.38995e-05
-6.02043e-05
-5.60824e-05
-5.14873e-05
-4.63749e-05
-4.07151e-05
-3.45259e-05
-2.79797e-05
-2.17989e-05
-1.8821e-05
0.000660499
0.000637701
0.000606358
0.00056809
0.000524863
0.000478398
0.00042985
0.000380009
0.000329512
0.000278909
0.000228662
0.000179169
0.000130796
8.38854e-05
3.87689e-05
-4.23931e-06
-4.48448e-05
-8.27782e-05
-0.000117802
-0.00014972
-0.000178378
-0.000203677
-0.000225572
-0.000244075
-0.000259254
-0.000271231
-0.000280174
-0.000286292
-0.000289826
-0.000291039
-0.00029021
-0.000287619
-0.000283545
-0.000278253
-0.000271995
-0.000264999
-0.000257471
-0.00024959
-0.000241512
-0.000233366
-0.000225258
-0.000217273
-0.000209476
-0.000201916
-0.000194628
-0.000187635
-0.000180949
-0.000174578
-0.000168519
-0.00016277
-0.000157322
-0.000152167
-0.000147293
-0.00014269
-0.000138345
-0.000134247
-0.000130385
-0.000126748
-0.000123325
-0.000120107
-0.000117084
-0.000114246
-0.000111584
-0.000109089
-0.000106752
-0.000104563
-0.000102513
-0.000100593
-9.8793e-05
-9.71022e-05
-9.55101e-05
-9.40056e-05
-9.25768e-05
-9.12112e-05
-8.98958e-05
-8.86166e-05
-8.73587e-05
-8.61064e-05
-8.48431e-05
-8.35508e-05
-8.22105e-05
-8.0802e-05
-7.93036e-05
-7.7692e-05
-7.59426e-05
-7.40287e-05
-7.19217e-05
-6.95909e-05
-6.70034e-05
-6.41238e-05
-6.09144e-05
-5.73356e-05
-5.33467e-05
-4.89095e-05
-4.39944e-05
-3.85981e-05
-3.2787e-05
-2.68061e-05
-2.13765e-05
-1.86397e-05
0.000572119
0.000553901
0.000529603
0.000499626
0.000464935
0.00042677
0.000386169
0.000343905
0.000300598
0.000256789
0.000212954
0.000169509
0.000126829
8.52558e-05
4.51079e-05
6.68222e-06
-2.97483e-05
-6.39368e-05
-9.5667e-05
-0.000124757
-0.000151066
-0.000174495
-0.000194992
-0.000212551
-0.000227216
-0.000239073
-0.000248248
-0.000254906
-0.000259238
-0.000261456
-0.00026179
-0.000260474
-0.000257743
-0.000253826
-0.000248941
-0.000243291
-0.00023706
-0.000230414
-0.000223497
-0.000216433
-0.000209326
-0.000202261
-0.000195306
-0.000188514
-0.000181926
-0.00017557
-0.000169464
-0.000163621
-0.000158047
-0.000152741
-0.000147702
-0.000142923
-0.000138398
-0.000134119
-0.000130076
-0.00012626
-0.000122662
-0.000119273
-0.000116083
-0.000113083
-0.000110264
-0.000107619
-0.000105138
-0.000102813
-0.000100635
-9.85956e-05
-9.66865e-05
-9.48984e-05
-9.3222e-05
-9.16476e-05
-9.0165e-05
-8.87636e-05
-8.74322e-05
-8.61589e-05
-8.49312e-05
-8.37357e-05
-8.25583e-05
-8.13837e-05
-8.0196e-05
-7.89779e-05
-7.77111e-05
-7.63759e-05
-7.49514e-05
-7.3415e-05
-7.17427e-05
-6.99088e-05
-6.78856e-05
-6.56435e-05
-6.31509e-05
-6.03743e-05
-5.72786e-05
-5.38281e-05
-4.99883e-05
-4.57302e-05
-4.10399e-05
-3.5938e-05
-3.05228e-05
-2.50506e-05
-2.00854e-05
-1.68955e-05
0.000490752
0.000475939
0.00045682
0.000433219
0.000405519
0.000374545
0.000341119
0.000305906
0.000269455
0.000232253
0.000194742
0.000157318
0.000120339
8.41314e-05
4.89963e-05
1.52103e-05
-1.69739e-05
-4.7329e-05
-7.56562e-05
-0.000101787
-0.000125589
-0.000146963
-0.000165853
-0.000182238
-0.000196139
-0.000207614
-0.000216754
-0.000223684
-0.000228552
-0.000231527
-0.000232793
-0.000232541
-0.000230968
-0.000228266
-0.000224621
-0.00022021
-0.000215196
-0.000209726
-0.000203933
-0.000197933
-0.000191823
-0.000185687
-0.000179594
-0.000173597
-0.000167741
-0.000162058
-0.000156571
-0.000151296
-0.000146245
-0.000141421
-0.000136826
-0.000132459
-0.000128316
-0.000124392
-0.00012068
-0.000117173
-0.000113863
-0.000110744
-0.000107806
-0.000105044
-0.000102447
-0.00010001
-9.77237e-05
-9.5581e-05
-9.35739e-05
-9.16946e-05
-8.99348e-05
-8.82862e-05
-8.67401e-05
-8.52874e-05
-8.39185e-05
-8.26236e-05
-8.1392e-05
-8.02125e-05
-7.90732e-05
-7.79615e-05
-7.68639e-05
-7.5766e-05
-7.46524e-05
-7.35068e-05
-7.23115e-05
-7.10479e-05
-6.96956e-05
-6.82333e-05
-6.66378e-05
-6.48845e-05
-6.29468e-05
-6.07966e-05
-5.84041e-05
-5.57381e-05
-5.27665e-05
-4.94579e-05
-4.57842e-05
-4.17258e-05
-3.72816e-05
-3.24873e-05
-2.74461e-05
-2.23688e-05
-1.76016e-05
-1.37543e-05
0.000414913
0.000402805
0.00038767
0.000369082
0.000347109
0.000322277
0.00029519
0.000266367
0.000236259
0.000205278
0.000173808
0.000142203
0.000110789
7.98638e-05
4.97023e-05
2.05561e-05
-7.34547e-06
-3.37968e-05
-5.86173e-05
-8.16536e-05
-0.000102781
-0.000121906
-0.000138966
-0.000153933
-0.000166809
-0.000177629
-0.000186456
-0.000193378
-0.000198509
-0.000201978
-0.00020393
-0.000204518
-0.000203901
-0.000202238
-0.000199684
-0.00019639
-0.000192495
-0.000188129
-0.00018341
-0.000178442
-0.000173317
-0.000168112
-0.000162894
-0.000157718
-0.000152626
-0.000147654
-0.000142828
-0.000138168
-0.000133687
-0.000129393
-0.000125292
-0.000121385
-0.000117672
-0.000114149
-0.000110812
-0.000107658
-0.00010468
-0.000101871
-9.92264e-05
-9.6739e-05
-9.44021e-05
-9.2209e-05
-9.0153e-05
-8.82271e-05
-8.64243e-05
-8.47374e-05
-8.3159e-05
-8.16813e-05
-8.02963e-05
-7.89956e-05
-7.77704e-05
-7.66112e-05
-7.55081e-05
-7.44506e-05
-7.34272e-05
-7.24261e-05
-7.14342e-05
-7.04378e-05
-6.94219e-05
-6.83708e-05
-6.72673e-05
-6.6093e-05
-6.48282e-05
-6.34517e-05
-6.19407e-05
-6.02709e-05
-5.84161e-05
-5.63485e-05
-5.40389e-05
-5.1457e-05
-4.85724e-05
-4.53562e-05
-4.17844e-05
-3.7843e-05
-3.35373e-05
-2.89042e-05
-2.40273e-05
-1.90416e-05
-1.41161e-05
-9.67732e-06
0.000358898
0.000348609
0.000336004
0.000320615
0.000302401
0.000281726
0.000259045
0.00023477
0.000209268
0.000182885
0.000155952
0.000128781
0.00010166
7.48584e-05
4.86218e-05
2.31776e-05
-1.26756e-06
-2.4528e-05
-4.64406e-05
-6.68657e-05
-8.56889e-05
-0.000102822
-0.000118204
-0.000131801
-0.000143608
-0.000153644
-0.000161956
-0.000168611
-0.000173696
-0.000177316
-0.000179587
-0.000180636
-0.000180593
-0.000179593
-0.000177768
-0.000175245
-0.000172147
-0.000168587
-0.00016467
-0.000160489
-0.000156127
-0.000151656
-0.00014714
-0.000142628
-0.000138165
-0.000133784
-0.000129513
-0.000125373
-0.000121378
-0.00011754
-0.000113864
-0.000110354
-0.000107013
-0.000103838
-0.000100827
-9.79774e-05
-9.52847e-05
-9.2744e-05
-9.03503e-05
-8.80979e-05
-8.59812e-05
-8.39943e-05
-8.21313e-05
-8.03859e-05
-7.8752e-05
-7.7223e-05
-7.57922e-05
-7.44526e-05
-7.31969e-05
-7.20174e-05
-7.09062e-05
-6.98545e-05
-6.88533e-05
-6.7893e-05
-6.69631e-05
-6.60526e-05
-6.51495e-05
-6.42413e-05
-6.3314e-05
-6.23531e-05
-6.13426e-05
-6.02656e-05
-5.91036e-05
-5.78369e-05
-5.64443e-05
-5.49031e-05
-5.3189e-05
-5.12762e-05
-4.91376e-05
-4.67454e-05
-4.40717e-05
-4.10907e-05
-3.77808e-05
-3.41293e-05
-3.01391e-05
-2.58363e-05
-2.12765e-05
-1.6541e-05
-1.17309e-05
-7.26224e-06
0.000316535
0.000307548
0.000296691
0.00028351
0.000267919
0.000250188
0.000230679
0.000209724
0.00018763
0.000164694
0.000141204
0.000117435
9.36436e-05
7.00708e-05
4.69391e-05
2.44533e-05
2.79997e-06
-1.78535e-05
-3.73598e-05
-5.55926e-05
-7.24479e-05
-8.78449e-05
-0.000101726
-0.000114058
-0.000124831
-0.000134058
-0.000141773
-0.00014803
-0.000152901
-0.000156472
-0.000158839
-0.000160109
-0.000160393
-0.000159805
-0.000158459
-0.000156466
-0.000153932
-0.000150957
-0.000147633
-0.000144045
-0.000140268
-0.000136367
-0.0001324
-0.000128416
-0.000124454
-0.000120549
-0.000116726
-0.000113008
-0.000109408
-0.000105939
-0.000102609
-9.94219e-05
-9.63805e-05
-9.34849e-05
-9.07342e-05
-8.8126e-05
-8.5657e-05
-8.33234e-05
-8.11208e-05
-7.90445e-05
-7.70895e-05
-7.52507e-05
-7.35225e-05
-7.18995e-05
-7.0376e-05
-6.89461e-05
-6.76036e-05
-6.63423e-05
-6.51556e-05
-6.40365e-05
-6.29779e-05
-6.19719e-05
-6.10106e-05
-6.00854e-05
-5.91871e-05
-5.8306e-05
-5.74317e-05
-5.65532e-05
-5.56587e-05
-5.47355e-05
-5.377e-05
-5.27479e-05
-5.16536e-05
-5.04709e-05
-4.9182e-05
-4.77686e-05
-4.62111e-05
-4.4489e-05
-4.25814e-05
-4.04673e-05
-3.8126e-05
-3.55388e-05
-3.26904e-05
-2.95706e-05
-2.61772e-05
-2.25165e-05
-1.86021e-05
-1.44479e-05
-1.00669e-05
-5.57568e-06
0.000273057
0.00026532
0.000256083
0.000244948
0.00023181
0.000216868
0.0002004
0.000182672
0.000163931
0.000144423
0.000124389
0.000104064
8.36699e-05
6.34143e-05
4.34916e-05
2.40808e-05
5.34519e-06
-1.25686e-05
-2.95311e-05
-4.54313e-05
-6.0177e-05
-7.36958e-05
-8.5935e-05
-9.68624e-05
-0.000106466
-0.000114751
-0.000121744
-0.000127486
-0.000132033
-0.000135453
-0.000137826
-0.000139238
-0.000139781
-0.00013955
-0.000138641
-0.000137145
-0.000135156
-0.000132757
-0.00013003
-0.000127047
-0.000123875
-0.000120572
-0.00011719
-0.000113774
-0.000110359
-0.000106979
-0.000103657
-0.000100414
-9.72659e-05
-9.42244e-05
-9.12977e-05
-8.84914e-05
-8.58087e-05
-8.32511e-05
-8.08184e-05
-7.85094e-05
-7.63217e-05
-7.42524e-05
-7.22982e-05
-7.04551e-05
-6.87189e-05
-6.70853e-05
-6.55495e-05
-6.41069e-05
-6.27524e-05
-6.14809e-05
-6.0287e-05
-5.91652e-05
-5.81098e-05
-5.71145e-05
-5.61732e-05
-5.5279e-05
-5.44248e-05
-5.36031e-05
-5.28059e-05
-5.20247e-05
-5.12503e-05
-5.04731e-05
-4.96827e-05
-4.8868e-05
-4.80172e-05
-4.71175e-05
-4.61557e-05
-4.51173e-05
-4.39871e-05
-4.2749e-05
-4.13864e-05
-3.98817e-05
-3.82172e-05
-3.63749e-05
-3.43374e-05
-3.20884e-05
-2.96133e-05
-2.68999e-05
-2.39383e-05
-2.07187e-05
-1.7228e-05
-1.34401e-05
-9.30401e-06
-4.7227e-06
0.00022827
0.00022181
0.000214182
0.000205049
0.000194308
0.000182097
0.000168627
0.0001541
0.000138708
0.000122646
0.000106109
8.92901e-05
7.23719e-05
5.55289e-05
3.89242e-05
2.27088e-05
7.02103e-06
-8.01452e-06
-2.22877e-05
-3.57035e-05
-4.81828e-05
-5.96624e-05
-7.0096e-05
-7.94534e-05
-8.77209e-05
-9.49007e-05
-0.000101009
-0.000106078
-0.000110148
-0.000113275
-0.000115519
-0.000116949
-0.000117638
-0.000117664
-0.000117104
-0.000116033
-0.000114528
-0.000112658
-0.000110491
-0.000108088
-0.000105507
-0.000102797
-0.000100003
-9.71638e-05
-9.43123e-05
-9.14764e-05
-8.86792e-05
-8.59393e-05
-8.32714e-05
-8.06869e-05
-7.81941e-05
-7.57989e-05
-7.35051e-05
-7.13146e-05
-6.92282e-05
-6.72452e-05
-6.53644e-05
-6.35836e-05
-6.19001e-05
-6.0311e-05
-5.88128e-05
-5.7402e-05
-5.60746e-05
-5.48266e-05
-5.36538e-05
-5.2552e-05
-5.15164e-05
-5.05424e-05
-4.9625e-05
-4.87591e-05
-4.79392e-05
-4.71597e-05
-4.64144e-05
-4.56969e-05
-4.50005e-05
-4.4318e-05
-4.36416e-05
-4.29631e-05
-4.22739e-05
-4.15645e-05
-4.08252e-05
-4.00452e-05
-3.92133e-05
-3.83177e-05
-3.73457e-05
-3.62842e-05
-3.51192e-05
-3.38367e-05
-3.2422e-05
-3.08605e-05
-2.91378e-05
-2.72399e-05
-2.51532e-05
-2.28648e-05
-2.03609e-05
-1.7625e-05
-1.46335e-05
-1.13477e-05
-7.7043e-06
-3.61414e-06
0.000181915
0.000176765
0.000170736
0.000163565
0.000155158
0.000145611
0.000135076
0.0001237
0.000111627
9.90053e-05
8.59838e-05
7.27119e-05
5.93341e-05
4.59883e-05
3.28043e-05
1.99032e-05
7.39598e-06
-4.61705e-06
-1.60469e-05
-2.68166e-05
-3.68616e-05
-4.613e-05
-5.45828e-05
-6.21942e-05
-6.89509e-05
-7.4852e-05
-7.9908e-05
-8.41405e-05
-8.75804e-05
-9.02671e-05
-9.22472e-05
-9.35725e-05
-9.42991e-05
-9.44857e-05
-9.4192e-05
-9.34777e-05
-9.24014e-05
-9.10191e-05
-8.93841e-05
-8.75458e-05
-8.55497e-05
-8.34368e-05
-8.12435e-05
-7.90019e-05
-7.67396e-05
-7.44802e-05
-7.22432e-05
-7.0045e-05
-6.78983e-05
-6.58134e-05
-6.37979e-05
-6.18574e-05
-5.99957e-05
-5.82151e-05
-5.65168e-05
-5.49006e-05
-5.33661e-05
-5.19117e-05
-5.05355e-05
-4.92354e-05
-4.80088e-05
-4.68527e-05
-4.57642e-05
-4.47401e-05
-4.3777e-05
-4.28714e-05
-4.20196e-05
-4.12178e-05
-4.0462e-05
-3.9748e-05
-3.90714e-05
-3.84277e-05
-3.78118e-05
-3.72187e-05
-3.66429e-05
-3.60786e-05
-3.55195e-05
-3.49591e-05
-3.43905e-05
-3.38061e-05
-3.3198e-05
-3.25578e-05
-3.18765e-05
-3.11448e-05
-3.03525e-05
-2.94893e-05
-2.85444e-05
-2.75065e-05
-2.63641e-05
-2.51058e-05
-2.37198e-05
-2.21948e-05
-2.0519e-05
-1.86804e-05
-1.66651e-05
-1.44558e-05
-1.20278e-05
-9.34335e-06
-6.34491e-06
-2.94215e-06
0.000133641
0.000129855
0.000125451
0.000120241
0.000114153
0.00010725
9.96318e-05
9.14006e-05
8.26554e-05
7.3499e-05
6.40376e-05
5.43779e-05
4.46242e-05
3.48767e-05
2.52304e-05
1.57742e-05
6.58999e-06
-2.24802e-06
-1.06738e-05
-1.863e-05
-2.60681e-05
-3.29491e-05
-3.92432e-05
-4.49299e-05
-4.9998e-05
-5.44451e-05
-5.82773e-05
-6.15084e-05
-6.41592e-05
-6.62568e-05
-6.78334e-05
-6.89254e-05
-6.95723e-05
-6.98158e-05
-6.96985e-05
-6.92633e-05
-6.85527e-05
-6.76073e-05
-6.64662e-05
-6.51658e-05
-6.37397e-05
-6.22184e-05
-6.06295e-05
-5.89972e-05
-5.73425e-05
-5.56836e-05
-5.40357e-05
-5.24116e-05
-5.08215e-05
-4.92735e-05
-4.77741e-05
-4.63278e-05
-4.49381e-05
-4.36071e-05
-4.2336e-05
-4.1125e-05
-3.99741e-05
-3.88822e-05
-3.78484e-05
-3.68709e-05
-3.59479e-05
-3.50776e-05
-3.42575e-05
-3.34855e-05
-3.2759e-05
-3.20754e-05
-3.1432e-05
-3.08259e-05
-3.02542e-05
-2.97138e-05
-2.92014e-05
-2.87135e-05
-2.82465e-05
-2.77966e-05
-2.73598e-05
-2.69316e-05
-2.65076e-05
-2.60829e-05
-2.56523e-05
-2.52104e-05
-2.47512e-05
-2.42685e-05
-2.3756e-05
-2.32065e-05
-2.26129e-05
-2.19676e-05
-2.12627e-05
-2.049e-05
-1.96412e-05
-1.87079e-05
-1.76815e-05
-1.65533e-05
-1.53143e-05
-1.39545e-05
-1.24622e-05
-1.08224e-05
-9.01376e-06
-7.00463e-06
-4.74892e-06
-2.17448e-06
8.26465e-05
8.02999e-05
7.75813e-05
7.43799e-05
7.06518e-05
6.64311e-05
6.17762e-05
5.6746e-05
5.13986e-05
4.57952e-05
3.99993e-05
3.40754e-05
2.80867e-05
2.20945e-05
1.61571e-05
1.03292e-05
4.66141e-06
-8.0038e-07
-6.01517e-06
-1.09473e-05
-1.55664e-05
-1.9848e-05
-2.37733e-05
-2.73289e-05
-3.05074e-05
-3.33065e-05
-3.57291e-05
-3.7783e-05
-3.948e-05
-4.08359e-05
-4.18698e-05
-4.26031e-05
-4.30596e-05
-4.32642e-05
-4.32425e-05
-4.30207e-05
-4.26245e-05
-4.20787e-05
-4.14073e-05
-4.06327e-05
-3.97759e-05
-3.88558e-05
-3.78897e-05
-3.68927e-05
-3.58784e-05
-3.48582e-05
-3.38419e-05
-3.28377e-05
-3.18524e-05
-3.08914e-05
-2.99589e-05
-2.90581e-05
-2.81913e-05
-2.736e-05
-2.65653e-05
-2.58075e-05
-2.50866e-05
-2.44021e-05
-2.37535e-05
-2.31399e-05
-2.25601e-05
-2.2013e-05
-2.14972e-05
-2.10114e-05
-2.05539e-05
-2.01232e-05
-1.97175e-05
-1.93352e-05
-1.89743e-05
-1.8633e-05
-1.83091e-05
-1.80006e-05
-1.77052e-05
-1.74205e-05
-1.7144e-05
-1.6873e-05
-1.66047e-05
-1.6336e-05
-1.60639e-05
-1.57847e-05
-1.5495e-05
-1.5191e-05
-1.48686e-05
-1.45235e-05
-1.41514e-05
-1.37474e-05
-1.33069e-05
-1.28248e-05
-1.2296e-05
-1.17152e-05
-1.10771e-05
-1.03762e-05
-9.60653e-06
-8.76148e-06
-7.83299e-06
-6.81055e-06
-5.67938e-06
-4.41794e-06
-2.99541e-06
-1.36333e-06
2.83507e-05
2.75396e-05
2.65906e-05
2.54768e-05
2.41861e-05
2.27291e-05
2.1125e-05
1.93934e-05
1.75539e-05
1.56273e-05
1.36353e-05
1.15998e-05
9.54253e-06
7.48449e-06
5.44567e-06
3.44487e-06
1.49943e-06
-3.74898e-07
-2.16409e-06
-3.85595e-06
-5.44018e-06
-6.90843e-06
-8.25431e-06
-9.4734e-06
-1.05631e-05
-1.15229e-05
-1.23537e-05
-1.30581e-05
-1.36404e-05
-1.41059e-05
-1.4461e-05
-1.47133e-05
-1.48706e-05
-1.49415e-05
-1.49348e-05
-1.48593e-05
-1.47238e-05
-1.45368e-05
-1.43064e-05
-1.40404e-05
-1.37459e-05
-1.34294e-05
-1.30969e-05
-1.27534e-05
-1.24038e-05
-1.20519e-05
-1.17012e-05
-1.13545e-05
-1.10141e-05
-1.0682e-05
-1.03596e-05
-1.00481e-05
-9.7482e-06
-9.46054e-06
-9.18545e-06
-8.92306e-06
-8.67339e-06
-8.43632e-06
-8.21162e-06
-7.99898e-06
-7.79805e-06
-7.60841e-06
-7.42959e-06
-7.2611e-06
-7.1024e-06
-6.95295e-06
-6.81215e-06
-6.67939e-06
-6.55404e-06
-6.43541e-06
-6.32281e-06
-6.21548e-06
-6.11266e-06
-6.01352e-06
-5.91718e-06
-5.82273e-06
-5.72919e-06
-5.63552e-06
-5.54062e-06
-5.44333e-06
-5.34241e-06
-5.23655e-06
-5.12438e-06
-5.00445e-06
-4.87524e-06
-4.73515e-06
-4.58255e-06
-4.41574e-06
-4.23298e-06
-4.03248e-06
-3.8124e-06
-3.5708e-06
-3.30562e-06
-3.01447e-06
-2.69442e-06
-2.34162e-06
-1.95063e-06
-1.51354e-06
-1.01891e-06
-4.48805e-07
0.000126263
0.000129111
0.000135432
0.000144791
0.000156829
0.000171463
0.000188742
0.000208749
0.000231587
0.000257395
0.000286357
0.000318711
0.00035476
0.000394893
0.000439613
0.000489586
0.000545704
0.000609206
0.000681862
0.000766312
0.000866718
0.00099011
0.00114949
0.00137335
0.00172209
0.000125549
0.000128227
0.000134355
0.000143511
0.000155327
0.000169712
0.00018671
0.000206395
0.000228864
0.000254244
0.000282706
0.00031447
0.000349814
0.000389092
0.000432755
0.000481389
0.000535765
0.000596918
0.000666258
0.000745743
0.000838092
0.000946933
0.00107608
0.00122432
0.00136157
0.000124337
0.000126925
0.000132912
0.000141902
0.000153523
0.00016768
0.000184409
0.00020378
0.000225879
0.000250824
0.000278768
0.000309911
0.000344498
0.000382838
0.000425316
0.000472415
0.000524747
0.000583082
0.000648375
0.000721764
0.000804415
0.000896928
0.000997435
0.00109641
0.00116601
0.000122516
0.000125015
0.000130826
0.000139586
0.00015093
0.000164756
0.000181094
0.000200004
0.000221562
0.000245868
0.000273055
0.000303287
0.000336769
0.000373746
0.000414512
0.000459415
0.000508858
0.000563289
0.000623146
0.000688722
0.000759826
0.000835013
0.000910002
0.000974968
0.00101167
0.000119968
0.000122374
0.000127985
0.000136469
0.000147473
0.000160892
0.000176746
0.000195085
0.000215969
0.000239478
0.000265716
0.00029481
0.000326911
0.000362189
0.00040083
0.000443029
0.000488965
0.000538753
0.000592352
0.000649366
0.0007087
0.000767953
0.000822522
0.000864663
0.000883496
0.000116564
0.000118869
0.000124249
0.000132402
0.000142991
0.000155905
0.000171155
0.000188776
0.000208813
0.000231321
0.000256371
0.000284046
0.000314435
0.000347624
0.000383685
0.000422654
0.000464495
0.000509031
0.000555841
0.00060408
0.000652221
0.000697705
0.000736596
0.000763506
0.000772314
0.00011216
0.00011435
0.000119462
0.000127222
0.000137308
0.000149606
0.000164118
0.000180864
0.000199869
0.000221162
0.000244778
0.000270752
0.000299107
0.000329847
0.000362931
0.000398251
0.000435588
0.000474546
0.000514463
0.000554284
0.000592415
0.000626581
0.000653793
0.000670562
0.00067356
0.000106597
0.000108654
0.000113456
0.00012075
0.000130234
0.000141794
0.00015542
0.000171117
0.00018889
0.000208739
0.000230662
0.000254647
0.000280656
0.000308613
0.000338381
0.000369736
0.000402327
0.000435627
0.000468868
0.000500975
0.000530508
0.000555652
0.000574298
0.000584298
0.000583898
9.97053e-05
0.000101607
0.000106048
0.000112796
0.00012157
0.000132258
0.000144837
0.0001593
0.000175628
0.000193798
0.000213772
0.000235494
0.000258873
0.000283769
0.000309972
0.00033718
0.00036497
0.000392764
0.0004198
0.000445104
0.000467493
0.000485619
0.000498076
0.00050359
0.000501278
9.13102e-05
9.30284e-05
9.70494e-05
0.000103162
0.000111107
0.000120775
0.000132136
0.000145167
0.000159834
0.000176088
0.000193865
0.000213073
0.000233579
0.000255201
0.000277686
0.000300694
0.000323784
0.000346398
0.000367848
0.000387328
0.000403931
0.000416713
0.000424777
0.000427399
0.000424162
8.34469e-05
8.50036e-05
8.86502e-05
9.4191e-05
0.000101389
0.00011014
0.000120409
0.000132166
0.000145364
0.000159944
0.000175825
0.000192897
0.000211011
0.000229968
0.000249505
0.000269282
0.00028888
0.000307788
0.000325407
0.000341069
0.000354062
0.000363685
0.00036932
0.000370512
0.000367066
7.67287e-05
7.81543e-05
8.14893e-05
8.65532e-05
9.31272e-05
0.000101114
0.000110476
0.000121176
0.000133164
0.000146372
0.000160711
0.000176064
0.000192274
0.000209137
0.000226392
0.000243712
0.000260704
0.000276904
0.00029179
0.000304796
0.000315348
0.000322905
0.000327016
0.000327376
0.000323882
6.89104e-05
7.01862e-05
7.31649e-05
7.76847e-05
8.35491e-05
9.06676e-05
9.90015e-05
0.000108512
0.000119143
0.000130825
0.000143465
0.000156941
0.000171099
0.000185738
0.000200609
0.000215411
0.000229787
0.000243333
0.000255606
0.000266146
0.000274502
0.000280271
0.000283135
0.000282898
0.000279518
5.98414e-05
6.09456e-05
6.35185e-05
6.742e-05
7.24787e-05
7.86137e-05
8.57868e-05
9.39584e-05
0.000103074
0.000113062
0.000123831
0.000135267
0.000147219
0.000159504
0.000171896
0.000184126
0.00019589
0.000206849
0.000216643
0.000224913
0.000231319
0.000235571
0.000237453
0.00023685
0.000233759
4.93677e-05
5.02762e-05
5.23888e-05
5.55895e-05
5.97366e-05
6.47613e-05
7.06288e-05
7.73019e-05
8.47297e-05
9.28469e-05
0.00010157
0.000110796
0.000120393
0.0001302
0.000140027
0.000149651
0.000158823
0.000167277
0.000174736
0.000180934
0.000185627
0.000188615
0.000189761
0.000189002
0.000186355
3.73418e-05
3.80283e-05
3.96204e-05
4.20299e-05
4.51497e-05
4.89263e-05
5.33313e-05
5.83336e-05
6.3891e-05
6.99496e-05
7.64417e-05
8.32829e-05
9.03691e-05
9.75746e-05
0.000104752
0.000111733
0.000118334
0.000124362
0.000129621
0.000133929
0.000137123
0.000139077
0.000139708
0.000138986
0.000136936
2.36385e-05
2.40741e-05
2.50802e-05
2.66004e-05
2.85671e-05
3.09459e-05
3.37177e-05
3.68612e-05
4.0348e-05
4.41417e-05
4.81971e-05
5.2458e-05
5.68563e-05
6.13103e-05
6.57257e-05
6.99968e-05
7.40096e-05
7.76459e-05
8.07898e-05
8.33335e-05
8.51853e-05
8.62755e-05
8.6562e-05
8.60334e-05
8.47091e-05
8.17991e-06
8.33242e-06
8.68256e-06
9.21051e-06
9.89292e-06
1.07179e-05
1.16786e-05
1.27676e-05
1.39746e-05
1.52865e-05
1.66874e-05
1.81571e-05
1.96716e-05
2.12021e-05
2.27154e-05
2.41749e-05
2.55411e-05
2.67737e-05
2.78334e-05
2.86842e-05
2.9296e-05
2.96463e-05
2.97224e-05
2.95223e-05
2.90553e-05
)
;

boundaryField
{
    top
    {
        type            fixedValue;
        value           uniform 0;
    }
    inlet
    {
        type            zeroGradient;
    }
    outlet
    {
        type            fixedValue;
        value           uniform 0;
    }
    plate
    {
        type            zeroGradient;
    }
    symmBound
    {
        type            zeroGradient;
    }
    frontAndBack
    {
        type            empty;
    }
}


// ************************************************************************* //
