/*--------------------------------*- C++ -*----------------------------------*\
| =========                 |                                                 |
| \\      /  F ield         | OpenFOAM: The Open Source CFD Toolbox           |
|  \\    /   O peration     | Version:  2.3.0                                 |
|   \\  /    A nd           | Web:      www.OpenFOAM.org                      |
|    \\/     M anipulation  |                                                 |
\*---------------------------------------------------------------------------*/
FoamFile
{
    version     2.0;
    format      ascii;
    class       volVectorField;
    location    "0.5";
    object      U;
}
// * * * * * * * * * * * * * * * * * * * * * * * * * * * * * * * * * * * * * //

dimensions      [0 1 -1 0 0 0 0];

internalField   nonuniform List<vector> 
2250
(
(0.18465 0.00407569 1.18988e-06)
(0.177454 0.00444616 3.07319e-06)
(0.170051 0.00453766 4.40289e-06)
(0.162477 0.00449566 5.46115e-06)
(0.154925 0.0043849 6.30115e-06)
(0.147494 0.00422974 6.86683e-06)
(0.140215 0.0040442 7.13513e-06)
(0.133101 0.00383909 7.11292e-06)
(0.126172 0.00362206 6.80421e-06)
(0.119449 0.00339817 6.2055e-06)
(0.112949 0.00317085 5.31445e-06)
(0.106689 0.00294264 4.13532e-06)
(0.100682 0.00271556 2.67968e-06)
(0.094943 0.00249131 9.66153e-07)
(0.0894813 0.00227141 -9.79603e-07)
(0.0843068 0.00205728 -3.12492e-06)
(0.0794264 0.00185028 -5.4306e-06)
(0.0748448 0.00165169 -7.85206e-06)
(0.0705642 0.00146274 -1.03408e-05)
(0.0665838 0.00128455 -1.28463e-05)
(0.0629002 0.0011181 -1.53184e-05)
(0.0595073 0.000964176 -1.77088e-05)
(0.0563962 0.000823332 -1.9974e-05)
(0.0535559 0.000695881 -2.20764e-05)
(0.0509728 0.000581868 -2.39858e-05)
(0.048632 0.000481079 -2.56806e-05)
(0.046517 0.000393059 -2.71478e-05)
(0.0446103 0.000317148 -2.83826e-05)
(0.042894 0.00025252 -2.93884e-05)
(0.0413502 0.000198235 -3.01747e-05)
(0.0399611 0.000153281 -3.07569e-05)
(0.0387097 0.00011662 -3.11539e-05)
(0.0375798 8.72194e-05 -3.13875e-05)
(0.0365564 6.40807e-05 -3.14803e-05)
(0.0356258 4.62605e-05 -3.14553e-05)
(0.0347756 3.28843e-05 -3.13345e-05)
(0.0339947 2.31565e-05 -3.11381e-05)
(0.0332734 1.63657e-05 -3.08847e-05)
(0.0326034 1.18871e-05 -3.05902e-05)
(0.0319775 9.18178e-06 -3.02683e-05)
(0.0313898 7.79416e-06 -2.99304e-05)
(0.030835 7.34665e-06 -2.95854e-05)
(0.0303092 7.53319e-06 -2.92405e-05)
(0.0298087 8.11329e-06 -2.89011e-05)
(0.0293309 8.90836e-06 -2.85712e-05)
(0.0288735 9.78619e-06 -2.82533e-05)
(0.0284346 1.06522e-05 -2.79494e-05)
(0.0280127 1.14423e-05 -2.76605e-05)
(0.0276067 1.2116e-05 -2.73872e-05)
(0.0272155 1.26514e-05 -2.71296e-05)
(0.0268384 1.30402e-05 -2.68879e-05)
(0.0264747 1.32837e-05 -2.66619e-05)
(0.0261237 1.33895e-05 -2.64516e-05)
(0.025785 1.33696e-05 -2.6257e-05)
(0.0254581 1.32378e-05 -2.60779e-05)
(0.0251425 1.30087e-05 -2.59146e-05)
(0.024838 1.26968e-05 -2.57671e-05)
(0.024544 1.23157e-05 -2.56358e-05)
(0.0242603 1.18778e-05 -2.55209e-05)
(0.0239865 1.13943e-05 -2.54228e-05)
(0.0237223 1.08746e-05 -2.53417e-05)
(0.0234674 1.03271e-05 -2.52779e-05)
(0.0232217 9.75856e-06 -2.52318e-05)
(0.0229846 9.17481e-06 -2.52034e-05)
(0.0227562 8.58046e-06 -2.51928e-05)
(0.022536 7.97928e-06 -2.51999e-05)
(0.022324 7.37423e-06 -2.52245e-05)
(0.0221198 6.76762e-06 -2.52661e-05)
(0.0219234 6.16123e-06 -2.5324e-05)
(0.0217346 5.55638e-06 -2.53973e-05)
(0.0215532 4.95404e-06 -2.54847e-05)
(0.0213791 4.35485e-06 -2.55846e-05)
(0.0212122 3.75923e-06 -2.56952e-05)
(0.0210525 3.16736e-06 -2.58142e-05)
(0.0208997 2.5793e-06 -2.59387e-05)
(0.0207539 1.99498e-06 -2.60655e-05)
(0.0206149 1.41423e-06 -2.61908e-05)
(0.0204828 8.36838e-07 -2.63104e-05)
(0.0203575 2.6254e-07 -2.64191e-05)
(0.020239 -3.08942e-07 -2.65112e-05)
(0.0201272 -8.77825e-07 -2.65802e-05)
(0.0200221 -1.44427e-06 -2.66187e-05)
(0.0199237 -2.00831e-06 -2.66183e-05)
(0.019832 -2.56983e-06 -2.65697e-05)
(0.019747 -3.12853e-06 -2.64623e-05)
(0.0196687 -3.68391e-06 -2.62841e-05)
(0.019597 -4.23525e-06 -2.60217e-05)
(0.019532 -4.78156e-06 -2.56601e-05)
(0.0194736 -5.32149e-06 -2.51824e-05)
(0.0194218 -5.85327e-06 -2.45693e-05)
(0.0193765 -6.37428e-06 -2.37991e-05)
(0.0193377 -6.88047e-06 -2.28473e-05)
(0.0193052 -7.36532e-06 -2.16858e-05)
(0.0192789 -7.81753e-06 -2.02823e-05)
(0.0192583 -8.21713e-06 -1.85994e-05)
(0.019243 -8.52571e-06 -1.6593e-05)
(0.019232 -8.66117e-06 -1.42084e-05)
(0.0192234 -8.55491e-06 -1.13716e-05)
(0.019216 -7.91579e-06 -7.96969e-06)
(0.0191302 1.72244e-05 -4.17644e-06)
(0.193869 0.00625435 8.27529e-07)
(0.193712 0.00684773 2.42082e-06)
(0.193069 0.00706662 3.77772e-06)
(0.191941 0.00712804 4.84703e-06)
(0.19043 0.0071172 5.65689e-06)
(0.188609 0.00705667 6.20816e-06)
(0.186514 0.0069567 6.49308e-06)
(0.184173 0.00682578 6.5157e-06)
(0.181616 0.0066697 6.28404e-06)
(0.178872 0.00649182 5.80273e-06)
(0.175971 0.00629427 5.075e-06)
(0.172938 0.00607881 4.10676e-06)
(0.169798 0.00584719 2.90822e-06)
(0.166576 0.00560128 1.49423e-06)
(0.163294 0.00534308 -1.15496e-07)
(0.159974 0.00507483 -1.89628e-06)
(0.156635 0.00479893 -3.81858e-06)
(0.153296 0.00451794 -5.84854e-06)
(0.149973 0.00423454 -7.94904e-06)
(0.146682 0.00395146 -1.00809e-05)
(0.143436 0.0036714 -1.22042e-05)
(0.140246 0.00339695 -1.42804e-05)
(0.137122 0.00313053 -1.62731e-05)
(0.134071 0.00287434 -1.81503e-05)
(0.131101 0.00263023 -1.98848e-05)
(0.128216 0.00239972 -2.14558e-05)
(0.125418 0.00218397 -2.28488e-05)
(0.12271 0.00198372 -2.40561e-05)
(0.120093 0.00179936 -2.5076e-05)
(0.117566 0.00163091 -2.59129e-05)
(0.115129 0.00147808 -2.65755e-05)
(0.11278 0.0013403 -2.70767e-05)
(0.110517 0.0012168 -2.74319e-05)
(0.108338 0.00110662 -2.76583e-05)
(0.106239 0.00100872 -2.77738e-05)
(0.104219 0.000921984 -2.7796e-05)
(0.102274 0.000845271 -2.77422e-05)
(0.100401 0.000777471 -2.7628e-05)
(0.0985971 0.000717522 -2.74676e-05)
(0.0968593 0.000664428 -2.72735e-05)
(0.0951848 0.000617281 -2.70562e-05)
(0.0935707 0.000575261 -2.68246e-05)
(0.0920144 0.000537645 -2.65859e-05)
(0.0905134 0.000503797 -2.63457e-05)
(0.089065 0.000473161 -2.61081e-05)
(0.0876671 0.000445267 -2.58765e-05)
(0.0863173 0.000419722 -2.56533e-05)
(0.0850136 0.000396198 -2.544e-05)
(0.083754 0.000374426 -2.52378e-05)
(0.0825365 0.000354182 -2.50473e-05)
(0.0813594 0.000335286 -2.48691e-05)
(0.0802211 0.000317586 -2.47035e-05)
(0.0791198 0.00030096 -2.45506e-05)
(0.0780542 0.000285304 -2.44107e-05)
(0.0770228 0.000270532 -2.4284e-05)
(0.0760242 0.00025657 -2.41708e-05)
(0.0750573 0.000243355 -2.40714e-05)
(0.0741208 0.000230829 -2.39862e-05)
(0.0732136 0.000218942 -2.39155e-05)
(0.0723348 0.000207648 -2.38597e-05)
(0.0714832 0.000196905 -2.38193e-05)
(0.070658 0.000186672 -2.37947e-05)
(0.0698584 0.000176915 -2.37861e-05)
(0.0690836 0.000167596 -2.37938e-05)
(0.0683328 0.000158684 -2.38179e-05)
(0.0676054 0.000150149 -2.38583e-05)
(0.0669007 0.000141959 -2.3915e-05)
(0.0662182 0.000134089 -2.39875e-05)
(0.0655573 0.000126512 -2.40753e-05)
(0.0649176 0.000119204 -2.41774e-05)
(0.0642985 0.000112142 -2.42928e-05)
(0.0636999 0.000105306 -2.442e-05)
(0.0631212 9.8675e-05 -2.45573e-05)
(0.0625622 9.22316e-05 -2.47023e-05)
(0.0620225 8.5959e-05 -2.48524e-05)
(0.061502 7.98416e-05 -2.50047e-05)
(0.0610004 7.38656e-05 -2.51553e-05)
(0.0605175 6.8018e-05 -2.53002e-05)
(0.0600531 6.22875e-05 -2.54344e-05)
(0.0596071 5.6664e-05 -2.55524e-05)
(0.0591794 5.11385e-05 -2.56477e-05)
(0.0587698 4.57034e-05 -2.57133e-05)
(0.0583782 4.03527e-05 -2.57409e-05)
(0.0580046 3.50814e-05 -2.57213e-05)
(0.0576488 2.98861e-05 -2.56441e-05)
(0.0573107 2.47648e-05 -2.54977e-05)
(0.0569902 1.97169e-05 -2.52689e-05)
(0.0566872 1.47433e-05 -2.49429e-05)
(0.0564015 9.84704e-06 -2.45031e-05)
(0.0561331 5.03376e-06 -2.39305e-05)
(0.0558816 3.13258e-07 -2.32039e-05)
(0.0556468 -4.29779e-06 -2.22991e-05)
(0.0554283 -8.77139e-06 -2.11884e-05)
(0.0552256 -1.30592e-05 -1.98404e-05)
(0.055038 -1.70752e-05 -1.82183e-05)
(0.0548643 -2.06549e-05 -1.62794e-05)
(0.0547024 -2.34499e-05 -1.39719e-05)
(0.0545488 -2.45978e-05 -1.1228e-05)
(0.0544015 -1.97765e-05 -7.97774e-06)
(0.05414 2.87758e-05 -5.0389e-06)
(0.194973 0.00544142 6.58659e-07)
(0.19539 0.00604183 2.01005e-06)
(0.195773 0.00645273 3.22708e-06)
(0.19603 0.00676577 4.17375e-06)
(0.196152 0.00701769 4.87034e-06)
(0.196142 0.00721303 5.35494e-06)
(0.195999 0.00735299 5.62957e-06)
(0.195715 0.0074415 5.68976e-06)
(0.195288 0.00748276 5.53903e-06)
(0.194719 0.00748006 5.18335e-06)
(0.194012 0.00743617 4.62735e-06)
(0.19317 0.00735384 3.87586e-06)
(0.1922 0.00723597 2.93608e-06)
(0.191108 0.00708562 1.81844e-06)
(0.189902 0.00690608 5.36787e-07)
(0.188589 0.00670084 -8.91535e-07)
(0.18718 0.00647358 -2.44569e-06)
(0.185683 0.00622815 -4.10159e-06)
(0.184109 0.00596848 -5.83237e-06)
(0.182468 0.00569858 -7.60911e-06)
(0.180768 0.00542234 -9.40178e-06)
(0.179021 0.00514355 -1.11802e-05)
(0.177234 0.00486575 -1.29153e-05)
(0.175417 0.00459214 -1.45799e-05)
(0.173577 0.00432554 -1.61498e-05)
(0.171722 0.0040683 -1.76048e-05)
(0.169858 0.00382232 -1.89291e-05)
(0.167991 0.003589 -2.01116e-05)
(0.166126 0.00336926 -2.11461e-05)
(0.164267 0.00316359 -2.2031e-05)
(0.162417 0.00297208 -2.2769e-05)
(0.160581 0.00279448 -2.33664e-05)
(0.158759 0.00263028 -2.38325e-05)
(0.156954 0.00247878 -2.41789e-05)
(0.155168 0.00233913 -2.44184e-05)
(0.153401 0.00221039 -2.4565e-05)
(0.151655 0.0020916 -2.46323e-05)
(0.14993 0.00198181 -2.4634e-05)
(0.148226 0.0018801 -2.45826e-05)
(0.146544 0.00178563 -2.44898e-05)
(0.144884 0.0016976 -2.43658e-05)
(0.143247 0.00161533 -2.42196e-05)
(0.141632 0.00153818 -2.40586e-05)
(0.14004 0.00146562 -2.38892e-05)
(0.138471 0.00139717 -2.37161e-05)
(0.136924 0.00133243 -2.35434e-05)
(0.135401 0.00127105 -2.33742e-05)
(0.133901 0.00121275 -2.3211e-05)
(0.132425 0.00115727 -2.30554e-05)
(0.130972 0.00110441 -2.29088e-05)
(0.129542 0.00105399 -2.27721e-05)
(0.128136 0.00100585 -2.26459e-05)
(0.126754 0.000959855 -2.25309e-05)
(0.125396 0.000915888 -2.24275e-05)
(0.124061 0.000873838 -2.2336e-05)
(0.12275 0.000833604 -2.22569e-05)
(0.121463 0.000795092 -2.21905e-05)
(0.120201 0.000758214 -2.21372e-05)
(0.118962 0.000722885 -2.20975e-05)
(0.117747 0.000689026 -2.20717e-05)
(0.116556 0.000656557 -2.20603e-05)
(0.115389 0.000625404 -2.20636e-05)
(0.114246 0.000595494 -2.2082e-05)
(0.113127 0.000566755 -2.21156e-05)
(0.112031 0.00053912 -2.21646e-05)
(0.11096 0.000512523 -2.2229e-05)
(0.109912 0.000486899 -2.23088e-05)
(0.108889 0.000462188 -2.24034e-05)
(0.107889 0.00043833 -2.25125e-05)
(0.106913 0.000415269 -2.26351e-05)
(0.105961 0.000392952 -2.27704e-05)
(0.105033 0.000371328 -2.29168e-05)
(0.104129 0.000350348 -2.30728e-05)
(0.103249 0.000329966 -2.32363e-05)
(0.102393 0.000310139 -2.34047e-05)
(0.101561 0.000290827 -2.35751e-05)
(0.100753 0.000271991 -2.37441e-05)
(0.0999698 0.000253598 -2.39076e-05)
(0.0992106 0.000235614 -2.4061e-05)
(0.0984758 0.000218012 -2.41988e-05)
(0.0977656 0.000200763 -2.43151e-05)
(0.0970799 0.000183846 -2.44028e-05)
(0.096419 0.00016724 -2.44541e-05)
(0.0957828 0.000150928 -2.44602e-05)
(0.0951715 0.000134896 -2.44109e-05)
(0.0945852 0.000119136 -2.4295e-05)
(0.0940238 0.000103639 -2.40998e-05)
(0.0934875 8.84037e-05 -2.3811e-05)
(0.0929761 7.34328e-05 -2.34124e-05)
(0.0924895 5.87355e-05 -2.28859e-05)
(0.0920278 4.43307e-05 -2.22109e-05)
(0.0915905 3.02532e-05 -2.13641e-05)
(0.0911773 1.65626e-05 -2.03193e-05)
(0.0907878 3.36198e-06 -1.90467e-05)
(0.0904209 -9.16521e-06 -1.75128e-05)
(0.0900753 -2.06667e-05 -1.5681e-05)
(0.0897488 -3.03783e-05 -1.35136e-05)
(0.0894377 -3.61738e-05 -1.09902e-05)
(0.0891394 -2.92896e-05 -8.27678e-06)
(0.0887367 2.26398e-05 -6.84871e-06)
(0.19567 0.00518389 4.75451e-07)
(0.196002 0.00577019 1.46105e-06)
(0.196388 0.00622654 2.43967e-06)
(0.196762 0.00658567 3.29556e-06)
(0.197107 0.00687423 3.9847e-06)
(0.197421 0.00710392 4.50977e-06)
(0.197701 0.00728111 4.86422e-06)
(0.197941 0.00741165 5.03444e-06)
(0.198134 0.00750053 5.01583e-06)
(0.198275 0.00755123 4.8124e-06)
(0.198357 0.00756609 4.43073e-06)
(0.198377 0.00754686 3.8779e-06)
(0.198331 0.00749517 3.1623e-06)
(0.198215 0.00741266 2.29431e-06)
(0.198027 0.00730121 1.28639e-06)
(0.197765 0.00716293 1.52892e-07)
(0.19743 0.00700029 -1.08991e-06)
(0.197021 0.00681606 -2.42391e-06)
(0.196539 0.00661331 -3.82933e-06)
(0.195988 0.00639533 -5.28505e-06)
(0.19537 0.00616556 -6.76906e-06)
(0.194688 0.00592747 -8.25895e-06)
(0.193947 0.00568446 -9.73254e-06)
(0.19315 0.00543977 -1.11686e-05)
(0.192303 0.0051964 -1.25474e-05)
(0.191411 0.00495699 -1.38515e-05)
(0.190478 0.00472383 -1.5066e-05)
(0.189509 0.00449876 -1.61793e-05)
(0.188507 0.00428322 -1.7183e-05)
(0.187478 0.00407821 -1.80721e-05)
(0.186426 0.00388435 -1.88451e-05)
(0.185352 0.00370189 -1.95034e-05)
(0.184261 0.00353082 -2.00511e-05)
(0.183156 0.00337082 -2.04946e-05)
(0.182037 0.00322143 -2.0842e-05)
(0.180908 0.00308202 -2.11027e-05)
(0.17977 0.0029519 -2.12865e-05)
(0.178624 0.00283029 -2.14038e-05)
(0.177472 0.00271642 -2.14646e-05)
(0.176314 0.00260955 -2.14787e-05)
(0.175152 0.00250895 -2.14548e-05)
(0.173986 0.00241395 -2.14012e-05)
(0.172817 0.00232393 -2.13251e-05)
(0.171645 0.00223837 -2.12327e-05)
(0.170472 0.00215677 -2.11294e-05)
(0.169297 0.00207872 -2.10199e-05)
(0.168122 0.00200386 -2.09077e-05)
(0.166947 0.0019319 -2.0796e-05)
(0.165771 0.00186257 -2.06871e-05)
(0.164597 0.00179566 -2.05829e-05)
(0.163425 0.00173097 -2.0485e-05)
(0.162254 0.00166837 -2.03947e-05)
(0.161087 0.00160772 -2.03128e-05)
(0.159923 0.00154891 -2.02402e-05)
(0.158762 0.00149183 -2.01777e-05)
(0.157606 0.00143642 -2.01258e-05)
(0.156456 0.00138258 -2.00851e-05)
(0.155311 0.00133026 -2.00562e-05)
(0.154172 0.00127938 -2.00396e-05)
(0.153041 0.00122989 -2.00357e-05)
(0.151917 0.00118173 -2.0045e-05)
(0.150802 0.00113485 -2.00679e-05)
(0.149695 0.00108918 -2.01047e-05)
(0.148597 0.00104469 -2.01557e-05)
(0.14751 0.00100131 -2.02211e-05)
(0.146433 0.000958991 -2.03009e-05)
(0.145368 0.000917693 -2.03949e-05)
(0.144315 0.000877363 -2.0503e-05)
(0.143274 0.000837955 -2.06247e-05)
(0.142246 0.000799423 -2.07593e-05)
(0.141232 0.000761722 -2.09057e-05)
(0.140233 0.000724809 -2.10629e-05)
(0.139248 0.000688643 -2.12292e-05)
(0.13828 0.000653183 -2.14027e-05)
(0.137327 0.000618391 -2.15811e-05)
(0.136392 0.000584231 -2.17616e-05)
(0.135474 0.000550667 -2.1941e-05)
(0.134575 0.000517667 -2.21154e-05)
(0.133694 0.000485201 -2.22805e-05)
(0.132833 0.00045324 -2.24311e-05)
(0.131992 0.000421761 -2.25615e-05)
(0.131171 0.000390741 -2.2665e-05)
(0.130372 0.000360161 -2.27342e-05)
(0.129595 0.000330007 -2.27605e-05)
(0.12884 0.000300267 -2.27342e-05)
(0.128108 0.000270936 -2.26447e-05)
(0.1274 0.000242011 -2.24797e-05)
(0.126715 0.000213496 -2.22256e-05)
(0.126054 0.000185406 -2.18668e-05)
(0.125418 0.000157763 -2.13861e-05)
(0.124807 0.000130606 -2.07641e-05)
(0.124221 0.000104 -1.99789e-05)
(0.123659 7.80489e-05 -1.90066e-05)
(0.123122 5.2923e-05 -1.7821e-05)
(0.122609 2.89177e-05 -1.6395e-05)
(0.122119 6.58654e-06 -1.4705e-05)
(0.12165 -1.28894e-05 -1.27458e-05)
(0.1212 -2.64694e-05 -1.059e-05)
(0.120769 -2.48169e-05 -8.66815e-06)
(0.120248 1.40256e-05 -8.73517e-06)
(0.196261 0.0049513 3.48045e-07)
(0.196495 0.00544949 1.0838e-06)
(0.196787 0.00586239 1.87666e-06)
(0.197101 0.00620057 2.63423e-06)
(0.197421 0.0064809 3.27639e-06)
(0.197741 0.00671371 3.77934e-06)
(0.198058 0.00690423 4.13813e-06)
(0.198369 0.00705617 4.34496e-06)
(0.198669 0.00717259 4.39491e-06)
(0.198953 0.00725578 4.29033e-06)
(0.199218 0.00730727 4.03762e-06)
(0.199461 0.0073282 3.64405e-06)
(0.199677 0.00731964 3.11722e-06)
(0.199864 0.0072827 2.4656e-06)
(0.200017 0.00721868 1.69873e-06)
(0.200133 0.00712915 8.2718e-07)
(0.20021 0.00701594 -1.37495e-07)
(0.200244 0.00688121 -1.18272e-06)
(0.200235 0.00672742 -2.29492e-06)
(0.20018 0.00655723 -3.45959e-06)
(0.200079 0.00637351 -4.66148e-06)
(0.199932 0.00617923 -5.88475e-06)
(0.19974 0.00597737 -7.1133e-06)
(0.199503 0.00577084 -8.33112e-06)
(0.199224 0.00556238 -9.52265e-06)
(0.198904 0.00535453 -1.06732e-05)
(0.198545 0.0051495 -1.17695e-05)
(0.198151 0.00494921 -1.27996e-05)
(0.197723 0.00475519 -1.3754e-05)
(0.197265 0.00456862 -1.46253e-05)
(0.196778 0.00439034 -1.54082e-05)
(0.196266 0.00422085 -1.61003e-05)
(0.19573 0.00406036 -1.6701e-05)
(0.195173 0.00390885 -1.72123e-05)
(0.194597 0.00376608 -1.76377e-05)
(0.194002 0.00363167 -1.79824e-05)
(0.193391 0.00350512 -1.82528e-05)
(0.192764 0.00338586 -1.84561e-05)
(0.192124 0.00327328 -1.86e-05)
(0.191469 0.00316678 -1.86924e-05)
(0.190802 0.00306575 -1.87411e-05)
(0.190123 0.00296963 -1.87534e-05)
(0.189431 0.00287789 -1.87364e-05)
(0.188729 0.00279007 -1.86965e-05)
(0.188015 0.00270573 -1.86394e-05)
(0.187291 0.0026245 -1.85701e-05)
(0.186557 0.00254607 -1.84928e-05)
(0.185813 0.00247015 -1.84113e-05)
(0.185059 0.00239651 -1.83287e-05)
(0.184296 0.00232494 -1.82474e-05)
(0.183524 0.00225529 -1.81698e-05)
(0.182744 0.0021874 -1.80974e-05)
(0.181956 0.00212117 -1.80317e-05)
(0.181159 0.00205647 -1.7974e-05)
(0.180356 0.00199322 -1.79251e-05)
(0.179545 0.00193135 -1.78859e-05)
(0.178729 0.00187078 -1.7857e-05)
(0.177906 0.00181145 -1.78392e-05)
(0.177078 0.00175329 -1.78329e-05)
(0.176245 0.00169626 -1.78385e-05)
(0.175407 0.00164029 -1.78566e-05)
(0.174566 0.00158533 -1.78875e-05)
(0.173721 0.00153134 -1.79314e-05)
(0.172874 0.00147826 -1.79887e-05)
(0.172025 0.00142604 -1.80593e-05)
(0.171174 0.00137465 -1.81434e-05)
(0.170322 0.00132402 -1.82407e-05)
(0.169471 0.00127413 -1.83512e-05)
(0.16862 0.00122492 -1.84742e-05)
(0.16777 0.00117636 -1.86092e-05)
(0.166922 0.0011284 -1.87552e-05)
(0.166077 0.001081 -1.89112e-05)
(0.165235 0.00103414 -1.90756e-05)
(0.164397 0.000987777 -1.92468e-05)
(0.163565 0.000941876 -1.94224e-05)
(0.162738 0.00089641 -1.96001e-05)
(0.161918 0.000851353 -1.97766e-05)
(0.161105 0.000806679 -1.99485e-05)
(0.160301 0.000762366 -2.01116e-05)
(0.159505 0.000718398 -2.02612e-05)
(0.15872 0.000674757 -2.03917e-05)
(0.157946 0.000631434 -2.0497e-05)
(0.157183 0.00058842 -2.05699e-05)
(0.156432 0.000545714 -2.06025e-05)
(0.155695 0.000503317 -2.05855e-05)
(0.154972 0.000461238 -2.05088e-05)
(0.154264 0.00041949 -2.03609e-05)
(0.153572 0.000378098 -2.01289e-05)
(0.152896 0.000337095 -1.97982e-05)
(0.152236 0.000296531 -1.93528e-05)
(0.151595 0.000256477 -1.87749e-05)
(0.150971 0.000217039 -1.8045e-05)
(0.150366 0.000178376 -1.71425e-05)
(0.149779 0.000140735 -1.60472e-05)
(0.14921 0.000104528 -1.47425e-05)
(0.148659 7.04881e-05 -1.32253e-05)
(0.148125 4.00804e-05 -1.1535e-05)
(0.147608 1.65628e-05 -9.83984e-06)
(0.147113 7.28742e-06 -8.68577e-06)
(0.146534 2.18292e-05 -9.38598e-06)
(0.19678 0.00477602 2.44139e-07)
(0.19695 0.00519799 7.58657e-07)
(0.19717 0.00556959 1.32905e-06)
(0.197421 0.00588965 1.90715e-06)
(0.197691 0.00616394 2.42969e-06)
(0.19797 0.00639737 2.86674e-06)
(0.198254 0.00659281 3.20929e-06)
(0.198541 0.00675245 3.44865e-06)
(0.198825 0.00687843 3.57555e-06)
(0.199106 0.00697273 3.5855e-06)
(0.19938 0.00703697 3.47911e-06)
(0.199645 0.00707256 3.25946e-06)
(0.199899 0.00708078 2.93071e-06)
(0.200138 0.00706292 2.49799e-06)
(0.200362 0.00702034 1.96747e-06)
(0.200567 0.00695453 1.34623e-06)
(0.200751 0.00686717 6.42103e-07)
(0.200911 0.00676013 -1.36356e-07)
(0.201047 0.00663548 -9.79903e-07)
(0.201156 0.00649546 -1.8786e-06)
(0.201237 0.00634244 -2.82181e-06)
(0.201289 0.00617891 -3.79829e-06)
(0.201312 0.00600735 -4.79626e-06)
(0.201305 0.00583022 -5.80356e-06)
(0.20127 0.0056499 -6.80786e-06)
(0.201206 0.00546858 -7.79696e-06)
(0.201115 0.00528824 -8.75903e-06)
(0.200998 0.00511062 -9.68303e-06)
(0.200857 0.00493718 -1.0559e-05)
(0.200693 0.00476909 -1.13784e-05)
(0.200507 0.00460723 -1.21342e-05)
(0.200302 0.00445221 -1.28214e-05)
(0.200078 0.00430438 -1.34367e-05)
(0.199838 0.00416389 -1.39787e-05)
(0.199582 0.00403068 -1.44479e-05)
(0.199312 0.00390454 -1.48462e-05)
(0.199028 0.00378516 -1.5177e-05)
(0.198732 0.00367214 -1.54449e-05)
(0.198423 0.00356503 -1.56552e-05)
(0.198104 0.00346335 -1.58137e-05)
(0.197773 0.0033666 -1.59267e-05)
(0.197432 0.00327432 -1.60003e-05)
(0.19708 0.00318605 -1.60407e-05)
(0.196717 0.00310137 -1.60536e-05)
(0.196345 0.00301989 -1.60446e-05)
(0.195962 0.00294128 -1.60184e-05)
(0.19557 0.00286522 -1.59795e-05)
(0.195167 0.00279144 -1.59318e-05)
(0.194754 0.00271971 -1.58787e-05)
(0.194331 0.00264983 -1.58231e-05)
(0.193898 0.00258161 -1.57676e-05)
(0.193455 0.00251492 -1.57142e-05)
(0.193002 0.00244961 -1.56646e-05)
(0.19254 0.00238557 -1.56203e-05)
(0.192067 0.00232271 -1.55826e-05)
(0.191585 0.00226093 -1.55525e-05)
(0.191093 0.00220017 -1.55308e-05)
(0.190592 0.00214034 -1.55183e-05)
(0.190082 0.00208138 -1.55156e-05)
(0.189563 0.00202322 -1.55233e-05)
(0.189035 0.00196582 -1.55418e-05)
(0.188499 0.00190912 -1.55715e-05)
(0.187954 0.00185305 -1.56128e-05)
(0.187402 0.00179757 -1.56658e-05)
(0.186842 0.00174264 -1.57307e-05)
(0.186275 0.00168819 -1.58075e-05)
(0.185701 0.00163419 -1.58961e-05)
(0.18512 0.0015806 -1.59964e-05)
(0.184534 0.00152735 -1.61078e-05)
(0.183942 0.00147443 -1.62298e-05)
(0.183345 0.00142178 -1.63617e-05)
(0.182743 0.00136937 -1.65023e-05)
(0.182137 0.00131717 -1.66504e-05)
(0.181528 0.00126514 -1.68044e-05)
(0.180916 0.00121325 -1.69622e-05)
(0.180301 0.00116148 -1.71215e-05)
(0.179685 0.0011098 -1.72795e-05)
(0.179068 0.00105819 -1.74329e-05)
(0.178451 0.00100664 -1.7578e-05)
(0.177834 0.000955135 -1.77102e-05)
(0.177218 0.000903665 -1.78245e-05)
(0.176603 0.000852227 -1.79151e-05)
(0.175992 0.000800823 -1.79755e-05)
(0.175384 0.000749462 -1.79981e-05)
(0.174779 0.000698156 -1.79744e-05)
(0.17418 0.000646929 -1.7895e-05)
(0.173586 0.000595809 -1.77491e-05)
(0.172998 0.000544839 -1.75248e-05)
(0.172418 0.000494074 -1.72089e-05)
(0.171845 0.000443589 -1.67868e-05)
(0.17128 0.000393486 -1.62429e-05)
(0.170724 0.000343911 -1.55608e-05)
(0.170177 0.000295072 -1.47248e-05)
(0.16964 0.000247282 -1.3722e-05)
(0.169113 0.00020104 -1.25487e-05)
(0.168596 0.000157185 -1.12247e-05)
(0.168089 0.000117225 -9.82692e-06)
(0.167594 8.39265e-05 -8.56066e-06)
(0.167116 6.14557e-05 -7.84162e-06)
(0.166558 4.89596e-05 -7.99515e-06)
(0.197241 0.00463208 1.54382e-07)
(0.19737 0.00499106 4.79467e-07)
(0.197538 0.00531956 8.52846e-07)
(0.197737 0.00561238 1.26109e-06)
(0.197958 0.00586939 1.66552e-06)
(0.198192 0.00609204 2.03546e-06)
(0.198435 0.00628177 2.35374e-06)
(0.198684 0.00643992 2.60749e-06)
(0.198936 0.0065679 2.78497e-06)
(0.199187 0.00666717 2.87818e-06)
(0.199435 0.00673905 2.88396e-06)
(0.199679 0.00678472 2.80248e-06)
(0.199916 0.00680534 2.63557e-06)
(0.200145 0.00680204 2.38605e-06)
(0.200364 0.00677604 2.05748e-06)
(0.200571 0.00672868 1.65405e-06)
(0.200764 0.00666141 1.18038e-06)
(0.200942 0.00657587 6.41463e-07)
(0.201103 0.00647382 4.26834e-08)
(0.201246 0.0063572 -6.10083e-07)
(0.201371 0.00622804 -1.31039e-06)
(0.201476 0.00608847 -2.05115e-06)
(0.201561 0.00594063 -2.82455e-06)
(0.201626 0.00578665 -3.62213e-06)
(0.201671 0.00562861 -4.43476e-06)
(0.201696 0.00546844 -5.2529e-06)
(0.201703 0.00530792 -6.06671e-06)
(0.201692 0.00514866 -6.86639e-06)
(0.201665 0.00499201 -7.64247e-06)
(0.201621 0.00483912 -8.3861e-06)
(0.201563 0.00469088 -9.08939e-06)
(0.201492 0.00454797 -9.74564e-06)
(0.201408 0.00441082 -1.03495e-05)
(0.201314 0.0042797 -1.08973e-05)
(0.201209 0.00415469 -1.13866e-05)
(0.201096 0.00403573 -1.18168e-05)
(0.200974 0.00392264 -1.21885e-05)
(0.200844 0.00381515 -1.25036e-05)
(0.200707 0.00371295 -1.27652e-05)
(0.200563 0.00361566 -1.2977e-05)
(0.200413 0.00352291 -1.31435e-05)
(0.200256 0.00343429 -1.32694e-05)
(0.200094 0.00334942 -1.33598e-05)
(0.199925 0.00326795 -1.34197e-05)
(0.19975 0.00318952 -1.3454e-05)
(0.199569 0.00311383 -1.34674e-05)
(0.199381 0.00304059 -1.34641e-05)
(0.199188 0.00296955 -1.34481e-05)
(0.198987 0.00290047 -1.3423e-05)
(0.19878 0.00283316 -1.33919e-05)
(0.198566 0.00276744 -1.33575e-05)
(0.198345 0.00270315 -1.33222e-05)
(0.198117 0.00264016 -1.32879e-05)
(0.197881 0.00257835 -1.32566e-05)
(0.197638 0.0025176 -1.32294e-05)
(0.197388 0.00245782 -1.32078e-05)
(0.19713 0.00239892 -1.31926e-05)
(0.196864 0.00234082 -1.31847e-05)
(0.19659 0.00228345 -1.31849e-05)
(0.196308 0.00222672 -1.31936e-05)
(0.196019 0.00217057 -1.32115e-05)
(0.195722 0.00211494 -1.32388e-05)
(0.195416 0.00205977 -1.32759e-05)
(0.195103 0.00200499 -1.3323e-05)
(0.194782 0.00195054 -1.33802e-05)
(0.194454 0.00189637 -1.34475e-05)
(0.194117 0.00184242 -1.35248e-05)
(0.193773 0.00178864 -1.36118e-05)
(0.193422 0.00173498 -1.37082e-05)
(0.193064 0.00168138 -1.38134e-05)
(0.192698 0.00162781 -1.39268e-05)
(0.192325 0.00157422 -1.40472e-05)
(0.191946 0.00152056 -1.41736e-05)
(0.191561 0.0014668 -1.43044e-05)
(0.191169 0.0014129 -1.44378e-05)
(0.190772 0.00135883 -1.45717e-05)
(0.190369 0.00130457 -1.47035e-05)
(0.189961 0.00125008 -1.48301e-05)
(0.189548 0.00119535 -1.49481e-05)
(0.189131 0.00114037 -1.50534e-05)
(0.18871 0.00108513 -1.51413e-05)
(0.188286 0.00102962 -1.52066e-05)
(0.187859 0.000973854 -1.5243e-05)
(0.187429 0.000917833 -1.52438e-05)
(0.186997 0.000861578 -1.52011e-05)
(0.186563 0.000805118 -1.5106e-05)
(0.186129 0.00074849 -1.4949e-05)
(0.185694 0.000691746 -1.4719e-05)
(0.185259 0.000634956 -1.44042e-05)
(0.184825 0.000578209 -1.39919e-05)
(0.184391 0.000521632 -1.3469e-05)
(0.18396 0.000465394 -1.28228e-05)
(0.183529 0.000409737 -1.20427e-05)
(0.183101 0.000355016 -1.11241e-05)
(0.182676 0.000301767 -1.00755e-05)
(0.182253 0.000250832 -8.93349e-06)
(0.181834 0.000203531 -7.78682e-06)
(0.181421 0.000161733 -6.79607e-06)
(0.181021 0.000126601 -6.07784e-06)
(0.180543 9.13459e-05 -4.96199e-06)
(0.197654 0.00451142 7.43446e-08)
(0.197755 0.0048186 2.34898e-07)
(0.197886 0.00510651 4.36421e-07)
(0.198043 0.00536989 6.82139e-07)
(0.198221 0.00560642 9.52945e-07)
(0.198415 0.00581553 1.22596e-06)
(0.19862 0.0059973 1.48406e-06)
(0.198832 0.00615209 1.71441e-06)
(0.199048 0.00628047 1.90599e-06)
(0.199267 0.00638317 2.05e-06)
(0.199485 0.00646099 2.14077e-06)
(0.1997 0.00651478 2.17532e-06)
(0.199911 0.00654545 2.15232e-06)
(0.200116 0.00655394 2.07139e-06)
(0.200314 0.00654132 1.93274e-06)
(0.200503 0.00650877 1.73708e-06)
(0.200681 0.00645757 1.48547e-06)
(0.200847 0.00638918 1.17924e-06)
(0.201001 0.00630515 8.20065e-07)
(0.201141 0.00620717 4.10072e-07)
(0.201267 0.00609702 -4.80477e-08)
(0.201377 0.00597655 -5.5088e-07)
(0.201472 0.00584762 -1.09417e-06)
(0.201552 0.00571211 -1.67272e-06)
(0.201617 0.00557183 -2.28044e-06)
(0.201667 0.00542852 -2.91033e-06)
(0.201703 0.00528378 -3.55464e-06)
(0.201726 0.00513907 -4.20513e-06)
(0.201736 0.00499566 -4.85325e-06)
(0.201734 0.00485466 -5.49054e-06)
(0.201722 0.00471695 -6.10885e-06)
(0.2017 0.00458325 -6.70072e-06)
(0.20167 0.00445406 -7.25958e-06)
(0.201632 0.00432975 -7.78001e-06)
(0.201588 0.00421049 -8.25783e-06)
(0.201537 0.00409636 -8.69021e-06)
(0.201482 0.0039873 -9.07563e-06)
(0.201423 0.00388317 -9.41386e-06)
(0.201359 0.00378377 -9.70577e-06)
(0.201293 0.00368885 -9.95325e-06)
(0.201223 0.00359812 -1.0159e-05)
(0.20115 0.00351128 -1.03263e-05)
(0.201074 0.00342802 -1.04588e-05)
(0.200996 0.00334804 -1.05606e-05)
(0.200916 0.00327105 -1.06357e-05)
(0.200832 0.00319677 -1.06881e-05)
(0.200746 0.00312496 -1.07218e-05)
(0.200658 0.00305537 -1.07403e-05)
(0.200566 0.0029878 -1.0747e-05)
(0.200471 0.00292204 -1.0745e-05)
(0.200373 0.00285793 -1.07369e-05)
(0.200272 0.00279531 -1.07253e-05)
(0.200166 0.00273403 -1.07121e-05)
(0.200057 0.00267397 -1.06991e-05)
(0.199944 0.00261501 -1.0688e-05)
(0.199827 0.00255703 -1.06798e-05)
(0.199705 0.00249995 -1.06758e-05)
(0.199579 0.00244367 -1.06768e-05)
(0.199448 0.0023881 -1.06835e-05)
(0.199312 0.00233316 -1.06966e-05)
(0.199172 0.00227877 -1.07165e-05)
(0.199026 0.00222484 -1.07436e-05)
(0.198874 0.00217132 -1.07781e-05)
(0.198718 0.00211813 -1.08203e-05)
(0.198555 0.00206519 -1.08703e-05)
(0.198387 0.00201244 -1.09279e-05)
(0.198214 0.00195981 -1.09932e-05)
(0.198034 0.00190725 -1.10659e-05)
(0.197849 0.00185468 -1.11455e-05)
(0.197657 0.00180206 -1.12316e-05)
(0.19746 0.00174932 -1.13235e-05)
(0.197257 0.00169641 -1.14203e-05)
(0.197048 0.00164328 -1.15209e-05)
(0.196832 0.00158988 -1.16238e-05)
(0.196611 0.00153617 -1.17275e-05)
(0.196384 0.00148211 -1.183e-05)
(0.196152 0.00142766 -1.19288e-05)
(0.195913 0.0013728 -1.20214e-05)
(0.195669 0.00131749 -1.21044e-05)
(0.195419 0.00126171 -1.21743e-05)
(0.195165 0.00120545 -1.22267e-05)
(0.194905 0.00114871 -1.22568e-05)
(0.194639 0.00109148 -1.22591e-05)
(0.19437 0.00103378 -1.22273e-05)
(0.194095 0.000975605 -1.21543e-05)
(0.193816 0.000917 -1.20323e-05)
(0.193534 0.000857999 -1.18524e-05)
(0.193247 0.000798657 -1.16052e-05)
(0.192956 0.000739048 -1.12801e-05)
(0.192663 0.000679268 -1.08666e-05)
(0.192366 0.00061945 -1.03541e-05)
(0.192066 0.000559775 -9.73361e-06)
(0.191763 0.000500494 -8.9996e-06)
(0.191458 0.000441965 -8.15425e-06)
(0.191151 0.000384702 -7.21389e-06)
(0.190842 0.000329436 -6.21794e-06)
(0.190533 0.00027713 -5.23313e-06)
(0.190225 0.000228664 -4.31467e-06)
(0.189923 0.000183212 -3.28522e-06)
(0.189551 0.000133016 -1.02629e-06)
(0.198026 0.00440561 1.71048e-09)
(0.198107 0.00467058 1.53529e-08)
(0.198209 0.00492285 6.42217e-08)
(0.198334 0.00515808 1.58947e-07)
(0.198477 0.00537344 2.94728e-07)
(0.198635 0.00556732 4.59746e-07)
(0.198805 0.00573889 6.41831e-07)
(0.198982 0.00588775 8.30151e-07)
(0.199165 0.00601385 1.0147e-06)
(0.199351 0.00611738 1.18642e-06)
(0.199538 0.00619872 1.3379e-06)
(0.199724 0.0062584 1.46356e-06)
(0.199908 0.00629705 1.5592e-06)
(0.200087 0.00631543 1.62155e-06)
(0.200261 0.00631438 1.64791e-06)
(0.200428 0.0062949 1.63602e-06)
(0.200587 0.00625809 1.58389e-06)
(0.200736 0.00620516 1.48979e-06)
(0.200875 0.00613746 1.3523e-06)
(0.201003 0.00605643 1.17034e-06)
(0.201119 0.00596358 9.43411e-07)
(0.201223 0.00586052 6.71697e-07)
(0.201314 0.00574884 3.56269e-07)
(0.201393 0.00563019 -7.87201e-10)
(0.20146 0.00550613 -3.96284e-07)
(0.201514 0.00537822 -8.25919e-07)
(0.201557 0.00524788 -1.28434e-06)
(0.201589 0.00511645 -1.76527e-06)
(0.20161 0.00498511 -2.26175e-06)