/*--------------------------------*- C++ -*----------------------------------*\
| =========                 |                                                 |
| \\      /  F ield         | OpenFOAM: The Open Source CFD Toolbox           |
|  \\    /   O peration     | Version:  2.3.0                                 |
|   \\  /    A nd           | Web:      www.OpenFOAM.org                      |
|    \\/     M anipulation  |                                                 |
\*---------------------------------------------------------------------------*/
FoamFile
{
    version     2.0;
    format      ascii;
    class       surfaceScalarField;
    location    "0.5";
    object      phi_0;
}
// * * * * * * * * * * * * * * * * * * * * * * * * * * * * * * * * * * * * * //

dimensions      [0 3 -1 0 0 0 0];

internalField   nonuniform List<scalar> 
4357
(
5.05435e-08
1.71391e-09
-5.22574e-08
4.83807e-08
2.16284e-09
4.59803e-08
2.40041e-09
4.35229e-08
2.45733e-09
4.10759e-08
2.44708e-09
3.86389e-08
2.43691e-09
3.62053e-08
2.43363e-09
3.37809e-08
2.42443e-09
3.13809e-08
2.39997e-09
2.90262e-08
2.35475e-09
2.67394e-08
2.28675e-09
2.45435e-08
2.19595e-09
2.24608e-08
2.08265e-09
2.05156e-08
1.94525e-09
1.87289e-08
1.78665e-09
1.71153e-08
1.61358e-09
1.5687e-08
1.42838e-09
1.44491e-08
1.23783e-09
1.3399e-08
1.05017e-09
1.25254e-08
8.73597e-10
1.18106e-08
7.14761e-10
1.12327e-08
5.77906e-10
1.0768e-08
4.6469e-10
1.03933e-08
3.74667e-10
1.00875e-08
3.0584e-10
9.83214e-09
2.55368e-10
9.61248e-09
2.19657e-10
9.41727e-09
1.9521e-10
9.23787e-09
1.79407e-10
9.06788e-09
1.69984e-10
8.90304e-09
1.64838e-10
8.7408e-09
1.62246e-10
8.57992e-09
1.60881e-10
8.42003e-09
1.59885e-10
8.26135e-09
1.58687e-10
8.10434e-09
1.57005e-10
7.94968e-09
1.54657e-10
7.79797e-09
1.51709e-10
7.64968e-09
1.48295e-10
7.50519e-09
1.44486e-10
7.36491e-09
1.40283e-10
7.2291e-09
1.35813e-10
7.09795e-09
1.31146e-10
6.97151e-09
1.26439e-10
6.84978e-09
1.21733e-10
6.73264e-09
1.17139e-10
6.62e-09
1.12642e-10
6.51165e-09
1.08344e-10
6.40746e-09
1.04198e-10
6.30717e-09
1.00282e-10
6.21065e-09
9.65233e-11
6.11764e-09
9.30102e-11
6.02799e-09
8.96468e-11
5.94147e-09
8.65249e-11
5.85795e-09
8.35194e-11
5.77723e-09
8.0724e-11
5.69922e-09
7.80054e-11
5.62374e-09
7.54846e-11
5.55072e-09
7.30189e-11
5.47997e-09
7.07459e-11
5.4115e-09
6.84664e-11
5.34516e-09
6.63441e-11
5.28094e-09
6.42156e-11
5.21867e-09
6.22743e-11
5.15842e-09
6.02548e-11
5.10001e-09
5.84038e-11
5.04354e-09
5.64671e-11
4.98883e-09
5.47183e-11
4.93599e-09
5.28375e-11
4.88481e-09
5.11785e-11
4.83544e-09
4.93679e-11
4.78765e-09
4.77909e-11
4.74164e-09
4.60106e-11
4.69715e-09
4.44924e-11
4.65441e-09
4.27376e-11
4.61311e-09
4.12993e-11
4.57352e-09
3.95883e-11
4.53527e-09
3.82519e-11
4.4987e-09
3.6567e-11
4.46341e-09
3.52989e-11
4.42982e-09
3.35878e-11
4.39748e-09
3.23335e-11
4.36698e-09
3.0506e-11
4.3378e-09
2.91765e-11
4.31062e-09
2.71806e-11
4.28476e-09
2.58658e-11
4.26084e-09
2.39114e-11
4.2379e-09
2.29471e-11
4.21652e-09
2.13797e-11
4.19538e-09
2.11422e-11
4.17518e-09
2.01937e-11
4.15463e-09
2.05496e-11
4.13502e-09
1.96126e-11
4.1151e-09
1.99189e-11
4.0965e-09
1.8598e-11
4.07749e-09
1.90169e-11
4.05994e-09
1.75434e-11
4.04128e-09
1.86626e-11
4.02438e-09
1.68965e-11
2.13519e-11
5.75559e-08
1.68161e-09
-5.75236e-08
5.75808e-08
2.13795e-09
5.74384e-08
2.54275e-09
5.7097e-08
2.79872e-09
5.6617e-08
2.92713e-09
5.60486e-08
3.0053e-09
5.54029e-08
3.0793e-09
5.46693e-08
3.15804e-09
5.38408e-08
3.22853e-09
5.29206e-08
3.27496e-09
5.19187e-08
3.28857e-09
5.08472e-08
3.2675e-09
4.97175e-08
3.21233e-09
4.85394e-08
3.12339e-09
4.73232e-08
3.00285e-09
4.60827e-08
2.85402e-09
4.48307e-08
2.68043e-09
4.35801e-08
2.4884e-09
4.23438e-08
2.28651e-09
4.11331e-08
2.08425e-09
3.99575e-08
1.89038e-09
3.88236e-08
1.71178e-09
3.77356e-08
1.55269e-09
3.66954e-08
1.4149e-09
3.57031e-08
1.29812e-09
3.47568e-08
1.20169e-09
3.38544e-08
1.12202e-09
3.29954e-08
1.05421e-09
3.21769e-08
9.97928e-10
3.13959e-08
9.50926e-10
3.06499e-08
9.10901e-10
2.99362e-08
8.75921e-10
2.92527e-08
8.44355e-10
2.85975e-08
8.15107e-10
2.79689e-08
7.87335e-10
2.73653e-08
7.60586e-10
2.67856e-08
7.34288e-10
2.6229e-08
7.08362e-10
2.56939e-08
6.83356e-10
2.51795e-08
6.58952e-10
2.46847e-08
6.35049e-10
2.42088e-08
6.11755e-10
2.37508e-08
5.8907e-10
2.33101e-08
5.67179e-10
2.28857e-08
5.46074e-10
2.2477e-08
5.25887e-10
2.20831e-08
5.06525e-10
2.17033e-08
4.88126e-10
2.1337e-08
4.70562e-10
2.09833e-08
4.53935e-10
2.06418e-08
4.38078e-10
2.03117e-08
4.23114e-10
1.99925e-08
4.08844e-10
1.96836e-08
3.95408e-10
1.93846e-08
3.82546e-10
1.90949e-08
3.70386e-10
1.88142e-08
3.58673e-10
1.85421e-08
3.47605e-10
1.82782e-08
3.3691e-10
1.80222e-08
3.2679e-10
1.77738e-08
3.1688e-10
1.75327e-08
3.07446e-10
1.72987e-08
2.9821e-10
1.70715e-08
2.89472e-10
1.6851e-08
2.80758e-10
1.66369e-08
2.72481e-10
1.64291e-08
2.64207e-10
1.62275e-08
2.56382e-10
1.60319e-08
2.48461e-10
1.5842e-08
2.41037e-10
1.56579e-08
2.33479e-10
1.54793e-08
2.26413e-10
1.53062e-08
2.19116e-10
1.51383e-08
2.12345e-10
1.49757e-08
2.05291e-10
1.48182e-08
1.9885e-10
1.46657e-08
1.92074e-10
1.4518e-08
1.86006e-10
1.43751e-08
1.79472e-10
1.42366e-08
1.73708e-10
1.41029e-08
1.67329e-10
1.39735e-08
1.61777e-10
1.38486e-08
1.55395e-10
1.37279e-08
1.49885e-10
1.36116e-08
1.434e-10
1.34994e-08
1.38103e-10
1.33914e-08
1.31925e-10
1.32869e-08
1.27487e-10
1.3186e-08
1.22276e-10
1.30876e-08
1.19517e-10
1.29919e-08
1.15906e-10
1.28976e-08
1.14772e-10
1.28056e-08
1.11656e-10
1.27147e-08
1.10853e-10
1.26259e-08
1.07398e-10
1.25376e-08
1.07256e-10
1.24512e-08
1.04013e-10
1.23643e-08
1.05537e-10
1.22783e-08
1.02842e-10
1.08854e-10
6.25036e-08
1.79927e-09
-6.26212e-08
6.25182e-08
2.12329e-09
6.26069e-08
2.45409e-09
6.26517e-08
2.75396e-09
6.2635e-08
2.94383e-09
6.25803e-08
3.06e-09
6.25073e-08
3.15224e-09
6.24177e-08
3.24766e-09
6.23025e-08
3.34372e-09
6.21509e-08
3.42661e-09
6.19558e-08
3.48366e-09
6.17138e-08
3.50949e-09
6.1422e-08
3.50413e-09
6.10772e-08
3.4682e-09
6.06778e-08
3.40221e-09
6.02244e-08
3.30739e-09
5.97184e-08
3.18646e-09
5.91628e-08
3.044e-09
5.85628e-08
2.88648e-09
5.79254e-08
2.72173e-09
5.72581e-08
2.55769e-09
5.65684e-08
2.40141e-09
5.58631e-08
2.25799e-09
5.51476e-08
2.13046e-09
5.44259e-08
2.01981e-09
5.3702e-08
1.92559e-09
5.29785e-08
1.84553e-09
5.22557e-08
1.77702e-09
5.15351e-08
1.71854e-09
5.08175e-08
1.66847e-09
5.01035e-08
1.6249e-09
4.93934e-08
1.58608e-09
4.86873e-08
1.55041e-09
4.79857e-08
1.51675e-09
4.72888e-08
1.4842e-09
4.65972e-08
1.45219e-09
4.59112e-08
1.42024e-09
4.52313e-08
1.38831e-09
4.45582e-08
1.35647e-09
4.38924e-08
1.32472e-09
4.32345e-08
1.29294e-09
4.2585e-08
1.26124e-09
4.19445e-08
1.22962e-09
4.13134e-08
1.1983e-09
4.06921e-08
1.16732e-09
4.00811e-08
1.13689e-09
3.94807e-08
1.10695e-09
3.88911e-08
1.0777e-09
3.83126e-08
1.04906e-09
3.77454e-08
1.02119e-09
3.71895e-08
9.93958e-10
3.66451e-08
9.67531e-10
3.61121e-08
9.41763e-10
3.55907e-08
9.1684e-10
3.50807e-08
8.92536e-10
3.45821e-08
8.68956e-10
3.40949e-08
8.45893e-10
3.3619e-08
8.23566e-10
3.31541e-08
8.01794e-10
3.27002e-08
7.80706e-10
3.22571e-08
7.5996e-10
3.18247e-08
7.39788e-10
3.14029e-08
7.20051e-10
3.09914e-08
7.00941e-10
3.05901e-08
6.8205e-10
3.01989e-08
6.63696e-10
2.98176e-08
6.45573e-10
2.9446e-08
6.27975e-10
2.90839e-08
6.10525e-10
2.87313e-08
5.93667e-10
2.83878e-08
5.76944e-10
2.80535e-08
5.60746e-10
2.7728e-08
5.44583e-10
2.74114e-08
5.28941e-10
2.71034e-08
5.13327e-10
2.68039e-08
4.98314e-10
2.65127e-08
4.83333e-10
2.62296e-08
4.69013e-10
2.59545e-08
4.54615e-10
2.56873e-08
4.40882e-10
2.54277e-08
4.26966e-10
2.51758e-08
4.13698e-10
2.49311e-08
4.00053e-10
2.4694e-08
3.86967e-10
2.4464e-08
3.73441e-10
2.42413e-08
3.60826e-10
2.40251e-08
3.48139e-10
2.38155e-08
3.37031e-10
2.36116e-08
3.26191e-10
2.34132e-08
3.17874e-10
2.32191e-08
3.10054e-10
2.30293e-08
3.04564e-10
2.28429e-08
2.98091e-10
2.26605e-08
2.93243e-10
2.2481e-08
2.86912e-10
2.2305e-08
2.83239e-10
2.21306e-08
2.78362e-10
2.19591e-08
2.77022e-10
2.17874e-08
2.74601e-10
2.79484e-10
6.77854e-08
1.92137e-09
-6.79075e-08
6.77339e-08
2.1748e-09
6.7753e-08
2.43497e-09
6.78062e-08
2.70074e-09
6.78498e-08
2.90032e-09
6.78673e-08
3.04247e-09
6.78723e-08
3.14719e-09
6.78833e-08
3.23672e-09
6.79022e-08
3.32476e-09
6.7922e-08
3.40683e-09
6.7934e-08
3.47167e-09
6.7931e-08
3.51245e-09
6.79078e-08
3.52741e-09
6.78594e-08
3.51655e-09
6.77816e-08
3.48004e-09
6.76702e-08
3.41877e-09
6.75218e-08
3.3348e-09
6.73344e-08
3.23148e-09
6.71074e-08
3.11342e-09
6.68427e-08
2.98649e-09
6.65434e-08
2.85697e-09
6.6214e-08
2.73084e-09
6.58591e-08
2.61289e-09
6.54832e-08
2.5063e-09
6.50905e-08
2.41254e-09
6.46844e-08
2.33166e-09
6.42673e-08
2.26271e-09
6.384e-08
2.20425e-09
6.34039e-08
2.15465e-09
6.29599e-08
2.11245e-09
6.25087e-08
2.07615e-09
6.20504e-08
2.04433e-09
6.15852e-08
2.01563e-09
6.1113e-08
1.98895e-09
6.06338e-08
1.96342e-09
6.01476e-08
1.9384e-09
5.96544e-08
1.91346e-09
5.91543e-08
1.88836e-09
5.86479e-08
1.86295e-09
5.81354e-08
1.83722e-09
5.76172e-08
1.81111e-09
5.70938e-08
1.78463e-09
5.65656e-08
1.75779e-09
5.60332e-08
1.73072e-09
5.5497e-08
1.70351e-09
5.49576e-08
1.67626e-09
5.44156e-08
1.64897e-09
5.38716e-08
1.62175e-09
5.3326e-08
1.5946e-09
5.27796e-08
1.56761e-09
5.22328e-08
1.5408e-09
5.16861e-08
1.5142e-09
5.114e-08
1.48783e-09
5.05952e-08
1.46173e-09
5.00518e-08
1.43586e-09
4.95107e-08
1.41012e-09
4.8972e-08
1.38452e-09
4.84366e-08
1.35905e-09
4.79045e-08
1.33388e-09
4.73763e-08
1.30887e-09
4.68523e-08
1.28397e-09
4.6333e-08
1.25905e-09
4.58187e-08
1.23443e-09
4.53097e-08
1.20985e-09
4.48064e-08
1.18539e-09
4.43092e-08
1.16089e-09
4.38181e-08
1.13665e-09
4.33338e-08
1.11231e-09
4.28561e-08
1.08822e-09
4.23856e-08
1.06411e-09
4.19222e-08
1.04038e-09
4.14665e-08
1.01648e-09
4.10181e-08
9.92944e-10
4.05779e-08
9.69171e-10
4.01453e-08
9.45924e-10
3.97211e-08
9.22492e-10
3.93047e-08
8.99789e-10
3.88968e-08
8.76854e-10
3.84967e-08
8.5468e-10
3.81055e-08
8.32143e-10
3.7722e-08
8.10475e-10
3.73474e-08
7.8826e-10
3.69806e-08
7.66905e-10
3.66229e-08
7.44591e-10
3.62731e-08
7.23308e-10
3.59326e-08
7.01308e-10
3.55994e-08
6.81338e-10
3.52751e-08
6.61317e-10
3.49571e-08
6.44223e-10
3.4647e-08
6.27991e-10
3.43413e-08
6.15697e-10
3.40426e-08
6.03304e-10
3.37474e-08
5.9329e-10
3.34594e-08
5.81183e-10
3.31744e-08
5.71913e-10
3.28966e-08
5.61107e-10
3.26199e-08
5.55072e-10
3.23497e-08
5.47211e-10
3.20784e-08
5.45857e-10
5.45795e-10
7.3459e-08
2.04485e-09
-7.35825e-08
7.33776e-08
2.25623e-09
7.33461e-08
2.46642e-09
7.3364e-08
2.68284e-09
7.33926e-08
2.87179e-09
7.34122e-08
3.02284e-09
7.34213e-08
3.13809e-09
7.34303e-08
3.22771e-09
7.34462e-08
3.30884e-09
7.34704e-08
3.38266e-09
7.34975e-08
3.44451e-09
7.35209e-08
3.48913e-09
7.35352e-08
3.51311e-09
7.35366e-08
3.51509e-09
7.35217e-08
3.49499e-09
7.34868e-08
3.4537e-09
7.34286e-08
3.39299e-09
7.33445e-08
3.31551e-09
7.32332e-08
3.2248e-09
7.30944e-08
3.12529e-09
7.29295e-08
3.02186e-09
7.2741e-08
2.91927e-09
7.25324e-08
2.82157e-09
7.23069e-08
2.73171e-09
7.20681e-08
2.65138e-09
7.18186e-08
2.58119e-09
7.15603e-08
2.52095e-09
7.12948e-08
2.4698e-09
7.10229e-08
2.42655e-09
7.07454e-08
2.38992e-09
7.04628e-08
2.35873e-09
7.01753e-08
2.33186e-09
6.98827e-08
2.30825e-09
6.95847e-08
2.28693e-09
6.9281e-08
2.26717e-09
6.89711e-08
2.24829e-09
6.86546e-08
2.2299e-09
6.83314e-08
2.2116e-09
6.80011e-08
2.19325e-09
6.76636e-08
2.17469e-09
6.73188e-08
2.1559e-09
6.69667e-08
2.13676e-09
6.66071e-08
2.11736e-09
6.62402e-08
2.09762e-09
6.5866e-08
2.07777e-09
6.54845e-08
2.0577e-09
6.50959e-08
2.03759e-09
6.47004e-08
2.01726e-09
6.42981e-08
1.99692e-09
6.38893e-08
1.97634e-09
6.34743e-08
1.95584e-09
6.30534e-08
1.93512e-09
6.26266e-08
1.91455e-09
6.21945e-08
1.89384e-09
6.1757e-08
1.87336e-09
6.13147e-08
1.85249e-09
6.08675e-08
1.8317e-09
6.04162e-08
1.81036e-09
5.99608e-08
1.78924e-09
5.95021e-08
1.76756e-09
5.90401e-08
1.74604e-09
5.85753e-08
1.72382e-09
5.81076e-08
1.7021e-09
5.76379e-08
1.67957e-09
5.71661e-08
1.65718e-09
5.66933e-08
1.63372e-09
5.62193e-08
1.61066e-09
5.57451e-08
1.58645e-09
5.52705e-08
1.56288e-09
5.47963e-08
1.53828e-09
5.43221e-08
1.51454e-09
5.38494e-08
1.48925e-09
5.33776e-08
1.46475e-09
5.29083e-08
1.43845e-09
5.24407e-08
1.41351e-09
5.19763e-08
1.38686e-09
5.1514e-08
1.36209e-09
5.10556e-08
1.33526e-09
5.05999e-08
1.31041e-09
5.0149e-08
1.28304e-09
4.97013e-08
1.25813e-09
4.92593e-08
1.23033e-09
4.88209e-08
1.20533e-09
4.8389e-08
1.17647e-09
4.79615e-08
1.15081e-09
4.75416e-08
1.12116e-09
4.71263e-08
1.0967e-09
4.67186e-08
1.06896e-09
4.63144e-08
1.04841e-09
4.59172e-08
1.02526e-09
4.55214e-08
1.01148e-09
4.5132e-08
9.92677e-10
4.47438e-08
9.81472e-10
4.43637e-08
9.61261e-10
4.39849e-08
9.50745e-10
4.36148e-08
9.31221e-10
4.32441e-08
9.25788e-10
4.28814e-08
9.09917e-10
4.25158e-08
9.11428e-10
9.03568e-10
7.9573e-08
2.17302e-09
-7.97011e-08
7.94752e-08
2.35401e-09
7.9413e-08
2.52858e-09
7.9391e-08
2.70486e-09
7.93903e-08
2.87245e-09
7.93943e-08
3.01888e-09
7.93953e-08
3.13708e-09
7.93914e-08
3.23159e-09
7.93892e-08
3.31109e-09
7.93922e-08
3.37966e-09
7.93991e-08
3.43762e-09
7.94055e-08
3.48269e-09
7.94067e-08
3.51193e-09
7.93986e-08
3.52314e-09
7.93781e-08
3.51555e-09
7.93422e-08
3.48961e-09
7.92884e-08
3.44678e-09
7.92147e-08
3.38919e-09
7.91198e-08
3.3197e-09
7.90034e-08
3.2417e-09
7.88663e-08
3.15899e-09
7.87102e-08
3.07528e-09
7.85379e-08
2.99391e-09
7.83522e-08
2.91747e-09
7.81558e-08
2.84778e-09
7.79512e-08
2.78575e-09
7.77405e-08
2.73167e-09
7.75252e-08
2.68506e-09
7.73065e-08
2.64526e-09
7.70852e-08
2.61126e-09
7.68617e-08
2.58222e-09
7.66364e-08
2.55716e-09
7.64092e-08
2.53539e-09
7.61801e-08
2.51602e-09
7.59487e-08
2.49856e-09
7.57147e-08
2.48228e-09
7.54777e-08
2.46694e-09
7.52373e-08
2.45196e-09
7.49932e-08
2.43739e-09
7.47451e-08
2.42281e-09
7.44926e-08
2.40841e-09
7.42355e-08
2.39378e-09
7.39737e-08
2.37924e-09
7.37069e-08
2.3644e-09
7.34349e-08
2.34979e-09
7.31576e-08
2.33493e-09
7.28749e-08
2.32036e-09
7.25866e-08
2.3055e-09
7.22926e-08
2.29093e-09
7.1993e-08
2.27592e-09
7.16876e-08
2.26126e-09
7.13766e-08
2.24609e-09
7.10598e-08
2.23137e-09
7.07375e-08
2.21622e-09
7.04091e-08
2.20168e-09
7.00752e-08
2.18646e-09
6.97351e-08
2.17174e-09
6.93895e-08
2.15601e-09
6.90379e-08
2.14084e-09
6.8681e-08
2.12443e-09
6.83185e-08
2.10857e-09
6.79509e-08
2.09137e-09
6.75777e-08
2.07534e-09
6.71994e-08
2.05783e-09
6.68155e-08
2.04114e-09
6.64268e-08
2.0224e-09
6.60329e-08
2.00459e-09
6.5635e-08
1.98427e-09
6.52327e-08
1.96528e-09
6.48268e-08
1.94416e-09
6.44161e-08
1.9252e-09
6.40019e-08
1.90349e-09
6.35831e-08
1.88352e-09
6.3162e-08
1.85961e-09
6.27375e-08
1.83795e-09
6.23117e-08
1.81269e-09
6.18826e-08
1.79116e-09
6.14521e-08
1.76577e-09
6.10184e-08
1.74415e-09
6.05841e-08
1.71735e-09
6.01475e-08
1.69472e-09
5.97115e-08
1.6663e-09
5.92738e-08
1.64307e-09
5.88376e-08
1.61262e-09
5.84008e-08
1.58768e-09
5.79675e-08
1.55441e-09
5.75345e-08
1.52968e-09
5.71055e-08
1.49797e-09
5.66751e-08
1.47878e-09
5.6247e-08
1.45339e-09
5.5815e-08
1.44347e-09
5.53849e-08
1.42284e-09
5.49519e-08
1.41448e-09
5.45238e-08
1.38928e-09
5.40945e-08
1.38011e-09
5.36714e-08
1.35428e-09
5.32452e-08
1.35196e-09
5.28237e-08
1.33147e-09
5.2396e-08
1.33909e-09
1.32229e-09
8.61691e-08
2.3075e-09
-8.63036e-08
8.60577e-08
2.46544e-09
8.5973e-08
2.61331e-09
8.5916e-08
2.7618e-09
8.58824e-08
2.90613e-09
8.5862e-08
3.03926e-09
8.58441e-08
3.15494e-09
8.58241e-08
3.25162e-09
8.58033e-08
3.33186e-09
8.5784e-08
3.39898e-09
8.57666e-08
3.45501e-09
8.57494e-08
3.49996e-09
8.57288e-08
3.53249e-09
8.57011e-08
3.5508e-09
8.5663e-08
3.55372e-09
8.56115e-08
3.54108e-09
8.55445e-08
3.51379e-09
8.54602e-08
3.47344e-09
8.53576e-08
3.42229e-09
8.52364e-08
3.36291e-09
8.50971e-08
3.29826e-09
8.49412e-08
3.23118e-09
8.47707e-08
3.16447e-09
8.45878e-08
3.10032e-09
8.4395e-08
3.04057e-09
8.41946e-08
2.98617e-09
8.39885e-08
2.93776e-09
8.37784e-08
2.89515e-09
8.35656e-08
2.85815e-09
8.33508e-08
2.82598e-09
8.31348e-08
2.79821e-09
8.29181e-08
2.77395e-09
8.27006e-08
2.75281e-09
8.24827e-08
2.73394e-09
8.22641e-08
2.71715e-09
8.20448e-08
2.70161e-09
8.18244e-08
2.68734e-09
8.16028e-08
2.67358e-09
8.13796e-08
2.66061e-09
8.11547e-08
2.64773e-09
8.09277e-08
2.63542e-09
8.06985e-08
2.62291e-09
8.04669e-08
2.61087e-09
8.02328e-08
2.59851e-09
7.99958e-08
2.58676e-09
7.97561e-08
2.57468e-09
7.95131e-08
2.56327e-09
7.92672e-08
2.55147e-09
7.90177e-08
2.54038e-09
7.8765e-08
2.52869e-09
7.85085e-08
2.51771e-09
7.82486e-08
2.50601e-09
7.79848e-08
2.49515e-09
7.77174e-08
2.48359e-09
7.7446e-08
2.47312e-09
7.71707e-08
2.46172e-09
7.68911e-08
2.4514e-09
7.66073e-08
2.43977e-09
7.63189e-08
2.42927e-09
7.60263e-08
2.41698e-09
7.57291e-08
2.40581e-09
7.54277e-08
2.3927e-09
7.51215e-08
2.38157e-09
7.4811e-08
2.36837e-09
7.44951e-08
2.35699e-09
7.41747e-08
2.34284e-09
7.38488e-08
2.33053e-09
7.35184e-08
2.31462e-09
7.3183e-08
2.30071e-09
7.28437e-08
2.28347e-09
7.24992e-08
2.26971e-09
7.215e-08
2.25262e-09
7.17947e-08
2.23881e-09
7.14349e-08
2.21948e-09
7.10698e-08
2.20301e-09
7.07015e-08
2.18094e-09
7.03285e-08
2.16418e-09
6.99518e-08
2.14247e-09
6.95694e-08
2.1266e-09
6.91829e-08
2.1038e-09
6.87911e-08
2.0865e-09
6.83964e-08
2.06104e-09
6.79969e-08
2.04258e-09
6.75949e-08
2.01462e-09
6.71889e-08
1.99365e-09
6.67838e-08
1.95953e-09
6.63778e-08
1.93562e-09
6.59728e-08
1.90306e-09
6.55631e-08
1.88847e-09
6.51494e-08
1.86701e-09
6.47278e-08
1.86511e-09
6.43014e-08
1.84922e-09
6.38699e-08
1.84599e-09
6.34382e-08
1.82099e-09
6.30048e-08
1.81347e-09
6.25722e-08
1.78691e-09
6.21357e-08
1.78845e-09
6.16957e-08
1.77156e-09
6.12425e-08
1.79229e-09
1.76103e-09
9.32866e-08
2.45118e-09
-9.34303e-08
9.31602e-08
2.59181e-09
9.30543e-08
2.71919e-09
9.29695e-08
2.84663e-09
9.29042e-08
2.97145e-09
9.28536e-08
3.08986e-09
9.28106e-08
3.19788e-09
9.27698e-08
3.29249e-09
9.27287e-08
3.37293e-09
9.26874e-08
3.44033e-09
9.2646e-08
3.49638e-09
9.2604e-08
3.54198e-09
9.25594e-08
3.57707e-09
9.25094e-08
3.6008e-09
9.24508e-08
3.61232e-09
9.23807e-08
3.61112e-09
9.2297e-08
3.59759e-09
9.21977e-08
3.57267e-09
9.2082e-08
3.53799e-09
9.19496e-08
3.4953e-09
9.1801e-08
3.44693e-09
9.16371e-08
3.39506e-09
9.14595e-08
3.34206e-09
9.12701e-08
3.28974e-09
9.10708e-08
3.23982e-09
9.08637e-08
3.19324e-09
9.06506e-08
3.15085e-09
9.04331e-08
3.11266e-09
9.02124e-08
3.07887e-09
8.99895e-08
3.04889e-09
8.9765e-08
3.02268e-09
8.95396e-08
2.99938e-09
8.93134e-08
2.97897e-09
8.90868e-08
2.96055e-09
8.88598e-08
2.94423e-09
8.86323e-08
2.92908e-09
8.84042e-08
2.91542e-09
8.81755e-08
2.90226e-09
8.79459e-08
2.8902e-09
8.77154e-08
2.87824e-09
8.74837e-08
2.86715e-09
8.72508e-08
2.85583e-09
8.70163e-08
2.84529e-09
8.67805e-08
2.83436e-09
8.65429e-08
2.82435e-09
8.63037e-08
2.81388e-09
8.60626e-08
2.80437e-09
8.58197e-08
2.79436e-09
8.55747e-08
2.78537e-09
8.53277e-08
2.77567e-09
8.50785e-08
2.76694e-09
8.48272e-08
2.75735e-09
8.45734e-08
2.74889e-09
8.43174e-08
2.73957e-09
8.4059e-08
2.73159e-09
8.37981e-08
2.72254e-09
8.35346e-08
2.71496e-09
8.32685e-08
2.7059e-09
8.29993e-08
2.69843e-09
8.27274e-08
2.68887e-09
8.24523e-08
2.68095e-09
8.21743e-08
2.67062e-09
8.18931e-08
2.66285e-09
8.16089e-08
2.65254e-09
8.1321e-08
2.64488e-09
8.10298e-08
2.634e-09
8.07346e-08
2.62578e-09
8.04358e-08
2.61344e-09
8.01329e-08
2.60364e-09
7.98267e-08
2.58965e-09
7.95167e-08
2.57972e-09
7.9203e-08
2.56631e-09
7.88843e-08
2.55748e-09
7.85611e-08
2.54268e-09
7.8233e-08
2.53111e-09
7.79014e-08
2.51257e-09
7.75657e-08
2.49988e-09
7.72263e-08
2.48187e-09
7.68818e-08
2.47107e-09
7.65325e-08
2.45307e-09
7.61779e-08
2.44115e-09
7.58189e-08
2.42008e-09
7.54547e-08
2.40672e-09
7.50858e-08
2.38349e-09
7.47105e-08
2.36902e-09
7.43329e-08
2.3371e-09
7.39568e-08
2.31169e-09
7.35813e-08
2.27855e-09
7.32012e-08
2.26866e-09
7.28128e-08
2.25539e-09
7.2415e-08
2.26289e-09
7.20088e-08
2.2554e-09
7.15981e-08
2.25674e-09
7.11854e-08
2.23368e-09
7.07719e-08
2.22692e-09
7.03563e-08
2.20255e-09
6.99383e-08
2.2064e-09
6.95112e-08
2.19868e-09
6.90567e-08
2.24679e-09
2.19893e-09
1.00966e-07
2.60879e-09
-1.01123e-07
1.00822e-07
2.73539e-09
1.00696e-07
2.8455e-09
1.00586e-07
2.9563e-09
1.00492e-07
3.06574e-09
1.00411e-07
3.17108e-09
1.00339e-07
3.26963e-09
1.00273e-07
3.35895e-09
1.00208e-07
3.43754e-09
1.00143e-07
3.50502e-09
1.00078e-07
3.56199e-09
1.0001e-07
3.60911e-09
9.99407e-08
3.64683e-09
9.98665e-08
3.675e-09
9.97855e-08
3.69339e-09
9.96949e-08
3.70168e-09
9.95924e-08
3.70008e-09
9.94761e-08
3.68897e-09
9.93451e-08
3.669e-09
9.91991e-08
3.6413e-09
9.90383e-08
3.60769e-09
9.88635e-08
3.56988e-09
9.86758e-08
3.52982e-09
9.84765e-08
3.48895e-09
9.82675e-08
3.44887e-09
9.80504e-08
3.41038e-09
9.78267e-08
3.37448e-09
9.75981e-08
3.34129e-09
9.73657e-08
3.31133e-09
9.71304e-08
3.28415e-09
9.6893e-08
3.26006e-09
9.66541e-08
3.23826e-09
9.64141e-08
3.21902e-09
9.61732e-08
3.20141e-09
9.59316e-08
3.18587e-09
9.56893e-08
3.17133e-09
9.54464e-08
3.1584e-09
9.52027e-08
3.14591e-09
9.49582e-08
3.13474e-09
9.47128e-08
3.12362e-09
9.44663e-08
3.11362e-09
9.42188e-08
3.10334e-09
9.397e-08
3.09407e-09
9.372e-08
3.08436e-09
9.34686e-08
3.07577e-09
9.32158e-08
3.06666e-09
9.29616e-08
3.05866e-09
9.27058e-08
3.05009e-09
9.24485e-08
3.04271e-09
9.21895e-08
3.03462e-09
9.19289e-08
3.02755e-09
9.16666e-08
3.01966e-09
9.14025e-08
3.013e-09
9.11366e-08
3.00546e-09
9.08689e-08
2.99926e-09
9.05995e-08
2.99198e-09
9.03281e-08
2.98633e-09
9.00549e-08
2.97916e-09
8.97795e-08
2.97383e-09
8.95021e-08
2.96626e-09
8.92223e-08
2.96074e-09
8.89404e-08
2.95254e-09
8.8656e-08
2.9472e-09
8.83696e-08
2.93899e-09
8.80805e-08
2.93391e-09
8.77891e-08
2.92541e-09
8.7495e-08
2.91994e-09
8.7198e-08
2.9104e-09
8.68979e-08
2.9037e-09
8.6595e-08
2.89257e-09
8.62893e-08
2.8854e-09
8.59809e-08
2.87473e-09
8.56692e-08
2.86922e-09
8.53538e-08
2.85803e-09
8.50346e-08
2.85035e-09
8.47119e-08
2.83523e-09
8.43861e-08
2.82573e-09
8.4057e-08
2.81091e-09
8.37245e-08
2.80362e-09
8.33878e-08
2.78973e-09
8.3047e-08
2.78192e-09
8.27021e-08
2.76497e-09
8.23527e-08
2.75617e-09
8.19964e-08
2.73975e-09
8.16333e-08
2.73212e-09
8.12662e-08
2.70428e-09
8.08975e-08
2.68031e-09
8.05258e-08
2.65026e-09
8.01499e-08
2.64456e-09
7.97678e-08
2.6375e-09
7.93826e-08
2.64806e-09
7.89956e-08
2.64248e-09
7.86077e-08
2.64463e-09
7.82193e-08
2.62207e-09
7.78285e-08
2.61774e-09
7.74344e-08
2.59662e-09
7.70383e-08
2.60252e-09
7.66366e-08
2.60035e-09
7.62171e-08
2.6663e-09
2.62213e-09
1.09241e-07
2.77636e-09
-1.09408e-07
1.09086e-07
2.89023e-09
1.08941e-07
2.99053e-09
1.08807e-07
3.09003e-09
1.08686e-07
3.18752e-09
1.08575e-07
3.2817e-09
1.08474e-07
3.37106e-09
1.08378e-07
3.45397e-09
1.08287e-07
3.52913e-09
1.08196e-07
3.5957e-09
1.08105e-07
3.65341e-09
1.08012e-07
3.70233e-09
1.07916e-07
3.74274e-09
1.07816e-07
3.77482e-09
1.0771e-07
3.79879e-09
1.07597e-07
3.81482e-09
1.07474e-07
3.82345e-09
1.07338e-07
3.82458e-09
1.0719e-07
3.8173e-09
1.07029e-07
3.80272e-09
1.06854e-07
3.78233e-09
1.06667e-07
3.75738e-09
1.06467e-07
3.72945e-09
1.06256e-07
3.69961e-09
1.06036e-07
3.66925e-09
1.05807e-07
3.63906e-09
1.05572e-07
3.6101e-09
1.0533e-07
3.5825e-09
1.05085e-07
3.55703e-09
1.04835e-07
3.53334e-09
1.04583e-07
3.51202e-09
1.04329e-07
3.49233e-09
1.04074e-07
3.47483e-09
1.03816e-07
3.45856e-09
1.03558e-07
3.44422e-09
1.03299e-07
3.43068e-09
1.03038e-07
3.41878e-09
1.02777e-07
3.40723e-09
1.02515e-07
3.39713e-09
1.02251e-07
3.38702e-09
1.01987e-07
3.3782e-09
1.01721e-07
3.36908e-09
1.01454e-07
3.36114e-09
1.01185e-07
3.35275e-09
1.00916e-07
3.34558e-09
1.00644e-07
3.3379e-09
1.00372e-07
3.33137e-09
1.00097e-07
3.32432e-09
9.98217e-08
3.31844e-09
9.95444e-08
3.312e-09
9.92654e-08
3.30649e-09
9.89847e-08
3.30034e-09
9.87025e-08
3.2953e-09
9.84184e-08
3.28953e-09
9.81327e-08
3.28496e-09
9.78452e-08
3.27942e-09
9.75561e-08
3.27548e-09
9.72652e-08
3.27006e-09
9.69724e-08
3.2666e-09
9.66778e-08
3.26083e-09
9.63811e-08
3.25743e-09
9.60825e-08
3.25122e-09
9.57816e-08
3.24803e-09
9.54789e-08
3.2417e-09
9.51741e-08
3.23873e-09
9.48672e-08
3.2323e-09
9.45582e-08
3.22896e-09
9.42467e-08
3.22186e-09
9.39328e-08
3.21766e-09
9.3616e-08
3.20931e-09
9.32969e-08
3.20451e-09
9.29754e-08
3.19625e-09
9.26516e-08
3.19307e-09
9.23249e-08
3.18468e-09
9.19952e-08
3.18004e-09
9.16623e-08
3.16817e-09
9.13265e-08
3.1615e-09
9.09878e-08
3.14963e-09
9.06465e-08
3.14488e-09
9.03019e-08
3.13434e-09
8.9954e-08
3.12982e-09
8.9602e-08
3.11695e-09
8.9246e-08
3.11224e-09
8.88869e-08
3.09884e-09
8.85242e-08
3.09483e-09
8.81522e-08
3.07623e-09
8.77646e-08
3.06794e-09
8.73636e-08
3.05123e-09
8.6958e-08
3.05016e-09
8.65563e-08
3.03924e-09
8.61654e-08
3.03897e-09
8.57863e-08
3.02152e-09
8.54158e-08
3.01518e-09
8.50452e-08
2.99267e-09
8.46719e-08
2.99107e-09
8.4292e-08
2.97645e-09
8.391e-08
2.98453e-09
8.35304e-08
2.98001e-09
8.31836e-08
3.01312e-09
3.00573e-09
6.85367e-08
2.65505e-09
-6.84154e-08
6.86702e-08
2.75674e-09
6.88131e-08
2.84767e-09
6.89645e-08
2.93863e-09
6.91239e-08
3.02808e-09
6.9291e-08
3.11466e-09
6.94649e-08
3.1971e-09
6.96448e-08
3.27413e-09
6.98292e-08
3.34469e-09
7.0017e-08
3.40794e-09
7.02069e-08
3.46344e-09
7.03982e-08
3.51104e-09
7.05901e-08
3.55084e-09
7.0782e-08
3.583e-09
7.09729e-08
3.60784e-09
7.1162e-08
3.62573e-09
7.13479e-08
3.6376e-09
7.153e-08
3.64241e-09
7.17078e-08
3.63947e-09
7.18808e-08
3.62974e-09
7.20487e-08
3.61445e-09
7.22115e-08
3.59459e-09
7.23694e-08
3.5715e-09
7.2523e-08
3.54607e-09
7.26727e-08
3.51955e-09
7.28192e-08
3.4925e-09
7.29633e-08
3.46599e-09
7.31057e-08
3.44012e-09
7.3247e-08
3.41574e-09
7.33878e-08
3.39253e-09
7.35287e-08
3.37121e-09
7.36699e-08
3.35107e-09
7.38119e-08
3.33286e-09
7.39548e-08
3.31559e-09
7.40989e-08
3.30012e-09
7.42444e-08
3.28526e-09
7.43911e-08
3.27201e-09
7.45393e-08
3.25901e-09
7.4689e-08
3.2475e-09
7.48401e-08
3.2359e-09
7.49927e-08
3.22565e-09
7.51467e-08
3.21508e-09
7.53021e-08
3.20574e-09
7.54589e-08
3.19595e-09
7.56171e-08
3.18736e-09
7.57766e-08
3.17833e-09
7.59376e-08
3.17037e-09
7.61e-08
3.16201e-09
7.62637e-08
3.15465e-09
7.64288e-08
3.14694e-09
7.65953e-08
3.13994e-09
7.67631e-08
3.13254e-09
7.69324e-08
3.12602e-09
7.7103e-08
3.11897e-09
7.7275e-08
3.1129e-09
7.74485e-08
3.106e-09
7.76234e-08
3.10056e-09
7.77997e-08
3.09372e-09
7.79775e-08
3.08884e-09
7.81567e-08
3.08161e-09
7.83373e-08
3.0769e-09
7.85192e-08
3.06932e-09
7.87024e-08
3.06481e-09
7.88871e-08
3.05701e-09
7.90732e-08
3.05259e-09
7.92607e-08
3.04479e-09
7.94498e-08
3.03989e-09
7.96401e-08
3.0316e-09
7.98317e-08
3.02604e-09
8.00242e-08
3.0168e-09
8.0218e-08
3.01068e-09
8.04131e-08
3.00118e-09
8.06098e-08
2.9964e-09
8.08077e-08
2.98674e-09
8.10068e-08
2.98098e-09
8.12065e-08
2.96843e-09
8.14073e-08
2.96072e-09
8.16089e-08
2.948e-09
8.1812e-08
2.94176e-09
8.2016e-08
2.93037e-09
8.22209e-08
2.92487e-09
8.24263e-08
2.91162e-09
8.26326e-08
2.90588e-09
8.2841e-08
2.89048e-09
8.30499e-08
2.88596e-09
8.32538e-08
2.87229e-09
8.34434e-08
2.87836e-09
8.36212e-08
2.87341e-09
8.37986e-08
2.87277e-09
8.39844e-08
2.8534e-09
8.41867e-08
2.8367e-09
8.44066e-08
2.80163e-09
8.46413e-08
2.78042e-09
8.48822e-08
2.75179e-09
8.51253e-08
2.74802e-09
8.53664e-08
2.73533e-09
8.56111e-08
2.7398e-09
8.58655e-08
2.72558e-09
8.61674e-08
2.71129e-09
2.74809e-09
7.57494e-08
2.51579e-09
-7.56101e-08
7.58961e-08
2.61e-09
7.60505e-08
2.69326e-09
7.62129e-08
2.77626e-09
7.63829e-08
2.8581e-09
7.656e-08
2.93757e-09
7.67435e-08
3.01353e-09
7.69328e-08
3.08492e-09
7.71266e-08
3.15085e-09
7.7324e-08
3.21058e-09
7.75238e-08
3.26361e-09
7.77251e-08
3.30968e-09
7.79272e-08
3.34873e-09
7.81293e-08
3.38089e-09
7.83307e-08
3.40648e-09
7.85304e-08
3.42604e-09
7.87275e-08
3.44047e-09
7.8922e-08
3.44795e-09
7.91129e-08
3.44852e-09
7.92998e-08
3.44283e-09
7.94824e-08
3.43189e-09
7.96606e-08
3.41643e-09
7.98344e-08
3.39763e-09
8.00044e-08
3.37615e-09
8.01708e-08
3.35315e-09
8.03342e-08
3.32903e-09
8.04953e-08
3.30487e-09
8.06548e-08
3.2807e-09
8.0813e-08
3.25746e-09
8.09708e-08
3.2348e-09
8.11284e-08
3.2136e-09
8.12863e-08
3.19313e-09
8.14449e-08
3.17429e-09
8.16044e-08
3.15609e-09
8.1765e-08
3.13953e-09
8.19269e-08
3.12338e-09
8.20901e-08
3.10879e-09
8.22548e-08
3.09432e-09
8.24209e-08
3.08134e-09
8.25886e-08
3.06822e-09
8.27578e-08
3.05645e-09
8.29286e-08
3.04435e-09
8.31008e-08
3.03347e-09
8.32746e-08
3.02222e-09
8.34499e-08
3.01206e-09
8.36266e-08
3.00159e-09
8.38049e-08
2.99204e-09
8.39846e-08
2.98229e-09
8.4166e-08
2.97329e-09
8.43487e-08
2.96422e-09
8.45331e-08
2.95555e-09
8.47188e-08
2.94684e-09
8.49062e-08
2.93863e-09
8.50949e-08
2.93023e-09
8.52854e-08
2.92247e-09
8.54773e-08
2.91413e-09
8.56708e-08
2.90701e-09
8.58659e-08
2.89865e-09
8.60625e-08
2.89217e-09
8.62608e-08
2.88336e-09
8.64605e-08
2.87715e-09
8.66618e-08
2.86807e-09
8.68646e-08
2.86203e-09
8.70689e-08
2.85268e-09
8.72749e-08
2.84654e-09
8.74824e-08
2.83729e-09
8.76918e-08
2.83055e-09
8.79024e-08
2.82098e-09
8.81148e-08
2.81369e-09
8.83281e-08
2.80344e-09
8.8543e-08
2.79575e-09
8.87593e-08
2.78496e-09
8.89774e-08
2.77827e-09
8.91971e-08
2.76703e-09
8.94184e-08
2.75972e-09
8.96405e-08
2.74631e-09
8.98638e-08
2.73737e-09
9.00881e-08
2.72376e-09
9.03141e-08
2.71573e-09
9.05413e-08
2.70317e-09
9.07701e-08
2.69606e-09
9.09999e-08
2.68182e-09
9.12306e-08
2.67514e-09
9.14619e-08
2.65925e-09
9.16939e-08
2.65389e-09
9.19223e-08
2.64392e-09
9.21449e-08
2.65579e-09
9.23645e-08
2.6538e-09
9.25874e-08
2.64982e-09
9.2817e-08
2.62382e-09
9.30573e-08
2.59637e-09
9.33083e-08
2.55072e-09
9.3567e-08
2.5217e-09
9.38287e-08
2.49005e-09
9.40913e-08
2.48539e-09
9.43538e-08
2.47288e-09
9.46184e-08
2.47518e-09
9.48879e-08
2.45609e-09
9.51685e-08
2.43074e-09
2.48504e-09
8.37126e-08
2.35974e-09
-8.35565e-08
8.38745e-08
2.44811e-09
8.40425e-08
2.52519e-09
8.42174e-08
2.60135e-09
8.43993e-08
2.67626e-09
8.45877e-08
2.74917e-09
8.4782e-08
2.81916e-09
8.49816e-08
2.88533e-09
8.51856e-08
2.94686e-09
8.53931e-08
3.0031e-09
8.56032e-08
3.05356e-09
8.58149e-08
3.09791e-09
8.60276e-08
3.13606e-09
8.62404e-08
3.16805e-09
8.64527e-08
3.19421e-09
8.66636e-08
3.21516e-09
8.6873e-08
3.23106e-09
8.70805e-08
3.2404e-09
8.72854e-08
3.24362e-09
8.74871e-08
3.24114e-09
8.76853e-08
3.23374e-09
8.78798e-08
3.22196e-09
8.80706e-08
3.20679e-09
8.8258e-08
3.18871e-09
8.84424e-08