/*--------------------------------*- C++ -*----------------------------------*\
| =========                 |                                                 |
| \\      /  F ield         | OpenFOAM: The Open Source CFD Toolbox           |
|  \\    /   O peration     | Version:  2.3.0                                 |
|   \\  /    A nd           | Web:      www.OpenFOAM.org                      |
|    \\/     M anipulation  |                                                 |
\*---------------------------------------------------------------------------*/
FoamFile
{
    version     2.0;
    format      ascii;
    class       volVectorField;
    location    "0.6";
    object      U;
}
// * * * * * * * * * * * * * * * * * * * * * * * * * * * * * * * * * * * * * //

dimensions      [0 1 -1 0 0 0 0];

internalField   nonuniform List<vector> 
3375
(
(0.176349 0.00518687 0)
(0.154627 0.00598712 0)
(0.134398 0.00612625 0)
(0.115632 0.0055374 0)
(0.0983634 0.00454718 0)
(0.0831446 0.00346935 0)
(0.0703745 0.00241609 0)
(0.0604484 0.00148384 0)
(0.0532395 0.000794102 0)
(0.0478234 0.000399178 0)
(0.0436684 0.000166033 0)
(0.0405933 3.71341e-05 0)
(0.0382948 -2.77653e-06 0)
(0.0365012 -5.19805e-06 0)
(0.0350582 6.58508e-06 0)
(0.0338382 2.70357e-05 0)
(0.0327421 4.56834e-05 0)
(0.0317324 5.6839e-05 0)
(0.0307999 6.45424e-05 0)
(0.0299249 6.80194e-05 0)
(0.0290992 6.69602e-05 0)
(0.0283328 6.18546e-05 0)
(0.0276268 5.61218e-05 0)
(0.0269678 5.43522e-05 0)
(0.0263411 5.33682e-05 0)
(0.0257447 5.03091e-05 0)
(0.0251824 4.67343e-05 0)
(0.0246527 4.40427e-05 0)
(0.0241538 4.0985e-05 0)
(0.0236816 3.85944e-05 0)
(0.0232324 3.65563e-05 0)
(0.0228101 3.27254e-05 0)
(0.0224148 3.04564e-05 0)
(0.0220333 3.14102e-05 0)
(0.0216614 3.01725e-05 0)
(0.021306 2.78861e-05 0)
(0.0209659 2.74987e-05 0)
(0.0206397 2.54098e-05 0)
(0.0203315 2.30398e-05 0)
(0.0200374 2.26627e-05 0)
(0.0197521 2.19495e-05 0)
(0.0194768 2.09247e-05 0)
(0.0192125 2.00245e-05 0)
(0.0189574 1.92367e-05 0)
(0.0187117 1.82693e-05 0)
(0.0184763 1.71041e-05 0)
(0.0182479 1.72113e-05 0)
(0.0180248 1.67969e-05 0)
(0.0178104 1.52909e-05 0)
(0.0176064 1.44244e-05 0)
(0.0174089 1.42501e-05 0)
(0.0172157 1.40463e-05 0)
(0.0170281 1.33766e-05 0)
(0.0168469 1.27602e-05 0)
(0.0166723 1.21025e-05 0)
(0.0165039 1.15269e-05 0)
(0.0163403 1.13469e-05 0)
(0.0161806 1.10224e-05 0)
(0.0160253 1.06683e-05 0)
(0.0158747 1.02458e-05 0)
(0.0157293 9.67147e-06 0)
(0.0155884 9.42629e-06 0)
(0.0154515 9.11444e-06 0)
(0.0153183 8.84523e-06 0)
(0.0151887 8.63926e-06 0)
(0.0150622 8.36908e-06 0)
(0.0149406 7.78188e-06 0)
(0.0148223 7.75449e-06 0)
(0.0147078 7.30658e-06 0)
(0.0145973 6.88556e-06 0)
(0.0144901 6.92034e-06 0)
(0.014385 6.62802e-06 0)
(0.014284 6.25429e-06 0)
(0.0141848 6.49145e-06 0)
(0.0140884 6.00548e-06 0)
(0.0139954 5.74169e-06 0)
(0.0139065 5.47733e-06 0)
(0.0138188 5.55135e-06 0)
(0.0137353 5.00127e-06 0)
(0.0136541 4.95179e-06 0)
(0.013576 4.89006e-06 0)
(0.0134995 4.57163e-06 0)
(0.0134281 4.12944e-06 0)
(0.013356 4.79096e-06 0)
(0.0132877 3.97411e-06 0)
(0.0132215 3.99826e-06 0)
(0.0131581 4.10805e-06 0)
(0.0130938 4.04534e-06 0)
(0.0130366 3.19986e-06 0)
(0.0129787 3.79907e-06 0)
(0.0129248 3.2879e-06 0)
(0.0128698 3.44329e-06 0)
(0.012821 3.03148e-06 0)
(0.0127672 3.73677e-06 0)
(0.0127231 2.46248e-06 0)
(0.0126715 3.6621e-06 0)
(0.0126337 2.20589e-06 0)
(0.0125778 4.08987e-06 0)
(0.0125554 5.95419e-07 0)
(0.0124883 5.71608e-06 0)
(0.191246 0.00930245 0)
(0.190309 0.0124714 0)
(0.188212 0.0131317 0)
(0.183941 0.01234 0)
(0.177654 0.0112358 0)
(0.169643 0.0106074 0)
(0.160981 0.00899979 0)
(0.152493 0.00708199 0)
(0.14461 0.00565477 0)
(0.137273 0.00451042 0)
(0.130323 0.00344762 0)
(0.123876 0.00260622 0)
(0.118121 0.00204055 0)
(0.113006 0.00160453 0)
(0.108423 0.00129379 0)
(0.104337 0.00111204 0)
(0.100683 0.000987579 0)
(0.0973563 0.000881652 0)
(0.0943251 0.000802736 0)
(0.0915608 0.000740609 0)
(0.0890068 0.000683829 0)
(0.0866485 0.000626385 0)
(0.0844703 0.000575132 0)
(0.0824311 0.000540152 0)
(0.0805063 0.000510098 0)
(0.0786908 0.000478304 0)
(0.0769823 0.000447624 0)
(0.0753718 0.000419499 0)
(0.0738533 0.000392127 0)
(0.0724133 0.000370403 0)
(0.0710433 0.000350392 0)
(0.0697464 0.000324311 0)
(0.0685154 0.000304659 0)
(0.0673336 0.000297335 0)
(0.0661986 0.00028364 0)
(0.0651125 0.000266707 0)
(0.0640725 0.000256637 0)
(0.0630776 0.000241818 0)
(0.0621258 0.000226676 0)
(0.0612135 0.000218608 0)
(0.0603336 0.000209727 0)
(0.0594849 0.000199838 0)
(0.0586693 0.000190933 0)
(0.0578824 0.000183297 0)
(0.0571241 0.000175272 0)
(0.0563946 0.000166425 0)
(0.0556876 0.000161832 0)
(0.0550031 0.000156062 0)
(0.054343 0.00014728 0)
(0.0537082 0.000140552 0)
(0.0530938 0.000136165 0)
(0.0524965 0.000131965 0)
(0.0519179 0.000126458 0)
(0.051358 0.0001213 0)
(0.0508169 0.000116201 0)
(0.0502925 0.000111531 0)
(0.0497832 0.000108157 0)
(0.0492883 0.00010441 0)
(0.0488071 0.000100691 0)
(0.0483409 9.68849e-05 0)
(0.0478894 9.27374e-05 0)
(0.047451 8.96524e-05 0)
(0.0470257 8.64122e-05 0)
(0.046612 8.34771e-05 0)
(0.0462104 8.07532e-05 0)
(0.04582 7.792e-05 0)
(0.0454427 7.41208e-05 0)
(0.0450756 7.22196e-05 0)
(0.0447208 6.89902e-05 0)
(0.0443761 6.60178e-05 0)
(0.044042 6.44381e-05 0)
(0.0437169 6.19501e-05 0)
(0.0434025 5.91455e-05 0)
(0.0430959 5.83512e-05 0)
(0.0427998 5.5274e-05 0)
(0.0425124 5.3049e-05 0)
(0.0422369 5.0725e-05 0)
(0.0419671 4.96629e-05 0)
(0.0417094 4.64619e-05 0)
(0.0414585 4.51057e-05 0)
(0.0412179 4.3521e-05 0)
(0.0409837 4.14086e-05 0)
(0.0407616 3.87188e-05 0)
(0.0405421 3.97115e-05 0)
(0.0403353 3.58103e-05 0)
(0.0401327 3.50035e-05 0)
(0.0399412 3.40421e-05 0)
(0.0397513 3.29363e-05 0)
(0.0395777 2.90294e-05 0)
(0.0394042 3.02389e-05 0)
(0.0392441 2.74306e-05 0)
(0.0390824 2.73245e-05 0)
(0.0389376 2.48305e-05 0)
(0.0387849 2.65833e-05 0)
(0.0386562 2.14013e-05 0)
(0.0385106 2.49763e-05 0)
(0.0384014 1.89965e-05 0)
(0.0382505 2.52976e-05 0)
(0.0381826 1.30019e-05 0)
(0.0379959 2.70073e-05 0)
(0.191674 0.00844914 0)
(0.192638 0.0104187 0)
(0.194518 0.0105274 0)
(0.195994 0.0125017 0)
(0.196652 0.012208 0)
(0.196063 0.0119756 0)
(0.194051 0.0112996 0)
(0.191257 0.00961165 0)
(0.188082 0.00836986 0)
(0.184531 0.00751677 0)
(0.180566 0.00662175 0)
(0.176327 0.00566206 0)
(0.172057 0.00492573 0)
(0.167867 0.0043593 0)
(0.163793 0.0038626 0)
(0.15989 0.00345318 0)
(0.156176 0.00312682 0)
(0.15258 0.00284119 0)
(0.149095 0.00259943 0)
(0.145766 0.00239376 0)
(0.142586 0.00220589 0)
(0.139569 0.00201605 0)
(0.136726 0.00185059 0)
(0.134008 0.00173514 0)
(0.13137 0.00163323 0)
(0.128813 0.00152465 0)
(0.126358 0.00142311 0)
(0.124017 0.00133522 0)
(0.12179 0.0012508 0)
(0.119664 0.00117979 0)
(0.11762 0.00111728 0)
(0.115663 0.0010459 0)
(0.113788 0.000986454 0)
(0.111976 0.00094988 0)
(0.110224 0.000903229 0)
(0.108534 0.000853564 0)
(0.106909 0.000817965 0)
(0.105351 0.000774643 0)
(0.103854 0.000732089 0)
(0.10241 0.00070292 0)
(0.101012 0.0006736 0)
(0.0996557 0.000643617 0)
(0.098347 0.000614875 0)
(0.0970817 0.000588847 0)
(0.0958578 0.000563641 0)
(0.0946766 0.000538279 0)
(0.093529 0.000520899 0)
(0.0924162 0.000500694 0)
(0.0913397 0.000475935 0)
(0.0903 0.000455828 0)
(0.0892925 0.000440134 0)
(0.0883113 0.00042505 0)
(0.0873586 0.000407967 0)
(0.0864349 0.000391971 0)
(0.0855406 0.000376385 0)
(0.0846719 0.000361998 0)
(0.0838264 0.00035018 0)
(0.0830044 0.000337899 0)
(0.0822038 0.000325764 0)
(0.0814265 0.000313439 0)
(0.0806728 0.000300998 0)
(0.0799394 0.00029086 0)
(0.079227 0.000280309 0)
(0.0785335 0.000270432 0)
(0.0778597 0.000261144 0)
(0.0772039 0.000251938 0)
(0.0765686 0.000241002 0)
(0.0759498 0.000233785 0)
(0.0753507 0.00022419 0)
(0.0747676 0.000215265 0)
(0.0742016 0.000208727 0)
(0.0736517 0.000200878 0)
(0.0731179 0.000192571 0)
(0.0725981 0.000187821 0)
(0.0720958 0.000178946 0)
(0.071607 0.000171926 0)
(0.0711372 0.000164622 0)
(0.0706782 0.000159924 0)
(0.0702378 0.0001511 0)
(0.0698094 0.000145986 0)
(0.0693975 0.000140231 0)
(0.0689974 0.000133901 0)
(0.0686155 0.000126393 0)
(0.0682408 0.000125681 0)
(0.0678861 0.00011589 0)
(0.0675391 0.00011236 0)
(0.0672104 0.000107959 0)
(0.0668874 0.00010378 0)
(0.0665874 9.42835e-05 0)
(0.0662913 9.46619e-05 0)
(0.0660157 8.71962e-05 0)
(0.0657412 8.52844e-05 0)
(0.0654916 7.85117e-05 0)
(0.0652355 8.00861e-05 0)
(0.065013 6.86611e-05 0)
(0.0647716 7.3821e-05 0)
(0.0645818 6.10719e-05 0)
(0.0643364 7.08968e-05 0)
(0.0642132 4.9604e-05 0)
(0.0639014 6.80617e-05 0)
(0.19266 0.00744308 0)
(0.193721 0.00874371 0)
(0.19525 0.0106688 0)
(0.196764 0.0101554 0)
(0.198113 0.0110739 0)
(0.199529 0.0114377 0)
(0.200509 0.0107819 0)
(0.200562 0.0102107 0)
(0.200582 0.00882568 0)
(0.200245 0.00819338 0)
(0.199168 0.00746261 0)
(0.197538 0.00700758 0)
(0.195764 0.00648228 0)
(0.193897 0.00586681 0)
(0.191872 0.00537206 0)
(0.189736 0.0049902 0)
(0.18756 0.00468168 0)
(0.185313 0.00439824 0)
(0.183011 0.00413194 0)
(0.180706 0.00387608 0)
(0.17837 0.00365106 0)
(0.176005 0.00341575 0)
(0.173702 0.00318813 0)
(0.171503 0.00303066 0)
(0.169347 0.00290497 0)
(0.167162 0.00276884 0)
(0.164934 0.00262024 0)
(0.162697 0.00247559 0)
(0.160508 0.00233539 0)
(0.158395 0.00221686 0)
(0.156344 0.00211127 0)
(0.154352 0.00199296 0)
(0.152417 0.00189566 0)
(0.15051 0.00183631 0)
(0.148618 0.0017569 0)
(0.146747 0.00166866 0)
(0.144912 0.00160053 0)
(0.143138 0.00151903 0)
(0.141428 0.00144326 0)
(0.13977 0.00139128 0)
(0.138147 0.00133754 0)
(0.13655 0.00128291 0)
(0.134988 0.00123043 0)
(0.133464 0.00118129 0)
(0.131978 0.00113158 0)
(0.130534 0.00108219 0)
(0.129121 0.00104899 0)
(0.127739 0.00101105 0)
(0.126394 0.000964237 0)
(0.12509 0.000924932 0)
(0.123822 0.000894136 0)
(0.122577 0.000864935 0)
(0.121357 0.000831421 0)
(0.12017 0.000799828 0)
(0.119018 0.00076956 0)
(0.117897 0.000741489 0)
(0.1168 0.000717446 0)
(0.115728 0.000692917 0)
(0.11468 0.000669229 0)
(0.113658 0.000644889 0)
(0.112664 0.000620188 0)
(0.111693 0.000599608 0)
(0.110746 0.000578693 0)
(0.109822 0.000558803 0)
(0.108921 0.000539696 0)
(0.108042 0.00052119 0)
(0.107187 0.000499883 0)
(0.106353 0.000484565 0)
(0.105542 0.000465798 0)
(0.104751 0.000448329 0)
(0.10398 0.000434363 0)
(0.10323 0.0004181 0)
(0.1025 0.000401574 0)
(0.101787 0.000390794 0)
(0.101097 0.000373615 0)
(0.100423 0.000359341 0)
(0.0997737 0.000344461 0)
(0.0991383 0.000334011 0)
(0.0985255 0.000317114 0)
(0.0979291 0.000306015 0)
(0.0973532 0.000294102 0)
(0.0967931 0.000281136 0)
(0.096256 0.000266504 0)
(0.0957295 0.000262459 0)
(0.0952281 0.000244332 0)
(0.0947378 0.00023605 0)
(0.0942705 0.000226458 0)
(0.0938133 0.000217107 0)
(0.0933836 0.000199848 0)
(0.0929624 0.000197756 0)
(0.0925657 0.000183808 0)
(0.0921745 0.000178065 0)
(0.0918127 0.00016544 0)
(0.0914482 0.00016505 0)
(0.091122 0.000145749 0)
(0.09078 0.000150409 0)
(0.0904982 0.000130755 0)
(0.0901522 0.000140315 0)
(0.0899636 0.000113192 0)
(0.0895124 0.000129535 0)
(0.19375 0.00722028 0)
(0.194581 0.00832047 0)
(0.195626 0.00925106 0)
(0.196866 0.0105643 0)
(0.198147 0.00998227 0)
(0.199493 0.0108462 0)
(0.200704 0.0107668 0)
(0.201419 0.00932075 0)
(0.202027 0.00907939 0)
(0.202598 0.00822024 0)
(0.20256 0.0077476 0)
(0.202338 0.00701164 0)
(0.202036 0.00664083 0)
(0.201678 0.00626062 0)
(0.201175 0.00589217 0)
(0.200468 0.00559102 0)
(0.199663 0.00532885 0)
(0.198743 0.00507793 0)
(0.19773 0.0048822 0)
(0.196695 0.00468658 0)
(0.195591 0.00449299 0)
(0.194355 0.00425975 0)
(0.193058 0.00400378 0)
(0.191812 0.00383058 0)
(0.190624 0.00371733 0)
(0.18941 0.00362696 0)
(0.188086 0.00352848 0)
(0.186629 0.00340059 0)
(0.185099 0.00324085 0)
(0.183566 0.00310276 0)
(0.182054 0.00297642 0)
(0.180576 0.00282459 0)
(0.179143 0.00270638 0)
(0.177727 0.00265224 0)
(0.17628 0.00257305 0)
(0.17478 0.00247829 0)
(0.173238 0.00240035 0)
(0.171695 0.00228635 0)
(0.170189 0.00217642 0)
(0.168734 0.00210616 0)
(0.167307 0.00203841 0)
(0.165881 0.00197118 0)
(0.164457 0.00190367 0)
(0.163038 0.00183999 0)
(0.16163 0.00177397 0)
(0.160245 0.00170294 0)
(0.158872 0.0016554 0)
(0.157503 0.0016022 0)
(0.156152 0.00153543 0)
(0.154838 0.00147667 0)
(0.153561 0.00143079 0)
(0.152294 0.00139177 0)
(0.151025 0.0013442 0)
(0.149771 0.00129514 0)
(0.148549 0.00124788 0)
(0.147359 0.00120605 0)
(0.146192 0.00117101 0)
(0.14504 0.00113389 0)
(0.143901 0.00109762 0)
(0.142781 0.00106032 0)
(0.141686 0.00102257 0)
(0.140611 0.000990791 0)
(0.139556 0.000958086 0)
(0.138519 0.000927325 0)
(0.137502 0.000897295 0)
(0.136503 0.000867901 0)
(0.135528 0.000834678 0)
(0.134573 0.000810349 0)
(0.13364 0.000780413 0)
(0.132724 0.000752492 0)
(0.131828 0.000730585 0)
(0.130952 0.0007048 0)
(0.130095 0.000678169 0)
(0.129254 0.000659575 0)
(0.128437 0.000632349 0)
(0.127636 0.000609696 0)
(0.12686 0.00058574 0)
(0.126099 0.000568102 0)
(0.12536 0.000541301 0)
(0.124639 0.000522555 0)
(0.123939 0.00050342 0)
(0.123255 0.000481961 0)
(0.122596 0.000458418 0)
(0.12195 0.000450043 0)
(0.121329 0.000421725 0)
(0.12072 0.000407025 0)
(0.120136 0.000391029 0)
(0.119565 0.000374528 0)
(0.119023 0.000347926 0)
(0.118493 0.000341879 0)
(0.117988 0.000320123 0)
(0.117492 0.000308468 0)
(0.117027 0.000289385 0)
(0.116562 0.00028482 0)
(0.116136 0.000257018 0)
(0.115698 0.000257932 0)
(0.115325 0.000233063 0)
(0.11488 0.000237181 0)
(0.114624 0.000208174 0)
(0.114029 0.000216494 0)
(0.194824 0.0070616 0)
(0.195338 0.00776677 0)
(0.196005 0.00863673 0)
(0.196942 0.00975967 0)
(0.198023 0.00926425 0)
(0.199349 0.0100511 0)
(0.200603 0.0101462 0)
(0.201353 0.00954968 0)
(0.201986 0.00839879 0)
(0.202511 0.00862006 0)
(0.202541 0.00758344 0)
(0.202625 0.0070999 0)
(0.202778 0.00669323 0)
(0.202883 0.00619335 0)
(0.202803 0.00594257 0)
(0.202632 0.00571478 0)
(0.202471 0.0055149 0)
(0.202261 0.00532067 0)
(0.201991 0.00511419 0)
(0.201693 0.00494924 0)
(0.201326 0.00483193 0)
(0.200841 0.00466919 0)
(0.200312 0.00442978 0)
(0.199836 0.0042078 0)
(0.199418 0.00404803 0)
(0.19899 0.00397877 0)
(0.198461 0.00395554 0)
(0.197783 0.00391212 0)
(0.196997 0.00378765 0)
(0.196167 0.00364743 0)
(0.195316 0.00352296 0)
(0.194468 0.00335129 0)
(0.193669 0.00320298 0)
(0.192908 0.00316059 0)
(0.192121 0.00310723 0)
(0.191262 0.00304144 0)
(0.190306 0.00299717 0)
(0.189271 0.00288411 0)
(0.188223 0.00275376 0)
(0.187212 0.00266941 0)
(0.18623 0.00259204 0)
(0.185247 0.00252409 0)
(0.184253 0.00245733 0)
(0.183236 0.00239367 0)
(0.182198 0.00232608 0)
(0.181158 0.00224939 0)
(0.18011 0.00220487 0)
(0.179035 0.0021489 0)
(0.177935 0.0020679 0)
(0.176849 0.00199222 0)
(0.175806 0.00193411 0)
(0.174781 0.0018948 0)
(0.17373 0.00184794 0)
(0.17265 0.00179108 0)
(0.171571 0.00172741 0)
(0.170515 0.00166985 0)
(0.169484 0.00162693 0)
(0.168466 0.00158475 0)
(0.167446 0.00154253 0)
(0.166424 0.00149521 0)
(0.165413 0.00144594 0)
(0.164414 0.00140611 0)
(0.163425 0.00136443 0)
(0.162442 0.0013248 0)
(0.161469 0.00128689 0)
(0.160503 0.00124864 0)
(0.159553 0.0012031 0)
(0.158616 0.00117132 0)
(0.157698 0.00113228 0)
(0.156791 0.0010942 0)
(0.155895 0.00106449 0)
(0.155013 0.00102998 0)
(0.154142 0.000995131 0)
(0.153282 0.000969545 0)
(0.15244 0.000931347 0)
(0.151612 0.000900057 0)
(0.150805 0.000867386 0)
(0.15001 0.000843071 0)
(0.149232 0.000806375 0)
(0.148468 0.000779467 0)
(0.147721 0.000753472 0)
(0.146988 0.000722987 0)
(0.146276 0.00069003 0)
(0.145575 0.000677212 0)
(0.144897 0.000638223 0)
(0.144229 0.000616688 0)
(0.143581 0.000594584 0)
(0.142946 0.00056913 0)
(0.142337 0.000532569 0)
(0.141743 0.000521757 0)
(0.14117 0.000492286 0)
(0.140608 0.000472337 0)
(0.140073 0.000447732 0)
(0.139542 0.000437036 0)
(0.139043 0.000401869 0)
(0.138538 0.000395195 0)
(0.138095 0.000368218 0)
(0.137574 0.000362009 0)
(0.137266 0.00033473 0)
(0.13655 0.000330543 0)
(0.195401 0.00715056 0)
(0.19573 0.00689965 0)
(0.196281 0.00875851 0)
(0.197153 0.00913687 0)
(0.198135 0.00833486 0)
(0.199234 0.00988409 0)
(0.200507 0.00944435 0)
(0.201214 0.00900101 0)
(0.201754 0.00822255 0)
(0.202345 0.0076857 0)
(0.202285 0.00757973 0)
(0.202353 0.0072084 0)
(0.202681 0.00657647 0)
(0.20285 0.00624278 0)
(0.202826 0.00593505 0)
(0.202804 0.00568085 0)
(0.202757 0.00556362 0)
(0.20271 0.00529545 0)
(0.202674 0.00513117 0)
(0.202612 0.00494586 0)
(0.202477 0.0049325 0)
(0.202308 0.00476688 0)
(0.202183 0.00447562 0)
(0.202094 0.00425114 0)
(0.202012 0.00411453 0)
(0.201922 0.00407895 0)
(0.201771 0.00410096 0)
(0.201524 0.00408521 0)
(0.201214 0.00401084 0)
(0.200875 0.00390416 0)
(0.200495 0.00376889 0)
(0.200087 0.00360282 0)
(0.199733 0.00344509 0)
(0.199453 0.00338887 0)
(0.199173 0.00334636 0)
(0.19884 0.00332391 0)
(0.198404 0.003329 0)
(0.197852 0.0032428 0)
(0.197256 0.00311349 0)
(0.196688 0.00301661 0)
(0.196149 0.00292565 0)
(0.195618 0.00285998 0)
(0.195082 0.00280151 0)
(0.194521 0.00274737 0)
(0.193926 0.00268605 0)
(0.193317 0.00261062 0)
(0.192697 0.00258194 0)
(0.192036 0.00254511 0)
(0.191315 0.00247133 0)
(0.190569 0.00238251 0)
(0.189861 0.00230637 0)
(0.189194 0.00226693 0)
(0.188512 0.00223315 0)
(0.187777 0.0021904 0)
(0.187001 0.00212727 0)
(0.186216 0.00205766 0)
(0.185447 0.0020027 0)
(0.184698 0.00195518 0)
(0.183948 0.00191562 0)
(0.183184 0.00186901 0)
(0.182413 0.00181501 0)
(0.181639 0.00177109 0)
(0.180863 0.0017263 0)
(0.180084 0.00168307 0)
(0.179302 0.00164138 0)
(0.178513 0.00160075 0)
(0.177725 0.00154702 0)
(0.176941 0.00150943 0)
(0.176169 0.00146394 0)
(0.175404 0.00142005 0)
(0.174643 0.00138695 0)
(0.173886 0.0013453 0)
(0.173129 0.00130506 0)
(0.17237 0.00127707 0)
(0.171619 0.00123045 0)
(0.170874 0.00119126 0)
(0.170145 0.00115128 0)
(0.169425 0.00112235 0)
(0.168714 0.00107812 0)
(0.168012 0.00104455 0)
(0.167319 0.00101414 0)
(0.166631 0.000975592 0)
(0.165957 0.000934701 0)
(0.16529 0.000918789 0)
(0.16464 0.000870152 0)
(0.163995 0.000842203 0)
(0.163362 0.0008169 0)
(0.162736 0.000782539 0)
(0.162131 0.000736712 0)
(0.16154 0.000720286 0)
(0.160965 0.000685192 0)
(0.160398 0.000655735 0)
(0.159852 0.000627526 0)
(0.15931 0.000609068 0)
(0.158792 0.000569373 0)
(0.158268 0.000552436 0)
(0.157803 0.000526989 0)
(0.157253 0.000508343 0)
(0.156924 0.000484982 0)
(0.156151 0.000466059 0)
(0.195823 0.00680401 0)
(0.196043 0.00669413 0)
(0.19658 0.0080721 0)
(0.197478 0.00844118 0)
(0.198339 0.00822387 0)
(0.199212 0.00875391 0)
(0.200344 0.00896239 0)
(0.201031 0.00916428 0)
(0.20148 0.00702574 0)
(0.201903 0.00948646 0)
(0.202225 0.00679682 0)
(0.202275 0.00666142 0)
(0.202557 0.00632571 0)
(0.202623 0.00604727 0)
(0.202614 0.00592782 0)
(0.202661 0.00577885 0)
(0.202679 0.00554324 0)
(0.202694 0.00531256 0)
(0.202679 0.00515835 0)
(0.202621 0.0050743 0)
(0.20255 0.00495553 0)
(0.202504 0.00477374 0)
(0.202502 0.00450587 0)
(0.202496 0.0043243 0)
(0.202484 0.00414406 0)
(0.202455 0.00411456 0)
(0.202391 0.0041615 0)
(0.202296 0.0042037 0)
(0.202206 0.00409092 0)
(0.202098 0.00401988 0)
(0.201939 0.00392313 0)
(0.201762 0.00370421 0)
(0.201641 0.00347684 0)
(0.201588 0.0034216 0)
(0.20155 0.00338299 0)
(0.201485 0.00340796 0)
(0.201334 0.00347702 0)
(0.201069 0.0034089 0)
(0.200766 0.00329258 0)
(0.200497 0.00319592 0)
(0.20026 0.00308617 0)
(0.200039 0.00301474 0)
(0.199821 0.00296372 0)
(0.199583 0.00292456 0)
(0.199312 0.00287051 0)
(0.199031 0.00279245 0)
(0.198753 0.00277852 0)
(0.198442 0.00276406 0)
(0.198062 0.00271462 0)
(0.19763 0.00262836 0)
(0.197218 0.00253143 0)
(0.196865 0.00248413 0)
(0.196524 0.00245864 0)
(0.196137 0.0024356 0)
(0.195693 0.00239138 0)
(0.19521 0.00232624 0)
(0.194723 0.00226509 0)
(0.194256 0.00220918 0)
(0.193797 0.00216929 0)
(0.193327 0.00212603 0)
(0.192846 0.0020757 0)
(0.192356 0.00203417 0)
(0.191855 0.00199021 0)
(0.191343 0.00194997 0)
(0.190821 0.00191093 0)
(0.190281 0.00187289 0)
(0.189727 0.0018164 0)
(0.189168 0.00177729 0)
(0.188613 0.00172713 0)
(0.188063 0.00167803 0)
(0.187517 0.00164649 0)
(0.186972 0.00160429 0)
(0.186418 0.0015621 0)
(0.18585 0.00153573 0)
(0.185275 0.00148719 0)
(0.184696 0.00144296 0)
(0.184125 0.00139649 0)
(0.18356 0.00136458 0)
(0.183 0.00131653 0)
(0.182445 0.00127878 0)
(0.181892 0.00124791 0)
(0.181336 0.00120423 0)
(0.180782 0.00115815 0)
(0.180231 0.00114142 0)
(0.179687 0.00108664 0)
(0.179145 0.00105362 0)
(0.178606 0.00102799 0)
(0.178064 0.000986597 0)
(0.177533 0.000935118 0)
(0.177016 0.000913262 0)
(0.176508 0.000874361 0)
(0.176004 0.00083604 0)
(0.175513 0.000807856 0)
(0.175023 0.000781493 0)
(0.174547 0.000739461 0)
(0.174066 0.000711655 0)
(0.173635 0.000689833 0)
(0.173121 0.000660837 0)
(0.17281 0.000643176 0)
(0.172064 0.000610231 0)
(0.196355 0.00673645 0)
(0.196482 0.00635823 0)
(0.196927 0.00752745 0)
(0.197764 0.0083261 0)
(0.19857 0.0071715 0)
(0.199213 0.00837724 0)
(0.200097 0.00899712 0)
(0.200865 0.00787398 0)
(0.201131 0.00768981 0)
(0.201574 0.00789893 0)
(0.202252 0.00698035 0)
(0.202276 0.0067593 0)
(0.202366 0.00651473 0)
(0.202444 0.00605963 0)
(0.202399 0.00588565 0)
(0.202421 0.00571915 0)
(0.202525 0.00552701 0)
(0.202589 0.00531142 0)
(0.202569 0.00517256 0)
(0.202531 0.00504452 0)
(0.202492 0.00498952 0)
(0.202467 0.00481837 0)
(0.202492 0.00454868 0)
(0.202522 0.00425295 0)
(0.202506 0.00411194 0)
(0.202464 0.00416782 0)
(0.202399 0.00418319 0)
(0.202326 0.00418699 0)
(0.202281 0.00412577 0)
(0.202246 0.00405473 0)
(0.202199 0.0039409 0)
(0.202137 0.00373647 0)
(0.202097 0.00350395 0)
(0.202108 0.0034418 0)
(0.20213 0.00340234 0)
(0.202133 0.00340723 0)
(0.20206 0.00355323 0)
(0.201901 0.00351255 0)
(0.201754 0.003391 0)
(0.201657 0.00326198 0)
(0.201579 0.00313112 0)
(0.201513 0.00305693 0)
(0.201451 0.00300791 0)
(0.20137 0.00298463 0)
(0.201256 0.0029442 0)
(0.201144 0.00286296 0)
(0.201053 0.00285382 0)
(0.200945 0.00286249 0)
(0.200784 0.00283997 0)
(0.200565 0.00275586 0)
(0.200352 0.00263806 0)
(0.200199 0.00257844 0)
(0.200073 0.00256072 0)
(0.19992 0.00255476 0)
(0.199719 0.00253054 0)
(0.199475 0.0024774 0)
(0.199213 0.0024158 0)
(0.198964 0.00235357 0)
(0.198725 0.00231232 0)
(0.198481 0.00227112 0)
(0.198233 0.00222368 0)
(0.197982 0.00218582 0)
(0.197721 0.00214562 0)
(0.197449 0.00210856 0)
(0.197165 0.0020773 0)
(0.196859 0.00204904 0)
(0.19653 0.00199492 0)
(0.196188 0.00195847 0)
(0.195843 0.00190615 0)
(0.195503 0.00185107 0)
(0.195171 0.00181684 0)
(0.194845 0.00177697 0)
(0.194511 0.00174088 0)
(0.194158 0.00171799 0)
(0.193787 0.00167245 0)
(0.1934 0.00163115 0)
(0.193012 0.0015812 0)
(0.192628 0.00154399 0)
(0.192247 0.00149331 0)
(0.19187 0.00145417 0)
(0.191496 0.00142627 0)
(0.191112 0.00138072 0)
(0.190722 0.00133216 0)
(0.19033 0.00131646 0)
(0.189939 0.0012597 0)
(0.189546 0.00122562 0)
(0.189149 0.00120271 0)
(0.188739 0.00115566 0)
(0.18833 0.00110196 0)
(0.187932 0.00107708 0)
(0.187539 0.00103589 0)
(0.187148 0.000989977 0)
(0.186764 0.000964739 0)
(0.186374 0.000933884 0)
(0.185988 0.00089129 0)
(0.185597 0.000854564 0)
(0.185249 0.000835927 0)
(0.184824 0.000799449 0)
(0.184568 0.000788525 0)
(0.183929 0.000746169 0)
(0.196727 0.00681502 0)
(0.196926 0.00613914 0)
(0.197314 0.00711436 0)
(0.197977 0.00780732 0)
(0.198804 0.00663273 0)
(0.199276 0.00787571 0)
(0.199898 0.00843098 0)
(0.200641 0.00797108 0)
(0.200914 0.00735301 0)
(0.201321 0.00764259 0)
(0.202087 0.00687668 0)
(0.202126 0.00667473 0)
(0.20223 0.00635536 0)
(0.202341 0.00605412 0)
(0.202223 0.00582488 0)
(0.202216 0.0057264 0)
(0.202387 0.00553774 0)
(0.202479 0.00528311 0)
(0.202442 0.00516645 0)
(0.202405 0.00510056 0)
(0.202362 0.0049792 0)
(0.202389 0.00481514 0)
(0.202486 0.00445778 0)
(0.202496 0.00428908 0)
(0.202445 0.00413903 0)
(0.202355 0.00415404 0)
(0.202268 0.00425065 0)
(0.202245 0.00422264 0)
(0.202237 0.00414383 0)
(0.202229 0.00404589 0)
(0.202243 0.00394492 0)
(0.202221 0.00382639 0)
(0.202164 0.00349564 0)
(0.202171 0.00340959 0)
(0.202179 0.00336308 0)
(0.202173 0.00348049 0)
(0.202104 0.00352084 0)
(0.201992 0.00359523 0)
(0.20195 0.00338561 0)
(0.201919 0.00329916 0)
(0.201894 0.00316981 0)
(0.201887 0.00307467 0)
(0.201874 0.00302959 0)
(0.20184 0.00302 0)
(0.201779 0.00297952 0)
(0.201729 0.00287973 0)
(0.201708 0.00287417 0)
(0.201678 0.00288242 0)
(0.201608 0.00290858 0)
(0.201506 0.00284275 0)
(0.201416 0.00269336 0)
(0.201367 0.00259868 0)
(0.201334 0.00257923 0)
(0.20128 0.00259107 0)
(0.201202 0.00258886 0)
(0.201101 0.00255054 0)
(0.200985 0.0024889 0)
(0.200875 0.00242423 0)
(0.200765 0.00238084 0)
(0.200646 0.00233552 0)
(0.200528 0.00229232 0)
(0.200424 0.00225614 0)
(0.200321 0.00221944 0)
(0.200212 0.00218448 0)
(0.200094 0.00215706 0)
(0.199953 0.00214142 0)
(0.199786 0.00209371 0)
(0.199602 0.00206283 0)
(0.199411 0.00201092 0)
(0.199221 0.00195254 0)
(0.199046 0.00191474 0)
(0.198888 0.00186827 0)
(0.198729 0.00183842 0)
(0.198553 0.00182557 0)
(0.198358 0.00178267 0)
(0.198139 0.00174538 0)
(0.19791 0.00170291 0)
(0.197678 0.00166373 0)
(0.197451 0.0016059 0)
(0.197232 0.00156268 0)
(0.197019 0.00153949 0)
(0.196797 0.00149819 0)
(0.196564 0.00144939 0)
(0.196326 0.00143306 0)
(0.196086 0.00137422 0)
(0.195843 0.00134333 0)
(0.195595 0.00132842 0)
(0.195326 0.00127891 0)
(0.195049 0.00122414 0)
(0.194778 0.00119828 0)
(0.194509 0.00115479 0)
(0.194245 0.00110383 0)
(0.193986 0.00108257 0)
(0.193716 0.00105114 0)
(0.193438 0.00100839 0)
(0.193157 0.000966796 0)
(0.19291 0.000950922 0)
(0.192603 0.000911987 0)
(0.192422 0.000905638 0)
(0.191934 0.000859264 0)
(0.197049 0.00663847 0)
(0.197245 0.00625183 0)
(0.197642 0.00660302 0)
(0.198233 0.00718165 0)
(0.198938 0.00666364 0)
(0.19932 0.00727019 0)
(0.199854 0.00809579 0)
(0.200479 0.00774207 0)
(0.200658 0.00690481 0)
(0.201074 0.00722444 0)
(0.20189 0.00673108 0)
(0.201993 0.00635613 0)
(0.202056 0.00646564 0)
(0.202156 0.0061127 0)
(0.202086 0.00584764 0)
(0.202141 0.00558192 0)
(0.202325 0.00536365 0)
(0.202339 0.00529912 0)
(0.202278 0.00518423 0)
(0.202239 0.00515077 0)
(0.202269 0.00502785 0)
(0.202404 0.00470297 0)
(0.202451 0.0044978 0)
(0.202391 0.00428389 0)
(0.202306 0.00423378 0)
(0.202201 0.00425729 0)
(0.202171 0.00427839 0)
(0.202203 0.00419667 0)
(0.202212 0.00413403 0)
(0.202191 0.00404567 0)
(0.202198 0.00395994 0)
(0.202209 0.00381175 0)
(0.202154 0.00355058 0)
(0.202137 0.00344617 0)
(0.202154 0.00334909 0)
(0.202109 0.00342307 0)
(0.202006 0.00383314 0)
(0.201993 0.00342333 0)
(0.201987 0.00345145 0)
(0.201936 0.00329368 0)
(0.201919 0.00313731 0)
(0.201928 0.00308292 0)
(0.201932 0.00303078 0)
(0.20191 0.00302917 0)
(0.201857 0.00300657 0)
(0.201817 0.0029009 0)
(0.201802 0.00288953 0)
(0.201785 0.00290502 0)
(0.201756 0.00291671 0)
(0.201725 0.00283917 0)
(0.201703 0.00270599 0)
(0.201684 0.0026318 0)
(0.20166 0.00260805 0)
(0.201629 0.00261951 0)
(0.201604 0.00261106 0)
(0.201578 0.00257443 0)
(0.20154 0.00251275 0)
(0.201498 0.00244999 0)
(0.201444 0.00241922 0)
(0.201377 0.00238101 0)
(0.201318 0.00231603 0)
(0.201281 0.00227111 0)
(0.201254 0.00223973 0)
(0.201227 0.00220832 0)
(0.201196 0.00218949 0)
(0.201146 0.00217986 0)
(0.201071 0.0021433 0)
(0.20098 0.00211913 0)
(0.200882 0.00206571 0)
(0.200781 0.00199883 0)
(0.20069 0.00195478 0)
(0.200627 0.00191131 0)
(0.200576 0.00187959 0)
(0.200512 0.00187249 0)
(0.200434 0.00184405 0)
(0.200335 0.001805 0)
(0.200218 0.00176228 0)
(0.20009 0.00173156 0)
(0.199964 0.00167364 0)
(0.19985 0.00162163 0)
(0.199751 0.00159359 0)
(0.199648 0.00155844 0)
(0.199531 0.00151638 0)
(0.199408 0.00150602 0)
(0.199283 0.00144122 0)
(0.199158 0.00140644 0)
(0.199028 0.00140215 0)
(0.198876 0.00135997 0)
(0.19871 0.00130474 0)
(0.198544 0.0012786 0)
(0.198377 0.00123089 0)
(0.198219 0.00117557 0)
(0.198072 0.00115805 0)
(0.197909 0.00113187 0)
(0.197732 0.00108776 0)
(0.19755 0.0010432 0)
(0.197397 0.00102692 0)
(0.197202 0.000990623 0)
(0.197093 0.000990074 0)
(0.196759 0.000944365 0)
(0.197392 0.00641351 0)
(0.1976 0.0058883 0)
(0.197973 0.00627212 0)
(0.198465 0.0066799 0)
(0.198942 0.00655826 0)
(0.19928 0.00653866 0)
(0.199785 0.00795411 0)
(0.200359 0.00790476 0)
(0.200595 0.00637 0)
(0.200948 0.00677541 0)
(0.201658 0.00667061 0)
(0.201821 0.0063598 0)
(0.201822 0.00622511 0)
(0.201931 0.00641775 0)
(0.202041 0.00548449 0)
(0.202116 0.00568312 0)
(0.202209 0.00539475 0)
(0.202193 0.00525862 0)
(0.202138 0.0051548 0)
(0.202145 0.00510135 0)
(0.20225 0.00487889 0)
(0.202364 0.00464331 0)
(0.202338 0.00451183 0)
(0.202253 0.00435862 0)
(0.202181 0.0042554 0)
(0.202134 0.00421788 0)
(0.202144 0.00422325 0)
(0.202153 0.00421261 0)
(0.202146 0.00414619 0)
(0.20212 0.00403576 0)
(0.202114 0.00393733 0)
(0.20215 0.00381878 0)
(0.202154 0.00343374 0)
(0.202112 0.00345452 0)
(0.202099 0.00350885 0)
(0.202005 0.00352299 0)
(0.201932 0.00357564 0)
(0.201968 0.00357554 0)
(0.201943 0.003525 0)
(0.201907 0.00329712 0)
(0.201908 0.0031454 0)
(0.201911 0.00307167 0)
(0.201919 0.00304339 0)
(0.201888 0.00306963 0)
(0.201831 0.00299716 0)
(0.201798 0.00291167 0)
(0.201778 0.00290038 0)
(0.201755 0.00292007 0)
(0.201745 0.00293554 0)
(0.201747 0.0028369 0)
(0.201744 0.00271266 0)
(0.201734 0.00262647 0)
(0.201707 0.00261216 0)
(0.201667 0.0026149 0)
(0.20165 0.00262104 0)
(0.201651 0.0025888 0)
(0.201647 0.00253514 0)
(0.201637 0.00247197 0)
(0.201611 0.00243944 0)
(0.201569 0.00237867 0)
(0.201525 0.00235579 0)
(0.201511 0.00227541 0)
(0.201509 0.00223627 0)
(0.201507 0.00220775 0)
(0.201507 0.00219802 0)
(0.201495 0.00220196 0)
(0.201465 0.00215988 0)
(0.201421 0.00215236 0)
(0.201371 0.00209777 0)
(0.201316 0.00203905 0)
(0.201266 0.00198282 0)
(0.201244 0.00190875 0)
(0.201237 0.00188448 0)
(0.201225 0.00187779 0)
(0.201207 0.00185975 0)
(0.201173 0.00184202 0)
(0.201126 0.00179955 0)
(0.201064 0.00175924 0)
(0.200994 0.00170374 0)
(0.200933 0.00165489 0)
(0.200892 0.00161671 0)
(0.200858 0.00158201 0)
(0.200813 0.00153624 0)
(0.200759 0.00153316 0)
(0.200701 0.00148342 0)
(0.200647 0.00144171 0)
(0.200594 0.00142941 0)
(0.200519 0.00140252 0)
(0.200431 0.00135713 0)
(0.200337 0.00132963 0)
(0.200237 0.00127533 0)
(0.20015 0.00121706 0)
(0.20008 0.00119835 0)
(0.199995 0.00118 0)
(0.199891 0.00113682 0)
(0.199784 0.00109168 0)
(0.199699 0.00107212 0)
(0.199589 0.00103621 0)