/*--------------------------------*- C++ -*----------------------------------*\
| =========                 |                                                 |
| \\      /  F ield         | OpenFOAM: The Open Source CFD Toolbox           |
|  \\    /   O peration     | Version:  2.3.0                                 |
|   \\  /    A nd           | Web:      www.OpenFOAM.org                      |
|    \\/     M anipulation  |                                                 |
\*---------------------------------------------------------------------------*/
FoamFile
{
    version     2.0;
    format      ascii;
    class       surfaceScalarField;
    location    "0.35";
    object      phi;
}
// * * * * * * * * * * * * * * * * * * * * * * * * * * * * * * * * * * * * * //

dimensions      [0 3 -1 0 0 0 0];

internalField   nonuniform List<scalar> 
13570
(
2.82961e-08
2.88549e-09
-3.11815e-08
2.54286e-08
2.86741e-09
2.27383e-08
2.69038e-09
2.02586e-08
2.47969e-09
1.80057e-08
2.2529e-09
1.59901e-08
2.01553e-09
1.42144e-08
1.77576e-09
1.2673e-08
1.54139e-09
1.1354e-08
1.319e-09
1.02401e-08
1.11396e-09
9.30985e-09
9.30201e-10
8.53983e-09
7.70024e-10
7.90578e-09
6.34044e-10
7.38437e-09
5.21408e-10
6.95424e-09
4.30134e-10
6.59671e-09
3.57534e-10
6.2961e-09
3.00608e-10
6.03972e-09
2.5638e-10
5.81759e-09
2.22132e-10
5.62206e-09
1.95525e-10
5.44741e-09
1.7465e-10
5.2894e-09
1.58014e-10
5.14491e-09
1.44485e-10
5.01167e-09
1.33237e-10
4.888e-09
1.23674e-10
4.77262e-09
1.1538e-10
4.66455e-09
1.08066e-10
4.56303e-09
1.01529e-10
4.4674e-09
9.5629e-11
4.37713e-09
9.02644e-11
4.29177e-09
8.53605e-11
4.21091e-09
8.08595e-11
4.1342e-09
7.67148e-11
4.06131e-09
7.28874e-11
3.99197e-09
6.9344e-11
3.92591e-09
6.60551e-11
3.86292e-09
6.29948e-11
3.80278e-09
6.01398e-11
3.74531e-09
5.74694e-11
3.69034e-09
5.4965e-11
3.63773e-09
5.261e-11
3.58734e-09
5.03895e-11
3.53905e-09
4.82902e-11
3.49275e-09
4.63e-11
3.44834e-09
4.44084e-11
3.40574e-09
4.26057e-11
3.36485e-09
4.0883e-11
3.32562e-09
3.92327e-11
3.28797e-09
3.76474e-11
3.25185e-09
3.61208e-11
3.21721e-09
3.46468e-11
3.18399e-09
3.322e-11
3.15215e-09
3.18353e-11
3.12166e-09
3.04881e-11
3.09249e-09
2.9174e-11
3.0646e-09
2.78891e-11
3.03797e-09
2.66294e-11
3.01258e-09
2.53914e-11
2.98841e-09
2.4172e-11
2.96544e-09
2.29681e-11
2.94366e-09
2.17773e-11
2.92306e-09
2.05972e-11
2.90364e-09
1.9426e-11
2.88538e-09
1.82615e-11
2.86828e-09
1.7101e-11
2.85234e-09
1.594e-11
2.83756e-09
1.47715e-11
2.82398e-09
1.35843e-11
2.81162e-09
1.23623e-11
2.80053e-09
1.10844e-11
2.79081e-09
9.72492e-12
2.78255e-09
8.25686e-12
2.77589e-09
6.65714e-12
2.77098e-09
4.91094e-12
2.76798e-09
3.00607e-12
2.76698e-09
9.95313e-13
2.76769e-09
-7.03697e-13
2.76965e-09
-1.96299e-12
2.77256e-09
-2.90872e-12
2.77616e-09
-3.59904e-12
2.78021e-09
-4.05684e-12
2.78453e-09
-4.31253e-12
2.78894e-09
-4.40916e-12
2.79331e-09
-4.37336e-12
2.79755e-09
-4.24473e-12
2.80161e-09
-4.05197e-12
2.80542e-09
-3.81256e-12
2.80897e-09
-3.54798e-12
2.81224e-09
-3.27417e-12
2.81524e-09
-2.99788e-12
2.81796e-09
-2.72346e-12
2.82042e-09
-2.45435e-12
2.82261e-09
-2.19184e-12
2.82454e-09
-1.9346e-12
2.82622e-09
-1.67843e-12
2.82764e-09
-1.41612e-12
2.82877e-09
-1.1365e-12
2.8296e-09
-8.2541e-13
2.8301e-09
-4.97422e-13
-3.9231e-13
3.33292e-08
3.16331e-09
-3.3607e-08
3.27377e-08
3.45896e-09
3.19142e-08
3.51387e-09
3.09354e-08
3.45842e-09
2.9857e-08
3.33136e-09
2.87244e-08
3.14812e-09
2.75746e-08
2.92557e-09
2.64359e-08
2.68009e-09
2.53292e-08
2.42568e-09
2.42692e-08
2.17391e-09
2.32655e-08
1.93391e-09
2.23233e-08
1.71224e-09
2.14445e-08
1.51283e-09
2.06287e-08
1.33726e-09
1.98735e-08
1.18527e-09
1.91758e-08
1.05527e-09
1.85315e-08
9.44899e-10
1.79364e-08
8.51467e-10
1.73863e-08
7.72299e-10
1.68769e-08
7.04926e-10
1.64043e-08
6.47201e-10
1.5965e-08
5.97327e-10
1.55556e-08
5.53846e-10
1.51733e-08
5.15595e-10
1.48153e-08
4.81661e-10
1.44793e-08
4.51329e-10
1.41634e-08
4.24039e-10
1.38655e-08
3.99346e-10
1.35843e-08
3.76897e-10
1.33181e-08
3.56403e-10
1.30659e-08
3.37625e-10
1.28264e-08
3.20363e-10
1.25986e-08
3.04447e-10
1.23818e-08
2.89729e-10
1.21751e-08
2.76081e-10
1.19777e-08
2.63391e-10
1.17892e-08
2.51559e-10
1.16088e-08
2.40497e-10
1.14361e-08
2.30128e-10
1.12707e-08
2.20382e-10
1.11121e-08
2.11198e-10
1.096e-08
2.02519e-10
1.0814e-08
1.94297e-10
1.06738e-08
1.86487e-10
1.05392e-08
1.79048e-10
1.04098e-08
1.71944e-10
1.02856e-08
1.65142e-10
1.01662e-08
1.58612e-10
1.00515e-08
1.52326e-10
9.94139e-09
1.46259e-10
9.83565e-09
1.40388e-10
9.73417e-09
1.3469e-10
9.63686e-09
1.29147e-10
9.54361e-09
1.23739e-10
9.45434e-09
1.18448e-10
9.36897e-09
1.13259e-10
9.28744e-09
1.08155e-10
9.20971e-09
1.03122e-10
9.13574e-09
9.81471e-11
9.06549e-09
9.32165e-11
8.99895e-09
8.83189e-11
8.9361e-09
8.34433e-11
8.87695e-09
7.85788e-11
8.8215e-09
7.37139e-11
8.76976e-09
6.88347e-11
8.72178e-09
6.39229e-11
8.6776e-09
5.89539e-11
8.63729e-09
5.38951e-11
8.60094e-09
4.87059e-11
8.56869e-09
4.33397e-11
8.54066e-09
3.77501e-11
8.51702e-09
3.1901e-11
8.49789e-09
2.57808e-11
8.48339e-09
1.94168e-11
8.47352e-09
1.28713e-11
8.46831e-09
6.20737e-12
8.46755e-09
5.52222e-14
8.47035e-09
-4.75745e-12
8.47563e-09
-8.19379e-12
8.48268e-09
-1.06477e-11
8.49091e-09
-1.22908e-11
8.49986e-09
-1.32594e-11
8.50915e-09
-1.36996e-11
8.51849e-09
-1.37108e-11
8.52766e-09
-1.34136e-11
8.5365e-09
-1.28988e-11
8.54492e-09
-1.22275e-11
8.55283e-09
-1.1464e-11
8.56022e-09
-1.0656e-11
8.56705e-09
-9.82791e-12
8.57332e-09
-8.99568e-12
8.57903e-09
-8.17041e-12
8.5842e-09
-7.35643e-12
8.58882e-09
-6.55038e-12
8.59288e-09
-5.74067e-12
8.59637e-09
-4.90701e-12
8.59925e-09
-4.01876e-12
8.60147e-09
-3.04017e-12
8.60297e-09
-2.00337e-12
-1.19153e-12
3.47241e-08
3.01483e-09
-3.45757e-08
3.47835e-08
3.39957e-09
3.47165e-08
3.58089e-09
3.45286e-08
3.64635e-09
3.42304e-08
3.62958e-09
3.38362e-08
3.54231e-09
3.33635e-08
3.39829e-09
3.283e-08
3.2135e-09
3.22527e-08
3.00306e-09
3.16463e-08
2.78031e-09
3.10236e-08
2.55656e-09
3.03952e-08
2.34066e-09
2.97692e-08
2.13883e-09
2.91517e-08
1.95472e-09
2.85472e-08
1.78984e-09
2.79584e-08
1.64404e-09
2.73872e-08
1.51608e-09
2.68346e-08
1.40409e-09
2.63009e-08
1.30599e-09
2.57861e-08
1.2197e-09
2.529e-08
1.14333e-09
2.48121e-08
1.07525e-09
2.43518e-08
1.01409e-09
2.39087e-08
9.58746e-10
2.3482e-08
9.08327e-10
2.30712e-08
8.62126e-10
2.26757e-08
8.19583e-10
2.22948e-08
7.80246e-10
2.19279e-08
7.43748e-10
2.15745e-08
7.09787e-10
2.1234e-08
6.78106e-10
2.09059e-08
6.48487e-10
2.05896e-08
6.20739e-10
2.02847e-08
5.94693e-10
1.99905e-08
5.70197e-10
1.97068e-08
5.47118e-10
1.9433e-08
5.25331e-10
1.91688e-08
5.04725e-10
1.89137e-08
4.85198e-10
1.86675e-08
4.66658e-10
1.84297e-08
4.49018e-10
1.82e-08
4.32202e-10
1.79781e-08
4.16136e-10
1.77639e-08
4.00755e-10
1.75569e-08
3.85997e-10
1.73571e-08
3.71805e-10
1.71641e-08
3.58126e-10
1.69778e-08
3.44911e-10
1.6798e-08
3.32114e-10
1.66245e-08
3.19691e-10
1.64573e-08
3.07602e-10
1.62962e-08
2.95808e-10
1.61411e-08
2.84274e-10
1.59919e-08
2.72963e-10
1.58485e-08
2.61845e-10
1.57108e-08
2.50886e-10
1.55789e-08
2.40057e-10
1.54527e-08
2.29329e-10
1.53322e-08
2.18676e-10
1.52173e-08
2.0807e-10
1.51082e-08
1.97488e-10
1.50047e-08
1.86905e-10
1.4907e-08
1.76297e-10
1.48151e-08
1.65639e-10
1.4729e-08
1.54902e-10
1.46489e-08
1.44051e-10
1.45748e-08
1.33044e-10
1.45069e-08
1.21831e-10
1.44452e-08
1.10357e-10
1.439e-08
9.85684e-11
1.43413e-08
8.64269e-11
1.42993e-08
7.39281e-11
1.42639e-08
6.11277e-11
1.42352e-08
4.81737e-11
1.42127e-08
3.53356e-11
1.41959e-08
2.29718e-11
1.41847e-08
1.12681e-11
1.41793e-08
6.35642e-13
1.4179e-08
-7.8271e-12
1.41822e-08
-1.39087e-11
1.41881e-08
-1.81685e-11
1.41958e-08
-2.09635e-11
1.42047e-08
-2.26161e-11
1.42144e-08
-2.33419e-11
1.42243e-08
-2.33824e-11
1.42343e-08
-2.29205e-11
1.42442e-08
-2.20852e-11
1.42537e-08
-2.10048e-11
1.42629e-08
-1.97767e-11
1.42715e-08
-1.8457e-11
1.42796e-08
-1.70847e-11
1.42871e-08
-1.56875e-11
1.4294e-08
-1.42794e-11
1.43003e-08
-1.28601e-11
1.4306e-08
-1.14136e-11
1.4311e-08
-9.90778e-12
1.43153e-08
-8.29133e-12
1.43187e-08
-6.49586e-12
1.43212e-08
-4.49935e-12
-2.34181e-12
3.5558e-08
2.82713e-09
-3.53703e-08
3.57489e-08
3.20873e-09
3.58984e-08
3.43135e-09
3.59942e-08
3.55054e-09
3.60296e-08
3.59416e-09
3.60008e-08
3.57119e-09
3.59081e-08
3.49094e-09
3.57558e-08
3.36582e-09
3.55501e-08
3.20876e-09
3.52986e-08
3.03186e-09
3.50092e-08
2.8459e-09
3.46899e-08
2.65992e-09
3.4348e-08
2.48075e-09
3.39897e-08
2.31301e-09
3.36203e-08
2.15926e-09
3.32439e-08
2.02041e-09
3.28639e-08
1.89617e-09
3.24825e-08
1.78547e-09
3.21016e-08
1.68686e-09
3.17226e-08
1.59875e-09
3.13463e-08
1.51958e-09
3.09736e-08
1.44798e-09
3.06049e-08
1.38274e-09
3.02408e-08
1.32289e-09
2.98815e-08
1.2676e-09
2.95274e-08
1.21624e-09
2.91787e-08
1.16828e-09
2.88356e-08
1.12332e-09
2.84984e-08
1.08103e-09
2.8167e-08
1.04112e-09
2.78418e-08
1.00337e-09
2.75227e-08
9.67592e-10
2.72098e-08
9.3361e-10
2.69032e-08
9.01279e-10
2.66029e-08
8.70466e-10
2.6309e-08
8.41051e-10
2.60214e-08
8.12925e-10
2.57401e-08
7.85988e-10
2.54652e-08
7.60149e-10
2.51965e-08
7.3532e-10
2.49341e-08
7.11422e-10
2.46779e-08
6.88381e-10
2.4428e-08
6.66126e-10
2.41841e-08
6.44592e-10
2.39464e-08
6.23717e-10
2.37148e-08
6.03441e-10
2.34892e-08
5.83709e-10
2.32696e-08
5.64467e-10
2.30561e-08
5.45664e-10
2.28485e-08
5.2725e-10
2.26469e-08
5.09178e-10
2.24513e-08
4.91403e-10
2.22617e-08
4.73878e-10
2.20781e-08
4.56562e-10
2.19006e-08
4.39412e-10
2.17291e-08
4.22386e-10
2.15637e-08
4.05445e-10
2.14045e-08
3.88548e-10
2.12515e-08
3.71659e-10
2.11048e-08
3.5474e-10
2.09645e-08
3.37755e-10
2.08308e-08
3.20669e-10
2.07036e-08
3.03445e-10
2.05832e-08
2.86044e-10
2.04697e-08
2.68425e-10
2.03632e-08
2.50541e-10
2.02639e-08
2.32339e-10
2.0172e-08
2.13762e-10
2.00876e-08
1.94757e-10
2.00109e-08
1.75286e-10
1.9942e-08
1.55345e-10
1.98809e-08
1.34994e-10
1.98276e-08
1.14385e-10
1.9782e-08
9.38008e-11
1.97437e-08
7.36727e-11
1.97121e-08
5.4563e-11
1.96863e-08
3.70475e-11
1.96655e-08
2.13812e-11
1.96504e-08
7.3134e-12
1.96411e-08
-4.63103e-12
1.96366e-08
-1.36105e-11
1.96356e-08
-2.00101e-11
1.96374e-08
-2.44098e-11
1.96412e-08
-2.71653e-11
1.96465e-08
-2.86712e-11
1.96528e-08
-2.92224e-11
1.96598e-08
-2.90342e-11
1.96671e-08
-2.83193e-11
1.96746e-08
-2.72422e-11
1.9682e-08
-2.59058e-11
1.96893e-08
-2.43869e-11
1.96964e-08
-2.27419e-11
1.97031e-08
-2.10061e-11
1.97094e-08
-1.91917e-11
1.97153e-08
-1.72869e-11
1.97206e-08
-1.52546e-11
1.97254e-08
-1.30262e-11
1.97294e-08
-1.04899e-11
1.97324e-08
-7.4875e-12
-3.51346e-12
3.63082e-08
2.66298e-09
-3.6144e-08
3.65019e-08
3.01503e-09
3.66894e-08
3.24385e-09
3.68579e-08
3.382e-09
3.69999e-08
3.45215e-09
3.71082e-08
3.46293e-09
3.71777e-08
3.42143e-09
3.72063e-08
3.33725e-09
3.71941e-08
3.22098e-09
3.71431e-08
3.08285e-09
3.70567e-08
2.93227e-09
3.69392e-08
2.7774e-09
3.67952e-08
2.62477e-09
3.66292e-08
2.47906e-09
3.64452e-08
2.34326e-09
3.62467e-08
2.21882e-09
3.60369e-08
2.10606e-09
3.58178e-08
2.0045e-09
3.55915e-08
1.91318e-09
3.53593e-08
1.83094e-09
3.51224e-08
1.75654e-09
3.48815e-08
1.68883e-09
3.46375e-08
1.62678e-09
3.43909e-08
1.56951e-09
3.41422e-08
1.5163e-09
3.38918e-08
1.46656e-09
3.36403e-08
1.4198e-09
3.3388e-08
1.37565e-09
3.31352e-08
1.3338e-09
3.28824e-08
1.29398e-09
3.26297e-08
1.256e-09
3.23776e-08
1.21968e-09
3.21264e-08
1.18487e-09
3.18762e-08
1.15143e-09
3.16274e-08
1.11925e-09
3.13803e-08
1.08822e-09
3.11349e-08
1.05826e-09
3.08917e-08
1.02927e-09
3.06506e-08
1.00117e-09
3.04121e-08
9.73897e-10
3.01761e-08
9.47371e-10
2.9943e-08
9.21529e-10
2.97128e-08
8.96311e-10
2.94857e-08
8.71655e-10
2.92619e-08
8.47508e-10
2.90415e-08
8.23813e-10
2.88247e-08
8.00519e-10
2.86116e-08
7.77575e-10
2.84024e-08
7.5493e-10
2.81971e-08
7.32537e-10
2.79959e-08
7.10348e-10
2.7799e-08
6.88314e-10
2.76065e-08
6.6639e-10
2.74185e-08
6.44528e-10
2.72352e-08
6.22682e-10
2.70568e-08
6.00807e-10
2.68834e-08
5.78857e-10
2.67152e-08
5.56786e-10
2.65523e-08
5.3455e-10
2.63949e-08
5.12105e-10
2.62433e-08
4.89407e-10
2.60975e-08
4.66411e-10
2.59579e-08
4.43074e-10
2.58246e-08
4.19347e-10
2.56978e-08
3.95182e-10
2.55779e-08
3.70524e-10
2.54649e-08
3.45319e-10
2.53591e-08
3.19516e-10
2.52608e-08
2.93076e-10
2.51701e-08
2.65992e-10
2.50871e-08
2.38312e-10
2.50119e-08
2.10171e-10
2.49445e-08
1.81821e-10
2.48846e-08
1.53665e-10
2.48321e-08
1.26257e-10
2.47864e-08
1.00272e-10
2.4747e-08
7.63754e-11
2.47134e-08
5.50145e-11
2.46843e-08
3.63863e-11
2.46593e-08
2.03751e-11
2.46391e-08
6.55373e-12
2.4624e-08
-4.88984e-12
2.46131e-08
-1.35254e-11
2.46057e-08
-1.97036e-11
2.4601e-08
-2.39932e-11
2.45986e-08
-2.67757e-11
2.45979e-08
-2.83435e-11
2.45985e-08
-2.89961e-11
2.46003e-08
-2.89684e-11
2.46028e-08
-2.84155e-11
2.46059e-08
-2.74595e-11
2.46093e-08
-2.6195e-11
2.4613e-08
-2.46875e-11
2.46168e-08
-2.29716e-11
2.46205e-08
-2.10486e-11
2.46242e-08
-1.88854e-11
2.46275e-08
-1.6404e-11
2.46305e-08
-1.3448e-11
2.46327e-08
-9.68331e-12
-3.88543e-12
3.70517e-08
2.52494e-09
-3.69136e-08
3.72248e-08
2.84193e-09
3.74047e-08
3.06395e-09
3.75793e-08
3.20733e-09
3.77424e-08
3.28912e-09
3.78877e-08
3.3176e-09
3.80102e-08
3.29896e-09
3.81064e-08
3.24102e-09
3.81747e-08
3.15266e-09
3.82149e-08
3.04263e-09
3.82281e-08
2.91907e-09
3.82164e-08
2.78918e-09
3.81822e-08
2.65889e-09
3.81286e-08
2.53266e-09
3.80584e-08
2.41349e-09
3.79741e-08
2.30311e-09
3.7878e-08
2.20219e-09
3.77718e-08
2.11063e-09
3.76572e-08
2.02785e-09
3.75351e-08
1.95299e-09
3.74066e-08
1.8851e-09
3.72722e-08
1.8232e-09
3.71325e-08
1.76643e-09
3.69881e-08
1.71399e-09
3.68391e-08
1.66524e-09
3.66861e-08
1.61962e-09
3.65292e-08
1.57668e-09
3.63688e-08
1.53606e-09
3.62051e-08
1.49745e-09
3.60385e-08
1.46061e-09
3.58692e-08
1.42533e-09
3.56974e-08
1.39145e-09
3.55235e-08
1.35881e-09
3.53476e-08
1.32729e-09
3.51701e-08
1.29679e-09
3.49911e-08
1.26719e-09
3.4811e-08
1.23841e-09
3.46299e-08
1.21036e-09
3.44481e-08
1.18298e-09
3.42658e-08
1.15619e-09
3.40832e-08
1.12993e-09
3.39006e-08
1.10413e-09
3.37182e-08
1.07873e-09
3.35362e-08
1.05369e-09
3.33547e-08
1.02893e-09
3.31741e-08
1.00442e-09
3.29945e-08
9.80106e-10
3.28162e-08
9.55928e-10
3.26393e-08
9.31841e-10
3.2464e-08
9.07795e-10
3.22906e-08
8.83743e-10
3.21193e-08
8.59635e-10
3.19503e-08
8.35421e-10
3.17837e-08
8.11053e-10
3.16199e-08
7.8648e-10
3.14591e-08
7.61654e-10
3.13014e-08
7.36523e-10
3.11472e-08
7.11037e-10
3.09966e-08
6.85148e-10
3.08499e-08
6.58803e-10
3.07073e-08
6.31955e-10
3.05692e-08
6.04552e-10
3.04357e-08
5.76543e-10
3.03072e-08
5.47876e-10
3.01839e-08
5.18498e-10
3.0066e-08
4.88354e-10
2.9954e-08
4.57393e-10
2.98479e-08
4.25577e-10
2.97481e-08
3.9289e-10
2.96547e-08
3.59363e-10
2.95679e-08
3.25099e-10
2.94878e-08
2.90303e-10
2.94143e-08
2.55315e-10
2.93474e-08
2.20629e-10
2.92867e-08
1.86884e-10
2.92322e-08
1.54814e-10
2.91834e-08
1.25126e-10
2.91401e-08
9.83401e-11
2.91018e-08
7.47344e-11
2.90678e-08
5.43176e-11
2.90374e-08
3.69747e-11
2.901e-08
2.24695e-11
2.89861e-08
1.03623e-11
2.89661e-08
3.46671e-13
2.89496e-08
-7.521e-12
2.89362e-08
-1.33212e-11
2.89253e-08
-1.74566e-11
2.89166e-08
-2.02987e-11
2.89097e-08
-2.21239e-11
2.89044e-08
-2.31219e-11
2.89004e-08
-2.34545e-11
2.88975e-08
-2.32517e-11
2.88954e-08
-2.2609e-11
2.8894e-08
-2.15851e-11
2.88932e-08
-2.01982e-11
2.88927e-08
-1.84254e-11
2.88925e-08
-1.61879e-11
2.88924e-08
-1.32967e-11
2.88919e-08
-9.26843e-12
-2.298e-12
3.78004e-08
2.40722e-09
-3.76827e-08
3.79522e-08
2.69019e-09
3.81159e-08
2.90019e-09
3.82801e-08
3.04314e-09
3.84387e-08
3.13053e-09
3.85866e-08
3.16966e-09
3.87196e-08
3.16603e-09
3.88344e-08
3.12624e-09
3.89292e-08
3.05784e-09
3.90034e-08
2.96843e-09
3.90573e-08
2.86516e-09
3.9092e-08
2.75442e-09
3.91094e-08
2.64157e-09
3.91112e-08
2.53078e-09
3.90997e-08
2.425e-09
3.90768e-08
2.32607e-09
3.90441e-08
2.23487e-09
3.90031e-08
2.1516e-09
3.8955e-08
2.07595e-09
3.89007e-08
2.00734e-09
3.88408e-08
1.94501e-09
3.87758e-08
1.88819e-09
3.87061e-08
1.83612e-09
3.8632e-08
1.7881e-09
3.85537e-08
1.74356e-09
3.84713e-08
1.70197e-09
3.83851e-08
1.6629e-09
3.82951e-08
1.62601e-09
3.82016e-08
1.59099e-09
3.81046e-08
1.55761e-09
3.80043e-08
1.52565e-09
3.79008e-08
1.49494e-09
3.77942e-08
1.46533e-09
3.76848e-08
1.43669e-09
3.75727e-08
1.40891e-09
3.7458e-08
1.38188e-09
3.73409e-08
1.35551e-09
3.72216e-08
1.32971e-09
3.71001e-08
1.30441e-09
3.69768e-08
1.27954e-09
3.68517e-08
1.25502e-09
3.6725e-08
1.23079e-09
3.6597e-08
1.20679e-09
3.64677e-08
1.18296e-09
3.63374e-08
1.15925e-09
3.62062e-08
1.13559e-09
3.60744e-08
1.11194e-09
3.59421e-08
1.08824e-09
3.58095e-08
1.06444e-09
3.56768e-08
1.04048e-09
3.55442e-08
1.01631e-09
3.5412e-08
9.91873e-10
3.52803e-08
9.67124e-10
3.51493e-08
9.42003e-10
3.50194e-08
9.16457e-10
3.48906e-08
8.9043e-10
3.47632e-08
8.63865e-10
3.46376e-08
8.36707e-10
3.45138e-08
8.08899e-10
3.43922e-08
7.80386e-10
3.42731e-08
7.51111e-10
3.41566e-08
7.21017e-10
3.40431e-08
6.9005e-10
3.39328e-08
6.58152e-10
3.38261e-08
6.25268e-10
3.37231e-08
5.91345e-10
3.36241e-08
5.56342e-10
3.35295e-08
5.20234e-10
3.34393e-08
4.8303e-10
3.33539e-08
4.44797e-10
3.32733e-08
4.05686e-10
3.31977e-08
3.6596e-10
3.31269e-08
3.26023e-10
3.30611e-08
2.86429e-10
3.30002e-08
2.47868e-10
3.29439e-08
2.11097e-10
3.28922e-08
1.76837e-10
3.28449e-08
1.45635e-10
3.28018e-08
1.17813e-10
3.27627e-08
9.34533e-11
3.27271e-08
7.24915e-11
3.26949e-08
5.47086e-11
3.26655e-08
3.97917e-11
3.26384e-08
2.74454e-11
3.26135e-08
1.73276e-11
3.25911e-08
9.07984e-12
3.25713e-08
2.36267e-12
3.2554e-08
-2.95591e-12
3.25388e-08
-6.94925e-12
3.25255e-08
-9.83834e-12
3.25139e-08
-1.18333e-11
3.25037e-08
-1.30935e-11
3.24948e-08
-1.3732e-11
3.24871e-08
-1.38203e-11
3.24803e-08
-1.33887e-11
3.24743e-08
-1.24252e-11
3.24689e-08
-1.0858e-11
3.24641e-08
-8.49128e-12
3.24597e-08
-4.80995e-12
2.21995e-12
3.85562e-08
2.30469e-09
-3.84537e-08
3.86896e-08
2.55681e-09
3.88371e-08
2.7527e-09
3.8988e-08
2.89223e-09
3.91363e-08
2.98225e-09
3.92773e-08
3.02859e-09
3.94073e-08
3.03605e-09
3.95234e-08
3.01019e-09
3.96238e-08
2.95741e-09
3.97079e-08
2.88434e-09
3.97758e-08
2.79728e-09
3.98283e-08
2.70193e-09
3.98667e-08
2.60316e-09
3.98926e-08
2.50485e-09
3.99077e-08
2.40988e-09
3.99137e-08
2.32013e-09
3.99119e-08
2.23665e-09
3.99036e-08
2.15987e-09
3.98899e-08
2.08971e-09
3.98714e-08
2.02579e-09
3.98489e-08
1.96759e-09
3.98226e-08
1.91446e-09
3.97929e-08
1.86579e-09
3.976e-08
1.82098e-09
3.97241e-08
1.77949e-09
3.96852e-08
1.74087e-09
3.96434e-08
1.70471e-09
3.95987e-08
1.67066e-09
3.95513e-08
1.63846e-09
3.95011e-08
1.60784e-09
3.94481e-08
1.5786e-09
3.93925e-08
1.55057e-09
3.93342e-08
1.5236e-09
3.92734e-08
1.49754e-09
3.921e-08
1.47227e-09
3.91442e-08
1.4477e-09
3.9076e-08
1.42371e-09
3.90054e-08
1.40023e-09
3.89327e-08
1.37716e-09
3.88578e-08
1.35443e-09
3.87809e-08
1.33197e-09
3.87019e-08
1.3097e-09
3.86212e-08
1.28756e-09
3.85387e-08
1.26548e-09
3.84545e-08
1.2434e-09
3.83688e-08
1.22126e-09
3.82818e-08
1.19901e-09
3.81935e-08
1.17657e-09
3.8104e-08
1.15389e-09
3.80136e-08
1.13091e-09
3.79223e-08
1.10758e-09
3.78303e-08
1.08383e-09
3.77379e-08
1.0596e-09
3.7645e-08
1.03483e-09
3.7552e-08
1.00946e-09
3.7459e-08
9.83421e-10
3.73662e-08
9.5666e-10
3.72738e-08
9.29109e-10
3.7182e-08
9.00706e-10
3.7091e-08
8.71387e-10
3.70011e-08
8.4109e-10
3.69123e-08
8.09752e-10
3.68251e-08
7.77314e-10
3.67395e-08
7.43714e-10
3.66559e-08
7.08897e-10
3.65744e-08
6.72815e-10
3.64953e-08
6.35432e-10
3.64188e-08
5.96738e-10
3.63451e-08
5.56766e-10
3.62743e-08
5.15612e-10
3.62065e-08
4.73462e-10
3.61418e-08
4.3062e-10
3.60803e-08
3.87529e-10
3.6022e-08
3.44774e-10
3.59668e-08
3.03061e-10
3.59147e-08
2.63148e-10
3.58658e-08
2.25749e-10
3.582e-08
1.9142e-10
3.57773e-08
1.60504e-10
3.57377e-08
1.33131e-10
3.57009e-08
1.09269e-10
3.56668e-08
8.8743e-11
3.56353e-08
7.12878e-11
3.56062e-08
5.661e-11
3.55792e-08
4.43587e-11
3.5554e-08
3.41933e-11
3.55306e-08
2.58296e-11
3.55086e-08
1.8997e-11
3.54882e-08
1.34585e-11
3.54694e-08
9.02332e-12
3.5452e-08
5.51788e-12
3.54361e-08
2.80343e-12
3.54216e-08
8.02088e-13
3.54083e-08
-5.10705e-13
3.5396e-08
-1.15775e-12
3.53848e-08
-1.15199e-12
3.53743e-08
-4.46752e-13
3.53648e-08
1.10006e-12
3.5356e-08
3.96709e-12
1.00319e-11
3.93194e-08
2.21376e-09
-3.92285e-08
3.94376e-08
2.43868e-09
3.95704e-08
2.61988e-09
3.97085e-08
2.75417e-09
3.98458e-08
2.84489e-09
3.99781e-08
2.89632e-09
4.01017e-08
2.91246e-09
4.02139e-08
2.89794e-09
4.03131e-08
2.85818e-09
4.03986e-08
2.79889e-09
4.04702e-08
2.72561e-09
4.05288e-08
2.64342e-09
4.05752e-08
2.55674e-09
4.06109e-08
2.46917e-09
4.06373e-08
2.38347e-09
4.06558e-08
2.30155e-09
4.06679e-08
2.22459e-09
4.06746e-08
2.15317e-09
4.06769e-08
2.08742e-09
4.06755e-08
2.02717e-09
4.06711e-08
1.97204e-09
4.06639e-08
1.92158e-09
4.06545e-08
1.87526e-09
4.06428e-08
1.8326e-09
4.06292e-08
1.79314e-09
4.06136e-08
1.75644e-09
4.05962e-08
1.72216e-09
4.05769e-08
1.68997e-09
4.05557e-08
1.65959e-09
4.05328e-08
1.63081e-09
4.0508e-08
1.6034e-09
4.04813e-08
1.5772e-09
4.04529e-08
1.55205e-09
4.04226e-08
1.52782e-09
4.03905e-08
1.50437e-09
4.03566e-08
1.48161e-09
4.03209e-08
1.45943e-09
4.02834e-08
1.43773e-09
4.02441e-08
1.41642e-09
4.02031e-08
1.39543e-09
4.01604e-08
1.37468e-09
4.0116e-08
1.35408e-09
4.007e-08
1.33358e-09
4.00224e-08
1.31309e-09
3.99733e-08
1.29255e-09
3.99226e-08
1.2719e-09
3.98706e-08
1.25107e-09
3.98171e-08
1.22998e-09
3.97624e-08
1.20859e-09
3.97065e-08
1.18682e-09
3.96495e-08
1.1646e-09
3.95915e-08
1.14187e-09
3.95325e-08
1.11856e-09
3.94727e-08
1.09461e-09
3.94122e-08
1.06995e-09
3.93512e-08
1.0445e-09
3.92896e-08
1.0182e-09
3.92277e-08
9.90982e-10
3.91657e-08
9.62769e-10
3.91036e-08
9.33494e-10
3.90416e-08
9.0309e-10
3.89798e-08
8.71489e-10
3.89185e-08
8.38626e-10
3.88578e-08
8.0444e-10
3.87978e-08
7.68873e-10
3.87387e-08
7.31881e-10
3.86807e-08
6.93437e-10
3.86239e-08
6.53544e-10
3.85685e-08
6.1225e-10
3.85144e-08
5.69674e-10
3.84618e-08
5.26025e-10
3.84108e-08
4.81631e-10
3.83614e-08
4.3695e-10
3.83136e-08
3.92574e-10
3.82675e-08
3.49198e-10
3.8223e-08
3.07561e-10
3.81804e-08
2.68355e-10
3.81397e-08
2.32133e-10
3.8101e-08
1.99249e-10
3.80643e-08
1.69863e-10
3.80295e-08
1.43975e-10
3.79968e-08
1.21448e-10
3.79661e-08
1.02054e-10
3.79372e-08
8.55189e-11
3.791e-08
7.15223e-11
3.78845e-08
5.97429e-11
3.78604e-08
4.98974e-11
3.78377e-08
4.17069e-11
3.78162e-08
3.49174e-11
3.77959e-08
2.93245e-11
3.77767e-08
2.47577e-11
3.77584e-08
2.10828e-11
3.7741e-08
1.81996e-11
3.77244e-08
1.60366e-11
3.77087e-08
1.45541e-11
3.76938e-08
1.37495e-11
3.76797e-08
1.36711e-11
3.76664e-08
1.44659e-11
3.76538e-08
1.65157e-11
2.09333e-11
4.00906e-08
2.13188e-09
-4.00088e-08
4.01962e-08
2.33313e-09
4.03161e-08
2.49997e-09
4.04424e-08
2.62791e-09
4.05693e-08
2.71793e-09
4.06928e-08
2.77284e-09
4.08094e-08
2.79585e-09
4.09166e-08
2.79077e-09
4.10126e-08
2.76212e-09
4.10967e-08
2.71479e-09
4.11687e-08
2.65362e-09
4.1229e-08
2.58311e-09
4.12785e-08
2.50725e-09
4.13183e-08
2.42937e-09
4.13497e-08
2.35208e-09
4.1374e-08
2.27729e-09
4.13923e-08
2.20624e-09
4.14059e-08
2.13965e-09
4.14155e-08
2.07782e-09
4.14219e-08
2.02074e-09
4.14257e-08
1.9682e-09
4.14274e-08
1.91987e-09
4.14273e-08
1.87535e-09
4.14257e-08
1.83425e-09
4.14227e-08
1.79617e-09
4.14184e-08
1.76074e-09
4.14129e-08
1.72765e-09
4.14062e-08
1.69661e-09
4.13985e-08
1.66735e-09
4.13896e-08
1.63967e-09
4.13796e-08
1.61337e-09
4.13686e-08
1.58827e-09
4.13564e-08
1.56423e-09
4.13431e-08
1.54112e-09
4.13287e-08
1.5188e-09
4.13131e-08
1.49718e-09
4.12964e-08
1.47614e-09
4.12785e-08
1.45559e-09
4.12595e-08
1.43544e-09
4.12393e-08
1.41561e-09
4.1218e-08
1.39602e-09
4.11955e-08
1.37659e-09
4.11718e-08
1.35725e-09
4.1147e-08
1.33791e-09
4.1121e-08
1.31852e-09
4.10939e-08
1.29899e-09
4.10657e-08
1.27927e-09
4.10364e-08
1.25927e-09
4.10061e-08
1.23894e-09
4.09747e-08
1.21819e-09
4.09423e-08
1.19697e-09
4.0909e-08
1.17519e-09
4.08748e-08
1.15279e-09
4.08397e-08
1.1297e-09
4.08038e-08
1.10583e-09
4.07672e-08
1.08113e-09
4.07299e-08
1.0555e-09
4.0692e-08
1.02888e-09
4.06536e-08
1.00119e-09
4.06147e-08
9.72363e-10
4.05755e-08
9.42318e-10
4.0536e-08
9.10988e-10
4.04963e-08
8.78305e-10
4.04565e-08
8.44206e-10
4.04168e-08
8.08637e-10
4.03771e-08
7.71556e-10
4.03376e-08
7.32943e-10
4.02983e-08
6.92811e-10
4.02593e-08
6.51222e-10
4.02207e-08
6.08309e-10
4.01824e-08
5.64293e-10
4.01446e-08
5.19509e-10
4.01071e-08
4.74416e-10
4.00701e-08
4.2959e-10
4.00336e-08
3.85701e-10
3.99977e-08
3.43454e-10
3.99625e-08
3.03508e-10
3.99283e-08
2.66398e-10
3.9895e-08
2.32484e-10
3.98629e-08
2.01949e-10
3.98321e-08
1.74819e-10
3.98025e-08
1.50993e-10
3.97743e-08
1.30276e-10
3.97474e-08
1.12423e-10
3.97218e-08
9.71438e-11
3.96974e-08
8.4141e-11
3.96742e-08
7.31412e-11
3.9652e-08
6.38773e-11
3.96308e-08
5.61025e-11
3.96105e-08
4.96121e-11
3.9591e-08
4.42351e-11
3.95723e-08
3.9832e-11
3.95542e-08
3.62915e-11
3.95367e-08
3.35293e-11
3.95198e-08
3.14933e-11
3.95033e-08
3.01681e-11
3.94874e-08
2.95834e-11
3.94721e-08
2.98421e-11
3.94574e-08
3.11739e-11
3.39332e-11
4.08704e-08
2.05729e-09
-4.07958e-08
4.09655e-08
2.23802e-09
4.10742e-08
2.39131e-09
4.11898e-08
2.51234e-09
4.13071e-08
2.6006e-09
4.14222e-08
2.65771e-09
4.1532e-08
2.6861e-09
4.16339e-08
2.68886e-09
4.17263e-08
2.66974e-09
4.18082e-08
2.63288e-09
4.18794e-08
2.58246e-09
4.194e-08
2.52247e-09
4.19908e-08
2.45647e-09
4.20326e-08
2.38752e-09
4.20666e-08
2.31808e-09
4.20939e-08
2.25e-09
4.21156e-08
2.18457e-09
4.21326e-08
2.12261e-09
4.21459e-08
2.06454e-09
4.21562e-08
2.01049e-09
4.2164e-08
1.96039e-09
4.21698e-08
1.91401e-09
4.21741e-08
1.87109e-09
4.2177e-08
1.83131e-09
4.21788e-08
1.79434e-09
4.21797e-08
1.75989e-09
4.21797e-08
1.72765e-09
4.21789e-08
1.69739e-09
4.21774e-08
1.66887e-09
4.21752e-08
1.64188e-09
4.21723e-08
1.61624e-09
4.21688e-08
1.5918e-09
4.21646e-08
1.56841e-09
4.21598e-08
1.54593e-09
4.21543e-08
1.52426e-09
4.21482e-08
1.50328e-09
4.21415e-08
1.4829e-09
4.2134e-08
1.46301e-09
4.2126e-08
1.44354e-09
4.21172e-08
1.42439e-09
4.21077e-08
1.40549e-09
4.20976e-08
1.38675e-09
4.20867e-08
1.36811e-09
4.20751e-08
1.34949e-09
4.20628e-08
1.33081e-09
4.20498e-08
1.31201e-09
4.20361e-08
1.29301e-09
4.20216e-08
1.27374e-09
4.20064e-08
1.25413e-09
4.19905e-08
1.23411e-09
4.19739e-08
1.2136e-09
4.19565e-08
1.19253e-09
4.19385e-08
1.17083e-09
4.19198e-08
1.14842e-09
4.19004e-08
1.12522e-09
4.18803e-08
1.10116e-09
4.18597e-08
1.07617e-09
4.18384e-08
1.05015e-09
4.18166e-08
1.02304e-09
4.17942e-08
9.94752e-10
4.17713e-08
9.65222e-10
4.17479e-08
9.34374e-10
4.1724e-08
9.02141e-10
4.16998e-08
8.68459e-10
4.16751e-08
8.33278e-10
4.16501e-08
7.96561e-10
4.16248e-08
7.58294e-10
4.15991e-08
7.18499e-10
4.15731e-08
6.77248e-10
4.15467e-08
6.3468e-10
4.152e-08
5.91023e-10
4.14929e-08
5.46609e-10
4.14654e-08
5.01881e-10
4.14376e-08
4.57392e-10
4.14095e-08
4.13773e-10
4.13813e-08
3.71686e-10
4.13531e-08
3.3175e-10
4.1325e-08
2.94478e-10
4.12972e-08
2.60226e-10
4.127e-08
2.29191e-10
4.12434e-08
2.01423e-10
4.12175e-08
1.76854e-10
4.11925e-08
1.55322e-10
4.11683e-08
1.3661e-10
4.1145e-08
1.2046e-10
4.11225e-08
1.066e-10
4.11009e-08
9.4773e-11
4.108e-08
8.4727e-11
4.10599e-08
7.62292e-11
4.10404e-08
6.90806e-11
4.10216e-08
6.31131e-11
4.10032e-08
5.81862e-11
4.09853e-08
5.41853e-11
4.09678e-08
5.10204e-11
4.09507e-08
4.86305e-11
4.09339e-08
4.69859e-11
4.09174e-08
4.60918e-11
4.09012e-08
4.59953e-11
4.08856e-08
4.67691e-11
4.82223e-11
4.16594e-08
1.98871e-09
-4.15908e-08
4.17458e-08
2.15166e-09
4.18447e-08
2.29242e-09
4.19507e-08
2.40636e-09
4.20591e-08
2.49212e-09
4.21665e-08
2.55039e-09
4.22697e-08
2.58291e-09
4.23664e-08
2.59214e-09
4.24549e-08
2.58116e-09
4.25344e-08
2.55345e-09
4.26043e-08
2.51259e-09
4.26646e-08
2.46208e-09
4.2716e-08
2.40511e-09
4.27591e-08
2.34445e-09
4.27948e-08
2.28239e-09
4.2824e-08
2.22071e-09
4.28479e-08
2.16073e-09
4.28672e-08
2.1033e-09
4.28828e-08
2.04895e-09
4.28954e-08
1.99793e-09
4.29055e-08
1.95027e-09
4.29136e-08
1.90587e-09
4.29202e-08
1.86454e-09
4.29254e-08
1.82605e-09
4.29296e-08
1.79015e-09
4.29329e-08
1.75658e-09
4.29355e-08
1.7251e-09
4.29374e-08
1.69549e-09
4.29387e-08
1.66753e-09
4.29395e-08
1.64106e-09
4.29399e-08
1.61589e-09
4.29398e-08
1.59188e-09
4.29393e-08
1.5689e-09
4.29384e-08
1.54682e-09
4.29372e-08
1.52553e-09
4.29355e-08
1.50493e-09
4.29335e-08
1.48491e-09
4.29311e-08
1.46539e-09
4.29284e-08
1.44628e-09
4.29253e-08
1.4275e-09
4.29218e-08
1.40897e-09
4.29179e-08
1.39061e-09
4.29137e-08
1.37235e-09
4.29091e-08
1.35412e-09
4.2904e-08
1.33585e-09
4.28986e-08
1.31745e-09
4.28927e-08
1.29887e-09
4.28864e-08
1.28002e-09
4.28797e-08
1.26084e-09
4.28726e-08
1.24126e-09
4.2865e-08
1.2212e-09
4.28569e-08
1.20059e-09
4.28484e-08
1.17935e-09
4.28394e-08
1.15741e-09
4.28299e-08
1.13469e-09
4.282e-08
1.11111e-09
4.28095e-08
1.0866e-09
4.27986e-08
1.06108e-09
4.27872e-08
1.03446e-09
4.27753e-08
1.00667e-09
4.27628e-08
9.7765e-10
4.27499e-08
9.47314e-10
4.27364e-08
9.156e-10
4.27225e-08
8.82448e-10
4.27079e-08
8.47813e-10
4.26928e-08
8.11662e-10
4.26771e-08
7.73989e-10
4.26608e-08
7.34823e-10
4.26438e-08
6.94243e-10
4.26261e-08
6.52393e-10
4.26076e-08
6.09498e-10
4.25883e-08
5.65882e-10
4.25683e-08
5.21969e-10
4.25474e-08
4.78278e-10
4.25257e-08
4.35397e-10
4.25035e-08
3.93941e-10
4.24807e-08
3.54487e-10
4.24577e-08
3.17519e-10
4.24346e-08
2.83384e-10
4.24115e-08
2.52289e-10
4.23886e-08
2.24302e-10
4.2366e-08
1.99384e-10
4.2344e-08
1.77403e-10
4.23224e-08
1.58173e-10
4.23014e-08
1.41465e-10
4.2281e-08
1.27035e-10
4.22611e-08
1.14642e-10
4.22418e-08
1.04054e-10
4.22229e-08
9.50533e-11
4.22046e-08
8.74489e-11
4.21866e-08
8.10778e-11
4.2169e-08
7.5802e-11
4.21517e-08
7.15064e-11
4.21346e-08
6.80983e-11
4.21177e-08
6.55095e-11
4.2101e-08
6.36968e-11
4.20845e-08
6.264e-11
4.20681e-08
6.23317e-11
4.20522e-08
6.27155e-11
6.32929e-11
4.24583e-08
1.92518e-09
-4.23947e-08
4.25372e-08
2.07269e-09
4.26276e-08
2.20203e-09
4.2725e-08
2.30898e-09
4.28254e-08
2.39173e-09
4.29255e-08
2.45033e-09
4.30224e-08
2.48594e-09
4.31141e-08
2.50046e-09
4.31989e-08
2.49639e-09
4.32757e-08
2.47663e-09
4.3344e-08
2.44426e-09
4.34038e-08
2.40229e-09
4.34554e-08
2.35356e-09
4.34992e-08
2.30058e-09
4.35362e-08
2.24546e-09
4.3567e-08
2.1899e-09
4.35925e-08
2.13518e-09
4.36136e-08
2.08221e-09
4.3631e-08
2.03159e-09