/*--------------------------------*- C++ -*----------------------------------*\
| =========                 |                                                 |
| \\      /  F ield         | OpenFOAM: The Open Source CFD Toolbox           |
|  \\    /   O peration     | Version:  2.3.0                                 |
|   \\  /    A nd           | Web:      www.OpenFOAM.org                      |
|    \\/     M anipulation  |                                                 |
\*---------------------------------------------------------------------------*/
FoamFile
{
    version     2.0;
    format      ascii;
    class       volVectorField;
    location    "0.35";
    object      U;
}
// * * * * * * * * * * * * * * * * * * * * * * * * * * * * * * * * * * * * * //

dimensions      [0 1 -1 0 0 0 0];

internalField   nonuniform List<vector> 
6875
(
(0.171194 0.00595981 0)
(0.154742 0.00603123 0)
(0.138924 0.00561334 0)
(0.123929 0.00501529 0)
(0.110169 0.0043545 0)
(0.0978128 0.00368434 0)
(0.086872 0.00304153 0)
(0.0773127 0.0024515 0)
(0.0690789 0.00192969 0)
(0.0620859 0.00148393 0)
(0.0562198 0.00111588 0)
(0.0513479 0.000822058 0)
(0.0473292 0.000595055 0)
(0.0440246 0.000425138 0)
(0.0413043 0.000301778 0)
(0.0390525 0.000214842 0)
(0.0371701 0.000155343 0)
(0.0355759 0.00011578 0)
(0.0342051 9.01919e-05 0)
(0.0330073 7.40378e-05 0)
(0.0319445 6.39958e-05 0)
(0.0309885 5.77352e-05 0)
(0.0301185 5.36915e-05 0)
(0.0293191 5.08648e-05 0)
(0.0285792 4.86512e-05 0)
(0.0278904 4.67112e-05 0)
(0.0272464 4.48715e-05 0)
(0.0266421 4.30581e-05 0)
(0.0260736 4.12503e-05 0)
(0.0255375 3.94538e-05 0)
(0.0250309 3.76839e-05 0)
(0.0245514 3.59573e-05 0)
(0.0240968 3.42877e-05 0)
(0.0236652 3.26849e-05 0)
(0.0232548 3.11546e-05 0)
(0.0228641 2.96992e-05 0)
(0.0224918 2.83184e-05 0)
(0.0221364 2.70103e-05 0)
(0.021797 2.57718e-05 0)
(0.0214725 2.45989e-05 0)
(0.021162 2.34877e-05 0)
(0.0208647 2.24339e-05 0)
(0.0205799 2.14334e-05 0)
(0.0203069 2.04824e-05 0)
(0.020045 1.95771e-05 0)
(0.0197938 1.87141e-05 0)
(0.0195528 1.78903e-05 0)
(0.0193215 1.71028e-05 0)
(0.0190996 1.63488e-05 0)
(0.0188866 1.56259e-05 0)
(0.0186823 1.49319e-05 0)
(0.0184863 1.42647e-05 0)
(0.0182985 1.36223e-05 0)
(0.0181186 1.3003e-05 0)
(0.0179463 1.24052e-05 0)
(0.0177815 1.18274e-05 0)
(0.0176241 1.1268e-05 0)
(0.0174739 1.07258e-05 0)
(0.0173308 1.01996e-05 0)
(0.0171946 9.68859e-06 0)
(0.0170654 9.19215e-06 0)
(0.016943 8.71011e-06 0)
(0.0168274 8.24258e-06 0)
(0.0167186 7.7897e-06 0)
(0.0166164 7.35103e-06 0)
(0.016521 6.92461e-06 0)
(0.0164323 6.50574e-06 0)
(0.0163503 6.08533e-06 0)
(0.0162753 5.64845e-06 0)
(0.0162075 5.1731e-06 0)
(0.0161474 4.62986e-06 0)
(0.0160953 3.98351e-06 0)
(0.0160522 3.20197e-06 0)
(0.0160188 2.29009e-06 0)
(0.0159959 1.34518e-06 0)
(0.0159845 5.53793e-07 0)
(0.0159845 -2.73329e-07 0)
(0.0159927 -9.64154e-07 0)
(0.0160071 -1.53222e-06 0)
(0.0160262 -1.95667e-06 0)
(0.0160485 -2.2245e-06 0)
(0.0160728 -2.3583e-06 0)
(0.0160981 -2.39474e-06 0)
(0.0161236 -2.35312e-06 0)
(0.0161485 -2.2613e-06 0)
(0.0161725 -2.13549e-06 0)
(0.0161952 -1.98501e-06 0)
(0.0162165 -1.82369e-06 0)
(0.0162362 -1.66087e-06 0)
(0.0162543 -1.49964e-06 0)
(0.0162708 -1.3423e-06 0)
(0.0162858 -1.19082e-06 0)
(0.0162992 -1.04581e-06 0)
(0.0163111 -9.06191e-07 0)
(0.0163216 -7.69154e-07 0)
(0.0163305 -6.29932e-07 0)
(0.0163379 -4.80443e-07 0)
(0.0163436 -3.07957e-07 0)
(0.0163472 -1.27162e-07 0)
(0.0163502 -1.89465e-07 0)
(0.190032 0.00940409 0)
(0.187694 0.00991005 0)
(0.183744 0.0096846 0)
(0.178542 0.00918648 0)
(0.172594 0.00855372 0)
(0.166248 0.00783251 0)
(0.15973 0.00706078 0)
(0.153207 0.00627342 0)
(0.146814 0.00549966 0)
(0.140652 0.00476345 0)
(0.134789 0.00408353 0)
(0.129265 0.00347281 0)
(0.124098 0.0029381 0)
(0.119292 0.00248057 0)
(0.114838 0.00209682 0)
(0.11072 0.00178019 0)
(0.106917 0.00152212 0)
(0.103406 0.00131343 0)
(0.100162 0.00114516 0)
(0.0971607 0.00100921 0)
(0.0943797 0.000898675 0)
(0.0917973 0.00080788 0)
(0.0893938 0.00073234 0)
(0.0871514 0.000668601 0)
(0.0850545 0.000614052 0)
(0.0830888 0.000566746 0)
(0.0812419 0.000525239 0)
(0.079503 0.000488456 0)
(0.0778622 0.000455592 0)
(0.076311 0.000426029 0)
(0.0748419 0.00039929 0)
(0.0734481 0.00037499 0)
(0.0721238 0.00035282 0)
(0.0708637 0.000332518 0)
(0.0696629 0.000313866 0)
(0.0685174 0.000296676 0)
(0.0674234 0.000280785 0)
(0.0663775 0.000266051 0)
(0.0653765 0.000252352 0)
(0.064418 0.000239578 0)
(0.0634992 0.000227635 0)
(0.0626182 0.000216438 0)
(0.0617727 0.000205913 0)
(0.0609611 0.000195996 0)
(0.0601817 0.000186626 0)
(0.0594331 0.000177753 0)
(0.0587139 0.00016933 0)
(0.0580229 0.000161314 0)
(0.057359 0.000153669 0)
(0.0567214 0.000146361 0)
(0.0561091 0.000139359 0)
(0.0555213 0.000132635 0)
(0.0549575 0.000126164 0)
(0.054417 0.000119922 0)
(0.0538992 0.000113889 0)
(0.0534038 0.000108044 0)
(0.0529303 0.000102369 0)
(0.0524785 9.6848e-05 0)
(0.0520482 9.14658e-05 0)
(0.051639 8.62085e-05 0)
(0.0512509 8.10643e-05 0)
(0.0508838 7.60224e-05 0)
(0.0505377 7.10726e-05 0)
(0.0502125 6.62046e-05 0)
(0.0499084 6.1405e-05 0)
(0.0496254 5.66554e-05 0)
(0.0493638 5.19291e-05 0)
(0.049124 4.71877e-05 0)
(0.0489063 4.23805e-05 0)
(0.0487115 3.74444e-05 0)
(0.0485404 3.23086e-05 0)
(0.0483936 2.69022e-05 0)
(0.0482723 2.11695e-05 0)
(0.0481769 1.51051e-05 0)
(0.0481081 8.81803e-06 0)
(0.0480653 2.59304e-06 0)
(0.0480492 -3.01373e-06 0)
(0.0480569 -7.08401e-06 0)
(0.0480809 -9.73397e-06 0)
(0.0481167 -1.15324e-05 0)
(0.0481607 -1.26806e-05 0)
(0.04821 -1.32639e-05 0)
(0.0482621 -1.33896e-05 0)
(0.0483153 -1.31347e-05 0)
(0.048368 -1.26205e-05 0)
(0.0484193 -1.19355e-05 0)
(0.0484683 -1.11362e-05 0)
(0.0485147 -1.02836e-05 0)
(0.0485581 -9.42035e-06 0)
(0.0485985 -8.56427e-06 0)
(0.0486357 -7.72676e-06 0)
(0.0486697 -6.91566e-06 0)
(0.0487005 -6.13283e-06 0)
(0.0487283 -5.37306e-06 0)
(0.0487529 -4.62376e-06 0)
(0.0487744 -3.86466e-06 0)
(0.0487925 -3.06587e-06 0)
(0.048807 -2.19287e-06 0)
(0.0488174 -1.29791e-06 0)
(0.048825 -8.56349e-07 0)
(0.193017 0.00904249 0)
(0.193793 0.00999578 0)
(0.193904 0.010325 0)
(0.193203 0.0103261 0)
(0.191809 0.0100992 0)
(0.189845 0.00968265 0)
(0.187404 0.00912147 0)
(0.184578 0.00846534 0)
(0.181462 0.00775953 0)
(0.178144 0.00704235 0)
(0.174703 0.00634457 0)
(0.171203 0.00568883 0)
(0.167697 0.00508955 0)
(0.164224 0.00455375 0)
(0.160812 0.00408247 0)
(0.157482 0.0036725 0)
(0.154246 0.00331803 0)
(0.151112 0.00301209 0)
(0.148083 0.00274755 0)
(0.14516 0.00251778 0)
(0.142343 0.00231696 0)
(0.139628 0.00214022 0)
(0.137014 0.00198355 0)
(0.134497 0.00184373 0)
(0.132073 0.00171821 0)
(0.12974 0.00160492 0)
(0.127493 0.00150222 0)
(0.12533 0.00140874 0)
(0.123246 0.00132339 0)
(0.12124 0.00124522 0)
(0.119306 0.00117344 0)
(0.117444 0.00110736 0)
(0.115648 0.0010464 0)
(0.113917 0.000990019 0)
(0.112248 0.000937761 0)
(0.110638 0.000889215 0)
(0.109085 0.000844017 0)
(0.107586 0.000801842 0)
(0.106139 0.000762398 0)
(0.104742 0.000725427 0)
(0.103393 0.000690696 0)
(0.10209 0.000657995 0)
(0.100832 0.000627139 0)
(0.099617 0.000597956 0)
(0.0984433 0.000570296 0)
(0.0973097 0.00054402 0)
(0.096215 0.000519004 0)
(0.0951581 0.000495134 0)
(0.0941379 0.000472306 0)
(0.0931536 0.000450426 0)
(0.0922043 0.000429407 0)
(0.0912893 0.000409171 0)
(0.090408 0.000389644 0)
(0.0895598 0.000370759 0)
(0.0887443 0.000352452 0)
(0.0879611 0.000334667 0)
(0.0872099 0.00031735 0)
(0.0864905 0.00030045 0)
(0.0858028 0.000283922 0)
(0.0851467 0.000267725 0)
(0.0845223 0.000251818 0)
(0.0839296 0.000236167 0)
(0.0833688 0.000220735 0)
(0.0828401 0.000205487 0)
(0.0823439 0.000190382 0)
(0.0818806 0.000175369 0)
(0.0814506 0.000160387 0)
(0.0810546 0.00014536 0)
(0.0806932 0.000130201 0)
(0.0803673 0.00011482 0)
(0.0800776 9.91409e-05 0)
(0.0798247 8.31285e-05 0)
(0.0796092 6.682e-05 0)
(0.0794309 5.03568e-05 0)
(0.0792889 3.39899e-05 0)
(0.0791809 1.80259e-05 0)
(0.0791023 3.11089e-06 0)
(0.0790559 -9.53743e-06 0)
(0.0790423 -1.87319e-05 0)
(0.0790519 -2.46493e-05 0)
(0.0790785 -2.82526e-05 0)
(0.0791173 -3.02532e-05 0)
(0.0791643 -3.10912e-05 0)
(0.0792166 -3.09841e-05 0)
(0.0792716 -3.01871e-05 0)
(0.0793277 -2.8899e-05 0)
(0.0793833 -2.72666e-05 0)
(0.0794375 -2.54405e-05 0)
(0.0794897 -2.35305e-05 0)
(0.0795392 -2.15941e-05 0)
(0.0795859 -1.96684e-05 0)
(0.0796294 -1.77773e-05 0)
(0.0796697 -1.59294e-05 0)
(0.0797066 -1.41174e-05 0)
(0.07974 -1.23171e-05 0)
(0.0797698 -1.04873e-05 0)
(0.0797958 -8.56674e-06 0)
(0.0798174 -6.48314e-06 0)
(0.0798341 -4.26504e-06 0)
(0.0798459 -2.23002e-06 0)
(0.194042 0.00840787 0)
(0.195204 0.00946071 0)
(0.196249 0.0100142 0)
(0.19696 0.0102527 0)
(0.197318 0.0102591 0)
(0.197329 0.0100657 0)
(0.196993 0.0097083 0)
(0.196317 0.00922995 0)
(0.195328 0.00867259 0)
(0.194066 0.00807358 0)
(0.192575 0.0074647 0)
(0.190898 0.00687112 0)
(0.189078 0.00631082 0)
(0.187153 0.00579486 0)
(0.185153 0.00532832 0)
(0.183105 0.00491173 0)
(0.181029 0.00454248 0)
(0.17894 0.00421615 0)
(0.17685 0.00392752 0)
(0.174767 0.0036713 0)
(0.172698 0.00344259 0)
(0.170646 0.00323705 0)
(0.168615 0.00305106 0)
(0.166608 0.00288162 0)
(0.164626 0.0027263 0)
(0.162672 0.00258317 0)
(0.160748 0.00245068 0)
(0.158853 0.00232759 0)
(0.15699 0.00221286 0)
(0.155159 0.00210568 0)
(0.153361 0.00200531 0)
(0.151596 0.00191116 0)
(0.149866 0.0018227 0)
(0.148169 0.00173944 0)
(0.146507 0.00166097 0)
(0.14488 0.00158691 0)
(0.143288 0.00151691 0)
(0.14173 0.00145065 0)
(0.140207 0.00138785 0)
(0.138719 0.00132823 0)
(0.137265 0.00127155 0)
(0.135845 0.00121758 0)
(0.134459 0.0011661 0)
(0.133107 0.00111694 0)
(0.131788 0.0010699 0)
(0.130503 0.00102482 0)
(0.129251 0.000981534 0)
(0.128032 0.000939907 0)
(0.126846 0.000899798 0)
(0.125693 0.000861081 0)
(0.124573 0.000823635 0)
(0.123485 0.00078735 0)
(0.12243 0.000752119 0)
(0.121409 0.000717842 0)
(0.12042 0.000684427 0)
(0.119464 0.000651785 0)
(0.118541 0.000619832 0)
(0.117652 0.000588489 0)
(0.116797 0.000557683 0)
(0.115977 0.000527345 0)
(0.115191 0.000497408 0)
(0.11444 0.000467812 0)
(0.113726 0.000438495 0)
(0.113048 0.000409394 0)
(0.112407 0.000380441 0)
(0.111804 0.00035156 0)
(0.111241 0.000322665 0)
(0.110717 0.00029366 0)
(0.110234 0.000264448 0)
(0.109793 0.000234952 0)
(0.109394 0.000205139 0)
(0.109038 0.000175063 0)
(0.108725 0.000144914 0)
(0.108455 0.000115077 0)
(0.108226 8.61697e-05 0)
(0.108035 5.8978e-05 0)
(0.10788 3.40576e-05 0)
(0.107753 1.17519e-05 0)
(0.107653 -7.3341e-06 0)
(0.107587 -2.23118e-05 0)
(0.107551 -3.27585e-05 0)
(0.107537 -3.93601e-05 0)
(0.107541 -4.31408e-05 0)
(0.107557 -4.48484e-05 0)
(0.107582 -4.5104e-05 0)
(0.107615 -4.43112e-05 0)
(0.107651 -4.27359e-05 0)
(0.107691 -4.06405e-05 0)
(0.107732 -3.82262e-05 0)
(0.107773 -3.56155e-05 0)
(0.107813 -3.28972e-05 0)
(0.107853 -3.01342e-05 0)
(0.10789 -2.73605e-05 0)
(0.107926 -2.45814e-05 0)
(0.10796 -2.17723e-05 0)
(0.107991 -1.88786e-05 0)
(0.108018 -1.58104e-05 0)
(0.108042 -1.24363e-05 0)
(0.108062 -8.63211e-06 0)
(0.108075 -4.1036e-06 0)
(0.194752 0.00790795 0)
(0.19579 0.00890292 0)
(0.196892 0.00949738 0)
(0.197887 0.00981112 0)
(0.198731 0.00991745 0)
(0.199407 0.00984617 0)
(0.199889 0.00962363 0)
(0.200156 0.00928236 0)
(0.2002 0.00885624 0)
(0.200027 0.00837693 0)
(0.199653 0.00787264 0)
(0.199099 0.00736696 0)
(0.198389 0.00687798 0)
(0.197549 0.00641803 0)
(0.196602 0.00599418 0)
(0.195568 0.00560915 0)
(0.194466 0.00526251 0)
(0.193308 0.00495174 0)
(0.192108 0.00467322 0)
(0.190872 0.00442291 0)
(0.189608 0.00419684 0)
(0.188322 0.00399139 0)
(0.187016 0.00380343 0)
(0.185696 0.00363033 0)
(0.184362 0.00346995 0)
(0.183019 0.00332053 0)
(0.181669 0.00318071 0)
(0.180313 0.00304934 0)
(0.178953 0.00292552 0)
(0.177593 0.0028085 0)
(0.176233 0.00269766 0)
(0.174874 0.00259245 0)
(0.17352 0.00249242 0)
(0.172171 0.00239717 0)
(0.170828 0.00230632 0)
(0.169494 0.00221956 0)
(0.168169 0.00213658 0)
(0.166854 0.00205711 0)
(0.165551 0.00198092 0)
(0.16426 0.00190776 0)
(0.162984 0.00183742 0)
(0.161721 0.0017697 0)
(0.160475 0.00170442 0)
(0.159245 0.0016414 0)
(0.158032 0.00158049 0)
(0.156837 0.00152151 0)
(0.15566 0.00146434 0)
(0.154504 0.00140883 0)
(0.153367 0.00135484 0)
(0.152252 0.00130226 0)
(0.151158 0.00125096 0)
(0.150087 0.00120083 0)
(0.14904 0.00115175 0)
(0.148016 0.00110363 0)
(0.147017 0.00105636 0)
(0.146044 0.00100983 0)
(0.145097 0.000963962 0)
(0.144178 0.000918658 0)
(0.143287 0.000873833 0)
(0.142425 0.000829404 0)
(0.141594 0.000785291 0)
(0.140794 0.000741417 0)
(0.140026 0.000697706 0)
(0.139291 0.00065408 0)
(0.138591 0.000610456 0)
(0.137927 0.000566746 0)
(0.1373 0.000522856 0)
(0.136712 0.000478697 0)
(0.136163 0.000434195 0)
(0.135654 0.00038932 0)
(0.135187 0.000344124 0)
(0.134761 0.000298788 0)
(0.134378 0.00025368 0)
(0.134036 0.000209402 0)
(0.133734 0.000166812 0)
(0.13347 0.000126962 0)
(0.133243 9.08871e-05 0)
(0.133047 5.9125e-05 0)
(0.132881 3.13912e-05 0)
(0.132735 7.7541e-06 0)
(0.132611 -1.15019e-05 0)
(0.132518 -2.63671e-05 0)
(0.132449 -3.68507e-05 0)
(0.1324 -4.35622e-05 0)
(0.132369 -4.74321e-05 0)
(0.13235 -4.92153e-05 0)
(0.132342 -4.94485e-05 0)
(0.132343 -4.85929e-05 0)
(0.13235 -4.69869e-05 0)
(0.132361 -4.48373e-05 0)
(0.132377 -4.22999e-05 0)
(0.132394 -3.94937e-05 0)
(0.132414 -3.64977e-05 0)
(0.132434 -3.33485e-05 0)
(0.132454 -3.00394e-05 0)
(0.132474 -2.65193e-05 0)
(0.132493 -2.2682e-05 0)
(0.132511 -1.83329e-05 0)
(0.132525 -1.31145e-05 0)
(0.132533 -5.77353e-06 0)
(0.195351 0.0074789 0)
(0.196222 0.00837736 0)
(0.197206 0.00896199 0)
(0.198173 0.00930244 0)
(0.199075 0.00945671 0)
(0.199895 0.00945242 0)
(0.200608 0.0093112 0)
(0.201191 0.00905925 0)
(0.201629 0.00872484 0)
(0.201916 0.00833509 0)
(0.202055 0.00791455 0)
(0.202056 0.00748429 0)
(0.201931 0.00706107 0)
(0.201695 0.00665694 0)
(0.201364 0.00627949 0)
(0.200952 0.00593248 0)
(0.200472 0.00561674 0)
(0.199935 0.00533104 0)
(0.199349 0.00507294 0)
(0.198722 0.0048394 0)
(0.198058 0.00462725 0)
(0.197362 0.00443347 0)
(0.196637 0.00425537 0)
(0.195886 0.00409062 0)
(0.19511 0.0039373 0)
(0.194311 0.00379381 0)
(0.193492 0.00365886 0)
(0.192653 0.00353139 0)
(0.191796 0.00341054 0)
(0.190923 0.00329562 0)
(0.190035 0.00318604 0)
(0.189133 0.00308131 0)
(0.188219 0.002981 0)
(0.187294 0.00288474 0)
(0.18636 0.00279221 0)
(0.185417 0.00270312 0)
(0.184468 0.00261721 0)
(0.183513 0.00253424 0)
(0.182554 0.002454 0)
(0.181591 0.00237629 0)
(0.180627 0.00230091 0)
(0.179661 0.0022277 0)
(0.178696 0.0021565 0)
(0.177733 0.00208716 0)
(0.176772 0.00201952 0)
(0.175815 0.00195346 0)
(0.174863 0.00188885 0)
(0.173917 0.00182556 0)
(0.172978 0.00176347 0)
(0.172047 0.00170247 0)
(0.171125 0.00164245 0)
(0.170214 0.0015833 0)
(0.169314 0.0015249 0)
(0.168427 0.00146717 0)
(0.167554 0.00141 0)
(0.166695 0.00135329 0)
(0.165853 0.00129694 0)
(0.165029 0.00124088 0)
(0.164223 0.001185 0)
(0.163437 0.00112922 0)
(0.162672 0.00107346 0)
(0.16193 0.00101763 0)
(0.161212 0.000961656 0)
(0.160519 0.000905455 0)
(0.159853 0.000848942 0)
(0.159216 0.000792032 0)
(0.158608 0.000734642 0)
(0.158031 0.000676708 0)
(0.157487 0.0006182 0)
(0.156976 0.00055916 0)
(0.1565 0.000499741 0)
(0.156059 0.00044026 0)
(0.155653 0.000381251 0)
(0.155282 0.000323499 0)
(0.154945 0.000268028 0)
(0.154642 0.000216016 0)
(0.154369 0.000168591 0)
(0.154126 0.000126498 0)
(0.153911 9.00635e-05 0)
(0.153721 5.91159e-05 0)
(0.153553 3.29163e-05 0)
(0.1534 1.11599e-05 0)
(0.153263 -6.18784e-06 0)
(0.153147 -1.96289e-05 0)
(0.153051 -2.95376e-05 0)
(0.152973 -3.62877e-05 0)
(0.152909 -4.04844e-05 0)
(0.152858 -4.27485e-05 0)
(0.152817 -4.35905e-05 0)
(0.152785 -4.33622e-05 0)
(0.152761 -4.23213e-05 0)
(0.152743 -4.06605e-05 0)
(0.15273 -3.85168e-05 0)
(0.152721 -3.59708e-05 0)
(0.152715 -3.30432e-05 0)
(0.152712 -2.9698e-05 0)
(0.152711 -2.58261e-05 0)
(0.15271 -2.11811e-05 0)
(0.152709 -1.51698e-05 0)
(0.152702 -5.56494e-06 0)
(0.195875 0.00711186 0)
(0.196609 0.00791374 0)
(0.197462 0.008472 0)
(0.198337 0.00881989 0)
(0.199185 0.00899889 0)
(0.199987 0.00903374 0)
(0.200721 0.00894373 0)
(0.201368 0.00875118 0)
(0.201915 0.00848043 0)
(0.202355 0.00815519 0)
(0.202687 0.00779707 0)
(0.202916 0.0074248 0)
(0.203049 0.00705365 0)
(0.203096 0.00669498 0)
(0.203068 0.00635639 0)
(0.202976 0.00604215 0)
(0.202829 0.00575386 0)
(0.202635 0.00549121 0)
(0.202402 0.00525264 0)
(0.202135 0.00503586 0)
(0.201837 0.00483836 0)
(0.201512 0.00465761 0)
(0.201162 0.00449126 0)
(0.200788 0.00433726 0)
(0.200392 0.00419383 0)
(0.199975 0.00405949 0)
(0.199537 0.00393301 0)
(0.199079 0.00381338 0)
(0.198603 0.00369977 0)
(0.198108 0.00359148 0)
(0.197595 0.00348795 0)
(0.197066 0.00338868 0)
(0.196521 0.00329327 0)
(0.19596 0.00320135 0)
(0.195384 0.00311261 0)
(0.194795 0.00302677 0)
(0.194193 0.00294357 0)
(0.193579 0.00286279 0)
(0.192954 0.00278423 0)
(0.192318 0.00270769 0)
(0.191673 0.00263299 0)
(0.191019 0.00255999 0)
(0.190358 0.00248851 0)
(0.189689 0.00241843 0)
(0.189015 0.0023496 0)
(0.188336 0.0022819 0)
(0.187653 0.0022152 0)
(0.186967 0.00214939 0)
(0.186279 0.00208435 0)
(0.18559 0.00201997 0)
(0.184901 0.00195615 0)
(0.184213 0.00189278 0)
(0.183528 0.00182975 0)
(0.182845 0.00176697 0)
(0.182168 0.00170434 0)
(0.181496 0.00164176 0)
(0.180831 0.00157913 0)
(0.180173 0.00151637 0)
(0.179526 0.00145337 0)
(0.178888 0.00139006 0)
(0.178263 0.00132635 0)
(0.177651 0.00126216 0)
(0.177054 0.0011974 0)
(0.176472 0.001132 0)
(0.175908 0.00106587 0)
(0.175363 0.00099894 0)
(0.174839 0.000931156 0)
(0.174336 0.000862485 0)
(0.173856 0.00079295 0)
(0.1734 0.000722667 0)
(0.172969 0.000651888 0)
(0.172563 0.000581052 0)
(0.172183 0.000510826 0)
(0.171829 0.000442128 0)
(0.1715 0.00037609 0)
(0.171196 0.000313951 0)
(0.170916 0.000256862 0)
(0.170659 0.000205646 0)
(0.170425 0.00016071 0)
(0.170212 0.000122007 0)
(0.170018 8.92769e-05 0)
(0.169843 6.20779e-05 0)
(0.169684 3.95836e-05 0)
(0.169537 2.10431e-05 0)
(0.169402 6.16162e-06 0)
(0.169279 -5.39819e-06 0)
(0.16917 -1.42442e-05 0)
(0.169074 -2.08067e-05 0)
(0.16899 -2.53705e-05 0)
(0.168916 -2.82857e-05 0)
(0.168852 -2.98853e-05 0)
(0.168795 -3.04341e-05 0)
(0.168746 -3.01295e-05 0)
(0.168703 -2.91068e-05 0)
(0.168666 -2.74318e-05 0)
(0.168632 -2.50964e-05 0)
(0.168603 -2.20017e-05 0)
(0.168577 -1.78768e-05 0)
(0.168554 -1.19959e-05 0)
(0.168524 -1.4908e-06 0)
(0.196336 0.00679551 0)
(0.196963 0.00750826 0)
(0.197703 0.00803146 0)
(0.198482 0.0083756 0)
(0.199256 0.00856785 0)
(0.199999 0.00862898 0)
(0.200695 0.00857611 0)
(0.201327 0.00842829 0)
(0.201881 0.00820649 0)
(0.202353 0.00793148 0)
(0.202741 0.0076224 0)
(0.203047 0.00729607 0)
(0.203277 0.00696641 0)
(0.203439 0.00664413 0)
(0.203541 0.00633671 0)
(0.203593 0.00604873 0)
(0.203601 0.00578239 0)
(0.203574 0.00553808 0)
(0.203516 0.00531493 0)
(0.203433 0.00511135 0)
(0.203327 0.00492535 0)
(0.203202 0.00475486 0)
(0.203059 0.00459787 0)
(0.202899 0.00445255 0)
(0.202723 0.00431731 0)
(0.202532 0.00419076 0)
(0.202326 0.00407174 0)
(0.202106 0.00395927 0)
(0.201871 0.00385254 0)
(0.201622 0.00375087 0)
(0.201358 0.00365368 0)
(0.201081 0.00356047 0)
(0.200791 0.00347082 0)
(0.200487 0.00338437 0)
(0.20017 0.0033008 0)
(0.19984 0.00321981 0)
(0.199498 0.00314114 0)
(0.199145 0.00306458 0)
(0.198779 0.00298989 0)
(0.198402 0.00291689 0)
(0.198015 0.0028454 0)
(0.197617 0.00277525 0)
(0.19721 0.00270628 0)
(0.196793 0.00263835 0)
(0.196368 0.00257132 0)
(0.195935 0.00250506 0)
(0.195494 0.00243943 0)
(0.195047 0.00237433 0)
(0.194593 0.00230962 0)
(0.194134 0.00224521 0)
(0.19367 0.00218096 0)
(0.193203 0.00211679 0)
(0.192732 0.00205257 0)
(0.192259 0.00198821 0)
(0.191785 0.0019236 0)
(0.191311 0.00185864 0)
(0.190836 0.00179323 0)
(0.190364 0.00172727 0)
(0.189894 0.00166067 0)
(0.189427 0.00159334 0)
(0.188965 0.00152518 0)
(0.188509 0.00145613 0)
(0.18806 0.00138608 0)
(0.187619 0.00131497 0)
(0.187187 0.00124272 0)
(0.186766 0.00116928 0)
(0.186356 0.00109461 0)
(0.185959 0.00101871 0)
(0.185576 0.000941667 0)
(0.185207 0.000863652 0)
(0.184853 0.000785003 0)
(0.184516 0.000706247 0)
(0.184194 0.000628147 0)
(0.183888 0.000551697 0)
(0.183599 0.000478081 0)
(0.183325 0.000408559 0)
(0.183068 0.000344279 0)
(0.182826 0.000286081 0)
(0.182601 0.000234411 0)
(0.182391 0.000189326 0)
(0.182196 0.000150634 0)
(0.182016 0.000117878 0)
(0.181849 9.045e-05 0)
(0.181694 6.78059e-05 0)
(0.181551 4.92982e-05 0)
(0.181419 3.41949e-05 0)
(0.181295 2.18665e-05 0)
(0.181179 1.1943e-05 0)
(0.181071 4.18754e-06 0)
(0.180971 -1.72812e-06 0)
(0.180879 -6.13165e-06 0)
(0.180794 -9.28365e-06 0)
(0.180717 -1.1352e-05 0)
(0.180646 -1.24254e-05 0)
(0.180581 -1.25621e-05 0)
(0.180521 -1.17859e-05 0)
(0.180466 -1.00328e-05 0)
(0.180415 -7.07344e-06 0)
(0.180369 -2.21596e-06 0)
(0.180316 7.41813e-06 0)
(0.196743 0.00651736 0)
(0.197288 0.00715026 0)
(0.197934 0.00763471 0)
(0.198625 0.0079685 0)
(0.199325 0.00816753 0)
(0.200007 0.008248 0)
(0.200652 0.00822451 0)
(0.201246 0.0081132 0)
(0.201779 0.00793197 0)
(0.202243 0.00769893 0)
(0.202637 0.00743104 0)
(0.202962 0.00714343 0)
(0.203224 0.00684882 0)
(0.203427 0.00655726 0)
(0.203581 0.00627608 0)
(0.203692 0.00601005 0)
(0.203767 0.0057618 0)
(0.203812 0.00553232 0)
(0.203833 0.00532134 0)
(0.203835 0.00512786 0)
(0.203819 0.0049504 0)
(0.20379 0.0047873 0)
(0.203748 0.00463689 0)
(0.203694 0.00449759 0)
(0.203631 0.00436798 0)
(0.203557 0.0042468 0)
(0.203475 0.00413297 0)
(0.203382 0.00402555 0)
(0.203281 0.00392377 0)
(0.203171 0.00382695 0)
(0.203051 0.00373452 0)
(0.202922 0.00364599 0)
(0.202784 0.00356092 0)
(0.202637 0.00347895 0)
(0.20248 0.00339973 0)
(0.202315 0.00332299 0)
(0.202141 0.00324843 0)
(0.201957 0.00317583 0)
(0.201765 0.00310496 0)
(0.201564 0.00303562 0)
(0.201354 0.00296762 0)
(0.201136 0.00290077 0)
(0.200909 0.00283492 0)
(0.200674 0.00276991 0)
(0.200432 0.00270559 0)
(0.200182 0.00264181 0)
(0.199924 0.00257845 0)
(0.19966 0.00251537 0)
(0.199389 0.00245245 0)
(0.199112 0.00238956 0)
(0.198829 0.00232658 0)
(0.19854 0.00226339 0)
(0.198247 0.00219989 0)
(0.197949 0.00213594 0)
(0.197648 0.00207145 0)
(0.197343 0.00200631 0)
(0.197036 0.00194039 0)
(0.196726 0.00187362 0)
(0.196415 0.00180587 0)
(0.196104 0.00173705 0)
(0.195793 0.00166708 0)
(0.195483 0.00159585 0)
(0.195174 0.0015233 0)
(0.194868 0.00144934 0)
(0.194566 0.0013739 0)
(0.194267 0.00129695 0)
(0.193974 0.00121847 0)
(0.193686 0.00113849 0)
(0.193404 0.00105713 0)
(0.19313 0.000974635 0)
(0.192863 0.000891382 0)
(0.192603 0.000807962 0)
(0.192351 0.000725185 0)
(0.192108 0.000644075 0)
(0.191873 0.000565822 0)
(0.191646 0.000491664 0)
(0.191428 0.000422727 0)
(0.191219 0.000359851 0)
(0.19102 0.000303509 0)
(0.19083 0.000253819 0)
(0.190651 0.000210626 0)
(0.190483 0.000173549 0)
(0.190324 0.000142073 0)
(0.190174 0.000115631 0)
(0.190034 9.35627e-05 0)
(0.189902 7.52444e-05 0)
(0.189778 6.01723e-05 0)
(0.189661 4.78602e-05 0)
(0.18955 3.78351e-05 0)
(0.189446 2.97085e-05 0)
(0.189347 2.31695e-05 0)
(0.189253 1.7982e-05 0)
(0.189164 1.39947e-05 0)
(0.189079 1.11262e-05 0)
(0.188998 9.31868e-06 0)
(0.188921 8.54173e-06 0)
(0.188848 8.84416e-06 0)
(0.18878 1.04192e-05 0)
(0.188715 1.38527e-05 0)
(0.188641 2.1286e-05 0)
(0.197106 0.00626861 0)
(0.197585 0.00683142 0)
(0.198151 0.00727682 0)
(0.198767 0.00759624 0)
(0.199399 0.00779745 0)
(0.200021 0.00789214 0)
(0.200616 0.00789235 0)
(0.20117 0.0078116 0)
(0.201673 0.00766508 0)
(0.202118 0.00746843 0)
(0.202502 0.00723664 0)
(0.202828 0.00698322 0)
(0.203097 0.00671978 0)
(0.203315 0.00645571 0)
(0.203489 0.00619805 0)
(0.203624 0.00595169 0)
(0.203727 0.00571959 0)
(0.203804 0.00550317 0)
(0.20386 0.00530271 0)
(0.203898 0.00511769 0)
(0.203923 0.00494712 0)
(0.203936 0.00478972 0)
(0.203939 0.00464415 0)
(0.203935 0.00450907 0)
(0.203923 0.00438326 0)
(0.203905 0.00426558 0)
(0.20388 0.00415507 0)
(0.203851 0.00405084 0)
(0.203815 0.00395217 0)
(0.203774 0.00385842 0)
(0.203728 0.00376901 0)
(0.203676 0.00368348 0)
(0.203619 0.0036014 0)
(0.203556 0.00352239 0)
(0.203488 0.00344612 0)
(0.203414 0.00337229 0)
(0.203334 0.00330062 0)
(0.203249 0.00323088 0)
(0.203159 0.00316282 0)
(0.203062 0.00309625 0)
(0.20296 0.00303096 0)
(0.202852 0.00296676 0)
(0.202738 0.00290349 0)
(0.202619 0.00284097 0)
(0.202494 0.00277906 0)
(0.202363 0.0027176 0)
(0.202227 0.00265645 0)
(0.202085 0.00259546 0)
(0.201939 0.0025345 0)
(0.201787 0.00247344 0)
(0.20163 0.00241215 0)
(0.201468 0.00235051 0)
(0.201302 0.00228837 0)
(0.201131 0.00222563 0)
(0.200956 0.00216217 0)
(0.200778 0.00209786 0)
(0.200595 0.00203259 0)
(0.20041 0.00196624 0)
(0.200222 0.00189872 0)
(0.200032 0.00182991 0)
(0.19984 0.00175971 0)
(0.199646 0.00168803 0)
(0.199451 0.0016148 0)
(0.199255 0.00153993 0)
(0.199059 0.00146336 0)
(0.198864 0.00138507 0)
(0.198669 0.00130505 0)
(0.198475 0.00122337 0)
(0.198282 0.00114017 0)
(0.198091 0.00105573 0)
(0.197902 0.00097046 0)
(0.197714 0.000884983 0)
(0.197529 0.000800117 0)
(0.197345 0.00071688 0)
(0.197164 0.000636429 0)
(0.196986 0.000559955 0)
(0.196811 0.000488538 0)
(0.19664 0.000423 0)
(0.196474 0.000363833 0)
(0.196313 0.0003112 0)
(0.196158 0.000264998 0)
(0.196009 0.000224908 0)
(0.195867 0.000190467 0)
(0.195731 0.00016114 0)
(0.195602 0.000136334 0)
(0.195479 0.000115472 0)
(0.195362 9.80361e-05 0)
(0.19525 8.35156e-05 0)
(0.195144 7.1452e-05 0)
(0.195042 6.14803e-05 0)
(0.194944 5.33012e-05 0)
(0.19485 4.66724e-05 0)
(0.194759 4.13993e-05 0)
(0.194672 3.73268e-05 0)
(0.194587 3.43523e-05 0)
(0.194505 3.24383e-05 0)
(0.194425 3.16245e-05 0)
(0.194348 3.20752e-05 0)
(0.194275 3.42164e-05 0)
(0.194188 3.90795e-05 0)
(0.19743 0.00604323 0)
(0.197855 0.00654513 0)
(0.198356 0.00695299 0)
(0.198906 0.00725568 0)
(0.199476 0.00745551 0)
(0.200043 0.00756026 0)
(0.200591 0.00757951 0)
(0.201106 0.00752448 0)
(0.201578 0.00740793 0)
(0.202001 0.00724328 0)
(0.202372 0.00704365 0)
(0.20269 0.00682108 0)
(0.202959 0.00658608 0)
(0.203182 0.00634733 0)
(0.203364 0.00611159 0)
(0.203511 0.00588369 0)
(0.203628 0.00566683 0)
(0.20372 0.00546278 0)
(0.203792 0.00527224 0)
(0.203848 0.00509513 0)
(0.203891 0.00493086 0)
(0.203923 0.00477851 0)
(0.203947 0.00463705 0)
(0.203964 0.00450539 0)
(0.203975 0.00438247 0)
(0.203982 0.00426733 0)
(0.203984 0.00415909 0)
(0.203982 0.00405696 0)
(0.203976 0.00396026 0)
(0.203967 0.00386839 0)
(0.203955 0.00378081 0)
(0.203939 0.00369707 0)
(0.203921 0.00361676 0)
(0.203899 0.0035395 0)
(0.203874 0.00346498 0)
(0.203846 0.0033929 0)
(0.203815 0.00332298 0)
(0.20378 0.00325498 0)
(0.203743 0.00318867 0)
(0.203702 0.00312384 0)
(0.203658 0.00306029 0)
(0.203611 0.00299782 0)
(0.20356 0.00293627 0)
(0.203506 0.00287546 0)
(0.203448 0.00281524 0)
(0.203387 0.00275543 0)
(0.203322 0.00269591 0)
(0.203254 0.00263652 0)
(0.203182 0.00257711 0)
(0.203107 0.00251756 0)
(0.203028 0.00245771 0)
(0.202946 0.00239745 0)
(0.20286 0.00233664 0)
(0.202771 0.00227515 0)
(0.202679 0.00221284 0)
(0.202584 0.00214961 0)
(0.202485 0.00208532 0)
(0.202384 0.00201985 0)
(0.20228 0.0019531 0)
(0.202173 0.00188496 0)
(0.202063 0.00181531 0)
(0.201951 0.00174407 0)
(0.201837 0.00167116 0)
(0.201721 0.00159649 0)
(0.201602 0.00152002 0)
(0.201482 0.00144173 0)
(0.20136 0.00136162 0)
(0.201237 0.00127979 0)
(0.201112 0.0011964 0)
(0.200985 0.00111173 0)
(0.200857 0.00102624 0)
(0.200727 0.000940525 0)
(0.200595 0.000855403 0)
(0.200461 0.000771852 0)
(0.200326 0.000690974 0)
(0.20019 0.000613893 0)
(0.200053 0.000541628 0)
(0.199917 0.000474972 0)
(0.199781 0.000414424 0)
(0.199648 0.000360179 0)
(0.199518 0.000312183 0)
(0.199391 0.000270175 0)
(0.199268 0.000233749 0)
(0.199149 0.000202421 0)
(0.199034 0.00017565 0)
(0.198923 0.000152894 0)
(0.198817 0.000133648 0)
(0.198714 0.000117436 0)
(0.198615 0.000103822 0)
(0.198519 9.24435e-05 0)
(0.198427 8.29923e-05 0)
(0.198337 7.52124e-05 0)
(0.198249 6.88951e-05 0)
(0.198164 6.38773e-05 0)
(0.19808 6.00487e-05 0)
(0.197998 5.73528e-05 0)
(0.197917 5.57928e-05 0)
(0.197838 5.54559e-05 0)
(0.197762 5.65364e-05 0)
(0.19767 5.91097e-05 0)
(0.19772 0.0058369 0)
(0.198101 0.00628601 0)
(0.198548 0.0066588 0)
(0.19904 0.00694365 0)
(0.199555 0.00713944 0)
(0.200072 0.00725087 0)
(0.200576 0.00728528 0)
(0.201054 0.0072518 0)
(0.201497 0.0071611 0)
(0.201897 0.00702462 0)
(0.202252 0.00685374 0)
(0.202562 0.00665913 0)
(0.202827 0.00645025 0)
(0.20305 0.00623508 0)
(0.203236 0.00601999 0)
(0.203389 0.00580975 0)
(0.203514 0.00560764 0)
(0.203616 0.0054157 0)
(0.203697 0.00523498 0)
(0.203763 0.00506573 0)
(0.203816 0.00490773 0)
(0.203859 0.00476039 0)
(0.203894 0.00462293 0)
(0.203921 0.00449451 0)
(0.203943 0.00437424 0)
(0.203961 0.00426131 0)
(0.203975 0.00415495 0)
(0.203985 0.00405446 0)
(0.203993 0.00395921 0)
(0.203998 0.00386865 0)
(0.204001 0.00378229 0)
(0.204001 0.0036997 0)
(0.204 0.00362047 0)
(0.203996 0.00354427 0)
(0.203991 0.00347077 0)
(0.203984 0.00339968 0)
(0.203976 0.00333075 0)
(0.203965 0.00326374 0)
(0.203953 0.00319841 0)
(0.203939 0.00313456 0)
(0.203923 0.00307199 0)
(0.203906 0.00301052 0)
(0.203887 0.00294996 0)
(0.203866 0.00289015 0)
(0.203843 0.00283093 0)
(0.203818 0.00277214 0)
(0.203791 0.00271363 0)
(0.203762 0.00265525 0)
(0.203731 0.00259685 0)
(0.203698 0.00253831 0)
(0.203663 0.00247947 0)
(0.203626 0.0024202 0)
(0.203587 0.00236037 0)
(0.203545 0.00229985 0)
(0.203501 0.00223849 0)
(0.203455 0.00217619 0)
(0.203407 0.00211281 0)
(0.203356 0.00204823 0)
(0.203303 0.00198234 0)
(0.203247 0.00191502 0)
(0.20319 0.00184618 0)
(0.203129 0.00177571 0)
(0.203067 0.00170354 0)
(0.203001 0.00162959 0)
(0.202934 0.00155383 0)
(0.202863 0.00147623 0)
(0.20279 0.00139683 0)
(0.202714 0.00131573 0)
(0.202635 0.0012331 0)
(0.202553 0.00114924 0)
(0.202467 0.00106459 0)
(0.202377 0.000979758 0)
(0.202284 0.000895517 0)
(0.202186 0.000812796 0)
(0.202085 0.000732624 0)
(0.201981 0.00065605 0)
(0.201874 0.000584025 0)
(0.201765 0.000517303 0)
(0.201655 0.000456376 0)
(0.201545 0.000401467 0)
(0.201435 0.000352561 0)
(0.201327 0.000309451 0)
(0.201221 0.00027179 0)
(0.201118 0.000239143 0)
(0.201016 0.00021102 0)
(0.200918 0.000186922 0)