/*--------------------------------*- C++ -*----------------------------------*\
| =========                 |                                                 |
| \\      /  F ield         | OpenFOAM: The Open Source CFD Toolbox           |
|  \\    /   O peration     | Version:  2.3.0                                 |
|   \\  /    A nd           | Web:      www.OpenFOAM.org                      |
|    \\/     M anipulation  |                                                 |
\*---------------------------------------------------------------------------*/
FoamFile
{
    version     2.0;
    format      ascii;
    class       volVectorField;
    location    "0.1";
    object      U_0;
}
// * * * * * * * * * * * * * * * * * * * * * * * * * * * * * * * * * * * * * //

dimensions      [0 1 -1 0 0 0 0];

internalField   nonuniform List<vector> 
2889
(
(0.17936 0.00431135 0)
(0.15847 0.00601595 0)
(0.139347 0.00626111 0)
(0.120985 0.00557779 0)
(0.10369 0.00463596 0)
(0.0879298 0.00376228 0)
(0.0745425 0.00290767 0)
(0.0639365 0.00197229 0)
(0.0559197 0.00109162 0)
(0.050019 0.000428203 0)
(0.0457759 3.40236e-05 0)
(0.0428032 -0.00012907 0)
(0.0407092 -0.000142585 0)
(0.039132 -9.8409e-05 0)
(0.0378458 -5.37567e-05 0)
(0.0367636 -2.08961e-05 0)
(0.0358418 4.41137e-06 0)
(0.0350294 2.2456e-05 0)
(0.0342906 3.11316e-05 0)
(0.0336185 3.20531e-05 0)
(0.0330161 2.98964e-05 0)
(0.0324822 2.80168e-05 0)
(0.0320149 2.6237e-05 0)
(0.0316152 2.35919e-05 0)
(0.0312869 2.00297e-05 0)
(0.031032 1.58366e-05 0)
(0.0308507 1.09483e-05 0)
(0.0307416 5.60499e-06 0)
(0.0307004 4.17966e-08 0)
(0.0307161 -9.17535e-06 0)
(0.0307716 -1.29669e-05 0)
(0.0308528 -1.46307e-05 0)
(0.0309458 -1.47109e-05 0)
(0.0310396 -1.35742e-05 0)
(0.0311269 -1.19454e-05 0)
(0.0312041 -1.01967e-05 0)
(0.0312701 -8.59408e-06 0)
(0.0313254 -7.23332e-06 0)
(0.0313711 -6.12105e-06 0)
(0.0314085 -5.18766e-06 0)
(0.0314391 -4.41856e-06 0)
(0.0314641 -3.7607e-06 0)
(0.0314844 -3.1873e-06 0)
(0.031501 -2.71202e-06 0)
(0.0315145 -2.31076e-06 0)
(0.0315257 -1.98379e-06 0)
(0.031535 -1.72101e-06 0)
(0.0315428 -1.51301e-06 0)
(0.0315496 -1.34694e-06 0)
(0.0315556 -1.20984e-06 0)
(0.0315608 -1.09718e-06 0)
(0.0315656 -1.001e-06 0)
(0.0315699 -9.16311e-07 0)
(0.0315739 -8.41851e-07 0)
(0.0315776 -7.74688e-07 0)
(0.0315809 -7.1341e-07 0)
(0.0315841 -6.57282e-07 0)
(0.031587 -6.05799e-07 0)
(0.0315897 -5.58254e-07 0)
(0.0315922 -5.14194e-07 0)
(0.0315945 -4.73822e-07 0)
(0.0315966 -4.36658e-07 0)
(0.0315986 -4.02299e-07 0)
(0.0316005 -3.70651e-07 0)
(0.0316023 -3.41e-07 0)
(0.0316039 -3.13859e-07 0)
(0.0316054 -2.88825e-07 0)
(0.0316068 -2.65561e-07 0)
(0.0316081 -2.43997e-07 0)
(0.0316093 -2.24222e-07 0)
(0.0316104 -2.05857e-07 0)
(0.0316115 -1.88866e-07 0)
(0.0316125 -1.73055e-07 0)
(0.0316134 -1.5879e-07 0)
(0.0316142 -1.45078e-07 0)
(0.031615 -1.32945e-07 0)
(0.0316157 -1.21249e-07 0)
(0.0316164 -1.10927e-07 0)
(0.031617 -1.00808e-07 0)
(0.0316175 -9.20782e-08 0)
(0.031618 -8.35335e-08 0)
(0.0316185 -7.59437e-08 0)
(0.031619 -6.86748e-08 0)
(0.0316194 -6.20896e-08 0)
(0.0316197 -5.59992e-08 0)
(0.0316201 -5.02108e-08 0)
(0.0316204 -4.51051e-08 0)
(0.0316206 -3.99407e-08 0)
(0.0316209 -3.56484e-08 0)
(0.0316211 -3.09828e-08 0)
(0.0316213 -2.74028e-08 0)
(0.0316214 -2.30316e-08 0)
(0.0316216 -2.01038e-08 0)
(0.0316216 -1.58448e-08 0)
(0.0316218 -1.34357e-08 0)
(0.0316218 -9.22722e-09 0)
(0.0316219 -6.98936e-09 0)
(0.0316218 -3.33419e-09 0)
(0.0316219 -1.79304e-09 0)
(0.0316218 3.40328e-09 0)
(0.19501 0.00760328 0)
(0.193126 0.0107511 0)
(0.190337 0.0119539 0)
(0.186313 0.011801 0)
(0.180988 0.0110243 0)
(0.174362 0.010026 0)
(0.166958 0.0088711 0)
(0.159383 0.00753334 0)
(0.152013 0.00615532 0)
(0.144959 0.00486216 0)
(0.138187 0.00369065 0)
(0.131745 0.00271521 0)
(0.125819 0.00202338 0)
(0.120548 0.00157408 0)
(0.115937 0.00124955 0)
(0.11194 0.000999883 0)
(0.108497 0.000829608 0)
(0.105521 0.000721104 0)
(0.102919 0.000635804 0)
(0.100628 0.000552922 0)
(0.098612 0.000473406 0)
(0.0968395 0.000400971 0)
(0.0952928 0.000333931 0)
(0.0939632 0.000269547 0)
(0.0928489 0.000207203 0)
(0.0919454 0.000147851 0)
(0.0912449 9.27449e-05 0)
(0.0907353 4.39771e-05 0)
(0.0903965 2.76709e-06 0)
(0.0902074 -3.34791e-05 0)
(0.0901366 -5.86837e-05 0)
(0.0901491 -7.06679e-05 0)
(0.0902159 -7.2344e-05 0)
(0.0903119 -6.69329e-05 0)
(0.090418 -5.83651e-05 0)
(0.090522 -4.88986e-05 0)
(0.090617 -3.99905e-05 0)
(0.0906995 -3.22814e-05 0)
(0.0907687 -2.59441e-05 0)
(0.0908248 -2.07991e-05 0)
(0.0908692 -1.67329e-05 0)
(0.0909031 -1.34902e-05 0)
(0.0909284 -1.08446e-05 0)
(0.0909466 -8.78181e-06 0)
(0.0909591 -7.13962e-06 0)
(0.0909674 -5.85141e-06 0)
(0.0909726 -4.85999e-06 0)
(0.0909755 -4.10493e-06 0)
(0.090977 -3.52785e-06 0)
(0.0909775 -3.08833e-06 0)
(0.0909774 -2.73992e-06 0)
(0.0909769 -2.45875e-06 0)
(0.0909762 -2.22772e-06 0)
(0.0909755 -2.02943e-06 0)
(0.0909746 -1.85697e-06 0)
(0.0909738 -1.70524e-06 0)
(0.0909731 -1.56954e-06 0)
(0.0909723 -1.44692e-06 0)
(0.0909717 -1.33592e-06 0)
(0.0909711 -1.23512e-06 0)
(0.0909705 -1.14223e-06 0)
(0.0909701 -1.05662e-06 0)
(0.0909697 -9.78002e-07 0)
(0.0909693 -9.05314e-07 0)
(0.090969 -8.38888e-07 0)
(0.0909688 -7.76979e-07 0)
(0.0909686 -7.19225e-07 0)
(0.0909684 -6.66049e-07 0)
(0.0909683 -6.1648e-07 0)
(0.0909683 -5.704e-07 0)
(0.0909682 -5.27067e-07 0)
(0.0909682 -4.87565e-07 0)
(0.0909682 -4.49865e-07 0)
(0.0909683 -4.1544e-07 0)
(0.0909683 -3.8244e-07 0)
(0.0909684 -3.53025e-07 0)
(0.0909685 -3.2365e-07 0)
(0.0909685 -2.98377e-07 0)
(0.0909686 -2.72733e-07 0)
(0.0909687 -2.50689e-07 0)
(0.0909688 -2.28103e-07 0)
(0.0909689 -2.08884e-07 0)
(0.090969 -1.89331e-07 0)
(0.0909691 -1.72232e-07 0)
(0.0909692 -1.55122e-07 0)
(0.0909693 -1.39927e-07 0)
(0.0909693 -1.24873e-07 0)
(0.0909694 -1.11231e-07 0)
(0.0909695 -9.79188e-08 0)
(0.0909694 -8.53515e-08 0)
(0.0909696 -7.36203e-08 0)
(0.0909695 -6.14582e-08 0)
(0.0909696 -5.14254e-08 0)
(0.0909694 -3.89829e-08 0)
(0.0909695 -3.0411e-08 0)
(0.0909693 -1.80152e-08 0)
(0.0909694 -1.07465e-08 0)
(0.0909691 2.86719e-09 0)
(0.0909692 6.96287e-09 0)
(0.0909688 2.58643e-08 0)
(0.195923 0.00735573 0)
(0.196329 0.00998884 0)
(0.197218 0.0116924 0)
(0.198152 0.0122477 0)
(0.198633 0.0119913 0)
(0.198214 0.0113613 0)
(0.196848 0.0105358 0)
(0.194789 0.00952443 0)
(0.192273 0.00840966 0)
(0.189419 0.00731837 0)
(0.186237 0.00633274 0)
(0.182736 0.00550199 0)
(0.179032 0.00484594 0)
(0.175273 0.00430821 0)
(0.171543 0.00379457 0)
(0.167903 0.00328681 0)
(0.164442 0.00283866 0)
(0.161243 0.00247767 0)
(0.158338 0.00218115 0)
(0.155717 0.00192432 0)
(0.153339 0.00169925 0)
(0.151156 0.00149616 0)
(0.149138 0.00130005 0)
(0.147283 0.00110291 0)
(0.14561 0.000906986 0)
(0.144136 0.000717831 0)
(0.142872 0.000538261 0)
(0.141818 0.00037156 0)
(0.140964 0.0002252 0)
(0.14029 0.000107775 0)
(0.139779 1.72248e-05 0)
(0.139408 -4.36753e-05 0)
(0.139151 -7.90384e-05 0)
(0.138984 -9.56792e-05 0)
(0.138883 -9.79534e-05 0)
(0.138832 -9.15281e-05 0)
(0.138813 -8.06912e-05 0)
(0.138816 -6.82464e-05 0)
(0.13883 -5.5859e-05 0)
(0.138849 -4.43026e-05 0)
(0.138867 -3.42524e-05 0)
(0.138881 -2.58341e-05 0)
(0.138889 -1.88618e-05 0)
(0.138892 -1.33886e-05 0)
(0.138888 -9.26412e-06 0)
(0.13888 -6.2573e-06 0)
(0.138867 -4.1268e-06 0)
(0.138853 -2.64285e-06 0)
(0.138837 -1.6374e-06 0)
(0.13882 -9.84002e-07 0)
(0.138803 -5.64793e-07 0)
(0.138787 -3.00785e-07 0)
(0.138771 -1.42121e-07 0)
(0.138756 -4.744e-08 0)
(0.138742 5.86308e-09 0)
(0.138729 3.14725e-08 0)
(0.138717 3.94533e-08 0)
(0.138705 3.65185e-08 0)
(0.138695 2.63526e-08 0)
(0.138685 1.09489e-08 0)
(0.138676 -6.2281e-09 0)
(0.138668 -2.36723e-08 0)
(0.13866 -4.14777e-08 0)
(0.138653 -5.80756e-08 0)
(0.138646 -7.46956e-08 0)
(0.13864 -8.96302e-08 0)
(0.138635 -1.02082e-07 0)
(0.13863 -1.13245e-07 0)
(0.138626 -1.22462e-07 0)
(0.138621 -1.30063e-07 0)
(0.138618 -1.34922e-07 0)
(0.138614 -1.39478e-07 0)
(0.138611 -1.41246e-07 0)
(0.138608 -1.42721e-07 0)
(0.138606 -1.4102e-07 0)
(0.138603 -1.40984e-07 0)
(0.138601 -1.36075e-07 0)
(0.138599 -1.34379e-07 0)
(0.138598 -1.27442e-07 0)
(0.138596 -1.24516e-07 0)
(0.138595 -1.15601e-07 0)
(0.138593 -1.11566e-07 0)
(0.138592 -1.01624e-07 0)
(0.138591 -9.66752e-08 0)
(0.13859 -8.56214e-08 0)
(0.138589 -7.9997e-08 0)
(0.138589 -6.80809e-08 0)
(0.138588 -6.17037e-08 0)
(0.138587 -4.93071e-08 0)
(0.138587 -4.17792e-08 0)
(0.138586 -2.93257e-08 0)
(0.138586 -1.98727e-08 0)
(0.138585 -8.08207e-09 0)
(0.138585 4.25322e-09 0)
(0.138584 1.49264e-08 0)
(0.138584 3.03197e-08 0)
(0.138584 3.89464e-08 0)
(0.138583 5.97516e-08 0)
(0.138583 6.43329e-08 0)
(0.138582 9.38859e-08 0)
(0.196785 0.00693636 0)
(0.197206 0.00881993 0)
(0.198184 0.0103803 0)
(0.19966 0.0111817 0)
(0.201302 0.0112148 0)
(0.202637 0.0108112 0)
(0.203422 0.0102328 0)
(0.203706 0.0095091 0)
(0.203609 0.00866257 0)
(0.20321 0.00780062 0)
(0.202512 0.00702544 0)
(0.201503 0.00639544 0)
(0.200232 0.0059159 0)
(0.198753 0.00551484 0)
(0.197083 0.00509925 0)
(0.195251 0.00464915 0)
(0.193327 0.00420702 0)
(0.191384 0.0037938 0)
(0.18949 0.00339891 0)
(0.187712 0.00302797 0)
(0.186089 0.00270649 0)
(0.184606 0.00243986 0)
(0.183209 0.00220167 0)
(0.181853 0.00196182 0)
(0.180528 0.00170809 0)
(0.179253 0.00144437 0)
(0.178062 0.00118028 0)
(0.176975 0.000927586 0)
(0.176002 0.000697022 0)
(0.17514 0.000497144 0)
(0.174387 0.000334566 0)
(0.173736 0.00020878 0)
(0.173182 0.000115886 0)
(0.172718 4.97128e-05 0)
(0.172337 6.38255e-06 0)
(0.172028 -2.00363e-05 0)
(0.171783 -3.44596e-05 0)
(0.171593 -4.05364e-05 0)
(0.171449 -4.08196e-05 0)
(0.171342 -3.74397e-05 0)
(0.171263 -3.12959e-05 0)
(0.171203 -2.37414e-05 0)
(0.171155 -1.62522e-05 0)
(0.171113 -9.10298e-06 0)
(0.171073 -2.94814e-06 0)
(0.171033 1.86556e-06 0)
(0.170992 5.34346e-06 0)
(0.170951 7.65925e-06 0)
(0.170909 9.02416e-06 0)
(0.170868 9.67499e-06 0)
(0.170828 9.82496e-06 0)
(0.170789 9.64606e-06 0)
(0.170753 9.26581e-06 0)
(0.170718 8.77162e-06 0)
(0.170685 8.22133e-06 0)
(0.170655 7.65147e-06 0)
(0.170626 7.08425e-06 0)
(0.1706 6.53277e-06 0)
(0.170576 6.00449e-06 0)
(0.170553 5.50374e-06 0)
(0.170532 5.03244e-06 0)
(0.170513 4.59106e-06 0)
(0.170495 4.17973e-06 0)
(0.170479 3.79768e-06 0)
(0.170463 3.44435e-06 0)
(0.17045 3.11846e-06 0)
(0.170437 2.81868e-06 0)
(0.170425 2.54336e-06 0)
(0.170414 2.29182e-06 0)
(0.170405 2.06154e-06 0)
(0.170396 1.85252e-06 0)
(0.170387 1.66112e-06 0)
(0.17038 1.48949e-06 0)
(0.170373 1.33131e-06 0)
(0.170367 1.19209e-06 0)
(0.170361 1.06179e-06 0)
(0.170356 9.50683e-07 0)
(0.170351 8.43552e-07 0)
(0.170347 7.56293e-07 0)
(0.170343 6.68736e-07 0)
(0.17034 6.01406e-07 0)
(0.170336 5.30288e-07 0)
(0.170333 4.795e-07 0)
(0.170331 4.22314e-07 0)
(0.170328 3.85357e-07 0)
(0.170326 3.39816e-07 0)
(0.170324 3.14271e-07 0)
(0.170322 2.78884e-07 0)
(0.170321 2.62509e-07 0)
(0.170319 2.36352e-07 0)
(0.170318 2.27163e-07 0)
(0.170317 2.09861e-07 0)
(0.170316 2.05755e-07 0)
(0.170314 1.97711e-07 0)
(0.170314 1.968e-07 0)
(0.170313 1.98185e-07 0)
(0.170312 1.99526e-07 0)
(0.170311 2.10598e-07 0)
(0.170311 2.11712e-07 0)
(0.170309 2.34551e-07 0)
(0.197445 0.00657658 0)
(0.197863 0.00801283 0)
(0.198687 0.00932516 0)
(0.199958 0.0101928 0)
(0.201547 0.0104187 0)
(0.203092 0.0101626 0)
(0.204306 0.00969396 0)
(0.205154 0.00910188 0)
(0.205727 0.00840481 0)
(0.206094 0.00767362 0)
(0.20626 0.00699736 0)
(0.206236 0.00645472 0)
(0.206076 0.00607288 0)
(0.205799 0.00578281 0)
(0.205373 0.00547963 0)
(0.204793 0.00512752 0)
(0.204094 0.00475809 0)
(0.203303 0.00438835 0)
(0.202439 0.00400233 0)
(0.201556 0.00360226 0)
(0.200724 0.00322669 0)
(0.199979 0.00291027 0)
(0.199298 0.00264916 0)
(0.198632 0.00241244 0)
(0.197941 0.00217064 0)
(0.197213 0.00191037 0)
(0.196465 0.00163465 0)
(0.195721 0.00135755 0)
(0.195 0.00109742 0)
(0.19431 0.000867962 0)
(0.193653 0.000674189 0)
(0.193032 0.000514656 0)
(0.192452 0.000387215 0)
(0.191918 0.000288792 0)
(0.191433 0.000213604 0)
(0.190998 0.000156315 0)
(0.190614 0.000112532 0)
(0.190279 7.91391e-05 0)
(0.189994 5.42124e-05 0)
(0.189755 3.64341e-05 0)
(0.189558 2.55332e-05 0)
(0.189396 2.03097e-05 0)
(0.189263 1.89838e-05 0)
(0.189151 2.05087e-05 0)
(0.189053 2.34463e-05 0)
(0.188966 2.6599e-05 0)
(0.188886 2.92135e-05 0)
(0.18881 3.09173e-05 0)
(0.188738 3.16484e-05 0)
(0.188669 3.15206e-05 0)
(0.188603 3.07198e-05 0)
(0.188541 2.94494e-05 0)
(0.188482 2.78868e-05 0)
(0.188427 2.61687e-05 0)
(0.188376 2.43946e-05 0)
(0.188328 2.26308e-05 0)
(0.188283 2.0918e-05 0)
(0.188242 1.92804e-05 0)
(0.188204 1.7731e-05 0)
(0.188168 1.62752e-05 0)
(0.188135 1.4914e-05 0)
(0.188105 1.36463e-05 0)
(0.188077 1.24693e-05 0)
(0.188051 1.13791e-05 0)
(0.188028 1.03719e-05 0)
(0.188006 9.44246e-06 0)
(0.187986 8.58682e-06 0)
(0.187968 7.80007e-06 0)
(0.187951 7.07855e-06 0)
(0.187935 6.41618e-06 0)
(0.187921 5.8116e-06 0)
(0.187908 5.25683e-06 0)
(0.187896 4.75388e-06 0)
(0.187885 4.29049e-06 0)
(0.187876 3.87565e-06 0)
(0.187867 3.48962e-06 0)
(0.187858 3.15032e-06 0)
(0.187851 2.82936e-06 0)
(0.187844 2.55454e-06 0)
(0.187838 2.28848e-06 0)
(0.187832 2.06756e-06 0)
(0.187827 1.84829e-06 0)
(0.187822 1.67253e-06 0)
(0.187818 1.49252e-06 0)
(0.187814 1.3546e-06 0)
(0.187811 1.20752e-06 0)
(0.187808 1.10117e-06 0)
(0.187805 9.82191e-07 0)
(0.187802 9.01837e-07 0)
(0.1878 8.07013e-07 0)
(0.187798 7.48095e-07 0)
(0.187795 6.74514e-07 0)
(0.187794 6.32585e-07 0)
(0.187792 5.7882e-07 0)
(0.187791 5.50347e-07 0)
(0.187789 5.13949e-07 0)
(0.187788 4.978e-07 0)
(0.187787 4.7651e-07 0)
(0.187786 4.69593e-07 0)
(0.187785 4.63602e-07 0)
(0.198015 0.00627546 0)
(0.198424 0.00745517 0)
(0.199146 0.00855179 0)
(0.200202 0.00938444 0)
(0.201558 0.00972101 0)
(0.202982 0.00957077 0)
(0.204191 0.00915968 0)
(0.205097 0.00864585 0)
(0.205775 0.00806992 0)
(0.206285 0.00745188 0)
(0.206626 0.0068453 0)
(0.206825 0.00634328 0)
(0.206963 0.00600177 0)
(0.207069 0.0057628 0)
(0.207107 0.00551505 0)
(0.20706 0.00521569 0)
(0.206949 0.00489677 0)
(0.206773 0.00457676 0)
(0.206514 0.00423095 0)
(0.206186 0.00384611 0)
(0.205837 0.00345536 0)
(0.205509 0.00310818 0)
(0.205216 0.00282518 0)
(0.20494 0.00258958 0)
(0.20465 0.00236817 0)
(0.20432 0.00213356 0)
(0.203943 0.00187728 0)
(0.203528 0.00161089 0)
(0.203089 0.00135517 0)
(0.202634 0.00112602 0)
(0.202167 0.00092962 0)
(0.201694 0.0007657 0)
(0.201223 0.00063097 0)
(0.20076 0.000521198 0)
(0.200312 0.000431369 0)
(0.199885 0.000357027 0)
(0.199483 0.000294264 0)
(0.19911 0.000240558 0)
(0.19877 0.000194825 0)
(0.198466 0.000157149 0)
(0.198199 0.0001274 0)
(0.197966 0.000105443 0)
(0.197765 9.06953e-05 0)
(0.197592 8.15171e-05 0)
(0.19744 7.62645e-05 0)
(0.197306 7.33536e-05 0)
(0.197186 7.14902e-05 0)
(0.197076 6.97921e-05 0)
(0.196974 6.77762e-05 0)
(0.19688 6.52604e-05 0)
(0.196792 6.22574e-05 0)
(0.19671 5.88836e-05 0)
(0.196634 5.5285e-05 0)
(0.196563 5.15978e-05 0)
(0.196496 4.79315e-05 0)
(0.196435 4.43644e-05 0)
(0.196377 4.0947e-05 0)
(0.196324 3.77086e-05 0)
(0.196275 3.46634e-05 0)
(0.19623 3.18153e-05 0)
(0.196188 2.91622e-05 0)
(0.19615 2.66982e-05 0)
(0.196114 2.44153e-05 0)
(0.196081 2.23041e-05 0)
(0.196051 2.03551e-05 0)
(0.196023 1.85581e-05 0)
(0.195998 1.69041e-05 0)
(0.195975 1.53829e-05 0)
(0.195953 1.39869e-05 0)
(0.195933 1.27047e-05 0)
(0.195915 1.15328e-05 0)
(0.195899 1.04562e-05 0)
(0.195884 9.47797e-06 0)
(0.19587 8.57636e-06 0)
(0.195857 7.76537e-06 0)
(0.195846 7.01174e-06 0)
(0.195835 6.34403e-06 0)
(0.195825 5.71552e-06 0)
(0.195817 5.16943e-06 0)
(0.195809 4.64698e-06 0)
(0.195802 4.20283e-06 0)
(0.195795 3.77072e-06 0)
(0.195789 3.41201e-06 0)
(0.195783 3.0556e-06 0)
(0.195779 2.769e-06 0)
(0.195774 2.47579e-06 0)
(0.19577 2.24966e-06 0)
(0.195766 2.00986e-06 0)
(0.195763 1.83397e-06 0)
(0.19576 1.6392e-06 0)
(0.195757 1.50553e-06 0)
(0.195754 1.34902e-06 0)
(0.195753 1.24993e-06 0)
(0.19575 1.12715e-06 0)
(0.195749 1.05719e-06 0)
(0.195746 9.6163e-07 0)
(0.195746 9.1928e-07 0)
(0.195743 8.45756e-07 0)
(0.195743 8.26221e-07 0)
(0.195741 7.72722e-07 0)
(0.198543 0.00601555 0)
(0.198933 0.00701062 0)
(0.19957 0.00791892 0)
(0.200447 0.00864502 0)
(0.201567 0.00901265 0)
(0.202812 0.00895052 0)
(0.203942 0.00862088 0)
(0.204822 0.00820469 0)
(0.20549 0.00774731 0)
(0.206005 0.0072358 0)
(0.206362 0.00670152 0)
(0.206588 0.00623331 0)
(0.206766 0.00590027 0)
(0.206938 0.00566726 0)
(0.207086 0.00543515 0)
(0.207204 0.0051596 0)
(0.207301 0.00486999 0)
(0.207363 0.00458473 0)
(0.207363 0.00427633 0)
(0.207298 0.00392314 0)
(0.207185 0.00354853 0)
(0.207044 0.0031998 0)
(0.206895 0.00290721 0)
(0.206754 0.00266752 0)
(0.206617 0.00245421 0)
(0.206464 0.00223747 0)
(0.206275 0.00200267 0)
(0.206046 0.00175633 0)
(0.205779 0.00151707 0)
(0.205478 0.00130146 0)
(0.205148 0.00111625 0)
(0.204795 0.00096027 0)
(0.204425 0.000829307 0)
(0.204045 0.000719187 0)
(0.203662 0.000625738 0)
(0.203282 0.000545009 0)
(0.20291 0.000473455 0)
(0.202554 0.000408777 0)
(0.202216 0.000350136 0)
(0.201901 0.000297964 0)
(0.201612 0.000253111 0)
(0.201351 0.000216313 0)
(0.201117 0.000187585 0)
(0.200908 0.000166013 0)
(0.200723 0.000150256 0)
(0.200557 0.000138703 0)
(0.200409 0.000129827 0)
(0.200275 0.000122425 0)
(0.200153 0.000115687 0)
(0.200041 0.000109155 0)
(0.199938 0.000102635 0)
(0.199843 9.61003e-05 0)
(0.199755 8.96072e-05 0)
(0.199673 8.32404e-05 0)
(0.199597 7.70805e-05 0)
(0.199527 7.119e-05 0)
(0.199462 6.56096e-05 0)
(0.199403 6.03608e-05 0)
(0.199347 5.54506e-05 0)
(0.199296 5.08755e-05 0)
(0.199249 4.66255e-05 0)
(0.199205 4.26868e-05 0)
(0.199165 3.90433e-05 0)
(0.199128 3.56779e-05 0)
(0.199094 3.25739e-05 0)
(0.199063 2.97138e-05 0)
(0.199035 2.70825e-05 0)
(0.199008 2.46625e-05 0)
(0.198984 2.24419e-05 0)
(0.198962 2.0402e-05 0)
(0.198942 1.85367e-05 0)
(0.198923 1.68225e-05 0)
(0.198906 1.52636e-05 0)
(0.19889 1.38265e-05 0)
(0.198876 1.25314e-05 0)
(0.198863 1.13287e-05 0)
(0.198851 1.02592e-05 0)
(0.19884 9.25516e-06 0)
(0.19883 8.37664e-06 0)
(0.198821 7.54145e-06 0)
(0.198813 6.823e-06 0)
(0.198806 6.13131e-06 0)
(0.198799 5.54738e-06 0)
(0.198793 4.97578e-06 0)
(0.198787 4.50578e-06 0)
(0.198782 4.03412e-06 0)
(0.198778 3.65988e-06 0)
(0.198773 3.27226e-06 0)
(0.19877 2.97806e-06 0)
(0.198766 2.66055e-06 0)
(0.198763 2.43416e-06 0)
(0.19876 2.17528e-06 0)
(0.198758 2.00521e-06 0)
(0.198755 1.79645e-06 0)
(0.198754 1.6751e-06 0)
(0.198751 1.50501e-06 0)
(0.19875 1.43003e-06 0)
(0.198748 1.2902e-06 0)
(0.198747 1.25442e-06 0)
(0.198745 1.14067e-06 0)
(0.199011 0.0057647 0)
(0.199378 0.00660251 0)
(0.19994 0.00735495 0)
(0.200676 0.0079674 0)
(0.201596 0.00833226 0)
(0.202666 0.00835721 0)
(0.203706 0.00813167 0)
(0.204542 0.00780681 0)
(0.205173 0.00743096 0)
(0.205664 0.00699767 0)
(0.206021 0.00653327 0)
(0.206258 0.0061053 0)
(0.206445 0.00577869 0)
(0.206621 0.00554508 0)
(0.206782 0.00532461 0)
(0.206934 0.00506656 0)
(0.207087 0.00479331 0)
(0.207217 0.00452842 0)
(0.207298 0.00424851 0)
(0.207331 0.00392786 0)
(0.207319 0.00358248 0)
(0.207257 0.00325264 0)
(0.207158 0.00296584 0)
(0.207051 0.00272375 0)
(0.206953 0.00250944 0)
(0.206854 0.00229976 0)
(0.206736 0.00207994 0)
(0.206584 0.00185263 0)
(0.206397 0.00163297 0)
(0.206172 0.00143536 0)
(0.205914 0.00126514 0)
(0.205627 0.00112061 0)
(0.205317 0.000997872 0)
(0.204992 0.000892908 0)
(0.204656 0.000801568 0)
(0.204316 0.000719841 0)
(0.203977 0.000644373 0)
(0.203645 0.000573163 0)
(0.203324 0.000505769 0)
(0.203019 0.000443051 0)
(0.202733 0.000386445 0)
(0.202468 0.000337308 0)
(0.202225 0.000296318 0)
(0.202004 0.000263165 0)
(0.201805 0.000236839 0)
(0.201625 0.000215916 0)
(0.201463 0.00019891 0)
(0.201316 0.000184536 0)
(0.201183 0.000171831 0)
(0.201061 0.00016016 0)
(0.20095 0.000149161 0)
(0.200848 0.000138665 0)
(0.200754 0.000128622 0)
(0.200667 0.000119039 0)
(0.200587 0.00010994 0)
(0.200513 0.000101352 0)
(0.200444 9.32865e-05 0)
(0.200381 8.57466e-05 0)
(0.200323 7.87227e-05 0)
(0.200269 7.21981e-05 0)
(0.20022 6.61507e-05 0)
(0.200174 6.05552e-05 0)
(0.200132 5.53858e-05 0)
(0.200093 5.06155e-05 0)
(0.200057 4.62188e-05 0)
(0.200025 4.21698e-05 0)
(0.199994 3.8446e-05 0)
(0.199967 3.5022e-05 0)
(0.199941 3.18806e-05 0)
(0.199918 2.89946e-05 0)
(0.199897 2.63554e-05 0)
(0.199877 2.39296e-05 0)
(0.199859 2.17229e-05 0)
(0.199843 1.96882e-05 0)
(0.199828 1.78529e-05 0)
(0.199814 1.61495e-05 0)
(0.199802 1.46314e-05 0)
(0.19979 1.32087e-05 0)
(0.19978 1.19587e-05 0)
(0.199771 1.07751e-05 0)
(0.199762 9.74982e-06 0)
(0.199754 8.76905e-06 0)
(0.199747 7.93301e-06 0)
(0.199741 7.12169e-06 0)
(0.199735 6.44628e-06 0)
(0.199729 5.77567e-06 0)
(0.199725 5.23552e-06 0)
(0.19972 4.68288e-06 0)
(0.199717 4.25613e-06 0)
(0.199713 3.80137e-06 0)
(0.19971 3.47105e-06 0)
(0.199706 3.09743e-06 0)
(0.199704 2.8478e-06 0)
(0.199701 2.54233e-06 0)
(0.1997 2.3634e-06 0)
(0.199697 2.10921e-06 0)
(0.199696 1.99745e-06 0)
(0.199693 1.78266e-06 0)
(0.199693 1.72839e-06 0)
(0.19969 1.54648e-06 0)
(0.199407 0.00551488 0)
(0.199752 0.00622124 0)
(0.200252 0.00685744 0)
(0.200883 0.00737941 0)
(0.201646 0.00772993 0)
(0.202556 0.00782098 0)
(0.203493 0.0076743 0)
(0.204271 0.00740877 0)
(0.204859 0.00709215 0)
(0.205326 0.00673048 0)
(0.205683 0.00634109 0)
(0.205938 0.00596829 0)
(0.206147 0.00566122 0)
(0.206332 0.00542928 0)
(0.206484 0.00521719 0)
(0.20663 0.00497163 0)
(0.206791 0.00470671 0)
(0.206934 0.00445412 0)
(0.207028 0.0041975 0)
(0.207085 0.00390627 0)
(0.207111 0.0035907 0)
(0.207086 0.00328668 0)
(0.207011 0.00301523 0)
(0.206917 0.00277586 0)
(0.206831 0.00255888 0)
(0.206748 0.0023512 0)
(0.206651 0.00214203 0)
(0.206528 0.00193166 0)
(0.206373 0.00173105 0)
(0.206184 0.00155149 0)
(0.205961 0.001397 0)
(0.205709 0.00126551 0)
(0.205434 0.00115297 0)
(0.205141 0.00105512 0)
(0.204834 0.000967665 0)
(0.20452 0.000886613 0)
(0.204205 0.000808918 0)
(0.203893 0.000732976 0)
(0.20359 0.000658791 0)
(0.203299 0.000587651 0)
(0.203023 0.000521442 0)
(0.202763 0.000461947 0)
(0.202523 0.000410254 0)
(0.202302 0.000366489 0)
(0.2021 0.000330012 0)
(0.201916 0.00029969 0)
(0.201749 0.000274205 0)
(0.201598 0.000252322 0)
(0.201461 0.000233032 0)
(0.201336 0.000215606 0)
(0.201221 0.000199562 0)
(0.201116 0.000184614 0)
(0.20102 0.000170604 0)
(0.200931 0.000157456 0)
(0.20085 0.000145129 0)
(0.200774 0.000133598 0)
(0.200705 0.00012284 0)
(0.200641 0.000112829 0)
(0.200581 0.000103534 0)
(0.200527 9.49203e-05 0)
(0.200476 8.69497e-05 0)
(0.20043 7.95843e-05 0)
(0.200387 7.2786e-05 0)
(0.200348 6.65172e-05 0)
(0.200312 6.07426e-05 0)
(0.200279 5.54267e-05 0)
(0.200248 5.05392e-05 0)
(0.20022 4.60461e-05 0)
(0.200194 4.19242e-05 0)
(0.200171 3.81377e-05 0)
(0.200149 3.46749e-05 0)
(0.200129 3.14919e-05 0)
(0.200111 2.85956e-05 0)
(0.200094 2.59254e-05 0)
(0.200079 2.35151e-05 0)
(0.200065 2.12792e-05 0)
(0.200053 1.92835e-05 0)
(0.200041 1.7416e-05 0)
(0.200031 1.57703e-05 0)
(0.200021 1.42164e-05 0)
(0.200013 1.28643e-05 0)
(0.200005 1.15763e-05 0)
(0.199997 1.04717e-05 0)
(0.199991 9.40557e-06 0)
(0.199985 8.51133e-06 0)
(0.199979 7.62915e-06 0)
(0.199975 6.91229e-06 0)
(0.19997 6.18402e-06 0)
(0.199966 5.61615e-06 0)
(0.199962 5.01517e-06 0)
(0.199959 4.5742e-06 0)
(0.199956 4.07827e-06 0)
(0.199954 3.74392e-06 0)
(0.199951 3.33525e-06 0)
(0.199949 3.09492e-06 0)
(0.199946 2.75101e-06 0)
(0.199945 2.59984e-06 0)
(0.199943 2.30507e-06 0)
(0.199942 2.231e-06 0)
(0.19994 1.9761e-06 0)
(0.199735 0.00527911 0)
(0.200064 0.00587741 0)
(0.200512 0.00642241 0)
(0.201061 0.00687146 0)
(0.201702 0.00719402 0)
(0.202464 0.00731536 0)
(0.203288 0.0072197 0)
(0.20401 0.00700908 0)
(0.204568 0.00676055 0)
(0.205013 0.00647184 0)
(0.205363 0.0061507 0)
(0.205629 0.00583192 0)
(0.20586 0.00554604 0)
(0.206059 0.00531082 0)
(0.206204 0.00510344 0)
(0.206334 0.00487479 0)
(0.206491 0.00462176 0)
(0.206637 0.00437873 0)
(0.206726 0.00414199 0)
(0.206778 0.00387826 0)
(0.206814 0.00358941 0)
(0.20681 0.00330923 0)
(0.206753 0.00305588 0)
(0.206672 0.00282425 0)
(0.206595 0.00260734 0)
(0.206522 0.00240129 0)
(0.206433 0.00220104 0)
(0.206321 0.00200557 0)
(0.206181 0.00182202 0)
(0.206012 0.00165926 0)
(0.205811 0.00152025 0)
(0.205582 0.0014021 0)
(0.205329 0.00130024 0)
(0.205058 0.00121019 0)
(0.204772 0.00112754 0)
(0.204478 0.00104828 0)
(0.204181 0.000969458 0)
(0.203887 0.000889842 0)
(0.203599 0.000809926 0)
(0.203321 0.000731456 0)
(0.203056 0.000656718 0)
(0.202805 0.00058785 0)
(0.202572 0.000526304 0)
(0.202355 0.000472592 0)
(0.202156 0.000426414 0)
(0.201973 0.000386914 0)
(0.201807 0.000352965 0)
(0.201656 0.000323429 0)
(0.201518 0.000297316 0)
(0.201392 0.00027385 0)
(0.201277 0.000252468 0)
(0.201172 0.000232789 0)
(0.201075 0.000214565 0)
(0.200986 0.000197634 0)
(0.200905 0.000181891 0)
(0.200829 0.000167258 0)
(0.20076 0.000153669 0)
(0.200695 0.000141066 0)
(0.200636 0.000129394 0)
(0.200582 0.000118595 0)
(0.200531 0.000108616 0)
(0.200485 9.94039e-05 0)
(0.200442 9.0907e-05 0)
(0.200403 8.3076e-05 0)
(0.200367 7.58654e-05 0)
(0.200334 6.92296e-05 0)
(0.200303 6.31299e-05 0)
(0.200275 5.75232e-05 0)
(0.200249 5.23802e-05 0)
(0.200226 4.7656e-05 0)
(0.200204 4.33354e-05 0)
(0.200184 3.93642e-05 0)
(0.200166 3.57499e-05 0)
(0.20015 3.24182e-05 0)
(0.200135 2.94091e-05 0)
(0.200121 2.66192e-05 0)
(0.200108 2.41259e-05 0)
(0.200097 2.17956e-05 0)
(0.200086 1.97378e-05 0)
(0.200077 1.77988e-05 0)
(0.200068 1.61062e-05 0)
(0.20006 1.44987e-05 0)
(0.200053 1.31143e-05 0)
(0.200046 1.1783e-05 0)
(0.20004 1.06609e-05 0)
(0.200035 9.55849e-06 0)
(0.20003 8.65772e-06 0)
(0.200025 7.74652e-06 0)
(0.200022 7.03181e-06 0)
(0.200018 6.27851e-06 0)
(0.200015 5.72238e-06 0)
(0.200011 5.09901e-06 0)
(0.200009 4.67647e-06 0)
(0.200006 4.16028e-06 0)
(0.200005 3.85594e-06 0)
(0.200002 3.41868e-06 0)
(0.200001 3.22625e-06 0)
(0.199998 2.84832e-06 0)
(0.199998 2.7535e-06 0)
(0.199995 2.42246e-06 0)
(0.200002 0.00505898 0)
(0.200316 0.0055647 0)
(0.20072 0.00603047 0)
(0.201202 0.00641744 0)
(0.201746 0.00670284 0)
(0.20238 0.00683715 0)
(0.2031 0.00679334 0)
(0.203774 0.00664326 0)
(0.204303 0.00645433 0)
(0.204719 0.00622114 0)
(0.205055 0.00595103 0)
(0.205323 0.00567798 0)
(0.205566 0.00541713 0)
(0.205783 0.00518434 0)
(0.20593 0.00498484 0)
(0.206043 0.0047796 0)
(0.206189 0.00454405 0)
(0.206336 0.00430801 0)
(0.206421 0.00408625 0)
(0.206461 0.00384881 0)
(0.206495 0.00358499 0)
(0.206506 0.00332463 0)
(0.206466 0.00308818 0)
(0.206396 0.0028676 0)
(0.20633 0.00265413 0)
(0.206265 0.00245009 0)
(0.206184 0.00225728 0)
(0.206077 0.00207505 0)
(0.205948 0.00190723 0)
(0.205794 0.0017604 0)
(0.20561 0.00163659 0)
(0.205399 0.00153218 0)
(0.205165 0.00144177 0)
(0.204912 0.00136042 0)
(0.204645 0.00128346 0)
(0.204368 0.00120671 0)
(0.204088 0.00112737 0)
(0.203809 0.0010446 0)
(0.203535 0.000959454 0)
(0.20327 0.000874171 0)
(0.203016 0.000791467 0)
(0.202776 0.000713838 0)
(0.20255 0.000643054 0)
(0.20234 0.000579943 0)
(0.202146 0.000524495 0)
(0.201967 0.000476103 0)
(0.201804 0.000433838 0)
(0.201654 0.00039668 0)
(0.201518 0.000363686 0)
(0.201393 0.000334063 0)
(0.201279 0.000307195 0)
(0.201174 0.000282627 0)
(0.201078 0.000260032 0)
(0.20099 0.000239175 0)
(0.200908 0.000219885 0)
(0.200834 0.000202031 0)
(0.200764 0.000185507 0)
(0.200701 0.00017022 0)
(0.200642 0.000156087 0)
(0.200588 0.00014303 0)
(0.200538 0.000130976 0)
(0.200492 0.000119856 0)
(0.200449 0.000109605 0)
(0.20041 0.000100162 0)
(0.200375 9.14687e-05 0)
(0.200342 8.34705e-05 0)
(0.200311 7.61197e-05 0)
(0.200283 6.93639e-05 0)
(0.200258 6.31672e-05 0)
(0.200235 5.74754e-05 0)
(0.200213 5.22698e-05 0)
(0.200193 4.74854e-05 0)
(0.200175 4.31301e-05 0)
(0.200159 3.91161e-05 0)
(0.200144 3.54891e-05 0)
(0.20013 3.21278e-05 0)
(0.200118 2.9121e-05 0)
(0.200106 2.63135e-05 0)
(0.200096 2.38303e-05 0)
(0.200086 2.14942e-05 0)
(0.200078 1.94502e-05 0)
(0.20007 1.75131e-05 0)
(0.200063 1.58401e-05 0)
(0.200056 1.42353e-05 0)
(0.200051 1.28782e-05 0)
(0.200045 1.15485e-05 0)
(0.20004 1.04582e-05 0)
(0.200036 9.35813e-06 0)
(0.200032 8.49205e-06 0)
(0.200028 7.58154e-06 0)
(0.200025 6.90663e-06 0)
(0.200022 6.15179e-06 0)
(0.20002 5.63825e-06 0)
(0.200017 5.01114e-06 0)
(0.200015 4.6407e-06 0)
(0.200012 4.10724e-06 0)
(0.200011 3.87209e-06 0)
(0.200009 3.4085e-06 0)
(0.200008 3.29219e-06 0)
(0.200006 2.88254e-06 0)
(0.200214 0.00484695 0)
(0.200512 0.00527563 0)
(0.200882 0.00567288 0)
(0.201307 0.00600734 0)
(0.201774 0.00625928 0)
(0.202308 0.0064061 0)
(0.202935 0.00641122 0)
(0.203555 0.00630394 0)
(0.20405 0.00615048 0)
(0.204435 0.00596203 0)
(0.204756 0.00573949 0)
(0.205021 0.00551002 0)
(0.205269 0.00528146 0)
(0.2055 0.00505998 0)
(0.205654 0.00486679 0)
(0.205753 0.0046829 0)
(0.205882 0.00446965 0)
(0.20603 0.00424213 0)
(0.206116 0.00403092 0)
(0.206146 0.00381785 0)
(0.206174 0.00357964 0)
(0.206195 0.00333636 0)
(0.20617 0.00311289 0)
(0.206111 0.00290323 0)
(0.206052 0.00269554 0)
(0.205996 0.00249474 0)
(0.205921 0.00230942 0)
(0.205822 0.00214063 0)
(0.205701 0.00198876 0)
(0.20556 0.0018576 0)
(0.205392 0.0017486 0)
(0.205197 0.0016578 0)
(0.20498 0.00157897 0)
(0.204744 0.00150647 0)
(0.204495 0.00143536 0)
(0.204235 0.00136141 0)
(0.203971 0.00128198 0)
(0.203707 0.0011966 0)
(0.203448 0.00110679 0)
(0.203196 0.00101529 0)
(0.202954 0.000925206 0)
(0.202724 0.000839382 0)
(0.202507 0.000759886 0)
(0.202305 0.000687838 0)
(0.202116 0.000623504 0)
(0.201943 0.000566519 0)
(0.201783 0.000516138 0)
(0.201637 0.000471469 0)
(0.201502 0.000431623 0)
(0.201379 0.000395814 0)
(0.201267 0.000363391 0)
(0.201163 0.000333841 0)
(0.201068 0.000306771 0)
(0.200981 0.000281882 0)
(0.2009 0.000258945 0)
(0.200826 0.000237778 0)
(0.200758 0.000218233 0)
(0.200695 0.000200184 0)
(0.200637 0.00018352 0)
(0.200583 0.00016814 0)
(0.200534 0.000153953 0)
(0.200488 0.000140871 0)
(0.200446 0.000128818 0)
(0.200408 0.000117716 0)
(0.200372 0.0001075 0)
(0.20034 9.81019e-05 0)
(0.20031 8.94655e-05 0)
(0.200282 8.15289e-05 0)
(0.200257 7.42494e-05 0)
(0.200234 6.75635e-05 0)
(0.200212 6.14484e-05 0)
(0.200193 5.58285e-05 0)
(0.200175 5.07118e-05 0)
(0.200159 4.5997e-05 0)
(0.200144 4.17349e-05 0)