/*--------------------------------*- C++ -*----------------------------------*\
| =========                 |                                                 |
| \\      /  F ield         | OpenFOAM: The Open Source CFD Toolbox           |
|  \\    /   O peration     | Version:  2.3.0                                 |
|   \\  /    A nd           | Web:      www.OpenFOAM.org                      |
|    \\/     M anipulation  |                                                 |
\*---------------------------------------------------------------------------*/
FoamFile
{
    version     2.0;
    format      ascii;
    class       surfaceScalarField;
    location    "0.55";
    object      phi;
}
// * * * * * * * * * * * * * * * * * * * * * * * * * * * * * * * * * * * * * //

dimensions      [0 3 -1 0 0 0 0];

internalField   nonuniform List<scalar> 
6068
(
2.82987e-08
2.83257e-09
-3.11313e-08
2.54394e-08
2.85938e-09
2.27442e-08
2.69518e-09
2.0258e-08
2.48615e-09
1.79981e-08
2.25994e-09
1.59753e-08
2.02281e-09
1.41925e-08
1.78278e-09
1.26448e-08
1.54773e-09
1.13203e-08
1.32445e-09
1.02019e-08
1.11842e-09
9.2682e-09
9.33715e-10
8.49549e-09
7.72712e-10
7.8594e-09
6.36091e-10
7.33638e-09
5.23022e-10
6.90485e-09
4.31521e-10
6.54599e-09
3.58868e-10
6.24396e-09
3.02023e-10
5.986e-09
2.57966e-10
5.76206e-09
2.23932e-10
5.56452e-09
1.97549e-10
5.38764e-09
1.7688e-10
5.22722e-09
1.60414e-10
5.08021e-09
1.47013e-10
4.94436e-09
1.35844e-10
4.81805e-09
1.26317e-10
4.70003e-09
1.18021e-10
4.58935e-09
1.10673e-10
4.48527e-09
1.04079e-10
4.38717e-09
9.81058e-11
4.29451e-09
9.26578e-11
4.20684e-09
8.76661e-11
4.12377e-09
8.30772e-11
4.04492e-09
7.88482e-11
3.96998e-09
7.49429e-11
3.89865e-09
7.13297e-11
3.83067e-09
6.79808e-11
3.76579e-09
6.48714e-11
3.70382e-09
6.1979e-11
3.64453e-09
5.92834e-11
3.58777e-09
5.67666e-11
3.53335e-09
5.44122e-11
3.48115e-09
5.22059e-11
3.43101e-09
5.01345e-11
3.38283e-09
4.81865e-11
3.33647e-09
4.63513e-11
3.29186e-09
4.46196e-11
3.24887e-09
4.2983e-11
3.20744e-09
4.14341e-11
3.16747e-09
3.99658e-11
3.1289e-09
3.85721e-11
3.09165e-09
3.72473e-11
3.05567e-09
3.59864e-11
3.02088e-09
3.47846e-11
2.98724e-09
3.36377e-11
2.9547e-09
3.25417e-11
2.92321e-09
3.1493e-11
2.89272e-09
3.04884e-11
2.8632e-09
2.95246e-11
2.8346e-09
2.85988e-11
2.80689e-09
2.77084e-11
2.78004e-09
2.68509e-11
2.75401e-09
2.60239e-11
2.72879e-09
2.52254e-11
2.70434e-09
2.44533e-11
2.68063e-09
2.37057e-11
2.65765e-09
2.29809e-11
2.63537e-09
2.22773e-11
2.61378e-09
2.15933e-11
2.59285e-09
2.09276e-11
2.57257e-09
2.02787e-11
2.55293e-09
1.96455e-11
2.5339e-09
1.90268e-11
2.51548e-09
1.84216e-11
2.49765e-09
1.78289e-11
2.4804e-09
1.72478e-11
2.46372e-09
1.66776e-11
2.44761e-09
1.61176e-11
2.43204e-09
1.55672e-11
2.41701e-09
1.50257e-11
2.40252e-09
1.4493e-11
2.38855e-09
1.39685e-11
2.3751e-09
1.34522e-11
2.36216e-09
1.2944e-11
2.34971e-09
1.2444e-11
2.33776e-09
1.19525e-11
2.32629e-09
1.14702e-11
2.31529e-09
1.09978e-11
2.30475e-09
1.05369e-11
2.29466e-09
1.00893e-11
2.28501e-09
9.65732e-12
2.27576e-09
9.24381e-12
2.26691e-09
8.85202e-12
2.25843e-09
8.48548e-12
2.25028e-09
8.14859e-12
2.24243e-09
7.84824e-12
2.23483e-09
7.59906e-12
2.22739e-09
7.44087e-12
2.21991e-09
7.47562e-12
2.21201e-09
7.90876e-12
1.99549e-11
3.40068e-08
3.12072e-09
-3.42949e-08
3.34179e-08
3.44826e-09
3.25903e-08
3.52281e-09
3.16028e-08
3.47358e-09
3.05126e-08
3.35014e-09
2.93654e-08
3.17e-09
2.81986e-08
2.94964e-09
2.70409e-08
2.70544e-09
2.59137e-08
2.45165e-09
2.48321e-08
2.20003e-09
2.38059e-08
1.95991e-09
2.28406e-08
1.73797e-09
2.19385e-08
1.53824e-09
2.10991e-08
1.36237e-09
2.03205e-08
1.21011e-09
1.95995e-08
1.07987e-09
1.89323e-08
9.69268e-10
1.83146e-08
8.75593e-10
1.77424e-08
7.96142e-10
1.72116e-08
7.28429e-10
1.67181e-08
6.70295e-10
1.62586e-08
6.1994e-10
1.58297e-08
5.7591e-10
1.54285e-08
5.37052e-10
1.50524e-08
5.02465e-10
1.46989e-08
4.71448e-10
1.43662e-08
4.43456e-10
1.40522e-08
4.18057e-10
1.37554e-08
3.9491e-10
1.34743e-08
3.73736e-10
1.32076e-08
3.54306e-10
1.29543e-08
3.36427e-10
1.27132e-08
3.19933e-10
1.24835e-08
3.04682e-10
1.22643e-08
2.90547e-10
1.20548e-08
2.7742e-10
1.18545e-08
2.65203e-10
1.16627e-08
2.53811e-10
1.14788e-08
2.43165e-10
1.13023e-08
2.332e-10
1.11329e-08
2.23853e-10
1.097e-08
2.15071e-10
1.08134e-08
2.06805e-10
1.06625e-08
1.99013e-10
1.05172e-08
1.91655e-10
1.03772e-08
1.84696e-10
1.0242e-08
1.78106e-10
1.01116e-08
1.71856e-10
9.98566e-09
1.6592e-10
9.86396e-09
1.60274e-10
9.74631e-09
1.54898e-10
9.63252e-09
1.49772e-10
9.52243e-09
1.44878e-10
9.41587e-09
1.40199e-10
9.31269e-09
1.35721e-10
9.21275e-09
1.31429e-10
9.11593e-09
1.27311e-10
9.0221e-09
1.23354e-10
8.93115e-09
1.19547e-10
8.84298e-09
1.1588e-10
8.75749e-09
1.12343e-10
8.67458e-09
1.08927e-10
8.59419e-09
1.05624e-10
8.51621e-09
1.02424e-10
8.4406e-09
9.93217e-11
8.36727e-09
9.6309e-11
8.29617e-09
9.33794e-11
8.22723e-09
9.05267e-11
8.16042e-09
8.77451e-11
8.09567e-09
8.50291e-11
8.03294e-09
8.23736e-11
7.97219e-09
7.97736e-11
7.91339e-09
7.72248e-11
7.85649e-09
7.47231e-11
7.80148e-09
7.22644e-11
7.74831e-09
6.98455e-11
7.69696e-09
6.7463e-11
7.64742e-09
6.51141e-11
7.59965e-09
6.27963e-11
7.55363e-09
6.05074e-11
7.50936e-09
5.82458e-11
7.4668e-09
5.601e-11
7.42594e-09
5.37994e-11
7.38677e-09
5.16136e-11
7.34927e-09
4.94532e-11
7.31342e-09
4.73196e-11
7.2792e-09
4.52154e-11
7.2466e-09
4.31442e-11
7.21558e-09
4.11112e-11
7.18611e-09
3.91226e-11
7.15817e-09
3.7186e-11
7.13171e-09
3.53101e-11
7.10669e-09
3.35049e-11
7.08306e-09
3.17841e-11
7.06073e-09
3.01711e-11
7.03961e-09
2.87168e-11
7.01951e-09
2.75501e-11
6.99996e-09
2.70211e-11
6.9787e-09
2.91705e-11
4.94921e-11
3.60986e-08
2.98016e-09
-3.5958e-08
3.61655e-08
3.38134e-09
3.61076e-08
3.58073e-09
3.5926e-08
3.65513e-09
3.56317e-08
3.64442e-09
3.52387e-08
3.56304e-09
3.47639e-08
3.42438e-09
3.42253e-08
3.24408e-09
3.36396e-08
3.03734e-09
3.3022e-08
2.81765e-09
3.23855e-08
2.5964e-09
3.17409e-08
2.38259e-09
3.10966e-08
2.18249e-09
3.04591e-08
1.99986e-09
2.9833e-08
1.83624e-09
2.92214e-08
1.69151e-09
2.86262e-08
1.56443e-09
2.80487e-08
1.45314e-09
2.74893e-08
1.35554e-09
2.69481e-08
1.26955e-09
2.64252e-08
1.19329e-09
2.592e-08
1.12511e-09
2.54322e-08
1.06368e-09
2.49614e-08
1.0079e-09
2.45069e-08
9.56893e-10
2.40684e-08
9.09987e-10
2.36452e-08
8.66641e-10
2.32368e-08
8.26426e-10
2.28428e-08
7.88998e-10
2.24624e-08
7.54076e-10
2.20953e-08
7.21422e-10
2.17409e-08
6.90835e-10
2.13987e-08
6.62138e-10
2.10682e-08
6.35177e-10
2.07489e-08
6.09813e-10
2.04404e-08
5.8592e-10
2.01422e-08
5.63387e-10
1.98539e-08
5.42109e-10
1.95751e-08
5.21994e-10
1.93054e-08
5.02957e-10
1.90443e-08
4.84918e-10
1.87916e-08
4.67806e-10
1.85468e-08
4.51557e-10
1.83097e-08
4.3611e-10
1.80799e-08
4.2141e-10
1.78572e-08
4.07406e-10
1.76413e-08
3.94051e-10
1.74318e-08
3.81303e-10
1.72286e-08
3.69121e-10
1.70315e-08
3.57468e-10
1.684e-08
3.46311e-10
1.66542e-08
3.35617e-10
1.64737e-08
3.25357e-10
1.62984e-08
3.15502e-10
1.61281e-08
3.06027e-10
1.59626e-08
2.96908e-10
1.58018e-08
2.88121e-10
1.56455e-08
2.79646e-10
1.54936e-08
2.71461e-10
1.53459e-08
2.63549e-10
1.52024e-08
2.5589e-10
1.50629e-08
2.48468e-10
1.49272e-08
2.41267e-10
1.47954e-08
2.34272e-10
1.46672e-08
2.27467e-10
1.45427e-08
2.2084e-10
1.44217e-08
2.14377e-10
1.43042e-08
2.08065e-10
1.419e-08
2.01894e-10
1.40792e-08
1.95852e-10
1.39716e-08
1.89928e-10
1.38673e-08
1.84113e-10
1.37661e-08
1.78397e-10
1.36681e-08
1.72772e-10
1.35731e-08
1.67229e-10
1.34812e-08
1.6176e-10
1.33923e-08
1.56359e-10
1.33064e-08
1.51019e-10
1.32234e-08
1.45735e-10
1.31435e-08
1.40501e-10
1.30664e-08
1.35314e-10
1.29922e-08
1.3017e-10
1.2921e-08
1.25067e-10
1.28526e-08
1.20004e-10
1.2787e-08
1.14981e-10
1.27244e-08
1.1e-10
1.26645e-08
1.05064e-10
1.26075e-08
1.00182e-10
1.25532e-08
9.53594e-11
1.25017e-08
9.06086e-11
1.2453e-08
8.59421e-11
1.24069e-08
8.13756e-11
1.23635e-08
7.69285e-11
1.23226e-08
7.26291e-11
1.22843e-08
6.8527e-11
1.22483e-08
6.47264e-11
1.22144e-08
6.14807e-11
1.21819e-08
5.9523e-11
1.21485e-08
6.24851e-11
8.50728e-11
3.76653e-08
2.79656e-09
-3.74817e-08
3.78624e-08
3.18428e-09
3.80232e-08
3.4199e-09
3.81305e-08
3.54788e-09
3.81769e-08
3.598e-09
3.81582e-08
3.58172e-09
3.80743e-08
3.50832e-09
3.79286e-08
3.38976e-09
3.77272e-08
3.23879e-09
3.74773e-08
3.06749e-09
3.71871e-08
2.88664e-09
3.68644e-08
2.70525e-09
3.65167e-08
2.53019e-09
3.61504e-08
2.36612e-09
3.57711e-08
2.21563e-09
3.53829e-08
2.07967e-09
3.49894e-08
1.95797e-09
3.4593e-08
1.84949e-09
3.41958e-08
1.75279e-09
3.3799e-08
1.66627e-09
3.34039e-08
1.58842e-09
3.30112e-08
1.51785e-09
3.26215e-08
1.45338e-09
3.22353e-08
1.39405e-09
3.18532e-08
1.33906e-09
3.14753e-08
1.2878e-09
3.11022e-08
1.23978e-09
3.0734e-08
1.19461e-09
3.0371e-08
1.15198e-09
3.00135e-08
1.11163e-09
2.96615e-08
1.07338e-09
2.93153e-08
1.03704e-09
2.8975e-08
1.00247e-09
2.86406e-08
9.69541e-10
2.83123e-08
9.38137e-10
2.79901e-08
9.08157e-10
2.76739e-08
8.79508e-10
2.73639e-08
8.52109e-10
2.706e-08
8.2588e-10
2.67623e-08
8.00752e-10
2.64705e-08
7.7666e-10
2.61848e-08
7.53544e-10
2.5905e-08
7.31347e-10
2.56311e-08
7.10019e-10
2.5363e-08
6.8951e-10
2.51006e-08
6.69776e-10
2.48439e-08
6.50775e-10
2.45927e-08
6.32468e-10
2.4347e-08
6.14816e-10
2.41067e-08
5.97784e-10
2.38717e-08
5.8134e-10
2.36418e-08
5.65451e-10
2.34171e-08
5.50089e-10
2.31974e-08
5.35223e-10
2.29826e-08
5.20827e-10
2.27726e-08
5.06875e-10
2.25674e-08
4.93341e-10
2.23668e-08
4.80202e-10
2.21709e-08
4.67435e-10
2.19794e-08
4.55017e-10
2.17924e-08
4.42928e-10
2.16097e-08
4.31147e-10
2.14313e-08
4.19653e-10
2.12571e-08
4.08429e-10
2.10872e-08
3.97455e-10
2.09213e-08
3.86714e-10
2.07595e-08
3.76188e-10
2.06017e-08
3.65862e-10
2.04478e-08
3.55719e-10
2.0298e-08
3.45745e-10
2.0152e-08
3.35924e-10
2.00098e-08
3.26243e-10
1.98715e-08
3.16687e-10
1.97371e-08
3.07245e-10
1.96064e-08
2.97905e-10
1.94795e-08
2.88655e-10
1.93564e-08
2.79485e-10
1.9237e-08
2.70385e-10
1.91214e-08
2.61346e-10
1.90095e-08
2.52361e-10
1.89014e-08
2.43423e-10
1.87971e-08
2.34527e-10
1.86965e-08
2.2567e-10
1.85996e-08
2.1685e-10
1.85065e-08
2.08066e-10
1.84172e-08
1.99321e-10
1.83317e-08
1.90622e-10
1.82499e-08
1.81976e-10
1.81718e-08
1.73396e-10
1.80975e-08
1.64897e-10
1.8027e-08
1.56499e-10
1.79601e-08
1.48226e-10
1.78969e-08
1.40111e-10
1.78374e-08
1.322e-10
1.77813e-08
1.24578e-10
1.77286e-08
1.17413e-10
1.7679e-08
1.11093e-10
1.76318e-08
1.06716e-10
1.75858e-08
1.0851e-10
1.28312e-10
3.91915e-08
2.63422e-09
-3.90291e-08
3.93898e-08
2.98594e-09
3.95869e-08
3.22282e-09
3.97663e-08
3.36851e-09
3.99194e-08
3.44488e-09
4.00389e-08
3.46221e-09
4.01194e-08
3.42788e-09
4.0158e-08
3.35108e-09
4.01547e-08
3.2421e-09
4.01112e-08
3.11105e-09
4.00306e-08
2.96722e-09
3.99172e-08
2.81867e-09
3.97755e-08
2.67185e-09
3.96102e-08
2.53146e-09
3.94253e-08
2.40048e-09
3.92246e-08
2.28038e-09
3.90111e-08
2.17152e-09
3.87871e-08
2.07346e-09
3.85546e-08
1.98527e-09
3.83151e-08
1.90579e-09
3.80697e-08
1.83383e-09
3.78193e-08
1.76825e-09
3.75646e-08
1.70805e-09
3.73063e-08
1.65236e-09
3.70449e-08
1.60048e-09
3.67808e-08
1.55185e-09
3.65146e-08
1.50601e-09
3.62466e-08
1.4626e-09
3.59772e-08
1.42133e-09
3.57069e-08
1.38198e-09
3.54359e-08
1.34436e-09
3.51647e-08
1.30832e-09
3.48934e-08
1.27372e-09
3.46225e-08
1.24047e-09
3.43521e-08
1.20847e-09
3.40827e-08
1.17762e-09
3.38143e-08
1.14786e-09
3.35473e-08
1.11913e-09
3.32818e-08
1.09136e-09
3.30181e-08
1.06449e-09
3.27563e-08
1.03848e-09
3.24965e-08
1.01329e-09
3.2239e-08
9.88863e-10
3.19838e-08
9.6517e-10
3.17312e-08
9.42174e-10
3.14811e-08
9.1984e-10
3.12338e-08
8.98137e-10
3.09892e-08
8.77035e-10
3.07475e-08
8.56507e-10
3.05088e-08
8.36526e-10
3.0273e-08
8.17066e-10
3.00404e-08
7.98102e-10
2.98109e-08
7.79611e-10
2.95845e-08
7.61571e-10
2.93614e-08
7.43959e-10
2.91415e-08
7.26753e-10
2.89249e-08
7.09933e-10
2.87116e-08
6.93478e-10
2.85017e-08
6.77368e-10
2.82951e-08
6.61583e-10
2.8092e-08
6.46105e-10
2.78922e-08
6.30913e-10
2.76959e-08
6.1599e-10
2.7503e-08
6.01317e-10
2.73135e-08
5.86875e-10
2.71276e-08
5.72648e-10
2.69452e-08
5.58617e-10
2.67663e-08
5.44766e-10
2.65909e-08
5.31078e-10
2.64191e-08
5.17537e-10
2.62509e-08
5.04126e-10
2.60863e-08
4.9083e-10
2.59254e-08
4.77635e-10
2.57681e-08
4.64525e-10
2.56145e-08
4.51488e-10
2.54647e-08
4.38509e-10
2.53186e-08
4.25577e-10
2.51763e-08
4.12681e-10
2.50378e-08
3.9981e-10
2.49032e-08
3.86954e-10
2.47725e-08
3.74108e-10
2.46458e-08
3.61264e-10
2.45231e-08
3.48419e-10
2.44043e-08
3.3557e-10
2.42897e-08
3.2272e-10
2.41791e-08
3.09871e-10
2.40727e-08
2.97033e-10
2.39705e-08
2.84217e-10
2.38724e-08
2.71439e-10
2.37786e-08
2.58722e-10
2.3689e-08
2.46091e-10
2.36037e-08
2.33583e-10
2.35225e-08
2.21244e-10
2.34456e-08
2.09147e-10
2.33727e-08
1.97412e-10
2.33039e-08
1.8627e-10
2.32388e-08
1.76224e-10
2.31769e-08
1.68569e-10
2.31182e-08
1.67228e-10
1.79958e-10
4.07553e-08
2.4966e-09
-4.06177e-08
4.09323e-08
2.80895e-09
4.11203e-08
3.03487e-09
4.13045e-08
3.18428e-09
4.14774e-08
3.27199e-09
4.16326e-08
3.30697e-09
4.17648e-08
3.2957e-09
4.18702e-08
3.24565e-09
4.1947e-08
3.16534e-09
4.19947e-08
3.06332e-09
4.20144e-08
2.94753e-09
4.20081e-08
2.82502e-09
4.19783e-08
2.7016e-09
4.19281e-08
2.58169e-09
4.18603e-08
2.46827e-09
4.17776e-08
2.3631e-09
4.16822e-08
2.26687e-09
4.15762e-08
2.17953e-09
4.14609e-08
2.10056e-09
4.13375e-08
2.02914e-09
4.1207e-08
1.96433e-09
4.10701e-08
1.90522e-09
4.09272e-08
1.85095e-09
4.07788e-08
1.80076e-09
4.06252e-08
1.75403e-09
4.04668e-08
1.71023e-09
4.03039e-08
1.66892e-09
4.01368e-08
1.62977e-09
3.99656e-08
1.59249e-09
3.97907e-08
1.55687e-09
3.96123e-08
1.52271e-09
3.94308e-08
1.48988e-09
3.92463e-08
1.45824e-09
3.9059e-08
1.4277e-09
3.88693e-08
1.39816e-09
3.86774e-08
1.36954e-09
3.84835e-08
1.34179e-09
3.82878e-08
1.31483e-09
3.80905e-08
1.28861e-09
3.78919e-08
1.26309e-09
3.76922e-08
1.23823e-09
3.74915e-08
1.21398e-09
3.72901e-08
1.19031e-09
3.7088e-08
1.1672e-09
3.68856e-08
1.1446e-09
3.66829e-08
1.1225e-09
3.64802e-08
1.10087e-09
3.62776e-08
1.07968e-09
3.60752e-08
1.05892e-09
3.58731e-08
1.03856e-09
3.56716e-08
1.01858e-09
3.54708e-08
9.98965e-10
3.52707e-08
9.79698e-10
3.50715e-08
9.60759e-10
3.48733e-08
9.42131e-10
3.46763e-08
9.23796e-10
3.44805e-08
9.05738e-10
3.4286e-08
8.8794e-10
3.4093e-08
8.70385e-10
3.39015e-08
8.53057e-10
3.37117e-08
8.35939e-10
3.35236e-08
8.19014e-10
3.33373e-08
8.02267e-10
3.31529e-08
7.85681e-10
3.29706e-08
7.6924e-10
3.27903e-08
7.52926e-10
3.26122e-08
7.36724e-10
3.24363e-08
7.20618e-10
3.22628e-08
7.04592e-10
3.20917e-08
6.88628e-10
3.19231e-08
6.72713e-10
3.17571e-08
6.5683e-10
3.15938e-08
6.40964e-10
3.14332e-08
6.25101e-10
3.12755e-08
6.09226e-10
3.11207e-08
5.93325e-10
3.09689e-08
5.77387e-10
3.08201e-08
5.614e-10
3.06746e-08
5.45352e-10
3.05323e-08
5.29235e-10
3.03934e-08
5.13041e-10
3.02579e-08
4.96765e-10
3.01259e-08
4.80402e-10
2.99975e-08
4.63953e-10
2.98728e-08
4.47421e-10
2.97519e-08
4.30812e-10
2.96348e-08
4.14137e-10
2.95216e-08
3.97413e-10
2.94124e-08
3.8066e-10
2.93072e-08
3.63908e-10
2.92061e-08
3.47193e-10
2.91091e-08
3.30561e-10
2.90163e-08
3.14079e-10
2.89276e-08
2.97842e-10
2.8843e-08
2.82007e-10
2.87624e-08
2.66855e-10
2.86857e-08
2.52953e-10
2.86126e-08
2.41573e-10
2.85442e-08
2.35713e-10
2.38536e-10
4.237e-08
2.37844e-09
-4.22518e-08
4.25252e-08
2.65373e-09
4.26959e-08
2.8642e-09
4.28687e-08
3.01148e-09
4.30362e-08
3.10442e-09
4.31931e-08
3.15014e-09
4.33345e-08
3.15426e-09
4.34571e-08
3.12301e-09
4.3559e-08
3.06349e-09
4.36393e-08
2.98302e-09
4.36984e-08
2.88847e-09
4.37373e-08
2.78604e-09
4.3758e-08
2.68093e-09
4.37624e-08
2.57724e-09
4.37528e-08
2.47788e-09
4.37312e-08
2.3847e-09
4.36994e-08
2.29865e-09
4.3659e-08
2.21997e-09
4.36111e-08
2.14844e-09
4.35568e-08
2.08351e-09
4.34966e-08
2.02449e-09
4.34312e-08
1.97066e-09
4.33608e-08
1.9213e-09
4.32858e-08
1.87576e-09
4.32064e-08
1.83347e-09
4.31226e-08
1.79396e-09
4.30348e-08
1.75681e-09
4.29428e-08
1.7217e-09
4.2847e-08
1.68835e-09
4.27473e-08
1.65655e-09
4.26439e-08
1.6261e-09
4.25369e-08
1.59686e-09
4.24265e-08
1.5687e-09
4.23127e-08
1.54151e-09
4.21956e-08
1.5152e-09
4.20755e-08
1.48968e-09
4.19524e-08
1.46489e-09
4.18264e-08
1.44078e-09
4.16978e-08
1.41727e-09
4.15665e-08
1.39433e-09
4.14328e-08
1.37191e-09
4.12968e-08
1.34998e-09
4.11587e-08
1.3285e-09
4.10184e-08
1.30743e-09
4.08763e-08
1.28675e-09
4.07323e-08
1.26644e-09
4.05867e-08
1.24647e-09
4.04396e-08
1.22681e-09
4.02911e-08
1.20745e-09
4.01412e-08
1.18837e-09
3.99903e-08
1.16954e-09
3.98383e-08
1.15096e-09
3.96854e-08
1.1326e-09
3.95317e-08
1.11445e-09
3.93773e-08
1.09648e-09
3.92224e-08
1.07869e-09
3.90671e-08
1.06106e-09
3.89115e-08
1.04357e-09
3.87557e-08
1.02621e-09
3.85998e-08
1.00896e-09
3.84439e-08
9.9181e-10
3.82882e-08
9.74737e-10
3.81327e-08
9.57728e-10
3.79776e-08
9.40767e-10
3.7823e-08
9.23838e-10
3.7669e-08
9.06924e-10
3.75157e-08
8.90011e-10
3.73633e-08
8.7308e-10
3.72117e-08
8.56117e-10
3.70613e-08
8.39104e-10
3.6912e-08
8.22026e-10
3.67639e-08
8.04866e-10
3.66173e-08
7.8761e-10
3.64721e-08
7.70241e-10
3.63286e-08
7.52744e-10
3.61868e-08
7.35107e-10
3.60469e-08
7.17316e-10
3.5909e-08
6.99357e-10
3.57731e-08
6.81222e-10
3.56394e-08
6.62899e-10
3.55081e-08
6.44382e-10
3.53792e-08
6.25665e-10
3.52528e-08
6.06746e-10
3.51292e-08
5.87626e-10
3.50083e-08
5.68309e-10
3.48903e-08
5.48805e-10
3.47753e-08
5.29128e-10
3.46634e-08
5.09298e-10
3.45547e-08
4.89343e-10
3.44493e-08
4.69298e-10
3.43473e-08
4.49208e-10
3.42487e-08
4.29134e-10
3.41537e-08
4.09158e-10
3.40621e-08
3.89399e-10
3.39741e-08
3.70043e-10
3.38895e-08
3.51403e-10
3.38084e-08
3.34044e-10
3.3731e-08
3.19034e-10
3.36585e-08
3.08153e-10
3.00391e-10
4.40384e-08
2.27498e-09
-4.39349e-08
4.41749e-08
2.51724e-09
4.43283e-08
2.71075e-09
4.4487e-08
2.85282e-09
4.46436e-08
2.9478e-09
4.4793e-08
3.00078e-09
4.49309e-08
3.01637e-09
4.50541e-08
2.99974e-09
4.51608e-08
2.95678e-09
4.52502e-08
2.89369e-09
4.53222e-08
2.81643e-09
4.53778e-08
2.73045e-09
4.54183e-08
2.64041e-09
4.54455e-08
2.55007e-09
4.54611e-08
2.46226e-09
4.5467e-08
2.37886e-09
4.54646e-08
2.301e-09
4.54555e-08
2.22914e-09
4.54406e-08
2.16331e-09
4.54209e-08
2.10322e-09
4.5397e-08
2.0484e-09
4.53693e-08
1.99829e-09
4.53383e-08
1.95232e-09
4.53041e-08
1.90995e-09
4.52669e-08
1.87069e-09
4.52268e-08
1.8341e-09
4.51837e-08
1.79982e-09
4.51379e-08
1.76753e-09
4.50893e-08
1.73699e-09
4.50379e-08
1.70796e-09
4.49837e-08
1.68027e-09
4.49268e-08
1.65377e-09
4.48672e-08
1.62832e-09
4.48049e-08
1.60381e-09
4.47399e-08
1.58015e-09
4.46723e-08
1.55726e-09
4.46022e-08
1.53506e-09
4.45294e-08
1.51349e-09
4.44542e-08
1.49248e-09
4.43766e-08
1.472e-09
4.42965e-08
1.45199e-09
4.42141e-08
1.43241e-09
4.41293e-08
1.41323e-09
4.40424e-08
1.3944e-09
4.39532e-08
1.37591e-09
4.38619e-08
1.35772e-09
4.37686e-08
1.3398e-09
4.36733e-08
1.32213e-09
4.3576e-08
1.30468e-09
4.3477e-08
1.28745e-09
4.33761e-08
1.27039e-09
4.32736e-08
1.25351e-09
4.31694e-08
1.23677e-09
4.30637e-08
1.22015e-09
4.29565e-08
1.20365e-09
4.2848e-08
1.18724e-09
4.27381e-08
1.1709e-09
4.26271e-08
1.15462e-09
4.25149e-08
1.13838e-09
4.24017e-08
1.12216e-09
4.22876e-08
1.10595e-09
4.21726e-08
1.08973e-09
4.20568e-08
1.07348e-09
4.19404e-08
1.05718e-09
4.18235e-08
1.04081e-09
4.1706e-08
1.02437e-09
4.15882e-08
1.00782e-09
4.14701e-08
9.91151e-10
4.13519e-08
9.74347e-10
4.12336e-08
9.57388e-10
4.11154e-08
9.40256e-10
4.09973e-08
9.22933e-10
4.08795e-08
9.05402e-10
4.07621e-08
8.87645e-10
4.06452e-08
8.69647e-10
4.05289e-08
8.51391e-10
4.04134e-08
8.32863e-10
4.02987e-08
8.14049e-10
4.0185e-08
7.94936e-10
4.00724e-08
7.75515e-10
3.9961e-08
7.55777e-10
3.98509e-08
7.35717e-10
3.97423e-08
7.15331e-10
3.96354e-08
6.94623e-10
3.95301e-08
6.73596e-10
3.94266e-08
6.52262e-10
3.93251e-08
6.30639e-10
3.92256e-08
6.0875e-10
3.91284e-08
5.86626e-10
3.90333e-08
5.64311e-10
3.89407e-08
5.41858e-10
3.88505e-08
5.19339e-10
3.87628e-08
4.9685e-10
3.86777e-08
4.7453e-10
3.85951e-08
4.52584e-10
3.85152e-08
4.31333e-10
3.8438e-08
4.11287e-10
3.83638e-08
3.9321e-10
3.82942e-08
3.77707e-10
3.60858e-10
4.57625e-08
2.18286e-09
-4.56704e-08
4.58834e-08
2.39639e-09
4.60212e-08
2.57293e-09
4.61661e-08
2.70797e-09
4.6311e-08
2.80284e-09
4.64511e-08
2.86073e-09
4.65822e-08
2.88525e-09
4.67014e-08
2.88056e-09
4.68067e-08
2.85148e-09
4.68971e-08
2.80321e-09
4.69727e-08
2.74087e-09
4.7034e-08
2.66919e-09
4.7082e-08
2.59234e-09
4.71183e-08
2.51377e-09
4.71445e-08
2.43614e-09
4.7162e-08
2.36135e-09
4.71723e-08
2.29063e-09
4.71768e-08
2.22464e-09
4.71766e-08
2.16359e-09
4.71724e-08
2.10742e-09
4.71649e-08
2.05583e-09
4.71548e-08
2.00846e-09
4.71422e-08
1.96485e-09
4.71276e-08
1.92459e-09
4.7111e-08
1.88726e-09
4.70926e-08
1.85249e-09
4.70725e-08
1.81995e-09
4.70507e-08
1.78937e-09
4.70272e-08
1.7605e-09
4.7002e-08
1.73315e-09
4.69751e-08
1.70713e-09
4.69466e-08
1.6823e-09
4.69164e-08
1.65853e-09
4.68845e-08
1.63571e-09
4.68509e-08
1.61376e-09
4.68156e-08
1.59257e-09
4.67785e-08
1.57209e-09
4.67398e-08
1.55224e-09
4.66993e-08
1.53297e-09
4.66571e-08
1.51422e-09
4.66131e-08
1.49594e-09
4.65674e-08
1.4781e-09
4.652e-08
1.46064e-09
4.64709e-08
1.44355e-09
4.642e-08
1.42677e-09
4.63675e-08
1.41029e-09
4.63132e-08
1.39407e-09
4.62572e-08
1.37808e-09
4.61996e-08
1.3623e-09
4.61403e-08
1.34671e-09
4.60795e-08
1.33128e-09
4.6017e-08
1.31599e-09
4.59529e-08
1.30082e-09
4.58873e-08
1.28574e-09
4.58202e-08
1.27074e-09
4.57517e-08
1.2558e-09
4.56817e-08
1.24089e-09
4.56103e-08
1.226e-09
4.55376e-08
1.2111e-09
4.54636e-08
1.19618e-09
4.53883e-08
1.18122e-09
4.53118e-08
1.16619e-09
4.52342e-08
1.15107e-09
4.51556e-08
1.13585e-09
4.50759e-08
1.1205e-09
4.49952e-08
1.10501e-09
4.49137e-08
1.08935e-09
4.48313e-08
1.0735e-09
4.47483e-08
1.05744e-09
4.46645e-08
1.04115e-09
4.45801e-08
1.02461e-09
4.44953e-08
1.00779e-09
4.441e-08
9.90688e-10
4.43244e-08
9.73269e-10
4.42385e-08
9.55519e-10
4.41525e-08
9.3742e-10
4.40664e-08
9.18953e-10
4.39803e-08
9.00103e-10
4.38944e-08
8.80855e-10
4.38087e-08
8.61198e-10
4.37234e-08
8.41121e-10
4.36385e-08
8.20617e-10
4.35541e-08
7.99684e-10
4.34704e-08
7.78321e-10
4.33875e-08
7.56535e-10
4.33054e-08
7.34338e-10
4.32243e-08
7.11747e-10
4.31443e-08
6.8879e-10
4.30654e-08
6.65501e-10
4.29878e-08
6.41928e-10
4.29115e-08
6.18131e-10
4.28366e-08
5.94192e-10
4.27633e-08
5.7022e-10
4.26914e-08
5.46364e-10
4.26212e-08
5.22839e-10
4.25526e-08
4.99954e-10
4.24857e-08
4.78134e-10
4.24211e-08
4.5783e-10
4.236e-08
4.38772e-10
4.15756e-10
4.75445e-08
2.0997e-09
-4.74614e-08
4.76524e-08
2.28852e-09
4.77764e-08
2.44892e-09
4.79084e-08
2.57598e-09
4.80421e-08
2.66916e-09
4.81726e-08
2.73016e-09
4.82963e-08
2.76159e-09
4.84102e-08
2.76671e-09
4.85122e-08
2.74943e-09
4.86014e-08
2.71403e-09
4.86774e-08
2.66485e-09
4.87406e-08
2.60598e-09
4.87919e-08
2.54109e-09
4.88323e-08
2.4733e-09
4.88634e-08
2.40511e-09
4.88864e-08
2.33836e-09
4.89026e-08
2.27436e-09
4.89134e-08
2.21387e-09
4.89197e-08
2.15729e-09
4.89224e-08
2.10472e-09
4.89222e-08
2.05604e-09
4.89196e-08
2.01102e-09
4.89151e-08
1.96935e-09
4.8909e-08
1.93071e-09
4.89015e-08
1.89478e-09
4.88927e-08
1.86124e-09
4.88829e-08
1.82981e-09
4.8872e-08
1.80027e-09
4.88601e-08
1.77238e-09
4.88473e-08
1.74597e-09
4.88335e-08
1.72087e-09
4.88189e-08
1.69695e-09
4.88033e-08
1.67409e-09
4.87868e-08
1.65218e-09
4.87695e-08
1.63114e-09
4.87512e-08
1.61088e-09
4.87319e-08
1.59133e-09
4.87117e-08
1.57243e-09
4.86906e-08
1.55412e-09
4.86684e-08
1.53635e-09
4.86453e-08
1.51907e-09
4.86212e-08
1.50223e-09
4.8596e-08
1.48581e-09
4.85698e-08
1.46975e-09
4.85425e-08
1.45404e-09
4.85142e-08
1.43863e-09
4.84848e-08
1.42349e-09
4.84543e-08
1.4086e-09
4.84226e-08
1.39393e-09
4.83899e-08
1.37946e-09
4.8356e-08
1.36515e-09
4.8321e-08
1.35099e-09
4.82849e-08
1.33695e-09
4.82476e-08
1.32301e-09
4.82092e-08
1.30915e-09
4.81697e-08
1.29533e-09
4.8129e-08
1.28155e-09
4.80872e-08
1.26778e-09
4.80444e-08
1.25399e-09
4.80004e-08
1.24017e-09
4.79553e-08
1.22629e-09
4.79092e-08
1.21232e-09
4.7862e-08
1.19825e-09
4.78138e-08
1.18405e-09
4.77646e-08
1.1697e-09
4.77144e-08
1.15518e-09
4.76633e-08
1.14045e-09
4.76113e-08
1.12551e-09
4.75584e-08
1.11032e-09
4.75047e-08
1.09485e-09
4.74502e-08
1.07909e-09
4.7395e-08
1.06302e-09
4.73391e-08
1.0466e-09
4.72826e-08
1.02982e-09
4.72254e-08
1.01265e-09
4.71678e-08
9.95074e-10
4.71097e-08
9.77071e-10
4.70511e-08
9.58623e-10
4.69923e-08
9.39711e-10
4.69332e-08
9.20322e-10
4.68738e-08
9.00443e-10
4.68144e-08
8.80066e-10
4.67549e-08
8.59187e-10
4.66954e-08
8.37804e-10
4.6636e-08
8.15923e-10
4.65768e-08
7.93556e-10
4.65178e-08
7.70722e-10
4.64592e-08
7.47448e-10
4.64009e-08
7.23773e-10
4.63431e-08
6.99746e-10
4.62858e-08
6.75435e-10
4.6229e-08
6.50926e-10
4.61729e-08
6.26336e-10
4.61175e-08
6.01822e-10
4.60627e-08
5.776e-10
4.60087e-08
5.53951e-10
4.59556e-08
5.31211e-10
4.59039e-08
5.09586e-10
4.58543e-08
4.88334e-10
4.6242e-10
4.93868e-08
2.02386e-09
-4.93109e-08
4.94837e-08
2.19154e-09
4.95956e-08
2.33705e-09
4.97158e-08
2.45577e-09
4.98389e-08
2.54615e-09
4.99602e-08
2.60879e-09
5.00764e-08
2.64543e-09
5.01845e-08
2.65857e-09
5.02827e-08
2.65128e-09
5.03697e-08
2.62705e-09
5.0445e-08
2.58952e-09
5.05088e-08
2.54217e-09
5.05617e-08
2.48821e-09
5.06046e-08
2.43043e-09
5.06385e-08
2.37113e-09
5.06648e-08
2.31209e-09
5.06846e-08
2.25461e-09
5.06989e-08
2.19954e-09
5.07088e-08
2.1474e-09
5.07151e-08
2.09843e-09
5.07185e-08
2.05265e-09
5.07195e-08
2.00996e-09
5.07187e-08
1.97017e-09
5.07164e-08
1.93306e-09
5.07128e-08
1.89837e-09
5.07081e-08
1.86588e-09
5.07026e-08
1.83534e-09
5.06963e-08
1.80655e-09
5.06894e-08
1.77934e-09
5.06818e-08
1.75353e-09
5.06737e-08
1.72898e-09
5.0665e-08
1.70558e-09
5.06559e-08
1.6832e-09
5.06464e-08
1.66176e-09
5.06363e-08
1.64117e-09
5.06259e-08
1.62135e-09
5.0615e-08
1.60224e-09
5.06036e-08
1.58378e-09
5.05918e-08
1.56591e-09
5.05796e-08
1.54859e-09
5.05669e-08
1.53177e-09
5.05537e-08
1.51541e-09
5.054e-08
1.49946e-09
5.05259e-08
1.4839e-09
5.05112e-08
1.4687e-09
5.0496e-08
1.45381e-09
5.04803e-08
1.43922e-09
5.0464e-08
1.42489e-09
5.04471e-08
1.4108e-09
5.04297e-08
1.39691e-09
5.04116e-08
1.38321e-09
5.03929e-08
1.36968e-09
5.03736e-08
1.35628e-09
5.03536e-08
1.34299e-09
5.0333e-08
1.32979e-09
5.03117e-08
1.31665e-09
5.02897e-08
1.30356e-09
5.0267e-08
1.29049e-09
5.02435e-08
1.27741e-09
5.02194e-08
1.2643e-09
5.01946e-08
1.25114e-09
5.0169e-08
1.2379e-09
5.01427e-08
1.22456e-09
5.01156e-08
1.21109e-09
5.00879e-08
1.19747e-09
5.00594e-08
1.18367e-09
5.00302e-08
1.16967e-09
5.00002e-08
1.15543e-09
4.99696e-08
1.14094e-09
4.99383e-08
1.12617e-09
4.99063e-08
1.11109e-09
4.98736e-08
1.09567e-09
4.98403e-08
1.0799e-09
4.98064e-08
1.06374e-09
4.97719e-08
1.04717e-09
4.97368e-08
1.03017e-09
4.97011e-08
1.01272e-09
4.9665e-08
9.94784e-10
4.96283e-08
9.76358e-10
4.95912e-08
9.57421e-10
4.95537e-08
9.37959e-10
4.95158e-08
9.17962e-10
4.94776e-08
8.97424e-10
4.9439e-08
8.76344e-10
4.94002e-08
8.54727e-10
4.93612e-08
8.32582e-10
4.9322e-08
8.09931e-10
4.92827e-08
7.86801e-10
4.92432e-08
7.63233e-10
4.92037e-08
7.39278e-10
4.91641e-08
7.15008e-10
4.91245e-08
6.90513e-10
4.90849e-08
6.65916e-10
4.90454e-08
6.41375e-10
4.90059e-08
6.17097e-10
4.89665e-08
5.9334e-10
4.89273e-08
5.70359e-10
4.88887e-08
5.48214e-10
4.8851e-08
5.26068e-10
4.99994e-10
5.12917e-08
1.95417e-09
-5.1222e-08
5.13795e-08
2.10375e-09
5.14807e-08
2.23581e-09
5.15903e-08
2.34624e-09
5.17033e-08
2.4331e-09
5.18159e-08
2.49623e-09
5.19246e-08
2.53667e-09
5.20269e-08
2.55624e-09
5.21209e-08
2.55733e-09
5.22052e-08
2.54274e-09
5.22793e-08
2.51546e-09
5.2343e-08
2.47844e-09
5.23968e-08
2.43445e-09
5.24412e-08
2.38596e-09
5.24773e-08
2.33505e-09
5.2506e-08
2.2834e-09
5.25283e-08
2.23228e-09
5.25453e-08
2.1826e-09
5.25577e-08
2.13495e-09
5.25665e-08
2.08966e-09
5.25723e-08
2.0469e-09
5.25756e-08
2.00665e-09
5.25769e-08
1.96884e-09
5.25766e-08
1.93334e-09
5.2575e-08
1.89995e-09
5.25724e-08
1.86852e-09
5.25689e-08
1.83886e-09
5.25646e-08
1.81079e-09
5.25598e-08
1.78418e-09
5.25544e-08
1.75888e-09
5.25487e-08
1.73477e-09
5.25425e-08
1.71173e-09
5.2536e-08
1.68967e-09
5.25293e-08
1.66851e-09
5.25223e-08
1.64816e-09
5.25151e-08
1.62856e-09
5.25077e-08
1.60965e-09
5.25001e-08
1.59138e-09
5.24923e-08
1.57368e-09
5.24844e-08
1.55653e-09
5.24763e-08
1.53987e-09
5.2468e-08
1.52366e-09
5.24596e-08
1.50788e-09
5.2451e-08
1.49249e-09
5.24423e-08
1.47745e-09
5.24333e-08
1.46275e-09
5.24242e-08
1.44834e-09
5.24149e-08
1.4342e-09
5.24054e-08
1.42032e-09
5.23956e-08
1.40665e-09
5.23857e-08
1.39319e-09
5.23754e-08
1.37989e-09
5.2365e-08
1.36675e-09
5.23542e-08
1.35373e-09
5.23432e-08
1.34082e-09
5.23319e-08
1.32798e-09
5.23202e-08
1.3152e-09
5.23083e-08
1.30246e-09
5.2296e-08
1.28972e-09
5.22833e-08
1.27696e-09
5.22703e-08
1.26417e-09
5.22569e-08
1.25131e-09
5.22431e-08
1.23835e-09
5.22289e-08
1.22529e-09
5.22143e-08
1.21207e-09
5.21992e-08
1.19869e-09
5.21838e-08
1.18512e-09
5.21679e-08
1.17132e-09
5.21516e-08
1.15727e-09
5.21348e-08
1.14294e-09
5.21176e-08
1.12831e-09
5.20999e-08
1.11335e-09
5.20818e-08
1.09803e-09
5.20632e-08
1.08232e-09
5.20442e-08
1.06621e-09
5.20247e-08
1.04966e-09
5.20047e-08
1.03265e-09
5.19844e-08
1.01516e-09
5.19636e-08
9.97169e-10
5.19423e-08
9.78661e-10
5.19207e-08
9.5962e-10
5.18986e-08
9.40037e-10
5.18761e-08
9.19903e-10
5.18532e-08
8.99217e-10
5.183e-08
8.77983e-10
5.18063e-08
8.56214e-10
5.17824e-08
8.33929e-10
5.1758e-08
8.11157e-10
5.17333e-08
7.87939e-10
5.17082e-08
7.6433e-10
5.16828e-08
7.40404e-10
5.16571e-08
7.16255e-10
5.1631e-08
6.92006e-10
5.16046e-08
6.67815e-10
5.15778e-08
6.4388e-10
5.15507e-08
6.20431e-10
5.15234e-08
5.97676e-10
5.1496e-08
5.75622e-10
5.14684e-08
5.53592e-10
5.2912e-10
5.3262e-08
1.88976e-09
-5.31976e-08
5.33419e-08
2.02385e-09
5.34338e-08
2.14388e-09
5.35336e-08
2.24639e-09
5.36374e-08
2.32931e-09
5.37416e-08
2.39205e-09
5.38432e-08
2.43511e-09
5.39397e-08
2.45975e-09
5.40292e-08
2.46779e-09
5.41105e-08
2.46143e-09
5.41829e-08
2.44311e-09
5.4246e-08
2.41529e-09
5.43001e-08
2.38034e-09
5.43457e-08
2.34041e-09
5.43833e-08
2.29737e-09
5.4414e-08
2.25277e-09
5.44384e-08
2.20783e-09
5.44576e-08
2.16347e-09
5.44722e-08
2.12033e-09
5.4483e-08
2.07883e-09
5.44907e-08
2.0392e-09
5.44958e-08
2.00154e-09
5.44988e-08
1.96586e-09
5.45e-08
1.93209e-09
5.44999e-08
1.90013e-09