/*--------------------------------*- C++ -*----------------------------------*\
| =========                 |                                                 |
| \\      /  F ield         | OpenFOAM: The Open Source CFD Toolbox           |
|  \\    /   O peration     | Version:  2.3.0                                 |
|   \\  /    A nd           | Web:      www.OpenFOAM.org                      |
|    \\/     M anipulation  |                                                 |
\*---------------------------------------------------------------------------*/
FoamFile
{
    version     2.0;
    format      ascii;
    class       volVectorField;
    location    "0.55";
    object      U;
}
// * * * * * * * * * * * * * * * * * * * * * * * * * * * * * * * * * * * * * //

dimensions      [0 1 -1 0 0 0 0];

internalField   nonuniform List<vector> 
3105
(
(0.171532 0.0058453 0)
(0.154907 0.00598842 0)
(0.139086 0.00560984 0)
(0.124081 0.00502384 0)
(0.110272 0.00436647 0)
(0.097855 0.00369679 0)
(0.0868577 0.00305245 0)
(0.0772491 0.00245965 0)
(0.0689727 0.00193462 0)
(0.0619436 0.00148574 0)
(0.0560483 0.001115 0)
(0.0511535 0.000819087 0)
(0.0471171 0.000590678 0)
(0.0437987 0.000420005 0)
(0.041067 0.000296443 0)
(0.038805 0.000209737 0)
(0.0369128 0.000150772 0)
(0.0353083 0.000111927 0)
(0.0339262 8.71357e-05 0)
(0.032716 7.17752e-05 0)
(0.0316398 6.24647e-05 0)
(0.0306693 5.6838e-05 0)
(0.029784 5.3315e-05 0)
(0.0289688 5.0895e-05 0)
(0.0282129 4.89833e-05 0)
(0.0275081 4.72548e-05 0)
(0.0268481 4.55531e-05 0)
(0.0262283 4.38202e-05 0)
(0.0256446 4.20501e-05 0)
(0.0250938 4.02609e-05 0)
(0.0245731 3.84778e-05 0)
(0.0240801 3.67254e-05 0)
(0.0236124 3.50232e-05 0)
(0.0231682 3.33854e-05 0)
(0.0227457 3.18208e-05 0)
(0.0223433 3.03339e-05 0)
(0.0219596 2.89259e-05 0)
(0.0215931 2.75958e-05 0)
(0.0212428 2.6341e-05 0)
(0.0209075 2.51581e-05 0)
(0.0205863 2.40431e-05 0)
(0.0202783 2.29919e-05 0)
(0.0199826 2.20004e-05 0)
(0.0196985 2.10645e-05 0)
(0.0194253 2.01805e-05 0)
(0.0191624 1.93447e-05 0)
(0.0189093 1.85539e-05 0)
(0.0186653 1.7805e-05 0)
(0.0184301 1.7095e-05 0)
(0.0182031 1.64213e-05 0)
(0.017984 1.57815e-05 0)
(0.0177723 1.51732e-05 0)
(0.0175678 1.45944e-05 0)
(0.0173701 1.40432e-05 0)
(0.0171788 1.35177e-05 0)
(0.0169937 1.30162e-05 0)
(0.0168146 1.25373e-05 0)
(0.0166411 1.20794e-05 0)
(0.0164731 1.16412e-05 0)
(0.0163104 1.12215e-05 0)
(0.0161527 1.08191e-05 0)
(0.0159998 1.04329e-05 0)
(0.0158517 1.0062e-05 0)
(0.0157081 9.70535e-06 0)
(0.0155689 9.36219e-06 0)
(0.0154339 9.03169e-06 0)
(0.0153031 8.71311e-06 0)
(0.0151763 8.40576e-06 0)
(0.0150534 8.10903e-06 0)
(0.0149343 7.82231e-06 0)
(0.0148189 7.54512e-06 0)
(0.0147071 7.27693e-06 0)
(0.0145988 7.01733e-06 0)
(0.014494 6.76592e-06 0)
(0.0143926 6.52238e-06 0)
(0.0142945 6.28638e-06 0)
(0.0141997 6.05767e-06 0)
(0.0141081 5.83605e-06 0)
(0.0140197 5.62133e-06 0)
(0.0139344 5.41338e-06 0)
(0.0138521 5.21215e-06 0)
(0.0137728 5.01756e-06 0)
(0.0136965 4.82965e-06 0)
(0.0136231 4.64852e-06 0)
(0.0135526 4.47434e-06 0)
(0.0134849 4.30746e-06 0)
(0.0134199 4.14842e-06 0)
(0.0133577 3.99805e-06 0)
(0.013298 3.85748e-06 0)
(0.013241 3.7282e-06 0)
(0.0131863 3.61197e-06 0)
(0.013134 3.51082e-06 0)
(0.0130839 3.42673e-06 0)
(0.0130359 3.36186e-06 0)
(0.0129896 3.31917e-06 0)
(0.012945 3.3052e-06 0)
(0.0129017 3.34052e-06 0)
(0.0128587 3.46838e-06 0)
(0.012819 3.50674e-06 0)
(0.0127211 1.43062e-05 0)
(0.190558 0.00926491 0)
(0.188186 0.00988391 0)
(0.184297 0.00972183 0)
(0.17917 0.00924348 0)
(0.173273 0.00861803 0)
(0.166962 0.00790081 0)
(0.160467 0.00713016 0)
(0.153957 0.00634126 0)
(0.147565 0.00556413 0)
(0.141393 0.00482343 0)
(0.135509 0.00413845 0)
(0.129954 0.00352253 0)
(0.124748 0.00298286 0)
(0.119895 0.00252088 0)
(0.115387 0.00213332 0)
(0.111211 0.00181353 0)
(0.107346 0.00155294 0)
(0.103769 0.00134223 0)
(0.100457 0.00117234 0)
(0.0973871 0.00103505 0)
(0.0945366 0.000923356 0)
(0.0918848 0.000831498 0)
(0.0894124 0.000754942 0)
(0.0871023 0.000690201 0)
(0.0849388 0.000634654 0)
(0.0829082 0.000586352 0)
(0.0809981 0.00054386 0)
(0.0791976 0.000506113 0)
(0.0774972 0.000472317 0)
(0.0758882 0.000441868 0)
(0.0743631 0.000414294 0)
(0.0729151 0.000389222 0)
(0.0715382 0.000366343 0)
(0.0702269 0.000345402 0)
(0.0689765 0.000326181 0)
(0.0677826 0.000308493 0)
(0.0666412 0.000292175 0)
(0.0655487 0.000277084 0)
(0.0645021 0.000263096 0)
(0.0634984 0.000250103 0)
(0.0625348 0.000238007 0)
(0.061609 0.000226725 0)
(0.0607188 0.00021618 0)
(0.059862 0.000206307 0)
(0.0590369 0.000197047 0)
(0.0582418 0.000188347 0)
(0.057475 0.000180161 0)
(0.0567351 0.000172447 0)
(0.0560207 0.000165166 0)
(0.0553306 0.000158287 0)
(0.0546636 0.000151777 0)
(0.0540187 0.000145609 0)
(0.0533948 0.000139757 0)
(0.0527911 0.000134199 0)
(0.0522066 0.000128914 0)
(0.0516406 0.000123882 0)
(0.0510922 0.000119086 0)
(0.0505609 0.000114509 0)
(0.050046 0.000110136 0)
(0.0495468 0.000105954 0)
(0.0490628 0.000101949 0)
(0.0485935 9.81093e-05 0)
(0.0481384 9.44244e-05 0)
(0.047697 9.08839e-05 0)
(0.0472689 8.74782e-05 0)
(0.0468538 8.41985e-05 0)
(0.0464513 8.10368e-05 0)
(0.046061 7.79854e-05 0)
(0.0456826 7.50372e-05 0)
(0.0453159 7.21858e-05 0)
(0.0449606 6.94252e-05 0)
(0.0446164 6.67497e-05 0)
(0.0442832 6.41542e-05 0)
(0.0439607 6.16341e-05 0)
(0.0436488 5.91851e-05 0)
(0.0433472 5.68032e-05 0)
(0.0430559 5.44849e-05 0)
(0.0427747 5.22271e-05 0)
(0.0425034 5.00271e-05 0)
(0.042242 4.78825e-05 0)
(0.0419903 4.57914e-05 0)
(0.0417483 4.37521e-05 0)
(0.0415158 4.17637e-05 0)
(0.0412927 3.98257e-05 0)
(0.041079 3.7938e-05 0)
(0.0408746 3.61018e-05 0)
(0.0406793 3.43189e-05 0)
(0.040493 3.25924e-05 0)
(0.0403157 3.09267e-05 0)
(0.0401471 2.93273e-05 0)
(0.0399871 2.78006e-05 0)
(0.0398355 2.63538e-05 0)
(0.0396921 2.49951e-05 0)
(0.0395565 2.37351e-05 0)
(0.0394285 2.2592e-05 0)
(0.0393075 2.16078e-05 0)
(0.0391929 2.08959e-05 0)
(0.0390828 2.07627e-05 0)
(0.0389804 2.26749e-05 0)
(0.0387942 4.80487e-05 0)
(0.193534 0.00893188 0)
(0.194277 0.0099556 0)
(0.194427 0.010341 0)
(0.193803 0.0103675 0)
(0.192491 0.0101571 0)
(0.19061 0.00975556 0)
(0.188254 0.00920699 0)
(0.185509 0.00856025 0)
(0.182467 0.00786103 0)
(0.179215 0.00714825 0)
(0.175829 0.00645323 0)
(0.172374 0.00579906 0)
(0.168899 0.00520055 0)
(0.165447 0.00466498 0)
(0.162044 0.00419355 0)
(0.158713 0.00378311 0)
(0.155467 0.00342785 0)
(0.152313 0.00312079 0)
(0.149256 0.00285476 0)
(0.146297 0.00262311 0)
(0.143437 0.00242004 0)
(0.140674 0.0022407 0)
(0.138006 0.00208115 0)
(0.13543 0.00193821 0)
(0.132943 0.0018094 0)
(0.130544 0.00169271 0)
(0.128228 0.00158656 0)
(0.125994 0.00148965 0)
(0.123838 0.00140092 0)
(0.121757 0.00131947 0)
(0.119749 0.00124453 0)
(0.11781 0.00117546 0)
(0.115939 0.00111166 0)
(0.114131 0.00105264 0)
(0.112385 0.000997934 0)
(0.110699 0.000947144 0)
(0.109069 0.000899911 0)
(0.107493 0.000855911 0)
(0.105969 0.000814858 0)
(0.104495 0.000776492 0)
(0.103069 0.000740582 0)
(0.101688 0.00070692 0)
(0.100352 0.000675317 0)
(0.0990569 0.000645607 0)
(0.0978025 0.000617636 0)
(0.0965867 0.000591269 0)
(0.0954081 0.000566379 0)
(0.094265 0.000542856 0)
(0.0931562 0.000520596 0)
(0.0920804 0.000499507 0)
(0.0910361 0.000479503 0)
(0.0900224 0.000460506 0)
(0.0890381 0.000442446 0)
(0.088082 0.000425258 0)
(0.0871533 0.00040888 0)
(0.086251 0.000393258 0)
(0.0853742 0.00037834 0)
(0.0845221 0.00036408 0)
(0.0836938 0.000350432 0)
(0.0828888 0.000337357 0)
(0.0821062 0.000324817 0)
(0.0813455 0.000312777 0)
(0.080606 0.000301203 0)
(0.0798871 0.000290066 0)
(0.0791884 0.000279337 0)
(0.0785094 0.00026899 0)
(0.0778495 0.000258999 0)
(0.0772085 0.000249343 0)
(0.0765858 0.000239999 0)
(0.0759812 0.000230948 0)
(0.0753944 0.00022217 0)
(0.0748249 0.000213649 0)
(0.0742726 0.000205369 0)
(0.0737371 0.000197314 0)
(0.0732184 0.000189471 0)
(0.0727162 0.000181827 0)
(0.0722302 0.000174371 0)
(0.0717604 0.000167093 0)
(0.0713066 0.000159983 0)
(0.0708687 0.000153033 0)
(0.0704466 0.000146236 0)
(0.0700401 0.000139587 0)
(0.0696493 0.000133081 0)
(0.0692739 0.000126716 0)
(0.068914 0.00012049 0)
(0.0685694 0.000114403 0)
(0.0682401 0.00010846 0)
(0.067926 0.000102667 0)
(0.0676269 9.70302e-05 0)
(0.0673427 9.15621e-05 0)
(0.0670734 8.62752e-05 0)
(0.0668186 8.11844e-05 0)
(0.0665781 7.63081e-05 0)
(0.0663517 7.16731e-05 0)
(0.0661389 6.73283e-05 0)
(0.0659393 6.33835e-05 0)
(0.0657518 6.01166e-05 0)
(0.0655743 5.83364e-05 0)
(0.0654082 6.23332e-05 0)
(0.0651641 9.41213e-05 0)
(0.19457 0.00831288 0)
(0.195679 0.00939746 0)
(0.196712 0.00999315 0)
(0.19745 0.010258 0)
(0.197851 0.0102842 0)
(0.197918 0.0101103 0)
(0.197649 0.00977179 0)
(0.197049 0.00931036 0)
(0.196142 0.00876774 0)
(0.194963 0.00818145 0)
(0.193554 0.00758341 0)
(0.191956 0.00699897 0)
(0.190209 0.00644631 0)
(0.188351 0.00593671 0)
(0.186411 0.00547543 0)
(0.184417 0.00506314 0)
(0.182386 0.00469732 0)
(0.180335 0.00437362 0)
(0.178276 0.00408688 0)
(0.176216 0.00383184 0)
(0.174163 0.00360362 0)
(0.17212 0.00339796 0)
(0.170091 0.00321124 0)
(0.168079 0.00304055 0)
(0.166088 0.0028835 0)
(0.164118 0.00273824 0)
(0.162171 0.00260329 0)
(0.160249 0.00247745 0)
(0.158354 0.00235978 0)
(0.156487 0.0022495 0)
(0.154648 0.00214596 0)
(0.152838 0.00204859 0)
(0.151059 0.00195692 0)
(0.14931 0.00187052 0)
(0.147593 0.00178899 0)
(0.145907 0.00171201 0)
(0.144252 0.00163924 0)
(0.14263 0.00157041 0)
(0.141039 0.00150524 0)
(0.139479 0.0014435 0)
(0.137952 0.00138495 0)
(0.136455 0.00132939 0)
(0.13499 0.00127662 0)
(0.133555 0.00122648 0)
(0.13215 0.00117879 0)
(0.130776 0.00113339 0)
(0.12943 0.00109015 0)
(0.128114 0.00104894 0)
(0.126827 0.00100962 0)
(0.125567 0.000972093 0)
(0.124336 0.000936238 0)
(0.123131 0.000901958 0)
(0.121953 0.000869159 0)
(0.120801 0.000837752 0)
(0.119675 0.000807655 0)
(0.118575 0.00077879 0)
(0.117499 0.000751082 0)
(0.116447 0.000724465 0)
(0.11542 0.000698872 0)
(0.114416 0.000674243 0)
(0.113435 0.00065052 0)
(0.112477 0.000627649 0)
(0.111541 0.00060558 0)
(0.110628 0.000584263 0)
(0.109736 0.000563653 0)
(0.108865 0.000543707 0)
(0.108016 0.000524386 0)
(0.107188 0.000505649 0)
(0.106381 0.000487463 0)
(0.105593 0.000469792 0)
(0.104827 0.000452604 0)
(0.10408 0.000435871 0)
(0.103353 0.000419564 0)
(0.102647 0.000403656 0)
(0.101959 0.000388124 0)
(0.101292 0.000372945 0)
(0.100644 0.000358099 0)
(0.100016 0.000343566 0)
(0.0994066 0.000329329 0)
(0.0988171 0.000315374 0)
(0.0982471 0.000301687 0)
(0.0976965 0.000288258 0)
(0.0971653 0.000275077 0)
(0.0966536 0.00026214 0)
(0.0961614 0.000249443 0)
(0.0956887 0.000236986 0)
(0.0952355 0.000224774 0)
(0.0948018 0.000212815 0)
(0.0943876 0.000201121 0)
(0.0939929 0.000189709 0)
(0.0936175 0.000178599 0)
(0.0932615 0.000167817 0)
(0.0929246 0.000157396 0)
(0.0926065 0.000147386 0)
(0.092307 0.000137881 0)
(0.0920255 0.000129073 0)
(0.0917609 0.000121433 0)
(0.0915113 0.000116314 0)
(0.0912778 0.000119515 0)
(0.0909773 0.000149968 0)
(0.195306 0.00782239 0)
(0.196284 0.00882475 0)
(0.197342 0.00944726 0)
(0.198319 0.0097841 0)
(0.199161 0.00990895 0)
(0.199846 0.00985668 0)
(0.20035 0.00965414 0)
(0.200651 0.00933272 0)
(0.20074 0.00892561 0)
(0.200621 0.0084642 0)
(0.200306 0.00797644 0)
(0.199816 0.00748577 0)
(0.199173 0.00701021 0)
(0.1984 0.00656213 0)
(0.19752 0.00614868 0)
(0.196552 0.00577271 0)
(0.195512 0.0054339 0)
(0.194416 0.00512983 0)
(0.193273 0.00485696 0)
(0.192091 0.00461132 0)
(0.190878 0.00438902 0)
(0.189638 0.0041865 0)
(0.188374 0.00400069 0)
(0.187092 0.00382902 0)
(0.185792 0.00366943 0)
(0.184479 0.00352023 0)
(0.183153 0.00338012 0)
(0.181818 0.00324805 0)
(0.180474 0.00312316 0)
(0.179125 0.00300478 0)
(0.177772 0.00289235 0)
(0.176417 0.00278539 0)
(0.175061 0.0026835 0)
(0.173706 0.00258631 0)
(0.172353 0.00249353 0)
(0.171004 0.00240486 0)
(0.169659 0.00232006 0)
(0.168321 0.00223889 0)
(0.16699 0.00216115 0)
(0.165668 0.00208664 0)
(0.164354 0.00201519 0)
(0.163051 0.00194662 0)
(0.161758 0.00188079 0)
(0.160477 0.00181755 0)
(0.159208 0.00175678 0)
(0.157951 0.00169834 0)
(0.156708 0.00164213 0)
(0.155479 0.00158802 0)
(0.154264 0.00153592 0)
(0.153063 0.00148574 0)
(0.151878 0.00143736 0)
(0.150707 0.00139072 0)
(0.149552 0.00134572 0)
(0.148413 0.00130229 0)
(0.14729 0.00126034 0)
(0.146183 0.00121981 0)
(0.145092 0.00118062 0)
(0.144018 0.00114271 0)
(0.14296 0.00110601 0)
(0.14192 0.00107046 0)
(0.140896 0.00103601 0)
(0.139889 0.00100258 0)
(0.138899 0.000970143 0)
(0.137927 0.00093863 0)
(0.136971 0.000907994 0)
(0.136033 0.000878188 0)
(0.135113 0.000849165 0)
(0.13421 0.000820882 0)
(0.133325 0.000793296 0)
(0.132457 0.000766367 0)
(0.131608 0.000740056 0)
(0.130776 0.000714329 0)
(0.129963 0.000689149 0)
(0.129167 0.000664484 0)
(0.128391 0.000640305 0)
(0.127632 0.000616582 0)
(0.126893 0.000593289 0)
(0.126172 0.000570402 0)
(0.125471 0.000547899 0)
(0.124788 0.00052576 0)
(0.124125 0.00050397 0)
(0.123482 0.000482512 0)
(0.122859 0.000461378 0)
(0.122255 0.00044056 0)
(0.121672 0.000420055 0)
(0.121109 0.000399863 0)
(0.120567 0.000379993 0)
(0.120046 0.000360455 0)
(0.119545 0.000341268 0)
(0.119066 0.000322456 0)
(0.118608 0.000304048 0)
(0.11817 0.000286085 0)
(0.117754 0.000268618 0)
(0.117359 0.000251731 0)
(0.116985 0.000235568 0)
(0.116632 0.000220412 0)
(0.116297 0.000206912 0)
(0.115981 0.000196815 0)
(0.115685 0.000196029 0)
(0.115331 0.000218356 0)
(0.195934 0.00739632 0)
(0.196744 0.00828685 0)
(0.197669 0.00888734 0)
(0.198593 0.0092469 0)
(0.199465 0.00941869 0)
(0.200261 0.00943295 0)
(0.200959 0.0093121 0)
(0.201536 0.00908137 0)
(0.201978 0.00876815 0)
(0.202278 0.00839903 0)
(0.202439 0.00799814 0)
(0.202469 0.00758622 0)
(0.202379 0.00717977 0)
(0.202182 0.00679078 0)
(0.201894 0.00642683 0)
(0.201528 0.00609178 0)
(0.201096 0.00578657 0)
(0.200608 0.00551011 0)
(0.200073 0.00526007 0)
(0.199496 0.00503353 0)
(0.198883 0.00482741 0)
(0.198238 0.00463879 0)
(0.197563 0.00446505 0)
(0.196861 0.00430394 0)
(0.196133 0.0041536 0)
(0.195381 0.00401251 0)
(0.194606 0.00387943 0)
(0.19381 0.00375337 0)
(0.192995 0.00363355 0)
(0.192161 0.00351932 0)
(0.191309 0.00341015 0)
(0.190442 0.00330562 0)
(0.18956 0.00320535 0)
(0.188664 0.00310903 0)
(0.187755 0.00301639 0)
(0.186835 0.00292718 0)
(0.185906 0.0028412 0)
(0.184967 0.00275825 0)
(0.18402 0.00267817 0)
(0.183066 0.0026008 0)
(0.182106 0.00252599 0)
(0.181141 0.00245363 0)
(0.180171 0.00238358 0)
(0.179199 0.00231575 0)
(0.178224 0.00225002 0)
(0.177248 0.00218631 0)
(0.176271 0.00212453 0)
(0.175294 0.00206458 0)
(0.174318 0.0020064 0)
(0.173344 0.00194991 0)
(0.172371 0.00189504 0)
(0.171402 0.00184172 0)
(0.170436 0.00178988 0)
(0.169473 0.00173946 0)
(0.168516 0.00169041 0)
(0.167564 0.00164266 0)
(0.166617 0.00159616 0)
(0.165677 0.00155085 0)
(0.164743 0.00150668 0)
(0.163817 0.00146359 0)
(0.162898 0.00142155 0)
(0.161987 0.00138049 0)
(0.161085 0.00134038 0)
(0.160192 0.00130116 0)
(0.159308 0.0012628 0)
(0.158434 0.00122524 0)
(0.157571 0.00118844 0)
(0.156718 0.00115237 0)
(0.155876 0.00111698 0)
(0.155046 0.00108224 0)
(0.154227 0.00104811 0)
(0.153421 0.00101455 0)
(0.152628 0.000981535 0)
(0.151847 0.000949025 0)
(0.15108 0.000916992 0)
(0.150327 0.000885407 0)
(0.149588 0.000854245 0)
(0.148864 0.000823481 0)
(0.148155 0.000793093 0)
(0.147462 0.000763063 0)
(0.146784 0.000733373 0)
(0.146123 0.000704012 0)
(0.145478 0.00067497 0)
(0.144851 0.000646242 0)
(0.144241 0.000617829 0)
(0.143649 0.000589737 0)
(0.143075 0.000561978 0)
(0.14252 0.000534571 0)
(0.141985 0.000507541 0)
(0.141468 0.000480923 0)
(0.140971 0.000454761 0)
(0.140494 0.000429112 0)
(0.140036 0.000404054 0)
(0.139599 0.000379705 0)
(0.139182 0.000356261 0)
(0.138784 0.000334092 0)
(0.138405 0.000313968 0)
(0.138045 0.000297748 0)
(0.137707 0.000290385 0)
(0.137318 0.000299399 0)
(0.196484 0.00702905 0)
(0.197157 0.00781277 0)
(0.197945 0.00837669 0)
(0.198763 0.00873933 0)
(0.199564 0.00893505 0)
(0.200324 0.00898874 0)
(0.201022 0.00892005 0)
(0.20164 0.00875035 0)
(0.202164 0.00850288 0)
(0.202588 0.00820061 0)
(0.202912 0.00786455 0)
(0.203138 0.00751299 0)
(0.203275 0.00716086 0)
(0.20333 0.00681935 0)
(0.203316 0.00649606 0)
(0.203241 0.00619532 0)
(0.203114 0.00591889 0)
(0.202944 0.00566663 0)
(0.202738 0.00543714 0)
(0.202499 0.00522833 0)
(0.202232 0.00503778 0)
(0.201939 0.00486311 0)
(0.201623 0.00470209 0)
(0.201285 0.00455272 0)
(0.200926 0.00441332 0)
(0.200547 0.00428248 0)
(0.200148 0.00415903 0)
(0.19973 0.00404202 0)
(0.199294 0.00393069 0)
(0.198839 0.00382439 0)
(0.198367 0.00372262 0)
(0.197879 0.00362494 0)
(0.197373 0.00353099 0)
(0.196852 0.00344046 0)
(0.196316 0.00335309 0)
(0.195765 0.00326865 0)
(0.195199 0.00318694 0)
(0.194621 0.00310777 0)
(0.194029 0.003031 0)
(0.193425 0.00295648 0)
(0.192809 0.00288407 0)
(0.192183 0.00281368 0)
(0.191546 0.00274519 0)
(0.190899 0.00267851 0)
(0.190243 0.00261355 0)
(0.189578 0.00255023 0)
(0.188905 0.00248847 0)
(0.188225 0.00242822 0)
(0.187538 0.00236939 0)
(0.186845 0.00231194 0)
(0.186146 0.0022558 0)
(0.185442 0.00220092 0)
(0.184733 0.00214725 0)
(0.184021 0.00209473 0)
(0.183305 0.00204332 0)
(0.182587 0.00199297 0)
(0.181866 0.00194363 0)
(0.181144 0.00189527 0)
(0.18042 0.00184783 0)
(0.179696 0.00180128 0)
(0.178971 0.00175557 0)
(0.178247 0.00171067 0)
(0.177524 0.00166652 0)
(0.176803 0.0016231 0)
(0.176083 0.00158037 0)
(0.175366 0.00153829 0)
(0.174652 0.00149681 0)
(0.173942 0.00145591 0)
(0.173236 0.00141556 0)
(0.172534 0.00137571 0)
(0.171837 0.00133633 0)
(0.171147 0.0012974 0)
(0.170462 0.00125888 0)
(0.169784 0.00122075 0)
(0.169113 0.00118297 0)
(0.16845 0.00114552 0)
(0.167796 0.00110838 0)
(0.16715 0.00107152 0)
(0.166514 0.00103493 0)
(0.165888 0.000998594 0)
(0.165272 0.000962496 0)
(0.164667 0.000926629 0)
(0.164074 0.000890987 0)
(0.163493 0.000855572 0)
(0.162925 0.00082039 0)
(0.16237 0.000785453 0)
(0.161829 0.000750783 0)
(0.161302 0.000716406 0)
(0.160789 0.00068236 0)
(0.160292 0.000648692 0)
(0.15981 0.000615463 0)
(0.159344 0.000582749 0)
(0.158894 0.000550658 0)
(0.158461 0.000519342 0)
(0.158043 0.00048905 0)
(0.157643 0.000460207 0)
(0.157258 0.000433627 0)
(0.15689 0.00041099 0)
(0.156543 0.000395666 0)
(0.156148 0.000388883 0)
(0.196968 0.00671065 0)
(0.197536 0.00739799 0)
(0.198206 0.00791822 0)
(0.198919 0.00827229 0)
(0.199635 0.00847998 0)
(0.200327 0.00856033 0)
(0.200975 0.00853008 0)
(0.201564 0.00840719 0)
(0.202081 0.00821128 0)
(0.202522 0.00796205 0)
(0.202883 0.00767787 0)
(0.203168 0.00737493 0)
(0.203382 0.0070667 0)
(0.203532 0.00676367 0)
(0.203625 0.00647325 0)
(0.203671 0.00620011 0)
(0.203677 0.00594663 0)
(0.20365 0.00571339 0)
(0.203594 0.00549979 0)
(0.203516 0.00530444 0)
(0.203417 0.00512555 0)
(0.203301 0.00496121 0)
(0.203169 0.00480956 0)
(0.203023 0.00466891 0)
(0.202863 0.00453774 0)
(0.202689 0.00441477 0)
(0.202503 0.00429891 0)
(0.202304 0.00418925 0)
(0.202092 0.00408506 0)
(0.201868 0.00398569 0)
(0.201631 0.00389064 0)
(0.201383 0.00379946 0)
(0.201122 0.00371179 0)
(0.200848 0.00362732 0)
(0.200563 0.00354578 0)
(0.200266 0.00346692 0)
(0.199958 0.00339054 0)
(0.199638 0.00331646 0)
(0.199306 0.00324452 0)
(0.198964 0.00317457 0)
(0.198611 0.00310649 0)
(0.198246 0.00304015 0)
(0.197872 0.00297546 0)
(0.197487 0.00291231 0)
(0.197093 0.00285063 0)
(0.196688 0.00279032 0)
(0.196275 0.00273133 0)
(0.195852 0.00267358 0)
(0.195421 0.002617 0)
(0.194981 0.00256155 0)
(0.194533 0.00250716 0)
(0.194078 0.00245379 0)
(0.193615 0.00240138 0)
(0.193144 0.00234988 0)
(0.192667 0.00229926 0)
(0.192184 0.00224947 0)
(0.191695 0.00220046 0)
(0.1912 0.0021522 0)
(0.1907 0.00210464 0)
(0.190195 0.00205775 0)
(0.189686 0.00201149 0)
(0.189173 0.00196581 0)
(0.188656 0.0019207 0)
(0.188136 0.00187609 0)
(0.187613 0.00183198 0)
(0.187088 0.00178831 0)
(0.18656 0.00174505 0)
(0.186032 0.00170217 0)
(0.185503 0.00165964 0)
(0.184973 0.00161743 0)
(0.184443 0.0015755 0)
(0.183914 0.00153384 0)
(0.183385 0.00149239 0)
(0.182858 0.00145116 0)
(0.182333 0.00141009 0)
(0.181811 0.00136918 0)
(0.181292 0.00132841 0)
(0.180776 0.00128775 0)
(0.180264 0.00124718 0)
(0.179757 0.0012067 0)
(0.179255 0.0011663 0)
(0.178759 0.00112597 0)
(0.178269 0.00108571 0)
(0.177786 0.00104554 0)
(0.177311 0.00100545 0)
(0.176843 0.000965473 0)
(0.176384 0.000925637 0)
(0.175933 0.000885978 0)
(0.175493 0.000846544 0)
(0.175062 0.000807398 0)
(0.174642 0.000768615 0)
(0.174232 0.000730295 0)
(0.173833 0.000692569 0)
(0.173446 0.000655626 0)
(0.173071 0.00061975 0)
(0.172707 0.000585395 0)
(0.172355 0.000553334 0)
(0.172016 0.000524865 0)
(0.171694 0.000501615 0)
(0.171327 0.000479759 0)
(0.197395 0.00642937 0)
(0.19788 0.0070317 0)
(0.198452 0.00750611 0)
(0.199073 0.00784487 0)
(0.199707 0.00805741 0)
(0.200329 0.00815703 0)
(0.200919 0.00815725 0)
(0.201463 0.00807284 0)
(0.201951 0.00792015 0)
(0.202375 0.00771592 0)
(0.202733 0.00747608 0)
(0.203028 0.00721492 0)
(0.203263 0.00694461 0)
(0.203444 0.00667486 0)
(0.203577 0.00641284 0)
(0.203669 0.00616341 0)
(0.203728 0.00592939 0)
(0.203758 0.00571197 0)
(0.203766 0.00551119 0)
(0.203755 0.00532631 0)
(0.203729 0.00515609 0)
(0.203691 0.0049991 0)
(0.203641 0.00485387 0)
(0.203582 0.00471897 0)
(0.203515 0.00459311 0)
(0.203439 0.00447515 0)
(0.203356 0.0043641 0)
(0.203265 0.00425912 0)
(0.203167 0.00415951 0)
(0.203062 0.00406466 0)
(0.202949 0.00397407 0)
(0.20283 0.0038873 0)
(0.202703 0.003804 0)
(0.202569 0.00372383 0)
(0.202427 0.00364654 0)
(0.202279 0.00357188 0)
(0.202122 0.00349963 0)
(0.201959 0.00342961 0)
(0.201788 0.00336165 0)
(0.201609 0.0032956 0)
(0.201423 0.00323132 0)
(0.201229 0.00316871 0)
(0.201028 0.00310763 0)
(0.20082 0.003048 0)
(0.200604 0.00298972 0)
(0.20038 0.00293271 0)
(0.200149 0.00287689 0)
(0.199911 0.00282219 0)
(0.199666 0.00276854 0)
(0.199414 0.00271588 0)
(0.199154 0.00266414 0)
(0.198888 0.00261329 0)
(0.198614 0.00256326 0)
(0.198334 0.002514 0)
(0.198048 0.00246546 0)
(0.197755 0.00241761 0)
(0.197455 0.00237038 0)
(0.19715 0.00232375 0)
(0.196839 0.00227767 0)
(0.196522 0.00223209 0)
(0.196199 0.00218698 0)
(0.195872 0.0021423 0)
(0.195539 0.00209801 0)
(0.195201 0.00205407 0)
(0.194859 0.00201045 0)
(0.194513 0.0019671 0)
(0.194163 0.00192401 0)
(0.193809 0.00188112 0)
(0.193451 0.0018384 0)
(0.193091 0.00179583 0)
(0.192728 0.00175338 0)
(0.192362 0.001711 0)
(0.191995 0.00166868 0)
(0.191626 0.00162638 0)
(0.191255 0.00158408 0)
(0.190884 0.00154176 0)
(0.190512 0.0014994 0)
(0.19014 0.00145697 0)
(0.189769 0.00141447 0)
(0.189398 0.00137188 0)
(0.189028 0.00132919 0)
(0.188661 0.00128641 0)
(0.188295 0.00124353 0)
(0.187932 0.00120056 0)
(0.187572 0.00115753 0)
(0.187216 0.00111446 0)
(0.186863 0.00107138 0)
(0.186515 0.00102834 0)
(0.186172 0.000985396 0)
(0.185834 0.000942624 0)
(0.185501 0.000900115 0)
(0.185175 0.000857984 0)
(0.184855 0.000816389 0)
(0.184541 0.000775541 0)
(0.184234 0.000735748 0)
(0.183934 0.000697462 0)
(0.183642 0.00066135 0)
(0.183358 0.000628257 0)
(0.183086 0.000598325 0)
(0.182771 0.000564757 0)
(0.197772 0.00617699 0)
(0.198191 0.00670571 0)
(0.198683 0.00713546 0)
(0.199223 0.00745515 0)
(0.199783 0.00766736 0)
(0.200339 0.00778051 0)
(0.200873 0.00780493 0)
(0.201371 0.00775256 0)
(0.201823 0.00763683 0)
(0.202222 0.00747178 0)
(0.202567 0.00727111 0)
(0.202856 0.00704731 0)
(0.203094 0.00681126 0)
(0.203284 0.00657187 0)
(0.203431 0.00633598 0)
(0.203542 0.00610847 0)
(0.203622 0.00589245 0)
(0.203677 0.00568959 0)
(0.203711 0.00550047 0)
(0.203729 0.00532486 0)
(0.203734 0.00516207 0)
(0.203727 0.00501107 0)
(0.203712 0.00487077 0)
(0.203689 0.00474002 0)
(0.203661 0.00461775 0)
(0.203627 0.00450299 0)
(0.203588 0.00439487 0)
(0.203544 0.00429264 0)
(0.203497 0.00419565 0)
(0.203445 0.00410335 0)
(0.20339 0.00401525 0)
(0.203331 0.00393094 0)
(0.203268 0.00385008 0)
(0.203201 0.00377235 0)
(0.203131 0.00369749 0)
(0.203057 0.00362526 0)
(0.202978 0.00355544 0)
(0.202896 0.00348786 0)
(0.20281 0.00342233 0)
(0.20272 0.00335873 0)
(0.202626 0.00329689 0)
(0.202527 0.00323671 0)
(0.202425 0.00317807 0)
(0.202318 0.00312087 0)
(0.202206 0.003065 0)
(0.202091 0.00301038 0)
(0.20197 0.00295694 0)
(0.201846 0.00290459 0)
(0.201716 0.00285326 0)
(0.201582 0.00280288 0)
(0.201443 0.0027534 0)
(0.2013 0.00270475 0)
(0.201152 0.00265687 0)
(0.200999 0.00260972 0)
(0.200842 0.00256323 0)
(0.200679 0.00251736 0)
(0.200512 0.00247206 0)
(0.200341 0.00242727 0)
(0.200164 0.00238297 0)
(0.199983 0.00233909 0)
(0.199798 0.00229559 0)
(0.199608 0.00225243 0)
(0.199414 0.00220958 0)
(0.199215 0.00216698 0)
(0.199012 0.00212459 0)
(0.198805 0.00208239 0)
(0.198594 0.00204032 0)
(0.19838 0.00199834 0)
(0.198161 0.00195643 0)
(0.197939 0.00191455 0)
(0.197714 0.00187266 0)
(0.197485 0.00183072 0)
(0.197254 0.00178871 0)
(0.19702 0.00174659 0)
(0.196783 0.00170435 0)
(0.196544 0.00166194 0)
(0.196303 0.00161935 0)
(0.19606 0.00157657 0)
(0.195815 0.00153356 0)
(0.19557 0.00149033 0)
(0.195323 0.00144686 0)
(0.195076 0.00140315 0)
(0.194828 0.0013592 0)
(0.19458 0.00131504 0)
(0.194332 0.00127066 0)
(0.194085 0.00122612 0)
(0.193839 0.00118144 0)
(0.193594 0.00113667 0)
(0.193351 0.00109189 0)
(0.193109 0.00104717 0)
(0.192869 0.00100262 0)
(0.192632 0.000958362 0)
(0.192397 0.000914579 0)
(0.192164 0.000871496 0)
(0.191935 0.000829426 0)
(0.191708 0.000788797 0)
(0.191485 0.000750143 0)
(0.191267 0.000713902 0)
(0.191056 0.000679246 0)
(0.190805 0.00063863 0)
(0.198105 0.0059479 0)
(0.19847 0.00641345 0)
(0.198896 0.00680141 0)
(0.199367 0.00710013 0)
(0.199861 0.00730817 0)
(0.200357 0.00743011 0)
(0.200838 0.00747348 0)
(0.201291 0.00744768 0)
(0.201707 0.00736358 0)
(0.20208 0.00723283 0)
(0.202407 0.00706703 0)
(0.202686 0.00687703 0)
(0.20292 0.00667243 0)
(0.203111 0.00646131 0)
(0.203264 0.00625011 0)
(0.203384 0.00604358 0)
(0.203475 0.00584502 0)
(0.203542 0.00565642 0)
(0.20359 0.00547878 0)
(0.203622 0.00531232 0)
(0.20364 0.00515678 0)
(0.203648 0.00501153 0)
(0.203648 0.0048758 0)
(0.203642 0.00474872 0)
(0.203629 0.00462945 0)
(0.203613 0.00451719 0)
(0.203592 0.00441119 0)
(0.203568 0.0043108 0)
(0.203542 0.00421545 0)
(0.203512 0.00412463 0)
(0.203481 0.00403791 0)
(0.203447 0.0039549 0)
(0.203411 0.00387528 0)
(0.203374 0.00379875 0)
(0.203335 0.00372506 0)
(0.203293 0.00365399 0)
(0.20325 0.00358534 0)
(0.203206 0.00351891 0)
(0.203159 0.00345456 0)
(0.203111 0.00339214 0)
(0.203061 0.0033315 0)
(0.203009 0.00327254 0)
(0.202955 0.00321513 0)
(0.202899 0.00315918 0)
(0.202841 0.00310458 0)
(0.202782 0.00305126 0)
(0.20272 0.00299913 0)
(0.202655 0.00294811 0)
(0.202589 0.00289813 0)
(0.20252 0.00284911 0)
(0.202449 0.002801 0)
(0.202375 0.00275374 0)
(0.202298 0.00270725 0)
(0.20222 0.00266149 0)
(0.202138 0.00261639 0)
(0.202054 0.00257191 0)
(0.201967 0.00252799 0)
(0.201877 0.00248458 0)
(0.201784 0.00244162 0)
(0.201689 0.00239908 0)
(0.201591 0.0023569 0)
(0.201489 0.00231504 0)
(0.201385 0.00227345 0)
(0.201278 0.00223207 0)
(0.201168 0.00219088 0)
(0.201055 0.00214982 0)
(0.200939 0.00210885 0)
(0.200821 0.00206794 0)
(0.200699 0.00202702 0)
(0.200575 0.00198608 0)
(0.200447 0.00194507 0)
(0.200318 0.00190395 0)
(0.200185 0.00186268 0)
(0.20005 0.00182124 0)
(0.199913 0.00177959 0)
(0.199773 0.0017377 0)
(0.199631 0.00169556 0)
(0.199487 0.00165312 0)
(0.19934 0.00161038 0)
(0.199192 0.00156732 0)
(0.199043 0.00152394 0)
(0.198891 0.00148022 0)
(0.198738 0.00143618 0)
(0.198584 0.00139183 0)
(0.198429 0.00134717 0)
(0.198272 0.00130226 0)
(0.198115 0.00125711 0)
(0.197958 0.00121181 0)
(0.197799 0.0011664 0)
(0.197641 0.00112098 0)
(0.197482 0.00107567 0)
(0.197323 0.00103059 0)
(0.197164 0.000985948 0)
(0.197005 0.000941964 0)
(0.196846 0.00089895 0)
(0.196688 0.000857295 0)
(0.19653 0.000817409 0)
(0.196374 0.000779445 0)
(0.196221 0.000742177 0)
(0.196032 0.000699036 0)
(0.1984 0.00573811 0)
(0.198721 0.00614962 0)
(0.199092 0.00649943 0)
(0.199503 0.0067767 0)
(0.199938 0.00697788 0)
(0.200379 0.00710484 0)
(0.200811 0.00716271 0)
(0.201222 0.00715871 0)
(0.201604 0.00710149 0)
(0.201951 0.00700061 0)
(0.202258 0.00686577 0)
(0.202525 0.00670627 0)
(0.202752 0.00653053 0)
(0.202942 0.00634579 0)
(0.203097 0.00615799 0)
(0.203221 0.00597171 0)
(0.203319 0.00579028 0)
(0.203394 0.00561591 0)
(0.20345 0.0054499 0)
(0.20349 0.00529285 0)
(0.203517 0.00514484 0)
(0.203534 0.0050056 0)
(0.203543 0.00487464 0)
(0.203544 0.00475137 0)
(0.20354 0.00463514 0)
(0.203532 0.00452531 0)
(0.20352 0.00442129 0)
(0.203505 0.00432252 0)
(0.203487 0.00422851 0)
(0.203467 0.00413881 0)
(0.203445 0.00405303 0)
(0.203422 0.00397083 0)
(0.203398 0.00389191 0)
(0.203372 0.00381601 0)
(0.203345 0.00374288 0)
(0.203318 0.00367231 0)
(0.20329 0.00360412 0)
(0.20326 0.00353814 0)
(0.203231 0.00347421 0)
(0.2032 0.0034122 0)
(0.203169 0.00335198 0)
(0.203138 0.00329343 0)
(0.203105 0.00323645 0)
(0.203072 0.00318094 0)
(0.203039 0.0031268 0)
(0.203005 0.00307395 0)
(0.20297 0.00302231 0)
(0.202934 0.0029718 0)
(0.202898 0.00292236 0)
(0.20286 0.0028739 0)
(0.202822 0.00282637 0)
(0.202783 0.00277971 0)
(0.202743 0.00273385 0)
(0.202702 0.00268874 0)
(0.20266 0.00264432 0)
(0.202617 0.00260053 0)
(0.202572 0.00255731 0)
(0.202526 0.00251463 0)
(0.202479 0.00247242 0)
(0.202431 0.00243063 0)
(0.202381 0.00238922 0)
(0.20233 0.00234813 0)
(0.202278 0.00230732 0)
(0.202223 0.00226673 0)
(0.202168 0.00222632 0)
(0.20211 0.00218605 0)
(0.202051 0.00214586 0)
(0.201991 0.00210571 0)
(0.201928 0.00206557 0)
(0.201864 0.00202537 0)
(0.201799 0.00198509 0)
(0.201731 0.00194469 0)
(0.201662 0.00190412 0)
(0.201591 0.00186335 0)
(0.201518 0.00182234 0)
(0.201443 0.00178107 0)
(0.201367 0.0017395 0)
(0.201289 0.00169762 0)
(0.201209 0.00165539 0)
(0.201128 0.00161281 0)
(0.201045 0.00156986 0)
(0.20096 0.00152653 0)
(0.200874 0.00148284 0)
(0.200786 0.00143879 0)
(0.200697 0.00139441 0)
(0.200606 0.00134971 0)
(0.200514 0.00130476 0)
(0.20042 0.00125959 0)
(0.200325 0.00121429 0)
(0.200229 0.00116895 0)
(0.200131 0.00112369 0)
(0.200032 0.00107865 0)
(0.199932 0.00103402 0)
(0.19983 0.000990034 0)
(0.199727 0.000946994 0)
(0.199623 0.000905245 0)