/*--------------------------------*- C++ -*----------------------------------*\
| =========                 |                                                 |
| \\      /  F ield         | OpenFOAM: The Open Source CFD Toolbox           |
|  \\    /   O peration     | Version:  2.3.0                                 |
|   \\  /    A nd           | Web:      www.OpenFOAM.org                      |
|    \\/     M anipulation  |                                                 |
\*---------------------------------------------------------------------------*/
FoamFile
{
    version     2.0;
    format      ascii;
    class       surfaceScalarField;
    location    "0.55";
    object      phi;
}
// * * * * * * * * * * * * * * * * * * * * * * * * * * * * * * * * * * * * * //

dimensions      [0 3 -1 0 0 0 0];

internalField   nonuniform List<scalar> 
4357
(
5.05429e-08
1.71401e-09
-5.22569e-08
4.838e-08
2.16292e-09
4.59795e-08
2.40049e-09
4.35221e-08
2.4574e-09
4.1075e-08
2.44715e-09
3.8638e-08
2.437e-09
3.62042e-08
2.43374e-09
3.37796e-08
2.42458e-09
3.13795e-08
2.40016e-09
2.90245e-08
2.35496e-09
2.67376e-08
2.28697e-09
2.45414e-08
2.19618e-09
2.24585e-08
2.0829e-09
2.0513e-08
1.94552e-09
1.8726e-08
1.78694e-09
1.71121e-08
1.61388e-09
1.56835e-08
1.42866e-09
1.44454e-08
1.2381e-09
1.3395e-08
1.05042e-09
1.25211e-08
8.73842e-10
1.18061e-08
7.14994e-10
1.1228e-08
5.78131e-10
1.07631e-08
4.64916e-10
1.03882e-08
3.74904e-10
1.00821e-08
3.06098e-10
9.82643e-09
2.5565e-10
9.60647e-09
2.1996e-10
9.41093e-09
1.9554e-10
9.23116e-09
1.79768e-10
9.06078e-09
1.70378e-10
8.89551e-09
1.65269e-10
8.73279e-09
1.62716e-10
8.5714e-09
1.61391e-10
8.41097e-09
1.60433e-10
8.2517e-09
1.59268e-10
8.09408e-09
1.57622e-10
7.93877e-09
1.55315e-10
7.78636e-09
1.52407e-10
7.63733e-09
1.49031e-10
7.49207e-09
1.45256e-10
7.35098e-09
1.41088e-10
7.21432e-09
1.36658e-10
7.08228e-09
1.32041e-10
6.9549e-09
1.27384e-10
6.83218e-09
1.22723e-10
6.714e-09
1.18175e-10
6.60027e-09
1.1373e-10
6.49079e-09
1.09486e-10
6.38539e-09
1.05392e-10
6.28386e-09
1.01533e-10
6.18603e-09
9.78363e-11
6.09164e-09
9.4389e-11
6.00055e-09
9.10893e-11
5.91252e-09
8.80285e-11
5.82744e-09
8.50829e-11
5.74508e-09
8.23594e-11
5.66536e-09
7.97211e-11
5.58807e-09
7.72831e-11
5.51319e-09
7.48858e-11
5.4405e-09
7.26833e-11
5.37002e-09
7.04867e-11
5.30155e-09
6.84702e-11
5.23513e-09
6.64182e-11
5.17058e-09
6.45466e-11
5.10796e-09
6.26189e-11
5.04708e-09
6.08784e-11
4.98806e-09
5.90206e-11
4.9307e-09
5.73614e-11
4.87511e-09
5.55905e-11
4.82109e-09
5.40268e-11
4.7688e-09
5.2284e-11
4.71801e-09
5.0791e-11
4.66891e-09
4.90998e-11
4.62124e-09
4.76713e-11
4.57525e-09
4.59855e-11
4.53063e-09
4.46235e-11
4.48767e-09
4.29646e-11
4.44599e-09
4.16739e-11
4.40594e-09
4.00474e-11
4.36706e-09
3.88805e-11
4.3297e-09
3.73619e-11
4.29327e-09
3.64359e-11
4.25811e-09
3.51563e-11
4.22353e-09
3.45831e-11
4.19006e-09
3.34704e-11
4.15716e-09
3.28915e-11
4.12594e-09
3.12292e-11
4.0961e-09
2.98339e-11
4.06893e-09
2.71682e-11
4.04346e-09
2.54707e-11
4.02029e-09
2.31727e-11
3.99763e-09
2.26628e-11
3.97632e-09
2.13023e-11
3.95466e-09
2.16606e-11
3.93419e-09
2.04743e-11
3.91295e-09
2.1239e-11
3.893e-09
1.99548e-11
3.87174e-09
2.12562e-11
3.85245e-09
1.92918e-11
2.45275e-11
5.75552e-08
1.68176e-09
-5.7523e-08
5.75801e-08
2.1381e-09
5.74377e-08
2.54289e-09
5.70962e-08
2.79887e-09
5.66161e-08
2.92728e-09
5.60476e-08
3.00548e-09
5.54018e-08
3.07952e-09
5.46681e-08
3.15832e-09
5.38393e-08
3.22888e-09
5.29189e-08
3.27536e-09
5.19169e-08
3.28901e-09
5.08451e-08
3.26798e-09
4.97152e-08
3.21284e-09
4.85367e-08
3.12396e-09
4.73202e-08
3.00347e-09
4.60794e-08
2.85468e-09
4.48269e-08
2.68113e-09
4.35759e-08
2.48913e-09
4.2339e-08
2.28728e-09
4.11278e-08
2.08505e-09
3.99516e-08
1.8912e-09
3.88171e-08
1.71263e-09
3.77284e-08
1.55358e-09
3.66875e-08
1.41584e-09
3.56945e-08
1.29913e-09
3.47473e-08
1.20282e-09
3.38441e-08
1.1232e-09
3.29841e-08
1.05548e-09
3.21646e-08
9.99289e-10
3.13826e-08
9.52389e-10
3.06354e-08
9.12475e-10
2.99205e-08
8.77615e-10
2.92357e-08
8.46175e-10
2.85791e-08
8.17055e-10
2.7949e-08
7.89403e-10
2.73438e-08
7.62778e-10
2.67625e-08
7.36653e-10
2.6204e-08
7.10866e-10
2.5667e-08
6.86009e-10
2.51505e-08
6.61753e-10
2.46536e-08
6.37997e-10
2.41754e-08
6.14867e-10
2.37151e-08
5.92371e-10
2.32718e-08
5.70676e-10
2.28448e-08
5.49759e-10
2.24332e-08
5.29768e-10
2.20363e-08
5.10616e-10
2.16533e-08
4.9244e-10
2.12836e-08
4.75099e-10
2.09264e-08
4.58711e-10
2.05812e-08
4.43108e-10
2.02471e-08
4.28417e-10
1.99238e-08
4.14416e-10
1.96106e-08
4.01246e-10
1.9307e-08
3.88654e-10
1.90126e-08
3.76803e-10
1.87269e-08
3.6542e-10
1.84495e-08
3.54686e-10
1.81801e-08
3.44298e-10
1.79182e-08
3.34506e-10
1.76638e-08
3.24951e-10
1.74163e-08
3.15921e-10
1.71757e-08
3.07029e-10
1.69416e-08
2.98633e-10
1.67139e-08
2.90309e-10
1.64924e-08
2.82457e-10
1.62768e-08
2.7455e-10
1.60671e-08
2.67117e-10
1.5863e-08
2.59632e-10
1.56645e-08
2.52602e-10
1.54713e-08
2.4539e-10
1.52834e-08
2.38699e-10
1.51007e-08
2.31791e-10
1.4923e-08
2.25396e-10
1.47503e-08
2.1868e-10
1.45824e-08
2.12573e-10
1.44193e-08
2.06084e-10
1.42607e-08
2.00256e-10
1.41067e-08
1.93996e-10
1.39571e-08
1.88548e-10
1.38117e-08
1.82678e-10
1.36703e-08
1.77863e-10
1.35328e-08
1.72697e-10
1.33986e-08
1.68805e-10
1.32678e-08
1.6427e-10
1.31401e-08
1.6059e-10
1.30161e-08
1.55149e-10
1.28962e-08
1.49804e-10
1.27811e-08
1.42274e-10
1.26703e-08
1.36195e-10
1.25639e-08
1.29582e-10
1.24604e-08
1.26179e-10
1.23598e-08
1.21962e-10
1.22608e-08
1.20651e-10
1.21639e-08
1.17286e-10
1.20682e-08
1.17011e-10
1.1974e-08
1.14107e-10
1.18802e-08
1.15058e-10
1.17874e-08
1.12151e-10
1.18711e-10
6.25029e-08
1.79948e-09
-6.26206e-08
6.25175e-08
2.1235e-09
6.26061e-08
2.45431e-09
6.26508e-08
2.75418e-09
6.2634e-08
2.94406e-09
6.25792e-08
3.06025e-09
6.25062e-08
3.15254e-09
6.24165e-08
3.24802e-09
6.23012e-08
3.34417e-09
6.21495e-08
3.42713e-09
6.19542e-08
3.48426e-09
6.1712e-08
3.51014e-09
6.14201e-08
3.50482e-09
6.10751e-08
3.46895e-09
6.06755e-08
3.40303e-09
6.02219e-08
3.30827e-09
5.97156e-08
3.18742e-09
5.91597e-08
3.04505e-09
5.85594e-08
2.88762e-09
5.79215e-08
2.72295e-09
5.72537e-08
2.55898e-09
5.65635e-08
2.40278e-09
5.58577e-08
2.25944e-09
5.51415e-08
2.13201e-09
5.44192e-08
2.02149e-09
5.36946e-08
1.92742e-09
5.29703e-08
1.8475e-09
5.22466e-08
1.77916e-09
5.1525e-08
1.72085e-09
5.08064e-08
1.67098e-09
5.00913e-08
1.62761e-09
4.93799e-08
1.589e-09
4.86725e-08
1.55357e-09
4.79694e-08
1.52017e-09
4.72709e-08
1.48787e-09
4.65776e-08
1.45612e-09
4.58898e-08
1.42447e-09
4.52078e-08
1.39284e-09
4.45325e-08
1.36132e-09
4.38643e-08
1.32989e-09
4.32039e-08
1.29844e-09
4.25517e-08
1.26709e-09
4.19082e-08
1.23586e-09
4.12739e-08
1.20496e-09
4.06493e-08
1.1744e-09
4.00346e-08
1.1444e-09
3.94303e-08
1.11492e-09
3.88366e-08
1.08616e-09
3.82537e-08
1.05802e-09
3.76817e-08
1.03068e-09
3.71208e-08
1.00401e-09
3.65711e-08
9.78177e-10
3.60325e-08
9.53016e-10
3.5505e-08
9.28692e-10
3.49887e-08
9.04997e-10
3.44834e-08
8.82105e-10
3.3989e-08
8.59788e-10
3.35055e-08
8.3821e-10
3.30326e-08
8.17135e-10
3.25704e-08
7.96789e-10
3.21185e-08
7.76862e-10
3.16768e-08
7.57577e-10
3.12452e-08
7.38637e-10
3.08235e-08
7.20336e-10
3.04115e-08
7.0234e-10
3.0009e-08
6.84916e-10
2.96159e-08
6.67665e-10
2.9232e-08
6.50988e-10
2.88571e-08
6.34539e-10
2.84911e-08
6.18576e-10
2.81338e-08
6.02711e-10
2.77851e-08
5.87396e-10
2.74447e-08
5.72171e-10
2.71127e-08
5.57405e-10
2.67888e-08
5.42652e-10
2.64729e-08
5.28431e-10
2.61648e-08
5.1421e-10
2.58645e-08
5.00495e-10
2.55717e-08
4.86811e-10
2.52865e-08
4.73745e-10
2.50083e-08
4.60859e-10
2.47374e-08
4.48847e-10
2.44727e-08
4.37315e-10
2.42146e-08
4.26892e-10
2.39622e-08
4.16732e-10
2.3716e-08
4.06814e-10
2.34755e-08
3.95572e-10
2.32424e-08
3.82932e-10
2.30162e-08
3.68462e-10
2.2798e-08
3.54433e-10
2.25857e-08
3.41859e-10
2.23797e-08
3.3222e-10
2.21775e-08
3.24139e-10
2.19804e-08
3.17732e-10
2.1786e-08
3.11726e-10
2.15963e-08
3.06705e-10
2.14078e-08
3.02567e-10
2.12238e-08
2.99109e-10
2.10396e-08
2.96278e-10
3.00448e-10
6.77847e-08
1.92164e-09
-6.79069e-08
6.77331e-08
2.17508e-09
6.77522e-08
2.43525e-09
6.78053e-08
2.70102e-09
6.78488e-08
2.90062e-09
6.78662e-08
3.0428e-09
6.78712e-08
3.14757e-09
6.78821e-08
3.23717e-09
6.79009e-08
3.32529e-09
6.79206e-08
3.40745e-09
6.79325e-08
3.47237e-09
6.79294e-08
3.51321e-09
6.7906e-08
3.52823e-09
6.78575e-08
3.51744e-09
6.77796e-08
3.48099e-09
6.76681e-08
3.41979e-09
6.75196e-08
3.33592e-09
6.73319e-08
3.2327e-09
6.71047e-08
3.11477e-09
6.68397e-08
2.98796e-09
6.65402e-08
2.85856e-09
6.62104e-08
2.73255e-09
6.58551e-08
2.61471e-09
6.54789e-08
2.50825e-09
6.50857e-08
2.41465e-09
6.46792e-08
2.33394e-09
6.42615e-08
2.26518e-09
6.38337e-08
2.20696e-09
6.3397e-08
2.15761e-09
6.29523e-08
2.11567e-09
6.25002e-08
2.07964e-09
6.20411e-08
2.0481e-09
6.1575e-08
2.01971e-09
6.11018e-08
1.99339e-09
6.06214e-08
1.96821e-09
6.0134e-08
1.94358e-09
5.96394e-08
1.91904e-09
5.91379e-08
1.89437e-09
5.86298e-08
1.86942e-09
5.81155e-08
1.84417e-09
5.75954e-08
1.81857e-09
5.70698e-08
1.79263e-09
5.65393e-08
1.7664e-09
5.60043e-08
1.73995e-09
5.54653e-08
1.71336e-09
5.4923e-08
1.68675e-09
5.43777e-08
1.66017e-09
5.38302e-08
1.63371e-09
5.32808e-08
1.60738e-09
5.27302e-08
1.58125e-09
5.21789e-08
1.55534e-09
5.16274e-08
1.52969e-09
5.10761e-08
1.50429e-09
5.05257e-08
1.47916e-09
4.99764e-08
1.45429e-09
4.94288e-08
1.42965e-09
4.88833e-08
1.40529e-09
4.83404e-08
1.38108e-09
4.78005e-08
1.35712e-09
4.72639e-08
1.33335e-09
4.67309e-08
1.30982e-09
4.62022e-08
1.28635e-09
4.56777e-08
1.26311e-09
4.51581e-08
1.23993e-09
4.46434e-08
1.21705e-09
4.41342e-08
1.19412e-09
4.36304e-08
1.17142e-09
4.31328e-08
1.14866e-09
4.2641e-08
1.12634e-09
4.21557e-08
1.10378e-09
4.16768e-08
1.08163e-09
4.12049e-08
1.05929e-09
4.07396e-08
1.03748e-09
4.02818e-08
1.01525e-09
3.98308e-08
9.93653e-10
3.93876e-08
9.71638e-10
3.89514e-08
9.50422e-10
3.85233e-08
9.28596e-10
3.81022e-08
9.07843e-10
3.76895e-08
8.86444e-10
3.72838e-08
8.66592e-10
3.68864e-08
8.46244e-10
3.64955e-08
8.28249e-10
3.61125e-08
8.09904e-10
3.57351e-08
7.94107e-10
3.53656e-08
7.76309e-10
3.50021e-08
7.59102e-10
3.46483e-08
7.36738e-10
3.43021e-08
7.1465e-10
3.39669e-08
6.89602e-10
3.36379e-08
6.70869e-10
3.33179e-08
6.52161e-10
3.30015e-08
6.4062e-10
3.26933e-08
6.25885e-10
3.23873e-08
6.17768e-10
3.20897e-08
6.0425e-10
3.17927e-08
5.99556e-10
3.15039e-08
5.87937e-10
3.12143e-08
5.85868e-10
5.83155e-10
7.34583e-08
2.04517e-09
-7.35818e-08
7.33768e-08
2.25657e-09
7.33453e-08
2.46677e-09
7.33631e-08
2.68321e-09
7.33915e-08
2.87217e-09
7.34111e-08
3.02325e-09
7.34201e-08
3.13855e-09
7.3429e-08
3.22825e-09
7.34448e-08
3.30946e-09
7.34689e-08
3.38336e-09
7.3496e-08
3.44529e-09
7.35192e-08
3.48998e-09
7.35334e-08
3.51404e-09
7.35348e-08
3.51608e-09
7.35197e-08
3.49605e-09
7.34847e-08
3.45484e-09
7.34264e-08
3.39423e-09
7.33422e-08
3.31687e-09
7.32307e-08
3.22631e-09
7.30917e-08
3.12694e-09
7.29266e-08
3.02365e-09
7.27379e-08
2.92121e-09
7.2529e-08
2.82365e-09
7.23033e-08
2.73393e-09
7.20642e-08
2.65377e-09
7.18144e-08
2.58376e-09
7.15558e-08
2.52374e-09
7.12899e-08
2.47286e-09
7.10176e-08
2.4299e-09
7.07397e-08
2.39358e-09
7.04566e-08
2.36271e-09
7.01686e-08
2.33615e-09
6.98754e-08
2.3129e-09
6.95768e-08
2.29197e-09
6.92724e-08
2.27263e-09
6.89618e-08
2.2542e-09
6.86445e-08
2.2363e-09
6.83203e-08
2.21852e-09
6.7989e-08
2.20073e-09
6.76505e-08
2.18271e-09
6.73045e-08
2.16454e-09
6.69511e-08
2.14606e-09
6.65901e-08
2.12743e-09
6.62216e-08
2.10847e-09
6.58455e-08
2.08943e-09
6.54621e-08
2.07014e-09
6.50714e-08
2.05089e-09
6.46736e-08
2.03146e-09
6.42689e-08
2.01215e-09
6.38575e-08
1.99266e-09
6.34394e-08
1.97338e-09
6.30152e-08
1.95391e-09
6.25848e-08
1.93467e-09
6.21488e-08
1.91521e-09
6.1707e-08
1.89602e-09
6.12602e-08
1.87652e-09
6.08081e-08
1.85734e-09
6.03515e-08
1.83764e-09
5.98904e-08
1.81826e-09
5.94254e-08
1.79833e-09
5.89565e-08
1.77877e-09
5.84843e-08
1.75848e-09
5.80088e-08
1.73861e-09
5.75309e-08
1.71789e-09
5.70502e-08
1.69774e-09
5.65678e-08
1.67649e-09
5.60835e-08
1.65577e-09
5.55983e-08
1.63385e-09
5.51117e-08
1.61289e-09
5.46251e-08
1.59036e-09
5.41379e-08
1.5689e-09
5.36514e-08
1.54577e-09
5.31649e-08
1.52399e-09
5.26801e-08
1.50003e-09
5.2196e-08
1.47776e-09
5.17145e-08
1.45316e-09
5.12342e-08
1.43072e-09
5.07573e-08
1.40547e-09
5.02822e-08
1.38296e-09
4.98114e-08
1.35723e-09
4.93428e-08
1.33517e-09
4.88793e-08
1.3098e-09
4.84177e-08
1.28977e-09
4.79612e-08
1.26645e-09
4.75058e-08
1.2495e-09
4.70556e-08
1.22649e-09
4.66075e-08
1.20724e-09
4.6168e-08
1.17621e-09
4.57338e-08
1.14883e-09
4.53108e-08
1.11262e-09
4.48912e-08
1.09043e-09
4.44802e-08
1.06316e-09
4.40696e-08
1.0513e-09
4.36672e-08
1.02825e-09
4.32645e-08
1.02049e-09
4.28711e-08
9.97598e-10
4.24768e-08
9.9386e-10
4.20919e-08
9.72844e-10
4.17044e-08
9.73405e-10
9.61933e-10
7.95722e-08
2.1734e-09
-7.97004e-08
7.94743e-08
2.35442e-09
7.94121e-08
2.529e-09
7.939e-08
2.7053e-09
7.93893e-08
2.87292e-09
7.93931e-08
3.01938e-09
7.93941e-08
3.13763e-09
7.93901e-08
3.23222e-09
7.93878e-08
3.31179e-09
7.93907e-08
3.38044e-09
7.93975e-08
3.43848e-09
7.94038e-08
3.48364e-09
7.94049e-08
3.51295e-09
7.93968e-08
3.52424e-09
7.93761e-08
3.51672e-09
7.934e-08
3.49088e-09
7.92861e-08
3.44816e-09
7.92123e-08
3.39069e-09
7.91173e-08
3.32135e-09
7.90007e-08
3.24351e-09
7.88634e-08
3.16097e-09
7.87072e-08
3.0774e-09
7.85346e-08
2.9962e-09
7.83487e-08
2.9199e-09
7.8152e-08
2.8504e-09
7.79472e-08
2.78856e-09
7.77362e-08
2.73472e-09
7.75207e-08
2.68839e-09
7.73017e-08
2.64891e-09
7.70801e-08
2.61523e-09
7.68562e-08
2.58654e-09
7.66306e-08
2.56182e-09
7.6403e-08
2.54044e-09
7.61735e-08
2.52146e-09
7.59417e-08
2.50446e-09
7.57073e-08
2.48865e-09
7.54697e-08
2.47385e-09
7.52288e-08
2.45943e-09
7.4984e-08
2.44548e-09
7.47353e-08
2.43148e-09
7.44821e-08
2.41775e-09
7.42243e-08
2.40381e-09
7.39616e-08
2.39014e-09
7.36939e-08
2.37616e-09
7.34209e-08
2.36248e-09
7.31425e-08
2.3485e-09
7.28585e-08
2.3349e-09
7.2569e-08
2.32098e-09
7.22736e-08
2.30753e-09
7.19726e-08
2.2937e-09
7.16655e-08
2.28044e-09
7.13527e-08
2.26671e-09
7.10338e-08
2.25359e-09
7.07091e-08
2.23987e-09
7.03783e-08
2.22688e-09
7.00416e-08
2.21315e-09
6.96987e-08
2.20024e-09
6.93501e-08
2.18627e-09
6.89952e-08
2.17318e-09
6.86347e-08
2.15883e-09
6.8268e-08
2.14546e-09
6.78959e-08
2.13056e-09
6.75177e-08
2.11683e-09
6.71343e-08
2.10134e-09
6.67448e-08
2.08724e-09
6.63503e-08
2.07095e-09
6.595e-08
2.05608e-09
6.55452e-08
2.03866e-09
6.51348e-08
2.02325e-09
6.47204e-08
2.00475e-09
6.43007e-08
1.98861e-09
6.38774e-08
1.96911e-09
6.34489e-08
1.95242e-09
6.30175e-08
1.93148e-09
6.25815e-08
1.91379e-09
6.21433e-08
1.89134e-09
6.1701e-08
1.87302e-09
6.12572e-08
1.84927e-09
6.08094e-08
1.83072e-09
6.03609e-08
1.80574e-09
5.99091e-08
1.78702e-09
5.94576e-08
1.7613e-09
5.90028e-08
1.74455e-09
5.85479e-08
1.72133e-09
5.80878e-08
1.70959e-09
5.76269e-08
1.68747e-09
5.71616e-08
1.67249e-09
5.67009e-08
1.6369e-09
5.62424e-08
1.60737e-09
5.57926e-08
1.56243e-09
5.53424e-08
1.54056e-09
5.48962e-08
1.50939e-09
5.44455e-08
1.50195e-09
5.39982e-08
1.47557e-09
5.35471e-08
1.47164e-09
5.31015e-08
1.44319e-09
5.26533e-08
1.44202e-09
5.22113e-08
1.41491e-09
5.17653e-08
1.41934e-09
1.40408e-09
8.61683e-08
2.30793e-09
-8.63029e-08
8.60568e-08
2.4659e-09
8.5972e-08
2.6138e-09
8.5915e-08
2.76232e-09
8.58813e-08
2.90668e-09
8.58608e-08
3.03985e-09
8.58428e-08
3.15559e-09
8.58227e-08
3.25233e-09
8.58019e-08
3.33265e-09
8.57825e-08
3.39985e-09
8.5765e-08
3.45596e-09
8.57476e-08
3.501e-09
8.5727e-08
3.53362e-09
8.56992e-08
3.552e-09
8.56609e-08
3.55502e-09
8.56093e-08
3.54248e-09
8.55421e-08
3.51532e-09
8.54577e-08
3.47509e-09
8.5355e-08
3.42411e-09
8.52336e-08
3.36488e-09
8.50942e-08
3.30041e-09
8.49381e-08
3.23348e-09
8.47673e-08
3.16696e-09
8.45843e-08
3.10297e-09
8.43913e-08
3.04342e-09
8.41906e-08
2.98921e-09
8.39843e-08
2.94106e-09
8.37739e-08
2.89871e-09
8.35608e-08
2.86206e-09
8.33458e-08
2.83022e-09
8.31295e-08
2.80283e-09
8.29124e-08
2.7789e-09
8.26947e-08
2.75819e-09
8.24764e-08
2.73972e-09
8.22575e-08
2.72341e-09
8.20378e-08
2.70834e-09
8.1817e-08
2.69465e-09
8.1595e-08
2.68145e-09
8.13713e-08
2.66914e-09
8.11459e-08
2.65685e-09
8.09184e-08
2.64525e-09
8.06888e-08
2.63344e-09
8.04566e-08
2.62232e-09
8.0222e-08
2.61084e-09
7.99843e-08
2.6001e-09
7.97439e-08
2.58893e-09
7.95002e-08
2.57859e-09
7.92535e-08
2.56773e-09
7.90032e-08
2.55782e-09
7.87496e-08
2.54728e-09
7.84922e-08
2.53782e-09
7.82313e-08
2.52758e-09
7.79664e-08
2.5185e-09
7.76979e-08
2.50844e-09
7.7425e-08
2.49972e-09
7.71483e-08
2.48984e-09
7.68671e-08
2.48148e-09
7.65818e-08
2.47157e-09
7.62917e-08
2.4633e-09
7.59973e-08
2.45317e-09
7.5698e-08
2.44479e-09
7.53944e-08
2.4342e-09
7.50855e-08
2.4257e-09
7.47722e-08
2.41467e-09
7.44534e-08
2.40605e-09
7.413e-08
2.39434e-09
7.38008e-08
2.38521e-09
7.34671e-08
2.37238e-09
7.31276e-08
2.36274e-09
7.27837e-08
2.34867e-09
7.24338e-08
2.33847e-09
7.20795e-08
2.32343e-09
7.17191e-08
2.31286e-09
7.13542e-08
2.29636e-09
7.09831e-08
2.28487e-09
7.0608e-08
2.26647e-09
7.0227e-08
2.25396e-09
6.98425e-08
2.23377e-09
6.94521e-08
2.2212e-09
6.9058e-08
2.19984e-09
6.8658e-08
2.18699e-09
6.82554e-08
2.1639e-09
6.78475e-08
2.1525e-09
6.74359e-08
2.13285e-09
6.70153e-08
2.13022e-09
6.65878e-08
2.11501e-09
6.61509e-08
2.10936e-09
6.57136e-08
2.07421e-09
6.52779e-08
2.04301e-09
6.48489e-08
1.99149e-09
6.44188e-08
1.97065e-09
6.39864e-08
1.94179e-09
6.35465e-08
1.94181e-09
6.31019e-08
1.92016e-09
6.2652e-08
1.92154e-09
6.22001e-08
1.89516e-09
6.17458e-08
1.8963e-09
6.12909e-08
1.86978e-09
6.08358e-08
1.87449e-09
1.86375e-09
9.32857e-08
2.45165e-09
-9.34295e-08
9.31593e-08
2.59234e-09
9.30533e-08
2.71976e-09
9.29684e-08
2.84723e-09
9.2903e-08
2.97208e-09
9.28523e-08
3.09053e-09
9.28093e-08
3.19862e-09
9.27684e-08
3.29329e-09
9.27272e-08
3.37381e-09
9.26858e-08
3.44128e-09
9.26443e-08
3.49744e-09
9.26022e-08
3.54311e-09
9.25575e-08
3.57831e-09
9.25074e-08
3.60211e-09
9.24486e-08
3.61374e-09
9.23785e-08
3.61263e-09
9.22945e-08
3.59926e-09
9.21952e-08
3.57446e-09
9.20793e-08
3.53996e-09
9.19468e-08
3.49742e-09
9.17979e-08
3.44925e-09
9.16339e-08
3.39753e-09
9.14561e-08
3.34475e-09
9.12665e-08
3.29259e-09
9.1067e-08
3.24291e-09
9.08597e-08
3.19652e-09
9.06463e-08
3.15442e-09
9.04286e-08
3.11647e-09
9.02076e-08
3.08304e-09
8.99844e-08
3.05338e-09
8.97597e-08
3.02757e-09
8.95339e-08
3.00463e-09
8.93075e-08
2.98466e-09
8.90805e-08
2.96665e-09
8.88531e-08
2.95084e-09
8.86253e-08
2.93616e-09
8.83968e-08
2.9231e-09
8.81678e-08
2.91051e-09
8.79378e-08
2.89913e-09
8.77069e-08
2.88776e-09
8.74747e-08
2.87742e-09
8.72413e-08
2.8668e-09
8.70064e-08
2.85721e-09
8.67701e-08
2.84714e-09
8.65321e-08
2.83818e-09
8.62924e-08
2.82863e-09
8.60507e-08
2.82028e-09
8.58072e-08
2.81121e-09
8.55616e-08
2.80346e-09
8.5314e-08
2.79485e-09
8.50641e-08
2.78771e-09
8.48121e-08
2.77953e-09
8.45577e-08
2.77295e-09
8.43011e-08
2.76508e-09
8.40417e-08
2.75903e-09
8.37801e-08
2.75147e-09
8.35156e-08
2.74599e-09
8.32486e-08
2.73857e-09
8.29785e-08
2.73343e-09
8.27057e-08
2.72598e-09
8.24295e-08
2.72093e-09
8.21506e-08
2.71316e-09
8.18681e-08
2.70821e-09
8.15825e-08
2.70021e-09
8.12932e-08
2.69538e-09
8.10006e-08
2.68689e-09
8.07039e-08
2.68194e-09
8.04037e-08
2.67255e-09
8.00992e-08
2.66728e-09
7.97912e-08
2.65665e-09
7.94787e-08
2.65105e-09
7.91624e-08
2.63968e-09
7.88413e-08
2.63396e-09
7.85163e-08
2.62138e-09
7.81861e-08
2.61508e-09
7.78517e-08
2.60082e-09
7.75123e-08
2.59337e-09
7.71691e-08
2.57695e-09
7.6821e-08
2.56938e-09
7.64687e-08
2.55215e-09
7.61111e-08
2.54459e-09
7.57498e-08
2.52516e-09
7.53843e-08
2.51797e-09
7.50142e-08
2.503e-09
7.46338e-08
2.51055e-09
7.42432e-08
2.50571e-09
7.38438e-08
2.50876e-09
7.34409e-08
2.47709e-09
7.30397e-08
2.44424e-09
7.26418e-08
2.3893e-09
7.22439e-08
2.36858e-09
7.18391e-08
2.34663e-09
7.14263e-08
2.35455e-09
7.1004e-08
2.34245e-09
7.05758e-08
2.34974e-09
7.01399e-08
2.33113e-09
6.97019e-08
2.33431e-09
6.92585e-08
2.31313e-09
6.88203e-08
2.31268e-09
2.30818e-09
1.00965e-07
2.60947e-09
-1.01123e-07
1.00821e-07
2.73605e-09
1.00695e-07
2.84615e-09
1.00585e-07
2.95696e-09
1.00491e-07
3.06645e-09
1.0041e-07
3.17183e-09
1.00338e-07
3.27046e-09
1.00271e-07
3.35984e-09
1.00206e-07
3.43853e-09
1.00142e-07
3.50607e-09
1.00076e-07
3.56316e-09
1.00009e-07
3.61035e-09
9.99388e-08
3.64818e-09
9.98645e-08
3.67642e-09
9.97833e-08
3.69495e-09
9.96926e-08
3.70333e-09
9.95899e-08
3.7019e-09
9.94735e-08
3.69089e-09
9.93423e-08
3.67113e-09
9.91962e-08
3.64356e-09
9.90353e-08
3.61019e-09
9.88603e-08
3.57252e-09
9.86723e-08
3.53271e-09
9.84729e-08
3.49201e-09
9.82636e-08
3.45219e-09
9.80462e-08
3.41389e-09
9.78224e-08
3.3783e-09
9.75935e-08
3.34536e-09
9.73607e-08
3.31576e-09
9.71252e-08
3.28892e-09
9.68876e-08
3.26522e-09
9.66484e-08
3.2438e-09
9.64081e-08
3.22501e-09
9.61669e-08
3.20785e-09
9.59249e-08
3.19281e-09
9.56823e-08
3.17877e-09
9.54389e-08
3.16643e-09
9.51949e-08
3.15453e-09
9.495e-08
3.14404e-09
9.47042e-08
3.13353e-09
9.44573e-08
3.1243e-09
9.42094e-08
3.11473e-09
9.39602e-08
3.10643e-09
9.37098e-08
3.09756e-09
9.34579e-08
3.09007e-09
9.32047e-08
3.08185e-09
9.29499e-08
3.07509e-09
9.26936e-08
3.06746e-09
9.24357e-08
3.06139e-09
9.21762e-08
3.05432e-09
9.1915e-08
3.04893e-09
9.16522e-08
3.04235e-09
9.13875e-08
3.03762e-09
9.11211e-08
3.03142e-09
9.08529e-08
3.02731e-09
9.05828e-08
3.02149e-09
9.03108e-08
3.01805e-09
9.00369e-08
3.01246e-09
8.97608e-08
3.00951e-09
8.94827e-08
3.00404e-09
8.92024e-08
3.0013e-09
8.89199e-08
2.99564e-09
8.8635e-08
2.99312e-09
8.83478e-08
2.98737e-09
8.80581e-08
2.98514e-09
8.7766e-08
2.97899e-09
8.7471e-08
2.97694e-09
8.71734e-08
2.97014e-09
8.68727e-08
2.96797e-09
8.65693e-08
2.96e-09
8.62627e-08
2.95767e-09
8.59532e-08
2.94921e-09
8.56403e-08
2.94686e-09
8.53242e-08
2.93748e-09
8.50044e-08
2.93483e-09
8.4681e-08
2.92424e-09
8.43537e-08
2.92068e-09
8.40228e-08
2.90788e-09
8.36881e-08
2.90402e-09
8.33495e-08
2.89074e-09
8.30068e-08
2.88729e-09
8.266e-08
2.87197e-09
8.23094e-08
2.86864e-09
8.19533e-08
2.85902e-09
8.15953e-08
2.86859e-09
8.12364e-08
2.86456e-09
8.08753e-08
2.86986e-09
8.05071e-08
2.84533e-09
8.01305e-08
2.82083e-09
7.97451e-08
2.77474e-09
7.93527e-08
2.76096e-09
7.89528e-08
2.74656e-09
7.85495e-08
2.75779e-09
7.81398e-08
2.75216e-09
7.77267e-08
2.76283e-09
7.73071e-08
2.75076e-09
7.68835e-08
2.75788e-09
7.64544e-08
2.74225e-09
7.60274e-08
2.7397e-09
2.73558e-09
1.0924e-07
2.77681e-09
-1.09407e-07
1.09085e-07
2.89077e-09
1.0894e-07
2.99118e-09
1.08806e-07
3.09074e-09
1.08684e-07
3.18831e-09
1.08574e-07
3.28253e-09
1.08472e-07
3.37198e-09
1.08377e-07
3.45494e-09
1.08285e-07
3.53022e-09
1.08195e-07
3.59684e-09
1.08103e-07
3.65469e-09
1.0801e-07
3.70366e-09
1.07914e-07
3.74422e-09
1.07814e-07
3.77636e-09
1.07708e-07
3.80049e-09
1.07595e-07
3.81659e-09
1.07471e-07
3.8254e-09
1.07336e-07
3.82663e-09
1.07187e-07
3.81958e-09
1.07026e-07
3.80512e-09
1.06851e-07
3.785e-09
1.06663e-07
3.7602e-09
1.06463e-07
3.73254e-09
1.06253e-07
3.70288e-09
1.06032e-07
3.6728e-09
1.05803e-07
3.64283e-09
1.05567e-07
3.61416e-09
1.05326e-07
3.58685e-09
1.0508e-07
3.56172e-09
1.0483e-07
3.53839e-09
1.04578e-07
3.51744e-09
1.04324e-07
3.49818e-09
1.04067e-07
3.48111e-09
1.0381e-07
3.46535e-09
1.03551e-07
3.4515e-09
1.03292e-07
3.4385e-09
1.03031e-07
3.42718e-09
1.02769e-07
3.41623e-09
1.02506e-07
3.40681e-09
1.02243e-07
3.39733e-09
1.01978e-07
3.38931e-09
1.01711e-07
3.38089e-09
1.01444e-07
3.37395e-09
1.01175e-07
3.36637e-09
1.00905e-07
3.36033e-09
1.00633e-07
3.35352e-09
1.0036e-07
3.3483e-09
1.00085e-07
3.34217e-09
9.98089e-08
3.3377e-09
9.9531e-08
3.33222e-09
9.92515e-08
3.32846e-09
9.89703e-08
3.3235e-09
9.86875e-08
3.32046e-09
9.8403e-08
3.31593e-09
9.81167e-08
3.31356e-09
9.78288e-08
3.30943e-09
9.75391e-08
3.30779e-09
9.72476e-08
3.30396e-09
9.69542e-08
3.30287e-09
9.6659e-08
3.29926e-09
9.63618e-08
3.29846e-09
9.60627e-08
3.29477e-09
9.57615e-08
3.29425e-09
9.54583e-08
3.29057e-09
9.5153e-08
3.29045e-09
9.48457e-08
3.28637e-09
9.4536e-08
3.28664e-09
9.4224e-08
3.28208e-09
9.39096e-08
3.28241e-09
9.35928e-08
3.27682e-09
9.32733e-08
3.27709e-09
9.29513e-08
3.27122e-09
9.26267e-08
3.27148e-09
9.22993e-08
3.26494e-09
9.1969e-08
3.26507e-09
9.16354e-08
3.25781e-09
9.12986e-08
3.25751e-09
9.09581e-08
3.24843e-09
9.06141e-08
3.24801e-09
9.02658e-08
3.23899e-09
8.9913e-08
3.24005e-09
8.95544e-08
3.23059e-09
8.91915e-08
3.23158e-09
8.88293e-08
3.22126e-09
8.84772e-08
3.22069e-09
8.81397e-08
3.20204e-09
8.78108e-08
3.19874e-09
8.74734e-08
3.18277e-09
8.71105e-08
3.18367e-09
8.67151e-08
3.17011e-09
8.62991e-08
3.17701e-09
8.58759e-08
3.16974e-09
8.54548e-08
3.17889e-09
8.50373e-08
3.16971e-09
8.46213e-08
3.17884e-09
8.42045e-08
3.16747e-09
8.37842e-08
3.17822e-09
8.33583e-08
3.16817e-09
8.29168e-08
3.1812e-09
3.16236e-09
6.85363e-08
2.65572e-09
-6.84153e-08
6.86697e-08
2.7574e-09
6.88125e-08
2.84838e-09
6.89639e-08
2.93937e-09
6.91233e-08
3.02892e-09
6.92903e-08
3.11554e-09
6.94641e-08
3.19808e-09
6.96439e-08
3.27516e-09
6.98283e-08
3.34584e-09
7.0016e-08
3.40914e-09
7.02059e-08
3.46479e-09
7.03971e-08
3.51244e-09
7.0589e-08
3.5524e-09
7.07807e-08
3.58461e-09
7.09716e-08
3.60963e-09
7.11606e-08
3.62758e-09
7.13463e-08
3.63963e-09
7.15284e-08
3.64455e-09
7.17062e-08
3.64186e-09
7.1879e-08
3.63225e-09
7.20468e-08
3.61723e-09
7.22095e-08
3.59753e-09
7.23673e-08
3.57472e-09
7.25207e-08
3.54948e-09
7.26702e-08
3.52324e-09
7.28166e-08
3.49644e-09
7.29606e-08
3.47021e-09
7.31028e-08
3.44465e-09
7.32439e-08
3.42059e-09
7.33845e-08
3.39777e-09
7.35252e-08
3.3768e-09
7.36662e-08
3.35715e-09
7.3808e-08
3.33934e-09
7.39507e-08
3.32262e-09
7.40946e-08
3.30762e-09
7.42397e-08
3.29334e-09
7.43862e-08
3.28066e-09
7.45342e-08
3.26829e-09
7.46835e-08
3.25744e-09
7.48344e-08
3.2465e-09
7.49866e-08
3.23707e-09
7.51403e-08
3.2272e-09
7.52954e-08
3.21888e-09
7.54519e-08
3.20988e-09
7.56097e-08
3.20248e-09
7.5769e-08
3.19428e-09
7.59296e-08
3.1877e-09
7.60915e-08
3.18022e-09
7.62549e-08
3.17436e-09
7.64195e-08
3.16756e-09
7.65856e-08
3.16238e-09
7.6753e-08
3.15608e-09
7.69219e-08
3.15162e-09
7.70921e-08
3.14572e-09
7.72637e-08
3.14194e-09
7.74367e-08
3.13642e-09
7.76111e-08
3.13335e-09
7.7787e-08
3.12811e-09
7.79643e-08
3.12558e-09
7.8143e-08
3.12059e-09
7.83231e-08
3.11832e-09
7.85046e-08
3.11331e-09
7.86875e-08
3.1113e-09
7.88718e-08
3.10629e-09
7.90575e-08
3.10472e-09
7.92446e-08
3.09925e-09
7.94331e-08
3.09817e-09
7.96229e-08
3.09226e-09
7.9814e-08
3.09131e-09
8.00064e-08
3.08446e-09
8.02e-08
3.08346e-09
8.03947e-08
3.07646e-09
8.05909e-08
3.07535e-09
8.07879e-08
3.06788e-09
8.09863e-08
3.0667e-09
8.11853e-08
3.05877e-09
8.13853e-08
3.05758e-09
8.15854e-08
3.04829e-09
8.17861e-08
3.04732e-09
8.19866e-08
3.03852e-09
8.21869e-08
3.03978e-09
8.23859e-08
3.03152e-09
8.25855e-08
3.03197e-09
8.27898e-08
3.01704e-09
8.30082e-08
3.00228e-09
8.32477e-08
2.96252e-09
8.35009e-08
2.94552e-09
8.37511e-08
2.93261e-09
8.39807e-08
2.95404e-09
8.418e-08
2.97077e-09
8.4359e-08
2.99802e-09
8.45325e-08
2.99626e-09
8.47121e-08
2.9993e-09
8.49011e-08
2.98074e-09
8.50977e-08
2.98221e-09
8.52992e-08
2.96595e-09
8.55013e-08
2.97615e-09
8.57e-08
2.96942e-09
8.58794e-08
3.00185e-09
2.94885e-09
7.57489e-08
2.5165e-09
-7.56097e-08
7.58956e-08
2.61071e-09
7.60499e-08
2.69404e-09
7.62123e-08
2.77705e-09
7.63822e-08
2.85898e-09
7.65592e-08
2.93849e-09
7.67428e-08
3.01456e-09
7.69319e-08
3.086e-09
7.71257e-08
3.15206e-09
7.7323e-08
3.21184e-09
7.75228e-08
3.26504e-09
7.7724e-08
3.31114e-09
7.79261e-08
3.35038e-09
7.81281e-08
3.38258e-09
7.83294e-08
3.40836e-09
7.8529e-08
3.42796e-09
7.8726e-08
3.4426e-09
7.89204e-08
3.45018e-09
7.91112e-08
3.451e-09
7.9298e-08
3.44545e-09
7.94805e-08
3.43477e-09
7.96585e-08
3.4195e-09
7.98323e-08
3.40096e-09
8.00021e-08
3.37971e-09
8.01683e-08
3.35697e-09
8.03316e-08
3.33315e-09
8.04926e-08
3.30924e-09
8.06518e-08
3.28544e-09
8.08099e-08
3.26246e-09
8.09675e-08
3.24027e-09
8.11249e-08
3.21935e-09
8.12826e-08
3.19944e-09
8.1441e-08
3.18096e-09
8.16002e-08
3.16338e-09
8.17606e-08
3.14724e-09
8.19222e-08
3.13174e-09
8.20852e-08
3.11768e-09
8.22496e-08
3.10388e-09
8.24155e-08
3.09156e-09
8.25829e-08
3.0791e-09
8.27518e-08
3.06817e-09
8.29222e-08
3.05677e-09
8.30942e-08
3.04695e-09
8.32676e-08
3.03645e-09
8.34425e-08
3.02753e-09
8.3619e-08
3.01787e-09
8.37969e-08
3.00975e-09
8.39763e-08
3.00085e-09
8.41572e-08
2.99342e-09
8.43395e-08
2.98523e-09
8.45235e-08
2.97845e-09
8.47088e-08
2.97074e-09
8.48958e-08
2.96467e-09
8.50841e-08
2.95733e-09
8.52741e-08
2.95195e-09
8.54656e-08
2.94494e-09
8.56587e-08
2.94024e-09
8.58533e-08
2.93353e-09
8.60495e-08
2.92933e-09
8.62473e-08
2.92288e-09
8.64467e-08
2.91892e-09
8.66475e-08
2.91251e-09
8.685e-08
2.90876e-09
8.7054e-08
2.90232e-09
8.72597e-08
2.89904e-09
8.74668e-08
2.89208e-09
8.76757e-08
2.88936e-09
8.7886e-08
2.88195e-09
8.80979e-08
2.87941e-09
8.83111e-08
2.87119e-09
8.85261e-08
2.86854e-09
8.87422e-08
2.86029e-09
8.89602e-08
2.85739e-09
8.91793e-08
2.84881e-09
8.94001e-08
2.84584e-09
8.9622e-08
2.83692e-09
8.98453e-08
2.83425e-09
9.00693e-08
2.82433e-09
9.02944e-08
2.82215e-09
9.05204e-08
2.81261e-09
9.07478e-08
2.81237e-09
9.09762e-08
2.80307e-09
9.12071e-08
2.80106e-09
9.14425e-08
2.78169e-09
9.16883e-08
2.75643e-09
9.19416e-08
2.70929e-09
9.21988e-08
2.68826e-09
9.24521e-08
2.67936e-09
9.26952e-08
2.71092e-09
9.2923e-08
2.74302e-09
9.31425e-08
2.77848e-09
9.3362e-08
2.77673e-09
9.35868e-08
2.7745e-09
9.38185e-08
2.74912e-09
9.40558e-08
2.74487e-09
9.42972e-08
2.72458e-09
9.45409e-08
2.73238e-09
9.4787e-08
2.72332e-09
9.50367e-08
2.75214e-09
2.6924e-09
8.37121e-08
2.36047e-09
-8.35561e-08
8.38739e-08
2.44886e-09
8.4042e-08
2.52602e-09
8.42168e-08
2.60219e-09
8.43986e-08
2.6772e-09
8.45869e-08
2.75014e-09
8.47813e-08
2.82026e-09
8.49808e-08
2.88645e-09
8.51847e-08
2.94814e-09
8.53921e-08
3.00442e-09
8.56021e-08
3.05505e-09
8.58138e-08
3.09944e-09
8.60264e-08
3.13778e-09
8.62392e-08
3.16982e-09
8.64514e-08
3.19617e-09
8.66622e-08
3.21715e-09
8.68715e-08
3.23328e-09
8.7079e-08
3.24273e-09
8.72838e-08
3.2462e-09
8.74853e-08
3.24387e-09
8.76834e-08
3.23672e-09
8.78777e-08
3.22515e-09
8.80685e-08
3.21023e-09
8.82558e-08
3.19243e-09