/*--------------------------------*- C++ -*----------------------------------*\
| =========                 |                                                 |
| \\      /  F ield         | OpenFOAM: The Open Source CFD Toolbox           |
|  \\    /   O peration     | Version:  2.3.0                                 |
|   \\  /    A nd           | Web:      www.OpenFOAM.org                      |
|    \\/     M anipulation  |                                                 |
\*---------------------------------------------------------------------------*/
FoamFile
{
    version     2.0;
    format      ascii;
    class       volVectorField;
    location    "0.5";
    object      U;
}
// * * * * * * * * * * * * * * * * * * * * * * * * * * * * * * * * * * * * * //

dimensions      [0 1 -1 0 0 0 0];

internalField   nonuniform List<vector> 
2889
(
(0.173577 0.00566399 0)
(0.156964 0.00590254 0)
(0.141234 0.00557689 0)
(0.126267 0.00501872 0)
(0.112438 0.00437993 0)
(0.0999677 0.00372358 0)
(0.0888979 0.00308801 0)
(0.0792006 0.00250003 0)
(0.0708224 0.00197655 0)
(0.0636836 0.00152654 0)
(0.0576763 0.00115262 0)
(0.0526721 0.000852206 0)
(0.0485331 0.000618641 0)
(0.0451213 0.00044275 0)
(0.0423071 0.000314327 0)
(0.0399739 0.000223372 0)
(0.0380212 0.000160882 0)
(0.036366 0.000119248 0)
(0.0349414 9.23496e-05 0)
(0.0336956 7.547e-05 0)
(0.032589 6.51197e-05 0)
(0.0315924 5.88216e-05 0)
(0.0306839 5.48947e-05 0)
(0.0298479 5.22535e-05 0)
(0.0290728 5.0237e-05 0)
(0.02835 4.84712e-05 0)
(0.027673 4.67663e-05 0)
(0.0270368 4.50429e-05 0)
(0.0264374 4.32826e-05 0)
(0.0258714 4.1497e-05 0)
(0.025336 3.9709e-05 0)
(0.0248287 3.79428e-05 0)
(0.0243473 3.6219e-05 0)
(0.0238899 3.45533e-05 0)
(0.0234545 3.29559e-05 0)
(0.0230397 3.14328e-05 0)
(0.0226439 2.99864e-05 0)
(0.0222659 2.86165e-05 0)
(0.0219044 2.73213e-05 0)
(0.0215584 2.60979e-05 0)
(0.0212268 2.49425e-05 0)
(0.0209088 2.38515e-05 0)
(0.0206035 2.28206e-05 0)
(0.0203102 2.18462e-05 0)
(0.0200282 2.09243e-05 0)
(0.0197568 2.00515e-05 0)
(0.0194955 1.92244e-05 0)
(0.0192438 1.84398e-05 0)
(0.0190011 1.76949e-05 0)
(0.0187671 1.6987e-05 0)
(0.0185412 1.63136e-05 0)
(0.0183232 1.56724e-05 0)
(0.0181126 1.50613e-05 0)
(0.0179092 1.44782e-05 0)
(0.0177126 1.39213e-05 0)
(0.0175225 1.33889e-05 0)
(0.0173387 1.28795e-05 0)
(0.017161 1.23915e-05 0)
(0.016989 1.19235e-05 0)
(0.0168227 1.14744e-05 0)
(0.0166617 1.10428e-05 0)
(0.016506 1.06278e-05 0)
(0.0163554 1.02282e-05 0)
(0.0162097 9.84313e-06 0)
(0.0160688 9.47166e-06 0)
(0.0159325 9.11298e-06 0)
(0.0158007 8.76632e-06 0)
(0.0156733 8.43098e-06 0)
(0.0155503 8.10629e-06 0)
(0.0154314 7.79166e-06 0)
(0.0153167 7.48652e-06 0)
(0.0152061 7.19037e-06 0)
(0.0150994 6.90274e-06 0)
(0.0149967 6.62321e-06 0)
(0.0148978 6.3514e-06 0)
(0.0148027 6.08695e-06 0)
(0.0147114 5.82955e-06 0)
(0.0146238 5.57892e-06 0)
(0.0145399 5.33482e-06 0)
(0.0144596 5.09711e-06 0)
(0.0143829 4.86569e-06 0)
(0.0143098 4.64066e-06 0)
(0.0142402 4.42228e-06 0)
(0.0141741 4.21101e-06 0)
(0.0141115 4.00752e-06 0)
(0.0140522 3.81257e-06 0)
(0.0139964 3.62681e-06 0)
(0.0139438 3.45046e-06 0)
(0.0138945 3.28283e-06 0)
(0.0138484 3.12203e-06 0)
(0.0138054 2.96458e-06 0)
(0.0137657 2.8057e-06 0)
(0.0137292 2.6403e-06 0)
(0.013696 2.46512e-06 0)
(0.013666 2.28228e-06 0)
(0.0136392 2.10462e-06 0)
(0.0136152 1.96554e-06 0)
(0.0135932 1.92753e-06 0)
(0.0135738 1.92357e-06 0)
(0.0135225 8.16513e-06 0)
(0.192745 0.00906194 0)
(0.190449 0.00979727 0)
(0.18669 0.00969113 0)
(0.181678 0.00923592 0)
(0.175867 0.00862695 0)
(0.169622 0.007925 0)
(0.163179 0.00716778 0)
(0.156706 0.0063899 0)
(0.150337 0.00562109 0)
(0.144175 0.00488582 0)
(0.138289 0.00420328 0)
(0.132723 0.00358706 0)
(0.127499 0.0030448 0)
(0.122621 0.00257853 0)
(0.118085 0.00218564 0)
(0.113876 0.0018601 0)
(0.109975 0.00159381 0)
(0.106362 0.00137783 0)
(0.103012 0.00120328 0)
(0.0999039 0.00106205 0)
(0.097015 0.000947104 0)
(0.0943249 0.000852633 0)
(0.0918147 0.000774003 0)
(0.0894671 0.000707621 0)
(0.0872668 0.000650768 0)
(0.0852 0.000601411 0)
(0.0832544 0.000558044 0)
(0.0814192 0.000519552 0)
(0.0796847 0.000485102 0)
(0.0780424 0.000454063 0)
(0.0764847 0.000425946 0)
(0.0750048 0.000400366 0)
(0.0735967 0.000377007 0)
(0.072255 0.000355609 0)
(0.0709748 0.000335952 0)
(0.0697519 0.000317846 0)
(0.0685822 0.000301126 0)
(0.0674623 0.00028565 0)
(0.0663889 0.000271291 0)
(0.0653591 0.00025794 0)
(0.0643702 0.000245498 0)
(0.0634198 0.000233881 0)
(0.0625057 0.000223012 0)
(0.0616259 0.000212824 0)
(0.0607785 0.000203257 0)
(0.0599617 0.000194258 0)
(0.0591741 0.00018578 0)
(0.0584141 0.000177779 0)
(0.0576805 0.000170218 0)
(0.0569719 0.000163062 0)
(0.0562873 0.00015628 0)
(0.0556255 0.000149844 0)
(0.0549856 0.000143728 0)
(0.0543666 0.000137908 0)
(0.0537678 0.000132363 0)
(0.0531882 0.000127074 0)
(0.0526273 0.000122023 0)
(0.0520843 0.000117191 0)
(0.0515586 0.000112565 0)
(0.0510496 0.00010813 0)
(0.0505567 0.000103873 0)
(0.0500795 9.97818e-05 0)
(0.0496175 9.58446e-05 0)
(0.0491703 9.20511e-05 0)
(0.0487374 8.83917e-05 0)
(0.0483186 8.48572e-05 0)
(0.0479135 8.14392e-05 0)
(0.0475218 7.81298e-05 0)
(0.0471432 7.49219e-05 0)
(0.0467775 7.18086e-05 0)
(0.0464244 6.87838e-05 0)
(0.0460838 6.58415e-05 0)
(0.0457554 6.29766e-05 0)
(0.0454392 6.01841e-05 0)
(0.0451349 5.74595e-05 0)
(0.0448424 5.47987e-05 0)
(0.0445617 5.21982e-05 0)
(0.0442926 4.96546e-05 0)
(0.0440351 4.7165e-05 0)
(0.043789 4.47274e-05 0)
(0.0435544 4.23399e-05 0)
(0.0433311 4.00016e-05 0)
(0.0431191 3.77125e-05 0)
(0.0429184 3.5473e-05 0)
(0.0427288 3.32842e-05 0)
(0.0425504 3.11471e-05 0)
(0.042383 2.90622e-05 0)
(0.0422267 2.7028e-05 0)
(0.0420813 2.50405e-05 0)
(0.0419468 2.30926e-05 0)
(0.0418233 2.11746e-05 0)
(0.0417106 1.92766e-05 0)
(0.0416089 1.7394e-05 0)
(0.0415181 1.55358e-05 0)
(0.0414378 1.37376e-05 0)
(0.0413677 1.20813e-05 0)
(0.0413066 1.07329e-05 0)
(0.0412525 1.00258e-05 0)
(0.0412049 1.0992e-05 0)
(0.0411113 2.65657e-05 0)
(0.195705 0.00869887 0)
(0.196506 0.00980671 0)
(0.196754 0.0102434 0)
(0.196232 0.0102965 0)
(0.195014 0.0101081 0)
(0.19322 0.0097288 0)
(0.190946 0.00920095 0)
(0.188278 0.00857215 0)
(0.185307 0.00788757 0)
(0.182118 0.0071859 0)
(0.178787 0.00649842 0)
(0.175379 0.00584851 0)
(0.171945 0.00525153 0)
(0.168525 0.00471545 0)
(0.16515 0.00424218 0)
(0.16184 0.00382919 0)
(0.15861 0.00347118 0)
(0.155468 0.00316147 0)
(0.152418 0.0028931 0)
(0.149464 0.00265948 0)
(0.146604 0.0024548 0)
(0.143839 0.00227417 0)
(0.141165 0.00211357 0)
(0.138581 0.00196977 0)
(0.136085 0.0018402 0)
(0.133673 0.00172284 0)
(0.131343 0.00161604 0)
(0.129092 0.0015185 0)
(0.126918 0.00142912 0)
(0.124818 0.00134702 0)
(0.122789 0.00127141 0)
(0.120828 0.00120165 0)
(0.118934 0.00113716 0)
(0.117102 0.00107742 0)
(0.115332 0.001022 0)
(0.11362 0.000970488 0)
(0.111965 0.00092253 0)
(0.110364 0.000877806 0)
(0.108814 0.000836028 0)
(0.107314 0.00079694 0)
(0.105862 0.000760311 0)
(0.104455 0.000725932 0)
(0.103093 0.000693617 0)
(0.101773 0.000663198 0)
(0.100493 0.000634522 0)
(0.0992528 0.000607452 0)
(0.09805 0.000581863 0)
(0.0968833 0.000557642 0)
(0.0957514 0.000534687 0)
(0.094653 0.000512904 0)
(0.0935871 0.000492208 0)
(0.0925523 0.00047252 0)
(0.0915478 0.000453768 0)
(0.0905724 0.000435887 0)
(0.0896253 0.000418815 0)
(0.0887056 0.000402497 0)
(0.0878123 0.000386881 0)
(0.0869448 0.000371919 0)
(0.0861023 0.000357566 0)
(0.0852842 0.000343781 0)
(0.0844898 0.000330525 0)
(0.0837184 0.000317764 0)
(0.0829697 0.000305462 0)
(0.082243 0.00029359 0)
(0.0815379 0.000282118 0)
(0.080854 0.000271018 0)
(0.0801909 0.000260267 0)
(0.0795482 0.000249839 0)
(0.0789256 0.000239713 0)
(0.0783228 0.000229868 0)
(0.0777396 0.000220285 0)
(0.0771757 0.000210947 0)
(0.076631 0.000201836 0)
(0.0761053 0.000192937 0)
(0.0755984 0.000184237 0)
(0.0751102 0.000175722 0)
(0.0746406 0.000167381 0)
(0.0741896 0.000159203 0)
(0.0737571 0.000151179 0)
(0.073343 0.000143303 0)
(0.0729473 0.000135567 0)
(0.0725701 0.000127968 0)
(0.0722112 0.000120503 0)
(0.0718707 0.000113171 0)
(0.0715486 0.000105973 0)
(0.0712448 9.89071e-05 0)
(0.0709594 9.19732e-05 0)
(0.0706924 8.51669e-05 0)
(0.0704438 7.84804e-05 0)
(0.0702135 7.19034e-05 0)
(0.0700016 6.54253e-05 0)
(0.069808 5.90432e-05 0)
(0.0696326 5.27733e-05 0)
(0.0694751 4.66685e-05 0)
(0.069335 4.08421e-05 0)
(0.0692113 3.55041e-05 0)
(0.0691025 3.10364e-05 0)
(0.0690059 2.82218e-05 0)
(0.0689199 2.99716e-05 0)
(0.0687898 5.09638e-05 0)
(0.196731 0.00806267 0)
(0.197886 0.00920812 0)
(0.198987 0.00985013 0)
(0.199799 0.0101434 0)
(0.200274 0.0101925 0)
(0.200412 0.0100412 0)
(0.200216 0.00972398 0)
(0.199689 0.00928168 0)
(0.198855 0.00875548 0)
(0.197746 0.00818262 0)
(0.196404 0.00759488 0)
(0.19487 0.0070177 0)
(0.193182 0.00646967 0)
(0.191378 0.00596259 0)
(0.189489 0.00550233 0)
(0.187539 0.00509012 0)
(0.18555 0.00472393 0)
(0.183536 0.00439973 0)
(0.181511 0.0041126 0)
(0.179482 0.00385738 0)
(0.177455 0.00362923 0)
(0.175437 0.00342387 0)
(0.17343 0.00323765 0)
(0.171438 0.00306757 0)
(0.169463 0.00291121 0)
(0.167507 0.00276664 0)
(0.165572 0.00263234 0)
(0.163659 0.00250709 0)
(0.161771 0.00238992 0)
(0.159908 0.00228005 0)
(0.158072 0.0021768 0)
(0.156263 0.00207962 0)
(0.154482 0.00198804 0)
(0.15273 0.00190161 0)
(0.151008 0.00181998 0)
(0.149316 0.00174279 0)
(0.147653 0.00166975 0)
(0.146022 0.00160056 0)
(0.14442 0.00153496 0)
(0.14285 0.00147273 0)
(0.14131 0.00141363 0)
(0.1398 0.00135747 0)
(0.138321 0.00130405 0)
(0.136871 0.00125321 0)
(0.135452 0.00120478 0)
(0.134062 0.0011586 0)
(0.132701 0.00111455 0)
(0.131369 0.00107248 0)
(0.130066 0.00103228 0)
(0.128791 0.000993836 0)
(0.127543 0.000957037 0)
(0.126323 0.000921785 0)
(0.12513 0.000887986 0)
(0.123963 0.000855554 0)
(0.122823 0.000824405 0)
(0.121709 0.000794462 0)
(0.12062 0.000765652 0)
(0.119556 0.000737906 0)
(0.118517 0.000711159 0)
(0.117502 0.00068535 0)
(0.116512 0.000660421 0)
(0.115546 0.000636318 0)
(0.114603 0.000612988 0)
(0.113684 0.000590383 0)
(0.112787 0.000568456 0)
(0.111914 0.000547165 0)
(0.111064 0.000526466 0)
(0.110236 0.000506323 0)
(0.109431 0.000486698 0)
(0.108648 0.000467555 0)
(0.107888 0.000448864 0)
(0.10715 0.000430592 0)
(0.106434 0.000412712 0)
(0.10574 0.000395197 0)
(0.105068 0.000378022 0)
(0.104419 0.000361164 0)
(0.103792 0.000344604 0)
(0.103188 0.000328321 0)
(0.102606 0.000312301 0)
(0.102046 0.000296529 0)
(0.101509 0.000280995 0)
(0.100995 0.00026569 0)
(0.100504 0.000250608 0)
(0.100036 0.000235747 0)
(0.0995906 0.000221105 0)
(0.0991689 0.000206681 0)
(0.0987706 0.000192474 0)
(0.0983958 0.00017848 0)
(0.0980446 0.000164694 0)
(0.0977172 0.000151111 0)
(0.0974135 0.000137734 0)
(0.0971334 0.000124583 0)
(0.0968769 0.000111717 0)
(0.0966434 9.92529e-05 0)
(0.0964322 8.74022e-05 0)
(0.0962423 7.6519e-05 0)
(0.0960717 6.72113e-05 0)
(0.0959179 6.07232e-05 0)
(0.095779 6.11409e-05 0)
(0.0956012 8.25648e-05 0)
(0.197451 0.00755564 0)
(0.198473 0.00860617 0)
(0.199585 0.00927053 0)
(0.20062 0.00963651 0)
(0.20152 0.00978432 0)
(0.202261 0.00975346 0)
(0.202822 0.00957122 0)
(0.203182 0.00926834 0)
(0.203331 0.0088776 0)
(0.203272 0.00843014 0)
(0.203017 0.00795375 0)
(0.202585 0.00747185 0)
(0.201998 0.00700272 0)
(0.201279 0.00655912 0)
(0.20045 0.00614868 0)
(0.19953 0.00577473 0)
(0.198536 0.00543736 0)
(0.197483 0.00513449 0)
(0.19638 0.00486279 0)
(0.195237 0.00461844 0)
(0.194061 0.00439759 0)
(0.192855 0.00419668 0)
(0.191625 0.0040126 0)
(0.190373 0.00384276 0)
(0.189103 0.00368501 0)
(0.187817 0.00353765 0)
(0.186517 0.00339931 0)
(0.185205 0.0032689 0)
(0.183884 0.00314557 0)
(0.182556 0.00302861 0)
(0.181221 0.00291746 0)
(0.179883 0.00281163 0)
(0.178542 0.00271073 0)
(0.177201 0.00261439 0)
(0.17586 0.0025223 0)
(0.174522 0.00243421 0)
(0.173187 0.00234984 0)
(0.171856 0.00226899 0)
(0.170532 0.00219144 0)
(0.169214 0.00211701 0)
(0.167904 0.00204553 0)
(0.166604 0.00197682 0)
(0.165313 0.00191076 0)
(0.164032 0.00184719 0)
(0.162763 0.001786 0)
(0.161505 0.00172705 0)
(0.16026 0.00167024 0)
(0.159029 0.00161546 0)
(0.15781 0.00156261 0)
(0.156606 0.00151159 0)
(0.155417 0.00146232 0)
(0.154242 0.0014147 0)
(0.153083 0.00136866 0)
(0.15194 0.00132412 0)
(0.150812 0.00128099 0)
(0.149701 0.00123922 0)
(0.148607 0.00119872 0)
(0.147529 0.00115944 0)
(0.146468 0.00112131 0)
(0.145425 0.00108426 0)
(0.144399 0.00104824 0)
(0.143391 0.0010132 0)
(0.1424 0.000979071 0)
(0.141429 0.000945807 0)
(0.140475 0.000913357 0)
(0.13954 0.000881672 0)
(0.138624 0.000850705 0)
(0.137727 0.000820411 0)
(0.136849 0.000790748 0)
(0.135991 0.000761674 0)
(0.135152 0.000733151 0)
(0.134333 0.000705141 0)
(0.133535 0.00067761 0)
(0.132757 0.000650525 0)
(0.132001 0.000623855 0)
(0.131265 0.000597572 0)
(0.13055 0.00057165 0)
(0.129858 0.000546065 0)
(0.129187 0.000520798 0)
(0.128539 0.000495832 0)
(0.127914 0.000471152 0)
(0.127312 0.00044675 0)
(0.126733 0.000422618 0)
(0.126178 0.000398755 0)
(0.125647 0.000375159 0)
(0.125141 0.000351831 0)
(0.124659 0.000328774 0)
(0.124203 0.000305991 0)
(0.123771 0.000283485 0)
(0.123366 0.000261269 0)
(0.122986 0.000239372 0)
(0.122631 0.000217853 0)
(0.122302 0.000196826 0)
(0.121998 0.000176487 0)
(0.121719 0.000157152 0)
(0.121463 0.000139315 0)
(0.121228 0.000123784 0)
(0.121013 0.000112149 0)
(0.120817 0.000108822 0)
(0.120585 0.000125352 0)
(0.198054 0.00710984 0)
(0.198909 0.00804153 0)
(0.199882 0.00868018 0)
(0.200855 0.00906936 0)
(0.201777 0.00926498 0)
(0.202622 0.00930075 0)
(0.203368 0.00919993 0)
(0.203993 0.00898747 0)
(0.204484 0.00869047 0)
(0.204833 0.00833537 0)
(0.205044 0.00794623 0)
(0.205122 0.00754377 0)
(0.205079 0.00714471 0)
(0.204928 0.00676133 0)
(0.204684 0.00640162 0)
(0.20436 0.00606983 0)
(0.203969 0.00576726 0)
(0.20352 0.00549312 0)
(0.203022 0.00524529 0)
(0.202481 0.00502098 0)
(0.201903 0.00481718 0)
(0.201292 0.004631 0)
(0.200649 0.00445978 0)
(0.199978 0.00430126 0)
(0.199281 0.00415352 0)
(0.198559 0.004015 0)
(0.197813 0.00388443 0)
(0.197045 0.0037608 0)
(0.196257 0.00364328 0)
(0.195448 0.00353122 0)
(0.194622 0.00342408 0)
(0.193778 0.00332141 0)
(0.192918 0.00322286 0)
(0.192044 0.00312809 0)
(0.191156 0.00303684 0)
(0.190255 0.00294888 0)
(0.189344 0.00286399 0)
(0.188422 0.00278198 0)
(0.187491 0.0027027 0)
(0.186553 0.00262598 0)
(0.185607 0.00255169 0)
(0.184656 0.0024797 0)
(0.183699 0.00240991 0)
(0.182738 0.00234219 0)
(0.181775 0.00227646 0)
(0.180808 0.00221263 0)
(0.179841 0.0021506 0)
(0.178873 0.00209029 0)
(0.177905 0.00203163 0)
(0.176938 0.00197455 0)
(0.175973 0.00191898 0)
(0.17501 0.00186485 0)
(0.17405 0.0018121 0)
(0.173094 0.00176066 0)
(0.172143 0.00171048 0)
(0.171196 0.00166149 0)
(0.170255 0.00161366 0)
(0.169321 0.00156691 0)
(0.168393 0.0015212 0)
(0.167473 0.00147647 0)
(0.166561 0.00143268 0)
(0.165658 0.00138977 0)
(0.164764 0.0013477 0)
(0.163879 0.00130642 0)
(0.163004 0.00126589 0)
(0.162141 0.00122605 0)
(0.161288 0.00118687 0)
(0.160448 0.00114831 0)
(0.159619 0.00111033 0)
(0.158804 0.00107287 0)
(0.158002 0.00103592 0)
(0.157214 0.000999426 0)
(0.156441 0.000963359 0)
(0.155682 0.000927687 0)
(0.154939 0.000892379 0)
(0.154212 0.000857408 0)
(0.153502 0.000822747 0)
(0.15281 0.000788374 0)
(0.152135 0.000754271 0)
(0.151478 0.000720421 0)
(0.150841 0.000686813 0)
(0.150223 0.00065344 0)
(0.149625 0.000620299 0)
(0.149047 0.000587392 0)
(0.148491 0.000554722 0)
(0.147957 0.000522299 0)
(0.147445 0.000490133 0)
(0.146955 0.000458239 0)
(0.146489 0.00042664 0)
(0.146046 0.000395373 0)
(0.145627 0.0003645 0)
(0.145232 0.000334132 0)
(0.144861 0.000304445 0)
(0.144513 0.000275717 0)
(0.144189 0.000248363 0)
(0.143886 0.000222995 0)
(0.143604 0.000200565 0)
(0.143342 0.000182799 0)
(0.1431 0.000173652 0)
(0.142826 0.000180514 0)
(0.198568 0.00672029 0)
(0.199288 0.00754134 0)
(0.20012 0.00814072 0)
(0.200984 0.00853321 0)
(0.201832 0.00875392 0)
(0.202637 0.00882986 0)
(0.203378 0.00878159 0)
(0.204039 0.00863041 0)
(0.204607 0.00839941 0)
(0.205074 0.00811147 0)
(0.205439 0.0077876 0)
(0.205707 0.00744616 0)
(0.205883 0.00710222 0)
(0.205978 0.00676727 0)
(0.206 0.00644919 0)
(0.20596 0.00615269 0)
(0.205868 0.00587983 0)
(0.205731 0.00563074 0)
(0.205555 0.00540422 0)
(0.205347 0.00519831 0)
(0.205109 0.00501068 0)
(0.204845 0.00483897 0)
(0.204557 0.00468094 0)
(0.204247 0.00453461 0)
(0.203914 0.00439824 0)
(0.203561 0.0042704 0)
(0.203188 0.00414989 0)
(0.202796 0.00403573 0)
(0.202384 0.00392713 0)
(0.201954 0.00382345 0)
(0.201506 0.00372414 0)
(0.20104 0.00362878 0)
(0.200558 0.00353699 0)
(0.200059 0.00344846 0)
(0.199544 0.00336294 0)
(0.199014 0.00328019 0)
(0.198469 0.0032 0)
(0.19791 0.00312222 0)
(0.197338 0.00304667 0)
(0.196752 0.00297321 0)
(0.196155 0.00290173 0)
(0.195546 0.00283211 0)
(0.194926 0.00276425 0)
(0.194295 0.00269805 0)
(0.193655 0.00263343 0)
(0.193006 0.00257031 0)
(0.192348 0.00250861 0)
(0.191683 0.00244828 0)
(0.19101 0.00238924 0)
(0.19033 0.00233143 0)
(0.189645 0.0022748 0)
(0.188954 0.0022193 0)
(0.188259 0.00216487 0)
(0.187559 0.00211146 0)
(0.186856 0.00205903 0)
(0.18615 0.00200752 0)
(0.185442 0.0019569 0)
(0.184732 0.0019071 0)
(0.184021 0.0018581 0)
(0.183309 0.00180985 0)
(0.182598 0.0017623 0)
(0.181887 0.00171542 0)
(0.181178 0.00166915 0)
(0.18047 0.00162347 0)
(0.179766 0.00157833 0)
(0.179064 0.0015337 0)
(0.178366 0.00148952 0)
(0.177673 0.00144577 0)
(0.176985 0.00140242 0)
(0.176302 0.00135941 0)
(0.175626 0.00131673 0)
(0.174957 0.00127433 0)
(0.174296 0.00123219 0)
(0.173643 0.00119028 0)
(0.172999 0.00114856 0)
(0.172364 0.00110702 0)
(0.17174 0.00106563 0)
(0.171127 0.00102437 0)
(0.170526 0.000983229 0)
(0.169937 0.000942196 0)
(0.169361 0.000901262 0)
(0.168799 0.000860427 0)
(0.168251 0.000819693 0)
(0.167719 0.000779069 0)
(0.167202 0.000738569 0)
(0.166702 0.000698211 0)
(0.166219 0.000658018 0)
(0.165753 0.000618024 0)
(0.165306 0.000578274 0)
(0.164877 0.000538834 0)
(0.164468 0.000499809 0)
(0.164077 0.000461357 0)
(0.163706 0.000423721 0)
(0.163355 0.00038725 0)
(0.163022 0.000352443 0)
(0.162707 0.000319999 0)
(0.16241 0.000290933 0)
(0.162129 0.000266884 0)
(0.161869 0.000250783 0)
(0.161576 0.000245209 0)
(0.199005 0.00637779 0)
(0.19962 0.00710023 0)
(0.200333 0.00765407 0)
(0.20109 0.00803796 0)
(0.201851 0.00827156 0)
(0.202586 0.00837506 0)
(0.203276 0.0083659 0)
(0.203906 0.00826214 0)
(0.204464 0.00808331 0)
(0.204944 0.00784909 0)
(0.205344 0.00757786 0)
(0.205667 0.0072859 0)
(0.205916 0.00698684 0)
(0.2061 0.00669138 0)
(0.206227 0.00640723 0)
(0.206304 0.00613935 0)
(0.206339 0.00589039 0)
(0.20634 0.00566118 0)
(0.206311 0.0054513 0)
(0.206258 0.00525949 0)
(0.206184 0.00508406 0)
(0.206092 0.00492315 0)
(0.205983 0.00477491 0)
(0.20586 0.00463764 0)
(0.205722 0.00450982 0)
(0.20557 0.00439014 0)
(0.205405 0.00427748 0)
(0.205227 0.00417094 0)
(0.205036 0.00406973 0)
(0.204832 0.00397322 0)
(0.204616 0.00388089 0)
(0.204386 0.00379228 0)
(0.204145 0.00370703 0)
(0.203891 0.00362481 0)
(0.203625 0.00354537 0)
(0.203347 0.00346845 0)
(0.203056 0.00339385 0)
(0.202754 0.0033214 0)
(0.202441 0.00325093 0)
(0.202116 0.0031823 0)
(0.20178 0.00311538 0)
(0.201433 0.00305005 0)
(0.201075 0.00298621 0)
(0.200707 0.00292377 0)
(0.200329 0.00286264 0)
(0.19994 0.00280274 0)
(0.199543 0.002744 0)
(0.199136 0.00268636 0)
(0.19872 0.00262974 0)
(0.198295 0.0025741 0)
(0.197862 0.00251937 0)
(0.197422 0.0024655 0)
(0.196974 0.00241245 0)
(0.196518 0.00236017 0)
(0.196056 0.0023086 0)
(0.195588 0.0022577 0)
(0.195113 0.00220744 0)
(0.194633 0.00215776 0)
(0.194148 0.00210863 0)
(0.193659 0.00206001 0)
(0.193165 0.00201184 0)
(0.192667 0.00196411 0)
(0.192166 0.00191675 0)
(0.191663 0.00186974 0)
(0.191157 0.00182304 0)
(0.190649 0.00177661 0)
(0.19014 0.00173042 0)
(0.18963 0.00168442 0)
(0.189121 0.00163858 0)
(0.188611 0.00159287 0)
(0.188103 0.00154725 0)
(0.187596 0.0015017 0)
(0.187091 0.00145618 0)
(0.186589 0.00141067 0)
(0.18609 0.00136514 0)
(0.185595 0.00131957 0)
(0.185105 0.00127393 0)
(0.18462 0.00122822 0)
(0.184141 0.00118242 0)
(0.183669 0.00113652 0)
(0.183204 0.00109052 0)
(0.182746 0.00104443 0)
(0.182298 0.000998253 0)
(0.181858 0.000952006 0)
(0.181428 0.000905712 0)
(0.181009 0.000859402 0)
(0.180601 0.000813114 0)
(0.180205 0.000766898 0)
(0.179821 0.000720825 0)
(0.179449 0.000674992 0)
(0.179091 0.000629541 0)
(0.178746 0.000584679 0)
(0.178414 0.000540702 0)
(0.178096 0.00049802 0)
(0.177791 0.00045719 0)
(0.1775 0.000418957 0)
(0.177221 0.00038432 0)
(0.176955 0.000354657 0)
(0.176705 0.000331646 0)
(0.176424 0.00031364 0)
(0.199376 0.00607093 0)
(0.199908 0.00670706 0)
(0.200523 0.00721389 0)
(0.201185 0.00758237 0)
(0.201862 0.0078215 0)
(0.202526 0.00794511 0)
(0.203158 0.00796719 0)
(0.203742 0.00790267 0)
(0.204268 0.00776786 0)
(0.20473 0.00757949 0)
(0.205126 0.00735355 0)
(0.205457 0.0071044 0)
(0.205726 0.00684435 0)
(0.205939 0.00658332 0)
(0.206102 0.00632872 0)
(0.206224 0.00608567 0)
(0.206309 0.00585721 0)
(0.206366 0.00564477 0)
(0.206398 0.00544856 0)
(0.20641 0.00526797 0)
(0.206406 0.00510186 0)
(0.206388 0.00494885 0)
(0.206359 0.0048075 0)
(0.206319 0.00467638 0)
(0.206271 0.00455422 0)
(0.206213 0.00443985 0)
(0.206148 0.00433229 0)
(0.206075 0.00423067 0)
(0.205994 0.00413427 0)
(0.205905 0.00404249 0)
(0.205809 0.00395481 0)
(0.205706 0.0038708 0)
(0.205595 0.00379009 0)
(0.205476 0.00371236 0)
(0.205351 0.00363733 0)
(0.205217 0.00356476 0)
(0.205076 0.00349445 0)
(0.204927 0.0034262 0)
(0.204771 0.00335986 0)
(0.204607 0.00329526 0)
(0.204435 0.00323228 0)
(0.204256 0.0031708 0)
(0.204069 0.00311071 0)
(0.203875 0.0030519 0)
(0.203673 0.00299429 0)
(0.203464 0.00293779 0)
(0.203247 0.00288233 0)
(0.203023 0.00282783 0)
(0.202791 0.00277422 0)
(0.202553 0.00272145 0)
(0.202307 0.00266945 0)
(0.202054 0.00261817 0)
(0.201795 0.00256754 0)
(0.201528 0.00251753 0)
(0.201256 0.00246808 0)
(0.200976 0.00241914 0)
(0.200691 0.00237066 0)
(0.2004 0.00232261 0)
(0.200103 0.00227492 0)
(0.199801 0.00222757 0)
(0.199493 0.0021805 0)
(0.19918 0.00213367 0)
(0.198863 0.00208705 0)
(0.198541 0.00204058 0)
(0.198215 0.00199424 0)
(0.197885 0.00194797 0)
(0.197551 0.00190174 0)
(0.197215 0.00185552 0)
(0.196876 0.00180925 0)
(0.196534 0.00176292 0)
(0.19619 0.00171648 0)
(0.195845 0.0016699 0)
(0.195499 0.00162315 0)
(0.195152 0.0015762 0)
(0.194804 0.00152902 0)
(0.194457 0.00148159 0)
(0.194111 0.0014339 0)
(0.193765 0.00138592 0)
(0.193422 0.00133765 0)
(0.19308 0.00128908 0)
(0.192742 0.0012402 0)
(0.192407 0.00119104 0)
(0.192075 0.0011416 0)
(0.191748 0.0010919 0)
(0.191425 0.00104198 0)
(0.191108 0.000991867 0)
(0.190797 0.000941623 0)
(0.190493 0.000891313 0)
(0.190195 0.000841029 0)
(0.189904 0.000790895 0)
(0.18962 0.000741087 0)
(0.189345 0.00069185 0)
(0.189077 0.000643519 0)
(0.188817 0.000596547 0)
(0.188565 0.000551522 0)
(0.188321 0.000509193 0)
(0.188084 0.000470482 0)
(0.187857 0.000436427 0)
(0.187641 0.000407563 0)
(0.187392 0.000379531 0)
(0.199688 0.00579177 0)
(0.200154 0.00635356 0)
(0.200687 0.00681505 0)
(0.201268 0.00716439 0)
(0.201869 0.00740374 0)
(0.202466 0.00754163 0)
(0.20304 0.0075887 0)
(0.203577 0.00755701 0)
(0.204067 0.00746001 0)
(0.204504 0.00731175 0)
(0.204884 0.00712597 0)
(0.205208 0.00691526 0)
(0.205479 0.00669063 0)
(0.2057 0.00646114 0)
(0.205877 0.00623388 0)
(0.206016 0.00601391 0)
(0.206122 0.00580457 0)
(0.206202 0.00560772 0)
(0.20626 0.00542411 0)
(0.206299 0.00525363 0)
(0.206324 0.00509569 0)
(0.206338 0.00494933 0)
(0.206341 0.00481347 0)
(0.206337 0.00468701 0)
(0.206325 0.00456888 0)
(0.206307 0.00445811 0)
(0.206284 0.00435382 0)
(0.206256 0.00425526 0)
(0.206224 0.00416177 0)
(0.206187 0.00407279 0)
(0.206146 0.00398784 0)
(0.2061 0.0039065 0)
(0.206051 0.00382843 0)
(0.205997 0.00375331 0)
(0.20594 0.00368088 0)
(0.205878 0.00361089 0)
(0.205812 0.00354315 0)
(0.205743 0.00347747 0)
(0.205669 0.00341369 0)
(0.20559 0.00335164 0)
(0.205508 0.0032912 0)
(0.205421 0.00323225 0)
(0.20533 0.00317468 0)
(0.205235 0.00311837 0)
(0.205135 0.00306324 0)
(0.205031 0.00300921 0)
(0.204922 0.00295617 0)
(0.204808 0.00290407 0)
(0.20469 0.00285283 0)
(0.204567 0.00280238 0)
(0.20444 0.00275266 0)
(0.204308 0.0027036 0)
(0.204171 0.00265515 0)
(0.20403 0.00260725 0)
(0.203883 0.00255985 0)
(0.203733 0.00251288 0)
(0.203577 0.00246631 0)
(0.203418 0.00242007 0)
(0.203253 0.00237412 0)
(0.203085 0.00232841 0)
(0.202911 0.0022829 0)
(0.202734 0.00223752 0)
(0.202553 0.00219224 0)
(0.202367 0.00214702 0)
(0.202177 0.00210179 0)
(0.201984 0.00205653 0)
(0.201787 0.00201118 0)
(0.201587 0.00196571 0)
(0.201384 0.00192007 0)
(0.201177 0.00187422 0)
(0.200968 0.00182813 0)
(0.200756 0.00178175 0)
(0.200541 0.00173505 0)
(0.200325 0.00168801 0)
(0.200106 0.00164058 0)
(0.199886 0.00159275 0)
(0.199665 0.0015445 0)
(0.199443 0.0014958 0)
(0.19922 0.00144664 0)
(0.198997 0.00139702 0)
(0.198774 0.00134695 0)
(0.198552 0.00129642 0)
(0.19833 0.00124546 0)
(0.198109 0.00119408 0)
(0.19789 0.00114234 0)
(0.197672 0.00109027 0)
(0.197456 0.00103793 0)
(0.197243 0.000985412 0)
(0.197033 0.00093282 0)
(0.196825 0.000880302 0)
(0.196621 0.000828058 0)
(0.19642 0.000776359 0)
(0.196222 0.000725567 0)
(0.196027 0.000676153 0)
(0.195836 0.000628715 0)
(0.195649 0.000583971 0)
(0.195465 0.000542733 0)
(0.195285 0.000505711 0)
(0.195113 0.000472647 0)
(0.19491 0.000438254 0)
(0.199947 0.0055349 0)
(0.200359 0.00603319 0)
(0.200825 0.00645258 0)
(0.201335 0.006781 0)
(0.201869 0.00701663 0)
(0.202404 0.007164 0)
(0.202924 0.00723078 0)
(0.203416 0.00722646 0)
(0.20387 0.00716195 0)
(0.204279 0.00704892 0)
(0.20464 0.00689903 0)
(0.204953 0.0067232 0)
(0.205219 0.00653116 0)
(0.205441 0.00633114 0)
(0.205623 0.00612974 0)
(0.205771 0.00593194 0)
(0.205888 0.00574118 0)
(0.205979 0.00555966 0)
(0.20605 0.00538851 0)
(0.206103 0.00522808 0)
(0.206142 0.00507819 0)
(0.206169 0.0049383 0)
(0.206187 0.00480766 0)
(0.206198 0.00468546 0)
(0.206202 0.00457085 0)
(0.206201 0.00446304 0)
(0.206196 0.00436129 0)
(0.206186 0.00426495 0)
(0.206174 0.00417345 0)
(0.206158 0.00408627 0)
(0.206139 0.00400299 0)
(0.206118 0.00392322 0)
(0.206095 0.00384664 0)
(0.206069 0.00377295 0)
(0.206041 0.0037019 0)
(0.206011 0.00363327 0)
(0.205979 0.00356687 0)
(0.205945 0.00350251 0)
(0.205909 0.00344003 0)
(0.205871 0.0033793 0)
(0.20583 0.00332018 0)
(0.205788 0.00326255 0)
(0.205744 0.00320631 0)
(0.205698 0.00315134 0)
(0.205649 0.00309756 0)
(0.205599 0.00304489 0)
(0.205546 0.00299323 0)
(0.205491 0.00294251 0)
(0.205433 0.00289266 0)
(0.205374 0.0028436 0)
(0.205311 0.00279528 0)
(0.205247 0.00274763 0)
(0.205179 0.00270058 0)
(0.20511 0.00265407 0)
(0.205037 0.00260806 0)
(0.204962 0.00256247 0)
(0.204884 0.00251726 0)
(0.204804 0.00247237 0)
(0.204721 0.00242775 0)
(0.204635 0.00238334 0)
(0.204546 0.00233909 0)
(0.204455 0.00229496 0)
(0.20436 0.00225087 0)
(0.204263 0.0022068 0)
(0.204164 0.00216269 0)
(0.204061 0.00211848 0)
(0.203956 0.00207413 0)
(0.203849 0.0020296 0)
(0.203739 0.00198484 0)
(0.203626 0.0019398 0)
(0.203511 0.00189443 0)
(0.203393 0.00184871 0)
(0.203273 0.00180259 0)
(0.203152 0.00175604 0)
(0.203028 0.00170902 0)
(0.202902 0.0016615 0)
(0.202774 0.00161346 0)
(0.202645 0.00156488 0)
(0.202514 0.00151575 0)
(0.202382 0.00146605 0)
(0.202249 0.0014158 0)
(0.202115 0.00136499 0)
(0.20198 0.00131365 0)
(0.201844 0.0012618 0)
(0.201708 0.00120948 0)
(0.201572 0.00115675 0)
(0.201435 0.00110367 0)
(0.201299 0.00105033 0)
(0.201162 0.000996866 0)
(0.201026 0.00094343 0)
(0.20089 0.00089024 0)
(0.200754 0.000837584 0)
(0.200618 0.000785835 0)
(0.200483 0.000735468 0)
(0.200348 0.000687065 0)
(0.200213 0.000641297 0)
(0.200079 0.000598857 0)
(0.199947 0.00056021 0)
(0.199817 0.000524725 0)
(0.199659 0.000487634 0)
(0.200161 0.00529649 0)
(0.200527 0.00574071 0)
(0.200937 0.0061219 0)
(0.201386 0.00642905 0)
(0.20186 0.00665827 0)
(0.202339 0.00681129 0)
(0.20281 0.0068933 0)
(0.203258 0.00691157 0)
(0.203676 0.00687481 0)
(0.204058 0.00679258 0)
(0.204399 0.00667465 0)
(0.204699 0.00653039 0)
(0.204957 0.00636833 0)
(0.205177 0.00619584 0)
(0.205361 0.00601901 0)
(0.205512 0.0058426 0)
(0.205635 0.00567009 0)
(0.205734 0.00550386 0)
(0.205813 0.00534533 0)
(0.205875 0.00519522 0)
(0.205922 0.00505371 0)
(0.205958 0.00492058 0)
(0.205985 0.00479542 0)
(0.206004 0.00467764 0)
(0.206016 0.00456663 0)
(0.206023 0.00446178 0)
(0.206026 0.00436248 0)
(0.206025 0.0042682 0)
(0.206021 0.00417843 0)
(0.206014 0.00409275 0)
(0.206005 0.00401075 0)
(0.205994 0.00393211 0)
(0.205981 0.00385652 0)
(0.205966 0.00378372 0)
(0.20595 0.00371348 0)
(0.205933 0.00364558 0)
(0.205915 0.00357986 0)
(0.205896 0.00351614 0)
(0.205876 0.00345428 0)
(0.205854 0.00339413 0)
(0.205832 0.00333558 0)
(0.20581 0.00327851 0)
(0.205786 0.00322281 0)
(0.205761 0.0031684 0)
(0.205736 0.00311519 0)
(0.20571 0.00306307 0)
(0.205683 0.00301199 0)
(0.205655 0.00296186 0)
(0.205626 0.00291261 0)
(0.205597 0.00286417 0)
(0.205566 0.00281648 0)
(0.205534 0.00276947 0)
(0.205502 0.00272308 0)
(0.205468 0.00267726 0)
(0.205433 0.00263193 0)
(0.205398 0.00258705 0)
(0.205361 0.00254256 0)
(0.205322 0.00249839 0)
(0.205283 0.00245451 0)
(0.205242 0.00241084 0)
(0.2052 0.00236734 0)
(0.205156 0.00232395 0)
(0.205111 0.00228062 0)
(0.205065 0.00223729 0)
(0.205017 0.00219392 0)
(0.204968 0.00215045 0)
(0.204917 0.00210683 0)
(0.204864 0.00206301 0)
(0.20481 0.00201894 0)
(0.204755 0.00197458 0)
(0.204698 0.00192987 0)
(0.204639 0.00188478 0)
(0.204579 0.00183926 0)
(0.204517 0.00179328 0)
(0.204453 0.0017468 0)
(0.204388 0.00169979 0)
(0.204322 0.00165222 0)
(0.204254 0.00160407 0)
(0.204185 0.00155533 0)
(0.204114 0.00150599 0)
(0.204042 0.00145604 0)
(0.203968 0.00140549 0)
(0.203893 0.00135437 0)
(0.203817 0.0013027 0)
(0.203739 0.00125052 0)
(0.203661 0.00119789 0)
(0.203581 0.00114488 0)
(0.2035 0.0010916 0)
(0.203417 0.00103817 0)
(0.203333 0.000984773 0)
(0.203248 0.000931626 0)
(0.203162 0.000879024 0)
(0.203074 0.000827343 0)
(0.202984 0.000777047 0)
(0.202893 0.000728689 0)
(0.202801 0.000682886 0)
(0.202707 0.000640228 0)
(0.202613 0.000601033 0)