/*--------------------------------*- C++ -*----------------------------------*\
| =========                 |                                                 |
| \\      /  F ield         | OpenFOAM: The Open Source CFD Toolbox           |
|  \\    /   O peration     | Version:  2.3.0                                 |
|   \\  /    A nd           | Web:      www.OpenFOAM.org                      |
|    \\/     M anipulation  |                                                 |
\*---------------------------------------------------------------------------*/
FoamFile
{
    version     2.0;
    format      ascii;
    class       surfaceScalarField;
    location    "0.7";
    object      phi_0;
}
// * * * * * * * * * * * * * * * * * * * * * * * * * * * * * * * * * * * * * //

dimensions      [0 3 -1 0 0 0 0];

internalField   nonuniform List<scalar> 
6598
(
2.86377e-08
2.90244e-09
-3.15401e-08
2.57717e-08
2.866e-09
2.30853e-08
2.68645e-09
2.06092e-08
2.47606e-09
1.83597e-08
2.24951e-09
1.63472e-08
2.01247e-09
1.4574e-08
1.77327e-09
1.30344e-08
1.53952e-09
1.17168e-08
1.31764e-09
1.06039e-08
1.11288e-09
9.67478e-09
9.29131e-10
8.90612e-09
7.68663e-10
8.27399e-09
6.32131e-10
7.75524e-09
5.18748e-10
7.32861e-09
4.26623e-10
6.97546e-09
3.53155e-10
6.68004e-09
2.95424e-10
6.42952e-09
2.50514e-10
6.21378e-09
2.15737e-10
6.02502e-09
1.88767e-10
5.85733e-09
1.67687e-10
5.70635e-09
1.50983e-10
5.56885e-09
1.37501e-10
5.44246e-09
1.26384e-10
5.32545e-09
1.17015e-10
5.21649e-09
1.08957e-10
5.11459e-09
1.01903e-10
5.01894e-09
9.56412e-11
4.92892e-09
9.0022e-11
4.84398e-09
8.49404e-11
4.76366e-09
8.03194e-11
4.68756e-09
7.61006e-11
4.61532e-09
7.22379e-11
4.54663e-09
6.86931e-11
4.4812e-09
6.54339e-11
4.41877e-09
6.24318e-11
4.3591e-09
5.96616e-11
4.302e-09
5.7101e-11
4.24727e-09
5.47296e-11
4.19474e-09
5.25294e-11
4.14426e-09
5.0484e-11
4.09568e-09
4.8579e-11
4.04888e-09
4.68013e-11
4.00374e-09
4.51391e-11
3.96016e-09
4.35821e-11
3.91804e-09
4.21211e-11
3.87729e-09
4.07475e-11
3.83784e-09
3.94542e-11
3.7996e-09
3.82342e-11
3.76252e-09
3.70817e-11
3.72653e-09
3.59913e-11
3.69157e-09
3.49582e-11
3.65759e-09
3.3978e-11
3.62455e-09
3.30467e-11
3.59238e-09
3.21609e-11
3.56107e-09
3.13172e-11
3.53055e-09
3.05127e-11
3.50081e-09
2.97448e-11
3.4718e-09
2.90109e-11
3.44349e-09
2.83089e-11
3.41585e-09
2.76367e-11
3.38886e-09
2.69924e-11
3.36249e-09
2.63742e-11
3.33671e-09
2.57807e-11
3.3115e-09
2.52104e-11
3.28683e-09
2.46618e-11
3.2627e-09
2.41337e-11
3.23908e-09
2.3625e-11
3.21594e-09
2.31347e-11
3.19328e-09
2.26616e-11
3.17107e-09
2.22048e-11
3.14931e-09
2.17636e-11
3.12797e-09
2.13372e-11
3.10705e-09
2.09247e-11
3.08652e-09
2.05254e-11
3.06638e-09
2.01387e-11
3.04662e-09
1.97641e-11
3.02722e-09
1.94009e-11
3.00817e-09
1.90485e-11
2.98946e-09
1.87066e-11
2.97109e-09
1.83746e-11
2.95304e-09
1.80521e-11
2.9353e-09
1.77388e-11
2.91786e-09
1.74342e-11
2.90073e-09
1.71381e-11
2.88388e-09
1.685e-11
2.86731e-09
1.65698e-11
2.85101e-09
1.62973e-11
2.83498e-09
1.6032e-11
2.8192e-09
1.57739e-11
2.80368e-09
1.55229e-11
2.7884e-09
1.52789e-11
2.77336e-09
1.50424e-11
2.75855e-09
1.48145e-11
2.74395e-09
1.45995e-11
2.72954e-09
1.44102e-11
2.71525e-09
1.42902e-11
2.70092e-09
1.43275e-11
2.68603e-09
1.48888e-11
4.14922e-11
3.43414e-08
3.1579e-09
-3.45969e-08
3.37732e-08
3.43423e-09
3.29743e-08
3.48535e-09
3.20195e-08
3.43089e-09
3.09639e-08
3.3051e-09
2.9853e-08
3.12331e-09
2.87238e-08
2.90251e-09
2.76045e-08
2.65887e-09
2.6516e-08
2.40611e-09
2.54732e-08
2.15565e-09
2.44858e-08
1.91654e-09
2.35591e-08
1.69533e-09
2.26953e-08
1.49598e-09
2.18939e-08
1.32017e-09
2.11528e-08
1.16771e-09
2.04688e-08
1.03714e-09
1.9838e-08
9.26196e-10
1.92563e-08
8.32257e-10
1.87193e-08
7.52694e-10
1.8223e-08
6.85064e-10
1.77635e-08
6.27221e-10
1.73371e-08
5.77361e-10
1.69406e-08
5.3401e-10
1.6571e-08
4.95988e-10
1.62256e-08
4.62366e-10
1.59022e-08
4.32414e-10
1.55985e-08
4.05562e-10
1.53128e-08
3.81359e-10
1.50434e-08
3.59446e-10
1.47888e-08
3.3953e-10
1.45477e-08
3.21372e-10
1.43191e-08
3.04771e-10
1.41018e-08
2.89557e-10
1.38949e-08
2.75583e-10
1.36976e-08
2.62719e-10
1.35092e-08
2.50854e-10
1.33289e-08
2.39888e-10
1.31563e-08
2.29734e-10
1.29907e-08
2.20313e-10
1.28317e-08
2.11555e-10
1.26788e-08
2.03399e-10
1.25316e-08
1.95789e-10
1.23897e-08
1.88676e-10
1.22528e-08
1.82016e-10
1.21206e-08
1.75769e-10
1.19928e-08
1.69901e-10
1.18692e-08
1.64379e-10
1.17495e-08
1.59174e-10
1.16335e-08
1.54262e-10
1.15209e-08
1.49619e-10
1.14117e-08
1.45224e-10
1.13056e-08
1.41059e-10
1.12025e-08
1.37106e-10
1.11022e-08
1.3335e-10
1.10046e-08
1.29777e-10
1.09095e-08
1.26373e-10
1.08169e-08
1.23128e-10
1.07266e-08
1.2003e-10
1.06385e-08
1.1707e-10
1.05526e-08
1.14239e-10
1.04687e-08
1.11528e-10
1.03868e-08
1.08931e-10
1.03067e-08
1.06439e-10
1.02284e-08
1.04046e-10
1.01519e-08
1.01747e-10
1.0077e-08
9.95366e-11
1.00038e-08
9.74089e-11
9.93202e-09
9.53594e-11
9.86177e-09
9.33839e-11
9.79296e-09
9.14782e-11
9.72552e-09
8.96385e-11
9.65943e-09
8.78613e-11
9.59462e-09
8.61434e-11
9.53106e-09
8.44816e-11
9.46871e-09
8.2873e-11
9.40754e-09
8.13149e-11
9.3475e-09
7.98048e-11
9.28856e-09
7.83404e-11
9.23069e-09
7.69194e-11
9.17385e-09
7.55397e-11
9.11803e-09
7.41995e-11
9.06318e-09
7.28967e-11
9.00929e-09
7.16299e-11
8.95633e-09
7.03973e-11
8.90427e-09
6.91975e-11
8.85309e-09
6.80291e-11
8.80277e-09
6.68909e-11
8.75329e-09
6.57817e-11
8.70462e-09
6.47005e-11
8.65675e-09
6.36463e-11
8.60965e-09
6.26184e-11
8.56331e-09
6.16166e-11
8.51771e-09
6.06418e-11
8.47283e-09
5.9698e-11
8.42863e-09
5.87982e-11
8.38506e-09
5.79845e-11
8.34196e-09
5.73864e-11
8.29887e-09
5.74155e-11
8.25125e-09
6.25158e-11
1.05352e-10
3.64349e-08
2.97444e-09
-3.62515e-08
3.65273e-08
3.34191e-09
3.64962e-08
3.51646e-09
3.63462e-08
3.58081e-09
3.60869e-08
3.5644e-09
3.57319e-08
3.4783e-09
3.52982e-08
3.33623e-09
3.48032e-08
3.15386e-09
3.42634e-08
2.94591e-09
3.36936e-08
2.72546e-09
3.31065e-08
2.50362e-09
3.25127e-08
2.28919e-09
3.19203e-08
2.08838e-09
3.13355e-08
1.90491e-09
3.07629e-08
1.74039e-09
3.02052e-08
1.59478e-09
2.96644e-08
1.46698e-09
2.91415e-08
1.35519e-09
2.86368e-08
1.25739e-09
2.81503e-08
1.17155e-09
2.76818e-08
1.09577e-09
2.72307e-08
1.02843e-09
2.67966e-08
9.68137e-10
2.63788e-08
9.13771e-10
2.59767e-08
8.64425e-10
2.55898e-08
8.19376e-10
2.52173e-08
7.78051e-10
2.48587e-08
7.39991e-10
2.45133e-08
7.04825e-10
2.41806e-08
6.72249e-10
2.38599e-08
6.42006e-10
2.35508e-08
6.13881e-10
2.32527e-08
5.87683e-10
2.2965e-08
5.63248e-10
2.26873e-08
5.40427e-10
2.24191e-08
5.19088e-10
2.21599e-08
4.99112e-10
2.19092e-08
4.8039e-10
2.16667e-08
4.62821e-10
2.14319e-08
4.46317e-10
2.12045e-08
4.30795e-10
2.09841e-08
4.1618e-10
2.07704e-08
4.02403e-10
2.0563e-08
3.894e-10
2.03617e-08
3.77115e-10
2.01661e-08
3.65495e-10
1.9976e-08
3.54492e-10
1.97911e-08
3.44061e-10
1.96112e-08
3.34163e-10
1.94361e-08
3.2476e-10
1.92655e-08
3.15817e-10
1.90992e-08
3.07305e-10
1.89371e-08
2.99193e-10
1.8779e-08
2.91456e-10
1.86247e-08
2.84069e-10
1.84741e-08
2.7701e-10
1.8327e-08
2.70258e-10
1.81832e-08
2.63794e-10
1.80427e-08
2.576e-10
1.79052e-08
2.5166e-10
1.77708e-08
2.45959e-10
1.76393e-08
2.40482e-10
1.75105e-08
2.35217e-10
1.73844e-08
2.30152e-10
1.72609e-08
2.25275e-10
1.71398e-08
2.20576e-10
1.70212e-08
2.16045e-10
1.69049e-08
2.11673e-10
1.67908e-08
2.07452e-10
1.66789e-08
2.03373e-10
1.65691e-08
1.9943e-10
1.64614e-08
1.95614e-10
1.63556e-08
1.91921e-10
1.62517e-08
1.88343e-10
1.61497e-08
1.84874e-10
1.60495e-08
1.81511e-10
1.59511e-08
1.78246e-10
1.58543e-08
1.75075e-10
1.57593e-08
1.71995e-10
1.56658e-08
1.69e-10
1.55739e-08
1.66086e-10
1.54836e-08
1.63251e-10
1.53947e-08
1.60489e-10
1.53073e-08
1.57798e-10
1.52213e-08
1.55174e-10
1.51367e-08
1.52616e-10
1.50535e-08
1.50119e-10
1.49716e-08
1.47681e-10
1.4891e-08
1.453e-10
1.48117e-08
1.42975e-10
1.47336e-08
1.40702e-10
1.46567e-08
1.38482e-10
1.45811e-08
1.36315e-10
1.45066e-08
1.3421e-10
1.44332e-08
1.3219e-10
1.43608e-08
1.30334e-10
1.42893e-08
1.28898e-10
1.42178e-08
1.28909e-10
1.41426e-08
1.37683e-10
1.81531e-10
3.80068e-08
2.75183e-09
-3.77842e-08
3.82312e-08
3.11754e-09
3.84166e-08
3.33104e-09
3.85513e-08
3.44606e-09
3.86282e-08
3.48755e-09
3.86427e-08
3.46379e-09
3.85949e-08
3.38403e-09
3.84884e-08
3.26039e-09
3.83289e-08
3.10535e-09
3.81237e-08
2.93064e-09
3.78806e-08
2.74679e-09
3.76072e-08
2.5626e-09
3.73107e-08
2.38487e-09
3.69974e-08
2.21819e-09
3.66726e-08
2.06521e-09
3.63404e-08
1.92695e-09
3.60042e-08
1.80322e-09
3.56663e-08
1.69308e-09
3.53285e-08
1.59514e-09
3.49922e-08
1.50787e-09
3.46582e-08
1.42974e-09
3.43273e-08
1.35937e-09
3.39999e-08
1.29557e-09
3.36763e-08
1.23732e-09
3.33569e-08
1.18381e-09
3.30419e-08
1.13438e-09
3.27315e-08
1.08848e-09
3.24258e-08
1.0457e-09
3.21249e-08
1.00569e-09
3.1829e-08
9.68185e-10
3.1538e-08
9.3294e-10
3.12522e-08
8.99764e-10
3.09714e-08
8.68489e-10
3.06956e-08
8.38968e-10
3.0425e-08
8.11071e-10
3.01594e-08
7.84681e-10
2.98988e-08
7.59691e-10
2.96432e-08
7.36006e-10
2.93925e-08
7.13536e-10
2.91466e-08
6.92201e-10
2.89055e-08
6.71925e-10
2.8669e-08
6.5264e-10
2.84371e-08
6.3428e-10
2.82097e-08
6.16789e-10
2.79868e-08
6.00111e-10
2.77681e-08
5.84195e-10
2.75536e-08
5.68994e-10
2.73431e-08
5.54466e-10
2.71367e-08
5.40569e-10
2.69342e-08
5.27267e-10
2.67355e-08
5.14524e-10
2.65405e-08
5.02309e-10
2.63491e-08
4.9059e-10
2.61612e-08
4.7934e-10
2.59768e-08
4.68532e-10
2.57956e-08
4.58142e-10
2.56178e-08
4.48147e-10
2.5443e-08
4.38526e-10
2.52714e-08
4.29258e-10
2.51027e-08
4.20326e-10
2.49369e-08
4.11711e-10
2.4774e-08
4.03397e-10
2.46139e-08
3.95368e-10
2.44564e-08
3.87611e-10
2.43016e-08
3.80111e-10
2.41493e-08
3.72856e-10
2.39995e-08
3.65834e-10
2.38522e-08
3.59034e-10
2.37072e-08
3.52444e-10
2.35645e-08
3.46055e-10
2.34241e-08
3.39857e-10
2.32858e-08
3.33841e-10
2.31498e-08
3.27999e-10
2.30158e-08
3.22323e-10
2.28838e-08
3.16805e-10
2.27539e-08
3.11437e-10
2.26259e-08
3.06213e-10
2.24999e-08
3.01126e-10
2.23757e-08
2.9617e-10
2.22534e-08
2.91339e-10
2.21328e-08
2.86628e-10
2.20141e-08
2.8203e-10
2.1897e-08
2.77541e-10
2.17817e-08
2.73157e-10
2.1668e-08
2.68871e-10
2.15559e-08
2.64681e-10
2.14454e-08
2.60582e-10
2.13365e-08
2.5657e-10
2.12292e-08
2.52641e-10
2.11234e-08
2.48793e-10
2.10191e-08
2.45023e-10
2.09162e-08
2.4133e-10
2.08148e-08
2.37714e-10
2.07148e-08
2.34188e-10
2.06162e-08
2.30787e-10
2.05189e-08
2.27626e-10
2.04227e-08
2.2509e-10
2.03269e-08
2.24717e-10
2.02307e-08
2.33938e-10
2.68473e-10
3.95407e-08
2.55452e-09
-3.93434e-08
3.97676e-08
2.89066e-09
3.99896e-08
3.10901e-09
4.01949e-08
3.24084e-09
4.03756e-08
3.30684e-09
4.05244e-08
3.31498e-09
4.06361e-08
3.27229e-09
4.07084e-08
3.18813e-09
4.0741e-08
3.07271e-09
4.07358e-08
2.93589e-09
4.06958e-08
2.78675e-09
4.06252e-08
2.6332e-09
4.05284e-08
2.48163e-09
4.04099e-08
2.33669e-09
4.02738e-08
2.20137e-09
4.01235e-08
2.07723e-09
3.9962e-08
1.96468e-09
3.97918e-08
1.86337e-09
3.96145e-08
1.77243e-09
3.94316e-08
1.69075e-09
3.92442e-08
1.61716e-09
3.9053e-08
1.55052e-09
3.88588e-08
1.48981e-09
3.86619e-08
1.43416e-09
3.84629e-08
1.38283e-09
3.82621e-08
1.3352e-09
3.80598e-08
1.2908e-09
3.78562e-08
1.24923e-09
3.76518e-08
1.21016e-09
3.74466e-08
1.17334e-09
3.7241e-08
1.13855e-09
3.70352e-08
1.10561e-09
3.68293e-08
1.07436e-09
3.66236e-08
1.04469e-09
3.64182e-08
1.01646e-09
3.62133e-08
9.89578e-10
3.6009e-08
9.63949e-10
3.58055e-08
9.39489e-10
3.5603e-08
9.16121e-10
3.54014e-08
8.93775e-10
3.52009e-08
8.72388e-10
3.50017e-08
8.51899e-10
3.48037e-08
8.32254e-10
3.46071e-08
8.13402e-10
3.44119e-08
7.95298e-10
3.42182e-08
7.77898e-10
3.4026e-08
7.61163e-10
3.38354e-08
7.45054e-10
3.36465e-08
7.29538e-10
3.34591e-08
7.14582e-10
3.32735e-08
7.00157e-10
3.30896e-08
6.86235e-10
3.29074e-08
6.72791e-10
3.27269e-08
6.59799e-10
3.25482e-08
6.47237e-10
3.23713e-08
6.35084e-10
3.21961e-08
6.2332e-10
3.20227e-08
6.11926e-10
3.18511e-08
6.00885e-10
3.16812e-08
5.9018e-10
3.15131e-08
5.79797e-10
3.13468e-08
5.69719e-10
3.11823e-08
5.59933e-10
3.10194e-08
5.50427e-10
3.08584e-08
5.41188e-10
3.0699e-08
5.32204e-10
3.05414e-08
5.23465e-10
3.03855e-08
5.14959e-10
3.02312e-08
5.06677e-10
3.00787e-08
4.98609e-10
2.99278e-08
4.90747e-10
2.97785e-08
4.83081e-10
2.96309e-08
4.75604e-10
2.94849e-08
4.68307e-10
2.93406e-08
4.61183e-10
2.91978e-08
4.54225e-10
2.90566e-08
4.47426e-10
2.89169e-08
4.40779e-10
2.87788e-08
4.34278e-10
2.86422e-08
4.27916e-10
2.85072e-08
4.21688e-10
2.83736e-08
4.15588e-10
2.82415e-08
4.0961e-10
2.8111e-08
4.0375e-10
2.79818e-08
3.98002e-10
2.78541e-08
3.92362e-10
2.77279e-08
3.86824e-10
2.76031e-08
3.81386e-10
2.74797e-08
3.76042e-10
2.73577e-08
3.70789e-10
2.72371e-08
3.65624e-10
2.71179e-08
3.60546e-10
2.7e-08
3.55557e-10
2.68835e-08
3.50671e-10
2.67684e-08
3.45932e-10
2.66545e-08
3.41482e-10
2.65419e-08
3.37774e-10
2.64301e-08
3.36434e-10
2.6321e-08
3.43068e-10
3.62453e-10
4.1115e-08
2.38438e-09
-4.09448e-08
4.13213e-08
2.68435e-09
4.15356e-08
2.89471e-09
4.17459e-08
3.03047e-09
4.19458e-08
3.10696e-09
4.2129e-08
3.13184e-09
4.22902e-08
3.1111e-09
4.2426e-08
3.05232e-09
4.25347e-08
2.964e-09
4.2616e-08
2.85454e-09
4.2671e-08
2.73175e-09
4.27017e-08
2.60256e-09
4.27106e-08
2.47273e-09
4.27006e-08
2.34665e-09
4.26746e-08
2.22734e-09
4.26353e-08
2.11659e-09
4.25848e-08
2.01516e-09
4.25251e-08
1.92308e-09
4.24576e-08
1.83988e-09
4.23836e-08
1.76479e-09
4.23038e-08
1.69691e-09
4.2219e-08
1.63533e-09
4.21297e-08
1.57919e-09
4.20361e-08
1.52773e-09
4.19386e-08
1.48029e-09
4.18375e-08
1.43632e-09
4.17329e-08
1.39536e-09
4.16251e-08
1.35703e-09
4.15143e-08
1.32103e-09
4.14005e-08
1.28711e-09
4.1284e-08
1.25505e-09
4.11649e-08
1.22468e-09
4.10434e-08
1.19585e-09
4.09197e-08
1.16844e-09
4.07938e-08
1.14232e-09
4.0666e-08
1.11741e-09
4.05363e-08
1.09362e-09
4.04049e-08
1.07086e-09
4.0272e-08
1.04906e-09
4.01376e-08
1.02816e-09
4.00019e-08
1.0081e-09
3.9865e-08
9.8882e-10
3.9727e-08
9.70276e-10
3.95879e-08
9.52419e-10
3.9448e-08
9.35206e-10
3.93073e-08
9.18601e-10
3.91659e-08
9.02565e-10
3.90239e-08
8.87067e-10
3.88814e-08
8.72075e-10
3.87384e-08
8.57561e-10
3.85951e-08
8.435e-10
3.84514e-08
8.29866e-10
3.83076e-08
8.16638e-10
3.81636e-08
8.03794e-10
3.80195e-08
7.91315e-10
3.78754e-08
7.79183e-10
3.77313e-08
7.67381e-10
3.75874e-08
7.55894e-10
3.74436e-08
7.44705e-10
3.72999e-08
7.33803e-10
3.71566e-08
7.23174e-10
3.70135e-08
7.12805e-10
3.68707e-08
7.02686e-10
3.67283e-08
6.92806e-10
3.65864e-08
6.83155e-10
3.64449e-08
6.73723e-10
3.63038e-08
6.645e-10
3.61633e-08
6.5548e-10
3.60233e-08
6.46653e-10
3.58839e-08
6.38012e-10
3.57451e-08
6.29549e-10
3.56069e-08
6.21257e-10
3.54694e-08
6.1313e-10
3.53326e-08
6.05161e-10
3.51964e-08
5.97344e-10
3.5061e-08
5.89673e-10
3.49262e-08
5.82141e-10
3.47923e-08
5.74743e-10
3.46591e-08
5.67475e-10
3.45267e-08
5.60329e-10
3.4395e-08
5.53302e-10
3.42642e-08
5.46388e-10
3.41343e-08
5.39583e-10
3.40051e-08
5.32882e-10
3.38769e-08
5.2628e-10
3.37495e-08
5.19773e-10
3.36229e-08
5.13357e-10
3.34973e-08
5.07028e-10
3.33725e-08
5.00782e-10
3.32487e-08
4.94616e-10
3.31258e-08
4.88528e-10
3.30038e-08
4.82515e-10
3.28828e-08
4.76582e-10
3.27627e-08
4.70743e-10
3.26436e-08
4.65045e-10
3.25255e-08
4.59631e-10
3.24083e-08
4.54926e-10
3.22926e-08
4.52202e-10
3.21812e-08
4.54396e-10
4.57121e-10
4.27421e-08
2.23497e-09
-4.25927e-08
4.29271e-08
2.49933e-09
4.31256e-08
2.69625e-09
4.33256e-08
2.83043e-09
4.35208e-08
2.91177e-09
4.37058e-08
2.94685e-09
4.38761e-08
2.94087e-09
4.40283e-08
2.90007e-09
4.41607e-08
2.83158e-09
4.42727e-08
2.74262e-09
4.43644e-08
2.63998e-09
4.44372e-08
2.52976e-09
4.44928e-08
2.41713e-09
4.45333e-08
2.30618e-09
4.45608e-08
2.19983e-09
4.45774e-08
2.09998e-09
4.45849e-08
2.00764e-09
4.45849e-08
1.92311e-09
4.45786e-08
1.84622e-09
4.45669e-08
1.77647e-09
4.45506e-08
1.71322e-09
4.45301e-08
1.65575e-09
4.4506e-08
1.60335e-09
4.44783e-08
1.55537e-09
4.44474e-08
1.51122e-09
4.44133e-08
1.47041e-09
4.43762e-08
1.43251e-09
4.43361e-08
1.39716e-09
4.4293e-08
1.36408e-09
4.42471e-08
1.333e-09
4.41984e-08
1.30374e-09
4.4147e-08
1.2761e-09
4.40929e-08
1.24995e-09
4.40362e-08
1.22515e-09
4.39769e-08
1.20159e-09
4.39152e-08
1.17917e-09
4.3851e-08
1.15779e-09
4.37845e-08
1.13739e-09
4.37156e-08
1.11789e-09
4.36446e-08
1.09922e-09
4.35714e-08
1.08133e-09
4.3496e-08
1.06415e-09
4.34187e-08
1.04763e-09
4.33393e-08
1.03175e-09
4.32581e-08
1.01644e-09
4.31751e-08
1.00167e-09
4.30902e-08
9.87402e-10
4.30037e-08
9.73611e-10
4.29155e-08
9.60262e-10
4.28257e-08
9.47327e-10
4.27344e-08
9.34781e-10
4.26417e-08
9.226e-10
4.25476e-08
9.10762e-10
4.24521e-08
8.99248e-10
4.23554e-08
8.88037e-10
4.22575e-08
8.77114e-10
4.21584e-08
8.66463e-10
4.20582e-08
8.56067e-10
4.1957e-08
8.45915e-10
4.18548e-08
8.35992e-10
4.17517e-08
8.26287e-10
4.16477e-08
8.1679e-10
4.15429e-08
8.0749e-10
4.14373e-08
7.98376e-10
4.13311e-08
7.89442e-10
4.12241e-08
7.80677e-10
4.11165e-08
7.72074e-10
4.10084e-08
7.63626e-10
4.08997e-08
7.55325e-10
4.07906e-08
7.47166e-10
4.0681e-08
7.39141e-10
4.0571e-08
7.31246e-10
4.04606e-08
7.23473e-10
4.035e-08
7.15818e-10
4.0239e-08
7.08275e-10
4.01279e-08
7.0084e-10
4.00165e-08
6.93507e-10
3.9905e-08
6.86272e-10
3.97933e-08
6.7913e-10
3.96816e-08
6.72077e-10
3.95698e-08
6.65108e-10
3.94579e-08
6.58219e-10
3.93461e-08
6.51406e-10
3.92343e-08
6.44666e-10
3.91226e-08
6.37993e-10
3.9011e-08
6.31386e-10
3.88995e-08
6.2484e-10
3.87882e-08
6.18351e-10
3.86771e-08
6.11918e-10
3.85662e-08
6.05535e-10
3.84555e-08
5.99202e-10
3.83451e-08
5.92918e-10
3.8235e-08
5.86685e-10
3.81252e-08
5.80517e-10
3.80158e-08
5.74455e-10
3.79068e-08
5.68614e-10
3.77984e-08
5.63292e-10
3.76915e-08
5.59149e-10
3.75894e-08
5.56501e-10
5.44856e-10
4.44249e-08
2.10083e-09
-4.42907e-08
4.45915e-08
2.33266e-09
4.4774e-08
2.51378e-09
4.49612e-08
2.64325e-09
4.51465e-08
2.72643e-09
4.53251e-08
2.76834e-09
4.54926e-08
2.77337e-09
4.5646e-08
2.74663e-09
4.57835e-08
2.69404e-09
4.59044e-08
2.62175e-09
4.60087e-08
2.53567e-09
4.60973e-08
2.44117e-09
4.61715e-08
2.34289e-09
4.62331e-08
2.24459e-09
4.62839e-08
2.14909e-09
4.63255e-08
2.05834e-09
4.63597e-08
1.97349e-09
4.63877e-08
1.89508e-09
4.64107e-08
1.82318e-09
4.64297e-08
1.75753e-09
4.64452e-08
1.6977e-09
4.64578e-08
1.64316e-09
4.64678e-08
1.59334e-09
4.64755e-08
1.54769e-09
4.6481e-08
1.50573e-09
4.64844e-08
1.467e-09
4.64857e-08
1.43113e-09
4.64851e-08
1.39778e-09
4.64825e-08
1.36668e-09
4.64779e-08
1.33758e-09
4.64714e-08
1.31028e-09
4.64629e-08
1.28462e-09
4.64524e-08
1.26044e-09
4.64399e-08
1.23761e-09
4.64255e-08
1.21602e-09
4.64091e-08
1.19557e-09
4.63907e-08
1.17616e-09
4.63704e-08
1.15772e-09
4.63481e-08
1.14017e-09
4.63239e-08
1.12345e-09
4.62977e-08
1.10749e-09
4.62696e-08
1.09223e-09
4.62396e-08
1.07763e-09
4.62078e-08
1.06363e-09
4.6174e-08
1.0502e-09
4.61384e-08
1.03729e-09
4.61009e-08
1.02487e-09
4.60616e-08
1.01289e-09
4.60205e-08
1.00134e-09
4.59777e-08
9.90175e-10
4.59331e-08
9.79375e-10
4.58868e-08
9.68913e-10
4.58388e-08
9.58767e-10
4.57891e-08
9.48916e-10
4.57378e-08
9.39339e-10
4.56849e-08
9.30019e-10
4.56304e-08
9.20939e-10
4.55744e-08
9.12083e-10
4.55169e-08
9.03438e-10
4.54579e-08
8.94989e-10
4.53974e-08
8.86724e-10
4.53356e-08
8.78633e-10
4.52724e-08
8.70704e-10
4.52078e-08
8.62927e-10
4.5142e-08
8.55293e-10
4.50749e-08
8.47794e-10
4.50065e-08
8.40421e-10
4.4937e-08
8.33168e-10
4.48663e-08
8.26026e-10
4.47945e-08
8.1899e-10
4.47215e-08
8.12052e-10
4.46476e-08
8.05208e-10
4.45726e-08
7.98451e-10
4.44966e-08
7.91776e-10
4.44197e-08
7.85178e-10
4.43419e-08
7.78653e-10
4.42632e-08
7.72194e-10
4.41837e-08
7.65798e-10
4.41034e-08
7.5946e-10
4.40223e-08
7.53177e-10
4.39405e-08
7.46943e-10
4.38579e-08
7.40755e-10
4.37747e-08
7.3461e-10
4.36909e-08
7.28502e-10
4.36064e-08
7.2243e-10
4.35214e-08
7.16388e-10
4.34359e-08
7.10375e-10
4.33499e-08
7.04386e-10
4.32634e-08
6.9842e-10
4.31764e-08
6.92472e-10
4.30891e-08
6.86541e-10
4.30014e-08
6.80625e-10
4.29133e-08
6.74726e-10
4.2825e-08
6.68853e-10
4.27364e-08
6.63032e-10
4.26477e-08
6.57325e-10
4.25592e-08
6.51849e-10
4.24717e-08
6.46611e-10
4.23882e-08
6.3995e-10
6.18751e-10
4.61649e-08
1.97807e-09
-4.60422e-08
4.63164e-08
2.18115e-09
4.64844e-08
2.34584e-09
4.66591e-08
2.46857e-09
4.6834e-08
2.55147e-09
4.70044e-08
2.59793e-09
4.71663e-08
2.61145e-09
4.73168e-08
2.59616e-09
4.74539e-08
2.55691e-09
4.75768e-08
2.49888e-09
4.76853e-08
2.42714e-09
4.77801e-08
2.34639e-09
4.78622e-08
2.26078e-09
4.79331e-08
2.17375e-09
4.79942e-08
2.08797e-09
4.80472e-08
2.00538e-09
4.80934e-08
1.92724e-09
4.81342e-08
1.85426e-09
4.81707e-08
1.78671e-09
4.82037e-08
1.72453e-09
4.82339e-08
1.66749e-09
4.82619e-08
1.6152e-09
4.82879e-08
1.56726e-09
4.83124e-08
1.52323e-09
4.83354e-08
1.48269e-09
4.83572e-08
1.44527e-09
4.83777e-08
1.41062e-09
4.8397e-08
1.37846e-09
4.84152e-08
1.34851e-09
4.84322e-08
1.32056e-09
4.8448e-08
1.29442e-09
4.84627e-08
1.26992e-09
4.84763e-08
1.24692e-09
4.84886e-08
1.22528e-09
4.84997e-08
1.2049e-09
4.85096e-08
1.18568e-09
4.85182e-08
1.16752e-09
4.85256e-08
1.15034e-09
4.85317e-08
1.13408e-09
4.85365e-08
1.11865e-09
4.854e-08
1.10401e-09
4.85421e-08
1.09008e-09
4.85429e-08
1.07683e-09
4.85424e-08
1.06419e-09
4.85405e-08
1.05213e-09
4.85372e-08
1.0406e-09
4.85325e-08
1.02957e-09
4.85264e-08
1.019e-09
4.85188e-08
1.00885e-09
4.85099e-08
9.99102e-10
4.84996e-08
9.8972e-10
4.84878e-08
9.80681e-10
4.84746e-08
9.71959e-10
4.846e-08
9.63532e-10
4.8444e-08
9.55379e-10
4.84265e-08
9.47481e-10
4.84076e-08
9.39819e-10
4.83873e-08
9.32378e-10
4.83656e-08
9.25141e-10
4.83425e-08
9.18093e-10
4.8318e-08
9.11223e-10
4.82921e-08
9.04516e-10
4.82649e-08
8.97962e-10
4.82362e-08
8.91549e-10
4.82063e-08
8.85267e-10
4.8175e-08
8.79107e-10
4.81423e-08
8.7306e-10
4.81084e-08
8.67117e-10
4.80731e-08
8.61272e-10
4.80366e-08
8.55515e-10
4.79988e-08
8.49841e-10
4.79598e-08
8.44243e-10
4.79195e-08
8.38714e-10
4.7878e-08
8.33248e-10
4.78354e-08
8.2784e-10
4.77915e-08
8.22485e-10
4.77466e-08
8.17176e-10
4.77005e-08
8.1191e-10
4.76532e-08
8.0668e-10
4.76049e-08
8.01483e-10
4.75556e-08
7.96314e-10
4.75051e-08
7.91168e-10
4.74537e-08
7.86041e-10
4.74013e-08
7.80929e-10
4.73479e-08
7.75829e-10
4.72935e-08
7.70736e-10
4.72383e-08
7.65647e-10
4.71821e-08
7.60558e-10
4.71251e-08
7.55467e-10
4.70672e-08
7.50369e-10
4.70084e-08
7.45263e-10
4.69489e-08
7.40146e-10
4.68886e-08
7.35016e-10
4.68276e-08
7.29874e-10
4.67659e-08
7.24727e-10
4.67037e-08
7.19575e-10
4.66412e-08
7.14348e-10
4.65792e-08
7.08535e-10
4.65198e-08
6.99401e-10
6.74246e-10
4.79644e-08
1.864e-09
-4.78504e-08
4.81035e-08
2.04206e-09
4.82587e-08
2.19068e-09
4.84218e-08
2.30547e-09
4.85868e-08
2.38648e-09
4.8749e-08
2.43566e-09
4.89048e-08
2.45566e-09
4.90513e-08
2.44971e-09
4.91864e-08
2.42175e-09
4.93093e-08
2.37607e-09
4.94194e-08
2.31697e-09
4.95173e-08
2.24853e-09
4.96036e-08
2.17442e-09
4.96796e-08
2.09775e-09
4.97466e-08
2.02103e-09
4.98058e-08
1.94615e-09
4.98586e-08
1.87441e-09
4.99063e-08
1.80664e-09
4.99497e-08
1.74327e-09
4.99898e-08
1.68442e-09
5.00273e-08
1.63e-09
5.00627e-08
1.57981e-09
5.00964e-08
1.53353e-09
5.01288e-08
1.49085e-09
5.01601e-08
1.45144e-09
5.01904e-08
1.41497e-09
5.02198e-08
1.38117e-09
5.02485e-08
1.34977e-09
5.02765e-08
1.32054e-09
5.03037e-08
1.29328e-09
5.03304e-08
1.2678e-09
5.03563e-08
1.24396e-09
5.03816e-08
1.22161e-09
5.04063e-08
1.20063e-09
5.04303e-08
1.18092e-09
5.04536e-08
1.16238e-09
5.04762e-08
1.14491e-09
5.04981e-08
1.12844e-09
5.05193e-08
1.1129e-09
5.05397e-08
1.09821e-09
5.05594e-08
1.08432e-09
5.05783e-08
1.07117e-09
5.05964e-08
1.05871e-09
5.06137e-08
1.04688e-09
5.06302e-08
1.03565e-09
5.06458e-08
1.02498e-09
5.06606e-08
1.01481e-09
5.06745e-08
1.00512e-09
5.06874e-08
9.95878e-10
5.06995e-08
9.87047e-10
5.07106e-08
9.78599e-10
5.07208e-08
9.70509e-10
5.073e-08
9.62751e-10
5.07382e-08
9.55302e-10
5.07454e-08
9.4814e-10
5.07517e-08
9.41246e-10
5.07569e-08
9.346e-10
5.07611e-08
9.28184e-10
5.07643e-08
9.21983e-10
5.07664e-08
9.15981e-10
5.07674e-08
9.10165e-10
5.07674e-08
9.04519e-10
5.07663e-08
8.99033e-10
5.07642e-08
8.93695e-10
5.0761e-08
8.88492e-10
5.07567e-08
8.83416e-10
5.07513e-08
8.78457e-10
5.07448e-08
8.73604e-10
5.07372e-08
8.68851e-10
5.07285e-08
8.64188e-10
5.07188e-08
8.59607e-10
5.07079e-08
8.55103e-10
5.0696e-08
8.50666e-10
5.06829e-08
8.46291e-10
5.06688e-08
8.41972e-10
5.06536e-08
8.37701e-10
5.06373e-08
8.33474e-10
5.06199e-08
8.29284e-10
5.06014e-08
8.25125e-10
5.05819e-08
8.20993e-10
5.05614e-08
8.16883e-10
5.05397e-08
8.12788e-10
5.05171e-08
8.08706e-10
5.04934e-08
8.0463e-10
5.04687e-08
8.00556e-10
5.04429e-08
7.96481e-10
5.04162e-08
7.92399e-10
5.03884e-08
7.88308e-10
5.03597e-08
7.84203e-10
5.033e-08
7.80081e-10
5.02993e-08
7.75938e-10
5.02677e-08
7.7177e-10
5.02351e-08
7.67573e-10
5.02016e-08
7.63338e-10
5.01673e-08
7.59049e-10
5.01322e-08
7.54649e-10
5.00967e-08
7.49926e-10
5.00611e-08
7.44069e-10
5.00264e-08
7.34119e-10
7.09828e-10
4.98258e-08
1.75671e-09
-4.97185e-08
4.99548e-08
1.9131e-09
5.00988e-08
2.04662e-09
5.02514e-08
2.1529e-09
5.04071e-08
2.23082e-09
5.05615e-08
2.28123e-09
5.07112e-08
2.30598e-09
5.08533e-08
2.30755e-09
5.0986e-08
2.28907e-09
5.1108e-08
2.25403e-09
5.12189e-08
2.20607e-09
5.13188e-08
2.14868e-09
5.14082e-08
2.08506e-09
5.14879e-08
2.01801e-09
5.15591e-08
1.94982e-09
5.16229e-08
1.88232e-09
5.16805e-08
1.81682e-09
5.17329e-08
1.75423e-09
5.17811e-08
1.69507e-09
5.1826e-08
1.63961e-09
5.18681e-08
1.5879e-09
5.1908e-08
1.53986e-09
5.19462e-08
1.4953e-09
5.19831e-08
1.45399e-09
5.20188e-08
1.41569e-09
5.20537e-08
1.38014e-09
5.20878e-08
1.3471e-09
5.21212e-08
1.31636e-09
5.2154e-08
1.2877e-09
5.21863e-08
1.26095e-09
5.22182e-08
1.23595e-09
5.22496e-08
1.21255e-09
5.22806e-08
1.19062e-09
5.23112e-08
1.17006e-09
5.23413e-08
1.15075e-09
5.23711e-08
1.1326e-09
5.24005e-08
1.11552e-09
5.24295e-08
1.09945e-09
5.24581e-08
1.08431e-09
5.24863e-08
1.07003e-09
5.2514e-08
1.05656e-09
5.25414e-08
1.04383e-09
5.25683e-08
1.0318e-09
5.25947e-08
1.02042e-09
5.26207e-08
1.00965e-09
5.26463e-08
9.9944e-10
5.26713e-08
9.89757e-10
5.26959e-08
9.80564e-10
5.27199e-08
9.71829e-10
5.27435e-08
9.6352e-10
5.27664e-08
9.55609e-10
5.27889e-08
9.48068e-10
5.28108e-08
9.40874e-10
5.28321e-08
9.34003e-10
5.28528e-08
9.27433e-10
5.28729e-08
9.21144e-10
5.28924e-08
9.15116e-10
5.29112e-08
9.09333e-10
5.29294e-08
9.03777e-10
5.2947e-08
8.98433e-10
5.29638e-08
8.93287e-10
5.298e-08
8.88325e-10
5.29955e-08
8.83534e-10
5.30103e-08
8.78902e-10
5.30244e-08
8.74418e-10
5.30378e-08
8.70071e-10
5.30504e-08
8.65851e-10
5.30622e-08
8.61749e-10
5.30733e-08
8.57755e-10
5.30836e-08
8.53862e-10
5.30932e-08
8.5006e-10
5.31019e-08
8.46342e-10
5.31099e-08
8.42701e-10
5.31171e-08
8.3913e-10
5.31234e-08
8.35621e-10
5.3129e-08
8.32168e-10
5.31337e-08
8.28765e-10
5.31375e-08
8.25405e-10
5.31406e-08
8.22082e-10
5.31428e-08
8.18791e-10
5.31441e-08
8.15526e-10
5.31446e-08
8.12282e-10
5.31443e-08
8.09053e-10
5.31431e-08
8.05834e-10
5.3141e-08
8.02621e-10
5.31381e-08
7.99409e-10
5.31343e-08
7.96193e-10
5.31296e-08
7.92969e-10
5.31241e-08
7.89733e-10
5.31177e-08
7.86482e-10
5.31104e-08
7.8321e-10
5.31023e-08
7.79912e-10
5.30933e-08
7.76579e-10
5.30834e-08
7.73198e-10
5.30728e-08
7.69732e-10
5.30613e-08
7.66083e-10
5.30493e-08
7.61956e-10
5.30369e-08
7.56467e-10
5.3024e-08
7.47039e-10
7.26741e-10
5.17516e-08
1.65485e-09
-5.16497e-08
5.18722e-08
1.79248e-09
5.20067e-08
1.9121e-09
5.21499e-08
2.00975e-09
5.2297e-08
2.08375e-09
5.2444e-08
2.1342e-09
5.25877e-08
2.16223e-09
5.27256e-08
2.16971e-09
5.28556e-08
2.15908e-09
5.29765e-08
2.13315e-09
5.30876e-08
2.09493e-09
5.31889e-08
2.04738e-09
5.32807e-08
1.99329e-09
5.33636e-08
1.93511e-09
5.34384e-08
1.87496e-09
5.35062e-08
1.81453e-09
5.35679e-08
1.75512e-09
5.36245e-08
1.69766e-09
5.36768e-08
1.64278e-09
5.37256e-08
1.59082e-09
5.37715e-08
1.54197e-09
5.38151e-08
1.49623e-09
5.38569e-08
1.45353e-09
5.38972e-08
1.41373e-09
5.39362e-08
1.37665e-09
5.39743e-08
1.3421e-09
5.40115e-08
1.30989e-09
5.4048e-08
1.27984e-09
5.40839e-08
1.25178e-09
5.41193e-08
1.22555e-09
5.41542e-08
1.20101e-09
5.41888e-08
1.17801e-09
5.42229e-08
1.15646e-09
5.42568e-08
1.13623e-09
5.42903e-08
1.11724e-09
5.43235e-08
1.09939e-09
5.43564e-08
1.0826e-09
5.4389e-08
1.06681e-09
5.44214e-08
1.05194e-09
5.44535e-08
1.03792e-09
5.44854e-08
1.02471e-09
5.4517e-08
1.01225e-09
5.45483e-08
1.00048e-09
5.45793e-08
9.89366e-10
5.46101e-08
9.78858e-10
5.46406e-08
9.68919e-10
5.46709e-08
9.5951e-10
5.47009e-08
9.50596e-10
5.47305e-08
9.42145e-10
5.47599e-08
9.34127e-10
5.4789e-08
9.26514e-10
5.48178e-08
9.19279e-10
5.48463e-08
9.12397e-10
5.48745e-08
9.05846e-10
5.49023e-08
8.99604e-10
5.49298e-08
8.93652e-10
5.49569e-08
8.87969e-10
5.49837e-08
8.8254e-10
5.50101e-08
8.77347e-10
5.50362e-08
8.72375e-10
5.50619e-08
8.6761e-10
5.50872e-08
8.63039e-10
5.5112e-08
8.58648e-10
5.51365e-08
8.54426e-10
5.51606e-08
8.50361e-10
5.51842e-08
8.46443e-10
5.52074e-08
8.42662e-10
5.52301e-08
8.39008e-10
5.52524e-08
8.35473e-10
5.52742e-08
8.32047e-10
5.52956e-08
8.28723e-10
5.53164e-08
8.25493e-10
5.53368e-08
8.22349e-10
5.53566e-08
8.19285e-10
5.53759e-08
8.16292e-10
5.53947e-08
8.13365e-10
5.5413e-08
8.10497e-10
5.54307e-08
8.07681e-10
5.54479e-08
8.04912e-10
5.54645e-08
8.02184e-10
5.54806e-08
7.99491e-10
5.5496e-08
7.96828e-10
5.55109e-08
7.94189e-10
5.55251e-08
7.91569e-10
5.55388e-08
7.88963e-10
5.55518e-08
7.86367e-10
5.55643e-08
7.83777e-10
5.5576e-08
7.81187e-10
5.55872e-08
7.78594e-10
5.55977e-08
7.75994e-10
5.56075e-08
7.73381e-10
5.56166e-08
7.7075e-10
5.56251e-08
7.68091e-10
5.5633e-08
7.65382e-10
5.56401e-08
7.62575e-10
5.56466e-08
7.59552e-10
5.56526e-08
7.56002e-10
5.56579e-08
7.51131e-10
5.56619e-08
7.43056e-10
7.28033e-10
5.37445e-08
1.55738e-09
-5.36471e-08
5.38583e-08
1.67875e-09
5.39846e-08
1.78575e-09
5.41194e-08
1.87495e-09
5.42587e-08
1.94452e-09
5.43988e-08
1.99405e-09
5.45369e-08
2.02415e-09
5.46705e-08
2.03615e-09
5.47976e-08
2.0319e-09
5.49171e-08
2.01366e-09
5.50282e-08
1.98388e-09
5.51305e-08
1.94503e-09
5.52243e-08
1.89951e-09
5.53099e-08
1.84947e-09
5.53881e-08
1.79682e-09
5.54595e-08
1.74311e-09
5.5525e-08
1.68959e-09
5.55855e-08
1.63721e-09
5.56416e-08
1.58662e-09
5.56942e-08
1.53827e-09
5.57438e-08
1.4924e-09
5.57909e-08
1.44912e-09
5.5836e-08
1.40844e-09
5.58794e-08